0 	-13.5629
0.010101 	-8.35838
0.020202 	-8.35838
0.030303 	-6.29618
0.040404 	-7.78891
