0.010101 	1.93336e-13 	-1.94987e-16 	1.85563e-15
0.020202 	1.97356e-14 	-2.69862e-17 	1.21647e-16
