/*--------------------------------*- C++ -*----------------------------------*\
  =========                 |
  \\      /  F ield         | OpenFOAM: The Open Source CFD Toolbox
   \\    /   O peration     | Website:  https://openfoam.org
    \\  /    A nd           | Version:  6
     \\/     M anipulation  |
\*---------------------------------------------------------------------------*/
FoamFile
{
    version     2.0;
    format      ascii;
    class       volScalarField;
    location    "3250";
    object      Su;
}
// * * * * * * * * * * * * * * * * * * * * * * * * * * * * * * * * * * * * * //

dimensions      [0 0 -1 0 0 0 0];

internalField   nonuniform List<scalar> 
4800
(
0.218366
0.213929
0.209528
0.205192
0.200949
0.196834
0.192887
0.189135
0.185604
0.182305
0.179238
0.176386
0.173733
0.17126
0.168945
0.16677
0.164714
0.162756
0.160881
0.159077
0.157338
0.155661
0.154048
0.152504
0.151018
0.149579
0.148195
0.146863
0.145576
0.144312
0.143063
0.141825
0.140593
0.139369
0.138154
0.13695
0.135753
0.134558
0.133357
0.132141
0.130906
0.12965
0.128373
0.127072
0.125748
0.1244
0.12303
0.121642
0.120242
0.118836
0.117431
0.11603
0.114636
0.113253
0.111881
0.110519
0.10916
0.107798
0.106433
0.105067
0.103694
0.102312
0.100919
0.099506
0.0980653
0.0965819
0.0950372
0.0934092
0.0916614
0.0897435
0.0875993
0.0851689
0.0823844
0.0791853
0.0755271
0.0714019
0.06684
0.0619158
0.0567386
0.0514011
0.0460065
0.0406659
0.0355051
0.0304853
0.0255957
0.0208264
0.0161688
0.0116151
0.00715806
0.00279078
-0.00149315
-0.00569962
-0.00983445
-0.0139032
-0.0179111
-0.0218633
-0.0257643
-0.0296187
-0.0334307
-0.037204
-0.0409424
-0.0446491
-0.0483274
-0.05198
-0.0556096
-0.0592187
-0.0628093
-0.0663836
-0.0699435
-0.0734906
-0.0770265
-0.0805526
-0.0840703
-0.0875808
-0.0910852
-0.0945846
-0.09808
-0.101572
-0.105062
-0.108551
0.218351
0.213883
0.209454
0.205094
0.200834
0.19671
0.192759
0.189013
0.185494
0.182207
0.179146
0.176297
0.17364
0.171162
0.168844
0.166663
0.164601
0.162637
0.160757
0.158948
0.157201
0.155517
0.153895
0.152338
0.150842
0.149392
0.147993
0.146646
0.145348
0.144077
0.142828
0.141594
0.140366
0.139143
0.137928
0.136724
0.135528
0.134334
0.133137
0.131927
0.130698
0.129447
0.128175
0.12688
0.125561
0.124219
0.122855
0.121469
0.120068
0.118657
0.117243
0.115829
0.114422
0.113021
0.111628
0.110246
0.108867
0.107489
0.106107
0.104725
0.103337
0.101938
0.10053
0.0991013
0.0976492
0.0961612
0.0946128
0.0929796
0.0912284
0.0893116
0.0871735
0.0847564
0.0819956
0.0788283
0.0752176
0.0711497
0.0666437
0.06175
0.056584
0.0512636
0.0458777
0.0405406
0.0353882
0.0303768
0.0254947
0.0207323
0.0160809
0.011533
0.00708139
0.00271926
-0.00155976
-0.00576156
-0.00989195
-0.0139565
-0.0179604
-0.0219087
-0.0258062
-0.0296572
-0.0334659
-0.0372363
-0.0409719
-0.044676
-0.0483519
-0.0520022
-0.0556298
-0.0592368
-0.0628257
-0.0663983
-0.0699566
-0.0735022
-0.0770367
-0.0805616
-0.0840781
-0.0875874
-0.0910907
-0.094589
-0.0980834
-0.101575
-0.105064
-0.108552
0.218327
0.213813
0.209339
0.20494
0.200652
0.196514
0.192565
0.188829
0.185322
0.18204
0.178975
0.176119
0.173454
0.170966
0.168639
0.166451
0.164376
0.1624
0.16051
0.158694
0.156937
0.155238
0.153597
0.152013
0.150499
0.149029
0.147605
0.146225
0.144908
0.143624
0.142367
0.14113
0.139904
0.138682
0.137467
0.136259
0.135061
0.133865
0.132671
0.131469
0.130251
0.12901
0.127746
0.126457
0.125145
0.12381
0.122453
0.121074
0.119676
0.118263
0.116839
0.115408
0.113977
0.112549
0.111123
0.109704
0.108293
0.106884
0.105469
0.104055
0.10264
0.101217
0.0997876
0.0983385
0.0968674
0.0953607
0.0937988
0.0921585
0.0904086
0.0885011
0.0863791
0.0839883
0.0812645
0.0781461
0.0745912
0.0705815
0.0661412
0.0613215
0.0562102
0.0509301
0.04559
0.0402847
0.0351545
0.0301608
0.0252938
0.0205449
0.0159059
0.0113695
0.00692866
0.00257678
-0.00169248
-0.00588497
-0.0100065
-0.0140626
-0.0180585
-0.0219992
-0.0258895
-0.0297338
-0.0335362
-0.0373006
-0.0410307
-0.0447296
-0.0484006
-0.0520465
-0.0556698
-0.059273
-0.0628582
-0.0664275
-0.0699827
-0.0735253
-0.0770571
-0.0805794
-0.0840934
-0.0876005
-0.0911016
-0.0945978
-0.0980901
-0.101579
-0.105067
-0.108553
0.218298
0.213726
0.209201
0.204759
0.200444
0.196296
0.192345
0.188611
0.185101
0.181811
0.178734
0.175866
0.173191
0.170696
0.168363
0.166165
0.16408
0.162094
0.160189
0.158354
0.156577
0.154854
0.153182
0.151558
0.150002
0.1485
0.147046
0.145625
0.144275
0.142965
0.141687
0.140439
0.139207
0.137979
0.136758
0.135545
0.134341
0.133143
0.131952
0.130759
0.129551
0.128324
0.127074
0.125797
0.124495
0.12317
0.12182
0.120444
0.119049
0.117635
0.116202
0.114754
0.113297
0.111834
0.11037
0.10891
0.107457
0.106008
0.104557
0.103107
0.101657
0.100201
0.0987429
0.0972667
0.0957765
0.0942495
0.0926727
0.0910261
0.0892782
0.0873822
0.0852795
0.0829184
0.0802393
0.0771766
0.0736905
0.0697616
0.0654055
0.0606678
0.0556304
0.0504255
0.0451637
0.0399068
0.034808
0.0298395
0.0249946
0.0202655
0.0156448
0.0111255
0.00670078
0.0023642
-0.00189049
-0.00606908
-0.0101774
-0.0142208
-0.0182048
-0.0221342
-0.0260138
-0.029848
-0.0336409
-0.0373965
-0.0411183
-0.0448095
-0.0484733
-0.0521125
-0.0557296
-0.059327
-0.0629068
-0.066471
-0.0700215
-0.0735598
-0.0770875
-0.0806059
-0.0841163
-0.0876199
-0.0911178
-0.0946109
-0.0981002
-0.101587
-0.105071
-0.108554
0.218268
0.213634
0.209053
0.204573
0.200235
0.196074
0.192114
0.18837
0.184847
0.181543
0.178454
0.175575
0.172896
0.170401
0.168065
0.165863
0.163774
0.161777
0.159853
0.157991
0.15618
0.154413
0.15269
0.151007
0.149382
0.147818
0.146315
0.144851
0.143456
0.142109
0.140803
0.139531
0.138281
0.137039
0.135806
0.134583
0.13337
0.132167
0.130976
0.129789
0.128593
0.127382
0.12615
0.12489
0.123601
0.122287
0.120945
0.119573
0.118178
0.116761
0.115321
0.113858
0.112376
0.110882
0.109383
0.107884
0.106391
0.104901
0.103412
0.101922
0.100433
0.0989388
0.0974458
0.0959354
0.0944205
0.0928756
0.0912835
0.0896294
0.0878825
0.0859999
0.08392
0.0815938
0.0789705
0.0759734
0.0725667
0.0687345
0.0644978
0.0598948
0.054987
0.0498689
0.0446528
0.0394213
0.0343539
0.0294158
0.024599
0.0198958
0.0152993
0.0108025
0.00639913
0.00208281
-0.00215258
-0.00631275
-0.0104035
-0.0144302
-0.0183983
-0.0223127
-0.0261781
-0.029999
-0.0337794
-0.0375233
-0.0412341
-0.0449151
-0.0485694
-0.0521997
-0.0558085
-0.0593982
-0.0629709
-0.0665285
-0.0700728
-0.0736053
-0.0771276
-0.0806409
-0.0841466
-0.0876456
-0.0911392
-0.0946281
-0.0981135
-0.101596
-0.105077
-0.108556
0.218245
0.213565
0.208932
0.20441
0.200049
0.195873
0.191899
0.188137
0.184598
0.181281
0.178181
0.175297
0.17262
0.170123
0.167782
0.165573
0.163475
0.16146
0.15951
0.157615
0.155757
0.15393
0.152133
0.150375
0.148671
0.147026
0.145447
0.143924
0.142471
0.141078
0.139731
0.138425
0.137142
0.135874
0.134623
0.133385
0.132161
0.130951
0.129753
0.128563
0.127373
0.126175
0.124961
0.12372
0.122448
0.121148
0.119816
0.118448
0.117055
0.115637
0.114191
0.112717
0.111218
0.109701
0.108175
0.106647
0.10512
0.103594
0.102065
0.100534
0.0990023
0.0974667
0.0959326
0.094389
0.0928419
0.0912766
0.0896739
0.0880149
0.0862701
0.0844034
0.08235
0.0800589
0.0774882
0.0745647
0.0712549
0.0675392
0.0634258
0.0589505
0.0541759
0.0491661
0.0440164
0.0388197
0.0337917
0.0288913
0.0241092
0.019438
0.0148712
0.0104024
0.00602549
0.00173429
-0.00247713
-0.00661445
-0.0106834
-0.0146894
-0.0186378
-0.0225336
-0.0263815
-0.0301858
-0.0339507
-0.03768
-0.0413772
-0.0450456
-0.048688
-0.0523074
-0.055906
-0.0594862
-0.0630501
-0.0665995
-0.0701361
-0.0736615
-0.0771771
-0.0806842
-0.0841839
-0.0876774
-0.0911656
-0.0946494
-0.0981298
-0.101608
-0.105083
-0.108558
0.218216
0.213496
0.20885
0.204313
0.199924
0.19572
0.191724
0.187948
0.184396
0.18107
0.17797
0.175089
0.172411
0.169902
0.16754
0.165309
0.163184
0.161139
0.159153
0.157208
0.155285
0.153383
0.151504
0.149661
0.147868
0.146132
0.144464
0.14287
0.141348
0.139894
0.138495
0.137146
0.135824
0.134522
0.133246
0.131986
0.130744
0.12952
0.128307
0.127107
0.125912
0.124717
0.123513
0.122289
0.121036
0.119751
0.118429
0.117069
0.11568
0.114263
0.112817
0.11134
0.109834
0.108305
0.106763
0.105215
0.103663
0.102106
0.100542
0.0989703
0.0973935
0.0958151
0.0942372
0.092658
0.0910793
0.0894907
0.0878764
0.0862158
0.0844781
0.0826279
0.0806043
0.0783573
0.0758467
0.0729994
0.0697656
0.0661361
0.0621274
0.0577689
0.0531146
0.0482387
0.0432161
0.0380951
0.033122
0.028268
0.0235274
0.0188943
0.0143629
0.00992744
0.005582
0.00132074
-0.00286216
-0.00697228
-0.0110153
-0.0149967
-0.0189217
-0.0227954
-0.0266223
-0.030407
-0.0341535
-0.0378655
-0.0415466
-0.0452
-0.0488285
-0.0524348
-0.0560213
-0.0595903
-0.0631438
-0.0666834
-0.070211
-0.073728
-0.0772356
-0.0807353
-0.084228
-0.0877149
-0.0911968
-0.0946746
-0.0981492
-0.101621
-0.105092
-0.108561
0.218197
0.213442
0.208772
0.204229
0.199844
0.195637
0.19163
0.187846
0.184292
0.180969
0.177875
0.174991
0.172297
0.169765
0.167371
0.165096
0.162915
0.16081
0.158762
0.15675
0.154755
0.152775
0.150813
0.148877
0.146988
0.145157
0.143395
0.141711
0.140107
0.138578
0.137116
0.135717
0.134353
0.133018
0.131713
0.130427
0.12916
0.127912
0.126677
0.125458
0.12425
0.123047
0.121841
0.120621
0.11938
0.118108
0.116798
0.115448
0.114067
0.112656
0.111216
0.109744
0.108241
0.106709
0.105162
0.103604
0.102035
0.100454
0.0988613
0.0972536
0.0956329
0.0940091
0.0923889
0.0907716
0.0891614
0.0875535
0.0859298
0.0842697
0.0825441
0.0807128
0.0787239
0.0765198
0.0740505
0.0712702
0.0681328
0.0646153
0.0607242
0.0564884
0.0519627
0.0472182
0.0423119
0.0372641
0.0323505
0.0275487
0.0228556
0.0182666
0.0137765
0.0093799
0.00507111
0.000844582
-0.00330528
-0.00738396
-0.011397
-0.01535
-0.0192481
-0.0230962
-0.0268991
-0.0306611
-0.0343864
-0.0380785
-0.0417411
-0.0453771
-0.0489895
-0.0525809
-0.0561536
-0.0597096
-0.0632511
-0.0667796
-0.0702968
-0.073804
-0.0773026
-0.0807938
-0.0842785
-0.0877578
-0.0912325
-0.0947034
-0.0981713
-0.101637
-0.105101
-0.108564
0.218202
0.213454
0.208793
0.204251
0.199856
0.195644
0.191641
0.187864
0.184319
0.181011
0.177926
0.175035
0.172316
0.169748
0.167308
0.16497
0.162713
0.160523
0.158382
0.156281
0.154202
0.152134
0.150079
0.148043
0.146049
0.144114
0.142254
0.140477
0.138785
0.137175
0.13564
0.134176
0.132764
0.131393
0.130056
0.128742
0.127448
0.126169
0.124902
0.123653
0.122425
0.121205
0.119988
0.118765
0.117525
0.116258
0.114957
0.113617
0.112246
0.110846
0.109417
0.107958
0.106466
0.10494
0.103394
0.101833
0.100253
0.0986555
0.0970382
0.0954006
0.0937433
0.0920751
0.0904124
0.0887593
0.0871209
0.0854943
0.0838632
0.0822052
0.0804905
0.07868
0.0767241
0.0745835
0.0721892
0.0694862
0.066437
0.0630258
0.059254
0.0551433
0.0507394
0.0461135
0.0413141
0.0363331
0.0314791
0.0267335
0.022094
0.0175559
0.0131138
0.00876202
0.00449535
0.000308495
-0.00380382
-0.00784688
-0.0118261
-0.015747
-0.0196146
-0.023434
-0.0272098
-0.0309463
-0.0346476
-0.0383175
-0.0419591
-0.0455757
-0.0491701
-0.0527446
-0.0563016
-0.0598432
-0.0633712
-0.0668872
-0.0703927
-0.0738891
-0.0773776
-0.0808592
-0.084335
-0.0878058
-0.0912724
-0.0947356
-0.0981961
-0.101654
-0.105111
-0.108568
0.218219
0.213497
0.208848
0.204324
0.199959
0.195771
0.191787
0.188032
0.184509
0.181221
0.178144
0.175247
0.1725
0.169881
0.167376
0.164959
0.162612
0.16032
0.158073
0.15586
0.153667
0.151487
0.14932
0.147172
0.145066
0.143016
0.141045
0.139167
0.137384
0.135691
0.134082
0.132549
0.131083
0.129672
0.128304
0.126962
0.125637
0.124324
0.123024
0.121738
0.12048
0.119235
0.117999
0.116763
0.115515
0.114247
0.112951
0.111624
0.110267
0.108882
0.107469
0.106022
0.104541
0.103023
0.101481
0.0999191
0.0983345
0.0967259
0.0950909
0.0934283
0.0917415
0.0900355
0.0883341
0.0866459
0.084981
0.0833381
0.0817034
0.0800524
0.0783511
0.0765694
0.0746495
0.0725571
0.070228
0.0676149
0.0646723
0.0613759
0.0577266
0.0537452
0.0494633
0.0449402
0.0402267
0.0352982
0.0305016
0.0258168
0.0212389
0.0167607
0.012375
0.00807552
0.00385724
-0.000284652
-0.0043548
-0.00835812
-0.0122998
-0.016185
-0.0200189
-0.0238064
-0.0275522
-0.0312605
-0.0349354
-0.0385805
-0.0421991
-0.0457943
-0.0493686
-0.0529246
-0.0564644
-0.05999
-0.0635032
-0.0670054
-0.0704981
-0.0739826
-0.0774599
-0.080931
-0.0843969
-0.0878584
-0.0913161
-0.0947709
-0.0982232
-0.101674
-0.105123
-0.108571
0.218262
0.213623
0.20904
0.204544
0.200189
0.19603
0.192093
0.188375
0.184878
0.181604
0.178524
0.175615
0.172834
0.170159
0.167581
0.16507
0.162612
0.160199
0.157822
0.155482
0.153162
0.150855
0.14856
0.146279
0.144043
0.141871
0.139785
0.137799
0.135915
0.134134
0.132453
0.130856
0.129333
0.127879
0.126481
0.125112
0.123756
0.122411
0.121078
0.119758
0.118465
0.11719
0.115929
0.114675
0.113416
0.112143
0.110849
0.109527
0.10818
0.106804
0.1054
0.103962
0.102489
0.100979
0.0994429
0.0978831
0.0962974
0.0946832
0.0930371
0.0913561
0.0896461
0.0879106
0.086176
0.0844562
0.0827662
0.0811079
0.0794699
0.0778254
0.0761368
0.0743778
0.0724995
0.0704621
0.068205
0.0656745
0.062833
0.0596526
0.0561275
0.0522716
0.0481025
0.0436635
0.0390199
0.0341367
0.0293978
0.0247828
0.02028
0.0158757
0.0115586
0.00732131
0.00315906
-0.000931875
-0.00495501
-0.00891446
-0.0128149
-0.0166611
-0.0204582
-0.0242109
-0.0279239
-0.0316015
-0.0352476
-0.0388658
-0.0424593
-0.046031
-0.0495837
-0.0531195
-0.0566406
-0.0601489
-0.0636459
-0.0671332
-0.070612
-0.0740835
-0.0775487
-0.0810086
-0.0844638
-0.0879152
-0.0913634
-0.094809
-0.0982525
-0.101694
-0.105135
-0.108575
0.21829
0.213706
0.209186
0.204768
0.200493
0.196398
0.192513
0.188849
0.185404
0.182156
0.179073
0.176138
0.173318
0.170588
0.167926
0.165308
0.162731
0.160184
0.157667
0.155179
0.152712
0.150256
0.14781
0.145383
0.143006
0.140702
0.138494
0.136397
0.134411
0.132532
0.130765
0.1291
0.127523
0.126027
0.124599
0.123205
0.121823
0.120451
0.11909
0.117742
0.116418
0.115112
0.113821
0.112542
0.111264
0.109977
0.108676
0.107352
0.106006
0.104632
0.103231
0.101799
0.100335
0.0988331
0.0973037
0.0957485
0.0941651
0.0925497
0.0908975
0.0892048
0.0874772
0.0857209
0.0839593
0.0822136
0.0805
0.0788248
0.0771822
0.0755442
0.0738712
0.0721358
0.0703009
0.0683175
0.0661334
0.0636857
0.0609369
0.0578608
0.0544449
0.0506932
0.0466204
0.0422587
0.037667
0.0328088
0.0281299
0.0236025
0.0191987
0.0148911
0.0106611
0.00649959
0.00240304
-0.00163003
-0.00560097
-0.00951241
-0.013368
-0.0171721
-0.0209294
-0.0246446
-0.0283224
-0.0319668
-0.0355819
-0.0391711
-0.0427376
-0.0462842
-0.0498135
-0.0533277
-0.0568288
-0.0603185
-0.0637983
-0.0672695
-0.0707335
-0.0741912
-0.0776435
-0.0810912
-0.0845351
-0.0879757
-0.0914137
-0.0948495
-0.0982837
-0.101717
-0.105148
-0.10858
0.218325
0.213813
0.209373
0.205046
0.200871
0.196873
0.193075
0.189479
0.18608
0.182854
0.179773
0.176813
0.173953
0.171157
0.168403
0.16567
0.162962
0.160273
0.157604
0.154954
0.152323
0.149703
0.147094
0.144506
0.141976
0.139533
0.137197
0.134979
0.132883
0.1309
0.12904
0.127297
0.12566
0.124121
0.12266
0.121245
0.119842
0.118446
0.11706
0.115687
0.114334
0.112998
0.111677
0.110368
0.109065
0.10776
0.106446
0.105116
0.103765
0.102391
0.10099
0.0995616
0.0981039
0.0966122
0.0950912
0.0935425
0.0919636
0.0903498
0.0886953
0.0869958
0.0852537
0.0834845
0.0817032
0.0799372
0.0782035
0.0765104
0.0748555
0.0732177
0.0715587
0.0698426
0.0680379
0.0660994
0.0639797
0.0616151
0.0589617
0.0559864
0.0526631
0.0489909
0.0449832
0.0406714
0.0361052
0.0312421
0.0266333
0.0222299
0.0179679
0.0137938
0.00967809
0.00561072
0.0015918
-0.00237554
-0.00628886
-0.0101482
-0.0139556
-0.0177145
-0.0214294
-0.0251046
-0.0287448
-0.0323539
-0.0359359
-0.0394943
-0.043032
-0.0465519
-0.0500565
-0.0535477
-0.0570274
-0.0604974
-0.0639589
-0.0674133
-0.0708615
-0.0743046
-0.0777432
-0.0811782
-0.0846101
-0.0880394
-0.0914667
-0.0948922
-0.0983165
-0.10174
-0.105162
-0.108584
0.218388
0.214001
0.209679
0.205462
0.201384
0.197466
0.193736
0.190201
0.186852
0.183657
0.180583
0.177603
0.174699
0.171829
0.168984
0.166136
0.163293
0.160453
0.157623
0.154806
0.152
0.149204
0.146419
0.143659
0.140965
0.138373
0.135904
0.133562
0.131349
0.129264
0.127307
0.125473
0.123759
0.122163
0.120662
0.119222
0.117802
0.116386
0.114979
0.113584
0.112207
0.110845
0.109496
0.10816
0.106832
0.105507
0.104179
0.102839
0.101483
0.100106
0.0987044
0.0972779
0.0958251
0.0943427
0.0928312
0.091291
0.0897187
0.0881095
0.0864555
0.0847527
0.0830008
0.0812204
0.0794261
0.0776435
0.0758917
0.0741816
0.0725097
0.0708615
0.0692084
0.0675095
0.0657328
0.0638358
0.0617701
0.0594729
0.0568948
0.0540027
0.0507609
0.0471496
0.0431658
0.0388457
0.0342436
0.0293173
0.0248092
0.0206039
0.0165575
0.0125728
0.00860821
0.00465747
0.000729553
-0.00316391
-0.00701431
-0.0108177
-0.0145737
-0.0182849
-0.0219548
-0.0255878
-0.0291881
-0.0327599
-0.0363071
-0.0398328
-0.0433403
-0.0468321
-0.0503105
-0.0537775
-0.0572349
-0.0606842
-0.0641265
-0.0675632
-0.0709949
-0.0744227
-0.0778471
-0.0812688
-0.0846882
-0.0881057
-0.0915217
-0.0949366
-0.0983506
-0.101764
-0.105177
-0.108589
0.218464
0.214225
0.210036
0.205935
0.201956
0.198132
0.194496
0.191039
0.18774
0.184565
0.181488
0.178482
0.17552
0.17257
0.169623
0.16666
0.163691
0.160711
0.15772
0.154727
0.151739
0.148759
0.14579
0.142853
0.139989
0.137237
0.134624
0.132154
0.12982
0.127624
0.125566
0.12364
0.121843
0.120174
0.118615
0.117139
0.1157
0.114268
0.112844
0.111433
0.110039
0.108657
0.107286
0.105926
0.104577
0.103234
0.101892
0.100543
0.0991812
0.0978005
0.096398
0.0949722
0.0935229
0.0920479
0.0905463
0.0890165
0.0874533
0.0858517
0.0842009
0.0824972
0.0807412
0.078952
0.0771486
0.0753531
0.0735845
0.0718559
0.0701646
0.0684984
0.0668416
0.0651495
0.0633888
0.0615269
0.0595106
0.0572759
0.0547675
0.0519416
0.0487532
0.0451659
0.0411445
0.0367122
0.0319418
0.0268323
0.0225186
0.0186616
0.0149508
0.0112311
0.00746008
0.00364858
-0.000176275
-0.00398905
-0.00777219
-0.0115164
-0.0152185
-0.0188794
-0.0225022
-0.0260908
-0.0296494
-0.0331821
-0.0366926
-0.0401843
-0.0436601
-0.0471224
-0.0505736
-0.0540154
-0.0574495
-0.0608772
-0.0642997
-0.0677179
-0.0711327
-0.0745446
-0.0779543
-0.0813621
-0.0847686
-0.088174
-0.0915785
-0.0949823
-0.0983857
-0.101789
-0.105192
-0.108594
0.218541
0.214454
0.210409
0.20644
0.20259
0.198888
0.195338
0.19193
0.188661
0.185509
0.182435
0.179402
0.176391
0.173375
0.170342
0.167277
0.164176
0.161041
0.157881
0.154707
0.151532
0.148364
0.145209
0.142088
0.139046
0.136125
0.13336
0.130758
0.128305
0.126
0.123843
0.121827
0.119943
0.118189
0.116553
0.115018
0.113546
0.112098
0.11066
0.109237
0.107833
0.106439
0.105053
0.103677
0.102313
0.100956
0.0996025
0.0982451
0.0968786
0.0954962
0.0940935
0.0926688
0.0912222
0.0897527
0.0882592
0.0867397
0.0851875
0.0835965
0.0819533
0.0802529
0.0784972
0.0767023
0.0748918
0.0730867
0.0713029
0.0695527
0.0678388
0.0661508
0.0644778
0.0627805
0.0610207
0.0591747
0.0571962
0.0550207
0.0525865
0.0498269
0.0466735
0.0430614
0.0389072
0.0341958
0.0289989
0.0234032
0.0195943
0.0163849
0.0131805
0.00980551
0.00626136
0.00260244
-0.00111375
-0.00484289
-0.00855659
-0.0122396
-0.0158857
-0.0194944
-0.023068
-0.0266103
-0.0301254
-0.0336174
-0.0370898
-0.0405461
-0.0439889
-0.0474207
-0.0508436
-0.0542594
-0.0576694
-0.061075
-0.0644769
-0.0678762
-0.0712734
-0.0746691
-0.0780637
-0.0814575
-0.0848507
-0.0882436
-0.0916363
-0.0950289
-0.0984215
-0.101814
-0.105207
-0.108599
0.218622
0.214696
0.210813
0.207
0.203283
0.199681
0.19621
0.192867
0.189642
0.186503
0.183413
0.180344
0.17728
0.174193
0.171069
0.167898
0.164677
0.161404
0.158086
0.154738
0.151379
0.148021
0.144675
0.141368
0.138153
0.135074
0.132162
0.129424
0.126846
0.124428
0.122163
0.120045
0.118065
0.116223
0.114506
0.112899
0.111372
0.109894
0.108439
0.107005
0.105598
0.1042
0.102807
0.101423
0.10005
0.0986844
0.0973231
0.0959601
0.0945918
0.0932112
0.0918116
0.0903908
0.0889487
0.0874851
0.0859988
0.0844875
0.0829446
0.0813622
0.0797267
0.0780331
0.0762845
0.0744907
0.0726747
0.070861
0.0690643
0.0672941
0.0655537
0.0638419
0.0621477
0.0604337
0.0586677
0.0568222
0.0548592
0.0527171
0.050329
0.0476156
0.0444833
0.0408334
0.0365056
0.03134
0.0252068
0.0180708
0.0159317
0.0139154
0.0113851
0.00838625
0.00506372
0.00154738
-0.0020671
-0.00571603
-0.0093612
-0.0129824
-0.0165713
-0.020126
-0.0236488
-0.0271431
-0.0306131
-0.0340628
-0.0374958
-0.0409154
-0.0443242
-0.0477246
-0.0511185
-0.0545075
-0.0578928
-0.0612756
-0.0646567
-0.0680366
-0.071416
-0.0747952
-0.0781744
-0.0815539
-0.0849337
-0.088314
-0.0916948
-0.095076
-0.0984577
-0.10184
-0.105222
-0.108604
0.218703
0.214941
0.211215
0.207546
0.203953
0.200457
0.197068
0.193783
0.19059
0.18746
0.184356
0.181257
0.178149
0.175002
0.171801
0.168536
0.165198
0.161788
0.158319
0.154809
0.15128
0.147748
0.144227
0.140744
0.137349
0.134095
0.13102
0.128136
0.125424
0.12288
0.120505
0.118296
0.11623
0.1143
0.1125
0.110816
0.109224
0.107699
0.106213
0.104762
0.103354
0.101953
0.100557
0.099173
0.0977977
0.0964309
0.0950675
0.0937034
0.0923358
0.0909587
0.0895659
0.0881531
0.0867198
0.0852658
0.0837897
0.0822886
0.0807562
0.0791836
0.0775576
0.0758715
0.0741316
0.0723441
0.0705275
0.0687052
0.0668933
0.0651017
0.0633337
0.0615919
0.0598708
0.0581299
0.0563499
0.0544921
0.052526
0.0504026
0.0480521
0.0453891
0.0422978
0.0386447
0.0341966
0.0285729
0.0208064
0.00679902
0.0120007
0.0117845
0.00985257
0.00711071
0.00393131
0.000514005
-0.00302085
-0.00659977
-0.0101803
-0.0137406
-0.0172714
-0.0207708
-0.0242411
-0.0276858
-0.0311092
-0.0345152
-0.0379076
-0.0412894
-0.0446633
-0.0480315
-0.0513957
-0.0547574
-0.0581177
-0.0614775
-0.0648373
-0.0681977
-0.0715591
-0.0749216
-0.0782853
-0.0816504
-0.0850168
-0.0883845
-0.0917533
-0.0951231
-0.0984938
-0.101865
-0.105237
-0.108609
0.21878
0.215172
0.211597
0.208069
0.204603
0.201213
0.197904
0.194674
0.191508
0.188377
0.185255
0.182131
0.178983
0.175782
0.172514
0.169164
0.165721
0.162187
0.158571
0.154901
0.151208
0.147512
0.143823
0.140169
0.136601
0.133172
0.129925
0.126889
0.124056
0.121402
0.118921
0.116611
0.114453
0.112435
0.110553
0.108793
0.107134
0.105559
0.104036
0.102559
0.101139
0.0997311
0.0983332
0.0969573
0.0955882
0.0942275
0.0928685
0.0915096
0.0901469
0.0887755
0.087391
0.0859879
0.0845649
0.0831213
0.0816554
0.0801648
0.0786428
0.0770796
0.0754645
0.0737878
0.0720576
0.0702791
0.0684667
0.0666403
0.064815
0.0630004
0.0612042
0.05943
0.0576742
0.055902
0.0541004
0.0522277
0.0502542
0.04814
0.0458221
0.0432192
0.0402147
0.036675
0.0323996
0.0271419
0.0206085
0.0127503
0.0124422
0.0111228
0.00889974
0.00608109
0.00290212
-0.000481336
-0.0039667
-0.00748898
-0.0110101
-0.0145106
-0.0179827
-0.0214255
-0.0248416
-0.0282351
-0.0316104
-0.0349715
-0.0383221
-0.0416653
-0.0450036
-0.048339
-0.0516731
-0.0550072
-0.0583421
-0.0616786
-0.0650171
-0.068358
-0.0717013
-0.0750471
-0.0783955
-0.0817462
-0.0850992
-0.0884543
-0.0918113
-0.0951698
-0.0985297
-0.101891
-0.105252
-0.108614
0.218854
0.215393
0.21196
0.208568
0.205223
0.201932
0.198697
0.195514
0.19237
0.18924
0.186106
0.182959
0.179777
0.17653
0.1732
0.16977
0.166227
0.162574
0.158822
0.155007
0.151163
0.147303
0.143439
0.13962
0.135909
0.132345
0.128961
0.125782
0.122814
0.120033
0.117432
0.11501
0.112757
0.110652
0.108683
0.106845
0.105114
0.103487
0.101926
0.100427
0.0989814
0.0975635
0.0961617
0.0947943
0.0934341
0.0920835
0.0907351
0.0893875
0.088036
0.0866762
0.0853042
0.0839147
0.0825057
0.0810755
0.0796215
0.0781411
0.0766294
0.0750752
0.0734712
0.0718061
0.070086
0.0683167
0.0665096
0.0646828
0.0628471
0.061011
0.0591859
0.0573778
0.055583
0.0537763
0.0519433
0.0500524
0.048069
0.0459634
0.0436799
0.0411417
0.038261
0.0349347
0.031034
0.0264972
0.0213742
0.0164335
0.013606
0.0110584
0.00827372
0.00521369
0.00194633
-0.00144932
-0.00490793
-0.00838378
-0.0118492
-0.0152903
-0.0187026
-0.022087
-0.0254472
-0.0287878
-0.0321134
-0.0354284
-0.0387363
-0.04204
-0.0453421
-0.0486443
-0.0519481
-0.0552544
-0.0585639
-0.0618772
-0.0651945
-0.0685158
-0.0718413
-0.0751706
-0.0785037
-0.0818404
-0.0851802
-0.0885229
-0.0918682
-0.0952156
-0.0985648
-0.101915
-0.105267
-0.108619
0.218926
0.215605
0.212306
0.209037
0.205801
0.2026
0.199433
0.196294
0.193171
0.190047
0.186903
0.183738
0.180523
0.17723
0.173836
0.170329
0.1667
0.16295
0.159087
0.155146
0.151165
0.14717
0.143173
0.139213
0.135358
0.131648
0.128108
0.124766
0.121649
0.118744
0.11604
0.113523
0.111174
0.108977
0.106917
0.104993
0.103186
0.101498
0.0998933
0.0983768
0.0969056
0.0954798
0.0940771
0.0927202
0.0913696
0.0900307
0.0886954
0.0873625
0.0860259
0.0846831
0.0833286
0.0819571
0.0805653
0.0791508
0.0777104
0.0762408
0.0747387
0.0731928
0.0715971
0.0699435
0.0682338
0.0664735
0.0646716
0.0628471
0.0610051
0.0591531
0.0573017
0.0554569
0.0536213
0.0517779
0.0499061
0.0479884
0.0459856
0.0438755
0.0416257
0.0391623
0.0364202
0.0333329
0.0298389
0.0259272
0.0217129
0.0175777
0.0140822
0.0108662
0.00765916
0.00437277
0.00100473
-0.00241587
-0.00585554
-0.0092882
-0.0126981
-0.0160784
-0.0194288
-0.0227525
-0.0260546
-0.0293404
-0.0326149
-0.0358824
-0.0391467
-0.0424104
-0.0456759
-0.0489447
-0.0522181
-0.0554967
-0.058781
-0.0620713
-0.0653676
-0.0686698
-0.0719777
-0.0752909
-0.0786091
-0.0819319
-0.0852589
-0.0885895
-0.0919234
-0.09526
-0.0985989
-0.10194
-0.105281
-0.108624
0.218994
0.215804
0.212627
0.209468
0.206329
0.20321
0.200107
0.197012
0.193911
0.190793
0.187641
0.184454
0.181201
0.177856
0.174405
0.170833
0.167136
0.163313
0.159361
0.155298
0.15118
0.147054
0.142932
0.138845
0.134872
0.131049
0.127388
0.1239
0.120632
0.117599
0.114786
0.112171
0.109734
0.107451
0.105295
0.103275
0.101383
0.099622
0.0979717
0.0964273
0.0949411
0.0935098
0.0921134
0.090766
0.089425
0.0880985
0.0867772
0.0854603
0.0841425
0.082821
0.0814895
0.080141
0.0787699
0.0773724
0.0759451
0.0744852
0.0729898
0.0714498
0.0698573
0.0682101
0.0665095
0.0647578
0.0629624
0.0611408
0.0592965
0.0574344
0.0555631
0.0536868
0.0518112
0.0499292
0.0480207
0.0460725
0.044053
0.0419357
0.039701
0.0372961
0.0346762
0.0317828
0.0285943
0.0251294
0.0214464
0.0175974
0.0138896
0.0103646
0.0069105
0.00347025
2.89696e-05
-0.00340621
-0.00682201
-0.0102078
-0.0135585
-0.0168743
-0.0201593
-0.0234192
-0.0266605
-0.0298894
-0.033111
-0.03633
-0.0395499
-0.0427732
-0.0460019
-0.0492374
-0.0524805
-0.0557318
-0.0589913
-0.062259
-0.0655348
-0.0688183
-0.0721091
-0.0754066
-0.0787104
-0.0820199
-0.0853344
-0.0886535
-0.0919764
-0.0953027
-0.0986316
-0.101963
-0.105295
-0.108629
0.219053
0.215978
0.212904
0.209837
0.20678
0.203733
0.200688
0.197635
0.194566
0.191464
0.188312
0.185104
0.181812
0.178416
0.174902
0.171263
0.167488
0.163557
0.159483
0.155314
0.151101
0.146882
0.14266
0.13848
0.134439
0.130561
0.126822
0.123217
0.119802
0.116627
0.113691
0.110981
0.10847
0.106118
0.103879
0.101764
0.0997888
0.0979486
0.0962402
0.0946494
0.0931419
0.0917017
0.0903112
0.0889687
0.0876369
0.0863209
0.0850126
0.0837125
0.0824166
0.0811211
0.0798183
0.0784973
0.0771489
0.0757665
0.074346
0.072886
0.0713861
0.0698417
0.0682438
0.0665932
0.0648954
0.0631503
0.0613653
0.0595534
0.0577157
0.0558541
0.0539741
0.0520789
0.0501725
0.0482527
0.0463087
0.0443264
0.0422826
0.0401573
0.0379325
0.0355629
0.0330275
0.0302786
0.0272959
0.0240895
0.0206957
0.0170223
0.013245
0.00958279
0.0059983
0.00247062
-0.00100822
-0.00443816
-0.00781772
-0.0111477
-0.0144321
-0.0176776
-0.0208921
-0.0240841
-0.0272614
-0.0304308
-0.033598
-0.0367673
-0.0399421
-0.0431247
-0.0463168
-0.0495192
-0.0527326
-0.0559571
-0.0591924
-0.0624383
-0.0656943
-0.0689598
-0.0722342
-0.0755167
-0.0788067
-0.0821034
-0.0854062
-0.0887142
-0.0920267
-0.0953431
-0.0986627
-0.101985
-0.105308
-0.108633
0.219098
0.216111
0.213122
0.210135
0.207149
0.204164
0.201172
0.198163
0.195126
0.192038
0.188887
0.185653
0.182314
0.178859
0.175277
0.171557
0.167689
0.163669
0.15951
0.155269
0.151004
0.146742
0.142478
0.138235
0.134125
0.13021
0.126444
0.12277
0.11923
0.115905
0.112828
0.110006
0.107421
0.105021
0.102728
0.100528
0.0984776
0.0965645
0.0947946
0.0931489
0.0915998
0.0901369
0.0887362
0.0873868
0.0860541
0.08474
0.0834392
0.082156
0.0808856
0.0796207
0.0783508
0.0770592
0.075731
0.0743552
0.0729273
0.0714457
0.069917
0.0683446
0.0667228
0.0650529
0.0633509
0.0616153
0.059848
0.0580571
0.0562433
0.0544011
0.0525332
0.0506403
0.0487241
0.0467806
0.0448065
0.0427912
0.0407186
0.0385718
0.0363419
0.0339894
0.031495
0.02883
0.0259801
0.0229343
0.0196957
0.0161211
0.0123228
0.0085957
0.00493968
0.00136713
-0.00211983
-0.00552349
-0.0088508
-0.0121123
-0.0153201
-0.0184869
-0.0216246
-0.0247436
-0.027853
-0.0309603
-0.0340711
-0.0371898
-0.0403192
-0.0434612
-0.046617
-0.0497872
-0.0529716
-0.0561702
-0.0593822
-0.0626072
-0.0658443
-0.0690927
-0.0723516
-0.0756199
-0.0788969
-0.0821817
-0.0854733
-0.0887709
-0.0920738
-0.0953809
-0.0986916
-0.102005
-0.10532
-0.108637
0.219128
0.216202
0.213274
0.210348
0.207425
0.204501
0.201562
0.198591
0.195575
0.192493
0.189335
0.186075
0.182688
0.179158
0.175482
0.171669
0.167726
0.163635
0.159402
0.155087
0.150769
0.146485
0.142219
0.137985
0.133881
0.129984
0.126254
0.122594
0.119
0.115558
0.112335
0.109371
0.106686
0.104236
0.101936
0.0996861
0.0975668
0.0955908
0.0937684
0.0920731
0.0904759
0.088966
0.0875231
0.086135
0.084775
0.0834399
0.0821324
0.0808628
0.0796215
0.0783901
0.0771504
0.0758818
0.0745604
0.0731717
0.0717099
0.0701693
0.0685611
0.0669031
0.0652262
0.0635155
0.0617951
0.0600726
0.0583423
0.0565985
0.0548389
0.0530508
0.051232
0.0493756
0.0474794
0.0455293
0.04353
0.0414773
0.0393712
0.037201
0.0349633
0.0326294
0.0301668
0.0275566
0.0247804
0.0218153
0.0186438
0.015109
0.0112291
0.00747158
0.00375761
0.000159194
-0.00331563
-0.00667262
-0.00992856
-0.0131049
-0.0162228
-0.0193004
-0.0223529
-0.0253928
-0.0284301
-0.0314725
-0.0345254
-0.0375927
-0.0406767
-0.0437786
-0.0468991
-0.0500379
-0.0531946
-0.0563684
-0.0595585
-0.0627637
-0.0659831
-0.0692156
-0.0724599
-0.0757151
-0.07898
-0.0822537
-0.0855351
-0.0888232
-0.092117
-0.0954157
-0.0987183
-0.102024
-0.105332
-0.108641
0.219142
0.216247
0.213361
0.210488
0.207619