/*--------------------------------*- C++ -*----------------------------------*\
  =========                 |
  \\      /  F ield         | OpenFOAM: The Open Source CFD Toolbox
   \\    /   O peration     | Website:  https://openfoam.org
    \\  /    A nd           | Version:  6
     \\/     M anipulation  |
\*---------------------------------------------------------------------------*/
FoamFile
{
    version     2.0;
    format      ascii;
    class       surfaceScalarField;
    location    "600";
    object      phi;
}
// * * * * * * * * * * * * * * * * * * * * * * * * * * * * * * * * * * * * * //

dimensions      [0 3 -1 0 0 0 0];

internalField   nonuniform List<scalar> 
9440
(
-2.30278e-11
2.30278e-11
-1.88617e-10
1.6559e-10
-3.83345e-10
1.94729e-10
-5.28216e-10
1.44871e-10
-5.85515e-10
5.72996e-11
-6.77156e-10
9.16414e-11
-8.07692e-10
1.30536e-10
-9.08235e-10
1.00544e-10
-9.84723e-10
7.64877e-11
-1.04778e-09
6.30566e-11
-1.09301e-09
4.5235e-11
-1.13276e-09
3.97513e-11
-1.17747e-09
4.4704e-11
-1.25374e-09
7.62703e-11
-1.35191e-09
9.81679e-11
-1.38839e-09
3.64849e-11
-1.45961e-09
7.12216e-11
-1.54554e-09
8.59287e-11
-1.61229e-09
6.67478e-11
-1.67242e-09
6.01376e-11
-1.70592e-09
3.34922e-11
-1.73114e-09
2.52232e-11
-1.80858e-09
7.74356e-11
-1.95771e-09
1.49136e-10
-2.10408e-09
1.46369e-10
-2.21431e-09
1.10226e-10
-2.27731e-09
6.30018e-11
-2.36133e-09
8.40232e-11
-2.45639e-09
9.50623e-11
-2.49236e-09
3.5967e-11
-2.58566e-09
9.32977e-11
-2.67747e-09
9.18095e-11
-2.75288e-09
7.54154e-11
-2.83537e-09
8.24892e-11
-2.88135e-09
4.59817e-11
-2.9108e-09
2.94411e-11
-2.94079e-09
2.9998e-11
-2.92911e-09
-1.1684e-11
-2.93212e-09
3.01154e-12
-2.92965e-09
-2.46703e-12
-2.94712e-09
1.74694e-11
-2.92797e-09
-1.91508e-11
-2.91597e-09
-1.20087e-11
-2.86135e-09
-5.46131e-11
-2.80032e-09
-6.10272e-11
-2.80589e-09
5.56864e-12
-2.80172e-09
-4.17464e-12
-2.75844e-09
-4.32764e-11
-2.75653e-09
-1.91092e-12
-2.74037e-09
-1.61627e-11
-2.73603e-09
-4.33852e-12
-2.74669e-09
1.06634e-11
-2.72101e-09
-2.56894e-11
-2.70376e-09
-1.72416e-11
-2.67217e-09
-3.15981e-11
-2.6038e-09
-6.83662e-11
-2.53845e-09
-6.53513e-11
-2.47917e-09
-5.92773e-11
-2.44124e-09
-3.79335e-11
-2.42507e-09
-1.61679e-11
-2.42279e-09
-2.28568e-12
-2.42502e-09
2.22602e-12
-2.43614e-09
1.11276e-11
-2.43779e-09
1.64384e-12
-2.41842e-09
-1.9372e-11
-2.35451e-09
-6.39043e-11
-2.28357e-09
-7.09418e-11
-2.26885e-09
-1.47219e-11
-2.33247e-09
6.36156e-11
-2.52725e-09
1.94778e-10
-2.72991e-09
2.02659e-10
-2.81578e-09
8.58781e-11
-2.71859e-09
-9.71952e-11
-2.4233e-09
-2.95285e-10
-2.14214e-09
-2.81164e-10
-1.9328e-09
-2.0934e-10
-1.68357e-09
-2.4923e-10
-1.33835e-09
-3.45219e-10
-9.45604e-10
-3.92751e-10
6.74721e-17
-9.45604e-10
2.13231e-18
1.29468e-18
1.15374e-18
9.78577e-19
6.41948e-19
5.11644e-19
4.05243e-19
2.36567e-19
3.18443e-19
8.67314e-20
3.14906e-19
3.54711e-21
3.59471e-19
-4.44797e-20
4.32532e-19
-7.29084e-20
5.22187e-19
-8.94426e-20
6.20519e-19
-9.80671e-20
7.21832e-19
-1.01004e-19
8.218e-19
-9.96252e-20
9.17052e-19
-9.48848e-20
1.00495e-18
-8.75188e-20
1.08347e-18
-7.81403e-20
1.15111e-18
-6.7282e-20
1.20687e-18
-5.5413e-20
1.25012e-18
-4.29436e-20
1.28062e-18
-3.02283e-20
1.29842e-18
-1.75652e-20
1.30383e-18
-5.19925e-21
1.29734e-18
6.67561e-21
1.2796e-18
1.79122e-20
1.25137e-18
2.84064e-20
1.21347e-18
3.80912e-20
1.16674e-18
4.69319e-20
1.11204e-18
5.49204e-20
1.05021e-18
6.20699e-20
9.82054e-19
6.84094e-20
9.08342e-19
7.39786e-20
8.29798e-19
7.88254e-20
7.47089e-19
8.30006e-20
6.60834e-19
8.65561e-20
5.71602e-19
8.95427e-20
4.79912e-19
9.20078e-20
3.86243e-19
9.39945e-20
2.91032e-19
9.55408e-20
1.94686e-19
9.66812e-20
9.75726e-20
9.74514e-20
9.79129e-20
-2.28286e-10
2.51315e-10
-2.65807e-10
2.03112e-10
-4.36173e-10
3.65094e-10
-5.85578e-10
2.94277e-10
-7.88454e-10
2.60176e-10
-8.73762e-10
1.7695e-10
-9.50411e-10
2.07186e-10
-1.04466e-09
1.94789e-10
-1.05797e-09
8.97983e-11
-1.10278e-09
1.07867e-10
-1.11633e-09
5.87873e-11
-1.1154e-09
3.88278e-11
-1.1427e-09
7.20054e-11
-1.19657e-09
1.30135e-10
-1.24276e-09
1.44364e-10
-1.30962e-09
1.03337e-10
-1.38811e-09
1.49715e-10
-1.44452e-09
1.42335e-10
-1.50245e-09
1.24688e-10
-1.53003e-09
8.77175e-11
-1.56179e-09
6.52513e-11
-1.60364e-09
6.70705e-11
-1.64965e-09
1.23449e-10
-1.72679e-09
2.26272e-10
-1.89283e-09
3.12408e-10
-2.00895e-09
2.2635e-10
-2.07928e-09
1.3333e-10
-2.06151e-09
6.62488e-11
-2.12557e-09
1.59129e-10
-2.32173e-09
2.3212e-10
-2.38128e-09
1.52851e-10
-2.47454e-09
1.85069e-10
-2.55547e-09
1.56348e-10
-2.58748e-09
1.14493e-10
-2.62389e-09
8.23923e-11
-2.62456e-09
3.01136e-11
-2.61488e-09
2.03159e-11
-2.59734e-09
-2.92276e-11
-2.52372e-09
-7.06053e-11
-2.45812e-09
-6.80665e-11
-2.46387e-09
2.32153e-11
-2.38322e-09
-9.97983e-11
-2.37431e-09
-2.0919e-11
-2.29332e-09
-1.35598e-10
-2.27212e-09
-8.22264e-11
-2.21051e-09
-5.6042e-11
-2.074e-09
-1.40686e-10
-2.00773e-09
-1.0955e-10
-1.97738e-09
-3.22595e-11
-1.92802e-09
-6.55196e-11
-1.85833e-09
-7.40341e-11
-1.82338e-09
-2.42877e-11
-1.77201e-09
-7.70577e-11
-1.73434e-09
-5.49152e-11
-1.69514e-09
-7.07973e-11
-1.63271e-09
-1.30794e-10
-1.59582e-09
-1.02248e-10
-1.55594e-09
-9.91552e-11
-1.52343e-09
-7.04443e-11
-1.50557e-09
-3.40278e-11
-1.49533e-09
-1.25324e-11
-1.48497e-09
-8.13395e-12
-1.47051e-09
-3.32988e-12
-1.45142e-09
-1.74451e-11
-1.43972e-09
-3.10775e-11
-1.46078e-09
-4.28462e-11
-1.49705e-09
-3.46752e-11
-1.55867e-09
4.69052e-11
-1.6147e-09
1.19638e-10
-1.59824e-09
1.78324e-10
-1.53639e-09
1.40806e-10
-1.40026e-09
-5.02592e-11
-1.17134e-09
-3.26109e-10
-1.07246e-09
-3.9417e-10
-9.29241e-10
-4.24381e-10
-7.41918e-10
-3.96664e-10
-6.12452e-10
-3.78696e-10
-5.99876e-10
-3.57796e-10
-5.76281e-10
-4.16346e-10
2.03774e-16
-1.52189e-09
1.67366e-18
5.00733e-18
6.86366e-19
1.96567e-18
3.6713e-19
8.30641e-19
2.55416e-19
3.48181e-19
2.35259e-19
1.0692e-19
2.6688e-19
-2.79207e-20
3.31042e-19
-1.08377e-19
4.15998e-19
-1.57495e-19
5.13562e-19
-1.86549e-19
6.17582e-19
-2.01553e-19
7.2321e-19
-2.06039e-19
8.26541e-19
-2.02322e-19
9.24418e-19
-1.92108e-19
1.01433e-18
-1.76773e-19
1.09432e-18
-1.575e-19
1.16298e-18
-1.35337e-19
1.21934e-18
-1.11212e-19
1.26284e-18
-8.59413e-20
1.29329e-18
-6.02295e-20
1.31079e-18
-3.46698e-20
1.3157e-18
-9.74859e-21
1.30858e-18
1.41492e-20
1.2901e-18
3.67328e-20
1.26106e-18
5.7797e-20
1.22231e-18
7.72117e-20
1.17473e-18
9.49124e-20
1.11919e-18
1.10887e-19
1.05655e-18
1.25168e-19
9.87623e-19
1.37815e-19
9.13189e-19
1.48915e-19
8.33973e-19
1.58565e-19
7.50644e-19
1.6687e-19
6.63821e-19
1.73936e-19
5.74067e-19
1.79867e-19
4.81899e-19
1.84758e-19
3.87789e-19
1.88696e-19
2.92172e-19
1.91757e-19
1.95456e-19
1.94002e-19
9.80342e-20
1.95482e-19
1.96217e-19
-3.21175e-10
5.7249e-10
-5.85701e-10
4.67638e-10
-5.91558e-10
3.70952e-10
-6.23551e-10
3.2627e-10
-7.57866e-10
3.94493e-10
-8.99915e-10
3.18999e-10
-9.86928e-10
2.942e-10
-1.1084e-09
3.16259e-10
-1.19833e-09
1.79728e-10
-1.23372e-09
1.43264e-10
-1.23252e-09
5.75887e-11
-1.22211e-09
2.84138e-11
-1.21345e-09
6.33464e-11
-1.18711e-09
1.03802e-10
-1.17087e-09
1.28121e-10
-1.23252e-09
1.64991e-10
-1.2656e-09
1.82795e-10
-1.28312e-09
1.59855e-10
-1.31669e-09
1.5826e-10
-1.35422e-09
1.25243e-10
-1.38878e-09
9.9809e-11
-1.40246e-09
8.0749e-11
-1.39272e-09
1.13712e-10
-1.39421e-09
2.27767e-10
-1.47432e-09
3.92517e-10
-1.5723e-09
3.24327e-10
-1.65308e-09
2.14111e-10
-1.85752e-09
2.70686e-10
-2.01383e-09
3.15442e-10
-2.09216e-09
3.10452e-10
-2.20285e-09
2.63541e-10
-2.34908e-09
3.31296e-10
-2.44483e-09
2.52098e-10
-2.48331e-09
1.52978e-10
-2.54792e-09
1.46997e-10
-2.59818e-09
8.03782e-11
-2.60191e-09
2.40479e-11
-2.62084e-09
-1.03018e-11
-2.53172e-09
-1.59729e-10
-2.43127e-09
-1.68515e-10
-2.42813e-09
2.00722e-11
-2.37748e-09
-1.50448e-10
-2.37171e-09
-2.66821e-11
-2.30646e-09
-2.00852e-10
-2.21002e-09
-1.78661e-10
-2.09024e-09
-1.75823e-10
-1.93826e-09
-2.92665e-10
-1.8212e-09
-2.26613e-10
-1.76917e-09
-8.42914e-11
-1.65459e-09
-1.80101e-10
-1.52113e-09
-2.07498e-10
-1.45457e-09
-9.08394e-11
-1.35234e-09
-1.79295e-10
-1.31095e-09
-9.63e-11
-1.28652e-09
-9.52363e-11
-1.24473e-09
-1.72579e-10
-1.22427e-09
-1.2271e-10
-1.16616e-09
-1.57271e-10
-1.11784e-09
-1.18763e-10
-1.10345e-09
-4.84181e-11
-1.05919e-09
-5.67894e-11
-1.01356e-09
-5.37678e-11
-9.89056e-10
-2.78356e-11
-9.92457e-10
-1.40455e-11
-1.00531e-09
-1.82237e-11
-1.01054e-09
-3.76171e-11
-1.01271e-09
-3.25116e-11
-9.7315e-10
7.34816e-12
-9.10155e-10
5.66419e-11
-8.02693e-10
7.08607e-11
-6.71011e-10
9.12303e-12
-5.49915e-10
-1.71357e-10
-4.46297e-10
-4.29727e-10
-4.62991e-10
-3.77477e-10
-3.80915e-10
-5.06458e-10
-2.51012e-10
-5.26567e-10
-1.09714e-11
-6.18738e-10
1.36794e-10
-5.05562e-10
-1.23395e-10
-1.56158e-10
2.01074e-16
-1.64528e-09
-1.63169e-18
8.69764e-20
-4.47922e-19
7.81797e-19
-1.14658e-19
4.97142e-19
1.41797e-20
2.19211e-19
1.00418e-19
2.06588e-20
1.86424e-19
-1.13845e-19
2.81924e-19
-2.037e-19
3.86944e-19
-2.62249e-19
4.98558e-19
-2.97817e-19
6.13097e-19
-3.15675e-19
7.26927e-19
-3.19393e-19
8.36755e-19
-3.11628e-19
9.39753e-19
-2.9455e-19
1.0336e-18
-2.70044e-19
1.11649e-18
-2.3981e-19
1.18711e-18
-2.05389e-19
1.24461e-18
-1.68167e-19
1.28855e-18
-1.29371e-19
1.31885e-18
-9.00566e-20
1.33571e-18
-5.1111e-20
1.3396e-18
-1.32561e-20
1.33116e-18
2.29426e-20
1.31116e-18
5.70627e-20
1.28047e-18
8.88109e-20
1.24001e-18
1.18008e-19
1.19071e-18
1.4457e-19
1.13347e-18
1.68494e-19
1.0692e-18
1.89838e-19
9.98723e-19
2.08707e-19
9.22839e-19
2.25237e-19
8.42278e-19
2.39583e-19
7.57711e-19
2.51909e-19
6.69751e-19
2.62382e-19
5.78958e-19
2.71158e-19
4.85837e-19
2.78387e-19
3.9085e-19
2.842e-19
2.94418e-19
2.88711e-19
1.96935e-19
2.92014e-19
9.87692e-20
2.94179e-19
2.9525e-19
-1.07348e-10
6.79839e-10
-3.08043e-10
6.68334e-10
-5.408e-10
6.03709e-10
-6.43625e-10
4.29096e-10
-7.32751e-10
4.8362e-10
-9.14382e-10
5.0063e-10
-9.89863e-10
3.69682e-10
-1.10286e-09
4.29255e-10
-1.2168e-09
2.93666e-10
-1.27731e-09
2.03783e-10
-1.28577e-09
6.60481e-11
-1.31623e-09
5.88724e-11
-1.33145e-09
7.85609e-11
-1.28099e-09
5.33463e-11
-1.21778e-09
6.49152e-11
-1.15534e-09
1.02544e-10
-1.08171e-09
1.09174e-10
-1.02839e-09
1.06532e-10
-1.02726e-09
1.57127e-10
-1.09618e-09
1.9417e-10
-1.1756e-09
1.79225e-10
-1.23262e-09
1.37773e-10
-1.24588e-09
1.26971e-10
-1.24095e-09
2.22839e-10
-1.25549e-09
4.07057e-10
-1.38983e-09
4.58665e-10
-1.54507e-09
3.69349e-10
-1.62593e-09
3.51541e-10
-1.81756e-09
5.07077e-10
-1.98405e-09
4.7694e-10
-2.12355e-09
4.03046e-10
-2.15556e-09
3.633e-10
-2.22247e-09
3.19004e-10
-2.33496e-09
2.65469e-10
-2.40944e-09
2.21478e-10
-2.46877e-09
1.39711e-10
-2.45012e-09
5.39854e-12
-2.45352e-09
-6.90336e-12
-2.44352e-09
-1.69732e-10
-2.34254e-09
-2.69498e-10
-2.23342e-09
-8.90472e-11
-2.26647e-09
-1.17396e-10
-2.22267e-09
-7.04818e-11
-2.18607e-09
-2.37452e-10
-2.1174e-09
-2.47329e-10
-2.02449e-09
-2.68739e-10
-1.94714e-09
-3.70012e-10
-1.7891e-09
-3.84649e-10
-1.71649e-09
-1.56908e-10
-1.67293e-09
-2.2366e-10
-1.55728e-09
-3.2315e-10
-1.48947e-09
-1.58646e-10
-1.42782e-09
-2.40943e-10
-1.37252e-09
-1.51609e-10
-1.35796e-09
-1.09795e-10
-1.28797e-09
-2.42566e-10
-1.27862e-09
-1.32061e-10
-1.20768e-09
-2.2821e-10
-1.11219e-09
-2.14254e-10
-1.13742e-09
-2.31953e-11
-1.04984e-09
-1.44367e-10
-1.02845e-09
-7.51581e-11
-9.80091e-10
-7.61978e-11
-9.70305e-10
-2.38323e-11
-9.40389e-10
-4.81411e-11
-9.14472e-10
-6.35353e-11
-8.80519e-10
-6.64653e-11
-8.11453e-10
-6.17195e-11
-7.36321e-10
-1.84901e-11
-6.09005e-10
-5.6457e-11
-4.95899e-10
-1.03983e-10
-3.96592e-10
-2.70666e-10
-3.70604e-10
-4.55716e-10
-3.01361e-10
-4.46721e-10
-2.46626e-10
-5.61193e-10
-1.70219e-10
-6.02974e-10
-1.94035e-10
-5.94923e-10
-1.18948e-10
-5.8065e-10
-3.79383e-11
-2.37168e-10
2.09339e-16
-1.68322e-09
-1.28891e-18
-3.79518e-19
-7.31905e-19
2.24688e-19
-3.91934e-19
1.56908e-19
-1.84339e-19
1.14423e-20
-3.40853e-20
-1.2967e-19
9.65682e-20
-2.44477e-19
2.23376e-19
-3.30396e-19
3.51375e-19
-3.9005e-19
4.807e-19
-4.26864e-19
6.09379e-19
-4.44003e-19
7.34691e-19
-4.44286e-19
8.53834e-19
-4.30291e-19
9.64258e-19
-4.04444e-19
1.06383e-18
-3.69048e-19
1.15091e-18
-3.26289e-19
1.22433e-18
-2.782e-19
1.2834e-18
-2.26635e-19
1.32786e-18
-1.73239e-19
1.35779e-18
-1.19426e-19
1.37357e-18
-6.63728e-20
1.3758e-18
-1.50272e-20
1.36528e-18
3.3879e-20
1.34291e-18
7.98102e-20
1.30967e-18
1.22405e-19
1.26658e-18
1.61453e-19
1.21463e-18
1.96871e-19
1.15482e-18
2.2868e-19
1.08807e-18
2.56981e-19
1.01525e-18
2.81934e-19
9.37185e-19
3.03738e-19
8.54604e-19
3.22616e-19
7.68183e-19
3.388e-19
6.78528e-19
3.52519e-19
5.86187e-19
3.63994e-19
4.9165e-19
3.73428e-19
3.95361e-19
3.81001e-19
2.97721e-19
3.86869e-19
1.991e-19
3.91159e-19
9.98395e-20
3.93966e-19
3.95354e-19
-1.20363e-10
8.00202e-10
-2.7761e-10
8.25583e-10
-4.49981e-10
7.76081e-10
-6.57422e-10
6.36537e-10
-7.98346e-10
6.24545e-10
-9.0017e-10
6.02455e-10
-9.27748e-10
3.9726e-10
-1.01052e-09
5.12023e-10
-1.1416e-09
4.24751e-10
-1.19272e-09
2.54906e-10
-1.28476e-09
1.5809e-10
-1.38853e-09
1.62635e-10
-1.39879e-09
8.88259e-11
-1.38628e-09
4.08371e-11
-1.36997e-09
4.86028e-11
-1.2662e-09
-1.22066e-12
-1.1275e-09
-2.95313e-11
-1.04445e-09
2.3489e-11
-9.55946e-10
6.86186e-11
-8.84328e-10
1.22553e-10
-8.65208e-10
1.60105e-10
-8.87209e-10
1.59774e-10
-9.40225e-10
1.79986e-10
-9.9155e-10
2.74165e-10
-1.03913e-09
4.54639e-10
-1.08725e-09
5.06787e-10
-1.25833e-09
5.40428e-10
-1.47654e-09
5.69753e-10
-1.50406e-09
5.34592e-10
-1.49542e-09
4.68304e-10
-1.72417e-09
6.31793e-10
-1.9412e-09
5.8033e-10
-2.07551e-09
4.53309e-10
-2.20179e-09
3.91756e-10
-2.27242e-09
2.92106e-10
-2.30683e-09
1.74122e-10
-2.31891e-09
1.74793e-11
-2.34544e-09
1.96277e-11
-2.35798e-09
-1.57196e-10
-2.17627e-09
-4.51213e-10
-2.05248e-09
-2.12829e-10
-1.99106e-09
-1.78826e-10
-2.0691e-09
7.56164e-12
-1.94683e-09
-3.5972e-10
-1.91503e-09
-2.79127e-10
-1.87945e-09
-3.04321e-10
-1.82141e-09
-4.28052e-10
-1.67025e-09
-5.35816e-10
-1.53613e-09
-2.91022e-10
-1.4486e-09
-3.11195e-10
-1.34789e-09
-4.2386e-10
-1.27505e-09
-2.31482e-10
-1.23929e-09
-2.76707e-10
-1.25332e-09
-1.37583e-10
-1.2311e-09
-1.3201e-10
-1.1395e-09
-3.34174e-10
-1.13941e-09
-1.32145e-10
-1.05077e-09
-3.1685e-10
-9.89676e-10
-2.75352e-10
-9.64037e-10
-4.8836e-11
-8.61815e-10
-2.46589e-10
-8.32224e-10
-1.04751e-10
-7.7028e-10
-1.38142e-10
-7.06433e-10
-8.76812e-11
-6.57656e-10
-9.69184e-11
-6.27223e-10
-9.39698e-11
-5.88092e-10
-1.05597e-10
-5.22421e-10
-1.27392e-10
-4.19427e-10
-1.21485e-10
-3.21205e-10
-1.5468e-10
-2.53377e-10
-1.71811e-10
-2.30684e-10
-2.93359e-10
-2.26245e-10
-4.60156e-10
-1.19859e-10
-5.53107e-10
-9.6581e-11
-5.84472e-10
-1.36466e-10
-5.63089e-10
-3.35787e-10
-3.95602e-10
-4.56426e-10
-4.60012e-10
-4.70845e-11
-6.4651e-10
2.16038e-16
-1.73031e-09
-1.07658e-18
-4.26996e-19
-7.99047e-19
-5.29769e-20
-5.36765e-19
-1.05671e-19
-3.25407e-19
-2.00136e-19
-1.48893e-19
-3.06311e-19
1.06494e-20
-4.04056e-19
1.63721e-19
-4.8342e-19
3.14562e-19
-5.40762e-19
4.63561e-19
-5.75656e-19
6.09096e-19
-5.89253e-19
7.48686e-19
-5.83517e-19
8.79681e-19
-5.60857e-19
9.99654e-19
-5.23917e-19
1.10659e-18
-4.75427e-19
1.199e-18
-4.18083e-19
1.27589e-18
-3.54448e-19
1.3368e-18
-2.86872e-19
1.38168e-18
-2.17441e-19
1.41084e-18
-1.47934e-19
1.42491e-18
-7.98183e-20
1.42471e-18
-1.42544e-20
1.41121e-18
4.78811e-20
1.3855e-18
1.05965e-19
1.34872e-18
1.59596e-19
1.30199e-18
2.0856e-19
1.24644e-18
2.528e-19
1.18312e-18
2.92384e-19
1.11302e-18
3.27477e-19
1.03706e-18
3.58313e-19
9.56063e-19
3.85169e-19
8.70788e-19
4.08347e-19
7.81902e-19
4.28158e-19
6.90003e-19
4.44904e-19
5.9562e-19
4.58875e-19
4.99223e-19
4.70332e-19
4.01229e-19
4.7951e-19
3.02011e-19
4.86609e-19
2.01907e-19
4.91789e-19
1.01227e-19
4.95175e-19
4.96847e-19
-5.0075e-11
8.50278e-10
-1.25951e-10
9.0146e-10
-2.37459e-10
8.8759e-10
-3.78002e-10
7.77081e-10
-5.12908e-10
7.59452e-10
-6.86282e-10
7.75829e-10
-8.41432e-10
5.52411e-10
-9.14382e-10
5.84973e-10
-1.03171e-09
5.4208e-10
-1.14558e-09
3.68775e-10
-1.20643e-09
2.18941e-10
-1.30411e-09
2.60315e-10
-1.35896e-09
1.43681e-10
-1.38035e-09
6.223e-11
-1.38279e-09
5.1037e-11
-1.3112e-09
-7.28043e-11
-1.21739e-09
-1.23347e-10
-1.08347e-09
-1.10428e-10
-9.1712e-10
-9.77332e-11
-8.07666e-10
1.30989e-11
-7.57347e-10
1.09786e-10
-7.52214e-10
1.54641e-10
-7.8644e-10
2.14213e-10
-8.15077e-10
3.02802e-10
-8.60462e-10
5.00024e-10
-9.15942e-10
5.62267e-10
-1.03702e-09
6.61506e-10
-1.25892e-09
7.91656e-10
-1.47252e-09
7.48191e-10
-1.59144e-09
5.87221e-10
-1.67804e-09
7.184e-10
-1.86315e-09
7.6544e-10
-1.97005e-09
5.60208e-10
-2.06796e-09
4.89666e-10
-2.08945e-09
3.13592e-10
-2.10636e-09
1.9103e-10
-2.16676e-09
7.78793e-11
-2.16703e-09
1.99021e-11
-2.13486e-09
-1.89368e-10
-2.11433e-09
-4.71745e-10
-2.06096e-09
-2.66198e-10
-1.9983e-09
-2.41485e-10
-1.87862e-09
-1.12116e-10
-1.78886e-09
-4.49482e-10
-1.7335e-09
-3.34493e-10
-1.70631e-09
-3.31507e-10
-1.67459e-09
-4.59778e-10
-1.53019e-09
-6.8021e-10
-1.37196e-09
-4.49258e-10
-1.26407e-09
-4.1908e-10
-1.18575e-09
-5.02183e-10
-1.06792e-09
-3.49309e-10
-1.0195e-09
-3.25126e-10
-1.04585e-09
-1.11241e-10
-9.32802e-10
-2.45054e-10
-8.27247e-10
-4.39729e-10
-7.97852e-10
-1.61541e-10
-7.14082e-10
-4.00621e-10
-6.69468e-10
-3.19967e-10
-5.76194e-10
-1.4211e-10
-5.48474e-10
-2.7431e-10
-5.01509e-10
-1.51717e-10
-4.47889e-10
-1.91763e-10
-3.83241e-10
-1.5233e-10
-3.58373e-10
-1.21787e-10
-3.2923e-10
-1.23114e-10
-2.9239e-10
-1.42438e-10
-2.57199e-10
-1.62583e-10
-1.97797e-10
-1.80888e-10
-1.57609e-10
-1.94869e-10
-7.06361e-11
-2.58785e-10
3.29891e-11
-3.96985e-10
8.60745e-11
-5.13242e-10
8.41513e-11
-5.51185e-10
5.95317e-11
-5.59854e-10
1.70382e-11
-5.20597e-10
3.85825e-11
-4.17147e-10
6.11875e-11
-4.82618e-10
2.64448e-10
-8.49772e-10
2.17127e-16
-1.46586e-09
-1.08866e-18
-5.85958e-19
-8.51121e-19
-2.90664e-19
-6.30611e-19
-3.26507e-19
-4.31528e-19
-3.99471e-19
-2.46637e-19
-4.91368e-19
-6.87147e-20
-5.82063e-19
1.06379e-19
-6.5852e-19
2.79668e-19
-7.13982e-19
4.49964e-19
-7.45808e-19
6.14832e-19
-7.53902e-19
7.71346e-19
-7.39737e-19
9.16622e-19
-7.05762e-19
1.04814e-18
-6.54987e-19
1.16394e-18
-5.90689e-19
1.26263e-18
-5.16178e-19
1.34347e-18
-4.34622e-19
1.40623e-18
-3.48927e-19
1.45118e-18
-2.61651e-19
1.47896e-18
-1.74958e-19
1.49048e-18
-9.06011e-20
1.48684e-18
-9.93523e-21
1.4693e-18
6.6046e-20
1.43914e-18
1.36668e-19
1.39768e-18
2.01525e-19
1.34623e-18
2.6044e-19
1.28602e-18
3.13415e-19
1.21821e-18
3.60597e-19
1.14385e-18
4.02242e-19
1.06391e-18
4.38678e-19
9.79241e-19
4.70282e-19
8.90599e-19
4.97451e-19
7.98649e-19
5.20584e-19
7.03974e-19
5.40071e-19
6.07078e-19
5.56273e-19
5.08401e-19
5.6952e-19
4.08327e-19
5.80104e-19
3.07192e-19
5.8827e-19
2.05292e-19
5.94218e-19
1.029e-19
5.981e-19
6.00016e-19
-9.80441e-11
9.48322e-10
-1.88988e-10
9.92405e-10
-2.42306e-10
9.40908e-10
-3.15042e-10
8.49818e-10
-4.32402e-10
8.76813e-10
-4.81557e-10
8.24985e-10
-6.26503e-10
6.97358e-10
-7.19599e-10
6.78071e-10
-7.61145e-10
5.83627e-10
-8.82764e-10
4.90395e-10
-9.88706e-10
3.24884e-10
-1.02512e-09
2.96731e-10
-1.09001e-09
2.08568e-10
-1.13906e-09
1.11286e-10
-1.1242e-09
3.61684e-11
-1.14188e-09
-5.51177e-11
-1.09802e-09
-1.67204e-10
-1.00081e-09
-2.07637e-10
-9.0375e-10
-1.94797e-10
-8.11075e-10
-7.95769e-11
-7.51787e-10
5.04985e-11
-7.24204e-10
1.27058e-10
-7.07127e-10
1.97137e-10
-6.93567e-10
2.89241e-10
-7.21819e-10
5.28277e-10
-8.11326e-10
6.51774e-10
-8.47327e-10
6.97507e-10
-9.04249e-10
8.48578e-10
-1.06626e-09
9.10206e-10
-1.26824e-09
7.89199e-10
-1.21127e-09
6.61426e-10
-1.23772e-09
7.91888e-10
-1.40558e-09
7.28068e-10
-1.6283e-09
7.12388e-10
-1.77892e-09
4.64209e-10
-1.84158e-09
2.53693e-10
-1.90656e-09
1.42861e-10
-1.87392e-09
-1.27346e-11
-1.89745e-09
-1.65846e-10
-1.95686e-09
-4.12337e-10
-1.85239e-09
-3.70666e-10
-1.73746e-09
-3.56417e-10
-1.55298e-09
-2.96597e-10
-1.57053e-09
-4.31929e-10
-1.48809e-09
-4.16934e-10
-1.39031e-09
-4.29287e-10
-1.26896e-09
-5.81126e-10
-1.29234e-09
-6.56835e-10
-1.18263e-09
-5.58967e-10
-1.03913e-09
-5.62577e-10
-1.00967e-09
-5.3164e-10
-9.68458e-10
-3.90526e-10
-9.61182e-10
-3.32403e-10
-9.15024e-10
-1.574e-10
-7.35325e-10
-4.24754e-10
-7.20768e-10
-4.54286e-10
-5.80252e-10
-3.02059e-10
-5.17599e-10
-4.63275e-10
-4.46047e-10
-3.91519e-10
-3.36601e-10
-2.51557e-10
-2.88205e-10
-3.22707e-10
-2.55423e-10
-1.84499e-10
-2.31822e-10
-2.15365e-10
-1.98277e-10
-1.85877e-10
-1.69909e-10
-1.50156e-10
-1.33226e-10
-1.59798e-10
-1.37936e-10
-1.37729e-10
-1.16837e-10
-1.83683e-10
-4.42322e-11
-2.53494e-10
5.82956e-11
-2.97397e-10
1.57427e-10
-3.57917e-10
2.04437e-10
-4.43996e-10
2.05864e-10
-5.1467e-10
2.32576e-10
-5.77898e-10
2.43085e-10
-5.70364e-10
2.43236e-10
-5.20748e-10
3.27339e-10
-5.01251e-10
4.62111e-10
-6.1739e-10
3.05849e-10
-6.93511e-10
2.07867e-16
-1.16001e-09
-1.14805e-18
-1.29275e-18
-8.86358e-19
-5.52527e-19
-7.02971e-19
-5.10225e-19
-5.23362e-19
-5.7934e-19
-3.37332e-19
-6.77576e-19
-1.45172e-19
-7.7432e-19
5.09173e-20
-8.54635e-19
2.47842e-19
-9.10866e-19
4.41871e-19
-9.39733e-19
6.28996e-19
-9.40855e-19
8.05321e-19
-9.15823e-19
9.67396e-19
-8.67525e-19
1.11244e-18
-7.99639e-19
1.23845e-18
-7.16216e-19
1.34419e-18
-6.21352e-19
1.42916e-18
-5.18952e-19
1.49351e-18
-4.12556e-19
1.53788e-18
-3.05246e-19
1.56332e-18
-1.99582e-19
1.57114e-18
-9.75966e-20
1.56282e-18
-8.15036e-22
1.53992e-18
8.96927e-20
1.50399e-18
1.73247e-19
1.4566e-18
2.4949e-19
1.39921e-18
3.18328e-19
1.33321e-18
3.79868e-19
1.25986e-18
4.34377e-19
1.18029e-18
4.82232e-19
1.09552e-18
5.23887e-19
1.00641e-18
5.59837e-19
9.13732e-19
5.90594e-19
8.18136e-19
6.16663e-19
7.20176e-19
6.38527e-19
6.20325e-19
6.56631e-19
5.18985e-19
6.71378e-19
4.16493e-19
6.8312e-19
3.1314e-19
6.92153e-19
2.09174e-19
6.98717e-19
1.04816e-19
7.02993e-19
7.05102e-19
-1.25028e-10
1.07335e-09
-2.01466e-10
1.06884e-09
-2.75473e-10
1.01492e-09
-3.35778e-10
9.10125e-10
-3.70749e-10
9.11784e-10
-3.94261e-10
8.48498e-10
-4.05715e-10
7.08812e-10
-4.18641e-10
6.90998e-10
-5.36086e-10
7.01072e-10
-6.32893e-10
5.87203e-10
-7.63123e-10
4.55114e-10
-7.96824e-10
3.30432e-10
-8.01711e-10
2.13456e-10
-8.08812e-10
1.18387e-10
-7.78564e-10
5.9214e-12
-7.717e-10
-6.19813e-11
-7.75231e-10
-1.63672e-10
-8.24846e-10
-1.58022e-10
-8.62686e-10
-1.56957e-10
-8.2227e-10
-1.19993e-10
-7.27844e-10
-4.39275e-11
-6.64e-10
6.32144e-11
-6.3407e-10
1.67207e-10
-5.92402e-10
2.47573e-10
-5.00482e-10
4.36357e-10
-5.86094e-10
7.37387e-10
-7.46683e-10
8.58095e-10
-7.55894e-10
8.57789e-10
-7.54229e-10
9.08542e-10
-9.33032e-10
9.68002e-10
-1.19652e-09
9.2491e-10
-1.32043e-09
9.15798e-10
-1.41759e-09
8.25228e-10
-1.4562e-09
7.51003e-10
-1.48636e-09
4.94371e-10
-1.53392e-09
3.01248e-10
-1.55074e-09
1.59683e-10
-1.5248e-09
-3.86714e-11
-1.51411e-09
-1.7654e-10
-1.5304e-09
-3.96043e-10
-1.52283e-09
-3.7824e-10
-1.51764e-09
-3.61608e-10
-1.36746e-09
-4.46777e-10
-1.25051e-09
-5.48882e-10
-1.16307e-09
-5.04372e-10
-1.0529e-09
-5.39455e-10
-1.00854e-09
-6.25486e-10
-1.04792e-09
-6.1746e-10
-9.22161e-10
-6.84726e-10
-8.43912e-10
-6.40827e-10
-8.84473e-10
-4.91079e-10
-8.72673e-10
-4.02328e-10
-8.29136e-10
-3.75941e-10
-6.24903e-10
-3.61632e-10
-5.62139e-10
-4.8752e-10
-5.50759e-10
-4.65667e-10
-4.18859e-10
-4.33959e-10
-3.85215e-10
-4.9692e-10
-3.37764e-10
-4.38972e-10
-1.64172e-10
-4.2515e-10
-1.39368e-10
-3.47513e-10
-9.93757e-11
-2.24492e-10
-1.09547e-10
-2.05195e-10
-1.09888e-10
-1.85537e-10
-8.44953e-11
-1.7555e-10
-9.6152e-12
-2.34679e-10
6.24534e-11
-2.09799e-10
1.22292e-10
-2.43522e-10
1.79158e-10
-3.10361e-10
2.09365e-10
-3.27606e-10
2.20195e-10
-3.68747e-10
2.23525e-10
-4.47327e-10
2.37956e-10
-5.29103e-10
2.17924e-10
-5.57867e-10
2.49029e-10
-6.01468e-10
2.79632e-10
-5.51352e-10
2.7962e-10
-5.0124e-10
2.74443e-10
-6.12214e-10
1.87485e-10
-6.06553e-10
1.92455e-16
-9.72526e-10
-7.00971e-19
-2.81861e-19
-8.43464e-19
-4.10203e-19
-7.71494e-19
-5.825e-19
-6.21529e-19
-7.29534e-19
-4.34077e-19
-8.65175e-19
-2.25487e-19
-9.82979e-19
-5.31392e-21
-1.07481e-18
2.18975e-19
-1.1351e-18
4.40749e-19
-1.1614e-18
6.54029e-19
-1.15397e-18
8.53619e-19
-1.1152e-18
1.03528e-18
-1.04892e-18
1.19586e-18
-9.59883e-19
1.33331e-18
-8.53239e-19
1.44659e-18
-7.34115e-19
1.53556e-18
-6.07317e-19
1.60082e-18
-4.77129e-19
1.64354e-18
-3.47201e-19
1.6653e-18
-2.20503e-19
1.66792e-18
-9.93251e-20
1.65333e-18
1.46774e-20
1.62347e-18
1.20413e-19
1.58024e-18
2.17259e-19
1.52544e-18
3.04972e-19
1.46075e-18
3.83601e-19
1.38771e-18
4.53417e-19
1.30771e-18
5.14852e-19
1.22194e-18
5.68448e-19
1.13147e-18
6.14815e-19
1.03717e-18
6.54595e-19
9.39802e-19
6.88433e-19
8.39999e-19
7.16954e-19
7.3828e-19
7.40747e-19
6.35072e-19
7.60351e-19
5.30727e-19
7.76246e-19
4.25526e-19
7.88848e-19
3.19704e-19
7.98509e-19
2.1345e-19
8.05509e-19
1.06925e-19
8.10059e-19
8.12299e-19
-6.11503e-11
1.1345e-09
-1.2024e-10
1.12793e-09
-2.00247e-10
1.09492e-09
-2.7327e-10
9.83149e-10
-2.45677e-10
8.84192e-10
-2.22126e-10
8.24948e-10
-3.09049e-10
7.95736e-10
-3.24399e-10
7.06348e-10
-2.99087e-10
6.75761e-10
-2.21956e-10
5.10071e-10
-1.51829e-10
3.84988e-10
-1.44459e-10
3.23062e-10
-1.53199e-10
2.22196e-10
-1.65534e-10
1.30722e-10
-2.40568e-10
8.09559e-11
-3.42238e-10
3.96893e-11
-4.52268e-10
-5.36425e-11
-4.9677e-10
-1.13521e-10
-5.42917e-10
-1.10809e-10
-5.89161e-10
-7.37495e-11
-5.82866e-10
-5.02227e-11
-5.67502e-10
4.7851e-11
-5.2858e-10
1.28285e-10
-5.06877e-10
2.25871e-10
-3.892e-10
3.1868e-10
-3.03073e-10
6.5126e-10
-3.51364e-10
9.06386e-10
-4.70624e-10
9.7705e-10
-6.01552e-10
1.03947e-09
-6.87394e-10
1.05384e-09
-7.53274e-10
9.9079e-10
-7.28828e-10
8.91352e-10
-7.32479e-10
8.28879e-10
-6.51803e-10
6.70327e-10
-7.68189e-10
6.10757e-10
-9.44133e-10
4.77192e-10
-1.06079e-09
2.76338e-10
-1.02211e-09
-7.73516e-11
-1.02227e-09
-1.76378e-10
-1.07243e-09
-3.45882e-10
-1.07115e-09
-3.79521e-10
-1.02421e-09
-4.08555e-10
-9.80002e-10
-4.90982e-10
-9.48692e-10
-5.80193e-10
-8.25428e-10
-6.27637e-10
-7.36024e-10
-6.28859e-10
-7.00112e-10
-6.61399e-10
-6.21481e-10
-6.96092e-10
-6.11629e-10
-6.94578e-10
-6.44057e-10
-6.08399e-10
-6.15926e-10
-5.19211e-10
-5.45923e-10
-4.72331e-10
-4.79939e-10
-4.41926e-10
-3.88027e-10
-4.53545e-10
-4.06759e-10
-4.68789e-10
-3.32203e-10
-5.40223e-10
-2.78642e-10
-4.87521e-10
-2.26385e-10
-5.49178e-10
-1.17074e-10
-5.48284e-10
-1.42855e-11
-5.27939e-10
-1.617e-11
-3.45629e-10
1.03274e-10
-3.43937e-10
1.80523e-10
-2.82445e-10
2.73369e-10
-2.78384e-10
3.44287e-10
-2.46468e-10
3.66956e-10
-2.57349e-10
3.79171e-10
-2.22015e-10
3.26186e-10
-1.90539e-10
2.77669e-10
-2.61844e-10
2.71314e-10
-3.21252e-10
2.81914e-10
-3.79348e-10
2.84691e-10
-4.50105e-10
2.95705e-10
-5.40118e-10
2.72062e-10
-5.34225e-10
2.76798e-10
-6.06205e-10
3.16686e-10
-5.91241e-10
4.07754e-10
-5.92309e-10
2.73395e-10
-4.77856e-10
9.36666e-11
-4.26825e-10
1.66374e-16
-8.78861e-10
-1.03351e-18
-1.936e-19
-1.01516e-18
-4.28708e-19
-9.17941e-19
-6.79967e-19
-7.57099e-19
-8.90538e-19
-5.51881e-19
-1.07047e-18
-3.17316e-19
-1.21754e-18
-6.56036e-20
-1.32644e-18
1.92677e-19
-1.39325e-18
4.48174e-19
-1.41672e-18
6.92805e-19
-1.39839e-18
9.19898e-19
-1.34204e-18
1.12432e-18
-1.25305e-18
1.30251e-18
-1.13776e-18
1.45243e-18
-1.00279e-18
1.57339e-18
-8.54604e-19
1.66575e-18
-6.99125e-19
1.73075e-18
-5.41491e-19
1.77024e-18
-3.85967e-19
1.78648e-18
-2.35922e-19
1.78193e-18
-9.38603e-20
1.75907e-18
3.85e-20
1.72032e-18
1.60122e-19
1.66795e-18
2.70524e-19
1.60406e-18
3.69657e-19
1.53056e-18
4.57791e-19
1.44915e-18
5.35428e-19
1.36131e-18
6.03223e-19
1.26831e-18
6.6193e-19
1.17125e-18
7.12353e-19
1.07101e-18
7.55309e-19
9.68323e-19
7.91598e-19
8.63792e-19
8.21981e-19
7.57884e-19
8.47164e-19
6.50967e-19
8.67786e-19
5.43329e-19
8.84411e-19
4.35187e-19
8.97525e-19
3.26704e-19
9.07531e-19
2.18e-19
9.14755e-19
1.09166e-19
9.19437e-19
9.21738e-19
-6.30697e-12
1.14081e-09
2.51554e-11
1.09647e-09
5.40709e-11
1.06601e-09
1.36285e-11
1.02359e-09
-2.32158e-11
9.21037e-10
-2.57963e-11
8.27529e-10
1.38365e-11
7.56104e-10
3.475e-11
6.85435e-10
1.49687e-10
5.60824e-10
2.21856e-10
4.37904e-10
2.06829e-10
4.00016e-10
1.72427e-10
3.57465e-10
1.60905e-10
2.33718e-10
1.49123e-10
1.42505e-10
1.29859e-10
1.00221e-10
1.08248e-10
6.13003e-11
3.07688e-11
2.38366e-11
-7.05446e-11
-1.22073e-11
-1.96328e-10
1.49746e-11
-3.27981e-10
5.79033e-11
-4.36472e-10
5.82686e-11
-4.51466e-10
6.2845e-11
-4.13376e-10
9.01955e-11
-3.85665e-10
1.9816e-10
-3.03917e-10
2.36932e-10
-1.20642e-10
4.67985e-10
-1.08329e-10
8.94072e-10
-1.25414e-10
9.94135e-10
-1.40475e-10
1.05453e-09
-2.50088e-10
1.16346e-09
-4.89378e-10
1.23008e-09
-6.15835e-10
1.01781e-09
-6.53707e-10
8.66751e-10
-6.30975e-10
6.47595e-10
-5.7911e-10
5.58892e-10
-5.83901e-10
4.81982e-10
-5.91048e-10
2.83485e-10
-5.79723e-10
-8.86768e-11
-5.81218e-10
-1.74883e-10
-6.58037e-10
-2.69064e-10
-7.06128e-10
-3.3143e-10
-6.49233e-10
-4.65451e-10
-5.77146e-10
-5.63069e-10
-4.91584e-10
-6.65755e-10
-4.3014e-10
-6.89083e-10
-3.72629e-10
-6.8637e-10
-3.25469e-10
-7.08559e-10
-2.96229e-10
-7.25333e-10
-2.87373e-10
-7.03435e-10
-2.68937e-10
-6.26835e-10
-2.44241e-10
-5.43908e-10
-2.2512e-10
-4.91453e-10
-2.2667e-10
-4.40377e-10
-2.34373e-10
-4.45842e-10
-2.02389e-10
-5.00773e-10
-1.39766e-10
-6.02847e-10
-3.66731e-12
-6.2362e-10
1.16806e-10
-6.69652e-10
1.62868e-10
-5.94346e-10
2.35578e-10
-6.00649e-10
3.97747e-10
-5.07799e-10
5.21856e-10
-4.68046e-10
5.82553e-10
-3.43143e-10
6.24409e-10
-3.2024e-10
6.82036e-10
-3.04096e-10
6.88165e-10
-2.63478e-10
6.56821e-10
-1.90671e-10
6.88849e-10
-2.22568e-10
6.87554e-10
-2.6055e-10
6.69649e-10
-3.03348e-10
6.3095e-10
-3.4065e-10
5.58769e-10
-3.77925e-10
4.55289e-10
-4.36638e-10
3.86804e-10
-4.6574e-10
3.42698e-10
-5.621e-10
3.18561e-10
-5.67105e-10
2.90906e-10
-5.64655e-10
3.25414e-10
-5.12365e-10
1.98785e-10
-3.00197e-10
1.39303e-16
-6.80076e-10
-1.36537e-18
-1.98526e-19
-1.26582e-18
-5.28375e-19
-1.12793e-18
-8.18016e-19
-9.3696e-19
-1.08158e-18
-6.98951e-19
-1.30845e-18
-4.26221e-19
-1.49015e-18
-1.32408e-19
-1.62006e-18
1.69202e-19
-1.6946e-18
4.66506e-19
-1.71374e-18
7.49157e-19
-1.68072e-18
1.00888e-18
-1.60141e-18
1.23961e-18
-1.48343e-18
1.43748e-18
-1.33527e-18
1.60062e-18
-1.16555e-18
1.72887e-18
-9.82419e-19
1.82338e-18
-7.93129e-19
1.88627e-18
-6.03793e-19
1.92028e-18
-4.19313e-19
1.92854e-18
-2.43411e-19
1.91429e-18