0.010101 	-3.6232e-13 	8.09584e-16 	-4.73807e-15
0.020202 	-1.37314e-14 	3.36629e-17 	-2.64155e-16
