0.010101 	-2.63152e-15 	2.78592e-18 	-2.69328e-17
0.020202 	-9.39848e-17 	2.4519e-19 	-1.46254e-18
