0 	3.62956e-21 	0 	-1.45182e-20
0.010101 	3.20929e-20 	3.41347e-23 	-3.47988e-20
0.020202 	1.09921e-20 	6.80991e-23 	-2.53733e-20
0.030303 	1.07908e-20 	-1.01382e-22 	-1.44563e-20
0.040404 	1.14509e-20 	3.40648e-25 	-1.79817e-20
0.0505051 	-2.0603e-20 	-3.40649e-25 	-8.03745e-20
