/*--------------------------------*- C++ -*----------------------------------*\
  =========                 |
  \\      /  F ield         | OpenFOAM: The Open Source CFD Toolbox
   \\    /   O peration     | Website:  https://openfoam.org
    \\  /    A nd           | Version:  6
     \\/     M anipulation  |
\*---------------------------------------------------------------------------*/
FoamFile
{
    version     2.0;
    format      ascii;
    class       volScalarField;
    location    "630";
    object      dmdt;
}
// * * * * * * * * * * * * * * * * * * * * * * * * * * * * * * * * * * * * * //

dimensions      [0 0 0 0 0 0 0];

internalField   nonuniform List<scalar> 
5964
(
-0.362964
-0.323191
-0.287281
-0.256665
-0.231328
-0.210805
-0.194248
-0.180631
-0.169084
-0.158851
-0.14927
-0.139782
-0.130151
-0.120197
-0.109843
-0.0990717
-0.0879219
-0.0769927
-0.0686787
-0.0659812
-0.0657394
-0.0658139
-0.0655387
-0.0648184
-0.0637287
-0.062375
-0.0608508
-0.0592283
-0.0575608
-0.0558859
-0.0542297
-0.0526094
-0.0510363
-0.0495167
-0.0480536
-0.0466478
-0.0452981
-0.0440021
-0.0427566
-0.0415578
-0.0404015
-0.0392836
-0.0381999
-0.0371461
-0.0361184
-0.0351132
-0.0341271
-0.033157
-0.0322001
-0.0312541
-0.0303167
-0.029386
-0.0284605
-0.0275387
-0.0266194
-0.0257016
-0.0247845
-0.0238672
-0.0229492
-0.0220301
-0.0211094
-0.0201868
-0.0192621
-0.018335
-0.0174055
-0.0164734
-0.0155386
-0.014601
-0.0136606
-0.0127172
-0.0117705
-0.0108205
-0.00986696
-0.00890968
-0.0079486
-0.00698351
-0.00601374
-0.00503772
-0.00405368
-0.00306439
-0.00208986
-0.00118703
-0.000462301
-5.04118e-05
-0.362811
-0.323392
-0.28828
-0.258149
-0.233101
-0.212863
-0.196563
-0.183182
-0.17185
-0.161773
-0.152311
-0.142785
-0.133088
-0.122969
-0.112326
-0.101028
-0.0888346
-0.0755571
-0.0629199
-0.0639163
-0.0655274
-0.0661643
-0.065955
-0.0651554
-0.0639642
-0.0625229
-0.0609317
-0.0592608
-0.0575597
-0.0558623
-0.0541916
-0.0525628
-0.0509852
-0.0494641
-0.0480016
-0.0465977
-0.0452508
-0.0439581
-0.0427163
-0.0415212
-0.0403688
-0.0392545
-0.0381743
-0.0371238
-0.0360992
-0.0350968
-0.0341132
-0.0331454
-0.0321906
-0.0312464
-0.0303106
-0.0293813
-0.028457
-0.0275362
-0.0266178
-0.0257008
-0.0247842
-0.0238675
-0.02295
-0.0220312
-0.0211107
-0.0201883
-0.0192637
-0.0183368
-0.0174073
-0.0164752
-0.0155405
-0.0146029
-0.0136625
-0.0127191
-0.0117725
-0.0108225
-0.00986901
-0.00891184
-0.00795089
-0.00698599
-0.00601654
-0.00504111
-0.00405815
-0.00307062
-0.00209853
-0.00119846
-0.000476216
-6.60946e-05
-0.363227
-0.324482
-0.289779
-0.259999
-0.235462
-0.215814
-0.200089
-0.187206
-0.176317
-0.166639
-0.157564
-0.148075
-0.138394
-0.128081
-0.117042
-0.105079
-0.0915241
-0.0742306
-0.0236361
-0.0614212
-0.0662477
-0.0673083
-0.06692
-0.0658524
-0.0644256
-0.0628025
-0.0610785
-0.0593139
-0.0575485
-0.0558084
-0.0541107
-0.0524661
-0.0508808
-0.0493574
-0.0478965
-0.0464968
-0.0451558
-0.0438701
-0.0426357
-0.0414483
-0.0403034
-0.0391965
-0.0381233
-0.0370794
-0.0360609
-0.0350642
-0.0340857
-0.0331225
-0.0321717
-0.0312311
-0.0302985
-0.0293721
-0.0284502
-0.0275315
-0.0266148
-0.0256993
-0.0247839
-0.0238682
-0.0229515
-0.0220333
-0.0211134
-0.0201914
-0.0192671
-0.0183403
-0.017411
-0.016479
-0.0155443
-0.0146067
-0.0136663
-0.0127229
-0.0117763
-0.0108265
-0.00987309
-0.00891611
-0.0079554
-0.00699082
-0.00602179
-0.00504701
-0.00406507
-0.00307901
-0.00210857
-0.00120976
-0.000487772
-7.63586e-05
-0.363622
-0.325319
-0.290787
-0.261304
-0.237343
-0.218485
-0.203658
-0.191701
-0.18172
-0.172856
-0.164382
-0.154996
-0.145427
-0.134955
-0.1236
-0.111408
-0.0982593
-0.0837941
-0.0633184
-0.0698952
-0.0703753
-0.0697883
-0.0685206
-0.066887
-0.0650704
-0.0631743
-0.0612597
-0.0593638
-0.0575098
-0.0557118
-0.0539782
-0.0523134
-0.0507187
-0.0491938
-0.0477366
-0.0463442
-0.0450127
-0.0437378
-0.0425149
-0.0413392
-0.0402058
-0.0391102
-0.0380475
-0.0370136
-0.0360043
-0.0350159
-0.0340451
-0.0330887
-0.0321441
-0.0312089
-0.0302811
-0.0293587
-0.0284404
-0.0275248
-0.0266107
-0.0256973
-0.0247838
-0.0238696
-0.0229541
-0.0220369
-0.0211177
-0.0201962
-0.0192723
-0.0183458
-0.0174167
-0.0164848
-0.0155501
-0.0146125
-0.0136721
-0.0127287
-0.0117822
-0.0108324
-0.00987919
-0.00892246
-0.00796208
-0.00699785
-0.00602917
-0.00505468
-0.00407281
-0.00308624
-0.00211404
-0.00121137
-0.000481288
-4.42033e-05
-0.36364
-0.325532
-0.291348
-0.262347
-0.239155
-0.2214
-0.207909
-0.197289
-0.188469
-0.180504
-0.17247
-0.163254
-0.153701
-0.143014
-0.131416
-0.11917
-0.106585
-0.0940935
-0.0833202
-0.0788075
-0.0755633
-0.0729437
-0.0704913
-0.0681121
-0.0658015
-0.0635701
-0.0614266
-0.0593757
-0.0574188
-0.0555549
-0.0537817
-0.0520959
-0.0504932
-0.0489694
-0.0475194
-0.0461383
-0.0448206
-0.043561
-0.042354
-0.0411943
-0.0400767
-0.0389961
-0.0379477
-0.0369271
-0.03593
-0.0349529
-0.0339922
-0.0330449
-0.0321084
-0.0311804
-0.0302588
-0.0293419
-0.0284283
-0.0275166
-0.026606
-0.0256954
-0.0247843
-0.0238719
-0.022958
-0.022042
-0.0211238
-0.020203
-0.0192796
-0.0183535
-0.0174245
-0.0164927
-0.015558
-0.0146204
-0.0136799
-0.0127365
-0.0117899
-0.0108403
-0.00988727
-0.00893084
-0.00797083
-0.00700701
-0.00603869
-0.00506436
-0.00408221
-0.00309442
-0.00211907
-0.00120807
-0.000432855
0.00039319
-0.363657
-0.325596
-0.291736
-0.263629
-0.241751
-0.225665
-0.21372
-0.204432
-0.19654
-0.189139
-0.181245
-0.172173
-0.162349
-0.151327
-0.139446
-0.126944
-0.114438
-0.102646
-0.0926812
-0.0859034
-0.0803307
-0.0760373
-0.072454
-0.0693132
-0.0664855
-0.0639013
-0.0615183
-0.0593069
-0.0572455
-0.0553167
-0.0535066
-0.0518035
-0.0501975
-0.0486797
-0.0472422
-0.0458775
-0.0445789
-0.0433396
-0.0421535
-0.0410145
-0.0399169
-0.0388554
-0.037825
-0.0368211
-0.0358394
-0.0348762
-0.0339281
-0.0329922
-0.0320657
-0.0311465
-0.0302326
-0.0293224
-0.0284145
-0.0275077
-0.0266012
-0.0256941
-0.0247858
-0.0238757
-0.0229636
-0.0220491
-0.021132
-0.020212
-0.0192892
-0.0183634
-0.0174346
-0.0165029
-0.0155681
-0.0146304
-0.0136898
-0.0127463
-0.0117997
-0.0108501
-0.00989728
-0.00894116
-0.00798158
-0.00701827
-0.00605053
-0.00507688
-0.00409559
-0.00310864
-0.00213245
-0.00120269
-0.000100531
0.0074475
-0.364682
-0.327931
-0.294417
-0.266945
-0.246358
-0.231742
-0.220917
-0.212662
-0.205232
-0.197878
-0.189719
-0.180435
-0.170155
-0.158737
-0.146427
-0.13351
-0.120817
-0.10904
-0.0988814
-0.091066
-0.0840956
-0.0785935
-0.0740883
-0.0702804
-0.0669824
-0.0640727
-0.0614686
-0.0591114
-0.0569576
-0.0549746
-0.0531372
-0.0514257
-0.0498244
-0.0483202
-0.0469021
-0.0455607
-0.0442872
-0.0430741
-0.0419141
-0.0408007
-0.0397277
-0.0386895
-0.0376809
-0.0366971
-0.0357338
-0.0347874
-0.0338544
-0.0329318
-0.0320172
-0.0311084
-0.0302036
-0.0293012
-0.0284
-0.027499
-0.0265972
-0.0256941
-0.024789
-0.0238816
-0.0229716
-0.0220587
-0.0211427
-0.0202237
-0.0193014
-0.0183759
-0.0174473
-0.0165155
-0.0155807
-0.0146428
-0.013702
-0.0127582
-0.0118116
-0.0108619
-0.00990919
-0.00895333
-0.00799418
-0.00703148
-0.00606467
-0.00509258
-0.00411399
-0.00313091
-0.00215776
-0.00123717
-0.000443698
0.000451389
-0.364751
-0.328751
-0.296992
-0.271284
-0.252249
-0.238817
-0.228831
-0.221038
-0.213453
-0.205461
-0.196568
-0.186706
-0.1759
-0.164164
-0.151593
-0.138448
-0.125516
-0.113483
-0.102896
-0.0945012
-0.0866791
-0.080356
-0.0751704
-0.0708429
-0.0671679
-0.0639952
-0.0612146
-0.0587445
-0.0565239
-0.054507
-0.0526587
-0.0509526
-0.0493675
-0.047887
-0.0464972
-0.0451868
-0.0439456
-0.042765
-0.041637
-0.0405545
-0.0395109
-0.0385002
-0.0375172
-0.036557
-0.0356152
-0.0346882
-0.0337725
-0.0328654
-0.0319645
-0.0310676
-0.0301731
-0.0292796
-0.028386
-0.0274913
-0.0265949
-0.0256962
-0.0247947
-0.0238902
-0.0229824
-0.0220712
-0.0211565
-0.0202383
-0.0193166
-0.0183914
-0.0174628
-0.0165309
-0.0155959
-0.0146577
-0.0137165
-0.0127724
-0.0118255
-0.0108757
-0.00992295
-0.00896725
-0.00800845
-0.00704638
-0.00608067
-0.00511067
-0.00413566
-0.00315662
-0.00218061
-0.00123124
-0.000378799
0.000212904
-0.365145
-0.330236
-0.300164
-0.276394
-0.259012
-0.246467
-0.236987
-0.228868
-0.220603
-0.211624
-0.201787
-0.191075
-0.179579
-0.167441
-0.15464
-0.141372
-0.128281
-0.116014
-0.105074
-0.0963649
-0.0880353
-0.0811914
-0.0755544
-0.0708738
-0.0669421
-0.0635943
-0.0607022
-0.0581681
-0.0559178
-0.0538954
-0.0520589
-0.0503759
-0.0488219
-0.0473772
-0.0460262
-0.0447558
-0.0435549
-0.0424138
-0.041324
-0.0402778
-0.0392685
-0.0382898
-0.0373363
-0.036403
-0.0354858
-0.0345807
-0.0336847
-0.032795
-0.0319093
-0.0310257
-0.0301427
-0.029259
-0.0283737
-0.027486
-0.0265954
-0.0257014
-0.0248038
-0.0239023
-0.0229968
-0.0220874
-0.0211739
-0.0202565
-0.0193353
-0.0184102
-0.0174815
-0.0165494
-0.0156139
-0.0146752
-0.0137335
-0.0127889
-0.0118415
-0.0108914
-0.00993852
-0.00898282
-0.00802422
-0.00706262
-0.00609786
-0.00512968
-0.00415743
-0.00317928
-0.00218946
-0.00117902
-0.000182556
0.00056113
-0.366215
-0.333326
-0.305046
-0.282875
-0.266544
-0.254345
-0.244748
-0.235709
-0.2263
-0.215905
-0.204692
-0.192937
-0.180861
-0.168387
-0.155414
-0.142175
-0.129174
-0.11683
-0.105663
-0.09676
-0.0881509
-0.081023
-0.0751445
-0.0702835
-0.0662314
-0.0628136
-0.0598904
-0.0573531
-0.0551193
-0.0531269
-0.0513291
-0.0496908
-0.0481848
-0.0467899
-0.0454893
-0.0442689
-0.0431167
-0.0420225
-0.0409775
-0.0399734
-0.0390034
-0.0380611
-0.037141
-0.036238
-0.0353481
-0.0344676
-0.0335933
-0.0327228
-0.0318538
-0.0309847
-0.0301141
-0.0292411
-0.0283647
-0.0274844
-0.0265999
-0.0257109
-0.0248172
-0.0239188
-0.0230156
-0.0221078
-0.0211955
-0.0202788
-0.0193578
-0.0184327
-0.0175038
-0.0165711
-0.015635
-0.0146957
-0.0137532
-0.0128079
-0.0118599
-0.0109092
-0.00995589
-0.00899995
-0.0080413
-0.00707988
-0.00611566
-0.00514855
-0.00417782
-0.00319932
-0.00219755
-0.0011389
-2.90855e-05
0.000851713
-0.367288
-0.336625
-0.310323
-0.289621
-0.273955
-0.261866
-0.251579
-0.24124
-0.230126
-0.217952
-0.205462
-0.192745
-0.179942
-0.167159
-0.154247
-0.141186
-0.128266
-0.115923
-0.104675
-0.0957069
-0.0869994
-0.0797926
-0.0738739
-0.0690108
-0.0649867
-0.0616171
-0.058754
-0.056283
-0.0541181
-0.0521951
-0.0504662
-0.0488958
-0.0474563
-0.0461263
-0.0448885
-0.0437284
-0.042634
-0.0415945
-0.0406008
-0.0396448
-0.0387191
-0.0378176
-0.0369345
-0.0360652
-0.0352054
-0.0343516
-0.033501
-0.0326512
-0.0318003
-0.0309467
-0.0300894
-0.0292275
-0.0283605
-0.027488
-0.0266098
-0.0257258
-0.024836
-0.0239406
-0.0230397
-0.0221334
-0.021222
-0.0203057
-0.0193848
-0.0184594
-0.0175299
-0.0165966
-0.0156596
-0.0147192
-0.0137758
-0.0128295
-0.0118805
-0.010929
-0.00997504
-0.00901858
-0.00805958
-0.00709799
-0.00613383
-0.00516717
-0.00419771
-0.00322285
-0.00223208
-0.00120413
-0.000159846
0.000640723
-0.368487
-0.340168
-0.315756
-0.296218
-0.280953
-0.2686
-0.257041
-0.2449
-0.2318
-0.217998
-0.203935
-0.190192
-0.176797
-0.16391
-0.151284
-0.138649
-0.126027
-0.113687
-0.102241
-0.0931944
-0.0845304
-0.0774429
-0.0716924
-0.0670185
-0.0631835
-0.0599905
-0.0572863
-0.0549558
-0.0529149
-0.0511023
-0.0494732
-0.0479943
-0.04664
-0.04539
-0.0442276
-0.0431386
-0.0421109
-0.0411339
-0.0401984
-0.0392961
-0.0384198
-0.0375633
-0.0367209
-0.0358882
-0.035061
-0.0342362
-0.033411
-0.0325833
-0.0317514
-0.0309142
-0.0300707
-0.0292204
-0.028363
-0.0274984
-0.0266265
-0.0257474
-0.0248615
-0.0239688
-0.0230699
-0.0221648
-0.0212541
-0.0203379
-0.0194167
-0.0184908
-0.0175604
-0.016626
-0.0156878
-0.0147462
-0.0138015
-0.0128539
-0.0119036
-0.010951
-0.00999599
-0.00903867
-0.00807898
-0.00711686
-0.00615235
-0.0051856
-0.00421666
-0.00324435
-0.00226267
-0.00125889
-0.00025695
0.000507265
-0.369729
-0.343652
-0.320874
-0.302001
-0.28667
-0.273203
-0.259754
-0.245738
-0.230764
-0.215265
-0.200034
-0.185662
-0.172087
-0.159271
-0.146735
-0.134225
-0.121712
-0.109492
-0.0980821
-0.0890915
-0.0806462
-0.0739076
-0.0685644
-0.0642943
-0.0608246
-0.0579448
-0.0555014
-0.0533859
-0.0515229
-0.0498599
-0.0483596
-0.0469946
-0.0457431
-0.0445875
-0.0435126
-0.042505
-0.041553
-0.0406463
-0.0397755
-0.0389326
-0.0381105
-0.037303
-0.0365048
-0.0357114
-0.0349191
-0.034125
-0.0333266
-0.0325221
-0.0317101
-0.0308898
-0.0300605
-0.029222
-0.0283743
-0.0275174
-0.0266516
-0.0257772
-0.0248948
-0.0240046
-0.0231072
-0.022203
-0.0212925
-0.0203761
-0.0194542
-0.0185273
-0.0175957
-0.0166599
-0.0157201
-0.0147769
-0.0138304
-0.0128812
-0.0119293
-0.0109752
-0.0100188
-0.0090602
-0.00809944
-0.00713644
-0.00617127
-0.00520408
-0.00423464
-0.00326019
-0.00226766
-0.001221
-0.00010042
0.000840756
-0.370812
-0.346586
-0.325073
-0.30655
-0.290609
-0.275477
-0.260069
-0.243894
-0.227061
-0.210199
-0.194179
-0.179534
-0.16607
-0.153528
-0.141201
-0.128869
-0.116391
-0.104005
-0.0923363
-0.0832633
-0.0752102
-0.069117
-0.0644771
-0.0608593
-0.0579464
-0.0555202
-0.0534372
-0.0516058
-0.0499685
-0.0484888
-0.0471419
-0.0459095
-0.0447761
-0.0437278
-0.0427515
-0.0418351
-0.0409674
-0.0401383
-0.0393386
-0.0385605
-0.037797
-0.0370422
-0.0362912
-0.0355396
-0.0347842
-0.0340222
-0.0332517
-0.0324712
-0.0316796
-0.0308764
-0.0300614
-0.0292346
-0.0283963
-0.0275468
-0.0266868
-0.0258167
-0.0249373
-0.0240491
-0.0231528
-0.0222489
-0.0213381
-0.020421
-0.0194979
-0.0185695
-0.0176363
-0.0166986
-0.0157568
-0.0148115
-0.013863
-0.0129116
-0.0119578
-0.0110016
-0.0100434
-0.00908318
-0.00812092
-0.00715666
-0.00619055
-0.00522278
-0.00425274
-0.00327534
-0.00226797
-0.00116568
0.000101394
0.00125339
-0.371685
-0.348891
-0.32812
-0.309401
-0.292041
-0.274759
-0.256891
-0.238605
-0.220354
-0.20281
-0.186677
-0.172251
-0.159268
-0.147186
-0.135184
-0.123057
-0.11053
-0.0976844
-0.0851419
-0.0753369
-0.0679968
-0.0630119
-0.0594637
-0.0567854
-0.0546294
-0.0527912
-0.0511566
-0.049666
-0.0482909
-0.0470185
-0.0458421
-0.0447558
-0.0437521
-0.0428218
-0.041954
-0.0411378
-0.0403624
-0.0396178
-0.0388952
-0.0381869
-0.0374861
-0.0367874
-0.0360861
-0.0353783
-0.0346612
-0.0339325
-0.0331906
-0.0324343
-0.0316633
-0.0308771
-0.0300761
-0.0292607
-0.0284313
-0.0275888
-0.0267339
-0.0258675
-0.0249904
-0.0241035
-0.0232076
-0.0223034
-0.0213917
-0.0204732
-0.0195485
-0.018618
-0.0176825
-0.0167424
-0.0157982
-0.0148504
-0.0138993
-0.0129454
-0.0119891
-0.0110305
-0.01007
-0.00910764
-0.00814343
-0.0071775
-0.00621018
-0.00524185
-0.00427232
-0.00329808
-0.00230425
-0.00125324
-0.000128205
0.000808668
-0.372285
-0.350331
-0.329489
-0.309963
-0.290807
-0.271071
-0.250865
-0.230829
-0.211655
-0.194002
-0.178291
-0.164442
-0.152116
-0.140631
-0.129076
-0.117184
-0.104533
-0.0910176
-0.0767374
-0.0641236
-0.0586863
-0.0556126
-0.0536512
-0.0522198
-0.0510078
-0.0498685
-0.0487464
-0.0476323
-0.0465387
-0.0454843
-0.0444857
-0.0435524
-0.0426859
-0.0418817
-0.0411309
-0.040423
-0.0397474
-0.039094
-0.038454
-0.0378199
-0.0371855
-0.0365456
-0.0358961
-0.0352336
-0.0345557
-0.0338608
-0.0331476
-0.0324157
-0.0316648
-0.0308953
-0.0301078
-0.0293029
-0.0284817
-0.0276453
-0.0267947
-0.0259311
-0.0250555
-0.0241691
-0.0232728
-0.0223675
-0.0214542
-0.0205336
-0.0196064
-0.0186733
-0.017735
-0.0167919
-0.0158447
-0.0148938
-0.0139397
-0.0129827
-0.0120234
-0.011062
-0.0100987
-0.00913368
-0.00816703
-0.00719901
-0.00623014
-0.00526108
-0.00429203
-0.00332069
-0.0023389
-0.00133501
-0.000343157
0.000396478
-0.372605
-0.351031
-0.329767
-0.308967
-0.287627
-0.26534
-0.242998
-0.22169
-0.202198
-0.184838
-0.169751
-0.156633
-0.145023
-0.134248
-0.123314
-0.111797
-0.0991969
-0.0850582
-0.068297
-0.034985
-0.0473247
-0.047221
-0.047332
-0.0474098
-0.047273
-0.0468935
-0.0463093
-0.0455788
-0.0447644
-0.043923
-0.0430985
-0.0423177
-0.0415918
-0.0409197
-0.0402933
-0.0397016
-0.039133
-0.038577
-0.0380247
-0.0374689
-0.0369038
-0.0363248
-0.0357284
-0.035112
-0.0344738
-0.0338126
-0.0331278
-0.0324196
-0.0316882
-0.0309344
-0.0301593
-0.029364
-0.02855
-0.0277185
-0.0268712
-0.0260092
-0.0251342
-0.0242472
-0.0233495
-0.0224422
-0.0215263
-0.0206028
-0.0196724
-0.018736
-0.0177941
-0.0168474
-0.0158966
-0.014942
-0.0139843
-0.0130238
-0.012061
-0.0110962
-0.0101296
-0.00916144
-0.00819187
-0.0072213
-0.00625047
-0.00528031
-0.00431098
-0.00333906
-0.00235358
-0.00134201
-0.000349762
0.000370736
-0.37274
-0.351143
-0.329209
-0.306619
-0.283029
-0.258594
-0.234834
-0.212856
-0.193257
-0.176249
-0.161782
-0.149424
-0.13855
-0.128472
-0.118349
-0.107569
-0.0955518
-0.0817381
-0.0653807
-0.0457227
-0.0372152
-0.0386342
-0.040986
-0.0427031
-0.0436577
-0.0440172
-0.0439461
-0.0435746
-0.0430152
-0.0423657
-0.0417007
-0.0410658
-0.0404807
-0.0399459
-0.0394517
-0.0389843
-0.0385303
-0.0380779
-0.0376182
-0.0371442
-0.0366506
-0.0361339
-0.0355913
-0.0350209
-0.0344219
-0.0337936
-0.0331364
-0.0324506
-0.0317374
-0.030998
-0.0302339
-0.0294468
-0.0286385
-0.0278107
-0.0269651
-0.0261036
-0.0252277
-0.024339
-0.0234388
-0.0225284
-0.021609
-0.0206816
-0.0197471
-0.0188064
-0.0178603
-0.0169093
-0.0159542
-0.0149954
-0.0140335
-0.0130689
-0.0121021
-0.0111334
-0.0101629
-0.00919111
-0.00821813
-0.00724454
-0.00627126
-0.00529945
-0.00432931
-0.00335664
-0.00236716
-0.00134096
-0.000315546
0.000448713
-0.372677
-0.350856
-0.32821
-0.30371
-0.277742
-0.251321
-0.226299
-0.20396
-0.184611
-0.168249
-0.154607
-0.143111
-0.133072
-0.123776
-0.114567
-0.104821
-0.0938399
-0.080866
-0.0649859
-0.0450996
-0.010683
-0.0292021
-0.0351131
-0.0385198
-0.0403908
-0.041358
-0.0417281
-0.0416679
-0.0413225
-0.0408305
-0.0403015
-0.039802
-0.0393577
-0.0389671
-0.0386148
-0.0382818
-0.0379509
-0.0376089
-0.0372463
-0.0368569
-0.0364365
-0.0359824
-0.0354932
-0.034968
-0.0344069
-0.0338101
-0.0331786
-0.0325136
-0.0318168
-0.0310899
-0.030335
-0.0295542
-0.0287498
-0.0279238
-0.0270785
-0.0262158
-0.0253376
-0.0244457
-0.0235417
-0.022627
-0.0217029
-0.0207706
-0.0198311
-0.0188853
-0.017934
-0.0169779
-0.0160178
-0.0150541
-0.0140874
-0.0131182
-0.0121468
-0.0111736
-0.0101989
-0.0092229
-0.00824606
-0.00726898
-0.00629268
-0.00531847
-0.0043471
-0.00337664
-0.00239906
-0.0014021
-0.00040375
0.000412637
-0.372138
-0.349171
-0.325274
-0.299023
-0.271273
-0.243337
-0.217591
-0.195391
-0.176623
-0.161126
-0.14838
-0.137759
-0.128623
-0.12028
-0.11213
-0.103522
-0.093713
-0.0820348
-0.0677845
-0.0502725
-0.0269465
-0.0254273
-0.0313315
-0.035438
-0.0376047
-0.0389291
-0.039665
-0.0398741
-0.0396951
-0.0393156
-0.0388932
-0.0385181
-0.0382188
-0.0379846
-0.0377889
-0.0376039
-0.037407
-0.0371828
-0.0369221
-0.0366195
-0.0362728
-0.0358808
-0.0354436
-0.0349617
-0.0344362
-0.0338685
-0.0332603
-0.0326135
-0.0319305
-0.0312137
-0.0304656
-0.029689
-0.0288863
-0.0280602
-0.0272131
-0.0263474
-0.0254652
-0.0245686
-0.0236592
-0.0227389
-0.0218088
-0.0208704
-0.0199248
-0.0189729
-0.0180156
-0.0170536
-0.0160877
-0.0151184
-0.0141463
-0.0131718
-0.0121952
-0.0112171
-0.0102376
-0.00925703
-0.00827593
-0.00729494
-0.00631508
-0.0053375
-0.00436303
-0.00339174
-0.00242091
-0.00142837
-0.000302836
0.0010816
-0.370919
-0.345326
-0.319007
-0.290561
-0.261218
-0.232516
-0.206942
-0.185767
-0.16823
-0.154125
-0.142656
-0.133157
-0.125022
-0.117614
-0.110374
-0.102796
-0.0942115
-0.0840583
-0.0717431
-0.0563796
-0.0374611
-0.00766677
-0.0289943
-0.0336328
-0.0350155
-0.03652
-0.0376933
-0.0381889
-0.0381259
-0.037798
-0.0374455
-0.0371884
-0.0370481
-0.0369934
-0.036978
-0.0369605
-0.0369115
-0.0368141
-0.0366597
-0.0364456
-0.036172
-0.0358402
-0.0354524
-0.0350107
-0.0345175
-0.0339754
-0.0333871
-0.0327553
-0.032083
-0.0313732
-0.0306291
-0.0298539
-0.0290504
-0.0282218
-0.0273707
-0.0265
-0.0256119
-0.0247087
-0.0237924
-0.0228648
-0.0219275
-0.0209817
-0.0200288
-0.0190697
-0.0181054
-0.0171367
-0.0161642
-0.0151886
-0.0142103
-0.0132299
-0.0122476
-0.011264
-0.0102792
-0.00929369
-0.00830796
-0.00732276
-0.00633899
-0.00535733
-0.0043777
-0.00339925
-0.00241563
-0.00135561
0.000218515
0.00327438
-0.368925
-0.339082
-0.308358
-0.276665
-0.245895
-0.217443
-0.193394
-0.174255
-0.158817
-0.146794
-0.137149
-0.129157
-0.122274
-0.115929
-0.109631
-0.102957
-0.0953898
-0.0867028
-0.0763954
-0.0640211
-0.0503318
-0.0351071
-0.0368549
-0.0339102
-0.0313921
-0.0336116
-0.0357622
-0.0366574
-0.036616
-0.0362325
-0.0359001
-0.0357652
-0.0358175
-0.0359838
-0.0361854
-0.0363627
-0.0364797
-0.0365188
-0.0364752
-0.0363501
-0.0361476
-0.0358727
-0.03553
-0.035124
-0.0346586
-0.0341377
-0.0335649
-0.0329439
-0.0322784
-0.0315721
-0.0308286
-0.0300516
-0.0292444
-0.0284105
-0.027553
-0.0266749
-0.0257788
-0.0248671
-0.0239421
-0.0230056
-0.0220594
-0.021105
-0.0201435
-0.0191761
-0.0182038
-0.0172273
-0.0162474
-0.0152647
-0.0142796
-0.0132926
-0.0123041
-0.0113144
-0.0103239
-0.00933301
-0.00834229
-0.0073526
-0.00636477
-0.0053789
-0.00439353
-0.0034063
-0.00241798
-0.00142456
-0.000335579
0.000987698
-0.366266
-0.330665
-0.293237
-0.256646
-0.224668
-0.198184
-0.177771
-0.162455
-0.150329
-0.141003
-0.133654
-0.127622
-0.122339
-0.117338
-0.11217
-0.106492
-0.0999089
-0.0925352
-0.0837456
-0.0734678
-0.0626826
-0.0527129
-0.0377924
-0.0323788
-0.022066
-0.0295693
-0.0341796
-0.0355255
-0.0351966
-0.0345356
-0.0341553
-0.0341739
-0.0344879
-0.0349446
-0.0354177
-0.0358264
-0.0361305
-0.0363166
-0.0363868
-0.0363492
-0.0362141
-0.0359908
-0.0356875
-0.0353111
-0.0348676
-0.0343621
-0.0337995
-0.0331843
-0.032521
-0.0318139
-0.0310671
-0.0302846
-0.0294704
-0.0286283
-0.0277615
-0.0268734
-0.0259669
-0.0250446
-0.0241089
-0.0231618
-0.0222052
-0.0212405
-0.0202692
-0.0192923
-0.0183109
-0.0173257
-0.0163375
-0.0153468
-0.0143542
-0.0133601
-0.0123647
-0.0113685
-0.0103718
-0.00937502
-0.00837891
-0.00738438
-0.00639225
-0.00540222
-0.00441123
-0.00341369
-0.0024093
-0.00142325
-0.000524077
0.000151275
-0.363762
-0.323433
-0.282219
-0.242975
-0.210146
-0.184929
-0.166832
-0.154319
-0.145279
-0.138651
-0.133609
-0.129486
-0.125878
-0.122308
-0.118434
-0.113947
-0.108422
-0.102057
-0.0944338
-0.0855132
-0.0757853
-0.0655254
-0.051579
-0.0251616
0.00419135
-0.0264689
-0.0345476
-0.035408
-0.0338645
-0.0325131
-0.0320322
-0.0323075
-0.0330157
-0.0338723
-0.0346915
-0.0353761
-0.0358898
-0.0362314
-0.0364155
-0.0364612
-0.0363869
-0.0362076
-0.0359359
-0.0355814
-0.0351523
-0.0346553
-0.0340964
-0.0334812
-0.0328147
-0.0321017
-0.0313471
-0.0305552
-0.0297303
-0.0288765
-0.0279974
-0.0270966
-0.0261772
-0.025242
-0.0242935
-0.0233339
-0.0223651
-0.0213887
-0.0204062
-0.0194185
-0.0184269
-0.017432
-0.0164345
-0.0154351
-0.0144342
-0.0134322
-0.0124295
-0.0114262
-0.0104228
-0.00941969
-0.0084177
-0.00741779
-0.00642085
-0.0054263
-0.00442979
-0.00342201
-0.00239649
-0.00137911
-0.000477205
9.86273e-05
-0.361076
-0.315738
-0.271169
-0.230959
-0.198942
-0.17599
-0.160715
-0.150808
-0.144351
-0.139942
-0.136834
-0.134492
-0.132452
-0.13024
-0.127727
-0.124426
-0.119962
-0.114757
-0.108196
-0.100198
-0.0912272
-0.0816057
-0.0686381
-0.0547239
-0.0522529
-0.0422642
-0.0404249
-0.0370139
-0.0322177
-0.029681
-0.0292249
-0.0300323
-0.0313703
-0.0327848
-0.0340427
-0.0350501
-0.0357922
-0.0362922
-0.0365853
-0.0367057
-0.0366821
-0.0365367
-0.0362864
-0.0359442
-0.0355205
-0.0350237
-0.0344611
-0.0338388
-0.0331629
-0.0324387
-0.0316712
-0.0308654
-0.0300257
-0.0291565
-0.0282619
-0.0273454
-0.0264103
-0.0254598
-0.0244963
-0.0235223
-0.0225395
-0.0215498
-0.0205545
-0.0195548
-0.0185518
-0.0175461
-0.0165385
-0.0155296
-0.0145197
-0.0135091
-0.0124983
-0.0114875
-0.0104769
-0.00946699
-0.00845853
-0.00745253
-0.00644986
-0.0054499
-0.00444759
-0.00343109
-0.00238848
-0.00134027
-0.000401553
0.000188374
-0.358858
-0.309597
-0.262738
-0.22256
-0.192195
-0.171381
-0.158493
-0.150937
-0.146477
-0.14396
-0.142552
-0.141717
-0.141023
-0.139998
-0.138798
-0.136581
-0.133175
-0.129225
-0.123696
-0.116906
-0.109073
-0.100348
-0.088989
-0.0776503
-0.0665805
-0.0571143
-0.0407036
-0.0396305
-0.0285468
-0.0250264
-0.0252947
-0.0272384
-0.0295732
-0.0317412
-0.0335333
-0.0349026
-0.0358817
-0.0365334
-0.0369227
-0.0371033
-0.0371162
-0.0369911
-0.0367497
-0.0364084
-0.0359795
-0.0354733
-0.0348981
-0.0342612
-0.0335689
-0.0328271
-0.0320413
-0.0312166
-0.0303578
-0.0294694
-0.0285556
-0.0276202
-0.0266668
-0.0256983
-0.0247176
-0.023727
-0.0227285
-0.0217238
-0.0207143
-0.0197012
-0.0186856
-0.0176681
-0.0166494
-0.01563
-0.0146104
-0.0135907
-0.0125713
-0.0115523
-0.010534
-0.00951685
-0.00850134
-0.00748845
-0.00647898
-0.00547235
-0.00446364
-0.0034407
-0.00238996
-0.00132915
-0.000373753
0.000227935
-0.356933
-0.304496
-0.256294
-0.216481
-0.187886
-0.169597
-0.159042
-0.153399
-0.150757
-0.149804
-0.149714
-0.150112
-0.150456
-0.150441
-0.150346
-0.149191
-0.146801
-0.144074
-0.1397
-0.134183
-0.127575
-0.119644
-0.109515
-0.0988483
-0.0866098
-0.0742414
-0.0605366
-0.0445077
-0.0136793
-0.0170952
-0.0198677
-0.0239947
-0.0277619
-0.0308552
-0.0332497
-0.034999
-0.0362067
-0.0369908
-0.0374543
-0.0376743
-0.037705
-0.0375835
-0.0373361
-0.036982
-0.0365358
-0.0360092
-0.0354118
-0.0347514
-0.0340351
-0.0332691
-0.032459
-0.0316101
-0.0307274
-0.0298156
-0.028879
-0.0279215
-0.0269467
-0.0259577
-0.0249574
-0.0239481
-0.0229319
-0.0219105
-0.0208854
-0.0198576
-0.0188281
-0.0177977
-0.016767
-0.0157364
-0.0147062
-0.0136767
-0.0126482
-0.0116206
-0.0105942
-0.00956922
-0.00854614
-0.00752565
-0.0065084
-0.00549385
-0.00447779
-0.00344963
-0.00239761
-0.00133989
-0.000389631
0.000208409
-0.354718
-0.298753
-0.249555
-0.211584
-0.185797
-0.170073
-0.161502
-0.157609
-0.15638
-0.156519
-0.157486
-0.158786
-0.159985
-0.160762
-0.161297
-0.161261
-0.159906
-0.158152
-0.155141
-0.150805
-0.145355
-0.138311
-0.129331
-0.119149
-0.107016
-0.0931774
-0.0774164
-0.0585699
-0.0329147
-0.0028128
-0.0131804
-0.020858
-0.026248
-0.030278
-0.03328
-0.0354001
-0.0368116
-0.0376966
-0.0382037
-0.0384365
-0.0384623
-0.0383248
-0.0380542
-0.0376719
-0.0371948
-0.0366357
-0.0360052
-0.035312
-0.0345634
-0.0337658
-0.032925
-0.0320464
-0.031135
-0.0301955
-0.0292322
-0.0282492
-0.0272499
-0.0262378
-0.0252155
-0.0241854
-0.0231496
-0.0221099
-0.0210675
-0.0200236
-0.0189792
-0.0179348
-0.0168911
-0.0158484
-0.014807
-0.0137671
-0.0127288
-0.0116921
-0.0106572
-0.00962405
-0.00859299
-0.00756442
-0.0065387
-0.00551534
-0.00449096
-0.00345722
-0.00240557
-0.00135566
-0.000416929
0.000173502
-0.353627
-0.29636
-0.247381
-0.210804
-0.186523
-0.172357
-0.165418
-0.162884
-0.162589
-0.163648
-0.165317
-0.167189
-0.169001
-0.170382
-0.171424
-0.172153
-0.171923
-0.170775
-0.169149
-0.166016
-0.161652
-0.155852
-0.14822
-0.138962
-0.127581
-0.113737
-0.097401
-0.0784018
-0.0554407
-0.0289462
-0.0054695
-0.0193696
-0.0254342
-0.0300977
-0.0336697
-0.0361449
-0.0377268
-0.0386731
-0.0391877
-0.039403
-0.0393986
-0.0392237
-0.0389108
-0.0384837
-0.0379605
-0.0373557
-0.0366807
-0.0359445
-0.0351547
-0.0343179
-0.0334398
-0.0325257
-0.0315805
-0.0306088
-0.0296149
-0.0286029
-0.0275762
-0.0265381
-0.0254914
-0.0244384
-0.0233812
-0.0223214
-0.0212603
-0.020199
-0.0191384
-0.018079
-0.0170214
-0.0159658
-0.0149124
-0.0138614
-0.0128129
-0.0117667
-0.0107228
-0.00968122
-0.00864193
-0.00760505
-0.00657064
-0.00553814
-0.00450492
-0.00346472
-0.00241179
-0.00136618
-0.000431711
0.000160461
-0.353166
-0.295861
-0.247686
-0.211959
-0.188912
-0.176118
-0.170256
-0.168613
-0.16911
-0.170847
-0.172996
-0.175196
-0.177312
-0.179095
-0.180541
-0.181761
-0.182324
-0.181809
-0.181265
-0.179386
-0.176297
-0.171957
-0.165921
-0.157972
-0.147704
-0.134821
-0.119207
-0.100896
-0.079019
-0.0550579
-0.0304583
-0.0235006
-0.0251209
-0.0301227
-0.0344031
-0.0372576
-0.0389716
-0.0399323
-0.0404151
-0.0405815
-0.0405209
-0.0402858
-0.0399105
-0.0394205
-0.0388354
-0.0381709
-0.0374389
-0.0366491
-0.035809
-0.0349251
-0.0340028
-0.0330473
-0.0320631
-0.0310547
-0.0300264
-0.0289818
-0.0279247
-0.026858
-0.0257845
-0.0247065
-0.023626
-0.0225445
-0.0214632
-0.0203832
-0.0193053
-0.0182299
-0.0171574
-0.0160881
-0.0150221
-0.0139595
-0.0129001
-0.011844
-0.0107908
-0.00974054
-0.00869288
-0.0076477
-0.00660479
-0.00556361
-0.00452244
-0.0034775
-0.00242613
-0.0013866
-0.000448771
0.000166451
-0.353209
-0.296237
-0.249013
-0.214705
-0.192757
-0.180743
-0.175577
-0.174511
-0.175651
-0.177905
-0.180413
-0.182839
-0.185078
-0.187053
-0.188781
-0.190125
-0.191122
-0.19137
-0.191519
-0.190851
-0.18922
-0.186306
-0.181948
-0.17554
-0.166741
-0.155391
-0.141085
-0.123475
-0.102385
-0.0778968
-0.0514182
-0.00916739
-0.0209305
-0.029813
-0.0355783
-0.0388231
-0.0405745
-0.0414797
-0.0418871
-0.0419741
-0.0418322
-0.0415141
-0.0410556
-0.0404837
-0.0398199
-0.0390809
-0.0382793
-0.037425
-0.0365253
-0.0355862
-0.0346129
-0.0336099
-0.0325816
-0.0315321
-0.0304653
-0.029385
-0.0282944
-0.0271965
-0.0260939
-0.0249889
-0.0238832
-0.0227784
-0.0216756
-0.0205756
-0.0194792
-0.0183868
-0.0172986
-0.0162149
-0.0151356
-0.0140607
-0.0129901
-0.0119236
-0.0108609
-0.00980172
-0.00874564
-0.0076923
-0.00664132
-0.00559241
-0.00454526
-0.00349949
-0.00245538
-0.00142013
-0.000438322
0.000294171
-0.353615
-0.297758
-0.251713
-0.218451
-0.197293
-0.185847
-0.181168
-0.180433
-0.182102
-0.184734
-0.187543
-0.190131
-0.192417
-0.194441
-0.196236
-0.19764
-0.198767
-0.19959
-0.200258
-0.2006
-0.200241
-0.198753
-0.195931
-0.191252
-0.184173
-0.174462
-0.16153
-0.145017
-0.124997
-0.101008
-0.0741505
-0.041265
-0.0111758
-0.0312153
-0.0380717
-0.0410836
-0.0425766
-0.043313
-0.0435993
-0.0435798
-0.0433329
-0.042909
-0.0423455
-0.0416722
-0.0409122
-0.0400837
-0.0391997
-0.0382699
-0.0373012
-0.036299
-0.0352678
-0.0342116
-0.0331342
-0.0320392
-0.0309303
-0.0298108
-0.0286838
-0.0275522
-0.0264183
-0.0252843
-0.0241519
-0.0230223
-0.0218965
-0.0207755
-0.0196596
-0.0185492
-0.0174445
-0.0163456
-0.0152524
-0.0141647
-0.0130824
-0.0120052
-0.0109326
-0.00986435
-0.00879982
-0.00773847
-0.00667983
-0.00562389
-0.00457175
-0.00352563
-0.00248264
-0.00141072
-0.000233632
0.000902204
-0.354074
-0.2994
-0.254765
-0.222388
-0.201745
-0.190914
-0.186774
-0.18633
-0.188419
-0.191351
-0.194393
-0.197126
-0.199409
-0.201379
-0.203083
-0.204475
-0.20564
-0.206744
-0.20784
-0.208881
-0.209456
-0.209295
-0.207937
-0.204993