/*--------------------------------*- C++ -*----------------------------------*\
  =========                 |
  \\      /  F ield         | OpenFOAM: The Open Source CFD Toolbox
   \\    /   O peration     | Website:  https://openfoam.org
    \\  /    A nd           | Version:  6
     \\/     M anipulation  |
\*---------------------------------------------------------------------------*/
FoamFile
{
    version     2.0;
    format      ascii;
    class       surfaceScalarField;
    location    "630";
    object      phi;
}
// * * * * * * * * * * * * * * * * * * * * * * * * * * * * * * * * * * * * * //

dimensions      [0 3 -1 0 0 0 0];

internalField   nonuniform List<scalar> 
11773
(
-1.70931e-08
1.70931e-08
-4.81191e-08
3.10224e-08
-6.93245e-08
2.12024e-08
-8.45616e-08
1.52344e-08
-1.01202e-07
1.66378e-08
-1.10101e-07
8.89665e-09
-1.16006e-07
5.90218e-09
-1.1943e-07
3.42114e-09
-1.16224e-07
-3.2078e-09
-1.06452e-07
-9.77502e-09
-9.1854e-08
-1.46005e-08
-8.28827e-08
-8.97376e-09
-7.03878e-08
-1.24974e-08
-6.07364e-08
-9.65392e-09
-4.76515e-08
-1.30875e-08
-2.97525e-08
-1.79015e-08
-1.81308e-08
-1.16243e-08
1.69884e-12
-1.8135e-08
9.47621e-14
4.87371e-14
8.608e-14
8.68212e-15
8.07007e-14
5.37596e-15
7.5163e-14
5.53457e-15
6.97989e-14
5.361e-15
6.49146e-14
4.88147e-15
6.05836e-14
4.32826e-15
5.67715e-14
3.80965e-15
5.34112e-14
3.35797e-15
5.04339e-14
2.97514e-15
4.77785e-14
2.65334e-15
4.53937e-14
2.38294e-15
4.32369e-14
2.15505e-15
4.1273e-14
1.96219e-15
3.94733e-14
1.79823e-15
3.78137e-14
1.65824e-15
3.62742e-14
1.53821e-15
3.48382e-14
1.43488e-15
3.34917e-14
1.34559e-15
3.22227e-14
1.26814e-15
3.10213e-14
1.20068e-15
2.98789e-14
1.14169e-15
2.87886e-14
1.08987e-15
2.7744e-14
1.04415e-15
2.67401e-14
1.00359e-15
2.57725e-14
9.67419e-16
2.48374e-14
9.3498e-16
2.39316e-14
9.0571e-16
2.30524e-14
8.79136e-16
2.21976e-14
8.5486e-16
2.13652e-14
8.32544e-16
2.05534e-14
8.11905e-16
1.97609e-14
7.92705e-16
1.89863e-14
7.74746e-16
1.82287e-14
7.57862e-16
1.7487e-14
7.41917e-16
1.67605e-14
7.26797e-16
1.60484e-14
7.12408e-16
1.535e-14
6.98675e-16
1.46648e-14
6.85536e-16
1.39922e-14
6.72942e-16
1.33316e-14
6.60853e-16
1.26827e-14
6.4924e-16
1.2045e-14
6.38078e-16
1.1418e-14
6.27351e-16
1.08014e-14
6.17047e-16
1.01946e-14
6.07159e-16
9.59734e-15
5.97681e-16
9.00916e-15
5.88612e-16
8.42965e-15
5.79954e-16
7.85841e-15
5.71708e-16
7.29502e-15
5.63878e-16
6.73905e-15
5.56467e-16
6.19009e-15
5.4948e-16
5.64771e-15
5.42919e-16
5.11148e-15
5.36788e-16
4.58097e-15
5.31086e-16
4.05576e-15
5.25811e-16
3.53542e-15
5.20951e-16
3.01957e-15
5.1648e-16
2.50787e-15
5.12346e-16
2.00005e-15
5.0848e-16
1.49589e-15
5.04841e-16
9.95045e-16
5.01525e-16
4.96847e-16
4.98883e-16
4.97531e-16
-3.51993e-08
5.2289e-08
-4.6695e-08
4.25126e-08
-5.44097e-08
2.89122e-08
-6.69854e-08
2.78052e-08
-8.01526e-08
2.98004e-08
-8.66094e-08
1.53487e-08
-9.00924e-08
9.38053e-09
-9.01378e-08
3.4617e-09
-8.60283e-08
-7.32171e-09
-8.26778e-08
-1.31298e-08
-6.86505e-08
-2.86323e-08
-6.5018e-08
-1.26109e-08
-5.65263e-08
-2.09937e-08
-4.80942e-08
-1.80907e-08
-3.96262e-08
-2.156e-08
-2.66356e-08
-3.08967e-08
-6.57535e-09
-3.1689e-08
3.85502e-12
-2.47177e-08
5.95617e-14
2.65978e-12
8.3168e-14
-1.4927e-14
8.08375e-14
7.70039e-15
7.50126e-14
1.13538e-14
6.93835e-14
1.09849e-14
6.44371e-14
9.82304e-15
6.01384e-14
8.62253e-15
5.63862e-14
7.55768e-15
5.30871e-14
6.65328e-15
5.01637e-14
5.89494e-15
4.75534e-14
5.26017e-15
4.52058e-14
4.72745e-15
4.30795e-14
4.27847e-15
4.11407e-14
3.89829e-15
3.93616e-14
3.57487e-15
3.77191e-14
3.29853e-15
3.61939e-14
3.06143e-15
3.47698e-14
2.85722e-15
3.34332e-14
2.68065e-15
3.21726e-14
2.52741e-15
3.09783e-14
2.3939e-15
2.9842e-14
2.2771e-15
2.87567e-14
2.17447e-15
2.77164e-14
2.08386e-15
2.67162e-14
2.00346e-15
2.57516e-14
1.93173e-15
2.48191e-14
1.86736e-15
2.39156e-14
1.80925e-15
2.30383e-14
1.75647e-15
2.21851e-14
1.70822e-15
2.13541e-14
1.66384e-15
2.05435e-14
1.62278e-15
1.9752e-14
1.58456e-15
1.89784e-14
1.54879e-15
1.82215e-14
1.51514e-15
1.74806e-14
1.48336e-15
1.67547e-14
1.4532e-15
1.60431e-14
1.42449e-15
1.53453e-14
1.39709e-15
1.46605e-14
1.37086e-15
1.39884e-14
1.34571e-15
1.33283e-14
1.32156e-15
1.26798e-14
1.29836e-15
1.20425e-14
1.27607e-15
1.14159e-14
1.25463e-15
1.07996e-14
1.23404e-15
1.01932e-14
1.21428e-15
9.59633e-15
1.19534e-15
9.00853e-15
1.17722e-15
8.42941e-15
1.15991e-15
7.85855e-15
1.14343e-15
7.29555e-15
1.12778e-15
6.73998e-15
1.11297e-15
6.19142e-15
1.09901e-15
5.64945e-15
1.0859e-15
5.11362e-15
1.07365e-15
4.58352e-15
1.06226e-15
4.0587e-15
1.05173e-15
3.53875e-15
1.04203e-15
3.02325e-15
1.03313e-15
2.51183e-15
1.02496e-15
2.0041e-15
1.01741e-15
1.49968e-15
1.01048e-15
9.98106e-16
1.00432e-15
4.98718e-16
9.99487e-16
9.96771e-16
-2.27737e-08
7.50598e-08
-3.26432e-08
5.23771e-08
-4.47726e-08
4.10375e-08
-5.41881e-08
3.72165e-08
-5.94934e-08
3.51015e-08
-6.13066e-08
1.7158e-08
-6.03427e-08
8.41308e-09
-6.4476e-08
7.59084e-09
-6.67834e-08
-5.01827e-09
-6.83802e-08
-1.15367e-08
-4.80982e-08
-4.89182e-08
-4.66809e-08
-1.40323e-08
-3.75918e-08
-3.00869e-08
-3.1653e-08
-2.40336e-08
-2.89469e-08
-2.42703e-08
-2.70735e-08
-3.27741e-08
-1.95396e-08
-3.9227e-08
3.45884e-09
-4.77194e-08
1.62376e-13
3.46034e-09
1.03031e-13
4.42036e-14
8.4043e-14
2.66854e-14
7.46915e-14
2.07006e-14
6.837e-14
1.7302e-14
6.33922e-14
1.47966e-14
5.92143e-14
1.27966e-14
5.5604e-14
1.11643e-14
5.24335e-14
9.82029e-15
4.96188e-14
8.70646e-15
4.70981e-14
7.77782e-15
4.48238e-14
6.99898e-15
4.27575e-14
6.34211e-15
4.08682e-14
5.78522e-15
3.91301e-14
5.31085e-15
3.75216e-14
4.90501e-15
3.60248e-14
4.55642e-15
3.46246e-14
4.25586e-15
3.33081e-14
3.99577e-15
3.20645e-14
3.76986e-15
3.08845e-14
3.57289e-15
2.97604e-14
3.40046e-15
2.86853e-14
3.24884e-15
2.76538e-14
3.11489e-15
2.66609e-14
2.99595e-15
2.57026e-14
2.88976e-15
2.47755e-14
2.79439e-15
2.38765e-14
2.70823e-15
2.30031e-14
2.6299e-15
2.21532e-14
2.55824e-15
2.1325e-14
2.49227e-15
2.05169e-14
2.43117e-15
1.97275e-14
2.37425e-15
1.89557e-14
2.32094e-15
1.82005e-14
2.27076e-15
1.74609e-14
2.22331e-15
1.67363e-14
2.17827e-15
1.60259e-14
2.13537e-15
1.53291e-14
2.09438e-15
1.46453e-14
2.05514e-15
1.3974e-14
2.0175e-15
1.33147e-14
1.98135e-15
1.26671e-14
1.9466e-15
1.20305e-14
1.91318e-15
1.14047e-14
1.88106e-15
1.07892e-14
1.8502e-15
1.01835e-14
1.82056e-15
9.58737e-15
1.79216e-15
9.00031e-15
1.76497e-15
8.42193e-15
1.73901e-15
7.85183e-15
1.71428e-15
7.28958e-15
1.6908e-15
6.73479e-15
1.66857e-15
6.187e-15
1.64762e-15
5.64581e-15
1.62795e-15
5.11077e-15
1.60958e-15
4.58145e-15
1.5925e-15
4.0574e-15
1.57672e-15
3.53819e-15
1.56221e-15
3.02338e-15
1.54894e-15
2.51255e-15
1.53682e-15
2.00523e-15
1.52577e-15
1.50097e-15
1.51578e-15
9.99232e-16
1.5071e-15
4.9939e-16
1.50035e-15
1.49664e-15
-1.35228e-08
8.85799e-08
-3.11652e-08
7.00145e-08
-4.53726e-08
5.52409e-08
-6.01508e-08
5.19907e-08
-6.60651e-08
4.10119e-08
-7.31494e-08
2.42384e-08
-7.60661e-08
1.13261e-08
-7.72313e-08
8.75204e-09
-7.47226e-08
-7.53089e-09
-6.25694e-08
-2.36938e-08
-4.42653e-08
-6.72261e-08
-3.69896e-08
-2.13119e-08
-2.33674e-08
-4.37132e-08
-1.59021e-08
-3.15029e-08
-1.89406e-08
-2.12358e-08
-2.5645e-08
-2.60738e-08
-2.45603e-08
-4.03157e-08
-1.77031e-08
-5.45797e-08
6.99313e-13
-1.42449e-08
8.76197e-14
4.88091e-14
7.8784e-14
3.55189e-14
7.17123e-14
2.77679e-14
6.61792e-14
2.28307e-14
6.16473e-14
1.93243e-14
5.77933e-14
1.66468e-14
5.44366e-14
1.45174e-14
5.14684e-14
1.2785e-14
4.88162e-14
1.13554e-14
4.64269e-14
1.01641e-14
4.42593e-14
9.16371e-15
4.22804e-14
8.31832e-15
4.04631e-14
7.6001e-15
3.87847e-14
6.98707e-15
3.72261e-14
6.46165e-15
3.57711e-14
6.00963e-15
3.4406e-14
5.61936e-15
3.31191e-14
5.28123e-15
3.19005e-14
4.98724e-15
3.07418e-14
4.73065e-15
2.96356e-14
4.50581e-15
2.85758e-14
4.30794e-15
2.75572e-14
4.13297e-15
2.65753e-14
3.97744e-15
2.56264e-14
3.83844e-15
2.47072e-14
3.71348e-15
2.38149e-14
3.60045e-15
2.29473e-14
3.49756e-15
2.21023e-14
3.40333e-15
2.12783e-14
3.31647e-15
2.04738e-14
3.23592e-15
1.96875e-14
3.1608e-15
1.89185e-14
3.09036e-15
1.81656e-14
3.02398e-15
1.74282e-14
2.96115e-15
1.67054e-14
2.90146e-15
1.59967e-14
2.84454e-15
1.53014e-14
2.79013e-15
1.4619e-14
2.738e-15
1.39491e-14
2.68796e-15
1.32911e-14
2.63987e-15
1.26446e-14
2.59363e-15
1.20092e-14
2.54914e-15
1.13845e-14
2.50636e-15
1.077e-14
2.46523e-15
1.01655e-14
2.42574e-15
9.57044e-15
2.38786e-15
8.98448e-15
2.35161e-15
8.40721e-15
2.31699e-15
7.83822e-15
2.284e-15
7.27711e-15
2.25267e-15
6.72345e-15
2.22302e-15
6.17682e-15
2.19506e-15
5.63679e-15
2.16882e-15
5.10292e-15
2.14432e-15
4.57477e-15
2.12156e-15
4.05187e-15
2.10054e-15
3.53379e-15
2.08125e-15
3.02005e-15
2.06365e-15
2.51018e-15
2.04768e-15
2.00369e-15
2.03326e-15
1.50005e-15
2.02043e-15
9.98709e-16
2.00944e-15
4.99288e-16
2.00074e-15
1.99636e-15
-1.98726e-08
1.0845e-07
-3.22133e-08
8.23505e-08
-4.81318e-08
7.11552e-08
-6.99101e-08
7.37651e-08
-8.60008e-08
5.70991e-08
-1.00487e-07
3.87204e-08
-9.64543e-08
7.28978e-09
-8.50851e-08
-2.6206e-09
-6.95686e-08
-2.30513e-08
-4.4345e-08
-4.89215e-08
-3.91336e-08
-7.24415e-08
-1.61134e-08
-4.43362e-08
-4.06804e-09
-5.57628e-08
4.41439e-09
-3.99896e-08
6.06741e-09
-2.28929e-08
-1.16674e-09
-1.88437e-08
-9.82662e-09
-3.16595e-08
-2.8933e-08
-3.54769e-08
1.19169e-12
-4.31817e-08
7.59562e-14
4.87965e-14
7.19875e-14
3.94855e-14
6.73892e-14
3.23619e-14
6.31138e-14
2.71019e-14
5.93104e-14
2.31236e-14
5.59378e-14
2.00154e-14
5.29295e-14
1.7522e-14
5.0227e-14
1.54839e-14
4.77835e-14
1.37955e-14
4.55613e-14
1.23832e-14
4.35294e-14
1.11927e-14
4.16617e-14
1.01833e-14
3.99363e-14
9.32303e-15
3.83343e-14
8.58676e-15
3.68396e-14
7.95425e-15
3.54384e-14
7.409e-15
3.41187e-14
6.93745e-15
3.28702e-14
6.52829e-15
3.16841e-14
6.17207e-15
3.05529e-14
5.86081e-15
2.94701e-14
5.58775e-15
2.84301e-14
5.34716e-15
2.74284e-14
5.13416e-15
2.64608e-14
4.94459e-15
2.5524e-14
4.77494e-15
2.46151e-14
4.62221e-15
2.37317e-14
4.48385e-15
2.28716e-14
4.35772e-15
2.2033e-14
4.242e-15
2.12145e-14
4.13517e-15
2.04147e-14
4.03595e-15
1.96325e-14
3.94327e-15
1.8867e-14
3.85623e-15
1.81172e-14
3.7741e-15
1.73825e-14
3.69625e-15
1.66622e-14
3.6222e-15
1.59557e-14
3.55151e-15
1.52624e-14
3.48387e-15
1.45819e-14
3.419e-15
1.39137e-14
3.35669e-15
1.32573e-14
3.29676e-15
1.26124e-14
3.23909e-15
1.19785e-14
3.18358e-15
1.13552e-14
3.13017e-15
1.07423e-14
3.0788e-15
1.01392e-14
3.02946e-15
9.54556e-15
2.98212e-15
8.96104e-15
2.9368e-15
8.38523e-15
2.89349e-15
7.81772e-15
2.85223e-15
7.25811e-15
2.81304e-15
6.70597e-15
2.77594e-15
6.16087e-15
2.74097e-15
5.62239e-15
2.70814e-15
5.09008e-15
2.67749e-15
4.56348e-15
2.64904e-15
4.04214e-15
2.6228e-15
3.52559e-15
2.59875e-15
3.01333e-15
2.57688e-15
2.50487e-15
2.55712e-15
1.99967e-15
2.53945e-15
1.49715e-15
2.52392e-15
9.96675e-16
2.51087e-15
4.98682e-16
2.49972e-15
2.49549e-15
-3.78437e-08
1.46291e-07
-6.24966e-08
1.06999e-07
-7.66852e-08
8.53399e-08
-9.13968e-08
8.84726e-08
-1.11084e-07
7.67825e-08
-9.67417e-08
2.43735e-08
-9.70328e-08
7.57697e-09
-7.28093e-08
-2.68477e-08
-5.25109e-08
-4.33535e-08
-2.8126e-08
-7.33104e-08
-1.36432e-08
-8.69284e-08
1.57401e-08
-7.37239e-08
2.34899e-08
-6.35169e-08
2.7604e-08
-4.41081e-08
3.73818e-08
-3.2675e-08
2.44322e-08
-5.89838e-09
6.11959e-09
-1.33509e-08
-3.7807e-09
-2.55806e-08
1.07032e-12
-4.69666e-08
6.78125e-14
4.87156e-14
6.57564e-14
4.15394e-14
6.27913e-14
3.5323e-14
5.96396e-14
3.02495e-14
5.65988e-14
2.61603e-14
5.37651e-14
2.28451e-14
5.11555e-14
2.01278e-14
4.87592e-14
1.78765e-14
4.65573e-14
1.59939e-14
4.45293e-14
1.44079e-14
4.26556e-14
1.30634e-14
4.09183e-14
1.19178e-14
3.93011e-14
1.09376e-14
3.77897e-14
1.00958e-14
3.63711e-14
9.37064e-15
3.50341e-14
8.74406e-15
3.37688e-14
8.2011e-15
3.25664e-14
7.72919e-15
3.14194e-14
7.31772e-15
3.03214e-14
6.95768e-15
2.92668e-14
6.6414e-15
2.82509e-14
6.36235e-15
2.72695e-14
6.11493e-15
2.63193e-14
5.89441e-15
2.53972e-14
5.69671e-15
2.45008e-14
5.51842e-15
2.3628e-14
5.3566e-15
2.27769e-14
5.20879e-15
2.19461e-14
5.07292e-15
2.11342e-14
4.94724e-15
2.03401e-14
4.83027e-15
1.95628e-14
4.7208e-15
1.88016e-14
4.6178e-15
1.80556e-14
4.52044e-15
1.73242e-14
4.42802e-15
1.66069e-14
4.33996e-15
1.5903e-14
4.2558e-15
1.52122e-14
4.17516e-15
1.45339e-14
4.09774e-15
1.38678e-14
4.02329e-15
1.32135e-14
3.95164e-15
1.25705e-14
3.88263e-15
1.19384e-14
3.81616e-15
1.1317e-14
3.75216e-15
1.07058e-14
3.69058e-15
1.01045e-14
3.63139e-15
9.5127e-15
3.57459e-15
8.92999e-15
3.52018e-15
8.35599e-15
3.46818e-15
7.79032e-15
3.41862e-15
7.23257e-15
3.37154e-15
6.68232e-15
3.32697e-15
6.13914e-15
3.28494e-15
5.60259e-15
3.24551e-15
5.07224e-15
3.20871e-15
4.54761e-15
3.17455e-15
4.02823e-15
3.14308e-15
3.51363e-15
3.11429e-15
3.0033e-15
3.08817e-15
2.49671e-15
3.06468e-15
1.99331e-15
3.04381e-15
1.49255e-15
3.02562e-15
9.93878e-16
3.01046e-15
4.96952e-16
2.99784e-15
2.99286e-15
8.47661e-09
1.37813e-07
-1.62293e-08
1.317e-07
-5.93618e-08
1.28469e-07
-7.77269e-08
1.06834e-07
-8.91784e-08
8.82297e-08
-8.21764e-08
1.73674e-08
-8.25989e-08
7.99533e-09
-5.15378e-08
-5.79129e-08
-1.96698e-08
-7.52257e-08
9.21165e-09
-1.02196e-07
2.6634e-08
-1.04355e-07
4.58118e-08
-9.29062e-08
5.59842e-08
-7.36937e-08
5.35714e-08
-4.16998e-08
4.60058e-08
-2.51139e-08
3.45325e-08
5.57052e-09
1.66035e-08
4.57411e-09
3.78528e-09
-1.27663e-08
1.10261e-12
-4.31855e-08
6.15583e-14
4.87076e-14
6.03333e-14
4.27624e-14
5.83649e-14
3.72876e-14
5.60733e-14
3.25371e-14
5.3709e-14
2.85205e-14
5.13981e-14
2.51519e-14
4.91958e-14
2.2326e-14
4.7122e-14
1.99464e-14
4.51792e-14
1.7933e-14
4.33623e-14
1.62214e-14
4.16624e-14
1.476e-14
4.00695e-14
1.35077e-14
3.85732e-14
1.2431e-14
3.71636e-14
1.15029e-14
3.58311e-14
1.07009e-14
3.4567e-14
1.00061e-14
3.33636e-14
9.40271e-15
3.22138e-14
8.87733e-15
3.11117e-14
8.41848e-15
3.00518e-14
8.01637e-15
2.90297e-14
7.66258e-15
2.80413e-14
7.34993e-15
2.70833e-14
7.07226e-15
2.61529e-14
6.82429e-15
2.52477e-14
6.60155e-15
2.43657e-14
6.40024e-15
2.35051e-14
6.21711e-15
2.26644e-14
6.04944e-15
2.18425e-14
5.89493e-15
2.10382e-14
5.75166e-15
2.02507e-14
5.61801e-15
1.94791e-14
5.49264e-15
1.87228e-14
5.37443e-15
1.79811e-14
5.26245e-15
1.72536e-14
5.15595e-15
1.65397e-14
5.05429e-15
1.58389e-14
4.95698e-15
1.51509e-14
4.86361e-15
1.44753e-14
4.77384e-15
1.38117e-14
4.68743e-15
1.31597e-14
4.60417e-15
1.25189e-14
4.52391e-15
1.18891e-14
4.44654e-15
1.12698e-14
4.37199e-15
1.06608e-14
4.30022e-15
1.00616e-14
4.23119e-15
9.47187e-15
4.16492e-15
8.8913e-15
4.10141e-15
8.31947e-15
4.04069e-15
7.75599e-15
3.98281e-15
7.20047e-15
3.9278e-15
6.65248e-15
3.87572e-15
6.1116e-15
3.82662e-15
5.57738e-15
3.78054e-15
5.04939e-15
3.73755e-15
4.52714e-15
3.69768e-15
4.01015e-15
3.66096e-15
3.49794e-15
3.62742e-15
2.98997e-15
3.59707e-15
2.48571e-15
3.5699e-15
1.98461e-15
3.54587e-15
1.48613e-15
3.52501e-15
9.89863e-16
3.50759e-15
4.94614e-16
3.49404e-15
3.48794e-15
-1.93046e-08
1.57114e-07
-3.69152e-08
1.49304e-07
-4.64698e-08
1.38018e-07
-6.86886e-08
1.29048e-07
-6.64718e-08
8.60091e-08
-7.59401e-08
2.68315e-08
-5.87797e-08
-9.16952e-09
-3.64958e-08
-8.02013e-08
-6.9134e-09
-1.04813e-07
5.58714e-09
-1.14701e-07
2.00593e-08
-1.18832e-07
3.92845e-08
-1.12136e-07
5.32415e-08
-8.76553e-08
6.25947e-08
-5.10576e-08
5.41557e-08
-1.66794e-08
4.33903e-08
1.63314e-08
2.59684e-08
2.1992e-08
1.14206e-08
1.77782e-09
1.3269e-12
-3.17693e-08
5.63937e-14
4.89214e-14
5.55691e-14
4.35851e-14
5.42283e-14
3.86244e-14
5.2575e-14
3.41863e-14
5.07754e-14
3.03159e-14
4.89377e-14
2.69853e-14
4.71249e-14
2.41346e-14
4.53707e-14
2.16966e-14
4.36913e-14
1.96085e-14
4.20928e-14
1.78162e-14
4.05754e-14
1.62739e-14
3.9136e-14
1.49439e-14
3.77694e-14
1.37947e-14
3.64697e-14
1.27999e-14
3.52308e-14
1.19374e-14
3.40465e-14
1.11882e-14
3.29112e-14
1.05362e-14
3.18195e-14
9.96734e-15
3.07668e-14
9.46969e-15
2.97491e-14
9.03284e-15
2.87628e-14
8.64784e-15
2.78049e-14
8.30696e-15
2.68728e-14
8.00361e-15
2.59644e-14
7.73212e-15
2.50779e-14
7.48767e-15
2.42117e-14
7.26614e-15
2.33646e-14
7.06408e-15
2.25355e-14
6.87855e-15
2.17234e-14
6.7071e-15
2.09275e-14
6.54765e-15
2.01472e-14
6.39849e-15
1.93819e-14
6.25819e-15
1.86311e-14
6.12557e-15
1.78942e-14
5.99963e-15
1.7171e-14
5.87959e-15
1.64609e-14
5.76478e-15
1.57636e-14
5.65468e-15
1.50788e-14
5.54886e-15
1.44062e-14
5.44698e-15
1.37453e-14
5.34877e-15
1.3096e-14
5.25403e-15
1.24578e-14
5.16262e-15
1.18305e-14
5.07442e-15
1.12137e-14
4.98936e-15
1.0607e-14
4.90741e-15
1.00103e-14
4.82855e-15
9.42305e-15
4.75279e-15
8.84495e-15
4.68016e-15
8.27563e-15
4.61069e-15
7.7147e-15
4.54444e-15
7.16177e-15
4.48146e-15
6.61642e-15
4.42182e-15
6.07823e-15
4.36559e-15
5.54674e-15
4.31284e-15
5.02151e-15
4.26361e-15
4.50206e-15
4.21799e-15
3.9879e-15
4.17601e-15
3.47852e-15
4.13771e-15
2.97338e-15
4.10314e-15
2.47192e-15
4.0723e-15
1.97355e-15
4.0452e-15
1.4778e-15
4.02181e-15
9.84102e-16
4.00217e-15
4.92321e-16
3.98676e-15
3.98075e-15
-2.68079e-08
1.83919e-07
-5.03575e-08
1.72849e-07
-5.72226e-08
1.44878e-07
-6.00713e-08
1.31892e-07
-4.939e-08
7.53237e-08
-5.30837e-08
3.05209e-08
-2.54854e-08
-3.67725e-08
-2.01757e-08
-8.55156e-08
5.94435e-09
-1.30938e-07
3.11979e-08
-1.3996e-07
5.35923e-08
-1.41231e-07
5.93018e-08
-1.1785e-07
6.04342e-08
-8.87922e-08
6.63047e-08
-5.69328e-08
5.50824e-08
-5.4618e-09
4.00649e-08
3.13442e-08
2.31527e-08
3.88999e-08
8.9404e-09
1.59869e-08
1.65995e-12
-2.28331e-08
5.17688e-14
4.89466e-14
5.12614e-14
4.40908e-14
5.03702e-14
3.95107e-14
4.92083e-14
3.53436e-14
4.78775e-14
3.16422e-14
4.64572e-14
2.8401e-14
4.50037e-14
2.55835e-14
4.35544e-14
2.31414e-14
4.21328e-14
2.10259e-14
4.07524e-14
1.91925e-14
3.94202e-14
1.76024e-14
3.81385e-14
1.62222e-14
3.69067e-14
1.50233e-14
3.57225e-14
1.39813e-14
3.45825e-14
1.30748e-14
3.3483e-14
1.22854e-14
3.24203e-14
1.15969e-14
3.13907e-14
1.09951e-14
3.03911e-14
1.04678e-14
2.94186e-14
1.0004e-14
2.84708e-14
9.59449e-15
2.75457e-14
9.23118e-15
2.66414e-14
8.9071e-15
2.57566e-14
8.61629e-15
2.48902e-14
8.35369e-15
2.4041e-14
8.11499e-15
2.32083e-14
7.89655e-15
2.23915e-14
7.69531e-15
2.15899e-14
7.50871e-15
2.08031e-14
7.33459e-15
2.00306e-14
7.17117e-15
1.9272e-14
7.01698e-15
1.85271e-14
6.8708e-15
1.77954e-14
6.73161e-15
1.70768e-14
6.59861e-15
1.63708e-14
6.47111e-15
1.56774e-14
6.34859e-15
1.49961e-14
6.23062e-15
1.43267e-14
6.11685e-15
1.36689e-14
6.00703e-15
1.30225e-14
5.90095e-15
1.23871e-14
5.79847e-15
1.17626e-14
5.6995e-15
1.11486e-14
5.60397e-15
1.05447e-14
5.51185e-15
9.95069e-15
5.42315e-15
9.36621e-15
5.33789e-15
8.79092e-15
5.25609e-15
8.22445e-15
5.17783e-15
7.66642e-15
5.10316e-15
7.11644e-15
5.03216e-15
6.57411e-15
4.96491e-15
6.03898e-15
4.90149e-15
5.51063e-15
4.84199e-15
4.98858e-15
4.78648e-15
4.47236e-15
4.73506e-15
3.96146e-15
4.68777e-15
3.45538e-15
4.64469e-15
2.95356e-15
4.60587e-15
2.45542e-15
4.57135e-15
1.96035e-15
4.54116e-15
1.46787e-15
4.51526e-15
9.77465e-16
4.49351e-15
4.89137e-16
4.47602e-15
4.47038e-15
-9.69137e-09
1.93608e-07
-2.63129e-08
1.89467e-07
-3.88215e-08
1.57381e-07
-2.98814e-08
1.22946e-07
-2.63189e-08
7.17565e-08
-2.25638e-08
2.67611e-08
-3.60242e-09
-5.57389e-08
4.2423e-09
-9.33653e-08
3.07405e-08
-1.57441e-07
4.78619e-08
-1.57086e-07
5.67185e-08
-1.50092e-07
6.05441e-08
-1.21681e-07
6.32254e-08
-9.14783e-08
5.6333e-08
-5.00452e-08
3.6005e-08
1.48617e-08
3.09014e-08
3.64433e-08
2.37499e-08
4.60467e-08
9.17773e-09
3.05552e-08
1.48823e-12
-1.36583e-08
4.75684e-14
4.89879e-14
4.72908e-14
4.43666e-14
4.67526e-14
4.00427e-14
4.5992e-14
3.60982e-14
4.50594e-14
3.25692e-14
4.40065e-14
2.94486e-14
4.28793e-14
2.67057e-14
4.17141e-14
2.43017e-14
4.05382e-14
2.21973e-14
3.93698e-14
2.03565e-14
3.82206e-14
1.87475e-14
3.70972e-14
1.73419e-14
3.60022e-14
1.61148e-14
3.49364e-14
1.50441e-14
3.38986e-14
1.41099e-14
3.28871e-14
1.32944e-14
3.19001e-14
1.25818e-14
3.09355e-14
1.19579e-14
2.99914e-14
1.14102e-14
2.90663e-14
1.09277e-14
2.81589e-14
1.05007e-14
2.7268e-14
1.0121e-14
2.63928e-14
9.78143e-15
2.55327e-14
9.47574e-15
2.46871e-14
9.19876e-15
2.38557e-14
8.94606e-15
2.30381e-14
8.71392e-15
2.22341e-14
8.49921e-15
2.14434e-14
8.29933e-15
2.0666e-14
8.1121e-15
1.99016e-14
7.93572e-15
1.91501e-14
7.76871e-15
1.84113e-14
7.60984e-15
1.76852e-14
7.45813e-15
1.69714e-14
7.31274e-15
1.62699e-14
7.17303e-15
1.55804e-14
7.03847e-15
1.49028e-14
6.90864e-15
1.42369e-14
6.78322e-15
1.35825e-14
6.66195e-15
1.29393e-14
6.54466e-15
1.2307e-14
6.43121e-15
1.16855e-14
6.32152e-15
1.10745e-14
6.21554e-15
1.04737e-14
6.11327e-15
9.88273e-15
6.0147e-15
9.30133e-15
5.91989e-15
8.72917e-15
5.82889e-15
8.16588e-15
5.74178e-15
7.6111e-15
5.65862e-15
7.06443e-15
5.57953e-15
6.52549e-15
5.50459e-15
5.99382e-15
5.43391e-15
5.469e-15
5.36759e-15
4.95055e-15
5.30574e-15
4.43799e-15
5.24845e-15
3.93082e-15
5.19581e-15
3.4285e-15
5.1479e-15
2.93048e-15
5.10479e-15
2.4362e-15
5.06656e-15
1.94504e-15
5.03323e-15
1.45648e-15
5.00477e-15
9.69968e-16
4.98098e-15
4.84973e-16
4.96194e-15
4.95585e-15
-1.53077e-08
2.08912e-07
-1.93685e-08
1.93522e-07
-2.8433e-08
1.66441e-07
-1.84966e-08
1.13006e-07
-1.63458e-08
6.96005e-08
7.33759e-09
3.0728e-09
1.3947e-08
-6.23533e-08
3.84967e-08
-1.17921e-07
4.96602e-08
-1.68609e-07
6.15695e-08
-1.69e-07
6.6444e-08
-1.54971e-07
6.12642e-08
-1.16506e-07
5.84517e-08
-8.86708e-08
4.01477e-08
-3.1746e-08
2.796e-08
2.70453e-08
1.37251e-08
5.0675e-08
3.24343e-09
5.65241e-08
6.21916e-10
3.31707e-08
3.56999e-13
-1.30405e-08
4.35751e-14
4.87628e-14
4.35462e-14
4.43931e-14
4.33312e-14
4.02526e-14
4.29275e-14
3.64957e-14
4.23473e-14
3.31433e-14
4.16214e-14
3.01686e-14
4.0788e-14
2.75335e-14
3.98833e-14
2.5201e-14
3.89367e-14
2.31387e-14
3.79701e-14
2.13183e-14
3.69983e-14
1.97148e-14
3.60306e-14
1.83056e-14
3.50721e-14
1.70696e-14
3.41253e-14
1.59875e-14
3.31912e-14
1.5041e-14
3.22696e-14
1.42133e-14
3.13601e-14
1.3489e-14
3.0462e-14
1.28539e-14
2.95749e-14
1.22955e-14
2.86984e-14
1.18027e-14
2.78322e-14
1.13656e-14
2.69764e-14
1.09758e-14
2.61309e-14
1.0626e-14
2.52959e-14
1.031e-14
2.44716e-14
1.00225e-14
2.36582e-14
9.75905e-15
2.28559e-14
9.51594e-15
2.20649e-14
9.29004e-15
2.12853e-14
9.07878e-15
2.05175e-14
8.88002e-15
1.97613e-14
8.69198e-15
1.9017e-14
8.51322e-15
1.82845e-14
8.34256e-15
1.7564e-14
8.17902e-15
1.68552e-14
8.02184e-15
1.61582e-14
7.87038e-15
1.5473e-14
7.72414e-15
1.47993e-14
7.58275e-15
1.41371e-14
7.44589e-15
1.34862e-14
7.31335e-15
1.28464e-14
7.18496e-15
1.22175e-14
7.06061e-15
1.15993e-14
6.94024e-15
1.09916e-14
6.82383e-15
1.0394e-14
6.71138e-15
9.8064e-15
6.60292e-15
9.22838e-15
6.49852e-15
8.65964e-15
6.39825e-15
8.09986e-15
6.30221e-15
7.54867e-15
6.21049e-15
7.00568e-15
6.12321e-15
6.47049e-15
6.0405e-15
5.94268e-15
5.96247e-15
5.4218e-15
5.88924e-15
4.90738e-15
5.82096e-15
4.39893e-15
5.75772e-15
3.89593e-15
5.69965e-15
3.39785e-15
5.64684e-15
2.90414e-15
5.5994e-15
2.41421e-15
5.55739e-15
1.92748e-15
5.52087e-15
1.44339e-15
5.48981e-15
9.6129e-16
5.46404e-15
4.80329e-16
5.44383e-15
5.43666e-15
-1.22678e-08
2.21177e-07
-1.17398e-08
1.92987e-07
-1.49893e-08
1.69687e-07
-6.6503e-09
1.04663e-07
1.34779e-08
4.94673e-08
4.99947e-08
-3.34489e-08
6.93477e-08
-8.17113e-08
7.82595e-08
-1.26837e-07
7.68423e-08
-1.67197e-07
7.29353e-08
-1.65099e-07
6.80328e-08
-1.50074e-07
5.10803e-08
-9.95577e-08
3.22312e-08
-6.98266e-08
1.89376e-08
-1.84572e-08
1.9897e-08
2.60813e-08
2.32269e-08
4.73422e-08
2.03034e-08
5.94447e-08
7.18224e-09
4.62861e-08
1.81313e-12
-5.86678e-09
3.98026e-14
4.87818e-14
3.99621e-14
4.42301e-14
4.00739e-14
4.0134e-14
4.00173e-14
3.65452e-14
3.97625e-14
3.33914e-14
3.933e-14
3.05946e-14
3.87588e-14
2.80983e-14
3.80886e-14
2.58651e-14
3.73524e-14
2.38691e-14
3.65746e-14
2.20907e-14
3.57721e-14
2.05124e-14
3.49555e-14
1.91176e-14
3.41313e-14
1.78898e-14
3.3303e-14
1.68122e-14
3.24726e-14
1.58682e-14
3.16413e-14
1.50418e-14
3.08098e-14
1.4318e-14
2.99787e-14
1.36828e-14
2.91489e-14
1.31234e-14
2.83211e-14
1.26288e-14
2.74963e-14
1.2189e-14
2.66755e-14
1.17955e-14
2.58596e-14
1.14409e-14
2.50496e-14
1.11192e-14
2.42463e-14
1.08251e-14
2.34508e-14
1.05541e-14
2.26636e-14
1.03028e-14
2.18855e-14
1.0068e-14
2.1117e-14
9.8472e-15
2.03585e-14
9.63844e-15
1.96106e-14
9.44002e-15
1.88734e-14
9.25055e-15
1.81473e-14
9.06894e-15
1.74323e-14
8.89427e-15
1.67287e-14
8.72584e-15
1.60364e-14
8.56307e-15
1.53554e-14
8.40551e-15
1.46858e-14
8.25281e-15
1.40274e-14
8.10472e-15
1.33801e-14
7.96105e-15
1.27439e-14
7.82165e-15
1.21186e-14
7.68646e-15
1.15039e-14
7.55544e-15
1.08997e-14
7.42859e-15
1.03057e-14
7.30594e-15
9.72165e-15
7.18754e-15
9.14729e-15
7.07349e-15
8.58229e-15
6.96387e-15
8.02633e-15
6.85881e-15
7.47906e-15
6.75842e-15
6.9401e-15
6.66286e-15
6.40905e-15
6.57226e-15
5.88548e-15
6.48676e-15
5.36896e-15
6.40653e-15
4.85899e-15
6.3317e-15
4.35509e-15
6.26242e-15
3.85674e-15
6.19882e-15
3.36339e-15
6.14104e-15
2.87448e-15
6.08918e-15
2.38941e-15
6.04335e-15
1.90757e-15
6.00361e-15
1.42835e-15
5.96994e-15
9.51189e-16
5.94215e-15
4.75583e-16
5.92037e-15
5.9127e-15
-5.14852e-09
2.26322e-07
-1.23258e-09
1.89067e-07
4.96687e-09
1.63483e-07
-3.49462e-09
1.1312e-07
3.25628e-08
1.34052e-08
4.74607e-08
-4.83516e-08
6.84676e-08
-1.02723e-07
8.31355e-08
-1.4151e-07
7.9477e-08
-1.63543e-07
7.45564e-08
-1.60183e-07
5.50173e-08
-1.30539e-07
3.9024e-08
-8.35687e-08
2.28812e-08
-5.36878e-08
3.01364e-09
1.40627e-09
-3.99564e-09
3.30856e-08
-1.46947e-08
5.80351e-08
-1.44661e-08
5.92122e-08
-3.54635e-09
3.53641e-08
1.99122e-12
-9.41783e-09
3.58685e-14
4.87595e-14
3.64148e-14
4.36803e-14
3.69616e-14
3.95793e-14
3.7279e-14
3.62199e-14
3.73316e-14
3.33312e-14
3.71586e-14
3.07604e-14
3.6815e-14
2.84348e-14
3.63507e-14
2.63226e-14
3.58036e-14
2.44098e-14
3.52003e-14
2.2688e-14
3.45578e-14
2.11493e-14
3.38868e-14
1.97835e-14
3.31937e-14
1.85784e-14
3.24821e-14
1.75197e-14
3.17546e-14
1.65922e-14
3.10128e-14
1.57805e-14
3.02587e-14
1.50694e-14
2.94941e-14
1.44451e-14
2.87208e-14
1.38947e-14
2.7941e-14
1.34069e-14
2.71568e-14
1.29718e-14
2.63701e-14
1.25809e-14
2.55829e-14
1.2227e-14
2.47971e-14
1.19042e-14
2.40143e-14
1.16072e-14
2.32359e-14
1.1332e-14
2.24633e-14
1.1075e-14
2.16976e-14
1.08334e-14
2.09397e-14
1.0605e-14
2.01904e-14
1.03877e-14
1.94504e-14
1.01801e-14
1.87202e-14
9.98089e-15
1.80002e-14
9.78912e-15
1.72908e-14
9.60396e-15
1.65922e-14
9.42479e-15
1.59045e-14
9.25111e-15
1.52278e-14
9.08253e-15
1.45623e-14
8.91877e-15
1.39079e-14
8.75962e-15
1.32644e-14
8.60493e-15
1.2632e-14
8.45461e-15
1.20103e-14
8.30861e-15
1.13994e-14
8.16694e-15
1.07989e-14
8.02962e-15
1.02086e-14
7.89672e-15
9.62843e-15
7.76831e-15
9.05799e-15
7.64452e-15
8.49702e-15
7.52545e-15
7.9452e-15
7.41126e-15
7.40219e-15
7.30209e-15
6.8676e-15
7.19811e-15
6.34106e-15
7.0995e-15
5.82213e-15
7.00641e-15
5.31037e-15
6.91904e-15
4.8053e-15
6.83754e-15
4.30642e-15
6.76209e-15
3.81319e-15
6.69286e-15
3.32506e-15
6.62998e-15
2.84146e-15
6.57362e-15
2.36178e-15
6.52389e-15
1.88538e-15
6.48089e-15
1.41161e-15
6.44459e-15
9.40001e-16
6.41467e-15
4.70174e-16
6.3911e-15
6.38332e-15
-1.29016e-09
2.2761e-07
-6.9644e-10
1.88469e-07
1.45464e-08
1.48235e-07
1.51719e-08
1.12491e-07
4.99386e-08
-2.13657e-08
7.15347e-08
-6.99522e-08
9.24847e-08
-1.23678e-07
1.02336e-07
-1.51366e-07
9.24484e-08
-1.5366e-07
6.79433e-08
-1.35683e-07
3.90329e-08
-1.01633e-07
2.08195e-08
-6.53599e-08
8.11372e-10
-3.36837e-08
-1.39746e-08
1.61893e-08
-2.29065e-08
4.20137e-08
-2.65088e-08
6.16313e-08
-2.15355e-08
5.42331e-08
-1.18618e-08
2.56851e-08
2.0939e-12
-2.12865e-08
3.1468e-14
4.85778e-14
3.28588e-14
4.22857e-14
3.40463e-14
3.83832e-14
3.47694e-14
3.54879e-14
3.50956e-14
3.29966e-14
3.51341e-14
3.0714e-14
3.49752e-14
2.85859e-14
3.46839e-14
2.66063e-14
3.43032e-14
2.47833e-14
3.38594e-14
2.31251e-14
3.33678e-14
2.16346e-14
3.28372e-14
2.03086e-14
3.22719e-14
1.91386e-14
3.1675e-14
1.81122e-14
3.10486e-14
1.72148e-14
3.0395e-14
1.64308e-14
2.97167e-14
1.57448e-14
2.90167e-14
1.51426e-14
2.82983e-14
1.4611e-14
2.75646e-14
1.41386e-14
2.68191e-14
1.37157e-14
2.60649e-14
1.33337e-14
2.53049e-14
1.29859e-14
2.45419e-14
1.26663e-14
2.37782e-14
1.23701e-14
2.30159e-14
1.20936e-14
2.22569e-14
1.18335e-14
2.15027e-14
1.15873e-14
2.07548e-14
1.13528e-14
2.0014e-14
1.11283e-14
1.92815e-14
1.09126e-14
1.85579e-14
1.07046e-14
1.78438e-14
1.05034e-14
1.71397e-14
1.03083e-14
1.6446e-14
1.01188e-14
1.57629e-14
9.93458e-15
1.50906e-14
9.75525e-15
1.44291e-14
9.58062e-15
1.37787e-14
9.41054e-15
1.31391e-14
9.24491e-15
1.25105e-14
9.0837e-15
1.18927e-14
8.92691e-15
1.12856e-14
8.77457e-15
1.0689e-14
8.62673e-15
1.01028e-14
8.48351e-15
9.52667e-15
8.345e-15
8.96042e-15
8.21135e-15
8.40375e-15
8.08272e-15
7.85637e-15
7.95926e-15
7.31794e-15
7.84117e-15
6.78808e-15
7.72863e-15
6.26642e-15
7.62185e-15
5.75252e-15
7.52102e-15
5.24595e-15
7.42635e-15
4.7462e-15
7.33803e-15
4.25279e-15
7.25628e-15
3.76517e-15
7.18127e-15
3.28278e-15
7.11318e-15
2.80503e-15
7.0522e-15
2.3313e-15
6.99846e-15
1.86097e-15
6.95208e-15
1.39337e-15
6.91305e-15
9.27853e-16
6.88106e-15
4.63719e-16
6.85611e-15
6.84748e-15
3.3891e-09
2.24218e-07
6.28699e-09
1.85567e-07
2.40059e-08
1.30513e-07
3.25955e-08
1.03898e-07
5.59901e-08
-4.47642e-08
7.35983e-08
-8.75644e-08
8.70608e-08
-1.37145e-07
8.58343e-08
-1.50144e-07
6.85827e-08
-1.36413e-07
3.99239e-08
-1.07028e-07
1.42501e-08
-7.5964e-08
5.18578e-10
-5.16327e-08
-1.45176e-08
-1.86521e-08
-2.74722e-08
2.91395e-08
-3.22276e-08
4.6766e-08
-2.69493e-08
5.63492e-08
-1.88179e-08
4.60964e-08
-1.16559e-08
1.85171e-08
2.16153e-12
-3.29499e-08
2.59967e-14
4.85041e-14
2.94701e-14
3.88081e-14
3.15316e-14
3.63125e-14
3.26026e-14
3.4407e-14
3.31077e-14
3.24824e-14
3.32791e-14
3.05339e-14
3.32487e-14
2.86076e-14
3.30937e-14
2.6753e-14
3.28566e-14
2.50124e-14
3.25593e-14
2.3415e-14
3.22116e-14
2.19754e-14
3.18173e-14
2.06967e-14
3.13776e-14
1.95727e-14
3.08935e-14
1.85915e-14
3.03663e-14
1.77378e-14
2.97984e-14
1.6995e-14
2.91934e-14
1.63468e-14
2.85553e-14
1.5778e-14
2.78887e-14
1.52753e-14
2.71984e-14
1.4827e-14
2.64889e-14
1.44235e-14
2.57646e-14
1.40566e-14
2.50295e-14
1.37198e-14
2.42871e-14
1.34076e-14
2.35407e-14
1.31157e-14
2.27929e-14
1.28407e-14
2.20462e-14
1.25798e-14
2.13024e-14
1.23306e-14
2.05634e-14
1.20916e-14
1.98305e-14
1.18612e-14
1.91048e-14