/*--------------------------------*- C++ -*----------------------------------*\
  =========                 |
  \\      /  F ield         | OpenFOAM: The Open Source CFD Toolbox
   \\    /   O peration     | Website:  https://openfoam.org
    \\  /    A nd           | Version:  6
     \\/     M anipulation  |
\*---------------------------------------------------------------------------*/
FoamFile
{
    version     2.0;
    format      ascii;
    class       volScalarField;
    location    "630";
    object      S_d;
}
// * * * * * * * * * * * * * * * * * * * * * * * * * * * * * * * * * * * * * //

dimensions      [1 -3 -1 0 0 0 0];

internalField   nonuniform List<scalar> 
5964
(
-0
-0
-0
-0
-0
-0
-0
-0
-0
-0
-0
-0
-0
-0
-0
-0
-0
-0
-7.99405e+11
-7.99428e+11
-7.99431e+11
-7.9943e+11
-7.99432e+11
-7.99439e+11
-7.99448e+11
-7.9946e+11
-7.99473e+11
-7.99487e+11
-7.99501e+11
-7.99516e+11
-7.9953e+11
-7.99544e+11
-7.99558e+11
-7.99571e+11
-7.99584e+11
-7.99596e+11
-7.99608e+11
-7.99619e+11
-7.9963e+11
-7.9964e+11
-7.9965e+11
-7.9966e+11
-7.99669e+11
-7.99678e+11
-7.99687e+11
-7.99696e+11
-7.99704e+11
-7.99713e+11
-7.99721e+11
-7.99729e+11
-7.99737e+11
-7.99746e+11
-7.99754e+11
-7.99762e+11
-7.9977e+11
-7.99777e+11
-7.99785e+11
-7.99793e+11
-7.99801e+11
-7.99809e+11
-7.99817e+11
-7.99825e+11
-7.99833e+11
-7.99841e+11
-7.99849e+11
-7.99857e+11
-7.99865e+11
-7.99874e+11
-7.99882e+11
-7.9989e+11
-7.99898e+11
-7.99906e+11
-7.99915e+11
-7.99923e+11
-7.99931e+11
-7.9994e+11
-7.99948e+11
-7.99956e+11
-7.99965e+11
-7.99973e+11
-7.99982e+11
-7.9999e+11
-7.99996e+11
-8e+11
-0
-0
-0
-0
-0
-0
-0
-0
-0
-0
-0
-0
-0
-0
-0
-0
-0
-0
-7.99454e+11
-7.99446e+11
-7.99432e+11
-7.99427e+11
-7.99429e+11
-7.99436e+11
-7.99446e+11
-7.99458e+11
-7.99472e+11
-7.99487e+11
-7.99501e+11
-7.99516e+11
-7.99531e+11
-7.99545e+11
-7.99558e+11
-7.99572e+11
-7.99584e+11
-7.99596e+11
-7.99608e+11
-7.99619e+11
-7.9963e+11
-7.9964e+11
-7.9965e+11
-7.9966e+11
-7.99669e+11
-7.99679e+11
-7.99687e+11
-7.99696e+11
-7.99705e+11
-7.99713e+11
-7.99721e+11
-7.99729e+11
-7.99738e+11
-7.99746e+11
-7.99754e+11
-7.99762e+11
-7.9977e+11
-7.99777e+11
-7.99785e+11
-7.99793e+11
-7.99801e+11
-7.99809e+11
-7.99817e+11
-7.99825e+11
-7.99833e+11
-7.99841e+11
-7.99849e+11
-7.99857e+11
-7.99865e+11
-7.99874e+11
-7.99882e+11
-7.9989e+11
-7.99898e+11
-7.99906e+11
-7.99915e+11
-7.99923e+11
-7.99931e+11
-7.9994e+11
-7.99948e+11
-7.99956e+11
-7.99965e+11
-7.99973e+11
-7.99982e+11
-7.9999e+11
-7.99996e+11
-7.99999e+11
-0
-0
-0
-0
-0
-0
-0
-0
-0
-0
-0
-0
-0
-0
-0
-0
-0
-0
-6.17558e+09
-7.99468e+11
-7.99426e+11
-7.99417e+11
-7.9942e+11
-7.9943e+11
-7.99442e+11
-7.99456e+11
-7.99471e+11
-7.99486e+11
-7.99502e+11
-7.99517e+11
-7.99531e+11
-7.99546e+11
-7.99559e+11
-7.99573e+11
-7.99585e+11
-7.99597e+11
-7.99609e+11
-7.9962e+11
-7.99631e+11
-7.99641e+11
-7.99651e+11
-7.99661e+11
-7.9967e+11
-7.99679e+11
-7.99688e+11
-7.99696e+11
-7.99705e+11
-7.99713e+11
-7.99721e+11
-7.9973e+11
-7.99738e+11
-7.99746e+11
-7.99754e+11
-7.99762e+11
-7.9977e+11
-7.99777e+11
-7.99785e+11
-7.99793e+11
-7.99801e+11
-7.99809e+11
-7.99817e+11
-7.99825e+11
-7.99833e+11
-7.99841e+11
-7.99849e+11
-7.99857e+11
-7.99865e+11
-7.99874e+11
-7.99882e+11
-7.9989e+11
-7.99898e+11
-7.99906e+11
-7.99915e+11
-7.99923e+11
-7.99931e+11
-7.99939e+11
-7.99948e+11
-7.99956e+11
-7.99965e+11
-7.99973e+11
-7.99982e+11
-7.9999e+11
-7.99996e+11
-7.99999e+11
-0
-0
-0
-0
-0
-0
-0
-0
-0
-0
-0
-0
-0
-0
-0
-0
-0
-0
-1.4247e+06
-7.99394e+11
-7.9939e+11
-7.99395e+11
-7.99406e+11
-7.99421e+11
-7.99436e+11
-7.99453e+11
-7.99469e+11
-7.99486e+11
-7.99502e+11
-7.99517e+11
-7.99532e+11
-7.99547e+11
-7.99561e+11
-7.99574e+11
-7.99587e+11
-7.99599e+11
-7.9961e+11
-7.99621e+11
-7.99632e+11
-7.99642e+11
-7.99652e+11
-7.99661e+11
-7.99671e+11
-7.99679e+11
-7.99688e+11
-7.99697e+11
-7.99705e+11
-7.99713e+11
-7.99722e+11
-7.9973e+11
-7.99738e+11
-7.99746e+11
-7.99754e+11
-7.99762e+11
-7.9977e+11
-7.99777e+11
-7.99785e+11
-7.99793e+11
-7.99801e+11
-7.99809e+11
-7.99817e+11
-7.99825e+11
-7.99833e+11
-7.99841e+11
-7.99849e+11
-7.99857e+11
-7.99865e+11
-7.99873e+11
-7.99882e+11
-7.9989e+11
-7.99898e+11
-7.99906e+11
-7.99914e+11
-7.99923e+11
-7.99931e+11
-7.99939e+11
-7.99948e+11
-7.99956e+11
-7.99965e+11
-7.99973e+11
-7.99982e+11
-7.9999e+11
-7.99996e+11
-8e+11
-0
-0
-0
-0
-0
-0
-0
-0
-0
-0
-0
-0
-0
-0
-0
-0
-0
-0
-0
-7.99317e+11
-7.99345e+11
-7.99368e+11
-7.99389e+11
-7.9941e+11
-7.9943e+11
-7.99449e+11
-7.99468e+11
-7.99486e+11
-7.99503e+11
-7.99519e+11
-7.99534e+11
-7.99549e+11
-7.99563e+11
-7.99576e+11
-7.99588e+11
-7.996e+11
-7.99612e+11
-7.99623e+11
-7.99633e+11
-7.99643e+11
-7.99653e+11
-7.99662e+11
-7.99671e+11
-7.9968e+11
-7.99689e+11
-7.99697e+11
-7.99706e+11
-7.99714e+11
-7.99722e+11
-7.9973e+11
-7.99738e+11
-7.99746e+11
-7.99754e+11
-7.99762e+11
-7.9977e+11
-7.99778e+11
-7.99785e+11
-7.99793e+11
-7.99801e+11
-7.99809e+11
-7.99817e+11
-7.99825e+11
-7.99833e+11
-7.99841e+11
-7.99849e+11
-7.99857e+11
-7.99865e+11
-7.99873e+11
-7.99882e+11
-7.9989e+11
-7.99898e+11
-7.99906e+11
-7.99914e+11
-7.99923e+11
-7.99931e+11
-7.99939e+11
-7.99948e+11
-7.99956e+11
-7.99965e+11
-7.99973e+11
-7.99982e+11
-7.9999e+11
-7.99996e+11
-8e+11
-0
-0
-0
-0
-0
-0
-0
-0
-0
-0
-0
-0
-0
-0
-0
-0
-0
-0
-0
-7.99255e+11
-7.99304e+11
-7.99341e+11
-7.99372e+11
-7.994e+11
-7.99424e+11
-7.99446e+11
-7.99467e+11
-7.99486e+11
-7.99504e+11
-7.99521e+11
-7.99537e+11
-7.99551e+11
-7.99565e+11
-7.99578e+11
-7.99591e+11
-7.99603e+11
-7.99614e+11
-7.99625e+11
-7.99635e+11
-7.99645e+11
-7.99654e+11
-7.99664e+11
-7.99672e+11
-7.99681e+11
-7.9969e+11
-7.99698e+11
-7.99706e+11
-7.99714e+11
-7.99722e+11
-7.9973e+11
-7.99738e+11
-7.99746e+11
-7.99754e+11
-7.99762e+11
-7.9977e+11
-7.99778e+11
-7.99785e+11
-7.99793e+11
-7.99801e+11
-7.99809e+11
-7.99817e+11
-7.99825e+11
-7.99833e+11
-7.99841e+11
-7.99849e+11
-7.99857e+11
-7.99865e+11
-7.99873e+11
-7.99881e+11
-7.9989e+11
-7.99898e+11
-7.99906e+11
-7.99914e+11
-7.99923e+11
-7.99931e+11
-7.99939e+11
-7.99948e+11
-7.99956e+11
-7.99965e+11
-7.99973e+11
-7.99982e+11
-7.9999e+11
-7.99999e+11
-8e+11
-0
-0
-0
-0
-0
-0
-0
-0
-0
-0
-0
-0
-0
-0
-0
-0
-0
-0
-0
-7.99211e+11
-7.99271e+11
-7.99319e+11
-7.99358e+11
-7.99391e+11
-7.9942e+11
-7.99445e+11
-7.99468e+11
-7.99488e+11
-7.99507e+11
-7.99524e+11
-7.9954e+11
-7.99555e+11
-7.99568e+11
-7.99582e+11
-7.99594e+11
-7.99605e+11
-7.99616e+11
-7.99627e+11
-7.99637e+11
-7.99647e+11
-7.99656e+11
-7.99665e+11
-7.99674e+11
-7.99682e+11
-7.99691e+11
-7.99699e+11
-7.99707e+11
-7.99715e+11
-7.99723e+11
-7.99731e+11
-7.99738e+11
-7.99746e+11
-7.99754e+11
-7.99762e+11
-7.9977e+11
-7.99778e+11
-7.99785e+11
-7.99793e+11
-7.99801e+11
-7.99809e+11
-7.99817e+11
-7.99825e+11
-7.99833e+11
-7.99841e+11
-7.99849e+11
-7.99857e+11
-7.99865e+11
-7.99873e+11
-7.99881e+11
-7.9989e+11
-7.99898e+11
-7.99906e+11
-7.99914e+11
-7.99922e+11
-7.99931e+11
-7.99939e+11
-7.99947e+11
-7.99956e+11
-7.99964e+11
-7.99973e+11
-7.99981e+11
-7.99989e+11
-7.99996e+11
-8e+11
-0
-0
-0
-0
-0
-0
-0
-0
-0
-0
-0
-0
-0
-0
-0
-0
-0
-0
-0
-7.99181e+11
-7.99249e+11
-7.99304e+11
-7.99349e+11
-7.99386e+11
-7.99418e+11
-7.99446e+11
-7.9947e+11
-7.99491e+11
-7.9951e+11
-7.99528e+11
-7.99544e+11
-7.99559e+11
-7.99572e+11
-7.99585e+11
-7.99597e+11
-7.99609e+11
-7.99619e+11
-7.9963e+11
-7.99639e+11
-7.99649e+11
-7.99658e+11
-7.99667e+11
-7.99675e+11
-7.99683e+11
-7.99692e+11
-7.997e+11
-7.99708e+11
-7.99715e+11
-7.99723e+11
-7.99731e+11
-7.99739e+11
-7.99746e+11
-7.99754e+11
-7.99762e+11
-7.9977e+11
-7.99777e+11
-7.99785e+11
-7.99793e+11
-7.99801e+11
-7.99809e+11
-7.99817e+11
-7.99825e+11
-7.99833e+11
-7.99841e+11
-7.99849e+11
-7.99857e+11
-7.99865e+11
-7.99873e+11
-7.99881e+11
-7.99889e+11
-7.99898e+11
-7.99906e+11
-7.99914e+11
-7.99922e+11
-7.99931e+11
-7.99939e+11
-7.99947e+11
-7.99956e+11
-7.99964e+11
-7.99973e+11
-7.99981e+11
-7.99989e+11
-7.99997e+11
-8e+11
-0
-0
-0
-0
-0
-0
-0
-0
-0
-0
-0
-0
-0
-0
-0
-0
-0
-0
-0
-7.99165e+11
-7.99237e+11
-7.99297e+11
-7.99345e+11
-7.99386e+11
-7.9942e+11
-7.99449e+11
-7.99474e+11
-7.99496e+11
-7.99516e+11
-7.99533e+11
-7.99549e+11
-7.99564e+11
-7.99577e+11
-7.9959e+11
-7.99601e+11
-7.99612e+11
-7.99623e+11
-7.99633e+11
-7.99642e+11
-7.99651e+11
-7.9966e+11
-7.99668e+11
-7.99677e+11
-7.99685e+11
-7.99693e+11
-7.99701e+11
-7.99708e+11
-7.99716e+11
-7.99724e+11
-7.99731e+11
-7.99739e+11
-7.99747e+11
-7.99754e+11
-7.99762e+11
-7.9977e+11
-7.99777e+11
-7.99785e+11
-7.99793e+11
-7.99801e+11
-7.99809e+11
-7.99817e+11
-7.99825e+11
-7.99833e+11
-7.99841e+11
-7.99849e+11
-7.99857e+11
-7.99865e+11
-7.99873e+11
-7.99881e+11
-7.99889e+11
-7.99897e+11
-7.99906e+11
-7.99914e+11
-7.99922e+11
-7.99931e+11
-7.99939e+11
-7.99947e+11
-7.99956e+11
-7.99964e+11
-7.99972e+11
-7.99981e+11
-7.9999e+11
-7.99998e+11
-8e+11
-0
-0
-0
-0
-0
-0
-0
-0
-0
-0
-0
-0
-0
-0
-0
-0
-0
-0
-0
-7.99161e+11
-7.99236e+11
-7.99298e+11
-7.99349e+11
-7.99391e+11
-7.99426e+11
-7.99456e+11
-7.99481e+11
-7.99503e+11
-7.99523e+11
-7.9954e+11
-7.99555e+11
-7.9957e+11
-7.99583e+11
-7.99595e+11
-7.99606e+11
-7.99617e+11
-7.99627e+11
-7.99636e+11
-7.99645e+11
-7.99654e+11
-7.99662e+11
-7.9967e+11
-7.99678e+11
-7.99686e+11
-7.99694e+11
-7.99702e+11
-7.99709e+11
-7.99717e+11
-7.99724e+11
-7.99732e+11
-7.99739e+11
-7.99747e+11
-7.99754e+11
-7.99762e+11
-7.9977e+11
-7.99777e+11
-7.99785e+11
-7.99793e+11
-7.99801e+11
-7.99809e+11
-7.99816e+11
-7.99824e+11
-7.99832e+11
-7.9984e+11
-7.99848e+11
-7.99857e+11
-7.99865e+11
-7.99873e+11
-7.99881e+11
-7.99889e+11
-7.99897e+11
-7.99906e+11
-7.99914e+11
-7.99922e+11
-7.9993e+11
-7.99939e+11
-7.99947e+11
-7.99955e+11
-7.99964e+11
-7.99972e+11
-7.99981e+11
-7.9999e+11
-8e+11
-8e+11
-0
-0
-0
-0
-0
-0
-0
-0
-0
-0
-0
-0
-0
-0
-0
-0
-0
-0
-0
-7.9917e+11
-7.99246e+11
-7.99309e+11
-7.9936e+11
-7.99402e+11
-7.99437e+11
-7.99466e+11
-7.99491e+11
-7.99513e+11
-7.99531e+11
-7.99548e+11
-7.99563e+11
-7.99577e+11
-7.99589e+11
-7.99601e+11
-7.99611e+11
-7.99621e+11
-7.99631e+11
-7.9964e+11
-7.99648e+11
-7.99657e+11
-7.99665e+11
-7.99673e+11
-7.9968e+11
-7.99688e+11
-7.99695e+11
-7.99703e+11
-7.9971e+11
-7.99717e+11
-7.99725e+11
-7.99732e+11
-7.99739e+11
-7.99747e+11
-7.99754e+11
-7.99762e+11
-7.9977e+11
-7.99777e+11
-7.99785e+11
-7.99793e+11
-7.99801e+11
-7.99808e+11
-7.99816e+11
-7.99824e+11
-7.99832e+11
-7.9984e+11
-7.99848e+11
-7.99856e+11
-7.99864e+11
-7.99873e+11
-7.99881e+11
-7.99889e+11
-7.99897e+11
-7.99905e+11
-7.99914e+11
-7.99922e+11
-7.9993e+11
-7.99939e+11
-7.99947e+11
-7.99955e+11
-7.99964e+11
-7.99972e+11
-7.99981e+11
-7.9999e+11
-7.99999e+11
-8e+11
-0
-0
-0
-0
-0
-0
-0
-0
-0
-0
-0
-0
-0
-0
-0
-0
-0
-0
-0
-7.99192e+11
-7.99268e+11
-7.99329e+11
-7.99379e+11
-7.99419e+11
-7.99453e+11
-7.9948e+11
-7.99504e+11
-7.99524e+11
-7.99542e+11
-7.99557e+11
-7.99572e+11
-7.99584e+11
-7.99596e+11
-7.99607e+11
-7.99617e+11
-7.99626e+11
-7.99635e+11
-7.99644e+11
-7.99652e+11
-7.9966e+11
-7.99667e+11
-7.99675e+11
-7.99682e+11
-7.99689e+11
-7.99696e+11
-7.99704e+11
-7.99711e+11
-7.99718e+11
-7.99725e+11
-7.99732e+11
-7.9974e+11
-7.99747e+11
-7.99754e+11
-7.99762e+11
-7.99769e+11
-7.99777e+11
-7.99785e+11
-7.99792e+11
-7.998e+11
-7.99808e+11
-7.99816e+11
-7.99824e+11
-7.99832e+11
-7.9984e+11
-7.99848e+11
-7.99856e+11
-7.99864e+11
-7.99872e+11
-7.99881e+11
-7.99889e+11
-7.99897e+11
-7.99905e+11
-7.99913e+11
-7.99922e+11
-7.9993e+11
-7.99938e+11
-7.99947e+11
-7.99955e+11
-7.99963e+11
-7.99972e+11
-7.9998e+11
-7.99989e+11
-7.99998e+11
-8e+11
-0
-0
-0
-0
-0
-0
-0
-0
-0
-0
-0
-0
-0
-0
-0
-0
-0
-0
-0
-7.99227e+11
-7.99301e+11
-7.9936e+11
-7.99406e+11
-7.99443e+11
-7.99473e+11
-7.99498e+11
-7.99519e+11
-7.99538e+11
-7.99554e+11
-7.99568e+11
-7.99581e+11
-7.99593e+11
-7.99604e+11
-7.99614e+11
-7.99623e+11
-7.99632e+11
-7.9964e+11
-7.99648e+11
-7.99656e+11
-7.99663e+11
-7.9967e+11
-7.99677e+11
-7.99684e+11
-7.99691e+11
-7.99698e+11
-7.99704e+11
-7.99711e+11
-7.99718e+11
-7.99725e+11
-7.99733e+11
-7.9974e+11
-7.99747e+11
-7.99754e+11
-7.99762e+11
-7.99769e+11
-7.99777e+11
-7.99784e+11
-7.99792e+11
-7.998e+11
-7.99808e+11
-7.99816e+11
-7.99824e+11
-7.99832e+11
-7.9984e+11
-7.99848e+11
-7.99856e+11
-7.99864e+11
-7.99872e+11
-7.9988e+11
-7.99888e+11
-7.99897e+11
-7.99905e+11
-7.99913e+11
-7.99922e+11
-7.9993e+11
-7.99938e+11
-7.99947e+11
-7.99955e+11
-7.99963e+11
-7.99972e+11
-7.9998e+11
-7.99989e+11
-7.99999e+11
-8e+11
-0
-0
-0
-0
-0
-0
-0
-0
-0
-0
-0
-0
-0
-0
-0
-0
-0
-0
-0
-7.99278e+11
-7.99348e+11
-7.99401e+11
-7.99441e+11
-7.99473e+11
-7.99498e+11
-7.99519e+11
-7.99537e+11
-7.99553e+11
-7.99567e+11
-7.9958e+11
-7.99592e+11
-7.99602e+11
-7.99612e+11
-7.99621e+11
-7.9963e+11
-7.99638e+11
-7.99645e+11
-7.99652e+11
-7.99659e+11
-7.99666e+11
-7.99673e+11
-7.99679e+11
-7.99686e+11
-7.99692e+11
-7.99699e+11
-7.99705e+11
-7.99712e+11
-7.99719e+11
-7.99726e+11
-7.99733e+11
-7.9974e+11
-7.99747e+11
-7.99754e+11
-7.99761e+11
-7.99769e+11
-7.99776e+11
-7.99784e+11
-7.99792e+11
-7.998e+11
-7.99807e+11
-7.99815e+11
-7.99823e+11
-7.99831e+11
-7.99839e+11
-7.99847e+11
-7.99855e+11
-7.99864e+11
-7.99872e+11
-7.9988e+11
-7.99888e+11
-7.99896e+11
-7.99905e+11
-7.99913e+11
-7.99921e+11
-7.9993e+11
-7.99938e+11
-7.99946e+11
-7.99955e+11
-7.99963e+11
-7.99972e+11
-7.9998e+11
-7.9999e+11
-8e+11
-8e+11
-0
-0
-0
-0
-0
-0
-0
-0
-0
-0
-0
-0
-0
-0
-0
-0
-0
-0
-0
-7.99347e+11
-7.99411e+11
-7.99454e+11
-7.99485e+11
-7.99508e+11
-7.99527e+11
-7.99543e+11
-7.99557e+11
-7.9957e+11
-7.99582e+11
-7.99593e+11
-7.99603e+11
-7.99612e+11
-7.99621e+11
-7.99629e+11
-7.99637e+11
-7.99644e+11
-7.9965e+11
-7.99657e+11
-7.99663e+11
-7.99669e+11
-7.99675e+11
-7.99681e+11
-7.99688e+11
-7.99694e+11
-7.997e+11
-7.99706e+11
-7.99713e+11
-7.99719e+11
-7.99726e+11
-7.99733e+11
-7.9974e+11
-7.99747e+11
-7.99754e+11
-7.99761e+11
-7.99769e+11
-7.99776e+11
-7.99784e+11
-7.99791e+11
-7.99799e+11
-7.99807e+11
-7.99815e+11
-7.99823e+11
-7.99831e+11
-7.99839e+11
-7.99847e+11
-7.99855e+11
-7.99863e+11
-7.99871e+11
-7.9988e+11
-7.99888e+11
-7.99896e+11
-7.99904e+11
-7.99913e+11
-7.99921e+11
-7.99929e+11
-7.99938e+11
-7.99946e+11
-7.99955e+11
-7.99963e+11
-7.99971e+11
-7.9998e+11
-7.99989e+11
-7.99999e+11
-8e+11
-0
-0
-0
-0
-0
-0
-0
-0
-0
-0
-0
-0
-0
-0
-0
-0
-0
-0
-0
-7.99248e+11
-7.99492e+11
-7.99518e+11
-7.99535e+11
-7.99548e+11
-7.99558e+11
-7.99568e+11
-7.99578e+11
-7.99587e+11
-7.99597e+11
-7.99606e+11
-7.99615e+11
-7.99623e+11
-7.9963e+11
-7.99637e+11
-7.99644e+11
-7.9965e+11
-7.99656e+11
-7.99661e+11
-7.99667e+11
-7.99672e+11
-7.99678e+11
-7.99684e+11
-7.99689e+11
-7.99695e+11
-7.99701e+11
-7.99707e+11
-7.99713e+11
-7.99719e+11
-7.99726e+11
-7.99732e+11
-7.99739e+11
-7.99746e+11
-7.99753e+11
-7.99761e+11
-7.99768e+11
-7.99775e+11
-7.99783e+11
-7.99791e+11
-7.99798e+11
-7.99806e+11
-7.99814e+11
-7.99822e+11
-7.9983e+11
-7.99838e+11
-7.99846e+11
-7.99855e+11
-7.99863e+11
-7.99871e+11
-7.99879e+11
-7.99888e+11
-7.99896e+11
-7.99904e+11
-7.99913e+11
-7.99921e+11
-7.99929e+11
-7.99938e+11
-7.99946e+11
-7.99954e+11
-7.99963e+11
-7.99971e+11
-7.9998e+11
-7.99988e+11
-7.99997e+11
-8e+11
-0
-0
-0
-0
-0
-0
-0
-0
-0
-0
-0
-0
-0
-0
-0
-0
-0
-0
-0
-2.33154e+07
-7.9959e+11
-7.99591e+11
-7.9959e+11
-7.99589e+11
-7.99591e+11
-7.99594e+11
-7.99599e+11
-7.99605e+11
-7.99612e+11
-7.9962e+11
-7.99627e+11
-7.99634e+11
-7.9964e+11
-7.99646e+11
-7.99651e+11
-7.99656e+11
-7.99661e+11
-7.99666e+11
-7.99671e+11
-7.99676e+11
-7.9968e+11
-7.99685e+11
-7.99691e+11
-7.99696e+11
-7.99701e+11
-7.99707e+11
-7.99713e+11
-7.99719e+11
-7.99726e+11
-7.99732e+11
-7.99739e+11
-7.99746e+11
-7.99753e+11
-7.9976e+11
-7.99767e+11
-7.99775e+11
-7.99782e+11
-7.9979e+11
-7.99798e+11
-7.99806e+11
-7.99814e+11
-7.99822e+11
-7.9983e+11
-7.99838e+11
-7.99846e+11
-7.99854e+11
-7.99862e+11
-7.99871e+11
-7.99879e+11
-7.99887e+11
-7.99896e+11
-7.99904e+11
-7.99912e+11
-7.99921e+11
-7.99929e+11
-7.99937e+11
-7.99946e+11
-7.99954e+11
-7.99963e+11
-7.99971e+11
-7.9998e+11
-7.99988e+11
-7.99997e+11
-8e+11
-0
-0
-0
-0
-0
-0
-0
-0
-0
-0
-0
-0
-0
-0
-0
-0
-0
-0
-0
-91655.7
-7.99676e+11
-7.99665e+11
-7.99645e+11
-7.9963e+11
-7.99622e+11
-7.99619e+11
-7.99619e+11
-7.99623e+11
-7.99627e+11
-7.99633e+11
-7.99639e+11
-7.99644e+11
-7.99649e+11
-7.99654e+11
-7.99658e+11
-7.99662e+11
-7.99666e+11
-7.9967e+11
-7.99674e+11
-7.99678e+11
-7.99683e+11
-7.99687e+11
-7.99692e+11
-7.99697e+11
-7.99702e+11
-7.99707e+11
-7.99713e+11
-7.99719e+11
-7.99725e+11
-7.99732e+11
-7.99738e+11
-7.99745e+11
-7.99752e+11
-7.99759e+11
-7.99767e+11
-7.99774e+11
-7.99782e+11
-7.99789e+11
-7.99797e+11
-7.99805e+11
-7.99813e+11
-7.99821e+11
-7.99829e+11
-7.99837e+11
-7.99845e+11
-7.99854e+11
-7.99862e+11
-7.9987e+11
-7.99878e+11
-7.99887e+11
-7.99895e+11
-7.99904e+11
-7.99912e+11
-7.9992e+11
-7.99929e+11
-7.99937e+11
-7.99946e+11
-7.99954e+11
-7.99963e+11
-7.99971e+11
-7.9998e+11
-7.99988e+11
-7.99997e+11
-8e+11
-0
-0
-0
-0
-0
-0
-0
-0
-0
-0
-0
-0
-0
-0
-0
-0
-0
-0
-0
-0
-2.97784e+10
-7.99747e+11
-7.99696e+11
-7.99666e+11
-7.9965e+11
-7.99642e+11
-7.99639e+11
-7.99639e+11
-7.99642e+11
-7.99646e+11
-7.99651e+11
-7.99655e+11
-7.99659e+11
-7.99663e+11
-7.99666e+11
-7.99668e+11
-7.99671e+11
-7.99674e+11
-7.99677e+11
-7.99681e+11
-7.99684e+11
-7.99688e+11
-7.99693e+11
-7.99697e+11
-7.99702e+11
-7.99707e+11
-7.99713e+11
-7.99718e+11
-7.99724e+11
-7.99731e+11
-7.99737e+11
-7.99744e+11
-7.99751e+11
-7.99758e+11
-7.99766e+11
-7.99773e+11
-7.99781e+11
-7.99788e+11
-7.99796e+11
-7.99804e+11
-7.99812e+11
-7.9982e+11
-7.99828e+11
-7.99836e+11
-7.99845e+11
-7.99853e+11
-7.99861e+11
-7.9987e+11
-7.99878e+11
-7.99886e+11
-7.99895e+11
-7.99903e+11
-7.99912e+11
-7.9992e+11
-7.99929e+11
-7.99937e+11
-7.99946e+11
-7.99954e+11
-7.99962e+11
-7.99971e+11
-7.99979e+11
-7.99988e+11
-7.99997e+11
-8e+11
-0
-0
-0
-0
-0
-0
-0
-0
-0
-0
-0
-0
-0
-0
-0
-0
-0
-0
-0
-0
-2.64284e+06
-7.99779e+11
-7.99729e+11
-7.99693e+11
-7.99674e+11
-7.99663e+11
-7.99656e+11
-7.99655e+11
-7.99656e+11
-7.9966e+11
-7.99663e+11
-7.99666e+11
-7.99669e+11
-7.99671e+11
-7.99673e+11
-7.99674e+11
-7.99676e+11
-7.99678e+11
-7.9968e+11
-7.99683e+11
-7.99686e+11
-7.99689e+11
-7.99693e+11
-7.99697e+11
-7.99702e+11
-7.99707e+11
-7.99712e+11
-7.99718e+11
-7.99723e+11
-7.9973e+11
-7.99736e+11
-7.99743e+11
-7.9975e+11
-7.99757e+11
-7.99764e+11
-7.99772e+11
-7.99779e+11
-7.99787e+11
-7.99795e+11
-7.99803e+11
-7.99811e+11
-7.99819e+11
-7.99827e+11
-7.99836e+11
-7.99844e+11
-7.99852e+11
-7.99861e+11
-7.99869e+11
-7.99878e+11
-7.99886e+11
-7.99894e+11
-7.99903e+11
-7.99911e+11
-7.9992e+11
-7.99928e+11
-7.99937e+11
-7.99945e+11
-7.99954e+11
-7.99962e+11
-7.99971e+11
-7.99979e+11
-7.99988e+11
-7.99997e+11
-8e+11
-0
-0
-0
-0
-0
-0
-0
-0
-0
-0
-0
-0
-0
-0
-0
-0
-0
-0
-0
-0
-0
-2.36108e+10
-7.99749e+11
-7.99709e+11
-7.99697e+11
-7.99684e+11
-7.99674e+11
-7.99669e+11
-7.9967e+11
-7.99673e+11
-7.99676e+11
-7.99678e+11
-7.99679e+11
-7.9968e+11
-7.9968e+11
-7.9968e+11
-7.9968e+11
-7.99681e+11
-7.99683e+11
-7.99684e+11
-7.99687e+11
-7.9969e+11
-7.99693e+11
-7.99697e+11
-7.99701e+11
-7.99706e+11
-7.99711e+11
-7.99716e+11
-7.99722e+11
-7.99728e+11
-7.99735e+11
-7.99741e+11
-7.99748e+11
-7.99756e+11
-7.99763e+11
-7.99771e+11
-7.99778e+11
-7.99786e+11
-7.99794e+11
-7.99802e+11
-7.9981e+11
-7.99818e+11
-7.99827e+11
-7.99835e+11
-7.99843e+11
-7.99852e+11
-7.9986e+11
-7.99868e+11
-7.99877e+11
-7.99885e+11
-7.99894e+11
-7.99902e+11
-7.99911e+11
-7.9992e+11
-7.99928e+11
-7.99937e+11
-7.99945e+11
-7.99954e+11
-7.99962e+11
-7.99971e+11
-7.99979e+11
-7.99988e+11
-8e+11
-8e+11
-0
-0
-0
-0
-0
-0
-0
-0
-0
-0
-0
-0
-0
-0
-0
-0
-0
-0
-0
-0
-0
-2.22101e+06
-7.99199e+11
-7.99706e+11
-7.99728e+11
-7.99709e+11
-7.9969e+11
-7.99683e+11
-7.99683e+11
-7.99686e+11
-7.99689e+11
-7.9969e+11
-7.9969e+11
-7.99688e+11
-7.99687e+11
-7.99685e+11
-7.99684e+11
-7.99684e+11
-7.99684e+11
-7.99685e+11
-7.99687e+11
-7.99689e+11
-7.99692e+11
-7.99696e+11
-7.997e+11
-7.99704e+11
-7.99709e+11
-7.99715e+11
-7.9972e+11
-7.99727e+11
-7.99733e+11
-7.9974e+11
-7.99747e+11
-7.99754e+11
-7.99761e+11
-7.99769e+11
-7.99777e+11
-7.99785e+11
-7.99793e+11
-7.99801e+11
-7.99809e+11
-7.99817e+11
-7.99826e+11
-7.99834e+11
-7.99842e+11
-7.99851e+11
-7.99859e+11
-7.99868e+11
-7.99876e+11
-7.99885e+11
-7.99893e+11
-7.99902e+11
-7.99911e+11
-7.99919e+11
-7.99928e+11
-7.99936e+11
-7.99945e+11
-7.99953e+11
-7.99962e+11
-7.99971e+11
-7.99979e+11
-7.99988e+11
-7.99997e+11
-8e+11
-0
-0
-0
-0
-0
-0
-0
-0
-0
-0
-0
-0
-0
-0
-0
-0
-0
-0
-0
-0
-0
-0
-5.35012e+06
-7.99244e+11
-7.99809e+11
-7.99744e+11
-7.99704e+11
-7.99692e+11
-7.99695e+11
-7.99701e+11
-7.99704e+11
-7.99704e+11
-7.99701e+11
-7.99697e+11
-7.99693e+11
-7.9969e+11
-7.99687e+11
-7.99686e+11
-7.99685e+11
-7.99685e+11
-7.99686e+11
-7.99688e+11
-7.99691e+11
-7.99694e+11
-7.99698e+11
-7.99702e+11
-7.99707e+11
-7.99713e+11
-7.99718e+11
-7.99725e+11
-7.99731e+11
-7.99738e+11
-7.99745e+11
-7.99752e+11
-7.9976e+11
-7.99767e+11
-7.99775e+11
-7.99783e+11
-7.99791e+11
-7.99799e+11
-7.99808e+11
-7.99816e+11
-7.99824e+11
-7.99833e+11
-7.99841e+11
-7.9985e+11
-7.99859e+11
-7.99867e+11
-7.99876e+11
-7.99884e+11
-7.99893e+11
-7.99902e+11
-7.9991e+11
-7.99919e+11
-7.99927e+11
-7.99936e+11
-7.99945e+11
-7.99953e+11
-7.99962e+11
-7.9997e+11
-7.99979e+11
-7.99988e+11
-7.99995e+11
-8e+11
-0
-0
-0
-0
-0
-0
-0
-0
-0
-0
-0
-0
-0
-0
-0
-0
-0
-0
-0
-0
-0
-0
-0
-1.32776e+06
-5.80717e+11
-7.99771e+11
-7.99701e+11
-7.99693e+11
-7.99707e+11
-7.99718e+11
-7.99723e+11
-7.9972e+11
-7.99714e+11
-7.99707e+11
-7.997e+11
-7.99694e+11
-7.99689e+11
-7.99686e+11
-7.99685e+11
-7.99684e+11
-7.99685e+11
-7.99686e+11
-7.99689e+11
-7.99692e+11
-7.99696e+11
-7.997e+11
-7.99705e+11
-7.9971e+11
-7.99716e+11
-7.99722e+11
-7.99729e+11
-7.99735e+11
-7.99743e+11
-7.9975e+11
-7.99758e+11
-7.99765e+11
-7.99773e+11
-7.99781e+11
-7.9979e+11
-7.99798e+11
-7.99806e+11
-7.99815e+11
-7.99823e+11
-7.99832e+11
-7.9984e+11
-7.99849e+11
-7.99858e+11
-7.99866e+11
-7.99875e+11
-7.99884e+11
-7.99892e+11
-7.99901e+11
-7.9991e+11
-7.99918e+11
-7.99927e+11
-7.99936e+11
-7.99944e+11
-7.99953e+11
-7.99962e+11
-7.9997e+11
-7.99979e+11
-7.99988e+11
-7.99996e+11
-8e+11
-0
-0
-0
-0
-0
-0
-0
-0
-0
-0
-0
-0
-0
-0
-0
-0
-0
-0
-0
-0
-0
-0
-0
-0
-11553.8
-0
-7.98806e+11
-7.99679e+11
-7.99721e+11
-7.99743e+11
-7.99747e+11
-7.9974e+11
-7.99728e+11
-7.99716e+11
-7.99705e+11
-7.99696e+11
-7.9969e+11
-7.99686e+11
-7.99683e+11
-7.99682e+11
-7.99682e+11
-7.99684e+11
-7.99686e+11
-7.99689e+11
-7.99692e+11
-7.99697e+11
-7.99702e+11
-7.99707e+11
-7.99713e+11
-7.99719e+11
-7.99726e+11
-7.99733e+11
-7.9974e+11
-7.99748e+11
-7.99755e+11
-7.99763e+11
-7.99771e+11
-7.9978e+11
-7.99788e+11
-7.99796e+11
-7.99805e+11
-7.99813e+11
-7.99822e+11
-7.99831e+11
-7.99839e+11
-7.99848e+11
-7.99857e+11
-7.99866e+11
-7.99874e+11
-7.99883e+11
-7.99892e+11
-7.99901e+11
-7.99909e+11
-7.99918e+11
-7.99927e+11
-7.99935e+11
-7.99944e+11
-7.99953e+11
-7.99961e+11
-7.9997e+11
-7.99979e+11
-7.99988e+11
-7.99997e+11
-8e+11
-0
-0
-0
-0
-0
-0
-0
-0
-0
-0
-0
-0
-0
-0
-0
-0
-0
-0
-0
-0
-0
-0
-0
-0
-0
-2812.29
-4.94134e+06
-7.99089e+11
-7.99753e+11
-7.99783e+11
-7.99781e+11
-7.99764e+11
-7.99744e+11
-7.99725e+11
-7.9971e+11
-7.99698e+11
-7.99689e+11
-7.99684e+11
-7.9968e+11
-7.99679e+11
-7.99679e+11
-7.9968e+11
-7.99682e+11
-7.99685e+11
-7.99688e+11
-7.99693e+11
-7.99698e+11
-7.99703e+11
-7.99709e+11
-7.99716e+11
-7.99723e+11
-7.9973e+11
-7.99737e+11
-7.99745e+11
-7.99753e+11
-7.99761e+11
-7.99769e+11
-7.99777e+11
-7.99786e+11
-7.99795e+11
-7.99803e+11
-7.99812e+11
-7.99821e+11
-7.99829e+11
-7.99838e+11
-7.99847e+11
-7.99856e+11
-7.99865e+11
-7.99874e+11
-7.99882e+11
-7.99891e+11
-7.999e+11
-7.99909e+11
-7.99918e+11
-7.99926e+11
-7.99935e+11
-7.99944e+11
-7.99953e+11
-7.99961e+11
-7.9997e+11
-7.99979e+11
-7.99988e+11
-7.99997e+11
-8e+11
-0
-0
-0
-0
-0
-0
-0
-0
-0
-0
-0
-0
-0
-0
-0
-0
-0
-0
-0
-0
-0
-0
-0
-0
-0
-0
-0
-0
-3.06658e+07
-7.99849e+11
-7.99828e+11
-7.99792e+11
-7.9976e+11
-7.99733e+11
-7.99712e+11
-7.99697e+11
-7.99686e+11
-7.9968e+11
-7.99676e+11
-7.99674e+11
-7.99673e+11
-7.99675e+11
-7.99677e+11
-7.9968e+11
-7.99684e+11
-7.99688e+11
-7.99693e+11
-7.99699e+11
-7.99705e+11
-7.99712e+11
-7.99719e+11
-7.99726e+11
-7.99734e+11
-7.99742e+11
-7.9975e+11
-7.99758e+11
-7.99767e+11
-7.99775e+11
-7.99784e+11
-7.99793e+11
-7.99801e+11
-7.9981e+11
-7.99819e+11
-7.99828e+11
-7.99837e+11
-7.99846e+11
-7.99855e+11
-7.99864e+11
-7.99873e+11
-7.99882e+11
-7.9989e+11
-7.99899e+11
-7.99908e+11
-7.99917e+11
-7.99926e+11
-7.99935e+11
-7.99944e+11
-7.99952e+11
-7.99961e+11
-7.9997e+11
-7.99979e+11
-7.99988e+11
-7.99997e+11
-8e+11
-0
-0
-0
-0
-0
-0
-0
-0
-0
-0
-0
-0
-0
-0
-0
-0
-0
-0
-0
-0
-0
-0
-0
-0
-0
-0
-0
-0
-78482.6
-1.74863e+09
-7.99886e+11
-7.99819e+11
-7.99773e+11
-7.99738e+11
-7.99712e+11
-7.99693e+11
-7.99681e+11
-7.99674e+11
-7.99669e+11
-7.99667e+11
-7.99667e+11
-7.99668e+11
-7.9967e+11
-7.99674e+11
-7.99678e+11
-7.99683e+11
-7.99688e+11
-7.99694e+11
-7.99701e+11
-7.99708e+11
-7.99715e+11
-7.99722e+11
-7.9973e+11
-7.99739e+11
-7.99747e+11
-7.99755e+11
-7.99764e+11
-7.99773e+11
-7.99782e+11
-7.99791e+11
-7.998e+11
-7.99809e+11
-7.99818e+11
-7.99827e+11
-7.99836e+11
-7.99845e+11
-7.99854e+11
-7.99863e+11
-7.99872e+11
-7.99881e+11
-7.9989e+11
-7.99899e+11
-7.99908e+11
-7.99917e+11
-7.99926e+11
-7.99935e+11
-7.99943e+11
-7.99952e+11
-7.99961e+11
-7.9997e+11
-7.99979e+11
-7.99988e+11
-7.99996e+11
-8e+11
-0
-0
-0
-0
-0
-0
-0
-0
-0
-0
-0
-0
-0
-0
-0
-0
-0
-0
-0
-0
-0
-0
-0
-0
-0
-0
-0
-0
-0
-813360
-4.8827e+11
-7.99832e+11
-7.9978e+11
-7.99739e+11
-7.99708e+11
-7.99687e+11
-7.99673e+11
-7.99665e+11
-7.99661e+11
-7.99659e+11
-7.99659e+11
-7.9966e+11
-7.99663e+11
-7.99667e+11
-7.99671e+11
-7.99677e+11
-7.99682e+11
-7.99689e+11
-7.99696e+11
-7.99703e+11
-7.9971e+11
-7.99718e+11
-7.99727e+11
-7.99735e+11
-7.99744e+11
-7.99752e+11
-7.99761e+11
-7.9977e+11
-7.99779e+11
-7.99788e+11
-7.99798e+11
-7.99807e+11
-7.99816e+11
-7.99825e+11
-7.99834e+11
-7.99843e+11
-7.99853e+11
-7.99862e+11
-7.99871e+11
-7.9988e+11
-7.99889e+11
-7.99898e+11
-7.99907e+11
-7.99916e+11
-7.99925e+11
-7.99934e+11
-7.99943e+11
-7.99952e+11
-7.99961e+11
-7.9997e+11
-7.99979e+11
-7.99988e+11
-7.99996e+11
-8e+11
-0
-0
-0
-0
-0
-0
-0
-0
-0
-0
-0
-0
-0
-0
-0
-0
-0
-0
-0
-0
-0
-0
-0
-0
-0
-0
-0
-0
-0
-0
-1.73691e+06
-7.99778e+11
-7.99782e+11
-7.99739e+11
-7.99702e+11
-7.99677e+11
-7.99663e+11
-7.99654e+11
-7.9965e+11
-7.99649e+11
-7.99649e+11
-7.99651e+11
-7.99654e+11
-7.99659e+11
-7.99664e+11
-7.99669e+11
-7.99676e+11
-7.99683e+11
-7.9969e+11
-7.99698e+11
-7.99706e+11
-7.99714e+11
-7.99722e+11
-7.99731e+11
-7.9974e+11
-7.99749e+11
-7.99758e+11
-7.99767e+11
-7.99777e+11
-7.99786e+11
-7.99795e+11
-7.99805e+11
-7.99814e+11
-7.99824e+11
-7.99833e+11
-7.99842e+11
-7.99851e+11
-7.99861e+11
-7.9987e+11
-7.99879e+11
-7.99888e+11
-7.99897e+11
-7.99907e+11
-7.99916e+11
-7.99925e+11
-7.99934e+11
-7.99943e+11
-7.99952e+11
-7.99961e+11
-7.9997e+11
-7.99979e+11
-7.99988e+11
-7.99996e+11
-8e+11
-0
-0
-0
-0
-0
-0
-0
-0
-0
-0
-0
-0
-0
-0
-0
-0
-0
-0
-0
-0
-0
-0
-0
-0
-0
-0
-0
-0
-0
-0
-0
-3.0751e+08
-7.99819e+11
-7.99742e+11
-7.99692e+11
-7.99664e+11
-7.99649e+11
-7.99641e+11
-7.99637e+11
-7.99636e+11
-7.99638e+11
-7.9964e+11
-7.99644e+11
-7.99649e+11
-7.99655e+11
-7.99662e+11
-7.99669e+11
-7.99676e+11
-7.99684e+11
-7.99692e+11
-7.997e+11
-7.99709e+11
-7.99718e+11
-7.99727e+11
-7.99736e+11
-7.99746e+11
-7.99755e+11
-7.99765e+11
-7.99774e+11
-7.99784e+11
-7.99793e+11
-7.99803e+11
-7.99812e+11
-7.99822e+11
-7.99831e+11
-7.99841e+11
-7.9985e+11
-7.9986e+11
-7.99869e+11
-7.99878e+11
-7.99888e+11
-7.99897e+11
-7.99906e+11
-7.99915e+11
-7.99924e+11
-7.99933e+11
-7.99943e+11
-7.99952e+11
-7.99961e+11
-7.9997e+11
-7.99979e+11
-7.99988e+11
-7.99996e+11
-8e+11
-0
-0
-0
-0
-0
-0
-0
-0
-0
-0
-0
-0
-0
-0
-0
-0
-0
-0
-0
-0
-0
-0
-0
-0
-0
-0
-0
-0
-0
-0
-0
-191535
-7.19768e+11
-7.9973e+11
-7.9967e+11
-7.99644e+11
-7.99631e+11
-7.99625e+11
-7.99622e+11
-7.99623e+11
-7.99625e+11
-7.99628e+11
-7.99633e+11
-7.99639e+11
-7.99646e+11
-7.99653e+11
-7.99661e+11
-7.99669e+11
-7.99677e+11
-7.99686e+11
-7.99695e+11
-7.99704e+11
-7.99713e+11
-7.99723e+11
-7.99732e+11
-7.99742e+11
-7.99752e+11
-7.99761e+11
-7.99771e+11
-7.99781e+11
-7.99791e+11
-7.99801e+11
-7.9981e+11
-7.9982e+11
-7.9983e+11
-7.99839e+11
-7.99849e+11
-7.99858e+11
-7.99868e+11
-7.99877e+11
-7.99887e+11
-7.99896e+11
-7.99905e+11
-7.99915e+11
-7.99924e+11
-7.99933e+11
-7.99942e+11
-7.99951e+11
-7.9996e+11
-7.99969e+11
-7.99979e+11
-7.99988e+11
-7.99998e+11
-8e+11
-0
-0
-0
-0
-0
-0
-0
-0
-0
-0
-0
-0
-0
-0
-0
-0
-0
-0
-0
-0
-0
-0
-0
-0
-0
-0
-0
-0
-0
-0
-0
-0
-2.41822e+06
-7.99631e+11
-7.99626e+11
-7.99618e+11
-7.99611e+11
-7.99607e+11
-7.99606e+11
-7.99607e+11
-7.9961e+11
-7.99615e+11
-7.99621e+11
-7.99628e+11
-7.99635e+11
-7.99643e+11
-7.99652e+11
-7.99661e+11
-7.9967e+11
-7.99679e+11
-7.99689e+11
-7.99698e+11
-7.99708e+11
-7.99718e+11
-7.99728e+11
-7.99738e+11
-7.99748e+11
-7.99758e+11
-7.99768e+11
-7.99778e+11
-7.99788e+11
-7.99798e+11
-7.99808e+11
-7.99818e+11
-7.99828e+11
-7.99838e+11
-7.99848e+11
-7.99857e+11
-7.99867e+11
-7.99876e+11
-7.99886e+11
-7.99895e+11
-7.99905e+11
-7.99914e+11
-7.99923e+11
-7.99933e+11
-7.99942e+11
-7.99951e+11
-7.9996e+11
-7.99969e+11
-7.99978e+11
-7.99988e+11
-8e+11
-8e+11
-0
-0
-0
-0
-0
-0
-0
-0
-0
-0
-0
-0
-0
-0
-0
-0
-0
-0
-0
-0
-0
-0
-0
-0
-0
-0
-0
-0
-0
-0
-0
-0
-0
-7.99525e+11
-7.99592e+11
-7.99594e+11
-7.9959e+11
-7.99587e+11
-7.99587e+11
-7.99589e+11
-7.99594e+11
-7.996e+11
-7.99607e+11
-7.99615e+11
-7.99624e+11
-7.99633e+11
-7.99643e+11
-7.99652e+11
-7.99662e+11
-7.99672e+11
-7.99682e+11
-7.99692e+11
-7.99703e+11
-7.99713e+11
-7.99724e+11
-7.99734e+11
-7.99744e+11
-7.99755e+11
-7.99765e+11
-7.99776e+11
-7.99786e+11
-7.99796e+11
-7.99806e+11
-7.99816e+11
-7.99827e+11
-7.99836e+11
-7.99846e+11
-7.99856e+11
-7.99866e+11
-7.99876e+11
-7.99885e+11
-7.99895e+11
-7.99904e+11
-7.99913e+11
-7.99923e+11
-7.99932e+11
-7.99941e+11
-7.99951e+11
-7.9996e+11
-7.99969e+11
-7.99978e+11
-7.99988e+11
-8e+11
-8e+11
-0
-0
-0
-0
-0
-0
-0
-0
-0
-0
-0
-0
-0
-0
-0
-0
-0
-0
-0
-0
-0
-0
-0
-0
-0
-0
-0
-0
-0
-0
-0
-0
-0
-1.62453e+08
-7.99586e+11
-7.99578e+11
-7.9957e+11
-7.99565e+11
-7.99566e+11
-7.9957e+11
-7.99576e+11
-7.99584e+11
-7.99593e+11