0 	-13.5629
0.010101 	-8.35838
0.020202 	-8.35838
0.030303 	-7.17243
0.040404 	-6.34983
