0 	-1.04268e-107 	3.52911e-123 	-2.22439e-107
0.010101 	1.4688e-167 	-2.33416e-235 	-1.79201e-178
0.020202 	6.89079e-41 	1.29519e-122 	-7.31933e-41
