0 	3.62956e-21 	0 	7.25912e-21
0.010101 	3.79423e-21 	-4.64881e-23 	-4.44011e-21
0.020202 	-7.36295e-21 	1.27153e-23 	-9.52685e-21
0.030303 	2.25061e-20 	4.26684e-24 	-1.05931e-20
0.040404 	-3.582e-21 	-1.70772e-31 	-8.66892e-21
0.0505051 	-7.13048e-15 	-3.34607e-15 	-1.19997e-14
