/*--------------------------------*- C++ -*----------------------------------*\
  =========                 |
  \\      /  F ield         | OpenFOAM: The Open Source CFD Toolbox
   \\    /   O peration     | Website:  https://openfoam.org
    \\  /    A nd           | Version:  6
     \\/     M anipulation  |
\*---------------------------------------------------------------------------*/
FoamFile
{
    version     2.0;
    format      ascii;
    class       volVectorField;
    location    "3400";
    object      U;
}
// * * * * * * * * * * * * * * * * * * * * * * * * * * * * * * * * * * * * * //

dimensions      [0 1 -1 0 0 0 0];

internalField   nonuniform List<vector> 
4800
(
(-6.09375e-09 0 7.38156e-09)
(-2.1323e-08 0 4.63455e-09)
(-3.56814e-08 0 3.6153e-09)
(-4.9906e-08 0 3.34267e-09)
(-6.38567e-08 0 3.31858e-09)
(-7.74636e-08 0 3.39544e-09)
(-9.06569e-08 0 3.51506e-09)
(-1.03383e-07 0 3.64304e-09)
(-1.15589e-07 0 3.74702e-09)
(-1.27211e-07 0 3.79728e-09)
(-1.38202e-07 0 3.8074e-09)
(-1.48523e-07 0 3.7466e-09)
(-1.58121e-07 0 3.59917e-09)
(-1.66997e-07 0 3.45607e-09)
(-1.7518e-07 0 3.26464e-09)
(-1.82697e-07 0 3.09917e-09)
(-1.89658e-07 0 2.85697e-09)
(-1.95527e-07 0 2.24964e-09)
(-2.00451e-07 0 1.96032e-09)
(-2.05005e-07 0 1.83276e-09)
(-2.08999e-07 0 1.68749e-09)
(-2.11855e-07 0 7.60661e-10)
(-2.13986e-07 0 8.11499e-10)
(-2.15735e-07 0 4.89967e-10)
(-2.16762e-07 0 1.61296e-10)
(-2.17139e-07 0 -1.07463e-10)
(-2.16976e-07 0 -3.53786e-10)
(-2.16256e-07 0 -6.04099e-10)
(-2.14996e-07 0 -8.34081e-10)
(-2.13215e-07 0 -1.08206e-09)
(-2.10894e-07 0 -1.32471e-09)
(-2.08066e-07 0 -1.5515e-09)
(-2.04749e-07 0 -1.77675e-09)
(-2.00949e-07 0 -2.00215e-09)
(-1.96662e-07 0 -2.22382e-09)
(-1.91914e-07 0 -2.43427e-09)
(-1.86709e-07 0 -2.65409e-09)
(-1.81067e-07 0 -2.85228e-09)
(-1.74979e-07 0 -3.05561e-09)
(-1.68498e-07 0 -3.23942e-09)
(-1.61622e-07 0 -3.42347e-09)
(-1.54374e-07 0 -3.58259e-09)
(-1.46807e-07 0 -3.72915e-09)
(-1.38933e-07 0 -3.86496e-09)
(-1.3081e-07 0 -3.95865e-09)
(-1.22467e-07 0 -4.05682e-09)
(-1.13952e-07 0 -4.11978e-09)
(-1.05321e-07 0 -4.14605e-09)
(-9.66378e-08 0 -4.15117e-09)
(-8.79504e-08 0 -4.13252e-09)
(-7.93139e-08 0 -4.07796e-09)
(-7.07893e-08 0 -4.00167e-09)
(-6.24359e-08 0 -3.88715e-09)
(-5.43205e-08 0 -3.74237e-09)
(-4.64954e-08 0 -3.5757e-09)
(-3.90013e-08 0 -3.39443e-09)
(-3.18745e-08 0 -3.17997e-09)
(-2.51753e-08 0 -2.96053e-09)
(-1.89117e-08 0 -2.71137e-09)
(-1.31326e-08 0 -2.47176e-09)
(-7.82192e-09 0 -2.2186e-09)
(-3.00215e-09 0 -1.9719e-09)
(1.33522e-09 0 -1.72281e-09)
(5.19571e-09 0 -1.48436e-09)
(8.59845e-09 0 -1.25659e-09)
(1.15844e-08 0 -1.05984e-09)
(1.41857e-08 0 -8.65752e-10)
(1.64309e-08 0 -6.98615e-10)
(1.83864e-08 0 -5.73732e-10)
(2.01441e-08 0 -4.9421e-10)
(2.17806e-08 0 -4.49791e-10)
(2.34217e-08 0 -4.83944e-10)
(2.52822e-08 0 -6.31339e-10)
(2.77913e-08 0 -1.0683e-09)
(3.21581e-08 0 -2.31186e-09)
(4.17269e-08 0 -6.00764e-09)
(6.31596e-08 0 -1.84708e-08)
(3.91951e-08 0 1.51919e-08)
(-7.56162e-10 0 1.86139e-08)
(-2.04363e-14 0 1.69604e-14)
(1.60013e-15 0 4.32202e-17)
(3.14758e-15 0 3.66441e-17)
(3.09545e-15 0 3.93841e-17)
(3.04848e-15 0 4.2455e-17)
(2.97087e-15 0 4.46781e-17)
(2.86418e-15 0 4.61153e-17)
(2.73323e-15 0 4.67357e-17)
(2.58264e-15 0 4.65186e-17)
(2.41721e-15 0 4.5526e-17)
(2.24191e-15 0 4.38302e-17)
(2.06157e-15 0 4.16796e-17)
(1.88069e-15 0 3.92084e-17)
(1.70295e-15 0 3.65407e-17)
(1.53116e-15 0 3.3811e-17)
(1.36741e-15 0 3.104e-17)
(1.21312e-15 0 2.83826e-17)
(1.06923e-15 0 2.57874e-17)
(9.36193e-16 0 2.33162e-17)
(8.14173e-16 0 2.1e-17)
(7.03124e-16 0 1.87977e-17)
(6.02767e-16 0 1.67814e-17)
(5.12749e-16 0 1.49203e-17)
(4.32564e-16 0 1.32142e-17)
(3.61664e-16 0 1.16322e-17)
(2.99532e-16 0 1.02467e-17)
(2.45497e-16 0 8.96457e-18)
(1.98906e-16 0 7.83754e-18)
(1.59139e-16 0 6.82424e-18)
(1.25556e-16 0 5.9557e-18)
(9.75453e-17 0 5.15954e-18)
(7.45393e-17 0 4.49779e-18)
(5.59278e-17 0 3.91877e-18)
(4.11109e-17 0 3.42246e-18)
(2.96027e-17 0 3.03989e-18)
(2.0876e-17 0 2.70902e-18)
(1.4455e-17 0 2.48154e-18)
(9.81243e-18 0 2.32645e-18)
(6.45201e-18 0 2.28509e-18)
(3.88775e-18 0 2.37814e-18)
(1.36485e-18 0 2.7814e-18)
(-6.07808e-09 0 2.03542e-08)
(-2.13308e-08 0 2.23135e-08)
(-3.60026e-08 0 2.27294e-08)
(-5.0455e-08 0 2.24615e-08)
(-6.45537e-08 0 2.18577e-08)
(-7.82649e-08 0 2.10685e-08)
(-9.15494e-08 0 2.01353e-08)
(-1.04341e-07 0 1.90986e-08)
(-1.16576e-07 0 1.79685e-08)
(-1.28213e-07 0 1.67665e-08)
(-1.39209e-07 0 1.55268e-08)
(-1.49508e-07 0 1.42363e-08)
(-1.59075e-07 0 1.28773e-08)
(-1.67913e-07 0 1.17348e-08)
(-1.76071e-07 0 1.06415e-08)
(-1.83608e-07 0 9.79705e-09)
(-1.90509e-07 0 8.75172e-09)
(-1.96264e-07 0 6.71665e-09)
(-2.01213e-07 0 5.75459e-09)
(-2.05767e-07 0 5.31348e-09)
(-2.0969e-07 0 4.73213e-09)
(-2.12484e-07 0 1.97779e-09)
(-2.14654e-07 0 2.02605e-09)
(-2.1636e-07 0 1.05333e-09)
(-2.17346e-07 0 -2.25656e-11)
(-2.17691e-07 0 -8.27714e-10)
(-2.17516e-07 0 -1.59723e-09)
(-2.16783e-07 0 -2.37411e-09)
(-2.15495e-07 0 -3.09904e-09)
(-2.13683e-07 0 -3.84776e-09)
(-2.11353e-07 0 -4.57038e-09)
(-2.08523e-07 0 -5.24541e-09)
(-2.0519e-07 0 -5.92655e-09)
(-2.01378e-07 0 -6.57168e-09)
(-1.97099e-07 0 -7.20728e-09)
(-1.9234e-07 0 -7.85357e-09)
(-1.87112e-07 0 -8.46275e-09)
(-1.81459e-07 0 -9.03465e-09)
(-1.7535e-07 0 -9.61468e-09)
(-1.68843e-07 0 -1.01397e-08)
(-1.61942e-07 0 -1.06433e-08)
(-1.5467e-07 0 -1.10988e-08)
(-1.4707e-07 0 -1.15007e-08)
(-1.39168e-07 0 -1.18626e-08)
(-1.30991e-07 0 -1.21407e-08)
(-1.22584e-07 0 -1.23759e-08)
(-1.14024e-07 0 -1.2529e-08)
(-1.05344e-07 0 -1.25783e-08)
(-9.65949e-08 0 -1.25679e-08)
(-8.78382e-08 0 -1.24685e-08)
(-7.91428e-08 0 -1.227e-08)
(-7.05698e-08 0 -1.19964e-08)
(-6.21732e-08 0 -1.16252e-08)
(-5.40028e-08 0 -1.11676e-08)
(-4.61245e-08 0 -1.06279e-08)
(-3.85878e-08 0 -1.00529e-08)
(-3.14201e-08 0 -9.38433e-09)
(-2.46929e-08 0 -8.68111e-09)
(-1.84184e-08 0 -7.9054e-09)
(-1.26306e-08 0 -7.15912e-09)
(-7.31248e-09 0 -6.36895e-09)
(-2.49015e-09 0 -5.59754e-09)
(1.83956e-09 0 -4.81284e-09)
(5.67742e-09 0 -4.05721e-09)
(9.05906e-09 0 -3.34952e-09)
(1.2008e-08 0 -2.69921e-09)
(1.45429e-08 0 -2.08044e-09)
(1.67281e-08 0 -1.55365e-09)
(1.86265e-08 0 -1.14222e-09)
(2.03028e-08 0 -8.55447e-10)
(2.18112e-08 0 -6.68588e-10)
(2.3223e-08 0 -7.00264e-10)
(2.46419e-08 0 -1.03873e-09)
(2.60975e-08 0 -1.96495e-09)
(2.72613e-08 0 -4.21984e-09)
(2.69505e-08 0 -9.93044e-09)
(1.49381e-08 0 -2.5935e-08)
(1.06958e-08 0 5.02484e-08)
(-6.68091e-10 0 4.1474e-08)
(-1.43852e-14 0 4.68137e-14)
(1.59352e-15 0 1.20107e-16)
(3.14372e-15 0 1.11421e-16)
(3.10125e-15 0 1.11907e-16)
(3.05379e-15 0 1.12341e-16)
(2.97454e-15 0 1.11483e-16)
(2.86623e-15 0 1.09457e-16)
(2.73364e-15 0 1.06282e-16)
(2.58142e-15 0 1.02033e-16)
(2.41451e-15 0 9.68732e-17)
(2.23806e-15 0 9.10106e-17)
(2.05695e-15 0 8.4755e-17)
(1.87554e-15 0 7.83754e-17)
(1.69753e-15 0 7.20268e-17)
(1.52566e-15 0 6.58436e-17)
(1.36198e-15 0 5.99292e-17)
(1.20787e-15 0 5.43975e-17)
(1.06417e-15 0 4.91862e-17)
(9.31395e-16 0 4.43782e-17)
(8.09655e-16 0 3.99528e-17)
(6.98895e-16 0 3.58893e-17)
(5.98879e-16 0 3.22187e-17)
(5.09161e-16 0 2.88893e-17)
(4.29276e-16 0 2.59114e-17)
(3.58717e-16 0 2.32024e-17)
(2.96854e-16 0 2.08346e-17)
(2.43077e-16 0 1.8715e-17)
(1.96766e-16 0 1.68641e-17)
(1.57257e-16 0 1.52201e-17)
(1.23901e-16 0 1.37829e-17)
(9.60874e-17 0 1.25421e-17)
(7.32882e-17 0 1.14875e-17)
(5.48524e-17 0 1.05362e-17)
(4.02217e-17 0 9.75039e-18)
(2.88686e-17 0 9.11967e-18)
(2.03073e-17 0 8.61302e-18)
(1.40828e-17 0 8.23045e-18)
(9.61598e-18 0 7.97195e-18)
(6.48303e-18 0 7.8789e-18)
(4.36338e-18 0 7.96161e-18)
(1.75776e-18 0 8.3752e-18)
(-6.47518e-09 0 3.27521e-08)
(-2.21268e-08 0 3.26119e-08)
(-3.65305e-08 0 3.21864e-08)
(-5.08373e-08 0 3.16116e-08)
(-6.49167e-08 0 3.08607e-08)
(-7.86678e-08 0 2.99804e-08)
(-9.20176e-08 0 2.89806e-08)
(-1.049e-07 0 2.78304e-08)
(-1.17244e-07 0 2.65395e-08)
(-1.28994e-07 0 2.5126e-08)
(-1.40102e-07 0 2.35984e-08)
(-1.50507e-07 0 2.19102e-08)
(-1.60164e-07 0 2.00869e-08)
(-1.69099e-07 0 1.84866e-08)
(-1.77395e-07 0 1.69372e-08)
(-1.85081e-07 0 1.59288e-08)
(-1.91948e-07 0 1.36955e-08)
(-1.97567e-07 0 1.07812e-08)
(-2.02636e-07 0 9.35977e-09)
(-2.07252e-07 0 8.65139e-09)
(-2.11005e-07 0 7.14372e-09)
(-2.13651e-07 0 3.30836e-09)
(-2.15902e-07 0 3.09372e-09)
(-2.17532e-07 0 1.54659e-09)
(-2.18437e-07 0 -3.07258e-10)
(-2.18757e-07 0 -1.52518e-09)
(-2.18557e-07 0 -2.81756e-09)
(-2.17785e-07 0 -4.0927e-09)
(-2.16467e-07 0 -5.29589e-09)
(-2.14636e-07 0 -6.50606e-09)
(-2.12287e-07 0 -7.67734e-09)
(-2.09433e-07 0 -8.7983e-09)
(-2.06081e-07 0 -9.92276e-09)
(-2.02248e-07 0 -1.09796e-08)
(-1.97931e-07 0 -1.20149e-08)
(-1.9315e-07 0 -1.31035e-08)
(-1.87905e-07 0 -1.40904e-08)
(-1.82221e-07 0 -1.50441e-08)
(-1.76067e-07 0 -1.60083e-08)
(-1.69515e-07 0 -1.68818e-08)
(-1.62562e-07 0 -1.76946e-08)
(-1.55235e-07 0 -1.84556e-08)
(-1.47567e-07 0 -1.91354e-08)
(-1.39572e-07 0 -1.9714e-08)
(-1.3131e-07 0 -2.0211e-08)
(-1.22818e-07 0 -2.0564e-08)
(-1.14163e-07 0 -2.08193e-08)
(-1.05372e-07 0 -2.09017e-08)
(-9.65134e-08 0 -2.08833e-08)
(-8.76464e-08 0 -2.07048e-08)
(-7.88335e-08 0 -2.03627e-08)
(-7.01349e-08 0 -1.9893e-08)
(-6.16184e-08 0 -1.92594e-08)
(-5.33496e-08 0 -1.84878e-08)
(-4.53828e-08 0 -1.75693e-08)
(-3.7749e-08 0 -1.66044e-08)
(-3.04984e-08 0 -1.54703e-08)
(-2.37147e-08 0 -1.42619e-08)
(-1.73812e-08 0 -1.29655e-08)
(-1.15627e-08 0 -1.16904e-08)
(-6.23848e-09 0 -1.03676e-08)
(-1.43289e-09 0 -9.05242e-09)
(2.85021e-09 0 -7.73073e-09)
(6.64881e-09 0 -6.47038e-09)
(9.96555e-09 0 -5.27543e-09)
(1.28167e-08 0 -4.15974e-09)
(1.52614e-08 0 -3.14018e-09)
(1.73475e-08 0 -2.26152e-09)
(1.91153e-08 0 -1.56645e-09)
(2.06198e-08 0 -1.04082e-09)
(2.19074e-08 0 -6.81029e-10)
(2.30381e-08 0 -6.09212e-10)
(2.39894e-08 0 -8.53384e-10)
(2.4596e-08 0 -1.57372e-09)
(2.42596e-08 0 -2.88126e-09)
(2.15763e-08 0 -4.86107e-09)
(1.07092e-08 0 -6.23328e-09)
(4.72895e-09 0 4.97154e-08)
(-6.32357e-10 0 4.97774e-08)
(-1.35278e-14 0 7.45588e-14)
(1.59148e-15 0 1.92144e-16)
(3.13937e-15 0 1.85423e-16)
(3.09634e-15 0 1.7802e-16)
(3.04806e-15 0 1.69706e-16)
(2.968e-15 0 1.60556e-16)
(2.85897e-15 0 1.50785e-16)
(2.72581e-15 0 1.40517e-16)
(2.57322e-15 0 1.30012e-16)
(2.40618e-15 0 1.19486e-16)
(2.22979e-15 0 1.09178e-16)
(2.04894e-15 0 9.92513e-17)
(1.86796e-15 0 8.98939e-17)
(1.69042e-15 0 8.11774e-17)
(1.51907e-15 0 7.31124e-17)
(1.35596e-15 0 6.58126e-17)
(1.20239e-15 0 5.91848e-17)
(1.05923e-15 0 5.32084e-17)
(9.26959e-16 0 4.79041e-17)
(8.05695e-16 0 4.31685e-17)
(6.9538e-16 0 3.90119e-17)
(5.95756e-16 0 3.53413e-17)
(5.06421e-16 0 3.21256e-17)
(4.26887e-16 0 2.93339e-17)
(3.56618e-16 0 2.69247e-17)
(2.95035e-16 0 2.48361e-17)
(2.41516e-16 0 2.30473e-17)
(1.95411e-16 0 2.14757e-17)
(1.56058e-16 0 2.01315e-17)
(1.22867e-16 0 1.89631e-17)
(9.52395e-17 0 1.80015e-17)
(7.25437e-17 0 1.7164e-17)
(5.41803e-17 0 1.63885e-17)
(3.96737e-17 0 1.57785e-17)
(2.84654e-17 0 1.52511e-17)
(1.99868e-17 0 1.48272e-17)
(1.38139e-17 0 1.44757e-17)
(9.45054e-18 0 1.42172e-17)
(6.43133e-18 0 1.40517e-17)
(4.37372e-18 0 1.39483e-17)
(1.7681e-18 0 1.38966e-17)
(-6.49407e-09 0 4.66681e-08)
(-2.2395e-08 0 4.64222e-08)
(-3.70503e-08 0 4.58824e-08)
(-5.15655e-08 0 4.51143e-08)
(-6.58241e-08 0 4.40815e-08)
(-7.97636e-08 0 4.28264e-08)
(-9.32993e-08 0 4.13765e-08)
(-1.06345e-07 0 3.96876e-08)
(-1.18846e-07 0 3.78119e-08)
(-1.30749e-07 0 3.57409e-08)
(-1.41979e-07 0 3.34937e-08)
(-1.52492e-07 0 3.10034e-08)
(-1.62253e-07 0 2.84268e-08)
(-1.71269e-07 0 2.60509e-08)
(-1.79666e-07 0 2.3921e-08)
(-1.87482e-07 0 2.25444e-08)
(-1.94198e-07 0 1.87773e-08)
(-1.99601e-07 0 1.49734e-08)
(-2.04874e-07 0 1.31178e-08)
(-2.09566e-07 0 1.22618e-08)
(-2.12979e-07 0 9.32482e-09)
(-2.15434e-07 0 4.90538e-09)
(-2.17785e-07 0 4.1785e-09)
(-2.19284e-07 0 2.0476e-09)
(-2.20095e-07 0 -6.45738e-10)
(-2.20386e-07 0 -2.18578e-09)
(-2.20116e-07 0 -4.04889e-09)
(-2.19289e-07 0 -5.81732e-09)
(-2.17927e-07 0 -7.49403e-09)
(-2.1606e-07 0 -9.1676e-09)
(-2.13675e-07 0 -1.08057e-08)
(-2.10782e-07 0 -1.23824e-08)
(-2.07396e-07 0 -1.39364e-08)
(-2.03528e-07 0 -1.5427e-08)
(-1.99181e-07 0 -1.6861e-08)
(-1.94373e-07 0 -1.83846e-08)
(-1.89096e-07 0 -1.97732e-08)
(-1.83372e-07 0 -2.11105e-08)
(-1.77167e-07 0 -2.24704e-08)
(-1.70564e-07 0 -2.37053e-08)
(-1.63523e-07 0 -2.48646e-08)
(-1.56075e-07 0 -2.59227e-08)
(-1.48324e-07 0 -2.6896e-08)
(-1.40215e-07 0 -2.7719e-08)
(-1.3183e-07 0 -2.84193e-08)
(-1.2319e-07 0 -2.89255e-08)
(-1.14372e-07 0 -2.92922e-08)
(-1.05418e-07 0 -2.94186e-08)
(-9.63889e-08 0 -2.93867e-08)
(-8.73444e-08 0 -2.91468e-08)
(-7.83492e-08 0 -2.86622e-08)
(-6.9483e-08 0 -2.7991e-08)
(-6.07989e-08 0 -2.70975e-08)
(-5.23548e-08 0 -2.6e-08)
(-4.42225e-08 0 -2.47006e-08)
(-3.64575e-08 0 -2.33209e-08)
(-2.91191e-08 0 -2.1695e-08)
(-2.22452e-08 0 -1.99765e-08)
(-1.58412e-08 0 -1.81514e-08)
(-9.96671e-09 0 -1.63126e-08)
(-4.63815e-09 0 -1.44245e-08)
(1.60877e-10 0 -1.25417e-08)
(4.41271e-09 0 -1.06599e-08)
(8.14278e-09 0 -8.87345e-09)
(1.13626e-08 0 -7.149e-09)
(1.40993e-08 0 -5.5458e-09)
(1.64033e-08 0 -4.11108e-09)
(1.83177e-08 0 -2.83901e-09)
(1.98816e-08 0 -1.81752e-09)
(2.11576e-08 0 -1.01943e-09)
(2.21969e-08 0 -4.41116e-10)
(2.30402e-08 0 -2.0228e-10)
(2.36951e-08 0 -2.41943e-10)
(2.40656e-08 0 -5.26673e-10)
(2.39273e-08 0 -8.71041e-10)
(2.3251e-08 0 -5.48068e-10)
(2.18417e-08 0 2.83177e-09)
(3.26313e-09 0 5.79313e-08)
(-6.08415e-10 0 5.51687e-08)
(-1.33202e-14 0 1.04307e-13)
(1.58688e-15 0 2.70023e-16)
(3.12961e-15 0 2.5745e-16)
(3.08552e-15 0 2.44142e-16)
(3.03631e-15 0 2.29915e-16)
(2.95561e-15 0 2.14984e-16)
(2.8462e-15 0 1.99702e-16)
(2.71287e-15 0 1.84306e-16)
(2.56039e-15 0 1.69065e-16)
(2.39366e-15 0 1.54249e-16)
(2.21782e-15 0 1.40062e-16)
(2.03768e-15 0 1.26683e-16)
(1.85748e-15 0 1.14244e-16)
(1.68076e-15 0 1.02798e-16)
(1.5103e-15 0 9.23444e-17)
(1.34806e-15 0 8.29249e-17)
(1.19529e-15 0 7.44773e-17)
(1.0529e-15 0 6.69603e-17)
(9.21355e-16 0 6.03015e-17)
(8.00763e-16 0 5.44388e-17)
(6.91068e-16 0 4.93413e-17)
(5.92003e-16 0 4.48746e-17)
(5.03164e-16 0 4.10075e-17)
(4.24085e-16 0 3.76781e-17)
(3.54219e-16 0 3.4845e-17)
(2.92956e-16 0 3.24048e-17)
(2.39717e-16 0 3.03058e-17)
(1.9386e-16 0 2.84757e-17)
(1.54734e-16 0 2.69351e-17)
(1.2174e-16 0 2.56219e-17)
(9.42779e-17 0 2.44845e-17)
(7.17062e-17 0 2.34816e-17)
(5.34669e-17 0 2.26027e-17)
(3.90739e-17 0 2.18789e-17)
(2.79484e-17 0 2.12172e-17)
(1.95525e-17 0 2.06795e-17)
(1.34624e-17 0 2.02142e-17)
(9.18171e-18 0 1.9811e-17)
(6.22453e-18 0 1.95008e-17)
(4.20828e-18 0 1.92733e-17)
(1.69572e-18 0 1.90769e-17)
(-6.53777e-09 0 6.06369e-08)
(-2.27751e-08 0 6.03579e-08)
(-3.77699e-08 0 5.97015e-08)
(-5.26193e-08 0 5.87003e-08)
(-6.71751e-08 0 5.73729e-08)
(-8.13936e-08 0 5.57237e-08)
(-9.51789e-08 0 5.37813e-08)
(-1.08459e-07 0 5.1544e-08)
(-1.2117e-07 0 4.90616e-08)
(-1.33248e-07 0 4.63315e-08)
(-1.44622e-07 0 4.33418e-08)
(-1.55279e-07 0 4.00313e-08)
(-1.65129e-07 0 3.68713e-08)
(-1.74282e-07 0 3.3545e-08)
(-1.82834e-07 0 3.11535e-08)
(-1.90523e-07 0 2.98297e-08)
(-1.97066e-07 0 2.29128e-08)
(-2.02513e-07 0 1.89863e-08)
(-2.07923e-07 0 1.74441e-08)
(-2.12488e-07 0 1.67647e-08)
(-2.15511e-07 0 9.05089e-09)
(-2.18007e-07 0 7.38098e-09)
(-2.20254e-07 0 5.07156e-09)
(-2.21611e-07 0 2.37081e-09)
(-2.22296e-07 0 -1.02973e-09)
(-2.22549e-07 0 -2.89923e-09)
(-2.22174e-07 0 -5.35227e-09)
(-2.21271e-07 0 -7.59707e-09)
(-2.19855e-07 0 -9.72569e-09)
(-2.17934e-07 0 -1.18728e-08)
(-2.15488e-07 0 -1.39719e-08)
(-2.12564e-07 0 -1.59842e-08)
(-2.0916e-07 0 -1.79714e-08)
(-2.05264e-07 0 -1.99049e-08)
(-2.00882e-07 0 -2.17332e-08)
(-1.96022e-07 0 -2.37059e-08)
(-1.90702e-07 0 -2.54909e-08)
(-1.84903e-07 0 -2.72522e-08)
(-1.7861e-07 0 -2.8998e-08)
(-1.71922e-07 0 -3.06044e-08)
(-1.64808e-07 0 -3.21341e-08)
(-1.57239e-07 0 -3.35078e-08)
(-1.49353e-07 0 -3.47784e-08)
(-1.41081e-07 0 -3.58811e-08)
(-1.32516e-07 0 -3.67894e-08)
(-1.23682e-07 0 -3.74793e-08)
(-1.14653e-07 0 -3.7955e-08)
(-1.05481e-07 0 -3.81489e-08)
(-9.62112e-08 0 -3.81077e-08)
(-8.69299e-08 0 -3.78067e-08)
(-7.76873e-08 0 -3.71977e-08)
(-6.85705e-08 0 -3.62981e-08)
(-5.96492e-08 0 -3.51575e-08)
(-5.09823e-08 0 -3.37208e-08)
(-4.26597e-08 0 -3.20122e-08)
(-3.47128e-08 0 -3.01877e-08)
(-2.72206e-08 0 -2.80522e-08)
(-2.02112e-08 0 -2.58081e-08)
(-1.37284e-08 0 -2.3431e-08)
(-7.78528e-09 0 -2.09812e-08)
(-2.45381e-09 0 -1.85026e-08)
(2.32944e-09 0 -1.60304e-08)
(6.52238e-09 0 -1.355e-08)
(1.01524e-08 0 -1.12034e-08)
(1.32568e-08 0 -8.93735e-09)
(1.58386e-08 0 -6.81315e-09)
(1.79428e-08 0 -4.9417e-09)
(1.9636e-08 0 -3.24422e-09)
(2.09631e-08 0 -1.86676e-09)
(2.19546e-08 0 -7.60885e-10)
(2.26934e-08 0 2.80678e-11)
(2.32536e-08 0 4.69508e-10)
(2.36827e-08 0 5.84898e-10)
(2.40609e-08 0 5.12249e-10)
(2.44528e-08 0 5.42837e-10)
(2.52049e-08 0 1.29281e-09)
(2.5484e-08 0 4.68176e-09)
(2.85279e-09 0 7.93807e-08)
(-5.91304e-10 0 6.18592e-08)
(-1.30845e-14 0 1.34033e-13)
(1.57894e-15 0 3.49008e-16)
(3.11349e-15 0 3.29849e-16)
(3.0688e-15 0 3.10513e-16)
(3.01889e-15 0 2.90475e-16)
(2.93777e-15 0 2.70012e-16)
(2.8283e-15 0 2.49457e-16)
(2.69517e-15 0 2.2916e-16)
(2.54317e-15 0 2.0939e-16)
(2.37717e-15 0 1.90407e-16)
(2.20222e-15 0 1.72415e-16)
(2.02312e-15 0 1.55593e-16)
(1.84408e-15 0 1.40052e-16)
(1.66852e-15 0 1.25845e-16)
(1.49919e-15 0 1.12931e-16)
(1.33809e-15 0 1.01319e-16)
(1.18643e-15 0 9.09589e-17)
(1.04503e-15 0 8.17772e-17)
(9.14417e-16 0 7.36708e-17)
(7.94714e-16 0 6.65777e-17)
(6.85795e-16 0 6.04152e-17)
(5.87443e-16 0 5.50592e-17)
(4.99245e-16 0 5.04373e-17)
(4.20704e-16 0 4.64876e-17)
(3.51324e-16 0 4.31065e-17)
(2.90485e-16 0 4.01803e-17)
(2.37587e-16 0 3.76781e-17)
(1.9204e-16 0 3.55688e-17)
(1.53204e-16 0 3.37386e-17)
(1.20427e-16 0 3.2167e-17)
(9.30992e-17 0 3.08021e-17)
(7.06722e-17 0 2.95717e-17)
(5.25777e-17 0 2.85067e-17)
(3.82778e-17 0 2.75968e-17)
(2.72659e-17 0 2.67593e-17)
(1.89838e-17 0 2.60459e-17)
(1.29454e-17 0 2.54255e-17)
(8.72676e-18 0 2.48671e-17)
(5.88332e-18 0 2.44225e-17)
(3.93945e-18 0 2.40813e-17)
(1.5613e-18 0 2.37918e-17)
(-6.64181e-09 0 7.47974e-08)
(-2.33463e-08 0 7.4375e-08)
(-3.86899e-08 0 7.35438e-08)
(-5.39134e-08 0 7.22836e-08)
(-6.88339e-08 0 7.06645e-08)
(-8.33895e-08 0 6.8642e-08)
(-9.74933e-08 0 6.62358e-08)
(-1.11078e-07 0 6.34847e-08)
(-1.24065e-07 0 6.0404e-08)
(-1.36358e-07 0 5.70029e-08)
(-1.47933e-07 0 5.32548e-08)
(-1.58795e-07 0 4.91611e-08)
(-1.68663e-07 0 4.56086e-08)
(-1.78122e-07 0 4.08185e-08)
(-1.87071e-07 0 3.84692e-08)
(-1.94429e-07 0 3.59691e-08)
(-2.00505e-07 0 2.78435e-08)
(-2.0636e-07 0 2.3594e-08)
(-2.11814e-07 0 2.13766e-08)
(-2.1593e-07 0 2.00158e-08)
(-2.18674e-07 0 1.04518e-08)
(-2.21304e-07 0 9.18442e-09)
(-2.23308e-07 0 5.92304e-09)
(-2.24493e-07 0 2.43541e-09)
(-2.2507e-07 0 -1.27296e-09)
(-2.25218e-07 0 -3.78574e-09)
(-2.24732e-07 0 -6.71619e-09)
(-2.23752e-07 0 -9.44469e-09)
(-2.22252e-07 0 -1.20069e-08)
(-2.20249e-07 0 -1.46466e-08)
(-2.17753e-07 0 -1.71773e-08)
(-2.14784e-07 0 -1.96152e-08)
(-2.11324e-07 0 -2.20404e-08)
(-2.07393e-07 0 -2.44113e-08)
(-2.02978e-07 0 -2.66504e-08)
(-1.98059e-07 0 -2.9064e-08)
(-1.92713e-07 0 -3.12511e-08)
(-1.86841e-07 0 -3.3484e-08)
(-1.80478e-07 0 -3.56053e-08)
(-1.73673e-07 0 -3.76e-08)
(-1.66444e-07 0 -3.9511e-08)
(-1.58737e-07 0 -4.12519e-08)
(-1.50634e-07 0 -4.28265e-08)
(-1.42201e-07 0 -4.42259e-08)
(-1.33422e-07 0 -4.53704e-08)
(-1.24348e-07 0 -4.6262e-08)
(-1.15049e-07 0 -4.68534e-08)
(-1.05615e-07 0 -4.71436e-08)
(-9.60387e-08 0 -4.71153e-08)
(-8.64285e-08 0 -4.67473e-08)
(-7.68798e-08 0 -4.60105e-08)
(-6.74478e-08 0 -4.49024e-08)
(-5.82042e-08 0 -4.34912e-08)
(-4.92559e-08 0 -4.16677e-08)
(-4.067e-08 0 -3.95711e-08)
(-3.24837e-08 0 -3.72687e-08)
(-2.479e-08 0 -3.45698e-08)
(-1.76239e-08 0 -3.17732e-08)
(-1.10235e-08 0 -2.87973e-08)
(-5.0106e-09 0 -2.57125e-08)
(3.51681e-10 0 -2.25677e-08)
(5.09184e-09 0 -1.95128e-08)
(9.24366e-09 0 -1.6364e-08)
(1.27598e-08 0 -1.34102e-08)
(1.56841e-08 0 -1.05856e-08)
(1.80716e-08 0 -7.91531e-09)
(1.99594e-08 0 -5.51713e-09)
(2.13881e-08 0 -3.41801e-09)
(2.23986e-08 0 -1.64917e-09)
(2.30589e-08 0 -2.05652e-10)
(2.34467e-08 0 8.22673e-10)
(2.36382e-08 0 1.44234e-09)
(2.37722e-08 0 1.6107e-09)
(2.40622e-08 0 1.43032e-09)
(2.47716e-08 0 1.08497e-09)
(2.6658e-08 0 8.19337e-10)
(2.63944e-08 0 7.27751e-09)
(1.94316e-10 0 1.04284e-07)
(-5.7746e-10 0 6.41783e-08)
(-1.27721e-14 0 1.62912e-13)
(1.56774e-15 0 4.2757e-16)
(3.09111e-15 0 4.02093e-16)
(3.04613e-15 0 3.76791e-16)
(2.99581e-15 0 3.51035e-16)
(2.91459e-15 0 3.25134e-16)
(2.80533e-15 0 2.99429e-16)
(2.6728e-15 0 2.74283e-16)
(2.52164e-15 0 2.50015e-16)
(2.35669e-15 0 2.26896e-16)
(2.183e-15 0 2.0512e-16)
(2.0053e-15 0 1.84865e-16)
(1.82773e-15 0 1.66222e-16)
(1.65365e-15 0 1.49223e-16)
(1.48577e-15 0 1.33869e-16)
(1.32606e-15 0 1.20045e-16)
(1.17572e-15 0 1.0773e-16)
(1.0356e-15 0 9.68525e-17)
(9.06156e-16 0 8.72676e-17)
(7.87507e-16 0 7.8913e-17)
(6.7955e-16 0 7.16338e-17)
(5.82035e-16 0 6.53266e-17)
(4.94602e-16 0 5.98982e-17)
(4.16744e-16 0 5.5266e-17)
(3.47902e-16 0 5.12852e-17)
(2.87549e-16 0 4.78627e-17)
(2.35095e-16 0 4.49366e-17)
(1.899e-16 0 4.2455e-17)
(1.51353e-16 0 4.0263e-17)
(1.18825e-16 0 3.83708e-17)
(9.16826e-17 0 3.67165e-17)
(6.94005e-17 0 3.52379e-17)
(5.14817e-17 0 3.39454e-17)
(3.73369e-17 0 3.28081e-17)
(2.64077e-17 0 3.17534e-17)
(1.82187e-17 0 3.08332e-17)
(1.22836e-17 0 3.00163e-17)
(8.16841e-18 0 2.93339e-17)
(5.42837e-18 0 2.87549e-17)
(3.57756e-18 0 2.82792e-17)
(1.40621e-18 0 2.79277e-17)
(-6.76731e-09 0 8.94071e-08)
(-2.40442e-08 0 8.8866e-08)
(-3.9821e-08 0 8.78446e-08)
(-5.5482e-08 0 8.63396e-08)
(-7.08357e-08 0 8.43937e-08)
(-8.58033e-08 0 8.19781e-08)
(-1.0031e-07 0 7.90852e-08)
(-1.14256e-07 0 7.57891e-08)
(-1.27546e-07 0 7.20646e-08)
(-1.40109e-07 0 6.79484e-08)
(-1.52096e-07 0 6.3189e-08)
(-1.62948e-07 0 5.90663e-08)
(-1.73064e-07 0 5.36597e-08)
(-1.83042e-07 0 4.88197e-08)
(-1.92045e-07 0 4.74255e-08)
(-1.99116e-07 0 4.02869e-08)
(-2.04759e-07 0 3.26487e-08)
(-2.1119e-07 0 2.80488e-08)
(-2.16656e-07 0 2.61285e-08)
(-2.1995e-07 0 2.25639e-08)
(-2.22287e-07 0 1.15332e-08)
(-2.25358e-07 0 1.0995e-08)
(-2.26978e-07 0 6.66406e-09)
(-2.27917e-07 0 2.17301e-09)
(-2.28387e-07 0 -1.54726e-09)
(-2.28413e-07 0 -4.80508e-09)
(-2.27796e-07 0 -8.16307e-09)
(-2.26691e-07 0 -1.13775e-08)
(-2.2509e-07 0 -1.43786e-08)
(-2.23014e-07 0 -1.74671e-08)
(-2.20459e-07 0 -2.04147e-08)
(-2.17438e-07 0 -2.32894e-08)
(-2.13944e-07 0 -2.61386e-08)
(-2.09974e-07 0 -2.89464e-08)
(-2.05526e-07 0 -3.16025e-08)
(-2.00559e-07 0 -3.44698e-08)
(-1.9515e-07 0 -3.70639e-08)
(-1.89213e-07 0 -3.97748e-08)
(-1.82781e-07 0 -4.23243e-08)
(-1.75808e-07 0 -4.47156e-08)
(-1.68445e-07 0 -4.70411e-08)
(-1.60574e-07 0 -4.91877e-08)
(-1.52233e-07 0 -5.10626e-08)
(-1.43602e-07 0 -5.27899e-08)
(-1.34544e-07 0 -5.42171e-08)
(-1.25186e-07 0 -5.53339e-08)
(-1.15545e-07 0 -5.60766e-08)
(-1.05729e-07 0 -5.64643e-08)
(-9.58011e-08 0 -5.64831e-08)
(-8.58159e-08 0 -5.6048e-08)
(-7.58728e-08 0 -5.51791e-08)
(-6.60513e-08 0 -5.3876e-08)
(-5.64449e-08 0 -5.21575e-08)
(-4.71434e-08 0 -4.99412e-08)
(-3.82097e-08 0 -4.7433e-08)
(-2.97244e-08 0 -4.45773e-08)
(-2.17769e-08 0 -4.13453e-08)
(-1.44024e-08 0 -3.78962e-08)
(-7.65899e-09 0 -3.42796e-08)
(-1.58955e-09 0 -3.05107e-08)
(3.82942e-09 0 -2.66582e-08)
(8.56375e-09 0 -2.29109e-08)
(1.2582e-08 0 -1.91177e-08)
(1.59671e-08 0 -1.54968e-08)
(1.87207e-08 0 -1.20439e-08)
(2.08712e-08 0 -8.72605e-09)
(2.24636e-08 0 -5.89823e-09)
(2.35604e-08 0 -3.30187e-09)
(2.4206e-08 0 -1.06154e-09)
(2.44389e-08 0 7.3243e-10)
(2.43478e-08 0 2.04512e-09)
(2.40453e-08 0 2.82958e-09)
(2.36835e-08 0 2.98971e-09)
(2.35597e-08 0 2.45827e-09)
(2.42004e-08 0 1.22712e-09)
(2.57765e-08 0 -2.86087e-10)
(1.23747e-08 0 2.65441e-08)
(-3.11588e-09 0 1.35273e-07)
(-5.64263e-10 0 6.03887e-08)
(-1.23943e-14 0 1.90551e-13)
(1.55345e-15 0 5.05314e-16)
(3.06271e-15 0 4.73788e-16)
(3.01774e-15 0 4.42738e-16)
(2.96723e-15 0 4.1144e-16)
(2.88616e-15 0 3.80224e-16)
(2.77745e-15 0 3.49494e-16)
(2.64577e-15 0 3.19612e-16)
(2.49578e-15 0 2.90888e-16)
(2.33228e-15 0 2.63674e-16)
(2.16019e-15 0 2.38166e-16)
(1.98423e-15 0 2.14488e-16)
(1.80844e-15 0 1.92743e-16)
(1.63615e-15 0 1.72943e-16)
(1.47001e-15 0 1.55117e-16)
(1.31196e-15 0 1.3908e-16)
(1.16322e-15 0 1.2477e-16)
(1.02457e-15 0 1.12145e-16)
(8.96478e-16 0 1.01071e-16)
(7.7908e-16 0 9.13621e-17)
(6.72229e-16 0 8.29249e-17)
(5.75718e-16 0 7.5625e-17)
(4.89184e-16 0 6.93488e-17)
(4.12101e-16 0 6.39617e-17)
(3.43942e-16 0 5.93192e-17)
(2.84157e-16 0 5.53487e-17)
(2.32169e-16 0 5.19573e-17)
(1.87356e-16 0 4.89898e-17)
(1.4912e-16 0 4.64359e-17)
(1.1686e-16 0 4.41818e-17)
(8.99662e-17 0 4.21655e-17)
(6.79115e-17 0 4.04078e-17)
(5.01478e-17 0 3.88361e-17)
(3.61064e-17 0 3.74299e-17)
(2.53014e-17 0 3.61168e-17)
(1.72467e-17 0 3.49794e-17)
(1.14565e-17 0 3.39764e-17)
(7.47565e-18 0 3.31182e-17)
(4.84935e-18 0 3.24151e-17)
(3.12261e-18 0 3.18154e-17)
(1.20975e-18 0 3.14122e-17)
(-6.91863e-09 0 1.04565e-07)
(-2.48837e-08 0 1.03914e-07)
(-4.11686e-08 0 1.02705e-07)
(-5.73459e-08 0 1.00957e-07)
(-7.32178e-08 0 9.86518e-08)
(-8.86641e-08 0 9.58184e-08)
(-1.03647e-07 0 9.24136e-08)
(-1.18018e-07 0 8.85296e-08)
(-1.31651e-07 0 8.41512e-08)
(-1.44838e-07 0 7.88764e-08)
(-1.56931e-07 0 7.41522e-08)
(-1.67837e-07 0 6.88126e-08)
(-1.78563e-07 0 6.1881e-08)
(-1.89319e-07 0 5.78925e-08)
(-1.97505e-07 0 5.63499e-08)
(-2.04304e-07 0 4.37288e-08)
(-2.10389e-07 0 3.79298e-08)
(-2.17049e-07 0 3.28382e-08)
(-2.21836e-07 0 3.29431e-08)
(-2.24279e-07 0 1.83712e-08)
(-2.27282e-07 0 1.67326e-08)
(-2.29823e-07 0 1.15889e-08)
(-2.31228e-07 0 7.51354e-09)
(-2.31856e-07 0 1.33374e-09)
(-2.32319e-07 0 -1.79833e-09)
(-2.32058e-07 0 -5.99174e-09)
(-2.31303e-07 0 -9.7609e-09)
(-2.30073e-07 0 -1.34008e-08)
(-2.28383e-07 0 -1.68319e-08)
(-2.26214e-07 0 -2.03447e-08)
(-2.23604e-07 0 -2.37009e-08)
(-2.20536e-07 0 -2.7008e-08)
(-2.16989e-07 0 -3.0269e-08)
(-2.1298e-07 0 -3.35131e-08)
(-2.08498e-07 0 -3.65814e-08)
(-2.03521e-07 0 -3.99126e-08)
(-1.9802e-07 0 -4.29529e-08)
(-1.92013e-07 0 -4.61475e-08)
(-1.8548e-07 0 -4.91377e-08)
(-1.78401e-07 0 -5.19875e-08)
(-1.70852e-07 0 -5.47255e-08)
(-1.62825e-07 0 -5.73059e-08)
(-1.54271e-07 0 -5.95828e-08)
(-1.45269e-07 0 -6.15944e-08)
(-1.35954e-07 0 -6.33691e-08)
(-1.26241e-07 0 -6.47513e-08)
(-1.16218e-07 0 -6.57035e-08)
(-1.05944e-07 0 -6.61834e-08)
(-9.56017e-08 0 -6.62564e-08)
(-8.515e-08 0 -6.57937e-08)
(-7.4713e-08 0 -6.48032e-08)
(-6.43987e-08 0 -6.32875e-08)
(-5.43234e-08 0 -6.12542e-08)
(-4.45819e-08 0 -5.86003e-08)
(-3.52381e-08 0 -5.56685e-08)
(-2.64076e-08 0 -5.21871e-08)
(-1.81752e-08 0 -4.83758e-08)
(-1.05563e-08 0 -4.42324e-08)
(-3.62619e-09 0 -3.99033e-08)
(2.56701e-09 0 -3.53546e-08)
(8.02075e-09 0 -3.08259e-08)
(1.27211e-08 0 -2.63014e-08)
(1.6653e-08 0 -2.16879e-08)
(1.9842e-08 0 -1.74103e-08)
(2.23548e-08 0 -1.32187e-08)
(2.42306e-08 0 -9.42828e-09)
(2.55047e-08 0 -5.90803e-09)
(2.62079e-08 0 -2.78063e-09)
(2.64031e-08 0 -7.92274e-11)
(2.61575e-08 0 2.13413e-09)
(2.55149e-08 0 3.78863e-09)
(2.45534e-08 0 4.80647e-09)
(2.33851e-08 0 5.05441e-09)
(2.22847e-08 0 4.20656e-09)
(2.21541e-08 0 1.71367e-09)
(2.59556e-08 0 -4.32984e-09)
(-3.76777e-10 0 6.04508e-08)
(-5.20779e-09 0 1.1341e-07)
(-5.50776e-10 0 5.72596e-08)
(-1.19256e-14 0 2.16664e-13)
(1.53624e-15 0 5.81984e-16)
(3.02854e-15 0 5.4473e-16)
(2.98379e-15 0 5.08199e-16)
(2.9333e-15 0 4.71565e-16)
(2.85265e-15 0 4.35211e-16)
(2.74472e-15 0 3.99601e-16)
(2.6142e-15 0 3.65097e-16)
(2.46571e-15 0 3.32072e-16)
(2.30398e-15 0 3.00835e-16)
(2.13384e-15 0 2.71625e-16)
(1.95989e-15 0 2.44546e-16)
(1.78617e-15 0 2.19699e-16)
(1.616e-15 0 1.97096e-16)
(1.45191e-15 0 1.76727e-16)
(1.29575e-15 0 1.58457e-16)
(1.14881e-15 0 1.42141e-16)
(1.0119e-15 0 1.27727e-16)
(8.85373e-16 0 1.15082e-16)
(7.69361e-16 0 1.03977e-16)
(6.63813e-16 0 9.434e-17)
(5.6847e-16 0 8.59958e-17)
(4.82939e-16 0 7.88096e-17)
(4.06725e-16 0 7.25851e-17)
(3.3933e-16 0 6.72291e-17)
(2.80197e-16 0 6.26279e-17)
(2.28726e-16 0 5.86678e-17)
(1.84379e-16 0 5.51936e-17)
(1.46525e-16 0 5.21848e-17)
(1.14534e-16 0 4.95274e-17)
(8.79086e-17 0 4.71286e-17)
(6.60917e-17 0 4.50296e-17)
(4.85141e-17 0 4.31271e-17)
(3.46279e-17 0 4.13901e-17)
(2.39676e-17 0 3.98391e-17)
(1.60576e-17 0 3.84225e-17)
(1.04121e-17 0 3.72438e-17)
(6.59677e-18 0 3.61892e-17)
(4.1359e-18 0 3.5362e-17)
(2.58494e-18 0 3.46796e-17)
(9.92617e-19 0 3.42349e-17)
(-7.08971e-09 0 1.20368e-07)
(-2.58759e-08 0 1.19598e-07)
(-4.27682e-08 0 1.18192e-07)
(-5.95252e-08 0 1.1619e-07)
(-7.59963e-08 0 1.13512e-07)
(-9.20365e-08 0 1.10214e-07)
(-1.07516e-07 0 1.06346e-07)
(-1.22368e-07 0 1.01747e-07)
(-1.36759e-07 0 9.62758e-08)
(-1.50224e-07 0 9.09337e-08)
(-1.62397e-07 0 8.53498e-08)
(-1.7374e-07 0 7.82255e-08)
(-1.85817e-07 0 7.05181e-08)
(-1.95823e-07 0 6.95349e-08)
(-2.0381e-07 0 6.03956e-08)
(-2.1047e-07 0 4.97843e-08)
(-2.17789e-07 0 4.22085e-08)
(-2.23411e-07 0 3.85128e-08)
(-2.27252e-07 0 3.728e-08)
(-2.29427e-07 0 1.84565e-08)
(-2.33254e-07 0 1.943e-08)
(-2.34852e-07 0 1.24331e-08)
(-2.35998e-07 0 7.2998e-09)
(-2.36501e-07 0 1.37101e-09)
(-2.36734e-07 0 -2.66043e-09)
(-2.36203e-07 0 -7.27081e-09)
(-2.35275e-07 0 -1.15108e-08)
(-2.33899e-07 0 -1.54815e-08)
(-2.32077e-07 0 -1.94075e-08)
(-2.29817e-07 0 -2.32758e-08)
(-2.27143e-07 0 -2.70257e-08)
(-2.24037e-07 0 -3.07409e-08)
(-2.20476e-07 0 -3.44267e-08)
(-2.16441e-07 0 -3.80969e-08)
(-2.11933e-07 0 -4.1612e-08)
(-2.0696e-07 0 -4.53121e-08)
(-2.01333e-07 0 -4.89801e-08)
(-1.95282e-07 0 -5.25499e-08)
(-1.88673e-07 0 -5.60678e-08)
(-1.81489e-07 0 -5.94358e-08)
(-1.73674e-07 0 -6.25792e-08)
(-1.65456e-07 0 -6.56332e-08)
(-1.56676e-07 0 -6.83808e-08)
(-1.47351e-07 0 -7.07973e-08)
(-1.376e-07 0 -7.28285e-08)
(-1.27506e-07 0 -7.45681e-08)
(-1.17045e-07 0 -7.57793e-08)
(-1.06287e-07 0 -7.64377e-08)
(-9.53301e-08 0 -7.65023e-08)
(-8.43652e-08 0 -7.60802e-08)
(-7.33603e-08 0 -7.49756e-08)
(-6.24928e-08 0 -7.324e-08)
(-5.18781e-08 0 -7.07919e-08)
(-4.15844e-08 0 -6.78233e-08)
(-3.17346e-08 0 -6.43388e-08)
(-2.24729e-08 0 -6.01712e-08)
(-1.38585e-08 0 -5.57023e-08)
(-5.93955e-09 0 -5.08385e-08)
(1.20043e-09 0 -4.57048e-08)