/*--------------------------------*- C++ -*----------------------------------*\
  =========                 |
  \\      /  F ield         | OpenFOAM: The Open Source CFD Toolbox
   \\    /   O peration     | Website:  https://openfoam.org
    \\  /    A nd           | Version:  6
     \\/     M anipulation  |
\*---------------------------------------------------------------------------*/
FoamFile
{
    version     2.0;
    format      ascii;
    class       volScalarField;
    location    "4350";
    object      Su;
}
// * * * * * * * * * * * * * * * * * * * * * * * * * * * * * * * * * * * * * //

dimensions      [0 0 -1 0 0 0 0];

internalField   nonuniform List<scalar> 
4800
(
0.216856
0.209417
0.202058
0.194845
0.187893
0.18134
0.17528
0.169768
0.164821
0.160416
0.156512
0.153066
0.150021
0.147324
0.144916
0.142738
0.140749
0.138909
0.137177
0.135517
0.133925
0.132376
0.130836
0.129295
0.127749
0.126178
0.124567
0.122909
0.121202
0.119441
0.11762
0.115751
0.113848
0.111918
0.109965
0.107996
0.106012
0.104013
0.101996
0.0999555
0.0978851
0.0957772
0.093625
0.0914229
0.0891657
0.0868508
0.0844785
0.0820508
0.0795704
0.0770387
0.0744581
0.0718331
0.0691635
0.0664477
0.0636784
0.0608485
0.0579565
0.0550074
0.0520195
0.0490249
0.0460628
0.0431659
0.0403561
0.0376458
0.0350393
0.0325359
0.0301247
0.0277902
0.0255182
0.0232922
0.0210912
0.0188938
0.0166774
0.0144137
0.0120815
0.009672
0.00718034
0.00460797
0.00195669
-0.00077557
-0.00356966
-0.00635639
-0.00910727
-0.0118404
-0.0145629
-0.0172791
-0.0199919
-0.0227035
-0.0254151
-0.0281273
-0.0308402
-0.0335536
-0.0362673
-0.0389808
-0.0416937
-0.0444056
-0.0471163
-0.0498253
-0.0525325
-0.0552377
-0.0579408
-0.0606416
-0.0633401
-0.0660364
-0.0687305
-0.0714225
-0.0741124
-0.0768004
-0.0794867
-0.0821712
-0.0848543
-0.0875359
-0.0902164
-0.0928957
-0.0955742
-0.0982518
-0.100929
-0.103605
-0.106282
-0.108958
0.21684
0.209367
0.201977
0.194757
0.187846
0.181373
0.175398
0.169942
0.165021
0.160634
0.156744
0.153301
0.150254
0.147548
0.145125
0.142935
0.140937
0.139084
0.137333
0.135663
0.134059
0.132485
0.130926
0.129375
0.127812
0.126223
0.124601
0.12294
0.121236
0.119479
0.117669
0.115816
0.113927
0.112006
0.110061
0.1081
0.106125
0.104135
0.102126
0.100093
0.09803
0.0959285
0.0937817
0.0915831
0.0893277
0.087013
0.0846392
0.0822079
0.0797214
0.0771823
0.0745938
0.0719584
0.0692762
0.0665459
0.0637616
0.0609183
0.0580158
0.0550612
0.0520737
0.0490842
0.0461272
0.0432342
0.0404255
0.0377098
0.0350929
0.0325734
0.0301422
0.027786
0.0254911
0.0232429
0.021022
0.0188038
0.0165641
0.0142858
0.0119501
0.00954269
0.00705737
0.00448808
0.00183842
-0.000879702
-0.00363716
-0.00638973
-0.00912467
-0.0118491
-0.0145665
-0.0172795
-0.0199905
-0.0227012
-0.0254125
-0.0281248
-0.030838
-0.0335519
-0.036266
-0.03898
-0.0416935
-0.0444059
-0.047117
-0.0498264
-0.0525339
-0.0552393
-0.0579426
-0.0606435
-0.0633421
-0.0660384
-0.0687325
-0.0714245
-0.0741143
-0.0768023
-0.0794884
-0.0821728
-0.0848557
-0.0875372
-0.0902175
-0.0928967
-0.095575
-0.0982525
-0.100929
-0.103606
-0.106282
-0.108958
0.216832
0.209361
0.202037
0.194924
0.18808
0.18163
0.175697
0.1703
0.165424
0.161064
0.157187
0.153749
0.150702
0.147987
0.145547
0.143337
0.141317
0.13943
0.137649
0.135955
0.134322
0.132708
0.131117
0.129536
0.127937
0.126321
0.124686
0.123019
0.121313
0.119559
0.117766
0.115936
0.11407
0.112171
0.110247
0.108304
0.106346
0.104373
0.102381
0.100366
0.0983183
0.0962301
0.0940936
0.0919022
0.0896512
0.0873381
0.0849633
0.0825278
0.0800336
0.0774835
0.0748801
0.0722258
0.0695205
0.0667634
0.063952
0.0610863
0.0581649
0.0551959
0.0522043
0.0492229
0.0462783
0.0433925
0.0405813
0.0378551
0.0352213
0.032674
0.0302058
0.0278098
0.0254728
0.0231782
0.0209115
0.0186553
0.016383
0.0140767
0.0117288
0.00932357
0.0068504
0.00430187
0.00167974
-0.000999203
-0.00371571
-0.00643831
-0.00915232
-0.011863
-0.0145715
-0.017279
-0.0199869
-0.022696
-0.0254069
-0.0281194
-0.0308333
-0.0335482
-0.0362635
-0.0389786
-0.0416931
-0.0444065
-0.0471185
-0.0498286
-0.0525367
-0.0552426
-0.0579462
-0.0606474
-0.0633461
-0.0660425
-0.0687366
-0.0714284
-0.0741182
-0.0768059
-0.0794918
-0.082176
-0.0848586
-0.0875399
-0.0902199
-0.0928988
-0.0955768
-0.098254
-0.100931
-0.103607
-0.106282
-0.108958
0.216877
0.209445
0.202104
0.195024
0.188308
0.182011
0.176179
0.170842
0.166017
0.161693
0.157834
0.154405
0.151358
0.14863
0.146168
0.143933
0.141877
0.13995
0.138133
0.136401
0.134722
0.133064
0.131433
0.129805
0.128167
0.126525
0.124868
0.123181
0.121459
0.119705
0.117924
0.116109
0.114262
0.112389
0.110496
0.108583
0.106655
0.104708
0.102741
0.100749
0.0987225
0.0966521
0.0945307
0.092351
0.0901085
0.0878014
0.0854293
0.0829928
0.0804935
0.0779327
0.0753125
0.072634
0.0698958
0.067101
0.0642537
0.0613568
0.0584084
0.0554229
0.0524305
0.0494573
0.0465238
0.0436444
0.0408302
0.0380922
0.0354353
0.0328524
0.0303405
0.0278925
0.0254966
0.0231427
0.020816
0.0184994
0.016184
0.0138536
0.0114886
0.00907847
0.00661713
0.00409704
0.00151372
-0.00112426
-0.00380241
-0.00649334
-0.00918324
-0.0118771
-0.0145746
-0.0172753
-0.0199794
-0.0226868
-0.0253975
-0.0281107
-0.030826
-0.0335425
-0.0362595
-0.0389764
-0.0416926
-0.0444075
-0.0471208
-0.0498321
-0.0525411
-0.0552477
-0.0579518
-0.0606533
-0.0633523
-0.0660487
-0.0687427
-0.0714344
-0.0741239
-0.0768114
-0.079497
-0.0821808
-0.084863
-0.0875438
-0.0902234
-0.0929018
-0.0955794
-0.0982561
-0.100932
-0.103608
-0.106283
-0.108958
0.216918
0.209597
0.20238
0.195396
0.188772
0.182574
0.176832
0.171569
0.166804
0.16252
0.158682
0.155262
0.152209
0.149461
0.146975
0.144708
0.142611
0.140644
0.138788
0.137011
0.135282
0.133578
0.131897
0.13022
0.128541
0.126862
0.125165
0.123445
0.121702
0.119938
0.118153
0.116344
0.114512
0.112661
0.110792
0.108909
0.107011
0.105096
0.103162
0.101202
0.0992053
0.0971606
0.0950595
0.0928949
0.090664
0.0883666
0.0860022
0.0835704
0.0810703
0.078501
0.075862
0.0731547
0.0703806
0.0675471
0.0646587
0.0617203
0.0587367
0.0557342
0.0527441
0.049784
0.0468657
0.0439961
0.0411825
0.0384345
0.0357511
0.0331301
0.0305716
0.0280615
0.0255942
0.0231667
0.0207724
0.0184009
0.0160361
0.0136601
0.0112647
0.00884262
0.00638449
0.00388492
0.00133719
-0.00126009
-0.00389493
-0.0065474
-0.00921023
-0.0118858
-0.0145715
-0.0172652
-0.0199657
-0.0226721
-0.0253832
-0.0280981
-0.0308155
-0.0335345
-0.0362542
-0.0389736
-0.0416921
-0.0444091
-0.0471242
-0.0498369
-0.0525471
-0.0552547
-0.0579594
-0.0606614
-0.0633606
-0.0660571
-0.068751
-0.0714425
-0.0741317
-0.0768188
-0.0795039
-0.0821872
-0.0848689
-0.0875491
-0.0902281
-0.0929059
-0.0955828
-0.0982589
-0.100934
-0.103609
-0.106284
-0.108958
0.216974
0.209787
0.202722
0.195877
0.189374
0.183284
0.177637
0.172456
0.167759
0.163526
0.159717
0.156307
0.153242
0.150468
0.147954
0.14565
0.143511
0.141505
0.139609
0.137784
0.136002
0.134252
0.132521
0.130794
0.129069
0.127342
0.125598
0.123842
0.12207
0.120284
0.118484
0.11667
0.11484
0.112999
0.111145
0.109281
0.10741
0.105527
0.103626
0.1017
0.0997368
0.0977211
0.0956461
0.0935053
0.0912957
0.0890166
0.0866656
0.0842416
0.0817416
0.0791622
0.0765015
0.0737632
0.0709535
0.068082
0.0651545
0.0621787
0.0591697
0.0561601
0.0531732
0.0502209
0.0473127
0.0444522
0.0416429
0.0388875
0.0361815
0.0335244
0.0309102
0.0283303
0.0257878
0.0232782
0.020797
0.0183439
0.0159166
0.0135024
0.0110832
0.00864637
0.0061862
0.00369909
0.00117666
-0.00138573
-0.00397723
-0.00658917
-0.00922466
-0.0118825
-0.0145574
-0.0172453
-0.0199435
-0.02265
-0.025363
-0.0280806
-0.0308015
-0.0335241
-0.0362474
-0.0389701
-0.0416917
-0.0444114
-0.0471288
-0.0498434
-0.0525551
-0.0552638
-0.0579693
-0.0606718
-0.0633713
-0.0660678
-0.0687616
-0.0714528
-0.0741416
-0.0768281
-0.0795126
-0.0821953
-0.0848763
-0.0875558
-0.090234
-0.0929111
-0.0955872
-0.0982625
-0.100937
-0.103611
-0.106285
-0.108959
0.217016
0.209937
0.203026
0.19636
0.190023
0.184076
0.178553
0.173479
0.168869
0.164697
0.160925
0.157523
0.154444
0.151643
0.149093
0.146746
0.144566
0.142526
0.14059
0.138719
0.136895
0.135102
0.133321
0.131547
0.129774
0.127994
0.126199
0.124397
0.122586
0.12077
0.118944
0.11711
0.115271
0.113426
0.111574
0.10972
0.107864
0.106002
0.104127
0.102229
0.100295
0.0983067
0.0962604
0.094146
0.0919594
0.0897011
0.0873659
0.084953
0.0824586
0.0798763
0.0772025
0.0744405
0.0715991
0.0686938
0.0657332
0.0627281
0.0597022
0.056689
0.0537058
0.0507619
0.047864
0.0450134
0.042211
0.039452
0.0367292
0.0340392
0.0313676
0.0287199
0.0261038
0.0235113
0.0209439
0.0184079
0.0159065
0.0134348
0.0109781
0.00852082
0.00605055
0.00356065
0.00104714
-0.00148594
-0.00403307
-0.00660557
-0.00921702
-0.0118604
-0.0145273
-0.0172119
-0.0199101
-0.0226188
-0.0253355
-0.0280578
-0.0307836
-0.0335112
-0.0362392
-0.0389663
-0.0416918
-0.0444148
-0.0471349
-0.0498518
-0.0525653
-0.0552753
-0.0579817
-0.0606848
-0.0633845
-0.066081
-0.0687746
-0.0714653
-0.0741536
-0.0768395
-0.0795232
-0.0822051
-0.0848852
-0.0875638
-0.0902411
-0.0929172
-0.0955924
-0.0982668
-0.10094
-0.103614
-0.106287
-0.108959
0.217086
0.210143
0.203386
0.196903
0.19075
0.184963
0.179577
0.174617
0.170093
0.165982
0.162251
0.158864
0.155778
0.152957
0.150376
0.147992
0.145777
0.143703
0.141728
0.139817
0.137956
0.136123
0.134302
0.132485
0.130665
0.128837
0.126996
0.125148
0.123293
0.121437
0.119571
0.117709
0.115844
0.113977
0.112109
0.110248
0.108393
0.106539
0.104674
0.10279
0.100876
0.0989074
0.096883
0.0947891
0.0926237
0.0903883
0.0880702
0.08567
0.0831827
0.0806025
0.0779273
0.075161
0.0723088
0.0693794
0.066389
0.0633621
0.0603266
0.0573109
0.0543319
0.0513982
0.0485138
0.0456747
0.0428775
0.0401131
0.0373719
0.0346462
0.0319326
0.0292388
0.0265583
0.0238856
0.0212323
0.0186103
0.0160277
0.0134885
0.0109846
0.00849799
0.00601218
0.00351792
0.00100893
-0.00151011
-0.00403349
-0.0065815
-0.00917784
-0.0118128
-0.0144764
-0.0171615
-0.019863
-0.0225769
-0.0252999
-0.028029
-0.0307617
-0.0334958
-0.0362299
-0.0389624
-0.0416926
-0.0444196
-0.0471431
-0.0498626
-0.0525781
-0.0552895
-0.0579969
-0.0607005
-0.0634004
-0.0660968
-0.06879
-0.0714803
-0.0741678
-0.0768529
-0.0795357
-0.0822166
-0.0848957
-0.0875732
-0.0902494
-0.0929244
-0.0955985
-0.0982718
-0.100944
-0.103616
-0.106288
-0.10896
0.217196
0.210467
0.203908
0.197606
0.191616
0.185975
0.180711
0.175856
0.171416
0.167363
0.163669
0.160294
0.157206
0.154373
0.151774
0.149366
0.147123
0.145019
0.143013
0.14107
0.13918
0.137317
0.135463
0.133612
0.131755
0.129886
0.128006
0.126114
0.124215
0.122314
0.120403
0.118502
0.116595
0.114688
0.112788
0.110905
0.109035
0.107173
0.105298
0.103412
0.101498
0.0995279
0.0975108
0.0954255
0.0932736
0.0910515
0.0887455
0.0863584
0.0838777
0.0812991
0.078624
0.0758587
0.0730067
0.070076
0.0670857
0.0640592
0.0610269
0.0580173
0.0550463
0.0521197
0.049243
0.0464119
0.043619
0.0408515
0.0381009
0.0353609
0.0326272
0.0298952
0.0271577
0.0244155
0.021686
0.0189795
0.0163111
0.0136927
0.0111244
0.00859354
0.00608339
0.0035789
0.00106785
-0.00144754
-0.00396596
-0.00650757
-0.00910024
-0.0117345
-0.0144007
-0.0170911
-0.0198001
-0.0225229
-0.0252554
-0.0279939
-0.0307357
-0.0334783
-0.0362199
-0.0389591
-0.0416949
-0.0444266
-0.0471538
-0.0498762
-0.0525939
-0.0553069
-0.0580153
-0.0607193
-0.0634193
-0.0661155
-0.0688082
-0.0714977
-0.0741844
-0.0768684
-0.0795501
-0.0822298
-0.0849077
-0.087584
-0.0902589
-0.0929327
-0.0956055
-0.0982774
-0.100949
-0.10362
-0.10629
-0.10896
0.217312
0.210815
0.204476
0.198367
0.192542
0.187046
0.181911
0.177159
0.172794
0.168795
0.165135
0.161779
0.158698
0.155863
0.153253
0.15083
0.148573
0.146459
0.144434
0.142466
0.14056
0.138676
0.1368
0.134926
0.133042
0.131145
0.129235
0.12731
0.125374
0.123427
0.121469
0.119517
0.117555
0.115596
0.113656
0.111741
0.109844
0.107953
0.106049
0.104136
0.102194
0.100198
0.0981661
0.0960703
0.0939157
0.0916907
0.0893867
0.0870042
0.0845274
0.0819508
0.0792783
0.076519
0.0736769
0.0707623
0.0677905
0.0647788
0.061761
0.0587671
0.0558138
0.0529067
0.0500468
0.0472261
0.0444378
0.0416725
0.0389224
0.03618
0.0334361
0.0306825
0.027909
0.0251161
0.0223225
0.019537
0.0167829
0.0140732
0.0114187
0.00882172
0.00627348
0.0037533
0.00123646
-0.00128939
-0.00382579
-0.00638048
-0.00898064
-0.011622
-0.014297
-0.0169984
-0.0197199
-0.0224559
-0.0252016
-0.0279528
-0.0307062
-0.0334593
-0.03621
-0.038957
-0.0416993
-0.0444363
-0.0471677
-0.0498934
-0.0526133
-0.0553279
-0.0580372
-0.0607416
-0.0634415
-0.0661373
-0.0688292
-0.0715178
-0.0742034
-0.0768862
-0.0795666
-0.0822449
-0.0849213
-0.0875962
-0.0902696
-0.092942
-0.0956133
-0.0982838
-0.100954
-0.103623
-0.106292
-0.108961
0.217445
0.211194
0.205071
0.19915
0.19349
0.188141
0.183134
0.178489
0.174205
0.170265
0.166641
0.163305
0.160236
0.15741
0.154805
0.152386
0.150129
0.148016
0.145977
0.143998
0.142089
0.140194
0.138306
0.136422
0.134526
0.132616
0.130689
0.128741
0.126775
0.124789
0.12279
0.120786
0.118769
0.116759
0.114776
0.112821
0.110885
0.108946
0.10699
0.105021
0.103015
0.10096
0.098874
0.0967375
0.0945545
0.0923077
0.0899909
0.0875968
0.0851144
0.08254
0.0798776
0.0771327
0.0743106
0.0714145
0.0684553
0.0654667
0.0624885
0.0595357
0.0566174
0.0537384
0.0508997
0.0480953
0.0453207
0.0425689
0.0398311
0.0370967
0.0343545
0.0315935
0.0287991
0.0259787
0.0231427
0.0202968
0.0174632
0.0146582
0.0119013
0.00920751
0.00658436
0.00402002
0.00148436
-0.00106172
-0.00362649
-0.00620449
-0.00881838
-0.0114726
-0.0141627
-0.0168814
-0.0196213
-0.0223756
-0.0251388
-0.0279062
-0.0306741
-0.0334398
-0.0362013
-0.0389573
-0.041707
-0.0444499
-0.0471857
-0.0499147
-0.052637
-0.055353
-0.058063
-0.0607676
-0.0634672
-0.0661623
-0.0688533
-0.0715407
-0.0742248
-0.0769062
-0.079585
-0.0822617
-0.0849365
-0.0876097
-0.0902816
-0.0929522
-0.095622
-0.0982909
-0.100959
-0.103627
-0.106295
-0.108962
0.217571
0.211561
0.205654
0.199925
0.19444
0.189248
0.18438
0.179851
0.175658
0.171781
0.168195
0.164882
0.161828
0.159015
0.156423
0.154018
0.151772
0.149666
0.147627
0.145659
0.143755
0.141858
0.13997
0.138089
0.136196
0.134289
0.132362
0.130405
0.128421
0.12641
0.124379
0.122332
0.120273
0.118217
0.116191
0.114188
0.112197
0.110191
0.108157
0.106103
0.104004
0.10187
0.0997045
0.0974977
0.0952431
0.0929359
0.090575
0.0881485
0.0856471
0.0830694
0.0804188
0.077696
0.0749053
0.0720529
0.0691505
0.0662185
0.0632789
0.0603522
0.0574595
0.0546084
0.0517981
0.0490213
0.0462723
0.0435443
0.040826
0.0381048
0.035369
0.0326068
0.0298105
0.0269844
0.0241242
0.0212407
0.0183457
0.0154582
0.0125994
0.00978982
0.00704503
0.00437075
0.0017648
-0.000805186
-0.00338901
-0.00598755
-0.00861278
-0.011283
-0.0139949
-0.0167384
-0.0195037
-0.0222825
-0.0250681
-0.0278555
-0.0306408
-0.0334214
-0.0361953
-0.0389615
-0.0417192
-0.0444683
-0.0472089
-0.0499412
-0.0526656
-0.0553828
-0.0580934
-0.0607978
-0.0634968
-0.0661908
-0.0688805
-0.0715664
-0.0742489
-0.0769285
-0.0796055
-0.0822804
-0.0849533
-0.0876247
-0.0902947
-0.0929635
-0.0956314
-0.0982986
-0.100965
-0.103631
-0.106297
-0.108963
0.217693
0.211919
0.206235
0.200718
0.195425
0.190398
0.185665
0.181243
0.17713
0.17331
0.169767
0.166488
0.163462
0.160675
0.158103
0.155719
0.153492
0.151398
0.149378
0.14743
0.145533
0.143651
0.14178
0.139914
0.138039
0.136145
0.134228
0.132278
0.130295
0.128279
0.126232
0.124161
0.122071
0.119979
0.117912
0.115855
0.113788
0.111694
0.109554
0.107398
0.105189
0.102948
0.100675
0.0983715
0.0960279
0.0936385
0.0911974
0.0887039
0.0861597
0.0835639
0.0809166
0.0782142
0.0754546
0.0726412
0.0697868
0.0669108
0.0640264
0.0611521
0.058308
0.0555027
0.0527335
0.0499973
0.0472886
0.044595
0.0419024
0.0392021
0.0364846
0.0337338
0.0309396
0.0281036
0.0252317
0.022333
0.0194068
0.0164673
0.0135262
0.0106071
0.00773448
0.00492536
0.00219033
-0.000479013
-0.00294186
-0.00573893
-0.00835822
-0.0110469
-0.0137899
-0.0165684
-0.0193679
-0.0221781
-0.0249916
-0.027803
-0.0306088
-0.0334063
-0.0361941
-0.0389713
-0.0417376
-0.0444931
-0.0472383
-0.0499737
-0.0527
-0.0554181
-0.0581287
-0.0608326
-0.0635305
-0.0662231
-0.0689111
-0.0715951
-0.0742756
-0.0769532
-0.0796281
-0.0823008
-0.0849717
-0.0876409
-0.0903089
-0.0929758
-0.0956417
-0.098307
-0.100972
-0.103636
-0.1063
-0.108964
0.217811
0.212272
0.206816
0.201511
0.196412
0.191555
0.186961
0.182648
0.178618
0.174861
0.17137
0.168137
0.16515
0.162395
0.159849
0.157491
0.155286
0.153211
0.15122
0.149297
0.147417
0.145568
0.143726
0.141881
0.140029
0.138155
0.136253
0.134321
0.132354
0.130352
0.128311
0.126235
0.12413
0.122015
0.119902
0.117778
0.115619
0.113427
0.111176
0.108901
0.10656
0.104196
0.101807
0.0993911
0.0969303
0.0944216
0.0918736
0.0892946
0.0866889
0.084059
0.081403
0.0787111
0.0759759
0.0731995
0.0703921
0.0675712
0.0647514
0.0619476
0.0591699
0.0564249
0.0537131
0.0510317
0.0483705
0.045717
0.0430567
0.040381
0.0376831
0.0349435
0.0321531
0.0293174
0.0264428
0.0235322
0.0205891
0.0176215
0.0146346
0.0116424
0.00866796
0.00573149
0.00285599
4.95479e-05
-0.00270784
-0.00534722
-0.00803079
-0.0107514
-0.013544
-0.0163719
-0.0192163
-0.0220656
-0.0249125
-0.0277521
-0.0305811
-0.0333974
-0.0362002
-0.0389889
-0.0417639
-0.0445258
-0.0472753
-0.0500134
-0.0527411
-0.0554595
-0.0581695
-0.0608723
-0.0635686
-0.0662593
-0.0689452
-0.0716269
-0.074305
-0.0769801
-0.0796527
-0.082323
-0.0849915
-0.0876585
-0.0903242
-0.0929889
-0.0956527
-0.0983159
-0.100979
-0.103641
-0.106303
-0.108965
0.217922
0.212609
0.20738
0.202289
0.197382
0.192693
0.188241
0.184044
0.180112
0.176436
0.173013
0.169835
0.166891
0.164171
0.161655
0.159325
0.157145
0.155094
0.153135
0.151242
0.149394
0.147584
0.145775
0.143957
0.142132
0.140281
0.1384
0.136492
0.13455
0.132572
0.130549
0.12848
0.126369
0.12423
0.122064
0.119862
0.117612
0.115323
0.112962
0.110563
0.108091
0.105595
0.103068
0.100512
0.0979121
0.0952738
0.0926155
0.0899447
0.0872669
0.0845885
0.0819035
0.0792028
0.0764828
0.0737436
0.0709892
0.0682332
0.0654837
0.0627514
0.0600466
0.0573727
0.0547272
0.0521054
0.0494958
0.0468849
0.0442603
0.0416164
0.0389443
0.0362198
0.033439
0.0306088
0.0277338
0.0248164
0.0218603
0.0188719
0.01586
0.0128378
0.00982061
0.00681309
0.00382698
0.000889295
-0.00197075
-0.00475668
-0.00754073
-0.0103798
-0.0132572
-0.0161534
-0.0190541
-0.0219504
-0.0248361
-0.0277073
-0.0305618
-0.0333983
-0.0362166
-0.0390171
-0.0418006
-0.0445682
-0.0473214
-0.0500614
-0.0527897
-0.0555076
-0.0582164
-0.0609173
-0.0636114
-0.0662996
-0.0689828
-0.0716618
-0.0743371
-0.0770094
-0.0796792
-0.0823469
-0.0850128
-0.0876773
-0.0903405
-0.0930029
-0.0956644
-0.0983254
-0.100986
-0.103646
-0.106306
-0.108966
0.218032
0.212943
0.207936
0.203054
0.198338
0.193816
0.189511
0.185442
0.181621
0.178041
0.174698
0.17158
0.168683
0.166
0.163518
0.161218
0.159068
0.157044
0.155116
0.153259
0.151448
0.149668
0.147892
0.146102
0.144305
0.142482
0.140628
0.13875
0.136838
0.134885
0.132879
0.130811
0.128693
0.126529
0.124307
0.122021
0.119678
0.117288
0.114832
0.112315
0.109719
0.107082
0.104415
0.101719
0.0989825
0.0962154
0.0934457
0.0906796
0.0879228
0.0851826
0.082456
0.0797414
0.0770311
0.0743201
0.071614
0.068921
0.0662397
0.0635799
0.0609493
0.0583473
0.0557697
0.0532092
0.0506534
0.0480895
0.0455057
0.0428958
0.0402501
0.0375454
0.0347789
0.031956
0.0290815
0.026158
0.0231879
0.0201774
0.0171366
0.0140787
0.0110171
0.00795851
0.00490903
0.00188765
-0.00108519
-0.00401271
-0.00698904
-0.00996606
-0.0129471
-0.0159246
-0.018891
-0.0218404
-0.0247691
-0.0276747
-0.0305561
-0.0334133
-0.0362471
-0.0390588
-0.0418499
-0.0446224
-0.0473781
-0.0501189
-0.0528467
-0.0555631
-0.0582697
-0.060968
-0.063659
-0.0663441
-0.069024
-0.0716997
-0.0743718
-0.0770409
-0.0797076
-0.0823723
-0.0850354
-0.0876971
-0.0903578
-0.0930176
-0.0956767
-0.0983353
-0.100994
-0.103651
-0.106309
-0.108967
0.218145
0.21328
0.208492
0.203821
0.1993
0.194955
0.190809
0.186876
0.183163
0.17967
0.176398
0.17334
0.170498
0.167864
0.165425
0.163162
0.161044
0.159049
0.157151
0.155328
0.153544
0.151791
0.150046
0.148287
0.146519
0.144726
0.142902
0.141053
0.139167
0.137236
0.135241
0.133169
0.131036
0.128837
0.126556
0.124183
0.121752
0.119272
0.116727
0.114105
0.111399
0.108638
0.105842
0.103012
0.100146
0.0972582
0.0943756
0.0915074
0.0886641
0.0858564
0.0830835
0.0803468
0.0776393
0.0749514
0.0722852
0.0696449
0.0670298
0.0644439
0.0618866
0.0593547
0.056843
0.0543421
0.0518402
0.0493228
0.0467774
0.0441977
0.0415747
0.0388892
0.0361409
0.0333328
0.0304633
0.0275307
0.0245419
0.0215058
0.0184318
0.0153318
0.0122176
0.00909778
0.00598125
0.00287434
-0.000209193
-0.0032838
-0.00643095
-0.00954549
-0.0126362
-0.0157019
-0.0187393
-0.021746
-0.0247201
-0.0276613
-0.03057
-0.0334475
-0.0362958
-0.0391173
-0.0419146
-0.0446903
-0.047447
-0.0501871
-0.052913
-0.0556266
-0.0583299
-0.0610244
-0.0637116
-0.0663927
-0.0690687
-0.0717405
-0.0744089
-0.0770745
-0.0797378
-0.0823992
-0.0850592
-0.087718
-0.0903758
-0.093033
-0.0956895
-0.0983457
-0.101001
-0.103657
-0.106312
-0.108968
0.218257
0.213612
0.209037
0.204569
0.20024
0.196072
0.192084
0.188287
0.18469
0.181297
0.178107
0.175122
0.172348
0.169772
0.16738
0.165153
0.163066
0.161096
0.159224
0.157425
0.155665
0.153937
0.152218
0.150486
0.148745
0.146978
0.145182
0.143355
0.141492
0.139581
0.137592
0.135502
0.133333
0.131076
0.12872
0.126262
0.123756
0.121208
0.118592
0.115881
0.113076
0.110204
0.10729
0.104346
0.101375
0.0983899
0.0954074
0.092439
0.0895068
0.0866299
0.0838109
0.0810516
0.0783408
0.075669
0.0730371
0.0704425
0.067884
0.0653624
0.0628717
0.0604035
0.0579502
0.0554993
0.0530398
0.0505567
0.0480413
0.0454874
0.0428861
0.0402203
0.0374875
0.034689
0.0318244
0.0288917
0.025894
0.0228346
0.019722
0.0165727
0.0134002
0.0102125
0.00701807
0.00381734
0.000619737
-0.002601
-0.00590126
-0.00914674
-0.0123468
-0.0155026
-0.0186135
-0.0216789
-0.0246991
-0.0276756
-0.0306104
-0.0335065
-0.0363672
-0.0391963
-0.0419974
-0.044774
-0.0475296
-0.0502671
-0.0529893
-0.0556986
-0.0583972
-0.0610869
-0.0637692
-0.0664455
-0.0691168
-0.0717842
-0.0744483
-0.0771099
-0.0797694
-0.0824273
-0.085084
-0.0877396
-0.0903945
-0.0930489
-0.0957027
-0.0983563
-0.10101
-0.103663
-0.106316
-0.108969
0.218365
0.213934
0.209565
0.205295
0.201151
0.197154
0.193323
0.189668
0.186196
0.182913
0.179823
0.176928
0.17423
0.171712
0.169364
0.167171
0.165108
0.163158
0.161307
0.159527
0.157791
0.156085
0.154386
0.152679
0.150958
0.149211
0.147433
0.145621
0.143778
0.141879
0.139884
0.13777
0.135554
0.133229
0.130789
0.128244
0.125661
0.123052
0.120373
0.117592
0.114707
0.111735
0.108714
0.10568
0.10264
0.0996006
0.0965472
0.0934913
0.090474
0.0875269
0.0846616
0.0818763
0.0791539
0.076488
0.0738794
0.0713228
0.068816
0.0663529
0.0639199
0.0615036
0.0590955
0.0566789
0.0542441
0.051782
0.0492872
0.0467511
0.0441652
0.0415132
0.0387916
0.0360007
0.0331387
0.0302022
0.0271931
0.0241164
0.0209772
0.0177864
0.0145516
0.0112832
0.007993
0.00468538
0.00137021
-0.00198824
-0.00542387
-0.00879233
-0.0120991
-0.0153446
-0.0185288
-0.0216523
-0.0247173
-0.0277268
-0.0306849
-0.0335963
-0.0364661
-0.0392993
-0.042101
-0.0448755
-0.0476272
-0.0503596
-0.0530761
-0.0557793
-0.0584716
-0.0611551
-0.0638315
-0.0665021
-0.069168
-0.0718303
-0.0744898
-0.0771469
-0.0798024
-0.0824565
-0.0851096
-0.0877619
-0.0904137
-0.0930651
-0.0957162
-0.0983672
-0.101018
-0.103669
-0.106319
-0.10897
0.21847
0.214247
0.210082
0.206009
0.202051
0.19823
0.194558
0.191046
0.187699
0.184525
0.181533
0.178726
0.176098
0.173633
0.17133
0.16917
0.167134
0.165208
0.163379
0.161619
0.159904
0.158212
0.156529
0.154838
0.153131
0.151397
0.14963
0.147826
0.145989
0.144087
0.142078
0.139935
0.137665
0.13527
0.132747
0.130121
0.127471
0.124811
0.122075
0.11923
0.116274
0.113221
0.110117
0.107024
0.103962
0.100914
0.0978232
0.0946811
0.0915742
0.0885562
0.0856421
0.0828245
0.0800864
0.0774208
0.0748276
0.0723032
0.0698422
0.0674249
0.0650337
0.0626515
0.0602674
0.0578653
0.0554393
0.0529863
0.050501
0.0479722
0.0453919
0.0427461
0.0400319
0.0372459
0.0343846
0.0314443
0.028425
0.0253293
0.0221599
0.0189255
0.0156273
0.0122769
0.00888875
0.00547276
0.00203709
-0.00145487
-0.00501394
-0.00849998
-0.0119115
-0.0152456
-0.0185014
-0.0216806
-0.0247867
-0.0278249
-0.0308015
-0.0337233
-0.0365972
-0.03943
-0.0422279
-0.0449966
-0.047741
-0.0504655
-0.0531736
-0.0558686
-0.058553
-0.061229
-0.0638982
-0.0665622
-0.069222
-0.0718786
-0.0745328
-0.0771852
-0.0798363
-0.0824863
-0.0851357
-0.0877846
-0.0904332
-0.0930816
-0.0957299
-0.0983782
-0.101026
-0.103675
-0.106323
-0.108971
0.218571
0.214548
0.21058
0.206698
0.202923
0.199273
0.195761
0.192394
0.189178
0.186122
0.183232
0.180507
0.17794
0.17553
0.173275
0.171149
0.169137
0.167234
0.165424
0.163681
0.161978
0.160293
0.158622
0.156941
0.155245
0.153518
0.151757
0.149959
0.148121
0.146206
0.144175
0.141986
0.139655
0.137183
0.134574
0.131869
0.129163
0.12647
0.123688
0.120787
0.117772
0.114662
0.111518
0.10841
0.105366
0.102334
0.0992198
0.0959861
0.0928017
0.0897212
0.0867542
0.0838966
0.081136
0.0784643
0.0758802
0.0733785
0.0709535
0.0685709
0.0662044
0.0638343
0.0614534
0.05905
0.056617
0.054157
0.0516677
0.0491342
0.0465488
0.043901
0.0411873
0.0384029
0.0355419
0.0325984
0.0295702
0.0264572
0.0232586
0.0199782
0.0166172
0.013186
0.00969945
0.00617378
0.00261621
-0.00100511
-0.00468241
-0.00828494
-0.0118014
-0.0152235
-0.0185486
-0.021779
-0.0249204
-0.0279806
-0.0309686
-0.0338937
-0.0367651
-0.0395914
-0.0423802
-0.0451383
-0.0478715
-0.0505846
-0.0532818
-0.0559664
-0.058641
-0.0613079
-0.0639688
-0.0666252
-0.0692781
-0.0719285
-0.0745771
-0.0772244
-0.0798708
-0.0825166
-0.0851621
-0.0878074
-0.0904527
-0.0930981
-0.0957435
-0.0983891
-0.101035
-0.103681
-0.106327
-0.108972
0.218667
0.214836
0.211056
0.207355
0.203753
0.200269
0.196912
0.193688
0.190604
0.187667
0.18488
0.18224
0.179745
0.177397
0.175188
0.173095
0.17111
0.169236
0.167437
0.165698
0.163996
0.162313
0.160648
0.158979
0.157289
0.155567
0.153808
0.152009
0.150158
0.148223
0.146153
0.143908
0.141513
0.138962
0.136261
0.133474
0.130728
0.128002
0.125165
0.122206
0.119149
0.116027
0.112902
0.109827
0.106825
0.10382
0.100683
0.0973739
0.0941487
0.0910163
0.087999
0.0851053
0.082321
0.0796303
0.077039
0.0745458
0.0721351
0.0697608
0.067389
0.0650065
0.0626171
0.0602084
0.0577611
0.055282
0.0527749
0.0502248
0.0476234
0.0449607
0.0422362
0.0394503
0.0365942
0.0336549
0.030627
0.027506
0.024284
0.0209609
0.0175398
0.0140283
0.0104379
0.00679097
0.00310455
-0.000644721
-0.00444118
-0.00816332
-0.0117879
-0.0152984
-0.0186895
-0.0219646
-0.0251326
-0.0282051
-0.0311946
-0.0341137
-0.036974
-0.0397861
-0.0425593
-0.0453013
-0.0480187
-0.0507168
-0.0534
-0.0560717
-0.0587346
-0.0613909
-0.0640424
-0.0666903
-0.0693357
-0.0719794
-0.074622
-0.0772638
-0.0799054
-0.0825468
-0.0851883
-0.0878301
-0.0904721
-0.0931144
-0.095757
-0.0983999
-0.101043
-0.103686
-0.10633
-0.108974
0.218757
0.215104
0.211499
0.20797
0.204536
0.201212
0.198008
0.194927
0.191976
0.189158
0.186475
0.183925
0.181507
0.179226
0.177059
0.175
0.173036
0.171175
0.169378
0.167639
0.165941
0.164264
0.162602
0.160932
0.159236
0.157512
0.155751
0.153946
0.15208
0.150114
0.147995
0.145692
0.143237
0.1406
0.1378
0.134935
0.132152
0.129365
0.126447
0.123429
0.120357
0.117269
0.114202
0.111183
0.108237
0.105285
0.102174
0.0988592
0.0956214
0.092427
0.0893599
0.0864541
0.0836553
0.0809204
0.0782965
0.0758013
0.07339
0.0709885
0.0685587
0.0661278
0.0637288
0.0613264
0.0588749
0.0563798
0.0538439
0.0512649
0.0486342
0.0459296
0.0431675
0.0403744
0.0375333
0.0346101
0.0315986
0.0284902
0.0252588
0.0219001
0.0184176
0.0148216
0.0111155
0.00733014
0.00350135
-0.000385969
-0.0043109
-0.00815753
-0.0118945
-0.0154939
-0.018946
-0.0222561
-0.0254383
-0.0285096
-0.0314875
-0.0343884
-0.0372269
-0.0400158
-0.0427657
-0.0454853
-0.0481818
-0.0508609
-0.0535269
-0.0561833
-0.0588326
-0.0614771
-0.064118
-0.0667567
-0.069394
-0.0720305
-0.0746668
-0.077303
-0.0799396
-0.0825766
-0.0852141
-0.0878522
-0.090491
-0.0931302
-0.0957701
-0.0984104
-0.101051
-0.103692
-0.106333
-0.108975
0.218839
0.215352
0.211911
0.208542
0.205267
0.202101
0.199049
0.196114
0.193297
0.190601
0.188022
0.18556
0.183215
0.180989
0.178852
0.176825
0.174879
0.173028
0.171242
0.1695
0.167803
0.166123
0.164453
0.162774
0.161073
0.159343
0.157573
0.155761
0.153894
0.15191
0.149742
0.147373
0.144837
0.142089
0.139181
0.136246
0.133412
0.130541
0.127541
0.124476
0.12142
0.118407
0.115426
0.112472
0.109578
0.106704
0.103692
0.100482
0.0972304
0.0938738
0.0907422
0.0879329
0.085167
0.0823243
0.0796263
0.0771309
0.0747128
0.0722338
0.0696506
0.0671094
0.06473
0.0623897
0.0600067
0.0575252
0.0549454
0.0523359
0.049674
0.0468675
0.0439952
0.0411743
0.0383544
0.0354438
0.032458
0.0293966
0.0261791
0.0228074
0.019287
0.0156444
0.0118189
0.00784804
0.00381192
-0.000257402
-0.00433557
-0.00830518
-0.0121556
-0.0158409
-0.0193446
-0.022675
-0.0258534
-0.0289051
-0.0318541
-0.0347216
-0.0375255
-0.0402804
-0.0429983
-0.0456887
-0.048359
-0.0510149
-0.0536606
-0.0562993
-0.0589335
-0.0615647
-0.0641943
-0.0668231
-0.0694519
-0.072081
-0.0747108
-0.0773414
-0.0799729
-0.0826055
-0.0852391
-0.0878736
-0.0905091
-0.0931455
-0.0957826
-0.0984204
-0.101059
-0.103697
-0.106337
-0.108976
0.218913
0.215572
0.212279
0.209062
0.205941
0.202925
0.20002
0.197226
0.194538
0.191954
0.189471
0.187091
0.184812
0.18264
0.18054
0.178551
0.176622
0.174784
0.173008
0.171265
0.16957
0.167888
0.166206
0.16451
0.162793
0.161045
0.159269
0.157467
0.155611
0.153597
0.151356
0.148898
0.14627
0.143426
0.140445
0.137464
0.13456
0.131638
0.128618
0.125513
0.122451
0.11954
0.116637
0.113702
0.110861
0.1081
0.105315
0.102374
0.0989672
0.0951531
0.0920133
0.0896999
0.0870502
0.0838098
0.0809206
0.0784296
0.076006
0.0734358
0.070514
0.0677382
0.0654546
0.0632761
0.0611761
0.0587927
0.0561378
0.053512
0.0508957
0.0478936
0.04476
0.0418735
0.0390549
0.0360713
0.0330457
0.0300514
0.0268575
0.0235286
0.0200619
0.0166135
0.0127675
0.00858925
0.00417402
-0.000234253
-0.00462366
-0.00866835
-0.0126233
-0.0163819