/*--------------------------------*- C++ -*----------------------------------*\
  =========                 |
  \\      /  F ield         | OpenFOAM: The Open Source CFD Toolbox
   \\    /   O peration     | Website:  https://openfoam.org
    \\  /    A nd           | Version:  6
     \\/     M anipulation  |
\*---------------------------------------------------------------------------*/
FoamFile
{
    version     2.0;
    format      ascii;
    class       volScalarField;
    location    "4350";
    object      T;
}
// * * * * * * * * * * * * * * * * * * * * * * * * * * * * * * * * * * * * * //

dimensions      [0 0 0 1 0 0 0];

internalField   nonuniform List<scalar> 
4800
(
552.415
552.145
551.878
551.616
551.364
551.126
550.907
550.707
550.527
550.368
550.226
550.101
549.991
549.893
549.806
549.727
549.655
549.588
549.525
549.465
549.407
549.351
549.295
549.239
549.183
549.126
549.068
549.007
548.945
548.882
548.816
548.748
548.679
548.609
548.538
548.467
548.395
548.322
548.249
548.175
548.1
548.023
547.945
547.866
547.784
547.7
547.614
547.526
547.436
547.344
547.25
547.155
547.058
546.96
546.859
546.757
546.652
546.545
546.436
546.328
546.22
546.115
546.014
545.915
545.821
545.73
545.642
545.558
545.475
545.395
545.315
545.235
545.155
545.073
544.988
544.901
544.81
544.717
544.621
544.522
544.421
544.319
544.22
544.121
544.022
543.923
543.825
543.727
543.628
543.53
543.432
543.333
543.235
543.136
543.038
542.94
542.841
542.743
542.645
542.547
542.449
542.351
542.253
542.155
542.057
541.96
541.862
541.765
541.667
541.57
541.473
541.375
541.278
541.181
541.084
540.987
540.89
540.793
540.696
540.599
552.414
552.143
551.875
551.613
551.362
551.128
550.911
550.713
550.535
550.376
550.235
550.11
549.999
549.901
549.813
549.734
549.661
549.594
549.531
549.47
549.412
549.355
549.298
549.242
549.185
549.128
549.069
549.009
548.947
548.883
548.817
548.75
548.682
548.612
548.541
548.47
548.399
548.327
548.254
548.18
548.105
548.029
547.951
547.871
547.79
547.706
547.62
547.531
547.441
547.349
547.255
547.16
547.062
546.963
546.862
546.759
546.654
546.547
546.438
546.33
546.223
546.118
546.016
545.918
545.823
545.731
545.643
545.558
545.474
545.393
545.312
545.232
545.151
545.068
544.983
544.896
544.806
544.713
544.617
544.518
544.418
544.318
544.219
544.12
544.022
543.923
543.825
543.727
543.628
543.53
543.432
543.333
543.235
543.136
543.038
542.94
542.841
542.743
542.645
542.547
542.449
542.351
542.253
542.155
542.057
541.96
541.862
541.765
541.667
541.57
541.473
541.375
541.278
541.181
541.084
540.987
540.89
540.793
540.696
540.599
552.414
552.143
551.877
551.619
551.371
551.137
550.922
550.726
550.549
550.391
550.251
550.126
550.015
549.917
549.829
549.748
549.675
549.607
549.542
549.481
549.421
549.363
549.305
549.248
549.19
549.131
549.072
549.011
548.949
548.886
548.821
548.754
548.687
548.618
548.548
548.478
548.407
548.335
548.263
548.19
548.116
548.04
547.962
547.883
547.801
547.717
547.631
547.543
547.452
547.36
547.266
547.169
547.071
546.971
546.869
546.765
546.659
546.552
546.443
546.335
546.228
546.124
546.022
545.923
545.827
545.735
545.645
545.559
545.474
545.391
545.308
545.227
545.144
545.061
544.975
544.888
544.798
544.706
544.611
544.514
544.415
544.317
544.218
544.12
544.022
543.923
543.825
543.727
543.629
543.53
543.432
543.333
543.235
543.136
543.038
542.94
542.841
542.743
542.645
542.547
542.449
542.351
542.253
542.155
542.057
541.96
541.862
541.765
541.667
541.57
541.472
541.375
541.278
541.181
541.084
540.987
540.89
540.793
540.696
540.599
552.415
552.146
551.88
551.623
551.379
551.151
550.939
550.746
550.571
550.414
550.274
550.15
550.039
549.94
549.851
549.77
549.695
549.625
549.56
549.497
549.436
549.376
549.317
549.258
549.198
549.139
549.078
549.017
548.955
548.891
548.827
548.761
548.694
548.626
548.557
548.488
548.418
548.347
548.276
548.204
548.13
548.055
547.978
547.899
547.818
547.734
547.648
547.56
547.469
547.376
547.281
547.184
547.085
546.983
546.88
546.775
546.668
546.56
546.451
546.344
546.237
546.133
546.031
545.931
545.835
545.741
545.65
545.562
545.475
545.389
545.305
545.221
545.137
545.052
544.967
544.879
544.79
544.699
544.605
544.509
544.412
544.315
544.217
544.119
544.021
543.923
543.825
543.727
543.629
543.531
543.432
543.334
543.235
543.136
543.038
542.94
542.841
542.743
542.645
542.546
542.448
542.35
542.252
542.155
542.057
541.959
541.862
541.764
541.667
541.57
541.472
541.375
541.278
541.181
541.084
540.987
540.89
540.793
540.696
540.599
552.417
552.151
551.89
551.636
551.396
551.171
550.963
550.772
550.599
550.444
550.305
550.181
550.07
549.97
549.88
549.798
549.722
549.651
549.583
549.519
549.456
549.394
549.333
549.273
549.212
549.151
549.089
549.027
548.964
548.9
548.835
548.769
548.703
548.636
548.568
548.5
548.431
548.361
548.291
548.22
548.148
548.074
547.997
547.919
547.838
547.755
547.669
547.581
547.49
547.397
547.301
547.203
547.102
547
546.895
546.788
546.68
546.571
546.463
546.355
546.25
546.146
546.044
545.944
545.847
545.751
545.659
545.568
545.478
545.39
545.303
545.217
545.132
545.045
544.959
544.871
544.782
544.691
544.598
544.504
544.409
544.313
544.216
544.119
544.022
543.924
543.826
543.728
543.629
543.531
543.432
543.334
543.235
543.137
543.038
542.939
542.841
542.743
542.644
542.546
542.448
542.35
542.252
542.154
542.057
541.959
541.862
541.764
541.667
541.569
541.472
541.375
541.278
541.181
541.084
540.987
540.889
540.792
540.695
540.598
552.419
552.158
551.902
551.654
551.418
551.197
550.992
550.804
550.634
550.48
550.342
550.219
550.108
550.007
549.916
549.832
549.755
549.682
549.613
549.547
549.482
549.419
549.356
549.293
549.231
549.168
549.105
549.041
548.977
548.912
548.847
548.781
548.715
548.648
548.581
548.513
548.445
548.377
548.308
548.238
548.167
548.094
548.019
547.941
547.861
547.778
547.693
547.605
547.514
547.421
547.324
547.225
547.123
547.019
546.913
546.805
546.696
546.587
546.478
546.371
546.266
546.162
546.06
545.96
545.862
545.766
545.671
545.577
545.485
545.394
545.304
545.215
545.127
545.04
544.952
544.864
544.774
544.684
544.593
544.5
544.406
544.311
544.215
544.119
544.022
543.925
543.827
543.729
543.63
543.532
543.433
543.334
543.235
543.137
543.038
542.939
542.841
542.742
542.644
542.546
542.448
542.35
542.252
542.154
542.056
541.959
541.861
541.764
541.666
541.569
541.472
541.375
541.278
541.18
541.083
540.986
540.889
540.792
540.695
540.598
552.42
552.164
551.913
551.671
551.441
551.226
551.025
550.841
550.674
550.523
550.386
550.263
550.151
550.05
549.957
549.872
549.793
549.719
549.649
549.581
549.515
549.45
549.385
549.321
549.256
549.192
549.127
549.061
548.996
548.93
548.864
548.797
548.73
548.663
548.596
548.529
548.462
548.394
548.326
548.257
548.187
548.115
548.041
547.964
547.885
547.803
547.718
547.631
547.54
547.447
547.35
547.25
547.147
547.041
546.934
546.825
546.715
546.606
546.498
546.391
546.286
546.182
546.081
545.981
545.882
545.784
545.688
545.592
545.497
545.403
545.31
545.218
545.127
545.037
544.948
544.859
544.769
544.679
544.588
544.496
544.404
544.31
544.216
544.12
544.023
543.926
543.828
543.73
543.631
543.532
543.434
543.335
543.236
543.137
543.038
542.939
542.841
542.742
542.644
542.545
542.447
542.349
542.251
542.153
542.056
541.958
541.861
541.763
541.666
541.569
541.472
541.374
541.277
541.18
541.083
540.986
540.889
540.792
540.695
540.598
552.423
552.171
551.926
551.691
551.468
551.258
551.063
550.883
550.719
550.57
550.434
550.311
550.199
550.097
550.004
549.917
549.837
549.762
549.69
549.621
549.553
549.487
549.421
549.355
549.289
549.222
549.156
549.089
549.021
548.954
548.886
548.819
548.751
548.683
548.616
548.548
548.481
548.414
548.346
548.278
548.208
548.137
548.064
547.988
547.909
547.828
547.744
547.657
547.567
547.473
547.376
547.276
547.172
547.066
546.958
546.848
546.738
546.628
546.52
546.414
546.309
546.206
546.105
546.005
545.905
545.806
545.708
545.61
545.513
545.416
545.32
545.225
545.131
545.039
544.948
544.858
544.768
544.678
544.587
544.495
544.404
544.311
544.217
544.122
544.025
543.928
543.83
543.731
543.632
543.534
543.434
543.335
543.236
543.137
543.038
542.939
542.84
542.742
542.643
542.545
542.447
542.349
542.251
542.153
542.055
541.958
541.86
541.763
541.666
541.568
541.471
541.374
541.277
541.18
541.083
540.986
540.889
540.792
540.695
540.598
552.427
552.183
551.945
551.716
551.499
551.295
551.104
550.928
550.767
550.62
550.486
550.363
550.251
550.149
550.054
549.967
549.886
549.809
549.736
549.666
549.597
549.53
549.463
549.396
549.328
549.26
549.192
549.124
549.055
548.986
548.917
548.848
548.778
548.709
548.64
548.572
548.504
548.437
548.369
548.3
548.231
548.16
548.086
548.011
547.933
547.852
547.768
547.682
547.592
547.498
547.401
547.301
547.198
547.091
546.983
546.873
546.763
546.654
546.546
546.44
546.336
546.233
546.132
546.032
545.932
545.832
545.733
545.634
545.535
545.435
545.336
545.238
545.142
545.047
544.953
544.862
544.771
544.68
544.589
544.498
544.406
544.314
544.22
544.124
544.028
543.93
543.832
543.733
543.634
543.535
543.435
543.336
543.236
543.137
543.038
542.939
542.84
542.741
542.643
542.544
542.446
542.348
542.25
542.152
542.055
541.957
541.86
541.762
541.665
541.568
541.471
541.374
541.277
541.18
541.083
540.986
540.889
540.792
540.695
540.598
552.431
552.195
551.966
551.744
551.533
551.333
551.147
550.975
550.817
550.672
550.539
550.417
550.305
550.203
550.108
550.02
549.938
549.861
549.788
549.717
549.647
549.579
549.511
549.443
549.375
549.306
549.237
549.167
549.097
549.026
548.955
548.884
548.813
548.742
548.672
548.602
548.534
548.465
548.396
548.327
548.256
548.184
548.11
548.034
547.956
547.875
547.792
547.705
547.615
547.522
547.425
547.325
547.222
547.116
547.008
546.899
546.79
546.681
546.574
546.469
546.365
546.263
546.162
546.061
545.962
545.862
545.763
545.663
545.562
545.461
545.36
545.259
545.159
545.06
544.964
544.87
544.778
544.686
544.595
544.503
544.411
544.319
544.224
544.129
544.032
543.934
543.835
543.736
543.636
543.536
543.436
543.337
543.237
543.137
543.038
542.938
542.839
542.741
542.642
542.543
542.445
542.347
542.249
542.151
542.054
541.956
541.859
541.762
541.664
541.567
541.47
541.373
541.276
541.179
541.082
540.986
540.889
540.792
540.695
540.598
552.436
552.209
551.987
551.772
551.567
551.373
551.192
551.023
550.868
550.725
550.593
550.472
550.361
550.259
550.164
550.076
549.995
549.918
549.844
549.772
549.703
549.634
549.566
549.497
549.429
549.359
549.29
549.219
549.148
549.076
549.003
548.93
548.857
548.784
548.713
548.642
548.571
548.501
548.43
548.359
548.286
548.211
548.136
548.058
547.979
547.898
547.814
547.727
547.637
547.543
547.447
547.347
547.245
547.14
547.033
546.924
546.816
546.709
546.603
546.499
546.396
546.294
546.194
546.094
545.995
545.895
545.796
545.696
545.594
545.492
545.389
545.286
545.183
545.082
544.982
544.884
544.789
544.696
544.604
544.512
544.419
544.325
544.23
544.134
544.036
543.938
543.838
543.739
543.638
543.538
543.438
543.337
543.237
543.137
543.037
542.938
542.839
542.74
542.641
542.543
542.444
542.346
542.248
542.151
542.053
541.955
541.858
541.761
541.664
541.567
541.47
541.373
541.276
541.179
541.082
540.985
540.889
540.792
540.695
540.598
552.44
552.223
552.008
551.801
551.602
551.413
551.237
551.073
550.92
550.78
550.65
550.53
550.419
550.317
550.223
550.136
550.054
549.978
549.904
549.832
549.763
549.695
549.626
549.558
549.489
549.42
549.35
549.279
549.207
549.134
549.061
548.987
548.912
548.837
548.764
548.691
548.619
548.546
548.473
548.398
548.322
548.244
548.166
548.086
548.004
547.92
547.835
547.747
547.656
547.563
547.466
547.368
547.267
547.163
547.058
546.951
546.845
546.739
546.634
546.53
546.429
546.328
546.228
546.129
546.031
545.932
545.833
545.733
545.631
545.529
545.425
545.32
545.215
545.111
545.007
544.905
544.805
544.709
544.614
544.521
544.427
544.333
544.238
544.141
544.042
543.943
543.843
543.742
543.641
543.54
543.439
543.338
543.237
543.137
543.037
542.937
542.838
542.739
542.64
542.541
542.443
542.345
542.247
542.15
542.052
541.955
541.857
541.76
541.663
541.566
541.469
541.372
541.275
541.179
541.082
540.985
540.888
540.792
540.695
540.598
552.445
552.236
552.029
551.829
551.637
551.455
551.283
551.123
550.974
550.835
550.707
550.588
550.478
550.377
550.284
550.197
550.117
550.041
549.967
549.897
549.828
549.76
549.692
549.624
549.556
549.487
549.418
549.347
549.275
549.202
549.128
549.053
548.977
548.901
548.826
548.752
548.677
548.601
548.523
548.445
548.365
548.284
548.201
548.118
548.033
547.946
547.857
547.767
547.675
547.581
547.485
547.387
547.286
547.184
547.081
546.977
546.872
546.768
546.665
546.563
546.462
546.363
546.265
546.167
546.07
545.972
545.873
545.773
545.672
545.569
545.465
545.36
545.254
545.147
545.041
544.935
544.831
544.729
544.629
544.533
544.436
544.342
544.247
544.149
544.05
543.949
543.848
543.746
543.644
543.542
543.44
543.338
543.237
543.137
543.036
542.936
542.837
542.738
542.639
542.54
542.442
542.344
542.246
542.148
542.051
541.954
541.856
541.759
541.662
541.565
541.468
541.372
541.275
541.178
541.081
540.985
540.888
540.792
540.695
540.598
552.449
552.248
552.05
551.858
551.673
551.497
551.33
551.174
551.028
550.892
550.765
550.648
550.539
550.439
550.347
550.262
550.182
550.106
550.034
549.964
549.896
549.829
549.762
549.695
549.628
549.56
549.491
549.421
549.35
549.277
549.203
549.128
549.052
548.975
548.898
548.821
548.743
548.664
548.582
548.5
548.415
548.329
548.242
548.155
548.065
547.974
547.882
547.788
547.694
547.599
547.502
547.405
547.305
547.205
547.103
547.001
546.898
546.797
546.696
546.596
546.498
546.401
546.304
546.208
546.112
546.014
545.917
545.817
545.716
545.613
545.509
545.403
545.297
545.189
545.081
544.972
544.864
544.758
544.654
544.552
544.452
544.352
544.259
544.16
544.059
543.956
543.853
543.75
543.647
543.544
543.441
543.339
543.237
543.136
543.035
542.935
542.836
542.736
542.637
542.539
542.44
542.342
542.245
542.147
542.05
541.952
541.855
541.758
541.661
541.564
541.468
541.371
541.274
541.178
541.081
540.984
540.888
540.791
540.695
540.598
552.453
552.261
552.071
551.886
551.708
551.538
551.377
551.225
551.082
550.949
550.825
550.709
550.603
550.504
550.413
550.328
550.249
550.175
550.104
550.035
549.968
549.902
549.837
549.771
549.705
549.637
549.569
549.5
549.43
549.358
549.285
549.21
549.133
549.055
548.977
548.897
548.815
548.732
548.647
548.56
548.47
548.38
548.288
548.195
548.101
548.005
547.909
547.812
547.715
547.618
547.52
547.422
547.324
547.224
547.125
547.025
546.925
546.826
546.728
546.631
546.535
546.44
546.345
546.25
546.155
546.059
545.962
545.864
545.763
545.66
545.556
545.45
545.343
545.234
545.125
545.016
544.906
544.797
544.689
544.582
544.479
544.378
544.277
544.174
544.069
543.964
543.859
543.754
543.649
543.545
543.442
543.339
543.237
543.135
543.034
542.934
542.834
542.734
542.636
542.537
542.439
542.341
542.243
542.146
542.048
541.951
541.854
541.757
541.66
541.564
541.467
541.37
541.274
541.177
541.081
540.984
540.888
540.791
540.695
540.598
552.457
552.273
552.091
551.914
551.743
551.579
551.423
551.275
551.137
551.007
550.886
550.773
550.668
550.57
550.48
550.397
550.319
550.245
550.175
550.108
550.042
549.978
549.913
549.849
549.783
549.717
549.65
549.582
549.513
549.442
549.369
549.294
549.217
549.139
549.058
548.975
548.89
548.804
548.715
548.623
548.529
548.434
548.337
548.239
548.14
548.039
547.939
547.839
547.739
547.639
547.54
547.442
547.344
547.245
547.147
547.05
546.952
546.856
546.76
546.666
546.573
546.48
546.387
546.294
546.2
546.106
546.01
545.912
545.811
545.709
545.605
545.499
545.391
545.282
545.171
545.061
544.95
544.839
544.728
544.618
544.511
544.405
544.297
544.189
544.08
543.972
543.865
543.758
543.652
543.546
543.442
543.338
543.235
543.133
543.032
542.932
542.832
542.732
542.633
542.535
542.437
542.339
542.241
542.144
542.047
541.95
541.853
541.756
541.659
541.563
541.466
541.37
541.273
541.177
541.08
540.984
540.887
540.791
540.695
540.598
552.461
552.285
552.111
551.942
551.778
551.62
551.47
551.327
551.193
551.066
550.947
550.836
550.733
550.638
550.549
550.467
550.39
550.318
550.249
550.183
550.118
550.055
549.992
549.928
549.864
549.799
549.732
549.665
549.597
549.527
549.455
549.38
549.302
549.223
549.14
549.054
548.966
548.876
548.783
548.688
548.59
548.49
548.389
548.286
548.182
548.077
547.973
547.869
547.766
547.664
547.563
547.464
547.366
547.268
547.172
547.076
546.981
546.887
546.794
546.703
546.612
546.521
546.43
546.339
546.246
546.153
546.058
545.96
545.861
545.759
545.655
545.548
545.44
545.33
545.218
545.106
544.993
544.88
544.767
544.654
544.542
544.431
544.317
544.204
544.092
543.981
543.87
543.761
543.654
543.547
543.441
543.337
543.234
543.131
543.03
542.929
542.829
542.73
542.631
542.533
542.435
542.337
542.239
542.142
542.045
541.948
541.851
541.755
541.658
541.562
541.465
541.369
541.272
541.176
541.08
540.983
540.887
540.791
540.694
540.598
552.465
552.297
552.131
551.969
551.812
551.661
551.516
551.378
551.248
551.125
551.009
550.901
550.8
550.707
550.62
550.539
550.464
550.392
550.324
550.259
550.195
550.133
550.07
550.008
549.944
549.88
549.815
549.749
549.681
549.612
549.54
549.464
549.386
549.304
549.218
549.129
549.038
548.946
548.851
548.753
548.651
548.547
548.441
548.334
548.227
548.118
548.01
547.902
547.796
547.692
547.59
547.489
547.391
547.294
547.199
547.105
547.012
546.92
546.83
546.741
546.652
546.563
546.474
546.384
546.292
546.2
546.105
546.009
545.91
545.808
545.704
545.598
545.489
545.378
545.265
545.151
545.036
544.92
544.805
544.688
544.572
544.456
544.336
544.218
544.102
543.988
543.875
543.764
543.654
543.546
543.44
543.335
543.231
543.129
543.027
542.926
542.826
542.727
542.628
542.53
542.432
542.335
542.237
542.14
542.043
541.947
541.85
541.754
541.657
541.561
541.464
541.368
541.272
541.175
541.079
540.983
540.887
540.791
540.694
540.598
552.469
552.309
552.15
551.995
551.845
551.7
551.561
551.429
551.303
551.184
551.072
550.967
550.869
550.777
550.692
550.613
550.538
550.467
550.4
550.335
550.272
550.211
550.149
550.087
550.025
549.961
549.897
549.831
549.764
549.695
549.623
549.546
549.466
549.382
549.293
549.201
549.107
549.013
548.916
548.815
548.71
548.602
548.493
548.383
548.272
548.162
548.051
547.941
547.831
547.724
547.62
547.519
547.421
547.324
547.229
547.137
547.046
546.956
546.868
546.781
546.693
546.606
546.517
546.428
546.338
546.246
546.152
546.056
545.957
545.856
545.752
545.645
545.536
545.425
545.311
545.195
545.078
544.959
544.84
544.72
544.6
544.478
544.353
544.231
544.111
543.994
543.878
543.765
543.654
543.544
543.437
543.332
543.228
543.125
543.023
542.923
542.823
542.724
542.625
542.527
542.429
542.332
542.235
542.138
542.042
541.945
541.849
541.752
541.656
541.56
541.463
541.367
541.271
541.175
541.079
540.983
540.886
540.79
540.694
540.598
552.473
552.32
552.169
552.021
551.878
551.739
551.606
551.479
551.357
551.242
551.134
551.032
550.936
550.847
550.764
550.685
550.611
550.541
550.475
550.411
550.349
550.288
550.227
550.165
550.103
550.041
549.977
549.911
549.844
549.776
549.703
549.625
549.543
549.456
549.364
549.269
549.173
549.076
548.977
548.874
548.767
548.656
548.544
548.431
548.32
548.21
548.098
547.984
547.871
547.762
547.656
547.554
547.454
547.358
547.264
547.172
547.083
546.995
546.909
546.822
546.736
546.649
546.561
546.472
546.382
546.29
546.196
546.1
546.002
545.901
545.797
545.69
545.581
545.469
545.354
545.236
545.117
544.995
544.872
544.748
544.624
544.497
544.368
544.242
544.118
543.997
543.879
543.764
543.651
543.541
543.433
543.327
543.223
543.12
543.019
542.918
542.819
542.72
542.622
542.524
542.427
542.329
542.233
542.136
542.04
541.943
541.847
541.751
541.655
541.559
541.462
541.366
541.27
541.174
541.078
540.982
540.886
540.79
540.694
540.598
552.477
552.331
552.187
552.046
551.909
551.777
551.65
551.527
551.411
551.3
551.195
551.096
551.003
550.916
550.834
550.757
550.684
550.615
550.549
550.486
550.424
550.363
550.303
550.242
550.18
550.118
550.054
549.988
549.922
549.852
549.779
549.699
549.615
549.525
549.431
549.332
549.234
549.137
549.036
548.931
548.821
548.708
548.594
548.482
548.371
548.261
548.148
548.031
547.916
547.804
547.696
547.593
547.492
547.396
547.302
547.211
547.123
547.037
546.951
546.865
546.779
546.692
546.603
546.514
546.424
546.332
546.238
546.142
546.044
545.943
545.839
545.732
545.622
545.51
545.394
545.275
545.153
545.028
544.902
544.774
544.645
544.513
544.38
544.25
544.122
543.998
543.877
543.76
543.646
543.535
543.427
543.321
543.217
543.114
543.013
542.913
542.814
542.715
542.618
542.52
542.423
542.327
542.23
542.134
542.038
541.941
541.845
541.749
541.653
541.557
541.461
541.366
541.27
541.174
541.078
540.982
540.886
540.79
540.694
540.598
552.48
552.341
552.204
552.07
551.939
551.813
551.691
551.574
551.463
551.356
551.255
551.159
551.069
550.984
550.903
550.828
550.756
550.688
550.622
550.559
550.498
550.436
550.376
550.316
550.254
550.192
550.128
550.063
549.996
549.926
549.85
549.769
549.682
549.59
549.492
549.391
549.291
549.192
549.089
548.982
548.871
548.758
548.645
548.533
548.424
548.315
548.201
548.081
547.964
547.851
547.741
547.636
547.535
547.438
547.344
547.253
547.166
547.08
546.994
546.908
546.821
546.734
546.645
546.555
546.464
546.372
546.277
546.181
546.082
545.981
545.877
545.771
545.661
545.548
545.431
545.31
545.186
545.059
544.929
544.796
544.662
544.526
544.389
544.254
544.122
543.995
543.872
543.753
543.639
543.527
543.419
543.313
543.209
543.107
543.007
542.907
542.809
542.711
542.613
542.516
542.42
542.324
542.227
542.131
542.035
541.94
541.844
541.748
541.652
541.556
541.461
541.365
541.269
541.173
541.077
540.981
540.886
540.79
540.694
540.598
552.483
552.351
552.22
552.092
551.968
551.847
551.731
551.619
551.512
551.41
551.313
551.22
551.133
551.05
550.971
550.897
550.825
550.758
550.693
550.63
550.568
550.507
550.447
550.386
550.325
550.262
550.199
550.133
550.065
549.994
549.917
549.834
549.745
549.649
549.547
549.444
549.343
549.242
549.136
549.026
548.915
548.803
548.692
548.582
548.475
548.368
548.256
548.135
548.018
547.902
547.791
547.686
547.584
547.485
547.39
547.299
547.212
547.124
547.036
546.948
546.861
546.774
546.685
546.595
546.503
546.41
546.314
546.216
546.116
546.014
545.911
545.805
545.696
545.583
545.466
545.344
545.218
545.088
544.953
544.816
544.677
544.536
544.393
544.254
544.119
543.988
543.863
543.743
543.627
543.516
543.408
543.303
543.2
543.099
542.999
542.9
542.803
542.705
542.609
542.512
542.416
542.32
542.225
542.129
542.033
541.938
541.842
541.747
541.651
541.555
541.46
541.364
541.268
541.173
541.077
540.981
540.885
540.789
540.694
540.598
552.486
552.36
552.235
552.113
551.994
551.879
551.769
551.662
551.56
551.462
551.369
551.28
551.195
551.114
551.036
550.963
550.892
550.825
550.76
550.697
550.636
550.575
550.514
550.453
550.392
550.329
550.265
550.199
550.131
550.059
549.981
549.895
549.803
549.703
549.598
549.491
549.388
549.284
549.176
549.064
548.954
548.844
548.736
548.629
548.524
548.42
548.311
548.194
548.076
547.954
547.841
547.74
547.639
547.536
547.438
547.347
547.259
547.17
547.076
546.984
546.897
546.812
546.726
546.637
546.543
546.449
546.352
546.25
546.146
546.044
545.941
545.835
545.727
545.616
545.499
545.377
545.249
545.118
544.979
544.835
544.689
544.541
544.392
544.249
544.109
543.975
543.848
543.728
543.612
543.502
543.395
543.291
543.189
543.089
542.991
542.893
542.796
542.7
542.604
542.508
542.413
542.317
542.222
542.127
542.031
541.936
541.841
541.745
541.65
541.554
541.459
541.363
541.268
541.172
541.076
540.981
540.885
540.789
540.694
540.598
552.489
552.368
552.249
552.132
552.019
551.909
551.804
551.703
551.605
551.511
551.421
551.335
551.252
551.174
551.098
551.025
550.955
550.889
550.824
550.761
550.7
550.639
550.578
550.516
550.454
550.391
550.326
550.261
550.194
550.121
550.039
549.95
549.855
549.752
549.644
549.535
549.43
549.324
549.215
549.102
548.991
548.886
548.78
548.674
548.571
548.471
548.369
548.262
548.137
548
547.888
547.805
547.708
547.59
547.486
547.395
547.306
547.213
547.107
547.006
546.923
546.843
546.768
546.683
546.587
546.491
546.396
546.288
546.175
546.07
545.966
545.858
545.747
545.638
545.522
545.401
545.276
545.152
545.013
544.863
544.703
544.542
544.381
544.235
544.092
543.956
543.828
543.707
543.593
543.484
543.379
543.277
543.177
543.078
542.981
542.885
542.789
542.694
542.599
542.504
542.409
542.314
542.219
542.124
542.029
541.934
541.839
541.744
541.649
541.553
541.458
541.362
541.267
541.171
541.076
540.98
540.885
540.789
540.693
540.598
552.491
552.375
552.26
552.149
552.041
551.937
551.836
551.74
551.647
551.557
551.47
551.387
551.306
551.229
551.154
551.083
551.014
550.948
550.884
550.822
550.76
550.7
550.638
550.576
550.512
550.448
550.383
550.319
550.252
550.178
550.094
550.002
549.904
549.799
549.69
549.58
549.47
549.367
549.263
549.15
549.037
548.938
548.83
548.717
548.615
548.517
548.425
548.336
548.185
548.011
547.918
547.902
547.809
547.639
547.528
547.435
547.344
547.259
547.125
547.004
546.926
546.845
546.801
546.729
546.629
546.529
546.451
546.337
546.209
546.096
545.984
545.862
545.735
545.62
545.503
545.39
545.273
545.184
545.052
544.917
544.74
544.552
544.334
544.21
544.065
543.927
543.799
543.68
543.568
543.462
543.36
543.26
543.163
543.067
542.971
542.877
542.782
542.688
542.594
542.5
542.405
542.311
542.217
542.122
542.027
541.932
541.838
541.743
541.647
541.552
541.457
541.362
541.266
541.171
541.076
540.98
540.884
540.789
540.693
540.598
552.493
552.38
552.27
552.163
552.06
551.961
551.865
551.773
551.684
551.598
551.514
551.434
551.355
551.279
551.207
551.137
551.069
551.003
550.94
550.878
550.818
550.757
550.695
550.632
550.567
550.503
550.439
550.376
550.311
550.237
550.15
550.053
549.95
549.848
549.749
549.633
549.505
549.413
549.332
549.221
549.098
549.024
548.892
548.759
548.661
548.548
548.454
548.404
548.269
548.098
547.995
547.94
547.85
547.688
547.538
547.428
547.327
547.251
547.118
546.964
546.876
546.818
546.788
546.728
546.648
546.576
546.509
546.397
546.288
546.145
545.995
545.845
545.649
545.496
545.375
545.297
545.193
545.191
544.984
544.997
544.836
544.587
544.368
544.184
544.025
543.887
543.761
543.645
543.538
543.436
543.338
543.242
543.148
543.054
542.961
542.868
542.775
542.682
542.589
542.496
542.402
542.308
542.214
542.12
542.025
541.931
541.836
541.741
541.646
541.551
541.456
541.361
541.266
541.171
541.075
540.98
540.884
540.789
540.693
540.598
552.494
552.385
552.278
552.175
552.076
551.982
551.891
551.803
551.717
551.634
551.554
551.475
551.398
551.324
551.255
551.187
551.121
551.055
550.992
550.932
550.872
550.811
550.748
550.684
550.622
550.56
550.501
550.441
550.373
550.3
550.206
550.101
549.982
549.895
549.836
549.702
549.515
549.453
549.438
549.327
549.187
549.056
548.93
548.763
548.617
548.501
548.434
548.441
548.379
548.23
548.101
548.015
547.91
547.752
547.576
547.397
547.238
547.176
547.063
546.855
546.769
546.749
546.73
546.689
546.618
546.577
546.612
546.477
546.38
546.232
546.043
545.827
545.542
545.315
545.254
545.24
545.213
545.308
545.131
545.053
544.9
544.738
544.409
544.096
543.96
543.836
543.71
543.602
543.502
543.407
543.314
543.222
543.132
543.041
542.951
542.86
542.768
542.677
542.584
542.492
542.399
542.306
542.212
542.118
542.024
541.93
541.835
541.74
541.646
541.551
541.456
541.361
541.265
541.17
541.075
540.979
540.884
540.789
540.693
540.598
552.495
552.387
552.283
552.184
552.09
551.999
551.912
551.828
551.746
551.666
551.587
551.51
551.435
551.366
551.304
551.243
551.18
551.113
551.047
550.983
550.917
550.85
550.786
550.728
550.676
550.629
550.589
550.527
550.436
550.368
550.263
550.144
549.965
549.911
549.939
549.808
549.585
549.459
549.399
549.379
549.294
549.106
548.943
548.748
548.545
548.395
548.34
548.445
548.474
548.381
548.243
548.148
548.064
547.854
547.663
547.374
547.078
547.004
546.973
546.705
546.624
546.625
546.649
546.617
546.508
546.628
546.803
546.509
546.474
546.291
546.055
545.937
545.511
545.401
545.281
545.253
545.198
545.215
545.127
545.036
544.879
544.729
544.467
544.068
543.921
543.75
543.643
543.55
543.462
543.375
543.289
543.202
543.115
543.028
542.941
542.852
542.762
542.672
542.58
542.489
542.396
542.303
542.21
542.116
542.023
541.928
541.834
541.74
541.645
541.55
541.455
541.36
541.265
541.17
541.075
540.979
540.884
540.789
540.693
540.598
552.495
552.387
552.286
552.19
552.1
552.013
551.93
551.849
551.77
551.692
551.615
551.539
551.468
551.408
551.363
551.314
551.26
551.197
551.127
551.048
550.946
550.852
550.783
550.739
550.714
550.716
550.721
550.635
550.429
550.381
550.35
550.201
549.998
549.94
550.005
549.894
549.667
549.494
549.33
549.392
549.442
549.201
548.981
548.718
548.442
548.236
548.106
548.306
548.53
548.557
548.393
548.384
548.386
548.044
547.748
547.398
546.984
546.821
546.769
546.573
546.628
546.524
546.637
546.556
546.474
546.668
546.853
546.463
546.388
546.253
546.011
545.933
545.642
545.542
545.405
545.324
545.236
545.173
545.08
544.967
544.817
544.642
544.421
543.925
543.82
543.686
543.572
543.494
543.421
543.344
543.263
543.182
543.1
543.017
542.932
542.845
542.757
542.668
542.577
542.486
542.394
542.301
542.209
542.115
542.021
541.928
541.833
541.739
541.644
541.55
541.455
541.36
541.265
541.17
541.074
540.979
540.884
540.788
540.693
540.598
552.493
552.386
552.287
552.194
552.107
552.024
551.944
551.866
551.79
551.714
551.638
551.563
551.496
551.444
551.419
551.384
551.368
551.353
551.316
551.224
550.985
550.803
550.695
550.65
550.692
550.815
550.877
550.699
550.34
550.363
550.421
550.221
550.119
550.103
550.055
549.902
549.636
549.525
549.27
549.372
549.543
549.305
549.142
548.73
548.403
548.03
547.656
547.95
548.472
548.772
548.484
548.553
548.432
548.087
547.844
547.444
547.222
546.855
546.597
546.483
546.667
546.569
546.676
546.68
546.658
546.642
546.632
546.423
546.301
546.184
545.99
545.895
545.719
545.607
545.476
545.36
545.232
545.101
544.974
544.853
544.659
544.332
544.116
543.867
543.716
543.605
543.526
543.441
543.383
543.318
543.239
543.161
543.086
543.007
542.925
542.84
542.753
542.665
542.575
542.484
542.392
542.3
542.207
542.114
542.021
541.927
541.833
541.738
541.644
541.549
541.455
541.36
541.265
541.169