/*--------------------------------*- C++ -*----------------------------------*\
  =========                 |
  \\      /  F ield         | OpenFOAM: The Open Source CFD Toolbox
   \\    /   O peration     | Website:  https://openfoam.org
    \\  /    A nd           | Version:  6
     \\/     M anipulation  |
\*---------------------------------------------------------------------------*/
FoamFile
{
    version     2.0;
    format      ascii;
    class       volScalarField;
    location    "1550";
    object      Su;
}
// * * * * * * * * * * * * * * * * * * * * * * * * * * * * * * * * * * * * * //

dimensions      [0 0 -1 0 0 0 0];

internalField   nonuniform List<scalar> 
4800
(
0.218115
0.213179
0.208294
0.203498
0.198833
0.194345
0.190078
0.18604
0.182223
0.178621
0.175236
0.172069
0.169128
0.166426
0.163971
0.161757
0.159769
0.157986
0.156383
0.154933
0.153611
0.152394
0.151261
0.150192
0.14917
0.148181
0.14721
0.146243
0.145269
0.14428
0.143271
0.142234
0.141159
0.140042
0.13888
0.137669
0.136401
0.135069
0.133664
0.132175
0.130584
0.128876
0.127041
0.125068
0.12294
0.120641
0.118158
0.115478
0.112578
0.109452
0.106101
0.102545
0.098829
0.0950156
0.0911764
0.0873736
0.0836583
0.0800663
0.0766169
0.0733091
0.0701221
0.0670288
0.0640055
0.0610339
0.0581006
0.0551947
0.0523061
0.0494268
0.0465525
0.0436806
0.0408088
0.0379339
0.0350522
0.0321628
0.0292659
0.0263615
0.0234536
0.0205484
0.0176395
0.0147116
0.011729
0.00868424
0.0055963
0.0024782
-0.000661242
-0.00381546
-0.00697944
-0.0101492
-0.0133214
-0.0164936
-0.0196634
-0.0228293
-0.0259898
-0.0291439
-0.0322907
-0.0354298
-0.0385607
-0.0416833
-0.0447975
-0.0479034
-0.051001
-0.0540907
-0.0571727
-0.0602474
-0.0633151
-0.0663763
-0.0694313
-0.0724807
-0.0755248
-0.0785641
-0.081599
-0.08463
-0.0876576
-0.090682
-0.0937039
-0.0967235
-0.0997414
-0.102758
-0.105773
-0.108788
0.218109
0.21316
0.208265
0.203474
0.198836
0.194388
0.190147
0.186115
0.182289
0.178674
0.175281
0.172122
0.169204
0.166531
0.164101
0.161909
0.159939
0.158167
0.156572
0.155128
0.153813
0.152602
0.151475
0.150411
0.149394
0.148405
0.147432
0.146462
0.145486
0.144493
0.143479
0.142436
0.141353
0.140227
0.139059
0.137838
0.13656
0.135216
0.133797
0.132286
0.130674
0.128951
0.127103
0.125114
0.122969
0.120658
0.118162
0.115467
0.112562
0.109439
0.106103
0.102577
0.0989007
0.095128
0.0913256
0.0875581
0.0838777
0.0803183
0.076898
0.073604
0.0704138
0.067308
0.064271
0.0612875
0.0583445
0.0554296
0.0525322
0.0496447
0.0467639
0.0438884
0.0410161
0.0381434
0.0352665
0.0323827
0.029489
0.0265817
0.0236603
0.0207261
0.0177771
0.0148048
0.0117846
0.00871914
0.00561873
0.0024924
-0.000652893
-0.00381151
-0.00697887
-0.0101512
-0.0133255
-0.0164992
-0.0196702
-0.0228369
-0.025998
-0.0291523
-0.0322993
-0.0354384
-0.0385691
-0.0416915
-0.0448053
-0.0479108
-0.051008
-0.0540973
-0.0571788
-0.060253
-0.0633203
-0.066381
-0.0694356
-0.0724846
-0.0755283
-0.0785672
-0.0816018
-0.0846324
-0.0876596
-0.0906838
-0.0937054
-0.0967247
-0.0997423
-0.102758
-0.105774
-0.108788
0.218122
0.213201
0.208335
0.203569
0.198955
0.194531
0.190312
0.18629
0.182466
0.178854
0.17547
0.172332
0.169447
0.166808
0.164413
0.16225
0.160301
0.158548
0.156968
0.155536
0.15423
0.153026
0.151905
0.150846
0.14983
0.148841
0.147868
0.146893
0.14591
0.144908
0.143886
0.142831
0.141732
0.140591
0.139408
0.138168
0.136871
0.135505
0.134059
0.132517
0.130874
0.129119
0.127239
0.125218
0.123043
0.120702
0.11818
0.115463
0.112546
0.109425
0.106111
0.102624
0.0990028
0.0952962
0.0915625
0.0878608
0.0842389
0.0807284
0.0773289
0.0740276
0.0708204
0.067692
0.0646317
0.0616278
0.0586691
0.0557418
0.0528333
0.0499366
0.0470509
0.0441757
0.0413087
0.0384465
0.0355851
0.032718
0.0298373
0.0269359
0.0240054
0.0210334
0.0180136
0.0149598
0.0118798
0.0087813
0.00565993
0.00251897
-0.000637208
-0.00380422
-0.00697816
-0.0101557
-0.013334
-0.0165108
-0.0196841
-0.0228524
-0.0260145
-0.0291694
-0.0323166
-0.0354556
-0.038586
-0.0417078
-0.044821
-0.0479257
-0.051022
-0.0541104
-0.057191
-0.0602643
-0.0633307
-0.0663905
-0.0694442
-0.0724923
-0.0755352
-0.0785734
-0.0816072
-0.0846372
-0.0876638
-0.0906873
-0.0937083
-0.0967271
-0.0997441
-0.10276
-0.105774
-0.108789
0.218151
0.213286
0.208473
0.203754
0.199177
0.194776
0.19057
0.186564
0.182762
0.179179
0.17583
0.172729
0.169878
0.167275
0.164915
0.162782
0.16086
0.159129
0.157565
0.156147
0.15485
0.153653
0.152535
0.151476
0.150458
0.149467
0.14849
0.147508
0.146512
0.145496
0.144457
0.143382
0.14226
0.141096
0.139891
0.138626
0.137302
0.135904
0.134419
0.132838
0.131158
0.129365
0.127443
0.125379
0.12316
0.120777
0.118219
0.115474
0.112542
0.109425
0.106137
0.102697
0.0991359
0.0954989
0.0918381
0.0882026
0.0846297
0.0811483
0.077757
0.074452
0.071229
0.0680786
0.0649957
0.0619724
0.0589974
0.0560532
0.0531286
0.0502204
0.0473302
0.0444583
0.0416003
0.0387493
0.0358981
0.0330376
0.0301569
0.0272434
0.0242828
0.0212676
0.0182029
0.0151073
0.0119893
0.00886005
0.00571489
0.00255532
-0.000615661
-0.00379452
-0.00697797
-0.0101631
-0.0133473
-0.0165286
-0.0197053
-0.0228759
-0.0260395
-0.0291954
-0.0323428
-0.0354816
-0.0386115
-0.0417324
-0.0448446
-0.0479481
-0.0510431
-0.0541301
-0.0572094
-0.0602812
-0.0633462
-0.0664047
-0.0694571
-0.072504
-0.0755457
-0.0785827
-0.0816155
-0.0846444
-0.08767
-0.0906926
-0.0937127
-0.0967306
-0.0997468
-0.102762
-0.105776
-0.108789
0.218184
0.213387
0.208646
0.203997
0.199479
0.195124
0.190951
0.186977
0.183212
0.17967
0.176363
0.173304
0.170492
0.167926
0.165601
0.1635
0.161605
0.159895
0.158348
0.156941
0.155652
0.154458
0.15334
0.152278
0.151256
0.150257
0.149268
0.148273
0.147259
0.146224
0.14516
0.144058
0.142906
0.141712
0.140476
0.139177
0.13781
0.136363
0.134826
0.133196
0.131466
0.129621
0.127652
0.125544
0.123284
0.120861
0.118268
0.115499
0.112555
0.109445
0.10618
0.10278
0.0992791
0.0957187
0.0921321
0.0885559
0.0850264
0.081565
0.0781763
0.0748663
0.0716244
0.0684462
0.065331
0.0622716
0.0592591
0.0562881
0.0533535
0.0504456
0.04756
0.044697
0.0418513
0.0390126
0.0361705
0.0333141
0.030431
0.0275072
0.0245301
0.0214892
0.0183874
0.0152562
0.0121082
0.00895066
0.00578043
0.00259938
-0.000589635
-0.00378345
-0.0069791
-0.010174
-0.013366
-0.0165532
-0.0197343
-0.022908
-0.0260736
-0.0292304
-0.0323782
-0.0355166
-0.0386457
-0.0417655
-0.0448762
-0.0479781
-0.0510714
-0.0541565
-0.0572338
-0.0603039
-0.063367
-0.0664236
-0.0694743
-0.0725195
-0.0755596
-0.0785951
-0.0816264
-0.084654
-0.0876783
-0.0906996
-0.0937185
-0.0967353
-0.0997505
-0.102764
-0.105777
-0.108789
0.218223
0.213509
0.208851
0.204284
0.199844
0.19556
0.191447
0.187527
0.183814
0.180325
0.17707
0.174056
0.171285
0.168758
0.166467
0.164395
0.162523
0.16083
0.159294
0.157896
0.156611
0.155417
0.154294
0.153225
0.152193
0.15118
0.150175
0.149157
0.148118
0.147054
0.145958
0.144819
0.143632
0.142402
0.141122
0.139773
0.13835
0.136844
0.135248
0.133558
0.131766
0.129861
0.127836
0.12568
0.123379
0.120922
0.118302
0.115514
0.112568
0.109474
0.106247
0.102911
0.0994823
0.0959832
0.0924514
0.0889264
0.0854386
0.082001
0.0786166
0.0752942
0.0720298
0.0688224
0.0656729
0.0625768
0.0595298
0.0565298
0.0535752
0.0506612
0.0477815
0.0449315
0.0420999
0.0392724
0.0364373
0.0335817
0.0306901
0.0277488
0.0247487
0.0216843
0.0185629
0.015412
0.0122384
0.00905299
0.00585574
0.0026502
-0.0005601
-0.0037719
-0.00698241
-0.0101893
-0.0133908
-0.0165853
-0.0197717
-0.0229491
-0.026117
-0.029275
-0.032423
-0.035561
-0.038689
-0.0418072
-0.0449161
-0.0480158
-0.0511068
-0.0541896
-0.0572645
-0.0603321
-0.0633929
-0.0664473
-0.0694958
-0.0725388
-0.0755769
-0.0786105
-0.08164
-0.0846659
-0.0876885
-0.0907083
-0.0937258
-0.0967412
-0.0997549
-0.102767
-0.105779
-0.10879
0.218269
0.213646
0.209085
0.204623
0.200283
0.196087
0.192055
0.188209
0.184562
0.181132
0.17793
0.174964
0.172236
0.169745
0.167485
0.165439
0.163586
0.161907
0.160381
0.158989
0.157701
0.156501
0.155367
0.154284
0.153235
0.152201
0.151168
0.150121
0.149051
0.147951
0.146815
0.145636
0.144408
0.143129
0.14179
0.140376
0.138884
0.137308
0.135642
0.133883
0.132026
0.130058
0.127976
0.125769
0.123426
0.120939
0.118298
0.115504
0.112566
0.109496
0.106305
0.103008
0.0996363
0.0962151
0.0927631
0.0893049
0.0858658
0.0824588
0.0790877
0.0757587
0.0724765
0.0692461
0.0660687
0.0629404
0.0598603
0.0568312
0.0538563
0.050935
0.0480604
0.0452238
0.0424052
0.0395859
0.0367529
0.0338917
0.0309795
0.0280012
0.0249611
0.0218699
0.0187392
0.015582
0.0123865
0.00917032
0.00594184
0.00270767
-0.000527654
-0.00376067
-0.00698875
-0.0102099
-0.0134225
-0.0166255
-0.0198182
-0.0229999
-0.0261704
-0.0293297
-0.0324778
-0.035615
-0.0387416
-0.0418578
-0.0449643
-0.0480613
-0.0511496
-0.0542294
-0.0573014
-0.0603661
-0.063424
-0.0664756
-0.0695214
-0.0725619
-0.0755976
-0.0786289
-0.0816562
-0.08468
-0.0877007
-0.0907187
-0.0937344
-0.0967481
-0.0997603
-0.102771
-0.105781
-0.108791
0.218343
0.213866
0.209438
0.205089
0.200847
0.196739
0.192786
0.189012
0.185435
0.182072
0.178931
0.176019
0.173337
0.170884
0.168651
0.166622
0.164781
0.163108
0.161585
0.160189
0.158886
0.157675
0.156525
0.155419
0.154344
0.153279
0.152211
0.151128
0.150018
0.148876
0.147695
0.146463
0.145177
0.143832
0.142421
0.140934
0.139366
0.137712
0.13597
0.134137
0.132209
0.130179
0.128042
0.125787
0.123407
0.120895
0.118239
0.115445
0.11252
0.109474
0.106323
0.10309
0.0997945
0.0964521
0.0930806
0.0896949
0.0863112
0.0829417
0.0795941
0.0762739
0.0729885
0.0697474
0.0665557
0.0634093
0.0603111
0.057268
0.0542841
0.0513608
0.0484921
0.0456618
0.0428427
0.0400202
0.0371804
0.0343051
0.0313653
0.0283484
0.0252622
0.022134
0.0189865
0.0158058
0.0125672
0.00930804
0.00604046
0.00277196
-0.000492828
-0.00375062
-0.00699911
-0.0102367
-0.0134622
-0.016675
-0.0198746
-0.0230611
-0.0262344
-0.0293949
-0.032543
-0.0356791
-0.0388038
-0.0419175
-0.045021
-0.0481149
-0.0511997
-0.054276
-0.0573445
-0.0604058
-0.0634603
-0.0665086
-0.0695513
-0.0725888
-0.0756216
-0.0786502
-0.081675
-0.0846964
-0.0877148
-0.0907307
-0.0937443
-0.0967561
-0.0997664
-0.102776
-0.105784
-0.108792
0.21842
0.214092
0.209807
0.205591
0.201468
0.197464
0.193605
0.189912
0.186408
0.183115
0.18004
0.177182
0.174542
0.172122
0.169914
0.167902
0.166066
0.164394
0.162866
0.161457
0.160137
0.15891
0.157731
0.156592
0.155479
0.154375
0.153264
0.152139
0.150985
0.149796
0.148558
0.147263
0.145906
0.144485
0.142991
0.141419
0.139766
0.138029
0.136205
0.134295
0.132296
0.130207
0.12802
0.125723
0.123311
0.120783
0.118122
0.115337
0.112438
0.109433
0.106337
0.10317
0.0999504
0.0966922
0.093405
0.0900978
0.0867792
0.0834583
0.0801453
0.0768495
0.0735813
0.0703504
0.0671634
0.0640184
0.0609242
0.0578893
0.0549157
0.0520034
0.0491437
0.0463135
0.0434829
0.0406416
0.0377763
0.0348689
0.0319049
0.0288825
0.0257865
0.0226185
0.0193901
0.0161084
0.0127869
0.00946798
0.00615182
0.00284253
-0.000456549
-0.00374286
-0.00701467
-0.0102709
-0.0135109
-0.0167346
-0.019942
-0.0231335
-0.0263098
-0.0294714
-0.0326191
-0.0357536
-0.0388759
-0.0419866
-0.0450865
-0.0481765
-0.0512573
-0.0543295
-0.0573939
-0.060451
-0.0635016
-0.0665461
-0.0695852
-0.0726193
-0.0756488
-0.0786743
-0.0816962
-0.0847149
-0.0877308
-0.0907442
-0.0937556
-0.0967652
-0.0997734
-0.10278
-0.105787
-0.108793
0.218496
0.21432
0.210182
0.206104
0.202108
0.198222
0.19447
0.190874
0.187458
0.184243
0.181236
0.178436
0.175842
0.173451
0.171259
0.169257
0.167425
0.165751
0.164208
0.162774
0.161429
0.160171
0.158951
0.157769
0.15661
0.155455
0.154294
0.153115
0.151902
0.150647
0.149337
0.14797
0.146539
0.145038
0.143456
0.141794
0.14005
0.138225
0.13632
0.134337
0.132272
0.130125
0.12789
0.125564
0.123134
0.120598
0.117943
0.115181
0.112318
0.109364
0.106332
0.103235
0.100094
0.0969236
0.0937288
0.0905112
0.087271
0.0840152
0.0807573
0.0775084
0.0742775
0.0710755
0.0679127
0.0647929
0.0617281
0.0587241
0.0557795
0.0528904
0.0500411
0.0472039
0.0443528
0.0414779
0.0385658
0.0356017
0.0325791
0.0294989
0.0263469
0.0231128
0.0197996
0.0164288
0.0130298
0.00964508
0.00627354
0.00291764
-0.000420447
-0.00373901
-0.00703701
-0.010314
-0.0135701
-0.0168056
-0.0200214
-0.0232182
-0.0263973
-0.0295597
-0.0327066
-0.035839
-0.0389582
-0.0420652
-0.0451609
-0.0482463
-0.0513223
-0.0543898
-0.0574494
-0.0605019
-0.063548
-0.0665882
-0.0696231
-0.0726533
-0.0756792
-0.0787012
-0.0817199
-0.0847355
-0.0877485
-0.0907593
-0.093768
-0.0967752
-0.099781
-0.102786
-0.10579
-0.108794
0.218573
0.214547
0.210556
0.206616
0.202754
0.198996
0.195366
0.191884
0.188566
0.185427
0.182478
0.179728
0.177176
0.17482
0.172649
0.170651
0.168809
0.167116
0.165552
0.164093
0.16272
0.16142
0.16015
0.158918
0.157703
0.156491
0.155271
0.154025
0.15274
0.151405
0.150014
0.148563
0.147045
0.145454
0.143781
0.142027
0.140194
0.138288
0.136306
0.13425
0.132124
0.129931
0.12766
0.125314
0.122873
0.120343
0.117715
0.114988
0.112171
0.109276
0.106314
0.103299
0.100247
0.0971702
0.0940709
0.0909486
0.0878009
0.0846292
0.0814427
0.0782543
0.0750764
0.0719253
0.0688134
0.0657475
0.0627382
0.0597848
0.056883
0.0540205
0.051178
0.0483273
0.0454482
0.0425293
0.0395574
0.0365232
0.0334173
0.0302377
0.026985
0.0236504
0.0202375
0.0167719
0.0132913
0.00983519
0.00640241
0.00299459
-0.000386949
-0.00374131
-0.00706822
-0.010368
-0.0136414
-0.0168896
-0.020114
-0.0233163
-0.0264979
-0.0296606
-0.0328061
-0.0359357
-0.0390511
-0.0421535
-0.0452442
-0.0483243
-0.0513948
-0.0544568
-0.057511
-0.0605582
-0.0635992
-0.0666346
-0.0696649
-0.0726907
-0.0757125
-0.0787307
-0.0817458
-0.0847581
-0.0877679
-0.0907757
-0.0937817
-0.0967861
-0.0997894
-0.102792
-0.105794
-0.108795
0.218648
0.214774
0.210931
0.207136
0.20341
0.199779
0.196267
0.192896
0.189679
0.186624
0.183741
0.181041
0.178527
0.176196
0.17404
0.172044
0.170197
0.168488
0.166897
0.1654
0.163983
0.162627
0.1613
0.160009
0.158728
0.157445
0.156146
0.154817
0.153451
0.152037
0.150566
0.149031
0.147422
0.145734
0.143963
0.142117
0.140199
0.13821
0.136157
0.13404
0.131866
0.129634
0.127337
0.124978
0.122539
0.120027
0.117436
0.114759
0.111999
0.109171
0.106288
0.103362
0.100407
0.0974312
0.0944346
0.0914157
0.0883719
0.0853005
0.0822027
0.0790907
0.0759846
0.072909
0.0698739
0.0668875
0.0639534
0.061062
0.0582054
0.0553665
0.052527
0.0496575
0.046744
0.0437756
0.0407372
0.037615
0.0343998
0.031097
0.027715
0.0242468
0.0207102
0.017137
0.0135678
0.0100342
0.00653448
0.00306973
-0.00035943
-0.00375287
-0.00711112
-0.0104353
-0.0137271
-0.0169885
-0.0202216
-0.0234289
-0.0266125
-0.0297749
-0.0329181
-0.0360441
-0.0391548
-0.0422518
-0.0453366
-0.0484105
-0.0514748
-0.0545305
-0.0575786
-0.0606199
-0.0636552
-0.0666851
-0.0697104
-0.0727314
-0.0757487
-0.0787627
-0.0817738
-0.0847824
-0.0877889
-0.0907934
-0.0937963
-0.0967979
-0.0997985
-0.102798
-0.105797
-0.108796
0.218721
0.214992
0.211294
0.207642
0.204054
0.20055
0.197156
0.19389
0.190767
0.187795
0.184982
0.182336
0.179858
0.177548
0.175396
0.173397
0.171542
0.169813
0.168192
0.166655
0.165185
0.163765
0.162373
0.161008
0.159647
0.158278
0.156887
0.155466
0.154008
0.152506
0.150951
0.149328
0.147627
0.145848
0.14399
0.142056
0.140055
0.137995
0.135883
0.133722
0.131512
0.129251
0.126936
0.124571
0.122145
0.119659
0.117106
0.114484
0.111796
0.109048
0.106253
0.103426
0.100576
0.0977081
0.0948226
0.0919143
0.0889739
0.0859979
0.082995
0.0799836
0.0769853
0.0740218
0.0710934
0.0682041
0.0653515
0.0625249
0.059712
0.0568957
0.0540561
0.0511663
0.0482111
0.0451718
0.0420356
0.0387998
0.035462
0.0320248
0.0284977
0.0248803
0.0212092
0.0175205
0.0138544
0.0102369
0.0066646
0.00313813
-0.00034249
-0.00377788
-0.00716943
-0.0105192
-0.0138299
-0.0171044
-0.0203459
-0.0235575
-0.0267424
-0.0299034
-0.0330433
-0.0361646
-0.0392695
-0.0423601
-0.045438
-0.0485048
-0.051562
-0.0546106
-0.0576519
-0.0606866
-0.0637156
-0.0667396
-0.0697593
-0.0727751
-0.0757875
-0.0787969
-0.0818038
-0.0848085
-0.0878112
-0.0908123
-0.093812
-0.0968105
-0.0998081
-0.102805
-0.105801
-0.108797
0.21879
0.215198
0.211636
0.208119
0.204661
0.20128
0.197999
0.194834
0.1918
0.188904
0.186155
0.18356
0.181119
0.178831
0.176691
0.174693
0.172824
0.171067
0.169406
0.167817
0.166286
0.164799
0.163336
0.161887
0.160436
0.158969
0.15748
0.155962
0.154409
0.152814
0.151163
0.149447
0.147659
0.145794
0.143855
0.141845
0.139777
0.137665
0.135512
0.133318
0.131082
0.128803
0.126482
0.124123
0.121718
0.119267
0.116765
0.114212
0.111605
0.108948
0.106254
0.103533
0.100795
0.098043
0.0952754
0.0924832
0.0896576
0.0867985
0.0839187
0.0810355
0.0781616
0.0753113
0.0724875
0.0696945
0.0669225
0.0641593
0.0613907
0.0585977
0.0557553
0.0528343
0.0498103
0.0466702
0.0434111
0.0400386
0.0365566
0.0329716
0.029288
0.0255128
0.0217065
0.0179064
0.014143
0.0104363
0.00678604
0.00319325
-0.000342286
-0.00382192
-0.00724807
-0.0106239
-0.0139533
-0.0172403
-0.0204891
-0.0237039
-0.0268886
-0.0300469
-0.0331822
-0.0362975
-0.0393954
-0.0424784
-0.0455483
-0.0486071
-0.0516562
-0.054697
-0.0577307
-0.0607581
-0.0637803
-0.0667978
-0.0698114
-0.0728215
-0.0758287
-0.0788332
-0.0818356
-0.084836
-0.0878348
-0.0908322
-0.0938285
-0.0968237
-0.0998182
-0.102812
-0.105806
-0.108799
0.218854
0.21539
0.211954
0.20856
0.205222
0.201957
0.19878
0.195709
0.192754
0.189927
0.187239
0.184693
0.182288
0.180023
0.177892
0.175888
0.174
0.172211
0.170503
0.168858
0.167263
0.165702
0.164157
0.162617
0.16107
0.159505
0.157916
0.156299
0.154652
0.152961
0.151215
0.149403
0.147523
0.145576
0.143568
0.141505
0.139397
0.137254
0.135077
0.132864
0.130612
0.128328
0.126013
0.123668
0.121293
0.118891
0.116454
0.113977
0.111458
0.108901
0.106315
0.103712
0.101098
0.098474
0.0958331
0.0931656
0.0904638
0.0877315
0.0849836
0.082232
0.0794852
0.0767578
0.0740511
0.0713612
0.0686726
0.0659738
0.0632464
0.0604686
0.0576092
0.0546329
0.0515194
0.0482623
0.0448643
0.0413379
0.0376916
0.0339375
0.0300928
0.0261793
0.02224
0.0183073
0.0144295
0.0106253
0.00689064
0.00322672
-0.000366852
-0.0038923
-0.00735335
-0.0107547
-0.0141016
-0.0173995
-0.0206539
-0.0238699
-0.0270526
-0.0302065
-0.0333354
-0.0364431
-0.0395326
-0.0426066
-0.0456674
-0.048717
-0.0517571
-0.0547892
-0.0578146
-0.0608341
-0.0638488
-0.0668593
-0.0698664
-0.0728705
-0.075872
-0.0788714
-0.0818689
-0.0848649
-0.0878595
-0.0908531
-0.0938457
-0.0968375
-0.0998288
-0.10282
-0.10581
-0.1088
0.218912
0.215565
0.212244
0.208964
0.205736
0.202574
0.199493
0.196505
0.193623
0.190861
0.188228
0.185725
0.18335
0.181101
0.178974
0.176959
0.175046
0.17322
0.171462
0.169757
0.168094
0.166456
0.164829
0.163198
0.161553
0.159888
0.158198
0.156481
0.154732
0.152943
0.151098
0.149194
0.147233
0.145221
0.143167
0.141075
0.13895
0.136797
0.134613
0.132397
0.130149
0.127871
0.12557
0.123252
0.120922
0.118581
0.116218
0.113827
0.111404
0.108954
0.106485
0.104009
0.101527
0.0990384
0.0965313
0.0939948
0.0914217
0.0888195
0.086204
0.0835858
0.0809727
0.0783765
0.075794
0.073212
0.0706107
0.0679753
0.0652787
0.0624976
0.0595986
0.0565492
0.0533322
0.0499432
0.0463886
0.0426871
0.038853
0.0349117
0.0308919
0.0268243
0.0227435
0.0186872
0.0147012
0.0107947
0.00696861
0.00322806
-0.000426427
-0.00399828
-0.00749323
-0.0109181
-0.01428
-0.017586
-0.0208431
-0.0240577
-0.0272359
-0.0303829
-0.0335034
-0.0366016
-0.0396809
-0.0427445
-0.0457948
-0.0488342
-0.0518643
-0.0548869
-0.0579031
-0.0609141
-0.0639207
-0.0669238
-0.0699239
-0.0729215
-0.0759171
-0.078911
-0.0819035
-0.0848948
-0.0878851
-0.0908746
-0.0938635
-0.0968518
-0.0998397
-0.102827
-0.105815
-0.108802
0.218965
0.215723
0.212505
0.209326
0.206197
0.203129
0.200134
0.197224
0.19441
0.191707
0.189119
0.186647
0.184292
0.182052
0.179921
0.177891
0.175949
0.17408
0.172269
0.170504
0.168773
0.167058
0.165346
0.163625
0.161888
0.160129
0.158344
0.156531
0.154684
0.152792
0.150853
0.148869
0.146843
0.144786
0.142703
0.140598
0.13847
0.136321
0.134148
0.131948
0.129722
0.127473
0.12521
0.12294
0.120669
0.118398
0.116116
0.113813
0.111489
0.10915
0.106807
0.104463
0.102122
0.0997757
0.0974081
0.0950075
0.0925672
0.0900985
0.087619
0.0851389
0.082664
0.0802016
0.0777424
0.0752623
0.0727419
0.0701567
0.06748
0.0646842
0.0617333
0.0585971
0.055261
0.051722
0.0479912
0.0440919
0.0400478
0.0358944
0.0316734
0.0274351
0.0232164
0.0190478
0.0149577
0.0109391
0.00700941
0.00318436
-0.000533913
-0.00415144
-0.00767745
-0.0111219
-0.0144944
-0.0178043
-0.02106
-0.0242695
-0.0274398
-0.0305769
-0.0336865
-0.0367729
-0.0398402
-0.0428917
-0.0459302
-0.0489581
-0.0519772
-0.0549893
-0.0579957
-0.0609974
-0.0639955
-0.0669906
-0.0699834
-0.0729742
-0.0759636
-0.0789518
-0.081939
-0.0849255
-0.0879113
-0.0908967
-0.0938817
-0.0968664
-0.0998509
-0.102835
-0.105819
-0.108803
0.21901
0.215859
0.212732
0.209644
0.206605
0.203625
0.200711
0.197872
0.195119
0.192462
0.189906
0.187453
0.185108
0.182868
0.180728
0.178676
0.176699
0.174784
0.17292
0.171095
0.169295
0.167506
0.165716
0.163914
0.162094
0.16025
0.15838
0.156479
0.154539
0.152557
0.15054
0.148495
0.146426
0.144337
0.142232
0.140115
0.137987
0.135852
0.133707
0.131545
0.129365
0.127171
0.124971
0.122771
0.120574
0.118377
0.116176
0.113963
0.111743
0.109524
0.107313
0.105113
0.102923
0.100727
0.0985055
0.0962466
0.0939429
0.0916112
0.0892703
0.0869281
0.0845846
0.0822435
0.0798914
0.077497
0.075049
0.0725052
0.0698384
0.0670135
0.0639982
0.0607642
0.057298
0.0536005
0.0496849
0.0455736
0.0413023
0.0369145
0.0324647
0.0280268
0.0236541
0.0193855
0.0152131
0.011057
0.00699964
0.00307843
-0.000705898
-0.00436607
-0.00791756
-0.011375
-0.0147517
-0.0180592
-0.021308
-0.0245074
-0.0276655
-0.0307893
-0.0338847
-0.0369569
-0.04001
-0.0430477
-0.0460728
-0.0490879
-0.052095
-0.0550958
-0.0580916
-0.0610836
-0.0640726
-0.0670593
-0.0700444
-0.0730282
-0.0760111
-0.0789934
-0.0819752
-0.0849567
-0.087938
-0.0909191
-0.0939002
-0.0968812
-0.0998622
-0.102843
-0.105824
-0.108805
0.219048
0.215971
0.212922
0.209914
0.206955
0.204051
0.201209
0.198433
0.195732
0.193113
0.190581
0.188142
0.185801
0.183554
0.181394
0.17931
0.177293
0.175332
0.173416
0.171532
0.16967
0.167816
0.165957
0.164087
0.162196
0.16028
0.158336
0.156359
0.154345
0.152297
0.150225
0.148135
0.146035
0.143926
0.141809
0.139691
0.137576
0.135463
0.133353
0.131243
0.129129
0.127011
0.124891
0.122774
0.12066
0.118548
0.116434
0.114321
0.112217
0.110128
0.108059
0.106011
0.103979
0.10194
0.09987
0.0977555
0.0955889
0.0933906
0.0911785
0.0889587
0.08673
0.0844935
0.0822321
0.0799056
0.0775076
0.074979
0.0722951
0.0694221
0.0663336
0.0629996
0.0594073
0.0555589
0.0514706
0.047164
0.0426549
0.0379865
0.0332609
0.0285893
0.0240564
0.0197167
0.0155168
0.0111418
0.00691358
0.00288403
-0.000964348
-0.00465945
-0.00822677
-0.0116874
-0.0150589
-0.0183557
-0.0215903
-0.0247735
-0.0279142
-0.0310203
-0.0340981
-0.037153
-0.0401896
-0.0432115
-0.0462217
-0.0492228
-0.0522169
-0.0552055
-0.0581901
-0.0611717
-0.0641512
-0.0671293
-0.0701064
-0.0730829
-0.0760592
-0.0790355
-0.0820117
-0.0849882
-0.0879648
-0.0909417
-0.0939188
-0.096896
-0.0998735
-0.102851
-0.105829
-0.108807
0.219079
0.216064
0.213076
0.210131
0.207238
0.2044
0.201619
0.198898
0.19624
0.193653
0.191142
0.188714
0.186371
0.184108
0.181919
0.179798
0.17774
0.175733
0.173767
0.171832
0.169918
0.168009
0.166096
0.16417
0.162224
0.160252
0.158251
0.156218
0.154152
0.152059
0.149952
0.147839
0.145724
0.143608
0.141496
0.139395
0.137307
0.135231
0.133169
0.131118
0.129073
0.127032
0.124998
0.122974
0.120956
0.11894
0.11693
0.114934
0.112963
0.111021
0.109107
0.107223
0.105355
0.103474
0.101555
0.0995817
0.0975475
0.0954738
0.0933755
0.0912584
0.0891216
0.0869609
0.0847633
0.0824765
0.0800986
0.0775646
0.0748515
0.0719237
0.0687532
0.0653074
0.0615798
0.0575747
0.0533048
0.048777
0.044014
0.0390782
0.0340764
0.0291443
0.0244094
0.019993
0.0157287
0.0111281
0.00669045
0.00255986
-0.00133738
-0.00505137
-0.00861918
-0.012069
-0.0154227
-0.0186981
-0.0219095
-0.025069
-0.0281863
-0.0312696
-0.0343258
-0.0373604
-0.0403779
-0.043382
-0.0463757
-0.0493616
-0.0523416
-0.0553174
-0.0582902
-0.061261
-0.0642306
-0.0671997
-0.0701687
-0.0731378
-0.0761074
-0.0790775
-0.0820482
-0.0850195
-0.0879915
-0.0909641
-0.0939372
-0.0969108
-0.0998847
-0.102859
-0.105834
-0.108808
0.219101
0.216132
0.213191
0.210293
0.207449
0.204663
0.201934
0.199259
0.196639
0.19408
0.191585
0.189161
0.186808
0.184524
0.182306
0.180151
0.178053
0.176003
0.173994
0.172017
0.170062
0.168114
0.166163
0.164199
0.162215
0.160205
0.158166
0.156099
0.154005
0.15189
0.14977
0.147653
0.145541
0.143439
0.141349
0.139274
0.13722
0.135188
0.133181
0.131194
0.129223
0.127268
0.125332
0.123413
0.121502
0.119602
0.117723
0.115872
0.114056
0.112276
0.11053
0.108817
0.107115
0.105391
0.103617
0.101776
0.0998625
0.0978937
0.0958843
0.0938406
0.091764
0.0896449
0.0874731
0.0851889
0.0827927
0.080222
0.0774521
0.0744442
0.071178
0.0676242
0.0637754
0.0596284
0.0551837
0.0504395
0.0454275
0.0402192
0.0349333
0.0297105
0.0246886
0.0199432
0.015376
0.0106753
0.00621966
0.00205593
-0.00185436
-0.00556125
-0.00910797
-0.0125284
-0.0158489
-0.0190898
-0.0222673
-0.0253943
-0.0284812
-0.0315364
-0.0345667
-0.0375775
-0.0405733
-0.0435577
-0.0465334
-0.0495029
-0.052468
-0.0554302
-0.0583907
-0.0613504
-0.06431
-0.0672699
-0.0702306
-0.0731923
-0.0761551
-0.079119
-0.0820842
-0.0850505
-0.0880178
-0.0909862
-0.0939553
-0.0969253
-0.0998958
-0.102867
-0.105838
-0.10881
0.219114
0.216171
0.213259
0.210392
0.207582
0.204832
0.202141
0.199503
0.196915
0.194378
0.191895
0.189469
0.187104
0.1848
0.182557
0.180372
0.17824
0.176157
0.174116
0.172109
0.170127
0.168158
0.166189
0.16421
0.162211
0.160186
0.158131
0.156047
0.153944
0.151836
0.149729
0.147627
0.145534
0.143452
0.141388
0.139346
0.137333
0.135355
0.133413
0.131502
0.129619
0.127765
0.125939
0.124136
0.122354
0.1206
0.118884
0.117205
0.115566
0.113965
0.112397
0.110858
0.109321
0.107742
0.106097
0.104371
0.102558
0.100667
0.0987171
0.0967148
0.0946587
0.0925389
0.0903464
0.0880249
0.0855712
0.0829301
0.0800759
0.0769718
0.0736032
0.0699427
0.0659777
0.0616987
0.0570959
0.0521675
0.046952
0.0415177
0.0359664
0.0304405
0.0250804
0.0199398
0.0149363
0.010062
0.00553622
0.00135849
-0.00253358
-0.00620348
-0.00970297
-0.013072
-0.0163407
-0.0195321
-0.0226636
-0.0257486
-0.0287977
-0.0318189
-0.0348188
-0.0378025
-0.040774
-0.0437366
-0.046693
-0.049645
-0.0525945
-0.0555427
-0.0584906
-0.0614389
-0.0643882
-0.067339
-0.0702914
-0.0732456
-0.0762017
-0.0791596
-0.0821193
-0.0850806
-0.0880434
-0.0910076
-0.093973
-0.0969393
-0.0999065
-0.102874
-0.105843
-0.108811
0.219119
0.216185
0.213282
0.210426
0.207631
0.2049
0.202231
0.199616
0.197049
0.194527
0.192053
0.189627
0.187254
0.184935
0.182673
0.180466
0.178312
0.176208
0.17415
0.172131
0.170142
0.168171
0.166206
0.164233
0.162244
0.160235
0.158204
0.15615
0.15407
0.151972
0.149873
0.14779
0.14572
0.14366
0.141623
0.139618
0.137658
0.135752
0.133897
0.132083
0.130306
0.128567
0.126867
0.125204
0.123581
0.122007
0.120483
0.119004
0.117564
0.116156
0.114773
0.113405
0.112017
0.110561
0.10902
0.107376
0.105631
0.103785
0.101861
0.0998628
0.0977858
0.0956328
0.0933818
0.0909816
0.0884313
0.0856804
0.0827082
0.0794929
0.0760205
0.0722627
0.0681964
0.0637987
0.0590545
0.0539709
0.0486015
0.043019
0.037314
0.0315624
0.0258316
0.0201555
0.0145459
0.00923253
0.00460316
0.000444163
-0.00338946
-0.00698666
-0.0104088
-0.0137014
-0.016898
-0.0200235
-0.0230961
-0.0261292
-0.0291326
-0.032114
-0.0350791
-0.0380324
-0.0409773
-0.0439166
-0.0468523
-0.0497862
-0.0527195
-0.0556533
-0.0585884
-0.0615253
-0.0644644
-0.0674061
-0.0703503
-0.0732972
-0.0762467
-0.0791987
-0.0821531
-0.0851096
-0.088068
-0.0910282
-0.0939899
-0.0969528
-0.0999168
-0.102882
-0.105847
-0.108813
0.219113
0.21617
0.213261
0.210402
0.207604
0.204871
0.202203
0.199592
0.19703
0.194514
0.192043
0.189619
0.187245
0.184922
0.182652
0.180439
0.17828
0.176175
0.174121
0.17211
0.170136
0.168183
0.16624
0.164292
0.162328
0.160349
0.158354
0.15634
0.154298
0.152241
0.150184
0.148133
0.146083
0.144039
0.142027
0.140066
0.13818
0.136375
0.134638
0.132949
0.131303
0.129707
0.128161
0.126669
0.125239
0.123881
0.122583
0.121332
0.120109
0.118892
0.117691
0.11648
0.115215
0.113846
0.112362
0.110745
0.109016
0.107173
0.105246
0.103225
0.101116
0.0989161
0.0965846
0.094083
0.0914043
0.0885061
0.085387
0.0820526
0.0784854
0.0746472
0.0704941
0.0659816
0.061105
0.0558776
0.0503708
0.0446353
0.0387325
0.032688
0.0265256
0.0202453
0.0139153
0.00787879
0.00331319
-0.000716047
-0.00442821
-0.0079105
-0.0112229
-0.0144127
-0.0175162
-0.0205593
-0.02356
-0.0265312
-0.0294816
-0.0324176
-0.0353439
-0.0382639
-0.0411802
-0.0440947
-0.0470089
-0.0499241
-0.052841
-0.0557604
-0.0586827
-0.0616083
-0.0645375
-0.0674702
-0.0704065
-0.0733463
-0.0762895
-0.0792358
-0.0821851
-0.085137
-0.0880912
-0.0910476
-0.0940058
-0.0969655
-0.0999265
-0.102888
-0.105851
-0.108814
0.219102
0.216134
0.213201
0.210319
0.207499
0.204746
0.20206
0.199435
0.196863
0.19434
0.191865
0.18944
0.18707
0.184755
0.182498
0.1803
0.178161
0.17608
0.174054
0.172076
0.170136
0.168218
0.166308
0.164391
0.16246
0.160515
0.158564
0.156602
0.154621
0.15262
0.150608
0.148589
0.146556
0.144523
0.142538
0.14064
0.13886
0.137196
0.135621
0.134097
0.132619
0.131198
0.129839
0.128554
0.127359
0.126259
0.125227
0.124221
0.123211
0.122161
0.121117
0.120035
0.118848
0.117539
0.116058
0.114384
0.112593
0.110685
0.108726
0.106681
0.104556
0.102338
0.0999701
0.0973938
0.0945752
0.0915064
0.0882417
0.0848136
0.0812037
0.0773233
0.0730902
0.0684188
0.0633797
0.0580256
0.0524325
0.0465978
0.0405232
0.0341422
0.0274667
0.0204447
0.0130647
0.00316151
0.00159997
-0.00210702
-0.00563356
-0.00896176
-0.0121333
-0.0151953
-0.0181856
-0.0211305
-0.0240474
-0.0269476
-0.0298382
-0.032724
-0.0356082
-0.0384926
-0.0413788
-0.0442677
-0.0471601
-0.0500564
-0.052957
-0.0558622
-0.0587721
-0.0616868
-0.0646063
-0.0675305
-0.0704592
-0.0733923
-0.0763295
-0.0792705
-0.0822149
-0.0851625
-0.0881129
-0.0910657
-0.0940206
-0.0969773
-0.0999354
-0.102895
-0.105855
-0.108815
0.219077
0.216063
0.21309