/*--------------------------------*- C++ -*----------------------------------*\
  =========                 |
  \\      /  F ield         | OpenFOAM: The Open Source CFD Toolbox
   \\    /   O peration     | Website:  https://openfoam.org
    \\  /    A nd           | Version:  6
     \\/     M anipulation  |
\*---------------------------------------------------------------------------*/
FoamFile
{
    version     2.0;
    format      ascii;
    class       volScalarField;
    location    "1550";
    object      T;
}
// * * * * * * * * * * * * * * * * * * * * * * * * * * * * * * * * * * * * * //

dimensions      [0 0 0 1 0 0 0];

internalField   nonuniform List<scalar> 
4800
(
552.46
552.281
552.104
551.93
551.761
551.598
551.443
551.297
551.159
551.028
550.905
550.79
550.684
550.586
550.497
550.416
550.344
550.28
550.222
550.169
550.121
550.077
550.036
549.997
549.96
549.924
549.889
549.854
549.818
549.783
549.746
549.708
549.669
549.629
549.587
549.543
549.497
549.448
549.397
549.343
549.286
549.224
549.157
549.086
549.009
548.925
548.835
548.738
548.633
548.519
548.398
548.269
548.134
547.996
547.857
547.719
547.584
547.454
547.329
547.209
547.093
546.981
546.871
546.763
546.657
546.552
546.447
546.342
546.238
546.134
546.03
545.926
545.821
545.716
545.611
545.506
545.401
545.295
545.19
545.084
544.975
544.865
544.753
544.64
544.526
544.412
544.297
544.182
544.067
543.952
543.837
543.722
543.607
543.493
543.379
543.265
543.152
543.038
542.925
542.813
542.7
542.588
542.477
542.365
542.254
542.143
542.032
541.921
541.811
541.701
541.591
541.481
541.371
541.261
541.152
541.042
540.933
540.823
540.714
540.605
552.46
552.28
552.103
551.929
551.761
551.6
551.446
551.3
551.161
551.03
550.907
550.792
550.686
550.589
550.501
550.422
550.35
550.286
550.228
550.176
550.128
550.084
550.044
550.005
549.968
549.932
549.897
549.862
549.826
549.79
549.753
549.716
549.676
549.636
549.593
549.549
549.503
549.454
549.402
549.348
549.289
549.227
549.16
549.087
549.01
548.926
548.835
548.738
548.632
548.519
548.398
548.27
548.137
548
547.862
547.725
547.592
547.463
547.339
547.219
547.104
546.991
546.881
546.773
546.666
546.56
546.455
546.35
546.246
546.142
546.037
545.933
545.829
545.724
545.619
545.514
545.408
545.302
545.195
545.087
544.977
544.866
544.754
544.64
544.526
544.412
544.297
544.182
544.067
543.952
543.837
543.722
543.607
543.493
543.379
543.265
543.151
543.038
542.925
542.812
542.7
542.588
542.476
542.365
542.254
542.143
542.032
541.921
541.811
541.701
541.591
541.481
541.371
541.261
541.152
541.042
540.933
540.823
540.714
540.605
552.46
552.282
552.106
551.933
551.765
551.605
551.452
551.306
551.167
551.036
550.914
550.8
550.695
550.6
550.513
550.434
550.364
550.3
550.243
550.191
550.143
550.1
550.059
550.021
549.984
549.948
549.913
549.877
549.842
549.805
549.768
549.73
549.69
549.649
549.606
549.561
549.514
549.464
549.412
549.356
549.296
549.233
549.164
549.091
549.012
548.927
548.836
548.737
548.632
548.518
548.398
548.272
548.14
548.006
547.871
547.736
547.605
547.478
547.354
547.235
547.118
547.005
546.894
546.785
546.678
546.571
546.466
546.361
546.256
546.152
546.048
545.944
545.841
545.737
545.632
545.527
545.421
545.313
545.203
545.093
544.981
544.868
544.755
544.641
544.527
544.412
544.297
544.182
544.066
543.951
543.836
543.721
543.607
543.492
543.378
543.264
543.151
543.037
542.925
542.812
542.7
542.588
542.476
542.364
542.253
542.142
542.032
541.921
541.811
541.7
541.59
541.481
541.371
541.261
541.152
541.042
540.933
540.823
540.714
540.605
552.461
552.285
552.111
551.939
551.773
551.614
551.461
551.316
551.178
551.048
550.927
550.814
550.711
550.616
550.531
550.454
550.384
550.321
550.264
550.213
550.166
550.122
550.082
550.044
550.007
549.971
549.935
549.9
549.863
549.827
549.789
549.75
549.709
549.667
549.623
549.577
549.529
549.479
549.425
549.368
549.307
549.242
549.172
549.097
549.017
548.93
548.837
548.738
548.631
548.518
548.399
548.274
548.145
548.013
547.881
547.749
547.619
547.493
547.37
547.25
547.133
547.019
546.907
546.797
546.69
546.583
546.477
546.371
546.266
546.162
546.059
545.955
545.852
545.748
545.644
545.538
545.431
545.321
545.21
545.098
544.985
544.871
544.757
544.643
544.528
544.412
544.297
544.181
544.066
543.951
543.835
543.72
543.606
543.491
543.377
543.263
543.15
543.037
542.924
542.811
542.699
542.587
542.475
542.364
542.253
542.142
542.031
541.921
541.81
541.7
541.59
541.48
541.371
541.261
541.151
541.042
540.933
540.823
540.714
540.605
552.463
552.289
552.117
551.948
551.784
551.626
551.475
551.331
551.194
551.066
550.946
550.835
550.733
550.64
550.556
550.48
550.411
550.349
550.293
550.242
550.195
550.152
550.111
550.073
550.036
549.999
549.963
549.927
549.891
549.853
549.814
549.774
549.733
549.689
549.644
549.597
549.548
549.495
549.44
549.38
549.318
549.251
549.179
549.103
549.021
548.933
548.839
548.739
548.632
548.519
548.401
548.277
548.15
548.021
547.891
547.762
547.634
547.508
547.385
547.265
547.147
547.032
546.919
546.808
546.699
546.591
546.485
546.379
546.275
546.171
546.068
545.965
545.862
545.758
545.654
545.548
545.44
545.329
545.217
545.103
544.989
544.875
544.76
544.644
544.529
544.413
544.297
544.181
544.065
543.95
543.834
543.719
543.604
543.49
543.376
543.262
543.148
543.035
542.923
542.81
542.698
542.586
542.474
542.363
542.252
542.141
542.03
541.92
541.81
541.7
541.59
541.48
541.37
541.261
541.151
541.042
540.932
540.823
540.714
540.605
552.464
552.293
552.124
551.959
551.798
551.642
551.493
551.351
551.216
551.09
550.972
550.862
550.762
550.67
550.587
550.512
550.444
550.383
550.327
550.276
550.23
550.186
550.146
550.107
550.07
550.033
549.996
549.959
549.922
549.883
549.843
549.802
549.759
549.714
549.668
549.619
549.567
549.513
549.455
549.394
549.329
549.259
549.186
549.108
549.024
548.935
548.84
548.739
548.632
548.52
548.403
548.282
548.158
548.031
547.903
547.775
547.648
547.524
547.401
547.281
547.162
547.046
546.932
546.819
546.709
546.6
546.493
546.387
546.283
546.179
546.077
545.974
545.871
545.768
545.663
545.556
545.448
545.336
545.223
545.109
544.994
544.878
544.762
544.646
544.53
544.413
544.297
544.18
544.064
543.949
543.833
543.718
543.603
543.488
543.374
543.26
543.147
543.034
542.921
542.809
542.697
542.585
542.473
542.362
542.251
542.14
542.03
541.919
541.809
541.699
541.589
541.479
541.37
541.26
541.151
541.042
540.932
540.823
540.714
540.605
552.466
552.298
552.133
551.971
551.813
551.661
551.515
551.376
551.243
551.119
551.003
550.895
550.796
550.706
550.624
550.55
550.483
550.422
550.367
550.316
550.269
550.226
550.185
550.145
550.107
550.07
550.032
549.994
549.955
549.916
549.874
549.832
549.787
549.741
549.692
549.641
549.587
549.53
549.469
549.405
549.338
549.267
549.191
549.111
549.026
548.936
548.84
548.739
548.632
548.521
548.405
548.286
548.163
548.039
547.914
547.789
547.664
547.54
547.418
547.297
547.178
547.061
546.946
546.833
546.721
546.611
546.503
546.397
546.293
546.19
546.088
545.986
545.883
545.779
545.674
545.566
545.455
545.343
545.23
545.115
544.999
544.883
544.766
544.648
544.531
544.414
544.297
544.18
544.063
543.947
543.831
543.716
543.601
543.486
543.372
543.258
543.145
543.032
542.919
542.807
542.695
542.583
542.472
542.361
542.25
542.139
542.029
541.918
541.808
541.698
541.589
541.479
541.369
541.26
541.151
541.041
540.932
540.823
540.714
540.605
552.468
552.306
552.146
551.988
551.834
551.685
551.542
551.405
551.275
551.153
551.039
550.934
550.836
550.747
550.666
550.593
550.526
550.465
550.41
550.359
550.312
550.268
550.227
550.186
550.147
550.109
550.07
550.031
549.991
549.949
549.906
549.862
549.815
549.766
549.715
549.661
549.604
549.544
549.481
549.415
549.345
549.271
549.193
549.112
549.025
548.934
548.838
548.737
548.631
548.52
548.406
548.289
548.169
548.048
547.926
547.803
547.68
547.558
547.437
547.316
547.197
547.079
546.964
546.85
546.737
546.627
546.519
546.413
546.309
546.206
546.104
546.001
545.898
545.794
545.688
545.578
545.466
545.353
545.239
545.123
545.006
544.888
544.769
544.651
544.532
544.414
544.296
544.179
544.062
543.945
543.829
543.714
543.599
543.484
543.37
543.256
543.143
543.03
542.917
542.805
542.693
542.582
542.47
542.359
542.249
542.138
542.028
541.917
541.807
541.698
541.588
541.478
541.369
541.26
541.15
541.041
540.932
540.823
540.714
540.605
552.471
552.314
552.159
552.006
551.856
551.711
551.571
551.437
551.31
551.191
551.079
550.976
550.88
550.792
550.712
550.639
550.573
550.512
550.457
550.405
550.358
550.313
550.27
550.229
550.189
550.149
550.108
550.067
550.026
549.982
549.938
549.891
549.841
549.79
549.736
549.679
549.619
549.556
549.489
549.42
549.348
549.272
549.193
549.109
549.022
548.93
548.834
548.733
548.628
548.519
548.406
548.292
548.175
548.057
547.937
547.817
547.697
547.577
547.457
547.337
547.219
547.101
546.986
546.872
546.76
546.649
546.542
546.436
546.332
546.23
546.127
546.024
545.92
545.815
545.707
545.598
545.485
545.37
545.253
545.134
545.014
544.893
544.773
544.653
544.533
544.414
544.296
544.178
544.06
543.943
543.827
543.711
543.596
543.481
543.367
543.253
543.14
543.027
542.915
542.803
542.691
542.58
542.469
542.358
542.247
542.137
542.026
541.916
541.807
541.697
541.587
541.478
541.368
541.259
541.15
541.041
540.932
540.823
540.714
540.605
552.474
552.323
552.173
552.025
551.88
551.739
551.603
551.472
551.348
551.232
551.123
551.021
550.927
550.84
550.761
550.688
550.622
550.561
550.505
550.453
550.404
550.359
550.315
550.272
550.23
550.188
550.146
550.103
550.059
550.013
549.966
549.916
549.864
549.81
549.752
549.692
549.629
549.563
549.494
549.422
549.347
549.269
549.188
549.104
549.015
548.924
548.827
548.727
548.623
548.516
548.406
548.294
548.18
548.065
547.949
547.832
547.715
547.597
547.479
547.361
547.244
547.128
547.013
546.9
546.789
546.68
546.573
546.468
546.365
546.262
546.159
546.054
545.949
545.841
545.732
545.62
545.506
545.388
545.268
545.146
545.023
544.9
544.778
544.656
544.535
544.414
544.295
544.176
544.058
543.941
543.824
543.708
543.593
543.478
543.364
543.25
543.137
543.024
542.912
542.8
542.689
542.577
542.467
542.356
542.245
542.135
542.025
541.915
541.805
541.696
541.586
541.477
541.368
541.259
541.149
541.04
540.931
540.822
540.713
540.604
552.477
552.331
552.186
552.043
551.903
551.767
551.635
551.509
551.389
551.275
551.168
551.068
550.976
550.89
550.811
550.739
550.672
550.611
550.554
550.501
550.451
550.404
550.358
550.313
550.269
550.225
550.181
550.136
550.089
550.041
549.99
549.938
549.883
549.825
549.764
549.701
549.634
549.565
549.493
549.419
549.341
549.262
549.18
549.095
549.006
548.914
548.819
548.72
548.618
548.513
548.406
548.296
548.186
548.074
547.962
547.848
547.734
547.619
547.504
547.388
547.273
547.159
547.046
546.935
546.825
546.718
546.613
546.509
546.406
546.303
546.198
546.093
545.985
545.875
545.762
545.647
545.529
545.408
545.284
545.158
545.032
544.907
544.782
544.659
544.536
544.414
544.294
544.174
544.055
543.937
543.821
543.704
543.589
543.474
543.36
543.247
543.134
543.021
542.909
542.797
542.686
542.575
542.464
542.354
542.243
542.133
542.024
541.914
541.804
541.695
541.585
541.476
541.367
541.258
541.149
541.04
540.931
540.822
540.713
540.604
552.48
552.339
552.2
552.062
551.927
551.795
551.668
551.546
551.429
551.318
551.214
551.116
551.024
550.94
550.862
550.789
550.722
550.66
550.603
550.548
550.497
550.448
550.4
550.353
550.306
550.26
550.213
550.164
550.115
550.064
550.01
549.955
549.896
549.835
549.771
549.704
549.634
549.562
549.488
549.411
549.332
549.251
549.168
549.082
548.994
548.903
548.809
548.712
548.612
548.509
548.405
548.299
548.191
548.083
547.975
547.865
547.755
547.644
547.531
547.418
547.306
547.194
547.084
546.976
546.869
546.765
546.661
546.558
546.455
546.351
546.245
546.138
546.028
545.914
545.798
545.678
545.555
545.429
545.301
545.172
545.042
544.914
544.787
544.661
544.537
544.414
544.292
544.172
544.052
543.934
543.817
543.7
543.585
543.47
543.356
543.243
543.13
543.018
542.906
542.794
542.683
542.572
542.462
542.352
542.241
542.132
542.022
541.912
541.803
541.694
541.584
541.475
541.366
541.257
541.148
541.04
540.931
540.822
540.713
540.604
552.482
552.347
552.213
552.08
551.95
551.823
551.7
551.582
551.468
551.361
551.259
551.163
551.073
550.989
550.911
550.838
550.771
550.708
550.65
550.594
550.541
550.489
550.439
550.389
550.34
550.29
550.24
550.188
550.135
550.081
550.024
549.965
549.904
549.839
549.772
549.702
549.629
549.554
549.478
549.399
549.319
549.237
549.153
549.068
548.98
548.889
548.797
548.702
548.604
548.505
548.403
548.301
548.198
548.093
547.989
547.883
547.777
547.669
547.56
547.451
547.342
547.235
547.128
547.024
546.92
546.818
546.716
546.614
546.511
546.406
546.299
546.188
546.075
545.957
545.836
545.712
545.584
545.452
545.319
545.186
545.053
544.921
544.792
544.664
544.538
544.413
544.29
544.169
544.048
543.93
543.812
543.696
543.58
543.466
543.352
543.238
543.126
543.014
542.902
542.791
542.68
542.569
542.459
542.349
542.239
542.13
542.02
541.911
541.801
541.692
541.583
541.474
541.365
541.257
541.148
541.039
540.93
540.822
540.713
540.604
552.485
552.354
552.225
552.098
551.972
551.85
551.731
551.616
551.506
551.401
551.301
551.207
551.118
551.036
550.958
550.885
550.818
550.754
550.694
550.636
550.58
550.527
550.473
550.421
550.368
550.315
550.261
550.206
550.15
550.092
550.032
549.97
549.905
549.837
549.767
549.694
549.619
549.542
549.464
549.385
549.304
549.221
549.137
549.051
548.964
548.875
548.785
548.692
548.597
548.501
548.403
548.305
548.205
548.106
548.005
547.904
547.802
547.698
547.594
547.489
547.385
547.281
547.179
547.078
546.977
546.877
546.777
546.675
546.572
546.466
546.357
546.243
546.125
546.002
545.876
545.746
545.612
545.475
545.337
545.2
545.063
544.929
544.796
544.666
544.538
544.411
544.287
544.165
544.044
543.925
543.807
543.69
543.575
543.46
543.347
543.234
543.121
543.009
542.898
542.787
542.677
542.566
542.456
542.347
542.237
542.127
542.018
541.909
541.8
541.691
541.582
541.473
541.365
541.256
541.147
541.039
540.93
540.821
540.713
540.604
552.487
552.361
552.237
552.114
551.993
551.874
551.759
551.648
551.54
551.438
551.34
551.248
551.161
551.079
551.001
550.929
550.86
550.795
550.733
550.674
550.616
550.559
550.503
550.447
550.391
550.334
550.277
550.218
550.158
550.097
550.034
549.968
549.9
549.829
549.756
549.682
549.605
549.527
549.449
549.368
549.287
549.204
549.12
549.035
548.949
548.862
548.773
548.683
548.592
548.499
548.406
548.311
548.216
548.121
548.026
547.929
547.831
547.732
547.632
547.532
547.433
547.334
547.236
547.138
547.041
546.943
546.844
546.743
546.64
546.532
546.419
546.301
546.177
546.049
545.917
545.781
545.642
545.5
545.357
545.214
545.074
544.936
544.8
544.667
544.537
544.409
544.283
544.16
544.039
543.919
543.801
543.684
543.569
543.455
543.341
543.228
543.116
543.005
542.894
542.783
542.673
542.563
542.453
542.344
542.234
542.125
542.016
541.907
541.798
541.69
541.581
541.472
541.364
541.255
541.147
541.038
540.93
540.821
540.713
540.604
552.489
552.368
552.247
552.128
552.011
551.897
551.785
551.676
551.572
551.472
551.376
551.285
551.199
551.118
551.041
550.968
550.898
550.832
550.768
550.706
550.646
550.587
550.528
550.468
550.409
550.348
550.287
550.225
550.161
550.096
550.03
549.96
549.889
549.816
549.742
549.666
549.589
549.511
549.432
549.351
549.27
549.187
549.104
549.02
548.935
548.85
548.765
548.678
548.59
548.501
548.412
548.322
548.232
548.142
548.051
547.959
547.866
547.771
547.676
547.582
547.487
547.393
547.299
547.205
547.111
547.015
546.918
546.817
546.712
546.601
546.484
546.361
546.233
546.098
545.959
545.816
545.67
545.523
545.375
545.228
545.083
544.942
544.803
544.667
544.535
544.405
544.278
544.154
544.032
543.912
543.794
543.678
543.562
543.448
543.335
543.223
543.111
543
542.889
542.779
542.669
542.559
542.45
542.341
542.232
542.123
542.014
541.905
541.797
541.688
541.58
541.471
541.363
541.254
541.146
541.038
540.929
540.821
540.713
540.604
552.491
552.373
552.257
552.141
552.028
551.917
551.808
551.703
551.6
551.502
551.409
551.319
551.234
551.152
551.075
551.001
550.931
550.863
550.797
550.733
550.671
550.608
550.546
550.484
550.421
550.357
550.292
550.227
550.16
550.091
550.021
549.949
549.875
549.801
549.725
549.649
549.572
549.494
549.415
549.335
549.254
549.173
549.091
549.009
548.926
548.844
548.761
548.678
548.593
548.509
548.424
548.339
548.254
548.169
548.083
547.996
547.907
547.818
547.728
547.638
547.548
547.459
547.37
547.28
547.188
547.095
546.997
546.896
546.789
546.675
546.554
546.426
546.291
546.149
546.003
545.852
545.699
545.545
545.392
545.241
545.093
544.947
544.804
544.666
544.531
544.4
544.272
544.147
544.024
543.904
543.786
543.67
543.555
543.441
543.328
543.216
543.105
542.994
542.884
542.774
542.665
542.556
542.447
542.338
542.229
542.121
542.012
541.904
541.795
541.687
541.578
541.47
541.362
541.254
541.145
541.037
540.929
540.821
540.712
540.604
552.493
552.378
552.265
552.153
552.043
551.935
551.829
551.726
551.626
551.53
551.437
551.348
551.263
551.182
551.104
551.03
550.958
550.889
550.821
550.755
550.69
550.625
550.56
550.494
550.428
550.361
550.294
550.225
550.154
550.082
550.009
549.935
549.86
549.784
549.708
549.631
549.554
549.477
549.399
549.321
549.242
549.162
549.082
549.003
548.923
548.843
548.763
548.683
548.603
548.522
548.442
548.362
548.283
548.203
548.123
548.041
547.957
547.873
547.788
547.703
547.618
547.533
547.448
547.361
547.272
547.18
547.083
546.981
546.871
546.754
546.628
546.494
546.352
546.203
546.048
545.889
545.728
545.567
545.408
545.253
545.102
544.951
544.804
544.662
544.524
544.392
544.263
544.138
544.015
543.895
543.777
543.661
543.547
543.433
543.321
543.21
543.099
542.989
542.879
542.77
542.661
542.552
542.443
542.335
542.226
542.118
542.01
541.902
541.793
541.685
541.577
541.469
541.361
541.253
541.145
541.036
540.928
540.82
540.712
540.604
552.494
552.382
552.272
552.163
552.055
551.95
551.847
551.746
551.648
551.553
551.462
551.373
551.288
551.207
551.128
551.053
550.98
550.908
550.839
550.771
550.703
550.636
550.568
550.501
550.432
550.363
550.292
550.22
550.147
550.073
549.998
549.922
549.846
549.77
549.693
549.616
549.539
549.463
549.386
549.31
549.233
549.156
549.079
549.003
548.926
548.849
548.773
548.696
548.62
548.544
548.469
548.395
548.321
548.247
548.172
548.096
548.017
547.937
547.857
547.777
547.696
547.615
547.532
547.448
547.361
547.269
547.172
547.068
546.956
546.835
546.705
546.565
546.417
546.261
546.097
545.928
545.756
545.587
545.423
545.265
545.113
544.954
544.801
544.655
544.515
544.381
544.252
544.126
544.004
543.884
543.767
543.652
543.538
543.425
543.313
543.203
543.092
542.983
542.874
542.765
542.656
542.548
542.44
542.332
542.223
542.115
542.008
541.9
541.792
541.684
541.576
541.468
541.36
541.252
541.144
541.036
540.928
540.82
540.712
540.604
552.495
552.386
552.277
552.171
552.066
551.963
551.862
551.763
551.667
551.573
551.482
551.394
551.309
551.227
551.147
551.07
550.996
550.923
550.852
550.782
550.712
550.643
550.574
550.504
550.433
550.362
550.289
550.215
550.14
550.065
549.988
549.912
549.835
549.758
549.682
549.605
549.53
549.454
549.38
549.305
549.231
549.157
549.083
549.01
548.937
548.864
548.791
548.719
548.647
548.577
548.507
548.439
548.371
548.303
548.233
548.162
548.088
548.013
547.937
547.86
547.782
547.704
547.624
547.541
547.455
547.363
547.265
547.158
547.043
546.919
546.783
546.638
546.483
546.319
546.146
545.967
545.786
545.607
545.435
545.275
545.13
544.954
544.793
544.643
544.502
544.367
544.237
544.112
543.991
543.872
543.755
543.641
543.528
543.416
543.305
543.195
543.086
542.977
542.868
542.76
542.652
542.544
542.436
542.328
542.221
542.113
542.005
541.898
541.79
541.682
541.574
541.467
541.359
541.251
541.143
541.035
540.928
540.82
540.712
540.604
552.496
552.388
552.282
552.177
552.073
551.972
551.873
551.776
551.681
551.588
551.498
551.41
551.325
551.242
551.161
551.083
551.007
550.933
550.86
550.788
550.717
550.647
550.576
550.505
550.433
550.36
550.286
550.211
550.135
550.058
549.982
549.905
549.828
549.752
549.676
549.601
549.527
549.453
549.38
549.308
549.237
549.166
549.096
549.026
548.957
548.888
548.82
548.753
548.687
548.622
548.559
548.497
548.435
548.373
548.308
548.242
548.172
548.101
548.028
547.954
547.878
547.801
547.723
547.64
547.553
547.459
547.359
547.25
547.131
547.002
546.863
546.713
546.551
546.379
546.198
546.009
545.817
545.628
545.446
545.274
545.108
544.937
544.776
544.625
544.483
544.348
544.22
544.096
543.975
543.858
543.742
543.629
543.517
543.406
543.296
543.187
543.079
542.97
542.862
542.755
542.647
542.54
542.432
542.325
542.218
542.11
542.003
541.896
541.788
541.681
541.573
541.466
541.358
541.25
541.143
541.035
540.927
540.819
540.712
540.604
552.496
552.39
552.284
552.18
552.078
551.978
551.881
551.785
551.691
551.599
551.509
551.421
551.335
551.252
551.171
551.091
551.014
550.938
550.864
550.792
550.72
550.648
550.577
550.505
550.433
550.359
550.285
550.209
550.133
550.057
549.98
549.904
549.828
549.753
549.678
549.604
549.531
549.459
549.389
549.319
549.251
549.184
549.118
549.052
548.988
548.924
548.862
548.801
548.742
548.684
548.627
548.571
548.515
548.458
548.398
548.336
548.27
548.201
548.13
548.058
547.983
547.906
547.827
547.743
547.653
547.558
547.454
547.341
547.219
547.087
546.943
546.788
546.621
546.442
546.253
546.056
545.855
545.655
545.46
545.274
545.092
544.915
544.751
544.599
544.458
544.325
544.198
544.076
543.957
543.842
543.728
543.616
543.506
543.396
543.287
543.179
543.071
542.964
542.857
542.75
542.643
542.536
542.429
542.322
542.215
542.108
542.001
541.894
541.786
541.679
541.572
541.464
541.357
541.249
541.142
541.034
540.927
540.819
540.711
540.604
552.497
552.39
552.285
552.181
552.08
551.981
551.884
551.789
551.696
551.605
551.515
551.427
551.341
551.257
551.175
551.095
551.017
550.94
550.866
550.793
550.72
550.649
550.578
550.506
550.434
550.361
550.288
550.213
550.138
550.062
549.985
549.91
549.835
549.76
549.686
549.614
549.542
549.473
549.406
549.341
549.276
549.213
549.152
549.091
549.032
548.975
548.92
548.867
548.814
548.763
548.713
548.663
548.613
548.56
548.504
548.445
548.381
548.314
548.244
548.172
548.096
548.018
547.937
547.85
547.757
547.658
547.55
547.433
547.307
547.171
547.023
546.864
546.692
546.508
546.313
546.111
545.904
545.695
545.488
545.282
545.078
544.885
544.717
544.566
544.427
544.297
544.173
544.053
543.937
543.824
543.712
543.602
543.493
543.385
543.278
543.171
543.064
542.957
542.851
542.744
542.638
542.532
542.425
542.319
542.212
542.105
541.999
541.892
541.785
541.678
541.571
541.463
541.356
541.249
541.141
541.034
540.926
540.819
540.711
540.604
552.496
552.39
552.284
552.18
552.079
551.98
551.883
551.788
551.695
551.604
551.515
551.427
551.341
551.256
551.174
551.094
551.016
550.939
550.865
550.792
550.72
550.65
550.579
550.508
550.437
550.365
550.293
550.22
550.146
550.071
549.997
549.922
549.848
549.774
549.701
549.63
549.561
549.496
549.433
549.372
549.312
549.255
549.199
549.145
549.093
549.044
548.996
548.951
548.907
548.862
548.819
548.775
548.729
548.679
548.625
548.567
548.504
548.437
548.367
548.293
548.217
548.137
548.053
547.962
547.865
547.76
547.647
547.526
547.397
547.258
547.107
546.944
546.767
546.577
546.378
546.17
545.956
545.736
545.513
545.285
545.055
544.836
544.67
544.524
544.39
544.263
544.143
544.027
543.915
543.804
543.696
543.588
543.481
543.374
543.268
543.162
543.057
542.951
542.845
542.739
542.634
542.528
542.422
542.316
542.209
542.103
541.997
541.89
541.783
541.676
541.569
541.462
541.355
541.248
541.141
541.033
540.926
540.819
540.711
540.604
552.496
552.388
552.282
552.177
552.075
551.975
551.878
551.783
551.689
551.598
551.508
551.42
551.334
551.25
551.169
551.089
551.011
550.936
550.863
550.791
550.72
550.651
550.582
550.512
550.442
550.371
550.301
550.23
550.158
550.085
550.012
549.939
549.865
549.791
549.719
549.651
549.586
549.526
549.469
549.414
549.36
549.309
549.26
549.213
549.17
549.13
549.092
549.056
549.019
548.981
548.943
548.903
548.86
548.813
548.759
548.698
548.633
548.564
548.492
548.418
548.341
548.261
548.176
548.083
547.981
547.87
547.752
547.628
547.497
547.356
547.203
547.033
546.85
546.656
546.453
546.241
546.021
545.789
545.547
545.292
545.024
544.739
544.608
544.474
544.346
544.225
544.11
543.999
543.89
543.784
543.678
543.573
543.468
543.363
543.259
543.154
543.049
542.945
542.84
542.735
542.629
542.524
542.419
542.313
542.207
542.101
541.995
541.888
541.782
541.675
541.568
541.461
541.354
541.247
541.14
541.033
540.926
540.818
540.711
540.604
552.495
552.386
552.278
552.172
552.069
551.968
551.869
551.773
551.679
551.586
551.496
551.408
551.322
551.24
551.159
551.081
551.005
550.932
550.86
550.79
550.722
550.654
550.586
550.517
550.448
550.379
550.31
550.242
550.172
550.102
550.03
549.956
549.882
549.808
549.738
549.673
549.615
549.562
549.513
549.466
549.42
549.376
549.336
549.299
549.266
549.236
549.209
549.18
549.15
549.116
549.081
549.042
549
548.957
548.903
548.834
548.762
548.684
548.612
548.538
548.461
548.386
548.306
548.216
548.11
547.993
547.873
547.751
547.626
547.485
547.326
547.144
546.952
546.753
546.55
546.339
546.115
545.867
545.6
545.313
545.01
544.699
544.552
544.42
544.297
544.183
544.074
543.969
543.865
543.762
543.66
543.557
543.455
543.352
543.249
543.146
543.042
542.939
542.835
542.73
542.626
542.521
542.416
542.31
542.205
542.099
541.993
541.887
541.78
541.674
541.567
541.461
541.354
541.247
541.14
541.033
540.925
540.818
540.711
540.604
552.494
552.383
552.273
552.166
552.061
551.958
551.858
551.76
551.664
551.57
551.479
551.391
551.306
551.225
551.147
551.072
550.999
550.928
550.86
550.792
550.726
550.66
550.592
550.524
550.455
550.387
550.321
550.256
550.189
550.12
550.047
549.971
549.893
549.82
549.753
549.695
549.647
549.606
549.568
549.53
549.492
549.458
549.43
549.407
549.388
549.365
549.343
549.319
549.299
549.264
549.225
549.18
549.132
549.108
549.058
548.97
548.884
548.781
548.715
548.642
548.56
548.501
548.444
548.367
548.26
548.138
548.031
547.928
547.831
547.683
547.508
547.296
547.091
546.888
546.687
546.481
546.26
545.991
545.693
545.355
544.999
544.632
544.483
544.356
544.243
544.138
544.037
543.937
543.839
543.74
543.642
543.542
543.442
543.342
543.24
543.138
543.036
542.933
542.83
542.726
542.622
542.518
542.413
542.308
542.203
542.097
541.991
541.885
541.779
541.673
541.567
541.46
541.353
541.246
541.139
541.032
540.925
540.818
540.711
540.604
552.492
552.378
552.266
552.157
552.051
551.947
551.844
551.744
551.646
551.55
551.458
551.37
551.288
551.21
551.136
551.065
550.996
550.928
550.863
550.799
550.734
550.668
550.599
550.529
550.46
550.395
550.333
550.271
550.208
550.138
550.061
549.976
549.89
549.819
549.764
549.719
549.687
549.666
549.636
549.607
549.576
549.552
549.537
549.543
549.549
549.519
549.477
549.45
549.46
549.424
549.365
549.284
549.215
549.262
549.229
549.097
549.002
548.815
548.806
548.723
548.6
548.585
548.578
548.534
548.428
548.308
548.256
548.208
548.215
548
547.786
547.512
547.3
547.094
546.882
546.677
546.473
546.173
545.848
545.41
544.986
544.639
544.387
544.277
544.183
544.091
543.998
543.906
543.813
543.719
543.624
543.528
543.431
543.332
543.232
543.132
543.03
542.928
542.826
542.722
542.619
542.515
542.41
542.306
542.201
542.096
541.99
541.884
541.778
541.672
541.566
541.459
541.353
541.246
541.139
541.032
540.925
540.818
540.711
540.604
552.491
552.374
552.26
552.149
552.041
551.935
551.832
551.729
551.629
551.531
551.438
551.351
551.273
551.201
551.133
551.064
550.998
550.934
550.871
550.81
550.745
550.676
550.603
550.53
550.461
550.401
550.35
550.295
550.23
550.158
550.069
549.967
549.867
549.805
549.78
549.751
549.741
549.758
549.716
549.686
549.67
549.624
549.619
549.683
549.692
549.636
549.554
549.494
549.549
549.553
549.467
549.328
549.182
549.236
549.24
549.13
549.042
548.881
548.857
548.743
548.579
548.557
548.607
548.591
548.492
548.534
548.502
548.541
548.594
548.349
548.008
547.714
547.655
547.322
547.133
546.808
546.692
546.431
546.205
545.534
545.102
544.608
544.131
544.172
544.122
544.045
543.962
543.876
543.788
543.699
543.608
543.515
543.42
543.323
543.225
543.126
543.025
542.924
542.822
542.719
542.616
542.513
542.409
542.304
542.199
542.094
541.989
541.883
541.777
541.671
541.565
541.459
541.352
541.245
541.139
541.032
540.925
540.818
540.711
540.604
552.488
552.367
552.251
552.139
552.031
551.925
551.821
551.717
551.615
551.515
551.422
551.338
551.267
551.205
551.141
551.073
551.008
550.947
550.883
550.82
550.75
550.678
550.596
550.52
550.452
550.406
550.385
550.34
550.258
550.173
550.063
549.937
549.814
549.796
549.849
549.856
549.838
549.852
549.755
549.696
549.772
549.761
549.694
549.714
549.734
549.696
549.516
549.409
549.511
549.52
549.423
549.3
549.162
549.099
549.103
549.067
549.043
548.899
548.836
548.681
548.55
548.501
548.598
548.543
548.516
548.708
548.587
548.57
548.451
548.391
548.046
547.795
547.641
547.346
547.171
547.167
546.805
546.593
546.165
545.614
545.17
544.648
544.219
544.149
544.084
544.007
543.929
543.848
543.765
543.681
543.594
543.504
543.412
543.317
543.22
543.121
543.021
542.921
542.819
542.717
542.614
542.511
542.407
542.303
542.198
542.093
541.988
541.883
541.777
541.671
541.565
541.458
541.352
541.245
541.138
541.032
540.925
540.818
540.711
540.604
552.485
552.361
552.244
552.132
552.025
551.919
551.815
551.711
551.607
551.507
551.416
551.337
551.28
551.233
551.16
551.083
551.035
550.98
550.895
550.811
550.718
550.653
550.561
550.484
550.413
550.394
550.456
550.423
550.247
550.112
549.985
549.839
549.749
549.692
549.917
550.003
550.034
549.921
549.789
549.718
549.745
549.745
549.653
549.566
549.659
549.595
549.299
549.258
549.363
549.295
549.246
549.206
549.16
548.944
548.933
549.014
549.017
548.889
549.02
548.695
548.606
548.618
548.627
548.442
548.347
548.461
548.548
548.458
548.357
548.109
548.009
547.701
547.642
547.428
547.305
547.145
546.829
546.548
546.123
545.627
545.147
544.673
544.336
544.138
544.036
543.971
543.902
543.823
543.744
543.665
543.583
543.496
543.405
543.312
543.216
543.118
543.019
542.918
542.817
542.715
542.613
542.51
542.406
542.302
542.197
542.093
541.987
541.882
541.776
541.67
541.564
541.458
541.352
541.245