/*--------------------------------*- C++ -*----------------------------------*\
  =========                 |
  \\      /  F ield         | OpenFOAM: The Open Source CFD Toolbox
   \\    /   O peration     | Website:  https://openfoam.org
    \\  /    A nd           | Version:  6
     \\/     M anipulation  |
\*---------------------------------------------------------------------------*/
FoamFile
{
    version     2.0;
    format      ascii;
    class       volVectorField;
    location    "1550";
    object      U;
}
// * * * * * * * * * * * * * * * * * * * * * * * * * * * * * * * * * * * * * //

dimensions      [0 1 -1 0 0 0 0];

internalField   nonuniform List<vector> 
4800
(
(-4.00661e-05 0 -7.6197e-05)
(3.23513e-05 0 -8.88824e-05)
(-0.000117556 0 -6.6616e-05)
(-0.000108836 0 -1.16504e-05)
(-0.000210597 0 0.000196808)
(-0.000440699 0 6.14612e-05)
(-0.00048405 0 -4.36112e-05)
(-0.000492409 0 -2.91809e-05)
(-0.000493717 0 -1.59164e-05)
(-0.000489001 0 8.55676e-07)
(-0.000504307 0 1.19636e-05)
(-0.000608075 0 2.08447e-05)
(-0.000712991 0 0.00015287)
(-0.000864404 0 0.00011141)
(-0.0010488 0 -0.00011506)
(-0.00118579 0 6.36925e-05)
(-0.00127996 0 7.30344e-06)
(-0.00133993 0 2.2423e-06)
(-0.00138928 0 5.54454e-05)
(-0.00143458 0 -2.31034e-05)
(-0.00146441 0 3.59541e-05)
(-0.00148641 0 1.47085e-06)
(-0.00151464 0 8.98843e-06)
(-0.00153583 0 9.28108e-06)
(-0.00153137 0 -6.95372e-06)
(-0.00145232 0 -2.18749e-05)
(-0.00139756 0 -1.83283e-05)
(-0.00136568 0 -2.9339e-05)
(-0.00133005 0 -4.80428e-05)
(-0.00121443 0 -0.000197569)
(-0.00108605 0 -7.55223e-05)
(-0.000963612 0 -8.63712e-05)
(-0.000879752 0 -9.59842e-05)
(-0.000801225 0 -0.000107263)
(-0.000694786 0 -9.24468e-05)
(-0.000580213 0 -9.51878e-05)
(-0.000472011 0 -7.08071e-05)
(-0.000359037 0 -6.20151e-05)
(-0.000246893 0 -9.7448e-05)
(-1.92418e-05 0 -0.000283846)
(8.27408e-05 0 -0.000114583)
(0.00017753 0 -7.1569e-05)
(0.000256578 0 -6.0387e-05)
(0.000326991 0 -7.56897e-05)
(0.000403872 0 -5.11033e-05)
(0.000459414 0 -1.56179e-05)
(0.000468062 0 -6.64767e-05)
(0.000514248 0 -5.28297e-05)
(0.000523885 0 1.69628e-06)
(0.000485629 0 4.86004e-05)
(0.000402959 0 3.63929e-05)
(0.000162172 0 7.53643e-05)
(0.000123696 0 -1.81092e-06)
(-0.000279851 0 -2.63225e-05)
(-0.000355353 0 0.00012136)
(-0.000547758 0 0.000134675)
(-0.000729426 0 -6.12711e-06)
(-0.00085568 0 -3.14478e-05)
(-0.000921615 0 -0.000101851)
(-0.000938443 0 -0.000101811)
(-0.00088431 0 -0.000152242)
(-0.000806846 0 -0.000143267)
(-0.000758612 0 -0.000107563)
(-0.000724168 0 -9.00878e-05)
(-0.000689245 0 -7.23301e-05)
(-0.000645221 0 -7.50463e-05)
(-0.000603711 0 -8.55495e-05)
(-0.000577957 0 -8.93767e-05)
(-0.000561184 0 -9.59128e-05)
(-0.000545639 0 -0.000108874)
(-0.000535461 0 -0.000118437)
(-0.000531168 0 -0.000163834)
(-0.000541599 0 -0.000171748)
(-0.000551273 0 -0.00016039)
(-0.000553121 0 -0.000160723)
(-0.00053671 0 -0.000165337)
(-0.000507131 0 -0.000148276)
(-0.000496303 0 -0.000169168)
(-0.000562574 0 -0.00021215)
(3.01571e-06 0 -0.000305617)
(-1.64581e-12 0 9.98234e-14)
(-4.14752e-12 0 2.52086e-14)
(-3.26957e-12 0 -2.27516e-14)
(-3.19646e-12 0 -5.05411e-14)
(-3.07595e-12 0 -7.02709e-14)
(-2.91995e-12 0 -8.60904e-14)
(-2.73496e-12 0 -9.93191e-14)
(-2.52589e-12 0 -1.10243e-13)
(-2.29737e-12 0 -1.1885e-13)
(-2.05409e-12 0 -1.25077e-13)
(-1.80085e-12 0 -1.28893e-13)
(-1.54242e-12 0 -1.30329e-13)
(-1.28347e-12 0 -1.29482e-13)
(-1.0284e-12 0 -1.2651e-13)
(-7.81228e-13 0 -1.21621e-13)
(-5.45544e-13 0 -1.15064e-13)
(-3.24401e-13 0 -1.07111e-13)
(-1.20299e-13 0 -9.8048e-14)
(6.48371e-14 0 -8.81589e-14)
(2.29641e-13 0 -7.77179e-14)
(3.73277e-13 0 -6.69791e-14)
(4.95392e-13 0 -5.61715e-14)
(5.96063e-13 0 -4.54946e-14)
(6.75727e-13 0 -3.51161e-14)
(7.35127e-13 0 -2.51715e-14)
(7.7524e-13 0 -1.57654e-14)
(7.97226e-13 0 -6.9746e-15)
(8.02373e-13 0 1.14822e-15)
(7.92048e-13 0 8.57172e-15)
(7.67659e-13 0 1.52823e-14)
(7.30624e-13 0 2.12814e-14)
(6.82349e-13 0 2.6581e-14)
(6.2421e-13 0 3.12007e-14)
(5.5754e-13 0 3.51648e-14)
(4.83623e-13 0 3.84998e-14)
(4.03687e-13 0 4.12329e-14)
(3.18908e-13 0 4.33899e-14)
(2.30412e-13 0 4.49926e-14)
(1.3929e-13 0 4.60553e-14)
(4.66026e-14 0 4.65819e-14)
(-0.000108035 0 0.000105029)
(-9.27263e-05 0 0.000127828)
(-0.000325098 0 0.000103414)
(-0.000388233 0 4.75424e-05)
(-0.000411689 0 5.32014e-06)
(-0.000450895 0 0.000112925)
(-0.000483686 0 7.04308e-05)
(-0.000499881 0 3.46672e-05)
(-0.000536358 0 3.6869e-05)
(-0.000676245 0 -3.71302e-06)
(-0.000771917 0 -1.08849e-05)
(-0.00082625 0 0.000154826)
(-0.00094082 0 0.000165262)
(-0.00108466 0 0.000134771)
(-0.00115828 0 0.000251534)
(-0.00124948 0 0.000105832)
(-0.00132733 0 0.000121573)
(-0.00140475 0 0.000116069)
(-0.0014708 0 3.6013e-05)
(-0.00151222 0 8.81241e-05)
(-0.00153241 0 4.03817e-05)
(-0.00153573 0 2.70151e-05)
(-0.00153384 0 2.3966e-06)
(-0.00153578 0 -8.19413e-06)
(-0.00148974 0 -6.69119e-05)
(-0.00140778 0 -0.000102235)
(-0.00134526 0 -0.000134792)
(-0.00131743 0 -0.000156821)
(-0.00131551 0 -0.000138559)
(-0.00124033 0 -5.86415e-05)
(-0.00105198 0 -0.000164686)
(-0.000924029 0 -0.000179783)
(-0.00087446 0 -8.88895e-05)
(-0.000795493 0 -8.01223e-05)
(-0.000657205 0 -0.000202734)
(-0.000572819 0 -0.000158422)
(-0.000458716 0 -0.000185092)
(-0.000375792 0 -0.000181304)
(-0.000224526 0 -0.000253827)
(-5.16869e-05 0 -0.000256783)
(-0.000127704 0 -0.000147167)
(0.000132645 0 -7.655e-05)
(0.000197487 0 -8.26469e-05)
(0.00028252 0 -6.73251e-05)
(0.000339545 0 -9.31863e-05)
(0.000411546 0 8.88106e-06)
(0.000409372 0 -0.00018495)
(0.000470296 0 3.17501e-06)
(0.000464167 0 5.01349e-05)
(0.000437614 0 7.60463e-05)
(0.000336454 0 0.000177968)
(0.000239921 0 0.000203015)
(6.2917e-05 0 0.000267623)
(-2.67657e-05 0 0.000317543)
(-0.000262553 0 0.000244193)
(-0.000439596 0 0.000224996)
(-0.000581849 0 0.000163629)
(-0.000648477 0 0.000135101)
(-0.000599463 0 0.000106434)
(-0.00054452 0 -1.44432e-05)
(-0.000484742 0 -5.06382e-05)
(-0.00043726 0 -4.88952e-05)
(-0.000382467 0 -6.03926e-05)
(-0.000344905 0 -3.9751e-05)
(-0.000303798 0 -4.21344e-05)
(-0.000273296 0 -3.43485e-05)
(-0.000252273 0 -1.84236e-05)
(-0.000247194 0 8.23194e-06)
(-0.000243019 0 1.96245e-05)
(-0.000251869 0 4.69187e-05)
(-0.000247625 0 5.20906e-05)
(-0.000247667 0 0.000107604)
(-0.000278761 0 0.000146861)
(-0.000294281 0 0.000144466)
(-0.000301094 0 9.24638e-05)
(-0.000288682 0 6.28906e-05)
(-0.000297498 0 -7.72524e-05)
(-0.000390053 0 -0.000258244)
(-0.000492613 0 -0.000239752)
(3.37202e-06 0 -0.000366758)
(-1.81702e-12 0 2.01272e-13)
(-4.30318e-12 0 2.49267e-14)
(-3.34561e-12 0 -8.8726e-14)
(-3.24403e-12 0 -1.5994e-13)
(-3.11143e-12 0 -2.1488e-13)
(-2.94899e-12 0 -2.61076e-13)
(-2.75911e-12 0 -3.0051e-13)
(-2.54542e-12 0 -3.33326e-13)
(-2.3122e-12 0 -3.59238e-13)
(-2.06413e-12 0 -3.77971e-13)
(-1.8061e-12 0 -3.89408e-13)
(-1.54301e-12 0 -3.93638e-13)
(-1.27965e-12 0 -3.90955e-13)
(-1.02054e-12 0 -3.81842e-13)
(-7.69783e-13 0 -3.66939e-13)
(-5.31034e-13 0 -3.47001e-13)
(-3.07385e-13 0 -3.22859e-13)
(-1.01347e-13 0 -2.9538e-13)
(8.51672e-14 0 -2.65428e-13)
(2.50821e-13 0 -2.33835e-13)
(3.94824e-13 0 -2.01371e-13)
(5.16877e-13 0 -1.68726e-13)
(6.17118e-13 0 -1.36503e-13)
(6.9605e-13 0 -1.05204e-13)
(7.54477e-13 0 -7.5237e-14)
(7.93436e-13 0 -4.69145e-14)
(8.14139e-13 0 -2.04656e-14)
(8.17919e-13 0 3.95554e-15)
(8.06182e-13 0 2.62592e-14)
(7.80369e-13 0 4.64099e-14)
(7.41923e-13 0 6.44149e-14)
(6.92268e-13 0 8.03137e-14)
(6.32793e-13 0 9.41678e-14)
(5.64839e-13 0 1.06053e-13)
(4.89691e-13 0 1.16051e-13)
(4.08577e-13 0 1.24245e-13)
(3.22668e-13 0 1.30712e-13)
(2.33078e-13 0 1.35514e-13)
(1.40879e-13 0 1.38695e-13)
(4.71293e-14 0 1.40273e-13)
(-0.000104448 0 0.000177375)
(-0.000105867 0 0.000204672)
(-0.000222031 0 0.000256956)
(-0.000369535 0 0.000277168)
(-0.000413857 0 0.000252024)
(-0.000479692 0 4.87182e-05)
(-0.000455469 0 6.78391e-05)
(-0.000509931 0 1.66284e-06)
(-0.000605737 0 0.000172949)
(-0.000736207 0 0.000189562)
(-0.000824831 0 0.000331506)
(-0.000945849 0 0.000231693)
(-0.000999386 0 0.000329138)
(-0.00107198 0 0.000332758)
(-0.00115037 0 0.000252448)
(-0.00122974 0 0.000198868)
(-0.001302 0 0.00018687)
(-0.00136411 0 0.000159229)
(-0.00141355 0 0.000108494)
(-0.00144345 0 8.55454e-05)
(-0.00145642 0 5.67759e-05)
(-0.00145747 0 3.13112e-05)
(-0.00143406 0 -2.31301e-05)
(-0.00142408 0 -3.74431e-05)
(-0.00139394 0 -0.000113157)
(-0.00129458 0 -0.000100116)
(-0.00120236 0 -0.000147397)
(-0.0011442 0 -0.000178958)
(-0.00111275 0 -0.000213732)
(-0.00109784 0 -0.000136011)
(-0.000920815 0 -0.000346031)
(-0.000739115 0 -0.000410005)
(-0.000721671 0 -0.000203737)
(-0.000656801 0 -0.00015394)
(-0.000477484 0 -0.000351323)
(-0.000463517 0 -0.000221469)
(-0.000333362 0 -0.000292919)
(-0.000290262 0 -0.000305842)
(-3.05337e-05 0 -0.00040141)
(-6.81772e-05 0 -0.000240518)
(7.34439e-05 0 -0.000250624)
(6.43946e-05 0 -0.000275753)
(0.000198758 0 -0.000279041)
(0.000292351 0 -0.000219914)
(0.000330816 0 -0.00014033)
(0.000356127 0 -0.000160602)
(0.000428931 0 -3.09426e-05)
(0.000417921 0 -1.73547e-05)
(0.000406106 0 5.57176e-05)
(0.000364711 0 0.000181737)
(0.000285197 0 0.000280335)
(0.000188134 0 0.000362337)
(4.24528e-05 0 0.000412345)
(1.05295e-05 0 0.000412796)
(-0.000171906 0 0.000359843)
(-0.000267108 0 0.000343411)
(-0.000353164 0 0.000274519)
(-0.000197815 0 0.000336637)
(-0.000304037 0 -8.99702e-05)
(-0.000234955 0 -9.11045e-05)
(-0.000227546 0 -0.000106739)
(-0.000219222 0 -9.66081e-05)
(-0.000185848 0 -0.000106258)
(-0.000171518 0 -6.71864e-05)
(-0.000150785 0 -5.1049e-05)
(-0.00010598 0 -4.19912e-05)
(-5.67907e-05 0 -4.31346e-05)
(-6.74211e-05 0 -1.45171e-05)
(-5.02948e-05 0 -2.20565e-05)
(-5.58295e-05 0 -1.88533e-05)
(-5.29744e-05 0 -2.19777e-05)
(-3.61565e-05 0 -3.09825e-05)
(-9.69199e-06 0 -3.48056e-05)
(4.25005e-05 0 -4.72571e-05)
(8.32136e-05 0 -3.6457e-05)
(0.000159988 0 -1.9288e-05)
(0.000147014 0 -2.0524e-05)
(0.000424879 0 -2.86234e-05)
(-0.000179214 0 -0.000163124)
(3.59573e-06 0 -0.000308422)
(-1.79609e-12 0 -9.66372e-14)
(-4.52607e-12 0 -1.0413e-13)
(-3.45454e-12 0 -1.97376e-13)
(-3.32249e-12 0 -2.85781e-13)
(-3.17694e-12 0 -3.68241e-13)
(-3.00557e-12 0 -4.42948e-13)
(-2.80721e-12 0 -5.08466e-13)
(-2.58462e-12 0 -5.63478e-13)
(-2.34201e-12 0 -6.06986e-13)
(-2.08426e-12 0 -6.38356e-13)
(-1.81651e-12 0 -6.57339e-13)
(-1.54397e-12 0 -6.6408e-13)
(-1.27168e-12 0 -6.59092e-13)
(-1.00438e-12 0 -6.43212e-13)
(-7.46387e-13 0 -6.17546e-13)
(-5.01463e-13 0 -5.83399e-13)
(-2.7278e-13 0 -5.42201e-13)
(-6.28686e-14 0 -4.95438e-13)
(1.26382e-13 0 -4.44586e-13)
(2.93699e-13 0 -3.91061e-13)
(4.38386e-13 0 -3.36168e-13)
(5.6026e-13 0 -2.81073e-13)
(6.59584e-13 0 -2.26786e-13)
(7.36993e-13 0 -1.74148e-13)
(7.93417e-13 0 -1.23833e-13)
(8.30011e-13 0 -7.63563e-14)
(8.48096e-13 0 -3.2088e-14)
(8.49098e-13 0 8.72814e-15)
(8.34502e-13 0 4.59567e-14)
(8.05815e-13 0 7.95517e-14)
(7.64528e-13 0 1.09538e-13)
(7.12102e-13 0 1.35991e-13)
(6.49948e-13 0 1.59025e-13)
(5.79423e-13 0 1.78773e-13)
(5.01815e-13 0 1.95379e-13)
(4.18348e-13 0 2.08983e-13)
(3.30177e-13 0 2.19711e-13)
(2.38395e-13 0 2.27667e-13)
(1.44049e-13 0 2.32926e-13)
(4.81815e-14 0 2.35537e-13)
(-7.73293e-05 0 0.000237857)
(-8.34376e-05 0 0.00029312)
(-0.000130213 0 0.000336354)
(-0.000304703 0 0.000330893)
(-0.000379057 0 0.000299624)
(-0.000451404 0 0.000222881)
(-0.000522114 0 5.70805e-05)
(-0.000588235 0 0.000117373)
(-0.000687495 0 0.000202905)
(-0.000758683 0 0.000226969)
(-0.000805313 0 0.000340927)
(-0.000909972 0 0.00032796)
(-0.000986569 0 0.000351203)
(-0.0010332 0 0.000405474)
(-0.00110068 0 0.000359644)
(-0.00116779 0 0.000304259)
(-0.00122004 0 0.000266351)
(-0.00126606 0 0.000195612)
(-0.00129646 0 0.000147926)
(-0.00131104 0 0.000112099)
(-0.00131911 0 4.50328e-05)
(-0.00132286 0 3.69913e-05)
(-0.00129485 0 -0.000132651)
(-0.00126954 0 -0.000104435)
(-0.00126612 0 -0.000117729)
(-0.00124541 0 -0.000204855)
(-0.00108766 0 -0.000334996)
(-0.0010057 0 -0.000186358)
(-0.000917191 0 -0.000297394)
(-0.000910143 0 -0.000231941)
(-0.000850654 0 -0.000259992)
(-0.000649431 0 -0.000430153)
(-0.000570316 0 -0.000353475)
(-0.000582062 0 -0.000179682)
(-0.000399405 0 -0.000370117)
(-0.000353339 0 -0.000308918)
(-0.000188439 0 -0.000391984)
(-7.12617e-05 0 -0.000494373)
(8.83585e-05 0 -0.000446196)
(0.000143117 0 -0.000370119)
(0.000239566 0 -0.000357426)
(0.0003149 0 -0.000330739)
(0.000403901 0 -0.000250232)
(0.000421409 0 -0.000212972)
(0.000408292 0 -0.000185294)
(0.000395777 0 -0.00013761)
(0.000408036 0 -5.13868e-05)
(0.000394548 0 -4.95754e-05)
(0.000338854 0 0.000114821)
(0.000292788 0 0.000232902)
(0.00023645 0 0.000354108)
(0.000200206 0 0.000437697)
(0.000123184 0 0.000498935)
(-6.47157e-06 0 0.000526251)
(-7.8858e-05 0 0.00047278)
(-0.00021873 0 0.000388859)
(-0.000158493 0 0.000300846)
(-0.000278311 0 -9.44691e-05)
(-0.000187272 0 7.6606e-05)
(-0.000207976 0 -6.65094e-05)
(-0.000186028 0 -0.0001776)
(-0.000172698 0 -0.00013325)
(-0.000121783 0 -0.000157444)
(-9.09401e-05 0 -0.00014339)
(2.51463e-05 0 -0.000197093)
(8.71105e-05 0 -0.000143893)
(8.19805e-05 0 -7.71805e-05)
(4.16478e-05 0 -1.47709e-05)
(2.06256e-05 0 -1.46859e-06)
(2.9371e-05 0 -1.08961e-05)
(4.89176e-05 0 -8.58773e-06)
(6.69748e-05 0 -2.2506e-05)
(9.26365e-05 0 -3.06081e-05)
(0.000127599 0 -4.26476e-05)
(0.000155368 0 -6.13867e-05)
(0.000195739 0 -6.7038e-05)
(0.000140832 0 -7.69648e-05)
(0.000277342 0 -0.000143012)
(-0.000400082 0 -9.62486e-05)
(4.41176e-06 0 -0.000261497)
(-1.95181e-12 0 -4.47101e-13)
(-4.52324e-12 0 -2.43415e-13)
(-3.52689e-12 0 -3.10752e-13)
(-3.41457e-12 0 -4.17412e-13)
(-3.26845e-12 0 -5.29086e-13)
(-3.08922e-12 0 -6.33873e-13)
(-2.87964e-12 0 -7.26776e-13)
(-2.64394e-12 0 -8.04967e-13)
(-2.38708e-12 0 -8.66693e-13)
(-2.11448e-12 0 -9.10935e-13)
(-1.83182e-12 0 -9.37315e-13)
(-1.54476e-12 0 -9.46053e-13)
(-1.25879e-12 0 -9.37918e-13)
(-9.78991e-13 0 -9.14164e-13)
(-7.0997e-13 0 -8.76431e-13)
(-4.55689e-13 0 -8.26644e-13)
(-2.19424e-13 0 -7.66905e-13)
(-3.73215e-15 0 -6.99384e-13)
(1.89544e-13 0 -6.26227e-13)
(3.5924e-13 0 -5.49475e-13)
(5.04812e-13 0 -4.71001e-13)
(6.26259e-13 0 -3.92466e-13)
(7.24043e-13 0 -3.15295e-13)
(7.99003e-13 0 -2.40665e-13)
(8.52269e-13 0 -1.69509e-13)
(8.85182e-13 0 -1.0253e-13)
(8.99224e-13 0 -4.02199e-14)
(8.95964e-13 0 1.71088e-14)
(8.77006e-13 0 6.92959e-14)
(8.4395e-13 0 1.16304e-13)
(7.98362e-13 0 1.58193e-13)
(7.41756e-13 0 1.95094e-13)
(6.75576e-13 0 2.27183e-13)
(6.01193e-13 0 2.54663e-13)
(5.19901e-13 0 2.77746e-13)
(4.32909e-13 0 2.96634e-13)
(3.41352e-13 0 3.11509e-13)
(2.46293e-13 0 3.22521e-13)
(1.48748e-13 0 3.29787e-13)
(4.97397e-14 0 3.3339e-13)
(-5.40568e-05 0 0.000293761)
(-0.000106664 0 0.000346278)
(-0.000145419 0 0.000404936)
(-0.000250635 0 0.000409439)
(-0.000302614 0 0.000388854)
(-0.000421881 0 0.000274929)
(-0.000535121 0 0.000151936)
(-0.000595114 0 0.00022558)
(-0.000665801 0 0.000339118)
(-0.000723066 0 0.000379107)
(-0.000787758 0 0.000364063)
(-0.000890317 0 0.000326359)
(-0.000948281 0 0.000381929)
(-0.000995217 0 0.000398269)
(-0.00105071 0 0.000345914)
(-0.00109687 0 0.000286379)
(-0.00112141 0 0.000256013)
(-0.00114299 0 0.00021363)
(-0.00116197 0 0.000178471)
(-0.0011711 0 0.000127846)
(-0.00116579 0 6.00824e-05)
(-0.00116656 0 2.73859e-05)
(-0.00117199 0 -2.28727e-05)
(-0.00112761 0 -0.000184478)
(-0.00110008 0 -0.000189115)
(-0.00109988 0 -0.000195654)
(-0.00104254 0 -0.000298316)
(-0.000852534 0 -0.000484244)
(-0.000812996 0 -0.000326193)
(-0.000741751 0 -0.000369054)
(-0.000686037 0 -0.000414149)
(-0.000535246 0 -0.000491195)
(-0.000473112 0 -0.000408293)
(-0.00046235 0 -0.000333985)
(-0.000266464 0 -0.000487157)
(-0.000202431 0 -0.000510883)
(3.94973e-05 0 -0.000552707)
(-4.79525e-06 0 -0.000559548)
(0.000137864 0 -0.000528329)
(0.000241311 0 -0.00049297)
(0.000346292 0 -0.000427117)
(0.000331617 0 -0.000419074)
(0.00044324 0 -0.000291677)
(0.000493173 0 -0.000203189)
(0.000506582 0 -0.000130468)
(0.000434931 0 -0.000176635)
(0.000424051 0 -3.84196e-06)
(0.000411638 0 4.69526e-05)
(0.000324895 0 0.000191141)
(0.000265629 0 0.000287147)
(0.000243291 0 0.000398879)
(4.08362e-05 0 0.000553251)
(-4.67733e-05 0 0.000607548)
(-2.97866e-05 0 0.000612626)
(-6.9311e-05 0 0.000554566)
(-0.000183113 0 0.000452989)
(-0.000147633 0 0.000330704)
(-0.000263754 0 8.26471e-05)
(-0.000233526 0 -1.75695e-05)
(-0.000226315 0 -0.000147647)
(-0.000226116 0 -0.000147316)
(-0.000218489 0 -0.000174194)
(-0.000200864 0 -0.000192969)
(-0.000160492 0 -0.000223172)
(-0.000204944 0 -0.000195232)
(-0.000221095 0 -0.000157752)
(-9.31852e-05 0 -0.000105774)
(-3.0492e-05 0 -2.70257e-06)
(-8.94954e-05 0 -7.63239e-06)
(-6.2792e-05 0 -2.96014e-05)
(-2.67181e-05 0 -3.82934e-05)
(5.5576e-06 0 -5.15871e-05)
(3.43323e-05 0 -7.21872e-05)
(8.01699e-05 0 -8.14931e-05)
(0.000107376 0 -0.000112499)
(0.00017074 0 -0.000109975)
(0.0001029 0 -6.73945e-05)
(0.000517177 0 -3.62334e-05)
(-0.000554103 0 4.55092e-06)
(5.04722e-06 0 -0.000251121)
(-2.11826e-12 0 -1.98921e-13)
(-4.52294e-12 0 -2.26645e-13)
(-3.62818e-12 0 -3.8471e-13)
(-3.54052e-12 0 -5.43899e-13)
(-3.39326e-12 0 -6.96587e-13)
(-3.20327e-12 0 -8.36587e-13)
(-2.9783e-12 0 -9.59702e-13)
(-2.72454e-12 0 -1.06282e-12)
(-2.44798e-12 0 -1.14379e-12)
(-2.15488e-12 0 -1.20128e-12)
(-1.85163e-12 0 -1.23484e-12)
(-1.54457e-12 0 -1.24481e-12)
(-1.23979e-12 0 -1.23228e-12)
(-9.42895e-13 0 -1.19902e-12)
(-6.58867e-13 0 -1.1473e-12)
(-3.91937e-13 0 -1.07977e-12)
(-1.45519e-13 0 -9.99327e-13)
(7.78099e-14 0 -9.0891e-13)
(2.7629e-13 0 -8.11416e-13)
(4.48925e-13 0 -7.09577e-13)
(5.95395e-13 0 -6.05874e-13)
(7.15967e-13 0 -5.02489e-13)
(8.11385e-13 0 -4.01269e-13)
(8.82778e-13 0 -3.03724e-13)
(9.31551e-13 0 -2.1103e-13)
(9.59301e-13 0 -1.24056e-13)
(9.67735e-13 0 -4.33921e-14)
(9.58613e-13 0 3.06096e-14)
(9.33698e-13 0 9.77938e-14)
(8.94712e-13 0 1.58161e-13)
(8.43318e-13 0 2.11832e-13)
(7.81091e-13 0 2.59011e-13)
(7.09518e-13 0 2.9996e-13)
(6.29986e-13 0 3.34964e-13)
(5.43786e-13 0 3.64318e-13)
(4.52111e-13 0 3.88297e-13)
(3.56064e-13 0 4.0715e-13)
(2.56674e-13 0 4.21085e-13)
(1.54917e-13 0 4.30268e-13)
(5.17839e-14 0 4.34818e-13)
(-3.93921e-05 0 0.000357893)
(-8.7812e-05 0 0.000397437)
(-0.000159366 0 0.000488691)
(-0.000236622 0 0.000497613)
(-0.000326821 0 0.00043146)
(-0.000379169 0 0.000365263)
(-0.000490606 0 0.000270009)
(-0.00059141 0 0.000252573)
(-0.00063562 0 0.000365298)
(-0.00068564 0 0.000431832)
(-0.000707628 0 0.000495307)
(-0.000792277 0 0.000474029)
(-0.000859411 0 0.000475938)
(-0.000889402 0 0.000500472)
(-0.00092188 0 0.000472323)
(-0.000936055 0 0.000445818)
(-0.000954164 0 0.000376709)
(-0.000986423 0 0.000280609)
(-0.001032 0 0.000171861)
(-0.00103836 0 0.000117735)
(-0.00101324 0 4.44681e-06)
(-0.000995968 0 -1.12077e-05)
(-0.000988078 0 -6.9475e-05)
(-0.000983468 0 -0.000129073)
(-0.000929106 0 -0.000263749)
(-0.000903284 0 -0.000295492)
(-0.000855984 0 -0.00041297)
(-0.000802463 0 -0.000412261)
(-0.000670019 0 -0.000465532)
(-0.00061355 0 -0.000456781)
(-0.000562532 0 -0.000489765)
(-0.00048661 0 -0.000508196)
(-0.000424392 0 -0.00043057)
(-0.000362761 0 -0.000436162)
(-0.000152455 0 -0.000558164)
(-3.47669e-05 0 -0.000588401)
(4.58999e-05 0 -0.000615859)
(0.000164702 0 -0.0006406)
(0.000240865 0 -0.000608742)
(0.000356601 0 -0.000554311)
(0.000344618 0 -0.000552697)
(0.000460522 0 -0.000402944)
(0.000397066 0 -0.000427787)
(0.000487492 0 -0.000275855)
(0.000511701 0 -0.000145388)
(0.000488726 0 -5.55736e-05)
(0.000456008 0 -1.29041e-05)
(0.000400408 0 9.77753e-05)
(0.000302372 0 0.000269262)
(0.000284376 0 0.000333031)
(0.00016204 0 0.000506301)
(0.000215272 0 0.000572737)
(0.000309697 0 0.00059507)
(0.000114898 0 0.000646856)
(-7.15094e-06 0 0.00062284)
(-0.000145003 0 0.000530318)
(-0.000120683 0 0.000378456)
(-0.000186969 0 0.000178786)
(-0.000236045 0 5.8336e-05)
(-0.000245927 0 -9.29917e-05)
(-0.00025872 0 -0.000148438)
(-0.000293635 0 -0.000125078)
(-0.000285238 0 -0.00019502)
(-0.000300863 0 -0.000206032)
(-0.000307105 0 -0.000208555)
(-0.000322274 0 -0.000175598)
(-0.000291597 0 -9.1628e-05)
(-0.00022671 0 -3.1121e-05)
(-0.000209931 0 3.68248e-06)
(-0.000191696 0 -4.53732e-05)
(-0.000147543 0 -7.3819e-05)
(-0.000102909 0 -8.17193e-05)
(-7.15965e-05 0 -0.000116489)
(1.014e-05 0 -0.000125322)
(2.16562e-05 0 -0.000182672)
(0.000113196 0 -0.000176383)
(8.69447e-05 0 -0.00013326)
(0.000414298 0 -4.57241e-05)
(-0.000443395 0 8.77907e-05)
(4.85885e-06 0 -0.000226815)
(-2.23248e-12 0 -2.38627e-14)
(-4.85431e-12 0 -2.08794e-13)
(-3.84381e-12 0 -4.57441e-13)
(-3.72615e-12 0 -6.76758e-13)
(-3.561e-12 0 -8.76557e-13)
(-3.35233e-12 0 -1.05611e-12)
(-3.10588e-12 0 -1.21254e-12)
(-2.82803e-12 0 -1.34277e-12)
(-2.52554e-12 0 -1.44428e-12)
(-2.20554e-12 0 -1.51551e-12)
(-1.87535e-12 0 -1.55591e-12)
(-1.54221e-12 0 -1.56601e-12)
(-1.21299e-12 0 -1.54734e-12)
(-8.94005e-13 0 -1.50229e-12)
(-5.90726e-13 0 -1.43393e-12)
(-3.07721e-13 0 -1.3458e-12)
(-4.85607e-14 0 -1.24171e-12)
(1.84179e-13 0 -1.12551e-12)
(3.88877e-13 0 -1.00096e-12)
(5.64782e-13 0 -8.71558e-13)
(7.11899e-13 0 -7.40456e-13)
(8.30864e-13 0 -6.1038e-13)
(9.22808e-13 0 -4.83609e-13)
(9.89242e-13 0 -3.61972e-13)
(1.03194e-12 0 -2.46866e-13)
(1.05282e-12 0 -1.39296e-13)
(1.05389e-12 0 -3.9913e-14)
(1.03715e-12 0 5.09282e-14)
(1.00456e-12 0 1.33116e-13)
(9.57988e-13 0 2.06728e-13)
(8.99212e-13 0 2.71977e-13)
(8.29883e-13 0 3.29175e-13)
(7.51529e-13 0 3.7869e-13)
(6.65551e-13 0 4.20917e-13)
(5.73233e-13 0 4.56249e-13)
(4.75741e-13 0 4.85053e-13)
(3.7414e-13 0 5.07659e-13)
(2.69412e-13 0 5.24344e-13)
(1.62481e-13 0 5.35327e-13)
(5.42892e-14 0 5.40767e-13)
(-6.04409e-05 0 0.000447578)
(-0.000197397 0 0.000459212)
(-0.000367037 0 0.000520523)
(-0.000331565 0 0.000559283)
(-0.000388022 0 0.000487034)
(-0.000448243 0 0.000380875)
(-0.000462855 0 0.000349322)
(-0.000566004 0 0.000298583)
(-0.000540884 0 0.000454209)
(-0.000615501 0 0.000490846)
(-0.000652892 0 0.000534905)
(-0.000718617 0 0.000526486)
(-0.000800297 0 0.000479492)
(-0.000831136 0 0.000455499)
(-0.00085763 0 0.000388984)
(-0.000875752 0 0.000282929)
(-0.000884295 0 0.000219872)
(-0.000890662 0 0.000170464)
(-0.000847357 0 0.00027165)
(-0.000855573 0 0.000114643)
(-0.000840471 0 4.20062e-05)
(-0.000810223 0 -2.46965e-05)
(-0.000791207 0 -9.36943e-05)
(-0.000784339 0 -0.000160079)
(-0.000742276 0 -0.000298257)
(-0.000711897 0 -0.000361997)
(-0.000678277 0 -0.000447891)
(-0.000636776 0 -0.000493193)
(-0.000550644 0 -0.000512302)
(-0.000485707 0 -0.000534719)
(-0.000420177 0 -0.000573397)
(-0.000378544 0 -0.000593464)
(-0.000163591 0 -0.000653804)
(-8.74359e-05 0 -0.000662936)
(7.7465e-05 0 -0.000674105)
(0.000145299 0 -0.000652089)
(0.000140283 0 -0.000702777)
(0.000296433 0 -0.000706093)
(0.000329663 0 -0.00068585)
(0.000436324 0 -0.000617069)
(0.000411527 0 -0.000607699)
(0.000541987 0 -0.000410966)
(0.000453146 0 -0.000440952)
(0.000526686 0 -0.000251043)
(0.000521798 0 -0.000121849)
(0.000459544 0 -0.000101161)
(0.000446653 0 9.65e-05)
(0.000394137 0 0.000178315)
(0.000349801 0 0.000264115)
(0.000264227 0 0.000394441)
(0.000385573 0 0.000462935)
(9.12836e-05 0 0.000646534)
(-1.95473e-05 0 0.000704085)
(0.000122944 0 0.00071934)
(1.09901e-06 0 0.000697488)
(-0.000100422 0 0.000604799)
(-9.10541e-05 0 0.000420683)
(-0.000150362 0 0.000217456)
(-0.000178906 0 0.000103326)
(-0.000244965 0 -7.60048e-05)
(-0.000292735 0 -0.000117766)
(-0.000331583 0 -0.000124291)
(-0.000355214 0 -0.000176004)
(-0.000382363 0 -0.000195095)
(-0.000431043 0 -0.000178028)
(-0.000476078 0 -0.000160834)
(-0.000498554 0 -0.000145315)
(-0.000505504 0 -3.05591e-05)
(-0.000432897 0 -4.65095e-05)
(-0.000376182 0 -0.000117931)
(-0.000297169 0 -0.000119053)
(-0.000232876 0 -0.00012748)
(-0.000179097 0 -0.000146109)
(-0.000108229 0 -0.000187515)
(-2.34385e-05 0 -0.000199612)
(-4.56972e-05 0 -0.000192038)
(-0.000207395 0 -0.000121827)
(0.000168177 0 3.02685e-05)
(-0.00057942 0 0.000235946)
(4.99939e-06 0 -0.000324416)
(-2.47663e-12 0 -1.87052e-13)
(-5.11887e-12 0 -2.74371e-13)
(-4.09581e-12 0 -5.59406e-13)
(-3.95935e-12 0 -8.29016e-13)
(-3.77248e-12 0 -1.07659e-12)
(-3.53925e-12 0 -1.29868e-12)
(-3.26497e-12 0 -1.49156e-12)
(-2.95628e-12 0 -1.65139e-12)
(-2.62072e-12 0 -1.77505e-12)
(-2.2665e-12 0 -1.86054e-12)
(-1.90213e-12 0 -1.90725e-12)
(-1.53601e-12 0 -1.91597e-12)
(-1.17607e-12 0 -1.88877e-12)
(-8.29486e-13 0 -1.82888e-12)
(-5.02377e-13 0 -1.74034e-12)
(-1.99712e-13 0 -1.62781e-12)
(7.47756e-14 0 -1.4962e-12)
(3.1856e-13 0 -1.35048e-12)
(5.30241e-13 0 -1.19537e-12)
(7.09427e-13 0 -1.03527e-12)
(8.56573e-13 0 -8.74043e-13)
(9.72813e-13 0 -7.15e-13)
(1.05979e-12 0 -5.60851e-13)
(1.11952e-12 0 -4.13723e-13)
(1.15423e-12 0 -2.75198e-13)
(1.16625e-12 0 -1.46367e-13)
(1.15796e-12 0 -2.78951e-14)
(1.13164e-12 0 7.99113e-14)
(1.0895e-12 0 1.77035e-13)
(1.03357e-12 0 2.63676e-13)
(9.65764e-13 0 3.40189e-13)
(8.87804e-13 0 4.07028e-13)
(8.0126e-13 0 4.64703e-13)
(7.07545e-13 0 5.13745e-13)
(6.07922e-13 0 5.54669e-13)
(5.03521e-13 0 5.87954e-13)
(3.95355e-13 0 6.14024e-13)
(2.84342e-13 0 6.33236e-13)
(1.7134e-13 0 6.45871e-13)
(5.72232e-14 0 6.52126e-13)
(-6.87909e-05 0 0.000554132)
(-6.27953e-05 0 0.000573114)
(-7.44298e-05 0 0.000640161)
(-0.000172678 0 0.000646369)
(-0.000267421 0 0.00060203)
(-0.000312485 0 0.000514698)
(-0.00038194 0 0.000433365)
(-0.000531732 0 0.000332017)
(-0.000487106 0 0.000461629)
(-0.000469086 0 0.000576913)
(-0.000554575 0 0.000573023)
(-0.000599628 0 0.000576275)
(-0.000611469 0 0.000589033)
(-0.000618219 0 0.000579092)
(-0.000644769 0 0.00051297)
(-0.000677488 0 0.000452668)
(-0.000699687 0 0.000417515)
(-0.000698684 0 0.00036768)
(-0.000655352 0 0.00024842)
(-0.00064685 0 0.000136846)
(-0.000694721 0 1.07135e-05)
(-0.000659632 0 -0.000105318)
(-0.000610027 0 -0.000118602)
(-0.000594828 0 -0.000148806)
(-0.000560699 0 -0.000303501)
(-0.000520723 0 -0.000408491)
(-0.000505281 0 -0.000483142)
(-0.000451342 0 -0.00055067)
(-0.000433957 0 -0.000559114)
(-0.000424945 0 -0.000552486)
(-0.000280962 0 -0.000638761)
(-0.00019431 0 -0.000694692)
(-0.000130959 0 -0.000706112)
(-7.16249e-06 0 -0.000779751)
(7.03201e-05 0 -0.000806346)
(0.000205293 0 -0.000786291)
(0.000244533 0 -0.000795102)
(0.000317618 0 -0.000785927)
(0.000398203 0 -0.000742853)
(0.000472646 0 -0.000673736)
(0.000405597 0 -0.000665072)
(0.000575338 0 -0.000416809)
(0.00043054 0 -0.000487636)
(0.00053708 0 -0.00022529)
(0.000477598 0 -0.00015027)
(0.000426706 0 -1.59971e-05)
(0.000421985 0 8.09404e-05)
(0.000355442 0 0.000257912)
(0.000280085 0 0.00036643)
(0.000235668 0 0.000451659)
(8.88824e-05 0 0.000622523)
(0.000127193 0 0.000693023)
(5.06172e-05 0 0.00074756)
(7.56066e-05 0 0.000772148)
(2.75621e-05 0 0.000765735)
(-2.17167e-05 0 0.000657095)
(-6.47066e-05 0 0.000454326)
(-0.000132111 0 0.000257367)
(-0.000159962 0 0.000131869)
(-0.000200833 0 4.07806e-05)
(-0.000318828 0 -8.27214e-05)
(-0.000367407 0 -8.01981e-05)
(-0.000390899 0 -0.000150875)
(-0.000441564 0 -0.000143273)
(-0.000505484 0 -0.000130942)
(-0.000573017 0 -0.000123178)
(-0.000622751 0 -9.82183e-05)
(-0.00063516 0 -8.23802e-05)
(-0.000603115 0 1.97976e-05)
(-0.000505124 0 -0.000236001)
(-0.000444694 0 -0.000186645)
(-0.000382221 0 -0.000179225)
(-0.000304515 0 -0.000225867)
(-0.000155078 0 -0.000280119)
(-8.33388e-05 0 -0.000147404)
(-0.000217347 0 -4.84457e-05)
(-0.00040154 0 -3.97329e-05)
(-0.000437524 0 2.76783e-05)
(-0.000540878 0 5.76745e-05)
(5.22133e-06 0 -0.000377283)
(-2.70019e-12 0 -6.6435e-14)
(-5.41859e-12 0 -3.14177e-13)
(-4.39814e-12 0 -6.76713e-13)
(-4.24307e-12 0 -1.00322e-12)
(-4.03054e-12 0 -1.30195e-12)
(-3.7673e-12 0 -1.57043e-12)
(-3.45859e-12 0 -1.80359e-12)
(-3.11152e-12 0 -1.99617e-12)
(-2.73469e-12 0 -2.14396e-12)
(-2.33774e-12 0 -2.24435e-12)
(-1.93078e-12 0 -2.29659e-12)
(-1.52373e-12 0 -2.30183e-12)
(-1.12591e-12 0 -2.26291e-12)
(-7.45574e-13 0 -2.1841e-12)
(-3.89657e-13 0 -2.07076e-12)
(-6.35821e-14 0 -1.9289e-12)
(2.28772e-13 0 -1.76483e-12)
(4.85009e-13 0 -1.58483e-12)
(7.04083e-13 0 -1.3948e-12)
(8.86113e-13 0 -1.20011e-12)
(1.03217e-12 0 -1.00545e-12)
(1.14406e-12 0 -8.14722e-13)
(1.22408e-12 0 -6.31068e-13)
(1.2749e-12 0 -4.56874e-13)
(1.29929e-12 0 -2.93843e-13)
(1.30012e-12 0 -1.43089e-13)
(1.28017e-12 0 -5.21835e-15)
(1.24208e-12 0 1.1958e-13)
(1.18832e-12 0 2.31445e-13)
(1.12114e-12 0 3.30761e-13)
(1.04256e-12 0 4.18074e-13)
(9.54397e-13 0 4.94031e-13)
(8.58246e-13 0 5.59324e-13)
(7.55517e-13 0 6.1465e-13)
(6.47442e-13 0 6.60674e-13)
(5.35097e-13 0 6.98005e-13)
(4.19423e-13 0 7.27178e-13)
(3.01258e-13 0 7.4864e-13)
(1.81371e-13 0 7.62739e-13)
(6.05443e-14 0 7.69716e-13)
(-5.65881e-05 0 0.000627678)
(-7.07071e-05 0 0.000634364)
(-4.99203e-05 0 0.000659769)
(-9.98709e-05 0 0.000670351)
(-0.000149407 0 0.000645468)
(-0.000218341 0 0.000569294)
(-0.000299239 0 0.000503219)
(-0.000368174 0 0.000466059)
(-0.000491911 0 0.000419032)
(-0.00044184 0 0.00052505)
(-0.000457165 0 0.000579817)
(-0.000501979 0 0.000572171)
(-0.000553049 0 0.00053169)
(-0.000583663 0 0.000482158)
(-0.000572876 0 0.000416353)
(-0.000503043 0 0.0004377)
(-0.0005919 0 0.000302112)
(-0.000646653 0 0.00012263)
(-0.000611521 0 -1.33595e-05)
(-0.000580017 0 -0.000157134)
(-0.000559117 0 0.000225435)
(-0.000492066 0 -0.000126227)
(-0.000470182 0 -0.000174243)
(-0.000425741 0 -0.000261215)
(-0.000418094 0 -0.000292892)
(-0.00036336 0 -0.000407222)
(-0.000412224 0 -0.000443392)
(-0.000300515 0 -0.000595239)
(-0.000263864 0 -0.000659624)
(-0.000126221 0 -0.000783498)
(8.1677e-05 0 -0.000782159)
(0.000181058 0 -0.000747087)
(0.000143746 0 -0.000749623)
(0.000104001 0 -0.000840453)
(0.000262145 0 -0.000868641)
(0.000317048 0 -0.000865406)
(0.000345466 0 -0.000860318)
(0.000431548 0 -0.000814883)
(0.000435085 0 -0.000789437)
(0.000500439 0 -0.000694692)
(0.000409087 0 -0.000681368)
(0.000591448 0 -0.00041777)
(0.000409402 0 -0.000516291)
(0.000558575 0 -0.000142887)
(0.000390073 0 -0.000227586)
(0.000439446 0 -3.45359e-06)
(0.000363822 0 0.00019647)
(0.000292268 0 0.000315917)
(0.000251871 0 0.000408538)
(0.000196408 0 0.000511783)
(0.000144707 0 0.000638717)
(0.000103415 0 0.000736248)