0 	1.45182e-20 	0 	-3.99252e-20
0.010101 	3.48681e-20 	1.01723e-22 	-2.46209e-20
0.020202 	2.54256e-20 	-1.01041e-22 	-6.6891e-20
0.030303 	6.31628e-20 	-1.01212e-22 	-4.48764e-20
0.040404 	3.01318e-20 	1.01382e-22 	-4.92154e-20
0.0505051 	-8.87064e-20 	-3.40653e-25 	4.23487e-21
