/*--------------------------------*- C++ -*----------------------------------*\
  =========                 |
  \\      /  F ield         | OpenFOAM: The Open Source CFD Toolbox
   \\    /   O peration     | Website:  https://openfoam.org
    \\  /    A nd           | Version:  6
     \\/     M anipulation  |
\*---------------------------------------------------------------------------*/
FoamFile
{
    version     2.0;
    format      ascii;
    class       volVectorField;
    location    "900";
    object      U;
}
// * * * * * * * * * * * * * * * * * * * * * * * * * * * * * * * * * * * * * //

dimensions      [0 1 -1 0 0 0 0];

internalField   nonuniform List<vector> 
4800
(
(-2.81907e-05 0 -1.19418e-05)
(-3.7364e-05 0 -3.65471e-05)
(-0.00010047 0 -2.69799e-05)
(-0.00014482 0 -1.75104e-05)
(-0.000352126 0 -0.000107953)
(-0.000591012 0 -0.000178363)
(-0.000720269 0 3.10859e-05)
(-0.000847048 0 5.44565e-05)
(-0.000961577 0 -0.000126353)
(-0.00105364 0 2.53967e-05)
(-0.00111641 0 -2.91934e-06)
(-0.00115359 0 4.47545e-06)
(-0.00118505 0 2.55113e-05)
(-0.00121855 0 -1.54272e-05)
(-0.00124123 0 -1.90368e-05)
(-0.00125505 0 -1.79729e-05)
(-0.00126431 0 -1.16957e-06)
(-0.00126956 0 2.3141e-06)
(-0.00127245 0 -2.14343e-06)
(-0.00126829 0 -1.51762e-05)
(-0.00124953 0 -2.11568e-05)
(-0.00124221 0 -2.64947e-05)
(-0.001243 0 -2.90514e-05)
(-0.00121803 0 -6.97747e-05)
(-0.00112027 0 -4.90964e-05)
(-0.00103301 0 -5.02503e-05)
(-0.000976941 0 -7.2651e-05)
(-0.000947797 0 -8.06565e-05)
(-0.000905421 0 -0.000109847)
(-0.000806894 0 1.3917e-05)
(-0.000676754 0 -0.00011697)
(-0.000578385 0 -0.000111469)
(-0.000509494 0 7.54805e-05)
(-0.000398922 0 6.15846e-05)
(-0.000329391 0 -3.3541e-05)
(-0.000307956 0 -6.21378e-05)
(-0.000331598 0 -6.84293e-05)
(-0.000355862 0 -7.79154e-05)
(-0.000393795 0 2.44794e-05)
(-0.000453 0 -1.06079e-05)
(-0.000513074 0 -0.000120555)
(-0.000554425 0 -3.52985e-05)
(-0.00055977 0 -9.39267e-05)
(-0.000566699 0 -0.000185536)
(-0.000659629 0 -0.000115944)
(-0.000753585 0 2.24375e-05)
(-0.000788522 0 6.6565e-05)
(-0.000823404 0 -1.56479e-05)
(-0.000859757 0 -4.09308e-05)
(-0.000882791 0 9.71991e-07)
(-0.000892903 0 -1.99195e-05)
(-0.000896396 0 -1.21591e-05)
(-0.000874963 0 1.85443e-05)
(-0.000833932 0 -2.18964e-05)
(-0.000819903 0 -3.93103e-05)
(-0.000824468 0 -4.06194e-05)
(-0.000811012 0 -2.11473e-05)
(-0.000800206 0 -7.02185e-05)
(-0.000777684 0 1.35657e-05)
(-0.000701915 0 -5.756e-05)
(-0.000649617 0 -7.50055e-05)
(-0.00060129 0 -2.32078e-05)
(-0.000514805 0 -7.16892e-05)
(-0.000433205 0 -4.39554e-05)
(-0.000356052 0 -5.7659e-05)
(-0.000289673 0 -4.2663e-05)
(-0.000202582 0 -6.88519e-05)
(-0.00012976 0 -4.71977e-05)
(-5.13635e-05 0 -3.84115e-05)
(2.2796e-05 0 -2.37802e-05)
(6.17209e-05 0 4.1487e-05)
(4.30767e-05 0 3.20102e-05)
(-9.36346e-05 0 -4.95249e-05)
(-8.40085e-05 0 -0.000121426)
(-0.000239767 0 -4.68076e-05)
(-0.000286177 0 -0.000179728)
(-0.000354278 0 -0.000160891)
(-0.000437891 0 -0.000174095)
(-0.000607624 0 -0.000206886)
(7.0151e-06 0 -0.000148687)
(-2.76118e-13 0 -9.53319e-14)
(-1.09648e-12 0 -3.1898e-14)
(4.8276e-14 0 -7.19614e-15)
(5.36303e-14 0 1.707e-15)
(4.68302e-14 0 4.30721e-15)
(3.77682e-14 0 3.80598e-15)
(3.11711e-14 0 1.73882e-15)
(2.93694e-14 0 -8.89665e-16)
(3.28718e-14 0 -3.52885e-15)
(4.14236e-14 0 -5.90606e-15)
(5.44202e-14 0 -7.86174e-15)
(7.09277e-14 0 -9.31678e-15)
(8.98964e-14 0 -1.02414e-14)
(1.10306e-13 0 -1.06469e-14)
(1.31242e-13 0 -1.05757e-14)
(1.51919e-13 0 -1.00907e-14)
(1.71681e-13 0 -9.27512e-15)
(1.89964e-13 0 -8.22527e-15)
(2.0624e-13 0 -7.02777e-15)
(2.20046e-13 0 -5.74303e-15)
(2.31049e-13 0 -4.40259e-15)
(2.39082e-13 0 -3.01332e-15)
(2.44137e-13 0 -1.56766e-15)
(2.46314e-13 0 -6.69079e-17)
(2.45743e-13 0 1.45094e-15)
(2.42489e-13 0 2.90551e-15)
(2.36506e-13 0 4.20579e-15)
(2.27714e-13 0 5.29579e-15)
(2.16162e-13 0 6.17692e-15)
(2.0215e-13 0 6.89285e-15)
(1.86217e-13 0 7.49821e-15)
(1.68991e-13 0 8.0374e-15)
(1.51016e-13 0 8.54296e-15)
(1.32632e-13 0 9.0375e-15)
(1.13937e-13 0 9.52861e-15)
(9.48237e-14 0 9.99703e-15)
(7.50654e-14 0 1.03936e-14)
(5.44641e-14 0 1.06552e-14)
(3.30132e-14 0 1.07344e-14)
(1.10458e-14 0 1.05975e-14)
(-2.37578e-05 0 5.53552e-05)
(-7.80815e-05 0 8.28151e-05)
(-0.000197739 0 6.50181e-05)
(-0.000168103 0 0.000234686)
(-0.000195161 0 0.000465489)
(-0.000369613 0 0.000527433)
(-0.000744635 0 0.000187206)
(-0.000883756 0 9.00129e-05)
(-0.00097778 0 0.000233427)
(-0.00106815 0 8.51464e-05)
(-0.00110627 0 6.8056e-05)
(-0.00114044 0 7.92369e-05)
(-0.0011901 0 -1.51897e-06)
(-0.00123395 0 7.43075e-05)
(-0.00126019 0 3.02113e-05)
(-0.00127285 0 2.69713e-05)
(-0.0012883 0 2.33497e-06)
(-0.00130343 0 -1.51208e-05)
(-0.00131115 0 -1.80055e-05)
(-0.00131204 0 -1.95011e-05)
(-0.00129943 0 -8.87806e-06)
(-0.00129053 0 -1.13706e-05)
(-0.00128578 0 -0.000105541)
(-0.00125128 0 -5.13963e-05)
(-0.00118666 0 -8.58745e-05)
(-0.00113645 0 -0.000111593)
(-0.00110841 0 -0.000133965)
(-0.00108884 0 -0.000148966)
(-0.00102798 0 -0.000161483)
(-0.000942348 0 -0.000103854)
(-0.000847474 0 -0.00020671)
(-0.000754328 0 -0.000177873)
(-0.000667777 0 -0.000167367)
(-0.000619605 0 -0.00018369)
(-0.000608123 0 -0.00013621)
(-0.000580468 0 4.05213e-06)
(-0.000521632 0 2.27851e-05)
(-0.000484384 0 7.06127e-05)
(-0.00046961 0 7.54635e-05)
(-0.000472289 0 6.97795e-05)
(-0.00049935 0 0.000101152)
(-0.000531467 0 7.25445e-05)
(-0.000579962 0 3.75028e-05)
(-0.000638135 0 0.000161808)
(-0.000681967 0 0.000155194)
(-0.000705998 0 7.4729e-05)
(-0.000722767 0 -8.00132e-05)
(-0.000779737 0 5.38775e-05)
(-0.000814214 0 5.59191e-05)
(-0.000821901 0 3.46711e-05)
(-0.000822023 0 1.97017e-05)
(-0.000823975 0 -1.31524e-05)
(-0.000825427 0 -2.30446e-05)
(-0.000796752 0 -0.000142437)
(-0.00078338 0 -8.01079e-05)
(-0.000773163 0 0.00010144)
(-0.00076186 0 -5.65939e-05)
(-0.000758151 0 -9.51152e-05)
(-0.0007158 0 -5.01878e-06)
(-0.000635358 0 -0.00017446)
(-0.000601463 0 -6.75884e-05)
(-0.000539898 0 -8.50927e-05)
(-0.000445779 0 -0.000152943)
(-0.00036684 0 -0.000134972)
(-0.000283531 0 -0.000145839)
(-0.000247239 0 -6.97073e-05)
(-0.00014298 0 -0.000124042)
(-9.7802e-05 0 -7.64982e-05)
(1.75404e-05 0 -0.000115131)
(0.000121859 0 -7.1533e-05)
(0.000161367 0 2.37598e-05)
(0.000197407 0 6.28099e-05)
(0.000236604 0 0.000103936)
(0.000267 0 0.000146301)
(0.000183214 0 0.000134585)
(0.00014624 0 0.000117479)
(2.20192e-05 0 6.73674e-05)
(0.000404079 0 2.9878e-05)
(-0.000533329 0 -0.000155227)
(7.59363e-06 0 -0.000113758)
(-2.60736e-13 0 -3.24393e-14)
(-1.00631e-12 0 -4.26046e-14)
(7.98929e-14 0 -6.88305e-15)
(6.37026e-14 0 1.09053e-14)
(4.80381e-14 0 1.5575e-14)
(3.48315e-14 0 1.25118e-14)
(2.65115e-14 0 5.51464e-15)
(2.41619e-14 0 -2.78041e-15)
(2.78554e-14 0 -1.09302e-14)
(3.70907e-14 0 -1.81754e-14)
(5.10095e-14 0 -2.40634e-14)
(6.8548e-14 0 -2.83705e-14)
(8.85662e-14 0 -3.10247e-14)
(1.09971e-13 0 -3.20852e-14)
(1.31798e-13 0 -3.17195e-14)
(1.53219e-13 0 -3.01681e-14)
(1.73547e-13 0 -2.77094e-14)
(1.92211e-13 0 -2.46103e-14)
(2.08722e-13 0 -2.10734e-14)
(2.22671e-13 0 -1.72154e-14)
(2.33778e-13 0 -1.30872e-14)
(2.41917e-13 0 -8.72391e-15)
(2.47084e-13 0 -4.19744e-15)
(2.49332e-13 0 3.53787e-16)
(2.48715e-13 0 4.73569e-15)
(2.45244e-13 0 8.75383e-15)
(2.38896e-13 0 1.22839e-14)
(2.29685e-13 0 1.53099e-14)
(2.17759e-13 0 1.79064e-14)
(2.03471e-13 0 2.01813e-14)
(1.87361e-13 0 2.22272e-14)
(1.70035e-13 0 2.41028e-14)
(1.52016e-13 0 2.58388e-14)
(1.33617e-13 0 2.74427e-14)
(1.14897e-13 0 2.8893e-14)
(9.56887e-14 0 3.01328e-14)
(7.57236e-14 0 3.10815e-14)
(5.4805e-14 0 3.16738e-14)
(3.29555e-14 0 3.19067e-14)
(1.0909e-14 0 3.18656e-14)
(-2.93365e-05 0 0.000104343)
(-3.39824e-05 0 0.000186023)
(-0.000200121 0 0.000253652)
(-0.000535028 0 0.000231691)
(-0.000594063 0 0.000309287)
(-0.00061483 0 0.000367839)
(-0.000754695 0 0.000190793)
(-0.000826694 0 0.000199697)
(-0.000961102 0 0.00012903)
(-0.00102385 0 0.000137958)
(-0.0010705 0 0.00014715)
(-0.00112935 0 0.000104583)
(-0.00117503 0 0.000108176)
(-0.00120804 0 9.75182e-05)
(-0.00123609 0 6.35583e-05)
(-0.00126327 0 4.78564e-05)
(-0.00128764 0 4.62929e-05)
(-0.0012989 0 5.11785e-05)
(-0.00129993 0 3.36401e-05)
(-0.00128413 0 6.60663e-06)
(-0.00127382 0 -1.58673e-05)
(-0.00126947 0 -4.55215e-05)
(-0.00127427 0 -6.27004e-05)
(-0.00126 0 -3.79991e-05)
(-0.00122667 0 -0.000154698)
(-0.00121328 0 -0.000113111)
(-0.00120111 0 -0.000157155)
(-0.00119003 0 -0.000161682)
(-0.00114685 0 -0.000143614)
(-0.00107699 0 -0.000227103)
(-0.00102419 0 -0.000208952)
(-0.000976137 0 -0.000138507)
(-0.000907975 0 -0.000197013)
(-0.000839727 0 -0.00018384)
(-0.000763306 0 -5.16084e-05)
(-0.000685168 0 -5.21699e-06)
(-0.000637545 0 -5.01362e-05)
(-0.000608396 0 -5.64471e-05)
(-0.000572159 0 2.21066e-05)
(-0.000534389 0 5.62114e-05)
(-0.000522738 0 4.53438e-05)
(-0.000530254 0 8.41623e-05)
(-0.000554907 0 9.81096e-05)
(-0.000582661 0 8.32365e-05)
(-0.000607732 0 0.000137215)
(-0.000633794 0 0.000189419)
(-0.000694531 0 6.06325e-05)
(-0.000713237 0 6.71847e-05)
(-0.000727863 0 5.71354e-05)
(-0.000744132 0 2.55161e-05)
(-0.000753185 0 4.27253e-06)
(-0.0007556 0 -2.06255e-05)
(-0.000760021 0 6.18183e-06)
(-0.000763559 0 1.4572e-06)
(-0.000726443 0 -3.08251e-05)
(-0.000698651 0 -4.15688e-05)
(-0.000695825 0 -4.84462e-05)
(-0.000707699 0 -5.3827e-05)
(-0.00066453 0 -0.000109123)
(-0.000576996 0 -0.00016827)
(-0.000513455 0 -0.000167237)
(-0.000470454 0 -0.000131446)
(-0.000378902 0 -0.000216793)
(-0.000320422 0 -0.0001802)
(-0.000236773 0 -0.000188161)
(-0.000207063 0 -0.000120261)
(-6.53029e-05 0 -0.000201959)
(7.92464e-06 0 -0.000186802)
(9.75963e-05 0 -0.000226693)
(0.00019591 0 -0.000210365)
(0.00030114 0 -2.52349e-05)
(0.000337338 0 -3.03978e-06)
(0.000363574 0 8.46572e-05)
(0.000393209 0 0.000127888)
(0.000364411 0 0.000154272)
(0.000310665 0 0.000180268)
(0.000244701 0 0.000106725)
(0.000399217 0 2.75387e-05)
(-0.000334817 0 -6.76483e-05)
(7.36049e-06 0 -7.47296e-05)
(-1.75572e-13 0 -4.51933e-14)
(-1.04435e-12 0 -4.69448e-14)
(1.0013e-13 0 1.08828e-14)
(7.4983e-14 0 3.32495e-14)
(4.78666e-14 0 3.47189e-14)
(2.76561e-14 0 2.53134e-14)
(1.61267e-14 0 1.10815e-14)
(1.30394e-14 0 -4.21958e-15)
(1.74768e-14 0 -1.8642e-14)
(2.82904e-14 0 -3.11466e-14)
(4.42251e-14 0 -4.11375e-14)
(6.39663e-14 0 -4.83459e-14)
(8.61817e-14 0 -5.27252e-14)
(1.09611e-13 0 -5.4422e-14)
(1.33159e-13 0 -5.37452e-14)
(1.55929e-13 0 -5.11046e-14)
(1.77239e-13 0 -4.69448e-14)
(1.966e-13 0 -4.16628e-14)
(2.13635e-13 0 -3.55568e-14)
(2.28032e-13 0 -2.88245e-14)
(2.3954e-13 0 -2.16075e-14)
(2.47972e-13 0 -1.40594e-14)
(2.53215e-13 0 -6.39782e-15)
(2.55247e-13 0 1.09468e-15)
(2.54143e-13 0 8.12729e-15)
(2.50037e-13 0 1.44874e-14)
(2.43062e-13 0 2.01025e-14)
(2.33336e-13 0 2.50368e-14)
(2.21033e-13 0 2.9429e-14)
(2.06471e-13 0 3.34159e-14)
(1.90138e-13 0 3.70851e-14)
(1.72602e-13 0 4.04664e-14)
(1.54356e-13 0 4.35447e-14)
(1.35686e-13 0 4.62744e-14)
(1.16627e-13 0 4.85929e-14)
(9.70122e-14 0 5.04378e-14)
(7.66065e-14 0 5.17765e-14)
(5.52893e-14 0 5.26404e-14)
(3.32051e-14 0 5.31445e-14)
(1.10047e-14 0 5.34708e-14)
(-5.27917e-05 0 0.000177003)
(-0.00019168 0 0.000206867)
(-0.000144479 0 0.00038466)
(-0.000249224 0 0.000503674)
(-0.000500824 0 0.000570318)
(-0.000579152 0 0.000577729)
(-0.000657773 0 0.000491658)
(-0.000756774 0 0.00037104)
(-0.000748527 0 0.00043988)
(-0.000884701 0 0.000292602)
(-0.000993561 0 0.000123581)
(-0.00103973 0 0.000129011)
(-0.00107963 0 7.84655e-05)
(-0.001112 0 6.70802e-05)
(-0.00114349 0 3.84544e-05)
(-0.00116244 0 1.09567e-05)
(-0.00118094 0 -3.69416e-06)
(-0.00119577 0 -8.53627e-06)
(-0.00119706 0 -3.16402e-05)
(-0.00119835 0 -6.23426e-05)
(-0.00122547 0 -8.67039e-05)
(-0.00124649 0 -6.854e-05)
(-0.0012492 0 -0.000108172)
(-0.00122817 0 -0.000122948)
(-0.00121808 0 -0.000115034)
(-0.00122452 0 -0.000129819)
(-0.00123037 0 -0.000146343)
(-0.00121986 0 -0.000190121)
(-0.00119938 0 -0.000219078)
(-0.00117369 0 -0.00025012)
(-0.0011276 0 -0.000273387)
(-0.00109578 0 -0.000263635)
(-0.001058 0 -0.000314452)
(-0.000961621 0 -0.000334848)
(-0.00087891 0 -0.000159883)
(-0.000812286 0 -0.000123117)
(-0.000777791 0 -6.93913e-05)
(-0.00072265 0 3.17869e-05)
(-0.000644101 0 7.51785e-05)
(-0.000594717 0 -8.52072e-06)
(-0.000553149 0 8.56782e-05)
(-0.000530915 0 8.73225e-05)
(-0.00052286 0 9.95895e-05)
(-0.000520587 0 0.000108018)
(-0.000523423 0 8.13706e-05)
(-0.000538269 0 0.00012609)
(-0.000566069 0 0.000150625)
(-0.000608706 0 0.000110525)
(-0.000633363 0 6.92533e-05)
(-0.000659889 0 3.10799e-05)
(-0.000673731 0 1.09385e-05)
(-0.000671673 0 -2.95624e-05)
(-0.000660937 0 -6.56617e-05)
(-0.00066098 0 -8.64814e-05)
(-0.000665086 0 -5.90832e-05)
(-0.000644899 0 -2.1081e-05)
(-0.000615173 0 -5.7465e-05)
(-0.000603045 0 -4.2847e-05)
(-0.000589739 0 -8.83913e-05)
(-0.000483478 0 -0.000301228)
(-0.000429352 0 -0.000242572)
(-0.000400018 0 -0.000201987)
(-0.000300062 0 -0.000298332)
(-0.000243668 0 -0.000272782)
(-0.000171915 0 -0.000275876)
(-0.000134172 0 -0.000270162)
(-2.54442e-05 0 -0.000325966)
(9.17114e-05 0 -0.000313995)
(0.000101668 0 -0.000285311)
(0.00019137 0 -0.000269036)
(0.00031436 0 -0.000129933)
(0.000371698 0 -6.56304e-05)
(0.000440246 0 -1.48056e-06)
(0.000498677 0 0.000128456)
(0.00049313 0 0.000177932)
(0.000458014 0 0.000188061)
(0.000349844 0 0.000122407)
(0.000359443 0 7.39774e-05)
(-0.000250851 0 1.90086e-05)
(7.911e-06 0 7.24724e-05)
(-1.69035e-13 0 -3.27799e-14)
(-8.68177e-13 0 -3.45299e-15)
(1.60751e-13 0 6.50472e-14)
(8.82026e-14 0 7.73827e-14)
(4.076e-14 0 6.57262e-14)
(1.1843e-14 0 4.40327e-14)
(-2.59299e-15 0 1.91087e-14)
(-5.45526e-15 0 -5.19924e-15)
(9.28378e-16 0 -2.70231e-14)
(1.45951e-14 0 -4.53909e-14)
(3.38103e-14 0 -5.98084e-14)
(5.69604e-14 0 -7.01163e-14)
(8.24901e-14 0 -7.63726e-14)
(1.08951e-13 0 -7.88266e-14)
(1.35115e-13 0 -7.78902e-14)
(1.6002e-13 0 -7.40743e-14)
(1.82989e-13 0 -6.79408e-14)
(2.03599e-13 0 -6.00372e-14)
(2.2156e-13 0 -5.08513e-14)
(2.3662e-13 0 -4.07942e-14)
(2.48543e-13 0 -3.02102e-14)
(2.57127e-13 0 -1.94086e-14)
(2.62238e-13 0 -8.68815e-15)
(2.63858e-13 0 1.65939e-15)
(2.62108e-13 0 1.13723e-14)
(2.57219e-13 0 2.02588e-14)
(2.49445e-13 0 2.82371e-14)
(2.39011e-13 0 3.53437e-14)
(2.26138e-13 0 4.16967e-14)
(2.11128e-13 0 4.74324e-14)
(1.94412e-13 0 5.26498e-14)
(1.76495e-13 0 5.73889e-14)
(1.57824e-13 0 6.16373e-14)
(1.38666e-13 0 6.53516e-14)
(1.1906e-13 0 6.84804e-14)
(9.88723e-14 0 7.09874e-14)
(7.79263e-14 0 7.28778e-14)
(5.6173e-14 0 7.42187e-14)
(3.37859e-14 0 7.51291e-14)
(1.12352e-14 0 7.57006e-14)
(9.38033e-05 0 0.000321421)
(-0.000149051 0 0.000325709)
(-0.000471696 0 0.000308581)
(-0.000226989 0 0.000616091)
(-0.000401751 0 0.000684634)
(-0.000556064 0 0.000639282)
(-0.000585011 0 0.000594184)
(-0.00069089 0 0.000458458)
(-0.0008241 0 0.000151257)
(-0.000851972 0 7.75161e-05)
(-0.000892509 0 0.000198829)
(-0.000903613 0 0.00019504)
(-0.000906325 0 0.000189544)
(-0.000959388 0 0.00013932)
(-0.000973234 0 0.000180629)
(-0.000994831 0 0.000118495)
(-0.00103348 0 5.66457e-05)
(-0.00105754 0 9.31974e-05)
(-0.00107715 0 1.86671e-05)
(-0.00109345 0 1.63885e-05)
(-0.00110934 0 5.04511e-06)
(-0.00112348 0 -2.33058e-05)
(-0.00113885 0 3.34549e-07)
(-0.00116159 0 -7.80566e-05)
(-0.00119598 0 -0.000178226)
(-0.00122799 0 -0.000154434)
(-0.00123104 0 -0.000160403)
(-0.00121521 0 -0.000191985)
(-0.00121226 0 -0.000206749)
(-0.00121138 0 -0.000236789)
(-0.00117477 0 -0.000310019)
(-0.00116156 0 -0.000304608)
(-0.00114822 0 -0.000350144)
(-0.00112716 0 -0.000244551)
(-0.00103278 0 -0.000214178)
(-0.000951521 0 -0.000165769)
(-0.000854145 0 -0.000154446)
(-0.000759463 0 -0.000102674)
(-0.000680342 0 -8.70974e-05)
(-0.000619976 0 -1.20686e-05)
(-0.000554906 0 4.27939e-05)
(-0.000502152 0 6.2575e-05)
(-0.000464493 0 0.000103548)
(-0.00044162 0 0.000127825)
(-0.000427986 0 0.000144488)
(-0.000423889 0 0.000164914)
(-0.000489366 0 1.71498e-05)
(-0.000497003 0 0.000116655)
(-0.000516003 0 9.29027e-05)
(-0.00054217 0 9.34777e-05)
(-0.000556579 0 6.2364e-05)
(-0.000563447 0 -1.71525e-06)
(-0.000571319 0 -3.2237e-05)
(-0.000574345 0 -4.37333e-05)
(-0.000565347 0 -8.01783e-05)
(-0.000565969 0 -4.05342e-05)
(-0.000553041 0 -7.15802e-05)
(-0.000523922 0 -0.00014572)
(-0.000494822 0 -0.000201237)
(-0.000442698 0 -0.000257419)
(-0.000370684 0 -0.000288745)
(-0.000313536 0 -0.00030666)
(-0.000267377 0 -0.000321525)
(-0.000131824 0 -0.000381462)
(-0.000108418 0 -0.000330328)
(-6.4035e-06 0 -0.000345075)
(-5.70417e-05 0 -0.000373565)
(0.000122711 0 -0.00041384)
(0.000167461 0 -0.000386402)
(0.000249812 0 -0.000339996)
(0.000329267 0 -0.000241558)
(0.000406401 0 -0.000144621)
(0.000473476 0 -0.000101921)
(0.00053915 0 2.83466e-05)
(0.000531155 0 0.000228732)
(0.000519075 0 0.000241379)
(0.000409785 0 0.00024923)
(0.00040306 0 0.000176086)
(-0.000244294 0 0.000148875)
(8.26686e-06 0 0.000190738)
(-1.88728e-13 0 3.89788e-13)
(-7.88212e-13 0 1.81495e-13)
(1.81642e-13 0 1.75827e-13)
(7.63369e-14 0 1.46033e-13)
(1.5182e-14 0 1.07379e-13)
(-1.83085e-14 0 6.66523e-14)
(-3.26881e-14 0 2.74747e-14)
(-3.29993e-14 0 -7.79978e-15)
(-2.27149e-14 0 -3.81018e-14)
(-4.49496e-15 0 -6.28733e-14)
(1.94998e-14 0 -8.19258e-14)
(4.74022e-14 0 -9.53339e-14)
(7.74714e-14 0 -1.03325e-13)
(1.08093e-13 0 -1.06276e-13)
(1.37911e-13 0 -1.0472e-13)
(1.65878e-13 0 -9.9291e-14)
(1.91276e-13 0 -9.07005e-14)
(2.13689e-13 0 -7.96911e-14)
(2.32878e-13 0 -6.69936e-14)
(2.48673e-13 0 -5.32706e-14)
(2.60926e-13 0 -3.90686e-14)
(2.69494e-13 0 -2.48169e-14)
(2.74283e-13 0 -1.08599e-14)
(2.75307e-13 0 2.51165e-15)
(2.72742e-13 0 1.50523e-14)
(2.66902e-13 0 2.65797e-14)
(2.58147e-13 0 3.70028e-14)
(2.46796e-13 0 4.63332e-14)
(2.33122e-13 0 5.46636e-14)
(2.17424e-13 0 6.21207e-14)
(2.00095e-13 0 6.88179e-14)
(1.8159e-13 0 7.48291e-14)
(1.62318e-13 0 8.0184e-14)
(1.42529e-13 0 8.48758e-14)
(1.22263e-13 0 8.88766e-14)
(1.0141e-13 0 9.21584e-14)
(7.98378e-14 0 9.47226e-14)
(5.75406e-14 0 9.66182e-14)
(3.46869e-14 0 9.79204e-14)
(1.15763e-14 0 9.86703e-14)
(-0.000214183 0 0.000297225)
(-2.77705e-05 0 0.000460706)
(-0.000137646 0 0.00056424)
(-0.000364356 0 0.00064116)
(-0.000446251 0 0.00071607)
(-0.000406302 0 0.00074206)
(-0.000532817 0 0.000616638)
(-0.000581324 0 0.000536021)
(-0.000608278 0 0.000492728)
(-0.000610029 0 0.000515839)
(-0.000627498 0 0.000498105)
(-0.000692072 0 0.00037198)
(-0.000810976 0 0.000159859)
(-0.000819433 0 0.000184363)
(-0.000829011 0 0.000142121)
(-0.000854172 0 6.04197e-06)
(-0.000869149 0 8.46874e-05)
(-0.000877546 0 5.68635e-05)
(-0.00088808 0 3.01921e-05)
(-0.000904114 0 3.22905e-05)
(-0.000921255 0 1.81059e-05)
(-0.000937565 0 -4.02025e-05)
(-0.000960021 0 -7.61188e-05)
(-0.00102461 0 -3.47313e-05)
(-0.00108412 0 -3.27097e-05)
(-0.00110977 0 -5.21899e-05)
(-0.00112301 0 -0.000108369)
(-0.00115461 0 -0.000216413)
(-0.00118702 0 -0.00025232)
(-0.00119487 0 -0.000264185)
(-0.00118301 0 -0.000308559)
(-0.00117418 0 -0.000336681)
(-0.00117508 0 -0.000361194)
(-0.00117467 0 -0.000353381)
(-0.00113024 0 -0.000319613)
(-0.00107311 0 -0.000199986)
(-0.000952625 0 -0.000267316)
(-0.000857404 0 -0.00017109)
(-0.000742561 0 -0.00015032)
(-0.000636466 0 -0.000117213)
(-0.000545491 0 -3.10998e-05)
(-0.000457533 0 -9.35879e-06)
(-0.000384101 0 7.14838e-05)
(-0.000331056 0 0.000105843)
(-0.0002997 0 0.000153939)
(-0.000282373 0 0.000213365)
(-0.000290683 0 0.000208373)
(-0.000325679 0 0.000202037)
(-0.00039983 0 8.63546e-05)
(-0.000429455 0 0.000100677)
(-0.000461999 0 4.1103e-05)
(-0.000477842 0 -3.47784e-05)
(-0.000489079 0 -5.14035e-05)
(-0.000490845 0 -6.3396e-05)
(-0.000475929 0 -0.000100962)
(-0.000477852 0 -8.21037e-05)
(-0.000494323 0 -6.36558e-05)
(-0.000492629 0 -9.49179e-05)
(-0.000451098 0 -0.000225849)
(-0.000339616 0 -0.000371847)
(-0.000325824 0 -0.000322349)
(-0.000268115 0 -0.00034797)
(-0.000139971 0 -0.000431794)
(-0.000127646 0 -0.000386137)
(-6.92517e-05 0 -0.000379205)
(5.17689e-05 0 -0.000397311)
(5.78737e-05 0 -0.000451584)
(0.000146505 0 -0.000472429)
(0.00020023 0 -0.000453102)
(0.000287756 0 -0.00040501)
(0.000368385 0 -0.000317041)
(0.000426471 0 -0.000262597)
(0.000516316 0 -0.000106579)
(0.000529116 0 0.000108134)
(0.000538665 0 0.000176286)
(0.000491489 0 0.000320374)
(0.000400224 0 0.000371325)
(0.000432395 0 0.000287382)
(-0.000303471 0 0.000209432)
(8.30472e-06 0 0.000327755)
(-2.13325e-13 0 1.05986e-12)
(-8.29358e-13 0 4.34974e-13)
(1.25998e-13 0 3.10579e-13)
(2.04487e-14 0 2.23508e-13)
(-3.79448e-14 0 1.51146e-13)
(-6.74032e-14 0 8.7762e-14)
(-7.6644e-14 0 3.21811e-14)
(-7.09565e-14 0 -1.53314e-14)
(-5.41452e-14 0 -5.4788e-14)
(-2.92289e-14 0 -8.61804e-14)
(1.34969e-15 0 -1.0972e-13)
(3.55616e-14 0 -1.25812e-13)
(7.15481e-14 0 -1.34938e-13)
(1.07556e-13 0 -1.37687e-13)
(1.421e-13 0 -1.34788e-13)
(1.74039e-13 0 -1.27069e-13)
(2.02589e-13 0 -1.15432e-13)
(2.27306e-13 0 -1.00811e-13)
(2.47981e-13 0 -8.41559e-14)
(2.64545e-13 0 -6.63601e-14)
(2.76997e-13 0 -4.81688e-14)
(2.85336e-13 0 -3.01386e-14)
(2.89566e-13 0 -1.26675e-14)
(2.8977e-13 0 3.9483e-15)
(2.86176e-13 0 1.94739e-14)
(2.79169e-13 0 3.37328e-14)
(2.69199e-13 0 4.66276e-14)
(2.56672e-13 0 5.81582e-14)
(2.41925e-13 0 6.84131e-14)
(2.25282e-13 0 7.75348e-14)
(2.0712e-13 0 8.5675e-14)
(1.87861e-13 0 9.29577e-14)
(1.6787e-13 0 9.94579e-14)
(1.47358e-13 0 1.05194e-13)
(1.26343e-13 0 1.10139e-13)
(1.04718e-13 0 1.14247e-13)
(8.23861e-14 0 1.17496e-13)
(5.93708e-14 0 1.19905e-13)
(3.5838e-14 0 1.21517e-13)
(1.19852e-14 0 1.22355e-13)
(-0.000139069 0 0.000406248)
(-3.50046e-05 0 0.00054835)
(-0.000148138 0 0.000603116)
(-0.000228058 0 0.000737701)
(-0.000252707 0 0.000816129)
(-0.000334909 0 0.000787079)
(-0.000389533 0 0.000699943)
(-0.00045487 0 0.000562622)
(-0.000515363 0 0.000452972)
(-0.000700444 0 0.000191056)
(-0.000730108 0 0.000131773)
(-0.000718001 0 0.000161043)
(-0.000745995 0 0.000174923)
(-0.000739222 0 0.00019471)
(-0.000731493 0 0.000178626)
(-0.000772681 0 9.73219e-05)
(-0.000783253 0 0.000109283)
(-0.000788477 0 6.54628e-05)
(-0.000789772 0 4.93834e-05)
(-0.000782922 0 1.23109e-05)
(-0.00078045 0 1.3675e-05)
(-0.000783387 0 2.32642e-05)
(-0.000788272 0 3.0307e-05)
(-0.000811902 0 9.04323e-06)
(-0.000844771 0 -5.15729e-05)
(-0.000878718 0 -7.62851e-05)
(-0.000928276 0 -0.000152069)
(-0.000997208 0 -0.000154183)
(-0.00103772 0 -0.00015576)
(-0.00105054 0 -0.000239072)
(-0.0010723 0 -0.000327583)
(-0.00111727 0 -0.000344715)
(-0.00116034 0 -0.000346681)
(-0.00117547 0 -0.000350312)
(-0.00115779 0 -0.00035062)
(-0.00109402 0 -0.000343667)
(-0.00103728 0 -0.000333106)
(-0.000955199 0 -0.000317045)
(-0.000840491 0 -0.000291141)
(-0.00070857 0 -0.000220998)
(-0.000565011 0 -0.000137557)
(-0.000421175 0 -8.8016e-05)
(-0.000302888 0 -1.27951e-05)
(-0.000219013 0 4.97248e-05)
(-0.000177601 0 0.000107783)
(-0.000168811 0 0.000184056)
(-0.00022705 0 0.000169595)
(-0.000196115 0 0.000225112)
(-0.000254258 0 0.00019435)
(-0.000301642 0 0.000145144)
(-0.000343499 0 0.000115216)
(-0.000387529 0 2.1361e-05)
(-0.000407576 0 -2.65164e-05)
(-0.000414841 0 -4.94258e-05)
(-0.00040737 0 -6.47663e-05)
(-0.000426529 0 -6.41709e-05)
(-0.00044661 0 -6.23033e-05)
(-0.000427213 0 -0.000166911)
(-0.00037398 0 -0.000291501)
(-0.000332945 0 -0.00035926)
(-0.000251055 0 -0.000438253)
(-0.000185837 0 -0.000471288)
(-0.000117612 0 -0.000462562)
(-5.30929e-05 0 -0.000437014)
(-0.000143996 0 -0.000373999)
(9.89488e-06 0 -0.000433664)
(7.35544e-05 0 -0.000505773)
(9.52128e-05 0 -0.00055647)
(0.000232085 0 -0.000526849)
(0.000270314 0 -0.000503497)
(0.000366149 0 -0.000420965)
(0.000439435 0 -0.000317705)
(0.00050462 0 -0.000108792)
(0.000518923 0 3.05645e-05)
(0.000512778 0 0.000197311)
(0.000449725 0 0.00037938)
(0.000394031 0 0.000429387)
(0.000380098 0 0.000428938)
(-0.000201904 0 0.000387748)
(7.56112e-06 0 0.000463054)
(-2.13527e-13 0 1.27898e-12)
(-1.17634e-12 0 5.63979e-13)
(-2.90712e-14 0 4.0748e-13)
(-8.23797e-14 0 2.85822e-13)
(-1.19876e-13 0 1.85547e-13)
(-1.36611e-13 0 1.00631e-13)
(-1.35401e-13 0 2.85194e-14)
(-1.19916e-13 0 -3.15475e-14)
(-9.35638e-14 0 -8.02973e-14)
(-5.94273e-14 0 -1.18133e-13)
(-2.01318e-14 0 -1.45629e-13)
(2.21842e-14 0 -1.63568e-13)
(6.55968e-14 0 -1.72795e-13)
(1.08243e-13 0 -1.74228e-13)
(1.48528e-13 0 -1.68905e-13)
(1.85235e-13 0 -1.57935e-13)
(2.17535e-13 0 -1.42449e-13)
(2.44965e-13 0 -1.23564e-13)
(2.67328e-13 0 -1.02402e-13)
(2.8466e-13 0 -8.00428e-14)
(2.97147e-13 0 -5.74166e-14)
(3.04996e-13 0 -3.52172e-14)
(3.0837e-13 0 -1.3913e-14)
(3.07449e-13 0 6.18176e-15)
(3.02527e-13 0 2.48399e-14)
(2.94056e-13 0 4.18984e-14)
(2.82572e-13 0 5.72736e-14)
(2.68582e-13 0 7.09833e-14)
(2.52498e-13 0 8.31434e-14)
(2.34686e-13 0 9.39349e-14)
(2.15518e-13 0 1.03553e-13)
(1.95373e-13 0 1.12161e-13)
(1.74554e-13 0 1.19854e-13)
(1.5321e-13 0 1.26652e-13)
(1.31317e-13 0 1.32514e-13)
(1.08768e-13 0 1.37376e-13)
(8.54955e-14 0 1.412e-13)
(6.15607e-14 0 1.43994e-13)
(3.71372e-14 0 1.45798e-13)
(1.2415e-14 0 1.46645e-13)
(-6.9299e-05 0 0.000486842)
(1.25529e-06 0 0.000564307)
(-9.14997e-05 0 0.000657129)
(-0.000112091 0 0.00080008)
(-0.000164615 0 0.000859656)
(-0.000281031 0 0.000828671)
(-0.000317776 0 0.000750579)
(-0.000373304 0 0.000626035)
(-0.000403628 0 0.000559776)
(-0.000421575 0 0.000552091)
(-0.000428185 0 0.00056602)
(-0.000531562 0 0.000459995)
(-0.000550021 0 0.000427335)
(-0.000661051 0 0.000234683)
(-0.000687738 0 0.000152927)
(-0.000705516 0 0.000115947)
(-0.000711629 0 9.20089e-05)
(-0.000714329 0 6.32967e-05)
(-0.000718689 0 4.43843e-05)
(-0.000717269 0 1.29173e-05)
(-0.000714824 0 1.2492e-05)
(-0.000709032 0 -1.28101e-05)
(-0.000695576 0 -1.42016e-05)
(-0.000689116 0 -1.15179e-05)
(-0.000687797 0 -1.17008e-05)
(-0.000704282 0 3.46164e-06)
(-0.000759105 0 3.41791e-06)
(-0.00079531 0 -4.44357e-05)
(-0.00080848 0 -0.000145918)
(-0.000854229 0 -0.000197824)
(-0.000919908 0 -0.000207644)
(-0.000951124 0 -0.000288503)
(-0.00101721 0 -0.000295755)
(-0.00105352 0 -0.000344283)
(-0.00107037 0 -0.000367401)
(-0.00107119 0 -0.00038136)
(-0.00105552 0 -0.000360018)
(-0.000994267 0 -0.000385109)
(-0.000898993 0 -0.000432435)
(-0.000792509 0 -0.000379198)
(-0.000619316 0 -0.000358308)
(-0.000448074 0 -0.000239454)
(-0.000267593 0 -0.000142074)
(-0.000136019 0 -2.94023e-05)
(-6.02015e-05 0 4.78416e-05)
(1.5723e-06 0 0.00017849)
(-1.33584e-05 0 0.000278577)
(-0.000106445 0 0.000233024)
(-0.000128889 0 0.000225625)
(-0.000244906 0 0.000168549)
(-0.000264113 0 0.000131742)
(-0.000295374 0 4.008e-05)
(-0.000315632 0 -1.92345e-05)
(-0.000319077 0 2.85573e-06)
(-0.000323628 0 -0.00010638)
(-0.000380065 0 -2.4116e-05)
(-0.000408604 0 -4.76749e-05)
(-0.000392321 0 -0.000182832)
(-0.000337104 0 -0.000349884)
(-0.000326591 0 -0.00041235)
(-0.000280535 0 -0.000470486)
(-0.000259941 0 -0.00048771)
(-0.000245681 0 -0.000490718)
(-7.64777e-05 0 -0.000518989)
(-2.35583e-05 0 -0.000475584)
(-7.50455e-05 0 -0.000453385)
(6.17394e-05 0 -0.000558051)
(0.000114216 0 -0.000645725)
(0.000270454 0 -0.000635039)
(0.000267812 0 -0.000612876)
(0.000409416 0 -0.000478257)
(0.000421266 0 -0.000375072)
(0.000517809 0 -0.000204791)
(0.000518441 0 9.16718e-05)
(0.000475426 0 0.000263853)
(0.000435132 0 0.000388043)
(0.000348746 0 0.000512916)
(0.000400582 0 0.000473561)
(-0.000104636 0 0.000478463)
(7.73421e-06 0 0.000597623)
(-2.68491e-13 0 1.38824e-12)
(-1.21889e-12 0 6.29218e-13)
(-1.51381e-13 0 4.69151e-13)
(-2.0075e-13 0 3.26394e-13)
(-2.2244e-13 0 2.04301e-13)
(-2.23769e-13 0 1.00366e-13)
(-2.0847e-13 0 1.26094e-14)
(-1.79747e-13 0 -5.97499e-14)
(-1.40731e-13 0 -1.17582e-13)
(-9.45605e-14 0 -1.6144e-13)
(-4.40853e-14 0 -1.92128e-13)
(8.39509e-15 0 -2.10803e-13)
(6.08887e-14 0 -2.18765e-13)
(1.11446e-13 0 -2.174e-13)
(1.58392e-13 0 -2.08188e-13)
(2.00495e-13 0 -1.92638e-13)
(2.36959e-13 0 -1.7218e-13)
(2.67354e-13 0 -1.48123e-13)
(2.91503e-13 0 -1.2172e-13)
(3.0953e-13 0 -9.41872e-14)
(3.21823e-13 0 -6.66066e-14)
(3.28839e-13 0 -3.98085e-14)
(3.30965e-13 0 -1.43429e-14)
(3.28523e-13 0 9.45681e-15)
(3.21893e-13 0 3.13873e-14)
(3.11603e-13 0 5.13263e-14)
(2.98284e-13 0 6.92337e-14)
(2.82542e-13 0 8.51679e-14)
(2.64877e-13 0 9.9284e-14)
(2.45692e-13 0 1.11799e-13)
(2.25347e-13 0 1.22936e-13)
(2.04162e-13 0 1.32875e-13)
(1.82362e-13 0 1.41713e-13)
(1.60018e-13 0 1.49464e-13)
(1.37067e-13 0 1.56082e-13)
(1.13404e-13 0 1.61508e-13)
(8.90045e-14 0 1.65716e-13)
(6.39689e-14 0 1.68731e-13)
(3.84884e-14 0 1.70612e-13)
(1.28319e-14 0 1.71418e-13)
(-7.06237e-05 0 0.000512156)
(-4.11165e-05 0 0.000583354)
(-0.000156055 0 0.00070008)
(-0.00021112 0 0.000840084)
(-0.000312204 0 0.000874623)
(-0.000253716 0 0.000885841)
(-0.000322806 0 0.000788104)
(-0.000375132 0 0.000663633)
(-0.000474285 0 0.000528748)
(-0.000475905 0 0.000472588)
(-0.000583927 0 0.00032541)
(-0.000620436 0 0.000244091)
(-0.000640794 0 0.000158336)
(-0.000627791 0 0.000170746)
(-0.00064168 0 0.00014949)
(-0.000648128 0 0.000131921)
(-0.000650679 0 9.53241e-05)
(-0.000650549 0 7.57537e-05)
(-0.000653172 0 5.04315e-05)
(-0.00064553 0 1.17019e-07)
(-0.000639585 0 5.90096e-06)
(-0.000640768 0 3.62262e-06)
(-0.000642564 0 4.88399e-06)
(-0.00064049 0 3.64262e-06)
(-0.000636969 0 -2.01328e-05)
(-0.000629258 0 -4.50866e-05)
(-0.000625479 0 -5.91437e-05)
(-0.000628866 0 -7.30469e-05)
(-0.000655503 0 -0.000126764)
(-0.000707138 0 -0.000154009)
(-0.000752126 0 -0.000132323)
(-0.000754979 0 -0.000240803)
(-0.000829306 0 -0.000220114)
(-0.000872679 0 -0.000297877)
(-0.000900488 0 -0.000332503)
(-0.00089654 0 -0.000413283)
(-0.000948779 0 -0.000392758)
(-0.000951496 0 -0.000419339)
(-0.000896945 0 -0.000484588)
(-0.000819434 0 -0.000482802)
(-0.000664297 0 -0.00055677)
(-0.000518962 0 -0.000480687)
(-0.000288279 0 -0.000392862)
(-0.000148482 0 -0.000156584)
(-1.34908e-05 0 -1.00927e-05)
(6.87503e-05 0 0.000111872)
(0.000118903 0 0.000277873)
(9.21845e-05 0 0.000305787)
(2.6977e-05 0 0.000297361)
(1.14884e-05 0 0.000276678)
(-7.68323e-05 0 0.000206322)
(-0.000202014 0 9.05919e-05)
(-0.000200635 0 5.46862e-05)
(-0.000229409 0 -2.99327e-05)
(-0.000269193 0 -1.04782e-05)
(-0.000335899 0 -3.58687e-06)
(-0.000375002 0 -4.08382e-06)
(-0.000355533 0 -0.0001987)