/*--------------------------------*- C++ -*----------------------------------*\
  =========                 |
  \\      /  F ield         | OpenFOAM: The Open Source CFD Toolbox
   \\    /   O peration     | Website:  https://openfoam.org
    \\  /    A nd           | Version:  6
     \\/     M anipulation  |
\*---------------------------------------------------------------------------*/
FoamFile
{
    version     2.0;
    format      ascii;
    class       surfaceScalarField;
    location    "6300";
    object      phi;
}
// * * * * * * * * * * * * * * * * * * * * * * * * * * * * * * * * * * * * * //

dimensions      [0 3 -1 0 0 0 0];

internalField   nonuniform List<scalar> 
9440
(
1.22928e-13
-1.22927e-13
2.44347e-13
-1.21464e-13
3.63297e-13
-1.18987e-13
4.78477e-13
-1.15218e-13
5.88838e-13
-1.10395e-13
6.93502e-13
-1.04699e-13
7.91577e-13
-9.81075e-14
8.82387e-13
-9.08413e-14
9.65386e-13
-8.3032e-14
1.04028e-12
-7.49269e-14
1.10682e-12
-6.65681e-14
1.16508e-12
-5.82902e-14
1.2153e-12
-5.02484e-14
1.25746e-12
-4.21867e-14
1.29189e-12
-3.44529e-14
1.31888e-12
-2.70137e-14
1.33948e-12
-2.06215e-14
1.35602e-12
-1.6564e-14
1.36741e-12
-1.14106e-14
1.37387e-12
-6.48493e-15
1.37656e-12
-2.70275e-15
1.37987e-12
-3.32369e-15
1.37966e-12
1.99724e-16
1.37867e-12
9.80309e-16
1.3779e-12
7.5745e-16
1.3773e-12
5.8953e-16
1.37745e-12
-1.52176e-16
1.3788e-12
-1.34765e-15
1.38151e-12
-2.7123e-15
1.38591e-12
-4.40137e-15
1.39203e-12
-6.12563e-15
1.39987e-12
-7.83367e-15
1.40938e-12
-9.50928e-15
1.42033e-12
-1.09393e-14
1.4326e-12
-1.22664e-14
1.44581e-12
-1.32059e-14
1.45973e-12
-1.39074e-14
1.47384e-12
-1.4107e-14
1.4879e-12
-1.40444e-14
1.50141e-12
-1.35033e-14
1.51405e-12
-1.26347e-14
1.52526e-12
-1.1195e-14
1.53475e-12
-9.48346e-15
1.54221e-12
-7.45262e-15
1.54701e-12
-4.78762e-15
1.54899e-12
-1.96513e-15
1.54804e-12
9.64184e-16
1.54392e-12
4.12938e-15
1.53621e-12
7.71388e-15
1.52497e-12
1.12492e-14
1.51009e-12
1.48911e-14
1.49138e-12
1.8721e-14
1.46904e-12
2.23438e-14
1.44299e-12
2.6057e-14
1.41332e-12
2.9675e-14
1.3803e-12
3.30251e-14
1.34383e-12
3.64641e-14
1.30429e-12
3.95459e-14
1.26151e-12
4.27799e-14
1.21606e-12
4.54469e-14
1.16805e-12
4.80069e-14
1.11762e-12
5.04224e-14
1.06495e-12
5.26623e-14
1.01029e-12
5.46508e-14
9.53815e-13
5.64675e-14
8.95785e-13
5.80212e-14
8.36312e-13
5.94612e-14
7.75613e-13
6.06863e-14
7.13912e-13
6.16888e-14
6.5154e-13
6.23565e-14
5.88682e-13
6.28432e-14
5.2573e-13
6.29355e-14
4.63327e-13
6.23857e-14
4.02977e-13
6.03319e-14
3.48348e-13
5.46105e-14
3.11273e-13
3.70541e-14
3.30718e-13
-1.94661e-14
1.64193e-13
1.66505e-13
1.2536e-17
1.64161e-13
2.34755e-21
-2.64699e-23
2.34738e-21
6.20385e-25
2.34144e-21
6.04876e-24
2.32867e-21
1.12703e-23
2.31078e-21
1.63368e-23
2.28819e-21
2.12999e-23
2.26079e-21
2.59528e-23
2.22905e-21
3.03989e-23
2.19327e-21
3.45348e-23
2.15372e-21
3.85673e-23
2.11055e-21
4.21345e-23
2.06433e-21
4.54432e-23
2.01512e-21
4.85452e-23
1.96305e-21
5.11818e-23
1.90862e-21
5.38184e-23
1.85201e-21
5.60932e-23
1.79312e-21
5.81611e-23
1.73243e-21
6.00223e-23
1.67013e-21
6.19352e-23
1.60618e-21
6.34861e-23
1.54062e-21
6.49337e-23
1.47373e-21
6.63813e-23
1.40548e-21
6.77254e-23
1.3359e-21
6.89662e-23
1.26512e-21
7.03104e-23
1.19316e-21
7.16545e-23
1.11995e-21
7.28953e-23
1.04571e-21
7.41361e-23
9.70231e-22
7.53768e-23
8.93717e-22
7.65142e-23
8.16065e-22
7.77033e-23
7.37638e-22
7.88407e-23
6.58177e-22
7.99263e-23
5.78044e-22
8.09603e-23
4.97084e-22
8.18909e-23
4.15503e-22
8.28732e-23
3.33199e-22
8.35969e-23
2.50739e-22
8.43207e-23
1.67607e-22
8.48894e-23
8.41656e-23
8.54581e-23
8.63887e-23
1.2511e-13
-2.48084e-13
2.47125e-13
-2.43554e-13
3.66476e-13
-2.38402e-13
4.82293e-13
-2.31097e-13
5.93496e-13
-2.21658e-13
6.98889e-13
-2.10154e-13
7.97643e-13
-1.96922e-13
8.89018e-13
-1.82274e-13
9.72489e-13
-1.66559e-13
1.04759e-12
-1.50079e-13
1.11431e-12
-1.33348e-13
1.17259e-12
-1.16621e-13
1.22262e-12
-1.00327e-13
1.26442e-12
-8.40306e-14
1.29842e-12
-6.84978e-14
1.3245e-12
-5.31278e-14
1.34489e-12
-4.10453e-14
1.3607e-12
-3.24173e-14
1.37121e-12
-2.19454e-14
1.37665e-12
-1.19589e-14
1.37914e-12
-5.2155e-15
1.38123e-12
-5.43178e-15
1.38046e-12
9.50954e-16
1.37878e-12
2.64338e-15
1.37759e-12
1.93776e-15
1.37656e-12
1.61151e-15
1.37628e-12
1.22237e-16
1.37737e-12
-2.43988e-15
1.3799e-12
-5.25156e-15
1.38421e-12
-8.71011e-15
1.39034e-12
-1.22463e-14
1.39825e-12
-1.57454e-14
1.40792e-12
-1.91668e-14
1.41913e-12
-2.21356e-14
1.43158e-12
-2.47086e-14
1.44519e-12
-2.67994e-14
1.45941e-12
-2.81192e-14
1.47395e-12
-2.86354e-14
1.48841e-12
-2.84856e-14
1.50236e-12
-2.7436e-14
1.51531e-12
-2.55646e-14
1.52702e-12
-2.28855e-14
1.53689e-12
-1.9341e-14
1.54465e-12
-1.51914e-14
1.54983e-12
-9.95152e-15
1.55207e-12
-4.18807e-15
1.55137e-12
1.6776e-15
1.54736e-12
8.15517e-15
1.53991e-12
1.51831e-14
1.52872e-12
2.24516e-14
1.51391e-12
2.97084e-14
1.49517e-12
3.74773e-14
1.47273e-12
4.4787e-14
1.44667e-12
5.21312e-14
1.41691e-12
5.94358e-14
1.3837e-12
6.62318e-14
1.34713e-12
7.30362e-14
1.30729e-12
7.93856e-14
1.26438e-12
8.56883e-14
1.21876e-12
9.1061e-14
1.17053e-12
9.62272e-14
1.11995e-12
1.00992e-13
1.06712e-12
1.05482e-13
1.01225e-12
1.09508e-13
9.55616e-13
1.13086e-13
8.97352e-13
1.16263e-13
8.37609e-13
1.19182e-13
7.76711e-13
1.21561e-13
7.14862e-13
1.23513e-13
6.522e-13
1.2499e-13
5.88929e-13
1.26085e-13
5.25339e-13
1.26492e-13
4.61712e-13
1.2598e-13
3.97975e-13
1.24034e-13
3.33081e-13
1.1947e-13
2.60012e-13
1.10087e-13
1.48144e-13
9.23648e-14
8.19867e-14
2.32624e-13
9.79647e-18
2.46105e-13
2.35086e-21
-8.93356e-23
2.35281e-21
-4.65289e-25
2.34666e-21
1.04432e-23
2.33374e-21
2.10931e-23
2.31569e-21
3.1588e-23
2.29284e-21
4.17209e-23
2.26529e-21
5.12852e-23
2.23313e-21
6.04359e-23
2.1973e-21
6.90696e-23
2.15729e-21
7.67727e-23
2.11396e-21
8.41139e-23
2.06738e-21
9.08865e-23
2.01775e-21
9.69869e-23
1.96564e-21
1.02519e-22
1.91089e-21
1.07482e-22
1.85407e-21
1.12083e-22
1.79503e-21
1.16167e-22
1.73429e-21
1.19941e-22
1.67173e-21
1.23302e-22
1.60763e-21
1.26507e-22
1.54212e-21
1.29505e-22
1.47502e-21
1.32297e-22
1.40672e-21
1.35141e-22
1.33724e-21
1.37777e-22
1.26647e-21
1.40466e-22
1.1944e-21
1.43102e-22
1.12124e-21
1.45636e-22
1.0469e-21
1.48272e-22
9.7142e-22
1.50857e-22
8.9501e-22
1.5339e-22
8.17255e-22
1.55924e-22
7.38672e-22
1.58457e-22
6.59263e-22
1.60887e-22
5.78923e-22
1.63161e-22
4.98014e-22
1.65281e-22
4.16227e-22
1.67297e-22
3.33974e-22
1.69107e-22
2.51256e-22
1.70658e-22
1.68228e-22
1.71795e-22
8.49928e-23
1.72726e-22
1.73398e-22
1.257e-13
-3.73822e-13
2.5122e-13
-3.69137e-13
3.74005e-13
-3.61242e-13
4.92681e-13
-3.49829e-13
6.06167e-13
-3.35198e-13
7.13519e-13
-3.17556e-13
8.13753e-13
-2.97205e-13
9.06228e-13
-2.74797e-13
9.90323e-13
-2.50703e-13
1.06581e-12
-2.25609e-13
1.13234e-12
-1.99926e-13
1.19022e-12
-1.74542e-13
1.23941e-12
-1.49561e-13
1.28021e-12
-1.24869e-13
1.31271e-12
-1.01043e-13
1.33686e-12
-7.73091e-14
1.35641e-12
-6.0633e-14
1.37067e-12
-4.67051e-14
1.37898e-12
-3.02807e-14
1.38233e-12
-1.53281e-14
1.3846e-12
-7.51268e-15
1.38439e-12
-5.23742e-15
1.38217e-12
3.15099e-15
1.37927e-12
5.53287e-15
1.37705e-12
4.14033e-15
1.37489e-12
3.76832e-15
1.37388e-12
1.12864e-15
1.37433e-12
-2.90194e-15
1.37652e-12
-7.44257e-15
1.38064e-12
-1.28252e-14
1.38673e-12
-1.83406e-14
1.39486e-12
-2.38614e-14
1.40484e-12
-2.91463e-14
1.41655e-12
-3.38317e-14
1.42959e-12
-3.77417e-14
1.44383e-12
-4.10204e-14
1.45883e-12
-4.3116e-14
1.47414e-12
-4.39312e-14
1.4895e-12
-4.38312e-14
1.5043e-12
-4.22255e-14
1.51809e-12
-3.93354e-14
1.5305e-12
-3.52794e-14
1.54116e-12
-2.99862e-14
1.54962e-12
-2.36362e-14
1.55552e-12
-1.58291e-14
1.55835e-12
-7.00542e-15
1.55789e-12
2.15088e-15
1.55427e-12
1.17852e-14
1.54706e-12
2.24053e-14
1.53607e-12
3.34611e-14
1.52137e-12
4.44183e-14
1.50261e-12
5.62423e-14
1.48008e-12
6.73265e-14
1.45379e-12
7.84323e-14
1.42372e-12
8.95073e-14
1.39032e-12
9.96323e-14
1.35341e-12
1.09943e-13
1.31325e-12
1.19543e-13
1.26997e-12
1.2897e-13
1.22394e-12
1.37083e-13
1.17531e-12
1.44852e-13
1.12422e-12
1.52075e-13
1.07091e-12
1.58777e-13
1.01566e-12
1.64741e-13
9.58609e-13
1.70125e-13
8.99878e-13
1.74975e-13
8.39835e-13
1.79207e-13
7.78535e-13
1.82838e-13
7.16205e-13
1.85823e-13
6.53053e-13
1.88117e-13
5.89203e-13
1.89907e-13
5.24792e-13
1.90877e-13
4.59651e-13
1.91095e-13
3.93249e-13
1.90407e-13
3.2349e-13
1.89196e-13
2.44673e-13
1.88872e-13
1.40588e-13
1.96419e-13
7.64015e-14
2.96778e-13
9.62464e-18
3.22472e-13
2.36078e-21
-1.25731e-22
2.36372e-21
-8.27181e-25
2.35731e-21
1.57681e-23
2.34423e-21
3.20016e-23
2.32588e-21
4.78731e-23
2.30246e-21
6.30725e-23
2.27439e-21
7.74448e-23
2.24176e-21
9.1145e-23
2.20506e-21
1.03966e-22
2.16458e-21
1.1596e-22
2.12068e-21
1.26972e-22
2.07354e-21
1.36898e-22
2.02328e-21
1.45997e-22
1.9706e-21
1.54321e-22
1.91544e-21
1.61766e-22
1.85811e-21
1.68486e-22
1.79886e-21
1.74587e-22
1.73765e-21
1.80119e-22
1.67494e-21
1.85237e-22
1.61062e-21
1.90045e-22
1.54492e-21
1.94439e-22
1.47781e-21
1.98678e-22
1.40936e-21
2.02918e-22
1.33998e-21
2.0695e-22
1.2691e-21
2.10879e-22
1.19693e-21
2.14912e-22
1.12388e-21
2.18944e-22
1.04943e-21
2.22925e-22
9.73954e-22
2.26854e-22
8.97491e-22
2.30939e-22
8.19736e-22
2.34816e-22
7.41051e-22
2.3859e-22
6.61486e-22
2.42364e-22
5.81146e-22
2.45879e-22
5.00031e-22
2.49292e-22
4.18036e-22
2.52342e-22
3.35473e-22
2.54978e-22
2.52497e-22
2.57305e-22
1.69107e-22
2.59269e-22
8.56649e-23
2.60769e-22
2.61751e-22
1.29966e-13
-5.03825e-13
2.59065e-13
-4.98299e-13
3.85465e-13
-4.87698e-13
5.07612e-13
-4.72028e-13
6.24194e-13
-4.51833e-13
7.34144e-13
-4.27558e-13
8.36545e-13
-3.99656e-13
9.3062e-13
-3.68923e-13
1.01586e-12
-3.35987e-13
1.09176e-12
-3.01558e-13
1.1584e-12
-2.66612e-13
1.21575e-12
-2.3193e-13
1.26369e-12
-1.97545e-13
1.30326e-12
-1.64478e-13
1.33361e-12
-1.31426e-13
1.3551e-12
-9.88315e-14
1.37356e-12
-7.9129e-14
1.38523e-12
-5.84035e-14
1.3906e-12
-3.56767e-14
1.39034e-12
-1.50887e-14
1.39281e-12
-1.00076e-14
1.38866e-12
-1.09694e-15
1.38455e-12
7.23995e-15
1.37979e-12
1.02783e-14
1.37581e-12
8.10549e-15
1.37216e-12
7.41065e-15
1.37001e-12
3.27565e-15
1.36959e-12
-2.48293e-15
1.37129e-12
-9.15396e-15
1.37503e-12
-1.65628e-14
1.38119e-12
-2.44988e-14
1.38961e-12
-3.22736e-14
1.40009e-12
-3.96141e-14
1.4125e-12
-4.62397e-14
1.42646e-12
-5.16875e-14
1.44174e-12
-5.62933e-14
1.45786e-12
-5.92228e-14
1.47443e-12
-6.0495e-14
1.49097e-12
-6.03556e-14
1.50703e-12
-5.82685e-14
1.52221e-12
-5.44969e-14
1.53587e-12
-4.89306e-14
1.5476e-12
-4.1703e-14
1.55709e-12
-3.31043e-14
1.56391e-12
-2.26359e-14
1.56787e-12
-1.09483e-14
1.56794e-12
2.08791e-15
1.56485e-12
1.48914e-14
1.55808e-12
2.91924e-14
1.54728e-12
4.42714e-14
1.53264e-12
5.90686e-14
1.51389e-12
7.49978e-14
1.49116e-12
9.00614e-14
1.46465e-12
1.04946e-13
1.4343e-12
1.19868e-13
1.40039e-12
1.33542e-13
1.36293e-12
1.47408e-13
1.32222e-12
1.60248e-13
1.27842e-12
1.72767e-13
1.23175e-12
1.83746e-13
1.18246e-12
1.94133e-13
1.13079e-12
2.03737e-13
1.07693e-12
2.12625e-13
1.02108e-12
2.20576e-13
9.63428e-13
2.27761e-13
9.04089e-13
2.34298e-13
8.43373e-13
2.39906e-13
7.81443e-13
2.44747e-13
7.18539e-13
2.48705e-13
6.54701e-13
2.51933e-13
5.90129e-13
2.54455e-13
5.24936e-13
2.56041e-13
4.59019e-13
2.56983e-13
3.91846e-13
2.57551e-13
3.22769e-13
2.58241e-13
2.51349e-13
2.60262e-13
1.80112e-13
2.67625e-13
7.85099e-14
3.98348e-13
9.89945e-18
4.00947e-13
2.37898e-21
-1.88597e-22
2.38026e-21
-1.39587e-24
2.37354e-21
2.09897e-23
2.36005e-21
4.30134e-23
2.34102e-21
6.43133e-23
2.31683e-21
8.4786e-23
2.28809e-21
1.04483e-22
2.25453e-21
1.22785e-22
2.21705e-21
1.40052e-22
2.17554e-21
1.55924e-22
2.13066e-21
1.70554e-22
2.08263e-21
1.83893e-22
2.03161e-21
1.96042e-22
1.97805e-21
2.06899e-22
1.92221e-21
2.16825e-22
1.86421e-21
2.25665e-22
1.80434e-21
2.3373e-22
1.74277e-21
2.40968e-22
1.67975e-21
2.47637e-22
1.61507e-21
2.53893e-22
1.54915e-21
2.59786e-22
1.482e-21
2.65525e-22
1.41345e-21
2.70953e-22
1.34386e-21
2.76382e-22
1.27308e-21
2.81862e-22
1.20101e-21
2.87187e-22
1.12781e-21
2.92615e-22
1.05341e-21
2.98044e-22
9.78038e-22
3.03627e-22
9.0142e-22
3.09004e-22
8.2351e-22
3.1438e-22
7.44876e-22
3.19705e-22
6.65053e-22
3.24927e-22
5.84507e-22
3.29942e-22
5.03081e-22
3.34491e-22
4.20673e-22
3.3873e-22
3.37852e-22
3.42556e-22
2.54461e-22
3.45865e-22
1.70606e-22
3.48502e-22
8.66472e-23
3.50414e-22
3.51655e-22
1.35676e-13
-6.39537e-13
2.69877e-13
-6.32563e-13
4.01016e-13
-6.18889e-13
5.27715e-13
-5.9878e-13
6.48386e-13
-5.72556e-13
7.61869e-13
-5.4109e-13
8.67188e-13
-5.05027e-13
9.63508e-13
-4.6529e-13
1.05019e-12
-4.22716e-13
1.1269e-12
-3.7832e-13
1.19354e-12
-3.33288e-13
1.2501e-12
-2.8854e-13
1.2966e-12
-2.44079e-13
1.33438e-12
-2.02301e-13
1.36141e-12
-1.58487e-13
1.38076e-12
-1.18211e-13
1.39654e-12
-9.49448e-14
1.4043e-12
-6.61879e-14
1.40564e-12
-3.70474e-14
1.40229e-12
-1.17533e-14
1.40225e-12
-9.98706e-15
1.39437e-12
6.75734e-15
1.38726e-12
1.43341e-14
1.38022e-12
1.73103e-14
1.37359e-12
1.47213e-14
1.36807e-12
1.29201e-14
1.36443e-12
6.91226e-15
1.36285e-12
-9.0349e-16
1.36371e-12
-1.00197e-14
1.36728e-12
-2.0137e-14
1.37343e-12
-3.06457e-14
1.38217e-12
-4.10066e-14
1.39336e-12
-5.08013e-14
1.40679e-12
-5.96563e-14
1.42198e-12
-6.6874e-14
1.43878e-12
-7.30847e-14
1.45646e-12
-7.68881e-14
1.4748e-12
-7.88289e-14
1.4931e-12
-7.86369e-14
1.51091e-12
-7.60641e-14
1.52771e-12
-7.12832e-14
1.54305e-12
-6.42479e-14
1.55638e-12
-5.50189e-14
1.5673e-12
-4.40141e-14
1.57546e-12
-3.07799e-14
1.58061e-12
-1.6079e-14
1.58165e-12
1.05278e-15
1.57906e-12
1.74923e-14
1.57283e-12
3.54387e-14
1.56244e-12
5.46745e-14
1.54793e-12
7.35825e-14
1.52917e-12
9.3763e-14
1.50626e-12
1.12976e-13
1.4794e-12
1.31816e-13
1.44848e-12
1.50792e-13
1.414e-12
1.68026e-13
1.37582e-12
1.85576e-13
1.33436e-12
2.01713e-13
1.28968e-12
2.17436e-13
1.24229e-12
2.31137e-13
1.19213e-12
2.44278e-13
1.13965e-12
2.5621e-13
1.08491e-12
2.67356e-13
1.02823e-12
2.77245e-13
9.69781e-13
2.86196e-13
9.09648e-13
2.94414e-13
8.48144e-13
3.01391e-13
7.85512e-13
3.07359e-13
7.21748e-13
3.12444e-13
6.57077e-13
3.16578e-13
5.91763e-13
3.19744e-13
5.258e-13
3.21974e-13
4.59445e-13
3.2331e-13
3.92805e-13
3.24161e-13
3.25651e-13
3.25366e-13
2.59619e-13
3.26262e-13
1.91894e-13
3.35317e-13
8.02986e-14
5.09913e-13
9.20748e-18
4.81211e-13
2.40214e-21
-2.01832e-22
2.40275e-21
-1.34417e-24
2.39557e-21
2.70902e-23
2.38145e-21
5.49041e-23
2.3615e-21
8.18909e-23
2.33648e-21
1.07895e-22
2.30649e-21
1.32607e-22
2.27175e-21
1.5582e-22
2.23297e-21
1.7743e-22
2.19017e-21
1.97386e-22
2.14405e-21
2.15687e-22
2.09473e-21
2.32283e-22
2.04246e-21
2.47224e-22
1.98792e-21
2.60769e-22
1.93105e-21
2.72711e-22
1.87232e-21
2.83671e-22
1.81158e-21
2.93546e-22
1.74949e-21
3.0249e-22
1.68595e-21
3.10658e-22
1.62102e-21
3.18361e-22
1.55479e-21
3.25599e-22
1.48743e-21
3.3263e-22
1.41893e-21
3.39506e-22
1.34929e-21
3.4633e-22
1.27851e-21
3.53154e-22
1.20639e-21
3.59979e-22
1.13324e-21
3.66906e-22
1.059e-21
3.73937e-22
9.83311e-22
3.80968e-22
9.06797e-22
3.88103e-22
8.28835e-22
3.95237e-22
7.50098e-22
4.0232e-22
6.70068e-22
4.09093e-22
5.89056e-22
4.15555e-22
5.07269e-22
4.21604e-22
4.24499e-22
4.27135e-22
3.41109e-22
4.31943e-22
2.57098e-22
4.36183e-22
1.72519e-22
4.39698e-22
8.78879e-23
4.42438e-22
4.44093e-22
1.42656e-13
-7.82228e-13
2.83613e-13
-7.7358e-13
4.21224e-13
-7.56551e-13
5.53797e-13
-7.31404e-13
6.79812e-13
-6.98623e-13
7.97892e-13
-6.59222e-13
9.07004e-13
-6.14188e-13
1.00606e-12
-5.64392e-13
1.09462e-12
-5.11327e-13
1.1724e-12
-4.56145e-13
1.239e-12
-3.99923e-13
1.29403e-12
-3.43609e-13
1.33945e-12
-2.89538e-13
1.37369e-12
-2.36584e-13
1.39589e-12
-1.80722e-13
1.41498e-12
-1.3734e-13
1.42569e-12
-1.05682e-13
1.42807e-12
-6.8599e-14
1.42375e-12
-3.27517e-14
1.41958e-12
-7.60218e-15
1.41262e-12
-3.05011e-15
1.40134e-12
1.80196e-14
1.39013e-12
2.5525e-14
1.38029e-12
2.71383e-14
1.37018e-12
2.48243e-14
1.36235e-12
2.07385e-14
1.35664e-12
1.26158e-14
1.35363e-12
2.10277e-15
1.35353e-12
-9.92401e-15
1.35687e-12
-2.34737e-14
1.36308e-12
-3.68562e-14
1.37238e-12
-5.03018e-14
1.38456e-12
-6.29748e-14
1.39932e-12
-7.4404e-14
1.41621e-12
-8.37571e-14
1.4348e-12
-9.16618e-14
1.45456e-12
-9.66308e-14
1.4751e-12
-9.93647e-14
1.49567e-12
-9.91876e-14
1.5157e-12
-9.60854e-14
1.53478e-12
-9.03408e-14
1.55227e-12
-8.17277e-14
1.56765e-12
-7.03871e-14
1.5804e-12
-5.67451e-14
1.59019e-12
-4.05601e-14
1.59652e-12
-2.23926e-14
1.59945e-12
-1.86772e-15
1.59714e-12
1.9815e-14
1.59162e-12
4.09699e-14
1.58176e-12
6.45483e-14
1.56723e-12
8.81297e-14
1.54863e-12
1.12367e-13
1.52529e-12
1.3633e-13
1.4979e-12
1.59205e-13
1.46635e-12
1.82351e-13
1.43111e-12
2.03268e-13
1.39209e-12
2.24599e-13
1.3496e-12
2.44202e-13
1.30395e-12
2.63082e-13
1.25537e-12
2.79712e-13
1.20419e-12
2.95444e-13
1.1507e-12
3.09694e-13
1.09499e-12
3.23056e-13
1.03723e-12
3.34987e-13
9.77768e-13
3.45649e-13
9.16666e-13
3.55502e-13
8.54265e-13
3.63771e-13
7.90609e-13
3.70996e-13
7.25874e-13
3.77154e-13
6.60259e-13
3.82173e-13
5.9396e-13
3.86015e-13
5.27216e-13
3.88693e-13
4.60389e-13
3.9011e-13
3.93924e-13
3.90598e-13
3.28174e-13
3.91086e-13
2.67114e-13
3.87292e-13
2.00476e-13
4.01924e-13
6.7749e-14
6.42606e-13
9.30832e-18
5.48927e-13
2.42696e-21
-2.58081e-22
2.43114e-21
-1.39587e-24
2.42338e-21
3.3294e-23
2.40844e-21
6.74152e-23
2.38745e-21
1.00451e-22
2.36124e-21
1.32246e-22
2.32965e-21
1.62179e-22
2.29336e-21
1.90303e-22
2.25288e-21
2.16463e-22
2.20847e-21
2.40503e-22
2.16065e-21
2.62475e-22
2.10962e-21
2.82275e-22
2.05606e-21
3.00111e-22
1.99992e-21
3.15983e-22
1.94207e-21
3.30252e-22
1.88215e-21
3.42918e-22
1.82052e-21
3.54447e-22
1.75766e-21
3.64993e-22
1.6936e-21
3.74661e-22
1.62825e-21
3.83657e-22
1.56182e-21
3.92135e-22
1.49435e-21
4.00562e-22
1.42575e-21
4.08627e-22
1.35611e-21
4.16796e-22
1.28534e-21
4.25067e-22
1.21332e-21
4.33443e-22
1.14027e-21
4.42128e-22
1.06603e-21
4.50917e-22
9.90497e-22
4.59757e-22
9.13931e-22
4.68701e-22
8.35918e-22
4.77542e-22
7.5687e-22
4.86331e-22
6.7653e-22
4.94964e-22
5.95053e-22
5.03081e-22
5.128e-22
5.10887e-22
4.29358e-22
5.17867e-22
3.45348e-22
5.24071e-22
2.60614e-22
5.29396e-22
1.75207e-22
5.33635e-22
8.9594e-23
5.3684e-22
5.38857e-22
1.5136e-13
-9.33621e-13
3.00857e-13
-9.23137e-13
4.46589e-13
-9.02336e-13
5.86561e-13
-8.71425e-13
7.19221e-13
-8.31335e-13
8.43003e-13
-7.83053e-13
9.56726e-13
-7.27958e-13
1.05934e-12
-6.67056e-13
1.15028e-12
-6.02312e-13
1.22906e-12
-5.34961e-13
1.29498e-12
-4.65886e-13
1.34901e-12
-3.97674e-13
1.39261e-12
-3.3318e-13
1.42111e-12
-2.65121e-13
1.43914e-12
-1.98782e-13
1.45661e-12
-1.54844e-13
1.4607e-12
-1.09807e-13
1.45695e-12
-6.48759e-14
1.44458e-12
-2.04015e-14
1.44187e-12
-4.92151e-15
1.42387e-12
1.49393e-14
1.40918e-12
3.26873e-14
1.39274e-12
4.19492e-14
1.37926e-12
4.06095e-14
1.36507e-12
3.89998e-14
1.3542e-12
3.16033e-14
1.34613e-12
2.06729e-14
1.3414e-12
6.82408e-15
1.34027e-12
-8.78957e-15
1.34318e-12
-2.63805e-14
1.34965e-12
-4.33263e-14
1.35972e-12
-6.0362e-14
1.37318e-12
-7.64327e-14
1.38964e-12
-9.08542e-14
1.40857e-12
-1.02675e-13
1.4296e-12
-1.12679e-13
1.45196e-12
-1.18986e-13
1.4752e-12
-1.22586e-13
1.49861e-12
-1.22588e-13
1.52163e-12
-1.19091e-13
1.54344e-12
-1.1214e-13
1.56359e-12
-1.0186e-13
1.58148e-12
-8.82558e-14
1.59642e-12
-7.16699e-14
1.60832e-12
-5.24502e-14
1.61613e-12
-3.01849e-14
1.62106e-12
-6.78116e-15
1.61996e-12
2.0921e-14
1.61483e-12
4.61153e-14
1.60552e-12
7.38698e-14
1.59108e-12
1.02575e-13
1.57251e-12
1.3095e-13
1.54859e-12
1.60254e-13
1.52053e-12
1.87266e-13
1.48813e-12
2.14754e-13
1.4518e-12
2.39606e-13
1.41173e-12
2.64664e-13
1.36798e-12
2.87957e-13
1.3211e-12
3.09952e-13
1.2711e-12
3.29707e-13
1.21875e-12
3.47782e-13
1.16388e-12
3.6456e-13
1.10686e-12
3.80067e-13
1.04801e-12
3.93815e-13
9.87318e-13
4.06327e-13
9.25047e-13
4.17754e-13
8.61557e-13
4.27243e-13
7.96819e-13
4.35712e-13
7.30925e-13
4.43027e-13
6.64085e-13
4.48988e-13
5.96571e-13
4.53502e-13
5.28613e-13
4.56627e-13
4.60782e-13
4.57912e-13
3.94183e-13
4.57168e-13
3.30966e-13
4.54273e-13
2.6832e-13
4.4991e-13
1.46483e-13
5.23731e-13
5.5385e-14
7.33675e-13
8.84848e-18
6.04276e-13
2.46666e-21
-2.94477e-22
2.46583e-21
-1.29247e-24
2.4575e-21
4.03251e-23
2.44148e-21
8.10637e-23
2.41925e-21
1.20406e-22
2.39122e-21
1.58147e-22
2.35783e-21
1.93767e-22
2.31952e-21
2.26906e-22
2.27692e-21
2.57667e-22
2.23039e-21
2.85791e-22
2.18045e-21
3.11227e-22
2.12756e-21
3.34181e-22
2.07183e-21
3.54705e-22
2.01424e-21
3.73007e-22
1.95468e-21
3.89447e-22
1.89368e-21
4.03923e-22
1.83107e-21
4.16796e-22
1.76732e-21
4.28583e-22
1.7026e-21
4.39491e-22
1.63673e-21
4.49624e-22
1.57025e-21
4.59447e-22
1.50242e-21
4.68908e-22
1.43392e-21
4.78421e-22
1.36438e-21
4.88088e-22
1.29371e-21
4.97911e-22
1.222e-21
5.08044e-22
1.14906e-21
5.18384e-22
1.07487e-21
5.28982e-22
9.99441e-22
5.39735e-22
9.22772e-22
5.50696e-22
8.44758e-22
5.61707e-22
7.65401e-22
5.72512e-22
6.84699e-22
5.82956e-22
6.0286e-22
5.9314e-22
5.19831e-22
6.02446e-22
4.35562e-22
6.11028e-22
3.50621e-22
6.18524e-22
2.64801e-22
6.25038e-22
1.78464e-22
6.30157e-22
9.16103e-23
6.33931e-22
6.36154e-22
1.62056e-13
-1.09571e-12
3.21964e-13
-1.0831e-12
4.77528e-13
-1.05795e-12
6.26641e-13
-1.02059e-12
7.67484e-13
-9.72225e-13
8.983e-13
-9.13915e-13
1.01761e-12
-8.47318e-13
1.12455e-12
-7.7404e-13
1.21828e-12
-6.9608e-13
1.29769e-12
-6.14417e-13
1.36306e-12
-5.31305e-13
1.41688e-12
-4.51533e-13
1.45533e-12
-3.71665e-13
1.47664e-12
-2.86466e-13
1.49523e-12
-2.17404e-13
1.50427e-12
-1.6391e-13
1.50176e-12
-1.07327e-13
1.48944e-12
-5.25836e-14
1.47351e-12
-4.50391e-15
1.46329e-12
5.27696e-15
1.43753e-12
4.06771e-14
1.41686e-12
5.33418e-14
1.39545e-12
6.33466e-14
1.37595e-12
6.00947e-14
1.35782e-12
5.71151e-14
1.34317e-12
4.62518e-14
1.33237e-12
3.14612e-14
1.3255e-12
1.36926e-14
1.32316e-12
-6.44995e-15
1.32559e-12
-2.88117e-14
1.33256e-12
-5.02902e-14
1.34368e-12
-7.14797e-14
1.35879e-12
-9.15274e-14
1.37744e-12
-1.09498e-13
1.39904e-12
-1.24267e-13
1.42285e-12
-1.36477e-13
1.44865e-12
-1.44774e-13
1.47526e-12
-1.49177e-13
1.50213e-12
-1.49444e-13
1.52856e-12
-1.45512e-13
1.55378e-12
-1.37337e-13
1.57713e-12
-1.25201e-13
1.59802e-12
-1.09128e-13
1.61584e-12
-8.94798e-14
1.63004e-12
-6.66294e-14
1.64015e-12
-4.02842e-14
1.64608e-12
-1.26977e-14
1.64785e-12
1.91573e-14
1.64251e-12
5.14665e-14
1.63381e-12
8.25817e-14
1.61959e-12
1.1681e-13
1.60082e-12
1.49725e-13
1.57646e-12
1.84618e-13
1.54741e-12
2.16331e-13
1.51408e-12
2.48083e-13
1.4762e-12
2.77485e-13
1.43481e-12
3.06061e-13
1.38946e-12
3.33308e-13
1.34127e-12
3.58134e-13
1.2895e-12
3.81466e-13
1.23557e-12
4.01704e-13
1.17932e-12
4.20801e-13
1.12082e-12
4.38555e-13
1.06044e-12
4.54184e-13
9.98324e-13
4.68428e-13
9.3489e-13
4.8117e-13
8.70074e-13
4.9204e-13
8.03993e-13
5.01775e-13
7.36846e-13
5.1015e-13
6.68638e-13
5.17174e-13
5.99599e-13
5.22516e-13
5.29959e-13
5.26241e-13
4.59945e-13
5.27899e-13
3.90591e-13
5.26495e-13
3.24883e-13
5.19951e-13
2.72425e-13
5.02336e-13
1.18939e-13
6.77186e-13
6.02161e-14
7.9237e-13
9.11242e-18
6.64461e-13
2.50967e-21
-3.20947e-22
2.50744e-21
-8.27181e-25
2.49824e-21
4.80282e-23
2.48087e-21
9.60047e-23
2.45693e-21
1.42327e-22
2.42679e-21
1.86374e-22
2.39102e-21
2.27681e-22
2.35023e-21
2.66145e-22
2.30499e-21
3.01507e-22
2.25588e-21
3.33819e-22
2.20345e-21
3.62822e-22
2.14803e-21
3.88827e-22
2.09018e-21
4.11833e-22
2.03057e-21
4.32254e-22
1.96921e-21
4.50245e-22
1.90655e-21
4.6622e-22
1.84286e-21
4.80644e-22
1.77823e-21
4.93568e-22
1.71278e-21
5.05407e-22
1.64655e-21
5.16626e-22
1.57971e-21
5.27431e-22
1.51193e-21
5.38133e-22
1.44359e-21
5.49041e-22
1.37415e-21
5.60001e-22
1.30384e-21
5.71272e-22
1.23234e-21
5.83111e-22
1.1596e-21
5.95415e-22
1.08567e-21
6.08185e-22
1.01035e-21
6.21109e-22
9.33784e-22
6.34448e-22
8.55563e-22
6.47631e-22
7.75895e-22
6.60711e-22
6.94832e-22
6.73428e-22
6.12217e-22
6.85526e-22
5.28362e-22
6.96848e-22
4.4311e-22
7.07033e-22
3.57084e-22
7.1608e-22
2.69971e-22
7.23576e-22
1.82187e-22
7.29573e-22
9.38333e-23
7.33709e-22
7.36139e-22
1.74897e-13
-1.27064e-12
3.47295e-13
-1.25555e-12
5.14815e-13
-1.22552e-12
6.75029e-13
-1.18085e-12
8.25701e-13
-1.12295e-12
9.64994e-13
-1.05326e-12
1.09113e-12
-9.73501e-13
1.20314e-12
-8.86086e-13
1.29971e-12
-7.92699e-13
1.37981e-12
-6.94552e-13
1.44586e-12
-5.97398e-13
1.49762e-12
-5.03334e-13
1.52718e-12
-4.01257e-13
1.54534e-12
-3.0466e-13
1.56187e-12
-2.33964e-13
1.5599e-12
-1.61971e-13
1.54822e-12
-9.56765e-14
1.52699e-12
-3.13783e-14
1.51257e-12
9.89338e-15
1.48203e-12
3.57957e-14
1.45411e-12
6.85748e-14
1.4239e-12
8.35388e-14
1.39723e-12
9.00002e-14
1.37001e-12
8.73037e-14
1.34734e-12
7.9775e-14
1.3284e-12
6.51835e-14
1.31421e-12
4.56472e-14
1.30509e-12
2.28066e-14
1.30162e-12
-2.98111e-15
1.30353e-12
-3.07251e-14
1.31124e-12
-5.79946e-14
1.32369e-12
-8.39231e-14
1.34087e-12
-1.08701e-13
1.36227e-12
-1.30889e-13
1.38705e-12
-1.4904e-13
1.4146e-12
-1.64021e-13
1.44433e-12
-1.74492e-13
1.47501e-12
-1.79843e-13
1.50608e-12
-1.80493e-13
1.53666e-12
-1.76082e-13
1.56599e-12
-1.66659e-13
1.5932e-12
-1.52393e-13
1.61761e-12
-1.33525e-13
1.63874e-12
-1.10593e-13
1.65589e-12
-8.37674e-14
1.66868e-12
-5.30653e-14
1.6761e-12
-2.01005e-14
1.68016e-12
1.5114e-14
1.676e-12
5.56298e-14
1.66721e-12
9.13918e-14
1.65345e-12
1.30577e-13
1.63378e-12
1.69404e-13
1.60909e-12
2.09309e-13
1.57879e-12
2.4663e-13
1.54415e-12
2.8273e-13
1.50452e-12
3.17115e-13
1.4615e-12
3.49083e-13
1.41432e-12
3.80486e-13
1.36434e-12
4.08103e-13
1.3106e-12
4.35207e-13
1.25482e-12
4.57479e-13
1.19671e-12
4.78898e-13
1.13657e-12
4.98681e-13
1.07458e-12
5.16167e-13
1.01089e-12
5.32097e-13
9.46092e-13
5.45956e-13
8.79801e-13
5.5831e-13
8.12334e-13
5.69222e-13
7.43668e-13
5.78796e-13
6.74058e-13
5.8676e-13
6.03367e-13
5.93184e-13
5.31664e-13
5.97918e-13
4.58896e-13
6.0064e-13
3.84641e-13
6.00723e-13
3.08479e-13
5.96088e-13
2.23944e-13
5.86842e-13
1.1333e-13
7.87773e-13
6.26744e-14
8.42994e-13
9.52505e-18
7.271e-13
2.55848e-21
-3.67269e-22
2.55635e-21
-2.58494e-25
2.54617e-21
5.68687e-23
2.52719e-21
1.12652e-22
2.50103e-21
1.66108e-22
2.4681e-21
2.16928e-22
2.42953e-21
2.64594e-22
2.38564e-21
3.08538e-22
2.33725e-21
3.48708e-22
2.28493e-21
3.84949e-22
2.22941e-21
4.17468e-22
2.17104e-21
4.46264e-22
2.11065e-21
4.71596e-22
2.04851e-21
4.93879e-22
1.98523e-21
5.13421e-22
1.92092e-21
5.30636e-22
1.85578e-21
5.45888e-22
1.79007e-21
5.59691e-22
1.724e-21
5.72461e-22
1.65736e-21
5.84507e-22
1.59046e-21
5.96397e-22
1.52284e-21
6.08081e-22
1.4546e-21
6.19972e-22
1.38553e-21
6.3238e-22
1.31568e-21
6.45563e-22
1.24465e-21
6.59211e-22
1.17243e-21
6.73687e-22
1.09865e-21
6.88576e-22
1.02364e-21
7.04138e-22
9.46967e-22
7.19854e-22
8.68695e-22
7.35519e-22
7.88613e-22
7.51028e-22
7.06981e-22
7.66021e-22
6.23487e-22
7.80342e-22
5.38546e-22
7.9368e-22
4.52158e-22
8.05726e-22
3.64632e-22
8.16117e-22
2.75968e-22
8.24699e-22
1.86374e-22
8.3142e-22
9.62632e-23
8.35969e-22
8.38399e-22
1.90231e-13
-1.4609e-12
3.77735e-13
-1.44311e-12
5.59591e-13
-1.40743e-12
7.32957e-13
-1.35426e-12
8.95489e-13
-1.28552e-12
1.04473e-12
-1.20254e-12
1.17889e-12
-1.1077e-12
1.29753e-12
-1.00477e-12
1.39619e-12
-8.91399e-13
1.47823e-12
-7.76635e-13
1.54656e-12
-6.65761e-13
1.58748e-12
-5.44288e-13
1.61155e-12
-4.25368e-13
1.63346e-12
-3.26599e-13
1.63508e-12
-2.35619e-13
1.62538e-12
-1.52295e-13
1.59839e-12
-6.87155e-14
1.57733e-12
-1.03395e-14
1.54802e-12
3.91752e-14
1.50651e-12
7.72881e-14
1.46929e-12
1.05776e-13
1.43145e-12
1.21368e-13
1.39561e-12
1.25823e-13
1.36155e-12
1.21352e-13
1.33268e-12
1.08635e-13
1.30886e-12
8.89977e-14
1.2908e-12
6.37021e-14
1.27932e-12
3.42843e-14
1.27443e-12
1.90896e-15
1.2762e-12
-3.24952e-14
1.28465e-12
-6.64359e-14
1.2991e-12
-9.83754e-14
1.31886e-12
-1.28454e-13
1.34357e-12
-1.55589e-13
1.3723e-12
-1.77762e-13
1.4045e-12
-1.96206e-13
1.43885e-12
-2.08832e-13
1.47463e-12
-2.15614e-13
1.51058e-12
-2.16431e-13
1.5461e-12
-2.11583e-13
1.58012e-12
-2.00678e-13
1.612e-12
-1.84257e-13
1.64069e-12
-1.62203e-13
1.66559e-12
-1.35474e-13
1.68614e-12
-1.04298e-13
1.70199e-12
-6.89028e-14
1.71192e-12
-3.00242e-14
1.71664e-12
1.04135e-14
1.71573e-12
5.65493e-14
1.70622e-12
1.00906e-13
1.69265e-12
1.44161e-13
1.67202e-12
1.90039e-13
1.64717e-12
2.34167e-13
1.61521e-12
2.78593e-13
1.57862e-12
3.19317e-13
1.53694e-12
3.58798e-13
1.49187e-12
3.94158e-13
1.44249e-12
4.29863e-13
1.39017e-12
4.60418e-13
1.33441e-12
4.90952e-13
1.27612e-12
5.15763e-13
1.21618e-12
5.38836e-13
1.15405e-12
5.60797e-13
1.09035e-12
5.79852e-13
1.025e-12
5.97434e-13
9.58503e-13
6.12432e-13
8.90719e-13
6.26076e-13
8.21746e-13
6.38175e-13
7.51624e-13
6.48897e-13
6.80431e-13
6.57932e-13
6.0803e-13
6.6556e-13
5.3432e-13
6.71601e-13
4.5866e-13
6.76273e-13
3.79607e-13
6.79745e-13
2.93634e-13
6.82037e-13
1.84802e-13
6.95645e-13
1.13133e-13
8.59413e-13
6.04475e-14
8.9565e-13
9.0531e-18
7.87518e-13
2.61638e-21
-3.75541e-22
2.61343e-21
1.34417e-24
2.6019e-21
6.72601e-23
2.58065e-21
1.31418e-22
2.55185e-21
1.92992e-22
2.51582e-21
2.51101e-22
2.47343e-21
3.05178e-22
2.42576e-21
3.54757e-22
2.37359e-21
3.99838e-22
2.3174e-21
4.40215e-22
2.2582e-21
4.75939e-22
2.19642e-21
5.07269e-22
2.13289e-21
5.34772e-22
2.06806e-21
5.58554e-22
2.0025e-21
5.79233e-22
1.93622e-21
5.97224e-22
1.86958e-21
6.13148e-22
1.80284e-21
6.2752e-22
1.7361e-21
6.40755e-22
1.6692e-21
6.53421e-22
1.60209e-21
6.65829e-22
1.53478e-21
6.78443e-22
1.467e-21
6.91678e-22
1.39866e-21
7.05585e-22
1.32933e-21
7.20371e-22
1.25907e-21
7.36087e-22
1.18737e-21
7.52734e-22
1.11416e-21
7.7026e-22
1.0394e-21
7.88355e-22
9.62683e-22
8.0676e-22
8.84101e-22
8.25164e-22
8.03658e-22
8.43362e-22
7.21302e-22
8.60992e-22
6.36826e-22
8.7738e-22
5.5054e-22
8.92683e-22
4.62549e-22
9.06228e-22
3.73214e-22
9.17964e-22
2.82637e-22
9.2758e-22
1.90975e-22
9.34714e-22
9.86413e-23
9.3947e-22
9.41487e-22
2.08564e-13
-1.6695e-12
4.13753e-13
-1.64836e-12
6.12604e-13
-1.60633e-12
8.01464e-13
-1.54317e-12
9.78312e-13
-1.46242e-12
1.14062e-12
-1.36489e-12
1.28358e-12
-1.25071e-12
1.40728e-12
-1.12851e-12
1.51099e-12
-9.95151e-13
1.59906e-12
-8.64746e-13
1.65721e-12
-7.23951e-13
1.69216e-12
-5.79275e-13
1.72054e-12
-4.53789e-13
1.72916e-12
-3.35253e-13
1.72197e-12
-2.28456e-13
1.69443e-12
-1.24782e-13
1.66563e-12
-3.99464e-14
1.63057e-12
2.47052e-14
1.58319e-12