/*--------------------------------*- C++ -*----------------------------------*\
  =========                 |
  \\      /  F ield         | OpenFOAM: The Open Source CFD Toolbox
   \\    /   O peration     | Website:  https://openfoam.org
    \\  /    A nd           | Version:  6
     \\/     M anipulation  |
\*---------------------------------------------------------------------------*/
FoamFile
{
    version     2.0;
    format      ascii;
    class       volVectorField;
    location    "6300";
    object      U;
}
// * * * * * * * * * * * * * * * * * * * * * * * * * * * * * * * * * * * * * //

dimensions      [0 1 -1 0 0 0 0];

internalField   nonuniform List<vector> 
4800
(
(2.55049e-08 0 -2.3889e-08)
(7.31384e-08 0 -2.67304e-08)
(1.21328e-07 0 -2.73566e-08)
(1.68149e-07 0 -2.68202e-08)
(2.13221e-07 0 -2.5722e-08)
(2.56198e-07 0 -2.42821e-08)
(2.96727e-07 0 -2.2579e-08)
(3.34491e-07 0 -2.07053e-08)
(3.69252e-07 0 -1.8722e-08)
(4.00834e-07 0 -1.66958e-08)
(4.29126e-07 0 -1.4645e-08)
(4.54091e-07 0 -1.26652e-08)
(4.75768e-07 0 -1.07846e-08)
(4.94226e-07 0 -8.97084e-09)
(5.09548e-07 0 -7.26518e-09)
(5.21864e-07 0 -5.66869e-09)
(5.31458e-07 0 -4.28842e-09)
(5.39006e-07 0 -3.40073e-09)
(5.44594e-07 0 -2.33612e-09)
(5.48095e-07 0 -1.31568e-09)
(5.50135e-07 0 -5.23663e-10)
(5.51443e-07 0 -6.30977e-10)
(5.52005e-07 0 1.02434e-10)
(5.51824e-07 0 2.76524e-10)
(5.5146e-07 0 2.66202e-10)
(5.51188e-07 0 2.40564e-10)
(5.51091e-07 0 1.13702e-10)
(5.51363e-07 0 -1.09246e-10)
(5.52161e-07 0 -3.6833e-10)
(5.53571e-07 0 -6.93389e-10)
(5.55663e-07 0 -1.02881e-09)
(5.58436e-07 0 -1.3628e-09)
(5.61896e-07 0 -1.69317e-09)
(5.65975e-07 0 -1.97657e-09)
(5.70608e-07 0 -2.23903e-09)
(5.75698e-07 0 -2.42575e-09)
(5.81113e-07 0 -2.56823e-09)
(5.86707e-07 0 -2.61139e-09)
(5.9234e-07 0 -2.60159e-09)
(5.97843e-07 0 -2.49848e-09)
(6.03064e-07 0 -2.33327e-09)
(6.0783e-07 0 -2.05281e-09)
(6.11961e-07 0 -1.71636e-09)
(6.15341e-07 0 -1.32058e-09)
(6.17819e-07 0 -7.89438e-10)
(6.19169e-07 0 -2.46283e-10)
(6.19391e-07 0 3.28681e-10)
(6.18383e-07 0 9.52653e-10)
(6.16014e-07 0 1.65784e-09)
(6.12219e-07 0 2.35297e-09)
(6.07004e-07 0 3.06771e-09)
(6.00289e-07 0 3.81654e-09)
(5.92088e-07 0 4.5226e-09)
(5.82424e-07 0 5.24768e-09)
(5.71276e-07 0 5.95135e-09)
(5.58741e-07 0 6.60096e-09)
(5.4485e-07 0 7.26308e-09)
(5.29649e-07 0 7.85287e-09)
(5.13199e-07 0 8.46704e-09)
(4.9557e-07 0 8.97264e-09)
(4.76874e-07 0 9.44898e-09)
(4.57187e-07 0 9.89547e-09)
(4.36568e-07 0 1.03044e-08)
(4.15103e-07 0 1.06579e-08)
(3.92875e-07 0 1.09749e-08)
(3.69971e-07 0 1.12384e-08)
(3.46469e-07 0 1.14739e-08)
(3.22439e-07 0 1.16655e-08)
(2.97957e-07 0 1.18193e-08)
(2.73139e-07 0 1.19079e-08)
(2.48095e-07 0 1.19625e-08)
(2.22941e-07 0 1.19575e-08)
(1.97896e-07 0 1.18459e-08)
(1.73392e-07 0 1.14808e-08)
(1.50644e-07 0 1.04435e-08)
(1.32211e-07 0 8.25097e-09)
(1.22784e-07 0 -5.72712e-09)
(8.75143e-08 0 1.68859e-08)
(4.15064e-12 0 3.25414e-08)
(9.30806e-16 0 -5.3299e-18)
(4.8364e-16 0 1.24077e-19)
(9.37764e-16 0 1.20975e-18)
(9.34021e-16 0 2.25407e-18)
(9.2789e-16 0 3.26736e-18)
(9.19794e-16 0 4.25998e-18)
(9.09795e-16 0 5.19056e-18)
(8.97967e-16 0 6.07978e-18)
(8.84463e-16 0 6.90696e-18)
(8.69398e-16 0 7.71346e-18)
(8.52854e-16 0 8.4269e-18)
(8.34977e-16 0 9.08865e-18)
(8.1589e-16 0 9.70903e-18)
(7.95634e-16 0 1.02364e-17)
(7.74334e-16 0 1.07637e-17)
(7.52124e-16 0 1.12186e-17)
(7.29025e-16 0 1.16322e-17)
(7.0511e-16 0 1.20045e-17)
(6.80511e-16 0 1.2387e-17)
(6.55262e-16 0 1.26972e-17)
(6.2936e-16 0 1.29867e-17)
(6.0287e-16 0 1.32763e-17)
(5.75842e-16 0 1.35451e-17)
(5.48276e-16 0 1.37932e-17)
(5.20204e-16 0 1.40621e-17)
(4.91656e-16 0 1.43309e-17)
(4.62621e-16 0 1.45791e-17)
(4.33132e-16 0 1.48272e-17)
(4.03189e-16 0 1.50754e-17)
(3.7279e-16 0 1.53028e-17)
(3.41956e-16 0 1.55407e-17)
(3.10741e-16 0 1.57681e-17)
(2.79163e-16 0 1.59853e-17)
(2.47244e-16 0 1.61921e-17)
(2.15026e-16 0 1.63782e-17)
(1.82517e-16 0 1.65746e-17)
(1.4974e-16 0 1.67194e-17)
(1.16788e-16 0 1.68641e-17)
(8.36693e-17 0 1.69779e-17)
(5.03546e-17 0 1.70916e-17)
(1.68331e-17 0 1.72777e-17)
(2.56965e-08 0 -7.37133e-08)
(7.43499e-08 0 -7.04306e-08)
(1.2243e-07 0 -6.8195e-08)
(1.69521e-07 0 -6.58787e-08)
(2.14891e-07 0 -6.31663e-08)
(2.58178e-07 0 -5.99827e-08)
(2.98985e-07 0 -5.63389e-08)
(3.37002e-07 0 -5.23049e-08)
(3.7197e-07 0 -4.79512e-08)
(4.03687e-07 0 -4.33756e-08)
(4.32059e-07 0 -3.86781e-08)
(4.57066e-07 0 -3.39559e-08)
(4.78718e-07 0 -2.93309e-08)
(4.97077e-07 0 -2.46476e-08)
(5.12212e-07 0 -2.01437e-08)
(5.24293e-07 0 -1.57325e-08)
(5.33689e-07 0 -1.19825e-08)
(5.41007e-07 0 -9.59589e-09)
(5.46262e-07 0 -6.53813e-09)
(5.4943e-07 0 -3.56952e-09)
(5.51207e-07 0 -1.40077e-09)
(5.5221e-07 0 -1.75591e-09)
(5.52455e-07 0 2.93132e-10)
(5.52007e-07 0 7.59398e-10)
(5.51434e-07 0 5.86774e-10)
(5.50977e-07 0 4.49024e-10)
(5.50708e-07 0 2.50845e-12)
(5.50847e-07 0 -7.51188e-10)
(5.51558e-07 0 -1.59915e-09)
(5.52913e-07 0 -2.63601e-09)
(5.54984e-07 0 -3.6939e-09)
(5.57774e-07 0 -4.73881e-09)
(5.61283e-07 0 -5.76308e-09)
(5.65438e-07 0 -6.64584e-09)
(5.70166e-07 0 -7.42782e-09)
(5.75371e-07 0 -8.03604e-09)
(5.80921e-07 0 -8.44116e-09)
(5.86666e-07 0 -8.58662e-09)
(5.92464e-07 0 -8.54281e-09)
(5.98135e-07 0 -8.22352e-09)
(6.03508e-07 0 -7.67542e-09)
(6.08433e-07 0 -6.85203e-09)
(6.12734e-07 0 -5.79746e-09)
(6.16256e-07 0 -4.55914e-09)
(6.18867e-07 0 -2.96679e-09)
(6.20344e-07 0 -1.24983e-09)
(6.20669e-07 0 5.00864e-10)
(6.19742e-07 0 2.44129e-09)
(6.1744e-07 0 4.56937e-09)
(6.13705e-07 0 6.73506e-09)
(6.08519e-07 0 8.92716e-09)
(6.01809e-07 0 1.12472e-08)
(5.93587e-07 0 1.34443e-08)
(5.83895e-07 0 1.5671e-08)
(5.72724e-07 0 1.78649e-08)
(5.60145e-07 0 1.991e-08)
(5.46192e-07 0 2.19801e-08)
(5.30912e-07 0 2.38876e-08)
(5.14378e-07 0 2.58182e-08)
(4.96684e-07 0 2.74552e-08)
(4.77916e-07 0 2.90294e-08)
(4.58154e-07 0 3.04966e-08)
(4.37471e-07 0 3.1875e-08)
(4.15933e-07 0 3.31156e-08)
(3.93628e-07 0 3.42389e-08)
(3.70648e-07 0 3.52268e-08)
(3.47049e-07 0 3.61437e-08)
(3.22921e-07 0 3.69137e-08)
(2.98365e-07 0 3.75535e-08)
(2.73462e-07 0 3.80246e-08)
(2.48273e-07 0 3.83881e-08)
(2.22894e-07 0 3.85322e-08)
(1.9743e-07 0 3.83809e-08)
(1.71923e-07 0 3.76993e-08)
(1.46047e-07 0 3.5978e-08)
(1.19705e-07 0 3.04279e-08)
(8.03377e-08 0 1.46633e-08)
(4.98632e-08 0 8.40478e-08)
(2.12809e-12 0 7.96589e-08)
(9.32905e-16 0 -2.31991e-17)
(4.84937e-16 0 3.10193e-20)
(9.39894e-16 0 3.29838e-18)
(9.36079e-16 0 6.47269e-18)
(9.29886e-16 0 9.58496e-18)
(9.21707e-16 0 1.26042e-17)
(9.11626e-16 0 1.54476e-17)
(8.99683e-16 0 1.8167e-17)
(8.86086e-16 0 2.07209e-17)
(8.70918e-16 0 2.3068e-17)
(8.5425e-16 0 2.52497e-17)
(8.36269e-16 0 2.72659e-17)
(8.17027e-16 0 2.91064e-17)
(7.96678e-16 0 3.07401e-17)
(7.75306e-16 0 3.226e-17)
(7.52993e-16 0 3.36352e-17)
(7.29822e-16 0 3.48657e-17)
(7.05864e-16 0 3.59927e-17)
(6.81204e-16 0 3.70474e-17)
(6.55872e-16 0 3.79986e-17)
(6.2995e-16 0 3.88878e-17)
(6.03428e-16 0 3.97357e-17)
(5.76348e-16 0 4.05732e-17)
(5.48793e-16 0 4.13487e-17)
(5.20741e-16 0 4.21552e-17)
(4.92173e-16 0 4.29514e-17)
(4.63128e-16 0 4.37062e-17)
(4.33629e-16 0 4.44816e-17)
(4.03664e-16 0 4.52468e-17)
(3.73286e-16 0 4.59809e-17)
(3.42453e-16 0 4.67254e-17)
(3.11185e-16 0 4.74595e-17)
(2.79587e-16 0 4.81626e-17)
(2.47637e-16 0 4.88243e-17)
(2.15388e-16 0 4.94344e-17)
(1.82848e-16 0 5.00341e-17)
(1.5004e-16 0 5.05407e-17)
(1.17046e-16 0 5.09957e-17)
(8.38968e-17 0 5.13369e-17)
(5.06441e-17 0 5.16368e-17)
(1.69986e-17 0 5.19573e-17)
(2.57951e-08 0 -1.24538e-07)
(7.52751e-08 0 -1.23083e-07)
(1.24736e-07 0 -1.20586e-07)
(1.73077e-07 0 -1.16842e-07)
(2.1946e-07 0 -1.11993e-07)
(2.6359e-07 0 -1.06115e-07)
(3.05084e-07 0 -9.93341e-08)
(3.4361e-07 0 -9.18559e-08)
(3.78923e-07 0 -8.38238e-08)
(4.10844e-07 0 -7.5434e-08)
(4.39257e-07 0 -6.68757e-08)
(4.64147e-07 0 -5.83816e-08)
(4.85568e-07 0 -5.00888e-08)
(5.03562e-07 0 -4.18275e-08)
(5.18155e-07 0 -3.39447e-08)
(5.2964e-07 0 -2.6131e-08)
(5.38507e-07 0 -2.02439e-08)
(5.45273e-07 0 -1.5732e-08)
(5.49738e-07 0 -1.04171e-08)
(5.52176e-07 0 -5.49826e-09)
(5.53448e-07 0 -2.33382e-09)
(5.53881e-07 0 -2.1851e-09)
(5.53451e-07 0 8.58156e-10)
(5.52447e-07 0 1.66406e-09)
(5.51426e-07 0 1.26384e-09)
(5.50538e-07 0 1.08765e-09)
(5.49894e-07 0 2.76312e-10)
(5.49761e-07 0 -1.0502e-09)
(5.50275e-07 0 -2.52158e-09)
(5.51518e-07 0 -4.28818e-09)
(5.5355e-07 0 -6.09835e-09)
(5.56374e-07 0 -7.90379e-09)
(5.59986e-07 0 -9.6458e-09)
(5.64308e-07 0 -1.11772e-08)
(5.6925e-07 0 -1.24745e-08)
(5.747e-07 0 -1.35479e-08)
(5.80533e-07 0 -1.42319e-08)
(5.86587e-07 0 -1.44959e-08)
(5.9272e-07 0 -1.44485e-08)
(5.98738e-07 0 -1.39202e-08)
(6.0445e-07 0 -1.29637e-08)
(6.09688e-07 0 -1.16199e-08)
(6.14286e-07 0 -9.85256e-09)
(6.18099e-07 0 -7.75344e-09)
(6.20991e-07 0 -5.1399e-09)
(6.22739e-07 0 -2.20949e-09)
(6.23224e-07 0 7.67968e-10)
(6.22429e-07 0 4.01129e-09)
(6.20254e-07 0 7.54264e-09)
(6.16608e-07 0 1.11962e-08)
(6.11478e-07 0 1.48465e-08)
(6.0479e-07 0 1.87567e-08)
(5.96545e-07 0 2.24304e-08)
(5.86793e-07 0 2.61291e-08)
(5.75519e-07 0 2.97818e-08)
(5.62831e-07 0 3.31736e-08)
(5.4877e-07 0 3.65864e-08)
(5.33367e-07 0 3.97626e-08)
(5.16692e-07 0 4.2903e-08)
(4.98844e-07 0 4.55897e-08)
(4.7991e-07 0 4.81672e-08)
(4.5997e-07 0 5.05502e-08)
(4.39092e-07 0 5.27791e-08)
(4.17377e-07 0 5.47666e-08)
(3.94914e-07 0 5.65468e-08)
(3.71765e-07 0 5.81357e-08)
(3.48005e-07 0 5.95488e-08)
(3.23734e-07 0 6.07321e-08)
(2.99009e-07 0 6.17054e-08)
(2.73907e-07 0 6.24517e-08)
(2.48499e-07 0 6.30175e-08)
(2.22835e-07 0 6.32912e-08)
(1.96902e-07 0 6.32342e-08)
(1.7057e-07 0 6.26891e-08)
(1.43316e-07 0 6.13666e-08)
(1.14609e-07 0 5.9231e-08)
(7.58902e-08 0 5.71168e-08)
(4.49033e-08 0 1.08403e-07)
(1.94802e-12 0 1.12872e-07)
(9.37169e-16 0 -4.305e-17)
(4.87297e-16 0 -2.58494e-19)
(9.44206e-16 0 5.24226e-18)
(9.40308e-16 0 1.06189e-17)
(9.34021e-16 0 1.58922e-17)
(9.25667e-16 0 2.09587e-17)
(9.15368e-16 0 2.5746e-17)
(9.0323e-16 0 3.03162e-17)
(8.89364e-16 0 3.46072e-17)
(8.73927e-16 0 3.85466e-17)
(8.57052e-16 0 4.22172e-17)
(8.38844e-16 0 4.5557e-17)
(8.19364e-16 0 4.85969e-17)
(7.98777e-16 0 5.13679e-17)
(7.77209e-16 0 5.38495e-17)
(7.54709e-16 0 5.61139e-17)
(7.31393e-16 0 5.81508e-17)
(7.07302e-16 0 6.0012e-17)
(6.82517e-16 0 6.17077e-17)
(6.57112e-16 0 6.33103e-17)
(6.31108e-16 0 6.47889e-17)
(6.04545e-16 0 6.61951e-17)
(5.77434e-16 0 6.76117e-17)
(5.49868e-16 0 6.89455e-17)
(5.21817e-16 0 7.0269e-17)
(4.93206e-16 0 7.16028e-17)
(4.64162e-16 0 7.2916e-17)
(4.34663e-16 0 7.42395e-17)
(4.04677e-16 0 7.55423e-17)
(3.74289e-16 0 7.68658e-17)
(3.43445e-16 0 7.81479e-17)
(3.12157e-16 0 7.94093e-17)
(2.80507e-16 0 8.06501e-17)
(2.48526e-16 0 8.18082e-17)
(2.16235e-16 0 8.29145e-17)
(1.83613e-16 0 8.39278e-17)
(1.50702e-16 0 8.4817e-17)
(1.17594e-16 0 8.55925e-17)
(8.43207e-17 0 8.62129e-17)
(5.09543e-17 0 8.66989e-17)
(1.7133e-17 0 8.70297e-17)
(2.66414e-08 0 -1.75374e-07)
(7.76962e-08 0 -1.73495e-07)
(1.28586e-07 0 -1.69871e-07)
(1.78357e-07 0 -1.64473e-07)
(2.26053e-07 0 -1.57491e-07)
(2.71317e-07 0 -1.49074e-07)
(3.13762e-07 0 -1.39387e-07)
(3.53043e-07 0 -1.28718e-07)
(3.88901e-07 0 -1.17277e-07)
(4.21133e-07 0 -1.05338e-07)
(4.49651e-07 0 -9.31829e-08)
(4.74432e-07 0 -8.11441e-08)
(4.95536e-07 0 -6.93241e-08)
(5.13018e-07 0 -5.76637e-08)
(5.26852e-07 0 -4.64005e-08)
(5.37528e-07 0 -3.52792e-08)
(5.45663e-07 0 -2.75559e-08)
(5.51584e-07 0 -2.0872e-08)
(5.54835e-07 0 -1.32196e-08)
(5.56238e-07 0 -6.20142e-09)
(5.56724e-07 0 -2.7592e-09)
(5.56284e-07 0 -1.44954e-09)
(5.54834e-07 0 2.19016e-09)
(5.53017e-07 0 3.2608e-09)
(5.51291e-07 0 2.48947e-09)
(5.49752e-07 0 2.29481e-09)
(5.48575e-07 0 9.36698e-10)
(5.48036e-07 0 -1.04004e-09)
(5.4828e-07 0 -3.26004e-09)
(5.4935e-07 0 -5.8362e-09)
(5.51324e-07 0 -8.52942e-09)
(5.54213e-07 0 -1.11913e-08)
(5.57984e-07 0 -1.37154e-08)
(5.62548e-07 0 -1.59808e-08)
(5.67813e-07 0 -1.78533e-08)
(5.73654e-07 0 -1.94318e-08)
(5.79921e-07 0 -2.04416e-08)
(5.86447e-07 0 -2.08574e-08)
(5.93073e-07 0 -2.08112e-08)
(5.99582e-07 0 -2.00738e-08)
(6.05813e-07 0 -1.87451e-08)
(6.11583e-07 0 -1.68166e-08)
(6.1665e-07 0 -1.43137e-08)
(6.2088e-07 0 -1.13306e-08)
(6.24152e-07 0 -7.6629e-09)
(6.26328e-07 0 -3.51634e-09)
(6.27123e-07 0 8.26886e-10)
(6.26557e-07 0 5.36957e-09)
(6.24574e-07 0 1.03599e-08)
(6.21055e-07 0 1.55849e-08)
(6.15974e-07 0 2.07145e-08)
(6.09298e-07 0 2.62961e-08)
(6.01017e-07 0 3.15083e-08)
(5.91182e-07 0 3.67053e-08)
(5.79798e-07 0 4.19121e-08)
(5.66966e-07 0 4.66666e-08)
(5.52692e-07 0 5.15e-08)
(5.37063e-07 0 5.59858e-08)
(5.2017e-07 0 6.03836e-08)
(5.02099e-07 0 6.41902e-08)
(4.82907e-07 0 6.78252e-08)
(4.62716e-07 0 7.1191e-08)
(4.41606e-07 0 7.43015e-08)
(4.19666e-07 0 7.70849e-08)
(3.96965e-07 0 7.95937e-08)
(3.73568e-07 0 8.18661e-08)
(3.49556e-07 0 8.38413e-08)
(3.25026e-07 0 8.55334e-08)
(3.00056e-07 0 8.69225e-08)
(2.74705e-07 0 8.802e-08)
(2.49015e-07 0 8.88799e-08)
(2.23058e-07 0 8.93836e-08)
(1.96826e-07 0 8.95984e-08)
(1.70223e-07 0 8.95305e-08)
(1.4302e-07 0 8.93086e-08)
(1.15703e-07 0 8.93334e-08)
(8.47885e-08 0 9.227e-08)
(4.49556e-08 0 1.39125e-07)
(2.11062e-12 0 1.43777e-07)
(9.45192e-16 0 -6.29566e-17)
(4.90846e-16 0 -4.4461e-19)
(9.50761e-16 0 7.35157e-18)
(9.46719e-16 0 1.5003e-17)
(9.40215e-16 0 2.24373e-17)
(9.31571e-16 0 2.95717e-17)
(9.20983e-16 0 3.63856e-17)
(9.08524e-16 0 4.27859e-17)
(8.94317e-16 0 4.88037e-17)
(8.78518e-16 0 5.43768e-17)
(8.6124e-16 0 5.95053e-17)
(8.42659e-16 0 6.41582e-17)
(8.22848e-16 0 6.84078e-17)
(8.01931e-16 0 7.22439e-17)
(7.80052e-16 0 7.57181e-17)
(7.57284e-16 0 7.88303e-17)
(7.33709e-16 0 8.16634e-17)
(7.09421e-16 0 8.42173e-17)
(6.84502e-16 0 8.65748e-17)
(6.58963e-16 0 8.87875e-17)
(6.32845e-16 0 9.08451e-17)
(6.0623e-16 0 9.28407e-17)
(5.79089e-16 0 9.47742e-17)
(5.51461e-16 0 9.66664e-17)
(5.23388e-16 0 9.85482e-17)
(4.94819e-16 0 1.0042e-16)
(4.65765e-16 0 1.02312e-16)
(4.36245e-16 0 1.04194e-16)
(4.0629e-16 0 1.06096e-16)
(3.75892e-16 0 1.07988e-16)
(3.44986e-16 0 1.09839e-16)
(3.13677e-16 0 1.11659e-16)
(2.81986e-16 0 1.13458e-16)
(2.49912e-16 0 1.15164e-16)
(2.17518e-16 0 1.16757e-16)
(1.84751e-16 0 1.18214e-16)
(1.51705e-16 0 1.19507e-16)
(1.18463e-16 0 1.20634e-16)
(8.50135e-17 0 1.21554e-16)
(5.14506e-17 0 1.22237e-16)
(1.73294e-17 0 1.22681e-16)
(2.78248e-08 0 -2.28294e-07)
(8.10116e-08 0 -2.25752e-07)
(1.33839e-07 0 -2.20887e-07)
(1.85477e-07 0 -2.13736e-07)
(2.34903e-07 0 -2.04467e-07)
(2.81692e-07 0 -1.93339e-07)
(3.25427e-07 0 -1.80566e-07)
(3.65737e-07 0 -1.66493e-07)
(4.02332e-07 0 -1.51406e-07)
(4.35019e-07 0 -1.35657e-07)
(4.63683e-07 0 -1.19665e-07)
(4.88295e-07 0 -1.03861e-07)
(5.09026e-07 0 -8.8095e-08)
(5.25721e-07 0 -7.29786e-08)
(5.38583e-07 0 -5.77844e-08)
(5.48415e-07 0 -4.2925e-08)
(5.55356e-07 0 -3.47732e-08)
(5.59967e-07 0 -2.48893e-08)
(5.61644e-07 0 -1.4256e-08)
(5.61826e-07 0 -4.99824e-09)
(5.61008e-07 0 -4.29736e-09)
(5.59361e-07 0 1.38576e-09)
(5.56521e-07 0 4.39652e-09)
(5.53652e-07 0 5.65682e-09)
(5.5093e-07 0 4.57092e-09)
(5.48501e-07 0 4.16101e-09)
(5.46635e-07 0 2.10695e-09)
(5.45571e-07 0 -6.072e-10)
(5.4542e-07 0 -3.78218e-09)
(5.46281e-07 0 -7.28017e-09)
(5.48215e-07 0 -1.098e-08)
(5.51172e-07 0 -1.46066e-08)
(5.5515e-07 0 -1.80371e-08)
(5.60057e-07 0 -2.11349e-08)
(5.65775e-07 0 -2.36687e-08)
(5.72166e-07 0 -2.58367e-08)
(5.79047e-07 0 -2.71888e-08)
(5.86241e-07 0 -2.78163e-08)
(5.93569e-07 0 -2.77625e-08)
(6.00781e-07 0 -2.68347e-08)
(6.07687e-07 0 -2.51202e-08)
(6.14122e-07 0 -2.25975e-08)
(6.19838e-07 0 -1.93186e-08)
(6.24679e-07 0 -1.53921e-08)
(6.28494e-07 0 -1.06554e-08)
(6.31182e-07 0 -5.37932e-09)
(6.32405e-07 0 7.20038e-10)
(6.32138e-07 0 6.47207e-09)
(6.30373e-07 0 1.29816e-08)
(6.27041e-07 0 1.98326e-08)
(6.22064e-07 0 2.65711e-08)
(6.15416e-07 0 3.38035e-08)
(6.0709e-07 0 4.0651e-08)
(5.97152e-07 0 4.73864e-08)
(5.85585e-07 0 5.41764e-08)
(5.72527e-07 0 6.03636e-08)
(5.5799e-07 0 6.66341e-08)
(5.42074e-07 0 7.24323e-08)
(5.24852e-07 0 7.80736e-08)
(5.06462e-07 0 8.3024e-08)
(4.86949e-07 0 8.77118e-08)
(4.66425e-07 0 9.20305e-08)
(4.44978e-07 0 9.60316e-08)
(4.22695e-07 0 9.96071e-08)
(3.99667e-07 0 1.02832e-07)
(3.75951e-07 0 1.05783e-07)
(3.51627e-07 0 1.08295e-07)
(3.2679e-07 0 1.10468e-07)
(3.01512e-07 0 1.12276e-07)
(2.75828e-07 0 1.13746e-07)
(2.49822e-07 0 1.14883e-07)
(2.23564e-07 0 1.15638e-07)
(1.97104e-07 0 1.16073e-07)
(1.70512e-07 0 1.16315e-07)
(1.43757e-07 0 1.16644e-07)
(1.17686e-07 0 1.17436e-07)
(8.8886e-08 0 1.21414e-07)
(4.60495e-08 0 1.80473e-07)
(1.83345e-12 0 1.76979e-07)
(9.5199e-16 0 -7.81852e-17)
(4.95645e-16 0 -5.48007e-19)
(9.59664e-16 0 9.61598e-18)
(9.55404e-16 0 1.95835e-17)
(9.4859e-16 0 2.92408e-17)
(9.39595e-16 0 3.85363e-17)
(9.28593e-16 0 4.74181e-17)
(9.15648e-16 0 5.5721e-17)
(9.00945e-16 0 6.34965e-17)
(8.84628e-16 0 7.06619e-17)
(8.66844e-16 0 7.72483e-17)
(8.47757e-16 0 8.32351e-17)
(8.27439e-16 0 8.86531e-17)
(8.06077e-16 0 9.35335e-17)
(7.83795e-16 0 9.79072e-17)
(7.60675e-16 0 1.01867e-16)
(7.3678e-16 0 1.05455e-16)
(7.12213e-16 0 1.08692e-16)
(6.87087e-16 0 1.11659e-16)
(6.61393e-16 0 1.14451e-16)
(6.35161e-16 0 1.17077e-16)
(6.08443e-16 0 1.19631e-16)
(5.8127e-16 0 1.22092e-16)
(5.53642e-16 0 1.24542e-16)
(5.2556e-16 0 1.27003e-16)
(4.9698e-16 0 1.29433e-16)
(4.67926e-16 0 1.31904e-16)
(4.38447e-16 0 1.34396e-16)
(4.08462e-16 0 1.36919e-16)
(3.78022e-16 0 1.39421e-16)
(3.47126e-16 0 1.41924e-16)
(3.15787e-16 0 1.44405e-16)
(2.84033e-16 0 1.46804e-16)
(2.51825e-16 0 1.49099e-16)
(2.19265e-16 0 1.51219e-16)
(1.86353e-16 0 1.53173e-16)
(1.53121e-16 0 1.549e-16)
(1.19641e-16 0 1.5641e-16)
(8.59234e-17 0 1.5764e-16)
(5.20814e-17 0 1.58571e-16)
(1.75776e-17 0 1.5915e-16)
(2.92838e-08 0 -2.83886e-07)
(8.51543e-08 0 -2.80724e-07)
(1.40613e-07 0 -2.74577e-07)
(1.94717e-07 0 -2.65528e-07)
(2.46394e-07 0 -2.53742e-07)
(2.95171e-07 0 -2.39584e-07)
(3.40578e-07 0 -2.23382e-07)
(3.82191e-07 0 -2.055e-07)
(4.19716e-07 0 -1.86396e-07)
(4.52987e-07 0 -1.66466e-07)
(4.81798e-07 0 -1.46259e-07)
(5.06194e-07 0 -1.26262e-07)
(5.26449e-07 0 -1.06079e-07)
(5.41837e-07 0 -8.76904e-08)
(5.5344e-07 0 -6.80316e-08)
(5.62282e-07 0 -5.01739e-08)
(5.67836e-07 0 -3.98541e-08)
(5.70376e-07 0 -2.67532e-08)
(5.70144e-07 0 -1.40279e-08)
(5.6898e-07 0 -3.20012e-09)
(5.66394e-07 0 -2.62661e-09)
(5.62917e-07 0 5.09317e-09)
(5.58474e-07 0 8.05242e-09)
(5.54244e-07 0 9.10862e-09)
(5.50247e-07 0 7.96248e-09)
(5.46688e-07 0 6.83524e-09)
(5.43922e-07 0 4.00314e-09)
(5.42176e-07 0 3.29769e-10)
(5.41535e-07 0 -3.94724e-09)
(5.42164e-07 0 -8.61934e-09)
(5.44053e-07 0 -1.34403e-08)
(5.47142e-07 0 -1.82e-08)
(5.51429e-07 0 -2.26989e-08)
(5.56802e-07 0 -2.67547e-08)
(5.6312e-07 0 -3.00743e-08)
(5.70217e-07 0 -3.28935e-08)
(5.77874e-07 0 -3.46554e-08)
(5.85915e-07 0 -3.55976e-08)
(5.94138e-07 0 -3.55137e-08)
(6.0226e-07 0 -3.43853e-08)
(6.10057e-07 0 -3.22817e-08)
(6.17369e-07 0 -2.91552e-08)
(6.23949e-07 0 -2.50365e-08)
(6.29551e-07 0 -2.01153e-08)
(6.34054e-07 0 -1.42224e-08)
(6.37292e-07 0 -7.70876e-09)
(6.39169e-07 0 6.70839e-11)
(6.39287e-07 0 7.38571e-09)
(6.37765e-07 0 1.53331e-08)
(6.34661e-07 0 2.39288e-08)
(6.29796e-07 0 3.23853e-08)
(6.23171e-07 0 4.12978e-08)
(6.14781e-07 0 4.99027e-08)
(6.0467e-07 0 5.82655e-08)
(5.92861e-07 0 6.66816e-08)
(5.79522e-07 0 7.43061e-08)
(5.64671e-07 0 8.20951e-08)
(5.48379e-07 0 8.92375e-08)
(5.30748e-07 0 9.61554e-08)
(5.11936e-07 0 1.02212e-07)
(4.91985e-07 0 1.08002e-07)
(4.71048e-07 0 1.13211e-07)
(4.49196e-07 0 1.18141e-07)
(4.26517e-07 0 1.22489e-07)
(4.03072e-07 0 1.26415e-07)
(3.78953e-07 0 1.30004e-07)
(3.54251e-07 0 1.33098e-07)
(3.29041e-07 0 1.35725e-07)
(3.03363e-07 0 1.37963e-07)
(2.77287e-07 0 1.39797e-07)
(2.50903e-07 0 1.41197e-07)
(2.24293e-07 0 1.42174e-07)
(1.97584e-07 0 1.42713e-07)
(1.70948e-07 0 1.42965e-07)
(1.44332e-07 0 1.433e-07)
(1.19562e-07 0 1.43048e-07)
(9.2411e-08 0 1.48297e-07)
(4.61103e-08 0 2.26008e-07)
(1.56174e-12 0 2.07296e-07)
(9.62977e-16 0 -9.22078e-17)
(5.01703e-16 0 -5.48007e-19)
(9.70903e-16 0 1.20768e-17)
(9.66364e-16 0 2.44639e-17)
(9.59178e-16 0 3.64683e-17)
(9.49738e-16 0 4.80282e-17)
(9.38178e-16 0 5.89573e-17)
(9.24602e-16 0 6.92247e-17)
(9.09247e-16 0 7.87786e-17)
(8.92269e-16 0 8.75778e-17)
(8.73823e-16 0 9.56324e-17)
(8.54054e-16 0 1.02912e-16)
(8.33136e-16 0 1.09467e-16)
(8.11195e-16 0 1.1535e-16)
(7.88396e-16 0 1.20593e-16)
(7.64842e-16 0 1.25318e-16)
(7.40534e-16 0 1.29599e-16)
(7.15635e-16 0 1.33497e-16)
(6.90251e-16 0 1.37064e-16)
(6.64371e-16 0 1.40404e-16)
(6.38015e-16 0 1.43547e-16)
(6.11235e-16 0 1.46638e-16)
(5.84021e-16 0 1.49627e-16)
(5.56372e-16 0 1.52625e-16)
(5.28289e-16 0 1.55644e-16)
(4.99731e-16 0 1.58684e-16)
(4.70718e-16 0 1.61807e-16)
(4.4126e-16 0 1.64971e-16)
(4.11305e-16 0 1.68145e-16)
(3.80886e-16 0 1.71361e-16)
(3.4997e-16 0 1.74556e-16)
(3.18558e-16 0 1.7773e-16)
(2.8668e-16 0 1.80811e-16)
(2.54317e-16 0 1.83727e-16)
(2.21571e-16 0 1.86498e-16)
(1.88432e-16 0 1.89e-16)
(1.54941e-16 0 1.91203e-16)
(1.21192e-16 0 1.93116e-16)
(8.71642e-17 0 1.94667e-16)
(5.29602e-17 0 1.95856e-16)
(1.79188e-17 0 1.9659e-16)
(3.11045e-08 0 -3.4259e-07)
(9.03398e-08 0 -3.38729e-07)
(1.49109e-07 0 -3.31162e-07)
(2.06332e-07 0 -3.19959e-07)
(2.60812e-07 0 -3.05395e-07)
(3.12059e-07 0 -2.87877e-07)
(3.59516e-07 0 -2.67868e-07)
(4.02777e-07 0 -2.45754e-07)
(4.41498e-07 0 -2.22176e-07)
(4.75381e-07 0 -1.97688e-07)
(5.04201e-07 0 -1.72971e-07)
(5.28652e-07 0 -1.47613e-07)
(5.47815e-07 0 -1.24007e-07)
(5.61631e-07 0 -1.00404e-07)
(5.72042e-07 0 -7.547e-08)
(5.79229e-07 0 -5.77483e-08)
(5.83094e-07 0 -4.28835e-08)
(5.82773e-07 0 -2.65152e-08)
(5.80524e-07 0 -1.10023e-08)
(5.77594e-07 0 -3.88691e-10)
(5.72864e-07 0 1.37262e-09)
(5.6691e-07 0 1.06512e-08)
(5.60531e-07 0 1.35398e-08)
(5.54592e-07 0 1.37728e-08)
(5.49004e-07 0 1.28614e-08)
(5.44038e-07 0 1.05914e-08)
(5.40192e-07 0 6.78471e-09)
(5.37639e-07 0 1.88533e-09)
(5.36434e-07 0 -3.6291e-09)
(5.36777e-07 0 -9.90666e-09)
(5.38628e-07 0 -1.59467e-08)
(5.41914e-07 0 -2.20596e-08)
(5.46617e-07 0 -2.78102e-08)
(5.52589e-07 0 -3.29831e-08)
(5.59655e-07 0 -3.72216e-08)
(5.67646e-07 0 -4.08111e-08)
(5.76314e-07 0 -4.30542e-08)
(5.85413e-07 0 -4.43314e-08)
(5.94738e-07 0 -4.43119e-08)
(6.04035e-07 0 -4.29714e-08)
(6.12975e-07 0 -4.04495e-08)
(6.21356e-07 0 -3.66708e-08)
(6.28975e-07 0 -3.16674e-08)
(6.35526e-07 0 -2.56351e-08)
(6.40881e-07 0 -1.85564e-08)
(6.44821e-07 0 -1.04671e-08)
(6.4742e-07 0 -1.71858e-09)
(6.48129e-07 0 8.31258e-09)
(6.46981e-07 0 1.741e-08)
(6.44063e-07 0 2.77745e-08)
(6.39316e-07 0 3.82034e-08)
(6.32717e-07 0 4.87756e-08)
(6.24217e-07 0 5.93608e-08)
(6.13868e-07 0 6.93542e-08)
(6.01742e-07 0 7.94945e-08)
(5.88021e-07 0 8.86349e-08)
(5.72746e-07 0 9.79254e-08)
(5.55985e-07 0 1.06481e-07)
(5.37857e-07 0 1.14679e-07)
(5.18515e-07 0 1.21916e-07)
(4.98042e-07 0 1.28722e-07)
(4.766e-07 0 1.34929e-07)
(4.54219e-07 0 1.40671e-07)
(4.31037e-07 0 1.45816e-07)
(4.07143e-07 0 1.5043e-07)
(3.8254e-07 0 1.54752e-07)
(3.574e-07 0 1.58255e-07)
(3.31736e-07 0 1.61387e-07)
(3.05611e-07 0 1.64093e-07)
(2.79066e-07 0 1.66296e-07)
(2.52193e-07 0 1.67975e-07)
(2.25095e-07 0 1.69143e-07)
(1.97946e-07 0 1.69691e-07)
(1.71099e-07 0 1.69639e-07)
(1.44384e-07 0 1.69129e-07)
(1.21129e-07 0 1.66504e-07)
(8.15897e-08 0 1.89082e-07)
(4.1958e-08 0 2.82965e-07)
(1.2537e-12 0 2.31074e-07)
(9.78132e-16 0 -1.10786e-16)
(5.09213e-16 0 -5.37667e-19)
(9.84666e-16 0 1.47238e-17)
(9.79796e-16 0 2.96958e-17)
(9.72144e-16 0 4.41714e-17)
(9.62094e-16 0 5.80784e-17)
(9.4981e-16 0 7.11892e-17)
(9.35469e-16 0 8.34419e-17)
(9.19287e-16 0 9.48259e-17)
(9.01462e-16 0 1.05259e-16)
(8.82168e-16 0 1.1474e-16)
(8.61602e-16 0 1.23291e-16)
(8.39878e-16 0 1.30963e-16)
(8.17213e-16 0 1.37798e-16)
(7.93783e-16 0 1.4394e-16)
(7.69671e-16 0 1.49368e-16)
(7.44949e-16 0 1.54249e-16)
(7.19678e-16 0 1.58715e-16)
(6.93984e-16 0 1.62831e-16)
(6.67866e-16 0 1.66656e-16)
(6.41396e-16 0 1.70317e-16)
(6.14533e-16 0 1.73894e-16)
(5.87267e-16 0 1.7741e-16)
(5.5966e-16 0 1.80977e-16)
(5.31619e-16 0 1.84596e-16)
(5.03143e-16 0 1.88297e-16)
(4.74212e-16 0 1.92102e-16)
(4.44785e-16 0 1.9598e-16)
(4.14862e-16 0 1.99899e-16)
(3.84443e-16 0 2.03879e-16)
(3.53506e-16 0 2.0785e-16)
(3.22032e-16 0 2.11769e-16)
(2.9002e-16 0 2.15584e-16)
(2.57512e-16 0 2.19244e-16)
(2.24538e-16 0 2.22667e-16)
(1.91079e-16 0 2.25779e-16)
(1.57237e-16 0 2.28519e-16)
(1.23084e-16 0 2.30887e-16)
(8.86531e-17 0 2.32758e-16)
(5.40149e-17 0 2.34154e-16)
(1.83221e-17 0 2.35002e-16)
(3.33463e-08 0 -4.05123e-07)
(9.66942e-08 0 -4.00457e-07)
(1.59483e-07 0 -3.91266e-07)
(2.20524e-07 0 -3.77623e-07)
(2.78457e-07 0 -3.59946e-07)
(3.32749e-07 0 -3.38646e-07)
(3.82712e-07 0 -3.14353e-07)
(4.27998e-07 0 -2.87502e-07)
(4.68108e-07 0 -2.58932e-07)
(5.02427e-07 0 -2.29561e-07)
(5.31806e-07 0 -1.98851e-07)
(5.55949e-07 0 -1.68706e-07)
(5.73243e-07 0 -1.40772e-07)
(5.85488e-07 0 -1.10589e-07)
(5.9491e-07 0 -8.12705e-08)
(5.99609e-07 0 -6.40136e-08)
(6.00742e-07 0 -4.27037e-08)
(5.97401e-07 0 -2.36787e-08)
(5.9349e-07 0 -3.46647e-09)
(5.87316e-07 0 -1.40906e-09)
(5.80102e-07 0 1.21261e-08)
(5.71077e-07 0 1.71988e-08)
(5.62686e-07 0 2.15429e-08)
(5.54463e-07 0 1.99877e-08)
(5.46932e-07 0 1.9507e-08)
(5.40358e-07 0 1.56953e-08)
(5.3525e-07 0 1.05609e-08)
(5.31704e-07 0 4.22076e-09)
(5.2984e-07 0 -2.91226e-09)
(5.2983e-07 0 -1.09657e-08)
(5.31696e-07 0 -1.85979e-08)
(5.35276e-07 0 -2.629e-08)
(5.40525e-07 0 -3.35078e-08)
(5.47271e-07 0 -3.99908e-08)
(5.55297e-07 0 -4.53078e-08)
(5.64386e-07 0 -4.97745e-08)
(5.74312e-07 0 -5.26533e-08)
(5.84755e-07 0 -5.43032e-08)
(5.95454e-07 0 -5.43385e-08)
(6.06114e-07 0 -5.28523e-08)
(6.16436e-07 0 -4.98302e-08)
(6.2613e-07 0 -4.5351e-08)
(6.34974e-07 0 -3.94245e-08)
(6.42724e-07 0 -3.2153e-08)
(6.4911e-07 0 -2.37586e-08)
(6.53969e-07 0 -1.40028e-08)
(6.57189e-07 0 -3.97997e-09)
(6.58753e-07 0 8.45229e-09)
(6.58048e-07 0 1.93466e-08)
(6.55298e-07 0 3.13689e-08)
(6.50673e-07 0 4.39909e-08)
(6.44088e-07 0 5.61817e-08)
(6.35444e-07 0 6.90892e-08)
(6.24831e-07 0 8.07902e-08)
(6.12306e-07 0 9.26976e-08)
(5.98103e-07 0 1.03452e-07)
(5.82241e-07 0 1.14239e-07)
(5.64908e-07 0 1.2431e-07)
(5.4619e-07 0 1.33755e-07)
(5.26222e-07 0 1.42274e-07)
(5.05112e-07 0 1.49935e-07)
(4.83039e-07 0 1.57153e-07)
(4.60094e-07 0 1.63797e-07)
(4.3634e-07 0 1.69655e-07)
(4.11831e-07 0 1.75048e-07)
(3.86711e-07 0 1.79841e-07)
(3.61061e-07 0 1.83918e-07)
(3.34881e-07 0 1.87569e-07)
(3.08233e-07 0 1.90714e-07)
(2.81153e-07 0 1.93313e-07)
(2.53706e-07 0 1.95295e-07)
(2.25963e-07 0 1.96682e-07)
(1.98042e-07 0 1.97311e-07)
(1.70255e-07 0 1.96952e-07)
(1.43538e-07 0 1.95134e-07)
(1.18081e-07 0 1.90761e-07)
(7.58692e-08 0 2.34426e-07)
(3.77904e-08 0 3.07774e-07)
(1.06601e-12 0 2.52685e-07)
(9.95389e-16 0 -1.23449e-16)
(5.18258e-16 0 -4.2393e-19)
(1.00114e-15 0 1.76706e-17)
(9.95822e-16 0 3.54137e-17)
(9.87561e-16 0 5.25467e-17)
(9.76745e-16 0 6.89042e-17)
(9.63562e-16 0 8.42897e-17)
(9.48249e-16 0 9.86103e-17)
(9.31044e-16 0 1.11835e-16)
(9.12174e-16 0 1.23922e-16)
(8.91866e-16 0 1.3481e-16)
(8.70297e-16 0 1.44602e-16)
(8.47643e-16 0 1.53308e-16)
(8.24151e-16 0 1.61052e-16)
(7.99956e-16 0 1.67938e-16)
(7.75151e-16 0 1.74028e-16)
(7.49881e-16 0 1.79488e-16)
(7.24217e-16 0 1.8443e-16)
(6.98203e-16 0 1.8898e-16)
(6.71867e-16 0 1.9325e-16)
(6.45253e-16 0 1.97376e-16)
(6.18328e-16 0 2.01408e-16)
(5.91103e-16 0 2.05492e-16)
(5.63548e-16 0 2.09618e-16)
(5.35599e-16 0 2.13837e-16)
(5.07238e-16 0 2.18231e-16)
(4.7839e-16 0 2.2276e-16)
(4.49056e-16 0 2.27433e-16)
(4.19205e-16 0 2.32169e-16)
(3.88827e-16 0 2.37029e-16)
(3.57869e-16 0 2.41868e-16)
(3.26292e-16 0 2.46645e-16)
(2.94145e-16 0 2.51277e-16)
(2.6141e-16 0 2.55733e-16)
(2.28116e-16 0 2.59859e-16)
(1.94294e-16 0 2.63612e-16)
(1.60039e-16 0 2.66921e-16)
(1.25411e-16 0 2.69723e-16)
(9.04315e-17 0 2.71946e-16)
(5.5204e-17 0 2.73528e-16)
(1.87667e-17 0 2.74459e-16)
(3.60413e-08 0 -4.72323e-07)
(1.04323e-07 0 -4.66724e-07)
(1.71959e-07 0 -4.55686e-07)
(2.37646e-07 0 -4.39286e-07)
(2.99746e-07 0 -4.18064e-07)
(3.57671e-07 0 -3.92491e-07)
(4.10779e-07 0 -3.63217e-07)
(4.58403e-07 0 -3.31121e-07)
(4.99772e-07 0 -2.97157e-07)
(5.3525e-07 0 -2.612e-07)
(5.65225e-07 0 -2.24511e-07)
(5.87991e-07 0 -1.89884e-07)
(6.03096e-07 0 -1.5538e-07)
(6.14942e-07 0 -1.16996e-07)
(6.21546e-07 0 -8.94078e-08)
(6.23752e-07 0 -6.46374e-08)
(6.20597e-07 0 -4.08757e-08)
(6.15222e-07 0 -1.65132e-08)
(6.08415e-07 0 3.76624e-09)
(5.98517e-07 0 6.49876e-09)
(5.87621e-07 0 2.29943e-08)
(5.75667e-07 0 2.73338e-08)
(5.6452e-07 0 3.11129e-08)
(5.53561e-07 0 2.95565e-08)
(5.43703e-07 0 2.75914e-08)
(5.35288e-07 0 2.24796e-08)
(5.28667e-07 0 1.5581e-08)
(5.23997e-07 0 7.46678e-09)
(5.21449e-07 0 -1.74082e-09)
(5.21107e-07 0 -1.17831e-08)
(5.2303e-07 0 -2.1549e-08)
(5.26999e-07 0 -3.09714e-08)
(5.32936e-07 0 -3.99491e-08)
(5.40645e-07 0 -4.79842e-08)
(5.49866e-07 0 -5.4592e-08)
(5.60321e-07 0 -5.99802e-08)
(5.71796e-07 0 -6.37753e-08)
(5.83862e-07 0 -6.57144e-08)
(5.96182e-07 0 -6.59144e-08)
(6.08501e-07 0 -6.42644e-08)
(6.20506e-07 0 -6.07068e-08)
(6.31791e-07 0 -5.54402e-08)
(6.42097e-07 0 -4.84652e-08)
(6.51207e-07 0 -3.99517e-08)
(6.58862e-07 0 -3.00031e-08)
(6.64846e-07 0 -1.85548e-08)
(6.68875e-07 0 -6.4791e-09)
(6.71241e-07 0 6.78585e-09)
(6.71119e-07 0 2.17536e-08)
(6.68708e-07 0 3.47346e-08)
(6.64126e-07 0 4.9642e-08)
(6.57457e-07 0 6.38514e-08)
(6.48581e-07 0 7.89566e-08)
(6.37612e-07 0 9.26862e-08)
(6.24618e-07 0 1.06225e-07)
(6.0978e-07 0 1.19029e-07)
(5.93253e-07 0 1.31133e-07)
(5.75199e-07 0 1.42889e-07)
(5.55813e-07 0 1.5328e-07)
(5.35024e-07 0 1.63417e-07)
(5.13192e-07 0 1.71974e-07)
(4.90383e-07 0 1.79972e-07)
(4.66721e-07 0 1.87537e-07)
(4.42312e-07 0 1.94185e-07)
(4.17187e-07 0 2.00141e-07)
(3.91455e-07 0 2.05534e-07)
(3.65251e-07 0 2.10155e-07)
(3.38498e-07 0 2.14287e-07)
(3.11264e-07 0 2.17878e-07)
(2.836e-07 0 2.20883e-07)
(2.55533e-07 0 2.2324e-07)
(2.27041e-07 0 2.2495e-07)
(1.98122e-07 0 2.25869e-07)
(1.68732e-07 0 2.25731e-07)
(1.39132e-07 0 2.23929e-07)
(1.05749e-07 0 2.18851e-07)
(7.37752e-08 0 2.88103e-07)
(3.19292e-08 0 3.24198e-07)
(1.24205e-12 0 2.76397e-07)
(1.01461e-15 0 -1.38251e-16)
(5.28986e-16 0 -2.17135e-19)