/*--------------------------------*- C++ -*----------------------------------*\
  =========                 |
  \\      /  F ield         | OpenFOAM: The Open Source CFD Toolbox
   \\    /   O peration     | Website:  https://openfoam.org
    \\  /    A nd           | Version:  6
     \\/     M anipulation  |
\*---------------------------------------------------------------------------*/
FoamFile
{
    version     2.0;
    format      ascii;
    class       surfaceScalarField;
    location    "9500";
    object      phi;
}
// * * * * * * * * * * * * * * * * * * * * * * * * * * * * * * * * * * * * * //

dimensions      [0 3 -1 0 0 0 0];

internalField   nonuniform List<scalar> 
9440
(
4.04436e-13
-4.04436e-13
7.96183e-13
-3.91719e-13
1.17609e-12
-3.79886e-13
1.5309e-12
-3.54794e-13
1.85459e-12
-3.23664e-13
2.14427e-12
-2.89663e-13
2.39831e-12
-2.54015e-13
2.61634e-12
-2.18013e-13
2.79925e-12
-1.82886e-13
2.9487e-12
-1.49436e-13
3.0668e-12
-1.18078e-13
3.15582e-12
-8.90069e-14
3.21864e-12
-6.27938e-14
3.25743e-12
-3.87725e-14
3.27513e-12
-1.7679e-14
3.27185e-12
3.29386e-15
3.24969e-12
2.21733e-14
3.21502e-12
3.46909e-14
3.16787e-12
4.71609e-14
3.11054e-12
5.7348e-14
3.04132e-12
6.92318e-14
2.96606e-12
7.52694e-14
2.88572e-12
8.03494e-14
2.80093e-12
8.48064e-14
2.71375e-12
8.71887e-14
2.6244e-12
8.93495e-14
2.5342e-12
9.02071e-14
2.44471e-12
8.95039e-14
2.35624e-12
8.84733e-14
2.26921e-12
8.70302e-14
2.18422e-12
8.49997e-14
2.10169e-12
8.25315e-14
2.02177e-12
7.99151e-14
1.94478e-12
7.6994e-14
1.87083e-12
7.39494e-14
1.79967e-12
7.11674e-14
1.73146e-12
6.82099e-14
1.66588e-12
6.55786e-14
1.60292e-12
6.29524e-14
1.54245e-12
6.0468e-14
1.48428e-12
5.81752e-14
1.42816e-12
5.61127e-14
1.37399e-12
5.41617e-14
1.32171e-12
5.22741e-14
1.27093e-12
5.07754e-14
1.2217e-12
4.92214e-14
1.17349e-12
4.82082e-14
1.12669e-12
4.67877e-14
1.08099e-12
4.56905e-14
1.0364e-12
4.45768e-14
9.92881e-13
4.35099e-14
9.50164e-13
4.27046e-14
9.08249e-13
4.19025e-14
8.67201e-13
4.10343e-14
8.26892e-13
4.02945e-14
7.87434e-13
3.94439e-14
7.48676e-13
3.8742e-14
7.10744e-13
3.79143e-14
6.73353e-13
3.73716e-14
6.36702e-13
3.66308e-14
6.00776e-13
3.59055e-14
5.65621e-13
3.51346e-14
5.31119e-13
3.44816e-14
4.97291e-13
3.38076e-14
4.64114e-13
3.31554e-14
4.31664e-13
3.2428e-14
3.99858e-13
3.17826e-14
3.68691e-13
3.11427e-14
3.38131e-13
3.0537e-14
3.08394e-13
2.97117e-14
2.79487e-13
2.88826e-14
2.51548e-13
2.7915e-14
2.24982e-13
2.65407e-14
2.00772e-13
2.41854e-14
1.82258e-13
1.84872e-14
1.80238e-13
1.99326e-15
2.29947e-13
-4.97346e-14
1.24929e-13
1.04994e-13
1.55778e-17
1.24887e-13
8.60287e-22
-5.29452e-23
8.63887e-22
-3.9239e-32
8.61043e-22
2.74004e-24
8.54167e-22
5.22158e-24
8.45068e-22
7.59972e-24
8.34108e-22
1.00813e-23
8.21029e-22
1.24077e-23
8.06088e-22
1.46308e-23
7.89234e-22
1.6647e-23
7.70726e-22
1.84565e-23
7.50511e-22
2.01108e-23
7.2885e-22
2.16101e-23
7.05844e-22
2.28509e-23
6.81855e-22
2.40399e-23
6.56833e-22
2.49188e-23
6.31087e-22
2.55909e-23
6.04669e-22
2.61079e-23
5.77734e-22
2.63664e-23
5.50489e-22
2.65215e-23
5.23037e-22
2.66249e-23
4.9543e-22
2.64698e-23
4.67771e-22
2.63147e-23
4.40267e-22
2.61596e-23
4.12711e-22
2.57977e-23
3.85621e-22
2.54358e-23
3.58635e-22
2.49188e-23
3.32113e-22
2.44535e-23
3.05902e-22
2.38848e-23
2.80052e-22
2.33162e-23
2.54565e-22
2.27475e-23
2.29491e-22
2.21788e-23
2.04882e-22
2.17652e-23
1.80584e-22
2.12999e-23
1.56906e-22
2.08346e-23
1.33331e-22
2.03176e-23
1.1017e-22
2.00074e-23
8.73193e-23
1.95938e-23
6.4882e-23
1.93353e-23
4.26515e-23
1.90252e-23
2.08346e-23
1.85599e-23
1.75776e-23
4.14698e-13
-8.19107e-13
8.18286e-13
-7.95264e-13
1.2024e-12
-7.63962e-13
1.56126e-12
-7.13617e-13
1.88826e-12
-6.50624e-13
2.17957e-12
-5.80935e-13
2.43375e-12
-5.0816e-13
2.6509e-12
-4.35125e-13
2.83218e-12
-3.64131e-13
2.97943e-12
-2.96658e-13
3.09512e-12
-2.33735e-13
3.1818e-12
-1.75653e-13
3.24224e-12
-1.23203e-13
3.27848e-12
-7.49788e-14
3.29459e-12
-3.37563e-14
3.28746e-12
1.04529e-14
3.26423e-12
4.54336e-14
3.22784e-12
7.11052e-14
3.17907e-12
9.5952e-14
3.11921e-12
1.17229e-13
3.04869e-12
1.39767e-13
2.97183e-12
1.52149e-13
2.89006e-12
1.62141e-13
2.80381e-12
1.71082e-13
2.71559e-12
1.75414e-13
2.62509e-12
1.79862e-13
2.534e-12
1.81313e-13
2.44379e-12
1.79716e-13
2.35467e-12
1.77601e-13
2.26716e-12
1.74548e-13
2.18185e-12
1.70319e-13
2.09909e-12
1.65296e-13
2.01902e-12
1.59981e-13
1.94195e-12
1.54069e-13
1.86782e-12
1.48083e-13
1.7968e-12
1.42183e-13
1.72863e-12
1.36376e-13
1.66329e-12
1.30916e-13
1.60049e-12
1.25753e-13
1.54026e-12
1.20685e-13
1.48208e-12
1.16357e-13
1.42623e-12
1.11957e-13
1.37229e-12
1.08094e-13
1.32006e-12
1.04487e-13
1.26942e-12
1.01408e-13
1.22036e-12
9.82662e-14
1.17237e-12
9.61895e-14
1.12557e-12
9.35669e-14
1.08009e-12
9.11489e-14
1.03558e-12
8.90717e-14
9.92121e-13
8.69425e-14
9.49449e-13
8.53535e-14
9.07551e-13
8.37753e-14
8.66593e-13
8.19684e-14
8.26279e-13
8.05783e-14
7.86792e-13
7.89016e-14
7.48077e-13
7.74259e-14
7.1009e-13
7.58693e-14
6.72733e-13
7.46965e-14
6.36091e-13
7.32388e-14
6.00211e-13
7.17496e-14
5.65099e-13
7.02113e-14
5.3063e-13
6.89104e-14
4.96794e-13
6.76049e-14
4.63661e-13
6.6251e-14
4.31223e-13
6.48269e-14
3.99319e-13
6.36468e-14
3.68102e-13
6.2317e-14
3.37619e-13
6.09772e-14
3.07816e-13
5.94716e-14
2.78696e-13
5.79584e-14
2.50422e-13
5.61434e-14
2.23042e-13
5.38735e-14
1.96608e-13
5.05743e-14
1.70243e-13
4.48081e-14
1.36705e-13
3.54861e-14
7.0116e-14
1.68086e-14
3.89402e-14
1.36123e-13
1.1977e-17
1.6378e-13
8.80139e-22
-3.04412e-22
8.66627e-22
-8.27181e-25
8.63525e-22
4.54949e-24
8.56546e-22
9.82277e-24
8.4755e-22
1.50443e-23
8.36435e-22
2.00074e-23
8.23252e-22
2.48154e-23
8.08156e-22
2.93132e-23
7.91043e-22
3.33457e-23
7.7238e-22
3.71714e-23
7.51959e-22
4.04802e-23
7.30142e-22
4.33753e-23
7.07033e-22
4.58051e-23
6.82683e-22
4.78214e-23
6.57505e-22
4.93723e-23
6.31552e-22
5.06648e-23
6.04928e-22
5.14403e-23
5.77889e-22
5.20607e-23
5.5054e-22
5.22675e-23
5.22933e-22
5.22158e-23
4.95274e-22
5.2009e-23
4.67616e-22
5.1492e-23
4.39905e-22
5.07682e-23
4.12401e-22
4.99927e-23
3.85104e-22
4.90105e-23
3.58169e-22
4.80282e-23
3.31596e-22
4.68908e-23
3.05333e-22
4.58051e-23
2.79484e-22
4.46161e-23
2.54048e-22
4.33753e-23
2.29026e-22
4.22379e-23
2.04417e-22
4.11522e-23
1.8017e-22
4.00666e-23
1.56337e-22
3.90843e-23
1.33021e-22
3.82571e-23
1.09757e-22
3.74299e-23
8.70608e-23
3.68095e-23
6.45718e-23
3.61375e-23
4.22379e-23
3.56722e-23
1.98523e-23
3.53103e-23
3.51552e-23
4.32431e-13
-1.25152e-12
8.53746e-13
-1.21654e-12
1.25379e-12
-1.16398e-12
1.62421e-12
-1.084e-12
1.95843e-12
-9.84818e-13
2.25324e-12
-8.75714e-13
2.50787e-12
-7.62756e-13
2.72311e-12
-6.50337e-13
2.90083e-12
-5.41814e-13
3.04372e-12
-4.39524e-13
3.15439e-12
-3.44374e-13
3.23609e-12
-2.57323e-13
3.29145e-12
-1.78533e-13
3.32297e-12
-1.06476e-13
3.33358e-12
-4.43407e-14
3.32078e-12
2.32798e-14
3.29441e-12
7.18332e-14
3.25392e-12
1.11618e-13
3.20173e-12
1.48161e-13
3.13653e-12
1.82445e-13
3.06318e-12
2.13142e-13
2.98326e-12
2.32091e-13
2.89836e-12
2.4705e-13
2.80931e-12
2.6015e-13
2.71897e-12
2.65769e-13
2.626e-12
2.72836e-13
2.53329e-12
2.74039e-13
2.44158e-12
2.7143e-13
2.35121e-12
2.67982e-13
2.26279e-12
2.62971e-13
2.17679e-12
2.56328e-13
2.09351e-12
2.48575e-13
2.01314e-12
2.40362e-13
1.93606e-12
2.31151e-13
1.86208e-12
2.22058e-13
1.79112e-12
2.13151e-13
1.7232e-12
2.04287e-13
1.65795e-12
1.96162e-13
1.59556e-12
1.88143e-13
1.53572e-12
1.80523e-13
1.47794e-12
1.74136e-13
1.42235e-12
1.67532e-13
1.36877e-12
1.61674e-13
1.31683e-12
1.56417e-13
1.26651e-12
1.51714e-13
1.21778e-12
1.46989e-13
1.16998e-12
1.4397e-13
1.1234e-12
1.40135e-13
1.07801e-12
1.36526e-13
1.03359e-12
1.33476e-13
9.90249e-13
1.30259e-13
9.47735e-13
1.27849e-13
9.05861e-13
1.25629e-13
8.64879e-13
1.22928e-13
8.2457e-13
1.20863e-13
7.85174e-13
1.18274e-13
7.4648e-13
1.16094e-13
7.08562e-13
1.1376e-13
6.71239e-13
1.11989e-13
6.34616e-13
1.09836e-13
5.98774e-13
1.07561e-13
5.63553e-13
1.05401e-13
5.29051e-13
1.03381e-13
4.95288e-13
1.01337e-13
4.62155e-13
9.93494e-14
4.2963e-13
9.73151e-14
3.97826e-13
9.54145e-14
3.66599e-13
9.35082e-14
3.36021e-13
9.15207e-14
3.06133e-13
8.93245e-14
2.76847e-13
8.72054e-14
2.48123e-13
8.48295e-14
2.19634e-13
8.23238e-14
1.90948e-13
7.92235e-14
1.59682e-13
7.60331e-14
1.2116e-13
7.39717e-14
6.00188e-14
7.79116e-14
3.45391e-14
1.61565e-13
1.13192e-17
1.98276e-13
8.73522e-22
-5.16178e-22
8.72055e-22
-1.39587e-24
8.68798e-22
6.82424e-24
8.61715e-22
1.48376e-23
8.52565e-22
2.28509e-23
8.41243e-22
3.04506e-23
8.27698e-22
3.76367e-23
8.1224e-22
4.4461e-23
7.94817e-22
5.06648e-23
7.7574e-22
5.61966e-23
7.54854e-22
6.1108e-23
7.3252e-22
6.53473e-23
7.08997e-22
6.90179e-23
6.84234e-22
7.20164e-23
6.58798e-22
7.44463e-23
6.3238e-22
7.6204e-23
6.05548e-22
7.74448e-23
5.78148e-22
7.82203e-23
5.50489e-22
7.84788e-23
5.22726e-22
7.84271e-23
4.94757e-22
7.80135e-23
4.66944e-22
7.73414e-23
4.39078e-22
7.61523e-23
4.11419e-22
7.48599e-23
3.84019e-22
7.3464e-23
3.57032e-22
7.18096e-23
3.30459e-22
7.0207e-23
3.04196e-22
6.83975e-23
2.78243e-22
6.6588e-23
2.52859e-22
6.47786e-23
2.2794e-22
6.29691e-23
2.03331e-22
6.13148e-23
1.79188e-22
5.96604e-23
1.5551e-22
5.82128e-23
1.32194e-22
5.68687e-23
1.09136e-22
5.56796e-23
8.64404e-23
5.46456e-23
6.41065e-23
5.39218e-23
4.18243e-23
5.33015e-23
1.96972e-23
5.28879e-23
5.27328e-23
4.64047e-13
-1.71554e-12
9.12137e-13
-1.66459e-12
1.3353e-12
-1.58711e-12
1.7229e-12
-1.47156e-12
2.06743e-12
-1.32933e-12
2.36635e-12
-1.1746e-12
2.62035e-12
-1.01673e-12
2.83162e-12
-8.61574e-13
3.00329e-12
-7.13454e-13
3.13881e-12
-5.75019e-13
3.24184e-12
-4.4737e-13
3.31603e-12
-3.31488e-13
3.36332e-12
-2.2579e-13
3.38823e-12
-1.31364e-13
3.38914e-12
-4.5222e-14
3.37121e-12
4.12348e-14
3.33921e-12
1.03855e-13
3.29179e-12
1.59051e-13
3.23523e-12
2.04744e-13
3.16196e-12
2.55732e-13
3.08466e-12
2.90464e-13
2.99981e-12
3.16955e-13
2.91053e-12
3.36356e-13
2.81753e-12
3.5316e-13
2.7235e-12
3.59811e-13
2.62728e-12
3.69069e-13
2.53197e-12
3.69356e-13
2.43799e-12
3.6542e-13
2.3458e-12
3.60179e-13
2.25591e-12
3.52861e-13
2.16904e-12
3.43211e-13
2.08499e-12
3.3262e-13
2.0042e-12
3.21155e-13
1.92704e-12
3.08319e-13
1.85305e-12
2.96043e-13
1.78241e-12
2.83794e-13
1.71479e-12
2.7191e-13
1.65005e-12
2.60893e-13
1.5881e-12
2.50096e-13
1.5286e-12
2.40015e-13
1.47152e-12
2.31213e-13
1.41652e-12
2.22528e-13
1.36348e-12
2.14702e-13
1.31206e-12
2.07834e-13
1.26205e-12
2.0171e-13
1.21384e-12
1.95189e-13
1.16655e-12
1.9125e-13
1.12013e-12
1.8654e-13
1.075e-12
1.81643e-13
1.03077e-12
1.77693e-13
9.87581e-13
1.73425e-13
9.45153e-13
1.70259e-13
9.03384e-13
1.67382e-13
8.62484e-13
1.63808e-13
8.22352e-13
1.60973e-13
7.82941e-13
1.57663e-13
7.44252e-13
1.54758e-13
7.06304e-13
1.51682e-13
6.69036e-13
1.49232e-13
6.32474e-13
1.46368e-13
5.96606e-13
1.43402e-13
5.61449e-13
1.40526e-13
5.27037e-13
1.37764e-13
4.93268e-13
1.35078e-13
4.60194e-13
1.32393e-13
4.2768e-13
1.29798e-13
3.9578e-13
1.27283e-13
3.64537e-13
1.24718e-13
3.3398e-13
1.22046e-13
3.0396e-13
1.19312e-13
2.7447e-13
1.16659e-13
2.45456e-13
1.13809e-13
2.16686e-13
1.11058e-13
1.87391e-13
1.08482e-13
1.56703e-13
1.06686e-13
1.24434e-13
1.06204e-13
9.20166e-14
1.10291e-13
3.9053e-14
2.14494e-13
1.00753e-17
2.3729e-13
8.86757e-22
-6.35299e-22
8.80327e-22
-1.75776e-24
8.76812e-22
9.20239e-24
8.69677e-22
2.01108e-23
8.60113e-22
3.08125e-23
8.48481e-22
4.12556e-23
8.34522e-22
5.10784e-23
8.18444e-22
6.01257e-23
8.00401e-22
6.83975e-23
7.806e-22
7.58421e-23
7.59197e-22
8.24596e-23
7.36191e-22
8.81464e-23
7.11996e-22
9.29027e-23
6.86715e-22
9.68318e-23
6.60555e-22
9.98304e-23
6.33672e-22
1.02209e-22
6.06272e-22
1.03863e-22
5.78354e-22
1.04793e-22
5.50437e-22
1.05259e-22
5.22313e-22
1.05e-22
4.94034e-22
1.04328e-22
4.65806e-22
1.03191e-22
4.37785e-22
1.01743e-22
4.10075e-22
9.99855e-23
3.82468e-22
9.80726e-23
3.55378e-22
9.5953e-23
3.28701e-22
9.35748e-23
3.02335e-22
9.11967e-23
2.76433e-22
8.87668e-23
2.51049e-22
8.63887e-23
2.26234e-22
8.40105e-23
2.01729e-22
8.17358e-23
1.77637e-22
7.96161e-23
1.54166e-22
7.76516e-23
1.31005e-22
7.58421e-23
1.08154e-22
7.42395e-23
8.56649e-23
7.28953e-23
6.34861e-23
7.18613e-23
4.14624e-23
7.11375e-23
1.95421e-23
7.06723e-23
7.05689e-23
5.09155e-13
-2.22468e-12
9.9672e-13
-2.15212e-12
1.45274e-12
-2.0431e-12
1.86396e-12
-1.88276e-12
2.22149e-12
-1.68682e-12
2.52396e-12
-1.47704e-12
2.77515e-12
-1.26789e-12
2.97944e-12
-1.06584e-12
3.1415e-12
-8.75482e-13
3.26632e-12
-6.99813e-13
3.35846e-12
-5.3948e-13
3.42208e-12
-3.95086e-13
3.45933e-12
-2.6301e-13
3.47276e-12
-1.44774e-13
3.46317e-12
-3.56056e-14
3.4386e-12
6.58251e-14
3.39848e-12
1.44004e-13
3.34282e-12
2.14727e-13
3.27727e-12
2.70322e-13
3.19649e-12
3.36526e-13
3.11277e-12
3.74202e-13
3.02132e-12
4.08424e-13
2.92582e-12
4.31876e-13
2.82798e-12
4.51008e-13
2.72862e-12
4.59186e-13
2.62822e-12
4.69487e-13
2.5295e-12
4.68089e-13
2.43255e-12
4.6238e-13
2.33783e-12
4.54903e-13
2.24634e-12
4.44358e-13
2.1581e-12
4.31456e-13
2.07322e-12
4.17503e-13
1.99205e-12
4.02339e-13
1.91462e-12
3.85744e-13
1.84076e-12
3.69908e-13
1.77061e-12
3.53938e-13
1.70343e-12
3.39093e-13
1.63937e-12
3.24955e-13
1.57821e-12
3.11247e-13
1.51952e-12
2.98703e-13
1.46312e-12
2.87608e-13
1.40891e-12
2.76737e-13
1.3565e-12
2.67105e-13
1.30569e-12
2.58633e-13
1.25633e-12
2.51066e-13
1.2085e-12
2.43008e-13
1.16211e-12
2.37626e-13
1.11594e-12
2.32703e-13
1.07098e-12
2.26581e-13
1.02702e-12
2.2164e-13
9.84038e-13
2.1639e-13
9.41806e-13
2.12473e-13
9.0027e-13
2.089e-13
8.59515e-13
2.04543e-13
8.19306e-13
2.01161e-13
7.8001e-13
1.96937e-13
7.41345e-13
1.93398e-13
7.03452e-13
1.89552e-13
6.6613e-13
1.86529e-13
6.29707e-13
1.82766e-13
5.93853e-13
1.7923e-13
5.58789e-13
1.75565e-13
5.24361e-13
1.72166e-13
4.9056e-13
1.68847e-13
4.57528e-13
1.65397e-13
4.24976e-13
1.62319e-13
3.93086e-13
1.59142e-13
3.61876e-13
1.55899e-13
3.31236e-13
1.52654e-13
3.01104e-13
1.49411e-13
2.71578e-13
1.46153e-13
2.42561e-13
1.42791e-13
2.14041e-13
1.39545e-13
1.85948e-13
1.36539e-13
1.57629e-13
1.34973e-13
1.30344e-13
1.33454e-13
1.02083e-13
1.38518e-13
4.23997e-14
2.74141e-13
9.05452e-18
2.79653e-13
8.93375e-22
-8.07357e-22
8.91235e-22
-2.17135e-24
8.8772e-22
1.1839e-23
8.80379e-22
2.5746e-23
8.70556e-22
3.94462e-23
8.58303e-22
5.26294e-23
8.43569e-22
6.50371e-23
8.26664e-22
7.65142e-23
8.07897e-22
8.70091e-23
7.87218e-22
9.63666e-23
7.64832e-22
1.04587e-22
7.40947e-22
1.11618e-22
7.15873e-22
1.17615e-22
6.89714e-22
1.22474e-22
6.62934e-22
1.263e-22
6.35275e-22
1.2904e-22
6.07254e-22
1.30953e-22
5.7882e-22
1.32039e-22
5.50179e-22
1.32297e-22
5.21641e-22
1.32039e-22
4.92896e-22
1.31056e-22
4.64307e-22
1.29609e-22
4.36028e-22
1.27696e-22
4.0811e-22
1.25576e-22
3.80348e-22
1.22991e-22
3.52999e-22
1.202e-22
3.26323e-22
1.17305e-22
2.99956e-22
1.14306e-22
2.74055e-22
1.11204e-22
2.48671e-22
1.08206e-22
2.23959e-22
1.0531e-22
1.99609e-22
1.02467e-22
1.75724e-22
9.9727e-23
1.52408e-22
9.72454e-23
1.29402e-22
9.49707e-23
1.0681e-22
9.30061e-23
8.46309e-23
9.14035e-23
6.27106e-23
9.01627e-23
4.09971e-23
8.92321e-23
1.94387e-23
8.87151e-23
8.86117e-23
5.72135e-13
-2.79679e-12
1.11638e-12
-2.69634e-12
1.61648e-12
-2.54316e-12
2.05748e-12
-2.32373e-12
2.4299e-12
-2.05921e-12
2.73308e-12
-1.78019e-12
2.97684e-12
-1.51163e-12
3.16941e-12
-1.25838e-12
3.31707e-12
-1.02311e-12
3.42676e-12
-8.09475e-13
3.50437e-12
-6.1707e-13
3.55418e-12
-4.44872e-13
3.57645e-12
-2.85251e-13
3.57791e-12
-1.46212e-13
3.55655e-12
-1.42246e-14
3.52218e-12
1.00217e-13
3.47129e-12
1.9492e-13
3.40769e-12
2.78341e-13
3.32732e-12
3.50707e-13
3.24041e-12
4.23461e-13
3.14701e-12
4.67621e-13
3.0473e-12
5.08151e-13
2.94393e-12
5.35266e-13
2.84013e-12
5.54817e-13
2.73367e-12
5.65667e-13
2.62827e-12
5.74897e-13
2.5252e-12
5.71168e-13
2.42469e-12
5.62903e-13
2.32703e-12
5.52564e-13
2.23337e-12
5.38027e-13
2.14363e-12
5.21198e-13
2.05783e-12
5.03313e-13
1.97596e-12
4.84215e-13
1.89853e-12
4.63172e-13
1.82518e-12
4.43265e-13
1.75548e-12
4.23639e-13
1.68906e-12
4.05511e-13
1.62588e-12
3.88129e-13
1.56574e-12
3.71394e-13
1.50795e-12
3.56488e-13
1.45271e-12
3.42845e-13
1.39928e-12
3.30156e-13
1.34797e-12
3.1841e-13
1.29786e-12
3.08738e-13
1.2496e-12
2.99312e-13
1.20186e-12
2.90749e-13
1.1566e-12
2.8287e-13
1.11078e-12
2.78513e-13
1.06599e-12
2.71352e-13
1.02249e-12
2.65131e-13
9.79591e-13
2.5927e-13
9.37669e-13
2.54378e-13
8.96254e-13
2.50298e-13
8.55638e-13
2.45141e-13
8.15565e-13
2.41213e-13
7.76326e-13
2.36157e-13
7.37755e-13
2.31948e-13
6.99865e-13
2.27421e-13
6.62644e-13
2.2373e-13
6.26133e-13
2.19251e-13
5.90337e-13
2.15002e-13
5.55364e-13
2.10513e-13
5.21024e-13
2.06477e-13
4.87339e-13
2.02504e-13
4.54336e-13
1.98373e-13
4.21814e-13
1.94814e-13
3.89929e-13
1.90999e-13
3.58694e-13
1.87106e-13
3.27981e-13
1.83338e-13
2.97806e-13
1.79559e-13
2.68238e-13
1.7569e-13
2.39308e-13
1.71692e-13
2.11252e-13
1.67571e-13
1.843e-13
1.63464e-13
1.58161e-13
1.6108e-13
1.36029e-13
1.55556e-13
1.14649e-13
1.59866e-13
3.23889e-14
3.56371e-13
8.56558e-18
3.12008e-13
9.19845e-22
-1.05883e-21
9.05298e-22
-2.94683e-24
9.01627e-22
1.46825e-23
8.94079e-22
3.18982e-23
8.83739e-22
4.8752e-23
8.70659e-22
6.48303e-23
8.55098e-22
7.99263e-23
8.37107e-22
9.39367e-23
8.17203e-22
1.06706e-22
7.95438e-22
1.18028e-22
7.71915e-22
1.27851e-22
7.46944e-22
1.36226e-22
7.20733e-22
1.43257e-22
6.93591e-22
1.48944e-22
6.65622e-22
1.53339e-22
6.37188e-22
1.56544e-22
6.08288e-22
1.58767e-22
5.79078e-22
1.59956e-22
5.49972e-22
1.60163e-22
5.20659e-22
1.59594e-22
4.91449e-22
1.58302e-22
4.62446e-22
1.56441e-22
4.33908e-22
1.54114e-22
4.05525e-22
1.51322e-22
3.77556e-22
1.4822e-22
3.50104e-22
1.4486e-22
3.23324e-22
1.41448e-22
2.96854e-22
1.37777e-22
2.71005e-22
1.34107e-22
2.45724e-22
1.30488e-22
2.21116e-22
1.26817e-22
1.96869e-22
1.23457e-22
1.73191e-22
1.202e-22
1.50133e-22
1.17201e-22
1.27438e-22
1.14513e-22
1.05207e-22
1.12186e-22
8.33902e-23
1.10274e-22
6.18318e-23
1.08723e-22
4.04802e-23
1.07637e-22
1.92836e-23
1.07068e-22
1.06913e-22
6.59295e-13
-3.45607e-12
1.28367e-12
-3.32068e-12
1.84243e-12
-3.10189e-12
2.31911e-12
-2.80038e-12
2.70549e-12
-2.44556e-12
3.00194e-12
-2.07662e-12
3.22991e-12
-1.73957e-12
3.4038e-12
-1.43224e-12
3.53062e-12
-1.14991e-12
3.62031e-12
-8.99136e-13
3.67764e-12
-6.7438e-13
3.70848e-12
-4.75692e-13
3.71635e-12
-2.93096e-13
3.70391e-12
-1.33752e-13
3.66889e-12
2.08214e-14
3.62223e-12
1.46895e-13
3.55632e-12
2.60858e-13
3.48437e-12
3.50306e-13
3.38604e-12
4.49066e-13
3.29254e-12
5.1697e-13
3.18618e-12
5.74005e-13
3.07733e-12
6.17016e-13
2.96407e-12
6.48538e-13
2.85325e-12
6.65655e-13
2.73762e-12
6.81318e-13
2.62645e-12
6.86085e-13
2.5183e-12
6.79326e-13
2.41348e-12
6.67735e-13
2.31258e-12
6.53477e-13
2.21629e-12
6.34324e-13
2.12486e-12
6.12638e-13
2.03781e-12
5.9037e-13
1.95587e-12
5.66157e-13
1.87883e-12
5.40209e-13
1.80597e-12
5.16127e-13
1.737e-12
4.92608e-13
1.6716e-12
4.70913e-13
1.60954e-12
4.50189e-13
1.55061e-12
4.3032e-13
1.4941e-12
4.13001e-13
1.44019e-12
3.96751e-13
1.38795e-12
3.82394e-13
1.33774e-12
3.68616e-13
1.28854e-12
3.57925e-13
1.24145e-12
3.4639e-13
1.19406e-12
3.38135e-13
1.14976e-12
3.27165e-13
1.10495e-12
3.23304e-13
1.06043e-12
3.15861e-13
1.01729e-12
3.08259e-13
9.7457e-13
3.01981e-13
9.329e-13
2.96031e-13
8.91678e-13
2.91504e-13
8.51128e-13
2.85676e-13
8.11095e-13
2.8123e-13
7.71819e-13
2.75414e-13
7.33393e-13
2.70356e-13
6.95542e-13
2.65253e-13
6.58463e-13
2.60787e-13
6.21873e-13
2.55822e-13
5.86202e-13
2.5065e-13
5.51207e-13
2.45485e-13
5.16903e-13
2.40761e-13
4.83383e-13
2.36e-13
4.50387e-13
2.31347e-13
4.1788e-13
2.27296e-13
3.86186e-13
2.2267e-13
3.54979e-13
2.18288e-13
3.24197e-13
2.14093e-13
2.93933e-13
2.09796e-13
2.64244e-13
2.05351e-13
2.35197e-13
2.00708e-13
2.07222e-13
1.95518e-13
1.80982e-13
1.89675e-13
1.58312e-13
1.83722e-13
1.37896e-13
1.75943e-13
7.74157e-14
2.20319e-13
1.52075e-14
4.18551e-13
7.40988e-18
3.27186e-13
9.19845e-22
-1.20442e-21
9.22927e-22
-3.15363e-24
9.18843e-22
1.77844e-23
9.10933e-22
3.87224e-23
8.99817e-22
5.88332e-23
8.85755e-22
7.81169e-23
8.69057e-22
9.61598e-23
8.49928e-22
1.12652e-22
8.28525e-22
1.27593e-22
8.0526e-22
1.40931e-22
7.8029e-22
1.5246e-22
7.53975e-22
1.62127e-22
7.26368e-22
1.70192e-22
6.97934e-22
1.76655e-22
6.68879e-22
1.81618e-22
6.39359e-22
1.85237e-22
6.09477e-22
1.8746e-22
5.79337e-22
1.88494e-22
5.49351e-22
1.88649e-22
5.19366e-22
1.8777e-22
4.89588e-22
1.86116e-22
4.60119e-22
1.83841e-22
4.31168e-22
1.80997e-22
4.02423e-22
1.77689e-22
3.74248e-22
1.74018e-22
3.46692e-22
1.70141e-22
3.19654e-22
1.65953e-22
2.93184e-22
1.61714e-22
2.67386e-22
1.57371e-22
2.42157e-22
1.5308e-22
2.17704e-22
1.48944e-22
1.93612e-22
1.4486e-22
1.70192e-22
1.41138e-22
1.47393e-22
1.37622e-22
1.25111e-22
1.34469e-22
1.03294e-22
1.3178e-22
8.18392e-23
1.29454e-22
6.06427e-23
1.27696e-22
3.99115e-23
1.26455e-22
1.91803e-23
1.25731e-22
1.25525e-22
7.75339e-13
-4.23139e-12
1.51674e-12
-4.06206e-12
2.17008e-12
-3.7552e-12
2.66208e-12
-3.29236e-12
3.05613e-12
-2.83958e-12
3.34103e-12
-2.36149e-12
3.54186e-12
-1.94038e-12
3.68314e-12
-1.57349e-12
3.77986e-12
-1.2466e-12
3.84244e-12
-9.61692e-13
3.87706e-12
-7.08971e-13
3.8856e-12
-4.84212e-13
3.88084e-12
-2.88309e-13
3.84649e-12
-9.93829e-14
3.79964e-12
6.76961e-14
3.7359e-12
2.10651e-13
3.65765e-12
3.3913e-13
3.56627e-12
4.41705e-13
3.45731e-12
5.58041e-13
3.35016e-12
6.24136e-13
3.23039e-12
6.93795e-13
3.10986e-12
7.37563e-13
2.98619e-12
7.72227e-13
2.86465e-12
7.87206e-13
2.74022e-12
8.0577e-13
2.62191e-12
8.04405e-13
2.50799e-12
7.93255e-13
2.39793e-12
7.77808e-13
2.29338e-12
7.58045e-13
2.19463e-12
7.33077e-13
2.10138e-12
7.05901e-13
2.01322e-12
6.78532e-13
1.93146e-12
6.47921e-13
1.85475e-12
6.1692e-13
1.78279e-12
5.88093e-13
1.71471e-12
5.6069e-13
1.65071e-12
5.34914e-13
1.59035e-12
5.10552e-13
1.53286e-12
4.87805e-13
1.47794e-12
4.67922e-13
1.42538e-12
4.49303e-13
1.37493e-12
4.32839e-13
1.32582e-12
4.17718e-13
1.27816e-12
4.05583e-13
1.23187e-12
3.92671e-13
1.18628e-12
3.8372e-13
1.14128e-12
3.72156e-13
1.09846e-12
3.66112e-13
1.05421e-12
3.60094e-13
1.01132e-12
3.51136e-13
9.68775e-13
3.44517e-13
9.27363e-13
3.37432e-13
8.86392e-13
3.32462e-13
8.45805e-13
3.26248e-13
8.06037e-13
3.20982e-13
7.66659e-13
3.14776e-13
7.283e-13
3.08701e-13
6.90345e-13
3.03192e-13
6.53464e-13
2.97651e-13
6.16963e-13
2.92304e-13
5.81317e-13
2.86276e-13
5.46509e-13
2.80274e-13
5.1237e-13
2.74881e-13
4.78825e-13
2.69525e-13
4.45844e-13
2.64307e-13
4.13593e-13
2.59528e-13
3.81879e-13
2.54363e-13
3.50662e-13
2.49484e-13
3.19938e-13
2.44792e-13
2.89517e-13
2.40197e-13
2.59542e-13
2.353e-13
2.30104e-13
2.30124e-13
2.01306e-13
2.24291e-13
1.74e-13
2.16954e-13
1.51491e-13
2.06205e-13
1.40875e-13
1.86533e-13
5.40822e-14
3.07087e-13
1.64972e-14
4.56109e-13
6.89057e-18
3.43655e-13
9.52932e-22
-1.41618e-21
9.43865e-22
-3.92911e-24
9.39781e-22
2.11965e-23
9.31044e-22
4.59085e-23
9.19101e-22
6.97934e-23
9.03798e-22
9.25408e-23
8.85549e-22
1.13582e-22
8.64869e-22
1.33021e-22
8.41915e-22
1.50288e-22
8.16789e-22
1.65384e-22
7.89958e-22
1.78464e-22
7.61989e-22
1.89579e-22
7.32882e-22
1.98678e-22
7.02897e-22
2.05813e-22
6.7255e-22
2.11241e-22
6.41582e-22
2.15015e-22
6.10511e-22
2.17342e-22
5.79492e-22
2.18376e-22
5.48472e-22
2.18066e-22
5.17712e-22
2.16825e-22
4.87261e-22
2.14808e-22
4.57276e-22
2.12017e-22
4.27808e-22
2.08605e-22
3.98804e-22
2.04676e-22
3.7037e-22
2.00333e-22
3.42453e-22
1.9568e-22
3.15414e-22
1.90872e-22
2.88841e-22
1.85909e-22
2.63095e-22
1.80946e-22
2.3797e-22
1.76086e-22
2.13671e-22
1.7133e-22
1.89838e-22
1.6678e-22
1.66677e-22
1.62438e-22
1.44291e-22
1.58508e-22
1.22423e-22
1.54941e-22
1.01019e-22
1.51736e-22
8.01331e-23
1.49151e-22
5.94536e-23
1.4698e-22
3.9136e-23
1.45532e-22
1.90252e-23
1.44757e-22
1.44602e-22
9.51278e-13
-5.18265e-12
1.84217e-12
-4.95292e-12
2.58074e-12
-4.49374e-12
3.13968e-12
-3.85127e-12
3.51372e-12
-3.2136e-12
3.76179e-12
-2.60954e-12
3.91624e-12
-2.09481e-12
4.01148e-12
-1.66871e-12
4.0635e-12
-1.29859e-12
4.09034e-12
-9.88511e-13
4.09727e-12
-7.15884e-13
4.09042e-12
-4.77336e-13
4.06152e-12
-2.5939e-13
4.0077e-12
-4.55423e-14
3.947e-12
1.28419e-13
3.86461e-12
2.93051e-13
3.77244e-12
4.31326e-13
3.65528e-12
5.58884e-13
3.54173e-12
6.71607e-13
3.41203e-12
7.53846e-13
3.27953e-12
8.26306e-13
3.14409e-12
8.73021e-13
3.00866e-12
9.07674e-13
2.87335e-12
9.22532e-13
2.74035e-12
9.38786e-13
2.61353e-12
9.31238e-13
2.49248e-12
9.14316e-13
2.37697e-12
8.93326e-13
2.26845e-12
8.66582e-13
2.16705e-12
8.34485e-13
2.07142e-12
8.01535e-13
1.98314e-12
7.66825e-13
1.90174e-12
7.29326e-13
1.82589e-12
6.92768e-13
1.75514e-12
6.58853e-13
1.68856e-12
6.27273e-13
1.62643e-12
5.97045e-13
1.56809e-12
5.68888e-13
1.51249e-12
5.43405e-13
1.45955e-12
5.20865e-13
1.4088e-12
5.00048e-13
1.36042e-12
4.81209e-13
1.31279e-12
4.65349e-13
1.26663e-12
4.51739e-13
1.22131e-12
4.37985e-13
1.17748e-12
4.27546e-13
1.13213e-12
4.17494e-13
1.09122e-12
4.07018e-13
1.04773e-12
4.03571e-13
1.00477e-12
3.9409e-13
9.62657e-13
3.86618e-13
9.21205e-13
3.78872e-13
8.80518e-13
3.73139e-13
8.39913e-13
3.66842e-13
8.00293e-13
3.60587e-13
7.60815e-13
3.5424e-13
7.22478e-13
3.47023e-13
6.84428e-13
3.4123e-13
6.47853e-13
3.3421e-13
6.11289e-13
3.28853e-13
5.75734e-13
3.21814e-13
5.4102e-13
3.14971e-13
5.06964e-13
3.0892e-13
4.73595e-13
3.02877e-13
4.40748e-13
2.97139e-13
4.08713e-13
2.91546e-13
3.77118e-13
2.85941e-13
3.45958e-13
2.80624e-13
3.15143e-13
2.75586e-13
2.84699e-13
2.70621e-13
2.54456e-13
2.65522e-13
2.24379e-13
2.60181e-13
1.94494e-13
2.54152e-13
1.64393e-13
2.47034e-13
1.33926e-13
2.36647e-13
9.87415e-14
2.21694e-13
3.35264e-14
3.72279e-13
1.75011e-14
4.72112e-13
6.48309e-18
3.61131e-13
9.66168e-22
-1.70736e-21
9.6899e-22
-4.65289e-24
9.64441e-22
2.50222e-23
9.5498e-22
5.41803e-23
9.41797e-22
8.22011e-23
9.2484e-22
1.08619e-22
9.04936e-22
1.33124e-22
8.82188e-22
1.55251e-22
8.56959e-22
1.74845e-22
8.29817e-22
1.92164e-22
8.01124e-22
2.06847e-22
7.71088e-22
2.19048e-22
7.40068e-22
2.28974e-22
7.08273e-22
2.36677e-22
6.76324e-22
2.42416e-22
6.43908e-22
2.46241e-22
6.11545e-22
2.48516e-22
5.7913e-22
2.49188e-22
5.4718e-22
2.48671e-22
5.15747e-22
2.46965e-22
4.84469e-22
2.44277e-22
4.53864e-22
2.40968e-22
4.23827e-22
2.36884e-22
3.9441e-22
2.32334e-22
3.65666e-22
2.2732e-22
3.37697e-22
2.21943e-22
3.10451e-22
2.16515e-22
2.83878e-22
2.10931e-22
2.58184e-22
2.05348e-22
2.33265e-22
1.99816e-22
2.09122e-22
1.94439e-22
1.85547e-22
1.89269e-22
1.62799e-22
1.84461e-22
1.40672e-22
1.79963e-22
1.19269e-22
1.75931e-22
9.83828e-23
1.72312e-22
7.79618e-23
1.69365e-22
5.8006e-23
1.67039e-22
3.83088e-23
1.65384e-22
1.88184e-23
1.6435e-22
1.64195e-22
1.18154e-12
-6.36417e-12
2.28678e-12
-6.05812e-12
3.17149e-12
-5.37843e-12
3.76743e-12
-4.44718e-12
4.09526e-12
-3.5414e-12
4.268e-12
-2.78225e-12
4.34909e-12
-2.17588e-12
4.38234e-12
-1.70194e-12
4.38432e-12
-1.30054e-12
4.36568e-12
-9.6986e-13
4.3395e-12
-6.89678e-13
4.30914e-12
-4.46952e-13
4.2569e-12
-2.07134e-13
4.19105e-12
2.03257e-14
4.10761e-12
2.11873e-13
4.01348e-12
3.87206e-13
3.89217e-12
5.52646e-13
3.76322e-12
6.87855e-13
3.62929e-12
8.05544e-13
3.48115e-12
9.02001e-13
3.33127e-12
9.76203e-13
3.17892e-12
1.02539e-12
3.02897e-12
1.05763e-12
2.87956e-12
1.07196e-12
2.7357e-12
1.08266e-12
2.59943e-12
1.06752e-12
2.47036e-12
1.0434e-12
2.3492e-12
1.0145e-12
2.23689e-12
9.78902e-13
2.13268e-12
9.38704e-13
2.03525e-12
8.98968e-13
1.94752e-12
8.54566e-13
1.86663e-12
8.10225e-13
1.79192e-12
7.67481e-13
1.72251e-12
7.28263e-13
1.65835e-12
6.91434e-13
1.5985e-12
6.56902e-13
1.54268e-12
6.24708e-13
1.48941e-12
5.96675e-13
1.43903e-12
5.71251e-13
1.39076e-12
5.4831e-13
1.34396e-12
5.28006e-13
1.29841e-12
5.10898e-13
1.25393e-12
4.96212e-13
1.2101e-12
4.8181e-13
1.16749e-12
4.70151e-13
1.1239e-12
4.61086e-13
1.0826e-12
4.48309e-13
1.04086e-12
4.45293e-13
9.97831e-13
4.37114e-13
9.56253e-13
4.28188e-13
9.14434e-13
4.20681e-13
8.74186e-13
4.13376e-13
8.33659e-13
4.0736e-13
7.93931e-13
4.00305e-13
7.54236e-13
3.93923e-13
7.15863e-13
3.85385e-13
6.77987e-13
3.79091e-13
6.41294e-13
3.7089e-13
6.04947e-13
3.65187e-13
5.69293e-13
3.57456e-13
5.34692e-13
3.49559e-13
5.00863e-13
3.42736e-13
4.67851e-13
3.35875e-13
4.35165e-13
3.29809e-13
4.03285e-13
3.23412e-13
3.71885e-13
3.17325e-13
3.40851e-13
3.11642e-13
3.10073e-13
3.06348e-13
2.79596e-13
3.01081e-13
2.49046e-13
2.96054e-13
2.1837e-13
2.90839e-13
1.86873e-13
2.8563e-13
1.53147e-13
2.80739e-13
1.14915e-13
2.7486e-13
5.85348e-14
2.78056e-13
1.98723e-14
4.10921e-13
1.3966e-14
4.77997e-13
6.14456e-18
3.75076e-13
1.01249e-21
-1.86618e-21
9.98666e-22
-5.32498e-24
9.93547e-22
2.95717e-23
9.83053e-22
6.35895e-23
9.68267e-22
9.62632e-23
9.49345e-22
1.26714e-22
9.27063e-22
1.54683e-22
9.01834e-22
1.7986e-22
8.74227e-22
2.01987e-22
8.44603e-22
2.21116e-22
8.13274e-22
2.37349e-22
7.81014e-22
2.50687e-22
7.47823e-22
2.61286e-22
7.14012e-22
2.69454e-22
6.80149e-22
2.75348e-22
6.46132e-22
2.79122e-22
6.12269e-22
2.81138e-22
5.78613e-22
2.815e-22
5.45577e-22
2.80466e-22
5.13111e-22
2.78346e-22
4.81109e-22
2.75141e-22
4.49831e-22
2.71005e-22
4.19277e-22
2.66145e-22
3.89447e-22
2.60769e-22
3.60289e-22
2.54978e-22
3.32268e-22
2.49136e-22
3.04868e-22
2.42933e-22
2.78295e-22
2.36677e-22
2.52652e-22
2.3037e-22
2.27888e-22
2.24269e-22
2.03952e-22
2.18169e-22
1.80739e-22
2.12482e-22
1.5825e-22
2.07054e-22
1.3664e-22
2.02039e-22
1.1565e-22
1.97438e-22
9.5436e-23
1.93405e-22
7.56353e-23
1.90096e-22
5.63517e-23
1.87512e-22
3.72748e-23
1.85547e-22
1.86633e-23
1.84461e-22
1.84203e-22
1.56887e-12
-7.93302e-12
3.00303e-12
-7.49225e-12
4.05985e-12
-6.43522e-12
4.63107e-12
-5.01839e-12
4.83291e-12
-3.74322e-12
4.85596e-12
-2.80527e-12
4.82239e-12
-2.14229e-12
4.76837e-12
-1.64789e-12
4.72707e-12
-1.25922e-12
4.66934e-12
-9.12107e-13
4.60283e-12
-6.23156e-13
4.53378e-12
-3.77879e-13
4.47156e-12
-1.44904e-13
4.39001e-12
1.01894e-13
4.28878e-12
3.13119e-13
4.17005e-12
5.05959e-13
4.0302e-12
6.92508e-13
3.88441e-12
8.33661e-13
3.72227e-12
9.67697e-13
3.55564e-12
1.06864e-12
3.38443e-12
1.14742e-12
3.21255e-12
1.19729e-12
3.04641e-12
1.22378e-12
2.88041e-12
1.23797e-12
2.72415e-12
1.23894e-12
2.57775e-12
1.21393e-12
2.4403e-12
1.18085e-12
2.31314e-12
1.14168e-12
2.19707e-12
1.09498e-12
2.08912e-12