0 	7.25912e-21 	0 	-6.17025e-20
0.010101 	2.30514e-20 	2.37069e-22 	-2.04125e-19
0.020202 	7.87387e-20 	-1.35176e-22 	-9.39959e-20
0.030303 	-6.49173e-20 	-2.36729e-22 	-5.156e-20
0.040404 	2.52036e-20 	-2.03105e-22 	-6.83716e-22
0.0505051 	-3.88635e-22 	1.01552e-22 	3.37375e-20
