/*--------------------------------*- C++ -*----------------------------------*\
  =========                 |
  \\      /  F ield         | OpenFOAM: The Open Source CFD Toolbox
   \\    /   O peration     | Website:  https://openfoam.org
    \\  /    A nd           | Version:  6
     \\/     M anipulation  |
\*---------------------------------------------------------------------------*/
FoamFile
{
    version     2.0;
    format      ascii;
    class       surfaceScalarField;
    location    "2100";
    object      phi;
}
// * * * * * * * * * * * * * * * * * * * * * * * * * * * * * * * * * * * * * //

dimensions      [0 3 -1 0 0 0 0];

internalField   nonuniform List<scalar> 
9440
(
6.49793e-11
-6.49793e-11
1.684e-10
-1.03423e-10
2.31412e-10
-6.30135e-11
2.65789e-10
-3.4378e-11
2.62411e-10
3.3765e-12
2.73879e-10
-1.1469e-11
2.44783e-10
2.90963e-11
2.31365e-10
1.34175e-11
1.97777e-10
3.35881e-11
1.25638e-10
7.21392e-11
-7.97107e-12
1.3361e-10
-1.38653e-10
1.30683e-10
-2.08044e-10
6.93919e-11
-2.74904e-10
6.68602e-11
-3.9304e-10
1.18136e-10
-4.61106e-10
6.80667e-11
-4.31506e-10
-2.96001e-11
-3.58594e-10
-7.2913e-11
-2.51549e-10
-1.07046e-10
-9.44309e-11
-1.57119e-10
-9.9793e-12
-8.44533e-11
-3.82105e-13
-9.59923e-12
-6.64777e-11
6.60933e-11
-1.90565e-10
1.24085e-10
-4.01555e-10
2.10988e-10
-6.81901e-10
2.80343e-10
-1.04437e-09
3.62465e-10
-1.52606e-09
4.81686e-10
-1.97046e-09
4.444e-10
-2.32154e-09
3.51082e-10
-2.54399e-09
2.22445e-10
-2.64402e-09
1.00029e-10
-2.74456e-09
1.00538e-10
-2.86761e-09
1.23053e-10
-2.9285e-09
6.08799e-11
-2.93161e-09
3.11398e-12
-2.9589e-09
2.72811e-11
-2.96993e-09
1.10375e-11
-2.96999e-09
5.61546e-14
-2.96174e-09
-8.25223e-12
-2.95071e-09
-1.10354e-11
-2.91829e-09
-3.24137e-11
-2.87099e-09
-4.73067e-11
-2.8512e-09
-1.97841e-11
-2.8616e-09
1.04032e-11
-2.79832e-09
-6.32751e-11
-2.67079e-09
-1.27526e-10
-2.49906e-09
-1.7173e-10
-2.30854e-09
-1.90518e-10
-1.94493e-09
-3.63606e-10
-1.73589e-09
-2.09036e-10
-1.49856e-09
-2.37339e-10
-1.26802e-09
-2.30541e-10
-1.01835e-09
-2.49669e-10
-8.28911e-10
-1.8944e-10
-6.8575e-10
-1.43163e-10
-5.51378e-10
-1.34373e-10
-4.34987e-10
-1.16392e-10
-3.71045e-10
-6.39412e-11
-3.36807e-10
-3.4237e-11
-2.89495e-10
-4.73101e-11
-2.87626e-10
-1.86599e-12
-3.40405e-10
5.27828e-11
-3.58273e-10
1.78715e-11
-3.19995e-10
-3.82746e-11
-3.20289e-10
2.97401e-13
-2.48995e-10
-7.12916e-11
-1.74509e-10
-7.44847e-11
-1.0892e-10
-6.55888e-11
-4.74333e-11
-6.14867e-11
1.1486e-12
-4.85826e-11
1.00771e-10
-9.96234e-11
2.1302e-10
-1.1225e-10
4.05517e-10
-1.92499e-10
5.96968e-10
-1.91453e-10
7.28295e-10
-1.31328e-10
6.08725e-10
1.19571e-10
4.42627e-10
1.661e-10
1.75056e-10
2.67576e-10
2.92624e-11
1.45797e-10
7.45375e-16
2.92636e-11
1.78606e-19
9.23344e-19
3.09208e-19
-1.30602e-19
6.22648e-19
-3.11397e-19
9.70559e-19
-3.44129e-19
1.31454e-18
-3.3973e-19
1.6431e-18
-3.2464e-19
1.95182e-18
-3.05827e-19
2.23783e-18
-2.84637e-19
2.49976e-18
-2.61405e-19
2.73742e-18
-2.36268e-19
2.95066e-18
-2.09769e-19
3.13802e-18
-1.82585e-19
3.29733e-18
-1.55101e-19
3.42706e-18
-1.27213e-19
3.52692e-18
-9.87159e-20
3.59745e-18
-6.97326e-20
3.6393e-18
-4.07681e-20
3.65306e-18
-1.24676e-20
3.6394e-18
1.46516e-20
3.59928e-18
4.0345e-20
3.53409e-18
6.45658e-20
3.44559e-18
8.72488e-20
3.33557e-18
1.08239e-19
3.20562e-18
1.2743e-19
3.05747e-18
1.44882e-19
2.89345e-18
1.6076e-19
2.71626e-18
1.75193e-19
2.52832e-18
1.88229e-19
2.33129e-18
1.99864e-19
2.12596e-18
2.10076e-19
1.9126e-18
2.18837e-19
1.6913e-18
2.26125e-19
1.46235e-18
2.31957e-19
1.22653e-18
2.36419e-19
9.85178e-19
2.39664e-19
7.40136e-19
2.41905e-19
4.93332e-19
2.4341e-19
2.46333e-19
2.44418e-19
2.44901e-19
9.64041e-11
-1.61386e-10
1.40777e-10
-1.47798e-10
1.81633e-10
-1.03872e-10
2.09876e-10
-6.26224e-11
2.19326e-10
-6.07405e-12
1.8782e-10
2.00358e-11
1.50062e-10
6.68545e-11
1.04011e-10
5.9469e-11
3.74941e-11
1.00106e-10
-6.84806e-11
1.78115e-10
-1.8168e-10
2.4681e-10
-3.60953e-10
3.09957e-10
-5.98252e-10
3.06692e-10
-7.66851e-10
2.3546e-10
-8.11143e-10
1.62427e-10
-7.891e-10
4.60234e-11
-7.33858e-10
-8.48431e-11
-6.48183e-10
-1.5859e-10
-5.82892e-10
-1.72341e-10
-5.39753e-10
-2.00261e-10
-5.07424e-10
-1.16786e-10
-5.17716e-10
6.88854e-13
-6.30579e-10
1.78953e-10
-8.03025e-10
2.96527e-10
-1.04399e-09
4.51952e-10
-1.42531e-09
6.61655e-10
-1.78246e-09
7.19615e-10
-2.04769e-09
7.46913e-10
-2.22313e-09
6.19838e-10
-2.3556e-09
4.83549e-10
-2.41228e-09
2.79117e-10
-2.48344e-09
1.71184e-10
-2.59621e-09
2.13313e-10
-2.67413e-09
2.00967e-10
-2.70225e-09
8.89994e-11
-2.72086e-09
2.17153e-11
-2.7466e-09
5.30136e-11
-2.75854e-09
2.29818e-11
-2.76229e-09
3.80385e-12
-2.7599e-09
-1.064e-11
-2.7641e-09
-6.83606e-12
-2.7619e-09
-3.46198e-11
-2.7806e-09
-2.8603e-11
-2.78314e-09
-1.72363e-11
-2.74044e-09
-3.22882e-11
-2.66734e-09
-1.36374e-10
-2.51836e-09
-2.76498e-10
-2.39162e-09
-2.98476e-10
-2.13615e-09
-4.45984e-10
-1.8459e-09
-6.53854e-10
-1.51198e-09
-5.4296e-10
-1.30488e-09
-4.44436e-10
-1.00696e-09
-5.28466e-10
-7.60494e-10
-4.96141e-10
-5.37999e-10
-4.11938e-10
-3.96619e-10
-2.84544e-10
-2.71662e-10
-2.59331e-10
-2.0407e-10
-1.83982e-10
-1.50554e-10
-1.17455e-10
-1.42508e-10
-4.22787e-11
-1.74874e-10
-1.49378e-11
-1.87192e-10
1.0458e-11
-2.06339e-10
7.19357e-11
-2.36017e-10
4.7555e-11
-2.62369e-10
-1.19179e-11
-2.14172e-10
-4.78961e-11
-2.18668e-10
-6.67923e-11
-2.00694e-10
-9.24574e-11
-1.48411e-10
-1.17871e-10
-7.36052e-11
-1.36293e-10
1.42554e-11
-1.36445e-10
1.24857e-10
-2.10227e-10
2.62148e-10
-2.49543e-10
4.22905e-10
-3.53256e-10
5.05823e-10
-2.74371e-10
6.0284e-10
-2.28342e-10
6.50693e-10
7.17221e-11
5.76324e-10
2.40476e-10
4.59196e-10
3.8471e-10
3.07089e-10
2.97913e-10
-1.86524e-16
3.36365e-10
-6.5328e-19
-1.13887e-18
1.24656e-19
-9.02221e-19
5.87227e-19
-7.68195e-19
9.7329e-19
-7.24575e-19
1.32893e-18
-6.90395e-19
1.66196e-18
-6.53703e-19
1.97301e-18
-6.134e-19
2.26106e-18
-5.69142e-19
2.5249e-18
-5.21359e-19
2.76392e-18
-4.70942e-19
2.97785e-18
-4.18863e-19
3.16551e-18
-3.65392e-19
3.32522e-18
-3.10352e-19
3.45556e-18
-2.53666e-19
3.5559e-18
-1.95702e-19
3.62641e-18
-1.37314e-19
3.6676e-18
-7.95897e-20
3.68018e-18
-2.34939e-20
3.6651e-18
3.03212e-20
3.6235e-18
8.14787e-20
3.55677e-18
1.29701e-19
3.46658e-18
1.74736e-19
3.35477e-18
2.16504e-19
3.22307e-18
2.55205e-19
3.07335e-18
2.91115e-19
2.90789e-18
3.24264e-19
2.72929e-18
3.54351e-19
2.53996e-18
3.80968e-19
2.3415e-18
4.03884e-19
2.13472e-18
4.2317e-19
1.91989e-18
4.39151e-19
1.69713e-18
4.52269e-19
1.46681e-18
4.62952e-19
1.22977e-18
4.71529e-19
9.8742e-19
4.78216e-19
7.4164e-19
4.83186e-19
4.9434e-19
4.86657e-19
2.46817e-19
4.88857e-19
4.89612e-19
4.27805e-11
-2.04168e-10
5.07757e-11
-1.55794e-10
6.63757e-11
-1.19473e-10
8.11218e-11
-7.73688e-11
7.35001e-11
1.54739e-12
2.59067e-11
6.76292e-11
-1.06587e-11
1.0342e-10
-5.77154e-11
1.06526e-10
-1.31227e-10
1.73617e-10
-3.15958e-10
3.62846e-10
-5.05694e-10
4.36546e-10
-6.68476e-10
4.7274e-10
-8.29995e-10
4.68209e-10
-9.45343e-10
3.50807e-10
-1.00337e-09
2.20457e-10
-9.70686e-10
1.33346e-11
-9.31393e-10
-1.24138e-10
-9.48485e-10
-1.415e-10
-9.0178e-10
-2.19047e-10
-8.85322e-10
-2.16722e-10
-8.73218e-10
-1.28892e-10
-9.59607e-10
8.70754e-11
-1.1339e-09
3.53239e-10
-1.31187e-09
4.74504e-10
-1.55973e-09
6.99803e-10
-1.81673e-09
9.18652e-10
-1.98142e-09
8.84305e-10
-2.07761e-09
8.43106e-10
-2.15715e-09
6.99374e-10
-2.25923e-09
5.85625e-10
-2.32195e-09
3.41842e-10
-2.37308e-09
2.22312e-10
-2.42221e-09
2.62439e-10
-2.43693e-09
2.15681e-10
-2.47019e-09
1.2226e-10
-2.52632e-09
7.78459e-11
-2.55196e-09
7.86498e-11
-2.56229e-09
3.33119e-11
-2.55697e-09
-1.52694e-12
-2.54262e-09
-2.49868e-11
-2.5181e-09
-3.13558e-11
-2.51138e-09
-4.13421e-11
-2.50402e-09
-3.59559e-11
-2.49463e-09
-2.66245e-11
-2.48909e-09
-3.78296e-11
-2.47233e-09
-1.53134e-10
-2.34609e-09
-4.02733e-10
-2.14959e-09
-4.94977e-10
-1.93831e-09
-6.57268e-10
-1.70827e-09
-8.83896e-10
-1.33348e-09
-9.17757e-10
-1.10305e-09
-6.74869e-10
-7.89278e-10
-8.42239e-10
-5.42207e-10
-7.43215e-10
-2.65981e-10
-6.88167e-10
-8.10501e-11
-4.69476e-10
6.30813e-11
-4.03462e-10
1.59469e-10
-2.80367e-10
1.95979e-10
-1.53961e-10
2.12295e-10
-5.85909e-11
1.95717e-10
1.64518e-12
1.6067e-10
4.55098e-11
1.23117e-10
1.09494e-10
5.5819e-11
1.14858e-10
2.20226e-12
4.17033e-11
-3.71297e-11
-8.56022e-12
-6.96701e-11
-3.42483e-11
-1.14886e-10
-4.72388e-11
-1.34497e-10
-9.8258e-11
-1.1923e-10
-1.51558e-10
-2.9719e-11
-2.25955e-10
8.83103e-11
-3.28255e-10
2.50947e-10
-4.12178e-10
3.67943e-10
-4.70249e-10
4.73485e-10
-3.7991e-10
4.37916e-10
-1.92769e-10
5.80596e-10
-7.09558e-11
5.18609e-10
3.02463e-10
5.07099e-10
3.9622e-10
3.69362e-10
4.35647e-10
9.52378e-16
7.05724e-10
3.37112e-20
-1.37033e-19
2.5919e-19
-1.12495e-18
6.31353e-19
-1.13819e-18
1.00797e-18
-1.09838e-18
1.36611e-18
-1.04526e-18
1.70264e-18
-9.86668e-19
2.01726e-18
-9.24416e-19
2.30885e-18
-8.58101e-19
2.57532e-18
-7.87147e-19
2.816e-18
-7.1161e-19
3.03132e-18
-6.32319e-19
3.22055e-18
-5.50137e-19
3.38191e-18
-4.65592e-19
3.51352e-18
-3.79119e-19
3.61429e-18
-2.91342e-19
3.68414e-18
-2.03235e-19
3.72369e-18
-1.16078e-19
3.73399e-18
-3.12347e-20
3.71625e-18
5.01279e-20
3.67172e-18
1.27268e-19
3.6018e-18
1.99799e-19
3.50835e-18
2.67445e-19
3.39347e-18
3.30043e-19
3.25898e-18
3.8771e-19
3.1065e-18
4.40755e-19
2.93797e-18
4.89334e-19
2.75591e-18
5.33285e-19
2.56287e-18
5.72327e-19
2.36078e-18
6.06371e-19
2.1507e-18
6.35604e-19
1.93301e-18
6.60362e-19
1.70782e-18
6.80947e-19
1.47539e-18
6.97589e-19
1.23646e-18
7.10512e-19
9.9239e-19
7.20058e-19
7.45112e-19
7.26743e-19
4.96539e-19
7.31174e-19
2.47572e-19
7.33822e-19
7.34887e-19
-2.99825e-12
-2.0117e-10
-1.68075e-12
-1.57111e-10
1.57111e-12
-1.22724e-10
1.68341e-11
-9.26312e-11
4.38045e-11
-2.54225e-11
1.63236e-11
9.51105e-11
-2.64009e-11
1.46145e-10
-1.37739e-10
2.17864e-10
-3.00175e-10
3.36052e-10
-4.54704e-10
5.17374e-10
-6.55473e-10
6.37314e-10
-8.95462e-10
7.12727e-10
-1.06743e-09
6.40171e-10
-1.19169e-09
4.75073e-10
-1.23456e-09
2.63321e-10
-1.20387e-09
-1.73559e-11
-1.20923e-09
-1.18784e-10
-1.21667e-09
-1.3406e-10
-1.19334e-09
-2.42372e-10
-1.19128e-09
-2.18791e-10
-1.28189e-09
-3.8279e-11
-1.47801e-09
2.8319e-10
-1.65805e-09
5.33277e-10
-1.7831e-09
5.99553e-10
-1.92592e-09
8.42626e-10
-1.98248e-09
9.7521e-10
-2.04415e-09
9.45976e-10
-2.03919e-09
8.38146e-10
-2.02801e-09
6.88197e-10
-2.04486e-09
6.02465e-10
-2.13341e-09
4.30398e-10
-2.20058e-09
2.8948e-10
-2.22628e-09
2.88129e-10
-2.2328e-09
2.22206e-10
-2.2678e-09
1.57256e-10
-2.2864e-09
9.64396e-11
-2.27472e-09
6.6967e-11
-2.26586e-09
2.44552e-11
-2.25754e-09
-9.85373e-12
-2.25339e-09
-2.91363e-11
-2.25745e-09
-2.72963e-11
-2.27587e-09
-2.29239e-11
-2.29566e-09
-1.61619e-11
-2.31404e-09
-8.24689e-12
-2.29881e-09
-5.30624e-11
-2.2799e-09
-1.72041e-10
-2.13768e-09
-5.44964e-10
-1.95964e-09
-6.7302e-10
-1.73239e-09
-8.84523e-10
-1.56914e-09
-1.04715e-09
-1.24699e-09
-1.23991e-09
-9.02366e-10
-1.01949e-09
-5.24818e-10
-1.21979e-09
-1.53642e-10
-1.11439e-09
1.72983e-10
-1.01479e-09
3.49664e-10
-6.46156e-10
5.16419e-10
-5.70216e-10
5.69354e-10
-3.33299e-10
6.02118e-10
-1.86722e-10
6.14814e-10
-7.12821e-11
5.67841e-10
4.86218e-11
5.0305e-10
1.10305e-10
4.21581e-10
1.90968e-10
3.26902e-10
2.09542e-10
2.34517e-10
1.34093e-10
1.72304e-10
5.36569e-11
1.58464e-10
-2.04033e-11
1.60708e-10
-4.94788e-11
2.34043e-10
-1.71589e-10
3.16776e-10
-2.34287e-10
3.87546e-10
-2.96721e-10
4.10806e-10
-3.51512e-10
3.40607e-10
-3.41974e-10
2.48881e-10
-3.78519e-10
2.90549e-10
-4.21575e-10
4.43388e-10
-3.45606e-10
5.10097e-10
-1.37664e-10
5.03086e-10
3.09473e-10
3.96893e-10
5.02412e-10
2.16565e-10
6.15973e-10
1.70719e-15
9.22284e-10
-2.57009e-19
-6.53582e-19
2.46428e-19
-1.62708e-18
6.71634e-19
-1.56312e-18
1.06155e-18
-1.48705e-18
1.42516e-18
-1.40732e-18
1.76523e-18
-1.32509e-18
2.08358e-18
-1.2405e-18
2.3798e-18
-1.15197e-18
2.65086e-18
-1.05769e-18
2.89529e-18
-9.56919e-19
3.1135e-18
-8.50179e-19
3.30509e-18
-7.3871e-19
3.46838e-18
-6.23744e-19
3.6013e-18
-5.06313e-19
3.7024e-18
-3.87439e-19
3.77129e-18
-2.68397e-19
3.80854e-18
-1.5077e-19
3.81535e-18
-3.63086e-20
3.79339e-18
7.33725e-20
3.74425e-18
1.77191e-19
3.66945e-18
2.7462e-19
3.57095e-18
3.65301e-19
3.45113e-18
4.48915e-19
3.31202e-18
5.25477e-19
3.15508e-18
5.95423e-19
2.98192e-18
6.59234e-19
2.79495e-18
7.17057e-19
2.59691e-18
7.68738e-19
2.39002e-18
8.14125e-19
2.17546e-18
8.5326e-19
1.95359e-18
8.8632e-19
1.72446e-18
9.13506e-19
1.48831e-18
9.35056e-19
1.246e-18
9.51375e-19
9.99074e-19
9.6315e-19
7.49543e-19
9.71318e-19
4.99187e-19
9.76819e-19
2.48637e-19
9.80285e-19
9.82063e-19
-4.76297e-11
-1.5354e-10
-4.96523e-11
-1.55086e-10
-3.95065e-11
-1.32868e-10
-2.9556e-11
-1.0258e-10
3.67245e-12
-5.86499e-11
-6.28489e-12
1.05068e-10
-1.24341e-10
2.64201e-10
-3.23567e-10
4.17089e-10
-5.60448e-10
5.72932e-10
-7.4746e-10
7.04384e-10
-8.83914e-10
7.73766e-10
-1.02565e-09
8.54457e-10
-1.17735e-09
7.91873e-10
-1.31319e-09
6.10908e-10
-1.42293e-09
3.73057e-10
-1.43572e-09
-4.56024e-12
-1.47635e-09
-7.81589e-11
-1.45401e-09
-1.56402e-10
-1.45665e-09
-2.39732e-10
-1.55998e-09
-1.15467e-10
-1.668e-09
6.9747e-11
-1.81782e-09
4.33006e-10
-1.92292e-09
6.38374e-10
-2.0044e-09
6.81038e-10
-2.01126e-09
8.49488e-10
-1.99391e-09
9.57857e-10
-2.00214e-09
9.54199e-10
-1.94983e-09
7.85842e-10
-1.95211e-09
6.90475e-10
-1.90297e-09
5.53317e-10
-1.96193e-09
4.89365e-10
-2.01025e-09
3.37792e-10
-2.03762e-09
3.15502e-10
-2.04435e-09
2.28936e-10
-2.0798e-09
1.92698e-10
-2.05121e-09
6.78526e-11
-2.02973e-09
4.54768e-11
-2.02897e-09
2.3702e-11
-2.03805e-09
-7.81698e-13
-2.03976e-09
-2.74236e-11
-2.06196e-09
-5.10057e-12
-2.07725e-09
-7.63118e-12
-2.10566e-09
1.22378e-11
-2.12003e-09
6.12094e-12
-2.09688e-09
-7.62118e-11
-2.01439e-09
-2.54538e-10
-1.79799e-09
-7.61369e-10
-1.55214e-09
-9.18872e-10
-1.40624e-09
-1.03043e-09
-1.13144e-09
-1.32196e-09
-8.14323e-10
-1.55703e-09
-3.34473e-10
-1.49935e-09
6.53835e-11
-1.61965e-09
3.69223e-10
-1.41823e-09
6.3446e-10
-1.28003e-09
8.42146e-10
-8.53841e-10
9.91417e-10
-7.19485e-10
1.04047e-09
-3.82347e-10
1.01186e-09
-1.58115e-10
9.77491e-10
-3.69057e-11
9.25022e-10
1.01094e-10
8.22113e-10
2.13219e-10
6.67018e-10
3.46066e-10
5.63442e-10
3.13122e-10
5.32262e-10
1.65277e-10
5.30518e-10
5.54054e-11
6.1318e-10
-1.03061e-10
7.04204e-10
-1.40498e-10
7.54757e-10
-2.22135e-10
7.52041e-10
-2.31565e-10
7.04855e-10
-2.49529e-10
6.31383e-10
-2.78035e-10
6.01463e-10
-3.1205e-10
5.62618e-10
-3.3967e-10
4.54161e-10
-3.13114e-10
5.06256e-10
-3.97701e-10
4.49757e-10
-8.11663e-11
4.54443e-10
3.04784e-10
3.70612e-10
5.86239e-10
2.52414e-10
7.34168e-10
1.5057e-15
1.17469e-09
-2.50012e-19
-1.36991e-18
3.10824e-19
-2.18818e-18
7.48135e-19
-2.00206e-18
1.14171e-18
-1.88143e-18
1.50781e-18
-1.77379e-18
1.85012e-18
-1.66753e-18
2.17211e-18
-1.56064e-18
2.47408e-18
-1.45034e-18
2.75162e-18
-1.33354e-18
3.00203e-18
-1.20843e-18
3.22497e-18
-1.07489e-18
3.42006e-18
-9.34119e-19
3.58581e-18
-7.87983e-19
3.72017e-18
-6.3832e-19
3.82144e-18
-4.86847e-19
3.88892e-18
-3.35355e-19
3.923e-18
-1.85776e-19
3.92503e-18
-4.02013e-20
3.89721e-18
9.9282e-20
3.84168e-18
2.31155e-19
3.76013e-18
3.54715e-19
3.65456e-18
4.69582e-19
3.5277e-18
5.75339e-19
3.38197e-18
6.71841e-19
3.21889e-18
7.59501e-19
3.03975e-18
8.38983e-19
2.84663e-18
9.1064e-19
2.6423e-18
9.7439e-19
2.42915e-18
1.03002e-18
2.20852e-18
1.07752e-18
1.98078e-18
1.11716e-18
1.74601e-18
1.14935e-18
1.50463e-18
1.17466e-18
1.25778e-18
1.19383e-18
1.00724e-18
1.20788e-18
7.55044e-19
1.21796e-18
5.02653e-19
1.22507e-18
2.50415e-19
1.22985e-18
1.23267e-18
-1.79681e-11
-1.35571e-10
-5.1163e-12
-1.67935e-10
3.23074e-12
-1.41213e-10
4.38398e-12
-1.03732e-10
-2.57562e-11
-2.85085e-11
-6.30312e-11
1.42344e-10
-1.32552e-10
3.33721e-10
-3.05633e-10
5.9017e-10
-5.59147e-10
8.26444e-10
-7.95097e-10
9.40332e-10
-9.56637e-10
9.35303e-10
-1.12307e-09
1.02089e-09
-1.28179e-09
9.50589e-10
-1.40032e-09
7.29434e-10
-1.51936e-09
4.92095e-10
-1.61767e-09
9.37502e-11
-1.63032e-09
-6.55079e-11
-1.64792e-09
-1.38805e-10
-1.73367e-09
-1.53982e-10
-1.82853e-09
-2.06072e-11
-1.85283e-09
9.40497e-11
-1.92042e-09
5.00587e-10
-1.94358e-09
6.61533e-10
-1.98091e-09
7.1837e-10
-1.95333e-09
8.21912e-10
-1.91799e-09
9.22515e-10
-1.91372e-09
9.49928e-10
-1.84505e-09
7.17171e-10
-1.89047e-09
7.3589e-10
-1.84156e-09
5.04407e-10
-1.83092e-09
4.78722e-10
-1.8471e-09
3.53969e-10
-1.84298e-09
3.11372e-10
-1.86202e-09
2.47982e-10
-1.85998e-09
1.90648e-10
-1.86452e-09
7.23944e-11
-1.83517e-09
1.61303e-11
-1.85671e-09
4.52326e-11
-1.87389e-09
1.64032e-11
-1.86393e-09
-3.7391e-11
-1.88288e-09
1.3848e-11
-1.89109e-09
5.83238e-13
-1.87463e-09
-4.23106e-12
-1.82221e-09
-4.63049e-11
-1.75895e-09
-1.39469e-10
-1.62813e-09
-3.85363e-10
-1.46556e-09
-9.23943e-10
-1.31094e-09
-1.07349e-09
-1.02198e-09
-1.31939e-09
-6.25877e-10
-1.71806e-09
-2.7812e-10
-1.90478e-09
7.51462e-11
-1.85261e-09
3.35293e-10
-1.8798e-09
6.37557e-10
-1.7205e-09
8.72146e-10
-1.51461e-09
1.16525e-09
-1.14695e-09
1.35981e-09
-9.14034e-10
1.45661e-09
-4.79146e-10
1.53614e-09
-2.37642e-10
1.55104e-09
-5.18111e-11
1.40795e-09
2.44188e-10
1.23449e-09
3.8668e-10
1.10625e-09
4.74311e-10
1.08116e-09
3.38205e-10
1.05593e-09
1.90512e-10
1.03493e-09
7.64109e-11
1.0475e-09
-1.15625e-10
1.06489e-09
-1.5789e-10
1.03543e-09
-1.9266e-10
1.02815e-09
-2.24285e-10
9.74845e-10
-1.96215e-10
9.11901e-10
-2.15086e-10
8.31963e-10
-2.32107e-10
7.68348e-10
-2.76051e-10
6.40693e-10
-1.85456e-10
5.88375e-10
-3.45382e-10
5.37003e-10
-2.97957e-11
4.62717e-10
3.79068e-10
3.79445e-10
6.69508e-10
2.69993e-10
8.43617e-10
4.26737e-16
1.44468e-09
2.37975e-19
-6.66728e-19
4.97339e-19
-2.44949e-18
8.69156e-19
-2.3767e-18
1.24974e-18
-2.26438e-18
1.61447e-18
-2.14041e-18
1.95725e-18
-2.01272e-18
2.28241e-18
-1.88494e-18
2.59088e-18
-1.75404e-18
2.87673e-18
-1.61605e-18
3.13558e-18
-1.46782e-18
3.36573e-18
-1.3083e-18
3.56619e-18
-1.13842e-18
3.73548e-18
-9.60453e-19
3.87165e-18
-7.77085e-19
3.97293e-18
-5.90968e-19
4.0385e-18
-4.0473e-19
4.06857e-18
-2.2088e-19
4.06452e-18
-4.19254e-20
4.02908e-18
1.29509e-19
3.96524e-18
2.91337e-19
3.875e-18
4.42598e-19
3.76032e-18
5.82941e-19
3.6242e-18
7.11919e-19
3.46963e-18
8.29173e-19
3.29837e-18
9.3493e-19
3.1114e-18
1.02989e-18
2.91038e-18
1.11461e-18
2.69793e-18
1.1892e-18
2.47666e-18
1.25358e-18
2.24815e-18
1.3079e-18
2.01297e-18
1.3527e-18
1.77131e-18
1.38884e-18
1.52381e-18
1.41735e-18
1.27183e-18
1.43934e-18
1.01732e-18
1.45601e-18
7.62159e-19
1.46851e-18
5.07431e-19
1.47771e-18
2.53234e-19
1.48411e-18
1.48803e-18
3.74087e-11
-1.72978e-10
3.35953e-11
-1.64119e-10
4.35137e-11
-1.51129e-10
3.46486e-11
-9.48647e-11
-1.3498e-11
1.96393e-11
-1.56664e-10
2.8551e-10
-3.88384e-10
5.6544e-10
-6.19485e-10
8.21269e-10
-9.00253e-10
1.10721e-09
-1.22834e-09
1.26841e-09
-1.42785e-09
1.13481e-09
-1.46676e-09
1.0598e-09
-1.50872e-09
9.92547e-10
-1.53247e-09
7.53174e-10
-1.64312e-09
6.02744e-10
-1.76294e-09
2.13567e-10
-1.82804e-09
-4.04007e-13
-1.85426e-09
-1.12585e-10
-1.90499e-09
-1.03259e-10
-1.8958e-09
-2.97998e-11
-1.88061e-09
7.88604e-11
-1.93211e-09
5.52085e-10
-1.9058e-09
6.35222e-10
-1.88214e-09
6.94713e-10
-1.82615e-09
7.65912e-10
-1.7962e-09
8.92569e-10
-1.7991e-09
9.52825e-10
-1.75048e-09
6.68541e-10
-1.70084e-09
6.86247e-10
-1.70488e-09
5.08443e-10
-1.68422e-09
4.58066e-10
-1.68496e-09
3.54701e-10
-1.65739e-09
2.83806e-10
-1.65139e-09
2.41976e-10
-1.65365e-09
1.92913e-10
-1.68881e-09
1.07544e-10
-1.68765e-09
1.49715e-11
-1.70191e-09
5.94936e-11
-1.71192e-09
2.64099e-11
-1.69293e-09
-5.63744e-11
-1.65874e-09
-2.03469e-11
-1.64208e-09
-1.60823e-11
-1.56764e-09
-7.86738e-11
-1.45807e-09
-1.55873e-10
-1.35283e-09
-2.44717e-10
-1.25564e-09
-4.82546e-10
-1.16276e-09
-1.01683e-09
-8.54646e-10
-1.38161e-09
-4.09552e-10
-1.76448e-09
-1.11082e-10
-2.01653e-09
7.57637e-11
-2.09163e-09
3.60438e-10
-2.13728e-09
5.46345e-10
-2.0657e-09
7.40227e-10
-1.91438e-09
9.08035e-10
-1.68242e-09
1.14887e-09
-1.38778e-09
1.38803e-09
-1.15319e-09
1.48065e-09
-5.71766e-10
1.63922e-09
-3.96211e-10
1.76827e-09
-1.80868e-10
1.75059e-09
2.61873e-10
1.65513e-09
4.82134e-10
1.55278e-09
5.76665e-10
1.45383e-09
4.37148e-10
1.36803e-09
2.76318e-10
1.29046e-09
1.53974e-10
1.26273e-09
-8.78949e-11
1.25549e-09
-1.50639e-10
1.22242e-09
-1.59594e-10
1.17581e-09
-1.77669e-10
1.13455e-09
-1.54946e-10
1.09392e-09
-1.74454e-10
1.03429e-09
-1.72476e-10
9.57261e-10
-1.99015e-10
8.37097e-10
-6.52907e-11
7.0498e-10
-2.13264e-10
6.59294e-10
1.58897e-11
5.7949e-10
4.58872e-10
4.82522e-10
7.66476e-10
2.92324e-10
1.03381e-09
-9.36058e-16
1.73701e-09
1.66255e-19
-5.29501e-19
5.70495e-19
-2.85675e-18
9.81836e-19
-2.79154e-18
1.37407e-18
-2.66046e-18
1.74251e-18
-2.51229e-18
2.08522e-18
-2.36235e-18
2.41331e-18
-2.21568e-18
2.72887e-18
-2.06645e-18
3.02496e-18
-1.90881e-18
3.2951e-18
-1.73815e-18
3.53561e-18
-1.55249e-18
3.74416e-18
-1.35255e-18
3.91884e-18
-1.14101e-18
4.05776e-18
-9.21471e-19
4.15917e-18
-6.97715e-19
4.22235e-18
-4.73572e-19
4.24753e-18
-2.52441e-19
4.23595e-18
-3.73799e-20
4.19091e-18
1.68379e-19
4.1165e-18
3.62032e-19
4.01534e-18
5.42194e-19
3.8893e-18
7.08536e-19
3.74145e-18
8.60741e-19
3.57539e-18
9.98382e-19
3.39333e-18
1.12154e-18
3.19612e-18
1.23095e-18
2.98498e-18
1.32748e-18
2.76232e-18
1.41163e-18
2.53097e-18
1.48365e-18
2.29295e-18
1.54394e-18
2.04912e-18
1.59339e-18
1.79982e-18
1.63327e-18
1.5458e-18
1.66501e-18
1.2885e-18
1.69003e-18
1.02981e-18
1.70961e-18
7.71357e-19
1.72477e-18
5.13833e-19
1.73618e-18
2.57153e-19
1.74419e-18
1.749e-18
1.23046e-11
-1.8528e-10
2.98594e-11
-1.8167e-10
5.26796e-11
-1.73947e-10
7.31638e-11
-1.15347e-10
-1.391e-11
1.06714e-10
-1.76956e-10
4.48556e-10
-3.81414e-10
7.69897e-10
-6.5036e-10
1.09021e-09
-8.30529e-10
1.28738e-09
-9.88232e-10
1.42611e-09
-1.19828e-09
1.34485e-09
-1.37326e-09
1.23478e-09
-1.50086e-09
1.12014e-09
-1.56815e-09
8.2047e-10
-1.6348e-09
6.69392e-10
-1.85949e-09
4.3825e-10
-1.93166e-09
7.17679e-11
-1.97796e-09
-6.62876e-11
-2.02154e-09
-5.96832e-11
-2.03735e-09
-1.39933e-11
-2.00301e-09
4.45235e-11
-1.91125e-09
4.60318e-10
-1.86543e-09
5.89403e-10
-1.81272e-09
6.41997e-10
-1.7432e-09
6.96387e-10
-1.64996e-09
7.99329e-10
-1.53594e-09
8.38805e-10
-1.54418e-09
6.76773e-10
-1.46626e-09
6.08329e-10
-1.45016e-09
4.92336e-10
-1.43431e-09
4.42214e-10
-1.43065e-09
3.51038e-10
-1.43663e-09
2.89787e-10
-1.43775e-09
2.43097e-10
-1.44979e-09
2.04944e-10
-1.47675e-09
1.34502e-10
-1.52232e-09
6.05489e-11
-1.51692e-09
5.40909e-11
-1.51156e-09
2.10461e-11
-1.48308e-09
-8.48551e-11
-1.41256e-09
-9.08682e-11
-1.35075e-09
-7.7895e-11
-1.2293e-09
-2.0012e-10
-1.08108e-09
-3.04097e-10
-9.60288e-10
-3.65506e-10
-8.1963e-10
-6.23205e-10
-6.66478e-10
-1.16998e-09
-4.1391e-10
-1.63418e-09
-2.27061e-10
-1.95133e-09
-1.05236e-11
-2.23306e-09
2.18219e-10
-2.32036e-09
4.67908e-10
-2.38697e-09
6.58018e-10
-2.25581e-09
7.6595e-10
-2.02231e-09
9.10631e-10
-1.8271e-09
1.07395e-09
-1.5511e-09
1.26386e-09
-1.34311e-09
1.32299e-09
-6.30889e-10
1.57855e-09
-6.51781e-10
1.64485e-09
-2.47164e-10
1.75636e-09
1.50359e-10
1.76678e-09
4.71704e-10
1.74825e-09
5.95195e-10
1.66171e-09
5.23683e-10
1.54614e-09
3.91885e-10
1.44022e-09
2.59896e-10
1.38023e-09
-2.79091e-11
1.37075e-09
-1.41164e-10
1.35897e-09
-1.47813e-10
1.33095e-09
-1.4964e-10
1.30106e-09
-1.25057e-10
1.24266e-09
-1.16045e-10
1.17124e-09
-1.01057e-10
1.09824e-09
-1.2602e-10
1.03474e-09
-1.78644e-12
9.07366e-10
-8.58878e-11
8.1501e-10
1.08247e-10
6.44389e-10
6.29496e-10
4.90103e-10
9.20765e-10
2.99821e-10
1.2241e-09
-2.06045e-15
2.03683e-09
8.58116e-20
-2.13796e-19
6.36028e-19
-3.41001e-18
1.11323e-18
-3.27273e-18
1.52255e-18
-3.07525e-18
1.89276e-18
-2.88682e-18
2.23202e-18
-2.71556e-18
2.56253e-18
-2.55501e-18
2.88651e-18
-2.39229e-18
3.19562e-18
-2.21728e-18
3.48077e-18
-2.02389e-18
3.73555e-18
-1.81002e-18
3.95569e-18
-1.57694e-18
4.13839e-18
-1.32822e-18
4.28152e-18
-1.06856e-18
4.38331e-18
-8.03083e-19
4.44348e-18
-5.37161e-19
4.46259e-18
-2.75392e-19
4.44171e-18
-2.14897e-20
4.38457e-18
2.20748e-19
4.29666e-18
4.47746e-19
4.18168e-18
6.57528e-19
4.04151e-18
8.49713e-19
3.87909e-18
1.02428e-18
3.69854e-18
1.18104e-18
3.50274e-18
1.32015e-18
3.29266e-18
1.44252e-18
3.06913e-18
1.54941e-18
2.83433e-18
1.64189e-18
2.59126e-18
1.72067e-18
2.3424e-18
1.78651e-18
2.08899e-18
1.84056e-18
1.83157e-18
1.88432e-18
1.57082e-18
1.9195e-18
1.30808e-18
1.94769e-18
1.04497e-18
1.97018e-18
7.82766e-19
1.98786e-18
5.21849e-19
2.00123e-18
2.61966e-19
2.01055e-18
2.01589e-18
3.15045e-11
-2.16783e-10
5.07517e-11
-2.00915e-10
5.38138e-11
-1.77007e-10
3.62319e-12
-6.5156e-11
-1.38832e-10
2.4917e-10
-3.58684e-10
6.68408e-10
-5.47555e-10
9.58767e-10
-7.56511e-10
1.29917e-09
-9.65311e-10
1.49618e-09
-1.10956e-09
1.57036e-09
-1.26733e-09
1.50262e-09
-1.38615e-09
1.3536e-09
-1.50184e-09
1.23583e-09
-1.57052e-09
8.89148e-10
-1.52197e-09
6.20846e-10
-1.6726e-09
5.88877e-10
-1.85614e-09
2.55306e-10
-2.01092e-09
8.8495e-11
-2.11617e-09
4.55598e-11
-2.12645e-09
-3.71546e-12
-2.16491e-09
8.29767e-11
-1.98179e-09
2.77198e-10
-1.88086e-09
4.88471e-10
-1.7989e-09
5.60032e-10
-1.73452e-09
6.32007e-10
-1.64217e-09
7.06979e-10
-1.49984e-09
6.96463e-10
-1.4341e-09
6.11035e-10
-1.36186e-09
5.36083e-10
-1.34136e-09
4.7183e-10
-1.3222e-09
4.23053e-10
-1.30365e-09
3.32486e-10
-1.29867e-09
2.84807e-10
-1.3146e-09
2.59024e-10
-1.33239e-09
2.22731e-10
-1.34545e-09
1.4756e-10
-1.39058e-09
1.05686e-10
-1.40483e-09
6.83405e-11
-1.38155e-09
-2.24222e-12
-1.29817e-09
-1.68227e-10
-1.15764e-09
-2.314e-10
-1.03661e-09
-1.98931e-10
-9.1979e-10
-3.16936e-10
-7.90721e-10
-4.33166e-10
-6.91853e-10
-4.64373e-10
-5.64047e-10
-7.5101e-10
-4.64545e-10
-1.26948e-09
-3.52939e-10
-1.74578e-09
-1.68667e-10
-2.1356e-09
4.32407e-11
-2.44496e-09
2.78581e-10
-2.5557e-09
4.45991e-10
-2.55437e-09
5.44162e-10
-2.35398e-09
6.10582e-10
-2.08872e-09
7.21089e-10
-1.93761e-09
8.77578e-10
-1.70758e-09
9.94504e-10
-1.46003e-09
1.23395e-09
-8.70341e-10
1.29087e-09
-7.08698e-10
1.31815e-09
-2.74454e-10
1.4696e-09
-1.09381e-12
1.60887e-09
3.3242e-10
1.64799e-09
5.56073e-10
1.63951e-09
5.32156e-10
1.58871e-09
4.4268e-10
1.53027e-09
3.18336e-10
1.47628e-09
2.60729e-11
1.44744e-09
-1.12323e-10
1.44375e-09
-1.44125e-10
1.42807e-09
-1.33958e-10
1.41033e-09
-1.07323e-10
1.37476e-09
-8.04738e-11
1.31759e-09
-4.38854e-11
1.23722e-09
-4.56486e-11
1.16829e-09
6.71442e-11
1.05448e-09
2.7919e-11
8.51751e-10
3.10982e-10
6.78833e-10
8.02418e-10
5.59767e-10
1.03983e-09
3.81828e-10
1.40204e-09
-2.63966e-15
2.41867e-09
-9.61385e-20
-8.55943e-19
7.7358e-19
-4.28177e-18
1.31098e-18
-3.81383e-18
1.71125e-18
-3.4804e-18
2.0643e-18
-3.23988e-18
2.39265e-18
-3.05949e-18
2.72525e-18
-2.89816e-18
3.06151e-18
-2.73117e-18
3.38902e-18
-2.54365e-18
3.69463e-18
-2.32828e-18
3.96863e-18
-2.08384e-18
4.20441e-18
-1.81332e-18
4.39806e-18
-1.52227e-18
4.54699e-18
-1.21717e-18
4.64924e-18
-9.04881e-19
4.70525e-18
-5.92653e-19
4.71649e-18
-2.86615e-19
4.68395e-18
8.77096e-21
4.61156e-18
2.89341e-19
4.50645e-18
5.50955e-19
4.37387e-18
7.91014e-19
4.21607e-18
1.00896e-18
4.03585e-18
1.2051e-18
3.83765e-18
1.37974e-18
3.62511e-18
1.53342e-18
3.39955e-18
1.66735e-18
3.16161e-18
1.78327e-18
2.91311e-18
1.88285e-18
2.65711e-18
1.96741e-18
2.39644e-18
2.03813e-18
2.13276e-18
2.09639e-18
1.86675e-18
2.14384e-18
1.59901e-18
2.18229e-18
1.33056e-18
2.21337e-18
1.06265e-18
2.23836e-18
7.96143e-19
2.25805e-18
5.31167e-19
2.27286e-18
2.67305e-19
2.28298e-18
2.28844e-18
5.80495e-11
-2.74831e-10
1.03834e-10
-2.46699e-10
9.69625e-11
-1.70136e-10
4.41815e-11
-1.23749e-11
-1.05363e-10
3.98714e-10
-3.70573e-10
9.33618e-10
-6.9207e-10
1.28026e-09
-9.03543e-10
1.51064e-09
-1.08518e-09
1.67781e-09
-1.21115e-09
1.69633e-09
-1.35887e-09
1.65034e-09
-1.37133e-09
1.36606e-09
-1.34266e-09
1.20716e-09
-1.40919e-09
9.55673e-10
-1.48412e-09
6.9578e-10
-1.51243e-09
6.17181e-10
-1.70084e-09
4.4372e-10
-1.91119e-09
2.98844e-10
-2.10953e-09
2.43893e-10
-2.10657e-09
-6.67943e-12
-2.20302e-09
1.79432e-10
-2.15433e-09
2.285e-10
-2.01129e-09
3.4543e-10
-1.88257e-09
4.31306e-10
-1.76795e-09
5.1738e-10
-1.6637e-09
6.02726e-10
-1.5528e-09
5.85565e-10
-1.47184e-09
5.3007e-10
-1.40578e-09
4.7002e-10
-1.36173e-09
4.27775e-10
-1.34199e-09
4.0331e-10
-1.31708e-09
3.07571e-10
-1.30288e-09
2.70605e-10
-1.32224e-09
2.78381e-10
-1.34818e-09
2.48671e-10
-1.35311e-09
1.52488e-10
-1.35369e-09
1.06268e-10
-1.30086e-09
1.55137e-11
-1.21977e-09
-8.3333e-11
-1.11302e-09
-2.74977e-10
-9.54377e-10
-3.90046e-10
-8.21512e-10
-3.31797e-10
-7.04003e-10
-4.34445e-10
-6.42957e-10
-4.94212e-10
-5.4244e-10
-5.64889e-10
-3.59987e-10
-9.33461e-10
-3.16109e-10
-1.31335e-09
-3.05812e-10
-1.75608e-09
-1.70227e-10
-2.27118e-09
-4.90328e-11
-2.56615e-09
1.20858e-10
-2.72559e-09
2.73584e-10
-2.70709e-09
3.04113e-10
-2.3845e-09
3.06193e-10
-2.0908e-09
3.53037e-10
-1.98445e-09
5.09015e-10
-1.86356e-09
5.09014e-10
-1.46003e-09
7.03262e-10
-1.06459e-09
8.15051e-10
-8.20492e-10
9.40395e-10
-3.99804e-10
1.07684e-09
-1.37548e-10
1.26095e-09
1.48302e-10
1.43096e-09
3.86064e-10
1.44934e-09
5.13768e-10
1.53989e-09
3.52126e-10
1.5472e-09
3.1102e-10
1.53225e-09
4.10205e-11
1.50224e-09
-8.23146e-11
1.50309e-09
-1.44988e-10
1.49857e-09
-1.29438e-10
1.49986e-09
-1.08617e-10
1.47605e-09
-5.66605e-11
1.43215e-09
1.14664e-14
1.36694e-09
1.95509e-11
1.29293e-09
1.4116e-10
1.1335e-09
1.87351e-10
9.57438e-10
4.87043e-10
7.96498e-10
9.63362e-10
6.43932e-10
1.1924e-09
3.97234e-10
1.64874e-09
-2.75857e-15
2.81591e-09
6.92092e-19
1.05799e-18
1.24171e-18
-4.8306e-18
1.64462e-18
-4.21687e-18
1.95198e-18
-3.78069e-18
2.24493e-18
-3.52015e-18
2.55401e-18
-3.36525e-18
2.89224e-18
-3.23416e-18
3.24904e-18
-3.08309e-18
3.60439e-18
-2.893e-18
3.93907e-18
-2.65821e-18
4.23914e-18
-2.38087e-18
4.49546e-18
-2.06766e-18
4.70316e-18
-1.72768e-18
4.85928e-18
-1.37032e-18
4.96146e-18
-1.00479e-18
5.01128e-18
-6.40635e-19
5.01188e-18
-2.859e-19
4.96452e-18
5.40102e-20
4.87318e-18
3.74789e-19
4.7465e-18
6.72208e-19
4.59181e-18
9.4333e-19
4.41221e-18
1.18738e-18
4.21049e-18
1.40492e-18
3.99133e-18
1.59685e-18
3.75904e-18
1.76428e-18
3.51547e-18
1.90886e-18
3.26118e-18
2.03282e-18
2.99767e-18
2.13839e-18
2.72783e-18
2.22755e-18
2.4547e-18
2.30199e-18