/*--------------------------------*- C++ -*----------------------------------*\
  =========                 |
  \\      /  F ield         | OpenFOAM: The Open Source CFD Toolbox
   \\    /   O peration     | Website:  https://openfoam.org
    \\  /    A nd           | Version:  6
     \\/     M anipulation  |
\*---------------------------------------------------------------------------*/
FoamFile
{
    version     2.0;
    format      ascii;
    class       volVectorField;
    location    "800";
    object      U;
}
// * * * * * * * * * * * * * * * * * * * * * * * * * * * * * * * * * * * * * //

dimensions      [0 1 -1 0 0 0 0];

internalField   nonuniform List<vector> 
4800
(
(-2.67818e-08 0 2.77533e-08)
(-8.19363e-08 0 2.555e-08)
(-1.35317e-07 0 2.42318e-08)
(-1.87232e-07 0 2.31238e-08)
(-2.36942e-07 0 2.19292e-08)
(-2.83886e-07 0 2.05666e-08)
(-3.27558e-07 0 1.90206e-08)
(-3.6752e-07 0 1.73002e-08)
(-4.034e-07 0 1.54223e-08)
(-4.34894e-07 0 1.34073e-08)
(-4.61779e-07 0 1.12897e-08)
(-4.839e-07 0 9.0888e-09)
(-5.01174e-07 0 6.84375e-09)
(-5.1361e-07 0 4.56317e-09)
(-5.21198e-07 0 2.32468e-09)
(-5.24181e-07 0 1.70589e-10)
(-5.22681e-07 0 -1.90413e-09)
(-5.17029e-07 0 -3.97506e-09)
(-5.07106e-07 0 -5.99106e-09)
(-4.93459e-07 0 -7.61934e-09)
(-4.76871e-07 0 -8.87009e-09)
(-4.56988e-07 0 -1.09077e-08)
(-4.34039e-07 0 -1.19477e-08)
(-4.09059e-07 0 -1.29717e-08)
(-3.82103e-07 0 -1.39042e-08)
(-3.53436e-07 0 -1.46236e-08)
(-3.23558e-07 0 -1.51404e-08)
(-2.9277e-07 0 -1.55062e-08)
(-2.61385e-07 0 -1.57169e-08)
(-2.29699e-07 0 -1.57888e-08)
(-1.97989e-07 0 -1.57253e-08)
(-1.66514e-07 0 -1.55427e-08)
(-1.35509e-07 0 -1.52438e-08)
(-1.05188e-07 0 -1.48577e-08)
(-7.5722e-08 0 -1.43815e-08)
(-4.72738e-08 0 -1.38352e-08)
(-1.99827e-08 0 -1.32293e-08)
(6.02969e-09 0 -1.25674e-08)
(3.07084e-08 0 -1.18804e-08)
(5.39524e-08 0 -1.11549e-08)
(7.57257e-08 0 -1.04157e-08)
(9.59978e-08 0 -9.65993e-09)
(1.14744e-07 0 -8.90468e-09)
(1.31966e-07 0 -8.14428e-09)
(1.47662e-07 0 -7.39396e-09)
(1.61868e-07 0 -6.65792e-09)
(1.7459e-07 0 -5.93387e-09)
(1.8587e-07 0 -5.22188e-09)
(1.95741e-07 0 -4.53916e-09)
(2.04245e-07 0 -3.86821e-09)
(2.11424e-07 0 -3.22516e-09)
(2.17322e-07 0 -2.6e-09)
(2.21978e-07 0 -1.99445e-09)
(2.25431e-07 0 -1.40724e-09)
(2.27716e-07 0 -8.36563e-10)
(2.28876e-07 0 -2.95934e-10)
(2.28965e-07 0 2.36414e-10)
(2.27983e-07 0 7.49386e-10)
(2.26004e-07 0 1.24356e-09)
(2.2303e-07 0 1.71794e-09)
(2.19118e-07 0 2.18341e-09)
(2.14285e-07 0 2.62032e-09)
(2.08583e-07 0 3.0468e-09)
(2.02035e-07 0 3.45282e-09)
(1.94685e-07 0 3.83904e-09)
(1.86583e-07 0 4.19519e-09)
(1.77778e-07 0 4.52864e-09)
(1.68328e-07 0 4.82983e-09)
(1.58311e-07 0 5.08318e-09)
(1.47818e-07 0 5.29808e-09)
(1.3695e-07 0 5.44494e-09)
(1.25865e-07 0 5.50835e-09)
(1.14809e-07 0 5.41896e-09)
(1.0428e-07 0 5.02941e-09)
(9.54683e-08 0 3.79349e-09)
(9.1973e-08 0 -1.9825e-10)
(1.03755e-07 0 -1.26319e-08)
(5.19501e-08 0 3.11075e-08)
(-2.15531e-11 0 2.43695e-08)
(8.58298e-15 0 -5.76701e-15)
(8.66369e-16 0 -7.44463e-19)
(1.73038e-15 0 1.91286e-18)
(1.72364e-15 0 4.3944e-18)
(1.71152e-15 0 6.8139e-18)
(1.69465e-15 0 9.15069e-18)
(1.67322e-15 0 1.13944e-17)
(1.6475e-15 0 1.35141e-17)
(1.61775e-15 0 1.54993e-17)
(1.58428e-15 0 1.73501e-17)
(1.54738e-15 0 1.90252e-17)
(1.5073e-15 0 2.05141e-17)
(1.46442e-15 0 2.18686e-17)
(1.4191e-15 0 2.30577e-17)
(1.37166e-15 0 2.4071e-17)
(1.32243e-15 0 2.49498e-17)
(1.27175e-15 0 2.56736e-17)
(1.21986e-15 0 2.6232e-17)
(1.16705e-15 0 2.66869e-17)
(1.11357e-15 0 2.70178e-17)
(1.05965e-15 0 2.72866e-17)
(1.00549e-15 0 2.74417e-17)
(9.51237e-16 0 2.75244e-17)
(8.97067e-16 0 2.75451e-17)
(8.43104e-16 0 2.75348e-17)
(7.89379e-16 0 2.74934e-17)
(7.35994e-16 0 2.7421e-17)
(6.83013e-16 0 2.7328e-17)
(6.30477e-16 0 2.72349e-17)
(5.78385e-16 0 2.71419e-17)
(5.26728e-16 0 2.70695e-17)
(4.75505e-16 0 2.69868e-17)
(4.24644e-16 0 2.69041e-17)
(3.74134e-16 0 2.68627e-17)
(3.23976e-16 0 2.67903e-17)
(2.74097e-16 0 2.67696e-17)
(2.24424e-16 0 2.67593e-17)
(1.74907e-16 0 2.678e-17)
(1.25442e-16 0 2.6842e-17)
(7.58215e-17 0 2.70385e-17)
(2.54668e-17 0 2.76382e-17)
(-2.7038e-08 0 8.25853e-08)
(-8.28351e-08 0 8.32402e-08)
(-1.36999e-07 0 8.17997e-08)
(-1.89607e-07 0 7.897e-08)
(-2.39928e-07 0 7.5108e-08)
(-2.87404e-07 0 7.03775e-08)
(-3.31536e-07 0 6.48957e-08)
(-3.71883e-07 0 5.87804e-08)
(-4.08063e-07 0 5.21419e-08)
(-4.39775e-07 0 4.5109e-08)
(-4.66797e-07 0 3.78046e-08)
(-4.88975e-07 0 3.03322e-08)
(-5.06226e-07 0 2.28118e-08)
(-5.18561e-07 0 1.53041e-08)
(-5.25997e-07 0 8.06808e-09)
(-5.28793e-07 0 1.18956e-09)
(-5.2706e-07 0 -5.34518e-09)
(-5.21103e-07 0 -1.18392e-08)
(-5.10843e-07 0 -1.80075e-08)
(-4.96915e-07 0 -2.29459e-08)
(-4.79986e-07 0 -2.68527e-08)
(-4.59642e-07 0 -3.29323e-08)
(-4.36384e-07 0 -3.61252e-08)
(-4.11042e-07 0 -3.92131e-08)
(-3.83717e-07 0 -4.20797e-08)
(-3.54695e-07 0 -4.42417e-08)
(-3.24489e-07 0 -4.58273e-08)
(-2.9338e-07 0 -4.69482e-08)
(-2.61686e-07 0 -4.76069e-08)
(-2.29713e-07 0 -4.78323e-08)
(-1.97747e-07 0 -4.76511e-08)
(-1.66047e-07 0 -4.71011e-08)
(-1.34838e-07 0 -4.62158e-08)
(-1.04331e-07 0 -4.50466e-08)
(-7.47068e-08 0 -4.36126e-08)
(-4.612e-08 0 -4.19645e-08)
(-1.87144e-08 0 -4.01285e-08)
(7.38806e-09 0 -3.81243e-08)
(3.21335e-08 0 -3.60392e-08)
(5.54272e-08 0 -3.3851e-08)
(7.72355e-08 0 -3.16002e-08)
(9.75234e-08 0 -2.93139e-08)
(1.16272e-07 0 -2.70201e-08)
(1.33484e-07 0 -2.47167e-08)
(1.49165e-07 0 -2.24442e-08)
(1.63346e-07 0 -2.02049e-08)
(1.76034e-07 0 -1.80133e-08)
(1.87285e-07 0 -1.58598e-08)
(1.97123e-07 0 -1.37831e-08)
(2.05588e-07 0 -1.17508e-08)
(2.12727e-07 0 -9.79917e-09)
(2.18579e-07 0 -7.89985e-09)
(2.23186e-07 0 -6.06722e-09)
(2.26597e-07 0 -4.28981e-09)
(2.28844e-07 0 -2.56092e-09)
(2.29967e-07 0 -9.22724e-10)
(2.3002e-07 0 6.86557e-10)
(2.29007e-07 0 2.24126e-09)
(2.26995e-07 0 3.741e-09)
(2.23984e-07 0 5.18088e-09)
(2.20041e-07 0 6.58999e-09)
(2.15178e-07 0 7.92376e-09)
(2.09435e-07 0 9.22788e-09)
(2.0284e-07 0 1.04653e-08)
(1.95444e-07 0 1.16471e-08)
(1.87284e-07 0 1.27459e-08)
(1.78415e-07 0 1.3767e-08)
(1.689e-07 0 1.46967e-08)
(1.58799e-07 0 1.54926e-08)
(1.482e-07 0 1.61656e-08)
(1.37183e-07 0 1.66623e-08)
(1.25843e-07 0 1.69359e-08)
(1.14286e-07 0 1.68502e-08)
(1.02563e-07 0 1.60954e-08)
(9.03592e-08 0 1.38699e-08)
(7.60041e-08 0 8.00936e-09)
(4.98795e-08 0 -7.8826e-09)
(3.15822e-08 0 7.19584e-08)
(-2.46412e-11 0 6.05648e-08)
(8.66286e-15 0 -1.80469e-14)
(8.69027e-16 0 -2.31611e-18)
(1.73552e-15 0 5.44905e-18)
(1.72854e-15 0 1.29144e-17)
(1.71628e-15 0 2.02142e-17)
(1.69924e-15 0 2.72763e-17)
(1.67758e-15 0 3.40592e-17)
(1.6516e-15 0 4.04698e-17)
(1.62158e-15 0 4.64669e-17)
(1.58778e-15 0 5.20297e-17)
(1.55054e-15 0 5.70961e-17)
(1.51016e-15 0 6.16456e-17)
(1.46696e-15 0 6.57195e-17)
(1.42131e-15 0 6.92971e-17)
(1.37356e-15 0 7.23576e-17)
(1.32404e-15 0 7.49943e-17)
(1.27304e-15 0 7.72173e-17)
(1.22089e-15 0 7.89854e-17)
(1.16783e-15 0 8.03916e-17)
(1.11415e-15 0 8.14773e-17)
(1.06005e-15 0 8.22838e-17)
(1.00573e-15 0 8.28111e-17)
(9.51351e-16 0 8.3142e-17)
(8.97088e-16 0 8.32868e-17)
(8.43052e-16 0 8.33385e-17)
(7.89254e-16 0 8.32764e-17)
(7.35829e-16 0 8.31523e-17)
(6.82848e-16 0 8.29972e-17)
(6.30291e-16 0 8.28318e-17)
(5.7821e-16 0 8.2625e-17)
(5.26583e-16 0 8.24699e-17)
(4.7535e-16 0 8.22941e-17)
(4.24509e-16 0 8.21287e-17)
(3.7403e-16 0 8.2046e-17)
(3.23883e-16 0 8.19633e-17)
(2.74055e-16 0 8.19322e-17)
(2.24445e-16 0 8.19426e-17)
(1.7499e-16 0 8.20046e-17)
(1.257e-16 0 8.21287e-17)
(7.66176e-17 0 8.24182e-17)
(2.60665e-17 0 8.31006e-17)
(-2.79117e-08 0 1.38197e-07)
(-8.51756e-08 0 1.36461e-07)
(-1.40361e-07 0 1.33078e-07)
(-1.93981e-07 0 1.28162e-07)
(-2.45305e-07 0 1.21803e-07)
(-2.93729e-07 0 1.14125e-07)
(-3.3871e-07 0 1.05256e-07)
(-3.7978e-07 0 9.53704e-08)
(-4.16561e-07 0 8.46268e-08)
(-4.48741e-07 0 7.32222e-08)
(-4.76086e-07 0 6.13413e-08)
(-4.98445e-07 0 4.9159e-08)
(-5.15745e-07 0 3.68484e-08)
(-5.27987e-07 0 2.45182e-08)
(-5.35219e-07 0 1.26448e-08)
(-5.37725e-07 0 1.28237e-09)
(-5.3561e-07 0 -9.53124e-09)
(-5.29117e-07 0 -2.04785e-08)
(-5.18247e-07 0 -3.05609e-08)
(-5.03809e-07 0 -3.85842e-08)
(-4.8619e-07 0 -4.57862e-08)
(-4.64934e-07 0 -5.53413e-08)
(-4.41056e-07 0 -6.08126e-08)
(-4.14985e-07 0 -6.59218e-08)
(-3.86912e-07 0 -7.07804e-08)
(-3.57182e-07 0 -7.42697e-08)
(-3.26309e-07 0 -7.69085e-08)
(-2.94558e-07 0 -7.87417e-08)
(-2.62264e-07 0 -7.98086e-08)
(-2.29737e-07 0 -8.01336e-08)
(-1.97263e-07 0 -7.97855e-08)
(-1.65091e-07 0 -7.8829e-08)
(-1.33458e-07 0 -7.7318e-08)
(-1.02583e-07 0 -7.53216e-08)
(-7.26393e-08 0 -7.28924e-08)
(-4.37893e-08 0 -7.01014e-08)
(-1.61659e-08 0 -6.70068e-08)
(1.01142e-08 0 -6.36299e-08)
(3.50074e-08 0 -6.01262e-08)
(5.83973e-08 0 -5.64503e-08)
(8.02682e-08 0 -5.26706e-08)
(1.00593e-07 0 -4.88394e-08)
(1.1934e-07 0 -4.49892e-08)
(1.36534e-07 0 -4.11442e-08)
(1.52181e-07 0 -3.73493e-08)
(1.66311e-07 0 -3.36002e-08)
(1.78927e-07 0 -2.99402e-08)
(1.90101e-07 0 -2.63605e-08)
(1.99857e-07 0 -2.28849e-08)
(2.08238e-07 0 -1.95115e-08)
(2.15291e-07 0 -1.62493e-08)
(2.21056e-07 0 -1.30899e-08)
(2.2558e-07 0 -1.00372e-08)
(2.2891e-07 0 -7.08928e-09)
(2.31082e-07 0 -4.21201e-09)
(2.32137e-07 0 -1.49085e-09)
(2.32121e-07 0 1.18975e-09)
(2.31036e-07 0 3.76909e-09)
(2.28964e-07 0 6.26985e-09)
(2.25884e-07 0 8.66677e-09)
(2.21871e-07 0 1.10038e-08)
(2.1693e-07 0 1.32339e-08)
(2.11106e-07 0 1.54003e-08)
(2.04434e-07 0 1.74615e-08)
(1.96942e-07 0 1.94303e-08)
(1.88679e-07 0 2.12662e-08)
(1.79692e-07 0 2.29676e-08)
(1.70038e-07 0 2.45209e-08)
(1.59777e-07 0 2.58655e-08)
(1.48984e-07 0 2.701e-08)
(1.37715e-07 0 2.79146e-08)
(1.26028e-07 0 2.85022e-08)
(1.13939e-07 0 2.86953e-08)
(1.01294e-07 0 2.83504e-08)
(8.74792e-08 0 2.7339e-08)
(7.08662e-08 0 2.56249e-08)
(4.60693e-08 0 2.47094e-08)
(2.58488e-08 0 8.30336e-08)
(-2.5429e-11 0 8.15497e-08)
(8.47732e-15 0 -2.99113e-14)
(8.74134e-16 0 -3.80503e-18)
(1.74562e-15 0 8.87151e-18)
(1.73841e-15 0 2.14136e-17)
(1.72588e-15 0 3.36869e-17)
(1.70849e-15 0 4.5557e-17)
(1.68641e-15 0 5.691e-17)
(1.65991e-15 0 6.77047e-17)
(1.62931e-15 0 7.7786e-17)
(1.5949e-15 0 8.71021e-17)
(1.557e-15 0 9.56221e-17)
(1.51594e-15 0 1.03263e-16)
(1.47207e-15 0 1.10077e-16)
(1.42576e-15 0 1.16043e-16)
(1.37738e-15 0 1.21203e-16)
(1.32729e-15 0 1.25587e-16)
(1.27575e-15 0 1.29257e-16)
(1.22305e-15 0 1.32246e-16)
(1.16954e-15 0 1.34624e-16)
(1.11545e-15 0 1.36485e-16)
(1.06097e-15 0 1.37829e-16)
(1.00634e-15 0 1.3877e-16)
(9.51723e-16 0 1.39401e-16)
(8.97274e-16 0 1.39742e-16)
(8.43083e-16 0 1.39866e-16)
(7.89192e-16 0 1.39845e-16)
(7.35726e-16 0 1.39721e-16)
(6.82693e-16 0 1.39545e-16)
(6.30105e-16 0 1.39339e-16)
(5.78024e-16 0 1.3908e-16)
(5.26397e-16 0 1.38853e-16)
(4.75184e-16 0 1.38635e-16)
(4.24385e-16 0 1.3847e-16)
(3.73968e-16 0 1.38367e-16)
(3.23872e-16 0 1.38325e-16)
(2.74076e-16 0 1.38315e-16)
(2.24507e-16 0 1.38325e-16)
(1.75104e-16 0 1.38398e-16)
(1.25856e-16 0 1.38491e-16)
(7.67934e-17 0 1.38656e-16)
(2.61596e-17 0 1.3877e-16)
(-2.88358e-08 0 1.96397e-07)
(-8.81093e-08 0 1.94046e-07)
(-1.45279e-07 0 1.89329e-07)
(-2.00765e-07 0 1.8236e-07)
(-2.53796e-07 0 1.73279e-07)
(-3.03749e-07 0 1.62292e-07)
(-3.50075e-07 0 1.49582e-07)
(-3.92286e-07 0 1.35416e-07)
(-4.2998e-07 0 1.2004e-07)
(-4.62842e-07 0 1.0372e-07)
(-4.90642e-07 0 8.67367e-08)
(-5.13232e-07 0 6.93394e-08)
(-5.30544e-07 0 5.178e-08)
(-5.4258e-07 0 3.41978e-08)
(-5.49443e-07 0 1.7394e-08)
(-5.51457e-07 0 1.23974e-09)
(-5.48689e-07 0 -1.40527e-08)
(-5.41272e-07 0 -2.98722e-08)
(-5.29478e-07 0 -4.38684e-08)
(-5.14314e-07 0 -5.48245e-08)
(-4.95552e-07 0 -6.58417e-08)
(-4.72878e-07 0 -7.84771e-08)
(-4.48074e-07 0 -8.63897e-08)
(-4.20887e-07 0 -9.35276e-08)
(-3.91671e-07 0 -1.00453e-07)
(-3.60897e-07 0 -1.05145e-07)
(-3.29009e-07 0 -1.08827e-07)
(-2.9629e-07 0 -1.11327e-07)
(-2.63088e-07 0 -1.1275e-07)
(-2.29716e-07 0 -1.13121e-07)
(-1.96461e-07 0 -1.12559e-07)
(-1.63586e-07 0 -1.11135e-07)
(-1.31328e-07 0 -1.08931e-07)
(-9.99067e-08 0 -1.06043e-07)
(-6.94893e-08 0 -1.02558e-07)
(-4.02323e-08 0 -9.85664e-08)
(-1.22809e-08 0 -9.41555e-08)
(1.42618e-08 0 -8.93527e-08)
(3.93621e-08 0 -8.43803e-08)
(6.28884e-08 0 -7.91607e-08)
(8.48517e-08 0 -7.38243e-08)
(1.05223e-07 0 -6.83995e-08)
(1.23972e-07 0 -6.29625e-08)
(1.41135e-07 0 -5.75509e-08)
(1.56715e-07 0 -5.22031e-08)
(1.70762e-07 0 -4.69311e-08)
(1.83282e-07 0 -4.17886e-08)
(1.94338e-07 0 -3.67652e-08)
(2.03969e-07 0 -3.18881e-08)
(2.1222e-07 0 -2.71663e-08)
(2.1914e-07 0 -2.25918e-08)
(2.24774e-07 0 -1.81717e-08)
(2.29175e-07 0 -1.3905e-08)
(2.32386e-07 0 -9.78555e-09)
(2.3444e-07 0 -5.76163e-09)
(2.35388e-07 0 -1.96215e-09)
(2.35257e-07 0 1.79982e-09)
(2.34074e-07 0 5.39339e-09)
(2.31903e-07 0 8.8986e-09)
(2.28733e-07 0 1.22579e-08)
(2.24608e-07 0 1.55337e-08)
(2.19579e-07 0 1.8667e-08)
(2.13647e-07 0 2.17061e-08)
(2.06854e-07 0 2.46128e-08)
(1.99227e-07 0 2.73884e-08)
(1.90809e-07 0 2.9987e-08)
(1.81646e-07 0 3.23985e-08)
(1.71795e-07 0 3.46038e-08)
(1.61305e-07 0 3.65414e-08)
(1.50237e-07 0 3.82052e-08)
(1.38657e-07 0 3.95766e-08)
(1.26624e-07 0 4.05705e-08)
(1.14155e-07 0 4.11905e-08)
(1.01192e-07 0 4.14696e-08)
(8.75562e-08 0 4.1616e-08)
(7.32186e-08 0 4.23898e-08)
(5.85763e-08 0 4.62144e-08)
(2.34914e-08 0 1.06843e-07)
(-2.60274e-11 0 9.92114e-08)
(8.70897e-15 0 -4.13544e-14)
(8.81724e-16 0 -5.2526e-18)
(1.76075e-15 0 1.26042e-17)
(1.75335e-15 0 3.03265e-17)
(1.74041e-15 0 4.76766e-17)
(1.72245e-15 0 6.44787e-17)
(1.69973e-15 0 8.05364e-17)
(1.67248e-15 0 9.57462e-17)
(1.64097e-15 0 1.09974e-16)
(1.60561e-15 0 1.23084e-16)
(1.5667e-15 0 1.35068e-16)
(1.52462e-15 0 1.45801e-16)
(1.47974e-15 0 1.55365e-16)
(1.43245e-15 0 1.63709e-16)
(1.38311e-15 0 1.70916e-16)
(1.33207e-15 0 1.77027e-16)
(1.2797e-15 0 1.82104e-16)
(1.22627e-15 0 1.86198e-16)
(1.17207e-15 0 1.89486e-16)
(1.11736e-15 0 1.92009e-16)
(1.06235e-15 0 1.9386e-16)
(1.0073e-15 0 1.95163e-16)
(9.52323e-16 0 1.9599e-16)
(8.97553e-16 0 1.96466e-16)
(8.43145e-16 0 1.96611e-16)
(7.8911e-16 0 1.96569e-16)
(7.35529e-16 0 1.96373e-16)
(6.82434e-16 0 1.96083e-16)
(6.29815e-16 0 1.95763e-16)
(5.77724e-16 0 1.95411e-16)
(5.26118e-16 0 1.9507e-16)
(4.74967e-16 0 1.9478e-16)
(4.2424e-16 0 1.94563e-16)
(3.73875e-16 0 1.94408e-16)
(3.23831e-16 0 1.94294e-16)
(2.74055e-16 0 1.94263e-16)
(2.24528e-16 0 1.94253e-16)
(1.75166e-16 0 1.94274e-16)
(1.25959e-16 0 1.94315e-16)
(7.68968e-17 0 1.94398e-16)
(2.61906e-17 0 1.94429e-16)
(-3.01383e-08 0 2.56699e-07)
(-9.21748e-08 0 2.53571e-07)
(-1.52014e-07 0 2.47346e-07)
(-2.10032e-07 0 2.3815e-07)
(-2.65392e-07 0 2.26175e-07)
(-3.17441e-07 0 2.11677e-07)
(-3.65592e-07 0 1.94927e-07)
(-4.09336e-07 0 1.76257e-07)
(-4.48256e-07 0 1.56019e-07)
(-4.82032e-07 0 1.34558e-07)
(-5.10431e-07 0 1.12252e-07)
(-5.33312e-07 0 8.94266e-08)
(-5.50605e-07 0 6.63963e-08)
(-5.62324e-07 0 4.33737e-08)
(-5.68698e-07 0 2.15392e-08)
(-5.70055e-07 0 5.03677e-10)
(-5.6627e-07 0 -1.93018e-08)
(-5.57596e-07 0 -4.07584e-08)
(-5.44705e-07 0 -5.79991e-08)
(-5.28313e-07 0 -7.08193e-08)
(-5.07871e-07 0 -8.93457e-08)
(-4.83671e-07 0 -1.02473e-07)
(-4.57424e-07 0 -1.13211e-07)
(-4.28709e-07 0 -1.22547e-07)
(-3.97967e-07 0 -1.31396e-07)
(-3.65813e-07 0 -1.37238e-07)
(-3.32533e-07 0 -1.41913e-07)
(-2.98508e-07 0 -1.45025e-07)
(-2.64078e-07 0 -1.46717e-07)
(-2.29571e-07 0 -1.47063e-07)
(-1.95273e-07 0 -1.46201e-07)
(-1.61462e-07 0 -1.44212e-07)
(-1.28375e-07 0 -1.4123e-07)
(-9.62162e-08 0 -1.37364e-07)
(-6.51651e-08 0 -1.32732e-07)
(-3.53736e-08 0 -1.27458e-07)
(-7.00326e-09 0 -1.2163e-07)
(1.98862e-08 0 -1.15356e-07)
(4.52551e-08 0 -1.0883e-07)
(6.89688e-08 0 -1.02002e-07)
(9.10253e-08 0 -9.50422e-08)
(1.11449e-07 0 -8.79827e-08)
(1.30195e-07 0 -8.09168e-08)
(1.4731e-07 0 -7.3897e-08)
(1.62804e-07 0 -6.69628e-08)
(1.76723e-07 0 -6.01518e-08)
(1.89105e-07 0 -5.35033e-08)
(1.99989e-07 0 -4.70261e-08)
(2.0946e-07 0 -4.07461e-08)
(2.17534e-07 0 -3.46641e-08)
(2.2428e-07 0 -2.8787e-08)
(2.29742e-07 0 -2.31021e-08)
(2.33974e-07 0 -1.76345e-08)
(2.3702e-07 0 -1.23434e-08)
(2.38913e-07 0 -7.1799e-09)
(2.3972e-07 0 -2.30626e-09)
(2.39447e-07 0 2.52321e-09)
(2.38141e-07 0 7.13484e-09)
(2.35827e-07 0 1.16206e-08)
(2.32553e-07 0 1.59711e-08)
(2.28279e-07 0 2.01673e-08)
(2.23119e-07 0 2.42139e-08)
(2.17037e-07 0 2.81385e-08)
(2.10087e-07 0 3.18938e-08)
(2.02293e-07 0 3.5502e-08)
(1.93678e-07 0 3.88775e-08)
(1.84293e-07 0 4.20172e-08)
(1.74181e-07 0 4.49193e-08)
(1.63403e-07 0 4.74795e-08)
(1.52006e-07 0 4.97126e-08)
(1.4006e-07 0 5.15661e-08)
(1.27651e-07 0 5.29943e-08)
(1.14858e-07 0 5.40021e-08)
(1.0178e-07 0 5.46859e-08)
(8.85343e-08 0 5.53288e-08)
(7.54774e-08 0 5.65041e-08)
(6.19949e-08 0 5.9965e-08)
(2.26685e-08 0 1.4395e-07)
(-2.65108e-11 0 1.17707e-07)
(8.60141e-15 0 -5.3321e-14)
(8.92011e-16 0 -6.80356e-18)
(1.78121e-15 0 1.65746e-17)
(1.77348e-15 0 3.96633e-17)
(1.76002e-15 0 6.22764e-17)
(1.74136e-15 0 8.41656e-17)
(1.71768e-15 0 1.05135e-16)
(1.68934e-15 0 1.24873e-16)
(1.65665e-15 0 1.43309e-16)
(1.61997e-15 0 1.60297e-16)
(1.5797e-15 0 1.75766e-16)
(1.53623e-15 0 1.89642e-16)
(1.48998e-15 0 2.01925e-16)
(1.44132e-15 0 2.12627e-16)
(1.39069e-15 0 2.21829e-16)
(1.33846e-15 0 2.29584e-16)
(1.28493e-15 0 2.36026e-16)
(1.23045e-15 0 2.41216e-16)
(1.17535e-15 0 2.45311e-16)
(1.11983e-15 0 2.48413e-16)
(1.06413e-15 0 2.50698e-16)
(1.00848e-15 0 2.52259e-16)
(9.53016e-16 0 2.532e-16)
(8.97894e-16 0 2.53738e-16)
(8.43197e-16 0 2.53851e-16)
(7.88955e-16 0 2.53727e-16)
(7.3524e-16 0 2.53417e-16)
(6.82062e-16 0 2.52962e-16)
(6.29422e-16 0 2.52497e-16)
(5.77331e-16 0 2.52001e-16)
(5.25756e-16 0 2.51535e-16)
(4.74678e-16 0 2.51142e-16)
(4.24023e-16 0 2.50812e-16)
(3.737e-16 0 2.50532e-16)
(3.23707e-16 0 2.50346e-16)
(2.74014e-16 0 2.50212e-16)
(2.24518e-16 0 2.50139e-16)
(1.75166e-16 0 2.50077e-16)
(1.2599e-16 0 2.50067e-16)
(7.69175e-17 0 2.50026e-16)
(2.61906e-17 0 2.49984e-16)
(-3.18549e-08 0 3.20083e-07)
(-9.7471e-08 0 3.16079e-07)
(-1.60694e-07 0 3.08189e-07)
(-2.21937e-07 0 2.96571e-07)
(-2.80284e-07 0 2.81464e-07)
(-3.35012e-07 0 2.63179e-07)
(-3.85491e-07 0 2.42082e-07)
(-4.31188e-07 0 2.18589e-07)
(-4.71668e-07 0 1.93146e-07)
(-5.06594e-07 0 1.66202e-07)
(-5.35727e-07 0 1.38224e-07)
(-5.58938e-07 0 1.0962e-07)
(-5.76144e-07 0 8.07924e-08)
(-5.87451e-07 0 5.20282e-08)
(-5.93271e-07 0 2.49327e-08)
(-5.93738e-07 0 -9.54396e-10)
(-5.88515e-07 0 -2.6666e-08)
(-5.78238e-07 0 -5.23266e-08)
(-5.64123e-07 0 -7.34504e-08)
(-5.45852e-07 0 -8.98741e-08)
(-5.23168e-07 0 -1.13089e-07)
(-4.9731e-07 0 -1.28369e-07)
(-4.69112e-07 0 -1.41729e-07)
(-4.38428e-07 0 -1.53458e-07)
(-4.0578e-07 0 -1.63775e-07)
(-3.71841e-07 0 -1.70975e-07)
(-3.36804e-07 0 -1.76515e-07)
(-3.0113e-07 0 -1.80153e-07)
(-2.65159e-07 0 -1.82017e-07)
(-2.29215e-07 0 -1.8224e-07)
(-1.93608e-07 0 -1.80958e-07)
(-1.5862e-07 0 -1.78284e-07)
(-1.24479e-07 0 -1.74409e-07)
(-9.14085e-08 0 -1.69451e-07)
(-5.95873e-08 0 -1.63559e-07)
(-2.91209e-08 0 -1.56875e-07)
(-2.45236e-10 0 -1.49519e-07)
(2.70806e-08 0 -1.41716e-07)
(5.27532e-08 0 -1.33511e-07)
(7.66888e-08 0 -1.24995e-07)
(9.88641e-08 0 -1.16337e-07)
(1.19337e-07 0 -1.07581e-07)
(1.38062e-07 0 -9.88307e-08)
(1.55094e-07 0 -9.01548e-08)
(1.70466e-07 0 -8.15964e-08)
(1.84219e-07 0 -7.32122e-08)
(1.9642e-07 0 -6.50286e-08)
(2.07073e-07 0 -5.70964e-08)
(2.16321e-07 0 -4.94023e-08)
(2.24173e-07 0 -4.19579e-08)
(2.30688e-07 0 -3.47771e-08)
(2.35931e-07 0 -2.78424e-08)
(2.39955e-07 0 -2.11763e-08)
(2.42792e-07 0 -1.46937e-08)
(2.44491e-07 0 -8.45392e-09)
(2.4512e-07 0 -2.49703e-09)
(2.4467e-07 0 3.41142e-09)
(2.43199e-07 0 9.0189e-09)
(2.4073e-07 0 1.44844e-08)
(2.37301e-07 0 1.98179e-08)
(2.32894e-07 0 2.49598e-08)
(2.2755e-07 0 2.98961e-08)
(2.21325e-07 0 3.47403e-08)
(2.14182e-07 0 3.93625e-08)
(2.06176e-07 0 4.38055e-08)
(1.97327e-07 0 4.79929e-08)
(1.87671e-07 0 5.1942e-08)
(1.77259e-07 0 5.55198e-08)
(1.66126e-07 0 5.87464e-08)
(1.54327e-07 0 6.16003e-08)
(1.41942e-07 0 6.39826e-08)
(1.29069e-07 0 6.5838e-08)
(1.15856e-07 0 6.71432e-08)
(1.02528e-07 0 6.79363e-08)
(8.93987e-08 0 6.83937e-08)
(7.70638e-08 0 6.88595e-08)
(6.19756e-08 0 7.58152e-08)
(1.95456e-08 0 1.84622e-07)
(-2.76447e-11 0 1.3222e-07)
(8.60191e-15 0 -6.52793e-14)
(9.05089e-16 0 -8.31317e-18)
(1.80721e-15 0 2.07933e-17)
(1.79906e-15 0 4.95688e-17)
(1.78492e-15 0 7.7724e-17)
(1.76531e-15 0 1.04918e-16)
(1.74044e-15 0 1.30912e-16)
(1.71066e-15 0 1.55386e-16)
(1.67641e-15 0 1.78175e-16)
(1.63807e-15 0 1.99154e-16)
(1.59605e-15 0 2.18159e-16)
(1.55079e-15 0 2.35167e-16)
(1.50273e-15 0 2.5016e-16)
(1.45234e-15 0 2.63199e-16)
(1.40008e-15 0 2.74345e-16)
(1.34628e-15 0 2.83682e-16)
(1.29132e-15 0 2.91343e-16)
(1.23555e-15 0 2.97527e-16)
(1.17926e-15 0 3.02324e-16)
(1.12274e-15 0 3.05912e-16)
(1.06619e-15 0 3.08518e-16)
(1.00981e-15 0 3.10244e-16)
(9.53791e-16 0 3.11268e-16)
(8.98194e-16 0 3.11754e-16)
(8.43135e-16 0 3.11754e-16)
(7.88686e-16 0 3.11465e-16)
(7.34795e-16 0 3.10948e-16)
(6.81514e-16 0 3.10286e-16)
(6.28854e-16 0 3.09614e-16)
(5.76772e-16 0 3.08931e-16)
(5.2526e-16 0 3.0828e-16)
(4.74243e-16 0 3.07701e-16)
(4.23641e-16 0 3.07184e-16)
(3.7341e-16 0 3.0675e-16)
(3.235e-16 0 3.06408e-16)
(2.73849e-16 0 3.06129e-16)
(2.24383e-16 0 3.05881e-16)
(1.75073e-16 0 3.05705e-16)
(1.25907e-16 0 3.05561e-16)
(7.68141e-17 0 3.05395e-16)
(2.61389e-17 0 3.0523e-16)
(-3.39889e-08 0 3.87471e-07)
(-1.04065e-07 0 3.82521e-07)
(-1.71508e-07 0 3.72809e-07)
(-2.36751e-07 0 3.58526e-07)
(-2.98782e-07 0 3.39966e-07)
(-3.56813e-07 0 3.17524e-07)
(-4.10169e-07 0 2.91661e-07)
(-4.58263e-07 0 2.62901e-07)
(-5.00629e-07 0 2.31787e-07)
(-5.36924e-07 0 1.98891e-07)
(-5.66917e-07 0 1.64769e-07)
(-5.90476e-07 0 1.29941e-07)
(-6.07499e-07 0 9.4827e-08)
(-6.18408e-07 0 5.99348e-08)
(-6.23537e-07 0 2.79626e-08)
(-6.22571e-07 0 -3.655e-09)
(-6.15518e-07 0 -3.61037e-08)
(-6.03556e-07 0 -6.5914e-08)
(-5.87877e-07 0 -8.98813e-08)
(-5.67124e-07 0 -1.11232e-07)
(-5.41392e-07 0 -1.39353e-07)
(-5.13773e-07 0 -1.56321e-07)
(-4.83126e-07 0 -1.72334e-07)
(-4.50004e-07 0 -1.86634e-07)
(-4.15048e-07 0 -1.98165e-07)
(-3.78912e-07 0 -2.06694e-07)
(-3.41752e-07 0 -2.13002e-07)
(-3.04057e-07 0 -2.17056e-07)
(-2.66196e-07 0 -2.1897e-07)
(-2.28524e-07 0 -2.18925e-07)
(-1.91346e-07 0 -2.17076e-07)
(-1.54935e-07 0 -2.13588e-07)
(-1.19534e-07 0 -2.08668e-07)
(-8.53638e-08 0 -2.02458e-07)
(-5.26208e-08 0 -1.95168e-07)
(-2.13711e-08 0 -1.86942e-07)
(8.14074e-09 0 -1.77918e-07)
(3.59465e-08 0 -1.68457e-07)
(6.19443e-08 0 -1.5848e-07)
(8.61749e-08 0 -1.48155e-07)
(1.0845e-07 0 -1.37712e-07)
(1.28949e-07 0 -1.27182e-07)
(1.47648e-07 0 -1.16667e-07)
(1.64542e-07 0 -1.06282e-07)
(1.79743e-07 0 -9.60601e-08)
(1.93278e-07 0 -8.60643e-08)
(2.05229e-07 0 -7.63307e-08)
(2.1564e-07 0 -6.69032e-08)
(2.24574e-07 0 -5.78023e-08)
(2.32149e-07 0 -4.89971e-08)
(2.38386e-07 0 -4.05135e-08)
(2.4335e-07 0 -3.23401e-08)
(2.47103e-07 0 -2.44784e-08)
(2.49684e-07 0 -1.68271e-08)
(2.51158e-07 0 -9.52484e-09)
(2.51565e-07 0 -2.46405e-09)
(2.50914e-07 0 4.45454e-09)
(2.49261e-07 0 1.10751e-08)
(2.46616e-07 0 1.752e-08)
(2.4299e-07 0 2.38104e-08)
(2.38436e-07 0 2.9914e-08)
(2.32934e-07 0 3.57882e-08)
(2.26479e-07 0 4.15021e-08)
(2.19136e-07 0 4.70335e-08)
(2.10891e-07 0 5.23429e-08)
(2.01782e-07 0 5.74594e-08)
(1.91817e-07 0 6.20862e-08)
(1.81054e-07 0 6.64706e-08)
(1.69502e-07 0 7.04547e-08)
(1.57221e-07 0 7.39611e-08)
(1.44293e-07 0 7.69163e-08)
(1.30821e-07 0 7.92326e-08)
(1.16962e-07 0 8.08074e-08)
(1.03035e-07 0 8.15198e-08)
(8.96282e-08 0 8.13297e-08)
(7.70604e-08 0 8.06808e-08)
(4.60202e-08 0 1.10541e-07)
(1.81876e-08 0 2.23464e-07)
(-2.86738e-11 0 1.42234e-07)
(8.53345e-15 0 -7.76612e-14)
(9.21094e-16 0 -9.82277e-18)
(1.83908e-15 0 2.53841e-17)
(1.83041e-15 0 6.01981e-17)
(1.81539e-15 0 9.42055e-17)
(1.79454e-15 0 1.27014e-16)
(1.76815e-15 0 1.5825e-16)
(1.73663e-15 0 1.87667e-16)
(1.70041e-15 0 2.14984e-16)
(1.65994e-15 0 2.40017e-16)
(1.61572e-15 0 2.62651e-16)
(1.56823e-15 0 2.82792e-16)
(1.51801e-15 0 3.00494e-16)
(1.4655e-15 0 3.15807e-16)
(1.41116e-15 0 3.28815e-16)
(1.35546e-15 0 3.3964e-16)
(1.29876e-15 0 3.4846e-16)
(1.24143e-15 0 3.5546e-16)
(1.18375e-15 0 3.60847e-16)
(1.12601e-15 0 3.64797e-16)
(1.06845e-15 0 3.67578e-16)
(1.01123e-15 0 3.69357e-16)
(9.54504e-16 0 3.70318e-16)
(8.9837e-16 0 3.70618e-16)
(8.42907e-16 0 3.70422e-16)
(7.88138e-16 0 3.69864e-16)
(7.34071e-16 0 3.69036e-16)
(6.80728e-16 0 3.68116e-16)
(6.28047e-16 0 3.67123e-16)
(5.75997e-16 0 3.66172e-16)
(5.24526e-16 0 3.65231e-16)
(4.73561e-16 0 3.64373e-16)
(4.23051e-16 0 3.63587e-16)
(3.72914e-16 0 3.62926e-16)
(3.23097e-16 0 3.62284e-16)
(2.73497e-16 0 3.61757e-16)
(2.24094e-16 0 3.61292e-16)
(1.74835e-16 0 3.60889e-16)
(1.25669e-16 0 3.60527e-16)
(7.65866e-17 0 3.60165e-16)
(2.60252e-17 0 3.59834e-16)
(-3.65906e-08 0 4.59778e-07)
(-1.12111e-07 0 4.53782e-07)
(-1.84683e-07 0 4.42038e-07)
(-2.54779e-07 0 4.24775e-07)
(-3.21274e-07 0 4.02365e-07)
(-3.83296e-07 0 3.75308e-07)
(-4.401e-07 0 3.44165e-07)
(-4.91049e-07 0 3.09576e-07)
(-5.35648e-07 0 2.72216e-07)
(-5.73537e-07 0 2.32792e-07)
(-6.04515e-07 0 1.91951e-07)
(-6.28376e-07 0 1.50371e-07)
(-6.4518e-07 0 1.08369e-07)
(-6.55629e-07 0 6.77129e-08)
(-6.59825e-07 0 2.94097e-08)
(-6.56833e-07 0 -8.29908e-09)
(-6.47574e-07 0 -4.73036e-08)
(-6.33938e-07 0 -8.13262e-08)
(-6.15826e-07 0 -1.05772e-07)
(-5.91619e-07 0 -1.40894e-07)
(-5.63328e-07 0 -1.65389e-07)
(-5.32952e-07 0 -1.87175e-07)
(-4.99437e-07 0 -2.05377e-07)
(-4.63358e-07 0 -2.22778e-07)
(-4.25785e-07 0 -2.34948e-07)
(-3.86919e-07 0 -2.44801e-07)
(-3.47225e-07 0 -2.51773e-07)
(-3.07138e-07 0 -2.56086e-07)
(-2.67057e-07 0 -2.579e-07)
(-2.27334e-07 0 -2.57411e-07)
(-1.88291e-07 0 -2.54828e-07)
(-1.50221e-07 0 -2.50341e-07)
(-1.13362e-07 0 -2.44194e-07)
(-7.79246e-08 0 -2.36561e-07)
(-4.40926e-08 0 -2.27694e-07)
(-1.19835e-08 0 -2.17757e-07)
(1.82828e-08 0 -2.06911e-07)
(4.66194e-08 0 -1.95629e-07)
(7.30113e-08 0 -1.83745e-07)
(9.74584e-08 0 -1.71508e-07)
(1.1989e-07 0 -1.59139e-07)
(1.40356e-07 0 -1.46755e-07)
(1.58976e-07 0 -1.3439e-07)
(1.75706e-07 0 -1.22229e-07)
(1.90667e-07 0 -1.1029e-07)
(2.03926e-07 0 -9.86516e-08)
(2.15557e-07 0 -8.73444e-08)
(2.2567e-07 0 -7.63941e-08)
(2.34229e-07 0 -6.58767e-08)
(2.41451e-07 0 -5.57234e-08)
(2.47349e-07 0 -4.594e-08)
(2.51989e-07 0 -3.65363e-08)
(2.55419e-07 0 -2.75071e-08)
(2.57704e-07 0 -1.86822e-08)
(2.58916e-07 0 -1.03562e-08)
(2.5906e-07 0 -2.19407e-09)
(2.58168e-07 0 5.68748e-09)
(2.56311e-07 0 1.334e-08)
(2.53462e-07 0 2.07379e-08)
(2.49651e-07 0 2.80183e-08)
(2.44908e-07 0 3.49885e-08)
(2.39213e-07 0 4.1836e-08)
(2.32577e-07 0 4.85248e-08)
(2.24991e-07 0 5.49523e-08)
(2.1649e-07 0 6.12089e-08)
(2.07084e-07 0 6.70549e-08)
(1.96792e-07 0 7.26539e-08)
(1.85614e-07 0 7.78632e-08)
(1.73594e-07 0 8.26254e-08)
(1.60777e-07 0 8.68669e-08)
(1.47208e-07 0 9.04872e-08)
(1.32956e-07 0 9.33705e-08)
(1.1814e-07 0 9.53367e-08)
(1.03057e-07 0 9.60201e-08)
(8.86561e-08 0 9.47424e-08)
(7.81172e-08 0 8.98127e-08)
(3.38511e-08 0 1.65702e-07)
(1.69251e-08 0 2.02981e-07)
(-2.95723e-11 0 1.5367e-07)
(8.63032e-15 0 -8.97209e-14)
(9.40295e-16 0 -1.13014e-17)
(1.87723e-15 0 3.04299e-17)
(1.86789e-15 0 7.16855e-17)
(1.85174e-15 0 1.11918e-16)
(1.82935e-15 0 1.50712e-16)
(1.8011e-15 0 1.87574e-16)
(1.76741e-15 0 2.2217e-16)
(1.72876e-15 0 2.54172e-16)
(1.68572e-15 0 2.83392e-16)
(1.63883e-15 0 3.09696e-16)
(1.58863e-15 0 3.33002e-16)
(1.53574e-15 0 3.53382e-16)
(1.48066e-15 0 3.70866e-16)
(1.42391e-15 0 3.85632e-16)
(1.36592e-15 0 3.97781e-16)
(1.30713e-15 0 4.07635e-16)
(1.24795e-15 0 4.15317e-16)
(1.18863e-15 0 4.21128e-16)
(1.12947e-15 0 4.25285e-16)
(1.07074e-15 0 4.28097e-16)
(1.01255e-15 0 4.29741e-16)
(9.55042e-16 0 4.30465e-16)
(8.98298e-16 0 4.30444e-16)
(8.4237e-16 0 4.29896e-16)
(7.8729e-16 0 4.28966e-16)
(7.33037e-16 0 4.27745e-16)
(6.79591e-16 0 4.26401e-16)
(6.269e-16 0 4.24985e-16)
(5.7488e-16 0 4.2361e-16)
(5.23481e-16 0 4.22255e-16)
(4.7261e-16 0 4.21004e-16)
(4.22172e-16 0 4.19825e-16)
(3.72118e-16 0 4.1876e-16)
(3.22363e-16 0 4.17747e-16)
(2.72856e-16 0 4.16827e-16)
(2.23525e-16 0 4.1601e-16)
(1.74308e-16 0 4.15255e-16)
(1.25183e-16 0 4.14573e-16)
(7.61316e-17 0 4.13911e-16)
(2.5808e-17 0 4.13322e-16)
(-3.97175e-08 0 5.38042e-07)
(-1.21788e-07 0 5.30863e-07)
(-2.00513e-07 0 5.16815e-07)
(-2.76414e-07 0 4.96184e-07)
(-3.48237e-07 0 4.69438e-07)
(-4.15e-07 0 4.3719e-07)
(-4.75869e-07 0 4.00134e-07)
(-5.30172e-07 0 3.59031e-07)
(-5.77353e-07 0 3.1473e-07)
(-6.17079e-07 0 2.68041e-07)
(-6.49098e-07 0 2.19806e-07)
(-6.73087e-07 0 1.70933e-07)
(-6.89992e-07 0 1.20841e-07)
(-6.9989e-07 0 7.47223e-08)
(-7.01952e-07 0 3.07087e-08)
(-6.96678e-07 0 -1.7248e-08)
(-6.85728e-07 0 -6.07421e-08)
(-6.69728e-07 0 -9.83172e-08)
(-6.47563e-07 0 -1.26498e-07)
(-6.19479e-07 0 -1.7077e-07)
(-5.89085e-07 0 -1.9568e-07)
(-5.54931e-07 0 -2.20923e-07)
(-5.17917e-07 0 -2.42277e-07)
(-4.78534e-07 0 -2.61108e-07)
(-4.37799e-07 0 -2.74907e-07)
(-3.95768e-07 0 -2.85722e-07)
(-3.53108e-07 0 -2.93217e-07)
(-3.10233e-07 0 -2.97611e-07)
(-2.6756e-07 0 -2.99132e-07)
(-2.25469e-07 0 -2.98003e-07)
(-1.84287e-07 0 -2.9447e-07)
(-1.44303e-07 0 -2.88768e-07)
(-1.05765e-07 0 -2.81171e-07)
(-6.88923e-08 0 -2.7191e-07)
(-3.38359e-08 0 -2.61262e-07)
(-7.85156e-10 0 -2.49358e-07)
(3.03583e-08 0 -2.36646e-07)
(5.92663e-08 0 -2.23238e-07)
(8.60405e-08 0 -2.09317e-07)
(1.10673e-07 0 -1.95057e-07)
(1.33302e-07 0 -1.80591e-07)
(1.53695e-07 0 -1.66236e-07)
(1.72129e-07 0 -1.51977e-07)
(1.88688e-07 0 -1.37919e-07)
(2.03316e-07 0 -1.24225e-07)
(2.16217e-07 0 -1.10891e-07)
(2.27452e-07 0 -9.79946e-08)
(2.37123e-07 0 -8.5531e-08)
(2.45334e-07 0 -7.35197e-08)
(2.52065e-07 0 -6.20685e-08)
(2.57557e-07 0 -5.10038e-08)
(2.61807e-07 0 -4.03859e-08)
(2.64859e-07 0 -3.01354e-08)
(2.66814e-07 0 -2.03063e-08)
(2.6772e-07 0 -1.09114e-08)
(2.67572e-07 0 -1.64268e-09)
(2.66435e-07 0 7.17315e-09)
(2.64345e-07 0 1.57867e-08)
(2.61282e-07 0 2.41659e-08)
(2.57276e-07 0 3.23828e-08)
(2.52341e-07 0 4.03059e-08)
(2.4643e-07 0 4.8109e-08)
(2.39572e-07 0 5.57278e-08)
(2.31765e-07 0 6.31333e-08)
(2.22998e-07 0 7.02425e-08)
(2.13284e-07 0 7.71031e-08)
(2.0262e-07 0 8.35929e-08)
(1.91015e-07 0 8.96915e-08)
(1.78491e-07 0 9.53181e-08)