/*--------------------------------*- C++ -*----------------------------------*\
  =========                 |
  \\      /  F ield         | OpenFOAM: The Open Source CFD Toolbox
   \\    /   O peration     | Website:  https://openfoam.org
    \\  /    A nd           | Version:  6
     \\/     M anipulation  |
\*---------------------------------------------------------------------------*/
FoamFile
{
    version     2.0;
    format      ascii;
    class       volScalarField;
    location    "4500";
    object      dmdt;
}
// * * * * * * * * * * * * * * * * * * * * * * * * * * * * * * * * * * * * * //

dimensions      [0 0 0 0 0 0 0];

internalField   nonuniform List<scalar> 
4800
(
-0.217999
-0.212802
-0.207564
-0.202258
-0.196876
-0.191436
-0.185975
-0.180544
-0.175196
-0.16999
-0.164989
-0.160243
-0.155804
-0.151733
-0.148065
-0.144801
-0.141936
-0.139446
-0.137286
-0.135412
-0.133773
-0.132321
-0.131011
-0.129804
-0.128671
-0.127594
-0.12655
-0.125519
-0.124484
-0.123429
-0.122338
-0.121199
-0.120007
-0.118739
-0.11739
-0.115966
-0.114461
-0.112865
-0.111167
-0.109361
-0.107427
-0.105351
-0.103128
-0.100752
-0.0982256
-0.0955501
-0.0927309
-0.0897766
-0.0866978
-0.0835098
-0.0802307
-0.0768837
-0.0734942
-0.0700905
-0.0667027
-0.0633696
-0.0601224
-0.0569733
-0.0539285
-0.0509876
-0.0481484
-0.0454083
-0.0427652
-0.0402148
-0.0377495
-0.0353632
-0.0330502
-0.030805
-0.0286102
-0.0264409
-0.0242797
-0.0221058
-0.0199028
-0.0176554
-0.0153364
-0.0129212
-0.0103921
-0.00773953
-0.00496287
-0.00207636
0.000890804
0.00384047
0.00674265
0.00961237
0.012459
0.0152894
0.0181081
0.0209182
0.0237218
0.0265203
0.0293143
0.0321045
0.0348909
0.0376737
0.0404529
0.0432284
0.0460002
0.0487682
0.0515325
0.054293
0.0570497
0.0598029
0.0625525
0.0652988
0.0680418
0.0707818
0.073519
0.0762535
0.0789856
0.0817155
0.0844433
0.0871693
0.0898938
0.0926168
0.0953386
0.0980594
0.100779
0.103499
0.106218
0.108936
-0.217989
-0.212772
-0.207514
-0.202197
-0.196814
-0.191378
-0.185919
-0.180488
-0.175141
-0.169928
-0.164907
-0.160157
-0.155733
-0.151682
-0.148059
-0.144851
-0.142026
-0.139568
-0.137436
-0.135581
-0.133956
-0.132513
-0.13121
-0.13001
-0.128888
-0.12782
-0.126781
-0.12575
-0.124712
-0.123649
-0.122549
-0.121406
-0.120205
-0.118924
-0.117577
-0.116165
-0.114665
-0.113067
-0.111364
-0.109548
-0.107604
-0.105523
-0.103292
-0.10091
-0.0983746
-0.0956869
-0.0928527
-0.0898813
-0.0867844
-0.083579
-0.0802881
-0.0769357
-0.0735518
-0.0701647
-0.0668071
-0.0635081
-0.0602876
-0.0571566
-0.0541187
-0.0511795
-0.0483371
-0.0455895
-0.0429325
-0.0403627
-0.0378714
-0.0354559
-0.0331104
-0.0308263
-0.0285872
-0.0263797
-0.0241916
-0.022
-0.0197793
-0.0175128
-0.0151834
-0.0127659
-0.0102415
-0.00759845
-0.00483422
-0.00196594
0.000967953
0.00388492
0.00676989
0.00962931
0.0124694
0.0152954
0.0181114
0.0209198
0.0237224
0.0265203
0.0293142
0.0321045
0.0348911
0.0376742
0.0404537
0.0432296
0.0460016
0.0487699
0.0515343
0.054295
0.0570519
0.0598051
0.0625547
0.065301
0.068044
0.070784
0.073521
0.0762555
0.0789874
0.0817171
0.0844448
0.0871707
0.089895
0.0926178
0.0953395
0.0980601
0.10078
0.103499
0.106218
0.108936
-0.21797
-0.212713
-0.207421
-0.202083
-0.196697
-0.191268
-0.185821
-0.180401
-0.175064
-0.169869
-0.164867
-0.160135
-0.155756
-0.151768
-0.148187
-0.145021
-0.142252
-0.139843
-0.137751
-0.135929
-0.134329
-0.132906
-0.131619
-0.130433
-0.129326
-0.128269
-0.127234
-0.126206
-0.125167
-0.124099
-0.122994
-0.121848
-0.120633
-0.119347
-0.118011
-0.116598
-0.115083
-0.113468
-0.111748
-0.109913
-0.107954
-0.105862
-0.103621
-0.10123
-0.0986821
-0.0959783
-0.0931252
-0.090134
-0.0870186
-0.0837998
-0.0805034
-0.0771566
-0.0737877
-0.0704258
-0.0671013
-0.0638356
-0.0606465
-0.0575383
-0.0545157
-0.0515809
-0.0487321
-0.045967
-0.0432815
-0.0406723
-0.0381351
-0.0356662
-0.033259
-0.0309077
-0.0286007
-0.0263308
-0.0240804
-0.021835
-0.0195754
-0.0172805
-0.0149326
-0.0125074
-0.00998559
-0.00735926
-0.00462737
-0.00180493
0.00108075
0.00395872
0.00681761
0.00965953
0.0124878
0.015306
0.0181168
0.0209221
0.0237229
0.0265201
0.0293138
0.0321043
0.0348915
0.0376752
0.0404554
0.0432318
0.0460045
0.0487732
0.0515381
0.0542991
0.0570562
0.0598095
0.0625592
0.0653054
0.0680484
0.0707882
0.0735251
0.0762593
0.078991
0.0817205
0.0844479
0.0871735
0.0898974
0.09262
0.0953413
0.0980616
0.100781
0.1035
0.106218
0.108936
-0.217944
-0.212641
-0.207312
-0.201951
-0.196558
-0.191137
-0.185704
-0.1803
-0.174984
-0.169822
-0.164872
-0.160197
-0.155877
-0.151959
-0.148447
-0.145342
-0.142638
-0.140291
-0.138248
-0.136466
-0.134901
-0.133508
-0.132243
-0.131078
-0.129987
-0.128942
-0.127918
-0.126898
-0.125859
-0.124789
-0.123687
-0.12254
-0.121319
-0.120036
-0.118692
-0.117254
-0.115708
-0.114064
-0.112312
-0.110446
-0.108462
-0.10635
-0.104094
-0.101693
-0.0991322
-0.0964127
-0.093542
-0.0905334
-0.0874068
-0.0841879
-0.0808993
-0.0775649
-0.0742155
-0.0708813
-0.0675901
-0.0643576
-0.0611977
-0.0581121
-0.0551063
-0.0521752
-0.0493161
-0.0465269
-0.0438028
-0.0411419
-0.0385443
-0.0360049
-0.0335148
-0.0310721
-0.0286709
-0.0263074
-0.0239722
-0.0216551
-0.01934
-0.0170041
-0.0146276
-0.0121922
-0.00967784
-0.0070797
-0.00439232
-0.00162134
0.0012142
0.00404961
0.00687758
0.00969752
0.0125105
0.0153184
0.0181226
0.0209239
0.0237226
0.026519
0.0293128
0.0321038
0.0348919
0.0376766
0.0404578
0.0432353
0.0460089
0.0487784
0.0515439
0.0543053
0.0570627
0.0598162
0.062566
0.0653122
0.068055
0.0707946
0.0735312
0.0762651
0.0789964
0.0817255
0.0844525
0.0871776
0.0899011
0.0926231
0.095344
0.0980638
0.100783
0.103501
0.106219
0.108937
-0.217922
-0.212578
-0.207221
-0.201844
-0.196444
-0.191029
-0.185614
-0.180229
-0.174936
-0.16982
-0.164942
-0.160353
-0.15612
-0.152288
-0.14886
-0.145836
-0.143205
-0.140924
-0.138938
-0.137206
-0.135682
-0.134323
-0.133085
-0.131943
-0.130871
-0.12984
-0.128831
-0.127822
-0.126786
-0.12572
-0.124626
-0.123475
-0.122247
-0.120962
-0.119597
-0.118126
-0.116552
-0.114867
-0.113067
-0.111151
-0.109121
-0.10697
-0.104694
-0.102278
-0.0997005
-0.0969641
-0.0940809
-0.0910666
-0.0879393
-0.0847223
-0.0814435
-0.0781328
-0.0748159
-0.0715153
-0.0682575
-0.065057
-0.0619229
-0.0588565
-0.0558565
-0.0529189
-0.0500441
-0.047229
-0.0444673
-0.0417525
-0.0390821
-0.0364597
-0.0338794
-0.0313407
-0.0288382
-0.0263727
-0.0239428
-0.021541
-0.0191529
-0.0167555
-0.0143302
-0.0118708
-0.00936036
-0.00678743
-0.00414453
-0.00142956
0.00135406
0.00414684
0.00694133
0.0097368
0.0125327
0.0153292
0.0181262
0.0209234
0.0237202
0.0265161
0.0293105
0.0321027
0.0348922
0.0376785
0.0404613
0.0432401
0.0460149
0.0487855
0.0515518
0.0543138
0.0570716
0.0598254
0.0625752
0.0653213
0.0680639
0.0708032
0.0735395
0.0762729
0.0790037
0.0817322
0.0844586
0.0871831
0.089906
0.0926274
0.0953476
0.0980668
0.100785
0.103503
0.10622
0.108937
-0.217906
-0.212532
-0.207149
-0.201753
-0.196347
-0.190939
-0.185544
-0.180194
-0.174948
-0.169889
-0.165103
-0.160629
-0.156499
-0.152757
-0.149423
-0.146498
-0.143954
-0.141749
-0.139827
-0.138148
-0.136669
-0.135346
-0.134136
-0.133019
-0.131967
-0.130954
-0.129956
-0.12896
-0.127929
-0.126875
-0.125788
-0.124632
-0.123402
-0.12211
-0.12072
-0.119216
-0.117603
-0.115862
-0.114
-0.112021
-0.109928
-0.107723
-0.105403
-0.102958
-0.100362
-0.0976219
-0.0947406
-0.0917316
-0.0886156
-0.0854198
-0.0821672
-0.0788809
-0.0755884
-0.0723171
-0.069091
-0.0659162
-0.0627969
-0.0597334
-0.0567264
-0.0537789
-0.050886
-0.048042
-0.0452396
-0.042473
-0.0397374
-0.0370347
-0.0343564
-0.0317142
-0.0291021
-0.0265245
-0.0239791
-0.0214631
-0.0189699
-0.0164958
-0.0140283
-0.0115504
-0.00904572
-0.00649854
-0.00389417
-0.00122851
0.00149973
0.00424223
0.00700038
0.00977031
0.0125489
0.0153342
0.0181246
0.0209185
0.0237143
0.0265107
0.0293065
0.0321007
0.0348924
0.0376809
0.0404658
0.0432465
0.0460229
0.0487947
0.0515621
0.0543248
0.0570831
0.0598371
0.062587
0.065333
0.0680753
0.0708142
0.0735499
0.0762827
0.0790129
0.0817407
0.0844663
0.08719
0.0899121
0.0926327
0.0953521
0.0980705
0.100788
0.103505
0.106221
0.108937
-0.217899
-0.21251
-0.207113
-0.201709
-0.196306
-0.190922
-0.185583
-0.180297
-0.175101
-0.170085
-0.165357
-0.160982
-0.156982
-0.153365
-0.150152
-0.147335
-0.144884
-0.142758
-0.140904
-0.139282
-0.137847
-0.136559
-0.135379
-0.134288
-0.133257
-0.132261
-0.131277
-0.130293
-0.129272
-0.128231
-0.127148
-0.125992
-0.124758
-0.123449
-0.122025
-0.120475
-0.118811
-0.11701
-0.115079
-0.113026
-0.110861
-0.10859
-0.106214
-0.103724
-0.101108
-0.0983636
-0.0954884
-0.0924942
-0.0893982
-0.0862248
-0.082997
-0.0797413
-0.0764817
-0.0732383
-0.0700307
-0.0668686
-0.0637615
-0.0607032
-0.0576916
-0.05473
-0.0518135
-0.048936
-0.0460903
-0.0432721
-0.0404738
-0.0376989
-0.0349383
-0.0322046
-0.0294869
-0.026799
-0.0241403
-0.0215145
-0.01892
-0.0163487
-0.0138032
-0.011281
-0.00876532
-0.00623545
-0.00366262
-0.00103896
0.00163413
0.00432285
0.00704453
0.00979013
0.0125531
0.0153291
0.0181148
0.0209072
0.0237036
0.0265019
0.0293004
0.0320977
0.0348925
0.037684
0.0404716
0.0432547
0.0460331
0.0488065
0.051575
0.0543386
0.0570974
0.0598517
0.0626015
0.0653473
0.0680892
0.0708275
0.0735626
0.0762946
0.079024
0.0817509
0.0844756
0.0871984
0.0899195
0.0926391
0.0953575
0.0980749
0.100791
0.103507
0.106223
0.108938
-0.217897
-0.212507
-0.207111
-0.201713
-0.196321
-0.190952
-0.185637
-0.18042
-0.175341
-0.170452
-0.165826
-0.161544
-0.157647
-0.154144
-0.151044
-0.148334
-0.145982
-0.143943
-0.142159
-0.140591
-0.139197
-0.137943
-0.136792
-0.135725
-0.134713
-0.133731
-0.132765
-0.131793
-0.130785
-0.129757
-0.128675
-0.127517
-0.12628
-0.124948
-0.123491
-0.121893
-0.120171
-0.118297
-0.116285
-0.114149
-0.111902
-0.109559
-0.107121
-0.104579
-0.101934
-0.0991751
-0.0963006
-0.0933227
-0.090254
-0.0871103
-0.0839139
-0.0806888
-0.0774582
-0.0742455
-0.0710655
-0.0679197
-0.064814
-0.0617481
-0.0587257
-0.0557466
-0.0528053
-0.0498938
-0.0470055
-0.0441405
-0.0412916
-0.0384592
-0.035631
-0.0328149
-0.0299958
-0.0271923
-0.0244077
-0.0216524
-0.0189416
-0.0162852
-0.0136765
-0.0111051
-0.00856143
-0.00602832
-0.00347473
-0.000887478
0.00173382
0.00437237
0.0070622
0.00978791
0.0125393
0.0153096
0.0180938
0.0208873
0.0236867
0.026489
0.0292919
0.0320937
0.0348928
0.0376882
0.0404792
0.0432651
0.0460459
0.0488211
0.051591
0.0543555
0.0571149
0.0598693
0.062619
0.0653644
0.0681058
0.0708434
0.0735776
0.0763087
0.079037
0.0817629
0.0844865
0.0872081
0.0899281
0.0926466
0.0953638
0.09808
0.100795
0.10351
0.106224
0.108939
-0.217905
-0.21253
-0.207148
-0.201759
-0.196374
-0.191026
-0.185761
-0.180612
-0.17562
-0.170849
-0.166361
-0.162214
-0.158441
-0.155066
-0.152091
-0.149494
-0.147238
-0.145278
-0.143559
-0.142042
-0.140688
-0.139464
-0.138339
-0.137295
-0.1363
-0.135335
-0.134388
-0.133427
-0.132433
-0.131415
-0.130336
-0.129177
-0.127934
-0.126576
-0.125083
-0.123432
-0.121635
-0.119676
-0.117575
-0.115347
-0.113017
-0.110601
-0.108098
-0.105499
-0.10281
-0.100026
-0.0971545
-0.0941975
-0.0911478
-0.088029
-0.0848666
-0.0816787
-0.0784843
-0.0753008
-0.0721389
-0.0690035
-0.0659032
-0.0628384
-0.05981
-0.0568159
-0.0538511
-0.0509098
-0.04799
-0.0450935
-0.0422076
-0.0393264
-0.0364347
-0.0335335
-0.0306214
-0.0277161
-0.0248183
-0.0219477
-0.0191247
-0.0163646
-0.0136723
-0.0110425
-0.00846004
-0.00590853
-0.00337068
-0.000819616
0.00176709
0.00437313
0.00704189
0.00975566
0.0125018
0.0152718
0.0180588
0.0208573
0.0236628
0.0264716
0.0292811
0.0320889
0.0348936
0.0376939
0.040489
0.0432784
0.0460618
0.0488392
0.0516105
0.0543759
0.0571357
0.0598902
0.0626397
0.0653846
0.0681252
0.0708619
0.073595
0.076325
0.0790521
0.0817767
0.084499
0.0872193
0.089938
0.0926551
0.095371
0.0980859
0.1008
0.103513
0.106226
0.108939
-0.217927
-0.212597
-0.20726
-0.201916
-0.196574
-0.19126
-0.18602
-0.180924
-0.176029
-0.171378
-0.167023
-0.163011
-0.159373
-0.156126
-0.153275
-0.150789
-0.148622
-0.146731
-0.145069
-0.143595
-0.142276
-0.141081
-0.139983
-0.138962
-0.137987
-0.137042
-0.136113
-0.135167
-0.134183
-0.133167
-0.13209
-0.130929
-0.129677
-0.128293
-0.126757
-0.12505
-0.123175
-0.12113
-0.11893
-0.116599
-0.114176
-0.11168
-0.109103
-0.106438
-0.103692
-0.100877
-0.0979983
-0.0950536
-0.092036
-0.0889593
-0.0858329
-0.0826798
-0.0795209
-0.0763679
-0.0732274
-0.0701073
-0.0670163
-0.0639558
-0.060925
-0.0579205
-0.0549374
-0.0519739
-0.049031
-0.046105
-0.043183
-0.0402599
-0.037322
-0.0343649
-0.0313844
-0.0283866
-0.0253853
-0.0224125
-0.0194886
-0.016631
-0.0138496
-0.0111456
-0.00851039
-0.00592419
-0.00337651
-0.000841179
0.00172468
0.00431378
0.00697461
0.00968682
0.0124361
0.0152126
0.0180082
0.0208162
0.0236315
0.0264499
0.0292683
0.0320841
0.0348958
0.037702
0.040502
0.0432953
0.0460817
0.0488612
0.051634
0.0544003
0.0571604
0.0599148
0.0626638
0.0654079
0.0681476
0.0708831
0.073615
0.0763436
0.0790693
0.0817924
0.0845132
0.087232
0.0899491
0.0926647
0.0953791
0.0980925
0.100805
0.103517
0.106229
0.10894
-0.217957
-0.212689
-0.207414
-0.20213
-0.196854
-0.191621
-0.186469
-0.181447
-0.176623
-0.172068
-0.167828
-0.163939
-0.160425
-0.157298
-0.154554
-0.152166
-0.150085
-0.148265
-0.146656
-0.145223
-0.14394
-0.142776
-0.141704
-0.140708
-0.139756
-0.13883
-0.137915
-0.136978
-0.136
-0.134986
-0.133907
-0.132739
-0.131471
-0.13006
-0.128484
-0.12672
-0.124764
-0.122626
-0.120316
-0.117876
-0.115354
-0.112769
-0.110112
-0.107373
-0.104564
-0.10171
-0.0988162
-0.0958788
-0.0928865
-0.0898491
-0.086771
-0.0836655
-0.0805467
-0.077423
-0.0743069
-0.0712105
-0.0681379
-0.0650867
-0.0620559
-0.0590474
-0.0560558
-0.0530779
-0.0501146
-0.047162
-0.0442091
-0.0412494
-0.0382725
-0.0352697
-0.0322388
-0.0291832
-0.0261151
-0.0230662
-0.0200573
-0.017109
-0.0142366
-0.0114476
-0.00873817
-0.00610168
-0.00352826
-0.000977547
0.0015914
0.00418432
0.0068535
0.00957661
0.0123391
0.0151302
0.0179409
0.0207639
0.0235934
0.0264247
0.0292545
0.0320804
0.0349004
0.0377136
0.0405191
0.0433167
0.0461063
0.048888
0.0516622
0.0544291
0.0571894
0.0599434
0.0626917
0.0654348
0.0681731
0.0709072
0.0736376
0.0763645
0.0790885
0.0818099
0.084529
0.087246
0.0899614
0.0926754
0.0953881
0.0980998
0.100811
0.103521
0.106231
0.108941
-0.217994
-0.212797
-0.207594
-0.202381
-0.197176
-0.192025
-0.186965
-0.182041
-0.177323
-0.172879
-0.168753
-0.164979
-0.161584
-0.158578
-0.155944
-0.153644
-0.151628
-0.149862
-0.148301
-0.146914
-0.145671
-0.144541
-0.143498
-0.142525
-0.141594
-0.140683
-0.139776
-0.138846
-0.13787
-0.136853
-0.135767
-0.134589
-0.1333
-0.131861
-0.13024
-0.128413
-0.126376
-0.124137
-0.121711
-0.119156
-0.116527
-0.113843
-0.111095
-0.108275
-0.105405
-0.102509
-0.0995933
-0.0966543
-0.0936838
-0.0906826
-0.0876531
-0.084599
-0.081527
-0.0784466
-0.0753714
-0.0723089
-0.0692579
-0.0662186
-0.0631948
-0.0601874
-0.0571905
-0.054205
-0.0512292
-0.0482561
-0.0452776
-0.0422891
-0.0392826
-0.0362515
-0.0331935
-0.0301086
-0.027009
-0.0239168
-0.0208447
-0.0178168
-0.0148539
-0.0119704
-0.00917164
-0.00645929
-0.00382669
-0.00123587
0.00135029
0.00397848
0.00667477
0.00942239
0.0122091
0.0150239
0.0178574
0.0207014
0.0235496
0.0263975
0.0292415
0.0320792
0.0349091
0.03773
0.0405417
0.0433438
0.0461366
0.0489204
0.0516957
0.0544631
0.0572231
0.0599764
0.0627236
0.0654653
0.068202
0.0709344
0.0736628
0.0763878
0.0791099
0.0818293
0.0845464
0.0872615
0.089975
0.092687
0.0953979
0.0981078
0.100817
0.103526
0.106234
0.108942
-0.218031
-0.212911
-0.207791
-0.202667
-0.197548
-0.192475
-0.187498
-0.182679
-0.178087
-0.173768
-0.169763
-0.166111
-0.16283
-0.159924
-0.15738
-0.155162
-0.15322
-0.151516
-0.150008
-0.148668
-0.147468
-0.146373
-0.145358
-0.144405
-0.143491
-0.142591
-0.141686
-0.140756
-0.139779
-0.138755
-0.137657
-0.136462
-0.135147
-0.133679
-0.132016
-0.130126
-0.128005
-0.125662
-0.123117
-0.120437
-0.117688
-0.114892
-0.112047
-0.109146
-0.106215
-0.10327
-0.100326
-0.0973759
-0.0944201
-0.0914496
-0.0884652
-0.0854615
-0.0824424
-0.0794169
-0.0763928
-0.0733701
-0.0703479
-0.0673269
-0.0643129
-0.0613111
-0.0583191
-0.0553354
-0.0523557
-0.0493734
-0.0463825
-0.0433778
-0.0403529
-0.0373047
-0.0342327
-0.031139
-0.0280341
-0.0249277
-0.0218254
-0.0187448
-0.0157059
-0.0127281
-0.00982659
-0.00701148
-0.0042741
-0.00159192
0.000972164
0.00370751
0.00644026
0.00922393
0.0120464
0.0148951
0.0177594
0.0206307
0.0235027
0.0263707
0.0292315
0.0320829
0.0349237
0.0377532
0.0405712
0.043378
0.0461738
0.0489594
0.0517355
0.0545028
0.0572621
0.0600142
0.0627598
0.0654996
0.0682343
0.0709645
0.0736908
0.0764136
0.0791333
0.0818505
0.0845654
0.0872784
0.0899897
0.0926997
0.0954085
0.0981164
0.100824
0.10353
0.106236
0.108943
-0.218077
-0.213046
-0.208009
-0.202971
-0.197958
-0.193004
-0.188155
-0.183464
-0.178987
-0.174781
-0.170895
-0.16736
-0.164189
-0.161381
-0.158917
-0.156763
-0.15488
-0.153232
-0.151781
-0.150491
-0.149331
-0.148267
-0.147276
-0.146338
-0.145436
-0.144542
-0.143634
-0.142699
-0.141719
-0.140685
-0.139573
-0.138356
-0.137013
-0.135512
-0.133804
-0.131851
-0.129644
-0.12719
-0.124521
-0.121711
-0.118838
-0.115926
-0.112976
-0.109988
-0.106987
-0.103992
-0.101012
-0.0980466
-0.0950969
-0.0921508
-0.0892052
-0.08625
-0.0832881
-0.0803222
-0.0773527
-0.0743759
-0.071389
-0.0683943
-0.0654021
-0.0624161
-0.0594347
-0.0564593
-0.0534854
-0.0505037
-0.0475112
-0.0445027
-0.0414739
-0.0384223
-0.0353472
-0.0322536
-0.0291499
-0.0260363
-0.0229216
-0.0198171
-0.0167377
-0.013694
-0.010701
-0.00776747
-0.00489539
-0.00208498
0.00067987
0.00335376
0.00615374
0.00898186
0.0118532
0.0147469
0.0176506
0.0205557
0.0234561
0.0263477
0.0292276
0.0320943
0.0349469
0.0377853
0.0406097
0.0434207
0.0462192
0.049006
0.0517823
0.0545489
0.0573068
0.0600571
0.0628006
0.0655381
0.0682703
0.0709979
0.0737215
0.0764417
0.0791588
0.0818735
0.0845859
0.0872965
0.0900055
0.0927132
0.0954199
0.0981257
0.100831
0.103535
0.10624
0.108944
-0.218123
-0.213183
-0.208235
-0.203298
-0.198411
-0.193604
-0.188897
-0.184329
-0.179968
-0.175874
-0.172098
-0.168671
-0.165605
-0.162891
-0.16051
-0.158428
-0.156608
-0.155017
-0.153618
-0.152376
-0.15125
-0.150215
-0.149242
-0.148314
-0.147417
-0.146522
-0.14561
-0.144669
-0.143684
-0.14264
-0.14151
-0.140266
-0.138893
-0.137356
-0.135602
-0.133588
-0.131293
-0.12873
-0.125936
-0.122993
-0.119986
-0.116948
-0.113884
-0.110803
-0.107726
-0.104672
-0.101646
-0.0986561
-0.095702
-0.0927728
-0.0898581
-0.0869489
-0.0840422
-0.0811339
-0.0782201
-0.0752944
-0.0723543
-0.0694025
-0.0664445
-0.0634872
-0.0605288
-0.057571
-0.0546089
-0.0516369
-0.0486533
-0.0456509
-0.0426273
-0.0395799
-0.0365106
-0.033425
-0.030327
-0.0272172
-0.024102
-0.0209853
-0.0178811
-0.0147991
-0.011749
-0.00873103
-0.0057478
-0.00280603
8.43641e-05
0.00292974
0.0057827
0.00869358
0.0116336
0.0145849
0.0175367
0.0204817
0.0234149
0.026333
0.0292339
0.0321168
0.0349816
0.0378288
0.0406591
0.0434738
0.0462741
0.0490614
0.0518369
0.054602
0.0573578
0.0601056
0.0628462
0.0655807
0.0683099
0.0710344
0.0737549
0.0764721
0.0791864
0.0818982
0.0846079
0.0873159
0.0900224
0.0927277
0.0954319
0.0981354
0.100838
0.103541
0.106243
0.108945
-0.218168
-0.213322
-0.208476
-0.203651
-0.198883
-0.194204
-0.189627
-0.185192
-0.18096
-0.176992
-0.173339
-0.170026
-0.167067
-0.164447
-0.162145
-0.160136
-0.158386
-0.156858
-0.15551
-0.154306
-0.153212
-0.152201
-0.151243
-0.150321
-0.149423
-0.148526
-0.14761
-0.146664
-0.145672
-0.144614
-0.143461
-0.14219
-0.140787
-0.139214
-0.137415
-0.13534
-0.132961
-0.130292
-0.127374
-0.124295
-0.121146
-0.117973
-0.114792
-0.111612
-0.108456
-0.105336
-0.10226
-0.0992315
-0.0962545
-0.0933256
-0.0904289
-0.0875535
-0.0846932
-0.0818386
-0.0789783
-0.0761037
-0.0732154
-0.070317
-0.0674124
-0.0644997
-0.0615733
-0.0586435
-0.0557067
-0.0527611
-0.0498014
-0.0468184
-0.0438108
-0.0407763
-0.0377202
-0.0346467
-0.0315587
-0.0284548
-0.0253366
-0.0222073
-0.0190785
-0.0159585
-0.0128529
-0.00976601
-0.00670127
-0.00365612
-0.000636746
0.00235683
0.00535709
0.00837554
0.0113997
0.0144188
0.017426
0.020416
0.0233854
0.0263321
0.0292551
0.0321546
0.0350313
0.0378865
0.0407219
0.0435391
0.0463401
0.0491266
0.0519003
0.0546628
0.0574155
0.0601598
0.0628968
0.0656276
0.0683531
0.071074
0.0737911
0.0765048
0.0792158
0.0819245
0.0846313
0.0873364
0.0900402
0.0927428
0.0954446
0.0981457
0.100846
0.103546
0.106246
0.108946
-0.218206
-0.213442
-0.208698
-0.203994
-0.199354
-0.1948
-0.190354
-0.186056
-0.18196
-0.178129
-0.174608
-0.17142
-0.168573
-0.166049
-0.163831
-0.161897
-0.160208
-0.158732
-0.157433
-0.156269
-0.15521
-0.15422
-0.153272
-0.152352
-0.151451
-0.150549
-0.14963
-0.148677
-0.147675
-0.146598
-0.145423
-0.144127
-0.142696
-0.14109
-0.139247
-0.137118
-0.134659
-0.13188
-0.128837
-0.12562
-0.122326
-0.119012
-0.115704
-0.112423
-0.109188
-0.105997
-0.102857
-0.0997753
-0.0967588
-0.0938095
-0.0909183
-0.0880682
-0.0852447
-0.0824333
-0.0796191
-0.0767943
-0.0739603
-0.0711189
-0.0682704
-0.0654126
-0.0625404
-0.0596576
-0.0567598
-0.0538532
-0.0509303
-0.0479814
-0.0450036
-0.041995
-0.0389626
-0.0359086
-0.0328342
-0.0297361
-0.0266124
-0.023467
-0.0203096
-0.0171505
-0.0139944
-0.0108358
-0.00767165
-0.00450901
-0.00136034
0.00177246
0.00491868
0.00805173
0.0111677
0.0142613
0.0173289
0.0203675
0.0233753
0.0263516
0.0292968
0.0322122
0.0350997
0.0379616
0.0408004
0.0436186
0.0464186
0.0492027
0.0519731
0.0547317
0.0574802
0.06022
0.0629525
0.0656788
0.0683999
0.0711166
0.0738297
0.0765396
0.079247
0.0819523
0.0846558
0.0873579
0.0900588
0.0927587
0.0954578
0.0981563
0.100854
0.103552
0.10625
0.108947
-0.218249
-0.213575
-0.208933
-0.204346
-0.19983
-0.195398
-0.191082
-0.186924
-0.182977
-0.179295
-0.175914
-0.172853
-0.17012
-0.167695
-0.165562
-0.1637
-0.162077
-0.160659
-0.159404
-0.158275
-0.157243
-0.156268
-0.155325
-0.154404
-0.153499
-0.152592
-0.151667
-0.150705
-0.149688
-0.14859
-0.147393
-0.146075
-0.144613
-0.142968
-0.141079
-0.138891
-0.136346
-0.133471
-0.130325
-0.126987
-0.123548
-0.120094
-0.116664
-0.113284
-0.109963
-0.106688
-0.103469
-0.100315
-0.0972389
-0.0942466
-0.0913343
-0.0884873
-0.0856866
-0.0829091
-0.080137
-0.0773641
-0.0745887
-0.0718078
-0.0690195
-0.0662209
-0.0634087
-0.0605858
-0.0577459
-0.0548962
-0.052024
-0.0491235
-0.0461914
-0.0432257
-0.0402297
-0.0372025
-0.0341447
-0.0310516
-0.0279158
-0.0247459
-0.0215554
-0.0183479
-0.0151141
-0.0118556
-0.00858612
-0.00531363
-0.00204664
0.00121399
0.0044966
0.00774383
0.0109545
0.0141263
0.0172574
0.0203464
0.0233933
0.0263989
0.0293652
0.0322948
0.0351911
0.0380574
0.0408973
0.0437141
0.046511
0.0492908
0.0520562
0.0548092
0.057552
0.0602862
0.0630132
0.0657342
0.0684502
0.0711621
0.0738706
0.0765764
0.0792798
0.0819814
0.0846814
0.0873802
0.090078
0.092775
0.0954714
0.0981673
0.100863
0.103558
0.106253
0.108948
-0.218297
-0.213721
-0.209179
-0.204698
-0.200296
-0.195992
-0.191815
-0.187806
-0.184014
-0.180486
-0.177248
-0.174317
-0.171694
-0.169367
-0.167323
-0.16554
-0.163986
-0.162622
-0.161406
-0.160308
-0.159299
-0.158335
-0.157396
-0.156475
-0.155565
-0.15465
-0.153714
-0.152737
-0.1517
-0.150579
-0.149358
-0.148013
-0.146522
-0.144842
-0.142903
-0.140647
-0.138034
-0.135096
-0.131879
-0.12844
-0.124849
-0.121238
-0.117673
-0.114187
-0.110779
-0.107419
-0.104111
-0.100871
-0.0977217
-0.0946729
-0.0917185
-0.0888472
-0.0860425
-0.0832832
-0.0805507
-0.077829
-0.0751092
-0.0723876
-0.069661
-0.0669265
-0.0641837
-0.0614286
-0.0586568
-0.0558729
-0.0530604
-0.050217
-0.0473372
-0.0444179
-0.0414583
-0.0384574
-0.035414
-0.0323238
-0.0291868
-0.0260037
-0.0227793
-0.0195128
-0.0162024
-0.0128552
-0.00947987
-0.0060879
-0.00269626
0.000695193
0.00410855
0.00746891
0.010776
0.0140281
0.0172241
0.0203641
0.0234494
0.0264825
0.0294673
0.0324081
0.0353098
0.0381772
0.0410149
0.0438274
0.0466184
0.0493916
0.0521497
0.0548955
0.0576311
0.0603583
0.0630787
0.0657934
0.0685036
0.0712101
0.0739136
0.0766147
0.0793138
0.0820114
0.0847078
0.0874032
0.0900978
0.0927918
0.0954853
0.0981785
0.100871
0.103564
0.106257
0.108949
-0.218345
-0.213866
-0.209427
-0.205055
-0.200771
-0.196598
-0.192563
-0.188707
-0.185073
-0.181702
-0.178611
-0.175818
-0.173318
-0.171099
-0.169146
-0.167439
-0.165945
-0.164624
-0.163438
-0.162362
-0.161369
-0.160414
-0.15948
-0.158556
-0.157636
-0.15671
-0.155759
-0.154764
-0.153708
-0.152567
-0.15133
-0.149964
-0.148439
-0.146704
-0.144699
-0.142377
-0.139697
-0.136688
-0.13339
-0.12986
-0.126153
-0.122423
-0.118747
-0.115172
-0.111686
-0.108234
-0.104825
-0.101484
-0.098244
-0.0951183
-0.0921044
-0.0891933
-0.0863732
-0.0836193
-0.0809033
-0.078211
-0.0755338
-0.0728658
-0.0702002
-0.0675315
-0.0648556
-0.0621687
-0.0594726
-0.0567583
-0.0540095
-0.0512243
-0.0483979
-0.0455264
-0.0426082
-0.0396427
-0.0366251
-0.033547
-0.0304071
-0.0271997
-0.0239367
-0.0206118
-0.0172265
-0.013787
-0.0103075
-0.00680449
-0.00329277
0.000227276
0.00376599
0.00724003
0.0106461
0.0139808
0.0172428
0.0204329
0.0235542
0.0266113
0.0296103
0.0325577
0.0354602
0.0383242
0.0411556
0.04396
0.0467419
0.0495055
0.052254
0.0549905
0.0577171
0.060436
0.0631486
0.0658561
0.0685597
0.0712602
0.0739582
0.0766543
0.0793488
0.0820422
0.0847347
0.0874265
0.0901178
0.0928087
0.0954993
0.0981897
0.10088
0.10357
0.10626
0.10895
-0.218394
-0.214016
-0.209681
-0.205419
-0.201257
-0.19722
-0.193332
-0.189634
-0.186166
-0.182954
-0.180015
-0.17736
-0.174981
-0.172868
-0.171006
-0.16937
-0.167928
-0.166643
-0.165484
-0.164425
-0.163444
-0.162496
-0.161564
-0.160638
-0.159707
-0.158767
-0.157796
-0.156783
-0.155711
-0.154546
-0.153279
-0.151864
-0.150283
-0.148494
-0.146436
-0.144056
-0.141313
-0.138242
-0.134882
-0.13128
-0.127483
-0.123664
-0.119909
-0.116253
-0.112678
-0.109134
-0.105616
-0.102162
-0.09882
-0.0956076
-0.092524
-0.0895623
-0.0867086
-0.0839363
-0.0812197
-0.078544
-0.0759003
-0.0732765
-0.0706614
-0.0680518
-0.0654417
-0.0628231
-0.0601927
-0.0575382
-0.0548479
-0.052117
-0.0493422
-0.0465193
-0.0436454
-0.0407163
-0.0377242
-0.0346613
-0.0315231
-0.0283038
-0.0250136
-0.0216394
-0.0181922
-0.0146722
-0.0110951
-0.00748021
-0.00384318
-0.000191044
0.00347418
0.00706705
0.010578
0.0139994
0.0173283
0.0205666
0.0237196
0.0267951
0.029802
0.0327495
0.0356464
0.0385012
0.0413212
0.044113
0.0468819
0.0496326
0.0523688
0.0550937
0.0578096
0.0605186
0.0632223
0.0659217
0.068618
0.0713119
0.074004
0.0766947
0.0793844
0.0820734
0.0847618
0.08745
0.0901379
0.0928256
0.0955133
0.098201
0.100889
0.103576
0.106264
0.108952
-0.218435
-0.214145
-0.209918
-0.205784
-0.201759
-0.197865
-0.194134
-0.190602
-0.1873
-0.184249
-0.181458
-0.178934
-0.17667
-0.174663
-0.172888
-0.171318
-0.169923
-0.168667
-0.167534
-0.166485
-0.16551
-0.164566
-0.163635
-0.162706
-0.161768
-0.160811
-0.159821
-0.158792
-0.157698
-0.156504
-0.155202
-0.153748
-0.152133
-0.150286
-0.148148
-0.145672
-0.142836
-0.139695
-0.136282
-0.132638
-0.128807
-0.124966
-0.121177
-0.11745
-0.113782
-0.110138
-0.106493
-0.102923
-0.0994871
-0.096199
-0.093046
-0.0900239
-0.0871252
-0.0843213
-0.0815871
-0.078902
-0.0762546
-0.0736425
-0.071065
-0.0685082
-0.0659531
-0.0633872
-0.0608084
-0.0582031
-0.055555
-0.0528617
-0.0501278
-0.04735
-0.0445213
-0.0416338
-0.0386783
-0.0356466
-0.0325286
-0.0293169
-0.0260099
-0.022597
-0.0190851
-0.0154793
-0.011812
-0.00809647
-0.00434112
-0.000557754
0.00323786
0.00695974
0.0105861
0.0141006
0.0174976
0.0207806
0.0239589
0.0270444
0.0300503
0.032989
0.0358723
0.0387107
0.0415129
0.0442867
0.0470381
0.0497723
0.0524933
0.0552042
0.0579076
0.0606054
0.0632989
0.0659894
0.0686778
0.0713646
0.0740503
0.0767354
0.07942
0.0821045
0.0847888
0.0874732
0.0901577
0.0928424
0.0955271
0.098212
0.100897
0.103582
0.106268
0.108953
-0.218491
-0.214313
-0.210192
-0.206168
-0.202273
-0.198527
-0.194959
-0.191595
-0.188461
-0.18557
-0.18293
-0.180543
-0.1784
-0.176492
-0.174788
-0.17327
-0.171906
-0.17068
-0.169564
-0.16852
-0.16755
-0.166608
-0.165676
-0.164745
-0.163801
-0.162832
-0.161827
-0.160775
-0.159659
-0.15844
-0.157095
-0.155589
-0.153901
-0.15196
-0.149728
-0.147148
-0.144227
-0.141034
-0.137579
-0.133896
-0.130062
-0.126237
-0.122443
-0.118682
-0.114962
-0.111227
-0.107455
-0.103791
-0.100293
-0.0969551
-0.0937316
-0.090628
-0.087664
-0.0848206
-0.0820551
-0.0793274
-0.0766428
-0.0740143
-0.071451
-0.068928
-0.0664187
-0.0638964
-0.061352
-0.0587664
-0.0561286
-0.0534424
-0.0507226
-0.0479674
-0.0451722
-0.0423309
-0.0394316
-0.0364611
-0.0333991
-0.0302252
-0.0269161
-0.0234708
-0.0198902
-0.0161985
-0.012435
-0.00862323
-0.00476969
-0.000865204
0.00306772
0.00693339
0.0106903
0.0143064
0.0177718
0.0210934
0.0242866
0.0273701
0.0303627
0.0332812
0.0361407
0.0389538
0.0417309
0.0444806
0.0472097
0.0499235
0.0526262
0.0553209
0.0580099
0.060695
0.0633774
0.0660582
0.068738
0.0714174
0.0740965
0.0767758
0.0794553
0.0821351
0.0848153
0.087496
0.0901771
0.0928586
0.0955405
0.0982228
0.100905
0.103588
0.106271
0.108954
-0.218545
-0.214474
-0.210466
-0.206562
-0.202799
-0.199205
-0.195799
-0.192604
-0.189637
-0.186908
-0.184415
-0.182157
-0.180123
-0.178301
-0.176659
-0.175185
-0.173853
-0.172654
-0.171544
-0.170508
-0.169537
-0.168597
-0.167667
-0.166738
-0.165796
-0.164825
-0.163813
-0.162745
-0.161613
-0.160367
-0.158972
-0.157409
-0.155652
-0.153627
-0.151284
-0.148578
-0.145551
-0.142276
-0.138754
-0.135036
-0.131232
-0.12747
-0.123723
-0.119962
-0.116192
-0.112365
-0.108507
-0.104774
-0.101274
-0.0979385
-0.0946228
-0.0913911
-0.0883455
-0.0854742
-0.0826854
-0.0798833
-0.0771003
-0.0743927
-0.0718235
-0.0693382
-0.0668975
-0.064439
-0.0619154
-0.0593066
-0.0566435
-0.0539135
-0.0511392
-0.0483251
-0.0455074
-0.0427031
-0.0398874
-0.0370298
-0.0340859
-0.0310093
-0.0277216
-0.0242559
-0.0206003
-0.0168164
-0.0129459
-0.00904228
-0.00509877
-0.0010796
0.00299249
0.00701886
0.0109241
0.0146489
0.0181788
0.0215269
0.0247189
0.0277832
0.030746
0.0336299
0.0364531
0.0392306
0.0419741
0.0446931
0.0473947
0.0500841
0.0527655
0.0554416
0.0581146
0.0607859
0.0634564
0.0661269
0.0687978
0.0714694
0.0741418
0.0768152
0.0794895
0.0821648
0.0848409
0.087518
0.0901958