/*--------------------------------*- C++ -*----------------------------------*\
  =========                 |
  \\      /  F ield         | OpenFOAM: The Open Source CFD Toolbox
   \\    /   O peration     | Website:  https://openfoam.org
    \\  /    A nd           | Version:  6
     \\/     M anipulation  |
\*---------------------------------------------------------------------------*/
FoamFile
{
    version     2.0;
    format      ascii;
    class       volScalarField;
    location    "4500";
    object      T;
}
// * * * * * * * * * * * * * * * * * * * * * * * * * * * * * * * * * * * * * //

dimensions      [0 0 0 1 0 0 0];

internalField   nonuniform List<scalar> 
4800
(
552.456
552.268
552.078
551.885
551.69
551.493
551.295
551.098
550.904
550.715
550.533
550.361
550.2
550.053
549.92
549.801
549.697
549.607
549.529
549.461
549.401
549.349
549.301
549.258
549.216
549.177
549.14
549.102
549.065
549.026
548.987
548.945
548.902
548.856
548.807
548.756
548.701
548.643
548.582
548.516
548.446
548.371
548.29
548.204
548.112
548.015
547.913
547.806
547.694
547.579
547.46
547.338
547.215
547.092
546.969
546.848
546.73
546.616
546.506
546.399
546.296
546.197
546.101
546.008
545.919
545.833
545.749
545.667
545.588
545.509
545.431
545.352
545.272
545.19
545.106
545.019
544.927
544.831
544.73
544.625
544.518
544.411
544.305
544.201
544.098
543.996
543.893
543.791
543.69
543.588
543.487
543.386
543.285
543.184
543.083
542.982
542.882
542.781
542.681
542.581
542.481
542.381
542.281
542.182
542.082
541.983
541.884
541.785
541.685
541.586
541.488
541.389
541.29
541.191
541.092
540.994
540.895
540.796
540.698
540.599
552.456
552.266
552.076
551.883
551.688
551.49
551.292
551.095
550.902
550.713
550.53
550.358
550.198
550.051
549.919
549.803
549.701
549.612
549.534
549.467
549.408
549.356
549.309
549.265
549.224
549.186
549.148
549.111
549.073
549.034
548.994
548.953
548.909
548.863
548.814
548.763
548.709
548.651
548.589
548.523
548.452
548.377
548.296
548.21
548.118
548.02
547.917
547.81
547.697
547.581
547.462
547.34
547.217
547.095
546.973
546.853
546.736
546.623
546.513
546.406
546.303
546.203
546.107
546.014
545.923
545.836
545.751
545.668
545.587
545.507
545.427
545.348
545.267
545.185
545.101
545.013
544.921
544.826
544.725
544.621
544.515
544.409
544.304
544.201
544.098
543.995
543.893
543.791
543.69
543.588
543.487
543.386
543.285
543.184
543.083
542.982
542.882
542.781
542.681
542.581
542.481
542.381
542.281
542.182
542.082
541.983
541.884
541.785
541.685
541.586
541.488
541.389
541.29
541.191
541.092
540.994
540.895
540.796
540.698
540.599
552.455
552.264
552.072
551.879
551.683
551.486
551.289
551.092
550.899
550.71
550.529
550.357
550.199
550.054
549.924
549.809
549.709
549.622
549.546
549.48
549.422
549.37
549.323
549.28
549.24
549.202
549.164
549.127
549.089
549.051
549.011
548.969
548.925
548.878
548.83
548.779
548.724
548.665
548.603
548.536
548.465
548.389
548.308
548.221
548.129
548.031
547.927
547.819
547.706
547.589
547.47
547.348
547.226
547.104
546.984
546.865
546.749
546.637
546.527
546.421
546.317
546.217
546.12
546.025
545.933
545.843
545.756
545.671
545.587
545.505
545.423
545.342
545.26
545.177
545.092
545.004
544.912
544.817
544.718
544.615
544.511
544.406
544.303
544.2
544.097
543.995
543.893
543.791
543.69
543.588
543.487
543.386
543.285
543.184
543.083
542.982
542.882
542.781
542.681
542.581
542.481
542.381
542.281
542.182
542.082
541.983
541.884
541.784
541.685
541.586
541.487
541.389
541.29
541.191
541.092
540.994
540.895
540.796
540.698
540.599
552.454
552.262
552.068
551.874
551.678
551.482
551.285
551.089
550.896
550.709
550.529
550.36
550.203
550.061
549.934
549.821
549.723
549.638
549.564
549.499
549.442
549.392
549.346
549.304
549.264
549.226
549.189
549.152
549.114
549.076
549.036
548.994
548.95
548.903
548.855
548.802
548.746
548.687
548.623
548.556
548.484
548.407
548.325
548.238
548.145
548.047
547.942
547.833
547.72
547.603
547.484
547.363
547.242
547.121
547.001
546.884
546.769
546.658
546.549
546.442
546.339
546.237
546.139
546.042
545.948
545.856
545.765
545.677
545.59
545.504
545.419
545.335
545.251
545.167
545.081
544.992
544.901
544.807
544.709
544.609
544.506
544.403
544.301
544.198
544.096
543.994
543.893
543.791
543.69
543.588
543.487
543.386
543.285
543.184
543.083
542.982
542.881
542.781
542.681
542.581
542.481
542.381
542.281
542.181
542.082
541.983
541.883
541.784
541.685
541.586
541.487
541.388
541.29
541.191
541.092
540.994
540.895
540.796
540.698
540.599
552.453
552.259
552.065
551.87
551.674
551.478
551.281
551.086
550.894
550.709
550.532
550.365
550.212
550.073
549.949
549.839
549.744
549.661
549.589
549.526
549.471
549.421
549.377
549.335
549.296
549.259
549.222
549.186
549.148
549.109
549.07
549.028
548.983
548.937
548.887
548.834
548.777
548.716
548.651
548.581
548.507
548.429
548.347
548.259
548.166
548.067
547.962
547.853
547.739
547.623
547.504
547.384
547.263
547.144
547.025
546.909
546.796
546.685
546.576
546.469
546.365
546.263
546.163
546.064
545.967
545.872
545.779
545.687
545.596
545.506
545.418
545.331
545.245
545.158
545.07
544.981
544.889
544.796
544.7
544.602
544.501
544.4
544.298
544.197
544.095
543.994
543.893
543.791
543.69
543.588
543.487
543.386
543.285
543.184
543.083
542.982
542.881
542.781
542.68
542.58
542.48
542.38
542.281
542.181
542.082
541.982
541.883
541.784
541.685
541.586
541.487
541.388
541.289
541.191
541.092
540.993
540.895
540.796
540.698
540.599
552.453
552.258
552.062
551.867
551.671
551.475
551.279
551.085
550.895
550.711
550.538
550.375
550.226
550.09
549.969
549.863
549.771
549.691
549.621
549.56
549.507
549.459
549.415
549.374
549.336
549.299
549.263
549.227
549.19
549.151
549.112
549.07
549.025
548.979
548.928
548.874
548.815
548.752
548.684
548.613
548.537
548.457
548.373
548.284
548.19
548.09
547.986
547.877
547.764
547.648
547.53
547.411
547.291
547.173
547.056
546.941
546.827
546.716
546.607
546.5
546.395
546.292
546.191
546.09
545.991
545.893
545.796
545.7
545.605
545.512
545.42
545.328
545.238
545.148
545.059
544.969
544.878
544.786
544.691
544.595
544.496
544.396
544.296
544.196
544.095
543.994
543.893
543.791
543.69
543.589
543.487
543.386
543.285
543.183
543.082
542.982
542.881
542.78
542.68
542.58
542.48
542.38
542.28
542.181
542.081
541.982
541.883
541.784
541.685
541.586
541.487
541.388
541.289
541.191
541.092
540.993
540.895
540.796
540.698
540.599
552.452
552.257
552.061
551.865
551.669
551.474
551.28
551.089
550.9
550.718
550.547
550.388
550.243
550.112
549.995
549.893
549.804
549.727
549.66
549.601
549.549
549.503
549.46
549.42
549.383
549.347
549.311
549.275
549.238
549.201
549.161
549.119
549.075
549.027
548.975
548.919
548.859
548.794
548.723
548.649
548.571
548.488
548.402
548.312
548.217
548.117
548.013
547.904
547.792
547.677
547.56
547.442
547.324
547.206
547.09
546.975
546.862
546.751
546.642
546.535
546.429
546.325
546.222
546.119
546.018
545.917
545.817
545.718
545.619
545.522
545.425
545.33
545.236
545.143
545.051
544.959
544.868
544.776
544.683
544.588
544.491
544.393
544.295
544.195
544.095
543.994
543.893
543.792
543.69
543.589
543.487
543.386
543.285
543.183
543.082
542.981
542.881
542.78
542.68
542.579
542.479
542.379
542.28
542.18
542.081
541.981
541.882
541.783
541.684
541.585
541.486
541.388
541.289
541.19
541.092
540.993
540.895
540.796
540.698
540.599
552.452
552.257
552.061
551.865
551.67
551.475
551.282
551.093
550.909
550.732
550.564
550.409
550.267
550.14
550.028
549.93
549.844
549.77
549.706
549.649
549.598
549.553
549.511
549.472
549.436
549.4
549.365
549.33
549.293
549.256
549.217
549.175
549.13
549.081
549.029
548.971
548.908
548.84
548.767
548.69
548.608
548.523
548.435
548.343
548.247
548.147
548.042
547.934
547.823
547.709
547.593
547.476
547.359
547.243
547.127
547.013
546.901
546.789
546.68
546.572
546.465
546.359
546.255
546.151
546.047
545.945
545.842
545.74
545.638
545.536
545.435
545.335
545.237
545.141
545.046
544.953
544.86
544.769
544.676
544.582
544.487
544.391
544.294
544.195
544.095
543.995
543.894
543.793
543.691
543.589
543.488
543.386
543.285
543.183
543.082
542.981
542.88
542.779
542.679
542.579
542.479
542.379
542.279
542.179
542.08
541.981
541.882
541.783
541.684
541.585
541.486
541.387
541.289
541.19
541.092
540.993
540.895
540.796
540.698
540.599
552.453
552.258
552.062
551.867
551.672
551.478
551.287
551.1
550.919
550.746
550.583
550.433
550.296
550.174
550.066
549.972
549.89
549.819
549.756
549.701
549.652
549.608
549.567
549.529
549.493
549.458
549.424
549.389
549.353
549.316
549.277
549.235
549.19
549.14
549.086
549.026
548.961
548.89
548.814
548.733
548.649
548.561
548.47
548.376
548.279
548.178
548.073
547.966
547.856
547.742
547.628
547.512
547.396
547.281
547.166
547.052
546.94
546.829
546.719
546.61
546.503
546.396
546.29
546.185
546.081
545.976
545.871
545.766
545.661
545.555
545.45
545.346
545.244
545.143
545.046
544.95
544.857
544.764
544.672
544.58
544.486
544.391
544.295
544.196
544.097
543.996
543.895
543.794
543.692
543.59
543.488
543.386
543.285
543.183
543.082
542.98
542.88
542.779
542.678
542.578
542.478
542.378
542.278
542.179
542.079
541.98
541.881
541.782
541.683
541.584
541.486
541.387
541.288
541.19
541.091
540.993
540.894
540.796
540.698
540.599
552.453
552.26
552.067
551.873
551.679
551.486
551.296
551.111
550.934
550.765
550.607
550.462
550.33
550.212
550.109
550.019
549.94
549.871
549.811
549.758
549.71
549.667
549.627
549.59
549.554
549.52
549.486
549.452
549.416
549.38
549.34
549.298
549.253
549.203
549.147
549.085
549.017
548.943
548.863
548.779
548.691
548.6
548.507
548.41
548.31
548.208
548.104
547.997
547.888
547.776
547.663
547.548
547.434
547.32
547.206
547.093
546.98
546.869
546.76
546.651
546.542
546.435
546.328
546.222
546.116
546.01
545.904
545.796
545.688
545.579
545.471
545.363
545.257
545.153
545.052
544.954
544.859
544.765
544.672
544.581
544.488
544.394
544.297
544.199
544.099
543.998
543.897
543.795
543.693
543.591
543.489
543.386
543.284
543.183
543.081
542.98
542.879
542.778
542.677
542.577
542.477
542.377
542.277
542.178
542.079
541.979
541.88
541.781
541.682
541.584
541.485
541.386
541.288
541.189
541.091
540.993
540.894
540.796
540.697
540.599
552.454
552.263
552.072
551.88
551.689
551.499
551.312
551.13
550.955
550.79
550.636
550.495
550.368
550.255
550.155
550.069
549.993
549.927
549.869
549.817
549.77
549.728
549.689
549.653
549.618
549.585
549.552
549.518
549.482
549.445
549.406
549.364
549.318
549.267
549.21
549.146
549.075
548.997
548.913
548.825
548.733
548.64
548.543
548.444
548.342
548.239
548.134
548.027
547.919
547.808
547.697
547.584
547.471
547.358
547.245
547.133
547.021
546.91
546.801
546.691
546.583
546.475
546.367
546.26
546.153
546.046
545.938
545.829
545.719
545.608
545.497
545.387
545.277
545.17
545.066
544.965
544.867
544.771
544.678
544.585
544.492
544.398
544.301
544.203
544.103
544.001
543.899
543.797
543.694
543.592
543.489
543.387
543.284
543.182
543.081
542.979
542.878
542.777
542.676
542.576
542.476
542.376
542.276
542.177
542.078
541.978
541.879
541.781
541.682
541.583
541.484
541.386
541.287
541.189
541.091
540.992
540.894
540.796
540.697
540.599
552.456
552.267
552.079
551.89
551.701
551.514
551.33
551.152
550.981
550.82
550.67
550.533
550.41
550.301
550.206
550.122
550.049
549.985
549.928
549.878
549.833
549.792
549.754
549.719
549.685
549.652
549.619
549.585
549.55
549.513
549.474
549.431
549.384
549.332
549.273
549.207
549.133
549.052
548.964
548.871
548.776
548.679
548.579
548.477
548.373
548.268
548.162
548.055
547.948
547.839
547.729
547.618
547.507
547.395
547.283
547.172
547.062
546.951
546.842
546.733
546.624
546.516
546.408
546.3
546.192
546.084
545.975
545.865
545.754
545.642
545.53
545.417
545.306
545.196
545.089
544.984
544.883
544.784
544.689
544.595
544.501
544.406
544.308
544.208
544.107
544.005
543.902
543.799
543.696
543.593
543.49
543.387
543.284
543.182
543.08
542.978
542.877
542.776
542.675
542.575
542.475
542.375
542.275
542.176
542.077
541.977
541.879
541.78
541.681
541.582
541.484
541.385
541.287
541.189
541.09
540.992
540.894
540.796
540.697
540.599
552.457
552.271
552.086
551.9
551.714
551.53
551.35
551.175
551.009
550.852
550.707
550.574
550.455
550.35
550.258
550.177
550.107
550.045
549.99
549.942
549.898
549.858
549.822
549.787
549.754
549.721
549.688
549.655
549.619
549.582
549.542
549.499
549.451
549.398
549.338
549.269
549.192
549.107
549.015
548.918
548.818
548.717
548.613
548.508
548.402
548.295
548.188
548.081
547.974
547.867
547.758
547.649
547.54
547.43
547.32
547.211
547.101
546.992
546.882
546.774
546.665
546.557
546.449
546.341
546.232
546.123
546.013
545.903
545.791
545.679
545.567
545.454
545.342
545.23
545.12
545.012
544.906
544.804
544.705
544.608
544.513
544.415
544.316
544.215
544.113
544.01
543.906
543.802
543.698
543.594
543.49
543.386
543.283
543.181
543.079
542.977
542.875
542.774
542.674
542.573
542.473
542.374
542.274
542.175
542.075
541.976
541.878
541.779
541.68
541.582
541.483
541.385
541.286
541.188
541.09
540.992
540.894
540.795
540.697
540.599
552.459
552.276
552.094
551.911
551.729
551.55
551.374
551.204
551.041
550.889
550.748
550.62
550.505
550.403
550.313
550.235
550.167
550.107
550.055
550.008
549.966
549.927
549.891
549.857
549.824
549.792
549.759
549.725
549.69
549.652
549.612
549.568
549.519
549.465
549.403
549.332
549.252
549.163
549.066
548.964
548.86
548.754
548.647
548.539
548.43
548.321
548.213
548.106
547.999
547.892
547.785
547.678
547.571
547.463
547.355
547.247
547.139
547.03
546.922
546.814
546.705
546.598
546.49
546.382
546.273
546.164
546.054
545.943
545.832
545.72
545.607
545.494
545.381
545.269
545.157
545.047
544.938
544.832
544.728
544.626
544.525
544.426
544.327
544.224
544.12
544.015
543.91
543.805
543.699
543.594
543.49
543.386
543.283
543.18
543.077
542.975
542.874
542.773
542.672
542.572
542.472
542.372
542.272
542.173
542.074
541.975
541.876
541.778
541.679
541.581
541.482
541.384
541.286
541.188
541.089
540.991
540.893
540.795
540.697
540.599
552.461
552.281
552.102
551.923
551.746
551.571
551.401
551.235
551.077
550.928
550.791
550.667
550.556
550.458
550.371
550.296
550.23
550.172
550.121
550.076
550.035
549.998
549.963
549.929
549.896
549.864
549.831
549.797
549.761
549.723
549.682
549.637
549.587
549.531
549.468
549.395
549.312
549.219
549.117
549.01
548.901
548.791
548.68
548.568
548.457
548.346
548.236
548.128
548.021
547.914
547.809
547.703
547.598
547.492
547.387
547.281
547.174
547.067
546.96
546.852
546.745
546.638
546.53
546.423
546.314
546.206
546.096
545.985
545.874
545.762
545.65
545.537
545.424
545.311
545.198
545.087
544.976
544.867
544.758
544.652
544.547
544.444
544.34
544.235
544.128
544.021
543.914
543.807
543.701
543.595
543.49
543.385
543.281
543.178
543.075
542.973
542.872
542.771
542.67
542.57
542.47
542.37
542.271
542.172
542.073
541.974
541.875
541.777
541.678
541.58
541.482
541.383
541.285
541.187
541.089
540.991
540.893
540.795
540.697
540.599
552.462
552.286
552.111
551.936
551.763
551.593
551.427
551.266
551.113
550.969
550.836
550.716
550.609
550.514
550.43
550.358
550.294
550.239
550.19
550.146
550.107
550.07
550.035
550.002
549.969
549.937
549.903
549.869
549.833
549.795
549.753
549.707
549.656
549.599
549.534
549.458
549.372
549.275
549.169
549.058
548.943
548.828
548.713
548.598
548.483
548.37
548.259
548.149
548.041
547.935
547.829
547.725
547.621
547.518
547.414
547.31
547.205
547.1
546.995
546.889
546.783
546.677
546.57
546.463
546.356
546.248
546.139
546.029
545.918
545.807
545.695
545.582
545.469
545.355
545.242
545.129
545.016
544.904
544.793
544.683
544.573
544.465
544.356
544.246
544.137
544.027
543.918
543.81
543.702
543.595
543.489
543.384
543.28
543.176
543.073
542.971
542.869
542.768
542.668
542.568
542.468
542.368
542.269
542.17
542.071
541.972
541.874
541.775
541.677
541.579
541.481
541.383
541.285
541.187
541.089
540.991
540.893
540.795
540.697
540.599
552.464
552.291
552.119
551.948
551.78
551.615
551.453
551.298
551.149
551.01
550.882
550.767
550.664
550.572
550.492
550.421
550.36
550.307
550.26
550.217
550.179
550.143
550.109
550.075
550.043
550.01
549.977
549.942
549.906
549.867
549.824
549.777
549.725
549.667
549.6
549.523
549.434
549.333
549.222
549.106
548.986
548.866
548.746
548.627
548.51
548.394
548.28
548.168
548.059
547.952
547.847
547.744
547.641
547.54
547.437
547.335
547.232
547.129
547.026
546.922
546.818
546.714
546.608
546.503
546.397
546.29
546.182
546.073
545.963
545.852
545.741
545.628
545.515
545.401
545.287
545.172
545.058
544.943
544.828
544.714
544.599
544.486
544.372
544.258
544.145
544.033
543.922
543.811
543.702
543.594
543.488
543.382
543.277
543.173
543.07
542.968
542.867
542.766
542.665
542.565
542.465
542.366
542.267
542.168
542.069
541.971
541.872
541.774
541.676
541.578
541.48
541.382
541.284
541.186
541.088
540.99
540.892
540.795
540.697
540.599
552.465
552.296
552.127
551.961
551.797
551.636
551.48
551.329
551.186
551.052
550.93
550.819
550.72
550.632
550.554
550.487
550.428
550.377
550.331
550.29
550.253
550.217
550.183
550.15
550.117
550.084
550.051
550.016
549.979
549.939
549.895
549.848
549.795
549.735
549.666
549.587
549.495
549.391
549.276
549.155
549.031
548.905
548.781
548.658
548.538
548.419
548.302
548.188
548.076
547.968
547.862
547.759
547.658
547.557
547.456
547.356
547.255
547.154
547.053
546.952
546.85
546.747
546.644
546.541
546.437
546.332
546.225
546.118
546.009
545.899
545.788
545.676
545.562
545.447
545.332
545.215
545.098
544.98
544.861
544.743
544.624
544.506
544.387
544.269
544.153
544.038
543.924
543.812
543.702
543.593
543.485
543.379
543.274
543.17
543.067
542.965
542.863
542.762
542.662
542.562
542.463
542.364
542.265
542.166
542.068
541.969
541.871
541.773
541.675
541.577
541.479
541.381
541.283
541.185
541.088
540.99
540.892
540.794
540.697
540.599
552.467
552.301
552.136
551.974
551.814
551.658
551.506
551.361
551.224
551.096
550.978
550.872
550.777
550.692
550.618
550.554
550.497
550.448
550.404
550.364
550.327
550.292
550.258
550.225
550.192
550.159
550.125
550.089
550.052
550.011
549.967
549.918
549.864
549.803
549.733
549.651
549.556
549.449
549.333
549.208
549.078
548.947
548.818
548.691
548.568
548.446
548.326
548.208
548.094
547.983
547.876
547.772
547.67
547.57
547.471
547.373
547.274
547.175
547.076
546.977
546.878
546.778
546.677
546.576
546.474
546.371
546.267
546.161
546.054
545.945
545.834
545.722
545.609
545.493
545.376
545.258
545.138
545.016
544.894
544.771
544.648
544.525
544.401
544.279
544.159
544.041
543.925
543.811
543.7
543.59
543.481
543.375
543.269
543.165
543.063
542.961
542.859
542.759
542.659
542.559
542.46
542.361
542.262
542.164
542.066
541.967
541.869
541.771
541.674
541.576
541.478
541.38
541.282
541.185
541.087
540.989
540.892
540.794
540.696
540.599
552.469
552.306
552.145
551.987
551.831
551.68
551.534
551.394
551.262
551.14
551.028
550.926
550.836
550.755
550.684
550.622
550.568
550.52
550.477
550.438
550.402
550.368
550.334
550.3
550.267
550.233
550.199
550.163
550.125
550.083
550.038
549.989
549.933
549.87
549.798
549.714
549.616
549.507
549.388
549.26
549.125
548.99
548.857
548.727
548.6
548.475
548.352
548.23
548.113
548
547.89
547.785
547.682
547.583
547.484
547.386
547.289
547.193
547.096
546.999
546.902
546.805
546.707
546.608
546.509
546.408
546.305
546.201
546.095
545.988
545.878
545.767
545.653
545.536
545.418
545.298
545.175
545.05
544.924
544.797
544.669
544.542
544.413
544.287
544.164
544.043
543.925
543.809
543.696
543.585
543.476
543.369
543.264
543.16
543.057
542.956
542.855
542.755
542.655
542.556
542.457
542.358
542.26
542.162
542.064
541.966
541.868
541.77
541.672
541.575
541.477
541.379
541.282
541.184
541.087
540.989
540.891
540.794
540.696
540.599
552.47
552.312
552.154
552
551.849
551.702
551.562
551.427
551.302
551.185
551.079
550.982
550.896
550.819
550.752
550.692
550.64
550.594
550.552
550.513
550.478
550.443
550.409
550.376
550.342
550.308
550.273
550.236
550.197
550.155
550.109
550.058
550
549.935
549.861
549.774
549.675
549.564
549.442
549.311
549.173
549.035
548.899
548.766
548.636
548.508
548.38
548.255
548.134
548.017
547.906
547.798
547.695
547.594
547.496
547.399
547.303
547.208
547.113
547.018
546.923
546.828
546.733
546.637
546.539
546.44
546.339
546.237
546.133
546.027
545.918
545.807
545.693
545.577
545.457
545.335
545.21
545.082
544.952
544.821
544.689
544.557
544.424
544.294
544.166
544.042
543.922
543.804
543.69
543.578
543.469
543.362
543.257
543.154
543.051
542.95
542.85
542.75
542.651
542.552
542.453
542.355
542.257
542.159
542.061
541.964
541.866
541.769
541.671
541.574
541.476
541.379
541.281
541.184
541.086
540.989
540.891
540.794
540.696
540.599
552.472
552.316
552.163
552.013
551.867
551.726
551.591
551.462
551.343
551.232
551.131
551.039
550.957
550.884
550.82
550.763
550.713
550.667
550.626
550.588
550.553
550.518
550.485
550.451
550.417
550.382
550.346
550.309
550.269
550.226
550.179
550.126
550.067
550
549.923
549.833
549.73
549.616
549.493
549.36
549.221
549.082
548.945
548.81
548.677
548.544
548.412
548.283
548.158
548.039
547.924
547.815
547.71
547.608
547.509
547.412
547.316
547.221
547.127
547.035
546.942
546.849
546.755
546.661
546.565
546.467
546.368
546.267
546.165
546.06
545.953
545.843
545.73
545.613
545.493
545.37
545.242
545.111
544.978
544.844
544.707
544.57
544.433
544.298
544.166
544.039
543.915
543.796
543.681
543.569
543.46
543.354
543.249
543.146
543.044
542.944
542.844
542.745
542.646
542.548
542.45
542.352
542.254
542.157
542.059
541.962
541.864
541.767
541.67
541.572
541.475
541.378
541.28
541.183
541.086
540.988
540.891
540.793
540.696
540.599
552.474
552.322
552.173
552.027
551.886
551.75
551.62
551.499
551.385
551.28
551.184
551.098
551.02
550.951
550.889
550.834
550.784
550.74
550.7
550.662
550.626
550.592
550.559
550.525
550.491
550.456
550.419
550.381
550.34
550.296
550.248
550.193
550.132
550.061
549.98
549.887
549.781
549.665
549.54
549.406
549.267
549.128
548.991
548.854
548.719
548.584
548.447
548.314
548.187
548.066
547.949
547.837
547.729
547.626
547.526
547.427
547.33
547.234
547.141
547.05
546.959
546.868
546.775
546.682
546.586
546.488
546.39
546.29
546.188
546.085
545.98
545.872
545.761
545.646
545.526
545.401
545.271
545.137
545.001
544.863
544.723
544.581
544.439
544.299
544.162
544.031
543.906
543.785
543.669
543.557
543.449
543.343
543.239
543.137
543.037
542.937
542.838
542.739
542.641
542.544
542.446
542.349
542.252
542.154
542.057
541.96
541.863
541.766
541.668
541.571
541.474
541.377
541.28
541.182
541.085
540.988
540.891
540.793
540.696
540.599
552.476
552.328
552.183
552.041
551.905
551.774
551.651
551.535
551.427
551.328
551.238
551.156
551.082
551.016
550.957
550.903
550.855
550.812
550.771
550.734
550.699
550.664
550.631
550.597
550.563
550.528
550.491
550.452
550.411
550.366
550.316
550.259
550.195
550.122
550.037
549.939
549.829
549.71
549.582
549.448
549.31
549.173
549.037
548.901
548.764
548.625
548.486
548.35
548.224
548.102
547.982
547.865
547.754
547.65
547.549
547.448
547.347
547.248
547.155
547.065
546.977
546.888
546.796
546.701
546.605
546.506
546.405
546.303
546.2
546.098
545.996
545.893
545.786
545.674
545.555
545.43
545.297
545.16
545.019
544.878
544.735
544.589
544.441
544.295
544.154
544.019
543.891
543.769
543.654
543.542
543.435
543.33
543.228
543.127
543.028
542.929
542.831
542.734
542.636
542.539
542.442
542.346
542.249
542.152
542.055
541.958
541.861
541.764
541.667
541.57
541.473
541.376
541.279
541.182
541.085
540.987
540.89
540.793
540.696
540.599
552.478
552.334
552.193
552.055
551.924
551.799
551.681
551.572
551.47
551.377
551.291
551.214
551.144
551.08
551.023
550.971
550.923
550.88
550.84
550.803
550.768
550.734
550.701
550.668
550.634
550.599
550.562
550.524
550.482
550.436
550.383
550.324
550.257
550.18
550.09
549.986
549.872
549.751
549.622
549.487
549.352
549.219
549.087
548.95
548.811
548.668
548.527
548.392
548.272
548.155
548.025
547.897
547.784
547.683
547.585
547.48
547.372
547.265
547.171
547.083
547.001
546.917
546.825
546.726
546.629
546.527
546.421
546.309
546.199
546.096
545.998
545.9
545.8
545.696
545.577
545.452
545.317
545.178
545.034
544.89
544.743
544.592
544.439
544.286
544.138
544
543.87
543.748
543.633
543.524
543.418
543.316
543.215
543.116
543.018
542.921
542.824
542.728
542.631
542.535
542.439
542.342
542.246
542.149
542.053
541.956
541.86
541.763
541.666
541.569
541.472
541.375
541.278
541.181
541.084
540.987
540.89
540.793
540.696
540.599
552.479
552.338
552.201
552.069
551.942
551.823
551.711
551.608
551.512
551.423
551.343
551.269
551.202
551.141
551.086
551.035
550.988
550.945
550.905
550.869
550.834
550.801
550.768
550.736
550.704
550.67
550.633
550.595
550.553
550.505
550.45
550.388
550.319
550.24
550.145
550.036
549.919
549.796
549.671
549.538
549.404
549.28
549.151
549.011
548.867
548.719
548.579
548.445
548.349
548.242
548.081
547.93
547.821
547.728
547.643
547.539
547.412
547.286
547.191
547.102
547.039
546.969
546.864
546.755
546.667
546.567
546.454
546.315
546.186
546.077
545.98
545.885
545.789
545.701
545.577
545.453
545.322
545.192
545.048
544.905
544.753
544.593
544.434
544.268
544.113
543.971
543.841
543.721
543.608
543.502
543.399
543.299
543.201
543.104
543.008
542.912
542.817
542.721
542.626
542.531
542.435
542.339
542.243
542.147
542.051
541.955
541.858
541.762
541.665
541.568
541.471
541.375
541.278
541.181
541.084
540.987
540.89
540.793
540.696
540.599
552.481
552.343
552.209
552.081
551.96
551.846
551.74
551.642
551.551
551.468
551.391
551.322
551.258
551.199
551.144
551.094
551.048
551.006
550.967
550.932
550.898
550.866
550.835
550.804
550.773
550.74
550.703
550.666
550.625
550.575
550.515
550.451
550.384
550.311
550.216
550.101
549.981
549.86
549.753
549.626
549.488
549.38
549.255
549.104
548.941
548.772
548.609
548.477
548.372
548.253
548.106
547.978
547.851
547.751
547.657
547.534
547.422
547.306
547.205
547.138
547.082
546.996
546.893
546.808
546.712
546.615
546.491
546.313
546.147
546.028
545.945
545.825
545.685
545.657
545.522
545.398
545.335
545.208
545.06
544.938
544.781
544.608
544.425
544.237
544.072
543.931
543.802
543.686
543.578
543.475
543.377
543.28
543.185
543.091
542.997
542.903
542.81
542.715
542.621
542.526
542.431
542.336
542.241
542.145
542.049
541.953
541.857
541.76
541.664
541.567
541.471
541.374
541.277
541.18
541.083
540.987
540.89
540.793
540.696
540.599
552.482
552.346
552.216
552.092
551.976
551.867
551.767
551.673
551.587
551.508
551.435
551.369
551.306
551.249
551.196
551.148
551.105
551.065
551.029
550.996
550.964
550.934
550.903
550.872
550.841
550.81
550.773
550.737
550.709
550.656
550.582
550.515
550.457
550.414
550.331
550.2
550.072
549.946
549.837
549.716
549.538
549.405
549.303
549.134
548.963
548.802
548.647
548.541
548.429
548.292
548.137
548.01
547.868
547.766
547.661
547.522
547.411
547.312
547.221
547.165
547.121
547.012
546.892
546.868
546.737
546.655
546.581
546.304
546.127
545.967
545.816
545.728
545.737
545.569
545.53
545.333
545.285
545.288
545.133
545.039
544.837
544.657
544.435
544.143
544.005
543.878
543.751
543.642
543.542
543.446
543.352
543.26
543.169
543.078
542.987
542.895
542.803
542.71
542.616
542.522
542.428
542.333
542.238
542.143
542.047
541.952
541.856
541.759
541.663
541.567
541.47
541.373
541.277
541.18
541.083
540.986
540.889
540.792
540.695
540.598
552.482
552.349
552.222
552.102
551.991
551.887
551.791
551.701
551.618
551.542
551.473
551.407
551.344
551.287
551.239
551.199
551.163
551.129
551.101
551.072
551.045
551.015
550.978
550.94
550.905
550.884
550.845
550.809
550.824
550.765
550.658
550.579
550.518
550.471
550.408
550.303
550.168
550.038
549.909
549.775
549.605
549.43
549.304
549.128
548.959
548.798
548.666
548.62
548.536
548.377
548.219
548.057
547.855
547.738
547.675
547.566
547.407
547.334
547.228
547.184
547.161
547.01
546.874
547.029
546.729
546.688
546.65
546.338
546.211
545.965
545.773
545.655
545.741
545.522
545.515
545.333
545.238
545.193
545.061
544.983
544.818
544.675
544.475
544.114
543.965
543.792
543.683
543.59
543.501
543.414
543.327
543.24
543.153
543.065
542.977
542.887
542.796
542.705
542.612
542.519
542.425
542.331
542.236
542.141
542.046
541.95
541.855
541.759
541.662
541.566
541.47
541.373
541.276
541.18
541.083
540.986
540.889
540.792
540.695
540.598
552.481
552.349
552.225
552.11
552.003
551.904
551.812
551.725
551.644
551.571
551.505
551.433
551.359
551.305
551.273
551.254
551.232
551.211
551.205
551.191
551.18
551.142
551.07
551.007
550.957
550.97
550.921
550.852
550.883
550.804
550.702
550.609
550.501
550.467
550.466
550.444
550.321
550.161
549.97
549.795
549.667
549.444
549.248
549.085
548.945
548.723
548.664
548.751
548.631
548.452
548.411
548.098
547.741
547.628
547.736
547.792
547.495
547.31
547.327
547.245
547.155
547.028
546.867
546.998
546.712
546.709
546.646
546.305
546.188
545.979
545.879
545.752
545.763
545.583
545.516
545.35
545.234
545.139
545.015
544.909
544.779
544.633
544.449
543.965
543.862
543.727
543.612
543.533
543.46
543.383
543.302
543.219
543.137
543.053
542.968
542.88
542.791
542.7
542.609
542.516
542.423
542.329
542.235
542.14
542.045
541.949
541.854
541.758
541.662
541.566
541.469
541.373
541.276
541.179
541.083
540.986
540.889
540.792
540.695
540.598
552.479
552.346
552.225
552.115
552.014
551.919
551.83
551.745
551.666
551.601
551.548
551.442
551.342
551.319
551.322
551.333
551.315
551.302
551.359
551.382
551.451
551.393
551.185
551.068
550.98
551.018
551.018
550.801
550.772
550.771
550.775
550.639
550.382
550.34
550.477
550.7
550.702
550.402
550.028
549.658
549.551
549.344
549.181
549.121
549.064
548.597
548.647
548.914
548.675
548.418
548.53
548.091
547.627
547.567
547.656
547.934
547.773
547.462
547.241
547.15
547.075
547.045
546.991
546.977
546.787
546.668
546.544
546.289
546.154
545.999
545.91
545.793
545.729
545.587
545.48
545.339
545.205
545.072
544.943
544.832
544.666
544.339
544.145
543.899
543.753
543.644
543.565
543.48
543.422
543.356
543.277
543.199
543.123
543.043
542.961
542.875
542.787
542.697
542.606
542.514
542.422
542.328
542.234
542.139
542.044
541.949
541.853
541.757
541.661
541.565
541.469
541.372
541.276
541.179