/*--------------------------------*- C++ -*----------------------------------*\
  =========                 |
  \\      /  F ield         | OpenFOAM: The Open Source CFD Toolbox
   \\    /   O peration     | Website:  https://openfoam.org
    \\  /    A nd           | Version:  6
     \\/     M anipulation  |
\*---------------------------------------------------------------------------*/
FoamFile
{
    version     2.0;
    format      ascii;
    class       volVectorField;
    location    "4500";
    object      U;
}
// * * * * * * * * * * * * * * * * * * * * * * * * * * * * * * * * * * * * * //

dimensions      [0 1 -1 0 0 0 0];

internalField   nonuniform List<vector> 
4800
(
(-0.000116801 0 -6.17696e-05)
(9.839e-05 0 -5.04998e-05)
(0.000122907 0 -3.09858e-05)
(0.000125616 0 5.42797e-06)
(0.000101686 0 5.89063e-06)
(3.54685e-05 0 -8.36329e-06)
(-4.27479e-05 0 6.3609e-06)
(-0.000105467 0 3.10919e-05)
(-0.000155437 0 2.84819e-05)
(-0.000276892 0 -4.11048e-05)
(-0.000355681 0 -3.75398e-05)
(-0.000429941 0 -0.000101983)
(-0.000504498 0 -0.00055415)
(-0.00061763 0 -0.000377751)
(-0.000895846 0 0.000475304)
(-0.00107684 0 2.71281e-05)
(-0.00124284 0 -0.000117684)
(-0.00135995 0 0.000301776)
(-0.00149333 0 -6.22272e-05)
(-0.00155133 0 2.07813e-05)
(-0.00158064 0 3.38523e-05)
(-0.00157284 0 -4.9775e-07)
(-0.00151036 0 1.46009e-06)
(-0.00150154 0 -2.74569e-05)
(-0.00153245 0 -6.61559e-05)
(-0.00153984 0 -6.41558e-05)
(-0.00150426 0 -0.000188986)
(-0.00133967 0 -0.000193712)
(-0.00113822 0 -0.000199039)
(-0.00104558 0 -0.000257197)
(-0.000966553 0 -0.00041182)
(-0.000829424 0 3.04905e-05)
(-0.00052781 0 -0.000215362)
(-0.000444639 0 4.46578e-05)
(-0.000465706 0 -3.47969e-05)
(-0.000451238 0 -8.61057e-05)
(-0.000414401 0 -9.43659e-05)
(-0.000359205 0 -0.000102973)
(-0.000263961 0 -0.000119637)
(-9.06585e-05 0 -0.000187329)
(-7.07273e-05 0 -6.42839e-06)
(1.34915e-05 0 -7.10602e-05)
(2.6692e-05 0 -2.26243e-05)
(4.43443e-05 0 -2.0041e-05)
(5.86957e-05 0 -3.2327e-05)
(7.1889e-05 0 -3.10586e-05)
(8.25808e-05 0 -3.81535e-05)
(9.0336e-05 0 -5.47983e-05)
(9.36989e-05 0 -8.26102e-05)
(8.68306e-05 0 -8.51464e-05)
(5.90837e-05 0 -0.000140813)
(3.66257e-05 0 -0.0001832)
(-8.34059e-05 0 -5.39858e-05)
(-0.000135613 0 -0.000122443)
(-0.000320541 0 0.000103938)
(-0.000471318 0 -6.29144e-05)
(-0.000568952 0 6.49097e-05)
(-0.000624931 0 -6.83912e-05)
(-0.00065348 0 8.74935e-06)
(-0.000673024 0 -4.16878e-05)
(-0.000693741 0 -1.81022e-05)
(-0.000699606 0 -2.42361e-05)
(-0.000667797 0 -1.43643e-05)
(-0.000615844 0 -2.44152e-05)
(-0.000519428 0 -0.000201997)
(-0.000459692 0 -2.99752e-05)
(-0.00032011 0 -0.000167325)
(-0.000207061 0 -0.000175121)
(3.37268e-05 0 -0.00025153)
(0.000255756 0 -9.90204e-05)
(0.000325108 0 -9.91268e-05)
(0.000457569 0 -2.61775e-05)
(0.000542816 0 -8.94513e-05)
(0.000626108 0 -4.74439e-05)
(0.000711811 0 -6.07498e-05)
(0.000790281 0 -1.01229e-05)
(0.000772294 0 8.95128e-06)
(0.000708673 0 9.15124e-06)
(0.000582184 0 9.90262e-05)
(0.000323905 0 8.57035e-06)
(2.29178e-06 0 0.000187765)
(-8.48469e-14 0 4.77497e-13)
(-1.19248e-12 0 2.38415e-13)
(-6.97622e-13 0 1.21589e-13)
(-8.75402e-13 0 5.56304e-14)
(-9.47876e-13 0 1.62111e-14)
(-9.56134e-13 0 -8.59675e-15)
(-9.23198e-13 0 -2.49485e-14)
(-8.62634e-13 0 -3.61553e-14)
(-7.82871e-13 0 -4.40488e-14)
(-6.89485e-13 0 -4.96547e-14)
(-5.86454e-13 0 -5.3546e-14)
(-4.76865e-13 0 -5.60395e-14)
(-3.6332e-13 0 -5.73109e-14)
(-2.48144e-13 0 -5.74634e-14)
(-1.335e-13 0 -5.65699e-14)
(-2.14267e-14 0 -5.46977e-14)
(8.61616e-14 0 -5.19219e-14)
(1.87495e-13 0 -4.83318e-14)
(2.80983e-13 0 -4.40311e-14)
(3.65247e-13 0 -3.91366e-14)
(4.39149e-13 0 -3.3773e-14)
(5.01815e-13 0 -2.80689e-14)
(5.52645e-13 0 -2.21509e-14)
(5.91316e-13 0 -1.61403e-14)
(6.17768e-13 0 -1.01494e-14)
(6.32178e-13 0 -4.27916e-15)
(6.34933e-13 0 1.38216e-15)
(6.26585e-13 0 6.75997e-15)
(6.07817e-13 0 1.17937e-14)
(5.79406e-13 0 1.6436e-14)
(5.42195e-13 0 2.06521e-14)
(4.97071e-13 0 2.44179e-14)
(4.4495e-13 0 2.77184e-14)
(3.86761e-13 0 3.05458e-14)
(3.23441e-13 0 3.28976e-14)
(2.55928e-13 0 3.47749e-14)
(1.85155e-13 0 3.61812e-14)
(1.1205e-13 0 3.71237e-14)
(3.75142e-14 0 3.76193e-14)
(-7.87779e-05 0 -0.000102041)
(8.25527e-05 0 -9.87117e-05)
(0.00010021 0 -7.00821e-05)
(0.000108016 0 -2.7157e-05)
(8.12279e-05 0 7.18332e-05)
(3.87934e-05 0 0.000107632)
(-3.93575e-05 0 0.000116718)
(-0.000145389 0 0.000117313)
(-0.000223152 0 0.000135253)
(-0.000255794 0 0.00018824)
(-0.000577523 0 6.44769e-05)
(-0.000775368 0 0.000200627)
(-0.000779612 0 0.000567359)
(-0.000932545 0 0.000251169)
(-0.00104449 0 -0.000203509)
(-0.00115279 0 0.000429342)
(-0.00133866 0 0.000222582)
(-0.00144092 0 2.16858e-05)
(-0.00151262 0 0.000165788)
(-0.00157116 0 5.66631e-05)
(-0.00159255 0 -7.2179e-06)
(-0.00159877 0 -1.98723e-05)
(-0.0015953 0 -0.000131449)
(-0.00159954 0 -1.34685e-05)
(-0.00158393 0 0.000180211)
(-0.00151082 0 -0.000153935)
(-0.00142404 0 -0.000105134)
(-0.0013412 0 -6.78221e-05)
(-0.0012481 0 -0.000225136)
(-0.00116392 0 -0.000266547)
(-0.00109239 0 3.53488e-05)
(-0.000942029 0 -0.000154981)
(-0.000798032 0 -0.000562976)
(-0.000832516 0 -0.000173465)
(-0.000778985 0 -0.0001641)
(-0.000605294 0 -4.31117e-05)
(-0.000423343 0 -0.000112329)
(-0.000324285 0 -7.02194e-05)
(-0.000257255 0 -8.5277e-05)
(-6.49612e-05 0 -0.000253737)
(-0.000109238 0 -1.43827e-05)
(3.386e-05 0 -8.61456e-05)
(1.73497e-05 0 1.37125e-07)
(3.95515e-05 0 3.1621e-06)
(4.21026e-05 0 -3.91193e-06)
(2.89046e-05 0 9.49841e-06)
(2.05801e-05 0 6.55454e-06)
(3.58462e-06 0 4.25449e-05)
(-4.48146e-05 0 7.94587e-05)
(-0.000129242 0 7.24297e-05)
(-0.000155109 0 0.000154084)
(-0.000245421 0 0.000136849)
(-0.000325391 0 0.000113606)
(-0.000409983 0 0.000164004)
(-0.000483218 0 0.000161202)
(-0.000545859 0 0.000120618)
(-0.000584455 0 9.67442e-05)
(-0.000625708 0 0.000106279)
(-0.000674192 0 3.91658e-05)
(-0.000709756 0 2.0255e-05)
(-0.000728477 0 7.26385e-06)
(-0.000717381 0 -5.46869e-05)
(-0.000652963 0 -0.000116471)
(-0.000623944 0 -9.0585e-05)
(-0.000600014 0 -3.59052e-05)
(-0.000500989 0 -0.000236584)
(-0.000458551 0 -0.00014898)
(-0.000202411 0 -0.000359772)
(-0.000165645 0 -0.000206211)
(-9.81327e-05 0 -0.000265557)
(-5.243e-06 0 -0.000392104)
(0.000393841 0 -0.000227722)
(0.000420051 0 -0.000216474)
(0.00047998 0 -0.000172498)
(0.000545915 0 -0.000202332)
(0.000637496 0 -1.47833e-05)
(0.000627096 0 5.51958e-05)
(0.000590921 0 9.05032e-05)
(0.000520665 0 0.000127407)
(9.41091e-05 0 0.000269043)
(2.39242e-06 0 0.000396235)
(-2.84147e-13 0 1.20066e-12)
(-1.5224e-12 0 6.11397e-13)
(-8.80407e-13 0 3.13688e-13)
(-9.8078e-13 0 1.40154e-13)
(-1.0121e-12 0 3.38531e-14)
(-9.97293e-13 0 -3.43762e-14)
(-9.50756e-13 0 -8.00774e-14)
(-8.81734e-13 0 -1.11817e-13)
(-7.9637e-13 0 -1.34415e-13)
(-6.98982e-13 0 -1.50594e-13)
(-5.92839e-13 0 -1.61881e-13)
(-4.8063e-13 0 -1.69116e-13)
(-3.64744e-13 0 -1.72762e-13)
(-2.47403e-13 0 -1.73095e-13)
(-1.30734e-13 0 -1.70313e-13)
(-1.67787e-14 0 -1.64609e-13)
(9.25275e-14 0 -1.56206e-13)
(1.95386e-13 0 -1.45369e-13)
(2.90178e-13 0 -1.32407e-13)
(3.75505e-13 0 -1.1767e-13)
(4.50217e-13 0 -1.01527e-13)
(5.13437e-13 0 -8.43589e-14)
(5.64574e-13 0 -6.65425e-14)
(6.03318e-13 0 -4.8439e-14)
(6.29629e-13 0 -3.03861e-14)
(6.4371e-13 0 -1.26902e-14)
(6.45972e-13 0 4.379e-15)
(6.36997e-13 0 2.05924e-14)
(6.17493e-13 0 3.57638e-14)
(5.88264e-13 0 4.97486e-14)
(5.50176e-13 0 6.24411e-14)
(5.04137e-13 0 7.37697e-14)
(4.51078e-13 0 8.36914e-14)
(3.9194e-13 0 9.21848e-14)
(3.2767e-13 0 9.92445e-14)
(2.59211e-13 0 1.04876e-13)
(1.87504e-13 0 1.09089e-13)
(1.13488e-13 0 1.119e-13)
(3.80098e-14 0 1.13328e-13)
(2.59173e-05 0 -0.000135612)
(2.74042e-05 0 -0.000126556)
(6.25253e-05 0 -5.78715e-05)
(2.72318e-05 0 4.98705e-05)
(2.87693e-05 0 9.03859e-05)
(-4.60297e-06 0 0.000159701)
(-6.6122e-05 0 0.000206053)
(-0.000151824 0 0.000200946)
(-0.000254408 0 0.000218497)
(-0.000319709 0 0.000293368)
(-0.000527039 0 0.000411795)
(-0.000823527 0 0.00033833)
(-0.000831503 0 0.000495658)
(-0.000802196 0 0.000765604)
(-0.00118406 0 0.000359412)
(-0.001281 0 0.000287927)
(-0.00139211 0 0.000309529)
(-0.00147774 0 0.000222221)
(-0.00152086 0 0.000217122)
(-0.00158026 0 0.000118289)
(-0.00161333 0 8.50581e-05)
(-0.00164425 0 3.88302e-06)
(-0.00167059 0 3.61596e-05)
(-0.0016728 0 1.54149e-05)
(-0.00161418 0 -7.65085e-05)
(-0.00155846 0 -0.000130135)
(-0.00150664 0 -0.000189693)
(-0.00146444 0 -0.000240867)
(-0.00140932 0 -0.000366221)
(-0.00131446 0 -0.000294273)
(-0.00120584 0 -0.000268647)
(-0.00113644 0 -0.000427789)
(-0.00114933 0 -0.00029373)
(-0.00100887 0 0.000335195)
(-0.000788021 0 0.000115321)
(-0.000536582 0 -0.000531224)
(-0.000478672 0 -0.000212876)
(-0.000342276 0 -0.000236242)
(-0.000265283 0 -0.000154674)
(-9.77213e-05 0 -0.000245427)
(-9.11166e-05 0 -0.000108968)
(6.49328e-05 0 -0.000112168)
(6.70729e-05 0 -2.60962e-05)
(8.86501e-05 0 -2.21558e-05)
(9.54546e-05 0 -3.82417e-06)
(6.2835e-05 0 2.46183e-05)
(1.81088e-05 0 4.4888e-05)
(-1.10576e-05 0 6.57345e-05)
(-5.91007e-05 0 0.000119667)
(-0.000148306 0 0.000139005)
(-0.000244579 0 0.000136594)
(-0.000279939 0 0.00022098)
(-0.000371413 0 0.000235437)
(-0.000425771 0 0.000285467)
(-0.000494035 0 0.000253089)
(-0.00051792 0 0.000245633)
(-0.000567475 0 0.000131007)
(-0.000585908 0 0.000132314)
(-0.000615055 0 8.86641e-05)
(-0.000631763 0 5.22792e-05)
(-0.000646078 0 3.78759e-05)
(-0.000653748 0 2.49921e-06)
(-0.000653853 0 -6.41742e-05)
(-0.000573922 0 -0.000260386)
(-0.000572765 0 -0.000117675)
(-0.000533549 0 -0.000190346)
(-0.000514517 0 -0.000239889)
(-0.000264397 0 -0.000498382)
(-0.000300068 0 -0.000388428)
(-0.000108181 0 -0.000480071)
(4.85694e-05 0 -0.000446264)
(6.52268e-05 0 -0.000452325)
(0.000246928 0 -0.000251595)
(0.000344811 0 -0.000259318)
(0.000427822 0 -5.57881e-05)
(0.000450526 0 -2.45279e-05)
(0.000472029 0 -2.3854e-06)
(0.000394053 0 0.000255945)
(0.000317305 0 0.000342496)
(2.27734e-05 0 0.000419272)
(2.34127e-06 0 0.00057643)
(-5.27202e-13 0 1.43781e-12)
(-2.01033e-12 0 7.44916e-13)
(-1.16887e-12 0 3.81619e-13)
(-1.15524e-12 0 1.57479e-13)
(-1.12241e-12 0 1.34721e-14)
(-1.07006e-12 0 -8.2632e-14)
(-1.00064e-12 0 -1.49117e-13)
(-9.16971e-13 0 -1.96571e-13)
(-8.21648e-13 0 -2.31145e-13)
(-7.16951e-13 0 -2.56366e-13)
(-6.04975e-13 0 -2.74201e-13)
(-4.87747e-13 0 -2.85711e-13)
(-3.67299e-13 0 -2.91459e-13)
(-2.45695e-13 0 -2.91775e-13)
(-1.25015e-13 0 -2.86916e-13)
(-7.31997e-15 0 -2.77162e-13)
(1.05402e-13 0 -2.62867e-13)
(2.11294e-13 0 -2.44471e-13)
(3.08682e-13 0 -2.22499e-13)
(3.96127e-13 0 -1.97543e-13)
(4.7246e-13 0 -1.70237e-13)
(5.36799e-13 0 -1.41227e-13)
(5.88565e-13 0 -1.11151e-13)
(6.27473e-13 0 -8.06211e-14)
(6.53516e-13 0 -5.02067e-14)
(6.66943e-13 0 -2.04241e-14)
(6.68216e-13 0 8.27333e-15)
(6.5797e-13 0 3.55021e-14)
(6.36973e-13 0 6.09517e-14)
(6.06083e-13 0 8.43834e-14)
(5.66216e-13 0 1.05625e-13)
(5.18321e-13 0 1.24563e-13)
(4.63365e-13 0 1.4113e-13)
(4.02314e-13 0 1.55299e-13)
(3.36132e-13 0 1.67065e-13)
(2.65772e-13 0 1.76441e-13)
(1.9218e-13 0 1.83449e-13)
(1.16289e-13 0 1.88108e-13)
(3.89423e-14 0 1.90432e-13)
(-2.94609e-05 0 -0.000141057)
(1.84156e-07 0 -0.000120161)
(4.12814e-05 0 -1.65461e-05)
(-0.000119872 0 1.12029e-05)
(-3.48132e-05 0 0.000145054)
(-3.99571e-05 0 0.000220006)
(-0.000142345 0 0.000278928)
(-0.00020627 0 0.00028012)
(-0.00029211 0 0.000308879)
(-0.000444164 0 0.000395545)
(-0.000560948 0 0.000545942)
(-0.00075718 0 0.000586098)
(-0.000837402 0 0.000569276)
(-0.000954946 0 0.000597775)
(-0.00128755 0 0.000346511)
(-0.00133331 0 0.000439681)
(-0.00136366 0 0.000446255)
(-0.00146064 0 0.000283868)
(-0.00154264 0 0.000211158)
(-0.0016118 0 0.000139449)
(-0.00165214 0 3.35315e-05)
(-0.00166869 0 -4.68087e-05)
(-0.00168002 0 -7.34831e-05)
(-0.00168214 0 -7.82032e-05)
(-0.00165532 0 -0.000128693)
(-0.00162708 0 -0.000210778)
(-0.00157838 0 -0.000268883)
(-0.00150891 0 -0.00031209)
(-0.00146355 0 -0.000329216)
(-0.00142848 0 -0.000301807)
(-0.0013755 0 -0.000367238)
(-0.00127003 0 -0.000534932)
(-0.00114736 0 -0.000290066)
(-0.000927407 0 -0.000326096)
(-0.000727636 0 -0.000504252)
(-0.000631974 0 -0.000507044)
(-0.000578353 0 -0.000417471)
(-0.000489951 0 -0.000364393)
(-0.000323491 0 -0.000401741)
(-0.000287916 0 -0.000281478)
(-5.94738e-05 0 -0.000318931)
(-8.85096e-06 0 -0.000137457)
(0.00012737 0 -6.37534e-05)
(0.000143762 0 -3.24512e-05)
(0.000151558 0 1.89879e-05)
(0.00013783 0 4.98967e-05)
(8.93733e-05 0 8.5338e-05)
(-1.94333e-06 0 0.000114094)
(-5.84331e-05 0 0.000167819)
(-0.000107733 0 0.000205511)
(-0.000137634 0 0.000269052)
(-0.00023182 0 0.000286293)
(-0.000342127 0 0.000281887)
(-0.000392764 0 0.000313249)
(-0.000443243 0 0.00028994)
(-0.000459608 0 0.000274448)
(-0.000526447 0 7.18613e-05)
(-0.000506048 0 0.000125066)
(-0.000504182 0 8.46644e-05)
(-0.000491684 0 4.07331e-06)
(-0.000482888 0 -1.95493e-06)
(-0.000507396 0 -7.62402e-05)
(-0.000542349 0 -8.52156e-05)
(-0.000539295 0 -0.000118104)
(-0.000493001 0 -0.000215487)
(-0.000471937 0 -0.000273081)
(-0.000462175 0 -0.000363421)
(-0.000416416 0 -0.000446596)
(-0.000387712 0 -0.000461657)
(-0.000336954 0 -0.000503769)
(-0.000230856 0 -0.000515949)
(-0.000228618 0 -0.000399832)
(-0.00018749 0 -0.000393592)
(0.000127306 0 -0.000419764)
(0.00020913 0 -0.00029011)
(0.00026259 0 3.95951e-05)
(0.000258746 0 9.77551e-05)
(0.000257697 0 0.000219251)
(0.00034509 0 0.000361664)
(-0.000208637 0 0.000523665)
(2.23392e-06 0 0.000722951)
(-7.12108e-13 0 1.16798e-12)
(-2.48233e-12 0 6.24993e-13)
(-1.46784e-12 0 3.10826e-13)
(-1.34893e-12 0 9.5134e-14)
(-1.25222e-12 0 -5.4386e-14)
(-1.15988e-12 0 -1.60146e-13)
(-1.0647e-12 0 -2.36911e-13)
(-9.63762e-13 0 -2.94024e-13)
(-8.56166e-13 0 -3.37152e-13)
(-7.42039e-13 0 -3.69562e-13)
(-6.22184e-13 0 -3.93008e-13)
(-4.97888e-13 0 -4.08353e-13)
(-3.70808e-13 0 -4.15989e-13)
(-2.42859e-13 0 -4.16126e-13)
(-1.16122e-13 0 -4.08969e-13)
(7.27011e-15 0 -3.9483e-13)
(1.25219e-13 0 -3.7417e-13)
(2.35754e-13 0 -3.47612e-13)
(3.37106e-13 0 -3.15924e-13)
(4.27767e-13 0 -2.79981e-13)
(5.06533e-13 0 -2.4072e-13)
(5.72523e-13 0 -1.99098e-13)
(6.2518e-13 0 -1.56051e-13)
(6.64262e-13 0 -1.12465e-13)
(6.89826e-13 0 -6.91553e-14)
(7.0219e-13 0 -2.68506e-14)
(7.01898e-13 0 1.38169e-14)
(6.89675e-13 0 5.23192e-14)
(6.66374e-13 0 8.82333e-14)
(6.32937e-13 0 1.21239e-13)
(5.90356e-13 0 1.51109e-13)
(5.39643e-13 0 1.77698e-13)
(4.81814e-13 0 2.00927e-13)
(4.17875e-13 0 2.20767e-13)
(3.48813e-13 0 2.37225e-13)
(2.75595e-13 0 2.50328e-13)
(1.99171e-13 0 2.60111e-13)
(1.20471e-13 0 2.66608e-13)
(4.03333e-14 0 2.69846e-13)
(-4.70681e-05 0 -0.000130186)
(-2.068e-05 0 -9.1451e-05)
(-2.78563e-05 0 -3.3494e-05)
(-5.27602e-05 0 2.73384e-05)
(-1.46697e-05 0 0.000165526)
(-9.40431e-05 0 0.000264786)
(-0.000110716 0 0.00037893)
(-0.00017911 0 0.000434069)
(-0.000387847 0 0.000405102)
(-0.000536044 0 0.000531219)
(-0.000576969 0 0.000670052)
(-0.000721343 0 0.000707713)
(-0.00090738 0 0.000627937)
(-0.00104603 0 0.000593927)
(-0.00116901 0 0.000652967)
(-0.00127441 0 0.000571371)
(-0.00136837 0 0.000401921)
(-0.00144109 0 0.000317832)
(-0.00150971 0 0.000318365)
(-0.0015638 0 0.000253085)
(-0.00158337 0 0.000194606)
(-0.00161518 0 2.39797e-05)
(-0.00164323 0 2.39864e-05)
(-0.00164769 0 -4.52309e-05)
(-0.00163964 0 -0.000193545)
(-0.00164895 0 -0.000200746)
(-0.00158578 0 -0.000387717)
(-0.00149341 0 -0.000425203)
(-0.00146092 0 -0.000420073)
(-0.0014717 0 -0.000358174)
(-0.00141116 0 -0.000543418)
(-0.00128466 0 -0.000621143)
(-0.00113941 0 -0.000455811)
(-0.000945107 0 -0.000478216)
(-0.000810599 0 -0.000485601)
(-0.000776747 0 -0.000338732)
(-0.00059146 0 -0.000439428)
(-0.000453336 0 -0.000470015)
(-0.000387047 0 -0.000449328)
(-0.00030827 0 -0.000459245)
(-0.000173732 0 -0.000469699)
(-0.000192625 0 -0.000307449)
(0.00016585 0 -5.88871e-05)
(0.00020955 0 -4.22615e-05)
(0.000212245 0 5.18763e-05)
(0.000176308 0 0.000109926)
(6.07996e-05 0 0.000175284)
(1.13271e-05 0 0.000180815)
(-2.39015e-05 0 0.000232428)
(-0.000140937 0 0.00024284)
(-0.000291368 0 0.000221365)
(-0.000258271 0 0.000294504)
(-0.000320569 0 0.000301989)
(-0.000360815 0 0.000311329)
(-0.000395328 0 0.000277268)
(-0.000423855 0 0.000230973)
(-0.000421721 0 0.000153897)
(-0.000382558 0 0.000170262)
(-0.000390054 0 9.09554e-05)
(-0.000389304 0 7.17071e-05)
(-0.0003918 0 1.21578e-05)
(-0.000391581 0 4.74528e-06)
(-0.000413768 0 -4.27114e-05)
(-0.000413661 0 -0.000121308)
(-0.000315065 0 -0.000313657)
(-0.000402227 0 -0.000307456)
(-0.00049407 0 -0.000323676)
(-0.000366843 0 -0.00053499)
(-0.000431846 0 -0.000515593)
(-0.000324596 0 -0.000606623)
(-0.000264445 0 -0.000630654)
(-0.00014089 0 -0.000638762)
(-5.68419e-05 0 -0.000583341)
(0.000230038 0 -0.000456139)
(0.000206631 0 -0.000291078)
(0.000135141 0 -7.27387e-06)
(0.000168232 0 7.58655e-05)
(0.000103195 0 0.000288071)
(0.000307464 0 0.000389629)
(-0.000217869 0 0.000606084)
(2.34179e-06 0 0.000820154)
(-8.90563e-13 0 7.04938e-13)
(-2.75753e-12 0 3.64552e-13)
(-1.69872e-12 0 1.42001e-13)
(-1.52045e-12 0 -3.29093e-14)
(-1.37769e-12 0 -1.65552e-13)
(-1.25259e-12 0 -2.66256e-13)
(-1.13452e-12 0 -3.44034e-13)
(-1.01721e-12 0 -4.05225e-13)
(-8.97186e-13 0 -4.53742e-13)
(-7.72808e-13 0 -4.91695e-13)
(-6.43766e-13 0 -5.20003e-13)
(-5.10728e-13 0 -5.38901e-13)
(-3.75072e-13 0 -5.48319e-13)
(-2.38675e-13 0 -5.48152e-13)
(-1.03719e-13 0 -5.3844e-13)
(2.74796e-14 0 -5.19466e-13)
(1.5262e-13 0 -4.91791e-13)
(2.6954e-13 0 -4.56242e-13)
(3.76314e-13 0 -4.13869e-13)
(4.71332e-13 0 -3.65885e-13)
(5.53343e-13 0 -3.13591e-13)
(6.21468e-13 0 -2.58308e-13)
(6.75198e-13 0 -2.01315e-13)
(7.14368e-13 0 -1.43804e-13)
(7.39131e-13 0 -8.68548e-14)
(7.49915e-13 0 -3.14143e-14)
(7.47385e-13 0 2.17104e-14)
(7.32386e-13 0 7.18568e-14)
(7.05893e-13 0 1.18504e-13)
(6.68958e-13 0 1.61266e-13)
(6.22675e-13 0 1.99876e-13)
(5.6814e-13 0 2.34174e-13)
(5.06434e-13 0 2.64082e-13)
(4.38612e-13 0 2.89583e-13)
(3.65692e-13 0 3.10707e-13)
(2.88658e-13 0 3.27502e-13)
(2.0846e-13 0 3.40029e-13)
(1.26023e-13 0 3.48342e-13)
(4.21796e-14 0 3.52482e-13)
(-4.9548e-05 0 -0.00012)
(-2.71418e-05 0 -6.2826e-05)
(-5.88335e-05 0 -5.0565e-06)
(-0.000110051 0 9.38142e-05)
(-5.81133e-05 0 0.00019056)
(-0.000165254 0 0.000312344)
(-0.000235847 0 0.00044627)
(-0.00040959 0 0.000493177)
(-0.000350421 0 0.000584135)
(-0.000780862 0 0.00048511)
(-0.000582931 0 0.000823008)
(-0.000488655 0 0.000981859)
(-0.000872555 0 0.000803043)
(-0.00105962 0 0.000709508)
(-0.00116726 0 0.000676737)
(-0.00124957 0 0.000621035)
(-0.00130859 0 0.000543125)
(-0.0013662 0 0.000449085)
(-0.0014066 0 0.000400119)
(-0.00143364 0 0.00032226)
(-0.00148093 0 9.08963e-05)
(-0.00152331 0 -1.10584e-05)
(-0.00154431 0 1.26861e-05)
(-0.00154512 0 -2.97387e-05)
(-0.00154417 0 -8.86468e-05)
(-0.00156149 0 -0.000155712)
(-0.00157192 0 -0.000205385)
(-0.00150971 0 -0.00049463)
(-0.00148933 0 -0.00039418)
(-0.00147772 0 -0.00036242)
(-0.00138525 0 -0.000629937)
(-0.00131791 0 -0.000628604)
(-0.00121744 0 -0.000552779)
(-0.000965278 0 -0.000750377)
(-0.000806994 0 -0.000699169)
(-0.000639151 0 -0.000653101)
(-0.000427469 0 -0.000669546)
(-0.000403239 0 -0.000555447)
(-0.000337328 0 -0.00053157)
(-0.000277723 0 -0.000532382)
(-0.000207259 0 -0.000534618)
(-0.000161446 0 -0.000465818)
(2.70638e-05 0 -0.000296586)
(8.28375e-05 0 -0.000247227)
(0.000227309 0 5.19139e-05)
(0.000216993 0 0.000135041)
(0.000167463 0 0.000184963)
(8.59155e-05 0 0.000243893)
(2.99199e-05 0 0.000300064)
(-6.00753e-05 0 0.00032785)
(-9.33037e-06 0 0.000375349)
(-0.000113168 0 0.000379891)
(-0.000214318 0 0.000376801)
(-0.000267446 0 0.000374086)
(-0.000290625 0 0.000336681)
(-0.000201713 0 0.000359286)
(-0.000200365 0 0.000300695)
(-0.000353902 0 2.1981e-05)
(-0.000298451 0 9.29947e-05)
(-0.000310076 0 5.2484e-05)
(-0.000306675 0 2.21994e-05)
(-0.000288147 0 -3.89938e-05)
(-0.000280792 0 -4.62661e-05)
(-0.000296812 0 -3.15473e-05)
(-0.000332316 0 -3.33078e-05)
(-0.000233897 0 -0.000352468)
(-0.000483292 0 -0.000265632)
(-0.00036634 0 -0.000548883)
(-0.000499013 0 -0.000512613)
(-0.000433402 0 -0.000627673)
(-0.000407727 0 -0.000665687)
(-0.000493739 0 -0.000591861)
(-0.000482032 0 -0.000476349)
(-0.000462555 0 -0.000275926)
(4.76335e-05 0 -0.000275496)
(-7.37014e-05 0 -0.000185938)
(4.32948e-05 0 8.4577e-05)
(-2.87193e-06 0 0.000253948)
(0.000259559 0 0.000389322)
(-0.000345254 0 0.000598164)
(2.71034e-06 0 0.000890808)
(-1.1304e-12 0 2.86519e-13)
(-2.93268e-12 0 7.53383e-14)
(-1.8653e-12 0 -7.40325e-14)
(-1.65648e-12 0 -2.02742e-13)
(-1.48556e-12 0 -3.0817e-13)
(-1.33836e-12 0 -3.94831e-13)
(-1.20366e-12 0 -4.6733e-13)
(-1.07347e-12 0 -5.28759e-13)
(-9.42636e-13 0 -5.80644e-13)
(-8.083e-13 0 -6.23317e-13)
(-6.6939e-13 0 -6.56355e-13)
(-5.26204e-13 0 -6.78978e-13)
(-3.80058e-13 0 -6.90378e-13)
(-2.3298e-13 0 -6.89951e-13)
(-8.74358e-14 0 -6.77465e-13)
(5.39191e-14 0 -6.53133e-13)
(1.88443e-13 0 -6.17622e-13)
(3.13676e-13 0 -5.72005e-13)
(4.27463e-13 0 -5.17681e-13)
(5.28045e-13 0 -4.56275e-13)
(6.1411e-13 0 -3.8953e-13)
(6.84799e-13 0 -3.19203e-13)
(7.39684e-13 0 -2.46975e-13)
(7.78722e-13 0 -1.74391e-13)
(8.02216e-13 0 -1.0282e-13)
(8.10755e-13 0 -3.34377e-14)
(8.05169e-13 0 3.2778e-14)
(7.86469e-13 0 9.50433e-14)
(7.55783e-13 0 1.52759e-13)
(7.14309e-13 0 2.05495e-13)
(6.63264e-13 0 2.5297e-13)
(6.03848e-13 0 2.95029e-13)
(5.37223e-13 0 3.31614e-13)
(4.645e-13 0 3.62743e-13)
(3.86731e-13 0 3.88479e-13)
(3.04918e-13 0 4.0891e-13)
(2.20011e-13 0 4.24128e-13)
(1.32923e-13 0 4.34218e-13)
(4.44731e-14 0 4.3924e-13)
(-6.81613e-05 0 -0.000104383)
(-6.86001e-07 0 -4.40996e-05)
(-9.27255e-05 0 3.11267e-05)
(-9.16053e-05 0 0.000112279)
(-9.80338e-05 0 0.000239523)
(-0.000205525 0 0.000333979)
(-0.00013434 0 0.000531419)
(-1.59763e-05 0 0.000771775)
(-0.00042973 0 0.000718765)
(-0.000623313 0 0.000759557)
(-0.000964301 0 0.000622517)
(-0.00082659 0 0.000864774)
(-0.000941267 0 0.000879655)
(-0.00107796 0 0.000809411)
(-0.00105308 0 0.000862637)
(-0.00113106 0 0.000769821)
(-0.00120739 0 0.000617178)
(-0.00131362 0 0.000346494)
(-0.00128209 0 0.000359234)
(-0.00128843 0 0.000250232)
(-0.00130638 0 0.000189173)
(-0.00136783 0 5.24335e-05)
(-0.00138766 0 -7.62557e-06)
(-0.001386 0 -0.000115482)
(-0.00136831 0 -0.000230318)
(-0.00135122 0 -0.000417413)
(-0.00142422 0 -0.000256831)
(-0.00140875 0 -0.000471043)
(-0.00145246 0 -0.000404463)
(-0.00138026 0 -0.000556985)
(-0.00133711 0 -0.000659233)
(-0.00127402 0 -0.000745783)
(-0.00120619 0 -0.000739636)
(-0.000976877 0 -0.00095068)
(-0.000835277 0 -0.000903843)
(-0.000806805 0 -0.000712743)
(-0.000557017 0 -0.000754397)
(-0.000393251 0 -0.000676422)
(-0.000325699 0 -0.000566512)
(-0.000301469 0 -0.000525734)
(-0.00019045 0 -0.000564202)
(-0.000199847 0 -0.00056097)
(-7.53603e-05 0 -0.00049619)
(-0.000116391 0 -0.000337662)
(0.000201774 0 5.0445e-05)
(0.000240596 0 0.000153577)
(0.0001765 0 0.000292973)
(0.000190137 0 0.000276217)
(9.56513e-05 0 0.000353211)
(5.21488e-05 0 0.00038526)
(-3.17296e-06 0 0.000403324)
(-6.91223e-05 0 0.000411734)
(-0.000102818 0 0.000424075)
(-0.000100353 0 0.000429213)
(-0.000228219 0 0.000335265)
(-0.00022753 0 0.000268015)
(-0.000266732 0 0.000134655)
(-0.000212375 0 0.000151867)
(-0.000221742 0 0.0001077)
(-0.000233062 0 5.77374e-05)
(-0.000237416 0 -8.53317e-06)
(-0.000232099 0 -4.63842e-05)
(-0.000223215 0 -8.79932e-05)
(-0.000215189 0 -0.000106132)
(-0.000259474 0 -5.1818e-05)
(-0.000290873 0 -0.000232009)
(-0.000464968 0 -0.000206438)
(-0.000304528 0 -0.00056066)
(-0.000486514 0 -0.000534846)
(-0.000459333 0 -0.000663329)
(-0.000395862 0 -0.000761731)
(-0.000360632 0 -0.000792809)
(-0.000237912 0 -0.000796136)
(-0.000225103 0 -0.000612925)
(-0.000399081 0 -0.000265664)
(-0.000228771 0 -0.000120194)
(-0.000159591 0 -5.77489e-05)
(-4.02774e-05 0 0.00027241)
(0.000145113 0 0.000369945)
(-0.000413945 0 0.000619259)
(3.3708e-06 0 0.000958035)
(-1.46636e-12 0 3.11935e-14)
(-3.0152e-12 0 -1.98383e-13)
(-1.9768e-12 0 -3.10417e-13)
(-1.75459e-12 0 -3.95472e-13)
(-1.56978e-12 0 -4.69125e-13)
(-1.41175e-12 0 -5.37114e-13)
(-1.26844e-12 0 -6.01249e-13)
(-1.13053e-12 0 -6.61423e-13)
(-9.91744e-13 0 -7.164e-13)
(-8.48518e-13 0 -7.64286e-13)
(-6.99428e-13 0 -8.0291e-13)
(-5.44751e-13 0 -8.3015e-13)
(-3.86045e-13 0 -8.44211e-13)
(-2.25762e-13 0 -8.43837e-13)
(-6.69011e-14 0 -8.28437e-13)
(8.73225e-14 0 -7.98141e-13)
(2.33748e-13 0 -7.53761e-13)
(3.69481e-13 0 -6.96695e-13)
(4.92044e-13 0 -6.28787e-13)
(5.99483e-13 0 -5.52184e-13)
(6.90414e-13 0 -4.69174e-13)
(7.64023e-13 0 -3.8204e-13)
(8.2001e-13 0 -2.92945e-13)
(8.58523e-13 0 -2.0384e-13)
(8.80084e-13 0 -1.16417e-13)
(8.85513e-13 0 -3.20931e-14)
(8.75866e-13 0 4.79876e-14)
(8.52368e-13 0 1.22939e-13)
(8.16344e-13 0 1.92109e-13)
(7.69169e-13 0 2.55054e-13)
(7.12208e-13 0 3.11509e-13)
(6.46784e-13 0 3.61354e-13)
(5.74149e-13 0 4.04581e-13)
(4.95477e-13 0 4.41263e-13)
(4.11859e-13 0 4.71519e-13)
(3.24307e-13 0 4.95491e-13)
(2.33769e-13 0 5.13321e-13)
(1.41135e-13 0 5.25128e-13)
(4.72013e-14 0 5.31001e-13)
(-6.3347e-05 0 -7.55623e-05)
(-2.09792e-05 0 -1.5306e-05)
(-7.99771e-05 0 3.8217e-05)
(-9.16356e-05 0 0.000124149)
(-0.000112217 0 0.000298094)
(-0.000107494 0 0.000420409)
(-0.000251174 0 0.00050748)
(-0.000380807 0 0.000693029)
(-0.000215963 0 0.000976521)
(-0.000360865 0 0.00100161)
(-0.000556207 0 0.00100022)
(-0.000754007 0 0.00100016)
(-0.000831655 0 0.00105264)
(-0.000828885 0 0.00107582)
(-0.00104676 0 0.000851288)
(-0.0011043 0 0.000708604)
(-0.0011258 0 0.000587461)
(-0.00111035 0 0.000499758)
(-0.0010736 0 0.000467888)
(-0.00108078 0 0.000347982)
(-0.0010892 0 0.000262823)
(-0.00112769 0 9.23099e-05)
(-0.00113786 0 7.69244e-05)
(-0.00112959 0 5.52636e-05)
(-0.00116358 0 -4.79768e-05)
(-0.00121293 0 -7.42489e-05)
(-0.00119499 0 -0.00037121)
(-0.00120064 0 -0.000501822)
(-0.00127527 0 -0.000433765)
(-0.00121297 0 -0.000636104)
(-0.00119242 0 -0.0007376)
(-0.00122774 0 -0.000712206)
(-0.00118736 0 -0.000787896)
(-0.000996329 0 -0.000994355)
(-0.000793944 0 -0.00108108)
(-0.00084817 0 -0.000919279)
(-0.000461716 0 -0.00103711)
(-0.000401656 0 -0.000820253)
(-0.000240414 0 -0.000673964)
(-0.000165233 0 -0.00058531)
(-0.000198167 0 -0.000552496)
(-0.00020022 0 -0.000601522)
(-0.000121438 0 -0.000586483)
(-0.00014767 0 -0.000354911)
(0.000140032 0 -0.000161461)
(0.000221254 0 0.000104546)
(0.000307592 0 0.000227109)
(0.000108645 0 0.000464833)
(0.000206385 0 0.000392662)
(0.000175177 0 0.00041067)
(0.00011022 0 0.000435397)
(7.18805e-05 0 0.000447314)
(-3.87399e-05 0 0.000459453)
(-5.32939e-05 0 0.000453377)
(-5.40188e-06 0 0.000387191)
(-4.78492e-05 0 0.000323189)
(-9.92307e-05 0 0.0002186)
(-0.000128857 0 0.000152734)
(-0.000189452 0 8.9669e-05)
(-0.000181799 0 4.67131e-05)
(-0.000179599 0 2.87542e-05)
(-0.000204111 0 -2.78946e-05)
(-0.000218996 0 -3.32072e-05)
(-0.000202378 0 -7.54549e-05)
(-0.00027147 0 5.72337e-05)
(-0.00030919 0 -0.000178211)
(-0.000416393 0 -0.000121156)
(-0.000224307 0 -0.000459221)
(-0.000373244 0 -0.000563947)
(-0.000500383 0 -0.000655023)
(-0.000483165 0 -0.000750882)
(-0.000554533 0 -0.000732685)
(-0.000671214 0 -0.000620159)
(-0.00051823 0 -0.000563707)
(-0.000295287 0 -0.000537933)
(-0.000457904 0 -0.000156538)
(-0.000274169 0 -9.57369e-05)
(-0.000150066 0 0.000106496)
(-3.41349e-05 0 0.000396028)
(-0.000489805 0 0.000627046)
(3.28394e-06 0 0.000925062)
(-1.59211e-12 0 -3.7053e-13)
(-3.19823e-12 0 -5.38543e-13)
(-2.06239e-12 0 -5.73699e-13)
(-1.81519e-12 0 -5.99441e-13)
(-1.6272e-12 0 -6.35496e-13)
(-1.47049e-12 0 -6.82924e-13)
(-1.32797e-12 0 -7.38752e-13)
(-1.18862e-12 0 -7.9889e-13)
(-1.0455e-12 0 -8.58866e-13)
(-8.94811e-13 0 -9.14172e-13)
(-7.35254e-13 0 -9.60548e-13)
(-5.67505e-13 0 -9.94247e-13)
(-3.93745e-13 0 -1.01228e-12)
(-2.17206e-13 0 -1.01261e-12)
(-4.17397e-14 0 -9.94232e-13)
(1.28595e-13 0 -9.57227e-13)
(2.8989e-13 0 -9.02641e-13)
(4.3865e-13 0 -8.32325e-13)
(5.71973e-13 0 -7.48722e-13)
(6.87658e-13 0 -6.54648e-13)
(7.84254e-13 0 -5.53074e-13)
(8.61028e-13 0 -4.46931e-13)
(9.17884e-13 0 -3.3895e-13)
(9.55251e-13 0 -2.31554e-13)
(9.73962e-13 0 -1.26795e-13)
(9.75159e-13 0 -2.63444e-14)
(9.60201e-13 0 6.84995e-14)
(9.3059e-13 0 1.56772e-13)
(8.87898e-13 0 2.37807e-13)
(8.3371e-13 0 3.11185e-13)
(7.69564e-13 0 3.767e-13)
(6.9692e-13 0 4.34307e-13)
(6.17132e-13 0 4.8408e-13)
(5.31437e-13 0 5.26179e-13)
(4.4096e-13 0 5.60805e-13)
(3.4672e-13 0 5.88177e-13)
(2.49648e-13 0 6.08496e-13)
(1.50603e-13 0 6.21935e-13)
(5.03456e-14 0 6.28613e-13)
(-5.89114e-05 0 -5.55583e-05)
(-3.18363e-05 0 1.87058e-05)
(-0.000112493 0 0.000104613)
(-0.000141434 0 0.000183078)
(-0.000284416 0 0.000339938)
(-0.000377563 0 0.000403092)
(-0.000297462 0 0.000564771)
(-0.000326306 0 0.000792719)
(-0.000426872 0 0.00102957)
(-0.00062144 0 0.00100645)
(-0.000515656 0 0.00109988)
(-0.000760229 0 0.00104194)
(-0.000775501 0 0.00109045)
(-0.000827648 0 0.00106258)
(-0.000900592 0 0.000939076)
(-0.000975316 0 0.000751854)
(-0.000921907 0 0.000662862)
(-0.00094414 0 0.000456744)
(-0.000915172 0 0.000297152)
(-0.000844649 0 0.000275318)
(-0.000818899 0 0.000199176)
(-0.000808181 0 0.000162124)
(-0.000821243 0 8.39565e-05)
(-0.000852877 0 -0.000141023)
(-0.000895012 0 -0.000158992)
(-0.00094489 0 -0.000134549)
(-0.000984756 0 -0.000208062)
(-0.00103783 0 -0.000244932)
(-0.00107552 0 -0.000339878)
(-0.00102462 0 -0.000603572)
(-0.00100486 0 -0.000748877)
(-0.00101457 0 -0.000850419)
(-0.000970992 0 -0.000970342)
(-0.00104152 0 -0.000936703)
(-0.000671152 0 -0.00122875)
(-0.000755522 0 -0.00112598)
(-0.000497439 0 -0.00115408)
(-0.000479484 0 -0.000940608)
(-0.000286351 0 -0.000787389)
(-0.000209254 0 -0.000586255)
(-0.000128251 0 -0.00055007)
(-0.000165109 0 -0.000625974)
(-0.000106847 0 -0.000667964)
(2.9219e-05 0 -0.000533165)
(2.2061e-05 0 -0.000399322)
(0.000253965 0 8.7207e-05)
(0.000255399 0 0.000272324)
(0.00045797 0 0.000229373)
(0.000185436 0 0.000497204)
(0.000207096 0 0.000493024)
(0.000160026 0 0.000498493)
(0.000137746 0 0.000494838)
(9.28785e-05 0 0.000494135)
(8.205e-05 0 0.000467044)
(4.03956e-05 0 0.000396448)
(-9.11025e-06 0 0.000346977)
(-4.49109e-05 0 0.000264461)