0 	0 	0 	0
0.010101 	-3.77058e-28 	-5.04235e-28 	-1.35395e-27
0.020202 	-1.83735e-27 	-4.22327e-28 	-1.09639e-27
