/*--------------------------------*- C++ -*----------------------------------*\
  =========                 |
  \\      /  F ield         | OpenFOAM: The Open Source CFD Toolbox
   \\    /   O peration     | Website:  https://openfoam.org
    \\  /    A nd           | Version:  6
     \\/     M anipulation  |
\*---------------------------------------------------------------------------*/
FoamFile
{
    version     2.0;
    format      ascii;
    class       volScalarField;
    location    "300";
    object      Su;
}
// * * * * * * * * * * * * * * * * * * * * * * * * * * * * * * * * * * * * * //

dimensions      [0 0 -1 0 0 0 0];

internalField   nonuniform List<scalar> 
4800
(
0.218748
0.215068
0.211406
0.20778
0.204209
0.200704
0.197273
0.193919
0.190645
0.187454
0.184348
0.181336
0.17843
0.175641
0.172979
0.17045
0.168057
0.165797
0.163664
0.161651
0.159744
0.157932
0.156201
0.154538
0.152933
0.151371
0.14984
0.148328
0.146833
0.145348
0.14387
0.142393
0.14091
0.139421
0.137919
0.136389
0.134816
0.133189
0.131491
0.129707
0.127825
0.125839
0.123744
0.121538
0.119221
0.1168
0.114287
0.111689
0.109017
0.106287
0.103525
0.100764
0.0980314
0.0953422
0.0927031
0.0901119
0.087563
0.0850484
0.0825556
0.080072
0.0775936
0.0751137
0.0726218
0.0701025
0.0675373
0.0649093
0.0622035
0.0594076
0.0565126
0.0535135
0.050411
0.0472137
0.0439407
0.0406148
0.037254
0.0338731
0.0304898
0.0271281
0.0237985
0.020495
0.0171747
0.0138239
0.0104576
0.00708664
0.00371723
0.000353251
-0.00300286
-0.00634947
-0.00968556
-0.0130105
-0.016324
-0.0196258
-0.022916
-0.0261947
-0.0294621
-0.0327185
-0.0359644
-0.0392
-0.0424259
-0.0456424
-0.0488501
-0.0520495
-0.0552409
-0.058425
-0.0616021
-0.0647728
-0.0679375
-0.0710967
-0.0742509
-0.0774004
-0.0805457
-0.0836872
-0.0868254
-0.0899606
-0.0930933
-0.0962239
-0.0993527
-0.10248
-0.105607
-0.108733
0.218754
0.215084
0.211436
0.207827
0.204273
0.200784
0.197366
0.194024
0.19076
0.187581
0.184487
0.181488
0.178595
0.175818
0.173169
0.170652
0.168271
0.166021
0.163897
0.161889
0.159985
0.158173
0.156439
0.154772
0.153161
0.15159
0.150049
0.148531
0.147028
0.145534
0.144043
0.14255
0.141053
0.139549
0.138029
0.136481
0.134891
0.133241
0.131519
0.129714
0.127818
0.12582
0.123716
0.121503
0.119182
0.116761
0.11425
0.111656
0.108992
0.106275
0.103532
0.100788
0.0980718
0.0953989
0.0927726
0.0901916
0.0876511
0.0851417
0.082653
0.0801754
0.0777013
0.0752234
0.0727356
0.070219
0.0676537
0.0650252
0.0623194
0.0595244
0.0566317
0.053639
0.0505504
0.0473765
0.0441284
0.0408214
0.0374718
0.0340895
0.0306847
0.0272814
0.023906
0.0205607
0.0172061
0.0138362
0.0104593
0.00708227
0.0037093
0.000343174
-0.0030142
-0.00636151
-0.00969793
-0.0130229
-0.0163362
-0.0196378
-0.0229275
-0.0262057
-0.0294726
-0.0327285
-0.0359737
-0.0392087
-0.042434
-0.0456499
-0.048857
-0.0520558
-0.0552467
-0.0584303
-0.0616069
-0.0647772
-0.0679414
-0.0711002
-0.074254
-0.0774031
-0.0805481
-0.0836893
-0.0868272
-0.0899622
-0.0930946
-0.0962249
-0.0993535
-0.102481
-0.105607
-0.108733
0.218766
0.215124
0.211506
0.20793
0.204408
0.200945
0.197551
0.19423
0.190988
0.187831
0.184762
0.181787
0.178918
0.176166
0.17354
0.171046
0.168684
0.16645
0.164338
0.162335
0.160431
0.158616
0.156876
0.155202
0.15358
0.151996
0.15044
0.148906
0.147385
0.145871
0.144357
0.142838
0.141314
0.139782
0.138228
0.136641
0.135008
0.133315
0.131552
0.129711
0.127785
0.125765
0.123644
0.121422
0.119097
0.116678
0.114171
0.111589
0.108944
0.106253
0.103541
0.100834
0.0981515
0.0955063
0.0929039
0.0903436
0.0878195
0.0853228
0.0828453
0.0803786
0.0779132
0.0754421
0.0729597
0.0704443
0.067878
0.065246
0.0625341
0.0597314
0.0568329
0.0538387
0.0507551
0.0475924
0.0443595
0.0410692
0.0377327
0.0343594
0.0309606
0.0275378
0.0240976
0.0206692
0.0172535
0.0138523
0.010458
0.00707092
0.00369188
0.000322047
-0.00303755
-0.00638607
-0.00972301
-0.013048
-0.016361
-0.0196618
-0.0229507
-0.0262279
-0.0294937
-0.0327484
-0.0359924
-0.0392262
-0.0424502
-0.0456649
-0.0488708
-0.0520685
-0.0552583
-0.0584408
-0.0616165
-0.0647858
-0.0679492
-0.0711072
-0.0742602
-0.0774086
-0.0805529
-0.0836935
-0.0868308
-0.0899652
-0.0930971
-0.0962269
-0.0993551
-0.102482
-0.105608
-0.108733
0.21879
0.215197
0.211628
0.208096
0.204612
0.201184
0.197822
0.194532
0.191321
0.188193
0.185157
0.182217
0.179384
0.176667
0.174073
0.171609
0.16927
0.167054
0.164951
0.162952
0.161049
0.159231
0.157483
0.155796
0.154158
0.152556
0.150978
0.149419
0.147871
0.146327
0.14478
0.143227
0.141667
0.140093
0.138489
0.136845
0.135154
0.133405
0.131589
0.129699
0.127728
0.125676
0.123534
0.121299
0.118972
0.116558
0.114065
0.111502
0.108884
0.10623
0.103563
0.100903
0.0982666
0.0956623
0.0930958
0.0905659
0.0880664
0.0855909
0.0831312
0.0806796
0.0782291
0.0757715
0.0732949
0.0707783
0.0682074
0.0655635
0.0628327
0.0600081
0.0570888
0.0540767
0.0509795
0.0478074
0.0445715
0.0412826
0.0379457
0.0345692
0.0311585
0.0277147
0.0242399
0.0207537
0.0172873
0.0138576
0.0104463
0.00704837
0.00366242
0.000288213
-0.00307403
-0.00642397
-0.00976141
-0.0130862
-0.0163985
-0.0196983
-0.0229858
-0.0262614
-0.0295255
-0.0327783
-0.0360205
-0.0392524
-0.0424745
-0.0456874
-0.0488915
-0.0520875
-0.0552756
-0.0584566
-0.0616308
-0.0647987
-0.0679608
-0.0711176
-0.0742694
-0.0774168
-0.0805601
-0.0836997
-0.0868362
-0.0899697
-0.0931009
-0.09623
-0.0993574
-0.102483
-0.105609
-0.108733
0.218829
0.215309
0.211801
0.208322
0.204884
0.201496
0.19817
0.194916
0.191741
0.188651
0.185654
0.182758
0.179969
0.177294
0.174737
0.172303
0.169989
0.16779
0.165698
0.163706
0.161805
0.159983
0.158226
0.156524
0.154867
0.153239
0.151632
0.150043
0.14846
0.146879
0.145293
0.143698
0.142092
0.140465
0.138803
0.137097
0.13534
0.133522
0.13164
0.129693
0.127674
0.125579
0.123409
0.12116
0.118832
0.116426
0.113949
0.111413
0.108831
0.106222
0.103606
0.101003
0.0984212
0.0958671
0.0933451
0.0908532
0.0883865
0.08594
0.0835066
0.0810798
0.0786514
0.0762113
0.0737432
0.0712238
0.0686356
0.0659616
0.0631936
0.0603309
0.0573742
0.0543265
0.0511966
0.0479929
0.0447266
0.0414089
0.0380467
0.0346475
0.0312182
0.0277585
0.0242665
0.0207646
0.0172846
0.0138405
0.0104172
0.00701042
0.00361813
0.0002397
-0.0031251
-0.0064763
-0.00981398
-0.0131383
-0.0164494
-0.0197475
-0.0230331
-0.0263065
-0.0295682
-0.0328185
-0.0360581
-0.0392874
-0.042507
-0.0457174
-0.0489192
-0.0521128
-0.0552987
-0.0584776
-0.0616498
-0.0648158
-0.0679762
-0.0711313
-0.0742816
-0.0774276
-0.0805696
-0.083708
-0.0868433
-0.0899758
-0.0931059
-0.096234
-0.0993604
-0.102486
-0.10561
-0.108734
0.218864
0.215415
0.211981
0.208571
0.205194
0.201861
0.198581
0.195367
0.192232
0.189186
0.186235
0.183386
0.180644
0.178014
0.175499
0.173101
0.170814
0.168635
0.166554
0.164568
0.162667
0.160838
0.159067
0.157346
0.155665
0.154008
0.152369
0.150744
0.149124
0.147504
0.145875
0.144234
0.142576
0.140893
0.13917
0.137398
0.135568
0.133675
0.131721
0.129708
0.127633
0.125493
0.123286
0.121015
0.118684
0.116294
0.113845
0.111345
0.108808
0.10625
0.103689
0.101143
0.0986213
0.0961248
0.0936536
0.0912056
0.088777
0.0863632
0.0839596
0.0815605
0.0791558
0.0767322
0.0742644
0.0717231
0.0690953
0.0663768
0.0635616
0.0606522
0.0576505
0.0545592
0.051386
0.0481378
0.0448241
0.0414572
0.0380487
0.0346088
0.0311479
0.0276743
0.0241948
0.0207155
0.0172454
0.0137978
0.0103675
0.00695401
0.00355652
0.000174524
-0.00319232
-0.00654429
-0.0098817
-0.0132049
-0.0165142
-0.0198101
-0.023093
-0.0263635
-0.029622
-0.0328691
-0.0361054
-0.0393314
-0.0425478
-0.045755
-0.0489537
-0.0521444
-0.0553276
-0.0585038
-0.0616735
-0.0648372
-0.0679954
-0.0711485
-0.0742969
-0.077441
-0.0805814
-0.0837182
-0.0868521
-0.0899832
-0.0931121
-0.0962389
-0.0993643
-0.102488
-0.105612
-0.108734
0.218902
0.215528
0.212166
0.208824
0.205513
0.202243
0.199024
0.195864
0.192777
0.189777
0.186875
0.184077
0.181385
0.1788
0.176322
0.173953
0.171691
0.169532
0.167467
0.165491
0.163591
0.161754
0.159968
0.158225
0.156516
0.15483
0.15316
0.1515
0.149842
0.148179
0.146505
0.144816
0.143106
0.141367
0.139583
0.137743
0.13584
0.133873
0.131846
0.129764
0.127629
0.125446
0.123212
0.120926
0.118592
0.11621
0.113784
0.11132
0.108829
0.106327
0.103828
0.101343
0.0988793
0.096438
0.0940174
0.091614
0.0892228
0.0868401
0.0844615
0.0820831
0.0796928
0.077266
0.074772
0.0721907
0.069516
0.0667485
0.0638836
0.0609248
0.0578764
0.0547429
0.0515289
0.0482414
0.0448895
0.0414813
0.0380285
0.0345459
0.0310476
0.0275555
0.0240919
0.0206412
0.0171822
0.013732
0.0102961
0.00687712
0.00347545
9.07929e-05
-0.0032773
-0.00662928
-0.00996566
-0.013287
-0.0165937
-0.0198865
-0.023166
-0.0264326
-0.0296872
-0.0329302
-0.0361624
-0.0393844
-0.0425968
-0.0458002
-0.0489951
-0.0521822
-0.0553621
-0.0585351
-0.0617018
-0.0648627
-0.0680182
-0.0711689
-0.074315
-0.0774571
-0.0805954
-0.0837304
-0.0868625
-0.0899921
-0.0931194
-0.0962448
-0.0993688
-0.102492
-0.105613
-0.108735
0.218937
0.215634
0.212343
0.20907
0.205827
0.202622
0.199468
0.196373
0.193347
0.1904
0.187546
0.184795
0.182152
0.179617
0.177186
0.174855
0.172621
0.17048
0.168426
0.166453
0.164547
0.162695
0.16089
0.159125
0.157392
0.155678
0.153977
0.15228
0.15058
0.148873
0.147155
0.145423
0.143669
0.14188
0.140039
0.138133
0.136159
0.134119
0.132022
0.129878
0.127692
0.125468
0.123206
0.120906
0.11857
0.116198
0.113792
0.111361
0.108916
0.10647
0.104032
0.101608
0.0992017
0.0968113
0.0944358
0.0920693
0.0897073
0.0873482
0.0849868
0.0826166
0.0802163
0.0777583
0.0752193
0.072588
0.0698616
0.067042
0.0641272
0.0611204
0.0580272
0.0548563
0.0516098
0.048292
0.0449138
0.0414864
0.0380232
0.0345373
0.0310408
0.0275481
0.0240666
0.020587
0.0171071
0.0136454
0.0102019
0.0067778
0.00337291
-1.33488e-05
-0.00338163
-0.00673261
-0.010067
-0.0133854
-0.0166887
-0.0199774
-0.0232524
-0.0265143
-0.029764
-0.0330021
-0.0362294
-0.0394465
-0.0426541
-0.0458529
-0.0490434
-0.0522263
-0.0554022
-0.0585714
-0.0617346
-0.0648922
-0.0680447
-0.0711925
-0.074336
-0.0774756
-0.0806116
-0.0837445
-0.0868746
-0.0900023
-0.0931279
-0.0962516
-0.099374
-0.102495
-0.105616
-0.108736
0.21897
0.215732
0.212507
0.209303
0.206129
0.202993
0.199908
0.19688
0.19392
0.191035
0.188236
0.18553
0.182926
0.180427
0.178031
0.175732
0.173524
0.171402
0.169358
0.167386
0.165476
0.163619
0.161805
0.160025
0.15827
0.156529
0.154793
0.15306
0.151324
0.149583
0.147831
0.146061
0.144266
0.14243
0.140534
0.138566
0.136526
0.134421
0.132267
0.130071
0.12784
0.125577
0.123285
0.12097
0.118632
0.116268
0.113884
0.111489
0.109092
0.106701
0.10432
0.101954
0.0995984
0.097251
0.0949096
0.0925681
0.0902244
0.0878762
0.0855149
0.0831241
0.0806807
0.0781689
0.0755737
0.0728868
0.0701062
0.0672342
0.0642713
0.061221
0.0580895
0.054886
0.0516136
0.0482756
0.0448823
0.0414467
0.0379849
0.0345105
0.0310281
0.0275381
0.0240341
0.0205171
0.0170091
0.0135329
0.0100817
0.00665344
0.00324669
-0.000139782
-0.00350694
-0.00685565
-0.0101868
-0.0135012
-0.0167998
-0.0200833
-0.0233528
-0.0266089
-0.0298527
-0.0330849
-0.0363063
-0.0395176
-0.0427197
-0.0459131
-0.0490985
-0.0522766
-0.0554478
-0.0586127
-0.0617719
-0.0649257
-0.0680747
-0.0712192
-0.0743597
-0.0774964
-0.0806299
-0.0837604
-0.0868882
-0.0900138
-0.0931374
-0.0962593
-0.0993798
-0.102499
-0.105618
-0.108736
0.218999
0.215821
0.212658
0.209518
0.20641
0.203341
0.200321
0.19736
0.194467
0.19165
0.188915
0.186267
0.183711
0.18125
0.178884
0.17661
0.174424
0.172316
0.170281
0.168312
0.1664
0.164534
0.162705
0.160905
0.159123
0.157354
0.155591
0.153831
0.152069
0.150301
0.148521
0.146722
0.144892
0.143014
0.141068
0.139044
0.136947
0.134789
0.132586
0.130345
0.128075
0.125778
0.123461
0.121134
0.118793
0.116438
0.114079
0.111719
0.109367
0.107027
0.1047
0.102384
0.100072
0.0977588
0.0954413
0.0931132
0.0907745
0.0884196
0.0860332
0.0835936
0.0810855
0.0785016
0.0758363
0.0730844
0.0702431
0.067315
0.0643048
0.0612177
0.0580566
0.0548257
0.0515321
0.0481802
0.0447795
0.0413443
0.0378897
0.0344254
0.0309526
0.0274658
0.0239506
0.0204067
0.0168737
0.0133867
0.00993089
0.00650106
0.00309454
-0.000290362
-0.00365478
-0.00699972
-0.0103262
-0.0136352
-0.0169278
-0.0202049
-0.0234675
-0.0267168
-0.0299535
-0.0331787
-0.0363932
-0.0395979
-0.0427935
-0.0459807
-0.0491603
-0.0523328
-0.0554988
-0.0586588
-0.0618134
-0.064963
-0.068108
-0.0712489
-0.074386
-0.0775196
-0.0806502
-0.083778
-0.0869033
-0.0900265
-0.0931479
-0.0962677
-0.0993863
-0.102504
-0.105621
-0.108737
0.219027
0.215904
0.212796
0.209714
0.206666
0.20366
0.200704
0.197805
0.194973
0.192217
0.18954
0.186948
0.184441
0.182022
0.179689
0.177441
0.175275
0.173184
0.171161
0.169197
0.167283
0.165408
0.163565
0.161746
0.159944
0.158153
0.156369
0.154588
0.152807
0.15102
0.149221
0.147399
0.14554
0.143625
0.141636
0.139568
0.137427
0.135227
0.132981
0.130701
0.128397
0.126072
0.12374
0.121405
0.119065
0.116723
0.114388
0.112062
0.109752
0.107457
0.105177
0.102905
0.100631
0.0983437
0.0960409
0.0937189
0.0913728
0.0889885
0.0865467
0.0840322
0.0814409
0.0787713
0.0760244
0.0731989
0.070292
0.067305
0.0642428
0.0611179
0.0579305
0.0546763
0.0513644
0.0479995
0.0445905
0.0411524
0.0376968
0.0342323
0.0307627
0.0272784
0.0237632
0.0202194
0.0166856
0.0131997
0.00974565
0.00631808
0.00291443
-0.00046679
-0.00382663
-0.00716611
-0.0104863
-0.0137883
-0.0170734
-0.0203426
-0.0235971
-0.026838
-0.0300665
-0.0332836
-0.0364902
-0.0396872
-0.0428754
-0.0460556
-0.0492285
-0.0523948
-0.0555549
-0.0587095
-0.061859
-0.0650039
-0.0681446
-0.0712814
-0.0744147
-0.0775449
-0.0806723
-0.0837971
-0.0869197
-0.0900404
-0.0931594
-0.0962769
-0.0993934
-0.102509
-0.105624
-0.108738
0.219049
0.215972
0.212915
0.209888
0.206896
0.203946
0.201047
0.198205
0.195431
0.19273
0.190107
0.187564
0.185103
0.182725
0.180428
0.17821
0.176067
0.173993
0.171981
0.170022
0.168106
0.166224
0.16437
0.162537
0.16072
0.158915
0.157118
0.155327
0.153537
0.151741
0.14993
0.148091
0.146208
0.144262
0.142236
0.140129
0.13795
0.135715
0.13344
0.131134
0.128806
0.126465
0.124124
0.121788
0.119456
0.117133
0.114826
0.112535
0.110264
0.10801
0.105772
0.103537
0.101293
0.0990281
0.0967346
0.0944095
0.0920401
0.089605
0.0870919
0.0844968
0.0818164
0.07905
0.0762031
0.0732811
0.0702925
0.0672386
0.0641204
0.0609478
0.0577284
0.0544556
0.0511298
0.0477544
0.0443343
0.0408792
0.0374
0.033913
0.0304298
0.0269485
0.023457
0.0199491
0.0164417
0.0129701
0.00952456
0.00610306
0.0027049
-0.000670531
-0.00402386
-0.00735601
-0.0106681
-0.0139614
-0.0172372
-0.0204969
-0.0237417
-0.0269729
-0.0301918
-0.0333995
-0.036597
-0.0397853
-0.0429652
-0.0461376
-0.0493031
-0.0524624
-0.055616
-0.0587646
-0.0619085
-0.0650482
-0.0681841
-0.0713165
-0.0744458
-0.0775722
-0.0806961
-0.0838178
-0.0869374
-0.0900553
-0.0931717
-0.0962868
-0.0994009
-0.102514
-0.105627
-0.108739
0.219071
0.21604
0.213029
0.210046
0.2071
0.204199
0.201349
0.19856
0.195836
0.193186
0.190611
0.188114
0.185695
0.183356
0.181094
0.178906
0.176786
0.17473
0.172729
0.170776
0.168861
0.166978
0.165119
0.16328
0.161457
0.159647
0.157848
0.156056
0.154267
0.152473
0.150659
0.148809
0.146903
0.144925
0.142869
0.140733
0.138529
0.136269
0.133973
0.131647
0.129305
0.126961
0.124623
0.122295
0.11998
0.117681
0.115404
0.113148
0.110916
0.108703
0.106505
0.104305
0.102089
0.0998406
0.0975507
0.0952131
0.0928067
0.0903108
0.0877213
0.0850309
0.0822386
0.0793521
0.076385
0.0733518
0.0702707
0.0671452
0.0639747
0.0607569
0.0574974
0.0541975
0.0508521
0.0474598
0.0440229
0.0405465
0.0370361
0.033506
0.0299837
0.0264996
0.0230545
0.0196142
0.0161527
0.0127028
0.00926901
0.00585571
0.00246487
-0.000902896
-0.00424777
-0.0075706
-0.0108726
-0.0141552
-0.0174198
-0.0206681
-0.0239015
-0.0271215
-0.0303294
-0.0335264
-0.0367136
-0.0398921
-0.0430627
-0.0462263
-0.0493836
-0.0525353
-0.0556818
-0.0588237
-0.0619616
-0.0650956
-0.0682263
-0.071354
-0.0744789
-0.0776013
-0.0807215
-0.0838397
-0.0869562
-0.0900711
-0.0931848
-0.0962973
-0.0994089
-0.10252
-0.10563
-0.10874
0.219092
0.216099
0.213125
0.210182
0.207278
0.20442
0.201616
0.198871
0.196194
0.193589
0.191059
0.188603
0.186223
0.18392
0.181691
0.17953
0.177434
0.175397
0.17341
0.171465
0.169557
0.167678
0.165822
0.163986
0.162166
0.160361
0.158568
0.156784
0.155005
0.15322
0.151412
0.149559
0.147642
0.145646
0.143567
0.14141
0.139185
0.13691
0.134599
0.13226
0.129914
0.127577
0.125249
0.122936
0.120644
0.118376
0.116136
0.113921
0.111732
0.109561
0.107401
0.105235
0.103043
0.100808
0.0985153
0.0961572
0.0937033
0.0911372
0.0884569
0.0856523
0.0827349
0.0797209
0.0766303
0.0734828
0.0702953
0.0670775
0.0638365
0.0605667
0.0572665
0.0539374
0.0505719
0.0471654
0.0437163
0.0402244
0.0366967
0.0331507
0.0296123
0.0261161
0.0226804
0.0192732
0.015841
0.0124059
0.00898143
0.00557594
0.00219326
-0.0011653
-0.00449975
-0.00781106
-0.0111007
-0.0143703
-0.0176216
-0.0208566
-0.0240767
-0.0272837
-0.0304789
-0.0336638
-0.0368395
-0.040007
-0.0431674
-0.0463214
-0.0494697
-0.052613
-0.0557518
-0.0588866
-0.0620179
-0.0651459
-0.068271
-0.0713936
-0.0745138
-0.077632
-0.0807482
-0.0838628
-0.086976
-0.0900878
-0.0931985
-0.0963083
-0.0994174
-0.102526
-0.105634
-0.108742
0.219106
0.216143
0.213203
0.210297
0.207432
0.204614
0.201849
0.199146
0.196509
0.193944
0.191454
0.189037
0.186695
0.184425
0.182226
0.180092
0.17802
0.176003
0.174032
0.172102
0.170207
0.168339
0.166493
0.164668
0.162859
0.161065
0.159285
0.157516
0.155755
0.153991
0.1522
0.150356
0.148438
0.146434
0.144344
0.142172
0.139933
0.137648
0.135328
0.132989
0.130651
0.128325
0.126016
0.123729
0.121468
0.119236
0.117037
0.114869
0.112728
0.110607
0.108489
0.106356
0.104184
0.101954
0.09965
0.0972626
0.0947535
0.0921108
0.0893287
0.0864057
0.0833607
0.0802139
0.0769887
0.0737088
0.070399
0.0670778
0.063752
0.0604145
0.0570637
0.0536973
0.0503069
0.0468843
0.0434274
0.03994
0.0364288
0.0329006
0.0293681
0.0258538
0.0223846
0.0189561
0.0155188
0.0120835
0.00866197
0.00526236
0.00188819
-0.00145958
-0.00478138
-0.00807865
-0.0113533
-0.0146073
-0.017843
-0.0210622
-0.024267
-0.0274591
-0.0306401
-0.0338114
-0.0369743
-0.0401297
-0.0432788
-0.0464223
-0.0495608
-0.0526951
-0.0558256
-0.0589528
-0.062077
-0.0651986
-0.0683179
-0.0714351
-0.0745504
-0.077664
-0.0807761
-0.0838869
-0.0869965
-0.0901051
-0.0932128
-0.0963198
-0.0994261
-0.102532
-0.105638
-0.108743
0.219123
0.216193
0.213281
0.2104
0.207563
0.204777
0.202049
0.199385
0.196787
0.194259
0.191806
0.189426
0.18712
0.184883
0.182714
0.180609
0.178562
0.176566
0.174616
0.172704
0.170827
0.168976
0.167148
0.165339
0.163546
0.161767
0.160003
0.158255
0.156524
0.154791
0.153024
0.151194
0.149279
0.147274
0.145183
0.143012
0.140777
0.138491
0.136173
0.133846
0.131524
0.12922
0.126938
0.124687
0.122469
0.120284
0.118138
0.116024
0.113937
0.111867
0.109788
0.107685
0.105526
0.103293
0.10097
0.0985462
0.0959761
0.0932503
0.0903589
0.087316
0.0841391
0.0808532
0.0774867
0.0740702
0.0706304
0.0671863
0.0637503
0.060327
0.0569108
0.0534962
0.0500783
0.0466439
0.0431843
0.0396984
0.0361938
0.0326806
0.0291632
0.0256423
0.0221302
0.0186486
0.0151789
0.0117303
0.0083064
0.00491129
0.00154655
-0.00178823
-0.00509455
-0.00837468
-0.0116312
-0.0148668
-0.0180839
-0.021285
-0.0244722
-0.0276474
-0.0308124
-0.0339686
-0.0371172
-0.0402595
-0.0433963
-0.0465284
-0.0496565
-0.0527811
-0.0559027
-0.0590218
-0.0621386
-0.0652534
-0.0683665
-0.071478
-0.0745882
-0.0776971
-0.0808049
-0.0839117
-0.0870177
-0.090123
-0.0932275
-0.0963315
-0.0994351
-0.102538
-0.105641
-0.108744
0.219136
0.21623
0.213343
0.210488
0.207678
0.204921
0.202226
0.199595
0.197033
0.194542
0.192125
0.189781
0.187508
0.185304
0.183165
0.181088
0.179068
0.177098
0.175173
0.173286
0.171432
0.169604
0.167798
0.166011
0.164239
0.162481
0.16074
0.159022
0.157327
0.155629
0.153886
0.152073
0.150168
0.14817
0.146089
0.143931
0.141709
0.139437
0.137142
0.134842
0.132548
0.130278
0.128036
0.125831
0.123668
0.121544
0.11946
0.117409
0.11538
0.113361
0.111317
0.109236
0.107081
0.104836
0.102487
0.100017
0.0973797
0.0945641
0.0915652
0.0884026
0.0850939
0.081671
0.0781604
0.0745938
0.0710024
0.0674144
0.0638502
0.0603182
0.0568149
0.0533358
0.0498769
0.0464217
0.0429528
0.0394661
0.0359643
0.0324521
0.0289285
0.0253886
0.021837
0.0183059
0.0147999
0.0113341
0.00790638
0.00451676
0.00116398
-0.00215439
-0.00544138
-0.00870048
-0.0119352
-0.0151487
-0.0183442
-0.0215243
-0.0246915
-0.0278477
-0.0309949
-0.0341344
-0.0372675
-0.0403954
-0.043519
-0.0466389
-0.0497558
-0.0528702
-0.0559825
-0.059093
-0.062202
-0.0653098
-0.0684164
-0.0715221
-0.0746269
-0.0777309
-0.0808343
-0.0839371
-0.0870394
-0.0901411
-0.0932425
-0.0963435
-0.0994443
-0.102545
-0.105645
-0.108745
0.219146
0.216261
0.213396
0.210563
0.207777
0.205049
0.202385
0.199788
0.197259
0.194802
0.192419
0.190109
0.18787
0.185698
0.18359
0.181543
0.179552
0.177611
0.175714
0.173856
0.17203
0.17023
0.168452
0.166693
0.164949
0.163219
0.16151
0.159828
0.158174
0.156512
0.1548
0.153012
0.151129
0.149154
0.147097
0.144966
0.142767
0.140522
0.138262
0.135999
0.133745
0.131521
0.129333
0.127186
0.125087
0.123032
0.121019
0.119038
0.117069
0.115096
0.113082
0.111012
0.108851
0.106586
0.104201
0.101672
0.0989577
0.0960521
0.0929564
0.0896832
0.0862539
0.0826948
0.0790342
0.0753069
0.0715487
0.0677944
0.0640731
0.0604018
0.056784
0.0532159
0.0496896
0.0461933
0.0427035
0.0392042
0.0356944
0.0321725
0.0286319
0.0250647
0.0214731
0.0178987
0.0143605
0.01088
0.00745141
0.00407125
0.000735226
-0.00256155
-0.00582404
-0.00905718
-0.0122655
-0.015453
-0.0186233
-0.0217795
-0.024924
-0.028059
-0.0311864
-0.0343077
-0.0374241
-0.0405365
-0.0436459
-0.0467529
-0.049858
-0.0529617
-0.0560642
-0.0591658
-0.0622668
-0.0653672
-0.0684672
-0.0715668
-0.0746662
-0.0777653
-0.0808641
-0.0839628
-0.0870612
-0.0901595
-0.0932577
-0.0963556
-0.0994535
-0.102551
-0.105649
-0.108747
0.219157
0.216296
0.213453
0.210641
0.207874
0.205166
0.202529
0.199962
0.197468
0.195047
0.192697
0.190421
0.188215
0.186075
0.183999
0.181983
0.180022
0.178111
0.176246
0.174419
0.172626
0.17086
0.169116
0.167391
0.165682
0.16399
0.162319
0.160678
0.159068
0.157446
0.15577
0.154016
0.152168
0.150232
0.148216
0.146123
0.143961
0.141758
0.139544
0.13733
0.13513
0.132965
0.130843
0.128766
0.126738
0.124758
0.12282
0.120908
0.118998
0.117067
0.115078
0.113012
0.11084
0.108546
0.106121
0.103526
0.10073
0.0977317
0.0945355
0.0911576
0.0876182
0.0839306
0.0801223
0.0762278
0.07229
0.0683507
0.0644479
0.0606059
0.0568385
0.0531449
0.0495127
0.0459324
0.0423902
0.0388652
0.0353346
0.0317836
0.0282088
0.0246145
0.0210069
0.0174084
0.0138422
0.0103529
0.00693008
0.00356661
0.000254742
-0.00301319
-0.00624442
-0.0094455
-0.0126221
-0.015779
-0.0189202
-0.022049
-0.0251682
-0.0282798
-0.0313857
-0.0344872
-0.0375855
-0.0406815
-0.043776
-0.0468694
-0.0499622
-0.0530546
-0.056147
-0.0592395
-0.0623322
-0.0654251
-0.0685183
-0.0716119
-0.0747057
-0.0777997
-0.080894
-0.0839885
-0.0870831
-0.0901779
-0.0932728
-0.0963677
-0.0994627
-0.102558
-0.105653
-0.108748
0.219165
0.216321
0.213497
0.210707
0.207963
0.205279
0.202667
0.200131
0.197671
0.195283
0.192967
0.190725
0.188552
0.186444
0.184399
0.182413
0.180483
0.178605
0.176773
0.174981
0.173224
0.171495
0.16979
0.168106
0.166439
0.164792
0.163166
0.161571
0.160005
0.158426
0.156793
0.155084
0.153283
0.151398
0.149435
0.147396
0.145288
0.143141
0.140988
0.138837
0.136703
0.13461
0.132565
0.130568
0.128622
0.126723
0.124862
0.123016
0.12116
0.119268
0.1173
0.115235
0.113045
0.110718
0.108238
0.105565
0.102681
0.0995822
0.0962824
0.0927995
0.0891522
0.0853491
0.0814072
0.0773553
0.0732384
0.0691061
0.0650042
0.0609646
0.0570071
0.0531375
0.049357
0.0456606
0.0420315
0.0384425
0.0348667
0.0312815
0.0276754
0.0240478
0.020416
0.0168049
0.0132252
0.00973742
0.00633083
0.00299464
-0.000282729
-0.00351225
-0.0067037
-0.00986535
-0.013004
-0.0161251
-0.0192331
-0.0223312
-0.0254222
-0.0285082
-0.0315907
-0.0346711
-0.0377503
-0.040829
-0.0439078
-0.0469871
-0.0500671
-0.0531481
-0.0562302
-0.0593133
-0.0623976
-0.0654829
-0.0685693
-0.0716567
-0.0747449
-0.0778339
-0.0809236
-0.0840139
-0.0871048
-0.0901961
-0.0932877
-0.0963797
-0.0994718
-0.102564
-0.105657
-0.108749
0.219173
0.216344
0.213537
0.210768
0.208048
0.205391
0.202804
0.200297
0.197869
0.195517
0.193237
0.191029
0.188887
0.18681
0.184794
0.182838
0.180938
0.179093
0.177295
0.175539
0.173821
0.172133
0.170471
0.168833
0.167215
0.165618
0.164044
0.162499
0.16098
0.15945
0.15787
0.156217
0.154477
0.152653
0.150754
0.148779
0.146737
0.144665
0.142584
0.140508
0.138456
0.136448
0.134491
0.132585
0.130728
0.128914
0.12713
0.125349
0.123545
0.121689
0.119739
0.117669
0.115451
0.113075
0.110524
0.107766
0.104785
0.101582
0.0981744
0.094583
0.0908295
0.0869187
0.0828571
0.0786659
0.0743884
0.0700706
0.0657605
0.0615001
0.0573169
0.0532276
0.0492486
0.0453831
0.0416262
0.0379527
0.0343131
0.0306667
0.0270142
0.0233541
0.0197051
0.0160858
0.0124955
0.00901966
0.00564266
0.00234796
-0.000881375
-0.00406042
-0.00720177
-0.0103155
-0.0134093
-0.0164891
-0.0195593
-0.0226233
-0.0256835
-0.0287417
-0.0317994
-0.0348574
-0.0379165
-0.0409772
-0.0440399
-0.0471047
-0.0501717
-0.053241
-0.0563126
-0.0593864
-0.0624622
-0.06554
-0.0686195
-0.0717008
-0.0747835
-0.0778675
-0.0809527
-0.0840389
-0.087126
-0.0902139
-0.0933023
-0.0963913
-0.0994807
-0.10257
-0.10566
-0.10875
0.219177
0.216358
0.213569
0.210821
0.208129
0.205502
0.202947
0.200472
0.198077
0.195761
0.193516
0.19134
0.189227
0.187176
0.185186
0.183256
0.181385
0.17957
0.177807
0.176088
0.174409
0.172764
0.171149
0.16956
0.167996
0.166456
0.164939
0.163448
0.16198
0.160505
0.158987
0.157401
0.155733
0.153984
0.152158
0.150257
0.1483
0.146316
0.144318
0.142332
0.140375
0.138463
0.136604
0.134799
0.133036
0.131304
0.129597
0.12788
0.12613
0.124313
0.122377
0.120297
0.118043
0.115605
0.112969
0.110111
0.107024
0.103711
0.100193
0.096498
0.0926455
0.0886336
0.0844657
0.0801551
0.0757324
0.0712361
0.066719
0.0622252
0.0577919
0.0534525
0.049236
0.0451583
0.0412151
0.0373888
0.0336462
0.0299258
0.0262182
0.0225193
0.0188523
0.0152307
0.0116357
0.00818513
0.00485551
0.00162092
-0.00154326
-0.00465724
-0.00773659
-0.0107929
-0.0138345
-0.0168672
-0.0198955
-0.022922
-0.025949
-0.0289776
-0.032009
-0.0350437
-0.0380821
-0.0411244
-0.0441706
-0.0472207
-0.0502746
-0.0533323
-0.0563934
-0.0594578
-0.0625253
-0.0655956
-0.0686684
-0.0717436
-0.0748209
-0.0779
-0.0809808
-0.084063
-0.0871465
-0.090231
-0.0933164
-0.0964026
-0.0994893
-0.102576
-0.105664
-0.108752
0.219182
0.216377
0.213605
0.210882
0.208221
0.205627
0.203107
0.200665
0.198303
0.19602
0.193808
0.191661
0.189573
0.187544
0.185573
0.183663
0.181816
0.180029
0.178297
0.176613
0.174973
0.173371
0.171803
0.170267
0.16876
0.167281
0.165826
0.164397
0.162986
0.161572
0.160125
0.158617
0.157034
0.155368
0.153625
0.151813
0.149955
0.148069
0.146168
0.14429
0.142446
0.140645
0.138892
0.13719
0.135523
0.133874
0.13224
0.130588
0.128894
0.12712
0.125197
0.123101
0.120797
0.118276
0.115535
0.112568
0.109374
0.105956
0.102336
0.0985418
0.0945905
0.0904745
0.0861994
0.0817678
0.0772044
0.0725469
0.0678407
0.0631258
0.0584478
0.0538515
0.0493771
0.0450513
0.0408739
0.0368332
0.0329213
0.0290888
0.0253058
0.0215442
0.0178379
0.0142165
0.010628
0.00722011
0.00396171
0.000811401
-0.00226671
-0.00529885
-0.00830325
-0.0112923
-0.0142743
-0.0172546
-0.0202369
-0.0232231
-0.0262148
-0.0292125
-0.0322167
-0.0352275
-0.0382447
-0.0412684
-0.0442981
-0.0473336
-0.0503745
-0.0534206
-0.0564715
-0.0595267
-0.062586
-0.065649
-0.0687153
-0.0717847
-0.0748567
-0.0779312
-0.0810077
-0.0840861
-0.0871661
-0.0902474
-0.0933299
-0.0964133
-0.0994975
-0.102582
-0.105667
-0.108753
0.219188
0.216399
0.21365
0.210956
0.208327
0.205769
0.203287
0.200882
0.198554
0.1963
0.194115
0.191992
0.189924
0.187909
0.18595
0.184051
0.182219
0.180452
0.178745
0.177091
0.175485
0.173924
0.172404
0.170923
0.169476
0.16806
0.166672
0.165309
0.163963
0.16262
0.161259
0.159846
0.158363
0.156791
0.155138
0.15343
0.151683
0.149913
0.148126
0.146367
0.144646
0.142967
0.14133
0.139735
0.138166
0.136604
0.135045
0.133465
0.131842
0.130111
0.128176
0.126034
0.123654
0.121035
0.11818
0.115101
0.111804
0.108288
0.104574
0.100687
0.0966363
0.0924091
0.0880135
0.0834472
0.0787436
0.0739374
0.0690634
0.0641609
0.0592726
0.0544421
0.0497105
0.045111
0.0406598
0.036359
0.0322289
0.0282361
0.0243458
0.020513
0.0167414
0.0130718
0.00946107
0.00611309
0.00295883
-7.60856e-05
-0.00304381
-0.00597634
-0.00889299
-0.0118056
-0.0147214
-0.0176447
-0.0205777
-0.0235216
-0.0264765
-0.0294425
-0.032419
-0.0354057
-0.0384019
-0.041407
-0.0444205
-0.0474416
-0.0504699
-0.0535048
-0.0565457
-0.0595921
-0.0626436
-0.0656996
-0.0687597
-0.0718235
-0.0748905
-0.0779605
-0.081033
-0.0841078
-0.0871844
-0.0902628
-0.0933425
-0.0964233
-0.0995051
-0.102588
-0.105671
-0.108754
0.219203
0.21644
0.213718
0.211054
0.208461
0.20594
0.203495
0.201126
0.198829
0.196602
0.194439
0.192333
0.190276
0.188267
0.186308
0.184408
0.182576
0.180815
0.179119
0.177482
0.175902
0.174376
0.172903
0.171477
0.170095
0.168749
0.167435
0.166148
0.164879
0.163621
0.162359
0.16106
0.159691
0.15823
0.15669
0.155102
0.153485
0.151853
0.1502
0.148573
0.146982
0.145427
0.143907
0.142418
0.140949
0.139477
0.137997
0.136503
0.134948
0.133207
0.13121
0.128972
0.126488
0.123756
0.120789
0.117616
0.114237
0.110637
0.106839
0.102855
0.0986897
0.0943334
0.0898065
0.0851056
0.080266
0.0753216
0.070308
0.0652639
0.0602212
0.0552113
0.0502629
0.0454073
0.0406753
0.0361043
0.031716
0.0275023
0.0234411
0.0194797
0.0155814
0.0117864
0.00809147
0.00484787
0.00185387
-0.00102544
-0.00385727
-0.00667406
-0.0094924
-0.0123215
-0.0151663
-0.0180293
-0.0209112
-0.0238115
-0.0267292
-0.0296633
-0.0326124
-0.0355753
-0.0385509
-0.041538
-0.0445358
-0.0475432
-0.0505594
-0.0535836
-0.056615
-0.0596531
-0.0626972
-0.0657466
-0.0688008
-0.0718594
-0.0749218
-0.0779876
-0.0810564
-0.0841278
-0.0872014
-0.0902769
-0.0933541
-0.0964326
-0.0995121
-0.102593
-0.105673
-0.108755
0.219212
0.216474
0.213785
0.211159
0.208604