/*--------------------------------*- C++ -*----------------------------------*\
  =========                 |
  \\      /  F ield         | OpenFOAM: The Open Source CFD Toolbox
   \\    /   O peration     | Website:  https://openfoam.org
    \\  /    A nd           | Version:  6
     \\/     M anipulation  |
\*---------------------------------------------------------------------------*/
FoamFile
{
    version     2.0;
    format      ascii;
    class       volVectorField;
    location    "300";
    object      U;
}
// * * * * * * * * * * * * * * * * * * * * * * * * * * * * * * * * * * * * * //

dimensions      [0 1 -1 0 0 0 0];

internalField   nonuniform List<vector> 
4800
(
(2.70311e-05 0 2.81152e-05)
(-4.61356e-05 0 -0.00010181)
(-0.000142859 0 6.68566e-06)
(-0.000252735 0 -5.969e-05)
(-0.000287392 0 4.8724e-05)
(-0.000339269 0 -3.68875e-05)
(-0.00038162 0 5.1618e-05)
(-0.000425208 0 2.19272e-05)
(-0.000461374 0 2.23909e-05)
(-0.000503883 0 -1.08166e-05)
(-0.000566455 0 2.60999e-05)
(-0.000642747 0 6.73432e-05)
(-0.00072876 0 2.85023e-05)
(-0.000812338 0 7.28278e-05)
(-0.000900522 0 -7.60437e-07)
(-0.000980165 0 3.69124e-05)
(-0.00105642 0 -6.88375e-06)
(-0.0011195 0 3.35075e-05)
(-0.00116907 0 -4.3058e-05)
(-0.00120407 0 -2.10755e-05)
(-0.00121707 0 -2.85805e-05)
(-0.00121681 0 -4.24713e-05)
(-0.00118735 0 -0.000108524)
(-0.00114152 0 -6.57232e-05)
(-0.00109333 0 -7.8692e-05)
(-0.00106411 0 -0.00011344)
(-0.00105003 0 -2.3917e-05)
(-0.000971652 0 2.58272e-05)
(-0.000868564 0 -9.81874e-05)
(-0.000802171 0 -6.49945e-05)
(-0.000772262 0 -7.53683e-05)
(-0.000767759 0 -0.000112063)
(-0.000715951 0 7.96575e-05)
(-0.000482011 0 -0.000187368)
(-0.000328358 0 -0.000102296)
(-0.000211392 0 2.3332e-05)
(-6.94838e-05 0 -1.26454e-05)
(9.96388e-05 0 -4.06024e-05)
(0.000215625 0 -6.94373e-05)
(0.00031537 0 7.7744e-06)
(0.000359753 0 -5.24242e-06)
(0.000380628 0 -4.30664e-05)
(0.00039874 0 -2.11169e-05)
(0.000382982 0 -2.94453e-05)
(0.000340928 0 -4.16957e-05)
(0.000294667 0 -2.3131e-05)
(0.000246403 0 -2.24622e-05)
(0.000205726 0 -5.02152e-06)
(0.0001453 0 2.29943e-05)
(0.000121528 0 -3.14703e-05)
(-0.000105025 0 1.55235e-05)
(-0.000288634 0 -9.33992e-05)
(-0.000321425 0 4.18522e-05)
(-0.000364775 0 2.7294e-05)
(-0.000390706 0 -1.46489e-05)
(-0.000402748 0 -3.03554e-06)
(-0.000395178 0 -1.68754e-05)
(-0.000360314 0 -2.81353e-05)
(-0.000354219 0 -2.81504e-05)
(-0.000359012 0 -1.42414e-05)
(-0.000332564 0 -2.4766e-05)
(-0.000307457 0 -4.17103e-05)
(-0.000274301 0 -2.08702e-05)
(-0.000219522 0 -3.03771e-05)
(-0.000167269 0 -3.9699e-05)
(-0.000124876 0 -2.56723e-05)
(-8.79094e-05 0 -1.36613e-05)
(-6.21741e-05 0 -4.4575e-06)
(-5.5407e-05 0 1.34796e-06)
(-6.51976e-05 0 2.3208e-05)
(-9.15182e-05 0 4.69576e-05)
(-0.00017515 0 4.13261e-05)
(-0.000304319 0 -7.82945e-05)
(-0.0003696 0 -0.000137625)
(-0.000428387 0 -0.000131945)
(-0.000443764 0 -0.000152463)
(-0.000434991 0 -0.000176708)
(-0.000498884 0 -8.24902e-05)
(-0.000571701 0 -0.000158784)
(3.54578e-06 0 -0.000249844)
(-4.55008e-13 0 -1.01226e-13)
(-1.68276e-12 0 -3.21733e-14)
(-6.55021e-13 0 -2.2085e-14)
(-6.1131e-13 0 -2.27925e-14)
(-5.6259e-13 0 -2.65907e-14)
(-5.05551e-13 0 -3.11307e-14)
(-4.39736e-13 0 -3.53119e-14)
(-3.66447e-13 0 -3.86921e-14)
(-2.87433e-13 0 -4.106e-14)
(-2.04737e-13 0 -4.23457e-14)
(-1.20442e-13 0 -4.25734e-14)
(-3.65524e-14 0 -4.18207e-14)
(4.5089e-14 0 -4.01955e-14)
(1.2287e-13 0 -3.78337e-14)
(1.95435e-13 0 -3.48865e-14)
(2.61663e-13 0 -3.14931e-14)
(3.20692e-13 0 -2.77759e-14)
(3.71963e-13 0 -2.38513e-14)
(4.15185e-13 0 -1.9827e-14)
(4.50277e-13 0 -1.57938e-14)
(4.77338e-13 0 -1.18294e-14)
(4.9661e-13 0 -8.00268e-15)
(5.08423e-13 0 -4.36314e-15)
(5.13179e-13 0 -9.31417e-16)
(5.11365e-13 0 2.2904e-15)
(5.03542e-13 0 5.29599e-15)
(4.9028e-13 0 8.06621e-15)
(4.72098e-13 0 1.0579e-14)
(4.49458e-13 0 1.28193e-14)
(4.22791e-13 0 1.47781e-14)
(3.92515e-13 0 1.64501e-14)
(3.59033e-13 0 1.78423e-14)
(3.22741e-13 0 1.89872e-14)
(2.84059e-13 0 1.99426e-14)
(2.43423e-13 0 2.07679e-14)
(2.01247e-13 0 2.14917e-14)
(1.57864e-13 0 2.20969e-14)
(1.13518e-13 0 2.25398e-14)
(6.84294e-14 0 2.27954e-14)
(2.28641e-14 0 2.28978e-14)
(-6.50925e-05 0 7.35425e-05)
(-6.08501e-05 0 0.000142419)
(-0.000162842 0 0.000103485)
(-0.000226162 0 0.000144274)
(-0.000307401 0 5.72058e-05)
(-0.000325443 0 9.33011e-05)
(-0.000369395 0 3.61005e-05)
(-0.000407912 0 6.17657e-05)
(-0.000454593 0 5.9007e-05)
(-0.000494712 0 9.63751e-05)
(-0.00055391 0 9.81233e-05)
(-0.000624085 0 0.000121648)
(-0.000707035 0 0.000104795)
(-0.000786494 0 0.000131973)
(-0.000867712 0 0.000133602)
(-0.000938644 0 0.000153369)
(-0.00100371 0 9.91892e-05)
(-0.00104713 0 9.33093e-05)
(-0.00107294 0 7.09976e-05)
(-0.00108022 0 6.32007e-05)
(-0.00107608 0 1.82387e-05)
(-0.00105987 0 -3.39362e-05)
(-0.00103939 0 6.06039e-06)
(-0.00099552 0 -3.15418e-05)
(-0.000947299 0 -0.000116795)
(-0.000903359 0 -0.000116572)
(-0.000847006 0 -8.10146e-05)
(-0.000784463 0 -8.64819e-05)
(-0.000718638 0 -9.04159e-05)
(-0.00064629 0 -9.93694e-05)
(-0.000587364 0 -0.000145871)
(-0.000561444 0 -0.000168569)
(-0.000552601 0 -4.4518e-06)
(-0.000383986 0 -0.000180392)
(-0.000241741 0 -0.000228952)
(-0.000110679 0 -0.000260756)
(8.55354e-05 0 -0.000298294)
(0.000207247 0 -0.000252097)
(0.000263733 0 -0.000238231)
(0.000363414 0 -0.000142197)
(0.000411956 0 -8.51012e-05)
(0.00043414 0 -8.52824e-05)
(0.000437098 0 1.10299e-05)
(0.00042045 0 4.34832e-05)
(0.000367552 0 0.000104709)
(0.000288791 0 7.84221e-05)
(0.000232867 0 3.90682e-05)
(0.000180083 0 9.73561e-05)
(0.000168726 0 8.16463e-05)
(2.99279e-05 0 0.000198021)
(-7.65656e-05 0 0.000169253)
(-0.000237578 0 0.000190405)
(-0.000317108 0 9.81447e-05)
(-0.000341215 0 5.18235e-05)
(-0.000364286 0 3.89485e-05)
(-0.000375924 0 1.12592e-05)
(-0.000376421 0 -5.53084e-06)
(-0.00035019 0 -7.55765e-05)
(-0.000340786 0 -2.25445e-05)
(-0.000341149 0 4.63274e-05)
(-0.000325491 0 -8.44558e-05)
(-0.000309525 0 -1.12848e-05)
(-0.000253245 0 -6.4681e-05)
(-0.00020078 0 -6.19912e-05)
(-0.000150553 0 -6.89657e-05)
(-0.000102462 0 -5.52429e-05)
(-5.03954e-05 0 -4.64261e-05)
(-1.01532e-05 0 -2.83099e-05)
(2.51618e-05 0 -2.36365e-06)
(3.7477e-05 0 2.78165e-05)
(3.8545e-05 0 7.02782e-05)
(5.77164e-05 0 0.000104761)
(4.97974e-06 0 0.000120228)
(-6.29279e-06 0 0.000106822)
(-4.21663e-05 0 8.74842e-05)
(-6.6123e-05 0 8.44472e-05)
(-4.69519e-05 0 5.85125e-05)
(-0.000409995 0 -0.000230126)
(-0.000641759 0 -0.000241297)
(4.80944e-06 0 -0.000440285)
(-8.72682e-13 0 -4.12047e-14)
(-1.62304e-12 0 -4.74695e-14)
(-6.46396e-13 0 -5.51799e-14)
(-6.1626e-13 0 -6.56652e-14)
(-5.71061e-13 0 -7.9494e-14)
(-5.14189e-13 0 -9.39912e-14)
(-4.47287e-13 0 -1.06925e-13)
(-3.72195e-13 0 -1.17239e-13)
(-2.91086e-13 0 -1.24389e-13)
(-2.0625e-13 0 -1.28216e-13)
(-1.19918e-13 0 -1.28821e-13)
(-3.41744e-14 0 -1.26464e-13)
(4.90761e-14 0 -1.21495e-13)
(1.28179e-13 0 -1.14328e-13)
(2.01776e-13 0 -1.05398e-13)
(2.68773e-13 0 -9.51158e-14)
(3.28334e-13 0 -8.38521e-14)
(3.79912e-13 0 -7.19614e-14)
(4.23242e-13 0 -5.97744e-14)
(4.58274e-13 0 -4.75761e-14)
(4.8513e-13 0 -3.55958e-14)
(5.04077e-13 0 -2.40075e-14)
(5.15494e-13 0 -1.29312e-14)
(5.19832e-13 0 -2.44186e-15)
(5.17592e-13 0 7.40453e-15)
(5.09317e-13 0 1.6546e-14)
(4.95563e-13 0 2.49097e-14)
(4.76851e-13 0 3.24259e-14)
(4.53657e-13 0 3.90446e-14)
(4.26422e-13 0 4.47513e-14)
(3.95579e-13 0 4.95842e-14)
(3.6157e-13 0 5.36443e-14)
(3.24842e-13 0 5.70812e-14)
(2.85839e-13 0 6.00448e-14)
(2.44972e-13 0 6.26253e-14)
(2.02576e-13 0 6.4821e-14)
(1.58912e-13 0 6.65605e-14)
(1.14217e-13 0 6.77747e-14)
(6.87874e-14 0 6.84768e-14)
(2.29665e-14 0 6.87907e-14)
(-5.69984e-05 0 0.000135272)
(-0.0001151 0 0.000178581)
(-0.000210132 0 0.0001354)
(-0.000223042 0 0.000163192)
(-0.000299894 0 8.41905e-05)
(-0.000310299 0 0.000122328)
(-0.000353908 0 8.11295e-05)
(-0.000389572 0 0.000116712)
(-0.000437092 0 9.80141e-05)
(-0.000476075 0 0.00010753)
(-0.000515007 0 0.000173377)
(-0.000573687 0 0.000211123)
(-0.000647484 0 0.000208229)
(-0.000720504 0 0.000211757)
(-0.000799346 0 0.000159039)
(-0.000855985 0 0.000131492)
(-0.000898093 0 9.81225e-05)
(-0.000918235 0 7.65078e-05)
(-0.000921601 0 5.11674e-05)
(-0.000924433 0 -3.23116e-06)
(-0.000928544 0 -1.57566e-05)
(-0.0009273 0 -4.09082e-05)
(-0.000926741 0 -5.01485e-05)
(-0.000885386 0 -0.000161265)
(-0.000824538 0 -0.00015012)
(-0.000765851 0 -0.000116794)
(-0.000710169 0 -0.000151852)
(-0.000659948 0 -0.00015726)
(-0.000604195 0 -0.000133652)
(-0.00053243 0 -0.000138755)
(-0.000465128 0 -0.000171746)
(-0.000422286 0 -0.000180369)
(-0.000370213 0 -0.000202142)
(-0.000274049 0 -0.000292998)
(-0.000124465 0 -0.000388814)
(-1.48223e-05 0 -0.000404005)
(0.000119468 0 -0.00038101)
(0.000208511 0 -0.000311359)
(0.000215537 0 -0.00029329)
(0.000340213 0 -0.00014753)
(0.000363635 0 -0.000110142)
(0.00041046 0 -1.86735e-05)
(0.000392543 0 -5.35871e-06)
(0.000365666 0 8.96776e-05)
(0.000338597 0 0.000101727)
(0.000275207 0 7.18454e-05)
(0.000154463 0 0.000161748)
(0.000155633 0 0.000162358)
(7.55956e-05 0 0.000213456)
(-1.52542e-05 0 0.000273774)
(-0.000127845 0 0.000254172)
(-0.000204067 0 0.000244236)
(-0.000284222 0 0.000156935)
(-0.000336787 0 5.93187e-05)
(-0.000348319 0 5.05395e-05)
(-0.000356812 0 1.63677e-05)
(-0.000363386 0 -1.32467e-05)
(-0.000365812 0 -1.50663e-05)
(-0.000334133 0 -5.59299e-05)
(-0.00032142 0 -3.37853e-05)
(-0.000329829 0 -2.11264e-05)
(-0.000332181 0 -6.53607e-05)
(-0.000232169 0 -0.00021435)
(-0.000211972 0 -0.000136177)
(-0.00014476 0 -0.000141793)
(-8.30405e-05 0 -0.000136288)
(-1.64993e-05 0 -0.00012124)
(2.28522e-05 0 -8.79204e-05)
(7.7931e-05 0 -3.21785e-05)
(0.000100757 0 9.70365e-06)
(0.000113727 0 6.36337e-05)
(0.000174324 0 6.81722e-05)
(0.000119598 0 0.000156365)
(0.000156877 0 0.000125446)
(0.000168575 0 0.000120557)
(0.000170572 0 0.000126282)
(0.000143609 0 0.000142656)
(0.000389622 0 0.00016415)
(-0.000493073 0 -4.5433e-05)
(5.37114e-06 0 -0.000457419)
(-8.99119e-13 0 -1.67105e-13)
(-1.74369e-12 0 -8.6142e-14)
(-6.73761e-13 0 -8.49983e-14)
(-6.35861e-13 0 -1.0521e-13)
(-5.90845e-13 0 -1.31848e-13)
(-5.32788e-13 0 -1.58251e-13)
(-4.62963e-13 0 -1.81063e-13)
(-3.83911e-13 0 -1.98893e-13)
(-2.9841e-13 0 -2.1108e-13)
(-2.09168e-13 0 -2.17489e-13)
(-1.1869e-13 0 -2.18362e-13)
(-2.92262e-14 0 -2.14176e-13)
(5.72252e-14 0 -2.05552e-13)
(1.38967e-13 0 -1.932e-13)
(2.14647e-13 0 -1.77865e-13)
(2.83209e-13 0 -1.60253e-13)
(3.43846e-13 0 -1.41013e-13)
(3.96041e-13 0 -1.20752e-13)
(4.3957e-13 0 -1.00024e-13)
(4.74455e-13 0 -7.9306e-14)
(5.00907e-13 0 -5.89786e-14)
(5.19275e-13 0 -3.93269e-14)
(5.29989e-13 0 -2.05558e-14)
(5.33515e-13 0 -2.81806e-15)
(5.30353e-13 0 1.3752e-14)
(5.21047e-13 0 2.9021e-14)
(5.0616e-13 0 4.28649e-14)
(4.86233e-13 0 5.51923e-14)
(4.61784e-13 0 6.59706e-14)
(4.3333e-13 0 7.52488e-14)
(4.01408e-13 0 8.31677e-14)
(3.6653e-13 0 8.99382e-14)
(3.29142e-13 0 9.57808e-14)
(2.89603e-13 0 1.00851e-13)
(2.48199e-13 0 1.05192e-13)
(2.05182e-13 0 1.08754e-13)
(1.60818e-13 0 1.11468e-13)
(1.15435e-13 0 1.13338e-13)
(6.94455e-14 0 1.14478e-13)
(2.3178e-14 0 1.15043e-13)
(-6.9656e-05 0 0.00020756)
(-0.000153419 0 0.000242189)
(-0.000183081 0 0.000228865)
(-0.000205149 0 0.000207325)
(-0.000280657 0 0.000143909)
(-0.00029376 0 0.000142662)
(-0.000313236 0 0.000133242)
(-0.000346927 0 0.000165236)
(-0.000403103 0 0.000149224)
(-0.000437852 0 0.000173817)
(-0.000472306 0 0.000200911)
(-0.000505233 0 0.000260733)
(-0.000578608 0 0.000243525)
(-0.000637835 0 0.000248818)
(-0.000678874 0 0.000264828)
(-0.000718675 0 0.000226939)
(-0.000734174 0 0.000208418)
(-0.000742719 0 0.000181577)
(-0.000770435 0 7.99074e-05)
(-0.000798398 0 3.98736e-05)
(-0.000802935 0 8.97988e-06)
(-0.000778075 0 -7.95056e-05)
(-0.000770369 0 -6.80485e-05)
(-0.000774536 0 -8.02105e-05)
(-0.000723009 0 -0.000213274)
(-0.0006192 0 -0.000277957)
(-0.000593055 0 -0.000189842)
(-0.000546339 0 -0.000201015)
(-0.000499612 0 -0.000222626)
(-0.000436235 0 -0.000234749)
(-0.00038716 0 -0.000209227)
(-0.000359338 0 -0.00018776)
(-0.000311941 0 -0.000240999)
(-0.00015539 0 -0.000440087)
(-0.00011301 0 -0.000472447)
(-6.03515e-05 0 -0.000477623)
(5.29577e-05 0 -0.000472468)
(9.05416e-05 0 -0.000417864)
(0.00015768 0 -0.000344679)
(0.000340451 0 -0.000110857)
(5.24967e-05 0 -0.000335041)
(0.000329636 0 5.26408e-05)
(0.000286502 0 -6.69321e-05)
(0.000268465 0 0.000126503)
(0.000210528 0 0.000235668)
(0.000171318 0 0.000213501)
(0.000143291 0 0.000176908)
(4.9001e-05 0 0.000242498)
(1.61792e-06 0 0.000290548)
(-7.24917e-05 0 0.000350799)
(-0.000148052 0 0.000340584)
(-0.000219127 0 0.00027717)
(-0.000272276 0 0.000197495)
(-0.000303241 0 0.000144216)
(-0.000327257 0 8.5534e-05)
(-0.000340064 0 -1.22183e-05)
(-0.000338347 0 -4.64247e-05)
(-0.000338703 0 -4.23298e-05)
(-0.000329402 0 -4.90724e-05)
(-0.000328172 0 -2.79975e-05)
(-0.000333226 0 -2.58357e-05)
(-0.000336642 0 -5.25943e-05)
(-0.000212331 0 -0.000252435)
(-0.000225147 0 -0.000157411)
(-0.000139893 0 -0.000173848)
(-2.7835e-05 0 -0.000195961)
(1.97585e-05 0 -0.000157067)
(7.43857e-05 0 -0.000119563)
(0.00011816 0 -5.46096e-05)
(0.000142196 0 -7.79031e-06)
(0.000164414 0 3.75248e-05)
(0.000199015 0 5.79305e-05)
(0.000215044 0 0.000100296)
(0.000256082 0 4.97605e-05)
(0.000290996 0 1.06042e-05)
(0.000327973 0 4.55938e-05)
(0.000329344 0 6.1382e-05)
(0.000352247 0 3.64001e-05)
(4.21232e-05 0 -1.40056e-05)
(4.9125e-06 0 -0.000279928)
(-6.22791e-13 0 -1.28599e-13)
(-1.58802e-12 0 -6.79427e-14)
(-6.65051e-13 0 -9.31518e-14)
(-6.627e-13 0 -1.37809e-13)
(-6.23698e-13 0 -1.83928e-13)
(-5.63183e-13 0 -2.25456e-13)
(-4.8791e-13 0 -2.59757e-13)
(-4.02212e-13 0 -2.85885e-13)
(-3.09683e-13 0 -3.03423e-13)
(-2.13532e-13 0 -3.12415e-13)
(-1.16604e-13 0 -3.13312e-13)
(-2.13648e-14 0 -3.06856e-13)
(7.00515e-14 0 -2.93965e-13)
(1.55866e-13 0 -2.75687e-13)
(2.34723e-13 0 -2.53135e-13)
(3.05626e-13 0 -2.27377e-13)
(3.67835e-13 0 -1.99379e-13)
(4.20901e-13 0 -1.70021e-13)
(4.64688e-13 0 -1.40099e-13)
(4.9932e-13 0 -1.10294e-13)
(5.25109e-13 0 -8.11556e-14)
(5.42499e-13 0 -5.31151e-14)
(5.52003e-13 0 -2.64959e-14)
(5.5414e-13 0 -1.53467e-15)
(5.49431e-13 0 2.15895e-14)
(5.3843e-13 0 4.27333e-14)
(5.21734e-13 0 6.17937e-14)
(4.99957e-13 0 7.87329e-14)
(4.73714e-13 0 9.35968e-14)
(4.43619e-13 0 1.06515e-13)
(4.10268e-13 0 1.17679e-13)
(3.74183e-13 0 1.27306e-13)
(3.35754e-13 0 1.35589e-13)
(2.9525e-13 0 1.4266e-13)
(2.52875e-13 0 1.48569e-13)
(2.08853e-13 0 1.53321e-13)
(1.63497e-13 0 1.56929e-13)
(1.17226e-13 0 1.59481e-13)
(7.04924e-14 0 1.61126e-13)
(2.35319e-14 0 1.61974e-13)
(-6.00396e-06 0 0.000272723)
(1.39798e-05 0 0.000311212)
(-7.42109e-05 0 0.000299354)
(-0.000138125 0 0.000255853)
(-0.000179701 0 0.000221225)
(-0.000243884 0 0.000184997)
(-0.000292425 0 0.000168239)
(-0.000320847 0 0.000182319)
(-0.000355523 0 0.000175653)
(-0.000397256 0 0.000181514)
(-0.000425088 0 0.000223981)
(-0.000437345 0 0.000291549)
(-0.000463712 0 0.000323002)
(-0.000508412 0 0.000307647)
(-0.000553563 0 0.000268629)
(-0.000601224 0 0.00019365)
(-0.000631078 0 0.000124317)
(-0.000647797 0 3.59168e-05)
(-0.000664085 0 8.00905e-06)
(-0.000677626 0 2.92174e-05)
(-0.000661568 0 -2.84422e-05)
(-0.00062633 0 -7.68851e-05)
(-0.000608656 0 -0.000118494)
(-0.000595307 0 -0.000154649)
(-0.000571957 0 -0.000226189)
(-0.000524075 0 -0.00027259)
(-0.000474159 0 -0.000265358)
(-0.000412071 0 -0.000292909)
(-0.000392181 0 -0.000275257)
(-0.00034803 0 -0.000276567)
(-0.000307633 0 -0.000270249)
(-0.000285704 0 -0.000270207)
(-0.000252128 0 -0.000308363)
(-0.000162599 0 -0.000466701)
(-0.000141428 0 -0.000525599)
(-8.1759e-05 0 -0.000545193)
(-1.20554e-06 0 -0.000542404)
(4.4346e-05 0 -0.000460933)
(9.64691e-05 0 -0.000358211)
(0.000103911 0 -0.000266172)
(0.000208936 0 -9.22134e-05)
(0.000118419 0 -0.000132591)
(0.000164041 0 6.01887e-05)
(0.000165928 0 0.000148675)
(0.000250109 0 0.000163611)
(7.08921e-05 0 0.000227193)
(3.1217e-05 0 0.000250614)
(-1.90335e-05 0 0.00030088)
(-9.22927e-05 0 0.000370812)
(-0.000161375 0 0.00041574)
(-0.000187173 0 0.000408389)
(-0.000246501 0 0.00032331)
(-0.000257261 0 0.000249055)
(-0.000302253 0 0.000150047)
(-0.000322022 0 5.2165e-05)
(-0.000319017 0 3.4452e-05)
(-0.000326849 0 -1.45655e-06)
(-0.00031078 0 -6.5071e-05)
(-0.000298655 0 -3.83957e-05)
(-0.000286189 0 -3.77618e-05)
(-0.000268267 0 -5.79193e-05)
(-0.000227299 0 -0.000117138)
(-0.000132754 0 -0.000248701)
(-2.73627e-06 0 -0.000316124)
(6.10505e-05 0 -0.000303047)
(0.000123761 0 -0.000259596)
(0.000131268 0 -0.00020206)
(0.000182329 0 -0.000125584)
(0.00017715 0 -0.000103056)
(0.000193428 0 9.34137e-06)
(0.000198386 0 2.40633e-05)
(0.000205136 0 4.99251e-05)
(0.000225747 0 4.00555e-05)
(0.000226252 0 1.59895e-05)
(0.000245181 0 1.43516e-05)
(0.000296517 0 -2.66881e-06)
(0.000333683 0 5.3791e-05)
(0.000344926 0 9.51125e-05)
(-2.98849e-05 0 0.000106793)
(4.2246e-06 0 -0.000210154)
(-4.68683e-13 0 2.67975e-13)
(-1.72598e-12 0 3.3924e-14)
(-7.43214e-13 0 -8.18338e-14)
(-7.26231e-13 0 -1.68801e-13)
(-6.78094e-13 0 -2.40393e-13)
(-6.08401e-13 0 -2.9949e-13)
(-5.23376e-13 0 -3.46377e-13)
(-4.27577e-13 0 -3.81215e-13)
(-3.24941e-13 0 -4.04078e-13)
(-2.19058e-13 0 -4.153e-13)
(-1.1313e-13 0 -4.15598e-13)
(-9.87921e-15 0 -4.0604e-13)
(8.83942e-14 0 -3.87909e-13)
(1.79797e-13 0 -3.62637e-13)
(2.62957e-13 0 -3.31762e-13)
(3.36965e-13 0 -2.96768e-13)
(4.01202e-13 0 -2.5899e-13)
(4.55321e-13 0 -2.19616e-13)
(4.99298e-13 0 -1.79709e-13)
(5.33399e-13 0 -1.40191e-13)
(5.58086e-13 0 -1.01809e-13)
(5.73935e-13 0 -6.51305e-14)
(5.81569e-13 0 -3.05703e-14)
(5.816e-13 0 1.58991e-15)
(5.7462e-13 0 3.11721e-14)
(5.61251e-13 0 5.80793e-14)
(5.42159e-13 0 8.22859e-14)
(5.18036e-13 0 1.03835e-13)
(4.89566e-13 0 1.2283e-13)
(4.57413e-13 0 1.39426e-13)
(4.22199e-13 0 1.53809e-13)
(3.8444e-13 0 1.66178e-13)
(3.44496e-13 0 1.76727e-13)
(3.02583e-13 0 1.85617e-13)
(2.58859e-13 0 1.92961e-13)
(2.13542e-13 0 1.98841e-13)
(1.66979e-13 0 2.03346e-13)
(1.19631e-13 0 2.06602e-13)
(7.19379e-14 0 2.08744e-13)
(2.40261e-14 0 2.09848e-13)
(-4.42373e-05 0 0.000290994)
(-4.31805e-05 0 0.000322766)
(-4.41873e-05 0 0.000322608)
(-8.38342e-05 0 0.000290421)
(-0.000113037 0 0.000264251)
(-0.000120667 0 0.000266594)
(-0.00019702 0 0.000232669)
(-0.000296764 0 0.00019899)
(-0.000326063 0 0.000196005)
(-0.000340647 0 0.000204131)
(-0.000340409 0 0.000267543)
(-0.000372813 0 0.000295421)
(-0.00040295 0 0.000313767)
(-0.000411997 0 0.000318746)
(-0.000425916 0 0.000294998)
(-0.000418683 0 0.000283016)
(-0.000409774 0 0.000288336)
(-0.000415887 0 0.000273446)
(-0.00045229 0 0.00020658)
(-0.000480646 0 0.00011688)
(-0.000481538 0 2.18961e-05)
(-0.000475086 0 -0.000114765)
(-0.000459572 0 -0.000133568)
(-0.000435175 0 -0.000192327)
(-0.000393645 0 -0.000282695)
(-0.000402584 0 -0.000271585)
(-0.00037536 0 -0.000278589)
(-0.000338465 0 -0.000290656)
(-0.000326713 0 -0.000279249)
(-0.000258273 0 -0.000317281)
(-0.000235156 0 -0.000301462)
(-0.000222059 0 -0.000294995)
(-0.000146161 0 -0.000358578)
(-0.000163898 0 -0.000479735)
(-0.00010223 0 -0.000581044)
(-7.38444e-05 0 -0.000599719)
(-3.75575e-05 0 -0.00058752)
(-1.09233e-05 0 -0.000483179)
(-1.07459e-05 0 -0.000374264)
(-2.00544e-05 0 -0.00027965)
(7.57181e-05 0 -0.000172685)
(3.42569e-05 0 -4.32304e-05)
(-2.57238e-05 0 3.25872e-05)
(-2.83189e-05 0 0.000176629)
(-0.000131363 0 0.000254726)
(-2.20384e-05 0 0.000274345)
(-6.84924e-05 0 0.000305781)
(-0.000104028 0 0.000356068)
(-0.000140677 0 0.000454659)
(-0.000171013 0 0.000496254)
(-0.00025577 0 0.000435753)
(-0.000302889 0 0.000330615)
(-0.000277225 0 0.000267937)
(-0.000285234 0 0.000180758)
(-0.000290084 0 8.75999e-05)
(-0.000282971 0 3.55332e-05)
(-0.000277921 0 -1.56948e-05)
(-0.000256599 0 -6.58021e-05)
(-0.000223706 0 -7.28708e-05)
(-0.000180463 0 -8.73517e-05)
(-0.000143697 0 -0.000103895)
(-5.68786e-05 0 -0.000212467)
(0.00022139 0 -0.00040344)
(0.000236303 0 -0.000388324)
(0.000239011 0 -0.000345045)
(0.000252351 0 -0.000299017)
(0.000273112 0 -0.000209781)
(0.000254395 0 -0.000161958)
(0.000275879 0 -5.39145e-05)
(0.000252732 0 -4.0715e-06)
(0.000226998 0 3.79648e-05)
(0.000208239 0 7.18612e-05)
(0.000188264 0 7.96623e-05)
(7.04328e-05 0 1.3793e-05)
(7.87842e-05 0 4.45111e-05)
(8.49869e-05 0 7.67618e-05)
(0.000110789 0 7.83066e-05)
(0.000105871 0 0.000167846)
(-0.000351073 0 0.000330469)
(4.19695e-06 0 -0.000183868)
(-5.40714e-13 0 2.80603e-13)
(-1.91289e-12 0 4.53266e-14)
(-8.67355e-13 0 -9.95189e-14)
(-8.20855e-13 0 -2.15269e-13)
(-7.53995e-13 0 -3.09338e-13)
(-6.68958e-13 0 -3.85465e-13)
(-5.69622e-13 0 -4.44853e-13)
(-4.59914e-13 0 -4.88184e-13)
(-3.43768e-13 0 -5.15867e-13)
(-2.25052e-13 0 -5.28514e-13)
(-1.07344e-13 0 -5.27147e-13)
(6.32433e-15 0 -5.13226e-13)
(1.13454e-13 0 -4.88477e-13)
(2.12013e-13 0 -4.54789e-13)
(3.00593e-13 0 -4.14178e-13)
(3.78397e-13 0 -3.68615e-13)
(4.44987e-13 0 -3.19866e-13)
(5.00183e-13 0 -2.69459e-13)
(5.44113e-13 0 -2.18736e-13)
(5.7722e-13 0 -1.68857e-13)
(6.00169e-13 0 -1.20762e-13)
(6.13738e-13 0 -7.51462e-14)
(6.18724e-13 0 -3.24755e-14)
(6.15883e-13 0 6.97526e-15)
(6.05921e-13 0 4.30753e-14)
(5.89544e-13 0 7.57949e-14)
(5.67489e-13 0 1.05178e-13)
(5.40502e-13 0 1.31323e-13)
(5.09306e-13 0 1.54374e-13)
(4.74597e-13 0 1.74503e-13)
(4.3702e-13 0 1.9191e-13)
(3.97101e-13 0 2.06817e-13)
(3.55194e-13 0 2.19452e-13)
(3.11484e-13 0 2.30029e-13)
(2.66099e-13 0 2.38726e-13)
(2.19238e-13 0 2.45689e-13)
(1.71258e-13 0 2.51056e-13)
(1.22624e-13 0 2.5497e-13)
(7.37386e-14 0 2.57549e-13)
(2.46363e-14 0 2.58854e-13)
(-4.24765e-05 0 0.000301053)
(2.06801e-05 0 0.000329276)
(-2.42657e-05 0 0.000338766)
(-4.55183e-05 0 0.000318858)
(-7.12672e-05 0 0.000287056)
(-8.83467e-05 0 0.000283091)
(-0.00011742 0 0.000283828)
(-0.000163785 0 0.000291442)
(-0.000236668 0 0.000266758)
(-0.000305736 0 0.000230837)
(-0.000303827 0 0.000244991)
(-0.000263687 0 0.000327629)
(-0.000254942 0 0.000371821)
(-0.000277092 0 0.000362954)
(-0.000305409 0 0.000331099)
(-0.000393772 0 0.000207837)
(-0.000403908 0 0.000122256)
(-0.000406606 0 1.18721e-05)
(-0.000392255 0 3.30905e-05)
(-0.000380946 0 -9.21514e-05)
(-0.000346854 0 -0.000114479)
(-0.000299626 0 -0.000145252)
(-0.000290816 0 -0.000154095)
(-0.000289858 0 -0.000175385)
(-0.000287232 0 -0.000238594)
(-0.000286192 0 -0.000294116)
(-0.000276616 0 -0.000312462)
(-0.000245247 0 -0.00033344)
(-0.000179333 0 -0.000367282)
(-0.000152725 0 -0.000361662)
(-0.00014507 0 -0.000338003)
(-8.593e-05 0 -0.000344173)
(-0.000156509 0 -0.000341009)
(-0.000115212 0 -0.000510386)
(-9.90994e-05 0 -0.000611376)
(-9.37875e-05 0 -0.000637892)
(-5.41001e-05 0 -0.000613228)
(-5.3197e-05 0 -0.000486521)
(-6.25131e-05 0 -0.000369161)
(-7.42825e-05 0 -0.000274647)
(-0.000161246 0 -0.000139338)
(-9.66605e-05 0 -4.88853e-05)
(-0.000114641 0 9.01941e-05)
(-0.000103443 0 0.000194623)
(-0.000186651 0 0.000233092)
(-0.000147695 0 0.000277409)
(-0.000163834 0 0.000335141)
(-0.000182718 0 0.000404278)
(-0.000245447 0 0.000492436)
(-0.000231538 0 0.000547008)
(-0.00027399 0 0.000479951)
(-0.000273887 0 0.000374208)
(-0.000324934 0 0.000236589)
(-0.000275662 0 0.000178218)
(-0.000275507 0 6.28999e-05)
(-0.000242486 0 1.25364e-05)
(-0.000216573 0 -3.43631e-05)
(-0.000192062 0 -7.22958e-05)
(-0.00014369 0 -0.000130629)
(-0.000111887 0 -0.000118955)
(-3.25327e-05 0 -0.000160831)
(0.000170715 0 -0.000370882)
(0.000319417 0 -0.000457905)
(0.0003178 0 -0.000442491)
(0.000344563 0 -0.000363395)
(0.000303767 0 -0.000348909)
(0.000372403 0 -0.000177409)
(0.00029335 0 -0.000183796)
(0.00030268 0 -5.798e-05)
(0.000295971 0 4.24231e-05)
(0.000260258 0 7.105e-05)
(0.000209583 0 0.0001109)
(0.000178977 0 0.000111591)
(0.00013375 0 8.7178e-05)
(4.59299e-06 0 9.0413e-05)
(-0.000132087 0 6.59245e-05)
(-0.000122702 0 8.27588e-05)
(-0.000375136 0 0.000132133)
(-0.000614831 0 0.000104346)
(4.56358e-06 0 -0.000163816)
(-7.59399e-13 0 3.24297e-13)
(-2.04578e-12 0 2.387e-14)
(-1.00339e-12 0 -1.46533e-13)
(-9.35651e-13 0 -2.83571e-13)
(-8.47907e-13 0 -3.96274e-13)
(-7.43716e-13 0 -4.87994e-13)
(-6.26086e-13 0 -5.59312e-13)
(-4.98591e-13 0 -6.10571e-13)
(-3.6527e-13 0 -6.42185e-13)
(-2.30338e-13 0 -6.54999e-13)
(-9.78426e-14 0 -6.504e-13)
(2.87906e-14 0 -6.30341e-13)
(1.46831e-13 0 -5.9711e-13)
(2.54096e-13 0 -5.53153e-13)
(3.49131e-13 0 -5.0104e-13)
(4.31278e-13 0 -4.43292e-13)
(5.00358e-13 0 -3.8216e-13)
(5.56451e-13 0 -3.19545e-13)
(5.999e-13 0 -2.57055e-13)
(6.31372e-13 0 -1.96055e-13)
(6.51796e-13 0 -1.37649e-13)
(6.62221e-13 0 -8.2639e-14)
(6.63691e-13 0 -3.15273e-14)
(6.57151e-13 0 1.54364e-14)
(6.4344e-13 0 5.8181e-14)
(6.23353e-13 0 9.67483e-14)
(5.97688e-13 0 1.31252e-13)
(5.67233e-13 0 1.61854e-13)
(5.32745e-13 0 1.88753e-13)
(4.94949e-13 0 2.12175e-13)
(4.54513e-13 0 2.32368e-13)
(4.11982e-13 0 2.496e-13)
(3.67708e-13 0 2.64146e-13)
(3.21857e-13 0 2.76272e-13)
(2.74519e-13 0 2.86206e-13)
(2.25872e-13 0 2.94148e-13)
(1.76259e-13 0 3.00273e-13)
(1.26123e-13 0 3.0474e-13)
(7.58221e-14 0 3.07667e-13)
(2.53313e-14 0 3.09115e-13)
(-2.99357e-05 0 0.000311643)
(6.84167e-06 0 0.000331875)
(-8.7216e-06 0 0.000350281)
(-1.78379e-05 0 0.000341878)
(-4.65287e-05 0 0.000309574)
(-6.5443e-05 0 0.000304521)
(-0.000106716 0 0.000305939)
(-0.000127533 0 0.000320696)
(-0.000148506 0 0.000323063)
(-0.000199422 0 0.000297467)
(-0.000273639 0 0.000262112)
(-0.000281844 0 0.000254071)
(-0.000211198 0 0.000323114)
(-0.00015423 0 0.000367029)
(-0.000130423 0 0.000370155)
(-9.43958e-05 0 0.00036069)
(-0.000128178 0 0.000301544)
(-0.000120834 0 0.000251965)
(-0.000126943 0 0.000208465)
(-0.000102562 0 0.000166219)
(-0.000102551 0 9.68331e-05)
(-0.000119895 0 3.14472e-05)
(-0.000184137 0 -8.27361e-05)
(-0.000205298 0 -0.000174341)
(-0.000204193 0 -0.000251701)
(-0.000199575 0 -0.000311746)
(-0.000164131 0 -0.000353925)
(-0.000127656 0 -0.000368996)
(-0.000125552 0 -0.000360407)
(-0.000174534 0 -0.000331867)
(-0.000167528 0 -0.000312812)
(-0.000162192 0 -0.000302902)
(-0.000140433 0 -0.000367426)
(-9.54859e-05 0 -0.000528997)
(-8.56069e-05 0 -0.000627495)
(-9.16023e-05 0 -0.000656844)
(-6.318e-05 0 -0.000621726)
(-9.36033e-05 0 -0.00048045)
(-0.000164311 0 -0.000327034)
(-0.000205376 0 -0.000208711)
(-0.000223726 0 -8.78066e-05)
(-0.000211332 0 -3.03264e-05)
(-0.000200238 0 0.000105837)
(-0.000185078 0 0.000224463)
(-0.00024721 0 0.000216843)
(-0.000202465 0 0.000291803)
(-0.000261377 0 0.000353169)
(-0.000279599 0 0.000434181)
(-0.000293944 0 0.00051863)
(-0.000318733 0 0.000541571)
(-0.000316017 0 0.000490764)
(-0.000311129 0 0.000359775)
(-0.000327715 0 0.000224389)
(-0.000283243 0 0.00014454)
(-0.000255403 0 7.87479e-05)
(-0.000232984 0 -5.37637e-05)
(-0.000193982 0 -5.17706e-05)
(-0.00014111 0 -0.000131433)
(-0.000112822 0 -0.000124051)
(3.43377e-05 0 -0.000292)
(0.000142866 0 -0.000406303)
(0.000294604 0 -0.000420985)
(0.000369227 0 -0.000475797)
(0.000364407 0 -0.000462766)
(0.000409214 0 -0.000366206)
(0.000337905 0 -0.000364596)
(0.00040452 0 -0.000167765)
(0.00033257 0 -0.000149058)
(0.000293845 0 -2.50368e-05)
(0.000295961 0 5.28654e-05)
(0.000281359 0 0.000101801)
(0.000227534 0 0.000145463)
(0.000163958 0 0.000171549)
(0.000166632 0 0.000132985)
(6.49427e-05 0 0.000133652)
(3.07875e-05 0 0.000175128)
(-2.19704e-05 0 0.000187623)
(-3.02516e-05 0 0.000165965)
(-0.000446319 0 -9.423e-06)
(4.74922e-06 0 -0.000162136)
(-9.14914e-13 0 3.5838e-13)
(-2.30235e-12 0 -4.3444e-14)
(-1.17438e-12 0 -2.26939e-13)
(-1.07021e-12 0 -3.76263e-13)
(-9.58048e-13 0 -5.04249e-13)
(-8.31806e-13 0 -6.10852e-13)
(-6.92193e-13 0 -6.94012e-13)
(-5.42786e-13 0 -7.52775e-13)
(-3.88197e-13 0 -7.87257e-13)
(-2.33267e-13 0 -7.98565e-13)
(-8.26856e-14 0 -7.886e-13)
(5.9614e-14 0 -7.59995e-13)
(1.90642e-13 0 -7.15781e-13)
(3.08082e-13 0 -6.59112e-13)
(4.10454e-13 0 -5.93211e-13)
(4.97277e-13 0 -5.21216e-13)
(5.68733e-13 0 -4.45922e-13)
(6.25288e-13 0 -3.69627e-13)
(6.67603e-13 0 -2.9419e-13)
(6.96626e-13 0 -2.2113e-13)
(7.13585e-13 0 -1.51668e-13)
(7.19859e-13 0 -8.66896e-14)
(7.16799e-13 0 -2.67315e-14)
(7.05591e-13 0 2.79816e-14)
(6.87233e-13 0 7.74482e-14)
(6.62615e-13 0 1.21803e-13)
(6.32595e-13 0 1.61258e-13)
(5.98003e-13 0 1.96073e-13)
(5.59627e-13 0 2.26539e-13)
(5.18212e-13 0 2.52961e-13)
(4.74444e-13 0 2.7566e-13)
(4.28879e-13 0 2.94963e-13)
(3.81866e-13 0 3.11193e-13)
(3.33544e-13 0 3.24661e-13)
(2.83975e-13 0 3.35644e-13)
(2.33305e-13 0 3.44389e-13)
(1.8185e-13 0 3.51115e-13)
(1.30018e-13 0 3.56003e-13)
(7.81143e-14 0 3.59185e-13)
(2.6085e-14 0 3.60734e-13)
(-2.64076e-05 0 0.000310227)
(1.75783e-05 0 0.000332999)
(-2.71642e-05 0 0.000358553)
(4.53871e-06 0 0.000364656)
(-2.96767e-05 0 0.000336877)
(-4.13113e-05 0 0.000331428)
(-2.29425e-05 0 0.000335005)
(-5.64079e-05 0 0.000345535)
(-6.9506e-05 0 0.000359876)
(-0.000105452 0 0.000347529)
(-0.000149258 0 0.000329536)
(-0.000198339 0 0.000304651)
(-0.000234164 0 0.000277301)
(-0.000242579 0 0.000257232)
(-0.000202102 0 0.000260607)
(-0.000184798 0 0.000240958)
(-0.00014777 0 0.000210196)
(-0.000145029 0 0.00012516)
(-0.000147398 0 4.89168e-05)
(-0.000184378 0 -6.98925e-05)
(-0.000175011 0 -0.000147207)
(-0.000156234 0 -0.000167219)
(-0.000128576 0 -0.000184804)
(-7.96032e-05 0 -0.000241547)
(-8.41815e-05 0 -0.00028714)
(-5.51574e-05 0 -0.000334257)
(-6.61101e-05 0 -0.000350716)
(-0.000126165 0 -0.000335322)
(-0.000140206 0 -0.000336767)
(-0.000138547 0 -0.000336041)
(-0.000121928 0 -0.000330161)
(-0.000124639 0 -0.000324672)
(-0.000112297 0 -0.000381766)
(-8.20655e-05 0 -0.000534195)
(-7.21777e-05 0 -0.000629723)
(-0.000110983 0 -0.00064503)
(-0.000111864 0 -0.000573615)
(-0.000197848 0 -0.000442266)
(-0.000192812 0 -0.000310701)
(-0.000239429 0 -0.000197161)
(-0.000245897 0 -0.000109742)
(-0.000257275 0 -5.48594e-05)
(-0.000278427 0 0.000122986)
(-0.000280591 0 0.000213181)
(-0.000333097 0 0.00018583)
(-0.000245346 0 0.000337143)
(-0.00036609 0 0.000349374)
(-0.000323303 0 0.000479229)
(-0.0003311 0 0.000525994)
(-0.000350011 0 0.000523655)
(-0.000314259 0 0.000487318)
(-0.000314072 0 0.000355136)
(-0.000293126 0 0.000237169)
(-0.000255287 0 0.000152236)
(-0.000266701 0 -1.11667e-05)