/*--------------------------------*- C++ -*----------------------------------*\
  =========                 |
  \\      /  F ield         | OpenFOAM: The Open Source CFD Toolbox
   \\    /   O peration     | Website:  https://openfoam.org
    \\  /    A nd           | Version:  6
     \\/     M anipulation  |
\*---------------------------------------------------------------------------*/
FoamFile
{
    version     2.0;
    format      ascii;
    class       surfaceScalarField;
    location    "3450";
    object      phi;
}
// * * * * * * * * * * * * * * * * * * * * * * * * * * * * * * * * * * * * * //

dimensions      [0 3 -1 0 0 0 0];

internalField   nonuniform List<scalar> 
9440
(
-2.50778e-11
2.50778e-11
-3.81013e-10
3.55936e-10
-1.18225e-09
8.01241e-10
-1.64457e-09
4.62319e-10
-2.04471e-09
4.00143e-10
-2.42553e-09
3.80825e-10
-2.60854e-09
1.83002e-10
-2.68824e-09
7.97025e-11
-2.67729e-09
-1.0946e-11
-2.58488e-09
-9.24128e-11
-2.30405e-09
-2.80826e-10
-2.25751e-09
-4.65357e-11
-1.95918e-09
-2.98333e-10
-1.62379e-09
-3.35384e-10
-1.42994e-09
-1.9385e-10
-9.38133e-10
-4.91806e-10
-5.00153e-10
-4.37979e-10
-2.59414e-10
-2.40738e-10
-1.23131e-11
-2.471e-10
3.61023e-10
-3.73335e-10
7.91232e-10
-4.30208e-10
1.47005e-09
-6.78813e-10
1.82869e-09
-3.58646e-10
2.26236e-09
-4.33664e-10
2.68561e-09
-4.23247e-10
2.91765e-09
-2.32044e-10
3.43601e-09
-5.18353e-10
3.52351e-09
-8.7498e-11
3.70234e-09
-1.78831e-10
3.9022e-09
-1.99865e-10
4.01245e-09
-1.10246e-10
4.03421e-09
-2.17599e-11
4.04188e-09
-7.66711e-12
4.05229e-09
-1.04059e-11
4.04761e-09
4.67595e-12
4.04274e-09
4.87528e-12
4.04509e-09
-2.34642e-12
4.0634e-09
-1.83169e-11
4.08666e-09
-2.32576e-11
4.1269e-09
-4.0232e-11
4.14652e-09
-1.9626e-11
4.13621e-09
1.03166e-11
4.09956e-09
3.66419e-11
4.01945e-09
8.01127e-11
3.91518e-09
1.04276e-10
3.74159e-09
1.73585e-10
3.54157e-09
2.00025e-10
3.39424e-09
1.4733e-10
3.30855e-09
8.56889e-11
3.2788e-09
2.97503e-11
3.28733e-09
-8.53245e-12
3.31788e-09
-3.05451e-11
3.36185e-09
-4.3966e-11
3.4204e-09
-5.85561e-11
3.51022e-09
-8.98223e-11
3.60669e-09
-9.64699e-11
3.66086e-09
-5.4164e-11
3.68226e-09
-2.14e-11
3.76002e-09
-7.77621e-11
3.80733e-09
-4.73114e-11
3.82801e-09
-2.06832e-11
3.83101e-09
-3.00059e-12
3.77475e-09
5.62632e-11
3.65661e-09
1.18139e-10
3.52078e-09
1.35827e-10
3.27757e-09
2.43212e-10
2.82798e-09
4.49589e-10
2.14395e-09
6.84028e-10
1.41318e-09
7.30771e-10
1.0999e-09
3.13284e-10
9.19695e-10
1.80201e-10
7.52636e-10
1.67058e-10
6.08468e-10
1.44167e-10
5.15649e-10
9.28182e-11
4.83185e-10
3.24636e-11
4.65594e-10
1.75904e-11
4.64833e-10
7.60493e-13
5.36564e-10
-7.17316e-11
4.61542e-10
7.50224e-11
2.0289e-10
2.58651e-10
6.2046e-16
2.02889e-10
-4.02881e-18
-9.3533e-20
-3.87334e-18
-1.55471e-19
-3.74358e-18
-1.29866e-19
-3.59535e-18
-1.47999e-19
-3.41648e-18
-1.78381e-19
-3.2041e-18
-2.11674e-19
-2.95855e-18
-2.44645e-19
-2.68232e-18
-2.75162e-19
-2.37916e-18
-3.01931e-19
-2.05365e-18
-3.24167e-19
-1.71108e-18
-3.41122e-19
-1.35731e-18
-3.52228e-19
-9.98557e-19
-3.57135e-19
-6.41155e-19
-3.55727e-19
-2.91338e-19
-3.4811e-19
4.49686e-20
-3.34593e-19
3.62326e-19
-3.15662e-19
6.5593e-19
-2.91942e-19
9.21713e-19
-2.64161e-19
1.15641e-18
-2.33111e-19
1.35758e-18
-1.99614e-19
1.52359e-18
-1.64485e-19
1.65359e-18
-1.28506e-19
1.74747e-18
-9.23976e-20
1.80573e-18
-5.68062e-20
1.82946e-18
-2.22895e-20
1.82018e-18
1.06861e-20
1.77983e-18
4.17458e-20
1.71061e-18
7.06004e-20
1.61495e-18
9.70387e-20
1.4954e-18
1.20916e-19
1.35463e-18
1.42144e-19
1.19533e-18
1.60679e-19
1.02022e-18
1.76509e-19
8.31972e-19
1.89647e-19
6.33263e-19
2.00121e-19
4.2671e-19
2.07975e-19
2.14848e-19
2.1329e-19
2.16279e-19
-6.38727e-10
6.63806e-10
-1.04966e-09
7.66875e-10
-1.13954e-09
8.91123e-10
-1.66157e-09
9.84346e-10
-2.16218e-09
9.00762e-10
-2.39459e-09
6.13233e-10
-2.56679e-09
3.55202e-10
-2.7142e-09
2.27113e-10
-2.73395e-09
8.80931e-12
-2.56214e-09
-2.64221e-10
-2.42904e-09
-4.13927e-10
-2.14517e-09
-3.30402e-10
-1.93323e-09
-5.10266e-10
-1.7526e-09
-5.16016e-10
-1.45524e-09
-4.91206e-10
-1.22863e-09
-7.18418e-10
-1.0474e-09
-6.19207e-10
-7.39212e-10
-5.48919e-10
-3.77545e-10
-6.08764e-10
3.17683e-11
-7.82646e-10
4.85433e-10
-8.8387e-10
1.19493e-09
-1.38831e-09
1.61788e-09
-7.81601e-10
2.1384e-09
-9.54176e-10
2.46689e-09
-7.51736e-10
2.93452e-09
-6.99672e-10
3.14247e-09
-7.26299e-10
3.37354e-09
-3.18566e-10
3.45727e-09
-2.62566e-10
3.62094e-09
-3.63531e-10
3.69061e-09
-1.79908e-10
3.72147e-09
-5.2623e-11
3.7204e-09
-6.58989e-12
3.70249e-09
7.4984e-12
3.70234e-09
4.82795e-12
3.72424e-09
-1.70227e-11
3.77678e-09
-5.48859e-11
3.81823e-09
-5.97623e-11
3.83044e-09
-3.54657e-11
3.8556e-09
-6.53887e-11
3.93518e-09
-9.92011e-11
3.98777e-09
-4.22725e-11
3.98716e-09
3.72484e-11
3.92883e-09
1.38449e-10
3.85539e-09
1.77717e-10
3.78112e-09
2.47849e-10
3.71832e-09
2.62828e-10
3.70889e-09
1.56757e-10
3.68451e-09
1.10071e-10
3.64121e-09
7.30472e-11
3.63284e-09
-1.61822e-13
3.63157e-09
-2.92694e-11
3.6463e-09
-5.87022e-11
3.67564e-09
-8.78956e-11
3.74525e-09
-1.59426e-10
3.78079e-09
-1.32008e-10
3.81443e-09
-8.78061e-11
3.85582e-09
-6.27935e-11
3.92087e-09
-1.42809e-10
3.93727e-09
-6.37126e-11
3.92234e-09
-5.76226e-12
3.87318e-09
4.61615e-11
3.83487e-09
9.45724e-11
3.66557e-09
2.87442e-10
3.31725e-09
4.84145e-10
3.17449e-09
3.85965e-10
3.12148e-09
5.02597e-10
2.87621e-09
9.29297e-10
2.56773e-09
1.03925e-09
1.92518e-09
9.55835e-10
1.27644e-09
8.28943e-10
9.21692e-10
5.21804e-10
6.69613e-10
3.96245e-10
6.01117e-10
1.61313e-10
4.88334e-10
1.45246e-10
4.7218e-10
3.37433e-11
4.2735e-10
4.55894e-11
2.54783e-10
1.00834e-10
1.95306e-10
1.34499e-10
2.20379e-10
2.33577e-10
2.66238e-16
4.23269e-10
-3.85348e-18
4.06195e-19
-3.85453e-18
-1.54005e-19
-3.76679e-18
-2.17195e-19
-3.62918e-18
-2.84805e-19
-3.4517e-18
-3.54669e-19
-3.23755e-18
-4.24262e-19
-2.98904e-18
-4.91282e-19
-2.70909e-18
-5.5297e-19
-2.4014e-18
-6.07255e-19
-2.07061e-18
-6.52413e-19
-1.72218e-18
-6.86834e-19
-1.36222e-18
-7.09349e-19
-9.97149e-19
-7.19256e-19
-6.33537e-19
-7.16329e-19
-2.77821e-19
-7.00797e-19
6.38997e-20
-6.73301e-19
3.86046e-19
-6.34838e-19
6.83711e-19
-5.86692e-19
9.52762e-19
-5.30355e-19
1.18991e-18
-4.67451e-19
1.3927e-18
-3.99658e-19
1.55957e-18
-3.2864e-19
1.6897e-18
-2.55981e-19
1.78306e-18
-1.83142e-19
1.84025e-18
-1.11422e-19
1.86243e-18
-4.19395e-20
1.85124e-18
2.43749e-20
1.80868e-18
8.67771e-20
1.73705e-18
1.44697e-19
1.63882e-18
1.97721e-19
1.51663e-18
2.45571e-19
1.37317e-18
2.8808e-19
1.21116e-18
3.25169e-19
1.03335e-18
3.56825e-19
8.42445e-19
3.83079e-19
6.41118e-19
4.03986e-19
4.32025e-19
4.19617e-19
2.17838e-19
4.30032e-19
4.35239e-19
-5.31108e-10
1.19492e-09
-9.5958e-10
1.19535e-09
-1.21232e-09
1.14387e-09
-1.60249e-09
1.37451e-09
-1.97541e-09
1.27369e-09
-2.14699e-09
7.84812e-10
-2.35392e-09
5.62135e-10
-2.5219e-09
3.95092e-10
-2.52153e-09
8.44498e-12
-2.4806e-09
-3.05149e-10
-2.53026e-09
-3.64259e-10
-2.17528e-09
-6.85385e-10
-1.95754e-09
-7.28009e-10
-1.66455e-09
-8.09002e-10
-1.30098e-09
-8.5477e-10
-1.20602e-09
-8.13376e-10
-9.88962e-10
-8.36266e-10
-7.42913e-10
-7.94967e-10
-3.68176e-10
-9.83499e-10
6.83031e-11
-1.21912e-09
5.04372e-10
-1.31994e-09
9.90202e-10
-1.87413e-09
1.5464e-09
-1.3378e-09
1.97378e-09
-1.38155e-09
2.30256e-09
-1.08051e-09
2.80987e-09
-1.20698e-09
2.83107e-09
-7.47498e-10
3.12456e-09
-6.1206e-10
3.3034e-09
-4.41404e-10
3.41443e-09
-4.74557e-10
3.3873e-09
-1.5277e-10
3.41243e-09
-7.77599e-11
3.42631e-09
-2.0467e-11
3.40712e-09
2.66943e-11
3.38037e-09
3.15816e-11
3.36323e-09
1.11217e-13
3.35603e-09
-4.76835e-11
3.3638e-09
-6.75287e-11
3.4195e-09
-9.11624e-11
3.50313e-09
-1.49019e-10
3.58481e-09
-1.80879e-10
3.6527e-09
-1.10158e-10
3.71293e-09
-2.29867e-11
3.74256e-09
1.08817e-10
3.68731e-09
2.32973e-10
3.61815e-09
3.17006e-10
3.55099e-09
3.29992e-10
3.54029e-09
1.67459e-10
3.55149e-09
9.88676e-11
3.55383e-09
7.07123e-11
3.56313e-09
-9.45925e-12
3.57729e-09
-4.34319e-11
3.6079e-09
-8.93178e-11
3.63902e-09
-1.19015e-10
3.65695e-09
-1.77348e-10
3.71542e-09
-1.90479e-10
3.77709e-09
-1.49485e-10
3.84506e-09
-1.30761e-10
3.9033e-09
-2.01051e-10
3.92609e-09
-8.64967e-11
3.8973e-09
2.30276e-11
3.82654e-09
1.16921e-10
3.73789e-09
1.83216e-10
3.66335e-09
3.6198e-10
3.47094e-09
6.76553e-10
3.26511e-09
5.91798e-10
3.13522e-09
6.32488e-10
2.81042e-09
1.25409e-09
2.39619e-09
1.45348e-09
1.79702e-09
1.555e-09
1.22614e-09
1.39983e-09
9.19217e-10
8.28723e-10
7.5668e-10
5.5878e-10
6.81058e-10
2.36934e-10
5.97753e-10
2.2855e-10
5.47334e-10
8.41617e-11
4.78912e-10
1.1401e-10
4.01851e-10
1.77894e-10
3.65758e-10
1.70591e-10
2.39708e-10
3.59626e-10
3.29467e-16
6.62975e-10
-3.92312e-18
7.71157e-19
-3.91684e-18
-1.60114e-19
-3.83354e-18
-3.00355e-19
-3.69822e-18
-4.19651e-19
-3.52049e-18
-5.31578e-19
-3.3038e-18
-6.39814e-19
-3.05043e-18
-7.43217e-19
-2.76337e-18
-8.38365e-19
-2.44656e-18
-9.22194e-19
-2.10503e-18
-9.91883e-19
-1.7447e-18
-1.04494e-18
-1.37213e-18
-1.07955e-18
-9.94222e-19
-1.09467e-18
-6.18005e-19
-1.08997e-18
-2.50325e-19
-1.06585e-18
1.02362e-19
-1.02334e-18
4.34192e-19
-9.64027e-19
7.40048e-19
-8.89933e-19
1.01567e-18
-8.03398e-19
1.2577e-18
-7.06954e-19
1.46372e-18
-6.03206e-19
1.63222e-18
-4.94721e-19
1.76254e-18
-3.83933e-19
1.85478e-18
-2.73073e-19
1.90973e-18
-1.64113e-19
1.92875e-18
-5.87401e-20
1.91364e-18
4.16536e-20
1.8666e-18
1.35965e-19
1.79007e-18
2.23362e-19
1.68667e-18
3.03248e-19
1.55914e-18
3.75235e-19
1.41026e-18
4.39101e-19
1.24282e-18
4.94756e-19
1.05961e-18
5.42205e-19
8.63353e-19
5.81515e-19
6.56748e-19
6.12786e-19
4.4244e-19
6.36128e-19
2.23044e-19
6.51635e-19
6.59364e-19
-5.50817e-10
1.74573e-09
-1.07429e-09
1.71882e-09
-1.31125e-09
1.38083e-09
-1.48322e-09
1.54649e-09
-1.79112e-09
1.58158e-09
-2.02328e-09
1.01698e-09
-2.16781e-09
7.06666e-10
-2.21908e-09
4.4637e-10
-2.2472e-09
3.65683e-11
-2.1841e-09
-3.68251e-10
-2.14578e-09
-4.02574e-10
-2.05067e-09
-7.80493e-10
-1.93514e-09
-8.43535e-10
-1.66311e-09
-1.08104e-09
-1.44063e-09
-1.07725e-09
-1.13082e-09
-1.12318e-09
-8.32508e-10
-1.13458e-09
-4.13631e-10
-1.21384e-09
1.65613e-11
-1.41369e-09
3.19008e-10
-1.52157e-09
7.58037e-10
-1.75896e-09
9.54544e-10
-2.07064e-09
1.45139e-09
-1.83464e-09
1.81972e-09
-1.74987e-09
1.99236e-09
-1.25315e-09
2.12085e-09
-1.33547e-09
2.35662e-09
-9.83267e-10
2.52701e-09
-7.82449e-10
2.72452e-09
-6.38911e-10
2.96889e-09
-7.18929e-10
3.02103e-09
-2.04907e-10
3.05659e-09
-1.13322e-10
3.08102e-09
-4.48957e-11
3.0191e-09
8.86238e-11
3.0133e-09
3.73828e-11
3.04437e-09
-3.09592e-11
3.08069e-09
-8.40037e-11
3.13487e-09
-1.21709e-10
3.23497e-09
-1.91259e-10
3.29755e-09
-2.11602e-10
3.26824e-09
-1.51569e-10
3.2522e-09
-9.41125e-11
3.26017e-09
-3.09516e-11
3.25637e-09
1.12612e-10
3.27642e-09
2.1293e-10
3.32534e-09
2.68085e-10
3.36031e-09
2.95016e-10
3.34312e-09
1.84654e-10
3.35354e-09
8.84507e-11
3.37415e-09
5.00952e-11
3.38258e-09
-1.78881e-11
3.40347e-09
-6.4315e-11
3.4261e-09
-1.11953e-10
3.46775e-09
-1.60663e-10
3.53127e-09
-2.40868e-10
3.59767e-09
-2.56881e-10
3.65317e-09
-2.0499e-10
3.72278e-09
-2.00363e-10
3.82002e-09
-2.98293e-10
3.86392e-09
-1.30405e-10
3.87336e-09
1.35856e-11
3.83839e-09
1.5189e-10
3.71165e-09
3.0996e-10
3.59787e-09
4.75762e-10
3.44408e-09
8.30335e-10
3.14017e-09
8.95706e-10
2.9343e-09
8.3836e-10
2.72067e-09
1.46772e-09
2.32536e-09
1.84879e-09
1.87091e-09
2.00945e-09
1.39383e-09
1.8769e-09
9.61288e-10
1.26127e-09
7.22388e-10
7.97679e-10
6.66492e-10
2.92828e-10
6.72746e-10
2.22295e-10
5.90105e-10
1.66802e-10
5.07129e-10
1.96984e-10
4.48302e-10
2.36721e-10
4.12201e-10
2.06692e-10
2.50843e-10
5.20982e-10
4.7334e-16
9.13817e-10
-4.10677e-18
1.12887e-18
-4.05619e-18
-2.1064e-19
-3.95199e-18
-4.04706e-19
-3.80933e-18
-5.6212e-19
-3.62794e-18
-7.12429e-19
-3.40644e-18
-8.60458e-19
-3.14534e-18
-1.00319e-18
-2.8472e-18
-1.13511e-18
-2.51625e-18
-1.25153e-18
-2.15808e-18
-1.34823e-18
-1.77931e-18
-1.42169e-18
-1.38724e-18
-1.46944e-18
-9.89524e-19
-1.49004e-18
-5.93884e-19
-1.48314e-18
-2.07816e-19
-1.44935e-18
1.61674e-19
-1.39021e-18
5.08286e-19
-1.30798e-18
8.26583e-19
-1.20557e-18
1.11211e-18
-1.08629e-18
1.36145e-18
-9.53698e-19
1.57221e-18
-8.11435e-19
1.74301e-18
-6.63062e-19
1.8734e-18
-5.11933e-19
1.96374e-18
-3.61096e-19
2.0151e-18
-2.13225e-19
2.02914e-18
-7.0584e-20
2.00796e-18
6.49817e-20
1.954e-18
1.9203e-19
1.86996e-18
3.09492e-19
1.75866e-18
4.16626e-19
1.62301e-18
5.12969e-19
1.46591e-18
5.98281e-19
1.29027e-18
6.72497e-19
1.09892e-18
7.3567e-19
8.94624e-19
7.87934e-19
6.8009e-19
8.29459e-19
4.57948e-19
8.60418e-19
2.30773e-19
8.80962e-19
8.91198e-19
-3.83958e-10
2.12969e-09
-7.5975e-10
2.09462e-09
-1.29805e-09
1.91913e-09
-1.49735e-09
1.7458e-09
-1.54747e-09
1.6317e-09
-1.70497e-09
1.17448e-09
-1.91905e-09
9.20747e-10
-1.9321e-09
4.59414e-10
-2.02461e-09
1.29084e-10
-1.89945e-09
-4.93405e-10
-1.79796e-09
-5.04066e-10
-1.76512e-09
-8.13336e-10
-1.72933e-09
-8.7932e-10
-1.54883e-09
-1.26153e-09
-1.31552e-09
-1.31056e-09
-9.68591e-10
-1.47011e-09
-6.44355e-10
-1.45881e-09
-2.52235e-10
-1.60596e-09
8.70654e-12
-1.67463e-09
2.27085e-10
-1.73995e-09
4.83195e-10
-2.01507e-09
6.81724e-10
-2.26917e-09
1.01948e-09
-2.1724e-09
1.2844e-09
-2.01479e-09
1.63149e-09
-1.60024e-09
1.64698e-09
-1.35096e-09
1.72336e-09
-1.05965e-09
1.89343e-09
-9.52519e-10
2.05255e-09
-7.98026e-10
2.15598e-09
-8.22353e-10
2.30124e-09
-3.50168e-10
2.43491e-09
-2.46993e-10
2.5272e-09
-1.37181e-10
2.59753e-09
1.82942e-11
2.64323e-09
-8.32222e-12
2.69129e-09
-7.90129e-11
2.73551e-09
-1.28221e-10
2.77063e-09
-1.5683e-10
2.7862e-09
-2.06824e-10
2.78992e-09
-2.15325e-10
2.79136e-09
-1.53007e-10
2.81984e-09
-1.22592e-10
2.83034e-09
-4.14547e-11
2.78887e-09
1.5409e-10
2.78502e-09
2.16777e-10
2.83353e-09
2.19579e-10
2.95551e-09
1.7303e-10
3.0401e-09
1.00065e-10
3.04139e-09
8.71652e-11
3.02866e-09
6.28216e-11
3.05889e-09
-4.81111e-11
3.12797e-09
-1.33404e-10
3.2482e-09
-2.32179e-10
3.41006e-09
-3.22518e-10
3.54391e-09
-3.74722e-10
3.5828e-09
-2.95769e-10
3.55749e-09
-1.7968e-10
3.61377e-09
-2.56648e-10
3.68084e-09
-3.65366e-10
3.70942e-09
-1.58986e-10
3.67891e-09
4.40947e-11
3.70515e-09
1.25655e-10
3.65593e-09
3.5917e-10
3.51808e-09
6.13612e-10
3.35512e-09
9.93301e-10
3.17767e-09
1.07315e-09
2.87882e-09
1.13721e-09
2.58372e-09
1.76282e-09
2.29745e-09
2.13506e-09
1.99381e-09
2.31308e-09
1.69987e-09
2.17085e-09
1.1571e-09
1.80403e-09
9.36283e-10
1.0185e-09
7.50173e-10
4.78937e-10
6.69999e-10
3.02468e-10
5.84475e-10
2.52324e-10
5.13823e-10
2.67634e-10
4.29348e-10
3.21194e-10
3.04032e-10
3.32006e-10
2.32116e-10
5.92898e-10
6.2444e-16
1.14593e-09
-4.4275e-18
1.24886e-18
-4.24937e-18
-3.88844e-19
-4.10856e-18
-5.46e-19
-3.95884e-18
-7.11994e-19
-3.7752e-18
-8.95856e-19
-3.54844e-18
-1.0867e-18
-3.27707e-18
-1.27374e-18
-2.96362e-18
-1.44749e-18
-2.61294e-18
-1.6009e-18
-2.23154e-18
-1.72809e-18
-1.82706e-18
-1.82442e-18
-1.40785e-18
-1.88668e-18
-9.8262e-19
-1.91311e-18
-5.60097e-19
-1.90333e-18
-1.48669e-19
-1.85831e-18
2.43897e-19
-1.78018e-18
6.10695e-19
-1.67211e-18
9.45865e-19
-1.53803e-18
1.2447e-18
-1.38241e-18
1.50371e-18
-1.21001e-18
1.72058e-18
-1.02567e-18
1.89414e-18
-8.34071e-19
2.02424e-18
-6.39571e-19
2.11161e-18
-4.46105e-19
2.15775e-18
-2.57078e-19
2.16471e-18
-7.534e-20
2.135e-18
9.68259e-20
2.07146e-18
2.5767e-19
1.97709e-18
4.05932e-19
1.855e-18
5.40772e-19
1.70832e-18
6.61705e-19
1.54013e-18
7.68529e-19
1.35344e-18
8.61247e-19
1.15118e-18
9.40012e-19
9.36149e-19
1.00506e-18
7.11049e-19
1.05666e-18
4.78492e-19
1.09509e-18
2.41008e-19
1.12056e-18
1.13325e-18
-4.21457e-10
2.55115e-09
-7.54398e-10
2.42756e-09
-8.96693e-10
2.06142e-09
-1.02146e-09
1.87056e-09
-1.41467e-09
2.02491e-09
-1.61598e-09
1.37579e-09
-1.55925e-09
8.64021e-10
-1.62969e-09
5.29853e-10
-1.71457e-09
2.13966e-10
-1.65682e-09
-5.51155e-10
-1.54967e-09
-6.11207e-10
-1.77319e-09
-5.89814e-10
-1.54975e-09
-1.10276e-09
-1.49983e-09
-1.31146e-09
-1.27504e-09
-1.53534e-09
-9.75056e-10
-1.77009e-09
-5.69341e-10
-1.86452e-09
-2.36756e-10
-1.93854e-09
-2.2162e-11
-1.88922e-09
1.94883e-10
-1.95699e-09
3.80891e-10
-2.20108e-09
5.09133e-10
-2.39741e-09
6.82989e-10
-2.34625e-09
8.74395e-10
-2.2062e-09
1.06021e-09
-1.78605e-09
1.08784e-09
-1.37859e-09
1.19859e-09
-1.1704e-09
1.27276e-09
-1.02669e-09
1.37413e-09
-8.99396e-10
1.35752e-09
-8.05735e-10
1.54626e-09
-5.38911e-10
1.71412e-09
-4.14851e-10
1.86066e-09
-2.83719e-10
2.02214e-09
-1.43188e-10
2.13768e-09
-1.23858e-10
2.22935e-09
-1.70676e-10
2.26359e-09
-1.62465e-10
2.2702e-09
-1.63438e-10
2.24044e-09
-1.77062e-10
2.20056e-09
-1.75449e-10
2.20397e-09
-1.56408e-10
2.18538e-09
-1.04003e-10
2.19313e-09
-4.92097e-11
2.28507e-09
6.21521e-11
2.37323e-09
1.28616e-10
2.40903e-09
1.83786e-10
2.48898e-09
9.30766e-11
2.59127e-09
-2.22254e-12
2.71457e-09
-3.61359e-11
2.85003e-09
-7.26375e-11
2.96006e-09
-1.58144e-10
3.02199e-09
-1.95328e-10
3.10493e-09
-3.15123e-10
3.19011e-09
-4.07695e-10
3.28259e-09
-4.67204e-10
3.39546e-09
-4.08638e-10
3.29686e-09
-8.10877e-11
3.40294e-09
-3.62727e-10
3.52867e-09
-4.91094e-10
3.66588e-09
-2.96194e-10
3.63231e-09
7.76557e-11
3.59611e-09
1.61855e-10
3.53182e-09
4.23464e-10
3.36948e-09
7.75951e-10
3.24438e-09
1.11839e-09
3.08939e-09
1.22814e-09
2.74763e-09
1.47897e-09
2.57302e-09
1.93744e-09
2.49143e-09
2.21665e-09
2.24662e-09
2.5579e-09
1.76272e-09
2.65474e-09
1.24171e-09
2.32503e-09
9.50109e-10
1.3101e-09
7.08583e-10
7.20461e-10
6.72221e-10
3.38828e-10
6.66385e-10
2.58158e-10
6.24136e-10
3.09882e-10
5.23219e-10
4.22109e-10
3.26917e-10
5.28305e-10
2.08106e-10
7.11707e-10
7.48029e-16
1.35403e-09
-4.75442e-18
-1.05811e-19
-4.40565e-18
-7.37844e-19
-4.27372e-18
-6.78751e-19
-4.14191e-18
-8.44318e-19
-3.96529e-18
-1.07263e-18
-3.73478e-18
-1.31704e-18
-3.45067e-18
-1.5574e-18
-3.11704e-18
-1.7804e-18
-2.74013e-18
-1.97684e-18
-2.32787e-18
-2.13914e-18
-1.88932e-18
-2.26152e-18
-1.43427e-18
-2.34005e-18
-9.72842e-19
-2.37262e-18
-5.15073e-19
-2.35897e-18
-7.05447e-20
-2.30051e-18
3.51968e-19
-2.20021e-18
7.44778e-19
-2.06229e-18
1.10149e-18
-1.89201e-18
1.4171e-18
-1.69524e-18
1.68805e-18
-1.47819e-18
1.91218e-18
-1.24708e-18
2.08864e-18
-1.00788e-18
2.21771e-18
-7.66093e-19
2.30064e-18
-5.26608e-19
2.33948e-18
-2.93601e-19
2.33687e-18
-7.05006e-20
2.29585e-18
1.39997e-19
2.21972e-18
3.35886e-19
2.11193e-18
5.15775e-19
1.97594e-18
6.78798e-19
1.81514e-18
8.24522e-19
1.63285e-18
9.52847e-19
1.43221e-18
1.06392e-18
1.21623e-18
1.15803e-18
9.87752e-19
1.23559e-18
7.49474e-19
1.29701e-18
5.03965e-19
1.34267e-18
2.53694e-19
1.37291e-18
1.38796e-18
-5.14046e-11
2.60256e-09
-1.93728e-10
2.56988e-09
-8.74673e-10
2.74237e-09
-1.35293e-09
2.34883e-09
-1.00206e-09
1.67405e-09
-1.20168e-09
1.57542e-09
-1.2271e-09
8.89443e-10
-1.29354e-09
5.96291e-10
-1.29341e-09
2.13833e-10
-1.47576e-09
-3.68804e-10
-1.45613e-09
-6.30835e-10
-1.51415e-09
-5.31785e-10
-1.32294e-09
-1.29397e-09
-1.32198e-09
-1.31241e-09
-1.1045e-09
-1.75283e-09
-8.58945e-10
-2.01564e-09
-4.81875e-10
-2.24159e-09
-2.15531e-10
-2.20488e-09
6.19421e-11
-2.16669e-09
1.95091e-10
-2.09014e-09
2.5815e-10
-2.26414e-09
3.84557e-10
-2.52381e-09
5.58753e-10
-2.52044e-09
6.61779e-10
-2.30922e-09
8.48843e-10
-1.97311e-09
8.67461e-10
-1.39721e-09
6.99049e-10
-1.00198e-09
6.32184e-10
-9.59825e-10
7.20006e-10
-9.87217e-10
7.67217e-10
-8.52944e-10
9.05059e-10
-6.76753e-10
1.06741e-09
-5.77204e-10
1.25615e-09
-4.72455e-10
1.44072e-09
-3.27761e-10
1.59748e-09
-2.80607e-10
1.70282e-09
-2.76019e-10
1.7512e-09
-2.10844e-10
1.74065e-09
-1.52892e-10
1.72948e-09
-1.65889e-10
1.75038e-09
-1.9635e-10
1.80665e-09
-2.12677e-10
1.83329e-09
-1.30635e-10
1.87284e-09
-8.87662e-11
1.94623e-09
-1.12371e-11
2.06897e-09
5.87866e-12
2.22521e-09
2.75435e-11
2.40564e-09
-8.73528e-11
2.55631e-09
-1.52891e-10
2.68259e-09
-1.6241e-10
2.74554e-09
-1.35589e-10
2.81066e-09
-2.23261e-10
2.82285e-09
-2.07519e-10
2.84407e-09
-3.36345e-10
2.86741e-09
-4.31038e-10
2.90449e-09
-5.04286e-10
2.99167e-09
-4.95812e-10
3.13319e-09
-2.22611e-10
3.24099e-09
-4.70528e-10
3.28462e-09
-5.34731e-10
3.40793e-09
-4.19497e-10
3.48829e-09
-2.71283e-12
3.34543e-09
3.04719e-10
3.21096e-09
5.57929e-10
3.1512e-09
8.35709e-10
3.10339e-09
1.1662e-09
2.88094e-09
1.45058e-09
2.59974e-09
1.76016e-09
2.46502e-09
2.07216e-09
2.34631e-09
2.33535e-09
2.20317e-09
2.70103e-09
2.08495e-09
2.77296e-09
1.91446e-09
2.49552e-09
1.05122e-09
2.17334e-09
9.7151e-10
8.00165e-10
9.80421e-10
3.29915e-10
8.6007e-10
3.78507e-10
6.57121e-10
5.12828e-10
4.5999e-10
6.19238e-10
2.6729e-10
7.21003e-10
1.79113e-10
7.99881e-10
8.38956e-16
1.53314e-09
-3.7594e-18
2.97041e-18
-4.3457e-18
-1.51957e-19
-4.43845e-18
-5.87104e-19
-4.36943e-18
-9.14165e-19
-4.20897e-18
-1.23356e-18
-3.97446e-18
-1.55171e-18
-3.67359e-18
-1.85813e-18
-3.31348e-18
-2.14013e-18
-2.90244e-18
-2.38725e-18
-2.45025e-18
-2.59044e-18
-1.96785e-18
-2.74281e-18
-1.46685e-18
-2.83967e-18
-9.59189e-19
-2.87866e-18
-4.56614e-19
-2.85969e-18
2.97627e-20
-2.7848e-18
4.89879e-19
-2.65802e-18
9.15062e-19
-2.48498e-18
1.29826e-18
-2.27254e-18
1.63415e-18
-2.02836e-18
1.91916e-18
-1.76038e-18
2.15138e-18
-1.47649e-18
2.33043e-18
-1.18418e-18
2.45719e-18
-8.90228e-19
2.53365e-18
-6.00562e-19
2.56258e-18
-3.20163e-19
2.54737e-18
-5.30276e-20
2.49174e-18
1.97789e-19
2.39961e-18
4.30097e-19
2.27496e-18
6.42465e-19
2.12166e-18
8.34097e-19
1.94347e-18
1.0047e-18
1.74391e-18
1.15438e-18
1.52633e-18
1.28349e-18
1.29379e-18
1.39257e-18
1.04917e-18
1.48222e-18
7.95137e-19
1.55305e-18
5.34205e-19
1.60563e-18
2.68743e-19
1.6404e-18
1.65769e-18
-5.58117e-10
3.16068e-09
-9.45513e-10
2.95728e-09
-7.37454e-10
2.53431e-09
-7.88519e-10
2.39989e-09
-1.11045e-09
1.99598e-09
-1.17711e-09
1.64208e-09
-1.1147e-09
8.27033e-10
-1.0501e-09
5.31695e-10
-1.03121e-09
1.94941e-10
-1.23763e-09
-1.62381e-10
-1.32216e-09
-5.46307e-10
-1.2249e-09
-6.29037e-10
-1.2669e-09
-1.25197e-09
-1.17724e-09
-1.40207e-09
-9.57302e-10
-1.97276e-09
-6.31807e-10
-2.34114e-09
-3.50773e-10
-2.52263e-09
-1.3815e-10
-2.41751e-09
5.11937e-11
-2.35604e-09
1.42276e-10
-2.18122e-09
1.74075e-10
-2.29593e-09
2.20999e-10
-2.57073e-09
3.09731e-10
-2.60918e-09
3.23618e-10
-2.32311e-09
2.46735e-10
-1.89622e-09
3.59394e-10
-1.50987e-09
4.71426e-10
-1.11401e-09
3.3453e-10
-8.22927e-10
2.42473e-10
-8.95159e-10
3.46236e-10
-9.56706e-10
5.75024e-10
-9.05539e-10
7.64807e-10
-7.66985e-10
9.31509e-10
-6.39155e-10
1.08659e-09
-4.82839e-10
1.25663e-09
-4.5065e-10
1.38043e-09
-3.99814e-10
1.4711e-09
-3.01509e-10
1.52821e-09
-2.10001e-10
1.59023e-09
-2.27914e-10
1.67123e-09
-2.77345e-10
1.73653e-09
-2.77979e-10
1.83181e-09
-2.25915e-10
1.91059e-09
-1.67545e-10
2.00829e-09
-1.08934e-10
2.12126e-09
-1.07096e-10
2.28098e-09
-1.32174e-10
2.44983e-09
-2.56201e-10
2.55617e-09
-2.59226e-10
2.53371e-09
-1.39952e-10
2.44551e-09
-4.73863e-11
2.36894e-09
-1.46697e-10
2.38252e-09
-2.211e-10
2.45124e-09
-4.05062e-10
2.5157e-09
-4.95502e-10
2.58754e-09
-5.76123e-10
2.64326e-09
-5.51537e-10
2.95938e-09
-5.38734e-10
3.05809e-09
-5.69234e-10
3.01932e-09
-4.9597e-10
3.00088e-09
-4.01056e-10
3.05495e-09
-5.67817e-11
3.00817e-09
3.51494e-10
2.9762e-09
5.89901e-10
2.96545e-09
8.46451e-10
2.85898e-09
1.27267e-09
2.64665e-09
1.66292e-09
2.47623e-09
1.93058e-09
2.37945e-09
2.16894e-09
2.25926e-09
2.45553e-09
2.14806e-09
2.81224e-09
2.07274e-09
2.84827e-09
1.87067e-09
2.69759e-09
1.67484e-09
2.36917e-09
1.37055e-09
1.10445e-09
9.42821e-10
7.57645e-10
6.0816e-10
7.13165e-10
4.58188e-10
6.62798e-10
4.27595e-10
6.49828e-10
3.53361e-10
7.95234e-10
2.19164e-10
9.34076e-10
8.72308e-16
1.7523e-09
-4.90063e-18
2.15834e-18
-4.77992e-18
-2.73246e-19
-4.76467e-18
-6.03685e-19
-4.68805e-18
-9.91828e-19
-4.5264e-18
-1.39592e-18
-4.28027e-18
-1.79823e-18
-3.95558e-18
-2.18294e-18
-3.5606e-18
-2.53499e-18
-3.10563e-18
-2.84186e-18
-2.60262e-18
-3.09287e-18
-2.06471e-18
-3.27988e-18
-1.50584e-18
-3.39746e-18
-9.40212e-19
-3.44297e-18
-3.81728e-19
-3.4166e-18
1.56545e-19
-3.32126e-18
6.62918e-19
-3.16233e-18
1.1275e-18
-2.94726e-18
1.54245e-18
-2.68498e-18
1.90213e-18
-2.38534e-18
2.20304e-18
-2.05848e-18
2.4437e-18
-1.71431e-18
2.62438e-18
-1.36206e-18
2.74686e-18
-1.01e-18
2.81405e-18
-6.65178e-19
2.82972e-18
-3.33403e-19
2.79819e-18
-1.91975e-20
2.72405e-18
2.74106e-19
2.61198e-18
5.44246e-19
2.46659e-18
7.89875e-19
2.29227e-18
1.01039e-18
2.09314e-18
1.20578e-18
1.87303e-18
1.37644e-18
1.6354e-18
1.52306e-18
1.38343e-18
1.64649e-18
1.12e-18
1.74761e-18
8.47712e-19
1.82731e-18
5.68976e-19
1.88633e-18
2.86033e-19
1.92532e-18
1.94468e-18
-1.40705e-10
3.30138e-09
-3.56701e-10
3.17328e-09
-6.41064e-10
2.81868e-09
-6.67625e-10
2.42646e-09
-7.56724e-10
2.08508e-09
-6.83154e-10
1.56851e-09
-8.16072e-10
9.59952e-10
-8.00477e-10
5.16101e-10
-8.37063e-10
2.31529e-10
-8.42427e-10
-1.57016e-10
-8.84755e-10
-5.03977e-10
-8.79494e-10
-6.34296e-10
-9.57732e-10
-1.17373e-09
-8.55787e-10
-1.50401e-09
-7.36438e-10
-2.09211e-09
-4.75936e-10
-2.60164e-09
-2.36875e-10
-2.76169e-09
-8.36669e-11
-2.57071e-09
2.57331e-11
-2.46543e-09
1.02723e-10
-2.25821e-09
1.22265e-10
-2.31547e-09
1.19221e-10
-2.56769e-09
8.79446e-11
-2.5779e-09
1.44552e-10
-2.37971e-09
2.34007e-10
-1.98568e-09
3.32386e-12
-1.27918e-09
-1.0676e-10
-1.00393e-09
-4.60023e-11
-8.83683e-10
2.36777e-11
-9.64837e-10
1.79266e-10
-1.11229e-09
3.95002e-10
-1.12127e-09
6.44936e-10
-1.01692e-09
8.40969e-10
-8.35187e-10
9.7312e-10
-6.1499e-10
1.15648e-09
-6.34012e-10
1.27241e-09
-5.15741e-10
1.38271e-09
-4.11802e-10
1.4833e-09
-3.10592e-10
1.57923e-09
-3.23843e-10
1.66954e-09
-3.6766e-10
1.75451e-09
-3.62943e-10
1.83205e-09
-3.03454e-10
1.92779e-09
-2.63283e-10
2.06872e-09
-2.49868e-10
2.19886e-09
-2.37231e-10
2.22853e-09
-1.61845e-10
2.16513e-09
-1.92799e-10
2.00196e-09
-9.6061e-11
1.99151e-09
-1.29498e-10
2.04992e-09
-1.05791e-10
2.04614e-09
-1.42925e-10
2.02399e-09
-1.98943e-10
2.07993e-09
-4.61009e-10
2.18273e-09
-5.98301e-10
2.30155e-09
-6.94944e-10
2.40337e-09
-6.53359e-10
2.5325e-09
-6.6786e-10
2.59441e-09
-6.31146e-10
2.61627e-09
-5.17832e-10
2.68451e-09
-4.69301e-10
2.59395e-09
3.37809e-11
2.55014e-09
3.953e-10
2.49978e-09
6.40255e-10
2.3784e-09
9.67833e-10
2.33372e-09
1.31734e-09
2.27544e-09
1.7212e-09
2.2163e-09
1.98972e-09
2.16393e-09
2.2213e-09
2.08107e-09
2.53839e-09
2.02169e-09
2.87161e-09
1.98533e-09
2.88463e-09
1.94694e-09
2.73598e-09
2.03642e-09
2.27969e-09
1.39187e-09
1.749e-09
1.07082e-09
1.07869e-09
1.00013e-09
7.83848e-10
9.00866e-10
7.62061e-10
7.31702e-10
8.18989e-10
5.00473e-10
1.02646e-09
3.13201e-10
1.12134e-09
8.21577e-16
2.0655e-09
-4.94849e-18
3.07473e-18
-5.10942e-18
-1.13001e-19
-5.15195e-18
-5.62557e-19
-5.09136e-18
-1.05354e-18
-4.928e-18
-1.56007e-18
-4.66448e-18
-2.06223e-18
-4.30763e-18
-2.54002e-18
-3.86747e-18
-2.97516e-18
-3.35664e-18
-3.35249e-18
-2.78963e-18
-3.65946e-18
-2.18229e-18
-3.88659e-18
-1.55135e-18
-4.02754e-18
-9.13838e-19
-4.0794e-18
-2.86387e-19
-4.04272e-18
3.15469e-19
-3.92155e-18
8.77989e-19
-3.72306e-18
1.38977e-18
-3.457e-18
1.84209e-18
-3.135e-18
2.22899e-18
-2.76971e-18
2.54721e-18
-2.37399e-18
2.79594e-18
-1.96022e-18
2.97645e-18
-1.53974e-18
3.09167e-18
-1.12246e-18
3.14582e-18
-7.16688e-19
3.14392e-18
-3.29017e-19
3.09149e-18
3.55748e-20
2.99419e-18
3.7361e-19
2.85761e-18
6.8291e-19
2.68711e-18
9.62382e-19
2.48765e-18
1.21179e-18
2.2638e-18
1.43154e-18
2.01965e-18
1.62249e-18
1.75883e-18
1.78577e-18
1.48456e-18
1.92264e-18
1.19969e-18
2.03438e-18
9.06741e-19
2.12216e-18
6.07958e-19
2.18703e-18
3.054e-19
2.22979e-18
2.25101e-18
-2.35106e-11
3.32489e-09
-1.43931e-10
3.2937e-09
-3.07134e-10
2.98188e-09
-5.04298e-10
2.62362e-09
-6.09987e-10
2.19077e-09
-5.67575e-10
1.5261e-09
-6.04038e-10
9.96417e-10
-5.90298e-10
5.02363e-10
-6.3908e-10
2.80313e-10
-7.27335e-10
-6.87594e-11
-7.82353e-10
-4.48957e-10
-8.24891e-10
-5.91756e-10
-7.732e-10
-1.22542e-09
-7.49377e-10
-1.52784e-09
-5.89781e-10
-2.2517e-09
-3.11407e-10
-2.88001e-09
-9.84171e-11
-2.97467e-09
2.86918e-11
-2.69782e-09
6.29665e-11
-2.49971e-09
5.85257e-11
-2.25376e-09
-2.26121e-11
-2.23433e-09
-2.44817e-11
-2.56582e-09
4.41208e-11
-2.6465e-09
1.19535e-10
-2.45513e-09
2.20664e-10
-2.08681e-09
1.87199e-10
-1.24572e-09
-1.35755e-12
-8.15369e-10
-1.53195e-10
-7.31845e-10
-6.65251e-11
-1.05151e-09
1.66628e-10
-1.34544e-09
3.54963e-10
-1.30961e-09
5.29341e-10
-1.19129e-09
7.2476e-10
-1.0306e-09
8.61036e-10
-7.51265e-10
1.01853e-09
-7.91508e-10
1.12394e-09
-6.21145e-10
1.22829e-09
-5.16155e-10
1.35386e-09
-4.36164e-10
1.44059e-09
-4.10571e-10
1.50111e-09
-4.28181e-10
1.57876e-09
-4.40591e-10
1.66193e-09
-3.86621e-10
1.74153e-09
-3.42879e-10
1.76826e-09
-2.76606e-10
1.75084e-09
-2.1981e-10
1.74086e-09
-1.51861e-10
1.77802e-09
-2.29963e-10
1.6883e-09
-6.33488e-12
1.6289e-09
-7.01009e-11
1.6567e-09
-1.33594e-10
1.71033e-09
-1.96553e-10
1.78193e-09
-2.70539e-10
1.77569e-09
-4.54773e-10
1.7981e-09
-6.20708e-10
1.8336e-09
-7.30454e-10
1.916e-09
-7.35752e-10
2.01479e-09
-7.66652e-10
2.10695e-09
-7.23312e-10
2.1627e-09
-5.73582e-10
2.14602e-09
-4.52629e-10
2.0926e-09
8.72051e-11
2.14273e-09
3.45164e-10
2.20927e-09
5.73718e-10
2.21481e-09
9.62287e-10
2.1323e-09
1.39985e-09
1.97991e-09
1.87358e-09
1.82705e-09
2.14258e-09
1.77038e-09
2.27797e-09
1.74264e-09
2.56612e-09
1.75861e-09
2.85563e-09
1.77502e-09
2.86822e-09
1.7831e-09
2.7279e-09
1.66173e-09
2.40105e-09
1.54536e-09
1.86537e-09
1.31895e-09
1.3051e-09
1.1983e-09
9.04497e-10
9.94703e-10
9.65655e-10
6.77429e-10
1.13626e-09
4.96333e-10
1.20755e-09
3.44577e-10
1.2731e-09
6.93294e-16
2.41008e-09
-5.285e-18
4.36981e-18
-5.558e-18
1.59285e-19
-5.64205e-18
-4.79812e-19
-5.5971e-18
-1.0995e-18
-5.42946e-18
-1.72841e-18
-5.14189e-18
-2.35023e-18
-4.74277e-18
-2.93934e-18
-4.2448e-18
-3.47311e-18
-3.66362e-18
-3.93348e-18
-3.01676e-18
-4.30595e-18
-2.32325e-18
-4.57954e-18
-1.6032e-18
-4.74683e-18
-8.77165e-19
-4.80448e-18
-1.65217e-19
-4.75351e-18
5.13966e-19
-4.59937e-18
1.14405e-18
-4.35157e-18
1.71177e-18
-4.02292e-18
2.20738e-18
-3.62855e-18
2.62471e-18
-3.1847e-18
2.96098e-18
-2.7077e-18
3.21642e-18
-2.21293e-18
3.39372e-18
-1.71424e-18
3.49745e-18
-1.22341e-18
3.53349e-18
-7.50053e-19
3.50852e-18
-3.01508e-19
3.42952e-18
1.16942e-19
3.30349e-18
5.0187e-19
3.13708e-18
8.51407e-19
2.93651e-18
1.16494e-18
2.70741e-18
1.44282e-18
2.45476e-18
1.68606e-18
2.18293e-18