/*--------------------------------*- C++ -*----------------------------------*\
  =========                 |
  \\      /  F ield         | OpenFOAM: The Open Source CFD Toolbox
   \\    /   O peration     | Website:  https://openfoam.org
    \\  /    A nd           | Version:  6
     \\/     M anipulation  |
\*---------------------------------------------------------------------------*/
FoamFile
{
    version     2.0;
    format      ascii;
    class       volScalarField;
    location    "3450";
    object      Su;
}
// * * * * * * * * * * * * * * * * * * * * * * * * * * * * * * * * * * * * * //

dimensions      [0 0 -1 0 0 0 0];

internalField   nonuniform List<scalar> 
4800
(
0.217624
0.211721
0.20593
0.200385
0.195202
0.190438
0.186118
0.182229
0.178736
0.17559
0.172742
0.170137
0.167736
0.165507
0.163418
0.16145
0.159585
0.157801
0.15609
0.154452
0.152883
0.151376
0.149919
0.148495
0.1471
0.145724
0.144362
0.143006
0.141648
0.140288
0.138924
0.13755
0.136165
0.134771
0.13337
0.131965
0.13056
0.129158
0.12776
0.126368
0.12498
0.123595
0.122209
0.120818
0.11942
0.118017
0.116611
0.115209
0.113818
0.112445
0.111092
0.109761
0.108453
0.107167
0.105902
0.104653
0.103411
0.102167
0.100907
0.0996132
0.0982615
0.0968216
0.0952579
0.0935292
0.0915919
0.0894012
0.0869123
0.0840874
0.0809201
0.0774518
0.0737394
0.0698332
0.0657825
0.0616281
0.0573965
0.0531013
0.0487503
0.044351
0.0399071
0.0354281
0.0309496
0.026512
0.0221676
0.0179033
0.0137186
0.00961142
0.00557885
0.00161702
-0.00227844
-0.006112
-0.00988847
-0.0136126
-0.017289
-0.020922
-0.0245157
-0.0280739
-0.0316002
-0.0350978
-0.0385696
-0.0420182
-0.0454462
-0.0488556
-0.0522486
-0.055627
-0.0589923
-0.0623461
-0.0656896
-0.0690242
-0.0723508
-0.0756706
-0.0789844
-0.0822929
-0.085597
-0.0888973
-0.0921944
-0.0954889
-0.0987814
-0.102072
-0.105362
-0.108651
0.217596
0.211673
0.205935
0.200456
0.195309
0.190574
0.186276
0.182393
0.178895
0.175739
0.172874
0.17025
0.167828
0.165572
0.163455
0.161456
0.159553
0.157737
0.155999
0.154333
0.152733
0.151194
0.149709
0.14826
0.146841
0.145444
0.144061
0.14269
0.141319
0.139948
0.138576
0.137197
0.135809
0.134411
0.133007
0.131601
0.130194
0.128792
0.127394
0.126003
0.124618
0.123239
0.12186
0.120478
0.11909
0.117698
0.116302
0.114909
0.113526
0.112156
0.110804
0.109473
0.108164
0.106877
0.105611
0.104363
0.103124
0.101884
0.10063
0.0993444
0.0980026
0.0965741
0.0950244
0.0933122
0.0913917
0.089224
0.0867761
0.0840091
0.0809007
0.0774631
0.0737431
0.0698185
0.065755
0.0615935
0.0573552
0.0530505
0.0486879
0.0442703
0.039814
0.0353412
0.03087
0.0264307
0.022085
0.0178209
0.0136377
0.00953319
0.00550412
0.00154636
-0.00234469
-0.00617368
-0.0099456
-0.0136653
-0.0173374
-0.0209664
-0.0245564
-0.0281112
-0.0316343
-0.0351289
-0.0385979
-0.042044
-0.0454697
-0.0488771
-0.0522681
-0.0556446
-0.0590083
-0.0623605
-0.0657026
-0.0690358
-0.0723613
-0.0756799
-0.0789925
-0.0823
-0.0856032
-0.0889025
-0.0921988
-0.0954924
-0.0987841
-0.102074
-0.105363
-0.108651
0.217612
0.211725
0.206036
0.200624
0.195547
0.190869
0.186601
0.182729
0.179225
0.176047
0.173143
0.170477
0.168011
0.165709
0.163544
0.161491
0.159532
0.15766
0.155865
0.154138
0.152471
0.150862
0.149315
0.147809
0.146341
0.144898
0.143477
0.142073
0.140678
0.139287
0.137903
0.136514
0.135119
0.133717
0.132308
0.130897
0.129486
0.128081
0.126683
0.125293
0.123912
0.122539
0.121171
0.119803
0.118431
0.117053
0.115671
0.114288
0.112914
0.111551
0.110202
0.108873
0.107565
0.106279
0.105015
0.10377
0.102537
0.101307
0.100065
0.098797
0.0974767
0.0960731
0.0945515
0.0928739
0.0909951
0.0888705
0.0864707
0.0837612
0.08071
0.0773196
0.0736316
0.0697228
0.0656659
0.0615051
0.0572628
0.0529489
0.0485728
0.044144
0.0396794
0.0351962
0.0307145
0.0262674
0.0219185
0.0176547
0.0134748
0.00937592
0.00535409
0.00140469
-0.00247734
-0.00629708
-0.0100598
-0.0137705
-0.0174342
-0.0210551
-0.0246376
-0.0281855
-0.0317022
-0.0351908
-0.0386544
-0.0420956
-0.0455166
-0.0489197
-0.0523069
-0.0556798
-0.0590401
-0.0623892
-0.0657285
-0.0690591
-0.072382
-0.0756983
-0.0790088
-0.0823143
-0.0856155
-0.088913
-0.0922075
-0.0954995
-0.0987895
-0.102078
-0.105365
-0.108652
0.217648
0.211833
0.206218
0.200893
0.195904
0.191291
0.187064
0.183212
0.179706
0.176503
0.173555
0.170829
0.168291
0.165915
0.163677
0.161552
0.159523
0.157577
0.155699
0.15388
0.152114
0.150403
0.148758
0.147168
0.145625
0.14411
0.142631
0.141177
0.139741
0.138321
0.136921
0.135519
0.134116
0.132709
0.131296
0.12988
0.128467
0.12706
0.12566
0.124271
0.122891
0.121523
0.120163
0.118808
0.117452
0.116092
0.114727
0.113358
0.111994
0.110638
0.109295
0.107968
0.106662
0.105379
0.104119
0.102881
0.101659
0.10044
0.099216
0.0979747
0.0966872
0.0953217
0.0938429
0.0922124
0.0903877
0.0883193
0.0859782
0.0833396
0.0803661
0.0770524
0.0734286
0.0695543
0.0655059
0.0613437
0.0570979
0.0527754
0.048385
0.043942
0.0394637
0.0349673
0.0304746
0.0260173
0.0216645
0.0174022
0.0132279
0.00913807
0.00512775
0.00119148
-0.00267657
-0.00648207
-0.0102307
-0.0139279
-0.0175787
-0.0211876
-0.0247588
-0.0282963
-0.0318033
-0.0352832
-0.0387387
-0.0421724
-0.0455866
-0.0489834
-0.0523647
-0.0557322
-0.0590876
-0.0624321
-0.0657671
-0.0690937
-0.072413
-0.0757258
-0.0790331
-0.0823355
-0.0856338
-0.0889286
-0.0922205
-0.09551
-0.0987976
-0.102084
-0.105369
-0.108653
0.217713
0.212021
0.206504
0.201265
0.196368
0.191832
0.187652
0.18382
0.180305
0.177071
0.174073
0.171277
0.168656
0.166192
0.163862
0.161646
0.159523
0.157476
0.155487
0.153548
0.151657
0.149822
0.148057
0.14636
0.144725
0.143129
0.141573
0.140049
0.138556
0.137089
0.135658
0.134237
0.132823
0.131412
0.129995
0.128577
0.127161
0.125751
0.124348
0.122957
0.121581
0.120218
0.118868
0.117526
0.116184
0.114838
0.113488
0.112135
0.110784
0.109437
0.108099
0.106775
0.105472
0.104192
0.102939
0.101712
0.100503
0.0992982
0.0980948
0.0968858
0.0956391
0.0943205
0.0928969
0.0913266
0.0895676
0.0875711
0.0853057
0.0827494
0.0798702
0.0766565
0.0731212
0.0693027
0.0652751
0.0611119
0.0568533
0.052517
0.0481121
0.0436516
0.0391524
0.0346412
0.0301412
0.0256742
0.0213182
0.0170591
0.0128938
0.00881743
0.00482373
0.000906023
-0.00294252
-0.00672837
-0.0104578
-0.0141367
-0.0177701
-0.0213628
-0.0249191
-0.0284427
-0.0319371
-0.0354052
-0.03885
-0.0422738
-0.045679
-0.0490674
-0.0524411
-0.0558015
-0.0591503
-0.0624888
-0.0658182
-0.0691395
-0.0724539
-0.0757622
-0.0790652
-0.0823636
-0.0856581
-0.0889493
-0.0922377
-0.0955239
-0.0988083
-0.102091
-0.105373
-0.108655
0.217786
0.212237
0.20686
0.201739
0.196928
0.192457
0.188331
0.184523
0.180998
0.177726
0.174665
0.171787
0.169079
0.16652
0.164085
0.161761
0.159525
0.157357
0.155239
0.153164
0.151134
0.149159
0.147258
0.145436
0.143691
0.142001
0.140355
0.138747
0.137179
0.13565
0.13417
0.132716
0.131282
0.12986
0.128438
0.127016
0.125598
0.124186
0.122782
0.12139
0.120016
0.118659
0.117318
0.115989
0.114661
0.113329
0.11199
0.11065
0.109311
0.107976
0.106643
0.105322
0.104017
0.102736
0.101486
0.100271
0.0990799
0.0978922
0.096715
0.0955446
0.0943476
0.0930824
0.0917189
0.0902162
0.0885314
0.086616
0.0844389
0.0819794
0.0792107
0.0761117
0.0726743
0.0689267
0.0649345
0.0607775
0.0565146
0.0521704
0.0477526
0.0432734
0.0387523
0.0342215
0.0297103
0.0252322
0.0208735
0.0166204
0.0124686
0.0084112
0.00444036
0.000547633
-0.00327513
-0.00703543
-0.0107402
-0.0143957
-0.0180072
-0.0215797
-0.0251172
-0.0286237
-0.0321023
-0.035556
-0.0389875
-0.0423991
-0.045793
-0.0491712
-0.0525354
-0.0558871
-0.0592278
-0.0625587
-0.0658812
-0.0691961
-0.0725044
-0.0758071
-0.0791047
-0.0823982
-0.085688
-0.0889747
-0.0922589
-0.095541
-0.0988214
-0.102101
-0.105379
-0.108657
0.217876
0.212495
0.207247
0.202228
0.197528
0.193152
0.189079
0.18529
0.181754
0.178438
0.175309
0.172352
0.169557
0.166895
0.164349
0.161904
0.159538
0.157232
0.154971
0.152748
0.150566
0.148441
0.146397
0.144441
0.142574
0.14078
0.139033
0.137326
0.135666
0.134063
0.132518
0.131017
0.12955
0.128106
0.126671
0.125242
0.123822
0.12241
0.121005
0.119614
0.118243
0.116893
0.115559
0.114239
0.112921
0.111601
0.110273
0.108943
0.107614
0.106283
0.104952
0.103629
0.102318
0.101035
0.099787
0.0985804
0.0974099
0.0962447
0.0950968
0.0939643
0.0928203
0.0916152
0.0903145
0.0888825
0.0872776
0.0854495
0.083367
0.0810079
0.0783482
0.0753675
0.0720531
0.0684163
0.0644851
0.0603433
0.0560837
0.0517254
0.0472829
0.0427794
0.0382401
0.0336954
0.029174
0.0246828
0.0203224
0.0160793
0.0119471
0.00791615
0.00397596
0.000115869
-0.00367394
-0.00740216
-0.0110764
-0.0147033
-0.0182884
-0.0218365
-0.0253517
-0.0288377
-0.0322976
-0.0357342
-0.0391499
-0.0425472
-0.0459279
-0.0492939
-0.0526468
-0.0559882
-0.0593193
-0.0626414
-0.0659556
-0.0692629
-0.0725641
-0.0758601
-0.0791515
-0.0824391
-0.0857234
-0.0890048
-0.092284
-0.0955612
-0.098837
-0.102112
-0.105385
-0.108659
0.217939
0.212692
0.207614
0.202764
0.198171
0.193862
0.189845
0.18608
0.182536
0.17918
0.17599
0.172957
0.170071
0.1673
0.164639
0.162067
0.159561
0.157104
0.154687
0.152307
0.149967
0.147686
0.145491
0.143397
0.1414
0.139489
0.137641
0.135835
0.134074
0.132379
0.130757
0.129197
0.127684
0.126206
0.124746
0.123303
0.121877
0.120462
0.119056
0.117665
0.116295
0.114949
0.113621
0.112306
0.110995
0.109681
0.108359
0.107036
0.10571
0.10438
0.103045
0.101717
0.100402
0.0991179
0.0978732
0.0966745
0.0955177
0.0943803
0.0932663
0.0921708
0.0910758
0.0899322
0.0886965
0.0873352
0.0858095
0.0840703
0.0820834
0.0798252
0.0772734
0.0744071
0.0712092
0.0676832
0.0638537
0.0597664
0.0555038
0.0511242
0.0466681
0.0421602
0.0376181
0.0330629
0.0285258
0.0240155
0.0196546
0.0154274
0.0113234
0.00732882
0.00342918
-0.00038909
-0.00413775
-0.00782675
-0.0114644
-0.0150574
-0.0186115
-0.0221312
-0.0256206
-0.029083
-0.0325214
-0.0359383
-0.0393361
-0.0427169
-0.0460824
-0.0494345
-0.0527745
-0.056104
-0.0594242
-0.0627362
-0.0660409
-0.0693394
-0.0726325
-0.0759208
-0.0792051
-0.082486
-0.0857638
-0.0890393
-0.0923127
-0.0955844
-0.0988548
-0.102124
-0.105393
-0.108661
0.21804
0.212981
0.208051
0.203323
0.198838
0.194614
0.190642
0.186887
0.183327
0.179937
0.176696
0.17359
0.170609
0.167732
0.164948
0.162239
0.159584
0.156969
0.154389
0.151847
0.149349
0.146911
0.144566
0.142331
0.14021
0.138181
0.136213
0.134298
0.132433
0.130637
0.128926
0.127292
0.125721
0.124197
0.1227
0.121234
0.119791
0.118365
0.116952
0.115554
0.114181
0.112835
0.111509
0.110197
0.108891
0.107582
0.106263
0.104942
0.103616
0.102288
0.100954
0.0996235
0.0983042
0.0970187
0.0957772
0.0945861
0.0934384
0.0923266
0.0912479
0.0901915
0.0891448
0.0880549
0.0868783
0.0855826
0.0841303
0.0824762
0.0805803
0.078418
0.0759692
0.0732112
0.0701235
0.0667085
0.0629831
0.058967
0.0547383
0.050387
0.0459485
0.0414376
0.0368787
0.0323032
0.0277466
0.0232126
0.0188552
0.0146537
0.0105909
0.00664608
0.00279957
-0.000965895
-0.00466417
-0.00830632
-0.011901
-0.015455
-0.0189736
-0.0224613
-0.0259215
-0.0293575
-0.0327718
-0.0361667
-0.0395444
-0.0429067
-0.0462553
-0.0495918
-0.0529175
-0.0562337
-0.0595416
-0.0628422
-0.0661364
-0.0694251
-0.072709
-0.0759888
-0.0792651
-0.0825384
-0.0858091
-0.0890778
-0.0923448
-0.0956103
-0.0988748
-0.102138
-0.105401
-0.108664
0.218135
0.213257
0.208484
0.20388
0.199493
0.195343
0.191413
0.187674
0.1841
0.180674
0.177381
0.174205
0.171138
0.168157
0.165251
0.162402
0.159594
0.156818
0.154076
0.151372
0.148715
0.146123
0.143631
0.141259
0.139012
0.136873
0.134795
0.13276
0.130775
0.128865
0.127051
0.125327
0.123682
0.122098
0.120551
0.119047
0.117576
0.11613
0.114701
0.113292
0.11191
0.110559
0.109232
0.107922
0.10662
0.105318
0.104007
0.102697
0.101371
0.100039
0.0987067
0.0973787
0.0960606
0.0947745
0.0935347
0.092349
0.0912116
0.0901216
0.0890739
0.0880537
0.0870516
0.0860082
0.084886
0.0836531
0.0822679
0.0806871
0.078869
0.07679
0.0744333
0.0717731
0.0687858
0.06547
0.0618341
0.0579093
0.053757
0.0494485
0.0450302
0.0405211
0.0359557
0.0313725
0.0268052
0.0222489
0.0179044
0.0137451
0.00974258
0.00586605
0.00208854
-0.00161126
-0.00524909
-0.00883656
-0.0123822
-0.0158922
-0.0193714
-0.0228236
-0.0262518
-0.0296588
-0.0330467
-0.0364175
-0.0397732
-0.0431153
-0.0464453
-0.0497646
-0.0530745
-0.0563762
-0.0596706
-0.0629586
-0.0662413
-0.0695191
-0.072793
-0.0760634
-0.0793309
-0.0825959
-0.0858588
-0.0891201
-0.09238
-0.0956387
-0.0988966
-0.102154
-0.105411
-0.108667
0.218214
0.213494
0.208871
0.204396
0.200114
0.196038
0.19215
0.188423
0.184838
0.181382
0.178045
0.174807
0.171657
0.168573
0.165543
0.162546
0.159574
0.156634
0.153733
0.150876
0.14807
0.145331
0.142692
0.140178
0.137799
0.135548
0.133368
0.131223
0.129114
0.127078
0.125147
0.123321
0.121585
0.119926
0.118316
0.116763
0.115253
0.113775
0.112322
0.110896
0.109501
0.108143
0.106814
0.10551
0.104216
0.102924
0.101622
0.10032
0.0989967
0.0976659
0.0963347
0.0950099
0.0937
0.092421
0.0911879
0.0900082
0.0888797
0.087805
0.0867801
0.08579
0.0848219
0.0838163
0.0827375
0.0815523
0.0802209
0.0787031
0.0769596
0.0749617
0.0726878
0.0701117
0.0672132
0.0639875
0.060441
0.0566018
0.0525261
0.0482691
0.0438845
0.0393978
0.0348404
0.0302532
0.0256738
0.0210923
0.0167763
0.0126863
0.00877301
0.00498984
0.00130086
-0.00231892
-0.00588598
-0.00941134
-0.0129024
-0.0163642
-0.0198007
-0.0232146
-0.0266084
-0.0299841
-0.0333437
-0.0366886
-0.0400205
-0.0433408
-0.0466507
-0.0499516
-0.0532444
-0.0565303
-0.05981
-0.0630846
-0.0663546
-0.0696208
-0.0728838
-0.076144
-0.079402
-0.082658
-0.0859125
-0.0891658
-0.092418
-0.0956694
-0.0989202
-0.102171
-0.105421
-0.108671
0.218289
0.213718
0.209239
0.204896
0.20072
0.196715
0.192863
0.189145
0.18555
0.182069
0.178695
0.175399
0.172169
0.168979
0.165815
0.162662
0.159521
0.156413
0.15335
0.150339
0.147384
0.1445
0.141719
0.139065
0.136553
0.134183
0.131905
0.129651
0.127422
0.125259
0.12321
0.121275
0.119442
0.117697
0.116018
0.114403
0.112844
0.11133
0.109849
0.108401
0.106991
0.105622
0.104289
0.102989
0.101704
0.100425
0.0991337
0.0978393
0.0965217
0.0951957
0.0938695
0.09255
0.0912497
0.0899819
0.0887608
0.087592
0.086475
0.085413
0.0844023
0.0834306
0.0824831
0.08151
0.0804711
0.0793281
0.0780388
0.0765655
0.0748769
0.072943
0.0707389
0.0682363
0.0654182
0.0622823
0.0588342
0.0550907
0.0510999
0.0469057
0.0425622
0.038098
0.0335368
0.0289228
0.0243122
0.0196931
0.0154345
0.0114608
0.00768105
0.0040246
0.000446783
-0.00307835
-0.00656534
-0.0100225
-0.0134549
-0.0168655
-0.0202568
-0.0236304
-0.0269879
-0.0303307
-0.0336602
-0.0369777
-0.0402844
-0.0435815
-0.0468701
-0.0501512
-0.0534258
-0.0566948
-0.0599589
-0.063219
-0.0664756
-0.0697293
-0.0729806
-0.07623
-0.0794777
-0.0827242
-0.0859697
-0.0892144
-0.0924585
-0.0957021
-0.0989454
-0.102188
-0.105431
-0.108674
0.218366
0.213943
0.209603
0.205383
0.201304
0.197366
0.193554
0.189855
0.186258
0.182758
0.179347
0.175994
0.172681
0.16938
0.166081
0.162772
0.159463
0.15618
0.152947
0.149773
0.146661
0.143626
0.140701
0.13791
0.135264
0.132765
0.13038
0.128023
0.125682
0.123402
0.121238
0.119195
0.117261
0.115422
0.113669
0.111991
0.11038
0.108823
0.107308
0.105834
0.104405
0.103023
0.101685
0.100387
0.0991101
0.0978428
0.0965613
0.095274
0.0939671
0.0926528
0.0913384
0.0900316
0.0887455
0.0874926
0.0862851
0.0851297
0.0840264
0.0829764
0.081973
0.0810064
0.0800598
0.0791013
0.0780886
0.0769801
0.0757259
0.0742853
0.0726334
0.0707492
0.0686072
0.0661776
0.0634443
0.0604009
0.0570495
0.0534038
0.0495043
0.0453828
0.0410832
0.0366283
0.0320376
0.0273579
0.0226643
0.0179611
0.0138251
0.0100562
0.00647705
0.00298863
-0.000455123
-0.00387356
-0.00727425
-0.01066
-0.0140317
-0.0173898
-0.0207347
-0.0240668
-0.0273868
-0.0306955
-0.0339938
-0.0372826
-0.0405629
-0.0438356
-0.0471016
-0.0503619
-0.0536172
-0.0568684
-0.060116
-0.0633608
-0.0666032
-0.0698437
-0.0730827
-0.0763206
-0.0795576
-0.082794
-0.0860299
-0.0892656
-0.0925011
-0.0957365
-0.0989718
-0.102207
-0.105442
-0.108678
0.218436
0.214155
0.20995
0.20585
0.201866
0.197997
0.194231
0.190558
0.186972
0.183461
0.180018
0.176607
0.173212
0.169804
0.166373
0.162912
0.159443
0.155992
0.152583
0.149232
0.145949
0.142752
0.13967
0.13673
0.133942
0.131303
0.128793
0.126331
0.123889
0.121506
0.119237
0.117092
0.11506
0.113128
0.111291
0.109541
0.107872
0.10627
0.104722
0.103221
0.10177
0.100371
0.0990254
0.0977273
0.096456
0.0951971
0.0939247
0.0926456
0.0913522
0.0900546
0.0887587
0.0874716
0.0862059
0.0849731
0.0837826
0.0826428
0.081555
0.0805179
0.0795194
0.0785513
0.0775931
0.0766275
0.0756143
0.07452
0.0732912
0.0718862
0.0702755
0.0684373
0.066348
0.0639825
0.0613237
0.0583628
0.0551044
0.0515659
0.0477736
0.0437425
0.0394964
0.0350426
0.0303905
0.0255695
0.0206503
0.0156949
0.011872
0.00848157
0.00519752
0.00191883
-0.00137529
-0.00468265
-0.00799686
-0.0113121
-0.0146242
-0.0179305
-0.0212292
-0.0245197
-0.0278018
-0.0310757
-0.0343418
-0.037601
-0.0408538
-0.0441011
-0.0473436
-0.0505821
-0.0538173
-0.0570498
-0.0602801
-0.0635088
-0.0667363
-0.069963
-0.0731891
-0.076415
-0.0796408
-0.0828667
-0.0860927
-0.0893189
-0.0925455
-0.0957723
-0.0989994
-0.102227
-0.105454
-0.108682
0.218508
0.214366
0.21029
0.206303
0.202412
0.198613
0.1949
0.191265
0.187699
0.184187
0.180718
0.177256
0.173786
0.170278
0.166722
0.163123
0.159503
0.155886
0.152292
0.148753
0.145282
0.141901
0.138641
0.135533
0.13259
0.129809
0.127165
0.124593
0.122053
0.11958
0.117218
0.11498
0.112854
0.11083
0.108909
0.107085
0.105349
0.103694
0.102106
0.100579
0.0991057
0.0976899
0.0963332
0.0950318
0.0937604
0.0925059
0.0912429
0.0899737
0.0886968
0.0874192
0.0861472
0.0848863
0.083647
0.0824394
0.0812695
0.0801475
0.0790752
0.0780505
0.0770555
0.0760852
0.075114
0.0741352
0.073108
0.0720078
0.0707816
0.0693928
0.0678111
0.0660139
0.0639735
0.0616671
0.0590837
0.0562175
0.0530632
0.0496323
0.0459392
0.0419937
0.0378086
0.0333762
0.0286637
0.0236227
0.0181845
0.0123348
0.00951637
0.00682532
0.00393179
0.000878139
-0.00227304
-0.0054796
-0.00871611
-0.0119674
-0.0152243
-0.0184815
-0.0217357
-0.0249853
-0.0282295
-0.0314683
-0.0347018
-0.0379305
-0.0411551
-0.0443761
-0.0475943
-0.0508102
-0.0540244
-0.0572375
-0.0604498
-0.0636619
-0.0668739
-0.0700862
-0.073299
-0.0765125
-0.0797267
-0.0829416
-0.0861574
-0.0893739
-0.0925912
-0.0958092
-0.0990277
-0.102247
-0.105466
-0.108686
0.218579
0.214575
0.210624
0.206743
0.202942
0.199217
0.195561
0.191968
0.188427
0.184925
0.181442
0.177941
0.174404
0.170808
0.167147
0.163425
0.159657
0.155868
0.152088
0.14835
0.144676
0.141092
0.137637
0.134345
0.13124
0.128316
0.125536
0.122843
0.120201
0.11764
0.115191
0.112866
0.110655
0.10855
0.10655
0.104653
0.102851
0.101138
0.0995055
0.097942
0.0964408
0.095002
0.0936285
0.0923182
0.0910414
0.089789
0.0885362
0.087279
0.0860196
0.0847641
0.0835185
0.0822873
0.0810792
0.0799011
0.0787565
0.0776553
0.0765984
0.0755837
0.0745874
0.0736146
0.0726317
0.0716352
0.0705897
0.069474
0.06824
0.0668561
0.0652895
0.0635192
0.0615235
0.0592843
0.0567837
0.0540094
0.0509529
0.0476254
0.0440357
0.040195
0.0361027
0.0317363
0.0270181
0.0217675
0.015447
0.00428495
0.00706948
0.00540058
0.00284844
-4.90059e-05
-0.00310462
-0.00624008
-0.00941743
-0.0126164
-0.0158254
-0.0190379
-0.0222502
-0.0254603
-0.0286672
-0.0318708
-0.0350713
-0.0382691
-0.0414647
-0.0446588
-0.0478518
-0.0510444
-0.054237
-0.05743
-0.0606238
-0.0638187
-0.0670148
-0.0702124
-0.0734115
-0.0766122
-0.0798144
-0.0830182
-0.0862234
-0.0894301
-0.0926379
-0.0958468
-0.0990567
-0.102267
-0.105478
-0.10869
0.218646
0.214773
0.21094
0.207163
0.203452
0.199802
0.196207
0.192661
0.189152
0.185666
0.182176
0.178645
0.175054
0.171387
0.167641
0.163811
0.159907
0.155952
0.151986
0.148041
0.144152
0.140353
0.136689
0.133202
0.129925
0.126854
0.123941
0.121127
0.118378
0.11572
0.113178
0.110764
0.108473
0.106295
0.104226
0.102261
0.100395
0.0986258
0.0969491
0.0953497
0.0938189
0.0923547
0.0909568
0.0896225
0.0883285
0.0870681
0.0858215
0.0845787
0.0833396
0.0821083
0.0808899
0.0796901
0.0785138
0.0773663
0.07625
0.075171
0.0741314
0.0731247
0.0721235
0.0711434
0.0701499
0.0691351
0.0680684
0.066931
0.0656838
0.0643019
0.0627495
0.0610051
0.059046
0.0568573
0.054422
0.0517283
0.0487708
0.045561
0.0421013
0.0383979
0.0344468
0.0302305
0.0257008
0.0207951
0.0154646
0.0100006
0.00741223
0.00489041
0.00213413
-0.000800764
-0.00384461
-0.00695139
-0.0100934
-0.0132541
-0.0164238
-0.0195969
-0.0227703
-0.0259424
-0.0291126
-0.0322812
-0.0354483
-0.0386146
-0.0417807
-0.0449471
-0.0481144
-0.051283
-0.0544534
-0.0576259
-0.0608007
-0.063978
-0.0671579
-0.0703404
-0.0735255
-0.0767131
-0.0799032
-0.0830957
-0.0862903
-0.0894868
-0.0926851
-0.0958849
-0.0990859
-0.102288
-0.105491
-0.108694
0.21871
0.21496
0.211242
0.207569
0.203946
0.200371
0.196838
0.193341
0.189868
0.1864
0.182909
0.179358
0.175729
0.172007
0.168184
0.164254
0.160229
0.156128
0.151983
0.147835
0.143727
0.139709
0.135836
0.132151
0.128689
0.125458
0.12241
0.119476
0.116622
0.113861
0.111222
0.108716
0.106342
0.104089
0.101955
0.0999293
0.0980087
0.0961878
0.0944657
0.0928308
0.091273
0.0897836
0.088361
0.0869986
0.0856804
0.0844007
0.0831463
0.0819074
0.0806822
0.0794717
0.0782784
0.0771078
0.0759624
0.0748451
0.0737579
0.0726996
0.0716758
0.0706749
0.069667
0.0686734
0.0676655
0.0666319
0.0655398
0.0643792
0.0631107
0.0617208
0.0601731
0.0584486
0.0565215
0.0543806
0.0520125
0.0494078
0.0465615
0.0434793
0.040162
0.0366167
0.0328447
0.0288448
0.0246059
0.0201437
0.0155565
0.0111654
0.00772559
0.00464393
0.00162128
-0.0014266
-0.00450989
-0.00761998
-0.0107465
-0.0138814
-0.0170194
-0.0201576
-0.0232946
-0.02643
-0.0295641
-0.0326975
-0.0358309
-0.0389651
-0.042101
-0.0452392
-0.0483801
-0.0515243
-0.054672
-0.0578236
-0.060979
-0.0641384
-0.0673018
-0.070469
-0.07364
-0.0768145
-0.0799924
-0.0831734
-0.0863573
-0.0895437
-0.0927324
-0.095923
-0.0991152
-0.102309
-0.105503
-0.108698
0.21877
0.215139
0.211532
0.207958
0.204422
0.200924
0.197456
0.194008
0.190568
0.187119
0.183627
0.180061
0.176401
0.172632
0.168747
0.164741
0.160619
0.156395
0.15209
0.147752
0.143437
0.139207
0.135127
0.13124
0.127586
0.12418
0.120982
0.117922
0.11496
0.112098
0.109361
0.106761
0.104304
0.101979
0.0997831
0.0977015
0.0957279
0.0938582
0.0920898
0.090414
0.0888243
0.0873074
0.0858596
0.0844713
0.0831275
0.0818297
0.0805613
0.0793186
0.0780974
0.076898
0.0757217
0.0745713
0.0734483
0.0723533
0.0712866
0.0702448
0.0692302
0.0682323
0.0672165
0.0662041
0.0651767
0.0641208
0.0630011
0.0618171
0.0605231
0.0591177
0.0575647
0.0558523
0.0539586
0.05187
0.0495733
0.0470596
0.0443253
0.0413773
0.038216
0.0348474
0.0312766
0.0275158
0.0235778
0.0195065
0.0153931
0.0113609
0.00771096
0.00436321
0.0011537
-0.00200165
-0.00513733
-0.00826491
-0.011387
-0.0145038
-0.0176152
-0.0207214
-0.0238235
-0.0269227
-0.0300204
-0.0331182
-0.0362172
-0.0393188
-0.0424238
-0.0455331
-0.0486471
-0.0517664
-0.0548911
-0.0580214
-0.0611572
-0.0642986
-0.0674453
-0.0705972
-0.0737539
-0.0769153
-0.080081
-0.0832506
-0.0864238
-0.0896001
-0.0927793
-0.0959608
-0.0991442
-0.102329
-0.105515
-0.108702
0.218825
0.215301
0.211797
0.208323
0.204876
0.201451
0.198043
0.194642
0.191235
0.187801
0.184309
0.180732
0.177047
0.173244
0.169313
0.165248
0.16105
0.156723
0.152287
0.147791
0.143291
0.138853
0.134563
0.130473
0.126618
0.123021
0.119662
0.116482
0.113426
0.110473
0.10764
0.10495
0.102413
0.100016
0.0977536
0.0956181
0.093597
0.0916832
0.0898755
0.0881647
0.0865421
0.0849932
0.0835124
0.0820918
0.0807179
0.0793943
0.0781053
0.0768499
0.0756234
0.0744245
0.073253
0.0721102
0.0709973
0.069912
0.068852
0.067815
0.0667982
0.0657924
0.0647663
0.0637309
0.0626774
0.0615913
0.0604419
0.0592333
0.0579163
0.0564925
0.054933
0.0532261
0.051359
0.049318
0.0470921
0.0446771
0.042066
0.0392604
0.0362609
0.0330746
0.0297078
0.026178
0.0224989
0.0187148
0.0149018
0.0110823
0.00741655
0.00396317
0.000648074
-0.00258339
-0.00576325
-0.0089087
-0.0120291
-0.0151301
-0.0182162
-0.021291
-0.024358
-0.0274203
-0.0304808
-0.033542
-0.0366057
-0.0396736
-0.042747
-0.0458267
-0.0489134
-0.0520073
-0.0551087
-0.0582175
-0.0613337
-0.064457
-0.0675871
-0.0707236
-0.0738663
-0.0770146
-0.0801682
-0.0833265
-0.0864892
-0.0896556
-0.0928253
-0.0959979
-0.0991727
-0.102349
-0.105527
-0.108706
0.218879
0.215462
0.212061
0.208676
0.205308
0.201951
0.198599
0.195238
0.191856
0.188434
0.18494
0.181348
0.177642
0.173813
0.169853
0.165752
0.161503
0.157103
0.152564
0.147929
0.143256
0.138629
0.134144
0.129868
0.125829
0.122046
0.118517
0.115209
0.112061
0.109028
0.106109
0.103328
0.100705
0.0982349
0.0959104
0.0937218
0.091655
0.0896994
0.087856
0.0861138
0.0844597
0.082881
0.0813677
0.0799121
0.0785059
0.077149
0.0758331
0.0745543
0.0733108
0.0720987
0.0709165
0.0697645
0.0686429
0.067548
0.0664757
0.0654238
0.0643886
0.0633567
0.0623071
0.0612425
0.060155
0.0590295
0.0578429
0.0566001
0.0552597
0.0538167
0.0522503
0.050549
0.048706
0.0467099
0.0445528
0.0422306
0.0397408
0.0370786
0.0342448
0.0312448
0.0280796
0.0247712
0.0213375
0.0178109
0.0142298
0.0105643
0.00692323
0.00343725
7.05341e-05
-0.00320654
-0.00641555
-0.00957185
-0.0126869
-0.0157698
-0.0188286
-0.0218698
-0.0248997
-0.0279232
-0.0309446
-0.0339675
-0.0369945
-0.0400276
-0.0430685
-0.046118
-0.0491768
-0.0522451
-0.055323
-0.0584104
-0.0615069
-0.0646122
-0.0677258
-0.0708472
-0.073976
-0.0771115
-0.0802532
-0.0834005
-0.0865528
-0.0897095
-0.0928701
-0.0960339
-0.0992004
-0.102369
-0.105539
-0.10871
0.218926
0.215601
0.212287
0.208988
0.205698
0.202405
0.199103
0.195777
0.192415
0.188993
0.185485
0.181878
0.178156
0.174309
0.17033
0.166214
0.161942
0.1575
0.152895
0.148169
0.143372
0.138583
0.133916
0.129463
0.125256
0.12129
0.117572
0.114114
0.110876
0.107792
0.104824
0.101972
0.099276
0.0967344
0.0943428
0.092095
0.089979
0.0879822
0.0861028
0.0843317
0.0826468
0.0810364
0.0794882
0.0779965
0.0765536
0.0751582
0.0738072
0.0724946
0.0712198
0.0699781
0.0687667
0.0675846
0.06643
0.0652992
0.0641866
0.0630913
0.0620119
0.0609317
0.0598366
0.0587272
0.0575937
0.0564186
0.0551857
0.0538977
0.0525224
0.0510507
0.0494682
0.0477719
0.0459575
0.044009
0.0419205
0.039685
0.0373099
0.0347923
0.03213
0.0293229
0.0263686
0.0232826
0.0200713
0.016765
0.0133831
0.00986374
0.00627936
0.00279803
-0.000589227
-0.00389024
-0.0071141
-0.0102714
-0.0133737
-0.0164324
-0.0194585
-0.0224616
-0.0254502
-0.0284314
-0.0314109
-0.0343931
-0.0373815
-0.0403786
-0.0433859
-0.0464046
-0.0494351
-0.0524776
-0.055532
-0.058598
-0.061675
-0.0647625
-0.06786
-0.0709666
-0.0740818
-0.0772049
-0.0803351
-0.0834717
-0.086614
-0.0897614
-0.0929132
-0.0960686
-0.099227
-0.102388
-0.10555
-0.108714
0.218971
0.215733
0.212498
0.20927
0.20604
0.202796
0.199528
0.196222
0.192865
0.189432
0.185909
0.182282
0.178539
0.174674
0.17069
0.16658
0.162307
0.157845
0.153213
0.148448
0.143576
0.13866
0.133827
0.129203
0.124838
0.120716
0.116826
0.113213
0.109879
0.106762
0.103792
0.100916
0.0981731
0.0955746
0.093123
0.0908156
0.0886443
0.0866009
0.0846814
0.0828794
0.0811659
0.0795279
0.0779483
0.0764216
0.0749393
0.0735011
0.0721058
0.0707482
0.0694257
0.0681354
0.066873
0.0656364
0.0644196
0.0632186
0.0620275
0.0608484
0.0596847
0.0585224
0.0573538
0.056174
0.0549738
0.0537332
0.0524432
0.0511001
0.0496785
0.0481691
0.0465588
0.0448543
0.0430517
0.0411453
0.0391291
0.0369955
0.0347467
0.0323816
0.0299009
0.0273004
0.0245653
0.021701
0.0187099
0.0156128
0.0124176
0.00904295
0.00552999
0.0020648
-0.0013321
-0.00464611
-0.00787409
-0.0110219
-0.0141013
-0.0171264
-0.0201115
-0.0230693
-0.0260107
-0.0289446
-0.0318781
-0.0348168
-0.0377644
-0.0407237
-0.0436965
-0.0466838
-0.0496858
-0.0527025
-0.0557335
-0.0587784
-0.0618363
-0.0649066
-0.0679883
-0.0710807
-0.0741828
-0.0772938
-0.080413
-0.0835393
-0.0866722
-0.0898107
-0.092954
-0.0961015
-0.0992522
-0.102406
-0.105561
-0.108717
0.219013
0.215854
0.212689
0.209515
0.206331
0.203128
0.199892
0.196598
0.193219
0.189748
0.186187
0.182524
0.178747
0.174855
0.170852
0.166732
0.162448
0.157967
0.153305
0.148516
0.143649
0.138714
0.13379
0.129035
0.124545
0.12031
0.116289
0.112536
0.10911
0.105976
0.103055
0.10021
0.0974424
0.0948132
0.0923256
0.0899772
0.0877583
0.0856626
0.083689
0.0818396
0.0800939
0.0784343
0.0768335
0.0752787
0.0737603
0.0722772
0.0708294
0.0694143
0.0680261
0.066665
0.0653254
0.0640047
0.0626905
0.0613757
0.060056
0.058738
0.0574327
0.0561391
0.0548589
0.0535764
0.0522817
0.0509571
0.0495975
0.0481898
0.0467126
0.0451579
0.0435134
0.0418004
0.0400036
0.0381306
0.0361787
0.0341455
0.0320336
0.0298392
0.0275582
0.0251794
0.0226803
0.0200531
0.017297
0.0144151
0.0114068
0.00817197
0.00472668
0.00125999
-0.0021587
-0.0054858
-0.00871041
-0.0118372
-0.0148806
-0.0178594
-0.020792
-0.0236947
-0.0265809
-0.0294613
-0.0323441
-0.0352356
-0.0381399
-0.04106
-0.0439973
-0.0469526
-0.0499261
-0.0529172
-0.0559253
-0.0589496
-0.061989
-0.0650426
-0.0681093
-0.071188
-0.0742777
-0.0773774
-0.0804861
-0.0836028
-0.0867267
-0.0898568
-0.0929923
-0.0961322
-0.0992758
-0.102422
-0.105571
-0.10872
0.219044
0.215946
0.212834
0.209702
0.206549
0.20336
0.200121
0.19681
0.19341
0.189909
0.186303
0.182589
0.178764
0.174824
0.170778
0.166612
0.162293
0.157794
0.15314
0.148397
0.143605
0.138713
0.133745
0.128882
0.124297
0.120005
0.115913
0.112039
0.108512
0.105337
0.102465
0.0997556
0.0970926
0.0944869
0.0920069
0.0896583
0.0874183
0.0852825
0.0832562
0.0813505
0.0795664
0.0778892
0.0762809
0.07471
0.0731652
0.0716407
0.0701399
0.0686541
0.067178
0.0657151
0.064263
0.0628178
0.0613593
0.0598733
0.0583601
0.056832
0.0553066
0.0538028
0.0523654
0.0509469
0.0495289
0.0481054
0.0466651
0.0451849
0.0436448
0.0420413
0.0403626
0.0386374
0.0368362
0.0349903
0.0331014
0.0311777
0.0292138
0.0272095
0.0251532
0.0230113
0.0207591
0.0183674
0.0158602
0.0132053
0.0103928
0.00730918
0.00391955
0.000405662
-0.0030779
-0.00642786
-0.00964205
-0.0127327
-0.0157224
-0.0186376
-0.0215027
-0.024338
-0.0271592
-0.0299786
-0.0328052
-0.0356456
-0.0385041
-0.0413834
-0.0442845
-0.0472079
-0.050153
-0.0531191
-0.056105
-0.0591095
-0.0621313
-0.0651691
-0.0682215