/*--------------------------------*- C++ -*----------------------------------*\
  =========                 |
  \\      /  F ield         | OpenFOAM: The Open Source CFD Toolbox
   \\    /   O peration     | Website:  https://openfoam.org
    \\  /    A nd           | Version:  6
     \\/     M anipulation  |
\*---------------------------------------------------------------------------*/
FoamFile
{
    version     2.0;
    format      ascii;
    class       volScalarField;
    location    "3450";
    object      T;
}
// * * * * * * * * * * * * * * * * * * * * * * * * * * * * * * * * * * * * * //

dimensions      [0 0 0 1 0 0 0];

internalField   nonuniform List<scalar> 
4800
(
552.442
552.228
552.018
551.817
551.629
551.456
551.3
551.159
551.032
550.918
550.815
550.72
550.633
550.552
550.477
550.405
550.337
550.273
550.211
550.151
550.094
550.04
549.987
549.935
549.885
549.835
549.785
549.736
549.687
549.638
549.588
549.538
549.488
549.438
549.387
549.336
549.285
549.234
549.183
549.133
549.082
549.032
548.982
548.932
548.881
548.83
548.779
548.728
548.678
548.628
548.579
548.531
548.483
548.436
548.391
548.345
548.3
548.255
548.209
548.162
548.113
548.061
548.005
547.942
547.872
547.792
547.702
547.6
547.485
547.359
547.224
547.083
546.936
546.785
546.632
546.476
546.318
546.158
545.997
545.835
545.672
545.512
545.354
545.199
545.048
544.899
544.752
544.609
544.467
544.328
544.191
544.056
543.923
543.791
543.661
543.532
543.404
543.277
543.151
543.026
542.902
542.778
542.655
542.533
542.411
542.289
542.168
542.047
541.926
541.806
541.686
541.566
541.446
541.326
541.206
541.087
540.968
540.848
540.729
540.61
552.441
552.227
552.018
551.82
551.633
551.461
551.305
551.165
551.038
550.923
550.819
550.724
550.636
550.555
550.478
550.405
550.336
550.27
550.207
550.147
550.089
550.033
549.979
549.927
549.875
549.825
549.774
549.725
549.675
549.625
549.575
549.525
549.475
549.424
549.374
549.323
549.272
549.221
549.17
549.12
549.069
549.019
548.969
548.919
548.869
548.818
548.768
548.717
548.667
548.617
548.568
548.52
548.473
548.426
548.38
548.335
548.29
548.245
548.199
548.153
548.104
548.052
547.996
547.934
547.864
547.786
547.697
547.597
547.484
547.359
547.224
547.082
546.935
546.784
546.63
546.474
546.316
546.156
545.994
545.832
545.67
545.509
545.351
545.196
545.045
544.896
544.75
544.606
544.465
544.326
544.189
544.054
543.921
543.79
543.659
543.53
543.403
543.276
543.15
543.025
542.901
542.777
542.654
542.532
542.41
542.288
542.167
542.046
541.926
541.805
541.685
541.565
541.445
541.326
541.206
541.087
540.967
540.848
540.729
540.61
552.442
552.228
552.022
551.826
551.642
551.472
551.317
551.177
551.05
550.935
550.829
550.733
550.643
550.56
550.481
550.407
550.336
550.268
550.203
550.14
550.079
550.021
549.965
549.91
549.857
549.805
549.753
549.702
549.652
549.601
549.551
549.501
549.45
549.399
549.348
549.297
549.246
549.195
549.144
549.094
549.044
548.994
548.944
548.895
548.845
548.795
548.745
548.695
548.645
548.595
548.547
548.498
548.451
548.404
548.358
548.313
548.269
548.224
548.179
548.133
548.085
548.034
547.979
547.918
547.85
547.773
547.686
547.588
547.477
547.354
547.22
547.079
546.932
546.781
546.627
546.47
546.312
546.151
545.989
545.826
545.664
545.503
545.345
545.19
545.039
544.89
544.744
544.601
544.46
544.322
544.185
544.051
543.918
543.786
543.656
543.528
543.4
543.274
543.148
543.023
542.899
542.776
542.653
542.531
542.409
542.287
542.166
542.045
541.925
541.805
541.685
541.565
541.445
541.325
541.206
541.087
540.967
540.848
540.729
540.61
552.443
552.232
552.029
551.836
551.655
551.487
551.334
551.194
551.067
550.951
550.844
550.745
550.653
550.567
550.486
550.409
550.335
550.265
550.197
550.131
550.067
550.004
549.945
549.887
549.831
549.776
549.723
549.67
549.618
549.566
549.515
549.465
549.414
549.363
549.311
549.26
549.209
549.158
549.107
549.057
549.007
548.957
548.908
548.859
548.809
548.76
548.711
548.661
548.612
548.562
548.514
548.466
548.418
548.372
548.326
548.281
548.237
548.193
548.148
548.103
548.056
548.007
547.953
547.894
547.828
547.753
547.668
547.572
547.465
547.344
547.213
547.073
546.926
546.775
546.621
546.464
546.305
546.144
545.981
545.818
545.655
545.494
545.336
545.181
545.03
544.881
544.736
544.593
544.453
544.315
544.179
544.045
543.912
543.782
543.652
543.524
543.397
543.27
543.145
543.021
542.897
542.774
542.651
542.529
542.407
542.286
542.165
542.044
541.924
541.804
541.684
541.564
541.444
541.325
541.206
541.086
540.967
540.848
540.729
540.61
552.446
552.239
552.039
551.849
551.672
551.507
551.355
551.216
551.089
550.972
550.863
550.762
550.666
550.577
550.493
550.412
550.335
550.261
550.189
550.119
550.05
549.983
549.919
549.858
549.799
549.741
549.684
549.629
549.575
549.522
549.47
549.418
549.367
549.316
549.264
549.213
549.162
549.11
549.06
549.009
548.959
548.91
548.861
548.812
548.763
548.715
548.666
548.617
548.568
548.519
548.47
548.422
548.375
548.329
548.283
548.239
548.195
548.151
548.107
548.064
548.018
547.971
547.919
547.862
547.798
547.726
547.644
547.551
547.447
547.33
547.202
547.063
546.917
546.766
546.612
546.455
546.295
546.133
545.97
545.806
545.643
545.481
545.323
545.169
545.018
544.87
544.725
544.583
544.443
544.306
544.171
544.037
543.906
543.775
543.646
543.518
543.392
543.266
543.141
543.017
542.893
542.77
542.648
542.526
542.405
542.284
542.163
542.043
541.922
541.802
541.683
541.563
541.443
541.324
541.205
541.086
540.967
540.848
540.729
540.609
552.448
552.247
552.052
551.866
551.692
551.53
551.38
551.242
551.114
550.995
550.884
550.78
550.682
550.589
550.501
550.416
550.335
550.257
550.18
550.105
550.031
549.959
549.89
549.824
549.761
549.7
549.64
549.582
549.525
549.469
549.416
549.363
549.311
549.259
549.208
549.156
549.105
549.054
549.003
548.952
548.902
548.853
548.805
548.756
548.708
548.66
548.611
548.563
548.514
548.466
548.418
548.37
548.322
548.276
548.23
548.186
548.143
548.1
548.057
548.015
547.972
547.926
547.876
547.822
547.761
547.691
547.612
547.523
547.423
547.31
547.186
547.05
546.905
546.754
546.6
546.442
546.282
546.119
545.955
545.791
545.627
545.465
545.307
545.153
545.002
544.855
544.711
544.57
544.431
544.295
544.16
544.028
543.897
543.767
543.639
543.512
543.386
543.261
543.136
543.012
542.889
542.767
542.645
542.523
542.402
542.281
542.161
542.041
541.921
541.801
541.681
541.562
541.442
541.323
541.204
541.085
540.966
540.847
540.728
540.609
552.452
552.256
552.066
551.884
551.714
551.555
551.407
551.27
551.141
551.021
550.908
550.8
550.699
550.603
550.51
550.422
550.336
550.252
550.17
550.09
550.01
549.933
549.859
549.788
549.721
549.655
549.592
549.53
549.47
549.412
549.356
549.301
549.248
549.196
549.144
549.092
549.04
548.989
548.938
548.888
548.838
548.789
548.741
548.693
548.645
548.597
548.549
548.501
548.453
548.404
548.356
548.308
548.261
548.214
548.169
548.125
548.083
548.04
547.999
547.958
547.916
547.872
547.825
547.773
547.715
547.649
547.573
547.488
547.391
547.283
547.163
547.031
546.889
546.738
546.584
546.426
546.265
546.101
545.937
545.772
545.608
545.445
545.287
545.133
544.983
544.837
544.694
544.554
544.417
544.282
544.148
544.017
543.887
543.758
543.631
543.504
543.379
543.254
543.13
543.007
542.884
542.762
542.641
542.52
542.399
542.278
542.158
542.038
541.918
541.799
541.679
541.56
541.441
541.322
541.203
541.084
540.966
540.847
540.728
540.609
552.454
552.264
552.079
551.903
551.737
551.581
551.435
551.298
551.17
551.048
550.932
550.822
550.718
550.617
550.521
550.427
550.337
550.248
550.16
550.074
549.989
549.906
549.826
549.75
549.678
549.609
549.542
549.476
549.412
549.351
549.292
549.235
549.18
549.127
549.074
549.022
548.97
548.919
548.868
548.817
548.767
548.719
548.671
548.623
548.575
548.528
548.48
548.432
548.384
548.335
548.287
548.239
548.191
548.145
548.099
548.056
548.014
547.973
547.932
547.893
547.853
547.811
547.767
547.717
547.662
547.599
547.527
547.445
547.352
547.248
547.132
547.005
546.866
546.718
546.563
546.404
546.242
546.079
545.914
545.749
545.585
545.421
545.263
545.11
544.961
544.816
544.674
544.536
544.4
544.266
544.134
544.004
543.875
543.747
543.621
543.495
543.371
543.247
543.123
543.001
542.879
542.757
542.636
542.515
542.395
542.275
542.155
542.035
541.916
541.797
541.678
541.559
541.44
541.321
541.202
541.084
540.965
540.846
540.728
540.609
552.457
552.274
552.095
551.924
551.761
551.608
551.464
551.328
551.199
551.076
550.958
550.845
550.737
550.633
550.532
550.434
550.337
550.243
550.149
550.057
549.966
549.878
549.793
549.712
549.635
549.561
549.49
549.42
549.353
549.288
549.226
549.166
549.109
549.054
549
548.947
548.894
548.843
548.791
548.741
548.691
548.642
548.594
548.546
548.499
548.452
548.404
548.356
548.308
548.26
548.211
548.163
548.115
548.068
548.023
547.98
547.939
547.898
547.859
547.821
547.783
547.743
547.701
547.654
547.601
547.541
547.472
547.394
547.305
547.205
547.093
546.969
546.834
546.689
546.535
546.377
546.216
546.053
545.887
545.722
545.556
545.392
545.234
545.082
544.934
544.791
544.652
544.515
544.381
544.249
544.118
543.989
543.862
543.735
543.61
543.485
543.361
543.238
543.116
542.994
542.872
542.751
542.631
542.511
542.391
542.271
542.151
542.032
541.913
541.794
541.675
541.557
541.438
541.319
541.201
541.083
540.964
540.846
540.727
540.609
552.461
552.284
552.111
551.944
551.785
551.634
551.492
551.356
551.227
551.102
550.983
550.868
550.756
550.648
550.543
550.44
550.338
550.237
550.138
550.04
549.943
549.849
549.759
549.673
549.591
549.514
549.438
549.365
549.293
549.223
549.158
549.095
549.035
548.978
548.922
548.867
548.814
548.761
548.71
548.659
548.608
548.559
548.511
548.464
548.417
548.369
548.322
548.274
548.226
548.178
548.13
548.082
548.034
547.987
547.942
547.899
547.858
547.818
547.78
547.743
547.707
547.669
547.628
547.584
547.533
547.476
547.41
547.335
547.249
547.153
547.045
546.924
546.793
546.65
546.5
546.343
546.183
546.02
545.854
545.688
545.522
545.357
545.2
545.049
544.903
544.763
544.626
544.492
544.36
544.23
544.101
543.974
543.847
543.722
543.598
543.474
543.352
543.229
543.108
542.986
542.866
542.745
542.625
542.505
542.386
542.267
542.148
542.029
541.91
541.791
541.673
541.555
541.436
541.318
541.2
541.082
540.963
540.845
540.727
540.609
552.464
552.293
552.125
551.963
551.807
551.66
551.518
551.383
551.253
551.128
551.007
550.889
550.775
550.663
550.554
550.445
550.337
550.23
550.125
550.022
549.92
549.821
549.725
549.634
549.547
549.466
549.387
549.309
549.232
549.159
549.088
549.022
548.959
548.899
548.841
548.784
548.73
548.676
548.623
548.572
548.521
548.472
548.424
548.376
548.329
548.283
548.235
548.188
548.14
548.092
548.044
547.996
547.948
547.902
547.857
547.814
547.773
547.734
547.697
547.661
547.626
547.59
547.55
547.507
547.459
547.404
547.341
547.269
547.186
547.093
546.988
546.871
546.742
546.603
546.455
546.301
546.142
545.979
545.814
545.647
545.481
545.315
545.159
545.01
544.868
544.731
544.597
544.466
544.337
544.209
544.082
543.957
543.832
543.708
543.585
543.463
543.341
543.219
543.099
542.978
542.858
542.738
542.619
542.5
542.381
542.262
542.144
542.025
541.907
541.789
541.67
541.552
541.434
541.316
541.198
541.08
540.963
540.845
540.727
540.609
552.467
552.301
552.138
551.981
551.829
551.684
551.544
551.41
551.279
551.153
551.031
550.911
550.794
550.678
550.563
550.449
550.335
550.222
550.111
550.002
549.895
549.79
549.689
549.593
549.502
549.416
549.334
549.252
549.171
549.093
549.018
548.948
548.882
548.818
548.757
548.699
548.642
548.587
548.534
548.481
548.43
548.38
548.332
548.285
548.238
548.192
548.145
548.098
548.05
548.002
547.954
547.906
547.859
547.813
547.769
547.727
547.686
547.648
547.611
547.576
547.541
547.506
547.468
547.427
547.38
547.327
547.265
547.195
547.115
547.025
546.923
546.809
546.684
546.548
546.403
546.251
546.094
545.932
545.766
545.599
545.432
545.264
545.11
544.966
544.829
544.696
544.566
544.438
544.312
544.187
544.062
543.938
543.815
543.693
543.571
543.45
543.329
543.209
543.089
542.969
542.85
542.731
542.612
542.494
542.376
542.257
542.139
542.021
541.903
541.785
541.668
541.55
541.432
541.315
541.197
541.079
540.962
540.844
540.726
540.609
552.469
552.309
552.151
551.998
551.851
551.708
551.569
551.435
551.305
551.178
551.054
550.933
550.812
550.693
550.573
550.453
550.333
550.214
550.097
549.982
549.869
549.759
549.653
549.551
549.455
549.365
549.278
549.193
549.108
549.025
548.947
548.873
548.802
548.736
548.672
548.611
548.553
548.496
548.442
548.388
548.336
548.286
548.238
548.191
548.144
548.098
548.052
548.005
547.958
547.91
547.862
547.815
547.768
547.723
547.679
547.637
547.597
547.559
547.523
547.488
547.453
547.419
547.382
547.342
547.296
547.244
547.184
547.116
547.038
546.95
546.851
546.741
546.619
546.487
546.345
546.196
546.04
545.878
545.712
545.542
545.372
545.202
545.052
544.915
544.785
544.658
544.534
544.41
544.286
544.163
544.041
543.919
543.798
543.677
543.557
543.437
543.317
543.198
543.079
542.96
542.842
542.724
542.605
542.488
542.37
542.252
542.135
542.017
541.9
541.782
541.665
541.547
541.43
541.313
541.195
541.078
540.961
540.843
540.726
540.609
552.472
552.317
552.164
552.015
551.871
551.731
551.594
551.461
551.331
551.203
551.078
550.955
550.832
550.708
550.584
550.458
550.332
550.207
550.083
549.962
549.843
549.727
549.615
549.509
549.407
549.312
549.221
549.131
549.043
548.956
548.874
548.796
548.723
548.653
548.586
548.523
548.462
548.404
548.348
548.293
548.241
548.19
548.141
548.094
548.048
548.002
547.956
547.91
547.863
547.816
547.769
547.722
547.676
547.632
547.588
547.547
547.508
547.47
547.434
547.399
547.364
547.329
547.292
547.252
547.208
547.157
547.099
547.032
546.956
546.87
546.774
546.667
546.549
546.42
546.283
546.136
545.982
545.821
545.652
545.477
545.299
545.119
544.981
544.858
544.739
544.62
544.5
544.38
544.26
544.14
544.02
543.9
543.78
543.661
543.542
543.423
543.305
543.186
543.068
542.951
542.833
542.716
542.598
542.481
542.364
542.247
542.13
542.013
541.896
541.779
541.662
541.545
541.428
541.311
541.194
541.077
540.96
540.843
540.726
540.609
552.474
552.324
552.176
552.032
551.891
551.753
551.618
551.486
551.357
551.23
551.104
550.978
550.852
550.725
550.596
550.466
550.334
550.203
550.073
549.945
549.819
549.696
549.578
549.465
549.358
549.258
549.162
549.068
548.976
548.887
548.801
548.72
548.643
548.569
548.5
548.433
548.37
548.31
548.253
548.197
548.144
548.093
548.044
547.996
547.95
547.905
547.859
547.813
547.767
547.72
547.674
547.628
547.584
547.54
547.497
547.457
547.418
547.38
547.344
547.309
547.274
547.238
547.201
547.161
547.117
547.067
547.009
546.944
546.87
546.786
546.693
546.589
546.474
546.35
546.216
546.073
545.921
545.761
545.59
545.407
545.21
544.998
544.895
544.798
544.693
544.582
544.468
544.351
544.234
544.116
543.998
543.88
543.762
543.644
543.526
543.409
543.291
543.174
543.057
542.941
542.824
542.707
542.591
542.474
542.358
542.241
542.125
542.008
541.892
541.775
541.659
541.542
541.425
541.309
541.192
541.075
540.959
540.842
540.725
540.608
552.477
552.332
552.188
552.048
551.91
551.775
551.642
551.512
551.383
551.256
551.13
551.003
550.875
550.744
550.612
550.477
550.34
550.203
550.065
549.93
549.797
549.667
549.541
549.422
549.309
549.203
549.103
549.005
548.909
548.816
548.727
548.643
548.563
548.487
548.414
548.345
548.28
548.218
548.159
548.102
548.047
547.995
547.945
547.898
547.852
547.806
547.761
547.715
547.67
547.624
547.579
547.534
547.49
547.448
547.406
547.366
547.328
547.291
547.255
547.22
547.184
547.148
547.11
547.069
547.025
546.974
546.918
546.854
546.781
546.7
546.609
546.509
546.398
546.277
546.147
546.008
545.859
545.701
545.53
545.34
545.11
544.768
544.807
544.746
544.653
544.548
544.437
544.324
544.208
544.092
543.976
543.86
543.743
543.627
543.51
543.394
543.278
543.162
543.046
542.93
542.815
542.699
542.583
542.467
542.351
542.236
542.12
542.004
541.888
541.772
541.655
541.539
541.423
541.307
541.19
541.074
540.958
540.841
540.725
540.608
552.479
552.339
552.2
552.063
551.928
551.796
551.666
551.537
551.41
551.283
551.157
551.029
550.898
550.765
550.63
550.491
550.349
550.206
550.062
549.919
549.778
549.64
549.507
549.381
549.262
549.15
549.045
548.943
548.843
548.747
548.654
548.567
548.484
548.405
548.33
548.259
548.191
548.127
548.066
548.008
547.952
547.899
547.849
547.8
547.753
547.708
547.662
547.617
547.572
547.528
547.484
547.44
547.397
547.356
547.315
547.276
547.238
547.202
547.166
547.13
547.094
547.057
547.018
546.977
546.932
546.882
546.826
546.762
546.691
546.612
546.524
546.426
546.319
546.202
546.077
545.943
545.799
545.646
545.482
545.304
545.111
544.913
544.819
544.727
544.627
544.521
544.411
544.298
544.184
544.069
543.954
543.839
543.724
543.609
543.494
543.379
543.264
543.15
543.035
542.92
542.805
542.69
542.575
542.46
542.345
542.23
542.114
541.999
541.884
541.768
541.652
541.536
541.421
541.305
541.189
541.073
540.957
540.84
540.724
540.608
552.482
552.346
552.211
552.078
551.946
551.817
551.688
551.562
551.436
551.31
551.183
551.054
550.923
550.788
550.649
550.507
550.361
550.212
550.062
549.911
549.762
549.617
549.476
549.343
549.217
549.1
548.989
548.883
548.779
548.679
548.584
548.493
548.407
548.325
548.247
548.174
548.104
548.038
547.976
547.917
547.86
547.806
547.755
547.705
547.657
547.611
547.565
547.52
547.476
547.432
547.389
547.346
547.305
547.264
547.225
547.186
547.149
547.113
547.076
547.04
547.004
546.966
546.927
546.885
546.839
546.788
546.732
546.67
546.6
546.522
546.436
546.342
546.239
546.127
546.007
545.878
545.741
545.596
545.442
545.281
545.114
544.955
544.83
544.719
544.609
544.498
544.386
544.274
544.16
544.047
543.933
543.819
543.705
543.591
543.478
543.364
543.251
543.137
543.023
542.909
542.795
542.681
542.567
542.453
542.339
542.224
542.109
541.994
541.879
541.764
541.649
541.534
541.418
541.303
541.187
541.071
540.955
540.84
540.724
540.608
552.484
552.352
552.221
552.092
551.964
551.837
551.711
551.586
551.461
551.336
551.209
551.08
550.947
550.81
550.67
550.524
550.375
550.222
550.066
549.908
549.752
549.598
549.45
549.31
549.177
549.054
548.938
548.827
548.719
548.615
548.516
548.422
548.333
548.248
548.169
548.093
548.022
547.954
547.89
547.829
547.771
547.716
547.664
547.614
547.565
547.518
547.472
547.427
547.382
547.339
547.296
547.254
547.214
547.174
547.135
547.097
547.061
547.024
546.988
546.951
546.914
546.875
546.835
546.792
546.745
546.694
546.637
546.575
546.507
546.431
546.348
546.257
546.157
546.05
545.936
545.814
545.684
545.548
545.405
545.257
545.108
544.962
544.83
544.708
544.592
544.477
544.364
544.25
544.137
544.024
543.911
543.799
543.686
543.574
543.461
543.349
543.237
543.124
543.011
542.899
542.786
542.673
542.559
542.446
542.332
542.218
542.104
541.99
541.875
541.761
541.646
541.531
541.416
541.301
541.185
541.07
540.954
540.839
540.723
540.608
552.486
552.358
552.231
552.105
551.98
551.856
551.732
551.609
551.485
551.361
551.234
551.104
550.97
550.833
550.69
550.543
550.39
550.233
550.073
549.91
549.747
549.586
549.43
549.282
549.142
549.012
548.89
548.774
548.664
548.557
548.454
548.356
548.264
548.177
548.095
548.018
547.945
547.875
547.81
547.748
547.689
547.633
547.579
547.527
547.478
547.43
547.383
547.337
547.293
547.249
547.207
547.165
547.125
547.085
547.047
547.009
546.972
546.936
546.899
546.861
546.823
546.783
546.742
546.698
546.65
546.598
546.542
546.48
546.412
546.338
546.258
546.17
546.075
545.974
545.865
545.749
545.627
545.499
545.366
545.229
545.09
544.952
544.819
544.694
544.574
544.456
544.341
544.227
544.114
544.001
543.889
543.778
543.667
543.556
543.445
543.334
543.222
543.111
543
542.888
542.776
542.664
542.551
542.439
542.326
542.212
542.099
541.985
541.871
541.757
541.643
541.528
541.413
541.299
541.184
541.069
540.953
540.838
540.723
540.608
552.488
552.364
552.241
552.118
551.996
551.874
551.752
551.63
551.508
551.383
551.257
551.126
550.992
550.853
550.71
550.561
550.407
550.247
550.083
549.915
549.745
549.578
549.415
549.26
549.113
548.976
548.848
548.728
548.614
548.504
548.398
548.298
548.202
548.113
548.029
547.949
547.874
547.803
547.737
547.673
547.613
547.556
547.501
547.448
547.397
547.348
547.301
547.254
547.209
547.165
547.122
547.08
547.04
547
546.961
546.923
546.885
546.848
546.809
546.771
546.731
546.69
546.647
546.602
546.554
546.501
546.445
546.383
546.316
546.244
546.165
546.081
545.991
545.894
545.792
545.683
545.568
545.448
545.324
545.196
545.066
544.933
544.801
544.675
544.553
544.434
544.317
544.203
544.09
543.978
543.867
543.757
543.647
543.537
543.428
543.318
543.208
543.098
542.988
542.877
542.767
542.655
542.544
542.432
542.319
542.207
542.094
541.981
541.867
541.753
541.64
541.525
541.411
541.297
541.182
541.067
540.952
540.837
540.722
540.608
552.49
552.369
552.249
552.129
552.01
551.89
551.77
551.65
551.528
551.404
551.276
551.146
551.011
550.871
550.727
550.577
550.423
550.262
550.095
549.923
549.749
549.576
549.407
549.245
549.093
548.949
548.814
548.689
548.571
548.46
548.352
548.248
548.151
548.059
547.972
547.89
547.814
547.741
547.673
547.609
547.548
547.489
547.433
547.379
547.327
547.276
547.227
547.18
547.133
547.088
547.044
547.001
546.959
546.918
546.878
546.838
546.799
546.76
546.72
546.679
546.638
546.596
546.551
546.504
546.454
546.401
546.344
546.282
546.216
546.146
546.07
545.989
545.903
545.811
545.715
545.613
545.506
545.394
545.278
545.158
545.035
544.908
544.778
544.651
544.529
544.409
544.292
544.178
544.065
543.954
543.844
543.735
543.627
543.519
543.411
543.303
543.194
543.086
542.977
542.867
542.757
542.647
542.536
542.425
542.313
542.201
542.089
541.976
541.863
541.75
541.637
541.523
541.409
541.295
541.18
541.066
540.951
540.837
540.722
540.607
552.491
552.374
552.256
552.139
552.022
551.904
551.786
551.666
551.544
551.42
551.292
551.16
551.024
550.884
550.74
550.591
550.436
550.274
550.106
549.933
549.757
549.579
549.403
549.236
549.077
548.928
548.787
548.656
548.535
548.422
548.315
548.21
548.111
548.017
547.928
547.844
547.765
547.691
547.622
547.556
547.494
547.435
547.378
547.322
547.269
547.216
547.166
547.117
547.069
547.022
546.976
546.931
546.887
546.843
546.8
546.757
546.714
546.672
546.63
546.587
546.543
546.498
546.451
546.403
546.351
546.296
546.238
546.176
546.111
546.042
545.969
545.891
545.81
545.724
545.634
545.54
545.441
545.337
545.228
545.116
545
544.878
544.751
544.625
544.502
544.382
544.264
544.15
544.039
543.929
543.821
543.713
543.607
543.5
543.394
543.287
543.18
543.073
542.965
542.857
542.748
542.639
542.529
542.418
542.307
542.196
542.084
541.972
541.86
541.747
541.634
541.52
541.407
541.293
541.179
541.065
540.95
540.836
540.722
540.607
552.493
552.378
552.263
552.148
552.033
551.916
551.799
551.68
551.557
551.431
551.302
551.169
551.032
550.891
550.746
550.596
550.441
550.278
550.109
549.936
549.759
549.58
549.402
549.229
549.067
548.913
548.768
548.631
548.507
548.394
548.288
548.185
548.085
547.989
547.899
547.814
547.734
547.658
547.586
547.519
547.456
547.396
547.338
547.281
547.226
547.173
547.12
547.069
547.018
546.969
546.92
546.872
546.824
546.776
546.728
546.68
546.633
546.586
546.539
546.493
546.446
546.397
546.348
546.297
546.244
546.187
546.128
546.065
546
545.932
545.862
545.788
545.712
545.632
545.549
545.463
545.372
545.277
545.177
545.073
544.964
544.846
544.721
544.596
544.472
544.351
544.234
544.121
544.01
543.902
543.796
543.691
543.586
543.482
543.377
543.272
543.167
543.061
542.954
542.847
542.739
542.631
542.522
542.412
542.302
542.191
542.08
541.968
541.856
541.744
541.631
541.518
541.405
541.291
541.178
541.064
540.95
540.836
540.721
540.607
552.494
552.382
552.269
552.155
552.041
551.925
551.808
551.687
551.564
551.437
551.306
551.172
551.033
550.89
550.743
550.592
550.435
550.272
550.103
549.931
549.757
549.58
549.4
549.224
549.057
548.902
548.754
548.613
548.486
548.371
548.267
548.169
548.072
547.978
547.888
547.803
547.722
547.645
547.571
547.502
547.438
547.377
547.319
547.262
547.206
547.15
547.096
547.042
546.988
546.935
546.882
546.83
546.776
546.722
546.667
546.612
546.556
546.501
546.449
546.397
546.346
546.294
546.242
546.188
546.133
546.074
546.014
545.951
545.886
545.819
545.751
545.681
545.61
545.537
545.463
545.385
545.303
545.216
545.125
545.029
544.927
544.815
544.692
544.565
544.438
544.317
544.2
544.088
543.98
543.874
543.77
543.667
543.565
543.463
543.36
543.257
543.154
543.049
542.944
542.838
542.731
542.624
542.515
542.406
542.297
542.187
542.076
541.965
541.853
541.741
541.629
541.516
541.403
541.29
541.176
541.063
540.949
540.835
540.721
540.607
552.495
552.383
552.272
552.159
552.045
551.93
551.812
551.691
551.567
551.439
551.307
551.17
551.028
550.882
550.732
550.579
550.419
550.253
550.082
549.912
549.742
549.569
549.391
549.215
549.048
548.892
548.745
548.603
548.473
548.357
548.254
548.162
548.078
547.99
547.903
547.82
547.74
547.662
547.586
547.515
547.45
547.389
547.332
547.275
547.219
547.162
547.107
547.05
546.992
546.933
546.874
546.814
546.753
546.69
546.625
546.559
546.492
546.423
546.363
546.306
546.249
546.194
546.138
546.082
546.024
545.964
545.901
545.837
545.772
545.707
545.642
545.578
545.513
545.447
545.38
545.307
545.231
545.15
545.07
544.984
544.89
544.784
544.659
544.53
544.4
544.278
544.162
544.052
543.947
543.844
543.743
543.643
543.544
543.444
543.344
543.243
543.141
543.038
542.934
542.829
542.724
542.617
542.509
542.401
542.292
542.182
542.072
541.961
541.85
541.738
541.626
541.514
541.401
541.288
541.175
541.062
540.948
540.834
540.721
540.607
552.495
552.384
552.273
552.161
552.049
551.934
551.816
551.695
551.571
551.442
551.308
551.168
551.022
550.87
550.714
550.555
550.39
550.218
550.044
549.874
549.71
549.543
549.371
549.198
549.033
548.884
548.747
548.608
548.478
548.363
548.261
548.176
548.112
548.032
547.951
547.876
547.798
547.722
547.644
547.573
547.507
547.449
547.395
547.339
547.285
547.23
547.174
547.115
547.049
546.983
546.914
546.843
546.768
546.693
546.616
546.539
546.457
546.36
546.292
546.231
546.171
546.111
546.051
545.99
545.928
545.866
545.799
545.733
545.668
545.613
545.557
545.5
545.441
545.373
545.315
545.227
545.151
545.071
545.008
544.933
544.852
544.756
544.636
544.491
544.353
544.232
544.118
544.012
543.911
543.812
543.715
543.619
543.523
543.426
543.328
543.229
543.129
543.028
542.925
542.821
542.717
542.611
542.504
542.396
542.288
542.179
542.069
541.958
541.848
541.736
541.624
541.512
541.4
541.287
541.174
541.061
540.948
540.834
540.72
540.607
552.495
552.384
552.274
552.164
552.054
551.941
551.825
551.706
551.583
551.455
551.321
551.178
551.023
550.862
550.695
550.527
550.351
550.169
549.988
549.818
549.669
549.511
549.342
549.175
549.015
548.88
548.766
548.629
548.505
548.404
548.298
548.208
548.126
548.053
547.976
547.899
547.818
547.741
547.667
547.604
547.542
547.48
547.422
547.371
547.319
547.263
547.199
547.128
547.048
546.967
546.887
546.811
546.727
546.643
546.558
546.477
546.397
546.325
546.27
546.209
546.146
546.08
546.006
545.935
545.856
545.799
545.717
545.652
545.596
545.584
545.552
545.48
545.423
545.313
545.268
545.052
544.991
544.941
544.915
544.79
544.769
544.744
544.617
544.406
544.288
544.179
544.067
543.966
543.872
543.779
543.687
543.595
543.502
543.409
543.313
543.217
543.118
543.019
542.917
542.815
542.711
542.605
542.499
542.392
542.284
542.175
542.066
541.956
541.845
541.734
541.623
541.511
541.399
541.286
541.173
541.06
540.947
540.834
540.72
540.607
552.494
552.383
552.276
552.173
552.069
551.961
551.85
551.735
551.618
551.497
551.367
551.219
551.051
550.871
550.688
550.516
550.321
550.121
549.926
549.754
549.639
549.497
549.311
549.159
549
548.88
548.761
548.644
548.502
548.399
548.3
548.218
548.144
548.065
547.99
547.906
547.827
547.76
547.688
547.64
547.579
547.507
547.438
547.399
547.351
547.297
547.216
547.137
547.037
546.927
546.833
546.753
546.658
546.576
546.485
546.406
546.325
546.268
546.207
546.161
546.085
546.02
545.944
545.875
545.769
545.716
545.614
545.555
545.509
545.466
545.421
545.35
545.326
545.267
545.23
545.109
545.023
544.935
544.888
544.816
544.764
544.715
544.602
544.365
544.242
544.103
544.004
543.916
543.83
543.745
543.659
543.571
543.483
543.392
543.3
543.206
543.109
543.011
542.911
542.809
542.706
542.601
542.495
542.389
542.281
542.173
542.064
541.954
541.844
541.733
541.621
541.51
541.398
541.285
541.172
541.06
540.947
540.833
540.72
540.607
552.493
552.383
552.286
552.202
552.111
552.013
551.91
551.803
551.693
551.588
551.474
551.323
551.133
550.927
550.72
550.571
550.344
550.11
549.891
549.673
549.507
549.35
549.19
549.071
548.956
548.851
548.74
548.624
548.517
548.417
548.32
548.221
548.134
548.043
547.968
547.888
547.821
547.771
547.715
547.669
547.61
547.521
547.444
547.389
547.338
547.295
547.199
547.1
547.001
546.897
546.821
546.74
546.668
546.585
546.495
546.436
546.367
546.286
546.223
546.152
546.063
545.982
545.896
545.816
545.722
545.645
545.556
545.49
545.429
545.378
545.326
545.277
545.244
545.204
545.163
545.09
545.012
544.932
544.879
544.822
544.757
544.672
544.491
544.23
544.161
544.044
543.938
543.861
543.789
543.713
543.632
543.549
543.464
543.378
543.289
543.197
543.102
543.004
542.905
542.804
542.702
542.598
542.492
542.386
542.279
542.171
542.062
541.952
541.842
541.732
541.62
541.509
541.397
541.285
541.172
541.059
540.946
540.833
540.72
540.607
552.49
552.385
552.314
552.285
552.229
552.149
552.05
551.948
551.831
551.741
551.638
551.494
551.283
551.044
550.782
550.535
550.261
549.992
549.758
549.534
549.345
549.185
549.054
548.942
548.859
548.794
548.716
548.603
548.503
548.39
548.276
548.174
548.094
548.008
547.944
547.887
547.846
547.804
547.771
547.733
547.697
547.613
547.542
547.471
547.388
547.339
547.221
547.115
546.989
546.891
546.804
546.721
546.645
546.549
546.45
546.374
546.298
546.213
546.14
546.052
545.968
545.892
545.81
545.733
545.649
545.57
545.494
545.424
545.362
545.302
545.251
545.208
545.172
545.136
545.098
545.049
544.988
544.924
544.869
544.81
544.733
544.571
544.392
544.182
544.071
543.97
543.896
543.81
543.751
543.686
543.606
543.526
543.449
543.367
543.28
543.19
543.096
543
542.902
542.801
542.699
542.595
542.49
542.384
542.277
542.169
542.061
541.951
541.841
541.731
541.62
541.508
541.396
541.284
541.172
541.059
540.946