/*--------------------------------*- C++ -*----------------------------------*\
  =========                 |
  \\      /  F ield         | OpenFOAM: The Open Source CFD Toolbox
   \\    /   O peration     | Website:  https://openfoam.org
    \\  /    A nd           | Version:  6
     \\/     M anipulation  |
\*---------------------------------------------------------------------------*/
FoamFile
{
    version     2.0;
    format      ascii;
    class       volVectorField;
    location    "3450";
    object      U;
}
// * * * * * * * * * * * * * * * * * * * * * * * * * * * * * * * * * * * * * //

dimensions      [0 1 -1 0 0 0 0];

internalField   nonuniform List<vector> 
4800
(
(-0.000306915 0 5.04531e-05)
(0.000414057 0 -0.000114406)
(-0.000578496 0 7.85853e-05)
(-0.000589952 0 -0.000402486)
(-0.000789938 0 -0.000254924)
(-0.00093797 0 -9.24021e-05)
(-0.00102116 0 -2.83556e-05)
(-0.00107241 0 -4.68793e-05)
(-0.00109522 0 -6.18255e-05)
(-0.00106238 0 -8.44505e-05)
(-0.000962413 0 -0.00012384)
(-0.000888976 0 -0.000127299)
(-0.000810974 0 -0.00012337)
(-0.000732112 0 -0.000165047)
(-0.00064442 0 -0.000129256)
(-0.000450796 0 -0.000252321)
(-0.000203521 0 -0.00033046)
(-0.000215673 0 -0.000140231)
(-2.88266e-05 0 -3.69848e-05)
(7.06568e-05 0 -4.75246e-05)
(0.000231165 0 -1.40644e-05)
(0.000434007 0 -5.04464e-05)
(0.000641498 0 -8.84765e-05)
(0.00082239 0 -0.000120479)
(0.000986668 0 -0.000154975)
(0.00113743 0 3.57844e-06)
(0.00124625 0 -0.000265393)
(0.00142772 0 -1.16314e-06)
(0.00154828 0 1.50411e-05)
(0.0015483 0 -5.05581e-06)
(0.00156641 0 -1.92973e-05)
(0.00161426 0 -4.53017e-05)
(0.00162854 0 -2.17182e-05)
(0.0016205 0 -1.60218e-05)
(0.00161779 0 2.15094e-05)
(0.00161869 0 2.83425e-05)
(0.00161799 0 1.48643e-05)
(0.00161926 0 2.6681e-06)
(0.00162635 0 -1.25383e-05)
(0.00164266 0 -2.82781e-05)
(0.00165857 0 -2.82291e-05)
(0.00165795 0 -2.22199e-05)
(0.00165013 0 2.29571e-06)
(0.00162988 0 3.45348e-05)
(0.00159314 0 3.94597e-05)
(0.0015376 0 8.28085e-06)
(0.00146126 0 -1.00421e-05)
(0.00139237 0 -1.85826e-05)
(0.00134305 0 -3.8094e-05)
(0.00131536 0 -5.86147e-05)
(0.0013142 0 -6.5973e-05)
(0.00132219 0 -7.27991e-05)
(0.00134364 0 -6.19324e-05)
(0.0013724 0 -5.49985e-05)
(0.00139515 0 -4.81185e-05)
(0.00141605 0 -3.0036e-05)
(0.00144239 0 -2.33171e-05)
(0.00146624 0 -3.60082e-05)
(0.00148341 0 -3.59002e-05)
(0.00150408 0 -4.82078e-05)
(0.00153604 0 -3.65273e-05)
(0.00153597 0 -2.86585e-05)
(0.00152596 0 -7.14091e-06)
(0.00149573 0 -4.79378e-05)
(0.00144107 0 6.218e-07)
(0.00136995 0 9.84779e-05)
(0.00126735 0 -3.57885e-05)
(0.00100291 0 9.27938e-08)
(0.000595089 0 0.000144049)
(0.000481099 0 8.94007e-05)
(0.000414197 0 2.16073e-05)
(0.000327862 0 7.20965e-05)
(0.000271816 0 2.7957e-05)
(0.000224142 0 6.04116e-05)
(0.000203138 0 1.71062e-05)
(0.000191819 0 4.26439e-05)
(0.000195754 0 1.22351e-05)
(4.50301e-05 0 -1.77678e-05)
(0.000637215 0 -1.02862e-07)
(-0.000625596 0 3.4795e-05)
(8.91584e-06 0 4.20156e-05)
(-1.13516e-12 0 -1.88092e-14)
(-2.86203e-12 0 -3.10696e-14)
(-1.52339e-12 0 -2.59533e-14)
(-1.46779e-12 0 -2.95848e-14)
(-1.40237e-12 0 -3.56661e-14)
(-1.32412e-12 0 -4.23292e-14)
(-1.23259e-12 0 -4.89275e-14)
(-1.12822e-12 0 -5.50323e-14)
(-1.0123e-12 0 -6.03862e-14)
(-8.86563e-13 0 -6.48334e-14)
(-7.52946e-13 0 -6.82244e-14)
(-6.13678e-13 0 -7.04455e-14)
(-4.71173e-13 0 -7.14271e-14)
(-3.27942e-13 0 -7.11455e-14)
(-1.86498e-13 0 -6.9622e-14)
(-4.92738e-14 0 -6.69186e-14)
(8.14589e-14 0 -6.31324e-14)
(2.03651e-13 0 -5.83884e-14)
(3.15528e-13 0 -5.28321e-14)
(4.15624e-13 0 -4.66222e-14)
(5.02797e-13 0 -3.99228e-14)
(5.76232e-13 0 -3.28971e-14)
(6.35436e-13 0 -2.57012e-14)
(6.80213e-13 0 -1.84795e-14)
(7.10641e-13 0 -1.13612e-14)
(7.27038e-13 0 -4.45791e-15)
(7.29927e-13 0 2.13723e-15)
(7.20002e-13 0 8.34915e-15)
(6.98088e-13 0 1.41201e-14)
(6.65111e-13 0 1.94077e-14)
(6.22069e-13 0 2.41832e-14)
(5.70007e-13 0 2.84289e-14)
(5.09993e-13 0 3.21358e-14)
(4.4311e-13 0 3.53019e-14)
(3.70438e-13 0 3.79294e-14)
(2.93047e-13 0 4.00241e-14)
(2.11995e-13 0 4.1595e-14)
(1.28312e-13 0 4.2658e-14)
(4.29696e-14 0 4.32559e-14)
(-0.000358749 0 0.000144556)
(-0.000300627 0 0.000252921)
(-0.000432407 0 0.000336806)
(-0.000568014 0 0.000458664)
(-0.000812995 0 0.00038172)
(-0.000924705 0 0.000256757)
(-0.00101292 0 0.000109232)
(-0.00107086 0 7.20533e-05)
(-0.00109884 0 1.71121e-05)
(-0.00109419 0 -7.20443e-05)
(-0.000991306 0 -0.000274586)
(-0.000927298 0 7.34941e-06)
(-0.000799261 0 -0.000161995)
(-0.000721011 0 -0.000121667)
(-0.000659198 0 -4.45991e-06)
(-0.000543665 0 -0.000249327)
(-0.000446913 0 -0.000207642)
(-0.000359483 0 -0.000164719)
(-0.000228211 0 -0.000235101)
(-7.36602e-05 0 -0.000295178)
(0.000151039 0 -0.000331171)
(0.000240956 0 -0.000462125)
(0.000596752 0 -0.000213088)
(0.000752665 0 -0.000215359)
(0.000915524 0 -0.000178558)
(0.00105273 0 -0.000246424)
(0.00120082 0 -0.000256117)
(0.00134509 0 -2.28995e-05)
(0.00138739 0 -0.00015714)
(0.00141749 0 -0.000194792)
(0.00147024 0 -0.000111114)
(0.00149825 0 8.28886e-06)
(0.00149342 0 1.41087e-05)
(0.0014831 0 3.16554e-06)
(0.00147894 0 -1.78604e-05)
(0.00148106 0 -2.21101e-05)
(0.0014937 0 -1.69047e-05)
(0.00151782 0 -2.08034e-05)
(0.00153236 0 1.04191e-06)
(0.00153481 0 1.87642e-05)
(0.00154782 0 2.91993e-05)
(0.00158644 0 2.5757e-05)
(0.00160201 0 7.11805e-06)
(0.00159121 0 4.38824e-06)
(0.00155868 0 -1.63237e-06)
(0.0015081 0 6.2023e-05)
(0.0014882 0 0.00011338)
(0.00148678 0 0.000100094)
(0.00148313 0 7.90344e-05)
(0.00147059 0 6.63595e-05)
(0.00145573 0 5.44985e-05)
(0.00145556 0 3.96075e-05)
(0.00145997 0 1.3272e-05)
(0.00147083 0 -3.03547e-05)
(0.00148713 0 -8.69707e-05)
(0.00150565 0 -0.000102904)
(0.0015175 0 -4.52747e-05)
(0.00152709 0 3.1743e-06)
(0.00154515 0 -5.34509e-05)
(0.00157876 0 -1.27713e-05)
(0.00157759 0 1.58265e-05)
(0.00156249 0 2.11081e-05)
(0.00154002 0 4.15713e-05)
(0.00150786 0 0.000109683)
(0.00143892 0 0.000107723)
(0.0012799 0 0.000128476)
(0.00120706 0 0.000256428)
(0.00121021 0 0.00025182)
(0.00111818 0 0.000246823)
(0.000939701 0 0.000160314)
(0.000575446 0 0.000186614)
(0.000407953 0 0.00010032)
(0.000314567 0 0.000102139)
(0.000252666 0 3.43106e-05)
(0.0002177 0 1.08972e-05)
(0.000193251 0 -2.39336e-05)
(0.000180088 0 2.27106e-06)
(5.69993e-05 0 4.60996e-06)
(0.000363937 0 4.21632e-05)
(-0.000523059 0 0.000104161)
(9.57627e-06 0 0.000131283)
(-1.24387e-12 0 6.17389e-14)
(-2.82468e-12 0 -6.19033e-14)
(-1.52426e-12 0 -6.94187e-14)
(-1.47919e-12 0 -8.65657e-14)
(-1.41617e-12 0 -1.06614e-13)
(-1.33785e-12 0 -1.27189e-13)
(-1.24529e-12 0 -1.47186e-13)
(-1.13961e-12 0 -1.65626e-13)
(-1.0221e-12 0 -1.81837e-13)
(-8.94401e-13 0 -1.95316e-13)
(-7.58558e-13 0 -2.05591e-13)
(-6.16881e-13 0 -2.12315e-13)
(-4.71873e-13 0 -2.15278e-13)
(-3.26137e-13 0 -2.14411e-13)
(-1.82272e-13 0 -2.09781e-13)
(-4.27842e-14 0 -2.01579e-13)
(8.99891e-14 0 -1.901e-13)
(2.13951e-13 0 -1.75727e-13)
(3.27295e-13 0 -1.58903e-13)
(4.28534e-13 0 -1.40112e-13)
(5.16522e-13 0 -1.19855e-13)
(5.90454e-13 0 -9.86251e-14)
(6.49854e-13 0 -7.68974e-14)
(6.94553e-13 0 -5.51079e-14)
(7.24662e-13 0 -3.36456e-14)
(7.40536e-13 0 -1.28458e-14)
(7.42735e-13 0 7.01221e-15)
(7.31985e-13 0 2.57046e-14)
(7.09147e-13 0 4.30594e-14)
(6.75174e-13 0 5.89519e-14)
(6.31091e-13 0 7.32974e-14)
(5.77959e-13 0 8.60449e-14)
(5.16866e-13 0 9.71697e-14)
(4.48904e-13 0 1.06667e-13)
(3.7516e-13 0 1.14545e-13)
(2.96713e-13 0 1.20821e-13)
(2.14628e-13 0 1.25518e-13)
(1.29972e-13 0 1.28664e-13)
(4.35675e-14 0 1.30304e-13)
(-0.000236798 0 0.000376532)
(-0.000323144 0 0.00041245)
(-0.000408566 0 0.000445226)
(-0.000587155 0 0.00043825)
(-0.000744193 0 0.000420089)
(-0.000840037 0 0.000324131)
(-0.000928602 0 0.000200686)
(-0.000980858 0 0.000124067)
(-0.000994854 0 4.03323e-05)
(-0.0010136 0 -8.94188e-05)
(-0.00103769 0 -6.25581e-05)
(-0.000913113 0 -0.000328928)
(-0.00080683 0 -0.000286714)
(-0.000712069 0 -0.0002972)
(-0.000591495 0 -0.000376867)
(-0.000534853 0 -0.000310661)
(-0.000441025 0 -0.000266865)
(-0.000329351 0 -0.000277776)
(-0.000251756 0 -0.000299985)
(-6.93711e-05 0 -0.0004495)
(0.000230395 0 -0.000447375)
(8.85406e-05 0 -0.000720708)
(0.000656618 0 -0.000417579)
(0.000666996 0 -0.000519479)
(0.000834617 0 -0.000435402)
(0.00100454 0 -0.000325362)
(0.00113486 0 -0.000260153)
(0.00120947 0 -0.000240542)
(0.00127418 0 -7.57827e-05)
(0.00134044 0 -0.000111189)
(0.0013877 0 -4.45352e-05)
(0.00137049 0 -3.9717e-05)
(0.00136411 0 -1.46883e-05)
(0.00136752 0 4.84106e-06)
(0.0013629 0 2.15702e-05)
(0.00134698 0 5.41153e-06)
(0.00134043 0 -3.13858e-05)
(0.00134292 0 -3.31413e-05)
(0.0013553 0 -4.39046e-05)
(0.00138012 0 -9.73927e-05)
(0.00141732 0 -0.000128673)
(0.00145574 0 -5.39842e-05)
(0.00147711 0 3.94543e-05)
(0.0014935 0 0.000111416)
(0.00149127 0 0.000126383)
(0.00146916 0 0.000135865)
(0.00143872 0 0.000139281)
(0.0014156 0 5.9425e-05)
(0.00141598 0 3.2527e-05)
(0.0014233 0 1.32115e-05)
(0.00143235 0 -4.48482e-05)
(0.00143221 0 -4.80666e-05)
(0.00143475 0 -4.51938e-05)
(0.00144622 0 -3.11561e-05)
(0.00146681 0 -3.37732e-05)
(0.00149944 0 -1.67474e-05)
(0.00151499 0 -4.02093e-05)
(0.00151943 0 -5.31929e-05)
(0.00153756 0 -5.46693e-05)
(0.00157416 0 -2.38251e-05)
(0.00157116 0 -1.56793e-05)
(0.00154883 0 2.34456e-05)
(0.00151818 0 3.8363e-05)
(0.00148453 0 0.000127762)
(0.00143627 0 0.000223038)
(0.00136788 0 9.81045e-05)
(0.00127101 0 0.000222662)
(0.00114456 0 0.000562069)
(0.00109311 0 0.000576582)
(0.000872309 0 0.000560786)
(0.000542333 0 0.000427177)
(0.000397654 0 0.000279705)
(0.000330888 0 0.000183201)
(0.000291462 0 5.72518e-05)
(0.000244075 0 9.09253e-05)
(0.000224847 0 2.00017e-05)
(0.000207414 0 2.85953e-05)
(7.69522e-05 0 5.264e-05)
(0.000452008 0 6.17341e-05)
(-0.000523546 0 0.000105158)
(9.75538e-06 0 0.000212032)
(-1.27405e-12 0 2.33879e-13)
(-2.8527e-12 0 -6.28239e-14)
(-1.55007e-12 0 -1.0351e-13)
(-1.50635e-12 0 -1.40891e-13)
(-1.44374e-12 0 -1.7725e-13)
(-1.36485e-12 0 -2.12815e-13)
(-1.27082e-12 0 -2.469e-13)
(-1.16275e-12 0 -2.78267e-13)
(-1.04199e-12 0 -3.0589e-13)
(-9.10317e-13 0 -3.28859e-13)
(-7.69945e-13 0 -3.46354e-13)
(-6.23365e-13 0 -3.5778e-13)
(-4.7327e-13 0 -3.62785e-13)
(-3.22445e-13 0 -3.6126e-13)
(-1.73666e-13 0 -3.53329e-13)
(-2.95925e-14 0 -3.39328e-13)
(1.07311e-13 0 -3.19773e-13)
(2.34848e-13 0 -2.95325e-13)
(3.51143e-13 0 -2.66751e-13)
(4.54673e-13 0 -2.34881e-13)
(5.44284e-13 0 -2.00573e-13)
(6.19189e-13 0 -1.64672e-13)
(6.78953e-13 0 -1.27983e-13)
(7.23465e-13 0 -9.1243e-14)
(7.52903e-13 0 -5.51069e-14)
(7.67696e-13 0 -2.01359e-14)
(7.68478e-13 0 1.32057e-14)
(7.5605e-13 0 4.45485e-14)
(7.31335e-13 0 7.36117e-14)
(6.95349e-13 0 1.00194e-13)
(6.49162e-13 0 1.24161e-13)
(5.93879e-13 0 1.45436e-13)
(5.30615e-13 0 1.63985e-13)
(4.60486e-13 0 1.79806e-13)
(3.84592e-13 0 1.92919e-13)
(3.0402e-13 0 2.03354e-13)
(2.19838e-13 0 2.11149e-13)
(1.33097e-13 0 2.16334e-13)
(4.46089e-14 0 2.18921e-13)
(-0.000198296 0 0.000557959)
(-0.000325648 0 0.000564372)
(-0.000564703 0 0.000458193)
(-0.000543219 0 0.000583556)
(-0.00061351 0 0.0005772)
(-0.000838181 0 0.000222232)
(-0.000863624 0 0.000204539)
(-0.000887063 0 0.000175457)
(-0.000892087 0 -6.75543e-05)
(-0.000871947 0 -0.000158678)
(-0.00087312 0 -0.000154531)
(-0.000863605 0 -0.000205753)
(-0.000807953 0 -0.000315866)
(-0.000683112 0 -0.000396232)
(-0.000609772 0 -0.000398473)
(-0.000500745 0 -0.000383982)
(-0.000377956 0 -0.000398502)
(-0.000335653 0 -0.000385385)
(-1.50601e-05 0 -0.000545244)
(7.36054e-05 0 -0.000567371)
(0.000218336 0 -0.000617759)
(0.000269625 0 -0.000778325)
(0.000565416 0 -0.000664834)
(0.000619923 0 -0.000622288)
(0.000800537 0 -0.000439848)
(0.000727746 0 -0.000684171)
(0.000957089 0 -0.000381747)
(0.000998942 0 -0.000268923)
(0.00102793 0 -0.000283262)
(0.00111851 0 -0.000256108)
(0.00123636 0 -7.60473e-05)
(0.00123381 0 -4.01233e-05)
(0.00121943 0 -1.68311e-05)
(0.0012192 0 9.85402e-06)
(0.00120931 0 6.45208e-06)
(0.00120777 0 2.20944e-07)
(0.00121853 0 -8.24454e-06)
(0.001241 0 -2.86065e-05)
(0.00127594 0 -4.0615e-05)
(0.00131072 0 -3.23334e-05)
(0.00131521 0 -2.87206e-05)
(0.00130555 0 -4.01886e-05)
(0.00129992 0 -5.57557e-05)
(0.00130946 0 -7.41293e-06)
(0.00131222 0 8.99236e-05)
(0.00131541 0 0.00012177)
(0.00133605 0 0.000104705)
(0.00134543 0 5.53027e-05)
(0.00134044 0 4.74639e-05)
(0.00134316 0 3.69067e-05)
(0.00135252 0 5.64045e-06)
(0.00136597 0 -2.59303e-05)
(0.00137709 0 -5.67128e-05)
(0.00138592 0 -7.43485e-05)
(0.00140009 0 -9.55859e-05)
(0.00142282 0 -0.000106052)
(0.00144618 0 -6.71748e-05)
(0.00146714 0 -6.42176e-05)
(0.00149335 0 -0.000108469)
(0.00154439 0 -5.55734e-05)
(0.00155592 0 2.1922e-05)
(0.00154476 0 3.6676e-05)
(0.00151833 0 6.93936e-05)
(0.00147608 0 0.00014771)
(0.00140977 0 0.000321935)
(0.00133418 0 0.000389071)
(0.00125158 0 0.000340593)
(0.00112679 0 0.000540908)
(0.00101642 0 0.000665441)
(0.000846185 0 0.000704397)
(0.000595854 0 0.000636558)
(0.00046285 0 0.000357386)
(0.000297222 0 0.000250072)
(0.000267473 0 0.000134738)
(0.000262198 0 8.26688e-05)
(0.000255886 0 2.6049e-05)
(0.000231473 0 5.63235e-05)
(8.18749e-05 0 8.51418e-05)
(0.000472891 0 7.51816e-05)
(-0.000511532 0 0.000189041)
(9.6825e-06 0 0.000310407)
(-1.29075e-12 0 3.78204e-13)
(-2.91937e-12 0 -7.4151e-14)
(-1.60163e-12 0 -1.41012e-13)
(-1.55226e-12 0 -1.96355e-13)
(-1.48745e-12 0 -2.48802e-13)
(-1.40687e-12 0 -3.00055e-13)
(-1.31033e-12 0 -3.49281e-13)
(-1.1985e-12 0 -3.94696e-13)
(-1.07269e-12 0 -4.34746e-13)
(-9.34866e-13 0 -4.68023e-13)
(-7.87479e-13 0 -4.93326e-13)
(-6.33311e-13 0 -5.09798e-13)
(-4.75353e-13 0 -5.16942e-13)
(-3.16682e-13 0 -5.14622e-13)
(-1.6034e-13 0 -5.0304e-13)
(-9.22839e-15 0 -4.82709e-13)
(1.33992e-13 0 -4.54402e-13)
(2.66974e-13 0 -4.19101e-13)
(3.87739e-13 0 -3.77938e-13)
(4.94711e-13 0 -3.32131e-13)
(5.86731e-13 0 -2.82928e-13)
(6.63044e-13 0 -2.31557e-13)
(7.23283e-13 0 -1.79173e-13)
(7.67429e-13 0 -1.26834e-13)
(7.95769e-13 0 -7.54676e-14)
(8.08849e-13 0 -2.58648e-14)
(8.07419e-13 0 2.13271e-14)
(7.92391e-13 0 6.55992e-14)
(7.64792e-13 0 1.06571e-13)
(7.25724e-13 0 1.43975e-13)
(6.76333e-13 0 1.77641e-13)
(6.17783e-13 0 2.07476e-13)
(5.51236e-13 0 2.33451e-13)
(4.77837e-13 0 2.55575e-13)
(3.98708e-13 0 2.7389e-13)
(3.14943e-13 0 2.88449e-13)
(2.27608e-13 0 2.99309e-13)
(1.37744e-13 0 3.06519e-13)
(4.61545e-14 0 3.10112e-13)
(-0.000198409 0 0.00076036)
(-0.000135142 0 0.000774397)
(-0.000502801 0 0.000661662)
(-0.000596465 0 0.00062509)
(-0.000589686 0 0.000632949)
(-0.000645028 0 0.000522199)
(-0.000744527 0 0.000332842)
(-0.000789816 0 0.000159594)
(-0.00080894 0 3.31666e-05)
(-0.000770505 0 -0.000205069)
(-0.000736164 0 -0.000204393)
(-0.000694706 0 -0.000350669)
(-0.000732443 0 -0.000325105)
(-0.000643091 0 -0.000473734)
(-0.000585477 0 -0.000489742)
(-0.000397525 0 -0.000561462)
(-0.000343623 0 -0.00053865)
(-0.000212881 0 -0.000590663)
(-4.05442e-05 0 -0.000612869)
(0.000127729 0 -0.000652393)
(8.07371e-05 0 -0.000780435)
(0.000232524 0 -0.000880303)
(0.000388729 0 -0.000838265)
(0.000408284 0 -0.000791133)
(0.000578533 0 -0.000622836)
(0.000674059 0 -0.000454392)
(0.000679765 0 -0.000425555)
(0.000710632 0 -0.000393796)
(0.000799128 0 -0.000288208)
(0.000839653 0 -0.000367339)
(0.000944604 0 -9.79027e-05)
(0.000957207 0 -4.91653e-05)
(0.000983615 0 -1.50599e-05)
(0.00102922 0 5.45165e-05)
(0.00105425 0 1.06881e-05)
(0.00106228 0 -2.92882e-05)
(0.00107764 0 -4.89245e-05)
(0.0011047 0 -5.33529e-05)
(0.00111544 0 -0.000101155)
(0.00111284 0 -0.000125051)
(0.00111641 0 -7.77482e-05)
(0.00111936 0 -3.08949e-05)
(0.00112841 0 -5.65092e-06)
(0.00113391 0 4.4526e-05)
(0.00111919 0 7.0466e-05)
(0.00111763 0 0.000103956)
(0.00114098 0 0.000135599)
(0.00120179 0 8.00963e-05)
(0.00123031 0 -1.55385e-07)
(0.001218 0 -3.02337e-06)
(0.00121301 0 -6.49146e-06)
(0.00122865 0 -6.83789e-06)
(0.00126975 0 -2.18643e-05)
(0.00132829 0 -6.29582e-05)
(0.00139759 0 -0.000109245)
(0.00143786 0 -0.000103882)
(0.00143215 0 -8.48722e-05)
(0.00142859 0 -8.70273e-05)
(0.00144003 0 -0.000132716)
(0.00149045 0 -4.62014e-05)
(0.00149082 0 7.40684e-06)
(0.00147361 0 0.000112428)
(0.00146875 0 0.000177256)
(0.00145145 0 0.000216018)
(0.00138312 0 0.000351661)
(0.00130872 0 0.000377768)
(0.00125236 0 0.00032953)
(0.00109913 0 0.000603631)
(0.000960458 0 0.000793935)
(0.000851879 0 0.00086807)
(0.000727046 0 0.000818029)
(0.000579357 0 0.000555095)
(0.000321319 0 0.000339087)
(0.000313847 0 3.69718e-05)
(0.000273104 0 8.11634e-05)
(0.00024497 0 7.5866e-05)
(0.000221486 0 0.00010509)
(0.000103976 0 0.000116212)
(0.000409863 0 0.000112723)
(-0.000509823 0 0.00022908)
(9.37681e-06 0 0.000412283)
(-1.31132e-12 0 4.73451e-13)
(-3.02407e-12 0 -1.19897e-13)
(-1.67158e-12 0 -1.90142e-13)
(-1.61348e-12 0 -2.54823e-13)
(-1.54681e-12 0 -3.21658e-13)
(-1.46473e-12 0 -3.89431e-13)
(-1.36507e-12 0 -4.55387e-13)
(-1.24813e-12 0 -5.1652e-13)
(-1.11531e-12 0 -5.70487e-13)
(-9.68897e-13 0 -6.15264e-13)
(-8.1172e-13 0 -6.49223e-13)
(-6.46981e-13 0 -6.71224e-13)
(-4.78093e-13 0 -6.8063e-13)
(-3.08543e-13 0 -6.77294e-13)
(-1.41753e-13 0 -6.61532e-13)
(1.90457e-14 0 -6.34077e-13)
(1.70919e-13 0 -5.96019e-13)
(3.11312e-13 0 -5.4872e-13)
(4.38114e-13 0 -4.93739e-13)
(5.49682e-13 0 -4.32742e-13)
(6.44858e-13 0 -3.67422e-13)
(7.22944e-13 0 -2.99427e-13)
(7.83676e-13 0 -2.30301e-13)
(8.27171e-13 0 -1.6144e-13)
(8.53872e-13 0 -9.40607e-14)
(8.6449e-13 0 -2.91848e-14)
(8.59942e-13 0 3.23615e-14)
(8.41293e-13 0 8.99402e-14)
(8.09711e-13 0 1.43085e-13)
(7.66419e-13 0 1.9148e-13)
(7.12664e-13 0 2.34935e-13)
(6.49689e-13 0 2.73362e-13)
(5.78714e-13 0 3.06749e-13)
(5.00925e-13 0 3.35136e-13)
(4.17466e-13 0 3.58599e-13)
(3.2944e-13 0 3.77224e-13)
(2.37908e-13 0 3.91101e-13)
(1.439e-13 0 4.00305e-13)
(4.82017e-14 0 4.04889e-13)
(-0.000115283 0 0.00093848)
(-0.000280712 0 0.000866455)
(-0.000360846 0 0.000808004)
(-0.000341212 0 0.00083205)
(-0.000492782 0 0.000734284)
(-0.000678166 0 0.000421329)
(-0.000591871 0 0.000379567)
(-0.000660259 0 0.000190601)
(-0.000685624 0 7.44921e-05)
(-0.000650574 0 -0.000189074)
(-0.000625896 0 -0.000215737)
(-0.000609497 0 -0.000396641)
(-0.000664021 0 -0.000383979)
(-0.000594157 0 -0.000519564)
(-0.000579171 0 -0.000542978)
(-0.000421707 0 -0.000646671)
(-0.000332321 0 -0.000674692)
(-0.000144241 0 -0.000724782)
(-4.32713e-05 0 -0.000713247)
(3.93444e-05 0 -0.000754287)
(0.000132804 0 -0.000851628)
(0.000177529 0 -0.000945997)
(0.000244651 0 -0.000929375)
(0.000240421 0 -0.000873801)
(0.000442985 0 -0.00067794)
(0.000415857 0 -0.00059849)
(0.000456983 0 -0.000437323)
(0.000494681 0 -0.000385775)
(0.000528387 0 -0.000352667)
(0.000542053 0 -0.000352399)
(0.000615029 0 -0.000208078)
(0.000648765 0 -0.000150248)
(0.000710006 0 -9.02825e-05)
(0.000777619 0 -3.11932e-05)
(0.00083294 0 -1.48146e-05)
(0.000871712 0 -4.28481e-05)
(0.000901197 0 -6.58543e-05)
(0.000909989 0 -7.76026e-05)
(0.000905382 0 -7.0951e-05)
(0.000887972 0 -5.51947e-05)
(0.00087909 0 -4.70559e-05)
(0.000879772 0 -6.8506e-05)
(0.000884999 0 7.65081e-06)
(0.000900796 0 9.60833e-05)
(0.000955166 0 7.75503e-05)
(0.000984301 0 3.37184e-05)
(0.000981841 0 1.63655e-05)
(0.00100121 0 5.29528e-05)
(0.00105948 0 8.79466e-05)
(0.00112123 0 3.90007e-05)
(0.00116184 0 -4.83057e-05)
(0.00119991 0 -0.000122019)
(0.00123141 0 -0.000159886)
(0.00125472 0 -0.000176895)
(0.00128127 0 -0.00018937)
(0.00133609 0 -0.000148354)
(0.0013506 0 -9.43517e-05)
(0.00133623 0 -0.000109537)
(0.00135632 0 -0.000143082)
(0.00144692 0 -8.37643e-05)
(0.00147492 0 -8.96596e-06)
(0.00145179 0 -2.62618e-05)
(0.00142352 0 0.000124176)
(0.00138701 0 0.000270607)
(0.00132344 0 0.000414693)
(0.00128419 0 0.000439671)
(0.00118787 0 0.000523587)
(0.00103972 0 0.000743421)
(0.0010107 0 0.000843166)
(0.000952875 0 0.000946001)
(0.000854655 0 0.000954261)
(0.000524064 0 0.000898144)
(0.000467882 0 0.000416304)
(0.000256524 0 0.000285523)
(0.000244415 0 0.000130633)
(0.000257342 0 0.000109957)
(0.00027044 0 9.60653e-05)
(0.000155613 0 0.000131515)
(0.000433871 0 0.000154994)
(-0.000515123 0 0.000260513)
(9.17452e-06 0 0.000506188)
(-1.35633e-12 0 2.25836e-13)
(-3.12276e-12 0 -2.25338e-13)
(-1.73587e-12 0 -2.44951e-13)
(-1.68312e-12 0 -3.11263e-13)
(-1.62144e-12 0 -3.93697e-13)
(-1.54001e-12 0 -4.80747e-13)
(-1.43705e-12 0 -5.66229e-13)
(-1.31354e-12 0 -6.45576e-13)
(-1.17143e-12 0 -7.15547e-13)
(-1.0136e-12 0 -7.73446e-13)
(-8.43439e-13 0 -8.17188e-13)
(-6.64719e-13 0 -8.45346e-13)
(-4.81423e-13 0 -8.57146e-13)
(-2.97583e-13 0 -8.5246e-13)
(-1.17123e-13 0 -8.31764e-13)
(5.62846e-14 0 -7.96077e-13)
(2.19349e-13 0 -7.46881e-13)
(3.69253e-13 0 -6.86008e-13)
(5.03716e-13 0 -6.15529e-13)
(6.21029e-13 0 -5.3764e-13)
(7.20047e-13 0 -4.5455e-13)
(8.00165e-13 0 -3.6839e-13)
(8.61269e-13 0 -2.81133e-13)
(9.03669e-13 0 -1.94543e-13)
(9.28025e-13 0 -1.10136e-13)
(9.35271e-13 0 -2.91681e-14)
(9.26544e-13 0 4.73646e-14)
(9.03114e-13 0 1.18711e-13)
(8.66331e-13 0 1.84341e-13)
(8.17574e-13 0 2.43914e-13)
(7.58215e-13 0 2.97245e-13)
(6.89597e-13 0 3.44275e-13)
(6.13011e-13 0 3.85033e-13)
(5.29687e-13 0 4.19609e-13)
(4.40796e-13 0 4.4813e-13)
(3.47445e-13 0 4.70734e-13)
(2.50688e-13 0 4.87551e-13)
(1.51532e-13 0 4.98694e-13)
(5.07387e-14 0 5.04241e-13)
(-0.000136312 0 0.00103543)
(-3.3898e-05 0 0.00103906)
(-2.74294e-05 0 0.000993548)
(-0.000781416 0 0.000665253)
(-0.000385625 0 0.000787149)
(-0.000390636 0 0.000668808)
(-0.000527314 0 0.000349621)
(-0.000504957 0 0.000242735)
(-0.000531545 0 0.00012396)
(-0.000536935 0 -0.000235984)
(-0.000568307 0 -0.000272093)
(-0.000679799 0 -0.000193434)
(-0.000500836 0 -0.000552399)
(-0.000560358 0 -0.000551047)
(-0.000463858 0 -0.000685923)
(-0.000411021 0 -0.00074925)
(-0.000260312 0 -0.000829971)
(-0.00012935 0 -0.00084733)
(-2.8979e-05 0 -0.000835172)
(6.85202e-05 0 -0.000818533)
(9.57278e-05 0 -0.000900725)
(0.000121435 0 -0.000996961)
(0.000178311 0 -0.000984612)
(0.000230455 0 -0.000896176)
(0.000277879 0 -0.000775584)
(0.000429169 0 -0.0005362)
(0.00028064 0 -0.000453993)
(0.000251806 0 -0.000409101)
(0.000264909 0 -0.000380454)
(0.0003154 0 -0.00029449)
(0.000349162 0 -0.000224225)
(0.000385448 0 -0.000189225)
(0.000458541 0 -0.000150598)
(0.000542328 0 -9.87025e-05)
(0.000609764 0 -8.45549e-05)
(0.000658521 0 -8.45142e-05)
(0.000694558 0 -6.12037e-05)
(0.0007026 0 -5.46835e-05)
(0.000694858 0 -6.21561e-05)
(0.000692252 0 -7.1289e-05)
(0.000703132 0 -7.45695e-05)
(0.000730119 0 -1.46518e-05)
(0.000743828 0 -4.72826e-05)
(0.000758745 0 -3.26862e-05)
(0.000795891 0 3.90327e-05)
(0.000855449 0 0.000124804)
(0.000929435 0 3.17174e-05)
(0.000981222 0 -0.000113656)
(0.00104634 0 -0.000164788)
(0.00110594 0 -0.000119897)
(0.00111189 0 -8.51947e-05)
(0.0011273 0 -3.73581e-05)
(0.00113563 0 -0.000121951)
(0.00113741 0 -0.000170333)
(0.00114522 0 -0.000184959)
(0.00116522 0 -0.000167303)
(0.00122624 0 5.59563e-05)
(0.00124826 0 -0.000221992)
(0.00129711 0 -0.000292217)
(0.00135908 0 -0.000183169)
(0.0013836 0 8.01046e-05)
(0.00137717 0 0.00013185)
(0.00132524 0 0.000218437)
(0.00125914 0 0.000387038)
(0.00124471 0 0.000483455)
(0.00122625 0 0.000531749)
(0.00109701 0 0.00067294)
(0.000995096 0 0.000821404)
(0.000970362 0 0.000946137)
(0.000902694 0 0.00109312)
(0.000852547 0 0.00111627)
(0.000806531 0 0.00095686)
(0.000636151 0 0.000657425)
(0.000333729 0 0.000323396)
(0.000367173 0 6.97132e-05)
(0.000383035 0 4.12297e-05)
(0.00031884 0 0.000131262)
(0.000127326 0 0.000207768)
(0.000393967 0 0.000260454)
(-0.000505901 0 0.000290086)
(9.71254e-06 0 0.000598561)
(-1.44961e-12 0 5.68779e-13)
(-2.91397e-12 0 -1.77959e-13)
(-1.75683e-12 0 -2.53171e-13)
(-1.76157e-12 0 -3.51697e-13)
(-1.71568e-12 0 -4.61238e-13)
(-1.63668e-12 0 -5.7375e-13)
(-1.52956e-12 0 -6.83104e-13)
(-1.39741e-12 0 -7.84105e-13)
(-1.24318e-12 0 -8.72817e-13)
(-1.07054e-12 0 -9.45917e-13)
(-8.8362e-13 0 -1.00087e-12)
(-6.86939e-13 0 -1.03594e-12)
(-4.85208e-13 0 -1.05026e-12)
(-2.83161e-13 0 -1.04373e-12)
(-8.53703e-14 0 -1.01706e-12)
(1.03928e-13 0 -9.71645e-13)
(2.80988e-13 0 -9.09455e-13)
(4.42664e-13 0 -8.32911e-13)
(5.86481e-13 0 -7.44719e-13)
(7.10661e-13 0 -6.47713e-13)
(8.14108e-13 0 -5.44714e-13)
(8.96362e-13 0 -4.38412e-13)
(9.57523e-13 0 -3.31264e-13)
(9.98168e-13 0 -2.25434e-13)
(1.01925e-12 0 -1.22753e-13)
(1.02199e-12 0 -2.47056e-14)
(1.00782e-12 0 6.75572e-14)
(9.7827e-13 0 1.53196e-13)
(9.34914e-13 0 2.31648e-13)
(8.79323e-13 0 3.02579e-13)
(8.13025e-13 0 3.65845e-13)
(7.37476e-13 0 4.21446e-13)
(6.54048e-13 0 4.69482e-13)
(5.64022e-13 0 5.10121e-13)
(4.6859e-13 0 5.43562e-13)
(3.68861e-13 0 5.70012e-13)
(2.65868e-13 0 5.89659e-13)
(1.60589e-13 0 6.02661e-13)
(5.37485e-14 0 6.09129e-13)
(-0.000130444 0 0.00112086)
(-0.000329974 0 0.00106329)
(-0.000612477 0 0.000927711)
(4.10863e-05 0 0.00104366)
(-0.00057502 0 0.000671208)
(-0.00044422 0 0.000563728)
(-0.00050261 0 0.00026922)
(-0.000400327 0 0.000212457)
(-0.00042415 0 4.57594e-05)
(-0.000432432 0 -7.08444e-05)
(-0.000507453 0 -0.000186937)
(-0.000584529 0 -0.000156731)
(-0.000430564 0 -0.000521917)
(-0.000532941 0 -0.000519952)
(-0.000410441 0 -0.000747041)
(-0.000311715 0 -0.000882301)
(-0.000171859 0 -0.000955443)
(-0.000115377 0 -0.000937996)
(9.36387e-06 0 -0.000926296)
(4.51116e-05 0 -0.000863417)
(6.4521e-05 0 -0.000920521)
(7.52175e-05 0 -0.00102305)
(9.90181e-05 0 -0.00102266)
(0.000113833 0 -0.000918591)
(0.000150626 0 -0.000763453)
(4.26937e-05 0 -0.000650311)
(0.000234954 0 -0.000421577)
(0.00018022 0 -0.000332015)
(8.91379e-05 0 -0.000357535)
(0.000108886 0 -0.000356237)
(0.000203466 0 -0.000299707)
(0.000264351 0 -0.000260055)
(0.00033446 0 -0.000219226)
(0.00040845 0 -0.000153233)
(0.000462845 0 -0.00013067)
(0.000524362 0 -0.000124838)
(0.000576756 0 -9.10109e-05)
(0.000605822 0 -5.79843e-05)
(0.000623641 0 -6.87549e-05)
(0.000646216 0 -8.89576e-05)
(0.000677257 0 -0.000101251)
(0.000710838 0 -9.71573e-05)
(0.000746738 0 -4.71515e-05)
(0.000782463 0 -3.55925e-06)
(0.000817703 0 -5.78554e-05)
(0.00086783 0 -0.000137088)
(0.000949233 0 -0.000147668)
(0.00101658 0 -2.75886e-05)
(0.00102635 0 3.47832e-05)
(0.00101056 0 2.59541e-05)
(0.00095303 0 -7.39222e-05)
(0.000946238 0 -0.000102831)
(0.000955746 0 -0.000145532)
(0.000984707 0 -0.000190358)
(0.00101394 0 -0.00025391)
(0.00104534 0 -0.000255348)
(0.00109561 0 -0.000248451)
(0.00120205 0 -0.00018926)
(0.00123057 0 -0.000142569)
(0.00120014 0 -0.000124159)
(0.0012044 0 -6.96945e-05)
(0.00121895 0 0.000112958)
(0.00119855 0 0.000194369)
(0.00119658 0 0.0002329)
(0.00117569 0 0.000431424)
(0.00110267 0 0.000623234)
(0.00102458 0 0.000726122)
(0.000963492 0 0.000834731)
(0.000943819 0 0.000952546)
(0.000876213 0 0.00110742)
(0.000830846 0 0.00113495)
(0.00084262 0 0.00104932)
(0.000593147 0 0.000997968)
(0.000678433 0 0.000273033)
(0.000421046 0 0.000252153)
(0.000284006 0 0.000282075)
(0.000205807 0 0.000312519)
(0.000113595 0 0.000299154)
(0.000334498 0 0.000316043)
(-0.000334317 0 0.000352903)
(8.83227e-06 0 0.000661098)
(-1.40126e-12 0 1.0195e-12)
(-3.23197e-12 0 -8.50411e-14)
(-1.90892e-12 0 -2.38158e-13)
(-1.89054e-12 0 -3.81199e-13)
(-1.84289e-12 0 -5.25897e-13)
(-1.76132e-12 0 -6.69988e-13)
(-1.64713e-12 0 -8.08213e-13)
(-1.50324e-12 0 -9.35024e-13)
(-1.33325e-12 0 -1.04582e-12)
(-1.14165e-12 0 -1.13666e-12)
(-9.33465e-13 0 -1.20454e-12)
(-7.14111e-13 0 -1.24743e-12)
(-4.89211e-13 0 -1.26433e-12)
(-2.64388e-13 0 -1.25526e-12)
(-4.50365e-14 0 -1.22121e-12)
(1.63893e-13 0 -1.16407e-12)
(3.58083e-13 0 -1.08645e-12)
(5.33989e-13 0 -9.91506e-13)
(6.88915e-13 0 -8.82739e-13)
(8.21033e-13 0 -7.63771e-13)
(9.29347e-13 0 -6.3816e-13)
(1.01362e-12 0 -5.09249e-13)
(1.07425e-12 0 -3.80045e-13)
(1.11218e-12 0 -2.53148e-13)
(1.12875e-12 0 -1.30713e-13)
(1.12558e-12 0 -1.4445e-14)
(1.10445e-12 0 9.4379e-14)
(1.06721e-12 0 1.94869e-13)
(1.01571e-12 0 2.86468e-13)
(9.51771e-13 0 3.68898e-13)
(8.77082e-13 0 4.42097e-13)
(7.93234e-13 0 5.06165e-13)
(7.01686e-13 0 5.61311e-13)
(6.03767e-13 0 6.07811e-13)
(5.00687e-13 0 6.45966e-13)
(3.93542e-13 0 6.76072e-13)
(2.83338e-13 0 6.98392e-13)
(1.71002e-13 0 7.13143e-13)
(5.72067e-14 0 7.20474e-13)
(-0.00018927 0 0.0012439)
(-0.00012414 0 0.00121859)
(-0.000238704 0 0.00116389)
(-0.00020306 0 0.00102085)
(-0.000390619 0 0.000821238)
(-0.0002703 0 0.000660201)
(-0.000312907 0 0.000425562)
(-0.000318999 0 0.000232978)
(-0.000322613 0 0.000105361)
(-0.000335054 0 -3.89283e-06)
(-0.000342228 0 -0.00019325)
(-0.00035899 0 -0.00028702)
(-0.000379866 0 -0.0004409)
(-0.000371266 0 -0.000597271)
(-0.00030292 0 -0.000812655)
(-0.000226975 0 -0.000993183)
(-0.000114875 0 -0.00106149)
(-8.85157e-05 0 -0.000992686)
(2.43195e-06 0 -0.000968111)
(3.5503e-05 0 -0.000884619)
(4.45957e-05 0 -0.000918828)
(3.9207e-05 0 -0.00102993)
(6.15477e-05 0 -0.0010371)
(-2.54889e-05 0 -0.000930804)
(0.000142039 0 -0.000756147)
(7.17557e-05 0 -0.000524066)
(-0.000112098 0 -0.000423469)
(1.49314e-05 0 -0.000347318)
(6.87681e-06 0 -0.000347824)
(5.4783e-05 0 -0.000365659)
(0.000102836 0 -0.000375358)
(0.000209536 0 -0.000320065)
(0.000293485 0 -0.000257237)
(0.000368658 0 -0.000203297)
(0.000410172 0 -0.000209051)
(0.000487059 0 -0.000173023)
(0.000548947 0 -0.000133448)
(0.00058082 0 -9.82863e-05)
(0.00060526 0 -0.000115562)
(0.000640583 0 -0.00014245)
(0.000686771 0 -0.000124872)
(0.000721996 0 -8.76021e-05)
(0.000747326 0 -8.18024e-05)
(0.000785163 0 -9.4026e-05)
(0.000853332 0 -7.04884e-05)
(0.000901611 0 1.52739e-06)
(0.000882182 0 -2.76694e-05)
(0.000836845 0 -0.000124725)
(0.000809987 0 -0.000125476)
(0.000808046 0 -5.12518e-05)
(0.000815334 0 -5.31919e-05)
(0.000817936 0 -9.65383e-05)
(0.000810653 0 -0.00017172)
(0.000840557 0 -0.000177734)
(0.000888152 0 -0.000184288)
(0.000936429 0 -0.000187464)
(0.000972051 0 -0.000202398)
(0.0010181 0 -0.000229002)
(0.00104705 0 -0.000227468)
(0.00105064 0 -0.00020761)
(0.00106694 0 -1.08022e-05)
(0.00103542 0 0.000177041)
(0.00100885 0 0.000304485)
(0.000988878 0 0.000449908)
(0.000969656 0 0.000593256)
(0.000924177 0 0.000719909)
(0.000890248 0 0.000806721)
(0.00088358 0 0.000872026)
(0.00086884 0 0.000981595)
(0.000817984 0 0.00112676)
(0.000799639 0 0.0011421)
(0.000776868 0 0.00109834)