0 	3.62956e-21 	0 	-2.90365e-20
0.010101 	-9.22284e-21 	-3.36237e-23 	4.14263e-20
0.020202 	4.58035e-20 	-3.38111e-22 	-1.06615e-19
0.030303 	-7.04338e-21 	-1.6897e-22 	-3.05677e-20
0.040404 	2.0229e-20 	1.01382e-22 	-4.75692e-20
0.0505051 	-4.24677e-20 	6.74177e-23 	1.27032e-20
