/*--------------------------------*- C++ -*----------------------------------*\
  =========                 |
  \\      /  F ield         | OpenFOAM: The Open Source CFD Toolbox
   \\    /   O peration     | Website:  https://openfoam.org
    \\  /    A nd           | Version:  6
     \\/     M anipulation  |
\*---------------------------------------------------------------------------*/
FoamFile
{
    version     2.0;
    format      ascii;
    class       volVectorField;
    location    "7800";
    object      U;
}
// * * * * * * * * * * * * * * * * * * * * * * * * * * * * * * * * * * * * * //

dimensions      [0 1 -1 0 0 0 0];

internalField   nonuniform List<vector> 
4800
(
(2.76795e-08 0 -2.57535e-08)
(7.94325e-08 0 -2.85132e-08)
(1.31872e-07 0 -2.93694e-08)
(1.8361e-07 0 -2.90928e-08)
(2.34046e-07 0 -2.83529e-08)
(2.83113e-07 0 -2.73752e-08)
(3.30684e-07 0 -2.62375e-08)
(3.76656e-07 0 -2.50372e-08)
(4.20993e-07 0 -2.38101e-08)
(4.63693e-07 0 -2.26172e-08)
(5.04781e-07 0 -2.14478e-08)
(5.44285e-07 0 -2.03491e-08)
(5.82247e-07 0 -1.93417e-08)
(6.18688e-07 0 -1.83526e-08)
(6.53553e-07 0 -1.73712e-08)
(6.86727e-07 0 -1.63468e-08)
(7.18092e-07 0 -1.53001e-08)
(7.47874e-07 0 -1.46192e-08)
(7.76059e-07 0 -1.36487e-08)
(8.02112e-07 0 -1.24116e-08)
(8.25828e-07 0 -1.10096e-08)
(8.47418e-07 0 -1.04401e-08)
(8.66912e-07 0 -8.95639e-09)
(8.83787e-07 0 -7.5813e-09)
(8.97907e-07 0 -6.31448e-09)
(9.09457e-07 0 -4.968e-09)
(9.18347e-07 0 -3.58437e-09)
(9.24498e-07 0 -2.23378e-09)
(9.27983e-07 0 -8.85029e-10)
(9.2886e-07 0 4.26967e-10)
(9.27189e-07 0 1.66638e-09)
(9.23166e-07 0 2.81881e-09)
(9.16908e-07 0 3.89474e-09)
(9.08606e-07 0 4.86094e-09)
(8.98435e-07 0 5.74627e-09)
(8.86525e-07 0 6.57993e-09)
(8.73065e-07 0 7.29696e-09)
(8.58215e-07 0 7.95067e-09)
(8.42156e-07 0 8.49678e-09)
(8.25044e-07 0 8.98072e-09)
(8.06992e-07 0 9.39526e-09)
(7.88142e-07 0 9.7476e-09)
(7.68607e-07 0 1.00566e-08)
(7.48485e-07 0 1.02876e-08)
(7.27869e-07 0 1.05435e-08)
(7.06819e-07 0 1.07137e-08)
(6.85329e-07 0 1.09102e-08)
(6.63533e-07 0 1.09646e-08)
(6.41525e-07 0 1.10714e-08)
(6.19314e-07 0 1.11326e-08)
(5.9695e-07 0 1.11663e-08)
(5.74474e-07 0 1.12107e-08)
(5.51904e-07 0 1.12003e-08)
(5.29305e-07 0 1.11694e-08)
(5.06713e-07 0 1.11358e-08)
(4.8417e-07 0 1.10431e-08)
(4.61729e-07 0 1.09741e-08)
(4.39413e-07 0 1.08427e-08)
(4.17249e-07 0 1.07483e-08)
(3.9526e-07 0 1.05862e-08)
(3.73495e-07 0 1.04137e-08)
(3.51996e-07 0 1.0238e-08)
(3.30778e-07 0 1.00483e-08)
(3.09852e-07 0 9.84913e-09)
(2.89234e-07 0 9.63696e-09)
(2.68948e-07 0 9.41204e-09)
(2.49012e-07 0 9.1833e-09)
(2.29428e-07 0 8.95089e-09)
(2.10185e-07 0 8.72985e-09)
(1.91325e-07 0 8.47195e-09)
(1.72906e-07 0 8.21054e-09)
(1.54973e-07 0 7.93764e-09)
(1.3765e-07 0 7.61592e-09)
(1.21292e-07 0 7.10743e-09)
(1.06939e-07 0 6.33625e-09)
(9.68834e-08 0 4.79908e-09)
(9.45652e-08 0 -1.01656e-08)
(7.59649e-08 0 7.21337e-09)
(-1.44442e-11 0 2.78493e-08)
(6.42974e-16 0 -2.92692e-17)
(3.03408e-16 0 -1.65436e-19)
(5.98538e-16 0 5.48007e-19)
(5.97142e-16 0 1.43723e-18)
(5.9464e-16 0 2.35746e-18)
(5.90504e-16 0 3.2777e-18)
(5.84713e-16 0 4.15658e-18)
(5.773e-16 0 4.9941e-18)
(5.68314e-16 0 5.76959e-18)
(5.57789e-16 0 6.46235e-18)
(5.45867e-16 0 7.09307e-18)
(5.32725e-16 0 7.65142e-18)
(5.18446e-16 0 8.14773e-18)
(5.03122e-16 0 8.59234e-18)
(4.8692e-16 0 8.94389e-18)
(4.69994e-16 0 9.25408e-18)
(4.52416e-16 0 9.48156e-18)
(4.34291e-16 0 9.65733e-18)
(4.15741e-16 0 9.78141e-18)
(3.96861e-16 0 9.88481e-18)
(3.77742e-16 0 9.93651e-18)
(3.58459e-16 0 9.92617e-18)
(3.3903e-16 0 9.89515e-18)
(3.19581e-16 0 9.84345e-18)
(3.00174e-16 0 9.78141e-18)
(2.80797e-16 0 9.65733e-18)
(2.61524e-16 0 9.55394e-18)
(2.42364e-16 0 9.41952e-18)
(2.23349e-16 0 9.27476e-18)
(2.045e-16 0 9.11967e-18)
(1.85826e-16 0 8.98525e-18)
(1.67349e-16 0 8.83015e-18)
(1.49048e-16 0 8.67506e-18)
(1.30912e-16 0 8.51996e-18)
(1.12952e-16 0 8.39588e-18)
(9.51465e-17 0 8.26147e-18)
(7.74758e-17 0 8.14773e-18)
(5.99499e-17 0 8.03399e-18)
(4.25378e-17 0 7.90992e-18)
(2.52497e-17 0 7.78584e-18)
(8.32351e-18 0 7.54802e-18)
(2.72481e-08 0 -7.99266e-08)
(8.08772e-08 0 -7.67667e-08)
(1.32574e-07 0 -7.51097e-08)
(1.84483e-07 0 -7.34065e-08)
(2.35031e-07 0 -7.1602e-08)
(2.84188e-07 0 -6.96518e-08)
(3.31821e-07 0 -6.75708e-08)
(3.77833e-07 0 -6.54444e-08)
(4.22194e-07 0 -6.32951e-08)
(4.64894e-07 0 -6.11711e-08)
(5.05967e-07 0 -5.9094e-08)
(5.45491e-07 0 -5.70627e-08)
(5.83504e-07 0 -5.51042e-08)
(6.19999e-07 0 -5.29465e-08)
(6.54918e-07 0 -5.06805e-08)
(6.88162e-07 0 -4.80159e-08)
(7.19656e-07 0 -4.52691e-08)
(7.49619e-07 0 -4.3596e-08)
(7.77973e-07 0 -4.08242e-08)
(8.0413e-07 0 -3.72286e-08)
(8.28034e-07 0 -3.31986e-08)
(8.49785e-07 0 -3.15192e-08)
(8.69409e-07 0 -2.71886e-08)
(8.86337e-07 0 -2.30887e-08)
(9.00544e-07 0 -1.94027e-08)
(9.12165e-07 0 -1.53881e-08)
(9.21055e-07 0 -1.12517e-08)
(9.27163e-07 0 -7.24173e-09)
(9.30587e-07 0 -3.22674e-09)
(9.31365e-07 0 6.88377e-10)
(9.2957e-07 0 4.38343e-09)
(9.25407e-07 0 7.82564e-09)
(9.18993e-07 0 1.1054e-08)
(9.10526e-07 0 1.39516e-08)
(9.00169e-07 0 1.66549e-08)
(8.88073e-07 0 1.91306e-08)
(8.74446e-07 0 2.13218e-08)
(8.59442e-07 0 2.33033e-08)
(8.43234e-07 0 2.49801e-08)
(8.2598e-07 0 2.64655e-08)
(8.07792e-07 0 2.77997e-08)
(7.8883e-07 0 2.88704e-08)
(7.69211e-07 0 2.985e-08)
(7.49003e-07 0 3.0638e-08)
(7.28293e-07 0 3.14162e-08)
(7.07187e-07 0 3.2023e-08)
(6.85666e-07 0 3.26767e-08)
(6.63825e-07 0 3.29409e-08)
(6.41765e-07 0 3.3299e-08)
(6.19521e-07 0 3.35799e-08)
(5.97125e-07 0 3.37685e-08)
(5.74607e-07 0 3.40084e-08)
(5.5199e-07 0 3.41095e-08)
(5.29343e-07 0 3.41144e-08)
(5.06711e-07 0 3.41336e-08)
(4.84133e-07 0 3.39903e-08)
(4.6165e-07 0 3.39009e-08)
(4.393e-07 0 3.36829e-08)
(4.17097e-07 0 3.35539e-08)
(3.95077e-07 0 3.32323e-08)
(3.73284e-07 0 3.28808e-08)
(3.51775e-07 0 3.25016e-08)
(3.30553e-07 0 3.21143e-08)
(3.09617e-07 0 3.17045e-08)
(2.88986e-07 0 3.12653e-08)
(2.68698e-07 0 3.07845e-08)
(2.48737e-07 0 3.0341e-08)
(2.29112e-07 0 2.98599e-08)
(2.0986e-07 0 2.93706e-08)
(1.91e-07 0 2.87915e-08)
(1.72516e-07 0 2.82138e-08)
(1.54431e-07 0 2.75408e-08)
(1.36774e-07 0 2.6717e-08)
(1.19519e-07 0 2.55366e-08)
(1.0233e-07 0 2.32598e-08)
(8.55363e-08 0 1.762e-08)
(5.51522e-08 0 1.67047e-09)
(3.4771e-08 0 6.65282e-08)
(-1.00843e-11 0 6.50209e-08)
(6.33538e-16 0 -8.86285e-17)
(3.04143e-16 0 -5.06648e-19)
(6.0013e-16 0 2.11965e-18)
(5.98951e-16 0 4.95274e-18)
(5.9648e-16 0 7.79618e-18)
(5.92303e-16 0 1.05569e-17)
(5.8643e-16 0 1.31832e-17)
(5.78902e-16 0 1.56647e-17)
(5.69772e-16 0 1.79602e-17)
(5.59112e-16 0 2.00281e-17)
(5.47066e-16 0 2.19099e-17)
(5.3378e-16 0 2.3554e-17)
(5.19376e-16 0 2.50119e-17)
(5.03918e-16 0 2.62526e-17)
(4.87592e-16 0 2.7297e-17)
(4.70542e-16 0 2.81448e-17)
(4.52809e-16 0 2.87962e-17)
(4.3459e-16 0 2.92925e-17)
(4.15979e-16 0 2.96337e-17)
(3.97016e-16 0 2.98509e-17)
(3.77794e-16 0 2.99336e-17)
(3.58428e-16 0 2.98922e-17)
(3.38948e-16 0 2.97475e-17)
(3.19447e-16 0 2.95304e-17)
(2.99987e-16 0 2.92305e-17)
(2.8059e-16 0 2.88583e-17)
(2.61296e-16 0 2.84757e-17)
(2.42085e-16 0 2.80104e-17)
(2.23039e-16 0 2.75348e-17)
(2.0421e-16 0 2.70385e-17)
(1.85557e-16 0 2.65525e-17)
(1.67049e-16 0 2.60459e-17)
(1.48737e-16 0 2.55599e-17)
(1.30633e-16 0 2.50532e-17)
(1.12672e-16 0 2.46086e-17)
(9.4888e-17 0 2.41744e-17)
(7.72587e-17 0 2.37918e-17)
(5.97224e-17 0 2.34609e-17)
(4.22793e-17 0 2.31404e-17)
(2.48981e-17 0 2.28715e-17)
(8.10637e-18 0 2.25407e-17)
(2.7065e-08 0 -1.34469e-07)
(8.15147e-08 0 -1.3334e-07)
(1.34105e-07 0 -1.31641e-07)
(1.8693e-07 0 -1.28977e-07)
(2.38107e-07 0 -1.25659e-07)
(2.87676e-07 0 -1.2185e-07)
(3.35564e-07 0 -1.17718e-07)
(3.81679e-07 0 -1.13451e-07)
(4.26022e-07 0 -1.09176e-07)
(4.68646e-07 0 -1.0496e-07)
(5.09617e-07 0 -1.0087e-07)
(5.49017e-07 0 -9.69858e-08)
(5.8693e-07 0 -9.32708e-08)
(6.23385e-07 0 -8.9333e-08)
(6.58261e-07 0 -8.53501e-08)
(6.91514e-07 0 -8.04285e-08)
(7.23139e-07 0 -7.63394e-08)
(7.53398e-07 0 -7.32611e-08)
(7.81967e-07 0 -6.82805e-08)
(8.0829e-07 0 -6.2273e-08)
(8.32519e-07 0 -5.61147e-08)
(8.54656e-07 0 -5.2608e-08)
(8.74546e-07 0 -4.55146e-08)
(8.91578e-07 0 -3.86224e-08)
(9.05928e-07 0 -3.25144e-08)
(9.17654e-07 0 -2.56543e-08)
(9.26515e-07 0 -1.86939e-08)
(9.32528e-07 0 -1.19594e-08)
(9.3582e-07 0 -5.21545e-09)
(9.36387e-07 0 1.39154e-09)
(9.34333e-07 0 7.60056e-09)
(9.2986e-07 0 1.3356e-08)
(9.23108e-07 0 1.87721e-08)
(9.1432e-07 0 2.35898e-08)
(9.03624e-07 0 2.81496e-08)
(8.91165e-07 0 3.22334e-08)
(8.77175e-07 0 3.58685e-08)
(8.61832e-07 0 3.91404e-08)
(8.45327e-07 0 4.18856e-08)
(8.27818e-07 0 4.43108e-08)
(8.09398e-07 0 4.65367e-08)
(7.90213e-07 0 4.82591e-08)
(7.70381e-07 0 4.98426e-08)
(7.49993e-07 0 5.11712e-08)
(7.29144e-07 0 5.23389e-08)
(7.07938e-07 0 5.33297e-08)
(6.86307e-07 0 5.44169e-08)
(6.64334e-07 0 5.48726e-08)
(6.42145e-07 0 5.5402e-08)
(6.19799e-07 0 5.5846e-08)
(5.97318e-07 0 5.61091e-08)
(5.74723e-07 0 5.64764e-08)
(5.52031e-07 0 5.66142e-08)
(5.29295e-07 0 5.65693e-08)
(5.06562e-07 0 5.65588e-08)
(4.83893e-07 0 5.62824e-08)
(4.61335e-07 0 5.60426e-08)
(4.38937e-07 0 5.5621e-08)
(4.16674e-07 0 5.53138e-08)
(3.94598e-07 0 5.47128e-08)
(3.72754e-07 0 5.40501e-08)
(3.51185e-07 0 5.33407e-08)
(3.29896e-07 0 5.26349e-08)
(3.08914e-07 0 5.18702e-08)
(2.88256e-07 0 5.1046e-08)
(2.67933e-07 0 5.018e-08)
(2.47946e-07 0 4.93345e-08)
(2.28317e-07 0 4.84219e-08)
(2.0904e-07 0 4.7492e-08)
(1.90133e-07 0 4.64941e-08)
(1.71585e-07 0 4.54952e-08)
(1.53363e-07 0 4.44054e-08)
(1.35388e-07 0 4.31875e-08)
(1.17497e-07 0 4.16395e-08)
(9.90796e-08 0 3.94392e-08)
(8.00751e-08 0 3.67284e-08)
(5.03545e-08 0 3.37259e-08)
(3.02398e-08 0 8.11132e-08)
(-9.10214e-12 0 8.8223e-08)
(6.34863e-16 0 -1.49552e-16)
(3.06115e-16 0 -8.89219e-19)
(6.03997e-16 0 4.05319e-18)
(6.02808e-16 0 8.98525e-18)
(6.00233e-16 0 1.38449e-17)
(5.95891e-16 0 1.84565e-17)
(5.89821e-16 0 2.28612e-17)
(5.82066e-16 0 2.69764e-17)
(5.72657e-16 0 3.07918e-17)
(5.61738e-16 0 3.42246e-17)
(5.49413e-16 0 3.73058e-17)
(5.35817e-16 0 4.00252e-17)
(5.21124e-16 0 4.24034e-17)
(5.05407e-16 0 4.43886e-17)
(4.88812e-16 0 4.6074e-17)
(4.71483e-16 0 4.74078e-17)
(4.53543e-16 0 4.84624e-17)
(4.35128e-16 0 4.92379e-17)
(4.16299e-16 0 4.97446e-17)
(3.9715e-16 0 5.00031e-17)
(3.77794e-16 0 5.00548e-17)
(3.58273e-16 0 4.9941e-17)
(3.38658e-16 0 4.96308e-17)
(3.19064e-16 0 4.92069e-17)
(2.99512e-16 0 4.86175e-17)
(2.80052e-16 0 4.79661e-17)
(2.60686e-16 0 4.72113e-17)
(2.41423e-16 0 4.63842e-17)
(2.22367e-16 0 4.55363e-17)
(2.03517e-16 0 4.46471e-17)
(1.84844e-16 0 4.37372e-17)
(1.66367e-16 0 4.28376e-17)
(1.48065e-16 0 4.19587e-17)
(1.2996e-16 0 4.11109e-17)
(1.12062e-16 0 4.03044e-17)
(9.43296e-17 0 3.95392e-17)
(7.6752e-17 0 3.88878e-17)
(5.92985e-17 0 3.83191e-17)
(4.19277e-17 0 3.78332e-17)
(2.46293e-17 0 3.74713e-17)
(8.00297e-18 0 3.72645e-17)
(2.76322e-08 0 -1.88846e-07)
(8.34743e-08 0 -1.87302e-07)
(1.36915e-07 0 -1.8465e-07)
(1.90648e-07 0 -1.80674e-07)
(2.42524e-07 0 -1.7577e-07)
(2.92558e-07 0 -1.70218e-07)
(3.40696e-07 0 -1.64249e-07)
(3.86888e-07 0 -1.58151e-07)
(4.31177e-07 0 -1.52092e-07)
(4.73647e-07 0 -1.46203e-07)
(5.14445e-07 0 -1.40562e-07)
(5.53702e-07 0 -1.3526e-07)
(5.91522e-07 0 -1.30147e-07)
(6.27945e-07 0 -1.24865e-07)
(6.62819e-07 0 -1.19356e-07)
(6.96233e-07 0 -1.12376e-07)
(7.28139e-07 0 -1.07575e-07)
(7.58878e-07 0 -1.02901e-07)
(7.878e-07 0 -9.60398e-08)
(8.14506e-07 0 -8.7197e-08)
(8.39169e-07 0 -7.97649e-08)
(8.61955e-07 0 -7.37237e-08)
(8.82227e-07 0 -6.40331e-08)
(8.99474e-07 0 -5.43144e-08)
(9.14052e-07 0 -4.57988e-08)
(9.25926e-07 0 -3.58956e-08)
(9.34764e-07 0 -2.60575e-08)
(9.40652e-07 0 -1.65485e-08)
(9.43739e-07 0 -7.00559e-09)
(9.43982e-07 0 2.45808e-09)
(9.41539e-07 0 1.11275e-08)
(9.36603e-07 0 1.93177e-08)
(9.29334e-07 0 2.68547e-08)
(9.20031e-07 0 3.36226e-08)
(9.08789e-07 0 4.00763e-08)
(8.95788e-07 0 4.57661e-08)
(8.81273e-07 0 5.08453e-08)
(8.65428e-07 0 5.53674e-08)
(8.48468e-07 0 5.91588e-08)
(8.3052e-07 0 6.2533e-08)
(8.11701e-07 0 6.55728e-08)
(7.92215e-07 0 6.79585e-08)
(7.72124e-07 0 7.01271e-08)
(7.51478e-07 0 7.19938e-08)
(7.30372e-07 0 7.35411e-08)
(7.08986e-07 0 7.48819e-08)
(6.87249e-07 0 7.64426e-08)
(6.65137e-07 0 7.70881e-08)
(6.42772e-07 0 7.77632e-08)
(6.20284e-07 0 7.84192e-08)
(5.97677e-07 0 7.87383e-08)
(5.74934e-07 0 7.92961e-08)
(5.52106e-07 0 7.95215e-08)
(5.29246e-07 0 7.94326e-08)
(5.06395e-07 0 7.94459e-08)
(4.83639e-07 0 7.90324e-08)
(4.60957e-07 0 7.86984e-08)
(4.38418e-07 0 7.81409e-08)
(4.16036e-07 0 7.77023e-08)
(3.93898e-07 0 7.6857e-08)
(3.71976e-07 0 7.59445e-08)
(3.50326e-07 0 7.49689e-08)
(3.28981e-07 0 7.39476e-08)
(3.07962e-07 0 7.28517e-08)
(2.87272e-07 0 7.16987e-08)
(2.66907e-07 0 7.05274e-08)
(2.46874e-07 0 6.93312e-08)
(2.27199e-07 0 6.80978e-08)
(2.07898e-07 0 6.6802e-08)
(1.88959e-07 0 6.54432e-08)
(1.70338e-07 0 6.41096e-08)
(1.52043e-07 0 6.26947e-08)
(1.33995e-07 0 6.12266e-08)
(1.16031e-07 0 5.9713e-08)
(9.77863e-08 0 5.822e-08)
(8.00847e-08 0 5.70179e-08)
(5.75318e-08 0 5.87808e-08)
(3.07646e-08 0 1.01011e-07)
(-8.50946e-12 0 1.09055e-07)
(6.40033e-16 0 -2.13148e-16)
(3.09188e-16 0 -1.28213e-18)
(6.10025e-16 0 5.88332e-18)
(6.08743e-16 0 1.29557e-17)
(6.05962e-16 0 1.98213e-17)
(6.0134e-16 0 2.63974e-17)
(5.9496e-16 0 3.26219e-17)
(5.86833e-16 0 3.84019e-17)
(5.77e-16 0 4.37372e-17)
(5.65626e-16 0 4.85452e-17)
(5.52877e-16 0 5.28465e-17)
(5.38867e-16 0 5.66515e-17)
(5.2374e-16 0 5.99499e-17)
(5.0761e-16 0 6.27106e-17)
(4.90611e-16 0 6.49957e-17)
(4.7292e-16 0 6.68259e-17)
(4.5465e-16 0 6.82527e-17)
(4.35873e-16 0 6.92867e-17)
(4.16723e-16 0 6.99278e-17)
(3.97326e-16 0 7.02276e-17)
(3.77742e-16 0 7.02483e-17)
(3.58004e-16 0 7.00105e-17)
(3.38214e-16 0 6.95245e-17)
(3.18444e-16 0 6.88731e-17)
(2.98757e-16 0 6.80356e-17)
(2.79173e-16 0 6.70637e-17)
(2.59704e-16 0 6.5947e-17)
(2.4042e-16 0 6.47476e-17)
(2.21312e-16 0 6.34861e-17)
(2.02411e-16 0 6.21833e-17)
(1.83727e-16 0 6.08495e-17)
(1.65271e-16 0 5.9557e-17)
(1.47021e-16 0 5.82542e-17)
(1.28957e-16 0 5.70548e-17)
(1.11121e-16 0 5.59174e-17)
(9.35024e-17 0 5.48421e-17)
(7.60179e-17 0 5.39115e-17)
(5.86678e-17 0 5.31153e-17)
(4.14418e-17 0 5.24329e-17)
(2.43088e-17 0 5.19469e-17)
(7.88924e-18 0 5.16471e-17)
(2.84903e-08 0 -2.44927e-07)
(8.61768e-08 0 -2.42731e-07)
(1.40885e-07 0 -2.38966e-07)
(1.9582e-07 0 -2.33474e-07)
(2.48613e-07 0 -2.2671e-07)
(2.99206e-07 0 -2.19153e-07)
(3.47615e-07 0 -2.11143e-07)
(3.93837e-07 0 -2.03045e-07)
(4.37984e-07 0 -1.95085e-07)
(4.80233e-07 0 -1.87447e-07)
(5.20771e-07 0 -1.80248e-07)
(5.59754e-07 0 -1.73636e-07)
(5.97483e-07 0 -1.66965e-07)
(6.33759e-07 0 -1.60692e-07)
(6.68611e-07 0 -1.53412e-07)
(7.02477e-07 0 -1.44003e-07)
(7.34715e-07 0 -1.39833e-07)
(7.66117e-07 0 -1.33402e-07)
(7.95496e-07 0 -1.24038e-07)
(8.22955e-07 0 -1.11467e-07)
(8.48062e-07 0 -1.06061e-07)
(8.71857e-07 0 -9.48313e-08)
(8.92438e-07 0 -8.28934e-08)
(9.10126e-07 0 -7.05098e-08)
(9.25072e-07 0 -5.92693e-08)
(9.37111e-07 0 -4.62098e-08)
(9.45919e-07 0 -3.34276e-08)
(9.5168e-07 0 -2.08432e-08)
(9.54424e-07 0 -8.52341e-09)
(9.54214e-07 0 3.91174e-09)
(9.51254e-07 0 1.51565e-08)
(9.45666e-07 0 2.58931e-08)
(9.37705e-07 0 3.55284e-08)
(9.2766e-07 0 4.429e-08)
(9.15653e-07 0 5.26621e-08)
(9.01906e-07 0 5.9901e-08)
(8.86681e-07 0 6.64311e-08)
(8.70171e-07 0 7.21295e-08)
(8.52603e-07 0 7.6939e-08)
(8.34101e-07 0 8.1251e-08)
(8.14782e-07 0 8.49747e-08)
(7.94854e-07 0 8.79814e-08)
(7.74373e-07 0 9.06937e-08)
(7.53395e-07 0 9.30701e-08)
(7.32015e-07 0 9.49796e-08)
(7.10387e-07 0 9.64389e-08)
(6.88471e-07 0 9.86097e-08)
(6.66205e-07 0 9.95701e-08)
(6.43595e-07 0 1.00234e-07)
(6.20879e-07 0 1.01084e-07)
(5.98125e-07 0 1.01517e-07)
(5.75226e-07 0 1.02195e-07)
(5.52241e-07 0 1.02505e-07)
(5.29242e-07 0 1.02368e-07)
(5.06218e-07 0 1.02381e-07)
(4.83291e-07 0 1.01875e-07)
(4.60442e-07 0 1.0144e-07)
(4.37767e-07 0 1.00721e-07)
(4.15242e-07 0 1.00076e-07)
(3.9298e-07 0 9.89992e-08)
(3.70954e-07 0 9.78247e-08)
(3.49214e-07 0 9.6544e-08)
(3.2778e-07 0 9.52332e-08)
(3.06673e-07 0 9.38229e-08)
(2.8592e-07 0 9.23203e-08)
(2.65506e-07 0 9.08546e-08)
(2.4544e-07 0 8.92805e-08)
(2.25736e-07 0 8.76763e-08)
(2.06417e-07 0 8.60141e-08)
(1.87434e-07 0 8.43378e-08)
(1.68785e-07 0 8.26531e-08)
(1.50489e-07 0 8.09249e-08)
(1.32512e-07 0 7.92087e-08)
(1.14856e-07 0 7.76125e-08)
(9.73401e-08 0 7.64438e-08)
(8.09686e-08 0 7.59891e-08)
(6.10386e-08 0 7.8907e-08)
(3.14145e-08 0 1.29944e-07)
(-7.90049e-12 0 1.32143e-07)
(6.5164e-16 0 -2.822e-16)
(3.13395e-16 0 -1.68538e-18)
(6.18245e-16 0 7.76516e-18)
(6.16756e-16 0 1.70709e-17)
(6.13675e-16 0 2.60252e-17)
(6.08691e-16 0 3.46382e-17)
(6.01836e-16 0 4.27135e-17)
(5.93182e-16 0 5.02099e-17)
(5.8279e-16 0 5.71065e-17)
(5.70858e-16 0 6.33207e-17)
(5.5753e-16 0 6.88731e-17)
(5.4291e-16 0 7.37328e-17)
(5.27173e-16 0 7.79514e-17)
(5.10464e-16 0 8.14359e-17)
(4.92938e-16 0 8.43104e-17)
(4.7475e-16 0 8.65955e-17)
(4.56014e-16 0 8.83532e-17)
(4.36803e-16 0 8.95733e-17)
(4.1724e-16 0 9.03281e-17)
(3.97471e-16 0 9.0659e-17)
(3.77567e-16 0 9.06073e-17)
(3.57559e-16 0 9.02041e-17)
(3.37541e-16 0 8.9501e-17)
(3.17575e-16 0 8.85807e-17)
(2.97702e-16 0 8.74227e-17)
(2.77943e-16 0 8.60682e-17)
(2.5836e-16 0 8.45689e-17)
(2.38973e-16 0 8.29662e-17)
(2.19792e-16 0 8.12498e-17)
(2.00881e-16 0 7.95024e-17)
(1.82218e-16 0 7.7724e-17)
(1.63771e-16 0 7.59972e-17)
(1.45573e-16 0 7.42808e-17)
(1.27613e-16 0 7.26678e-17)
(1.0985e-16 0 7.11375e-17)
(9.23237e-17 0 6.97727e-17)
(7.50149e-17 0 6.85423e-17)
(5.78406e-17 0 6.75186e-17)
(4.07903e-17 0 6.66604e-17)
(2.38538e-17 0 6.60711e-17)
(7.70312e-18 0 6.56781e-17)
(2.96207e-08 0 -3.03212e-07)
(8.9706e-08 0 -3.00305e-07)
(1.46278e-07 0 -2.95227e-07)
(2.02841e-07 0 -2.8788e-07)
(2.56801e-07 0 -2.78846e-07)
(3.08099e-07 0 -2.68844e-07)
(3.56784e-07 0 -2.58414e-07)
(4.02923e-07 0 -2.47971e-07)
(4.46736e-07 0 -2.37942e-07)
(4.88566e-07 0 -2.2848e-07)
(5.28641e-07 0 -2.19717e-07)
(5.67226e-07 0 -2.11732e-07)
(6.04803e-07 0 -2.03579e-07)
(6.40655e-07 0 -1.9677e-07)
(6.75489e-07 0 -1.87474e-07)
(7.09887e-07 0 -1.76923e-07)
(7.42957e-07 0 -1.72389e-07)
(7.75089e-07 0 -1.64024e-07)
(8.04865e-07 0 -1.52643e-07)
(8.33446e-07 0 -1.37716e-07)
(8.59561e-07 0 -1.31755e-07)
(8.8427e-07 0 -1.16897e-07)
(9.05359e-07 0 -1.02276e-07)
(9.23707e-07 0 -8.73278e-08)
(9.39165e-07 0 -7.27909e-08)
(9.51385e-07 0 -5.66381e-08)
(9.60159e-07 0 -4.06707e-08)
(9.65733e-07 0 -2.49439e-08)
(9.68048e-07 0 -9.42923e-09)
(9.67213e-07 0 5.80087e-09)
(9.63546e-07 0 1.99811e-08)
(9.57125e-07 0 3.32016e-08)
(9.48258e-07 0 4.50633e-08)
(9.37246e-07 0 5.58338e-08)
(9.24244e-07 0 6.6123e-08)
(9.0954e-07 0 7.48815e-08)
(8.93379e-07 0 8.2866e-08)
(8.75999e-07 0 8.95739e-08)
(8.57655e-07 0 9.53783e-08)
(8.38455e-07 0 1.00558e-07)
(8.1851e-07 0 1.04909e-07)
(7.98032e-07 0 1.08464e-07)
(7.77111e-07 0 1.11644e-07)
(7.55745e-07 0 1.14481e-07)
(7.34038e-07 0 1.16666e-07)
(7.12061e-07 0 1.18413e-07)
(6.89919e-07 0 1.20624e-07)
(6.67469e-07 0 1.22468e-07)
(6.44642e-07 0 1.22967e-07)
(6.21618e-07 0 1.23942e-07)
(5.98656e-07 0 1.24509e-07)
(5.75558e-07 0 1.25252e-07)
(5.52374e-07 0 1.25662e-07)
(5.29187e-07 0 1.25509e-07)
(5.0593e-07 0 1.2554e-07)
(4.8281e-07 0 1.24854e-07)
(4.59779e-07 0 1.24331e-07)
(4.36938e-07 0 1.23448e-07)
(4.14222e-07 0 1.22621e-07)
(3.91801e-07 0 1.21243e-07)
(3.69618e-07 0 1.1983e-07)
(3.47775e-07 0 1.1817e-07)
(3.26247e-07 0 1.16573e-07)
(3.05089e-07 0 1.14792e-07)
(2.84273e-07 0 1.12928e-07)
(2.63794e-07 0 1.11122e-07)
(2.43685e-07 0 1.09204e-07)
(2.23958e-07 0 1.07207e-07)
(2.04592e-07 0 1.05195e-07)
(1.85571e-07 0 1.03183e-07)
(1.66917e-07 0 1.01126e-07)
(1.48642e-07 0 9.90525e-08)
(1.30796e-07 0 9.69575e-08)
(1.13496e-07 0 9.49664e-08)
(9.64742e-08 0 9.3562e-08)
(8.16102e-08 0 9.19998e-08)
(6.46739e-08 0 9.52698e-08)
(3.23622e-08 0 1.62294e-07)
(-7.39112e-12 0 1.53261e-07)
(6.60739e-16 0 -3.45982e-16)
(3.18812e-16 0 -2.06795e-18)
(6.28781e-16 0 9.75039e-18)
(6.27003e-16 0 2.13723e-17)
(6.23498e-16 0 3.25909e-17)
(6.18007e-16 0 4.32926e-17)
(6.10532e-16 0 5.33015e-17)
(6.01216e-16 0 6.26072e-17)
(5.90111e-16 0 7.10962e-17)
(5.77393e-16 0 7.87683e-17)
(5.63289e-16 0 8.55408e-17)
(5.47924e-16 0 9.14448e-17)
(5.31422e-16 0 9.6501e-17)
(5.13979e-16 0 1.00699e-16)
(4.95781e-16 0 1.04142e-16)
(4.76952e-16 0 1.06841e-16)
(4.57607e-16 0 1.08847e-16)
(4.37847e-16 0 1.10211e-16)
(4.1783e-16 0 1.11039e-16)
(3.97595e-16 0 1.11318e-16)
(3.77256e-16 0 1.11142e-16)
(3.56897e-16 0 1.10511e-16)
(3.3658e-16 0 1.0955e-16)
(3.16366e-16 0 1.08278e-16)
(2.96255e-16 0 1.06717e-16)
(2.76309e-16 0 1.04969e-16)
(2.56612e-16 0 1.03025e-16)
(2.37091e-16 0 1.00916e-16)
(2.17817e-16 0 9.8755e-17)
(1.98885e-16 0 9.65423e-17)
(1.80222e-16 0 9.42883e-17)
(1.61828e-16 0 9.20652e-17)
(1.43692e-16 0 8.98939e-17)
(1.25825e-16 0 8.78466e-17)
(1.08237e-16 0 8.59441e-17)
(9.08865e-17 0 8.42277e-17)
(7.37535e-17 0 8.26974e-17)
(5.68066e-17 0 8.14049e-17)
(4.00045e-17 0 8.0402e-17)
(2.33162e-17 0 7.96885e-17)
(7.49633e-18 0 7.92646e-17)
(3.11489e-08 0 -3.64228e-07)
(9.44604e-08 0 -3.60362e-07)
(1.53498e-07 0 -3.53594e-07)
(2.1222e-07 0 -3.43812e-07)
(2.6762e-07 0 -3.31951e-07)
(3.19666e-07 0 -3.18958e-07)
(3.68486e-07 0 -3.05646e-07)
(4.14359e-07 0 -2.92533e-07)
(4.5763e-07 0 -2.80194e-07)
(4.98678e-07 0 -2.68901e-07)
(5.37828e-07 0 -2.5879e-07)
(5.76138e-07 0 -2.48807e-07)
(6.12941e-07 0 -2.40873e-07)
(6.48368e-07 0 -2.32063e-07)
(6.83665e-07 0 -2.20022e-07)
(7.18216e-07 0 -2.12613e-07)
(7.52683e-07 0 -2.05746e-07)
(7.85326e-07 0 -1.95635e-07)
(8.162e-07 0 -1.80864e-07)
(8.45915e-07 0 -1.66507e-07)
(8.73683e-07 0 -1.57798e-07)
(8.9933e-07 0 -1.39941e-07)
(9.21178e-07 0 -1.2222e-07)
(9.40327e-07 0 -1.05139e-07)
(9.5646e-07 0 -8.66101e-08)
(9.6889e-07 0 -6.72121e-08)
(9.7766e-07 0 -4.77877e-08)
(9.82971e-07 0 -2.87168e-08)
(9.84748e-07 0 -9.62804e-09)
(9.83108e-07 0 8.50048e-09)
(9.78516e-07 0 2.56146e-08)
(9.71027e-07 0 4.15448e-08)
(9.61031e-07 0 5.56013e-08)
(9.488e-07 0 6.85597e-08)
(9.34529e-07 0 8.06786e-08)
(9.18598e-07 0 9.09596e-08)
(9.0129e-07 0 1.00252e-07)
(8.82851e-07 0 1.07986e-07)
(8.63515e-07 0 1.14637e-07)
(8.4345e-07 0 1.20602e-07)
(8.22803e-07 0 1.25441e-07)
(8.01707e-07 0 1.29498e-07)
(7.80239e-07 0 1.33029e-07)
(7.58399e-07 0 1.3633e-07)
(7.36347e-07 0 1.38575e-07)
(7.13972e-07 0 1.40979e-07)
(6.9158e-07 0 1.42583e-07)
(6.68887e-07 0 1.45606e-07)
(6.45931e-07 0 1.46052e-07)
(6.22601e-07 0 1.4695e-07)
(5.99331e-07 0 1.47768e-07)
(5.76004e-07 0 1.48487e-07)
(5.52566e-07 0 1.49066e-07)
(5.29141e-07 0 1.48864e-07)
(5.05587e-07 0 1.48921e-07)
(4.82212e-07 0 1.4808e-07)
(4.58932e-07 0 1.47416e-07)
(4.35877e-07 0 1.46369e-07)
(4.12962e-07 0 1.45323e-07)
(3.90355e-07 0 1.43685e-07)
(3.67994e-07 0 1.41936e-07)
(3.46004e-07 0 1.39972e-07)
(3.24362e-07 0 1.37987e-07)
(3.03088e-07 0 1.3587e-07)
(2.82228e-07 0 1.33593e-07)
(2.61674e-07 0 1.31538e-07)
(2.4156e-07 0 1.29134e-07)
(2.218e-07 0 1.26763e-07)
(2.02406e-07 0 1.24429e-07)
(1.83356e-07 0 1.22072e-07)
(1.64659e-07 0 1.19659e-07)
(1.46349e-07 0 1.17207e-07)
(1.2852e-07 0 1.14643e-07)
(1.11476e-07 0 1.11955e-07)
(9.4857e-08 0 1.09555e-07)
(8.13629e-08 0 1.05284e-07)
(5.64407e-08 0 1.2207e-07)
(2.80637e-08 0 2.06863e-07)
(-6.94431e-12 0 1.67721e-07)
(6.784e-16 0 -4.13955e-16)
(3.25459e-16 0 -2.48154e-18)
(6.41706e-16 0 1.18907e-17)
(6.39607e-16 0 2.59838e-17)
(6.35575e-16 0 3.96013e-17)
(6.29402e-16 0 5.2526e-17)
(6.21171e-16 0 6.46028e-17)
(6.10966e-16 0 7.57594e-17)
(5.98941e-16 0 8.5882e-17)
(5.85303e-16 0 9.49914e-17)
(5.70207e-16 0 1.02984e-16)
(5.5387e-16 0 1.09932e-16)
(5.36458e-16 0 1.15795e-16)
(5.18125e-16 0 1.20675e-16)
(4.99079e-16 0 1.24615e-16)
(4.79444e-16 0 1.27655e-16)
(4.59364e-16 0 1.29847e-16)
(4.38985e-16 0 1.31325e-16)
(4.18347e-16 0 1.32111e-16)
(3.97574e-16 0 1.32225e-16)
(3.7676e-16 0 1.31842e-16)
(3.55967e-16 0 1.30953e-16)
(3.35287e-16 0 1.2964e-16)
(3.14742e-16 0 1.27944e-16)
(2.94404e-16 0 1.25928e-16)
(2.74262e-16 0 1.23695e-16)
(2.54327e-16 0 1.21275e-16)
(2.34702e-16 0 1.18649e-16)
(2.15408e-16 0 1.15971e-16)
(1.96424e-16 0 1.1322e-16)
(1.77751e-16 0 1.1046e-16)
(1.59387e-16 0 1.0774e-16)
(1.41345e-16 0 1.05093e-16)
(1.23653e-16 0 1.02601e-16)
(1.06241e-16 0 1.00285e-16)
(8.9077e-17 0 9.81863e-17)
(7.21922e-17 0 9.63666e-17)
(5.55452e-17 0 9.48259e-17)
(3.90636e-17 0 9.36472e-17)
(2.27061e-17 0 9.2789e-17)
(7.27919e-18 0 9.23237e-17)
(3.31902e-08 0 -4.28898e-07)
(1.00818e-07 0 -4.23718e-07)
(1.63075e-07 0 -4.14646e-07)
(2.24504e-07 0 -4.01654e-07)
(2.81632e-07 0 -3.8614e-07)
(3.3446e-07 0 -3.69395e-07)
(3.83238e-07 0 -3.52523e-07)
(4.28474e-07 0 -3.36368e-07)
(4.70711e-07 0 -3.21508e-07)
(5.10258e-07 0 -3.08557e-07)
(5.48604e-07 0 -2.96258e-07)
(5.85996e-07 0 -2.85722e-07)
(6.21656e-07 0 -2.772e-07)
(6.56635e-07 0 -2.66855e-07)
(6.92776e-07 0 -2.53416e-07)
(7.27789e-07 0 -2.49106e-07)
(7.63311e-07 0 -2.39799e-07)
(7.96394e-07 0 -2.2829e-07)
(8.29956e-07 0 -2.07721e-07)
(8.60096e-07 0 -2.0248e-07)
(8.90745e-07 0 -1.82412e-07)
(9.16659e-07 0 -1.64624e-07)
(9.40222e-07 0 -1.43087e-07)
(9.60363e-07 0 -1.23754e-07)
(9.77211e-07 0 -1.00857e-07)
(9.89916e-07 0 -7.78987e-08)
(9.98758e-07 0 -5.47888e-08)
(1.00374e-06 0 -3.20017e-08)
(1.00476e-06 0 -9.06325e-09)
(1.00213e-06 0 1.22109e-08)
(9.96319e-07 0 3.24018e-08)
(9.87445e-07 0 5.11352e-08)
(9.76055e-07 0 6.75112e-08)
(9.62285e-07 0 8.27126e-08)
(9.46465e-07 0 9.65846e-08)
(9.29027e-07 0 1.08392e-07)
(9.10305e-07 0 1.18877e-07)
(8.90619e-07 0 1.27503e-07)
(8.70142e-07 0 1.34925e-07)
(8.4904e-07 0 1.41507e-07)
(8.27559e-07 0 1.46691e-07)
(8.05761e-07 0 1.51174e-07)
(7.83665e-07 0 1.54929e-07)
(7.61305e-07 0 1.58585e-07)
(7.38894e-07 0 1.60878e-07)
(7.1617e-07 0 1.63864e-07)
(6.93422e-07 0 1.64829e-07)
(6.70393e-07 0 1.68946e-07)
(6.47414e-07 0 1.69551e-07)
(6.23785e-07 0 1.70131e-07)
(6.00026e-07 0 1.71382e-07)
(5.76464e-07 0 1.71934e-07)
(5.52754e-07 0 1.72745e-07)
(5.29063e-07 0 1.72552e-07)
(5.05187e-07 0 1.72585e-07)
(4.81524e-07 0 1.71609e-07)
(4.57921e-07 0 1.70733e-07)
(4.3457e-07 0 1.69546e-07)
(4.11429e-07 0 1.68226e-07)
(3.88604e-07 0 1.664e-07)
(3.66075e-07 0 1.64159e-07)
(3.43886e-07 0 1.61859e-07)
(3.22129e-07 0 1.59533e-07)
(3.00795e-07 0 1.56974e-07)
(2.79797e-07 0 1.54423e-07)
(2.59196e-07 0 1.51875e-07)
(2.39058e-07 0 1.49083e-07)
(2.1928e-07 0 1.4637e-07)
(1.99867e-07 0 1.43698e-07)
(1.80778e-07 0 1.4101e-07)
(1.62013e-07 0 1.38253e-07)
(1.43579e-07 0 1.35437e-07)
(1.25536e-07 0 1.32452e-07)
(1.08114e-07 0 1.29112e-07)
(9.22082e-08 0 1.24982e-07)
(7.75148e-08 0 1.18677e-07)
(5.06589e-08 0 1.51512e-07)
(2.29785e-08 0 2.2917e-07)
(-6.34593e-12 0 1.78249e-07)
(6.89555e-16 0 -4.81986e-16)
(3.33495e-16 0 -2.86411e-18)
(6.57267e-16 0 1.42895e-17)
(6.54724e-16 0 3.1071e-17)
(6.5003e-16 0 4.72217e-17)
(6.43009e-16 0 6.24935e-17)
(6.33786e-16 0 7.67417e-17)
(6.22495e-16 0 8.98111e-17)
(6.09322e-16 0 1.0165e-16)
(5.94505e-16 0 1.12186e-16)
(5.78241e-16 0 1.21409e-16)
(5.60735e-16 0 1.29361e-16)
(5.42186e-16 0 1.3603e-16)
(5.22789e-16 0 1.41489e-16)
(5.0275e-16 0 1.45853e-16)
(4.82195e-16 0 1.4913e-16)
(4.61277e-16 0 1.51477e-16)
(4.40101e-16 0 1.52925e-16)
(4.1874e-16 0 1.53566e-16)
(3.97347e-16 0 1.53483e-16)
(3.75974e-16 0 1.5277e-16)
(3.54685e-16 0 1.51529e-16)
(3.33581e-16 0 1.49782e-16)
(3.12674e-16 0 1.4761e-16)
(2.92026e-16 0 1.45108e-16)
(2.71656e-16 0 1.42296e-16)
(2.51577e-16 0 1.39318e-16)
(2.31807e-16 0 1.36154e-16)
(2.12389e-16 0 1.32887e-16)
(1.93374e-16 0 1.29547e-16)
(1.74752e-16 0 1.26217e-16)
(1.56472e-16 0 1.2295e-16)
(1.38553e-16 0 1.19827e-16)
(1.21017e-16 0 1.1686e-16)
(1.03811e-16 0 1.14089e-16)
(8.69574e-17 0 1.11659e-16)
(7.04034e-17 0 1.09529e-16)
(5.40769e-17 0 1.07751e-16)
(3.79573e-17 0 1.06375e-16)
(2.20133e-17 0 1.05414e-16)
(7.04138e-18 0 1.04907e-16)
(3.59277e-08 0 -4.98495e-07)
(1.09328e-07 0 -4.91504e-07)
(1.75841e-07 0 -4.79184e-07)
(2.40658e-07 0 -4.61869e-07)
(2.99815e-07 0 -4.41534e-07)
(3.53275e-07 0 -4.19994e-07)
(4.01671e-07 0 -3.98675e-07)
(4.45615e-07 0 -3.78954e-07)
(4.85829e-07 0 -3.61578e-07)
(5.23701e-07 0 -3.46116e-07)
(5.60776e-07 0 -3.32167e-07)
(5.9625e-07 0 -3.22048e-07)
(6.3002e-07 0 -3.13778e-07)
(6.66169e-07 0 -2.9852e-07)
(7.01458e-07 0 -2.9181e-07)
(7.38327e-07 0 -2.84587e-07)
(7.73687e-07 0 -2.76201e-07)
(8.09351e-07 0 -2.59925e-07)
(8.44808e-07 0 -2.41622e-07)
(8.77431e-07 0 -2.33938e-07)
(9.09636e-07 0 -2.10884e-07)
(9.37164e-07 0 -1.90199e-07)
(9.62565e-07 0 -1.66338e-07)
(9.84107e-07 0 -1.4247e-07)
(1.00167e-06 0 -1.15978e-07)
(1.01486e-06 0 -8.88138e-08)
(1.02376e-06 0 -6.16264e-08)
(1.02824e-06 0 -3.45386e-08)
(1.02831e-06 0 -7.50858e-09)
(1.02452e-06 0 1.71504e-08)
(1.01717e-06 0 4.09011e-08)
(1.00663e-06 0 6.21044e-08)
(9.93437e-07 0 8.10744e-08)
(9.77718e-07 0 9.86588e-08)
(9.60005e-07 0 1.14145e-07)
(9.40742e-07 0 1.27606e-07)
(9.2035e-07 0 1.38812e-07)
(8.99185e-07 0 1.48361e-07)
(8.77353e-07 0 1.5647e-07)
(8.55069e-07 0 1.63312e-07)
(8.32646e-07 0 1.68763e-07)
(8.10074e-07 0 1.73465e-07)
(7.87308e-07 0 1.77665e-07)
(7.64436e-07 0 1.81057e-07)
(7.4158e-07 0 1.83631e-07)
(7.18585e-07 0 1.86713e-07)
(6.95381e-07 0 1.88523e-07)
(6.72247e-07 0 1.90885e-07)
(6.48892e-07 0 1.9394e-07)
(6.25217e-07 0 1.93842e-07)
(6.00943e-07 0 1.95196e-07)
(5.7703e-07 0 1.95726e-07)
(5.5299e-07 0 1.96681e-07)
(5.2893e-07 0 1.96674e-07)
(5.04739e-07 0 1.96425e-07)
(4.80652e-07 0 1.95621e-07)
(4.56741e-07 0 1.94319e-07)
(4.32977e-07 0 1.93144e-07)
(4.0967e-07 0 1.91167e-07)
(3.86509e-07 0 1.89351e-07)
(3.63772e-07 0 1.86723e-07)
(3.41417e-07 0 1.83842e-07)
(3.19471e-07 0 1.81177e-07)
(2.98024e-07 0 1.78279e-07)
(2.76983e-07 0 1.75231e-07)
(2.5632e-07 0 1.72255e-07)
(2.36191e-07 0 1.69075e-07)
(2.16409e-07 0 1.65992e-07)
(1.96968e-07 0 1.62971e-07)
(1.77858e-07 0 1.59965e-07)
(1.59047e-07 0 1.56914e-07)
(1.40454e-07 0 1.5381e-07)
(1.22041e-07 0 1.5055e-07)
(1.03726e-07 0 1.469e-07)
(8.59513e-08 0 1.42327e-07)
(6.4769e-08 0 1.35246e-07)
(4.62391e-08 0 1.89137e-07)
(1.41825e-08 0 2.36938e-07)
(-5.68911e-12 0 1.89683e-07)
(7.05743e-16 0 -5.34336e-16)
(3.43045e-16 0 -3.12261e-18)
(6.75641e-16 0 1.70503e-17)
(6.72539e-16 0 3.67475e-17)
(6.66997e-16 0 5.56176e-17)
(6.58922e-16 0 7.3433e-17)