/*--------------------------------*- C++ -*----------------------------------*\
  =========                 |
  \\      /  F ield         | OpenFOAM: The Open Source CFD Toolbox
   \\    /   O peration     | Website:  https://openfoam.org
    \\  /    A nd           | Version:  6
     \\/     M anipulation  |
\*---------------------------------------------------------------------------*/
FoamFile
{
    version     2.0;
    format      ascii;
    class       surfaceScalarField;
    location    "4100";
    object      phi;
}
// * * * * * * * * * * * * * * * * * * * * * * * * * * * * * * * * * * * * * //

dimensions      [0 3 -1 0 0 0 0];

internalField   nonuniform List<scalar> 
9440
(
-2.75939e-14
2.75932e-14
-5.51015e-14
2.749e-14
-8.22633e-14
2.71477e-14
-1.08807e-13
2.65306e-14
-1.34468e-13
2.56472e-14
-1.58995e-13
2.45151e-14
-1.82248e-13
2.32415e-14
-2.04088e-13
2.18277e-14
-2.24362e-13
2.02637e-14
-2.42903e-13
1.8529e-14
-2.59682e-13
1.67668e-14
-2.74576e-13
1.48829e-14
-2.87441e-13
1.28542e-14
-2.98659e-13
1.12086e-14
-3.08281e-13
9.61228e-15
-3.16659e-13
8.36701e-15
-3.23441e-13
6.77068e-15
-3.27138e-13
3.68791e-15
-3.29661e-13
2.51542e-15
-3.31706e-13
2.03784e-15
-3.33047e-13
1.33174e-15
-3.30229e-13
-2.82606e-15
-3.28052e-13
-2.18464e-15
-3.24555e-13
-3.50072e-15
-3.19749e-13
-4.81231e-15
-3.14036e-13
-5.71778e-15
-3.0745e-13
-6.5886e-15
-2.99924e-13
-7.52674e-15
-2.91628e-13
-8.29794e-15
-2.82414e-13
-9.21368e-15
-2.72335e-13
-1.00796e-14
-2.61453e-13
-1.08832e-14
-2.4976e-13
-1.16922e-14
-2.37289e-13
-1.24685e-14
-2.23987e-13
-1.32995e-14
-2.09944e-13
-1.40378e-14
-1.95133e-13
-1.4807e-14
-1.79674e-13
-1.54542e-14
-1.6353e-13
-1.61382e-14
-1.46846e-13
-1.66775e-14
-1.29626e-13
-1.72105e-14
-1.1202e-13
-1.75984e-14
-9.41085e-14
-1.79018e-14
-7.59591e-14
-1.81404e-14
-5.7798e-14
-1.8152e-14
-3.96326e-14
-1.81563e-14
-2.16769e-14
-1.79454e-14
-4.07204e-15
-1.75938e-14
1.30188e-14
-1.70783e-14
2.9537e-14
-1.65059e-14
4.52693e-14
-1.57197e-14
6.01368e-14
-1.48549e-14
7.39665e-14
-1.38162e-14
8.66544e-14
-1.26766e-14
9.80915e-14
-1.14259e-14
1.08304e-13
-1.01993e-14
1.17181e-13
-8.8656e-15
1.24689e-13
-7.49559e-15
1.30751e-13
-6.05098e-15
1.35514e-13
-4.75271e-15
1.38941e-13
-3.41604e-15
1.41084e-13
-2.13251e-15
1.42001e-13
-9.07175e-16
1.41776e-13
2.34992e-16
1.40515e-13
1.27076e-15
1.38393e-13
2.13043e-15
1.35421e-13
2.98018e-15
1.31774e-13
3.6548e-15
1.27659e-13
4.12302e-15
1.23313e-13
4.35338e-15
1.18916e-13
4.4034e-15
1.14868e-13
4.05709e-15
1.11775e-13
3.101e-15
1.11183e-13
5.97382e-16
1.17012e-13
-5.82227e-15
1.41603e-13
-2.45841e-14
2.23636e-13
-8.20257e-14
1.01082e-13
1.2256e-13
-4.55392e-18
1.01093e-13
7.27927e-22
2.64695e-23
7.29056e-22
2.58494e-25
7.26833e-22
2.22305e-24
7.22801e-22
4.3944e-24
7.16494e-22
6.51405e-24
7.07912e-22
8.5303e-24
6.97365e-22
1.04949e-23
6.84906e-22
1.23043e-23
6.70585e-22
1.39587e-23
6.54817e-22
1.55096e-23
6.37601e-22
1.68538e-23
6.19248e-22
1.80429e-23
5.99654e-22
1.91286e-23
5.79388e-22
2.01108e-23
5.5814e-22
2.08346e-23
5.36375e-22
2.1455e-23
5.14093e-22
2.1972e-23
4.91345e-22
2.22305e-23
4.68288e-22
2.23339e-23
4.45127e-22
2.2489e-23
4.21862e-22
2.25407e-23
3.98546e-22
2.2489e-23
3.7523e-22
2.22822e-23
3.52069e-22
2.20237e-23
3.29115e-22
2.17652e-23
3.0616e-22
2.12999e-23
2.83671e-22
2.0938e-23
2.61286e-22
2.0421e-23
2.39262e-22
1.99557e-23
2.176e-22
1.94387e-23
1.96249e-22
1.88701e-23
1.75156e-22
1.83014e-23
1.54424e-22
1.77327e-23
1.34003e-22
1.72674e-23
1.13892e-22
1.68021e-23
9.41435e-23
1.63368e-23
7.4498e-23
1.58715e-23
5.50592e-23
1.55096e-23
3.59824e-23
1.51477e-23
1.74742e-23
1.45791e-23
1.33383e-23
-2.70704e-14
5.46457e-14
-5.54596e-14
5.58511e-14
-8.34526e-14
5.51172e-14
-1.1054e-13
5.35959e-14
-1.3651e-13
5.15943e-14
-1.61323e-13
4.93049e-14
-1.8479e-13
4.66881e-14
-2.06735e-13
4.37494e-14
-2.27005e-13
4.05104e-14
-2.45593e-13
3.70967e-14
-2.62284e-13
3.34369e-14
-2.77038e-13
2.96151e-14
-2.89834e-13
2.56305e-14
-3.00877e-13
2.2232e-14
-3.1037e-13
1.90876e-14
-3.18939e-13
1.69209e-14
-3.25136e-13
1.29525e-14
-3.28716e-13
7.25099e-15
-3.31234e-13
5.01817e-15
-3.33367e-13
4.15717e-15
-3.34064e-13
2.01799e-15
-3.31584e-13
-5.31577e-15
-3.29217e-13
-4.56239e-15
-3.25707e-13
-7.01916e-15
-3.207e-13
-9.82601e-15
-3.14969e-13
-1.14527e-14
-3.08374e-13
-1.31903e-14
-3.00847e-13
-1.50531e-14
-2.92453e-13
-1.66952e-14
-2.83209e-13
-1.84554e-14
-2.73138e-13
-2.01485e-14
-2.62258e-13
-2.17574e-14
-2.5052e-13
-2.34245e-14
-2.38007e-13
-2.49752e-14
-2.24787e-13
-2.65123e-14
-2.10632e-13
-2.81833e-14
-1.9581e-13
-2.96179e-14
-1.80293e-13
-3.09593e-14
-1.64114e-13
-3.23064e-14
-1.4733e-13
-3.34505e-14
-1.30059e-13
-3.44683e-14
-1.12326e-13
-3.53153e-14
-9.42972e-14
-3.59155e-14
-7.60739e-14
-3.63474e-14
-5.76997e-14
-3.65092e-14
-3.94247e-14
-3.64136e-14
-2.13096e-14
-3.60429e-14
-3.57351e-15
-3.53088e-14
1.37356e-14
-3.43675e-14
3.03674e-14
-3.31168e-14
4.62375e-14
-3.15676e-14
6.11683e-14
-2.97648e-14
7.50828e-14
-2.77095e-14
8.78722e-14
-2.54446e-14
9.94138e-14
-2.29464e-14
1.09675e-13
-2.04411e-14
1.18558e-13
-1.77296e-14
1.26047e-13
-1.49616e-14
1.32124e-13
-1.21078e-14
1.36845e-13
-9.45526e-15
1.40209e-13
-6.76186e-15
1.42338e-13
-4.24414e-15
1.43171e-13
-1.72233e-15
1.42859e-13
5.64997e-16
1.41523e-13
2.61913e-15
1.392e-13
4.46645e-15
1.36044e-13
6.1502e-15
1.32249e-13
7.46391e-15
1.27998e-13
8.38753e-15
1.23396e-13
8.96904e-15
1.18623e-13
9.18734e-15
1.13895e-13
8.79618e-15
1.09492e-13
7.51518e-15
1.05245e-13
4.85581e-15
9.99068e-14
-4.71141e-16
8.57384e-14
-1.04026e-14
3.13413e-14
-2.7618e-14
2.7755e-14
1.2616e-13
-3.39806e-18
1.2886e-13
7.34544e-22
-1.98531e-23
7.31021e-22
-1.55096e-25
7.28953e-22
4.3427e-24
7.24972e-22
8.7371e-24
7.1851e-22
1.29764e-23
7.09876e-22
1.71123e-23
6.99174e-22
2.09897e-23
6.86457e-22
2.45569e-23
6.72136e-22
2.78656e-23
6.56213e-22
3.09676e-23
6.38842e-22
3.36559e-23
6.20282e-22
3.60858e-23
6.00637e-22
3.80503e-23
5.8006e-22
3.98598e-23
5.58812e-22
4.13073e-23
5.36892e-22
4.25998e-23
5.14403e-22
4.34787e-23
4.915e-22
4.39957e-23
4.68391e-22
4.43059e-23
4.45178e-22
4.4461e-23
4.2181e-22
4.42542e-23
3.98339e-22
4.38406e-23
3.75023e-22
4.33236e-23
3.51707e-22
4.26515e-23
3.28753e-22
4.18243e-23
3.05747e-22
4.08937e-23
2.83206e-22
3.98598e-23
2.6082e-22
3.87741e-23
2.38693e-22
3.76367e-23
2.17032e-22
3.63443e-23
1.95732e-22
3.51035e-23
1.74587e-22
3.38627e-23
1.53959e-22
3.2777e-23
1.33486e-22
3.1588e-23
1.13375e-22
3.0554e-23
9.36782e-23
2.95717e-23
7.40327e-23
2.86928e-23
5.46973e-23
2.7969e-23
3.54654e-23
2.72453e-23
1.61817e-23
2.67283e-23
2.64698e-23
-2.92574e-14
8.38911e-14
-5.72415e-14
8.38114e-14
-8.47105e-14
8.25639e-14
-1.11642e-13
8.05082e-14
-1.37759e-13
7.76888e-14
-1.62706e-13
7.42327e-14
-1.86388e-13
7.0353e-14
-2.08564e-13
6.59063e-14
-2.29148e-13
6.10775e-14
-2.47918e-13
5.58462e-14
-2.64897e-13
5.03954e-14
-2.79792e-13
4.4492e-14
-2.9277e-13
3.85911e-14
-3.03916e-13
3.33588e-14
-3.13664e-13
2.88181e-14
-3.22672e-13
2.59154e-14
-3.28064e-13
1.83302e-14
-3.31441e-13
1.06148e-14
-3.34237e-13
7.80255e-15
-3.36671e-13
6.57739e-15
-3.35916e-13
1.24965e-15
-3.33951e-13
-7.29149e-15
-3.31417e-13
-7.10617e-15
-3.27752e-13
-1.06914e-14
-3.22515e-13
-1.5072e-14
-3.16827e-13
-1.71436e-14
-3.1015e-13
-1.98738e-14
-3.02579e-13
-2.2625e-14
-2.94173e-13
-2.51025e-14
-2.84918e-13
-2.77112e-14
-2.7486e-13
-3.02056e-14
-2.63929e-13
-3.26848e-14
-2.52173e-13
-3.51774e-14
-2.39604e-13
-3.75378e-14
-2.2627e-13
-3.98399e-14
-2.12112e-13
-4.23329e-14
-1.97228e-13
-4.44961e-14
-1.81615e-13
-4.65634e-14
-1.6525e-13
-4.86605e-14
-1.48313e-13
-5.03758e-14
-1.30863e-13
-5.19074e-14
-1.12968e-13
-5.31997e-14
-9.46591e-14
-5.421e-14
-7.618e-14
-5.48115e-14
-5.75444e-14
-5.51301e-14
-3.903e-14
-5.49124e-14
-2.06535e-14
-5.44024e-14
-2.60927e-15
-5.3335e-14
1.4952e-14
-5.19084e-14
3.18802e-14
-5.00273e-14
4.79919e-14
-4.76613e-14
6.32063e-14
-4.49608e-14
7.73435e-14
-4.18265e-14
9.02759e-14
-3.83575e-14
1.0195e-13
-3.46013e-14
1.12364e-13
-3.08349e-14
1.2133e-13
-2.66786e-14
1.2884e-13
-2.24567e-14
1.34935e-13
-1.81829e-14
1.39576e-13
-1.40799e-14
1.42872e-13
-1.00432e-14
1.44765e-13
-6.12361e-15
1.45412e-13
-2.35327e-15
1.44937e-13
1.05509e-15
1.43314e-13
4.25722e-15
1.40709e-13
7.08504e-15
1.37337e-13
9.53608e-15
1.33238e-13
1.15756e-14
1.28585e-13
1.30528e-14
1.23543e-13
1.40223e-14
1.18189e-13
1.45542e-14
1.12693e-13
1.43077e-14
1.06795e-13
1.34258e-14
9.98981e-14
1.17648e-14
8.96249e-14
9.81142e-15
6.97131e-14
9.51956e-15
2.36203e-14
1.84884e-14
1.79043e-14
1.31887e-13
-3.28522e-18
1.46778e-13
7.31236e-22
-2.64699e-23
7.35467e-22
-5.16988e-26
7.33399e-22
6.72084e-24
7.2916e-22
1.32349e-23
7.22646e-22
1.96972e-23
7.13702e-22
2.57977e-23
7.02793e-22
3.16914e-23
6.89817e-22
3.71197e-23
6.7529e-22
4.20828e-23
6.58953e-22
4.66323e-23
6.41168e-22
5.07165e-23
6.2235e-22
5.43871e-23
6.02343e-22
5.75408e-23
5.8156e-22
6.02291e-23
5.60053e-22
6.23487e-23
5.37771e-22
6.40031e-23
5.14868e-22
6.51922e-23
4.91811e-22
6.60711e-23
4.68546e-22
6.65363e-23
4.45023e-22
6.6588e-23
4.21397e-22
6.63296e-23
3.97874e-22
6.57092e-23
3.74299e-22
6.4882e-23
3.50931e-22
6.37963e-23
3.27822e-22
6.25555e-23
3.04713e-22
6.09529e-23
2.82069e-22
5.93502e-23
2.59631e-22
5.74891e-23
2.37453e-22
5.56279e-23
2.15842e-22
5.38701e-23
1.94491e-22
5.19573e-23
1.73501e-22
5.00444e-23
1.52718e-22
4.81833e-23
1.32504e-22
4.64772e-23
1.12445e-22
4.48746e-23
9.27993e-23
4.35304e-23
7.33089e-23
4.21345e-23
5.39218e-23
4.11005e-23
3.50001e-23
4.02734e-23
1.59232e-23
3.95496e-23
3.91877e-23
-2.96104e-14
1.13487e-13
-5.8487e-14
1.12664e-13
-8.67301e-14
1.10784e-13
-1.14263e-13
1.08021e-13
-1.40887e-13
1.04295e-13
-1.66406e-13
9.97296e-14
-1.90545e-13
9.4472e-14
-2.13134e-13
8.84753e-14
-2.34021e-13
8.19457e-14
-2.53145e-13
7.49526e-14
-2.70204e-13
6.7438e-14
-2.85186e-13
5.94592e-14
-2.98448e-13
5.18362e-14
-3.09355e-13
4.42489e-14
-3.19248e-13
3.86939e-14
-3.2869e-13
3.5341e-14
-3.32665e-13
2.22917e-14
-3.35841e-13
1.37778e-14
-3.38869e-13
1.08167e-14
-3.42112e-13
9.80792e-15
-3.38413e-13
-2.45876e-15
-3.37718e-13
-7.99498e-15
-3.34697e-13
-1.01378e-14
-3.30754e-13
-1.46421e-14
-3.254e-13
-2.04319e-14
-3.19639e-13
-2.29099e-14
-3.12828e-13
-2.66857e-14
-3.05183e-13
-3.02722e-14
-2.96737e-13
-3.35485e-14
-2.87492e-13
-3.6954e-14
-2.77359e-13
-4.03369e-14
-2.6638e-13
-4.36623e-14
-2.54608e-13
-4.69433e-14
-2.4199e-13
-5.01545e-14
-2.28618e-13
-5.32064e-14
-2.1438e-13
-5.65646e-14
-1.99363e-13
-5.95044e-14
-1.83575e-13
-6.23441e-14
-1.67078e-13
-6.51457e-14
-1.49895e-13
-6.75474e-14
-1.32109e-13
-6.96811e-14
-1.13897e-13
-7.13985e-14
-9.53271e-14
-7.27664e-14
-7.64373e-14
-7.36861e-14
-5.74555e-14
-7.40974e-14
-3.84342e-14
-7.39187e-14
-1.96165e-14
-7.32039e-14
-1.13225e-15
-7.18016e-14
1.68465e-14
-6.98699e-14
3.41842e-14
-6.73468e-14
5.0708e-14
-6.41673e-14
6.62467e-14
-6.04825e-14
8.07099e-14
-5.62736e-14
9.39781e-14
-5.1608e-14
1.05911e-13
-4.65142e-14
1.16421e-13
-4.13259e-14
1.25441e-13
-3.56827e-14
1.33006e-13
-3.00053e-14
1.39086e-13
-2.42455e-14
1.43646e-13
-1.86231e-14
1.46739e-13
-1.31222e-14
1.48499e-13
-7.86923e-15
1.48914e-13
-2.75429e-15
1.48087e-13
1.89379e-15
1.46144e-13
6.21496e-15
1.4317e-13
1.0074e-14
1.39346e-13
1.33743e-14
1.34757e-13
1.61761e-14
1.29587e-13
1.82369e-14
1.23951e-13
1.9672e-14
1.17996e-13
2.05215e-14
1.11754e-13
2.05607e-14
1.05201e-13
1.99909e-14
9.7832e-14
1.9146e-14
8.89273e-14
1.87289e-14
7.7993e-14
2.04661e-14
6.90359e-14
2.74575e-14
1.65647e-14
1.8437e-13
-3.66989e-18
1.63355e-13
7.37853e-22
-7.90144e-28
7.42188e-22
2.58494e-25
7.39913e-22
9.20239e-24
7.35622e-22
1.80429e-23
7.28798e-22
2.65732e-23
7.19596e-22
3.4845e-23
7.0817e-22
4.26515e-23
6.94832e-22
4.9941e-23
6.79736e-22
5.66619e-23
6.62985e-22
6.2814e-23
6.44839e-22
6.82941e-23
6.25452e-22
7.31538e-23
6.05031e-22
7.7238e-23
5.83679e-22
8.07018e-23
5.61707e-22
8.35452e-23
5.39012e-22
8.57166e-23
5.15695e-22
8.7371e-23
4.92276e-22
8.84566e-23
4.6865e-22
8.90253e-23
4.44713e-22
8.89736e-23
4.20828e-22
8.85083e-23
3.97047e-22
8.76295e-23
3.73214e-22
8.63887e-23
3.49691e-22
8.48894e-23
3.26219e-22
8.30283e-23
3.0311e-22
8.1012e-23
2.80259e-22
7.87373e-23
2.57822e-22
7.63074e-23
2.35695e-22
7.37742e-23
2.13878e-22
7.12409e-23
1.92578e-22
6.8656e-23
1.71588e-22
6.60711e-23
1.51116e-22
6.35895e-23
1.30901e-22
6.12631e-23
1.10997e-22
5.904e-23
9.14552e-23
5.70238e-23
7.22749e-23
5.53694e-23
5.3043e-23
5.39218e-23
3.4328e-23
5.28362e-23
1.55613e-23
5.20607e-23
5.15954e-23
-3.03102e-14
1.43783e-13
-6.02251e-14
1.42555e-13
-8.95791e-14
1.40118e-13
-1.18047e-13
1.36467e-13
-1.45544e-13
1.3177e-13
-1.71825e-13
1.25989e-13
-1.96606e-13
1.19235e-13
-2.19778e-13
1.11629e-13
-2.41116e-13
1.03265e-13
-2.60471e-13
9.42892e-14
-2.77693e-13
8.46411e-14
-2.92845e-13
7.45938e-14
-3.06228e-13
6.52028e-14
-3.16782e-13
5.47865e-14
-3.27318e-13
4.92152e-14
-3.3572e-13
4.37283e-14
-3.38989e-13
2.5547e-14
-3.42295e-13
1.70703e-14
-3.45411e-13
1.39196e-14
-3.48004e-13
1.23874e-14
-3.4299e-13
-7.48488e-15
-3.42499e-13
-8.49498e-15
-3.39142e-13
-1.35045e-14
-3.34576e-13
-1.92152e-14
-3.29262e-13
-2.57534e-14
-3.23255e-13
-2.89265e-14
-3.16296e-13
-3.36481e-14
-3.08559e-13
-3.80154e-14
-3.00104e-13
-4.20048e-14
-2.90781e-13
-4.62772e-14
-2.80618e-13
-5.04993e-14
-2.69715e-13
-5.45625e-14
-2.57928e-13
-5.87276e-14
-2.45269e-13
-6.28089e-14
-2.3183e-13
-6.66415e-14
-2.17413e-13
-7.09747e-14
-2.02264e-13
-7.46483e-14
-1.86202e-13
-7.83983e-14
-1.6944e-13
-8.18973e-14
-1.52008e-13
-8.49705e-14
-1.33907e-13
-8.77702e-14
-1.15248e-13
-9.00462e-14
-9.62118e-14
-9.17902e-14
-7.67973e-14
-9.30847e-14
-5.72528e-14
-9.36273e-14
-3.7671e-14
-9.34847e-14
-1.82681e-14
-9.25914e-14
8.4032e-16
-9.08919e-14
1.94022e-14
-8.84163e-14
3.7304e-14
-8.52324e-14
5.44437e-14
-8.12897e-14
7.04848e-14
-7.65034e-14
8.54385e-14
-7.12131e-14
9.90301e-14
-6.51809e-14
1.11224e-13
-5.86926e-14
1.2198e-13
-5.20645e-14
1.31119e-13
-4.48066e-14
1.38725e-13
-3.75941e-14
1.44756e-13
-3.02623e-14
1.49208e-13
-2.30583e-14
1.52093e-13
-1.5991e-14
1.53539e-13
-9.29821e-15
1.53558e-13
-2.75975e-15
1.52347e-13
3.11914e-15
1.49972e-13
8.5994e-15
1.46426e-13
1.36332e-14
1.42011e-13
1.78029e-14
1.36863e-13
2.13365e-14
1.31037e-13
2.40771e-14
1.24647e-13
2.6074e-14
1.1803e-13
2.71514e-14
1.11157e-13
2.74457e-14
1.04251e-13
2.69113e-14
9.74791e-14
2.59308e-14
9.09782e-14
2.52405e-14
8.57034e-14
2.5753e-14
7.87119e-14
3.4462e-14
1.59018e-14
2.47192e-13
-3.97433e-18
1.79272e-13
7.51088e-22
1.98522e-23
7.51183e-22
3.61892e-25
7.48754e-22
1.17873e-23
7.44152e-22
2.29543e-23
7.37018e-22
3.38627e-23
7.27402e-22
4.42025e-23
7.15511e-22
5.40252e-23
7.01553e-22
6.3331e-23
6.85888e-22
7.18613e-23
6.68517e-22
7.95127e-23
6.49647e-22
8.63887e-23
6.2964e-22
9.23857e-23
6.08495e-22
9.75556e-23
5.86575e-22
1.01898e-22
5.63879e-22
1.05362e-22
5.40614e-22
1.0805e-22
5.16781e-22
1.09912e-22
4.92793e-22
1.11152e-22
4.6865e-22
1.11721e-22
4.44248e-22
1.11566e-22
4.20001e-22
1.10946e-22
3.95754e-22
1.09808e-22
3.71663e-22
1.0805e-22
3.47881e-22
1.05983e-22
3.24151e-22
1.03501e-22
3.00784e-22
1.00813e-22
2.77829e-22
9.79175e-23
2.55289e-22
9.48673e-23
2.3311e-22
9.1662e-23
2.11345e-22
8.84049e-23
1.89993e-22
8.50445e-23
1.69107e-22
8.17358e-23
1.48789e-22
7.85822e-23
1.28627e-22
7.55836e-23
1.09033e-22
7.28953e-23
8.97491e-23
7.04655e-23
7.0879e-23
6.82941e-23
5.19573e-23
6.64329e-23
3.35525e-23
6.51405e-23
1.51477e-23
6.41582e-23
6.37446e-23
-3.15169e-14
1.75284e-13
-6.2647e-14
1.73659e-13
-9.31518e-14
1.706e-13
-1.22787e-13
1.6608e-13
-1.51351e-13
1.60312e-13
-1.78579e-13
1.53196e-13
-2.04196e-13
1.44833e-13
-2.28087e-13
1.35502e-13
-2.50009e-13
1.25171e-13
-2.6967e-13
1.13931e-13
-2.8708e-13
1.02034e-13
-3.02846e-13
9.0343e-14
-3.15461e-13
7.78013e-14
-3.26597e-13
6.59073e-14
-3.38639e-13
6.12438e-14
-3.43208e-13
4.82821e-14
-3.46882e-13
2.9206e-14
-3.50461e-13
2.06348e-14
-3.54224e-13
1.76696e-14
-3.53113e-13
1.12644e-14
-3.49698e-13
-1.09134e-14
-3.48165e-13
-1.00392e-14
-3.44557e-13
-1.71218e-14
-3.39185e-13
-2.45955e-14
-3.34052e-13
-3.0895e-14
-3.2767e-13
-3.53144e-14
-3.20628e-13
-4.06984e-14
-3.12826e-13
-4.58225e-14
-3.04311e-13
-5.0523e-14
-2.94922e-13
-5.56698e-14
-2.84794e-13
-6.06266e-14
-2.73824e-13
-6.55313e-14
-2.6201e-13
-7.05377e-14
-2.49309e-13
-7.55044e-14
-2.35727e-13
-8.02176e-14
-2.21293e-13
-8.54014e-14
-2.05958e-13
-8.99778e-14
-1.89652e-13
-9.46978e-14
-1.72581e-13
-9.89598e-14
-1.54757e-13
-1.02785e-13
-1.36209e-13
-1.06308e-13
-1.17022e-13
-1.09221e-13
-9.73407e-14
-1.11458e-13
-7.73297e-14
-1.13083e-13
-5.71031e-14
-1.1384e-13
-3.67859e-14
-1.13786e-13
-1.66758e-14
-1.12686e-13
3.16964e-15
-1.10722e-13
2.25807e-14
-1.0781e-13
4.12915e-14
-1.03926e-13
5.90539e-14
-9.90341e-14
7.58298e-14
-9.3263e-14
9.13462e-14
-8.67134e-14
1.05412e-13
-7.92323e-14
1.18064e-13
-7.13279e-14
1.2906e-13
-6.30444e-14
1.38398e-13
-5.41262e-14
1.4602e-13
-4.51996e-14
1.52013e-13
-3.6241e-14
1.56255e-13
-2.72848e-14
1.58829e-13
-1.85514e-14
1.5998e-13
-1.04353e-14
1.59611e-13
-2.37418e-15
1.57802e-13
4.94152e-15
1.54788e-13
1.16263e-14
1.50668e-13
1.77697e-14
1.45598e-13
2.28844e-14
1.39675e-13
2.7274e-14
1.33015e-13
3.07491e-14
1.2586e-13
3.32422e-14
1.18331e-13
3.46933e-14
1.10696e-13
3.5096e-14
1.03331e-13
3.42888e-14
9.68485e-14
3.24303e-14
9.23209e-14
2.97822e-14
9.09544e-14
2.71346e-14
7.80529e-14
4.73782e-14
1.8978e-15
3.23363e-13
-5.02671e-18
1.81189e-13
7.64323e-22
1.0588e-22
7.62609e-22
8.78879e-25
7.59869e-22
1.46825e-23
7.55113e-22
2.84343e-23
7.47358e-22
4.15658e-23
7.37276e-22
5.42837e-23
7.24765e-22
6.62262e-23
7.10083e-22
7.73931e-23
6.93591e-22
8.77329e-23
6.75341e-22
9.69869e-23
6.55696e-22
1.05207e-22
6.34758e-22
1.1229e-22
6.12786e-22
1.18442e-22
5.90038e-22
1.23664e-22
5.66567e-22
1.27748e-22
5.42475e-22
1.30798e-22
5.18074e-22
1.32918e-22
4.93362e-22
1.34158e-22
4.68494e-22
1.34675e-22
4.43627e-22
1.34365e-22
4.18915e-22
1.33435e-22
3.941e-22
1.31884e-22
3.69543e-22
1.29764e-22
3.45348e-22
1.27127e-22
3.21463e-22
1.24077e-22
2.97888e-22
1.20768e-22
2.74779e-22
1.17046e-22
2.52083e-22
1.1322e-22
2.29853e-22
1.09291e-22
2.07984e-22
1.05259e-22
1.86736e-22
1.01175e-22
1.66005e-22
9.73488e-23
1.45739e-22
9.34714e-23
1.25938e-22
8.98525e-23
1.06551e-22
8.64404e-23
8.75778e-23
8.35452e-23
6.90696e-23
8.09603e-23
5.06648e-23
7.8789e-23
3.25185e-23
7.71863e-23
1.47859e-23
7.61006e-23
7.55319e-23
-3.2991e-14
2.0826e-13
-6.55863e-14
2.06228e-13
-9.75239e-14
2.02516e-13
-1.28584e-13
1.9712e-13
-1.58429e-13
1.90135e-13
-1.86861e-13
1.81608e-13
-2.13549e-13
1.71501e-13
-2.38308e-13
1.60241e-13
-2.60825e-13
1.4767e-13
-2.80888e-13
1.33976e-13
-2.99104e-13
1.20234e-13
-3.14854e-13
1.06075e-13
-3.26594e-13
8.95253e-14
-3.39732e-13
7.90321e-14
-3.51832e-13
7.33299e-14
-3.52611e-13
4.90447e-14
-3.56706e-13
3.32881e-14
-3.60456e-13
2.43697e-14
-3.66119e-13
2.33185e-14
-3.57043e-13
2.17617e-15
-3.58327e-13
-9.64067e-15
-3.54853e-13
-1.3528e-14
-3.50957e-13
-2.10285e-14
-3.44612e-13
-3.09511e-14
-3.39631e-13
-3.58847e-14
-3.32939e-13
-4.20144e-14
-3.2572e-13
-4.79253e-14
-3.17822e-13
-5.37248e-14
-3.09209e-13
-5.914e-14
-2.99886e-13
-6.49927e-14
-2.89769e-13
-7.07446e-14
-2.78833e-13
-7.6467e-14
-2.67019e-13
-8.23495e-14
-2.54293e-13
-8.82291e-14
-2.4068e-13
-9.38283e-14
-2.26044e-13
-1.00033e-13
-2.10527e-13
-1.05489e-13
-1.93985e-13
-1.11233e-13
-1.7652e-13
-1.16418e-13
-1.58187e-13
-1.21111e-13
-1.39087e-13
-1.25402e-13
-1.19227e-13
-1.29069e-13
-9.88662e-14
-1.31807e-13
-7.81083e-14
-1.33827e-13
-5.69939e-14
-1.34943e-13
-3.5797e-14
-1.34967e-13
-1.46305e-14
-1.33838e-13
6.2036e-15
-1.3154e-13
2.65694e-14
-1.28162e-13
4.61784e-14
-1.23518e-13
6.48765e-14
-1.17717e-13
8.24121e-14
-1.10782e-13
9.86244e-14
-1.02912e-13
1.13314e-13
-9.39041e-14
1.26503e-13
-8.45014e-14
1.37789e-13
-7.4315e-14
1.47384e-13
-6.37075e-14
1.55071e-13
-5.28707e-14
1.6093e-13
-4.20863e-14
1.64941e-13
-3.12803e-14
1.67288e-13
-2.08837e-14
1.67887e-13
-1.10184e-14
1.66896e-13
-1.37159e-15
1.64557e-13
7.29713e-15
1.60796e-13
1.54013e-14
1.55917e-13
2.26629e-14
1.49966e-13
2.88481e-14
1.43171e-13
3.40834e-14
1.35563e-13
3.83725e-14
1.27302e-13
4.15183e-14
1.18633e-13
4.3378e-14
1.09838e-13
4.39052e-14
1.01376e-13
4.27667e-14
9.42667e-14
3.95551e-14
8.984e-14
3.42259e-14
9.01818e-14
2.68092e-14
8.37914e-15
1.29197e-13
-4.7799e-15
3.36537e-13
-5.96161e-18
1.7643e-13
7.77558e-22
1.65438e-22
7.76464e-22
1.39587e-24
7.73569e-22
1.79395e-23
7.68244e-22
3.41212e-23
7.60076e-22
4.98376e-23
7.49167e-22
6.49337e-23
7.35984e-22
7.90992e-23
7.20371e-22
9.2334e-23
7.02793e-22
1.04432e-22
6.83561e-22
1.15288e-22
6.6283e-22
1.24956e-22
6.40962e-22
1.33331e-22
6.17956e-22
1.40466e-22
5.94174e-22
1.46256e-22
5.69617e-22
1.50857e-22
5.44595e-22
1.54269e-22
5.19314e-22
1.56596e-22
4.93879e-22
1.57785e-22
4.68184e-22
1.58095e-22
4.42645e-22
1.5763e-22
4.17313e-22
1.56285e-22
3.91929e-22
1.54218e-22
3.66958e-22
1.51581e-22
3.42298e-22
1.48272e-22
3.18154e-22
1.44602e-22
2.94218e-22
1.40466e-22
2.70902e-22
1.36175e-22
2.48206e-22
1.31522e-22
2.2582e-22
1.26662e-22
2.039e-22
1.21854e-22
1.82807e-22
1.17149e-22
1.62179e-22
1.12341e-22
1.42068e-22
1.07844e-22
1.2263e-22
1.03604e-22
1.03708e-22
9.97787e-23
8.49928e-23
9.62115e-23
6.68465e-23
9.32646e-23
4.90105e-23
9.07314e-23
3.15363e-23
8.88702e-23
1.42172e-23
8.76812e-23
8.71125e-23
-3.48021e-14
2.43047e-13
-6.91858e-14
2.40583e-13
-1.02871e-13
2.36178e-13
-1.35603e-13
2.2983e-13
-1.66992e-13
2.21502e-13
-1.96771e-13
2.11362e-13
-2.24783e-13
1.99492e-13
-2.50559e-13
1.85997e-13
-2.73801e-13
1.70894e-13
-2.94884e-13
1.55037e-13
-3.13823e-13
1.39156e-13
-3.28252e-13
1.20489e-13
-3.41224e-13
1.02482e-13
-3.57579e-13
9.53728e-14
-3.63268e-13
7.90046e-14
-3.65505e-13
5.12679e-14
-3.68944e-13
3.6713e-14
-3.73674e-13
2.90865e-14
-3.75593e-13
2.52269e-14
-3.65267e-13
-8.16562e-15
-3.67544e-13
-7.37877e-15
-3.62611e-13
-1.8474e-14
-3.57458e-13
-2.61921e-14
-3.51481e-13
-3.69389e-14
-3.45718e-13
-4.16582e-14
-3.38872e-13
-4.88702e-14
-3.31389e-13
-5.54162e-14
-3.23554e-13
-6.15672e-14
-3.14941e-13
-6.77591e-14
-3.05632e-13
-7.43058e-14
-2.95635e-13
-8.07438e-14
-2.847e-13
-8.73999e-14
-2.72944e-13
-9.41054e-14
-2.602e-13
-1.00969e-13
-2.46521e-13
-1.07504e-13
-2.31895e-13
-1.14656e-13
-2.15997e-13
-1.21378e-13
-1.99159e-13
-1.28063e-13
-1.81301e-13
-1.34269e-13
-1.62419e-13
-1.39983e-13
-1.42729e-13
-1.45082e-13
-1.22172e-13
-1.49616e-13
-1.00894e-13
-1.53075e-13
-7.91421e-14
-1.55564e-13
-5.70958e-14
-1.56977e-13
-3.47379e-14
-1.57312e-13
-1.23986e-14
-1.56163e-13
9.65662e-15
-1.53581e-13
3.11207e-14
-1.49613e-13
5.19322e-14
-1.44315e-13
7.17439e-14
-1.37515e-13
9.03949e-14
-1.29419e-13
1.07432e-13
-1.19933e-13
1.22935e-13
-1.09391e-13
1.36633e-13
-9.81853e-14
1.48308e-13
-8.59761e-14
1.58094e-13
-7.34766e-14
1.6588e-13
-6.06421e-14
1.71631e-13
-4.78228e-14
1.75401e-13
-3.50346e-14
1.7732e-13
-2.27887e-14
1.77402e-13
-1.10847e-14
1.75748e-13
2.96615e-16
1.72532e-13
1.05277e-14
1.67963e-13
1.99873e-14
1.6222e-13
2.84215e-14
1.55311e-13
3.57704e-14
1.47375e-13
4.20334e-14
1.38651e-13
4.71129e-14
1.29197e-13
5.09891e-14
1.19148e-13
5.34451e-14
1.08697e-13
5.43734e-14
9.81556e-14
5.3327e-14
8.851e-14
4.922e-14
8.32709e-14
3.9482e-14
9.3725e-14
1.63762e-14
-2.55232e-14
2.48468e-13
-1.7247e-17
3.11049e-13
-7.02022e-18
1.76437e-13
7.9741e-22
2.64701e-22
7.92956e-22
1.96455e-24
7.89751e-22
2.12482e-23
7.84064e-22
4.017e-23
7.7512e-22
5.85747e-23
7.63333e-22
7.63074e-23
7.49219e-22
9.29544e-23
7.3252e-22
1.08257e-22
7.13702e-22
1.22319e-22
6.93177e-22
1.34779e-22
6.71205e-22
1.45842e-22
6.48044e-22
1.55355e-22
6.23798e-22
1.63316e-22
5.98724e-22
1.69727e-22
5.73029e-22
1.74845e-22
5.4687e-22
1.78516e-22
5.20503e-22
1.80946e-22
4.94189e-22
1.82187e-22
4.67667e-22
1.82135e-22
4.41301e-22
1.81204e-22
4.15193e-22
1.79395e-22
3.89292e-22
1.76706e-22
3.63701e-22
1.73449e-22
3.38627e-22
1.69624e-22
3.13967e-22
1.65178e-22
2.89875e-22
1.6037e-22
2.663e-22
1.55096e-22
2.43346e-22
1.49616e-22
2.20961e-22
1.44085e-22
1.99195e-22
1.38398e-22
1.78051e-22
1.32814e-22
1.57681e-22
1.27386e-22
1.37829e-22
1.22268e-22
1.187e-22
1.17356e-22
1.00141e-22
1.12807e-22
8.2046e-23
1.08774e-22
6.4365e-23
1.05362e-22
4.71493e-23
1.0257e-22
3.02955e-23
1.00502e-22
1.36485e-23
9.91066e-23
9.85896e-23
-3.69778e-14
2.8001e-13
-7.35128e-14
2.7709e-13
-1.09248e-13
2.7189e-13
-1.43912e-13
2.64474e-13
-1.77185e-13
2.54753e-13
-2.08613e-13
2.4277e-13
-2.38065e-13
2.28922e-13
-2.65104e-13
2.13016e-13
-2.89512e-13
1.95284e-13
-3.11847e-13
1.77353e-13
-3.30427e-13
1.57717e-13
-3.43879e-13
1.33924e-13
-3.61324e-13
1.1991e-13
-3.76479e-13
1.10511e-13
-3.75597e-13
7.81075e-14
-3.81158e-13
5.68148e-14
-3.84502e-13
4.00424e-14
-3.89481e-13
3.40521e-14
-3.79588e-13
1.53205e-14
-3.80018e-13
-7.74731e-15
-3.75897e-13
-1.15121e-14
-3.71619e-13
-2.27636e-14
-3.64268e-13
-3.35557e-14
-3.59317e-13
-4.19009e-14
-3.5244e-13
-4.85478e-14
-3.45319e-13
-5.59994e-14
-3.37815e-13
-6.2928e-14
-3.29934e-13
-6.94552e-14
-3.21308e-13
-7.63895e-14
-3.12158e-13
-8.34607e-14
-3.02238e-13
-9.06666e-14
-2.91529e-13
-9.81116e-14
-2.79805e-13
-1.05828e-13
-2.67144e-13
-1.13627e-13
-2.53465e-13
-1.21179e-13
-2.38658e-13
-1.29458e-13
-2.22495e-13
-1.37537e-13
-2.05427e-13
-1.45125e-13
-1.87088e-13
-1.52602e-13
-1.676e-13
-1.59462e-13
-1.47093e-13
-1.6558e-13
-1.25766e-13
-1.70934e-13
-1.03516e-13
-1.75314e-13
-8.0534e-14
-1.78535e-13
-5.71633e-14
-1.80335e-13
-3.35872e-14
-1.80875e-13
-9.86824e-15
-1.79868e-13
1.36677e-14
-1.771e-13
3.66245e-14
-1.72556e-13
5.87703e-14
-1.66446e-13
7.99353e-14
-1.58666e-13
9.96611e-14
-1.4913e-13
1.1774e-13
-1.38e-13
1.34311e-13
-1.25949e-13
1.48646e-13
-1.12507e-13
1.60877e-13
-9.81925e-14
1.70934e-13
-8.3521e-14
1.78801e-13
-6.8493e-14
1.84353e-13
-5.33612e-14
1.87829e-13
-3.84974e-14
1.89181e-13
-2.41244e-14
1.88489e-13
-1.03772e-14
1.86112e-13
2.68913e-15
1.81949e-13
1.47079e-14
1.76405e-13
2.55478e-14
1.69609e-13
3.52352e-14
1.61539e-13
4.38587e-14
1.52504e-13
5.1085e-14
1.42468e-13
5.71644e-14
1.31679e-13
6.17948e-14
1.20086e-13
6.50585e-14
1.07647e-13
6.68331e-14
9.41927e-14
6.68039e-14
7.89947e-14
6.44403e-14
6.0429e-14
5.80696e-14
3.12144e-14
4.56109e-14
-1.17097e-14
2.91414e-13
1.23913e-15
2.98124e-13
-7.88742e-18
1.77704e-13
8.13954e-22
3.90434e-22
8.12291e-22
2.94683e-24
8.08724e-22
2.51773e-23
8.02469e-22
4.70459e-23
7.92801e-22
6.83458e-23
7.80031e-22
8.856e-23
7.64522e-22
1.0774e-22
7.46582e-22
1.25318e-22
7.26213e-22
1.41293e-22
7.04293e-22
1.55613e-22
6.80718e-22
1.68124e-22
6.56006e-22
1.78774e-22
6.30208e-22
1.8746e-22
6.0379e-22
1.94594e-22
5.76752e-22
2.00023e-22
5.49351e-22
2.03797e-22
5.21693e-22
2.06123e-22
4.94137e-22
2.07054e-22
4.66737e-22
2.06847e-22
4.39491e-22
2.05451e-22
4.12608e-22
2.03125e-22
3.86035e-22
1.99764e-22
3.59824e-22
1.9568e-22
3.34233e-22
1.91027e-22
3.09159e-22
1.85857e-22
2.84602e-22
1.80067e-22
2.6082e-22
1.74122e-22
2.37711e-22
1.67814e-22
2.15274e-22
1.61404e-22
1.93664e-22
1.54941e-22
1.72622e-22
1.48531e-22
1.52511e-22
1.42378e-22
1.32969e-22
1.36433e-22
1.14151e-22
1.30901e-22
9.61081e-23
1.25731e-22
7.85822e-23
1.2113e-22
6.15733e-23
1.17305e-22
4.50813e-23
1.14254e-22
2.89513e-23
1.11928e-22
1.31315e-23
1.10532e-22
1.10015e-22
-3.95246e-14
3.1952e-13
-7.8475e-14
3.16013e-13
-1.1661e-13
3.10001e-13
-1.5362e-13
3.01461e-13
-1.89037e-13
2.90146e-13
-2.2249e-13
2.762e-13
-2.53899e-13
2.6031e-13
-2.81629e-13
2.40724e-13
-3.0846e-13
2.22095e-13
-3.3181e-13
2.00682e-13
-3.4704e-13
1.72928e-13
-3.6694e-13
1.53806e-13
-3.87634e-13
1.40589e-13
-3.8921e-13
1.12072e-13
-3.95296e-13
8.41818e-14
-3.97876e-13
5.93821e-14
-4.06477e-13
4.86298e-14
-3.99245e-13
2.68099e-14
-3.916e-13
7.66051e-15
-3.92954e-13
-6.40347e-15
-3.86528e-13
-1.79504e-14
-3.80198e-13
-2.91048e-14
-3.7292e-13
-4.08463e-14
-3.67036e-13
-4.7798e-14
-3.59651e-13
-5.59429e-14
-3.52318e-13
-6.33431e-14
-3.44794e-13
-7.04616e-14
-3.36792e-13
-7.74629e-14
-3.28329e-13
-8.48618e-14
-3.19332e-13
-9.24613e-14
-3.09668e-13
-1.00334e-13
-2.99109e-13
-1.08673e-13
-2.87686e-13
-1.17249e-13
-2.75116e-13
-1.26195e-13
-2.61543e-13
-1.34748e-13
-2.46459e-13
-1.44538e-13
-2.30188e-13
-1.53805e-13
-2.12622e-13
-1.62685e-13
-1.93925e-13
-1.71292e-13
-1.73839e-13
-1.7954e-13
-1.52508e-13
-1.86901e-13
-1.30071e-13
-1.9336e-13
-1.0675e-13
-1.98625e-13
-8.25194e-14
-2.02754e-13
-5.75939e-14
-2.05248e-13
-3.2406e-14
-2.06051e-13
-7.03772e-15
-2.05223e-13
1.80732e-14
-2.02199e-13
4.278e-14
-1.97251e-13
6.66894e-14
-1.90342e-13
8.93863e-14
-1.8135e-13
1.10562e-13
-1.70294e-13
1.30187e-13
-1.57609e-13
1.4766e-13
-1.43408e-13
1.62729e-13
-1.2756e-13
1.7566e-13
-1.1111e-13
1.86003e-13
-9.38507e-14
1.93904e-13
-7.63779e-14
1.9922e-13
-5.86646e-14
2.02206e-13
-4.14681e-14
2.02923e-13
-2.4827e-14
2.01466e-13
-8.90452e-15
1.98074e-13
6.09739e-15
1.92928e-13
1.98697e-14
1.86228e-13
3.22655e-14
1.78123e-13
4.33588e-14
1.68845e-13
5.31541e-14
1.58437e-13
6.15138e-14
1.47114e-13
6.85085e-14
1.34915e-13
7.40138e-14
1.21811e-13
7.81848e-14
1.07652e-13
8.10138e-14
9.17317e-14
8.27486e-14
7.24227e-14
8.37736e-14
4.5e-14
8.55177e-14
-7.40794e-15
9.80449e-14
-4.35439e-15
2.88388e-13
-1.11655e-15
2.94911e-13
-8.81074e-18
1.76619e-13
8.33806e-22
5.02932e-22
8.34522e-22
3.82571e-24
8.30489e-22
2.94683e-23
8.23769e-22
5.45939e-23
8.13067e-22
7.89958e-23
7.99212e-22
1.0226e-22
7.82151e-22
1.23974e-22
7.62506e-22
1.43981e-22
7.40482e-22
1.62024e-22
7.16752e-22
1.78051e-22
6.91368e-22
1.91803e-22
6.64795e-22
2.0359e-22
6.37343e-22
2.13258e-22
6.09219e-22
2.20806e-22
5.80474e-22
2.26337e-22
5.51626e-22
2.30111e-22
5.22726e-22
2.32283e-22
4.9393e-22
2.32955e-22
4.65393e-22
2.32179e-22
4.37165e-22
2.30266e-22
4.09248e-22
2.27164e-22
3.81951e-22
2.23287e-22
3.55171e-22
2.18324e-22
3.29011e-22
2.12792e-22
3.03369e-22
2.06692e-22
2.78656e-22
2.00126e-22
2.54565e-22
1.93198e-22
2.31352e-22
1.86012e-22
2.08811e-22
1.78826e-22
1.87253e-22
1.71537e-22
1.66418e-22
1.64299e-22
1.46618e-22
1.57371e-22
1.27438e-22
1.5065e-22
1.08981e-22
1.44498e-22
9.15069e-23
1.3876e-22
7.47048e-23
1.33796e-22
5.85747e-23
1.29454e-22
4.27549e-23
1.2599e-22
2.75555e-23
1.23508e-22
1.25628e-23
1.22061e-22
1.21544e-22