/*--------------------------------*- C++ -*----------------------------------*\
  =========                 |
  \\      /  F ield         | OpenFOAM: The Open Source CFD Toolbox
   \\    /   O peration     | Website:  https://openfoam.org
    \\  /    A nd           | Version:  6
     \\/     M anipulation  |
\*---------------------------------------------------------------------------*/
FoamFile
{
    version     2.0;
    format      ascii;
    class       volVectorField;
    location    "4100";
    object      U;
}
// * * * * * * * * * * * * * * * * * * * * * * * * * * * * * * * * * * * * * //

dimensions      [0 1 -1 0 0 0 0];

internalField   nonuniform List<vector> 
4800
(
(-4.75803e-09 0 6.06091e-09)
(-1.68359e-08 0 3.30988e-09)
(-2.76192e-08 0 2.2766e-09)
(-3.83936e-08 0 1.97992e-09)
(-4.88627e-08 0 1.93142e-09)
(-5.8924e-08 0 1.97698e-09)
(-6.84958e-08 0 2.0678e-09)
(-7.7524e-08 0 2.16267e-09)
(-8.59487e-08 0 2.22878e-09)
(-9.37083e-08 0 2.24475e-09)
(-1.00768e-07 0 2.22416e-09)
(-1.07101e-07 0 2.13762e-09)
(-1.12674e-07 0 1.97441e-09)
(-1.17511e-07 0 1.82306e-09)
(-1.21667e-07 0 1.64131e-09)
(-1.2522e-07 0 1.48664e-09)
(-1.28221e-07 0 1.25253e-09)
(-1.30193e-07 0 6.92897e-10)
(-1.31403e-07 0 4.84327e-10)
(-1.32411e-07 0 4.16783e-10)
(-1.32923e-07 0 3.00817e-10)
(-1.32471e-07 0 -5.273e-10)
(-1.3154e-07 0 -3.71481e-10)
(-1.30401e-07 0 -6.25295e-10)
(-1.2873e-07 0 -8.59682e-10)
(-1.26625e-07 0 -1.03724e-09)
(-1.24182e-07 0 -1.19554e-09)
(-1.21378e-07 0 -1.37111e-09)
(-1.18222e-07 0 -1.51676e-09)
(-1.14734e-07 0 -1.69243e-09)
(-1.10886e-07 0 -1.86063e-09)
(-1.06707e-07 0 -2.01838e-09)
(-1.02204e-07 0 -2.17973e-09)
(-9.73821e-08 0 -2.33682e-09)
(-9.22308e-08 0 -2.503e-09)
(-8.67673e-08 0 -2.65297e-09)
(-8.10034e-08 0 -2.81179e-09)
(-7.496e-08 0 -2.94611e-09)
(-6.86321e-08 0 -3.08754e-09)
(-6.20759e-08 0 -3.20218e-09)
(-5.52986e-08 0 -3.31522e-09)
(-4.83313e-08 0 -3.39952e-09)
(-4.12323e-08 0 -3.46712e-09)
(-3.40227e-08 0 -3.52137e-09)
(-2.67631e-08 0 -3.53089e-09)
(-1.94938e-08 0 -3.53927e-09)
(-1.22741e-08 0 -3.50353e-09)
(-5.16259e-09 0 -3.43999e-09)
(1.77729e-09 0 -3.34382e-09)
(8.49819e-09 0 -3.23625e-09)
(1.49487e-08 0 -3.08571e-09)
(2.10676e-08 0 -2.91959e-09)
(2.68064e-08 0 -2.71853e-09)
(3.211e-08 0 -2.49666e-09)
(3.6937e-08 0 -2.25255e-09)
(4.12659e-08 0 -2.01227e-09)
(4.5091e-08 0 -1.7513e-09)
(4.83632e-08 0 -1.48272e-09)
(5.1088e-08 0 -1.19961e-09)
(5.32508e-08 0 -9.45092e-10)
(5.48948e-08 0 -6.83522e-10)
(5.60088e-08 0 -4.32319e-10)
(5.6621e-08 0 -1.93314e-10)
(5.67602e-08 0 2.82892e-11)
(5.64627e-08 0 2.28516e-10)
(5.57863e-08 0 3.93396e-10)
(5.47677e-08 0 5.55626e-10)
(5.34464e-08 0 6.82854e-10)
(5.18938e-08 0 7.70927e-10)
(5.02038e-08 0 8.10309e-10)
(4.8457e-08 0 8.15566e-10)
(4.67726e-08 0 7.49675e-10)
(4.53591e-08 0 5.7066e-10)
(4.46451e-08 0 1.05752e-10)
(4.58188e-08 0 -1.13355e-09)
(5.21963e-08 0 -4.78733e-09)
(6.96668e-08 0 -1.73127e-08)
(4.58262e-08 0 1.39855e-08)
(-4.01747e-12 0 1.96822e-08)
(2.78977e-16 0 5.3146e-18)
(1.47381e-16 0 5.16988e-20)
(2.91178e-16 0 4.4461e-19)
(2.89927e-16 0 8.78879e-19)
(2.87859e-16 0 1.30281e-18)
(2.84881e-16 0 1.70606e-18)
(2.81055e-16 0 2.09897e-18)
(2.76454e-16 0 2.46086e-18)
(2.71098e-16 0 2.79173e-18)
(2.6508e-16 0 3.10193e-18)
(2.58484e-16 0 3.37076e-18)
(2.5137e-16 0 3.60858e-18)
(2.4378e-16 0 3.82571e-18)
(2.35809e-16 0 4.02217e-18)
(2.27506e-16 0 4.16692e-18)
(2.18903e-16 0 4.291e-18)
(2.10094e-16 0 4.3944e-18)
(2.01088e-16 0 4.4461e-18)
(1.91927e-16 0 4.46678e-18)
(1.82683e-16 0 4.4978e-18)
(1.73398e-16 0 4.50813e-18)
(1.64082e-16 0 4.4978e-18)
(1.54755e-16 0 4.45644e-18)
(1.4546e-16 0 4.40474e-18)
(1.36237e-16 0 4.35304e-18)
(1.27055e-16 0 4.25998e-18)
(1.17966e-16 0 4.1876e-18)
(1.08991e-16 0 4.0842e-18)
(1.0011e-16 0 3.99115e-18)
(9.13724e-17 0 3.88775e-18)
(8.27698e-17 0 3.77401e-18)
(7.42808e-17 0 3.66027e-18)
(6.5916e-17 0 3.54654e-18)
(5.76855e-17 0 3.45348e-18)
(4.95791e-17 0 3.36042e-18)
(4.16072e-17 0 3.26736e-18)
(3.37283e-17 0 3.17431e-18)
(2.59114e-17 0 3.10193e-18)
(1.82083e-17 0 3.02955e-18)
(1.06913e-17 0 2.91581e-18)
(3.49484e-18 0 2.66766e-18)
(-4.67687e-09 0 1.69019e-08)
(-1.67603e-08 0 1.8947e-08)
(-2.79546e-08 0 1.9354e-08)
(-3.90018e-08 0 1.90045e-08)
(-4.96412e-08 0 1.82958e-08)
(-5.9823e-08 0 1.73777e-08)
(-6.9498e-08 0 1.63088e-08)
(-7.85881e-08 0 1.51219e-08)
(-8.70313e-08 0 1.38418e-08)
(-9.48003e-08 0 1.25034e-08)
(-1.0185e-07 0 1.11344e-08)
(-1.08137e-07 0 9.74232e-09)
(-1.13659e-07 0 8.32272e-09)
(-1.18439e-07 0 7.14494e-09)
(-1.22554e-07 0 6.06756e-09)
(-1.26097e-07 0 5.24795e-09)
(-1.28998e-07 0 4.21346e-09)
(-1.30849e-07 0 2.30507e-09)
(-1.32066e-07 0 1.57499e-09)
(-1.33043e-07 0 1.30328e-09)
(-1.33459e-07 0 8.00693e-10)
(-1.32951e-07 0 -1.67148e-09)
(-1.32047e-07 0 -1.31996e-09)
(-1.30856e-07 0 -2.10215e-09)
(-1.2914e-07 0 -2.9073e-09)
(-1.27001e-07 0 -3.44634e-09)
(-1.24552e-07 0 -3.96261e-09)
(-1.21743e-07 0 -4.52629e-09)
(-1.18566e-07 0 -5.01437e-09)
(-1.15056e-07 0 -5.5543e-09)
(-1.11207e-07 0 -6.06837e-09)
(-1.07028e-07 0 -6.55219e-09)
(-1.02514e-07 0 -7.04939e-09)
(-9.76805e-08 0 -7.51585e-09)
(-9.25343e-08 0 -7.98913e-09)
(-8.70637e-08 0 -8.47108e-09)
(-8.12785e-08 0 -8.91191e-09)
(-7.52214e-08 0 -9.30991e-09)
(-6.88726e-08 0 -9.71352e-09)
(-6.22918e-08 0 -1.00502e-08)
(-5.54833e-08 0 -1.036e-08)
(-4.84791e-08 0 -1.06061e-08)
(-4.13355e-08 0 -1.07848e-08)
(-3.40843e-08 0 -1.09171e-08)
(-2.67668e-08 0 -1.09498e-08)
(-1.94346e-08 0 -1.09307e-08)
(-1.21607e-08 0 -1.08125e-08)
(-4.99103e-09 0 -1.05938e-08)
(2.01884e-09 0 -1.03009e-08)
(8.80651e-09 0 -9.93407e-09)
(1.53067e-08 0 -9.46534e-09)
(2.14659e-08 0 -8.92934e-09)
(2.7235e-08 0 -8.30836e-09)
(3.25759e-08 0 -7.62537e-09)
(3.74432e-08 0 -6.87478e-09)
(4.18036e-08 0 -6.12511e-09)
(4.56392e-08 0 -5.3147e-09)
(4.89094e-08 0 -4.48468e-09)
(5.16341e-08 0 -3.62341e-09)
(5.37906e-08 0 -2.83019e-09)
(5.54137e-08 0 -2.02119e-09)
(5.65129e-08 0 -1.25752e-09)
(5.71057e-08 0 -5.0414e-10)
(5.72108e-08 0 1.86328e-10)
(5.68805e-08 0 8.10579e-10)
(5.615e-08 0 1.3574e-09)
(5.50546e-08 0 1.87019e-09)
(5.36661e-08 0 2.27315e-09)
(5.20566e-08 0 2.56085e-09)
(5.02875e-08 0 2.72827e-09)
(4.84122e-08 0 2.78978e-09)
(4.65102e-08 0 2.64924e-09)
(4.4678e-08 0 2.21114e-09)
(4.29307e-08 0 1.20763e-09)
(4.09529e-08 0 -1.09233e-09)
(3.76579e-08 0 -6.80879e-09)
(2.26885e-08 0 -2.28572e-08)
(1.53939e-08 0 5.2562e-08)
(-3.43113e-12 0 4.4117e-08)
(2.89211e-16 0 1.29016e-18)
(1.47801e-16 0 2.06795e-20)
(2.91995e-16 0 1.31315e-18)
(2.90785e-16 0 2.6263e-18)
(2.88696e-16 0 3.89809e-18)
(2.85677e-16 0 5.12852e-18)
(2.8181e-16 0 6.29691e-18)
(2.77126e-16 0 7.37225e-18)
(2.71719e-16 0 8.36486e-18)
(2.6567e-16 0 9.29544e-18)
(2.59011e-16 0 1.01019e-17)
(2.51825e-16 0 1.08257e-17)
(2.44184e-16 0 1.14358e-17)
(2.36139e-16 0 1.19941e-17)
(2.27775e-16 0 1.24284e-17)
(2.19141e-16 0 1.2811e-17)
(2.10259e-16 0 1.30901e-17)
(2.01181e-16 0 1.32452e-17)
(1.91978e-16 0 1.33279e-17)
(1.82714e-16 0 1.339e-17)
(1.73398e-16 0 1.3359e-17)
(1.6403e-16 0 1.32659e-17)
(1.54672e-16 0 1.31212e-17)
(1.45346e-16 0 1.2935e-17)
(1.36092e-16 0 1.27179e-17)
(1.269e-16 0 1.24387e-17)
(1.17791e-16 0 1.21596e-17)
(1.08805e-16 0 1.1839e-17)
(9.99027e-17 0 1.15185e-17)
(9.1145e-17 0 1.11566e-17)
(8.25526e-17 0 1.07947e-17)
(7.40637e-17 0 1.04328e-17)
(6.57092e-17 0 1.01019e-17)
(5.74891e-17 0 9.77107e-18)
(4.93723e-17 0 9.47122e-18)
(4.14107e-17 0 9.18171e-18)
(3.35422e-17 0 8.91287e-18)
(2.5746e-17 0 8.69574e-18)
(1.80325e-17 0 8.4786e-18)
(1.03294e-17 0 8.26147e-18)
(3.23634e-18 0 7.96161e-18)
(-5.07836e-09 0 2.75564e-08)
(-1.76033e-08 0 2.74258e-08)
(-2.85699e-08 0 2.69236e-08)
(-3.94992e-08 0 2.62094e-08)
(-5.01513e-08 0 2.52799e-08)
(-6.03957e-08 0 2.41805e-08)
(-7.01418e-08 0 2.29436e-08)
(-7.93248e-08 0 2.15342e-08)
(-8.78781e-08 0 1.99907e-08)
(-9.57433e-08 0 1.83338e-08)
(-1.02885e-07 0 1.6583e-08)
(-1.09258e-07 0 1.47086e-08)
(-1.14829e-07 0 1.27668e-08)
(-1.19658e-07 0 1.10985e-08)
(-1.23877e-07 0 9.56824e-09)
(-1.27502e-07 0 8.55468e-09)
(-1.30293e-07 0 6.3552e-09)
(-1.31983e-07 0 3.67218e-09)
(-1.33291e-07 0 2.61258e-09)
(-1.34264e-07 0 2.13294e-09)
(-1.34467e-07 0 8.26191e-10)
(-1.33822e-07 0 -2.54978e-09)
(-1.3297e-07 0 -2.29383e-09)
(-1.31693e-07 0 -3.51254e-09)
(-1.299e-07 0 -4.93021e-09)
(-1.27742e-07 0 -5.70303e-09)
(-1.25277e-07 0 -6.58488e-09)
(-1.22443e-07 0 -7.51352e-09)
(-1.19257e-07 0 -8.3393e-09)
(-1.15743e-07 0 -9.21068e-09)
(-1.11892e-07 0 -1.00489e-08)
(-1.07706e-07 0 -1.08702e-08)
(-1.03181e-07 0 -1.1703e-08)
(-9.83292e-08 0 -1.24868e-08)
(-9.31511e-08 0 -1.3257e-08)
(-8.76583e-08 0 -1.40894e-08)
(-8.18589e-08 0 -1.48097e-08)
(-7.57707e-08 0 -1.54937e-08)
(-6.93627e-08 0 -1.61842e-08)
(-6.27171e-08 0 -1.67571e-08)
(-5.58425e-08 0 -1.72663e-08)
(-4.87672e-08 0 -1.76964e-08)
(-4.15366e-08 0 -1.8017e-08)
(-3.41786e-08 0 -1.82255e-08)
(-2.67576e-08 0 -1.83226e-08)
(-1.93246e-08 0 -1.82596e-08)
(-1.19508e-08 0 -1.80833e-08)
(-4.66765e-09 0 -1.77233e-08)
(2.45484e-09 0 -1.72504e-08)
(9.35186e-09 0 -1.66245e-08)
(1.59598e-08 0 -1.58415e-08)
(2.22246e-08 0 -1.49422e-08)
(2.80938e-08 0 -1.39042e-08)
(3.35083e-08 0 -1.27572e-08)
(3.84308e-08 0 -1.1508e-08)
(4.2849e-08 0 -1.02523e-08)
(4.67307e-08 0 -8.88179e-09)
(5.00214e-08 0 -7.48524e-09)
(5.27569e-08 0 -6.058e-09)
(5.48987e-08 0 -4.70962e-09)
(5.64924e-08 0 -3.36307e-09)
(5.75318e-08 0 -2.07871e-09)
(5.80395e-08 0 -8.2068e-10)
(5.8075e-08 0 3.16711e-10)
(5.76549e-08 0 1.36669e-09)
(5.68113e-08 0 2.29885e-09)
(5.56161e-08 0 3.12382e-09)
(5.41237e-08 0 3.79154e-09)
(5.23727e-08 0 4.26971e-09)
(5.04344e-08 0 4.57998e-09)
(4.83541e-08 0 4.72833e-09)
(4.618e-08 0 4.60338e-09)
(4.38921e-08 0 4.17968e-09)
(4.13245e-08 0 3.30929e-09)
(3.78756e-08 0 1.86264e-09)
(3.21871e-08 0 -2.38188e-10)
(1.83281e-08 0 -1.81483e-09)
(9.44916e-09 0 5.3644e-08)
(-3.39735e-12 0 5.3949e-08)
(2.87903e-16 0 -9.27137e-18)
(1.48692e-16 0 -4.1359e-20)
(2.93773e-16 0 2.21271e-18)
(2.92512e-16 0 4.3944e-18)
(2.90361e-16 0 6.53473e-18)
(2.8727e-16 0 8.582e-18)
(2.83299e-16 0 1.05362e-17)
(2.78522e-16 0 1.23353e-17)
(2.73021e-16 0 1.39897e-17)
(2.66848e-16 0 1.552e-17)
(2.60024e-16 0 1.68745e-17)
(2.52704e-16 0 1.80946e-17)
(2.44939e-16 0 1.91182e-17)
(2.3678e-16 0 2.00178e-17)
(2.28323e-16 0 2.07312e-17)
(2.19565e-16 0 2.13206e-17)
(2.10528e-16 0 2.17342e-17)
(2.01336e-16 0 2.20133e-17)
(1.92071e-16 0 2.21684e-17)
(1.82714e-16 0 2.22098e-17)
(1.73284e-16 0 2.21167e-17)
(1.63854e-16 0 2.19099e-17)
(1.54435e-16 0 2.16411e-17)
(1.45046e-16 0 2.12896e-17)
(1.35751e-16 0 2.0876e-17)
(1.26507e-16 0 2.03693e-17)
(1.17356e-16 0 1.9842e-17)
(1.0834e-16 0 1.92526e-17)
(9.94168e-17 0 1.86529e-17)
(9.0659e-17 0 1.80429e-17)
(8.20667e-17 0 1.74122e-17)
(7.35984e-17 0 1.67814e-17)
(6.52439e-17 0 1.61921e-17)
(5.70444e-17 0 1.5613e-17)
(4.89898e-17 0 1.50857e-17)
(4.10488e-17 0 1.46204e-17)
(3.32216e-17 0 1.41655e-17)
(2.54461e-17 0 1.38139e-17)
(1.77844e-17 0 1.35037e-17)
(1.01847e-17 0 1.32556e-17)
(3.18465e-18 0 1.31315e-17)
(-5.12315e-09 0 3.96171e-08)
(-1.79473e-08 0 3.93003e-08)
(-2.9226e-08 0 3.86109e-08)
(-4.04264e-08 0 3.76318e-08)
(-5.13003e-08 0 3.63356e-08)
(-6.17634e-08 0 3.47586e-08)
(-7.17177e-08 0 3.29618e-08)
(-8.10741e-08 0 3.09052e-08)
(-8.97722e-08 0 2.86637e-08)
(-9.77708e-08 0 2.62455e-08)
(-1.05e-07 0 2.36782e-08)
(-1.11427e-07 0 2.09229e-08)
(-1.17042e-07 0 1.81617e-08)
(-1.21884e-07 0 1.56965e-08)
(-1.26152e-07 0 1.35849e-08)
(-1.29799e-07 0 1.21676e-08)
(-1.32333e-07 0 8.4942e-09)
(-1.33773e-07 0 5.01841e-09)
(-1.35251e-07 0 3.66769e-09)
(-1.36188e-07 0 3.11776e-09)
(-1.35986e-07 0 5.11007e-10)
(-1.35154e-07 0 -3.27197e-09)
(-1.34368e-07 0 -3.34792e-09)
(-1.32938e-07 0 -4.9901e-09)
(-1.31062e-07 0 -7.06687e-09)
(-1.28889e-07 0 -7.9693e-09)
(-1.26372e-07 0 -9.26772e-09)
(-1.23499e-07 0 -1.05401e-08)
(-1.20292e-07 0 -1.16919e-08)
(-1.16771e-07 0 -1.28955e-08)
(-1.12905e-07 0 -1.40771e-08)
(-1.08697e-07 0 -1.52396e-08)
(-1.0416e-07 0 -1.63961e-08)
(-9.92943e-08 0 -1.75132e-08)
(-9.40985e-08 0 -1.85844e-08)
(-8.85816e-08 0 -1.9759e-08)
(-8.27413e-08 0 -2.07823e-08)
(-7.65924e-08 0 -2.17572e-08)
(-7.01193e-08 0 -2.27438e-08)
(-6.34012e-08 0 -2.35683e-08)
(-5.64096e-08 0 -2.4303e-08)
(-4.91974e-08 0 -2.49058e-08)
(-4.18609e-08 0 -2.53835e-08)
(-3.43632e-08 0 -2.56867e-08)
(-2.67929e-08 0 -2.58331e-08)
(-1.91846e-08 0 -2.57539e-08)
(-1.16254e-08 0 -2.55118e-08)
(-4.16631e-09 0 -2.50163e-08)
(3.12882e-09 0 -2.43443e-08)
(1.01923e-08 0 -2.34648e-08)
(1.69631e-08 0 -2.23562e-08)
(2.33749e-08 0 -2.10786e-08)
(2.93749e-08 0 -1.96104e-08)
(3.49221e-08 0 -1.79856e-08)
(3.99616e-08 0 -1.62147e-08)
(4.44522e-08 0 -1.44239e-08)
(4.83629e-08 0 -1.2466e-08)
(5.16783e-08 0 -1.04869e-08)
(5.44179e-08 0 -8.47654e-09)
(5.6546e-08 0 -6.53773e-09)
(5.80757e-08 0 -4.62674e-09)
(5.90545e-08 0 -2.7922e-09)
(5.94851e-08 0 -1.01812e-09)
(5.94061e-08 0 5.96418e-10)
(5.88513e-08 0 2.09838e-09)
(5.78686e-08 0 3.43691e-09)
(5.651e-08 0 4.58805e-09)
(5.48289e-08 0 5.55526e-09)
(5.2878e-08 0 6.26238e-09)
(5.07173e-08 0 6.74206e-09)
(4.83967e-08 0 7.01898e-09)
(4.59559e-08 0 6.97327e-09)
(4.33948e-08 0 6.67478e-09)
(4.06135e-08 0 6.16188e-09)
(3.73797e-08 0 5.61646e-09)
(3.36422e-08 0 5.7655e-09)
(2.91238e-08 0 8.96731e-09)
(8.03679e-09 0 6.29022e-08)
(-3.33064e-12 0 6.10584e-08)
(2.86088e-16 0 -5.27493e-18)
(1.50063e-16 0 4.1359e-20)
(2.9642e-16 0 3.18465e-18)
(2.95107e-16 0 6.25555e-18)
(2.92884e-16 0 9.25408e-18)
(2.89679e-16 0 1.21285e-17)
(2.85553e-16 0 1.48686e-17)
(2.806e-16 0 1.74122e-17)
(2.74914e-16 0 1.97489e-17)
(2.68544e-16 0 2.18893e-17)
(2.61565e-16 0 2.38021e-17)
(2.54058e-16 0 2.55082e-17)
(2.46097e-16 0 2.69558e-17)
(2.37742e-16 0 2.81862e-17)
(2.29077e-16 0 2.91788e-17)
(2.20144e-16 0 2.99439e-17)
(2.10941e-16 0 3.05126e-17)
(2.01594e-16 0 3.09055e-17)
(1.92185e-16 0 3.11123e-17)
(1.82673e-16 0 3.11123e-17)
(1.73108e-16 0 3.09676e-17)
(1.63575e-16 0 3.06677e-17)
(1.54052e-16 0 3.02541e-17)
(1.44581e-16 0 2.97371e-17)
(1.35182e-16 0 2.91168e-17)
(1.25866e-16 0 2.8393e-17)
(1.16674e-16 0 2.76175e-17)
(1.07616e-16 0 2.67593e-17)
(9.87033e-17 0 2.58804e-17)
(8.99145e-17 0 2.50222e-17)
(8.12912e-17 0 2.41227e-17)
(7.28333e-17 0 2.32231e-17)
(6.45408e-17 0 2.23546e-17)
(5.64034e-17 0 2.15481e-17)
(4.83797e-17 0 2.07829e-17)
(4.04905e-17 0 2.01108e-17)
(3.2746e-17 0 1.95008e-17)
(2.50636e-17 0 1.90045e-17)
(1.74742e-17 0 1.86219e-17)
(9.97787e-18 0 1.83221e-17)
(3.11227e-18 0 1.81566e-17)
(-5.20069e-09 0 5.1786e-08)
(-1.84457e-08 0 5.14157e-08)
(-3.0153e-08 0 5.0563e-08)
(-4.17619e-08 0 4.92764e-08)
(-5.29964e-08 0 4.75778e-08)
(-6.37858e-08 0 4.54903e-08)
(-7.40215e-08 0 4.30685e-08)
(-8.36255e-08 0 4.03299e-08)
(-9.2531e-08 0 3.73335e-08)
(-1.00665e-07 0 3.41248e-08)
(-1.07983e-07 0 3.06915e-08)
(-1.14492e-07 0 2.70175e-08)
(-1.20102e-07 0 2.35804e-08)
(-1.24995e-07 0 2.01465e-08)
(-1.29308e-07 0 1.77712e-08)
(-1.32675e-07 0 1.62907e-08)
(-1.34972e-07 0 9.52716e-09)
(-1.36351e-07 0 6.17845e-09)
(-1.37879e-07 0 5.23292e-09)
(-1.38533e-07 0 4.76906e-09)
(-1.37948e-07 0 -2.33799e-09)
(-1.37085e-07 0 -3.04884e-09)
(-1.36176e-07 0 -4.66626e-09)
(-1.34587e-07 0 -6.65657e-09)
(-1.32596e-07 0 -9.24856e-09)
(-1.30388e-07 0 -1.02855e-08)
(-1.27785e-07 0 -1.20144e-08)
(-1.2487e-07 0 -1.3604e-08)
(-1.21643e-07 0 -1.50604e-08)
(-1.181e-07 0 -1.65981e-08)
(-1.14216e-07 0 -1.81227e-08)
(-1.10019e-07 0 -1.96039e-08)
(-1.05491e-07 0 -2.10954e-08)
(-1.00616e-07 0 -2.25566e-08)
(-9.53983e-08 0 -2.39355e-08)
(-8.9828e-08 0 -2.54785e-08)
(-8.39326e-08 0 -2.68059e-08)
(-7.76969e-08 0 -2.81176e-08)
(-7.11178e-08 0 -2.93859e-08)
(-6.42962e-08 0 -3.04842e-08)
(-5.71993e-08 0 -3.14694e-08)
(-4.98221e-08 0 -3.22649e-08)
(-4.23094e-08 0 -3.28991e-08)
(-3.46111e-08 0 -3.33368e-08)
(-2.68261e-08 0 -3.35296e-08)
(-1.89946e-08 0 -3.34663e-08)
(-1.11976e-08 0 -3.31455e-08)
(-3.50415e-09 0 -3.25264e-08)
(4.03237e-09 0 -3.16453e-08)
(1.13281e-08 0 -3.05037e-08)
(1.83346e-08 0 -2.90799e-08)
(2.49684e-08 0 -2.73858e-08)
(3.11679e-08 0 -2.54854e-08)
(3.68787e-08 0 -2.33553e-08)
(4.20323e-08 0 -2.10219e-08)
(4.66286e-08 0 -1.86674e-08)
(5.06063e-08 0 -1.60907e-08)
(5.39624e-08 0 -1.35105e-08)
(5.66871e-08 0 -1.08963e-08)
(5.88013e-08 0 -8.32285e-09)
(6.02551e-08 0 -5.82208e-09)
(6.11323e-08 0 -3.42138e-09)
(6.14234e-08 0 -1.09981e-09)
(6.11847e-08 0 1.011e-09)
(6.04703e-08 0 2.97183e-09)
(5.92854e-08 0 4.74573e-09)
(5.76946e-08 0 6.23335e-09)
(5.57824e-08 0 7.51657e-09)
(5.35899e-08 0 8.47433e-09)
(5.11475e-08 0 9.15596e-09)
(4.85451e-08 0 9.53943e-09)
(4.58465e-08 0 9.60404e-09)
(4.3092e-08 0 9.37448e-09)
(4.03602e-08 0 8.99216e-09)
(3.76992e-08 0 8.7617e-09)
(3.54399e-08 0 9.30913e-09)
(3.27139e-08 0 1.26336e-08)
(7.67077e-09 0 8.53198e-08)
(-3.67635e-12 0 6.95753e-08)
(2.91403e-16 0 3.99357e-18)
(1.51906e-16 0 1.24077e-19)
(2.99987e-16 0 4.19794e-18)
(2.98581e-16 0 8.19943e-18)
(2.96234e-16 0 1.20872e-17)
(2.92884e-16 0 1.58095e-17)
(2.88583e-16 0 1.93353e-17)
(2.83413e-16 0 2.26544e-17)
(2.77488e-16 0 2.57046e-17)
(2.70881e-16 0 2.84654e-17)
(2.63633e-16 0 3.09366e-17)
(2.55857e-16 0 3.31079e-17)
(2.47627e-16 0 3.49587e-17)
(2.39014e-16 0 3.652e-17)
(2.30091e-16 0 3.77815e-17)
(2.20899e-16 0 3.87534e-17)
(2.11479e-16 0 3.94565e-17)
(2.01915e-16 0 3.99218e-17)
(1.92288e-16 0 4.01493e-17)
(1.82579e-16 0 4.01079e-17)
(1.7285e-16 0 3.98908e-17)
(1.63151e-16 0 3.94875e-17)
(1.53483e-16 0 3.88878e-17)
(1.43909e-16 0 3.81744e-17)
(1.34407e-16 0 3.73058e-17)
(1.24987e-16 0 3.63649e-17)
(1.15723e-16 0 3.5331e-17)
(1.06624e-16 0 3.42349e-17)
(9.76797e-17 0 3.30872e-17)
(8.88909e-17 0 3.19292e-17)
(8.02675e-17 0 3.07401e-17)
(7.182e-17 0 2.95614e-17)
(6.35792e-17 0 2.84343e-17)
(5.54831e-17 0 2.73693e-17)
(4.75319e-17 0 2.63871e-17)
(3.97564e-17 0 2.54978e-17)
(3.21256e-17 0 2.47327e-17)
(2.45673e-17 0 2.4071e-17)
(1.7102e-17 0 2.35953e-17)
(9.74005e-18 0 2.32438e-17)
(3.02955e-18 0 2.3068e-17)
(-5.3633e-09 0 6.42173e-08)
(-1.9191e-08 0 6.3678e-08)
(-3.13597e-08 0 6.25846e-08)
(-4.3438e-08 0 6.09467e-08)
(-5.51162e-08 0 5.88411e-08)
(-6.6309e-08 0 5.62479e-08)
(-7.69035e-08 0 5.32085e-08)
(-8.68221e-08 0 4.98011e-08)
(-9.59853e-08 0 4.60446e-08)
(-1.043e-07 0 4.20019e-08)
(-1.11761e-07 0 3.76817e-08)
(-1.18376e-07 0 3.30979e-08)
(-1.23878e-07 0 2.91726e-08)
(-1.29033e-07 0 2.42221e-08)
(-1.33526e-07 0 2.18389e-08)
(-1.36327e-07 0 1.92392e-08)
(-1.38134e-07 0 1.12279e-08)
(-1.39793e-07 0 7.75311e-09)
(-1.41174e-07 0 6.19893e-09)
(-1.41243e-07 0 5.22999e-09)
(-1.40388e-07 0 -3.59057e-09)
(-1.39564e-07 0 -3.631e-09)
(-1.38365e-07 0 -6.04415e-09)
(-1.36584e-07 0 -8.59982e-09)
(-1.34498e-07 0 -1.12814e-08)
(-1.3222e-07 0 -1.27656e-08)
(-1.29541e-07 0 -1.47944e-08)
(-1.2659e-07 0 -1.66997e-08)
(-1.23337e-07 0 -1.84399e-08)
(-1.19771e-07 0 -2.03311e-08)
(-1.15881e-07 0 -2.2171e-08)
(-1.11676e-07 0 -2.39662e-08)
(-1.07131e-07 0 -2.58075e-08)
(-1.02242e-07 0 -2.76191e-08)
(-9.69933e-08 0 -2.93325e-08)
(-9.13769e-08 0 -3.12327e-08)
(-8.5453e-08 0 -3.2893e-08)
(-7.91236e-08 0 -3.45877e-08)
(-7.24433e-08 0 -3.61389e-08)
(-6.54668e-08 0 -3.75251e-08)
(-5.82133e-08 0 -3.87893e-08)
(-5.06499e-08 0 -3.98272e-08)
(-4.28713e-08 0 -4.06274e-08)
(-3.4953e-08 0 -4.12154e-08)
(-2.69032e-08 0 -4.14732e-08)
(-1.87901e-08 0 -4.14331e-08)
(-1.06975e-08 0 -4.10343e-08)
(-2.72135e-09 0 -4.0307e-08)
(5.13366e-09 0 -3.92268e-08)
(1.27602e-08 0 -3.78136e-08)
(2.00548e-08 0 -3.60474e-08)
(2.69593e-08 0 -3.39367e-08)
(3.3417e-08 0 -3.15703e-08)
(3.93376e-08 0 -2.88687e-08)
(4.46758e-08 0 -2.59897e-08)
(4.94121e-08 0 -2.30194e-08)
(5.34787e-08 0 -1.97645e-08)
(5.68748e-08 0 -1.65477e-08)
(5.9598e-08 0 -1.3288e-08)
(6.16561e-08 0 -1.00592e-08)
(6.30217e-08 0 -6.89474e-09)
(6.37589e-08 0 -3.95156e-09)
(6.39241e-08 0 -1.00508e-09)
(6.34871e-08 0 1.62017e-09)
(6.25232e-08 0 4.05051e-09)
(6.10981e-08 0 6.27327e-09)
(5.92632e-08 0 8.16848e-09)
(5.70639e-08 0 9.7348e-09)
(5.45493e-08 0 1.09658e-08)
(5.17861e-08 0 1.18698e-08)
(4.88484e-08 0 1.23755e-08)
(4.58179e-08 0 1.25147e-08)
(4.28198e-08 0 1.22434e-08)
(4.00559e-08 0 1.16706e-08)
(3.77763e-08 0 1.10006e-08)
(3.67651e-08 0 1.04657e-08)
(3.3747e-08 0 1.67446e-08)
(5.08932e-09 0 1.1115e-07)
(-4.32106e-12 0 7.35829e-08)
(2.90911e-16 0 2.5281e-17)
(1.5424e-16 0 2.48154e-19)
(3.04496e-16 0 5.29396e-18)
(3.02996e-16 0 1.02777e-17)
(3.00494e-16 0 1.50857e-17)
(2.96927e-16 0 1.96972e-17)
(2.92408e-16 0 2.40503e-17)
(2.8697e-16 0 2.81448e-17)
(2.80735e-16 0 3.19188e-17)
(2.73786e-16 0 3.52999e-17)
(2.66207e-16 0 3.83191e-17)
(2.58091e-16 0 4.09351e-17)
(2.49509e-16 0 4.31995e-17)
(2.40565e-16 0 4.51124e-17)
(2.31321e-16 0 4.6622e-17)
(2.21809e-16 0 4.77697e-17)
(2.1211e-16 0 4.85658e-17)
(2.02287e-16 0 4.90622e-17)
(1.92371e-16 0 4.92793e-17)
(1.82424e-16 0 4.91862e-17)
(1.72509e-16 0 4.8876e-17)
(1.62603e-16 0 4.83384e-17)
(1.52729e-16 0 4.75629e-17)
(1.42978e-16 0 4.6622e-17)
(1.33362e-16 0 4.55156e-17)
(1.2387e-16 0 4.43162e-17)
(1.14534e-16 0 4.29927e-17)
(1.05372e-16 0 4.16175e-17)
(9.63872e-17 0 4.01906e-17)
(8.75674e-17 0 3.87327e-17)
(7.89441e-17 0 3.72438e-17)
(7.05482e-17 0 3.58169e-17)
(6.23487e-17 0 3.44107e-17)
(5.43354e-17 0 3.30872e-17)
(4.64979e-17 0 3.18671e-17)
(3.88258e-17 0 3.08021e-17)
(3.13295e-17 0 2.98509e-17)
(2.39469e-17 0 2.90444e-17)
(1.66367e-17 0 2.84654e-17)
(9.46088e-18 0 2.80518e-17)
(2.95717e-18 0 2.78553e-17)
(-5.56106e-09 0 7.72162e-08)
(-2.01e-08 0 7.65147e-08)
(-3.28362e-08 0 7.51609e-08)
(-4.54819e-08 0 7.31683e-08)
(-5.77063e-08 0 7.0608e-08)
(-6.93971e-08 0 6.74631e-08)
(-8.04525e-08 0 6.37545e-08)
(-9.0755e-08 0 5.96137e-08)
(-1.00207e-07 0 5.50262e-08)
(-1.08748e-07 0 5.00821e-08)
(-1.16544e-07 0 4.45837e-08)
(-1.22985e-07 0 3.98099e-08)
(-1.28656e-07 0 3.39405e-08)
(-1.34198e-07 0 2.89377e-08)
(-1.38454e-07 0 2.71897e-08)
(-1.40773e-07 0 2.0161e-08)
(-1.4201e-07 0 1.27151e-08)
(-1.44161e-07 0 9.04367e-09)
(-1.45239e-07 0 7.77371e-09)
(-1.44294e-07 0 4.85201e-09)
(-1.43103e-07 0 -5.1863e-09)
(-1.42591e-07 0 -4.2705e-09)
(-1.40943e-07 0 -7.60239e-09)
(-1.38917e-07 0 -1.08796e-08)
(-1.36739e-07 0 -1.33066e-08)
(-1.34378e-07 0 -1.53622e-08)
(-1.31615e-07 0 -1.76216e-08)
(-1.28603e-07 0 -1.98279e-08)
(-1.25319e-07 0 -2.18512e-08)
(-1.21747e-07 0 -2.40594e-08)
(-1.17871e-07 0 -2.62026e-08)
(-1.13675e-07 0 -2.83363e-08)
(-1.09135e-07 0 -3.05187e-08)
(-1.04243e-07 0 -3.26929e-08)
(-9.8987e-08 0 -3.47605e-08)
(-9.33148e-08 0 -3.70414e-08)
(-8.73167e-08 0 -3.90443e-08)
(-8.09062e-08 0 -4.11483e-08)
(-7.41133e-08 0 -4.3044e-08)
(-6.69231e-08 0 -4.47368e-08)
(-5.94783e-08 0 -4.63169e-08)
(-5.16841e-08 0 -4.76348e-08)
(-4.36059e-08 0 -4.86115e-08)
(-3.54173e-08 0 -4.93663e-08)
(-2.7033e-08 0 -4.97355e-08)
(-1.85782e-08 0 -4.97302e-08)
(-1.00913e-08 0 -4.9281e-08)
(-1.69609e-09 0 -4.84337e-08)
(6.5327e-09 0 -4.71779e-08)
(1.45343e-08 0 -4.54694e-08)
(2.21971e-08 0 -4.33309e-08)
(2.94395e-08 0 -4.07905e-08)
(3.61897e-08 0 -3.7906e-08)
(4.23726e-08 0 -3.46103e-08)
(4.79434e-08 0 -3.11463e-08)
(5.28468e-08 0 -2.74617e-08)
(5.70223e-08 0 -2.35554e-08)
(6.0478e-08 0 -1.9598e-08)
(6.31966e-08 0 -1.565e-08)
(6.51665e-08 0 -1.17121e-08)
(6.64488e-08 0 -7.86095e-09)
(6.70434e-08 0 -4.26632e-09)
(6.69538e-08 0 -7.51476e-10)
(6.62929e-08 0 2.45079e-09)
(6.5077e-08 0 5.40362e-09)
(6.33567e-08 0 8.14461e-09)
(6.1186e-08 0 1.0344e-08)
(5.86358e-08 0 1.22686e-08)
(5.57578e-08 0 1.38358e-08)
(5.25831e-08 0 1.49652e-08)
(4.91987e-08 0 1.56303e-08)
(4.57067e-08 0 1.58163e-08)
(4.22604e-08 0 1.54286e-08)
(3.91509e-08 0 1.44099e-08)
(3.68766e-08 0 1.27735e-08)
(3.56634e-08 0 1.08818e-08)
(1.99826e-08 0 3.71592e-08)
(1.30266e-09 0 1.44525e-07)
(-4.78238e-12 0 7.12137e-08)
(2.92041e-16 0 5.44093e-17)
(1.57067e-16 0 4.54949e-19)
(3.10007e-16 0 6.52439e-18)
(3.08363e-16 0 1.25111e-17)
(3.05664e-16 0 1.82807e-17)
(3.01849e-16 0 2.38435e-17)
(2.9703e-16 0 2.90651e-17)
(2.91271e-16 0 3.39454e-17)
(2.84633e-16 0 3.84329e-17)
(2.77271e-16 0 4.2455e-17)
(2.69278e-16 0 4.60326e-17)
(2.60758e-16 0 4.91242e-17)
(2.51783e-16 0 5.17815e-17)
(2.42426e-16 0 5.39839e-17)
(2.32758e-16 0 5.5721e-17)
(2.22842e-16 0 5.70134e-17)
(2.12782e-16 0 5.79026e-17)
(2.02639e-16 0 5.83886e-17)
(1.92413e-16 0 5.85541e-17)
(1.82166e-16 0 5.8399e-17)
(1.71992e-16 0 5.7944e-17)
(1.61848e-16 0 5.72202e-17)
(1.51777e-16 0 5.6269e-17)
(1.41851e-16 0 5.50799e-17)
(1.3209e-16 0 5.37357e-17)
(1.22474e-16 0 5.22468e-17)
(1.13024e-16 0 5.06441e-17)
(1.03822e-16 0 4.89484e-17)
(9.48052e-17 0 4.71907e-17)
(8.59441e-17 0 4.54226e-17)
(7.73414e-17 0 4.36648e-17)
(6.89972e-17 0 4.19381e-17)
(6.08495e-17 0 4.0263e-17)
(5.29396e-17 0 3.86914e-17)
(4.52675e-17 0 3.72438e-17)
(3.77401e-17 0 3.59513e-17)
(3.03679e-17 0 3.4845e-17)
(2.31714e-17 0 3.39041e-17)
(1.61093e-17 0 3.32113e-17)
(9.15069e-18 0 3.27564e-17)
(2.84343e-18 0 3.25289e-17)
(-5.80203e-09 0 9.09143e-08)
(-2.12139e-08 0 9.00554e-08)
(-3.46455e-08 0 8.84333e-08)
(-4.79683e-08 0 8.60731e-08)
(-6.08431e-08 0 8.29963e-08)
(-7.31108e-08 0 7.92436e-08)
(-8.47153e-08 0 7.48107e-08)
(-9.54706e-08 0 6.98563e-08)
(-1.05251e-07 0 6.43818e-08)
(-1.14388e-07 0 5.80555e-08)
(-1.22129e-07 0 5.23733e-08)
(-1.28483e-07 0 4.62129e-08)
(-1.34727e-07 0 3.87102e-08)
(-1.40731e-07 0 3.44617e-08)
(-1.43754e-07 0 3.24125e-08)
(-1.4583e-07 0 1.97527e-08)
(-1.47191e-07 0 1.46057e-08)
(-1.4937e-07 0 1.05543e-08)
(-1.49286e-07 0 1.08886e-08)
(-1.47708e-07 0 -2.43532e-09)
(-1.46879e-07 0 -2.54475e-09)
(-1.45802e-07 0 -6.34941e-09)
(-1.43823e-07 0 -9.02119e-09)
(-1.41548e-07 0 -1.3775e-08)
(-1.39359e-07 0 -1.52575e-08)
(-1.36762e-07 0 -1.80858e-08)
(-1.33937e-07 0 -2.05602e-08)
(-1.30889e-07 0 -2.29697e-08)
(-1.27612e-07 0 -2.52737e-08)
(-1.24044e-07 0 -2.77717e-08)
(-1.20196e-07 0 -3.02167e-08)
(-1.16024e-07 0 -3.27e-08)
(-1.11497e-07 0 -3.52211e-08)
(-1.06607e-07 0 -3.77745e-08)
(-1.01344e-07 0 -4.02042e-08)
(-9.56681e-08 0 -4.29025e-08)
(-8.95637e-08 0 -4.52947e-08)
(-8.30416e-08 0 -4.78315e-08)
(-7.61042e-08 0 -5.00939e-08)
(-6.87411e-08 0 -5.21724e-08)
(-6.10388e-08 0 -5.40613e-08)
(-5.30064e-08 0 -5.57052e-08)
(-4.46247e-08 0 -5.6946e-08)
(-3.60026e-08 0 -5.78277e-08)
(-2.72706e-08 0 -5.83671e-08)
(-1.83834e-08 0 -5.84328e-08)
(-9.44515e-09 0 -5.79785e-08)
(-5.4542e-10 0 -5.69896e-08)
(8.12815e-09 0 -5.5537e-08)
(1.65961e-08 0 -5.35445e-08)
(2.47198e-08 0 -5.10221e-08)
(3.24092e-08 0 -4.80137e-08)
(3.95472e-08 0 -4.45716e-08)
(4.60577e-08 0 -4.06137e-08)
(5.18928e-08 0 -3.65212e-08)
(5.69768e-08 0 -3.20424e-08)
(6.12673e-08 0 -2.74227e-08)
(6.47835e-08 0 -2.26809e-08)
(6.74958e-08 0 -1.79685e-08)
(6.94028e-08 0 -1.32363e-08)
(7.05404e-08 0 -8.73903e-09)
(7.09439e-08 0 -4.40568e-09)
(7.0632e-08 0 -1.90537e-10)
(6.96619e-08 0 3.57682e-09)
(6.81099e-08 0 7.12512e-09)
(6.60435e-08 0 1.02e-08)
(6.35123e-08 0 1.29352e-08)
(6.05484e-08 0 1.52404e-08)
(5.72142e-08 0 1.71145e-08)
(5.3578e-08 0 1.85194e-08)
(4.96778e-08 0 1.93849e-08)
(4.55806e-08 0 1.96828e-08)
(4.13918e-08 0 1.92574e-08)
(3.73778e-08 0 1.78151e-08)
(3.4409e-08 0 1.48298e-08)
(3.54716e-08 0 8.29872e-09)
(7.05732e-09 0 7.11737e-08)
(-9.77039e-10 0 1.26884e-07)
(-5.11567e-12 0 6.91889e-08)
(2.974e-16 0 8.63234e-17)
(1.60444e-16 0 6.72084e-19)
(3.16541e-16 0 7.83754e-18)
(3.14763e-16 0 1.48582e-17)
(3.11837e-16 0 2.16825e-17)
(3.07691e-16 0 2.82482e-17)
(3.0251e-16 0 3.44107e-17)
(2.96348e-16 0 4.01183e-17)
(2.89244e-16 0 4.53502e-17)
(2.81376e-16 0 5.00134e-17)
(2.72877e-16 0 5.41597e-17)
(2.6385e-16 0 5.77372e-17)
(2.54368e-16 0 6.07564e-17)
(2.44504e-16 0 6.31966e-17)
(2.34351e-16 0 6.51405e-17)
(2.2398e-16 0 6.6557e-17)
(2.13475e-16 0 6.75083e-17)
(2.02938e-16 0 6.79943e-17)
(1.92371e-16 0 6.8046e-17)
(1.81794e-16 0 6.77668e-17)
(1.71299e-16 0 6.71361e-17)
(1.60897e-16 0 6.61848e-17)
(1.50599e-16 0 6.50061e-17)
(1.40466e-16 0 6.35792e-17)
(1.30519e-16 0 6.19558e-17)
(1.20768e-16 0 6.01671e-17)
(1.11235e-16 0 5.82542e-17)
(1.01929e-16 0 5.62276e-17)
(9.28614e-17 0 5.41493e-17)
(8.40312e-17 0 5.20503e-17)
(7.54492e-17 0 4.99927e-17)
(6.71464e-17 0 4.79455e-17)
(5.91021e-17 0 4.60223e-17)
(5.13059e-17 0 4.41921e-17)
(4.37682e-17 0 4.25171e-17)
(3.64373e-17 0 4.09971e-17)
(2.92822e-17 0 3.97254e-17)
(2.23029e-17 0 3.86604e-17)
(1.5489e-17 0 3.78745e-17)
(8.78879e-18 0 3.73575e-17)
(2.7297e-18 0 3.71404e-17)
(-6.08869e-09 0 1.05445e-07)
(-2.25503e-08 0 1.04421e-07)
(-3.68165e-08 0 1.02504e-07)
(-5.09206e-08 0 9.97388e-08)
(-6.45683e-08 0 9.6097e-08)
(-7.75687e-08 0 9.16554e-08)
(-8.97448e-08 0 8.65124e-08)
(-1.01031e-07 0 8.05511e-08)
(-1.11584e-07 0 7.37204e-08)
(-1.20876e-07 0 6.70479e-08)
(-1.28548e-07 0 6.02129e-08)
(-1.35257e-07 0 5.21081e-08)
(-1.42655e-07 0 4.37878e-08)
(-1.47435e-07 0 4.18657e-08)
(-1.50146e-07 0 3.25981e-08)
(-1.51791e-07 0 2.18431e-08)
(-1.5405e-07 0 1.5182e-08)
(-1.54734e-07 0 1.2522e-08)
(-1.53537e-07 0 1.11879e-08)
(-1.51736e-07 0 -5.15488e-09)
(-1.51308e-07 0 -2.68929e-09)
(-1.49214e-07 0 -8.33673e-09)
(-1.4697e-07 0 -1.15418e-08)
(-1.44574e-07 0 -1.57301e-08)
(-1.42213e-07 0 -1.78545e-08)
(-1.39409e-07 0 -2.08083e-08)
(-1.36515e-07 0 -2.35449e-08)
(-1.3345e-07 0 -2.60741e-08)
(-1.30165e-07 0 -2.87184e-08)
(-1.26625e-07 0 -3.14446e-08)
(-1.22826e-07 0 -3.41844e-08)
(-1.18714e-07 0 -3.70101e-08)
(-1.14239e-07 0 -3.9902e-08)
(-1.09372e-07 0 -4.28442e-08)
(-1.04118e-07 0 -4.56855e-08)
(-9.84394e-08 0 -4.87298e-08)
(-9.2195e-08 0 -5.17224e-08)
(-8.55932e-08 0 -5.45837e-08)
(-7.85231e-08 0 -5.73287e-08)
(-7.09637e-08 0 -5.98585e-08)
(-6.29204e-08 0 -6.20627e-08)
(-5.45987e-08 0 -6.40754e-08)
(-4.58875e-08 0 -6.56506e-08)
(-3.68174e-08 0 -6.67855e-08)
(-2.7542e-08 0 -6.74051e-08)
(-1.81702e-08 0 -6.76121e-08)
(-8.71158e-09 0 -6.7186e-08)
(7.43503e-10 0 -6.6116e-08)
(1.00588e-08 0 -6.43911e-08)
(1.9054e-08 0 -6.21381e-08)
(2.77233e-08 0 -5.92122e-08)
(3.59004e-08 0 -5.56963e-08)
(4.34673e-08 0 -5.15475e-08)
(5.03893e-08 0 -4.7033e-08)
(5.65717e-08 0 -4.21491e-08)
(6.18946e-08 0 -3.67935e-08)
(6.63472e-08 0 -3.13741e-08)
(6.99363e-08 0 -2.58065e-08)
(7.26233e-08 0 -2.02337e-08)
(7.4431e-08 0 -1.468e-08)
(7.53978e-08 0 -9.34364e-09)
(7.55325e-08 0 -4.29522e-09)
(7.49217e-08 0 6.18603e-10)
(7.36167e-08 0 5.08226e-09)
(7.16797e-08 0 9.10382e-09)
(6.92075e-08 0 1.2757e-08)