0.010101 	5.99925e-13 	-6.04547e-16 	5.63696e-15
0.020202 	2.956e-14 	-6.54389e-17 	3.0808e-16
