0 	3.62956e-21 	0 	-5.08138e-20
0.010101 	2.03543e-20 	3.41347e-23 	-4.40512e-20
0.020202 	-1.96168e-20 	-3.34534e-23 	-6.35537e-20
0.030303 	3.02837e-21 	-6.74177e-23 	-6.69758e-20
0.040404 	1.84331e-20 	2.70693e-22 	-7.29431e-20
0.0505051 	-6.37735e-20 	1.688e-22 	2.56475e-20
