0 	580.894
0.010101 	588.58
0.020202 	588.598
0.030303 	588.602
0.040404 	588.595
