0.010101 	-3.97867e-17 	4.01757e-20 	-3.72104e-19
0.020202 	-2.1189e-18 	4.60019e-21 	-1.58897e-20
