/*--------------------------------*- C++ -*----------------------------------*\
  =========                 |
  \\      /  F ield         | OpenFOAM: The Open Source CFD Toolbox
   \\    /   O peration     | Website:  https://openfoam.org
    \\  /    A nd           | Version:  6
     \\/     M anipulation  |
\*---------------------------------------------------------------------------*/
FoamFile
{
    version     2.0;
    format      ascii;
    class       volScalarField;
    location    "3550";
    object      dmdt;
}
// * * * * * * * * * * * * * * * * * * * * * * * * * * * * * * * * * * * * * //

dimensions      [0 0 0 0 0 0 0];

internalField   nonuniform List<scalar> 
4800
(
-0.218051
-0.212976
-0.207917
-0.2029
-0.197956
-0.193117
-0.188415
-0.183885
-0.17956
-0.17547
-0.171631
-0.168044
-0.164703
-0.161594
-0.158694
-0.155983
-0.153448
-0.151074
-0.148849
-0.146757
-0.144784
-0.142916
-0.14113
-0.139402
-0.137721
-0.136063
-0.134402
-0.132727
-0.131029
-0.129298
-0.127526
-0.125705
-0.123833
-0.121906
-0.11993
-0.117913
-0.115864
-0.113792
-0.111712
-0.109641
-0.107595
-0.105594
-0.103659
-0.101806
-0.100046
-0.0983896
-0.0968367
-0.095376
-0.0939945
-0.0926868
-0.0914478
-0.090269
-0.0891425
-0.0880632
-0.0870281
-0.086027
-0.0850515
-0.0840983
-0.0831544
-0.082205
-0.0812364
-0.0802311
-0.0791726
-0.0780441
-0.0768269
-0.0755014
-0.0740476
-0.0724452
-0.0706735
-0.0687092
-0.0665296
-0.0641087
-0.0614243
-0.0584532
-0.0551816
-0.0516108
-0.0477476
-0.0436131
-0.0392539
-0.0347577
-0.0302114
-0.0257034
-0.0213215
-0.0170421
-0.0128584
-0.00876393
-0.00475226
-0.000816949
0.00304833
0.00684956
0.0105927
0.0142834
0.0179268
0.0215277
0.0250905
0.028619
0.0321169
0.0355874
0.0390333
0.0424573
0.0458615
0.0492482
0.0526191
0.055976
0.0593202
0.0626533
0.0659763
0.0692905
0.0725967
0.075896
0.0791891
0.0824769
0.08576
0.0890391
0.0923149
0.0955878
0.0988585
0.102127
0.105395
0.108662
-0.218038
-0.212935
-0.207852
-0.202818
-0.197869
-0.193036
-0.188352
-0.183844
-0.179539
-0.175463
-0.171636
-0.168062
-0.164728
-0.161622
-0.158726
-0.15602
-0.15349
-0.151123
-0.148906
-0.146824
-0.144861
-0.143002
-0.141219
-0.139497
-0.137821
-0.136157
-0.134488
-0.132806
-0.131101
-0.129359
-0.127572
-0.125736
-0.123847
-0.121903
-0.119909
-0.117873
-0.115804
-0.113714
-0.111617
-0.109528
-0.107465
-0.105448
-0.103497
-0.101629
-0.0998535
-0.0981788
-0.096607
-0.0951335
-0.0937407
-0.0924188
-0.0911685
-0.0899805
-0.088848
-0.0877616
-0.0867208
-0.0857169
-0.0847382
-0.0837865
-0.0828471
-0.0819002
-0.0809331
-0.0799299
-0.0788738
-0.0777467
-0.0765312
-0.075207
-0.0737533
-0.0721499
-0.0703771
-0.0684136
-0.0662373
-0.063825
-0.0611494
-0.0581933
-0.054936
-0.0513763
-0.0475256
-0.0434095
-0.0390842
-0.0346137
-0.0300811
-0.0255817
-0.0212071
-0.0169342
-0.012757
-0.00866906
-0.00466407
-0.000735412
0.00312335
0.00691832
0.0106556
0.0143407
0.017979
0.0215752
0.0251336
0.0286582
0.0321525
0.0356197
0.0390627
0.0424839
0.0458857
0.0492701
0.0526389
0.0559939
0.0593364
0.0626678
0.0659894
0.0693022
0.0726071
0.0759052
0.0791973
0.082484
0.0857662
0.0890443
0.0923192
0.0955913
0.0988611
0.102129
0.105396
0.108662
-0.218021
-0.212887
-0.207786
-0.202748
-0.197799
-0.192972
-0.1883
-0.183811
-0.179533
-0.175488
-0.171687
-0.16813
-0.164803
-0.161697
-0.158802
-0.156107
-0.153596
-0.15125
-0.149055
-0.146993
-0.145051
-0.143208
-0.141438
-0.139727
-0.13805
-0.136374
-0.134693
-0.132997
-0.131273
-0.129509
-0.127697
-0.125831
-0.123909
-0.121932
-0.119905
-0.117833
-0.115727
-0.113601
-0.11147
-0.10935
-0.107258
-0.105212
-0.103231
-0.10133
-0.0995187
-0.0978038
-0.0961898
-0.0946813
-0.0932623
-0.0919124
-0.0906392
-0.0894296
-0.0882811
-0.0871812
-0.0861327
-0.085125
-0.0841363
-0.0831819
-0.0822468
-0.0813063
-0.0803458
-0.0793484
-0.0782978
-0.0771761
-0.0759634
-0.0746426
-0.0731911
-0.071587
-0.0698128
-0.0678478
-0.065676
-0.0632734
-0.0606175
-0.0576841
-0.054459
-0.0509345
-0.0471192
-0.0430417
-0.0387506
-0.0343129
-0.0298167
-0.0253391
-0.0209786
-0.0167184
-0.0125539
-0.0084792
-0.00448768
-0.000572459
0.00327317
0.00705555
0.0107809
0.014455
0.018083
0.0216698
0.0252196
0.0287363
0.0322235
0.0356842
0.0391212
0.042537
0.0459338
0.0493137
0.0526784
0.0560296
0.0593686
0.0626969
0.0660155
0.0693255
0.072628
0.0759237
0.0792135
0.0824982
0.0857784
0.0890548
0.0923279
0.0955983
0.0988665
0.102133
0.105399
0.108663
-0.218014
-0.212867
-0.207756
-0.202718
-0.197776
-0.192958
-0.188298
-0.18383
-0.179581
-0.175567
-0.171792
-0.168251
-0.164937
-0.161845
-0.158969
-0.156297
-0.153813
-0.151499
-0.149336
-0.147304
-0.145386
-0.143561
-0.141804
-0.1401
-0.138419
-0.136731
-0.135038
-0.133327
-0.131579
-0.129782
-0.127929
-0.126018
-0.124048
-0.122024
-0.119949
-0.117829
-0.115676
-0.113504
-0.111329
-0.109166
-0.10703
-0.104938
-0.102905
-0.100949
-0.0990779
-0.0972993
-0.0956191
-0.0940499
-0.0925864
-0.0911925
-0.0898838
-0.0886455
-0.0874718
-0.0863502
-0.0852882
-0.0842748
-0.0832774
-0.082315
-0.0813808
-0.0804482
-0.0794965
-0.0785081
-0.0774648
-0.0763509
-0.0751444
-0.073827
-0.0723819
-0.0707809
-0.0690086
-0.0670438
-0.064876
-0.0624847
-0.0598511
-0.0569462
-0.0537573
-0.0502754
-0.0465088
-0.0424918
-0.0382694
-0.0338956
-0.0294427
-0.0249825
-0.0206376
-0.0163947
-0.0122491
-0.00819445
-0.00422345
-0.000328707
0.00349697
0.00726031
0.0109678
0.0146252
0.0182378
0.0218106
0.0253475
0.0288526
0.0323291
0.0357801
0.0392083
0.042616
0.0460055
0.0493787
0.0527373
0.0560828
0.0594167
0.0627401
0.0660543
0.0693603
0.072659
0.0759512
0.0792377
0.0825193
0.0857966
0.0890703
0.0923408
0.0956087
0.0988745
0.102139
0.105402
0.108664
-0.218006
-0.212862
-0.207771
-0.202752
-0.19783
-0.193036
-0.188393
-0.183942
-0.179715
-0.175726
-0.171977
-0.168461
-0.165171
-0.16211
-0.159268
-0.156632
-0.154184
-0.151906
-0.149778
-0.147776
-0.14588
-0.14407
-0.142323
-0.140621
-0.138931
-0.137232
-0.135527
-0.133798
-0.132019
-0.130183
-0.128284
-0.12632
-0.124292
-0.122207
-0.120071
-0.117892
-0.115682
-0.113452
-0.111219
-0.108997
-0.106803
-0.104648
-0.102545
-0.100511
-0.0985601
-0.0967017
-0.0949393
-0.0932835
-0.0917478
-0.0902972
-0.0889358
-0.0876562
-0.0864501
-0.085303
-0.0842214
-0.0831906
-0.0821896
-0.0812213
-0.080284
-0.079356
-0.0784106
-0.077432
-0.0763971
-0.0752908
-0.0740938
-0.0727823
-0.0713431
-0.0697513
-0.0679839
-0.0660263
-0.0638652
-0.0614832
-0.058878
-0.056018
-0.0528875
-0.0494855
-0.0458154
-0.0418897
-0.0377482
-0.0334242
-0.0289808
-0.0245131
-0.0201829
-0.015962
-0.0118421
-0.00781483
-0.00387197
-5.15216e-06
0.00379346
0.00753113
0.0112146
0.0148498
0.0184421
0.0219962
0.0255162
0.0290058
0.0324683
0.0359066
0.0393231
0.0427203
0.0461001
0.0494645
0.0528149
0.056153
0.05948
0.0627972
0.0661056
0.0694062
0.0726999
0.0759875
0.0792697
0.0825473
0.0858207
0.0890907
0.0923578
0.0956224
0.0988851
0.102146
0.105406
0.108666
-0.218014
-0.212879
-0.2078
-0.202801
-0.197909
-0.193155
-0.188562
-0.184157
-0.179965
-0.176003
-0.172282
-0.168799
-0.165551
-0.162533
-0.159736
-0.157143
-0.154737
-0.152497
-0.150401
-0.148423
-0.146543
-0.144744
-0.142999
-0.14129
-0.139589
-0.137879
-0.136156
-0.134394
-0.132575
-0.130694
-0.128745
-0.126726
-0.12464
-0.122495
-0.120294
-0.118049
-0.115771
-0.113471
-0.111166
-0.108869
-0.106596
-0.104361
-0.102175
-0.100047
-0.097993
-0.0960275
-0.0941634
-0.092408
-0.0907761
-0.0892527
-0.0878309
-0.0865002
-0.0852508
-0.0840718
-0.0829681
-0.0819153
-0.0809037
-0.0799277
-0.078987
-0.078062
-0.0771204
-0.0761499
-0.0751229
-0.0740234
-0.0728344
-0.0715326
-0.0700992
-0.0685204
-0.0667627
-0.0648168
-0.0626749
-0.060304
-0.057712
-0.0548781
-0.0517971
-0.0484627
-0.0448756
-0.0410317
-0.0369615
-0.0327101
-0.0283399
-0.0239092
-0.0196079
-0.0154179
-0.0113318
-0.00734045
-0.00343414
0.000396685
0.00416073
0.00786589
0.0115192
0.0151267
0.0186937
0.0222247
0.0257239
0.0291945
0.0326398
0.0360624
0.0394647
0.0428488
0.0462168
0.0495702
0.0529107
0.0562396
0.0595583
0.0628677
0.0661689
0.0694629
0.0727504
0.0760323
0.0793092
0.0825817
0.0858505
0.089116
0.0923788
0.0956394
0.0988981
0.102155
0.105412
0.108668
-0.218049
-0.21298
-0.207957
-0.203
-0.198128
-0.193383
-0.18882
-0.184466
-0.180329
-0.17642
-0.172746
-0.169306
-0.166104
-0.163137
-0.16039
-0.157847
-0.155485
-0.153282
-0.151212
-0.149248
-0.147376
-0.145578
-0.143827
-0.142102
-0.140382
-0.138644
-0.136877
-0.135063
-0.133194
-0.131263
-0.129264
-0.127193
-0.125056
-0.122853
-0.12059
-0.118277
-0.115926
-0.113549
-0.111161
-0.108778
-0.106416
-0.104087
-0.1018
-0.0995625
-0.0973859
-0.0952916
-0.0933072
-0.0914459
-0.0897113
-0.0880974
-0.0865997
-0.0852101
-0.083913
-0.0826969
-0.0815611
-0.0804863
-0.079462
-0.0784755
-0.0775255
-0.0765966
-0.0756558
-0.0746905
-0.0736695
-0.0725763
-0.071394
-0.0701015
-0.0686749
-0.0671074
-0.065367
-0.0634392
-0.0613298
-0.0590008
-0.056457
-0.0536801
-0.0506525
-0.0473724
-0.043843
-0.0400633
-0.0360622
-0.031887
-0.027581
-0.0231803
-0.0189122
-0.0147607
-0.0107176
-0.00677177
-0.00291148
0.000874529
0.00459606
0.00826168
0.0118786
0.015453
0.01899
0.0224939
0.0259684
0.0294167
0.0328418
0.0362459
0.0396315
0.0430004
0.0463543
0.049695
0.0530238
0.0563419
0.0596506
0.0629509
0.0662437
0.0695298
0.0728101
0.0760852
0.0793558
0.0826224
0.0858856
0.0891459
0.0924037
0.0956594
0.0989135
0.102166
0.105418
0.10867
-0.218083
-0.21308
-0.208117
-0.203228
-0.198442
-0.193776
-0.18926
-0.184943
-0.180847
-0.176986
-0.173364
-0.169978
-0.166831
-0.163922
-0.161234
-0.158743
-0.156423
-0.15425
-0.152195
-0.150233
-0.148356
-0.146544
-0.14477
-0.143012
-0.14125
-0.139453
-0.13762
-0.135739
-0.133807
-0.131819
-0.129769
-0.127652
-0.12547
-0.12322
-0.120905
-0.118531
-0.116107
-0.11365
-0.111176
-0.108702
-0.106242
-0.10381
-0.101413
-0.0990558
-0.0967499
-0.0945196
-0.0923988
-0.0904141
-0.0885694
-0.0868596
-0.0852739
-0.0838106
-0.0824593
-0.0812059
-0.0800397
-0.0789411
-0.0778993
-0.076901
-0.0759383
-0.0749982
-0.0740533
-0.0730878
-0.0720688
-0.0709791
-0.069803
-0.0685194
-0.0671051
-0.0655503
-0.0638301
-0.0619218
-0.0598335
-0.057535
-0.0550237
-0.0522953
-0.0493329
-0.0461308
-0.0426822
-0.0389892
-0.035065
-0.0309538
-0.0267003
-0.0223242
-0.0180925
-0.0139878
-0.00999857
-0.0061098
-0.00230644
0.00142502
0.00509565
0.0087146
0.0122892
0.0158254
0.0193279
0.0228007
0.0262472
0.0296702
0.0330722
0.0364555
0.039822
0.0431735
0.0465116
0.0498377
0.0531531
0.0564589
0.0597563
0.0630461
0.0663292
0.0696064
0.0728784
0.0761458
0.0794091
0.082669
0.0859258
0.08918
0.0924321
0.0956823
0.0989312
0.102179
0.105426
0.108672
-0.218121
-0.213199
-0.208317
-0.203493
-0.19876
-0.194168
-0.189745
-0.185514
-0.181493
-0.177697
-0.174136
-0.17081
-0.167728
-0.164884
-0.162254
-0.159809
-0.15752
-0.15536
-0.153301
-0.151324
-0.149427
-0.147586
-0.145768
-0.14395
-0.142116
-0.140239
-0.138322
-0.136361
-0.134355
-0.132304
-0.130202
-0.128042
-0.125821
-0.123533
-0.121178
-0.118755
-0.11627
-0.113738
-0.111179
-0.108611
-0.106048
-0.103506
-0.100992
-0.0985088
-0.0960699
-0.0937026
-0.0914439
-0.0893303
-0.0873692
-0.0855587
-0.0838868
-0.0823465
-0.0809321
-0.0796305
-0.0784267
-0.0773019
-0.0762402
-0.0752289
-0.0742522
-0.0732968
-0.0723425
-0.0713698
-0.0703484
-0.0692601
-0.0680879
-0.0668102
-0.0654082
-0.0638665
-0.0621697
-0.0602945
-0.0582442
-0.0559913
-0.0535262
-0.0508434
-0.0479284
-0.0447827
-0.0414001
-0.0377849
-0.0339384
-0.02989
-0.0256848
-0.0213314
-0.0171413
-0.013095
-0.00917401
-0.00535664
-0.00162298
0.00204322
0.00565426
0.00921956
0.0127462
0.0162394
0.0197035
0.0231419
0.0265574
0.0299524
0.033329
0.0366891
0.0400346
0.0433668
0.0466872
0.0499971
0.0532976
0.0565897
0.0598744
0.0631526
0.0664249
0.0696921
0.0729548
0.0762135
0.0794687
0.082721
0.0859707
0.0892182
0.0924639
0.095708
0.0989509
0.102193
0.105434
0.108675
-0.218179
-0.213362
-0.208576
-0.203848
-0.199207
-0.194692
-0.190344
-0.186192
-0.182251
-0.178532
-0.175044
-0.17179
-0.168778
-0.165997
-0.163413
-0.160997
-0.158721
-0.156553
-0.154477
-0.152472
-0.150541
-0.148643
-0.146752
-0.144849
-0.142919
-0.140939
-0.138921
-0.136866
-0.134778
-0.132659
-0.130505
-0.12831
-0.126061
-0.123743
-0.121355
-0.118891
-0.116356
-0.113765
-0.111131
-0.108472
-0.105805
-0.103144
-0.100506
-0.0978984
-0.0953304
-0.0928314
-0.0904396
-0.0881994
-0.086123
-0.0842088
-0.082446
-0.080824
-0.0793418
-0.0779894
-0.076746
-0.0755902
-0.0745043
-0.0734753
-0.0724836
-0.0715114
-0.0705432
-0.0695574
-0.06853
-0.0674414
-0.0662725
-0.0650033
-0.063615
-0.062089
-0.060409
-0.0585573
-0.0565341
-0.0543205
-0.0519036
-0.0492721
-0.0464151
-0.0433271
-0.0400048
-0.0364526
-0.0326689
-0.0286799
-0.0245213
-0.0201859
-0.0160462
-0.0120763
-0.0082441
-0.00451665
-0.000867641
0.00272189
0.00626483
0.00977006
0.0132437
0.0166901
0.0201126
0.0235137
0.0268957
0.0302603
0.0336095
0.0369446
0.0402671
0.0435784
0.0468796
0.0501718
0.053456
0.0567331
0.060004
0.0632693
0.0665298
0.069786
0.0730385
0.0762878
0.0795342
0.0827781
0.08602
0.0892601
0.0924987
0.0957361
0.0989725
0.102208
0.105443
0.108678
-0.218231
-0.213525
-0.208858
-0.204251
-0.199728
-0.195319
-0.191061
-0.186987
-0.183124
-0.179485
-0.176075
-0.172897
-0.169951
-0.167217
-0.16466
-0.162253
-0.159971
-0.157779
-0.15567
-0.15362
-0.151629
-0.149649
-0.147661
-0.145651
-0.143602
-0.141502
-0.139366
-0.137205
-0.135026
-0.132835
-0.130632
-0.128405
-0.126133
-0.123794
-0.121379
-0.11889
-0.116327
-0.113691
-0.110993
-0.108248
-0.105475
-0.102693
-0.099928
-0.0971958
-0.0945045
-0.0918835
-0.0893703
-0.0870119
-0.0848244
-0.0828081
-0.0809588
-0.0792623
-0.0777114
-0.0762997
-0.0750097
-0.0738187
-0.0727056
-0.0716538
-0.0706437
-0.0696542
-0.06867
-0.0676686
-0.0666317
-0.0655377
-0.0643658
-0.0631029
-0.0617277
-0.0602252
-0.0585763
-0.0567622
-0.0547681
-0.0525815
-0.0501997
-0.0476119
-0.0448081
-0.041777
-0.038509
-0.0350077
-0.0312723
-0.0273246
-0.0231942
-0.0188607
-0.0147875
-0.0109252
-0.00721231
-0.00359862
-5.09838e-05
0.00345065
0.006918
0.010358
0.013775
0.0171717
0.0205502
0.023912
0.0272585
0.0305912
0.0339111
0.0372196
0.0405177
0.0438066
0.0470871
0.0503603
0.053627
0.056888
0.0601439
0.0633955
0.0666432
0.0698875
0.073129
0.076368
0.0796048
0.0828398
0.0860732
0.0893053
0.0925363
0.0957664
0.0989958
0.102225
0.105453
0.108681
-0.218293
-0.213706
-0.209155
-0.204665
-0.200253
-0.195954
-0.191808
-0.187841
-0.184073
-0.180518
-0.177184
-0.174079
-0.171191
-0.168492
-0.165948
-0.163535
-0.161229
-0.159
-0.156847
-0.154738
-0.152662
-0.150577
-0.148472
-0.146334
-0.144145
-0.141906
-0.139635
-0.137356
-0.135083
-0.132817
-0.130557
-0.128293
-0.126
-0.123647
-0.12122
-0.118714
-0.116124
-0.113449
-0.1107
-0.10789
-0.105028
-0.102131
-0.0992387
-0.0963865
-0.0935821
-0.0908515
-0.0882299
-0.0857638
-0.0834725
-0.0813562
-0.0794167
-0.0776457
-0.0760315
-0.0745631
-0.0732255
-0.071996
-0.0708527
-0.069776
-0.068744
-0.0677339
-0.0667304
-0.065714
-0.0646665
-0.0635688
-0.0623971
-0.061139
-0.0597752
-0.0582891
-0.0566643
-0.0548843
-0.0529335
-0.0507942
-0.0484537
-0.0459054
-0.0431446
-0.0401614
-0.0369403
-0.0334762
-0.0297659
-0.0258228
-0.0216726
-0.0173
-0.0133337
-0.00963804
-0.00609043
-0.00261942
0.000810372
0.00421511
0.00760196
0.010974
0.0143325
0.0176781
0.0210113
0.0243325
0.0276424
0.0309418
0.0342313
0.0375118
0.0407842
0.0440494
0.0473081
0.0505612
0.0538092
0.057053
0.0602931
0.0635299
0.066764
0.0699957
0.0732254
0.0764535
0.0796801
0.0829055
0.0861299
0.0893535
0.0925764
0.0957987
0.0990206
0.102242
0.105464
0.108685
-0.218363
-0.213913
-0.20949
-0.205119
-0.200822
-0.196638
-0.192599
-0.188733
-0.18506
-0.181598
-0.178353
-0.175317
-0.172468
-0.169787
-0.167245
-0.164817
-0.162479
-0.16021
-0.157997
-0.155808
-0.153625
-0.151417
-0.149173
-0.14688
-0.144526
-0.142123
-0.139711
-0.137307
-0.134928
-0.132579
-0.130256
-0.127943
-0.125629
-0.123266
-0.120832
-0.118316
-0.115714
-0.11302
-0.110236
-0.107365
-0.104421
-0.101425
-0.0984193
-0.0954559
-0.0925455
-0.0897148
-0.086999
-0.0844436
-0.0820652
-0.0798638
-0.0778382
-0.0759906
-0.0743118
-0.0727851
-0.0713961
-0.0701255
-0.06895
-0.0678463
-0.06679
-0.0657573
-0.0647337
-0.0637001
-0.0626373
-0.0615284
-0.0603559
-0.0591036
-0.0577555
-0.0562911
-0.054695
-0.0529467
-0.0510343
-0.0489417
-0.0466531
-0.0441549
-0.0414395
-0.0384976
-0.0353124
-0.0318702
-0.0281537
-0.024158
-0.0198961
-0.0153722
-0.0116389
-0.00822675
-0.00490879
-0.00160913
0.00169197
0.00499668
0.0083028
0.0116074
0.014908
0.0182029
0.0214907
0.0247711
0.0280438
0.031309
0.0345672
0.0378188
0.0410645
0.0443049
0.0475408
0.0507727
0.0540012
0.0572269
0.0604502
0.0636715
0.0668912
0.0701096
0.073327
0.0765435
0.0797593
0.0829746
0.0861895
0.0894041
0.0926185
0.0958327
0.0990467
0.102261
0.105475
0.108689
-0.218429
-0.214111
-0.209817
-0.205572
-0.201404
-0.197345
-0.193422
-0.189663
-0.186086
-0.182702
-0.179518
-0.176531
-0.173724
-0.171063
-0.168521
-0.166072
-0.163696
-0.161367
-0.159064
-0.156763
-0.154447
-0.152099
-0.149703
-0.147239
-0.144705
-0.142139
-0.139567
-0.137024
-0.134534
-0.132098
-0.129712
-0.127344
-0.125003
-0.122629
-0.120191
-0.117668
-0.115054
-0.112342
-0.109528
-0.10662
-0.103625
-0.100557
-0.0974525
-0.0943864
-0.0913773
-0.0884566
-0.085657
-0.0830275
-0.0805793
-0.0783147
-0.0762239
-0.0743059
-0.0725607
-0.0709749
-0.0695318
-0.0682145
-0.0670016
-0.0658673
-0.0647831
-0.0637252
-0.0626802
-0.0616296
-0.0605544
-0.0594366
-0.0582625
-0.0570142
-0.0556781
-0.054237
-0.0526694
-0.0509567
-0.0490854
-0.0470379
-0.0448003
-0.0423573
-0.039697
-0.0368061
-0.0336627
-0.0302368
-0.0264907
-0.0223733
-0.0178059
-0.0127191
-0.00967417
-0.00675875
-0.00373429
-0.000615852
0.00256172
0.00577404
0.00900597
0.012248
0.015494
0.0187402
0.0219839
0.0252239
0.0284593
0.0316901
0.0349163
0.0381382
0.0413564
0.0445713
0.0477834
0.0509933
0.0542015
0.0574083
0.0606141
0.0638192
0.0670239
0.0702284
0.0734328
0.0766372
0.0798418
0.0830466
0.0862516
0.0894569
0.0926623
0.095868
0.0990739
0.10228
0.105486
0.108692
-0.218496
-0.214314
-0.210157
-0.206042
-0.201998
-0.198058
-0.194247
-0.190591
-0.187112
-0.183813
-0.180696
-0.177751
-0.174961
-0.172302
-0.169745
-0.167267
-0.164842
-0.162442
-0.160044
-0.157629
-0.155182
-0.152678
-0.150097
-0.147427
-0.144699
-0.141937
-0.139193
-0.1365
-0.133891
-0.131358
-0.128908
-0.126483
-0.124111
-0.12172
-0.119284
-0.11676
-0.114142
-0.111418
-0.108586
-0.105648
-0.102611
-0.099486
-0.0963039
-0.093156
-0.090062
-0.0870618
-0.0841915
-0.0814976
-0.0789896
-0.0766698
-0.0745325
-0.0725675
-0.0707696
-0.0691306
-0.0676363
-0.0662701
-0.0650135
-0.0638431
-0.0627292
-0.0616455
-0.0605768
-0.0595062
-0.0584155
-0.0572888
-0.056114
-0.0548729
-0.053548
-0.0521285
-0.0505898
-0.0489171
-0.0470929
-0.0450962
-0.0429126
-0.0405288
-0.0379307
-0.0351026
-0.0320195
-0.0286396
-0.0248942
-0.0206538
-0.0155417
-0.00761166
-0.00766481
-0.0054537
-0.00268725
0.000298196
0.00338595
0.00652746
0.00969895
0.0128872
0.0160843
0.0192852
0.0224869
0.0256875
0.0288861
0.0320824
0.0352762
0.038468
0.0416579
0.0448465
0.0480342
0.0512213
0.0544084
0.0575956
0.0607833
0.0639717
0.0671609
0.0703509
0.0735419
0.0767339
0.0799269
0.0831208
0.0863156
0.0895112
0.0927075
0.0959045
0.0991019
0.1023
0.105498
0.108696
-0.218563
-0.214516
-0.210492
-0.206507
-0.202588
-0.198765
-0.195064
-0.191509
-0.188114
-0.184885
-0.181823
-0.178917
-0.176144
-0.173483
-0.170905
-0.168387
-0.1659
-0.163421
-0.160924
-0.158387
-0.155787
-0.153102
-0.150313
-0.147432
-0.144479
-0.141507
-0.138576
-0.135728
-0.132991
-0.130355
-0.127836
-0.125348
-0.122944
-0.120535
-0.118094
-0.115575
-0.112965
-0.110244
-0.107406
-0.10445
-0.101382
-0.0982146
-0.0949696
-0.0917527
-0.0885928
-0.0855343
-0.0826239
-0.0798884
-0.0773342
-0.0749637
-0.0727771
-0.0707692
-0.0689282
-0.0672431
-0.065702
-0.0642901
-0.0629893
-0.061778
-0.0606299
-0.0595195
-0.0584282
-0.0573387
-0.0562341
-0.055097
-0.0539169
-0.0526809
-0.05137
-0.0499712
-0.0484615
-0.0468267
-0.0450504
-0.0431106
-0.0409901
-0.0386731
-0.0361461
-0.0333955
-0.0304016
-0.027126
-0.0235084
-0.0194986
-0.0150467
-0.0103269
-0.00750672
-0.00477039
-0.00189729
0.00108771
0.00414459
0.007246
0.0103748
0.0135201
0.0166749
0.0198347
0.0229968
0.0261594
0.0293217
0.0324835
0.0356448
0.0388059
0.041967
0.0451287
0.0482913
0.0514551
0.0546205
0.0577876
0.0609567
0.0641278
0.067301
0.0704762
0.0736535
0.0768327
0.0800138
0.0831966
0.0863809
0.0895666
0.0927536
0.0959416
0.0991304
0.10232
0.10551
0.1087
-0.218627
-0.214709
-0.210813
-0.206956
-0.203162
-0.199456
-0.195863
-0.192406
-0.189097
-0.185937
-0.182923
-0.180041
-0.177278
-0.17461
-0.172005
-0.169442
-0.166888
-0.164318
-0.161706
-0.159026
-0.15625
-0.15336
-0.150349
-0.14723
-0.144045
-0.140854
-0.137725
-0.134714
-0.131841
-0.129094
-0.126503
-0.123967
-0.121533
-0.119105
-0.116661
-0.114145
-0.111535
-0.108808
-0.105967
-0.103009
-0.0999333
-0.0967457
-0.0934623
-0.0901937
-0.0869775
-0.0838635
-0.0809165
-0.078155
-0.075574
-0.0731733
-0.0709524
-0.0689079
-0.0670294
-0.065306
-0.0637246
-0.0622721
-0.0609306
-0.0596802
-0.0584973
-0.0573582
-0.056243
-0.0551351
-0.0540195
-0.0528774
-0.0516948
-0.0504614
-0.0491626
-0.0477815
-0.0463001
-0.0447047
-0.0429738
-0.0410858
-0.0390288
-0.0367856
-0.0343434
-0.0316898
-0.0288077
-0.025676
-0.0222603
-0.0185599
-0.0146424
-0.010692
-0.00735639
-0.00427953
-0.00125381
0.0017846
0.00484773
0.00793281
0.011034
0.0141461
0.0172648
0.0203874
0.023512
0.0266378
0.0297644
0.0328917
0.0360201
0.03915
0.0422819
0.045416
0.0485529
0.0516929
0.054836
0.0579826
0.0611326
0.0642861
0.067443
0.0706032
0.0737665
0.0769328
0.0801017
0.0832732
0.086447
0.0896227
0.0928002
0.0959791
0.0991593
0.10234
0.105522
0.108704
-0.21869
-0.214895
-0.211123
-0.20739
-0.203715
-0.200124
-0.196637
-0.193273
-0.190041
-0.186942
-0.183972
-0.181119
-0.178368
-0.175691
-0.173057
-0.170439
-0.167809
-0.165139
-0.162398
-0.159556
-0.156588
-0.153476
-0.150227
-0.146861
-0.143437
-0.140025
-0.136693
-0.133509
-0.130499
-0.127646
-0.124971
-0.122378
-0.119906
-0.11746
-0.115008
-0.112498
-0.109902
-0.107188
-0.104351
-0.10139
-0.0983008
-0.0950926
-0.0917825
-0.0884782
-0.0852187
-0.0820619
-0.0790865
-0.0763044
-0.0737036
-0.0712793
-0.0690339
-0.0669642
-0.0650579
-0.063305
-0.0616919
-0.0602064
-0.0588308
-0.0575462
-0.0563327
-0.0551678
-0.0540305
-0.052906
-0.05178
-0.0506343
-0.049453
-0.0482226
-0.046936
-0.0455749
-0.0441198
-0.0425586
-0.0408731
-0.0390401
-0.0370477
-0.0348825
-0.0325325
-0.0299874
-0.0272343
-0.0242662
-0.0210677
-0.017655
-0.0140992
-0.0104502
-0.00700699
-0.00377882
-0.000650518
0.00244007
0.00552036
0.00860056
0.0116833
0.0147686
0.0178556
0.0209435
0.0240323
0.0271219
0.0302127
0.0333053
0.0364004
0.0394986
0.0426005
0.0457066
0.0488173
0.0519329
0.0550535
0.0581791
0.0613098
0.0644455
0.0675858
0.0707308
0.07388
0.0770331
0.0801899
0.08335
0.0865131
0.0896788
0.0928468
0.0960167
0.0991881
0.102361
0.105534
0.108708
-0.218747
-0.215068
-0.211418
-0.207806
-0.20425
-0.200768
-0.197384
-0.19411
-0.190954
-0.187914
-0.184986
-0.182156
-0.179414
-0.176721
-0.174049
-0.171368
-0.16865
-0.165865
-0.162978
-0.159959
-0.156784
-0.153445
-0.149949
-0.146339
-0.142677
-0.139033
-0.13549
-0.132135
-0.128997
-0.126052
-0.123299
-0.120655
-0.118134
-0.115654
-0.11317
-0.11064
-0.108032
-0.105332
-0.102508
-0.0995553
-0.0964736
-0.0932673
-0.0899534
-0.0866286
-0.0833358
-0.080144
-0.0771491
-0.074351
-0.0717323
-0.0692884
-0.0670228
-0.0649328
-0.0630062
-0.0612331
-0.0595981
-0.0580885
-0.0566877
-0.0553753
-0.0541367
-0.0529507
-0.0517954
-0.0506585
-0.0495238
-0.0483746
-0.0471974
-0.0459721
-0.0446974
-0.0433588
-0.0419363
-0.040411
-0.0387696
-0.0369944
-0.0350697
-0.0329842
-0.030727
-0.0282911
-0.0256721
-0.0228698
-0.0198725
-0.0166936
-0.0133837
-0.00991622
-0.00648251
-0.0032072
-2.91262e-05
0.00309415
0.00618767
0.00926479
0.0123322
0.0153935
0.0184505
0.0215049
0.024558
0.0276112
0.0306658
0.033723
0.0367841
0.0398499
0.0429212
0.0459986
0.0490826
0.0521734
0.055271
0.0583755
0.0614867
0.0646043
0.0677281
0.0708578
0.0739928
0.0771329
0.0802775
0.0834263
0.0865788
0.0897345
0.092893
0.0960539
0.0992167
0.102381
0.105546
0.108712
-0.218804
-0.215242
-0.211708
-0.208214
-0.204771
-0.201397
-0.198111
-0.194925
-0.191841
-0.188859
-0.18597
-0.18316
-0.180417
-0.177699
-0.17498
-0.172229
-0.169412
-0.166496
-0.163443
-0.160229
-0.156839
-0.153269
-0.149538
-0.145701
-0.141828
-0.137981
-0.134235
-0.130692
-0.127414
-0.124378
-0.121547
-0.118847
-0.116261
-0.11374
-0.111224
-0.108683
-0.106062
-0.103351
-0.100528
-0.0975824
-0.0945083
-0.0913069
-0.0880046
-0.0846714
-0.0813524
-0.0781276
-0.0751103
-0.0722946
-0.0696549
-0.0671943
-0.0649156
-0.0628132
-0.0608747
-0.0590892
-0.0574412
-0.0559164
-0.0544998
-0.0531685
-0.0519114
-0.0507093
-0.0495412
-0.0483963
-0.047256
-0.0461054
-0.044933
-0.043717
-0.0424561
-0.0411409
-0.0397519
-0.038265
-0.0366709
-0.0349535
-0.0330999
-0.0310974
-0.0289412
-0.0266188
-0.0241242
-0.0214679
-0.0186397
-0.0156426
-0.012514
-0.00919741
-0.00582693
-0.00255744
0.000634502
0.00377112
0.00686912
0.00993982
0.0129908
0.0160274
0.019054
0.0220739
0.0250902
0.0281058
0.0311229
0.0341436
0.0371695
0.040202
0.0432419
0.0462901
0.0493469
0.0524125
0.055487
0.0585702
0.0616617
0.0647614
0.0678686
0.070983
0.074104
0.0772311
0.0803637
0.0835013
0.0866433
0.0897892
0.0929385
0.0960905
0.0992448
0.102401
0.105558
0.108716
-0.218864
-0.21542
-0.212002
-0.20862
-0.205287
-0.202017
-0.198827
-0.195723
-0.192707
-0.189775
-0.18692
-0.184128
-0.181378
-0.178623
-0.17584
-0.172999
-0.170065
-0.167003
-0.163775
-0.160357
-0.156748
-0.152955
-0.149015
-0.14498
-0.140921
-0.13689
-0.132987
-0.1293
-0.125882
-0.122729
-0.119804
-0.117032
-0.114375
-0.111796
-0.109222
-0.106634
-0.103986
-0.101262
-0.0984382
-0.0954972
-0.0924293
-0.0892354
-0.085956
-0.0826283
-0.0792919
-0.0760396
-0.0730006
-0.0701714
-0.0675079
-0.0650184
-0.0627213
-0.0606142
-0.0586726
-0.0568855
-0.0552346
-0.0537019
-0.0522751
-0.0509326
-0.049663
-0.0484495
-0.0472741
-0.0461239
-0.0449818
-0.0438325
-0.0426651
-0.0414614
-0.0402178
-0.0389281
-0.0375744
-0.036127
-0.0345824
-0.0329211
-0.0311406
-0.0292232
-0.0271663
-0.0249613
-0.0225998
-0.0200844
-0.0174126
-0.0145775
-0.0115974
-0.00839814
-0.00508798
-0.0018418
0.00134629
0.00448369
0.00757826
0.0106375
0.0136683
0.0166773
0.0196705
0.0226532
0.0256303
0.0286059
0.0315834
0.0345657
0.037555
0.0405529
0.0435607
0.0465789
0.0496081
0.0526483
0.0556995
0.0587613
0.0618333
0.0649151
0.0680059
0.0711053
0.0742125
0.0773268
0.0804476
0.0835743
0.0867061
0.0898424
0.0929826
0.096126
0.0992721
0.10242
0.10557
0.10872
-0.218925
-0.215601
-0.212297
-0.209025
-0.205799
-0.20263
-0.19953
-0.196502
-0.193548
-0.190663
-0.187836
-0.185055
-0.182285
-0.179481
-0.176618
-0.173668
-0.170595
-0.167365
-0.163945
-0.160329
-0.156505
-0.152503
-0.148376
-0.144182
-0.139977
-0.135791
-0.131732
-0.127919
-0.124402
-0.121164
-0.118154
-0.115294
-0.112544
-0.109878
-0.107232
-0.104579
-0.101882
-0.0991194
-0.0962672
-0.0933107
-0.090245
-0.0870674
-0.0838162
-0.0805077
-0.07717
-0.0738958
-0.0708311
-0.0679918
-0.0653224
-0.0628178
-0.0604985
-0.0583792
-0.0564356
-0.0546512
-0.0529999
-0.051463
-0.0500295
-0.0486811
-0.0474024
-0.0461807
-0.0450009
-0.043847
-0.0427058
-0.0415605
-0.0403997
-0.0392093
-0.0379845
-0.036721
-0.0354041
-0.0340018
-0.0325129
-0.0309156
-0.0292118
-0.027383
-0.025427
-0.0233313
-0.0210968
-0.0187097
-0.0161758
-0.0134912
-0.0106512
-0.0075539
-0.00429601
-0.00107481
0.00210515
0.00523865
0.008325
0.0113678
0.0143734
0.0173496
0.0203044
0.0232454
0.0261791
0.0291112
0.0320462
0.0349878
0.0379386
0.0409006
0.0438751
0.0468628
0.0498639
0.0528786
0.0559065
0.0589471
0.0619998
0.0650639
0.0681387
0.0712234
0.0743171
0.0774191
0.0805285
0.0836445
0.0867665
0.0898935
0.093025
0.0961601
0.0992983
0.102439
0.105581
0.108724
-0.218988
-0.215786
-0.212597
-0.209434
-0.206311
-0.203238
-0.200224
-0.19727
-0.194373
-0.191527
-0.188718
-0.185933
-0.18313
-0.180266
-0.177308
-0.174226
-0.170984
-0.167558
-0.163943
-0.160123
-0.156102
-0.151926
-0.14767
-0.143385
-0.139086
-0.134773
-0.130577
-0.12664
-0.123022
-0.119712
-0.116637
-0.113686
-0.110828
-0.108046
-0.105301
-0.102566
-0.0997969
-0.0969726
-0.0940803
-0.0910901
-0.0879988
-0.0848227
-0.0815866
-0.0782999
-0.0749848
-0.0717162
-0.068633
-0.0657852
-0.0631118
-0.0606022
-0.0582782
-0.0561551
-0.0542077
-0.0524245
-0.0507734
-0.049232
-0.0477889
-0.0464338
-0.0451466
-0.0439175
-0.0427334
-0.0415764
-0.0404352
-0.0392937
-0.0381401
-0.0369635
-0.03576
-0.0345229
-0.0332416
-0.0318871
-0.0304542
-0.0289243
-0.0273029
-0.0255685
-0.023722
-0.0217413
-0.0196299
-0.0173692
-0.0149633
-0.0123999
-0.00967342
-0.00667699
-0.0034734
-0.00026976
0.00290919
0.00604183
0.00911864
0.0121404
0.0151142
0.0180504
0.0209598
0.0238524
0.0267371
0.029621
0.0325097
0.0354076
0.0383178
0.0412424
0.0441826
0.0471391
0.0501121
0.0531012
0.0561059
0.0591256
0.0621594
0.0652064
0.0682656
0.0713361
0.0744168
0.0775069
0.0806054
0.0837113
0.0868238
0.0899421
0.0930652
0.0961925
0.0993231
0.102456
0.105591
0.108727
-0.21905
-0.21597
-0.212897
-0.209844
-0.206822
-0.203841
-0.200906
-0.198015
-0.195167
-0.19235
-0.189553
-0.186755
-0.18391
-0.180977
-0.17791
-0.174668
-0.171218
-0.16757
-0.163742
-0.159733
-0.15554
-0.151228
-0.146906
-0.142625
-0.138366
-0.134034
-0.12972
-0.12564
-0.121895
-0.118483
-0.115332
-0.112288
-0.109306
-0.106384
-0.103507
-0.100663
-0.0978023
-0.0948911
-0.0919239
-0.08887
-0.0857209
-0.0825186
-0.0792754
-0.0760021
-0.0727259
-0.0695013
-0.0664248
-0.0635842
-0.0609222
-0.058427
-0.0561136
-0.0539999
-0.0520594
-0.0502782
-0.0486226
-0.0470682
-0.0456032
-0.04423
-0.0429311
-0.0416931
-0.0405021
-0.0393386
-0.0381918
-0.0370483
-0.0358973
-0.0347317
-0.0335483
-0.0323352
-0.0310864
-0.0297813
-0.0284049
-0.026944
-0.0254023
-0.0237429
-0.0219942
-0.0201421
-0.0181693
-0.0160402
-0.0137615
-0.0113274
-0.00871609
-0.00581073
-0.00265121
0.000561965
0.00376113
0.00690316
0.00997132
0.0129665
0.0158996
0.0187856
0.0216398