/*--------------------------------*- C++ -*----------------------------------*\
  =========                 |
  \\      /  F ield         | OpenFOAM: The Open Source CFD Toolbox
   \\    /   O peration     | Website:  https://openfoam.org
    \\  /    A nd           | Version:  6
     \\/     M anipulation  |
\*---------------------------------------------------------------------------*/
FoamFile
{
    version     2.0;
    format      ascii;
    class       surfaceScalarField;
    location    "3550";
    object      phi;
}
// * * * * * * * * * * * * * * * * * * * * * * * * * * * * * * * * * * * * * //

dimensions      [0 3 -1 0 0 0 0];

internalField   nonuniform List<scalar> 
9440
(
8.20703e-11
-8.20703e-11
1.35896e-10
-5.38263e-11
1.24038e-10
1.18576e-11
6.72789e-11
5.67585e-11
-1.26998e-11
7.99781e-11
-1.78636e-10
1.65936e-10
-3.92109e-10
2.13472e-10
-5.88308e-10
1.96199e-10
-8.17434e-10
2.29125e-10
-9.17702e-10
1.00268e-10
-1.03689e-09
1.1919e-10
-1.08865e-09
5.17537e-11
-1.10852e-09
1.98754e-11
-1.05306e-09
-5.54692e-11
-1.06745e-09
1.43955e-11
-1.08307e-09
1.56206e-11
-1.12482e-09
4.17417e-11
-1.14649e-09
2.1673e-11
-1.16315e-09
1.66589e-11
-1.1919e-09
2.87471e-11
-1.18692e-09
-4.98441e-12
-1.00326e-09
-1.83657e-10
-8.22703e-10
-1.80559e-10
-8.36904e-10
1.41988e-11
-4.02355e-10
-4.3455e-10
-1.14834e-10
-2.87523e-10
8.44083e-11
-1.99244e-10
2.92938e-10
-2.08531e-10
4.98037e-10
-2.05101e-10
7.20148e-10
-2.22112e-10
9.36474e-10
-2.16327e-10
1.08964e-09
-1.53164e-10
1.25866e-09
-1.69021e-10
1.28859e-09
-2.99318e-11
1.36668e-09
-7.80927e-11
1.43478e-09
-6.81037e-11
1.45161e-09
-1.68326e-11
1.42215e-09
2.9463e-11
1.38624e-09
3.59049e-11
1.35347e-09
3.27724e-11
1.2741e-09
7.93693e-11
1.20651e-09
6.75883e-11
1.21223e-09
-5.7263e-12
1.20805e-09
4.1784e-12
1.28959e-09
-8.15417e-11
1.575e-09
-2.85408e-10
1.99475e-09
-4.19749e-10
2.23232e-09
-2.3757e-10
2.50049e-09
-2.68179e-10
2.85421e-09
-3.53716e-10
3.18872e-09
-3.34512e-10
3.48621e-09
-2.97494e-10
3.63458e-09
-1.48376e-10
3.96513e-09
-3.30549e-10
4.31346e-09
-3.48334e-10
4.39813e-09
-8.46675e-11
4.62306e-09
-2.24935e-10
4.83824e-09
-2.15181e-10
4.89026e-09
-5.20287e-11
5.07895e-09
-1.8869e-10
5.1434e-09
-6.44496e-11
5.13723e-09
6.17025e-12
5.0654e-09
7.18205e-11
5.03554e-09
2.98621e-11
4.86425e-09
1.71284e-10
4.75458e-09
1.0967e-10
4.53977e-09
2.1481e-10
4.40304e-09
1.3673e-10
4.20438e-09
1.98657e-10
3.98006e-09
2.24315e-10
3.79027e-09
1.89783e-10
3.43228e-09
3.57996e-10
3.29695e-09
1.3532e-10
2.80262e-09
4.94332e-10
2.61233e-09
1.90288e-10
2.21018e-09
4.02145e-10
1.9883e-09
2.21883e-10
1.43383e-09
5.54465e-10
8.94312e-10
5.39516e-10
5.1777e-10
3.7654e-10
1.02653e-15
5.17768e-10
4.14659e-20
1.50664e-18
-6.68719e-19
7.10185e-19
-1.12459e-18
4.54789e-19
-1.42503e-18
2.99174e-19
-1.61142e-18
1.85119e-19
-1.70291e-18
9.02152e-20
-1.71172e-18
7.52296e-21
-1.64916e-18
-6.38799e-20
-1.52588e-18
-1.24646e-19
-1.35215e-18
-1.75146e-19
-1.13798e-18
-2.1564e-19
-8.93069e-19
-2.46432e-19
-6.26715e-19
-2.67904e-19
-3.47753e-19
-2.80529e-19
-6.44423e-20
-2.84881e-19
2.15628e-19
-2.81636e-19
4.85636e-19
-2.71566e-19
7.39604e-19
-2.55527e-19
9.72469e-19
-2.34427e-19
1.18011e-18
-2.09209e-19
1.35935e-18
-1.80811e-19
1.50792e-18
-1.50144e-19
1.62441e-18
-1.18069e-19
1.70818e-18
-8.5373e-20
1.75929e-18
-5.27629e-20
1.77839e-18
-2.08501e-20
1.76663e-18
9.85441e-21
1.72557e-18
3.89416e-20
1.65713e-18
6.60989e-20
1.5635e-18
9.10965e-20
1.44704e-18
1.13773e-19
1.31025e-18
1.34017e-19
1.15569e-18
1.51757e-19
9.85934e-19
1.66947e-19
8.03541e-19
1.79563e-19
6.11076e-19
1.89592e-19
4.11128e-19
1.9701e-19
2.06398e-19
2.01723e-19
2.03342e-19
2.05229e-11
-1.02594e-10
-4.08634e-11
7.55909e-12
-2.0196e-10
1.72953e-10
-3.25658e-10
1.80456e-10
-4.56471e-10
2.1079e-10
-5.3975e-10
2.49214e-10
-6.03932e-10
2.77653e-10
-7.49632e-10
3.41898e-10
-9.22561e-10
4.02053e-10
-1.13069e-09
3.0839e-10
-1.19623e-09
1.8473e-10
-1.21482e-09
7.03485e-11
-1.20976e-09
1.48154e-11
-1.13741e-09
-1.27829e-10
-1.1431e-09
2.00913e-11
-1.21606e-09
8.85759e-11
-1.30132e-09
1.26999e-10
-1.3893e-09
1.09649e-10
-1.45242e-09
7.97811e-11
-1.48073e-09
5.70494e-11
-1.46605e-09
-1.96658e-11
-1.28682e-09
-3.62893e-10
-1.3172e-09
-1.50178e-10
-1.10462e-09
-1.98384e-10
-6.336e-10
-9.05573e-10
-4.55401e-10
-4.65725e-10
-2.68595e-10
-3.86053e-10
-1.38975e-11
-4.63232e-10
2.70617e-10
-4.89618e-10
4.70347e-10
-4.21845e-10
6.11837e-10
-3.5782e-10
8.54714e-10
-3.96044e-10
9.45145e-10
-2.59454e-10
1.00968e-09
-9.44666e-11
1.04019e-09
-1.08612e-10
1.06146e-09
-8.93749e-11
1.08184e-09
-3.72114e-11
1.0621e-09
4.91992e-11
1.0186e-09
7.94046e-11
9.35252e-10
1.16117e-10
7.94305e-10
2.20315e-10
7.07012e-10
1.54879e-10
6.97575e-10
3.70853e-12
7.20059e-10
-1.8308e-11
8.9399e-10
-2.55475e-10
1.14147e-09
-5.32895e-10
1.58204e-09
-8.60319e-10
2.02546e-09
-6.80987e-10
2.20097e-09
-4.43693e-10
2.54501e-09
-6.97766e-10
2.86496e-09
-6.54466e-10
3.20523e-09
-6.37766e-10
3.43492e-09
-3.78067e-10
3.69517e-09
-5.90802e-10
3.87263e-09
-5.25802e-10
3.96739e-09
-1.79433e-10
4.34465e-09
-6.02199e-10
4.62161e-09
-4.92148e-10
4.78301e-09
-2.13425e-10
4.78703e-09
-1.92718e-10
4.77577e-09
-5.31913e-11
4.75043e-09
3.15039e-11
4.71238e-09
1.09865e-10
4.56446e-09
1.77781e-10
4.55453e-09
1.81203e-10
4.32194e-09
3.42256e-10
4.21926e-09
3.17489e-10
4.02136e-09
3.34625e-10
3.86786e-09
3.52154e-10
3.71834e-09
3.73829e-10
3.5015e-09
4.06621e-10
3.36965e-09
4.89846e-10
2.97887e-09
5.26088e-10
2.88424e-09
5.88964e-10
2.33481e-09
7.39714e-10
2.12641e-09
6.10535e-10
1.6236e-09
7.24688e-10
1.25477e-09
9.23293e-10
1.02359e-09
7.70694e-10
5.16526e-10
8.83601e-10
9.46411e-16
1.03429e-09
-4.14709e-19
2.94437e-18
-9.31955e-19
1.2262e-18
-1.28596e-18
8.06603e-19
-1.54286e-18
5.53839e-19
-1.70826e-18
3.48268e-19
-1.7858e-18
1.65477e-19
-1.7831e-18
2.50029e-21
-1.70993e-18
-1.39447e-19
-1.57638e-18
-2.60669e-19
-1.39265e-18
-3.61429e-19
-1.16878e-18
-4.42123e-19
-9.1454e-19
-5.03332e-19
-6.3934e-19
-5.45804e-19
-3.52105e-19
-5.70479e-19
-6.11972e-20
-5.78509e-19
2.25698e-19
-5.71259e-19
5.01676e-19
-5.50289e-19
7.60703e-19
-5.17324e-19
9.97687e-19
-4.74207e-19
1.20851e-18
-4.22849e-19
1.39002e-18
-3.65163e-19
1.54e-18
-3.03009e-19
1.6571e-18
-2.38139e-19
1.74079e-18
-1.72156e-19
1.7912e-18
-1.06477e-19
1.80909e-18
-4.23097e-20
1.79572e-18
1.93553e-20
1.75273e-18
7.7733e-20
1.68213e-18
1.3222e-19
1.58617e-18
1.82361e-19
1.46728e-18
2.27826e-19
1.32799e-18
2.68378e-19
1.17088e-18
3.03868e-19
9.9855e-19
3.34212e-19
8.13569e-19
3.59385e-19
6.18494e-19
3.794e-19
4.15842e-19
3.94293e-19
2.08017e-19
4.0411e-19
4.08989e-19
-1.01075e-10
-1.51914e-12
-2.47449e-10
1.53932e-10
-3.39559e-10
2.65063e-10
-4.32413e-10
2.73309e-10
-5.78542e-10
3.56918e-10
-6.96079e-10
3.6675e-10
-8.06356e-10
3.87929e-10
-9.70878e-10
5.06419e-10
-1.06179e-09
4.92968e-10
-1.14181e-09
3.884e-10
-1.17312e-09
2.16045e-10
-1.18509e-09
8.23197e-11
-1.26581e-09
9.55248e-11
-1.46322e-09
6.95798e-11
-1.51694e-09
7.38112e-11
-1.58882e-09
1.6046e-10
-1.65375e-09
1.91927e-10
-1.71971e-09
1.75606e-10
-1.77272e-09
1.32783e-10
-1.82463e-09
1.08961e-10
-1.6847e-09
-1.59594e-10
-1.58214e-09
-4.65464e-10
-1.4162e-09
-3.16112e-10
-1.06317e-09
-5.51416e-10
-8.19608e-10
-1.14914e-09
-6.84878e-10
-6.00458e-10
-5.3203e-10
-5.38903e-10
-3.08819e-10
-6.86446e-10
-9.33549e-11
-7.05085e-10
1.57082e-10
-6.72284e-10
4.05061e-10
-6.05803e-10
5.38902e-10
-5.29887e-10
6.52631e-10
-3.73186e-10
7.6107e-10
-2.02908e-10
7.86817e-10
-1.3436e-10
7.4223e-10
-4.47906e-11
6.88401e-10
1.66164e-11
5.95942e-10
1.41656e-10
5.16304e-10
1.59041e-10
4.13677e-10
2.18741e-10
3.25714e-10
3.08276e-10
2.99122e-10
1.81469e-10
3.5283e-10
-5.00011e-11
4.71144e-10
-1.36624e-10
6.80516e-10
-4.64849e-10
9.26494e-10
-7.78875e-10
1.31499e-09
-1.24882e-09
1.83895e-09
-1.20495e-09
2.01508e-09
-6.19827e-10
2.47905e-09
-1.16174e-09
2.65679e-09
-8.32207e-10
2.88829e-09
-8.69273e-10
3.16287e-09
-6.52642e-10
3.45478e-09
-8.82715e-10
3.6806e-09
-7.51628e-10
3.69042e-09
-1.89263e-10
3.98203e-09
-8.93809e-10
4.25901e-09
-7.69127e-10
4.39879e-09
-3.53215e-10
4.43066e-09
-2.24589e-10
4.40317e-09
-2.57025e-11
4.38103e-09
5.36338e-11
4.35752e-09
1.33377e-10
4.24604e-09
2.89257e-10
4.12734e-09
2.99899e-10
4.06421e-09
4.0538e-10
3.83027e-09
5.5143e-10
3.70401e-09
4.6088e-10
3.44074e-09
6.15419e-10
3.36281e-09
4.51761e-10
3.14915e-09
6.20277e-10
3.03891e-09
6.00084e-10
2.82809e-09
7.36903e-10
2.58852e-09
8.28538e-10
2.36535e-09
9.62873e-10
2.09562e-09
8.80268e-10
1.64883e-09
1.17147e-09
1.29253e-09
1.27959e-09
7.48573e-10
1.31465e-09
3.32058e-10
1.30011e-09
8.10993e-16
1.36634e-09
-1.45264e-18
2.53605e-18
-1.35029e-18
1.12294e-18
-1.53754e-18
9.92085e-19
-1.74731e-18
7.61814e-19
-1.88998e-18
4.8916e-19
-1.94775e-18
2.2148e-19
-1.92488e-18
-2.215e-20
-1.83115e-18
-2.34973e-19
-1.67714e-18
-4.1652e-19
-1.47334e-18
-5.67119e-19
-1.22998e-18
-6.87424e-19
-9.57012e-19
-7.78305e-19
-6.64015e-19
-8.4086e-19
-3.60135e-19
-8.76475e-19
-5.39472e-20
-8.86868e-19
2.46668e-19
-8.74102e-19
5.34641e-19
-8.40551e-19
8.0382e-19
-7.88859e-19
1.04905e-18
-7.21863e-19
1.26619e-18
-6.42503e-19
1.45217e-18
-5.53724e-19
1.60486e-18
-4.5838e-19
1.72309e-18
-3.59143e-19
1.80647e-18
-2.5844e-19
1.85537e-18
-1.58407e-19
1.87076e-18
-6.08574e-20
1.85409e-18
3.27197e-20
1.80722e-18
1.21146e-19
1.73227e-18
2.03518e-19
1.63164e-18
2.79172e-19
1.50783e-18
3.47633e-19
1.36348e-18
4.08587e-19
1.20123e-18
4.61846e-19
1.02372e-18
5.0733e-19
8.33585e-19
5.45039e-19
6.33386e-19
5.75029e-19
4.25659e-19
5.97387e-19
2.12897e-19
6.1222e-19
6.19644e-19
-2.70146e-11
2.5495e-11
-2.64095e-10
3.91012e-10
-4.42307e-10
4.43274e-10
-5.32954e-10
3.63956e-10
-7.17954e-10
5.41916e-10
-8.88341e-10
5.37136e-10
-1.04693e-09
5.46513e-10
-1.11593e-09
5.75418e-10
-1.17497e-09
5.52012e-10
-1.2348e-09
4.48227e-10
-1.27412e-09
2.55366e-10
-1.39125e-09
1.99453e-10
-1.54129e-09
2.45556e-10
-1.70494e-09
2.33231e-10
-1.85083e-09
2.19702e-10
-1.92251e-09
2.32133e-10
-1.95398e-09
2.23394e-10
-1.96994e-09
1.91572e-10
-1.93175e-09
9.45826e-11
-1.90358e-09
8.0788e-11
-1.76519e-09
-2.97986e-10
-1.65409e-09
-5.76565e-10
-1.42254e-09
-5.47664e-10
-1.10101e-09
-8.72948e-10
-9.66594e-10
-1.28356e-09
-7.66075e-10
-8.00979e-10
-5.90646e-10
-7.14335e-10
-2.94797e-10
-9.82297e-10
-7.80422e-11
-9.21842e-10
6.52473e-11
-8.15575e-10
1.98302e-10
-7.38859e-10
3.12127e-10
-6.43714e-10
4.00374e-10
-4.61435e-10
5.00892e-10
-3.03429e-10
5.21981e-10
-1.55451e-10
4.76506e-10
6.82576e-13
4.12991e-10
8.01295e-11
3.64024e-10
1.90621e-10
3.31639e-10
1.91424e-10
2.5477e-10
2.95609e-10
2.27192e-10
3.35852e-10
1.86601e-10
2.22058e-10
2.05231e-10
-6.86327e-11
3.60995e-10
-2.9239e-10
5.25951e-10
-6.29807e-10
6.96666e-10
-9.49592e-10
9.55875e-10
-1.50803e-09
1.53153e-09
-1.78061e-09
1.86606e-09
-9.5436e-10
2.12515e-09
-1.42083e-09
2.50162e-09
-1.20869e-09
2.69837e-09
-1.06603e-09
2.89217e-09
-8.46446e-10
3.11052e-09
-1.10107e-09
3.35552e-09
-9.96634e-10
3.66587e-09
-4.99615e-10
3.61777e-09
-8.45715e-10
3.7134e-09
-8.64756e-10
3.92857e-09
-5.68388e-10
3.96943e-09
-2.65454e-10
4.01368e-09
-6.99578e-11
3.97225e-09
9.50621e-11
3.9312e-09
1.7442e-10
3.89138e-09
3.29081e-10
3.6904e-09
5.00874e-10
3.66992e-09
4.25851e-10
3.52792e-09
6.93433e-10
3.3252e-09
6.63591e-10
3.15847e-09
7.82152e-10
2.93473e-09
6.75497e-10
2.8303e-09
7.24704e-10
2.74315e-09
6.87237e-10
2.504e-09
9.76044e-10
2.17758e-09
1.15496e-09
1.96761e-09
1.17283e-09
1.4187e-09
1.42918e-09
9.61333e-10
1.62884e-09
6.68247e-10
1.57268e-09
3.76548e-10
1.60634e-09
2.3541e-10
1.44125e-09
6.00454e-16
1.60175e-09
-1.84561e-18
-2.33944e-18
-1.47988e-18
7.56363e-19
-1.7666e-18
1.27735e-18
-2.01882e-18
1.01257e-18
-2.15658e-18
6.25495e-19
-2.19036e-18
2.53875e-19
-2.13758e-18
-7.62914e-20
-2.0127e-18
-3.61213e-19
-1.82774e-18
-6.02864e-19
-1.59365e-18
-8.02642e-19
-1.32087e-18
-9.61699e-19
-1.01957e-18
-1.08118e-18
-6.99629e-19
-1.16247e-18
-3.70529e-19
-1.20735e-18
-4.11804e-20
-1.21809e-18
2.80219e-19
-1.19747e-18
5.86333e-19
-1.14875e-18
8.70816e-19
-1.07557e-18
1.12841e-18
-9.81834e-19
1.35497e-18
-8.7161e-19
1.54752e-18
-7.48953e-19
1.7041e-18
-6.1778e-19
1.82379e-18
-4.81744e-19
1.9065e-18
-3.44143e-19
1.95292e-18
-2.07864e-19
1.96434e-18
-7.53446e-20
1.94252e-18
5.14222e-20
1.88959e-18
1.70874e-19
1.80793e-18
2.81837e-19
1.7001e-18
3.83468e-19
1.56879e-18
4.752e-19
1.41674e-18
5.56685e-19
1.24671e-18
6.27747e-19
1.06143e-18
6.88344e-19
8.63575e-19
7.3853e-19
6.55745e-19
7.78424e-19
4.40492e-19
8.08174e-19
2.2032e-19
8.27929e-19
8.37813e-19
-2.55803e-10
2.81297e-10
-2.08058e-10
3.43266e-10
-2.68038e-10
5.03253e-10
-3.91015e-10
4.86932e-10
-4.9738e-10
6.48281e-10
-6.91433e-10
7.31189e-10
-1.03095e-09
8.86028e-10
-1.22597e-09
7.70436e-10
-1.34908e-09
6.75124e-10
-1.40398e-09
5.03129e-10
-1.44903e-09
3.00414e-10
-1.638e-09
3.8842e-10
-1.83923e-09
4.46788e-10
-1.94274e-09
3.36739e-10
-2.05448e-09
3.31439e-10
-2.10566e-09
2.83312e-10
-2.14276e-09
2.60493e-10
-2.13825e-09
1.87054e-10
-2.03242e-09
-1.12486e-11
-1.89749e-09
-5.41423e-11
-1.92211e-09
-2.73365e-10
-1.74498e-09
-7.53697e-10
-1.47939e-09
-8.13263e-10
-1.17638e-09
-1.17596e-09
-1.0784e-09
-1.38154e-09
-9.08111e-10
-9.71268e-10
-4.57951e-10
-1.1645e-09
-1.24118e-10
-1.31613e-09
6.52877e-11
-1.11125e-09
2.39025e-10
-9.89315e-10
3.49952e-10
-8.49788e-10
3.45128e-10
-6.38892e-10
3.25297e-10
-4.41607e-10
3.16265e-10
-2.94398e-10
3.00042e-10
-1.3923e-10
2.64571e-10
3.61512e-11
2.25422e-10
1.19277e-10
1.78681e-10
2.3736e-10
1.43311e-10
2.26793e-10
1.11006e-10
3.27912e-10
1.5004e-10
2.96817e-10
1.35636e-10
2.3646e-10
4.58433e-11
2.11587e-11
1.8542e-10
-4.31968e-10
4.61462e-10
-9.05851e-10
8.69611e-10
-1.35774e-09
1.05138e-09
-1.6898e-09
1.23451e-09
-1.96373e-09
1.83233e-09
-1.55219e-09
1.94136e-09
-1.52986e-09
2.13905e-09
-1.40638e-09
2.36664e-09
-1.29362e-09
2.68636e-09
-1.16617e-09
2.90327e-09
-1.31798e-09
2.82067e-09
-9.14039e-10
3.30109e-09
-9.80033e-10
3.371e-09
-9.15628e-10
3.36021e-09
-8.53974e-10
3.41053e-09
-6.18708e-10
3.39189e-09
-2.46812e-10
3.46538e-09
-1.4345e-10
3.44292e-09
1.17513e-10
3.38232e-09
2.35023e-10
3.35468e-09
3.56715e-10
3.30407e-09
5.51485e-10
3.12623e-09
6.03689e-10
3.14396e-09
6.757e-10
2.87888e-09
9.2866e-10
2.80208e-09
8.58956e-10
2.61031e-09
8.67263e-10
2.3472e-09
9.87808e-10
2.35943e-09
6.7501e-10
2.33018e-09
1.00529e-09
2.25505e-09
1.2301e-09
2.05104e-09
1.37684e-09
1.97452e-09
1.50569e-09
1.72179e-09
1.88157e-09
1.61811e-09
1.67635e-09
1.41678e-09
1.80768e-09
8.85831e-10
1.97219e-09
3.44585e-16
2.48758e-09
2.63578e-18
1.22024e-17
-9.5764e-19
4.34906e-18
-2.03012e-18
2.34878e-18
-2.40471e-18
1.38613e-18
-2.5271e-18
7.46905e-19
-2.5195e-18
2.45349e-19
-2.42245e-18
-1.74234e-19
-2.25435e-18
-5.3019e-19
-2.02752e-18
-8.30606e-19
-1.7527e-18
-1.07842e-18
-1.44035e-18
-1.2751e-18
-1.10086e-18
-1.42183e-18
-7.44505e-19
-1.5201e-18
-3.81266e-19
-1.57199e-18
-2.0564e-20
-1.58032e-18
3.28938e-19
-1.54864e-18
6.59516e-19
-1.48116e-18
9.64549e-19
-1.38263e-18
1.23863e-18
-1.25818e-18
1.47763e-18
-1.11311e-18
1.67869e-18
-9.5271e-19
1.84014e-18
-7.82081e-19
1.96139e-18
-6.05944e-19
2.04278e-18
-4.28534e-19
2.08544e-18
-2.53525e-19
2.0911e-18
-8.39938e-20
2.06197e-18
7.75792e-20
2.00055e-18
2.29278e-19
1.90956e-18
3.697e-19
1.79183e-18
4.9788e-19
1.65027e-18
6.13211e-19
1.4878e-18
7.1537e-19
1.30731e-18
8.04245e-19
1.11162e-18
8.79882e-19
9.03468e-19
9.42427e-19
6.85495e-19
9.92092e-19
4.60247e-19
1.02911e-18
2.30204e-19
1.05368e-18
1.06597e-18
-2.89758e-10
5.71055e-10
-5.93519e-10
6.47027e-10
-7.51073e-10
6.60807e-10
-8.98228e-10
6.34086e-10
-8.90994e-10
6.41046e-10
-8.3877e-10
6.78964e-10
-9.33145e-10
9.80402e-10
-1.11839e-09
9.55682e-10
-1.3467e-09
9.03431e-10
-1.57279e-09
7.29215e-10
-1.70882e-09
4.36447e-10
-1.81885e-09
4.98446e-10
-1.94766e-09
5.75602e-10
-2.06728e-09
4.56354e-10
-2.1364e-09
4.00556e-10
-2.18712e-09
3.34032e-10
-2.21363e-09
2.86997e-10
-2.15064e-09
1.24066e-10
-2.04485e-09
-1.17043e-10
-1.91401e-09
-1.8498e-10
-1.82513e-09
-3.6225e-10
-1.76458e-09
-8.1425e-10
-1.46999e-09
-1.10785e-09
-1.29249e-09
-1.35346e-09
-1.08466e-09
-1.58938e-09
-5.66816e-10
-1.48911e-09
-6.4691e-11
-1.66662e-09
2.63967e-10
-1.64479e-09
5.24372e-10
-1.37166e-09
6.49335e-10
-1.11428e-09
7.18733e-10
-9.19189e-10
6.56032e-10
-5.76193e-10
6.38981e-10
-4.24558e-10
5.60056e-10
-2.15474e-10
4.84613e-10
-6.37893e-11
4.29107e-10
9.16557e-11
3.55598e-10
1.92785e-10
3.01168e-10
2.91789e-10
2.2257e-10
3.0539e-10
1.60499e-10
3.89981e-10
1.07262e-10
3.50052e-10
1.33526e-10
2.10194e-10
2.09948e-10
-5.52643e-11
3.0807e-10
-5.30092e-10
5.18334e-10
-1.11612e-09
8.83086e-10
-1.7225e-09
1.0517e-09
-1.85842e-09
1.05407e-09
-1.96611e-09
1.40924e-09
-1.90736e-09
1.71875e-09
-1.83938e-09
1.92778e-09
-1.61541e-09
2.08909e-09
-1.45494e-09
2.30923e-09
-1.3863e-09
2.44483e-09
-1.45358e-09
2.68082e-09
-1.15004e-09
2.7327e-09
-1.03191e-09
2.70323e-09
-8.86161e-10
2.76472e-09
-9.15471e-10
2.85571e-09
-7.09698e-10
2.88381e-09
-2.74918e-10
2.91165e-09
-1.71286e-10
2.8918e-09
1.37355e-10
2.83875e-09
2.88072e-10
2.79389e-09
4.01575e-10
2.79529e-09
5.50076e-10
2.67623e-09
7.22749e-10
2.66491e-09
6.87022e-10
2.53622e-09
1.05734e-09
2.32446e-09
1.07071e-09
2.28108e-09
9.10641e-10
2.01854e-09
1.25035e-09
1.66565e-09
1.0279e-09
1.23085e-09
1.44009e-09
1.09309e-09
1.36786e-09
1.06885e-09
1.40108e-09
1.03171e-09
1.54283e-09
1.0804e-09
1.83287e-09
9.27257e-10
1.8295e-09
6.14727e-10
2.12021e-09
3.65464e-10
2.22145e-09
2.71445e-17
2.85305e-09
-3.50255e-18
7.95737e-18
-2.95629e-18
3.80226e-18
-2.99139e-18
2.38332e-18
-3.04271e-18
1.43691e-18
-3.02754e-18
7.31221e-19
-2.93813e-18
1.55473e-19
-2.7784e-18
-3.344e-19
-2.55477e-18
-7.5425e-19
-2.27533e-18
-1.1105e-18
-1.94938e-18
-1.40489e-18
-1.58708e-18
-1.63802e-18
-1.19913e-18
-1.81053e-18
-7.96398e-19
-1.92373e-18
-3.89594e-19
-1.97986e-18
1.11196e-20
-1.98224e-18
3.96417e-19
-1.93527e-18
7.58044e-19
-1.84427e-18
1.089e-18
-1.71529e-18
1.3837e-18
-1.55485e-18
1.63803e-18
-1.36969e-18
1.84932e-18
-1.16652e-18
2.01628e-18
-9.51762e-19
2.1388e-18
-7.31316e-19
2.21779e-18
-5.10438e-19
2.25497e-18
-2.93625e-19
2.25268e-18
-8.45911e-20
2.21367e-18
1.13724e-19
2.14097e-18
2.99104e-19
2.03774e-18
4.69979e-19
1.90716e-18
6.25331e-19
1.75243e-18
7.6459e-19
1.57668e-18
8.87524e-19
1.38294e-18
9.94155e-19
1.17416e-18
1.08467e-18
9.53133e-19
1.15937e-18
7.22508e-19
1.21858e-18
4.8482e-19
1.26266e-18
2.42493e-19
1.2919e-18
1.30652e-18
-6.98853e-11
6.4094e-10
-1.43397e-10
7.20538e-10
-2.0178e-10
7.1919e-10
-4.17927e-10
8.50233e-10
-9.34886e-10
1.158e-09
-1.32168e-09
1.06576e-09
-1.31272e-09
9.71437e-10
-1.33763e-09
9.80589e-10
-1.39013e-09
9.55929e-10
-1.51641e-09
8.55497e-10
-1.67131e-09
5.9135e-10
-1.82139e-09
6.48525e-10
-1.93559e-09
6.898e-10
-2.04978e-09
5.70539e-10
-2.11417e-09
4.64948e-10
-2.11462e-09
3.34478e-10
-2.06908e-09
2.41455e-10
-1.95973e-09
1.47192e-11
-1.85937e-09
-2.17404e-10
-1.71826e-09
-3.26092e-10
-1.58052e-09
-4.99993e-10
-1.4358e-09
-9.5897e-10
-1.20967e-09
-1.33398e-09
-9.37824e-10
-1.62531e-09
-4.57929e-10
-2.06928e-09
8.28073e-11
-2.02985e-09
4.12774e-10
-1.99659e-09
6.71617e-10
-1.90364e-09
1.00099e-09
-1.70103e-09
1.19282e-09
-1.30611e-09
1.24803e-09
-9.744e-10
1.20555e-09
-5.3372e-10
1.1788e-09
-3.97805e-10
1.03939e-09
-7.6072e-11
8.8144e-10
9.41627e-11
7.70196e-10
2.02897e-10
6.5244e-10
3.1054e-10
5.6068e-10
3.83547e-10
4.4783e-10
4.18238e-10
3.41515e-10
4.96295e-10
3.24235e-10
3.67332e-10
3.08843e-10
2.25584e-10
3.98784e-10
-1.45207e-10
4.3825e-10
-5.6956e-10
5.14444e-10
-1.19231e-09
6.12134e-10
-1.82019e-09
9.16843e-10
-2.16313e-09
1.12423e-09
-2.17349e-09
1.29556e-09
-2.07869e-09
1.40887e-09
-1.95268e-09
1.7352e-09
-1.94174e-09
1.9773e-09
-1.69705e-09
2.10591e-09
-1.51492e-09
2.04751e-09
-1.39519e-09
2.08976e-09
-1.19228e-09
2.17066e-09
-1.11282e-09
2.20308e-09
-9.18583e-10
2.15631e-09
-8.68701e-10
2.14374e-09
-6.97125e-10
2.19919e-09
-3.30375e-10
2.23907e-09
-2.11171e-10
2.24498e-09
1.31448e-10
2.25878e-09
2.74268e-10
2.23893e-09
4.21429e-10
2.22003e-09
5.68974e-10
2.12367e-09
8.19102e-10
1.97283e-09
8.37865e-10
1.9492e-09
1.08096e-09
1.8602e-09
1.15972e-09
1.88631e-09
8.84525e-10
1.98854e-09
1.14812e-09
1.802e-09
1.21444e-09
1.95919e-09
1.28289e-09
1.80852e-09
1.51854e-09
1.53838e-09
1.67121e-09
1.25083e-09
1.83038e-09
1.07249e-09
2.01121e-09
6.62806e-10
2.23918e-09
5.29432e-10
2.25358e-09
4.08719e-10
2.34217e-09
-1.88622e-16
3.26176e-09
-5.5668e-18
5.48466e-18
-4.37359e-18
2.60877e-18
-3.93639e-18
1.946e-18
-3.74716e-18
1.24756e-18
-3.60217e-18
5.86092e-19
-3.42718e-18
-1.96373e-20
-3.19825e-18
-5.63419e-19
-2.91102e-18
-1.04156e-18
-2.56972e-18
-1.45192e-18
-2.18251e-18
-1.79228e-18
-1.7596e-18
-2.0612e-18
-1.31233e-18
-2.25823e-18
-8.52524e-19
-2.38415e-18
-3.91973e-19
-2.44121e-18
5.80911e-20
-2.43325e-18
4.87416e-19
-2.36563e-18
8.87025e-19
-2.24499e-18
1.24944e-18
-2.07897e-18
1.56886e-18
-1.87577e-18
1.84119e-18
-1.64385e-18
2.06408e-18
-1.39156e-18
2.23672e-18
-1.12684e-18
2.35968e-18
-8.56901e-19
2.4346e-18
-5.8811e-19
2.46401e-18
-3.25818e-19
2.45099e-18
-7.43621e-20
2.39905e-18
1.6291e-19
2.31185e-18
3.83556e-19
2.19309e-18
5.8593e-19
2.04642e-18
7.69059e-19
1.87537e-18
9.32496e-19
1.68331e-18
1.0762e-18
1.47346e-18
1.20039e-18
1.24886e-18
1.30549e-18
1.01235e-18
1.39199e-18
7.66589e-19
1.46042e-18
5.1406e-19
1.51128e-18
2.57106e-19
1.54497e-18
1.5618e-18
-9.49539e-11
7.35893e-10
-2.32072e-10
8.57655e-10
-4.21356e-10
9.08474e-10
-3.66146e-10
7.95022e-10
-2.16883e-10
1.00874e-09
-5.12423e-10
1.3613e-09
-8.96349e-10
1.35536e-09
-1.13985e-09
1.22409e-09
-1.33469e-09
1.15077e-09
-1.49924e-09
1.02005e-09
-1.60784e-09
6.99947e-10
-1.77419e-09
8.14874e-10
-1.88913e-09
8.04743e-10
-1.95489e-09
6.36297e-10
-1.92666e-09
4.36715e-10
-1.86216e-09
2.69975e-10
-1.71027e-09
8.95621e-11
-1.51655e-09
-1.79002e-10
-1.36411e-09
-3.69838e-10
-1.23847e-09
-4.51735e-10
-1.05489e-09
-6.83575e-10
-8.88841e-10
-1.12502e-09
-6.60933e-10
-1.56189e-09
-3.08947e-10
-1.9773e-09
1.48112e-10
-2.52634e-09
4.64925e-10
-2.34666e-09
8.08757e-10
-2.34043e-09
1.05553e-09
-2.15041e-09
1.27416e-09
-1.91967e-09
1.54125e-09
-1.5732e-09
1.63816e-09
-1.07131e-09
1.60965e-09
-5.05211e-10
1.61296e-09
-4.0112e-10
1.52102e-09
1.58673e-11
1.35304e-09
2.62145e-10
1.16339e-09
3.9254e-10
9.84178e-10
4.89754e-10
8.11985e-10
5.55739e-10
6.84041e-10
5.4618e-10
5.84066e-10
5.96269e-10
5.26884e-10
4.24513e-10
6.07946e-10
1.44521e-10
6.4121e-10
-1.78473e-10
6.87375e-10
-6.15727e-10
7.18646e-10
-1.22358e-09
7.15233e-10
-1.81678e-09
8.30893e-10
-2.27879e-09
9.8528e-10
-2.32788e-09
1.16924e-09
-2.26265e-09
1.25323e-09
-2.03668e-09
1.25072e-09
-1.93923e-09
1.40027e-09
-1.8466e-09
1.59851e-09
-1.71316e-09
1.73887e-09
-1.53555e-09
1.81433e-09
-1.26775e-09
1.77003e-09
-1.06852e-09
1.77002e-09
-9.18572e-10
1.66324e-09
-7.61927e-10
1.58507e-09
-6.18951e-10
1.6644e-09
-4.09707e-10
1.69795e-09
-2.44724e-10
1.72542e-09
1.03976e-10
1.69684e-09
3.02846e-10
1.71961e-09
3.98661e-10
1.66562e-09
6.2296e-10
1.66455e-09
8.20171e-10
1.59473e-09
9.07684e-10
1.62005e-09
1.05564e-09
1.57914e-09
1.20063e-09
1.40916e-09
1.05451e-09
1.19991e-09
1.35736e-09
1.01807e-09
1.39628e-09
9.56485e-10
1.34448e-09
9.6004e-10
1.51498e-09
1.04886e-09
1.58239e-09
1.03344e-09
1.84579e-09
9.90287e-10
2.05437e-09
7.87097e-10
2.44237e-09
6.17337e-10
2.42334e-09
4.10701e-10
2.5488e-09
-2.53834e-16
3.67247e-09
-5.97293e-18
3.41486e-18
-5.03482e-18
1.67062e-18
-4.63345e-18
1.54478e-18
-4.40739e-18
1.0216e-18
-4.20679e-18
3.85531e-19
-3.97028e-18
-2.56109e-19
-3.67639e-18
-8.57247e-19
-3.32138e-18
-1.39646e-18
-2.91008e-18
-1.86311e-18
-2.45143e-18
-2.25088e-18
-1.95663e-18
-2.55604e-18
-1.43825e-18
-2.7768e-18
-9.09586e-19
-2.91321e-18
-3.84012e-19
-2.96743e-18
1.25715e-19
-2.94381e-18
6.08049e-19
-2.84885e-18
1.05305e-18
-2.69085e-18
1.45264e-18
-2.47942e-18
1.80077e-18
-2.22488e-18
2.09348e-18
-1.93782e-18
2.32881e-18
-1.62853e-18
2.50666e-18
-1.30669e-18
2.62847e-18
-9.81012e-19
2.69689e-18
-6.59039e-19
2.71546e-18
-3.47e-19
2.68826e-18
-4.98148e-20
2.6197e-18
2.28838e-19
2.51422e-18
4.86402e-19
2.37622e-18
7.2128e-19
2.20986e-18
9.32663e-19
2.01907e-18
1.12036e-18
1.8075e-18
1.28461e-18
1.57856e-18
1.42597e-18
1.33536e-18
1.54514e-18
1.08078e-18
1.64292e-18
8.17446e-19
1.72007e-18
5.47754e-19
1.77729e-18
2.73931e-19
1.81514e-18
1.83402e-18
-2.16031e-10
9.51924e-10
-2.8057e-10
9.22193e-10
-3.62718e-10
9.90622e-10
-7.11323e-10
1.14363e-09
-9.15542e-10
1.21296e-09
-9.02904e-10
1.34866e-09
-9.30272e-10
1.38273e-09
-1.02362e-09
1.31744e-09
-1.15523e-09
1.28238e-09
-1.32271e-09
1.18752e-09
-1.5379e-09
9.15137e-10
-1.64497e-09
9.21946e-10
-1.72905e-09
8.88822e-10
-1.67006e-09
5.77307e-10
-1.58107e-09
3.47717e-10
-1.38035e-09
6.92604e-11
-1.18511e-09
-1.05687e-10
-1.01943e-09
-3.44682e-10
-8.5575e-10
-5.33517e-10
-8.60411e-10
-4.47075e-10
-6.00185e-10
-9.43802e-10
-2.87955e-10
-1.43726e-09
1.60575e-11
-1.86591e-09
2.38279e-10
-2.19952e-09
5.91082e-10
-2.87915e-09
9.32769e-10
-2.68835e-09
1.19304e-09
-2.6007e-09
1.45398e-09
-2.41135e-09
1.62732e-09
-2.09302e-09
1.80747e-09
-1.75335e-09
1.94788e-09
-1.21172e-09
1.97827e-09
-5.35603e-10
1.86226e-09
-2.85108e-10
1.83689e-09
4.12372e-11
1.80463e-09
2.94403e-10
1.60242e-09
5.94744e-10
1.37598e-09
7.16196e-10
1.11444e-09
8.17283e-10
9.32749e-10
7.27866e-10
8.2146e-10
7.07556e-10
7.57886e-10
4.88086e-10
8.48455e-10
5.39502e-11
8.91574e-10
-2.21592e-10
8.84524e-10
-6.08679e-10
8.48588e-10
-1.18765e-09
7.8988e-10
-1.75807e-09
8.38021e-10
-2.32693e-09
9.13644e-10
-2.40351e-09
9.88424e-10
-2.33744e-09
1.12249e-09
-2.17075e-09
1.23287e-09
-2.04961e-09
1.36653e-09
-1.98026e-09
1.40634e-09
-1.75298e-09
1.36372e-09
-1.49293e-09
1.36628e-09
-1.27031e-09
1.3745e-09
-1.07674e-09
1.38048e-09
-9.24551e-10
1.31121e-09
-6.92659e-10
1.27661e-09
-5.84357e-10
1.30043e-09
-4.33531e-10
1.25096e-09
-1.95249e-10
1.23137e-09
1.23561e-10
1.26913e-09
2.65092e-10
1.20315e-09
4.64633e-10
1.1187e-09
7.07414e-10
1.13059e-09
8.08276e-10
1.07533e-09
9.62947e-10
1.18655e-09
9.44412e-10
1.3258e-09
1.06138e-09
1.33714e-09
1.04317e-09
1.36479e-09
1.32971e-09
1.36922e-09
1.39185e-09
1.28721e-09
1.42648e-09
1.12073e-09
1.68146e-09
9.88236e-10
1.71489e-09
9.02494e-10
1.93154e-09
8.03339e-10
2.15352e-09
7.87846e-10
2.45787e-09
6.62953e-10
2.54823e-09
3.37021e-10
2.87473e-09
-1.72655e-16
4.00949e-09
-4.84538e-18
5.51716e-18
-5.1592e-18
1.98455e-18
-5.15527e-18
1.54103e-18
-5.04224e-18
9.08651e-19
-4.84735e-18
1.90622e-19
-4.57091e-18
-5.32566e-19
-4.2156e-18
-1.21251e-18
-3.78804e-18
-1.82389e-18
-3.29785e-18
-2.35312e-18
-2.75659e-18
-2.79196e-18
-2.17738e-18
-3.13511e-18
-1.57466e-18
-3.37946e-18
-9.63806e-19
-3.52424e-18
-3.60391e-19
-3.57135e-18
2.20676e-19
-3.5257e-18
7.66046e-19
-3.39516e-18
1.26449e-18
-3.19013e-18
1.70718e-18
-2.92277e-18
2.08784e-18
-2.60614e-18
2.40277e-18
-2.25346e-18
2.65065e-18
-1.87744e-18
2.83233e-18
-1.48983e-18
2.95044e-18
-1.10099e-18
3.00893e-18
-7.19708e-19
3.01265e-18
-3.53089e-19
2.96692e-18
-6.55878e-21
2.87726e-18
3.16004e-19
2.7491e-18
6.1208e-19
2.5876e-18
8.80288e-19
2.39755e-18
1.12015e-18
2.18332e-18
1.33189e-18
1.94886e-18
1.51617e-18
1.69773e-18
1.67398e-18
1.43314e-18
1.80645e-18
1.15793e-18
1.91473e-18
8.74664e-19
1.9999e-18
5.85605e-19
2.0629e-18
2.9281e-19
2.10451e-18
2.12523e-18
2.05239e-11
9.314e-10
-1.17686e-10
1.0604e-09
-2.69296e-10
1.14223e-09
-4.08599e-10
1.28293e-09
-6.5895e-10
1.46331e-09
-8.60636e-10
1.55035e-09
-9.83646e-10
1.50574e-09
-1.01446e-09
1.34825e-09
-1.09041e-09
1.35832e-09
-1.20091e-09
1.29802e-09
-1.38545e-09
1.09968e-09
-1.46014e-09
9.96634e-10
-1.40433e-09
8.33012e-10
-1.2851e-09
4.58074e-10
-1.12702e-09
1.89635e-10
-9.59439e-10
-9.83192e-11
-7.02662e-10
-3.62464e-10
-6.36038e-10
-4.11307e-10
-4.22522e-10
-7.47034e-10
-2.49061e-10
-6.20538e-10
1.22118e-10
-1.31498e-09
3.40641e-10
-1.65578e-09
5.42638e-10
-2.06791e-09
8.25577e-10
-2.48246e-09
1.02199e-09
-3.07556e-09
1.31089e-09
-2.97726e-09
1.53996e-09
-2.82976e-09
1.70575e-09
-2.57715e-09
1.90371e-09
-2.29098e-09
2.00272e-09
-1.85236e-09
2.12856e-09
-1.33756e-09
2.28289e-09
-6.89931e-10
2.24768e-09
-2.49906e-10
2.20372e-09
8.52019e-11
2.15004e-09
3.48082e-10
1.86551e-09
8.79273e-10
1.61664e-09
9.65061e-10
1.40356e-09
1.03036e-09
1.21867e-09
9.1275e-10
1.0836e-09
8.42627e-10
9.94819e-10
5.76869e-10
1.0238e-09
2.49696e-11
1.09242e-09
-2.90216e-10
1.07679e-09
-5.93051e-10
1.03313e-09
-1.14399e-09
9.38887e-10
-1.66383e-09
9.13982e-10
-2.30203e-09
9.58908e-10
-2.44844e-09
1.02409e-09
-2.40262e-09
1.0882e-09
-2.23486e-09
1.0168e-09
-1.97822e-09
9.41336e-10
-1.90479e-09
1.02087e-09
-1.83251e-09
1.09338e-09
-1.56543e-09
1.10329e-09
-1.28022e-09
1.06456e-09
-1.03801e-09
1.04326e-09
-9.03248e-10
1.08774e-09
-7.37148e-10
1.00453e-09
-5.01145e-10
9.01544e-10
-3.30543e-10
7.85809e-10
-7.95149e-11
8.47919e-10
6.14506e-11
8.53216e-10
2.59794e-10
8.55305e-10
4.62544e-10
9.48508e-10
6.1421e-10
9.61939e-10
7.94845e-10
1.03444e-09
8.90449e-10
9.16331e-10
1.06252e-09
7.85382e-10
1.19233e-09
6.49222e-10
1.17933e-09
7.78032e-10
1.2009e-09
9.47954e-10
1.22193e-09
8.64253e-10
1.51019e-09
9.25015e-10
1.6207e-09
8.29938e-10
1.80996e-09
7.22565e-10
2.03891e-09
6.73527e-10
2.20256e-09
6.33748e-10
2.49765e-09
5.00329e-10
2.68165e-09
2.9328e-10
3.08178e-09
-4.39771e-17
4.30277e-09
-5.05422e-18
7.73116e-18
-5.60123e-18
2.53168e-18
-5.78629e-18
1.72617e-18
-5.75906e-18
8.81396e-19
-5.56947e-18
8.62184e-22
-5.25051e-18
-8.51714e-19
-4.82697e-18
-1.63611e-18
-4.31727e-18
-2.33349e-18
-3.73669e-18
-2.93349e-18
-3.09974e-18
-3.42863e-18
-2.42173e-18
-3.81276e-18
-1.71944e-18
-4.08137e-18
-1.01092e-18
-4.23253e-18
-3.14738e-19
-4.2677e-18
3.51215e-19
-4.19236e-18
9.71073e-19
-4.01609e-18
1.53185e-18
-3.75198e-18
2.02381e-18
-3.41551e-18
2.44052e-18
-3.02332e-18
2.77878e-18
-2.59205e-18
3.03826e-18
-2.13742e-18
3.22117e-18
-1.67362e-18
3.33172e-18
-1.21288e-18
3.37555e-18
-7.65302e-19
3.35918e-18
-3.3878e-19
3.28948e-18
6.08991e-20
3.17333e-18
4.29847e-19
3.01731e-18
7.65802e-19
2.82747e-18
1.06782e-18
2.60929e-18
1.33599e-18
2.3676e-18
1.5711e-18
2.10667e-18
1.77446e-18
1.8302e-18
1.94762e-18
1.54141e-18
2.09223e-18
1.2431e-18
2.20991e-18
9.37673e-19
2.30214e-18