/*--------------------------------*- C++ -*----------------------------------*\
  =========                 |
  \\      /  F ield         | OpenFOAM: The Open Source CFD Toolbox
   \\    /   O peration     | Website:  https://openfoam.org
    \\  /    A nd           | Version:  6
     \\/     M anipulation  |
\*---------------------------------------------------------------------------*/
FoamFile
{
    version     2.0;
    format      ascii;
    class       volScalarField;
    location    "1800";
    object      dmdt;
}
// * * * * * * * * * * * * * * * * * * * * * * * * * * * * * * * * * * * * * //

dimensions      [0 0 0 0 0 0 0];

internalField   nonuniform List<scalar> 
4800
(
-0.219365
-0.216906
-0.214419
-0.211885
-0.209288
-0.206618
-0.20387
-0.201045
-0.198152
-0.195205
-0.192222
-0.189222
-0.186223
-0.183248
-0.180321
-0.177462
-0.174691
-0.172027
-0.169491
-0.167107
-0.164893
-0.162854
-0.160983
-0.159266
-0.157682
-0.156211
-0.154829
-0.15352
-0.152265
-0.15105
-0.149861
-0.148687
-0.14751
-0.14632
-0.145104
-0.143848
-0.142536
-0.14116
-0.139709
-0.138165
-0.136509
-0.134726
-0.132808
-0.130756
-0.128576
-0.126277
-0.123863
-0.121342
-0.118715
-0.115985
-0.113152
-0.110219
-0.107187
-0.104063
-0.100855
-0.0975721
-0.0942246
-0.0908276
-0.0873982
-0.0839523
-0.0805035
-0.0770642
-0.0736469
-0.0702622
-0.0669175
-0.063614
-0.0603507
-0.057128
-0.0539365
-0.0507641
-0.0476088
-0.0444702
-0.0413466
-0.0382292
-0.0350927
-0.0319072
-0.0286481
-0.025295
-0.0218412
-0.0183012
-0.0147065
-0.0111138
-0.00756714
-0.00406052
-0.000591967
0.00284003
0.00623688
0.00960023
0.0129319
0.0162338
0.0195079
0.0227562
0.0259807
0.0291833
0.0323658
0.03553
0.0386774
0.0418095
0.0449277
0.0480332
0.0511273
0.0542111
0.0572855
0.0603514
0.0634098
0.0664614
0.0695069
0.0725471
0.0755824
0.0786136
0.081641
0.0846652
0.0876866
0.0907057
0.0937227
0.0967381
0.0997522
0.102765
0.105778
0.10879
-0.219363
-0.216896
-0.214401
-0.21186
-0.209256
-0.206579
-0.203826
-0.200999
-0.198107
-0.195161
-0.192178
-0.189175
-0.186176
-0.183204
-0.180278
-0.177415
-0.174636
-0.171976
-0.16946
-0.167103
-0.164919
-0.16291
-0.161066
-0.159374
-0.157811
-0.156355
-0.154987
-0.153689
-0.152444
-0.151238
-0.150056
-0.148883
-0.147704
-0.146509
-0.145285
-0.144019
-0.142698
-0.141314
-0.13985
-0.138291
-0.136624
-0.134836
-0.132921
-0.130877
-0.128706
-0.126415
-0.12401
-0.121495
-0.118871
-0.116143
-0.11331
-0.110374
-0.107338
-0.104208
-0.100993
-0.0977024
-0.0943504
-0.0909531
-0.0875246
-0.0840798
-0.0806325
-0.0771967
-0.0737848
-0.0704062
-0.0670664
-0.063764
-0.0604967
-0.0572622
-0.0540534
-0.0508637
-0.0476884
-0.0445243
-0.0413695
-0.0382146
-0.0350467
-0.0318485
-0.0285877
-0.025234
-0.0217829
-0.0182481
-0.0146608
-0.0110757
-0.00753402
-0.00403089
-0.000565091
0.00286447
0.00625898
0.00962003
0.0129494
0.0162491
0.019521
0.0227673
0.02599
0.0291909
0.032372
0.0355348
0.0386811
0.0418123
0.0449297
0.0480346
0.0511282
0.0542115
0.0572856
0.0603513
0.0634095
0.0664609
0.0695064
0.0725464
0.0755818
0.0786129
0.0816404
0.0846646
0.0876861
0.0907052
0.0937223
0.0967378
0.0997519
0.102765
0.105778
0.10879
-0.219356
-0.216876
-0.214367
-0.21181
-0.209194
-0.206508
-0.203749
-0.200918
-0.198025
-0.195081
-0.1921
-0.189098
-0.1861
-0.183128
-0.180205
-0.177353
-0.174594
-0.171961
-0.169481
-0.167172
-0.16504
-0.16308
-0.161283
-0.15963
-0.158098
-0.156668
-0.155322
-0.154044
-0.152815
-0.151622
-0.150449
-0.14928
-0.148101
-0.146904
-0.145672
-0.144392
-0.143053
-0.141648
-0.14016
-0.138578
-0.13689
-0.135092
-0.133181
-0.131148
-0.128992
-0.126716
-0.124324
-0.121817
-0.1192
-0.116475
-0.11364
-0.110699
-0.107655
-0.104514
-0.101287
-0.097986
-0.0946265
-0.0912233
-0.0877894
-0.0843418
-0.0808964
-0.0774672
-0.0740634
-0.070692
-0.0673559
-0.0640518
-0.0607754
-0.0575208
-0.0542845
-0.0510634
-0.0478501
-0.0446391
-0.0414272
-0.0382096
-0.0349843
-0.0317405
-0.0284568
-0.0251027
-0.021661
-0.0181413
-0.0145724
-0.0110017
-0.00746891
-0.00397205
-0.000511356
0.00291351
0.00630341
0.00965982
0.0129846
0.0162797
0.0195472
0.0227895
0.0260084
0.029206
0.032384
0.0355443
0.0386884
0.0418177
0.0449335
0.0480372
0.0511297
0.0542122
0.0572856
0.0603509
0.0634087
0.0664599
0.0695051
0.0725451
0.0755804
0.0786115
0.081639
0.0846633
0.0876849
0.0907041
0.0937214
0.096737
0.0997513
0.102765
0.105777
0.108789
-0.219345
-0.216843
-0.214312
-0.211739
-0.209111
-0.206416
-0.203652
-0.200822
-0.197932
-0.194992
-0.192015
-0.189017
-0.186017
-0.183042
-0.18013
-0.177311
-0.174604
-0.172025
-0.169605
-0.167363
-0.165295
-0.163395
-0.161652
-0.160045
-0.158553
-0.157158
-0.155844
-0.154592
-0.153387
-0.152213
-0.151055
-0.149897
-0.148724
-0.147526
-0.146287
-0.144992
-0.143635
-0.142208
-0.140695
-0.139085
-0.137372
-0.135559
-0.13364
-0.131608
-0.129463
-0.127201
-0.124821
-0.122324
-0.119716
-0.116995
-0.114158
-0.111209
-0.108153
-0.104998
-0.101754
-0.0984371
-0.0950622
-0.0916458
-0.0882043
-0.0847559
-0.0813154
-0.0778943
-0.0744985
-0.0711312
-0.0677905
-0.064476
-0.0611831
-0.0579036
-0.0546346
-0.0513733
-0.0481128
-0.0448446
-0.0415638
-0.0382698
-0.0349669
-0.0316528
-0.0283171
-0.0249423
-0.0215079
-0.0180063
-0.0144545
-0.0108966
-0.00737349
-0.00388427
-0.000430345
0.00298789
0.00637098
0.00972035
0.013038
0.0163261
0.0195869
0.0228229
0.026036
0.0292285
0.032402
0.0355584
0.0386992
0.0418256
0.0449392
0.0480409
0.0511319
0.0542132
0.0572857
0.0603501
0.0634074
0.0664582
0.0695032
0.0725431
0.0755783
0.0786094
0.081637
0.0846614
0.0876832
0.0907026
0.09372
0.0967359
0.0997504
0.102764
0.105777
0.108789
-0.219331
-0.216802
-0.214249
-0.211659
-0.209019
-0.206319
-0.203556
-0.200729
-0.197845
-0.194914
-0.191952
-0.188976
-0.186008
-0.183067
-0.180175
-0.177378
-0.174715
-0.172204
-0.169858
-0.167687
-0.165691
-0.163859
-0.162178
-0.160625
-0.159181
-0.157831
-0.156556
-0.155338
-0.154164
-0.153016
-0.151879
-0.150737
-0.149575
-0.148381
-0.147138
-0.145834
-0.144462
-0.143013
-0.141475
-0.139839
-0.138104
-0.136272
-0.134338
-0.132298
-0.130151
-0.127896
-0.125525
-0.123037
-0.120435
-0.117716
-0.114875
-0.111914
-0.108842
-0.105666
-0.1024
-0.0990606
-0.0956659
-0.0922342
-0.0887859
-0.0853382
-0.0819032
-0.0784877
-0.0750942
-0.0717232
-0.0683729
-0.0650425
-0.0617268
-0.0584193
-0.0551147
-0.0518076
-0.0484919
-0.0451599
-0.0418059
-0.0384295
-0.035034
-0.0316224
-0.0282052
-0.0247867
-0.0213383
-0.0178402
-0.0143055
-0.0107618
-0.00724851
-0.00376722
-0.000320999
0.00308895
0.00646299
0.00980276
0.0131105
0.0163889
0.0196404
0.0228677
0.026073
0.0292585
0.0324259
0.035577
0.0387133
0.0418361
0.0449465
0.0480457
0.0511347
0.0542143
0.0572855
0.0603491
0.0634056
0.0664559
0.0695006
0.0725403
0.0755754
0.0786066
0.0816343
0.0846589
0.0876808
0.0907005
0.0937182
0.0967344
0.0997492
0.102763
0.105776
0.108789
-0.219318
-0.216765
-0.214192
-0.211585
-0.208936
-0.206233
-0.203471
-0.200652
-0.19778
-0.194863
-0.191917
-0.188962
-0.186019
-0.183111
-0.18027
-0.177531
-0.174932
-0.172499
-0.170238
-0.16815
-0.166235
-0.164478
-0.162864
-0.161374
-0.159987
-0.158688
-0.157459
-0.156283
-0.155146
-0.15403
-0.15292
-0.151798
-0.150652
-0.149465
-0.148224
-0.146918
-0.145537
-0.144075
-0.142519
-0.140865
-0.139108
-0.137254
-0.135298
-0.13324
-0.131082
-0.128825
-0.126457
-0.123976
-0.121376
-0.118652
-0.115798
-0.11282
-0.109723
-0.10652
-0.103224
-0.0998589
-0.096443
-0.0929987
-0.0895454
-0.086097
-0.0826648
-0.0792503
-0.0758537
-0.0724746
-0.0691108
-0.0657598
-0.0624168
-0.0590754
-0.0557288
-0.0523686
-0.048991
-0.0455899
-0.0421602
-0.0386977
-0.0352006
-0.0316789
-0.0281528
-0.02464
-0.0211369
-0.0176392
-0.0141306
-0.0106001
-0.00709428
-0.00361958
-0.000181259
0.00321887
0.00658142
0.0099086
0.0132034
0.0164689
0.0197082
0.0229242
0.0261193
0.0292958
0.0324555
0.0356
0.0387306
0.0418487
0.0449553
0.0480514
0.0511379
0.0542155
0.0572852
0.0603476
0.0634033
0.066453
0.0694973
0.0725367
0.0755718
0.078603
0.0816308
0.0846557
0.0876779
0.0906978
0.0937159
0.0967325
0.0997477
0.102762
0.105776
0.108789
-0.219309
-0.216739
-0.21415
-0.21153
-0.208872
-0.20617
-0.203417
-0.20061
-0.197752
-0.194855
-0.191931
-0.188998
-0.18609
-0.18324
-0.180469
-0.177803
-0.175281
-0.172926
-0.170749
-0.168752
-0.166923
-0.165248
-0.163711
-0.162291
-0.160968
-0.159729
-0.158552
-0.157424
-0.156328
-0.155249
-0.154169
-0.153074
-0.151946
-0.150772
-0.149537
-0.148235
-0.146853
-0.145385
-0.143822
-0.142157
-0.140385
-0.138513
-0.136532
-0.134452
-0.132278
-0.130009
-0.127636
-0.125151
-0.122546
-0.119808
-0.116932
-0.113926
-0.110797
-0.107559
-0.104228
-0.100834
-0.097396
-0.0939395
-0.09048
-0.087029
-0.0835949
-0.0801772
-0.0767753
-0.0733856
-0.0700059
-0.0666329
-0.0632574
-0.0598725
-0.056474
-0.053053
-0.0496069
-0.0461308
-0.042618
-0.0390606
-0.0354573
-0.0318205
-0.0281745
-0.0245535
-0.0209779
-0.0174512
-0.0139429
-0.0104155
-0.00690985
-0.00343831
-7.54202e-06
0.00338098
0.00672895
0.0100399
0.0133178
0.0165668
0.0197906
0.0229924
0.0261749
0.0293403
0.0324905
0.0356269
0.0387508
0.0418633
0.0449654
0.0480578
0.0511413
0.0542166
0.0572845
0.0603455
0.0634003
0.0664493
0.0694932
0.0725324
0.0755674
0.0785987
0.0816267
0.0846518
0.0876743
0.0906947
0.0937132
0.0967302
0.0997459
0.102761
0.105775
0.108789
-0.219306
-0.216729
-0.214133
-0.211511
-0.208854
-0.206155
-0.203412
-0.200621
-0.197784
-0.194911
-0.192021
-0.189139
-0.186278
-0.183471
-0.18076
-0.178177
-0.175749
-0.173488
-0.171404
-0.1695
-0.167762
-0.166173
-0.164715
-0.163371
-0.162118
-0.160942
-0.159823
-0.158747
-0.157697
-0.156658
-0.155613
-0.154549
-0.153443
-0.152283
-0.151062
-0.149772
-0.148396
-0.146933
-0.14537
-0.143702
-0.141922
-0.140034
-0.138031
-0.13593
-0.133736
-0.131452
-0.129066
-0.126569
-0.123948
-0.121185
-0.118277
-0.115231
-0.11206
-0.108778
-0.105407
-0.101983
-0.0985231
-0.0950518
-0.0915822
-0.0881251
-0.0846846
-0.0812603
-0.0778493
-0.0744453
-0.0710447
-0.0676433
-0.0642282
-0.0607924
-0.0573348
-0.0538476
-0.0503269
-0.0467667
-0.0431604
-0.0395014
-0.0357918
-0.0320442
-0.0282808
-0.0245419
-0.0208808
-0.0173023
-0.0137582
-0.0102084
-0.00669044
-0.00321721
0.000205967
0.00357995
0.00690898
0.0101987
0.0134551
0.0166832
0.0198877
0.0230721
0.0262393
0.0293915
0.0325305
0.0356574
0.0387735
0.0418796
0.0449764
0.0480646
0.0511447
0.0542175
0.0572834
0.0603429
0.0633966
0.0664449
0.0694883
0.0725272
0.0755622
0.0785936
0.0816218
0.0846472
0.0876702
0.090691
0.09371
0.0967275
0.0997439
0.102759
0.105774
0.108788
-0.219308
-0.216735
-0.214146
-0.21153
-0.208881
-0.206196
-0.203467
-0.200694
-0.197887
-0.195055
-0.192208
-0.189365
-0.186556
-0.183815
-0.181178
-0.178681
-0.176347
-0.174181
-0.172194
-0.170389
-0.168746
-0.167247
-0.165872
-0.164605
-0.163424
-0.162314
-0.161255
-0.160236
-0.159235
-0.15824
-0.157234
-0.156203
-0.155124
-0.153988
-0.152788
-0.151514
-0.150154
-0.1487
-0.147145
-0.145481
-0.143698
-0.141798
-0.139775
-0.137654
-0.135442
-0.133141
-0.130743
-0.128227
-0.125579
-0.12278
-0.119827
-0.11673
-0.113507
-0.110175
-0.106761
-0.103303
-0.0998179
-0.0963271
-0.0928427
-0.0893733
-0.0859209
-0.0824846
-0.0790579
-0.0756348
-0.0722081
-0.0687701
-0.0653069
-0.0618145
-0.058293
-0.0547319
-0.0511262
-0.047469
-0.0437574
-0.039992
-0.0361805
-0.0323388
-0.0284898
-0.0246611
-0.0208933
-0.0172019
-0.0135694
-0.00996689
-0.00642335
-0.00294516
0.000467938
0.00382192
0.0071254
0.0103874
0.0136161
0.0168183
0.0199991
0.0231627
0.0263118
0.0294486
0.0325746
0.0356909
0.0387981
0.041897
0.0449879
0.0480715
0.051148
0.0542179
0.0572816
0.0603395
0.063392
0.0664395
0.0694825
0.0725212
0.0755562
0.0785877
0.0816162
0.084642
0.0876654
0.0906868
0.0937064
0.0967245
0.0997415
0.102758
0.105773
0.108788
-0.219316
-0.216759
-0.214185
-0.211585
-0.208955
-0.206289
-0.203583
-0.200839
-0.198066
-0.195274
-0.192479
-0.189694
-0.186949
-0.184284
-0.181731
-0.179323
-0.177081
-0.175016
-0.173132
-0.171424
-0.169874
-0.168464
-0.167174
-0.165986
-0.164879
-0.163836
-0.162841
-0.16188
-0.160931
-0.159983
-0.159019
-0.158024
-0.156978
-0.155874
-0.154696
-0.153443
-0.152109
-0.150667
-0.149125
-0.147471
-0.145687
-0.143779
-0.141742
-0.139607
-0.137381
-0.135065
-0.132651
-0.130112
-0.127429
-0.124584
-0.121574
-0.118415
-0.11513
-0.11174
-0.108278
-0.104782
-0.101268
-0.0977536
-0.0942509
-0.0907655
-0.0872963
-0.0838404
-0.080389
-0.0769372
-0.0734761
-0.069994
-0.0664768
-0.0629233
-0.0593294
-0.0556812
-0.0519757
-0.0482111
-0.0443892
-0.0405129
-0.0365927
-0.0326462
-0.0286973
-0.0247752
-0.0208987
-0.0170758
-0.0133332
-0.00966105
-0.00608586
-0.00260529
0.000789943
0.004114
0.007382
0.0106074
0.0138011
0.0169712
0.0201238
0.0232628
0.0263912
0.0295106
0.0326221
0.0357264
0.0388239
0.0419149
0.0449996
0.0480781
0.0511507
0.0542176
0.057279
0.0603352
0.0633866
0.0664333
0.0694758
0.0725143
0.0755493
0.0785811
0.0816099
0.0846361
0.0876601
0.090682
0.0937023
0.0967211
0.0997388
0.102756
0.105772
0.108788
-0.21933
-0.216801
-0.214255
-0.211683
-0.20908
-0.206441
-0.203763
-0.201053
-0.198322
-0.195577
-0.192831
-0.190107
-0.187438
-0.184854
-0.182393
-0.18008
-0.177938
-0.175975
-0.174194
-0.17259
-0.171141
-0.169825
-0.168621
-0.16751
-0.166477
-0.165503
-0.164574
-0.163672
-0.162778
-0.161882
-0.160962
-0.160007
-0.158998
-0.157926
-0.156775
-0.15555
-0.154239
-0.152816
-0.151294
-0.14965
-0.147871
-0.14596
-0.14392
-0.141775
-0.139537
-0.137205
-0.134771
-0.132205
-0.129478
-0.126582
-0.123506
-0.120274
-0.116916
-0.11346
-0.109943
-0.106404
-0.102857
-0.0993156
-0.0957904
-0.0922849
-0.0887944
-0.0853134
-0.0818305
-0.0783399
-0.0748327
-0.0712966
-0.0677176
-0.0640923
-0.0604109
-0.0566618
-0.052845
-0.0489638
-0.0450231
-0.0410289
-0.0369905
-0.0329247
-0.0288559
-0.0248078
-0.0207965
-0.0168438
-0.0129957
-0.0092499
-0.00564633
-0.00217537
0.00118563
0.00446324
0.00768134
0.0108586
0.0140083
0.0171399
0.0202594
0.0233705
0.0264755
0.0295756
0.0326713
0.0357628
0.03885
0.0419326
0.0450107
0.048084
0.0511526
0.0542163
0.0572754
0.0603299
0.0633801
0.066426
0.0694681
0.0725065
0.0755416
0.0785736
0.0816028
0.0846296
0.0876541
0.0906768
0.0936978
0.0967174
0.0997359
0.102754
0.105771
0.108787
-0.219349
-0.216858
-0.214351
-0.211819
-0.209254
-0.206652
-0.204011
-0.201342
-0.198652
-0.195955
-0.193266
-0.190611
-0.18802
-0.185525
-0.183163
-0.180957
-0.178926
-0.177076
-0.175404
-0.173901
-0.172547
-0.171323
-0.170206
-0.169178
-0.16822
-0.167317
-0.166453
-0.165613
-0.164778
-0.163938
-0.163065
-0.162152
-0.161181
-0.160144
-0.159025
-0.157828
-0.156539
-0.155141
-0.153638
-0.152007
-0.150241
-0.148335
-0.146297
-0.144146
-0.141895
-0.139545
-0.137086
-0.134485
-0.131712
-0.128757
-0.1256
-0.122282
-0.118843
-0.115314
-0.111738
-0.108151
-0.104566
-0.100994
-0.0974422
-0.0939106
-0.0903908
-0.0868761
-0.0833547
-0.079819
-0.0762568
-0.0726564
-0.0690068
-0.0652983
-0.0615173
-0.0576581
-0.0537228
-0.0497154
-0.0456432
-0.0415179
-0.0373514
-0.0331553
-0.0289474
-0.0247491
-0.020583
-0.0164844
-0.0125135
-0.00868404
-0.00506354
-0.00162838
0.00166899
0.0048745
0.00802297
0.0111379
0.014234
0.0173204
0.0204023
0.0234825
0.0265622
0.0296417
0.0327208
0.0357989
0.0388753
0.0419494
0.0450207
0.0480888
0.0511532
0.0542139
0.0572706
0.0603235
0.0633725
0.0664177
0.0694594
0.0724978
0.075533
0.0785654
0.0815951
0.0846224
0.0876476
0.090671
0.0936928
0.0967133
0.0997327
0.102751
0.105769
0.108787
-0.219372
-0.21693
-0.214472
-0.211989
-0.209475
-0.206921
-0.204332
-0.20172
-0.199089
-0.196454
-0.193831
-0.191249
-0.188739
-0.186336
-0.184071
-0.181968
-0.180043
-0.178301
-0.176739
-0.175344
-0.174095
-0.172967
-0.171938
-0.17099
-0.170109
-0.169277
-0.168481
-0.167707
-0.166936
-0.166153
-0.165333
-0.164465
-0.163537
-0.162535
-0.16145
-0.160283
-0.159016
-0.157642
-0.156158
-0.154541
-0.152791
-0.150894
-0.148862
-0.146708
-0.144442
-0.14207
-0.139582
-0.13694
-0.134113
-0.131077
-0.127825
-0.124409
-0.120881
-0.117278
-0.113642
-0.110006
-0.106379
-0.10277
-0.0991841
-0.0956171
-0.0920595
-0.0885035
-0.0849373
-0.08135
-0.0777263
-0.074055
-0.0703237
-0.0665172
-0.0626259
-0.0586479
-0.0545862
-0.050448
-0.0462405
-0.0419731
-0.0376572
-0.0333087
-0.0289498
-0.0245983
-0.0202664
-0.0159855
-0.0118387
-0.00789065
-0.00427992
-0.000932925
0.0022509
0.0053469
0.00840079
0.0114377
0.0144707
0.0175063
0.0205473
0.0235947
0.026648
0.0297063
0.0327684
0.035833
0.0388987
0.0419643
0.0450289
0.0480918
0.0511523
0.0542099
0.0572644
0.0603157
0.0633637
0.0664083
0.0694497
0.0724881
0.0755236
0.0785563
0.0815866
0.0846146
0.0876406
0.0906648
0.0936875
0.0967089
0.0997292
0.102749
0.105768
0.108786
-0.219401
-0.217016
-0.214616
-0.212191
-0.209733
-0.207237
-0.204711
-0.202163
-0.199603
-0.197042
-0.194498
-0.191998
-0.189576
-0.187268
-0.185105
-0.18311
-0.181297
-0.17967
-0.178218
-0.176927
-0.175777
-0.174743
-0.173806
-0.172945
-0.172146
-0.171389
-0.170665
-0.169959
-0.169255
-0.168534
-0.167772
-0.166954
-0.166071
-0.165108
-0.164063
-0.162928
-0.161686
-0.160336
-0.158868
-0.157267
-0.155528
-0.153643
-0.151618
-0.149459
-0.147176
-0.144775
-0.142246
-0.139541
-0.136632
-0.133496
-0.13014
-0.126621
-0.123004
-0.119328
-0.115635
-0.11195
-0.10828
-0.104632
-0.101005
-0.0973952
-0.0937917
-0.0901861
-0.0865676
-0.0829204
-0.0792266
-0.0754717
-0.0716422
-0.0677272
-0.0637211
-0.0596212
-0.0554289
-0.0511507
-0.0467957
-0.0423744
-0.0378996
-0.0333879
-0.0288568
-0.0243189
-0.0197805
-0.0152652
-0.0108659
-0.00673218
-0.00320929
-5.79482e-05
0.00293099
0.00586768
0.0087995
0.0117441
0.014707
0.0176886
0.0206875
0.0237018
0.0267289
0.0297664
0.032812
0.0358635
0.0389188
0.0419764
0.0450347
0.0480926
0.0511494
0.0542042
0.0572567
0.0603065
0.0633536
0.0663977
0.069439
0.0724775
0.0755132
0.0785465
0.0815774
0.0846062
0.087633
0.0906581
0.0936817
0.0967041
0.0997255
0.102746
0.105766
0.108786
-0.219432
-0.21711
-0.214773
-0.212411
-0.210017
-0.207589
-0.205135
-0.202662
-0.200178
-0.197698
-0.195239
-0.19283
-0.190507
-0.188303
-0.186249
-0.184366
-0.182667
-0.181154
-0.179816
-0.178636
-0.177593
-0.176659
-0.175816
-0.175044
-0.174332
-0.173657
-0.173009
-0.172375
-0.171742
-0.171089
-0.170392
-0.169632
-0.168801
-0.167885
-0.166883
-0.165781
-0.16457
-0.163246
-0.161796
-0.160209
-0.158479
-0.156604
-0.154577
-0.152406
-0.150103
-0.14767
-0.145085
-0.142299
-0.139284
-0.136028
-0.132544
-0.12891
-0.125205
-0.121459
-0.117708
-0.113974
-0.110259
-0.106566
-0.102893
-0.0992345
-0.09558
-0.0919188
-0.0882395
-0.0845204
-0.0807434
-0.0768945
-0.072961
-0.0689335
-0.0648072
-0.0605801
-0.0562537
-0.0518323
-0.0473231
-0.0427379
-0.0380926
-0.0334041
-0.0286838
-0.0239302
-0.0191242
-0.0142614
-0.00943518
-0.00492131
-0.00173199
0.00100435
0.00367908
0.00640258
0.00919079
0.012036
0.0149275
0.0178562
0.0208149
0.023798
0.0268006
0.0298189
0.0328493
0.0358888
0.0389346
0.0419848
0.0450373
0.0480908
0.0511442
0.0541965
0.0572472
0.0602959
0.0633422
0.066386
0.0694272
0.0724659
0.0755021
0.0785359
0.0815676
0.0845972
0.0876249
0.090651
0.0936756
0.0966991
0.0997215
0.102743
0.105764
0.108785
-0.219461
-0.217197
-0.214921
-0.212625
-0.210303
-0.207951
-0.205577
-0.203188
-0.200792
-0.198403
-0.196039
-0.19373
-0.191514
-0.189426
-0.18749
-0.185724
-0.184144
-0.182749
-0.181526
-0.180459
-0.179525
-0.178697
-0.177956
-0.177281
-0.176662
-0.176076
-0.175511
-0.174956
-0.174401
-0.173824
-0.173202
-0.17251
-0.17174
-0.170882
-0.16993
-0.16887
-0.167697
-0.166399
-0.164966
-0.16339
-0.161665
-0.159792
-0.157758
-0.155575
-0.153251
-0.150777
-0.148122
-0.145244
-0.142109
-0.138719
-0.135096
-0.131339
-0.127527
-0.123697
-0.119887
-0.116096
-0.112327
-0.108581
-0.104856
-0.101145
-0.0974344
-0.0937113
-0.0899627
-0.0861628
-0.082295
-0.0783451
-0.0743017
-0.070157
-0.065906
-0.0615459
-0.0570783
-0.0525083
-0.0478417
-0.0430881
-0.0382674
-0.0334006
-0.0284882
-0.0234995
-0.0183749
-0.0130237
-0.00739053
-0.00172858
0.000248071
0.00216412
0.00440099
0.00688578
0.00953234
0.0122859
0.0151141
0.0179967
0.0209209
0.0238772
0.026859
0.0298608
0.0328781
0.0359072
0.0389449
0.0419886
0.0450362
0.0480859
0.0511364
0.0541867
0.0572359
0.0602836
0.0633294
0.066373
0.0694144
0.0724534
0.0754901
0.0785247
0.0815571
0.0845876
0.0876163
0.0906435
0.0936692
0.0966938
0.0997174
0.10274
0.105763
0.108785
-0.219482
-0.217264
-0.215038
-0.212802
-0.210548
-0.208276
-0.205991
-0.203698
-0.201402
-0.199118
-0.196867
-0.194675
-0.192578
-0.19061
-0.188796
-0.187153
-0.185696
-0.184424
-0.183323
-0.182375
-0.181554
-0.180836
-0.180202
-0.179631
-0.179113
-0.178627
-0.178158
-0.177694
-0.177227
-0.176736
-0.176199
-0.175589
-0.174897
-0.17411
-0.173218
-0.172211
-0.171079
-0.169813
-0.168402
-0.166841
-0.165125
-0.16325
-0.161204
-0.159005
-0.156655
-0.154139
-0.151414
-0.148437
-0.145176
-0.141645
-0.137882
-0.133989
-0.130056
-0.126129
-0.122237
-0.118372
-0.114534
-0.110725
-0.106939
-0.103166
-0.0993916
-0.0955988
-0.0917712
-0.0878817
-0.083915
-0.0798598
-0.0757048
-0.0714407
-0.0670607
-0.062562
-0.0579468
-0.0532214
-0.0483948
-0.0434818
-0.0385026
-0.0334716
-0.0283822
-0.0231959
-0.0178114
-0.0119839
-0.0050389
0.00444988
0.00234721
0.00304883
0.00490433
0.00722405
0.00977601
0.0124665
0.0152496
0.0180989
0.0209976
0.0239342
0.0269003
0.0298894
0.0328965
0.0359175
0.0389487
0.0419874
0.045031
0.0480777
0.0511259
0.0541746
0.0572227
0.0602698
0.0633153
0.0663589
0.0694006
0.0724401
0.0754774
0.0785128
0.0815461
0.0845776
0.0876073
0.0906356
0.0936625
0.0966882
0.0997131
0.102737
0.105761
0.108784
-0.219492
-0.217294
-0.215096
-0.212901
-0.210707
-0.208512
-0.206321
-0.204132
-0.201952
-0.199791
-0.197665
-0.195601
-0.193635
-0.191799
-0.190115
-0.1886
-0.187271
-0.186125
-0.185148
-0.184323
-0.183623
-0.183025
-0.182508
-0.182053
-0.181647
-0.181271
-0.180912
-0.180555
-0.18019
-0.1798
-0.179362
-0.178853
-0.178256
-0.177555
-0.176739
-0.175797
-0.174718
-0.173493
-0.172116
-0.170579
-0.168875
-0.166996
-0.164944
-0.162735
-0.160371
-0.157824
-0.15504
-0.151965
-0.148578
-0.144905
-0.141004
-0.136977
-0.132916
-0.128868
-0.12486
-0.120894
-0.116967
-0.113075
-0.109212
-0.105366
-0.101519
-0.0976477
-0.0937324
-0.0897464
-0.0856768
-0.0815148
-0.0772469
-0.0728592
-0.0683424
-0.0636958
-0.0589252
-0.0540397
-0.0490527
-0.0439872
-0.0388682
-0.0337092
-0.0285031
-0.0232303
-0.0178545
-0.0123048
-0.00653311
-0.00108765
0.000934668
0.00282876
0.00497719
0.0073502
0.00989218
0.0125601
0.0153221
0.0181543
0.0210393
0.0239647
0.0269214
0.0299027
0.0329032
0.0359187
0.0389455
0.0419805
0.0450213
0.0480659
0.0511126
0.0541602
0.0572077
0.0602544
0.0632999
0.0663438
0.0693858
0.0724259
0.0754641
0.0785002
0.0815345
0.0845671
0.087598
0.0906274
0.0936555
0.0966825
0.0997085
0.102734
0.105759
0.108783
-0.219479
-0.217261
-0.215061
-0.212883
-0.210729
-0.2086
-0.206496
-0.204415
-0.202357
-0.200329
-0.198344
-0.196426
-0.194606
-0.192914
-0.19137
-0.189992
-0.188796
-0.187781
-0.186932
-0.186232
-0.185657
-0.185183
-0.184792
-0.184464
-0.184181
-0.18393
-0.183697
-0.183463
-0.183218
-0.182946
-0.182626
-0.182237
-0.181754
-0.181159
-0.180438
-0.179579
-0.178572
-0.177409
-0.176082
-0.174584
-0.172904
-0.171042
-0.169005
-0.166806
-0.164449
-0.161893
-0.159069
-0.155914
-0.152418
-0.148613
-0.144589
-0.140436
-0.136245
-0.132059
-0.127912
-0.123819
-0.119773
-0.115772
-0.111814
-0.10788
-0.103946
-0.0999861
-0.0959732
-0.0918842
-0.0877081
-0.0834363
-0.0790479
-0.0745237
-0.0698544
-0.065044
-0.0601042
-0.0550501
-0.0499017
-0.0446919
-0.0394531
-0.034203
-0.0289525
-0.0237085
-0.0184826
-0.0133017
-0.00827274
-0.00372573
-0.000288457
0.00240575
0.00486213
0.0073308
0.00989579
0.0125667
0.0153276
0.0181586
0.0210423
0.023966
0.0269206
0.0298994
0.0328973
0.0359103
0.0389348
0.0419679
0.0450072
0.0480506
0.0510965
0.0541435
0.0571908
0.0602376
0.0632833
0.0663276
0.0693702
0.0724111
0.0754501
0.0784872
0.0815225
0.0845562
0.0875882
0.0906188
0.0936482
0.0966765
0.0997039
0.102731
0.105757
0.108783
-0.219442
-0.217156
-0.214905
-0.212704
-0.21056
-0.208473
-0.20644
-0.204459
-0.202525
-0.200639
-0.198807
-0.197049
-0.195389
-0.193852
-0.192457
-0.191224
-0.190163
-0.189277
-0.188554
-0.187977
-0.187527
-0.187183
-0.186924
-0.186728
-0.18658
-0.186467
-0.186373
-0.18628
-0.186172
-0.186038
-0.185856
-0.185606
-0.185258
-0.184792
-0.184191
-0.183441
-0.182533
-0.181459
-0.180208
-0.178774
-0.177153
-0.175347
-0.173364
-0.171213
-0.168899
-0.166374
-0.163547
-0.160351
-0.15678
-0.152877
-0.148767
-0.144533
-0.140247
-0.135937
-0.131643
-0.127391
-0.12319
-0.119051
-0.114976
-0.110937
-0.106903
-0.102839
-0.0987142
-0.0945119
-0.0902206
-0.0858228
-0.0812875
-0.0765946
-0.0717407
-0.0667368
-0.0616004
-0.0563532
-0.0510239
-0.0456544
-0.0402863
-0.0349577
-0.0297012
-0.0245356
-0.0194705
-0.0145117
-0.00968538
-0.00500214
-0.000707556
0.00227198
0.00477641
0.00724473
0.00981171
0.0124923
0.0152667
0.0181109
0.0210057
0.0239375
0.0268974
0.0298793
0.0328788
0.0358923
0.0389168
0.0419497
0.0449888
0.0480319
0.0510777
0.0541248
0.0571723
0.0602194
0.0632656
0.0663105
0.0693539
0.0723956
0.0754356
0.0784737
0.0815102
0.0845449
0.0875782
0.0906101
0.0936407
0.0966703
0.099699
0.102727
0.105755
0.108782
-0.219374
-0.21696
-0.214604
-0.212328
-0.21015
-0.208073
-0.20609
-0.204194
-0.202372
-0.20062
-0.198945
-0.197354
-0.19586
-0.194481
-0.193238
-0.192146
-0.191216
-0.190451
-0.189845
-0.189384
-0.189053
-0.188833
-0.188702
-0.18864
-0.188631
-0.188662
-0.188717
-0.188775
-0.188822
-0.188841
-0.188815
-0.188721
-0.188529
-0.188216
-0.187763
-0.187154
-0.186377
-0.185425
-0.184291
-0.18297
-0.181461
-0.179769
-0.177899
-0.175864
-0.173657
-0.171222
-0.168458
-0.165287
-0.161706
-0.157776
-0.153672
-0.149481
-0.145205
-0.140839
-0.136397
-0.131949
-0.127555
-0.123252
-0.119042
-0.114884
-0.110735
-0.10655
-0.102295
-0.0979613
-0.0935278
-0.0889616
-0.0842248
-0.0793022
-0.0742021
-0.068948
-0.0635677
-0.0580872
-0.0525412
-0.0469776
-0.0414503
-0.0360192
-0.0307253
-0.0255845
-0.020591
-0.0157023
-0.01081
-0.00560456
0.00022363
0.00265486
0.00477728
0.0071023
0.009642
0.0123387
0.0151412
0.0180131
0.0209309
0.0238802
0.0268527
0.0298431
0.0328482
0.0358653
0.038892
0.0419263
0.0449663
0.0480102
0.0510566
0.0541043
0.0571523
0.0602001
0.063247
0.0662928
0.069337
0.0723797
0.0754206
0.0784599
0.0814974
0.0845334
0.0875679
0.0906011
0.093633
0.096664
0.0996941
0.102724
0.105752
0.108781
-0.219275
-0.216672
-0.214147
-0.211742
-0.209478
-0.207364
-0.205394
-0.203559
-0.201834
-0.200209
-0.198673
-0.197227
-0.195881
-0.194652
-0.19355
-0.192585
-0.191769
-0.191106
-0.190595
-0.190226
-0.189988
-0.189869
-0.189847
-0.189905
-0.190025
-0.190193
-0.190391
-0.190602
-0.190806
-0.190988
-0.191127
-0.191201
-0.191181
-0.191041
-0.19076
-0.190319
-0.189707
-0.188921
-0.187958
-0.186814
-0.185491
-0.183995
-0.182328
-0.180499
-0.178489
-0.176243
-0.173664
-0.170644
-0.167191
-0.163386
-0.159461
-0.155509
-0.151433
-0.147143
-0.142555
-0.137891
-0.133294
-0.128828
-0.124485
-0.120209
-0.11594
-0.111618
-0.107213
-0.10271
-0.0980725
-0.0932534
-0.0882163
-0.0829575
-0.0775072
-0.0719089
-0.0662055
-0.0604259
-0.0546107
-0.0488118
-0.0430944
-0.0375174
-0.0321066
-0.026866
-0.0217755
-0.016785
-0.0117493
-0.0059623
0.00221349
0.00330212
0.00462991
0.00680856
0.009361
0.0121051
0.0149567
0.0178708
0.0208224
0.0237974
0.0267887
0.0297925
0.0328068
0.0358302
0.0388612
0.0418984
0.0449404
0.0479858
0.0510334
0.0540822
0.0571312
0.0601799
0.0632277
0.0662744
0.0693197
0.0723633
0.0754054
0.0784457
0.0814845
0.0845216
0.0875574
0.0905918
0.0936251
0.0966574
0.0996889
0.10272
0.10575
0.10878
-0.219144
-0.216288
-0.213538
-0.21095
-0.208554
-0.206358
-0.20436
-0.202546
-0.200885
-0.199354
-0.197934
-0.196614
-0.195391
-0.194268
-0.193259
-0.192374
-0.191621
-0.191009
-0.190539
-0.19021
-0.190015
-0.189945
-0.189986
-0.190122
-0.190334
-0.190606
-0.19092
-0.191259
-0.191607
-0.191941
-0.192242
-0.192482
-0.192635
-0.192674
-0.192575
-0.192322
-0.191905
-0.191328
-0.190596
-0.189712
-0.188674
-0.187488
-0.186146
-0.18465
-0.182978
-0.181092
-0.178886
-0.17622
-0.173103
-0.169643
-0.166147
-0.162747
-0.159211
-0.15519
-0.150454
-0.145598
-0.140851
-0.136285
-0.131873
-0.127526
-0.12317
-0.118712
-0.114123
-0.109372
-0.104417
-0.0992046
-0.0937152
-0.0879654
-0.0820146
-0.0759335
-0.0697892
-0.0636148
-0.0574581
-0.0513729
-0.0454162
-0.0396108
-0.0339633
-0.0284824
-0.0231463
-0.0179121
-0.0126806
-0.00722535
-0.00135466
0.00130791
0.00368755
0.0062383
0.00896312
0.0118088
0.0147306
0.0176972
0.0206891
0.023695
0.0267094
0.0297302
0.0327566
0.0357885
0.0388254
0.0418668
0.0449118
0.0479594
0.0510088
0.0540589
0.0571092
0.0601591
0.063208
0.0662557
0.069302
0.0723467
0.0753899
0.0784314
0.0814713
0.0845097
0.0875467
0.0905824
0.093617
0.0966507
0.0996837
0.102716
0.105748
0.10878
-0.218984
-0.215822
-0.212803
-0.209994
-0.207429
-0.20512
-0.203061
-0.201233
-0.199597
-0.198117
-0.196762
-0.19551
-0.194348
-0.193275
-0.192298
-0.191425
-0.19066
-0.190012
-0.189487
-0.189091
-0.188825
-0.188692
-0.188692
-0.188809
-0.189024
-0.189317
-0.189675
-0.190084
-0.190526
-0.190978
-0.191413
-0.191804
-0.19212
-0.19233
-0.192411
-0.192346
-0.192131
-0.19179
-0.191352
-0.190825
-0.190194
-0.189447
-0.188581
-0.187591
-0.186462
-0.18517
-0.183579
-0.181551
-0.179075
-0.176298
-0.173599
-0.17118
-0.168575
-0.165026
-0.160209
-0.155287
-0.150561
-0.146071
-0.141761
-0.13747
-0.133114
-0.128538
-0.123717
-0.118601
-0.113167
-0.107374
-0.101244
-0.0948058
-0.0881615
-0.0814281
-0.0747047
-0.0680344
-0.061476
-0.0550567
-0.0487707
-0.0426021
-0.0365619
-0.030673
-0.0249242
-0.0193291
-0.0139187
-0.00874172
-0.00395093
-0.000323207
0.00274103
0.0056517
0.00856117
0.0115101
0.0144983
0.0175139
0.0205444
0.0235814
0.0266203
0.0296598
0.0327001
0.035742
0.0387861
0.0418326
0.0448813
0.0479317
0.0509832
0.054035
0.0570868
0.0601379
0.063188
0.0662368
0.0692842
0.0723301
0.0753743
0.0784169
0.081458
0.0844976
0.0875358
0.0905728
0.0936088
0.0966439
0.0996782
0.102712
0.105746
0.108779
-0.2188
-0.215285
-0.21196
-0.208911
-0.206178
-0.203762
-0.201649
-0.199803
-0.198175
-0.196712
-0.195369