/*--------------------------------*- C++ -*----------------------------------*\
  =========                 |
  \\      /  F ield         | OpenFOAM: The Open Source CFD Toolbox
   \\    /   O peration     | Website:  https://openfoam.org
    \\  /    A nd           | Version:  6
     \\/     M anipulation  |
\*---------------------------------------------------------------------------*/
FoamFile
{
    version     2.0;
    format      ascii;
    class       surfaceScalarField;
    location    "1800";
    object      phi;
}
// * * * * * * * * * * * * * * * * * * * * * * * * * * * * * * * * * * * * * //

dimensions      [0 3 -1 0 0 0 0];

internalField   nonuniform List<scalar> 
9440
(
1.17532e-10
-1.17532e-10
3.52603e-10
-2.35069e-10
4.84161e-10
-1.31557e-10
5.86919e-10
-1.02757e-10
6.60025e-10
-7.31048e-11
6.61998e-10
-1.97159e-12
6.23561e-10
3.84385e-11
5.42025e-10
8.15379e-11
4.01102e-10
1.40925e-10
2.66829e-10
1.34276e-10
1.80216e-10
8.66154e-11
8.20087e-11
9.82103e-11
-8.87408e-11
1.70752e-10
-2.12733e-10
1.23995e-10
-3.25381e-10
1.12649e-10
-4.03974e-10
7.85946e-11
-4.81507e-10
7.75338e-11
-7.12788e-10
2.31281e-10
-1.10817e-09
3.95385e-10
-1.47548e-09
3.67307e-10
-1.761e-09
2.85516e-10
-2.07629e-09
3.15295e-10
-2.28588e-09
2.09587e-10
-2.45372e-09
1.67834e-10
-2.55356e-09
9.98487e-11
-2.62096e-09
6.73962e-11
-2.66816e-09
4.7201e-11
-2.69708e-09
2.8923e-11
-2.72085e-09
2.37694e-11
-2.72411e-09
3.255e-12
-2.61765e-09
-1.06462e-10
-2.36162e-09
-2.56023e-10
-2.18268e-09
-1.78944e-10
-1.90616e-09
-2.76523e-10
-1.53073e-09
-3.75423e-10
-1.1581e-09
-3.72628e-10
-1.03707e-09
-1.21035e-10
-7.00998e-10
-3.36069e-10
-3.16162e-10
-3.84835e-10
-6.62489e-11
-2.49912e-10
1.31122e-10
-1.9737e-10
7.65577e-11
5.45651e-11
-6.43698e-11
1.40928e-10
-2.27121e-10
1.62751e-10
-3.71852e-10
1.44733e-10
-4.75581e-10
1.0373e-10
-5.61343e-10
8.57631e-11
-5.82169e-10
2.08272e-11
-6.0382e-10
2.1652e-11
-6.09927e-10
6.10863e-12
-5.96283e-10
-1.36434e-11
-5.89833e-10
-6.45024e-12
-6.02425e-10
1.25907e-11
-6.06875e-10
4.44905e-12
-6.12968e-10
6.09113e-12
-6.30628e-10
1.76573e-11
-7.16161e-10
8.55313e-11
-7.96656e-10
8.04937e-11
-8.82254e-10
8.55972e-11
-9.42511e-10
6.02564e-11
-1.01999e-09
7.74756e-11
-1.10253e-09
8.25468e-11
-1.18691e-09
8.43697e-11
-1.244e-09
5.70899e-11
-1.25206e-09
8.0573e-12
-1.24783e-09
-4.22843e-12
-1.21096e-09
-3.68748e-11
-1.02128e-09
-1.89683e-10
-8.77633e-10
-1.43645e-10
-7.90729e-10
-8.69021e-11
-6.32904e-10
-1.57822e-10
-4.64006e-10
-1.68894e-10
-1.58678e-10
-3.05324e-10
2.74085e-10
-4.3276e-10
5.48754e-10
-2.74666e-10
6.99908e-10
-1.51152e-10
7.88985e-10
-8.90745e-11
7.6542e-10
2.35667e-11
6.13975e-10
1.51447e-10
4.18761e-10
1.95219e-10
-5.09728e-15
4.18773e-10
6.53354e-19
1.04646e-18
1.24515e-19
5.28839e-19
-1.68007e-19
2.9784e-19
-3.27066e-19
1.64921e-19
-4.06033e-19
8.4587e-20
-4.3385e-19
3.29882e-20
-4.2729e-19
-1.89044e-21
-3.96659e-19
-2.62745e-20
-3.48771e-19
-4.37288e-20
-2.8897e-19
-5.61739e-20
-2.21339e-19
-6.44215e-20
-1.4818e-19
-6.9305e-20
-7.22037e-20
-7.17297e-20
3.27441e-21
-7.20593e-20
7.62855e-20
-7.02607e-20
1.45678e-19
-6.66429e-20
2.0992e-19
-6.18639e-20
2.67221e-19
-5.62925e-20
3.16583e-19
-4.98539e-20
3.58144e-19
-4.25081e-20
3.92173e-19
-3.44472e-20
4.18545e-19
-2.58797e-20
4.37223e-19
-1.70778e-20
4.48335e-19
-8.58423e-21
4.51853e-19
-9.8388e-22
4.478e-19
5.55995e-21
4.36731e-19
1.13622e-20
4.19609e-19
1.68133e-20
3.97195e-19
2.20263e-20
3.69729e-19
2.68201e-20
3.37227e-19
3.09262e-20
3.00043e-19
3.4205e-20
2.59226e-19
3.67627e-20
2.16363e-19
3.89166e-20
1.72994e-19
4.09975e-20
1.29961e-19
4.30875e-20
8.72005e-20
4.49421e-20
4.41412e-20
4.63226e-20
4.77636e-20
2.01834e-10
-3.19364e-10
2.97814e-10
-3.31047e-10
4.74869e-10
-3.08609e-10
5.8235e-10
-2.10236e-10
6.28589e-10
-1.19342e-10
6.09251e-10
1.73693e-11
5.27637e-10
1.20056e-10
4.58581e-10
1.50598e-10
3.59595e-10
2.39916e-10
2.44517e-10
2.49359e-10
9.36553e-11
2.37482e-10
-5.82941e-11
2.50164e-10
-1.66881e-10
2.79343e-10
-2.72979e-10
2.30096e-10
-3.84027e-10
2.23699e-10
-7.21543e-10
4.16112e-10
-1.15175e-09
5.07745e-10
-1.41724e-09
4.96771e-10
-1.73178e-09
7.09925e-10
-2.07065e-09
7.06168e-10
-2.30631e-09
5.21183e-10
-2.55054e-09
5.5952e-10
-2.72611e-09
3.85156e-10
-2.75812e-09
1.99845e-10
-2.82284e-09
1.64568e-10
-2.87157e-09
1.16131e-10
-2.90496e-09
8.05859e-11
-2.91863e-09
4.25949e-11
-2.85371e-09
-4.11534e-11
-2.76232e-09
-8.81354e-11
-2.65004e-09
-2.18745e-10
-2.5081e-09
-3.97955e-10
-2.41171e-09
-2.75339e-10
-2.21692e-09
-4.71309e-10
-2.02087e-09
-5.71472e-10
-1.70151e-09
-6.91983e-10
-1.41363e-09
-4.08918e-10
-1.04289e-09
-7.06806e-10
-7.80161e-10
-6.47561e-10
-5.00078e-10
-5.29993e-10
-3.12786e-10
-3.84661e-10
-3.36563e-10
7.83435e-11
-3.18912e-10
1.23279e-10
-4.29952e-10
2.73792e-10
-5.66252e-10
2.81034e-10
-6.09253e-10
1.46733e-10
-6.55217e-10
1.31729e-10
-6.80617e-10
4.62301e-11
-6.9681e-10
3.78465e-11
-6.85453e-10
-5.24804e-12
-6.72651e-10
-2.64455e-11
-6.68062e-10
-1.10409e-11
-6.72193e-10
1.67199e-11
-6.8746e-10
1.97129e-11
-7.26648e-10
4.52752e-11
-7.87666e-10
7.86732e-11
-8.45371e-10
1.43234e-10
-8.72546e-10
1.07667e-10
-9.22277e-10
1.35327e-10
-9.75595e-10
1.13573e-10
-1.06203e-09
1.63906e-10
-1.13115e-09
1.51663e-10
-1.18588e-09
1.39095e-10
-1.20735e-09
7.85609e-11
-1.17244e-09
-2.68542e-11
-1.15162e-09
-2.50594e-11
-1.09928e-09
-8.92091e-11
-9.97436e-10
-2.91528e-10
-8.91657e-10
-2.4942e-10
-7.65221e-10
-2.13332e-10
-6.36208e-10
-2.8683e-10
-4.78037e-10
-3.27058e-10
-2.1616e-10
-5.67196e-10
-1.19404e-11
-6.36975e-10
3.14041e-10
-6.00644e-10
7.2282e-10
-5.59928e-10
8.56648e-10
-2.22899e-10
7.5301e-10
1.27211e-10
6.41523e-10
2.62943e-10
3.59219e-10
4.77532e-10
-1.02909e-15
7.78001e-10
2.35847e-19
1.78228e-18
-1.07629e-19
8.78586e-19
-3.00906e-19
4.99641e-19
-4.07367e-19
2.79635e-19
-4.57632e-19
1.4234e-19
-4.68729e-19
5.08836e-20
-4.51674e-19
-1.29809e-20
-4.14114e-19
-5.87276e-20
-3.61216e-19
-9.16539e-20
-2.97218e-19
-1.14951e-19
-2.26222e-19
-1.3071e-19
-1.50604e-19
-1.40461e-19
-7.25334e-20
-1.44988e-19
5.07302e-21
-1.45065e-19
7.99033e-20
-1.41541e-19
1.50457e-19
-1.35035e-19
2.15492e-19
-1.25795e-19
2.73659e-19
-1.13822e-19
3.23929e-19
-9.929e-20
3.66205e-19
-8.28377e-20
4.0074e-19
-6.54539e-20
4.27347e-19
-4.81353e-20
4.45716e-19
-3.16247e-20
4.55935e-19
-1.63197e-20
4.58397e-19
-2.31476e-21
4.53603e-19
1.04809e-20
4.42182e-19
2.22032e-20
4.24822e-19
3.2932e-20
4.01988e-19
4.26682e-20
3.73835e-19
5.14048e-20
3.40505e-19
5.92339e-20
3.02601e-19
6.63748e-20
2.6138e-19
7.30671e-20
2.18444e-19
7.93837e-20
1.75084e-19
8.51086e-20
1.31816e-19
8.98023e-20
8.8581e-20
9.3088e-20
4.55821e-20
9.50034e-20
9.59346e-20
1.86616e-10
-5.05978e-10
3.80702e-10
-5.25132e-10
4.85269e-10
-4.13175e-10
5.30686e-10
-2.55652e-10
5.25609e-10
-1.14262e-10
5.03577e-10
3.9403e-11
4.34569e-10
1.89067e-10
3.1152e-10
2.7365e-10
1.93108e-10
3.58331e-10
9.46571e-11
3.47814e-10
-5.78434e-11
3.89986e-10
-2.05233e-10
3.97557e-10
-3.09613e-10
3.83726e-10
-3.92618e-10
3.13104e-10
-6.46953e-10
4.78036e-10
-9.87527e-10
7.56686e-10
-1.46431e-09
9.84525e-10
-1.81248e-09
8.44946e-10
-2.1901e-09
1.08755e-09
-2.3613e-09
8.77362e-10
-2.61933e-09
7.79214e-10
-2.71967e-09
6.59866e-10
-2.76268e-09
4.28165e-10
-2.82751e-09
2.64674e-10
-2.87971e-09
2.16769e-10
-2.96295e-09
1.99364e-10
-2.98197e-09
9.96132e-11
-2.99569e-09
5.63152e-11
-2.98013e-09
-5.67173e-11
-2.94023e-09
-1.2803e-10
-2.92133e-09
-2.3765e-10
-2.8765e-09
-4.42784e-10
-2.72854e-09
-4.233e-10
-2.6416e-09
-5.58241e-10
-2.36318e-09
-8.49897e-10
-2.24395e-09
-8.11209e-10
-1.96248e-09
-6.9039e-10
-1.81172e-09
-8.57557e-10
-1.5469e-09
-9.12382e-10
-1.29735e-09
-7.79539e-10
-1.21741e-09
-4.64601e-10
-9.30149e-10
-2.08918e-10
-7.44631e-10
-6.22386e-11
-6.74743e-10
2.03905e-10
-6.98735e-10
3.05027e-10
-7.25893e-10
1.73893e-10
-7.11466e-10
1.17304e-10
-7.62839e-10
9.76048e-11
-7.56055e-10
3.10633e-11
-7.50011e-10
-1.12912e-11
-7.4697e-10
-2.94863e-11
-7.42454e-10
-1.5557e-11
-7.47529e-10
2.17928e-11
-7.82973e-10
5.51553e-11
-8.17677e-10
7.99772e-11
-8.61082e-10
1.22077e-10
-8.6788e-10
1.50031e-10
-9.17957e-10
1.57744e-10
-1.00372e-09
2.21089e-10
-1.09875e-09
2.08597e-10
-1.16526e-09
2.30423e-10
-1.21388e-09
2.00274e-10
-1.24177e-09
1.66989e-10
-1.23043e-09
6.72164e-11
-1.15752e-09
-9.97624e-11
-1.08947e-09
-9.31123e-11
-1.02094e-09
-1.57738e-10
-1.01821e-09
-2.9426e-10
-9.09467e-10
-3.58157e-10
-8.05696e-10
-3.171e-10
-7.22179e-10
-3.70343e-10
-6.2287e-10
-4.26364e-10
-5.05519e-10
-6.84545e-10
-3.8607e-10
-7.56423e-10
-1.12428e-10
-8.74285e-10
1.82255e-10
-8.5461e-10
5.30572e-10
-5.71214e-10
5.43383e-10
1.14403e-10
4.52699e-10
3.53632e-10
2.38938e-10
6.913e-10
1.37131e-15
1.01694e-09
-4.71043e-19
1.85012e-18
-4.8571e-19
8.97517e-19
-5.20091e-19
5.36251e-19
-5.44537e-19
3.05387e-19
-5.49089e-19
1.47603e-19
-5.32593e-19
3.48499e-20
-4.97421e-19
-4.79512e-20
-4.4704e-19
-1.09407e-19
-3.84514e-19
-1.54789e-19
-3.12977e-19
-1.87184e-19
-2.35973e-19
-2.08595e-19
-1.55131e-19
-2.21193e-19
-7.26112e-20
-2.26378e-19
8.59748e-21
-2.24971e-19
8.64093e-20
-2.17609e-19
1.59697e-19
-2.05106e-19
2.27464e-19
-1.88442e-19
2.88191e-19
-1.68369e-19
3.40381e-19
-1.45558e-19
3.83589e-19
-1.21022e-19
4.18059e-19
-9.59696e-20
4.43857e-19
-7.1332e-20
4.61021e-19
-4.76391e-20
4.6994e-19
-2.52083e-20
4.71193e-19
-4.24431e-21
4.65325e-19
1.51827e-20
4.52911e-19
3.3109e-20
4.34558e-19
4.95865e-20
4.10725e-19
6.46435e-20
3.81664e-19
7.83271e-20
3.47646e-19
9.0745e-20
3.09293e-19
1.02041e-19
2.67697e-19
1.12309e-19
2.24169e-19
1.21507e-19
1.79778e-19
1.29415e-19
1.35102e-19
1.35735e-19
9.04964e-20
1.40311e-19
4.65133e-20
1.43324e-19
1.44801e-19
2.07195e-10
-7.13172e-10
2.72606e-10
-5.90542e-10
3.53071e-10
-4.93639e-10
4.45656e-10
-3.48236e-10
4.3067e-10
-9.92748e-11
3.59972e-10
1.10103e-10
2.86983e-10
2.62058e-10
1.79763e-10
3.80873e-10
9.59319e-11
4.42165e-10
-2.62121e-11
4.69961e-10
-2.10901e-10
5.74678e-10
-4.85615e-10
6.72273e-10
-9.19845e-10
8.17959e-10
-1.34394e-09
7.37196e-10
-1.46878e-09
6.02883e-10
-1.45745e-09
7.4536e-10
-1.66771e-09
1.19479e-09
-2.13093e-09
1.30817e-09
-2.24732e-09
1.20393e-09
-2.40913e-09
1.03918e-09
-2.57051e-09
9.40593e-10
-2.67574e-09
7.65091e-10
-2.76059e-09
5.13022e-10
-2.84181e-09
3.45891e-10
-2.93715e-09
3.12107e-10
-2.97687e-09
2.39087e-10
-3.00517e-09
1.27911e-10
-3.04327e-09
9.44207e-11
-3.06595e-09
-3.40426e-11
-3.03945e-09
-1.54528e-10
-3.00848e-09
-2.68617e-10
-3.009e-09
-4.42265e-10
-2.8716e-09
-5.60703e-10
-2.7657e-09
-6.64139e-10
-2.72244e-09
-8.9315e-10
-2.61556e-09
-9.18095e-10
-2.3742e-09
-9.31744e-10
-2.18602e-09
-1.04573e-09
-1.96675e-09
-1.13166e-09
-1.83751e-09
-9.08775e-10
-1.67743e-09
-6.2468e-10
-1.41342e-09
-4.72932e-10
-1.25715e-09
-2.18513e-10
-1.02966e-09
-2.35814e-11
-8.78641e-10
1.54011e-10
-8.52878e-10
1.48132e-10
-8.38668e-10
1.03095e-10
-8.74335e-10
1.33274e-10
-7.95255e-10
-4.80161e-11
-7.89908e-10
-1.6637e-11
-7.81189e-10
-3.82047e-11
-7.70945e-10
-2.58015e-11
-7.79421e-10
3.02678e-11
-7.96311e-10
7.20444e-11
-8.34211e-10
1.17877e-10
-8.8086e-10
1.68724e-10
-9.34489e-10
2.0366e-10
-1.01669e-09
2.39947e-10
-1.1016e-09
3.05997e-10
-1.18459e-09
2.91588e-10
-1.22589e-09
2.71726e-10
-1.23192e-09
2.06295e-10
-1.21783e-09
1.52901e-10
-1.17208e-09
2.1467e-11
-1.19824e-09
-7.36049e-11
-1.08299e-09
-2.08361e-10
-1.03873e-09
-2.0199e-10
-1.03468e-09
-2.98315e-10
-9.69135e-10
-4.23697e-10
-8.57803e-10
-4.2843e-10
-7.54239e-10
-4.73906e-10
-6.83772e-10
-4.9683e-10
-6.66432e-10
-7.01885e-10
-5.90715e-10
-8.32141e-10
-4.05836e-10
-1.05916e-09
-1.1759e-10
-1.14286e-09
1.48316e-10
-8.37119e-10
2.94353e-10
-3.16328e-11
4.42639e-10
2.05347e-10
2.48693e-10
8.85245e-10
2.63827e-15
1.26563e-09
-1.1328e-18
8.75114e-19
-8.46108e-19
6.11502e-19
-7.5013e-19
4.36965e-19
-7.0221e-19
2.53574e-19
-6.61842e-19
1.03476e-19
-6.15395e-19
-1.50799e-20
-5.58876e-19
-1.08154e-19
-4.92422e-19
-1.80281e-19
-4.1691e-19
-2.34872e-19
-3.34387e-19
-2.74165e-19
-2.48571e-19
-2.99591e-19
-1.60316e-19
-3.13071e-19
-7.12043e-20
-3.1624e-19
1.59598e-20
-3.10464e-19
9.89116e-20
-2.9698e-19
1.76361e-19
-2.77134e-19
2.47537e-19
-2.5248e-19
3.11002e-19
-2.24241e-19
3.64917e-19
-1.93227e-19
4.08642e-19
-1.6047e-19
4.42696e-19
-1.27354e-19
4.6755e-19
-9.50026e-20
4.83452e-19
-6.38798e-20
4.90904e-19
-3.40547e-20
4.9062e-19
-5.62053e-21
4.83251e-19
2.11973e-20
4.69388e-19
4.616e-20
4.49615e-19
6.91026e-20
4.24409e-19
8.99283e-20
3.94082e-19
1.08598e-19
3.58942e-19
1.25169e-19
3.19562e-19
1.39824e-19
2.76894e-19
1.52813e-19
2.32078e-19
1.64303e-19
1.86097e-19
1.74241e-19
1.39678e-19
1.82396e-19
9.35096e-20
1.88581e-19
4.79901e-20
1.92715e-19
1.9464e-19
8.50152e-11
-7.98187e-10
1.93091e-10
-6.98617e-10
2.38317e-10
-5.38864e-10
2.85161e-10
-3.95079e-10
3.07544e-10
-1.21656e-10
2.59782e-10
1.57867e-10
2.15836e-10
3.06006e-10
1.2383e-10
4.72881e-10
-6.45038e-12
5.72448e-10
-1.51519e-10
6.15032e-10
-2.48076e-10
6.71237e-10
-3.4737e-10
7.7157e-10
-3.86921e-10
8.57512e-10
-6.31929e-10
9.82206e-10
-1.24931e-09
1.22026e-09
-1.62971e-09
1.12576e-09
-1.73807e-09
1.30315e-09
-2.02598e-09
1.59609e-09
-2.22149e-09
1.39944e-09
-2.42093e-09
1.23862e-09
-2.53499e-09
1.05465e-09
-2.6319e-09
8.62008e-10
-2.7299e-09
6.11017e-10
-2.80565e-09
4.21646e-10
-2.892e-09
3.98453e-10
-2.93712e-09
2.8421e-10
-2.99138e-09
1.8217e-10
-3.03043e-09
1.33466e-10
-3.05047e-09
-1.40047e-11
-3.04787e-09
-1.57127e-10
-2.99795e-09
-3.18533e-10
-3.01584e-09
-4.24371e-10
-2.94915e-09
-6.27393e-10
-2.83126e-09
-7.82028e-10
-2.81424e-09
-9.10166e-10
-2.75648e-09
-9.75851e-10
-2.6524e-09
-1.03583e-09
-2.54092e-09
-1.15721e-09
-2.51052e-09
-1.16206e-09
-2.29489e-09
-1.1244e-09
-2.0598e-09
-8.59774e-10
-1.84307e-09
-6.89661e-10
-1.55797e-09
-5.03611e-10
-1.33892e-09
-2.42637e-10
-1.151e-09
-3.39063e-11
-1.03064e-09
2.77736e-11
-9.85688e-10
5.81484e-11
-9.50412e-10
9.79987e-11
-9.23943e-10
-7.44841e-11
-7.92304e-10
-1.48276e-10
-7.84224e-10
-4.62843e-11
-7.61649e-10
-4.83768e-11
-7.60191e-10
2.88096e-11
-7.75139e-10
8.69923e-11
-8.42401e-10
1.85138e-10
-8.88253e-10
2.14576e-10
-9.87086e-10
3.02493e-10
-1.09967e-09
3.52535e-10
-1.16132e-09
3.67649e-10
-1.21413e-09
3.44396e-10
-1.22331e-09
2.80903e-10
-1.22312e-09
2.06104e-10
-1.20218e-09
1.31969e-10
-1.20878e-09
2.80666e-11
-1.19317e-09
-8.92171e-11
-1.15203e-09
-2.49494e-10
-1.06583e-09
-2.88191e-10
-1.03247e-09
-3.31671e-10
-9.54137e-10
-5.02032e-10
-8.50031e-10
-5.32536e-10
-7.56974e-10
-5.66965e-10
-6.70142e-10
-5.83664e-10
-6.82267e-10
-6.89761e-10
-6.01745e-10
-9.12665e-10
-5.37088e-10
-1.12382e-09
-4.82332e-10
-1.19761e-09
-2.0903e-10
-1.11042e-09
3.23872e-10
-5.64534e-10
3.72497e-10
1.56721e-10
1.69321e-10
1.08842e-09
2.29021e-15
1.43494e-09
-1.02101e-18
1.66197e-18
-1.0198e-18
6.07743e-19
-9.32706e-19
3.44233e-19
-8.52221e-19
1.67583e-19
-7.80397e-19
2.68622e-20
-7.08468e-19
-9.08726e-20
-6.31004e-19
-1.8921e-19
-5.47013e-19
-2.69008e-19
-4.56203e-19
-3.31007e-19
-3.59813e-19
-3.75651e-19
-2.62052e-19
-4.03637e-19
-1.63484e-19
-4.16558e-19
-6.54285e-20
-4.16405e-19
2.94435e-20
-4.05024e-19
1.18757e-19
-3.84139e-19
2.01016e-19
-3.55611e-19
2.75776e-19
-3.21666e-19
3.42015e-19
-2.84199e-19
3.97675e-19
-2.44227e-19
4.41758e-19
-2.02532e-19
4.75047e-19
-1.60303e-19
4.98673e-19
-1.18821e-19
5.13277e-19
-7.88323e-20
5.19338e-19
-4.05115e-20
5.17438e-19
-3.8988e-21
5.08214e-19
3.07615e-20
4.92331e-19
6.30247e-20
4.70441e-19
9.24291e-20
4.43078e-19
1.18667e-19
4.10653e-19
1.41689e-19
3.73597e-19
1.61739e-19
3.32551e-19
1.79293e-19
2.88384e-19
1.94856e-19
2.42015e-19
2.08718e-19
1.94253e-19
2.20803e-19
1.45863e-19
2.30793e-19
9.76435e-20
2.38379e-19
4.99144e-20
2.4334e-19
2.45508e-19
4.05934e-11
-8.38779e-10
9.02426e-11
-7.48265e-10
1.32084e-10
-5.80705e-10
1.56157e-10
-4.19151e-10
2.25788e-10
-1.91286e-10
1.47464e-10
2.36192e-10
8.25089e-11
3.70963e-10
1.04748e-12
5.54345e-10
-8.23365e-11
6.55834e-10
-2.36703e-10
7.69401e-10
-4.05808e-10
8.40344e-10
-4.85447e-10
8.5121e-10
-7.63129e-10
1.1352e-09
-1.16101e-09
1.38009e-09
-1.39148e-09
1.45073e-09
-1.83242e-09
1.56671e-09
-1.98631e-09
1.45704e-09
-1.95886e-09
1.56864e-09
-2.15929e-09
1.59987e-09
-2.29826e-09
1.37759e-09
-2.36363e-09
1.12002e-09
-2.4884e-09
9.86776e-10
-2.61496e-09
7.37577e-10
-2.7217e-09
5.28385e-10
-2.79574e-09
4.72496e-10
-2.83359e-09
3.22057e-10
-2.8892e-09
2.37782e-10
-2.91575e-09
1.60013e-10
-2.92769e-09
-2.05938e-12
-2.91376e-09
-1.71057e-10
-2.93174e-09
-3.00556e-10
-2.9206e-09
-4.35507e-10
-2.92756e-09
-6.20424e-10
-2.85401e-09
-8.55584e-10
-2.85814e-09
-9.06029e-10
-2.80064e-09
-1.03335e-09
-2.73044e-09
-1.10603e-09
-2.67839e-09
-1.20926e-09
-2.6256e-09
-1.21485e-09
-2.49243e-09
-1.25757e-09
-2.34663e-09
-1.00558e-09
-2.08998e-09
-9.46303e-10
-1.89032e-09
-7.03274e-10
-1.68529e-09
-4.47663e-10
-1.45592e-09
-2.6328e-10
-1.23903e-09
-1.89109e-10
-1.09974e-09
-8.1146e-11
-9.55108e-10
-4.6632e-11
-9.26503e-10
-1.03089e-10
-8.25917e-10
-2.48862e-10
-7.70795e-10
-1.01407e-10
-7.41251e-10
-7.79218e-11
-7.39438e-10
2.69963e-11
-7.54422e-10
1.01976e-10
-8.53753e-10
2.84469e-10
-9.04444e-10
2.65267e-10
-1.01039e-09
4.08442e-10
-1.08515e-09
4.27295e-10
-1.14118e-09
4.2368e-10
-1.19515e-09
3.98362e-10
-1.16481e-09
2.50568e-10
-1.18532e-09
2.26612e-10
-1.18108e-09
1.27733e-10
-1.18501e-09
3.19975e-11
-1.18496e-09
-8.92618e-11
-1.1839e-09
-2.50549e-10
-1.08201e-09
-3.90088e-10
-9.95404e-10
-4.18273e-10
-9.17249e-10
-5.80188e-10
-8.299e-10
-6.19886e-10
-7.36074e-10
-6.60793e-10
-6.48467e-10
-6.71273e-10
-5.59206e-10
-7.79023e-10
-4.94875e-10
-9.76995e-10
-5.267e-10
-1.092e-09
-5.35937e-10
-1.18838e-09
-4.97544e-10
-1.14881e-09
-2.78261e-10
-7.83817e-10
-3.16623e-10
1.9508e-10
1.23349e-10
6.4844e-10
5.50657e-16
1.55828e-09
-1.61944e-18
8.20371e-19
-1.28247e-18
2.66983e-19
-1.10855e-18
1.66683e-19
-9.92883e-19
4.94285e-20
-8.98132e-19
-6.94115e-20
-8.06806e-19
-1.82604e-19
-7.10802e-19
-2.84753e-19
-6.09012e-19
-3.71585e-19
-5.00847e-19
-4.40957e-19
-3.87799e-19
-4.91036e-19
-2.74973e-19
-5.21814e-19
-1.63332e-19
-5.34158e-19
-5.40472e-20
-5.30304e-19
5.03289e-20
-5.12643e-19
1.47285e-19
-4.83369e-19
2.34961e-19
-4.4477e-19
3.13243e-19
-3.99672e-19
3.81987e-19
-3.50798e-19
4.3937e-19
-2.99701e-19
4.83986e-19
-2.47107e-19
5.1653e-19
-1.93929e-19
5.38662e-19
-1.41486e-19
5.51598e-19
-9.09281e-20
5.55951e-19
-4.28478e-20
5.52098e-19
2.52612e-21
5.40477e-19
4.49392e-20
5.21735e-19
8.39692e-20
4.96678e-19
1.19162e-19
4.661e-19
1.50254e-19
4.30704e-19
1.77329e-19
3.9115e-19
2.00829e-19
3.48115e-19
2.21402e-19
3.02245e-19
2.39636e-19
2.54101e-19
2.55793e-19
2.04242e-19
2.69742e-19
1.53449e-19
2.81145e-19
1.02605e-19
2.897e-19
5.20822e-20
2.95204e-19
2.97546e-19
3.44687e-11
-8.73248e-10
3.65796e-11
-7.50376e-10
3.98446e-11
-5.83969e-10
-7.59604e-12
-3.7171e-10
-2.37513e-11
-1.75129e-10
1.30727e-11
1.9937e-10
-1.39668e-11
3.98005e-10
-9.41262e-11
6.34506e-10
-2.29992e-10
7.91702e-10
-3.03574e-10
8.42985e-10
-5.6506e-10
1.10183e-09
-1.06545e-09
1.35161e-09
-1.04802e-09
1.11777e-09
-1.065e-09
1.39708e-09
-1.23238e-09
1.61811e-09
-1.61731e-09
1.95164e-09
-1.89257e-09
1.7323e-09
-2.07216e-09
1.74823e-09
-2.16942e-09
1.69713e-09
-2.24291e-09
1.45109e-09
-2.31481e-09
1.19191e-09
-2.36489e-09
1.03686e-09
-2.44972e-09
8.2241e-10
-2.51817e-09
5.96833e-10
-2.56019e-09
5.14515e-10
-2.57174e-09
3.33604e-10
-2.60677e-09
2.72814e-10
-2.60821e-09
1.61457e-10
-2.65697e-09
4.66954e-11
-2.67875e-09
-1.49276e-10
-2.73057e-09
-2.48726e-10
-2.68838e-09
-4.77697e-10
-2.68648e-09
-6.2232e-10
-2.77489e-09
-7.67172e-10
-2.78943e-09
-8.91495e-10
-2.74427e-09
-1.0785e-09
-2.76684e-09
-1.08346e-09
-2.74602e-09
-1.23008e-09
-2.64768e-09
-1.31319e-09
-2.58551e-09
-1.31974e-09
-2.41295e-09
-1.17815e-09
-2.19902e-09
-1.16023e-09
-2.04068e-09
-8.61618e-10
-1.84437e-09
-6.43974e-10
-1.63069e-09
-4.7696e-10
-1.40502e-09
-4.14775e-10
-1.21493e-09
-2.71231e-10
-1.03324e-09
-2.28323e-10
-8.74869e-10
-2.61461e-10
-8.53138e-10
-2.70595e-10
-7.43456e-10
-2.11089e-10
-7.14295e-10
-1.07084e-10
-6.96484e-10
9.18534e-12
-7.16371e-10
1.21864e-10
-8.27221e-10
3.9532e-10
-9.09825e-10
3.47872e-10
-9.99878e-10
4.98497e-10
-1.04754e-09
4.74957e-10
-1.084e-09
4.6014e-10
-1.12295e-09
4.37314e-10
-1.13474e-09
2.62363e-10
-1.11068e-09
2.02553e-10
-1.1121e-09
1.29154e-10
-1.10452e-09
2.44164e-11
-1.09159e-09
-1.02184e-10
-1.02739e-09
-3.14754e-10
-9.89371e-10
-4.28103e-10
-8.96791e-10
-5.10853e-10
-8.42024e-10
-6.34955e-10
-7.76417e-10
-6.85494e-10
-6.7789e-10
-7.59321e-10
-5.48732e-10
-8.00432e-10
-4.42668e-10
-8.85086e-10
-4.15069e-10
-1.00459e-09
-4.68438e-10
-1.03863e-09
-5.81311e-10
-1.0755e-09
-6.96239e-10
-1.03388e-09
-6.14591e-10
-8.65465e-10
-6.12004e-10
1.9249e-10
-8.23626e-11
1.18794e-10
-1.39701e-15
1.47592e-09
-1.63478e-18
5.77884e-19
-1.38196e-18
1.18182e-20
-1.22502e-18
1.09461e-20
-1.1117e-18
-6.0751e-20
-1.01132e-18
-1.65764e-19
-9.08954e-19
-2.80112e-19
-7.97634e-19
-3.89838e-19
-6.78385e-19
-4.86039e-19
-5.50926e-19
-5.64489e-19
-4.18577e-19
-6.2107e-19
-2.87317e-19
-6.55353e-19
-1.59478e-19
-6.67639e-19
-3.63862e-20
-6.60168e-19
7.96035e-20
-6.35834e-19
1.85884e-19
-5.97269e-19
2.80058e-19
-5.47033e-19
3.62117e-19
-4.88387e-19
4.33085e-19
-4.25012e-19
4.91965e-19
-3.59541e-19
5.37164e-19
-2.93221e-19
5.68973e-19
-2.26909e-19
5.89219e-19
-1.6184e-19
5.99678e-19
-9.94396e-20
6.01325e-19
-4.07709e-20
5.94511e-19
1.36375e-20
5.79507e-19
6.35682e-20
5.56928e-19
1.08868e-19
5.2777e-19
1.49397e-19
4.93175e-19
1.8513e-19
4.54203e-19
2.16292e-19
4.11724e-19
2.43376e-19
3.66349e-19
2.67016e-19
3.18402e-19
2.87748e-19
2.6805e-19
3.0581e-19
2.15645e-19
3.21121e-19
1.62004e-19
3.33469e-19
1.08109e-19
3.42667e-19
5.44249e-20
3.48593e-19
3.51175e-19
1.58369e-11
-8.89085e-10
-2.22703e-12
-7.32311e-10
-1.91918e-11
-5.67003e-10
-9.83613e-12
-3.81064e-10
-6.10787e-11
-1.23885e-10
-6.46597e-11
2.02953e-10
-9.72449e-11
4.30592e-10
-1.43438e-10
6.80701e-10
-2.79414e-10
9.27679e-10
-5.98273e-10
1.16185e-09
-6.19018e-10
1.12258e-09
-5.24591e-10
1.25718e-09
-1.04378e-09
1.63696e-09
-1.31749e-09
1.67079e-09
-1.53131e-09
1.83194e-09
-1.64942e-09
2.06976e-09
-1.79488e-09
1.87776e-09
-1.87219e-09
1.82554e-09
-2.00926e-09
1.8342e-09
-2.05885e-09
1.50069e-09
-2.12921e-09
1.26227e-09
-2.17461e-09
1.08226e-09
-2.22668e-09
8.74477e-10
-2.26108e-09
6.31237e-10
-2.2666e-09
5.2003e-10
-2.26571e-09
3.32718e-10
-2.26527e-09
2.72373e-10
-2.23999e-09
1.36179e-10
-2.24553e-09
5.22379e-11
-2.31339e-09
-8.14124e-11
-2.33462e-09
-2.27496e-10
-2.32586e-09
-4.8645e-10
-2.38067e-09
-5.67508e-10
-2.56332e-09
-5.84528e-10
-2.67678e-09
-7.78037e-10
-2.67033e-09
-1.08495e-09
-2.6802e-09
-1.07359e-09
-2.67732e-09
-1.23297e-09
-2.64118e-09
-1.34933e-09
-2.57744e-09
-1.38348e-09
-2.40682e-09
-1.34878e-09
-2.24073e-09
-1.32631e-09
-2.07772e-09
-1.02462e-09
-1.89704e-09
-8.24653e-10
-1.7086e-09
-6.654e-10
-1.52494e-09
-5.98439e-10
-1.27912e-09
-5.17048e-10
-1.06855e-09
-4.389e-10
-8.7534e-10
-4.54668e-10
-7.83153e-10
-3.62782e-10
-7.16882e-10
-2.77361e-10
-6.89665e-10
-1.34301e-10
-6.67203e-10
-1.32764e-11
-7.17156e-10
1.71819e-10
-7.97779e-10
4.75944e-10
-8.93827e-10
4.43921e-10
-9.43636e-10
5.48307e-10
-1.00091e-09
5.32228e-10
-1.03299e-09
4.92222e-10
-1.02046e-09
4.24791e-10
-1.07825e-09
3.20154e-10
-1.02012e-09
1.44424e-10
-9.91447e-10
1.00478e-10
-9.87422e-10
2.03937e-11
-9.71477e-10
-1.18127e-10
-9.04678e-10
-3.81551e-10
-8.44128e-10
-4.88651e-10
-8.26725e-10
-5.28256e-10
-7.46336e-10
-7.15345e-10
-6.68382e-10
-7.63448e-10
-5.5565e-10
-8.72053e-10
-4.14324e-10
-9.41757e-10
-3.13749e-10
-9.85659e-10
-3.12687e-10
-1.00565e-09
-3.73737e-10
-9.77573e-10
-5.60667e-10
-8.88568e-10
-9.22667e-10
-6.71883e-10
-1.23168e-09
-5.56453e-10
-7.56705e-10
-2.82489e-10
-1.52094e-10
-4.85817e-10
-2.14529e-15
1.32383e-09
-1.56042e-18
1.80929e-20
-1.38204e-18
-1.65777e-19
-1.29597e-18
-6.96624e-20
-1.21671e-18
-1.32417e-19
-1.12567e-18
-2.4873e-19
-1.01868e-18
-3.78978e-19
-8.93835e-19
-5.04677e-19
-7.56834e-19
-6.14762e-19
-6.07507e-19
-7.04541e-19
-4.5286e-19
-7.68739e-19
-2.99603e-19
-8.06247e-19
-1.52006e-19
-8.17605e-19
-1.20522e-20
-8.05321e-19
1.18168e-19
-7.72851e-19
2.3612e-19
-7.23386e-19
3.38705e-19
-6.59735e-19
4.25492e-19
-5.85353e-19
4.98556e-19
-5.04708e-19
5.58284e-19
-4.21816e-19
6.03476e-19
-3.39099e-19
6.34042e-19
-2.57827e-19
6.5162e-19
-1.79125e-19
6.58347e-19
-1.04333e-19
6.55733e-19
-3.46815e-20
6.44442e-19
2.90797e-20
6.24807e-19
8.67198e-20
5.97456e-19
1.3833e-19
5.63504e-19
1.8413e-19
5.24337e-19
2.244e-19
4.81287e-19
2.59514e-19
4.35364e-19
2.89984e-19
3.87081e-19
3.16385e-19
3.36463e-19
3.3921e-19
2.83362e-19
3.58734e-19
2.27993e-19
3.75022e-19
1.71203e-19
3.88049e-19
1.14034e-19
3.97766e-19
5.7007e-20
4.0411e-19
4.07014e-19
1.03769e-11
-8.99461e-10
2.68592e-12
-7.24618e-10
-5.72481e-12
-5.58591e-10
-2.92807e-11
-3.57506e-10
-5.9231e-11
-9.39327e-11
-3.83933e-11
1.82117e-10
-1.32808e-10
5.25008e-10
-2.60496e-10
8.0839e-10
-2.94644e-10
9.61829e-10
-2.73288e-10
1.14049e-09
-5.85164e-10
1.43446e-09
-8.37164e-10
1.50918e-09
-1.0589e-09
1.85869e-09
-1.32185e-09
1.93374e-09
-1.59735e-09
2.10744e-09
-1.59613e-09
2.06854e-09
-1.7429e-09
2.02454e-09
-1.87592e-09
1.95855e-09
-1.98703e-09
1.94532e-09
-1.94233e-09
1.45599e-09
-1.94768e-09
1.26762e-09
-1.92284e-09
1.05741e-09
-1.96431e-09
9.15945e-10
-2.009e-09
6.75926e-10
-1.98769e-09
4.9872e-10
-2.04119e-09
3.86225e-10
-2.02238e-09
2.53563e-10
-1.97062e-09
8.44194e-11
-1.92616e-09
7.7804e-12
-1.92252e-09
-8.50497e-11
-1.95409e-09
-1.95923e-10
-2.04906e-09
-3.91484e-10
-2.15998e-09
-4.56582e-10
-2.15486e-09
-5.89655e-10
-2.24289e-09
-6.90001e-10
-2.50693e-09
-8.20918e-10
-2.46282e-09
-1.1177e-09
-2.52728e-09
-1.1685e-09
-2.54779e-09
-1.32882e-09
-2.44016e-09
-1.4911e-09
-2.34356e-09
-1.44538e-09
-2.20512e-09
-1.46476e-09
-2.10486e-09
-1.12488e-09
-1.94714e-09
-9.82375e-10
-1.77405e-09
-8.38489e-10
-1.59578e-09
-7.7671e-10
-1.30578e-09
-8.07054e-10
-1.06293e-09
-6.8175e-10
-8.6038e-10
-6.57216e-10
-7.22465e-10
-5.00698e-10
-6.75974e-10
-3.23852e-10
-6.49673e-10
-1.60602e-10
-6.36655e-10
-2.62942e-11
-6.73453e-10
2.08618e-10
-7.29948e-10
5.32441e-10
-8.21375e-10
5.3535e-10
-8.67904e-10
5.94837e-10
-9.25661e-10
5.89985e-10
-9.74794e-10
5.41355e-10
-9.84194e-10
4.3419e-10
-1.00686e-09
3.42818e-10
-9.93069e-10
1.30636e-10
-9.14515e-10
2.19245e-11
-8.63982e-10
-3.01368e-11
-8.32374e-10
-1.49732e-10
-8.05576e-10
-4.08347e-10
-7.70227e-10
-5.23998e-10
-7.37796e-10
-5.60686e-10
-6.48972e-10
-8.04169e-10
-5.28606e-10
-8.83814e-10
-4.14149e-10
-9.8651e-10
-3.35473e-10
-1.02043e-09
-2.92747e-10
-1.02838e-09
-2.70108e-10
-1.02829e-09
-2.67279e-10
-9.804e-10
-2.64605e-10
-8.91242e-10
-2.69224e-10
-6.67266e-10
-5.0203e-10
-3.23647e-10
-3.25683e-10
-4.58836e-10
-9.65017e-11
-7.14995e-10
-1.13528e-15
1.22734e-09
-9.5816e-19
1.44384e-18
-1.28515e-18
1.64762e-19
-1.35804e-18
9.10812e-21
-1.33302e-18
-1.50106e-19
-1.25592e-18
-3.18509e-19
-1.14438e-18
-4.84183e-19
-1.00392e-18
-6.36242e-19
-8.46613e-19
-7.65881e-19
-6.71705e-19
-8.68469e-19
-4.90368e-19
-9.40403e-19
-3.10961e-19
-9.79447e-19
-1.39723e-19
-9.86647e-19
2.04178e-20
-9.65617e-19
1.67633e-19
-9.21046e-19
2.99771e-19
-8.57222e-19
4.13087e-19
-7.77485e-19
5.06136e-19
-6.8535e-19
5.81448e-19
-5.85597e-19
6.41002e-19
-4.83357e-19
6.84748e-19
-3.82439e-19
7.12744e-19
-2.84943e-19
7.26412e-19
-1.92045e-19
7.27999e-19
-1.04757e-19
7.19494e-19
-2.4072e-20
7.02082e-19
4.92638e-20
6.76418e-19
1.1496e-19
6.43257e-19
1.7317e-19
6.03773e-19
2.24321e-19
5.59452e-19
2.68955e-19
5.11756e-19
3.07651e-19
4.61765e-19
3.41024e-19
4.09906e-19
3.69689e-19
3.55987e-19
3.94169e-19
2.9965e-19
4.14831e-19
2.41019e-19
4.31897e-19
1.8092e-19
4.45502e-19
1.20379e-19
4.55693e-19
5.99106e-20
4.62436e-19
4.65652e-19
-1.84092e-12
-8.97619e-10
-2.05324e-11
-7.05924e-10
-5.04353e-11
-5.28686e-10
-9.01503e-11
-3.17789e-10
-1.07513e-10
-7.65681e-11
-8.91466e-11
1.63752e-10
-1.48034e-10
5.83897e-10
-2.03157e-10
8.63514e-10
-3.33694e-10
1.09237e-09
-3.95231e-10
1.20203e-09
-3.99286e-10
1.43851e-09
-6.75083e-10
1.78498e-09
-8.391e-10
2.02271e-09
-1.08423e-09
2.17888e-09
-1.22804e-09
2.25125e-09
-1.41286e-09
2.25337e-09
-1.532e-09
2.14368e-09
-1.55587e-09
1.98243e-09
-1.52519e-09
1.91464e-09
-1.71575e-09
1.64655e-09
-1.80146e-09
1.35333e-09
-1.795e-09
1.05095e-09
-1.75845e-09
8.79403e-10
-1.79077e-09
7.08244e-10
-1.79253e-09
5.00481e-10
-1.77456e-09
3.68248e-10
-1.76277e-09
2.41782e-10
-1.74965e-09
7.13015e-11
-1.75106e-09
9.1899e-12
-1.70887e-09
-1.27238e-10
-1.70855e-09
-1.96247e-10
-1.73715e-09
-3.62876e-10
-1.76268e-09
-4.31059e-10
-1.77035e-09
-5.81986e-10
-1.94812e-09
-5.12229e-10
-2.08065e-09
-6.88383e-10
-2.12348e-09
-1.07488e-09
-2.29014e-09
-1.00184e-09
-2.34806e-09
-1.2709e-09
-2.3243e-09
-1.51487e-09
-2.27107e-09
-1.49861e-09
-2.20473e-09
-1.5311e-09
-2.11978e-09
-1.20982e-09
-1.99727e-09
-1.10488e-09
-1.81578e-09
-1.01998e-09
-1.61787e-09
-9.74617e-10
-1.33959e-09
-1.08534e-09
-1.01594e-09
-1.0054e-09
-8.24751e-10
-8.48408e-10
-6.53814e-10
-6.71635e-10
-5.89632e-10
-3.88034e-10
-5.77971e-10
-1.72263e-10
-5.80774e-10
-2.34903e-11
-6.17971e-10
2.45816e-10
-6.50217e-10
5.64687e-10
-7.26612e-10
6.11745e-10
-7.77552e-10
6.45777e-10
-8.29637e-10
6.4207e-10
-8.64673e-10
5.7639e-10
-8.88972e-10
4.58489e-10
-8.89006e-10
3.42852e-10
-9.17143e-10
1.58774e-10
-8.85972e-10
-9.24474e-12
-7.84063e-10
-1.32043e-10
-7.18126e-10
-2.15667e-10
-6.92704e-10
-4.33768e-10
-6.6972e-10
-5.46981e-10
-5.56837e-10
-6.7357e-10
-4.70927e-10
-8.90081e-10
-3.74837e-10
-9.79906e-10
-3.11281e-10
-1.05007e-09
-2.33431e-10
-1.09828e-09
-1.67885e-10
-1.09393e-09
-1.55846e-10
-1.04033e-09
-1.30104e-10
-1.00614e-09
-1.22312e-10
-8.99036e-10
-8.9183e-11
-7.00397e-10
1.11829e-10
-5.2466e-10
1.51888e-10
-4.98894e-10
-4.21216e-11
-5.20981e-10
7.83392e-16
1.18522e-09
-1.23811e-18
2.0963e-18
-1.44e-18
3.70605e-19
-1.51663e-18
8.73595e-20
-1.50143e-18
-1.63702e-19
-1.4216e-18
-3.97083e-19
-1.29644e-18
-6.10186e-19
-1.13356e-18
-7.96672e-19
-9.49201e-19
-9.52074e-19
-7.43639e-19
-1.06922e-18
-5.29411e-19
-1.14768e-18
-3.18161e-19
-1.18562e-18
-1.18693e-19
-1.18448e-18
6.49894e-20
-1.14885e-18
2.31457e-19
-1.0853e-18
3.79508e-19
-1.00039e-18
5.05222e-19