/*--------------------------------*- C++ -*----------------------------------*\
  =========                 |
  \\      /  F ield         | OpenFOAM: The Open Source CFD Toolbox
   \\    /   O peration     | Website:  https://openfoam.org
    \\  /    A nd           | Version:  6
     \\/     M anipulation  |
\*---------------------------------------------------------------------------*/
FoamFile
{
    version     2.0;
    format      ascii;
    class       surfaceScalarField;
    location    "120";
    object      phi;
}
// * * * * * * * * * * * * * * * * * * * * * * * * * * * * * * * * * * * * * //

dimensions      [0 3 -1 0 0 0 0];

internalField   nonuniform List<scalar> 
11773
(
-2.02414e-08
2.02413e-08
-6.24497e-08
4.22348e-08
-8.29085e-08
2.04798e-08
-7.53382e-08
-7.55006e-09
-6.37528e-08
-1.15652e-08
-4.81573e-08
-1.55752e-08
-2.29657e-08
-2.51716e-08
-1.1956e-11
-2.29336e-08
1.54734e-13
1.29287e-13
1.03638e-13
5.1096e-14
8.19456e-14
2.17104e-14
6.96823e-14
1.22947e-14
6.13017e-14
8.41267e-15
5.49391e-14
6.39505e-15
4.98127e-14
5.15942e-15
4.55259e-14
4.32004e-15
4.18486e-14
3.71012e-15
3.86349e-14
3.24526e-15
3.57871e-14
2.87785e-15
3.32363e-14
2.57898e-15
3.09324e-14
2.33016e-15
2.88375e-14
2.11907e-15
2.69225e-14
1.93719e-15
2.51644e-14
1.77849e-15
2.35444e-14
1.63854e-15
2.20474e-14
1.51401e-15
2.06605e-14
1.40237e-15
1.93729e-14
1.30165e-15
1.81756e-14
1.21025e-15
1.70604e-14
1.12693e-15
1.60204e-14
1.05064e-15
1.50497e-14
9.80542e-16
1.41427e-14
9.15908e-16
1.32947e-14
8.56138e-16
1.25013e-14
8.00716e-16
1.17588e-14
7.49189e-16
1.10637e-14
7.0115e-16
1.04129e-14
6.56216e-16
9.80375e-15
6.13985e-16
9.23414e-15
5.73943e-16
8.7028e-15
5.35179e-16
8.20464e-15
5.01537e-16
7.73342e-15
4.74174e-16
7.28861e-15
4.47355e-16
6.86904e-15
4.21745e-16
6.47333e-15
3.97527e-16
6.10011e-15
3.74724e-16
5.74801e-15
3.53302e-16
5.41574e-15
3.33204e-16
5.10206e-15
3.14363e-16
4.8058e-15
2.96712e-16
4.52587e-15
2.80186e-16
4.26122e-15
2.64718e-16
4.01089e-15
2.50248e-16
3.77396e-15
2.36717e-16
3.54957e-15
2.2407e-16
3.3369e-15
2.12256e-16
3.13519e-15
2.01226e-16
2.94372e-15
1.90934e-16
2.76182e-15
1.81337e-16
2.58885e-15
1.72397e-16
2.42419e-15
1.64075e-16
2.26729e-15
1.56336e-16
2.1176e-15
1.49149e-16
1.9746e-15
1.42484e-16
1.83782e-15
1.36311e-16
1.70679e-15
1.30604e-16
1.58107e-15
1.2534e-16
1.46024e-15
1.20495e-16
1.34391e-15
1.16049e-16
1.23171e-15
1.11983e-16
1.12325e-15
1.08278e-16
1.01821e-15
1.04919e-16
9.16239e-16
1.0189e-16
8.17026e-16
9.91787e-17
7.20261e-16
9.67725e-17
6.25646e-16
9.46608e-17
5.32891e-16
9.28343e-17
4.41716e-16
9.12848e-17
3.51845e-16
9.00055e-17
2.63009e-16
8.89915e-17
1.74942e-16
8.82402e-17
8.73711e-17
8.77553e-17
8.75631e-17
-5.45495e-08
7.48171e-08
-6.27466e-08
5.04743e-08
-6.44327e-08
2.22025e-08
-6.13877e-08
-1.05585e-08
-4.79043e-08
-2.50123e-08
-3.19286e-08
-3.15152e-08
-1.90554e-08
-3.80091e-08
-9.52846e-12
-4.19517e-08
5.60693e-14
1.01734e-13
7.78105e-14
2.93729e-14
7.36709e-14
2.59024e-14
6.6274e-14
1.97489e-14
5.95349e-14
1.52103e-14
5.38621e-14
1.21269e-14
4.90861e-14
9.99433e-15
4.50027e-14
8.46129e-15
4.14543e-14
7.31444e-15
3.83274e-14
6.42525e-15
3.55406e-14
5.71447e-15
3.30343e-14
5.13161e-15
3.07638e-14
4.64347e-15
2.86947e-14
4.22749e-15
2.68e-14
3.86788e-15
2.50582e-14
3.55325e-15
2.34515e-14
3.27522e-15
2.19655e-14
3.02744e-15
2.05879e-14
2.80502e-15
1.93082e-14
2.60412e-15
1.81176e-14
2.42168e-15
1.70083e-14
2.25524e-15
1.59735e-14
2.10276e-15
1.50073e-14
1.96257e-15
1.41043e-14
1.83326e-15
1.32598e-14
1.71364e-15
1.24697e-14
1.60269e-15
1.173e-14
1.49953e-15
1.10374e-14
1.40336e-15
1.03888e-14
1.31345e-15
9.78141e-15
1.22907e-15
9.21273e-15
1.14943e-15
8.6803e-15
1.07359e-15
8.18059e-15
1.00647e-15
7.70984e-15
9.49435e-16
7.2661e-15
8.94949e-16
6.84775e-15
8.43326e-16
6.45329e-15
7.94645e-16
6.08128e-15
7.48865e-16
5.73035e-15
7.05885e-16
5.39918e-15
6.65577e-16
5.08655e-15
6.27805e-16
4.79128e-15
5.92431e-16
4.51227e-15
5.59321e-16
4.24851e-15
5.28343e-16
3.999e-15
4.99376e-16
3.76285e-15
4.72301e-16
3.53918e-15
4.47007e-16
3.3272e-15
4.2339e-16
3.12614e-15
4.01351e-16
2.93529e-15
3.80799e-16
2.75396e-15
3.61646e-16
2.58153e-15
3.43812e-16
2.41739e-15
3.2722e-16
2.26098e-15
3.11801e-16
2.11174e-15
2.97487e-16
1.96918e-15
2.84217e-16
1.83281e-15
2.71933e-16
1.70216e-15
2.60582e-16
1.57681e-15
2.50115e-16
1.45634e-15
2.40485e-16
1.34034e-15
2.3165e-16
1.22845e-15
2.23571e-16
1.1203e-15
2.16212e-16
1.01555e-15
2.0954e-16
9.13856e-16
2.03525e-16
8.14911e-16
1.98141e-16
7.18405e-16
1.93363e-16
6.24041e-16
1.8917e-16
5.31529e-16
1.85542e-16
4.40591e-16
1.82464e-16
3.50954e-16
1.79921e-16
2.62349e-16
1.77903e-16
1.74516e-16
1.76401e-16
8.72021e-17
1.75409e-16
1.74917e-16
-3.43171e-08
1.09155e-07
-4.75911e-08
6.37858e-08
-5.25612e-08
2.72046e-08
-5.84377e-08
-4.65009e-09
-4.11369e-08
-4.22814e-08
-2.7017e-08
-4.56037e-08
-4.76046e-09
-6.02342e-08
-9.11218e-12
-4.66779e-08
8.63421e-14
1.46937e-13
7.47588e-14
4.09792e-14
6.82642e-14
3.24397e-14
6.22897e-14
2.57738e-14
5.68324e-14
2.07192e-14
5.19976e-14
1.70136e-14
4.77504e-14
1.4293e-14
4.40081e-14
1.22541e-14
4.06874e-14
1.06837e-14
3.77182e-14
9.44048e-15
3.50446e-14
8.43134e-15
3.2622e-14
7.59437e-15
3.04151e-14
6.88741e-15
2.83957e-14
6.28105e-15
2.65405e-14
5.75426e-15
2.48306e-14
5.29161e-15
2.32503e-14
4.88154e-15
2.17863e-14
4.51521e-15
2.04272e-14
4.18574e-15
1.91635e-14
3.88767e-15
1.79866e-14
3.61664e-15
1.68893e-14
3.3691e-15
1.5865e-14
3.14212e-15
1.4908e-14
2.93326e-15
1.40133e-14
2.7405e-15
1.31763e-14
2.56211e-15
1.23927e-14
2.39658e-15
1.1659e-14
2.24263e-15
1.09717e-14
2.09911e-15
1.03277e-14
1.96498e-15
9.7243e-15
1.83926e-15
9.15875e-15
1.72099e-15
8.62842e-15
1.60922e-15
8.13047e-15
1.50907e-15
7.66196e-15
1.42196e-15
7.22073e-15
1.33962e-15
6.80496e-15
1.26199e-15
6.41306e-15
1.18896e-15
6.04351e-15
1.12035e-15
5.69492e-15
1.05599e-15
5.36598e-15
9.95641e-16
5.05545e-15
9.39105e-16
4.76217e-15
8.86167e-16
4.48505e-15
8.36622e-16
4.22305e-15
7.90273e-16
3.9752e-15
7.46936e-16
3.74062e-15
7.06433e-16
3.51842e-15
6.68599e-16
3.30783e-15
6.33275e-16
3.10808e-15
6.00316e-16
2.91845e-15
5.69582e-16
2.73829e-15
5.40943e-16
2.56695e-15
5.14279e-16
2.40384e-15
4.89474e-16
2.2484e-15
4.66423e-16
2.10008e-15
4.45027e-16
1.95838e-15
4.25192e-16
1.82283e-15
4.06833e-16
1.69296e-15
3.89869e-16
1.56835e-15
3.74226e-16
1.44857e-15
3.59835e-16
1.33324e-15
3.46633e-16
1.22198e-15
3.34561e-16
1.11444e-15
3.23565e-16
1.01026e-15
3.13596e-16
9.09124e-16
3.0461e-16
8.10712e-16
2.96565e-16
7.1472e-16
2.89426e-16
6.20852e-16
2.8316e-16
5.28824e-16
2.77739e-16
4.38356e-16
2.73139e-16
3.4918e-16
2.69338e-16
2.61029e-16
2.6632e-16
1.73644e-16
2.6407e-16
8.67696e-17
2.62578e-16
2.61834e-16
-2.35402e-08
1.32716e-07
-3.82619e-08
7.85443e-08
-3.94473e-08
2.84218e-08
-4.21298e-08
-1.93607e-09
-2.85714e-08
-5.58083e-08
-1.0568e-08
-6.35758e-08
2.96326e-09
-7.3734e-08
-9.31587e-12
-4.36806e-08
7.10845e-14
1.60678e-13
6.72488e-14
4.48327e-14
6.24083e-14
3.73224e-14
5.78539e-14
3.03784e-14
5.35846e-14
2.50397e-14
4.96175e-14
2.1032e-14
4.5971e-14
1.79902e-14
4.26418e-14
1.56328e-14
3.96097e-14
1.37633e-14
3.68471e-14
1.22479e-14
3.43254e-14
1.09951e-14
3.20175e-14
9.9413e-15
2.98993e-14
9.0416e-15
2.79498e-14
8.26359e-15
2.61509e-14
7.58339e-15
2.4487e-14
6.98306e-15
2.29449e-14
6.44887e-15
2.1513e-14
5.97017e-15
2.01812e-14
5.53853e-15
1.89409e-14
5.14722e-15
1.77843e-14
4.79078e-15
1.67047e-14
4.46476e-15
1.56961e-14
4.16545e-15
1.4753e-14
3.88977e-15
1.38707e-14
3.63512e-15
1.30447e-14
3.39927e-15
1.22711e-14
3.18033e-15
1.15463e-14
2.97662e-15
1.08671e-14
2.7867e-15
1.02303e-14
2.60924e-15
9.63324e-15
2.44304e-15
9.0732e-15
2.28701e-15
8.54758e-15
2.14011e-15
8.05391e-15
2.00738e-15
7.58959e-15
1.89031e-15
7.1525e-15
1.78018e-15
6.74077e-15
1.67665e-15
6.35276e-15
1.57941e-15
5.98693e-15
1.48816e-15
5.64188e-15
1.4026e-15
5.31629e-15
1.32241e-15
5.00893e-15
1.2473e-15
4.71863e-15
1.17697e-15
4.44431e-15
1.11117e-15
4.18496e-15
1.04961e-15
3.93961e-15
9.92057e-16
3.70736e-15
9.38271e-16
3.48738e-15
8.88031e-16
3.27886e-15
8.41128e-16
3.08107e-15
7.97367e-16
2.89328e-15
7.56562e-16
2.71485e-15
7.18542e-16
2.54515e-15
6.83144e-16
2.38358e-15
6.50216e-16
2.22959e-15
6.19619e-16
2.08265e-15
5.91218e-16
1.94225e-15
5.64892e-16
1.80792e-15
5.40525e-16
1.67921e-15
5.18011e-16
1.5557e-15
4.97251e-16
1.43697e-15
4.78153e-16
1.32263e-15
4.60633e-16
1.21232e-15
4.44613e-16
1.10567e-15
4.30022e-16
1.00236e-15
4.16793e-16
9.02053e-16
4.04869e-16
8.04438e-16
3.94194e-16
7.09213e-16
3.84721e-16
6.16088e-16
3.76407e-16
5.2478e-16
3.69214e-16
4.35016e-16
3.63109e-16
3.46527e-16
3.58065e-16
2.59051e-16
3.54058e-16
1.72332e-16
3.5107e-16
8.61154e-17
3.49086e-16
3.48097e-16
-1.24735e-08
1.4521e-07
-3.40956e-08
1.00204e-07
-4.23037e-08
3.66625e-08
-4.47306e-08
5.22487e-10
-3.00457e-08
-7.04612e-08
-7.2751e-09
-8.63144e-08
3.65105e-09
-8.46285e-08
-9.61517e-12
-3.99949e-08
7.3017e-14
1.16707e-13
6.06499e-14
5.72175e-14
5.6313e-14
4.1701e-14
5.31717e-14
3.35703e-14
5.00737e-14
2.81895e-14
4.69567e-14
2.42006e-14
4.39128e-14
2.10849e-14
4.10134e-14
1.85813e-14
3.82933e-14
1.65303e-14
3.57622e-14
1.48233e-14
3.34159e-14
1.33827e-14
3.12437e-14
1.21517e-14
2.92326e-14
1.10879e-14
2.73691e-14
1.01594e-14
2.56403e-14
9.34175e-15
2.40344e-14
8.61594e-15
2.25408e-14
7.96714e-15
2.11499e-14
7.38356e-15
1.98532e-14
6.85576e-15
1.86433e-14
6.37606e-15
1.75131e-14
5.9382e-15
1.64567e-14
5.53699e-15
1.54685e-14
5.1681e-15
1.45437e-14
4.82792e-15
1.36776e-14
4.51334e-15
1.28662e-14
4.22175e-15
1.21058e-14
3.95086e-15
1.13929e-14
3.69871e-15
1.07244e-14
3.46354e-15
1.00974e-14
3.24382e-15
9.50901e-15
3.03815e-15
8.95679e-15
2.84526e-15
8.43822e-15
2.66404e-15
7.95102e-15
2.49929e-15
7.49279e-15
2.35265e-15
7.0615e-15
2.21502e-15
6.65531e-15
2.08586e-15
6.27256e-15
1.96469e-15
5.91173e-15
1.85107e-15
5.57141e-15
1.74457e-15
5.25028e-15
1.6448e-15
4.94712e-15
1.55136e-15
4.66079e-15
1.46389e-15
4.39021e-15
1.38205e-15
4.13437e-15
1.30549e-15
3.89233e-15
1.23393e-15
3.66321e-15
1.16705e-15
3.44616e-15
1.10458e-15
3.2404e-15
1.04626e-15
3.0452e-15
9.91858e-16
2.85987e-15
9.4113e-16
2.68374e-15
8.93865e-16
2.51621e-15
8.49863e-16
2.35669e-15
8.08934e-16
2.20463e-15
7.70902e-16
2.05951e-15
7.35603e-16
1.92083e-15
7.02884e-16
1.78813e-15
6.72601e-16
1.66097e-15
6.44622e-16
1.53891e-15
6.18823e-16
1.42157e-15
5.95092e-16
1.30855e-15
5.73321e-16
1.19949e-15
5.53415e-16
1.09405e-15
5.35285e-16
9.9188e-16
5.18849e-16
8.92671e-16
5.04033e-16
7.96112e-16
4.9077e-16
7.01905e-16
4.79e-16
6.09766e-16
4.6867e-16
5.19415e-16
4.59733e-16
4.30582e-16
4.52148e-16
3.43005e-16
4.4588e-16
2.56425e-16
4.409e-16
1.70589e-16
4.37186e-16
8.52459e-17
4.3472e-16
4.3349e-16
2.72242e-10
1.44958e-07
-1.95618e-08
1.20077e-07
-3.17781e-08
4.89122e-08
-2.84594e-08
-2.76343e-09
-2.45191e-08
-7.43688e-08
-1.6658e-08
-9.4143e-08
-2.24319e-09
-9.90109e-08
-9.74093e-12
-4.22028e-08
3.58528e-14
4.88795e-14
4.70327e-14
4.60542e-14
4.91832e-14
3.95991e-14
4.84572e-14
3.43482e-14
4.65821e-14
3.01168e-14
4.42325e-14
2.6602e-14
4.17272e-14
2.36408e-14
3.92261e-14
2.1131e-14
3.6809e-14
1.89937e-14
3.45125e-14
1.71632e-14
3.23508e-14
1.55849e-14
3.03259e-14
1.4214e-14
2.84337e-14
1.30144e-14
2.66676e-14
1.19571e-14
2.50194e-14
1.10187e-14
2.34809e-14
1.01806e-14
2.20444e-14
9.4277e-15
2.07022e-14
8.74767e-15
1.94476e-14
8.13053e-15
1.8274e-14
7.56804e-15
1.71758e-14
7.05337e-15
1.61475e-14
6.58082e-15
1.51843e-14
6.1456e-15
1.42817e-14
5.74365e-15
1.34355e-14
5.3715e-15
1.26421e-14
5.02618e-15
1.1898e-14
4.70513e-15
1.11998e-14
4.40608e-15
1.05446e-14
4.12706e-15
9.92972e-15
3.86631e-15
9.35241e-15
3.62228e-15
8.81024e-15
3.39356e-15
8.30084e-15
3.17889e-15
7.82214e-15
2.98283e-15
7.37183e-15
2.80719e-15
6.94798e-15
2.64254e-15
6.54882e-15
2.48817e-15
6.1727e-15
2.34346e-15
5.81813e-15
2.20784e-15
5.48371e-15
2.08076e-15
5.16815e-15
1.96173e-15
4.87024e-15
1.85028e-15
4.58886e-15
1.74596e-15
4.32293e-15
1.64836e-15
4.07147e-15
1.55708e-15
3.83355e-15
1.47175e-15
3.6083e-15
1.39201e-15
3.3949e-15
1.31754e-15
3.19258e-15
1.24802e-15
3.00062e-15
1.18316e-15
2.81833e-15
1.12269e-15
2.64507e-15
1.06636e-15
2.48024e-15
1.01391e-15
2.32326e-15
9.65132e-16
2.1736e-15
9.19807e-16
2.03075e-15
8.77741e-16
1.89421e-15
8.38751e-16
1.76354e-15
8.02666e-16
1.63829e-15
7.69328e-16
1.51806e-15
7.3859e-16
1.40243e-15
7.10315e-16
1.29105e-15
6.84378e-16
1.18356e-15
6.60664e-16
1.0796e-15
6.39065e-16
9.78858e-16
6.19485e-16
8.81014e-16
6.01835e-16
7.85767e-16
5.86036e-16
6.92826e-16
5.72016e-16
6.01911e-16
5.59711e-16
5.12748e-16
5.49066e-16
4.25073e-16
5.4003e-16
3.38629e-16
5.32564e-16
2.53161e-16
5.26632e-16
1.68422e-16
5.22207e-16
8.41649e-17
5.19269e-16
5.17803e-16
-2.07435e-08
1.65723e-07
-2.86753e-08
1.28047e-07
-3.23142e-08
5.25856e-08
-2.67991e-08
-8.24519e-09
-6.93233e-09
-9.42023e-08
3.21253e-09
-1.04255e-07
5.13523e-09
-1.009e-07
-9.84919e-12
-3.70312e-08
3.34346e-14
4.9133e-14
4.13951e-14
3.81171e-14
4.45918e-14
3.64522e-14
4.47568e-14
3.42357e-14
4.35093e-14
3.14169e-14
4.16457e-14
2.85173e-14
3.95371e-14
2.57995e-14
3.73637e-14
2.33525e-14
3.52165e-14
2.11863e-14
3.3142e-14
1.92802e-14
3.11629e-14
1.76034e-14
2.92887e-14
1.61245e-14
2.75217e-14
1.48148e-14
2.586e-14
1.36492e-14
2.42998e-14
1.26068e-14
2.2836e-14
1.16699e-14
2.14632e-14
1.08237e-14
2.01761e-14
1.00561e-14
1.89691e-14
9.357e-15
1.78373e-14
8.71781e-15
1.67758e-14
8.13142e-15
1.578e-14
7.59182e-15
1.48457e-14
7.09388e-15
1.39691e-14
6.63325e-15
1.31463e-14
6.20619e-15
1.2374e-14
5.80946e-15
1.16489e-14
5.44023e-15
1.09681e-14
5.09606e-15
1.03288e-14
4.77475e-15
9.7284e-15
4.47439e-15
9.16434e-15
4.19326e-15
8.63432e-15
3.92981e-15
8.1361e-15
3.68269e-15
7.66777e-15
3.45612e-15
7.22712e-15
3.25221e-15
6.81231e-15
3.06116e-15
6.42163e-15
2.88215e-15
6.05349e-15
2.7144e-15
5.70644e-15
2.55723e-15
5.3791e-15
2.41e-15
5.0702e-15
2.27213e-15
4.77856e-15
2.14305e-15
4.50307e-15
2.02225e-15
4.2427e-15
1.90923e-15
3.99647e-15
1.80354e-15
3.76347e-15
1.70474e-15
3.54285e-15
1.61243e-15
3.3338e-15
1.52621e-15
3.13558e-15
1.44574e-15
2.94747e-15
1.37067e-15
2.76881e-15
1.30068e-15
2.59897e-15
1.23547e-15
2.43736e-15
1.17477e-15
2.28343e-15
1.11832e-15
2.13663e-15
1.06587e-15
1.99648e-15
1.0172e-15
1.8625e-15
9.72085e-16
1.73424e-15
9.30334e-16
1.61128e-15
8.91764e-16
1.4932e-15
8.56203e-16
1.37964e-15
8.23494e-16
1.27021e-15
7.93491e-16
1.16457e-15
7.66059e-16
1.06239e-15
7.41076e-16
9.63346e-16
7.18429e-16
8.67128e-16
6.98015e-16
7.73445e-16
6.79743e-16
6.82012e-16
6.63528e-16
5.92554e-16
6.49297e-16
5.04807e-16
6.36985e-16
4.18511e-16
6.26535e-16
3.33415e-16
6.179e-16
2.49272e-16
6.1104e-16
1.65839e-16
6.05922e-16
8.28769e-17
6.02524e-16
6.00829e-16
-2.3406e-08
1.89151e-07
-3.15964e-08
1.36278e-07
-3.08453e-08
5.18695e-08
-1.9202e-08
-1.98544e-08
-5.96851e-09
-1.07402e-07
-3.15606e-09
-1.07033e-07
-9.99887e-10
-1.03022e-07
1.0223e-11
-3.8014e-08
2.38188e-14
2.04566e-11
3.99689e-14
2.19915e-14
4.2669e-14
3.38019e-14
4.22992e-14
3.46583e-14
4.09784e-14
3.27904e-14
3.92736e-14
3.02737e-14
3.74027e-14
2.77201e-14
3.54763e-14
2.53262e-14
3.35579e-14
2.31492e-14
3.16852e-14
2.11943e-14
2.98802e-14
1.94467e-14
2.81548e-14
1.78851e-14
2.65145e-14
1.64872e-14
2.49609e-14
1.52322e-14
2.34932e-14
1.41013e-14
2.2109e-14
1.30785e-14
2.08051e-14
1.215e-14
1.95778e-14
1.1304e-14
1.84232e-14
1.05304e-14
1.73375e-14
9.82092e-15
1.63168e-14
9.16819e-15
1.53574e-14
8.56609e-15
1.44556e-14
8.00934e-15
1.36082e-14
7.4934e-15
1.28118e-14
7.01432e-15
1.20635e-14
6.56869e-15
1.13602e-14
6.15351e-15
1.06993e-14
5.76615e-15
1.00782e-14
5.40429e-15
9.49449e-15
5.06585e-15
8.94578e-15
4.74899e-15
8.42989e-15
4.45205e-15
7.94474e-15
4.17355e-15
7.48855e-15
3.91742e-15
7.05921e-15
3.68608e-15
6.65497e-15
3.46938e-15
6.27419e-15
3.26638e-15
5.91536e-15
3.0762e-15
5.57704e-15
2.89804e-15
5.25792e-15
2.73119e-15
4.95675e-15
2.57495e-15
4.67239e-15
2.42869e-15
4.40374e-15
2.29182e-15
4.14981e-15
2.16379e-15
3.90964e-15
2.04406e-15
3.68233e-15
1.93214e-15
3.46707e-15
1.82757e-15
3.26307e-15
1.72993e-15
3.0696e-15
1.63878e-15
2.88596e-15
1.55376e-15
2.7115e-15
1.47451e-15
2.54563e-15
1.40067e-15
2.38775e-15
1.33195e-15
2.23733e-15
1.26803e-15
2.09385e-15
1.20866e-15
1.95683e-15
1.15355e-15
1.82581e-15
1.10248e-15
1.70034e-15
1.05523e-15
1.58002e-15
1.01157e-15
1.46446e-15
9.71324e-16
1.35327e-15
9.34307e-16
1.2461e-15
9.00353e-16
1.14262e-15
8.69311e-16
1.04249e-15
8.41042e-16
9.45404e-16
8.15416e-16
8.51068e-16
7.92319e-16
7.59194e-16
7.71645e-16
6.69504e-16
7.53299e-16
5.81733e-16
7.37199e-16
4.95623e-16
7.2327e-16
4.10922e-16
7.11448e-16
3.27385e-16
7.01679e-16
2.44774e-16
6.93917e-16
1.62852e-16
6.88127e-16
8.13871e-17
6.84282e-16
6.82365e-16
-2.09735e-08
2.10147e-07
-2.90456e-08
1.44391e-07
-3.13901e-08
5.425e-08
-2.32796e-08
-2.79293e-08
-2.12765e-08
-1.09369e-07
-1.27572e-08
-1.15517e-07
-3.42416e-09
-1.1232e-07
-8.5949e-12
-4.14014e-08
7.68145e-14
2.26989e-11
5.03743e-14
4.86984e-14
4.34429e-14
4.07601e-14
4.06762e-14
3.74766e-14
3.87838e-14
3.47355e-14
3.7046e-14
3.20628e-14
3.53153e-14
2.94998e-14
3.35796e-14
2.71082e-14
3.18565e-14
2.49156e-14
3.01663e-14
2.29247e-14
2.85248e-14
2.11251e-14
2.69433e-14
1.95005e-14
2.54285e-14
1.80329e-14
2.3984e-14
1.67048e-14
2.26112e-14
1.54998e-14
2.13096e-14
1.44035e-14
2.00779e-14
1.34031e-14
1.89141e-14
1.24875e-14
1.78155e-14
1.16472e-14
1.67794e-14
1.08738e-14
1.58029e-14
1.01602e-14
1.4883e-14
9.50037e-15
1.40169e-14
8.88888e-15
1.32016e-14
8.32114e-15
1.24344e-14
7.79312e-15
1.17126e-14
7.30127e-15
1.10336e-14
6.8425e-15
1.03949e-14
6.41405e-15
9.79419e-15
6.01349e-15
9.22921e-15
5.63863e-15
8.6978e-15
5.28753e-15
8.19792e-15
4.95843e-15
7.7276e-15
4.64975e-15
7.28522e-15
4.36509e-15
6.86875e-15
4.10726e-15
6.47655e-15
3.86576e-15
6.10704e-15
3.63953e-15
5.75878e-15
3.42761e-15
5.43039e-15
3.22911e-15
5.1206e-15
3.04321e-15
4.82821e-15
2.86916e-15
4.55209e-15
2.70624e-15
4.29121e-15
2.55378e-15
4.04458e-15
2.41118e-15
3.81127e-15
2.27783e-15
3.59043e-15
2.15319e-15
3.38125e-15
2.03675e-15
3.18297e-15
1.92801e-15
2.99487e-15
1.82653e-15
2.8163e-15
1.73187e-15
2.64661e-15
1.64363e-15
2.48522e-15
1.56144e-15
2.33157e-15
1.48494e-15
2.18514e-15
1.4138e-15
2.04542e-15
1.34771e-15
1.91195e-15
1.28639e-15
1.78427e-15
1.22956e-15
1.66197e-15
1.17697e-15
1.54465e-15
1.1284e-15
1.43192e-15
1.08362e-15
1.32343e-15
1.04244e-15
1.21882e-15
1.00467e-15
1.11777e-15
9.70136e-16
1.01997e-15
9.38691e-16
9.25104e-16
9.10188e-16
8.32898e-16
8.84498e-16
7.4307e-16
8.61504e-16
6.55353e-16
8.41101e-16
5.69491e-16
8.23195e-16
4.85232e-16
8.07705e-16
4.02335e-16
7.94558e-16
3.20564e-16
7.83694e-16
2.39685e-16
7.75062e-16
1.59473e-16
7.68624e-16
7.97016e-17
7.64348e-16
7.62215e-16
-2.57248e-08
2.35895e-07
-3.38868e-08
1.52596e-07
-3.98344e-08
6.02346e-08
-4.29867e-08
-2.474e-08
-4.46676e-08
-1.07651e-07
-3.6847e-08
-1.23301e-07
-2.30381e-08
-1.26092e-07
-1.1804e-11
-6.43985e-08
4.29416e-14
2.23777e-11
4.34099e-14
4.84633e-14
4.05729e-14
4.36221e-14
3.82834e-14
3.98183e-14
3.64511e-14
3.66207e-14
3.48098e-14
3.37551e-14
3.32297e-14
3.11282e-14
3.16691e-14
2.87142e-14
3.01235e-14
2.65033e-14
2.86015e-14
2.44855e-14
2.7114e-14
2.26481e-14
2.56705e-14
2.09763e-14
2.42782e-14
1.94547e-14
2.29419e-14
1.80679e-14
2.16644e-14
1.68017e-14
2.04469e-14
1.56433e-14
1.92895e-14
1.45809e-14
1.81915e-14
1.36043e-14
1.71515e-14
1.27045e-14
1.61678e-14
1.18736e-14
1.52382e-14
1.11048e-14
1.43606e-14
1.03919e-14
1.35327e-14
9.72986e-15
1.27521e-14
9.11395e-15
1.20164e-14
8.54015e-15
1.13235e-14
8.00489e-15
1.06709e-14
7.505e-15
1.00565e-14
7.03766e-15
9.47817e-15
6.60036e-15
8.93386e-15
6.19083e-15
8.42159e-15
5.80706e-15
7.93944e-15
5.44721e-15
7.48561e-15
5.10962e-15
7.05861e-15
4.79756e-15
6.65649e-15
4.51428e-15
6.27771e-15
4.24891e-15
5.92078e-15
4.00031e-15
5.58432e-15
3.76743e-15
5.267e-15
3.5493e-15
4.96762e-15
3.34503e-15
4.68501e-15
3.15378e-15
4.4181e-15
2.97476e-15
4.16587e-15
2.80726e-15
3.92738e-15
2.65058e-15
3.70173e-15
2.50408e-15
3.48809e-15
2.36717e-15
3.28568e-15
2.23926e-15
3.09377e-15
2.11983e-15
2.91168e-15
2.00837e-15
2.73874e-15
1.90441e-15
2.57437e-15
1.80752e-15
2.41799e-15
1.71727e-15
2.26905e-15
1.63327e-15
2.12705e-15
1.55517e-15
1.99152e-15
1.48262e-15
1.862e-15
1.41531e-15
1.73805e-15
1.35293e-15
1.61928e-15
1.29522e-15
1.50529e-15
1.24191e-15
1.39573e-15
1.19278e-15
1.29023e-15
1.14759e-15
1.18847e-15
1.10614e-15
1.09013e-15
1.06826e-15
9.94914e-16
1.03376e-15
9.02525e-16
1.00249e-15
8.12688e-16
9.74313e-16
7.25138e-16
9.49091e-16
6.39616e-16
9.26712e-16
5.55876e-16
9.07073e-16
4.73677e-16
8.90082e-16
3.92787e-16
8.75663e-16
3.12977e-16
8.63748e-16
2.34026e-16
8.54282e-16
1.55715e-16
8.4722e-16
7.78271e-17
8.42531e-16
8.40192e-16
-2.56412e-08
2.61561e-07
-4.03588e-08
1.67357e-07
-5.74541e-08
7.73684e-08
-7.55613e-08
-6.59448e-09
-7.71578e-08
-1.06017e-07
-6.12928e-08
-1.39128e-07
-3.45354e-08
-1.52811e-07
-7.58235e-12
-9.88957e-08
3.92246e-14
2.68273e-11
3.91623e-14
4.88706e-14
3.72422e-14
4.55673e-14
3.54875e-14
4.16262e-14
3.3948e-14
3.82132e-14
3.25168e-14
3.52369e-14
3.11242e-14
3.25684e-14
2.97422e-14
3.01404e-14
2.83666e-14
2.79197e-14
2.70034e-14
2.58861e-14
2.56615e-14
2.40239e-14
2.435e-14
2.23187e-14
2.30763e-14
2.07563e-14
2.18459e-14
1.93236e-14
2.06629e-14
1.80078e-14
1.95296e-14
1.67975e-14
1.84475e-14
1.56823e-14
1.74167e-14
1.46528e-14
1.6437e-14
1.37006e-14
1.55075e-14
1.28184e-14
1.46269e-14
1.19997e-14
1.37937e-14
1.12386e-14
1.30061e-14
1.05301e-14
1.22623e-14
9.86969e-15
1.15603e-14
9.25334e-15
1.08982e-14
8.67751e-15
1.0274e-14
8.13904e-15
9.68582e-15
7.63507e-15
9.13172e-15
7.16306e-15
8.60984e-15
6.7207e-15
8.11838e-15
6.30592e-15
7.65559e-15
5.9168e-15
7.21979e-15
5.55165e-15
6.80963e-15
5.21339e-15
6.42326e-15
4.90577e-15
6.05922e-15
4.61754e-15
5.7161e-15
4.3475e-15
5.3926e-15
4.09451e-15
5.08747e-15
3.85754e-15
4.79953e-15
3.63561e-15
4.52768e-15
3.42784e-15
4.27088e-15
3.23336e-15
4.02817e-15
3.0514e-15
3.79862e-15
2.8812e-15
3.58139e-15
2.72208e-15
3.37567e-15
2.57336e-15
3.18071e-15
2.43445e-15
2.99581e-15
2.30475e-15
2.82031e-15
2.18371e-15
2.65358e-15
2.07084e-15
2.49505e-15
1.96564e-15
2.34416e-15
1.86766e-15
2.20041e-15
1.77649e-15
2.06329e-15
1.69171e-15
1.93236e-15
1.61298e-15
1.80718e-15
1.53992e-15
1.68733e-15
1.47224e-15
1.57243e-15
1.40962e-15
1.46211e-15
1.35179e-15
1.35601e-15
1.29848e-15
1.2538e-15
1.24946e-15
1.15517e-15
1.20451e-15
1.05981e-15
1.16342e-15
9.67432e-16
1.126e-15
8.77757e-16
1.09209e-15
7.9052e-16
1.06153e-15
7.05468e-16
1.03418e-15
6.22355e-16
1.00992e-15
5.40943e-16
9.88624e-16
4.61004e-16
9.70203e-16
3.82315e-16
9.5457e-16
3.04657e-16
9.41652e-16
2.2782e-16
9.31389e-16
1.51594e-16
9.23733e-16
7.57714e-17
9.18649e-16
9.16113e-16
-3.21705e-08
2.93755e-07
-5.49503e-08
1.90183e-07
-7.42416e-08
9.66999e-08
-9.6248e-08
1.54515e-08
-8.64252e-08
-1.158e-07
-6.66443e-08
-1.58869e-07
-4.0976e-08
-1.7844e-07
-1.18212e-11
-1.39828e-07
4.66135e-14
2.75111e-11
3.62673e-14
5.94881e-14
3.37902e-14
4.807e-14
3.25013e-14
4.29689e-14
3.13466e-14
3.94209e-14
3.01867e-14
3.64469e-14
2.90059e-14
3.3796e-14
2.78064e-14
3.1383e-14
2.65956e-14
2.91698e-14
2.53832e-14
2.71342e-14
2.41794e-14
2.52601e-14
2.29936e-14
2.35337e-14
2.18337e-14
2.19426e-14
2.07061e-14
2.04749e-14
1.96157e-14
1.91198e-14
1.85658e-14
1.7867e-14
1.75588e-14
1.67074e-14
1.65958e-14
1.56324e-14
1.56774e-14
1.46346e-14
1.48034e-14
1.37069e-14
1.39733e-14
1.28435e-14
1.3186e-14
1.20388e-14
1.24404e-14
1.12879e-14
1.17351e-14
1.05866e-14
1.10685e-14
9.9309e-15
1.0439e-14
9.31738e-15
9.84498e-15
8.74289e-15
9.28468e-15
8.2046e-15
8.75643e-15
7.69996e-15
8.25858e-15
7.22665e-15
7.78948e-15
6.78254e-15
7.34754e-15
6.36572e-15
6.93121e-15
5.97441e-15
6.53926e-15
5.61123e-15
6.16994e-15
5.28044e-15
5.82187e-15
4.97043e-15
5.49375e-15
4.67993e-15
5.18433e-15
4.40775e-15
4.89242e-15
4.15278e-15
4.61691e-15
3.91399e-15
4.35675e-15
3.69042e-15
4.11095e-15
3.48117e-15
3.87858e-15
3.28539e-15
3.65876e-15
3.10227e-15
3.45068e-15
2.93108e-15
3.25358e-15
2.7711e-15
3.06672e-15
2.62167e-15
2.88944e-15
2.48216e-15
2.7211e-15
2.35199e-15
2.56112e-15
2.23061e-15
2.40894e-15
2.11749e-15
2.26403e-15
2.01215e-15
2.1259e-15
1.91413e-15
1.99409e-15
1.823e-15
1.86815e-15
1.73837e-15
1.74769e-15
1.65986e-15
1.63229e-15
1.58713e-15
1.5216e-15
1.51984e-15
1.41525e-15
1.4577e-15
1.31293e-15
1.40043e-15
1.21429e-15
1.34778e-15
1.11906e-15
1.29949e-15
1.02693e-15
1.25536e-15
9.37629e-16
1.21517e-15
8.50898e-16
1.17876e-15
7.66482e-16
1.14594e-15
6.84141e-16
1.11657e-15
6.03639e-16
1.09052e-15
5.24753e-16
1.06765e-15
4.47264e-16
1.04788e-15
3.70961e-16
1.03109e-15
2.95637e-16
1.01722e-15
2.21092e-16
1.0062e-15
1.47125e-16
9.97986e-16
7.35426e-17
9.92529e-16
9.89806e-16
-3.28952e-08
3.26676e-07
-6.39878e-08
2.21324e-07
-8.74135e-08
1.20167e-07
-1.06975e-07
3.50532e-08
-9.48668e-08
-1.27867e-07
-7.71863e-08
-1.76509e-07
-4.46188e-08
-2.10966e-07
4.29669e-10
-1.84844e-07
8.65849e-15
4.69859e-10
2.62463e-14
4.19067e-14
2.93196e-14
4.50524e-14
2.93962e-14
4.29495e-14
2.87466e-14
4.01239e-14
2.78714e-14
3.73717e-14
2.69003e-14
3.48129e-14
2.58768e-14
3.24484e-14
2.48225e-14
3.02621e-14
2.37523e-14
2.82386e-14
2.26785e-14
2.63645e-14
2.16116e-14
2.46281e-14
2.05603e-14
2.30185e-14
1.95315e-14
2.15258e-14
1.8531e-14
2.01403e-14
1.75628e-14
1.88535e-14
1.663e-14
1.7657e-14
1.57346e-14
1.65434e-14
1.48777e-14
1.55059e-14
1.40599e-14
1.45384e-14
1.32812e-14
1.36352e-14
1.25411e-14
1.27912e-14
1.18388e-14
1.20019e-14
1.11734e-14
1.12632e-14
1.05437e-14
1.05714e-14
9.94826e-15
9.92299e-15
9.38583e-15
9.31505e-15
8.85489e-15
8.74476e-15
8.35397e-15
8.20959e-15
7.88159e-15
7.70722e-15
7.43627e-15
7.23554e-15
7.01654e-15
6.7926e-15
6.62099e-15
6.3766e-15
6.24852e-15
5.98981e-15
5.89747e-15
5.63708e-15
5.56655e-15
5.30643e-15
5.25453e-15
4.99652e-15
4.96023e-15
4.70611e-15
4.68255e-15
4.43404e-15
4.42042e-15
4.17923e-15
4.17284e-15
3.94065e-15
3.93888e-15
3.71736e-15
3.71764e-15
3.50844e-15
3.5083e-15
3.31305e-15
3.31008e-15
3.1304e-15
3.12224e-15
2.95972e-15
2.94411e-15
2.80031e-15
2.77503e-15
2.6515e-15
2.61442e-15
2.51267e-15
2.4617e-15
2.38322e-15
2.31635e-15
2.2626e-15
2.17788e-15
2.15028e-15
2.04581e-15
2.04578e-15
1.9197e-15
1.94864e-15
1.79915e-15
1.85844e-15
1.68376e-15
1.77477e-15
1.57315e-15
1.69726e-15
1.46698e-15
1.62557e-15
1.36492e-15
1.55937e-15
1.26664e-15
1.49836e-15
1.17186e-15
1.44227e-15
1.08027e-15
1.39084e-15
9.91611e-16
1.34384e-15
9.05623e-16
1.30105e-15
8.22055e-16
1.26227e-15
7.40671e-16
1.22733e-15
6.6124e-16
1.19606e-15
5.83544e-16
1.16832e-15
5.07369e-16
1.14398e-15
4.32512e-16
1.12292e-15
3.58771e-16
1.10505e-15
2.85954e-16
1.09029e-15
2.13868e-16
1.07856e-15
1.42328e-16
1.06981e-15
7.11499e-17
1.064e-15
1.06111e-15
-2.00375e-08
3.46741e-07
-3.81804e-08
2.39517e-07
-6.73581e-08
1.49387e-07
-9.91919e-08
6.69287e-08
-8.69768e-08
-1.40041e-07
-5.94335e-08
-2.0401e-07
-3.05641e-08
-2.39793e-07
-1.34721e-10
-2.1524e-07
-1.63745e-13
3.49044e-10
2.90252e-14
5.10681e-14
2.74833e-14
4.66217e-14
2.69251e-14
4.35639e-14
2.63408e-14
4.07613e-14
2.56366e-14
3.8125e-14
2.48369e-14
3.56575e-14
2.39705e-14
3.33554e-14
2.30596e-14
3.12095e-14
2.2121e-14
2.92097e-14
2.11685e-14
2.7346e-14
2.02132e-14
2.56091e-14
1.92645e-14
2.39901e-14
1.83301e-14
2.24806e-14
1.74161e-14
2.10728e-14
1.65273e-14
1.9759e-14
1.56672e-14
1.85324e-14
1.48385e-14
1.73864e-14
1.40429e-14
1.6315e-14
1.32815e-14
1.53126e-14
1.25546e-14
1.43742e-14
1.18624e-14
1.34952e-14
1.12043e-14
1.26712e-14
1.05799e-14
1.18985e-14
9.98818e-15
1.11735e-14
9.42812e-15
1.04931e-14
8.89857e-15
9.85423e-15
8.3983e-15
9.25423e-15
7.92602e-15
8.69063e-15
7.4804e-15
8.16113e-15
7.06013e-15
7.66364e-15
6.66387e-15
7.1962e-15
6.29032e-15
6.75699e-15
5.93851e-15
6.34796e-15
5.60686e-15
5.97457e-15
5.29417e-15
5.62445e-15
4.99928e-15
5.29622e-15
4.72111e-15
4.98861e-15
4.45859e-15
4.7004e-15
4.21073e-15
4.43045e-15
3.97658e-15
4.1777e-15
3.75526e-15
3.94114e-15
3.54591e-15
3.71982e-15
3.34776e-15
3.51284e-15
3.16007e-15
3.31937e-15
2.98214e-15
3.1386e-15
2.81332e-15
2.96978e-15
2.65301e-15
2.81221e-15
2.50064e-15
2.66522e-15
2.35568e-15
2.52817e-15
2.21764e-15
2.40049e-15
2.08603e-15
2.28162e-15
1.96043e-15
2.17103e-15
1.84042e-15
2.06825e-15
1.72561e-15
1.97282e-15
1.61564e-15
1.88431e-15
1.51014e-15
1.80232e-15
1.4088e-15
1.7265e-15
1.3113e-15
1.65649e-15
1.21735e-15
1.59198e-15
1.12665e-15
1.53268e-15
1.03896e-15
1.47831e-15
9.54001e-16
1.42863e-15
8.71541e-16
1.3834e-15
7.91344e-16
1.34242e-15
7.13188e-16
1.30549e-15
6.36859e-16
1.27244e-15
5.6215e-16
1.24313e-15
4.88864e-16
1.21741e-15
4.16808e-16
1.19517e-15
3.45796e-16
1.17629e-15
2.75645e-16
1.16069e-15
2.06179e-16
1.1483e-15
1.37223e-16
1.13906e-15
6.86031e-17
1.13292e-15
1.12986e-15
-2.96369e-08
3.76406e-07
-4.55096e-08
2.55441e-07
-5.44327e-08
1.58355e-07
-6.06343e-08
7.31743e-08
-6.13459e-08
-1.39285e-07
-4.56239e-08
-2.19689e-07
-1.86666e-08
-2.66707e-07
3.60379e-11
-2.33908e-07
-1.80833e-13
4.00014e-10
2.51239e-14
5.07155e-14
2.4805e-14
4.6967e-14
2.44729e-14
4.39536e-14
2.40361e-14
4.12511e-14
2.34813e-14
3.87283e-14
2.28278e-14
3.63551e-14
2.20994e-14
3.41232e-14
2.13172e-14
3.20267e-14
2.04986e-14
3.00593e-14
1.96577e-14
2.82142e-14
1.88062e-14
2.64845e-14
1.79539e-14
2.48635e-14
1.71088e-14
2.33444e-14
1.62775e-14
2.19208e-14
1.54652e-14
2.05866e-14
1.46758e-14
1.93358e-14
1.39125e-14
1.81628e-14
1.31775e-14
1.70624e-14
1.2472e-14
1.60299e-14
1.17972e-14
1.50605e-14
1.11532e-14
1.41502e-14
1.054e-14
1.32951e-14
9.95732e-15
1.24916e-14
9.40453e-15
1.17365e-14
8.88081e-15
1.10267e-14
8.38524e-15
1.03593e-14
7.91676e-15
9.73189e-15
7.47425e-15
9.14193e-15
7.05656e-15
8.58723e-15
6.66248e-15
8.06569e-15
6.29083e-15
7.57538e-15
5.9404e-15
7.11448e-15
5.61033e-15
6.68461e-15
5.29913e-15
6.29186e-15
5.00569e-15
5.92349e-15
4.72892e-15
5.57809e-15
4.4678e-15
5.25433e-15
4.22133e-15
4.95097e-15
3.98859e-15
4.66682e-15
3.76867e-15
4.40076e-15
3.56074e-15
4.15176e-15
3.364e-15
3.91881e-15
3.17772e-15
3.70098e-15
3.00119e-15
3.49737e-15
2.83376e-15
3.30715e-15
2.67483e-15
3.12953e-15