/*--------------------------------*- C++ -*----------------------------------*\
  =========                 |
  \\      /  F ield         | OpenFOAM: The Open Source CFD Toolbox
   \\    /   O peration     | Website:  https://openfoam.org
    \\  /    A nd           | Version:  6
     \\/     M anipulation  |
\*---------------------------------------------------------------------------*/
FoamFile
{
    version     2.0;
    format      ascii;
    class       volScalarField;
    location    "120";
    object      Su;
}
// * * * * * * * * * * * * * * * * * * * * * * * * * * * * * * * * * * * * * //

dimensions      [0 0 -1 0 0 0 0];

internalField   nonuniform List<scalar> 
5964
(
0.35032
0.287381
0.233902
0.191776
0.158424
0.13067
0.10617
0.0828263
0.0440015
0.060522
0.061341
0.0614256
0.0609833
0.060083
0.0587858
0.057154
0.0552474
0.0531221
0.0508295
0.0484159
0.0459226
0.0433845
0.0408307
0.038284
0.0357615
0.0332752
0.0308326
0.0284377
0.0260919
0.0237944
0.0215434
0.0193363
0.0171702
0.0150424
0.0129503
0.0108919
0.00886545
0.00686982
0.00490425
0.00296843
0.00106238
-0.000813613
-0.00265898
-0.004473
-0.00625484
-0.00800356
-0.00971815
-0.0113976
-0.0130409
-0.0146471
-0.0162152
-0.0177443
-0.0192334
-0.0206818
-0.0220887
-0.0234534
-0.0247753
-0.0260536
-0.0272879
-0.0284778
-0.0296226
-0.030722
-0.0317756
-0.0327831
-0.0337442
-0.0346586
-0.035526
-0.0363462
-0.0371191
-0.0378444
-0.0385219
-0.0391516
-0.0397333
-0.0402668
-0.0407522
-0.0411892
-0.0415779
-0.041918
-0.0422097
-0.0424528
-0.0426473
-0.0427931
-0.0428903
-0.0429389
0.3498
0.287721
0.236054
0.19459
0.161216
0.133296
0.108492
0.0855075
0.0659078
0.0624425
0.0620563
0.0618505
0.0612805
0.0602913
0.0589264
0.0572446
0.0553027
0.0531535
0.0508453
0.0484224
0.0459238
0.0433833
0.0408288
0.0382826
0.0357612
0.0332762
0.0308349
0.0284413
0.0260965
0.0237998
0.0215493
0.0193425
0.0171766
0.0150488
0.0129565
0.0108979
0.0088711
0.0068751
0.00490915
0.00297294
0.00106649
-0.000809887
-0.00265562
-0.00446999
-0.00625216
-0.00800117
-0.00971604
-0.0113958
-0.0130393
-0.0146457
-0.016214
-0.0177432
-0.0192325
-0.020681
-0.0220881
-0.0234529
-0.0247748
-0.0260533
-0.0272877
-0.0284776
-0.0296224
-0.0307219
-0.0317756
-0.0327832
-0.0337443
-0.0346587
-0.0355261
-0.0363464
-0.0371193
-0.0378446
-0.0385222
-0.0391519
-0.0397336
-0.0402672
-0.0407525
-0.0411896
-0.0415782
-0.0419184
-0.0422101
-0.0424532
-0.0426476
-0.0427935
-0.0428907
-0.0429392
0.351016
0.290758
0.240019
0.198714
0.165278
0.137099
0.111582
0.0863269
0.0464766
0.0618641
0.0626765
0.0625524
0.0618378
0.0606871
0.0591909
0.0574126
0.0554035
0.0532094
0.0508725
0.0484323
0.0459243
0.0433798
0.0408247
0.0382799
0.0357609
0.0332787
0.0308402
0.028449
0.0261062
0.023811
0.0215616
0.0193555
0.0171897
0.0150618
0.0129693
0.0109101
0.00888268
0.00688595
0.00491923
0.00298222
0.00107499
-0.000802149
-0.00264861
-0.00446367
-0.00624647
-0.00799608
-0.0097115
-0.0113917
-0.0130357
-0.0146425
-0.0162111
-0.0177407
-0.0192303
-0.0206791
-0.0220864
-0.0234514
-0.0247735
-0.0260521
-0.0272867
-0.0284767
-0.0296217
-0.0307213
-0.0317751
-0.0327828
-0.033744
-0.0346585
-0.035526
-0.0363463
-0.0371193
-0.0378446
-0.0385223
-0.039152
-0.0397337
-0.0402674
-0.0407527
-0.0411898
-0.0415785
-0.0419187
-0.0422104
-0.0424535
-0.042648
-0.0427938
-0.042891
-0.0429395
0.352529
0.294326
0.244447
0.20344
0.170046
0.141711
0.11575
0.0892898
0.0470307
0.0633581
0.0641713
0.0637222
0.0626656
0.0612428
0.0595495
0.0576344
0.0555331
0.0532784
0.0509036
0.0484411
0.0459216
0.0433727
0.0408176
0.0382754
0.0357604
0.0332826
0.0308483
0.0284608
0.026121
0.0238281
0.0215803
0.019375
0.0172096
0.0150815
0.0129884
0.0109285
0.0089001
0.00690228
0.0049344
0.00299622
0.00108781
-0.00079046
-0.002638
-0.00445408
-0.00623784
-0.00798832
-0.00970454
-0.0113855
-0.0130302
-0.0146376
-0.0162067
-0.0177368
-0.0192268
-0.020676
-0.0220836
-0.023449
-0.0247714
-0.0260503
-0.0272851
-0.0284753
-0.0296205
-0.0307203
-0.0317742
-0.032782
-0.0337433
-0.0346579
-0.0355256
-0.036346
-0.037119
-0.0378444
-0.0385221
-0.039152
-0.0397338
-0.0402674
-0.0407529
-0.04119
-0.0415787
-0.0419189
-0.0422106
-0.0424537
-0.0426482
-0.0427941
-0.0428912
-0.0429397
0.353977
0.297571
0.248197
0.207361
0.174139
0.145935
0.120257
0.0944926
0.050797
0.0675764
0.0668031
0.0653606
0.0636954
0.0618901
0.0599502
0.0578739
0.0556672
0.0533452
0.0509289
0.0484429
0.0459121
0.0433598
0.0408065
0.0382688
0.0357596
0.0332879
0.0308593
0.0284768
0.026141
0.023851
0.0216051
0.019401
0.0172359
0.0151076
0.0130139
0.0109529
0.0089232
0.00692394
0.00495452
0.00301478
0.00110483
-0.000774933
-0.0026239
-0.00444132
-0.00622632
-0.00797795
-0.00969523
-0.0113771
-0.0130227
-0.0146309
-0.0162008
-0.0177314
-0.0192221
-0.0206718
-0.0220799
-0.0234456
-0.0247684
-0.0260476
-0.0272827
-0.0284732
-0.0296187
-0.0307187
-0.0317728
-0.0327808
-0.0337423
-0.0346571
-0.0355248
-0.0363454
-0.0371185
-0.0378441
-0.0385218
-0.0391517
-0.0397336
-0.0402674
-0.0407528
-0.04119
-0.0415788
-0.041919
-0.0422108
-0.0424539
-0.0426485
-0.0427943
-0.0428915
-0.0429399
0.355064
0.300211
0.251496
0.21095
0.177667
0.149295
0.124185
0.101286
0.0822098
0.0742445
0.0700097
0.0671058
0.0647167
0.0625056
0.0603187
0.0580853
0.0557777
0.0533919
0.0509375
0.0484311
0.0458919
0.0433392
0.0407902
0.0382595
0.0357584
0.0332947
0.0308733
0.0284969
0.026166
0.0238797
0.0216362
0.0194333
0.0172687
0.0151401
0.0130454
0.0109831
0.00895178
0.00695071
0.00497941
0.00303774
0.00112589
-0.000755715
-0.00260643
-0.0044255
-0.00621203
-0.00796508
-0.00968366
-0.0113668
-0.0130134
-0.0146225
-0.0161933
-0.0177248
-0.0192161
-0.0206665
-0.0220751
-0.0234414
-0.0247646
-0.0260443
-0.0272798
-0.0284706
-0.0296164
-0.0307166
-0.031771
-0.0327792
-0.0337409
-0.0346559
-0.0355238
-0.0363445
-0.0371178
-0.0378435
-0.0385214
-0.0391514
-0.0397333
-0.0402672
-0.0407527
-0.04119
-0.0415788
-0.0419191
-0.0422109
-0.0424541
-0.0426486
-0.0427945
-0.0428917
-0.0429401
0.35495
0.300646
0.252959
0.212935
0.17967
0.151225
0.126193
0.10438
0.0876469
0.0776374
0.0719768
0.0682787
0.0654348
0.0629444
0.0605764
0.0582231
0.0558369
0.0534018
0.0509192
0.0483996
0.0458576
0.0433089
0.040768
0.0382473
0.0357566
0.0333029
0.0308904
0.0285213
0.0261961
0.0239139
0.0216732
0.0194718
0.0173076
0.0151785
0.0130827
0.0110188
0.00898557
0.00698237
0.00500881
0.00306487
0.00115078
-0.000732987
-0.00258577
-0.00440677
-0.00619511
-0.00794982
-0.00966992
-0.0113544
-0.0130023
-0.0146126
-0.0161844
-0.0177168
-0.0192089
-0.0206601
-0.0220694
-0.0234363
-0.0247601
-0.0260402
-0.0272761
-0.0284674
-0.0296135
-0.0307141
-0.0317688
-0.0327773
-0.0337392
-0.0346544
-0.0355225
-0.0363434
-0.0371169
-0.0378427
-0.0385207
-0.0391509
-0.0397329
-0.0402669
-0.0407525
-0.0411898
-0.0415787
-0.0419191
-0.0422109
-0.0424542
-0.0426487
-0.0427946
-0.0428918
-0.0429403
0.354958
0.300909
0.253564
0.213517
0.179718
0.150663
0.125217
0.103136
0.0856812
0.077117
0.0720913
0.0685486
0.0656798
0.0631146
0.0606704
0.0582552
0.0558249
0.0533625
0.0508664
0.048344
0.0458069
0.0432678
0.0407394
0.0382321
0.0357545
0.0333128
0.0309106
0.02855
0.0262313
0.0239538
0.021716
0.0195161
0.0173523
0.0152226
0.0131255
0.0110597
0.00902426
0.00701859
0.00504247
0.00309593
0.00117928
-0.000706962
-0.00256209
-0.0043853
-0.00617569
-0.0079323
-0.00965414
-0.0113402
-0.0129895
-0.0146011
-0.0161741
-0.0177076
-0.0192007
-0.0206527
-0.0220628
-0.0234304
-0.0247548
-0.0260355
-0.0272719
-0.0284636
-0.0296102
-0.0307111
-0.0317662
-0.0327749
-0.0337372
-0.0346526
-0.035521
-0.0363421
-0.0371157
-0.0378417
-0.0385199
-0.0391502
-0.0397324
-0.0402665
-0.0407522
-0.0411896
-0.0415786
-0.0419191
-0.042211
-0.0424542
-0.0426488
-0.0427948
-0.042892
-0.0429405
0.354995
0.300912
0.253144
0.212215
0.17734
0.147743
0.121939
0.0983369
0.0381852
0.0733146
0.0707265
0.0680468
0.0654825
0.0630138
0.0605898
0.0581708
0.0557334
0.0532681
0.0507755
0.0482623
0.0457386
0.0432157
0.0407044
0.0382142
0.0357524
0.0333246
0.0309342
0.028583
0.0262715
0.023999
0.0217644
0.0195661
0.0174025
0.0152721
0.0131734
0.0111055
0.0090675
0.00705907
0.00508006
0.00313061
0.00121111
-0.00067788
-0.00253562
-0.00436129
-0.00615396
-0.00791268
-0.00963645
-0.0113243
-0.0129752
-0.0145883
-0.0161626
-0.0176972
-0.0191914
-0.0206443
-0.0220553
-0.0234237
-0.0247488
-0.0260301
-0.0272671
-0.0284593
-0.0296063
-0.0307077
-0.0317631
-0.0327723
-0.0337348
-0.0346505
-0.0355192
-0.0363405
-0.0371144
-0.0378406
-0.038519
-0.0391494
-0.0397318
-0.040266
-0.0407519
-0.0411894
-0.0415784
-0.041919
-0.0422109
-0.0424543
-0.0426489
-0.0427949
-0.0428921
-0.0429406
0.354756
0.300066
0.251294
0.209131
0.173504
0.143879
0.11826
0.0944903
0.0356171
0.0705147
0.0692356
0.0672478
0.0650191
0.0627088
0.0603599
0.0579792
0.0555656
0.05312
0.0506471
0.048155
0.0456536
0.0431533
0.040664
0.0381942
0.0357507
0.0333387
0.0309613
0.0286204
0.0263165
0.0240494
0.0218181
0.0196214
0.0174579
0.0153265
0.013226
0.0111557
0.00911489
0.00710341
0.00512123
0.00316861
0.00124599
-0.000646005
-0.0025066
-0.00433494
-0.0061301
-0.00789111
-0.00961699
-0.0113067
-0.0129594
-0.0145741
-0.0161498
-0.0176857
-0.0191811
-0.0206351
-0.022047
-0.0234162
-0.0247421
-0.0260241
-0.0272618
-0.0284545
-0.0296021
-0.0307039
-0.0317598
-0.0327693
-0.0337322
-0.0346482
-0.0355172
-0.0363388
-0.0371129
-0.0378393
-0.0385179
-0.0391486
-0.0397311
-0.0402654
-0.0407514
-0.0411891
-0.0415782
-0.0419189
-0.0422109
-0.0424543
-0.042649
-0.042795
-0.0428923
-0.0429408
0.354333
0.298511
0.248374
0.205262
0.169773
0.140903
0.116005
0.0926314
0.0350314
0.0690955
0.0681528
0.0664626
0.0644479
0.0622785
0.060021
0.0577017
0.0553334
0.052925
0.0504858
0.0480254
0.0455542
0.0430824
0.0406194
0.0381732
0.0357503
0.0333555
0.0309922
0.0286622
0.0263664
0.0241047
0.0218767
0.0196814
0.017518
0.0153854
0.0132829
0.0112098
0.00916599
0.0071512
0.0051656
0.00320956
0.00128359
-0.000611628
-0.00247528
-0.00430649
-0.00610431
-0.00786778
-0.00959592
-0.0112877
-0.0129423
-0.0145586
-0.0161359
-0.0176732
-0.0191698
-0.020625
-0.0220379
-0.0234081
-0.0247348
-0.0260176
-0.0272559
-0.0284493
-0.0295974
-0.0306997
-0.031756
-0.032766
-0.0337293
-0.0346457
-0.0355149
-0.0363369
-0.0371112
-0.0378379
-0.0385167
-0.0391476
-0.0397303
-0.0402648
-0.040751
-0.0411887
-0.041578
-0.0419187
-0.0422109
-0.0424543
-0.0426491
-0.0427951
-0.0428924
-0.0429409
0.353654
0.296468
0.245522
0.202665
0.168342
0.140363
0.11587
0.0929242
0.0363519
0.0689658
0.0675308
0.065779
0.063846
0.0617798
0.0596115
0.0573638
0.0550535
0.0526946
0.0502991
0.0478786
0.0454441
0.0430056
0.0405725
0.0381524
0.0357518
0.0333756
0.031027
0.0287083
0.0264208
0.0241646
0.0219398
0.0197459
0.0175822
0.0154482
0.0133434
0.0112675
0.00922034
0.007202
0.00521277
0.00325309
0.00132357
-0.000575056
-0.00244194
-0.00427617
-0.00607682
-0.00784289
-0.00957341
-0.0112674
-0.012924
-0.0145421
-0.016121
-0.0176598
-0.0191577
-0.0206141
-0.0220281
-0.0233993
-0.0247269
-0.0260105
-0.0272495
-0.0284436
-0.0295923
-0.0306952
-0.031752
-0.0327624
-0.0337261
-0.0346429
-0.0355125
-0.0363348
-0.0371094
-0.0378364
-0.0385155
-0.0391465
-0.0397294
-0.0402641
-0.0407504
-0.0411884
-0.0415778
-0.0419186
-0.0422108
-0.0424544
-0.0426492
-0.0427953
-0.0428926
-0.0429411
0.353286
0.295502
0.244625
0.202841
0.170094
0.142783
0.118009
0.0948427
0.075545
0.0696461
0.0670317
0.0650995
0.063218
0.0612448
0.0591646
0.0569918
0.0547455
0.0524423
0.0500968
0.0477215
0.045328
0.0429263
0.0405256
0.0381335
0.0357564
0.0333994
0.031066
0.0287588
0.0264795
0.0242288
0.022007
0.0198142
0.01765
0.0155144
0.0134071
0.0113281
0.00927742
0.00725534
0.00526228
0.00329879
0.00136557
-0.000536616
-0.00240687
-0.00424426
-0.00604784
-0.00781663
-0.00954964
-0.0112459
-0.0129045
-0.0145246
-0.0161052
-0.0176456
-0.0191449
-0.0206025
-0.0220177
-0.0233899
-0.0247184
-0.0260029
-0.0272427
-0.0284375
-0.0295868
-0.0306903
-0.0317477
-0.0327586
-0.0337228
-0.0346399
-0.0355099
-0.0363325
-0.0371075
-0.0378347
-0.0385141
-0.0391454
-0.0397285
-0.0402634
-0.0407499
-0.041188
-0.0415775
-0.0419185
-0.0422108
-0.0424544
-0.0426493
-0.0427955
-0.0428928
-0.0429414
0.35358
0.296655
0.246987
0.20675
0.175713
0.148516
0.122094
0.0951613
0.0516593
0.0673739
0.0658258
0.0642546
0.0625554
0.0607028
0.058713
0.0566135
0.0544302
0.0521835
0.0498896
0.0475618
0.0452113
0.0428481
0.0404811
0.0381179
0.0357649
0.0334274
0.0311092
0.0288135
0.0265422
0.0242967
0.0220777
0.0198857
0.0177209
0.0155834
0.0134734
0.0113911
0.00933669
0.00731072
0.00531369
0.00334626
0.00140921
-0.000496646
-0.00237037
-0.00421102
-0.00601763
-0.00778922
-0.0095248
-0.0112234
-0.0128842
-0.0145062
-0.0160886
-0.0176306
-0.0191314
-0.0205903
-0.0220067
-0.0233799
-0.0247095
-0.0259948
-0.0272355
-0.028431
-0.029581
-0.0306852
-0.0317431
-0.0327545
-0.0337192
-0.0346368
-0.0355072
-0.0363301
-0.0371055
-0.037833
-0.0385126
-0.0391442
-0.0397276
-0.0402627
-0.0407494
-0.0411876
-0.0415773
-0.0419184
-0.0422108
-0.0424546
-0.0426495
-0.0427957
-0.0428931
-0.0429417
0.353897
0.298277
0.251047
0.213533
0.184172
0.156319
0.127557
0.0966075
0.0500348
0.0650229
0.0645601
0.0634261
0.0619381
0.0602055
0.0582954
0.0562579
0.054129
0.0519336
0.0496887
0.0474072
0.0450995
0.0427748
0.0404417
0.0381073
0.0357783
0.03346
0.0311568
0.0288722
0.0266086
0.0243679
0.0221513
0.0199599
0.0177941
0.0156545
0.0135416
0.0114558
0.00939761
0.00736762
0.00536652
0.00339507
0.0014541
-0.000455495
-0.00233276
-0.00417673
-0.00598642
-0.00776086
-0.00949907
-0.0112001
-0.0128631
-0.0144871
-0.0160713
-0.0176149
-0.0191172
-0.0205775
-0.0219952
-0.0233695
-0.0247001
-0.0259864
-0.0272279
-0.0284242
-0.0295749
-0.0306797
-0.0317382
-0.0327502
-0.0337154
-0.0346335
-0.0355043
-0.0363276
-0.0371033
-0.0378312
-0.0385111
-0.039143
-0.0397266
-0.0402619
-0.0407488
-0.0411873
-0.0415771
-0.0419184
-0.0422109
-0.0424547
-0.0426498
-0.042796
-0.0428934
-0.042942
0.354832
0.301601
0.257352
0.222317
0.193649
0.16464
0.133397
0.0994522
0.0323516
0.0643214
0.0637851
0.0628154
0.0614615
0.0598105
0.057951
0.0559528
0.0538622
0.0517073
0.0495046
0.0472652
0.0449977
0.0427101
0.0404096
0.0381032
0.0357974
0.0334976
0.0312087
0.0289345
0.026678
0.0244417
0.0222272
0.020036
0.017869
0.0157271
0.0136111
0.0115217
0.0094596
0.00742552
0.00542029
0.00344477
0.00149985
-0.000413518
-0.00229435
-0.00414167
-0.00595447
-0.00773179
-0.00947265
-0.0111761
-0.0128413
-0.0144673
-0.0160534
-0.0175987
-0.0191026
-0.0205643
-0.0219832
-0.0233587
-0.0246904
-0.0259776
-0.02722
-0.0284171
-0.0295686
-0.030674
-0.0317332
-0.0327457
-0.0337114
-0.03463
-0.0355013
-0.036325
-0.0371011
-0.0378294
-0.0385096
-0.0391417
-0.0397256
-0.0402612
-0.0407483
-0.0411869
-0.041577
-0.0419184
-0.042211
-0.042455
-0.0426501
-0.0427964
-0.0428939
-0.0429425
0.356541
0.306634
0.265
0.231344
0.202282
0.171862
0.138267
0.101528
0.0542126
0.0637144
0.0632492
0.0624333
0.0611754
0.0595613
0.0577118
0.055721
0.053646
0.0515163
0.0493458
0.0471421
0.0449106
0.0426569
0.0403869
0.0381068
0.0358227
0.0335403
0.0312647
0.0290001
0.0267501
0.0245175
0.0223046
0.0201133
0.0179448
0.0158005
0.0136813
0.0115882
0.00952208
0.00748388
0.00547451
0.00349491
0.00154606
-0.000371072
-0.00225546
-0.00410611
-0.00592202
-0.00770222
-0.00944573
-0.0111516
-0.0128191
-0.0144471
-0.0160351
-0.0175821
-0.0190875
-0.0205506
-0.0219708
-0.0233475
-0.0246803
-0.0259685
-0.0272118
-0.0284098
-0.029562
-0.0306682
-0.031728
-0.0327411
-0.0337073
-0.0346264
-0.0354982
-0.0363224
-0.0370989
-0.0378275
-0.038508
-0.0391405
-0.0397247
-0.0402605
-0.0407479
-0.0411867
-0.0415769
-0.0419185
-0.0422113
-0.0424553
-0.0426505
-0.0427969
-0.0428944
-0.0429431
0.358216
0.311272
0.271826
0.239295
0.209696
0.178002
0.142395
0.103028
0.0321661
0.0629067
0.0628529
0.0623117
0.0611298
0.0594944
0.0576008
0.0555774
0.0534908
0.0513684
0.0492185
0.0470426
0.0448416
0.0426179
0.0403753
0.038119
0.0358547
0.0335881
0.0313244
0.0290684
0.026824
0.0245946
0.0223829
0.020191
0.0180209
0.0158739
0.0137514
0.0116545
0.00958446
0.00754216
0.00552869
0.00354507
0.00159233
-0.000328514
-0.00221641
-0.00407035
-0.00588933
-0.00767237
-0.00941851
-0.0111268
-0.0127965
-0.0144266
-0.0160164
-0.0175651
-0.0190721
-0.0205366
-0.0219581
-0.0233361
-0.0246699
-0.0259591
-0.0272034
-0.0284022
-0.0295552
-0.0306621
-0.0317226
-0.0327363
-0.0337031
-0.0346228
-0.035495
-0.0363197
-0.0370966
-0.0378256
-0.0385065
-0.0391393
-0.0397238
-0.0402599
-0.0407475
-0.0411865
-0.0415769
-0.0419186
-0.0422116
-0.0424558
-0.0426511
-0.0427976
-0.0428951
-0.0429438
0.359635
0.315207
0.277428
0.245399
0.215055
0.182467
0.145878
0.103742
0.0479034
0.0610751
0.062739
0.0626262
0.0614153
0.0596453
0.0576297
0.0555261
0.0533992
0.0512665
0.0491255
0.0469694
0.0447929
0.0425945
0.0403757
0.0381404
0.0358935
0.0336408
0.0313875
0.0291389
0.0268992
0.0246722
0.0224611
0.0202684
0.0180963
0.0159466
0.0138207
0.0117202
0.00964615
0.00759983
0.00558235
0.0035948
0.00163826
-0.000286195
-0.00217751
-0.00403466
-0.00585664
-0.00764246
-0.00939117
-0.0111019
-0.0127737
-0.0144058
-0.0159975
-0.0175479
-0.0190564
-0.0205224
-0.0219452
-0.0233244
-0.0246593
-0.0259496
-0.0271947
-0.0283944
-0.0295482
-0.0306559
-0.031717
-0.0327315
-0.0336989
-0.034619
-0.0354918
-0.0363169
-0.0370943
-0.0378237
-0.038505
-0.0391381
-0.0397229
-0.0402593
-0.0407472
-0.0411864
-0.0415771
-0.041919
-0.0422121
-0.0424564
-0.0426518
-0.0427983
-0.0428959
-0.0429446
0.360931
0.318661
0.282042
0.250027
0.21903
0.186214
0.149786
0.106287
0.0253596
0.0604979
0.0641587
0.0638169
0.0621472
0.0600266
0.0577876
0.0555558
0.0533645
0.0512076
0.0490663
0.046923
0.0447655
0.0425878
0.0403889
0.0381712
0.0359391
0.033698
0.0314535
0.0292109
0.0269748
0.0247496
0.0225386
0.0203447
0.0181705
0.0160179
0.0138887
0.0117844
0.00970658
0.00765636
0.005635
0.00364366
0.00168348
-0.000244459
-0.00213907
-0.00399932
-0.00582419
-0.0076127
-0.00936391
-0.0110769
-0.0127509
-0.014385
-0.0159784
-0.0175305
-0.0190406
-0.020508
-0.0219321
-0.0233125
-0.0246485
-0.0259398
-0.0271859
-0.0283865
-0.0295411
-0.0306495
-0.0317114
-0.0327265
-0.0336945
-0.0346153
-0.0354885
-0.0363142
-0.037092
-0.0378218
-0.0385035
-0.039137
-0.0397221
-0.0402588
-0.040747
-0.0411865
-0.0415773
-0.0419194
-0.0422127
-0.0424571
-0.0426527
-0.0427993
-0.0428969
-0.0429457
0.362101
0.321679
0.285889
0.253696
0.222329
0.189937
0.155297
0.118049
0.0799174
0.0729897
0.0692191
0.0661407
0.0632695
0.0605615
0.0580215
0.0556359
0.0533708
0.0511843
0.0490381
0.0469028
0.0447594
0.0425979
0.0404148
0.0382113
0.035991
0.0337592
0.0315216
0.0292835
0.0270501
0.0248258
0.0226144
0.0204191
0.0182425
0.016087
0.0139545
0.0118467
0.00976519
0.00771124
0.00568619
0.00369126
0.00172761
-0.00020364
-0.00210139
-0.00396458
-0.00579221
-0.00758329
-0.00933691
-0.0110521
-0.0127282
-0.0143642
-0.0159594
-0.0175131
-0.0190247
-0.0204935
-0.0219189
-0.0233004
-0.0246376
-0.0259299
-0.027177
-0.0283785
-0.029534
-0.0306431
-0.0317057
-0.0327215
-0.0336901
-0.0346115
-0.0354853
-0.0363114
-0.0370897
-0.03782
-0.0385021
-0.039136
-0.0397215
-0.0402585
-0.0407469
-0.0411867
-0.0415778
-0.0419201
-0.0422135
-0.0424581
-0.0426537
-0.0428004
-0.0428981
-0.0429469
0.363236
0.324546
0.289303
0.256647
0.224572
0.191683
0.157609
0.124338
0.0959473
0.0820536
0.0736399
0.068264
0.0642868
0.0610405
0.0582361
0.0557217
0.053397
0.0511871
0.0490365
0.046907
0.044774
0.0426245
0.0404532
0.0382602
0.0360487
0.0338237
0.031591
0.029356
0.0271241
0.0249
0.0226877
0.0204906
0.0183117
0.0161533
0.0140176
0.0119065
0.00982142
0.00776398
0.00573547
0.00373717
0.00177028
-0.000164058
-0.00206474
-0.0039307
-0.00576093
-0.00755445
-0.00931033
-0.0110277
-0.0127057
-0.0143435
-0.0159404
-0.0174957
-0.0190088
-0.0204789
-0.0219056
-0.0232884
-0.0246266
-0.02592
-0.027168
-0.0283704
-0.0295267
-0.0306367
-0.0317
-0.0327164
-0.0336857
-0.0346077
-0.0354821
-0.0363088
-0.0370875
-0.0378183
-0.0385008
-0.0391351
-0.0397209
-0.0402583
-0.040747
-0.0411871
-0.0415784
-0.0419209
-0.0422145
-0.0424592
-0.042655
-0.0428018
-0.0428996
-0.0429484
0.364257
0.327062
0.292192
0.259044
0.226109
0.192355
0.157969
0.125292
0.099456
0.0848748
0.0753375
0.0691799
0.0647518
0.061268
0.0583456
0.0557755
0.0534266
0.0512088
0.0490589
0.0469344
0.0448087
0.0426672
0.0405036
0.0383174
0.0361115
0.0338907
0.0316608
0.0294274
0.027196
0.0249714
0.0227577
0.0205587
0.0183773
0.0162161
0.0140774
0.011963
0.00987477
0.0078141
0.00578242
0.00378103
0.00181117
-0.000126014
-0.0020294
-0.00389792
-0.00573056
-0.00752634
-0.00928435
-0.0110037
-0.0126836
-0.0143231
-0.0159217
-0.0174785
-0.018993
-0.0204644
-0.0218924
-0.0232763
-0.0246156
-0.02591
-0.027159
-0.0283623
-0.0295194
-0.0306302
-0.0316943
-0.0327114
-0.0336814
-0.034604
-0.0354789
-0.0363061
-0.0370854
-0.0378166
-0.0384996
-0.0391343
-0.0397205
-0.0402582
-0.0407473
-0.0411876
-0.0415792
-0.0419219
-0.0422158
-0.0424607
-0.0426566
-0.0428034
-0.0429013
-0.0429501
0.365027
0.328925
0.294257
0.260546
0.226748
0.192044
0.156226
0.121264
0.0934727
0.0817913
0.074043
0.0686455
0.0645263
0.0611778
0.0583216
0.0557864
0.0534562
0.0512487
0.049105
0.0469851
0.0448634
0.0427256
0.0405654
0.0383821
0.0361784
0.0339593
0.0317301
0.0294968
0.0272648
0.0250389
0.0228236
0.0206224
0.0184385
0.0162747
0.0141332
0.0120159
0.00992474
0.00786116
0.00582664
0.00382248
0.00184995
-8.97933e-05
-0.00199562
-0.00386646
-0.0057013
-0.00749916
-0.00925913
-0.0109803
-0.0126619
-0.0143031
-0.0159032
-0.0174615
-0.0189773
-0.0204501
-0.0218792
-0.0232642
-0.0246047
-0.0259001
-0.02715
-0.0283542
-0.0295122
-0.0306237
-0.0316886
-0.0327064
-0.0336771
-0.0346003
-0.0354759
-0.0363036
-0.0370834
-0.0378152
-0.0384986
-0.0391337
-0.0397203
-0.0402584
-0.0407478
-0.0411884
-0.0415803
-0.0419232
-0.0422173
-0.0424623
-0.0426584
-0.0428054
-0.0429033
-0.0429521
0.365581
0.330243
0.295647
0.261416
0.226859
0.19103
0.153334
0.113978
0.0584556
0.0738853
0.0706832
0.0670958
0.0637969
0.0608537
0.0582057
0.0557768
0.0534983
0.0513137
0.0491786
0.0470607
0.0449384
0.0427993
0.0406377
0.0384532
0.0362485
0.0340282
0.0317979
0.0295632
0.0273295
0.0251018
0.0228844
0.020681
0.0184948
0.0163285
0.0141844
0.0120646
0.00997086
0.00790476
0.00586776
0.00386119
0.00188633
-5.56574e-05
-0.00196363
-0.00383653
-0.00567333
-0.00747306
-0.0092348
-0.0109577
-0.0126409
-0.0142836
-0.0158851
-0.0174448
-0.0189619
-0.0204359
-0.0218662
-0.0232523
-0.0245938
-0.0258902
-0.0271411
-0.0283461
-0.029505
-0.0306173
-0.0316829
-0.0327015
-0.0336728
-0.0345967
-0.0354729
-0.0363012
-0.0370816
-0.0378138
-0.0384978
-0.0391333
-0.0397204
-0.0402588
-0.0407485
-0.0411895
-0.0415816
-0.0419248
-0.0422191
-0.0424643
-0.0426605
-0.0428076
-0.0429056
-0.0429545
0.365973
0.331131
0.296494
0.261761
0.226591
0.190181
0.15167
0.110643
0.0384002
0.0688903
0.067693
0.0654295
0.0629418
0.0604721
0.0580864
0.055793
0.0535776
0.051417
0.0492863
0.0471641
0.0450347
0.0428881
0.0407199
0.0385298
0.0363205
0.0340965
0.0318629
0.0296255
0.0273893
0.0251592
0.0229395
0.0207338
0.0185454
0.0163769
0.0142306
0.0121086
0.0100127
0.00794451
0.00590544
0.00389686
0.00192004
-2.3845e-05
-0.00193366
-0.00380832
-0.00564682
-0.00744819
-0.00921151
-0.0109359
-0.0126205
-0.0142646
-0.0158675
-0.0174284
-0.0189467
-0.0204219
-0.0218533
-0.0232405
-0.024583
-0.0258804
-0.0271322
-0.0283381
-0.0294978
-0.030611
-0.0316774
-0.0326967
-0.0336687
-0.0345932
-0.03547
-0.036299
-0.0370799
-0.0378127
-0.0384971
-0.0391331
-0.0397206
-0.0402595
-0.0407496
-0.0411909
-0.0415833
-0.0419268
-0.0422213
-0.0424667
-0.042663
-0.0428102
-0.0429083
-0.0429572
0.366221
0.331684
0.297056
0.262196
0.226728
0.189762
0.15061
0.109684
0.0656516
0.0674369
0.0658062
0.0641393
0.0622559
0.0602023
0.0580589
0.055888
0.0537229
0.0515735
0.0494354
0.0472985
0.045153
0.0429916
0.0408109
0.0386106
0.0363932
0.0341627
0.0319241
0.0296825
0.027443
0.0252102
0.022988
0.0207802
0.0185898
0.0164194
0.0142713
0.0121476
0.01005
0.00798009
0.00593939
0.00392922
0.00195084
5.43051e-06
-0.00190587
-0.003782
-0.00562193
-0.00742469
-0.00918936
-0.0109151
-0.012601
-0.0142464
-0.0158504
-0.0174125
-0.018932
-0.0204082
-0.0218407
-0.0232289
-0.0245724
-0.0258707
-0.0271234
-0.0283302
-0.0294908
-0.0306048
-0.0316719
-0.032692
-0.0336647
-0.0345899
-0.0354674
-0.0362969
-0.0370785
-0.0378118
-0.0384967
-0.0391332
-0.0397212
-0.0402604
-0.0407509
-0.0411926
-0.0415853
-0.0419291
-0.0422238
-0.0424694
-0.0426659
-0.0428133
-0.0429114
-0.0429604
0.366325
0.331899
0.297247
0.262294
0.226678
0.189401
0.149645
0.107951
0.0645933
0.0653249
0.0643287
0.0632741
0.061889
0.0601624
0.0581985
0.0561057
0.0539587
0.0517962
0.049632
0.0474661
0.0452935
0.0431089
0.0409092
0.0386939
0.0364649
0.0342255
0.0319801
0.0297333
0.0274899
0.0252539
0.0230293
0.0208195
0.0186273
0.0164554
0.014306
0.012181
0.0100822
0.00801118
0.00596934
0.00395804
0.00197852
3.19833e-05
-0.00188045
-0.00375771
-0.00559878
-0.00740267
-0.00916847
-0.0108953
-0.0125823
-0.0142288
-0.0158339
-0.0173971
-0.0189176
-0.0203949
-0.0218284
-0.0232175
-0.024562
-0.0258612
-0.0271148
-0.0283225
-0.0294839
-0.0305987
-0.0316666
-0.0326874
-0.0336609
-0.0345868
-0.0354649
-0.0362951
-0.0370772
-0.0378111
-0.0384966
-0.0391336
-0.039722
-0.0402617
-0.0407526
-0.0411947
-0.0415877
-0.0419318
-0.0422268
-0.0424726
-0.0426693
-0.0428167
-0.042915
-0.042964
0.366278
0.331763
0.297072
0.262142
0.226608
0.189306
0.149186
0.106774
0.0694078
0.0643276
0.063494
0.062968
0.0619491
0.0604262
0.05855
0.0564718
0.0542984
0.0520913
0.0498782
0.0476666
0.0454547
0.043238
0.0410129
0.038778
0.036534
0.0342834
0.0320296
0.0297768
0.0275288
0.0252896
0.0230626
0.020851
0.0186576
0.0164846
0.0143344
0.0122087
0.0101092
0.00803755
0.00599507
0.00398311
0.00200292
5.56564e-05
-0.00185754
-0.00373559
-0.00557748
-0.00738224
-0.00914893
-0.0108767
-0.0125646
-0.014212
-0.0158181
-0.0173822
-0.0189037
-0.0203819
-0.0218163
-0.0232065
-0.0245518
-0.0258519
-0.0271064
-0.0283149
-0.0294772
-0.0305928
-0.0316615
-0.032683
-0.0336572
-0.0345838
-0.0354626
-0.0362935
-0.0370762
-0.0378107
-0.0384968
-0.0391343
-0.0397232
-0.0402634
-0.0407547
-0.0411971
-0.0415906
-0.0419349
-0.0422302
-0.0424762
-0.0426731
-0.0428207
-0.042919
-0.0429681
0.366122
0.331357
0.296651
0.26199
0.22688
0.190134
0.150206
0.10427
0.0326825
0.0603472
0.0631297
0.0633369
0.0624948
0.0610126
0.0591178
0.0569854
0.0547396
0.0524557
0.0501706
0.0478966
0.0456333
0.0433759
0.0411193
0.0388604
0.0365985
0.0343347
0.0320714
0.0298117
0.027559
0.0253165
0.0230874
0.0208744
0.0186801
0.0165066
0.0143561
0.0122303
0.0101307
0.00805898
0.0060164
0.00400429
0.00202387
7.63229e-05
-0.00183724
-0.00371573
-0.00555814
-0.00736347
-0.00913081
-0.0108592
-0.012548
-0.0141961
-0.015803
-0.017368
-0.0188903
-0.0203694
-0.0218047
-0.0231957
-0.0245419
-0.0258429
-0.0270982
-0.0283076
-0.0294706
-0.030587
-0.0316565
-0.0326789
-0.0336538
-0.0345811
-0.0354606
-0.0362921
-0.0370755
-0.0378106
-0.0384973
-0.0391354
-0.0397248
-0.0402655
-0.0407572
-0.0412001
-0.0415939
-0.0419386
-0.0422341
-0.0424804
-0.0426775
-0.0428252
-0.0429237
-0.0429728
0.365976
0.331017
0.29648
0.262441
0.228288
0.192693
0.154684
0.113658
0.0396596
0.0673105
0.0658616
0.0647782
0.0635162
0.0618633
0.0598557
0.057616
0.0552624
0.0528759
0.0504995
0.0481488
0.0458238
0.0435182
0.0412248
0.0389383
0.0366562
0.0343777
0.032104
0.0298371
0.0275795
0.025334
0.023103
0.0208891
0.0186945
0.0165212
0.014371
0.0122456
0.0101466
0.00807533
0.0060332
0.00402145
0.00204129
9.38877e-05
-0.00181964
-0.00369822
-0.00554081
-0.00734645
-0.00911417
-0.0108431
-0.0125323
-0.0141811
-0.0157887
-0.0173544
-0.0188774
-0.0203573
-0.0217934
-0.0231852
-0.0245322
-0.0258341
-0.0270902
-0.0283004
-0.0294643
-0.0305815
-0.0316518
-0.0326749
-0.0336506
-0.0345786
-0.0354589
-0.0362911
-0.0370751
-0.0378109
-0.0384981
-0.0391368
-0.0397268
-0.040268
-0.0407603
-0.0412035
-0.0415977
-0.0419428
-0.0422386
-0.0424852
-0.0426825
-0.0428304
-0.0429289
-0.0429781
0.365844
0.330828
0.296736
0.263705
0.230856
0.196956
0.161049
0.123478
0.0901688
0.0752952
0.0689856
0.0663712
0.0646306
0.0627943
0.0606654
0.0583071
0.0558319
0.0533292
0.0508496
0.0484125
0.0460184
0.0436592
0.0413252
0.0390087
0.0367047
0.0344106
0.032126
0.0298518
0.0275896
0.0253414
0.0231091
0.0208949
0.0187006
0.016528
0.0143788
0.0122545
0.0101566
0.0080865
0.00604537
0.00403451
0.0020551
0.000108288
-0.0018048
-0.0036831
-0.00552556
-0.0073312
-0.00909905
-0.0108282
-0.0125178
-0.0141671
-0.0157752
-0.0173414
-0.0188652
-0.0203457
-0.0217826
-0.0231751
-0.0245229
-0.0258256
-0.0270825
-0.0282936
-0.0294582
-0.0305762
-0.0316473
-0.0326712
-0.0336477
-0.0345765
-0.0354574
-0.0362904
-0.0370751
-0.0378115
-0.0384994
-0.0391387
-0.0397293
-0.040271
-0.0407638
-0.0412075
-0.0416022
-0.0419476
-0.0422438
-0.0424906
-0.0426881
-0.0428362
-0.0429349
-0.0429841
0.365785
0.330899
0.297333
0.265056
0.232961
0.199747
0.164857
0.12939
0.0976008
0.0760299
0.0693281
0.0669535
0.0653803
0.0635987
0.0614383
0.0589937
0.0564065
0.0537876
0.0512017
0.0486744
0.0462077
0.0437922
0.0414158
0.0390681
0.0367415
0.0344316
0.0321363
0.0298551
0.0275887
0.0253383
0.0231053
0.0208914
0.0186981
0.016527
0.0143794
0.012257
0.0101609
0.00809243
0.00605289
0.00404344
0.00206526
0.000119495
-0.00179276
-0.0036704
-0.0055124
-0.00731776
-0.00908549
-0.0108147
-0.0125045
-0.014154
-0.0157625
-0.0173292
-0.0188535
-0.0203347
-0.0217722
-0.0231654
-0.024514
-0.0258174
-0.0270751
-0.0282869
-0.0294524
-0.0305712
-0.0316431
-0.0326678
-0.033645
-0.0345746
-0.0354563
-0.03629
-0.0370755
-0.0378126
-0.0385011
-0.0391411
-0.0397323
-0.0402746
-0.0407679
-0.0412121
-0.0416072
-0.0419531
-0.0422496
-0.0424968
-0.0426945
-0.0428428
-0.0429416
-0.0429908
0.3658
0.331092
0.298039
0.266407
0.234856
0.202145
0.167801
0.132537
0.0978225
0.0584177
0.0657944
0.0662546
0.0656372
0.0641878
0.0621066
0.0596241
0.056947
0.0542225
0.0515349
0.0489196
0.0463812
0.04391
0.0414915
0.0391129
0.0367643
0.0344391
0.0321336
0.0298461
0.0275762
0.0253243
0.0230914
0.0208786
0.018687
0.0165181
0.014373
0.012253