0 	-0.00395898 	0 	-0.000310884
0.010101 	0.0118649 	8.34859e-07 	-0.000503581
0.020202 	-4.20017e-11 	2.10825e-14 	-2.18496e-10
0.030303 	5.43993e-11 	2.81603e-15 	2.20359e-11
0.040404 	9.20438e-12 	3.14647e-16 	7.86576e-12
0.0505051 	1.90152e-12 	5.00014e-17 	1.9893e-12
