0.010101 	-4.09767e-10 	4.25301e-13 	-4.02777e-12
0.020202 	-1.55936e-11 	3.92703e-14 	-2.2644e-13
