0 	-2.35464e-15 	0 	2.82355e-16
0.010101 	-3.24529e-13 	0 	1.79382e-14
0.020202 	-5.61352e-12 	0 	3.3292e-13
0.030303 	-1.06951e-10 	0 	5.46828e-12
0.040404 	-5.61585e-10 	0 	-6.81359e-11
