0.010101 	-7.20413e-09 	-1.51073e-13 	-2.1241e-11
0.020202 	-8.57663e-10 	1.93555e-13 	-1.2382e-11
