0.010101 	4.9238e-09 	7.04788e-14 	2.08241e-11
0.020202 	4.3865e-10 	-1.09428e-13 	7.21621e-12
