0 	455.996
0.010101 	460.805
0.020202 	461.035
