/*--------------------------------*- C++ -*----------------------------------*\
  =========                 |
  \\      /  F ield         | OpenFOAM: The Open Source CFD Toolbox
   \\    /   O peration     | Website:  https://openfoam.org
    \\  /    A nd           | Version:  6
     \\/     M anipulation  |
\*---------------------------------------------------------------------------*/
FoamFile
{
    version     2.0;
    format      ascii;
    class       volScalarField;
    location    "3600";
    object      dmdt;
}
// * * * * * * * * * * * * * * * * * * * * * * * * * * * * * * * * * * * * * //

dimensions      [0 0 0 0 0 0 0];

internalField   nonuniform List<scalar> 
4800
(
-0.219223
-0.216483
-0.213728
-0.210958
-0.208178
-0.205396
-0.202627
-0.199883
-0.197183
-0.194541
-0.191973
-0.189497
-0.187129
-0.184879
-0.182759
-0.180769
-0.178906
-0.177163
-0.175525
-0.173978
-0.172506
-0.1711
-0.169748
-0.168442
-0.167177
-0.165946
-0.164742
-0.163558
-0.162388
-0.161223
-0.16005
-0.158852
-0.157616
-0.156329
-0.154985
-0.153577
-0.152104
-0.150566
-0.148966
-0.147309
-0.145604
-0.143857
-0.142076
-0.140268
-0.138438
-0.13659
-0.134725
-0.132841
-0.130933
-0.128992
-0.127012
-0.12499
-0.122922
-0.12081
-0.118647
-0.116424
-0.114144
-0.111807
-0.109408
-0.106943
-0.104402
-0.101782
-0.099079
-0.0962773
-0.0933645
-0.0903371
-0.0871802
-0.0838637
-0.0803667
-0.0766776
-0.0727734
-0.0686245
-0.064214
-0.0595453
-0.0546481
-0.0495841
-0.0444267
-0.0392517
-0.0341392
-0.0291606
-0.024345
-0.0196619
-0.015105
-0.0107197
-0.0065261
-0.00252694
0.00129093
0.00495041
0.00847859
0.0119023
0.0152455
0.0185287
0.0217688
0.024979
0.02817
0.0313499
0.0345247
0.037699
0.0408758
0.0440572
0.0472447
0.0504388
0.0536397
0.0568474
0.0600615
0.0632814
0.0665066
0.0697364
0.0729701
0.0762073
0.0794473
0.0826897
0.0859339
0.0891797
0.0924266
0.0956744
0.0989229
0.102172
0.105421
0.108671
-0.219214
-0.216456
-0.213685
-0.210901
-0.208109
-0.20532
-0.202547
-0.199807
-0.197115
-0.194488
-0.191936
-0.189477
-0.187134
-0.184914
-0.182823
-0.180861
-0.179022
-0.177296
-0.175672
-0.174134
-0.17267
-0.171269
-0.169921
-0.16862
-0.16736
-0.166134
-0.164936
-0.16376
-0.162597
-0.161437
-0.160265
-0.159068
-0.157833
-0.156548
-0.155206
-0.153799
-0.152327
-0.150788
-0.149188
-0.14753
-0.145826
-0.144083
-0.142308
-0.140508
-0.138687
-0.136847
-0.134989
-0.133108
-0.131198
-0.129252
-0.127266
-0.125236
-0.123159
-0.121034
-0.118853
-0.11661
-0.114307
-0.111944
-0.109514
-0.107013
-0.104437
-0.101785
-0.099049
-0.0962213
-0.0932903
-0.0902418
-0.0870629
-0.0837355
-0.0802399
-0.0765602
-0.0726726
-0.0685531
-0.0641949
-0.0596016
-0.0547957
-0.0498169
-0.0447234
-0.0395845
-0.0344761
-0.0294562
-0.0245523
-0.0197788
-0.015169
-0.0107586
-0.0065498
-0.00254121
0.00128182
0.00494365
0.00847268
0.0118966
0.0152399
0.0185233
0.0217636
0.0249742
0.0281657
0.0313461
0.0345215
0.0376962
0.0408735
0.0440554
0.0472433
0.0504377
0.0536389
0.0568469
0.0600611
0.0632812
0.0665064
0.0697363
0.0729702
0.0762074
0.0794474
0.0826898
0.085934
0.0891798
0.0924267
0.0956745
0.098923
0.102172
0.105421
0.108671
-0.2192
-0.216414
-0.21362
-0.210821
-0.208021
-0.205232
-0.202467
-0.199738
-0.197058
-0.194445
-0.191921
-0.189503
-0.187204
-0.185031
-0.182983
-0.181059
-0.179255
-0.17756
-0.175961
-0.174444
-0.172996
-0.171606
-0.170268
-0.168978
-0.167728
-0.166514
-0.165328
-0.164164
-0.163013
-0.161861
-0.160692
-0.159496
-0.158261
-0.15698
-0.155643
-0.15424
-0.15277
-0.151233
-0.149632
-0.147978
-0.146279
-0.144546
-0.142783
-0.140997
-0.13919
-0.137365
-0.135517
-0.13364
-0.131727
-0.129774
-0.127779
-0.125736
-0.12364
-0.121492
-0.119278
-0.116996
-0.114651
-0.112235
-0.109744
-0.107178
-0.104537
-0.101819
-0.0990176
-0.0961285
-0.0931471
-0.0900589
-0.0868492
-0.0835031
-0.0800016
-0.0763267
-0.0724601
-0.0683834
-0.0640923
-0.0595891
-0.054888
-0.050011
-0.0449962
-0.0399024
-0.0347984
-0.0297418
-0.0247717
-0.0199221
-0.0152602
-0.0108207
-0.00658984
-0.00256609
0.00126547
0.0049312
0.00846159
0.0118858
0.0152292
0.0185129
0.0217538
0.0249652
0.0281576
0.031339
0.0345154
0.0376911
0.0408694
0.0440521
0.0472407
0.0504357
0.0536375
0.0568458
0.0600604
0.0632808
0.0665063
0.0697363
0.0729703
0.0762076
0.0794477
0.08269
0.0859343
0.08918
0.0924269
0.0956747
0.0989231
0.102172
0.105421
0.108671
-0.219184
-0.216367
-0.213551
-0.21074
-0.207942
-0.205163
-0.202411
-0.199706
-0.197056
-0.194473
-0.191986
-0.189614
-0.187365
-0.185245
-0.183248
-0.181373
-0.179614
-0.177959
-0.176394
-0.174905
-0.17348
-0.172109
-0.170789
-0.169516
-0.168284
-0.167088
-0.16592
-0.164773
-0.163638
-0.162496
-0.161335
-0.160142
-0.15891
-0.157633
-0.156299
-0.154899
-0.153431
-0.151895
-0.150299
-0.148653
-0.146967
-0.145248
-0.143503
-0.141735
-0.139948
-0.13814
-0.136303
-0.134431
-0.132516
-0.130557
-0.128551
-0.126492
-0.124376
-0.122197
-0.119938
-0.117605
-0.1152
-0.112711
-0.110135
-0.107478
-0.104743
-0.10193
-0.0990348
-0.0960578
-0.0929934
-0.0898334
-0.0865692
-0.0831903
-0.0796733
-0.0759923
-0.0721362
-0.0680946
-0.0638629
-0.0594408
-0.0548344
-0.0500537
-0.0451179
-0.0400721
-0.0349719
-0.0298857
-0.0248789
-0.0200002
-0.0153165
-0.0108733
-0.00662754
-0.00259057
0.00124863
0.00491749
0.00844856
0.0118726
0.0152157
0.0184995
0.0217408
0.0249531
0.0281467
0.0313294
0.0345072
0.0376842
0.0408637
0.0440476
0.0472372
0.0504331
0.0536356
0.0568445
0.0600596
0.0632803
0.0665061
0.0697363
0.0729705
0.0762079
0.079448
0.0826904
0.0859347
0.0891804
0.0924273
0.095675
0.0989234
0.102172
0.105421
0.108671
-0.219174
-0.216341
-0.21351
-0.210693
-0.207902
-0.205144
-0.202418
-0.199734
-0.197115
-0.194578
-0.192144
-0.189828
-0.187636
-0.185571
-0.183632
-0.181813
-0.180107
-0.178498
-0.176975
-0.17552
-0.174124
-0.17278
-0.171486
-0.170237
-0.16903
-0.167859
-0.166713
-0.165589
-0.164475
-0.163349
-0.1622
-0.161018
-0.159793
-0.158518
-0.157182
-0.155781
-0.154312
-0.152779
-0.151191
-0.149559
-0.147889
-0.14619
-0.144466
-0.142721
-0.140955
-0.139165
-0.137341
-0.135477
-0.133565
-0.131605
-0.129591
-0.127515
-0.125374
-0.123155
-0.120845
-0.118449
-0.115967
-0.113386
-0.110707
-0.107939
-0.105086
-0.102152
-0.099138
-0.096048
-0.0928811
-0.089629
-0.0862837
-0.0828395
-0.0792789
-0.0755768
-0.071719
-0.0676976
-0.0635091
-0.059151
-0.0546182
-0.0499102
-0.0450377
-0.0400299
-0.0349338
-0.0298177
-0.0247712
-0.0199031
-0.0149266
-0.0108725
-0.00663618
-0.00259801
0.00124188
0.00490974
0.00843894
0.011861
0.0152028
0.0184858
0.0217271
0.02494
0.0281346
0.0313186
0.0344978
0.0376764
0.0408573
0.0440425
0.0472332
0.0504302
0.0536335
0.0568431
0.0600588
0.0632799
0.0665061
0.0697366
0.0729708
0.0762084
0.0794486
0.082691
0.0859352
0.0891809
0.0924277
0.0956754
0.0989237
0.102172
0.105422
0.108671
-0.219168
-0.216328
-0.213503
-0.210698
-0.207922
-0.20518
-0.202482
-0.199836
-0.197258
-0.194774
-0.192399
-0.190145
-0.188018
-0.18602
-0.184145
-0.182389
-0.180741
-0.179184
-0.177706
-0.176292
-0.174934
-0.173626
-0.172364
-0.171148
-0.169973
-0.168832
-0.167716
-0.16662
-0.165531
-0.164427
-0.163298
-0.162131
-0.160914
-0.159643
-0.158307
-0.156903
-0.155431
-0.1539
-0.15232
-0.1507
-0.149048
-0.147371
-0.145672
-0.14395
-0.142206
-0.140436
-0.138628
-0.136775
-0.13487
-0.132913
-0.130891
-0.128797
-0.126627
-0.124363
-0.121996
-0.119527
-0.116952
-0.114262
-0.111464
-0.108567
-0.105577
-0.102499
-0.0993423
-0.0961147
-0.0928198
-0.0894531
-0.0860106
-0.0824828
-0.0788536
-0.0751076
-0.0712345
-0.0672204
-0.0630555
-0.0587334
-0.0542487
-0.0495985
-0.0447845
-0.0398216
-0.0347508
-0.0296398
-0.0246136
-0.0197973
-0.0152152
-0.0108251
-0.0065996
-0.00257308
0.00125725
0.00491728
0.00844003
0.011857
0.015195
0.0184756
0.0217157
0.0249283
0.0281233
0.0313083
0.0344887
0.0376687
0.0408509
0.0440374
0.0472294
0.0504274
0.0536316
0.056842
0.0600582
0.0632798
0.0665063
0.069737
0.0729715
0.0762091
0.0794494
0.0826918
0.085936
0.0891816
0.0924283
0.0956759
0.0989241
0.102173
0.105422
0.108671
-0.21917
-0.216334
-0.213519
-0.210736
-0.207994
-0.205292
-0.20263
-0.200023
-0.197495
-0.195072
-0.192767
-0.190586
-0.188532
-0.186604
-0.184797
-0.183105
-0.18152
-0.180022
-0.178596
-0.17723
-0.175916
-0.174651
-0.173431
-0.172256
-0.171121
-0.170018
-0.168938
-0.167875
-0.166816
-0.16574
-0.164635
-0.163484
-0.162279
-0.161016
-0.159683
-0.158278
-0.156803
-0.155272
-0.153697
-0.152087
-0.150452
-0.148795
-0.147117
-0.145418
-0.143695
-0.141945
-0.140155
-0.138314
-0.136418
-0.13446
-0.132427
-0.130312
-0.128109
-0.125795
-0.123363
-0.120812
-0.118136
-0.115329
-0.112399
-0.109357
-0.10621
-0.10297
-0.0996521
-0.0962665
-0.0928208
-0.0893183
-0.0857559
-0.0821248
-0.0784104
-0.0746017
-0.0706923
-0.066666
-0.0625046
-0.0581986
-0.0537473
-0.0491476
-0.0444014
-0.0395214
-0.0345374
-0.0295065
-0.0245373
-0.0197413
-0.0151432
-0.0107316
-0.0065149
-0.00250613
0.00130629
0.00495072
0.00846065
0.0118675
0.0151979
0.0184732
0.0217099
0.0249206
0.028115
0.0313001
0.0344812
0.0376622
0.0408456
0.0440333
0.0472263
0.0504252
0.0536303
0.0568413
0.0600581
0.0632801
0.0665069
0.0697379
0.0729725
0.0762101
0.0794504
0.0826928
0.0859369
0.0891825
0.0924291
0.0956765
0.0989246
0.102173
0.105422
0.108671
-0.219187
-0.216387
-0.213605
-0.210852
-0.208141
-0.205478
-0.202866
-0.200318
-0.197858
-0.195505
-0.193273
-0.191166
-0.189187
-0.187333
-0.185596
-0.183973
-0.182454
-0.18102
-0.179651
-0.178341
-0.177081
-0.175869
-0.174698
-0.173569
-0.172479
-0.171421
-0.170385
-0.169361
-0.168336
-0.167291
-0.166212
-0.165081
-0.163892
-0.162641
-0.161313
-0.15991
-0.158438
-0.156908
-0.155336
-0.153732
-0.152108
-0.150464
-0.148801
-0.14712
-0.145415
-0.143681
-0.141907
-0.140077
-0.138185
-0.136223
-0.134176
-0.132034
-0.129789
-0.127419
-0.124913
-0.122269
-0.119483
-0.116552
-0.113484
-0.110287
-0.106971
-0.103555
-0.100059
-0.0965013
-0.0928921
-0.0892376
-0.0855369
-0.0817858
-0.0779748
-0.0740908
-0.0701233
-0.0660601
-0.0618847
-0.0575845
-0.0531603
-0.048615
-0.0439485
-0.0391638
-0.0342852
-0.0293602
-0.0244606
-0.0196694
-0.0150273
-0.0105816
-0.00636783
-0.00238094
0.00140416
0.00502264
0.00851058
0.0119
0.0152172
0.0184829
0.0217131
0.0249197
0.0281118
0.0312959
0.0344769
0.0376582
0.0408422
0.0440307
0.0472245
0.0504242
0.0536299
0.0568415
0.0600587
0.0632811
0.0665081
0.0697392
0.0729739
0.0762116
0.0794518
0.0826941
0.0859381
0.0891835
0.09243
0.0956773
0.0989252
0.102174
0.105422
0.108671
-0.219205
-0.216444
-0.213713
-0.211015
-0.208353
-0.205737
-0.203181
-0.200703
-0.198321
-0.19605
-0.193902
-0.19188
-0.189985
-0.188212
-0.186553
-0.185003
-0.183555
-0.18219
-0.180883
-0.179636
-0.17844
-0.177287
-0.176172
-0.175095
-0.174056
-0.173047
-0.172059
-0.171077
-0.170086
-0.169073
-0.168022
-0.166915
-0.165746
-0.164508
-0.163192
-0.161799
-0.160334
-0.158809
-0.15724
-0.155639
-0.154019
-0.152381
-0.150726
-0.149053
-0.147359
-0.145635
-0.14387
-0.142047
-0.140154
-0.138181
-0.136114
-0.133941
-0.131646
-0.129208
-0.126615
-0.123865
-0.120958
-0.117892
-0.114676
-0.111318
-0.107831
-0.104235
-0.100552
-0.0968073
-0.0930199
-0.0892008
-0.0853524
-0.0814734
-0.0775546
-0.0735809
-0.0695385
-0.0654209
-0.0612213
-0.0569234
-0.0525238
-0.0480265
-0.0434289
-0.038735
-0.0339648
-0.0291468
-0.0243277
-0.019547
-0.0148339
-0.010329
-0.0061196
-0.00216873
0.00157101
0.00514678
0.00859923
0.011961
0.0152576
0.0185084
0.0217282
0.0249279
0.0281156
0.0312972
0.0344769
0.0376577
0.0408418
0.0440305
0.0472247
0.0504248
0.053631
0.0568429
0.0600604
0.0632829
0.06651
0.0697412
0.0729758
0.0762134
0.0794535
0.0826957
0.0859396
0.0891848
0.0924311
0.0956782
0.0989259
0.102174
0.105423
0.108671
-0.21924
-0.216542
-0.213864
-0.211224
-0.208629
-0.206081
-0.203593
-0.20119
-0.198892
-0.196715
-0.194662
-0.192735
-0.190932
-0.189247
-0.187674
-0.186204
-0.184834
-0.183545
-0.182308
-0.18113
-0.180002
-0.178914
-0.177861
-0.176841
-0.175855
-0.174897
-0.173954
-0.173011
-0.172055
-0.171072
-0.170048
-0.168968
-0.167821
-0.166605
-0.165308
-0.163932
-0.16248
-0.160965
-0.159402
-0.157805
-0.156186
-0.154547
-0.15289
-0.151218
-0.149526
-0.147802
-0.146036
-0.144212
-0.14231
-0.140318
-0.138224
-0.136008
-0.133651
-0.131133
-0.12844
-0.125573
-0.122531
-0.119318
-0.115944
-0.112419
-0.108758
-0.10498
-0.101109
-0.0971753
-0.0932039
-0.0892104
-0.0852019
-0.0811823
-0.0771476
-0.0730802
-0.0689612
-0.0647821
-0.0605439
-0.0562369
-0.0518496
-0.047384
-0.0428418
-0.0382192
-0.0335231
-0.0287672
-0.0239756
-0.0191803
-0.0144205
-0.00988248
-0.00570864
-0.00183199
0.00182784
0.00533454
0.00873291
0.0120544
0.0153216
0.0185515
0.0217568
0.0249465
0.0281276
0.031305
0.0344821
0.0376615
0.0408449
0.0440333
0.0472274
0.0504276
0.0536337
0.0568457
0.0600632
0.0632858
0.0665128
0.0697438
0.0729783
0.0762158
0.0794557
0.0826977
0.0859414
0.0891864
0.0924324
0.0956793
0.0989267
0.102175
0.105423
0.108671
-0.21928
-0.21666
-0.21406
-0.211497
-0.208981
-0.206513
-0.204111
-0.201803
-0.199606
-0.197529
-0.195576
-0.193747
-0.192039
-0.190448
-0.188967
-0.187585
-0.186298
-0.185089
-0.183931
-0.182828
-0.181774
-0.180756
-0.179768
-0.178807
-0.177876
-0.176965
-0.176064
-0.175158
-0.174234
-0.173278
-0.172282
-0.171228
-0.170105
-0.168913
-0.16764
-0.166286
-0.164853
-0.163355
-0.161806
-0.160216
-0.158598
-0.156954
-0.155289
-0.153608
-0.151907
-0.150171
-0.148392
-0.146558
-0.144633
-0.142609
-0.140473
-0.138201
-0.135773
-0.133166
-0.130367
-0.127369
-0.124179
-0.120805
-0.117261
-0.113563
-0.109723
-0.105761
-0.101707
-0.0975929
-0.0934455
-0.0892821
-0.085115
-0.0809495
-0.0767862
-0.0726123
-0.0684093
-0.0641645
-0.0598782
-0.055547
-0.0511586
-0.0467099
-0.0421989
-0.037614
-0.0329527
-0.0282127
-0.0233971
-0.0185433
-0.0137196
-0.00914056
-0.00506345
-0.0013355
0.00218775
0.00558907
0.00891136
0.012179
0.0154084
0.0186118
0.0217985
0.0249755
0.0281481
0.0313197
0.0344931
0.0376701
0.040852
0.0440394
0.047233
0.0504327
0.0536385
0.0568503
0.0600675
0.0632898
0.0665166
0.0697473
0.0729816
0.0762187
0.0794584
0.0827001
0.0859434
0.0891881
0.0924339
0.0956805
0.0989277
0.102175
0.105423
0.108671
-0.219328
-0.216802
-0.21429
-0.211811
-0.209383
-0.207013
-0.204718
-0.202521
-0.200437
-0.198471
-0.196628
-0.194906
-0.193303
-0.191814
-0.190433
-0.189146
-0.187948
-0.186823
-0.18575
-0.184727
-0.183749
-0.182806
-0.181885
-0.180985
-0.180106
-0.179241
-0.178378
-0.177506
-0.176612
-0.175683
-0.174711
-0.173681
-0.172582
-0.171412
-0.170163
-0.168833
-0.167422
-0.165944
-0.164411
-0.162831
-0.161214
-0.159566
-0.157889
-0.156189
-0.154468
-0.152709
-0.150906
-0.149041
-0.147076
-0.145009
-0.142821
-0.140489
-0.137983
-0.135271
-0.132343
-0.129197
-0.125849
-0.122311
-0.118595
-0.114721
-0.110703
-0.106567
-0.102342
-0.0980599
-0.0937453
-0.0894194
-0.0850964
-0.0807838
-0.0764854
-0.0721978
-0.0679049
-0.0635905
-0.0592498
-0.0548829
-0.0504804
-0.0460299
-0.0415226
-0.0369444
-0.0322878
-0.0275413
-0.0226823
-0.0177169
-0.0127052
-0.00794094
-0.00410459
-0.000664511
0.00264179
0.00589773
0.00912425
0.0123277
0.015513
0.0186858
0.0218512
0.0250135
0.0281759
0.0313408
0.0345096
0.0376834
0.0408631
0.0440491
0.0472415
0.0504404
0.0536455
0.0568566
0.0600733
0.0632951
0.0665214
0.0697517
0.0729855
0.0762223
0.0794615
0.0827028
0.0859458
0.0891902
0.0924356
0.0956818
0.0989287
0.102176
0.105424
0.108672
-0.219372
-0.216943
-0.214537
-0.212167
-0.209848
-0.207593
-0.205419
-0.203345
-0.201383
-0.199537
-0.197811
-0.196206
-0.194716
-0.193337
-0.192061
-0.190875
-0.18977
-0.188733
-0.187748
-0.186808
-0.185908
-0.18504
-0.184188
-0.183349
-0.182524
-0.181701
-0.180874
-0.180033
-0.179167
-0.178263
-0.177312
-0.176303
-0.175225
-0.174075
-0.172847
-0.171537
-0.170147
-0.168687
-0.167167
-0.165596
-0.163978
-0.162321
-0.160629
-0.158904
-0.157156
-0.155363
-0.15352
-0.151605
-0.149591
-0.147468
-0.14521
-0.142793
-0.140181
-0.137352
-0.134298
-0.131017
-0.127522
-0.123823
-0.119936
-0.115887
-0.111699
-0.107399
-0.103018
-0.0985826
-0.0941186
-0.0896462
-0.0851791
-0.0807279
-0.0763
-0.0718936
-0.0675018
-0.0631099
-0.0587085
-0.054297
-0.0498662
-0.0453992
-0.0408842
-0.0363067
-0.0316484
-0.0268766
-0.0219316
-0.01676
-0.0113196
-0.00587425
-0.00278102
0.00012637
0.00313553
0.00622442
0.00934963
0.0124867
0.0156265
0.0187674
0.0219105
0.0250573
0.0282091
0.0313666
0.0345304
0.0377008
0.040878
0.044062
0.0472529
0.0504506
0.0536547
0.0568649
0.0600808
0.0633018
0.0665274
0.069757
0.0729902
0.0762264
0.0794651
0.082706
0.0859485
0.0891924
0.0924375
0.0956834
0.0989299
0.102177
0.105424
0.108672
-0.219422
-0.217097
-0.214802
-0.212554
-0.210362
-0.208239
-0.206199
-0.20426
-0.202429
-0.200713
-0.199114
-0.197631
-0.196261
-0.194997
-0.19383
-0.192748
-0.191739
-0.190791
-0.189893
-0.189035
-0.188215
-0.18742
-0.186636
-0.185858
-0.185085
-0.184304
-0.183512
-0.182699
-0.18186
-0.180978
-0.180045
-0.179055
-0.177995
-0.176862
-0.17565
-0.174355
-0.172982
-0.171534
-0.170024
-0.168457
-0.166833
-0.165166
-0.163455
-0.1617
-0.159914
-0.158075
-0.156179
-0.1542
-0.152115
-0.149908
-0.147557
-0.145035
-0.142307
-0.139354
-0.136173
-0.132765
-0.129134
-0.12529
-0.121253
-0.117053
-0.112716
-0.108273
-0.103757
-0.099198
-0.0946143
-0.0900194
-0.0854254
-0.080843
-0.0762843
-0.0717586
-0.0672631
-0.062788
-0.058323
-0.0538608
-0.0493917
-0.0448988
-0.0403669
-0.0357752
-0.0310949
-0.0262875
-0.0212753
-0.0159058
-0.00978995
-0.00100542
-0.00135947
0.00079501
0.00354543
0.00651087
0.00955829
0.0126394
0.0157379
0.0188486
0.0219703
0.0251023
0.028244
0.0313947
0.0345538
0.0377209
0.0408956
0.0440777
0.0472669
0.0504631
0.053666
0.056875
0.0600897
0.0633097
0.0665344
0.0697633
0.0729957
0.0762312
0.0794693
0.0827095
0.0859515
0.089195
0.0924395
0.095685
0.0989311
0.102178
0.105425
0.108672
-0.219485
-0.217284
-0.215113
-0.212991
-0.210932
-0.208946
-0.207044
-0.205244
-0.203551
-0.201969
-0.200501
-0.199146
-0.197899
-0.196753
-0.195697
-0.194718
-0.193805
-0.192947
-0.192133
-0.191355
-0.190611
-0.189886
-0.18917
-0.188451
-0.187727
-0.186987
-0.186228
-0.185444
-0.184628
-0.183768
-0.182853
-0.181879
-0.180835
-0.179717
-0.178517
-0.177235
-0.175872
-0.174432
-0.172926
-0.171358
-0.169725
-0.168042
-0.166306
-0.164517
-0.162681
-0.160786
-0.158821
-0.156761
-0.154589
-0.152289
-0.149843
-0.14722
-0.144378
-0.141304
-0.137996
-0.134457
-0.130691
-0.126718
-0.122556
-0.118234
-0.11378
-0.109228
-0.104621
-0.0999827
-0.0953214
-0.0906348
-0.0859313
-0.0812297
-0.0765487
-0.0719008
-0.0672944
-0.0627302
-0.0581956
-0.0536765
-0.04916
-0.0446281
-0.0400632
-0.0354436
-0.0307451
-0.025935
-0.0209666
-0.0157799
-0.0103316
-0.00494444
-0.00199415
0.000819058
0.00372957
0.00671009
0.00972861
0.0127717
0.0158359
0.0189201
0.022023
0.0251424
0.0282759
0.0314214
0.0345771
0.0377417
0.0409146
0.0440951
0.0472828
0.0504776
0.053679
0.0568867
0.0601002
0.063319
0.0665426
0.0697704
0.0730019
0.0762365
0.0794739
0.0827134
0.0859548
0.0891977
0.0924418
0.0956868
0.0989325
0.102179
0.105425
0.108672
-0.21955
-0.21748
-0.215445
-0.213458
-0.211534
-0.209683
-0.207922
-0.206261
-0.204706
-0.20326
-0.201923
-0.200696
-0.199572
-0.198543
-0.197595
-0.196715
-0.195896
-0.195124
-0.194393
-0.193692
-0.193019
-0.192363
-0.19171
-0.191047
-0.190368
-0.189667
-0.188942
-0.188186
-0.187393
-0.186554
-0.185659
-0.184704
-0.183675
-0.182571
-0.181382
-0.180108
-0.178752
-0.177317
-0.175812
-0.174237
-0.17259
-0.170885
-0.169116
-0.167285
-0.165391
-0.16343
-0.161385
-0.159239
-0.156977
-0.154584
-0.152044
-0.149321
-0.146371
-0.143188
-0.13977
-0.136117
-0.132236
-0.128155
-0.123894
-0.119487
-0.114959
-0.110346
-0.105696
-0.101027
-0.0963289
-0.0915873
-0.0868084
-0.0820119
-0.077221
-0.0724557
-0.067736
-0.063073
-0.0584581
-0.0538725
-0.0492961
-0.0447099
-0.0400975
-0.0354399
-0.0307162
-0.0259045
-0.0209922
-0.0159995
-0.011017
-0.00635515
-0.00261177
0.000698109
0.00381768
0.00685385
0.00986256
0.0128759
0.0159104
0.0189719
0.0220597
0.0251702
0.028299
0.0314422
0.0345968
0.0377609
0.0409332
0.0441129
0.0472997
0.0504933
0.0536934
0.0568997
0.0601118
0.0633293
0.0665516
0.0697783
0.0730087
0.0762424
0.0794789
0.0827177
0.0859584
0.0892007
0.0924442
0.0956887
0.0989339
0.10218
0.105426
0.108672
-0.219612
-0.217668
-0.215759
-0.213902
-0.21211
-0.210395
-0.20877
-0.207244
-0.205822
-0.204507
-0.203297
-0.202193
-0.201187
-0.200269
-0.199424
-0.198639
-0.197908
-0.197219
-0.196565
-0.195938
-0.195332
-0.194738
-0.194143
-0.193531
-0.192897
-0.192236
-0.191545
-0.19082
-0.190055
-0.189241
-0.188371
-0.187437
-0.186428
-0.185338
-0.184159
-0.182894
-0.181543
-0.180109
-0.178599
-0.177011
-0.175346
-0.173611
-0.171803
-0.169922
-0.167968
-0.165936
-0.163814
-0.161587
-0.159241
-0.156763
-0.154137
-0.151324
-0.148286
-0.145019
-0.141518
-0.137778
-0.133815
-0.129663
-0.125347
-0.120902
-0.116352
-0.111736
-0.107105
-0.102464
-0.0977807
-0.0930301
-0.0882115
-0.0833443
-0.0784561
-0.0735794
-0.0687495
-0.0639871
-0.0592842
-0.0546178
-0.0499621
-0.0452978
-0.0406126
-0.0358892
-0.0311111
-0.0262696
-0.0213764
-0.0164594
-0.0116002
-0.00700445
-0.00291572
0.000674646
0.00392037
0.00697845
0.00996313
0.0129423
0.0159485
0.0189916
0.0220699
0.0251773
0.0283066
0.0314519
0.0346092
0.0377754
0.0409492
0.0441297
0.0473165
0.0505095
0.0537086
0.0569137
0.0601244
0.0633405
0.0665615
0.0697869
0.0730161
0.0762488
0.0794843
0.0827222
0.0859622
0.0892038
0.0924467
0.0956907
0.0989354
0.102181
0.105426
0.108672
-0.219666
-0.217829
-0.216029
-0.214283
-0.212602
-0.211002
-0.209495
-0.20809
-0.20679
-0.205596
-0.204504
-0.203513
-0.202615
-0.201796
-0.201044
-0.200347
-0.199696
-0.199084
-0.198501
-0.197943
-0.1974
-0.196862
-0.19632
-0.195757
-0.195169
-0.194551
-0.193901
-0.193215
-0.192486
-0.191708
-0.19087
-0.189964
-0.188978
-0.187905
-0.18674
-0.185484
-0.184138
-0.182704
-0.181186
-0.179583
-0.177897
-0.17613
-0.174282
-0.172356
-0.17035
-0.168258
-0.16607
-0.163774
-0.161361
-0.158823
-0.156144
-0.153283
-0.150201
-0.14689
-0.143338
-0.139543
-0.135531
-0.13135
-0.12703
-0.122603
-0.118095
-0.113549
-0.109012
-0.104471
-0.0998609
-0.0951393
-0.09031
-0.0853986
-0.0804388
-0.0754752
-0.0705452
-0.0656806
-0.060878
-0.0561141
-0.0513611
-0.0465966
-0.0418091
-0.0369806
-0.0320965
-0.0271565
-0.0221796
-0.017179
-0.0121941
-0.00736668
-0.00293942
0.000804768
0.0040651
0.0070795
0.0100113
0.0129493
0.0159307
0.0189635
0.0220414
0.0251541
0.0282914
0.0314451
0.0346099
0.0377822
0.0409603
0.0441435
0.0473318
0.0505252
0.0537239
0.056928
0.0601376
0.0633523
0.0665719
0.069796
0.073024
0.0762555
0.07949
0.082727
0.0859661
0.089207
0.0924493
0.0956927
0.0989369
0.102182
0.105427
0.108673
-0.2197
-0.21793
-0.216194
-0.214514
-0.212909
-0.211395
-0.209982
-0.208673
-0.20747
-0.206373
-0.205379
-0.204481
-0.20367
-0.202934
-0.20226
-0.20164
-0.201062
-0.200518
-0.2
-0.199503
-0.199017
-0.198534
-0.198043
-0.197533
-0.196997
-0.196433
-0.195836
-0.195202
-0.194524
-0.193793
-0.192998
-0.192128
-0.191174
-0.190127
-0.188984
-0.187743
-0.186406
-0.184974
-0.183451
-0.181837
-0.180134
-0.178345
-0.176473
-0.174517
-0.172476
-0.170345
-0.16812
-0.165791
-0.163357
-0.16081
-0.158133
-0.155281
-0.152216
-0.148921
-0.14537
-0.141567
-0.137555
-0.133393
-0.129117
-0.124763
-0.120367
-0.115974
-0.111611
-0.107237
-0.102752
-0.0980986
-0.0932879
-0.0883547
-0.0833486
-0.0783199
-0.0733095
-0.068361
-0.063469
-0.0586069
-0.0537469
-0.0488613
-0.0439331
-0.0389416
-0.0338768
-0.0287503
-0.0235699
-0.018307
-0.0129536
-0.00762837
-0.00264945
0.00107906
0.00419561
0.00709187
0.00995267
0.0128571
0.0158299
0.018869
0.0219613
0.0250916
0.0282467
0.0314166
0.034595
0.0377781
0.0409641
0.0441528
0.0473443
0.0505394
0.0537385
0.0569423
0.0601509
0.0633644
0.0665827
0.0698054
0.0730321
0.0762624
0.0794958
0.0827319
0.0859702
0.0892103
0.092452
0.0956948
0.0989385
0.102183
0.105428
0.108673
-0.219699
-0.217928
-0.216193
-0.214522
-0.212935
-0.211448
-0.210071
-0.208808
-0.207661
-0.206623
-0.20569
-0.204854
-0.204104
-0.203429
-0.202818
-0.202259
-0.201743
-0.20126
-0.200801
-0.20036
-0.199929
-0.199501
-0.199066
-0.198617
-0.198147
-0.197652
-0.197126
-0.196564
-0.195954
-0.195288
-0.194552
-0.193736
-0.192829
-0.191824
-0.190715
-0.189501
-0.188183
-0.186764
-0.185248
-0.183637
-0.181936
-0.180149
-0.178278
-0.176324
-0.174287
-0.172167
-0.169962
-0.167671
-0.165291
-0.162816
-0.160223
-0.157466
-0.154509
-0.151312
-0.147827
-0.144066
-0.140097
-0.135997
-0.131818
-0.127602
-0.123399
-0.119235
-0.115101
-0.110937
-0.106604
-0.102037
-0.0972685
-0.0923539
-0.0873418
-0.0822908
-0.0772535
-0.0722687
-0.0673247
-0.0623951
-0.057435
-0.0524112
-0.047298
-0.0420797
-0.0367509
-0.0313261
-0.0257969
-0.0201098
-0.0141951
-0.00798631
-0.00167996
0.00141998
0.00413239
0.00687124
0.00969452
0.0126109
0.0156142
0.0186896
0.0218182
0.0249822
0.028167
0.0313623
0.0345614
0.0377606
0.0409588
0.0441559
0.0473529
0.0505512
0.0537518
0.0569558
0.0601639
0.0633765
0.0665935
0.0698149
0.0730403
0.0762694
0.0795017
0.0827368
0.0859742
0.0892136
0.0924546
0.0956968
0.09894
0.102184
0.105428
0.108673
-0.219651
-0.217785
-0.215963
-0.214211
-0.212555
-0.211011
-0.209591
-0.208302
-0.207141
-0.206104
-0.205178
-0.204359
-0.20363
-0.202983
-0.202408
-0.201892
-0.201423
-0.200989
-0.20058
-0.200191
-0.199816
-0.199447
-0.19908
-0.198706
-0.198319
-0.197914
-0.197481
-0.197013
-0.196497
-0.195921
-0.19527
-0.194533
-0.193698
-0.192756
-0.191701
-0.190532
-0.189252
-0.187866
-0.18638
-0.184803
-0.183142
-0.181402
-0.179587
-0.177699
-0.175742
-0.17372
-0.171637
-0.169494
-0.167286
-0.165006
-0.162617
-0.16007
-0.157335
-0.154337
-0.150995
-0.147332
-0.143452
-0.139459
-0.135423
-0.131406
-0.127454
-0.123564
-0.119684
-0.115737
-0.111557
-0.107078
-0.102367
-0.0974955
-0.0925256
-0.0875301
-0.0825577
-0.0776266
-0.0727144
-0.0677852
-0.0627586
-0.057595
-0.0522572
-0.0467426
-0.0410517
-0.0351928
-0.0291774
-0.0229692
-0.0164019
-0.00873219
0.00137914
0.00133544
0.00345019
0.00619083
0.00912719
0.012159
0.0152596
0.0184138
0.0216062
0.0248224
0.0280501
0.0312803
0.0345073
0.0377283
0.0409428
0.0441517
0.0473566
0.0505598
0.0537631
0.0569682
0.0601763
0.0633881
0.0666041
0.0698243
0.0730485
0.0762763
0.0795076
0.0827416
0.0859782
0.0892168
0.0924571
0.0956988
0.0989414
0.102185
0.105429
0.108673
-0.219535
-0.21744
-0.215397
-0.213439
-0.211595
-0.209885
-0.208325
-0.206917
-0.205657
-0.204537
-0.203547
-0.202682
-0.201923
-0.201261
-0.200688
-0.200192
-0.199755
-0.199359
-0.198994
-0.198653
-0.198334
-0.198031
-0.197738
-0.19745
-0.19716
-0.196861
-0.196542
-0.196192
-0.195796
-0.195339
-0.194805
-0.19418
-0.193448
-0.192601
-0.191631
-0.190539
-0.18933
-0.188013
-0.186604
-0.185116
-0.183566
-0.18196
-0.180305
-0.178605
-0.176859
-0.175078
-0.173269
-0.171433
-0.169568
-0.167655
-0.165621
-0.163429
-0.161067
-0.158404
-0.155298
-0.151763
-0.147981
-0.144105
-0.140243
-0.136469
-0.132786
-0.129168
-0.12552
-0.12174
-0.117678
-0.113265
-0.108606
-0.103808
-0.0989603
-0.0941285
-0.0893585
-0.084631
-0.0798901
-0.0750712
-0.0700551
-0.064782
-0.059201
-0.0533264
-0.0471726
-0.0407486
-0.0341527
-0.0274244
-0.0204951
-0.0133229
-0.00640724
-0.00223316
0.00140808
0.00485665
0.00819804
0.011489
0.0147656
0.0180443
0.0213285
0.0246146
0.0278972
0.031171
0.0344327
0.0376808
0.0409158
0.0441395
0.0473548
0.0505646
0.0537719
0.0569789
0.0601875
0.0633991
0.0666142
0.0698333
0.0730563
0.076283
0.0795132
0.0827463
0.085982
0.0892198
0.0924595
0.0957006
0.0989428
0.102186
0.105429
0.108673
-0.219332
-0.216839
-0.214415
-0.212097
-0.209919
-0.207902
-0.206063
-0.204411
-0.202938
-0.201629
-0.200475
-0.19947
-0.198601
-0.197858
-0.197237
-0.196729
-0.196302
-0.195929
-0.195596
-0.195301
-0.195039
-0.194804
-0.194592
-0.194398
-0.194214
-0.194032
-0.193842
-0.193631
-0.19338
-0.19307
-0.192684
-0.192204
-0.191613
-0.1909
-0.190058
-0.189091
-0.188011
-0.186836
-0.185592
-0.184309
-0.183009
-0.181702
-0.180387
-0.179063
-0.177734
-0.176407
-0.175092
-0.173787
-0.172492
-0.171155
-0.169624
-0.167907
-0.166067
-0.163895
-0.16113
-0.157734
-0.154034
-0.150273
-0.146596
-0.143062
-0.139617
-0.136206
-0.132701
-0.12898
-0.12494
-0.120524
-0.1159
-0.111232
-0.106622
-0.10212
-0.0977611
-0.0934463
-0.0890636
-0.0845097
-0.079629
-0.0743169
-0.0685059
-0.0622427
-0.0555675
-0.0485171
-0.0413161
-0.0340234
-0.0266508
-0.0193252
-0.0124937
-0.00623516
-0.00115848
0.00315517
0.00702761
0.01066
0.0141649
0.0176013
0.0209978
0.0243672
0.0277138
0.0310381
0.0343397
0.0376191
0.0408781
0.0441196
0.0473473
0.0505655
0.0537778
0.0569876
0.0601974
0.063409
0.0666236
0.0698417
0.0730637
0.0762893
0.0795184
0.0827506
0.0859855
0.0892226
0.0924617
0.0957022
0.098944
0.102187
0.10543
0.108674
-0.21903
-0.215946
-0.212955
-0.210099
-0.207416
-0.204936
-0.202669
-0.200621
-0.198789
-0.197159
-0.195716
-0.19445
-0.193356
-0.19243
-0.191682
-0.191101
-0.190642
-0.190263
-0.18994
-0.189672
-0.189453
-0.189272
-0.189127
-0.189014
-0.188924
-0.188849
-0.188785
-0.188715
-0.188619
-0.188477
-0.188268
-0.187975
-0.187574
-0.187054
-0.186411
-0.185652
-0.184802
-0.183894
-0.182974
-0.18209
-0.181277
-0.180536
-0.179853
-0.179207
-0.178586
-0.177995
-0.177446
-0.176945
-0.176487
-0.175972
-0.175062
-0.173884
-0.17269
-0.171182
-0.168886
-0.165622
-0.161939
-0.158273
-0.154769
-0.151436
-0.148148
-0.144798
-0.141272
-0.137453
-0.133268
-0.128731
-0.124098
-0.119639
-0.11545
-0.111544
-0.107891
-0.104232
-0.10041
-0.0962987
-0.0917044
-0.0864647
-0.0804888
-0.0738582
-0.0666458
-0.0589623
-0.0511096
-0.0430662
-0.034886
-0.0264121
-0.0180057
-0.00982901
-0.00356914
0.00146105
0.00580529
0.00976852
0.0135098
0.0171151
0.0206336
0.0240932
0.0275087
0.0308872
0.034232
0.0375457
0.0408312
0.0440925
0.0473346
0.0505624
0.0537809
0.0569942
0.0602056
0.0634177
0.0666319
0.0698493
0.0730703
0.076295
0.0795231
0.0827544
0.0859885
0.089225
0.0924635
0.0957036
0.098945
0.102187
0.10543
0.108674
-0.218635
-0.214773
-0.211032
-0.207464
-0.204112
-0.201006
-0.198157
-0.195559
-0.193203
-0.19108
-0.189177
-0.187483
-0.185991
-0.184723
-0.18371
-0.182938
-0.182357
-0.181903
-0.181538
-0.181252
-0.181033
-0.180858
-0.180734
-0.180656