/*--------------------------------*- C++ -*----------------------------------*\
  =========                 |
  \\      /  F ield         | OpenFOAM: The Open Source CFD Toolbox
   \\    /   O peration     | Website:  https://openfoam.org
    \\  /    A nd           | Version:  6
     \\/     M anipulation  |
\*---------------------------------------------------------------------------*/
FoamFile
{
    version     2.0;
    format      ascii;
    class       volScalarField;
    location    "3600";
    object      T;
}
// * * * * * * * * * * * * * * * * * * * * * * * * * * * * * * * * * * * * * //

dimensions      [0 0 0 1 0 0 0];

internalField   nonuniform List<scalar> 
4800
(
552.5
552.401
552.301
552.201
552.1
551.999
551.899
551.799
551.701
551.605
551.512
551.422
551.336
551.255
551.178
551.106
551.038
550.975
550.916
550.86
550.806
550.755
550.706
550.659
550.613
550.568
550.525
550.482
550.439
550.397
550.354
550.311
550.266
550.219
550.171
550.12
550.066
550.01
549.952
549.892
549.83
549.767
549.702
549.637
549.57
549.503
549.436
549.368
549.298
549.228
549.156
549.083
549.008
548.931
548.853
548.772
548.689
548.605
548.518
548.428
548.336
548.241
548.143
548.041
547.936
547.826
547.711
547.591
547.464
547.331
547.189
547.039
546.879
546.709
546.532
546.348
546.161
545.974
545.788
545.608
545.433
545.264
545.098
544.939
544.787
544.642
544.504
544.371
544.243
544.119
543.997
543.878
543.761
543.644
543.528
543.413
543.298
543.183
543.068
542.952
542.837
542.721
542.605
542.488
542.372
542.255
542.138
542.021
541.904
541.786
541.669
541.551
541.433
541.316
541.198
541.08
540.962
540.845
540.727
540.609
552.5
552.4
552.3
552.199
552.097
551.996
551.896
551.796
551.699
551.603
551.511
551.422
551.337
551.256
551.18
551.109
551.042
550.98
550.921
550.865
550.812
550.761
550.712
550.665
550.62
550.575
550.532
550.489
550.447
550.405
550.362
550.319
550.274
550.227
550.179
550.128
550.074
550.018
549.96
549.9
549.838
549.775
549.711
549.646
549.579
549.513
549.445
549.377
549.308
549.237
549.165
549.092
549.016
548.939
548.86
548.779
548.695
548.61
548.521
548.431
548.337
548.241
548.142
548.039
547.933
547.822
547.707
547.587
547.46
547.326
547.185
547.036
546.878
546.711
546.537
546.357
546.172
545.986
545.801
545.619
545.441
545.268
545.101
544.941
544.788
544.643
544.504
544.371
544.243
544.119
543.997
543.878
543.761
543.644
543.529
543.413
543.298
543.183
543.068
542.952
542.837
542.721
542.605
542.488
542.372
542.255
542.138
542.021
541.904
541.786
541.669
541.551
541.433
541.316
541.198
541.08
540.962
540.845
540.727
540.609
552.5
552.399
552.297
552.196
552.094
551.993
551.893
551.794
551.697
551.602
551.51
551.423
551.339
551.26
551.186
551.116
551.051
550.989
550.931
550.876
550.824
550.774
550.725
550.678
550.633
550.589
550.546
550.504
550.462
550.42
550.378
550.334
550.29
550.243
550.195
550.144
550.09
550.035
549.976
549.916
549.855
549.792
549.728
549.663
549.598
549.532
549.465
549.396
549.327
549.256
549.184
549.11
549.034
548.956
548.876
548.793
548.708
548.62
548.53
548.437
548.341
548.242
548.141
548.036
547.928
547.816
547.699
547.578
547.451
547.318
547.178
547.03
546.874
546.711
546.541
546.364
546.182
545.997
545.812
545.629
545.449
545.273
545.104
544.943
544.789
544.643
544.504
544.371
544.243
544.119
543.998
543.879
543.761
543.645
543.529
543.413
543.298
543.183
543.068
542.952
542.837
542.721
542.605
542.488
542.372
542.255
542.138
542.021
541.904
541.786
541.669
541.551
541.433
541.316
541.198
541.08
540.962
540.845
540.727
540.609
552.499
552.397
552.295
552.193
552.091
551.99
551.891
551.793
551.696
551.603
551.513
551.427
551.345
551.268
551.196
551.128
551.064
551.004
550.947
550.893
550.841
550.792
550.744
550.698
550.653
550.61
550.567
550.526
550.485
550.443
550.401
550.358
550.313
550.267
550.218
550.168
550.114
550.059
550.001
549.941
549.88
549.817
549.754
549.69
549.625
549.56
549.493
549.425
549.356
549.285
549.212
549.137
549.061
548.981
548.9
548.815
548.728
548.637
548.544
548.448
548.348
548.246
548.141
548.033
547.922
547.808
547.689
547.567
547.439
547.306
547.166
547.019
546.866
546.706
546.539
546.365
546.186
546.003
545.819
545.634
545.453
545.276
545.106
544.945
544.791
544.644
544.505
544.372
544.244
544.12
543.998
543.879
543.762
543.645
543.529
543.414
543.299
543.183
543.068
542.953
542.837
542.721
542.605
542.488
542.372
542.255
542.138
542.021
541.904
541.786
541.669
541.551
541.433
541.316
541.198
541.08
540.962
540.845
540.727
540.609
552.499
552.396
552.293
552.191
552.09
551.99
551.891
551.794
551.699
551.607
551.518
551.434
551.355
551.28
551.21
551.144
551.082
551.024
550.968
550.915
550.865
550.816
550.769
550.724
550.68
550.638
550.596
550.555
550.515
550.474
550.432
550.39
550.345
550.299
550.25
550.2
550.146
550.091
550.033
549.974
549.913
549.852
549.789
549.726
549.662
549.597
549.531
549.463
549.394
549.323
549.25
549.174
549.097
549.016
548.932
548.846
548.755
548.662
548.565
548.464
548.361
548.254
548.145
548.033
547.918
547.8
547.679
547.554
547.425
547.291
547.151
547.005
546.853
546.695
546.531
546.36
546.183
546.002
545.817
545.632
545.449
545.272
545.103
544.945
544.791
544.645
544.505
544.372
544.244
544.12
543.999
543.88
543.762
543.646
543.53
543.414
543.299
543.184
543.068
542.953
542.837
542.721
542.605
542.489
542.372
542.255
542.138
542.021
541.904
541.786
541.669
541.551
541.433
541.316
541.198
541.08
540.962
540.845
540.727
540.609
552.498
552.395
552.293
552.191
552.091
551.991
551.893
551.797
551.704
551.614
551.528
551.446
551.369
551.296
551.228
551.165
551.105
551.048
550.995
550.944
550.894
550.847
550.801
550.757
550.714
550.673
550.633
550.593
550.553
550.513
550.472
550.43
550.386
550.34
550.291
550.24
550.187
550.131
550.074
550.015
549.955
549.895
549.833
549.77
549.707
549.643
549.577
549.51
549.441
549.37
549.297
549.221
549.142
549.06
548.974
548.885
548.791
548.694
548.592
548.487
548.379
548.267
548.152
548.035
547.916
547.794
547.669
547.541
547.409
547.274
547.133
546.988
546.837
546.68
546.517
546.349
546.174
545.994
545.81
545.625
545.443
545.268
545.102
544.943
544.79
544.644
544.505
544.372
544.244
544.12
543.999
543.88
543.763
543.646
543.53
543.415
543.299
543.184
543.068
542.953
542.837
542.721
542.605
542.489
542.372
542.255
542.138
542.021
541.904
541.786
541.669
541.551
541.433
541.316
541.198
541.08
540.962
540.845
540.727
540.609
552.498
552.396
552.294
552.193
552.093
551.995
551.899
551.804
551.712
551.625
551.541
551.462
551.387
551.318
551.252
551.191
551.133
551.079
551.027
550.978
550.93
550.884
550.84
550.797
550.756
550.716
550.677
550.638
550.6
550.561
550.521
550.479
550.435
550.389
550.341
550.29
550.237
550.181
550.124
550.066
550.006
549.946
549.885
549.824
549.761
549.698
549.633
549.566
549.497
549.426
549.353
549.276
549.196
549.112
549.024
548.931
548.834
548.732
548.626
548.516
548.402
548.284
548.164
548.041
547.916
547.789
547.66
547.528
547.393
547.255
547.113
546.968
546.817
546.66
546.499
546.332
546.16
545.983
545.803
545.62
545.44
545.266
545.099
544.94
544.787
544.641
544.503
544.371
544.243
544.12
543.999
543.88
543.763
543.646
543.53
543.415
543.299
543.184
543.069
542.953
542.837
542.721
542.605
542.489
542.372
542.255
542.138
542.021
541.904
541.786
541.669
541.551
541.433
541.316
541.198
541.08
540.962
540.845
540.727
540.609
552.499
552.398
552.297
552.197
552.099
552.002
551.907
551.815
551.726
551.64
551.559
551.483
551.411
551.344
551.281
551.222
551.167
551.115
551.065
551.018
550.972
550.928
550.886
550.845
550.805
550.767
550.729
550.692
550.655
550.617
550.578
550.537
550.494
550.448
550.4
550.349
550.296
550.24
550.183
550.125
550.066
550.007
549.946
549.885
549.824
549.761
549.696
549.63
549.561
549.49
549.416
549.338
549.257
549.171
549.08
548.984
548.883
548.777
548.665
548.549
548.429
548.305
548.179
548.049
547.919
547.786
547.652
547.516
547.378
547.237
547.093
546.946
546.794
546.638
546.478
546.313
546.144
545.97
545.794
545.615
545.437
545.264
545.095
544.934
544.781
544.637
544.499
544.368
544.241
544.119
543.998
543.88
543.763
543.646
543.53
543.415
543.3
543.184
543.069
542.953
542.837
542.721
542.605
542.489
542.372
542.255
542.138
542.021
541.904
541.786
541.669
541.551
541.433
541.316
541.198
541.08
540.962
540.845
540.727
540.609
552.5
552.4
552.301
552.203
552.106
552.011
551.919
551.829
551.742
551.66
551.582
551.509
551.44
551.376
551.316
551.259
551.207
551.157
551.11
551.065
551.021
550.98
550.939
550.9
550.862
550.826
550.79
550.754
550.718
550.682
550.644
550.603
550.561
550.516
550.468
550.418
550.365
550.309
550.252
550.194
550.136
550.076
550.016
549.956
549.894
549.832
549.768
549.701
549.633
549.561
549.486
549.407
549.324
549.236
549.142
549.042
548.937
548.825
548.709
548.587
548.46
548.33
548.196
548.061
547.923
547.785
547.645
547.504
547.362
547.218
547.072
546.922
546.77
546.614
546.455
546.292
546.125
545.955
545.782
545.607
545.432
545.259
545.088
544.925
544.772
544.629
544.493
544.363
544.238
544.116
543.997
543.879
543.762
543.646
543.53
543.415
543.3
543.184
543.069
542.953
542.837
542.721
542.605
542.489
542.372
542.255
542.138
542.021
541.903
541.786
541.669
541.551
541.433
541.316
541.198
541.08
540.962
540.845
540.727
540.609
552.501
552.403
552.306
552.21
552.116
552.024
551.934
551.846
551.763
551.684
551.61
551.54
551.474
551.413
551.356
551.303
551.253
551.207
551.162
551.119
551.078
551.039
551
550.963
550.928
550.893
550.859
550.825
550.79
550.754
550.717
550.678
550.636
550.592
550.545
550.495
550.442
550.388
550.331
550.273
550.214
550.155
550.095
550.034
549.973
549.91
549.846
549.78
549.711
549.639
549.563
549.482
549.397
549.306
549.208
549.104
548.994
548.877
548.755
548.627
548.494
548.357
548.217
548.074
547.93
547.785
547.64
547.494
547.348
547.2
547.051
546.899
546.746
546.589
546.43
546.268
546.104
545.936
545.766
545.593
545.42
545.246
545.073
544.909
544.757
544.617
544.484
544.357
544.233
544.113
543.994
543.877
543.761
543.645
543.53
543.415
543.299
543.184
543.069
542.953
542.837
542.721
542.605
542.488
542.372
542.255
542.138
542.021
541.903
541.786
541.668
541.551
541.433
541.316
541.198
541.08
540.962
540.845
540.727
540.609
552.502
552.407
552.313
552.22
552.129
552.039
551.952
551.869
551.789
551.714
551.643
551.577
551.515
551.457
551.403
551.353
551.306
551.263
551.221
551.181
551.142
551.105
551.07
551.035
551.001
550.968
550.935
550.902
550.869
550.834
550.798
550.76
550.719
550.676
550.63
550.581
550.529
550.474
550.418
550.36
550.302
550.242
550.182
550.121
550.059
549.996
549.932
549.865
549.795
549.722
549.644
549.562
549.474
549.379
549.278
549.169
549.053
548.931
548.802
548.668
548.529
548.385
548.238
548.089
547.939
547.788
547.637
547.486
547.335
547.183
547.031
546.877
546.721
546.564
546.405
546.244
546.08
545.914
545.745
545.573
545.399
545.223
545.048
544.882
544.734
544.599
544.471
544.347
544.227
544.108
543.991
543.875
543.759
543.644
543.529
543.414
543.299
543.184
543.068
542.953
542.837
542.721
542.605
542.488
542.372
542.255
542.138
542.021
541.903
541.786
541.668
541.551
541.433
541.315
541.198
541.08
540.962
540.844
540.727
540.609
552.504
552.413
552.321
552.232
552.144
552.058
551.974
551.895
551.819
551.748
551.681
551.619
551.56
551.506
551.456
551.41
551.366
551.325
551.286
551.249
551.214
551.18
551.146
551.114
551.082
551.05
551.019
550.987
550.955
550.921
550.886
550.849
550.809
550.766
550.721
550.673
550.622
550.568
550.512
550.455
550.397
550.337
550.276
550.214
550.152
550.088
550.023
549.955
549.884
549.809
549.73
549.645
549.554
549.456
549.35
549.235
549.114
548.986
548.851
548.71
548.565
548.415
548.261
548.106
547.95
547.793
547.636
547.48
547.324
547.168
547.013
546.856
546.699
546.54
546.381
546.219
546.056
545.89
545.721
545.549
545.373
545.193
545.011
544.838
544.699
544.574
544.454
544.336
544.219
544.103
543.987
543.872
543.758
543.643
543.528
543.413
543.298
543.183
543.068
542.952
542.837
542.721
542.604
542.488
542.371
542.255
542.138
542.02
541.903
541.786
541.668
541.551
541.433
541.315
541.198
541.08
540.962
540.844
540.727
540.609
552.506
552.418
552.33
552.244
552.16
552.079
552
551.925
551.853
551.786
551.724
551.666
551.612
551.562
551.515
551.472
551.432
551.395
551.359
551.325
551.292
551.261
551.23
551.199
551.169
551.14
551.11
551.079
551.048
551.015
550.98
550.944
550.905
550.863
550.818
550.771
550.72
550.668
550.612
550.555
550.497
550.437
550.375
550.313
550.249
550.184
550.118
550.048
549.975
549.898
549.816
549.729
549.634
549.531
549.42
549.301
549.175
549.041
548.9
548.753
548.601
548.445
548.286
548.125
547.963
547.801
547.639
547.478
547.317
547.157
546.998
546.839
546.679
546.519
546.359
546.197
546.033
545.867
545.698
545.525
545.345
545.158
544.961
544.764
544.651
544.545
544.436
544.324
544.211
544.097
543.983
543.869
543.755
543.641
543.527
543.412
543.298
543.183
543.067
542.952
542.836
542.72
542.604
542.488
542.371
542.254
542.137
542.02
541.903
541.786
541.668
541.551
541.433
541.315
541.198
541.08
540.962
540.844
540.727
540.609
552.508
552.423
552.34
552.258
552.179
552.102
552.028
551.958
551.891
551.829
551.771
551.717
551.668
551.622
551.579
551.54
551.504
551.469
551.437
551.405
551.376
551.347
551.318
551.29
551.262
551.234
551.205
551.176
551.145
551.113
551.079
551.043
551.005
550.964
550.92
550.873
550.823
550.771
550.716
550.659
550.6
550.54
550.478
550.414
550.349
550.283
550.214
550.142
550.067
549.987
549.901
549.81
549.711
549.604
549.488
549.365
549.233
549.094
548.947
548.795
548.638
548.477
548.313
548.148
547.982
547.815
547.648
547.482
547.317
547.153
546.99
546.827
546.666
546.504
546.342
546.179
546.014
545.848
545.678
545.504
545.322
545.127
544.906
544.613
544.6
544.521
544.421
544.314
544.203
544.092
543.979
543.866
543.753
543.64
543.526
543.411
543.297
543.182
543.067
542.951
542.836
542.72
542.604
542.487
542.371
542.254
542.137
542.02
541.903
541.785
541.668
541.55
541.433
541.315
541.198
541.08
540.962
540.844
540.727
540.609
552.51
552.43
552.351
552.274
552.2
552.128
552.059
551.993
551.932
551.874
551.821
551.772
551.727
551.685
551.647
551.611
551.578
551.547
551.518
551.489
551.462
551.436
551.41
551.384
551.358
551.331
551.303
551.275
551.245
551.214
551.181
551.146
551.108
551.067
551.024
550.977
550.928
550.876
550.821
550.764
550.705
550.644
550.581
550.516
550.45
550.381
550.31
550.235
550.156
550.073
549.984
549.889
549.786
549.675
549.555
549.426
549.29
549.146
548.995
548.838
548.677
548.512
548.345
548.176
548.007
547.838
547.667
547.497
547.327
547.158
546.991
546.826
546.661
546.497
546.333
546.169
546.003
545.836
545.665
545.491
545.311
545.123
544.925
544.73
544.623
544.52
544.415
544.307
544.197
544.087
543.976
543.864
543.751
543.638
543.525
543.41
543.296
543.181
543.066
542.951
542.835
542.719
542.603
542.487
542.37
542.254
542.137
542.02
541.902
541.785
541.668
541.55
541.433
541.315
541.197
541.08
540.962
540.844
540.727
540.609
552.512
552.437
552.363
552.291
552.221
552.154
552.09
552.03
551.974
551.921
551.873
551.828
551.787
551.75
551.716
551.684
551.654
551.626
551.599
551.574
551.55
551.526
551.502
551.478
551.453
551.428
551.402
551.374
551.346
551.315
551.283
551.248
551.211
551.171
551.128
551.081
551.032
550.98
550.926
550.869
550.809
550.747
550.683
550.616
550.548
550.477
550.403
550.325
550.243
550.156
550.064
549.965
549.858
549.743
549.619
549.487
549.346
549.198
549.043
548.884
548.72
548.552
548.384
548.215
548.044
547.872
547.699
547.525
547.351
547.179
547.008
546.838
546.671
546.505
546.339
546.172
546.005
545.836
545.665
545.49
545.312
545.131
544.95
544.781
544.645
544.525
544.412
544.302
544.192
544.083
543.973
543.862
543.75
543.637
543.524
543.41
543.295
543.181
543.065
542.95
542.835
542.719
542.603
542.486
542.37
542.253
542.136
542.019
541.902
541.785
541.668
541.55
541.433
541.315
541.197
541.08
540.962
540.844
540.727
540.609
552.514
552.444
552.375
552.307
552.242
552.18
552.121
552.065
552.014
551.966
551.922
551.882
551.846
551.812
551.782
551.753
551.727
551.702
551.678
551.655
551.633
551.612
551.59
551.568
551.545
551.521
551.496
551.47
551.442
551.412
551.381
551.347
551.31
551.271
551.228
551.182
551.133
551.081
551.027
550.969
550.909
550.846
550.78
550.712
550.641
550.568
550.491
550.41
550.325
550.235
550.14
550.038
549.928
549.81
549.683
549.547
549.403
549.253
549.096
548.935
548.77
548.603
548.435
548.267
548.097
547.925
547.75
547.574
547.397
547.22
547.045
546.872
546.701
546.532
546.363
546.194
546.024
545.853
545.679
545.504
545.326
545.148
544.971
544.805
544.656
544.526
544.408
544.297
544.189
544.081
543.972
543.861
543.75
543.637
543.523
543.409
543.295
543.18
543.065
542.95
542.834
542.718
542.602
542.486
542.37
542.253
542.136
542.019
541.902
541.785
541.667
541.55
541.432
541.315
541.197
541.08
540.962
540.844
540.727
540.609
552.516
552.45
552.384
552.321
552.26
552.202
552.147
552.096
552.049
552.005
551.966
551.93
551.897
551.867
551.84
551.815
551.791
551.769
551.748
551.727
551.708
551.688
551.669
551.648
551.627
551.604
551.581
551.556
551.53
551.501
551.471
551.438
551.403
551.364
551.321
551.276
551.227
551.175
551.12
551.062
551.001
550.937
550.87
550.8
550.727
550.652
550.572
550.489
550.402
550.31
550.213
550.109
549.998
549.878
549.749
549.611
549.466
549.314
549.158
548.997
548.834
548.669
548.505
548.34
548.173
548.002
547.827
547.649
547.469
547.289
547.11
546.934
546.76
546.587
546.414
546.242
546.068
545.893
545.715
545.536
545.355
545.174
544.993
544.818
544.657
544.522
544.403
544.294
544.187
544.081
543.972
543.862
543.751
543.638
543.524
543.41
543.295
543.18
543.065
542.949
542.833
542.718
542.602
542.485
542.369
542.252
542.136
542.019
541.902
541.784
541.667
541.55
541.432
541.315
541.197
541.08
540.962
540.844
540.727
540.609
552.518
552.453
552.39
552.329
552.271
552.216
552.164
552.117
552.073
552.033
551.997
551.964
551.935
551.908
551.884
551.861
551.84
551.82
551.802
551.784
551.766
551.748
551.731
551.712
551.693
551.672
551.651
551.628
551.603
551.577
551.548
551.516
551.482
551.444
551.402
551.358
551.309
551.257
551.202
551.144
551.082
551.017
550.949
550.878
550.804
550.727
550.647
550.563
550.474
550.382
550.285
550.182
550.071
549.952
549.823
549.685
549.54
549.389
549.234
549.076
548.916
548.757
548.599
548.441
548.278
548.109
547.935
547.756
547.575
547.393
547.211
547.032
546.854
546.678
546.502
546.324
546.145
545.964
545.78
545.594
545.406
545.215
545.021
544.828
544.647
544.512
544.399
544.293
544.189
544.084
543.976
543.866
543.754
543.64
543.526
543.411
543.295
543.18
543.064
542.949
542.833
542.717
542.601
542.485
542.369
542.252
542.135
542.018
541.901
541.784
541.667
541.55
541.432
541.315
541.197
541.08
540.962
540.844
540.727
540.609
552.518
552.453
552.39
552.329
552.272
552.217
552.167
552.121
552.08
552.042
552.008
551.978
551.95
551.926
551.903
551.883
551.864
551.847
551.83
551.814
551.798
551.783
551.767
551.751
551.734
551.716
551.697
551.677
551.654
551.63
551.604
551.574
551.541
551.505
551.465
551.421
551.373
551.322
551.267
551.208
551.147
551.082
551.014
550.944
550.87
550.793
550.714
550.631
550.545
550.455
550.362
550.262
550.155
550.039
549.913
549.776
549.632
549.484
549.332
549.179
549.027
548.876
548.726
548.575
548.418
548.252
548.08
547.901
547.72
547.537
547.354
547.174
546.995
546.816
546.636
546.454
546.268
546.079
545.885
545.688
545.487
545.281
545.066
544.84
544.613
544.5
544.401
544.302
544.199
544.093
543.984
543.872
543.759
543.644
543.529
543.413
543.297
543.181
543.065
542.949
542.833
542.717
542.601
542.484
542.368
542.252
542.135
542.018
541.901
541.784
541.667
541.549
541.432
541.315
541.197
541.079
540.962
540.844
540.727
540.609
552.516
552.448
552.382
552.318
552.258
552.201
552.15
552.103
552.061
552.023
551.989
551.959
551.933
551.909
551.888
551.869
551.852
551.836
551.821
551.807
551.794
551.78
551.767
551.753
551.739
551.725
551.709
551.692
551.673
551.653
551.629
551.602
551.572
551.538
551.5
551.457
551.411
551.361
551.307
551.25
551.19
551.127
551.062
550.994
550.923
550.85
550.775
550.697
550.618
550.535
550.449
550.357
550.258
550.15
550.028
549.896
549.755
549.61
549.463
549.318
549.174
549.033
548.892
548.749
548.598
548.435
548.264
548.088
547.908
547.727
547.547
547.369
547.191
547.012
546.83
546.642
546.449
546.249
546.042
545.829
545.61
545.385
545.146
544.872
544.494
544.504
544.426
544.326
544.22
544.109
543.997
543.882
543.767
543.65
543.533
543.416
543.299
543.182
543.065
542.949
542.833
542.716
542.6
542.484
542.368
542.251
542.135
542.018
541.901
541.784
541.667
541.549
541.432
541.314
541.197
541.079
540.962
540.844
540.726
540.609
552.512
552.435
552.361
552.29
552.223
552.161
552.104
552.052
552.006
551.966
551.93
551.898
551.87
551.846
551.825
551.807
551.791
551.777
551.763
551.751
551.739
551.728
551.717
551.707
551.697
551.686
551.674
551.661
551.647
551.63
551.611
551.588
551.562
551.531
551.496
551.457
551.413
551.366
551.315
551.261
551.205
551.147
551.088
551.027
550.964
550.9
550.835
550.768
550.701
550.632
550.559
550.48
550.394
550.298
550.185
550.057
549.92
549.779
549.639
549.502
549.368
549.237
549.104
548.967
548.819
548.659
548.491
548.317
548.142
547.967
547.795
547.623
547.452
547.277
547.095
546.904
546.701
546.488
546.265
546.031
545.792
545.547
545.295
545.035
544.785
544.633
544.5
544.375
544.253
544.134
544.015
543.896
543.777
543.657
543.538
543.42
543.301
543.184
543.066
542.949
542.833
542.716
542.6
542.484
542.367
542.251
542.134
542.017
541.901
541.783
541.666
541.549
541.432
541.314
541.197
541.079
540.962
540.844
540.726
540.609
552.504
552.414
552.326
552.241
552.162
552.089
552.022
551.962
551.908
551.86
551.818
551.781
551.749
551.722
551.699
551.681
551.665
551.651
551.639
551.628
551.619
551.61
551.602
551.595
551.589
551.582
551.575
551.567
551.558
551.547
551.533
551.515
551.494
551.468
551.438
551.403
551.364
551.322
551.277
551.231
551.185
551.138
551.091
551.043
550.996
550.949
550.901
550.855
550.808
550.76
550.705
550.643
550.577
550.498
550.398
550.274
550.14
550.003
549.87
549.741
549.616
549.492
549.364
549.229
549.083
548.922
548.755
548.586
548.42
548.257
548.1
547.944
547.785
547.62
547.443
547.25
547.039
546.812
546.569
546.313
546.052
545.787
545.519
545.253
545.005
544.778
544.593
544.436
544.296
544.164
544.037
543.912
543.789
543.666
543.545
543.424
543.305
543.186
543.068
542.95
542.833
542.716
542.6
542.483
542.367
542.25
542.134
542.017
541.9
541.783
541.666
541.549
541.432
541.314
541.197
541.079
540.962
540.844
540.726
540.609
552.493
552.381
552.273
552.169
552.072
551.982
551.899
551.825
551.758
551.698
551.646
551.599
551.559
551.525
551.498
551.476
551.459
551.445
551.433
551.423
551.415
551.408
551.403
551.399
551.395
551.392
551.39
551.387
551.384
551.379
551.371
551.36
551.346
551.327
551.304
551.277
551.247
551.214
551.182
551.15
551.122
551.096
551.072
551.049
551.028
551.007
550.988
550.97
550.954
550.936
550.903
550.861
550.818
550.763
550.679
550.561
550.427
550.294
550.166
550.045
549.926
549.804
549.675
549.537
549.385
549.22
549.053
548.892
548.741
548.6
548.468
548.336
548.197
548.048
547.882
547.691
547.474
547.233
546.971
546.692
546.407
546.114
545.817
545.509
545.204
544.907
544.68
544.498
544.34
544.196
544.06
543.93
543.802
543.676
543.552
543.43
543.309
543.188
543.069
542.951
542.833
542.716
542.6
542.483
542.367
542.25
542.134
542.017
541.9
541.783
541.666
541.549
541.432
541.314
541.197
541.079
540.962
540.844
540.726
540.609
552.479
552.339
552.204
552.074
551.953
551.84
551.737
551.642
551.556
551.479
551.409
551.347
551.292
551.246
551.208
551.18
551.158
551.141
551.128
551.117
551.109
551.102
551.097
551.094
551.092
551.092
551.092
551.094
551.095
551.096
551.096
551.094
551.089
551.081
551.069
551.055
551.04
551.025
551.014
551.009
551.013
551.023
551.037
551.054
551.072
551.091
551.11
551.132
551.156
551.176
551.167
551.141
551.122
551.097
551.037
550.926
550.79
550.659
550.537
550.422
550.303
550.176
550.039
549.89
549.726
549.551
549.381
549.233
549.108
549.004
548.91
548.808
548.694
548.566
548.413
548.229
548.009
547.756
547.475
547.172
546.861
546.53
546.18
545.785
545.372
544.983
544.736
544.545
544.38
544.228
544.084
543.948
543.816
543.687
543.56
543.436
543.313
543.191
543.071
542.952
542.834
542.717
542.6
542.483
542.366
542.25
542.133
542.017
541.9
541.783
541.666
541.549
541.431
541.314
541.197
541.079
540.962
540.844
540.726
540.609
552.463
552.291
552.124
551.965
551.815
551.675
551.545
551.425
551.313
551.211
551.116
551.029
550.95
550.881
550.825
550.781
550.748
550.723
550.704
550.689
550.678
550.668
550.66
550.655
550.651
550.65
550.651
550.654
550.659
550.665
550.673
550.682
550.69
550.698
550.705
550.712
550.723
550.739
550.765
550.805
550.861
550.927
551.001
551.077
551.149
551.219
551.286
551.354
551.426
551.486
551.497
551.481
551.48
551.488
551.46
551.367
551.229
551.1
550.984
550.876
550.756
550.615
550.463
550.3
550.117
549.922
549.749
549.623
549.542
549.497
549.457
549.378
549.288
549.176
549.033
548.859
548.635
548.37
548.069
547.735
547.397
547.002
546.559
546.03
545.464
544.909
544.736
544.572
544.412
544.256
544.108
543.966
543.829
543.697
543.568
543.442
543.317
543.195
543.073
542.954
542.835
542.717
542.6
542.483
542.366
542.25
542.133
542.016
541.9
541.783
541.666
541.549
541.431
541.314
541.197
541.079
540.962
540.844
540.726
540.609
552.447
552.244
552.047
551.858
551.678
551.509
551.349
551.197
551.053
550.915
550.784
550.659
550.541
550.435
550.345
550.273
550.218
550.177
550.144
550.12
550.1
550.082
550.066
550.053
550.043
550.037
550.034
550.035
550.041
550.052
550.07
550.093
550.119
550.15
550.186
550.228
550.28
550.347
550.43
550.54
550.675
550.824
550.98
551.135
551.278
551.408
551.526
551.642
551.759
551.852
551.875
551.857
551.863
551.898
551.908
551.851
551.724
551.601
551.496
551.411
551.291
551.13
550.967
550.801
550.602
550.375
550.199
550.119
550.107
550.154
550.187
550.086
550.013
549.903
549.753
549.591
549.349
549.065
548.739
548.342
547.979
547.464
546.875
546.179
545.45
544.829
544.707
544.584
544.439
544.284
544.13
543.983
543.842
543.707
543.576
543.448
543.322
543.198
543.075
542.955
542.836
542.717
542.6
542.483
542.366
542.249
542.133
542.016
541.899
541.783
541.666
541.549
541.431
541.314
541.197
541.079
540.962
540.844
540.726
540.609
552.436
552.21
551.99
551.777
551.57
551.371
551.179
550.99
550.804
550.62
550.438
550.259
550.084
549.92
549.775
549.655
549.562
549.49
549.435
549.392
549.357
549.325
549.294
549.267
549.246
549.229
549.22
549.217
549.221
549.237
549.266
549.308
549.36
549.422
549.499
549.591
549.704
549.842
550.01
550.221
550.465
550.722
550.982
551.234
551.462
551.657
551.825
551.978
552.126
552.234
552.259
552.224
552.223
552.278
552.318
552.308
552.214
552.116
552.033
552.006
551.904
551.72
551.588
551.456
551.282
550.989
550.812
550.847
550.937
551.112
551.253
550.978
550.951
550.801
550.606
550.472
550.181
549.85
549.497
548.975
548.602
547.829
546.993
546.15
545.195
544.574
544.647
544.594
544.467
544.311
544.152
543.999
543.854
543.716
543.583
543.453
543.326
543.2
543.077
542.956
542.836
542.718
542.6
542.483
542.366
542.249
542.133
542.016
541.899
541.783
541.666
541.549
541.431
541.314
541.197
541.079
540.962
540.844
540.726
540.609
552.43
552.195
551.964
551.735
551.505
551.278
551.051
550.822
550.586
550.345
550.098
549.847
549.595
549.349
549.125
548.932
548.781
548.664
548.573
548.503
548.446
548.392
548.34
548.295
548.26
548.232
548.215
548.209
548.216
548.24
548.285
548.35
548.433
548.532
548.659
548.81
549
549.227
549.506
549.854
550.234
550.607
550.978
551.34
551.661
551.927
552.145
552.317
552.47
552.569
552.58
552.505
552.49
552.589
552.596
552.613
552.497
552.474
552.448
552.406
552.322
552.284
552.332
552.343
552.226
551.994
551.913
551.984
552.171
552.277
552.391
551.996
551.989
551.692
551.487
551.163
550.699
550.332
549.867
549.382
548.729
547.884
547.158
546.141
545.297
544.763
544.669
544.635
544.505
544.341
544.173
544.014
543.865
543.724
543.589
543.457
543.329
543.203
543.079
542.957
542.837
542.718
542.6
542.483
542.366
542.249
542.133
542.016
541.899
541.783
541.666
541.549
541.431
541.314
541.197
541.079
540.962
540.844
540.726
540.609
552.413
552.163
551.923
551.682
551.429
551.174
550.912
550.646
550.361
550.06
549.742
549.412
549.07
548.732
548.409
548.123
547.895
547.722
547.587
547.484
547.401
547.319
547.239
547.172
547.129
547.1
547.085
547.089
547.11
547.153
547.222
547.313
547.425
547.554
547.725
547.928
548.199
548.519
548.925
549.424
549.944
550.398
550.849
551.308
551.72
552.072
552.371
552.55
552.689
552.747
552.71
552.552
552.641
552.707
552.752
552.761
552.708
552.685
552.706
552.63
552.607
552.76
553.19
553.572
553.69
553.704
553.696
553.814
554.156
554.137
553.97
553.55
553.409
552.84
552.507
551.659
551.005
550.139
549.726
548.773
548.187
547.18
546.679
545.896
545.334
544.753
544.781
544.701
544.547
544.368
544.191
544.026
543.874
543.73
543.594
543.461
543.332
543.205
543.081
542.958
542.838
542.719
542.6
542.483
542.366
542.249
542.133
542.016
541.899
541.783
541.666
541.549
541.431
541.314
541.197
541.079
540.962
540.844
540.727
540.609
552.302
551.955
551.68
551.424
551.132
550.854
550.565
550.299
549.983
549.649
549.283
548.894
548.469
548.06
547.652
547.271
546.963
546.738
546.571
546.436
546.341
546.226
546.106
546.011
545.96
545.956
545.977
546.023
546.089
546.165
546.262
546.368
546.491
546.613
546.823
547.038
547.398
547.803
548.3
548.809
549.332
549.83
550.303
550.762
551.22
551.736
552.267
552.61
552.73
552.829
552.733
552.707
552.841
552.78
552.695
552.785
552.811
552.81
552.667
552.733
552.802
553.189
554.251
554.962
555.657
555.98
556.323
556.308
557.036
556.792
556.515
555.688
555.259
554.411
553.643
552.673
551.355
550.103
549.327
548.656
547.737
546.909
545.856
545.248
544.5
544.304
544.665
544.695
544.562
544.383
544.203
544.035
543.88
543.735
543.597
543.464
543.334
543.207
543.082
542.959
542.838
542.719
542.601
542.483
542.366
542.249
542.133
542.016
541.899
541.783
541.666
541.549
541.432
541.314
541.197
541.079
540.962
540.844
540.727
540.609