/*--------------------------------*- C++ -*----------------------------------*\
  =========                 |
  \\      /  F ield         | OpenFOAM: The Open Source CFD Toolbox
   \\    /   O peration     | Website:  https://openfoam.org
    \\  /    A nd           | Version:  6
     \\/     M anipulation  |
\*---------------------------------------------------------------------------*/
FoamFile
{
    version     2.0;
    format      ascii;
    class       volVectorField;
    location    "3600";
    object      U;
}
// * * * * * * * * * * * * * * * * * * * * * * * * * * * * * * * * * * * * * //

dimensions      [0 1 -1 0 0 0 0];

internalField   nonuniform List<vector> 
4800
(
(3.72753e-05 0 -6.98469e-05)
(8.06618e-05 0 -8.21177e-05)
(0.000134563 0 -7.71782e-05)
(0.000174526 0 -4.42557e-05)
(0.000186418 0 -2.89818e-05)
(0.000181312 0 -2.86101e-05)
(0.000155726 0 -5.27368e-05)
(0.000135313 0 -4.06622e-05)
(5.83984e-05 0 -0.000103173)
(-9.0041e-05 0 -2.40246e-05)
(-0.00014908 0 5.87024e-06)
(-0.000227835 0 -6.42594e-05)
(-0.000322156 0 -0.000108673)
(-0.000470713 0 -5.97828e-05)
(-0.000630857 0 -8.10448e-05)
(-0.000777445 0 -1.04537e-06)
(-0.000869426 0 -5.35393e-06)
(-0.000927818 0 8.15367e-05)
(-0.000975951 0 -3.33923e-06)
(-0.00101532 0 1.85156e-05)
(-0.00104461 0 -7.9659e-07)
(-0.00106975 0 8.89303e-06)
(-0.00110098 0 -3.70787e-05)
(-0.00112902 0 3.38423e-05)
(-0.00114902 0 -2.1178e-05)
(-0.00117292 0 1.81556e-05)
(-0.00120446 0 -3.91347e-06)
(-0.00122594 0 -6.23265e-06)
(-0.00123073 0 -1.33093e-05)
(-0.00119897 0 -4.27558e-05)
(-0.0011034 0 -8.83464e-05)
(-0.00101351 0 -8.38219e-05)
(-0.000958675 0 -4.25284e-05)
(-0.000926994 0 -1.71956e-05)
(-0.000913108 0 -1.47313e-05)
(-0.000914451 0 -9.97014e-06)
(-0.000926271 0 -3.73752e-07)
(-0.000928894 0 3.23516e-05)
(-0.000934911 0 -1.29214e-05)
(-0.000964986 0 2.20766e-05)
(-0.000988925 0 2.01479e-05)
(-0.00101526 0 7.68217e-06)
(-0.00105417 0 1.13799e-06)
(-0.00109238 0 2.94545e-05)
(-0.00112271 0 1.48105e-05)
(-0.00114404 0 -2.82479e-06)
(-0.00115228 0 -3.86558e-06)
(-0.00113694 0 -2.12786e-05)
(-0.0010623 0 -5.02878e-05)
(-0.00100084 0 -5.59946e-05)
(-0.000970783 0 -5.67924e-05)
(-0.000956572 0 -4.9811e-05)
(-0.000900867 0 -3.77803e-05)
(-0.000792605 0 -4.75185e-05)
(-0.000709706 0 -2.79292e-05)
(-0.000654045 0 -9.56013e-06)
(-0.000585622 0 -2.62676e-05)
(-0.000486603 0 -1.45243e-05)
(-0.000375849 0 -2.63527e-05)
(-0.000268905 0 -4.69391e-05)
(-0.000169567 0 -2.25895e-05)
(-7.43969e-05 0 -3.02089e-05)
(2.20213e-05 0 -6.8775e-05)
(0.000129632 0 2.55577e-05)
(0.000194102 0 -2.56059e-05)
(0.000225688 0 -0.000107319)
(0.000320492 0 -9.15143e-05)
(0.000431759 0 -5.46573e-05)
(0.000441659 0 -2.04535e-05)
(0.000435432 0 -1.33634e-05)
(0.000453175 0 4.66947e-06)
(0.000447101 0 1.35676e-05)
(0.000395673 0 5.14706e-05)
(0.00032344 0 1.27908e-05)
(3.3544e-05 0 3.31323e-05)
(-0.000263613 0 -0.000177728)
(-0.00029308 0 -0.000149281)
(-0.000393161 0 -0.00020039)
(-0.000426117 0 -0.000236022)
(-0.000347904 0 -0.000369338)
(-0.000697206 0 -0.000305591)
(5.42958e-06 0 -6.53232e-05)
(-1.16767e-12 0 1.50655e-13)
(-2.94025e-12 0 -6.11464e-15)
(-1.59116e-12 0 -3.52165e-14)
(-1.51875e-12 0 -3.60997e-14)
(-1.44675e-12 0 -3.69998e-14)
(-1.36942e-12 0 -4.14842e-14)
(-1.28087e-12 0 -4.7904e-14)
(-1.17913e-12 0 -5.44166e-14)
(-1.06528e-12 0 -5.99177e-14)
(-9.41871e-13 0 -6.39097e-14)
(-8.12054e-13 0 -6.62516e-14)
(-6.79055e-13 0 -6.69838e-14)
(-5.45926e-13 0 -6.62339e-14)
(-4.15426e-13 0 -6.41749e-14)
(-2.89981e-13 0 -6.10009e-14)
(-1.71666e-13 0 -5.69115e-14)
(-6.21785e-14 0 -5.21011e-14)
(3.71806e-14 0 -4.67525e-14)
(1.25494e-13 0 -4.10355e-14)
(2.02197e-13 0 -3.51073e-14)
(2.67031e-13 0 -2.9111e-14)
(3.19988e-13 0 -2.31731e-14)
(3.61274e-13 0 -1.73997e-14)
(3.9127e-13 0 -1.18756e-14)
(4.10498e-13 0 -6.66588e-15)
(4.19598e-13 0 -1.81778e-15)
(4.19294e-13 0 2.63832e-15)
(4.10376e-13 0 6.6885e-15)
(3.9368e-13 0 1.03331e-14)
(3.7007e-13 0 1.35803e-14)
(3.40411e-13 0 1.64395e-14)
(3.0553e-13 0 1.89169e-14)
(2.66192e-13 0 2.10159e-14)
(2.23093e-13 0 2.27397e-14)
(1.7688e-13 0 2.40937e-14)
(1.28188e-13 0 2.50863e-14)
(7.76692e-14 0 2.5728e-14)
(2.60187e-14 0 2.60313e-14)
(2.93175e-05 0 -0.000129133)
(5.17989e-05 0 -0.000104649)
(0.000105769 0 -3.56642e-05)
(0.000107461 0 -2.68075e-05)
(5.5401e-05 0 1.73665e-05)
(1.15036e-05 0 6.36711e-05)
(-5.14045e-05 0 8.22915e-05)
(-0.000129229 0 9.28431e-05)
(-0.000175669 0 0.000108721)
(-0.000189815 0 0.000104497)
(-0.000327646 0 0.000114091)
(-0.000475212 0 0.000188518)
(-0.000535985 0 0.000245559)
(-0.000618949 0 0.000186622)
(-0.00068189 0 0.000136446)
(-0.000759693 0 0.000155895)
(-0.000840615 0 8.64169e-05)
(-0.000893089 0 4.81839e-05)
(-0.000943575 0 3.93929e-05)
(-0.000986542 0 6.12367e-05)
(-0.00101738 0 2.34055e-05)
(-0.00104452 0 5.20455e-05)
(-0.00108128 0 7.45714e-05)
(-0.00112464 0 4.33328e-05)
(-0.00115887 0 4.61646e-05)
(-0.00118708 0 3.13107e-05)
(-0.00121132 0 3.94691e-05)
(-0.00122218 0 2.67049e-05)
(-0.0012084 0 -1.84695e-05)
(-0.0011664 0 -8.58574e-05)
(-0.00110537 0 -0.00010889)
(-0.00101971 0 -8.72818e-05)
(-0.000944863 0 -4.34662e-05)
(-0.000900422 0 -2.04472e-05)
(-0.000884138 0 -2.39375e-05)
(-0.000888593 0 -1.45387e-05)
(-0.000898342 0 -4.34992e-06)
(-0.000902831 0 2.82091e-06)
(-0.000932468 0 4.30241e-05)
(-0.000978019 0 5.36931e-05)
(-0.00102108 0 4.47674e-05)
(-0.00106111 0 5.21714e-05)
(-0.00109139 0 6.40251e-05)
(-0.00111788 0 5.15079e-05)
(-0.00114172 0 3.59827e-05)
(-0.00114939 0 2.5733e-05)
(-0.00114202 0 -6.40464e-06)
(-0.00111176 0 -6.43011e-05)
(-0.00106785 0 -7.6557e-05)
(-0.00101955 0 -6.51617e-05)
(-0.000982918 0 -5.3593e-05)
(-0.000957766 0 -4.88817e-05)
(-0.00091414 0 -6.93186e-05)
(-0.000822026 0 -0.000147921)
(-0.000746142 0 -0.000147739)
(-0.000702026 0 -7.7256e-05)
(-0.000626509 0 -0.00014025)
(-0.000529393 0 -0.000170831)
(-0.000427075 0 -0.000199709)
(-0.000330926 0 -0.000190858)
(-0.000263737 0 -0.000127267)
(-0.000167031 0 -0.000190202)
(-8.39812e-05 0 -0.000209053)
(7.44231e-05 0 -9.02444e-05)
(0.000177835 0 -2.55259e-05)
(0.000188204 0 -0.000146574)
(0.000276695 0 -0.000146436)
(0.000381566 0 -6.97953e-06)
(0.000396269 0 -2.1272e-05)
(0.000404445 0 -3.924e-05)
(0.000445374 0 -3.04969e-05)
(0.000456141 0 7.81177e-05)
(0.000427859 0 0.000114021)
(0.000404959 0 0.000193242)
(0.000296518 0 0.000219611)
(0.00023745 0 0.000223489)
(0.000171719 0 0.000197162)
(0.000152386 0 0.000182851)
(7.78688e-06 0 4.40246e-05)
(0.000179829 0 -9.66538e-05)
(-0.000372046 0 -0.000277075)
(4.95043e-06 0 -9.08824e-05)
(-1.0794e-12 0 -1.91255e-13)
(-3.16445e-12 0 -1.75507e-13)
(-1.62159e-12 0 -1.368e-13)
(-1.5206e-12 0 -1.08517e-13)
(-1.45206e-12 0 -1.07167e-13)
(-1.38032e-12 0 -1.22478e-13)
(-1.2938e-12 0 -1.43718e-13)
(-1.19115e-12 0 -1.64376e-13)
(-1.07477e-12 0 -1.81333e-13)
(-9.48205e-13 0 -1.93388e-13)
(-8.15128e-13 0 -2.00303e-13)
(-6.79038e-13 0 -2.02304e-13)
(-5.43118e-13 0 -1.99834e-13)
(-4.10193e-13 0 -1.93441e-13)
(-2.82718e-13 0 -1.8371e-13)
(-1.62767e-13 0 -1.71234e-13)
(-5.20194e-14 0 -1.56592e-13)
(4.82462e-14 0 -1.40341e-13)
(1.37139e-13 0 -1.23004e-13)
(2.14122e-13 0 -1.05065e-13)
(2.78965e-13 0 -8.69613e-14)
(3.31699e-13 0 -6.90715e-14)
(3.72572e-13 0 -5.17108e-14)
(4.02003e-13 0 -3.51275e-14)
(4.20556e-13 0 -1.95049e-14)
(4.28902e-13 0 -4.96776e-15)
(4.27801e-13 0 8.41027e-15)
(4.18071e-13 0 2.05957e-14)
(4.00572e-13 0 3.15811e-14)
(3.76177e-13 0 4.13693e-14)
(3.45748e-13 0 4.99645e-14)
(3.10106e-13 0 5.73719e-14)
(2.70015e-13 0 6.36053e-14)
(2.26171e-13 0 6.86922e-14)
(1.79227e-13 0 7.26727e-14)
(1.29822e-13 0 7.55926e-14)
(7.86141e-14 0 7.7497e-14)
(2.63219e-14 0 7.8434e-14)
(1.30247e-05 0 -0.000153864)
(1.26446e-05 0 -0.0001143)
(4.41304e-05 0 -4.49566e-05)
(5.03561e-05 0 3.13565e-05)
(-3.82192e-05 0 8.28813e-05)
(-8.98107e-05 0 0.00010863)
(-0.000145883 0 0.000130022)
(-0.000147976 0 0.000186925)
(-0.000301878 0 0.000140239)
(-0.000412577 0 6.96053e-05)
(-0.00039046 0 0.000341619)
(-0.000590211 0 0.000229416)
(-0.000621137 0 0.000290056)
(-0.000653759 0 0.000333111)
(-0.000739422 0 0.0002029)
(-0.000780161 0 0.00017349)
(-0.000823904 0 0.000186752)
(-0.000877111 0 0.000121384)
(-0.000912289 0 9.67774e-05)
(-0.000933954 0 9.77876e-05)
(-0.000950096 0 0.0001217)
(-0.000991022 0 9.02937e-05)
(-0.00105738 0 8.78226e-05)
(-0.00111813 0 6.09492e-05)
(-0.00115412 0 7.08078e-05)
(-0.0011821 0 7.88274e-05)
(-0.0012066 0 5.87727e-05)
(-0.00121355 0 3.05026e-05)
(-0.00118982 0 -8.35201e-05)
(-0.00116778 0 -0.000134793)
(-0.0011587 0 -0.000162782)
(-0.00110881 0 -0.000281951)
(-0.00104663 0 -0.000131754)
(-0.000959394 0 -6.86536e-05)
(-0.000892486 0 -5.70589e-05)
(-0.000860839 0 1.43191e-05)
(-0.000851474 0 4.69364e-05)
(-0.000859466 0 5.29641e-05)
(-0.000911461 0 7.79469e-05)
(-0.000970817 0 0.000102791)
(-0.00101676 0 8.73442e-05)
(-0.00104891 0 9.68549e-05)
(-0.0010777 0 9.55883e-05)
(-0.00110552 0 6.86103e-05)
(-0.00111895 0 5.67788e-05)
(-0.00111382 0 1.41241e-05)
(-0.00108668 0 -5.6417e-05)
(-0.00107487 0 -9.42053e-05)
(-0.00106084 0 -0.000135417)
(-0.00102615 0 -0.000127385)
(-0.000988946 0 -0.000124378)
(-0.000959691 0 -0.00016118)
(-0.000940601 0 -0.000121847)
(-0.000866269 0 -0.000235623)
(-0.0008035 0 -0.000227234)
(-0.000769564 0 -0.000115406)
(-0.000685765 0 -0.000227169)
(-0.000615804 0 -0.000247813)
(-0.000534834 0 -0.000274649)
(-0.000458036 0 -0.000266349)
(-0.000389517 0 -0.000244524)
(-0.000278978 0 -0.00030249)
(-0.000221278 0 -0.000279492)
(-9.50632e-05 0 -0.000303035)
(-3.96454e-05 0 -0.000249912)
(9.68656e-05 0 -0.00021579)
(0.000208822 0 -0.000133169)
(0.000252163 0 -8.56013e-05)
(0.000296732 0 -7.45957e-05)
(0.000322599 0 -0.000192783)
(0.000436718 0 -6.39449e-06)
(0.000470562 0 2.77303e-05)
(0.000442707 0 0.000156853)
(0.000443313 0 0.000219674)
(0.00045555 0 0.000286438)
(0.000417729 0 0.000304675)
(0.000413281 0 0.0002486)
(0.000337757 0 0.000242981)
(0.000281693 0 4.33855e-05)
(0.000365312 0 -8.69584e-05)
(-7.81135e-05 0 -0.000248578)
(5.20798e-06 0 0.000189697)
(-1.11601e-12 0 -1.21254e-12)
(-2.97724e-12 0 -4.35464e-13)
(-1.5244e-12 0 -2.30152e-13)
(-1.48901e-12 0 -1.54016e-13)
(-1.46057e-12 0 -1.60186e-13)
(-1.40597e-12 0 -1.97312e-13)
(-1.32276e-12 0 -2.40036e-13)
(-1.21675e-12 0 -2.77994e-13)
(-1.09429e-12 0 -3.07571e-13)
(-9.60842e-13 0 -3.27882e-13)
(-8.20971e-13 0 -3.3912e-13)
(-6.78587e-13 0 -3.41933e-13)
(-5.37063e-13 0 -3.37189e-13)
(-3.99301e-13 0 -3.25859e-13)
(-2.67774e-13 0 -3.08947e-13)
(-1.44548e-13 0 -2.87462e-13)
(-3.12856e-14 0 -2.62394e-13)
(7.07689e-14 0 -2.34696e-13)
(1.6077e-13 0 -2.05264e-13)
(2.3824e-13 0 -1.74919e-13)
(3.03024e-13 0 -1.44391e-13)
(3.55238e-13 0 -1.14306e-13)
(3.95218e-13 0 -8.51745e-14)
(4.23476e-13 0 -5.73935e-14)
(4.40658e-13 0 -3.12489e-14)
(4.47513e-13 0 -6.93076e-15)
(4.44858e-13 0 1.54479e-14)
(4.33547e-13 0 3.58291e-14)
(4.14454e-13 0 5.41882e-14)
(3.88454e-13 0 7.05153e-14)
(3.56414e-13 0 8.48093e-14)
(3.19171e-13 0 9.70837e-14)
(2.77512e-13 0 1.07376e-13)
(2.3216e-13 0 1.15752e-13)
(1.8378e-13 0 1.22299e-13)
(1.33012e-13 0 1.27109e-13)
(8.05105e-14 0 1.30267e-13)
(2.69557e-14 0 1.31854e-13)
(3.27641e-06 0 -0.00016272)
(-6.47562e-05 0 -4.85599e-05)
(-9.63907e-05 0 -1.25967e-06)
(-7.69665e-05 0 4.84466e-05)
(-0.000121799 0 0.000123503)
(-0.000152967 0 0.000162305)
(-0.000273128 0 0.000125193)
(-0.000253118 0 0.000208009)
(-0.000287864 0 0.000290083)
(-0.000432602 0 0.000305342)
(-0.000536974 0 0.000310482)
(-0.00059628 0 0.000320296)
(-0.00065537 0 0.000258059)
(-0.000665349 0 0.00035713)
(-0.000743011 0 0.000340059)
(-0.00078684 0 0.000284339)
(-0.00081849 0 0.000209842)
(-0.000847703 0 0.000150761)
(-0.000860483 0 0.000146437)
(-0.000884289 0 9.23043e-05)
(-0.000922493 0 5.37284e-05)
(-0.00096998 0 0.00011499)
(-0.00103155 0 0.00012265)
(-0.00108079 0 0.000134031)
(-0.00112025 0 0.000125287)
(-0.00116406 0 4.6077e-05)
(-0.00119404 0 4.63941e-05)
(-0.00120639 0 8.95364e-06)
(-0.00119459 0 -9.70384e-05)
(-0.00118157 0 -0.000126351)
(-0.00119182 0 -0.000169602)
(-0.00120767 0 -0.000172668)
(-0.00117883 0 -0.000196101)
(-0.00108685 0 -0.00021293)
(-0.000976859 0 -0.000137315)
(-0.000880289 0 -4.12218e-05)
(-0.000850364 0 1.6287e-06)
(-0.000861564 0 6.004e-05)
(-0.000893255 0 0.000123915)
(-0.000927071 0 0.00016221)
(-0.000985852 0 0.000135679)
(-0.00103029 0 0.000107287)
(-0.00105291 0 9.18823e-05)
(-0.0010668 0 8.82814e-05)
(-0.00107087 0 6.48436e-05)
(-0.00105946 0 -1.79857e-05)
(-0.00104232 0 -6.51299e-05)
(-0.00103651 0 -8.00235e-05)
(-0.00104332 0 -9.9899e-05)
(-0.00104946 0 -0.000105187)
(-0.00101376 0 -0.000144694)
(-0.000965216 0 -0.000129456)
(-0.00093968 0 -8.57806e-05)
(-0.000879019 0 -0.000282884)
(-0.000821551 0 -0.000272341)
(-0.000787063 0 -0.000166056)
(-0.000697116 0 -0.000308321)
(-0.000644089 0 -0.000325424)
(-0.00059693 0 -0.000313235)
(-0.000527771 0 -0.000333072)
(-0.000473815 0 -0.000329748)
(-0.000396214 0 -0.000357767)
(-0.000308416 0 -0.000365102)
(-0.000259106 0 -0.00032884)
(-0.000178558 0 -0.000324656)
(-7.82961e-05 0 -0.000325947)
(1.93448e-06 0 -0.000300872)
(0.000154799 0 -0.000160467)
(0.000229321 0 -0.000123316)
(0.000277639 0 -0.000157932)
(0.000364792 0 -4.00585e-05)
(0.000372545 0 6.71374e-05)
(0.000394114 0 0.000112385)
(0.00040691 0 0.000216566)
(0.000461017 0 0.000244322)
(0.000505696 0 0.000262733)
(0.000496767 0 0.000259266)
(0.000475847 0 0.000217088)
(0.00042665 0 9.27335e-05)
(0.000462858 0 -6.06079e-05)
(2.82482e-05 0 -0.000134494)
(4.9213e-05 0 0.000381396)
(5.71549e-13 0 3.10169e-12)
(-2.26932e-12 0 3.45829e-13)
(-1.33972e-12 0 -1.9334e-13)
(-1.45028e-12 0 -1.16866e-13)
(-1.49522e-12 0 -1.81842e-13)
(-1.46017e-12 0 -2.66217e-13)
(-1.37448e-12 0 -3.40771e-13)
(-1.25868e-12 0 -3.99661e-13)
(-1.12466e-12 0 -4.42765e-13)
(-9.79754e-13 0 -4.71172e-13)
(-8.29178e-13 0 -4.86145e-13)
(-6.77107e-13 0 -4.88987e-13)
(-5.27044e-13 0 -4.81067e-13)
(-3.8195e-13 0 -4.63818e-13)
(-2.4432e-13 0 -4.38707e-13)
(-1.16213e-13 0 -4.07208e-13)
(7.46619e-16 0 -3.70766e-13)
(1.05376e-13 0 -3.30761e-13)
(1.96916e-13 0 -2.88478e-13)
(2.74994e-13 0 -2.45076e-13)
(3.39578e-13 0 -2.0157e-13)
(3.90916e-13 0 -1.58819e-13)
(4.29484e-13 0 -1.17522e-13)
(4.55929e-13 0 -7.82138e-14)
(4.71019e-13 0 -4.12833e-14)
(4.75599e-13 0 -6.99157e-15)
(4.7056e-13 0 2.44993e-14)
(4.56811e-13 0 5.31039e-14)
(4.35258e-13 0 7.8792e-14)
(4.06798e-13 0 1.0157e-13)
(3.72316e-13 0 1.21467e-13)
(3.32673e-13 0 1.38534e-13)
(2.88683e-13 0 1.52846e-13)
(2.41094e-13 0 1.645e-13)
(1.90583e-13 0 1.73617e-13)
(1.3779e-13 0 1.8032e-13)
(8.33586e-14 0 1.84729e-13)
(2.79081e-14 0 1.86942e-13)
(-2.08863e-05 0 -0.000156359)
(-2.37832e-05 0 -5.03631e-05)
(-0.000135689 0 2.96883e-05)
(-0.000164697 0 8.05117e-05)
(-0.000235476 0 0.000107893)
(-0.000149837 0 0.000277825)
(-0.000157104 0 0.000321828)
(-0.000400522 0 0.000167844)
(-0.000381905 0 0.000323865)
(-0.000437668 0 0.000432056)
(-0.000557034 0 0.000401431)
(-0.000571155 0 0.000424992)
(-0.000638035 0 0.000348888)
(-0.000702557 0 0.00028471)
(-0.000730257 0 0.000343206)
(-0.000779292 0 0.000280782)
(-0.000805749 0 0.000220801)
(-0.00081901 0 0.000180426)
(-0.000829866 0 0.000119161)
(-0.000858674 0 0.000107107)
(-0.000891932 0 0.00020392)
(-0.000939651 0 0.00018325)
(-0.000980854 0 0.000230821)
(-0.00104704 0 0.000151899)
(-0.00109634 0 0.000145445)
(-0.00114688 0 0.000130028)
(-0.00118272 0 0.000107394)
(-0.00119573 0 7.13862e-05)
(-0.00121167 0 -7.23509e-05)
(-0.00123681 0 -0.000168387)
(-0.00124298 0 -0.000187968)
(-0.00122805 0 -0.000226131)
(-0.00121955 0 -0.000227919)
(-0.00121239 0 -0.000233625)
(-0.00112209 0 -0.000201283)
(-0.00100025 0 -0.000129867)
(-0.00093927 0 -2.00147e-05)
(-0.000921527 0 7.69958e-05)
(-0.00091496 0 0.000128872)
(-0.00091256 0 0.000146286)
(-0.000936294 0 0.000179308)
(-0.000986963 0 0.000149238)
(-0.00100852 0 0.000123433)
(-0.00101633 0 9.31987e-05)
(-0.00101794 0 3.869e-05)
(-0.00101274 0 -1.46169e-05)
(-0.0010117 0 -7.82351e-05)
(-0.00100959 0 -0.000118635)
(-0.00100449 0 -0.000153354)
(-0.0010013 0 -0.000109481)
(-0.000981402 0 -0.000139007)
(-0.000925315 0 -0.000212983)
(-0.000869075 0 -0.000270642)
(-0.000855265 0 -0.000234255)
(-0.000816075 0 -0.000232081)
(-0.000748078 0 -0.000275198)
(-0.000698461 0 -0.000307205)
(-0.000631783 0 -0.000372037)
(-0.000598802 0 -0.000353096)
(-0.000546281 0 -0.000379878)
(-0.00049792 0 -0.00040555)
(-0.000437303 0 -0.000427761)
(-0.000375858 0 -0.000421717)
(-0.000331347 0 -0.000389683)
(-0.000232269 0 -0.000401275)
(-0.000125371 0 -0.000396052)
(-4.13158e-05 0 -0.000370174)
(-1.99277e-06 0 -0.000335447)
(0.000117795 0 -0.00027805)
(0.000195296 0 -0.000200349)
(0.000253826 0 -4.96653e-05)
(0.000263832 0 -7.48754e-07)
(0.00029705 0 9.28049e-05)
(0.000354842 0 0.000164136)
(0.000454659 0 0.000115793)
(0.000478488 0 0.000248059)
(0.000465444 0 0.000268915)
(0.000462533 0 0.00021911)
(0.000364453 0 0.000197638)
(0.000463242 0 -4.36905e-05)
(-0.000404812 0 6.26512e-05)
(-0.000452973 0 0.000472979)
(3.98347e-06 0 3.79523e-05)
(-1.2e-12 0 2.53008e-12)
(-1.98659e-12 0 4.73467e-13)
(-1.47715e-12 0 6.20348e-14)
(-1.60978e-12 0 -1.83734e-13)
(-1.5649e-12 0 -3.44661e-13)
(-1.45621e-12 0 -4.56836e-13)
(-1.31874e-12 0 -5.36763e-13)
(-1.1658e-12 0 -5.92318e-13)
(-1.00422e-12 0 -6.27574e-13)
(-8.38786e-13 0 -6.45023e-13)
(-6.73509e-13 0 -6.46601e-13)
(-5.11894e-13 0 -6.34155e-13)
(-3.56941e-13 0 -6.09588e-13)
(-2.11164e-13 0 -5.74859e-13)
(-7.66067e-14 0 -5.31945e-13)
(4.51617e-14 0 -4.82783e-13)
(1.53057e-13 0 -4.29216e-13)
(2.46454e-13 0 -3.72943e-13)
(3.25148e-13 0 -3.15479e-13)
(3.89281e-13 0 -2.58131e-13)
(4.39287e-13 0 -2.01992e-13)
(4.75823e-13 0 -1.47944e-13)
(4.99714e-13 0 -9.66628e-14)
(5.1188e-13 0 -4.86335e-14)
(5.13296e-13 0 -4.17981e-15)
(5.04953e-13 0 3.65051e-14)
(4.8784e-13 0 7.33321e-14)
(4.6292e-13 0 1.06292e-13)
(4.31129e-13 0 1.35433e-13)
(3.93378e-13 0 1.60835e-13)
(3.50549e-13 0 1.82599e-13)
(3.03478e-13 0 2.00844e-13)
(2.52931e-13 0 2.15703e-13)
(1.996e-13 0 2.27328e-13)
(1.44124e-13 0 2.35875e-13)
(8.71318e-14 0 2.41495e-13)
(2.91686e-14 0 2.4431e-13)
(-6.54441e-05 0 -9.73929e-05)
(-7.71751e-05 0 2.07322e-05)
(-0.000105684 0 0.000155394)
(-0.000105627 0 0.000211081)
(-0.000163633 0 0.000241636)
(-0.000313835 0 0.000161436)
(-0.000327007 0 0.000239767)
(-0.000335106 0 0.000375004)
(-0.000429172 0 0.000420214)
(-0.000472506 0 0.00050425)
(-0.000581039 0 0.000463239)
(-0.000615694 0 0.000436222)
(-0.000671873 0 0.000351503)
(-0.000711171 0 0.000313962)
(-0.00072208 0 0.000364965)
(-0.000747141 0 0.000329923)
(-0.000767934 0 0.000267937)
(-0.000777924 0 0.000237118)
(-0.000827538 0 0.000136195)
(-0.000837777 0 0.000196475)
(-0.000864156 0 0.000196207)
(-0.000891876 0 0.000241569)
(-0.000941552 0 0.000264083)
(-0.000998989 0 0.000253676)
(-0.00106073 0 0.000201196)
(-0.00111517 0 0.000141153)
(-0.00114529 0 0.00013878)
(-0.00117892 0 4.51292e-05)
(-0.00124293 0 -0.000102862)
(-0.00128167 0 -0.000122903)
(-0.00127595 0 -0.000159457)
(-0.0012631 0 -0.000206587)
(-0.00126574 0 -0.000276892)
(-0.00126498 0 -0.000286835)
(-0.00122645 0 -0.00029603)
(-0.00116591 0 -0.000216303)
(-0.00108753 0 -7.15628e-05)
(-0.00101318 0 5.94599e-05)
(-0.000963641 0 0.000163144)
(-0.000943396 0 0.000177716)
(-0.00093656 0 0.000178325)
(-0.00093202 0 0.000187073)
(-0.000947628 0 0.000121583)
(-0.000957985 0 8.89903e-05)
(-0.000962225 0 6.2564e-05)
(-0.000953543 0 -3.13438e-05)
(-0.000946987 0 -4.21293e-05)
(-0.00095127 0 -8.9913e-05)
(-0.000951793 0 -0.000104468)
(-0.000902997 0 -0.000230582)
(-0.00086141 0 -0.000245478)
(-0.000846195 0 -0.000186714)
(-0.000784653 0 -0.00029161)
(-0.000723051 0 -0.000343635)
(-0.000693981 0 -0.000304652)
(-0.000655117 0 -0.000330945)
(-0.000590949 0 -0.000414544)
(-0.000597524 0 -0.000373039)
(-0.000566567 0 -0.000392552)
(-0.000534628 0 -0.000409037)
(-0.000485093 0 -0.00045254)
(-0.000428753 0 -0.000490509)
(-0.000409565 0 -0.000470132)
(-0.000363573 0 -0.000464963)
(-0.000277199 0 -0.000468773)
(-0.00024331 0 -0.000428266)
(-9.07419e-05 0 -0.000440556)
(-2.42984e-05 0 -0.00038572)
(3.77898e-05 0 -0.00033687)
(0.000112038 0 -0.000242051)
(0.000190133 0 -9.10387e-05)
(0.000215949 0 -3.81408e-05)
(0.00026317 0 1.23622e-05)
(0.000340026 0 3.56241e-05)
(0.000360394 0 0.00017739)
(0.000432062 0 0.000174897)
(0.000394913 0 0.00028689)
(0.000371969 0 0.000278849)
(0.000221516 0 0.000332049)
(0.000230985 0 0.000253582)
(-0.000504283 0 0.000366711)
(-0.000648234 0 0.000447147)
(5.28202e-06 0 -0.000421961)
(-1.99034e-12 0 2.6158e-12)
(-3.77915e-12 0 7.824e-13)
(-2.10706e-12 0 7.56213e-14)
(-1.90176e-12 0 -2.701e-13)
(-1.73327e-12 0 -4.71622e-13)
(-1.56658e-12 0 -6.04876e-13)
(-1.39417e-12 0 -6.97944e-13)
(-1.21547e-12 0 -7.61873e-13)
(-1.03246e-12 0 -8.01499e-13)
(-8.48205e-13 0 -8.1952e-13)
(-6.66239e-13 0 -8.1807e-13)
(-4.90031e-13 0 -7.99307e-13)
(-3.22655e-13 0 -7.65569e-13)
(-1.66678e-13 0 -7.19333e-13)
(-2.41372e-14 0 -6.63126e-13)
(1.03476e-13 0 -5.99431e-13)
(2.15216e-13 0 -5.30603e-13)
(3.10653e-13 0 -4.58794e-13)
(3.89806e-13 0 -3.85908e-13)
(4.53065e-13 0 -3.13565e-13)
(5.01103e-13 0 -2.43101e-13)
(5.34813e-13 0 -1.75578e-13)
(5.5524e-13 0 -1.11799e-13)
(5.63502e-13 0 -5.23253e-14)
(5.60738e-13 0 2.48341e-15)
(5.48072e-13 0 5.24352e-14)
(5.26598e-13 0 9.74682e-14)
(4.97359e-13 0 1.37621e-13)
(4.6134e-13 0 1.73004e-13)
(4.19482e-13 0 2.03767e-13)
(3.72682e-13 0 2.30078e-13)
(3.21788e-13 0 2.52109e-13)
(2.67579e-13 0 2.70043e-13)
(2.10755e-13 0 2.84068e-13)
(1.51956e-13 0 2.94378e-13)
(9.17933e-14 0 3.01153e-13)
(3.07233e-14 0 3.04539e-13)
(-8.13698e-05 0 -5.51991e-05)
(-0.000174803 0 7.09809e-05)
(-0.000253486 0 8.15191e-05)
(-0.000265203 0 0.000117235)
(-0.000249159 0 0.000164269)
(-0.000192656 0 0.000327173)
(-0.000326356 0 0.000328137)
(-0.00038008 0 0.000440365)
(-0.000530501 0 0.000458114)
(-0.000616209 0 0.00046212)
(-0.00060295 0 0.000527504)
(-0.000647632 0 0.000484841)
(-0.000664114 0 0.000452004)
(-0.000720696 0 0.000383557)
(-0.000731412 0 0.000380624)
(-0.000748255 0 0.000345879)
(-0.000770938 0 0.000238005)
(-0.00076245 0 0.000225407)
(-0.000789896 0 0.000208542)
(-0.00082667 0 0.000216318)
(-0.000858904 0 0.000228741)
(-0.000884592 0 0.000261053)
(-0.000904346 0 0.000292654)
(-0.000931625 0 0.000302851)
(-0.000985903 0 0.000265575)
(-0.00104447 0 0.00021049)
(-0.00108691 0 0.000170071)
(-0.00114127 0 9.79183e-05)
(-0.00120716 0 -2.42219e-06)
(-0.00123771 0 -7.41761e-05)
(-0.00124696 0 -0.000232157)
(-0.00128148 0 -0.00028328)
(-0.00130114 0 -0.000259341)
(-0.00128536 0 -0.000301002)
(-0.00127805 0 -0.000307167)
(-0.00127577 0 -0.000272905)
(-0.00121824 0 -0.000158035)
(-0.00112447 0 -3.02746e-05)
(-0.0010529 0 6.30819e-05)
(-0.000998007 0 0.000165211)
(-0.000945721 0 0.000204675)
(-0.000916119 0 0.000171059)
(-0.000904668 0 0.000139664)
(-0.000900355 0 9.97579e-05)
(-0.000898768 0 5.9646e-05)
(-0.000895217 0 -4.13976e-05)
(-0.000869462 0 -0.000109925)
(-0.00085275 0 -0.000104023)
(-0.00084021 0 -0.000135996)
(-0.000814541 0 -0.000204057)
(-0.000781484 0 -0.000219945)
(-0.000730731 0 -0.000281103)
(-0.000676384 0 -0.000329532)
(-0.000618186 0 -0.000345895)
(-0.000560099 0 -0.000358209)
(-0.000518868 0 -0.000369381)
(-0.000481059 0 -0.000395266)
(-0.000449164 0 -0.000427091)
(-0.000474548 0 -0.000402966)
(-0.00044484 0 -0.000462133)
(-0.000456245 0 -0.000469838)
(-0.00042664 0 -0.000502819)
(-0.000385219 0 -0.000524742)
(-0.000361389 0 -0.000531613)
(-0.000312552 0 -0.000525427)
(-0.000294648 0 -0.000483436)
(-0.000186072 0 -0.000476339)
(-0.000104096 0 -0.000423012)
(-8.77297e-06 0 -0.000379173)
(-1.42279e-06 0 -0.000318531)
(8.21584e-05 0 -0.00019661)
(0.000150018 0 -0.000118169)
(0.000213251 0 -2.0284e-05)
(0.000237209 0 6.11941e-05)
(0.000268989 0 7.33101e-05)
(0.00026857 0 0.000199433)
(0.00026768 0 0.000325889)
(0.000270308 0 0.000371869)
(0.000207228 0 0.000385319)
(0.000233696 0 0.000377461)
(-0.000142617 0 0.000436216)
(-0.000580588 0 0.000557456)
(5.7797e-06 0 -0.000366546)
(-2.33608e-12 0 6.80708e-13)
(-4.44364e-12 0 6.30278e-14)
(-2.52921e-12 0 -2.71582e-13)
(-2.15686e-12 0 -5.00416e-13)
(-1.89967e-12 0 -6.66781e-13)
(-1.68253e-12 0 -7.93028e-13)
(-1.47574e-12 0 -8.88182e-13)
(-1.26936e-12 0 -9.55632e-13)
(-1.06187e-12 0 -9.96913e-13)
(-8.55357e-13 0 -1.01337e-12)
(-6.53296e-13 0 -1.00678e-12)
(-4.59394e-13 0 -9.79446e-13)
(-2.76967e-13 0 -9.34145e-13)
(-1.0872e-13 0 -8.7394e-13)
(4.32949e-14 0 -8.01998e-13)
(1.77685e-13 0 -7.21432e-13)
(2.93694e-13 0 -6.35175e-13)
(3.91149e-13 0 -5.45889e-13)
(4.70377e-13 0 -4.559e-13)
(5.32088e-13 0 -3.67167e-13)
(5.77274e-13 0 -2.81269e-13)
(6.07126e-13 0 -1.99438e-13)
(6.22967e-13 0 -1.22576e-13)
(6.26162e-13 0 -5.12898e-14)
(6.18056e-13 0 1.40647e-14)
(5.99938e-13 0 7.33344e-14)
(5.73026e-13 0 1.26521e-13)
(5.38456e-13 0 1.73741e-13)
(4.97275e-13 0 2.1519e-13)
(4.50451e-13 0 2.51108e-13)
(3.98891e-13 0 2.81747e-13)
(3.43444e-13 0 3.07356e-13)
(2.84891e-13 0 3.28177e-13)
(2.23935e-13 0 3.44448e-13)
(1.61208e-13 0 3.56405e-13)
(9.72932e-14 0 3.64262e-13)
(3.25543e-14 0 3.68177e-13)
(-7.07108e-05 0 2.7973e-05)
(6.74932e-06 0 0.000151501)
(-0.000130563 0 0.00022605)
(-0.000151217 0 0.000253208)
(-0.000260417 0 0.000191426)
(-0.000254975 0 0.000287866)
(-0.000246186 0 0.000460143)
(-0.000383864 0 0.000514087)
(-0.000375889 0 0.000628127)
(-0.000486803 0 0.000611672)
(-0.000575681 0 0.000570063)
(-0.000590448 0 0.000567217)
(-0.000611557 0 0.000535411)
(-0.000721123 0 0.00040529)
(-0.000738505 0 0.000398719)
(-0.000759514 0 0.000363907)
(-0.000791969 0 0.000246938)
(-0.000768123 0 0.000258546)
(-0.00079264 0 0.000221555)
(-0.000843643 0 0.000200044)
(-0.000854101 0 0.000257275)
(-0.000874594 0 0.000274364)
(-0.000872706 0 0.000331994)
(-0.00087999 0 0.000336789)
(-0.000916078 0 0.000294805)
(-0.000956858 0 0.000258098)
(-0.000974397 0 0.000243157)
(-0.0010107 0 0.000160592)
(-0.0010635 0 5.89291e-05)
(-0.00110887 0 -5.74438e-05)
(-0.00116444 0 -0.000143209)
(-0.00122057 0 -0.000141467)
(-0.00124818 0 -0.000198093)
(-0.00126198 0 -0.00033843)
(-0.00129423 0 -0.000318792)
(-0.00130426 0 -0.000299076)
(-0.00128307 0 -0.000222117)
(-0.00122453 0 -0.000111983)
(-0.00115107 0 -4.75882e-06)
(-0.00106118 0 0.000100743)
(-0.000981771 0 0.000134464)
(-0.000930336 0 0.000141353)
(-0.000895117 0 0.000130327)
(-0.000866818 0 9.50742e-05)
(-0.000852409 0 5.95517e-05)
(-0.00085031 0 -1.62612e-05)
(-0.000823234 0 -9.84041e-05)
(-0.00077878 0 -0.00013825)
(-0.000748429 0 -0.000172265)
(-0.000717467 0 -0.000235236)
(-0.00068163 0 -0.000287112)
(-0.000655305 0 -0.000308469)
(-0.000589041 0 -0.000388612)
(-0.000517624 0 -0.000413923)
(-0.000466434 0 -0.000403426)
(-0.000413138 0 -0.000412954)
(-0.000354627 0 -0.000430008)
(-0.000343514 0 -0.000409371)
(-0.000314658 0 -0.000428174)
(-0.000316354 0 -0.000443826)
(-0.000331162 0 -0.00048716)
(-0.000392143 0 -0.000497465)
(-0.000366962 0 -0.000545168)
(-0.000348458 0 -0.00056715)
(-0.000273945 0 -0.000604854)
(-0.000276142 0 -0.000580376)
(-0.000179606 0 -0.0005684)
(-0.00016448 0 -0.000476736)
(-4.46698e-05 0 -0.000414608)
(-1.86271e-05 0 -0.000337973)
(2.0221e-05 0 -0.000273678)
(0.000100578 0 -0.00013689)
(0.000143174 0 -2.01099e-05)
(0.000148489 0 -1.59103e-06)
(0.000152337 0 9.05816e-05)
(0.000155687 0 0.000201622)
(0.000247615 0 0.000255915)
(0.000297036 0 0.00034727)
(0.000148788 0 0.000492661)
(0.000313796 0 0.000486417)
(0.000167369 0 0.000505859)
(-0.000628834 0 0.000380436)
(7.16377e-06 0 -0.000364128)
(-2.68864e-12 0 -9.68146e-13)
(-4.58855e-12 0 -7.90597e-13)
(-2.67014e-12 0 -7.24428e-13)
(-2.29683e-12 0 -7.93143e-13)
(-2.02589e-12 0 -9.02226e-13)
(-1.78798e-12 0 -1.01247e-12)
(-1.55677e-12 0 -1.10634e-12)
(-1.3242e-12 0 -1.17573e-12)
(-1.0902e-12 0 -1.21725e-12)
(-8.58073e-13 0 -1.23033e-12)
(-6.32312e-13 0 -1.21626e-12)
(-4.17395e-13 0 -1.17759e-12)
(-2.17149e-13 0 -1.11768e-12)
(-3.45309e-14 0 -1.04036e-12)
(1.28371e-13 0 -9.4958e-13)
(2.70299e-13 0 -8.49211e-13)
(3.90759e-13 0 -7.42861e-13)
(4.89927e-13 0 -6.3376e-13)
(5.68528e-13 0 -5.24693e-13)
(6.27696e-13 0 -4.17961e-13)
(6.68832e-13 0 -3.15385e-13)
(6.93507e-13 0 -2.18334e-13)
(7.03388e-13 0 -1.27773e-13)
(7.00142e-13 0 -4.43091e-14)
(6.85362e-13 0 3.17512e-14)
(6.60528e-13 0 1.00338e-13)
(6.27005e-13 0 1.61558e-13)
(5.86028e-13 0 2.15642e-13)
(5.38708e-13 0 2.62903e-13)
(4.8604e-13 0 3.03693e-13)
(4.2893e-13 0 3.3837e-13)
(3.68217e-13 0 3.67279e-13)
(3.04671e-13 0 3.9074e-13)
(2.38984e-13 0 4.09055e-13)
(1.7177e-13 0 4.22508e-13)
(1.03565e-13 0 4.31344e-13)
(3.46386e-14 0 4.35737e-13)
(-0.000144641 0 0.000127468)
(-0.00020695 0 0.000126463)
(-0.000155065 0 0.000247914)
(-0.000111583 0 0.000305555)
(-0.000193918 0 0.000270895)
(-0.000353813 0 0.000252306)
(-0.000353128 0 0.000476118)
(-0.000368872 0 0.000603498)
(-0.000434534 0 0.000642144)
(-0.000481843 0 0.000645639)
(-0.00055101 0 0.000606311)
(-0.00057398 0 0.000589142)
(-0.000616192 0 0.00053319)
(-0.000664994 0 0.000473221)
(-0.000722736 0 0.000433225)
(-0.000741733 0 0.000414586)
(-0.000772495 0 0.000343983)
(-0.000851626 0 0.000133269)
(-0.00084573 0 0.000265354)
(-0.000873904 0 0.000255778)
(-0.000876845 0 0.000258025)
(-0.00087212 0 0.000293301)
(-0.00086555 0 0.000329952)
(-0.000864045 0 0.000336979)
(-0.00086544 0 0.000330421)
(-0.00087322 0 0.000288735)
(-0.000879925 0 0.000189254)
(-0.000856627 0 0.000170601)
(-0.000859784 0 0.000132416)
(-0.000909733 0 3.2035e-05)
(-0.000981634 0 -6.65388e-05)
(-0.00102915 0 -0.000145247)
(-0.00109142 0 -0.000179352)
(-0.00117553 0 -0.000214803)
(-0.00123537 0 -0.000248399)
(-0.00126808 0 -0.00026495)
(-0.00128135 0 -0.000255342)
(-0.00126735 0 -0.000182186)
(-0.00120487 0 -6.03882e-05)
(-0.00113233 0 -9.22952e-06)
(-0.00105818 0 2.33615e-05)
(-0.000979929 0 8.70858e-05)
(-0.000915074 0 0.00010249)
(-0.00087335 0 6.66919e-05)
(-0.000845424 0 1.61045e-05)
(-0.000830303 0 -1.17541e-05)
(-0.000803781 0 -0.000142117)
(-0.000748035 0 -0.000182792)
(-0.000700275 0 -0.000199699)
(-0.000653379 0 -0.000260987)
(-0.000609666 0 -0.000309938)
(-0.000571098 0 -0.000356143)
(-0.000481515 0 -0.000463489)
(-0.000414141 0 -0.000491818)
(-0.000354533 0 -0.000484669)