/*--------------------------------*- C++ -*----------------------------------*\
  =========                 |
  \\      /  F ield         | OpenFOAM: The Open Source CFD Toolbox
   \\    /   O peration     | Website:  https://openfoam.org
    \\  /    A nd           | Version:  6
     \\/     M anipulation  |
\*---------------------------------------------------------------------------*/
FoamFile
{
    version     2.0;
    format      ascii;
    class       volVectorField;
    location    "2750";
    object      U;
}
// * * * * * * * * * * * * * * * * * * * * * * * * * * * * * * * * * * * * * //

dimensions      [0 1 -1 0 0 0 0];

internalField   nonuniform List<vector> 
4800
(
(-0.000152916 0 3.07315e-05)
(-0.000319596 0 -0.000305328)
(-0.000421844 0 -0.000576495)
(-0.000465437 0 -0.00042037)
(-0.000703069 0 0.000253322)
(-0.00102704 0 9.8453e-05)
(-0.00118327 0 -8.50558e-05)
(-0.00128726 0 5.94641e-05)
(-0.001349 0 -0.0001172)
(-0.00137326 0 -0.000106441)
(-0.00135862 0 -0.000163306)
(-0.00126625 0 -0.00021806)
(-0.0012342 0 -0.000190223)
(-0.00122313 0 -0.000258261)
(-0.00115951 0 -0.000409278)
(-0.00104115 0 2.84401e-05)
(-0.00073528 0 -0.000309057)
(-0.000546694 0 -0.000355005)
(-0.000492117 0 -0.000329163)
(-0.00030874 0 -0.000344193)
(-0.000136028 0 -0.000207961)
(-0.000126311 0 -0.000107341)
(9.48962e-05 0 -0.000227918)
(0.000153491 0 -0.000282595)
(0.000328058 0 -0.000257865)
(0.000520542 0 -0.000100174)
(0.00053059 0 -6.77691e-05)
(0.00055404 0 -6.46126e-05)
(0.000634095 0 -6.64217e-05)
(0.000732158 0 -3.82267e-05)
(0.000748828 0 -5.574e-05)
(0.000776241 0 -4.5753e-05)
(0.000849112 0 -5.6037e-05)
(0.00095884 0 -4.6567e-05)
(0.00106837 0 -9.46194e-05)
(0.00114654 0 -0.000147273)
(0.00122529 0 -0.000128044)
(0.00133211 0 -0.000108742)
(0.00145349 0 -0.000162243)
(0.00158555 0 -0.000217)
(0.00168846 0 -0.000135479)
(0.00170341 0 -0.000104684)
(0.00172171 0 -0.000111038)
(0.00175362 0 -9.58472e-05)
(0.00174553 0 -8.44645e-05)
(0.00170803 0 -7.43053e-05)
(0.00165182 0 -7.58483e-05)
(0.00159442 0 -7.11637e-05)
(0.00152717 0 -0.000121459)
(0.00145391 0 -0.000109098)
(0.00138179 0 -8.33008e-05)
(0.00131414 0 -1.96927e-05)
(0.00124491 0 3.38463e-05)
(0.0011925 0 1.8422e-05)
(0.00116749 0 -2.32235e-05)
(0.00115117 0 -5.01047e-05)
(0.00113677 0 -4.30567e-05)
(0.00112493 0 -2.8965e-05)
(0.00111414 0 -3.17203e-05)
(0.00110255 0 -1.97993e-05)
(0.0010887 0 -1.19379e-06)
(0.00106876 0 -1.39518e-05)
(0.00103988 0 -2.68551e-05)
(0.00101218 0 -1.50364e-05)
(0.00098619 0 -1.34113e-05)
(0.000952226 0 -1.369e-05)
(0.000918256 0 8.58825e-06)
(0.000897754 0 -1.53943e-05)
(0.000882061 0 -2.71641e-05)
(0.000866103 0 5.16447e-06)
(0.00085199 0 -2.65102e-05)
(0.000827391 0 7.40306e-05)
(0.00079346 0 -7.44728e-05)
(0.000740631 0 0.000125027)
(0.000684924 0 -0.000109169)
(0.000562893 0 0.000162288)
(0.000410305 0 -0.000149404)
(0.000223443 0 -5.97501e-05)
(-0.000912972 0 -0.000113567)
(1.12432e-05 0 0.000194628)
(-1.85719e-12 0 6.17585e-12)
(-1.11838e-12 0 1.57551e-13)
(3.91863e-13 0 4.26477e-13)
(-3.14141e-13 0 2.79788e-13)
(-7.49642e-13 0 1.55899e-13)
(-9.81695e-13 0 7.61816e-14)
(-1.08367e-12 0 2.5694e-14)
(-1.10184e-12 0 -7.76314e-15)
(-1.0633e-12 0 -3.11211e-14)
(-9.84639e-13 0 -4.80103e-14)
(-8.76875e-13 0 -6.03207e-14)
(-7.48134e-13 0 -6.90714e-14)
(-6.04925e-13 0 -7.48553e-14)
(-4.52771e-13 0 -7.80633e-14)
(-2.96506e-13 0 -7.89954e-14)
(-1.404e-13 0 -7.79162e-14)
(1.17951e-14 0 -7.50797e-14)
(1.56834e-13 0 -7.07394e-14)
(2.91977e-13 0 -6.51495e-14)
(4.14988e-13 0 -5.85623e-14)
(5.24126e-13 0 -5.1223e-14)
(6.18119e-13 0 -4.33645e-14)
(6.96142e-13 0 -3.52021e-14)
(7.57774e-13 0 -2.69295e-14)
(8.02953e-13 0 -1.8716e-14)
(8.31934e-13 0 -1.07055e-14)
(8.45232e-13 0 -3.01572e-15)
(8.43578e-13 0 4.25997e-15)
(8.27867e-13 0 1.1051e-14)
(7.99117e-13 0 1.73069e-14)
(7.58432e-13 0 2.29945e-14)
(7.06967e-13 0 2.8095e-14)
(6.45907e-13 0 3.26006e-14)
(5.7644e-13 0 3.65119e-14)
(4.99749e-13 0 3.98353e-14)
(4.17e-13 0 4.25803e-14)
(3.29339e-13 0 4.47576e-14)
(2.37889e-13 0 4.63763e-14)
(1.43764e-13 0 4.74399e-14)
(4.80857e-14 0 4.79347e-14)
(-5.72313e-05 0 0.000258046)
(-4.88678e-05 0 0.000332488)
(-0.000422289 0 0.000620986)
(-0.000656826 0 0.000431086)
(-0.000871393 0 -9.94948e-05)
(-0.000915606 0 0.000395978)
(-0.00114224 0 0.000131551)
(-0.00121548 0 0.000120583)
(-0.00126851 0 0.000116915)
(-0.00131043 0 8.49054e-05)
(-0.00133622 0 6.41367e-05)
(-0.00133942 0 1.70652e-05)
(-0.00130153 0 -8.31975e-05)
(-0.00128337 0 -0.000117608)
(-0.00122882 0 -5.23746e-05)
(-0.0010484 0 -0.000356889)
(-0.000916844 0 -0.000262063)
(-0.000759157 0 -0.000354371)
(-0.000689902 0 0.000220862)
(-0.000411583 0 0.000133896)
(-0.000226611 0 -0.00019993)
(-0.000146824 0 -4.91803e-05)
(1.10558e-05 0 -0.000226893)
(0.000189085 0 -0.00018971)
(0.000232786 0 -0.000152332)
(0.000353103 0 5.07021e-05)
(0.000371601 0 -0.000108868)
(0.000421901 0 -0.000143973)
(0.000530255 0 -4.78669e-05)
(0.000573542 0 -7.01564e-05)
(0.000600607 0 -7.66848e-05)
(0.000639292 0 -0.00011436)
(0.000742994 0 -5.23458e-05)
(0.00083277 0 -0.000147244)
(0.00094823 0 -0.000131814)
(0.00104588 0 -0.000134199)
(0.00110377 0 -0.000162267)
(0.00118403 0 -0.000122164)
(0.00130806 0 -8.21741e-05)
(0.00143829 0 -0.000156061)
(0.0015131 0 -6.61119e-05)
(0.0015351 0 1.29649e-05)
(0.00157596 0 4.88205e-05)
(0.00166019 0 9.3337e-05)
(0.00168673 0 0.000108505)
(0.00166813 0 0.000106091)
(0.00161854 0 0.000135341)
(0.00155663 0 0.000159689)
(0.00149803 0 0.000174076)
(0.00143473 0 0.00015871)
(0.00136267 0 0.000167666)
(0.00129961 0 0.000111399)
(0.00123631 0 6.43198e-05)
(0.00118448 0 5.50596e-05)
(0.00116457 0 5.96395e-05)
(0.00115488 0 6.56208e-05)
(0.00114594 0 5.49422e-05)
(0.00113726 0 4.43434e-05)
(0.00112846 0 4.61687e-05)
(0.00111853 0 3.30507e-05)
(0.00110501 0 2.33911e-05)
(0.00108596 0 5.1119e-05)
(0.00106261 0 5.61232e-05)
(0.00103734 0 3.94322e-05)
(0.00101427 0 6.22691e-05)
(0.000995962 0 3.40434e-05)
(0.000979878 0 3.1578e-05)
(0.000975062 0 3.91415e-05)
(0.000971364 0 3.39831e-05)
(0.000965504 0 2.112e-05)
(0.00094953 0 4.90477e-05)
(0.000923028 0 3.4829e-05)
(0.000879845 0 8.42296e-05)
(0.000836385 0 6.33095e-05)
(0.000761445 0 0.000211371)
(0.000738106 0 5.77561e-05)
(0.000519603 0 0.000314641)
(0.000396702 0 0.00029245)
(0.000255806 0 0.000255362)
(-0.000267602 0 2.2953e-05)
(-4.43408e-08 0 1.70592e-07)
(-3.65269e-12 0 2.7666e-12)
(5.14144e-13 0 1.56647e-12)
(-5.84652e-13 0 8.16557e-13)
(-9.53245e-13 0 4.23444e-13)
(-1.1119e-12 0 1.99183e-13)
(-1.16762e-12 0 5.98724e-14)
(-1.15865e-12 0 -3.36109e-14)
(-1.10355e-12 0 -1.00091e-13)
(-1.01384e-12 0 -1.48897e-13)
(-8.97936e-13 0 -1.84831e-13)
(-7.62668e-13 0 -2.10503e-13)
(-6.13917e-13 0 -2.2747e-13)
(-4.56911e-13 0 -2.36793e-13)
(-2.96359e-13 0 -2.39318e-13)
(-1.36485e-13 0 -2.35813e-13)
(1.89719e-14 0 -2.27032e-13)
(1.66764e-13 0 -2.13735e-13)
(3.04154e-13 0 -1.9669e-13)
(4.28915e-13 0 -1.76662e-13)
(5.39324e-13 0 -1.54392e-13)
(6.3414e-13 0 -1.30587e-13)
(7.12577e-13 0 -1.05895e-13)
(7.7426e-13 0 -8.09002e-14)
(8.19177e-13 0 -5.61107e-14)
(8.47634e-13 0 -3.19568e-14)
(8.60198e-13 0 -8.79025e-15)
(8.57645e-13 0 1.31113e-14)
(8.40913e-13 0 3.35389e-14)
(8.1106e-13 0 5.23442e-14)
(7.6922e-13 0 6.94306e-14)
(7.16573e-13 0 8.47442e-14)
(6.54324e-13 0 9.82647e-14)
(5.83675e-13 0 1.09996e-13)
(5.05818e-13 0 1.1996e-13)
(4.21923e-13 0 1.28188e-13)
(3.33135e-13 0 1.34712e-13)
(2.40572e-13 0 1.39566e-13)
(1.45323e-13 0 1.42771e-13)
(4.85806e-14 0 1.44332e-13)
(-3.76644e-05 0 0.000365989)
(-0.000162829 0 0.000465557)
(-0.000664802 0 0.00054267)
(-0.000738191 0 0.000540782)
(-0.000909812 0 0.000222657)
(-0.0009653 0 0.000209751)
(-0.00105642 0 0.000388218)
(-0.00116422 0 0.000177504)
(-0.00119475 0 0.00014523)
(-0.00125833 0 3.29613e-05)
(-0.00130536 0 -2.61297e-05)
(-0.00132414 0 -7.02643e-05)
(-0.00132373 0 -0.000123243)
(-0.00126112 0 -0.000172589)
(-0.00122968 0 -7.60423e-05)
(-0.0011448 0 -0.000394597)
(-0.000971487 0 -0.00061456)
(-0.000864184 0 -0.000484158)
(-0.000763024 0 -0.000406323)
(-0.000440852 0 -0.000654677)
(-0.000250797 0 -0.000552335)
(-0.000280679 0 -0.000331347)
(-8.95269e-05 0 -0.000361872)
(-0.000100669 0 -0.000276915)
(-2.19633e-05 0 -0.00029442)
(0.000236213 0 -0.000154843)
(0.000182956 0 -0.000323316)
(0.000357057 0 0.00018005)
(0.000434085 0 -7.25995e-06)
(0.000421927 0 -0.000140795)
(0.000449541 0 -0.000141895)
(0.000481996 0 -0.000202002)
(0.000597401 0 -0.000150801)
(0.000652786 0 -0.000268942)
(0.00074195 0 -0.000253482)
(0.000826236 0 -0.000231935)
(0.000895196 0 -0.00027776)
(0.000983667 0 -0.000306465)
(0.00109999 0 -0.000218443)
(0.00116996 0 -0.000160619)
(0.00120629 0 -0.000185815)
(0.0012615 0 -0.000219816)
(0.00135758 0 -0.000241335)
(0.00145091 0 -0.000127733)
(0.00148387 0 -1.64861e-05)
(0.00150584 0 4.93279e-05)
(0.00150325 0 7.21811e-05)
(0.00146913 0 9.61019e-05)
(0.00140149 0 0.000145476)
(0.00134512 0 0.000176036)
(0.00131677 0 0.000170014)
(0.00128797 0 0.000145311)
(0.00124538 0 0.000148027)
(0.00121247 0 0.000112448)
(0.00119283 0 4.43044e-05)
(0.00116957 0 -1.45974e-08)
(0.00115125 0 7.96593e-06)
(0.00114673 0 1.28091e-05)
(0.00114283 0 1.30148e-05)
(0.00113442 0 2.32463e-05)
(0.0011232 0 3.93358e-05)
(0.00111149 0 4.47535e-05)
(0.0010942 0 4.21649e-05)
(0.00107167 0 3.79917e-05)
(0.00106089 0 3.81889e-05)
(0.00105881 0 5.09545e-05)
(0.00105794 0 3.66603e-05)
(0.00105592 0 2.89036e-05)
(0.00104742 0 3.11568e-05)
(0.00103384 0 3.48516e-05)
(0.00102003 0 6.11133e-05)
(0.000997429 0 4.83909e-05)
(0.000936554 0 0.000173929)
(0.000912252 0 7.74477e-05)
(0.000812991 0 0.000258384)
(0.000719327 0 0.000324897)
(0.000632035 0 0.000342436)
(0.00059487 0 0.000301398)
(0.000557564 0 0.000289333)
(-0.000401298 0 0.000440553)
(3.85929e-06 0 -0.000278315)
(-2.82768e-12 0 2.16834e-12)
(-2.67375e-12 0 1.8946e-12)
(-1.45699e-12 0 9.96635e-13)
(-1.36699e-12 0 5.22112e-13)
(-1.34527e-12 0 2.37149e-13)
(-1.31647e-12 0 4.80999e-14)
(-1.2618e-12 0 -8.66246e-14)
(-1.17859e-12 0 -1.86929e-13)
(-1.06938e-12 0 -2.6288e-13)
(-9.3848e-13 0 -3.19846e-13)
(-7.90773e-13 0 -3.60897e-13)
(-6.31215e-13 0 -3.87994e-13)
(-4.64619e-13 0 -4.02587e-13)
(-2.95527e-13 0 -4.05932e-13)
(-1.28114e-13 0 -3.99238e-13)
(3.38734e-14 0 -3.83736e-13)
(1.87176e-13 0 -3.60697e-13)
(3.2905e-13 0 -3.31415e-13)
(4.57286e-13 0 -2.97185e-13)
(5.70201e-13 0 -2.59267e-13)
(6.66617e-13 0 -2.18852e-13)
(7.45829e-13 0 -1.77037e-13)
(8.07558e-13 0 -1.34803e-13)
(8.51896e-13 0 -9.30003e-14)
(8.79254e-13 0 -5.23446e-14)
(8.903e-13 0 -1.34181e-14)
(8.85907e-13 0 2.33237e-14)
(8.67099e-13 0 5.75414e-14)
(8.35008e-13 0 8.89974e-14)
(7.90832e-13 0 1.17541e-13)
(7.35801e-13 0 1.43092e-13)
(6.71159e-13 0 1.65627e-13)
(5.98136e-13 0 1.85161e-13)
(5.17941e-13 0 2.01737e-13)
(4.31752e-13 0 2.15415e-13)
(3.40717e-13 0 2.26256e-13)
(2.45948e-13 0 2.34323e-13)
(1.4853e-13 0 2.39665e-13)
(4.96465e-14 0 2.42326e-13)
(-0.000112276 0 0.000412826)
(2.0149e-05 0 0.000705469)
(-8.4013e-05 0 0.000942281)
(-0.000474049 0 0.00078046)
(-0.000722918 0 0.000567537)
(-0.000894481 0 0.000519009)
(-0.000980244 0 0.000465058)
(-0.00108369 0 0.000264179)
(-0.00115073 0 8.01195e-05)
(-0.00122011 0 4.00704e-05)
(-0.00127524 0 7.254e-05)
(-0.00131703 0 -3.23651e-05)
(-0.00133324 0 -7.01916e-05)
(-0.00123399 0 -0.000388522)
(-0.00116356 0 -0.000357595)
(-0.00111705 0 -0.000457547)
(-0.00110033 0 -0.000503894)
(-0.00100695 0 -0.000440573)
(-0.00083267 0 -0.000549511)
(-0.000715966 0 -0.000581332)
(-0.000742811 0 -0.00034324)
(-0.000506714 0 -0.000454696)
(2.36124e-05 0 -0.000614702)
(-4.00712e-06 0 -0.000349134)
(0.000130658 0 -0.000297711)
(2.12096e-05 0 -0.000331927)
(0.000130156 0 -0.000257613)
(0.000154949 0 -0.000240057)
(0.000202372 0 -0.00021788)
(0.000245454 0 -0.000187603)
(0.000288175 0 -0.000197074)
(0.000355376 0 -0.000248279)
(0.000458389 0 -0.000286125)
(0.000552694 0 -0.000311769)
(0.000618975 0 -0.000340186)
(0.000686738 0 -0.000348631)
(0.000776881 0 -0.000332171)
(0.000870721 0 -0.000302928)
(0.000916571 0 -0.000315777)
(0.000936953 0 -0.000330444)
(0.000988329 0 -0.000280801)
(0.00106297 0 -0.000270125)
(0.00114722 0 -0.000206239)
(0.0011774 0 -0.000112159)
(0.00120393 0 -7.16517e-05)
(0.00127811 0 2.54636e-05)
(0.00132472 0 0.000169992)
(0.0013099 0 0.000189659)
(0.00126478 0 0.000210742)
(0.00124986 0 0.000220721)
(0.00124661 0 0.000201009)
(0.00122407 0 0.000186627)
(0.00119513 0 0.000131088)
(0.00119384 0 0.000103903)
(0.00119083 0 9.49285e-05)
(0.0011798 0 6.74995e-05)
(0.00117318 0 1.9442e-05)
(0.00117248 0 2.92654e-05)
(0.00117094 0 3.75959e-05)
(0.0011647 0 4.47261e-05)
(0.00115073 0 5.47652e-05)
(0.00113142 0 0.000102993)
(0.001117 0 0.000114026)
(0.00111095 0 6.49645e-05)
(0.00110621 0 6.42358e-05)
(0.00109928 0 5.26886e-05)
(0.00109488 0 3.16026e-05)
(0.00109754 0 3.01646e-05)
(0.00109267 0 3.01584e-05)
(0.00107297 0 7.67696e-06)
(0.00104585 0 0.00010273)
(0.00101245 0 0.000133581)
(0.000957829 0 0.000148276)
(0.00089998 0 0.000244382)
(0.000829605 0 0.000344754)
(0.000786209 0 0.00032973)
(0.000700241 0 0.000436986)
(0.000479647 0 0.00059469)
(0.000546301 0 0.000532392)
(-0.000404892 0 0.000622826)
(6.30672e-06 0 0.000144142)
(-2.62128e-12 0 -5.48791e-13)
(-3.55751e-12 0 1.13303e-12)
(-1.95687e-12 0 7.53477e-13)
(-1.71266e-12 0 4.31359e-13)
(-1.58591e-12 0 1.79285e-13)
(-1.49139e-12 0 -1.79175e-14)
(-1.39368e-12 0 -1.73982e-13)
(-1.27981e-12 0 -2.98049e-13)
(-1.14676e-12 0 -3.95784e-13)
(-9.95953e-13 0 -4.70719e-13)
(-8.30817e-13 0 -5.25199e-13)
(-6.55607e-13 0 -5.60983e-13)
(-4.7485e-13 0 -5.796e-13)
(-2.9301e-13 0 -5.82561e-13)
(-1.14289e-13 0 -5.71451e-13)
(5.75132e-14 0 -5.47963e-13)
(2.19085e-13 0 -5.1389e-13)
(3.67666e-13 0 -4.71082e-13)
(5.01063e-13 0 -4.21395e-13)
(6.17657e-13 0 -3.66636e-13)
(7.1637e-13 0 -3.08514e-13)
(7.96626e-13 0 -2.48592e-13)
(8.58297e-13 0 -1.88261e-13)
(9.01635e-13 0 -1.28722e-13)
(9.27216e-13 0 -7.09758e-14)
(9.35866e-13 0 -1.58277e-14)
(9.28604e-13 0 3.60991e-14)
(9.06587e-13 0 8.43481e-14)
(8.7106e-13 0 1.28608e-13)
(8.23315e-13 0 1.6869e-13)
(7.64659e-13 0 2.04504e-13)
(6.96392e-13 0 2.36036e-13)
(6.19785e-13 0 2.63329e-13)
(5.36071e-13 0 2.86458e-13)
(4.46442e-13 0 3.05521e-13)
(3.52043e-13 0 3.20619e-13)
(2.5398e-13 0 3.31846e-13)
(1.53326e-13 0 3.39283e-13)
(5.12416e-14 0 3.42988e-13)
(-0.000220602 0 0.000570786)
(-0.000626909 0 0.000686287)
(-0.000541515 0 0.000873152)
(-0.000433261 0 0.000894613)
(-0.00068722 0 0.000659674)
(-0.000896453 0 0.00052578)
(-0.000966678 0 0.000462949)
(-0.00104365 0 0.000318986)
(-0.00111793 0 0.000175717)
(-0.0011737 0 0.000262519)
(-0.00123459 0 7.79202e-05)
(-0.00125006 0 -2.0431e-05)
(-0.00125122 0 -8.19412e-05)
(-0.00123582 0 -0.000195053)
(-0.00117235 0 -0.000407059)
(-0.00113423 0 -0.000495473)
(-0.00105458 0 -0.000636961)
(-0.00100461 0 -0.000618749)
(-0.000940898 0 -0.000634136)
(-0.000755426 0 -0.000781239)
(-0.000604786 0 -0.000794713)
(-0.000408595 0 -0.000803964)
(-0.000584534 0 -0.000487466)
(-0.000283199 0 -0.00050705)
(-0.00015837 0 -0.000435507)
(4.42624e-05 0 -0.000353653)
(0.000107674 0 -0.000284225)
(4.0091e-05 0 -0.000211162)
(0.000129097 0 -0.000155418)
(0.000129403 0 -0.000193168)
(0.000184137 0 -0.000251963)
(0.000286308 0 -0.000312119)
(0.000411426 0 -0.000341852)
(0.000502291 0 -0.000369912)
(0.000589576 0 -0.000365704)
(0.000647557 0 -0.000367558)
(0.000693936 0 -0.000392273)
(0.000721731 0 -0.000433262)
(0.000797801 0 -0.000341096)
(0.000838596 0 -0.00028472)
(0.000854391 0 -0.000299316)
(0.000893016 0 -0.000256001)
(0.000917581 0 -0.000175222)
(0.000922058 0 -0.00013867)
(0.000951387 0 -0.000107859)
(0.00102635 0 -3.74942e-05)
(0.00109424 0 9.36061e-05)
(0.00110884 0 0.000192974)
(0.00112737 0 0.000220994)
(0.00115333 0 0.000205126)
(0.0011462 0 0.000207846)
(0.00113573 0 0.00015485)
(0.00113816 0 0.000135324)
(0.00113825 0 0.00012002)
(0.00112389 0 0.000103829)
(0.00111306 0 5.50309e-05)
(0.00111371 0 4.3789e-05)
(0.00111924 0 3.69127e-05)
(0.00113735 0 2.13579e-05)
(0.0011554 0 4.48463e-05)
(0.00115531 0 5.52034e-05)
(0.0011508 0 5.99497e-05)
(0.00113983 0 6.39644e-05)
(0.00112612 0 7.0856e-05)
(0.001118 0 7.35933e-05)
(0.00111469 0 6.85201e-05)
(0.00110754 0 1.88258e-05)
(0.00108831 0 7.45137e-05)
(0.00107707 0 8.02651e-05)
(0.00105903 0 2.24947e-05)
(0.00102784 0 0.000116967)
(0.00099732 0 0.000161552)
(0.000953072 0 0.000153152)
(0.000871694 0 0.000294512)
(0.000825173 0 0.000358084)
(0.000736103 0 0.000480749)
(0.000638197 0 0.000583348)
(0.000399128 0 0.000723702)
(0.000466178 0 0.000725922)
(-0.000242757 0 0.000808413)
(6.29014e-06 0 0.000181125)
(-2.29643e-12 0 -1.39392e-12)
(-3.71136e-12 0 5.09317e-13)
(-2.15837e-12 0 4.53053e-13)
(-1.94105e-12 0 2.70766e-13)
(-1.79454e-12 0 6.66301e-14)
(-1.66974e-12 0 -1.25011e-13)
(-1.54193e-12 0 -2.93295e-13)
(-1.40039e-12 0 -4.35478e-13)
(-1.24205e-12 0 -5.51487e-13)
(-1.0679e-12 0 -6.42068e-13)
(-8.81036e-13 0 -7.08239e-13)
(-6.85616e-13 0 -7.51195e-13)
(-4.86198e-13 0 -7.72342e-13)
(-2.87377e-13 0 -7.73344e-13)
(-9.35161e-14 0 -7.56129e-13)
(9.14338e-14 0 -7.22869e-13)
(2.64057e-13 0 -6.75915e-13)
(4.21546e-13 0 -6.17723e-13)
(5.61732e-13 0 -5.50767e-13)
(6.83082e-13 0 -4.77455e-13)
(7.84661e-13 0 -4.00051e-13)
(8.66081e-13 0 -3.20619e-13)
(9.27427e-13 0 -2.40981e-13)
(9.69182e-13 0 -1.62692e-13)
(9.92149e-13 0 -8.70367e-14)
(9.97375e-13 0 -1.50339e-14)
(9.86083e-13 0 5.25428e-14)
(9.59608e-13 0 1.15141e-13)
(9.1935e-13 0 1.72398e-13)
(8.66728e-13 0 2.24112e-13)
(8.03148e-13 0 2.70204e-13)
(7.29984e-13 0 3.10694e-13)
(6.48558e-13 0 3.45668e-13)
(5.60133e-13 0 3.75255e-13)
(4.65913e-13 0 3.99602e-13)
(3.67042e-13 0 4.18861e-13)
(2.64612e-13 0 4.3317e-13)
(1.59672e-13 0 4.42642e-13)
(5.33515e-14 0 4.47359e-13)
(-7.05055e-05 0 0.000869753)
(-0.000421284 0 0.000994816)
(-0.000547943 0 0.000993068)
(-0.000581732 0 0.000942031)
(-0.000626801 0 0.000813316)
(-0.000742354 0 0.000710752)
(-0.000767985 0 0.000706766)
(-0.000817615 0 0.000641019)
(-0.00104638 0 0.000259897)
(-0.00110225 0 0.000195764)
(-0.00114412 0 6.61938e-05)
(-0.00115696 0 -5.51773e-05)
(-0.0011302 0 -0.000240529)
(-0.00109009 0 -0.000365374)
(-0.00109838 0 -0.000437731)
(-0.00109997 0 -0.000543847)
(-0.00108154 0 -0.000588639)
(-0.00103757 0 -0.000632287)
(-0.000877575 0 -0.000825822)
(-0.000856264 0 -0.00080241)
(-0.00081718 0 -0.000779032)
(-0.000644518 0 -0.00085715)
(-0.000477784 0 -0.0008021)
(-0.000346225 0 -0.000682939)
(-0.000310065 0 -0.000516868)
(-0.000314581 0 -0.000384888)
(-0.000222994 0 -0.000316816)
(-0.00012944 0 -0.000242625)
(-1.74291e-05 0 -0.000224982)
(6.57607e-05 0 -0.000225914)
(9.27064e-05 0 -0.000348612)
(0.000223688 0 -0.000457003)
(0.00031437 0 -0.000549132)
(0.000408571 0 -0.000539473)
(0.00051186 0 -0.000482539)
(0.000579303 0 -0.000454383)
(0.000650738 0 -0.000416873)
(0.000656504 0 -0.000436597)
(0.000694082 0 -0.000373455)
(0.000721275 0 -0.000322872)
(0.000736501 0 -0.000289139)
(0.000725246 0 -0.00028589)
(0.000728892 0 -0.000231637)
(0.000739645 0 -0.000220416)
(0.000774484 0 -0.000209271)
(0.000823502 0 -3.10481e-05)
(0.000851177 0 5.15492e-05)
(0.000895968 0 0.000116029)
(0.000964494 0 0.000133796)
(0.000991362 0 0.000288319)
(0.00101409 0 0.000201993)
(0.00102024 0 0.000218113)
(0.00104506 0 0.000134013)
(0.00105085 0 0.000154429)
(0.0010634 0 5.65513e-05)
(0.00106174 0 4.21603e-05)
(0.00105765 0 2.36451e-05)
(0.0010621 0 1.74047e-05)
(0.00107034 0 3.46441e-05)
(0.00107438 0 4.52755e-05)
(0.00107744 0 6.42683e-05)
(0.00108105 0 0.000140537)
(0.00109608 0 8.61557e-05)
(0.00109679 0 6.86856e-05)
(0.00109415 0 5.51389e-05)
(0.00108972 0 5.0498e-05)
(0.00107995 0 5.81724e-05)
(0.00105075 0 -2.44789e-05)
(0.0010199 0 0.000108221)
(0.000988681 0 7.4167e-05)
(0.000941817 0 0.000174648)
(0.000909014 0 0.00028405)
(0.000895576 0 0.000252073)
(0.00082266 0 0.00034156)
(0.000709453 0 0.000511085)
(0.000682257 0 0.000553309)
(0.000551981 0 0.000695064)
(0.000469121 0 0.000762754)
(0.00048252 0 0.000813404)
(5.08634e-05 0 0.000910802)
(5.97046e-06 0 0.000349016)
(-1.95069e-12 0 -6.71982e-13)
(-3.37818e-12 0 3.35053e-13)
(-2.1951e-12 0 2.78811e-13)
(-2.0989e-12 0 1.32303e-13)
(-1.98169e-12 0 -5.84063e-14)
(-1.85132e-12 0 -2.55365e-13)
(-1.70415e-12 0 -4.38633e-13)
(-1.538e-12 0 -5.99027e-13)
(-1.35335e-12 0 -7.32591e-13)
(-1.15271e-12 0 -8.37829e-13)
(-9.39943e-13 0 -9.14524e-13)
(-7.1971e-13 0 -9.6327e-13)
(-4.96999e-13 0 -9.85306e-13)
(-2.76797e-13 0 -9.82437e-13)
(-6.3814e-14 0 -9.56963e-13)
(1.37728e-13 0 -9.11587e-13)
(3.24232e-13 0 -8.49301e-13)
(4.92813e-13 0 -7.73253e-13)
(6.41331e-13 0 -6.86619e-13)
(7.68373e-13 0 -5.92481e-13)
(8.73206e-13 0 -4.9372e-13)
(9.55696e-13 0 -3.92943e-13)
(1.01622e-12 0 -2.92425e-13)
(1.05558e-12 0 -1.94087e-13)
(1.07487e-12 0 -9.94874e-14)
(1.07545e-12 0 -9.8436e-15)
(1.05878e-12 0 7.39463e-14)
(1.02644e-12 0 1.51264e-13)
(9.80031e-13 0 2.21728e-13)
(9.21121e-13 0 2.85155e-13)
(8.51242e-13 0 3.4151e-13)
(7.71857e-13 0 3.90873e-13)
(6.84346e-13 0 4.33402e-13)
(5.90005e-13 0 4.69297e-13)
(4.90048e-13 0 4.98778e-13)
(3.8561e-13 0 5.22061e-13)
(2.77761e-13 0 5.39337e-13)
(1.67515e-13 0 5.50763e-13)
(5.59583e-14 0 5.5645e-13)
(-0.000169229 0 0.0010138)
(0.00025689 0 0.00112845)
(-0.000183554 0 0.00116897)
(-0.000310039 0 0.00109456)
(-0.000489661 0 0.000920396)
(-0.000566208 0 0.000801859)
(-0.000682589 0 0.000669033)
(-0.00080606 0 0.000499917)
(-0.000949309 0 0.000315294)
(-0.000958585 0 0.000281801)
(-0.00100075 0 0.000164165)
(-0.00102296 0 -2.99526e-06)
(-0.00102493 0 -0.000117464)
(-0.000971366 0 -0.000301943)
(-0.000975747 0 -0.000590767)
(-0.00104814 0 -0.000590143)
(-0.000952845 0 -0.00075052)
(-0.00100127 0 -0.00067769)
(-0.000911843 0 -0.000824974)
(-0.000894249 0 -0.000853166)
(-0.000754078 0 -0.000970528)
(-0.000739312 0 -0.000925987)
(-0.00059249 0 -0.00090414)
(-0.0007383 0 -0.000623984)
(-0.000428712 0 -0.000668707)
(-0.000396022 0 -0.00047962)
(-0.000148733 0 -0.000425445)
(-6.92332e-05 0 -0.000316949)
(-9.8872e-05 0 -0.000259802)
(2.49811e-05 0 -0.000389208)
(8.20782e-05 0 -0.000540215)
(0.000229564 0 -0.000611612)
(0.000420977 0 -0.000573313)
(0.000445893 0 -0.000566895)
(0.000489116 0 -0.000536877)
(0.000541745 0 -0.000501639)
(0.000586005 0 -0.000459741)
(0.000580142 0 -0.000456843)
(0.000602133 0 -0.000402844)
(0.000605257 0 -0.000356186)
(0.000614814 0 -0.000306858)
(0.000610413 0 -0.00026869)
(0.000605882 0 -0.000209861)
(0.000616629 0 -0.000180804)
(0.000624143 0 -0.00016538)
(0.000612205 0 -0.000102516)
(0.00062145 0 -1.6741e-05)
(0.000685012 0 5.04065e-05)
(0.000793376 0 9.10261e-05)
(0.000854675 0 0.00013557)
(0.000876315 0 0.000128723)
(0.000900524 0 0.000132739)
(0.000915567 0 0.000125218)
(0.000929837 0 0.00010978)
(0.000953844 0 0.000123846)
(0.000992153 0 7.35997e-05)
(0.00101165 0 3.34382e-06)
(0.00101128 0 -5.48222e-06)
(0.0010071 0 -1.29066e-06)
(0.000998142 0 1.87438e-05)
(0.000988568 0 5.52574e-05)
(0.000993724 0 6.57343e-05)
(0.00101367 0 7.19139e-05)
(0.00102893 0 8.44562e-05)
(0.00102738 0 0.000110666)
(0.00102447 0 4.67527e-05)
(0.000999084 0 0.000168583)
(0.000981789 0 2.50586e-06)
(0.000921018 0 0.000250056)
(0.000888975 0 2.72721e-05)
(0.000785554 0 0.00021373)
(0.000778084 0 0.000284663)
(0.00077081 0 0.000317944)
(0.000708916 0 0.00041402)
(0.000696471 0 0.000463083)
(0.000579123 0 0.000649323)
(0.000722624 0 0.000616669)
(0.000422641 0 0.000856141)
(0.000467323 0 0.000923117)
(-0.000271131 0 0.000990322)
(5.12437e-06 0 0.000425557)
(-1.88457e-12 0 -1.33804e-12)
(-3.89854e-12 0 1.44321e-13)
(-2.36075e-12 0 1.94999e-13)
(-2.27808e-12 0 3.83803e-14)
(-2.18221e-12 0 -1.7704e-13)
(-2.04996e-12 0 -3.99269e-13)
(-1.88559e-12 0 -6.06722e-13)
(-1.69435e-12 0 -7.89307e-13)
(-1.48085e-12 0 -9.41945e-13)
(-1.24983e-12 0 -1.06209e-12)
(-1.00648e-12 0 -1.14875e-12)
(-7.56397e-13 0 -1.20208e-12)
(-5.05364e-13 0 -1.22323e-12)
(-2.59034e-13 0 -1.21422e-12)
(-2.26666e-14 0 -1.1778e-12)
(1.99096e-13 0 -1.11734e-12)
(4.02392e-13 0 -1.03658e-12)
(5.84228e-13 0 -9.39506e-13)
(7.42504e-13 0 -8.30114e-13)
(8.7598e-13 0 -7.12261e-13)
(9.84199e-13 0 -5.89529e-13)
(1.06738e-12 0 -4.65115e-13)
(1.12628e-12 0 -3.4178e-13)
(1.16212e-12 0 -2.21813e-13)
(1.17639e-12 0 -1.07037e-13)
(1.17081e-12 0 1.16246e-15)
(1.14719e-12 0 1.01797e-13)
(1.10739e-12 0 1.94225e-13)
(1.05324e-12 0 2.7809e-13)
(9.86509e-13 0 3.53268e-13)
(9.08867e-13 0 4.19809e-13)
(8.21876e-13 0 4.77893e-13)
(7.26981e-13 0 5.27776e-13)
(6.25509e-13 0 5.69761e-13)
(5.18676e-13 0 6.04162e-13)
(4.076e-13 0 6.31275e-13)
(2.93315e-13 0 6.51362e-13)
(1.76785e-13 0 6.64633e-13)
(5.90381e-14 0 6.71233e-13)
(-0.00012289 0 0.000995676)
(-0.000150003 0 0.00120992)
(-2.28483e-05 0 0.00126699)
(-0.000169184 0 0.00118177)
(-0.00028786 0 0.00103987)
(-0.00045507 0 0.000886041)
(-0.000540155 0 0.00079494)
(-0.000514463 0 0.000788516)
(-0.000405382 0 0.00080645)
(-0.000711573 0 0.000392)
(-0.000768576 0 0.000207833)
(-0.000878809 0 -1.2947e-05)
(-0.000901553 0 1.31297e-05)
(-0.000786786 0 -0.000502253)
(-0.00108555 0 -0.000120195)
(-0.0010613 0 -0.00039462)
(-0.000788254 0 -0.000864296)
(-0.000807958 0 -0.000890346)
(-0.000913771 0 -0.000837276)
(-0.000845465 0 -0.000930398)
(-0.00085085 0 -0.000935446)
(-0.000786651 0 -0.000960415)
(-0.000723887 0 -0.000917889)
(-0.000655055 0 -0.000841215)
(-0.000659994 0 -0.00066269)
(-0.000478532 0 -0.000582738)
(-0.00038282 0 -0.000427328)
(-0.000185538 0 -0.000379592)
(-9.64482e-05 0 -0.00033445)
(0.000149589 0 -0.000517699)
(0.000212723 0 -0.000608328)
(0.000278993 0 -0.000654467)
(0.000381542 0 -0.000625656)
(0.00041579 0 -0.000603548)
(0.000481739 0 -0.00054417)
(0.000484157 0 -0.00051448)
(0.000505771 0 -0.000455656)
(0.000479138 0 -0.00045446)
(0.000507338 0 -0.000394596)
(0.000509247 0 -0.000351179)
(0.000518572 0 -0.000298695)
(0.000534594 0 -0.000228477)
(0.000508781 0 -0.000236787)
(0.000502329 0 -0.000180264)
(0.000489242 0 -8.06767e-05)
(0.000476372 0 -9.52084e-05)
(0.000495201 0 -0.000149577)
(0.00057407 0 2.92211e-05)
(0.000647269 0 0.00014153)
(0.000706962 0 0.000135665)
(0.000747645 0 0.000143557)
(0.000791995 0 0.000149765)
(0.00083219 0 0.000109915)
(0.000855792 0 5.41381e-05)
(0.000880367 0 1.95389e-05)
(0.000919776 0 1.11965e-05)
(0.000941323 0 2.54567e-05)
(0.00094089 0 3.61814e-05)
(0.000941265 0 4.06141e-05)
(0.000943262 0 5.88827e-05)
(0.000952217 0 4.10894e-05)
(0.000955003 0 6.93102e-05)
(0.000952069 0 5.55383e-05)
(0.000945535 0 2.96065e-05)
(0.000930105 0 7.17993e-05)
(0.000896662 0 3.97276e-05)
(0.000867674 0 0.000111156)
(0.000848348 0 3.82611e-05)
(0.000781981 0 0.000219321)
(0.000737265 0 0.00022774)
(0.000705014 0 0.000194815)
(0.000630588 0 0.000325447)
(0.000583264 0 0.000404868)
(0.000533623 0 0.000496778)
(0.000553782 0 0.000562313)
(0.000526869 0 0.000688114)
(0.000470848 0 0.000859518)
(0.000438457 0 0.000955817)
(0.000302537 0 0.00108591)
(0.000353044 0 0.00113213)
(6.56394e-06 0 0.000737678)
(-1.94251e-12 0 6.54903e-13)
(-2.58221e-12 0 6.67093e-13)
(-2.30066e-12 0 3.18654e-13)
(-2.47074e-12 0 3.60931e-15)
(-2.41932e-12 0 -2.88677e-13)
(-2.281e-12 0 -5.57775e-13)
(-2.09418e-12 0 -7.99511e-13)
(-1.87322e-12 0 -1.00938e-12)
(-1.62613e-12 0 -1.18366e-12)
(-1.35951e-12 0 -1.31974e-12)
(-1.07993e-12 0 -1.41624e-12)
(-7.94191e-13 0 -1.47305e-12)
(-5.09136e-13 0 -1.49133e-12)
(-2.31369e-13 0 -1.47345e-12)
(3.30658e-14 0 -1.42278e-12)
(2.78949e-13 0 -1.34349e-12)
(5.02063e-13 0 -1.24031e-12)
(6.9928e-13 0 -1.11822e-12)
(8.68576e-13 0 -9.82213e-13)
(1.00896e-12 0 -8.37066e-13)
(1.12035e-12 0 -6.87152e-13)
(1.20344e-12 0 -5.36331e-13)
(1.25953e-12 0 -3.87871e-13)
(1.29032e-12 0 -2.44431e-13)
(1.29785e-12 0 -1.08074e-13)
(1.28428e-12 0 1.9686e-14)
(1.25184e-12 0 1.37824e-13)
(1.20274e-12 0 2.4573e-13)
(1.13907e-12 0 3.43129e-13)
(1.06284e-12 0 4.30014e-13)
(9.75867e-13 0 5.0657e-13)
(8.79823e-13 0 5.73117e-13)
(7.76214e-13 0 6.30055e-13)
(6.66391e-13 0 6.77819e-13)
(5.51561e-13 0 7.16842e-13)
(4.32811e-13 0 7.47524e-13)
(3.11119e-13 0 7.70213e-13)
(1.87386e-13 0 7.85183e-13)
(6.25584e-14 0 7.92621e-13)
(-4.7449e-05 0 0.00100501)
(-0.000118463 0 0.00125711)
(-9.68644e-05 0 0.00134458)
(-0.000348332 0 0.00124225)
(-0.000406394 0 0.00110159)
(-0.000414268 0 0.000994671)
(-0.00052399 0 0.000822912)
(-0.000719951 0 0.000555404)
(-0.000821687 0 0.000215517)
(-0.00064508 0 0.000313785)
(-0.000650965 0 0.00024482)
(-0.000649796 0 0.000215335)
(-0.000705257 0 -7.28072e-05)
(-0.000670462 0 -0.000326586)
(-0.000730132 0 -0.000449635)
(-0.000845701 0 -0.00048495)
(-0.000702771 0 -0.000813265)
(-0.000940392 0 -0.000727592)
(-0.000847387 0 -0.000912941)
(-0.000831436 0 -0.000952538)
(-0.00082967 0 -0.000967977)
(-0.000760701 0 -0.00100979)
(-0.000725748 0 -0.000960275)
(-0.000735829 0 -0.000856784)
(-0.000563325 0 -0.000853026)
(-0.000458882 0 -0.000743189)
(-0.000210974 0 -0.000682908)
(-0.000115924 0 -0.000558449)
(1.77803e-05 0 -0.000518256)
(0.000164636 0 -0.000597859)
(9.8114e-05 0 -0.00069303)
(0.000208985 0 -0.000711941)
(0.00018946 0 -0.000718827)
(0.00026094 0 -0.000676507)
(0.00029423 0 -0.000635362)
(0.000354165 0 -0.000558586)
(0.000393192 0 -0.000458877)
(0.000364781 0 -0.000438434)
(0.000367648 0 -0.000407883)
(0.000388139 0 -0.000371838)
(0.000411571 0 -0.000320116)
(0.000436735 0 -0.000269795)
(0.000450558 0 -0.00022261)
(0.000437129 0 -0.000183383)
(0.000420637 0 -0.000129327)
(0.000429037 0 -0.000126011)
(0.000471273 0 -7.88855e-05)
(0.000510292 0 -2.76812e-05)
(0.000542696 0 -1.56069e-05)
(0.000590517 0 -2.9542e-05)
(0.000644892 0 2.49548e-05)
(0.000695391 0 9.23798e-05)
(0.000754388 0 0.000100988)
(0.000814789 0 6.09839e-05)
(0.000854736 0 1.51314e-05)
(0.000861182 0 -7.48844e-06)
(0.000859991 0 -1.76395e-05)
(0.000856416 0 -1.69505e-05)
(0.0008496 0 1.1979e-05)
(0.000849325 0 2.27237e-05)
(0.000852652 0 5.33773e-05)
(0.000849642 0 0.000101312)
(0.000845409 0 5.95693e-05)
(0.000832712 0 0.000138582)
(0.000822903 0 0.000143038)
(0.000779447 0 0.000141073)
(0.000746829 0 0.000112184)
(0.000684385 0 0.000274855)
(0.000699793 0 0.000109427)
(0.000572301 0 0.000361063)
(0.000624779 0 0.000159096)
(0.000514848 0 0.000354415)
(0.000514611 0 0.000371822)