0.010101 	8.36156e-09 	1.06208e-13 	3.70533e-11
0.020202 	9.05989e-10 	-2.067e-13 	1.32731e-11
