/*--------------------------------*- C++ -*----------------------------------*\
  =========                 |
  \\      /  F ield         | OpenFOAM: The Open Source CFD Toolbox
   \\    /   O peration     | Website:  https://openfoam.org
    \\  /    A nd           | Version:  6
     \\/     M anipulation  |
\*---------------------------------------------------------------------------*/
FoamFile
{
    version     2.0;
    format      ascii;
    class       surfaceScalarField;
    location    "2900";
    object      phi;
}
// * * * * * * * * * * * * * * * * * * * * * * * * * * * * * * * * * * * * * //

dimensions      [0 3 -1 0 0 0 0];

internalField   nonuniform List<scalar> 
9440
(
-1.56438e-10
1.56438e-10
-4.16016e-10
2.59581e-10
-4.72256e-10
5.62413e-11
-4.98708e-10
2.64535e-11
-3.97732e-10
-1.00975e-10
-3.07271e-10
-9.04597e-11
2.21012e-10
-5.28282e-10
5.1646e-10
-2.95447e-10
1.2451e-09
-7.28642e-10
8.7951e-10
3.65593e-10
1.70839e-09
-8.28875e-10
2.32034e-09
-6.11957e-10
2.65613e-09
-3.3579e-10
3.05267e-09
-3.96537e-10
3.25849e-09
-2.05826e-10
3.53867e-09
-2.80177e-10
3.72263e-09
-1.83956e-10
3.88281e-09
-1.60184e-10
3.98924e-09
-1.06434e-10
4.17925e-09
-1.90004e-10
4.38308e-09
-2.03831e-10
4.57302e-09
-1.89939e-10
4.76152e-09
-1.88507e-10
4.86361e-09
-1.02083e-10
4.93848e-09
-7.48716e-11
4.97972e-09
-4.12389e-11
4.99381e-09
-1.4088e-11
5.06623e-09
-7.24278e-11
5.16955e-09
-1.03318e-10
5.2413e-09
-7.17447e-11
5.29261e-09
-5.13092e-11
5.29767e-09
-5.06539e-12
5.29276e-09
4.91364e-12
5.28886e-09
3.89893e-12
5.29528e-09
-6.42013e-12
5.34138e-09
-4.60972e-11
5.3968e-09
-5.54171e-11
5.49291e-09
-9.61134e-11
5.58542e-09
-9.25156e-11
5.65625e-09
-7.08263e-11
5.71954e-09
-6.32903e-11
5.79913e-09
-7.95867e-11
5.87252e-09
-7.33905e-11
5.83535e-09
3.71667e-11
5.8734e-09
-3.80531e-11
5.95493e-09
-8.1529e-11
5.98371e-09
-2.87802e-11
6.07708e-09
-9.3372e-11
6.16859e-09
-9.15065e-11
6.21206e-09
-4.34695e-11
6.24582e-09
-3.37659e-11
6.32263e-09
-7.68002e-11
6.34254e-09
-1.99136e-11
6.33273e-09
9.8101e-12
6.28705e-09
4.56861e-11
6.19524e-09
9.18093e-11
6.0184e-09
1.76838e-10
5.74521e-09
2.73195e-10
5.38078e-09
3.64421e-10
4.87691e-09
5.03876e-10
4.42601e-09
4.50896e-10
4.05437e-09
3.71639e-10
3.72139e-09
3.32975e-10
3.47655e-09
2.44845e-10
3.16843e-09
3.08116e-10
3.06414e-09
1.04287e-10
2.75007e-09
3.14064e-10
2.65465e-09
9.54161e-11
2.45791e-09
1.96741e-10
2.23363e-09
2.24281e-10
2.11342e-09
1.20206e-10
1.82512e-09
2.88295e-10
1.33423e-09
4.90891e-10
8.95937e-10
4.38288e-10
4.59299e-10
4.36638e-10
-2.14117e-10
6.73415e-10
-6.28184e-10
4.14066e-10
-7.25224e-10
9.70407e-11
-8.18751e-10
9.35289e-11
-8.07539e-10
-1.12103e-11
-6.93708e-10
-1.13828e-10
-5.13196e-10
-1.8051e-10
-2.15548e-15
-5.1319e-10
-3.77436e-18
2.43387e-18
-4.3533e-18
5.78943e-19
-4.34479e-18
-5.60612e-21
-4.12819e-18
-2.13795e-19
-3.82365e-18
-3.02314e-19
-3.47273e-18
-3.49396e-19
-3.09279e-18
-3.79167e-19
-2.69391e-18
-3.98847e-19
-2.28408e-18
-4.10468e-19
-1.87068e-18
-4.14604e-19
-1.46076e-18
-4.11561e-19
-1.06099e-18
-4.01729e-19
-6.77476e-19
-3.85671e-19
-3.15654e-19
-3.64105e-19
1.98304e-20
-3.37861e-19
3.25189e-19
-3.07832e-19
5.97523e-19
-2.7493e-19
8.34816e-19
-2.40047e-19
1.03589e-18
-2.04027e-19
1.20034e-18
-1.67637e-19
1.32846e-18
-1.31554e-19
1.42114e-18
-9.63498e-20
1.47979e-18
-6.24979e-20
1.50625e-18
-3.03759e-20
1.50267e-18
-2.75399e-22
1.4714e-18
2.75908e-20
1.41491e-18
5.30785e-20
1.33572e-18
7.61035e-20
1.23637e-18
9.66322e-20
1.11931e-18
1.14671e-19
9.86976e-19
1.30256e-19
8.41715e-19
1.43441e-19
6.85812e-19
1.5429e-19
5.21491e-19
1.62865e-19
3.50937e-19
1.69213e-19
1.76333e-19
1.73338e-19
1.75109e-19
-2.18793e-10
3.75233e-10
-2.56535e-10
2.97325e-10
-2.70015e-10
6.97243e-11
-1.74807e-10
-6.87526e-11
1.42535e-10
-4.18314e-10
4.39393e-10
-3.87316e-10
6.50877e-10
-7.39765e-10
1.376e-09
-1.02057e-09
1.79323e-09
-1.14588e-09
2.43907e-09
-2.80248e-10
2.40682e-09
-7.96623e-10
3.03405e-09
-1.23919e-09
3.4468e-09
-7.48545e-10
3.65041e-09
-6.00146e-10
3.80261e-09
-3.58024e-10
4.09122e-09
-5.68787e-10
4.39044e-09
-4.83184e-10
4.40326e-09
-1.72998e-10
4.57355e-09
-2.76724e-10
4.72347e-09
-3.39923e-10
4.86129e-09
-3.41657e-10
4.96811e-09
-2.96752e-10
5.12918e-09
-3.49576e-10
5.2134e-09
-1.86309e-10
5.2645e-09
-1.25972e-10
5.31989e-09
-9.6624e-11
5.42527e-09
-1.19471e-10
5.46304e-09
-1.10194e-10
5.47424e-09
-1.14518e-10
5.48745e-09
-8.4955e-11
5.52298e-09
-8.68301e-11
5.56088e-09
-4.29743e-11
5.62923e-09
-6.34346e-11
5.68069e-09
-4.75531e-11
5.68551e-09
-1.12465e-11
5.74567e-09
-1.06258e-10
5.78594e-09
-9.569e-11
5.79173e-09
-1.019e-10
5.82674e-09
-1.27523e-10
5.87035e-09
-1.14442e-10
5.84044e-09
-3.33762e-11
5.886e-09
-1.25157e-10
5.94674e-09
-1.34128e-10
5.95446e-09
2.94421e-11
6.06769e-09
-1.51284e-10
6.15744e-09
-1.71277e-10
6.21594e-09
-8.72768e-11
6.22354e-09
-1.00972e-10
6.29415e-09
-1.6212e-10
6.39979e-09
-1.49102e-10
6.49497e-09
-1.28948e-10
6.51203e-09
-9.38529e-11
6.51302e-09
-2.09102e-11
6.48606e-09
3.67759e-11
6.4372e-09
9.45423e-11
6.29001e-09
2.39008e-10
6.16201e-09
3.04838e-10
5.96761e-09
4.67596e-10
5.82437e-09
5.07659e-10
5.59508e-09
7.33166e-10
5.38812e-09
6.57848e-10
5.10664e-09
6.53119e-10
4.7872e-09
6.52413e-10
4.62448e-09
4.07556e-10
4.31453e-09
6.18066e-10
4.02727e-09
3.9154e-10
3.72048e-09
6.20854e-10
3.44268e-09
3.73211e-10
3.18941e-09
4.50004e-10
3.00619e-09
4.07499e-10
2.66216e-09
4.64228e-10
2.36833e-09
5.82129e-10
2.12413e-09
7.35083e-10
1.80193e-09
7.6049e-10
1.2644e-09
9.7417e-10
9.86805e-10
9.51007e-10
7.8122e-10
6.19652e-10
3.10628e-10
5.67636e-10
-1.17626e-10
5.21785e-10
-3.13564e-10
1.84732e-10
-3.87599e-10
-3.97876e-11
-2.63814e-10
-3.04289e-10
-1.47601e-15
-7.76998e-10
-5.62819e-18
2.44531e-19
-4.93699e-18
-1.09593e-19
-4.55223e-18
-3.86028e-19
-4.21654e-18
-5.45961e-19
-3.87073e-18
-6.45719e-19
-3.5025e-18
-7.16379e-19
-3.11247e-18
-7.69101e-19
-2.70553e-18
-8.06775e-19
-2.28821e-18
-8.29731e-19
-1.86763e-18
-8.37913e-19
-1.45093e-18
-8.31586e-19
-1.04493e-18
-8.11478e-19
-6.5591e-19
-7.78752e-19
-2.8941e-19
-7.34904e-19
4.98591e-20
-6.81651e-19
3.58091e-19
-6.20829e-19
6.32406e-19
-5.54298e-19
8.70836e-19
-4.83865e-19
1.07228e-18
-4.11223e-19
1.23643e-18
-3.37896e-19
1.36366e-18
-2.65214e-19
1.45499e-18
-1.9431e-19
1.51191e-18
-1.26122e-19
1.53635e-18
-6.14095e-20
1.53054e-18
-7.68345e-22
1.49688e-18
5.53581e-20
1.43793e-18
1.06668e-19
1.35625e-18
1.52984e-19
1.2544e-18
1.94239e-19
1.13489e-18
2.30451e-19
1.00016e-18
2.61701e-19
8.52564e-19
2.88111e-19
6.94387e-19
3.09821e-19
5.27839e-19
3.26971e-19
3.55061e-19
3.39689e-19
1.78104e-19
3.48075e-19
3.52235e-19
-2.60246e-11
4.01259e-10
-3.25057e-11
3.03809e-10
1.07309e-10
-7.00885e-11
3.26941e-10
-2.88382e-10
5.94327e-10
-6.85698e-10
1.2346e-09
-1.02759e-09
1.23376e-09
-7.3892e-10
1.67237e-09
-1.45918e-09
2.03167e-09
-1.50517e-09
2.81253e-09
-1.06111e-09
3.02926e-09
-1.01336e-09
3.30176e-09
-1.51168e-09
3.51919e-09
-9.6598e-10
3.72173e-09
-8.0269e-10
3.95383e-09
-5.90119e-10
4.07575e-09
-6.90706e-10
4.28141e-09
-6.88849e-10
4.6507e-09
-5.42293e-10
4.81999e-09
-4.46009e-10
4.96656e-09
-4.8649e-10
5.10709e-09
-4.82189e-10
5.19849e-09
-3.88156e-10
5.1786e-09
-3.29688e-10
5.22245e-09
-2.3015e-10
5.26343e-09
-1.66958e-10
5.31617e-09
-1.49359e-10
5.34154e-09
-1.4484e-10
5.41751e-09
-1.86162e-10
5.46538e-09
-1.62393e-10
5.50754e-09
-1.2711e-10
5.55684e-09
-1.36137e-10
5.60719e-09
-9.33152e-11
5.59922e-09
-5.54646e-11
5.62901e-09
-7.7347e-11
5.68471e-09
-6.69491e-11
5.70389e-09
-1.25432e-10
5.71893e-09
-1.10738e-10
5.72899e-09
-1.11958e-10
5.75441e-09
-1.52942e-10
5.78489e-09
-1.4492e-10
5.81723e-09
-6.57252e-11
5.79501e-09
-1.02936e-10
5.83001e-09
-1.69129e-10
5.89609e-09
-3.66348e-11
5.92619e-09
-1.8138e-10
5.9988e-09
-2.43891e-10
6.10914e-09
-1.97614e-10
6.17043e-09
-1.62261e-10
6.21894e-09
-2.10635e-10
6.24105e-09
-1.71211e-10
6.26189e-09
-1.49784e-10
6.26865e-09
-1.00617e-10
6.24905e-09
-1.30639e-12
6.22735e-09
5.8471e-11
6.19553e-09
1.26363e-10
6.12105e-09
3.13493e-10
5.98212e-09
4.43766e-10
5.8621e-09
5.87616e-10
5.64791e-09
7.2185e-10
5.56323e-09
8.17846e-10
5.34976e-09
8.71315e-10
5.0254e-09
9.77477e-10
4.89963e-09
7.78182e-10
4.43747e-09
8.69714e-10
4.42005e-09
6.35476e-10
3.93029e-09
8.81303e-10
3.94104e-09
6.10093e-10
3.55909e-09
7.55157e-10
3.3944e-09
6.14697e-10
3.14312e-09
6.58778e-10
2.93369e-09
6.73647e-10
2.75414e-09
7.61679e-10
2.3328e-09
1.15642e-09
2.14823e-09
9.45059e-10
2.05622e-09
1.06617e-09
1.77552e-09
1.23171e-09
1.19247e-09
1.20271e-09
6.71478e-10
1.08863e-09
4.17609e-10
7.75657e-10
7.60432e-11
5.26301e-10
-2.06548e-10
2.42808e-10
-5.01435e-11
-4.6069e-10
-1.05941e-15
-8.27137e-10
-5.98133e-18
-7.59995e-19
-5.21259e-18
-8.76292e-19
-4.71143e-18
-8.83835e-19
-4.31617e-18
-9.38365e-19
-3.94139e-18
-1.01836e-18
-3.55522e-18
-1.10116e-18
-3.15014e-18
-1.17361e-18
-2.72848e-18
-1.22872e-18
-2.2964e-18
-1.26296e-18
-1.86131e-18
-1.27493e-18
-1.43082e-18
-1.26466e-18
-1.01221e-18
-1.2332e-18
-6.12061e-19
-1.1824e-18
-2.36158e-19
-1.1146e-18
1.10681e-19
-1.03251e-18
4.24623e-19
-9.38984e-19
7.02838e-19
-8.36915e-19
9.43478e-19
-7.29094e-19
1.14561e-18
-6.18125e-19
1.30911e-18
-5.06346e-19
1.43457e-18
-3.95792e-19
1.52318e-18
-2.88175e-19
1.57662e-18
-1.84903e-19
1.59699e-18
-8.71005e-20
1.58666e-18
4.36887e-21
1.54819e-18
8.88759e-20
1.48425e-18
1.66003e-19
1.39751e-18
2.35521e-19
1.29062e-18
2.97358e-19
1.16614e-18
3.5157e-19
1.02657e-18
3.98304e-19
8.74274e-19
4.37761e-19
7.11537e-19
4.70172e-19
5.40556e-19
4.95766e-19
3.63448e-19
5.14748e-19
1.82264e-19
5.27291e-19
5.33528e-19
4.87573e-12
3.96385e-10
1.2407e-10
1.84617e-10
3.26061e-10
-2.72078e-10
5.49515e-10
-5.11834e-10
6.36131e-10
-7.72313e-10
1.17488e-09
-1.56633e-09
1.937e-09
-1.50104e-09
2.27143e-09
-1.7936e-09
2.40434e-09
-1.63808e-09
2.79994e-09
-1.45671e-09
3.16626e-09
-1.37967e-09
3.33806e-09
-1.68349e-09
3.61492e-09
-1.24284e-09
3.71389e-09
-9.01651e-10
3.90835e-09
-7.84584e-10
3.97713e-09
-7.59485e-10
4.19406e-09
-9.05777e-10
4.4724e-09
-8.20641e-10
4.60975e-09
-5.83359e-10
4.66631e-09
-5.43044e-10
4.80761e-09
-6.23489e-10
4.8387e-09
-4.19253e-10
4.87469e-09
-3.65675e-10
4.90745e-09
-2.62914e-10
4.97587e-09
-2.35376e-10
5.05373e-09
-2.27216e-10
5.16819e-09
-2.59298e-10
5.24237e-09
-2.60345e-10
5.2624e-09
-1.8242e-10
5.29261e-09
-1.57325e-10
5.30344e-09
-1.46959e-10
5.33577e-09
-1.25653e-10
5.34003e-09
-5.97203e-11
5.36159e-09
-9.89049e-11
5.40431e-09
-1.09673e-10
5.3914e-09
-1.12526e-10
5.36671e-09
-8.6049e-11
5.39842e-09
-1.43667e-10
5.40273e-09
-1.57252e-10
5.40825e-09
-1.50435e-10
5.47346e-09
-1.30938e-10
5.50525e-09
-1.34729e-10
5.52147e-09
-1.85348e-10
5.57091e-09
-8.60703e-11
5.58927e-09
-1.99741e-10
5.584e-09
-2.38619e-10
5.62467e-09
-2.38286e-10
5.69561e-09
-2.33204e-10
5.71171e-09
-2.26731e-10
5.72589e-09
-1.8539e-10
5.74723e-09
-1.71131e-10
5.75931e-09
-1.12698e-10
5.72062e-09
3.73835e-11
5.69557e-09
8.35221e-11
5.6771e-09
1.44836e-10
5.63354e-09
3.57051e-10
5.57476e-09
5.02543e-10
5.49303e-09
6.69352e-10
5.39107e-09
8.23807e-10
5.28021e-09
9.28705e-10
5.12047e-09
1.03105e-09
4.95586e-09
1.14209e-09
4.73971e-09
9.94326e-10
4.47921e-09
1.13021e-09
4.20241e-09
9.12269e-10
4.06307e-09
1.02064e-09
3.75683e-09
9.1633e-10
3.6721e-09
8.39881e-10
3.40781e-09
8.78981e-10
3.1113e-09
9.55286e-10
3.19099e-09
5.93958e-10
2.82952e-09
1.12314e-09
2.77272e-09
1.21323e-09
2.75399e-09
9.63781e-10
2.38042e-09
1.43975e-09
2.01212e-09
1.60001e-09
1.53315e-09
1.68168e-09
1.2229e-09
1.39888e-09
9.57543e-10
1.04101e-09
5.49216e-10
9.3463e-10
2.36763e-10
5.55263e-10
2.0051e-10
-4.24435e-10
-6.58331e-16
-6.26623e-10
-6.09671e-18
-3.54993e-18
-5.21937e-18
-1.75181e-18
-4.76531e-18
-1.3352e-18
-4.39612e-18
-1.30513e-18
-4.02418e-18
-1.38824e-18
-3.62767e-18
-1.49606e-18
-3.20525e-18
-1.59498e-18
-2.76273e-18
-1.67092e-18
-2.30836e-18
-1.71783e-18
-1.85103e-18
-1.73363e-18
-1.39937e-18
-1.71846e-18
-9.61401e-19
-1.67398e-18
-5.44264e-19
-1.60286e-18
-1.54065e-19
-1.5085e-18
2.04205e-19
-1.39472e-18
5.26692e-19
-1.26558e-18
8.10659e-19
-1.1251e-18
1.05445e-18
-9.77175e-19
1.25739e-18
-8.25404e-19
1.41966e-18
-6.73009e-19
1.54218e-18
-5.22767e-19
1.62645e-18
-3.76987e-19
1.67443e-18
-2.37535e-19
1.68846e-18
-1.05866e-19
1.67117e-18
1.69315e-20
1.62532e-18
1.30091e-19
1.55377e-18
2.3313e-19
1.45935e-18
3.25812e-19
1.34483e-18
4.08102e-19
1.21288e-18
4.80125e-19
1.06603e-18
5.42121e-19
9.06685e-19
5.94397e-19
7.37131e-19
6.37291e-19
5.59539e-19
6.71134e-19
3.75991e-19
6.96223e-19
1.88501e-19
7.12799e-19
7.21037e-19
2.09973e-11
3.75389e-10
2.26657e-10
-2.10398e-11
4.2496e-10
-4.70378e-10
9.02948e-10
-9.8982e-10
1.48947e-09
-1.35884e-09
1.56696e-09
-1.64382e-09
1.93332e-09
-1.8674e-09
2.27807e-09
-2.13835e-09
2.56249e-09
-1.9225e-09
2.89842e-09
-1.79264e-09
3.16208e-09
-1.64333e-09
3.08247e-09
-1.60388e-09
3.37173e-09
-1.5321e-09
3.61684e-09
-1.14676e-09
3.79383e-09
-9.61581e-10
3.9392e-09
-9.04849e-10
3.94884e-09
-9.15421e-10
3.9769e-09
-8.48704e-10
4.07263e-09
-6.79086e-10
4.15058e-09
-6.20997e-10
4.30057e-09
-7.73479e-10
4.30893e-09
-4.27613e-10
4.33101e-09
-3.87753e-10
4.3613e-09
-2.93203e-10
4.41147e-09
-2.85542e-10
4.4994e-09
-3.15152e-10
4.60808e-09
-3.6798e-10
4.65045e-09
-3.02712e-10
4.68393e-09
-2.15901e-10
4.69722e-09
-1.70615e-10
4.70824e-09
-1.57979e-10
4.72198e-09
-1.3939e-10
4.77638e-09
-1.14121e-10
4.81456e-09
-1.37088e-10
4.82448e-09
-1.19591e-10
4.83056e-09
-1.18611e-10
4.8325e-09
-8.79886e-11
4.83227e-09
-1.43435e-10
4.82171e-09
-1.46688e-10
4.82954e-09
-1.58264e-10
4.81525e-09
-1.16653e-10
4.84591e-09
-1.65386e-10
4.87877e-09
-2.18209e-10
4.95529e-09
-1.62595e-10
4.97857e-09
-2.23016e-10
4.97672e-09
-2.3677e-10
5.04195e-09
-3.03514e-10
5.0859e-09
-2.77154e-10
5.06513e-09
-2.0596e-10
5.11005e-09
-2.3031e-10
5.11453e-09
-1.75613e-10
5.11936e-09
-1.17535e-10
5.12958e-09
2.71648e-11
5.14474e-09
6.83653e-11
5.04628e-09
2.43293e-10
5.06044e-09
3.42886e-10
5.08775e-09
4.75241e-10
5.01732e-09
7.39774e-10
4.95126e-09
8.89871e-10
4.878e-09
1.00196e-09
4.7487e-09
1.16035e-09
4.64872e-09
1.24207e-09
4.46547e-09
1.17757e-09
4.29757e-09
1.29811e-09
4.09022e-09
1.11962e-09
3.93595e-09
1.17491e-09
3.69048e-09
1.1618e-09
3.62654e-09
9.03818e-10
3.36637e-09
1.13915e-09
3.2581e-09
1.06355e-09
3.09236e-09
7.59691e-10
2.78728e-09
1.42822e-09
2.78184e-09
1.21867e-09
2.55486e-09
1.19076e-09
2.29451e-09
1.70009e-09
2.21198e-09
1.68254e-09
2.16962e-09
1.72404e-09
1.88471e-09
1.68378e-09
1.29225e-09
1.63348e-09
8.78397e-10
1.34848e-09
7.60953e-10
6.72708e-10
4.64138e-10
-1.27617e-10
-1.04687e-16
-1.62484e-10
-4.29791e-18
-6.97482e-19
-4.80208e-18
-1.24612e-18
-4.73475e-18
-1.4007e-18
-4.47923e-18
-1.55885e-18
-4.132e-18
-1.73366e-18
-3.72659e-18
-1.89971e-18
-3.28119e-18
-2.03887e-18
-2.80965e-18
-2.14147e-18
-2.32416e-18
-2.20309e-18
-1.83586e-18
-2.22257e-18
-1.35489e-18
-2.20095e-18
-8.90283e-19
-2.14088e-18
-4.49901e-19
-2.04618e-18
-4.02919e-20
-1.92153e-18
3.33351e-19
-1.77209e-18
6.6717e-19
-1.60329e-18
9.58584e-19
-1.42048e-18
1.20622e-18
-1.22878e-18
1.40978e-18
-1.0329e-18
1.5699e-18
-8.37013e-19
1.68796e-18
-6.44679e-19
1.7659e-18
-4.58821e-19
1.8061e-18
-2.81742e-19
1.81126e-18
-1.1519e-19
1.78433e-18
3.95814e-20
1.72836e-18
1.81733e-19
1.64645e-18
3.10782e-19
1.54164e-18
4.26544e-19
1.41685e-18
5.29077e-19
1.27487e-18
6.18623e-19
1.1183e-18
6.95551e-19
9.49579e-19
7.6031e-19
7.70974e-19
8.13368e-19
5.84627e-19
8.5518e-19
3.92567e-19
8.86148e-19
1.96738e-19
9.06596e-19
9.16752e-19
6.32778e-11
3.12113e-10
3.13135e-10
-2.70895e-10
5.79703e-10
-7.36945e-10
9.2596e-10
-1.33608e-09
1.43363e-09
-1.86651e-09
1.85527e-09
-2.06545e-09
2.24881e-09
-2.26095e-09
2.38889e-09
-2.27843e-09
2.58145e-09
-2.11507e-09
2.83642e-09
-2.04761e-09
3.14859e-09
-1.95551e-09
3.07892e-09
-1.53421e-09
3.15521e-09
-1.60839e-09
3.25022e-09
-1.24177e-09
3.28859e-09
-9.99952e-10
3.33613e-09
-9.5239e-10
3.3313e-09
-9.10589e-10
3.36352e-09
-8.80926e-10
3.43044e-09
-7.46006e-10
3.46382e-09
-6.54383e-10
3.49538e-09
-8.05039e-10
3.55816e-09
-4.90392e-10
3.58992e-09
-4.19515e-10
3.66194e-09
-3.6522e-10
3.70917e-09
-3.32767e-10
3.76196e-09
-3.67942e-10
3.78886e-09
-3.94887e-10
3.82212e-09
-3.35972e-10
3.86951e-09
-2.63287e-10
3.90821e-09
-2.0932e-10
3.92954e-09
-1.79304e-10
3.95526e-09
-1.6511e-10
3.99185e-09
-1.50718e-10
4.03193e-09
-1.77168e-10
4.03405e-09
-1.21707e-10
4.04509e-09
-1.29654e-10
4.06959e-09
-1.12486e-10
4.07342e-09
-1.47268e-10
4.10739e-09
-1.8066e-10
4.16224e-09
-2.13115e-10
4.20828e-09
-1.62691e-10
4.2227e-09
-1.79804e-10
4.22962e-09
-2.25131e-10
4.2865e-09
-2.19473e-10
4.3233e-09
-2.59816e-10
4.36174e-09
-2.75208e-10
4.37254e-09
-3.1432e-10
4.37611e-09
-2.80719e-10
4.41511e-09
-2.44961e-10
4.44316e-09
-2.58361e-10
4.42742e-09
-1.59871e-10
4.41132e-09
-1.01442e-10
4.46491e-09
-2.64286e-11
4.43295e-09
1.00324e-10
4.45186e-09
2.24387e-10
4.49644e-09
2.98303e-10
4.41622e-09
5.5546e-10
4.4571e-09
6.98889e-10
4.38817e-09
9.58799e-10
4.33672e-09
1.05341e-09
4.25446e-09
1.24261e-09
4.20844e-09
1.28808e-09
4.07378e-09
1.31223e-09
3.93894e-09
1.43295e-09
3.83637e-09
1.22218e-09
3.68676e-09
1.32452e-09
3.6145e-09
1.23406e-09
3.48179e-09
1.03652e-09
3.2667e-09
1.35424e-09
3.21072e-09
1.11953e-09
2.95325e-09
1.01716e-09
2.77051e-09
1.61096e-09
2.60103e-09
1.38815e-09
2.37477e-09
1.41701e-09
2.21307e-09
1.8618e-09
1.99161e-09
1.904e-09
1.91277e-09
1.80289e-09
1.68411e-09
1.91244e-09
1.51665e-09
1.80094e-09
1.41502e-09
1.45011e-09
8.36845e-10
1.25089e-09
1.62474e-10
5.46754e-10
-4.86416e-18
-1.0609e-14
-4.84588e-18
-1.05178e-18
-4.95606e-18
-1.13488e-18
-4.89257e-18
-1.46356e-18
-4.65405e-18
-1.79643e-18
-4.29805e-18
-2.08829e-18
-3.86575e-18
-2.33028e-18
-3.38379e-18
-2.51899e-18
-2.87127e-18
-2.65238e-18
-2.34364e-18
-2.72968e-18
-1.81424e-18
-2.75173e-18
-1.29482e-18
-2.72104e-18
-7.95586e-19
-2.64162e-18
-3.25242e-19
-2.51879e-18
1.09142e-19
-2.35876e-18
5.02154e-19
-2.16836e-18
8.49979e-19
-1.95459e-18
1.15028e-18
-1.72437e-18
1.4021e-18
-1.48419e-18
1.60567e-18
-1.24001e-18
1.76224e-18
-9.97008e-19
1.87382e-18
-7.59591e-19
1.94298e-18
-5.31288e-19
1.97265e-18
-3.14818e-19
1.96603e-18
-1.12162e-19
1.92648e-18
7.53287e-20
1.85741e-18
2.46825e-19
1.76221e-18
4.0193e-19
1.64417e-18
5.40592e-19
1.5064e-18
6.63029e-19
1.3518e-18
7.69663e-19
1.18306e-18
8.61048e-19
1.00264e-18
9.37809e-19
8.12786e-19
1.00058e-18
6.15595e-19
1.04998e-18
4.13016e-19
1.08652e-18
2.06894e-19
1.11062e-18
1.12259e-18
1.0373e-10
2.08384e-10
4.01802e-10
-5.68965e-10
8.01702e-10
-1.13684e-09
1.16118e-09
-1.69555e-09
1.39974e-09
-2.10507e-09
1.73538e-09
-2.40108e-09
2.05618e-09
-2.58175e-09
2.26271e-09
-2.48496e-09
2.50441e-09
-2.35677e-09
2.59669e-09
-2.13989e-09
2.69434e-09
-2.05315e-09
2.56706e-09
-1.40692e-09
2.68191e-09
-1.72324e-09
2.72812e-09
-1.28798e-09
2.79949e-09
-1.07132e-09
2.90343e-09
-1.05633e-09
2.8745e-09
-8.81662e-10
2.82857e-09
-8.34992e-10
2.84428e-09
-7.61715e-10
2.86248e-09
-6.72585e-10
2.74313e-09
-6.8569e-10
2.78049e-09
-5.27753e-10
2.82974e-09
-4.68763e-10
2.91698e-09
-4.52465e-10
3.0066e-09
-4.22383e-10
3.03229e-09
-3.93635e-10
3.01324e-09
-3.75839e-10
3.01048e-09
-3.33212e-10
3.03282e-09
-2.85625e-10
3.09976e-09
-2.76264e-10
3.15214e-09
-2.31688e-10
3.19567e-09
-2.08637e-10
3.25988e-09
-2.14927e-10
3.27616e-09
-1.93453e-10
3.30452e-09
-1.50064e-10
3.35002e-09
-1.7516e-10
3.40519e-09
-1.67652e-10
3.44279e-09
-1.84869e-10
3.49594e-09
-2.33805e-10
3.5334e-09
-2.50576e-10
3.58647e-09
-2.15759e-10
3.62962e-09
-2.22953e-10
3.64431e-09
-2.39821e-10
3.67606e-09
-2.51222e-10
3.68128e-09
-2.65039e-10
3.69164e-09
-2.85564e-10
3.67074e-09
-2.93415e-10
3.66289e-09
-2.72872e-10
3.69181e-09
-2.73885e-10
3.68065e-09
-2.47206e-10
3.72502e-09
-2.04237e-10
3.74634e-09
-1.2277e-10
3.78857e-09
-6.86614e-11
3.76361e-09
1.25282e-10
3.75585e-09
2.32149e-10
3.80593e-09
2.48217e-10
3.73334e-09
6.28046e-10
3.75131e-09
6.80919e-10
3.72753e-09
9.82579e-10
3.65092e-09
1.13002e-09
3.66309e-09
1.23044e-09
3.62132e-09
1.32985e-09
3.55379e-09
1.37976e-09
3.54088e-09
1.44586e-09
3.41602e-09
1.34703e-09
3.42863e-09
1.31191e-09
3.35526e-09
1.30743e-09
3.15712e-09
1.23466e-09
3.14261e-09
1.36874e-09
3.01852e-09
1.24363e-09
2.73713e-09
1.29855e-09
2.64169e-09
1.7064e-09
2.50592e-09
1.52392e-09
2.30095e-09
1.62199e-09
2.10208e-09
2.06066e-09
1.96421e-09
2.04187e-09
1.75445e-09
2.01265e-09
1.50084e-09
2.16604e-09
1.24739e-09
2.0544e-09
6.87925e-10
2.00957e-09
3.68159e-10
1.57065e-09
1.1258e-14
9.14902e-10
-3.45729e-18
1.16462e-17
-4.92862e-18
4.93225e-21
-5.28427e-18
-7.78834e-19
-5.22524e-18
-1.52288e-18
-4.94591e-18
-2.0756e-18
-4.54003e-18
-2.49334e-18
-4.05446e-18
-2.81432e-18
-3.51718e-18
-3.05428e-18
-2.94857e-18
-3.21888e-18
-2.36569e-18
-3.31077e-18
-1.78355e-18
-3.33273e-18
-1.21541e-18
-3.28885e-18
-6.72751e-19
-3.1848e-18
-1.65216e-19
-3.02765e-18
2.99548e-19
-2.82554e-18
7.15918e-19
-2.58725e-18
1.0802e-18
-2.32173e-18
1.39046e-18
-2.03766e-18
1.64629e-18
-1.74316e-18
1.84867e-18
-1.44551e-18
1.99966e-18
-1.15103e-18
2.10212e-18
-8.64959e-19
2.15945e-18
-5.91437e-19
2.1753e-18
-3.33546e-19
2.15352e-18
-9.34307e-20
2.09798e-18
1.27554e-19
2.01251e-18
3.28694e-19
1.90087e-18
5.09782e-19
1.76661e-18
6.70999e-19
1.61303e-18
8.12816e-19
1.44319e-18
9.35909e-19
1.25982e-18
1.04108e-18
1.06541e-18
1.12919e-18
8.62179e-19
1.20108e-18
6.52134e-19
1.25753e-18
4.37122e-19
1.29923e-18
2.18858e-19
1.32672e-18
1.34035e-18
1.73326e-10
3.5059e-11
4.06343e-10
-8.01981e-10
8.04001e-10
-1.5345e-09
1.21625e-09
-2.1078e-09
1.52401e-09
-2.41283e-09
1.75412e-09
-2.63119e-09
1.9313e-09
-2.75893e-09
2.10562e-09
-2.65928e-09
2.22633e-09
-2.47748e-09
2.227e-09
-2.14056e-09
2.21522e-09
-2.04137e-09
2.37927e-09
-1.57097e-09
2.29607e-09
-1.64004e-09
2.2441e-09
-1.23601e-09
2.28511e-09
-1.11233e-09
2.30324e-09
-1.07447e-09
2.29118e-09
-8.69602e-10
2.2429e-09
-7.86706e-10
2.27471e-09
-7.93531e-10
2.24119e-09
-6.39061e-10
2.19569e-09
-6.40191e-10
2.21776e-09
-5.49818e-10
2.2409e-09
-4.91909e-10
2.25429e-09
-4.65854e-10
2.28456e-09
-4.52659e-10
2.31999e-09
-4.29058e-10
2.35537e-09
-4.11221e-10
2.39712e-09
-3.74966e-10
2.44385e-09
-3.32363e-10
2.4811e-09
-3.13514e-10
2.53132e-09
-2.81904e-10
2.57578e-09
-2.53103e-10
2.65032e-09
-2.89461e-10
2.68053e-09
-2.23663e-10
2.78319e-09
-2.52726e-10
2.83152e-09
-2.23492e-10
2.91376e-09
-2.49889e-10
2.96652e-09
-2.37632e-10
2.97669e-09
-2.43974e-10
2.98082e-09
-2.54702e-10
3.01903e-09
-2.5397e-10
3.05543e-09
-2.59353e-10
3.06672e-09
-2.5111e-10
3.06071e-09
-2.45212e-10
3.03993e-09
-2.44254e-10
3.02243e-09
-2.68064e-10
3.03055e-09
-3.01533e-10
3.02961e-09
-2.71936e-10
2.99814e-09
-2.4242e-10
2.95734e-09
-2.06401e-10
3.00774e-09
-2.54637e-10
3.02204e-09
-1.37076e-10
2.98953e-09
-3.61566e-11
3.01381e-09
1.01e-10
3.04207e-09
2.03883e-10
3.03007e-09
2.60214e-10
3.05206e-09
6.06058e-10
2.96849e-09
7.64481e-10
3.01608e-09
9.34991e-10
3.02476e-09
1.12133e-09
3.00742e-09
1.24778e-09
2.9813e-09
1.35597e-09
2.96562e-09
1.39544e-09
3.01435e-09
1.39713e-09
2.97084e-09
1.39054e-09
3.05123e-09
1.23153e-09
2.98285e-09
1.3758e-09
2.92693e-09
1.29058e-09
2.93187e-09
1.3638e-09
2.7561e-09
1.4194e-09
2.49661e-09
1.55804e-09
2.47832e-09
1.72469e-09
2.2258e-09
1.77643e-09
1.93241e-09
1.91539e-09
1.83441e-09
2.15866e-09
1.70052e-09
2.17577e-09
1.51219e-09
2.20098e-09
1.33987e-09
2.33836e-09
1.11284e-09
2.28143e-09
8.93274e-10
2.22914e-09
5.55518e-10
1.90841e-09
7.67116e-14
1.47034e-09
-1.81809e-18
7.61938e-14
-5.71202e-18
3.19495e-18
-6.02788e-18
-4.63309e-19
-5.77786e-18
-1.77377e-18
-5.36365e-18
-2.49026e-18
-4.86101e-18
-2.99564e-18
-4.29442e-18
-3.37971e-18
-3.68178e-18
-3.665e-18
-3.04046e-18
-3.85784e-18
-2.38765e-18
-3.96124e-18
-1.73967e-18
-3.9788e-18
-1.11135e-18
-3.91592e-18
-5.15602e-19
-3.78006e-18
3.68906e-20
-3.58043e-18
5.37837e-19
-3.32751e-18
9.81442e-19
-3.03247e-18
1.36427e-18
-2.70659e-18
1.68496e-18
-2.36068e-18
1.94394e-18
-2.00468e-18
2.14315e-18
-1.64738e-18
2.28572e-18
-1.29626e-18
2.37564e-18
-9.5743e-19
2.41734e-18
-6.35572e-19
2.41542e-18
-3.34059e-19
2.37451e-18
-5.5094e-20
2.29912e-18
2.00088e-19
2.1936e-18
4.31018e-19
2.06209e-18
6.37808e-19
1.90842e-18
8.20993e-19
1.73612e-18
9.81405e-19
1.54836e-18
1.12007e-18
1.34793e-18
1.23812e-18
1.1373e-18
1.33669e-18
9.18635e-19
1.4169e-18
6.93836e-19
1.47975e-18
4.64603e-19
1.52608e-18
2.32488e-19
1.55658e-18
1.57169e-18
2.46637e-10
-2.11577e-10
5.12269e-10
-1.06761e-09
8.64201e-10
-1.88643e-09
1.11054e-09
-2.35414e-09
1.4017e-09
-2.70399e-09
1.64645e-09
-2.87593e-09
1.68176e-09
-2.79424e-09
1.72173e-09
-2.69925e-09
1.84704e-09
-2.60278e-09
1.97917e-09
-2.27269e-09
1.92198e-09
-1.98418e-09
2.01856e-09
-1.66755e-09
1.79687e-09
-1.41835e-09
1.81673e-09
-1.25586e-09
1.85265e-09
-1.14825e-09
1.78973e-09
-1.01154e-09
1.8605e-09
-9.40376e-10
1.78595e-09
-7.12158e-10
1.7649e-09
-7.72477e-10
1.74002e-09
-6.14178e-10
1.70829e-09
-6.08459e-10
1.72221e-09
-5.63737e-10
1.74008e-09
-5.09789e-10
1.76687e-09
-4.92638e-10
1.80311e-09
-4.889e-10
1.83872e-09
-4.6467e-10
1.8782e-09
-4.50702e-10
1.92009e-09
-4.16862e-10
1.97697e-09
-3.89243e-10
2.03202e-09
-3.68566e-10
2.08689e-09
-3.36777e-10
2.15268e-09
-3.18892e-10
2.20696e-09
-3.43743e-10
2.26132e-09
-2.78021e-10
2.32791e-09
-3.19325e-10
2.36946e-09
-2.65038e-10
2.42328e-09
-3.03709e-10
2.49431e-09
-3.08655e-10
2.50568e-09
-2.55346e-10
2.5116e-09
-2.60617e-10
2.53197e-09
-2.74344e-10
2.52685e-09
-2.54233e-10
2.51952e-09
-2.43772e-10
2.53747e-09
-2.63166e-10
2.53259e-09
-2.39369e-10
2.48698e-09
-2.22452e-10
2.49341e-09
-3.07963e-10
2.44504e-09
-2.23571e-10
2.4438e-09
-2.41177e-10
2.37281e-09
-1.35417e-10
2.34867e-09
-2.30499e-10
2.331e-09
-1.19413e-10
2.27712e-09
1.77178e-11
2.30105e-09
7.70736e-11
2.35204e-09
1.52881e-10
2.26342e-09
3.48833e-10
2.31712e-09
5.5236e-10
2.31511e-09
7.66483e-10
2.28751e-09
9.62587e-10
2.31756e-09
1.09128e-09
2.32029e-09
1.24505e-09
2.39884e-09
1.27742e-09
2.51131e-09
1.28297e-09
2.54131e-09
1.36713e-09
2.56273e-09
1.36912e-09
2.47476e-09
1.3195e-09
2.39562e-09
1.45493e-09
2.31234e-09
1.37387e-09
2.21597e-09
1.46017e-09
2.1716e-09
1.46377e-09
2.02244e-09
1.7072e-09
1.98993e-09
1.7572e-09
1.83505e-09
1.93132e-09
1.76908e-09
1.98135e-09
1.7284e-09
2.19934e-09
1.55353e-09
2.35064e-09
1.34326e-09
2.41124e-09
1.11596e-09
2.56567e-09
8.40458e-10
2.55693e-09
5.6449e-10
2.5051e-09
1.89431e-10
2.28347e-09
-7.66973e-14
1.65985e-09
-1.76504e-17
-6.82821e-16
-9.36982e-18
-4.48686e-18
-7.33793e-18
-2.49607e-18
-6.49429e-18
-2.61853e-18
-5.86903e-18
-3.11626e-18
-5.24508e-18
-3.61955e-18
-4.57972e-18
-4.04414e-18
-3.87462e-18
-4.36838e-18
-3.14386e-18
-4.58623e-18
-2.4052e-18
-4.69728e-18
-1.67679e-18
-4.70478e-18
-9.75491e-19
-4.61527e-18
-3.15973e-19
-4.43826e-18
2.8981e-19
-4.18558e-18
8.32872e-19
-3.87065e-18
1.30732e-18
-3.50762e-18
1.71018e-18
-3.11061e-18
2.04096e-18
-2.69298e-18
2.30124e-18
-2.26679e-18
2.49426e-18
-1.8425e-18
2.62456e-18
-1.4288e-18
2.6975e-18
-1.0326e-18
2.71885e-18
-6.59051e-19
2.69438e-18
-3.11672e-19
2.62969e-18
7.4295e-21
2.53005e-18
2.97302e-19
2.40039e-18
5.57885e-19
2.24527e-18
7.89769e-19
2.06884e-18
9.9399e-19
1.87479e-18
1.17187e-18
1.66641e-18
1.32489e-18
1.44651e-18
1.4546e-18
1.21751e-18
1.56249e-18
9.81481e-19
1.65e-18
7.40172e-19
1.71838e-18
4.95099e-19
1.76868e-18
2.47601e-19
1.80174e-18
1.81811e-18
1.46005e-10
-3.57581e-10
4.73381e-10
-1.39499e-09
7.73855e-10
-2.18691e-09
1.01769e-09
-2.59798e-09
1.28318e-09
-2.96948e-09
1.42727e-09
-3.02002e-09
1.60055e-09
-2.96752e-09
1.70945e-09
-2.80814e-09
1.69268e-09
-2.58602e-09
1.59118e-09
-2.17119e-09
1.4909e-09
-1.8839e-09
1.48219e-09
-1.65884e-09
1.42234e-09
-1.35851e-09
1.44506e-09
-1.27858e-09
1.41692e-09
-1.12011e-09
1.3832e-09
-9.77812e-10
1.4347e-09
-9.91878e-10
1.41161e-09
-6.89065e-10
1.37974e-09
-7.40603e-10
1.39774e-09
-6.32178e-10
1.3799e-09
-5.90623e-10
1.39327e-09
-5.77103e-10
1.40083e-09
-5.17356e-10
1.42008e-09
-5.11892e-10
1.44881e-09
-5.17629e-10
1.48577e-09
-5.01626e-10
1.5275e-09
-4.92433e-10
1.56432e-09
-4.5369e-10
1.61915e-09
-4.44074e-10
1.6763e-09
-4.25719e-10
1.73351e-09
-3.93989e-10
1.79465e-09
-3.80027e-10
1.8378e-09
-3.86893e-10
1.90933e-09
-3.49557e-10
1.95699e-09
-3.66984e-10
2.01724e-09
-3.25292e-10
2.04465e-09
-3.31111e-10
2.07601e-09
-3.40019e-10
2.09821e-09
-2.77541e-10
2.13192e-09
-2.94326e-10
2.16428e-09
-3.0671e-10
2.16734e-09
-2.57291e-10
2.15953e-09
-2.35959e-10
2.15503e-09
-2.58667e-10
2.14335e-09
-2.27689e-10
2.08628e-09
-1.6538e-10
2.07835e-09
-3.00027e-10
1.99259e-09
-1.3782e-10
1.92835e-09
-1.76932e-10
1.87522e-09
-8.22926e-11
1.77932e-09
-1.34597e-10
1.75098e-09
-9.10811e-11
1.72709e-09
4.16029e-11
1.71403e-09
9.01347e-11
1.63936e-09
2.27539e-10
1.59304e-09
3.9515e-10
1.61579e-09
5.29614e-10
1.64621e-09
7.36056e-10
1.70234e-09
9.06455e-10
1.7635e-09
1.03011e-09
1.8287e-09
1.17986e-09
1.87239e-09
1.23372e-09
1.81426e-09
1.34109e-09
1.83327e-09
1.34812e-09
1.94896e-09
1.25344e-09
2.05485e-09
1.2136e-09
2.13334e-09
1.37644e-09
2.13761e-09
1.3696e-09
2.0619e-09
1.53587e-09
1.87588e-09
1.6498e-09
2.03604e-09
1.54703e-09
1.91655e-09
1.8767e-09
1.80641e-09
2.04146e-09
1.54493e-09
2.24283e-09
1.30961e-09
2.43467e-09
1.2285e-09
2.43175e-09
1.1479e-09
2.49185e-09
1.03679e-09
2.67677e-09
8.94838e-10
2.69888e-09
6.64989e-10
2.73495e-09
4.88981e-10
2.45947e-09
4.70854e-16
2.14883e-09
-4.43033e-18
1.79922e-18
-7.37897e-18
-1.53821e-18
-7.4601e-18
-2.41563e-18
-6.99198e-18
-3.08748e-18
-6.37232e-18
-3.73649e-18
-5.66966e-18
-4.32213e-18
-4.90396e-18
-4.80899e-18
-4.09247e-18
-5.17831e-18
-3.25491e-18
-5.42154e-18
-2.4127e-18
-5.5368e-18
-1.58728e-18
-5.52748e-18
-7.98479e-19
-5.4017e-18
-6.32976e-20
-5.17157e-18
6.04746e-19
-4.85234e-18
1.1959e-18
-4.46115e-18
1.70433e-18
-4.01598e-18
2.12781e-18
-3.53447e-18
2.46715e-18
-3.03306e-18
2.72554e-18
-2.52627e-18
2.90796e-18
-2.0264e-18
3.02076e-18
-1.54336e-18
3.07105e-18
-1.08478e-18
3.06623e-18
-6.56075e-19
3.01349e-18
-2.60713e-19
2.91956e-18
9.95216e-20
2.79063e-18
4.24185e-19
2.63228e-18
7.13837e-19
2.44949e-18
9.69737e-19
2.24672e-18
1.19359e-18
2.02781e-18
1.38737e-18
1.79611e-18
1.55312e-18
1.5544e-18
1.69289e-18
1.30502e-18
1.80865e-18
1.04986e-18
1.90217e-18
7.90477e-19
1.975e-18
5.28155e-19