/*--------------------------------*- C++ -*----------------------------------*\
  =========                 |
  \\      /  F ield         | OpenFOAM: The Open Source CFD Toolbox
   \\    /   O peration     | Website:  https://openfoam.org
    \\  /    A nd           | Version:  6
     \\/     M anipulation  |
\*---------------------------------------------------------------------------*/
FoamFile
{
    version     2.0;
    format      ascii;
    class       volVectorField;
    location    "2900";
    object      U;
}
// * * * * * * * * * * * * * * * * * * * * * * * * * * * * * * * * * * * * * //

dimensions      [0 1 -1 0 0 0 0];

internalField   nonuniform List<vector> 
4800
(
(-1.92754e-05 0 -0.000154113)
(-0.000175266 0 3.62395e-05)
(-0.000198949 0 -4.29499e-05)
(-0.000207495 0 -5.52082e-05)
(-0.000162023 0 -6.34077e-05)
(-0.000137344 0 -3.90148e-05)
(-5.78111e-07 0 -0.000125959)
(0.000174719 0 1.99863e-05)
(0.000295518 0 -0.000343485)
(0.000492317 0 -5.74408e-05)
(0.000466605 0 -0.000715849)
(0.000804557 0 -0.000166675)
(0.0010485 0 -7.04365e-05)
(0.00116603 0 -0.000471055)
(0.00133105 0 -0.000311062)
(0.00138794 0 -0.000109404)
(0.00144539 0 -5.35699e-05)
(0.00154034 0 -0.000315438)
(0.00168944 0 1.7112e-05)
(0.00169924 0 -5.5346e-06)
(0.00170963 0 -5.85508e-05)
(0.0017617 0 -0.000115422)
(0.00186837 0 -0.00012204)
(0.00196619 0 -5.4502e-05)
(0.00197149 0 -3.31506e-05)
(0.00197765 0 -3.05447e-05)
(0.00199572 0 -3.73817e-05)
(0.00202516 0 -5.03795e-05)
(0.0020588 0 -4.89983e-05)
(0.00208199 0 -2.47657e-05)
(0.00210486 0 -1.35588e-05)
(0.002123 0 -1.59792e-05)
(0.00212162 0 -1.57127e-05)
(0.00211602 0 -2.19464e-05)
(0.00211687 0 -2.77586e-05)
(0.00213276 0 -1.61777e-05)
(0.00216788 0 -1.84228e-05)
(0.00219328 0 -6.37729e-05)
(0.00221165 0 -6.50586e-05)
(0.0022399 0 -7.34792e-05)
(0.00227688 0 -6.76441e-05)
(0.00230531 0 -4.38457e-05)
(0.00233018 0 -6.52334e-05)
(0.00235214 0 -0.000104967)
(0.0023532 0 -5.95677e-05)
(0.00236314 0 -5.04006e-05)
(0.00240017 0 6.54807e-06)
(0.00243288 0 -3.57785e-05)
(0.00244439 0 -5.94163e-05)
(0.00246545 0 -5.97497e-05)
(0.00249031 0 -9.96405e-05)
(0.00251544 0 -0.000138133)
(0.00253973 0 -5.44998e-05)
(0.00253843 0 -4.19917e-05)
(0.00252693 0 -9.14864e-06)
(0.00249846 0 -3.67681e-05)
(0.00244216 0 6.3678e-05)
(0.00234491 0 3.30252e-05)
(0.00219705 0 5.57922e-05)
(0.00201367 0 -4.74879e-05)
(0.00182209 0 2.82624e-05)
(0.00167305 0 8.81702e-05)
(0.00155775 0 -0.000139539)
(0.00145683 0 0.000125765)
(0.00130032 0 -0.000330262)
(0.00123685 0 7.68728e-05)
(0.00114323 0 -0.000196985)
(0.0010956 0 4.61e-05)
(0.0010252 0 -2.51691e-05)
(0.000951548 0 -3.69935e-05)
(0.000870057 0 0.00015585)
(0.000808195 0 -5.40293e-05)
(0.000680852 0 9.66217e-05)
(0.000522996 0 6.41776e-05)
(0.00036445 0 -9.19767e-05)
(0.000121387 0 4.01694e-05)
(-0.000332797 0 -5.2386e-05)
(-0.000269135 0 -0.000166587)
(-0.000346734 0 -9.86254e-05)
(-0.000334909 0 -0.000113267)
(-0.000271068 0 -0.000127059)
(-0.00023701 0 -0.000117956)
(-4.55457e-08 0 -0.000234598)
(-9.31545e-13 0 4.86777e-13)
(-1.62554e-12 0 1.15789e-13)
(-1.73962e-12 0 -1.12123e-15)
(-1.69456e-12 0 -4.27591e-14)
(-1.59036e-12 0 -6.04629e-14)
(-1.45927e-12 0 -6.98791e-14)
(-1.3131e-12 0 -7.58335e-14)
(-1.15734e-12 0 -7.97693e-14)
(-9.95597e-13 0 -8.20935e-14)
(-8.30951e-13 0 -8.29209e-14)
(-6.66288e-13 0 -8.23122e-14)
(-5.0435e-13 0 -8.03459e-14)
(-3.47693e-13 0 -7.71342e-14)
(-1.98626e-13 0 -7.2821e-14)
(-5.91648e-14 0 -6.75722e-14)
(6.90039e-14 0 -6.15664e-14)
(1.84542e-13 0 -5.49859e-14)
(2.86468e-13 0 -4.80093e-14)
(3.74141e-13 0 -4.08053e-14)
(4.47247e-13 0 -3.35274e-14)
(5.0576e-13 0 -2.63108e-14)
(5.49919e-13 0 -1.927e-14)
(5.80185e-13 0 -1.24996e-14)
(5.97208e-13 0 -6.07518e-15)
(6.01784e-13 0 -5.50799e-17)
(5.94813e-13 0 5.51816e-15)
(5.77261e-13 0 1.06157e-14)
(5.50126e-13 0 1.52207e-14)
(5.14418e-13 0 1.93264e-14)
(4.71135e-13 0 2.29342e-14)
(4.21257e-13 0 2.60511e-14)
(3.65738e-13 0 2.86882e-14)
(3.05505e-13 0 3.0858e-14)
(2.41461e-13 0 3.2573e-14)
(1.74486e-13 0 3.38426e-14)
(1.05454e-13 0 3.46675e-14)
(3.52665e-14 0 3.50218e-14)
(-5.186e-05 0 0.00014643)
(-0.000136415 0 7.7044e-05)
(-0.000128416 0 2.30523e-05)
(-0.000110026 0 1.52032e-05)
(-1.63979e-05 0 -0.000137948)
(0.000194581 0 -0.000173546)
(0.000196512 0 -0.000450678)
(0.000461382 0 -0.000308002)
(0.000618324 0 -0.000356077)
(0.000832936 0 0.000208146)
(0.000975279 0 -0.000278944)
(0.00109593 0 -0.000448701)
(0.00126879 0 -0.000255273)
(0.00141564 0 -2.70583e-05)
(0.00152174 0 3.26633e-05)
(0.00158022 0 -0.000154129)
(0.00167428 0 -0.0001557)
(0.00183108 0 -1.79164e-06)
(0.00190028 0 -0.000128001)
(0.00189092 0 -0.000151118)
(0.00191744 0 -0.000141734)
(0.0019904 0 -0.00015722)
(0.00207682 0 -0.000184444)
(0.00209784 0 -4.49369e-05)
(0.00210137 0 -2.84975e-05)
(0.00212185 0 -2.28836e-05)
(0.00216616 0 -3.51847e-05)
(0.00219466 0 -3.47078e-05)
(0.00218965 0 -3.33046e-05)
(0.0021896 0 -3.13108e-05)
(0.00219904 0 -2.22059e-05)
(0.00222063 0 1.24456e-05)
(0.00224507 0 1.31765e-05)
(0.00226855 0 5.89547e-06)
(0.00228898 0 -1.28177e-06)
(0.00229703 0 -2.10045e-05)
(0.00230612 0 -2.51853e-05)
(0.00231962 0 -4.69406e-05)
(0.00232843 0 -4.22663e-05)
(0.00233816 0 -2.6695e-06)
(0.00234871 0 6.9609e-06)
(0.00235217 0 -1.05846e-06)
(0.00236946 0 -2.49053e-06)
(0.00241803 0 5.42458e-05)
(0.00244826 0 -1.44705e-05)
(0.00244814 0 -1.72895e-05)
(0.00246397 0 -2.16069e-05)
(0.00249065 0 -5.58254e-05)
(0.00250383 0 -2.80665e-05)
(0.0025248 0 6.93121e-06)
(0.00257563 0 2.20648e-05)
(0.00261468 0 3.1548e-05)
(0.00261027 0 3.22524e-05)
(0.00259997 0 4.58827e-05)
(0.00258511 0 3.67185e-05)
(0.00255239 0 9.44578e-05)
(0.00249649 0 7.22709e-05)
(0.00241996 0 0.000142505)
(0.00235023 0 0.000155665)
(0.00225864 0 0.000320839)
(0.00217177 0 0.000200804)
(0.00208732 0 9.01749e-05)
(0.0019769 0 0.000295167)
(0.0019094 0 5.84604e-06)
(0.00174597 0 0.000475497)
(0.00169984 0 -3.04788e-05)
(0.00151743 0 0.000441564)
(0.00144788 0 8.50205e-06)
(0.00132537 0 0.00016909)
(0.00124172 0 0.000199802)
(0.00119394 0 -6.46907e-05)
(0.00104946 0 0.00027516)
(0.000967719 0 0.000132687)
(0.000889909 0 3.29773e-05)
(0.000714994 0 0.000195763)
(0.000403222 0 0.0003179)
(0.000353876 0 0.000216449)
(0.00019159 0 0.000174668)
(4.84603e-06 0 0.000148856)
(-0.000108641 0 6.28618e-05)
(-0.000187537 0 -6.57985e-05)
(-8.34392e-05 0 -0.000149268)
(-4.85858e-07 0 -0.000324639)
(-9.99871e-13 0 5.35678e-13)
(-2.11302e-12 0 9.38691e-14)
(-1.89783e-12 0 -7.83273e-14)
(-1.75371e-12 0 -1.51952e-13)
(-1.61744e-12 0 -1.89607e-13)
(-1.47465e-12 0 -2.13155e-13)
(-1.32299e-12 0 -2.29654e-13)
(-1.1636e-12 0 -2.41124e-13)
(-9.98748e-13 0 -2.4804e-13)
(-8.31169e-13 0 -2.50504e-13)
(-6.63713e-13 0 -2.48629e-13)
(-4.99172e-13 0 -2.42641e-13)
(-3.40168e-13 0 -2.32885e-13)
(-1.89064e-13 0 -2.19802e-13)
(-4.79102e-14 0 -2.03902e-13)
(8.15901e-14 0 -1.85732e-13)
(1.98099e-13 0 -1.65846e-13)
(3.00648e-13 0 -1.44782e-13)
(3.88623e-13 0 -1.2305e-13)
(4.61741e-13 0 -1.01107e-13)
(5.20017e-13 0 -7.93537e-14)
(5.6373e-13 0 -5.8132e-14)
(5.9338e-13 0 -3.7724e-14)
(6.09653e-13 0 -1.83571e-14)
(6.13378e-13 0 -2.08749e-16)
(6.05484e-13 0 1.65898e-14)
(5.86963e-13 0 3.19493e-14)
(5.58837e-13 0 4.58175e-14)
(5.22132e-13 0 5.81743e-14)
(4.7786e-13 0 6.90244e-14)
(4.27011e-13 0 7.83914e-14)
(3.70545e-13 0 8.63103e-14)
(3.0939e-13 0 9.28222e-14)
(2.44445e-13 0 9.79673e-14)
(1.7658e-13 0 1.0178e-13)
(1.06633e-13 0 1.04283e-13)
(3.56208e-14 0 1.05469e-13)
(-2.86924e-05 0 0.000170526)
(-5.63338e-05 0 0.000121414)
(1.01307e-05 0 2.04954e-05)
(8.11546e-05 0 -7.92902e-05)
(0.000191833 0 -0.000187741)
(0.000379062 0 -7.46992e-05)
(0.00055548 0 -0.000178391)
(0.000546362 0 -0.000586865)
(0.000779736 0 -0.000554845)
(0.000966975 0 -0.000329759)
(0.00116513 0 -0.000185947)
(0.00131615 0 -0.000494655)
(0.00144115 0 -0.000339361)
(0.00144717 0 -0.00033401)
(0.00151694 0 -0.000250996)
(0.00161356 0 -0.000360634)
(0.00174628 0 -0.000292909)
(0.00185693 0 -0.000227864)
(0.00192018 0 -0.000182722)
(0.0019439 0 -0.000162231)
(0.00198474 0 -0.000169023)
(0.0020727 0 -0.000117209)
(0.00209486 0 -8.81491e-05)
(0.00208321 0 -8.36401e-05)
(0.0020899 0 -7.37926e-05)
(0.00211188 0 -5.34864e-05)
(0.00214595 0 -1.88862e-05)
(0.00217875 0 -3.86542e-05)
(0.00218773 0 -6.36608e-05)
(0.00219486 0 -4.91715e-05)
(0.00220874 0 -6.76084e-05)
(0.00223191 0 -4.19463e-05)
(0.00225808 0 -5.1951e-05)
(0.00227653 0 -1.64696e-05)
(0.00228352 0 1.98335e-05)
(0.00228269 0 -6.25007e-05)
(0.0022845 0 -5.08705e-05)
(0.00228925 0 -3.0075e-05)
(0.00229839 0 -5.35308e-05)
(0.00230905 0 -7.94497e-05)
(0.00232399 0 -1.62012e-05)
(0.00234002 0 -0.000109352)
(0.00235583 0 -9.88294e-05)
(0.00237023 0 1.77059e-05)
(0.0023757 0 -7.80809e-05)
(0.00238279 0 -0.000124824)
(0.00240863 0 -6.66867e-05)
(0.00244659 0 -2.9586e-05)
(0.00247776 0 -0.000100107)
(0.00250289 0 -0.000106721)
(0.00250399 0 -8.86231e-05)
(0.0025049 0 -7.25586e-05)
(0.00250526 0 -3.70929e-05)
(0.00249766 0 -6.03832e-06)
(0.00248272 0 5.03595e-05)
(0.00246405 0 9.76059e-05)
(0.00242922 0 0.000154045)
(0.00237219 0 0.000231394)
(0.00230242 0 0.000255554)
(0.0022255 0 0.000295433)
(0.00217049 0 0.000323444)
(0.00208271 0 0.000438124)
(0.00199168 0 0.000314918)
(0.00186548 0 0.00035747)
(0.00177196 0 0.000130902)
(0.00164237 0 0.000332941)
(0.00158686 0 0.000118915)
(0.00148419 0 0.000291128)
(0.0014069 0 0.000207507)
(0.00132969 0 0.000125981)
(0.00120679 0 0.00039543)
(0.00119838 0 0.000153117)
(0.00110539 0 0.000245983)
(0.00096222 0 0.000373157)
(0.000842572 0 0.000406589)
(0.000739691 0 0.000359701)
(0.000617334 0 0.000317015)
(0.000329879 0 0.000349092)
(0.000163556 0 0.000289829)
(0.000169509 0 0.000106079)
(-0.000200218 0 5.54601e-05)
(8.23409e-05 0 -0.000161727)
(-3.85046e-07 0 -0.000399565)
(-1.0968e-12 0 -1.03097e-13)
(-2.23877e-12 0 -1.9718e-13)
(-1.98479e-12 0 -2.53974e-13)
(-1.80548e-12 0 -2.96865e-13)
(-1.65151e-12 0 -3.32816e-13)
(-1.49932e-12 0 -3.63508e-13)
(-1.34107e-12 0 -3.88542e-13)
(-1.17572e-12 0 -4.07099e-13)
(-1.00498e-12 0 -4.18539e-13)
(-8.3154e-13 0 -4.22569e-13)
(-6.58426e-13 0 -4.19248e-13)
(-4.88605e-13 0 -4.08936e-13)
(-3.24853e-13 0 -3.9223e-13)
(-1.69644e-13 0 -3.69901e-13)
(-2.50954e-14 0 -3.42832e-13)
(1.07061e-13 0 -3.11963e-13)
(2.25492e-13 0 -2.78243e-13)
(3.29263e-13 0 -2.42592e-13)
(4.17817e-13 0 -2.0587e-13)
(4.90943e-13 0 -1.68848e-13)
(5.48735e-13 0 -1.32201e-13)
(5.91548e-13 0 -9.64971e-14)
(6.1996e-13 0 -6.22051e-14)
(6.34724e-13 0 -2.9702e-14)
(6.36731e-13 0 7.20105e-16)
(6.26971e-13 0 2.88468e-14)
(6.06488e-13 0 5.45341e-14)
(5.76351e-13 0 7.7701e-14)
(5.37625e-13 0 9.83195e-14)
(4.91352e-13 0 1.16404e-13)
(4.38543e-13 0 1.32001e-13)
(3.80169e-13 0 1.45174e-13)
(3.17162e-13 0 1.55999e-13)
(2.50419e-13 0 1.64547e-13)
(1.80801e-13 0 1.70887e-13)
(1.09142e-13 0 1.75073e-13)
(3.64528e-14 0 1.77153e-13)
(-1.6266e-05 0 0.000169149)
(-3.42949e-05 0 0.000137721)
(0.000121125 0 -6.24846e-05)
(0.000185466 0 -0.000114851)
(0.000310292 0 -0.000285415)
(0.000198568 0 -0.000723557)
(0.000728041 0 -0.000369609)
(0.000858614 0 -0.000509828)
(0.000972461 0 -0.000602526)
(0.00107883 0 -0.000521661)
(0.00114567 0 -0.00059507)
(0.00125005 0 -0.000724753)
(0.00145729 0 -0.000446081)
(0.00147976 0 -0.000349392)
(0.00151704 0 -0.000266096)
(0.00160652 0 -0.000244807)
(0.00173127 0 -0.00036478)
(0.00181656 0 -0.000320098)
(0.00183697 0 -0.000183895)
(0.00185056 0 -0.000208311)
(0.00190918 0 -0.000214444)
(0.00195558 0 -0.00015079)
(0.00194773 0 -0.000132105)
(0.00195142 0 -9.77546e-05)
(0.00196748 0 -6.54706e-05)
(0.00200204 0 -7.41483e-05)
(0.00205311 0 -0.000103183)
(0.0021003 0 -0.000111059)
(0.00210922 0 -6.43836e-05)
(0.00211151 0 -4.77198e-05)
(0.00211888 0 -4.43049e-05)
(0.00212982 0 -4.1496e-05)
(0.00214236 0 1.51471e-06)
(0.00214513 0 -5.53382e-05)
(0.00215037 0 -8.00638e-05)
(0.00216222 0 -5.7395e-05)
(0.00216071 0 -5.92099e-05)
(0.00215837 0 -6.44742e-05)
(0.0021638 0 -6.11838e-05)
(0.00216862 0 -2.95301e-05)
(0.00217297 0 -3.15934e-05)
(0.00218793 0 9.19568e-06)
(0.0022043 0 -6.25814e-05)
(0.00222074 0 -5.15382e-05)
(0.00223933 0 -5.71078e-05)
(0.00224326 0 -7.61418e-05)
(0.00224179 0 -8.66977e-05)
(0.00225123 0 -0.000104682)
(0.00228444 0 -9.37652e-05)
(0.00229672 0 -5.11179e-05)
(0.00229347 0 -4.69476e-05)
(0.00229962 0 -2.69399e-05)
(0.00229977 0 1.10358e-05)
(0.00228548 0 1.56397e-05)
(0.00226913 0 1.28261e-05)
(0.00225775 0 0.000128226)
(0.0022446 0 0.000191933)
(0.00222096 0 0.000227951)
(0.00217664 0 0.000312839)
(0.00213361 0 0.000352993)
(0.00208063 0 0.000408342)
(0.00201349 0 0.000399238)
(0.00193546 0 0.000311467)
(0.00183588 0 0.000358774)
(0.00174832 0 0.000294668)
(0.00163132 0 0.000391201)
(0.00156431 0 0.000297357)
(0.0014777 0 0.000312957)
(0.00142561 0 0.000255959)
(0.00131952 0 0.000362248)
(0.0012644 0 0.000178412)
(0.00119315 0 0.000391022)
(0.00107381 0 0.000553611)
(0.0010442 0 0.000331445)
(0.000964181 0 0.000421244)
(0.000860552 0 0.000528164)
(0.000709161 0 0.000569946)
(0.000542732 0 0.000495613)
(0.000461875 0 0.000372764)
(0.000249911 0 0.000283683)
(8.83273e-05 0 0.000142387)
(0.000216444 0 -0.000156274)
(-5.66079e-07 0 -0.000304407)
(-1.10131e-12 0 -8.62005e-13)
(-2.2632e-12 0 -5.25626e-13)
(-1.99693e-12 0 -4.43808e-13)
(-1.83224e-12 0 -4.48697e-13)
(-1.68406e-12 0 -4.81321e-13)
(-1.53037e-12 0 -5.19443e-13)
(-1.36658e-12 0 -5.53717e-13)
(-1.1936e-12 0 -5.79927e-13)
(-1.01422e-12 0 -5.96159e-13)
(-8.31879e-13 0 -6.01712e-13)
(-6.5008e-13 0 -5.96623e-13)
(-4.72154e-13 0 -5.81436e-13)
(-3.01133e-13 0 -5.57052e-13)
(-1.39666e-13 0 -5.2462e-13)
(1.00281e-14 0 -4.85447e-13)
(1.46179e-13 0 -4.40913e-13)
(2.6747e-13 0 -3.92403e-13)
(3.73021e-13 0 -3.41254e-13)
(4.62367e-13 0 -2.88706e-13)
(5.35409e-13 0 -2.35871e-13)
(5.92369e-13 0 -1.83712e-13)
(6.33726e-13 0 -1.33032e-13)
(6.60175e-13 0 -8.44878e-14)
(6.72578e-13 0 -3.85933e-14)
(6.71927e-13 0 4.26007e-15)
(6.59298e-13 0 4.37934e-14)
(6.35817e-13 0 7.98266e-14)
(6.02622e-13 0 1.12266e-13)
(5.60835e-13 0 1.41092e-13)
(5.11541e-13 0 1.66339e-13)
(4.55781e-13 0 1.88085e-13)
(3.94543e-13 0 2.06432e-13)
(3.28763e-13 0 2.21493e-13)
(2.59334e-13 0 2.3338e-13)
(1.87106e-13 0 2.42194e-13)
(1.12898e-13 0 2.48018e-13)
(3.77002e-14 0 2.50913e-13)
(-3.19352e-05 0 0.000161233)
(4.33808e-05 0 6.55507e-05)
(0.00013006 0 -9.44274e-05)
(0.000262636 0 -0.000265274)
(0.000488426 0 -0.000348478)
(0.000647617 0 -0.000548547)
(0.000704145 0 -0.00074999)
(0.000791626 0 -0.000876865)
(0.00102702 0 -0.000745131)
(0.00109384 0 -0.000706969)
(0.00121685 0 -0.000589614)
(0.00125198 0 -0.000713378)
(0.0013594 0 -0.000595141)
(0.00143483 0 -0.000386152)
(0.00145707 0 -0.000353566)
(0.00152583 0 -0.000296262)
(0.00160244 0 -0.000274965)
(0.00159721 0 -0.000275005)
(0.00160015 0 -0.000266799)
(0.00163203 0 -0.000252976)
(0.00169137 0 -0.000245002)
(0.00174082 0 -0.000206265)
(0.00173474 0 -0.000199489)
(0.00173778 0 -0.000130805)
(0.00174698 0 -0.000114518)
(0.00178069 0 -9.19008e-05)
(0.00183271 0 -0.000105684)
(0.0018637 0 -0.000100084)
(0.00187223 0 -8.32716e-05)
(0.00187912 0 -8.32991e-05)
(0.00188337 0 -6.35249e-05)
(0.00188563 0 -4.69344e-05)
(0.0018951 0 -3.72319e-05)
(0.00191602 0 -3.18367e-05)
(0.00193357 0 -2.4234e-05)
(0.00193202 0 -3.12926e-05)
(0.0019338 0 2.40625e-06)
(0.00193485 0 -4.85886e-05)
(0.0019328 0 -5.97498e-05)
(0.00192951 0 -8.18517e-05)
(0.00193005 0 -7.89423e-05)
(0.0019321 0 -0.000100076)
(0.00194391 0 -8.67923e-05)
(0.00197571 0 -3.58053e-05)
(0.00199472 0 -9.17937e-05)
(0.00199318 0 -0.000101822)
(0.00199617 0 -0.000104307)
(0.00201917 0 -9.73665e-05)
(0.00203899 0 -8.95852e-05)
(0.00203536 0 -8.3923e-05)
(0.00203902 0 -8.72222e-05)
(0.00205296 0 -5.45362e-05)
(0.00205388 0 3.74688e-05)
(0.00205378 0 6.82781e-05)
(0.00204449 0 0.000100374)
(0.00201596 0 0.000180111)
(0.00202516 0 0.000220181)
(0.00202748 0 0.000281254)
(0.00200242 0 0.000336774)
(0.00196187 0 0.000390966)
(0.00192811 0 0.000396021)
(0.00186789 0 0.00046882)
(0.00182504 0 0.000423981)
(0.00174373 0 0.000494049)
(0.00167408 0 0.000420181)
(0.00159514 0 0.000402469)
(0.00151074 0 0.000433126)
(0.00146097 0 0.000330112)
(0.00139095 0 0.000396685)
(0.00132189 0 0.000374852)
(0.00128062 0 0.000233828)
(0.0011446 0 0.000522056)
(0.00111666 0 0.00043314)
(0.00108379 0 0.000384468)
(0.000924533 0 0.000677279)
(0.00091461 0 0.000668803)
(0.000824774 0 0.000662231)
(0.000805307 0 0.000508111)
(0.000744898 0 0.00042118)
(0.000297597 0 0.000547752)
(0.000240648 0 0.000323559)
(0.000357942 0 -7.04605e-05)
(2.68771e-07 0 -0.000129547)
(-1.19001e-12 0 -8.49464e-13)
(-1.82e-12 0 -5.99586e-13)
(-1.90736e-12 0 -5.4718e-13)
(-1.84277e-12 0 -5.72796e-13)
(-1.72225e-12 0 -6.24381e-13)
(-1.57172e-12 0 -6.79154e-13)
(-1.40156e-12 0 -7.2677e-13)
(-1.21817e-12 0 -7.62478e-13)
(-1.02676e-12 0 -7.84186e-13)
(-8.32004e-13 0 -7.9124e-13)
(-6.3815e-13 0 -7.83883e-13)
(-4.49034e-13 0 -7.62972e-13)
(-2.68037e-13 0 -7.29809e-13)
(-9.80386e-14 0 -6.86005e-13)
(5.86119e-14 0 -6.33363e-13)
(2.00104e-13 0 -5.73774e-13)
(3.25151e-13 0 -5.09116e-13)
(4.32961e-13 0 -4.41191e-13)
(5.232e-13 0 -3.71661e-13)
(5.95937e-13 0 -3.02004e-13)
(6.51573e-13 0 -2.33489e-13)
(6.90772e-13 0 -1.67161e-13)
(7.14399e-13 0 -1.03856e-13)
(7.23471e-13 0 -4.42112e-14)
(7.19118e-13 0 1.13026e-14)
(7.02538e-13 0 6.23647e-14)
(6.74961e-13 0 1.08782e-13)
(6.37617e-13 0 1.50471e-13)
(5.91697e-13 0 1.87436e-13)
(5.38345e-13 0 2.19749e-13)
(4.78636e-13 0 2.47534e-13)
(4.13577e-13 0 2.70941e-13)
(3.44111e-13 0 2.90132e-13)
(2.7112e-13 0 3.05263e-13)
(1.95439e-13 0 3.16474e-13)
(1.17861e-13 0 3.23879e-13)
(3.93477e-14 0 3.27558e-13)
(-3.21388e-05 0 0.000134749)
(9.26664e-05 0 -7.59075e-05)
(0.00019367 0 -0.000239483)
(0.00031011 0 -0.000483827)
(0.000435023 0 -0.000700254)
(0.000693388 0 -0.000732197)
(0.000843392 0 -0.000785117)
(0.000895052 0 -0.000876942)
(0.00101269 0 -0.000828522)
(0.00109343 0 -0.000755241)
(0.00115883 0 -0.000721836)
(0.0012803 0 -0.000562216)
(0.00124169 0 -0.000571229)
(0.00126663 0 -0.000511514)
(0.00130155 0 -0.000447598)
(0.00132642 0 -0.000430378)
(0.00133859 0 -0.000444946)
(0.00133551 0 -0.000427668)
(0.0013564 0 -0.000325468)
(0.00138447 0 -0.000263268)
(0.00137827 0 -0.000393869)
(0.00143016 0 -0.000128437)
(0.00143187 0 -0.000107554)
(0.001445 0 -0.000106745)
(0.00147175 0 -0.000138505)
(0.00149245 0 -0.000194759)
(0.00151133 0 -0.000206245)
(0.00153016 0 -0.000148081)
(0.00154258 0 -9.27981e-05)
(0.00155731 0 -6.28241e-05)
(0.00157286 0 -8.40033e-05)
(0.00158164 0 -7.92504e-05)
(0.00158731 0 -6.63661e-05)
(0.00159679 0 -7.99382e-05)
(0.00161772 0 -6.86589e-05)
(0.00161905 0 -5.85731e-05)
(0.00162127 0 -5.48069e-05)
(0.00162628 0 -5.39095e-05)
(0.00163676 0 -5.4175e-05)
(0.00165528 0 -5.55156e-05)
(0.00168228 0 -2.03478e-05)
(0.00169438 0 -4.4171e-05)
(0.00169102 0 -7.29073e-05)
(0.00169811 0 -6.79691e-05)
(0.00171701 0 -9.52085e-05)
(0.00173594 0 -0.000106252)
(0.00174323 0 -0.000145274)
(0.00175557 0 -0.000107938)
(0.00176107 0 -6.3861e-05)
(0.00176405 0 -0.00011254)
(0.00177938 0 -6.85898e-05)
(0.00177434 0 -4.76082e-05)
(0.00177113 0 -1.48865e-05)
(0.00178112 0 -1.714e-05)
(0.00177941 0 0.000100045)
(0.00178298 0 7.00526e-05)
(0.00179222 0 0.000147697)
(0.0017742 0 0.000343088)
(0.00176858 0 0.000366406)
(0.00175153 0 0.000382387)
(0.00171127 0 0.000487254)
(0.00169198 0 0.000494001)
(0.00165497 0 0.000513993)
(0.00159306 0 0.000551455)
(0.00154856 0 0.000477813)
(0.00149731 0 0.000488906)
(0.00144393 0 0.000481884)
(0.00141668 0 0.000371051)
(0.00133031 0 0.000489235)
(0.00128586 0 0.000420296)
(0.00126185 0 0.000322306)
(0.0011115 0 0.000585565)
(0.00110608 0 0.000490796)
(0.00100418 0 0.000583785)
(0.000892325 0 0.000717448)
(0.000853509 0 0.000743042)
(0.000788386 0 0.000756227)
(0.000687244 0 0.000787245)
(0.000605752 0 0.000773982)
(0.000696316 0 0.000500754)
(0.000549057 0 0.000384751)
(0.000129832 0 0.000122738)
(-1.98771e-09 0 -8.07593e-09)
(-9.71792e-13 0 -3.49848e-13)
(-1.9604e-12 0 -4.76198e-13)
(-1.96971e-12 0 -5.72851e-13)
(-1.9093e-12 0 -6.71056e-13)
(-1.79042e-12 0 -7.64392e-13)
(-1.63276e-12 0 -8.45997e-13)
(-1.44991e-12 0 -9.11572e-13)
(-1.25101e-12 0 -9.5877e-13)
(-1.04298e-12 0 -9.86555e-13)
(-8.31576e-13 0 -9.94861e-13)
(-6.21812e-13 0 -9.84398e-13)
(-4.18081e-13 0 -9.56501e-13)
(-2.24166e-13 0 -9.12995e-13)
(-4.32201e-14 0 -8.56058e-13)
(1.22259e-13 0 -7.8809e-13)
(2.70427e-13 0 -7.11577e-13)
(4.00052e-13 0 -6.2897e-13)
(5.10477e-13 0 -5.42595e-13)
(6.01554e-13 0 -4.54581e-13)
(6.73581e-13 0 -3.66804e-13)
(7.27212e-13 0 -2.80854e-13)
(7.63359e-13 0 -1.98022e-13)
(7.83125e-13 0 -1.19312e-13)
(7.87736e-13 0 -4.54702e-14)
(7.78502e-13 0 2.2982e-14)
(7.56778e-13 0 8.57116e-14)
(7.23924e-13 0 1.42542e-13)
(6.81276e-13 0 1.93427e-13)
(6.30113e-13 0 2.38421e-13)
(5.7164e-13 0 2.77657e-13)
(5.06973e-13 0 3.1132e-13)
(4.3714e-13 0 3.39624e-13)
(3.63085e-13 0 3.6279e-13)
(2.85676e-13 0 3.81031e-13)
(2.05722e-13 0 3.94533e-13)
(1.23982e-13 0 4.03444e-13)
(4.13787e-14 0 4.07868e-13)
(-6.45473e-05 0 0.000133533)
(0.000142687 0 -0.000166088)
(0.000262997 0 -0.000365641)
(0.000408536 0 -0.000588716)
(0.000496915 0 -0.000810928)
(0.000657914 0 -0.000902132)
(0.000719544 0 -0.00101364)
(0.000852965 0 -0.000986697)
(0.00099706 0 -0.000861031)
(0.00102457 0 -0.000826179)
(0.00101948 0 -0.000810563)
(0.00112399 0 -0.000637081)
(0.000986958 0 -0.000746234)
(0.00106373 0 -0.000567982)
(0.00113235 0 -0.000406676)
(0.00113658 0 -0.000377382)
(0.00115663 0 -0.000319278)
(0.00114233 0 -0.000294583)
(0.00112716 0 -0.00027108)
(0.00114061 0 -0.000263362)
(0.00112661 0 -0.000264746)
(0.0011065 0 -0.000240275)
(0.00111479 0 -0.000221895)
(0.00114217 0 -0.000190665)
(0.00119034 0 -0.000143237)
(0.00121307 0 -0.000116127)
(0.00120962 0 -0.000117186)
(0.00120423 0 -0.000117198)
(0.00120728 0 -0.000113819)
(0.00122315 0 -0.000101242)
(0.00125572 0 -6.14287e-05)
(0.00128103 0 -5.74644e-05)
(0.00129126 0 -5.17854e-05)
(0.00130241 0 -6.21354e-05)
(0.00132132 0 -2.60764e-05)
(0.00133392 0 -5.76922e-05)
(0.00134933 0 -5.36317e-05)
(0.00136652 0 -6.77877e-05)
(0.00138657 0 -7.99997e-05)
(0.00140675 0 -8.971e-05)
(0.0014285 0 -6.51677e-05)
(0.00144478 0 -8.89731e-05)
(0.0014546 0 -0.00011971)
(0.00146285 0 -0.000128005)
(0.00147085 0 -0.000115933)
(0.00147526 0 -0.000108861)
(0.00147349 0 -0.000106378)
(0.00146682 0 -0.000114738)
(0.00146546 0 -0.000133666)
(0.0014738 0 -8.97684e-05)
(0.00148125 0 -5.13366e-05)
(0.00148915 0 -3.45692e-05)
(0.00150411 0 -3.771e-05)
(0.00151544 0 7.09469e-05)
(0.00151048 0 8.12633e-05)
(0.00150286 0 0.000192545)
(0.00150412 0 0.00028411)
(0.00152833 0 0.000172077)
(0.00148559 0 0.000404126)
(0.00147743 0 0.000452288)
(0.00146126 0 0.000512547)
(0.00145588 0 0.000527941)
(0.0014428 0 0.000526675)
(0.00139957 0 0.000568739)
(0.00140866 0 0.000467641)
(0.00134614 0 0.000572898)
(0.00135466 0 0.000468859)
(0.00132531 0 0.000441606)
(0.00121333 0 0.00058613)
(0.00121313 0 0.000463318)
(0.00117956 0 0.000476565)
(0.00104304 0 0.000677154)
(0.00104144 0 0.000592784)
(0.00101588 0 0.000545638)
(0.000828288 0 0.000783359)
(0.000811184 0 0.000784217)
(0.000790268 0 0.000746195)
(0.000615526 0 0.00083317)
(0.000581357 0 0.000793451)
(0.00038584 0 0.000787872)
(0.000254221 0 0.000590096)
(-5.859e-07 0 0.000260709)
(-5.97847e-10 0 -1.72216e-09)
(-9.85793e-13 0 -2.09368e-13)
(-2.04259e-12 0 -3.82741e-13)
(-2.10188e-12 0 -5.97285e-13)
(-2.03422e-12 0 -7.74405e-13)
(-1.89719e-12 0 -9.16327e-13)
(-1.7189e-12 0 -1.02892e-12)
(-1.51433e-12 0 -1.11465e-12)
(-1.29315e-12 0 -1.17425e-12)
(-1.06285e-12 0 -1.20809e-12)
(-8.29847e-13 0 -1.21689e-12)
(-5.9979e-13 0 -1.20198e-12)
(-3.77631e-13 0 -1.16528e-12)
(-1.67594e-13 0 -1.10929e-12)
(2.68663e-14 0 -1.03686e-12)
(2.03093e-13 0 -9.51122e-13)
(3.59224e-13 0 -8.55264e-13)
(4.94132e-13 0 -7.52406e-13)
(6.07349e-13 0 -6.4547e-13)
(6.98991e-13 0 -5.37103e-13)
(7.69664e-13 0 -4.29607e-13)
(8.20356e-13 0 -3.2491e-13)
(8.52314e-13 0 -2.24545e-13)
(8.6695e-13 0 -1.29673e-13)
(8.65765e-13 0 -4.11184e-14)
(8.503e-13 0 4.05765e-14)
(8.22098e-13 0 1.15104e-13)
(7.82677e-13 0 1.82343e-13)
(7.33495e-13 0 2.42318e-13)
(6.75927e-13 0 2.95169e-13)
(6.11244e-13 0 3.41115e-13)
(5.40602e-13 0 3.80426e-13)
(4.65047e-13 0 4.13399e-13)
(3.85518e-13 0 4.40332e-13)
(3.02863e-13 0 4.61502e-13)
(2.17851e-13 0 4.7715e-13)
(1.31196e-13 0 4.87468e-13)
(4.37716e-14 0 4.92587e-13)
(-1.07945e-05 0 6.0999e-05)
(0.000157572 0 -0.000236905)
(0.000262063 0 -0.000532028)
(0.000373152 0 -0.000789502)
(0.000621649 0 -0.000862942)
(0.000631203 0 -0.00101794)
(0.000678839 0 -0.00109768)
(0.00088223 0 -0.000973069)
(0.00085069 0 -0.000978289)
(0.000891444 0 -0.000891102)
(0.000818146 0 -0.000900273)
(0.00102194 0 -0.000561433)
(0.000794636 0 -0.000742345)
(0.000940467 0 -0.000414871)
(0.000930998 0 -0.000403635)
(0.000895251 0 -0.000435155)
(0.000927262 0 -0.000339623)
(0.000915139 0 -0.000315241)
(0.000891851 0 -0.000292454)
(0.000906234 0 -0.000262786)
(0.000893795 0 -0.000264631)
(0.000882828 0 -0.000199232)
(0.000889548 0 -0.000163747)
(0.000899444 0 -0.000157922)
(0.000909191 0 -0.000167122)
(0.00091956 0 -0.000171356)
(0.00093376 0 -0.000163302)
(0.000951927 0 -0.000142823)
(0.00097149 0 -0.000118387)
(0.00098434 0 -0.000118802)
(0.000999995 0 -0.000110519)
(0.0010218 0 -9.41923e-05)
(0.00104313 0 -0.000116237)
(0.00107268 0 -8.91101e-05)
(0.00109454 0 -9.13612e-05)
(0.00111919 0 -7.83734e-05)
(0.00114492 0 -8.05257e-05)
(0.00117106 0 -8.74774e-05)
(0.00119307 0 -0.000111079)
(0.00119566 0 -0.000114821)
(0.00119713 0 -0.000115361)
(0.00120867 0 -0.000111445)
(0.00122842 0 -8.71436e-05)
(0.00122851 0 -7.95364e-05)
(0.00122091 0 -9.12087e-05)
(0.0012103 0 -0.000113184)
(0.00120807 0 -0.000122101)
(0.00121168 0 -0.000109793)
(0.00121036 0 -9.32464e-05)
(0.00119238 0 -9.41412e-05)
(0.00118276 0 -0.000108809)
(0.00120429 0 -7.14978e-05)
(0.00120863 0 -9.3337e-06)
(0.00120206 0 5.38556e-05)
(0.00120503 0 9.99461e-05)
(0.00123248 0 -1.18613e-05)
(0.00122849 0 0.000238108)
(0.00120022 0 0.000356418)
(0.00120968 0 0.000369591)
(0.00120558 0 0.000450027)
(0.00121911 0 0.000459472)
(0.00119393 0 0.000547048)
(0.00118575 0 0.000568193)
(0.00118937 0 0.000585794)
(0.00118765 0 0.000596334)
(0.00121095 0 0.000491841)
(0.00117878 0 0.000559995)
(0.00118133 0 0.000501934)
(0.00115948 0 0.000433262)
(0.00111443 0 0.000489871)
(0.00107229 0 0.000555582)
(0.000967257 0 0.0006905)
(0.00097244 0 0.00063441)
(0.000829158 0 0.000742535)
(0.000730589 0 0.00085636)
(0.000721177 0 0.000855256)
(0.000655334 0 0.000854688)
(0.000549693 0 0.00088722)
(0.000534879 0 0.000845806)
(0.000348768 0 0.000841533)
(0.000394213 0 0.000641825)
(5.54208e-08 0 0.000455647)
(-2.33615e-09 0 6.07744e-09)
(-1.14193e-12 0 6.39972e-13)
(-2.34799e-12 0 -2.48428e-13)
(-2.36111e-12 0 -6.59329e-13)
(-2.2283e-12 0 -9.13172e-13)
(-2.04493e-12 0 -1.0978e-12)
(-1.83109e-12 0 -1.23881e-12)
(-1.59524e-12 0 -1.34386e-12)
(-1.34445e-12 0 -1.41534e-12)
(-1.08562e-12 0 -1.4544e-12)
(-8.25463e-13 0 -1.46231e-12)
(-5.70203e-13 0 -1.44095e-12)
(-3.2539e-13 0 -1.39297e-12)
(-9.57422e-14 0 -1.32162e-12)
(1.14945e-13 0 -1.23061e-12)
(3.03856e-13 0 -1.12395e-12)
(4.69142e-13 0 -1.00566e-12)
(6.09846e-13 0 -8.79668e-13)
(7.2578e-13 0 -7.49567e-13)
(8.17417e-13 0 -6.18577e-13)
(8.85774e-13 0 -4.89458e-13)
(9.32274e-13 0 -3.64478e-13)
(9.58597e-13 0 -2.45402e-13)
(9.66552e-13 0 -1.33521e-13)
(9.57985e-13 0 -2.97049e-14)
(9.34725e-13 0 6.55284e-14)
(8.98544e-13 0 1.51943e-13)
(8.51138e-13 0 2.29518e-13)
(7.94102e-13 0 2.98398e-13)
(7.2891e-13 0 3.58844e-13)
(6.56897e-13 0 4.11196e-13)
(5.79258e-13 0 4.5584e-13)
(4.97046e-13 0 4.93176e-13)
(4.11187e-13 0 5.23596e-13)
(3.22494e-13 0 5.47456e-13)
(2.31688e-13 0 5.65064e-13)
(1.39418e-13 0 5.76659e-13)
(4.64977e-14 0 5.82408e-13)
(5.96902e-05 0 -4.10016e-06)
(0.000196816 0 -0.000349692)
(0.000244065 0 -0.000683057)
(0.000449209 0 -0.000882304)
(0.000482213 0 -0.00104709)
(0.00058091 0 -0.00112261)
(0.000725386 0 -0.00108191)
(0.00065496 0 -0.00112717)
(0.000671449 0 -0.00107315)
(0.000770475 0 -0.000914189)
(0.0008211 0 -0.000739562)
(0.000752126 0 -0.000699708)
(0.000769121 0 -0.000547547)
(0.000745422 0 -0.000469456)
(0.000712337 0 -0.000461762)
(0.000729565 0 -0.000391945)
(0.00073404 0 -0.00032823)
(0.000729384 0 -0.000290081)
(0.00067063 0 -0.000334945)
(0.000708313 0 -0.000241972)
(0.000696908 0 -0.000248207)
(0.000686276 0 -0.000229406)
(0.000690113 0 -0.000219058)
(0.000701099 0 -0.000207691)
(0.000713006 0 -0.000200438)
(0.000727692 0 -0.000183817)
(0.000741949 0 -0.00017586)
(0.000759702 0 -0.000162878)
(0.000780425 0 -0.000140478)
(0.000800814 0 -0.000129945)
(0.000822707 0 -0.000120357)
(0.000846481 0 -0.000110968)
(0.000869498 0 -0.00011666)
(0.000900172 0 -9.16236e-05)
(0.000914703 0 -0.000122511)
(0.000937998 0 -0.000110348)
(0.000955583 0 -0.000128039)
(0.000977661 0 -0.000107663)
(0.00100468 0 -9.29017e-05)
(0.00100751 0 -9.4118e-05)
(0.00100663 0 -9.43688e-05)
(0.00101002 0 -9.31246e-05)
(0.00101332 0 -9.95011e-05)
(0.00101178 0 -0.000104191)
(0.00101368 0 -0.000101793)
(0.00101109 0 -9.98236e-05)
(0.000990995 0 -0.000109789)
(0.000982678 0 -9.97594e-05)
(0.000977993 0 -9.10734e-05)
(0.000971498 0 -8.3878e-05)
(0.000944538 0 -9.78191e-05)
(0.000925663 0 -2.0286e-05)
(0.000918389 0 -1.73588e-05)
(0.000916189 0 1.25282e-05)
(0.00092967 0 5.64111e-05)
(0.000938483 0 0.000165399)
(0.000927853 0 0.000245787)
(0.000928616 0 0.000289718)
(0.000929183 0 0.000388911)
(0.000923434 0 0.000472826)
(0.000913855 0 0.000549045)
(0.000948218 0 0.000536396)
(0.000970678 0 0.000544353)
(0.00102183 0 0.000513538)
(0.00101656 0 0.000530304)
(0.00101773 0 0.000492317)
(0.000969288 0 0.000587398)
(0.000953199 0 0.000591662)
(0.000878902 0 0.000674317)
(0.000887991 0 0.000652515)
(0.00083601 0 0.000701425)
(0.000814702 0 0.000726297)
(0.00075394 0 0.000787416)
(0.000736043 0 0.000791629)
(0.000694336 0 0.000856506)
(0.000671483 0 0.000874348)
(0.000599071 0 0.000904339)
(0.000458978 0 0.000970694)
(0.000435713 0 0.000953435)
(0.000288778 0 0.000929686)
(0.00015114 0 0.000827713)
(-7.17092e-07 0 0.000596893)
(4.84529e-09 0 2.40228e-08)