/*--------------------------------*- C++ -*----------------------------------*\
  =========                 |
  \\      /  F ield         | OpenFOAM: The Open Source CFD Toolbox
   \\    /   O peration     | Website:  https://openfoam.org
    \\  /    A nd           | Version:  6
     \\/     M anipulation  |
\*---------------------------------------------------------------------------*/
FoamFile
{
    version     2.0;
    format      ascii;
    class       volScalarField;
    location    "2500";
    object      dmdt;
}
// * * * * * * * * * * * * * * * * * * * * * * * * * * * * * * * * * * * * * //

dimensions      [0 0 0 0 0 0 0];

internalField   nonuniform List<scalar> 
4800
(
-0.218469
-0.21424
-0.210059
-0.20596
-0.201993
-0.198216
-0.194663
-0.191343
-0.188255
-0.185386
-0.182719
-0.180234
-0.177909
-0.175726
-0.173668
-0.171719
-0.169859
-0.16807
-0.166335
-0.164639
-0.162969
-0.161318
-0.15968
-0.158057
-0.156453
-0.154876
-0.153331
-0.151821
-0.150342
-0.148896
-0.147489
-0.146122
-0.144797
-0.143511
-0.142253
-0.141011
-0.13977
-0.138518
-0.13725
-0.135958
-0.134636
-0.133276
-0.131875
-0.130427
-0.128931
-0.127381
-0.125772
-0.124095
-0.122338
-0.120486
-0.118532
-0.11648
-0.114329
-0.112088
-0.109762
-0.107363
-0.104905
-0.1024
-0.0998611
-0.0973001
-0.0947253
-0.0921366
-0.0895262
-0.0868886
-0.0842128
-0.0814782
-0.078668
-0.0757687
-0.0727645
-0.069642
-0.0663837
-0.062967
-0.0593681
-0.0555676
-0.0515545
-0.0473321
-0.042915
-0.0383426
-0.0336723
-0.0289669
-0.0242946
-0.019746
-0.0154127
-0.0112714
-0.00730051
-0.0034741
0.000234091
0.00384743
0.00738556
0.0108643
0.0142962
0.0176907
0.0210553
0.0243957
0.0277162
0.0310204
0.0343109
0.03759
0.0408594
0.0441206
0.0473749
0.0506233
0.0538666
0.0571057
0.0603412
0.0635736
0.0668035
0.0700312
0.0732572
0.0764816
0.0797049
0.0829271
0.0861485
0.0893692
0.0925894
0.0958092
0.0990287
0.102248
0.105467
0.108686
-0.218459
-0.214213
-0.210018
-0.205919
-0.201968
-0.198208
-0.194667
-0.191357
-0.188272
-0.185402
-0.18273
-0.180239
-0.177911
-0.175726
-0.173666
-0.171714
-0.169853
-0.168063
-0.166328
-0.164632
-0.162965
-0.161318
-0.159686
-0.158069
-0.156473
-0.154904
-0.153368
-0.151869
-0.150405
-0.148982
-0.147605
-0.146275
-0.144988
-0.143734
-0.1425
-0.141276
-0.140046
-0.138803
-0.137542
-0.136257
-0.134942
-0.133591
-0.132198
-0.13076
-0.129272
-0.127727
-0.126121
-0.124445
-0.122685
-0.120824
-0.118856
-0.116787
-0.114613
-0.112342
-0.109979
-0.10754
-0.10504
-0.102492
-0.0999141
-0.0973161
-0.0947038
-0.0920796
-0.0894411
-0.0867768
-0.0840744
-0.0813188
-0.0784916
-0.0755785
-0.0725629
-0.0694307
-0.0661656
-0.0627468
-0.0591509
-0.0553572
-0.0513561
-0.0471463
-0.0427429
-0.0381783
-0.0335032
-0.0287846
-0.0241052
-0.0195556
-0.0152323
-0.0111102
-0.00716315
-0.00336062
0.000326212
0.00392167
0.00744541
0.0109128
0.0143358
0.0177234
0.0210826
0.0244186
0.0277357
0.031037
0.0343252
0.0376023
0.04087
0.0441299
0.0473829
0.0506303
0.0538727
0.057111
0.0603458
0.0635776
0.066807
0.0700343
0.0732598
0.0764839
0.0797068
0.0829287
0.0861498
0.0893703
0.0925903
0.0958099
0.0990292
0.102248
0.105467
0.108686
-0.218449
-0.214181
-0.209976
-0.205889
-0.201967
-0.198237
-0.194718
-0.191415
-0.188331
-0.185455
-0.182773
-0.180271
-0.177934
-0.175743
-0.173678
-0.171724
-0.169861
-0.16807
-0.166334
-0.164641
-0.162979
-0.161341
-0.159723
-0.158125
-0.156549
-0.155003
-0.153492
-0.152022
-0.150598
-0.149227
-0.147907
-0.146633
-0.145397
-0.144184
-0.142984
-0.141787
-0.140577
-0.139353
-0.138109
-0.136839
-0.135538
-0.1342
-0.132821
-0.131397
-0.129921
-0.128386
-0.126787
-0.125113
-0.123347
-0.121468
-0.119477
-0.117379
-0.115163
-0.112837
-0.110408
-0.107896
-0.105318
-0.102692
-0.100039
-0.0973706
-0.0946932
-0.0920086
-0.0893135
-0.0865962
-0.0838428
-0.0810434
-0.0781808
-0.0752389
-0.0721994
-0.0690452
-0.0657623
-0.0623341
-0.0587372
-0.054952
-0.050967
-0.0467775
-0.0423915
-0.0378318
-0.033151
-0.0284188
-0.023725
-0.0191667
-0.0148647
-0.0107859
-0.00689047
-0.00313788
0.000505598
0.00406559
0.00756124
0.0110068
0.0144127
0.017787
0.0211357
0.0244634
0.0277737
0.0310695
0.0343532
0.0376265
0.040891
0.0441481
0.0473988
0.0506441
0.0538848
0.0571215
0.060355
0.0635856
0.0668139
0.0700402
0.0732649
0.0764883
0.0797106
0.0829319
0.0861525
0.0893726
0.0925922
0.0958114
0.0990303
0.102249
0.105468
0.108686
-0.218458
-0.214215
-0.210037
-0.205966
-0.20205
-0.198327
-0.194816
-0.19152
-0.188436
-0.185554
-0.182863
-0.180354
-0.17801
-0.175813
-0.173746
-0.17179
-0.169926
-0.168134
-0.1664
-0.164711
-0.163057
-0.161431
-0.159832
-0.15826
-0.156718
-0.15521
-0.153746
-0.15233
-0.150969
-0.149663
-0.148409
-0.147197
-0.146016
-0.144851
-0.14369
-0.142526
-0.141345
-0.140148
-0.138929
-0.137684
-0.136405
-0.135086
-0.133725
-0.132318
-0.130858
-0.129336
-0.127746
-0.126073
-0.124297
-0.122393
-0.120371
-0.118238
-0.115965
-0.113565
-0.111049
-0.108442
-0.105763
-0.103039
-0.100291
-0.0975307
-0.0947634
-0.0919896
-0.0892054
-0.0864056
-0.0835822
-0.0807208
-0.0778036
-0.0748141
-0.0717365
-0.0685548
-0.0652524
-0.0618091
-0.058201
-0.0544121
-0.0504322
-0.0462542
-0.0418785
-0.037319
-0.0326224
-0.0278623
-0.023137
-0.0185542
-0.0142934
-0.0102949
-0.00648817
-0.00281577
0.000761689
0.0042697
0.0077252
0.0111398
0.0145219
0.0178777
0.0212117
0.0245277
0.0278286
0.0311166
0.0343938
0.0376617
0.0409217
0.0441748
0.0474221
0.0506644
0.0539025
0.057137
0.0603685
0.0635974
0.0668241
0.0700491
0.0732726
0.0764949
0.0797162
0.0829367
0.0861566
0.0893759
0.0925949
0.0958136
0.099032
0.10225
0.105468
0.108686
-0.218479
-0.21427
-0.210123
-0.206088
-0.202204
-0.198501
-0.194994
-0.191697
-0.188611
-0.185725
-0.183029
-0.180515
-0.178165
-0.175965
-0.173897
-0.171939
-0.170074
-0.168282
-0.166552
-0.16487
-0.163226
-0.161615
-0.160041
-0.158505
-0.157008
-0.155556
-0.154156
-0.152812
-0.151524
-0.150291
-0.149106
-0.147956
-0.146831
-0.145716
-0.144601
-0.143478
-0.142337
-0.141173
-0.139988
-0.138776
-0.137527
-0.136234
-0.134896
-0.133509
-0.132065
-0.130558
-0.128973
-0.127297
-0.125506
-0.123577
-0.121525
-0.119349
-0.117004
-0.114518
-0.111902
-0.109185
-0.106395
-0.103565
-0.100714
-0.097852
-0.0949805
-0.0920966
-0.0891995
-0.0862901
-0.083364
-0.0804144
-0.0774265
-0.0743823
-0.0712607
-0.0680421
-0.0647062
-0.0612329
-0.0576009
-0.053796
-0.0498087
-0.0456248
-0.0412407
-0.0366679
-0.0319349
-0.0271097
-0.0223062
-0.0176604
-0.0134871
-0.00963574
-0.00597074
-0.00241334
0.00107654
0.00451906
0.0079255
0.011303
0.0146566
0.0179901
0.0213065
0.0246084
0.0278977
0.0311763
0.0344456
0.0377067
0.0409609
0.0442091
0.0474522
0.0506907
0.0539255
0.0571571
0.060386
0.0636127
0.0668374
0.0700606
0.0732826
0.0765035
0.0797235
0.0829429
0.0861618
0.0893803
0.0925985
0.0958164
0.0990341
0.102252
0.105469
0.108687
-0.218496
-0.214327
-0.210224
-0.206237
-0.202402
-0.198735
-0.195252
-0.191969
-0.188884
-0.185991
-0.183291
-0.180774
-0.178423
-0.176222
-0.174154
-0.172196
-0.170329
-0.168538
-0.16681
-0.165136
-0.163508
-0.161922
-0.160383
-0.158892
-0.15745
-0.156063
-0.154736
-0.153469
-0.152258
-0.151098
-0.14998
-0.148892
-0.147824
-0.146762
-0.145697
-0.144624
-0.143531
-0.142411
-0.141268
-0.140095
-0.138881
-0.137619
-0.136307
-0.134942
-0.133519
-0.132029
-0.130451
-0.128772
-0.126966
-0.125014
-0.122924
-0.120689
-0.118267
-0.115688
-0.112964
-0.110131
-0.107226
-0.104286
-0.101326
-0.0983535
-0.0953693
-0.0923708
-0.0893564
-0.0863257
-0.0832819
-0.0802242
-0.0771446
-0.0740296
-0.0708519
-0.067582
-0.0641958
-0.0606774
-0.0570103
-0.0531775
-0.0491665
-0.044964
-0.0405631
-0.035962
-0.0311693
-0.0262202
-0.0212056
-0.0163447
-0.0123969
-0.00882313
-0.00537256
-0.00196415
0.00142315
0.00479331
0.00814707
0.011485
0.0148082
0.0181178
0.0214151
0.0247015
0.0279781
0.0312461
0.0345064
0.0377599
0.0410076
0.0442501
0.0474881
0.0507223
0.0539533
0.0571814
0.0604073
0.0636313
0.0668536
0.0700747
0.0732947
0.076514
0.0797325
0.0829506
0.0861683
0.0893857
0.0926028
0.0958199
0.0990368
0.102254
0.10547
0.108687
-0.218528
-0.214428
-0.210392
-0.206458
-0.202666
-0.199041
-0.195591
-0.192328
-0.189254
-0.186368
-0.183671
-0.181155
-0.178804
-0.176606
-0.174539
-0.17258
-0.170713
-0.168923
-0.167201
-0.165538
-0.16393
-0.162377
-0.160882
-0.159442
-0.15806
-0.156741
-0.155487
-0.154294
-0.153155
-0.152065
-0.151011
-0.149984
-0.148975
-0.147971
-0.146963
-0.145945
-0.144906
-0.143836
-0.14274
-0.141609
-0.140436
-0.139207
-0.137924
-0.136587
-0.135188
-0.13372
-0.132149
-0.130469
-0.128649
-0.126675
-0.124545
-0.122243
-0.119743
-0.11707
-0.114235
-0.111284
-0.108262
-0.10521
-0.102138
-0.099059
-0.095967
-0.0928578
-0.0897302
-0.0865868
-0.0834274
-0.0802524
-0.0770629
-0.0738465
-0.0705812
-0.0672374
-0.0637845
-0.0602035
-0.0564813
-0.0526003
-0.0485437
-0.0442987
-0.0398547
-0.035203
-0.0303201
-0.0251796
-0.0197474
-0.0141794
-0.0109834
-0.0079309
-0.00476766
-0.00152153
0.0017657
0.00506829
0.00837305
0.0116737
0.0149676
0.0182538
0.021532
0.0248027
0.0280662
0.0313231
0.034574
0.0378194
0.04106
0.0442963
0.0475289
0.0507583
0.053985
0.0572094
0.0604318
0.0636527
0.0668724
0.070091
0.0733089
0.0765262
0.079743
0.0829596
0.0861758
0.089392
0.092608
0.0958239
0.0990398
0.102256
0.105472
0.108688
-0.21858
-0.214567
-0.210604
-0.206746
-0.20302
-0.19944
-0.196026
-0.192787
-0.189728
-0.186855
-0.18417
-0.18166
-0.179314
-0.177119
-0.175054
-0.173098
-0.171237
-0.169455
-0.167746
-0.166102
-0.164519
-0.163002
-0.161552
-0.160165
-0.158841
-0.157584
-0.156396
-0.155272
-0.154199
-0.153173
-0.152182
-0.151217
-0.150268
-0.149324
-0.148375
-0.147415
-0.146434
-0.145414
-0.144364
-0.143277
-0.142146
-0.140955
-0.139705
-0.138397
-0.137027
-0.135582
-0.134021
-0.132344
-0.130516
-0.128525
-0.126364
-0.124003
-0.121428
-0.118652
-0.115698
-0.112628
-0.109495
-0.106334
-0.10316
-0.0999885
-0.0967998
-0.0935909
-0.0903612
-0.0871132
-0.0838467
-0.0805633
-0.0772601
-0.0739235
-0.0705408
-0.0670893
-0.0635349
-0.0598588
-0.0560508
-0.0520975
-0.0479901
-0.0437147
-0.039243
-0.0345478
-0.0295815
-0.024226
-0.0181021
-0.00875635
-0.00949138
-0.00720373
-0.00428945
-0.00115448
0.00206613
0.00532072
0.00858773
0.0118576
0.0151261
0.018391
0.0216515
0.0249073
0.0281582
0.0314043
0.0346458
0.0378831
0.0411166
0.0443466
0.0475736
0.0507979
0.05402
0.0572403
0.0604591
0.0636767
0.0668934
0.0701094
0.0733249
0.07654
0.0797549
0.0829697
0.0861844
0.0893991
0.0926138
0.0958285
0.0990433
0.102258
0.105473
0.108688
-0.218628
-0.214722
-0.210869
-0.207097
-0.203433
-0.199905
-0.196534
-0.193331
-0.190302
-0.187457
-0.184791
-0.182289
-0.17995
-0.177761
-0.1757
-0.17375
-0.171895
-0.170125
-0.168433
-0.166815
-0.165265
-0.163786
-0.162379
-0.161039
-0.159769
-0.158568
-0.15744
-0.156377
-0.155364
-0.154398
-0.153469
-0.152567
-0.151677
-0.150791
-0.149902
-0.148998
-0.148069
-0.147097
-0.146092
-0.145051
-0.143965
-0.142814
-0.1416
-0.140323
-0.138982
-0.137559
-0.136013
-0.134348
-0.132525
-0.130529
-0.128333
-0.125909
-0.123258
-0.120384
-0.117327
-0.114154
-0.110921
-0.107664
-0.104407
-0.101153
-0.0978821
-0.0945876
-0.0912724
-0.0879359
-0.0845749
-0.0811862
-0.0777651
-0.0743002
-0.070778
-0.0671798
-0.0634855
-0.0596815
-0.0557602
-0.0517141
-0.0475335
-0.0432087
-0.038721
-0.0340455
-0.0291468
-0.0239949
-0.0185834
-0.013225
-0.0101322
-0.00716541
-0.00408196
-0.000912941
0.00230097
0.00553595
0.00878017
0.0120278
0.0152761
0.0185232
0.0217684
0.0250109
0.0282503
0.0314865
0.0347193
0.0379489
0.0411755
0.0443994
0.0476207
0.05084
0.0540575
0.0572736
0.0604886
0.0637028
0.0669163
0.0701294
0.0733423
0.0765551
0.0797679
0.0829808
0.0861938
0.0894069
0.0926202
0.0958336
0.0990472
0.102261
0.105475
0.108689
-0.218685
-0.21489
-0.211139
-0.207456
-0.203867
-0.200406
-0.197093
-0.193942
-0.190959
-0.188148
-0.185505
-0.183022
-0.180699
-0.178518
-0.176462
-0.174518
-0.172672
-0.170917
-0.169247
-0.167655
-0.166138
-0.164695
-0.163329
-0.162035
-0.160814
-0.159664
-0.158589
-0.157577
-0.156621
-0.155711
-0.154842
-0.153999
-0.153162
-0.15233
-0.151495
-0.150639
-0.149758
-0.148836
-0.14788
-0.146886
-0.145846
-0.144737
-0.143561
-0.142318
-0.141007
-0.139608
-0.13808
-0.13643
-0.134606
-0.132592
-0.13036
-0.127893
-0.125179
-0.122225
-0.119087
-0.115831
-0.112526
-0.109201
-0.105879
-0.102559
-0.0992184
-0.0958531
-0.0924688
-0.0890556
-0.0856069
-0.0821166
-0.0785766
-0.0749716
-0.0712891
-0.0675182
-0.0636546
-0.0596989
-0.0556506
-0.0515048
-0.0472509
-0.0428781
-0.0383719
-0.0337236
-0.0289339
-0.0240346
-0.0191222
-0.0145074
-0.0107245
-0.00730613
-0.00401173
-0.000758791
0.0024799
0.00571369
0.00894623
0.0121789
0.0154119
0.018645
0.0218776
0.0251091
0.0283389
0.0315665
0.0347918
0.0380146
0.0412349
0.044453
0.0476692
0.0508836
0.0540966
0.0573086
0.0605197
0.0637303
0.0669406
0.0701508
0.073361
0.0765714
0.0797819
0.0829928
0.0862039
0.0894154
0.0926271
0.0958392
0.0990514
0.102264
0.105476
0.108689
-0.218742
-0.215056
-0.211405
-0.207812
-0.204313
-0.200937
-0.1977
-0.194612
-0.191678
-0.188906
-0.186295
-0.18384
-0.181535
-0.179366
-0.177315
-0.175377
-0.173541
-0.1718
-0.170151
-0.168583
-0.167097
-0.165689
-0.164362
-0.163112
-0.161936
-0.160834
-0.159806
-0.158841
-0.157935
-0.157077
-0.156261
-0.155468
-0.154679
-0.153893
-0.153102
-0.152292
-0.151458
-0.150587
-0.14968
-0.148735
-0.14774
-0.146677
-0.145545
-0.144341
-0.14306
-0.141688
-0.140185
-0.138548
-0.136725
-0.1347
-0.132443
-0.129938
-0.127174
-0.124166
-0.12097
-0.117654
-0.114293
-0.110917
-0.107548
-0.104181
-0.100787
-0.0973671
-0.0939238
-0.0904393
-0.0869073
-0.0833152
-0.0796481
-0.0758918
-0.0720392
-0.0680876
-0.0640438
-0.0599232
-0.055734
-0.0514745
-0.0471347
-0.0427079
-0.0381874
-0.0335664
-0.0288587
-0.0241148
-0.0194369
-0.0150124
-0.0110199
-0.00737767
-0.00394744
-0.000631447
0.00262824
0.00586241
0.00908656
0.0123079
0.0155294
0.0187519
0.021975
0.0251981
0.0284204
0.0316414
0.0348606
0.0380778
0.0412929
0.0445061
0.0477175
0.0509275
0.0541364
0.0573444
0.0605518
0.0637589
0.066966
0.0701732
0.0733807
0.0765885
0.0797967
0.0830055
0.0862147
0.0894244
0.0926345
0.095845
0.0990559
0.102267
0.105478
0.10869
-0.218799
-0.215225
-0.211678
-0.208188
-0.204785
-0.201492
-0.198326
-0.195299
-0.192418
-0.189688
-0.187113
-0.18469
-0.182408
-0.180251
-0.17821
-0.176283
-0.174459
-0.172731
-0.1711
-0.169554
-0.168097
-0.166723
-0.165434
-0.164224
-0.163091
-0.162032
-0.161047
-0.160126
-0.159262
-0.158449
-0.157677
-0.156925
-0.156179
-0.155436
-0.154685
-0.153921
-0.153134
-0.152314
-0.151458
-0.150564
-0.149618
-0.148605
-0.147519
-0.146358
-0.145116
-0.143773
-0.142301
-0.140682
-0.138873
-0.136851
-0.134583
-0.132055
-0.129262
-0.126224
-0.122992
-0.119637
-0.116226
-0.112812
-0.109407
-0.106003
-0.102564
-0.0990996
-0.0956018
-0.0920479
-0.0884267
-0.0847198
-0.0809153
-0.0770034
-0.0729785
-0.0688445
-0.0646205
-0.0603363
-0.0560066
-0.0516316
-0.0472039
-0.0427142
-0.0381553
-0.0335331
-0.028865
-0.0241852
-0.0195698
-0.0151333
-0.0110117
-0.00727405
-0.00380372
-0.000481617
0.00276967
0.00599123
0.0092028
0.0124131
0.0156252
0.0188399
0.0220565
0.0252741
0.0284917
0.0317083
0.0349233
0.0381365
0.0413477
0.044557
0.0477646
0.0509708
0.0541759
0.0573803
0.0605842
0.063788
0.066992
0.0701962
0.0734009
0.0766062
0.0798121
0.0830187
0.0862259
0.0894338
0.0926422
0.0958512
0.0990606
0.10227
0.10548
0.10869
-0.218855
-0.215392
-0.211957
-0.208573
-0.205261
-0.202044
-0.198943
-0.19597
-0.193134
-0.190445
-0.187904
-0.185507
-0.183247
-0.181112
-0.17909
-0.17718
-0.175372
-0.173659
-0.172047
-0.170524
-0.169093
-0.167752
-0.166497
-0.165324
-0.164232
-0.163212
-0.162267
-0.161385
-0.160559
-0.159786
-0.159053
-0.158339
-0.157633
-0.156929
-0.156221
-0.155503
-0.154765
-0.153999
-0.1532
-0.15236
-0.151466
-0.150507
-0.149476
-0.148365
-0.147163
-0.145852
-0.144418
-0.142827
-0.141044
-0.139038
-0.136775
-0.134242
-0.131444
-0.128404
-0.125168
-0.121795
-0.118337
-0.114882
-0.111436
-0.107991
-0.104518
-0.101014
-0.0974561
-0.0938223
-0.0900983
-0.0862678
-0.0823208
-0.0782503
-0.0740542
-0.0697436
-0.0653482
-0.0609076
-0.0564447
-0.0519579
-0.0474385
-0.0428785
-0.0382705
-0.0336182
-0.0289309
-0.0242227
-0.0195314
-0.0149329
-0.010628
-0.00690636
-0.00352235
-0.000279834
0.00291639
0.00610353
0.00929422
0.0124918
0.015696
0.0189057
0.0221191
0.0253343
0.0285498
0.0317646
0.0349777
0.0381888
0.0413976
0.0446043
0.0478091
0.0510123
0.0542143
0.0574155
0.0606164
0.0638171
0.0670181
0.0702195
0.0734216
0.0766243
0.0798279
0.0830323
0.0862375
0.0894435
0.0926502
0.0958575
0.0990654
0.102274
0.105482
0.108691
-0.21891
-0.215553
-0.212217
-0.208928
-0.205703
-0.202561
-0.19952
-0.196597
-0.193805
-0.191153
-0.188644
-0.186271
-0.18403
-0.181913
-0.179909
-0.178015
-0.176225
-0.174532
-0.172942
-0.171444
-0.170041
-0.168732
-0.167511
-0.166373
-0.165318
-0.164337
-0.16343
-0.162586
-0.161799
-0.161064
-0.160368
-0.159692
-0.159028
-0.158368
-0.157708
-0.157041
-0.156358
-0.155651
-0.154913
-0.154131
-0.153297
-0.152399
-0.151425
-0.150365
-0.149209
-0.147947
-0.146559
-0.145005
-0.143255
-0.141276
-0.139037
-0.136526
-0.133758
-0.130754
-0.127536
-0.124138
-0.120622
-0.117116
-0.113623
-0.110129
-0.106617
-0.103057
-0.0994281
-0.095704
-0.0918686
-0.0879083
-0.0838157
-0.0795876
-0.0752268
-0.0707527
-0.0662024
-0.0616205
-0.0570343
-0.0524417
-0.0478345
-0.0432029
-0.0385343
-0.0338208
-0.0290525
-0.0242069
-0.0192785
-0.014305
-0.00960578
-0.00614994
-0.00307199
-2.72012e-05
0.00306096
0.0061927
0.00935585
0.0125402
0.0157387
0.0189465
0.0221599
0.025376
0.0285927
0.0318083
0.035022
0.038233
0.0414412
0.0446467
0.0478499
0.0510511
0.0542508
0.0574495
0.0606477
0.0638457
0.067044
0.0702427
0.0734422
0.0766425
0.0798438
0.0830461
0.0862493
0.0894534
0.0926583
0.095864
0.0990703
0.102277
0.105484
0.108692
-0.218954
-0.215685
-0.212436
-0.209229
-0.206077
-0.202997
-0.20001
-0.197139
-0.194397
-0.191785
-0.189302
-0.186946
-0.184715
-0.182608
-0.180618
-0.178741
-0.176969
-0.175299
-0.173734
-0.172265
-0.170895
-0.169621
-0.168437
-0.167338
-0.166324
-0.165385
-0.16452
-0.163719
-0.162975
-0.162282
-0.161628
-0.160999
-0.160385
-0.159779
-0.159175
-0.158568
-0.157948
-0.157308
-0.156637
-0.155923
-0.155156
-0.154321
-0.153408
-0.152407
-0.151309
-0.150103
-0.148762
-0.147251
-0.145543
-0.143605
-0.141405
-0.138936
-0.136215
-0.133256
-0.130062
-0.126633
-0.123064
-0.1195
-0.115946
-0.11239
-0.108815
-0.105181
-0.101465
-0.0976364
-0.0936801
-0.0895846
-0.0853447
-0.0809626
-0.0764488
-0.0718282
-0.0671434
-0.0624419
-0.0577497
-0.0530649
-0.0483804
-0.0436821
-0.0389495
-0.0341569
-0.0292711
-0.0242439
-0.0189532
-0.0131906
-0.00718738
-0.00488919
-0.00251288
0.000215133
0.00316737
0.0062407
0.00937908
0.0125541
0.0157507
0.0189604
0.0221774
0.0253978
0.0286187
0.031838
0.0350546
0.0382678
0.0414772
0.0446832
0.0478861
0.0510863
0.0542846
0.0574815
0.0606775
0.0638733
0.0670692
0.0702655
0.0734626
0.0766606
0.0798597
0.0830598
0.086261
0.0894633
0.0926665
0.0958706
0.0990753
0.102281
0.105486
0.108692
-0.218987
-0.215786
-0.212606
-0.209464
-0.206375
-0.203354
-0.200419
-0.197589
-0.194875
-0.192285
-0.189816
-0.18747
-0.18525
-0.183154
-0.181177
-0.179315
-0.177565
-0.175921
-0.174384
-0.172949
-0.171618
-0.170385
-0.169247
-0.168199
-0.167235
-0.16635
-0.165538
-0.164792
-0.164105
-0.163468
-0.162871
-0.162303
-0.161756
-0.161219
-0.160686
-0.160152
-0.159609
-0.159047
-0.158453
-0.157815
-0.15712
-0.156354
-0.155508
-0.154573
-0.153539
-0.152389
-0.151097
-0.149635
-0.147974
-0.146085
-0.143941
-0.141523
-0.138841
-0.135915
-0.13273
-0.129259
-0.125634
-0.121993
-0.118351
-0.114707
-0.111039
-0.107306
-0.103481
-0.0995389
-0.095457
-0.0912257
-0.0868462
-0.0823242
-0.0776718
-0.0729212
-0.0681228
-0.063325
-0.0585468
-0.0537883
-0.0490397
-0.0442798
-0.039481
-0.0346039
-0.0295976
-0.0243722
-0.0187043
-0.0118091
-0.000422765
-0.00350105
-0.00218895
0.000289847
0.00317371
0.00622496
0.00935653
0.0125315
0.015732
0.0189476
0.0221716
0.0253993
0.0286272
0.0318529
0.0350749
0.0382923
0.0415049
0.0447129
0.0479169
0.0511174
0.0543151
0.057511
0.0607055
0.0638995
0.0670933
0.0702876
0.0734825
0.0766783
0.0798753
0.0830734
0.0862727
0.0894731
0.0926746
0.0958771
0.0990803
0.102284
0.105488
0.108693
-0.219006
-0.215844
-0.212705
-0.209607
-0.206562
-0.203583
-0.200685
-0.19788
-0.195182
-0.1926
-0.190138
-0.187801
-0.185593
-0.183511
-0.181552
-0.179711
-0.177984
-0.176368
-0.174865
-0.173474
-0.172192
-0.171016
-0.169939
-0.168958
-0.168063
-0.16725
-0.166514
-0.165845
-0.165237
-0.16468
-0.164165
-0.163683
-0.163225
-0.162781
-0.162341
-0.1619
-0.16145
-0.16098
-0.160475
-0.159919
-0.159302
-0.158611
-0.157838
-0.156974
-0.156006
-0.154913
-0.153672
-0.152258
-0.150646
-0.148811
-0.146716
-0.144328
-0.141659
-0.138737
-0.13553
-0.132004
-0.1283
-0.124542
-0.120775
-0.117003
-0.113205
-0.10935
-0.105404
-0.101335
-0.0971263
-0.0927739
-0.0882758
-0.0836338
-0.0788606
-0.0739954
-0.0690975
-0.0642141
-0.0593593
-0.0545437
-0.0497445
-0.0449305
-0.040077
-0.0351471
-0.0300959
-0.0248797
-0.0194708
-0.014092
-0.010186
-0.00592988
-0.00291604
2.13099e-05
0.00304376
0.00614167
0.00929178
0.0124772
0.0156864
0.018911
0.0221445
0.0253818
0.028619
0.0318532
0.0350826
0.0383062
0.0415238
0.0447354
0.0479418
0.0511437
0.0543419
0.0575375
0.0607312
0.0639239
0.0671161
0.0703085
0.0735015
0.0766954
0.0798904
0.0830866
0.0862841
0.0894828
0.0926826
0.0958834
0.0990852
0.102288
0.105491
0.108694
-0.219003
-0.215837
-0.2127
-0.209608
-0.206576
-0.203613
-0.200731
-0.19794
-0.195251
-0.192675
-0.190221
-0.187898
-0.185706
-0.183643
-0.181707
-0.179894
-0.1782
-0.176624
-0.175168
-0.173833
-0.172619
-0.171519
-0.170528
-0.169638
-0.16884
-0.168129
-0.167498
-0.166939
-0.166443
-0.166002
-0.165605
-0.165243
-0.164908
-0.164586
-0.164267
-0.163943
-0.163607
-0.163244
-0.162837
-0.162374
-0.161843
-0.161235
-0.160542
-0.159753
-0.158852
-0.157818
-0.156629
-0.155263
-0.153698
-0.151908
-0.149844
-0.147457
-0.144759
-0.141784
-0.138507
-0.134887
-0.131037
-0.127093
-0.123148
-0.119209
-0.115253
-0.111253
-0.107171
-0.102977
-0.09865
-0.0941827
-0.0895706
-0.0848164
-0.0799378
-0.0749716
-0.0699774
-0.0650067
-0.0600859
-0.0552204
-0.0503758
-0.0455168
-0.0406198
-0.0356646
-0.0306197
-0.0254821
-0.0203133
-0.0153504
-0.0110506
-0.00699441
-0.00351305
-0.000281012
0.00287794
0.00603304
0.00920714
0.0124047
0.0156229
0.0188567
0.0221002
0.0253481
0.0285958
0.03184
0.0350785
0.0383099
0.0415338
0.0447505
0.0479606
0.0511649
0.0543646
0.0575607
0.0607543
0.0639462
0.0671373
0.0703282
0.0735196
0.0767117
0.0799049
0.0830994
0.0862951
0.0894921
0.0926903
0.0958897
0.0990899
0.102291
0.105493
0.108694
-0.218974
-0.215753
-0.212571
-0.209447
-0.206392
-0.203415
-0.200524
-0.197726
-0.195031
-0.192456
-0.190015
-0.187708
-0.185534
-0.183494
-0.181588
-0.179815
-0.178172
-0.176659
-0.175279
-0.174032
-0.172914
-0.171921
-0.171044
-0.170276
-0.169611
-0.169041
-0.168557
-0.168151
-0.167813
-0.167532
-0.167297
-0.167099
-0.166924
-0.16676
-0.166594
-0.166418
-0.166219
-0.165981
-0.165689
-0.165333
-0.164902
-0.164389
-0.163786
-0.163079
-0.162252
-0.161283
-0.160147
-0.158827
-0.157304
-0.155545
-0.153483
-0.151043
-0.14824
-0.145132
-0.14172
-0.137927
-0.133843
-0.129636
-0.125454
-0.121301
-0.117153
-0.112981
-0.108746
-0.104414
-0.0999642
-0.0953862
-0.0906671
-0.0858036
-0.0808138
-0.0757398
-0.0706474
-0.0655889
-0.0605914
-0.0556513
-0.0507504
-0.045853
-0.0409272
-0.0359665
-0.0309533
-0.0259015
-0.020882
-0.016039
-0.0115644
-0.0074525
-0.0037996
-0.000442317
0.00277751
0.00595479
0.00913462
0.0123336
0.0155545
0.0187935
0.0220448
0.0253023
0.0285605
0.0318153
0.0350636
0.0383039
0.0415355
0.0447584
0.0479732
0.0511811
0.0543831
0.0575805
0.0607745
0.0639662
0.0671566
0.0703464
0.0735364
0.0767271
0.0799187
0.0831115
0.0863056
0.089501
0.0926977
0.0958956
0.0990945
0.102294
0.105494
0.108695
-0.21891
-0.215569
-0.212281
-0.209071
-0.205952
-0.20293
-0.20001
-0.197196
-0.1945
-0.191928
-0.189492
-0.187195
-0.185044
-0.183039
-0.181181
-0.17947
-0.177904
-0.176483
-0.175207
-0.174075
-0.173086
-0.172232
-0.171509
-0.170908
-0.170422
-0.170042
-0.169757
-0.169556
-0.169427
-0.169358
-0.169336
-0.169348
-0.16938
-0.169416
-0.169443
-0.169447
-0.169415
-0.169329
-0.169176
-0.168948
-0.168637
-0.168238
-0.167741
-0.16713
-0.166389
-0.165496
-0.164423
-0.163152
-0.161662
-0.159905
-0.157784
-0.155205
-0.1522
-0.148866
-0.145227
-0.141161
-0.136747
-0.132185
-0.127694
-0.12327
-0.118886
-0.114505
-0.110084
-0.105587
-0.100993
-0.0962865
-0.0914529
-0.0864875
-0.0814016
-0.0762306
-0.0710344
-0.0658592
-0.0607326
-0.0556643
-0.0506525
-0.0456914
-0.0407456
-0.0357997
-0.0308406
-0.0258773
-0.0209608
-0.0161531
-0.0115496
-0.00733156
-0.00367049
-0.000352036
0.00281998
0.00595605
0.00910541
0.0122847
0.0154951
0.0187313
0.0219855
0.0252497
0.0285169
0.0317817
0.0350401
0.0382898
0.0415297
0.0447596
0.0479801
0.0511922
0.0543973
0.0575967
0.0607917
0.0639837
0.0671738
0.0703629
0.0735519
0.0767413
0.0799315
0.0831228
0.0863154
0.0895094
0.0927047
0.0959012
0.0990988
0.102297
0.105496
0.108696
-0.21881
-0.215276
-0.211814
-0.208456
-0.20522
-0.202115
-0.199143
-0.196304
-0.1936
-0.191036
-0.188616
-0.186348
-0.184239
-0.182292
-0.180508
-0.17889
-0.177432
-0.176133
-0.174994
-0.174013
-0.173187
-0.172514
-0.171987
-0.171599
-0.17134
-0.171198
-0.171163
-0.171217
-0.171348
-0.171542
-0.171782
-0.172053
-0.17234
-0.17262
-0.17288
-0.173103
-0.173273
-0.173374
-0.173392
-0.173324
-0.173162
-0.172905
-0.172542
-0.172056
-0.171426
-0.17063
-0.169638
-0.168424
-0.166947
-0.165143
-0.162888
-0.160075
-0.156762
-0.153104
-0.149147
-0.14469
-0.139818
-0.134794
-0.129909
-0.125148
-0.120477
-0.115842
-0.111194
-0.106489
-0.101711
-0.0968452
-0.0918788
-0.0868026
-0.0816179
-0.0763556
-0.071053
-0.0657317
-0.0604148
-0.0551317
-0.0499164
-0.0448165
-0.0398128
-0.034877
-0.0300163
-0.0251907
-0.0203874
-0.0155923
-0.010818
-0.00644275
-0.00300918
5.64907e-05
0.00304706
0.00606602
0.00914139
0.0122746
0.015458
0.0186803
0.02193
0.0251961
0.0284694
0.0317425
0.0350102
0.0382691
0.0415176
0.0447549
0.0479817
0.0511987
0.0544075
0.0576094
0.060806
0.0639988
0.067189
0.0703777
0.0735658
0.0767542
0.0799432
0.0831333
0.0863246
0.0895172
0.0927112
0.0959065
0.0991028
0.1023
0.105498
0.108696
-0.21867
-0.214865
-0.211157
-0.207588
-0.204184
-0.200959
-0.197913
-0.19504
-0.192336
-0.189799
-0.187427
-0.185224
-0.183195
-0.181343
-0.179671
-0.178179
-0.176862
-0.175718
-0.174748
-0.173951
-0.173324
-0.172866
-0.17257
-0.172427
-0.17243
-0.172561
-0.17281
-0.173157
-0.173587
-0.174082
-0.174623
-0.175192
-0.175771
-0.176336
-0.176868
-0.177349
-0.177761
-0.178089
-0.178321
-0.178452
-0.178479
-0.178408
-0.178225
-0.177911
-0.177441
-0.176782
-0.175905
-0.174758
-0.173281
-0.171382
-0.168919
-0.165778
-0.162056
-0.157976
-0.153604
-0.148614
-0.143133
-0.137543
-0.132186
-0.127026
-0.122013
-0.117078
-0.11216
-0.107206
-0.102198
-0.0971246
-0.091981
-0.086762
-0.0814671
-0.0761031
-0.0706679
-0.0651525
-0.0595766
-0.0540016
-0.0485058
-0.04316
-0.0380203
-0.033072
-0.0283209
-0.0236871
-0.0190576
-0.0142987
-0.00927602
-0.00437469
-0.0017573
0.00075604
0.00343982
0.00628273
0.00924984
0.0123138
0.0154532
0.0186494
0.0218857
0.0251475
0.0284226
0.0317013
0.0349766
0.038244
0.0415006
0.0447455
0.0479787
0.0512011
0.0544139
0.0576188
0.0608174
0.0640113
0.0672019
0.0703905
0.0735782
0.0767657
0.0799538
0.0831427
0.0863329
0.0895243
0.0927171
0.0959112
0.0991065
0.102303
0.105499
0.108697
-0.218501
-0.214366
-0.210356
-0.206527
-0.202918
-0.19955
-0.196422
-0.193526
-0.190847
-0.188374
-0.186094
-0.184005
-0.182103
-0.180395
-0.178878
-0.177552
-0.17641
-0.175453
-0.174678
-0.174085
-0.173673
-0.17344
-0.173382
-0.173486
-0.173749
-0.174156
-0.174691
-0.175335
-0.176069
-0.176874
-0.177728
-0.178611
-0.179502
-0.180375
-0.181208
-0.181979
-0.182671
-0.183268
-0.183759
-0.18414
-0.184412
-0.184584
-0.184646
-0.184574
-0.184332
-0.183876
-0.183166
-0.182112
-0.180626
-0.178589
-0.175841
-0.172291
-0.168074
-0.163498
-0.158628
-0.152969
-0.146758
-0.140545
-0.134664
-0.129052
-0.123648
-0.118371
-0.113147
-0.107907
-0.102629
-0.0973085
-0.0919464
-0.0865388
-0.081081
-0.0755475
-0.0699046
-0.0641292
-0.0582342
-0.0522916
-0.0464308
-0.0407652
-0.0354206
-0.0304106
-0.0257414
-0.0213545
-0.0170427
-0.0124882
-0.00721284
7.86896e-05
-0.000223936
0.00151336
0.00389975
0.00657461
0.00942608
0.0124071
0.0154883
0.0186461
0.0218593
0.0251094
0.028381
0.0316616
0.0349422
0.0382164
0.0414805
0.0447325
0.0479721
0.0511999
0.054417
0.0576252
0.0608261
0.0640214
0.0672127
0.0704015
0.0735889
0.0767759
0.0799631
0.0831511
0.0863402
0.0895306
0.0927224
0.0959155
0.0991097
0.102305
0.105501
0.108697
-0.218333
-0.213867
-0.209548
-0.205456
-0.201643
-0.198139
-0.19495
-0.192063
-0.189452
-0.187095
-0.184966
-0.183054
-0.181344
-0.179834
-0.178518
-0.177392
-0.176452
-0.175694
-0.175115
-0.174716
-0.174495
-0.174455
-0.174587
-0.17489
-0.175358
-0.175981
-0.176743
-0.177628
-0.178615
-0.179686
-0.180817
-0.181988
-0.183173
-0.184347
-0.185483
-0.186559
-0.187555
-0.188455
-0.18925
-0.189935
-0.190516
-0.191001
-0.191383
-0.191633
-0.191697
-0.191532
-0.191057
-0.190136
-0.188642
-0.186441
-0.183367
-0.179372
-0.174651
-0.169589
-0.164182
-0.157769
-0.15079
-0.143954
-0.137528
-0.131441
-0.125628
-0.120002
-0.11447
-0.108942
-0.103379
-0.0977761
-0.0921331
-0.0864469
-0.0807068
-0.0748727
-0.0688865
-0.0627194
-0.0563998
-0.0500161
-0.0437279
-0.0376915
-0.0320719
-0.0269398
-0.0223319
-0.0182586
-0.014451
-0.0105966
-0.00679173
-0.00374725
-0.000619017
0.00185506
0.00431967
0.00691777
0.00966772
0.0125582
0.0155689
0.018676
0.0218558
0.0250862
0.0283483
0.0316265
0.0349094
0.0381885
0.0414588
0.0447172
0.0479629
0.0511959
0.0544174
0.0576289
0.0608322
0.0640291
0.0672214
0.0704106
0.0735979
0.0767845
0.0799711
0.0831583
0.0863466
0.0895361
0.092727
0.0959192
0.0991125
0.102307
0.105502
0.108698
-0.218238
-0.213578
-0.209066
-0.204804
-0.200865
-0.197295
-0.194106
-0.191286
-0.188801
-0.186618
-0.1847
-0.18302
-0.18155