/*--------------------------------*- C++ -*----------------------------------*\
  =========                 |
  \\      /  F ield         | OpenFOAM: The Open Source CFD Toolbox
   \\    /   O peration     | Website:  https://openfoam.org
    \\  /    A nd           | Version:  6
     \\/     M anipulation  |
\*---------------------------------------------------------------------------*/
FoamFile
{
    version     2.0;
    format      ascii;
    class       volVectorField;
    location    "2500";
    object      U;
}
// * * * * * * * * * * * * * * * * * * * * * * * * * * * * * * * * * * * * * //

dimensions      [0 1 -1 0 0 0 0];

internalField   nonuniform List<vector> 
4800
(
(-2.40064e-05 0 -1.41874e-05)
(-8.99417e-06 0 -1.13778e-05)
(-4.89701e-05 0 -3.32996e-05)
(-0.000101796 0 8.76451e-05)
(-0.00014438 0 0.000100128)
(-0.000344219 0 -0.000140557)
(-0.000408336 0 1.58796e-06)
(-0.00043189 0 -4.23369e-06)
(-0.000435751 0 -2.34304e-05)
(-0.000428398 0 -3.82517e-05)
(-0.000383502 0 -7.74096e-05)
(-0.000337751 0 -6.92671e-05)
(-0.000307366 0 -5.54207e-05)
(-0.000276208 0 -7.16642e-05)
(-0.000237246 0 -6.47242e-05)
(-0.000192236 0 -2.75127e-05)
(-0.000143077 0 -7.94282e-06)
(-0.000100482 0 -2.46328e-05)
(-6.77278e-05 0 -3.24535e-05)
(-4.44476e-05 0 -1.64548e-06)
(-3.55636e-05 0 7.89963e-06)
(-5.70182e-05 0 -1.27302e-06)
(-0.000121992 0 2.39173e-06)
(-0.000205722 0 5.97561e-05)
(-0.000270448 0 7.83111e-05)
(-0.000337864 0 -3.65478e-05)
(-0.000370838 0 5.33982e-06)
(-0.000427419 0 2.49685e-05)
(-0.000524561 0 -2.14257e-05)
(-0.00065227 0 -7.02765e-05)
(-0.00079241 0 -8.34084e-05)
(-0.00104025 0 1.16961e-05)
(-0.00124463 0 9.81296e-05)
(-0.00133948 0 4.40604e-05)
(-0.00137168 0 2.6718e-05)
(-0.00137144 0 1.72656e-05)
(-0.00134709 0 8.02753e-06)
(-0.00133847 0 1.87396e-06)
(-0.00132103 0 -3.28996e-05)
(-0.00127984 0 1.41715e-05)
(-0.00124878 0 7.88102e-06)
(-0.00123477 0 -5.39596e-05)
(-0.00121266 0 -5.85522e-05)
(-0.00116135 0 1.04893e-05)
(-0.00111709 0 -3.69922e-05)
(-0.00108106 0 -6.14655e-05)
(-0.00100965 0 -7.07406e-05)
(-0.000895565 0 -5.64737e-05)
(-0.000776323 0 -5.23756e-05)
(-0.000683309 0 -5.36382e-05)
(-0.000618403 0 -4.29598e-05)
(-0.000553404 0 -3.03634e-05)
(-0.000472102 0 -2.40209e-05)
(-0.000375327 0 -4.66051e-05)
(-0.000287795 0 -4.3623e-05)
(-0.000206768 0 -4.52722e-05)
(-0.000126655 0 -5.14802e-05)
(-6.26313e-05 0 -3.09065e-05)
(1.63787e-05 0 -5.75991e-05)
(0.000112423 0 -1.48859e-05)
(0.000164364 0 -0.000138125)
(0.000298239 0 -1.09649e-06)
(0.000401986 0 3.16348e-05)
(0.0004745 0 -6.50297e-05)
(0.000566566 0 -9.85047e-05)
(0.000699423 0 5.27271e-05)
(0.000774816 0 -3.53019e-05)
(0.000774347 0 -4.55223e-05)
(0.000781918 0 -3.3238e-05)
(0.000813497 0 -6.70576e-08)
(0.000854136 0 -1.80208e-05)
(0.000850956 0 -2.69775e-05)
(0.000832751 0 -4.1141e-05)
(0.000801319 0 -1.36664e-05)
(0.000741821 0 2.38778e-05)
(0.000646652 0 -0.000125623)
(0.000546293 0 6.32163e-05)
(0.000401229 0 9.35809e-06)
(0.000367702 0 -8.69419e-05)
(-0.000246473 0 -0.000114943)
(1.14908e-05 0 9.67069e-05)
(-1.04214e-13 0 1.32447e-13)
(-1.04661e-12 0 6.14977e-14)
(1.31487e-13 0 5.56555e-14)
(3.12249e-14 0 4.34166e-14)
(-4.2976e-14 0 3.09778e-14)
(-9.37271e-14 0 1.96971e-14)
(-1.23812e-13 0 1.01898e-14)
(-1.3704e-13 0 2.40897e-15)
(-1.36429e-13 0 -3.75119e-15)
(-1.24956e-13 0 -8.4518e-15)
(-1.05312e-13 0 -1.1873e-14)
(-7.98789e-14 0 -1.41944e-14)
(-5.07149e-14 0 -1.55863e-14)
(-1.95702e-14 0 -1.62019e-14)
(1.20923e-14 0 -1.61733e-14)
(4.30859e-14 0 -1.56117e-14)
(7.24943e-14 0 -1.46138e-14)
(9.96488e-14 0 -1.32697e-14)
(1.2408e-13 0 -1.16669e-14)
(1.45459e-13 0 -9.88937e-15)
(1.63545e-13 0 -8.01448e-15)
(1.78167e-13 0 -6.10868e-15)
(1.89215e-13 0 -4.22527e-15)
(1.96657e-13 0 -2.40366e-15)
(2.00544e-13 0 -6.70099e-16)
(2.01012e-13 0 9.59447e-16)
(1.98273e-13 0 2.47645e-15)
(1.92587e-13 0 3.8759e-15)
(1.84244e-13 0 5.15443e-15)
(1.73535e-13 0 6.30904e-15)
(1.60737e-13 0 7.33744e-15)
(1.46107e-13 0 8.23888e-15)
(1.29882e-13 0 9.01454e-15)
(1.12288e-13 0 9.66773e-15)
(9.35417e-14 0 1.02035e-14)
(7.38532e-14 0 1.0629e-14)
(5.34221e-14 0 1.09557e-14)
(3.24151e-14 0 1.12095e-14)
(1.08927e-14 0 1.14727e-14)
(-3.30317e-05 0 3.19494e-05)
(-3.47403e-05 0 4.31962e-05)
(-9.88819e-05 0 0.000154205)
(-0.000220815 0 0.000214565)
(-0.000314533 0 0.000168458)
(-0.000435377 0 6.79207e-05)
(-0.000463533 0 4.24787e-05)
(-0.000481031 0 3.2126e-05)
(-0.000488249 0 -3.75443e-06)
(-0.000471288 0 -2.97938e-05)
(-0.000448196 0 -3.34022e-05)
(-0.000415005 0 -5.87241e-05)
(-0.000375551 0 -5.23097e-05)
(-0.000344435 0 -4.28465e-05)
(-0.000314668 0 -5.68297e-05)
(-0.000270382 0 -0.000106554)
(-0.000225505 0 -0.000105668)
(-0.000193277 0 -8.78411e-05)
(-0.00016756 0 -7.69326e-05)
(-0.000150322 0 -4.79607e-05)
(-0.000149974 0 -2.38308e-05)
(-0.000179044 0 1.7565e-05)
(-0.000234788 0 5.62627e-05)
(-0.000323058 0 6.26155e-05)
(-0.000432887 0 6.08807e-05)
(-0.000516787 0 8.13843e-05)
(-0.000597101 0 4.71969e-05)
(-0.000721321 0 4.08981e-06)
(-0.000862538 0 0.000303525)
(-0.00106481 0 0.0003893)
(-0.00121225 0 0.000348361)
(-0.00126117 0 0.000282543)
(-0.00128803 0 0.000111514)
(-0.00130113 0 4.26724e-05)
(-0.00130237 0 3.43205e-05)
(-0.00126247 0 -2.75196e-05)
(-0.00125199 0 -2.98504e-05)
(-0.00125939 0 -4.29613e-05)
(-0.00125112 0 -5.34555e-05)
(-0.00121122 0 -5.01591e-05)
(-0.00118093 0 -9.78805e-05)
(-0.00115731 0 -4.32894e-05)
(-0.00110815 0 -3.31309e-05)
(-0.00104584 0 -9.96838e-05)
(-0.00100853 0 -9.02176e-05)
(-0.000991748 0 -4.71302e-05)
(-0.000928381 0 -0.00015312)
(-0.000798889 0 -0.000200856)
(-0.000671428 0 -0.00019175)
(-0.000589052 0 -0.000150447)
(-0.000534797 0 -0.000109446)
(-0.000465615 0 -0.000142837)
(-0.00041267 0 -0.000124621)
(-0.000316228 0 -0.000191032)
(-0.000281459 0 -0.000133105)
(-0.000219142 0 -0.000147035)
(-0.000140724 0 -0.000163668)
(-0.000122832 0 -0.000127452)
(-2.24104e-05 0 -0.000168201)
(5.2246e-05 0 -0.000151627)
(9.136e-05 0 -0.000178199)
(0.000190106 0 -0.000161547)
(0.000282754 0 -0.000162417)
(0.000369777 0 -0.000187214)
(0.000464202 0 -0.000152092)
(0.000565998 0 -8.64339e-05)
(0.000621275 0 -9.78008e-05)
(0.000674736 0 -2.16431e-05)
(0.000709563 0 -6.42537e-05)
(0.000747856 0 -7.71498e-05)
(0.00078695 0 -4.7276e-05)
(0.000792076 0 3.77267e-05)
(0.000788226 0 7.60309e-05)
(0.000767895 0 0.000101333)
(0.000719717 0 0.000119349)
(0.00063422 0 0.000220676)
(0.000570289 0 0.000197919)
(0.000476203 0 8.5099e-05)
(0.000413699 0 0.000210924)
(-0.000309567 0 0.000136728)
(1.13411e-05 0 0.000290935)
(-1.32213e-13 0 6.64165e-13)
(-1.01486e-12 0 2.32425e-13)
(1.11593e-13 0 1.74536e-13)
(5.59374e-15 0 1.29668e-13)
(-6.69033e-14 0 9.08149e-14)
(-1.14297e-13 0 5.69302e-14)
(-1.411e-13 0 2.8535e-14)
(-1.50981e-13 0 5.34916e-15)
(-1.4729e-13 0 -1.29563e-14)
(-1.33077e-13 0 -2.68839e-14)
(-1.11055e-13 0 -3.69908e-14)
(-8.35922e-14 0 -4.38218e-14)
(-5.27223e-14 0 -4.78752e-14)
(-2.01573e-14 0 -4.9587e-14)
(1.26824e-14 0 -4.9331e-14)
(4.46453e-14 0 -4.74362e-14)
(7.48363e-14 0 -4.42087e-14)
(1.02596e-13 0 -3.99475e-14)
(1.2746e-13 0 -3.49442e-14)
(1.49111e-13 0 -2.94704e-14)
(1.67326e-13 0 -2.37615e-14)
(1.81956e-13 0 -1.80068e-14)
(1.9292e-13 0 -1.23465e-14)
(2.00212e-13 0 -6.87789e-15)
(2.03907e-13 0 -1.66384e-15)
(2.04159e-13 0 3.25455e-15)
(2.01189e-13 0 7.84883e-15)
(1.95265e-13 0 1.20959e-14)
(1.86677e-13 0 1.59759e-14)
(1.75718e-13 0 1.94733e-14)
(1.62667e-13 0 2.2579e-14)
(1.47784e-13 0 2.5292e-14)
(1.31311e-13 0 2.76193e-14)
(1.13477e-13 0 2.9574e-14)
(9.45029e-14 0 3.11733e-14)
(7.46054e-14 0 3.24372e-14)
(5.40026e-14 0 3.33902e-14)
(3.29322e-14 0 3.40681e-14)
(1.1156e-14 0 3.45428e-14)
(-3.64554e-05 0 0.000107014)
(-0.000135708 0 0.000130192)
(-0.000379465 0 0.000146839)
(-0.000447025 0 0.000155727)
(-0.000444938 0 0.000181057)
(-0.000434267 0 0.000188114)
(-0.000461632 0 0.000102267)
(-0.000494859 0 1.63173e-05)
(-0.000491598 0 -6.81708e-06)
(-0.000493387 0 -3.5644e-05)
(-0.000514619 0 -7.53668e-05)
(-0.00051623 0 -7.55508e-05)
(-0.000498215 0 -8.05217e-05)
(-0.000486558 0 -7.35926e-05)
(-0.000474671 0 -7.38542e-05)
(-0.000459384 0 -7.76539e-05)
(-0.000425753 0 -0.000116351)
(-0.000390901 0 -9.33983e-05)
(-0.00038364 0 -2.74171e-05)
(-0.000381538 0 -1.03232e-06)
(-0.000388103 0 4.70442e-05)
(-0.000403437 0 0.000110469)
(-0.00044346 0 0.000145352)
(-0.000509699 0 0.00019071)
(-0.000603935 0 0.000196626)
(-0.000697912 0 0.00018184)
(-0.000856883 0 0.000150974)
(-0.00103049 0 0.000171904)
(-0.00113376 0 0.000246275)
(-0.00121713 0 0.000264484)
(-0.0012433 0 0.000305213)
(-0.00123883 0 0.00029197)
(-0.00122353 0 0.000209265)
(-0.00122763 0 0.00013685)
(-0.00123499 0 3.45571e-05)
(-0.00121672 0 -0.000144674)
(-0.00120393 0 -4.98305e-05)
(-0.00119421 0 -1.74153e-05)
(-0.00118664 0 -5.43418e-05)
(-0.00118182 0 -7.52753e-05)
(-0.00118099 0 -8.53929e-05)
(-0.00114709 0 -0.000109333)
(-0.00107862 0 -8.9207e-05)
(-0.00101881 0 -7.26599e-05)
(-0.00096687 0 -0.000123862)
(-0.00093171 0 -0.000143501)
(-0.0008823 0 -0.000202326)
(-0.000765187 0 -0.00024065)
(-0.000614063 0 -0.000268171)
(-0.000545898 0 -0.000166892)
(-0.00048126 0 -0.000148233)
(-0.0003843 0 -0.000211928)
(-0.000352751 0 -0.000143881)
(-0.000294499 0 -0.000171456)
(-0.000271995 0 -0.000158553)
(-0.000244082 0 -0.000156833)
(-0.000211432 0 -0.000172529)
(-0.000211968 0 -0.000164953)
(-0.000197839 0 -0.000191554)
(-0.000146397 0 -0.00022526)
(-6.4043e-05 0 -0.000237601)
(-2.12738e-05 0 -0.000305057)
(0.000157019 0 -0.000258268)
(0.000269073 0 -0.000204333)
(0.000302267 0 -0.000245037)
(0.000405676 0 -0.000155347)
(0.000457809 0 -0.000178277)
(0.000550227 0 -0.000136215)
(0.000607377 0 -4.60819e-05)
(0.000606751 0 -3.80238e-05)
(0.000604674 0 -2.07221e-05)
(0.000614148 0 -4.86862e-05)
(0.000654647 0 -6.04985e-06)
(0.000649547 0 0.000111999)
(0.000632379 0 0.000136236)
(0.000596057 0 0.000180926)
(0.000537605 0 0.000260261)
(0.000446058 0 0.000286293)
(0.000429696 0 0.000255167)
(-0.000172582 0 0.000291857)
(1.10179e-05 0 0.000452877)
(-1.5622e-13 0 1.06483e-12)
(-1.19943e-12 0 3.66214e-13)
(2.73944e-14 0 2.81412e-13)
(-5.29972e-14 0 2.09373e-13)
(-1.15508e-13 0 1.44961e-13)
(-1.55597e-13 0 8.86171e-14)
(-1.75393e-13 0 4.14762e-14)
(-1.78531e-13 0 3.2223e-15)
(-1.68662e-13 0 -2.67605e-14)
(-1.4899e-13 0 -4.93982e-14)
(-1.2225e-13 0 -6.56739e-14)
(-9.07632e-14 0 -7.65134e-14)
(-5.64801e-14 0 -8.27441e-14)
(-2.10261e-14 0 -8.50832e-14)
(1.42431e-14 0 -8.41515e-14)
(4.82082e-14 0 -8.0507e-14)
(7.99829e-14 0 -7.46795e-14)
(1.08913e-13 0 -6.71874e-14)
(1.34557e-13 0 -5.8529e-14)
(1.56641e-13 0 -4.91581e-14)
(1.75009e-13 0 -3.94578e-14)
(1.89582e-13 0 -2.97268e-14)
(2.00344e-13 0 -2.01807e-14)
(2.07339e-13 0 -1.09662e-14)
(2.10676e-13 0 -2.18113e-15)
(2.10525e-13 0 6.10635e-15)
(2.07114e-13 0 1.38437e-14)
(2.00714e-13 0 2.09864e-14)
(1.91622e-13 0 2.7497e-14)
(1.80138e-13 0 3.33487e-14)
(1.66556e-13 0 3.85288e-14)
(1.51147e-13 0 4.30403e-14)
(1.34164e-13 0 4.68997e-14)
(1.15842e-13 0 5.01332e-14)
(9.64049e-14 0 5.27717e-14)
(7.60701e-14 0 5.48468e-14)
(5.5053e-14 0 5.63875e-14)
(3.35678e-14 0 5.74144e-14)
(1.13675e-14 0 5.79173e-14)
(-8.66708e-05 0 0.00019393)
(-0.000110298 0 0.000234727)
(-0.000148219 0 0.000346651)
(-0.00034195 0 0.000370316)
(-0.000409179 0 0.000328565)
(-0.000509604 0 0.000141935)
(-0.000531303 0 5.98989e-05)
(-0.000536596 0 5.2345e-05)
(-0.000536225 0 5.32057e-06)
(-0.000575191 0 -8.06411e-05)
(-0.000600763 0 -1.16923e-05)
(-0.000606972 0 -9.77008e-05)
(-0.000619546 0 -7.74553e-05)
(-0.00062163 0 -6.83165e-05)
(-0.000609355 0 -9.83213e-05)
(-0.000600089 0 -0.000107197)
(-0.000568033 0 -0.000200895)
(-0.000559281 0 -8.36073e-05)
(-0.00054439 0 -8.18892e-05)
(-0.000545231 0 -4.90843e-05)
(-0.000557601 0 3.43758e-05)
(-0.000595309 0 0.000153371)
(-0.000642842 0 0.000218394)
(-0.000696626 0 0.000298075)
(-0.000781782 0 0.000334559)
(-0.000882171 0 0.000334327)
(-0.00102363 0 0.000358528)
(-0.00115324 0 0.000404274)
(-0.00121093 0 0.000415142)
(-0.0012212 0 0.000402848)
(-0.00122486 0 0.00030192)
(-0.00121033 0 0.000161901)
(-0.00116561 0 7.0459e-05)
(-0.00114421 0 6.76233e-05)
(-0.00116136 0 2.31201e-05)
(-0.00119825 0 -1.08485e-05)
(-0.00120364 0 -1.39662e-05)
(-0.0011854 0 -5.03945e-05)
(-0.0011743 0 -6.38627e-05)
(-0.00116369 0 -8.97293e-05)
(-0.00115691 0 -0.000109628)
(-0.00116094 0 -0.000114289)
(-0.00112796 0 -0.000130479)
(-0.00104113 0 -0.000174607)
(-0.000967425 0 -0.000173102)
(-0.000912668 0 -0.000174879)
(-0.000872599 0 -0.000212245)
(-0.000754169 0 -0.000419933)
(-0.000554613 0 -0.000512679)
(-0.000546658 0 -0.000251083)
(-0.000481139 0 -0.000158222)
(-0.000339789 0 -0.000253283)
(-0.00028582 0 -0.000203067)
(-0.000244145 0 -0.000195225)
(-0.000260128 0 -0.000156447)
(-0.00025148 0 -0.000158323)
(-0.000273938 0 -0.000144652)
(-0.000305065 0 -0.000135433)
(-0.000287128 0 -0.000190485)
(-0.000273517 0 -0.000233597)
(-0.000250949 0 -0.000283825)
(-0.000152712 0 -0.000363283)
(-9.02577e-05 0 -0.000411908)
(2.86439e-05 0 -0.00038334)
(0.00017203 0 -0.000328953)
(0.00027388 0 -0.000244097)
(0.000313942 0 -0.000200167)
(0.00039163 0 -0.000122114)
(0.000409941 0 -0.000103128)
(0.000430465 0 -8.61455e-05)
(0.000460371 0 -0.000101183)
(0.000527717 0 -7.78277e-05)
(0.000553023 0 8.44019e-05)
(0.000543865 0 8.51074e-05)
(0.000515213 0 0.00018352)
(0.00051207 0 0.000223761)
(0.000502787 0 0.000278711)
(0.0004268 0 0.000318358)
(0.000383801 0 0.000342877)
(-0.000126085 0 0.000379893)
(1.19195e-05 0 0.000613811)
(-3.10418e-13 0 1.4735e-12)
(-1.21102e-12 0 4.65341e-13)
(-4.41983e-14 0 3.75031e-13)
(-1.29873e-13 0 2.81661e-13)
(-1.86793e-13 0 1.91372e-13)
(-2.17391e-13 0 1.11684e-13)
(-2.26495e-13 0 4.56534e-14)
(-2.19218e-13 0 -7.13154e-15)
(-1.9991e-13 0 -4.79324e-14)
(-1.71991e-13 0 -7.83236e-14)
(-1.3817e-13 0 -9.98167e-14)
(-1.00662e-13 0 -1.13757e-13)
(-6.12922e-14 0 -1.21322e-13)
(-2.15647e-14 0 -1.23535e-13)
(1.72587e-14 0 -1.2129e-13)
(5.41173e-14 0 -1.15386e-13)
(8.81558e-14 0 -1.06566e-13)
(1.18746e-13 0 -9.55362e-14)
(1.4549e-13 0 -8.29642e-14)
(1.68182e-13 0 -6.94533e-14)
(1.86757e-13 0 -5.55173e-14)
(2.01233e-13 0 -4.15649e-14)
(2.11681e-13 0 -2.79005e-14)
(2.18211e-13 0 -1.47391e-14)
(2.20979e-13 0 -2.22922e-15)
(2.20184e-13 0 9.52654e-15)
(2.16069e-13 0 2.04539e-14)
(2.08918e-13 0 3.04969e-14)
(1.9904e-13 0 3.96147e-14)
(1.8675e-13 0 4.7782e-14)
(1.72358e-13 0 5.4992e-14)
(1.56155e-13 0 6.1257e-14)
(1.38404e-13 0 6.66058e-14)
(1.19349e-13 0 7.10787e-14)
(9.92165e-14 0 7.47211e-14)
(7.82211e-14 0 7.75771e-14)
(5.65701e-14 0 7.96846e-14)
(3.4462e-14 0 8.10694e-14)
(1.16589e-14 0 8.17401e-14)
(8.84993e-05 0 0.000293818)
(-0.000115601 0 0.000323912)
(-0.000174623 0 0.000415954)
(-0.000272851 0 0.000449402)
(-0.000348426 0 0.000396086)
(-0.00046952 0 0.000258323)
(-0.000533316 0 0.000181215)
(-0.000568128 0 0.000107985)
(-0.000636279 0 -2.41273e-06)
(-0.000662306 0 2.55121e-05)
(-0.000668114 0 -3.37812e-05)
(-0.000694168 0 -6.07815e-05)
(-0.000735367 0 -6.96786e-05)
(-0.000745477 0 -8.45517e-05)
(-0.000743163 0 -0.000105954)
(-0.000733208 0 -0.000140923)
(-0.000730779 0 -0.000123137)
(-0.000713591 0 -9.93273e-05)
(-0.000695341 0 -9.76813e-06)
(-0.000679781 0 -7.52538e-07)
(-0.000706799 0 2.94916e-05)
(-0.000808343 0 0.000107691)
(-0.000866988 0 0.000200233)
(-0.000892464 0 0.000330391)
(-0.000949477 0 0.0004302)
(-0.00104221 0 0.000452995)
(-0.00113509 0 0.000420013)
(-0.00117748 0 0.000431891)
(-0.00118716 0 0.000439345)
(-0.00118018 0 0.000400146)
(-0.00114882 0 0.000342228)
(-0.00113593 0 0.00028036)
(-0.00113973 0 0.000141129)
(-0.00112166 0 7.08794e-05)
(-0.00111469 0 6.74204e-05)
(-0.00113438 0 -3.11106e-05)
(-0.00116645 0 -4.98727e-05)
(-0.00118788 0 -1.63589e-05)
(-0.00119464 0 -3.47679e-05)
(-0.00116587 0 -0.000123432)
(-0.00113549 0 -0.000121326)
(-0.00112374 0 -0.000136594)
(-0.0011234 0 -0.000154478)
(-0.0010835 0 -0.000235236)
(-0.000993268 0 -0.000270837)
(-0.000904875 0 -0.000327093)
(-0.000864332 0 -0.000360049)
(-0.000847048 0 -0.000400868)
(-0.000673755 0 -0.000571668)
(-0.000585038 0 -0.000409712)
(-0.000541443 0 -0.000211775)
(-0.000236074 0 -0.000436281)
(-0.000269083 0 -0.000215826)
(-0.000202186 0 -0.000202342)
(-0.000228436 0 -0.000158037)
(-0.00023865 0 -0.00014475)
(-0.000308921 0 -0.00010632)
(-0.000337672 0 -0.000111523)
(-0.000325762 0 -0.000196839)
(-0.000307095 0 -0.00027024)
(-0.000242393 0 -0.00036144)
(-0.000222969 0 -0.000403213)
(-0.000216773 0 -0.000426348)
(-0.000149839 0 -0.00047525)
(-0.000105595 0 -0.000487871)
(-1.14747e-06 0 -0.000410193)
(0.00013272 0 -0.000291765)
(0.000220447 0 -0.000161265)
(0.000244537 0 -0.000143297)
(0.000294471 0 -0.000113977)
(0.00034677 0 -0.000146595)
(0.000420934 0 -9.03808e-06)
(0.000415453 0 4.25803e-05)
(0.000393297 0 0.000137507)
(0.000408526 0 0.000162528)
(0.000465577 0 0.000211833)
(0.000354641 0 0.000417389)
(0.000314961 0 0.00042778)
(0.000338171 0 0.000445)
(-0.000315142 0 0.000451071)
(1.22279e-05 0 0.000796562)
(-4.81804e-13 0 1.65867e-12)
(-1.4151e-12 0 5.22293e-13)
(-1.55226e-13 0 4.71523e-13)
(-2.35667e-13 0 3.50926e-13)
(-2.84651e-13 0 2.27405e-13)
(-3.00959e-13 0 1.21544e-13)
(-2.94208e-13 0 3.66386e-14)
(-2.72117e-13 0 -2.94583e-14)
(-2.39854e-13 0 -7.95249e-14)
(-2.00875e-13 0 -1.16145e-13)
(-1.57684e-13 0 -1.41474e-13)
(-1.12269e-13 0 -1.57296e-13)
(-6.62583e-14 0 -1.65122e-13)
(-2.0994e-14 0 -1.66267e-13)
(2.23925e-14 0 -1.6188e-13)
(6.29326e-14 0 -1.52992e-13)
(9.98326e-14 0 -1.40545e-13)
(1.32515e-13 0 -1.2542e-13)
(1.6064e-13 0 -1.08436e-13)
(1.84088e-13 0 -9.03377e-14)
(2.02897e-13 0 -7.17669e-14)
(2.17199e-13 0 -5.32466e-14)
(2.2717e-13 0 -3.51762e-14)
(2.33011e-13 0 -1.78447e-14)
(2.34942e-13 0 -1.45079e-15)
(2.33208e-13 0 1.38727e-14)
(2.28084e-13 0 2.80386e-14)
(2.19875e-13 0 4.09906e-14)
(2.08907e-13 0 5.26954e-14)
(1.95515e-13 0 6.31399e-14)
(1.80031e-13 0 7.23314e-14)
(1.62761e-13 0 8.02976e-14)
(1.43986e-13 0 8.70842e-14)
(1.23957e-13 0 9.27485e-14)
(1.02903e-13 0 9.73528e-14)
(8.10336e-14 0 1.00956e-13)
(5.85453e-14 0 1.03609e-13)
(3.56233e-14 0 1.05346e-13)
(1.20381e-14 0 1.0619e-13)
(-0.000102185 0 0.000348901)
(-0.000135568 0 0.000423521)
(-0.000336671 0 0.000445911)
(-0.000353468 0 0.00047234)
(-0.000361513 0 0.000426542)
(-0.00045206 0 0.000315469)
(-0.000520836 0 0.000242982)
(-0.000548847 0 0.00018655)
(-0.000669651 0 2.29462e-05)
(-0.000709184 0 5.27969e-05)
(-0.000741405 0 1.94137e-05)
(-0.0007937 0 -4.70527e-05)
(-0.000833289 0 -2.21611e-05)
(-0.000847691 0 -7.26884e-05)
(-0.000851504 0 -0.000111556)
(-0.000861304 0 -0.000139256)
(-0.000871638 0 -0.000177308)
(-0.000882846 0 -0.000162482)
(-0.000893916 0 -0.000138098)
(-0.00091319 0 -7.49459e-05)
(-0.000917851 0 0.000201675)
(-0.000961017 0 0.000343376)
(-0.00106897 0 0.00030214)
(-0.00110478 0 0.00034615)
(-0.00106957 0 0.000548591)
(-0.00114067 0 0.000532581)
(-0.00119675 0 0.000464783)
(-0.00118713 0 0.000455362)
(-0.00116397 0 0.000375773)
(-0.00112461 0 0.000314309)
(-0.0010893 0 0.000242843)
(-0.0010768 0 0.000199198)
(-0.00110235 0 0.000124576)
(-0.00112363 0 9.95437e-05)
(-0.00112571 0 4.11804e-05)
(-0.00112083 0 -3.99595e-06)
(-0.00112417 0 -7.27618e-06)
(-0.00114336 0 -1.73163e-05)
(-0.00114868 0 -3.89671e-05)
(-0.0011313 0 -0.000105108)
(-0.00108111 0 -0.000187087)
(-0.00105815 0 -0.00019315)
(-0.00105096 0 -0.000214952)
(-0.00105819 0 -0.000224549)
(-0.00101199 0 -0.000293453)
(-0.000924621 0 -0.000345646)
(-0.000872331 0 -0.000405762)
(-0.000813263 0 -0.000518028)
(-0.000707371 0 -0.000605974)
(-0.000628843 0 -0.000571994)
(-0.000541369 0 -0.000545293)
(-0.000258408 0 -0.000571752)
(-0.000272496 0 -0.000292833)
(-0.000165792 0 -0.00020516)
(-0.000199515 0 -0.000126159)
(-0.000244022 0 -8.38236e-05)
(-0.000314214 0 -5.33269e-05)
(-0.000316041 0 -0.000133787)
(-0.000335674 0 -0.000210707)
(-0.000331544 0 -0.000303104)
(-0.00033382 0 -0.000367361)
(-0.000301495 0 -0.000434409)
(-0.000284439 0 -0.000467557)
(-0.000315459 0 -0.000473197)
(-0.000325019 0 -0.00047729)
(-0.000274661 0 -0.000400953)
(-0.000144575 0 -0.000361399)
(4.35973e-05 0 -0.000273406)
(0.000142515 0 -0.000191738)
(0.000203255 0 -0.000174396)
(0.000243995 0 -0.000183401)
(0.000310225 0 -8.21444e-05)
(0.000317875 0 6.54644e-05)
(0.000348201 0 3.90772e-05)
(0.000393916 0 0.000117586)
(0.00038825 0 0.000272835)
(0.000431026 0 0.000297008)
(0.000364409 0 0.000405605)
(0.000375077 0 0.000486226)
(-8.48565e-05 0 0.000543187)
(1.47198e-05 0 0.000930405)
(-7.22061e-13 0 2.17938e-12)
(-1.10398e-12 0 7.82003e-13)
(-2.14521e-13 0 6.37757e-13)
(-3.7301e-13 0 4.23107e-13)
(-4.15388e-13 0 2.45991e-13)
(-4.07848e-13 0 1.10854e-13)
(-3.77497e-13 0 8.947e-15)
(-3.35381e-13 0 -6.76642e-14)
(-2.86597e-13 0 -1.24412e-13)
(-2.3394e-13 0 -1.65105e-13)
(-1.7932e-13 0 -1.92497e-13)
(-1.2431e-13 0 -2.08712e-13)
(-7.02634e-14 0 -2.15514e-13)
(-1.83227e-14 0 -2.14442e-13)
(3.05334e-14 0 -2.06871e-13)
(7.54524e-14 0 -1.94045e-13)
(1.15728e-13 0 -1.77104e-13)
(1.50855e-13 0 -1.57107e-13)
(1.80572e-13 0 -1.35027e-13)
(2.04851e-13 0 -1.11748e-13)
(2.23848e-13 0 -8.80402e-14)
(2.37824e-13 0 -6.4538e-14)
(2.47082e-13 0 -4.17345e-14)
(2.51937e-13 0 -1.99879e-14)
(2.52696e-13 0 4.58733e-16)
(2.49673e-13 0 1.94517e-14)
(2.43187e-13 0 3.69019e-14)
(2.33575e-13 0 5.27647e-14)
(2.21189e-13 0 6.70264e-14)
(2.06386e-13 0 7.9697e-14)
(1.89516e-13 0 9.08078e-14)
(1.70907e-13 0 1.0041e-13)
(1.50855e-13 0 1.0857e-13)
(1.29618e-13 0 1.15367e-13)
(1.07424e-13 0 1.20883e-13)
(8.4477e-14 0 1.25192e-13)
(6.096e-14 0 1.2836e-13)
(3.70432e-14 0 1.30434e-13)
(1.25027e-14 0 1.31443e-13)
(-0.000345467 0 0.000433765)
(-3.91453e-05 0 0.000551964)
(-0.000253673 0 0.000599184)
(-0.000267894 0 0.000605767)
(-0.000522987 0 0.000386963)
(-0.000435114 0 0.00040482)
(-0.000516903 0 0.000297152)
(-0.000627196 0 9.59538e-05)
(-0.000670389 0 0.000102279)
(-0.000706547 0 0.000145175)
(-0.000775748 0 0.000119058)
(-0.000854256 0 7.35094e-06)
(-0.000883123 0 1.60892e-05)
(-0.000906147 0 -8.28173e-06)
(-0.00093231 0 -0.000109163)
(-0.000960699 0 -0.00010319)
(-0.000986273 0 -0.000144347)
(-0.0010202 0 -0.000102077)
(-0.0010763 0 2.77449e-05)
(-0.00113985 0 4.73402e-05)
(-0.00116428 0 9.44502e-05)
(-0.00113937 0 0.000347327)
(-0.00118382 0 0.000441063)
(-0.00123505 0 0.000406857)
(-0.00121052 0 0.000480168)
(-0.00116633 0 0.000582177)
(-0.00117616 0 0.000515654)
(-0.00118821 0 0.000385979)
(-0.00114321 0 0.000377894)
(-0.00112202 0 0.00030739)
(-0.0011001 0 0.000272473)
(-0.00110053 0 0.000194014)
(-0.00110143 0 0.000156723)
(-0.00111797 0 8.11224e-05)
(-0.00112929 0 6.93847e-05)
(-0.0011221 0 -8.03805e-06)
(-0.00108454 0 -3.70074e-05)
(-0.00107219 0 -2.8655e-05)
(-0.00104914 0 -0.000122215)
(-0.00102002 0 -0.000157832)
(-0.000993054 0 -0.000179991)
(-0.000968033 0 -0.000189352)
(-0.000958953 0 -0.000207287)
(-0.000947814 0 -0.00028714)
(-0.000940136 0 -0.000321245)
(-0.000825335 0 -0.000499111)
(-0.000807828 0 -0.000480974)
(-0.000749397 0 -0.000570322)
(-0.000682352 0 -0.00064005)
(-0.000614788 0 -0.000648491)
(-0.000580824 0 -0.0006248)
(-0.000325104 0 -0.000644433)
(-0.000345656 0 -0.000334155)
(-0.000142963 0 -0.000197464)
(-0.000114551 0 -7.52438e-05)
(-0.000194199 0 -2.74465e-05)
(-0.000272416 0 -4.60759e-05)
(-0.000273529 0 -0.000157674)
(-0.000371701 0 -0.000166694)
(-0.000352725 0 -0.000309758)
(-0.000373919 0 -0.000365805)
(-0.000351499 0 -0.000440132)
(-0.000380979 0 -0.000461126)
(-0.000379414 0 -0.000488344)
(-0.000334415 0 -0.000520464)
(-0.000378444 0 -0.000448326)
(-0.000333194 0 -0.000448078)
(-0.000168517 0 -0.000466519)
(-7.62777e-05 0 -0.000379477)
(8.16023e-05 0 -0.00031784)
(0.000154548 0 -0.000239775)
(0.000222073 0 -0.000122704)
(0.000262101 0 -3.87466e-05)
(0.000305979 0 5.7046e-05)
(0.000351406 0 0.000155094)
(0.000253019 0 0.000361704)
(0.000212872 0 0.000462585)
(0.000191559 0 0.000526166)
(0.000260377 0 0.000566416)
(-7.9033e-05 0 0.000561478)
(1.86467e-05 0 0.00106317)
(1.32085e-12 0 1.01588e-11)
(-9.18945e-13 0 2.18314e-12)
(-5.13081e-13 0 8.7421e-13)
(-6.26462e-13 0 4.57731e-13)
(-5.96174e-13 0 2.2286e-13)
(-5.37749e-13 0 6.73036e-14)
(-4.72726e-13 0 -4.38363e-14)
(-4.05476e-13 0 -1.25455e-13)
(-3.37295e-13 0 -1.85054e-13)
(-2.6896e-13 0 -2.27072e-13)
(-2.01291e-13 0 -2.54441e-13)
(-1.35286e-13 0 -2.69355e-13)
(-7.19882e-14 0 -2.73664e-13)
(-1.23506e-14 0 -2.69038e-13)
(4.27901e-14 0 -2.57033e-13)
(9.26991e-14 0 -2.39101e-13)
(1.36771e-13 0 -2.1659e-13)
(1.74592e-13 0 -1.90752e-13)
(2.05999e-13 0 -1.6273e-13)
(2.31075e-13 0 -1.33554e-13)
(2.50107e-13 0 -1.04119e-13)
(2.63504e-13 0 -7.5163e-14)
(2.7172e-13 0 -4.72645e-14)
(2.75204e-13 0 -2.08402e-14)
(2.74381e-13 0 3.83401e-15)
(2.69651e-13 0 2.65962e-14)
(2.61397e-13 0 4.73685e-14)
(2.5e-13 0 6.61317e-14)
(2.35839e-13 0 8.29049e-14)
(2.19297e-13 0 9.77339e-14)
(2.00743e-13 0 1.10684e-13)
(1.80523e-13 0 1.21839e-13)
(1.58943e-13 0 1.31293e-13)
(1.3627e-13 0 1.3915e-13)
(1.12729e-13 0 1.45514e-13)
(8.85115e-14 0 1.50478e-13)
(6.37868e-14 0 1.54123e-13)
(3.87064e-14 0 1.56507e-13)
(1.30477e-14 0 1.57671e-13)
(0.000309931 0 0.000536464)
(-0.000211831 0 0.00061681)
(-0.000227063 0 0.000712242)
(-0.000296431 0 0.000655308)
(-0.000318813 0 0.000572375)
(-0.000420258 0 0.000449067)
(-0.000452541 0 0.000402687)
(-0.000589652 0 0.000271175)
(-0.000650384 0 0.000184121)
(-0.000699996 0 0.000216182)
(-0.000814688 0 0.000115637)
(-0.000878602 0 6.00281e-05)
(-0.000907516 0 4.89451e-05)
(-0.000950718 0 -5.17658e-05)
(-0.00098976 0 -8.2269e-05)
(-0.00101303 0 -0.000102756)
(-0.0010382 0 -0.000109899)
(-0.00106661 0 -3.65815e-05)
(-0.00109591 0 2.12202e-05)
(-0.00117924 0 0.000125525)
(-0.00124298 0 0.00021317)
(-0.00124192 0 0.000265662)
(-0.00121941 0 0.000315066)
(-0.00121192 0 0.000431769)
(-0.00121411 0 0.000455482)
(-0.00116534 0 0.000541297)
(-0.00114494 0 0.000497041)
(-0.00114813 0 0.000378929)
(-0.00112687 0 0.000363031)
(-0.00113223 0 0.000265797)
(-0.00110032 0 0.000252039)
(-0.00108188 0 0.000220153)
(-0.00108311 0 0.000134045)
(-0.00108291 0 8.44221e-05)
(-0.00108568 0 4.68654e-05)
(-0.00107478 0 -4.63593e-06)
(-0.000986026 0 -9.03566e-05)
(-0.000933641 0 -6.22592e-05)
(-0.000922382 0 -6.75427e-05)
(-0.000923712 0 -0.000128179)
(-0.000882686 0 -0.000238386)
(-0.00083996 0 -0.000241485)
(-0.000831798 0 -0.00023507)
(-0.000828844 0 -0.000290458)
(-0.000824794 0 -0.00033642)
(-0.000735214 0 -0.000516741)
(-0.000716871 0 -0.000555594)
(-0.000647667 0 -0.00063954)
(-0.000632222 0 -0.000650204)
(-0.000615851 0 -0.000643399)
(-0.000520858 0 -0.000697719)
(-0.00031273 0 -0.000728698)
(-0.000142986 0 -0.000621152)
(-0.000112364 0 -0.000335981)
(-4.3008e-05 0 7.98067e-06)
(-0.000149129 0 8.78999e-05)
(-0.000258409 0 7.54983e-05)
(-0.000270607 0 -0.00012406)
(-0.00040587 0 -7.61144e-05)
(-0.000341543 0 -0.00033206)
(-0.000387688 0 -0.000360048)
(-0.000381904 0 -0.000430048)
(-0.000411054 0 -0.000457395)
(-0.000414306 0 -0.000488293)
(-0.000418175 0 -0.00049627)
(-0.000409473 0 -0.00049188)
(-0.000302728 0 -0.000544588)
(-0.000282641 0 -0.000505387)
(-0.000172684 0 -0.000497915)
(2.03444e-06 0 -0.000449533)
(6.54422e-05 0 -0.000330116)
(0.000162991 0 -0.000165784)
(0.000207886 0 -1.48568e-05)
(0.000211434 0 6.35898e-05)
(0.000228285 0 0.000149882)
(0.000284336 0 0.00024815)
(0.000363605 0 0.000299979)
(0.000144916 0 0.000525197)
(0.000227097 0 0.000557698)
(-8.24726e-05 0 0.000550378)
(5.70028e-05 0 0.00110104)
(8.17549e-07 0 1.8084e-06)
(-3.63806e-12 0 2.26463e-12)
(-1.93877e-12 0 5.67715e-13)
(-1.02341e-12 0 3.10806e-13)
(-8.05152e-13 0 1.20726e-13)
(-6.74346e-13 0 -2.03551e-14)
(-5.70256e-13 0 -1.25929e-13)
(-4.76599e-13 0 -2.04943e-13)
(-3.88214e-13 0 -2.62909e-13)
(-3.03327e-13 0 -3.03307e-13)
(-2.21604e-13 0 -3.28491e-13)
(-1.43533e-13 0 -3.40331e-13)
(-6.99458e-14 0 -3.40554e-13)
(-1.69222e-15 0 -3.30872e-13)
(6.04705e-14 0 -3.12993e-13)
(1.15895e-13 0 -2.88582e-13)
(1.64077e-13 0 -2.59226e-13)
(2.04716e-13 0 -2.26399e-13)
(2.37769e-13 0 -1.9144e-13)
(2.63463e-13 0 -1.55534e-13)
(2.8224e-13 0 -1.19699e-13)
(2.94678e-13 0 -8.47676e-14)
(3.01405e-13 0 -5.13852e-14)
(3.03035e-13 0 -2.00105e-14)
(3.00133e-13 0 9.06452e-15)
(2.93207e-13 0 3.56856e-14)
(2.82723e-13 0 5.98024e-14)
(2.69112e-13 0 8.14363e-14)
(2.52791e-13 0 1.00654e-13)
(2.34165e-13 0 1.17551e-13)
(2.13621e-13 0 1.32239e-13)
(1.91516e-13 0 1.44841e-13)
(1.68166e-13 0 1.55488e-13)
(1.43839e-13 0 1.64313e-13)
(1.18752e-13 0 1.71444e-13)
(9.30862e-14 0 1.76997e-13)
(6.6989e-14 0 1.81068e-13)
(4.05913e-14 0 1.8373e-13)
(1.36664e-14 0 1.85031e-13)
(-7.36646e-05 0 0.000621104)
(-0.000128798 0 0.00072498)
(-3.89232e-05 0 0.000790571)
(-0.000157462 0 0.000724348)
(-0.000256399 0 0.0006136)
(-0.000338295 0 0.000529092)
(-0.000401842 0 0.000470942)
(-0.00052673 0 0.000359046)
(-0.000603392 0 0.000282494)
(-0.000631191 0 0.000321761)
(-0.000770235 0 0.000199488)
(-0.00083761 0 0.000157268)
(-0.000900186 0 5.87685e-05)
(-0.000950963 0 -2.16768e-05)
(-0.000985478 0 -1.9909e-05)
(-0.00102863 0 -4.81218e-05)
(-0.00108099 0 -8.51772e-05)
(-0.00112486 0 -1.79071e-05)
(-0.00115637 0 3.03915e-05)
(-0.00117701 0 6.3201e-05)
(-0.00118805 0 0.000250992)
(-0.00120066 0 0.000306415)
(-0.00119582 0 0.000337373)
(-0.00118022 0 0.000387082)
(-0.00117641 0 0.000430238)
(-0.00115215 0 0.000462103)
(-0.00108198 0 0.000489209)
(-0.00108253 0 0.000385723)
(-0.00108151 0 0.000352111)
(-0.00109545 0 0.000315601)
(-0.00108122 0 0.000228901)
(-0.00102158 0 0.000193389)
(-0.00099676 0 0.000151983)
(-0.000970813 0 7.08944e-05)
(-0.000924478 0 5.13682e-05)
(-0.000905417 0 -1.08528e-05)
(-0.000869725 0 -0.000134073)
(-0.000823633 0 -0.000122803)
(-0.000804157 0 -0.00013573)
(-0.000799456 0 -0.000160478)
(-0.000760729 0 -0.000224441)
(-0.000719491 0 -0.00024748)
(-0.000703477 0 -0.000254596)
(-0.000715546 0 -0.000257679)
(-0.000673952 0 -0.000415477)
(-0.000639441 0 -0.000537264)
(-0.000691003 0 -0.000545166)
(-0.00056683 0 -0.000700961)
(-0.000521061 0 -0.000754949)
(-0.000367187 0 -0.000851295)
(-0.000174991 0 -0.000911518)
(-0.000341247 0 -0.000763033)
(-2.41979e-05 0 -0.000740916)
(-0.000114974 0 -0.000453346)
(-8.41249e-06 0 2.42854e-05)
(1.72661e-05 0 0.000172237)
(-0.000189193 0 0.000210648)