0.010101 	-1.69815e-23 	2.01282e-26 	-5.39472e-25
0.020202 	-7.89373e-24 	5.24689e-26 	1.08703e-24
