/*--------------------------------*- C++ -*----------------------------------*\
  =========                 |
  \\      /  F ield         | OpenFOAM: The Open Source CFD Toolbox
   \\    /   O peration     | Website:  https://openfoam.org
    \\  /    A nd           | Version:  6
     \\/     M anipulation  |
\*---------------------------------------------------------------------------*/
FoamFile
{
    version     2.0;
    format      ascii;
    class       surfaceScalarField;
    location    "900";
    object      phi;
}
// * * * * * * * * * * * * * * * * * * * * * * * * * * * * * * * * * * * * * //

dimensions      [0 3 -1 0 0 0 0];

internalField   nonuniform List<scalar> 
9440
(
-9.10213e-11
9.10213e-11
-2.06245e-10
1.15223e-10
-4.57025e-10
2.5078e-10
-1.09278e-09
6.35755e-10
-1.41019e-09
3.17408e-10
-1.81691e-09
4.06722e-10
-1.97885e-09
1.61936e-10
-2.27681e-09
2.97964e-10
-2.35814e-09
8.13225e-11
-2.71753e-09
3.59398e-10
-2.86093e-09
1.43396e-10
-3.19051e-09
3.29583e-10
-3.28315e-09
9.26361e-11
-3.43142e-09
1.48271e-10
-3.49071e-09
5.92859e-11
-3.47135e-09
-1.93613e-11
-3.37803e-09
-9.33153e-11
-3.30717e-09
-7.08645e-11
-3.22007e-09
-8.70999e-11
-3.1126e-09
-1.07467e-10
-3.01602e-09
-9.65903e-11
-2.93321e-09
-8.28074e-11
-2.88446e-09
-4.87529e-11
-2.88906e-09
4.59898e-12
-2.82409e-09
-6.49646e-11
-2.7272e-09
-9.68934e-11
-2.59024e-09
-1.36954e-10
-2.45367e-09
-1.36574e-10
-2.18438e-09
-2.69291e-10
-2.18776e-09
3.38116e-12
-1.90518e-09
-2.82575e-10
-1.71151e-09
-1.93678e-10
-1.55108e-09
-1.60427e-10
-1.10874e-09
-4.42338e-10
-7.87626e-10
-3.21113e-10
-6.55357e-10
-1.32269e-10
-4.38753e-10
-2.16603e-10
-2.13623e-10
-2.2513e-10
-1.82744e-10
-3.08792e-11
-1.98435e-10
1.56912e-11
-2.58221e-10
5.97868e-11
-3.71287e-10
1.13066e-10
-4.50012e-10
7.87253e-11
-5.40988e-10
9.09757e-11
-6.32453e-10
9.14654e-11
-7.91963e-10
1.59511e-10
-1.00455e-09
2.12589e-10
-1.16015e-09
1.556e-10
-1.28792e-09
1.27762e-10
-1.40276e-09
1.14847e-10
-1.48856e-09
8.57984e-11
-1.57713e-09
8.85744e-11
-1.637e-09
5.98642e-11
-1.62318e-09
-1.38162e-11
-1.59826e-09
-2.49281e-11
-1.37011e-09
-2.2815e-10
-1.21945e-09
-1.50654e-10
-9.37884e-10
-2.81569e-10
-7.0271e-10
-2.35174e-10
-8.67794e-10
1.65083e-10
-3.65667e-10
-5.02128e-10
-1.20279e-10
-2.45389e-10
2.10064e-10
-3.30343e-10
2.81601e-10
-7.15384e-11
4.6381e-10
-1.8221e-10
3.52762e-10
1.11046e-10
6.79788e-10
-3.27027e-10
6.72382e-10
7.40379e-12
5.34288e-10
1.38093e-10
1.60701e-10
3.73585e-10
-3.05057e-10
4.65755e-10
-6.28597e-10
3.23538e-10
-8.62661e-10
2.34062e-10
-9.56318e-10
9.3654e-11
-9.79725e-10
2.34051e-11
-1.01382e-09
3.40951e-11
-1.02592e-09
1.20935e-11
-8.73071e-10
-1.52852e-10
-5.1122e-10
-3.61854e-10
6.77045e-16
-5.11223e-10
-2.82586e-18
9.27192e-20
-2.7904e-18
-3.54678e-20
-2.66631e-18
-1.26506e-19
-2.49457e-18
-1.75046e-19
-2.29306e-18
-2.05042e-19
-2.06868e-18
-2.27943e-19
-1.8251e-18
-2.4715e-19
-1.56581e-18
-2.62863e-19
-1.29494e-18
-2.74418e-19
-1.01723e-18
-2.81175e-19
-7.37796e-19
-2.82789e-19
-4.6175e-19
-2.79237e-19
-1.93964e-19
-2.70773e-19
6.1151e-20
-2.57862e-19
2.9978e-19
-2.41113e-19
5.1879e-19
-2.21219e-19
7.15761e-19
-1.98908e-19
8.8897e-19
-1.74897e-19
1.03736e-18
-1.49863e-19
1.16047e-18
-1.24415e-19
1.25839e-18
-9.90856e-20
1.33163e-18
-7.43208e-20
1.3811e-18
-5.04817e-20
1.40799e-18
-2.78484e-20
1.41369e-18
-6.62448e-21
1.39973e-18
1.30528e-20
1.36775e-18
3.1104e-20
1.3194e-18
4.74987e-20
1.25632e-18
6.22452e-20
1.18013e-18
7.53812e-20
1.09237e-18
8.69666e-20
9.94529e-19
9.70752e-20
8.87991e-19
1.05788e-19
7.74072e-19
1.13189e-19
6.54e-19
1.19359e-19
5.28932e-19
1.24372e-19
3.99958e-19
1.28293e-19
2.6812e-19
1.3117e-19
1.34439e-19
1.33021e-19
1.33786e-19
-3.4366e-10
4.34681e-10
-8.17897e-10
5.89459e-10
-1.22347e-09
6.5635e-10
-1.23527e-09
6.47551e-10
-1.58667e-09
6.68807e-10
-1.62817e-09
4.48224e-10
-1.966e-09
4.99769e-10
-2.08e-09
4.11961e-10
-2.39118e-09
3.92503e-10
-2.52159e-09
4.89804e-10
-2.78838e-09
4.10181e-10
-2.89481e-09
4.36012e-10
-3.03811e-09
2.35934e-10
-3.08851e-09
1.98671e-10
-3.14506e-09
1.1584e-10
-3.06435e-09
-1.00078e-10
-2.9872e-09
-1.70463e-10
-2.95885e-09
-9.92144e-11
-2.9103e-09
-1.35652e-10
-2.83977e-09
-1.77997e-10
-2.76208e-09
-1.74283e-10
-2.66514e-09
-1.79749e-10
-2.60122e-09
-1.12677e-10
-2.57684e-09
-1.97806e-11
-2.51514e-09
-1.26659e-10
-2.45697e-09
-1.55069e-10
-2.39719e-09
-1.96733e-10
-2.2571e-09
-2.7666e-10
-2.07436e-09
-4.52035e-10
-1.9833e-09
-8.76742e-11
-1.77532e-09
-4.90555e-10
-1.63877e-09
-3.30233e-10
-1.44308e-09
-3.56118e-10
-1.03728e-09
-8.48138e-10
-7.31578e-10
-6.26812e-10
-5.94555e-10
-2.69291e-10
-2.34417e-10
-5.7674e-10
-2.45609e-11
-4.34985e-10
3.73492e-11
-9.27887e-11
-1.48424e-11
6.78834e-11
-1.23392e-10
1.68337e-10
-2.98003e-10
2.87677e-10
-4.27846e-10
2.08569e-10
-4.98951e-10
1.62081e-10
-5.73831e-10
1.66346e-10
-7.03581e-10
2.89261e-10
-9.31178e-10
4.40187e-10
-1.11746e-09
3.41885e-10
-1.23633e-09
2.46629e-10
-1.36682e-09
2.45332e-10
-1.47931e-09
1.98288e-10
-1.55613e-09
1.65397e-10
-1.61422e-09
1.17953e-10
-1.60424e-09
-2.37961e-11
-1.53161e-09
-9.75568e-11
-1.40612e-09
-3.53644e-10
-1.30963e-09
-2.47143e-10
-1.10026e-09
-4.9094e-10
-9.4825e-10
-3.87184e-10
-7.98541e-10
1.53732e-11
-5.63764e-10
-7.36907e-10
-2.7546e-10
-5.33694e-10
-5.16671e-11
-5.54139e-10
1.38414e-10
-2.61622e-10
3.75005e-10
-4.18804e-10
4.58461e-10
2.75877e-11
6.10291e-10
-4.7886e-10
6.72193e-10
-5.45016e-11
7.35203e-10
7.50788e-11
7.5775e-10
3.51035e-10
7.8241e-10
4.4109e-10
6.19548e-10
4.86395e-10
4.29163e-10
4.24443e-10
2.06165e-10
3.16647e-10
-1.62168e-10
3.91733e-10
-5.48331e-10
4.20253e-10
-7.52795e-10
2.16552e-10
-7.60622e-10
-1.45031e-10
-3.99663e-10
-7.22819e-10
1.5187e-15
-9.10896e-10
-2.96363e-18
5.02921e-19
-2.88138e-18
-1.21444e-19
-2.71485e-18
-2.98917e-19
-2.52457e-18
-3.71436e-19
-2.31596e-18
-4.19895e-19
-2.08788e-18
-4.62338e-19
-1.84081e-18
-5.00559e-19
-1.57737e-18
-5.32599e-19
-1.30169e-18
-5.56249e-19
-1.01885e-18
-5.69978e-19
-7.34245e-19
-5.73068e-19
-4.53287e-19
-5.65526e-19
-1.81053e-19
-5.47934e-19
7.79004e-20
-5.21298e-19
3.19674e-19
-4.86907e-19
5.41102e-19
-4.46212e-19
7.39771e-19
-4.00716e-19
9.14005e-19
-3.5189e-19
1.06281e-18
-3.01107e-19
1.1858e-18
-2.49599e-19
1.28315e-18
-1.98431e-19
1.35547e-18
-1.48492e-19
1.40374e-18
-1.00497e-19
1.42921e-18
-5.49958e-20
1.43336e-18
-1.23866e-20
1.41778e-18
2.70672e-20
1.38415e-18
6.32192e-20
1.33415e-18
9.60174e-20
1.26946e-18
1.25488e-19
1.19172e-18
1.51717e-19
1.10248e-18
1.74829e-19
1.00324e-18
1.94979e-19
8.95392e-19
2.12335e-19
7.80241e-19
2.27068e-19
6.59014e-19
2.39344e-19
5.32853e-19
2.49315e-19
4.02835e-19
2.57115e-19
2.6997e-19
2.62854e-19
1.35205e-19
2.66616e-19
2.68476e-19
-2.59149e-10
6.93829e-10
-5.28528e-10
8.58837e-10
-8.05128e-10
9.3295e-10
-1.17e-09
1.01243e-09
-1.35126e-09
8.50068e-10
-1.57077e-09
6.67734e-10
-1.80021e-09
7.292e-10
-1.98446e-09
5.96215e-10
-2.20669e-09
6.14728e-10
-2.33351e-09
6.16624e-10
-2.52135e-09
5.98023e-10
-2.5972e-09
5.11861e-10
-2.72432e-09
3.63049e-10
-2.77285e-09
2.47208e-10
-2.81377e-09
1.56757e-10
-2.73638e-09
-1.77471e-10
-2.69232e-09
-2.1452e-10
-2.66584e-09
-1.25697e-10
-2.61806e-09
-1.83432e-10
-2.58665e-09
-2.09413e-10
-2.55377e-09
-2.07164e-10
-2.51619e-09
-2.17327e-10
-2.45696e-09
-1.71913e-10
-2.41543e-09
-6.13041e-11
-2.37329e-09
-1.68801e-10
-2.34105e-09
-1.87314e-10
-2.28531e-09
-2.5247e-10
-2.24902e-09
-3.12952e-10
-2.2422e-09
-4.5885e-10
-2.03624e-09
-2.93632e-10
-1.83753e-09
-6.89274e-10
-1.67285e-09
-4.94911e-10
-1.35029e-09
-6.78678e-10
-1.15072e-09
-1.04771e-09
-7.78191e-10
-9.99339e-10
-4.92421e-10
-5.55061e-10
-3.10983e-11
-1.03806e-09
1.35111e-10
-6.01194e-10
2.65429e-10
-2.23106e-10
2.41725e-10
9.1588e-11
1.19191e-10
2.90871e-10
-3.43148e-11
4.41184e-10
-2.17283e-10
3.91538e-10
-3.92089e-10
3.36887e-10
-5.92737e-10
3.66994e-10
-7.47699e-10
4.44223e-10
-8.7061e-10
5.63098e-10
-1.04349e-09
5.14764e-10
-1.21017e-09
4.13312e-10
-1.35666e-09
3.91824e-10
-1.46169e-09
3.03315e-10
-1.52586e-09
2.29564e-10
-1.56027e-09
1.52363e-10
-1.55014e-09
-3.39282e-11
-1.50196e-09
-1.45733e-10
-1.52495e-09
-3.30658e-10
-1.38828e-09
-3.83807e-10
-1.17839e-09
-7.00839e-10
-1.00778e-09
-5.57791e-10
-4.57578e-10
-5.34829e-10
-4.35182e-10
-7.59305e-10
-4.22198e-10
-5.46679e-10
-1.95171e-10
-7.81167e-10
1.29729e-10
-5.86523e-10
2.13086e-10
-5.02163e-10
4.95555e-10
-2.54883e-10
5.26531e-10
-5.09839e-10
7.23962e-10
-2.51935e-10
8.02485e-10
-3.44751e-12
9.86546e-10
1.6697e-10
9.40134e-10
4.87498e-10
9.11071e-10
5.15455e-10
8.00574e-10
5.34935e-10
6.28023e-10
4.89193e-10
4.54984e-10
5.64768e-10
4.77808e-10
3.97424e-10
3.96098e-10
2.98257e-10
3.20722e-10
-6.96586e-11
7.91887e-11
-4.81288e-10
1.48749e-15
-8.31712e-10
-3.5777e-18
-9.1641e-19
-3.05872e-18
-6.42832e-19
-2.78737e-18
-5.75251e-19
-2.57303e-18
-5.9107e-19
-2.3584e-18
-6.3994e-19
-2.12611e-18
-7.00139e-19
-1.87285e-18
-7.59369e-19
-1.60102e-18
-8.09997e-19
-1.31542e-18
-8.47348e-19
-1.02194e-18
-8.68851e-19
-7.26703e-19
-8.73507e-19
-4.35695e-19
-8.61494e-19
-1.54417e-19
-8.33872e-19
1.12291e-19
-7.9232e-19
3.60369e-19
-7.38922e-19
5.86598e-19
-6.7598e-19
7.88597e-19
-6.05856e-19
9.64787e-19
-5.30839e-19
1.11432e-18
-4.53051e-19
1.23697e-18
-3.74378e-19
1.33309e-18
-2.9644e-19
1.40347e-18
-2.20575e-19
1.44924e-18
-1.47847e-19
1.47182e-18
-7.90626e-20
1.47282e-18
-1.47955e-20
1.45394e-18
4.45863e-20
1.41695e-18
9.88888e-20
1.36362e-18
1.48062e-19
1.29569e-18
1.92168e-19
1.21483e-18
2.31357e-19
1.12263e-18
2.65837e-19
1.0206e-18
2.95856e-19
9.10125e-19
3.21678e-19
7.92517e-19
3.43573e-19
6.68985e-19
3.61798e-19
5.40653e-19
3.7659e-19
4.08574e-19
3.88157e-19
2.73732e-19
3.9667e-19
1.37065e-19
4.02265e-19
4.05042e-19
-2.8942e-10
9.83249e-10
-5.21364e-10
1.09078e-09
-7.50753e-10
1.16234e-09
-9.88585e-10
1.25026e-09
-1.21811e-09
1.07959e-09
-1.46231e-09
9.11929e-10
-1.62347e-09
8.90359e-10
-1.78469e-09
7.57432e-10
-1.92574e-09
7.55777e-10
-2.06101e-09
7.51896e-10
-2.17957e-09
7.16585e-10
-2.27753e-09
6.09819e-10
-2.37125e-09
4.56764e-10
-2.4194e-09
2.95357e-10
-2.45107e-09
1.8843e-10
-2.43128e-09
-1.97269e-10
-2.45193e-09
-1.93865e-10
-2.39884e-09
-1.78792e-10
-2.33547e-09
-2.46799e-10
-2.31864e-09
-2.26247e-10
-2.32761e-09
-1.9819e-10
-2.34922e-09
-1.95724e-10
-2.3525e-09
-1.68626e-10
-2.30668e-09
-1.0713e-10
-2.29929e-09
-1.76185e-10
-2.27705e-09
-2.09554e-10
-2.24746e-09
-2.82065e-10
-2.22402e-09
-3.36395e-10
-2.2313e-09
-4.51568e-10
-2.14675e-09
-3.7818e-10
-2.1293e-09
-7.06728e-10
-1.91446e-09
-7.09749e-10
-1.58953e-09
-1.0036e-09
-1.57748e-09
-1.05975e-09
-1.09728e-09
-1.47954e-09
-5.6413e-10
-1.08821e-09
-2.46928e-10
-1.35526e-09
3.10014e-11
-8.79123e-10
2.93561e-10
-4.85665e-10
4.5619e-10
-7.10397e-11
2.31597e-10
5.15465e-10
7.82388e-11
5.94542e-10
-1.11769e-10
5.81546e-10
-2.61408e-10
4.86527e-10
-4.28635e-10
5.34221e-10
-6.43999e-10
6.59586e-10
-8.05074e-10
7.24173e-10
-9.71453e-10
6.81143e-10
-1.12166e-09
5.6352e-10
-1.26983e-09
5.39992e-10
-1.39773e-09
4.31213e-10
-1.44918e-09
2.81015e-10
-1.49849e-09
2.01679e-10
-1.54658e-09
1.41593e-11
-1.53194e-09
-1.60372e-10
-1.49168e-09
-3.70927e-10
-1.39542e-09
-4.80068e-10
-1.31136e-09
-7.84892e-10
-1.08241e-09
-7.86742e-10
-8.53947e-10
-7.63296e-10
-6.71476e-10
-9.41777e-10
-3.44372e-10
-8.73785e-10
-2.89897e-10
-8.35644e-10
-2.69671e-10
-6.06751e-10
8.85405e-11
-8.60377e-10
5.87444e-10
-7.53789e-10
5.53353e-10
-4.75751e-10
7.23224e-10
-4.21809e-10
8.08946e-10
-8.91724e-11
9.6326e-10
1.26529e-11
9.60412e-10
4.90342e-10
1.10692e-09
3.68944e-10
1.11392e-09
5.27928e-10
9.9718e-10
6.05931e-10
8.81467e-10
6.80477e-10
7.86917e-10
4.91969e-10
4.58191e-10
6.26979e-10
4.71968e-10
-8.34407e-11
2.84076e-10
-2.93402e-10
1.40432e-15
-5.4764e-10
-3.24883e-18
-1.17747e-18
-2.99101e-18
-9.0294e-19
-2.80319e-18
-7.67846e-19
-2.6219e-18
-7.77469e-19
-2.4186e-18
-8.48494e-19
-2.18534e-18
-9.38767e-19
-1.92348e-18
-1.02668e-18
-1.63837e-18
-1.10063e-18
-1.33693e-18
-1.15433e-18
-1.02659e-18
-1.18469e-18
-7.1469e-19
-1.19082e-18
-4.08072e-19
-1.17336e-18
-1.12864e-19
-1.1341e-18
1.65689e-19
-1.0756e-18
4.23311e-19
-1.00093e-18
6.56722e-19
-9.13398e-19
8.63614e-19
-8.16338e-19
1.04258e-18
-7.12962e-19
1.19299e-18
-6.06211e-19
1.31491e-18
-4.98676e-19
1.40896e-18
-3.92553e-19
1.47619e-18
-2.8963e-19
1.51802e-18
-1.9131e-19
1.53609e-18
-9.86318e-20
1.5322e-18
-1.23137e-20
1.50824e-18
6.72041e-20
1.46612e-18
1.39715e-19
1.40773e-18
2.05202e-19
1.33488e-18
2.63796e-19
1.24931e-18
3.15736e-19
1.15265e-18
3.61336e-19
1.04642e-18
4.00956e-19
9.3202e-19
4.34976e-19
8.10742e-19
4.63773e-19
6.83777e-19
4.8771e-19
5.5222e-19
5.07113e-19
4.17087e-19
5.22271e-19
2.79328e-19
5.33423e-19
1.39841e-19
5.40753e-19
5.44387e-19
-3.87262e-10
1.37051e-09
-6.0701e-10
1.31053e-09
-7.30731e-10
1.28606e-09
-8.31238e-10
1.35076e-09
-1.00224e-09
1.2506e-09
-1.23981e-09
1.1495e-09
-1.44593e-09
1.09648e-09
-1.60706e-09
9.18554e-10
-1.64055e-09
7.89269e-10
-1.76387e-09
8.75216e-10
-1.85039e-09
8.03107e-10
-1.9038e-09
6.63229e-10
-1.98096e-09
5.33923e-10
-2.03845e-09
3.52838e-10
-2.06655e-09
2.16538e-10
-2.12748e-09
-1.36349e-10
-2.16239e-09
-1.58956e-10
-2.13429e-09
-2.06885e-10
-2.10688e-09
-2.74209e-10
-2.10078e-09
-2.3235e-10
-2.1113e-09
-1.87668e-10
-2.12261e-09
-1.84416e-10
-2.11904e-09
-1.722e-10
-2.11342e-09
-1.12753e-10
-2.14149e-09
-1.48109e-10
-2.16131e-09
-1.89735e-10
-2.22786e-09
-2.15521e-10
-2.28278e-09
-2.81469e-10
-2.24962e-09
-4.84735e-10
-2.18223e-09
-4.45568e-10
-2.16879e-09
-7.20164e-10
-1.95542e-09
-9.23117e-10
-1.79066e-09
-1.16837e-09
-1.57402e-09
-1.27639e-09
-1.25598e-09
-1.79759e-09
-1.03791e-09
-1.30628e-09
-7.84942e-10
-1.60823e-09
-3.77705e-10
-1.28636e-09
-9.23883e-11
-7.70981e-10
3.30905e-10
-4.94332e-10
3.71784e-10
4.74586e-10
2.54795e-10
7.11532e-10
1.39845e-10
6.96496e-10
-8.20637e-11
7.08436e-10
-3.15132e-10
7.6729e-10
-4.51963e-10
7.96418e-10
-5.97084e-10
8.69294e-10
-8.06797e-10
8.90856e-10
-1.04343e-09
8.00153e-10
-1.18398e-09
6.80543e-10
-1.30012e-09
5.47355e-10
-1.40303e-09
3.83919e-10
-1.50722e-09
3.05869e-10
-1.60604e-09
1.12981e-10
-1.59377e-09
-1.72642e-10
-1.51773e-09
-4.4697e-10
-1.36734e-09
-6.30458e-10
-1.34224e-09
-8.09992e-10
-1.18256e-09
-9.46422e-10
-9.56948e-10
-9.88911e-10
-7.95986e-10
-1.10274e-09
-7.03682e-10
-9.66091e-10
-5.65726e-10
-9.73601e-10
-2.39291e-10
-9.33188e-10
-3.37292e-11
-1.06594e-09
2.74553e-10
-1.06207e-09
4.40925e-10
-6.42126e-10
6.66733e-10
-6.4762e-10
8.24409e-10
-2.46853e-10
8.88081e-10
-5.10221e-11
9.88078e-10
3.90341e-10
1.07244e-09
2.84582e-10
1.12734e-09
4.73016e-10
1.07832e-09
6.54954e-10
1.04163e-09
7.17155e-10
9.51312e-10
5.82286e-10
9.33157e-10
6.4513e-10
6.47182e-10
2.0253e-10
3.14435e-10
3.93403e-11
1.31452e-15
-2.3321e-10
-2.82967e-18
-1.13804e-18
-2.85579e-18
-8.79101e-19
-2.81281e-18
-8.1539e-19
-2.69292e-18
-9.02216e-19
-2.50887e-18
-1.03755e-18
-2.27325e-18
-1.17953e-18
-1.99743e-18
-1.30777e-18
-1.69206e-18
-1.4114e-18
-1.36729e-18
-1.4846e-18
-1.03272e-18
-1.52484e-18
-6.97232e-19
-1.53189e-18
-3.68812e-19
-1.50732e-18
-5.4369e-20
-1.45395e-18
2.40358e-19
-1.37553e-18
5.10847e-19
-1.27634e-18
7.53782e-19
-1.1609e-18
9.6699e-19
-1.0337e-18
1.14933e-18
-8.98985e-19
1.30052e-18
-7.60615e-19
1.42103e-18
-6.21935e-19
1.51188e-18
-4.85742e-19
1.57451e-18
-3.54277e-19
1.6107e-18
-2.29254e-19
1.62241e-18
-1.11909e-19
1.61172e-18
-3.06326e-21
1.58075e-18
9.68212e-20
1.53161e-18
1.87572e-19
1.46632e-18
2.69251e-19
1.38682e-18
3.42095e-19
1.29491e-18
4.06472e-19
1.19227e-18
4.62832e-19
1.08044e-18
5.11673e-19
9.60818e-19
5.5351e-19
8.34678e-19
5.88849e-19
7.0318e-19
6.18165e-19
5.67378e-19
6.41891e-19
4.28239e-19
6.60401e-19
2.86657e-19
6.74006e-19
1.43476e-19
6.82941e-19
6.87369e-19
-1.25582e-10
1.49609e-09
-3.50196e-10
1.53514e-09
-5.76833e-10
1.51269e-09
-7.27065e-10
1.50099e-09
-8.702e-10
1.39373e-09
-1.00057e-09
1.27987e-09
-1.10097e-09
1.19688e-09
-1.22928e-09
1.04686e-09
-1.41903e-09
9.79012e-10
-1.46417e-09
9.2036e-10
-1.50501e-09
8.43942e-10
-1.53729e-09
6.95507e-10
-1.61581e-09
6.12442e-10
-1.608e-09
3.45026e-10
-1.68921e-09
2.97753e-10
-1.80957e-09
-1.59945e-11
-1.85045e-09
-1.18075e-10
-1.85875e-09
-1.98588e-10
-1.86688e-09
-2.6607e-10
-1.8807e-09
-2.18535e-10
-1.89195e-09
-1.76421e-10
-1.90345e-09
-1.72916e-10
-1.91661e-09
-1.5904e-10
-1.92663e-09
-1.02735e-10
-1.95622e-09
-1.18512e-10
-2.0088e-09
-1.37162e-10
-2.07177e-09
-1.52546e-10
-2.11086e-09
-2.4238e-10
-2.08354e-09
-5.12057e-10
-2.14331e-09
-3.85802e-10
-2.02132e-09
-8.42148e-10
-1.93803e-09
-1.00641e-09
-1.73231e-09
-1.37408e-09
-1.48034e-09
-1.52836e-09
-1.47962e-09
-1.79831e-09
-1.05198e-09
-1.73392e-09
-7.12321e-10
-1.94788e-09
-4.58094e-10
-1.54059e-09
-2.03124e-10
-1.02595e-09
3.33101e-11
-7.30765e-10
4.309e-10
7.69967e-11
4.39897e-10
7.02536e-10
3.82252e-10
7.54142e-10
9.61478e-11
9.94541e-10
-1.43996e-10
1.00743e-09
-3.20974e-10
9.73397e-10
-4.28552e-10
9.76871e-10
-5.55612e-10
1.01792e-09
-7.30244e-10
9.74785e-10
-9.47778e-10
8.98077e-10
-1.17681e-09
7.76387e-10
-1.351e-09
5.58112e-10
-1.49332e-09
4.48183e-10
-1.59797e-09
2.17636e-10
-1.55822e-09
-2.12397e-10
-1.54442e-09
-4.60769e-10
-1.45746e-09
-7.1742e-10
-1.35788e-09
-9.0957e-10
-1.17653e-09
-1.12778e-09
-1.02433e-09
-1.14111e-09
-9.43765e-10
-1.18331e-09
-7.09539e-10
-1.20032e-09
-5.3431e-10
-1.14883e-09
-2.5979e-10
-1.20771e-09
-6.13922e-11
-1.26434e-09
7.27295e-11
-1.1962e-09
3.67527e-10
-9.36926e-10
6.01735e-10
-8.81832e-10
8.18947e-10
-4.64068e-10
7.95038e-10
-2.71174e-11
9.31455e-10
2.53921e-10
9.69078e-10
2.46954e-10
1.00195e-09
4.40143e-10
1.03345e-09
6.23444e-10
1.01219e-09
7.38417e-10
9.38286e-10
6.56182e-10
9.17149e-10
6.66263e-10
8.05657e-10
3.14017e-10
5.73111e-10
2.71882e-10
1.17509e-15
3.39896e-10
-2.3025e-18
5.84862e-19
-2.79197e-18
-3.9183e-19
-2.89964e-18
-7.11898e-19
-2.82826e-18
-9.77986e-19
-2.65084e-18
-1.21947e-18
-2.4015e-18
-1.43353e-18
-2.10106e-18
-1.61304e-18
-1.76526e-18
-1.7522e-18
-1.40753e-18
-1.84755e-18
-1.03977e-18
-1.89799e-18
-6.72655e-19
-1.90457e-18
-3.15444e-19
-1.87018e-18
2.40509e-20
-1.7991e-18
3.39547e-19
-1.69659e-18
6.26288e-19
-1.56846e-18
8.80984e-19
-1.4207e-18
1.1017e-18
-1.25915e-18
1.2877e-18
-1.08925e-18
1.4392e-18
-9.15864e-19
1.55723e-18
-7.43167e-19
1.64334e-18
-5.7457e-19
1.69954e-18
-4.1275e-19
1.72805e-18
-2.597e-19
1.73125e-18
-1.16802e-19
1.7116e-18
1.50882e-20
1.6715e-18
1.35546e-19
1.61329e-18
2.44498e-19
1.53916e-18
3.42142e-19
1.45119e-18
4.28878e-19
1.35127e-18
5.05244e-19
1.24111e-18
5.71866e-19
1.12228e-18
6.29413e-19
9.96156e-19
6.7856e-19
8.63995e-19
7.1996e-19
7.26906e-19
7.54223e-19
5.85889e-19
7.81895e-19
4.41843e-19
8.03446e-19
2.95593e-19
8.19263e-19
1.47904e-19
8.29643e-19
8.34784e-19
-7.49506e-11
1.57104e-09
-2.05233e-10
1.66542e-09
-4.21177e-10
1.72864e-09
-6.67011e-10
1.74683e-09
-9.24853e-10
1.65157e-09
-1.03859e-09
1.3936e-09
-1.16246e-09
1.32075e-09
-1.22067e-09
1.10507e-09
-1.22655e-09
9.84894e-10
-1.19983e-09
8.93641e-10
-1.21656e-09
8.6067e-10
-1.2231e-09
7.02044e-10
-1.27709e-09
6.66426e-10
-1.33638e-09
4.04316e-10
-1.33318e-09
2.94558e-10
-1.46874e-09
1.19563e-10
-1.53467e-09
-5.21447e-11
-1.5817e-09
-1.51564e-10
-1.63348e-09
-2.14292e-10
-1.67085e-09
-1.81163e-10
-1.69182e-09
-1.55451e-10
-1.70166e-09
-1.63076e-10
-1.69774e-09
-1.62962e-10
-1.67023e-09
-1.30241e-10
-1.67771e-09
-1.11039e-10
-1.67994e-09
-1.3493e-10
-1.69942e-09
-1.33063e-10
-1.75334e-09
-1.88463e-10
-1.81417e-09
-4.51224e-10
-1.82864e-09
-3.71337e-10
-1.71577e-09
-9.55011e-10
-1.66513e-09
-1.05706e-09
-1.49053e-09
-1.54868e-09
-1.3636e-09
-1.65529e-09
-1.24009e-09
-1.92182e-09
-9.99661e-10
-1.97435e-09
-9.17219e-10
-2.03032e-09
-6.88888e-10
-1.76892e-09
-4.05195e-10
-1.30964e-09
-3.22258e-10
-8.137e-10
9.78111e-11
-3.43071e-10
4.29013e-10
3.71335e-10
4.57079e-10
7.26077e-10
3.8386e-10
1.06776e-09
1.2833e-10
1.26296e-09
-1.05098e-10
1.20683e-09
-2.67043e-10
1.13882e-09
-4.30809e-10
1.18168e-09
-6.13366e-10
1.15734e-09
-7.89331e-10
1.07404e-09
-1.00558e-09
9.92632e-10
-1.23295e-09
7.85489e-10
-1.39736e-09
6.12588e-10
-1.50065e-09
3.20928e-10
-1.53442e-09
-1.78633e-10
-1.56316e-09
-4.32029e-10
-1.44175e-09
-8.38827e-10
-1.30773e-09
-1.04359e-09
-1.23934e-09
-1.19617e-09
-1.14112e-09
-1.23932e-09
-9.99779e-10
-1.32466e-09
-9.27839e-10
-1.27226e-09
-7.97348e-10
-1.27933e-09
-5.63048e-10
-1.44201e-09
-2.51327e-10
-1.57607e-09
1.58079e-11
-1.46334e-09
3.29193e-10
-1.25032e-09
5.00843e-10
-1.05348e-09
5.98935e-10
-5.62164e-10
7.07704e-10
-1.3589e-10
8.30835e-10
1.30785e-10
9.7117e-10
1.06615e-10
9.65082e-10
4.46227e-10
8.80491e-10
7.0803e-10
8.26961e-10
7.91943e-10
8.12777e-10
6.70362e-10
7.9943e-10
6.79606e-10
6.07994e-10
5.05449e-10
3.47022e-10
5.3285e-10
9.64562e-16
6.86914e-10
-2.88035e-18
9.27081e-19
-3.11194e-18
-1.6225e-19
-3.16572e-18
-6.61661e-19
-3.06975e-18
-1.0776e-18
-2.8649e-18
-1.42802e-18
-2.58101e-18
-1.72124e-18
-2.24022e-18
-1.95784e-18
-1.86061e-18
-2.13606e-18
-1.45796e-18
-2.25473e-18
-1.04636e-18
-2.31444e-18
-6.38264e-19
-2.31785e-18
-2.44362e-19
-2.26954e-18
1.26561e-19
-2.17567e-18
4.67675e-19
-2.04342e-18
7.74051e-19
-1.88051e-18
1.04254e-18
-1.69471e-18
1.2716e-18
-1.49345e-18
1.46108e-18
-1.28355e-18
1.6119e-18
-1.071e-18
1.72582e-18
-8.60819e-19
1.80516e-18
-6.57057e-19
1.85259e-18
-4.62794e-19
1.87094e-18
-2.8024e-19
1.86314e-18
-1.10846e-19
1.83206e-18
4.45757e-20
1.78045e-18
1.85727e-19
1.71093e-18
3.12713e-19
1.6259e-18
4.25943e-19
1.52756e-18
5.26042e-19
1.41789e-18
6.13777e-19
1.29866e-18
6.89994e-19
1.17142e-18
7.55571e-19
1.03756e-18
8.11373e-19
8.98258e-19
8.58225e-19
7.54578e-19
8.96886e-19
6.0744e-19
9.2803e-19
4.5766e-19
9.52233e-19
3.05972e-19
9.69967e-19
1.53045e-19
9.8159e-19
9.87342e-19
-2.47326e-10
1.81837e-09
-4.12337e-10
1.83043e-09
-5.70242e-10
1.88654e-09
-6.54799e-10
1.83138e-09
-6.90166e-10
1.68694e-09
-7.60929e-10
1.46436e-09
-7.4063e-10
1.30045e-09
-7.65807e-10
1.13025e-09
-8.21454e-10
1.04054e-09
-9.49157e-10
1.02134e-09
-9.80837e-10
8.9235e-10
-1.04099e-09
7.62195e-10
-9.34972e-10
5.60409e-10
-1.00786e-09
4.77207e-10
-1.01766e-09
3.04348e-10
-1.09818e-09
2.00089e-10
-1.21679e-09
6.64672e-11
-1.31483e-09
-5.35238e-11
-1.41972e-09
-1.0941e-10
-1.48338e-09
-1.17503e-10
-1.51405e-09
-1.24783e-10
-1.51987e-09
-1.57252e-10
-1.48795e-09
-1.94879e-10
-1.4303e-09
-1.8789e-10
-1.38209e-09
-1.59254e-10
-1.33925e-09
-1.7777e-10
-1.30704e-09
-1.65277e-10
-1.30246e-09
-1.93041e-10
-1.42293e-09
-3.30752e-10
-1.30662e-09
-4.87648e-10
-1.3057e-09
-9.5593e-10
-1.29124e-09
-1.07152e-09
-1.20134e-09
-1.63858e-09
-1.17611e-09
-1.68053e-09
-1.11387e-09
-1.98406e-09
-9.6262e-10
-2.1256e-09
-8.28259e-10
-2.16468e-09
-6.55581e-10
-1.94159e-09
-4.55719e-10
-1.5095e-09
-2.36962e-10
-1.03246e-09
-6.75977e-11
-5.12434e-10
2.92826e-10
1.09123e-11
3.72311e-10
6.46594e-10
3.93476e-10
1.0466e-09
2.69548e-10
1.38689e-09
5.94358e-11
1.41694e-09
-1.18606e-10
1.31686e-09
-2.38497e-10
1.30157e-09
-3.00456e-10
1.2193e-09
-3.88765e-10
1.16235e-09
-6.27848e-10
1.23172e-09
-1.00145e-09
1.15909e-09
-1.21515e-09
8.26287e-10
-1.37858e-09
4.84357e-10
-1.49003e-09
-6.71825e-11
-1.53023e-09
-3.91825e-10
-1.44391e-09
-9.25152e-10
-1.30839e-09
-1.17911e-09
-1.21708e-09
-1.28749e-09
-1.12263e-09
-1.33378e-09
-1.06271e-09
-1.38457e-09
-9.52495e-10
-1.38248e-09
-7.93013e-10
-1.43881e-09
-6.50198e-10
-1.58483e-09
-5.66034e-10
-1.66023e-09
-3.61223e-10
-1.66815e-09
-6.4274e-11
-1.54727e-09
1.64662e-10
-1.28242e-09
2.38737e-10
-6.36243e-10
5.93204e-10
-4.90361e-10
7.56688e-10
-3.2703e-11
8.11058e-10
5.22417e-11
7.35942e-10
5.21339e-10
7.69629e-10
6.7434e-10
8.44014e-10
7.17554e-10
7.76502e-10
7.37871e-10
6.59656e-10
7.96448e-10
5.31543e-10
6.33559e-10
3.68583e-10
6.95806e-10
6.93504e-16
1.05549e-09
-3.42437e-18
1.8881e-18
-3.61127e-18
2.2974e-20
-3.58167e-18
-6.93934e-19
-3.42016e-18
-1.24173e-18
-3.15812e-18
-1.69263e-18
-2.81761e-18
-2.06438e-18
-2.41844e-18
-2.35982e-18
-1.97928e-18
-2.57832e-18
-1.51767e-18
-2.71978e-18
-1.04977e-18
-2.78621e-18
-5.89957e-19
-2.782e-18
-1.50489e-19
-2.71384e-18
2.58809e-19
-2.59021e-18
6.30584e-19
-2.42073e-18
9.59853e-19
-2.21547e-18
1.2438e-18
-1.98437e-18
1.4815e-18
-1.73675e-18
1.67363e-18
-1.48098e-18
1.82208e-18
-1.22429e-18
1.92959e-18
-9.72588e-19
1.99943e-18
-7.30527e-19
2.03514e-18
-5.01526e-19
2.04034e-18
-2.87923e-19
2.01857e-18
-9.1129e-20
1.97321e-18
8.81979e-20
1.90744e-18
2.49995e-19
1.82416e-18
3.94648e-19
1.726e-18
5.22866e-19
1.61529e-18
6.35578e-19
1.49411e-18
7.33843e-19
1.36424e-18
8.18783e-19
1.22723e-18
8.91523e-19
1.08441e-18
9.53155e-19
9.36918e-19
1.0047e-18
7.85721e-19
1.04708e-18
6.31643e-19
1.08112e-18
4.75394e-19
1.1075e-18
3.17595e-19
1.12679e-18
1.58797e-19
1.13941e-18
1.14566e-18
-1.43907e-10
1.96227e-09
-3.14236e-10
2.00076e-09
-4.03541e-10
1.97585e-09
-5.29697e-10
1.95754e-09
-5.80878e-10
1.73812e-09
-6.55284e-10
1.53877e-09
-7.30834e-10
1.376e-09
-8.11776e-10
1.21119e-09
-8.36869e-10
1.06563e-09
-8.88086e-10
1.07256e-09
-7.94453e-10
7.98716e-10
-8.20742e-10
7.88484e-10
-8.61552e-10
6.01217e-10
-8.62095e-10
4.7775e-10
-9.00361e-10
3.42613e-10
-9.33847e-10
2.33575e-10
-1.01789e-09
1.5051e-10
-1.12336e-09
5.19502e-11
-1.22156e-09
-1.12183e-11
-1.28709e-09
-5.1972e-11
-1.31703e-09
-9.4842e-11
-1.28863e-09
-1.85655e-10
-1.22704e-09
-2.56465e-10
-1.15106e-09
-2.63869e-10
-1.07665e-09
-2.33668e-10
-1.00736e-09
-2.47058e-10
-9.29344e-10
-2.43291e-10
-8.55761e-10
-2.66624e-10
-8.38388e-10
-3.48125e-10
-7.36048e-10
-5.89989e-10
-7.42844e-10
-9.49135e-10
-6.79446e-10
-1.13492e-09
-7.50372e-10
-1.56765e-09
-6.99422e-10
-1.73148e-09
-6.49869e-10
-2.03361e-09
-6.26523e-10
-2.14895e-09
-6.26242e-10
-2.16497e-09
-5.57913e-10
-2.00992e-09
-4.55158e-10
-1.61226e-09
-2.96317e-10
-1.1913e-09
-1.65492e-10
-6.43259e-10
1.22252e-10
-2.7683e-10
3.95298e-10
3.7355e-10
4.82373e-10
9.59523e-10
4.63432e-10
1.40583e-09
2.79583e-10
1.60079e-09
6.35777e-11
1.53286e-09
-9.30583e-11
1.45821e-09
-3.8971e-10
1.51595e-09
-7.15923e-10
1.48857e-09
-8.638e-10
1.37959e-09
-9.06731e-10
1.20202e-09
-1.00096e-09
9.20518e-10
-1.13524e-09
6.18641e-10
-1.31541e-09
1.12986e-10
-1.21719e-09
-4.90047e-10
-1.22295e-09
-9.19394e-10
-1.25872e-09
-1.14333e-09
-1.22978e-09
-1.31643e-09
-1.17549e-09
-1.38807e-09
-1.11515e-09
-1.44491e-09
-1.03019e-09
-1.46745e-09
-9.11718e-10
-1.55728e-09
-7.8974e-10
-1.70681e-09
-6.65743e-10
-1.78423e-09
-4.88398e-10
-1.8455e-09
-2.31033e-10
-1.80464e-09
1.00185e-10
-1.61365e-09
2.1161e-10
-7.47672e-10
4.12838e-10
-6.91592e-10
5.83649e-10
-2.03518e-10
5.57893e-10
7.79934e-11
6.70613e-10
4.08616e-10
7.3551e-10
6.09439e-10
6.6579e-10
7.87272e-10
5.89964e-10
8.13694e-10
5.23096e-10
8.63314e-10
3.56945e-10
7.99707e-10
2.67942e-10
7.84807e-10
3.74959e-16
1.32343e-09
-4.60468e-18
1.04065e-18
-4.32813e-18
-2.54782e-19
-4.12946e-18
-8.94203e-19
-3.87106e-18
-1.50151e-18
-3.52987e-18
-2.03506e-18
-3.11305e-18
-2.48243e-18
-2.63694e-18
-2.83729e-18
-2.12075e-18
-3.09611e-18
-1.5841e-18
-3.25841e-18
-1.04556e-18
-3.32719e-18
-5.21799e-19
-3.3088e-18
-2.68593e-20
-3.21252e-18
4.28292e-19
-3.04978e-18
8.35843e-19
-2.83324e-18
1.19095e-18
-2.57595e-18
1.49142e-18
-2.29045e-18
1.73726e-18
-1.98831e-18
1.93033e-18
-1.67966e-18
2.07378e-18
-1.37301e-18
2.17165e-18
-1.07521e-18
2.22843e-18
-7.91422e-19
2.24874e-18
-5.25289e-19
2.23713e-18
-2.7914e-19
2.19789e-18
-5.42004e-20
2.13501e-18
1.49176e-19
2.05209e-18
3.31299e-19
1.95238e-18
4.92958e-19
1.83871e-18
6.3527e-19
1.71356e-18
7.59557e-19
1.57905e-18
8.67245e-19
1.43698e-18
9.59786e-19
1.28886e-18
1.0386e-18
1.13595e-18
1.10504e-18
9.793e-19
1.16035e-18
8.19757e-19
1.20564e-18
6.58026e-19
1.24187e-18
4.94685e-19
1.26987e-18
3.30219e-19
1.29029e-18
1.6504e-19
1.30363e-18
1.31022e-18
-7.22214e-11
2.0345e-09
-2.2137e-10
2.14991e-09
-3.61104e-10
2.11558e-09
-4.32904e-10
2.02934e-09
-5.07058e-10
1.81227e-09
-6.02987e-10
1.6347e-09
-6.99999e-10
1.47301e-09
-7.9676e-10
1.30795e-09
-7.91142e-10
1.06001e-09
-7.37775e-10
1.01919e-09
-7.75199e-10
8.36139e-10
-7.22562e-10
7.35846e-10
-7.13576e-10
5.9223e-10
-7.03622e-10
4.67796e-10
-7.48812e-10
3.87804e-10
-8.13603e-10
2.98366e-10
-8.73221e-10
2.10129e-10
-9.85596e-10
1.64325e-10
-1.03982e-09
4.30067e-11
-1.08259e-09
-9.20295e-12
-1.06467e-09
-1.12766e-10
-1.00203e-09
-2.48292e-10
-9.61796e-10
-2.96698e-10
-9.23729e-10
-3.01935e-10
-8.49743e-10
-3.07654e-10
-7.65803e-10
-3.30997e-10
-6.54572e-10
-3.54522e-10
-5.27869e-10
-3.93328e-10
-4.01478e-10
-4.74515e-10
-3.78061e-10
-6.13406e-10
-4.45346e-10
-8.8185e-10
-4.44199e-10
-1.13607e-09
-5.16145e-10
-1.49571e-09
-4.92644e-10
-1.75498e-09
-5.51031e-10
-1.97523e-09
-5.6043e-10
-2.13955e-09
-5.72347e-10
-2.15305e-09
-5.66486e-10
-2.01578e-09
-5.14225e-10
-1.66452e-09
-4.30642e-10
-1.27488e-09
-2.20463e-10
-8.53437e-10
-5.67145e-11
-4.40577e-10
2.22842e-10
9.39949e-11
3.63888e-10
8.18478e-10
4.33264e-10
1.33646e-09
3.64989e-10
1.66906e-09
1.98223e-10
1.69963e-09
1.30669e-11
1.64337e-09
-8.65266e-11
1.61555e-09
-1.03225e-10
1.50526e-09
-3.10554e-10
1.58692e-09
-4.28871e-10
1.32034e-09
-6.16104e-10
1.10775e-09
-7.02098e-10
7.04634e-10
-9.16838e-10
3.27726e-10
-1.14787e-09
-2.59013e-10
-1.29399e-09
-7.73276e-10
-1.2735e-09
-1.16382e-09
-1.2413e-09
-1.34864e-09
-1.18755e-09
-1.44182e-09
-1.13707e-09
-1.49539e-09
-1.02901e-09
-1.57551e-09
-9.42062e-10
-1.64424e-09
-8.72911e-10
-1.77596e-09
-7.54749e-10
-1.9024e-09
-5.82531e-10
-2.01772e-09
-3.54938e-10
-2.03223e-09
-1.30707e-10
-1.83788e-09
1.6606e-10
-1.04444e-09
2.94476e-10
-8.20013e-10
3.18554e-10
-2.27599e-10
3.68259e-10
2.82859e-11
4.96824e-10
2.80048e-10
5.85765e-10
5.20495e-10
5.72459e-10
8.00576e-10
5.31638e-10
8.54513e-10
4.98511e-10
8.9644e-10
3.44176e-10
9.5404e-10
1.89534e-10
9.39448e-10
7.53043e-17
1.51297e-09
-5.07746e-18
1.39845e-18
-4.96754e-18
-3.65362e-19
-4.73677e-18
-1.12547e-18
-4.4046e-18
-1.83386e-18
-3.97724e-18
-2.46236e-18
-3.46791e-18
-2.99159e-18
-2.89576e-18
-3.40931e-18
-2.28305e-18
-3.70886e-18
-1.65288e-18
-3.88895e-18
-1.02717e-18
-3.95367e-18
-4.25517e-19
-3.91185e-18
1.35889e-19
-3.77614e-18
6.44824e-19
-3.56182e-18
1.09314e-18
-3.2855e-18
1.47645e-18
-2.96388e-18
1.79356e-18
-2.61273e-18
2.04592e-18
-2.24621e-18
2.23697e-18
-1.87639e-18
2.37158e-18