/*--------------------------------*- C++ -*----------------------------------*\
  =========                 |
  \\      /  F ield         | OpenFOAM: The Open Source CFD Toolbox
   \\    /   O peration     | Website:  https://openfoam.org
    \\  /    A nd           | Version:  6
     \\/     M anipulation  |
\*---------------------------------------------------------------------------*/
FoamFile
{
    version     2.0;
    format      ascii;
    class       volScalarField;
    location    "900";
    object      Su;
}
// * * * * * * * * * * * * * * * * * * * * * * * * * * * * * * * * * * * * * //

dimensions      [0 0 -1 0 0 0 0];

internalField   nonuniform List<scalar> 
4800
(
0.217493
0.211317
0.205208
0.199216
0.19343
0.187922
0.182723
0.177845
0.173288
0.169039
0.165093
0.161442
0.158073
0.154966
0.152094
0.149429
0.146941
0.144597
0.142373
0.14025
0.138212
0.136246
0.134341
0.132492
0.130696
0.128951
0.127251
0.125591
0.123965
0.12236
0.120774
0.119197
0.117618
0.116026
0.114403
0.112721
0.110967
0.109122
0.107164
0.105077
0.102861
0.100517
0.0980586
0.0955009
0.0928575
0.0901431
0.0873779
0.0845915
0.0818136
0.0790672
0.0763722
0.0737446
0.0711974
0.0687403
0.0663766
0.0641053
0.0619159
0.0597954
0.0577284
0.0556956
0.0536982
0.0517265
0.0497554
0.0477668
0.0457459
0.0436792
0.0415574
0.0393624
0.0370649
0.0346505
0.032117
0.0294788
0.0267545
0.0239602
0.0211107
0.0182216
0.015315
0.0124164
0.00953943
0.00667319
0.00378213
0.00085563
-0.00208846
-0.00503927
-0.0079904
-0.010938
-0.0138797
-0.0168144
-0.0197415
-0.0226607
-0.0255722
-0.0284763
-0.0313736
-0.0342647
-0.03715
-0.0400304
-0.0429065
-0.0457788
-0.0486481
-0.051515
-0.05438
-0.0572436
-0.0601063
-0.0629686
-0.0658308
-0.0686932
-0.0715562
-0.0744198
-0.0772843
-0.0801499
-0.0830165
-0.0858842
-0.088753
-0.0916229
-0.0944938
-0.0973655
-0.100238
-0.103111
-0.105985
-0.108859
0.217485
0.211297
0.205195
0.199261
0.193545
0.188093
0.182936
0.178085
0.173548
0.169318
0.165393
0.16176
0.158407
0.155309
0.152442
0.149778
0.147285
0.14493
0.142694
0.140557
0.138506
0.136528
0.134612
0.132752
0.130947
0.12919
0.127478
0.125806
0.124168
0.122552
0.120958
0.119371
0.117783
0.116185
0.114553
0.112865
0.11111
0.109264
0.107304
0.105216
0.102996
0.100648
0.098186
0.0956243
0.0929778
0.0902611
0.0874944
0.0847059
0.0819249
0.0791741
0.0764735
0.0738402
0.0712871
0.0688227
0.06645
0.0641659
0.0619609
0.0598256
0.0577455
0.0557062
0.0536985
0.0517098
0.0497247
0.0477285
0.0457069
0.0436451
0.0415279
0.0393408
0.0370649
0.0346874
0.032202
0.0296091
0.0269169
0.0241389
0.0212878
0.0183843
0.0154578
0.0125334
0.00962431
0.00672187
0.00380066
0.000856681
-0.00209746
-0.00505404
-0.00800842
-0.0109577
-0.0139003
-0.0168351
-0.0197619
-0.0226805
-0.0255914
-0.0284947
-0.0313911
-0.0342812
-0.0371657
-0.0400451
-0.0429202
-0.0457917
-0.0486601
-0.0515261
-0.0543903
-0.0572531
-0.0601151
-0.0629767
-0.0658382
-0.0687
-0.0715623
-0.0744253
-0.0772893
-0.0801543
-0.0830204
-0.0858876
-0.088756
-0.0916254
-0.0944959
-0.0973672
-0.100239
-0.103112
-0.105985
-0.108859
0.217513
0.211389
0.20536
0.19949
0.193839
0.188452
0.183348
0.178547
0.174052
0.169863
0.165973
0.16237
0.159038
0.155952
0.153089
0.150424
0.147919
0.145547
0.143293
0.141135
0.139061
0.137059
0.135122
0.133242
0.131418
0.129642
0.127909
0.126215
0.124553
0.122917
0.121307
0.119704
0.118103
0.116488
0.114838
0.113139
0.111377
0.109523
0.107557
0.105469
0.103248
0.100899
0.0984339
0.0958659
0.0932103
0.0904862
0.0877175
0.0849284
0.0821425
0.0793836
0.0766737
0.0740303
0.0714652
0.0689861
0.0665946
0.0642868
0.0620571
0.0598985
0.0577965
0.0557413
0.0537126
0.0516931
0.0496809
0.0476678
0.0456371
0.0435756
0.041464
0.0392885
0.0370366
0.034695
0.032253
0.0297058
0.0270578
0.0243148
0.0214908
0.0186096
0.0156886
0.0127412
0.00977629
0.00680115
0.00382488
0.000851177
-0.00211987
-0.00508621
-0.00804609
-0.0109983
-0.013942
-0.0168769
-0.019803
-0.0227205
-0.0256299
-0.0285316
-0.0314262
-0.0343144
-0.037197
-0.0400745
-0.0429478
-0.0458174
-0.0486841
-0.0515484
-0.0544109
-0.0572722
-0.0601327
-0.0629928
-0.0658529
-0.0687134
-0.0715745
-0.0744364
-0.0772992
-0.0801632
-0.0830283
-0.0858946
-0.088762
-0.0916306
-0.0945002
-0.0973707
-0.100242
-0.103114
-0.105986
-0.108859
0.217556
0.211523
0.205596
0.199829
0.194274
0.188968
0.18394
0.179209
0.174778
0.170643
0.166798
0.163232
0.159925
0.156854
0.153995
0.151324
0.148802
0.14641
0.144133
0.14195
0.139848
0.137817
0.135851
0.133945
0.132095
0.130292
0.128532
0.12681
0.125122
0.123459
0.121822
0.120194
0.11857
0.116926
0.115251
0.113528
0.111745
0.10987
0.107894
0.105804
0.103584
0.101237
0.0987737
0.0962061
0.0935485
0.090821
0.0880487
0.0852559
0.0824645
0.0796965
0.0769741
0.0743149
0.0717303
0.0692275
0.0668097
0.0644745
0.0622147
0.060021
0.0578824
0.0557886
0.0537229
0.0516735
0.0496306
0.0475861
0.0455371
0.0434726
0.0413639
0.0391956
0.036961
0.0346456
0.0322387
0.0297353
0.0271344
0.0244331
0.021642
0.0187785
0.0158528
0.0128829
0.00987949
0.0068518
0.00382929
0.000826216
-0.00216291
-0.00514005
-0.00810604
-0.0110612
-0.014006
-0.0169405
-0.0198653
-0.0227809
-0.0256879
-0.028587
-0.0314788
-0.0343642
-0.0372439
-0.0401186
-0.042989
-0.0458559
-0.0487199
-0.0515817
-0.0544417
-0.0573006
-0.0601589
-0.0630169
-0.065875
-0.0687335
-0.0715927
-0.0744529
-0.0773141
-0.0801764
-0.08304
-0.0859049
-0.088771
-0.0916382
-0.0945066
-0.0973759
-0.100246
-0.103117
-0.105988
-0.10886
0.217612
0.211697
0.205894
0.200255
0.194819
0.189618
0.184683
0.180037
0.175682
0.171614
0.167824
0.164301
0.161024
0.15797
0.155115
0.152436
0.149896
0.147483
0.14518
0.142968
0.140836
0.138777
0.136783
0.134847
0.132967
0.131133
0.129341
0.127588
0.12587
0.124178
0.122512
0.120856
0.119198
0.117519
0.115807
0.114038
0.11221
0.1103
0.1083
0.106201
0.103984
0.101648
0.0991948
0.0966324
0.0939751
0.0912492
0.0884792
0.0856848
0.0828863
0.0801073
0.0773697
0.0746895
0.0720784
0.0695463
0.0670981
0.0647312
0.0624364
0.0602014
0.0580163
0.0558733
0.0537583
0.0516606
0.0495753
0.0474994
0.0454232
0.0433343
0.041216
0.0390515
0.0368291
0.0345315
0.0321505
0.029679
0.0271126
0.0244478
0.0216898
0.018849
0.0159353
0.0129554
0.00991904
0.00685289
0.00379681
0.00077037
-0.00223392
-0.0052203
-0.00819136
-0.0111487
-0.0140935
-0.0170268
-0.0199493
-0.0228619
-0.0257655
-0.0286609
-0.031549
-0.0344304
-0.0373062
-0.0401771
-0.0430437
-0.0459069
-0.0487674
-0.0516257
-0.0544825
-0.0573383
-0.0601936
-0.0630487
-0.0659041
-0.06876
-0.0716168
-0.0744747
-0.0773337
-0.0801939
-0.0830555
-0.0859185
-0.0887828
-0.0916483
-0.094515
-0.0973827
-0.100251
-0.103121
-0.10599
-0.10886
0.217696
0.211937
0.206268
0.200752
0.195438
0.19036
0.185542
0.180998
0.176728
0.172731
0.169004
0.16553
0.162286
0.159254
0.156404
0.153717
0.151163
0.148729
0.146401
0.14416
0.142
0.139914
0.137892
0.135929
0.134019
0.132155
0.130331
0.128548
0.1268
0.125075
0.123378
0.121687
0.11999
0.118266
0.116502
0.11468
0.112802
0.110842
0.108798
0.106668
0.104442
0.102114
0.0996742
0.0971213
0.0944714
0.0917519
0.0889873
0.0861972
0.0833994
0.0806127
0.0778572
0.0751525
0.0725131
0.0699508
0.0674706
0.0650655
0.0627267
0.0604441
0.0582072
0.0560058
0.0538303
0.0516765
0.0495406
0.0474176
0.0452994
0.0431743
0.0410332
0.03886
0.0366383
0.0343491
0.0319835
0.0295335
0.0269917
0.0243545
0.021623
0.018802
0.0159007
0.0129244
0.0098823
0.0067965
0.00371698
0.000675273
-0.00233894
-0.00533118
-0.00830496
-0.0112627
-0.0142061
-0.0171367
-0.0200556
-0.022964
-0.025863
-0.0287535
-0.0316365
-0.034513
-0.0373838
-0.0402498
-0.0431117
-0.0459703
-0.0488263
-0.0516803
-0.054533
-0.0573849
-0.0602364
-0.063088
-0.0659401
-0.0687928
-0.0716466
-0.0745016
-0.0773579
-0.0802155
-0.0830747
-0.0859353
-0.0887974
-0.0916608
-0.0945254
-0.0973911
-0.100258
-0.103125
-0.105993
-0.108861
0.217778
0.212179
0.206663
0.201286
0.196103
0.191154
0.186459
0.182029
0.177862
0.173953
0.170294
0.166873
0.163666
0.160657
0.157817
0.155128
0.152565
0.150114
0.147763
0.145498
0.143314
0.141204
0.139159
0.137171
0.135235
0.133344
0.131492
0.129678
0.127898
0.126139
0.124408
0.122675
0.120931
0.119151
0.117327
0.115443
0.113495
0.11147
0.109372
0.107198
0.104947
0.102615
0.100187
0.0976511
0.0950189
0.0923117
0.0895553
0.0867702
0.083975
0.0811869
0.0784225
0.0757002
0.0730369
0.0704462
0.0679307
0.065482
0.0630951
0.0607586
0.0584596
0.05619
0.0539463
0.051724
0.0495212
0.0473362
0.0451635
0.0429946
0.0408198
0.0386227
0.0363866
0.0340969
0.0317413
0.0293063
0.0267825
0.0241627
0.0214489
0.0186452
0.0157565
0.0127852
0.00974473
0.00666195
0.00358134
0.00053538
-0.00248218
-0.0054759
-0.00844925
-0.0114049
-0.0143449
-0.017271
-0.0201847
-0.0230874
-0.0259804
-0.0288647
-0.0317415
-0.0346117
-0.0374764
-0.0403364
-0.0431925
-0.0460455
-0.0488962
-0.0517451
-0.0545929
-0.0574401
-0.0602872
-0.0631346
-0.0659827
-0.0688316
-0.0716818
-0.0745334
-0.0773864
-0.0802411
-0.0830973
-0.0859552
-0.0888146
-0.0916755
-0.0945377
-0.097401
-0.100265
-0.103131
-0.105996
-0.108862
0.217852
0.212406
0.20705
0.201839
0.196821
0.192023
0.187464
0.183152
0.179082
0.175251
0.171657
0.168289
0.165125
0.162145
0.159321
0.156635
0.154067
0.151605
0.149237
0.146954
0.144752
0.142624
0.14056
0.138551
0.136591
0.134674
0.132794
0.13095
0.129136
0.127343
0.125572
0.123788
0.121989
0.120144
0.118251
0.116297
0.114276
0.112182
0.110021
0.107796
0.105508
0.103154
0.100722
0.0981992
0.0955877
0.0929017
0.0901617
0.0873897
0.0846056
0.0818243
0.0790585
0.0763258
0.0736461
0.0710306
0.0684796
0.0659856
0.0635454
0.061146
0.0587779
0.0564353
0.0541159
0.0518182
0.0495418
0.0472831
0.0450368
0.042802
0.040575
0.0383413
0.0360826
0.0337841
0.0314312
0.0290008
0.0264862
0.0238826
0.0211895
0.0184027
0.015525
0.0125645
0.00953842
0.00646859
0.00339271
0.000349533
-0.00266568
-0.00565648
-0.00862594
-0.0115766
-0.0145108
-0.0174304
-0.020337
-0.0232323
-0.0261177
-0.0289943
-0.0318635
-0.0347262
-0.0375836
-0.0404365
-0.0432858
-0.0461323
-0.0489767
-0.0518196
-0.0546617
-0.0575036
-0.0603455
-0.0631881
-0.0660315
-0.0688761
-0.0717222
-0.0745698
-0.0774192
-0.0802703
-0.0831233
-0.085978
-0.0888343
-0.0916923
-0.0945517
-0.0974124
-0.100274
-0.103137
-0.106
-0.108864
0.217941
0.212668
0.207483
0.202438
0.197575
0.19292
0.188486
0.184283
0.180313
0.176572
0.173059
0.169752
0.166633
0.163682
0.160877
0.158201
0.155636
0.153172
0.150798
0.148508
0.146296
0.144156
0.142076
0.140045
0.138059
0.136113
0.134204
0.132327
0.130477
0.128647
0.126826
0.124987
0.123123
0.12121
0.119245
0.117216
0.115117
0.112948
0.110718
0.108435
0.106102
0.103719
0.101278
0.0987636
0.0961718
0.0935097
0.0907915
0.0880364
0.0852612
0.0824831
0.0797234
0.0770023
0.0743278
0.0717
0.0691187
0.0665812
0.0640818
0.0616091
0.0591623
0.0567401
0.0543404
0.0519621
0.0496041
0.0472634
0.0449377
0.0426286
0.0403359
0.0380517
0.0357588
0.0334338
0.0310648
0.0286287
0.0261201
0.0235313
0.0208518
0.0180784
0.0152167
0.012273
0.00926542
0.00621621
0.00315261
0.000117888
-0.00289019
-0.00587402
-0.00883614
-0.0117789
-0.0147047
-0.0176153
-0.0205128
-0.0233988
-0.0262748
-0.0291422
-0.0320023
-0.0348563
-0.0377051
-0.0405498
-0.0433912
-0.0462301
-0.0490673
-0.0519035
-0.0547391
-0.0575748
-0.0604109
-0.063248
-0.0660862
-0.0689259
-0.0717674
-0.0746106
-0.0774558
-0.0803031
-0.0831522
-0.0860034
-0.0888564
-0.0917111
-0.0945674
-0.0974251
-0.100284
-0.103144
-0.106004
-0.108865
0.218032
0.21294
0.207929
0.203052
0.198346
0.193832
0.189526
0.185438
0.181574
0.177927
0.174491
0.171246
0.168177
0.165262
0.162481
0.159818
0.157262
0.154803
0.152433
0.150144
0.147929
0.14578
0.14368
0.141623
0.139605
0.137626
0.135681
0.133765
0.131873
0.129994
0.128113
0.12621
0.124277
0.122292
0.120252
0.118146
0.115971
0.113731
0.111434
0.109092
0.106713
0.104297
0.101836
0.0993223
0.0967474
0.0941123
0.0914245
0.0886976
0.0859506
0.0832031
0.0804664
0.0777581
0.0750851
0.0724473
0.069838
0.0672494
0.0646798
0.0621329
0.0596098
0.0571081
0.0546268
0.0521652
0.0497211
0.0472914
0.0448774
0.0424824
0.0401099
0.0377569
0.0354145
0.0330544
0.0306578
0.028207
0.0256962
0.0231144
0.0204489
0.0176936
0.0148525
0.0119308
0.00894314
0.00591378
0.00286437
-0.000158526
-0.00315576
-0.00612901
-0.00908044
-0.0120123
-0.0149268
-0.0178261
-0.0207122
-0.0235868
-0.0264516
-0.0293081
-0.0321576
-0.0350013
-0.0378403
-0.0406755
-0.043508
-0.0463384
-0.0491675
-0.051996
-0.0548244
-0.0576533
-0.060483
-0.0633139
-0.0661464
-0.0689807
-0.071817
-0.0746554
-0.0774961
-0.0803389
-0.083184
-0.0860313
-0.0888806
-0.0917317
-0.0945846
-0.097439
-0.100295
-0.103151
-0.106009
-0.108866
0.21812
0.213207
0.208377
0.203673
0.199127
0.194761
0.19059
0.186626
0.182867
0.179311
0.175951
0.17277
0.169751
0.166874
0.16412
0.161478
0.158937
0.156489
0.154132
0.151848
0.149631
0.147468
0.145344
0.143255
0.141201
0.139181
0.137191
0.135227
0.133282
0.131344
0.129399
0.12743
0.125423
0.123363
0.121246
0.119066
0.116821
0.114513
0.112154
0.109757
0.10733
0.104875
0.102391
0.0998734
0.0973126
0.0947045
0.0920517
0.0893609
0.0866482
0.0839294
0.0812174
0.0785317
0.0758728
0.073236
0.0706086
0.067979
0.0653465
0.0627264
0.0601253
0.0575428
0.0549784
0.0524311
0.0498974
0.0473746
0.0448637
0.0423708
0.0399035
0.0374659
0.0350571
0.0326517
0.0302244
0.027754
0.0252317
0.0226481
0.0199912
0.0172534
0.0144342
0.011537
0.00857411
0.00556556
0.00252986
-0.000478962
-0.00346225
-0.00642161
-0.00935909
-0.0122769
-0.0151774
-0.0180627
-0.020935
-0.023796
-0.0266477
-0.0294914
-0.0323287
-0.0351607
-0.0379885
-0.0408132
-0.0436356
-0.0464565
-0.0492767
-0.0520967
-0.0549171
-0.0577384
-0.060561
-0.0633853
-0.0662115
-0.0690399
-0.0718706
-0.0747038
-0.0775395
-0.0803777
-0.0832183
-0.0860614
-0.0889066
-0.091754
-0.0946032
-0.097454
-0.100306
-0.103159
-0.106014
-0.108868
0.218214
0.213488
0.20884
0.204307
0.199921
0.195701
0.191665
0.187821
0.184169
0.180708
0.177432
0.174323
0.17136
0.168524
0.165801
0.163182
0.160659
0.158226
0.155881
0.153598
0.151373
0.149188
0.147033
0.144909
0.142814
0.140747
0.138707
0.136688
0.134682
0.132678
0.130662
0.12862
0.126537
0.124404
0.122214
0.119963
0.117648
0.115275
0.112857
0.110406
0.107935
0.105446
0.102938
0.100412
0.0978605
0.0952777
0.0926597
0.0900082
0.0873327
0.0846455
0.0819637
0.0793005
0.0766494
0.0740059
0.0713615
0.0687079
0.0660406
0.0633687
0.0606983
0.0580368
0.0553899
0.0527564
0.0501308
0.0475115
0.0448996
0.0423027
0.0397334
0.0372034
0.0347138
0.0322417
0.0297655
0.027266
0.0247253
0.0221359
0.0194876
0.0167654
0.0139627
0.0110849
0.00814798
0.00516652
0.00214848
-0.000843306
-0.00380954
-0.00675175
-0.00967204
-0.0125727
-0.0154562
-0.0183248
-0.0211807
-0.024026
-0.0268624
-0.0296916
-0.032515
-0.0353338
-0.0381492
-0.0409621
-0.0437733
-0.0465838
-0.0493941
-0.0522048
-0.0550165
-0.0578296
-0.0606446
-0.0634616
-0.0662811
-0.0691031
-0.0719279
-0.0747554
-0.0775858
-0.080419
-0.0832549
-0.0860934
-0.0889344
-0.0917776
-0.0946229
-0.09747
-0.100319
-0.103168
-0.106019
-0.10887
0.218311
0.213778
0.209312
0.204949
0.200722
0.196654
0.192757
0.189038
0.185501
0.182143
0.178952
0.175909
0.172998
0.170203
0.167513
0.164922
0.162419
0.160001
0.157659
0.155369
0.153123
0.150908
0.148719
0.146556
0.144417
0.142302
0.140208
0.138127
0.136054
0.133976
0.131884
0.129762
0.127598
0.125386
0.12312
0.120796
0.118412
0.115981
0.113511
0.111016
0.108506
0.105986
0.103458
0.100926
0.0983836
0.0958215
0.0932298
0.090609
0.0879659
0.0853121
0.0826601
0.0800142
0.0773718
0.07473
0.0720808
0.0694158
0.0667292
0.0640235
0.0613022
0.0585765
0.0558539
0.053135
0.0504174
0.0476985
0.0449786
0.0422681
0.0395827
0.0369402
0.0343495
0.031801
0.0292695
0.0267326
0.0241711
0.0215705
0.0189205
0.0162099
0.0134316
0.0105839
0.00767677
0.00472159
0.00172115
-0.00125119
-0.00419728
-0.00711907
-0.0100188
-0.0128992
-0.0157626
-0.0186117
-0.0214487
-0.0242759
-0.0270951
-0.0299078
-0.0327157
-0.0355198
-0.0383213
-0.0411212
-0.0439203
-0.0467193
-0.0495189
-0.0523196
-0.0551219
-0.0579262
-0.0607329
-0.0635423
-0.0663545
-0.0691698
-0.0719882
-0.0748098
-0.0776345
-0.0804624
-0.0832933
-0.0861271
-0.0889636
-0.0918025
-0.0946437
-0.0974867
-0.100331
-0.103177
-0.106024
-0.108872
0.21841
0.214071
0.209791
0.205604
0.201539
0.197619
0.193861
0.19027
0.186849
0.183591
0.180485
0.177511
0.174655
0.171904
0.169252
0.166686
0.164199
0.161787
0.159438
0.15713
0.154855
0.152607
0.150382
0.148178
0.145994
0.143829
0.141677
0.139532
0.137385
0.135228
0.13305
0.130839
0.128587
0.126289
0.123944
0.121551
0.119112
0.116632
0.114117
0.111581
0.109036
0.10649
0.103946
0.101407
0.0988675
0.0963167
0.0937445
0.091152
0.0885426
0.0859233
0.0833007
0.0806766
0.0780492
0.0754164
0.0727724
0.0701074
0.0674157
0.0646947
0.0619426
0.0591653
0.0563717
0.0535678
0.0507548
0.0479306
0.045098
0.0422671
0.0394563
0.0366896
0.0339855
0.0313457
0.0287477
0.0261628
0.0235734
0.020962
0.0183124
0.0156088
0.0128465
0.010023
0.00714666
0.00422444
0.00124688
-0.00170229
-0.0046248
-0.00752272
-0.0103986
-0.0132552
-0.0160956
-0.0189223
-0.0217379
-0.0245447
-0.0273445
-0.030139
-0.0329296
-0.0357176
-0.038504
-0.0412897
-0.0440755
-0.0468622
-0.0496502
-0.0524401
-0.0552324
-0.0580274
-0.0608254
-0.0636266
-0.0664312
-0.0692393
-0.072051
-0.0748664
-0.0776852
-0.0805076
-0.0833333
-0.0861621
-0.0889939
-0.0918284
-0.0946652
-0.0975042
-0.100345
-0.103187
-0.10603
-0.108874
0.218506
0.214357
0.210263
0.206252
0.202351
0.198582
0.194961
0.191498
0.188191
0.185032
0.182008
0.179103
0.176305
0.173605
0.17099
0.168445
0.165968
0.163554
0.161189
0.158858
0.156556
0.154275
0.152013
0.149768
0.147539
0.145322
0.143108
0.140893
0.138667
0.136425
0.134156
0.131852
0.129509
0.127126
0.124708
0.122255
0.119763
0.117233
0.114673
0.112098
0.109519
0.106947
0.104389
0.101842
0.0993025
0.0967588
0.0942042
0.09164
0.0890658
0.0864835
0.0838949
0.0812995
0.0786963
0.0760825
0.0734502
0.07079
0.0680984
0.0653691
0.0625959
0.0597775
0.0569225
0.0540391
0.0511297
0.0481955
0.0452428
0.0422839
0.0393419
0.0364462
0.0336228
0.0308804
0.0282018
0.0255556
0.022924
0.0202889
0.0176335
0.0149422
0.0122034
0.00940496
0.00655965
0.00367643
0.000727092
-0.00219519
-0.00509058
-0.00796108
-0.0108096
-0.0136393
-0.0164535
-0.0192551
-0.0220468
-0.0248309
-0.0276093
-0.0303838
-0.0331556
-0.035926
-0.038696
-0.0414664
-0.044238
-0.0470114
-0.0497871
-0.0525656
-0.0553473
-0.0581324
-0.0609212
-0.0637138
-0.0665105
-0.0693112
-0.0721159
-0.0749247
-0.0777375
-0.0805541
-0.0833744
-0.0861981
-0.0890251
-0.0918549
-0.0946874
-0.0975221
-0.100359
-0.103197
-0.106036
-0.108875
0.218599
0.214632
0.210717
0.206881
0.203147
0.199534
0.196053
0.192714
0.189517
0.186453
0.183508
0.180672
0.177933
0.175279
0.172692
0.170164
0.167696
0.165278
0.162901
0.16055
0.15822
0.155906
0.153605
0.151316
0.149036
0.146758
0.144478
0.142189
0.139885
0.137559
0.135201
0.132808
0.130379
0.127919
0.125434
0.122918
0.120365
0.11778
0.115173
0.11256
0.109951
0.107356
0.104783
0.102228
0.0996869
0.0971509
0.0946177
0.0920836
0.0895435
0.0869991
0.0844489
0.0818901
0.0793189
0.0767287
0.0741098
0.071456
0.0687654
0.0660306
0.0632419
0.0603906
0.0574813
0.0545208
0.0515143
0.0484697
0.0453954
0.0423067
0.0392291
0.0361952
0.0332399
0.0303852
0.0276209
0.0249098
0.0222313
0.0195717
0.0169107
0.0142293
0.0115156
0.00875209
0.00593993
0.00308836
0.000165973
-0.00272705
-0.00559195
-0.00843146
-0.0112491
-0.0140487
-0.0168338
-0.0196077
-0.0223732
-0.0251326
-0.0278878
-0.0306406
-0.0333921
-0.0361436
-0.038896
-0.0416501
-0.0444066
-0.0471659
-0.0499286
-0.0526951
-0.0554656
-0.0582403
-0.0610195
-0.0638033
-0.0665916
-0.0693846
-0.0721822
-0.0749844
-0.0777909
-0.0806016
-0.0834164
-0.0862349
-0.0890568
-0.091882
-0.0947099
-0.0975403
-0.100373
-0.103207
-0.106042
-0.108877
0.218687
0.214897
0.211153
0.207485
0.203912
0.200448
0.197106
0.19389
0.190799
0.187826
0.18496
0.182195
0.179515
0.176903
0.174344
0.171837
0.169377
0.166956
0.164568
0.162197
0.159841
0.157493
0.155153
0.152817
0.150482
0.148141
0.14579
0.143423
0.141036
0.138622
0.136179
0.133702
0.131194
0.128661
0.126107
0.123521
0.120901
0.118258
0.115606
0.11296
0.110326
0.107713
0.105126
0.102563
0.100022
0.0974931
0.0949796
0.0924784
0.089979
0.0874776
0.0849681
0.0824462
0.0799067
0.0773409
0.0747401
0.0721003
0.0694166
0.0666797
0.0638778
0.0609993
0.058043
0.0550107
0.0519084
0.0487509
0.0455531
0.0423322
0.0391137
0.0359337
0.0328382
0.0298587
0.0269943
0.0242129
0.021486
0.0188005
0.0161372
0.0134698
0.0107833
0.00805323
0.00527564
0.00245815
-0.000434325
-0.00329443
-0.00612495
-0.00892975
-0.0117132
-0.0144797
-0.0172332
-0.0199772
-0.0227145
-0.0254474
-0.0281779
-0.0309075
-0.0336375
-0.036369
-0.0391027
-0.0418395
-0.0445799
-0.0473245
-0.0500736
-0.0528274
-0.0555862
-0.0583503
-0.0611195
-0.0638941
-0.066674
-0.0694591
-0.0722494
-0.0750446
-0.0778448
-0.0806495
-0.0834587
-0.0862719
-0.0890889
-0.0919093
-0.0947326
-0.0975586
-0.100387
-0.103217
-0.106048
-0.108879
0.218772
0.215148
0.21157
0.208062
0.204642
0.201322
0.198111
0.195013
0.192025
0.189141
0.186357
0.183663
0.181039
0.178467
0.17594
0.173454
0.171004
0.168583
0.166184
0.163795
0.161413
0.159033
0.156652
0.154267
0.151872
0.149463
0.147035
0.144587
0.142114
0.139613
0.137085
0.134527
0.131942
0.129334
0.126707
0.124049
0.121363
0.118668
0.115978
0.113305
0.110652
0.108027
0.105429
0.102861
0.100323
0.0978069
0.0953184
0.0928504
0.0903909
0.087931
0.0854608
0.0829735
0.0804628
0.077923
0.0753482
0.0727302
0.0700581
0.06732
0.0645022
0.0615938
0.0585906
0.0554898
0.0522938
0.0490153
0.0456805
0.0423208
0.0389605
0.0356309
0.0323848
0.029273
0.0263054
0.0234505
0.020674
0.0179592
0.0152894
0.0126344
0.00997881
0.00728996
0.00455925
0.00178626
-0.00107002
-0.00389204
-0.00668374
-0.00945007
-0.0121963
-0.0149273
-0.0176473
-0.0203597
-0.0230674
-0.0257726
-0.0284772
-0.0311825
-0.0338898
-0.0366002
-0.0393144
-0.042033
-0.0447567
-0.0474859
-0.0502207
-0.0529615
-0.0557083
-0.0584613
-0.0612203
-0.0639855
-0.0667567
-0.0695338
-0.0723167
-0.0751051
-0.0778988
-0.0806975
-0.083501
-0.0863089
-0.0891209
-0.0919365
-0.0947553
-0.0975769
-0.100401
-0.103227
-0.106054
-0.108881
0.218851
0.215387
0.211965
0.208608
0.205332
0.202147
0.199062
0.196077
0.19319
0.190398
0.187696
0.185071
0.1825
0.179969
0.177474
0.17501
0.172571
0.170151
0.167743
0.165337
0.162928
0.160514
0.158088
0.155649
0.15319
0.150709
0.148203
0.145671
0.143114
0.140531
0.137925
0.135292
0.132635
0.129957
0.127259
0.124533
0.121792
0.119051
0.116328
0.113629
0.110961
0.108325
0.10572
0.10315
0.100617
0.0981181
0.0956542
0.0932166
0.0907911
0.0883646
0.0859282
0.0834757
0.0810008
0.0784968
0.075954
0.0733593
0.070698
0.0679562
0.0651179
0.0621731
0.059114
0.0559339
0.0526361
0.0492365
0.0457639
0.0422498
0.0387271
0.0352446
0.0318581
0.0286169
0.0255408
0.0226076
0.0197825
0.0170416
0.0143676
0.011727
0.00910611
0.00646801
0.00379516
0.00107792
-0.00173316
-0.00451113
-0.00725974
-0.00998439
-0.0126912
-0.0153852
-0.0180707
-0.0207509
-0.0234283
-0.026105
-0.0287828
-0.031463
-0.0341469
-0.0368354
-0.0395292
-0.0422291
-0.0449355
-0.0476486
-0.0503688
-0.0530961
-0.0558306
-0.0585723
-0.061321
-0.0640767
-0.0668391
-0.0696081
-0.0723835
-0.075165
-0.0779523
-0.080745
-0.0835429
-0.0863455
-0.0891525
-0.0919634
-0.0947777
-0.097595
-0.100415
-0.103236
-0.10606
-0.108883
0.218925
0.215607
0.21233
0.209113
0.205971
0.202914
0.199948
0.197073
0.194286
0.191585
0.188963
0.186404
0.183885
0.181398
0.178936
0.176495
0.174069
0.171653
0.169237
0.166814
0.164378
0.161925
0.15945
0.15695
0.154423
0.151866
0.149279
0.146665
0.144029
0.141371
0.138697
0.136002
0.133284
0.130543
0.127779
0.124994
0.122205
0.119426
0.11667
0.113947
0.111268
0.108628
0.106026
0.103464
0.100942
0.0984587
0.0960128
0.0935968
0.0911982
0.0888044
0.086405
0.0839917
0.081557
0.0790915
0.0765805
0.0740055
0.0713513
0.0686015
0.0657378
0.0627507
0.0596309
0.0563707
0.0529715
0.0494473
0.0458299
0.0421578
0.038472
0.0348263
0.0312777
0.0278866
0.0246903
0.0216735
0.0187991
0.016037
0.0133668
0.0107496
0.00816748
0.00558771
0.00298612
0.000340919
-0.00240906
-0.00513777
-0.00784098
-0.0105223
-0.0131889
-0.015846
-0.0184974
-0.0211457
-0.0237929
-0.0264411
-0.0290919
-0.0317466
-0.0344064
-0.0370724
-0.0397454
-0.0424259
-0.0451145
-0.0478113
-0.0505165
-0.0532301
-0.0559521
-0.0586823
-0.0614206
-0.0641667
-0.0669204
-0.0696813
-0.0724493
-0.0752239
-0.0780048
-0.0807916
-0.083584
-0.0863814
-0.0891835
-0.0919897
-0.0947997
-0.0976127
-0.100428
-0.103246
-0.106065
-0.108885
0.218993
0.21581
0.212665
0.209576
0.206557
0.203618
0.200765
0.197995
0.195305
0.192691
0.190146
0.18765
0.185182
0.182737
0.18031
0.177893
0.175483
0.173072
0.17065
0.168209
0.165743
0.163248
0.16072
0.158157
0.155557
0.152923
0.150256
0.147564
0.144855
0.142134
0.139403
0.136661
0.1339
0.131116
0.128303
0.125468
0.12263
0.119808
0.117019
0.114279
0.111597
0.108965
0.106381
0.103841
0.10134
0.0988788
0.0964558
0.0940652
0.0916918
0.0893267
0.086959
0.0845789
0.0821784
0.0797439
0.0772558
0.0746939
0.0720418
0.0692774
0.0663832
0.0633503
0.0601681
0.0568224
0.0533115
0.0496508
0.0458751
0.0420315
0.038171
0.0343464
0.03062
0.0270691
0.0237463
0.0206448
0.0177207
0.0149401
0.0122781
0.00969207
0.00715106
0.00463162
0.00211546
-0.000424362
-0.00307413
-0.00575285
-0.00841245
-0.0110514
-0.0136794
-0.0163018
-0.0189213
-0.0215393
-0.0241575
-0.0267777
-0.0294015
-0.0320305
-0.034666
-0.0373091
-0.0399608
-0.0426216
-0.045292
-0.0479722
-0.0506622
-0.053362
-0.0560714
-0.0587902
-0.0615181
-0.0642546
-0.0669996
-0.0697526
-0.0725133
-0.0752811
-0.0780558
-0.0808368
-0.0836237
-0.0864161
-0.0892135
-0.0920152
-0.0948208
-0.0976298
-0.100442
-0.103255
-0.106071
-0.108887
0.219053
0.21599
0.212964
0.209992
0.207085
0.204255
0.201505
0.198832
0.196232
0.193701
0.191227
0.188786
0.186366
0.183964
0.181572
0.179182
0.17679
0.174386
0.171958
0.169499
0.167002
0.164463
0.16188
0.159251
0.156578
0.153866
0.151125
0.148363
0.145592
0.142817
0.140043
0.137266
0.134472
0.131648
0.128791
0.125911
0.123036
0.12019
0.117392
0.114653
0.111975
0.109362
0.106815
0.104316
0.101857
0.0994325
0.0970428
0.0946834
0.0923371
0.0899972
0.087656
0.0853055
0.0829329
0.0805185
0.0780412
0.0754802
0.0728151
0.0700232
0.0670876
0.0639919
0.0607258
0.0572766
0.0536352
0.0498161
0.0458668
0.0418375
0.0377817
0.0337671
0.0298696
0.0261652
0.0227136
0.019524
0.0165502
0.0137555
0.0111076
0.00856565
0.00608295
0.003639
0.00121629
-0.00120221
-0.00185311
-0.00634606
-0.00896144
-0.0115591
-0.0141524
-0.0167449
-0.0193366
-0.0219274
-0.0245185
-0.0271116
-0.0297088
-0.0323121
-0.0349231
-0.0375432
-0.0401733
-0.0428142
-0.0454663
-0.0481298
-0.0508046
-0.0534906
-0.0561875
-0.0588949
-0.0616124
-0.0643396
-0.0670761
-0.0698213
-0.0725748
-0.0753361
-0.0781047
-0.0808801
-0.0836619
-0.0864494
-0.0892421
-0.0920396
-0.0948411
-0.0976461
-0.100454
-0.103264
-0.106076
-0.108889
0.219107
0.21615
0.213227
0.210355
0.207548
0.204814
0.202155
0.199568
0.197048
0.194589
0.192175
0.189784
0.187414
0.185054
0.182698
0.180337
0.177964
0.175567
0.173135
0.170659
0.168131
0.165547
0.162905
0.160209
0.157465
0.154681
0.151873
0.149054
0.146232
0.143415
0.140607
0.13781
0.134999
0.132145
0.129246
0.126332
0.123442
0.120603
0.117828
0.115108
0.112445
0.109864
0.107373
0.104947
0.102565
0.100202
0.0978648
0.0955447
0.0932254
0.0909058
0.0885824
0.08625
0.0838874
0.0814683
0.0789773
0.0763978
0.0737056
0.0708748
0.0678875
0.0647291
0.061379
0.0578034
0.0539968
0.049989
0.045837
0.0416033
0.0373444
0.0331316
0.0290557
0.0251932
0.0216023
0.018317
0.0152983
0.0124981
0.00987279
0.00738115
0.00497271
0.00261687
0.000291797
-0.00202961
-0.00444155
-0.0069503
-0.00948228
-0.0120333
-0.0145984
-0.0171692
-0.0197395
-0.0223072
-0.0248733
-0.0274404
-0.0300114
-0.032589
-0.0351753
-0.0377722
-0.0403807
-0.0430016
-0.0456354
-0.0482823
-0.050942
-0.0536143
-0.0562989
-0.0589952
-0.0617026
-0.0644208
-0.0671489
-0.0698866
-0.0726333
-0.0753883
-0.0781511
-0.0809212
-0.0836979
-0.0864808
-0.0892692
-0.0920625
-0.0948602
-0.0976615
-0.100466
-0.103273
-0.106081
-0.108891
0.21915
0.21628
0.213442
0.210654
0.20793
0.205276
0.202693
0.200179
0.197726
0.195328
0.192964
0.190623
0.1883
0.185983
0.183664
0.181332
0.178977
0.176589
0.174153
0.171658
0.169096
0.166465
0.163766
0.161006
0.158195
0.15535
0.152487
0.149624
0.146765
0.143916
0.141088
0.138283
0.135469
0.132603
0.12968
0.126746
0.123858
0.121052
0.118331
0.115664
0.113043
0.110524
0.108121
0.105805
0.103543
0.101287
0.0990391
0.0967709
0.0944757
0.0921727
0.0898678
0.0875436
0.085159
0.0826872
0.0801353
0.0774977
0.0747515
0.071864
0.0688076
0.0655554
0.0620842
0.0583613
0.0543819
0.050178
0.0458198
0.0413848
0.0369268
0.0325073
0.0282265
0.0241868
0.0204536
0.0170679
0.0140049
0.0112067
0.00861527
0.00617419
0.00384023
0.00157417
-0.000634392
-0.00282457
-0.00510176
-0.00747559
-0.00993251
-0.0124547
-0.0150095
-0.0175717
-0.0201288
-0.0226778
-0.0252209
-0.0277625
-0.0303071
-0.0328587
-0.0354201
-0.0379936
-0.0405805
-0.0431816
-0.0457973
-0.0484278
-0.0510727
-0.0537318
-0.0564044
-0.0590899
-0.0617877
-0.0644971
-0.0672174
-0.0699479
-0.072688
-0.075437
-0.0781944
-0.0809594
-0.0837315
-0.08651
-0.0892944
-0.0920839
-0.0948779
-0.0976758
-0.100477
-0.10328
-0.106086
-0.108892
0.219183
0.216378
0.213605
0.210882
0.208219
0.205623
0.203098
0.200639
0.19824
0.195889
0.193571
0.19128
0.189004
0.186729
0.184446
0.182141
0.179803
0.177419
0.174973
0.172455
0.169856
0.167178
0.164425
0.161607
0.158738
0.155839
0.152936
0.150045
0.147168
0.144306
0.141471
0.138668
0.135859
0.133002
0.130094
0.127182
0.12433
0.121585
0.11894
0.11635
0.113801
0.111385
0.109115
0.10696
0.10489
0.102808
0.100697
0.0984924
0.0961982
0.093907
0.0916494
0.089345
0.0869076
0.0843118
0.0816146
0.0788392
0.0759817
0.0729981
0.0698474
0.0664825
0.0628765
0.0589791
0.0547887
0.0503629
0.0457941
0.0411543
0.0364696
0.0318185
0.0273394
0.0231538
0.0193128
0.015848
0.0127538
0.00997429
0.00740963
0.00498954
0.00270877
0.000527301
-0.0015688
-0.00360798
-0.00566182
-0.00786478
-0.0102773
-0.0128119
-0.0153863