/*--------------------------------*- C++ -*----------------------------------*\
  =========                 |
  \\      /  F ield         | OpenFOAM: The Open Source CFD Toolbox
   \\    /   O peration     | Website:  https://openfoam.org
    \\  /    A nd           | Version:  6
     \\/     M anipulation  |
\*---------------------------------------------------------------------------*/
FoamFile
{
    version     2.0;
    format      ascii;
    class       volScalarField;
    location    "900";
    object      T;
}
// * * * * * * * * * * * * * * * * * * * * * * * * * * * * * * * * * * * * * //

dimensions      [0 0 0 1 0 0 0];

internalField   nonuniform List<scalar> 
4800
(
552.438
552.214
551.992
551.775
551.565
551.365
551.177
551
550.834
550.68
550.537
550.405
550.283
550.17
550.066
549.969
549.879
549.794
549.713
549.636
549.562
549.491
549.422
549.355
549.29
549.227
549.165
549.105
549.046
548.988
548.93
548.873
548.816
548.758
548.699
548.638
548.574
548.507
548.436
548.361
548.28
548.195
548.106
548.013
547.917
547.819
547.719
547.618
547.517
547.417
547.32
547.224
547.132
547.043
546.957
546.875
546.795
546.718
546.643
546.57
546.497
546.426
546.354
546.282
546.209
546.134
546.057
545.977
545.894
545.807
545.715
545.619
545.52
545.419
545.316
545.211
545.105
545
544.896
544.792
544.687
544.581
544.474
544.367
544.26
544.153
544.047
543.94
543.834
543.728
543.623
543.517
543.412
543.307
543.203
543.098
542.994
542.89
542.786
542.682
542.578
542.474
542.37
542.266
542.163
542.059
541.955
541.851
541.747
541.643
541.539
541.435
541.331
541.227
541.123
541.019
540.915
540.811
540.706
540.602
552.437
552.213
551.992
551.776
551.569
551.371
551.184
551.008
550.844
550.69
550.548
550.416
550.295
550.182
550.078
549.982
549.891
549.806
549.725
549.648
549.573
549.501
549.432
549.364
549.299
549.235
549.173
549.113
549.053
548.995
548.937
548.879
548.822
548.764
548.704
548.643
548.58
548.513
548.441
548.366
548.285
548.2
548.111
548.018
547.922
547.823
547.723
547.622
547.521
547.421
547.323
547.228
547.135
547.046
546.96
546.877
546.797
546.72
546.644
546.57
546.497
546.425
546.353
546.281
546.208
546.133
546.056
545.977
545.894
545.808
545.718
545.624
545.526
545.425
545.322
545.217
545.111
545.004
544.899
544.794
544.688
544.581
544.474
544.367
544.26
544.153
544.046
543.939
543.833
543.727
543.622
543.517
543.412
543.307
543.202
543.098
542.993
542.889
542.785
542.681
542.577
542.474
542.37
542.266
542.162
542.058
541.955
541.851
541.747
541.643
541.539
541.435
541.331
541.227
541.123
541.019
540.915
540.811
540.706
540.602
552.438
552.216
551.998
551.785
551.58
551.384
551.199
551.025
550.862
550.71
550.569
550.439
550.318
550.206
550.102
550.005
549.914
549.828
549.747
549.668
549.593
549.521
549.45
549.382
549.316
549.252
549.189
549.127
549.067
549.008
548.949
548.891
548.833
548.775
548.715
548.653
548.589
548.522
548.451
548.375
548.294
548.209
548.12
548.027
547.93
547.831
547.731
547.63
547.529
547.429
547.331
547.235
547.142
547.052
546.965
546.881
546.8
546.722
546.646
546.571
546.498
546.425
546.352
546.279
546.205
546.13
546.054
545.975
545.893
545.808
545.72
545.627
545.531
545.432
545.329
545.225
545.119
545.012
544.905
544.797
544.689
544.581
544.473
544.366
544.258
544.151
544.044
543.938
543.832
543.726
543.62
543.515
543.41
543.306
543.201
543.097
542.992
542.888
542.784
542.681
542.577
542.473
542.369
542.265
542.162
542.058
541.954
541.85
541.747
541.643
541.539
541.435
541.331
541.227
541.123
541.019
540.915
540.81
540.706
540.602
552.44
552.221
552.006
551.797
551.596
551.403
551.221
551.049
550.888
550.739
550.599
550.47
550.35
550.238
550.135
550.038
549.946
549.86
549.777
549.698
549.622
549.548
549.477
549.408
549.341
549.275
549.211
549.149
549.088
549.027
548.968
548.909
548.85
548.79
548.73
548.667
548.603
548.535
548.463
548.387
548.307
548.221
548.132
548.039
547.943
547.844
547.743
547.642
547.541
547.44
547.341
547.245
547.151
547.06
546.973
546.888
546.806
546.727
546.649
546.573
546.498
546.424
546.35
546.276
546.201
546.126
546.05
545.971
545.89
545.806
545.719
545.628
545.534
545.436
545.335
545.231
545.125
545.017
544.908
544.798
544.689
544.58
544.472
544.364
544.256
544.149
544.042
543.936
543.83
543.724
543.618
543.513
543.408
543.304
543.199
543.095
542.991
542.887
542.783
542.679
542.576
542.472
542.368
542.265
542.161
542.057
541.954
541.85
541.746
541.642
541.538
541.435
541.331
541.227
541.123
541.019
540.914
540.81
540.706
540.602
552.442
552.227
552.017
551.812
551.615
551.427
551.248
551.079
550.921
550.774
550.636
550.509
550.39
550.279
550.175
550.078
549.986
549.899
549.815
549.735
549.658
549.583
549.511
549.44
549.372
549.306
549.241
549.177
549.115
549.053
548.993
548.933
548.873
548.812
548.75
548.686
548.619
548.55
548.478
548.401
548.321
548.236
548.147
548.054
547.958
547.859
547.759
547.657
547.556
547.455
547.356
547.259
547.164
547.072
546.983
546.897
546.814
546.733
546.654
546.576
546.499
546.423
546.348
546.273
546.197
546.121
546.045
545.966
545.886
545.802
545.716
545.626
545.533
545.437
545.337
545.234
545.128
545.02
544.91
544.798
544.688
544.578
544.469
544.361
544.253
544.146
544.039
543.932
543.826
543.721
543.616
543.511
543.406
543.301
543.197
543.093
542.989
542.885
542.781
542.678
542.574
542.471
542.367
542.263
542.16
542.056
541.953
541.849
541.745
541.642
541.538
541.434
541.33
541.226
541.122
541.018
540.914
540.81
540.706
540.602
552.445
552.236
552.031
551.83
551.638
551.454
551.279
551.114
550.959
550.814
550.679
550.553
550.435
550.326
550.222
550.125
550.032
549.944
549.859
549.778
549.7
549.624
549.551
549.48
549.41
549.343
549.277
549.212
549.149
549.086
549.024
548.963
548.902
548.839
548.775
548.709
548.641
548.57
548.496
548.418
548.338
548.253
548.165
548.072
547.976
547.877
547.777
547.676
547.574
547.473
547.373
547.275
547.18
547.087
546.997
546.91
546.825
546.742
546.661
546.581
546.502
546.424
546.347
546.27
546.193
546.116
546.038
545.959
545.879
545.796
545.71
545.621
545.529
545.433
545.334
545.232
545.127
545.019
544.908
544.796
544.685
544.574
544.465
544.357
544.249
544.142
544.035
543.928
543.823
543.717
543.612
543.507
543.403
543.298
543.194
543.09
542.986
542.883
542.779
542.676
542.572
542.469
542.365
542.262
542.159
542.055
541.952
541.848
541.745
541.641
541.537
541.433
541.33
541.226
541.122
541.018
540.914
540.81
540.706
540.602
552.448
552.245
552.045
551.85
551.662
551.482
551.312
551.151
551
550.859
550.726
550.602
550.486
550.376
550.273
550.176
550.083
549.994
549.909
549.827
549.747
549.671
549.597
549.525
549.454
549.386
549.319
549.253
549.188
549.125
549.062
548.999
548.936
548.871
548.805
548.737
548.666
548.593
548.516
548.438
548.356
548.271
548.183
548.091
547.996
547.898
547.798
547.697
547.595
547.494
547.394
547.295
547.199
547.105
547.013
546.925
546.838
546.753
546.67
546.588
546.506
546.426
546.346
546.267
546.188
546.109
546.03
545.951
545.87
545.786
545.701
545.613
545.521
545.426
545.328
545.226
545.121
545.014
544.903
544.792
544.68
544.569
544.46
544.351
544.244
544.136
544.03
543.924
543.818
543.713
543.608
543.503
543.399
543.295
543.191
543.087
542.984
542.88
542.777
542.673
542.57
542.467
542.364
542.26
542.157
542.054
541.95
541.847
541.743
541.64
541.536
541.433
541.329
541.225
541.121
541.018
540.914
540.81
540.706
540.602
552.451
552.253
552.059
551.87
551.688
551.514
551.349
551.192
551.045
550.906
550.775
550.653
550.538
550.43
550.328
550.231
550.137
550.048
549.962
549.879
549.8
549.722
549.648
549.575
549.504
549.434
549.366
549.299
549.233
549.168
549.104
549.039
548.974
548.907
548.838
548.768
548.694
548.618
548.54
548.459
548.376
548.291
548.203
548.111
548.016
547.919
547.82
547.719
547.618
547.517
547.417
547.318
547.221
547.126
547.033
546.943
546.854
546.767
546.682
546.597
546.512
546.429
546.347
546.265
546.183
546.102
546.021
545.94
545.858
545.775
545.69
545.602
545.51
545.416
545.318
545.217
545.113
545.006
544.896
544.785
544.673
544.563
544.453
544.345
544.237
544.13
544.024
543.918
543.812
543.707
543.603
543.498
543.394
543.291
543.187
543.083
542.98
542.877
542.774
542.671
542.568
542.465
542.361
542.258
542.155
542.052
541.949
541.846
541.742
541.639
541.535
541.432
541.328
541.225
541.121
541.017
540.913
540.81
540.706
540.602
552.454
552.263
552.075
551.892
551.715
551.546
551.386
551.233
551.089
550.954
550.826
550.706
550.593
550.486
550.384
550.287
550.194
550.105
550.019
549.936
549.856
549.778
549.703
549.629
549.557
549.486
549.417
549.349
549.282
549.216
549.15
549.083
549.015
548.946
548.875
548.801
548.725
548.646
548.565
548.482
548.398
548.311
548.223
548.132
548.038
547.941
547.843
547.743
547.642
547.541
547.441
547.342
547.245
547.15
547.057
546.965
546.874
546.784
546.695
546.608
546.521
546.434
546.349
546.264
546.18
546.096
546.013
545.93
545.847
545.762
545.677
545.588
545.497
545.403
545.306
545.206
545.102
544.995
544.886
544.775
544.664
544.554
544.445
544.337
544.23
544.123
544.017
543.911
543.806
543.701
543.597
543.493
543.389
543.286
543.183
543.079
542.976
542.873
542.77
542.668
542.565
542.462
542.359
542.256
542.153
542.05
541.947
541.844
541.741
541.638
541.534
541.431
541.328
541.224
541.12
541.017
540.913
540.809
540.706
540.602
552.457
552.273
552.091
551.914
551.743
551.58
551.423
551.275
551.135
551.003
550.878
550.76
550.649
550.543
550.443
550.346
550.253
550.164
550.078
549.995
549.915
549.837
549.761
549.686
549.613
549.541
549.471
549.401
549.333
549.264
549.196
549.127
549.057
548.985
548.911
548.835
548.756
548.674
548.591
548.506
548.42
548.332
548.243
548.152
548.059
547.963
547.865
547.767
547.667
547.567
547.468
547.37
547.273
547.177
547.083
546.989
546.896
546.803
546.712
546.621
546.531
546.442
546.353
546.265
546.177
546.091
546.005
545.919
545.834
545.749
545.662
545.573
545.482
545.388
545.292
545.192
545.089
544.983
544.874
544.764
544.654
544.544
544.436
544.328
544.221
544.114
544.009
543.903
543.799
543.695
543.591
543.487
543.384
543.281
543.178
543.075
542.972
542.869
542.767
542.664
542.562
542.459
542.356
542.254
542.151
542.048
541.945
541.843
541.739
541.636
541.533
541.43
541.327
541.223
541.12
541.016
540.913
540.809
540.705
540.602
552.46
552.282
552.107
551.936
551.772
551.613
551.462
551.318
551.182
551.053
550.931
550.816
550.706
550.602
550.502
550.406
550.314
550.225
550.14
550.057
549.977
549.898
549.821
549.745
549.671
549.598
549.525
549.454
549.384
549.313
549.243
549.171
549.099
549.024
548.947
548.868
548.787
548.703
548.617
548.53
548.442
548.353
548.263
548.172
548.079
547.984
547.888
547.791
547.692
547.594
547.495
547.398
547.301
547.206
547.111
547.015
546.92
546.825
546.73
546.637
546.544
546.451
546.359
546.268
546.177
546.087
545.997
545.909
545.821
545.734
545.646
545.556
545.465
545.371
545.275
545.176
545.073
544.968
544.861
544.752
544.642
544.533
544.424
544.317
544.211
544.105
544
543.895
543.791
543.687
543.584
543.48
543.378
543.275
543.172
543.07
542.967
542.865
542.763
542.661
542.558
542.456
542.354
542.251
542.149
542.046
541.944
541.841
541.738
541.635
541.532
541.429
541.326
541.222
541.119
541.016
540.912
540.809
540.705
540.602
552.464
552.292
552.124
551.959
551.8
551.647
551.501
551.362
551.229
551.104
550.985
550.872
550.765
550.662
550.563
550.468
550.377
550.288
550.203
550.12
550.04
549.96
549.882
549.805
549.729
549.654
549.58
549.507
549.434
549.362
549.289
549.215
549.139
549.062
548.982
548.9
548.817
548.73
548.643
548.554
548.464
548.374
548.283
548.191
548.099
548.005
547.91
547.814
547.717
547.62
547.522
547.426
547.33
547.234
547.138
547.042
546.945
546.848
546.751
546.655
546.559
546.463
546.368
546.273
546.178
546.084
545.991
545.899
545.809
545.719
545.629
545.539
545.447
545.353
545.257
545.158
545.056
544.952
544.845
544.737
544.628
544.519
544.412
544.305
544.199
544.094
543.989
543.885
543.782
543.679
543.576
543.473
543.371
543.269
543.166
543.064
542.962
542.861
542.759
542.657
542.555
542.453
542.351
542.248
542.146
542.044
541.941
541.839
541.736
541.633
541.531
541.428
541.325
541.222
541.118
541.015
540.912
540.808
540.705
540.602
552.467
552.303
552.141
551.983
551.829
551.682
551.541
551.406
551.277
551.156
551.04
550.93
550.824
550.723
550.625
550.531
550.44
550.353
550.268
550.185
550.103
550.023
549.944
549.865
549.787
549.711
549.635
549.559
549.484
549.409
549.333
549.256
549.177
549.097
549.015
548.931
548.844
548.756
548.666
548.576
548.485
548.394
548.302
548.21
548.118
548.025
547.931
547.836
547.74
547.644
547.548
547.452
547.356
547.26
547.164
547.067
546.97
546.872
546.773
546.674
546.575
546.477
546.378
546.28
546.181
546.083
545.985
545.89
545.796
545.703
545.611
545.519
545.426
545.332
545.236
545.138
545.037
544.934
544.828
544.721
544.612
544.505
544.398
544.292
544.187
544.082
543.978
543.875
543.772
543.67
543.567
543.465
543.364
543.262
543.16
543.059
542.957
542.856
542.754
542.653
542.551
542.449
542.347
542.246
542.144
542.041
541.939
541.837
541.734
541.632
541.529
541.426
541.324
541.221
541.118
541.015
540.911
540.808
540.705
540.602
552.471
552.314
552.158
552.006
551.859
551.717
551.581
551.45
551.326
551.208
551.096
550.988
550.884
550.784
550.688
550.595
550.505
550.417
550.332
550.249
550.166
550.085
550.004
549.924
549.845
549.766
549.688
549.61
549.532
549.454
549.375
549.295
549.213
549.13
549.045
548.958
548.87
548.78
548.688
548.596
548.504
548.412
548.32
548.227
548.135
548.043
547.95
547.856
547.761
547.666
547.571
547.476
547.38
547.285
547.189
547.092
546.995
546.896
546.796
546.696
546.594
546.493
546.391
546.288
546.185
546.083
545.981
545.88
545.782
545.687
545.592
545.499
545.405
545.31
545.214
545.116
545.016
544.913
544.809
544.703
544.595
544.488
544.382
544.277
544.173
544.069
543.966
543.864
543.762
543.66
543.558
543.457
543.356
543.255
543.154
543.053
542.952
542.85
542.749
542.648
542.547
542.446
542.344
542.242
542.141
542.039
541.937
541.835
541.733
541.63
541.528
541.425
541.323
541.22
541.117
541.014
540.911
540.808
540.705
540.602
552.474
552.324
552.175
552.03
551.888
551.752
551.621
551.495
551.375
551.26
551.151
551.045
550.944
550.846
550.751
550.659
550.569
550.482
550.396
550.311
550.228
550.145
550.063
549.982
549.901
549.82
549.74
549.66
549.579
549.498
549.415
549.332
549.247
549.16
549.073
548.984
548.893
548.801
548.709
548.615
548.522
548.428
548.336
548.243
548.151
548.059
547.966
547.873
547.78
547.686
547.592
547.498
547.404
547.309
547.214
547.117
547.02
546.921
546.82
546.718
546.614
546.51
546.404
546.298
546.191
546.083
545.977
545.872
545.769
545.67
545.573
545.477
545.381
545.286
545.189
545.092
544.993
544.891
544.788
544.683
544.576
544.47
544.365
544.261
544.158
544.055
543.953
543.852
543.75
543.649
543.549
543.448
543.348
543.247
543.147
543.046
542.946
542.845
542.744
542.644
542.543
542.442
542.341
542.239
542.138
542.036
541.935
541.833
541.731
541.629
541.526
541.424
541.321
541.219
541.116
541.013
540.91
540.807
540.704
540.601
552.478
552.334
552.192
552.053
551.917
551.786
551.66
551.539
551.423
551.312
551.205
551.102
551.003
550.907
550.813
550.721
550.632
550.544
550.458
550.373
550.288
550.204
550.121
550.038
549.955
549.872
549.79
549.707
549.623
549.539
549.453
549.366
549.278
549.189
549.099
549.008
548.915
548.821
548.727
548.632
548.537
548.443
548.35
548.257
548.165
548.073
547.981
547.889
547.797
547.705
547.613
547.52
547.426
547.333
547.238
547.141
547.044
546.945
546.843
546.74
546.635
546.527
546.418
546.308
546.196
546.084
545.973
545.863
545.755
545.652
545.552
545.453
545.356
545.26
545.163
545.066
544.968
544.867
544.765
544.662
544.556
544.451
544.347
544.244
544.142
544.04
543.939
543.839
543.739
543.639
543.539
543.439
543.339
543.239
543.139
543.039
542.94
542.839
542.739
542.639
542.538
542.438
542.337
542.236
542.135
542.034
541.932
541.831
541.729
541.627
541.525
541.423
541.32
541.218
541.115
541.013
540.91
540.807
540.704
540.601
552.481
552.343
552.208
552.075
551.945
551.819
551.698
551.582
551.47
551.362
551.258
551.158
551.06
550.966
550.873
550.782
550.693
550.605
550.518
550.432
550.347
550.262
550.177
550.092
550.007
549.923
549.837
549.751
549.665
549.577
549.489
549.399
549.308
549.216
549.123
549.029
548.934
548.839
548.742
548.646
548.551
548.456
548.362
548.269
548.177
548.086
547.994
547.904
547.813
547.722
547.631
547.54
547.448
547.355
547.26
547.165
547.067
546.968
546.866
546.762
546.655
546.545
546.432
546.318
546.202
546.085
545.968
545.853
545.741
545.633
545.529
545.428
545.329
545.232
545.135
545.038
544.941
544.842
544.741
544.639
544.534
544.431
544.328
544.226
544.125
544.025
543.925
543.825
543.726
543.627
543.528
543.429
543.33
543.231
543.132
543.033
542.933
542.834
542.734
542.634
542.534
542.434
542.333
542.233
542.132
542.031
541.93
541.828
541.727
541.625
541.523
541.421
541.319
541.217
541.114
541.012
540.909
540.807
540.704
540.601
552.484
552.353
552.223
552.096
551.972
551.851
551.735
551.622
551.514
551.409
551.308
551.211
551.116
551.022
550.931
550.841
550.752
550.664
550.577
550.49
550.404
550.318
550.231
550.145
550.058
549.97
549.882
549.794
549.704
549.613
549.521
549.429
549.335
549.24
549.145
549.049
548.951
548.853
548.756
548.659
548.563
548.468
548.373
548.28
548.188
548.097
548.007
547.917
547.828
547.739
547.649
547.559
547.468
547.376
547.283
547.188
547.091
546.991
546.889
546.784
546.675
546.562
546.446
546.327
546.207
546.085
545.963
545.842
545.724
545.611
545.504
545.4
545.3
545.201
545.104
545.008
544.912
544.814
544.715
544.615
544.511
544.409
544.308
544.207
544.108
544.009
543.91
543.812
543.713
543.615
543.517
543.419
543.321
543.223
543.124
543.026
542.927
542.828
542.729
542.629
542.53
542.43
542.33
542.229
542.129
542.028
541.927
541.826
541.725
541.623
541.522
541.42
541.318
541.216
541.114
541.011
540.909
540.806
540.704
540.601
552.487
552.361
552.237
552.115
551.997
551.881
551.769
551.661
551.556
551.455
551.357
551.262
551.169
551.077
550.986
550.897
550.809
550.721
550.633
550.546
550.459
550.371
550.283
550.195
550.106
550.016
549.925
549.833
549.74
549.646
549.552
549.456
549.36
549.263
549.165
549.066
548.967
548.867
548.769
548.671
548.574
548.478
548.384
548.291
548.199
548.108
548.019
547.931
547.843
547.755
547.666
547.577
547.488
547.397
547.305
547.21
547.114
547.014
546.912
546.805
546.694
546.578
546.459
546.335
546.21
546.082
545.954
545.828
545.705
545.588
545.476
545.37
545.267
545.168
545.071
544.975
544.88
544.785
544.688
544.589
544.487
544.386
544.287
544.188
544.09
543.992
543.895
543.797
543.7
543.603
543.506
543.409
543.312
543.214
543.116
543.018
542.92
542.822
542.723
542.624
542.525
542.426
542.326
542.226
542.126
542.026
541.925
541.824
541.723
541.622
541.52
541.419
541.317
541.215
541.113
541.011
540.908
540.806
540.704
540.601
552.49
552.369
552.25
552.134
552.02
551.909
551.801
551.697
551.596
551.498
551.403
551.31
551.219
551.129
551.039
550.951
550.863
550.775
550.688
550.6
550.511
550.422
550.333
550.242
550.15
550.058
549.964
549.869
549.773
549.677
549.58
549.482
549.383
549.284
549.184
549.083
548.982
548.881
548.781
548.682
548.585
548.489
548.395
548.302
548.211
548.121
548.032
547.944
547.857
547.771
547.684
547.596
547.508
547.418
547.327
547.234
547.138
547.038
546.934
546.826
546.713
546.594
546.471
546.343
546.212
546.079
545.945
545.813
545.684
545.561
545.445
545.336
545.232
545.132
545.035
544.94
544.846
544.753
544.658
544.562
544.463
544.364
544.266
544.168
544.072
543.975
543.879
543.783
543.687
543.591
543.495
543.399
543.302
543.206
543.109
543.011
542.914
542.816
542.718
542.62
542.521
542.422
542.322
542.223
542.123
542.023
541.923
541.822
541.721
541.62
541.519
541.417
541.316
541.214
541.112
541.01
540.908
540.806
540.703
540.601
552.492
552.377
552.263
552.151
552.041
551.934
551.831
551.73
551.633
551.538
551.446
551.355
551.266
551.177
551.089
551.001
550.914
550.827
550.739
550.65
550.561
550.47
550.379
550.286
550.191
550.096
549.999
549.901
549.803
549.704
549.605
549.506
549.406
549.305
549.203
549.1
548.997
548.895
548.794
548.694
548.597
548.502
548.408
548.316
548.225
548.136
548.048
547.962
547.875
547.79
547.704
547.617
547.53
547.442
547.352
547.259
547.163
547.062
546.957
546.847
546.732
546.611
546.483
546.351
546.214
546.074
545.934
545.795
545.66
545.532
545.411
545.299
545.193
545.092
544.995
544.901
544.809
544.718
544.627
544.535
544.439
544.341
544.245
544.149
544.054
543.959
543.864
543.769
543.674
543.579
543.484
543.388
543.293
543.197
543.101
543.004
542.907
542.81
542.713
542.615
542.516
542.418
542.319
542.22
542.12
542.02
541.92
541.82
541.719
541.618
541.517
541.416
541.315
541.213
541.111
541.009
540.907
540.805
540.703
540.601
552.494
552.383
552.273
552.166
552.06
551.958
551.858
551.761
551.667
551.575
551.485
551.396
551.309
551.222
551.135
551.048
550.961
550.874
550.786
550.697
550.606
550.514
550.421
550.325
550.228
550.13
550.031
549.93
549.83
549.729
549.629
549.528
549.427
549.324
549.221
549.116
549.012
548.909
548.807
548.708
548.611
548.516
548.424
548.333
548.244
548.156
548.07
547.984
547.899
547.814
547.729
547.644
547.558
547.47
547.38
547.288
547.191
547.09
546.983
546.871
546.752
546.627
546.495
546.357
546.213
546.067
545.92
545.774
545.633
545.499
545.374
545.258
545.15
545.049
544.953
544.861
544.771
544.682
544.594
544.506
544.415
544.32
544.225
544.131
544.037
543.943
543.849
543.755
543.661
543.567
543.473
543.378
543.283
543.188
543.093
542.997
542.901
542.804
542.707
542.61
542.512
542.414
542.316
542.217
542.117
542.018
541.918
541.818
541.717
541.617
541.516
541.415
541.314
541.212
541.11
541.009
540.907
540.805
540.703
540.601
552.496
552.389
552.283
552.179
552.077
551.978
551.881
551.787
551.696
551.607
551.519
551.433
551.347
551.261
551.176
551.09
551.004
550.917
550.829
550.739
550.647
550.554
550.458
550.36
550.26
550.16
550.058
549.955
549.853
549.751
549.649
549.548
549.446
549.342
549.237
549.131
549.027
548.924
548.823
548.725
548.628
548.535
548.444
548.356
548.27
548.184
548.1
548.016
547.931
547.847
547.763
547.678
547.593
547.505
547.415
547.321
547.223
547.121
547.012
546.898
546.776
546.646
546.508
546.363
546.212
546.059
545.904
545.751
545.604
545.464
545.333
545.214
545.105
545.003
544.908
544.818
544.73
544.645
544.561
544.477
544.389
544.298
544.206
544.114
544.021
543.927
543.834
543.741
543.648
543.555
543.462
543.368
543.274
543.18
543.086
542.99
542.895
542.799
542.703
542.606
542.508
542.41
542.312
542.214
542.115
542.015
541.916
541.816
541.716
541.615
541.515
541.414
541.313
541.211
541.11
541.008
540.906
540.805
540.703
540.601
552.498
552.394
552.291
552.19
552.091
551.994
551.901
551.81
551.721
551.634
551.548
551.463
551.379
551.295
551.211
551.126
551.041
550.954
550.866
550.775
550.682
550.587
550.489
550.389
550.287
550.184
550.08
549.976
549.872
549.769
549.666
549.565
549.463
549.359
549.253
549.146
549.042
548.94
548.841
548.745
548.65
548.559
548.472
548.388
548.306
548.224
548.142
548.06
547.977
547.894
547.81
547.726
547.639
547.55
547.457
547.361
547.261
547.156
547.046
546.928
546.802
546.667
546.522
546.37
546.212
546.051
545.889
545.729
545.574
545.427
545.292
545.169
545.058
544.957
544.863
544.774
544.689
544.607
544.527
544.448
544.365
544.279
544.19
544.098
544.006
543.913
543.82
543.728
543.635
543.543
543.451
543.358
543.265
543.172
543.078
542.984
542.889
542.794
542.698
542.601
542.504
542.407
542.309
542.211
542.112
542.013
541.914
541.814
541.714
541.614
541.513
541.413
541.312
541.21
541.109
541.008
540.906
540.804
540.703
540.601
552.499
552.397
552.297
552.198
552.101
552.007
551.915
551.826
551.739
551.654
551.57
551.487
551.404
551.322
551.239
551.155
551.07
550.984
550.895
550.804
550.71
550.612
550.513
550.41
550.306
550.201
550.096
549.991
549.887
549.783
549.68
549.579
549.477
549.373
549.268
549.162
549.059
548.959
548.864
548.77
548.678
548.59
548.508
548.43
548.355
548.279
548.203
548.123
548.04
547.957
547.875
547.791
547.703
547.609
547.511
547.41
547.306
547.198
547.083
546.961
546.83
546.689
546.537
546.377
546.211
546.042
545.873
545.704
545.542
545.39
545.251
545.125
545.013
544.912
544.819
544.731
544.648
544.569
544.493
544.419
544.345
544.265
544.177
544.085
543.992
543.899
543.806
543.714
543.623
543.532
543.44
543.349
543.257
543.164
543.071
542.978
542.884
542.789
542.693
542.597
542.501
542.404
542.306
542.208
542.11
542.011
541.912
541.813
541.713
541.613
541.512
541.412
541.311
541.21
541.109
541.007
540.906
540.804
540.703
540.601
552.5
552.399
552.3
552.203
552.108
552.015
551.925
551.837
551.751
551.667
551.585
551.503
551.423
551.342
551.26
551.177
551.093
551.006
550.916
550.824
550.728
550.629
550.527
550.424
550.318
550.212
550.106
550
549.895
549.791
549.688
549.587
549.486
549.385
549.282
549.18
549.079
548.981
548.889
548.799
548.712
548.631
548.555
548.485
548.42
548.355
548.286
548.209
548.124
548.042
547.965
547.884
547.792
547.69
547.582
547.47
547.357
547.242
547.123
546.995
546.86
546.712
546.55
546.38
546.206
546.03
545.85
545.677
545.511
545.356
545.214
545.087
544.976
544.879
544.786
544.694
544.61
544.533
544.463
544.396
544.331
544.259
544.17
544.074
543.979
543.885
543.792
543.701
543.611
543.521
543.43
543.34
543.249
543.157
543.065
542.972
542.878
542.784
542.689
542.594
542.498
542.401
542.304
542.206
542.108
542.009
541.91
541.811
541.711
541.611
541.511
541.411
541.31
541.209
541.108
541.007
540.905
540.804
540.702
540.601
552.5
552.4
552.301
552.204
552.11
552.017
551.928
551.84
551.755
551.672
551.592
551.513
551.434
551.355
551.274
551.191
551.106
551.019
550.928
550.834
550.736
550.635
550.532
550.426
550.32
550.213
550.106
549.999
549.893
549.789
549.688
549.588
549.49
549.392
549.293
549.195
549.099
549.006
548.918
548.834
548.754
548.683
548.615
548.551
548.499
548.452
548.395
548.322
548.234
548.152
548.088
548.012
547.912
547.803
547.682
547.539
547.406
547.281
547.158
547.026
546.889
546.734
546.562
546.38
546.198
546.014
545.82
545.651
545.49
545.329
545.182
545.059
544.954
544.868
544.777
544.669
544.573
544.495
544.434
544.375
544.325
544.272
544.168
544.063
543.964
543.87
543.778
543.688
543.599
543.51
543.421
543.332
543.241
543.151
543.059
542.967
542.874
542.78
542.686
542.59
542.495
542.398
542.301
542.204
542.106
542.008
541.909
541.81
541.71
541.61
541.51
541.41
541.309
541.209
541.108
541.006
540.905
540.804
540.702
540.601
552.499
552.398
552.299
552.202
552.107
552.014
551.924
551.836
551.75
551.668
551.59
551.514
551.438
551.36
551.28
551.198
551.112
551.023
550.931
550.834
550.734
550.63
550.524
550.417
550.309
550.202
550.092
549.983
549.876
549.774
549.678
549.584
549.492
549.397
549.302
549.21
549.119
549.031
548.949
548.877
548.81
548.751
548.687
548.62
548.576
548.56
548.524
548.461
548.382
548.3
548.257
548.179
548.057
547.962
547.844
547.596
547.43
547.3
547.184
547.047
546.922
546.754
546.567
546.375
546.186
545.994
545.749
545.644
545.51
545.322
545.146
545.048
544.96
544.897
544.817
544.65
544.521
544.435
544.404
544.355
544.328
544.339
544.168
544.045
543.944
543.851
543.762
543.674
543.587
543.5
543.412
543.324
543.235
543.145
543.054
542.962
542.87
542.777
542.682
542.588
542.492
542.396
542.299
542.202
542.105
542.006
541.908
541.809
541.709
541.61
541.51
541.409
541.309
541.208
541.107
541.006
540.905
540.804
540.702
540.601
552.498
552.395
552.294
552.196
552.1
552.006
551.913
551.823
551.736
551.654
551.577
551.504
551.433
551.359
551.279
551.197
551.111
551.022
550.928
550.828
550.723
550.614
550.504
550.394
550.283
550.171
550.054
549.938
549.83
549.738
549.662
549.587
549.507
549.418
549.317
549.225
549.135
549.05
548.98
548.932
548.878
548.824
548.756
548.692
548.636
548.648
548.589
548.596
548.498
548.384
548.369
548.239
548.078
548.019
547.932
547.762
547.55
547.344
547.192
547.054
546.937
546.757
546.604
546.418
546.2
545.987
545.723
545.62
545.546
545.325
545.14
545.054
544.952
544.886
544.834
544.685
544.469
544.348
544.376
544.331
544.317
544.319
544.126
544.005
543.912
543.828
543.744
543.661
543.576
543.491
543.405
543.317
543.229
543.14
543.05
542.959
542.866
542.774
542.68
542.585
542.49
542.394
542.298
542.201
542.103
542.005
541.907
541.808
541.709
541.609
541.509
541.409
541.308
541.208
541.107
541.006
540.905
540.803
540.702
540.601
552.496
552.39
552.287
552.188
552.09
551.993
551.897
551.804
551.711
551.626
551.55
551.481
551.416
551.349
551.271
551.19
551.107
551.019
550.921
550.818
550.708
550.59
550.471
550.354
550.237
550.11
549.971
549.839
549.734
549.671
549.655
549.623
549.572
549.488
549.349
549.249
549.143
549.047
549.004
549.028
549.028
548.961
548.845
548.69
548.679
548.717
548.76
548.73
548.601
548.461
548.429
548.325
548.132
548.084
548.024
547.893
547.642
547.376
547.157
547.048
546.937
546.76
546.676
546.535
546.274
545.986
545.602
545.686
545.741
545.319
545.098
545.065
545.01
544.876
544.864
544.633
544.359
544.288
544.363
544.262
544.355
544.258
544.039
543.941
543.871
543.801
543.726
543.648
543.566
543.483
543.398
543.312
543.225
543.136
543.046
542.956
542.864
542.771
542.678
542.584
542.489
542.393
542.297
542.2
542.102
542.004
541.906
541.807
541.708
541.608
541.509
541.408
541.308
541.208
541.107
541.006
540.905
540.803
540.702
540.601
552.493
552.383
552.279
552.178
552.078
551.978
551.875
551.777
551.672
551.579
551.5
551.434
551.381
551.336
551.252
551.176
551.104
551.013
550.91
550.807
550.695
550.562
550.427
550.298
550.169
550.003
549.807
549.659
549.573
549.57
549.657
549.697
549.716
549.667
549.388
549.249
549.094
549.103
549.145
549.248
549.237
549.128
548.899
548.645
548.48
548.542
548.861
548.91
548.753
548.529
548.489
548.397
548.173
548.091
548.125
547.999
547.695
547.381
547.052
547.066
546.957
546.767
546.71
546.607
546.39
546.089
545.348
545.761
545.993
545.278
545.053
545.205
545.148
544.667
544.771
544.86
544.623
544.115
544.252
543.814
544.251
544.194
543.911
543.873
543.83
543.777
543.711
543.637
543.559
543.477
543.393
543.308
543.221
543.133
543.044
542.954
542.862
542.77
542.676
542.582
542.487
542.392
542.296
542.199
542.102
542.004
541.905
541.807
541.708
541.608
541.508
541.408
541.308
541.207
541.107