/*--------------------------------*- C++ -*----------------------------------*\
  =========                 |
  \\      /  F ield         | OpenFOAM: The Open Source CFD Toolbox
   \\    /   O peration     | Website:  https://openfoam.org
    \\  /    A nd           | Version:  6
     \\/     M anipulation  |
\*---------------------------------------------------------------------------*/
FoamFile
{
    version     2.0;
    format      ascii;
    class       volScalarField;
    location    "100";
    object      Su;
}
// * * * * * * * * * * * * * * * * * * * * * * * * * * * * * * * * * * * * * //

dimensions      [0 0 -1 0 0 0 0];

internalField   nonuniform List<scalar> 
4800
(
0.219435
0.217123
0.214808
0.212487
0.21016
0.207824
0.205476
0.203116
0.200741
0.19835
0.195942
0.193514
0.191065
0.188595
0.186102
0.183584
0.181043
0.178475
0.175882
0.173263
0.170617
0.167944
0.165245
0.16252
0.159769
0.156992
0.154191
0.151366
0.148517
0.145646
0.142754
0.139842
0.136911
0.133963
0.130999
0.12802
0.125027
0.122023
0.119009
0.115986
0.112956
0.10992
0.106879
0.103836
0.100791
0.0977458
0.0947019
0.0916603
0.0886225
0.0855894
0.0825624
0.0795423
0.0765302
0.073527
0.0705336
0.0675507
0.0645791
0.0616193
0.058672
0.0557375
0.0528162
0.0499085
0.0470144
0.0441341
0.0412676
0.0384147
0.0355753
0.032749
0.0299355
0.0271344
0.024345
0.0215668
0.018799
0.0160409
0.0132915
0.0105501
0.00781551
0.00508684
0.00236299
-0.00027474
-0.00357509
-0.00678779
-0.0099923
-0.0131858
-0.0163656
-0.019529
-0.0226735
-0.0257966
-0.0288962
-0.03197
-0.035016
-0.0380325
-0.0410177
-0.0439701
-0.0468886
-0.0497718
-0.0526191
-0.0554297
-0.0582031
-0.060939
-0.0636374
-0.0662986
-0.0689228
-0.0715106
-0.0740629
-0.0765807
-0.0790652
-0.0815177
-0.0839399
-0.0863334
-0.0887003
-0.0910425
-0.0933622
-0.0956618
-0.0979438
-0.100211
-0.102465
-0.104709
-0.106947
-0.10918
0.219435
0.217123
0.214809
0.212488
0.210161
0.207825
0.205478
0.203118
0.200744
0.198353
0.195944
0.193517
0.191068
0.188598
0.186105
0.183588
0.181046
0.178479
0.175886
0.173266
0.170621
0.167948
0.165249
0.162524
0.159773
0.156996
0.154195
0.151369
0.14852
0.145649
0.142757
0.139845
0.136915
0.133966
0.131002
0.128023
0.125031
0.122027
0.119012
0.115989
0.112959
0.109923
0.106883
0.103839
0.100794
0.0977489
0.0947049
0.0916633
0.0886254
0.0855922
0.082565
0.0795448
0.0765325
0.0735291
0.0705355
0.0675524
0.0645805
0.0616206
0.058673
0.0557383
0.0528168
0.0499089
0.0470146
0.0441341
0.0412674
0.0384144
0.0355749
0.0327485
0.029935
0.0271338
0.0243444
0.0215662
0.0187984
0.0160403
0.013291
0.0105496
0.00781507
0.00508648
0.00236269
-0.000275057
-0.00357589
-0.006789
-0.00999389
-0.0131878
-0.0163679
-0.0195316
-0.0226764
-0.0257998
-0.0288997
-0.0319737
-0.03502
-0.0380366
-0.041022
-0.0439746
-0.0468931
-0.0497765
-0.0526238
-0.0554344
-0.0582078
-0.0609438
-0.0636422
-0.0663032
-0.0689273
-0.0715151
-0.0740672
-0.0765848
-0.0790691
-0.0815214
-0.0839433
-0.0863366
-0.0887032
-0.0910451
-0.0933645
-0.0956639
-0.0979455
-0.100212
-0.102466
-0.10471
-0.106947
-0.10918
0.219436
0.217124
0.214809
0.212489
0.210162
0.207826
0.205479
0.203119
0.200745
0.198355
0.195946
0.193519
0.19107
0.1886
0.186107
0.18359
0.181048
0.178481
0.175888
0.173269
0.170623
0.167951
0.165252
0.162527
0.159776
0.156999
0.154198
0.151372
0.148524
0.145653
0.142761
0.139849
0.136919
0.133971
0.131006
0.128028
0.125036
0.122032
0.119018
0.115995
0.112965
0.109929
0.106889
0.103846
0.100801
0.0977562
0.0947123
0.0916708
0.0886328
0.0855996
0.0825723
0.0795519
0.0765394
0.0735358
0.0705418
0.0675584
0.0645862
0.0616258
0.0586778
0.0557426
0.0528207
0.0499124
0.0470177
0.0441368
0.0412697
0.0384163
0.0355765
0.0327498
0.029936
0.0271346
0.024345
0.0215666
0.0187987
0.0160405
0.0132911
0.0105496
0.00781511
0.00508649
0.00236268
-0.000275244
-0.00357625
-0.00678966
-0.00999483
-0.013189
-0.0163693
-0.0195333
-0.0226783
-0.0258019
-0.0289019
-0.0319761
-0.0350225
-0.0380393
-0.0410248
-0.0439775
-0.0468961
-0.0497795
-0.0526269
-0.0554375
-0.0582109
-0.0609469
-0.0636452
-0.0663062
-0.0689303
-0.0715179
-0.07407
-0.0765875
-0.0790717
-0.0815238
-0.0839456
-0.0863387
-0.0887051
-0.0910468
-0.0933661
-0.0956652
-0.0979466
-0.100213
-0.102467
-0.10471
-0.106947
-0.10918
0.219436
0.217124
0.21481
0.21249
0.210163
0.207827
0.20548
0.203121
0.200747
0.198356
0.195948
0.19352
0.191072
0.188602
0.186109
0.183592
0.181051
0.178484
0.175891
0.173272
0.170626
0.167954
0.165255
0.16253
0.159779
0.157003
0.154202
0.151376
0.148528
0.145657
0.142766
0.139854
0.136924
0.133976
0.131013
0.128034
0.125043
0.12204
0.119026
0.116004
0.112975
0.109939
0.106899
0.103857
0.100812
0.0977675
0.0947238
0.0916824
0.0886445
0.0856113
0.0825838
0.0795632
0.0765504
0.0735463
0.0705519
0.067568
0.0645952
0.0616342
0.0586855
0.0557498
0.0528272
0.0499181
0.0470228
0.0441413
0.0412737
0.0384197
0.0355793
0.0327522
0.029938
0.0271362
0.0243463
0.0215676
0.0187995
0.0160411
0.0132915
0.01055
0.00781535
0.00508666
0.00236281
-0.000275427
-0.00357647
-0.00679019
-0.00999564
-0.01319
-0.0163706
-0.0195348
-0.02268
-0.0258038
-0.028904
-0.0319783
-0.0350249
-0.0380418
-0.0410274
-0.0439802
-0.0468989
-0.0497824
-0.0526298
-0.0554405
-0.0582139
-0.0609498
-0.0636481
-0.0663091
-0.0689331
-0.0715206
-0.0740726
-0.07659
-0.0790741
-0.0815261
-0.0839477
-0.0863407
-0.0887069
-0.0910484
-0.0933675
-0.0956664
-0.0979476
-0.100214
-0.102467
-0.104711
-0.106948
-0.10918
0.219436
0.217124
0.21481
0.212491
0.210164
0.207828
0.205482
0.203122
0.200748
0.198358
0.19595
0.193522
0.191074
0.188604
0.186111
0.183595
0.181053
0.178486
0.175894
0.173275
0.170629
0.167957
0.165258
0.162533
0.159783
0.157007
0.154206
0.151381
0.148533
0.145663
0.142772
0.139861
0.136931
0.133984
0.131021
0.128043
0.125052
0.12205
0.119037
0.116016
0.112987
0.109952
0.106913
0.103871
0.100827
0.0977828
0.0947394
0.0916982
0.0886604
0.0856271
0.0825995
0.0795785
0.0765653
0.0735607
0.0705657
0.067581
0.0646074
0.0616456
0.0586961
0.0557594
0.052836
0.049926
0.0470298
0.0441475
0.041279
0.0384243
0.0355833
0.0327555
0.0299407
0.0271385
0.0243481
0.0215691
0.0188006
0.0160419
0.0132922
0.0105504
0.00781571
0.00508694
0.00236303
-0.000275615
-0.00357661
-0.00679062
-0.00999634
-0.013191
-0.0163718
-0.0195362
-0.0226816
-0.0258056
-0.0289059
-0.0319804
-0.0350271
-0.0380441
-0.0410298
-0.0439827
-0.0469015
-0.049785
-0.0526325
-0.0554432
-0.0582166
-0.0609525
-0.0636508
-0.0663118
-0.0689357
-0.0715232
-0.0740751
-0.0765924
-0.0790763
-0.0815282
-0.0839497
-0.0863425
-0.0887086
-0.09105
-0.0933689
-0.0956676
-0.0979486
-0.100215
-0.102468
-0.104711
-0.106948
-0.10918
0.219436
0.217125
0.21481
0.212491
0.210165
0.207829
0.205483
0.203123
0.200749
0.198359
0.195951
0.193524
0.191076
0.188606
0.186114
0.183597
0.181056
0.178489
0.175896
0.173277
0.170632
0.16796
0.165262
0.162537
0.159787
0.157011
0.15421
0.151386
0.148539
0.145669
0.142778
0.139868
0.136939
0.133993
0.131031
0.128054
0.125064
0.122063
0.119051
0.11603
0.113003
0.109969
0.106931
0.103889
0.100846
0.0978022
0.0947592
0.0917183
0.0886805
0.0856471
0.0826192
0.0795979
0.0765841
0.0735788
0.070583
0.0675974
0.0646227
0.0616598
0.0587092
0.0557713
0.0528467
0.0499356
0.0470383
0.0441549
0.0412855
0.0384299
0.0355879
0.0327594
0.0299439
0.027141
0.0243501
0.0215706
0.0188018
0.0160428
0.0132929
0.0105509
0.00781607
0.00508722
0.00236327
-0.000275794
-0.00357669
-0.00679099
-0.00999698
-0.0131919
-0.0163729
-0.0195375
-0.0226831
-0.0258072
-0.0289077
-0.0319824
-0.0350292
-0.0380463
-0.0410321
-0.0439851
-0.0469039
-0.0497876
-0.0526351
-0.0554458
-0.0582192
-0.0609551
-0.0636534
-0.0663143
-0.0689382
-0.0715256
-0.0740775
-0.0765947
-0.0790785
-0.0815303
-0.0839516
-0.0863443
-0.0887102
-0.0910515
-0.0933702
-0.0956688
-0.0979496
-0.100215
-0.102468
-0.104712
-0.106948
-0.10918
0.219436
0.217125
0.214811
0.212492
0.210165
0.20783
0.205484
0.203124
0.200751
0.198361
0.195953
0.193526
0.191078
0.188608
0.186116
0.183599
0.181058
0.178492
0.175899
0.17328
0.170635
0.167964
0.165266
0.162541
0.159791
0.157016
0.154216
0.151392
0.148545
0.145676
0.142786
0.139877
0.136949
0.134003
0.131042
0.128067
0.125078
0.122078
0.119067
0.116048
0.113021
0.109989
0.106952
0.103911
0.100869
0.0978257
0.0947832
0.0917425
0.0887048
0.0856713
0.0826431
0.0796212
0.0766066
0.0736004
0.0706035
0.0676167
0.0646408
0.0616765
0.0587244
0.0557852
0.0528591
0.0499466
0.047048
0.0441633
0.0412926
0.0384359
0.0355929
0.0327635
0.0299472
0.0271436
0.0243521
0.0215721
0.0188028
0.0160436
0.0132933
0.0105513
0.0078163
0.0050874
0.00236345
-0.000275994
-0.00357678
-0.00679135
-0.00999759
-0.0131927
-0.016374
-0.0195387
-0.0226845
-0.0258089
-0.0289095
-0.0319843
-0.0350312
-0.0380485
-0.0410344
-0.0439874
-0.0469063
-0.04979
-0.0526375
-0.0554482
-0.0582217
-0.0609576
-0.0636559
-0.0663167
-0.0689406
-0.071528
-0.0740797
-0.0765968
-0.0790805
-0.0815322
-0.0839535
-0.086346
-0.0887118
-0.0910529
-0.0933714
-0.0956699
-0.0979506
-0.100216
-0.102469
-0.104712
-0.106948
-0.10918
0.219436
0.217125
0.214811
0.212492
0.210166
0.207831
0.205485
0.203126
0.200752
0.198362
0.195954
0.193527
0.19108
0.18861
0.186118
0.183602
0.181061
0.178494
0.175902
0.173284
0.170639
0.167967
0.16527
0.162546
0.159796
0.157021
0.154222
0.151398
0.148552
0.145684
0.142795
0.139887
0.13696
0.134016
0.131056
0.128082
0.125094
0.122096
0.119087
0.116069
0.113044
0.110013
0.106977
0.103937
0.100896
0.0978534
0.0948115
0.0917711
0.0887334
0.0856996
0.0826709
0.0796482
0.0766327
0.0736253
0.070627
0.0676387
0.0646612
0.0616952
0.0587414
0.0558004
0.0528726
0.0499585
0.0470582
0.044172
0.0412999
0.0384419
0.0355977
0.0327673
0.0299501
0.0271457
0.0243535
0.021573
0.0188034
0.0160438
0.0132934
0.0105512
0.00781621
0.00508735
0.00236349
-0.000276249
-0.00357691
-0.00679175
-0.00999823
-0.0131936
-0.016375
-0.01954
-0.0226859
-0.0258104
-0.0289112
-0.0319861
-0.0350332
-0.0380505
-0.0410365
-0.0439896
-0.0469086
-0.0497923
-0.0526399
-0.0554506
-0.0582241
-0.06096
-0.0636582
-0.0663191
-0.0689429
-0.0715302
-0.0740819
-0.0765989
-0.0790825
-0.0815341
-0.0839553
-0.0863477
-0.0887133
-0.0910543
-0.0933727
-0.0956709
-0.0979515
-0.100217
-0.10247
-0.104713
-0.106949
-0.10918
0.219436
0.217125
0.214812
0.212493
0.210167
0.207832
0.205486
0.203127
0.200753
0.198364
0.195956
0.193529
0.191082
0.188612
0.18612
0.183604
0.181063
0.178497
0.175905
0.173287
0.170642
0.167971
0.165274
0.16255
0.159801
0.157027
0.154228
0.151406
0.14856
0.145693
0.142805
0.139898
0.136972
0.13403
0.131071
0.128099
0.125113
0.122116
0.119109
0.116093
0.11307
0.11004
0.107005
0.103967
0.100927
0.0978855
0.0948441
0.0918039
0.0887662
0.085732
0.0827025
0.0796789
0.0766621
0.0736532
0.0706532
0.067663
0.0646835
0.0617155
0.0587596
0.0558165
0.0528867
0.0499705
0.0470684
0.0441804
0.0413067
0.0384472
0.0356018
0.0327702
0.029952
0.0271468
0.0243541
0.021573
0.0188031
0.0160432
0.0132927
0.0105505
0.00781563
0.00508693
0.00236328
-0.000276573
-0.00357713
-0.00679222
-0.00999893
-0.0131945
-0.0163761
-0.0195413
-0.0226874
-0.025812
-0.0289129
-0.0319879
-0.0350351
-0.0380525
-0.0410386
-0.0439918
-0.0469108
-0.0497946
-0.0526422
-0.0554529
-0.0582264
-0.0609623
-0.0636605
-0.0663213
-0.0689451
-0.0715324
-0.074084
-0.0766009
-0.0790845
-0.081536
-0.083957
-0.0863493
-0.0887148
-0.0910556
-0.0933739
-0.095672
-0.0979524
-0.100218
-0.10247
-0.104713
-0.106949
-0.10918
0.219436
0.217126
0.214812
0.212494
0.210168
0.207833
0.205487
0.203128
0.200755
0.198365
0.195958
0.193531
0.191084
0.188615
0.186122
0.183606
0.181066
0.1785
0.175908
0.17329
0.170646
0.167975
0.165278
0.162555
0.159807
0.157033
0.154235
0.151413
0.148569
0.145703
0.142817
0.139911
0.136986
0.134045
0.131089
0.128118
0.125135
0.12214
0.119135
0.116121
0.113099
0.110071
0.107038
0.104002
0.100963
0.0979221
0.0948812
0.0918411
0.0888032
0.0857684
0.0827379
0.0797129
0.0766945
0.0736837
0.0706815
0.0676891
0.0647071
0.0617366
0.0587783
0.0558327
0.0529005
0.0499821
0.0470779
0.0441879
0.0413124
0.0384513
0.0356045
0.0327717
0.0299525
0.0271465
0.0243531
0.0215717
0.0188014
0.0160415
0.013291
0.010549
0.00781432
0.00508595
0.0023627
-0.00027697
-0.00357751
-0.00679282
-0.00999974
-0.0131955
-0.0163773
-0.0195426
-0.0226888
-0.0258136
-0.0289146
-0.0319898
-0.035037
-0.0380545
-0.0410406
-0.0439939
-0.046913
-0.0497968
-0.0526444
-0.0554552
-0.0582286
-0.0609645
-0.0636628
-0.0663235
-0.0689472
-0.0715345
-0.074086
-0.0766029
-0.0790863
-0.0815377
-0.0839586
-0.0863508
-0.0887162
-0.0910569
-0.093375
-0.095673
-0.0979532
-0.100218
-0.102471
-0.104714
-0.106949
-0.109181
0.219436
0.217126
0.214813
0.212494
0.210169
0.207834
0.205488
0.20313
0.200756
0.198367
0.19596
0.193533
0.191086
0.188617
0.186125
0.183609
0.181069
0.178503
0.175911
0.173294
0.17065
0.16798
0.165283
0.162561
0.159813
0.15704
0.154243
0.151422
0.148579
0.145714
0.142829
0.139924
0.137002
0.134063
0.131109
0.12814
0.125159
0.122166
0.119163
0.116152
0.113132
0.110107
0.107076
0.104041
0.101003
0.0979632
0.0949228
0.0918828
0.0888443
0.0858086
0.0827768
0.07975
0.0767295
0.0737163
0.0707115
0.0677163
0.0647315
0.061758
0.0587967
0.0558483
0.0529134
0.0499924
0.0470857
0.0441936
0.0413161
0.0384533
0.0356049
0.0327709
0.0299507
0.027144
0.0243501
0.0215683
0.018798
0.0160381
0.0132879
0.0105462
0.00781203
0.00508425
0.00236165
-0.00027748
-0.00357809
-0.0067936
-0.0100007
-0.0131966
-0.0163786
-0.019544
-0.0226904
-0.0258153
-0.0289164
-0.0319916
-0.0350389
-0.0380565
-0.0410427
-0.043996
-0.0469151
-0.0497989
-0.0526466
-0.0554574
-0.0582308
-0.0609667
-0.0636649
-0.0663257
-0.0689493
-0.0715365
-0.074088
-0.0766048
-0.0790882
-0.0815395
-0.0839603
-0.0863524
-0.0887176
-0.0910582
-0.0933762
-0.095674
-0.0979541
-0.100219
-0.102471
-0.104714
-0.106949
-0.109181
0.219436
0.217126
0.214813
0.212495
0.21017
0.207835
0.205489
0.203131
0.200758
0.198369
0.195961
0.193535
0.191088
0.188619
0.186127
0.183612
0.181071
0.178506
0.175915
0.173297
0.170654
0.167984
0.165288
0.162566
0.159819
0.157047
0.154251
0.151431
0.148589
0.145726
0.142842
0.13994
0.137019
0.134082
0.13113
0.128164
0.125185
0.122196
0.119195
0.116186
0.11317
0.110147
0.107118
0.104085
0.101048
0.0980092
0.0949691
0.0919289
0.0888897
0.0858526
0.082819
0.0797899
0.0767667
0.0737505
0.0707425
0.0677439
0.0647556
0.0617786
0.0588139
0.0558622
0.0529242
0.0500003
0.0470909
0.0441964
0.0413168
0.0384521
0.0356023
0.032767
0.0299459
0.0271386
0.0243443
0.0215624
0.0187921
0.0160326
0.0132828
0.0105418
0.00780848
0.0050816
0.00235998
-0.000278165
-0.00357892
-0.00679461
-0.0100019
-0.0131979
-0.01638
-0.0195455
-0.022692
-0.025817
-0.0289182
-0.0319935
-0.0350409
-0.0380585
-0.0410448
-0.0439981
-0.0469172
-0.0498011
-0.0526488
-0.0554596
-0.058233
-0.0609689
-0.0636671
-0.0663278
-0.0689514
-0.0715385
-0.0740899
-0.0766067
-0.07909
-0.0815412
-0.0839619
-0.0863538
-0.088719
-0.0910594
-0.0933773
-0.095675
-0.0979549
-0.10022
-0.102472
-0.104714
-0.10695
-0.109181
0.219437
0.217127
0.214814
0.212496
0.210171
0.207836
0.205491
0.203133
0.20076
0.19837
0.195963
0.193537
0.19109
0.188621
0.18613
0.183614
0.181074
0.178509
0.175918
0.173301
0.170658
0.167989
0.165293
0.162572
0.159826
0.157054
0.154259
0.151441
0.1486
0.145739
0.142857
0.139956
0.137038
0.134104
0.131154
0.128191
0.125215
0.122228
0.119231
0.116225
0.113212
0.110191
0.107165
0.104133
0.101098
0.0980601
0.0950202
0.0919794
0.088939
0.0859002
0.0828641
0.0798321
0.0768055
0.0737856
0.0707736
0.0677709
0.0647785
0.0617975
0.0588288
0.0558734
0.0529318
0.0500046
0.0470923
0.0441952
0.0413134
0.0384469
0.0355956
0.0327591
0.0299372
0.0271294
0.0243349
0.0215532
0.0187833
0.0160244
0.0132755
0.0105356
0.00780338
0.0050778
0.00235757
-0.000279071
-0.00358004
-0.00679588
-0.0100033
-0.0131994
-0.0163816
-0.0195473
-0.0226938
-0.0258188
-0.0289201
-0.0319955
-0.0350429
-0.0380606
-0.0410468
-0.0440002
-0.0469193
-0.0498032
-0.0526509
-0.0554617
-0.0582351
-0.060971
-0.0636691
-0.0663298
-0.0689534
-0.0715405
-0.0740918
-0.0766085
-0.0790917
-0.0815428
-0.0839634
-0.0863553
-0.0887203
-0.0910606
-0.0933784
-0.0956759
-0.0979557
-0.10022
-0.102472
-0.104715
-0.10695
-0.109181
0.219437
0.217127
0.214814
0.212497
0.210172
0.207838
0.205492
0.203134
0.200762
0.198372
0.195966
0.193539
0.191092
0.188624
0.186132
0.183617
0.181077
0.178512
0.175922
0.173305
0.170662
0.167993
0.165299
0.162578
0.159833
0.157062
0.154268
0.151451
0.148612
0.145752
0.142872
0.139974
0.137058
0.134127
0.13118
0.12822
0.125248
0.122264
0.119271
0.116268
0.113258
0.11024
0.107217
0.104187
0.101154
0.0981163
0.0950762
0.0920345
0.0889924
0.085951
0.0829117
0.0798759
0.0768451
0.0738206
0.0708038
0.0677962
0.0647989
0.0618132
0.05884
0.0558803
0.0529348
0.0500041
0.0470887
0.0441888
0.0413047
0.0384363
0.0355836
0.0327461
0.0299236
0.0271155
0.0243212
0.0215399
0.0187708
0.016013
0.0132654
0.0105269
0.00779637
0.0050726
0.00235427
-0.000280251
-0.00358153
-0.00679748
-0.010005
-0.0132012
-0.0163835
-0.0195492
-0.0226957
-0.0258208
-0.0289221
-0.0319975
-0.035045
-0.0380626
-0.0410489
-0.0440023
-0.0469215
-0.0498053
-0.052653
-0.0554638
-0.0582372
-0.060973
-0.0636712
-0.0663318
-0.0689553
-0.0715424
-0.0740937
-0.0766103
-0.0790934
-0.0815444
-0.0839649
-0.0863567
-0.0887216
-0.0910618
-0.0933794
-0.0956768
-0.0979565
-0.100221
-0.102473
-0.104715
-0.10695
-0.109181
0.219437
0.217128
0.214815
0.212498
0.210173
0.207839
0.205494
0.203136
0.200764
0.198375
0.195968
0.193542
0.191095
0.188627
0.186135
0.18362
0.18108
0.178516
0.175925
0.173309
0.170667
0.167998
0.165304
0.162584
0.15984
0.15707
0.154278
0.151462
0.148625
0.145767
0.142889
0.139993
0.13708
0.134152
0.131208
0.128252
0.125283
0.122304
0.119315
0.116316
0.113309
0.110295
0.107274
0.104247
0.101215
0.0981779
0.0951373
0.0920942
0.0890495
0.0860048
0.0829613
0.0799207
0.0768845
0.0738544
0.0708318
0.0678184
0.0648154
0.0618242
0.0588459
0.0558814
0.0529316
0.0499971
0.0470783
0.0441756
0.0412892
0.0384191
0.035565
0.0327268
0.029904
0.027096
0.0243022
0.0215218
0.0187539
0.0159976
0.0132518
0.0105154
0.00778711
0.00506573
0.0023499
-0.000281753
-0.00358343
-0.00679946
-0.010007
-0.0132033
-0.0163856
-0.0195513
-0.0226979
-0.025823
-0.0289243
-0.0319996
-0.0350471
-0.0380648
-0.041051
-0.0440044
-0.0469236
-0.0498074
-0.0526551
-0.0554659
-0.0582393
-0.0609751
-0.0636732
-0.0663338
-0.0689573
-0.0715442
-0.0740955
-0.076612
-0.079095
-0.081546
-0.0839664
-0.0863581
-0.0887229
-0.0910629
-0.0933804
-0.0956777
-0.0979573
-0.100222
-0.102473
-0.104715
-0.10695
-0.109181
0.219437
0.217128
0.214816
0.212499
0.210174
0.207841
0.205496
0.203138
0.200766
0.198377
0.19597
0.193544
0.191098
0.188629
0.186138
0.183623
0.181084
0.178519
0.175929
0.173313
0.170671
0.168003
0.16531
0.162591
0.159847
0.157079
0.154287
0.151473
0.148638
0.145782
0.142907
0.140013
0.137104
0.134178
0.131239
0.128287
0.125322
0.122347
0.119362
0.116368
0.113366
0.110355
0.107338
0.104313
0.101282
0.0982453
0.0952037
0.0921583
0.0891102
0.0860609
0.083012
0.0799653
0.0769225
0.0738855
0.070856
0.0678357
0.0648262
0.0618287
0.0588446
0.0558749
0.0529204
0.0499818
0.0470596
0.0441541
0.0412654
0.0383937
0.0355386
0.0326999
0.0298771
0.0270697
0.0242769
0.0214979
0.0187318
0.0159777
0.0132343
0.0105006
0.0077752
0.0050569
0.00234429
-0.000283629
-0.0035858
-0.00680188
-0.0100094
-0.0132057
-0.016388
-0.0195537
-0.0227002
-0.0258253
-0.0289266
-0.0320019
-0.0350493
-0.038067
-0.0410532
-0.0440066
-0.0469257
-0.0498095
-0.0526572
-0.0554679
-0.0582413
-0.060977
-0.0636751
-0.0663357
-0.0689591
-0.071546
-0.0740972
-0.0766137
-0.0790966
-0.0815475
-0.0839678
-0.0863594
-0.0887241
-0.091064
-0.0933814
-0.0956786
-0.097958
-0.100222
-0.102474
-0.104716
-0.10695
-0.109181
0.219437
0.217129
0.214817
0.2125
0.210176
0.207843
0.205498
0.203141
0.200768
0.19838
0.195973
0.193547
0.191101
0.188632
0.186141
0.183626
0.181087
0.178523
0.175933
0.173317
0.170676
0.168008
0.165316
0.162597
0.159854
0.157088
0.154297
0.151485
0.148651
0.145798
0.142925
0.140035
0.137129
0.134207
0.131272
0.128324
0.125365
0.122395
0.119415
0.116426
0.113428
0.110422
0.107408
0.104386
0.101356
0.0983189
0.0952756
0.0922269
0.0891741
0.0861188
0.083063
0.0800085
0.0769575
0.0739122
0.0708744
0.0678461
0.0648289
0.0618244
0.0588339
0.0558585
0.052899
0.0499562
0.0470305
0.0441222
0.0412315
0.0383584
0.0355027
0.0326639
0.0298417
0.0270354
0.0242442
0.0214672
0.0187036
0.0159523
0.0132121
0.0104819
0.00776022
0.00504583
0.00233725
-0.000285937
-0.00358873
-0.00680479
-0.0100123
-0.0132085
-0.0163908
-0.0195564
-0.0227029
-0.0258278
-0.028929
-0.0320043
-0.0350516
-0.0380693
-0.0410554
-0.0440087
-0.0469278
-0.0498116
-0.0526592
-0.0554699
-0.0582433
-0.060979
-0.063677
-0.0663375
-0.0689609
-0.0715478
-0.0740989
-0.0766153
-0.0790982
-0.0815489
-0.0839692
-0.0863607
-0.0887253
-0.0910651
-0.0933824
-0.0956795
-0.0979588
-0.100223
-0.102474
-0.104716
-0.106951
-0.109181
0.219437
0.217129
0.214818
0.212501
0.210178
0.207845
0.205501
0.203143
0.200771
0.198383
0.195976
0.19355
0.191104
0.188636
0.186144
0.18363
0.18109
0.178526
0.175937
0.173321
0.17068
0.168014
0.165321
0.162604
0.159862
0.157096
0.154308
0.151497
0.148665
0.145814
0.142944
0.140058
0.137155
0.134238
0.131307
0.128364
0.125411
0.122446
0.119472
0.116489
0.113497
0.110496
0.107485
0.104466
0.101437
0.0983992
0.0953532
0.0922999
0.0892408
0.0861777
0.0831128
0.0800487
0.0769876
0.0739321
0.0708845
0.0678469
0.0648211
0.0618087
0.0588112
0.0558297
0.052865
0.0499179
0.0469888
0.044078
0.0411856
0.0383116
0.0354556
0.0326174
0.0297963
0.0269918
0.0242029
0.0214288
0.0186685
0.0159208
0.0131847
0.0104588
0.00774174
0.00503217
0.00232858
-0.000288743
-0.00359229
-0.00680827
-0.0100157
-0.0132118
-0.0163939
-0.0195594
-0.0227058
-0.0258306
-0.0289317
-0.0320068
-0.0350541
-0.0380716
-0.0410577
-0.0440109
-0.04693
-0.0498137
-0.0526613
-0.0554719
-0.0582452
-0.0609809
-0.0636789
-0.0663393
-0.0689627
-0.0715495
-0.0741005
-0.0766169
-0.0790997
-0.0815504
-0.0839705
-0.0863619
-0.0887264
-0.0910662
-0.0933833
-0.0956803
-0.0979594
-0.100223
-0.102475
-0.104716
-0.106951
-0.109181
0.219438
0.21713
0.214819
0.212503
0.210179
0.207847
0.205503
0.203146
0.200774
0.198386
0.19598
0.193554
0.191107
0.188639
0.186148
0.183633
0.181094
0.17853
0.175941
0.173326
0.170685
0.168019
0.165327
0.16261
0.15987
0.157105
0.154318
0.151509
0.14868
0.145831
0.142964
0.140081
0.137182
0.13427
0.131344
0.128407
0.12546
0.122502
0.119535
0.116559
0.113573
0.110577
0.107571
0.104554
0.101526
0.0984869
0.095437
0.0923773
0.0893097
0.0862363
0.08316
0.0800836
0.0770102
0.0739425
0.0708833
0.067835
0.0647995
0.0617785
0.0587735
0.0557857
0.0528158
0.0498645
0.0469322
0.0440192
0.0411256
0.0382512
0.0353957
0.0325587
0.0297395
0.0269375
0.0241518
0.0213814
0.0186253
0.0158823
0.0131512
0.0104306
0.00771927
0.00501559
0.00231806
-0.000292117
-0.00359654
-0.00681239
-0.0100197
-0.0132156
-0.0163975
-0.0195628
-0.0227089
-0.0258336
-0.0289345
-0.0320095
-0.0350566
-0.038074
-0.04106
-0.0440132
-0.0469321
-0.0498158
-0.0526633
-0.0554739
-0.0582471
-0.0609827
-0.0636807
-0.0663411
-0.0689644
-0.0715511
-0.0741021
-0.0766184
-0.0791011
-0.0815517
-0.0839718
-0.0863631
-0.0887275
-0.0910672
-0.0933842
-0.0956811
-0.0979601
-0.100224
-0.102475
-0.104717
-0.106951
-0.109181
0.219438
0.21713
0.21482
0.212504
0.210181
0.207849
0.205505
0.203149
0.200777
0.198389
0.195983
0.193557
0.191111
0.188643
0.186152
0.183637
0.181098
0.178534
0.175945
0.17333
0.170689
0.168024
0.165333
0.162617
0.159877
0.157114
0.154328
0.151521
0.148694
0.145848
0.142985
0.140105
0.137211
0.134304
0.131384
0.128453
0.125513
0.122563
0.119603
0.116634
0.113656
0.110667
0.107666
0.104652
0.101625
0.098583
0.0955274
0.0924591
0.0893801
0.0862934
0.0832023
0.0801107
0.0770221
0.0739399
0.0708672
0.0678067
0.0647604
0.0617302
0.0587174
0.0557232
0.0527482
0.049793
0.046858
0.0439435
0.0410492
0.0381752
0.0353209
0.032486
0.0296697
0.0268712
0.0240897
0.021324
0.0185732
0.0158359
0.0131109
0.0103969
0.00769232
0.00499572
0.00230545
-0.000296135
-0.00360158
-0.00681722
-0.0100242
-0.0132199
-0.0164015
-0.0195666
-0.0227125
-0.0258369
-0.0289376
-0.0320124
-0.0350593
-0.0380765
-0.0410624
-0.0440154
-0.0469343
-0.0498179
-0.0526653
-0.0554758
-0.058249
-0.0609846
-0.0636824
-0.0663428
-0.068966
-0.0715527
-0.0741036
-0.0766198
-0.0791025
-0.081553
-0.083973
-0.0863642
-0.0887286
-0.0910681
-0.0933851
-0.0956818
-0.0979608
-0.100225
-0.102476
-0.104717
-0.106951
-0.109181
0.219438
0.21713
0.21482
0.212504
0.210182
0.20785
0.205507
0.203151
0.20078
0.198393
0.195987
0.193561
0.191115
0.188647
0.186155
0.183641
0.181102
0.178538
0.175949
0.173334
0.170694
0.168028
0.165338
0.162623
0.159884
0.157122
0.154338
0.151533
0.148708
0.145865
0.143005
0.14013
0.137241
0.134339
0.131425
0.128502
0.125569
0.122627
0.119677
0.116717
0.113748
0.110766
0.107771
0.104761
0.101734
0.0986888
0.0956254
0.0925453
0.0894513
0.0863471
0.0832373
0.0801266
0.0770195
0.0739201
0.0708318
0.0677576
0.0646996
0.0616597
0.0586391
0.0556386
0.052659
0.0497005
0.0467636
0.0438482
0.0409542
0.0380815
0.0352295
0.0323977
0.0295853
0.0267915
0.0240152
0.0212555
0.0185111
0.0157807
0.0130631
0.0103568
0.00766038
0.00497218
0.00229053
-0.000300872
-0.00360749
-0.00682282
-0.0100295
-0.0132248
-0.0164061
-0.0195708
-0.0227163
-0.0258404
-0.0289408
-0.0320154
-0.0350621
-0.0380791
-0.0410648
-0.0440177
-0.0469365
-0.0498199
-0.0526673
-0.0554777
-0.0582508
-0.0609863
-0.0636842
-0.0663445
-0.0689676
-0.0715542
-0.0741051
-0.0766212
-0.0791038
-0.0815543
-0.0839742
-0.0863653
-0.0887296
-0.091069
-0.0933859
-0.0956825
-0.0979614
-0.100225
-0.102476
-0.104717
-0.106951
-0.109181
0.219438
0.21713
0.21482
0.212504
0.210182
0.207851
0.205508
0.203153
0.200783
0.198396
0.19599
0.193565
0.191119
0.188651
0.186159
0.183645
0.181106
0.178542
0.175952
0.173338
0.170698
0.168033
0.165343
0.162629
0.159891
0.15713
0.154348
0.151545
0.148722
0.145882
0.143026
0.140155
0.137271
0.134375
0.131469
0.128553
0.125629
0.122697
0.119757
0.116808
0.113849
0.110877
0.10789
0.104884
0.101857
0.0988065
0.0957324
0.0926364
0.0895222
0.0863952
0.0832614
0.0801269
0.0769975
0.0738778
0.0707718
0.0676825
0.0646122
0.0615624
0.0585342
0.0555282
0.0525447
0.049584
0.046646
0.0437308
0.0408383
0.037968
0.0351194
0.032292
0.0294848
0.0266969
0.0239272
0.0211747
0.018438
0.0157159
0.013007
0.0103098
0.00762293
0.00494458
0.00227304
-0.000306387
-0.00361436
-0.0068293
-0.0100356
-0.0132304
-0.0164112
-0.0195754
-0.0227205
-0.0258442
-0.0289443
-0.0320185
-0.035065
-0.0380818
-0.0410673
-0.04402
-0.0469386
-0.049822
-0.0526692
-0.0554796
-0.0582526
-0.0609881
-0.0636858
-0.0663461
-0.0689692
-0.0715557
-0.0741065
-0.0766226
-0.0791051
-0.0815555
-0.0839754
-0.0863664
-0.0887306
-0.0910699
-0.0933867
-0.0956832
-0.097962
-0.100225
-0.102476
-0.104718
-0.106952
-0.109181
0.219437
0.217129
0.214818
0.212503
0.210181
0.20785
0.205509
0.203154
0.200785
0.198398
0.195994
0.193569
0.191123
0.188655
0.186164
0.183649
0.181109
0.178545
0.175956
0.173342
0.170702
0.168037
0.165348
0.162634
0.159897
0.157137
0.154357
0.151556
0.148736
0.145899
0.143047
0.14018
0.137301
0.134412
0.131513
0.128606
0.125692
0.122771
0.119843
0.116907
0.113961
0.111001
0.108024
0.105024
0.101996
0.0989389
0.0958502
0.0927326
0.0895917
0.0864348
0.0832704
0.0801066
0.0769502
0.0738069
0.070681
0.0675755
0.0644924
0.0614331
0.0583982
0.0553878
0.0524018
0.0494401
0.0465026
0.043589
0.0406991
0.0378326
0.0349889
0.0321672
0.0293666
0.0265861
0.0238245
0.0210805
0.018353
0.0156405
0.0129418
0.0102553
0.00757943
0.00491251
0.0022527
-0.000312756
-0.00362231
-0.00683673
-0.0100424
-0.0132367
-0.0164169
-0.0195805
-0.0227251
-0.0258483
-0.0289479
-0.0320218
-0.0350679
-0.0380845
-0.0410698
-0.0440223
-0.0469408
-0.049824
-0.0526711
-0.0554814
-0.0582544
-0.0609897
-0.0636874
-0.0663476
-0.0689707
-0.0715572
-0.0741079
-0.0766239
-0.0791064
-0.0815567
-0.0839765
-0.0863674
-0.0887315
-0.0910708
-0.0933874
-0.0956839
-0.0979625
-0.100226
-0.102477
-0.104718
-0.106952
-0.109181
0.219437
0.217128
0.214816
0.2125
0.210178
0.207847
0.205507
0.203154
0.200786
0.1984
0.195996
0.193572
0.191127
0.188659
0.186168
0.183653
0.181113
0.178549
0.17596
0.173346
0.170706
0.168041
0.165352
0.162639
0.159903
0.157144
0.154365
0.151566
0.148749
0.145915
0.143066
0.140205
0.137332
0.134449
0.131558
0.128661
0.125757
0.122849
0.119935
0.117015
0.114085
0.11114
0.108176
0.105184
0.102157
0.0990902
0.0959815
0.0928346
0.0896577
0.0864617
0.0832585
0.0800586
0.0768705
0.0737002
0.0705523
0.0674298
0.0643342
0.0612664
0.0582263
0.0552133
0.0522269
0.0492661
0.0463307
0.0434203
0.0405347
0.0376735
0.0348362
0.0320219
0.0292295
0.0264579
0.0237058
0.020972
0.0182551
0.0155539
0.0128668
0.0101925
0.00752934
0.00487555
0.00222925
-0.000320076
-0.00363144
-0.00684521
-0.0100502
-0.0132437
-0.0164231
-0.019586
-0.02273
-0.0258526
-0.0289517
-0.0320252
-0.035071
-0.0380872
-0.0410723
-0.0440246
-0.0469429
-0.049826
-0.052673
-0.0554832
-0.0582561
-0.0609913
-0.063689
-0.0663491
-0.0689721
-0.0715585
-0.0741092
-0.0766252
-0.0791076
-0.0815578
-0.0839775
-0.0863684
-0.0887324
-0.0910716
-0.0933882
-0.0956845
-0.0979631
-0.100226
-0.102477
-0.104718
-0.106952
-0.109181
0.219436
0.217125
0.214812
0.212495
0.210172
0.207842
0.205503
0.203151
0.200785
0.198401
0.195999
0.193575
0.19113
0.188663
0.186172
0.183657
0.181117
0.178553
0.175964
0.173349
0.170709
0.168045
0.165355
0.162643
0.159907
0.15715
0.154372
0.151575
0.14876
0.14593
0.143085
0.140228
0.137361
0.134486
0.131603
0.128716
0.125825
0.122931
0.120033
0.117131
0.114221
0.111297
0.108351
0.105371
0.102345
0.0992656
0.0961293
0.0929419
0.0897165
0.0864696
0.0832178
0.0799745
0.0767496
0.0735493
0.0703779
0.0672379
0.0641306
0.0610561
0.0580133
0.0550006
0.0520164
0.0490592
0.0461281
0.0432228
0.0403432
0.0374891
0.0346599
0.0318547
0.0290722
0.0263113
0.0235704
0.0208483
0.0181437
0.0154552
0.0127814
0.0101209
0.0074721
0.00483323
0.00220236
-0.000328497
-0.00364189
-0.00685486
-0.0100589
-0.0132514
-0.0164299
-0.019592
-0.0227351
-0.0258571
-0.0289557