/*--------------------------------*- C++ -*----------------------------------*\
  =========                 |
  \\      /  F ield         | OpenFOAM: The Open Source CFD Toolbox
   \\    /   O peration     | Website:  https://openfoam.org
    \\  /    A nd           | Version:  6
     \\/     M anipulation  |
\*---------------------------------------------------------------------------*/
FoamFile
{
    version     2.0;
    format      ascii;
    class       volScalarField;
    location    "100";
    object      T;
}
// * * * * * * * * * * * * * * * * * * * * * * * * * * * * * * * * * * * * * //

dimensions      [0 0 0 1 0 0 0];

internalField   nonuniform List<scalar> 
4800
(
552.508
552.424
552.34
552.256
552.172
552.087
552.002
551.916
551.83
551.743
551.656
551.568
551.479
551.39
551.299
551.208
551.116
551.023
550.929
550.834
550.738
550.641
550.543
550.444
550.344
550.244
550.142
550.039
549.936
549.832
549.727
549.622
549.515
549.408
549.301
549.193
549.084
548.975
548.866
548.756
548.646
548.536
548.426
548.316
548.205
548.095
547.984
547.874
547.764
547.654
547.544
547.435
547.325
547.217
547.108
547
546.892
546.785
546.678
546.571
546.465
546.36
546.255
546.151
546.047
545.943
545.84
545.738
545.636
545.534
545.433
545.332
545.232
545.132
545.032
544.933
544.833
544.734
544.636
544.537
544.42
544.304
544.188
544.072
543.956
543.842
543.728
543.614
543.502
543.391
543.28
543.171
543.062
542.955
542.85
542.745
542.642
542.54
542.439
542.34
542.242
542.146
542.05
541.957
541.864
541.773
541.683
541.594
541.506
541.419
541.333
541.248
541.164
541.081
540.998
540.916
540.834
540.753
540.671
540.59
552.508
552.424
552.34
552.256
552.172
552.087
552.002
551.916
551.83
551.744
551.656
551.568
551.479
551.39
551.299
551.208
551.116
551.023
550.929
550.834
550.738
550.641
550.543
550.444
550.344
550.244
550.142
550.04
549.936
549.832
549.727
549.622
549.515
549.408
549.301
549.193
549.084
548.975
548.866
548.756
548.647
548.536
548.426
548.316
548.205
548.095
547.985
547.874
547.764
547.654
547.544
547.435
547.326
547.217
547.108
547
546.892
546.785
546.678
546.571
546.465
546.36
546.255
546.151
546.047
545.943
545.84
545.738
545.636
545.534
545.433
545.332
545.232
545.132
545.032
544.933
544.833
544.734
544.636
544.537
544.42
544.304
544.188
544.072
543.956
543.842
543.728
543.614
543.502
543.39
543.28
543.171
543.062
542.955
542.849
542.745
542.642
542.54
542.439
542.34
542.242
542.145
542.05
541.956
541.864
541.773
541.682
541.594
541.506
541.419
541.333
541.248
541.164
541.081
540.998
540.916
540.834
540.753
540.671
540.59
552.508
552.424
552.34
552.256
552.172
552.087
552.002
551.916
551.83
551.744
551.656
551.568
551.479
551.39
551.299
551.208
551.116
551.023
550.929
550.834
550.738
550.641
550.543
550.444
550.344
550.244
550.142
550.04
549.936
549.832
549.727
549.622
549.516
549.409
549.301
549.193
549.085
548.976
548.866
548.757
548.647
548.537
548.426
548.316
548.206
548.095
547.985
547.875
547.764
547.654
547.545
547.435
547.326
547.217
547.108
547
546.892
546.785
546.678
546.572
546.466
546.36
546.255
546.151
546.047
545.943
545.84
545.738
545.636
545.534
545.433
545.332
545.232
545.132
545.032
544.933
544.833
544.734
544.636
544.537
544.42
544.304
544.188
544.072
543.956
543.842
543.728
543.614
543.502
543.39
543.28
543.17
543.062
542.955
542.849
542.745
542.641
542.539
542.439
542.34
542.242
542.145
542.05
541.956
541.864
541.772
541.682
541.593
541.506
541.419
541.333
541.248
541.164
541.081
540.998
540.916
540.834
540.753
540.671
540.59
552.508
552.424
552.34
552.256
552.172
552.087
552.002
551.916
551.83
551.744
551.656
551.568
551.479
551.39
551.299
551.208
551.116
551.023
550.929
550.834
550.738
550.641
550.543
550.444
550.345
550.244
550.142
550.04
549.937
549.832
549.728
549.622
549.516
549.409
549.301
549.193
549.085
548.976
548.867
548.757
548.647
548.537
548.427
548.316
548.206
548.096
547.985
547.875
547.765
547.655
547.545
547.435
547.326
547.217
547.109
547
546.893
546.785
546.678
546.572
546.466
546.36
546.255
546.151
546.047
545.943
545.84
545.738
545.636
545.534
545.433
545.332
545.232
545.132
545.032
544.933
544.833
544.734
544.636
544.537
544.42
544.304
544.187
544.072
543.956
543.842
543.727
543.614
543.502
543.39
543.28
543.17
543.062
542.955
542.849
542.745
542.641
542.539
542.439
542.34
542.242
542.145
542.05
541.956
541.864
541.772
541.682
541.593
541.506
541.419
541.333
541.248
541.164
541.081
540.998
540.916
540.834
540.753
540.671
540.59
552.508
552.424
552.34
552.256
552.172
552.087
552.002
551.916
551.83
551.744
551.656
551.568
551.48
551.39
551.3
551.208
551.116
551.023
550.929
550.834
550.738
550.641
550.543
550.444
550.345
550.244
550.142
550.04
549.937
549.833
549.728
549.622
549.516
549.409
549.302
549.194
549.085
548.976
548.867
548.757
548.648
548.538
548.427
548.317
548.207
548.096
547.986
547.876
547.765
547.655
547.546
547.436
547.327
547.218
547.109
547.001
546.893
546.786
546.679
546.572
546.466
546.361
546.256
546.151
546.047
545.944
545.84
545.738
545.636
545.534
545.433
545.332
545.232
545.132
545.032
544.933
544.833
544.734
544.636
544.537
544.42
544.304
544.187
544.072
543.956
543.841
543.727
543.614
543.502
543.39
543.28
543.17
543.062
542.955
542.849
542.744
542.641
542.539
542.439
542.339
542.242
542.145
542.05
541.956
541.864
541.772
541.682
541.593
541.505
541.419
541.333
541.248
541.164
541.08
540.998
540.916
540.834
540.753
540.671
540.59
552.508
552.424
552.34
552.256
552.172
552.087
552.002
551.917
551.83
551.744
551.656
551.568
551.48
551.39
551.3
551.208
551.116
551.023
550.929
550.834
550.738
550.641
550.543
550.445
550.345
550.244
550.143
550.04
549.937
549.833
549.728
549.622
549.516
549.409
549.302
549.194
549.086
548.977
548.868
548.758
548.648
548.538
548.428
548.318
548.207
548.097
547.987
547.876
547.766
547.656
547.546
547.437
547.327
547.218
547.11
547.002
546.894
546.786
546.679
546.573
546.467
546.361
546.256
546.151
546.047
545.944
545.841
545.738
545.636
545.534
545.433
545.332
545.232
545.132
545.032
544.933
544.833
544.734
544.636
544.537
544.42
544.304
544.187
544.072
543.956
543.841
543.727
543.614
543.502
543.39
543.28
543.17
543.062
542.955
542.849
542.744
542.641
542.539
542.439
542.339
542.242
542.145
542.05
541.956
541.863
541.772
541.682
541.593
541.505
541.419
541.333
541.248
541.164
541.08
540.998
540.916
540.834
540.752
540.671
540.59
552.508
552.424
552.34
552.256
552.172
552.087
552.002
551.917
551.83
551.744
551.656
551.568
551.48
551.39
551.3
551.208
551.116
551.023
550.929
550.834
550.738
550.641
550.544
550.445
550.345
550.244
550.143
550.04
549.937
549.833
549.728
549.623
549.517
549.41
549.302
549.194
549.086
548.977
548.868
548.759
548.649
548.539
548.429
548.318
548.208
548.098
547.987
547.877
547.767
547.657
547.547
547.438
547.328
547.219
547.111
547.002
546.894
546.787
546.68
546.573
546.467
546.361
546.256
546.152
546.048
545.944
545.841
545.738
545.636
545.534
545.433
545.332
545.232
545.132
545.032
544.933
544.833
544.735
544.636
544.537
544.42
544.304
544.187
544.072
543.956
543.841
543.727
543.614
543.502
543.39
543.28
543.17
543.062
542.955
542.849
542.744
542.641
542.539
542.439
542.339
542.241
542.145
542.05
541.956
541.863
541.772
541.682
541.593
541.505
541.419
541.333
541.248
541.164
541.08
540.998
540.916
540.834
540.752
540.671
540.59
552.508
552.424
552.34
552.256
552.172
552.087
552.002
551.917
551.831
551.744
551.657
551.569
551.48
551.39
551.3
551.209
551.116
551.023
550.929
550.834
550.738
550.642
550.544
550.445
550.345
550.245
550.143
550.041
549.937
549.833
549.729
549.623
549.517
549.41
549.303
549.195
549.087
548.978
548.869
548.759
548.65
548.54
548.43
548.319
548.209
548.099
547.988
547.878
547.768
547.658
547.548
547.439
547.329
547.22
547.111
547.003
546.895
546.787
546.68
546.574
546.467
546.362
546.257
546.152
546.048
545.944
545.841
545.738
545.636
545.534
545.433
545.332
545.232
545.132
545.032
544.933
544.833
544.734
544.636
544.537
544.42
544.304
544.187
544.072
543.956
543.841
543.727
543.614
543.501
543.39
543.279
543.17
543.062
542.955
542.849
542.744
542.641
542.539
542.438
542.339
542.241
542.145
542.05
541.956
541.863
541.772
541.682
541.593
541.505
541.418
541.333
541.248
541.164
541.08
540.998
540.916
540.834
540.752
540.671
540.59
552.508
552.424
552.34
552.256
552.172
552.087
552.002
551.917
551.831
551.744
551.657
551.569
551.48
551.39
551.3
551.209
551.116
551.023
550.929
550.834
550.739
550.642
550.544
550.445
550.345
550.245
550.143
550.041
549.938
549.834
549.729
549.624
549.517
549.411
549.303
549.196
549.087
548.979
548.87
548.76
548.651
548.541
548.431
548.321
548.21
548.1
547.99
547.879
547.769
547.659
547.549
547.44
547.33
547.221
547.112
547.004
546.896
546.788
546.681
546.574
546.468
546.362
546.257
546.152
546.048
545.944
545.841
545.738
545.636
545.535
545.433
545.332
545.232
545.132
545.032
544.933
544.833
544.734
544.636
544.537
544.42
544.304
544.187
544.071
543.956
543.841
543.727
543.614
543.501
543.39
543.279
543.17
543.062
542.955
542.849
542.744
542.641
542.539
542.438
542.339
542.241
542.145
542.05
541.956
541.863
541.772
541.682
541.593
541.505
541.418
541.333
541.248
541.164
541.08
540.998
540.915
540.834
540.752
540.671
540.59
552.508
552.424
552.34
552.256
552.172
552.087
552.002
551.917
551.831
551.744
551.657
551.569
551.48
551.39
551.3
551.209
551.117
551.024
550.93
550.835
550.739
550.642
550.544
550.445
550.346
550.245
550.144
550.041
549.938
549.834
549.729
549.624
549.518
549.411
549.304
549.196
549.088
548.98
548.871
548.761
548.652
548.542
548.432
548.322
548.212
548.101
547.991
547.881
547.771
547.66
547.551
547.441
547.331
547.222
547.113
547.005
546.897
546.789
546.682
546.575
546.469
546.363
546.257
546.153
546.048
545.944
545.841
545.739
545.636
545.535
545.433
545.332
545.232
545.132
545.032
544.933
544.833
544.734
544.636
544.537
544.42
544.304
544.187
544.071
543.956
543.841
543.727
543.614
543.501
543.39
543.279
543.17
543.062
542.955
542.849
542.744
542.641
542.539
542.438
542.339
542.241
542.145
542.05
541.956
541.863
541.772
541.682
541.593
541.505
541.418
541.333
541.248
541.164
541.08
540.998
540.915
540.834
540.752
540.671
540.59
552.508
552.424
552.34
552.256
552.172
552.087
552.002
551.917
551.831
551.744
551.657
551.569
551.48
551.39
551.3
551.209
551.117
551.024
550.93
550.835
550.739
550.642
550.544
550.445
550.346
550.245
550.144
550.042
549.938
549.834
549.73
549.625
549.519
549.412
549.305
549.197
549.089
548.981
548.872
548.762
548.653
548.543
548.433
548.323
548.213
548.103
547.992
547.882
547.772
547.662
547.552
547.442
547.333
547.223
547.114
547.006
546.898
546.79
546.682
546.575
546.469
546.363
546.258
546.153
546.048
545.945
545.841
545.738
545.636
545.534
545.433
545.332
545.232
545.132
545.032
544.932
544.833
544.734
544.636
544.537
544.42
544.304
544.187
544.071
543.956
543.841
543.727
543.614
543.501
543.39
543.279
543.17
543.062
542.954
542.849
542.744
542.641
542.539
542.438
542.339
542.241
542.145
542.049
541.956
541.863
541.772
541.682
541.593
541.505
541.418
541.333
541.248
541.164
541.08
540.998
540.915
540.834
540.752
540.671
540.59
552.508
552.424
552.34
552.256
552.172
552.087
552.002
551.917
551.831
551.744
551.657
551.569
551.48
551.39
551.3
551.209
551.117
551.024
550.93
550.835
550.739
550.642
550.544
550.446
550.346
550.245
550.144
550.042
549.939
549.835
549.73
549.625
549.519
549.413
549.306
549.198
549.09
548.982
548.873
548.764
548.654
548.545
548.435
548.325
548.215
548.104
547.994
547.884
547.774
547.664
547.554
547.444
547.334
547.225
547.116
547.007
546.898
546.79
546.683
546.576
546.469
546.363
546.258
546.153
546.048
545.945
545.841
545.738
545.636
545.534
545.433
545.332
545.232
545.131
545.032
544.932
544.833
544.734
544.636
544.537
544.42
544.304
544.187
544.071
543.956
543.841
543.727
543.614
543.501
543.39
543.279
543.17
543.061
542.954
542.848
542.744
542.641
542.539
542.438
542.339
542.241
542.145
542.049
541.956
541.863
541.772
541.682
541.593
541.505
541.418
541.332
541.248
541.164
541.08
540.998
540.915
540.834
540.752
540.671
540.59
552.508
552.424
552.34
552.256
552.172
552.087
552.002
551.917
551.831
551.744
551.657
551.569
551.48
551.391
551.3
551.209
551.117
551.024
550.93
550.835
550.739
550.642
550.545
550.446
550.346
550.246
550.144
550.042
549.939
549.835
549.731
549.626
549.52
549.413
549.306
549.199
549.091
548.983
548.874
548.765
548.656
548.546
548.436
548.327
548.216
548.106
547.996
547.886
547.775
547.665
547.555
547.445
547.335
547.226
547.117
547.008
546.899
546.791
546.683
546.576
546.47
546.363
546.258
546.153
546.048
545.944
545.841
545.738
545.636
545.534
545.433
545.332
545.231
545.131
545.031
544.932
544.833
544.734
544.636
544.537
544.42
544.304
544.187
544.071
543.956
543.841
543.727
543.614
543.501
543.39
543.279
543.17
543.061
542.954
542.848
542.744
542.641
542.539
542.438
542.339
542.241
542.144
542.049
541.955
541.863
541.772
541.682
541.593
541.505
541.418
541.332
541.248
541.164
541.08
540.998
540.915
540.834
540.752
540.671
540.59
552.508
552.424
552.341
552.256
552.172
552.087
552.002
551.917
551.831
551.744
551.657
551.569
551.48
551.391
551.3
551.209
551.117
551.024
550.93
550.835
550.739
550.642
550.545
550.446
550.347
550.246
550.145
550.043
549.94
549.836
549.731
549.626
549.521
549.414
549.307
549.2
549.092
548.984
548.876
548.767
548.657
548.548
548.438
548.328
548.218
548.108
547.998
547.888
547.777
547.667
547.557
547.447
547.337
547.227
547.118
547.009
546.9
546.792
546.684
546.577
546.47
546.363
546.258
546.153
546.048
545.944
545.84
545.738
545.635
545.533
545.432
545.331
545.231
545.131
545.031
544.932
544.833
544.734
544.635
544.537
544.42
544.303
544.187
544.071
543.956
543.841
543.727
543.614
543.501
543.39
543.279
543.17
543.061
542.954
542.848
542.744
542.64
542.539
542.438
542.339
542.241
542.144
542.049
541.955
541.863
541.772
541.682
541.593
541.505
541.418
541.332
541.248
541.163
541.08
540.997
540.915
540.834
540.752
540.671
540.59
552.508
552.424
552.341
552.256
552.172
552.088
552.002
551.917
551.831
551.744
551.657
551.569
551.48
551.391
551.3
551.209
551.117
551.024
550.93
550.835
550.739
550.643
550.545
550.446
550.347
550.246
550.145
550.043
549.94
549.836
549.732
549.627
549.521
549.415
549.308
549.201
549.094
548.986
548.877
548.768
548.659
548.55
548.44
548.331
548.221
548.111
548
547.89
547.779
547.669
547.559
547.448
547.338
547.228
547.119
547.01
546.901
546.792
546.684
546.577
546.47
546.363
546.257
546.152
546.047
545.943
545.84
545.737
545.635
545.533
545.431
545.331
545.23
545.13
545.031
544.931
544.832
544.734
544.635
544.537
544.42
544.303
544.187
544.071
543.956
543.841
543.727
543.613
543.501
543.389
543.279
543.17
543.061
542.954
542.848
542.744
542.64
542.538
542.438
542.339
542.241
542.144
542.049
541.955
541.863
541.772
541.682
541.593
541.505
541.418
541.332
541.247
541.163
541.08
540.997
540.915
540.834
540.752
540.671
540.59
552.508
552.424
552.341
552.257
552.172
552.088
552.003
551.917
551.831
551.744
551.657
551.569
551.48
551.391
551.301
551.209
551.117
551.024
550.93
550.835
550.74
550.643
550.545
550.447
550.347
550.247
550.145
550.043
549.941
549.837
549.733
549.628
549.522
549.416
549.31
549.202
549.095
548.987
548.879
548.77
548.661
548.552
548.443
548.333
548.223
548.113
548.003
547.892
547.782
547.671
547.561
547.45
547.34
547.23
547.12
547.01
546.901
546.792
546.684
546.576
546.469
546.363
546.257
546.151
546.047
545.942
545.839
545.736
545.634
545.532
545.43
545.33
545.229
545.129
545.03
544.931
544.832
544.733
544.635
544.537
544.42
544.303
544.187
544.071
543.956
543.841
543.727
543.613
543.501
543.389
543.279
543.169
543.061
542.954
542.848
542.744
542.64
542.538
542.438
542.339
542.241
542.144
542.049
541.955
541.863
541.772
541.681
541.593
541.505
541.418
541.332
541.247
541.163
541.08
540.997
540.915
540.834
540.752
540.671
540.59
552.508
552.424
552.341
552.257
552.172
552.088
552.003
551.917
551.831
551.744
551.657
551.569
551.48
551.391
551.301
551.209
551.117
551.024
550.93
550.836
550.74
550.643
550.545
550.447
550.347
550.247
550.146
550.044
549.941
549.838
549.733
549.629
549.523
549.417
549.311
549.204
549.097
548.989
548.881
548.772
548.664
548.555
548.445
548.336
548.226
548.116
548.005
547.895
547.784
547.673
547.562
547.452
547.341
547.231
547.12
547.011
546.901
546.792
546.684
546.576
546.468
546.362
546.256
546.15
546.045
545.941
545.838
545.735
545.632
545.53
545.429
545.329
545.228
545.129
545.029
544.93
544.831
544.733
544.635
544.537
544.42
544.303
544.187
544.071
543.956
543.841
543.727
543.613
543.501
543.389
543.279
543.169
543.061
542.954
542.848
542.744
542.64
542.538
542.438
542.339
542.241
542.144
542.049
541.955
541.863
541.771
541.681
541.593
541.505
541.418
541.332
541.247
541.163
541.08
540.997
540.915
540.834
540.752
540.671
540.59
552.508
552.424
552.341
552.257
552.172
552.088
552.003
551.917
551.831
551.745
551.657
551.569
551.481
551.391
551.301
551.21
551.117
551.024
550.931
550.836
550.74
550.643
550.546
550.447
550.348
550.247
550.146
550.044
549.942
549.838
549.734
549.629
549.524
549.418
549.312
549.205
549.098
548.991
548.883
548.775
548.666
548.557
548.448
548.339
548.229
548.119
548.008
547.897
547.786
547.675
547.564
547.453
547.342
547.231
547.121
547.011
546.901
546.792
546.683
546.575
546.467
546.36
546.254
546.149
546.044
545.939
545.836
545.733
545.631
545.529
545.428
545.327
545.227
545.127
545.028
544.929
544.831
544.732
544.634
544.537
544.42
544.303
544.187
544.071
543.955
543.841
543.727
543.613
543.501
543.389
543.279
543.169
543.061
542.954
542.848
542.743
542.64
542.538
542.438
542.338
542.241
542.144
542.049
541.955
541.863
541.771
541.681
541.592
541.505
541.418
541.332
541.247
541.163
541.08
540.997
540.915
540.834
540.752
540.671
540.59
552.508
552.424
552.341
552.257
552.172
552.088
552.003
551.917
551.831
551.745
551.657
551.569
551.481
551.391
551.301
551.21
551.118
551.025
550.931
550.836
550.74
550.643
550.546
550.447
550.348
550.248
550.147
550.045
549.942
549.839
549.735
549.63
549.525
549.419
549.313
549.207
549.1
548.993
548.885
548.777
548.669
548.56
548.451
548.342
548.232
548.122
548.011
547.9
547.789
547.677
547.566
547.454
547.343
547.232
547.121
547.01
546.9
546.79
546.681
546.573
546.465
546.358
546.252
546.146
546.041
545.937
545.834
545.731
545.629
545.527
545.426
545.325
545.225
545.126
545.027
544.928
544.83
544.732
544.634
544.536
544.42
544.303
544.187
544.071
543.955
543.841
543.726
543.613
543.501
543.389
543.279
543.169
543.061
542.954
542.848
542.743
542.64
542.538
542.438
542.338
542.241
542.144
542.049
541.955
541.863
541.771
541.681
541.592
541.505
541.418
541.332
541.247
541.163
541.08
540.997
540.915
540.834
540.752
540.671
540.59
552.508
552.424
552.341
552.257
552.172
552.088
552.003
551.917
551.831
551.745
551.658
551.57
551.481
551.391
551.301
551.21
551.118
551.025
550.931
550.836
550.74
550.644
550.546
550.447
550.348
550.248
550.147
550.045
549.943
549.839
549.736
549.631
549.526
549.421
549.315
549.209
549.102
548.995
548.888
548.78
548.672
548.563
548.455
548.345
548.236
548.125
548.014
547.903
547.791
547.68
547.567
547.455
547.343
547.232
547.12
547.009
546.899
546.789
546.679
546.571
546.463
546.356
546.249
546.144
546.039
545.934
545.831
545.728
545.626
545.525
545.424
545.323
545.224
545.124
545.025
544.927
544.829
544.731
544.634
544.536
544.419
544.303
544.186
544.071
543.955
543.84
543.726
543.613
543.501
543.389
543.279
543.169
543.061
542.954
542.848
542.743
542.64
542.538
542.438
542.338
542.24
542.144
542.049
541.955
541.863
541.771
541.681
541.592
541.505
541.418
541.332
541.247
541.163
541.08
540.997
540.915
540.834
540.752
540.671
540.59
552.508
552.424
552.341
552.257
552.172
552.088
552.003
551.918
551.832
551.745
551.658
551.57
551.481
551.391
551.301
551.21
551.118
551.025
550.931
550.836
550.74
550.644
550.546
550.448
550.348
550.248
550.147
550.046
549.943
549.84
549.736
549.632
549.527
549.422
549.316
549.21
549.104
548.997
548.89
548.783
548.675
548.567
548.458
548.349
548.24
548.129
548.018
547.906
547.794
547.681
547.569
547.456
547.343
547.231
547.119
547.007
546.896
546.786
546.677
546.568
546.46
546.352
546.246
546.14
546.035
545.931
545.828
545.725
545.623
545.522
545.421
545.321
545.221
545.122
545.024
544.926
544.828
544.73
544.633
544.536
544.419
544.303
544.186
544.07
543.955
543.84
543.726
543.613
543.5
543.389
543.278
543.169
543.061
542.954
542.848
542.743
542.64
542.538
542.437
542.338
542.24
542.144
542.049
541.955
541.862
541.771
541.681
541.592
541.505
541.418
541.332
541.247
541.163
541.08
540.997
540.915
540.834
540.752
540.671
540.59
552.508
552.424
552.341
552.257
552.173
552.088
552.003
551.918
551.832
551.745
551.658
551.57
551.481
551.392
551.301
551.21
551.118
551.025
550.931
550.836
550.741
550.644
550.546
550.448
550.349
550.249
550.148
550.046
549.944
549.841
549.737
549.633
549.528
549.423
549.318
549.212
549.106
549
548.893
548.786
548.679
548.571
548.463
548.354
548.244
548.133
548.022
547.91
547.797
547.683
547.57
547.456
547.342
547.229
547.117
547.005
546.893
546.783
546.673
546.564
546.456
546.348
546.242
546.136
546.031
545.927
545.824
545.721
545.619
545.518
545.418
545.318
545.219
545.12
545.022
544.924
544.826
544.729
544.632
544.536
544.419
544.302
544.186
544.07
543.955
543.84
543.726
543.613
543.5
543.389
543.278
543.169
543.061
542.954
542.848
542.743
542.64
542.538
542.437
542.338
542.24
542.144
542.049
541.955
541.862
541.771
541.681
541.592
541.505
541.418
541.332
541.247
541.163
541.08
540.997
540.915
540.834
540.752
540.671
540.59
552.508
552.424
552.341
552.257
552.172
552.088
552.003
551.918
551.832
551.745
551.658
551.57
551.481
551.392
551.301
551.21
551.118
551.025
550.931
550.836
550.741
550.644
550.547
550.448
550.349
550.249
550.148
550.046
549.944
549.841
549.738
549.634
549.529
549.425
549.319
549.214
549.108
549.002
548.896
548.79
548.683
548.576
548.468
548.359
548.249
548.138
548.026
547.913
547.799
547.685
547.57
547.455
547.341
547.227
547.113
547.001
546.889
546.778
546.668
546.559
546.45
546.343
546.236
546.131
546.026
545.922
545.819
545.717
545.615
545.514
545.414
545.315
545.216
545.117
545.019
544.922
544.825
544.728
544.632
544.535
544.419
544.302
544.186
544.07
543.955
543.84
543.726
543.613
543.5
543.389
543.278
543.169
543.061
542.953
542.848
542.743
542.64
542.538
542.437
542.338
542.24
542.144
542.049
541.955
541.862
541.771
541.681
541.592
541.504
541.418
541.332
541.247
541.163
541.08
540.997
540.915
540.834
540.752
540.671
540.59
552.508
552.424
552.341
552.257
552.172
552.088
552.003
551.918
551.832
551.745
551.658
551.57
551.481
551.392
551.302
551.21
551.118
551.025
550.931
550.837
550.741
550.644
550.547
550.448
550.349
550.249
550.148
550.047
549.945
549.842
549.738
549.635
549.53
549.426
549.321
549.216
549.111
549.005
548.9
548.794
548.687
548.581
548.473
548.365
548.255
548.144
548.031
547.917
547.802
547.686
547.569
547.453
547.338
547.223
547.109
546.995
546.883
546.772
546.662
546.552
546.444
546.337
546.23
546.125
546.02
545.916
545.813
545.711
545.61
545.51
545.41
545.311
545.212
545.114
545.017
544.92
544.823
544.727
544.631
544.535
544.418
544.302
544.186
544.07
543.954
543.84
543.726
543.612
543.5
543.389
543.278
543.169
543.06
542.953
542.848
542.743
542.64
542.538
542.437
542.338
542.24
542.144
542.049
541.955
541.862
541.771
541.681
541.592
541.504
541.418
541.332
541.247
541.163
541.08
540.997
540.915
540.834
540.752
540.671
540.59
552.508
552.424
552.34
552.256
552.172
552.088
552.003
551.918
551.832
551.745
551.658
551.57
551.482
551.392
551.302
551.211
551.118
551.025
550.932
550.837
550.741
550.644
550.547
550.448
550.349
550.249
550.148
550.047
549.945
549.842
549.739
549.636
549.532
549.427
549.323
549.218
549.113
549.008
548.903
548.798
548.692
548.586
548.479
548.371
548.262
548.15
548.036
547.921
547.804
547.686
547.568
547.45
547.333
547.217
547.102
546.988
546.876
546.764
546.654
546.545
546.436
546.329
546.223
546.118
546.013
545.91
545.807
545.705
545.604
545.504
545.405
545.306
545.208
545.111
545.014
544.917
544.821
544.725
544.63
544.535
544.418
544.301
544.185
544.069
543.954
543.839
543.725
543.612
543.5
543.388
543.278
543.169
543.06
542.953
542.847
542.743
542.64
542.538
542.437
542.338
542.24
542.144
542.049
541.955
541.862
541.771
541.681
541.592
541.504
541.418
541.332
541.247
541.163
541.08
540.997
540.915
540.834
540.752
540.671
540.59
552.508
552.424
552.34
552.256
552.172
552.087
552.003
551.917
551.832
551.745
551.658
551.57
551.482
551.392
551.302
551.211
551.119
551.026
550.932
550.837
550.741
550.644
550.547
550.449
550.349
550.249
550.149
550.047
549.945
549.843
549.74
549.636
549.533
549.429
549.324
549.22
549.116
549.011
548.907
548.802
548.698
548.593
548.487
548.379
548.27
548.157
548.042
547.925
547.805
547.685
547.565
547.446
547.327
547.21
547.094
546.98
546.866
546.755
546.645
546.535
546.427
546.32
546.214
546.109
546.005
545.902
545.8
545.698
545.598
545.498
545.399
545.301
545.203
545.106
545.01
544.914
544.819
544.724
544.629
544.534
544.417
544.301
544.185
544.069
543.954
543.839
543.725
543.612
543.5
543.388
543.278
543.169
543.06
542.953
542.847
542.743
542.64
542.538
542.437
542.338
542.24
542.144
542.049
541.955
541.862
541.771
541.681
541.592
541.504
541.418
541.332
541.247
541.163
541.08
540.997
540.915
540.834
540.752
540.671
540.59
552.508
552.424
552.34
552.256
552.172
552.087
552.002
551.917
551.831
551.745
551.658
551.57
551.482
551.392
551.302
551.211
551.119
551.026
550.932
550.837
550.741
550.644
550.547
550.449
550.349
550.249
550.149
550.048
549.946
549.843
549.74
549.637
549.534
549.43
549.326
549.222
549.118
549.014
548.911
548.807
548.704
548.6
548.496
548.389
548.28
548.166
548.049
547.928
547.806
547.683
547.56
547.439
547.319
547.2
547.083
546.968
546.855
546.743
546.633
546.524
546.417
546.31
546.205
546.1
545.996
545.893
545.791
545.691
545.591
545.491
545.393
545.295
545.198
545.102
545.006
544.911
544.816
544.722
544.627
544.534
544.417
544.301
544.184
544.069
543.954
543.839
543.725
543.612
543.5
543.388
543.278
543.168
543.06
542.953
542.847
542.743
542.64
542.538
542.437
542.338
542.24
542.144
542.049
541.955
541.862
541.771
541.681
541.592
541.504
541.418
541.332
541.247
541.163
541.08
540.997
540.915
540.834
540.752
540.671
540.59
552.508
552.424
552.34
552.256
552.171
552.087
552.002
551.917
551.831
551.745
551.658
551.57
551.482
551.392
551.302
551.211
551.119
551.026
550.932
550.837
550.741
550.645
550.547
550.449
550.349
550.25
550.149
550.048
549.946
549.844
549.741
549.638
549.534
549.431
549.327
549.224
549.12
549.017
548.915
548.812
548.71
548.608
548.506
548.401
548.292
548.177
548.056
547.931
547.804
547.677
547.552
547.429
547.307
547.188
547.07
546.955
546.841
546.729
546.62
546.512
546.405
546.299
546.194
546.089
545.986
545.884
545.782
545.682
545.582
545.484
545.386
545.289
545.193
545.097
545.002
544.907
544.813
544.719
544.626
544.533
544.416
544.3
544.184
544.068
543.953
543.839
543.725
543.612
543.499
543.388
543.278
543.168
543.06
542.953
542.847
542.743
542.64
542.538
542.437
542.338
542.24
542.144
542.048
541.955
541.862
541.771
541.681
541.592
541.504
541.418
541.332
541.247
541.163
541.08
540.997
540.915
540.833
540.752
540.671
540.59
552.508
552.424
552.34
552.255
552.171
552.086
552.001
551.916
551.831
551.745
551.658
551.57
551.482
551.393
551.302
551.211
551.119
551.026
550.932
550.837
550.741
550.644
550.547
550.449
550.349
550.25
550.149
550.048
549.946
549.844
549.741
549.638
549.535
549.432
549.329
549.225
549.122
549.02
548.918
548.817
548.717
548.618
548.519
548.418
548.307
548.188
548.062
547.93
547.798
547.667
547.54
547.415
547.293
547.173
547.054
546.938
546.824
546.713
546.604
546.497
546.391
546.286
546.181
546.078
545.975
545.873
545.772
545.672
545.573
545.476
545.379
545.282
545.186
545.091
544.997
544.903
544.81
544.717
544.624
544.532
544.416
544.299
544.183
544.068
543.953
543.839
543.725
543.612
543.499
543.388
543.278
543.168
543.06
542.953
542.847
542.743
542.639
542.538
542.437
542.338
542.24
542.144
542.048
541.955
541.862
541.771
541.681
541.592
541.504
541.418
541.332
541.247
541.163
541.08
540.997
540.915
540.833
540.752
540.671
540.59
552.508
552.424
552.34
552.255
552.171
552.086
552.001
551.916
551.831
551.745
551.658
551.57
551.482
551.393
551.302
551.211
551.119
551.026
550.932
550.837
550.741
550.644
550.547
550.448
550.349
550.249
550.149
550.048
549.946
549.844
549.742
549.639
549.536
549.433
549.33
549.227
549.124
549.022
548.921
548.822
548.724
548.629
548.538
548.444
548.327
548.199
548.062
547.922
547.784
547.651
547.523
547.397
547.275
547.154
547.036
546.92
546.805
546.694
546.586
546.48
546.375
546.271
546.168
546.064
545.962
545.861
545.761
545.662
545.564
545.466
545.37
545.275
545.18
545.085
544.991
544.898
544.806
544.714
544.622
544.531
544.415
544.299
544.183
544.068
543.953
543.838
543.725
543.611
543.499
543.388
543.278
543.168
543.06
542.953
542.847
542.743
542.639
542.538
542.437
542.338
542.24
542.143
542.048
541.955
541.862
541.771
541.681
541.592
541.504
541.418
541.332
541.247
541.163
541.08
540.997
540.915
540.833
540.752
540.671
540.59
552.508
552.425
552.341
552.256
552.171
552.086
552.001
551.916
551.831
551.745
551.658
551.57
551.482
551.393
551.302
551.211
551.119
551.026
550.932
550.837
550.741
550.644
550.547
550.448
550.349
550.249
550.149
550.048
549.946
549.844
549.742
549.639
549.536
549.433
549.33
549.228
549.125
549.024
548.924
548.826
548.731
548.643
548.567
548.5
548.349
548.199
548.046
547.9
547.759
547.628
547.501
547.373
547.253
547.133
547.014
546.901
546.784
546.672
546.565
546.46
546.357
546.254
546.152
546.05
545.948
545.848
545.748
545.65
545.553
545.457
545.361
545.266
545.172
545.079
544.986
544.893
544.801
544.71
544.619
544.529
544.413
544.298
544.182
544.067
543.952
543.838
543.724
543.611
543.499
543.388
543.277
543.168
543.06
542.953
542.847
542.743
542.639
542.537
542.437
542.338
542.24
542.143
542.048
541.955
541.862
541.771
541.681
541.592
541.504
541.418
541.332
541.247
541.163
541.08
540.997
540.915
540.833
540.752
540.671
540.59
552.508
552.426
552.347