/*--------------------------------*- C++ -*----------------------------------*\
  =========                 |
  \\      /  F ield         | OpenFOAM: The Open Source CFD Toolbox
   \\    /   O peration     | Website:  https://openfoam.org
    \\  /    A nd           | Version:  6
     \\/     M anipulation  |
\*---------------------------------------------------------------------------*/
FoamFile
{
    version     2.0;
    format      ascii;
    class       volScalarField;
    location    "3900";
    object      dmdt;
}
// * * * * * * * * * * * * * * * * * * * * * * * * * * * * * * * * * * * * * //

dimensions      [0 0 0 0 0 0 0];

internalField   nonuniform List<scalar> 
4800
(
-0.21929
-0.216684
-0.214079
-0.211481
-0.208911
-0.206383
-0.203891
-0.201448
-0.199071
-0.19677
-0.194507
-0.192296
-0.19016
-0.188109
-0.186141
-0.184257
-0.182448
-0.180709
-0.179039
-0.177434
-0.175893
-0.174424
-0.173026
-0.171695
-0.170431
-0.169223
-0.168062
-0.166933
-0.165824
-0.164721
-0.163616
-0.162496
-0.16135
-0.16017
-0.158948
-0.15768
-0.156364
-0.155003
-0.153603
-0.152172
-0.150721
-0.14926
-0.147798
-0.146344
-0.144907
-0.143496
-0.142112
-0.140756
-0.139421
-0.138099
-0.136774
-0.135429
-0.134039
-0.13258
-0.131018
-0.129318
-0.127442
-0.125352
-0.123013
-0.120395
-0.117494
-0.1143
-0.110814
-0.107051
-0.103036
-0.0987956
-0.0943524
-0.0897268
-0.0849449
-0.0800466
-0.0750837
-0.070102
-0.0651382
-0.0602215
-0.0553689
-0.0505834
-0.0458733
-0.0412561
-0.0367447
-0.0323404
-0.0280412
-0.0238485
-0.0197568
-0.0157535
-0.011819
-0.00792308
-0.00405832
-0.00023526
0.00353972
0.0072643
0.0109391
0.0145666
0.0181504
0.0216945
0.0252031
0.0286805
0.0321305
0.0355567
0.0389624
0.0423503
0.0457231
0.0490828
0.0524316
0.0557709
0.0591023
0.0624269
0.0657459
0.06906
0.0723701
0.0756769
0.0789808
0.0822823
0.085582
0.08888
0.0921767
0.0954723
0.0987672
0.102061
0.105355
0.108649
-0.21925
-0.216571
-0.213894
-0.211226
-0.20858
-0.205982
-0.203433
-0.200942
-0.198506
-0.196179
-0.193891
-0.191651
-0.189488
-0.18742
-0.185442
-0.183547
-0.181735
-0.179997
-0.178332
-0.176736
-0.175205
-0.173749
-0.172365
-0.17105
-0.169805
-0.168619
-0.167478
-0.166372
-0.165286
-0.164207
-0.163128
-0.162037
-0.160924
-0.15978
-0.158595
-0.157363
-0.156078
-0.154743
-0.153364
-0.15195
-0.150512
-0.149061
-0.147608
-0.146163
-0.144733
-0.143326
-0.141945
-0.14059
-0.139259
-0.137943
-0.136631
-0.135306
-0.133945
-0.132521
-0.131004
-0.129354
-0.127532
-0.1255
-0.123218
-0.120664
-0.117817
-0.114668
-0.11123
-0.107506
-0.103513
-0.0992728
-0.0948099
-0.0901575
-0.0853566
-0.0804474
-0.075471
-0.0704721
-0.0654876
-0.0605421
-0.0556538
-0.0508335
-0.0460934
-0.0414458
-0.0369001
-0.0324595
-0.0281264
-0.0238994
-0.0197727
-0.0157379
-0.0117784
-0.00786639
-0.00399257
-0.00016556
0.00360979
0.00733236
0.0110037
0.0146269
0.0182059
0.0217453
0.0252495
0.0287226
0.0321687
0.0355913
0.0389937
0.0423787
0.0457488
0.0491062
0.0524527
0.0557901
0.0591196
0.0624426
0.06576
0.0690727
0.0723815
0.075687
0.0789898
0.0822902
0.0855888
0.0888858
0.0921815
0.0954763
0.0987702
0.102064
0.105356
0.108649
-0.219168
-0.216327
-0.2135
-0.210695
-0.207916
-0.205192
-0.202536
-0.199958
-0.197426
-0.195048
-0.192722
-0.190432
-0.188218
-0.186114
-0.184118
-0.182206
-0.180381
-0.178637
-0.176983
-0.175397
-0.173884
-0.172449
-0.17109
-0.1698
-0.168587
-0.16744
-0.166337
-0.165274
-0.164233
-0.163196
-0.16216
-0.161116
-0.16005
-0.158955
-0.157825
-0.156649
-0.155422
-0.15414
-0.152809
-0.151434
-0.150026
-0.148597
-0.147161
-0.145728
-0.144308
-0.142908
-0.141535
-0.140189
-0.138869
-0.137571
-0.136282
-0.134989
-0.133669
-0.132298
-0.130848
-0.129277
-0.127545
-0.125614
-0.123443
-0.121001
-0.118255
-0.115201
-0.111838
-0.108177
-0.104243
-0.100042
-0.0955966
-0.0909424
-0.0861231
-0.081189
-0.0761891
-0.0711621
-0.0661369
-0.0611364
-0.0561822
-0.0512935
-0.0464879
-0.0417749
-0.0371624
-0.0326557
-0.0282587
-0.0239696
-0.019784
-0.0156943
-0.0116887
-0.0077469
-0.00385696
-2.34898e-05
0.00375153
0.00746926
0.011133
0.0147471
0.0183167
0.0218466
0.0253416
0.0288062
0.0322445
0.0356601
0.039056
0.0424352
0.0458
0.0491526
0.0524949
0.0558283
0.0591542
0.0624738
0.0657882
0.0690981
0.0724042
0.0757072
0.0790077
0.0823059
0.0856024
0.0888974
0.0921912
0.0954841
0.0987762
0.102068
0.105359
0.10865
-0.219055
-0.21599
-0.212948
-0.209941
-0.206974
-0.204075
-0.201263
-0.198555
-0.195895
-0.193431
-0.19105
-0.188696
-0.186416
-0.184252
-0.182223
-0.180287
-0.178446
-0.176689
-0.175044
-0.173469
-0.171982
-0.170573
-0.169249
-0.167997
-0.166829
-0.165738
-0.164693
-0.163685
-0.162701
-0.161722
-0.160739
-0.15975
-0.15874
-0.157703
-0.156635
-0.155525
-0.154363
-0.153148
-0.151879
-0.150561
-0.149201
-0.147812
-0.146407
-0.144998
-0.143594
-0.142206
-0.140844
-0.139513
-0.138211
-0.136938
-0.135686
-0.134439
-0.133176
-0.13187
-0.130498
-0.12902
-0.127395
-0.125585
-0.123553
-0.121258
-0.118665
-0.115756
-0.112513
-0.108959
-0.105102
-0.100957
-0.0965619
-0.091948
-0.0871517
-0.0822167
-0.0771895
-0.0721114
-0.0670173
-0.0619361
-0.0568916
-0.051903
-0.0469952
-0.0421832
-0.0374765
-0.0328794
-0.0283934
-0.0240179
-0.0197527
-0.0155932
-0.0115316
-0.00755341
-0.00364409
0.000195607
0.00396751
0.00767605
0.011327
0.0149268
0.0184814
0.0219968
0.0254782
0.0289301
0.0323568
0.0357618
0.0391483
0.0425189
0.045876
0.0492216
0.0525574
0.055885
0.0592056
0.0625203
0.0658301
0.0691358
0.072438
0.0757373
0.0790343
0.0823293
0.0856226
0.0889147
0.0922057
0.0954958
0.0987853
0.102074
0.105363
0.108651
-0.218912
-0.215567
-0.212257
-0.208995
-0.205792
-0.202668
-0.199653
-0.196772
-0.193964
-0.191378
-0.188922
-0.186493
-0.184131
-0.181893
-0.179809
-0.177838
-0.175971
-0.174194
-0.172546
-0.170982
-0.169533
-0.168158
-0.166881
-0.165682
-0.164571
-0.163545
-0.162576
-0.161638
-0.160726
-0.159816
-0.1589
-0.157975
-0.157026
-0.156051
-0.155045
-0.153998
-0.152902
-0.151755
-0.150554
-0.149299
-0.147999
-0.14666
-0.145296
-0.143921
-0.142544
-0.14118
-0.139842
-0.138536
-0.137266
-0.136028
-0.134822
-0.133632
-0.132435
-0.131203
-0.129921
-0.128548
-0.127042
-0.125366
-0.123481
-0.121346
-0.118924
-0.116182
-0.113105
-0.109701
-0.105957
-0.101902
-0.0975763
-0.0930122
-0.0882486
-0.0833287
-0.0782946
-0.0731804
-0.068019
-0.0628465
-0.0576943
-0.0525889
-0.0475607
-0.0426279
-0.0378046
-0.0330962
-0.0285051
-0.0240296
-0.0196676
-0.0154213
-0.0112917
-0.00727253
-0.00334433
0.000497836
0.00426093
0.00795373
0.0115853
0.0151644
0.0186984
0.0221941
0.0256571
0.0290923
0.0325038
0.0358951
0.0392691
0.0426286
0.0459755
0.049312
0.0526395
0.0559594
0.0592731
0.0625814
0.0658852
0.0691854
0.0724824
0.075777
0.0790694
0.0823601
0.0856493
0.0889375
0.0922247
0.0955112
0.0987971
0.102083
0.105368
0.108653
-0.218743
-0.215063
-0.211432
-0.207874
-0.204399
-0.201025
-0.197765
-0.194669
-0.191685
-0.188922
-0.186354
-0.183834
-0.18138
-0.179065
-0.17691
-0.174889
-0.172984
-0.171184
-0.16951
-0.167963
-0.166558
-0.165228
-0.164018
-0.162893
-0.161852
-0.1609
-0.160015
-0.15916
-0.158329
-0.157503
-0.156666
-0.155816
-0.154937
-0.154025
-0.153081
-0.152094
-0.151058
-0.149974
-0.148838
-0.147648
-0.146409
-0.145128
-0.143815
-0.142487
-0.141152
-0.139825
-0.138522
-0.137254
-0.136026
-0.134836
-0.133685
-0.132559
-0.131435
-0.130287
-0.129099
-0.127838
-0.126457
-0.12492
-0.123191
-0.121223
-0.118975
-0.11642
-0.113536
-0.110304
-0.10671
-0.102783
-0.0985591
-0.0940668
-0.089349
-0.0844469
-0.0794002
-0.0742421
-0.0690118
-0.0637541
-0.0585055
-0.0532917
-0.0481402
-0.0430753
-0.0381169
-0.0332733
-0.0285484
-0.0239445
-0.0194721
-0.0151394
-0.0109445
-0.00688712
-0.002946
0.000890091
0.00463483
0.00830257
0.0119064
0.0154573
0.0189645
0.0224352
0.0258755
0.0292901
0.032683
0.0360576
0.0394167
0.0427626
0.0460974
0.0494227
0.0527401
0.0560508
0.0593559
0.0626564
0.065953
0.0692464
0.0725371
0.0758257
0.0791126
0.082398
0.0856822
0.0889655
0.0922481
0.0955302
0.0988118
0.102093
0.105374
0.108655
-0.218552
-0.214499
-0.210506
-0.206602
-0.20281
-0.199157
-0.195649
-0.192314
-0.189128
-0.186141
-0.183392
-0.180744
-0.178185
-0.175782
-0.173552
-0.171476
-0.169525
-0.167704
-0.166
-0.164472
-0.163102
-0.161833
-0.160704
-0.159666
-0.15871
-0.157842
-0.157042
-0.156275
-0.155533
-0.1548
-0.154052
-0.153288
-0.152491
-0.151652
-0.150772
-0.149842
-0.148861
-0.147832
-0.146756
-0.145628
-0.144449
-0.143227
-0.141972
-0.140697
-0.139416
-0.13814
-0.136886
-0.135668
-0.134489
-0.133358
-0.13227
-0.131215
-0.130169
-0.129109
-0.12802
-0.126871
-0.125615
-0.124215
-0.122642
-0.120847
-0.118788
-0.116426
-0.113734
-0.110676
-0.107256
-0.103498
-0.0994177
-0.0950321
-0.0903892
-0.0855328
-0.0804913
-0.0753003
-0.0700107
-0.0646701
-0.0593164
-0.0539837
-0.048702
-0.0434968
-0.0383894
-0.033391
-0.0285133
-0.0237689
-0.0191718
-0.0147349
-0.010468
-0.00637828
-0.00243618
0.00137912
0.00509103
0.00872109
0.0122868
0.0158015
0.0192754
0.0227161
0.0261294
0.0295199
0.0328914
0.0362468
0.0395887
0.042919
0.0462397
0.0495523
0.052858
0.056158
0.0594532
0.0627446
0.0660327
0.0693181
0.0726015
0.0758831
0.0791634
0.0824426
0.0857209
0.0889986
0.0922758
0.0955525
0.098829
0.102105
0.105381
0.108657
-0.218341
-0.213873
-0.209487
-0.205218
-0.201082
-0.1971
-0.193288
-0.189673
-0.186243
-0.183029
-0.180069
-0.177273
-0.174608
-0.172105
-0.169791
-0.167659
-0.165666
-0.16382
-0.162118
-0.160608
-0.159272
-0.15807
-0.15702
-0.156073
-0.155206
-0.154423
-0.153704
-0.15302
-0.152368
-0.151729
-0.151074
-0.150405
-0.149702
-0.148948
-0.148141
-0.147271
-0.146345
-0.145368
-0.144345
-0.143272
-0.142151
-0.140987
-0.13979
-0.138573
-0.13735
-0.136133
-0.134941
-0.133785
-0.132665
-0.131596
-0.130574
-0.129592
-0.128625
-0.127654
-0.126664
-0.125627
-0.124499
-0.123237
-0.121821
-0.120197
-0.118321
-0.116157
-0.11366
-0.110811
-0.107602
-0.104024
-0.10009
-0.0958282
-0.091286
-0.0864953
-0.0814863
-0.0762964
-0.0709709
-0.065555
-0.0600958
-0.0546404
-0.0492253
-0.0438787
-0.0386173
-0.0334541
-0.0284094
-0.0235007
-0.0187491
-0.0141842
-0.00983609
-0.00572242
-0.00180049
0.0019703
0.00562858
0.00920477
0.0127205
0.0161905
0.019625
0.0230311
0.026414
0.0297778
0.0331255
0.0364597
0.0397825
0.0430956
0.0464007
0.049699
0.0529917
0.0562796
0.0595638
0.0628448
0.0661234
0.0693999
0.0726749
0.0759486
0.0792214
0.0824935
0.0857651
0.0890363
0.0923073
0.095578
0.0988487
0.102119
0.10539
0.10866
-0.218116
-0.213202
-0.208382
-0.203697
-0.19918
-0.194844
-0.190705
-0.18679
-0.18309
-0.179636
-0.176446
-0.173479
-0.170701
-0.168111
-0.165722
-0.163539
-0.161512
-0.159647
-0.157959
-0.156477
-0.155189
-0.154054
-0.153075
-0.152215
-0.151433
-0.150723
-0.15007
-0.149456
-0.148885
-0.14833
-0.147764
-0.147189
-0.146584
-0.145925
-0.145199
-0.144401
-0.143537
-0.142615
-0.141644
-0.140623
-0.139555
-0.138449
-0.13731
-0.136153
-0.134992
-0.133837
-0.132707
-0.131615
-0.13056
-0.129557
-0.128603
-0.127693
-0.126803
-0.12592
-0.12503
-0.124104
-0.123097
-0.121975
-0.120715
-0.119259
-0.117559
-0.11558
-0.113286
-0.110642
-0.107626
-0.104239
-0.100482
-0.0963831
-0.0919748
-0.0872865
-0.0823445
-0.0771876
-0.0718562
-0.0663889
-0.0608373
-0.0552649
-0.0497164
-0.0442194
-0.0387917
-0.0334537
-0.0282245
-0.0231228
-0.018178
-0.0134444
-0.008998
-0.00488454
-0.00102312
0.00266507
0.00624108
0.00974412
0.0131975
0.0166151
0.0200052
0.0233735
0.0267237
0.0300589
0.0333813
0.0366929
0.0399953
0.04329
0.0465783
0.0498611
0.0531396
0.0564145
0.0596865
0.0629562
0.0662242
0.0694908
0.0727565
0.0760215
0.079286
0.0825503
0.0858144
0.0890784
0.0923424
0.0956065
0.0988706
0.102135
0.105399
0.108663
-0.217878
-0.212497
-0.207228
-0.202112
-0.197175
-0.192443
-0.18794
-0.183701
-0.179726
-0.176029
-0.172619
-0.169482
-0.166579
-0.163906
-0.161454
-0.159222
-0.157167
-0.155298
-0.153622
-0.152176
-0.150941
-0.149871
-0.148955
-0.148171
-0.147464
-0.146816
-0.146218
-0.145662
-0.145153
-0.14466
-0.14417
-0.143678
-0.143166
-0.142602
-0.141962
-0.141243
-0.140451
-0.13959
-0.138679
-0.137713
-0.136697
-0.135649
-0.134566
-0.133468
-0.132368
-0.131277
-0.13021
-0.129183
-0.128199
-0.127262
-0.126377
-0.125536
-0.124721
-0.123919
-0.123122
-0.122303
-0.121413
-0.120429
-0.119322
-0.118032
-0.116508
-0.114713
-0.112612
-0.110171
-0.107368
-0.104185
-0.10063
-0.0967105
-0.0924499
-0.0878812
-0.0830348
-0.0779473
-0.0726377
-0.0671428
-0.0615292
-0.0558606
-0.0501818
-0.0445278
-0.0389268
-0.0334036
-0.0279712
-0.0226424
-0.0174463
-0.0124677
-0.00787217
-0.0038141
-9.13421e-05
0.00345481
0.00691224
0.0103222
0.0137031
0.0170631
0.0204064
0.0237355
0.0270522
0.0303581
0.0336546
0.0369429
0.0402242
0.0434997
0.0467702
0.0500368
0.0533002
0.056561
0.05982
0.0630775
0.0663341
0.06959
0.0728456
0.0761011
0.0793566
0.0826123
0.0858682
0.0891244
0.0923809
0.0956376
0.0988946
0.102152
0.105409
0.108667
-0.21763
-0.211752
-0.205994
-0.200406
-0.19502
-0.189874
-0.185007
-0.18045
-0.176213
-0.172297
-0.16869
-0.165395
-0.162367
-0.159608
-0.157098
-0.154818
-0.152738
-0.150868
-0.149214
-0.147797
-0.146609
-0.1456
-0.144737
-0.144015
-0.143366
-0.142761
-0.142214
-0.141704
-0.141234
-0.140786
-0.140351
-0.139925
-0.139489
-0.139008
-0.138452
-0.137816
-0.137098
-0.136305
-0.135457
-0.134552
-0.133592
-0.132601
-0.131577
-0.130539
-0.129504
-0.128483
-0.127483
-0.126525
-0.125612
-0.124744
-0.123926
-0.123151
-0.122404
-0.121679
-0.120964
-0.120237
-0.119455
-0.118597
-0.117637
-0.116505
-0.115151
-0.113541
-0.11163
-0.109384
-0.106783
-0.103808
-0.100453
-0.0967237
-0.0926412
-0.088222
-0.0834946
-0.0784907
-0.0732387
-0.0677816
-0.0621583
-0.056415
-0.0506093
-0.0447979
-0.0390267
-0.033318
-0.0276713
-0.0220825
-0.0165587
-0.0111842
-0.00627109
-0.00243759
0.000988803
0.00430754
0.00760916
0.0109125
0.0142172
0.0175198
0.0208175
0.0241088
0.027393
0.0306704
0.0339412
0.0372063
0.0404663
0.0437221
0.0469745
0.0502242
0.0534718
0.0567179
0.059963
0.0632076
0.066452
0.0696965
0.0729414
0.0761866
0.0794325
0.082679
0.0859261
0.0891738
0.0924222
0.0956711
0.0989205
0.10217
0.10542
0.10867
-0.217372
-0.210983
-0.20472
-0.19863
-0.192769
-0.187195
-0.181961
-0.177097
-0.172617
-0.168507
-0.16473
-0.161286
-0.158148
-0.155309
-0.152746
-0.150423
-0.148319
-0.146445
-0.144814
-0.14342
-0.142266
-0.141302
-0.14048
-0.139802
-0.139195
-0.138623
-0.138112
-0.137631
-0.137185
-0.136767
-0.136369
-0.135988
-0.135605
-0.135187
-0.134702
-0.134143
-0.133498
-0.132775
-0.131993
-0.131152
-0.130257
-0.129328
-0.128366
-0.127393
-0.126431
-0.125483
-0.124555
-0.123669
-0.122827
-0.122027
-0.121274
-0.120561
-0.119879
-0.11922
-0.118576
-0.117928
-0.117246
-0.116502
-0.115679
-0.114698
-0.113512
-0.112083
-0.110354
-0.108293
-0.105881
-0.1031
-0.0999403
-0.0964087
-0.0925117
-0.0882679
-0.0836899
-0.0788051
-0.0736478
-0.0682455
-0.0626315
-0.056849
-0.050957
-0.0450289
-0.0391141
-0.0332318
-0.0273778
-0.021518
-0.0155847
-0.00952309
-0.00365403
-0.000692283
0.00213979
0.00514374
0.00827577
0.0114785
0.0147162
0.0179693
0.0212275
0.0244853
0.0277401
0.0309909
0.0342374
0.0374799
0.0407189
0.0439551
0.047189
0.0504213
0.0536527
0.0568835
0.0601143
0.0633453
0.066577
0.0698094
0.0730429
0.0762774
0.079513
0.0827497
0.0859875
0.0892263
0.0924661
0.0957066
0.0989479
0.10219
0.105432
0.108674
-0.217109
-0.21019
-0.203399
-0.196804
-0.190477
-0.184499
-0.178935
-0.173794
-0.169068
-0.164758
-0.160836
-0.157252
-0.154002
-0.151087
-0.148476
-0.146117
-0.143995
-0.142118
-0.140495
-0.139109
-0.137967
-0.137025
-0.136234
-0.135582
-0.135001
-0.134452
-0.133954
-0.133486
-0.133053
-0.132652
-0.132278
-0.131924
-0.131573
-0.131194
-0.130765
-0.130268
-0.129688
-0.129033
-0.128319
-0.127544
-0.126717
-0.125855
-0.124961
-0.12406
-0.123173
-0.1223
-0.121448
-0.120636
-0.119862
-0.119127
-0.118435
-0.117781
-0.117157
-0.116557
-0.115974
-0.11539
-0.114788
-0.114144
-0.113436
-0.112585
-0.111561
-0.110308
-0.108765
-0.106885
-0.104658
-0.102067
-0.0990998
-0.0957596
-0.0920432
-0.0879754
-0.0835689
-0.0788394
-0.073805
-0.0684861
-0.0629096
-0.0571211
-0.0512024
-0.0452149
-0.0391961
-0.0331755
-0.0271595
-0.0211016
-0.0148347
-0.00782327
0.00102752
0.00113715
0.0030752
0.00581154
0.008837
0.0119814
0.0151783
0.0183983
0.0216274
0.0248586
0.0280885
0.0313158
0.0345399
0.037761
0.0409797
0.0441964
0.0474119
0.0506267
0.0538414
0.0570565
0.0602724
0.0634894
0.0667078
0.0699277
0.0731493
0.0763725
0.0795974
0.0828239
0.0860519
0.0892814
0.0925121
0.0957439
0.0989766
0.10221
0.105444
0.108678
-0.216843
-0.209395
-0.20208
-0.19498
-0.188195
-0.181824
-0.175941
-0.170566
-0.165654
-0.161159
-0.157096
-0.1534
-0.15004
-0.147034
-0.144362
-0.141964
-0.139823
-0.137943
-0.136318
-0.134925
-0.133768
-0.132822
-0.13204
-0.131392
-0.130819
-0.130278
-0.129778
-0.129309
-0.128876
-0.12848
-0.128114
-0.127773
-0.127439
-0.127087
-0.126697
-0.126248
-0.125724
-0.125132
-0.124479
-0.123768
-0.123009
-0.122214
-0.121391
-0.120564
-0.11975
-0.11895
-0.118176
-0.117434
-0.11673
-0.116058
-0.115424
-0.114825
-0.114253
-0.113708
-0.113174
-0.11265
-0.112117
-0.111561
-0.11095
-0.110221
-0.109341
-0.108241
-0.106864
-0.105155
-0.103107
-0.100699
-0.0979183
-0.0947677
-0.0912436
-0.0873638
-0.0831403
-0.07858
-0.0736943
-0.0685042
-0.063045
-0.0573534
-0.0514621
-0.0454147
-0.039286
-0.0331528
-0.0270493
-0.0209672
-0.0148662
-0.00869223
-0.00269571
0.000325577
0.00316329
0.0061443
0.00923964
0.0123997
0.0155924
0.0187999
0.0220124
0.0252251
0.0284354
0.0316425
0.0348464
0.0380476
0.0412466
0.0444443
0.0476414
0.0508386
0.0540365
0.0572355
0.0604362
0.0636387
0.0668434
0.0700504
0.0732596
0.0764712
0.0796849
0.0829009
0.0861188
0.0893385
0.0925598
0.0957826
0.0990064
0.102231
0.105457
0.108682
-0.216579
-0.2086
-0.200759
-0.193167
-0.185944
-0.179202
-0.17302
-0.167427
-0.162367
-0.157745
-0.153557
-0.149766
-0.146326
-0.143239
-0.14049
-0.138038
-0.135861
-0.133963
-0.132321
-0.130907
-0.129717
-0.128741
-0.127935
-0.127263
-0.126679
-0.126127
-0.125613
-0.12513
-0.124683
-0.124276
-0.123904
-0.123562
-0.123234
-0.1229
-0.122539
-0.122127
-0.121653
-0.121113
-0.120513
-0.119859
-0.11916
-0.118428
-0.117673
-0.116917
-0.116174
-0.115447
-0.11475
-0.114077
-0.113439
-0.112825
-0.112242
-0.111692
-0.111168
-0.11067
-0.110175
-0.109693
-0.109214
-0.108724
-0.108193
-0.107583
-0.106832
-0.105884
-0.10467
-0.103131
-0.101247
-0.0990034
-0.0963964
-0.0934273
-0.0900927
-0.0864038
-0.0823691
-0.0779964
-0.0732964
-0.0682934
-0.0630012
-0.0574159
-0.0515565
-0.0454956
-0.0393217
-0.0331313
-0.0269913
-0.020938
-0.0150259
-0.00936641
-0.00426424
-0.00035918
0.00305252
0.00631199
0.00953416
0.0127499
0.0159641
0.0191757
0.0223827
0.0255841
0.0287797
0.0319699
0.0351558
0.0383382
0.0415184
0.0446974
0.0478763
0.0510557
0.0542365
0.0574192
0.0606043
0.0637921
0.0669827
0.0701764
0.073373
0.0765725
0.0797749
0.0829799
0.0861874
0.0893972
0.0926089
0.0958223
0.0990371
0.102253
0.10547
0.108687
-0.216324
-0.207831
-0.199474
-0.191396
-0.183758
-0.176676
-0.170217
-0.164409
-0.159209
-0.154508
-0.15024
-0.146368
-0.142862
-0.139713
-0.136903
-0.134402
-0.132178
-0.130227
-0.12854
-0.127087
-0.12585
-0.124818
-0.12396
-0.123233
-0.122606
-0.122028
-0.121482
-0.120968
-0.120492
-0.120058
-0.119665
-0.119309
-0.118977
-0.118652
-0.118311
-0.117931
-0.117497
-0.116996
-0.116438
-0.115831
-0.115186
-0.114513
-0.113819
-0.113123
-0.112445
-0.111794
-0.111177
-0.110579
-0.110004
-0.109448
-0.108912
-0.108405
-0.107923
-0.107462
-0.107
-0.106549
-0.106109
-0.105671
-0.105206
-0.104686
-0.104045
-0.103219
-0.102141
-0.100768
-0.0990465
-0.0969633
-0.0945267
-0.0917353
-0.0885887
-0.0850922
-0.0812531
-0.0770766
-0.0725685
-0.0677309
-0.0625715
-0.0571143
-0.0513864
-0.045428
-0.0392951
-0.0330912
-0.026917
-0.020846
-0.0149849
-0.00951459
-0.00470419
-0.000616305
0.0030326
0.0064626
0.00978918
0.0130642
0.0163094
0.019534
0.0227425
0.0259379
0.0291224
0.0322983
0.0354676
0.0386323
0.0417942
0.0449547
0.0481152
0.0512768
0.0544403
0.0576064
0.0607757
0.0639484
0.0671247
0.0703047
0.0734884
0.0766757
0.0798665
0.0830604
0.0862573
0.0894569
0.0926588
0.0958627
0.0990682
0.102275
0.105483
0.108691
-0.21609
-0.207128
-0.198319
-0.189827
-0.181813
-0.174404
-0.167671
-0.161646
-0.156287
-0.151493
-0.147174
-0.143259
-0.139717
-0.13652
-0.133646
-0.131086
-0.128816
-0.126813
-0.125062
-0.123536
-0.122221
-0.121101
-0.120157
-0.119339
-0.118626
-0.117996
-0.117402
-0.11684
-0.116317
-0.115839
-0.11541
-0.115026
-0.114677
-0.114349
-0.114019
-0.113664
-0.113261
-0.112791
-0.112273
-0.111711
-0.111112
-0.110487
-0.109845
-0.109197
-0.108572
-0.107988
-0.107444
-0.10692
-0.106406
-0.105906
-0.105418
-0.104953
-0.104507
-0.104077
-0.103642
-0.103213
-0.102798
-0.102395
-0.101986
-0.101542
-0.101008
-0.100276
-0.0993092
-0.0980786
-0.0965158
-0.0945936
-0.0923211
-0.0896992
-0.0867349
-0.0834292
-0.0797894
-0.0758187
-0.0715216
-0.0668978
-0.061948
-0.0566821
-0.0511175
-0.0452873
-0.0392326
-0.0330312
-0.0267924
-0.02061
-0.0146094
-0.00906903
-0.00450056
-0.000507443
0.003166
0.00665998
0.0100485
0.01337
0.0166451
0.0198854
0.0230987
0.0262908
0.0294662
0.032629
0.0357825
0.0389298
0.0420733
0.0452153
0.0483573
0.0515007
0.0546467
0.0577959
0.060949
0.0641064
0.0672681
0.0704344
0.073605
0.0767799
0.0799589
0.0831416
0.0863278
0.089517
0.092709
0.0959034
0.0990996
0.102297
0.105496
0.108696
-0.215895
-0.206544
-0.197352
-0.18849
-0.180133
-0.172428
-0.165452
-0.159215
-0.153671
-0.148746
-0.144364
-0.140422
-0.136873
-0.133665
-0.130768
-0.128152
-0.125795
-0.1237
-0.121861
-0.120252
-0.11885
-0.11763
-0.116576
-0.115644
-0.114814
-0.114084
-0.113406
-0.112769
-0.112175
-0.111635
-0.111148
-0.110717
-0.110338
-0.109992
-0.109657
-0.109311
-0.108917
-0.10847
-0.107987
-0.107466
-0.106916
-0.106343
-0.105753
-0.105156
-0.104585
-0.104059
-0.103579
-0.103117
-0.102662
-0.102215
-0.101774
-0.101347
-0.100933
-0.100527
-0.100117
-0.0997102
-0.0993112
-0.0989203
-0.0985342
-0.0981482
-0.0977
-0.0970595
-0.0962079
-0.0950879
-0.093651
-0.091865
-0.0897418
-0.0872878
-0.0845083
-0.0813994
-0.0779673
-0.0742144
-0.0701436
-0.0657491
-0.0610306
-0.0559925
-0.0506387
-0.0449916
-0.0390808
-0.0329381
-0.0266459
-0.0202748
-0.0138781
-0.0077612
-0.00381119
-0.000158168
0.00341039
0.00690512
0.0103272
0.013684
0.0169852
0.0202407
0.0234591
0.0266481
0.0298146
0.0329641
0.0361016
0.039231
0.0423558
0.0454786
0.0486016
0.0517264
0.0548544
0.0579865
0.0611232
0.064265
0.067412
0.0705643
0.0737218
0.0768842
0.0800513
0.0832228
0.0863982
0.0895772
0.0927593
0.095944
0.099131
0.10232
0.105509
0.1087
-0.215737
-0.206066
-0.196527
-0.187332
-0.1787
-0.170742
-0.16351
-0.157046
-0.151338
-0.146307
-0.141867
-0.137895
-0.134319
-0.131083
-0.128147
-0.125484
-0.123074
-0.12091
-0.118977
-0.117252
-0.115735
-0.114392
-0.113206
-0.112146
-0.111189
-0.110337
-0.109542
-0.108798
-0.108109
-0.107484
-0.106919
-0.10642
-0.105984
-0.105599
-0.10524
-0.104882
-0.104474
-0.104038
-0.103575
-0.103083
-0.102571
-0.102047
-0.101514
-0.100978
-0.100468
-0.0999989
-0.0995775
-0.0991701
-0.0987693
-0.0983708
-0.0979738
-0.0975845
-0.0972011
-0.0968196
-0.0964333
-0.0960464
-0.0956623
-0.0952806
-0.0949032
-0.0945369
-0.0941245
-0.0935585
-0.0928128
-0.0918029
-0.0904913
-0.0888442
-0.0868799
-0.0845831
-0.0819756
-0.0790589
-0.0758336
-0.0723004
-0.0684581
-0.0642994
-0.059823
-0.0550296
-0.0499174
-0.0444946
-0.0387764
-0.0327579
-0.0264854
-0.0199848
-0.013023
-0.00444778
-0.00292686
0.000190794
0.00365853
0.00716528
0.0106243
0.0140158
0.0173416
0.0206102
0.0238317
0.027016
0.0301717
0.0333063
0.0364262
0.0395365
0.0426413
0.0457441
0.0488473
0.051953
0.0550625
0.058177
0.0612971
0.0644231
0.0675552
0.0706935
0.0738377
0.0769877
0.080143
0.0833032
0.086468
0.0896367
0.092809
0.0959843
0.099162
0.102342
0.105523
0.108704
-0.215648
-0.205806
-0.196094
-0.186657
-0.177711
-0.169445
-0.16196
-0.155297
-0.149435
-0.144281
-0.139745
-0.13572
-0.132115
-0.12886
-0.125902
-0.123199
-0.120716
-0.118453
-0.116411
-0.11456
-0.112909
-0.111423
-0.110084
-0.108872
-0.107761
-0.106764
-0.105816
-0.104938
-0.104131
-0.103398
-0.102731
-0.102144
-0.101627
-0.101176
-0.100767
-0.100368
-0.099929
-0.0994874
-0.0990313
-0.0985567
-0.0980757
-0.0975921
-0.0971158
-0.0966441
-0.096199
-0.0957915
-0.0954271
-0.0950734
-0.0947253
-0.0943749
-0.0940217
-0.0936702
-0.0933196
-0.0929648
-0.0926016
-0.092231
-0.0918588
-0.0914873
-0.0911175
-0.0907518
-0.0903458
-0.0898202
-0.0891402
-0.0882281
-0.0870358
-0.0855141
-0.0836939
-0.0815561
-0.0791323
-0.0764157
-0.0733996
-0.0700828
-0.0664683
-0.0625537
-0.0583343
-0.0538057
-0.0489601
-0.0437891
-0.0382975
-0.0324842
-0.0263972
-0.0201412
-0.0138095
-0.00771232
-0.00366145
0.000102845
0.00379852
0.0074173
0.0109437
0.0143772
0.0177265
0.0210047
0.0242251
0.0274004
0.0305417
0.0336583
0.0367579
0.0398468
0.04293
0.0460112
0.0490936
0.0521792
0.0552697
0.0583662
0.0614693
0.0645794
0.0676966
0.0708208
0.0739519
0.0770894
0.080233
0.0833822
0.0865364
0.0896951
0.0928577
0.0960237
0.0991924
0.102363
0.105535
0.108709
-0.215624
-0.205724
-0.195924
-0.186354
-0.177209
-0.168697
-0.160966
-0.154071
-0.147989
-0.142653
-0.137988
-0.133887
-0.130248
-0.12697
-0.123989
-0.121246
-0.118704
-0.116348
-0.114188
-0.112197
-0.110396
-0.108753
-0.107248
-0.105869
-0.104587
-0.103414
-0.102292
-0.101252
-0.100294
-0.0994206
-0.0986189
-0.0979095
-0.0972802
-0.0967316
-0.0962433
-0.0957668
-0.0952819
-0.0948142
-0.0943492
-0.0938804
-0.0934227
-0.0929751
-0.0925484
-0.0921383
-0.0917591
-0.091416
-0.0911102
-0.0908138
-0.0905219
-0.0902257
-0.0899228
-0.089616
-0.0893022
-0.0889768
-0.0886376
-0.0882836
-0.0879246
-0.0875661
-0.087203
-0.086832
-0.0864191
-0.0859033
-0.0852531
-0.0844017
-0.0833072
-0.0819181
-0.080233
-0.0782481
-0.0759981
-0.07347
-0.0706663
-0.0675802
-0.0642083
-0.0605492
-0.0565984
-0.052346
-0.0477781
-0.0428786
-0.0376514
-0.0321043
-0.0262872
-0.020326
-0.014422
-0.00889292
-0.00420915
3.57026e-06
0.00395098
0.00770948
0.0113138
0.0147886
0.0181558
0.021436
0.0246479
0.0278076
0.0309286
0.0340223
0.0370977
0.0401621
0.0432211
0.0462791
0.0493392
0.0524039
0.0554746
0.0585527
0.0616386
0.0647326
0.0678349
0.0709452
0.0740632
0.0771886
0.0803207
0.083459
0.0866029
0.0897518
0.0929051
0.0960619
0.0992218
0.102384
0.105548
0.108713
-0.215598
-0.205655
-0.195834
-0.186242
-0.177047
-0.168429
-0.16053
-0.15344
-0.147162
-0.141648
-0.136826
-0.1326
-0.128876
-0.125532
-0.122494
-0.119688
-0.117067
-0.114605
-0.112302
-0.110157
-0.108192
-0.106383
-0.104703
-0.103152
-0.101691
-0.100324
-0.0990204
-0.0977924
-0.0966509
-0.0955963
-0.0946281
-0.0937532
-0.0929698
-0.092289
-0.0916813
-0.0910948
-0.0905414
-0.0900223
-0.0895275
-0.0890506
-0.088603
-0.0881853
-0.0877994
-0.087443
-0.0871268
-0.0868491
-0.0866076
-0.0863772
-0.0861529
-0.0859233
-0.0856834
-0.0854335
-0.0851663
-0.0848772
-0.0845672
-0.0842342
-0.0838921
-0.0835508
-0.0831948
-0.0828176
-0.0823952
-0.0818832
-0.0812475
-0.0804338
-0.0794045
-0.0781253
-0.0765734
-0.0747501
-0.0726715
-0.0703285
-0.0677298
-0.0648726
-0.0617455
-0.0583468
-0.0546715
-0.0507041
-0.0464269
-0.0418209
-0.0368876
-0.0316313
-0.0260898
-0.0203753
-0.0146901
-0.00928528
-0.00437498
9.72166e-05
0.00423368
0.00810813
0.0117748
0.0152762
0.0186471
0.0219164
0.0251083
0.0282426
0.0313354
0.0343998
0.037446
0.0404821
0.043514
0.0465465
0.0495828
0.0526254
0.0556758
0.058735
0.0618035
0.0648815
0.0679689
0.0710655
0.0741707
0.0772841
0.0804051
0.0835329
0.0866668
0.0898063
0.0929505
0.0960987
0.0992501
0.102404
0.10556
0.108717
-0.215625
-0.205745
-0.196009
-0.186516
-0.177373
-0.1687
-0.16067
-0.153414
-0.146968
-0.141297
-0.136331
-0.131968
-0.128107
-0.124656
-0.121518
-0.118613
-0.115873
-0.113278
-0.110818
-0.108511
-0.10637
-0.104381
-0.102522
-0.100786
-0.0991385
-0.0975698
-0.0960699
-0.09463
-0.0932694
-0.0919912
-0.09081
-0.0897229
-0.0887377
-0.0878756
-0.0871027
-0.0863739
-0.0857178
-0.0851218
-0.0845718
-0.0840694
-0.083617
-0.0832125
-0.0828545
-0.082542
-0.0822814
-0.0820692
-0.0818986
-0.0817472
-0.0816083
-0.081467
-0.0813135
-0.081139
-0.0809344
-0.0806959
-0.0804265
-0.0801269
-0.0798121
-0.0794926
-0.0791477
-0.0787686
-0.0783384
-0.0778267
-0.0771965
-0.0764064
-0.0754271
-0.074225
-0.0727846
-0.0711187
-0.0692165
-0.0670642
-0.064657
-0.0620134
-0.0591292
-0.0560003
-0.0526127
-0.0489471
-0.0449789
-0.0406867
-0.0360519
-0.0310742
-0.0257761
-0.0202467
-0.0146606
-0.00924575
-0.00419004
0.000457553
0.00472367
0.00867088
0.0123659
0.0158659
0.0192172
0.0224565
0.0256128
0.0287091
0.0317639
0.0347912
0.0378022
0.0408054
0.0438069
0.0468116
0.0498225
0.052842
0.0558713
0.0589114
0.0619625
0.0650246
0.0680974
0.0711805
0.0742733
0.0773752
0.0804854
0.0836031
0.0867275
0.089858
0.0929935
0.0961334
0.0992769
0.102423
0.105571
0.108721
-0.215752
-0.206138
-0.196695
-0.187468
-0.178438
-0.169723
-0.161569
-0.154143
-0.147515
-0.141666
-0.13651
-0.131969
-0.12795
-0.12435
-0.121068
-0.118013
-0.115119
-0.112363
-0.109741
-0.10727
-0.104957
-0.102796
-0.100763
-0.0988403
-0.0970084
-0.0952458
-0.0935338
-0.0918586
-0.0902422
-0.0886955
-0.0872387
-0.0858797
-0.0846334
-0.0835235
-0.0825292
-0.0816205
-0.0808221
-0.080123
-0.079494
-0.0789435
-0.0784745
-0.0780642
-0.0777156
-0.077434
-0.0772173
-0.0770665
-0.0769705
-0.0769123
-0.0768779
-0.0768516
-0.076815
-0.0767434
-0.0766255
-0.0764652
-0.0762613
-0.0760173
-0.0757491
-0.0754628
-0.0751384
-0.0747663
-0.0743347
-0.073822
-0.0731949
-0.0724222
-0.0714908
-0.0703551
-0.0689926
-0.0674367
-0.0656789
-0.0637136
-0.0615165
-0.0591022
-0.0564792
-0.0536472
-0.0505759
-0.0472461
-0.0436046
-0.0396211
-0.0352569
-0.0305214
-0.0254248
-0.0200365
-0.0144712
-0.00893879
-0.00368683
0.00112979
0.00547934
0.00944493
0.0131197
0.0165787
0.019879
0.0230635
0.0261649
0.0292085
0.0322135
0.035195
0.0381642
0.0411296
0.0440974
0.0470718
0.0500559
0.0530513
0.0560592
0.05908
0.0621138
0.0651602
0.0682188
0.071289
0.0743699
0.0774607
0.0805607
0.0836689
0.0867844
0.0899063
0.0930338
0.096166
0.0993019
0.102441
0.105582
0.108724
-0.215902
-0.206617
-0.197537
-0.188629
-0.179807
-0.171184
-0.163036
-0.155573