/*--------------------------------*- C++ -*----------------------------------*\
  =========                 |
  \\      /  F ield         | OpenFOAM: The Open Source CFD Toolbox
   \\    /   O peration     | Website:  https://openfoam.org
    \\  /    A nd           | Version:  6
     \\/     M anipulation  |
\*---------------------------------------------------------------------------*/
FoamFile
{
    version     2.0;
    format      ascii;
    class       volVectorField;
    location    "3900";
    object      U;
}
// * * * * * * * * * * * * * * * * * * * * * * * * * * * * * * * * * * * * * //

dimensions      [0 1 -1 0 0 0 0];

internalField   nonuniform List<vector> 
4800
(
(-0.000123103 0 1.24894e-05)
(0.000339224 0 -5.56101e-05)
(0.000445389 0 -0.000294801)
(0.000629133 0 -0.000201269)
(0.000714788 0 -0.000366445)
(0.00095296 0 -0.000264951)
(0.00116328 0 -0.000217065)
(0.00125949 0 -0.00022162)
(0.00137253 0 -0.000259029)
(0.00164208 0 -0.000147727)
(0.00185397 0 -8.77971e-05)
(0.00184069 0 -8.92514e-05)
(0.00188743 0 -0.000122645)
(0.00206134 0 -6.82284e-05)
(0.00233271 0 -2.36391e-06)
(0.00245068 0 -6.7732e-05)
(0.00245095 0 -5.24824e-05)
(0.00249567 0 -3.34598e-05)
(0.00260869 0 -0.000104197)
(0.00275862 0 5.30077e-05)
(0.0027662 0 -5.56167e-05)
(0.00276913 0 -5.70262e-05)
(0.0028096 0 -4.26206e-05)
(0.00288692 0 3.8802e-05)
(0.00295691 0 1.16597e-05)
(0.00298885 0 -0.000105544)
(0.00302514 0 -0.000157312)
(0.00308308 0 -7.41091e-05)
(0.00308729 0 -2.77026e-05)
(0.00306782 0 -4.12955e-06)
(0.0030282 0 -7.1846e-06)
(0.00296238 0 1.47927e-05)
(0.00285083 0 4.41545e-05)
(0.00268822 0 2.40939e-05)
(0.002499 0 8.10866e-05)
(0.00232848 0 4.54414e-05)
(0.00217348 0 -8.88232e-05)
(0.00202106 0 -0.000104437)
(0.00187548 0 2.25211e-05)
(0.00176125 0 9.08416e-05)
(0.0016814 0 5.54694e-05)
(0.00160966 0 -9.11584e-06)
(0.00152606 0 -4.65358e-05)
(0.00144179 0 -2.64314e-05)
(0.00138074 0 -8.88782e-06)
(0.00134501 0 -2.63683e-05)
(0.0013289 0 -3.88743e-05)
(0.00133004 0 -4.07896e-05)
(0.00133441 0 -1.09297e-05)
(0.00133169 0 1.04963e-05)
(0.0013159 0 -1.49093e-05)
(0.00125406 0 6.2995e-05)
(0.00114686 0 2.84632e-05)
(0.00101578 0 -6.22252e-06)
(0.000826185 0 0.00018455)
(0.000687949 0 5.75562e-05)
(0.00047851 0 0.000189279)
(0.00032875 0 -8.94648e-05)
(0.000165069 0 2.11811e-05)
(-5.8866e-05 0 0.000150257)
(-0.000125889 0 -3.46995e-05)
(-0.000223275 0 -3.53776e-05)
(-0.000378296 0 -8.4024e-05)
(-0.000548243 0 1.69874e-05)
(-0.000612864 0 -6.63644e-05)
(-0.000616223 0 -6.29659e-05)
(-0.000577234 0 -3.72165e-05)
(-0.00056686 0 -1.38938e-05)
(-0.000593634 0 5.1222e-05)
(-0.000647919 0 -2.83679e-06)
(-0.000679862 0 -6.77878e-05)
(-0.000711306 0 -3.13533e-07)
(-0.000721909 0 -2.13782e-05)
(-0.000675686 0 -4.28848e-05)
(-0.000622635 0 -4.88759e-05)
(-0.000604706 0 -6.45998e-05)
(-0.000589668 0 -8.12608e-05)
(-0.000546678 0 -6.50872e-05)
(-0.000497578 0 -7.62009e-05)
(-0.000458147 0 -7.08058e-05)
(-0.000401072 0 -6.18827e-05)
(-0.000316523 0 -8.26246e-05)
(-0.000234379 0 -8.15222e-05)
(-0.000146815 0 -8.77243e-05)
(-1.10194e-07 0 -0.000107612)
(2.63101e-13 0 2.03725e-14)
(5.00865e-13 0 2.8393e-14)
(4.5265e-13 0 1.98287e-14)
(4.20528e-13 0 1.23626e-14)
(4.01147e-13 0 7.13414e-15)
(3.90883e-13 0 3.30456e-15)
(3.87611e-13 0 1.97013e-16)
(3.90218e-13 0 -2.53577e-15)
(3.98054e-13 0 -5.01533e-15)
(4.10583e-13 0 -7.23424e-15)
(4.27187e-13 0 -9.12149e-15)
(4.47093e-13 0 -1.05838e-14)
(4.69353e-13 0 -1.15328e-14)
(4.9288e-13 0 -1.19024e-14)
(5.16497e-13 0 -1.1657e-14)
(5.38999e-13 0 -1.07948e-14)
(5.59205e-13 0 -9.34589e-15)
(5.76018e-13 0 -7.36733e-15)
(5.88458e-13 0 -4.93549e-15)
(5.95703e-13 0 -2.13829e-15)
(5.97114e-13 0 9.31158e-16)
(5.92249e-13 0 4.17959e-15)
(5.80863e-13 0 7.51666e-15)
(5.629e-13 0 1.08578e-14)
(5.38462e-13 0 1.41265e-14)
(5.07795e-13 0 1.72561e-14)
(4.71258e-13 0 2.01904e-14)
(4.29302e-13 0 2.28837e-14)
(3.8245e-13 0 2.53001e-14)
(3.3128e-13 0 2.74122e-14)
(2.76405e-13 0 2.92007e-14)
(2.18459e-13 0 3.06553e-14)
(1.58075e-13 0 3.17789e-14)
(9.58437e-14 0 3.26076e-14)
(3.21677e-14 0 3.32909e-14)
(-3.00123e-05 0 -0.000425457)
(0.000354806 0 -0.000219044)
(0.000515658 0 -0.000183062)
(0.000708374 0 -4.1106e-06)
(0.000738492 0 -0.000388402)
(0.000951227 0 -8.05915e-05)
(0.00106187 0 -0.000186544)
(0.00121769 0 2.73417e-05)
(0.00122443 0 -0.000476557)
(0.00149974 0 -0.000141492)
(0.0016456 0 -9.2885e-05)
(0.00162365 0 -0.000141934)
(0.00166673 0 -0.00021475)
(0.00184808 0 -0.000130461)
(0.0020912 0 -0.000296292)
(0.00221462 0 -0.000284557)
(0.00223191 0 -0.000173783)
(0.00228628 0 -0.000175551)
(0.00241879 0 -0.000128083)
(0.0025375 0 -3.8974e-05)
(0.00255961 0 -8.73811e-05)
(0.00259343 0 -6.89003e-05)
(0.0026528 0 -3.85346e-05)
(0.00272869 0 -8.76744e-05)
(0.00284796 0 -0.000138939)
(0.00296254 0 -4.59307e-05)
(0.00297081 0 3.52657e-05)
(0.00298256 0 4.26049e-05)
(0.00298566 0 5.25896e-05)
(0.00296691 0 4.32974e-05)
(0.00294173 0 0.000111056)
(0.00292746 0 0.000144867)
(0.00290256 0 0.000162424)
(0.00286717 0 0.000213615)
(0.00282896 0 0.000237391)
(0.00275175 0 0.000274778)
(0.00260268 0 0.000317264)
(0.0024276 0 0.000282947)
(0.00228253 0 0.000172558)
(0.00215533 0 7.82524e-05)
(0.00202498 0 8.7388e-05)
(0.0019122 0 0.000136064)
(0.00184391 0 0.000170116)
(0.00180767 0 0.000150443)
(0.00177979 0 9.13083e-05)
(0.00175603 0 4.01915e-05)
(0.00173499 0 4.13873e-05)
(0.0017111 0 2.56699e-05)
(0.0016779 0 3.59008e-05)
(0.00165017 0 2.25845e-05)
(0.0016215 0 8.39486e-05)
(0.0015796 0 0.000141676)
(0.00154371 0 7.97401e-05)
(0.00147547 0 0.000212053)
(0.00139676 0 0.000220648)
(0.00132325 0 0.000164904)
(0.00106377 0 0.0003614)
(0.000956713 0 0.000217929)
(0.000688735 0 0.000364614)
(0.000530415 0 0.000261242)
(0.00047991 0 7.46776e-05)
(9.31351e-05 0 0.000236979)
(0.000101052 0 0.000132571)
(-2.05242e-05 0 0.000145919)
(-0.000224414 0 0.000122907)
(-0.000286518 0 4.92965e-05)
(-0.000345657 0 1.29343e-05)
(-0.000505342 0 1.46503e-05)
(-0.000529805 0 6.66079e-05)
(-0.000557853 0 0.000113808)
(-0.000600394 0 8.17869e-05)
(-0.000625746 0 2.75283e-05)
(-0.000632548 0 1.09275e-05)
(-0.000622948 0 -6.5795e-05)
(-0.000561881 0 -0.000148267)
(-0.000543175 0 -3.47909e-05)
(-0.000507886 0 -3.66265e-05)
(-0.00046845 0 -6.14117e-05)
(-0.00041864 0 -0.000108661)
(-0.00038546 0 -7.99153e-05)
(-0.000333263 0 -8.71506e-05)
(-0.000267655 0 -0.000116178)
(-0.000215588 0 -0.00011453)
(-0.000133616 0 -0.000163422)
(-6.01616e-08 0 -0.000186638)
(2.39299e-13 0 1.90385e-13)
(5.00577e-13 0 1.01782e-13)
(4.36754e-13 0 5.8597e-14)
(4.0784e-13 0 3.4967e-14)
(3.92089e-13 0 2.01276e-14)
(3.83946e-13 0 9.31954e-15)
(3.8177e-13 0 3.38626e-16)
(3.85005e-13 0 -7.75257e-15)
(3.93356e-13 0 -1.52193e-14)
(4.06477e-13 0 -2.19706e-14)
(4.23838e-13 0 -2.77463e-14)
(4.44681e-13 0 -3.22355e-14)
(4.68034e-13 0 -3.51551e-14)
(4.92756e-13 0 -3.62981e-14)
(5.17605e-13 0 -3.55578e-14)
(5.4131e-13 0 -3.29339e-14)
(5.62633e-13 0 -2.85233e-14)
(5.80428e-13 0 -2.25014e-14)
(5.93687e-13 0 -1.50996e-14)
(6.0157e-13 0 -6.58327e-15)
(6.03432e-13 0 2.7656e-15)
(5.98834e-13 0 1.26622e-14)
(5.87542e-13 0 2.28298e-14)
(5.69509e-13 0 3.3009e-14)
(5.44861e-13 0 4.29657e-14)
(5.13859e-13 0 5.24955e-14)
(4.76886e-13 0 6.14268e-14)
(4.34411e-13 0 6.96189e-14)
(3.86978e-13 0 7.6961e-14)
(3.3518e-13 0 8.33689e-14)
(2.79648e-13 0 8.87832e-14)
(2.21037e-13 0 9.31683e-14)
(1.60027e-13 0 9.65145e-14)
(9.73557e-14 0 9.88522e-14)
(3.2851e-14 0 1.00295e-13)
(0.000127245 0 -0.000539349)
(0.000127171 0 -0.000565488)
(0.000422292 0 -0.000414187)
(0.000532619 0 -0.00038921)
(0.000652616 0 -0.000399219)
(0.000776323 0 -0.000414714)
(0.000877054 0 -0.000448366)
(0.00115696 0 -9.65663e-05)
(0.000994374 0 -0.000950711)
(0.00145398 0 -0.000164115)
(0.00150779 0 -2.7074e-05)
(0.00149057 0 -0.000222896)
(0.00155244 0 -0.000338048)
(0.00176833 0 -0.000353329)
(0.00205104 0 -0.000252845)
(0.00210379 0 -0.000281243)
(0.00210607 0 -0.000250938)
(0.00216506 0 -0.000238774)
(0.0022933 0 -0.000155211)
(0.0023812 0 -0.00012523)
(0.00242097 0 -0.000172569)
(0.00249081 0 -0.000128352)
(0.00260045 0 -0.000131279)
(0.00269313 0 -0.000246781)
(0.00276047 0 -0.000137969)
(0.00278393 0 -0.000119115)
(0.00278664 0 -0.000208805)
(0.00281041 0 -9.50171e-05)
(0.0028381 0 1.84896e-06)
(0.00283372 0 8.41732e-06)
(0.00282941 0 4.41687e-05)
(0.00283565 0 0.000121807)
(0.00283014 0 0.000154081)
(0.00280694 0 0.000215473)
(0.00278576 0 0.000294204)
(0.0027573 0 0.000309369)
(0.00269798 0 0.000323763)
(0.00263212 0 0.000299951)
(0.00254791 0 0.000346417)
(0.00244323 0 0.000322072)
(0.00230998 0 0.000272715)
(0.00217673 0 0.000185207)
(0.00208039 0 0.000127419)
(0.00203172 0 0.00011587)
(0.00199709 0 0.000110907)
(0.00196555 0 7.33612e-05)
(0.0019458 0 3.33939e-05)
(0.00192777 0 1.06417e-05)
(0.00190233 0 5.36221e-06)
(0.00187077 0 2.99411e-05)
(0.00182753 0 7.7061e-05)
(0.00177221 0 0.00013483)
(0.00168347 0 0.000301745)
(0.00163709 0 0.000207814)
(0.00161207 0 0.000246554)
(0.00155878 0 0.00035385)
(0.00146367 0 0.000335118)
(0.00132565 0 0.000400026)
(0.00113067 0 0.00052102)
(0.00103945 0 0.000413263)
(0.000779726 0 0.000505661)
(0.000552552 0 0.00036461)
(0.000374024 0 0.000258329)
(0.00017957 0 0.00026792)
(7.29517e-05 0 0.000222973)
(2.33547e-05 0 0.000196155)
(-4.67614e-05 0 0.000198857)
(-0.000218758 0 0.000158211)
(-0.000395716 0 8.24011e-05)
(-0.000492142 0 6.25629e-05)
(-0.000509767 0 3.75899e-05)
(-0.000510742 0 4.57162e-06)
(-0.000505843 0 -3.30914e-05)
(-0.000508667 0 -5.68003e-05)
(-0.000493968 0 -7.43233e-05)
(-0.000451066 0 -0.000103798)
(-0.000412673 0 -9.35703e-05)
(-0.000383665 0 -0.00010143)
(-0.000337831 0 -0.000142886)
(-0.00030367 0 -0.00013773)
(-0.000258299 0 -0.000158242)
(-0.000211873 0 -0.000182069)
(-0.000152374 0 -0.000205173)
(-6.89177e-05 0 -0.000231733)
(-2.26379e-07 0 -0.000252157)
(2.33167e-13 0 2.37265e-13)
(3.69604e-13 0 1.29792e-13)
(3.86104e-13 0 7.8185e-14)
(3.82068e-13 0 4.89201e-14)
(3.755e-13 0 2.92135e-14)
(3.71094e-13 0 1.36193e-14)
(3.70539e-13 0 -3.12553e-16)
(3.7466e-13 0 -1.35134e-14)
(3.83836e-13 0 -2.60746e-14)
(3.98056e-13 0 -3.76333e-14)
(4.16922e-13 0 -4.76209e-14)
(4.39684e-13 0 -5.54333e-14)
(4.6529e-13 0 -6.05462e-14)
(4.92477e-13 0 -6.2587e-14)
(5.19861e-13 0 -6.13706e-14)
(5.46033e-13 0 -5.69016e-14)
(5.69638e-13 0 -4.93553e-14)
(5.89442e-13 0 -3.90427e-14)
(6.04376e-13 0 -2.63706e-14)
(6.13569e-13 0 -1.18032e-14)
(6.1636e-13 0 4.16859e-15)
(6.12313e-13 0 2.10516e-14)
(6.0121e-13 0 3.83697e-14)
(5.83035e-13 0 5.568e-14)
(5.57949e-13 0 7.25848e-14)
(5.26257e-13 0 8.87394e-14)
(4.88381e-13 0 1.03855e-13)
(4.44836e-13 0 1.17696e-13)
(3.962e-13 0 1.30078e-13)
(3.43102e-13 0 1.40864e-13)
(2.86204e-13 0 1.49957e-13)
(2.2619e-13 0 1.57292e-13)
(1.63759e-13 0 1.62836e-13)
(9.96238e-14 0 1.66565e-13)
(3.36101e-14 0 1.68423e-13)
(0.000115897 0 -0.000691874)
(0.000143809 0 -0.000648529)
(0.000319506 0 -0.000543437)
(0.000471023 0 -0.000454798)
(0.000565883 0 -0.000484359)
(0.000697988 0 -0.000502634)
(0.000816287 0 -0.000494449)
(0.00106183 0 -0.000285123)
(0.00100857 0 -0.000859831)
(0.00129714 0 -0.000421388)
(0.00139394 0 -0.000233248)
(0.00143211 0 -0.000319353)
(0.00156319 0 -0.00043996)
(0.00182268 0 -0.000554649)
(0.00202253 0 -0.000374695)
(0.00203857 0 -0.000350615)
(0.00207437 0 -0.000309936)
(0.00215935 0 -0.000380875)
(0.00229599 0 -0.000154492)
(0.00238623 0 -0.00017863)
(0.00246547 0 -0.000232948)
(0.00255413 0 -0.000232747)
(0.00263868 0 -0.00018127)
(0.0026853 0 -0.000269995)
(0.00272813 0 -0.00033863)
(0.00280137 0 -0.000143887)
(0.00280093 0 -6.84334e-05)
(0.00275595 0 -1.61667e-05)
(0.00273365 0 3.58729e-05)
(0.0027283 0 5.8067e-05)
(0.002708 0 6.01487e-05)
(0.00267285 0 0.000131106)
(0.00265543 0 0.000188943)
(0.00265752 0 0.00018844)
(0.00267258 0 0.000244066)
(0.00267246 0 0.000361624)
(0.00266507 0 0.0003925)
(0.00264777 0 0.000438233)
(0.00261743 0 0.000429861)
(0.00256399 0 0.000382308)
(0.00248786 0 0.000336487)
(0.00241226 0 0.000272313)
(0.00235561 0 0.000230825)
(0.00231594 0 0.000161153)
(0.00226074 0 0.000114949)
(0.00219061 0 6.59632e-05)
(0.00212845 0 5.70854e-05)
(0.00207282 0 0.000105797)
(0.00200998 0 8.16597e-05)
(0.00193346 0 0.000183741)
(0.0019074 0 0.000147801)
(0.00186922 0 0.000245734)
(0.00181067 0 0.000289973)
(0.00175346 0 0.000223689)
(0.00168104 0 0.000454304)
(0.00168586 0 0.000442977)
(0.00162114 0 0.000518007)
(0.00150048 0 0.000573306)
(0.00142887 0 0.000551671)
(0.00129921 0 0.000680218)
(0.00113777 0 0.000683215)
(0.00108099 0 0.000388905)
(0.00061514 0 0.000576361)
(0.000536085 0 0.000326851)
(0.000365338 0 0.000279319)
(0.000200382 0 0.000262134)
(0.000186322 0 0.000222743)
(8.39098e-05 0 0.00023547)
(-4.35182e-05 0 0.000244605)
(-0.000147343 0 0.000224395)
(-0.00018659 0 0.000157971)
(-0.000309693 0 6.20797e-05)
(-0.000344475 0 -9.71982e-06)
(-0.000353544 0 -4.80774e-05)
(-0.000342114 0 -0.000118778)
(-0.000361668 0 -7.89086e-05)
(-0.000354213 0 -9.92406e-05)
(-0.00033073 0 -0.000130512)
(-0.00028436 0 -0.000156967)
(-0.000248555 0 -0.000159061)
(-0.000212716 0 -0.000177531)
(-0.000192886 0 -0.000196374)
(-0.00015114 0 -0.000218822)
(-4.54376e-05 0 -0.00026454)
(-1.60201e-07 0 -0.000310367)
(2.05767e-13 0 1.17049e-13)
(3.42027e-13 0 1.01996e-13)
(3.56145e-13 0 7.57465e-14)
(3.58872e-13 0 5.33432e-14)
(3.56788e-13 0 3.4175e-14)
(3.5442e-13 0 1.62168e-14)
(3.54638e-13 0 -1.75014e-15)
(3.59243e-13 0 -1.99712e-14)
(3.69236e-13 0 -3.79809e-14)
(3.8493e-13 0 -5.49003e-14)
(4.06038e-13 0 -6.96905e-14)
(4.31756e-13 0 -8.13471e-14)
(4.60881e-13 0 -8.90383e-14)
(4.91931e-13 0 -9.2191e-14)
(5.2329e-13 0 -9.05286e-14)
(5.53325e-13 0 -8.40678e-14)
(5.80492e-13 0 -7.30849e-14)
(6.03413e-13 0 -5.8062e-14)
(6.20927e-13 0 -3.96238e-14)
(6.32109e-13 0 -1.84775e-14)
(6.36287e-13 0 4.63866e-15)
(6.33035e-13 0 2.89943e-14)
(6.2217e-13 0 5.38954e-14)
(6.03725e-13 0 7.87056e-14)
(5.7792e-13 0 1.02861e-13)
(5.45129e-13 0 1.25877e-13)
(5.05842e-13 0 1.47353e-13)
(4.60635e-13 0 1.6697e-13)
(4.10147e-13 0 1.84479e-13)
(3.55059e-13 0 1.997e-13)
(2.96076e-13 0 2.12504e-13)
(2.33916e-13 0 2.2281e-13)
(1.693e-13 0 2.30569e-13)
(1.02943e-13 0 2.35746e-13)
(3.47087e-14 0 2.38308e-13)
(-2.45556e-05 0 -0.000814297)
(0.000176872 0 -0.000737442)
(0.000311553 0 -0.000640008)
(0.000421968 0 -0.000585904)
(0.000502132 0 -0.000586769)
(0.000572542 0 -0.000663878)
(0.000721848 0 -0.000625633)
(0.00098964 0 -0.000382864)
(0.000948434 0 -0.000906199)
(0.00125252 0 -0.000355283)
(0.00142711 0 -0.000176939)
(0.00152405 0 -0.000459735)
(0.00174104 0 -0.000577153)
(0.0019414 0 -0.000765059)
(0.00203981 0 -0.000536764)
(0.00206281 0 -0.000522762)
(0.0021605 0 -0.000432947)
(0.00225315 0 -0.000577765)
(0.00240021 0 -0.000289697)
(0.00248985 0 -0.000461848)
(0.00265583 0 -0.000384267)
(0.00272866 0 -0.000338743)
(0.00273621 0 -0.000282063)
(0.00274826 0 -0.000341636)
(0.00275763 0 -0.00019193)
(0.00276453 0 -9.7237e-05)
(0.00277088 0 -9.19077e-05)
(0.00274324 0 -9.85559e-05)
(0.00270517 0 4.73827e-05)
(0.00267917 0 0.000106972)
(0.00263357 0 0.000127163)
(0.00256363 0 0.000199195)
(0.00254985 0 0.000169342)
(0.00254826 0 0.000218991)
(0.00253682 0 0.000292222)
(0.0025328 0 0.00034246)
(0.00254829 0 0.000386645)
(0.00256499 0 0.000423864)
(0.00256396 0 0.000424846)
(0.00255276 0 0.000413861)
(0.00252952 0 0.000405902)
(0.00249482 0 0.000372651)
(0.00244548 0 0.000300954)
(0.00236709 0 0.000331272)
(0.00229797 0 0.000220795)
(0.00222761 0 0.00016369)
(0.00216212 0 0.000154521)
(0.0021095 0 9.491e-05)
(0.00204235 0 0.00016936)
(0.00197458 0 5.01721e-05)
(0.00192425 0 0.000211057)
(0.00190998 0 0.000267414)
(0.00188381 0 0.000342053)
(0.00184868 0 0.00029547)
(0.00178473 0 0.000378287)
(0.00174695 0 0.000538476)
(0.00170744 0 0.000594203)
(0.00164112 0 0.000584161)
(0.00152814 0 0.000726813)
(0.00149372 0 0.000730917)
(0.00138868 0 0.000773719)
(0.00124777 0 0.000751937)
(0.000951194 0 0.000732502)
(0.000864323 0 0.000502373)
(0.000627918 0 0.000493541)
(0.000388208 0 0.00045686)
(0.000389355 0 0.000335756)
(0.000236133 0 0.000323874)
(9.881e-05 0 0.000301613)
(1.15593e-06 0 0.000283812)
(1.6613e-05 0 0.000221596)
(-4.91728e-05 0 0.000152046)
(-0.000130848 0 7.29676e-05)
(-0.000145202 0 1.03987e-05)
(-0.000231063 0 -6.68354e-05)
(-0.000264524 0 -9.32062e-05)
(-0.000281543 0 -0.000124881)
(-0.000291764 0 -0.00013126)
(-0.000232306 0 -0.000208144)
(-0.00020839 0 -0.000198096)
(-0.000150613 0 -0.000225253)
(-7.6016e-05 0 -0.000271327)
(-2.54803e-05 0 -0.000271749)
(-2.62497e-05 0 -0.000286489)
(-9.06869e-08 0 -0.000341023)
(1.84437e-13 0 1.04885e-13)
(3.2881e-13 0 8.54722e-14)
(3.37698e-13 0 6.96916e-14)
(3.40497e-13 0 5.44812e-14)
(3.38373e-13 0 3.78437e-14)
(3.35169e-13 0 1.87156e-14)
(3.34351e-13 0 -3.05148e-15)
(3.38429e-13 0 -2.67548e-14)
(3.48907e-13 0 -5.10767e-14)
(3.66346e-13 0 -7.43731e-14)
(3.90476e-13 0 -9.49444e-14)
(4.20336e-13 0 -1.11254e-13)
(4.54446e-13 0 -1.22084e-13)
(4.90987e-13 0 -1.26624e-13)
(5.27985e-13 0 -1.24508e-13)
(5.63477e-13 0 -1.15792e-13)
(5.95644e-13 0 -1.00898e-13)
(6.22903e-13 0 -8.05355e-14)
(6.43961e-13 0 -5.56058e-14)
(6.57831e-13 0 -2.71154e-14)
(6.63831e-13 0 3.90094e-15)
(6.6157e-13 0 3.64371e-14)
(6.50922e-13 0 6.95547e-14)
(6.32001e-13 0 1.02409e-13)
(6.0512e-13 0 1.34265e-13)
(5.70749e-13 0 1.64503e-13)
(5.29475e-13 0 1.9262e-13)
(4.81962e-13 0 2.18221e-13)
(4.28929e-13 0 2.41009e-13)
(3.71127e-13 0 2.60769e-13)
(3.09315e-13 0 2.77359e-13)
(2.44255e-13 0 2.90687e-13)
(1.76695e-13 0 3.007e-13)
(1.07363e-13 0 3.07366e-13)
(3.61725e-14 0 3.10667e-13)
(9.13289e-05 0 -0.000923117)
(0.000101463 0 -0.000828606)
(0.000159681 0 -0.000772457)
(0.000384237 0 -0.000665852)
(0.000441896 0 -0.000678583)
(0.000721498 0 -0.000556374)
(0.000554559 0 -0.000886291)
(0.000893727 0 -0.000750594)
(0.000868593 0 -0.00105418)
(0.00121227 0 -0.000983549)
(0.00151733 0 -0.000531406)
(0.00167945 0 -0.00053937)
(0.00185814 0 -0.000773473)
(0.00203912 0 -0.000737981)
(0.00205951 0 -0.000670522)
(0.00210877 0 -0.000590744)
(0.00221351 0 -0.000499897)
(0.00231325 0 -0.000496181)
(0.00240947 0 -0.00038639)
(0.0025026 0 -0.000602025)
(0.00273009 0 -0.000115114)
(0.00272983 0 -0.000416424)
(0.00276368 0 -0.000349293)
(0.00277724 0 -0.000270129)
(0.00274665 0 -0.000338693)
(0.00270959 0 -0.000339815)
(0.00271503 0 2.1626e-05)
(0.00270056 0 5.37491e-05)
(0.00266528 0 9.92971e-05)
(0.00263001 0 0.000159034)
(0.00259036 0 0.000161817)
(0.00253371 0 0.000217028)
(0.0024872 0 0.00024652)
(0.00243885 0 0.000244325)
(0.00239456 0 0.000292774)
(0.00239279 0 0.000305625)
(0.0023996 0 0.000319673)
(0.00242113 0 0.000352141)
(0.00244857 0 0.000418376)
(0.00245461 0 0.000436863)
(0.00244967 0 0.000427849)
(0.00243527 0 0.000390721)
(0.00240174 0 0.000332813)
(0.00234817 0 0.000289751)
(0.00229035 0 0.000254857)
(0.00221704 0 0.000232162)
(0.00212266 0 0.000195979)
(0.00205128 0 0.000223844)
(0.00202922 0 0.000213347)
(0.00201317 0 0.000196545)
(0.00198947 0 0.000191552)
(0.00196426 0 0.000275863)
(0.00194818 0 0.000341367)
(0.00193839 0 0.000316654)
(0.00187969 0 0.000427395)
(0.00183484 0 0.000577172)
(0.00181802 0 0.000605415)
(0.00177843 0 0.000598435)
(0.00171253 0 0.000626715)
(0.00160844 0 0.00079574)
(0.00154715 0 0.000824987)
(0.00132975 0 0.000975278)
(0.00122889 0 0.000837249)
(0.00118912 0 0.000643434)
(0.000966288 0 0.000600913)
(0.000707353 0 0.000544019)
(0.000581458 0 0.000481479)
(0.000426013 0 0.000451106)
(0.000274166 0 0.000412401)
(0.000127589 0 0.000367861)
(7.77783e-05 0 0.000286239)
(4.96192e-06 0 0.000185981)
(-0.000120848 0 9.68628e-05)
(-0.000145235 0 1.09067e-05)
(-0.000193379 0 -3.64175e-05)
(-0.000192538 0 -5.5372e-05)
(-0.000195634 0 -0.000118677)
(-0.000244438 0 -0.000147609)
(-0.000195093 0 -0.000242318)
(-0.000171449 0 -0.000272231)
(-0.0001056 0 -0.000297969)
(-0.000105015 0 -0.000278156)
(-0.000108125 0 -0.000287021)
(2.35955e-05 0 -0.000332927)
(-1.24718e-07 0 -0.000353218)
(1.77929e-13 0 7.22834e-14)
(3.07319e-13 0 6.53688e-14)
(3.25379e-13 0 6.31419e-14)
(3.27024e-13 0 5.68646e-14)
(3.21023e-13 0 4.37931e-14)
(3.13525e-13 0 2.36216e-14)
(3.09167e-13 0 -2.65814e-15)
(3.11218e-13 0 -3.3153e-14)
(3.21617e-13 0 -6.54052e-14)
(3.41063e-13 0 -9.67372e-14)
(3.69157e-13 0 -1.24573e-13)
(4.04617e-13 0 -1.46696e-13)
(4.45511e-13 0 -1.61418e-13)
(4.89507e-13 0 -1.67672e-13)
(5.34123e-13 0 -1.65027e-13)
(5.76935e-13 0 -1.53632e-13)
(6.15748e-13 0 -1.34132e-13)
(6.48705e-13 0 -1.07543e-13)
(6.74347e-13 0 -7.51237e-14)
(6.91616e-13 0 -3.82543e-14)
(6.99839e-13 0 1.67226e-15)
(6.98689e-13 0 4.33259e-14)
(6.88142e-13 0 8.5492e-14)
(6.68435e-13 0 1.27101e-13)
(6.40014e-13 0 1.67242e-13)
(6.03484e-13 0 2.05167e-13)
(5.5956e-13 0 2.4028e-13)
(5.09023e-13 0 2.7213e-13)
(4.52695e-13 0 3.00385e-13)
(3.91409e-13 0 3.24817e-13)
(3.25993e-13 0 3.45281e-13)
(2.57257e-13 0 3.61688e-13)
(1.85979e-13 0 3.73994e-13)
(1.1291e-13 0 3.82177e-13)
(3.80091e-14 0 3.86229e-13)
(-2.35091e-05 0 -0.00102877)
(0.000146993 0 -0.000917003)
(0.000213947 0 -0.000835435)
(0.000249592 0 -0.000803174)
(0.000332019 0 -0.000823153)
(0.000535224 0 -0.000855907)
(0.000791234 0 -0.000904489)
(0.00102264 0 -0.000944341)
(0.00130131 0 -0.00096532)
(0.0012967 0 -0.00124097)
(0.00161252 0 -0.000813702)
(0.00170876 0 -0.000802136)
(0.00181979 0 -0.00100428)
(0.00201117 0 -0.000814905)
(0.00202803 0 -0.00073513)
(0.00207752 0 -0.000641183)
(0.00213144 0 -0.000615377)
(0.00227124 0 -0.000414147)
(0.0022505 0 -0.000894552)
(0.00236541 0 -0.000522227)
(0.00240671 0 -0.000467187)
(0.00245683 0 -0.000523492)
(0.00257433 0 -0.000309648)
(0.00258974 0 -0.000233452)
(0.00258117 0 -0.000200507)
(0.00257403 0 -7.27206e-05)
(0.00256751 0 -7.72474e-05)
(0.00256795 0 3.04281e-05)
(0.00256917 0 8.70174e-05)
(0.00256142 0 0.000145309)
(0.0025342 0 0.000180989)
(0.0024872 0 0.000229846)
(0.00242762 0 0.000274668)
(0.00236514 0 0.000256762)
(0.00229623 0 0.000278337)
(0.00224015 0 0.000361791)
(0.00223486 0 0.000378821)
(0.00224468 0 0.00038708)
(0.00227094 0 0.000389463)
(0.0022834 0 0.000391086)
(0.00228168 0 0.000392235)
(0.00226991 0 0.000399226)
(0.00224814 0 0.000392928)
(0.00221873 0 0.000381978)
(0.0021816 0 0.000374097)
(0.00213476 0 0.000309308)
(0.0020808 0 0.000270685)
(0.00203266 0 0.000250145)
(0.00201366 0 0.000223254)
(0.00202218 0 0.000211934)
(0.00205122 0 0.000205391)
(0.00205317 0 0.000292791)
(0.00204345 0 0.000347725)
(0.00203465 0 0.000382584)
(0.00200139 0 0.000408321)
(0.0019294 0 0.000606902)
(0.00189642 0 0.000707192)
(0.00186303 0 0.00071267)
(0.00174207 0 0.000827778)
(0.00166513 0 0.000932433)
(0.00159935 0 0.000996874)
(0.00158349 0 0.000863884)
(0.00148113 0 0.000843585)
(0.00116904 0 0.00102568)
(0.000933426 0 0.00103917)
(0.000878147 0 0.000823436)
(0.000809382 0 0.000607497)
(0.00063947 0 0.000531995)
(0.000460846 0 0.000535195)
(0.000361701 0 0.00044688)
(0.000284977 0 0.000350388)
(0.000104823 0 0.000294949)
(-7.02213e-06 0 0.000192269)
(-3.79862e-05 0 7.48589e-05)
(-0.000139159 0 -1.84171e-05)
(-0.000157526 0 -3.74531e-05)
(-0.000123559 0 -8.14704e-05)
(-0.00020716 0 -0.000151649)
(-0.000166792 0 -0.000264886)
(-0.000155741 0 -0.000296473)
(-0.00014612 0 -0.000308089)
(-9.55699e-05 0 -0.00031061)
(-6.16679e-05 0 -0.000347556)
(1.93362e-05 0 -0.000375861)
(-7.45126e-08 0 -0.00035526)
(1.73192e-13 0 3.34563e-15)
(3.20122e-13 0 4.05783e-14)
(3.2939e-13 0 6.05782e-14)
(3.21148e-13 0 6.576e-14)
(3.0513e-13 0 5.65396e-14)
(2.88718e-13 0 3.43128e-14)
(2.77576e-13 0 1.61306e-15)
(2.75682e-13 0 -3.81274e-14)
(2.85323e-13 0 -8.09614e-14)
(3.07178e-13 0 -1.22858e-13)
(3.40517e-13 0 -1.6011e-13)
(3.83492e-13 0 -1.89649e-13)
(4.3347e-13 0 -2.09243e-13)
(4.87378e-13 0 -2.17568e-13)
(5.42025e-13 0 -2.14188e-13)
(5.94371e-13 0 -1.99449e-13)
(6.41733e-13 0 -1.74334e-13)
(6.81911e-13 0 -1.40286e-13)
(7.13249e-13 0 -9.90335e-14)
(7.34627e-13 0 -5.24214e-14)
(7.45412e-13 0 -2.27796e-15)
(7.4539e-13 0 4.96877e-14)
(7.34696e-13 0 1.01949e-13)
(7.13751e-13 0 1.53195e-13)
(6.83186e-13 0 2.02338e-13)
(6.43788e-13 0 2.4851e-13)
(5.96438e-13 0 2.91043e-13)
(5.42066e-13 0 3.29448e-13)
(4.81617e-13 0 3.63383e-13)
(4.16022e-13 0 3.92626e-13)
(3.46185e-13 0 4.17049e-13)
(2.72968e-13 0 4.36587e-13)
(1.97184e-13 0 4.51214e-13)
(1.19598e-13 0 4.60931e-13)
(4.0224e-14 0 4.65741e-13)
(1.08798e-05 0 -0.00109327)
(8.22628e-05 0 -0.000995997)
(0.0001183 0 -0.000923673)
(0.000359337 0 -0.000854641)
(0.000457994 0 -0.00087833)
(0.000640873 0 -0.000990531)
(0.000822553 0 -0.00117479)
(0.00110531 0 -0.00119825)
(0.00118109 0 -0.00130801)
(0.00133474 0 -0.0012891)
(0.00156516 0 -0.000977303)
(0.00165751 0 -0.000907498)
(0.00182367 0 -0.000815723)
(0.00179568 0 -0.000920424)
(0.00179918 0 -0.000848155)
(0.0018501 0 -0.000726612)
(0.00186921 0 -0.000715757)
(0.00191107 0 -0.000775537)
(0.00204003 0 -0.000586826)
(0.00203675 0 -0.000627376)
(0.00205634 0 -0.000596001)
(0.0021289 0 -0.00053694)
(0.00220339 0 -0.000383847)
(0.00220613 0 -0.000346619)
(0.00220956 0 -0.000305999)
(0.00222694 0 -0.000230204)
(0.00225842 0 -5.14408e-05)
(0.0022909 0 -5.07745e-06)
(0.00234757 0 8.1305e-05)
(0.00236473 0 0.000237421)
(0.00235654 0 0.000252277)
(0.00234428 0 0.000326757)
(0.0023265 0 0.000355123)
(0.00227593 0 0.000395103)
(0.00219378 0 0.000442496)
(0.00212778 0 0.000375695)
(0.00208697 0 0.000350173)
(0.00206217 0 0.000348956)
(0.00203481 0 0.000435599)
(0.00203779 0 0.000446701)
(0.00203912 0 0.000435396)
(0.00203099 0 0.000399895)
(0.00200298 0 0.000384869)
(0.00196994 0 0.000369634)
(0.00195535 0 0.000339806)
(0.00195743 0 0.000328262)
(0.00198713 0 0.000299142)
(0.00203268 0 0.000301586)
(0.00206349 0 0.000132439)
(0.00206972 0 0.000136132)
(0.00207707 0 0.000174501)
(0.00206996 0 0.000265138)
(0.00205396 0 0.0003356)
(0.00203399 0 0.000349232)
(0.00195999 0 0.000522249)
(0.00192058 0 0.000656725)
(0.00188676 0 0.000747641)
(0.00188795 0 0.000677771)
(0.00176108 0 0.00090707)
(0.00171357 0 0.00100197)
(0.0016803 0 0.00102827)
(0.00160235 0 0.00104648)
(0.00153892 0 0.0010048)
(0.00130033 0 0.00113206)
(0.00136851 0 0.00086777)
(0.00118005 0 0.000889551)
(0.00104479 0 0.000735507)
(0.000688022 0 0.00078864)
(0.00071423 0 0.000564134)
(0.000497994 0 0.000586897)
(0.00036237 0 0.000519498)
(0.000254969 0 0.000425115)
(0.000126994 0 0.000299032)
(3.93674e-05 0 0.000155706)
(-0.000102726 0 3.52032e-05)
(-0.000118232 0 -1.85698e-05)
(-0.000161952 0 -4.79992e-05)
(-0.000153869 0 -0.000165408)
(-0.000116669 0 -0.000273078)
(-0.000130533 0 -0.000310489)
(-0.000105693 0 -0.00033812)
(-4.9543e-05 0 -0.000343326)
(-4.65991e-05 0 -0.000389276)
(5.52732e-05 0 -0.000403927)
(-7.17634e-08 0 -0.000323538)
(1.92014e-13 0 -3.04912e-14)
(3.64962e-13 0 3.29748e-14)
(3.50721e-13 0 7.27365e-14)
(3.22985e-13 0 8.87981e-14)
(2.89576e-13 0 8.2025e-14)
(2.58599e-13 0 5.51915e-14)
(2.36727e-13 0 1.26107e-14)
(2.28643e-13 0 -4.03408e-14)
(2.36887e-13 0 -9.77842e-14)
(2.61914e-13 0 -1.53929e-13)
(3.02366e-13 0 -2.03617e-13)
(3.55484e-13 0 -2.42734e-13)
(4.17592e-13 0 -2.68432e-13)
(4.84562e-13 0 -2.79171e-13)
(5.52242e-13 0 -2.74629e-13)
(6.16789e-13 0 -2.55515e-13)
(6.74911e-13 0 -2.23331e-13)
(7.24006e-13 0 -1.80122e-13)
(7.62212e-13 0 -1.28234e-13)
(7.88371e-13 0 -7.01012e-14)
(8.01949e-13 0 -8.07645e-15)
(8.02916e-13 0 5.56912e-14)
(7.91649e-13 0 1.19329e-13)
(7.68824e-13 0 1.81271e-13)
(7.35329e-13 0 2.40259e-13)
(6.9219e-13 0 2.95322e-13)
(6.40497e-13 0 3.45745e-13)
(5.81362e-13 0 3.91031e-13)
(5.15874e-13 0 4.30858e-13)
(4.45076e-13 0 4.6504e-13)
(3.69954e-13 0 4.9349e-13)
(2.91422e-13 0 5.16187e-13)
(2.10324e-13 0 5.33144e-13)
(1.27436e-13 0 5.44393e-13)
(4.28192e-14 0 5.49961e-13)
(-4.53067e-05 0 -0.00113307)
(8.14844e-05 0 -0.00104591)
(0.000123685 0 -0.000970306)
(0.000147978 0 -0.00103382)
(0.000401019 0 -0.00115025)
(0.000659257 0 -0.00133372)
(0.000847717 0 -0.0014711)
(0.00109226 0 -0.00139698)
(0.00111049 0 -0.00142204)
(0.00134813 0 -0.00122377)
(0.00133161 0 -0.00121551)
(0.00139147 0 -0.00105084)
(0.00144514 0 -0.000988242)
(0.00151336 0 -0.000913492)
(0.00149643 0 -0.000894187)
(0.00157001 0 -0.000707168)
(0.0015989 0 -0.000672891)
(0.00164678 0 -0.000662027)
(0.00171063 0 -0.000658639)
(0.00173301 0 -0.000737804)
(0.00183244 0 -0.000514727)
(0.00184951 0 -0.000491279)
(0.00187724 0 -0.000419761)
(0.00191631 0 -0.000276316)
(0.0019185 0 -0.000227711)
(0.00189912 0 -0.000144825)
(0.00189639 0 -9.07718e-05)
(0.0019441 0 -8.77484e-05)
(0.00203248 0 9.87323e-07)
(0.00206639 0 0.000129861)
(0.00209254 0 0.000175099)
(0.00213184 0 0.000284176)
(0.00214243 0 0.000387033)
(0.00212169 0 0.000399791)
(0.00206355 0 0.000432651)
(0.00201442 0 0.00042166)
(0.00197025 0 0.000416823)
(0.00190958 0 0.000417643)
(0.0018662 0 0.000345475)
(0.00181989 0 0.000376022)
(0.00178802 0 0.000440876)
(0.0017852 0 0.000465433)
(0.00179291 0 0.0004618)
(0.00181525 0 0.000435033)
(0.00185888 0 0.000390077)
(0.00192253 0 0.000267508)
(0.00197666 0 0.000183714)
(0.00202328 0 0.00016141)
(0.00202752 0 0.000165912)
(0.00199846 0 0.000240993)
(0.00196423 0 0.000232086)
(0.00192451 0 0.00035723)
(0.00190167 0 0.000384702)
(0.00185595 0 0.000513667)
(0.0018665 0 0.000507013)
(0.00188383 0 0.00056937)
(0.0017811 0 0.000837972)
(0.00178344 0 0.000832259)
(0.0017495 0 0.000928426)
(0.00167942 0 0.00107564)
(0.00165115 0 0.00110165)
(0.00157446 0 0.00116222)
(0.00146295 0 0.00122709)
(0.00142982 0 0.00118797)
(0.00128529 0 0.00124768)
(0.00120554 0 0.00113768)
(0.000948879 0 0.00110827)
(0.00084126 0 0.000907312)
(0.000672125 0 0.000839375)
(0.000684393 0 0.000634455)
(0.000452429 0 0.000666115)
(0.000355289 0 0.000586)
(0.000236025 0 0.000446533)
(0.000176129 0 0.000261077)
(-5.29727e-05 0 0.000118389)
(-8.48004e-05 0 -5.31363e-06)
(-0.000160644 0 -4.79576e-05)
(-9.91154e-05 0 -0.000171661)
(-0.000133636 0 -0.000256096)
(-0.000106595 0 -0.000318542)
(-9.23563e-05 0 -0.000363363)
(-3.71262e-05 0 -0.000384513)
(-2.82545e-05 0 -0.000430767)
(7.45585e-05 0 -0.0004263)
(-5.47737e-08 0 -0.000280803)
(2.19661e-13 0 -3.45608e-14)
(4.23709e-13 0 4.90519e-14)
(3.85331e-13 0 1.08636e-13)
(3.30437e-13 0 1.34615e-13)
(2.71524e-13 0 1.27523e-13)
(2.19304e-13 0 9.17562e-14)