/*--------------------------------*- C++ -*----------------------------------*\
  =========                 |
  \\      /  F ield         | OpenFOAM: The Open Source CFD Toolbox
   \\    /   O peration     | Website:  https://openfoam.org
    \\  /    A nd           | Version:  6
     \\/     M anipulation  |
\*---------------------------------------------------------------------------*/
FoamFile
{
    version     2.0;
    format      ascii;
    class       surfaceScalarField;
    location    "850";
    object      phi;
}
// * * * * * * * * * * * * * * * * * * * * * * * * * * * * * * * * * * * * * //

dimensions      [0 3 -1 0 0 0 0];

internalField   nonuniform List<scalar> 
9440
(
-1.24378e-10
1.24378e-10
-4.55831e-10
3.31453e-10
-5.75358e-10
1.19527e-10
-1.00612e-09
4.30758e-10
-1.11883e-09
1.12709e-10
-1.48398e-09
3.65152e-10
-1.60711e-09
1.23132e-10
-1.80363e-09
1.96519e-10
-1.88698e-09
8.33512e-11
-1.97756e-09
9.05785e-11
-2.02851e-09
5.09521e-11
-2.07088e-09
4.2362e-11
-2.09905e-09
2.81706e-11
-2.12127e-09
2.2227e-11
-2.14578e-09
2.45051e-11
-2.16894e-09
2.31554e-11
-2.17233e-09
3.38855e-12
-2.18912e-09
1.67932e-11
-2.24885e-09
5.97309e-11
-2.32308e-09
7.42298e-11
-2.35668e-09
3.35984e-11
-2.433e-09
7.63176e-11
-2.52017e-09
8.7171e-11
-2.56806e-09
4.78924e-11
-2.62461e-09
5.65492e-11
-2.66838e-09
4.3761e-11
-2.69455e-09
2.61757e-11
-2.69439e-09
-1.59754e-13
-2.6761e-09
-1.82909e-11
-2.65464e-09
-2.14609e-11
-2.63137e-09
-2.32755e-11
-2.6088e-09
-2.25674e-11
-2.56059e-09
-4.82133e-11
-2.5266e-09
-3.39924e-11
-2.5113e-09
-1.52992e-11
-2.49382e-09
-1.74831e-11
-2.46625e-09
-2.75628e-11
-2.44359e-09
-2.26681e-11
-2.39062e-09
-5.29666e-11
-2.33144e-09
-5.918e-11
-2.28669e-09
-4.47517e-11
-2.16874e-09
-1.17945e-10
-2.03386e-09
-1.3488e-10
-1.94088e-09
-9.29806e-11
-1.84134e-09
-9.95471e-11
-1.76006e-09
-8.12702e-11
-1.69773e-09
-6.23295e-11
-1.65254e-09
-4.51933e-11
-1.62332e-09
-2.92237e-11
-1.59252e-09
-3.07951e-11
-1.54999e-09
-4.2528e-11
-1.49818e-09
-5.18156e-11
-1.42631e-09
-7.18678e-11
-1.33876e-09
-8.75531e-11
-1.26438e-09
-7.4379e-11
-1.1895e-09
-7.48768e-11
-1.08847e-09
-1.01028e-10
-9.91719e-10
-9.67539e-11
-1.01684e-09
2.512e-11
-9.01841e-10
-1.14997e-10
-7.25954e-10
-1.75886e-10
-6.50332e-10
-7.56217e-11
-5.03041e-10
-1.47291e-10
-3.35486e-10
-1.67555e-10
-1.77176e-10
-1.5831e-10
-5.42688e-11
-1.22907e-10
-5.10266e-12
-4.91662e-11
1.55436e-10
-1.60539e-10
1.62193e-10
-6.75636e-12
1.94554e-11
1.42737e-10
-1.27539e-10
1.46994e-10
-3.24195e-10
1.96656e-10
-4.65749e-10
1.41554e-10
-5.97351e-10
1.31602e-10
-7.8086e-10
1.83509e-10
-9.29718e-10
1.48858e-10
-1.20758e-09
2.7786e-10
-8.88441e-10
-3.19137e-10
-4.51456e-10
-4.36986e-10
1.66839e-16
-4.51456e-10
-4.8123e-18
1.54875e-19
-4.68514e-18
-1.27159e-19
-4.46357e-18
-2.21845e-19
-4.20148e-18
-2.62322e-19
-3.90786e-18
-2.93763e-19
-3.58341e-18
-3.24492e-19
-3.22976e-18
-3.53599e-19
-2.85097e-18
-3.78663e-19
-2.45312e-18
-3.97674e-19
-2.0435e-18
-4.09394e-19
-1.62992e-18
-4.13296e-19
-1.22016e-18
-4.09416e-19
-8.21529e-19
-3.98216e-19
-4.40582e-19
-3.80451e-19
-8.29319e-20
-3.57065e-19
2.46856e-19
-3.29106e-19
5.45287e-19
-2.9765e-19
8.09916e-19
-2.63746e-19
1.03927e-18
-2.28376e-19
1.23277e-18
-1.92423e-19
1.39059e-18
-1.56651e-19
1.51352e-18
-1.21699e-19
1.60292e-18
-8.80786e-20
1.66049e-18
-5.61843e-20
1.68826e-18
-2.63014e-20
1.68843e-18
1.37995e-21
1.6633e-18
2.67518e-20
1.61521e-18
4.97737e-20
1.54647e-18
7.04611e-20
1.45935e-18
8.88716e-20
1.35601e-18
1.05094e-19
1.23853e-18
1.19238e-19
1.10885e-18
1.31421e-19
9.68817e-19
1.41768e-19
8.20151e-19
1.50396e-19
6.64467e-19
1.57416e-19
5.03279e-19
1.62931e-19
3.37999e-19
1.67039e-19
1.69908e-19
1.69866e-19
1.71692e-19
-3.27138e-10
4.51515e-10
-4.46172e-10
4.50485e-10
-7.19678e-10
3.93032e-10
-8.48868e-10
5.59948e-10
-1.12501e-09
3.88851e-10
-1.31529e-09
5.55434e-10
-1.47331e-09
2.8115e-10
-1.58413e-09
3.07336e-10
-1.66159e-09
1.60808e-10
-1.70487e-09
1.33863e-10
-1.74027e-09
8.6343e-11
-1.76822e-09
7.03158e-11
-1.82804e-09
8.79922e-11
-1.87949e-09
7.36746e-11
-1.93941e-09
8.44163e-11
-1.9839e-09
6.76493e-11
-2.04114e-09
6.0625e-11
-2.0963e-09
7.19527e-11
-2.16048e-09
1.23915e-10
-2.21602e-09
1.29763e-10
-2.28571e-09
1.0329e-10
-2.39317e-09
1.8377e-10
-2.4617e-09
1.55707e-10
-2.54555e-09
1.31742e-10
-2.63297e-09
1.43964e-10
-2.67759e-09
8.83772e-11
-2.70535e-09
5.3933e-11
-2.67905e-09
-2.64576e-11
-2.64133e-09
-5.60093e-11
-2.61852e-09
-4.42727e-11
-2.59877e-09
-4.3025e-11
-2.57859e-09
-4.27499e-11
-2.54991e-09
-7.6902e-11
-2.50938e-09
-7.45137e-11
-2.46479e-09
-5.98981e-11
-2.45042e-09
-3.18474e-11
-2.41719e-09
-6.07936e-11
-2.40124e-09
-3.86209e-11
-2.34781e-09
-1.06397e-10
-2.2437e-09
-1.63289e-10
-2.1716e-09
-1.16853e-10
-2.05475e-09
-2.34794e-10
-1.86462e-09
-3.25013e-10
-1.79599e-09
-1.61607e-10
-1.69315e-09
-2.02388e-10
-1.60425e-09
-1.70174e-10
-1.56155e-09
-1.05027e-10
-1.51037e-09
-9.63702e-11
-1.47395e-09
-6.56471e-11
-1.42998e-09
-7.4759e-11
-1.35859e-09
-1.13921e-10
-1.31003e-09
-1.00379e-10
-1.26986e-09
-1.12031e-10
-1.22351e-09
-1.33906e-10
-1.22458e-09
-7.33103e-11
-1.20842e-09
-9.10326e-11
-1.16427e-09
-1.45182e-10
-1.11745e-09
-1.43567e-10
-1.09194e-09
-3.94057e-13
-1.02826e-09
-1.78673e-10
-8.44249e-10
-3.599e-10
-6.93865e-10
-2.26005e-10
-4.74879e-10
-3.66276e-10
-2.62934e-10
-3.79501e-10
-5.96901e-11
-3.61553e-10
1.35457e-10
-3.18054e-10
2.09772e-10
-1.23482e-10
3.95044e-10
-3.4581e-10
4.53545e-10
-6.52576e-11
4.38049e-10
1.58233e-10
5.09598e-10
7.54445e-11
4.10311e-10
2.95944e-10
2.54076e-10
2.97789e-10
3.57185e-11
3.49959e-10
-1.90207e-10
4.09435e-10
-5.02546e-10
4.61196e-10
-6.22872e-10
3.98186e-10
-6.88693e-10
-2.53317e-10
-3.72428e-10
-7.53252e-10
1.68892e-16
-8.23885e-10
-5.15128e-18
-6.62003e-19
-4.7801e-18
-4.98606e-19
-4.50394e-18
-4.98364e-19
-4.23292e-18
-5.33559e-19
-3.93859e-18
-5.88165e-19
-3.61252e-18
-6.50495e-19
-3.25482e-18
-7.11098e-19
-2.86998e-18
-7.63192e-19
-2.46484e-18
-8.02406e-19
-2.0474e-18
-8.26319e-19
-1.62604e-18
-8.3402e-19
-1.20896e-18
-8.2573e-19
-8.03763e-19
-8.02496e-19
-4.17197e-19
-7.65939e-19
-5.49726e-20
-7.18038e-19
2.78312e-19
-6.60961e-19
5.7919e-19
-5.96921e-19
8.45285e-19
-5.28061e-19
1.07523e-18
-4.56375e-19
1.26855e-18
-3.83641e-19
1.42554e-18
-3.11397e-19
1.54714e-18
-2.40918e-19
1.63481e-18
-1.73225e-19
1.69038e-18
-1.09098e-19
1.71594e-18
-4.90996e-20
1.7138e-18
6.40063e-21
1.68632e-18
5.71997e-20
1.6359e-18
1.03234e-19
1.56488e-18
1.44549e-19
1.47557e-18
1.81278e-19
1.37016e-18
2.13611e-19
1.25071e-18
2.4178e-19
1.1192e-18
2.66031e-19
9.77445e-19
2.86617e-19
8.27171e-19
3.03778e-19
6.69982e-19
3.17732e-19
5.07387e-19
3.28675e-19
3.40825e-19
3.3677e-19
1.71734e-19
3.42139e-19
3.44815e-19
-2.60521e-10
7.12035e-10
-4.85438e-10
6.75402e-10
-6.94722e-10
6.02315e-10
-8.09495e-10
6.74721e-10
-1.04655e-09
6.25901e-10
-1.18511e-09
6.93998e-10
-1.32962e-09
4.25662e-10
-1.40808e-09
3.85797e-10
-1.49509e-09
2.47818e-10
-1.52542e-09
1.64189e-10
-1.58067e-09
1.41587e-10
-1.63947e-09
1.29121e-10
-1.67324e-09
1.21757e-10
-1.72e-09
1.20435e-10
-1.75056e-09
1.14973e-10
-1.8238e-09
1.40894e-10
-1.9084e-09
1.45217e-10
-2.00621e-09
1.69768e-10
-2.07319e-09
1.90888e-10
-2.15587e-09
2.12445e-10
-2.25878e-09
2.06196e-10
-2.32863e-09
2.53626e-10
-2.42762e-09
2.54688e-10
-2.52133e-09
2.25452e-10
-2.56285e-09
1.85482e-10
-2.60208e-09
1.27608e-10
-2.61895e-09
7.0799e-11
-2.57517e-09
-7.02371e-11
-2.55142e-09
-7.97609e-11
-2.5134e-09
-8.22876e-11
-2.47713e-09
-7.92981e-11
-2.43563e-09
-8.42511e-11
-2.4242e-09
-8.83318e-11
-2.40881e-09
-8.99057e-11
-2.39365e-09
-7.50613e-11
-2.37982e-09
-4.56811e-11
-2.35111e-09
-8.95018e-11
-2.30164e-09
-8.80911e-11
-2.21475e-09
-1.93289e-10
-2.07955e-09
-2.98487e-10
-1.96674e-09
-2.29666e-10
-1.81806e-09
-3.83469e-10
-1.63716e-09
-5.05917e-10
-1.53675e-09
-2.62015e-10
-1.43661e-09
-3.02522e-10
-1.31047e-09
-2.96312e-10
-1.25887e-09
-1.56631e-10
-1.19272e-09
-1.62524e-10
-1.14584e-09
-1.12521e-10
-1.12816e-09
-9.24389e-11
-1.13181e-09
-1.10267e-10
-1.10952e-09
-1.22678e-10
-1.08791e-09
-1.33631e-10
-1.10269e-09
-1.1913e-10
-1.12265e-09
-5.33476e-11
-1.14479e-09
-6.88917e-11
-1.17834e-09
-1.11632e-10
-1.19363e-09
-1.28283e-10
-1.0833e-09
-1.10719e-10
-1.01374e-09
-2.48238e-10
-8.5103e-10
-5.22606e-10
-6.49509e-10
-4.27526e-10
-4.09927e-10
-6.05858e-10
-1.60589e-10
-6.28838e-10
5.22965e-11
-5.74439e-10
2.17207e-10
-4.82965e-10
3.7678e-10
-2.83055e-10
4.10216e-10
-3.79247e-10
5.88016e-10
-2.43058e-10
7.85162e-10
-3.89128e-11
7.809e-10
7.97057e-11
6.93812e-10
3.83032e-10
6.51401e-10
3.40199e-10
5.10348e-10
4.91012e-10
3.92163e-10
5.2762e-10
4.57463e-10
3.95895e-10
6.20291e-10
2.35358e-10
3.88948e-10
-2.19744e-11
1.17554e-11
-3.76059e-10
1.45686e-16
-8.1213e-10
-5.07154e-18
-1.11307e-18
-4.77936e-18
-7.90966e-19
-4.53883e-18
-7.39224e-19
-4.28753e-18
-7.85103e-19
-4.00092e-18
-8.74911e-19
-3.67312e-18
-9.78318e-19
-3.30692e-18
-1.0772e-18
-2.9092e-18
-1.1607e-18
-2.48875e-18
-1.22254e-18
-2.0551e-18
-1.25955e-18
-1.61775e-18
-1.27083e-18
-1.18573e-18
-1.25709e-18
-7.67206e-19
-1.22022e-18
-3.69296e-19
-1.1629e-18
2.10422e-21
-1.08834e-18
3.42352e-19
-9.99956e-19
6.4805e-19
-9.0121e-19
9.16972e-19
-7.95423e-19
1.14796e-18
-6.85656e-19
1.34079e-18
-5.74623e-19
1.49602e-18
-4.64651e-19
1.61484e-18
-3.57653e-19
1.69894e-18
-2.55148e-19
1.75037e-18
-1.58276e-19
1.77144e-18
-6.78431e-20
1.7646e-18
1.56371e-20
1.73236e-18
9.19018e-20
1.67721e-18
1.60892e-19
1.60161e-18
2.22712e-19
1.50791e-18
2.77587e-19
1.39833e-18
3.25828e-19
1.27496e-18
3.67799e-19
1.13978e-18
4.0389e-19
9.94605e-19
4.34487e-19
8.41126e-19
4.59962e-19
6.80925e-19
4.80652e-19
5.15481e-19
4.96849e-19
3.46195e-19
5.08794e-19
1.7441e-19
5.16662e-19
5.20554e-19
-2.23141e-10
9.35176e-10
-4.13274e-10
8.65535e-10
-5.93777e-10
7.82818e-10
-7.22391e-10
8.03334e-10
-8.69309e-10
7.72818e-10
-9.04422e-10
7.29111e-10
-1.1223e-09
6.43537e-10
-1.19021e-09
4.53712e-10
-1.30466e-09
3.62267e-10
-1.42621e-09
2.85739e-10
-1.48721e-09
2.02579e-10
-1.55696e-09
1.98876e-10
-1.55405e-09
1.1884e-10
-1.60886e-09
1.75248e-10
-1.63043e-09
1.3654e-10
-1.68861e-09
1.99073e-10
-1.72124e-09
1.77846e-10
-1.77314e-09
2.21668e-10
-1.82685e-09
2.44598e-10
-1.92822e-09
3.13814e-10
-2.04738e-09
3.25357e-10
-2.13219e-09
3.38428e-10
-2.20565e-09
3.28148e-10
-2.24532e-09
2.65125e-10
-2.25719e-09
1.97353e-10
-2.2883e-09
1.58715e-10
-2.25419e-09
3.66877e-11
-2.17872e-09
-1.45715e-10
-2.16445e-09
-9.40317e-11
-2.13173e-09
-1.15004e-10
-2.09686e-09
-1.14174e-10
-2.06662e-09
-1.14485e-10
-2.04115e-09
-1.13807e-10
-2.03586e-09
-9.51933e-11
-2.04019e-09
-7.07314e-11
-1.99567e-09
-9.02077e-11
-1.95094e-09
-1.34233e-10
-1.91726e-09
-1.21763e-10
-1.84567e-09
-2.64886e-10
-1.72666e-09
-4.17498e-10
-1.63512e-09
-3.21199e-10
-1.41617e-09
-6.02418e-10
-1.21823e-09
-7.03864e-10
-1.06275e-09
-4.17492e-10
-9.66325e-10
-3.98947e-10
-8.422e-10
-4.20437e-10
-7.84177e-10
-2.14653e-10
-7.34408e-10
-2.12292e-10
-7.00436e-10
-1.46493e-10
-6.96389e-10
-9.6485e-11
-7.35917e-10
-7.07387e-11
-8.08713e-10
-4.9882e-11
-9.02726e-10
-3.96172e-11
-9.63639e-10
-5.82164e-11
-9.65565e-10
-5.1421e-11
-9.86405e-10
-4.80513e-11
-1.02871e-09
-6.93284e-11
-1.02905e-09
-1.27941e-10
-9.40911e-10
-1.98857e-10
-8.84938e-10
-3.0421e-10
-7.86042e-10
-6.21502e-10
-5.93805e-10
-6.19762e-10
-4.11816e-10
-7.87846e-10
-2.35618e-10
-8.05035e-10
2.9192e-11
-8.39249e-10
1.69369e-10
-6.23142e-10
4.31956e-10
-5.45641e-10
5.19714e-10
-4.67005e-10
6.72942e-10
-3.96286e-10
8.14165e-10
-1.80136e-10
8.82333e-10
1.15377e-11
1.04196e-09
2.23409e-10
1.0373e-09
3.44859e-10
9.59649e-10
5.68657e-10
9.03945e-10
5.83324e-10
8.3411e-10
4.65729e-10
5.18228e-10
5.5124e-10
5.08679e-10
-1.24255e-11
3.21112e-10
-1.88493e-10
1.21025e-16
-4.91019e-10
-4.82833e-18
-1.20741e-18
-4.72714e-18
-8.92342e-19
-4.58441e-18
-8.82299e-19
-4.37734e-18
-9.92479e-19
-4.10433e-18
-1.14814e-18
-3.772e-18
-1.31075e-18
-3.39041e-18
-1.45878e-18
-2.97103e-18
-1.57995e-18
-2.52577e-18
-1.66755e-18
-2.06638e-18
-1.71857e-18
-1.60401e-18
-1.73271e-18
-1.14885e-18
-1.71162e-18
-7.09891e-19
-1.65841e-18
-2.94732e-19
-1.57715e-18
9.04879e-20
-1.47249e-18
4.41098e-19
-1.34934e-18
7.53837e-19
-1.21257e-18
1.02674e-18
-1.0668e-18
1.25899e-18
-9.16238e-19
1.45076e-18
-7.64587e-19
1.60301e-18
-6.14979e-19
1.71734e-18
-4.69962e-19
1.79581e-18
-3.31521e-19
1.84081e-18
-2.01122e-19
1.85493e-18
-7.97679e-20
1.84087e-18
3.19354e-20
1.80135e-18
1.33713e-19
1.73903e-18
2.25556e-19
1.65649e-18
3.07665e-19
1.55615e-18
3.80394e-19
1.4403e-18
4.44202e-19
1.31105e-18
4.99611e-19
1.17038e-18
5.47168e-19
1.02008e-18
5.87417e-19
8.61816e-19
6.20873e-19
6.97122e-19
6.48001e-19
5.27426e-19
6.69205e-19
3.54064e-19
6.84814e-19
1.78301e-19
6.95076e-19
7.0015e-19
-1.88498e-10
1.12367e-09
-3.57562e-10
1.0346e-09
-5.10676e-10
9.35931e-10
-5.83536e-10
8.76194e-10
-6.49304e-10
8.38585e-10
-7.01016e-10
7.80822e-10
-8.93917e-10
8.36439e-10
-1.05283e-09
6.12624e-10
-1.11994e-09
4.29376e-10
-1.22389e-09
3.89687e-10
-1.29853e-09
2.77222e-10
-1.38234e-09
2.82679e-10
-1.43823e-09
1.74737e-10
-1.47691e-09
2.1392e-10
-1.4987e-09
1.58332e-10
-1.51652e-09
2.16889e-10
-1.53847e-09
1.99796e-10
-1.55737e-09
2.40574e-10
-1.62985e-09
3.17071e-10
-1.69809e-09
3.82058e-10
-1.74758e-09
3.74839e-10
-1.79946e-09
3.9031e-10
-1.83036e-09
3.59053e-10
-1.85256e-09
2.87315e-10
-1.89775e-09
2.42545e-10
-1.89017e-09
1.51137e-10
-1.86453e-09
1.10389e-11
-1.81326e-09
-1.96984e-10
-1.8017e-09
-1.05587e-10
-1.78913e-09
-1.27573e-10
-1.78716e-09
-1.16151e-10
-1.80257e-09
-9.90779e-11
-1.77194e-09
-1.4443e-10
-1.76852e-09
-9.862e-11
-1.83077e-09
-8.48304e-12
-1.81149e-09
-1.09487e-10
-1.83812e-09
-1.07605e-10
-1.81266e-09
-1.47223e-10
-1.74392e-09
-3.33626e-10
-1.60443e-09
-5.56985e-10
-1.43441e-09
-4.91219e-10
-1.26797e-09
-7.68857e-10
-9.52189e-10
-1.01965e-09
-7.85396e-10
-5.84286e-10
-5.75963e-10
-6.08379e-10
-4.0259e-10
-5.9381e-10
-3.13765e-10
-3.03478e-10
-2.73033e-10
-2.53024e-10
-2.58679e-10
-1.60846e-10
-2.83209e-10
-7.19546e-11
-3.55755e-10
1.80799e-12
-4.33202e-10
2.75653e-11
-4.96255e-10
2.34366e-11
-5.7335e-10
1.88796e-11
-6.48806e-10
2.40348e-11
-7.19752e-10
2.28951e-11
-7.5499e-10
-3.40896e-11
-8.34354e-10
-4.85767e-11
-7.94665e-10
-2.38545e-10
-7.65286e-10
-3.3359e-10
-7.06301e-10
-6.80487e-10
-5.62038e-10
-7.64024e-10
-4.30587e-10
-9.19297e-10
-2.75809e-10
-9.59813e-10
-1.06715e-10
-1.00834e-09
7.87684e-11
-8.08624e-10
2.66153e-10
-7.33026e-10
4.45016e-10
-6.45867e-10
6.07225e-10
-5.58495e-10
7.38134e-10
-3.11045e-10
8.58437e-10
-1.08766e-10
1.0083e-09
7.35478e-11
1.05716e-09
2.95995e-10
1.18578e-09
4.40042e-10
1.19997e-09
5.69131e-10
1.1147e-09
5.50998e-10
1.06189e-09
6.04049e-10
8.09344e-10
2.40121e-10
4.85401e-10
1.35449e-10
1.04596e-16
-5.61791e-12
-4.54073e-18
-6.1512e-19
-4.71662e-18
-7.16654e-19
-4.6943e-18
-9.04998e-19
-4.533e-18
-1.15415e-18
-4.26694e-18
-1.41452e-18
-3.92003e-18
-1.65788e-18
-3.51159e-18
-1.86733e-18
-3.05863e-18
-2.03288e-18
-2.57679e-18
-2.14922e-18
-2.08052e-18
-2.21457e-18
-1.58292e-18
-2.2299e-18
-1.09564e-18
-2.19837e-18
-6.28627e-19
-2.12475e-18
-1.90074e-19
-2.01487e-18
2.13637e-19
-1.87522e-18
5.77869e-19
-1.71243e-18
8.99608e-19
-1.53302e-18
1.1773e-18
-1.34305e-18
1.41064e-18
-1.148e-18
1.60037e-18
-9.52599e-19
1.74803e-18
-7.60804e-19
1.85578e-18
-5.75778e-19
1.92621e-18
-3.99936e-19
1.96216e-18
-2.35011e-19
1.96663e-18
-8.21367e-20
1.94264e-18
5.80542e-20
1.89319e-18
1.85342e-19
1.82114e-18
2.99833e-19
1.72922e-18
4.01881e-19
1.61996e-18
4.92014e-19
1.49571e-18
5.70882e-19
1.35861e-18
6.39196e-19
1.21063e-18
6.97691e-19
1.05354e-18
7.47088e-19
8.88944e-19
7.88064e-19
7.18326e-19
8.21228e-19
5.43035e-19
8.47105e-19
3.64325e-19
8.66125e-19
1.83376e-19
8.78613e-19
8.84787e-19
-1.2156e-10
1.24523e-09
-2.48079e-10
1.16112e-09
-3.79933e-10
1.06778e-09
-5.22611e-10
1.01887e-09
-6.02026e-10
9.18e-10
-6.52109e-10
8.30905e-10
-6.41608e-10
8.25937e-10
-7.99603e-10
7.70619e-10
-9.60484e-10
5.90257e-10
-1.06515e-09
4.9435e-10
-1.15609e-09
3.68165e-10
-1.17597e-09
3.02557e-10
-1.22625e-09
2.25015e-10
-1.25942e-09
2.47085e-10
-1.317e-09
2.15913e-10
-1.32262e-09
2.22508e-10
-1.35647e-09
2.33651e-10
-1.37707e-09
2.61174e-10
-1.38742e-09
3.27421e-10
-1.39783e-09
3.92461e-10
-1.43467e-09
4.11675e-10
-1.4852e-09
4.40842e-10
-1.51027e-09
3.84122e-10
-1.5408e-09
3.17843e-10
-1.52505e-09
2.26801e-10
-1.51227e-09
1.3835e-10
-1.52007e-09
1.88436e-11
-1.53895e-09
-1.78105e-10
-1.56843e-09
-7.61139e-11
-1.5613e-09
-1.34704e-10
-1.56947e-09
-1.07975e-10
-1.57953e-09
-8.90274e-11
-1.59521e-09
-1.28744e-10
-1.64013e-09
-5.37009e-11
-1.68683e-09
3.82176e-11
-1.7417e-09
-5.46164e-11
-1.77943e-09
-6.98833e-11
-1.75762e-09
-1.69034e-10
-1.77682e-09
-3.14422e-10
-1.5378e-09
-7.96003e-10
-1.2654e-09
-7.63623e-10
-1.18681e-09
-8.47441e-10
-8.38305e-10
-1.36815e-09
-6.59984e-10
-7.62607e-10
-3.54248e-10
-9.14115e-10
-1.71551e-10
-7.76506e-10
-5.62449e-11
-4.18784e-10
5.72328e-11
-3.66501e-10
1.46651e-10
-2.50264e-10
9.87263e-11
-2.40288e-11
2.27636e-11
7.77714e-11
-8.21186e-11
1.32448e-10
-1.84783e-10
1.26102e-10
-2.80786e-10
1.14883e-10
-3.48475e-10
9.1724e-11
-4.0797e-10
8.23909e-11
-4.64287e-10
2.22279e-11
-5.21033e-10
8.17004e-12
-5.15239e-10
-2.44339e-10
-4.85749e-10
-3.63079e-10
-4.70784e-10
-6.95452e-10
-4.25678e-10
-8.0913e-10
-3.11784e-10
-1.03319e-09
-1.56334e-10
-1.11526e-09
-5.65812e-11
-1.1081e-09
8.75374e-11
-9.52743e-10
2.05923e-10
-8.51411e-10
3.67423e-10
-8.07367e-10
4.93375e-10
-6.84447e-10
7.08136e-10
-5.25806e-10
8.08204e-10
-2.08834e-10
9.15922e-10
-3.41698e-11
1.01146e-09
2.00453e-10
1.0875e-09
3.64002e-10
1.16435e-09
4.92286e-10
1.08301e-09
6.32337e-10
1.00818e-09
6.78882e-10
7.43053e-10
5.05243e-10
4.63398e-10
4.15103e-10
9.85202e-17
4.5778e-10
-4.58752e-18
1.78847e-19
-4.90448e-18
-3.99914e-19
-4.94317e-18
-8.66717e-19
-4.79337e-18
-1.3044e-18
-4.5103e-18
-1.69801e-18
-4.12949e-18
-2.03903e-18
-3.67714e-18
-2.31992e-18
-3.17497e-18
-2.53517e-18
-2.64213e-18
-2.68204e-18
-2.09585e-18
-2.76071e-18
-1.5514e-18
-2.77409e-18
-1.02201e-18
-2.72737e-18
-5.18755e-19
-2.62749e-18
-5.04181e-20
-2.48255e-18
3.76423e-19
-2.30124e-18
7.57284e-19
-2.09232e-18
1.08957e-18
-1.86418e-18
1.37235e-18
-1.62455e-18
1.60604e-18
-1.38028e-18
1.79217e-18
-1.13717e-18
1.93306e-18
-9.00011e-19
2.03163e-18
-6.72543e-19
2.09114e-18
-4.57548e-19
2.11503e-18
-2.56943e-19
2.10682e-18
-7.19097e-20
2.06993e-18
9.69883e-20
2.00768e-18
2.49675e-19
1.92319e-18
3.86453e-19
1.81935e-18
5.07901e-19
1.69882e-18
6.1479e-19
1.56402e-18
7.08007e-19
1.41711e-18
7.885e-19
1.26003e-18
8.57225e-19
1.09451e-18
9.15104e-19
9.22108e-19
9.62998e-19
7.44204e-19
1.00168e-18
5.62055e-19
1.0318e-18
3.76813e-19
1.0539e-18
1.8955e-19
1.0684e-18
1.07556e-18
-1.04228e-10
1.34946e-09
-1.54421e-10
1.21131e-09
-2.29046e-10
1.14241e-09
-2.7944e-10
1.06927e-09
-3.70797e-10
1.00936e-09
-4.96803e-10
9.5691e-10
-5.42746e-10
8.7188e-10
-5.5744e-10
7.85313e-10
-6.42914e-10
6.7573e-10
-7.42653e-10
5.94089e-10
-8.63842e-10
4.89353e-10
-9.45234e-10
3.83948e-10
-1.01773e-09
2.97512e-10
-1.06263e-09
2.91984e-10
-1.10472e-09
2.58003e-10
-1.07069e-09
1.88476e-10
-1.10659e-09
2.69547e-10
-1.13626e-09
2.90849e-10
-1.14865e-09
3.39812e-10
-1.13644e-09
3.80249e-10
-1.15107e-09
4.26303e-10
-1.13632e-09
4.26094e-10
-1.14076e-09
3.88562e-10
-1.17824e-09
3.55318e-10
-1.20918e-09
2.57735e-10
-1.23927e-09
1.68445e-10
-1.24064e-09
2.02091e-11
-1.30008e-09
-1.18665e-10
-1.33938e-09
-3.68153e-11
-1.34207e-09
-1.32011e-10
-1.3434e-09
-1.06643e-10
-1.34438e-09
-8.805e-11
-1.39132e-09
-8.18089e-11
-1.48958e-09
4.45653e-11
-1.51706e-09
6.56942e-11
-1.60639e-09
3.47105e-11
-1.63685e-09
-3.94228e-11
-1.57791e-09
-2.27975e-10
-1.46196e-09
-4.30373e-10
-1.33685e-09
-9.21114e-10
-1.12843e-09
-9.72041e-10
-8.18366e-10
-1.1575e-09
-6.89415e-10
-1.4971e-09
-3.18724e-10
-1.1333e-09
2.41408e-12
-1.23525e-09
1.8147e-10
-9.55562e-10
3.47991e-10
-5.85304e-10
4.54391e-10
-4.72901e-10
6.37284e-10
-4.33156e-10
5.5367e-10
5.95857e-11
4.46116e-10
1.85326e-10
2.82437e-10
2.96128e-10
1.44363e-10
2.64177e-10
3.73628e-11
2.21884e-10
-5.41965e-11
1.83284e-10
-1.34738e-10
1.62934e-10
-2.03356e-10
9.08464e-11
-2.16218e-10
2.10324e-11
-2.8728e-10
-1.73277e-10
-3.25523e-10
-3.24835e-10
-3.23325e-10
-6.97649e-10
-2.29672e-10
-9.02783e-10
-1.39961e-10
-1.1229e-09
-5.84298e-11
-1.19679e-09
6.77548e-12
-1.1733e-09
1.24946e-10
-1.07091e-09
2.7962e-10
-1.00609e-09
4.45474e-10
-9.7322e-10
4.36453e-10
-6.75427e-10
5.78749e-10
-6.68102e-10
7.43242e-10
-3.73327e-10
8.0043e-10
-9.13581e-11
8.93185e-10
1.07697e-10
1.00627e-09
2.50916e-10
1.0585e-09
4.40057e-10
9.85817e-10
7.05019e-10
8.7985e-10
7.84848e-10
6.40173e-10
7.4492e-10
3.43861e-10
7.11415e-10
9.59761e-17
8.01641e-10
-5.00936e-18
1.5094e-18
-5.37077e-18
-3.87365e-20
-5.38059e-18
-8.57348e-19
-5.18697e-18
-1.49852e-18
-4.85132e-18
-2.03417e-18
-4.41038e-18
-2.48043e-18
-3.89239e-18
-2.83828e-18
-3.32184e-18
-3.10597e-18
-2.72081e-18
-3.2832e-18
-2.10923e-18
-3.37231e-18
-1.50467e-18
-3.37855e-18
-9.22133e-19
-3.30971e-18
-3.73819e-19
-3.17549e-18
1.30889e-19
-2.98682e-18
5.85346e-19
-2.75512e-18
9.85423e-19
-2.49166e-18
1.3292e-18
-2.20707e-18
1.61663e-18
-1.91094e-18
1.84915e-18
-1.61161e-18
2.02932e-18
-1.31601e-18
2.16053e-18
-1.02974e-18
2.24662e-18
-7.57024e-19
2.29174e-18
-5.00926e-19
2.30007e-18
-2.63434e-19
2.27572e-18
-4.56505e-20
2.22262e-18
1.52043e-19
2.14446e-18
3.29829e-19
2.04464e-18
4.88309e-19
1.92624e-18
6.28377e-19
1.79204e-18
7.51122e-19
1.64451e-18
8.57738e-19
1.48583e-18
9.49456e-19
1.31791e-18
1.02749e-18
1.14241e-18
1.093e-18
9.60786e-19
1.14706e-18
7.74326e-19
1.1906e-18
5.84159e-19
1.22443e-18
3.91308e-19
1.24921e-18
1.96711e-19
1.26544e-18
1.27345e-18
-1.01624e-10
1.45109e-09
-1.15135e-10
1.22482e-09
-1.2938e-10
1.15665e-09
-1.30998e-10
1.07088e-09
-1.27659e-10
1.00602e-09
-1.49074e-10
9.78325e-10
-2.04268e-10
9.27073e-10
-2.64233e-10
8.45278e-10
-3.38554e-10
7.50051e-10
-3.93836e-10
6.4937e-10
-4.91913e-10
5.8743e-10
-6.10833e-10
5.02868e-10
-6.99662e-10
3.8634e-10
-7.49116e-10
3.41439e-10
-7.80505e-10
2.8939e-10
-8.16598e-10
2.24568e-10
-8.42163e-10
2.95111e-10
-8.82857e-10
3.31543e-10
-9.15852e-10
3.72806e-10
-9.43934e-10
4.08331e-10
-9.40342e-10
4.2271e-10
-9.57344e-10
4.43096e-10
-9.83092e-10
4.14309e-10
-9.90589e-10
3.62813e-10
-1.02856e-09
2.95707e-10
-1.05779e-09
1.97676e-10
-1.06969e-09
3.21023e-11
-1.15623e-09
-3.21189e-11
-1.13853e-09
-5.45216e-11
-1.10363e-09
-1.66905e-10
-1.1018e-09
-1.08479e-10
-1.15316e-09
-3.66941e-11
-1.18195e-09
-5.30135e-11
-1.2355e-09
9.81153e-11
-1.27955e-09
1.09744e-10
-1.30355e-09
5.87104e-11
-1.31086e-09
-3.21116e-11
-1.30785e-09
-2.30994e-10
-1.26187e-09
-4.76348e-10
-1.1712e-09
-1.01178e-09
-7.9624e-10
-1.347e-09
-4.06276e-10
-1.54747e-09
-2.75356e-10
-1.62802e-09
1.31319e-10
-1.53997e-09
2.39496e-10
-1.34343e-09
4.37661e-10
-1.15373e-09
7.353e-10
-8.82942e-10
7.117e-10
-4.493e-10
7.21664e-10
-4.4312e-10
7.95204e-10
-1.39531e-11
7.90492e-10
1.90038e-10
6.49081e-10
4.3754e-10
4.52994e-10
4.60265e-10
2.65886e-10
4.08992e-10
1.22964e-10
3.26207e-10
5.04585e-11
2.3544e-10
-2.74067e-11
1.68712e-10
-7.26761e-11
6.63025e-11
-1.28026e-10
-1.17926e-10
-1.53179e-10
-2.99682e-10
-1.63212e-10
-6.87615e-10
-6.07372e-11
-1.00526e-09
2.82985e-11
-1.21194e-09
8.70022e-11
-1.2555e-09
1.3772e-10
-1.22402e-09
2.10532e-10
-1.14372e-09
2.47331e-10
-1.04288e-09
2.62901e-10
-9.8879e-10
4.21168e-10
-8.33694e-10
5.57635e-10
-8.04568e-10
6.52726e-10
-4.68419e-10
7.73529e-10
-2.12161e-10
8.67395e-10
1.38316e-11
9.11004e-10
2.07306e-10
9.04508e-10
4.46553e-10
8.37084e-10
7.72442e-10
7.10592e-10
9.11339e-10
5.00504e-10
9.55008e-10
2.68832e-10
9.43086e-10
8.64543e-17
1.07047e-09
-6.28891e-18
1.22392e-18
-6.18886e-18
-1.39034e-19
-6.0215e-18
-1.02515e-18
-5.72262e-18
-1.79791e-18
-5.29759e-18
-2.45974e-18
-4.76822e-18
-3.01033e-18
-4.16009e-18
-3.44686e-18
-3.49906e-18
-3.76736e-18
-2.80992e-18
-3.97258e-18
-2.11547e-18
-4.06689e-18
-1.43583e-18
-4.05822e-18
-7.87917e-19
-3.95757e-18
-1.85149e-19
-3.77813e-18
3.62592e-19
-3.53433e-18
8.48803e-19
-3.24098e-18
1.27001e-18
-2.91238e-18
1.62533e-18
-2.56175e-18
1.91597e-18
-2.20079e-18
2.14474e-18
-1.83944e-18
2.3156e-18
-1.48579e-18
2.43324e-18
-1.14614e-18
2.50272e-18
-8.25123e-19
2.52923e-18
-5.25906e-19
2.51785e-18
-2.50392e-19
2.47341e-18
5.54109e-22
2.40041e-18
2.26888e-19
2.30294e-18
4.29186e-19
2.1847e-18
6.08473e-19
2.04898e-18
7.66068e-19
1.89866e-18
9.03466e-19
1.73623e-18
1.02224e-18
1.56387e-18
1.12396e-18
1.38342e-18
1.21016e-18
1.19646e-18
1.28224e-18
1.00432e-18
1.34152e-18
8.08158e-19
1.38912e-18
6.08942e-19
1.42602e-18
4.07539e-19
1.45298e-18
2.04724e-19
1.47062e-18
1.47932e-18
-4.39311e-11
1.49502e-09
-8.92761e-11
1.27016e-09
-8.36932e-11
1.15107e-09
-7.36721e-11
1.06086e-09
-6.41615e-11
9.96507e-10
-5.14473e-11
9.65611e-10
-7.10089e-11
9.46635e-10
-8.65062e-11
8.60775e-10
-1.1533e-10
7.78875e-10
-1.36776e-10
6.70815e-10
-1.49983e-10
6.00638e-10
-1.85116e-10
5.38e-10
-2.7315e-10
4.74374e-10
-3.69733e-10
4.38021e-10
-4.71565e-10
3.91222e-10
-6.03282e-10
3.56285e-10
-6.64063e-10
3.55892e-10
-6.95681e-10
3.63161e-10
-7.07796e-10
3.8492e-10
-7.10151e-10
4.10686e-10
-6.88928e-10
4.01485e-10
-6.37071e-10
3.91239e-10
-6.33788e-10
4.11025e-10
-6.81169e-10
4.10194e-10
-7.66364e-10
3.80901e-10
-8.54751e-10
2.86063e-10
-9.35487e-10
1.12838e-10
-9.82224e-10
1.46172e-11
-9.60492e-10
-7.62533e-11
-9.56606e-10
-1.70792e-10
-9.18343e-10
-1.46742e-10
-9.27009e-10
-2.80287e-11
-9.39374e-10
-4.0649e-11
-9.30959e-10
8.97007e-11
-9.68613e-10
1.47398e-10
-9.77411e-10
6.75081e-11
-9.82065e-10
-2.74582e-11
-1.01872e-09
-1.94336e-10
-9.46248e-10
-5.48823e-10
-8.41427e-10
-1.1166e-09
-6.81618e-10
-1.50681e-09
-4.57477e-10
-1.77161e-09
-1.92251e-10
-1.89325e-09
1.67081e-10
-1.8993e-09
4.66843e-10
-1.64319e-09
7.14507e-10
-1.40139e-09
9.91298e-10
-1.15973e-09
1.11268e-09
-5.70679e-10
7.57707e-10
-8.81487e-11
9.05194e-10
-1.61439e-10
8.50025e-10
2.45207e-10
7.97558e-10
4.90007e-10
6.377e-10
6.20124e-10
4.22713e-10
6.2398e-10
2.41687e-10
5.07235e-10
1.16615e-10
3.60512e-10
2.6178e-11
2.5915e-10
-2.89531e-11
1.21434e-10
-5.50227e-11
-9.1856e-11
-7.87888e-11
-2.75915e-10
-7.59705e-11
-6.90433e-10
-1.32218e-11
-1.06801e-09
4.99472e-11
-1.2751e-09
1.1104e-10
-1.31659e-09
1.79501e-10
-1.29248e-09
2.40583e-10
-1.20481e-09
2.85726e-10
-1.08803e-09
3.4472e-10
-1.04778e-09
4.67291e-10
-9.56265e-10
5.53798e-10
-8.91075e-10
5.53309e-10
-4.67931e-10
7.23311e-10
-3.82164e-10
7.31598e-10
5.54474e-12
6.98684e-10
2.4022e-10
6.21948e-10
5.23289e-10
6.15899e-10
7.7849e-10
5.50783e-10
9.76455e-10
4.40904e-10
1.06489e-09
2.79784e-10
1.10421e-09
6.63433e-17
1.35026e-09
-7.26677e-18
1.08867e-18
-7.07445e-18
-3.31592e-19
-6.79402e-18
-1.30596e-18
-6.38445e-18
-2.20794e-18
-5.84817e-18
-2.99653e-18
-5.20475e-18
-3.65426e-18
-4.48058e-18
-4.17151e-18
-3.70428e-18
-4.54404e-18
-2.90423e-18
-4.77291e-18
-2.10681e-18
-4.86449e-18
-1.33518e-18
-4.82995e-18
-6.08469e-19
-4.68431e-18
5.86456e-20
-4.44521e-18
6.55947e-19
-4.13154e-18
1.1774e-18
-3.76226e-18
1.62064e-18
-3.35532e-18
1.98629e-18
-2.92697e-18
2.27732e-18
-2.49126e-18
2.49839e-18
-2.05981e-18
2.65525e-18
-1.64181e-18
2.75425e-18
-1.24415e-18
2.80194e-18
-8.71669e-19
2.80475e-18
-5.2742e-19
2.7688e-18
-2.12998e-19
2.69974e-18
7.11814e-20
2.6027e-18
3.25605e-19
2.48223e-18
5.51416e-19
2.3423e-18
7.50204e-19
2.18638e-18
9.23836e-19
2.01743e-18
1.07431e-18
1.83795e-18
1.20366e-18
1.65006e-18
1.31386e-18
1.45551e-18
1.40679e-18
1.25573e-18
1.48417e-18
1.05193e-18
1.54753e-18
8.45052e-19
1.59824e-18
6.35912e-19
1.63742e-18
4.25175e-19
1.666e-18
2.13423e-19
1.68465e-18
1.69384e-18
-3.05267e-11
1.52554e-09
-7.5576e-11
1.31521e-09
-7.03748e-11
1.14587e-09
-4.48532e-11
1.03534e-09
-3.95559e-11
9.91209e-10
-4.38078e-11
9.69863e-10
-5.08183e-11
9.53645e-10
-7.69626e-11
8.86919e-10
-1.02718e-10
8.0463e-10
-1.25731e-10
6.93828e-10
-1.34647e-10
6.09553e-10
-1.38254e-10
5.41607e-10
-1.54158e-10
4.90277e-10
-1.63923e-10
4.47785e-10
-1.85272e-10
4.12571e-10
-2.3793e-10
4.08943e-10
-3.15698e-10
4.33659e-10
-4.07107e-10
4.54569e-10
-4.85439e-10
4.63252e-10
-5.21493e-10
4.46739e-10
-5.74079e-10
4.54071e-10
-6.07651e-10
4.2481e-10
-6.04228e-10
4.07602e-10
-5.94154e-10
4.00119e-10
-5.8542e-10
3.72166e-10
-6.19262e-10
3.19904e-10
-7.34304e-10
2.27879e-10
-7.82412e-10
6.27247e-11
-7.92322e-10
-6.63435e-11
-8.32235e-10
-1.30879e-10
-7.78257e-10
-2.00719e-10
-7.19306e-10
-8.69802e-11
-6.91971e-10
-6.79848e-11
-6.55851e-10
5.35806e-11
-6.35694e-10
1.2724e-10
-6.64243e-10
9.60572e-11
-6.382e-10
-5.35012e-11
-6.85081e-10
-1.47454e-10
-6.3517e-10
-5.98734e-10
-6.22025e-10
-1.12975e-09
-5.43706e-10
-1.58513e-09
-3.7002e-10
-1.94529e-09
-1.33876e-10
-2.12939e-09
1.29061e-10
-2.16224e-09
4.99752e-10
-2.01388e-09
8.01037e-10
-1.70268e-09
9.64636e-10
-1.32333e-09
1.25727e-09
-8.63312e-10
9.79272e-10
1.8985e-10
9.84687e-10
-1.66854e-10
8.23956e-10
4.05939e-10
7.52336e-10
5.61629e-10
5.68527e-10
8.03933e-10
3.89218e-10
8.03289e-10
2.32317e-10
6.64136e-10
1.02584e-10
4.90247e-10
7.6379e-12
3.54097e-10
-5.9946e-11
1.89019e-10
-1.20231e-10
-3.15696e-11
-1.05836e-10
-2.9031e-10
-7.37696e-11
-7.22498e-10
-2.59759e-11
-1.1158e-09
4.05777e-11
-1.34166e-09
1.33785e-10
-1.4098e-09
2.36485e-10
-1.39518e-09
2.70201e-10
-1.23852e-09
2.8772e-10
-1.10555e-09
3.22213e-10
-1.08228e-09
3.88764e-10
-1.02282e-09
4.39611e-10
-9.41922e-10
4.95429e-10
-5.23748e-10
6.27471e-10
-5.14206e-10
5.67216e-10
6.57998e-11
5.38186e-10
2.69249e-10
5.47503e-10
5.13972e-10
5.67541e-10
7.58452e-10
4.43247e-10
1.10075e-09
3.76427e-10
1.13171e-09
2.67693e-10
1.21294e-09
4.08159e-17
1.61795e-09
-8.18014e-18
1.52939e-18
-8.0483e-18
-4.63617e-19
-7.6958e-18
-1.65875e-18
-7.17304e-18
-2.73106e-18
-6.5059e-18
-3.66408e-18
-5.72201e-18
-4.43861e-18
-4.85311e-18
-5.04085e-18
-3.93315e-18
-5.46437e-18
-2.9958e-18
-5.71053e-18
-2.07227e-18
-5.78819e-18
-1.18955e-18
-5.71275e-18
-3.69366e-19
-5.50452e-18
3.72315e-19
-5.18688e-18
1.02523e-18
-4.78442e-18
1.58434e-18
-4.32127e-18
2.04899e-18
-3.81979e-18
2.422e-18
-3.29972e-18
2.70877e-18
-2.77765e-18
2.91639e-18
-2.26692e-18
3.05291e-18