/*--------------------------------*- C++ -*----------------------------------*\
  =========                 |
  \\      /  F ield         | OpenFOAM: The Open Source CFD Toolbox
   \\    /   O peration     | Website:  https://openfoam.org
    \\  /    A nd           | Version:  6
     \\/     M anipulation  |
\*---------------------------------------------------------------------------*/
FoamFile
{
    version     2.0;
    format      ascii;
    class       volScalarField;
    location    "850";
    object      Su;
}
// * * * * * * * * * * * * * * * * * * * * * * * * * * * * * * * * * * * * * //

dimensions      [0 0 -1 0 0 0 0];

internalField   nonuniform List<scalar> 
4800
(
0.217992
0.212803
0.207663
0.202598
0.197642
0.192822
0.188162
0.183679
0.179371
0.175238
0.171265
0.167444
0.16376
0.160203
0.156765
0.153437
0.150215
0.147092
0.144065
0.141134
0.1383
0.135566
0.132931
0.130399
0.127969
0.125637
0.123401
0.121252
0.119182
0.117182
0.115242
0.113357
0.11152
0.109726
0.10797
0.106245
0.104549
0.102875
0.101215
0.099562
0.0979037
0.0962308
0.0945314
0.0927924
0.0910061
0.0891678
0.087275
0.0853293
0.0833348
0.0812984
0.0792283
0.0771332
0.0750214
0.0729008
0.0707783
0.0686609
0.0665556
0.0644662
0.0623931
0.060341
0.0583104
0.0562906
0.0542717
0.0522434
0.0501903
0.0480963
0.0459466
0.0437306
0.0414325
0.0390349
0.0365327
0.0339258
0.0312191
0.0284228
0.0255491
0.0226188
0.0196589
0.0167086
0.0137817
0.0108553
0.00789619
0.0049011
0.00188744
-0.00113395
-0.00415668
-0.00717715
-0.0101934
-0.0132045
-0.0162102
-0.0192105
-0.0222057
-0.0251965
-0.0281833
-0.0311669
-0.0341477
-0.0371266
-0.040104
-0.0430804
-0.0460564
-0.0490324
-0.0520088
-0.0549858
-0.0579638
-0.060943
-0.0639235
-0.0669055
-0.069889
-0.0728741
-0.0758608
-0.0788491
-0.0818389
-0.0848301
-0.0878227
-0.0908164
-0.0938113
-0.0968071
-0.0998037
-0.102801
-0.105799
-0.108796
0.217998
0.212836
0.207729
0.202703
0.197786
0.193
0.188372
0.183913
0.179626
0.175506
0.171544
0.167728
0.164046
0.16049
0.15705
0.15372
0.150494
0.147366
0.144335
0.141401
0.138566
0.135828
0.133192
0.130659
0.128228
0.125897
0.123661
0.121514
0.119444
0.117441
0.115499
0.113611
0.111771
0.109975
0.108217
0.106493
0.104799
0.103128
0.101475
0.0998298
0.0981798
0.0965151
0.0948223
0.0930863
0.0913009
0.0894615
0.0875649
0.0856135
0.0836116
0.0815657
0.0794843
0.0773753
0.0752473
0.0731088
0.0709673
0.0688313
0.0667087
0.0646038
0.0625193
0.0604585
0.0584198
0.056394
0.0543715
0.0523394
0.0502827
0.0481862
0.0460351
0.0438197
0.0415263
0.0391411
0.0366584
0.0340718
0.0313815
0.0285956
0.0257281
0.0227994
0.0198362
0.0168646
0.0138946
0.0109244
0.00793222
0.00491761
0.00189241
-0.00113587
-0.00416273
-0.00718563
-0.0102033
-0.013215
-0.0162209
-0.0192211
-0.022216
-0.0252063
-0.0281927
-0.0311756
-0.0341559
-0.0371342
-0.040111
-0.0430869
-0.0460623
-0.0490378
-0.0520137
-0.0549903
-0.0579678
-0.0609466
-0.0639268
-0.0669084
-0.0698916
-0.0728765
-0.0758629
-0.0788509
-0.0818405
-0.0848315
-0.0878238
-0.0908174
-0.0938121
-0.0968078
-0.0998042
-0.102801
-0.105799
-0.108797
0.218027
0.212922
0.207875
0.202914
0.198062
0.193337
0.188762
0.184343
0.180088
0.17599
0.172042
0.168236
0.164563
0.161013
0.157578
0.15425
0.151023
0.147893
0.14486
0.141924
0.139085
0.136346
0.13371
0.131178
0.128748
0.12642
0.124185
0.122038
0.119965
0.117958
0.116011
0.114117
0.112271
0.110469
0.108707
0.106982
0.105292
0.103629
0.101988
0.100357
0.0987208
0.0970709
0.0953894
0.0936581
0.091875
0.0900337
0.0881301
0.0861679
0.0841505
0.0820843
0.0799772
0.0778388
0.0756796
0.0735088
0.0713354
0.0691696
0.0670182
0.0648872
0.0627822
0.0607046
0.0586491
0.0566073
0.0545704
0.052524
0.0504534
0.0483441
0.0461841
0.0439627
0.0416696
0.0392974
0.0368324
0.0342653
0.0315992
0.0288375
0.0259919
0.0230832
0.0201275
0.0171292
0.0140927
0.0110423
0.00799068
0.00494263
0.00189771
-0.00114248
-0.00417653
-0.00720369
-0.0102237
-0.0132365
-0.0162426
-0.0192425
-0.0222368
-0.0252262
-0.0282114
-0.0311932
-0.0341723
-0.0371494
-0.040125
-0.0430998
-0.0460742
-0.0490486
-0.0520235
-0.0549992
-0.0579759
-0.0609539
-0.0639334
-0.0669143
-0.0698969
-0.0728811
-0.075867
-0.0788546
-0.0818437
-0.0848342
-0.0878262
-0.0908194
-0.0938138
-0.0968091
-0.0998052
-0.102802
-0.105799
-0.108797
0.218073
0.213058
0.208099
0.203226
0.19846
0.193818
0.18931
0.184942
0.180726
0.176655
0.172728
0.168939
0.165281
0.161744
0.15832
0.155
0.151781
0.148657
0.145627
0.142692
0.139853
0.137115
0.134481
0.131952
0.129526
0.127199
0.124965
0.122816
0.120737
0.11872
0.116763
0.114859
0.113004
0.111194
0.109426
0.107701
0.106015
0.104362
0.102735
0.101122
0.0995036
0.0978729
0.0962063
0.0944815
0.0927006
0.0908553
0.0889395
0.0869598
0.0849184
0.0828217
0.0806783
0.0784987
0.0762954
0.0740813
0.0718681
0.0696652
0.0674792
0.0653165
0.0631827
0.0610771
0.058994
0.0569237
0.0548584
0.0527824
0.0506846
0.0485514
0.046373
0.0441389
0.0418382
0.0394646
0.0370074
0.0344605
0.03182
0.0290825
0.0262571
0.0233536
0.0203771
0.0173432
0.0142634
0.0111531
0.0080457
0.00496254
0.00189556
-0.00115844
-0.00420101
-0.00723319
-0.0102559
-0.0132698
-0.0162759
-0.0192751
-0.0222682
-0.025256
-0.0282396
-0.0312196
-0.0341969
-0.0371721
-0.040146
-0.0431191
-0.0460918
-0.0490647
-0.0520382
-0.0550125
-0.057988
-0.0609648
-0.0639432
-0.0669231
-0.0699047
-0.0728881
-0.0758732
-0.07886
-0.0818484
-0.0848384
-0.0878297
-0.0908224
-0.0938162
-0.0968111
-0.0998067
-0.102803
-0.1058
-0.108797
0.218131
0.21323
0.208382
0.203616
0.198952
0.194404
0.189973
0.185671
0.181506
0.177478
0.173584
0.169821
0.166185
0.162664
0.159255
0.155949
0.152742
0.149628
0.146605
0.143675
0.140843
0.13811
0.135481
0.132955
0.130529
0.128199
0.125962
0.123805
0.121713
0.119684
0.117713
0.115795
0.113929
0.112109
0.110334
0.108608
0.106925
0.105282
0.103674
0.102083
0.100487
0.098877
0.0972264
0.0955071
0.0937274
0.0918759
0.089943
0.0879396
0.0858667
0.0837309
0.0815427
0.0793159
0.0770654
0.0748046
0.0725453
0.0702982
0.0680716
0.0658704
0.0637
0.0615581
0.0594392
0.0573316
0.0552272
0.0531115
0.0509738
0.0488029
0.0465917
0.0443307
0.0420105
0.0396231
0.037161
0.034618
0.031988
0.0292683
0.026459
0.023559
0.0205739
0.017513
0.014388
0.0112271
0.0080767
0.00496431
0.00187774
-0.00118906
-0.00423965
-0.00727648
-0.0103014
-0.013316
-0.0163215
-0.0193193
-0.0223105
-0.0252961
-0.0282773
-0.0312548
-0.0342296
-0.0372024
-0.0401738
-0.0431446
-0.0461152
-0.0490861
-0.0520576
-0.0550301
-0.0580039
-0.0609792
-0.0639561
-0.0669347
-0.0699151
-0.0728973
-0.0758814
-0.0788672
-0.0818547
-0.0848438
-0.0878344
-0.0908263
-0.0938195
-0.0968137
-0.0998087
-0.102804
-0.105801
-0.108797
0.218198
0.21343
0.208709
0.204059
0.199503
0.195054
0.190719
0.186501
0.182401
0.178426
0.174577
0.170852
0.167247
0.163751
0.160362
0.157073
0.15388
0.150777
0.147764
0.144844
0.14202
0.139293
0.136666
0.134139
0.13171
0.129376
0.127129
0.124959
0.122851
0.120808
0.118823
0.116893
0.115014
0.113183
0.111401
0.109675
0.107999
0.106371
0.104782
0.103218
0.101647
0.100055
0.0984186
0.0966994
0.0949165
0.0930497
0.0910915
0.0890573
0.0869475
0.0847657
0.0825266
0.0802468
0.0779431
0.0756307
0.0733229
0.0710305
0.0687615
0.0665202
0.0643112
0.0621296
0.0599702
0.0578198
0.0556707
0.0535091
0.0513228
0.0491032
0.0468458
0.0445431
0.042187
0.0397719
0.0372901
0.0347332
0.0320962
0.0293748
0.0265647
0.0236604
0.0206634
0.0175815
0.0144309
0.0112441
0.00807004
0.00493829
0.00183741
-0.00123919
-0.0042959
-0.00733601
-0.0103621
-0.0133762
-0.0163802
-0.0193757
-0.0223641
-0.0253466
-0.0283245
-0.0312987
-0.0342703
-0.0372399
-0.0402083
-0.0431762
-0.0461441
-0.0491124
-0.0520815
-0.0550518
-0.0580236
-0.0609969
-0.063972
-0.066949
-0.0699278
-0.0729087
-0.0758914
-0.078876
-0.0818624
-0.0848505
-0.0878401
-0.0908312
-0.0938235
-0.0968169
-0.0998112
-0.102806
-0.105802
-0.108798
0.218268
0.213641
0.209059
0.204542
0.200107
0.195765
0.191526
0.187398
0.183382
0.179476
0.175684
0.172004
0.168435
0.16497
0.161608
0.158342
0.155166
0.152076
0.149075
0.146164
0.143347
0.140625
0.138
0.135469
0.133032
0.130686
0.128426
0.126242
0.12412
0.122066
0.12007
0.118129
0.116239
0.114399
0.112615
0.110891
0.109225
0.107614
0.106049
0.104511
0.102962
0.101386
0.0997576
0.0980355
0.0962413
0.0943477
0.0923552
0.0902788
0.0881211
0.0858836
0.0835875
0.0812494
0.0788885
0.0765214
0.0741627
0.0718231
0.0695106
0.067229
0.0649796
0.0627559
0.0605547
0.0583625
0.0561682
0.0539558
0.051715
0.0494405
0.0471294
0.0447751
0.0423693
0.03991
0.0373927
0.0348075
0.0321479
0.0294094
0.026585
0.0236675
0.0206574
0.0175622
0.0143999
0.0112043
0.0080212
0.0048792
0.00176979
-0.00131275
-0.00437283
-0.00741408
-0.0104395
-0.0134517
-0.0164528
-0.0194448
-0.0224292
-0.0254076
-0.0283813
-0.0313514
-0.0343188
-0.0372846
-0.0402493
-0.0432137
-0.0461783
-0.0491435
-0.0521098
-0.0550775
-0.0580467
-0.0610178
-0.0639908
-0.0669658
-0.0699429
-0.072922
-0.0759032
-0.0788864
-0.0818715
-0.0848584
-0.0878469
-0.0908369
-0.0938282
-0.0968207
-0.0998141
-0.102808
-0.105803
-0.108798
0.218338
0.213851
0.209408
0.205027
0.200721
0.196498
0.192367
0.188335
0.184404
0.180578
0.176854
0.173233
0.169712
0.166288
0.162959
0.159719
0.156562
0.153489
0.1505
0.147599
0.144788
0.142068
0.139439
0.136901
0.134454
0.132096
0.129823
0.127624
0.125494
0.123434
0.12143
0.11948
0.117584
0.11574
0.113958
0.112241
0.110587
0.108992
0.107445
0.105928
0.104399
0.102836
0.101204
0.0994754
0.0976533
0.095722
0.093687
0.0915528
0.0893295
0.0870276
0.0846734
0.082277
0.0798583
0.077435
0.075024
0.072638
0.0702831
0.0679616
0.065673
0.0634109
0.06117
0.0589362
0.0566954
0.0544311
0.0521344
0.0498008
0.0474269
0.0450093
0.0425471
0.0400379
0.0374727
0.0348465
0.0321525
0.0293826
0.0265312
0.023595
0.0205734
0.0174724
0.0143098
0.011116
0.00793086
0.00478476
0.00167175
-0.00141282
-0.00447311
-0.00751289
-0.0105355
-0.0135438
-0.0165402
-0.0195271
-0.0225062
-0.0254793
-0.0284476
-0.0314126
-0.0343751
-0.0373362
-0.0402965
-0.0432568
-0.0462175
-0.0491792
-0.0521422
-0.0551068
-0.0580732
-0.0610416
-0.0640122
-0.066985
-0.06996
-0.0729373
-0.0759167
-0.0788983
-0.0818819
-0.0848674
-0.0878546
-0.0908434
-0.0938336
-0.096825
-0.0998174
-0.102811
-0.105804
-0.108798
0.218407
0.214054
0.209743
0.20549
0.201307
0.1972
0.193178
0.189247
0.185411
0.181673
0.178031
0.174483
0.171025
0.167653
0.164365
0.161158
0.158027
0.154977
0.152008
0.149121
0.146319
0.143601
0.140969
0.138422
0.13596
0.133587
0.131299
0.12909
0.126954
0.124887
0.122878
0.120925
0.119029
0.117188
0.11541
0.113701
0.112057
0.110474
0.108942
0.107439
0.10592
0.104353
0.102708
0.100963
0.0991059
0.0971331
0.0950448
0.0928423
0.0905403
0.0881682
0.0857456
0.083287
0.0808119
0.0783364
0.0758781
0.073449
0.0710544
0.0686958
0.0663711
0.0640728
0.0617937
0.0595176
0.0572283
0.0549117
0.0525595
0.0501663
0.0477292
0.0452481
0.0427233
0.0401521
0.0375275
0.0348488
0.0321082
0.0292958
0.0264111
0.0234552
0.0204267
0.0173281
0.0141733
0.0109853
0.00779993
0.00465338
0.00154072
-0.00154216
-0.00459926
-0.00763452
-0.0106515
-0.0136535
-0.0166433
-0.0196232
-0.0225954
-0.0255616
-0.0285235
-0.0314822
-0.0344389
-0.0373944
-0.0403496
-0.0433052
-0.0462615
-0.0492191
-0.0521783
-0.0551395
-0.0581027
-0.0610682
-0.0640361
-0.0670064
-0.0699791
-0.0729543
-0.0759318
-0.0789115
-0.0818935
-0.0848774
-0.0878632
-0.0908506
-0.0938396
-0.0968298
-0.0998211
-0.102813
-0.105806
-0.108799
0.218471
0.214245
0.210056
0.205923
0.201854
0.197858
0.193942
0.190111
0.186371
0.182722
0.179164
0.175694
0.172309
0.169005
0.165777
0.162622
0.159535
0.156518
0.153574
0.150704
0.147908
0.14519
0.14255
0.139993
0.137521
0.135137
0.132839
0.130622
0.128481
0.126408
0.124398
0.122445
0.120554
0.118718
0.116948
0.115245
0.11361
0.112035
0.110512
0.109014
0.107494
0.105918
0.104252
0.102475
0.100574
0.0985446
0.0963869
0.0941094
0.0917251
0.0892828
0.0867846
0.0842606
0.0817279
0.0792046
0.0767068
0.0742427
0.0718148
0.0694234
0.0670645
0.0647312
0.0624146
0.0600959
0.0577582
0.0553898
0.0529823
0.0505282
0.0480253
0.0454761
0.0428817
0.0402414
0.0375531
0.034816
0.0320212
0.0291637
0.026248
0.0232737
0.0202366
0.0171387
0.0139916
0.0108107
0.00762677
0.00448253
0.00137367
-0.00170377
-0.00475399
-0.00778123
-0.0107895
-0.0137823
-0.0167627
-0.0197335
-0.0226969
-0.0256548
-0.0286087
-0.03156
-0.0345098
-0.037459
-0.0404083
-0.0433585
-0.0463099
-0.0492629
-0.052218
-0.0551753
-0.058135
-0.0610973
-0.0640622
-0.0670298
-0.07
-0.0729728
-0.0759482
-0.078926
-0.0819061
-0.0848883
-0.0878726
-0.0908586
-0.0938461
-0.096835
-0.0998251
-0.102816
-0.105808
-0.108799
0.218531
0.214422
0.210347
0.206324
0.202363
0.198474
0.194661
0.190931
0.187286
0.183729
0.180257
0.176868
0.173559
0.170326
0.167165
0.164071
0.161041
0.158073
0.155169
0.152327
0.149546
0.14683
0.144183
0.141613
0.139126
0.136729
0.134422
0.132201
0.130056
0.127981
0.125971
0.124022
0.122137
0.12031
0.118547
0.116851
0.115223
0.113652
0.112132
0.110631
0.109105
0.107513
0.105819
0.104001
0.102043
0.0999402
0.0976969
0.0953345
0.0928626
0.0903464
0.087777
0.0851937
0.0826088
0.080044
0.0775132
0.0750209
0.0725666
0.0701474
0.0677574
0.0653891
0.0630331
0.060669
0.0582812
0.0558588
0.0533933
0.0508767
0.0483076
0.0456887
0.0430221
0.0403089
0.0375525
0.0347507
0.0318976
0.0289938
0.0260435
0.0230465
0.0200015
0.0169064
0.0137654
0.01059
0.0074076
0.00426794
0.00116637
-0.00190154
-0.00494057
-0.00795561
-0.0109512
-0.0139314
-0.0168996
-0.0198587
-0.0228111
-0.0257587
-0.0287032
-0.0316458
-0.0345876
-0.0375295
-0.0404722
-0.0434163
-0.0463622
-0.0493102
-0.0522607
-0.0552138
-0.0581697
-0.0611285
-0.0640902
-0.0670549
-0.0700224
-0.0729927
-0.0759658
-0.0789415
-0.0819197
-0.0849001
-0.0878826
-0.0908671
-0.0938532
-0.0968407
-0.0998294
-0.102819
-0.105809
-0.1088
0.218583
0.21458
0.210612
0.206694
0.202837
0.19905
0.19534
0.19171
0.188163
0.184699
0.181315
0.178009
0.174778
0.171619
0.168527
0.165497
0.162523
0.159602
0.156733
0.153913
0.151145
0.148436
0.145795
0.143229
0.140747
0.138354
0.136047
0.133821
0.131669
0.12959
0.127581
0.125638
0.12376
0.121943
0.120189
0.118499
0.116876
0.115307
0.113782
0.112273
0.110731
0.109112
0.107376
0.105505
0.103478
0.10129
0.0989521
0.0964991
0.0939396
0.0913511
0.0887216
0.0860846
0.0834517
0.0808524
0.0782989
0.0757895
0.073318
0.0708782
0.0684623
0.0660638
0.0636725
0.0612653
0.0588272
0.0563466
0.0538157
0.0512277
0.0485838
0.0458873
0.0431414
0.0403502
0.0375191
0.0346489
0.0317387
0.0287876
0.0257981
0.0227717
0.0197106
0.0166135
0.0134821
0.0103161
0.00713525
0.00400285
0.000912689
-0.00214071
-0.00516324
-0.00816086
-0.011139
-0.0141023
-0.0170547
-0.0199991
-0.022938
-0.0258733
-0.0288066
-0.0317392
-0.0346719
-0.0376056
-0.0405409
-0.0434783
-0.0464181
-0.0493607
-0.0523062
-0.0552548
-0.0582066
-0.0611616
-0.0641199
-0.0670814
-0.0700461
-0.0730138
-0.0759845
-0.0789579
-0.081934
-0.0849125
-0.0878933
-0.0908761
-0.0938606
-0.0968467
-0.099834
-0.102822
-0.105811
-0.108801
0.218633
0.214729
0.21086
0.20704
0.203283
0.199597
0.195987
0.192457
0.189008
0.185637
0.182342
0.17912
0.175968
0.172884
0.169859
0.166885
0.163959
0.161076
0.158236
0.155439
0.15269
0.149998
0.14737
0.144818
0.142347
0.13996
0.137656
0.135432
0.133284
0.131208
0.129205
0.127271
0.125404
0.123599
0.121854
0.120171
0.118551
0.116981
0.115448
0.113923
0.112357
0.1107
0.108913
0.106978
0.104868
0.102581
0.100139
0.097587
0.0949508
0.0922967
0.0896119
0.0869323
0.0842755
0.0816619
0.079093
0.076569
0.0740849
0.0716305
0.0691946
0.0667703
0.0643453
0.0618948
0.0594037
0.0568583
0.0542523
0.0515826
0.0488548
0.0460749
0.0432462
0.0403732
0.0374627
0.0345183
0.0315455
0.0285431
0.0255112
0.0224499
0.0193624
0.0162507
0.0131221
0.00997152
0.00679819
0.00367728
0.000603904
-0.00242846
-0.00542751
-0.00840098
-0.0113556
-0.0142969
-0.017229
-0.0201551
-0.0230777
-0.0259985
-0.0289188
-0.0318397
-0.0347622
-0.0376867
-0.0406138
-0.0435438
-0.0464771
-0.0494137
-0.0523539
-0.0552978
-0.0582452
-0.0611963
-0.064151
-0.0671092
-0.0700709
-0.0730358
-0.0760039
-0.0789751
-0.081949
-0.0849255
-0.0879044
-0.0908855
-0.0938684
-0.0968529
-0.0998388
-0.102826
-0.105813
-0.108801
0.218681
0.214872
0.211097
0.207372
0.20371
0.200121
0.196609
0.193176
0.189822
0.186542
0.183334
0.180194
0.17712
0.174104
0.171136
0.168213
0.165333
0.162486
0.159674
0.156902
0.154175
0.151504
0.148896
0.146362
0.143905
0.141528
0.139233
0.137016
0.134877
0.132811
0.130821
0.128902
0.127049
0.125257
0.123523
0.121848
0.120233
0.118662
0.117119
0.115576
0.11398
0.112276
0.110429
0.10842
0.106213
0.103813
0.101263
0.0986171
0.0959106
0.0931871
0.0904482
0.0877257
0.0850435
0.0824228
0.0798638
0.0773512
0.0748701
0.0724094
0.0699584
0.0675097
0.0650475
0.0625464
0.0599917
0.0573715
0.0546824
0.051924
0.0491048
0.0462347
0.0433195
0.0403631
0.0373698
0.034348
0.0313092
0.028253
0.0251771
0.0220803
0.0189648
0.015832
0.012695
0.009553
0.0063845
0.00327787
0.000227985
-0.00277442
-0.00574047
-0.00868078
-0.011604
-0.0145167
-0.0174234
-0.0203272
-0.0232302
-0.0261339
-0.0290392
-0.0319471
-0.034858
-0.0377723
-0.0406904
-0.0436124
-0.0465386
-0.049469
-0.0524035
-0.0553423
-0.0582852
-0.0612322
-0.0641831
-0.0671379
-0.0700965
-0.0730586
-0.0760241
-0.0789928
-0.0819645
-0.084939
-0.0879159
-0.0908952
-0.0938764
-0.0968594
-0.0998437
-0.102829
-0.105815
-0.108802
0.218725
0.215006
0.211322
0.207689
0.204119
0.200623
0.197203
0.193863
0.190599
0.187405
0.184277
0.181212
0.178207
0.175253
0.17234
0.169467
0.166631
0.163818
0.161034
0.15829
0.155589
0.152942
0.150359
0.147844
0.145406
0.143046
0.140766
0.138566
0.136443
0.134394
0.132422
0.130522
0.128686
0.126908
0.125186
0.123522
0.121912
0.120343
0.118794
0.117232
0.115602
0.113844
0.111928
0.109831
0.107517
0.105002
0.102347
0.0996126
0.0968353
0.0940476
0.0912665
0.0885153
0.0858212
0.0832024
0.080651
0.0781475
0.0756738
0.0732118
0.0707486
0.0682753
0.0657712
0.0632119
0.0605849
0.0578807
0.0550991
0.052243
0.0493246
0.0463563
0.0433468
0.0403023
0.0372262
0.0341278
0.0310205
0.0279053
0.0247806
0.0216461
0.0185003
0.0153428
0.0121893
0.00904508
0.00587401
0.00278477
-0.00023182
-0.00319122
-0.00611077
-0.00900572
-0.0118874
-0.0147635
-0.0176386
-0.0205154
-0.0233953
-0.0262792
-0.0291675
-0.0320606
-0.0349587
-0.0378618
-0.0407701
-0.0436836
-0.0466023
-0.0495259
-0.0524546
-0.055388
-0.0583262
-0.0612689
-0.0642159
-0.0671673
-0.0701226
-0.0730818
-0.0760446
-0.0790109
-0.0819803
-0.0849527
-0.0879277
-0.0909051
-0.0938846
-0.0968659
-0.0998487
-0.102833
-0.105817
-0.108803
0.218768
0.215136
0.211537
0.207991
0.204508
0.201095
0.19776
0.194505
0.191322
0.188205
0.185149
0.182154
0.179213
0.176317
0.173456
0.170632
0.167833
0.165052
0.162303
0.159591
0.156918
0.1543
0.151745
0.149258
0.146846
0.144512
0.142257
0.14008
0.13798
0.135956
0.134008
0.132129
0.130313
0.128553
0.126846
0.125195
0.123595
0.12203
0.120475
0.118889
0.117214
0.115388
0.113392
0.111203
0.108786
0.106166
0.10342
0.100604
0.0977609
0.0949177
0.0921043
0.0893429
0.08665
0.0840343
0.0814861
0.0789851
0.0765091
0.0740376
0.0715545
0.0690475
0.0664929
0.0638694
0.0611637
0.058367
0.0554825
0.0525198
0.0494971
0.0464276
0.0433222
0.0401857
0.0370249
0.0338488
0.0306693
0.0274888
0.0243069
0.0211232
0.0179383
0.0147493
0.011567
0.00841125
0.0052337
0.00216906
-0.000797903
-0.00369423
-0.00654791
-0.0093811
-0.0122085
-0.0150383
-0.0178748
-0.0207194
-0.0235724
-0.0264337
-0.0293029
-0.0321796
-0.0350636
-0.0379547
-0.0408525
-0.0437568
-0.0466674
-0.0495841
-0.0525065
-0.0554345
-0.0583677
-0.061306
-0.0642492
-0.0671969
-0.070149
-0.0731052
-0.0760654
-0.0790291
-0.0819963
-0.0849665
-0.0879396
-0.0909151
-0.0938929
-0.0968726
-0.0998538
-0.102836
-0.10582
-0.108803
0.218812
0.215266
0.211753
0.208286
0.204879
0.201541
0.19828
0.195094
0.191977
0.188923
0.185932
0.183001
0.18012
0.177278
0.174469
0.171687
0.168921
0.166177
0.163464
0.160787
0.158149
0.155567
0.153046
0.150593
0.148216
0.145916
0.143694
0.141551
0.139485
0.137493
0.135574
0.133721
0.13193
0.130193
0.128508
0.126875
0.125291
0.123733
0.12217
0.12055
0.118817
0.116914
0.11483
0.112546
0.110028
0.107312
0.104484
0.101598
0.0986915
0.0957944
0.0929523
0.0901824
0.0874949
0.0848906
0.0823499
0.0798476
0.0773616
0.0748705
0.0723555
0.0698014
0.0671837
0.0644867
0.0616964
0.0588024
0.0558084
0.0527309
0.0495945
0.0464183
0.0432119
0.0399849
0.0367423
0.0334892
0.0302351
0.0269847
0.0237382
0.020496
0.0172577
0.0140199
0.0107944
0.00761294
0.00441849
0.00139164
-0.0014978
-0.00429988
-0.00706025
-0.00981036
-0.0125679
-0.0153408
-0.0181311
-0.0209383
-0.0237607
-0.0265966
-0.0294446
-0.0323034
-0.0351721
-0.0380501
-0.0409367
-0.0438313
-0.0467335
-0.0496429
-0.0525589
-0.0554812
-0.0584094
-0.0613433
-0.0642825
-0.0672266
-0.0701754
-0.0731287
-0.0760861
-0.0790474
-0.0820122
-0.0849803
-0.0879514
-0.0909251
-0.0939012
-0.0968792
-0.0998589
-0.10284
-0.105822
-0.108804
0.218855
0.215393
0.211957
0.208562
0.205223
0.20195
0.198749
0.195618
0.192553
0.189553
0.18662
0.183744
0.180916
0.178124
0.175359
0.172613
0.169886
0.167182
0.164507
0.161869
0.159277
0.156741
0.154266
0.15186
0.149528
0.147274
0.145097
0.142998
0.140974
0.139021
0.137136
0.135316
0.133556
0.131845
0.130184
0.128575
0.127011
0.12546
0.123882
0.122219
0.120415
0.118424
0.116244
0.113863
0.11125
0.108447
0.105546
0.102597
0.0996284
0.0966818
0.0938129
0.0910353
0.0883541
0.0857588
0.0832211
0.0807119
0.0782082
0.0756869
0.0731275
0.0705127
0.0678206
0.0650409
0.0621585
0.0591617
0.0560544
0.052857
0.0496028
0.0463124
0.0430024
0.0396839
0.0363615
0.0330369
0.029713
0.0263919
0.0230736
0.0197595
0.0164475
0.0131335
0.00983325
0.00659406
0.00336249
0.000400984
-0.0023613
-0.00502097
-0.00765083
-0.0102922
-0.0129631
-0.0156681
-0.0184052
-0.0211702
-0.0239586
-0.0267667
-0.0295916
-0.032431
-0.0352834
-0.0381475
-0.0410222
-0.0439066
-0.0468
-0.0497018
-0.0526112
-0.0555278
-0.0584509
-0.0613803
-0.0643154
-0.067256
-0.0702016
-0.0731519
-0.0761066
-0.0790654
-0.082028
-0.084994
-0.0879631
-0.090935
-0.0939094
-0.0968858
-0.0998639
-0.102843
-0.105824
-0.108805
0.218895
0.215508
0.212141
0.20881
0.205529
0.202309
0.199154
0.196065
0.193042
0.19009
0.187207
0.184379
0.181595
0.178844
0.176116
0.173408
0.170723
0.168064
0.165436
0.162851
0.160316
0.157838
0.155423
0.153076
0.150803
0.148606
0.146486
0.144441
0.142467
0.140559
0.138715
0.136932
0.135205
0.133524
0.131891
0.130308
0.128762
0.127209
0.125602
0.123884
0.121991
0.119903
0.117624
0.115141
0.112433
0.10956
0.106602
0.103599
0.100577
0.0976012
0.0947203
0.0919399
0.0892568
0.0866549
0.0841023
0.0815687
0.0790307
0.0764637
0.0738458
0.0711572
0.0683805
0.0655059
0.0625176
0.0594097
0.0561884
0.0528761
0.0495023
0.0460968
0.0426827
0.0392721
0.0358693
0.0324768
0.0290904
0.0257021
0.0223073
0.0189066
0.0154975
0.0120698
0.00863514
0.0052716
0.00196316
-0.000867136
-0.00341107
-0.0058567
-0.00831035
-0.0108164
-0.0133858
-0.0160144
-0.0186931
-0.0214124
-0.0241643
-0.0269426
-0.0297428
-0.0325616
-0.0353966
-0.038246
-0.0411082
-0.043982
-0.0468664
-0.0497603
-0.052663
-0.0555737
-0.0584918
-0.0614167
-0.0643478
-0.0672848
-0.0702272
-0.0731746
-0.0761267
-0.079083
-0.0820434
-0.0850073
-0.0879746
-0.0909447
-0.0939174
-0.0968922
-0.0998688
-0.102847
-0.105826
-0.108806
0.218928
0.215608
0.212301
0.209023
0.20579
0.20261
0.199491
0.196436
0.193449
0.190538
0.187694
0.184904
0.182155
0.179438
0.176746
0.174079
0.171441
0.168835
0.166269
0.163751
0.161287
0.15888
0.156538
0.154266
0.152067
0.149941
0.147888
0.145905
0.143987
0.14213
0.140332
0.13859
0.136899
0.13525
0.133646
0.132087
0.130547
0.128974
0.127321
0.125529
0.123522
0.121305
0.118908
0.11633
0.113558
0.110639
0.107639
0.104593
0.101537
0.0985481
0.0956583
0.092868
0.0901701
0.0875453
0.0849605
0.0823853
0.0797959
0.0771685
0.0744793
0.0717083
0.0688406
0.0658622
0.0627595
0.0595355
0.056205
0.0527815
0.0492921
0.045769
0.0422427
0.0387364
0.0352591
0.0318082
0.0283693
0.0249241
0.021457
0.0179664
0.0144365
0.0108465
0.00719372
0.00356419
4.33421e-05
-0.00247902
-0.00463729
-0.00677399
-0.0090075
-0.0113602
-0.0138211
-0.0163703
-0.0189889
-0.0216612
-0.0243752
-0.0271225
-0.0298969
-0.0326941
-0.0355109
-0.0383448
-0.0411941
-0.0440569
-0.0469319
-0.0498179
-0.0527138
-0.0556186
-0.0585316
-0.061452
-0.0643792
-0.0673127
-0.0702519
-0.0731965
-0.076146
-0.0791001
-0.0820582
-0.0850202
-0.0879856
-0.090954
-0.0939251
-0.0968984
-0.0998736
-0.10285
-0.105828
-0.108806
0.218953
0.215681
0.21242
0.209184
0.205986
0.202837
0.199747
0.196722
0.19377
0.190893
0.188081
0.185322
0.182605
0.179924
0.177274
0.174655
0.172073
0.169531
0.16704
0.164603
0.162225
0.159906
0.157652
0.155467
0.153352
0.151307
0.149328
0.147414
0.14556
0.143762
0.142017
0.14032
0.138666
0.137049
0.135468
0.133923
0.132367
0.130752
0.129038
0.127148
0.125003
0.122651
0.120146
0.117476
0.114638
0.111674
0.108635
0.105553
0.10248
0.0994836
0.0965798
0.0937677
0.0910406
0.0883776
0.0857439
0.0831108
0.0804543
0.077752
0.0749813
0.0721255
0.0691683
0.0660883
0.0628746
0.05954
0.0560981
0.0525679
0.0489703
0.0453336
0.0416971
0.0380986
0.0345485
0.0310422
0.0275569
0.024066
0.0205384
0.0169637
0.0133098
0.00953449
0.00558213
0.00143029
-0.00280556
-0.00444249
-0.00593557
-0.00767963
-0.00968111
-0.0118875
-0.0142485
-0.0167245
-0.0192864
-0.0219129
-0.0245892
-0.0273048
-0.0300526
-0.0328273
-0.0356252
-0.0384432
-0.041279
-0.0441305
-0.046996
-0.049874
-0.052763
-0.055662
-0.0585699
-0.061486
-0.0644093
-0.0673394
-0.0702756
-0.0732175
-0.0761645
-0.0791163
-0.0820724
-0.0850325
-0.0879961
-0.0909629
-0.0939324
-0.0969043
-0.0998781
-0.102853
-0.10583
-0.108807
0.218971
0.215732
0.2125
0.209289
0.206114
0.202988
0.199922
0.196923
0.194001
0.191155
0.188373
0.185645
0.182965
0.180329
0.177734
0.17518
0.17267
0.17021
0.167805
0.165459
0.163175
0.160954
0.158799
0.156709
0.154685
0.152727
0.150833
0.148998
0.147216
0.145484
0.143795
0.142144
0.140525
0.138936
0.137371
0.135818
0.134219
0.132537
0.130741
0.128726
0.126422
0.123931
0.12131
0.118547
0.115647
0.112637
0.109556
0.106441
0.103352
0.100339
0.0974116
0.0945679
0.0917972
0.0890771
0.0863784
0.0836736
0.0809372
0.07815
0.0752949
0.0723587
0.06932
0.0661521
0.0628444
0.0594096
0.0558668
0.0522335
0.0485282
0.0447881
0.0410586
0.0373798
0.0337611
0.030198
0.0266715
0.0231499
0.0195869
0.0159603
0.0122325
0.00834218
0.00414364
-0.000784979
-0.0045849
-0.00637942
-0.00698058
-0.00840161
-0.0102482
-0.0123588
-0.0146489
-0.0170674
-0.0195803
-0.0221645
-0.0248041
-0.027488
-0.0302087
-0.0329603
-0.0357387
-0.0385403
-0.0413623
-0.0442023
-0.0470582
-0.049928
-0.0528102
-0.0557034
-0.0586064
-0.0615182
-0.0644378
-0.0673646
-0.0702979
-0.0732372
-0.0761819
-0.0791315
-0.0820857
-0.0850439
-0.0880059
-0.0909711
-0.0939392
-0.0969097
-0.0998822
-0.102856
-0.105832
-0.108807
0.218978
0.215752
0.212534
0.209335
0.206172
0.203061
0.200015
0.197042
0.19415
0.191332
0.188579
0.185887
0.183255
0.180678
0.178153
0.175679
0.173259
0.170895
0.168592
0.16635
0.16417
0.162055
0.160004
0.158016
0.156091
0.15423
0.152427
0.150676
0.148971
0.147306
0.145677
0.144073
0.142488
0.140922
0.139358
0.13777
0.136098
0.134322
0.132419
0.130259
0.127777
0.125121
0.122362
0.119506
0.116549
0.113488
0.110353
0.107192
0.104069
0.101019
0.098049
0.0951549
0.0923255
0.0895381
0.086766
0.0839835
0.0811653
0.0782924
0.0753566
0.0723478
0.0692403
0.0660048
0.0626294
0.0591251
0.0555086
0.0517981
0.0480037
0.0441584
0.0403249
0.0365567
0.0328711
0.0292615
0.0257103
0.0221837
0.0186313
0.0150195
0.0113176
0.0075054
0.00355452
-0.000554252
-0.00453875
-0.00585557
-0.00716038
-0.00876866
-0.0106553
-0.0127555
-0.0150155
-0.017396
-0.0198689
-0.0224145
-0.0250186
-0.0276709
-0.0303639
-0.0330919
-0.0358502
-0.0386351
-0.0414431
-0.0442715
-0.0471176
-0.0499794
-0.0528549
-0.0557424
-0.0586406
-0.0615483
-0.0644643
-0.067388
-0.0703186
-0.0732554
-0.0761979
-0.0791455
-0.0820979
-0.0850545
-0.0880149
-0.0909787
-0.0939455
-0.0969147
-0.0998861
-0.102859
-0.105833
-0.108808
0.218972
0.215735
0.212509
0.209309
0.206153
0.203058
0.200034
0.19709
0.194224
0.191433
0.188715
0.186069
0.183495
0.18099
0.17855
0.176173
0.17386
0.17161
0.169424
0.1673
0.165238
0.163239
0.161301
0.159423
0.157604
0.155843
0.154134
0.15247
0.150844
0.14925
0.147683
0.146128
0.144576
0.143019
0.14143
0.139769
0.137996
0.136098
0.134059
0.13174
0.129059
0.126222
0.123315
0.120343
0.117297
0.114158
0.11094
0.107698
0.104501
0.101384
0.0983495
0.0953977
0.0925144
0.0896669
0.0868267
0.083967
0.0810705
0.0781212
0.0751152
0.0720448
0.0688828
0.0656018
0.0621897
0.0586523
0.0549953
0.0512371
0.0473878
0.0434658
0.0395301
0.0356473
0.0318723
0.0282209
0.0246709
0.0211743
0.017675
0.0141423
0.0105576
0.0069444
0.00336236
-6.38126e-05
-0.00309912
-0.00522332
-0.00707411
-0.00895926
-0.0109671
-0.0131059
-0.0153615
-0.0177164
-0.0201548
-0.0226636
-0.0252322
-0.0278523
-0.0305171
-0.0332209
-0.0359587
-0.0387265
-0.0415205
-0.0443372
-0.0471738
-0.0500276
-0.0528965
-0.0557786
-0.0586722
-0.0615759
-0.0644886
-0.0674094
-0.0703374
-0.0732719
-0.0762123
-0.0791582
-0.0821088
-0.0850639
-0.088023
-0.0909855
-0.093951
-0.0969192
-0.0998894
-0.102861
-0.105835
-0.108808
0.218952
0.215684
0.212439
0.209232
0.206082
0.203002
0.200003
0.197087
0.19425
0.19149
0.188812
0.186221
0.183716
0.181295
0.178955
0.176691
0.174501
0.172382
0.17033
0.168339
0.16641
0.164538
0.162722
0.160959
0.159248
0.157588
0.155975
0.154401
0.152858
0.151337
0.149832
0.148325
0.1468
0.145228
0.143568
0.141795
0.139882
0.137821
0.135612
0.133112
0.130235
0.127228
0.124169
0.121038
0.117824
0.114533
0.111185
0.107811
0.1045
0.101297
0.0981866
0.0951796
0.0922621
0.0893781
0.0865002
0.0835869
0.0806288
0.0776116
0.0745351
0.0714155
0.0682289
0.0649418
0.0615281
0.0579902
0.0543329
0.050571
0.0466939
0.0426911
0.0386375
0.0346373
0.0307726
0.0270798
0.0235367
0.0200783
0.0166402
0.0132048
0.00976851
0.00636717
0.00307296
2.22967e-05
-0.00267073
-0.00496951
-0.00708917
-0.00917111
-0.0112846
-0.0134611
-0.0157126
-0.0180411
-0.0204431
-0.0229131
-0.0254446
-0.0280311
-0.0306667
-0.0333457