/*--------------------------------*- C++ -*----------------------------------*\
  =========                 |
  \\      /  F ield         | OpenFOAM: The Open Source CFD Toolbox
   \\    /   O peration     | Website:  https://openfoam.org
    \\  /    A nd           | Version:  6
     \\/     M anipulation  |
\*---------------------------------------------------------------------------*/
FoamFile
{
    version     2.0;
    format      ascii;
    class       volVectorField;
    location    "850";
    object      U;
}
// * * * * * * * * * * * * * * * * * * * * * * * * * * * * * * * * * * * * * //

dimensions      [0 1 -1 0 0 0 0];

internalField   nonuniform List<vector> 
4800
(
(0.000156925 0 -0.0001162)
(-0.00022717 0 5.33335e-05)
(-0.000228637 0 -0.000130067)
(-0.000323363 0 0.000138939)
(-0.000424128 0 -3.63295e-05)
(-0.000522778 0 0.000102553)
(-0.000623349 0 -4.78593e-05)
(-0.000689957 0 1.27092e-05)
(-0.000741204 0 -4.19904e-05)
(-0.00077721 0 -2.68485e-05)
(-0.000801794 0 -4.35634e-05)
(-0.000819282 0 -3.55655e-05)
(-0.000833645 0 -2.93146e-05)
(-0.000846369 0 -2.3267e-05)
(-0.000854326 0 -2.10143e-05)
(-0.000856016 0 -1.71574e-05)
(-0.000856534 0 -2.50161e-05)
(-0.000870446 0 -4.05126e-05)
(-0.000881397 0 -1.52558e-05)
(-0.000888873 0 1.59032e-05)
(-0.000916278 0 -1.04774e-05)
(-0.000955651 0 -1.48923e-05)
(-0.000986191 0 -5.24332e-07)
(-0.00101147 0 8.41371e-06)
(-0.0010391 0 -4.13123e-06)
(-0.00106183 0 -1.85352e-05)
(-0.00107448 0 -1.11155e-05)
(-0.0010786 0 -2.34486e-05)
(-0.0010788 0 -2.42164e-05)
(-0.00106646 0 -1.98091e-05)
(-0.00105228 0 -1.75089e-05)
(-0.00104793 0 -1.48789e-05)
(-0.00104796 0 -1.33478e-05)
(-0.00103454 0 -1.54206e-05)
(-0.0010129 0 -2.17014e-05)
(-0.00100557 0 -2.24173e-05)
(-0.00100607 0 -9.86335e-06)
(-0.000996381 0 -2.03289e-05)
(-0.00097061 0 -5.09679e-05)
(-0.000954594 0 -3.82679e-05)
(-0.00093365 0 -3.46073e-05)
(-0.000885802 0 -4.6376e-05)
(-0.000834403 0 -4.68288e-05)
(-0.000792812 0 -4.46696e-05)
(-0.00075494 0 -4.14185e-05)
(-0.000720085 0 -3.56915e-05)
(-0.000691933 0 -3.30651e-05)
(-0.000669963 0 -2.66905e-05)
(-0.000653475 0 -2.51892e-05)
(-0.000645834 0 -2.71978e-05)
(-0.000643572 0 -3.8119e-05)
(-0.000621815 0 -6.53929e-05)
(-0.000579332 0 -5.35958e-05)
(-0.000551545 0 -3.53312e-05)
(-0.000527321 0 -4.04355e-05)
(-0.000485001 0 -4.49054e-05)
(-0.000441994 0 -3.23776e-05)
(-0.000428348 0 -1.96222e-05)
(-0.000430113 0 1.65471e-05)
(-0.000386177 0 -2.44991e-05)
(-0.000320524 0 -5.44231e-05)
(-0.000275496 0 -5.81577e-05)
(-0.000239266 0 -7.31211e-05)
(-0.00018797 0 -7.66272e-05)
(-0.000112848 0 -8.03603e-05)
(-4.8463e-05 0 -5.30831e-05)
(-7.00349e-06 0 -4.5225e-05)
(4.32379e-05 0 -4.22504e-05)
(6.06724e-05 0 -5.18443e-05)
(4.18773e-05 0 -3.14365e-05)
(-1.43755e-05 0 -7.20484e-05)
(-0.000126694 0 -5.24542e-05)
(-0.000163948 0 -5.00608e-05)
(-0.000222481 0 -6.04739e-05)
(-0.000263411 0 -6.61473e-05)
(-0.000304307 0 -0.000138334)
(-0.000412644 0 -9.38871e-05)
(-0.000451227 0 -0.000196646)
(-0.000558854 0 -0.000206441)
(3.68705e-06 0 -0.000229521)
(-1.00722e-12 0 2.89866e-14)
(-2.76939e-12 0 -2.54327e-14)
(-1.82975e-12 0 -4.4369e-14)
(-1.73303e-12 0 -5.24644e-14)
(-1.62187e-12 0 -5.87527e-14)
(-1.49825e-12 0 -6.48984e-14)
(-1.36263e-12 0 -7.07199e-14)
(-1.21615e-12 0 -7.57326e-14)
(-1.06082e-12 0 -7.95348e-14)
(-8.99323e-13 0 -8.18788e-14)
(-7.34683e-13 0 -8.26591e-14)
(-5.70015e-13 0 -8.18832e-14)
(-4.08338e-13 0 -7.96432e-14)
(-2.52422e-13 0 -7.60901e-14)
(-1.04703e-13 0 -7.14131e-14)
(3.27847e-14 0 -6.58212e-14)
(1.58428e-13 0 -5.95299e-14)
(2.7104e-13 0 -5.27492e-14)
(3.69838e-13 0 -4.56753e-14)
(4.5441e-13 0 -3.84847e-14)
(5.24672e-13 0 -3.13302e-14)
(5.80822e-13 0 -2.43398e-14)
(6.23288e-13 0 -1.76157e-14)
(6.52682e-13 0 -1.12369e-14)
(6.69751e-13 0 -5.26027e-15)
(6.75339e-13 0 2.75989e-16)
(6.70347e-13 0 5.35036e-15)
(6.55702e-13 0 9.95474e-15)
(6.32336e-13 0 1.40922e-14)
(6.01165e-13 0 1.77743e-14)
(5.63073e-13 0 2.10189e-14)
(5.18908e-13 0 2.38475e-14)
(4.69476e-13 0 2.62842e-14)
(4.15534e-13 0 2.83535e-14)
(3.57794e-13 0 3.00791e-14)
(2.96923e-13 0 3.14832e-14)
(2.33549e-13 0 3.25862e-14)
(1.68255e-13 0 3.34078e-14)
(1.01581e-13 0 3.39731e-14)
(3.39815e-14 0 3.43383e-14)
(-7.80101e-05 0 0.00017901)
(-0.000192242 0 0.000166491)
(-0.000258447 0 0.000126213)
(-0.00028818 0 0.000189919)
(-0.000410755 0 8.62408e-05)
(-0.000479669 0 0.000179456)
(-0.000566222 0 0.000114094)
(-0.000615583 0 0.000131289)
(-0.000654316 0 8.68974e-05)
(-0.000675769 0 7.87831e-05)
(-0.000687161 0 6.87144e-05)
(-0.000696901 0 6.56572e-05)
(-0.000714978 0 6.17275e-05)
(-0.000738936 0 6.39935e-05)
(-0.000759582 0 6.33443e-05)
(-0.000778326 0 6.6851e-05)
(-0.000806098 0 6.27339e-05)
(-0.000832715 0 6.57477e-05)
(-0.000849069 0 6.52734e-05)
(-0.000866348 0 3.35702e-05)
(-0.000901125 0 -5.41939e-06)
(-0.000935283 0 3.8159e-05)
(-0.000960688 0 6.51726e-05)
(-0.000998857 0 3.47585e-05)
(-0.00103854 0 4.29698e-05)
(-0.00106474 0 4.63572e-05)
(-0.00107737 0 2.81923e-05)
(-0.0010784 0 2.29628e-05)
(-0.00106681 0 1.01472e-05)
(-0.0010513 0 7.14304e-06)
(-0.00104037 0 4.83417e-06)
(-0.00103717 0 -5.71279e-07)
(-0.00103628 0 -2.47101e-05)
(-0.00101895 0 -2.3711e-06)
(-0.000998245 0 9.16917e-06)
(-0.000988058 0 -8.64147e-06)
(-0.000980914 0 -3.10002e-05)
(-0.000967607 0 -2.28029e-05)
(-0.000941069 0 -1.73142e-05)
(-0.000915104 0 -3.70888e-05)
(-0.000887596 0 -2.93399e-05)
(-0.000831137 0 -6.17745e-05)
(-0.000773963 0 -5.68818e-05)
(-0.000733999 0 -3.45925e-05)
(-0.000693191 0 -3.71257e-05)
(-0.000658415 0 -2.847e-05)
(-0.000633502 0 -1.65634e-05)
(-0.000613291 0 -5.24826e-06)
(-0.000597865 0 3.48559e-06)
(-0.000586628 0 -1.78264e-06)
(-0.000576188 0 -1.60869e-05)
(-0.000550491 0 2.07844e-06)
(-0.000512242 0 6.15526e-06)
(-0.000495467 0 -1.15761e-05)
(-0.000497959 0 -1.56145e-05)
(-0.000494159 0 -4.68182e-05)
(-0.000461459 0 -8.06712e-05)
(-0.000455272 0 -7.8563e-05)
(-0.000463772 0 -2.34391e-05)
(-0.000426616 0 -6.56267e-05)
(-0.000361203 0 -0.000102486)
(-0.000306768 0 -2.53135e-05)
(-0.000226143 0 -5.03172e-05)
(-0.000145197 0 -3.94207e-05)
(-6.23634e-05 0 -1.3955e-05)
(-1.47208e-06 0 -1.25823e-05)
(7.31631e-05 0 6.03638e-06)
(0.000126586 0 -9.50033e-05)
(0.000194444 0 6.41309e-05)
(0.00015371 0 0.000153766)
(0.000186354 0 0.000150782)
(0.000191816 0 0.00013568)
(0.000146759 0 0.000103193)
(5.84334e-05 0 0.000114949)
(-2.03381e-05 0 0.000137939)
(-0.000133607 0 0.000130599)
(-0.000314655 0 7.53337e-05)
(-0.000187823 0 -0.000262535)
(-0.000608612 0 -0.000251215)
(4.10197e-06 0 -0.000283991)
(-1.18429e-12 0 -1.07196e-13)
(-2.86405e-12 0 -1.25153e-13)
(-1.85679e-12 0 -1.44042e-13)
(-1.74735e-12 0 -1.59176e-13)
(-1.6343e-12 0 -1.76386e-13)
(-1.51022e-12 0 -1.94997e-13)
(-1.37347e-12 0 -2.12939e-13)
(-1.22496e-12 0 -2.28371e-13)
(-1.06696e-12 0 -2.40016e-13)
(-9.02447e-13 0 -2.47143e-13)
(-7.34687e-13 0 -2.49463e-13)
(-5.66999e-13 0 -2.47029e-13)
(-4.02544e-13 0 -2.40142e-13)
(-2.44192e-13 0 -2.29278e-13)
(-9.44339e-14 0 -2.15021e-13)
(4.46679e-14 0 -1.98013e-13)
(1.715e-13 0 -1.78914e-13)
(2.84895e-13 0 -1.58361e-13)
(3.84103e-13 0 -1.3695e-13)
(4.68755e-13 0 -1.15213e-13)
(5.38817e-13 0 -9.36097e-14)
(5.94537e-13 0 -7.25234e-14)
(6.36391e-13 0 -5.22606e-14)
(6.65037e-13 0 -3.30564e-14)
(6.81264e-13 0 -1.50802e-14)
(6.8595e-13 0 1.55611e-15)
(6.80025e-13 0 1.67903e-14)
(6.64444e-13 0 3.06015e-14)
(6.40156e-13 0 4.3002e-14)
(6.08091e-13 0 5.40299e-14)
(5.69146e-13 0 6.37411e-14)
(5.24174e-13 0 7.22035e-14)
(4.73982e-13 0 7.94905e-14)
(4.19328e-13 0 8.5677e-14)
(3.60923e-13 0 9.08346e-14)
(2.99431e-13 0 9.50297e-14)
(2.35474e-13 0 9.83213e-14)
(1.69642e-13 0 1.00762e-13)
(1.02512e-13 0 1.02401e-13)
(3.43467e-14 0 1.03301e-13)
(-6.85667e-05 0 0.000228884)
(-0.000175009 0 0.000218307)
(-0.000249874 0 0.000186629)
(-0.000280359 0 0.000218087)
(-0.000372961 0 0.000175077)
(-0.000417853 0 0.000232211)
(-0.000514975 0 9.44337e-05)
(-0.000549874 0 9.89493e-05)
(-0.000586115 0 2.87349e-05)
(-0.000601227 0 3.05597e-05)
(-0.000620983 0 1.04648e-05)
(-0.00064383 0 -3.10865e-06)
(-0.000662496 0 6.55773e-06)
(-0.000676392 0 -1.31856e-05)
(-0.000688924 0 -7.10663e-06)
(-0.000705065 0 -2.63504e-05)
(-0.000730566 0 -3.6375e-06)
(-0.000765152 0 6.27121e-06)
(-0.000802083 0 3.074e-05)
(-0.000836082 0 2.36981e-05)
(-0.000862799 0 4.39776e-05)
(-0.000889037 0 0.00010241)
(-0.000936517 0 4.28567e-05)
(-0.000979664 0 4.43371e-05)
(-0.0010122 0 7.45042e-05)
(-0.00103781 0 3.3411e-05)
(-0.00104577 0 1.93724e-05)
(-0.00103477 0 -3.75085e-05)
(-0.00102374 0 -4.7441e-05)
(-0.00101816 0 -4.63366e-05)
(-0.00100292 0 -5.5267e-05)
(-0.000987159 0 -4.55589e-05)
(-0.000976864 0 -4.57819e-05)
(-0.000967836 0 -5.81096e-05)
(-0.000961325 0 -4.95123e-05)
(-0.00095854 0 -2.06554e-05)
(-0.000945993 0 -5.7144e-05)
(-0.000924682 0 -4.66577e-05)
(-0.000886575 0 -9.60729e-05)
(-0.000850499 0 -0.000116622)
(-0.000822111 0 -7.52001e-05)
(-0.000750382 0 -0.000123159)
(-0.000668938 0 -0.000188885)
(-0.000645555 0 -6.95274e-05)
(-0.000585725 0 -0.000105501)
(-0.000545221 0 -8.83728e-05)
(-0.000518986 0 -5.31377e-05)
(-0.000486691 0 -5.83426e-05)
(-0.000469209 0 -4.60392e-05)
(-0.000457592 0 -5.35903e-05)
(-0.000453087 0 -6.49842e-05)
(-0.000453204 0 -7.16929e-05)
(-0.000443395 0 -0.000111709)
(-0.000434636 0 -0.000120902)
(-0.000452721 0 -4.65258e-05)
(-0.000467397 0 -1.90051e-05)
(-0.000476489 0 -4.27228e-05)
(-0.000477909 0 -4.85938e-05)
(-0.000476936 0 1.31157e-05)
(-0.000431823 0 -0.000100005)
(-0.00035145 0 -0.000178977)
(-0.000307877 0 -0.000124366)
(-0.00020185 0 -0.000204932)
(-0.000106448 0 -0.000229076)
(1.93675e-05 0 -0.000218706)
(-3.45628e-05 0 -0.000178262)
(0.000171622 0 -4.64616e-05)
(0.000124376 0 -0.000145035)
(0.000214891 0 -7.56261e-05)
(0.000264006 0 2.70259e-05)
(0.0003301 0 -2.38878e-05)
(0.000294206 0 0.000162343)
(0.000270571 0 0.000171455)
(0.000239267 0 0.000163251)
(0.000187846 0 0.000172665)
(0.00012222 0 0.000196247)
(0.000100213 0 0.000123282)
(0.000515491 0 0.000163687)
(-0.000507117 0 -0.000203514)
(4.65122e-06 0 -0.000305684)
(-1.19938e-12 0 -3.61803e-13)
(-2.86152e-12 0 -2.57914e-13)
(-1.86362e-12 0 -2.47517e-13)
(-1.76525e-12 0 -2.63732e-13)
(-1.65769e-12 0 -2.92615e-13)
(-1.53481e-12 0 -3.25763e-13)
(-1.39601e-12 0 -3.5766e-13)
(-1.24322e-12 0 -3.84779e-13)
(-1.07959e-12 0 -4.04989e-13)
(-9.0877e-13 0 -4.17174e-13)
(-7.34569e-13 0 -4.20971e-13)
(-5.60695e-13 0 -4.16564e-13)
(-3.90586e-13 0 -4.04543e-13)
(-2.273e-13 0 -3.85768e-13)
(-7.34384e-14 0 -3.61275e-13)
(6.88913e-14 0 -3.32183e-13)
(1.9808e-13 0 -2.99626e-13)
(3.13004e-13 0 -2.64697e-13)
(4.12986e-13 0 -2.28406e-13)
(4.9775e-13 0 -1.91653e-13)
(5.67362e-13 0 -1.5521e-13)
(6.22171e-13 0 -1.19714e-13)
(6.62755e-13 0 -8.56745e-14)
(6.89862e-13 0 -5.34747e-14)
(7.04364e-13 0 -2.33886e-14)
(7.07209e-13 0 4.40755e-15)
(6.99392e-13 0 2.98203e-14)
(6.81914e-13 0 5.28251e-14)
(6.55765e-13 0 7.34522e-14)
(6.21904e-13 0 9.17729e-14)
(5.81246e-13 0 1.07888e-13)
(5.34658e-13 0 1.21916e-13)
(4.8295e-13 0 1.33984e-13)
(4.26878e-13 0 1.44221e-13)
(3.67146e-13 0 1.52748e-13)
(3.0441e-13 0 1.59677e-13)
(2.39281e-13 0 1.65105e-13)
(1.72335e-13 0 1.69113e-13)
(1.04121e-13 0 1.7176e-13)
(3.48819e-14 0 1.73074e-13)
(-7.78235e-05 0 0.000310713)
(-0.000131742 0 0.00029818)
(-0.000227614 0 0.000267996)
(-0.000243828 0 0.000288118)
(-0.000295496 0 0.00028004)
(-0.000326554 0 0.000299283)
(-0.000423805 0 0.000209862)
(-0.000457571 0 0.000180483)
(-0.000495419 0 0.000152644)
(-0.000553391 0 8.01494e-05)
(-0.000589513 0 6.8285e-05)
(-0.000612578 0 7.55748e-05)
(-0.000623809 0 7.41258e-05)
(-0.000629557 0 8.52123e-05)
(-0.000639039 0 6.24196e-05)
(-0.000654264 0 8.45692e-05)
(-0.000676053 0 5.87045e-05)
(-0.000691384 0 7.52791e-05)
(-0.000713307 0 8.80324e-05)
(-0.000738263 0 0.000142927)
(-0.000778082 0 0.00013068)
(-0.000826362 0 8.20269e-05)
(-0.000856282 0 0.000107422)
(-0.000875763 0 0.000115536)
(-0.000899403 0 6.75746e-05)
(-0.000915317 0 5.61157e-05)
(-0.000913676 0 2.80057e-05)
(-0.000877885 0 -2.99434e-05)
(-0.000864197 0 -2.9335e-05)
(-0.000859411 0 -2.62035e-05)
(-0.000854613 0 -1.24309e-05)
(-0.000833762 0 -2.59678e-05)
(-0.00081704 0 -2.95022e-05)
(-0.000813999 0 -2.08759e-05)
(-0.00081701 0 -1.92366e-05)
(-0.000817949 0 -2.74804e-05)
(-0.000800691 0 -6.04298e-05)
(-0.000776832 0 -5.89851e-05)
(-0.00075285 0 -6.89535e-05)
(-0.000718481 0 -0.000142167)
(-0.000682239 0 -0.000128484)
(-0.000603058 0 -0.000179373)
(-0.000500633 0 -0.000229437)
(-0.000463808 0 -0.000138057)
(-0.000402324 0 -0.000134751)
(-0.000344808 0 -0.00014165)
(-0.000340335 0 -6.22345e-05)
(-0.000298838 0 -7.24957e-05)
(-0.000288693 0 -4.60675e-05)
(-0.000285842 0 -1.89884e-05)
(-0.000285731 0 -2.08568e-05)
(-0.000304236 0 -2.35167e-05)
(-0.000353339 0 1.02701e-05)
(-0.000375886 0 2.55865e-05)
(-0.000382434 0 -3.03556e-06)
(-0.000394172 0 -4.90388e-05)
(-0.000409301 0 -4.45099e-05)
(-0.000409539 0 -5.28804e-05)
(-0.000398907 0 -8.39723e-05)
(-0.00039862 0 -0.00010629)
(-0.000303053 0 -0.000265263)
(-0.000284062 0 -0.000231731)
(-0.00017726 0 -0.00029901)
(-0.000140425 0 -0.000289817)
(-6.01946e-06 0 -0.00030355)
(1.49897e-06 0 -0.000234616)
(0.000145666 0 -0.000172625)
(0.000177343 0 -0.000151118)
(0.00022703 0 -0.000118849)
(0.000290303 0 -9.18404e-05)
(0.000346736 0 3.83422e-05)
(0.000366508 0 0.000131505)
(0.000440841 0 0.000110003)
(0.000389527 0 0.000258997)
(0.000359469 0 0.000259433)
(0.000354228 0 0.000183866)
(0.000229659 0 0.000238499)
(0.000302627 0 -0.000100481)
(-0.000194286 0 -0.000108458)
(4.44208e-06 0 -0.000211951)
(-1.09498e-12 0 -4.69099e-13)
(-2.81573e-12 0 -3.36662e-13)
(-1.86229e-12 0 -3.24305e-13)
(-1.79233e-12 0 -3.55516e-13)
(-1.69633e-12 0 -4.0461e-13)
(-1.57527e-12 0 -4.57814e-13)
(-1.43248e-12 0 -5.07197e-13)
(-1.27229e-12 0 -5.48131e-13)
(-1.09936e-12 0 -5.78017e-13)
(-9.18429e-13 0 -5.95625e-13)
(-7.34077e-13 0 -6.00709e-13)
(-5.50572e-13 0 -5.93743e-13)
(-3.71748e-13 0 -5.75726e-13)
(-2.00925e-13 0 -5.4801e-13)
(-4.08489e-14 0 -5.12166e-13)
(1.06317e-13 0 -4.69859e-13)
(2.38987e-13 0 -4.22756e-13)
(3.56115e-13 0 -3.72444e-13)
(4.57147e-13 0 -3.20379e-13)
(5.41951e-13 0 -2.67842e-13)
(6.10756e-13 0 -2.15926e-13)
(6.64072e-13 0 -1.65523e-13)
(7.02631e-13 0 -1.17334e-13)
(7.27323e-13 0 -7.18796e-14)
(7.39146e-13 0 -2.95222e-14)
(7.39158e-13 0 9.51451e-15)
(7.28443e-13 0 4.51229e-14)
(7.08076e-13 0 7.72895e-14)
(6.79104e-13 0 1.06075e-13)
(6.42527e-13 0 1.31596e-13)
(5.99289e-13 0 1.54006e-13)
(5.5027e-13 0 1.73482e-13)
(4.96287e-13 0 1.90211e-13)
(4.38092e-13 0 2.04381e-13)
(3.76379e-13 0 2.16167e-13)
(3.11787e-13 0 2.25731e-13)
(2.44909e-13 0 2.33211e-13)
(1.76298e-13 0 2.38722e-13)
(1.06473e-13 0 2.42348e-13)
(3.56603e-14 0 2.44141e-13)
(-6.67213e-05 0 0.000397416)
(-0.000111127 0 0.000372019)
(-0.000195557 0 0.000342418)
(-0.000226574 0 0.000335686)
(-0.000224425 0 0.000334957)
(-0.000289537 0 0.000292339)
(-0.000282788 0 0.000311342)
(-0.000401814 0 0.000178161)
(-0.000438465 0 0.000134337)
(-0.000470754 0 0.000140942)
(-0.000510623 0 9.92853e-05)
(-0.000535691 0 0.000107167)
(-0.000567483 0 3.59641e-05)
(-0.000581161 0 7.15345e-05)
(-0.000592915 0 5.90482e-05)
(-0.00060029 0 8.80528e-05)
(-0.000607792 0 9.59961e-05)
(-0.000611234 0 0.000130743)
(-0.000623558 0 0.000138465)
(-0.000652446 0 0.000130288)
(-0.000686405 0 0.000131629)
(-0.000706106 0 0.000166819)
(-0.000718137 0 0.000166731)
(-0.000740502 0 0.000113761)
(-0.000756794 0 8.46212e-05)
(-0.000760121 0 7.63255e-05)
(-0.000762327 0 1.92143e-06)
(-0.000740232 0 -0.000102024)
(-0.000725137 0 -4.48187e-05)
(-0.000714845 0 -5.70771e-05)
(-0.000716825 0 -6.20107e-05)
(-0.000721925 0 -5.95976e-05)
(-0.000710403 0 -5.7881e-05)
(-0.000706906 0 -5.5763e-05)
(-0.000718917 0 -4.00242e-05)
(-0.000728148 0 -3.07735e-05)
(-0.000738603 0 -3.84936e-05)
(-0.000742014 0 -5.77712e-05)
(-0.00070405 0 -0.000143114)
(-0.000664441 0 -0.000178491)
(-0.000643466 0 -0.000132571)
(-0.000530823 0 -0.00030905)
(-0.000404783 0 -0.000318156)
(-0.000368196 0 -0.000207925)
(-0.000275647 0 -0.000191985)
(-0.00016521 0 -0.000201728)
(-0.000160063 0 -0.000107404)
(-0.000109252 0 -9.19155e-05)
(-0.000104922 0 -6.32585e-05)
(-0.000110805 0 -4.68753e-05)
(-0.000134344 0 -3.17795e-05)
(-0.0001593 0 -1.62454e-05)
(-0.000185928 0 -3.20398e-05)
(-0.000206968 0 -4.80416e-05)
(-0.000244409 0 -2.01972e-05)
(-0.000288235 0 7.39138e-06)
(-0.000305515 0 -2.50748e-05)
(-0.000311393 0 -6.84037e-05)
(-0.000313077 0 -0.000110113)
(-0.000333294 0 -0.000132466)
(-0.00028716 0 -0.00023971)
(-0.000253572 0 -0.000287806)
(-0.000182109 0 -0.00034768)
(-0.000136017 0 -0.000371647)
(-8.08802e-05 0 -0.000380051)
(2.85073e-06 0 -0.000305336)
(7.14517e-05 0 -0.000283492)
(0.0001408 0 -0.000224865)
(0.00018404 0 -0.000226951)
(0.000289266 0 -8.33401e-05)
(0.00031857 0 -2.11324e-05)
(0.000363638 0 3.25441e-05)
(0.000412967 0 0.000133348)
(0.000458157 0 0.000176803)
(0.000475577 0 0.000225859)
(0.000476157 0 0.000208103)
(0.000409291 0 0.000238754)
(0.000425231 0 7.99541e-05)
(-6.9482e-06 0 2.47174e-05)
(4.36731e-06 0 -0.000100837)
(-1.01807e-12 0 -3.67162e-13)
(-2.76665e-12 0 -3.21799e-13)
(-1.88217e-12 0 -3.57459e-13)
(-1.84544e-12 0 -4.29326e-13)
(-1.75999e-12 0 -5.12532e-13)
(-1.63739e-12 0 -5.93726e-13)
(-1.48632e-12 0 -6.65223e-13)
(-1.31404e-12 0 -7.22567e-13)
(-1.12708e-12 0 -7.63354e-13)
(-9.31462e-13 0 -7.86628e-13)
(-7.32688e-13 0 -7.92522e-13)
(-5.35712e-13 0 -7.81999e-13)
(-3.44853e-13 0 -7.56632e-13)
(-1.6374e-13 0 -7.18405e-13)
(4.71254e-15 0 -6.69542e-13)
(1.58301e-13 0 -6.12355e-13)
(2.95495e-13 0 -5.49117e-13)
(4.15382e-13 0 -4.8197e-13)
(5.17589e-13 0 -4.12847e-13)
(6.02203e-13 0 -3.43437e-13)
(6.69681e-13 0 -2.75157e-13)
(7.20763e-13 0 -2.09148e-13)
(7.56399e-13 0 -1.46292e-13)
(7.77674e-13 0 -8.72266e-14)
(7.85758e-13 0 -3.23809e-14)
(7.81855e-13 0 1.79979e-14)
(7.67167e-13 0 6.38109e-14)
(7.42866e-13 0 1.05078e-13)
(7.10071e-13 0 1.41909e-13)
(6.69834e-13 0 1.74482e-13)
(6.23132e-13 0 2.03017e-13)
(5.70863e-13 0 2.27761e-13)
(5.13848e-13 0 2.48972e-13)
(4.52833e-13 0 2.66901e-13)
(3.88496e-13 0 2.81787e-13)
(3.21454e-13 0 2.93846e-13)
(2.52272e-13 0 3.03262e-13)
(1.81472e-13 0 3.10188e-13)
(1.0954e-13 0 3.14738e-13)
(3.66752e-14 0 3.16987e-13)
(-4.9854e-05 0 0.000475916)
(-8.08878e-05 0 0.000439159)
(-0.000137944 0 0.000406647)
(-0.000181656 0 0.000380088)
(-0.000221293 0 0.000340274)
(-0.000270474 0 0.000300713)
(-0.000243396 0 0.000321174)
(-0.000276181 0 0.000289061)
(-0.000373339 0 0.000177469)
(-0.000411984 0 0.000146606)
(-0.000448366 0 9.64094e-05)
(-0.000466101 0 9.16959e-05)
(-0.000482988 0 7.85884e-05)
(-0.000494626 0 8.57115e-05)
(-0.000507054 0 6.55506e-05)
(-0.000522115 0 8.41777e-05)
(-0.000535619 0 7.52051e-05)
(-0.000542616 0 7.57168e-05)
(-0.000544021 0 0.000121597)
(-0.000550702 0 0.000172838)
(-0.000563348 0 0.000177357)
(-0.00057487 0 0.000171206)
(-0.000595842 0 0.000124712)
(-0.000612157 0 0.000108732)
(-0.000615526 0 0.000109208)
(-0.000610022 0 4.04976e-05)
(-0.000602476 0 1.10231e-05)
(-0.000609625 0 -2.93999e-05)
(-0.000624577 0 -4.60305e-05)
(-0.000622568 0 -5.69336e-05)
(-0.000625674 0 -4.3071e-05)
(-0.000634093 0 -2.17635e-05)
(-0.000631686 0 -6.16332e-05)
(-0.00064062 0 -2.56111e-05)
(-0.000664576 0 4.70889e-05)
(-0.000686666 0 -5.41399e-05)
(-0.000712235 0 -4.17889e-05)
(-0.00072298 0 -5.43048e-05)
(-0.000709425 0 -0.000132328)
(-0.000628153 0 -0.000221865)
(-0.000586451 0 -0.000227979)
(-0.000522328 0 -0.000313122)
(-0.000277474 0 -0.000477459)
(-0.000364454 0 -0.000222783)
(-0.000200217 0 -0.000265713)
(-6.07404e-05 0 -0.000248699)
(-7.95312e-05 0 -0.000114225)
(7.36281e-06 0 -9.29224e-05)
(4.938e-05 0 -5.35921e-05)
(4.74601e-05 0 -1.72741e-06)
(1.19239e-05 0 3.4885e-05)
(-1.17718e-05 0 3.91139e-05)
(-4.97673e-05 0 4.82948e-05)
(-9.57416e-05 0 4.87211e-05)
(-0.000120039 0 2.94154e-05)
(-0.000153592 0 1.41478e-05)
(-0.000187197 0 9.39507e-06)
(-0.000221358 0 1.62676e-05)
(-0.000210332 0 -0.000112109)
(-0.000227319 0 -0.000186246)
(-0.000128572 0 -0.000324224)
(-0.00020996 0 -0.000314767)
(-0.000132145 0 -0.00039494)
(-0.000105404 0 -0.000424993)
(-1.36248e-05 0 -0.000434074)
(-1.92837e-05 0 -0.000366008)
(0.000100312 0 -0.000332421)
(3.71639e-05 0 -0.00032386)
(0.000182486 0 -0.000253665)
(0.000249903 0 -0.000136329)
(0.000297476 0 -6.99037e-05)
(0.000342293 0 9.13468e-06)
(0.000385218 0 9.78252e-05)
(0.000426933 0 0.000158964)
(0.000454114 0 0.000236748)
(0.000457334 0 0.000236894)
(0.000414237 0 0.000257689)
(0.000416791 0 0.000167882)
(-0.00010522 0 8.84623e-05)
(4.23381e-06 0 9.69585e-05)
(-9.93906e-13 0 -8.78158e-14)
(-2.81988e-12 0 -2.23314e-13)
(-1.96951e-12 0 -3.54343e-13)
(-1.94728e-12 0 -4.91711e-13)
(-1.86073e-12 0 -6.22506e-13)
(-1.72796e-12 0 -7.39382e-13)
(-1.56133e-12 0 -8.3745e-13)
(-1.37042e-12 0 -9.13611e-13)
(-1.16342e-12 0 -9.66252e-13)
(-9.47597e-13 0 -9.95055e-13)
(-7.29449e-13 0 -1.0008e-12)
(-5.14682e-13 0 -9.85148e-13)
(-3.08154e-13 0 -9.50447e-13)
(-1.13835e-13 0 -8.99485e-13)
(6.5201e-14 0 -8.35292e-13)
(2.26741e-13 0 -7.60951e-13)
(3.69372e-13 0 -6.7944e-13)
(4.92385e-13 0 -5.93521e-13)
(5.95679e-13 0 -5.05655e-13)
(6.79642e-13 0 -4.17954e-13)
(7.45045e-13 0 -3.32163e-13)
(7.92937e-13 0 -2.49664e-13)
(8.24552e-13 0 -1.71497e-13)
(8.41234e-13 0 -9.83908e-14)
(8.44371e-13 0 -3.08093e-14)
(8.3535e-13 0 3.10085e-14)
(8.15523e-13 0 8.70035e-14)
(7.86174e-13 0 1.37257e-13)
(7.48507e-13 0 1.81956e-13)
(7.03634e-13 0 2.21361e-13)
(6.52568e-13 0 2.55778e-13)
(5.96225e-13 0 2.85539e-13)
(5.35427e-13 0 3.10983e-13)
(4.70908e-13 0 3.32438e-13)
(4.03324e-13 0 3.50212e-13)
(3.33262e-13 0 3.64581e-13)
(2.61252e-13 0 3.75781e-13)
(1.87774e-13 0 3.84006e-13)
(1.13272e-13 0 3.89402e-13)
(3.79099e-14 0 3.92069e-13)
(-6.98723e-05 0 0.000531079)
(-5.43351e-05 0 0.000492892)
(-9.37644e-05 0 0.000449037)
(-9.01468e-05 0 0.000424673)
(-0.000131556 0 0.000389957)
(-0.000168929 0 0.000363766)
(-0.000222204 0 0.000327416)
(-0.000216855 0 0.000309486)
(-0.000242585 0 0.000278286)
(-0.000278625 0 0.000247453)
(-0.000323693 0 0.000203814)
(-0.000357835 0 0.000160506)
(-0.000396796 0 0.000118462)
(-0.000419316 0 0.000106447)
(-0.000426579 0 9.27033e-05)
(-0.000425567 0 9.04071e-05)
(-0.000438405 0 9.77255e-05)
(-0.000445939 0 0.000112023)
(-0.000447251 0 0.000130565)
(-0.000450686 0 0.000160538)
(-0.000460454 0 0.000167782)
(-0.00045767 0 0.000186893)
(-0.000452756 0 0.000196907)
(-0.00045862 0 0.000177335)
(-0.000485353 0 9.79581e-05)
(-0.00049297 0 7.34389e-05)
(-0.000498906 0 9.3604e-06)
(-0.000504122 0 -0.000104499)
(-0.000531596 0 1.37549e-06)
(-0.000535476 0 -4.17995e-05)
(-0.000536046 0 -3.41975e-05)
(-0.000535949 0 -4.47282e-05)
(-0.000547256 0 -4.1957e-05)
(-0.000569716 0 -7.69627e-06)
(-0.000597501 0 -9.0259e-07)
(-0.000635033 0 8.46574e-06)
(-0.00065424 0 -1.9276e-05)
(-0.000653065 0 -7.11357e-05)
(-0.000650269 0 -0.000118782)
(-0.000486374 0 -0.00043958)
(-0.000487512 0 -0.000345158)
(-0.000477561 0 -0.000332799)
(-0.000124054 0 -0.0005623)
(-0.000297969 0 -0.000341444)
(-2.63284e-05 0 -0.000445565)
(7.05605e-05 0 -0.000342951)
(7.59277e-05 0 -0.000178933)
(0.000159124 0 -0.000150074)
(0.000225272 0 -8.92245e-05)
(0.000236951 0 1.17288e-05)
(0.000201944 0 7.11024e-05)
(0.000129258 0 0.000118792)
(8.79982e-05 0 8.70827e-05)
(3.37789e-05 0 6.81308e-05)
(4.99039e-06 0 5.3727e-05)
(-3.98849e-05 0 6.05146e-05)
(-7.55566e-05 0 2.13191e-05)
(-0.000101594 0 2.36786e-05)
(-0.000108373 0 -7.14872e-05)
(-0.000169658 0 -0.000130445)
(-8.56406e-05 0 -0.00028753)
(-0.000127647 0 -0.000353708)
(-5.81861e-05 0 -0.000434041)
(-2.95707e-05 0 -0.000468555)
(-2.06995e-05 0 -0.000462862)
(2.74844e-05 0 -0.000418246)
(7.7186e-05 0 -0.000390289)
(0.000106883 0 -0.00035852)
(0.000241216 0 -0.000247367)
(0.000145413 0 -0.000283486)
(0.000283172 0 -0.000104087)
(0.000309988 0 -4.57306e-05)
(0.000341446 0 5.65937e-05)
(0.000371015 0 0.000125625)
(0.000436507 0 0.000140231)
(0.000413789 0 0.000263246)
(0.000379324 0 0.00028122)
(0.000376984 0 0.000242904)
(-0.000137464 0 0.000209079)
(4.24459e-06 0 0.000229936)
(-1.07768e-12 0 3.37882e-13)
(-3.00032e-12 0 -8.77301e-14)
(-2.15025e-12 0 -3.44813e-13)
(-2.11349e-12 0 -5.60585e-13)
(-2.00766e-12 0 -7.46435e-13)
(-1.85234e-12 0 -9.03893e-13)
(-1.66055e-12 0 -1.03164e-12)
(-1.44284e-12 0 -1.12823e-12)
(-1.20853e-12 0 -1.19305e-12)
(-9.66007e-13 0 -1.2266e-12)
(-7.2278e-13 0 -1.23053e-12)
(-4.85361e-13 0 -1.20741e-12)
(-2.5919e-13 0 -1.1606e-12)
(-4.85859e-14 0 -1.09387e-12)
(1.43247e-13 0 -1.01127e-12)
(3.14154e-13 0 -9.16796e-13)
(4.62925e-13 0 -8.14251e-13)
(5.89167e-13 0 -7.071e-13)
(6.93156e-13 0 -5.98376e-13)
(7.75695e-13 0 -4.90637e-13)
(8.3797e-13 0 -3.85949e-13)
(8.81429e-13 0 -2.85914e-13)
(9.07672e-13 0 -1.91695e-13)
(9.18361e-13 0 -1.04075e-13)
(9.15157e-13 0 -2.3512e-14)
(8.99667e-13 0 4.98063e-14)
(8.73416e-13 0 1.15901e-13)
(8.37819e-13 0 1.74952e-13)
(7.94175e-13 0 2.27256e-13)
(7.43656e-13 0 2.73182e-13)
(6.87311e-13 0 3.13149e-13)
(6.26069e-13 0 3.47591e-13)
(5.60748e-13 0 3.76943e-13)
(4.92062e-13 0 4.01622e-13)
(4.20638e-13 0 4.22011e-13)
(3.47022e-13 0 4.38454e-13)
(2.71697e-13 0 4.51245e-13)
(1.95094e-13 0 4.60623e-13)
(1.17604e-13 0 4.66768e-13)
(3.93422e-14 0 4.69803e-13)
(-5.0621e-05 0 0.000567111)
(-6.62502e-05 0 0.000509726)
(-3.79855e-05 0 0.000469967)
(-5.79627e-05 0 0.000430217)
(-5.67219e-05 0 0.00041006)
(-4.06619e-05 0 0.000397827)
(-7.52189e-05 0 0.000374848)
(-8.47291e-05 0 0.000336048)
(-0.000136376 0 0.000294221)
(-0.000150482 0 0.000260333)
(-0.000181902 0 0.00021942)
(-0.000223121 0 0.000173848)
(-0.000281349 0 0.000121017)
(-0.000288045 0 0.000126492)
(-0.000283009 0 0.000134615)
(-0.000319185 0 8.57134e-05)
(-0.000328164 0 0.000137015)
(-0.000349022 0 0.00012875)
(-0.000352343 0 0.000128119)
(-0.000352897 0 0.000129259)
(-0.000354248 0 0.00016981)
(-0.000372183 0 0.000153627)
(-0.000392155 0 0.000114176)
(-0.000398913 0 9.79239e-05)
(-0.000402043 0 9.21056e-05)
(-0.000407638 0 7.1336e-05)
(-0.000430134 0 1.36937e-05)
(-0.000453759 0 -1.71363e-05)
(-0.000457353 0 -3.93833e-05)
(-0.000442183 0 -4.97547e-05)
(-0.000442164 0 -4.27956e-05)
(-0.000450167 0 -3.69954e-05)
(-0.000452657 0 -2.25363e-05)
(-0.000482181 0 3.20467e-05)
(-0.000506121 0 3.43881e-05)
(-0.000522091 0 1.04632e-05)
(-0.000534092 0 -2.7018e-05)
(-0.000535701 0 -0.000128225)
(-0.000527789 0 -0.00021391)
(-0.000488988 0 -0.000317947)
(-0.0003841 0 -0.000455075)
(-0.000243158 0 -0.000581428)
(-0.000148448 0 -0.000639463)
(1.24077e-05 0 -0.000584998)
(0.000121722 0 -0.000480221)
(7.68108e-05 0 -0.00040169)
(0.000259719 0 -0.000298698)
(0.000303796 0 -0.000189572)
(0.000229766 0 -0.000230378)
(0.000316219 0 4.06662e-05)
(0.000317966 0 0.000101862)
(0.000292667 0 0.000137769)
(0.0002344 0 0.000152145)
(0.000144921 0 0.000139678)
(6.31963e-05 0 0.000121058)
(3.56672e-05 0 9.09649e-05)
(-4.91258e-06 0 6.85024e-05)
(-2.54345e-05 0 2.22432e-05)
(-4.64526e-05 0 -3.20905e-05)
(-9.85856e-05 0 -0.000107281)
(-4.39959e-05 0 -0.000273099)
(-6.1399e-05 0 -0.000386099)
(1.86288e-05 0 -0.000475674)
(3.46836e-05 0 -0.000495914)
(3.65175e-05 0 -0.000484122)
(6.25129e-05 0 -0.000454839)
(0.000108356 0 -0.000414114)
(7.36763e-05 0 -0.000394557)
(0.000158804 0 -0.000337658)
(0.000115307 0 -0.000318029)
(0.000238894 0 -0.000205452)
(0.000295031 0 -4.18251e-05)
(0.000318037 0 2.89392e-05)
(0.00035993 0 6.05904e-05)
(0.000382711 0 0.000164924)
(0.000366992 0 0.00027778)
(0.000302104 0 0.000331512)
(0.000307058 0 0.000331911)
(-0.000130465 0 0.000327038)
(4.06078e-06 0 0.000368264)
(-1.22432e-12 0 5.46557e-13)
(-3.42075e-12 0 -3.55542e-14)
(-2.44205e-12 0 -3.765e-13)
(-2.3488e-12 0 -6.59286e-13)
(-2.20404e-12 0 -8.98782e-13)
(-2.01316e-12 0 -1.09815e-12)
(-1.78566e-12 0 -1.25703e-12)
(-1.53183e-12 0 -1.37467e-12)
(-1.2618e-12 0 -1.45115e-12)
(-9.85078e-13 0 -1.48784e-12)
(-7.10261e-13 0 -1.48735e-12)
(-4.4475e-13 0 -1.45346e-12)
(-1.94613e-13 0 -1.39072e-12)
(3.54886e-14 0 -1.30423e-12)
(2.42279e-13 0 -1.19922e-12)
(4.23763e-13 0 -1.08081e-12)
(5.79068e-13 0 -9.53764e-13)
(7.0826e-13 0 -8.22347e-13)
(8.12142e-13 0 -6.9021e-13)
(8.92069e-13 0 -5.60361e-13)
(9.49768e-13 0 -4.35175e-13)
(9.87191e-13 0 -3.1643e-13)
(1.00639e-12 0 -2.05366e-13)
(1.00942e-12 0 -1.02765e-13)
(9.98253e-13 0 -9.01928e-15)
(9.74763e-13 0 7.57862e-14)
(9.40669e-13 0 1.51803e-13)
(8.97528e-13 0 2.19356e-13)
(8.46737e-13 0 2.78889e-13)
(7.89528e-13 0 3.30918e-13)
(7.26977e-13 0 3.75995e-13)
(6.6002e-13 0 4.14684e-13)
(5.89457e-13 0 4.4753e-13)
(5.15975e-13 0 4.7505e-13)
(4.40156e-13 0 4.97715e-13)
(3.62496e-13 0 5.15943e-13)
(2.8342e-13 0 5.30089e-13)
(2.03296e-13 0 5.40439e-13)
(1.22453e-13 0 5.47212e-13)
(4.09448e-14 0 5.50555e-13)
(-1.56193e-06 0 0.000593184)
(-4.88824e-05 0 0.00051004)
(-3.06655e-05 0 0.000466555)
(-3.16519e-05 0 0.000429275)
(-3.06223e-05 0 0.000404483)
(-2.20353e-05 0 0.000392572)
(-1.39511e-05 0 0.00038113)
(-4.37398e-05 0 0.000343382)
(-3.08767e-05 0 0.000311501)
(-5.90855e-05 0 0.000265676)
(-6.19532e-05 0 0.000236997)
(-7.44528e-05 0 0.000206537)
(-9.46422e-05 0 0.000176072)
(-0.000112969 0 0.000155472)
(-0.000166913 0 0.000117447)
(-0.00020423 0 0.000102628)
(-0.000255158 0 0.000102086)
(-0.000276593 0 0.000130463)
(-0.000283136 0 0.000148078)
(-0.000280263 0 0.000150793)
(-0.000277714 0 0.000143912)
(-0.000265356 0 0.000164147)
(-0.000252936 0 0.000196503)
(-0.00026352 0 0.000190384)
(-0.000288384 0 0.000159528)
(-0.000326023 0 9.28343e-05)
(-0.000368267 0 1.20979e-05)
(-0.000390203 0 8.27624e-07)
(-0.00039354 0 -1.37976e-05)
(-0.000370136 0 -0.000106193)
(-0.000370686 0 -5.80371e-05)
(-0.00037194 0 1.06092e-05)
(-0.000359973 0 -2.32869e-05)
(-0.0003718 0 4.75363e-05)
(-0.000385018 0 4.38957e-05)
(-0.000388829 0 3.11545e-05)
(-0.00040836 0 -8.05813e-06)
(-0.00044015 0 -8.82164e-05)
(-0.000448421 0 -0.000209244)
(-0.000301656 0 -0.000476327)
(-0.000251226 0 -0.000598167)
(-0.000256297 0 -0.000662051)
(-0.000198056 0 -0.000682612)
(8.03226e-05 0 -0.000708601)
(0.000142814 0 -0.000602729)
(0.000196071 0 -0.000499724)
(0.000316845 0 -0.000371734)
(0.000449842 0 -0.000146201)
(0.000386492 0 -0.000103511)
(0.000310103 0 -1.74033e-06)