/*--------------------------------*- C++ -*----------------------------------*\
  =========                 |
  \\      /  F ield         | OpenFOAM: The Open Source CFD Toolbox
   \\    /   O peration     | Website:  https://openfoam.org
    \\  /    A nd           | Version:  6
     \\/     M anipulation  |
\*---------------------------------------------------------------------------*/
FoamFile
{
    version     2.0;
    format      ascii;
    class       surfaceScalarField;
    location    "8300";
    object      phi;
}
// * * * * * * * * * * * * * * * * * * * * * * * * * * * * * * * * * * * * * //

dimensions      [0 3 -1 0 0 0 0];

internalField   nonuniform List<scalar> 
9440
(
1.92339e-13
-1.92338e-13
3.86632e-13
-1.88894e-13
5.76685e-13
-1.85732e-13
7.60597e-13
-1.79769e-13
9.37237e-13
-1.72535e-13
1.10568e-12
-1.6437e-13
1.26506e-12
-1.55335e-13
1.41493e-12
-1.45855e-13
1.55493e-12
-1.36033e-13
1.68504e-12
-1.26194e-13
1.80521e-12
-1.16308e-13
1.91551e-12
-1.06493e-13
2.01626e-12
-9.70184e-14
2.10728e-12
-8.73615e-14
2.18859e-12
-7.7725e-14
2.25974e-12
-6.7656e-14
2.32048e-12
-5.73324e-14
2.37311e-12
-4.93274e-14
2.41662e-12
-4.03044e-14
2.45007e-12
-3.0342e-14
2.47204e-12
-1.89814e-14
2.48796e-12
-1.30502e-14
2.49436e-12
-3.64135e-15
2.49141e-12
5.5781e-15
2.48092e-12
1.29884e-14
2.46226e-12
2.10255e-14
2.43708e-12
2.74084e-14
2.40596e-12
3.32067e-14
2.36892e-12
3.89892e-14
2.32686e-12
4.38569e-14
2.28065e-12
4.7862e-14
2.23094e-12
5.12065e-14
2.17837e-12
5.3911e-14
2.12372e-12
5.58314e-14
2.06753e-12
5.72188e-14
2.01013e-12
5.82701e-14
1.95207e-12
5.87657e-14
1.89359e-12
5.90219e-14
1.83514e-12
5.88255e-14
1.77694e-12
5.84185e-14
1.71907e-12
5.79142e-14
1.66175e-12
5.72123e-14
1.60505e-12
5.64162e-14
1.54915e-12
5.54562e-14
1.49383e-12
5.47234e-14
1.43926e-12
5.38042e-14
1.38513e-12
5.31972e-14
1.33202e-12
5.20259e-14
1.27957e-12
5.12085e-14
1.2279e-12
5.02751e-14
1.177e-12
4.93571e-14
1.12667e-12
4.86341e-14
1.07703e-12
4.77924e-14
1.02815e-12
4.68889e-14
9.79915e-13
4.61039e-14
9.32555e-13
4.50927e-14
8.85871e-13
4.42839e-14
8.40059e-13
4.32821e-14
7.94856e-13
4.25453e-14
7.50553e-13
4.15246e-14
7.07133e-13
4.05257e-14
6.64585e-13
3.95407e-14
6.229e-13
3.85715e-14
5.8207e-13
3.76116e-14
5.42115e-13
3.66402e-14
5.03089e-13
3.56169e-14
4.64942e-13
3.46513e-14
4.27668e-13
3.36975e-14
3.91215e-13
3.28002e-14
3.55814e-13
3.1677e-14
3.21456e-13
3.05704e-14
2.88288e-13
2.93213e-14
2.56732e-13
2.76566e-14
2.2793e-13
2.48539e-14
2.05222e-13
1.87199e-14
1.996e-13
1.59818e-15
2.49315e-13
-5.37641e-14
1.32175e-13
1.13067e-13
2.53164e-15
1.25558e-13
-2.38884e-21
-2.63577e-20
-2.26363e-21
-1.32452e-22
-2.19498e-21
-7.83237e-23
-2.32283e-21
-9.24374e-23
-2.34997e-21
-1.05517e-22
-2.28891e-21
-1.11049e-22
-2.16618e-21
-1.10842e-22
-2.00302e-21
-1.06706e-22
-1.81561e-21
-9.98304e-23
-1.61616e-21
-9.15069e-23
-1.41324e-21
-8.23562e-23
-1.21291e-21
-7.28953e-23
-1.01919e-21
-6.32276e-23
-8.35349e-22
-5.36116e-23
-6.63244e-22
-4.4461e-23
-5.04373e-22
-3.55171e-23
-3.59617e-22
-2.71936e-23
-2.29388e-22
-1.94387e-23
-1.13789e-22
-1.21492e-23
-1.27696e-23
-5.42837e-24
7.40844e-23
5.68687e-25
1.4729e-22
5.99706e-24
2.07312e-22
1.09084e-23
2.55289e-22
1.51477e-23
2.91736e-22
1.88701e-23
3.17741e-22
2.20754e-23
3.34129e-22
2.48671e-23
3.41884e-22
2.71419e-23
3.41729e-22
2.91064e-23
3.34388e-22
3.04506e-23
3.21101e-22
3.16397e-23
3.02179e-22
3.24151e-23
2.78708e-22
3.30872e-23
2.51101e-22
3.33974e-23
2.2034e-22
3.36559e-23
1.86839e-22
3.37076e-23
1.51012e-22
3.35525e-23
1.13789e-22
3.3294e-23
7.53251e-23
3.28804e-23
3.69129e-23
3.20016e-23
2.97785e-23
1.95851e-13
-3.82782e-13
3.91786e-13
-3.76213e-13
5.82216e-13
-3.68667e-13
7.66981e-13
-3.57203e-13
9.44569e-13
-3.42849e-13
1.11368e-12
-3.26258e-13
1.27356e-12
-3.08067e-13
1.42369e-12
-2.88914e-13
1.5639e-12
-2.69259e-13
1.69398e-12
-2.49387e-13
1.81413e-12
-2.29682e-13
1.92453e-12
-2.10247e-13
2.02528e-12
-1.91245e-13
2.11629e-12
-1.71991e-13
2.19778e-12
-1.52995e-13
2.26853e-12
-1.32345e-13
2.32959e-12
-1.12505e-13
2.38249e-12
-9.65212e-14
2.42594e-12
-7.82432e-14
2.45882e-12
-5.7901e-14
2.48128e-12
-3.63397e-14
2.4967e-12
-2.35737e-14
2.50271e-12
-4.98566e-15
2.49918e-12
1.35444e-14
2.48838e-12
2.79765e-14
2.46899e-12
4.43648e-14
2.44329e-12
5.68083e-14
2.41146e-12
6.84864e-14
2.37367e-12
7.9952e-14
2.33092e-12
8.95224e-14
2.28402e-12
9.73976e-14
2.23365e-12
1.03943e-13
2.18047e-12
1.09177e-13
2.12528e-12
1.12818e-13
2.06849e-12
1.15525e-13
2.01073e-12
1.17255e-13
1.95226e-12
1.18162e-13
1.89353e-12
1.18398e-13
1.83481e-12
1.17889e-13
1.77643e-12
1.1686e-13
1.71834e-12
1.15764e-13
1.66102e-12
1.13998e-13
1.60431e-12
1.12314e-13
1.54824e-12
1.10411e-13
1.49295e-12
1.08616e-13
1.43843e-12
1.06638e-13
1.38439e-12
1.05264e-13
1.33118e-12
1.02985e-13
1.27888e-12
1.00989e-13
1.22719e-12
9.91618e-14
1.1763e-12
9.71891e-14
1.12595e-12
9.56511e-14
1.07627e-12
9.38943e-14
1.02742e-12
9.19079e-14
9.79192e-13
9.02518e-14
9.31747e-13
8.82233e-14
8.85091e-13
8.63961e-14
8.39205e-13
8.44004e-14
7.94029e-13
8.27369e-14
7.49687e-13
8.06752e-14
7.0625e-13
7.85691e-14
6.63766e-13
7.64403e-14
6.22078e-13
7.44926e-14
5.81267e-13
7.24813e-14
5.41359e-13
7.04442e-14
5.02357e-13
6.83569e-14
4.64104e-13
6.64973e-14
4.26767e-13
6.44949e-14
3.90399e-13
6.25004e-14
3.54925e-13
6.03724e-14
3.20362e-13
5.82496e-14
2.86843e-13
5.58633e-14
2.54397e-13
5.30445e-14
2.22928e-13
4.91943e-14
1.9158e-13
4.28818e-14
1.53073e-13
3.28693e-14
7.84252e-14
1.36094e-14
4.45214e-14
1.3967e-13
1.95766e-15
1.62371e-13
-2.29291e-21
-4.47611e-20
-2.20945e-21
-2.27681e-22
-2.20909e-21
-2.11138e-22
-2.33591e-21
-1.97748e-22
-2.35555e-21
-1.81566e-22
-2.28871e-21
-1.62489e-22
-2.16199e-21
-1.41861e-22
-1.99614e-21
-1.20613e-22
-1.80723e-21
-9.96753e-23
-1.60706e-21
-7.97195e-23
-1.40373e-21
-6.07978e-23
-1.20324e-21
-4.30134e-23
-1.00968e-21
-2.678e-23
-8.26198e-22
-1.18907e-23
-6.54403e-22
1.70606e-24
-4.95998e-22
1.37002e-23
-3.51862e-22
2.43501e-23
-2.2215e-22
3.36559e-23
-1.07068e-22
4.16175e-23
-6.72084e-24
4.85452e-23
7.95127e-23
5.4232e-23
1.52098e-22
5.89366e-23
2.11655e-22
6.26589e-23
2.58959e-22
6.55024e-23
2.94942e-22
6.7622e-23
3.20533e-22
6.9173e-23
3.36404e-22
7.01036e-23
3.43849e-22
7.04138e-23
3.43125e-22
7.03104e-23
3.35577e-22
6.98968e-23
3.21877e-22
6.91213e-23
3.02852e-22
6.82424e-23
2.79018e-22
6.7105e-23
2.51308e-22
6.5916e-23
2.20392e-22
6.46752e-23
1.86684e-22
6.34861e-23
1.50754e-22
6.2297e-23
1.13324e-22
6.12114e-23
7.4498e-23
6.01774e-23
3.46382e-23
5.93502e-23
5.87298e-23
1.98364e-13
-5.76825e-13
3.98886e-13
-5.6926e-13
5.93816e-13
-5.57112e-13
7.82048e-13
-5.39073e-13
9.62164e-13
-5.16654e-13
1.13311e-12
-4.90935e-13
1.29413e-12
-4.6288e-13
1.44483e-12
-4.3347e-13
1.5851e-12
-4.03471e-13
1.71514e-12
-3.73444e-13
1.83495e-12
-3.43607e-13
1.94498e-12
-3.14501e-13
2.04535e-12
-2.8595e-13
2.13616e-12
-2.57253e-13
2.21741e-12
-2.28843e-13
2.28711e-12
-1.96777e-13
2.34872e-12
-1.68993e-13
2.40177e-12
-1.44604e-13
2.44491e-12
-1.16587e-13
2.4764e-12
-8.47603e-14
2.49991e-12
-5.54011e-14
2.5146e-12
-3.4006e-14
2.51956e-12
-5.88423e-15
2.51508e-12
2.18917e-14
2.50345e-12
4.32651e-14
2.4825e-12
6.87674e-14
2.4557e-12
8.68354e-14
2.42231e-12
1.04889e-13
2.38304e-12
1.21994e-13
2.33886e-12
1.36252e-13
2.29048e-12
1.48089e-13
2.23868e-12
1.57818e-13
2.18425e-12
1.65438e-13
2.12802e-12
1.70638e-13
2.07024e-12
1.74641e-13
2.0115e-12
1.77084e-13
1.95232e-12
1.78172e-13
1.89291e-12
1.78391e-13
1.83383e-12
1.77297e-13
1.77513e-12
1.75634e-13
1.71683e-12
1.73888e-13
1.65923e-12
1.71166e-13
1.60241e-12
1.68442e-13
1.54628e-12
1.65603e-13
1.49103e-12
1.62677e-13
1.43659e-12
1.59643e-13
1.3825e-12
1.57676e-13
1.32931e-12
1.54247e-13
1.27694e-12
1.5119e-13
1.22526e-12
1.48446e-13
1.17441e-12
1.4541e-13
1.12412e-12
1.43076e-13
1.0744e-12
1.40528e-13
1.02546e-12
1.37543e-13
9.7714e-13
1.35058e-13
9.29731e-13
1.3191e-13
8.83028e-13
1.29174e-13
8.37165e-13
1.26148e-13
7.9196e-13
1.23638e-13
7.47622e-13
1.20529e-13
7.04182e-13
1.17347e-13
6.61581e-13
1.14215e-13
6.19874e-13
1.11213e-13
5.79074e-13
1.08143e-13
5.39144e-13
1.05093e-13
5.00057e-13
1.0203e-13
4.61935e-13
9.90767e-14
4.24613e-13
9.61555e-14
3.88173e-13
9.31712e-14
3.52648e-13
9.00253e-14
3.17941e-13
8.69965e-14
2.83961e-13
8.38e-14
2.50446e-13
8.04459e-14
2.16779e-13
7.6684e-14
1.80653e-13
7.27811e-14
1.36984e-13
7.0267e-14
6.97506e-14
7.45365e-14
4.04851e-14
1.62605e-13
1.86666e-15
1.95911e-13
-2.29622e-21
-6.70358e-20
-2.19291e-21
-3.41057e-22
-2.19565e-21
-3.14846e-22
-2.31967e-21
-2.87032e-22
-2.33648e-21
-2.56168e-22
-2.26808e-21
-2.2339e-22
-2.1408e-21
-1.902e-22
-1.97526e-21
-1.57423e-22
-1.78728e-21
-1.25783e-22
-1.58808e-21
-9.5953e-23
-1.38604e-21
-6.79839e-23
-1.1869e-21
-4.23413e-23
-9.94788e-22
-1.89218e-23
-8.12653e-22
2.17135e-24
-6.42358e-22
2.09897e-23
-4.85348e-22
3.76884e-23
-3.42556e-22
5.21124e-23
-2.14136e-22
6.46752e-23
-1.00192e-22
7.52734e-23
-1.03397e-24
8.40622e-23
8.4269e-23
9.13518e-23
1.5582e-22
9.69869e-23
2.14498e-22
1.01278e-22
2.61131e-22
1.04483e-22
2.96493e-22
1.06551e-22
3.21411e-22
1.07689e-22
3.36766e-22
1.08102e-22
3.43694e-22
1.0774e-22
3.42711e-22
1.06861e-22
3.34801e-22
1.05517e-22
3.20946e-22
1.03863e-22
3.01714e-22
1.0195e-22
2.77829e-22
9.98304e-23
2.50119e-22
9.77624e-23
2.19203e-22
9.55911e-23
1.85495e-22
9.35748e-23
1.4972e-22
9.17137e-23
1.1229e-22
9.0111e-23
7.36191e-23
8.86117e-23
3.40695e-23
8.74744e-23
8.6854e-23
2.05445e-13
-7.78134e-13
4.11713e-13
-7.68231e-13
6.11974e-13
-7.51033e-13
8.04684e-13
-7.25561e-13
9.88191e-13
-6.93979e-13
1.16143e-12
-6.58043e-13
1.32377e-12
-6.19144e-13
1.47507e-12
-5.78757e-13
1.61544e-12
-5.37905e-13
1.74509e-12
-4.97241e-13
1.86456e-12
-4.5731e-13
1.97426e-12
-4.18548e-13
2.07392e-12
-3.80059e-13
2.16481e-12
-3.42722e-13
2.24573e-12
-3.04464e-13
2.31449e-12
-2.60377e-13
2.37701e-12
-2.26508e-13
2.43016e-12
-1.92895e-13
2.4735e-12
-1.55226e-13
2.50249e-12
-1.0922e-13
2.52803e-12
-7.65945e-14
2.54131e-12
-4.31165e-14
2.54491e-12
-5.49641e-15
2.53923e-12
3.13607e-14
2.52577e-12
6.03022e-14
2.50306e-12
9.48533e-14
2.47429e-12
1.18765e-13
2.43858e-12
1.43546e-13
2.39709e-12
1.66202e-13
2.35065e-12
1.85194e-13
2.30018e-12
2.00822e-13
2.24619e-12
2.13838e-13
2.18987e-12
2.23555e-13
2.13196e-12
2.30102e-13
2.07261e-12
2.35298e-13
2.01261e-12
2.38147e-13
1.95228e-12
2.39322e-13
1.89205e-12
2.39195e-13
1.83221e-12
2.37457e-13
1.77285e-12
2.35064e-13
1.71428e-12
2.32286e-13
1.65652e-12
2.28506e-13
1.59958e-12
2.24715e-13
1.54334e-12
2.20926e-13
1.48794e-12
2.16912e-13
1.43375e-12
2.1243e-13
1.37984e-12
2.09939e-13
1.32648e-12
2.05717e-13
1.2742e-12
2.01353e-13
1.22255e-12
1.97747e-13
1.17171e-12
1.93673e-13
1.12139e-12
1.90597e-13
1.07162e-12
1.87279e-13
1.02266e-12
1.83277e-13
9.74385e-13
1.79893e-13
9.26878e-13
1.75776e-13
8.80106e-13
1.72109e-13
8.34109e-13
1.68117e-13
7.88901e-13
1.64635e-13
7.44552e-13
1.60488e-13
7.01057e-13
1.56283e-13
6.58463e-13
1.52083e-13
6.16791e-13
1.48003e-13
5.76018e-13
1.43887e-13
5.36156e-13
1.39782e-13
4.97062e-13
1.35823e-13
4.58851e-13
1.31862e-13
4.21539e-13
1.27929e-13
3.85157e-13
1.23905e-13
3.49537e-13
1.19902e-13
3.14659e-13
1.16039e-13
2.805e-13
1.12045e-13
2.46757e-13
1.08201e-13
2.12672e-13
1.04723e-13
1.77312e-13
1.02045e-13
1.40464e-13
1.00975e-13
1.03773e-13
1.05055e-13
4.40332e-14
2.16151e-13
1.83971e-15
2.33152e-13
-2.27637e-21
-9.00451e-20
-2.1667e-21
-4.58362e-22
-2.16783e-21
-4.17364e-22
-2.28881e-21
-3.75437e-22
-2.30375e-21
-3.31131e-22
-2.23484e-21
-2.85481e-22
-2.10797e-21
-2.40037e-22
-1.94362e-21
-1.95887e-22
-1.7574e-21
-1.53752e-22
-1.56017e-21
-1.14151e-22
-1.36035e-21
-7.73931e-23
-1.16353e-21
-4.36855e-23
-9.73747e-22
-1.31315e-23
-7.93783e-22
1.42689e-23
-6.25659e-22
3.85673e-23
-4.70924e-22
5.97638e-23
-3.29942e-22
7.8272e-23
-2.03538e-22
9.40401e-23
-9.14035e-23
1.07327e-22
6.25556e-24
1.18132e-22
8.99042e-23
1.26869e-22
1.60163e-22
1.33641e-22
2.17652e-22
1.38708e-22
2.63199e-22
1.42172e-22
2.97578e-22
1.44291e-22
3.21773e-22
1.45274e-22
3.36507e-22
1.4517e-22
3.42763e-22
1.44136e-22
3.41367e-22
1.42585e-22
3.33147e-22
1.40362e-22
3.18982e-22
1.37881e-22
2.99595e-22
1.34986e-22
2.75761e-22
1.31987e-22
2.47947e-22
1.28885e-22
2.17083e-22
1.25887e-22
1.83686e-22
1.23095e-22
1.48065e-22
1.20458e-22
1.10842e-22
1.18235e-22
7.24817e-23
1.16374e-22
3.33974e-23
1.15082e-22
1.14306e-22
2.15063e-13
-9.89112e-13
4.29787e-13
-9.75748e-13
6.37384e-13
-9.52362e-13
8.36187e-13
-9.18208e-13
1.02407e-12
-8.75752e-13
1.20012e-12
-8.2802e-13
1.36401e-12
-7.77032e-13
1.51582e-12
-7.24619e-13
1.65598e-12
-6.72194e-13
1.78512e-12
-6.20591e-13
1.90388e-12
-5.70365e-13
2.01277e-12
-5.21847e-13
2.11191e-12
-4.73718e-13
2.20271e-12
-4.2815e-13
2.28228e-12
-3.78804e-13
2.35165e-12
-3.24641e-13
2.4149e-12
-2.84803e-13
2.46831e-12
-2.41497e-13
2.51061e-12
-1.92882e-13
2.53929e-12
-1.33428e-13
2.56518e-12
-9.8177e-14
2.57733e-12
-5.11403e-14
2.5789e-12
-3.12799e-15
2.57201e-12
4.19967e-14
2.55567e-12
8.01849e-14
2.53083e-12
1.23033e-13
2.49921e-12
1.53508e-13
2.46041e-12
1.85258e-13
2.41572e-12
2.13582e-13
2.36641e-12
2.36973e-13
2.31281e-12
2.5667e-13
2.25599e-12
2.72665e-13
2.19711e-12
2.84202e-13
2.13683e-12
2.91919e-13
2.0754e-12
2.98023e-13
2.01374e-12
3.00859e-13
1.95187e-12
3.02008e-13
1.89055e-12
3.01076e-13
1.82988e-12
2.9845e-13
1.76985e-12
2.95162e-13
1.71078e-12
2.91181e-13
1.65272e-12
2.86152e-13
1.5956e-12
2.81166e-13
1.53931e-12
2.76312e-13
1.48398e-12
2.71084e-13
1.42973e-12
2.65291e-13
1.37638e-12
2.61662e-13
1.3228e-12
2.57432e-13
1.27048e-12
2.5158e-13
1.21891e-12
2.46993e-13
1.16806e-12
2.41974e-13
1.11776e-12
2.38125e-13
1.06805e-12
2.34003e-13
1.0191e-12
2.29032e-13
9.70657e-13
2.24932e-13
9.23108e-13
2.19725e-13
8.76238e-13
2.15182e-13
8.30183e-13
2.10188e-13
7.84856e-13
2.05791e-13
7.4054e-13
2.00459e-13
6.96983e-13
1.95327e-13
6.54427e-13
1.89967e-13
6.12704e-13
1.84896e-13
5.71883e-13
1.79733e-13
5.32042e-13
1.74508e-13
4.92968e-13
1.69651e-13
4.54802e-13
1.64659e-13
4.17589e-13
1.59659e-13
3.81165e-13
1.54741e-13
3.455e-13
1.49882e-13
3.1068e-13
1.45086e-13
2.76561e-13
1.40316e-13
2.43137e-13
1.35704e-13
2.10379e-13
1.315e-13
1.7757e-13
1.28819e-13
1.46056e-13
1.26416e-13
1.13594e-13
1.31412e-13
4.64949e-14
2.77123e-13
1.81676e-15
2.72939e-13
-2.23336e-21
-1.12796e-19
-2.1257e-21
-5.75356e-22
-2.12591e-21
-5.1978e-22
-2.24445e-21
-4.63842e-22
-2.25815e-21
-4.05732e-22
-2.18939e-21
-3.47157e-22
-2.06382e-21
-2.89306e-22
-1.90148e-21
-2.33627e-22
-1.71785e-21
-1.80894e-22
-1.52341e-21
-1.31418e-22
-1.32664e-21
-8.57683e-23
-1.13298e-21
-4.42025e-23
-9.46295e-22
-6.61745e-24
-7.69485e-22
2.69868e-23
-6.04411e-22
5.66619e-23
-4.52416e-22
8.25113e-23
-3.14174e-22
1.04845e-22
-1.90252e-22
1.23612e-22
-8.05467e-23
1.39483e-22
1.49927e-23
1.52253e-22
9.66767e-23
1.62438e-22
1.65126e-22
1.70296e-22
2.21116e-22
1.75879e-22
2.65318e-22
1.79653e-22
2.98612e-22
1.81721e-22
3.2167e-22
1.8229e-22
3.35422e-22
1.81618e-22
3.4116e-22
1.80119e-22
3.39196e-22
1.77534e-22
3.30665e-22
1.74483e-22
3.16138e-22
1.70865e-22
2.96596e-22
1.67039e-22
2.72659e-22
1.6311e-22
2.45052e-22
1.59077e-22
2.14343e-22
1.552e-22
1.81049e-22
1.51529e-22
1.45842e-22
1.48324e-22
1.09033e-22
1.4548e-22
7.11892e-23
1.43309e-22
3.26219e-23
1.41706e-22
1.40879e-22
2.2775e-13
-1.21282e-12
4.54086e-13
-1.19497e-12
6.71775e-13
-1.16386e-12
8.78309e-13
-1.11866e-12
1.07174e-12
-1.06315e-12
1.2511e-12
-1.00139e-12
1.41647e-12
-9.36464e-13
1.56825e-12
-8.70523e-13
1.70753e-12
-8.05685e-13
1.83561e-12
-7.42943e-13
1.95321e-12
-6.82343e-13
2.06038e-12
-6.23489e-13
2.15972e-12
-5.67647e-13
2.24961e-12
-5.12734e-13
2.32631e-12
-4.50327e-13
2.39915e-12
-3.9245e-13
2.46301e-12
-3.4377e-13
2.51657e-12
-2.90309e-13
2.55554e-12
-2.27259e-13
2.58845e-12
-1.6192e-13
2.61198e-12
-1.17452e-13
2.62291e-12
-5.80032e-14
2.62223e-12
1.44626e-15
2.61397e-12
5.39466e-14
2.59345e-12
1.04206e-13
2.56613e-12
1.53653e-13
2.53067e-12
1.9205e-13
2.48793e-12
2.30879e-13
2.43914e-12
2.65023e-13
2.38579e-12
2.9276e-13
2.32832e-12
3.16347e-13
2.26787e-12
3.35102e-13
2.20574e-12
3.48083e-13
2.14244e-12
3.56728e-13
2.07849e-12
3.63255e-13
2.01456e-12
3.65832e-13
1.9509e-12
3.66469e-13
1.8882e-12
3.64333e-13
1.82649e-12
3.60472e-13
1.76562e-12
3.56102e-13
1.70609e-12
3.50536e-13
1.64769e-12
3.44143e-13
1.59057e-12
3.37627e-13
1.53419e-12
3.318e-13
1.47918e-12
3.24958e-13
1.42449e-12
3.18605e-13
1.37195e-12
3.12585e-13
1.31827e-12
3.09278e-13
1.26581e-12
3.01968e-13
1.2144e-12
2.96103e-13
1.16342e-12
2.90434e-13
1.11329e-12
2.85527e-13
1.06352e-12
2.80822e-13
1.01449e-12
2.74904e-13
9.65978e-13
2.70081e-13
9.18337e-13
2.63803e-13
8.71414e-13
2.58354e-13
8.25234e-13
2.52429e-13
7.79865e-13
2.4704e-13
7.3535e-13
2.40682e-13
6.91806e-13
2.34411e-13
6.49251e-13
2.27902e-13
6.07606e-13
2.21771e-13
5.66841e-13
2.1558e-13
5.27035e-13
2.0926e-13
4.88007e-13
2.03496e-13
4.49909e-13
1.97453e-13
4.12703e-13
1.9145e-13
3.7629e-13
1.85634e-13
3.40674e-13
1.7988e-13
3.05893e-13
1.74164e-13
2.71973e-13
1.68451e-13
2.39123e-13
1.62702e-13
2.07554e-13
1.57161e-13
1.77124e-13
1.5329e-13
1.51183e-13
1.46359e-13
1.24907e-13
1.51655e-13
3.53986e-14
3.60579e-13
1.78958e-15
3.01719e-13
-2.1738e-21
-1.34681e-19
-2.07012e-21
-6.91213e-22
-2.06997e-21
-6.21419e-22
-2.18634e-21
-5.51471e-22
-2.19953e-21
-4.79558e-22
-2.13154e-21
-4.07645e-22
-2.00814e-21
-3.37438e-22
-1.84875e-21
-2.70023e-22
-1.66827e-21
-2.06382e-22
-1.47781e-21
-1.47083e-22
-1.28508e-21
-9.25925e-23
-1.09539e-21
-4.30134e-23
-9.1269e-22
1.60266e-24
-7.39861e-22
4.11522e-23
-5.78613e-22
7.60489e-23
-4.30082e-22
1.06344e-22
-2.95407e-22
1.32194e-22
-1.74483e-22
1.54166e-22
-6.77254e-23
1.7226e-22
2.51256e-23
1.86943e-22
1.04587e-22
1.98317e-22
1.70761e-22
2.06899e-22
2.2489e-22
2.13051e-22
2.67334e-22
2.16876e-22
2.99129e-22
2.18789e-22
3.2105e-22
2.18996e-22
3.33871e-22
2.17755e-22
3.38679e-22
2.15377e-22
3.36146e-22
2.12017e-22
3.27047e-22
2.07933e-22
3.12312e-22
2.0328e-22
2.92615e-22
1.98368e-22
2.68627e-22
1.93405e-22
2.41123e-22
1.88339e-22
2.10673e-22
1.83634e-22
1.77792e-22
1.79136e-22
1.42999e-22
1.75052e-22
1.0681e-22
1.71795e-22
6.95349e-23
1.6921e-22
3.18465e-23
1.67246e-22
1.66367e-22
2.44783e-13
-1.45361e-12
4.86591e-13
-1.42977e-12
7.1732e-13
-1.38849e-12
9.33674e-13
-1.32903e-12
1.13346e-12
-1.25699e-12
1.31607e-12
-1.1781e-12
1.48217e-12
-1.09671e-12
1.63323e-12
-1.01579e-12
1.7708e-12
-9.3755e-13
1.89664e-12
-8.63149e-13
2.01156e-12
-7.91715e-13
2.11745e-12
-7.2394e-13
2.21639e-12
-6.61251e-13
2.30372e-12
-5.94853e-13
2.3799e-12
-5.21407e-13
2.45574e-12
-4.63328e-13
2.52054e-12
-4.03751e-13
2.57477e-12
-3.39862e-13
2.60968e-12
-2.57646e-13
2.64944e-12
-1.97326e-13
2.66903e-12
-1.32855e-13
2.67857e-12
-6.35345e-14
2.67564e-12
8.20257e-15
2.6653e-12
6.79299e-14
2.63933e-12
1.33621e-13
2.60926e-12
1.86973e-13
2.56884e-12
2.35506e-13
2.52102e-12
2.8153e-13
2.4672e-12
3.21459e-13
2.40866e-12
3.53702e-13
2.3464e-12
3.80787e-13
2.28149e-12
4.01968e-13
2.21541e-12
4.15882e-13
2.14839e-12
4.25245e-13
2.08129e-12
4.31616e-13
2.01471e-12
4.33437e-13
1.949e-12
4.32962e-13
1.88457e-12
4.29306e-13
1.8216e-12
4.2375e-13
1.75997e-12
4.17801e-13
1.70002e-12
4.10319e-13
1.64137e-12
4.02387e-13
1.58411e-12
3.94235e-13
1.52775e-12
3.87274e-13
1.47309e-12
3.78505e-13
1.41821e-12
3.72128e-13
1.36618e-12
3.63024e-13
1.31312e-12
3.60527e-13
1.26043e-12
3.5262e-13
1.2092e-12
3.45066e-13
1.15813e-12
3.39025e-13
1.10806e-12
3.32898e-13
1.05823e-12
3.27751e-13
1.00905e-12
3.20971e-13
9.60386e-13
3.15426e-13
9.12528e-13
3.08156e-13
8.65537e-13
3.01648e-13
8.19233e-13
2.94852e-13
7.73828e-13
2.88384e-13
7.29144e-13
2.81138e-13
6.85598e-13
2.73564e-13
6.42964e-13
2.65983e-13
6.01297e-13
2.58735e-13
5.6067e-13
2.51362e-13
5.20887e-13
2.44063e-13
4.81909e-13
2.37363e-13
4.44016e-13
2.30119e-13
4.06928e-13
2.23199e-13
3.70549e-13
2.16569e-13
3.34939e-13
2.09955e-13
3.00156e-13
2.03325e-13
2.66253e-13
1.96656e-13
2.33602e-13
1.89588e-13
2.02956e-13
1.81982e-13
1.7619e-13
1.74182e-13
1.51469e-13
1.65166e-13
8.20796e-14
2.15102e-13
1.90671e-14
4.17624e-13
1.75844e-15
3.14272e-13
-2.10432e-21
-1.55169e-19
-2.00038e-21
-8.06088e-22
-2.00002e-21
-7.21612e-22
-2.11443e-21
-6.37705e-22
-2.12756e-21
-5.51936e-22
-2.06139e-21
-4.66582e-22
-1.94072e-21
-3.83605e-22
-1.78511e-21
-3.04402e-22
-1.60902e-21
-2.29853e-22
-1.42327e-21
-1.60835e-22
-1.2355e-21
-9.75556e-23
-1.05083e-21
-4.00666e-23
-8.73089e-22
1.1322e-23
-7.05016e-22
5.69721e-23
-5.48317e-22
9.68835e-23
-4.04233e-22
1.31418e-22
-2.73435e-22
1.60887e-22
-1.56389e-22
1.85495e-22
-5.3043e-23
2.05709e-22
3.6551e-23
2.21943e-22
1.13117e-22
2.34557e-22
1.76913e-22
2.43915e-22
2.28767e-22
2.50274e-22
2.69247e-22
2.541e-22
2.99336e-22
2.55651e-22
3.19809e-22
2.55392e-22
3.31493e-22
2.53479e-22
3.35318e-22
2.5017e-22
3.32113e-22
2.45776e-22
3.22394e-22
2.40503e-22
3.07401e-22
2.34868e-22
2.87652e-22
2.28715e-22
2.6356e-22
2.22615e-22
2.36367e-22
2.16618e-22
2.06175e-22
2.10879e-22
1.7376e-22
2.05658e-22
1.39742e-22
2.01057e-22
1.04225e-22
1.97024e-22
6.7622e-23
1.93922e-22
3.09159e-23
1.91958e-22
1.9082e-22
2.67496e-13
-1.71717e-12
5.29874e-13
-1.68526e-12
7.77025e-13
-1.62964e-12
1.00535e-12
-1.55147e-12
1.21215e-12
-1.45795e-12
1.39757e-12
-1.35771e-12
1.56303e-12
-1.25643e-12
1.71172e-12
-1.15881e-12
1.84586e-12
-1.06607e-12
1.96755e-12
-9.7931e-13
2.07876e-12
-8.97484e-13
2.18387e-12
-8.23699e-13
2.28064e-12
-7.52778e-13
2.36323e-12
-6.72317e-13
2.44535e-12
-5.98527e-13
2.52114e-12
-5.34237e-13
2.58749e-12
-4.65365e-13
2.63922e-12
-3.87001e-13
2.67942e-12
-2.93414e-13
2.7189e-12
-2.32525e-13
2.73779e-12
-1.47636e-13
2.74469e-12
-6.64844e-14
2.74059e-12
1.60575e-14
2.72537e-12
8.673e-14
2.69558e-12
1.66796e-13
2.66029e-12
2.25444e-13
2.61408e-12
2.84699e-13
2.5598e-12
3.38597e-13
2.49986e-12
3.83974e-13
2.4351e-12
4.20811e-13
2.36661e-12
4.5142e-13
2.29645e-12
4.74045e-13
2.2255e-12
4.88517e-13
2.15408e-12
4.98137e-13
2.08342e-12
5.03506e-13
2.01351e-12
5.04355e-13
1.94558e-12
5.01664e-13
1.87946e-12
4.95964e-13
1.81504e-12
4.88474e-13
1.75261e-12
4.80302e-13
1.69221e-12
4.70544e-13
1.63352e-12
4.60674e-13
1.57606e-12
4.51068e-13
1.5202e-12
4.42257e-13
1.46559e-12
4.32016e-13
1.41165e-12
4.24739e-13
1.35849e-12
4.14627e-13
1.30743e-12
4.09807e-13
1.25437e-12
4.03668e-13
1.20302e-12
3.94199e-13
1.15197e-12
3.87632e-13
1.10193e-12
3.8029e-13
1.05213e-12
3.74698e-13
1.00263e-12
3.67419e-13
9.54011e-13
3.60786e-13
9.05767e-13
3.52954e-13
8.58653e-13
3.45129e-13
8.12054e-13
3.37637e-13
7.66732e-13
3.29716e-13
7.21892e-13
3.2182e-13
6.78233e-13
3.12906e-13
6.35712e-13
3.04031e-13
5.9411e-13
2.95716e-13
5.53461e-13
2.8725e-13
5.1369e-13
2.78939e-13
4.75009e-13
2.71024e-13
4.37198e-13
2.6279e-13
4.00179e-13
2.54971e-13
3.63962e-13
2.47437e-13
3.28322e-13
2.40154e-13
2.934e-13
2.32724e-13
2.5925e-13
2.25205e-13
2.25929e-13
2.17243e-13
1.94244e-13
2.07942e-13
1.67322e-13
1.9533e-13
1.52965e-13
1.73712e-13
5.56626e-14
3.06563e-13
2.0635e-14
4.46788e-13
1.72321e-15
3.28514e-13
-2.01829e-21
-1.73195e-19
-1.91585e-21
-9.18998e-22
-1.91606e-21
-8.19891e-22
-2.02871e-21
-7.21767e-22
-2.04226e-21
-6.21988e-22
-1.97836e-21
-5.2314e-22
-1.86152e-21
-4.27342e-22
-1.71056e-21
-3.36249e-22
-1.54e-21
-2.50843e-22
-1.35994e-21
-1.71898e-22
-1.17801e-21
-9.9727e-23
-9.99338e-22
-3.46382e-23
-8.27491e-22
2.3523e-23
-6.65053e-22
7.47565e-23
-5.13783e-22
1.19579e-22
-3.74765e-22
1.58043e-22
-2.48826e-22
1.90717e-22
-1.36123e-22
2.1791e-22
-3.68612e-23
2.40141e-22
4.91656e-23
2.57822e-22
1.22474e-22
2.71315e-22
1.83272e-22
2.81086e-22
2.32541e-22
2.876e-22
2.7085e-22
2.91168e-22
2.99078e-22
2.92253e-22
3.17896e-22
2.91271e-22
3.28184e-22
2.88376e-22
3.30924e-22
2.84085e-22
3.2684e-22
2.78605e-22
3.16707e-22
2.72349e-22
3.01301e-22
2.6537e-22
2.815e-22
2.58235e-22
2.57615e-22
2.50894e-22
2.30628e-22
2.43812e-22
2.00902e-22
2.37194e-22
1.6921e-22
2.31094e-22
1.35709e-22
2.2582e-22
1.01071e-22
2.21478e-22
6.57092e-23
2.17962e-22
2.97785e-23
2.15636e-22
2.14447e-22
2.97836e-13
-2.01115e-12
5.87773e-13
-1.96846e-12
8.55737e-13
-1.89174e-12
1.09827e-12
-1.78824e-12
1.31215e-12
-1.66611e-12
1.49868e-12
-1.53857e-12
1.66081e-12
-1.41293e-12
1.80482e-12
-1.29725e-12
1.93251e-12
-1.18826e-12
2.04752e-12
-1.08891e-12
2.15539e-12
-1.00002e-12
2.25809e-12
-9.21161e-13
2.34842e-12
-8.37971e-13
2.43212e-12
-7.50997e-13
2.51892e-12
-6.80425e-13
2.59604e-12
-6.06587e-13
2.66173e-12
-5.26418e-13
2.71291e-12
-4.33687e-13
2.76613e-12
-3.42284e-13
2.79774e-12
-2.59948e-13
2.81856e-12
-1.64428e-13
2.82329e-12
-6.73619e-14
2.81756e-12
2.54769e-14
2.79569e-12
1.1209e-13
2.7626e-12
2.03205e-13
2.71983e-12
2.71335e-13
2.66637e-12
3.41088e-13
2.60459e-12
4.03098e-13
2.53698e-12
4.54103e-13
2.4645e-12
4.95591e-13
2.38876e-12
5.29254e-13
2.31243e-12
5.52256e-13
2.23546e-12
5.6715e-13
2.15901e-12
5.76022e-13
2.08401e-12
5.79716e-13
2.01065e-12
5.78696e-13
1.94013e-12
5.72935e-13
1.87211e-12
5.64511e-13
1.80631e-12
5.54574e-13
1.74322e-12
5.43458e-13
1.68248e-12
5.31121e-13
1.62388e-12
5.18872e-13
1.56656e-12
5.07771e-13
1.51118e-12
4.96781e-13
1.45692e-12
4.85205e-13
1.40399e-12
4.76353e-13
1.35017e-12
4.66926e-13
1.30073e-12
4.575e-13
1.24796e-12
4.54471e-13
1.19618e-12
4.43805e-13
1.14536e-12
4.36059e-13
1.09501e-12
4.28053e-13
1.04526e-12
4.2164e-13
9.95502e-13
4.14183e-13
9.46699e-13
4.06397e-13
8.98072e-13
3.98203e-13
8.5075e-13
3.88891e-13
8.03846e-13
3.80803e-13
7.58565e-13
3.71088e-13
7.13472e-13
3.62837e-13
6.69769e-13
3.52377e-13
6.27193e-13
3.42223e-13
5.85642e-13
3.32739e-13
5.45128e-13
3.23097e-13
5.05491e-13
3.13778e-13
4.67095e-13
3.04499e-13
4.2946e-13
2.95387e-13
3.92638e-13
2.86651e-13
3.56452e-13
2.78383e-13
3.20997e-13
2.70275e-13
2.85974e-13
2.62335e-13
2.51353e-13
2.54338e-13
2.17068e-13
2.45977e-13
1.82655e-13
2.36744e-13
1.47902e-13
2.24425e-13
1.07672e-13
2.08248e-13
3.79945e-14
3.70518e-13
2.18484e-14
4.57189e-13
1.68315e-15
3.44108e-13
-1.91572e-21
-1.87548e-19
-1.81675e-21
-1.02948e-21
-1.81794e-21
-9.15896e-22
-1.92888e-21
-8.03399e-22
-1.94341e-21
-6.893e-22
-1.88261e-21
-5.76648e-22
-1.77037e-21
-4.67874e-22
-1.62515e-21
-3.64735e-22
-1.46106e-21
-2.6842e-22
-1.28787e-21
-1.79653e-22
-1.11292e-21
-9.90032e-23
-9.41228e-22
-2.63664e-23
-7.76206e-22
3.82054e-23
-6.2023e-22
9.50741e-23
-4.75267e-22
1.44395e-22
-3.42091e-22
1.86684e-22
-2.21633e-22
2.22305e-22
-1.13944e-22
2.51773e-22
-1.91286e-23
2.75606e-22
6.26589e-23
2.94321e-22
1.32246e-22
3.08435e-22
1.89786e-22
3.18465e-22
2.36108e-22
3.24927e-22
2.71936e-22
3.28132e-22
2.98095e-22
3.28546e-22
3.15001e-22
3.2653e-22
3.23893e-22
3.22704e-22
3.25392e-22
3.17275e-22
3.20636e-22
3.1071e-22
3.09727e-22
3.0311e-22
2.94114e-22
2.94993e-22
2.74159e-22
2.86618e-22
2.50584e-22
2.78346e-22
2.23907e-22
2.70178e-22
1.94853e-22
2.62526e-22
1.63937e-22
2.55754e-22
1.31367e-22
2.49809e-22
9.7659e-23
2.44794e-22
6.32793e-23
2.41123e-22
2.85894e-23
2.3859e-22
2.37556e-22
3.37748e-13
-2.34511e-12
6.67025e-13
-2.29115e-12
9.62421e-13
-2.1814e-12
1.21847e-12
-2.03866e-12
1.43882e-12
-1.88087e-12
1.62389e-12
-1.71809e-12
1.77728e-12
-1.56082e-12
1.91377e-12
-1.42831e-12
2.0296e-12
-1.29873e-12
2.13642e-12
-1.19043e-12
2.24116e-12
-1.09955e-12
2.33439e-12
-1.00929e-12
2.41988e-12
-9.18447e-13
2.51251e-12
-8.38722e-13
2.59867e-12
-7.61797e-13
2.67879e-12
-6.82054e-13
2.74213e-12
-5.85232e-13
2.80492e-12
-4.92085e-13
2.85897e-12
-3.92094e-13
2.89176e-12
-2.88641e-13
2.91166e-12
-1.80396e-13
2.91651e-12
-6.84484e-14
2.90692e-12
3.86617e-14
2.87878e-12
1.4365e-13
2.83995e-12
2.4527e-13
2.7889e-12
3.25434e-13
2.72633e-12
4.06504e-13
2.65561e-12
4.76477e-13
2.5786e-12
5.33571e-13
2.49637e-12
5.80078e-13
2.41242e-12
6.15248e-13
2.32866e-12
6.37849e-13
2.24451e-12
6.52911e-13
2.1623e-12
6.59636e-13
2.08214e-12
6.61058e-13
2.00535e-12
6.56444e-13
1.93185e-12
6.47173e-13
1.862e-12
6.34875e-13
1.79492e-12
6.21944e-13
1.7314e-12
6.07044e-13
1.67053e-12
5.91825e-13
1.61185e-12
5.77168e-13
1.55548e-12
5.63535e-13
1.5007e-12
5.50728e-13
1.44708e-12
5.3777e-13
1.39491e-12
5.27252e-13
1.34239e-12
5.17952e-13
1.29207e-12
5.06113e-13
1.24114e-12
5.0348e-13
1.18891e-12
4.93908e-13
1.13832e-12
4.84322e-13
1.0873e-12
4.7653e-13
1.03786e-12
4.68353e-13
9.87812e-13
4.613e-13
9.38544e-13
4.52547e-13
8.89391e-13
4.44056e-13
8.41755e-13
4.33049e-13
7.94693e-13
4.24214e-13
7.49019e-13
4.12943e-13
7.0397e-13
4.03905e-13
6.59911e-13
3.92301e-13
6.17387e-13
3.80463e-13
5.75966e-13
3.69732e-13
5.35737e-13
3.58766e-13
4.96321e-13
3.48506e-13
4.58094e-13
3.37917e-13
4.20782e-13
3.2778e-13
3.84221e-13
3.18186e-13
3.48309e-13
3.09172e-13
3.12992e-13
3.00381e-13
2.77941e-13
2.92096e-13
2.42993e-13
2.83923e-13
2.07373e-13
2.76171e-13
1.69627e-13
2.69011e-13
1.27045e-13
2.61481e-13
6.50962e-14
2.6463e-13
2.63855e-14
4.03636e-13
1.76825e-14
4.60281e-13
1.63884e-15
3.55688e-13
-1.79992e-21
-1.97137e-19
-1.70311e-21
-1.13789e-21
-1.70554e-21
-1.00885e-21
-1.81478e-21
-8.81723e-22
-1.83071e-21
-7.53096e-22
-1.77389e-21
-6.26486e-22
-1.66729e-21
-5.04477e-22
-1.52884e-21
-3.89292e-22
-1.37234e-21
-2.8212e-22
-1.20717e-21
-1.83738e-22
-1.04028e-21
-9.45571e-23
-8.76656e-22
-1.46308e-23
-7.19389e-22
5.60932e-23
-5.70961e-22
1.18028e-22
-4.32977e-22
1.71537e-22
-3.06522e-22
2.1729e-22
-1.92164e-22
2.55495e-22
-9.00593e-23
2.8698e-22
-4.65287e-25
3.12209e-22
7.68244e-23
3.31803e-22
1.42275e-22
3.46279e-22
1.96249e-22
3.56308e-22
2.39314e-22
3.62409e-22
2.72349e-22
3.65045e-22
2.96027e-22
3.64683e-22
3.11123e-22
3.61788e-22
3.18516e-22
3.56773e-22
3.18826e-22
3.50053e-22
3.12984e-22
3.42246e-22
3.01611e-22
3.33302e-22
2.85791e-22
3.24048e-22
2.65835e-22
3.14484e-22
2.42416e-22
3.04971e-22
2.16308e-22
2.95872e-22
1.88029e-22
2.87445e-22
1.5794e-22
2.7969e-22
1.26404e-22
2.73125e-22
9.3885e-23
2.67696e-22
6.07978e-23
2.63612e-22
2.75038e-23
2.61131e-22
2.59993e-22
3.94609e-13
-2.73602e-12
7.67486e-13
-2.65763e-12
1.10028e-12
-2.50862e-12
1.37751e-12
-2.31042e-12
1.6003e-12
-2.09823e-12
1.78006e-12
-1.89245e-12
1.92188e-12
-1.69729e-12
2.03578e-12
-1.53692e-12
2.13522e-12
-1.39295e-12
2.23464e-12
-1.2847e-12
2.32585e-12
-1.1857e-12
2.41121e-12
-1.08967e-12
2.50253e-12
-1.00489e-12