/*--------------------------------*- C++ -*----------------------------------*\
  =========                 |
  \\      /  F ield         | OpenFOAM: The Open Source CFD Toolbox
   \\    /   O peration     | Website:  https://openfoam.org
    \\  /    A nd           | Version:  6
     \\/     M anipulation  |
\*---------------------------------------------------------------------------*/
FoamFile
{
    version     2.0;
    format      ascii;
    class       volVectorField;
    location    "8300";
    object      U;
}
// * * * * * * * * * * * * * * * * * * * * * * * * * * * * * * * * * * * * * //

dimensions      [0 1 -1 0 0 0 0];

internalField   nonuniform List<vector> 
4800
(
(3.9615e-08 0 -3.73228e-08)
(1.15609e-07 0 -3.96083e-08)
(1.92249e-07 0 -4.00927e-08)
(2.67185e-07 0 -3.92088e-08)
(3.39264e-07 0 -3.77121e-08)
(4.08239e-07 0 -3.58597e-08)
(4.73786e-07 0 -3.37448e-08)
(5.35628e-07 0 -3.14968e-08)
(5.93606e-07 0 -2.91671e-08)
(6.47638e-07 0 -2.68412e-08)
(6.97706e-07 0 -2.45196e-08)
(7.43812e-07 0 -2.22495e-08)
(7.86001e-07 0 -2.00866e-08)
(8.24327e-07 0 -1.79564e-08)
(8.58791e-07 0 -1.58648e-08)
(8.89335e-07 0 -1.37498e-08)
(9.15848e-07 0 -1.15953e-08)
(9.38554e-07 0 -9.89573e-09)
(9.57728e-07 0 -8.06221e-09)
(9.73141e-07 0 -6.03794e-09)
(9.845e-07 0 -3.73836e-09)
(9.92073e-07 0 -2.53142e-09)
(9.96418e-07 0 -6.2577e-10)
(9.97281e-07 0 1.22919e-09)
(9.94596e-07 0 2.75175e-09)
(9.88782e-07 0 4.35422e-09)
(9.79963e-07 0 5.65333e-09)
(9.68773e-07 0 6.81476e-09)
(9.55095e-07 0 7.9804e-09)
(9.39249e-07 0 8.96005e-09)
(9.21603e-07 0 9.75947e-09)
(9.02415e-07 0 1.04297e-08)
(8.81956e-07 0 1.09623e-08)
(8.60505e-07 0 1.134e-08)
(8.3832e-07 0 1.16029e-08)
(8.1558e-07 0 1.18005e-08)
(7.92472e-07 0 1.18882e-08)
(7.69149e-07 0 1.19238e-08)
(7.45755e-07 0 1.18714e-08)
(7.22413e-07 0 1.17769e-08)
(6.99186e-07 0 1.16477e-08)
(6.76144e-07 0 1.14827e-08)
(6.5334e-07 0 1.13175e-08)
(6.30806e-07 0 1.11002e-08)
(6.08568e-07 0 1.09433e-08)
(5.86626e-07 0 1.0731e-08)
(5.64913e-07 0 1.05851e-08)
(5.43469e-07 0 1.0332e-08)
(5.22349e-07 0 1.01455e-08)
(5.01531e-07 0 9.94253e-09)
(4.81003e-07 0 9.7348e-09)
(4.60762e-07 0 9.56244e-09)
(4.4078e-07 0 9.36063e-09)
(4.21077e-07 0 9.15015e-09)
(4.0166e-07 0 8.96337e-09)
(3.82534e-07 0 8.73041e-09)
(3.63726e-07 0 8.53249e-09)
(3.45229e-07 0 8.29635e-09)
(3.27041e-07 0 8.10003e-09)
(3.09159e-07 0 7.86159e-09)
(2.91604e-07 0 7.61811e-09)
(2.74407e-07 0 7.37889e-09)
(2.57562e-07 0 7.14349e-09)
(2.41059e-07 0 6.90362e-09)
(2.249e-07 0 6.6595e-09)
(2.09098e-07 0 6.40828e-09)
(1.93659e-07 0 6.15963e-09)
(1.7858e-07 0 5.90969e-09)
(1.63836e-07 0 5.68358e-09)
(1.49459e-07 0 5.41999e-09)
(1.35508e-07 0 5.15804e-09)
(1.22018e-07 0 4.89039e-09)
(1.09116e-07 0 4.57331e-09)
(9.71481e-08 0 4.09213e-09)
(8.71219e-08 0 3.40634e-09)
(8.12937e-08 0 2.06136e-09)
(8.28553e-08 0 -1.28362e-08)
(7.02545e-08 0 3.5458e-09)
(1.75818e-09 0 2.44668e-08)
(6.49652e-15 0 -5.29779e-15)
(-4.57507e-16 0 -2.64905e-17)
(-8.91721e-16 0 -1.56647e-17)
(-9.0356e-16 0 -1.84875e-17)
(-9.34559e-16 0 -2.11034e-17)
(-9.27776e-16 0 -2.22098e-17)
(-8.91018e-16 0 -2.21684e-17)
(-8.33839e-16 0 -2.13413e-17)
(-7.63726e-16 0 -1.99661e-17)
(-6.86353e-16 0 -1.83014e-17)
(-6.05879e-16 0 -1.64712e-17)
(-5.25229e-16 0 -1.45791e-17)
(-4.46419e-16 0 -1.26455e-17)
(-3.70908e-16 0 -1.07223e-17)
(-2.99719e-16 0 -8.89219e-18)
(-2.33523e-16 0 -7.10341e-18)
(-1.72798e-16 0 -5.43871e-18)
(-1.17801e-16 0 -3.88775e-18)
(-6.86353e-17 0 -2.42984e-18)
(-2.53117e-17 0 -1.08567e-18)
(1.2263e-17 0 1.13737e-19)
(4.42748e-17 0 1.19941e-18)
(7.09204e-17 0 2.18169e-18)
(9.25202e-17 0 3.02955e-18)
(1.09405e-16 0 3.77401e-18)
(1.21895e-16 0 4.41508e-18)
(1.30374e-16 0 4.97342e-18)
(1.35203e-16 0 5.42837e-18)
(1.36723e-16 0 5.82128e-18)
(1.35223e-16 0 6.09012e-18)
(1.31098e-16 0 6.32793e-18)
(1.24656e-16 0 6.48303e-18)
(1.16178e-16 0 6.61745e-18)
(1.05962e-16 0 6.67948e-18)
(9.42883e-17 0 6.73118e-18)
(8.14359e-17 0 6.74152e-18)
(6.75703e-17 0 6.7105e-18)
(5.29602e-17 0 6.6588e-18)
(3.78228e-17 0 6.57609e-18)
(2.24476e-17 0 6.40031e-18)
(7.38259e-18 0 5.9557e-18)
(3.88484e-08 0 -1.14694e-07)
(1.18447e-07 0 -1.10608e-07)
(1.94028e-07 0 -1.07776e-07)
(2.695e-07 0 -1.04139e-07)
(3.4199e-07 0 -9.99199e-08)
(4.11269e-07 0 -9.51898e-08)
(4.77046e-07 0 -9.00359e-08)
(5.39045e-07 0 -8.46344e-08)
(5.97118e-07 0 -7.90721e-08)
(6.51189e-07 0 -7.3458e-08)
(7.01251e-07 0 -6.78578e-08)
(7.47368e-07 0 -6.22864e-08)
(7.89583e-07 0 -5.68383e-08)
(8.27926e-07 0 -5.12551e-08)
(8.62393e-07 0 -4.56608e-08)
(8.92934e-07 0 -3.97285e-08)
(9.19455e-07 0 -3.36267e-08)
(9.42205e-07 0 -2.89105e-08)
(9.61446e-07 0 -2.35708e-08)
(9.76792e-07 0 -1.75832e-08)
(9.8809e-07 0 -1.08617e-08)
(9.95617e-07 0 -7.27911e-09)
(9.99876e-07 0 -1.67811e-09)
(1.00051e-06 0 3.85311e-09)
(9.97641e-07 0 8.27336e-09)
(9.9162e-07 0 1.30635e-08)
(9.82566e-07 0 1.68848e-08)
(9.71122e-07 0 2.03465e-08)
(9.57149e-07 0 2.37942e-08)
(9.41013e-07 0 2.66897e-08)
(9.23091e-07 0 2.90595e-08)
(9.03635e-07 0 3.10437e-08)
(8.82921e-07 0 3.26343e-08)
(8.61235e-07 0 3.37551e-08)
(8.3883e-07 0 3.45819e-08)
(8.15895e-07 0 3.5146e-08)
(7.92625e-07 0 3.54378e-08)
(7.69176e-07 0 3.55462e-08)
(7.45677e-07 0 3.54143e-08)
(7.22244e-07 0 3.51449e-08)
(6.98943e-07 0 3.48359e-08)
(6.75851e-07 0 3.43468e-08)
(6.53029e-07 0 3.38655e-08)
(6.30482e-07 0 3.32926e-08)
(6.08213e-07 0 3.28167e-08)
(5.86272e-07 0 3.22527e-08)
(5.64589e-07 0 3.18589e-08)
(5.4316e-07 0 3.11735e-08)
(5.22041e-07 0 3.06215e-08)
(5.0124e-07 0 3.00819e-08)
(4.80723e-07 0 2.9524e-08)
(4.60478e-07 0 2.90882e-08)
(4.4049e-07 0 2.85896e-08)
(4.20779e-07 0 2.8035e-08)
(4.01359e-07 0 2.75643e-08)
(3.82234e-07 0 2.69743e-08)
(3.63409e-07 0 2.64787e-08)
(3.44906e-07 0 2.59114e-08)
(3.26707e-07 0 2.54662e-08)
(3.08818e-07 0 2.48856e-08)
(2.91258e-07 0 2.42974e-08)
(2.74068e-07 0 2.37068e-08)
(2.57234e-07 0 2.31517e-08)
(2.4074e-07 0 2.25916e-08)
(2.24588e-07 0 2.20363e-08)
(2.08801e-07 0 2.14525e-08)
(1.93355e-07 0 2.0931e-08)
(1.78238e-07 0 2.03948e-08)
(1.63485e-07 0 1.98654e-08)
(1.49115e-07 0 1.92525e-08)
(1.35106e-07 0 1.86544e-08)
(1.21481e-07 0 1.79766e-08)
(1.0826e-07 0 1.71527e-08)
(9.54178e-08 0 1.60078e-08)
(8.26407e-08 0 1.37382e-08)
(7.03775e-08 0 8.17329e-09)
(4.43786e-08 0 -7.67403e-09)
(2.90016e-08 0 5.52242e-08)
(1.41726e-09 0 5.48839e-08)
(4.5311e-15 0 -1.42082e-14)
(-4.46524e-16 0 -7.20268e-17)
(-8.83708e-16 0 -5.78923e-17)
(-9.08999e-16 0 -5.80371e-17)
(-9.38292e-16 0 -5.74167e-17)
(-9.28852e-16 0 -5.47077e-17)
(-8.90139e-16 0 -5.05407e-17)
(-8.31627e-16 0 -4.54639e-17)
(-7.60675e-16 0 -3.99011e-17)
(-6.82858e-16 0 -3.42453e-17)
(-6.02157e-16 0 -2.86308e-17)
(-5.21393e-16 0 -2.31817e-17)
(-4.42583e-16 0 -1.80015e-17)
(-3.67175e-16 0 -1.31005e-17)
(-2.9612e-16 0 -8.55098e-18)
(-2.3008e-16 0 -4.36338e-18)
(-1.69572e-16 0 -5.68687e-19)
(-1.14802e-16 0 2.84343e-18)
(-6.58436e-17 0 5.89366e-18)
(-2.27578e-17 0 8.62336e-18)
(1.45584e-17 0 1.09601e-17)
(4.63221e-17 0 1.29867e-17)
(7.27505e-17 0 1.47135e-17)
(9.41228e-17 0 1.613e-17)
(1.1078e-16 0 1.72984e-17)
(1.23095e-16 0 1.82497e-17)
(1.31387e-16 0 1.89941e-17)
(1.36051e-16 0 1.95111e-17)
(1.37395e-16 0 1.98834e-17)
(1.3574e-16 0 2.00695e-17)
(1.31491e-16 0 2.01522e-17)
(1.24946e-16 0 2.01315e-17)
(1.16374e-16 0 2.00385e-17)
(1.06065e-16 0 1.98627e-17)
(9.434e-17 0 1.96662e-17)
(8.14153e-17 0 1.94387e-17)
(6.74876e-17 0 1.91699e-17)
(5.28155e-17 0 1.89011e-17)
(3.75643e-17 0 1.86116e-17)
(2.18272e-17 0 1.82704e-17)
(6.92764e-18 0 1.77017e-17)
(3.89268e-08 0 -1.91985e-07)
(1.20657e-07 0 -1.89622e-07)
(1.97671e-07 0 -1.85808e-07)
(2.74779e-07 0 -1.79923e-07)
(3.48483e-07 0 -1.72548e-07)
(4.18626e-07 0 -1.64045e-07)
(4.84993e-07 0 -1.54737e-07)
(5.47331e-07 0 -1.44958e-07)
(6.05534e-07 0 -1.3496e-07)
(6.59607e-07 0 -1.24906e-07)
(7.09597e-07 0 -1.14919e-07)
(7.55579e-07 0 -1.05129e-07)
(7.9765e-07 0 -9.55847e-08)
(8.35882e-07 0 -8.59087e-08)
(8.70219e-07 0 -7.64084e-08)
(9.00628e-07 0 -6.59256e-08)
(9.27021e-07 0 -5.61957e-08)
(9.49804e-07 0 -4.81599e-08)
(9.69056e-07 0 -3.886e-08)
(9.84199e-07 0 -2.86339e-08)
(9.95319e-07 0 -1.81068e-08)
(1.0028e-06 0 -1.14933e-08)
(1.0069e-06 0 -2.14951e-09)
(1.00709e-06 0 7.13196e-09)
(1.00381e-06 0 1.43396e-08)
(9.97334e-07 0 2.26392e-08)
(9.87778e-07 0 2.87781e-08)
(9.75769e-07 0 3.46915e-08)
(9.61192e-07 0 4.04117e-08)
(9.44468e-07 0 4.51863e-08)
(9.25976e-07 0 4.91218e-08)
(9.05946e-07 0 5.23499e-08)
(8.84682e-07 0 5.49409e-08)
(8.62534e-07 0 5.66977e-08)
(8.39726e-07 0 5.803e-08)
(8.16408e-07 0 5.8862e-08)
(7.92795e-07 0 5.92516e-08)
(7.69065e-07 0 5.93425e-08)
(7.45357e-07 0 5.90196e-08)
(7.21783e-07 0 5.8463e-08)
(6.98378e-07 0 5.78944e-08)
(6.75201e-07 0 5.69967e-08)
(6.52301e-07 0 5.61122e-08)
(6.29709e-07 0 5.51596e-08)
(6.07431e-07 0 5.42095e-08)
(5.85515e-07 0 5.32131e-08)
(5.63848e-07 0 5.25311e-08)
(5.4242e-07 0 5.13998e-08)
(5.21281e-07 0 5.04032e-08)
(5.00469e-07 0 4.9476e-08)
(4.79959e-07 0 4.84809e-08)
(4.5973e-07 0 4.76942e-08)
(4.39751e-07 0 4.68166e-08)
(4.20022e-07 0 4.5829e-08)
(4.0057e-07 0 4.49808e-08)
(3.81424e-07 0 4.39582e-08)
(3.62588e-07 0 4.30365e-08)
(3.44093e-07 0 4.2007e-08)
(3.2589e-07 0 4.11589e-08)
(3.07998e-07 0 4.01178e-08)
(2.90432e-07 0 3.90535e-08)
(2.73227e-07 0 3.79878e-08)
(2.56368e-07 0 3.69958e-08)
(2.3986e-07 0 3.59803e-08)
(2.23707e-07 0 3.49571e-08)
(2.07913e-07 0 3.39155e-08)
(1.92464e-07 0 3.29362e-08)
(1.77371e-07 0 3.19287e-08)
(1.62618e-07 0 3.09213e-08)
(1.48218e-07 0 2.98676e-08)
(1.3416e-07 0 2.88289e-08)
(1.20407e-07 0 2.77172e-08)
(1.06876e-07 0 2.65025e-08)
(9.34151e-08 0 2.4954e-08)
(7.9417e-08 0 2.27763e-08)
(6.49239e-08 0 2.01248e-08)
(3.95728e-08 0 1.69966e-08)
(2.41013e-08 0 6.33758e-08)
(1.34771e-09 0 7.11478e-08)
(4.28186e-15 0 -2.23528e-14)
(-4.43233e-16 0 -1.13748e-16)
(-8.77711e-16 0 -1.05197e-16)
(-9.03064e-16 0 -9.69559e-17)
(-9.3123e-16 0 -8.75467e-17)
(-9.20911e-16 0 -7.7176e-17)
(-8.81775e-16 0 -6.64123e-17)
(-8.2321e-16 0 -5.56072e-17)
(-7.52507e-16 0 -4.50917e-17)
(-6.75073e-16 0 -3.51345e-17)
(-5.94826e-16 0 -2.57563e-17)
(-5.14589e-16 0 -1.70709e-17)
(-4.36338e-16 0 -9.14035e-18)
(-3.61488e-16 0 -1.94387e-18)
(-2.91002e-16 0 4.53915e-18)
(-2.25541e-16 0 1.02777e-17)
(-1.65581e-16 0 1.52925e-17)
(-1.11339e-16 0 1.96662e-17)
(-6.28657e-17 0 2.33782e-17)
(-2.02452e-17 0 2.65215e-17)
(1.6647e-17 0 2.91168e-17)
(4.80178e-17 0 3.11847e-17)
(7.40637e-17 0 3.27874e-17)
(9.51258e-17 0 3.39971e-17)
(1.11525e-16 0 3.48346e-17)
(1.23581e-16 0 3.53723e-17)
(1.31635e-16 0 3.56411e-17)
(1.36092e-16 0 3.56308e-17)
(1.37281e-16 0 3.54344e-17)
(1.35503e-16 0 3.50828e-17)
(1.31149e-16 0 3.45968e-17)
(1.24532e-16 0 3.40385e-17)
(1.15909e-16 0 3.33871e-17)
(1.0559e-16 0 3.27357e-17)
(9.38643e-17 0 3.20533e-17)
(8.09396e-17 0 3.14122e-17)
(6.7043e-17 0 3.08021e-17)
(5.24019e-17 0 3.02645e-17)
(3.71818e-17 0 2.97578e-17)
(2.15377e-17 0 2.93649e-17)
(6.8139e-18 0 2.91168e-17)
(4.00733e-08 0 -2.70712e-07)
(1.24855e-07 0 -2.67353e-07)
(2.03795e-07 0 -2.61533e-07)
(2.82911e-07 0 -2.52856e-07)
(3.58211e-07 0 -2.42058e-07)
(4.29487e-07 0 -2.29717e-07)
(4.96579e-07 0 -2.16311e-07)
(5.59301e-07 0 -2.02336e-07)
(6.1764e-07 0 -1.8815e-07)
(6.71662e-07 0 -1.73994e-07)
(7.21503e-07 0 -1.60031e-07)
(7.67317e-07 0 -1.46426e-07)
(8.09227e-07 0 -1.33095e-07)
(8.47314e-07 0 -1.19749e-07)
(8.8151e-07 0 -1.065e-07)
(9.11876e-07 0 -9.1529e-08)
(9.38191e-07 0 -7.88354e-08)
(9.61087e-07 0 -6.72148e-08)
(9.80353e-07 0 -5.4229e-08)
(9.95337e-07 0 -3.91576e-08)
(1.00614e-06 0 -2.57022e-08)
(1.0136e-06 0 -1.53339e-08)
(1.01744e-06 0 -2.23889e-09)
(1.01698e-06 0 1.08111e-08)
(1.01308e-06 0 2.07847e-08)
(1.0059e-06 0 3.2858e-08)
(9.95642e-07 0 4.11849e-08)
(9.82733e-07 0 4.97191e-08)
(9.67252e-07 0 5.7725e-08)
(9.49639e-07 0 6.43662e-08)
(9.3028e-07 0 6.98389e-08)
(9.09393e-07 0 7.43721e-08)
(8.87313e-07 0 7.78488e-08)
(8.64445e-07 0 8.01965e-08)
(8.40987e-07 0 8.20254e-08)
(8.17102e-07 0 8.30899e-08)
(7.93012e-07 0 8.35322e-08)
(7.68879e-07 0 8.35528e-08)
(7.44852e-07 0 8.29898e-08)
(7.21018e-07 0 8.21596e-08)
(6.97407e-07 0 8.12742e-08)
(6.7413e-07 0 7.9971e-08)
(6.51191e-07 0 7.86606e-08)
(6.28561e-07 0 7.7326e-08)
(6.06233e-07 0 7.59314e-08)
(5.84316e-07 0 7.44984e-08)
(5.62718e-07 0 7.35641e-08)
(5.41341e-07 0 7.1991e-08)
(5.20182e-07 0 7.05434e-08)
(4.99367e-07 0 6.92732e-08)
(4.78886e-07 0 6.78275e-08)
(4.58642e-07 0 6.67746e-08)
(4.38647e-07 0 6.55949e-08)
(4.18912e-07 0 6.41931e-08)
(3.9944e-07 0 6.30245e-08)
(3.80305e-07 0 6.15574e-08)
(3.61445e-07 0 6.02685e-08)
(3.42904e-07 0 5.88669e-08)
(3.24656e-07 0 5.76807e-08)
(3.06771e-07 0 5.62148e-08)
(2.89203e-07 0 5.47364e-08)
(2.71981e-07 0 5.3268e-08)
(2.55121e-07 0 5.18391e-08)
(2.38631e-07 0 5.03896e-08)
(2.22503e-07 0 4.89485e-08)
(2.06713e-07 0 4.7536e-08)
(1.91251e-07 0 4.61588e-08)
(1.76141e-07 0 4.47902e-08)
(1.61395e-07 0 4.33916e-08)
(1.46994e-07 0 4.19501e-08)
(1.32885e-07 0 4.05684e-08)
(1.1907e-07 0 3.91197e-08)
(1.05478e-07 0 3.76437e-08)
(9.19474e-08 0 3.61192e-08)
(7.80969e-08 0 3.46022e-08)
(6.48449e-08 0 3.33325e-08)
(4.64018e-08 0 3.49529e-08)
(2.46799e-08 0 7.61033e-08)
(1.3175e-09 0 8.50438e-08)
(4.26069e-15 0 -3.1418e-14)
(-4.37954e-16 0 -1.59884e-16)
(-8.66906e-16 0 -1.46442e-16)
(-8.91329e-16 0 -1.32494e-16)
(-9.18512e-16 0 -1.1746e-16)
(-9.07717e-16 0 -1.01774e-16)
(-8.6856e-16 0 -8.60475e-17)
(-8.10317e-16 0 -7.06619e-17)
(-7.40203e-16 0 -5.59071e-17)
(-6.63513e-16 0 -4.20208e-17)
(-5.84103e-16 0 -2.90754e-17)
(-5.04777e-16 0 -1.72054e-17)
(-4.27456e-16 0 -6.41065e-18)
(-3.53506e-16 0 3.28804e-18)
(-2.83888e-16 0 1.19114e-17)
(-2.19317e-16 0 1.94904e-17)
(-1.60173e-16 0 2.60769e-17)
(-1.06696e-16 0 3.17431e-17)
(-5.89883e-17 0 3.652e-17)
(-1.70296e-17 0 4.04388e-17)
(1.9232e-17 0 4.36441e-17)
(5.00134e-17 0 4.61257e-17)
(7.5563e-17 0 4.79972e-17)
(9.61701e-17 0 4.9331e-17)
(1.12155e-16 0 5.01685e-17)
(1.2387e-16 0 5.05924e-17)
(1.31656e-16 0 5.06545e-17)
(1.35854e-16 0 5.03753e-17)
(1.36826e-16 0 4.98893e-17)
(1.34903e-16 0 4.91759e-17)
(1.30426e-16 0 4.83487e-17)
(1.23715e-16 0 4.73871e-17)
(1.15071e-16 0 4.63635e-17)
(1.04742e-16 0 4.53295e-17)
(9.30061e-17 0 4.42955e-17)
(8.01538e-17 0 4.33339e-17)
(6.63502e-17 0 4.24344e-17)
(5.17815e-17 0 4.16692e-17)
(3.66648e-17 0 4.09971e-17)
(2.11758e-17 0 4.05112e-17)
(6.67948e-18 0 4.0232e-17)
(4.17941e-08 0 -3.52928e-07)
(1.30595e-07 0 -3.48239e-07)
(2.12413e-07 0 -3.40113e-07)
(2.94259e-07 0 -3.28208e-07)
(3.71681e-07 0 -3.1343e-07)
(4.44391e-07 0 -2.96735e-07)
(5.12356e-07 0 -2.78798e-07)
(5.75489e-07 0 -2.60279e-07)
(6.3389e-07 0 -2.41655e-07)
(6.87767e-07 0 -2.23224e-07)
(7.3736e-07 0 -2.05198e-07)
(7.82842e-07 0 -1.87855e-07)
(8.2457e-07 0 -1.70502e-07)
(8.62396e-07 0 -1.53833e-07)
(8.96346e-07 0 -1.3658e-07)
(9.2685e-07 0 -1.16482e-07)
(9.53116e-07 0 -1.02026e-07)
(9.76265e-07 0 -8.68224e-08)
(9.95432e-07 0 -6.95682e-08)
(1.01041e-06 0 -4.79848e-08)
(1.02076e-06 0 -3.51028e-08)
(1.02831e-06 0 -1.86877e-08)
(1.03152e-06 0 -1.6067e-09)
(1.0303e-06 0 1.49173e-08)
(1.02561e-06 0 2.81228e-08)
(1.01744e-06 0 4.37332e-08)
(1.0062e-06 0 5.45214e-08)
(9.9208e-07 0 6.58768e-08)
(9.75355e-07 0 7.60353e-08)
(9.56516e-07 0 8.45402e-08)
(9.35949e-07 0 9.15607e-08)
(9.13887e-07 0 9.7382e-08)
(8.90725e-07 0 1.01607e-07)
(8.6687e-07 0 1.04464e-07)
(8.42522e-07 0 1.06716e-07)
(8.17883e-07 0 1.07861e-07)
(7.93152e-07 0 1.08303e-07)
(7.68497e-07 0 1.08115e-07)
(7.44082e-07 0 1.07232e-07)
(7.19947e-07 0 1.06092e-07)
(6.96109e-07 0 1.04732e-07)
(6.72674e-07 0 1.02969e-07)
(6.49635e-07 0 1.01216e-07)
(6.26955e-07 0 9.94882e-08)
(6.04621e-07 0 9.76503e-08)
(5.82731e-07 0 9.5538e-08)
(5.61182e-07 0 9.44836e-08)
(5.39907e-07 0 9.263e-08)
(5.18748e-07 0 9.06245e-08)
(4.97882e-07 0 8.90025e-08)
(4.77422e-07 0 8.71801e-08)
(4.57194e-07 0 8.57997e-08)
(4.37204e-07 0 8.43119e-08)
(4.17486e-07 0 8.25031e-08)
(3.97988e-07 0 8.10092e-08)
(3.78817e-07 0 7.91579e-08)
(3.59911e-07 0 7.75115e-08)
(3.41348e-07 0 7.57131e-08)
(3.23065e-07 0 7.41237e-08)
(3.05162e-07 0 7.22453e-08)
(2.87585e-07 0 7.03565e-08)
(2.70361e-07 0 6.84551e-08)
(2.53498e-07 0 6.66256e-08)
(2.36991e-07 0 6.47845e-08)
(2.20854e-07 0 6.29166e-08)
(2.05069e-07 0 6.11549e-08)
(1.89629e-07 0 5.93584e-08)
(1.74536e-07 0 5.75803e-08)
(1.59808e-07 0 5.57901e-08)
(1.45398e-07 0 5.40137e-08)
(1.31288e-07 0 5.22798e-08)
(1.17499e-07 0 5.05133e-08)
(1.03997e-07 0 4.8793e-08)
(9.07804e-08 0 4.71987e-08)
(7.76486e-08 0 4.60471e-08)
(6.56665e-08 0 4.55907e-08)
(4.98774e-08 0 4.84681e-08)
(2.53134e-08 0 9.76974e-08)
(1.29417e-09 0 1.01282e-07)
(4.23721e-15 0 -4.06018e-14)
(-4.2967e-16 0 -2.06743e-16)
(-8.50321e-16 0 -1.87429e-16)
(-8.74072e-16 0 -1.67856e-16)
(-9.00521e-16 0 -1.47373e-16)
(-8.89509e-16 0 -1.26528e-16)
(-8.50642e-16 0 -1.05869e-16)
(-7.93059e-16 0 -8.59027e-17)
(-7.23866e-16 0 -6.69293e-17)
(-6.48251e-16 0 -4.91139e-17)
(-5.7001e-16 0 -3.26323e-17)
(-4.91924e-16 0 -1.75776e-17)
(-4.15855e-16 0 -3.94979e-18)
(-3.43156e-16 0 8.25113e-18)
(-2.74779e-16 0 1.90458e-17)
(-2.11365e-16 0 2.8455e-17)
(-1.53318e-16 0 3.66234e-17)
(-1.00885e-16 0 4.35304e-17)
(-5.41597e-17 0 4.9362e-17)
(-1.31108e-17 0 5.40769e-17)
(2.23339e-17 0 5.78613e-17)
(5.23605e-17 0 6.07874e-17)
(7.72483e-17 0 6.29174e-17)
(9.72868e-17 0 6.4365e-17)
(1.12786e-16 0 6.52025e-17)
(1.24056e-16 0 6.55127e-17)
(1.31418e-16 0 6.53576e-17)
(1.35316e-16 0 6.4851e-17)
(1.36071e-16 0 6.40238e-17)
(1.33972e-16 0 6.29691e-17)
(1.29361e-16 0 6.1749e-17)
(1.22547e-16 0 6.04049e-17)
(1.13851e-16 0 5.90193e-17)
(1.03542e-16 0 5.75925e-17)
(9.18791e-17 0 5.62173e-17)
(7.90785e-17 0 5.49248e-17)
(6.53783e-17 0 5.37564e-17)
(5.0975e-17 0 5.27431e-17)
(3.60444e-17 0 5.19366e-17)
(2.07622e-17 0 5.13576e-17)
(6.52439e-18 0 5.1037e-17)
(4.41266e-08 0 -4.397e-07)
(1.38213e-07 0 -4.33435e-07)
(2.24059e-07 0 -4.22536e-07)
(3.09516e-07 0 -4.06693e-07)
(3.89638e-07 0 -3.87145e-07)
(4.64111e-07 0 -3.65289e-07)
(5.33019e-07 0 -3.42156e-07)
(5.96457e-07 0 -3.18527e-07)
(6.54685e-07 0 -2.95127e-07)
(7.0816e-07 0 -2.72273e-07)
(7.57249e-07 0 -2.50144e-07)
(8.0225e-07 0 -2.28928e-07)
(8.43715e-07 0 -2.07637e-07)
(8.81033e-07 0 -1.87998e-07)
(9.14728e-07 0 -1.66251e-07)
(9.45247e-07 0 -1.42507e-07)
(9.71907e-07 0 -1.25298e-07)
(9.95481e-07 0 -1.0603e-07)
(1.0143e-06 0 -8.43791e-08)
(1.02922e-06 0 -5.81879e-08)
(1.03964e-06 0 -4.30809e-08)
(1.04702e-06 0 -2.16829e-08)
(1.0493e-06 0 -2.06491e-10)
(1.04728e-06 0 1.95341e-08)
(1.04157e-06 0 3.6944e-08)
(1.03207e-06 0 5.55855e-08)
(1.01955e-06 0 6.92551e-08)
(1.00388e-06 0 8.33761e-08)
(9.85536e-07 0 9.57993e-08)
(9.65081e-07 0 1.06031e-07)
(9.4292e-07 0 1.14735e-07)
(9.19367e-07 0 1.21639e-07)
(8.94826e-07 0 1.26555e-07)
(8.69725e-07 0 1.29792e-07)
(8.44253e-07 0 1.32334e-07)
(8.18666e-07 0 1.33402e-07)
(7.9313e-07 0 1.33775e-07)
(7.67832e-07 0 1.33138e-07)
(7.4292e-07 0 1.31845e-07)
(7.18424e-07 0 1.30304e-07)
(6.94329e-07 0 1.28402e-07)
(6.70722e-07 0 1.26109e-07)
(6.47616e-07 0 1.23818e-07)
(6.24921e-07 0 1.21652e-07)
(6.02626e-07 0 1.19287e-07)
(5.80727e-07 0 1.16739e-07)
(5.59233e-07 0 1.15007e-07)
(5.38042e-07 0 1.13395e-07)
(5.16973e-07 0 1.10747e-07)
(4.96039e-07 0 1.08723e-07)
(4.7559e-07 0 1.06551e-07)
(4.55382e-07 0 1.04812e-07)
(4.35389e-07 0 1.03037e-07)
(4.15678e-07 0 1.00864e-07)
(3.9613e-07 0 9.90757e-08)
(3.7693e-07 0 9.67663e-08)
(3.57987e-07 0 9.47717e-08)
(3.39406e-07 0 9.25864e-08)
(3.21072e-07 0 9.0629e-08)
(3.03137e-07 0 8.82814e-08)
(2.85515e-07 0 8.60147e-08)
(2.68295e-07 0 8.36166e-08)
(2.51431e-07 0 8.13924e-08)
(2.34968e-07 0 7.91009e-08)
(2.18855e-07 0 7.68056e-08)
(2.03076e-07 0 7.46528e-08)
(1.87651e-07 0 7.24826e-08)
(1.72587e-07 0 7.02826e-08)
(1.57865e-07 0 6.81275e-08)
(1.43453e-07 0 6.60078e-08)
(1.29373e-07 0 6.39018e-08)
(1.15634e-07 0 6.17957e-08)
(1.02285e-07 0 5.97049e-08)
(8.94466e-08 0 5.77328e-08)
(7.68228e-08 0 5.63815e-08)
(6.63138e-08 0 5.488e-08)
(5.37069e-08 0 5.80008e-08)
(2.655e-08 0 1.22563e-07)
(1.27099e-09 0 1.15903e-07)
(4.17853e-15 0 -4.95698e-14)
(-4.18449e-16 0 -2.53314e-16)
(-8.28018e-16 0 -2.2824e-16)
(-8.51262e-16 0 -2.03063e-16)
(-8.77173e-16 0 -1.77058e-16)
(-8.66213e-16 0 -1.5096e-16)
(-8.27935e-16 0 -1.25349e-16)
(-7.71377e-16 0 -1.0073e-16)
(-7.03403e-16 0 -7.74551e-17)
(-6.29216e-16 0 -5.57003e-17)
(-5.52577e-16 0 -3.56722e-17)
(-4.76094e-16 0 -1.74432e-17)
(-4.01617e-16 0 -1.00296e-18)
(-3.3051e-16 0 1.36278e-17)
(-2.63695e-16 0 2.65422e-17)
(-2.01739e-16 0 3.77711e-17)
(-1.45098e-16 0 4.74078e-17)
(-9.39781e-17 0 5.55555e-17)
(-4.84418e-17 0 6.23487e-17)
(-8.51996e-18 0 6.78392e-17)
(2.59425e-17 0 7.21508e-17)
(5.50696e-17 0 7.54389e-17)
(7.91302e-17 0 7.7786e-17)
(9.84448e-17 0 7.93059e-17)
(1.13293e-16 0 8.01021e-17)
(1.24036e-16 0 8.02572e-17)
(1.30984e-16 0 7.98746e-17)
(1.3451e-16 0 7.90992e-17)
(1.34965e-16 0 7.79101e-17)
(1.32638e-16 0 7.64832e-17)
(1.27872e-16 0 7.48288e-17)
(1.20986e-16 0 7.30814e-17)
(1.12248e-16 0 7.1303e-17)
(1.0195e-16 0 6.94832e-17)
(9.03592e-17 0 6.77668e-17)
(7.76929e-17 0 6.61331e-17)
(6.41582e-17 0 6.46752e-17)
(4.99617e-17 0 6.34551e-17)
(3.52689e-17 0 6.25038e-17)
(2.02763e-17 0 6.17904e-17)
(6.36929e-18 0 6.14492e-17)
(4.72651e-08 0 -5.32377e-07)
(1.4842e-07 0 -5.24022e-07)
(2.39534e-07 0 -5.09557e-07)
(3.29652e-07 0 -4.88663e-07)
(4.13047e-07 0 -4.63218e-07)
(4.8944e-07 0 -4.35152e-07)
(5.59134e-07 0 -4.05967e-07)
(6.22587e-07 0 -3.76652e-07)
(6.80334e-07 0 -3.4806e-07)
(7.32969e-07 0 -3.20659e-07)
(7.81005e-07 0 -2.94662e-07)
(8.25601e-07 0 -2.68851e-07)
(8.6618e-07 0 -2.45354e-07)
(9.02936e-07 0 -2.21558e-07)
(9.36895e-07 0 -1.93793e-07)
(9.67047e-07 0 -1.70705e-07)
(9.94635e-07 0 -1.49146e-07)
(1.01835e-06 0 -1.25792e-07)
(1.03734e-06 0 -9.76809e-08)
(1.05203e-06 0 -6.98775e-08)
(1.0629e-06 0 -5.02993e-08)
(1.06993e-06 0 -2.41306e-08)
(1.07109e-06 0 2.23111e-09)
(1.06812e-06 0 2.47438e-08)
(1.06108e-06 0 4.73687e-08)
(1.04988e-06 0 6.86387e-08)
(1.03579e-06 0 8.56531e-08)
(1.01816e-06 0 1.02625e-07)
(9.97757e-07 0 1.17506e-07)
(9.75278e-07 0 1.29418e-07)
(9.51122e-07 0 1.39556e-07)
(9.25699e-07 0 1.47536e-07)
(8.99481e-07 0 1.52898e-07)
(8.72853e-07 0 1.56479e-07)
(8.46009e-07 0 1.5908e-07)
(8.19255e-07 0 1.59936e-07)
(7.92769e-07 0 1.59964e-07)
(7.66728e-07 0 1.58806e-07)
(7.4123e-07 0 1.56909e-07)
(7.16305e-07 0 1.54848e-07)
(6.91975e-07 0 1.5224e-07)
(6.68235e-07 0 1.49358e-07)
(6.45068e-07 0 1.46435e-07)
(6.22332e-07 0 1.43883e-07)
(6.0013e-07 0 1.40758e-07)
(5.78225e-07 0 1.38202e-07)
(5.56879e-07 0 1.35194e-07)
(5.35742e-07 0 1.3407e-07)
(5.14901e-07 0 1.30939e-07)
(4.9398e-07 0 1.28344e-07)
(4.73473e-07 0 1.25953e-07)
(4.53282e-07 0 1.23781e-07)
(4.33275e-07 0 1.21794e-07)
(4.13559e-07 0 1.19247e-07)
(3.93919e-07 0 1.17183e-07)
(3.7466e-07 0 1.14468e-07)
(3.55653e-07 0 1.12087e-07)
(3.37034e-07 0 1.09521e-07)
(3.18663e-07 0 1.07165e-07)
(3.00694e-07 0 1.04404e-07)
(2.83034e-07 0 1.01672e-07)
(2.65794e-07 0 9.88604e-08)
(2.48933e-07 0 9.61617e-08)
(2.32456e-07 0 9.34675e-08)
(2.164e-07 0 9.07043e-08)
(2.00622e-07 0 8.82636e-08)
(1.8527e-07 0 8.55829e-08)
(1.70248e-07 0 8.29843e-08)
(1.55554e-07 0 8.05002e-08)
(1.41162e-07 0 7.80372e-08)
(1.27082e-07 0 7.55766e-08)
(1.13342e-07 0 7.31125e-08)
(1.00035e-07 0 7.05645e-08)
(8.74787e-08 0 6.7921e-08)
(7.52754e-08 0 6.56374e-08)
(6.60163e-08 0 6.14627e-08)
(4.63122e-08 0 7.7292e-08)
(2.24403e-08 0 1.59784e-07)
(1.24606e-09 0 1.23989e-07)
(4.09179e-15 0 -5.81009e-14)
(-4.04396e-16 0 -2.9946e-16)
(-8.0008e-16 0 -2.68606e-16)
(-8.2289e-16 0 -2.37835e-16)
(-8.48398e-16 0 -2.06299e-16)
(-8.37789e-16 0 -1.74845e-16)
(-8.00421e-16 0 -1.44209e-16)
(-7.45166e-16 0 -1.14885e-16)
(-6.78826e-16 0 -8.72469e-17)
(-6.06458e-16 0 -6.15836e-17)
(-5.31753e-16 0 -3.80296e-17)
(-4.57265e-16 0 -1.6616e-17)
(-3.84784e-16 0 2.58494e-18)
(-3.15621e-16 0 1.96249e-17)
(-2.50667e-16 0 3.45865e-17)
(-1.9051e-16 0 4.75526e-17)
(-1.35534e-16 0 5.86161e-17)
(-8.59648e-17 0 6.79322e-17)
(-4.18864e-17 0 7.5594e-17)
(-3.29838e-18 0 8.17772e-17)
(2.99336e-17 0 8.65748e-17)
(5.8006e-17 0 9.01627e-17)
(8.11361e-17 0 9.26649e-17)
(9.96029e-17 0 9.41952e-17)
(1.13717e-16 0 9.4888e-17)
(1.23829e-16 0 9.48776e-17)
(1.3026e-16 0 9.42469e-17)
(1.33362e-16 0 9.31095e-17)
(1.33486e-16 0 9.15586e-17)
(1.30901e-16 0 8.96871e-17)
(1.25959e-16 0 8.76295e-17)
(1.19011e-16 0 8.54167e-17)
(1.10243e-16 0 8.3204e-17)
(9.99855e-17 0 8.09913e-17)
(8.85083e-17 0 7.89027e-17)
(7.59869e-17 0 7.69588e-17)
(6.27003e-17 0 7.52217e-17)
(4.87933e-17 0 7.37638e-17)
(3.43694e-17 0 7.26265e-17)
(1.97076e-17 0 7.18406e-17)
(6.18318e-18 0 7.14374e-17)
(5.14339e-08 0 -6.3293e-07)
(1.62016e-07 0 -6.21735e-07)
(2.59974e-07 0 -6.02429e-07)
(3.55852e-07 0 -5.74958e-07)
(4.43124e-07 0 -5.41932e-07)
(5.2145e-07 0 -5.062e-07)
(5.91596e-07 0 -4.69759e-07)
(6.54458e-07 0 -4.34136e-07)
(7.11031e-07 0 -3.99963e-07)
(7.61912e-07 0 -3.6819e-07)
(8.08902e-07 0 -3.374e-07)
(8.52371e-07 0 -3.08587e-07)
(8.91807e-07 0 -2.82162e-07)
(9.27961e-07 0 -2.54163e-07)
(9.62359e-07 0 -2.22215e-07)
(9.92724e-07 0 -1.99364e-07)
(1.02116e-06 0 -1.73181e-07)
(1.0445e-06 0 -1.46107e-07)
(1.06503e-06 0 -1.07813e-07)
(1.07894e-06 0 -8.73848e-08)
(1.09116e-06 0 -5.54906e-08)
(1.09684e-06 0 -2.57895e-08)
(1.0972e-06 0 5.56527e-09)
(1.09313e-06 0 3.07953e-08)
(1.08446e-06 0 6.09131e-08)
(1.07135e-06 0 8.24047e-08)
(1.05502e-06 0 1.04252e-07)
(1.03499e-06 0 1.24188e-07)
(1.01206e-06 0 1.41332e-07)
(9.87092e-07 0 1.55097e-07)
(9.60479e-07 0 1.66515e-07)
(9.32716e-07 0 1.75386e-07)
(9.04477e-07 0 1.8104e-07)
(8.76024e-07 0 1.84781e-07)
(8.47562e-07 0 1.87153e-07)
(8.19447e-07 0 1.87615e-07)
(7.9185e-07 0 1.87067e-07)
(7.64998e-07 0 1.85148e-07)
(7.38902e-07 0 1.82495e-07)
(7.13512e-07 0 1.79721e-07)
(6.88935e-07 0 1.76255e-07)
(6.65091e-07 0 1.7272e-07)
(6.41903e-07 0 1.69057e-07)
(6.19179e-07 0 1.66035e-07)
(5.97142e-07 0 1.62152e-07)
(5.7534e-07 0 1.59576e-07)
(5.54157e-07 0 1.55266e-07)
(5.32963e-07 0 1.54629e-07)
(5.12482e-07 0 1.51217e-07)
(4.91689e-07 0 1.47862e-07)
(4.70975e-07 0 1.45468e-07)
(4.50821e-07 0 1.42748e-07)
(4.30807e-07 0 1.40609e-07)
(4.11086e-07 0 1.37753e-07)
(3.91358e-07 0 1.35388e-07)
(3.72044e-07 0 1.32281e-07)
(3.5294e-07 0 1.29462e-07)
(3.34224e-07 0 1.26552e-07)
(3.15811e-07 0 1.23761e-07)
(2.97806e-07 0 1.20669e-07)
(2.80152e-07 0 1.17335e-07)
(2.62859e-07 0 1.1409e-07)
(2.4602e-07 0 1.1097e-07)
(2.29612e-07 0 1.07768e-07)
(2.13523e-07 0 1.04692e-07)
(1.978e-07 0 1.01751e-07)
(1.82512e-07 0 9.86513e-08)
(1.6754e-07 0 9.57088e-08)
(1.5289e-07 0 9.28854e-08)
(1.38511e-07 0 9.01096e-08)
(1.24401e-07 0 8.73163e-08)
(1.10576e-07 0 8.45055e-08)
(9.70975e-08 0 8.1557e-08)
(8.41918e-08 0 7.83053e-08)
(7.27542e-08 0 7.4301e-08)
(6.2472e-08 0 6.80684e-08)
(4.08505e-08 0 9.89617e-08)
(1.75463e-08 0 1.77429e-07)
(1.21932e-09 0 1.27901e-07)
(3.95601e-15 0 -6.58867e-14)
(-3.87379e-16 0 -3.45017e-16)
(-7.66383e-16 0 -3.08301e-16)
(-7.88955e-16 0 -2.71894e-16)
(-8.14194e-16 0 -2.34785e-16)
(-8.04123e-16 0 -1.97944e-16)
(-7.67975e-16 0 -1.62189e-16)
(-7.14415e-16 0 -1.2813e-16)
(-6.50112e-16 0 -9.61391e-17)
(-5.79988e-16 0 -6.65467e-17)
(-5.07589e-16 0 -3.94565e-17)
(-4.35469e-16 0 -1.4941e-17)
(-3.65366e-16 0 6.969e-18)
(-2.98509e-16 0 2.63457e-17)
(-2.35767e-16 0 4.32926e-17)
(-1.77709e-16 0 5.78923e-17)
(-1.24718e-16 0 7.03207e-17)
(-7.69898e-17 0 8.06811e-17)
(-3.45968e-17 0 8.91701e-17)
(2.46086e-18 0 9.5953e-17)
(3.4328e-17 0 1.01175e-16)
(6.11493e-17 0 1.05e-16)
(8.31627e-17 0 1.07575e-16)
(1.00678e-16 0 1.09053e-16)
(1.13985e-16 0 1.09581e-16)
(1.23395e-16 0 1.09333e-16)
(1.29216e-16 0 1.08371e-16)
(1.31822e-16 0 1.06851e-16)
(1.31553e-16 0 1.04876e-16)
(1.28709e-16 0 1.0257e-16)
(1.23601e-16 0 1.00048e-16)
(1.1656e-16 0 9.73902e-17)
(1.07823e-16 0 9.47018e-17)
(9.76487e-17 0 9.20859e-17)
(8.6306e-17 0 8.96147e-17)
(7.40223e-17 0 8.73503e-17)
(6.09839e-17 0 8.53754e-17)
(4.73561e-17 0 8.37003e-17)
(3.33561e-17 0 8.23769e-17)
(1.90975e-17 0 8.15187e-17)
(5.9557e-18 0 8.10534e-17)
(5.70164e-08 0 -7.44034e-07)
(1.80107e-07 0 -7.29039e-07)
(2.87244e-07 0 -7.02751e-07)
(3.89993e-07 0 -6.66399e-07)
(4.81742e-07 0 -6.23441e-07)
(5.61652e-07 0 -5.78078e-07)
(6.31437e-07 0 -5.3289e-07)
(6.92619e-07 0 -4.90169e-07)
(7.46702e-07 0 -4.50248e-07)
(7.95335e-07 0 -4.13281e-07)
(8.40683e-07 0 -3.78342e-07)
(8.821e-07 0 -3.47695e-07)
(9.19475e-07 0 -3.19411e-07)
(9.56849e-07 0 -2.83217e-07)
(9.90068e-07 0 -2.55307e-07)
(1.02226e-06 0 -2.27227e-07)
(1.05047e-06 0 -1.99125e-07)
(1.07521e-06 0 -1.63707e-07)
(1.09636e-06 0 -1.24855e-07)
(1.11172e-06 0 -9.91228e-08)
(1.12378e-06 0 -6.1825e-08)
(1.12853e-06 0 -2.62002e-08)
(1.12817e-06 0 8.7715e-09)
(1.1227e-06 0 4.00548e-08)
(1.11194e-06 0 7.43606e-08)
(1.09666e-06 0 9.95684e-08)
(1.07741e-06 0 1.25443e-07)
(1.0544e-06 0 1.48699e-07)
(1.02845e-06 0 1.67827e-07)
(1.00042e-06 0 1.83507e-07)
(9.70821e-07 0 1.96359e-07)
(9.40336e-07 0 2.05463e-07)
(9.0967e-07 0 2.11218e-07)
(8.79006e-07 0 2.15011e-07)
(8.48672e-07 0 2.16745e-07)
(8.18982e-07 0 2.16768e-07)
(7.90184e-07 0 2.15037e-07)
(7.62439e-07 0 2.12207e-07)
(7.35699e-07 0 2.08705e-07)
(7.09872e-07 0 2.04844e-07)
(6.85091e-07 0 2.00414e-07)
(6.61228e-07 0 1.95999e-07)
(6.38058e-07 0 1.9189e-07)
(6.15486e-07 0 1.87852e-07)
(5.93581e-07 0 1.83509e-07)
(5.7207e-07 0 1.80334e-07)
(5.50904e-07 0 1.76437e-07)
(5.30101e-07 0 1.73517e-07)
(5.0956e-07 0 1.71846e-07)
(4.8919e-07 0 1.67593e-07)
(4.68313e-07 0 1.64888e-07)
(4.481e-07 0 1.61773e-07)
(4.28064e-07 0 1.59409e-07)
(4.08263e-07 0 1.56457e-07)
(3.88505e-07 0 1.5355e-07)
(3.69025e-07 0 1.50358e-07)
(3.49869e-07 0 1.46907e-07)
(3.30949e-07 0 1.43834e-07)
(3.12589e-07 0 1.40243e-07)
(2.94454e-07 0 1.36995e-07)
(2.76775e-07 0 1.33204e-07)
(2.59498e-07 0 1.29294e-07)
(2.42619e-07 0 1.2577e-07)
(2.26235e-07 0 1.22195e-07)
(2.10237e-07 0 1.18599e-07)
(1.94565e-07 0 1.1521e-07)
(1.7938e-07 0 1.11721e-07)
(1.64489e-07 0 1.08416e-07)
(1.4988e-07 0 1.0526e-07)
(1.35537e-07 0 1.0219e-07)
(1.21434e-07 0 9.91229e-08)
(1.07486e-07 0 9.60445e-08)
(9.36672e-08 0 9.28415e-08)
(7.99099e-08 0 8.92848e-08)
(6.67055e-08 0 8.48472e-08)
(5.00613e-08 0 7.79304e-08)
(3.63096e-08 0 1.2881e-07)
(8.10229e-09 0 1.79455e-07)