0 	1.81478e-20 	0 	-5.08138e-20
0.010101 	-3.62283e-20 	1.35517e-22 	-4.49767e-20
0.020202 	2.62494e-20 	-3.38111e-22 	-9.5665e-20
0.030303 	-3.84397e-21 	-1.01212e-22 	-5.16013e-20
0.040404 	2.66123e-20 	-3.04657e-22 	-5.22857e-20
0.0505051 	-6.33635e-20 	2.36729e-22 	-1.25757e-20
