0.010101 	-7.20413e-09 	-1.51078e-13 	-2.12394e-11
0.020202 	-8.57679e-10 	1.93557e-13 	-1.2382e-11
