/*--------------------------------*- C++ -*----------------------------------*\
  =========                 |
  \\      /  F ield         | OpenFOAM: The Open Source CFD Toolbox
   \\    /   O peration     | Website:  https://openfoam.org
    \\  /    A nd           | Version:  6
     \\/     M anipulation  |
\*---------------------------------------------------------------------------*/
FoamFile
{
    version     2.0;
    format      ascii;
    class       surfaceScalarField;
    location    "1100";
    object      phi;
}
// * * * * * * * * * * * * * * * * * * * * * * * * * * * * * * * * * * * * * //

dimensions      [0 3 -1 0 0 0 0];

internalField   nonuniform List<scalar> 
9440
(
-1.47267e-10
1.47267e-10
-3.76342e-10
2.29076e-10
-6.11843e-10
2.35501e-10
-7.98391e-10
1.86548e-10
-9.12187e-10
1.13796e-10
-1.02295e-09
1.10763e-10
-1.09891e-09
7.596e-11
-1.13019e-09
3.128e-11
-1.15143e-09
2.12466e-11
-1.1679e-09
1.64608e-11
-1.15052e-09
-1.73781e-11
-1.04075e-09
-1.09768e-10
-9.25606e-10
-1.15141e-10
-8.63124e-10
-6.24814e-11
-1.12893e-09
2.65806e-10
-1.56338e-09
4.34451e-10
-1.96134e-09
3.9796e-10
-2.20475e-09
2.43408e-10
-2.32627e-09
1.2152e-10
-2.58149e-09
2.55227e-10
-2.71495e-09
1.33453e-10
-2.77091e-09
5.59681e-11
-2.84885e-09
7.79336e-11
-2.87732e-09
2.84737e-11
-2.89071e-09
1.33923e-11
-2.89089e-09
1.78672e-13
-2.85674e-09
-3.41502e-11
-2.81087e-09
-4.58717e-11
-2.74803e-09
-6.28397e-11
-2.59283e-09
-1.55202e-10
-2.3677e-09
-2.25132e-10
-2.34983e-09
-1.78683e-11
-2.31963e-09
-3.01921e-11
-2.05387e-09
-2.65764e-10
-1.85942e-09
-1.94449e-10
-1.8297e-09
-2.9719e-11
-1.63802e-09
-1.91675e-10
-1.49194e-09
-1.4608e-10
-1.40139e-09
-9.05517e-11
-1.35671e-09
-4.4677e-11
-1.33204e-09
-2.4673e-11
-1.313e-09
-1.90369e-11
-1.3465e-09
3.35047e-11
-1.3868e-09
4.0298e-11
-1.33327e-09
-5.35229e-11
-1.4283e-09
9.50337e-11
-1.43139e-09
3.0829e-12
-1.51064e-09
7.92591e-11
-1.65119e-09
1.40544e-10
-1.80937e-09
1.58184e-10
-1.9078e-09
9.84313e-11
-1.95786e-09
5.00527e-11
-1.99001e-09
3.21535e-11
-1.69491e-09
-2.95094e-10
-1.45761e-09
-2.37302e-10
-1.46697e-09
9.36174e-12
-9.87592e-10
-4.79383e-10
-8.11643e-10
-1.75949e-10
-3.96141e-10
-4.15502e-10
-1.40361e-10
-2.5578e-10
4.52281e-11
-1.85589e-10
2.17058e-10
-1.71831e-10
4.76107e-10
-2.5905e-10
5.42553e-10
-6.64472e-11
6.71162e-10
-1.2861e-10
6.76555e-10
-5.39412e-12
4.614e-10
2.15154e-10
-1.03509e-10
5.64907e-10
-5.95376e-10
4.91866e-10
-9.01371e-10
3.05995e-10
-1.13789e-09
2.36515e-10
-1.12391e-09
-1.39801e-11
-9.75728e-10
-1.4818e-10
-9.14507e-10
-6.12221e-11
-1.1026e-09
1.88094e-10
-1.30086e-09
1.98253e-10
-1.39984e-09
9.8983e-11
-1.13198e-09
-2.67863e-10
-6.87078e-10
-4.44903e-10
8.05497e-15
-6.87092e-10
-2.85972e-18
-1.5801e-19
-2.94726e-18
8.75418e-20
-2.91605e-18
-3.4405e-20
-2.78707e-18
-1.29665e-19
-2.60059e-18
-1.8722e-19
-2.37827e-18
-2.23925e-19
-2.13083e-18
-2.49861e-19
-1.8648e-18
-2.69075e-19
-1.58554e-18
-2.82733e-19
-1.29826e-18
-2.90965e-19
-1.00821e-18
-2.93715e-19
-7.20588e-19
-2.91047e-19
-4.40356e-19
-2.83223e-19
-1.72069e-19
-2.70692e-19
8.0311e-20
-2.54066e-19
3.13476e-19
-2.34075e-19
5.24763e-19
-2.11507e-19
7.12135e-19
-1.87132e-19
8.74201e-19
-1.61659e-19
1.01023e-18
-1.35711e-19
1.12013e-18
-1.09828e-19
1.20434e-18
-8.44671e-20
1.26377e-18
-5.99934e-20
1.29969e-18
-3.66804e-20
1.31366e-18
-1.47214e-20
1.30744e-18
5.74292e-21
1.28287e-18
2.45987e-20
1.24175e-18
4.17513e-20
1.18573e-18
5.71364e-20
1.11635e-18
7.07408e-20
1.03505e-18
8.26145e-20
9.4329e-19
9.2868e-20
8.42549e-19
1.01651e-19
7.34355e-19
1.09124e-19
6.20208e-19
1.15434e-19
5.01502e-19
1.207e-19
3.79437e-19
1.25014e-19
2.5495e-19
1.28468e-19
1.28584e-19
1.31254e-19
1.34063e-19
6.54944e-13
1.46612e-10
-2.15855e-10
4.45586e-10
-5.83285e-10
6.0293e-10
-7.04471e-10
3.07735e-10
-8.69579e-10
2.78904e-10
-9.39811e-10
1.80996e-10
-1.03382e-09
1.69972e-10
-1.11393e-09
1.11386e-10
-1.14292e-09
5.02417e-11
-1.17598e-09
4.95166e-11
-1.15186e-09
-4.14952e-11
-1.08405e-09
-1.77572e-10
-1.05172e-09
-1.47478e-10
-1.20754e-09
9.33455e-11
-1.5649e-09
6.23166e-10
-1.86021e-09
7.29757e-10
-2.10404e-09
6.41798e-10
-2.24426e-09
3.83622e-10
-2.28681e-09
1.64068e-10
-2.44569e-09
4.14108e-10
-2.60352e-09
2.91285e-10
-2.65819e-09
1.10637e-10
-2.74374e-09
1.63489e-10
-2.79803e-09
8.27609e-11
-2.81635e-09
3.17132e-11
-2.83305e-09
1.68799e-11
-2.81181e-09
-5.53902e-11
-2.73909e-09
-1.18595e-10
-2.62857e-09
-1.73355e-10
-2.50876e-09
-2.75017e-10
-2.25404e-09
-4.79851e-10
-2.26332e-09
-8.58996e-12
-2.20689e-09
-8.66125e-11
-1.97967e-09
-4.9299e-10
-1.81151e-09
-3.62608e-10
-1.74602e-09
-9.52063e-11
-1.5469e-09
-3.90792e-10
-1.49541e-09
-1.97561e-10
-1.3559e-09
-2.3006e-10
-1.32109e-09
-7.94839e-11
-1.28925e-09
-5.65094e-11
-1.25842e-09
-4.98642e-11
-1.30158e-09
7.66645e-11
-1.32251e-09
6.12312e-11
-1.31421e-09
-6.18201e-11
-1.49198e-09
2.72803e-10
-1.57516e-09
8.62697e-11
-1.72495e-09
2.29049e-10
-1.82324e-09
2.38831e-10
-1.90372e-09
2.38671e-10
-1.9671e-09
1.61805e-10
-1.9746e-09
5.75604e-11
-1.91752e-09
-2.49275e-11
-1.89146e-09
-3.2116e-10
-1.65303e-09
-4.75728e-10
-1.36764e-09
-2.76027e-10
-1.25359e-09
-5.93438e-10
-8.28015e-10
-6.01522e-10
-5.25439e-10
-7.18079e-10
-2.92798e-10
-4.88422e-10
-1.57775e-10
-3.20613e-10
5.14828e-11
-3.8109e-10
2.64227e-10
-4.71795e-10
4.68301e-10
-2.70524e-10
6.30223e-10
-2.90534e-10
7.19014e-10
-9.4187e-11
8.54577e-10
7.95886e-11
1.05475e-09
3.64732e-10
1.16235e-09
3.8427e-10
1.06138e-09
4.06962e-10
8.80878e-10
4.17012e-10
4.88796e-10
3.781e-10
-1.32835e-10
4.7345e-10
-6.93265e-10
4.99205e-10
-9.82264e-10
4.7709e-10
-1.03457e-09
2.50554e-10
-1.07961e-09
1.44021e-10
-9.23816e-10
-4.23654e-10
-5.05865e-10
-8.62847e-10
6.39039e-16
-1.19294e-09
-2.69054e-18
2.24356e-18
-3.06921e-18
4.712e-19
-3.01131e-18
-9.31899e-20
-2.84463e-18
-2.99279e-19
-2.6373e-18
-3.98393e-19
-2.40421e-18
-4.61613e-19
-2.15004e-18
-5.09307e-19
-1.87845e-18
-5.46458e-19
-1.59377e-18
-5.73463e-19
-1.30101e-18
-5.89696e-19
-1.00554e-18
-5.94718e-19
-7.12764e-19
-5.88599e-19
-4.27825e-19
-5.71927e-19
-1.55442e-19
-5.45731e-19
1.00302e-19
-5.11381e-19
3.36044e-19
-4.70452e-19
5.49137e-19
-4.24566e-19
7.37608e-19
-3.75256e-19
9.00149e-19
-3.23892e-19
1.03611e-18
-2.71671e-19
1.14549e-18
-2.19606e-19
1.22881e-18
-1.68542e-19
1.28708e-18
-1.19158e-19
1.32165e-18
-7.2005e-20
1.33412e-18
-2.75412e-20
1.32629e-18
1.38324e-20
1.30002e-18
5.1783e-20
1.25713e-18
8.60861e-20
1.19933e-18
1.16676e-19
1.12822e-18
1.43662e-19
1.04531e-18
1.67304e-19
9.52072e-19
1.8794e-19
8.50022e-19
2.0591e-19
7.40665e-19
2.21487e-19
6.25474e-19
2.3485e-19
5.05816e-19
2.46086e-19
3.82891e-19
2.55214e-19
2.57736e-19
2.62221e-19
1.31394e-19
2.67058e-19
2.69449e-19
-5.21038e-10
6.6765e-10
-6.69084e-10
5.93632e-10
-6.04813e-10
5.3866e-10
-7.07287e-10
4.10209e-10
-7.98076e-10
3.69694e-10
-7.84818e-10
1.67738e-10
-8.42254e-10
2.2741e-10
-8.65795e-10
1.34928e-10
-8.90299e-10
7.47463e-11
-9.16712e-10
7.59308e-11
-9.65459e-10
7.25253e-12
-1.06098e-09
-8.20531e-11
-1.19505e-09
-1.34058e-11
-1.48559e-09
3.83892e-10
-1.65303e-09
7.90607e-10
-1.82545e-09
9.02174e-10
-1.97361e-09
7.89955e-10
-2.09517e-09
5.05183e-10
-2.27448e-09
3.43377e-10
-2.31152e-09
4.51152e-10
-2.48488e-09
4.64646e-10
-2.66058e-09
2.86336e-10
-2.7232e-09
2.26107e-10
-2.81013e-09
1.69689e-10
-2.84514e-09
6.67257e-11
-2.87973e-09
5.14702e-11
-2.82733e-09
-1.0779e-10
-2.74818e-09
-1.9775e-10
-2.70535e-09
-2.16181e-10
-2.56262e-09
-4.17743e-10
-2.47919e-09
-5.63281e-10
-2.30416e-09
-1.83617e-10
-2.08818e-09
-3.02598e-10
-1.93426e-09
-6.46907e-10
-1.73723e-09
-5.59635e-10
-1.51716e-09
-3.15275e-10
-1.36508e-09
-5.42867e-10
-1.23643e-09
-3.26213e-10
-1.15846e-09
-3.08029e-10
-1.13239e-09
-1.05546e-10
-1.10584e-09
-8.30643e-11
-1.12247e-09
-3.32251e-11
-1.1412e-09
9.53874e-11
-1.18786e-09
1.07902e-10
-1.36642e-09
1.16739e-10
-1.399e-09
3.05386e-10
-1.57494e-09
2.62206e-10
-1.69796e-09
3.52075e-10
-1.74764e-09
2.88507e-10
-1.84455e-09
3.35589e-10
-1.93017e-09
2.47422e-10
-1.94887e-09
7.62574e-11
-1.86834e-09
-1.0545e-10
-1.8964e-09
-2.93106e-10
-1.65083e-09
-7.21293e-10
-1.40429e-09
-5.22572e-10
-1.34322e-09
-6.54509e-10
-9.56972e-10
-9.87767e-10
-8.57722e-10
-8.1733e-10
-6.36845e-10
-7.093e-10
-3.00903e-10
-6.56556e-10
-1.76693e-11
-6.64325e-10
1.01202e-10
-5.90668e-10
3.42471e-10
-5.11794e-10
5.59143e-10
-5.07207e-10
7.20768e-10
-2.55813e-10
9.5783e-10
-1.57474e-10
1.30144e-09
2.11212e-11
1.41887e-09
2.66842e-10
1.32035e-09
5.05479e-10
1.24575e-09
4.91609e-10
1.01662e-09
6.07225e-10
7.83423e-10
7.06646e-10
7.66456e-10
5.1617e-10
4.50197e-10
7.93347e-10
5.34271e-10
1.66477e-10
1.5495e-10
5.23338e-10
5.75443e-11
-3.26255e-10
-8.08388e-11
-7.24477e-10
7.0495e-16
-1.27378e-09
-4.58406e-18
-8.41907e-19
-3.6336e-18
-4.79763e-19
-3.2174e-18
-5.11532e-19
-2.94374e-18
-5.75716e-19
-2.70052e-18
-6.44772e-19
-2.4519e-18
-7.13692e-19
-2.18719e-18
-7.77773e-19
-1.90546e-18
-8.3219e-19
-1.61e-18
-8.73037e-19
-1.30603e-18
-8.97754e-19
-9.99425e-19
-9.05171e-19
-6.96093e-19
-8.95334e-19
-4.01629e-19
-8.69229e-19
-1.21092e-19
-8.2852e-19
1.41231e-19
-7.75357e-19
3.8193e-19
-7.12187e-19
5.98448e-19
-6.41532e-19
7.88971e-19
-5.6578e-19
9.52371e-19
-4.87066e-19
1.08818e-18
-4.0723e-19
1.19655e-18
-3.27835e-19
1.27819e-18
-2.50186e-19
1.33423e-18
-1.75354e-19
1.36611e-18
-1.04187e-19
1.3755e-18
-3.73536e-20
1.36425e-18
2.46324e-20
1.33433e-18
8.13943e-20
1.28772e-18
1.32716e-19
1.22632e-18
1.78575e-19
1.15186e-18
2.19153e-19
1.06594e-18
2.54799e-19
9.70042e-19
2.85956e-19
8.65599e-19
3.13067e-19
7.54028e-19
3.36497e-19
6.3671e-19
3.56493e-19
5.14944e-19
3.73184e-19
3.89898e-19
3.86605e-19
2.62573e-19
3.96723e-19
1.33785e-19
4.03454e-19
4.06654e-19
-8.55051e-11
7.53155e-10
-3.18478e-10
8.26606e-10
-4.20816e-10
6.40999e-10
-5.05243e-10
4.94636e-10
-5.82471e-10
4.46924e-10
-7.46992e-10
3.3226e-10
-7.73494e-10
2.53913e-10
-7.76258e-10
1.37694e-10
-7.86032e-10
8.45206e-11
-7.8999e-10
7.98902e-11
-8.57394e-10
7.46572e-11
-9.69125e-10
2.96781e-11
-1.1813e-09
1.98768e-10
-1.40793e-09
6.10526e-10
-1.54359e-09
9.26265e-10
-1.64109e-09
9.99671e-10
-1.76263e-09
9.11504e-10
-1.92469e-09
6.67243e-10
-2.00671e-09
4.25397e-10
-2.23781e-09
6.82251e-10
-2.42591e-09
6.52737e-10
-2.57138e-09
4.31806e-10
-2.75139e-09
4.06123e-10
-2.86259e-09
2.80884e-10
-2.84866e-09
5.28023e-11
-2.84579e-09
4.85985e-11
-2.79694e-09
-1.56644e-10
-2.70995e-09
-2.84738e-10
-2.63972e-09
-2.86405e-10
-2.62373e-09
-4.33735e-10
-2.54343e-09
-6.43577e-10
-2.19432e-09
-5.32731e-10
-1.97332e-09
-5.23592e-10
-1.89867e-09
-7.21559e-10
-1.71646e-09
-7.41848e-10
-1.3374e-09
-6.94333e-10
-1.17992e-09
-7.00343e-10
-9.31675e-10
-5.74458e-10
-8.33381e-10
-4.06322e-10
-7.94545e-10
-1.4438e-10
-8.45359e-10
-3.22489e-11
-9.35564e-10
5.69819e-11
-9.15666e-10
7.54912e-11
-9.81932e-10
1.74169e-10
-1.16582e-09
3.00632e-10
-1.22804e-09
3.67601e-10
-1.46883e-09
5.03005e-10
-1.56006e-09
4.43298e-10
-1.63444e-09
3.6289e-10
-1.72136e-09
4.22514e-10
-1.80474e-09
3.30806e-10
-1.74477e-09
1.62823e-11
-1.82455e-09
-2.56694e-11
-1.73982e-09
-3.77835e-10
-1.70563e-09
-7.55482e-10
-1.48786e-09
-7.40342e-10
-1.2358e-09
-9.06566e-10
-1.07809e-09
-1.14548e-09
-8.52364e-10
-1.04306e-09
-6.26603e-10
-9.35062e-10
-4.04498e-10
-8.78661e-10
-1.648e-10
-9.04025e-10
5.42794e-11
-8.09748e-10
1.89414e-10
-6.46929e-10
4.46482e-10
-7.64277e-10
6.68254e-10
-4.77586e-10
9.48748e-10
-4.3797e-10
1.16807e-09
-1.98201e-10
1.2642e-09
1.70711e-10
1.37146e-09
3.98215e-10
1.43568e-09
4.27386e-10
1.37162e-09
6.71288e-10
1.29981e-09
7.78444e-10
1.11737e-09
6.98612e-10
9.5539e-10
9.55325e-10
8.15156e-10
3.06709e-10
6.38464e-10
7.00031e-10
5.55268e-10
-2.43059e-10
2.17025e-10
-3.86237e-10
1.08679e-15
-1.05676e-09
-4.34854e-18
-1.9301e-18
-3.66536e-18
-1.16438e-18
-3.28158e-18
-8.98043e-19
-3.0128e-18
-8.47042e-19
-2.76944e-18
-8.90521e-19
-2.51598e-18
-9.69461e-19
-2.24161e-18
-1.05447e-18
-1.9463e-18
-1.1299e-18
-1.63472e-18
-1.18714e-18
-1.31345e-18
-1.22167e-18
-9.89588e-19
-1.23174e-18
-6.69988e-19
-1.21757e-18
-3.6092e-19
-1.18073e-18
-6.79284e-20
-1.12374e-18
2.044e-19
-1.04967e-18
4.52585e-19
-9.61955e-19
6.742e-19
-8.64151e-19
8.67685e-19
-7.59634e-19
1.03221e-18
-6.51433e-19
1.16757e-18
-5.4215e-19
1.2742e-18
-4.33959e-19
1.35303e-18
-3.28652e-19
1.4054e-18
-2.27656e-19
1.43294e-18
-1.32058e-19
1.43748e-18
-4.26431e-20
1.42101e-18
4.00525e-20
1.38565e-18
1.15688e-19
1.33358e-18
1.84098e-19
1.2669e-18
2.45307e-19
1.18751e-18
2.99535e-19
1.0971e-18
3.47177e-19
9.97153e-19
3.88744e-19
8.89028e-19
4.24766e-19
7.74024e-19
4.55715e-19
6.53401e-19
4.81945e-19
5.28365e-19
5.03676e-19
4.00016e-19
5.2101e-19
2.69303e-19
5.33958e-19
1.36986e-19
5.42477e-19
5.46509e-19
-1.35418e-10
8.88574e-10
-2.36937e-10
9.28125e-10
-3.65505e-10
7.69569e-10
-5.3268e-10
6.61813e-10
-6.12143e-10
5.26388e-10
-7.00532e-10
4.2065e-10
-7.62409e-10
3.1579e-10
-7.96436e-10
1.71722e-10
-8.28742e-10
1.16827e-10
-8.22407e-10
7.35567e-11
-8.36852e-10
8.91022e-11
-9.05383e-10
9.82102e-11
-1.12121e-09
4.14599e-10
-1.29388e-09
7.83189e-10
-1.4092e-09
1.04159e-09
-1.52831e-09
1.11878e-09
-1.6826e-09
1.06579e-09
-1.86168e-09
8.46324e-10
-1.99051e-09
5.54227e-10
-2.09933e-09
7.91078e-10
-2.3111e-09
8.64503e-10
-2.47432e-09
5.95028e-10
-2.5703e-09
5.02097e-10
-2.60862e-09
3.19206e-10
-2.60849e-09
5.26781e-11
-2.59695e-09
3.70571e-11
-2.53819e-09
-2.15403e-10
-2.44022e-09
-3.82715e-10
-2.35044e-09
-3.76182e-10
-2.2688e-09
-5.15369e-10
-2.25263e-09
-6.59749e-10
-2.11937e-09
-6.65994e-10
-1.93732e-09
-7.05638e-10
-1.85814e-09
-8.00744e-10
-1.50472e-09
-1.09526e-09
-1.24735e-09
-9.51698e-10
-9.81297e-10
-9.66399e-10
-8.12826e-10
-7.42928e-10
-6.08531e-10
-6.10616e-10
-3.99377e-10
-3.53533e-10
-2.79058e-10
-1.52567e-10
-1.95421e-10
-2.66534e-11
-2.31397e-10
1.11469e-10
-5.07025e-10
4.49799e-10
-7.56595e-10
5.50203e-10
-9.12385e-10
5.23393e-10
-1.09513e-09
6.85755e-10
-1.26049e-09
6.08658e-10
-1.38222e-09
4.84625e-10
-1.43004e-09
4.70333e-10
-1.45216e-09
3.52927e-10
-1.44581e-09
9.93313e-12
-1.63122e-09
1.59741e-10
-1.45796e-09
-5.511e-10
-1.53189e-09
-6.81551e-10
-1.40634e-09
-8.65892e-10
-1.11981e-09
-1.1931e-09
-9.63395e-10
-1.30189e-09
-7.01423e-10
-1.30503e-09
-4.65891e-10
-1.17059e-09
-2.40898e-10
-1.10365e-09
-8.43649e-11
-1.06056e-09
7.82474e-11
-9.7236e-10
3.49182e-10
-9.17863e-10
5.42523e-10
-9.57619e-10
6.55399e-10
-5.90464e-10
8.98391e-10
-6.80963e-10
1.00265e-09
-3.02461e-10
1.13571e-09
3.76461e-11
1.36889e-09
1.6503e-10
1.42647e-09
3.69806e-10
1.44616e-09
6.51591e-10
1.51174e-09
7.12867e-10
1.4449e-09
7.65453e-10
1.49759e-09
9.02624e-10
1.18469e-09
6.19613e-10
1.19894e-09
6.85777e-10
7.81994e-10
1.73883e-10
2.47639e-10
1.48115e-10
9.79234e-16
-8.09126e-10
-3.66414e-18
-2.64041e-18
-3.39903e-18
-1.43089e-18
-3.23058e-18
-1.06888e-18
-3.05628e-18
-1.02315e-18
-2.84838e-18
-1.0997e-18
-2.60099e-18
-1.21777e-18
-2.31704e-18
-1.33916e-18
-2.00354e-18
-1.44417e-18
-1.66926e-18
-1.52236e-18
-1.32352e-18
-1.56868e-18
-9.75411e-19
-1.58152e-18
-6.33157e-19
-1.56178e-18
-3.03926e-19
-1.51207e-18
6.14589e-21
-1.43602e-18
2.92111e-19
-1.33791e-18
5.50389e-19
-1.22239e-18
7.78717e-19
-1.09419e-18
9.75886e-19
-9.5782e-19
1.14149e-18
-8.17345e-19
1.27576e-18
-6.76219e-19
1.37951e-18
-5.37277e-19
1.45402e-18
-4.02786e-19
1.501e-18
-2.74494e-19
1.52236e-18
-1.53672e-19
1.52018e-18
-4.11662e-20
1.49664e-18
6.25189e-20
1.45406e-18
1.5713e-19
1.39479e-18
2.42603e-19
1.32113e-18
3.1904e-19
1.23515e-18
3.86719e-19
1.13867e-18
4.46088e-19
1.03317e-18
4.97721e-19
9.19977e-19
5.42248e-19
8.00254e-19
5.80262e-19
6.75133e-19
6.12253e-19
5.45699e-19
6.3857e-19
4.12964e-19
6.59422e-19
2.77822e-19
6.74904e-19
1.41019e-19
6.85039e-19
6.89835e-19
-7.95686e-11
9.68144e-10
-1.73111e-10
1.02167e-09
-3.04159e-10
9.00619e-10
-4.00848e-10
7.58504e-10
-5.23486e-10
6.49027e-10
-6.21825e-10
5.1899e-10
-6.97537e-10
3.91503e-10
-7.75241e-10
2.49427e-10
-8.05721e-10
1.47308e-10
-8.15365e-10
8.32011e-11
-8.24676e-10
9.84132e-11
-8.52889e-10
1.26424e-10
-9.55821e-10
5.17531e-10
-1.10255e-09
9.29921e-10
-1.18145e-09
1.12049e-09
-1.24237e-09
1.1797e-09
-1.36147e-09
1.18489e-09
-1.58016e-09
1.06501e-09
-1.82843e-09
8.02497e-10
-1.87169e-09
8.34333e-10
-1.97924e-09
9.72054e-10
-2.18111e-09
7.96901e-10
-2.28423e-09
6.0522e-10
-2.33554e-09
3.70517e-10
-2.4165e-09
1.33632e-10
-2.37537e-09
-4.07533e-12
-2.27821e-09
-3.12559e-10
-2.14103e-09
-5.1989e-10
-2.07047e-09
-4.46748e-10
-1.95997e-09
-6.25869e-10
-1.8866e-09
-7.3312e-10
-1.71558e-09
-8.37006e-10
-1.54447e-09
-8.76753e-10
-1.31985e-09
-1.02536e-09
-1.21017e-09
-1.20494e-09
-1.09189e-09
-1.06998e-09
-9.1349e-10
-1.1448e-09
-6.76994e-10
-9.79423e-10
-4.77541e-10
-8.10069e-10
-3.15476e-10
-5.15596e-10
-1.90453e-10
-2.77588e-10
-2.3935e-11
-1.9317e-10
-2.84552e-13
8.78202e-11
-4.50883e-11
4.94605e-10
-2.90416e-10
7.95533e-10
-7.00238e-10
9.33217e-10
-8.54178e-10
8.39698e-10
-9.66469e-10
7.20951e-10
-9.93639e-10
5.11797e-10
-9.28079e-10
4.04775e-10
-9.4498e-10
3.6983e-10
-1.1253e-09
1.90255e-10
-1.02248e-09
5.6916e-11
-1.04727e-09
-5.26302e-10
-1.08977e-09
-6.39053e-10
-9.99988e-10
-9.55675e-10
-9.62864e-10
-1.23022e-09
-8.95956e-10
-1.3688e-09
-7.73518e-10
-1.42747e-09
-5.55675e-10
-1.38844e-09
-2.98147e-10
-1.36118e-09
-8.05267e-11
-1.27818e-09
1.00973e-10
-1.15386e-09
3.26471e-10
-1.14336e-09
4.89266e-10
-1.12041e-09
6.37118e-10
-7.38317e-10
8.22726e-10
-8.66573e-10
8.70201e-10
-3.49939e-10
1.05184e-09
-1.43995e-10
1.25606e-09
-3.91907e-11
1.31446e-09
3.11406e-10
1.41315e-09
5.52894e-10
1.48948e-09
6.36532e-10
1.50762e-09
7.47309e-10
1.56668e-09
8.43571e-10
1.41781e-09
7.68472e-10
1.28838e-09
8.15205e-10
1.12619e-09
3.3608e-10
7.56738e-10
5.1756e-10
6.71731e-16
-5.2391e-11
-2.43824e-18
-6.14674e-19
-3.03702e-18
-8.33209e-19
-3.18484e-18
-9.22648e-19
-3.13283e-18
-1.07607e-18
-2.96645e-18
-1.26629e-18
-2.72238e-18
-1.46156e-18
-2.42205e-18
-1.63893e-18
-2.08174e-18
-1.78386e-18
-1.71557e-18
-1.8881e-18
-1.33636e-18
-1.9479e-18
-9.55675e-19
-1.96289e-18
-5.83443e-19
-1.93531e-18
-2.27878e-19
-1.8693e-18
1.04251e-19
-1.77013e-18
4.07631e-19
-1.64363e-18
6.78595e-19
-1.49592e-18
9.15086e-19
-1.3331e-18
1.11636e-18
-1.16097e-18
1.28262e-18
-9.84704e-19
1.41471e-18
-8.08703e-19
1.514e-18
-6.36499e-19
1.58231e-18
-4.70831e-19
1.62182e-18
-3.13736e-19
1.63486e-18
-1.66625e-19
1.62386e-18
-3.03607e-20
1.59125e-18
9.4632e-20
1.53953e-18
2.08244e-19
1.47123e-18
3.10571e-19
1.38881e-18
4.01866e-19
1.29452e-18
4.8252e-19
1.1903e-18
5.53077e-19
1.0777e-18
6.1421e-19
9.57991e-19
6.66662e-19
8.32245e-19
7.11166e-19
7.0145e-19
7.48367e-19
5.66551e-19
7.78766e-19
4.28446e-19
8.02708e-19
2.87957e-19
8.20397e-19
1.45815e-19
8.31943e-19
8.37418e-19
-7.45485e-11
1.04269e-09
-1.58796e-10
1.10592e-09
-2.48069e-10
9.89894e-10
-3.16624e-10
8.27061e-10
-4.15369e-10
7.47774e-10
-4.91859e-10
5.95481e-10
-5.5211e-10
4.51756e-10
-6.38611e-10
3.35929e-10
-7.12163e-10
2.20861e-10
-7.48711e-10
1.19748e-10
-7.6855e-10
1.18253e-10
-7.74073e-10
1.31947e-10
-8.49274e-10
5.92732e-10
-9.29298e-10
1.00994e-09
-1.02663e-09
1.21781e-09
-1.1172e-09
1.27028e-09
-1.17021e-09
1.2379e-09
-1.30969e-09
1.20449e-09
-1.55953e-09
1.05234e-09
-1.72599e-09
1.00079e-09
-1.85121e-09
1.09727e-09
-1.97644e-09
9.22136e-10
-2.04128e-09
6.70058e-10
-2.1165e-09
4.45741e-10
-2.14128e-09
1.58407e-10
-2.09799e-09
-4.73684e-11
-2.06494e-09
-3.45606e-10
-2.00684e-09
-5.77987e-10
-1.9134e-09
-5.40189e-10
-1.77225e-09
-7.6702e-10
-1.64085e-09
-8.64514e-10
-1.45013e-09
-1.02773e-09
-1.28586e-09
-1.04102e-09
-1.11047e-09
-1.20075e-09
-9.41774e-10
-1.37364e-09
-7.09658e-10
-1.3021e-09
-6.42569e-10
-1.21188e-09
-4.02493e-10
-1.2195e-09
-2.8411e-10
-9.28451e-10
-1.18359e-10
-6.81346e-10
-2.0248e-11
-3.75697e-10
1.16523e-10
-3.29939e-10
6.13372e-11
1.43008e-10
-1.44447e-10
7.00392e-10
-5.69161e-11
7.08004e-10
-2.94676e-11
9.05771e-10
-1.13088e-10
9.2332e-10
-2.44382e-10
8.52247e-10
-4.8292e-10
7.50336e-10
-6.56365e-10
5.78221e-10
-6.98669e-10
4.12135e-10
-7.07179e-10
1.98767e-10
-6.19671e-10
-3.05907e-11
-8.11014e-10
-3.34959e-10
-8.71182e-10
-5.78886e-10
-8.81529e-10
-9.45327e-10
-8.60065e-10
-1.25168e-09
-7.9818e-10
-1.43069e-09
-7.37365e-10
-1.48828e-09
-5.36911e-10
-1.58889e-09
-3.99001e-10
-1.49909e-09
-2.40812e-10
-1.43637e-09
-4.52907e-11
-1.34938e-09
1.75165e-10
-1.36382e-09
3.8516e-10
-1.33041e-09
6.19921e-10
-9.73078e-10
7.39548e-10
-9.86201e-10
7.59118e-10
-3.69511e-10
9.84259e-10
-3.69139e-10
1.07451e-09
-1.29449e-10
1.15324e-09
2.32675e-10
1.29787e-09
4.08265e-10
1.39376e-09
5.40642e-10
1.37004e-09
7.71028e-10
1.45555e-09
7.58055e-10
1.33356e-09
8.90468e-10
1.19726e-09
9.51502e-10
8.25149e-10
7.08185e-10
6.26978e-10
7.1573e-10
5.20185e-16
5.74585e-10
-2.53312e-18
7.05601e-19
-3.12646e-18
-2.40555e-19
-3.33826e-18
-7.11902e-19
-3.32305e-18
-1.09173e-18
-3.16173e-18
-1.42737e-18
-2.89975e-18
-1.72273e-18
-2.56697e-18
-1.97052e-18
-2.18597e-18
-2.16349e-18
-1.77538e-18
-2.29734e-18
-1.35135e-18
-2.37091e-18
-9.28095e-19
-2.38589e-18
-5.17436e-19
-2.34653e-18
-1.28705e-19
-2.25908e-18
2.30747e-19
-2.13098e-18
5.55341e-19
-1.97012e-18
8.41416e-19
-1.78442e-18
1.08722e-18
-1.5816e-18
1.29262e-18
-1.36883e-18
1.45862e-18
-1.1525e-18
1.58691e-18
-9.37988e-19
1.67967e-18
-7.29539e-19
1.73941e-18
-5.30362e-19
1.76893e-18
-3.42745e-19
1.77113e-18
-1.68182e-19
1.74885e-18
-7.49273e-21
1.70487e-18
1.3904e-19
1.64186e-18
2.71517e-19
1.56252e-18
3.90279e-19
1.46946e-18
4.95806e-19
1.36508e-18
5.88696e-19
1.25143e-18
6.69655e-19
1.13015e-18
7.39503e-19
1.0025e-18
7.99128e-19
8.69446e-19
8.49421e-19
7.31849e-19
8.91192e-19
5.90492e-19
9.25111e-19
4.46135e-19
9.51672e-19
2.99503e-19
9.7121e-19
1.5129e-19
9.83935e-19
9.89992e-19
-4.43008e-11
1.087e-09
-9.09427e-11
1.15256e-09
-1.58738e-10
1.05769e-09
-1.89475e-10
8.57799e-10
-2.13509e-10
7.7181e-10
-2.75929e-10
6.57902e-10
-3.22955e-10
4.98782e-10
-3.56213e-10
3.69189e-10
-4.51827e-10
3.16475e-10
-6.02885e-10
2.70806e-10
-7.20321e-10
2.35689e-10
-7.59887e-10
1.71513e-10
-7.08607e-10
5.41452e-10
-7.013e-10
1.00264e-09
-7.6076e-10
1.27727e-09
-8.68553e-10
1.37807e-09
-9.92063e-10
1.36141e-09
-1.10292e-09
1.31535e-09
-1.27973e-09
1.22915e-09
-1.35138e-09
1.07244e-09
-1.39364e-09
1.13954e-09
-1.50967e-09
1.03816e-09
-1.58971e-09
7.50103e-10
-1.72945e-09
5.85484e-10
-1.83364e-09
2.62597e-10
-1.90111e-09
2.00961e-11
-1.85097e-09
-3.95737e-10
-1.84778e-09
-5.81185e-10
-1.73803e-09
-6.49935e-10
-1.62556e-09
-8.79492e-10
-1.46291e-09
-1.02716e-09
-1.32117e-09
-1.16947e-09
-1.09896e-09
-1.26323e-09
-8.46678e-10
-1.45303e-09
-7.41486e-10
-1.47883e-09
-6.7424e-10
-1.36934e-09
-4.70898e-10
-1.41523e-09
-3.33318e-10
-1.35708e-09
-2.55776e-10
-1.00599e-09
-4.5674e-11
-8.91446e-10
1.27381e-10
-5.4875e-10
3.02254e-10
-5.0481e-10
3.26584e-10
1.18681e-10
4.80353e-10
5.46625e-10
3.46744e-10
8.41616e-10
1.94051e-10
1.05847e-09
2.06172e-10
9.11201e-10
1.40704e-10
9.17718e-10
1.0642e-10
7.84622e-10
7.9497e-11
6.05146e-10
-3.21326e-11
5.23766e-10
-1.48793e-10
3.15429e-10
-2.59791e-10
8.04083e-11
-4.67491e-10
-1.27259e-10
-6.56454e-10
-3.89922e-10
-9.116e-10
-6.9018e-10
-9.99718e-10
-1.16356e-09
-9.48282e-10
-1.48212e-09
-8.29073e-10
-1.60749e-09
-7.15835e-10
-1.70213e-09
-4.51907e-10
-1.76302e-09
-2.11543e-10
-1.67673e-09
-3.1897e-11
-1.52903e-09
1.03413e-10
-1.49913e-09
1.82333e-10
-1.40933e-09
4.21027e-10
-1.21177e-09
5.68412e-10
-1.13359e-09
5.92462e-10
-3.93562e-10
8.66975e-10
-6.43655e-10
8.53999e-10
-1.16475e-10
9.78424e-10
1.08248e-10
1.11069e-09
2.75993e-10
1.15449e-09
4.96843e-10
1.23834e-09
6.87181e-10
1.2589e-09
7.37498e-10
1.13524e-09
1.01412e-09
9.9181e-10
1.09493e-09
6.80462e-10
1.01953e-09
4.03432e-10
9.92758e-10
7.04538e-16
9.78015e-10
-3.23202e-18
1.88115e-18
-3.59781e-18
1.24844e-19
-3.71808e-18
-5.92987e-19
-3.65869e-18
-1.15205e-18
-3.45709e-18
-1.62928e-18
-3.14754e-18
-2.03193e-18
-2.75995e-18
-2.35724e-18
-2.31982e-18
-2.60236e-18
-1.84896e-18
-2.76662e-18
-1.36632e-18
-2.85187e-18
-8.88729e-19
-2.8624e-18
-4.29993e-19
-2.80504e-18
-6.06599e-22
-2.68875e-18
3.91612e-19
-2.5237e-18
7.41038e-19
-2.32041e-18
1.04424e-18
-2.08911e-18
1.29999e-18
-1.83941e-18
1.50895e-18
-1.58002e-18
1.67313e-18
-1.31857e-18
1.79536e-18
-1.06138e-18
1.87884e-18
-8.13376e-19
1.92703e-18
-5.782e-19
1.94349e-18
-3.58319e-19
1.93182e-18
-1.55227e-19
1.89539e-18
3.03904e-20
1.83734e-18
1.98484e-19
1.76062e-18
3.49455e-19
1.66805e-18
4.83975e-19
1.56235e-18
6.02855e-19
1.44604e-18
7.06984e-19
1.32128e-18
7.97317e-19
1.18978e-18
8.74881e-19
1.05279e-18
9.40749e-19
9.11218e-19
9.95989e-19
7.65768e-19
1.04159e-18
6.17054e-19
1.07839e-18
4.65673e-19
1.10705e-18
3.12228e-19
1.12804e-18
1.57347e-19
1.14168e-18
1.14821e-18
9.48685e-13
1.08605e-09
-1.56541e-11
1.16917e-09
-4.75809e-11
1.08962e-09
-1.33243e-10
9.43463e-10
-1.56377e-10
7.94946e-10
-1.42336e-10
6.43862e-10
-1.15973e-10
4.72419e-10
-1.47968e-10
4.01184e-10
-2.04115e-10
3.72622e-10
-2.90665e-10
3.57356e-10
-4.23505e-10
3.6853e-10
-6.08591e-10
3.56599e-10
-5.92703e-10
5.25565e-10
-4.88431e-10
8.98366e-10
-4.67792e-10
1.25663e-09
-5.35629e-10
1.44591e-09
-6.74281e-10
1.50006e-09
-8.15099e-10
1.45617e-09
-1.00339e-09
1.41744e-09
-1.21857e-09
1.28763e-09
-1.2977e-09
1.21866e-09
-1.38767e-09
1.12813e-09
-1.51747e-09
8.79907e-10
-1.55578e-09
6.23796e-10
-1.61953e-09
3.26348e-10
-1.70254e-09
1.03103e-10
-1.60693e-09
-4.91352e-10
-1.59135e-09
-5.96763e-10
-1.51751e-09
-7.23773e-10
-1.42927e-09
-9.67733e-10
-1.2852e-09
-1.17123e-09
-1.05091e-09
-1.40376e-09
-7.56078e-10
-1.55807e-09
-6.37926e-10
-1.57119e-09
-6.31947e-10
-1.48481e-09
-5.98e-10
-1.40329e-09
-5.56992e-10
-1.45623e-09
-4.32224e-10
-1.48184e-09
-2.11248e-10
-1.22696e-09
-1.37725e-10
-9.64967e-10
9.06108e-11
-7.77084e-10
3.37521e-10
-7.51718e-10
4.71178e-10
-1.49734e-11
6.44776e-10
3.73029e-10
8.2883e-10
6.57564e-10
1.02026e-09
8.67043e-10
7.8167e-10
1.14979e-09
6.08656e-10
1.09073e-09
4.40913e-10
9.52365e-10
2.67712e-10
7.78349e-10
1.44433e-10
6.47046e-10
4.02379e-12
4.55839e-10
-1.45403e-10
2.29836e-10
-3.0177e-10
2.91092e-11
-5.13967e-10
-1.77723e-10
-8.04447e-10
-3.997e-10
-9.18636e-10
-1.04937e-09
-9.19236e-10
-1.48152e-09
-8.29605e-10
-1.69712e-09
-6.72222e-10
-1.85951e-09
-5.68217e-10
-1.86702e-09
-3.97716e-10
-1.84723e-09
-2.20395e-10
-1.70635e-09
-1.7765e-11
-1.70175e-09
1.40323e-10
-1.56742e-09
3.24013e-10
-1.39546e-09
4.75068e-10
-1.28464e-09
6.40946e-10
-5.59441e-10
7.62226e-10
-7.64937e-10
8.61951e-10
-2.16201e-10
9.33949e-10
3.62482e-11
9.08788e-10
3.01153e-10
9.49626e-10
4.56003e-10
1.00152e-09
6.35287e-10
1.01595e-09
7.23069e-10
1.02074e-09
1.00933e-09
8.74278e-10
1.24139e-09
6.3444e-10
1.25937e-09
3.2441e-10
1.30279e-09
1.05236e-15
1.30242e-09
-4.62124e-18
-7.38266e-19
-4.31564e-18
-1.81309e-19
-4.27715e-18
-6.34001e-19
-4.13592e-18
-1.29565e-18
-3.85974e-18
-1.90725e-18
-3.47285e-18
-2.41986e-18
-3.00507e-18
-2.82532e-18
-2.48408e-18
-3.12309e-18
-1.93421e-18
-3.31549e-18
-1.37685e-18
-3.40746e-18
-8.31368e-19
-3.40627e-18
-3.137e-19
-3.32187e-18
1.64438e-19
-3.16653e-18
5.94901e-19
-2.95382e-18
9.72338e-19
-2.69752e-18
1.29395e-18
-2.41076e-18
1.55938e-18
-2.10547e-18
1.7704e-18
-1.79212e-18
1.93033e-18
-1.47958e-18
2.04336e-18
-1.17503e-18
2.11402e-18
-8.83977e-19
2.14691e-18
-6.10324e-19
2.14659e-18
-3.56595e-19
2.11743e-18
-1.24152e-19
2.06348e-18
8.65853e-20
1.98831e-18
2.75926e-19
1.89514e-18
4.44684e-19
1.78693e-18
5.93971e-19
1.66648e-18
7.25025e-19
1.53637e-18
8.39124e-19
1.39884e-18
9.37554e-19
1.25565e-18
1.02161e-18
1.10803e-18
1.0926e-18
9.56817e-19
1.15179e-18
8.02568e-19
1.20035e-18
6.45713e-19
1.2393e-18
4.86664e-19
1.26947e-18
3.25874e-19
1.29148e-18
1.6387e-19
1.30575e-18
1.31261e-18
-3.42804e-11
1.12033e-09
-2.64917e-11
1.16138e-09
-1.55652e-11
1.0787e-09
-3.22785e-11
9.60177e-10
-3.07092e-11
7.93377e-10
-4.78174e-11
6.60972e-10
-4.51031e-11
4.69706e-10
-5.76842e-11
4.13766e-10
-7.41489e-11
3.89087e-10
-1.0523e-10
3.88438e-10
-1.54312e-10
4.17612e-10
-2.57859e-10
4.60147e-10
-3.53132e-10
6.20838e-10
-3.15268e-10
8.60504e-10
-2.61163e-10
1.20253e-09
-2.27325e-10
1.41207e-09
-2.31413e-10
1.50415e-09
-3.09925e-10
1.53468e-09
-4.16944e-10
1.52446e-09
-6.06234e-10
1.47692e-09
-8.13716e-10
1.42614e-09
-9.82824e-10
1.29724e-09
-1.08668e-09
9.83768e-10
-1.00312e-09
5.40234e-10
-1.0248e-09
3.4803e-10
-1.13005e-09
2.08345e-10
-1.37752e-09
-2.43875e-10
-1.42977e-09
-5.44515e-10
-1.37879e-09
-7.74756e-10
-1.28905e-09
-1.05747e-09
-1.12748e-09
-1.3328e-09
-9.53513e-10
-1.57772e-09
-8.51453e-10
-1.66013e-09
-7.87128e-10
-1.63551e-09
-6.84081e-10
-1.58786e-09
-5.65386e-10
-1.52198e-09
-4.97184e-10
-1.52443e-09
-3.93569e-10
-1.58546e-09
-2.88451e-10
-1.33208e-09
-1.18501e-10
-1.13491e-09
1.55759e-10
-1.05134e-09
3.43811e-10
-9.39768e-10
4.92767e-10
-1.63928e-10
7.40443e-10
1.25355e-10
9.63007e-10
4.35001e-10
1.04605e-09
7.84001e-10
1.10831e-09
1.08753e-09
9.68384e-10
1.23066e-09
7.8492e-10
1.13583e-09
5.59054e-10
1.00422e-09
3.52e-10
8.54102e-10
1.64037e-10
6.43804e-10
-1.76013e-11
4.11477e-10
-2.29197e-10
2.40706e-10
-4.97104e-10
9.01857e-11
-7.06019e-10
-1.90782e-10
-9.13505e-10
-8.41886e-10
-9.60774e-10
-1.43425e-09
-9.45153e-10
-1.71274e-09
-8.31152e-10
-1.97351e-09
-6.45074e-10
-2.0531e-09
-4.30585e-10
-2.06172e-09
-2.67127e-10
-1.8698e-09
-1.11788e-10
-1.85709e-09
7.15799e-11
-1.75078e-09
2.77516e-10
-1.6014e-09
2.96145e-10
-1.30327e-09
6.16873e-10
-8.8017e-10
5.82196e-10
-7.30261e-10
7.8108e-10
-4.15086e-10
7.91137e-10
2.61895e-11
7.97411e-10
2.9488e-10
8.49408e-10
4.04006e-10
8.0254e-10
6.82155e-10
7.25209e-10
8.004e-10
6.64431e-10
1.07011e-09
6.18968e-10
1.28686e-09
6.91383e-10
1.18695e-09
6.60396e-10
1.33377e-09
1.11379e-15
1.96281e-09
-3.58731e-18
4.22553e-18
-4.76833e-18
9.98404e-19
-4.9388e-18
-4.67299e-19
-4.74751e-18
-1.49093e-18
-4.37235e-18
-2.28605e-18
-3.87831e-18
-2.91676e-18
-3.30284e-18
-3.40276e-18
-2.67648e-18
-3.75077e-18
-2.02618e-18
-3.96616e-18
-1.37566e-18
-4.05678e-18
-7.46969e-19
-4.03326e-18
-1.58354e-19
-3.90937e-18
3.77146e-19
-3.70143e-18
8.51193e-19
-3.4272e-18
1.2591e-18
-3.10445e-18
1.59924e-18
-2.74982e-18
1.87273e-18
-2.3781e-18
2.08294e-18
-2.00182e-18
2.23487e-18
-1.63116e-18
2.33441e-18
-1.27405e-18
2.38767e-18
-9.36293e-19