/*--------------------------------*- C++ -*----------------------------------*\
  =========                 |
  \\      /  F ield         | OpenFOAM: The Open Source CFD Toolbox
   \\    /   O peration     | Website:  https://openfoam.org
    \\  /    A nd           | Version:  6
     \\/     M anipulation  |
\*---------------------------------------------------------------------------*/
FoamFile
{
    version     2.0;
    format      ascii;
    class       volScalarField;
    location    "1100";
    object      T;
}
// * * * * * * * * * * * * * * * * * * * * * * * * * * * * * * * * * * * * * //

dimensions      [0 0 0 1 0 0 0];

internalField   nonuniform List<scalar> 
4800
(
552.461
552.282
552.104
551.928
551.756
551.586
551.42
551.257
551.096
550.938
550.783
550.629
550.476
550.325
550.174
550.025
549.881
549.742
549.612
549.488
549.373
549.265
549.165
549.072
548.986
548.905
548.829
548.758
548.69
548.625
548.562
548.499
548.437
548.376
548.313
548.25
548.184
548.117
548.047
547.975
547.9
547.822
547.742
547.66
547.576
547.491
547.406
547.32
547.235
547.152
547.07
546.991
546.914
546.841
546.77
546.701
546.634
546.568
546.504
546.439
546.375
546.31
546.245
546.178
546.109
546.037
545.962
545.883
545.8
545.713
545.623
545.53
545.433
545.334
545.232
545.129
545.025
544.923
544.822
544.721
544.618
544.514
544.409
544.304
544.198
544.093
543.987
543.882
543.777
543.672
543.568
543.463
543.359
543.255
543.152
543.048
542.945
542.842
542.739
542.636
542.534
542.431
542.329
542.227
542.125
542.023
541.921
541.819
541.717
541.616
541.514
541.412
541.311
541.209
541.108
541.006
540.905
540.804
540.702
540.601
552.461
552.283
552.106
551.931
551.76
551.591
551.425
551.262
551.102
550.944
550.789
550.634
550.481
550.329
550.178
550.03
549.886
549.749
549.619
549.496
549.381
549.273
549.173
549.08
548.994
548.913
548.838
548.766
548.699
548.634
548.57
548.508
548.446
548.385
548.322
548.259
548.194
548.126
548.057
547.984
547.909
547.831
547.751
547.668
547.584
547.498
547.412
547.326
547.241
547.158
547.076
546.996
546.92
546.845
546.774
546.704
546.637
546.57
546.505
546.44
546.375
546.31
546.244
546.177
546.108
546.037
545.963
545.886
545.805
545.72
545.631
545.538
545.442
545.341
545.239
545.136
545.032
544.929
544.826
544.724
544.62
544.515
544.41
544.304
544.198
544.093
543.987
543.882
543.777
543.672
543.567
543.463
543.359
543.255
543.151
543.048
542.945
542.842
542.739
542.636
542.534
542.431
542.329
542.227
542.125
542.023
541.921
541.819
541.717
541.616
541.514
541.412
541.311
541.209
541.108
541.006
540.905
540.803
540.702
540.601
552.461
552.284
552.11
551.937
551.767
551.6
551.435
551.274
551.114
550.957
550.801
550.646
550.492
550.339
550.188
550.041
549.899
549.763
549.633
549.511
549.396
549.288
549.188
549.096
549.009
548.929
548.854
548.783
548.716
548.651
548.587
548.525
548.464
548.403
548.34
548.277
548.212
548.145
548.075
548.002
547.927
547.848
547.768
547.684
547.6
547.513
547.427
547.34
547.254
547.17
547.088
547.008
546.93
546.855
546.782
546.712
546.643
546.575
546.508
546.442
546.376
546.311
546.244
546.176
546.108
546.037
545.964
545.888
545.809
545.726
545.639
545.547
545.452
545.354
545.252
545.15
545.045
544.94
544.835
544.729
544.623
544.517
544.41
544.304
544.198
544.092
543.987
543.881
543.776
543.671
543.567
543.462
543.358
543.255
543.151
543.048
542.944
542.841
542.739
542.636
542.533
542.431
542.329
542.227
542.124
542.022
541.921
541.819
541.717
541.615
541.514
541.412
541.311
541.209
541.108
541.006
540.905
540.803
540.702
540.601
552.463
552.289
552.116
551.946
551.778
551.612
551.449
551.288
551.13
550.973
550.818
550.663
550.509
550.356
550.206
550.06
549.919
549.784
549.655
549.533
549.418
549.311
549.211
549.119
549.033
548.953
548.878
548.808
548.741
548.676
548.613
548.551
548.49
548.429
548.366
548.303
548.238
548.171
548.101
548.028
547.952
547.873
547.792
547.708
547.623
547.536
547.448
547.361
547.274
547.19
547.106
547.025
546.947
546.87
546.795
546.723
546.652
546.582
546.514
546.446
546.379
546.312
546.244
546.176
546.107
546.036
545.963
545.888
545.81
545.728
545.643
545.554
545.461
545.364
545.264
545.162
545.057
544.951
544.843
544.734
544.626
544.518
544.411
544.304
544.197
544.091
543.986
543.88
543.775
543.67
543.566
543.461
543.357
543.254
543.15
543.047
542.944
542.841
542.738
542.635
542.533
542.43
542.328
542.226
542.124
542.022
541.92
541.819
541.717
541.615
541.514
541.412
541.311
541.209
541.108
541.006
540.905
540.803
540.702
540.601
552.465
552.294
552.125
551.957
551.791
551.627
551.466
551.306
551.149
550.993
550.839
550.685
550.532
550.38
550.231
550.086
549.946
549.812
549.684
549.562
549.447
549.341
549.241
549.149
549.064
548.985
548.911
548.84
548.773
548.709
548.646
548.584
548.523
548.462
548.4
548.336
548.271
548.203
548.133
548.06
547.984
547.905
547.824
547.739
547.652
547.565
547.476
547.388
547.301
547.215
547.131
547.049
546.968
546.889
546.813
546.738
546.664
546.592
546.522
546.452
546.383
546.314
546.245
546.176
546.105
546.034
545.961
545.886
545.808
545.728
545.644
545.557
545.465
545.371
545.272
545.171
545.066
544.958
544.849
544.738
544.627
544.519
544.41
544.303
544.196
544.09
543.984
543.879
543.774
543.669
543.564
543.46
543.356
543.253
543.149
543.046
542.943
542.84
542.737
542.635
542.532
542.43
542.328
542.226
542.124
542.022
541.92
541.818
541.717
541.615
541.513
541.412
541.31
541.209
541.107
541.006
540.905
540.803
540.702
540.601
552.466
552.3
552.134
551.969
551.806
551.644
551.485
551.328
551.172
551.018
550.864
550.712
550.56
550.409
550.262
550.118
549.98
549.846
549.718
549.597
549.483
549.377
549.278
549.187
549.102
549.023
548.949
548.88
548.813
548.749
548.686
548.624
548.563
548.502
548.439
548.375
548.309
548.241
548.17
548.097
548.02
547.941
547.859
547.774
547.687
547.599
547.51
547.421
547.333
547.246
547.161
547.077
546.994
546.913
546.834
546.756
546.679
546.604
546.531
546.458
546.387
546.316
546.246
546.175
546.103
546.031
545.957
545.882
545.804
545.725
545.642
545.555
545.466
545.372
545.275
545.175
545.07
544.962
544.852
544.74
544.628
544.518
544.41
544.302
544.195
544.088
543.983
543.877
543.772
543.667
543.563
543.459
543.355
543.251
543.148
543.045
542.942
542.839
542.736
542.634
542.531
542.429
542.327
542.225
542.123
542.021
541.919
541.818
541.716
541.615
541.513
541.412
541.31
541.209
541.107
541.006
540.905
540.803
540.702
540.601
552.468
552.306
552.143
551.982
551.823
551.664
551.508
551.353
551.199
551.046
550.894
550.743
550.592
550.444
550.298
550.156
550.018
549.886
549.759
549.638
549.525
549.419
549.321
549.23
549.146
549.067
548.994
548.924
548.857
548.793
548.731
548.669
548.608
548.546
548.483
548.418
548.351
548.282
548.211
548.137
548.06
547.98
547.898
547.812
547.725
547.637
547.548
547.459
547.37
547.282
547.194
547.108
547.023
546.939
546.856
546.775
546.695
546.617
546.541
546.466
546.392
546.319
546.246
546.173
546.1
546.027
545.952
545.876
545.798
545.718
545.636
545.55
545.462
545.369
545.273
545.173
545.069
544.962
544.851
544.739
544.627
544.516
544.408
544.3
544.193
544.086
543.98
543.875
543.77
543.665
543.561
543.457
543.353
543.25
543.146
543.043
542.94
542.838
542.735
542.633
542.53
542.428
542.326
542.224
542.122
542.021
541.919
541.817
541.716
541.614
541.513
541.411
541.31
541.208
541.107
541.006
540.905
540.803
540.702
540.601
552.471
552.312
552.154
551.997
551.841
551.686
551.532
551.38
551.228
551.077
550.927
550.777
550.629
550.482
550.338
550.198
550.061
549.93
549.804
549.684
549.572
549.467
549.369
549.278
549.194
549.116
549.042
548.973
548.906
548.842
548.779
548.717
548.655
548.593
548.529
548.463
548.396
548.326
548.253
548.178
548.101
548.021
547.938
547.853
547.766
547.678
547.588
547.499
547.409
547.319
547.229
547.141
547.053
546.966
546.88
546.795
546.712
546.631
546.551
546.474
546.397
546.321
546.246
546.172
546.097
546.021
545.945
545.869
545.79
545.71
545.627
545.542
545.454
545.362
545.267
545.167
545.064
544.957
544.847
544.735
544.623
544.513
544.404
544.297
544.19
544.083
543.978
543.872
543.767
543.663
543.559
543.455
543.351
543.248
543.145
543.042
542.939
542.836
542.734
542.631
542.529
542.427
542.325
542.223
542.122
542.02
541.918
541.817
541.715
541.614
541.512
541.411
541.31
541.208
541.107
541.006
540.904
540.803
540.702
540.601
552.473
552.318
552.164
552.011
551.859
551.708
551.558
551.409
551.26
551.111
550.963
550.815
550.669
550.524
550.382
550.243
550.108
549.978
549.853
549.734
549.622
549.517
549.42
549.33
549.246
549.168
549.094
549.024
548.957
548.893
548.83
548.767
548.705
548.641
548.576
548.509
548.44
548.369
548.296
548.221
548.143
548.063
547.98
547.894
547.807
547.719
547.629
547.539
547.447
547.356
547.264
547.173
547.083
546.993
546.904
546.816
546.73
546.645
546.563
546.482
546.403
546.324
546.247
546.169
546.092
546.015
545.938
545.86
545.78
545.699
545.616
545.531
545.442
545.351
545.256
545.158
545.055
544.949
544.84
544.729
544.618
544.509
544.4
544.293
544.186
544.08
543.974
543.869
543.764
543.66
543.556
543.452
543.349
543.246
543.143
543.04
542.937
542.835
542.732
542.63
542.528
542.426
542.324
542.222
542.121
542.019
541.918
541.816
541.715
541.613
541.512
541.411
541.309
541.208
541.107
541.005
540.904
540.803
540.702
540.601
552.475
552.324
552.174
552.025
551.877
551.729
551.583
551.437
551.291
551.145
551
550.855
550.71
550.568
550.428
550.291
550.158
550.029
549.905
549.787
549.675
549.571
549.474
549.384
549.301
549.222
549.148
549.078
549.01
548.945
548.882
548.818
548.754
548.689
548.623
548.555
548.485
548.413
548.339
548.263
548.185
548.104
548.02
547.935
547.848
547.759
547.669
547.577
547.485
547.392
547.298
547.205
547.112
547.019
546.928
546.837
546.748
546.661
546.575
546.491
546.409
546.328
546.248
546.168
546.088
546.009
545.929
545.849
545.769
545.687
545.603
545.517
545.429
545.338
545.243
545.145
545.044
544.939
544.832
544.722
544.612
544.503
544.395
544.288
544.182
544.076
543.971
543.866
543.761
543.657
543.553
543.45
543.346
543.243
543.14
543.038
542.935
542.833
542.731
542.629
542.527
542.425
542.323
542.221
542.12
542.018
541.917
541.815
541.714
541.613
541.511
541.41
541.309
541.208
541.106
541.005
540.904
540.803
540.702
540.601
552.477
552.33
552.184
552.039
551.894
551.75
551.607
551.464
551.321
551.179
551.036
550.894
550.753
550.613
550.474
550.339
550.207
550.08
549.957
549.84
549.73
549.626
549.53
549.44
549.356
549.278
549.203
549.133
549.064
548.998
548.934
548.869
548.804
548.737
548.669
548.6
548.529
548.456
548.381
548.304
548.225
548.144
548.059
547.973
547.885
547.796
547.705
547.613
547.52
547.425
547.33
547.235
547.14
547.045
546.951
546.858
546.767
546.677
546.589
546.502
546.417
546.332
546.249
546.166
546.084
546.002
545.92
545.838
545.756
545.673
545.589
545.502
545.414
545.322
545.228
545.131
545.031
544.927
544.821
544.713
544.605
544.497
544.389
544.283
544.177
544.071
543.966
543.862
543.758
543.654
543.55
543.447
543.344
543.241
543.138
543.036
542.933
542.831
542.729
542.627
542.525
542.423
542.322
542.22
542.119
542.017
541.916
541.815
541.713
541.612
541.511
541.41
541.308
541.207
541.106
541.005
540.904
540.803
540.702
540.601
552.478
552.336
552.193
552.051
551.91
551.769
551.63
551.49
551.351
551.212
551.072
550.933
550.794
550.656
550.52
550.386
550.256
550.13
550.009
549.893
549.784
549.682
549.586
549.496
549.413
549.334
549.259
549.187
549.118
549.051
548.985
548.919
548.852
548.784
548.715
548.644
548.572
548.499
548.423
548.345
548.264
548.182
548.096
548.009
547.92
547.83
547.738
547.645
547.551
547.456
547.36
547.263
547.167
547.071
546.975
546.88
546.787
546.695
546.604
546.514
546.426
546.338
546.252
546.166
546.081
545.996
545.911
545.827
545.743
545.659
545.573
545.486
545.397
545.306
545.213
545.117
545.018
544.916
544.811
544.704
544.596
544.489
544.383
544.277
544.171
544.066
543.962
543.857
543.754
543.65
543.547
543.444
543.341
543.238
543.136
543.033
542.931
542.829
542.727
542.625
542.524
542.422
542.321
542.219
542.118
542.016
541.915
541.814
541.713
541.611
541.51
541.409
541.308
541.207
541.106
541.005
540.904
540.803
540.702
540.601
552.48
552.341
552.202
552.063
551.925
551.788
551.651
551.515
551.379
551.243
551.107
550.97
550.834
550.699
550.565
550.433
550.304
550.18
550.06
549.946
549.839
549.737
549.642
549.552
549.469
549.389
549.314
549.242
549.172
549.104
549.036
548.969
548.9
548.831
548.761
548.689
548.615
548.54
548.462
548.383
548.301
548.217
548.13
548.042
547.952
547.86
547.767
547.674
547.579
547.483
547.387
547.289
547.192
547.095
546.999
546.903
546.808
546.714
546.62
546.528
546.436
546.346
546.256
546.167
546.078
545.991
545.903
545.817
545.73
545.644
545.557
545.47
545.381
545.29
545.197
545.101
545.003
544.903
544.799
544.694
544.587
544.481
544.375
544.27
544.165
544.061
543.957
543.853
543.749
543.646
543.543
543.44
543.338
543.235
543.133
543.031
542.929
542.827
542.725
542.624
542.522
542.421
542.319
542.218
542.117
542.015
541.914
541.813
541.712
541.611
541.51
541.409
541.308
541.206
541.105
541.004
540.903
540.802
540.701
540.6
552.482
552.345
552.209
552.074
551.939
551.805
551.671
551.538
551.405
551.272
551.139
551.005
550.872
550.739
550.608
550.479
550.352
550.23
550.112
549.999
549.893
549.792
549.697
549.608
549.524
549.445
549.369
549.296
549.226
549.156
549.087
549.018
548.949
548.878
548.807
548.733
548.658
548.581
548.501
548.42
548.336
548.249
548.161
548.071
547.98
547.887
547.793
547.699
547.604
547.508
547.412
547.314
547.217
547.119
547.022
546.926
546.83
546.734
546.639
546.543
546.449
546.355
546.261
546.168
546.077
545.986
545.895
545.806
545.717
545.629
545.541
545.453
545.363
545.273
545.18
545.085
544.988
544.889
544.787
544.683
544.577
544.472
544.367
544.263
544.159
544.055
543.951
543.848
543.745
543.642
543.539
543.437
543.334
543.232
543.13
543.028
542.926
542.825
542.723
542.622
542.52
542.419
542.318
542.216
542.115
542.014
541.913
541.812
541.711
541.61
541.509
541.408
541.307
541.206
541.105
541.004
540.903
540.802
540.701
540.6
552.483
552.349
552.216
552.084
551.951
551.82
551.689
551.559
551.429
551.298
551.168
551.037
550.907
550.777
550.649
550.522
550.398
550.278
550.162
550.051
549.945
549.845
549.751
549.662
549.579
549.499
549.423
549.35
549.278
549.208
549.138
549.068
548.997
548.926
548.853
548.778
548.7
548.621
548.539
548.455
548.368
548.28
548.19
548.098
548.005
547.911
547.817
547.722
547.627
547.531
547.434
547.337
547.24
547.142
547.045
546.948
546.851
546.754
546.657
546.559
546.462
546.365
546.268
546.172
546.076
545.982
545.889
545.796
545.705
545.615
545.525
545.436
545.346
545.254
545.162
545.068
544.972
544.874
544.773
544.671
544.566
544.462
544.359
544.255
544.152
544.048
543.945
543.843
543.74
543.638
543.535
543.433
543.331
543.229
543.127
543.026
542.924
542.823
542.721
542.62
542.519
542.417
542.316
542.215
542.114
542.013
541.912
541.811
541.71
541.609
541.508
541.407
541.307
541.206
541.105
541.004
540.903
540.802
540.701
540.6
552.484
552.353
552.222
552.092
551.963
551.834
551.706
551.578
551.45
551.322
551.195
551.067
550.939
550.812
550.686
550.562
550.44
550.322
550.209
550.099
549.995
549.896
549.803
549.715
549.632
549.552
549.476
549.403
549.331
549.26
549.189
549.118
549.047
548.974
548.899
548.822
548.742
548.66
548.576
548.489
548.399
548.308
548.216
548.122
548.028
547.934
547.839
547.744
547.648
547.552
547.456
547.359
547.261
547.164
547.066
546.969
546.872
546.774
546.676
546.576
546.477
546.376
546.276
546.176
546.077
545.979
545.883
545.787
545.693
545.601
545.509
545.418
545.328
545.236
545.143
545.05
544.954
544.858
544.759
544.658
544.555
544.452
544.349
544.247
544.144
544.042
543.939
543.837
543.735
543.633
543.531
543.429
543.328
543.226
543.124
543.023
542.921
542.82
542.719
542.618
542.517
542.416
542.315
542.214
542.113
542.012
541.911
541.81
541.709
541.609
541.508
541.407
541.306
541.205
541.104
541.004
540.903
540.802
540.701
540.6
552.485
552.357
552.228
552.1
551.973
551.846
551.72
551.594
551.469
551.343
551.218
551.092
550.967
550.843
550.72
550.598
550.479
550.364
550.252
550.145
550.043
549.945
549.853
549.766
549.683
549.604
549.528
549.454
549.382
549.31
549.239
549.168
549.096
549.022
548.945
548.866
548.784
548.7
548.612
548.522
548.43
548.336
548.241
548.146
548.05
547.955
547.86
547.764
547.668
547.572
547.475
547.379
547.282
547.185
547.088
546.991
546.894
546.796
546.696
546.595
546.493
546.39
546.286
546.183
546.08
545.978
545.877
545.779
545.682
545.587
545.494
545.401
545.309
545.217
545.125
545.031
544.937
544.841
544.744
544.645
544.543
544.441
544.34
544.238
544.136
544.034
543.933
543.831
543.73
543.628
543.527
543.425
543.324
543.223
543.121
543.02
542.919
542.818
542.717
542.616
542.515
542.414
542.313
542.212
542.112
542.011
541.91
541.809
541.709
541.608
541.507
541.406
541.306
541.205
541.104
541.003
540.903
540.802
540.701
540.6
552.486
552.359
552.233
552.107
551.981
551.857
551.732
551.609
551.485
551.361
551.238
551.114
550.991
550.869
550.749
550.631
550.515
550.402
550.293
550.188
550.087
549.992
549.901
549.814
549.732
549.653
549.578
549.504
549.432
549.36
549.289
549.217
549.144
549.069
548.991
548.91
548.826
548.739
548.649
548.556
548.461
548.364
548.267
548.17
548.073
547.976
547.88
547.784
547.688
547.592
547.496
547.4
547.303
547.207
547.111
547.014
546.917
546.818
546.717
546.615
546.51
546.404
546.298
546.19
546.083
545.977
545.873
545.771
545.671
545.573
545.478
545.383
545.29
545.198
545.105
545.012
544.918
544.824
544.728
544.631
544.53
544.43
544.329
544.228
544.127
544.026
543.926
543.825
543.724
543.623
543.522
543.421
543.32
543.219
543.118
543.017
542.916
542.815
542.715
542.614
542.513
542.412
542.312
542.211
542.11
542.01
541.909
541.808
541.708
541.607
541.506
541.406
541.305
541.204
541.104
541.003
540.902
540.802
540.701
540.6
552.487
552.362
552.237
552.112
551.988
551.865
551.743
551.62
551.498
551.376
551.254
551.132
551.011
550.892
550.774
550.659
550.546
550.436
550.33
550.227
550.129
550.035
549.945
549.86
549.779
549.7
549.625
549.551
549.479
549.407
549.336
549.264
549.19
549.114
549.035
548.953
548.867
548.778
548.685
548.59
548.492
548.394
548.294
548.195
548.097
547.999
547.902
547.805
547.708
547.612
547.517
547.421
547.326
547.231
547.135
547.039
546.941
546.841
546.739
546.635
546.529
546.42
546.31
546.199
546.088
545.978
545.87
545.765
545.661
545.561
545.462
545.365
545.27
545.177
545.084
544.991
544.898
544.805
544.711
544.616
544.517
544.417
544.317
544.218
544.118
544.018
543.918
543.818
543.718
543.618
543.517
543.417
543.316
543.216
543.115
543.014
542.914
542.813
542.712
542.612
542.511
542.411
542.31
542.21
542.109
542.008
541.908
541.807
541.707
541.606
541.506
541.405
541.305
541.204
541.103
541.003
540.902
540.802
540.701
540.6
552.488
552.363
552.239
552.116
551.993
551.871
551.75
551.628
551.507
551.386
551.265
551.146
551.027
550.911
550.796
550.683
550.573
550.466
550.362
550.262
550.166
550.074
549.986
549.902
549.822
549.744
549.669
549.596
549.524
549.452
549.38
549.308
549.234
549.157
549.078
548.995
548.908
548.817
548.723
548.625
548.526
548.426
548.325
548.224
548.124
548.024
547.926
547.828
547.731
547.635
547.54
547.445
547.351
547.256
547.161
547.065
546.967
546.866
546.763
546.657
546.548
546.436
546.323
546.208
546.093
545.979
545.867
545.758
545.652
545.548
545.446
545.347
545.25
545.155
545.061
544.969
544.877
544.785
544.693
544.6
544.503
544.404
544.305
544.206
544.107
544.008
543.909
543.81
543.711
543.612
543.512
543.412
543.312
543.212
543.112
543.012
542.911
542.811
542.71
542.61
542.509
542.409
542.309
542.208
542.108
542.007
541.907
541.806
541.706
541.606
541.505
541.405
541.304
541.204
541.103
541.003
540.902
540.801
540.701
540.6
552.488
552.364
552.24
552.117
551.995
551.874
551.753
551.632
551.512
551.392
551.273
551.155
551.039
550.924
550.812
550.702
550.595
550.491
550.391
550.293
550.2
550.11
550.024
549.941
549.861
549.785
549.71
549.637
549.564
549.493
549.421
549.349
549.275
549.199
549.119
549.036
548.949
548.857
548.762
548.663
548.563
548.461
548.359
548.257
548.155
548.054
547.955
547.856
547.759
547.663
547.568
547.474
547.38
547.286
547.191
547.094
546.995
546.892
546.787
546.679
546.567
546.452
546.335
546.216
546.098
545.98
545.865
545.752
545.642
545.535
545.43
545.328
545.228
545.132
545.037
544.944
544.853
544.762
544.672
544.582
544.489
544.39
544.291
544.192
544.095
543.997
543.9
543.802
543.704
543.605
543.507
543.408
543.308
543.209
543.109
543.009
542.909
542.808
542.708
542.608
542.508
542.407
542.307
542.207
542.107
542.006
541.906
541.806
541.705
541.605
541.504
541.404
541.304
541.203
541.103
541.002
540.902
540.801
540.701
540.6
552.488
552.363
552.24
552.117
551.994
551.873
551.752
551.631
551.511
551.392
551.275
551.159
551.045
550.933
550.823
550.716
550.613
550.512
550.414
550.32
550.229
550.141
550.057
549.975
549.897
549.82
549.746
549.673
549.601
549.53
549.458
549.387
549.314
549.238
549.16
549.077
548.991
548.9
548.804
548.705
548.604
548.502
548.399
548.296
548.192
548.09
547.989
547.89
547.793
547.697
547.602
547.508
547.414
547.319
547.223
547.126
547.025
546.92
546.813
546.701
546.586
546.468
546.347
546.224
546.102
545.981
545.862
545.746
545.632
545.521
545.413
545.308
545.206
545.106
545.01
544.916
544.825
544.736
544.648
544.562
544.479
544.373
544.274
544.177
544.081
543.985
543.889
543.793
543.696
543.599
543.501
543.403
543.304
543.205
543.106
543.006
542.906
542.806
542.706
542.606
542.506
542.406
542.306
542.206
542.105
542.005
541.905
541.805
541.704
541.604
541.504
541.404
541.303
541.203
541.102
541.002
540.902
540.801
540.701
540.6
552.487
552.362
552.237
552.113
551.99
551.867
551.746
551.625
551.505
551.387
551.271
551.157
551.045
550.936
550.829
550.726
550.625
550.527
550.432
550.341
550.252
550.167
550.084
550.004
549.927
549.851
549.777
549.705
549.633
549.562
549.492
549.421
549.35
549.277
549.2
549.119
549.033
548.944
548.85
548.751
548.65
548.549
548.446
548.342
548.238
548.135
548.033
547.933
547.835
547.739
547.643
547.548
547.453
547.357
547.26
547.16
547.057
546.949
546.838
546.723
546.604
546.482
546.357
546.231
546.106
545.982
545.86
545.74
545.622
545.508
545.395
545.286
545.181
545.078
544.98
544.885
544.793
544.704
544.618
544.532
544.443
544.347
544.253
544.158
544.065
543.971
543.877
543.783
543.688
543.592
543.495
543.398
543.3
543.201
543.102
543.003
542.904
542.804
542.704
542.604
542.504
542.405
542.304
542.204
542.104
542.004
541.904
541.804
541.704
541.604
541.503
541.403
541.303
541.202
541.102
541.002
540.901
540.801
540.701
540.6
552.486
552.359
552.232
552.107
551.982
551.858
551.735
551.613
551.494
551.376
551.261
551.149
551.04
550.933
550.829
550.728
550.631
550.536
550.444
550.356
550.27
550.186
550.105
550.027
549.95
549.876
549.803
549.731
549.661
549.591
549.522
549.454
549.385
549.315
549.24
549.16
549.077
548.99
548.898
548.801
548.703
548.604
548.503
548.4
548.295
548.19
548.086
547.985
547.887
547.789
547.691
547.594
547.497
547.399
547.3
547.197
547.089
546.978
546.862
546.743
546.62
546.493
546.365
546.236
546.109
545.983
545.858
545.734
545.614
545.495
545.378
545.264
545.154
545.047
544.945
544.848
544.755
544.667
544.582
544.498
544.41
544.319
544.229
544.138
544.047
543.956
543.864
543.772
543.678
543.584
543.489
543.393
543.295
543.198
543.099
543.001
542.901
542.802
542.702
542.603
542.503
542.403
542.303
542.203
542.103
542.003
541.903
541.803
541.703
541.603
541.503
541.403
541.302
541.202
541.102
541.002
540.901
540.801
540.701
540.6
552.485
552.355
552.225
552.097
551.97
551.843
551.719
551.596
551.476
551.359
551.245
551.135
551.027
550.923
550.822
550.724
550.63
550.538
550.449
550.363
550.279
550.198
550.119
550.042
549.967
549.894
549.823
549.753
549.685
549.618
549.552
549.487
549.422
549.354
549.282
549.205
549.124
549.042
548.955
548.862
548.766
548.671
548.573
548.47
548.364
548.256
548.15
548.047
547.947
547.846
547.744
547.643
547.543
547.443
547.341
547.234
547.122
547.005
546.884
546.76
546.633
546.503
546.372
546.243
546.116
545.988
545.86
545.733
545.609
545.485
545.361
545.241
545.124
545.011
544.903
544.803
544.711
544.625
544.542
544.461
544.377
544.291
544.204
544.117
544.028
543.94
543.85
543.76
543.669
543.576
543.482
543.387
543.291
543.194
543.096
542.998
542.899
542.8
542.701
542.601
542.502
542.402
542.302
542.202
542.102
542.002
541.903
541.803
541.702
541.602
541.502
541.402
541.302
541.202
541.102
541.001
540.901
540.801
540.7
540.6
552.483
552.349
552.216
552.084
551.953
551.824
551.698
551.574
551.453
551.336
551.223
551.114
551.008
550.906
550.808
550.713
550.621
550.532
550.446
550.362
550.28
550.201
550.124
550.049
549.976
549.906
549.838
549.773
549.709
549.646
549.584
549.524
549.464
549.399
549.328
549.254
549.178
549.103
549.021
548.932
548.84
548.748
548.654
548.553
548.445
548.333
548.224
548.119
548.012
547.904
547.795
547.689
547.587
547.486
547.381
547.269
547.15
547.027
546.9
546.772
546.643
546.513
546.383
546.257
546.132
546.003
545.868
545.737
545.612
545.482
545.346
545.217
545.094
544.97
544.852
544.75
544.661
544.58
544.5
544.423
544.345
544.264
544.18
544.095
544.009
543.923
543.836
543.748
543.659
543.568
543.476
543.382
543.287
543.191
543.093
542.996
542.897
542.798
542.699
542.6
542.5
542.401
542.301
542.201
542.102
542.002
541.902
541.802
541.702
541.602
541.502
541.402
541.302
541.202
541.101
541.001
540.901
540.801
540.7
540.6
552.48
552.341
552.203
552.067
551.932
551.8
551.672
551.546
551.425
551.308
551.195
551.086
550.982
550.882
550.786
550.694
550.605
550.518
550.434
550.352
550.272
550.194
550.119
550.048
549.98
549.915
549.853
549.794
549.737
549.682
549.626
549.572
549.516
549.451
549.381
549.31
549.24
549.173
549.097
549.01
548.921
548.835
548.744
548.646
548.538
548.421
548.308
548.2
548.077
547.95
547.827
547.717
547.624
547.526
547.419
547.297
547.166
547.034
546.902
546.771
546.64
546.517
546.395
546.282
546.171
546.035
545.885
545.746
545.633
545.498
545.334
545.197
545.074
544.928
544.793
544.688
544.613
544.542
544.466
544.391
544.318
544.241
544.16
544.076
543.991
543.907
543.822
543.736
543.649
543.56
543.47
543.377
543.283
543.187
543.091
542.993
542.895
542.797
542.698
542.599
542.499
542.4
542.3
542.201
542.101
542.001
541.901
541.801
541.701
541.601
541.501
541.401
541.301
541.201
541.101
541.001
540.901
540.801
540.7
540.6
552.477
552.332
552.188
552.047
551.908
551.773
551.641
551.514
551.392
551.274
551.16
551.052
550.948
550.849
550.755
550.666
550.58
550.495
550.413
550.332
550.253
550.178
550.107
550.041
549.981
549.927
549.876
549.828
549.783
549.735
549.687
549.639
549.583
549.515
549.446
549.382
549.319
549.258
549.185
549.098
549.008
548.928
548.832
548.737
548.639
548.517
548.398
548.301
548.121
547.949
547.806
547.702
547.649
547.566
547.452
547.297
547.138
547.01
546.882
546.752
546.608
546.504
546.408
546.338
546.268
546.095
545.896
545.751
545.691
545.554
545.308
545.184
545.089
544.89
544.73
544.625
544.577
544.52
544.451
544.369
544.301
544.228
544.145
544.06
543.975
543.891
543.808
543.725
543.64
543.553
543.464
543.372
543.279
543.184
543.088
542.991
542.894
542.795
542.696
542.597
542.498
542.399
542.299
542.2
542.1
542
541.901
541.801
541.701
541.601
541.501
541.401
541.301
541.201
541.101
541.001
540.901
540.8
540.7
540.6
552.473
552.321
552.171
552.025
551.882
551.743
551.608
551.479
551.354
551.235
551.12
551.011
550.907
550.809
550.717
550.63
550.546
550.464
550.383
550.303
550.226
550.155
550.094
550.041
549.994
549.954
549.921
549.891
549.862
549.821
549.777
549.734
549.671
549.593
549.53
549.488
549.427
549.37
549.294
549.191
549.086
549.034
548.885
548.787
548.737
548.625
548.486
548.355
548.178
547.969
547.864
547.774
547.684
547.581
547.461
547.299
547.127
546.995
546.86
546.738
546.58
546.464
546.374
546.342
546.331
546.167
545.921
545.713
545.636
545.491
545.304
545.217
545.041
544.828
544.695
544.58
544.536
544.503
544.469
544.348
544.293
544.227
544.135
544.045
543.959
543.876
543.795
543.714
543.631
543.546
543.458
543.368
543.276
543.182
543.086
542.99
542.892
542.794
542.695
542.597
542.497
542.398
542.299
542.199
542.1
542
541.9
541.801
541.701
541.601
541.501
541.401
541.301
541.201
541.101
541.001
540.901
540.8
540.7
540.6
552.468
552.308
552.153
552.002
551.855
551.712
551.574
551.442
551.315
551.194
551.077
550.966
550.861
550.763
550.672
550.587
550.506
550.425
550.346
550.267
550.192
550.135
550.105
550.078
550.042
550.016
550.008
550.003
549.993
549.946
549.905
549.863
549.77
549.677
549.639
549.675
549.588
549.535
549.441
549.291
549.189
549.133
549.041
548.94
548.854
548.733
548.576
548.405
548.203
548.001
547.906
547.79
547.691
547.6
547.485
547.303
547.07
546.976
546.875
546.741
546.561
546.411
546.336
546.289
546.334
546.182
545.894
545.657
545.5
545.366
545.28
545.239
544.991
544.857
544.751
544.578
544.545
544.597
544.599
544.4
544.311
544.222
544.108
544.025
543.942
543.862
543.783
543.704
543.624
543.54
543.454
543.365
543.273
543.18
543.085
542.988
542.891
542.793
542.695
542.596
542.497
542.398
542.298
542.199
542.099
542
541.9
541.8
541.7
541.601
541.501
541.401
541.301
541.201
541.101
541.001
540.9
540.8
540.7
540.6
552.462
552.293
552.134
551.981
551.832
551.685
551.544
551.408
551.278
551.154
551.035
550.921
550.813
550.716
550.626
550.544
550.463
550.383
550.303
550.226
550.157
550.14
550.206
550.229
550.169
550.114
550.131
550.158
550.162
550.07
550.073
550.017
549.845
549.762
549.767
549.768
549.71
549.694
549.69
549.46
549.308
549.266
549.174
549.024
548.898
548.77
548.58
548.408
548.173
547.953
547.919
547.805
547.727
547.678
547.514
547.323
546.972
546.884
546.894
546.795
546.551
546.354
546.232
546.188
546.285
546.073
545.871
545.626
545.359
545.3
545.483
545.194
544.848
545.072
545
544.578
544.599
544.583
544.841
544.553
544.278
543.836
543.981
543.984
543.919
543.847
543.773
543.697
543.618
543.536
543.451
543.362
543.271
543.178
543.083
542.987
542.89
542.792
542.694
542.595
542.496
542.397
542.298
542.198
542.099
541.999
541.9
541.8
541.7
541.6
541.501
541.401
541.301
541.201
541.101
541.001
540.9
540.8
540.7
540.6
552.453
552.279
552.12