/*--------------------------------*- C++ -*----------------------------------*\
  =========                 |
  \\      /  F ield         | OpenFOAM: The Open Source CFD Toolbox
   \\    /   O peration     | Website:  https://openfoam.org
    \\  /    A nd           | Version:  6
     \\/     M anipulation  |
\*---------------------------------------------------------------------------*/
FoamFile
{
    version     2.0;
    format      ascii;
    class       volScalarField;
    location    "570";
    object      p;
}
// * * * * * * * * * * * * * * * * * * * * * * * * * * * * * * * * * * * * * //

dimensions      [1 -1 -2 0 0 0 0];

internalField   nonuniform List<scalar> 
5964
(
103792
103792
103792
103792
103792
103792
103792
103792
103792
103792
103792
103792
103792
103792
103792
103792
103792
103792
103788
103784
103781
103778
103775
103772
103769
103767
103764
103762
103760
103758
103756
103755
103753
103751
103750
103748
103747
103745
103744
103743
103741
103740
103739
103738
103737
103736
103735
103734
103733
103732
103732
103731
103730
103729
103729
103728
103727
103727
103726
103726
103725
103724
103724
103724
103723
103723
103722
103722
103722
103721
103721
103721
103721
103720
103720
103720
103720
103720
103720
103720
103719
103719
103719
103719
103731
103731
103731
103731
103731
103731
103731
103731
103731
103731
103731
103731
103731
103731
103731
103731
103731
103731
103729
103725
103722
103719
103716
103713
103710
103708
103706
103704
103702
103700
103698
103696
103694
103693
103691
103689
103688
103687
103685
103684
103683
103682
103681
103679
103678
103677
103676
103675
103675
103674
103673
103672
103671
103671
103670
103669
103669
103668
103667
103667
103666
103666
103665
103665
103665
103664
103664
103663
103663
103663
103662
103662
103662
103662
103662
103661
103661
103661
103661
103661
103661
103661
103661
103661
103671
103671
103671
103671
103671
103671
103671
103671
103671
103671
103671
103671
103671
103671
103671
103671
103671
103671
103671
103667
103663
103660
103657
103654
103652
103649
103647
103645
103643
103641
103639
103637
103635
103634
103632
103631
103629
103628
103627
103625
103624
103623
103622
103621
103620
103619
103618
103617
103616
103615
103614
103613
103613
103612
103611
103611
103610
103609
103609
103608
103608
103607
103607
103606
103606
103605
103605
103605
103604
103604
103604
103604
103603
103603
103603
103603
103603
103602
103602
103602
103602
103602
103602
103602
103611
103611
103610
103610
103610
103610
103610
103610
103610
103610
103610
103610
103611
103611
103611
103611
103611
103611
103611
103607
103604
103601
103598
103595
103593
103590
103588
103586
103584
103582
103580
103578
103577
103575
103573
103572
103571
103569
103568
103567
103565
103564
103563
103562
103561
103560
103559
103558
103557
103556
103555
103555
103554
103553
103553
103552
103551
103551
103550
103549
103549
103548
103548
103548
103547
103547
103546
103546
103546
103545
103545
103545
103545
103544
103544
103544
103544
103544
103544
103544
103543
103543
103543
103543
103550
103550
103550
103550
103550
103550
103550
103550
103550
103550
103550
103550
103550
103550
103550
103550
103550
103550
103550
103547
103544
103541
103538
103536
103533
103531
103529
103527
103525
103523
103521
103519
103518
103516
103515
103513
103512
103510
103509
103508
103507
103505
103504
103503
103502
103501
103500
103499
103498
103498
103497
103496
103495
103494
103494
103493
103492
103492
103491
103491
103490
103490
103489
103489
103488
103488
103488
103487
103487
103487
103486
103486
103486
103486
103485
103485
103485
103485
103485
103485
103485
103485
103485
103485
103490
103490
103490
103490
103490
103489
103489
103489
103489
103490
103490
103490
103490
103490
103490
103490
103490
103490
103490
103487
103484
103482
103479
103477
103474
103472
103470
103468
103466
103464
103462
103460
103459
103457
103456
103454
103453
103451
103450
103449
103448
103447
103445
103444
103443
103442
103441
103440
103440
103439
103438
103437
103436
103436
103435
103434
103434
103433
103433
103432
103431
103431
103431
103430
103430
103429
103429
103429
103428
103428
103428
103427
103427
103427
103427
103427
103426
103426
103426
103426
103426
103426
103426
103426
103429
103429
103429
103429
103429
103429
103429
103429
103429
103429
103429
103429
103429
103429
103429
103429
103429
103429
103429
103427
103424
103422
103419
103417
103415
103413
103411
103409
103407
103405
103403
103401
103400
103398
103397
103395
103394
103393
103391
103390
103389
103388
103387
103386
103385
103384
103383
103382
103381
103380
103379
103378
103378
103377
103376
103376
103375
103374
103374
103373
103373
103372
103372
103371
103371
103371
103370
103370
103369
103369
103369
103369
103368
103368
103368
103368
103368
103368
103367
103367
103367
103367
103367
103367
103369
103369
103369
103369
103369
103369
103369
103369
103369
103369
103369
103369
103369
103369
103369
103369
103369
103369
103369
103367
103365
103362
103360
103358
103355
103353
103351
103349
103348
103346
103344
103342
103341
103339
103338
103336
103335
103334
103332
103331
103330
103329
103328
103327
103326
103325
103324
103323
103322
103321
103320
103320
103319
103318
103317
103317
103316
103316
103315
103314
103314
103313
103313
103313
103312
103312
103311
103311
103311
103310
103310
103310
103310
103309
103309
103309
103309
103309
103309
103309
103309
103308
103308
103308
103308
103308
103308
103308
103308
103308
103308
103308
103308
103308
103308
103308
103308
103308
103308
103308
103308
103308
103308
103307
103305
103302
103300
103298
103296
103294
103292
103290
103288
103287
103285
103283
103282
103280
103279
103277
103276
103275
103273
103272
103271
103270
103269
103268
103267
103266
103265
103264
103263
103262
103261
103261
103260
103259
103259
103258
103257
103257
103256
103256
103255
103255
103254
103254
103253
103253
103253
103252
103252
103252
103251
103251
103251
103251
103250
103250
103250
103250
103250
103250
103250
103250
103250
103250
103248
103248
103248
103248
103248
103248
103248
103248
103248
103248
103248
103248
103248
103248
103248
103248
103248
103248
103248
103248
103245
103243
103240
103238
103236
103234
103233
103231
103229
103227
103226
103224
103223
103221
103220
103218
103217
103216
103214
103213
103212
103211
103210
103209
103208
103207
103206
103205
103204
103203
103203
103202
103201
103200
103200
103199
103198
103198
103197
103197
103196
103196
103195
103195
103195
103194
103194
103193
103193
103193
103193
103192
103192
103192
103192
103192
103191
103191
103191
103191
103191
103191
103191
103191
103187
103187
103187
103187
103187
103187
103187
103187
103187
103187
103187
103187
103187
103187
103187
103187
103187
103187
103187
103187
103185
103183
103181
103179
103177
103175
103173
103171
103170
103168
103166
103165
103163
103162
103160
103159
103158
103157
103155
103154
103153
103152
103151
103150
103149
103148
103147
103146
103145
103144
103144
103143
103142
103141
103141
103140
103140
103139
103138
103138
103137
103137
103136
103136
103136
103135
103135
103135
103134
103134
103134
103133
103133
103133
103133
103133
103133
103132
103132
103132
103132
103132
103132
103132
103127
103127
103127
103127
103127
103127
103127
103127
103127
103127
103127
103127
103127
103127
103127
103127
103127
103127
103127
103127
103125
103123
103121
103119
103117
103115
103113
103112
103110
103109
103107
103106
103104
103103
103101
103100
103099
103097
103096
103095
103094
103093
103092
103091
103090
103089
103088
103087
103086
103085
103085
103084
103083
103083
103082
103081
103081
103080
103080
103079
103079
103078
103078
103077
103077
103076
103076
103076
103075
103075
103075
103075
103074
103074
103074
103074
103074
103074
103074
103073
103073
103073
103073
103073
103067
103067
103066
103066
103066
103066
103066
103066
103066
103066
103066
103067
103067
103067
103067
103067
103067
103067
103067
103067
103065
103063
103061
103059
103057
103056
103054
103052
103051
103049
103048
103046
103045
103043
103042
103041
103040
103038
103037
103036
103035
103034
103033
103032
103031
103030
103029
103028
103027
103026
103026
103025
103024
103024
103023
103022
103022
103021
103021
103020
103020
103019
103019
103018
103018
103018
103017
103017
103017
103016
103016
103016
103016
103015
103015
103015
103015
103015
103015
103015
103015
103014
103014
103014
103006
103006
103006
103006
103006
103006
103006
103006
103006
103006
103006
103006
103006
103006
103006
103006
103006
103006
103006
103006
103004
103003
103001
102999
102998
102996
102994
102993
102991
102990
102988
102987
102985
102984
102983
102982
102980
102979
102978
102977
102976
102975
102974
102973
102972
102971
102970
102969
102968
102967
102967
102966
102965
102965
102964
102963
102963
102962
102962
102961
102961
102960
102960
102959
102959
102959
102958
102958
102958
102957
102957
102957
102957
102957
102956
102956
102956
102956
102956
102956
102956
102956
102956
102956
102946
102946
102946
102946
102946
102946
102946
102946
102946
102946
102946
102946
102946
102946
102946
102946
102946
102946
102946
102946
102944
102942
102941
102939
102938
102936
102935
102933
102932
102930
102929
102927
102926
102925
102924
102922
102921
102920
102919
102918
102917
102916
102915
102914
102913
102912
102911
102910
102909
102908
102908
102907
102906
102906
102905
102904
102904
102903
102903
102902
102902
102901
102901
102900
102900
102900
102899
102899
102899
102899
102898
102898
102898
102898
102897
102897
102897
102897
102897
102897
102897
102897
102897
102897
102885
102885
102885
102885
102885
102885
102885
102885
102885
102885
102885
102885
102885
102885
102885
102885
102885
102885
102885
102885
102884
102882
102881
102879
102878
102876
102875
102874
102872
102871
102869
102868
102867
102866
102864
102863
102862
102861
102860
102859
102857
102856
102855
102854
102854
102853
102852
102851
102850
102849
102849
102848
102847
102847
102846
102845
102845
102844
102844
102843
102843
102842
102842
102842
102841
102841
102840
102840
102840
102840
102839
102839
102839
102839
102839
102838
102838
102838
102838
102838
102838
102838
102838
102838
102825
102825
102825
102825
102825
102825
102825
102825
102825
102825
102825
102825
102825
102825
102825
102825
102825
102825
102825
102825
102823
102822
102821
102819
102818
102817
102815
102814
102813
102811
102810
102809
102807
102806
102805
102804
102803
102801
102800
102799
102798
102797
102796
102795
102794
102794
102793
102792
102791
102790
102790
102789
102788
102788
102787
102786
102786
102785
102785
102784
102784
102783
102783
102783
102782
102782
102782
102781
102781
102781
102780
102780
102780
102780
102780
102779
102779
102779
102779
102779
102779
102779
102779
102779
102765
102765
102765
102765
102765
102765
102765
102764
102764
102764
102764
102764
102764
102764
102764
102764
102764
102764
102764
102764
102763
102762
102761
102759
102758
102757
102756
102754
102753
102752
102750
102749
102748
102747
102746
102744
102743
102742
102741
102740
102739
102738
102737
102736
102735
102734
102734
102733
102732
102731
102730
102730
102729
102728
102728
102727
102727
102726
102726
102725
102725
102724
102724
102724
102723
102723
102723
102722
102722
102722
102721
102721
102721
102721
102721
102721
102720
102720
102720
102720
102720
102720
102720
102720
102704
102704
102704
102704
102704
102704
102704
102704
102704
102704
102704
102704
102704
102704
102704
102704
102704
102704
102704
102704
102703
102702
102701
102699
102698
102697
102696
102695
102693
102692
102691
102690
102689
102687
102686
102685
102684
102683
102682
102681
102680
102679
102678
102677
102676
102675
102674
102674
102673
102672
102671
102671
102670
102669
102669
102668
102668
102667
102667
102666
102666
102665
102665
102665
102664
102664
102664
102663
102663
102663
102663
102662
102662
102662
102662
102662
102662
102661
102661
102661
102661
102661
102661
102661
102644
102644
102644
102644
102644
102644
102644
102644
102644
102643
102643
102643
102643
102643
102643
102644
102644
102644
102644
102644
102643
102642
102641
102640
102638
102637
102636
102635
102634
102633
102631
102630
102629
102628
102627
102626
102625
102624
102622
102621
102620
102619
102619
102618
102617
102616
102615
102614
102614
102613
102612
102612
102611
102610
102610
102609
102609
102608
102608
102607
102607
102606
102606
102606
102605
102605
102605
102604
102604
102604
102604
102603
102603
102603
102603
102603
102603
102602
102602
102602
102602
102602
102602
102602
102583
102583
102583
102583
102583
102583
102583
102583
102583
102583
102583
102583
102583
102583
102583
102583
102583
102583
102583
102583
102583
102582
102581
102580
102579
102578
102576
102575
102574
102573
102572
102571
102570
102569
102567
102566
102565
102564
102563
102562
102561
102560
102559
102558
102558
102557
102556
102555
102554
102554
102553
102552
102552
102551
102551
102550
102549
102549
102548
102548
102548
102547
102547
102546
102546
102546
102546
102545
102545
102545
102545
102544
102544
102544
102544
102544
102544
102543
102543
102543
102543
102543
102543
102543
102523
102523
102523
102523
102523
102523
102523
102523
102523
102523
102523
102523
102523
102523
102523
102523
102523
102523
102523
102523
102523
102522
102521
102520
102519
102518
102517
102516
102515
102514
102512
102511
102510
102509
102508
102507
102506
102505
102504
102503
102502
102501
102500
102499
102498
102497
102497
102496
102495
102494
102494
102493
102493
102492
102491
102491
102490
102490
102489
102489
102489
102488
102488
102487
102487
102487
102486
102486
102486
102486
102486
102485
102485
102485
102485
102485
102485
102485
102484
102484
102484
102484
102484
102484
102463
102463
102463
102463
102463
102463
102463
102462
102462
102462
102462
102462
102462
102462
102462
102462
102462
102462
102462
102462
102462
102462
102461
102460
102459
102458
102457
102456
102455
102454
102453
102452
102451
102450
102449
102447
102446
102445
102444
102443
102442
102442
102441
102440
102439
102438
102437
102437
102436
102435
102435
102434
102433
102433
102432
102432
102431
102431
102430
102430
102429
102429
102429
102428
102428
102428
102427
102427
102427
102427
102427
102426
102426
102426
102426
102426
102426
102426
102425
102425
102425
102425
102425
102425
102402
102402
102402
102402
102402
102402
102402
102402
102402
102402
102402
102402
102402
102402
102402
102402
102402
102402
102402
102402
102402
102402
102401
102400
102399
102398
102398
102397
102396
102395
102393
102392
102391
102390
102389
102388
102387
102386
102385
102384
102383
102382
102381
102380
102380
102379
102378
102377
102377
102376
102375
102375
102374
102374
102373
102372
102372
102372
102371
102371
102370
102370
102370
102369
102369
102369
102368
102368
102368
102368
102367
102367
102367
102367
102367
102367
102367
102367
102366
102366
102366
102366
102366
102366
102342
102342
102342
102342
102342
102342
102342
102342
102341
102341
102341
102341
102341
102341
102341
102341
102341
102341
102341
102341
102341
102341
102341
102340
102340
102339
102338
102337
102336
102335
102334
102333
102332
102331
102330
102329
102328
102327
102326
102325
102324
102323
102322
102321
102320
102319
102319
102318
102317
102317
102316
102315
102315
102314
102314
102313
102313
102312
102312
102312
102311
102311
102310
102310
102310
102310
102309
102309
102309
102309
102308
102308
102308
102308
102308
102308
102308
102308
102307
102307
102307
102307
102307
102307
102281
102281
102281
102281
102281
102281
102281
102281
102281
102281
102281
102281
102281
102281
102281
102281
102281
102281
102281
102281
102281
102281
102281
102280
102280
102280
102279
102278
102277
102276
102274
102273
102272
102271
102270
102269
102268
102267
102266
102265
102264
102263
102262
102262
102261
102260
102259
102259
102258
102257
102257
102256
102256
102255
102255
102254
102254
102253
102253
102252
102252
102252
102251
102251
102251
102250
102250
102250
102250
102250
102249
102249
102249
102249
102249
102249
102249
102248
102248
102248
102248
102248
102248
102248
102221
102221
102221
102221
102221
102221
102221
102221
102221
102220
102220
102220
102220
102220
102220
102220
102220
102220
102220
102220
102220
102220
102220
102220
102221
102221
102219
102218
102217
102216
102215
102214
102213
102212
102211
102210
102209
102208
102207
102206
102205
102204
102203
102202
102201
102201
102200
102199
102199
102198
102197
102197
102196
102196
102195
102195
102194
102194
102194
102193
102193
102192
102192
102192
102192
102191
102191
102191
102191
102190
102190
102190
102190
102190
102190
102190
102190
102189
102189
102189
102189
102189
102189
102189
102160
102160
102160
102160
102160
102160
102160
102160
102160
102160
102160
102160
102160
102160
102160
102160
102160
102160
102160
102160
102160
102160
102160
102160
102160
102160
102159
102159
102158
102157
102156
102154
102153
102152
102151
102150
102149
102148
102147
102146
102145
102144
102144
102143
102142
102141
102141
102140
102139
102139
102138
102137
102137
102136
102136
102136
102135
102135
102134
102134
102134
102133
102133
102133
102132
102132
102132
102132
102132
102131
102131
102131
102131
102131
102131
102131
102130
102130
102130
102130
102130
102130
102130
102130
102100
102100
102100
102100
102100
102100
102100
102100
102100
102099
102099
102099
102099
102099
102099
102099
102099
102099
102099
102099
102099
102100
102100
102100
102100
102100
102100
102100
102099
102097
102096
102095
102094
102093
102092
102091
102089
102089
102088
102087
102086
102085
102084
102083
102083
102082
102081
102080
102080
102079
102079
102078
102078
102077
102077
102076
102076
102075
102075
102075
102074
102074
102074
102073
102073
102073
102073
102073
102072
102072
102072
102072
102072
102072
102072
102072
102071
102071
102071
102071
102071
102071
102071
102071
102039
102039
102039
102039
102039
102039
102039
102039
102039
102039
102039
102039
102039
102039
102039
102039
102039
102039
102039
102039
102039
102039
102039
102039
102039
102039
102039
102039
102039
102038
102037
102035
102034
102033
102032
102031
102030
102029
102028
102027
102026
102025
102025
102024
102023
102022
102022
102021
102020
102020
102019
102019
102018
102018
102017
102017
102016
102016
102016
102015
102015
102015
102015
102014
102014
102014
102014
102013
102013
102013
102013
102013
102013
102013
102013
102012
102012
102012
102012
102012
102012
102012
102012
102012
101979
101979
101979
101979
101979
101979
101979
101979
101978
101978
101978
101978
101978
101978
101978
101978
101978
101978
101978
101978
101978
101979
101979
101979
101979
101979
101979
101979
101979
101979
101977
101976
101975
101973
101972
101971
101970
101969
101968
101968
101967
101966
101965
101964
101964
101963
101962
101962
101961
101960
101960
101959
101959
101958
101958
101958
101957
101957
101956
101956
101956
101956
101955
101955
101955
101955
101954
101954
101954
101954
101954
101954
101954
101953
101953
101953
101953
101953
101953
101953
101953
101953
101953
101953
101918
101918
101918
101918
101918
101918
101918
101918
101918
101918
101918
101918
101918
101918
101918
101918
101918
101918
101918
101918
101918
101918
101918
101918
101918
101918
101918
101918
101918
101918
101917
101916
101915
101914
101913
101912
101911
101910
101909
101908
101907
101906
101905
101905
101904
101903
101903
101902
101902
101901
101900
101900
101899
101899
101899
101898
101898
101897
101897
101897
101897
101896
101896
101896
101896
101895
101895
101895
101895
101895
101895
101895
101894
101894
101894
101894
101894
101894
101894
101894
101894
101894
101894
101894
101858
101858
101858
101858
101858
101858
101858
101858
101857
101857
101857
101857
101857
101857
101857
101857
101857
101857
101857
101857
101857
101858
101858
101858
101858
101858
101858
101858
101858
101858
101858
101857
101855
101854
101853
101852
101851
101850
101849
101848
101847
101847
101846
101845
101844
101844
101843
101843
101842
101841
101841
101840
101840
101840
101839
101839
101838
101838
101838
101838
101837
101837
101837
101837
101836
101836
101836
101836
101836
101836
101836
101835
101835
101835
101835
101835
101835
101835
101835
101835
101835
101835
101835
101835
101797
101797
101797
101797
101797
101797
101797
101797
101797
101797
101797
101797
101797
101797
101797
101797
101797
101797
101797
101797
101797
101797
101797
101797
101797
101797
101797
101798
101798
101798
101798
101797
101796
101794
101793
101792
101791
101790
101789
101789
101788
101787
101786
101786
101785
101784
101784
101783
101782
101782
101781
101781
101781
101780
101780
101779
101779
101779
101778
101778
101778
101778
101777
101777
101777
101777
101777
101777
101777
101776
101776
101776
101776
101776
101776
101776
101776
101776
101776
101776
101776
101776
101776
101776
101737
101737
101737
101737
101737
101737
101737
101737
101737
101736
101736
101736
101736
101736
101736
101736
101736
101736
101737
101737
101737
101737
101737
101737
101737
101737
101737
101737
101737
101737
101737
101737
101736
101735
101733
101732
101731
101731
101730
101729
101728
101727
101727
101726
101725
101725
101724
101723
101723
101722
101722
101722
101721
101721
101720
101720
101720
101719
101719
101719
101719
101718
101718
101718
101718
101718
101718
101717
101717
101717
101717
101717
101717
101717
101717
101717
101717
101717
101717
101717
101717
101717
101717
101717
101676
101676
101676
101676
101676
101676
101676
101676
101676
101676
101676
101676
101676
101676
101676
101676
101676
101676
101676
101676
101676
101676
101676
101676
101676
101676
101677
101677
101677
101677
101677
101677
101676
101675
101674
101673
101672
101671
101670
101669
101668
101668
101667
101666
101666
101665
101664
101664
101663
101663
101662
101662
101662
101661
101661
101661
101660
101660
101660
101659
101659
101659
101659
101659
101659
101658
101658
101658
101658
101658
101658
101658
101658
101658
101658
101658
101658
101658
101658
101658
101658
101658
101658
101658
101616
101616
101616
101616
101616
101616
101616
101616
101616
101616
101616
101616
101616
101616
101616
101616
101616
101616
101616
101616
101616
101616
101616
101616
101616
101616
101616
101616
101616
101616
101616
101616
101616
101615
101614
101613
101612
101611
101610
101609
101609
101608
101607
101607
101606
101605
101605
101604
101604
101603
101603
101602
101602
101602
101601
101601
101601
101601
101600
101600
101600
101600
101600
101599
101599
101599
101599
101599
101599
101599
101599
101599
101599
101599
101599
101599
101599
101599
101599
101599
101599
101599
101599
101599
101555
101555
101555
101555
101555
101555
101555
101555
101555
101555
101555
101555
101555
101555
101555
101555
101555
101555
101555
101555
101555
101555
101555
101555
101555
101556
101556
101556
101556
101556
101556
101556
101556
101555
101554
101553
101552
101551
101550
101549
101549
101548
101547
101547
101546
101546
101545
101545
101544
101544
101543
101543
101543
101542
101542
101542
101541
101541
101541
101541
101540
101540
101540
101540
101540
101540
101540
101540
101540
101540
101540
101540
101540
101540
101540
101540
101540
101540
101540
101540
101540
101540
101540
101540
101495
101495
101495
101495
101495
101495
101495
101495
101495
101495
101495
101495
101495
101495
101495
101495
101495
101495
101495
101495
101495
101495
101495
101495
101495
101495
101495
101495
101495
101495
101495
101495
101495
101495
101494
101493
101492
101491
101490
101490
101489
101488
101488
101487
101486
101486
101485
101485
101485
101484
101484
101483
101483
101483
101482
101482
101482
101482
101481
101481
101481
101481
101481
101481
101481
101481
101480
101480
101480
101480
101480
101480
101480
101480
101480
101480
101480
101480
101480
101481
101481
101481
101481
101481
101435
101435
101435
101435
101435
101434
101434
101434
101434
101434
101434
101434
101434
101434
101434
101434
101434
101434
101434
101434
101435
101435
101435
101435
101435
101435
101435
101435
101435
101435
101435
101435
101435
101435
101434
101433
101432
101431
101430
101430
101429
101428
101428
101427
101427
101426
101426
101425
101425
101424
101424
101424
101423
101423
101423
101423
101422
101422
101422
101422
101422
101422
101421
101421
101421
101421
101421
101421
101421
101421
101421
101421
101421
101421
101421
101421
101421
101421
101421
101421
101421
101421
101421
101421
101374
101374
101374
101374
101374
101374
101374
101374
101374
101374
101374
101374
101374
101374
101374
101374
101374
101374
101374
101374
101374
101374
101374
101374
101374
101374
101374
101374
101374
101374
101374
101374
101374
101374
101373
101373
101372
101371
101370
101370
101369
101369
101368
101367
101367
101366
101366
101366
101365
101365
101364
101364
101364
101364
101363
101363
101363
101363
101363
101362
101362
101362
101362
101362
101362
101362
101362
101362
101362
101362
101362
101362
101362
101362
101362
101362
101362
101362
101362
101362
101362
101362
101362
101362
101314
101314
101314
101314
101314
101314
101314
101314
101314
101314
101314
101314
101314
101314
101314
101314
101314
101314
101314
101314
101314
101314
101314
101314
101314
101314
101314
101314
101314
101314
101314
101314
101314
101314
101313
101313
101312
101311
101310
101310
101309
101309
101308
101308
101307
101307
101306
101306
101305
101305
101305
101304
101304
101304
101304
101304
101303
101303
101303
101303
101303
101303
101303
101303
101303
101303
101303
101303
101303
101303
101303
101303
101303
101303
101303
101303
101303
101303
101303
101303
101303
101303
101303
101303
101253
101253
101253
101253
101253
101253
101253
101253
101253
101253
101253
101253
101253
101253
101253
101253
101253
101253
101253
101253
101253
101253
101253
101253
101253
101253
101253
101253
101253
101253
101253
101253
101253
101253
101253
101252
101252
101251
101250
101250
101249
101249
101248
101248
101247
101247
101246
101246
101246
101245
101245
101245
101245
101244
101244
101244
101244
101244
101244
101243
101243
101243
101243
101243
101243
101243
101243
101243
101243
101243
101243
101244
101244
101244
101244
101244
101244
101244
101244
101244
101244
101244
101244
101244
101193
101193
101193
101193
101193
101193
101193
101193
101193
101193
101193
101193
101193
101193
101193
101193
101193
101193
101193
101193
101193
101193
101193
101193
101193
101193
101193
101193
101193
101193
101193
101193
101193
101193
101193
101192
101192
101191
101190
101190
101189
101189
101188
101188
101187
101187
101187
101186
101186
101186
101185
101185
101185
101185
101184
101184
101184
101184
101184
101184
101184
101184
101184
101184
101184
101184
101184
101184
101184
101184
101184
101184
101184
101185
101185
101185
101185
101185
101185
101185
101185
101185
101185
101185
101133
101132
101132
101132
101132
101132
101132
101132
101132
101132
101132
101132
101132
101132
101132
101132
101132
101132
101132
101132
101132
101132
101132
101132
101133
101133
101133
101133
101133
101133
101133
101133
101133
101133
101133
101132
101132
101131
101130
101130
101129
101129
101128
101128
101128
101127
101127
101126
101126
101126
101126
101125
101125
101125
101125
101125
101125
101125
101124
101124
101124
101124
101124
101124
101124
101124
101125
101125
101125
101125
101125
101125
101125
101125
101125
101126
101126
101126
101126
101126
101126
101126
101126
101126
101072
101072
101072
101072
101072
101072
101072
101072
101072
101072
101072
101072
101072
101072
101072
101072
101072
101072
101072
101072
101072
101072
101072
101072
101072
101072
101072
101072
101072
101072
101072
101073
101073
101073
101073
101072
101072
101071
101070
101070
101069
101069
101068
101068
101068
101067
101067
101067
101066
101066
101066
101066
101066
101065
101065
101065
101065
101065
101065
101065
101065
101065
101065
101065
101065
101065
101065
101065
101065
101066
101066
101066
101066
101066
101066
101067
101067
101067
101067
101067
101067
101067
101067
101067
101012
101012
101012
101012
101012
101012
101012
101012
101012
101012
101012
101012
101012
101012
101012
101012
101012
101012
101012
101012
101012
101012
101012
101012
101012
101012
101012
101012
101012
101012
101012
101012
101012
101013
101012
101012
101011
101011
101010
101010
101009
101009
101008
101008
101008
101007
101007
101007
101007
101006
101006
101006
101006
101006
101006
101005
101005
101005
101005
101005
101005
101005
101005
101005
101006
101006
101006
101006
101006
101006
101006
101007
101007
101007
101007
101007
101008
101008
101008
101008
101008
101008
101008
101008
100951
100951
100951
100951
100951
100951
100951
100951
100951
100951
100951
100951
100951
100951
100951
100951
100951
100951
100951
100951
100951
100951
100951
100951
100951
100951
100951
100951
100951
100952
100952
100952
100952
100952
100952
100952
100951
100951
100950
100950
100949
100949
100948
100948
100948
100947
100947
100947
100947
100947
100946
100946
100946
100946
100946
100946
100946
100946
100946
100946
100946
100946
100946
100946
100946
100946
100946
100947
100947
100947
100947
100947
100948
100948
100948
100948
100949
100949
100949
100949
100949
100949
100949
100949
100891
100891
100891
100891
100891
100891
100891
100891
100891
100891
100891
100891
100891
100891
100891
100891
100891
100891
100891
100891
100891
100891
100891
100891
100891
100891
100891
100891
100891
100891
100891
100891
100891
100892
100891
100891
100891
100890
100890
100890
100889
100889
100888
100888
100888
100888
100887
100887
100887
100887
100887
100886
100886
100886
100886
100886
100886
100886
100886
100886
100886
100886
100886
100886
100887
100887
100887
100887
100887
100888
100888
100888
100888
100889
100889
100889
100889
100890
100890
100890
100890
100890
100891
100891
100831
100831
100831
100831
100831
100830
100830
100830
100830
100830
100830
100830
100830
100830
100830
100830
100830
100830
100830
100830
100830
100830
100830
100830
100830
100830
100831
100831
100831
100831
100831
100831
100831
100831
100831
100831
100831
100830
100830
100829
100829
100829
100828
100828
100828
100828
100827
100827
100827
100827
100827
100827
100827
100826
100826
100826
100826
100826
100826
100827
100827
100827
100827
100827
100827
100827
100828
100828
100828
100828
100829