/*--------------------------------*- C++ -*----------------------------------*\
  =========                 |
  \\      /  F ield         | OpenFOAM: The Open Source CFD Toolbox
   \\    /   O peration     | Website:  https://openfoam.org
    \\  /    A nd           | Version:  6
     \\/     M anipulation  |
\*---------------------------------------------------------------------------*/
FoamFile
{
    version     2.0;
    format      ascii;
    class       surfaceScalarField;
    location    "570";
    object      phi;
}
// * * * * * * * * * * * * * * * * * * * * * * * * * * * * * * * * * * * * * //

dimensions      [0 3 -1 0 0 0 0];

internalField   nonuniform List<scalar> 
11773
(
-1.57194e-08
1.57194e-08
-4.38458e-08
2.813e-08
-7.65566e-08
3.27136e-08
-9.57529e-08
1.91992e-08
-1.06383e-07
1.06332e-08
-1.17717e-07
1.13367e-08
-1.25228e-07
7.51435e-09
-1.25027e-07
-1.96433e-10
-1.12862e-07
-1.21611e-08
-1.04015e-07
-8.84412e-09
-1.17317e-07
1.33049e-08
-6.72531e-08
-5.00593e-08
-4.8299e-08
-1.89496e-08
-3.89098e-08
-9.38425e-09
-2.02158e-08
-1.86894e-08
-1.44282e-08
-5.78323e-09
-2.502e-12
-1.44213e-08
9.39366e-14
4.86024e-14
8.56228e-14
8.31379e-15
8.04538e-14
5.17357e-15
7.50952e-14
5.3625e-15
6.99223e-14
5.17559e-15
6.52302e-14
4.69336e-15
6.10724e-14
4.15792e-15
5.73999e-14
3.67159e-15
5.41397e-14
3.25851e-15
5.1223e-14
2.91432e-15
4.85926e-14
2.62753e-15
4.62024e-14
2.38675e-15
4.40161e-14
2.1827e-15
4.2004e-14
2.00815e-15
4.01423e-14
1.85762e-15
3.84112e-14
1.72691e-15
3.67943e-14
1.61272e-15
3.52776e-14
1.51248e-15
3.38494e-14
1.42407e-15
3.24995e-14
1.34577e-15
3.12194e-14
1.27615e-15
3.00016e-14
1.214e-15
2.88397e-14
1.1583e-15
2.7728e-14
1.10816e-15
2.66617e-14
1.06285e-15
2.56368e-14
1.02172e-15
2.46495e-14
9.84208e-16
2.36968e-14
9.49846e-16
2.27758e-14
9.18223e-16
2.18842e-14
8.88988e-16
2.10198e-14
8.61839e-16
2.01809e-14
8.36518e-16
1.93659e-14
8.12805e-16
1.85732e-14
7.9051e-16
1.78017e-14
7.69474e-16
1.70502e-14
7.49561e-16
1.63177e-14
7.30654e-16
1.56033e-14
7.12658e-16
1.49061e-14
6.95491e-16
1.42254e-14
6.79084e-16
1.35605e-14
6.63381e-16
1.29107e-14
6.48336e-16
1.22754e-14
6.33911e-16
1.1654e-14
6.20074e-16
1.1046e-14
6.06802e-16
1.04507e-14
5.94076e-16
9.86769e-15
5.81881e-16
9.29642e-15
5.70208e-16
8.73638e-15
5.59048e-16
8.18704e-15
5.48399e-16
7.6479e-15
5.38257e-16
7.11846e-15
5.28623e-16
6.59819e-15
5.19497e-16
6.0866e-15
5.10881e-16
5.58317e-15
5.02775e-16
5.08739e-15
4.95182e-16
4.59873e-15
4.881e-16
4.1167e-15
4.8153e-16
3.64077e-15
4.7547e-16
3.17044e-15
4.69916e-16
2.70521e-15
4.64859e-16
2.24462e-15
4.60264e-16
1.78828e-15
4.56032e-16
1.33606e-15
4.51952e-16
8.88076e-16
4.47722e-16
4.44226e-16
4.43601e-16
4.43976e-16
-5.1332e-08
6.7055e-08
-7.27944e-08
4.95985e-08
-7.86436e-08
3.8568e-08
-9.00921e-08
3.06531e-08
-1.1334e-07
3.3887e-08
-1.21202e-07
1.92053e-08
-1.30316e-07
1.66333e-08
-1.3378e-07
3.27506e-09
-1.16835e-07
-2.90979e-08
-1.1902e-07
-6.65057e-09
-1.05016e-07
-6.90549e-10
-7.68102e-08
-7.82568e-08
-5.85818e-08
-3.71708e-08
-3.24655e-08
-3.54928e-08
-2.56577e-08
-2.54894e-08
-5.2421e-09
-2.6191e-08
3.12504e-12
-1.96606e-08
5.85394e-14
5.19705e-12
8.28649e-14
-1.60082e-14
8.06233e-14
7.42174e-15
7.4937e-14
1.10533e-14
6.95065e-14
1.06083e-14
6.4769e-14
9.43106e-15
6.06552e-14
8.27018e-15
5.70475e-14
7.27621e-15
5.3848e-14
6.45377e-15
5.09817e-14
5.77543e-15
4.83915e-14
5.21174e-15
4.60334e-14
4.73834e-15
4.38725e-14
4.33653e-15
4.18812e-14
3.99226e-15
4.00365e-14
3.69492e-15
3.83195e-14
3.4364e-15
3.67144e-14
3.21036e-15
3.52078e-14
3.01177e-15
3.37881e-14
2.83653e-15
3.24456e-14
2.68128e-15
3.11717e-14
2.54318e-15
2.99593e-14
2.41987e-15
2.88021e-14
2.30931e-15
2.76944e-14
2.20979e-15
2.66318e-14
2.11982e-15
2.56099e-14
2.03812e-15
2.46253e-14
1.9636e-15
2.36749e-14
1.89531e-15
2.2756e-14
1.83246e-15
2.18662e-14
1.77432e-15
2.10035e-14
1.72033e-15
2.0166e-14
1.66995e-15
1.93523e-14
1.62275e-15
1.85608e-14
1.57837e-15
1.77903e-14
1.53648e-15
1.70397e-14
1.49681e-15
1.63081e-14
1.45915e-15
1.55945e-14
1.42328e-15
1.48981e-14
1.38906e-15
1.42181e-14
1.35635e-15
1.35538e-14
1.32504e-15
1.29046e-14
1.29504e-15
1.22699e-14
1.26627e-15
1.16491e-14
1.23867e-15
1.10416e-14
1.21219e-15
1.04469e-14
1.1868e-15
9.86443e-15
1.16247e-15
9.29368e-15
1.13918e-15
8.73415e-15
1.11691e-15
8.18532e-15
1.09567e-15
7.64669e-15
1.07543e-15
7.11775e-15
1.0562e-15
6.59799e-15
1.038e-15
6.08691e-15
1.0208e-15
5.58398e-15
1.00463e-15
5.0887e-15
9.89484e-16
4.60055e-15
9.75359e-16
4.11902e-15
9.62257e-16
3.64358e-15
9.50174e-16
3.17375e-15
9.39097e-16
2.70901e-15
9.29002e-16
2.24891e-15
9.19829e-16
1.793e-15
9.11453e-16
1.34081e-15
9.03678e-16
8.9168e-16
8.96383e-16
4.44827e-16
8.89968e-16
8.88588e-16
-2.83147e-08
9.53725e-08
-5.93902e-08
8.06794e-08
-7.74488e-08
5.66313e-08
-9.54622e-08
4.86711e-08
-1.15471e-07
5.39005e-08
-1.31701e-07
3.54405e-08
-1.36469e-07
2.14075e-08
-1.4082e-07
7.63061e-09
-1.20905e-07
-4.9007e-08
-1.16699e-07
-1.08496e-08
-9.16397e-08
-2.57427e-08
-8.0133e-08
-8.97566e-08
-6.06534e-08
-5.66438e-08
-3.6664e-08
-5.94757e-08
-3.3402e-08
-2.87447e-08
-1.11859e-08
-4.84003e-08
3.17837e-09
-3.40195e-08
1.65764e-13
3.18552e-09
1.03444e-13
4.70404e-14
8.3816e-14
2.70518e-14
7.45526e-14
2.03207e-14
6.8481e-14
1.66822e-14
6.37591e-14
1.41534e-14
5.97925e-14
1.22356e-14
5.63358e-14
1.07304e-14
5.3263e-14
9.52307e-15
5.04973e-14
8.53671e-15
4.79862e-14
7.71773e-15
4.56906e-14
7.02827e-15
4.358e-14
6.44115e-15
4.16294e-14
5.93652e-15
3.98184e-14
5.49952e-15
3.81295e-14
5.11876e-15
3.65481e-14
4.78527e-15
3.50616e-14
4.49189e-15
3.36591e-14
4.23273e-15
3.23314e-14
4.00292e-15
3.10703e-14
3.79837e-15
2.98688e-14
3.61559e-15
2.8721e-14
3.45164e-15
2.76216e-14
3.30395e-15
2.65661e-14
3.17037e-15
2.55505e-14
3.049e-15
2.45713e-14
2.93824e-15
2.36256e-14
2.83668e-15
2.27108e-14
2.74314e-15
2.18247e-14
2.65659e-15
2.09651e-14
2.57615e-15
2.01305e-14
2.50105e-15
1.93193e-14
2.43067e-15
1.853e-14
2.36444e-15
1.77615e-14
2.3019e-15
1.70128e-14
2.24266e-15
1.62828e-14
2.18637e-15
1.55707e-14
2.13276e-15
1.48757e-14
2.08159e-15
1.4197e-14
2.03266e-15
1.3534e-14
1.98581e-15
1.2886e-14
1.94089e-15
1.22524e-14
1.89781e-15
1.16327e-14
1.85648e-15
1.10262e-14
1.81682e-15
1.04325e-14
1.77878e-15
9.85097e-15
1.74232e-15
9.28119e-15
1.70741e-15
8.72262e-15
1.67403e-15
8.17474e-15
1.64218e-15
7.63706e-15
1.61183e-15
7.10907e-15
1.58301e-15
6.59027e-15
1.5557e-15
6.08013e-15
1.52992e-15
5.57816e-15
1.50567e-15
5.08384e-15
1.48296e-15
4.59664e-15
1.46178e-15
4.11605e-15
1.44215e-15
3.64154e-15
1.42405e-15
3.17261e-15
1.40746e-15
2.70875e-15
1.39236e-15
2.24945e-15
1.37867e-15
1.79417e-15
1.3663e-15
1.3423e-15
1.35515e-15
8.93007e-16
1.34527e-15
4.45222e-16
1.33731e-15
1.33358e-15
-2.95627e-08
1.24938e-07
-5.69588e-08
1.08081e-07
-8.30823e-08
8.27596e-08
-1.08447e-07
7.40407e-08
-1.1998e-07
6.54386e-08
-1.33066e-07
4.85331e-08
-1.342e-07
2.25469e-08
-1.30309e-07
3.74421e-09
-1.31907e-07
-4.74022e-08
-1.14716e-07
-2.80347e-08
-8.21685e-08
-5.82846e-08
-8.66365e-08
-8.52819e-08
-7.08398e-08
-7.24337e-08
-5.83147e-08
-7.19947e-08
-3.18594e-08
-5.51936e-08
-1.87866e-08
-6.14666e-08
-9.81052e-09
-4.29906e-08
-9.52846e-13
-6.62144e-09
8.58718e-14
4.84449e-14
7.79066e-14
3.50189e-14
7.1365e-14
2.68665e-14
6.627e-14
2.17795e-14
6.20856e-14
1.83383e-14
5.84817e-14
1.58383e-14
5.52867e-14
1.3923e-14
5.24078e-14
1.23985e-14
4.97889e-14
1.11513e-14
4.73913e-14
1.01104e-14
4.51852e-14
9.22881e-15
4.31466e-14
8.47387e-15
4.1255e-14
7.82196e-15
3.94929e-14
7.25532e-15
3.78451e-14
6.76015e-15
3.62985e-14
6.3255e-15
3.48417e-14
5.94245e-15
3.34646e-14
5.60361e-15
3.21587e-14
5.30281e-15
3.09165e-14
5.0348e-15
2.97313e-14
4.79512e-15
2.85976e-14
4.57994e-15
2.75105e-14
4.38597e-15
2.64655e-14
4.21038e-15
2.54591e-14
4.05073e-15
2.4488e-14
3.9049e-15
2.35493e-14
3.7711e-15
2.26406e-14
3.64776e-15
2.17598e-14
3.53354e-15
2.0905e-14
3.42729e-15
2.00746e-14
3.32803e-15
1.9267e-14
3.23493e-15
1.84811e-14
3.14725e-15
1.77156e-14
3.06441e-15
1.69695e-14
2.98587e-15
1.6242e-14
2.91121e-15
1.55321e-14
2.84005e-15
1.48391e-14
2.7721e-15
1.41623e-14
2.70709e-15
1.35011e-14
2.64481e-15
1.28548e-14
2.58509e-15
1.22228e-14
2.52778e-15
1.16046e-14
2.47277e-15
1.09996e-14
2.41997e-15
1.04074e-14
2.36932e-15
9.82731e-15
2.32076e-15
9.25894e-15
2.27425e-15
8.70177e-15
2.22977e-15
8.15529e-15
2.18731e-15
7.619e-15
2.14687e-15
7.09241e-15
2.10844e-15
6.575e-15
2.07203e-15
6.06627e-15
2.03766e-15
5.5657e-15
2.00533e-15
5.07279e-15
1.97505e-15
4.58699e-15
1.94683e-15
4.10779e-15
1.92067e-15
3.63466e-15
1.89657e-15
3.16707e-15
1.87451e-15
2.70448e-15
1.85446e-15
2.24635e-15
1.83637e-15
1.79207e-15
1.82016e-15
1.34096e-15
1.80584e-15
8.92201e-16
1.79361e-15
4.45074e-16
1.78398e-15
1.77839e-15
-2.79055e-08
1.52846e-07
-5.41315e-08
1.34313e-07
-7.35566e-08
1.0219e-07
-9.54792e-08
9.59684e-08
-1.12224e-07
8.21872e-08
-1.17106e-07
5.34206e-08
-1.22509e-07
2.79558e-08
-1.12855e-07
-5.90283e-09
-1.24081e-07
-3.61708e-08
-1.00239e-07
-5.18702e-08
-8.08772e-08
-7.76405e-08
-7.63533e-08
-8.97994e-08
-5.79031e-08
-9.08774e-08
-4.13374e-08
-8.85543e-08
-1.31999e-08
-8.33247e-08
-1.47622e-08
-5.98974e-08
-2.15245e-08
-3.62227e-08
-2.07811e-12
-2.81397e-08
7.4095e-14
4.86345e-14
7.07601e-14
3.83557e-14
6.69105e-14
3.07203e-14
6.32607e-14
2.54317e-14
5.99025e-14
2.16969e-14
5.68119e-14
1.89278e-14
5.39599e-14
1.67727e-14
5.13242e-14
1.50308e-14
4.8886e-14
1.35852e-14
4.66278e-14
1.23637e-14
4.45326e-14
1.13186e-14
4.25839e-14
1.04166e-14
4.07667e-14
9.63306e-15
3.90669e-14
8.94885e-15
3.74718e-14
8.34889e-15
3.59701e-14
7.82087e-15
3.45517e-14
7.35459e-15
3.32077e-14
6.94146e-15
3.19303e-14
6.57421e-15
3.07126e-14
6.24662e-15
2.95488e-14
5.95335e-15
2.84335e-14
5.6898e-15
2.73623e-14
5.45199e-15
2.63313e-14
5.2365e-15
2.53369e-14
5.04038e-15
2.43763e-14
4.86106e-15
2.34467e-14
4.69635e-15
2.25461e-14
4.54436e-15
2.16723e-14
4.40346e-15
2.08237e-14
4.27226e-15
1.99987e-14
4.14956e-15
1.91959e-14
4.03435e-15
1.84143e-14
3.92576e-15
1.76526e-14
3.82305e-15
1.69101e-14
3.7256e-15
1.61857e-14
3.63288e-15
1.54787e-14
3.54445e-15
1.47884e-14
3.45993e-15
1.41141e-14
3.37903e-15
1.34552e-14
3.30148e-15
1.28111e-14
3.22707e-15
1.21812e-14
3.15563e-15
1.1565e-14
3.08703e-15
1.0962e-14
3.02117e-15
1.03716e-14
2.95795e-15
9.79346e-15
2.89732e-15
9.22695e-15
2.83924e-15
8.67162e-15
2.78368e-15
8.12697e-15
2.73062e-15
7.59251e-15
2.68008e-15
7.06776e-15
2.63204e-15
6.55219e-15
2.58653e-15
6.04531e-15
2.54356e-15
5.54661e-15
2.50313e-15
5.05555e-15
2.46528e-15
4.57162e-15
2.43002e-15
4.09427e-15
2.39735e-15
3.62298e-15
2.36727e-15
3.15718e-15
2.33979e-15
2.69631e-15
2.31486e-15
2.23979e-15
2.29246e-15
1.78698e-15
2.27256e-15
1.33717e-15
2.25522e-15
8.8958e-16
2.24077e-15
4.44462e-16
2.22871e-15
2.22269e-15
-1.84e-08
1.71249e-07
-3.70337e-08
1.52952e-07
-6.74851e-08
1.32648e-07
-9.16483e-08
1.20137e-07
-9.20067e-08
8.25502e-08
-9.93373e-08
6.07545e-08
-1.03337e-07
3.1962e-08
-1.05192e-07
-4.0427e-09
-1.02244e-07
-3.9113e-08
-8.74804e-08
-6.66277e-08
-7.93998e-08
-8.57153e-08
-6.95541e-08
-9.96394e-08
-4.31612e-08
-1.17264e-07
-2.51282e-08
-1.06581e-07
-1.41151e-08
-9.43316e-08
-9.88813e-09
-6.41177e-08
-8.11475e-09
-3.79896e-08
-1.85056e-12
-3.62474e-08
6.51035e-14
4.88459e-14
6.40784e-14
3.93828e-14
6.22844e-14
3.25185e-14
5.99965e-14
2.77221e-14
5.7485e-14
2.4209e-14
5.49327e-14
2.14791e-14
5.2443e-14
1.92601e-14
5.00669e-14
1.74035e-14
4.7825e-14
1.58229e-14
4.57212e-14
1.44626e-14
4.3751e-14
1.32834e-14
4.19058e-14
1.2256e-14
4.01753e-14
1.13575e-14
3.85489e-14
1.05689e-14
3.70165e-14
9.87497e-15
3.55685e-14
9.2625e-15
3.41964e-14
8.72047e-15
3.28923e-14
8.23939e-15
3.16493e-14
7.8111e-15
3.04616e-14
7.42857e-15
2.93236e-14
7.0857e-15
2.82307e-14
6.77722e-15
2.7179e-14
6.49854e-15
2.61648e-14
6.24572e-15
2.51852e-14
6.01533e-15
2.42373e-14
5.80442e-15
2.3319e-14
5.61044e-15
2.2428e-14
5.4312e-15
2.15628e-14
5.26483e-15
2.07217e-14
5.1097e-15
1.99033e-14
4.96444e-15
1.91064e-14
4.82787e-15
1.833e-14
4.699e-15
1.75731e-14
4.57697e-15
1.68347e-14
4.46107e-15
1.61142e-14
4.35068e-15
1.54107e-14
4.2453e-15
1.47237e-14
4.1445e-15
1.40524e-14
4.04793e-15
1.33964e-14
3.95529e-15
1.27549e-14
3.86635e-15
1.21276e-14
3.7809e-15
1.15139e-14
3.69881e-15
1.09133e-14
3.61995e-15
1.03253e-14
3.54422e-15
9.74946e-15
3.47156e-15
9.18523e-15
3.40194e-15
8.63217e-15
3.33531e-15
8.08979e-15
3.27167e-15
7.5576e-15
3.21102e-15
7.03512e-15
3.15338e-15
6.52184e-15
3.09875e-15
6.01726e-15
3.04716e-15
5.52087e-15
2.99864e-15
5.03213e-15
2.95321e-15
4.55053e-15
2.9109e-15
4.07551e-15
2.87172e-15
3.60652e-15
2.83569e-15
3.14299e-15
2.80281e-15
2.68433e-15
2.77307e-15
2.22993e-15
2.74645e-15
1.77916e-15
2.72293e-15
1.33139e-15
2.70256e-15
8.8607e-16
2.68564e-15
4.42911e-16
2.67179e-15
2.66547e-15
-3.86685e-08
2.09922e-07
-5.59249e-08
1.70213e-07
-6.36834e-08
1.40413e-07
-8.45509e-08
1.41011e-07
-8.89194e-08
8.69243e-08
-9.05078e-08
6.23475e-08
-8.61902e-08
2.76493e-08
-8.8674e-08
-1.55341e-09
-8.50964e-08
-4.26855e-08
-6.73673e-08
-8.43503e-08
-4.8958e-08
-1.04118e-07
-2.83967e-08
-1.20195e-07
-1.97032e-08
-1.25951e-07
-1.22981e-08
-1.1398e-07
-7.91368e-09
-9.87103e-08
-1.66211e-09
-7.03629e-08
-1.13967e-09
-3.85056e-08
-1.68881e-12
-3.73805e-08
5.68393e-14
4.87486e-14
5.80799e-14
3.81443e-14
5.80939e-14
3.25083e-14
5.69292e-14
2.88892e-14
5.51035e-14
2.60353e-14
5.29986e-14
2.35831e-14
5.08264e-14
2.143e-14
4.86918e-14
1.95348e-14
4.66425e-14
1.7868e-14
4.46971e-14
1.64031e-14
4.28596e-14
1.51156e-14
4.11268e-14
1.39831e-14
3.94922e-14
1.29859e-14
3.79483e-14
1.21066e-14
3.64869e-14
1.133e-14
3.51003e-14
1.06428e-14
3.37812e-14
1.00333e-14
3.25231e-14
9.49133e-15
3.132e-14
9.00813e-15
3.01668e-14
8.57596e-15
2.90588e-14
8.18807e-15
2.7992e-14
7.83862e-15
2.69628e-14
7.5225e-15
2.59682e-14
7.2353e-15
2.50056e-14
6.97321e-15
2.40726e-14
6.73291e-15
2.31671e-14
6.51156e-15
2.22875e-14
6.30671e-15
2.14322e-14
6.11625e-15
2.05998e-14
5.9384e-15
1.97891e-14
5.7716e-15
1.89991e-14
5.61455e-15
1.82288e-14
5.46614e-15
1.74773e-14
5.32542e-15
1.67439e-14
5.19159e-15
1.60278e-14
5.06397e-15
1.53285e-14
4.94202e-15
1.46452e-14
4.82524e-15
1.39775e-14
4.71326e-15
1.33248e-14
4.60575e-15
1.26865e-14
4.50245e-15
1.20622e-14
4.40314e-15
1.14514e-14
4.30766e-15
1.08537e-14
4.21589e-15
1.02685e-14
4.12771e-15
9.69532e-15
4.04307e-15
9.1338e-15
3.96193e-15
8.58343e-15
3.88425e-15
8.04374e-15
3.81003e-15
7.51425e-15
3.73927e-15
6.99448e-15
3.672e-15
6.48393e-15
3.60825e-15
5.9821e-15
3.54803e-15
5.48848e-15
3.49139e-15
5.00254e-15
3.43837e-15
4.52374e-15
3.389e-15
4.05153e-15
3.34331e-15
3.58534e-15
3.30133e-15
3.12458e-15
3.26308e-15
2.66865e-15
3.22858e-15
2.21691e-15
3.19781e-15
1.76875e-15
3.17071e-15
1.32367e-15
3.14724e-15
8.81353e-16
3.12753e-15
4.40565e-16
3.11219e-15
3.10585e-15
1.50037e-08
1.94922e-07
-1.53719e-08
2.00594e-07
-5.19539e-08
1.77001e-07
-4.09206e-08
1.29984e-07
-5.1545e-08
9.75544e-08
-6.26035e-08
7.3411e-08
-7.37132e-08
3.87638e-08
-6.02779e-08
-1.49839e-08
-5.82227e-08
-4.47355e-08
-4.64274e-08
-9.61399e-08
-2.32458e-08
-1.27294e-07
-1.10936e-08
-1.32341e-07
-2.90902e-09
-1.34129e-07
5.90981e-09
-1.22792e-07
5.31166e-09
-9.81058e-08
5.13768e-09
-7.01829e-08
2.94966e-09
-3.63116e-08
-1.23928e-12
-3.44251e-08
4.7573e-14
4.8643e-14
5.31593e-14
3.25601e-14
5.49373e-14
3.07328e-14
5.44413e-14
2.93871e-14
5.29666e-14
2.75105e-14
5.11233e-14
2.54254e-14
4.91766e-14
2.33746e-14
4.72417e-14
2.14664e-14
4.53688e-14
1.97368e-14
4.35783e-14
1.81889e-14
4.18761e-14
1.68124e-14
4.02613e-14
1.55921e-14
3.87296e-14
1.45116e-14
3.72751e-14
1.35549e-14
3.58916e-14
1.27073e-14
3.45727e-14
1.19553e-14
3.33125e-14
1.12872e-14
3.21056e-14
1.06921e-14
3.0947e-14
1.01607e-14
2.98324e-14
9.68471e-15
2.87579e-14
9.25689e-15
2.77201e-14
8.87088e-15
2.67162e-14
8.52116e-15
2.57436e-14
8.20291e-15
2.48001e-14
7.91197e-15
2.38837e-14
7.64475e-15
2.29927e-14
7.39816e-15
2.21258e-14
7.16951e-15
2.12816e-14
6.95654e-15
2.04589e-14
6.75729e-15
1.96569e-14
6.5701e-15
1.88745e-14
6.39354e-15
1.8111e-14
6.22641e-15
1.73657e-14
6.06769e-15
1.66378e-14
5.91652e-15
1.59268e-14
5.77218e-15
1.52321e-14
5.63407e-15
1.45532e-14
5.50166e-15
1.38895e-14
5.37456e-15
1.32406e-14
5.25241e-15
1.26059e-14
5.13493e-15
1.19851e-14
5.02191e-15
1.13776e-14
4.91317e-15
1.07831e-14
4.80857e-15
1.02011e-14
4.70801e-15
9.63107e-15
4.61144e-15
9.07267e-15
4.5188e-15
8.52541e-15
4.43008e-15
7.98883e-15
4.34528e-15
7.46247e-15
4.26441e-15
6.94584e-15
4.1875e-15
6.43846e-15
4.11458e-15
5.93983e-15
4.04571e-15
5.44944e-15
3.98093e-15
4.96675e-15
3.92029e-15
4.49123e-15
3.86383e-15
4.02232e-15
3.81162e-15
3.55944e-15
3.76369e-15
3.10199e-15
3.72008e-15
2.64933e-15
3.68084e-15
2.20083e-15
3.64595e-15
1.75584e-15
3.61537e-15
1.31402e-15
3.58888e-15
8.75003e-16
3.56627e-15
4.37822e-16
3.54899e-15
3.54352e-15
-4.02066e-08
2.35134e-07
-4.00752e-08
2.00469e-07
-3.1903e-08
1.68833e-07
-5.03946e-08
1.48479e-07
-6.19406e-08
1.09104e-07
-5.65051e-08
6.79799e-08
-5.05824e-08
3.28459e-08
-2.88864e-08
-3.66743e-08
-2.1891e-08
-5.17254e-08
-2.07235e-08
-9.7302e-08
-2.86419e-08
-1.1937e-07
-2.38562e-08
-1.37121e-07
-1.14595e-08
-1.4652e-07
4.10134e-09
-1.38347e-07
1.81567e-08
-1.12155e-07
1.7923e-08
-6.99444e-08
9.57751e-09
-2.79606e-08
-2.93228e-13
-2.48425e-08
3.34735e-14
1.16298e-12
5.1574e-14
1.44616e-14
5.37738e-14
2.85338e-14
5.28112e-14
3.03507e-14
5.11528e-14
2.9169e-14
4.93388e-14
2.72383e-14
4.75162e-14
2.51949e-14
4.57371e-14
2.32424e-14
4.40228e-14
2.1447e-14
4.23817e-14
1.98251e-14
4.08157e-14
1.83731e-14
3.93227e-14
1.70794e-14
3.78989e-14
1.59293e-14
3.65395e-14
1.49081e-14
3.52394e-14
1.40011e-14
3.39934e-14
1.31949e-14
3.27969e-14
1.24774e-14
3.16455e-14
1.18373e-14
3.05352e-14
1.12649e-14
2.94626e-14
1.07514e-14
2.84246e-14
1.02892e-14
2.74186e-14
9.87142e-15
2.64422e-14
9.49226e-15
2.54935e-14
9.14656e-15
2.45708e-14
8.82991e-15
2.36725e-14
8.53846e-15
2.27973e-14
8.26893e-15
2.19442e-14
8.01848e-15
2.11121e-14
7.78469e-15
2.03001e-14
7.5655e-15
1.95075e-14
7.35914e-15
1.87335e-14
7.16412e-15
1.79774e-14
6.97916e-15
1.72388e-14
6.8032e-15
1.65171e-14
6.63533e-15
1.58116e-14
6.4748e-15
1.51221e-14
6.32096e-15
1.44479e-14
6.1733e-15
1.37886e-14
6.03138e-15
1.31439e-14
5.89484e-15
1.25133e-14
5.7634e-15
1.18963e-14
5.63682e-15
1.12926e-14
5.51493e-15
1.07017e-14
5.3976e-15
1.01232e-14
5.28473e-15
9.55675e-15
5.17626e-15
9.00186e-15
5.07216e-15
8.45811e-15
4.9724e-15
7.92505e-15
4.87701e-15
7.40223e-15
4.786e-15
6.88917e-15
4.69942e-15
6.3854e-15
4.61732e-15
5.89042e-15
4.53976e-15
5.40372e-15
4.46679e-15
4.92476e-15
4.39849e-15
4.45301e-15
4.33492e-15
3.9879e-15
4.27616e-15
3.52884e-15
4.22225e-15
3.07523e-15
4.17327e-15
2.62644e-15
4.12927e-15
2.18179e-15
4.09026e-15
1.74065e-15
4.05613e-15
1.30269e-15
4.02655e-15
8.67732e-16
4.00095e-15
4.33869e-16
3.9826e-15
3.97729e-15
5.47266e-09
2.29664e-07
-1.30839e-08
2.19035e-07
-2.93798e-08
1.85133e-07
-2.38091e-08
1.42912e-07
-1.36408e-08
9.89417e-08
-1.16671e-08
6.60107e-08
-8.17135e-09
2.93545e-08
-1.04117e-08
-3.44291e-08
-3.82384e-09
-5.83082e-08
-2.90806e-09
-9.82127e-08
3.65006e-09
-1.25922e-07
1.59623e-08
-1.49427e-07
1.89e-08
-1.49452e-07
1.72226e-08
-1.36664e-07
1.9611e-08
-1.14539e-07
2.14311e-08
-7.17603e-08
1.92682e-08
-2.57932e-08
3.11594e-09
-8.68727e-09
9.45736e-14
3.11905e-09
6.39396e-14
4.51645e-14
5.53839e-14
3.70907e-14
5.17909e-14
3.39447e-14
4.94754e-14
3.14844e-14
4.75618e-14
2.91507e-14
4.58179e-14
2.69365e-14
4.41756e-14
2.48815e-14
4.26123e-14
2.30062e-14
4.11192e-14
2.13135e-14
3.9691e-14
1.97961e-14
3.83232e-14
1.84414e-14
3.70115e-14
1.7235e-14
3.57517e-14
1.61617e-14
3.45394e-14
1.52071e-14
3.33706e-14
1.43574e-14
3.22417e-14
1.36e-14
3.11492e-14
1.29235e-14
3.00904e-14
1.23177e-14
2.90625e-14
1.17734e-14
2.80633e-14
1.12826e-14
2.7091e-14
1.08382e-14
2.6144e-14
1.0434e-14
2.52207e-14
1.00647e-14
2.43201e-14
9.72568e-15
2.3441e-14
9.41287e-15
2.25826e-14
9.12286e-15
2.17442e-14
8.85271e-15
2.0925e-14
8.5999e-15
2.01243e-14
8.3623e-15
1.93417e-14
8.13809e-15
1.85767e-14
7.92571e-15
1.78287e-14
7.72387e-15
1.70973e-14
7.53146e-15
1.63821e-14
7.34756e-15
1.56826e-14
7.17139e-15
1.49986e-14
7.0023e-15
1.43296e-14
6.83977e-15
1.36751e-14
6.68334e-15
1.3035e-14
6.53267e-15
1.24087e-14
6.38746e-15
1.17959e-14
6.24749e-15
1.11963e-14
6.11259e-15
1.06094e-14
5.98262e-15
1.00349e-14
5.8575e-15
9.47236e-15
5.73717e-15
8.92137e-15
5.62161e-15
8.38152e-15
5.51082e-15
7.85239e-15
5.40482e-15
7.33352e-15
5.30365e-15
6.82446e-15
5.20737e-15
6.32473e-15
5.11604e-15
5.83384e-15
5.02973e-15
5.35129e-15
4.94853e-15
4.87654e-15
4.87252e-15
4.40905e-15
4.80178e-15
3.94824e-15
4.73641e-15
3.49354e-15
4.67649e-15
3.04432e-15
4.62211e-15
2.59995e-15
4.57333e-15
2.15977e-15
4.53017e-15
1.72314e-15
4.4925e-15
1.28964e-15
4.45982e-15
8.59102e-16
4.43129e-15
4.29203e-16
4.41233e-15
4.40644e-15
-5.18445e-09
2.34851e-07
-1.68134e-08
2.30668e-07
-2.93691e-08
1.97695e-07
-3.02365e-08
1.43786e-07
-2.572e-08
9.44291e-08
-2.2837e-08
6.31315e-08
2.57503e-10
6.26432e-09
4.15698e-09
-3.83242e-08
2.62073e-08
-8.03536e-08
3.38043e-08
-1.05804e-07
5.0288e-08
-1.424e-07
5.09211e-08
-1.50054e-07
4.54402e-08
-1.43966e-07
3.4574e-08
-1.25793e-07
2.02872e-08
-1.00246e-07
1.14335e-08
-6.29013e-08
1.45943e-09
-1.58152e-08
9.81419e-09
-1.70403e-08
-3.03746e-13
1.29349e-08
5.68469e-14
4.82546e-14
5.26358e-14
4.13023e-14
4.96497e-14
3.69318e-14
4.74458e-14
3.3688e-14
4.56364e-14
3.09588e-14
4.40308e-14
2.85396e-14
4.25447e-14
2.63643e-14
4.11403e-14
2.44065e-14
3.97996e-14
2.26494e-14
3.8513e-14
2.10773e-14
3.72742e-14
1.96745e-14
3.60784e-14
1.84246e-14
3.49218e-14
1.7312e-14
3.38009e-14
1.63216e-14
3.27126e-14
1.54393e-14
3.16542e-14
1.46521e-14
3.06233e-14
1.39481e-14
2.96181e-14
1.33167e-14
2.86369e-14
1.27486e-14
2.76784e-14
1.22354e-14
2.67413e-14
1.17697e-14
2.58247e-14
1.13452e-14
2.4928e-14
1.09563e-14
2.40504e-14
1.05984e-14
2.31914e-14
1.02672e-14
2.23505e-14
9.95924e-15
2.15274e-14
9.67158e-15
2.07216e-14
9.40162e-15
1.99328e-14
9.1472e-15
1.91607e-14
8.90648e-15
1.8405e-14
8.67789e-15
1.76654e-14
8.46012e-15
1.69416e-14
8.25208e-15
1.62333e-14
8.05283e-15
1.55402e-14
7.86159e-15
1.4862e-14
7.67773e-15
1.41985e-14
7.50072e-15
1.35492e-14
7.33012e-15
1.2914e-14
7.16557e-15
1.22924e-14
7.00681e-15
1.16842e-14
6.8536e-15
1.1089e-14
6.7058e-15
1.05064e-14
6.56327e-15
9.93622e-15
6.42595e-15
9.37794e-15
6.2938e-15
8.83121e-15
6.16679e-15
8.29564e-15
6.04495e-15
7.77082e-15
5.92832e-15
7.2563e-15
5.81695e-15
6.75165e-15
5.71091e-15
6.2564e-15
5.61029e-15
5.77005e-15
5.51517e-15
5.29211e-15
5.42567e-15
4.82204e-15
5.34188e-15
4.3593e-15
5.26391e-15
3.90331e-15
5.19188e-15
3.45349e-15
5.12588e-15
3.00922e-15
5.06602e-15
2.56986e-15
5.0124e-15
2.13476e-15
4.96505e-15
1.70325e-15
4.92383e-15
1.27476e-15
4.88817e-15
8.48863e-16
4.85705e-15
4.24018e-16
4.83707e-15
4.83042e-15
-9.86853e-09
2.4472e-07
-6.6505e-09
2.27454e-07
-3.97845e-09
1.9503e-07
4.75998e-09
1.35051e-07
2.12822e-08
7.79102e-08
1.7595e-08
6.68227e-08
4.31927e-08
-1.93291e-08
4.85296e-08
-4.36565e-08
6.04803e-08
-9.22995e-08
7.59463e-08
-1.21265e-07
7.90262e-08
-1.45474e-07
7.39885e-08
-1.45012e-07
6.48105e-08
-1.34783e-07
5.30274e-08
-1.14006e-07
3.42296e-08
-8.14438e-08
-1.06129e-09
-2.76058e-08
-1.11943e-08
-5.67709e-09
-1.66929e-08
-1.15394e-08
-6.98127e-13
-3.75597e-09
5.07689e-14
4.86357e-14
4.88238e-14
4.32477e-14
4.6826e-14
3.89304e-14
4.50724e-14
3.54414e-14
4.3533e-14
3.24967e-14
4.21394e-14
2.99307e-14
4.08423e-14
2.7658e-14
3.96122e-14
2.56323e-14
3.84323e-14
2.38243e-14
3.72927e-14
2.22115e-14
3.6187e-14
2.07744e-14
3.51107e-14
1.94948e-14
3.40604e-14
1.8356e-14
3.30336e-14
1.73421e-14
3.2028e-14
1.64384e-14
3.10422e-14
1.56315e-14
3.00747e-14
1.49092e-14
2.91247e-14
1.42606e-14
2.81914e-14
1.36759e-14
2.72744e-14
1.31465e-14
2.63734e-14
1.26651e-14
2.54881e-14
1.22251e-14
2.46185e-14
1.18208e-14
2.37644e-14
1.14474e-14
2.29259e-14
1.11009e-14
2.21029e-14
1.07777e-14
2.12954e-14
1.04747e-14
2.05033e-14
1.01895e-14
1.97267e-14
9.9199e-15
1.89654e-14
9.66402e-15
1.82193e-14
9.42038e-15
1.74884e-14
9.18766e-15
1.67724e-14
8.9648e-15
1.60713e-14
8.75088e-15
1.53848e-14
8.54515e-15
1.47128e-14
8.34699e-15
1.40549e-14
8.15588e-15
1.34111e-14
7.97141e-15
1.27811e-14
7.79325e-15
1.21645e-14
7.62113e-15
1.15611e-14
7.45484e-15
1.09706e-14
7.29425e-15
1.03928e-14
7.13925e-15
9.82716e-15
6.98978e-15
9.27348e-15
6.84581e-15
8.73137e-15
6.70735e-15
8.20044e-15
6.57444e-15
7.68031e-15
6.44714e-15
7.17054e-15
6.3255e-15
6.67071e-15
6.20964e-15
6.18035e-15
6.09965e-15
5.69899e-15
5.99565e-15
5.22612e-15
5.89776e-15
4.76121e-15
5.80611e-15
4.30372e-15
5.72083e-15
3.85307e-15
5.64204e-15
3.40867e-15
5.56988e-15
2.9699e-15
5.50447e-15
2.53613e-15
5.44592e-15
2.10671e-15
5.39429e-15
1.68094e-15
5.34946e-15
1.25807e-15
5.31095e-15
8.37154e-16
5.27787e-15
4.18174e-16
5.25597e-15
5.24858e-15
-6.48006e-09
2.51205e-07
-9.50563e-10
2.21929e-07
7.9125e-09
1.86169e-07
1.3904e-08
1.29063e-07
2.37463e-08
6.8071e-08
4.59218e-08
4.4651e-08
5.23889e-08
-2.57917e-08
6.54701e-08
-5.67334e-08
7.19869e-08
-9.8812e-08
8.90537e-08
-1.38327e-07
9.3134e-08
-1.4955e-07
9.02693e-08
-1.42142e-07
8.25611e-08
-1.2707e-07
6.3577e-08
-9.50176e-08
4.10436e-08
-5.89065e-08
2.34593e-08
-1.00188e-08
7.06645e-09
1.0719e-08
-5.19526e-09
7.24713e-10
-5.43648e-13
-8.94892e-09
4.60852e-14
4.88707e-14
4.50699e-14
4.42633e-14
4.37933e-14
4.02077e-14
4.25134e-14
3.67207e-14
4.1303e-14
3.37055e-14
4.01638e-14
3.10672e-14
3.9081e-14
2.87373e-14
3.80398e-14
2.66692e-14
3.70294e-14
2.48298e-14
3.60423e-14
2.31931e-14
3.50736e-14
2.17372e-14
3.41196e-14
2.04426e-14
3.3178e-14
1.92912e-14
3.22471e-14
1.82665e-14
3.13259e-14
1.73531e-14
3.04138e-14
1.65372e-14
2.95106e-14
1.58061e-14
2.86164e-14
1.51485e-14
2.77315e-14
1.45547e-14
2.68564e-14
1.40157e-14
2.59916e-14
1.35242e-14
2.51377e-14
1.30735e-14
2.42952e-14
1.2658e-14
2.34647e-14
1.22729e-14
2.26467e-14
1.19141e-14
2.18416e-14
1.15782e-14
2.10498e-14
1.12621e-14
2.02716e-14
1.09636e-14
1.95072e-14
1.06803e-14
1.87567e-14
1.04106e-14
1.80204e-14
1.01531e-14
1.72983e-14
9.90634e-15
1.65903e-14
9.66946e-15
1.58965e-14
9.44154e-15
1.52168e-14
9.22187e-15
1.45511e-14
9.00986e-15
1.38992e-14
8.80504e-15
1.32611e-14
8.60701e-15
1.26364e-14
8.41547e-15
1.20251e-14
8.23018e-15
1.14268e-14
8.05095e-15
1.08413e-14
7.87767e-15
1.02684e-14
7.71025e-15
9.70774e-15
7.54866e-15
9.15899e-15
7.39288e-15
8.62183e-15
7.24296e-15
8.09589e-15
7.09894e-15
7.58081e-15
6.96089e-15
7.07618e-15
6.82893e-15
6.58157e-15
6.70316e-15
6.09653e-15
6.58372e-15
5.62058e-15
6.47073e-15
5.15324e-15
6.36435e-15
4.69397e-15
6.26473e-15
4.24223e-15
6.17202e-15
3.79743e-15
6.08638e-15
3.35898e-15
6.00795e-15
2.92627e-15
5.93689e-15
2.49866e-15
5.87331e-15
2.0755e-15
5.8173e-15
1.65606e-15
5.76881e-15
1.23943e-15
5.72752e-15
8.24232e-16
5.69301e-15
4.11681e-16
5.66847e-15
5.66027e-15
-4.61194e-10
2.51669e-07
-3.00292e-09
2.24475e-07
6.40586e-09
1.76764e-07
2.53027e-08
1.10171e-07
4.35487e-08
4.9828e-08
7.41384e-08
1.40646e-08
8.19042e-08
-3.35536e-08
1.07308e-07
-8.21325e-08
1.28826e-07
-1.20326e-07
1.31213e-07
-1.4071e-07
1.22666e-07
-1.40998e-07
1.10954e-07
-1.30426e-07
9.04125e-08
-1.06525e-07
6.33475e-08
-6.79486e-08
2.98021e-08
-2.5358e-08
5.79216e-09
1.39936e-08
-5.33799e-09
2.18516e-08
-3.95559e-09
-6.5557e-10
-4.01898e-13
-1.29026e-08
4.20975e-14
4.89431e-14
4.15537e-14
4.48074e-14
4.07677e-14
4.09939e-14
3.98957e-14
3.75918e-14
3.90113e-14
3.4588e-14
3.81391e-14
3.19365e-14
3.7283e-14
2.95896e-14
3.64399e-14
2.75077e-14
3.56054e-14
2.56591e-14
3.47753e-14
2.40175e-14
3.39466e-14
2.25598e-14
3.31172e-14
2.12657e-14
3.22857e-14
2.01161e-14
3.14518e-14
1.90939e-14
3.06154e-14
1.81829e-14
2.97772e-14
1.73688e-14
2.89382e-14
1.66386e-14
2.80996e-14
1.59808e-14
2.72628e-14
1.53853e-14
2.64291e-14
1.48434e-14
2.56001e-14
1.43474e-14
2.47771e-14
1.38909e-14
2.39614e-14
1.34683e-14
2.31541e-14
1.3075e-14
2.23563e-14
1.2707e-14
2.15688e-14
1.23609e-14
2.07924e-14
1.2034e-14
2.00278e-14
1.17239e-14
1.92754e-14
1.14285e-14
1.85358e-14
1.11464e-14
1.78092e-14
1.0876e-14
1.70958e-14
1.06162e-14
1.63959e-14
1.0366e-14
1.57095e-14
1.01247e-14
1.50366e-14
9.89165e-15
1.43774e-14
9.66624e-15
1.37316e-14
9.44805e-15
1.30993e-14
9.23674e-15
1.24802e-14
9.03204e-15
1.18743e-14
8.83374e-15
1.12814e-14
8.6417e-15
1.07012e-14
8.45581e-15
1.01335e-14
8.27602e-15
9.57799e-15
8.10231e-15
9.03445e-15
7.93472e-15
8.50255e-15
7.77329e-15
7.98195e-15
7.61809e-15
7.47227e-15
7.46924e-15
6.97314e-15
7.32686e-15
6.48415e-15
7.19108e-15
6.00484e-15
7.06206e-15
5.53475e-15
6.93997e-15
5.07339e-15
6.82498e-15
4.62024e-15
6.71726e-15
4.17474e-15
6.61701e-15
3.73632e-15
6.52439e-15
3.30436e-15
6.43958e-15
2.87825e-15
6.36275e-15
2.45735e-15
6.29404e-15
2.04099e-15
6.23355e-15
1.62841e-15
6.18132e-15
1.21869e-15
6.13723e-15
8.10473e-16
6.10121e-15
4.04475e-16
6.07445e-15
6.06477e-15
2.52951e-09
2.49142e-07
1.46812e-08
2.12328e-07
2.70863e-08
1.64362e-07
4.14738e-08
9.57873e-08
7.19685e-08
1.93369e-08
9.78875e-08
-1.18513e-08
1.19094e-07
-5.47564e-08
1.31137e-07
-9.41714e-08
1.42717e-07
-1.31902e-07
1.3901e-07
-1.36999e-07
1.26219e-07
-1.28203e-07
1.03166e-07
-1.0737e-07
7.8926e-08
-8.22817e-08
4.90462e-08
-3.80658e-08
9.08543e-09
1.46055e-08
-1.15009e-08
3.45821e-08
-1.05139e-08
2.08666e-08
-2.80939e-09
-8.35827e-09
-2.42834e-13
-1.57104e-08
3.85289e-14
4.89944e-14
3.82545e-14
4.50819e-14
3.78197e-14
4.14285e-14
3.72901e-14
3.81201e-14
3.67091e-14
3.51667e-14
3.60999e-14
3.25423e-14
3.5473e-14
3.02123e-14
3.48319e-14
2.8144e-14
3.41767e-14
2.63089e-14
3.35063e-14
2.46819e-14
3.28196e-14
2.32403e-14
3.21158e-14
2.19629e-14
3.13951e-14
2.08302e-14
3.0658e-14
1.98242e-14
2.9906e-14
1.89281e-14
2.9141e-14
1.81271e-14
2.83652e-14
1.74078e-14
2.7581e-14
1.67585e-14
2.6791e-14
1.61691e-14
2.59976e-14
1.56307e-14
2.52032e-14
1.51359e-14
2.44101e-14
1.46784e-14
2.36201e-14
1.42528e-14
2.28351e-14
1.38547e-14
2.20567e-14
1.34804e-14
2.12862e-14
1.31266e-14
2.05247e-14
1.27909e-14
1.97732e-14
1.24709e-14
1.90326e-14
1.2165e-14
1.83035e-14
1.18715e-14