/*--------------------------------*- C++ -*----------------------------------*\
  =========                 |
  \\      /  F ield         | OpenFOAM: The Open Source CFD Toolbox
   \\    /   O peration     | Website:  https://openfoam.org
    \\  /    A nd           | Version:  6
     \\/     M anipulation  |
\*---------------------------------------------------------------------------*/
FoamFile
{
    version     2.0;
    format      ascii;
    class       volScalarField;
    location    "570";
    object      S_d;
}
// * * * * * * * * * * * * * * * * * * * * * * * * * * * * * * * * * * * * * //

dimensions      [1 -3 -1 0 0 0 0];

internalField   nonuniform List<scalar> 
5964
(
-0
-0
-0
-0
-0
-0
-0
-0
-0
-0
-0
-0
-0
-0
-0
-0
-0
-7.99418e+11
-7.99448e+11
-7.99458e+11
-7.99464e+11
-7.99471e+11
-7.9948e+11
-7.9949e+11
-7.99502e+11
-7.99514e+11
-7.99526e+11
-7.99539e+11
-7.99551e+11
-7.99563e+11
-7.99574e+11
-7.99585e+11
-7.99596e+11
-7.99606e+11
-7.99615e+11
-7.99624e+11
-7.99633e+11
-7.99642e+11
-7.9965e+11
-7.99657e+11
-7.99665e+11
-7.99672e+11
-7.99679e+11
-7.99687e+11
-7.99694e+11
-7.997e+11
-7.99707e+11
-7.99714e+11
-7.99721e+11
-7.99728e+11
-7.99735e+11
-7.99742e+11
-7.99749e+11
-7.99756e+11
-7.99764e+11
-7.99771e+11
-7.99778e+11
-7.99786e+11
-7.99794e+11
-7.99801e+11
-7.99809e+11
-7.99817e+11
-7.99825e+11
-7.99833e+11
-7.99841e+11
-7.99849e+11
-7.99858e+11
-7.99866e+11
-7.99874e+11
-7.99883e+11
-7.99892e+11
-7.999e+11
-7.99909e+11
-7.99918e+11
-7.99926e+11
-7.99935e+11
-7.99944e+11
-7.99953e+11
-7.99962e+11
-7.99972e+11
-7.99982e+11
-7.99992e+11
-8e+11
-8e+11
-0
-0
-0
-0
-0
-0
-0
-0
-0
-0
-0
-0
-0
-0
-0
-0
-0
-7.99459e+11
-7.99464e+11
-7.9946e+11
-7.99462e+11
-7.99469e+11
-7.99478e+11
-7.99489e+11
-7.99501e+11
-7.99513e+11
-7.99526e+11
-7.99538e+11
-7.99551e+11
-7.99563e+11
-7.99574e+11
-7.99585e+11
-7.99596e+11
-7.99606e+11
-7.99616e+11
-7.99625e+11
-7.99633e+11
-7.99642e+11
-7.9965e+11
-7.99658e+11
-7.99665e+11
-7.99672e+11
-7.9968e+11
-7.99687e+11
-7.99694e+11
-7.997e+11
-7.99707e+11
-7.99714e+11
-7.99721e+11
-7.99728e+11
-7.99735e+11
-7.99742e+11
-7.99749e+11
-7.99756e+11
-7.99764e+11
-7.99771e+11
-7.99778e+11
-7.99786e+11
-7.99793e+11
-7.99801e+11
-7.99809e+11
-7.99817e+11
-7.99825e+11
-7.99833e+11
-7.99841e+11
-7.99849e+11
-7.99858e+11
-7.99866e+11
-7.99874e+11
-7.99883e+11
-7.99892e+11
-7.999e+11
-7.99909e+11
-7.99918e+11
-7.99926e+11
-7.99935e+11
-7.99944e+11
-7.99953e+11
-7.99962e+11
-7.99972e+11
-7.99981e+11
-7.99991e+11
-7.99999e+11
-8e+11
-0
-0
-0
-0
-0
-0
-0
-0
-0
-0
-0
-0
-0
-0
-0
-0
-0
-2.96123e+09
-7.99483e+11
-7.99457e+11
-7.99456e+11
-7.99463e+11
-7.99474e+11
-7.99486e+11
-7.99499e+11
-7.99512e+11
-7.99525e+11
-7.99538e+11
-7.99551e+11
-7.99563e+11
-7.99575e+11
-7.99586e+11
-7.99596e+11
-7.99606e+11
-7.99616e+11
-7.99625e+11
-7.99634e+11
-7.99642e+11
-7.9965e+11
-7.99658e+11
-7.99665e+11
-7.99673e+11
-7.9968e+11
-7.99687e+11
-7.99694e+11
-7.99701e+11
-7.99707e+11
-7.99714e+11
-7.99721e+11
-7.99728e+11
-7.99735e+11
-7.99742e+11
-7.99749e+11
-7.99756e+11
-7.99763e+11
-7.99771e+11
-7.99778e+11
-7.99786e+11
-7.99793e+11
-7.99801e+11
-7.99809e+11
-7.99817e+11
-7.99825e+11
-7.99833e+11
-7.99841e+11
-7.99849e+11
-7.99858e+11
-7.99866e+11
-7.99874e+11
-7.99883e+11
-7.99891e+11
-7.999e+11
-7.99909e+11
-7.99918e+11
-7.99926e+11
-7.99935e+11
-7.99944e+11
-7.99953e+11
-7.99962e+11
-7.99971e+11
-7.9998e+11
-7.99989e+11
-7.99997e+11
-8e+11
-0
-0
-0
-0
-0
-0
-0
-0
-0
-0
-0
-0
-0
-0
-0
-0
-0
-1.5566e+06
-7.99423e+11
-7.99429e+11
-7.9944e+11
-7.99454e+11
-7.99468e+11
-7.99482e+11
-7.99497e+11
-7.99511e+11
-7.99525e+11
-7.99538e+11
-7.99551e+11
-7.99563e+11
-7.99575e+11
-7.99586e+11
-7.99597e+11
-7.99607e+11
-7.99617e+11
-7.99626e+11
-7.99634e+11
-7.99643e+11
-7.99651e+11
-7.99658e+11
-7.99666e+11
-7.99673e+11
-7.9968e+11
-7.99687e+11
-7.99694e+11
-7.99701e+11
-7.99707e+11
-7.99714e+11
-7.99721e+11
-7.99728e+11
-7.99735e+11
-7.99742e+11
-7.99749e+11
-7.99756e+11
-7.99763e+11
-7.99771e+11
-7.99778e+11
-7.99786e+11
-7.99793e+11
-7.99801e+11
-7.99809e+11
-7.99817e+11
-7.99825e+11
-7.99833e+11
-7.99841e+11
-7.99849e+11
-7.99857e+11
-7.99866e+11
-7.99874e+11
-7.99883e+11
-7.99891e+11
-7.999e+11
-7.99909e+11
-7.99917e+11
-7.99926e+11
-7.99935e+11
-7.99944e+11
-7.99953e+11
-7.99962e+11
-7.99971e+11
-7.9998e+11
-7.99988e+11
-7.99995e+11
-7.99999e+11
-0
-0
-0
-0
-0
-0
-0
-0
-0
-0
-0
-0
-0
-0
-0
-0
-0
-0
-7.99361e+11
-7.99396e+11
-7.99422e+11
-7.99442e+11
-7.99461e+11
-7.99478e+11
-7.99494e+11
-7.99509e+11
-7.99524e+11
-7.99538e+11
-7.99551e+11
-7.99564e+11
-7.99576e+11
-7.99587e+11
-7.99598e+11
-7.99608e+11
-7.99618e+11
-7.99627e+11
-7.99635e+11
-7.99644e+11
-7.99651e+11
-7.99659e+11
-7.99666e+11
-7.99673e+11
-7.9968e+11
-7.99687e+11
-7.99694e+11
-7.99701e+11
-7.99707e+11
-7.99714e+11
-7.99721e+11
-7.99728e+11
-7.99735e+11
-7.99742e+11
-7.99749e+11
-7.99756e+11
-7.99763e+11
-7.9977e+11
-7.99778e+11
-7.99785e+11
-7.99793e+11
-7.99801e+11
-7.99809e+11
-7.99816e+11
-7.99824e+11
-7.99832e+11
-7.99841e+11
-7.99849e+11
-7.99857e+11
-7.99866e+11
-7.99874e+11
-7.99883e+11
-7.99891e+11
-7.999e+11
-7.99909e+11
-7.99917e+11
-7.99926e+11
-7.99935e+11
-7.99944e+11
-7.99953e+11
-7.99962e+11
-7.99971e+11
-7.99979e+11
-7.99987e+11
-7.99994e+11
-8e+11
-0
-0
-0
-0
-0
-0
-0
-0
-0
-0
-0
-0
-0
-0
-0
-0
-0
-0
-7.99318e+11
-7.99371e+11
-7.99406e+11
-7.99433e+11
-7.99454e+11
-7.99474e+11
-7.99491e+11
-7.99508e+11
-7.99523e+11
-7.99538e+11
-7.99552e+11
-7.99565e+11
-7.99577e+11
-7.99589e+11
-7.99599e+11
-7.99609e+11
-7.99619e+11
-7.99628e+11
-7.99636e+11
-7.99645e+11
-7.99652e+11
-7.9966e+11
-7.99667e+11
-7.99674e+11
-7.99681e+11
-7.99687e+11
-7.99694e+11
-7.99701e+11
-7.99708e+11
-7.99714e+11
-7.99721e+11
-7.99728e+11
-7.99735e+11
-7.99742e+11
-7.99749e+11
-7.99756e+11
-7.99763e+11
-7.9977e+11
-7.99778e+11
-7.99785e+11
-7.99793e+11
-7.998e+11
-7.99808e+11
-7.99816e+11
-7.99824e+11
-7.99832e+11
-7.9984e+11
-7.99849e+11
-7.99857e+11
-7.99865e+11
-7.99874e+11
-7.99882e+11
-7.99891e+11
-7.999e+11
-7.99908e+11
-7.99917e+11
-7.99926e+11
-7.99935e+11
-7.99944e+11
-7.99953e+11
-7.99962e+11
-7.99971e+11
-7.99979e+11
-7.99987e+11
-7.99997e+11
-8e+11
-0
-0
-0
-0
-0
-0
-0
-0
-0
-0
-0
-0
-0
-0
-0
-0
-0
-0
-7.99297e+11
-7.99359e+11
-7.99398e+11
-7.99427e+11
-7.9945e+11
-7.9947e+11
-7.99489e+11
-7.99506e+11
-7.99523e+11
-7.99538e+11
-7.99553e+11
-7.99566e+11
-7.99578e+11
-7.9959e+11
-7.99601e+11
-7.99611e+11
-7.9962e+11
-7.99629e+11
-7.99638e+11
-7.99646e+11
-7.99653e+11
-7.99661e+11
-7.99668e+11
-7.99674e+11
-7.99681e+11
-7.99688e+11
-7.99694e+11
-7.99701e+11
-7.99708e+11
-7.99714e+11
-7.99721e+11
-7.99728e+11
-7.99734e+11
-7.99741e+11
-7.99748e+11
-7.99755e+11
-7.99763e+11
-7.9977e+11
-7.99777e+11
-7.99785e+11
-7.99792e+11
-7.998e+11
-7.99808e+11
-7.99816e+11
-7.99824e+11
-7.99832e+11
-7.9984e+11
-7.99848e+11
-7.99857e+11
-7.99865e+11
-7.99874e+11
-7.99882e+11
-7.99891e+11
-7.999e+11
-7.99908e+11
-7.99917e+11
-7.99926e+11
-7.99935e+11
-7.99944e+11
-7.99953e+11
-7.99962e+11
-7.99971e+11
-7.99979e+11
-7.99988e+11
-7.99995e+11
-8e+11
-0
-0
-0
-0
-0
-0
-0
-0
-0
-0
-0
-0
-0
-0
-0
-0
-0
-0
-7.99306e+11
-7.99365e+11
-7.99399e+11
-7.99424e+11
-7.99447e+11
-7.99468e+11
-7.99487e+11
-7.99506e+11
-7.99523e+11
-7.99539e+11
-7.99554e+11
-7.99568e+11
-7.9958e+11
-7.99592e+11
-7.99603e+11
-7.99613e+11
-7.99622e+11
-7.99631e+11
-7.99639e+11
-7.99647e+11
-7.99654e+11
-7.99662e+11
-7.99668e+11
-7.99675e+11
-7.99682e+11
-7.99688e+11
-7.99695e+11
-7.99701e+11
-7.99708e+11
-7.99714e+11
-7.99721e+11
-7.99727e+11
-7.99734e+11
-7.99741e+11
-7.99748e+11
-7.99755e+11
-7.99762e+11
-7.99769e+11
-7.99777e+11
-7.99784e+11
-7.99792e+11
-7.998e+11
-7.99808e+11
-7.99815e+11
-7.99823e+11
-7.99832e+11
-7.9984e+11
-7.99848e+11
-7.99856e+11
-7.99865e+11
-7.99873e+11
-7.99882e+11
-7.99891e+11
-7.99899e+11
-7.99908e+11
-7.99917e+11
-7.99926e+11
-7.99935e+11
-7.99944e+11
-7.99953e+11
-7.99962e+11
-7.99971e+11
-7.9998e+11
-7.99989e+11
-7.99998e+11
-8e+11
-0
-0
-0
-0
-0
-0
-0
-0
-0
-0
-0
-0
-0
-0
-0
-0
-0
-0
-7.99366e+11
-7.99391e+11
-7.99406e+11
-7.99424e+11
-7.99444e+11
-7.99465e+11
-7.99486e+11
-7.99505e+11
-7.99523e+11
-7.9954e+11
-7.99556e+11
-7.9957e+11
-7.99583e+11
-7.99594e+11
-7.99605e+11
-7.99615e+11
-7.99624e+11
-7.99633e+11
-7.99641e+11
-7.99649e+11
-7.99656e+11
-7.99663e+11
-7.99669e+11
-7.99676e+11
-7.99682e+11
-7.99689e+11
-7.99695e+11
-7.99701e+11
-7.99708e+11
-7.99714e+11
-7.99721e+11
-7.99727e+11
-7.99734e+11
-7.99741e+11
-7.99748e+11
-7.99755e+11
-7.99762e+11
-7.99769e+11
-7.99776e+11
-7.99784e+11
-7.99792e+11
-7.99799e+11
-7.99807e+11
-7.99815e+11
-7.99823e+11
-7.99831e+11
-7.99839e+11
-7.99848e+11
-7.99856e+11
-7.99865e+11
-7.99873e+11
-7.99882e+11
-7.9989e+11
-7.99899e+11
-7.99908e+11
-7.99917e+11
-7.99926e+11
-7.99934e+11
-7.99943e+11
-7.99952e+11
-7.99961e+11
-7.99971e+11
-7.9998e+11
-7.99991e+11
-8e+11
-8e+11
-0
-0
-0
-0
-0
-0
-0
-0
-0
-0
-0
-0
-0
-0
-0
-0
-0
-0
-1.44401e+10
-7.99426e+11
-7.99409e+11
-7.9942e+11
-7.99441e+11
-7.99463e+11
-7.99485e+11
-7.99506e+11
-7.99525e+11
-7.99542e+11
-7.99558e+11
-7.99572e+11
-7.99585e+11
-7.99597e+11
-7.99608e+11
-7.99618e+11
-7.99627e+11
-7.99635e+11
-7.99643e+11
-7.9965e+11
-7.99657e+11
-7.99664e+11
-7.9967e+11
-7.99677e+11
-7.99683e+11
-7.99689e+11
-7.99695e+11
-7.99701e+11
-7.99708e+11
-7.99714e+11
-7.9972e+11
-7.99727e+11
-7.99733e+11
-7.9974e+11
-7.99747e+11
-7.99754e+11
-7.99761e+11
-7.99768e+11
-7.99776e+11
-7.99783e+11
-7.99791e+11
-7.99799e+11
-7.99807e+11
-7.99815e+11
-7.99823e+11
-7.99831e+11
-7.99839e+11
-7.99847e+11
-7.99856e+11
-7.99864e+11
-7.99873e+11
-7.99881e+11
-7.9989e+11
-7.99899e+11
-7.99908e+11
-7.99916e+11
-7.99925e+11
-7.99934e+11
-7.99943e+11
-7.99952e+11
-7.99961e+11
-7.99971e+11
-7.99981e+11
-7.99992e+11
-8e+11
-8e+11
-0
-0
-0
-0
-0
-0
-0
-0
-0
-0
-0
-0
-0
-0
-0
-0
-0
-0
-2.10571e+06
-7.99367e+11
-7.99385e+11
-7.99409e+11
-7.99434e+11
-7.9946e+11
-7.99484e+11
-7.99506e+11
-7.99527e+11
-7.99545e+11
-7.99561e+11
-7.99576e+11
-7.99589e+11
-7.99601e+11
-7.99611e+11
-7.99621e+11
-7.9963e+11
-7.99638e+11
-7.99645e+11
-7.99652e+11
-7.99659e+11
-7.99665e+11
-7.99671e+11
-7.99677e+11
-7.99683e+11
-7.99689e+11
-7.99695e+11
-7.99701e+11
-7.99707e+11
-7.99714e+11
-7.9972e+11
-7.99726e+11
-7.99733e+11
-7.9974e+11
-7.99747e+11
-7.99754e+11
-7.99761e+11
-7.99768e+11
-7.99775e+11
-7.99783e+11
-7.9979e+11
-7.99798e+11
-7.99806e+11
-7.99814e+11
-7.99822e+11
-7.9983e+11
-7.99838e+11
-7.99847e+11
-7.99855e+11
-7.99864e+11
-7.99872e+11
-7.99881e+11
-7.9989e+11
-7.99898e+11
-7.99907e+11
-7.99916e+11
-7.99925e+11
-7.99934e+11
-7.99943e+11
-7.99952e+11
-7.99961e+11
-7.99971e+11
-7.99981e+11
-7.99993e+11
-8e+11
-8e+11
-0
-0
-0
-0
-0
-0
-0
-0
-0
-0
-0
-0
-0
-0
-0
-0
-0
-0
-0
-7.99309e+11
-7.99356e+11
-7.99394e+11
-7.99427e+11
-7.99458e+11
-7.99484e+11
-7.99509e+11
-7.9953e+11
-7.99549e+11
-7.99565e+11
-7.9958e+11
-7.99593e+11
-7.99605e+11
-7.99615e+11
-7.99624e+11
-7.99633e+11
-7.9964e+11
-7.99647e+11
-7.99654e+11
-7.9966e+11
-7.99666e+11
-7.99672e+11
-7.99678e+11
-7.99684e+11
-7.9969e+11
-7.99695e+11
-7.99701e+11
-7.99707e+11
-7.99713e+11
-7.9972e+11
-7.99726e+11
-7.99732e+11
-7.99739e+11
-7.99746e+11
-7.99753e+11
-7.9976e+11
-7.99767e+11
-7.99775e+11
-7.99782e+11
-7.9979e+11
-7.99797e+11
-7.99805e+11
-7.99813e+11
-7.99821e+11
-7.9983e+11
-7.99838e+11
-7.99846e+11
-7.99855e+11
-7.99863e+11
-7.99872e+11
-7.9988e+11
-7.99889e+11
-7.99898e+11
-7.99907e+11
-7.99916e+11
-7.99925e+11
-7.99934e+11
-7.99943e+11
-7.99952e+11
-7.99961e+11
-7.9997e+11
-7.99981e+11
-7.99993e+11
-8e+11
-8e+11
-0
-0
-0
-0
-0
-0
-0
-0
-0
-0
-0
-0
-0
-0
-0
-0
-0
-0
-0
-7.9927e+11
-7.99333e+11
-7.99382e+11
-7.99423e+11
-7.99457e+11
-7.99487e+11
-7.99512e+11
-7.99534e+11
-7.99554e+11
-7.9957e+11
-7.99585e+11
-7.99598e+11
-7.99609e+11
-7.99619e+11
-7.99628e+11
-7.99636e+11
-7.99643e+11
-7.9965e+11
-7.99656e+11
-7.99662e+11
-7.99668e+11
-7.99673e+11
-7.99679e+11
-7.99684e+11
-7.9969e+11
-7.99696e+11
-7.99701e+11
-7.99707e+11
-7.99713e+11
-7.99719e+11
-7.99725e+11
-7.99732e+11
-7.99738e+11
-7.99745e+11
-7.99752e+11
-7.99759e+11
-7.99766e+11
-7.99774e+11
-7.99781e+11
-7.99789e+11
-7.99797e+11
-7.99805e+11
-7.99813e+11
-7.99821e+11
-7.99829e+11
-7.99837e+11
-7.99846e+11
-7.99854e+11
-7.99863e+11
-7.99871e+11
-7.9988e+11
-7.99889e+11
-7.99898e+11
-7.99907e+11
-7.99915e+11
-7.99924e+11
-7.99933e+11
-7.99942e+11
-7.99952e+11
-7.99961e+11
-7.9997e+11
-7.9998e+11
-7.99992e+11
-8e+11
-8e+11
-0
-0
-0
-0
-0
-0
-0
-0
-0
-0
-0
-0
-0
-0
-0
-0
-0
-0
-0
-7.9925e+11
-7.9932e+11
-7.99377e+11
-7.99422e+11
-7.9946e+11
-7.99491e+11
-7.99518e+11
-7.99541e+11
-7.9956e+11
-7.99577e+11
-7.99591e+11
-7.99604e+11
-7.99614e+11
-7.99624e+11
-7.99632e+11
-7.9964e+11
-7.99646e+11
-7.99653e+11
-7.99658e+11
-7.99664e+11
-7.99669e+11
-7.99674e+11
-7.9968e+11
-7.99685e+11
-7.9969e+11
-7.99695e+11
-7.99701e+11
-7.99707e+11
-7.99712e+11
-7.99718e+11
-7.99725e+11
-7.99731e+11
-7.99738e+11
-7.99744e+11
-7.99751e+11
-7.99758e+11
-7.99765e+11
-7.99773e+11
-7.9978e+11
-7.99788e+11
-7.99796e+11
-7.99804e+11
-7.99812e+11
-7.9982e+11
-7.99828e+11
-7.99837e+11
-7.99845e+11
-7.99854e+11
-7.99862e+11
-7.99871e+11
-7.9988e+11
-7.99888e+11
-7.99897e+11
-7.99906e+11
-7.99915e+11
-7.99924e+11
-7.99933e+11
-7.99942e+11
-7.99951e+11
-7.9996e+11
-7.9997e+11
-7.99979e+11
-7.9999e+11
-8e+11
-8e+11
-0
-0
-0
-0
-0
-0
-0
-0
-0
-0
-0
-0
-0
-0
-0
-0
-0
-0
-0
-7.99246e+11
-7.9932e+11
-7.9938e+11
-7.99428e+11
-7.99467e+11
-7.995e+11
-7.99527e+11
-7.99549e+11
-7.99568e+11
-7.99584e+11
-7.99598e+11
-7.9961e+11
-7.9962e+11
-7.99629e+11
-7.99637e+11
-7.99644e+11
-7.9965e+11
-7.99655e+11
-7.99661e+11
-7.99666e+11
-7.99671e+11
-7.99675e+11
-7.9968e+11
-7.99685e+11
-7.9969e+11
-7.99695e+11
-7.99701e+11
-7.99706e+11
-7.99712e+11
-7.99718e+11
-7.99724e+11
-7.9973e+11
-7.99737e+11
-7.99743e+11
-7.9975e+11
-7.99757e+11
-7.99764e+11
-7.99772e+11
-7.99779e+11
-7.99787e+11
-7.99795e+11
-7.99803e+11
-7.99811e+11
-7.99819e+11
-7.99827e+11
-7.99836e+11
-7.99844e+11
-7.99853e+11
-7.99861e+11
-7.9987e+11
-7.99879e+11
-7.99888e+11
-7.99897e+11
-7.99906e+11
-7.99915e+11
-7.99924e+11
-7.99933e+11
-7.99942e+11
-7.99951e+11
-7.9996e+11
-7.99969e+11
-7.99979e+11
-7.99988e+11
-7.99998e+11
-8e+11
-0
-0
-0
-0
-0
-0
-0
-0
-0
-0
-0
-0
-0
-0
-0
-0
-0
-0
-0
-7.99256e+11
-7.99331e+11
-7.99392e+11
-7.99441e+11
-7.9948e+11
-7.99512e+11
-7.99538e+11
-7.9956e+11
-7.99578e+11
-7.99593e+11
-7.99606e+11
-7.99617e+11
-7.99626e+11
-7.99634e+11
-7.99641e+11
-7.99648e+11
-7.99653e+11
-7.99658e+11
-7.99663e+11
-7.99667e+11
-7.99672e+11
-7.99676e+11
-7.99681e+11
-7.99685e+11
-7.9969e+11
-7.99695e+11
-7.997e+11
-7.99705e+11
-7.99711e+11
-7.99717e+11
-7.99723e+11
-7.99729e+11
-7.99735e+11
-7.99742e+11
-7.99749e+11
-7.99756e+11
-7.99763e+11
-7.99771e+11
-7.99778e+11
-7.99786e+11
-7.99794e+11
-7.99802e+11
-7.9981e+11
-7.99818e+11
-7.99827e+11
-7.99835e+11
-7.99843e+11
-7.99852e+11
-7.99861e+11
-7.9987e+11
-7.99878e+11
-7.99887e+11
-7.99896e+11
-7.99905e+11
-7.99914e+11
-7.99923e+11
-7.99932e+11
-7.99942e+11
-7.99951e+11
-7.9996e+11
-7.99969e+11
-7.99978e+11
-7.99988e+11
-7.99998e+11
-8e+11
-0
-0
-0
-0
-0
-0
-0
-0
-0
-0
-0
-0
-0
-0
-0
-0
-0
-0
-0
-7.99278e+11
-7.99353e+11
-7.99413e+11
-7.99461e+11
-7.99498e+11
-7.99528e+11
-7.99553e+11
-7.99573e+11
-7.9959e+11
-7.99604e+11
-7.99615e+11
-7.99625e+11
-7.99633e+11
-7.9964e+11
-7.99646e+11
-7.99652e+11
-7.99657e+11
-7.99661e+11
-7.99665e+11
-7.99669e+11
-7.99673e+11
-7.99677e+11
-7.99681e+11
-7.99685e+11
-7.9969e+11
-7.99694e+11
-7.99699e+11
-7.99704e+11
-7.9971e+11
-7.99716e+11
-7.99721e+11
-7.99728e+11
-7.99734e+11
-7.99741e+11
-7.99748e+11
-7.99755e+11
-7.99762e+11
-7.99769e+11
-7.99777e+11
-7.99785e+11
-7.99793e+11
-7.99801e+11
-7.99809e+11
-7.99817e+11
-7.99826e+11
-7.99834e+11
-7.99843e+11
-7.99851e+11
-7.9986e+11
-7.99869e+11
-7.99878e+11
-7.99887e+11
-7.99896e+11
-7.99905e+11
-7.99914e+11
-7.99923e+11
-7.99932e+11
-7.99941e+11
-7.9995e+11
-7.9996e+11
-7.99969e+11
-7.99978e+11
-7.99988e+11
-8e+11
-8e+11
-0
-0
-0
-0
-0
-0
-0
-0
-0
-0
-0
-0
-0
-0
-0
-0
-0
-0
-0
-7.99314e+11
-7.99388e+11
-7.99445e+11
-7.99488e+11
-7.99522e+11
-7.99549e+11
-7.99571e+11
-7.99588e+11
-7.99603e+11
-7.99615e+11
-7.99625e+11
-7.99634e+11
-7.99641e+11
-7.99647e+11
-7.99652e+11
-7.99656e+11
-7.9966e+11
-7.99664e+11
-7.99667e+11
-7.9967e+11
-7.99674e+11
-7.99677e+11
-7.99681e+11
-7.99685e+11
-7.99689e+11
-7.99694e+11
-7.99698e+11
-7.99703e+11
-7.99709e+11
-7.99714e+11
-7.9972e+11
-7.99726e+11
-7.99733e+11
-7.99739e+11
-7.99746e+11
-7.99753e+11
-7.99761e+11
-7.99768e+11
-7.99776e+11
-7.99784e+11
-7.99791e+11
-7.998e+11
-7.99808e+11
-7.99816e+11
-7.99825e+11
-7.99833e+11
-7.99842e+11
-7.9985e+11
-7.99859e+11
-7.99868e+11
-7.99877e+11
-7.99886e+11
-7.99895e+11
-7.99904e+11
-7.99913e+11
-7.99922e+11
-7.99932e+11
-7.99941e+11
-7.9995e+11
-7.99959e+11
-7.99969e+11
-7.99978e+11
-7.99987e+11
-7.99998e+11
-8e+11
-0
-0
-0
-0
-0
-0
-0
-0
-0
-0
-0
-0
-0
-0
-0
-0
-0
-0
-0
-7.99365e+11
-7.99437e+11
-7.99487e+11
-7.99524e+11
-7.99551e+11
-7.99573e+11
-7.99591e+11
-7.99605e+11
-7.99618e+11
-7.99628e+11
-7.99636e+11
-7.99643e+11
-7.99648e+11
-7.99653e+11
-7.99657e+11
-7.9966e+11
-7.99663e+11
-7.99666e+11
-7.99669e+11
-7.99671e+11
-7.99674e+11
-7.99677e+11
-7.99681e+11
-7.99684e+11
-7.99688e+11
-7.99692e+11
-7.99697e+11
-7.99702e+11
-7.99707e+11
-7.99713e+11
-7.99718e+11
-7.99725e+11
-7.99731e+11
-7.99738e+11
-7.99745e+11
-7.99752e+11
-7.99759e+11
-7.99767e+11
-7.99774e+11
-7.99782e+11
-7.9979e+11
-7.99798e+11
-7.99807e+11
-7.99815e+11
-7.99824e+11
-7.99832e+11
-7.99841e+11
-7.9985e+11
-7.99858e+11
-7.99867e+11
-7.99876e+11
-7.99885e+11
-7.99894e+11
-7.99904e+11
-7.99913e+11
-7.99922e+11
-7.99931e+11
-7.9994e+11
-7.9995e+11
-7.99959e+11
-7.99968e+11
-7.99978e+11
-7.99987e+11
-7.99995e+11
-8e+11
-0
-0
-0
-0
-0
-0
-0
-0
-0
-0
-0
-0
-0
-0
-0
-0
-0
-0
-0
-7.99437e+11
-7.99503e+11
-7.99541e+11
-7.99565e+11
-7.99584e+11
-7.99599e+11
-7.99612e+11
-7.99623e+11
-7.99633e+11
-7.99641e+11
-7.99647e+11
-7.99652e+11
-7.99656e+11
-7.99659e+11
-7.99662e+11
-7.99664e+11
-7.99666e+11
-7.99668e+11
-7.9967e+11
-7.99672e+11
-7.99675e+11
-7.99677e+11
-7.9968e+11
-7.99683e+11
-7.99687e+11
-7.99691e+11
-7.99695e+11
-7.997e+11
-7.99705e+11
-7.99711e+11
-7.99717e+11
-7.99723e+11
-7.99729e+11
-7.99736e+11
-7.99743e+11
-7.9975e+11
-7.99757e+11
-7.99765e+11
-7.99773e+11
-7.99781e+11
-7.99789e+11
-7.99797e+11
-7.99805e+11
-7.99814e+11
-7.99822e+11
-7.99831e+11
-7.9984e+11
-7.99849e+11
-7.99858e+11
-7.99867e+11
-7.99876e+11
-7.99885e+11
-7.99894e+11
-7.99903e+11
-7.99912e+11
-7.99922e+11
-7.99931e+11
-7.9994e+11
-7.99949e+11
-7.99959e+11
-7.99968e+11
-7.99978e+11
-7.99987e+11
-7.99996e+11
-8e+11
-0
-0
-0
-0
-0
-0
-0
-0
-0
-0
-0
-0
-0
-0
-0
-0
-0
-0
-0
-7.99546e+11
-7.99594e+11
-7.99605e+11
-7.99611e+11
-7.99618e+11
-7.99626e+11
-7.99634e+11
-7.99642e+11
-7.99649e+11
-7.99654e+11
-7.99658e+11
-7.99662e+11
-7.99664e+11
-7.99666e+11
-7.99667e+11
-7.99668e+11
-7.99669e+11
-7.9967e+11
-7.99671e+11
-7.99673e+11
-7.99674e+11
-7.99677e+11
-7.99679e+11
-7.99682e+11
-7.99685e+11
-7.99689e+11
-7.99693e+11
-7.99698e+11
-7.99703e+11
-7.99709e+11
-7.99714e+11
-7.99721e+11
-7.99727e+11
-7.99734e+11
-7.99741e+11
-7.99748e+11
-7.99755e+11
-7.99763e+11
-7.99771e+11
-7.99779e+11
-7.99787e+11
-7.99795e+11
-7.99804e+11
-7.99812e+11
-7.99821e+11
-7.9983e+11
-7.99839e+11
-7.99848e+11
-7.99857e+11
-7.99866e+11
-7.99875e+11
-7.99884e+11
-7.99893e+11
-7.99902e+11
-7.99912e+11
-7.99921e+11
-7.9993e+11
-7.9994e+11
-7.99949e+11
-7.99958e+11
-7.99968e+11
-7.99978e+11
-7.99987e+11
-7.99996e+11
-8e+11
-0
-0
-0
-0
-0
-0
-0
-0
-0
-0
-0
-0
-0
-0
-0
-0
-0
-0
-0
-1.75729e+09
-7.99711e+11
-7.99673e+11
-7.99655e+11
-7.99649e+11
-7.99651e+11
-7.99655e+11
-7.9966e+11
-7.99664e+11
-7.99667e+11
-7.9967e+11
-7.99671e+11
-7.99672e+11
-7.99672e+11
-7.99672e+11
-7.99671e+11
-7.99671e+11
-7.99671e+11
-7.99672e+11
-7.99673e+11
-7.99674e+11
-7.99675e+11
-7.99678e+11
-7.9968e+11
-7.99683e+11
-7.99687e+11
-7.99691e+11
-7.99696e+11
-7.99701e+11
-7.99706e+11
-7.99712e+11
-7.99718e+11
-7.99725e+11
-7.99731e+11
-7.99738e+11
-7.99746e+11
-7.99753e+11
-7.99761e+11
-7.99769e+11
-7.99777e+11
-7.99785e+11
-7.99794e+11
-7.99802e+11
-7.99811e+11
-7.9982e+11
-7.99829e+11
-7.99838e+11
-7.99847e+11
-7.99856e+11
-7.99865e+11
-7.99874e+11
-7.99883e+11
-7.99892e+11
-7.99902e+11
-7.99911e+11
-7.99921e+11
-7.9993e+11
-7.99939e+11
-7.99949e+11
-7.99958e+11
-7.99968e+11
-7.99977e+11
-7.99987e+11
-7.99996e+11
-8e+11
-0
-0
-0
-0
-0
-0
-0
-0
-0
-0
-0
-0
-0
-0
-0
-0
-0
-0
-0
-1.27928e+06
-3.00426e+11
-7.9972e+11
-7.99686e+11
-7.99674e+11
-7.99671e+11
-7.99673e+11
-7.99676e+11
-7.99679e+11
-7.9968e+11
-7.99681e+11
-7.9968e+11
-7.99679e+11
-7.99677e+11
-7.99676e+11
-7.99674e+11
-7.99673e+11
-7.99672e+11
-7.99672e+11
-7.99672e+11
-7.99672e+11
-7.99674e+11
-7.99675e+11
-7.99678e+11
-7.99681e+11
-7.99684e+11
-7.99688e+11
-7.99693e+11
-7.99698e+11
-7.99703e+11
-7.99709e+11
-7.99715e+11
-7.99722e+11
-7.99729e+11
-7.99736e+11
-7.99743e+11
-7.99751e+11
-7.99759e+11
-7.99767e+11
-7.99775e+11
-7.99784e+11
-7.99792e+11
-7.99801e+11
-7.9981e+11
-7.99818e+11
-7.99827e+11
-7.99836e+11
-7.99845e+11
-7.99855e+11
-7.99864e+11
-7.99873e+11
-7.99882e+11
-7.99892e+11
-7.99901e+11
-7.99911e+11
-7.9992e+11
-7.99929e+11
-7.99939e+11
-7.99948e+11
-7.99958e+11
-7.99967e+11
-7.99977e+11
-7.99986e+11
-7.99995e+11
-8e+11
-0
-0
-0
-0
-0
-0
-0
-0
-0
-0
-0
-0
-0
-0
-0
-0
-0
-0
-0
-0
-2.48412e+06
-7.99574e+11
-7.99697e+11
-7.99687e+11
-7.99686e+11
-7.99689e+11
-7.99692e+11
-7.99693e+11
-7.99693e+11
-7.99692e+11
-7.99689e+11
-7.99686e+11
-7.99683e+11
-7.99679e+11
-7.99676e+11
-7.99674e+11
-7.99672e+11
-7.99671e+11
-7.9967e+11
-7.9967e+11
-7.99671e+11
-7.99673e+11
-7.99675e+11
-7.99678e+11
-7.99681e+11
-7.99685e+11
-7.9969e+11
-7.99695e+11
-7.997e+11
-7.99706e+11
-7.99712e+11
-7.99719e+11
-7.99726e+11
-7.99733e+11
-7.99741e+11
-7.99749e+11
-7.99757e+11
-7.99765e+11
-7.99773e+11
-7.99782e+11
-7.9979e+11
-7.99799e+11
-7.99808e+11
-7.99817e+11
-7.99826e+11
-7.99835e+11
-7.99844e+11
-7.99853e+11
-7.99863e+11
-7.99872e+11
-7.99882e+11
-7.99891e+11
-7.999e+11
-7.9991e+11
-7.99919e+11
-7.99929e+11
-7.99939e+11
-7.99948e+11
-7.99958e+11
-7.99967e+11
-7.99976e+11
-7.99985e+11
-7.99993e+11
-7.99998e+11
-0
-0
-0
-0
-0
-0
-0
-0
-0
-0
-0
-0
-0
-0
-0
-0
-0
-0
-0
-0
-4773.97
-2.9504e+07
-7.99674e+11
-7.99691e+11
-7.99695e+11
-7.99701e+11
-7.99705e+11
-7.99706e+11
-7.99705e+11
-7.99702e+11
-7.99698e+11
-7.99692e+11
-7.99687e+11
-7.99682e+11
-7.99678e+11
-7.99674e+11
-7.99671e+11
-7.99669e+11
-7.99668e+11
-7.99668e+11
-7.99668e+11
-7.99669e+11
-7.99671e+11
-7.99674e+11
-7.99677e+11
-7.99681e+11
-7.99686e+11
-7.99691e+11
-7.99697e+11
-7.99703e+11
-7.99709e+11
-7.99716e+11
-7.99723e+11
-7.9973e+11
-7.99738e+11
-7.99746e+11
-7.99754e+11
-7.99763e+11
-7.99771e+11
-7.9978e+11
-7.99788e+11
-7.99797e+11
-7.99806e+11
-7.99815e+11
-7.99824e+11
-7.99834e+11
-7.99843e+11
-7.99852e+11
-7.99862e+11
-7.99871e+11
-7.99881e+11
-7.9989e+11
-7.999e+11
-7.99909e+11
-7.99919e+11
-7.99929e+11
-7.99938e+11
-7.99948e+11
-7.99958e+11
-7.99967e+11
-7.99977e+11
-7.99986e+11
-7.99993e+11
-7.99998e+11
-0
-0
-0
-0
-0
-0
-0
-0
-0
-0
-0
-0
-0
-0
-0
-0
-0
-0
-0
-0
-0
-200476
-5.43926e+07
-7.99617e+11
-7.99697e+11
-7.9971e+11
-7.99716e+11
-7.99719e+11
-7.99717e+11
-7.99713e+11
-7.99706e+11
-7.99698e+11
-7.99691e+11
-7.99684e+11
-7.99678e+11
-7.99673e+11
-7.99669e+11
-7.99667e+11
-7.99665e+11
-7.99664e+11
-7.99664e+11
-7.99665e+11
-7.99667e+11
-7.9967e+11
-7.99673e+11
-7.99677e+11
-7.99682e+11
-7.99687e+11
-7.99693e+11
-7.99699e+11
-7.99706e+11
-7.99712e+11
-7.9972e+11
-7.99727e+11
-7.99735e+11
-7.99743e+11
-7.99752e+11
-7.9976e+11
-7.99769e+11
-7.99778e+11
-7.99786e+11
-7.99795e+11
-7.99805e+11
-7.99814e+11
-7.99823e+11
-7.99832e+11
-7.99842e+11
-7.99851e+11
-7.99861e+11
-7.9987e+11
-7.9988e+11
-7.99889e+11
-7.99899e+11
-7.99909e+11
-7.99918e+11
-7.99928e+11
-7.99938e+11
-7.99948e+11
-7.99957e+11
-7.99967e+11
-7.99977e+11
-7.99986e+11
-7.99994e+11
-7.99999e+11
-0
-0
-0
-0
-0
-0
-0
-0
-0
-0
-0
-0
-0
-0
-0
-0
-0
-0
-0
-0
-0
-0
-0
-0
-4.04666e+06
-7.99678e+11
-7.99726e+11
-7.99731e+11
-7.9973e+11
-7.99724e+11
-7.99714e+11
-7.99703e+11
-7.99693e+11
-7.99684e+11
-7.99677e+11
-7.99671e+11
-7.99666e+11
-7.99663e+11
-7.99661e+11
-7.9966e+11
-7.9966e+11
-7.9966e+11
-7.99662e+11
-7.99665e+11
-7.99668e+11
-7.99672e+11
-7.99677e+11
-7.99683e+11
-7.99688e+11
-7.99695e+11
-7.99702e+11
-7.99709e+11
-7.99716e+11
-7.99724e+11
-7.99732e+11
-7.9974e+11
-7.99749e+11
-7.99758e+11
-7.99766e+11
-7.99775e+11
-7.99784e+11
-7.99793e+11
-7.99803e+11
-7.99812e+11
-7.99821e+11
-7.99831e+11
-7.9984e+11
-7.9985e+11
-7.9986e+11
-7.99869e+11
-7.99879e+11
-7.99889e+11
-7.99898e+11
-7.99908e+11
-7.99918e+11
-7.99928e+11
-7.99937e+11
-7.99947e+11
-7.99957e+11
-7.99967e+11
-7.99977e+11
-7.99987e+11
-7.99996e+11
-8e+11
-0
-0
-0
-0
-0
-0
-0
-0
-0
-0
-0
-0
-0
-0
-0
-0
-0
-0
-0
-0
-0
-0
-0
-0
-0
-1.40839e+08
-7.9972e+11
-7.99744e+11
-7.99744e+11
-7.99735e+11
-7.99721e+11
-7.99707e+11
-7.99694e+11
-7.99683e+11
-7.99674e+11
-7.99667e+11
-7.99662e+11
-7.99658e+11
-7.99655e+11
-7.99654e+11
-7.99654e+11
-7.99655e+11
-7.99657e+11
-7.99659e+11
-7.99663e+11
-7.99667e+11
-7.99672e+11
-7.99678e+11
-7.99684e+11
-7.9969e+11
-7.99697e+11
-7.99705e+11
-7.99713e+11
-7.99721e+11
-7.99729e+11
-7.99737e+11
-7.99746e+11
-7.99755e+11
-7.99764e+11
-7.99773e+11
-7.99782e+11
-7.99791e+11
-7.99801e+11
-7.9981e+11
-7.9982e+11
-7.99829e+11
-7.99839e+11
-7.99849e+11
-7.99858e+11
-7.99868e+11
-7.99878e+11
-7.99888e+11
-7.99898e+11
-7.99907e+11
-7.99917e+11
-7.99927e+11
-7.99937e+11
-7.99947e+11
-7.99957e+11
-7.99967e+11
-7.99977e+11
-7.99987e+11
-7.99996e+11
-8e+11
-0
-0
-0
-0
-0
-0
-0
-0
-0
-0
-0
-0
-0
-0
-0
-0
-0
-0
-0
-0
-0
-0
-0
-0
-0
-0
-324139
-7.99302e+11
-7.99763e+11
-7.99748e+11
-7.99728e+11
-7.99709e+11
-7.99693e+11
-7.9968e+11
-7.99669e+11
-7.99662e+11
-7.99656e+11
-7.99651e+11
-7.99649e+11
-7.99647e+11
-7.99647e+11
-7.99648e+11
-7.9965e+11
-7.99653e+11
-7.99657e+11
-7.99661e+11
-7.99667e+11
-7.99672e+11
-7.99679e+11
-7.99686e+11
-7.99693e+11
-7.99701e+11
-7.99709e+11
-7.99717e+11
-7.99725e+11
-7.99734e+11
-7.99743e+11
-7.99752e+11
-7.99761e+11
-7.9977e+11
-7.9978e+11
-7.99789e+11
-7.99799e+11
-7.99808e+11
-7.99818e+11
-7.99828e+11
-7.99838e+11
-7.99847e+11
-7.99857e+11
-7.99867e+11
-7.99877e+11
-7.99887e+11
-7.99897e+11
-7.99907e+11
-7.99917e+11
-7.99927e+11
-7.99937e+11
-7.99947e+11
-7.99957e+11
-7.99967e+11
-7.99977e+11
-7.99987e+11
-7.99996e+11
-8e+11
-0
-0
-0
-0
-0
-0
-0
-0
-0
-0
-0
-0
-0
-0
-0
-0
-0
-0
-0
-0
-0
-0
-0
-0
-0
-0
-0
-8.39959e+06
-7.99788e+11
-7.9976e+11
-7.9973e+11
-7.99706e+11
-7.99688e+11
-7.99673e+11
-7.99662e+11
-7.99654e+11
-7.99648e+11
-7.99644e+11
-7.99641e+11
-7.9964e+11
-7.9964e+11
-7.99641e+11
-7.99643e+11
-7.99646e+11
-7.9965e+11
-7.99655e+11
-7.9966e+11
-7.99667e+11
-7.99673e+11
-7.9968e+11
-7.99688e+11
-7.99696e+11
-7.99704e+11
-7.99713e+11
-7.99722e+11
-7.99731e+11
-7.9974e+11
-7.99749e+11
-7.99758e+11
-7.99768e+11
-7.99777e+11
-7.99787e+11
-7.99797e+11
-7.99807e+11
-7.99816e+11
-7.99826e+11
-7.99836e+11
-7.99846e+11
-7.99856e+11
-7.99866e+11
-7.99876e+11
-7.99886e+11
-7.99896e+11
-7.99906e+11
-7.99916e+11
-7.99926e+11
-7.99936e+11
-7.99946e+11
-7.99957e+11
-7.99967e+11
-7.99977e+11
-7.99987e+11
-7.99995e+11
-8e+11
-0
-0
-0
-0
-0
-0
-0
-0
-0
-0
-0
-0
-0
-0
-0
-0
-0
-0
-0
-0
-0
-0
-0
-0
-0
-0
-0
-0
-7.91903e+08
-7.99764e+11
-7.99723e+11
-7.99696e+11
-7.99677e+11
-7.99663e+11
-7.99652e+11
-7.99644e+11
-7.99638e+11
-7.99634e+11
-7.99632e+11
-7.99631e+11
-7.99631e+11
-7.99632e+11
-7.99635e+11
-7.99639e+11
-7.99643e+11
-7.99648e+11
-7.99654e+11
-7.9966e+11
-7.99668e+11
-7.99675e+11
-7.99683e+11
-7.99691e+11
-7.997e+11
-7.99709e+11
-7.99718e+11
-7.99727e+11
-7.99736e+11
-7.99746e+11
-7.99755e+11
-7.99765e+11
-7.99775e+11
-7.99785e+11
-7.99795e+11
-7.99805e+11
-7.99815e+11
-7.99825e+11
-7.99835e+11
-7.99845e+11
-7.99855e+11
-7.99865e+11
-7.99875e+11
-7.99885e+11
-7.99895e+11
-7.99905e+11
-7.99915e+11
-7.99926e+11
-7.99936e+11
-7.99946e+11
-7.99956e+11
-7.99967e+11
-7.99977e+11
-7.99987e+11
-7.99995e+11
-7.99999e+11
-0
-0
-0
-0
-0
-0
-0
-0
-0
-0
-0
-0
-0
-0
-0
-0
-0
-0
-0
-0
-0
-0
-0
-0
-0
-0
-0
-0
-404950
-7.99168e+11
-7.99696e+11
-7.99676e+11
-7.9966e+11
-7.99648e+11
-7.99638e+11
-7.99631e+11
-7.99626e+11
-7.99623e+11
-7.99621e+11
-7.99621e+11
-7.99621e+11
-7.99623e+11
-7.99626e+11
-7.9963e+11
-7.99635e+11
-7.99641e+11
-7.99647e+11
-7.99654e+11
-7.99661e+11
-7.99669e+11
-7.99678e+11
-7.99686e+11
-7.99695e+11
-7.99704e+11
-7.99714e+11
-7.99723e+11
-7.99733e+11
-7.99743e+11
-7.99752e+11
-7.99762e+11
-7.99772e+11
-7.99782e+11
-7.99793e+11
-7.99803e+11
-7.99813e+11
-7.99823e+11
-7.99833e+11
-7.99843e+11
-7.99854e+11
-7.99864e+11
-7.99874e+11
-7.99884e+11
-7.99894e+11
-7.99905e+11
-7.99915e+11
-7.99925e+11
-7.99935e+11
-7.99946e+11
-7.99956e+11
-7.99966e+11
-7.99977e+11
-7.99986e+11
-7.99994e+11
-7.99999e+11
-0
-0
-0
-0
-0
-0
-0
-0
-0
-0
-0
-0
-0
-0
-0
-0
-0
-0
-0
-0
-0
-0
-0
-0
-0
-0
-0
-0
-0
-6.35208e+06
-7.99665e+11
-7.99647e+11
-7.99637e+11
-7.99628e+11
-7.99621e+11
-7.99616e+11
-7.99612e+11
-7.9961e+11
-7.99609e+11
-7.99609e+11
-7.99611e+11
-7.99613e+11
-7.99617e+11
-7.99621e+11
-7.99627e+11
-7.99633e+11
-7.9964e+11
-7.99647e+11
-7.99655e+11
-7.99663e+11
-7.99672e+11
-7.99681e+11
-7.9969e+11
-7.997e+11
-7.9971e+11
-7.99719e+11
-7.99729e+11
-7.99739e+11
-7.99749e+11
-7.9976e+11
-7.9977e+11
-7.9978e+11
-7.9979e+11
-7.99801e+11
-7.99811e+11
-7.99821e+11
-7.99832e+11
-7.99842e+11
-7.99852e+11
-7.99863e+11
-7.99873e+11
-7.99883e+11
-7.99894e+11
-7.99904e+11
-7.99914e+11
-7.99924e+11
-7.99935e+11
-7.99945e+11
-7.99956e+11
-7.99966e+11
-7.99976e+11
-7.99986e+11
-7.99995e+11
-8e+11
-0
-0
-0
-0
-0
-0
-0
-0
-0
-0
-0
-0
-0
-0
-0
-0
-0
-0
-0
-0
-0
-0
-0
-0
-0
-0
-0
-0
-0
-0
-7.99507e+11
-7.99606e+11
-7.99608e+11
-7.99606e+11
-7.99602e+11
-7.99599e+11
-7.99597e+11
-7.99596e+11
-7.99596e+11
-7.99597e+11
-7.99599e+11
-7.99602e+11
-7.99607e+11
-7.99612e+11
-7.99618e+11
-7.99625e+11
-7.99632e+11
-7.9964e+11
-7.99648e+11
-7.99657e+11
-7.99666e+11
-7.99676e+11
-7.99685e+11
-7.99695e+11
-7.99705e+11