/*--------------------------------*- C++ -*----------------------------------*\
  =========                 |
  \\      /  F ield         | OpenFOAM: The Open Source CFD Toolbox
   \\    /   O peration     | Website:  https://openfoam.org
    \\  /    A nd           | Version:  6
     \\/     M anipulation  |
\*---------------------------------------------------------------------------*/
FoamFile
{
    version     2.0;
    format      ascii;
    class       volScalarField;
    location    "250";
    object      dmdt;
}
// * * * * * * * * * * * * * * * * * * * * * * * * * * * * * * * * * * * * * //

dimensions      [0 0 0 0 0 0 0];

internalField   nonuniform List<scalar> 
4800
(
-0.218881
-0.21547
-0.212085
-0.208744
-0.205463
-0.202252
-0.199118
-0.196073
-0.193121
-0.19026
-0.187486
-0.184789
-0.182157
-0.179577
-0.177042
-0.174546
-0.172082
-0.169642
-0.16722
-0.164812
-0.162415
-0.16003
-0.157658
-0.155301
-0.152967
-0.150668
-0.14841
-0.146195
-0.144023
-0.141894
-0.139805
-0.137762
-0.135768
-0.133828
-0.131939
-0.130097
-0.128295
-0.126527
-0.12478
-0.123044
-0.121304
-0.119546
-0.117753
-0.115906
-0.113984
-0.111979
-0.109888
-0.107711
-0.105436
-0.103062
-0.100587
-0.0980047
-0.0953218
-0.0925598
-0.0897407
-0.0868823
-0.0840017
-0.0811115
-0.0782226
-0.0753444
-0.0724819
-0.0696367
-0.0668044
-0.0639777
-0.0611502
-0.0583139
-0.0554619
-0.0525894
-0.0496928
-0.0467699
-0.0438194
-0.0408404
-0.0378317
-0.0347939
-0.0317289
-0.0286388
-0.0255228
-0.0223884
-0.019245
-0.0160887
-0.0129111
-0.00972106
-0.00652541
-0.00332819
-0.000131693
0.00306244
0.00625286
0.00943854
0.0126187
0.0157926
0.01896
0.0221206
0.0252744
0.0284212
0.0315614
0.034695
0.0378223
0.0409437
0.0440595
0.0471701
0.0502757
0.0533768
0.0564738
0.0595669
0.0626565
0.065743
0.0688266
0.0719076
0.0749863
0.0780629
0.0811378
0.084211
0.0872829
0.0903535
0.0934232
0.096492
0.0995601
0.102628
0.105695
0.108762
-0.218873
-0.21545
-0.212061
-0.208726
-0.205456
-0.202259
-0.199141
-0.19611
-0.19317
-0.190323
-0.187562
-0.184877
-0.182257
-0.179686
-0.17716
-0.174673
-0.172217
-0.169784
-0.167367
-0.164962
-0.16257
-0.16019
-0.157824
-0.155475
-0.153148
-0.150852
-0.148593
-0.146376
-0.144199
-0.142064
-0.139971
-0.137924
-0.135928
-0.133986
-0.132094
-0.130248
-0.128444
-0.126673
-0.12492
-0.123175
-0.121426
-0.119656
-0.117849
-0.115984
-0.114043
-0.112023
-0.10992
-0.10773
-0.105448
-0.103074
-0.100604
-0.0980364
-0.0953755
-0.0926324
-0.0898236
-0.0869695
-0.0840886
-0.0811975
-0.0783107
-0.0754355
-0.0725758
-0.0697324
-0.0669008
-0.0640745
-0.0612449
-0.0584049
-0.0555491
-0.0526728
-0.0497729
-0.0468472
-0.0438947
-0.040915
-0.0379087
-0.0348777
-0.0318239
-0.0287469
-0.0256406
-0.0225006
-0.0193285
-0.0161322
-0.0129268
-0.00972708
-0.00652738
-0.00332788
-0.000129749
0.00306567
0.00625713
0.00944363
0.0126244
0.0157988
0.0189665
0.0221272
0.0252809
0.0284277
0.0315677
0.0347011
0.0378282
0.0409493
0.0440648
0.047175
0.0502804
0.0533811
0.0564778
0.0595706
0.0626599
0.065746
0.0688294
0.0719101
0.0749885
0.078065
0.0811396
0.0842126
0.0872842
0.0903547
0.0934241
0.0964927
0.0995607
0.102628
0.105695
0.108762
-0.21887
-0.215443
-0.212054
-0.208722
-0.20546
-0.202275
-0.199175
-0.196167
-0.193251
-0.190426
-0.187685
-0.185019
-0.182415
-0.179863
-0.177355
-0.174885
-0.172445
-0.170029
-0.16763
-0.165242
-0.162864
-0.160496
-0.158141
-0.155803
-0.153488
-0.151199
-0.148944
-0.146724
-0.144542
-0.142399
-0.140299
-0.138247
-0.136247
-0.134299
-0.1324
-0.130548
-0.12874
-0.12696
-0.125194
-0.123433
-0.121666
-0.119871
-0.11803
-0.116125
-0.114152
-0.112105
-0.109975
-0.107759
-0.105461
-0.103079
-0.100609
-0.0980539
-0.0954141
-0.0926958
-0.0899135
-0.0870827
-0.0842186
-0.0813373
-0.078455
-0.0755837
-0.0727293
-0.0698896
-0.067059
-0.0642302
-0.0613956
-0.0585492
-0.0556864
-0.0528032
-0.0498962
-0.0469631
-0.0440029
-0.0410155
-0.0380023
-0.0349656
-0.0319074
-0.0288255
-0.0257109
-0.0225598
-0.0193736
-0.0161592
-0.0129401
-0.00973389
-0.00652987
-0.00332689
-0.000125782
0.00307217
0.00626571
0.00945385
0.0126358
0.0158111
0.0189793
0.0221404
0.0252941
0.0284408
0.0315805
0.0347134
0.03784
0.0409606
0.0440754
0.047185
0.0502896
0.0533898
0.0564857
0.0595779
0.0626666
0.0657522
0.0688349
0.0719151
0.0749931
0.078069
0.0811431
0.0842157
0.0872869
0.090357
0.093426
0.0964943
0.0995619
0.102629
0.105696
0.108762
-0.21887
-0.215443
-0.212056
-0.208726
-0.20547
-0.202299
-0.199221
-0.196242
-0.193357
-0.190561
-0.187846
-0.185203
-0.182621
-0.180091
-0.177606
-0.17516
-0.172744
-0.170351
-0.167975
-0.165612
-0.163259
-0.160915
-0.158581
-0.156261
-0.15396
-0.151683
-0.149434
-0.147215
-0.14503
-0.142883
-0.140779
-0.138722
-0.136717
-0.134764
-0.132861
-0.131004
-0.129187
-0.127393
-0.125609
-0.123827
-0.12203
-0.120192
-0.1183
-0.116345
-0.114325
-0.112232
-0.110057
-0.107801
-0.10547
-0.103068
-0.100591
-0.0980413
-0.0954205
-0.092733
-0.0899862
-0.0871865
-0.0843476
-0.0814884
-0.0786248
-0.0757669
-0.0729197
-0.0700827
-0.0672514
-0.0644186
-0.0615778
-0.058724
-0.0558533
-0.0529622
-0.0500471
-0.0471049
-0.0441337
-0.0411316
-0.038099
-0.0350382
-0.0319532
-0.0288446
-0.0257135
-0.0225494
-0.0193511
-0.0161476
-0.0129449
-0.00974005
-0.00653276
-0.00332535
-0.000119893
0.00308188
0.00627859
0.00946924
0.0126531
0.0158297
0.0189988
0.0221602
0.025314
0.0284604
0.0315996
0.0347319
0.0378577
0.0409774
0.0440913
0.0471999
0.0503036
0.0534027
0.0564977
0.0595889
0.0626767
0.0657613
0.0688432
0.0719226
0.0749998
0.078075
0.0811484
0.0842203
0.0872909
0.0903604
0.0934289
0.0964966
0.0995637
0.10263
0.105696
0.108762
-0.218872
-0.215448
-0.212065
-0.208741
-0.205495
-0.202343
-0.199292
-0.196344
-0.193494
-0.190732
-0.188049
-0.185434
-0.182879
-0.180376
-0.177919
-0.175499
-0.173109
-0.17074
-0.168389
-0.166053
-0.163727
-0.161413
-0.159108
-0.156814
-0.154535
-0.152275
-0.150038
-0.147827
-0.145646
-0.1435
-0.141394
-0.139337
-0.137331
-0.135378
-0.133475
-0.131616
-0.129789
-0.127977
-0.126166
-0.124353
-0.122511
-0.120621
-0.118673
-0.116657
-0.114569
-0.112404
-0.110165
-0.107856
-0.105482
-0.103045
-0.100548
-0.0979949
-0.0953879
-0.0927275
-0.0900144
-0.087251
-0.0844476
-0.0816201
-0.0787826
-0.0759451
-0.0731119
-0.0702835
-0.0674557
-0.0646219
-0.0617772
-0.0589179
-0.0560412
-0.053144
-0.0502222
-0.0472722
-0.0442903
-0.0412725
-0.0382178
-0.0351267
-0.0319993
-0.0288423
-0.025668
-0.0224883
-0.0193149
-0.0161457
-0.0129574
-0.00975149
-0.00653835
-0.00332422
-0.000112496
0.00309465
0.00629575
0.00948983
0.0126762
0.0158546
0.0190248
0.0221867
0.0253406
0.0284867
0.0316252
0.0347566
0.0378814
0.0409998
0.0441125
0.0472197
0.0503221
0.0534199
0.0565135
0.0596034
0.06269
0.0657735
0.0688542
0.0719326
0.0750087
0.0780829
0.0811554
0.0842265
0.0872962
0.0903649
0.0934326
0.0964996
0.099566
0.102632
0.105697
0.108763
-0.218878
-0.215464
-0.212089
-0.208779
-0.205552
-0.202423
-0.199401
-0.196486
-0.193669
-0.190941
-0.188293
-0.185712
-0.183189
-0.180718
-0.178292
-0.175902
-0.173538
-0.171196
-0.168871
-0.166561
-0.164264
-0.161979
-0.159705
-0.157441
-0.155191
-0.152956
-0.150738
-0.148541
-0.14637
-0.144229
-0.142128
-0.140075
-0.138074
-0.136126
-0.134227
-0.132365
-0.130524
-0.128689
-0.126843
-0.124988
-0.123092
-0.121142
-0.119126
-0.117035
-0.114865
-0.112619
-0.110304
-0.107928
-0.105496
-0.103014
-0.100487
-0.0979206
-0.0953178
-0.0926747
-0.0899871
-0.0872577
-0.084495
-0.0817089
-0.0789082
-0.0761002
-0.0732895
-0.0704767
-0.0676576
-0.0648282
-0.0619858
-0.0591275
-0.0562499
-0.0533497
-0.0504237
-0.0474688
-0.0444816
-0.0414587
-0.0383978
-0.035293
-0.0321399
-0.028951
-0.0257496
-0.0225577
-0.019381
-0.0162005
-0.0129955
-0.00977497
-0.00654935
-0.00332467
-0.000104149
0.0031102
0.00631705
0.00951557
0.0127053
0.0158859
0.0190574
0.02222
0.025374
0.0285196
0.0316573
0.0347876
0.037911
0.0410279
0.0441389
0.0472445
0.0503451
0.0534412
0.0565332
0.0596216
0.0627065
0.0657886
0.0688679
0.0719449
0.0750197
0.0780927
0.0811641
0.0842341
0.0873028
0.0903705
0.0934373
0.0965034
0.0995689
0.102634
0.105699
0.108763
-0.218886
-0.215488
-0.212131
-0.20884
-0.205638
-0.202539
-0.199548
-0.196664
-0.19388
-0.191187
-0.188577
-0.186033
-0.183548
-0.181114
-0.178723
-0.176366
-0.174033
-0.171717
-0.169419
-0.167136
-0.164866
-0.162609
-0.160363
-0.158129
-0.155908
-0.153701
-0.151508
-0.149332
-0.147178
-0.145053
-0.142964
-0.140921
-0.138929
-0.136989
-0.135094
-0.133225
-0.131366
-0.129502
-0.127621
-0.125719
-0.123761
-0.121737
-0.119638
-0.117462
-0.115205
-0.112871
-0.11047
-0.108014
-0.105513
-0.102977
-0.100413
-0.0978239
-0.0952131
-0.0925757
-0.0899071
-0.0872087
-0.0844843
-0.0817403
-0.0789813
-0.0762111
-0.073432
-0.0706437
-0.0678436
-0.0650296
-0.0621998
-0.0593515
-0.0564808
-0.0535836
-0.0506567
-0.0476981
-0.0447061
-0.0416791
-0.0386163
-0.035517
-0.03238
-0.0292075
-0.0260116
-0.0228
-0.0195673
-0.0163164
-0.0130603
-0.00981134
-0.00656655
-0.00332738
-9.53959e-05
0.00312811
0.00634219
0.00954625
0.01274
0.0159235
0.0190967
0.0222601
0.0254141
0.0285592
0.0316958
0.0348247
0.0379464
0.0410615
0.0441706
0.0472741
0.0503727
0.0534667
0.0565567
0.0596431
0.0627262
0.0658065
0.0688841
0.0719595
0.0750328
0.0781044
0.0811744
0.0842431
0.0873106
0.0903771
0.0934428
0.0965078
0.0995723
0.102636
0.1057
0.108764
-0.218894
-0.215515
-0.212179
-0.208916
-0.205748
-0.202685
-0.199728
-0.196877
-0.194127
-0.191471
-0.188903
-0.186402
-0.183958
-0.181565
-0.179213
-0.176889
-0.174587
-0.172301
-0.170031
-0.167775
-0.165531
-0.1633
-0.161081
-0.158873
-0.156679
-0.154499
-0.152334
-0.150184
-0.148054
-0.145949
-0.14388
-0.141854
-0.139874
-0.137942
-0.136047
-0.134169
-0.132294
-0.130402
-0.128483
-0.126524
-0.124498
-0.122398
-0.120216
-0.117945
-0.115587
-0.113153
-0.110658
-0.108117
-0.105543
-0.102945
-0.100332
-0.0977081
-0.0950758
-0.0924327
-0.0897758
-0.0871034
-0.0844159
-0.0817143
-0.0789995
-0.0762728
-0.073534
-0.0707812
-0.0680125
-0.0652274
-0.062424
-0.059598
-0.0567441
-0.0538571
-0.0509334
-0.047972
-0.0449729
-0.0419376
-0.0388672
-0.035764
-0.0326269
-0.0294539
-0.0262453
-0.0230038
-0.0197314
-0.0164328
-0.0131338
-0.0098557
-0.00658916
-0.00333284
-8.701e-05
0.00314765
0.00637055
0.00958141
0.0127802
0.0159671
0.0191424
0.0223069
0.0254609
0.0286053
0.0317408
0.034868
0.0379877
0.0411006
0.0442073
0.0473085
0.0504046
0.0534963
0.0565839
0.059668
0.062749
0.0658271
0.0689028
0.0719763
0.0750478
0.0781177
0.0811862
0.0842534
0.0873195
0.0903847
0.0934491
0.0965129
0.0995762
0.102639
0.105702
0.108764
-0.218911
-0.215565
-0.212261
-0.209028
-0.205887
-0.202859
-0.199942
-0.197132
-0.194423
-0.191811
-0.189286
-0.186829
-0.184432
-0.182079
-0.179762
-0.177471
-0.1752
-0.172943
-0.170701
-0.168471
-0.166253
-0.164046
-0.161852
-0.15967
-0.157502
-0.155348
-0.15321
-0.151087
-0.148983
-0.146903
-0.144855
-0.142847
-0.140882
-0.138957
-0.13706
-0.135171
-0.133274
-0.131353
-0.129395
-0.127379
-0.125285
-0.123103
-0.120827
-0.118456
-0.115996
-0.113462
-0.110872
-0.108244
-0.105591
-0.102927
-0.100259
-0.0975925
-0.0949272
-0.0922644
-0.0896056
-0.0869509
-0.0842963
-0.0816366
-0.078969
-0.076292
-0.0736027
-0.0708968
-0.0681733
-0.0654325
-0.0626707
-0.0598807
-0.0570549
-0.0541873
-0.0512737
-0.0483132
-0.0453063
-0.0422558
-0.0391645
-0.0360348
-0.0328681
-0.0296665
-0.0264288
-0.0231586
-0.0198581
-0.016533
-0.0132092
-0.0099067
-0.00661811
-0.00334263
-8.06e-05
0.0031674
0.00640099
0.00962011
0.012825
0.0160161
0.0191942
0.0223599
0.0255141
0.0286579
0.0317919
0.0349173
0.0380347
0.0411451
0.0442491
0.0473474
0.0504408
0.0535297
0.0566147
0.0596962
0.0627746
0.0658504
0.0689238
0.0719952
0.0750647
0.0781327
0.0811994
0.0842649
0.0873294
0.0903931
0.0934561
0.0965186
0.0995806
0.102642
0.105704
0.108765
-0.218931
-0.215625
-0.212363
-0.209171
-0.206071
-0.203079
-0.200201
-0.197437
-0.194778
-0.192217
-0.189739
-0.187325
-0.18497
-0.182654
-0.180371
-0.178111
-0.175868
-0.17364
-0.171424
-0.16922
-0.167025
-0.164842
-0.162672
-0.160513
-0.158368
-0.156237
-0.154123
-0.152027
-0.149951
-0.147897
-0.145872
-0.143881
-0.141927
-0.140006
-0.138103
-0.136201
-0.134281
-0.132328
-0.130327
-0.128257
-0.126097
-0.123836
-0.121467
-0.118992
-0.116425
-0.113787
-0.1111
-0.108381
-0.105648
-0.102915
-0.100191
-0.0974784
-0.0947775
-0.0920911
-0.0894228
-0.0867753
-0.0841448
-0.0815242
-0.0789058
-0.0762828
-0.0736498
-0.071004
-0.068345
-0.065668
-0.0629647
-0.0602243
-0.0574375
-0.0545986
-0.0517032
-0.0487498
-0.0457372
-0.0426674
-0.0395417
-0.0363624
-0.0331364
-0.0298761
-0.0265918
-0.0232908
-0.0199699
-0.0166328
-0.0132952
-0.00997039
-0.00665804
-0.00336045
-7.91623e-05
0.00318495
0.00643156
0.00966083
0.0128733
0.0160697
0.0192511
0.0224186
0.0255733
0.0287164
0.031849
0.0349722
0.0380871
0.0411946
0.0442956
0.0473908
0.050481
0.0535668
0.0566488
0.0597274
0.062803
0.0658761
0.068947
0.072016
0.0750833
0.0781493
0.081214
0.0842776
0.0873404
0.0904024
0.0934639
0.0965248
0.0995853
0.102646
0.105706
0.108766
-0.218953
-0.215693
-0.21248
-0.209337
-0.206285
-0.20334
-0.20051
-0.197799
-0.195194
-0.192685
-0.190253
-0.187884
-0.185568
-0.183288
-0.181036
-0.178803
-0.176588
-0.174386
-0.172195
-0.170015
-0.167842
-0.165681
-0.163531
-0.161392
-0.159268
-0.157158
-0.155066
-0.152991
-0.150936
-0.148905
-0.146901
-0.144927
-0.142983
-0.14106
-0.139146
-0.137226
-0.13528
-0.133294
-0.131252
-0.129131
-0.126911
-0.124576
-0.122119
-0.119543
-0.116869
-0.114129
-0.111344
-0.108534
-0.105716
-0.102908
-0.10012
-0.0973577
-0.0946233
-0.0919196
-0.0892489
-0.0866126
-0.0840081
-0.0814287
-0.0788624
-0.0762989
-0.0737324
-0.0711595
-0.0685778
-0.0659766
-0.0633435
-0.0606636
-0.0579261
-0.0551238
-0.0522517
-0.049309
-0.0462923
-0.043201
-0.0400342
-0.0367955
-0.0334968
-0.0301601
-0.0268032
-0.0234477
-0.0201065
-0.0167659
-0.0134126
-0.0100593
-0.00671722
-0.0033923
-8.72791e-05
0.0031967
0.00645941
0.0097013
0.0129232
0.0161264
0.0193122
0.0224821
0.0256377
0.0287803
0.0319115
0.0350325
0.0381446
0.041249
0.0443466
0.0474384
0.0505251
0.0536075
0.056686
0.0597614
0.062834
0.0659041
0.0689723
0.0720387
0.0751035
0.0781672
0.0812297
0.0842914
0.0873522
0.0904125
0.0934722
0.0965315
0.0995905
0.102649
0.105708
0.108766
-0.218975
-0.215763
-0.212602
-0.209519
-0.206531
-0.203645
-0.200873
-0.198219
-0.195669
-0.193211
-0.190826
-0.1885
-0.186219
-0.183971
-0.181747
-0.179542
-0.177352
-0.175174
-0.173006
-0.170848
-0.168695
-0.166552
-0.16442
-0.162298
-0.160189
-0.158096
-0.156019
-0.153961
-0.151924
-0.14991
-0.147919
-0.145954
-0.14401
-0.14208
-0.14015
-0.138209
-0.136237
-0.134219
-0.132135
-0.129965
-0.127689
-0.125287
-0.122748
-0.120079
-0.117309
-0.114471
-0.111591
-0.108687
-0.105783
-0.102899
-0.100048
-0.0972377
-0.0944754
-0.091763
-0.089099
-0.086482
-0.0839111
-0.0813812
-0.0788763
-0.0763829
-0.0738966
-0.0714122
-0.0689216
-0.0664095
-0.0638574
-0.0612455
-0.0585637
-0.0558013
-0.0529515
-0.0500153
-0.0469895
-0.0438768
-0.0406817
-0.0374148
-0.0340877
-0.0307131
-0.0273008
-0.0238671
-0.0204272
-0.0170018
-0.0135902
-0.0101891
-0.00680603
-0.00344587
-0.000110959
0.00319785
0.00648069
0.00973841
0.0129724
0.0161842
0.0193759
0.0225492
0.0257062
0.0288488
0.0319787
0.0350975
0.0382068
0.0413078
0.0444018
0.0474898
0.0505727
0.0536513
0.0567262
0.059798
0.0628672
0.0659342
0.0689993
0.0720629
0.0751252
0.0781863
0.0812465
0.084306
0.0873649
0.0904232
0.0934811
0.0965387
0.099596
0.102653
0.10571
0.108767
-0.219009
-0.215863
-0.212766
-0.209745
-0.206821
-0.204
-0.201292
-0.198694
-0.196199
-0.193792
-0.191453
-0.189165
-0.186917
-0.184701
-0.182505
-0.180326
-0.17816
-0.176002
-0.173854
-0.17171
-0.169572
-0.167444
-0.165324
-0.163214
-0.161118
-0.159037
-0.156972
-0.154923
-0.152893
-0.150883
-0.148895
-0.146927
-0.144975
-0.143031
-0.141084
-0.139121
-0.137121
-0.135068
-0.132944
-0.13073
-0.128403
-0.125939
-0.123326
-0.120576
-0.117719
-0.114792
-0.111824
-0.10884
-0.10586
-0.102904
-0.099994
-0.0971458
-0.0943675
-0.0916574
-0.0890121
-0.0864269
-0.0838994
-0.0814271
-0.0789962
-0.0765899
-0.0741997
-0.07182
-0.0694352
-0.0670272
-0.0645654
-0.0620277
-0.0594074
-0.0566866
-0.0538588
-0.0509243
-0.0478813
-0.0447352
-0.0414962
-0.0381813
-0.0348055
-0.0313811
-0.0279171
-0.0244103
-0.0208679
-0.0173357
-0.013837
-0.0103707
-0.00693443
-0.00352967
-0.000157299
0.00318257
0.00649063
0.00976829
0.0130175
0.0162406
0.0194399
0.0226181
0.0257776
0.0289207
0.0320496
0.0351664
0.0382728
0.0413705
0.0444607
0.0475447
0.0506235
0.053698
0.056769
0.059837
0.0629026
0.0659661
0.069028
0.0720886
0.075148
0.0782065
0.0812643
0.0843214
0.0873781
0.0904344
0.0934904
0.0965462
0.0996017
0.102657
0.105713
0.108768
-0.219042
-0.215964
-0.212941
-0.209997
-0.207144
-0.204395
-0.201757
-0.199222
-0.196781
-0.194423
-0.192127
-0.189879
-0.187668
-0.185481
-0.183312
-0.181156
-0.179008
-0.176866
-0.174728
-0.172593
-0.170463
-0.168343
-0.16623
-0.164129
-0.16204
-0.159965
-0.157903
-0.155856
-0.153825
-0.151813
-0.149818
-0.147837
-0.145868
-0.143901
-0.141925
-0.139931
-0.137896
-0.135807
-0.133645
-0.131393
-0.129019
-0.1265
-0.123828
-0.121017
-0.118091
-0.115088
-0.112042
-0.108986
-0.105946
-0.102943
-0.099998
-0.0971301
-0.0943468
-0.0916496
-0.0890357
-0.0864999
-0.0840362
-0.0816371
-0.0792906
-0.0769849
-0.074707
-0.0724455
-0.0701788
-0.0678842
-0.0655126
-0.0630516
-0.0604918
-0.0578056
-0.0549945
-0.0520564
-0.0489894
-0.0457996
-0.042501
-0.0391133
-0.0356552
-0.0321433
-0.0285883
-0.024994
-0.0213724
-0.0177476
-0.0141548
-0.0106126
-0.00711233
-0.00365288
-0.000234183
0.00314427
0.00648378
0.00978644
0.013055
0.0162924
0.0195019
0.0226867
0.02585
0.0289946
0.0321233
0.0352384
0.0383421
0.0414362
0.0445226
0.0476024
0.050677
0.0537472
0.056814
0.059878
0.0629397
0.0659996
0.0690581
0.0721154
0.0751719
0.0782276
0.0812828
0.0843375
0.0873919
0.0904461
0.0935001
0.0965539
0.0996077
0.102661
0.105715
0.108769
-0.219084
-0.216088
-0.213144
-0.210278
-0.207506
-0.204838
-0.202272
-0.1998
-0.197413
-0.195101
-0.192849
-0.190639
-0.188461
-0.1863
-0.184154
-0.182015
-0.179879
-0.177744
-0.175612
-0.17348
-0.171354
-0.169235
-0.167124
-0.165023
-0.162934
-0.160856
-0.15879
-0.156737
-0.154696
-0.15267
-0.150656
-0.148652
-0.146653
-0.144651
-0.142642
-0.140608
-0.138531
-0.136399
-0.134195
-0.131898
-0.129482
-0.126922
-0.124209
-0.121356
-0.118388
-0.115341
-0.112249
-0.109155
-0.106084
-0.103057
-0.100103
-0.0972359
-0.0944647
-0.0917957
-0.0892276
-0.0867561
-0.0843713
-0.0820609
-0.0798134
-0.0776188
-0.0754655
-0.073338
-0.0711974
-0.0690064
-0.0667094
-0.0643076
-0.0617821
-0.0591123
-0.0563103
-0.0533652
-0.0502737
-0.0470429
-0.0436851
-0.0402185
-0.0366591
-0.0330327
-0.0293658
-0.0256695
-0.0219518
-0.0182319
-0.0145513
-0.0109262
-0.00735076
-0.00382518
-0.000349764
0.00307617
0.00645449
0.00978813
0.0130807
0.0163363
0.019559
0.0227528
0.0259215
0.0290689
0.0321981
0.0353121
0.0384134
0.0415044
0.0445868
0.0476625
0.0507326
0.0537984
0.0568608
0.0599206
0.0629782
0.0660343
0.0690892
0.0721432
0.0751965
0.0782493
0.0813018
0.084354
0.0874061
0.0904581
0.09351
0.0965619
0.0996138
0.102666
0.105718
0.10877
-0.219131
-0.216227
-0.21337
-0.210586
-0.207892
-0.205301
-0.202808
-0.200405
-0.198079
-0.195816
-0.193604
-0.191429
-0.189277
-0.187139
-0.185007
-0.182877
-0.180745
-0.178613
-0.176481
-0.174349
-0.172221
-0.170099
-0.167983
-0.165875
-0.163776
-0.161686
-0.159606
-0.157536
-0.155476
-0.153426
-0.151382
-0.149343
-0.147304
-0.14526
-0.1432
-0.14111
-0.138979
-0.136796
-0.134551
-0.132217
-0.129757
-0.127155
-0.12441
-0.121535
-0.118558
-0.115511
-0.112424
-0.109328
-0.106257
-0.103242
-0.100305
-0.097463
-0.0947289
-0.0921112
-0.0896081
-0.0872172
-0.0849278
-0.0827261
-0.0805992
-0.0785356
-0.0765262
-0.0745465
-0.0725284
-0.0704211
-0.0681781
-0.0658129
-0.0633091
-0.0606494
-0.0578483
-0.0548894
-0.0517712
-0.0484964
-0.0450775
-0.0415318
-0.0378677
-0.0341193
-0.0303214
-0.0264899
-0.022649
-0.018823
-0.0150482
-0.0113271
-0.00766156
-0.00405569
-0.000511271
0.00297235
0.00639777
0.00976905
0.0130911
0.016369
0.0196082
0.0228136
0.02599
0.0291417
0.0322726
0.0353863
0.0384858
0.0415739
0.0446526
0.0477241
0.0507898
0.0538511
0.056909
0.0599643
0.0630178
0.0660699
0.0691211
0.0721716
0.0752217
0.0782715
0.0813212
0.0843708
0.0874205
0.0904702
0.09352
0.0965699
0.09962
0.10267
0.10572
0.10877
-0.219179
-0.216371
-0.213608
-0.210915
-0.20831
-0.205798
-0.203377
-0.201039
-0.198768
-0.196553
-0.194378
-0.192231
-0.190101
-0.187977
-0.185851
-0.183721
-0.181587
-0.17945
-0.177312
-0.175174
-0.173037
-0.170903
-0.168774
-0.16665
-0.164532
-0.16242
-0.160316
-0.15822
-0.156129
-0.154044
-0.151961
-0.149877
-0.147786
-0.145681
-0.143554
-0.141394
-0.139194
-0.136951
-0.134653
-0.132267
-0.129768
-0.127146
-0.1244
-0.12154
-0.118589
-0.115576
-0.112529
-0.109477
-0.10645
-0.103481
-0.100596
-0.0978124
-0.0951467
-0.092608
-0.090195
-0.0879082
-0.0857367
-0.0836716
-0.081698
-0.0797998
-0.0779571
-0.0761331
-0.0742319
-0.0722001
-0.0700087
-0.0676732
-0.0651861
-0.0625257
-0.0597189
-0.0567324
-0.0535756
-0.0502434
-0.0467531
-0.0431161
-0.0393487
-0.0354857
-0.0315395
-0.0275311
-0.0235261
-0.0195641
-0.0156713
-0.0118306
-0.0080539
-0.00435025
-0.000722821
0.00282946
0.00631054
0.00972621
0.013083
0.0163878
0.019647
0.0228669
0.0260532
0.029211
0.0323451
0.0354596
0.0385581
0.0416436
0.044719
0.0477865
0.0508478
0.0539046
0.0569579
0.0600088
0.063058
0.0661061
0.0691534
0.0722004
0.0752471
0.0782939
0.0813407
0.0843877
0.0874349
0.0904824
0.0935301
0.096578
0.0996261
0.102674
0.105723
0.108771
-0.219229
-0.216522
-0.213856
-0.211257
-0.208739
-0.206306
-0.203955
-0.201678
-0.199459
-0.197289
-0.195149
-0.193027
-0.190912
-0.188794
-0.186668
-0.184534
-0.182392
-0.180243
-0.178089
-0.175932
-0.173774
-0.171617
-0.169462
-0.16731
-0.165162
-0.163019
-0.16088
-0.158745
-0.156613
-0.154481
-0.152345
-0.150202
-0.148045
-0.145867
-0.143661
-0.141418
-0.139139
-0.136824
-0.134459
-0.132025
-0.129503
-0.126883
-0.12416
-0.121347
-0.118459
-0.11552
-0.112555
-0.109592
-0.106657
-0.103779
-0.100986
-0.0982988
-0.0957364
-0.0933097
-0.0910223
-0.0888766
-0.0868636
-0.0849765
-0.0831964
-0.0815036
-0.079863
-0.0782246
-0.0764528
-0.0744948
-0.0723461
-0.0700344
-0.0675586
-0.064889
-0.0620652
-0.0590336
-0.055818
-0.0524035
-0.0488141
-0.0450574
-0.0411493
-0.0371178
-0.0329913
-0.0288136
-0.0246367
-0.0204977
-0.0164394
-0.0124433
-0.00852844
-0.00470709
-0.000982316
0.00264893
0.00619325
0.00965909
0.0130554
0.0163907
0.0196733
0.0229105
0.0261091
0.0292751
0.0324139
0.0355304
0.0386288
0.0417126
0.0447851
0.0478488
0.050906
0.0539583
0.0570071
0.0600535
0.0630984
0.0661424
0.0691858
0.0722291
0.0752725
0.0783162
0.0813601
0.0844045
0.0874493
0.0904945
0.0935401
0.096586
0.0996322
0.102679
0.105725
0.108772
-0.219281
-0.216676
-0.214113
-0.211611
-0.209179
-0.206822
-0.204538
-0.202316
-0.200145
-0.198014
-0.195903
-0.193798
-0.191688
-0.189567
-0.187432
-0.185281
-0.183116
-0.180941
-0.178759
-0.176573
-0.174382
-0.17219
-0.169998
-0.167806
-0.165616
-0.163427
-0.16124
-0.159055
-0.15687
-0.154682
-0.152484
-0.150271
-0.148037
-0.145775
-0.143476
-0.141139
-0.138771
-0.136377
-0.133951
-0.131476
-0.128939
-0.126336
-0.123668
-0.120944
-0.118172
-0.11536
-0.112526
-0.109696
-0.106897
-0.104156
-0.101501
-0.0989592
-0.0965504
-0.0942843
-0.0921706
-0.0902162
-0.0884176
-0.0867632
-0.0852281
-0.0837911
-0.0824061
-0.0809871
-0.0793557
-0.0774713
-0.0753642
-0.0730811
-0.070616
-0.0679357
-0.0650665
-0.061963
-0.0586534
-0.0551223
-0.0513985
-0.0474883
-0.0434021
-0.0391768
-0.034845
-0.0304456
-0.026021
-0.021634
-0.0173482
-0.0131528
-0.00906995
-0.00511173
-0.00127792
0.00243937
0.00605144
0.00957073
0.0130092
0.0163778
0.0196862
0.0229431
0.0261562
0.0293322
0.0324775
0.0355974
0.0386967
0.0417796
0.0448498
0.0479103
0.0509635
0.0540115
0.0570559
0.0600979
0.0631385
0.0661783
0.0692179
0.0722576
0.0752977
0.0783382
0.0813793
0.084421
0.0874634
0.0905063
0.0935498
0.0965937
0.0996381
0.102683
0.105728
0.108773
-0.219335
-0.216835
-0.214374
-0.211967
-0.209623
-0.207344
-0.205124
-0.202954
-0.200824
-0.19872
-0.196622
-0.194519
-0.192401
-0.190262
-0.1881
-0.185916
-0.183717
-0.181505
-0.179282
-0.17705
-0.17481
-0.172565
-0.170318
-0.16807
-0.165822
-0.163574
-0.161327
-0.159081
-0.156833
-0.15458
-0.152315
-0.150028
-0.147715
-0.145367
-0.142979
-0.140555
-0.138104
-0.135642
-0.133172
-0.130684
-0.12817
-0.12563
-0.123061
-0.120462
-0.117839
-0.115196
-0.11254
-0.109889
-0.107274
-0.104723
-0.102263
-0.0999213
-0.0977194
-0.0956705
-0.0937901
-0.0920877
-0.0905616
-0.0891963
-0.0879644
-0.0868403
-0.0857682
-0.0845951
-0.0831078
-0.0812876
-0.0792297
-0.0769835
-0.0745227
-0.0718258
-0.0688907
-0.065692
-0.0622516
-0.0585595
-0.054641
-0.0505123
-0.046185
-0.0416986
-0.037083
-0.0323755
-0.027624
-0.0229276
-0.0183569
-0.0139177
-0.00963991
-0.00553199
-0.00158487
0.00221851
0.00589702
0.00946854
0.0129487
0.0163508
0.0196861
0.0229641
0.0261933
0.0293812
0.0325345
0.0356591
0.0387606
0.0418436
0.0449122
0.0479699
0.0510196
0.0540636
0.0571037
0.0601415
0.0631778
0.0662136
0.0692493
0.0722854
0.0753222
0.0783596
0.0813979
0.084437
0.087477
0.0905177
0.0935591
0.0966012
0.0996438
0.102687
0.10573
0.108774
-0.21939
-0.217002
-0.214645
-0.212334
-0.210073
-0.207864
-0.205702
-0.203575
-0.201473
-0.19938
-0.197278
-0.195158
-0.193012
-0.190834
-0.188628
-0.186396
-0.184143
-0.181871
-0.179584
-0.177284
-0.174976
-0.17266
-0.170341
-0.168019
-0.165697
-0.163377
-0.161058
-0.158742
-0.156426
-0.154108
-0.151779
-0.149428
-0.14705
-0.144636
-0.142185
-0.139702
-0.137203
-0.134718
-0.132251
-0.129797
-0.127352
-0.124918
-0.12249
-0.120063
-0.117634
-0.115204
-0.112771
-0.110356
-0.107983
-0.105683
-0.103481
-0.101402
-0.0994684
-0.0976946
-0.0961032
-0.0947091
-0.0935108
-0.0924891
-0.0916121
-0.0908451
-0.0901208
-0.089203
-0.0878482
-0.0860743
-0.0840636
-0.0818471
-0.0793814
-0.0766539
-0.0736409
-0.0703261
-0.0667215
-0.062829
-0.0586633
-0.0542482
-0.0495941
-0.0447407
-0.0397261
-0.0345923
-0.0294137
-0.024321
-0.0193887
-0.0146591
-0.0101697
-0.00591408
-0.0018638
0.00201384
0.00574839
0.00936433
0.0128811
0.0163139
0.0196749
0.0229742
0.0262204
0.0294213
0.032584
0.0357147
0.0388194
0.0419034
0.0449712
0.0480268
0.0510734
0.0541138
0.0571499
0.0601836
0.0632158
0.0662477
0.0692797
0.0723123
0.0753457
0.0783802
0.0814157
0.0844523
0.0874899
0.0905285
0.093568
0.0966083
0.0996492
0.102691
0.105732
0.108774
-0.219448
-0.217171
-0.214917
-0.212696
-0.210514
-0.208369
-0.206258
-0.204161
-0.202069
-0.199964
-0.197834
-0.195671
-0.19347
-0.19123
-0.188956
-0.18665
-0.184318
-0.181961
-0.179584
-0.177192
-0.174788
-0.172378
-0.169964
-0.167551
-0.165142
-0.162738
-0.160342
-0.157957
-0.15558
-0.15321
-0.150841
-0.148461
-0.146061
-0.143638
-0.141187
-0.138717
-0.136249
-0.133813
-0.131413
-0.12905
-0.12673
-0.124454
-0.122215
-0.12001
-0.11783
-0.115662
-0.113513
-0.111396
-0.109333
-0.10735
-0.105469
-0.103713
-0.102101
-0.10065
-0.0993873
-0.0983418
-0.097511
-0.0968672
-0.0963667
-0.0959655
-0.0955848
-0.0948945
-0.0936352
-0.091876
-0.0898839
-0.0876798
-0.0852127
-0.0824481
-0.0793472
-0.0758975
-0.0720996
-0.0679745
-0.0635177
-0.058757
-0.0536996
-0.0483803
-0.0428366
-0.0371224
-0.0313604
-0.0257176
-0.0203064
-0.0152451
-0.0105541
-0.00618155
-0.00206191
0.00186086
0.00562901
0.00927334
0.0128159
0.0162727
0.0196559
0.0229749
0.0262379
0.0294525
0.0326254
0.0357633
0.0388724
0.0419584
0.0450262
0.0480803
0.0511244
0.0541614
0.0571939
0.0602237
0.0632521
0.0662802
0.0693086
0.0723378
0.0753681
0.0783996
0.0814325
0.0844667
0.0875021
0.0905387
0.0935763
0.0966148
0.0996541
0.102694
0.105734
0.108775
-0.219503
-0.217333
-0.21518
-0.213049
-0.210941
-0.208851
-0.206774
-0.204687
-0.202581
-0.20044
-0.198254
-0.196016
-0.193726
-0.191388
-0.189007
-0.18659
-0.184143
-0.181668
-0.179172
-0.176657
-0.174132
-0.171602
-0.169074
-0.166555
-0.164049
-0.161562
-0.159098
-0.156662
-0.154257
-0.151879
-0.149527
-0.147188
-0.144855
-0.142525
-0.140192
-0.137859
-0.135551
-0.133266
-0.131003
-0.128785
-0.126642
-0.124586
-0.122613
-0.120709
-0.11885
-0.117017
-0.115218
-0.113463
-0.111769
-0.110162
-0.108653
-0.107258
-0.105997
-0.104889
-0.103966
-0.103276
-0.102813
-0.102535
-0.102381
-0.102296
-0.102198
-0.101662
-0.100424
-0.0986197
-0.0965953
-0.0943896
-0.0919187
-0.0891142
-0.0859399
-0.0823678
-0.0783796
-0.0739993
-0.0692125
-0.0640312
-0.0584723
-0.0525752
-0.0463692
-0.0399218
-0.0333722
-0.0269337
-0.0208644
-0.0154683
-0.0106482
-0.00624044
-0.00211926
0.00179804
0.00556388
0.00921189
0.0127639
0.0162343
0.0196333
0.0229687
0.0262472
0.0294751
0.0326588
0.0358047
0.038919
0.0420077
0.0450763
0.0481296
0.0511717
0.054206
0.0572352
0.0602614
0.0632862
0.0663107
0.0693357
0.0723617
0.075389
0.0784178
0.0814481
0.0844799
0.0875133
0.0905479
0.0935838
0.0966208
0.0996586
0.102697
0.105736
0.108776
-0.219557
-0.21749
-0.215431
-0.21338
-0.211336
-0.209287
-0.207224
-0.205123
-0.202973
-0.200755
-0.198463
-0.1961
-0.193671
-0.191188
-0.188661
-0.186096
-0.183499
-0.180874
-0.178224
-0.175559
-0.172885
-0.170215
-0.167558
-0.164926
-0.16233
-0.159777
-0.15728
-0.154846
-0.152482
-0.150187
-0.147959
-0.145788
-0.143667
-0.141592
-0.139554
-0.13754
-0.135522
-0.133482
-0.131438
-0.129459
-0.127598
-0.125868
-0.124267
-0.122767
-0.121328
-0.119918
-0.118535
-0.117186
-0.115895
-0.114682
-0.11355
-0.112514
-0.111583
-0.110788
-0.11016
-0.109773
-0.109616
-0.109623
-0.109709
-0.109813
-0.109861
-0.109345
-0.108012
-0.106083
-0.103977
-0.101744
-0.0992659
-0.0964452
-0.0932255
-0.0895388
-0.0853649
-0.0807255
-0.0755942
-0.0699502
-0.0638239
-0.0572425
-0.0502377
-0.0428652
-0.0352362
-0.0276321
-0.0206089
-0.015024
-0.0102816
-0.00599779
-0.00198271
0.0018579
0.00557408
0.0091942
0.0127347
0.0162052
0.0196118
0.0229587
0.02625
0.0294902
0.0326845
0.0358387
0.0389589
0.0420511
0.0451212
0.0481742
0.0512149
0.0542468
0.0572732
0.0602962
0.0633176
0.0663388
0.0693606
0.0723836
0.0754081
0.0784343
0.0814622
0.0844919
0.0875233
0.0905562
0.0935905