/*--------------------------------*- C++ -*----------------------------------*\
  =========                 |
  \\      /  F ield         | OpenFOAM: The Open Source CFD Toolbox
   \\    /   O peration     | Website:  https://openfoam.org
    \\  /    A nd           | Version:  6
     \\/     M anipulation  |
\*---------------------------------------------------------------------------*/
FoamFile
{
    version     2.0;
    format      ascii;
    class       surfaceScalarField;
    location    "250";
    object      phi;
}
// * * * * * * * * * * * * * * * * * * * * * * * * * * * * * * * * * * * * * //

dimensions      [0 3 -1 0 0 0 0];

internalField   nonuniform List<scalar> 
9440
(
-1.06165e-11
1.06165e-11
-6.34018e-11
5.27868e-11
-1.64845e-10
1.01444e-10
-3.0722e-10
1.42376e-10
-4.23154e-10
1.15935e-10
-5.88052e-10
1.64899e-10
-7.71358e-10
1.83307e-10
-8.83836e-10
1.12478e-10
-9.9425e-10
1.10415e-10
-1.06852e-09
7.42726e-11
-1.14445e-09
7.59335e-11
-1.18905e-09
4.45955e-11
-1.22683e-09
3.77856e-11
-1.30226e-09
7.54258e-11
-1.36621e-09
6.39548e-11
-1.41556e-09
4.93553e-11
-1.44558e-09
3.00225e-11
-1.47807e-09
3.24856e-11
-1.5078e-09
2.97363e-11
-1.55674e-09
4.89342e-11
-1.61096e-09
5.42257e-11
-1.67158e-09
6.06223e-11
-1.7674e-09
9.58139e-11
-1.92624e-09
1.58843e-10
-2.05848e-09
1.32241e-10
-2.11029e-09
5.18064e-11
-2.12032e-09
1.00261e-11
-2.10145e-09
-1.88689e-11
-2.07007e-09
-3.13808e-11
-2.04229e-09
-2.77714e-11
-2.08893e-09
4.6634e-11
-2.13857e-09
4.96447e-11
-2.16095e-09
2.23766e-11
-2.13406e-09
-2.68901e-11
-2.05277e-09
-8.12899e-11
-1.99127e-09
-6.15042e-11
-1.90113e-09
-9.01362e-11
-1.71496e-09
-1.86169e-10
-1.49786e-09
-2.17108e-10
-1.25824e-09
-2.39617e-10
-9.22465e-10
-3.35773e-10
-6.48216e-10
-2.74248e-10
-2.34762e-10
-4.13454e-10
1.36865e-10
-3.71626e-10
2.71085e-10
-1.34219e-10
3.86127e-10
-1.15041e-10
4.91891e-10
-1.05764e-10
6.89157e-10
-1.97265e-10
5.91694e-10
9.74628e-11
6.32161e-10
-4.04665e-11
5.5577e-10
7.63919e-11
3.09612e-10
2.46158e-10
-2.61155e-11
3.35727e-10
-2.12779e-10
1.86664e-10
-3.64919e-10
1.52139e-10
-4.67944e-10
1.03025e-10
-5.0624e-10
3.82963e-11
-5.83344e-10
7.71043e-11
-6.41301e-10
5.79568e-11
-6.80368e-10
3.90688e-11
-6.93442e-10
1.30751e-11
-6.48504e-10
-4.49368e-11
-6.08102e-10
-4.04003e-11
-5.64133e-10
-4.39667e-11
-4.74504e-10
-8.96275e-11
-4.21593e-10
-5.29098e-11
-3.58809e-10
-6.27833e-11
-3.20683e-10
-3.81257e-11
-2.86358e-10
-3.43246e-11
-2.61897e-10
-2.44605e-11
-2.49952e-10
-1.19443e-11
-2.35093e-10
-1.48579e-11
-2.80421e-10
4.53298e-11
-3.30303e-10
4.98824e-11
-4.26994e-10
9.66907e-11
-4.61999e-10
3.50033e-11
-6.18279e-10
1.56278e-10
-5.06685e-10
-1.11597e-10
-2.63771e-10
-2.42916e-10
5.10248e-16
-2.63773e-10
-5.882e-20
-1.61464e-19
8.99605e-20
-1.48781e-19
1.98523e-19
-1.09301e-19
2.90353e-19
-9.32609e-20
3.79672e-19
-9.14743e-20
4.71118e-19
-9.40925e-20
5.65112e-19
-9.68083e-20
6.60308e-19
-9.79216e-20
7.54569e-19
-9.68532e-20
8.45604e-19
-9.33923e-20
9.31536e-19
-8.76884e-20
1.01076e-18
-8.02832e-20
1.08143e-18
-7.16296e-20
1.14198e-18
-6.17832e-20
1.19202e-18
-5.09369e-20
1.23172e-18
-3.97708e-20
1.26073e-18
-2.88143e-20
1.27878e-18
-1.79905e-20
1.28649e-18
-7.14416e-21
1.28478e-18
3.43766e-21
1.27404e-18
1.33465e-20
1.25423e-18
2.25416e-20
1.22557e-18
3.12196e-20
1.18862e-18
3.93875e-20
1.14393e-18
4.68241e-20
1.0921e-18
5.33861e-20
1.03406e-18
5.91816e-20
9.71093e-19
6.44318e-20
9.04516e-19
6.92501e-20
8.35084e-19
7.35528e-20
7.62732e-19
7.71467e-20
6.86867e-19
7.98828e-20
6.07063e-19
8.17578e-20
5.23635e-19
8.29225e-20
4.37669e-19
8.3632e-20
3.50523e-19
8.41956e-20
2.63167e-19
8.48973e-20
1.75813e-19
8.58379e-20
8.81154e-20
8.67497e-20
8.69866e-20
-1.63694e-10
1.74312e-10
-3.37863e-10
2.26958e-10
-4.15722e-10
1.79305e-10
-4.39894e-10
1.6655e-10
-5.18881e-10
1.94925e-10
-5.34394e-10
1.80413e-10
-6.64137e-10
3.13052e-10
-7.87134e-10
2.35477e-10
-8.67419e-10
1.90701e-10
-9.25361e-10
1.32216e-10
-9.4356e-10
9.41349e-11
-9.14015e-10
1.50533e-11
-9.34687e-10
5.84599e-11
-1.01264e-09
1.53383e-10
-1.07795e-09
1.29262e-10
-1.1021e-09
7.35115e-11
-1.13014e-09
5.80607e-11
-1.20923e-09
1.11584e-10
-1.31891e-09
1.39417e-10
-1.43499e-09
1.65018e-10
-1.51633e-09
1.35562e-10
-1.5763e-09
1.20588e-10
-1.63612e-09
1.55642e-10
-1.72819e-09
2.50906e-10
-1.85127e-09
2.55328e-10
-1.94312e-09
1.43656e-10
-1.992e-09
5.88968e-11
-2.00515e-09
-5.71285e-12
-2.01563e-09
-2.0901e-11
-2.02553e-09
-1.78707e-11
-2.06654e-09
8.76413e-11
-2.12052e-09
1.03621e-10
-2.13367e-09
3.55238e-11
-2.08683e-09
-7.37238e-11
-2.04604e-09
-1.22087e-10
-2.00333e-09
-1.04211e-10
-1.82948e-09
-2.6399e-10
-1.67157e-09
-3.44076e-10
-1.46952e-09
-4.19161e-10
-1.24912e-09
-4.60012e-10
-9.27189e-10
-6.57705e-10
-5.72135e-10
-6.29301e-10
-8.85882e-11
-8.96999e-10
1.69198e-10
-6.29411e-10
2.99046e-10
-2.64066e-10
4.32222e-10
-2.48215e-10
5.55299e-10
-2.28839e-10
6.42693e-10
-2.84658e-10
6.99946e-10
4.02108e-11
7.44508e-10
-8.50287e-11
7.27305e-10
9.35953e-11
6.49205e-10
3.24259e-10
5.60526e-10
4.24406e-10
3.3874e-10
4.0845e-10
9.24782e-11
3.98401e-10
-1.22012e-10
3.17516e-10
-3.16419e-10
2.32704e-10
-4.17556e-10
1.78242e-10
-4.36073e-10
7.64762e-11
-4.73715e-10
7.67128e-11
-4.74395e-10
1.37578e-11
-4.45803e-10
-7.35256e-11
-3.87974e-10
-9.82258e-11
-2.97663e-10
-1.34275e-10
-2.55871e-10
-1.31417e-10
-1.88151e-10
-1.20629e-10
-1.483e-10
-1.02634e-10
-1.05375e-10
-8.10493e-11
-6.85873e-11
-7.11108e-11
-3.38525e-11
-5.91934e-11
2.51251e-12
-4.83074e-11
3.95042e-11
-5.18482e-11
9.02119e-11
-5.37747e-12
1.54824e-10
-1.47313e-11
2.6721e-10
-1.5698e-11
4.08698e-10
-1.06489e-10
5.19534e-10
4.54382e-11
4.17943e-10
-1.00093e-11
2.58406e-10
-8.33809e-11
-3.00387e-16
-5.3668e-12
-5.19071e-20
-9.07599e-19
1.28141e-19
-3.30223e-19
2.13975e-19
-1.97257e-19
2.92261e-19
-1.74769e-19
3.7706e-19
-1.80271e-19
4.68402e-19
-1.8979e-19
5.63998e-19
-1.96668e-19
6.61376e-19
-1.98937e-19
7.5803e-19
-1.96312e-19
8.51308e-19
-1.89015e-19
9.38942e-19
-1.77479e-19
1.01941e-18
-1.62366e-19
1.09128e-18
-1.44431e-19
1.15283e-18
-1.24306e-19
1.20318e-18
-1.02579e-19
1.24267e-18
-7.99565e-20
1.27155e-18
-5.71231e-20
1.28963e-18
-3.45299e-20
1.29707e-18
-1.24167e-20
1.29469e-18
8.956e-21
1.28323e-18
2.92242e-20
1.26291e-18
4.80857e-20
1.23374e-18
6.54501e-20
1.19605e-18
8.14099e-20
1.15049e-18
9.61108e-20
1.0979e-18
1.09647e-19
1.03931e-18
1.21983e-19
9.75911e-19
1.32907e-19
9.08818e-19
1.42102e-19
8.38678e-19
1.49358e-19
7.65468e-19
1.54756e-19
6.88742e-19
1.58664e-19
6.08228e-19
1.61537e-19
5.24344e-19
1.63754e-19
4.38232e-19
1.65623e-19
3.51225e-19
1.67451e-19
2.64108e-19
1.69487e-19
1.76725e-19
1.71675e-19
8.83522e-20
1.73545e-19
1.74642e-19
-1.74624e-10
3.48937e-10
-2.92754e-10
3.4509e-10
-4.00439e-10
2.86992e-10
-4.59865e-10
2.25978e-10
-5.07857e-10
2.42918e-10
-5.98796e-10
2.71353e-10
-6.80525e-10
3.94782e-10
-7.5932e-10
3.14274e-10
-8.15015e-10
2.46397e-10
-8.58862e-10
1.76065e-10
-8.64947e-10
1.00222e-10
-8.52372e-10
2.48098e-12
-8.53659e-10
5.9749e-11
-8.87496e-10
1.87223e-10
-9.26002e-10
1.6777e-10
-9.51032e-10
9.85436e-11
-9.87419e-10
9.44503e-11
-1.00501e-09
1.29173e-10
-1.02981e-09
1.64225e-10
-1.10405e-09
2.39253e-10
-1.22548e-09
2.56997e-10
-1.344e-09
2.39105e-10
-1.43623e-09
2.47873e-10
-1.50157e-09
3.16243e-10
-1.57915e-09
3.32914e-10
-1.6794e-09
2.43901e-10
-1.74693e-09
1.26433e-10
-1.7983e-09
4.56507e-11
-1.85928e-09
4.00841e-11
-1.93556e-09
5.84086e-11
-1.97843e-09
1.30508e-10
-2.03202e-09
1.57208e-10
-2.06716e-09
7.06709e-11
-2.08487e-09
-5.6018e-11
-2.12416e-09
-8.27991e-11
-2.09817e-09
-1.30199e-10
-1.87757e-09
-4.84589e-10
-1.72159e-09
-5.00053e-10
-1.5918e-09
-5.48948e-10
-1.33062e-09
-7.21195e-10
-9.92349e-10
-9.95976e-10
-5.17812e-10
-1.10384e-09
-2.70997e-10
-1.14381e-09
-1.30003e-10
-7.70404e-10
1.51993e-10
-5.46062e-10
3.94003e-10
-4.90224e-10
4.96555e-10
-3.31391e-10
5.09151e-10
-2.97254e-10
7.11003e-10
-1.61641e-10
7.09718e-10
-8.3744e-11
7.24071e-10
7.92427e-11
7.48209e-10
3.0012e-10
6.25385e-10
5.4723e-10
4.64397e-10
5.69438e-10
3.08385e-10
5.54413e-10
1.72859e-10
4.53042e-10
1.46578e-11
3.90905e-10
-1.66806e-10
3.59707e-10
-3.08179e-10
2.17852e-10
-3.47662e-10
1.16198e-10
-3.12926e-10
-2.09756e-11
-2.69704e-10
-1.16744e-10
-1.9817e-10
-1.69757e-10
-1.44902e-10
-1.87541e-10
-9.90518e-11
-1.77265e-10
-6.19318e-11
-1.57747e-10
-2.80439e-11
-1.3652e-10
1.82406e-12
-1.10916e-10
1.98821e-11
-8.91676e-11
3.35188e-11
-7.28289e-11
6.33052e-11
-7.80927e-11
9.72236e-11
-8.57659e-11
1.7835e-10
-8.65039e-11
2.78949e-10
-1.15332e-10
4.46241e-10
-1.82992e-10
6.08307e-10
-2.68557e-10
5.65195e-10
8.8549e-11
5.95917e-10
-4.07311e-11
4.56029e-10
5.6507e-11
-6.82509e-16
4.50664e-10
5.06246e-19
5.61492e-20
2.616e-19
-8.66182e-20
2.36961e-19
-1.7345e-19
2.87258e-19
-2.26321e-19
3.67561e-19
-2.61892e-19
4.61524e-19
-2.84935e-19
5.61729e-19
-2.97912e-19
6.64002e-19
-3.02009e-19
7.65326e-19
-2.98141e-19
8.62844e-19
-2.87021e-19
9.54055e-19
-2.69445e-19
1.03735e-18
-2.46544e-19
1.1114e-18
-2.19449e-19
1.17455e-18
-1.88947e-19
1.22581e-18
-1.5585e-19
1.26551e-18
-1.21305e-19
1.29415e-18
-8.63477e-20
1.31174e-18
-5.15614e-20
1.31844e-18
-1.73321e-20
1.31496e-18
1.57501e-20
1.30209e-18
4.69707e-20
1.28027e-18
7.58464e-20
1.2497e-18
1.02238e-19
1.21075e-18
1.26196e-19
1.16403e-18
1.47816e-19
1.11023e-18
1.67211e-19
1.05023e-18
1.84479e-19
9.85106e-19
1.99629e-19
9.16074e-19
2.12566e-19
8.44077e-19
2.2319e-19
7.69376e-19
2.31534e-19
6.91615e-19
2.37836e-19
6.10445e-19
2.42513e-19
5.26213e-19
2.46114e-19
4.40061e-19
2.49258e-19
3.5326e-19
2.52473e-19
2.66296e-19
2.55936e-19
1.78594e-19
2.59283e-19
8.94493e-20
2.61818e-19
2.63012e-19
-1.81564e-10
5.30502e-10
-2.97101e-10
4.60629e-10
-3.94231e-10
3.84123e-10
-5.21794e-10
3.53542e-10
-6.01475e-10
3.22599e-10
-7.29458e-10
3.99338e-10
-7.72029e-10
4.37354e-10
-8.01857e-10
3.44104e-10
-8.29965e-10
2.74507e-10
-8.60614e-10
2.06716e-10
-8.77793e-10
1.17404e-10
-8.98488e-10
2.31775e-11
-9.19292e-10
8.0555e-11
-9.28667e-10
1.966e-10
-9.38164e-10
1.77269e-10
-9.31867e-10
9.22488e-11
-9.32003e-10
9.45881e-11
-9.16908e-10
1.14079e-10
-9.114e-10
1.58717e-10
-8.99893e-10
2.27747e-10
-9.46306e-10
3.0341e-10
-1.02324e-09
3.16038e-10
-1.13645e-09
3.61089e-10
-1.21787e-09
3.97664e-10
-1.28978e-09
4.0482e-10
-1.38738e-09
3.41496e-10
-1.50276e-09
2.41819e-10
-1.59777e-09
1.40654e-10
-1.67575e-09
1.18067e-10
-1.76151e-09
1.4417e-10
-1.8315e-09
2.00495e-10
-1.89619e-09
2.219e-10
-1.98289e-09
1.57368e-10
-2.06582e-09
2.69143e-11
-2.10007e-09
-4.85479e-11
-2.06257e-09
-1.67698e-10
-1.96017e-09
-5.86986e-10
-1.75374e-09
-7.06485e-10
-1.62961e-09
-6.73074e-10
-1.27107e-09
-1.07974e-09
-9.2863e-10
-1.33841e-09
-6.90805e-10
-1.34166e-09
-5.651e-10
-1.26952e-09
-2.69183e-10
-1.06632e-09
8.11972e-11
-8.96442e-10
3.16954e-10
-7.2598e-10
4.13377e-10
-4.27815e-10
4.27362e-10
-3.11238e-10
5.20925e-10
-2.55205e-10
6.18652e-10
-1.81472e-10
6.38009e-10
5.98858e-11
6.88013e-10
2.50116e-10
6.17303e-10
6.1794e-10
6.11534e-10
5.75206e-10
5.44561e-10
6.21387e-10
3.77779e-10
6.19825e-10
1.89171e-10
5.79514e-10
7.68909e-11
4.71989e-10
-2.21957e-11
3.1694e-10
-7.37236e-11
1.67729e-10
-1.04562e-10
9.8657e-12
-9.47133e-11
-1.2659e-10
-6.60931e-11
-1.98374e-10
-3.71046e-11
-2.16527e-10
-1.45836e-11
-1.99784e-10
2.87998e-12
-1.75209e-10
1.93684e-11
-1.53007e-10
3.74065e-11
-1.28953e-10
4.8521e-11
-1.00281e-10
5.29562e-11
-7.72633e-11
6.26065e-11
-8.77426e-11
6.38616e-11
-8.70211e-11
5.93384e-11
-8.19812e-11
8.95614e-11
-1.45556e-10
2.2133e-10
-3.14762e-10
3.17371e-10
-3.64597e-10
6.21908e-10
-2.15987e-10
3.39145e-10
2.42033e-10
-1.06038e-10
5.01692e-10
-8.00073e-16
3.44629e-10
3.25126e-19
6.66537e-19
1.75272e-19
6.29089e-20
1.84588e-19
-1.81854e-19
2.52182e-19
-2.9246e-19
3.44537e-19
-3.52248e-19
4.48547e-19
-3.86675e-19
5.57632e-19
-4.04777e-19
6.6787e-19
-4.10013e-19
7.76446e-19
-4.04346e-19
8.8042e-19
-3.88994e-19
9.76956e-19
-3.64873e-19
1.06444e-18
-3.33389e-19
1.14191e-18
-2.96293e-19
1.20765e-18
-2.54799e-19
1.26035e-18
-2.09737e-19
1.30046e-18
-1.62395e-19
1.32893e-18
-1.14375e-19
1.34597e-18
-6.68423e-20
1.35152e-18
-2.03408e-20
1.34618e-18
2.45788e-20
1.33097e-18
6.70207e-20
1.30666e-18
1.06103e-19
1.27366e-18
1.41385e-19
1.23237e-18
1.72875e-19
1.18342e-18
2.00816e-19
1.1275e-18
2.2554e-19
1.06538e-18
2.47394e-19
9.98043e-19
2.66632e-19
9.26697e-19
2.83321e-19
8.52421e-19
2.97377e-19
7.75678e-19
3.0875e-19
6.96292e-19
3.17619e-19
6.14047e-19
3.24466e-19
5.29356e-19
3.30002e-19
4.43276e-19
3.34952e-19
3.56723e-19
3.39767e-19
2.69643e-19
3.44387e-19
1.81129e-19
3.48272e-19
9.06441e-20
3.50832e-19
3.518e-19
-1.89871e-10
7.20373e-10
-3.33738e-10
6.04498e-10
-4.71361e-10
5.21747e-10
-6.31641e-10
5.13823e-10
-7.69301e-10
4.60261e-10
-8.4635e-10
4.76388e-10
-8.93505e-10
4.84511e-10
-8.69642e-10
3.20242e-10
-8.53042e-10
2.5791e-10
-8.54336e-10
2.08012e-10
-8.75142e-10
1.38212e-10
-9.10612e-10
5.86493e-11
-9.28219e-10
9.81643e-11
-9.33223e-10
2.01605e-10
-9.37392e-10
1.81439e-10
-9.37476e-10
9.23349e-11
-9.23164e-10
8.02764e-11
-9.20511e-10
1.11427e-10
-9.16463e-10
1.5467e-10
-8.95e-10
2.06283e-10
-8.97211e-10
3.05621e-10
-8.92062e-10
3.1089e-10
-9.06463e-10
3.75489e-10
-9.68147e-10
4.59348e-10
-1.06397e-09
5.00645e-10
-1.16826e-09
4.45788e-10
-1.29225e-09
3.65803e-10
-1.39613e-09
2.44536e-10
-1.47388e-09
1.95812e-10
-1.56405e-09
2.34339e-10
-1.64743e-09
2.83876e-10
-1.74116e-09
3.15631e-10
-1.81869e-09
2.34903e-10
-1.89943e-09
1.07655e-10
-1.88497e-09
-6.30085e-11
-1.80152e-09
-2.51141e-10
-1.79164e-09
-5.96873e-10
-1.54935e-09
-9.48773e-10
-1.43857e-09
-7.83852e-10
-1.13124e-09
-1.38707e-09
-8.79972e-10
-1.58968e-09
-6.64695e-10
-1.55694e-09
-3.52288e-10
-1.58193e-09
-9.2534e-11
-1.32608e-09
8.22715e-11
-1.07125e-09
1.5046e-10
-7.94169e-10
2.35584e-10
-5.12941e-10
3.44383e-10
-4.20038e-10
4.08787e-10
-3.19609e-10
4.60823e-10
-2.33508e-10
4.771e-10
4.36092e-11
5.12526e-10
2.1469e-10
5.66871e-10
5.63595e-10
6.24339e-10
5.17739e-10
6.25733e-10
6.19993e-10
5.2176e-10
7.23799e-10
3.76775e-10
7.24501e-10
2.39601e-10
6.09165e-10
1.32724e-10
4.2382e-10
7.47087e-11
2.25747e-10
1.63912e-11
6.81856e-11
3.33846e-11
-1.43581e-10
4.61414e-11
-2.11128e-10
4.53639e-11
-2.15747e-10
3.53378e-11
-1.89756e-10
2.33554e-11
-1.63225e-10
2.99073e-11
-1.59558e-10
4.53168e-11
-1.44363e-10
5.73955e-11
-1.1236e-10
5.94335e-11
-7.93013e-11
4.41943e-11
-7.25037e-11
-4.76033e-11
4.77609e-12
-1.38748e-10
9.1634e-12
-2.42375e-10
-4.19289e-11
-3.97604e-10
-1.59532e-10
-5.49167e-10
-2.13032e-10
-6.95135e-10
-7.00158e-11
-7.27048e-10
2.7395e-10
-3.72853e-10
1.475e-10
-6.76661e-16
-2.82215e-11
-3.37402e-19
-1.89142e-19
-6.89804e-20
-2.04746e-19
7.44785e-20
-3.22433e-19
1.92884e-19
-4.06493e-19
3.10127e-19
-4.63911e-19
4.30444e-19
-5.00842e-19
5.52397e-19
-5.2083e-19
6.73537e-19
-5.25591e-19
7.91799e-19
-5.16817e-19
9.0454e-19
-4.96022e-19
1.00844e-18
-4.64256e-19
1.10154e-18
-4.22959e-19
1.1834e-18
-3.744e-19
1.25271e-18
-3.20564e-19
1.30769e-18
-2.62649e-19
1.34848e-18
-2.01978e-19
1.37647e-18
-1.40433e-19
1.39247e-18
-7.98186e-20
1.39644e-18
-2.11097e-20
1.38862e-18
3.5202e-20
1.37005e-18
8.84181e-20
1.34194e-18
1.37577e-19
1.30515e-18
1.81907e-19
1.26032e-18
2.21141e-19
1.20814e-18
2.55498e-19
1.14936e-18
2.85511e-19
1.08462e-18
3.11833e-19
1.01473e-18
3.35008e-19
9.40753e-19
3.55307e-19
8.63795e-19
3.72752e-19
7.84547e-19
3.87306e-19
7.03139e-19
3.99115e-19
6.19582e-19
4.08607e-19
5.34306e-19
4.16416e-19
4.48091e-19
4.23147e-19
3.61343e-19
4.29106e-19
2.73528e-19
4.34167e-19
1.8369e-19
4.3795e-19
9.16119e-20
4.40195e-19
4.40953e-19
-1.54708e-10
8.75082e-10
-3.4746e-10
7.97252e-10
-5.17315e-10
6.91604e-10
-6.57372e-10
6.53881e-10
-7.85261e-10
5.88151e-10
-8.81315e-10
5.72445e-10
-8.87456e-10
4.90655e-10
-8.8547e-10
3.18258e-10
-8.63238e-10
2.35681e-10
-8.69536e-10
2.14312e-10
-8.69777e-10
1.38456e-10
-8.93831e-10
8.27052e-11
-9.09054e-10
1.13389e-10
-9.04471e-10
1.97024e-10
-9.23558e-10
2.00526e-10
-9.34438e-10
1.03215e-10
-9.26289e-10
7.21279e-11
-9.45291e-10
1.3043e-10
-9.28677e-10
1.38057e-10
-9.01808e-10
1.79414e-10
-8.69091e-10
2.72904e-10
-8.47855e-10
2.89654e-10
-8.10472e-10
3.38105e-10
-8.02448e-10
4.51324e-10
-8.13185e-10
5.11381e-10
-8.84021e-10
5.16623e-10
-9.90098e-10
4.7188e-10
-1.10082e-09
3.55259e-10
-1.23418e-09
3.29175e-10
-1.36638e-09
3.66539e-10
-1.4557e-09
3.73192e-10
-1.53319e-09
3.93122e-10
-1.61472e-09
3.16436e-10
-1.67233e-09
1.65265e-10
-1.59905e-09
-1.36281e-10
-1.5089e-09
-3.41297e-10
-1.45266e-09
-6.53108e-10
-1.37269e-09
-1.02874e-09
-1.30332e-09
-8.53225e-10
-1.07617e-09
-1.61422e-09
-8.93016e-10
-1.77283e-09
-5.44373e-10
-1.90558e-09
-2.32095e-10
-1.8942e-09
-5.86112e-11
-1.49956e-09
2.30842e-11
-1.15294e-09
8.84126e-11
-8.59499e-10
1.76283e-10
-6.00811e-10
2.31563e-10
-4.75319e-10
2.71538e-10
-3.59586e-10
2.87457e-10
-2.49427e-10
3.07464e-10
2.36014e-11
3.489e-10
1.73254e-10
4.91713e-10
4.20783e-10
5.46794e-10
4.62659e-10
5.39866e-10
6.26922e-10
4.87551e-10
7.76115e-10
4.50085e-10
7.61968e-10
3.89941e-10
6.69311e-10
3.15893e-10
4.97869e-10
2.38865e-10
3.02776e-10
2.0352e-10
1.03532e-10
1.81937e-10
-1.21996e-10
1.39998e-10
-1.69188e-10
1.01281e-10
-1.77029e-10
7.93351e-11
-1.6781e-10
5.66863e-11
-1.40576e-10
4.31965e-11
-1.46069e-10
4.18491e-11
-1.43016e-10
5.45095e-11
-1.25021e-10
7.62166e-11
-1.01009e-10
9.09274e-11
-8.72149e-11
1.01525e-10
-5.82204e-12
1.03709e-10
6.97982e-12
-6.94309e-11
1.31213e-10
-4.8771e-10
2.5875e-10
-8.5274e-10
1.52003e-10
-1.07433e-09
1.51577e-10
-8.33989e-10
3.36149e-11
-3.34868e-10
-3.51617e-10
-5.1795e-16
-3.63087e-10
-4.41815e-19
-5.19659e-19
-1.86171e-19
-4.58341e-19
-9.09385e-21
-4.94644e-19
1.35948e-19
-5.44724e-19
2.73212e-19
-5.92904e-19
4.10457e-19
-6.28929e-19
5.47635e-19
-6.49091e-19
6.82311e-19
-6.52121e-19
8.12593e-19
-6.38789e-19
9.36307e-19
-6.10852e-19
1.04974e-18
-5.69732e-19
1.1501e-18
-5.16962e-19
1.23724e-18
-4.55195e-19
1.31063e-18
-3.87298e-19
1.36836e-18
-3.15194e-19
1.41003e-18
-2.40382e-19
1.43708e-18
-1.64811e-19
1.45118e-18
-9.0704e-20
1.45276e-18
-1.95547e-20
1.44184e-18
4.80371e-20
1.41921e-18
1.11647e-19
1.38627e-18
1.70537e-19
1.34438e-18
2.2385e-19
1.29467e-18
2.71057e-19
1.23816e-18
3.12191e-19
1.17568e-18
3.47824e-19
1.1078e-18
3.78836e-19
1.03503e-18
4.06073e-19
9.58197e-19
4.30071e-19
8.78349e-19
4.50998e-19
7.96355e-19
4.68827e-19
7.12631e-19
4.83603e-19
6.27391e-19
4.95604e-19
5.41037e-19
5.05319e-19
4.5405e-19
5.1325e-19
3.66403e-19
5.19694e-19
2.77312e-19
5.2467e-19
1.85934e-19
5.28107e-19
9.23693e-20
5.30075e-19
5.3084e-19
-1.45769e-10
1.02085e-09
-2.98619e-10
9.50103e-10
-4.82586e-10
8.75572e-10
-6.58737e-10
8.30034e-10
-7.83629e-10
7.13044e-10
-8.6689e-10
6.55708e-10
-8.97698e-10
5.21465e-10
-8.9751e-10
3.18073e-10
-9.3365e-10
2.71823e-10
-9.03172e-10
1.83836e-10
-8.8834e-10
1.23626e-10
-9.38831e-10
1.33198e-10
-9.54562e-10
1.29121e-10
-9.4107e-10
1.83533e-10
-9.11313e-10
1.70769e-10
-8.99994e-10
9.1897e-11
-8.94808e-10
6.69422e-11
-9.14888e-10
1.50509e-10
-9.08336e-10
1.31505e-10
-8.9824e-10
1.69317e-10
-8.56169e-10
2.30834e-10
-8.3463e-10
2.68115e-10
-8.00954e-10
3.0443e-10
-7.60922e-10
4.11291e-10
-7.18415e-10
4.68875e-10
-7.07511e-10
5.05719e-10
-7.83455e-10
5.47824e-10
-9.09993e-10
4.81799e-10
-9.90633e-10
4.09816e-10
-1.10263e-09
4.78537e-10
-1.23495e-09
5.05516e-10
-1.30005e-09
4.58218e-10
-1.37228e-09
3.8867e-10
-1.35429e-09
1.47278e-10
-1.27528e-09
-2.1529e-10
-1.20152e-09
-4.15051e-10
-1.24709e-09
-6.07543e-10
-1.30871e-09
-9.67117e-10
-1.06176e-09
-1.10018e-09
-9.54806e-10
-1.72118e-09
-7.69489e-10
-1.95815e-09
-6.46255e-10
-2.02882e-09
-5.11792e-10
-2.02867e-09
-1.61616e-10
-1.84974e-09
1.189e-11
-1.32645e-09
4.63135e-11
-8.93923e-10
6.08049e-11
-6.15303e-10
5.70728e-11
-4.71587e-10
5.69122e-11
-3.59425e-10
1.04244e-10
-2.96758e-10
1.56864e-10
-2.90186e-11
2.26509e-10
1.03611e-10
3.83261e-10
2.64032e-10
4.29484e-10
4.16437e-10
4.46814e-10
6.09594e-10
4.45266e-10
7.77665e-10
4.27676e-10
7.7956e-10
4.06327e-10
6.90661e-10
3.77368e-10
5.26828e-10
3.34715e-10
3.45429e-10
2.90232e-10
1.48014e-10
2.39083e-10
-7.08476e-11
1.90915e-10
-1.21022e-10
1.24963e-10
-1.11077e-10
8.68145e-11
-1.29662e-10
5.66496e-11
-1.10411e-10
3.747e-11
-1.2689e-10
2.81311e-11
-1.33678e-10
2.81062e-11
-1.24998e-10
5.29641e-11
-1.25868e-10
7.75559e-11
-1.11807e-10
1.17695e-10
-4.59603e-11
1.48155e-10
-2.34785e-11
2.39239e-10
4.01322e-11
3.12447e-10
1.85547e-10
2.71845e-10
1.92609e-10
3.97288e-10
2.61372e-11
4.08883e-10
2.20239e-11
1.53272e-10
-9.60034e-11
-4.39366e-16
-2.09814e-10
-4.98235e-19
-1.44811e-18
-2.21992e-19
-7.31443e-19
-5.86963e-20
-6.51859e-19
8.82411e-20
-6.84001e-19
2.37202e-19
-7.33187e-19
3.90295e-19
-7.72439e-19
5.44605e-19
-7.93947e-19
6.95643e-19
-7.9499e-19
8.4053e-19
-7.75867e-19
9.77427e-19
-7.38861e-19
1.10251e-18
-6.86219e-19
1.21187e-18
-6.19832e-19
1.30513e-18
-5.42666e-19
1.38273e-18
-4.58421e-19
1.44318e-18
-3.70006e-19
1.4856e-18
-2.79346e-19
1.51119e-18
-1.88413e-19
1.52233e-18
-9.96493e-20
1.52035e-18
-1.51017e-20
1.50545e-18
6.42737e-20
1.4781e-18
1.38241e-19
1.43959e-18
2.06528e-19
1.39159e-18
2.68572e-19
1.33581e-18
3.23814e-19
1.27379e-18
3.72096e-19
1.20669e-18
4.1386e-19
1.13503e-18
4.50018e-19
1.05903e-18
4.81587e-19
9.79124e-19
5.09305e-19
8.96178e-19
5.33483e-19
8.11131e-19
5.54139e-19
7.24632e-19
5.71278e-19
6.37106e-19
5.85107e-19
5.48969e-19
5.96057e-19
4.60494e-19
6.04628e-19
3.71379e-19
6.11197e-19
2.80749e-19
6.15985e-19
1.87903e-19
6.19186e-19
9.31343e-20
6.21093e-19
6.22057e-19
-2.33837e-10
1.25469e-09
-4.68938e-10
1.18521e-09
-6.67798e-10
1.07443e-09
-7.64057e-10
9.26294e-10
-7.83254e-10
7.32244e-10
-8.33463e-10
7.05919e-10
-9.45614e-10
6.33618e-10
-9.88909e-10
3.61371e-10
-1.08601e-09
3.68927e-10
-1.10132e-09
1.99147e-10
-9.569e-10
-2.07899e-11
-1.0739e-09
2.50195e-10
-1.01865e-09
7.38738e-11
-9.71605e-10
1.36493e-10
-8.98085e-10
9.7249e-11
-8.95593e-10
8.94059e-11
-8.95697e-10
6.70464e-11
-8.78335e-10
1.33148e-10
-8.73104e-10
1.26274e-10
-8.6211e-10
1.58324e-10
-8.32542e-10
2.01265e-10
-8.15673e-10
2.51247e-10
-7.74101e-10
2.62858e-10
-7.35048e-10
3.72238e-10
-6.93814e-10
4.27641e-10
-6.72428e-10
4.84335e-10
-6.57187e-10
5.32584e-10
-7.30961e-10
5.55574e-10
-8.34681e-10
5.13537e-10
-8.72544e-10
5.16402e-10
-9.17422e-10
5.50395e-10
-9.95061e-10
5.35859e-10
-1.04664e-09
4.40254e-10
-1.06924e-09
1.69877e-10
-1.04002e-09
-2.44515e-10
-9.59596e-10
-4.9547e-10
-8.40981e-10
-7.26158e-10
-9.01771e-10
-9.06328e-10
-7.96265e-10
-1.20569e-09
-8.07868e-10
-1.70957e-09
-7.20629e-10
-2.04539e-09
-5.15051e-10
-2.2344e-09
-2.65431e-10
-2.27829e-09
-1.13117e-10
-2.00205e-09
-4.66235e-11
-1.39295e-09
-5.60794e-11
-8.84467e-10
-8.9831e-11
-5.81552e-10
-1.14547e-10
-4.4687e-10
-1.06668e-10
-3.67303e-10
-9.24343e-11
-3.10992e-10
-8.73991e-11
-3.40528e-11
-1.56726e-12
1.77805e-11
9.55266e-11
1.6694e-10
2.13966e-10
2.98e-10
2.82669e-10
5.40893e-10
3.22195e-10
7.38141e-10
3.57518e-10
7.44238e-10
3.69388e-10
6.78791e-10
3.56763e-10
5.39451e-10
3.34103e-10
3.68087e-10
3.07875e-10
1.7424e-10
2.45269e-10
-8.24433e-12
1.78176e-10
-5.39307e-11
1.27741e-10
-6.06451e-11
8.20968e-11
-8.40189e-11
6.02256e-11
-8.85415e-11
3.79379e-11
-1.04603e-10
2.00442e-11
-1.15785e-10
-6.46247e-12
-9.84919e-11
-1.66873e-11
-1.15643e-10
-5.06173e-12
-1.23431e-10
5.86404e-11
-1.0966e-10
1.18921e-10
-8.37558e-11
3.09229e-10
-1.50173e-10
4.71721e-10
2.30602e-11
5.88186e-10
7.61468e-11
5.76023e-10
3.83038e-11
5.32283e-10
6.57667e-11
3.69831e-10
6.64508e-11
-3.04669e-16
1.60019e-10
6.15378e-20
-3.39377e-19
-1.4194e-19
-5.24549e-19
-9.0369e-20
-6.97898e-19
3.9519e-20
-8.07803e-19
1.97963e-19
-8.85594e-19
3.68787e-19
-9.36695e-19
5.43563e-19
-9.62042e-19
7.14766e-19
-9.61197e-19
8.77537e-19
-9.34993e-19
1.03007e-18
-8.86567e-19
1.16889e-18
-8.19513e-19
1.28903e-18
-7.36558e-19
1.38938e-18
-6.41064e-19
1.47115e-18
-5.37407e-19
1.53384e-18
-4.29637e-19
1.57653e-18
-3.20446e-19
1.59995e-18
-2.11976e-19
1.60688e-18
-1.06691e-19
1.59972e-18
-7.03585e-21
1.57942e-18
8.54982e-20
1.54639e-18
1.70574e-19
1.50163e-18
2.4837e-19
1.44683e-18
3.18917e-19
1.38409e-18
3.81989e-19
1.31555e-18
4.37419e-19
1.24285e-18
4.85465e-19
1.1666e-18
5.26893e-19
1.08675e-18
5.62697e-19
1.0033e-18
5.93723e-19
9.16835e-19
6.20454e-19
8.2827e-19
6.43075e-19
7.38461e-19
6.61713e-19
6.48056e-19
6.76644e-19
5.5754e-19
6.88327e-19
4.67063e-19
6.97288e-19
3.76167e-19
7.0397e-19
2.8395e-19
7.08722e-19
1.89809e-19
7.11896e-19
9.40982e-20
7.13894e-19
7.1508e-19
-1.69625e-10
1.42432e-09
-3.78539e-10
1.39412e-09
-5.78899e-10
1.27479e-09
-8.02384e-10
1.14978e-09
-9.95088e-10
9.24949e-10
-9.20114e-10
6.30948e-10
-1.00761e-09
7.21111e-10
-1.10394e-09
4.57706e-10
-1.16289e-09
4.27879e-10
-1.23702e-09
2.73283e-10
-1.14189e-09
-1.15915e-10
-1.10327e-09
2.1157e-10
-1.0353e-09
5.90354e-12
-9.96304e-10
9.75007e-11
-9.29175e-10
3.0121e-11
-8.9351e-10
5.37415e-11
-8.9246e-10
6.59964e-11
-8.50174e-10
9.08615e-11
-8.6303e-10
1.3913e-10
-8.36929e-10
1.32223e-10
-8.10017e-10
1.74354e-10
-7.87013e-10
2.28243e-10
-7.52038e-10
2.27884e-10
-7.13535e-10
3.33735e-10
-6.5595e-10
3.70057e-10
-5.97157e-10
4.25542e-10
-5.58811e-10
4.9424e-10
-5.49709e-10
5.46474e-10
-6.27003e-10
5.90832e-10
-7.00193e-10
5.89594e-10
-7.38888e-10
5.89092e-10
-7.58481e-10
5.55452e-10
-7.1197e-10
3.93743e-10
-7.19381e-10
1.77288e-10
-7.61374e-10
-2.02522e-10
-6.98071e-10
-5.58773e-10
-6.60769e-10
-7.63461e-10
-5.98553e-10
-9.68545e-10
-5.10954e-10
-1.29329e-09
-5.73068e-10
-1.64746e-09
-5.72466e-10
-2.04599e-09
-4.83949e-10
-2.32292e-09
-3.70198e-10
-2.39204e-09
-1.93676e-10
-2.17858e-09
-8.1514e-11
-1.50511e-09
-9.13366e-11
-8.74645e-10
-1.11256e-10
-5.61633e-10
-1.4329e-10
-4.14836e-10
-1.627e-10
-3.47892e-10
-2.00238e-10
-2.73453e-10
-1.48628e-10
-8.56615e-11
-1.39162e-10
8.31606e-12
-1.2164e-10
1.49419e-10
-1.03068e-10
2.79431e-10
-2.65899e-11
4.64416e-10
1.00557e-10
6.10995e-10
1.97968e-10
6.46827e-10
2.42906e-10
6.33853e-10
2.6916e-10
5.13195e-10
2.98715e-10
3.3853e-10
3.00152e-10
1.728e-10
2.04351e-10
8.75523e-11
1.17949e-10
3.24685e-11
6.52025e-11
-7.90088e-12
5.13845e-11
-7.0203e-11
4.48108e-11
-8.19689e-11
3.27682e-11
-9.256e-11
1.3696e-11
-9.67128e-11
-2.0254e-11
-6.45418e-11
-5.11905e-11
-8.47061e-11
-6.9169e-11
-1.05451e-10
-3.51844e-11
-1.43642e-10
4.77071e-11
-1.66644e-10
1.78302e-10
-2.80764e-10
3.54604e-10
-1.5324e-10
4.96818e-10
-6.6065e-11
4.75934e-10
5.919e-11
4.6263e-10
7.90719e-11
3.06749e-10
2.22335e-10
4.42682e-18
4.66768e-10
-3.14054e-19
-1.45814e-20
-3.14812e-19
-5.2142e-19
-1.99808e-19
-8.09848e-19
-3.78167e-20
-9.67073e-19
1.46873e-19
-1.06867e-18
3.43441e-19
-1.13164e-18
5.44408e-19
-1.16067e-18
7.40969e-19
-1.15683e-18
9.25963e-19
-1.12141e-18
1.09712e-18
-1.05834e-18
1.25185e-18
-9.72877e-19
1.38453e-18
-8.69251e-19
1.49304e-18
-7.51598e-19
1.57892e-18
-6.2485e-19
1.64303e-18
-4.94168e-19
1.685e-18
-3.63242e-19
1.70524e-18
-2.34638e-19
1.70653e-18
-1.10761e-19
1.69226e-18
5.88572e-21
1.66449e-18
1.13368e-19
1.62418e-18
2.10961e-19
1.57218e-18
2.98977e-19
1.5099e-18
3.78026e-19
1.43952e-18
4.48471e-19
1.3636e-18
5.10436e-19
1.28427e-18
5.64167e-19
1.20241e-18
6.10272e-19
1.11777e-18
6.49647e-19
1.03003e-18
6.83194e-19
9.39456e-19
7.11599e-19
8.46908e-19
7.35323e-19
7.53392e-19
7.5474e-19
6.5974e-19
7.70276e-19
5.66501e-19
7.82442e-19
4.73745e-19
7.91745e-19
3.80919e-19
7.98623e-19
2.87124e-19
8.03465e-19
1.91807e-19
8.06692e-19
9.52845e-20
8.08757e-19
8.10028e-19
-1.71042e-10
1.59536e-09
-3.56066e-10
1.57915e-09
-5.56254e-10
1.47498e-09
-7.18978e-10
1.31251e-09
-8.91463e-10
1.09744e-09
-1.05455e-09
7.94034e-10
-1.08607e-09
7.5264e-10
-1.16432e-09
5.35956e-10
-1.18721e-09
4.5077e-10
-1.14863e-09
2.34709e-10
-1.20111e-09
-6.34407e-11
-1.0807e-09
9.11687e-11
-1.0326e-09
-4.2201e-11
-9.68237e-10
3.31426e-11
-9.31094e-10
-7.02084e-12
-9.00433e-10
2.30815e-11
-8.79761e-10
4.53253e-11
-8.43322e-10
5.44222e-11
-8.29681e-10
1.2549e-10
-8.00615e-10
1.03157e-10
-7.88769e-10
1.62507e-10
-7.58007e-10
1.97481e-10
-7.16387e-10
1.86265e-10
-6.63309e-10
2.80658e-10
-6.27638e-10
3.34387e-10
-5.82989e-10
3.80895e-10
-5.23327e-10
4.34579e-10
-4.63732e-10
4.8688e-10
-4.09595e-10
5.36697e-10
-4.04969e-10
5.84969e-10
-4.27897e-10
6.1202e-10
-4.68442e-10
5.95997e-10
-4.84281e-10
4.09583e-10
-4.16203e-10
1.0921e-10
-4.37428e-10
-1.81297e-10
-4.25944e-10
-5.70258e-10
-3.84273e-10
-8.05132e-10
-3.32892e-10
-1.01993e-09
-3.2368e-10
-1.3025e-09
-3.2144e-10
-1.6497e-09
-3.77464e-10
-1.98997e-09
-3.98971e-10
-2.30141e-09
-3.3578e-10
-2.45523e-09
-2.61751e-10
-2.25261e-09
-2.05247e-10
-1.56161e-09
-2.1835e-10
-8.61542e-10
-2.59079e-10
-5.20904e-10
-2.91252e-10
-3.82662e-10
-3.06609e-10
-3.32534e-10
-2.69283e-10
-3.10778e-10
-1.88145e-10
-1.66799e-10
-2.02923e-10
2.30961e-11
-2.29727e-10
1.76225e-10
-3.15491e-10
3.65196e-10
-3.36324e-10
4.85251e-10
-2.81245e-10
5.55917e-10
-2.06187e-10
5.71769e-10
-1.21757e-10
5.49422e-10
-4.67443e-11
4.38181e-10
-1.80079e-11
3.0979e-10
-3.6584e-11
1.91372e-10
-7.79635e-11
1.28928e-10
-4.76032e-11
2.10528e-12
-3.5526e-11
-1.998e-11
1.344e-11
-1.1917e-10
1.82647e-11
-8.67945e-11
1.30364e-11
-8.73314e-11
1.96733e-11
-1.03349e-10
1.36309e-11
-5.84988e-11
7.14058e-13
-7.17886e-11
-2.32696e-11
-8.14658e-11
-1.1035e-11
-1.55876e-10
1.18225e-11
-1.89501e-10
-1.81972e-11
-2.50744e-10
2.61193e-11
-1.97556e-10
4.86932e-11
-8.86386e-11
1.96465e-10
-8.8581e-11
2.98244e-10
-2.27061e-11
1.33717e-10
3.86862e-10
2.69207e-16
6.00485e-10
-1.06062e-18
-1.64628e-18
-6.02764e-19
-9.79008e-19
-3.56576e-19
-1.05596e-18
-1.38971e-19
-1.18471e-18
8.39205e-20
-1.29289e-18
3.1441e-19
-1.36372e-18
5.48247e-19
-1.39437e-18
7.76383e-19
-1.38494e-18
9.8904e-19
-1.3369e-18
1.18258e-18
-1.25481e-18
1.35547e-18
-1.14578e-18
1.50218e-18
-1.01615e-18
1.61978e-18
-8.71547e-19
1.7096e-18
-7.17541e-19
1.77395e-18
-5.60252e-19
1.8136e-18
-4.04426e-19
1.82911e-18
-2.53217e-19
1.82318e-18
-1.09013e-19
1.79974e-18
2.59175e-20
1.76209e-18
1.49589e-19
1.7122e-18
2.60919e-19
1.65123e-18
3.6002e-19
1.58035e-18
4.4777e-19
1.50148e-18
5.25095e-19
1.41733e-18
5.92637e-19
1.33038e-18
6.50907e-19
1.24178e-18
7.00563e-19
1.15132e-18
7.42478e-19
1.05844e-18
7.77622e-19
9.6318e-19
8.06894e-19
8.66325e-19