/*--------------------------------*- C++ -*----------------------------------*\
  =========                 |
  \\      /  F ield         | OpenFOAM: The Open Source CFD Toolbox
   \\    /   O peration     | Website:  https://openfoam.org
    \\  /    A nd           | Version:  6
     \\/     M anipulation  |
\*---------------------------------------------------------------------------*/
FoamFile
{
    version     2.0;
    format      ascii;
    class       volScalarField;
    location    "250";
    object      T;
}
// * * * * * * * * * * * * * * * * * * * * * * * * * * * * * * * * * * * * * //

dimensions      [0 0 0 1 0 0 0];

internalField   nonuniform List<scalar> 
4800
(
552.488
552.364
552.242
552.12
552.001
551.885
551.771
551.661
551.554
551.45
551.349
551.252
551.156
551.063
550.971
550.88
550.791
550.702
550.614
550.527
550.44
550.354
550.268
550.182
550.097
550.014
549.932
549.852
549.773
549.696
549.62
549.546
549.474
549.403
549.335
549.268
549.203
549.139
549.075
549.012
548.949
548.885
548.82
548.753
548.684
548.611
548.535
548.456
548.374
548.288
548.198
548.104
548.007
547.907
547.805
547.701
547.596
547.492
547.387
547.282
547.179
547.075
546.973
546.87
546.768
546.665
546.561
546.457
546.352
546.246
546.139
546.031
545.922
545.812
545.701
545.589
545.476
545.362
545.248
545.133
545.018
544.903
544.787
544.671
544.555
544.439
544.323
544.208
544.092
543.977
543.862
543.748
543.633
543.519
543.405
543.292
543.178
543.065
542.952
542.839
542.727
542.614
542.502
542.39
542.278
542.166
542.054
541.942
541.831
541.719
541.607
541.496
541.385
541.273
541.162
541.051
540.939
540.828
540.717
540.606
552.488
552.364
552.241
552.12
552.001
551.885
551.772
551.662
551.556
551.452
551.352
551.255
551.16
551.066
550.975
550.885
550.796
550.707
550.62
550.532
550.446
550.359
550.274
550.188
550.104
550.021
549.939
549.858
549.779
549.702
549.626
549.552
549.48
549.409
549.34
549.274
549.208
549.144
549.08
549.017
548.954
548.889
548.824
548.756
548.686
548.613
548.536
548.457
548.374
548.288
548.199
548.105
548.009
547.909
547.808
547.704
547.6
547.495
547.39
547.286
547.182
547.079
546.976
546.874
546.771
546.668
546.565
546.46
546.355
546.249
546.142
546.034
545.925
545.815
545.704
545.593
545.48
545.366
545.251
545.135
545.019
544.903
544.787
544.671
544.555
544.439
544.323
544.208
544.092
543.977
543.862
543.748
543.633
543.519
543.405
543.292
543.178
543.065
542.952
542.839
542.727
542.614
542.502
542.39
542.278
542.166
542.054
541.942
541.83
541.719
541.607
541.496
541.385
541.273
541.162
541.051
540.939
540.828
540.717
540.606
552.488
552.363
552.24
552.12
552.001
551.886
551.773
551.664
551.558
551.456
551.357
551.26
551.165
551.073
550.982
550.892
550.804
550.716
550.629
550.543
550.456
550.37
550.285
550.2
550.116
550.033
549.952
549.871
549.792
549.714
549.638
549.564
549.491
549.42
549.352
549.284
549.219
549.154
549.09
549.026
548.962
548.897
548.831
548.761
548.69
548.616
548.538
548.458
548.375
548.288
548.199
548.106
548.01
547.912
547.811
547.708
547.604
547.5
547.395
547.291
547.188
547.085
546.982
546.879
546.777
546.673
546.57
546.465
546.36
546.253
546.146
546.037
545.928
545.818
545.707
545.595
545.482
545.368
545.253
545.136
545.019
544.903
544.787
544.671
544.555
544.439
544.323
544.207
544.092
543.977
543.862
543.747
543.633
543.519
543.405
543.291
543.178
543.065
542.952
542.839
542.726
542.614
542.501
542.389
542.277
542.165
542.054
541.942
541.83
541.719
541.607
541.496
541.384
541.273
541.162
541.051
540.939
540.828
540.717
540.606
552.488
552.363
552.24
552.12
552.002
551.887
551.775
551.667
551.562
551.461
551.362
551.267
551.173
551.081
550.991
550.902
550.815
550.728
550.642
550.556
550.471
550.386
550.301
550.217
550.133
550.051
549.969
549.889
549.81
549.732
549.655
549.581
549.508
549.437
549.368
549.301
549.235
549.17
549.105
549.041
548.976
548.909
548.84
548.769
548.696
548.62
548.541
548.46
548.375
548.288
548.198
548.106
548.011
547.913
547.813
547.712
547.609
547.505
547.401
547.298
547.195
547.092
546.989
546.886
546.783
546.68
546.576
546.471
546.365
546.258
546.151
546.042
545.932
545.821
545.709
545.596
545.483
545.368
545.252
545.136
545.02
544.903
544.787
544.671
544.554
544.438
544.322
544.207
544.091
543.976
543.861
543.746
543.632
543.518
543.404
543.29
543.177
543.064
542.951
542.838
542.726
542.613
542.501
542.389
542.277
542.165
542.053
541.942
541.83
541.719
541.607
541.496
541.384
541.273
541.162
541.05
540.939
540.828
540.717
540.606
552.488
552.363
552.241
552.12
552.003
551.888
551.778
551.671
551.567
551.467
551.37
551.275
551.182
551.091
551.002
550.915
550.828
550.742
550.657
550.572
550.488
550.404
550.32
550.237
550.154
550.072
549.991
549.911
549.832
549.754
549.678
549.603
549.53
549.46
549.391
549.323
549.257
549.191
549.126
549.06
548.993
548.924
548.854
548.781
548.705
548.626
548.545
548.462
548.375
548.287
548.196
548.104
548.009
547.913
547.814
547.714
547.613
547.51
547.407
547.304
547.201
547.099
546.996
546.894
546.79
546.687
546.582
546.477
546.371
546.264
546.156
546.047
545.936
545.824
545.711
545.596
545.481
545.366
545.25
545.136
545.02
544.904
544.787
544.671
544.554
544.438
544.322
544.206
544.09
543.975
543.86
543.745
543.631
543.517
543.403
543.29
543.176
543.063
542.95
542.838
542.725
542.613
542.5
542.388
542.276
542.165
542.053
541.941
541.83
541.718
541.607
541.495
541.384
541.273
541.162
541.05
540.939
540.828
540.717
540.606
552.488
552.364
552.242
552.122
552.005
551.891
551.782
551.676
551.574
551.475
551.379
551.285
551.194
551.104
551.016
550.929
550.843
550.759
550.674
550.59
550.507
550.424
550.342
550.26
550.178
550.097
550.017
549.937
549.858
549.781
549.704
549.63
549.557
549.487
549.418
549.35
549.284
549.217
549.15
549.083
549.014
548.943
548.87
548.794
548.716
548.634
548.55
548.464
548.376
548.286
548.194
548.101
548.007
547.911
547.813
547.714
547.614
547.513
547.412
547.31
547.208
547.106
547.004
546.901
546.798
546.694
546.59
546.485
546.379
546.272
546.163
546.054
545.943
545.83
545.716
545.6
545.484
545.368
545.253
545.138
545.021
544.905
544.788
544.671
544.554
544.437
544.321
544.205
544.089
543.974
543.859
543.744
543.63
543.516
543.402
543.288
543.175
543.062
542.949
542.837
542.724
542.612
542.5
542.388
542.276
542.164
542.052
541.941
541.829
541.718
541.606
541.495
541.384
541.273
541.161
541.05
540.939
540.828
540.717
540.606
552.488
552.365
552.243
552.124
552.008
551.895
551.787
551.682
551.581
551.484
551.389
551.297
551.207
551.118
551.032
550.946
550.861
550.777
550.694
550.611
550.529
550.447
550.366
550.285
550.204
550.124
550.045
549.966
549.888
549.81
549.735
549.661
549.588
549.518
549.449
549.382
549.314
549.247
549.178
549.109
549.038
548.965
548.889
548.81
548.728
548.643
548.556
548.467
548.377
548.285
548.192
548.098
548.003
547.907
547.811
547.713
547.614
547.514
547.414
547.314
547.213
547.112
547.01
546.908
546.806
546.702
546.598
546.493
546.387
546.28
546.171
546.062
545.951
545.838
545.724
545.609
545.493
545.377
545.26
545.142
545.024
544.906
544.788
544.671
544.553
544.437
544.32
544.204
544.088
543.973
543.857
543.743
543.628
543.514
543.401
543.287
543.174
543.061
542.948
542.836
542.723
542.611
542.499
542.387
542.275
542.163
542.052
541.94
541.829
541.717
541.606
541.495
541.384
541.272
541.161
541.05
540.939
540.828
540.717
540.606
552.488
552.366
552.245
552.127
552.012
551.901
551.793
551.69
551.59
551.494
551.401
551.31
551.221
551.135
551.049
550.965
550.881
550.799
550.716
550.634
550.553
550.472
550.392
550.312
550.232
550.153
550.074
549.997
549.919
549.843
549.768
549.694
549.623
549.553
549.484
549.416
549.348
549.279
549.21
549.138
549.065
548.989
548.91
548.827
548.742
548.654
548.563
548.471
548.378
548.283
548.189
548.093
547.998
547.902
547.806
547.709
547.611
547.513
547.415
547.316
547.217
547.117
547.017
546.916
546.814
546.711
546.608
546.503
546.397
546.29
546.181
546.071
545.96
545.847
545.733
545.618
545.502
545.384
545.266
545.146
545.026
544.908
544.789
544.671
544.553
544.436
544.319
544.203
544.087
543.971
543.856
543.741
543.627
543.513
543.399
543.285
543.172
543.059
542.947
542.834
542.722
542.61
542.498
542.386
542.274
542.163
542.051
541.94
541.828
541.717
541.606
541.494
541.383
541.272
541.161
541.05
540.939
540.828
540.717
540.606
552.489
552.368
552.248
552.131
552.017
551.907
551.801
551.699
551.601
551.506
551.415
551.326
551.239
551.153
551.069
550.986
550.904
550.822
550.741
550.66
550.579
550.499
550.42
550.341
550.262
550.184
550.106
550.029
549.953
549.878
549.803
549.73
549.659
549.589
549.521
549.452
549.383
549.314
549.243
549.169
549.094
549.014
548.932
548.846
548.757
548.665
548.571
548.476
548.379
548.283
548.186
548.089
547.993
547.896
547.8
547.703
547.607
547.511
547.414
547.317
547.219
547.121
547.022
546.923
546.823
546.722
546.619
546.515
546.41
546.302
546.193
546.083
545.97
545.857
545.742
545.626
545.509
545.39
545.27
545.15
545.029
544.909
544.79
544.671
544.553
544.435
544.318
544.201
544.085
543.969
543.854
543.739
543.625
543.511
543.397
543.284
543.171
543.058
542.945
542.833
542.721
542.609
542.497
542.385
542.273
542.162
542.05
541.939
541.828
541.716
541.605
541.494
541.383
541.272
541.161
541.05
540.939
540.828
540.717
540.606
552.49
552.37
552.252
552.136
552.023
551.915
551.81
551.71
551.614
551.521
551.431
551.343
551.258
551.174
551.091
551.009
550.928
550.847
550.767
550.687
550.607
550.528
550.449
550.371
550.293
550.216
550.139
550.063
549.988
549.914
549.84
549.768
549.697
549.627
549.558
549.489
549.42
549.349
549.276
549.201
549.123
549.041
548.955
548.865
548.772
548.677
548.579
548.48
548.381
548.282
548.183
548.085
547.987
547.89
547.793
547.697
547.602
547.507
547.412
547.317
547.221
547.125
547.029
546.932
546.834
546.734
546.633
546.53
546.425
546.318
546.209
546.098
545.984
545.869
545.752
545.634
545.515
545.395
545.274
545.153
545.032
544.912
544.792
544.672
544.553
544.435
544.317
544.2
544.083
543.967
543.852
543.737
543.623
543.509
543.395
543.282
543.169
543.056
542.944
542.831
542.719
542.607
542.496
542.384
542.272
542.161
542.05
541.938
541.827
541.716
541.605
541.494
541.382
541.271
541.16
541.049
540.938
540.827
540.716
540.605
552.491
552.372
552.256
552.142
552.031
551.924
551.822
551.723
551.629
551.538
551.45
551.364
551.28
551.197
551.115
551.034
550.954
550.874
550.795
550.716
550.637
550.558
550.481
550.403
550.326
550.249
550.174
550.098
550.024
549.95
549.877
549.806
549.735
549.666
549.596
549.527
549.456
549.384
549.31
549.233
549.152
549.068
548.979
548.885
548.788
548.689
548.588
548.486
548.384
548.282
548.181
548.081
547.982
547.884
547.787
547.691
547.597
547.503
547.41
547.317
547.224
547.131
547.037
546.943
546.847
546.75
546.651
546.549
546.445
546.338
546.229
546.117
546.002
545.885
545.765
545.644
545.522
545.401
545.279
545.158
545.037
544.915
544.794
544.673
544.553
544.434
544.316
544.198
544.081
543.965
543.85
543.735
543.62
543.506
543.393
543.28
543.167
543.054
542.942
542.83
542.718
542.606
542.494
542.383
542.271
542.16
542.049
541.937
541.826
541.715
541.604
541.493
541.382
541.271
541.16
541.049
540.938
540.827
540.716
540.605
552.491
552.375
552.26
552.148
552.04
551.935
551.835
551.739
551.646
551.557
551.47
551.386
551.303
551.222
551.141
551.061
550.982
550.903
550.824
550.746
550.668
550.59
550.513
550.436
550.359
550.283
550.208
550.133
550.06
549.987
549.914
549.843
549.773
549.703
549.633
549.562
549.491
549.417
549.342
549.263
549.181
549.093
549.001
548.905
548.804
548.701
548.597
548.492
548.386
548.282
548.178
548.076
547.976
547.878
547.781
547.686
547.593
547.501
547.411
547.32
547.23
547.14
547.05
546.959
546.866
546.771
546.674
546.574
546.471
546.364
546.254
546.142
546.026
545.907
545.787
545.664
545.54
545.416
545.291
545.167
545.043
544.92
544.797
544.675
544.554
544.434
544.315
544.197
544.08
543.963
543.847
543.732
543.618
543.504
543.39
543.277
543.164
543.052
542.94
542.828
542.716
542.604
542.493
542.381
542.27
542.159
542.048
541.937
541.825
541.714
541.603
541.493
541.382
541.271
541.16
541.049
540.938
540.827
540.716
540.605
552.493
552.378
552.266
552.157
552.051
551.948
551.85
551.756
551.665
551.578
551.493
551.41
551.329
551.248
551.169
551.09
551.011
550.933
550.855
550.777
550.7
550.622
550.545
550.469
550.393
550.318
550.243
550.168
550.095
550.022
549.95
549.878
549.808
549.737
549.666
549.595
549.523
549.448
549.371
549.291
549.206
549.117
549.022
548.923
548.819
548.713
548.605
548.497
548.389
548.282
548.176
548.073
547.972
547.874
547.778
547.684
547.593
547.503
547.415
547.328
547.241
547.155
547.069
546.981
546.892
546.8
546.705
546.606
546.504
546.397
546.287
546.173
546.055
545.935
545.813
545.688
545.563
545.436
545.307
545.179
545.052
544.926
544.802
544.678
544.556
544.435
544.315
544.196
544.078
543.961
543.845
543.73
543.615
543.501
543.388
543.275
543.162
543.05
542.938
542.826
542.714
542.603
542.491
542.38
542.269
542.158
542.047
541.936
541.825
541.714
541.603
541.492
541.381
541.27
541.159
541.049
540.938
540.827
540.716
540.605
552.494
552.382
552.273
552.166
552.062
551.963
551.867
551.775
551.686
551.601
551.518
551.436
551.356
551.277
551.198
551.12
551.042
550.964
550.887
550.809
550.732
550.655
550.578
550.502
550.426
550.351
550.276
550.202
550.128
550.055
549.983
549.911
549.84
549.768
549.697
549.624
549.551
549.475
549.396
549.315
549.229
549.137
549.04
548.938
548.832
548.724
548.613
548.502
548.392
548.283
548.176
548.072
547.972
547.874
547.779
547.687
547.598
547.511
547.426
547.342
547.26
547.178
547.096
547.012
546.927
546.837
546.744
546.647
546.545
546.439
546.327
546.212
546.092
545.969
545.844
545.716
545.587
545.457
545.325
545.194
545.064
544.935
544.808
544.683
544.559
544.436
544.315
544.195
544.077
543.959
543.843
543.727
543.613
543.499
543.385
543.272
543.159
543.047
542.935
542.824
542.712
542.601
542.49
542.378
542.267
542.156
542.046
541.935
541.824
541.713
541.602
541.491
541.381
541.27
541.159
541.048
540.938
540.827
540.716
540.605
552.495
552.387
552.28
552.176
552.075
551.979
551.886
551.796
551.709
551.625
551.544
551.464
551.385
551.306
551.228
551.151
551.073
550.996
550.919
550.841
550.764
550.687
550.611
550.535
550.459
550.383
550.308
550.234
550.16
550.086
550.013
549.941
549.868
549.796
549.723
549.649
549.574
549.496
549.416
549.333
549.245
549.153
549.054
548.951
548.843
548.733
548.621
548.508
548.397
548.287
548.18
548.076
547.976
547.879
547.786
547.696
547.61
547.526
547.445
547.365
547.287
547.21
547.133
547.053
546.97
546.883
546.792
546.695
546.593
546.486
546.374
546.257
546.135
546.009
545.88
545.749
545.616
545.481
545.347
545.212
545.078
544.947
544.817
544.689
544.563
544.439
544.316
544.195
544.076
543.958
543.841
543.725
543.61
543.496
543.382
543.269
543.157
543.045
542.933
542.821
542.71
542.599
542.488
542.377
542.266
542.155
542.044
541.934
541.823
541.712
541.601
541.491
541.38
541.269
541.159
541.048
540.937
540.827
540.716
540.605
552.497
552.392
552.288
552.187
552.089
551.995
551.905
551.818
551.733
551.651
551.571
551.492
551.414
551.337
551.259
551.182
551.105
551.027
550.95
550.873
550.796
550.719
550.642
550.565
550.489
550.413
550.338
550.263
550.188
550.114
550.04
549.966
549.892
549.818
549.743
549.667
549.59
549.511
549.429
549.344
549.255
549.161
549.061
548.957
548.849
548.739
548.627
548.515
548.403
548.294
548.188
548.085
547.986
547.891
547.8
547.713
547.63
547.551
547.474
547.399
547.326
547.255
547.181
547.105
547.024
546.938
546.847
546.751
546.649
546.542
546.429
546.31
546.186
546.057
545.924
545.788
545.65
545.511
545.372
545.233
545.096
544.961
544.828
544.697
544.569
544.442
544.318
544.196
544.075
543.956
543.839
543.723
543.608
543.493
543.38
543.267
543.154
543.042
542.931
542.819
542.708
542.597
542.486
542.375
542.265
542.154
542.043
541.933
541.822
541.711
541.601
541.49
541.38
541.269
541.158
541.048
540.937
540.827
540.716
540.605
552.499
552.397
552.297
552.199
552.105
552.013
551.926
551.841
551.758
551.678
551.599
551.521
551.444
551.367
551.29
551.213
551.135
551.058
550.98
550.903
550.825
550.748
550.67
550.593
550.517
550.44
550.364
550.288
550.212
550.136
550.061
549.985
549.909
549.833
549.756
549.677
549.597
549.516
549.433
549.346
549.256
549.161
549.061
548.957
548.85
548.741
548.631
548.52
548.41
548.303
548.198
548.097
548.001
547.909
547.822
547.739
547.66
547.585
547.514
547.445
547.379
547.313
547.244
547.17
547.091
547.006
546.916
546.819
546.717
546.609
546.494
546.373
546.247
546.115
545.978
545.838
545.695
545.549
545.404
545.26
545.119
544.98
544.842
544.708
544.577
544.448
544.321
544.197
544.076
543.956
543.838
543.721
543.605
543.491
543.377
543.264
543.152
543.04
542.928
542.817
542.706
542.595
542.484
542.374
542.263
542.153
542.042
541.932
541.821
541.711
541.6
541.49
541.379
541.269
541.158
541.047
540.937
540.826
540.716
540.605
552.501
552.402
552.306
552.211
552.12
552.032
551.947
551.864
551.783
551.705
551.627
551.55
551.473
551.397
551.319
551.242
551.164
551.086
551.008
550.93
550.852
550.773
550.695
550.617
550.539
550.462
550.384
550.306
550.229
550.152
550.074
549.997
549.918
549.839
549.759
549.678
549.595
549.511
549.426
549.337
549.246
549.151
549.052
548.95
548.846
548.739
548.632
548.524
548.418
548.314
548.213
548.115
548.022
547.935
547.852
547.774
547.701
547.633
547.569
547.508
547.448
547.389
547.325
547.254
547.176
547.092
547.002
546.905
546.803
546.693
546.576
546.452
546.321
546.185
546.043
545.897
545.747
545.596
545.444
545.294
545.147
545.002
544.86
544.721
544.586
544.454
544.326
544.2
544.077
543.956
543.837
543.719
543.603
543.488
543.375
543.261
543.149
543.037
542.926
542.815
542.704
542.593
542.483
542.372
542.262
542.151
542.041
541.931
541.82
541.71
541.599
541.489
541.379
541.268
541.158
541.047
540.937
540.826
540.716
540.605
552.502
552.408
552.315
552.224
552.136
552.051
551.968
551.887
551.808
551.731
551.654
551.578
551.501
551.425
551.347
551.269
551.19
551.112
551.032
550.953
550.874
550.794
550.715
550.635
550.556
550.476
550.397
550.318
550.238
550.159
550.079
549.999
549.918
549.836
549.753
549.668
549.582
549.495
549.407
549.318
549.226
549.131
549.035
548.936
548.835
548.734
548.631
548.528
548.427
548.328
548.232
548.14
548.052
547.97
547.894
547.823
547.758
547.699
547.643
547.591
547.541
547.49
547.431
547.362
547.286
547.203
547.113
547.016
546.912
546.799
546.679
546.55
546.415
546.273
546.125
545.972
545.814
545.655
545.494
545.335
545.18
545.027
544.879
544.736
544.597
544.462
544.331
544.203
544.078
543.956
543.836
543.718
543.602
543.486
543.372
543.259
543.147
543.035
542.923
542.812
542.702
542.591
542.481
542.37
542.26
542.15
542.04
541.929
541.819
541.709
541.599
541.488
541.378
541.268
541.157
541.047
540.937
540.826
540.716
540.605
552.504
552.414
552.324
552.237
552.152
552.069
551.989
551.91
551.833
551.757
551.68
551.604
551.527
551.45
551.371
551.292
551.212
551.132
551.051
550.97
550.889
550.807
550.726
550.644
550.563
550.481
550.4
550.318
550.237
550.155
550.073
549.99
549.906
549.821
549.735
549.647
549.558
549.469
549.379
549.289
549.198
549.106
549.013
548.919
548.824
548.728
548.632
548.536
548.441
548.349
548.26
548.175
548.095
548.021
547.953
547.892
547.837
547.787
547.743
547.702
547.664
547.621
547.567
547.501
547.426
547.345
547.255
547.157
547.05
546.934
546.809
546.675
546.533
546.383
546.226
546.063
545.895
545.725
545.552
545.382
545.216
545.055
544.9
544.751
544.608
544.47
544.336
544.207
544.081
543.957
543.836
543.717
543.6
543.485
543.37
543.257
543.144
543.033
542.921
542.81
542.7
542.589
542.479
542.369
542.259
542.149
542.039
541.928
541.818
541.708
541.598
541.488
541.378
541.267
541.157
541.047
540.936
540.826
540.716
540.605
552.506
552.42
552.334
552.25
552.168
552.088
552.01
551.933
551.856
551.78
551.704
551.627
551.549
551.47
551.39
551.309
551.227
551.145
551.062
550.978
550.895
550.811
550.727
550.642
550.558
550.474
550.39
550.306
550.222
550.138
550.053
549.968
549.882
549.795
549.706
549.616
549.526
549.436
549.346
549.257
549.169
549.081
548.993
548.905
548.817
548.729
548.641
548.553
548.468
548.384
548.305
548.23
548.16
548.096
548.038
547.988
547.944
547.908
547.876
547.848
547.822
547.789
547.739
547.675
547.602
547.521
547.431
547.332
547.223
547.102
546.971
546.83
546.678
546.518
546.349
546.173
545.991
545.805
545.617
545.432
545.254
545.082
544.919
544.765
544.618
544.477
544.342
544.211
544.083
543.959
543.837
543.717
543.599
543.483
543.368
543.255
543.142
543.03
542.919
542.808
542.698
542.588
542.477
542.367
542.257
542.147
542.037
541.928
541.817
541.707
541.597
541.487
541.377
541.267
541.157
541.046
540.936
540.826
540.715
540.605
552.509
552.426
552.344
552.264
552.184
552.107
552.03
551.954
551.878
551.802
551.724
551.646
551.566
551.484
551.402
551.318
551.234
551.148
551.062
550.975
550.888
550.8
550.713
550.625
550.538
550.451
550.364
550.277
550.191
550.105
550.019
549.933
549.847
549.759
549.67
549.581
549.492
549.404
549.317
549.231
549.147
549.065
548.984
548.904
548.825
548.747
548.669
548.592
548.517
548.446
548.378
548.314
548.256
548.204
548.158
548.12
548.09
548.067
548.049
548.034
548.02
547.995
547.949
547.885
547.813
547.732
547.643
547.542
547.429
547.304
547.166
547.016
546.854
546.681
546.498
546.304
546.103
545.896
545.687
545.483
545.287
545.103
544.933
544.774
544.625
544.483
544.346
544.214
544.085
543.96
543.837
543.717
543.599
543.482
543.367
543.253
543.14
543.028
542.917
542.806
542.696
542.586
542.476
542.366
542.256
542.146
542.036
541.927
541.817
541.707
541.597
541.487
541.377
541.267
541.156
541.046
540.936
540.826
540.715
540.605
552.511
552.432
552.354
552.276
552.2
552.124
552.049
551.973
551.896
551.819
551.739
551.658
551.575
551.49
551.403
551.316
551.227
551.137
551.046
550.955
550.864
550.772
550.68
550.589
550.498
550.408
550.318
550.23
550.143
550.057
549.972
549.888
549.803
549.719
549.635
549.551
549.468
549.385
549.303
549.223
549.145
549.071
549
548.931
548.864
548.797
548.732
548.668
548.607
548.549
548.494
548.444
548.398
548.358
548.325
548.3
548.283
548.273
548.267
548.264
548.26
548.24
548.195
548.129
548.055
547.975
547.885
547.783
547.667
547.538
547.393
547.233
547.06
546.872
546.67
546.456
546.231
545.997
545.76
545.526
545.307
545.111
544.936
544.776
544.627
544.485
544.348
544.216
544.087
543.961
543.838
543.717
543.598
543.481
543.366
543.252
543.139
543.027
542.915
542.805
542.694
542.584
542.474
542.365
542.255
542.145
542.035
541.926
541.816
541.706
541.596
541.486
541.376
541.266
541.156
541.046
540.936
540.826
540.715
540.605
552.512
552.437
552.363
552.288
552.214
552.14
552.065
551.988
551.91
551.83
551.747
551.661
551.573
551.482
551.391
551.297
551.203
551.108
551.012
550.915
550.818
550.721
550.625
550.53
550.435
550.343
550.253
550.165
550.079
549.996
549.916
549.838
549.761
549.687
549.613
549.541
549.468
549.395
549.321
549.249
549.182
549.12
549.062
549.008
548.956
548.904
548.854
548.805
548.758
548.714
548.673
548.635
548.602
548.573
548.55
548.536
548.53
548.53
548.533
548.536
548.537
548.518
548.469
548.399
548.322
548.241
548.15
548.048
547.931
547.796
547.645
547.476
547.29
547.085
546.863
546.624
546.37
546.103
545.827
545.551
545.297
545.094
544.923
544.767
544.622
544.483
544.348
544.217
544.088
543.962
543.839
543.718
543.598
543.481
543.365
543.25
543.137
543.025
542.914
542.803
542.693
542.583
542.473
542.363
542.254
542.144
542.035
541.925
541.815
541.705
541.596
541.486
541.376
541.266
541.156
541.046
540.936
540.825
540.715
540.605
552.514
552.443
552.371
552.299
552.226
552.152
552.077
551.998
551.917
551.832
551.742
551.65
551.555
551.457
551.358
551.258
551.158
551.056
550.954
550.851
550.748
550.646
550.545
550.446
550.35
550.257
550.168
550.084
550.005
549.931
549.862
549.797
549.735
549.678
549.624
549.572
549.516
549.456
549.392
549.333
549.281
549.236
549.198
549.164
549.132
549.099
549.065
549.031
548.997
548.965
548.934
548.906
548.881
548.859
548.843
548.835
548.834
548.838
548.841
548.843
548.841
548.816
548.759
548.681
548.599
548.516
548.425
548.322
548.204
548.067
547.91
547.733
547.534
547.312
547.067
546.8
546.51
546.199
545.872
545.538
545.224
545.04
544.888
544.746
544.609
544.475
544.344
544.215
544.088
543.963
543.839
543.718
543.598
543.48
543.364
543.249
543.136
543.024
542.912
542.802
542.691
542.581
542.472
542.362
542.253
542.143
542.034
541.924
541.815
541.705
541.595
541.485
541.376
541.266
541.156
541.046
540.935
540.825
540.715
540.605
552.516
552.447
552.377
552.306
552.234
552.159
552.081
551.998
551.911
551.819
551.721
551.62
551.515
551.408
551.301
551.193
551.085
550.978
550.87
550.762
550.654
550.548
550.444
550.343
550.246
550.156
550.074
550
549.935
549.878
549.829
549.786
549.749
549.718
549.694
549.67
549.636
549.59
549.54
549.497
549.467
549.449
549.441
549.437
549.432
549.419
549.4
549.376
549.351
549.324
549.297
549.27
549.245
549.223
549.206
549.195
549.191
549.187
549.178
549.166
549.154
549.117
549.045
548.956
548.867
548.781
548.689
548.587
548.469
548.33
548.17
547.986
547.776
547.537
547.268
546.968
546.639
546.28
545.892
545.476
545.007
544.943
544.834
544.713
544.589
544.463
544.338
544.212
544.087
543.963
543.84
543.718
543.598
543.48
543.364
543.249
543.135
543.023
542.911
542.8
542.69
542.58
542.471
542.361
542.252
542.142
542.033
541.924
541.814
541.704
541.595
541.485
541.375
541.265
541.155
541.045
540.935
540.825
540.715
540.605
552.516
552.448
552.379
552.307
552.232
552.154
552.071
551.982
551.886
551.784
551.676
551.563
551.446
551.328
551.211
551.096
550.983
550.873
550.763
550.654
550.546
550.439
550.334
550.235
550.142
550.06
549.992
549.939
549.899
549.869
549.85
549.839
549.835
549.84
549.855
549.866
549.853
549.82
549.782
549.762
549.765
549.788
549.826
549.863
549.892
549.903
549.896
549.873
549.845
549.812
549.777
549.738
549.7
549.666
549.637
549.612
549.591
549.562
549.518
549.473
549.448
549.402
549.306
549.198
549.101
549.01
548.916
548.814
548.697
548.56
548.4
548.214
547.996
547.741
547.446
547.11
546.739
546.333
545.897
545.436
544.953
544.876
544.781
544.676
544.564
544.448
544.328
544.207
544.085
543.962
543.84
543.718
543.598
543.48
543.363
543.248
543.134
543.022
542.91
542.799
542.689
542.579
542.47
542.36
542.251
542.142
542.032
541.923
541.814
541.704
541.595
541.485
541.375
541.265
541.155
541.045
540.935
540.825
540.715
540.605
552.516
552.446
552.373
552.297
552.216
552.129
552.037
551.939
551.833
551.719
551.598
551.471
551.341
551.212
551.086
550.966
550.853
550.747
550.645
550.546
550.447
550.348
550.25
550.158
550.076
550.01
549.968
549.953
549.954
549.962
549.983
550.013
550.046
550.091
550.15
550.191
550.189
550.158
550.13
550.138
550.19
550.27
550.376
550.465
550.537
550.576
550.58
550.543
550.503
550.45
550.394
550.322
550.256
550.194
550.141
550.085
550.023
549.945
549.826
549.721
549.691
549.666
549.515
549.381
549.266
549.178
549.069
548.975
548.854
548.724
548.574
548.398
548.183
547.92
547.594
547.206
546.783
546.327
545.855
545.369
544.899
544.81
544.725
544.634
544.536
544.43
544.317
544.201
544.082
543.961
543.839
543.719
543.599
543.48
543.363
543.248
543.134
543.021
542.909
542.798
542.688
542.578
542.469
542.36
542.25
542.141
542.032
541.923
541.813
541.704
541.594
541.485
541.375
541.265
541.155
541.045
540.935
540.825
540.715
540.605
552.513
552.436
552.356
552.269
552.175
552.075
551.969
551.858
551.74
551.614
551.479
551.339
551.196
551.056
550.925
550.806
550.701
550.612
550.537
550.467
550.398
550.326
550.251
550.179
550.117
550.08
550.089
550.153
550.211
550.257
550.33
550.402
550.469
550.549
550.643
550.695
550.69
550.632
550.593
550.63
550.748
550.891
551.096
551.234
551.353
551.44
551.482
551.414
551.368
551.288
551.212
551.075
550.953
550.85
550.766
550.654
550.51
550.35
550.095
549.892
549.865
549.969
549.647
549.508
549.324
549.29
549.106
549.066
548.89
548.777
548.667
548.541
548.357
548.116
547.744
547.27
546.781
546.233
545.729
545.232
544.791
544.716
544.658
544.589
544.506
544.411
544.306
544.194
544.078
543.959
543.839
543.718
543.599
543.48
543.363
543.247
543.133
543.02
542.909
542.798
542.687
542.578
542.468
542.359
542.25
542.141
542.032
541.922
541.813
541.704
541.594
541.484
541.375
541.265
541.155
541.045
540.935
540.825
540.715
540.605
552.507
552.418
552.323
552.218
552.104
551.982
551.858
551.731
551.601
551.463
551.317
551.165
551.012
550.867
550.737
550.626
550.541
550.487
550.463
550.454
550.449
550.442
550.427
550.404
550.381
550.395
550.506
550.778
550.879
550.93
551.084
551.184
551.276
551.391
551.484
551.503
551.522
551.378
551.257
551.311
551.511
551.649
551.999
552.142
552.314
552.509
552.72
552.553
552.563
552.465
552.453
552.182
551.965
551.803
551.724
551.497
551.196
550.904
550.423
549.897
549.938
550.029
549.621
549.374
549.155
549.057
548.908
548.894
548.734
548.656
548.649
548.708
548.617
548.402
547.891
547.582
547.056
545.958
545.508
545.17
544.56
544.58
544.584
544.545
544.478
544.393
544.295
544.188
544.075
543.958
543.838
543.718
543.599
543.48
543.363
543.247
543.133
543.02
542.908
542.797
542.687
542.577
542.468
542.359
542.25
542.14
542.031
541.922
541.813
541.703
541.594
541.484
541.375
541.265
541.155
541.045
540.935
540.825
540.715
540.605
552.498
552.391
552.276
552.151
552.021
551.87
551.721
551.577
551.436
551.289
551.133
550.97
550.812
550.675
550.561
550.456
550.393
550.386
550.432
550.506
550.611
550.749
550.897
550.993
551.043
551.146
551.423
552.365
552.275
552.267
552.662
552.71
552.889
553.128
553.005
552.838
552.498
552.198
551.896
551.869
551.814
551.774
552.036
552.14
552.473
552.902
553.428
553.392
553.46
553.274
553.42
553.301
553.096
552.661
552.56
551.888
551.586
551.246
550.972
550.266
550.239
550.009
549.499
549.175
548.657
548.734
548.191
548.398
548.424
548.26
547.958
548.697
549.246
547.934
546.476
547.81
547.508
544.531
544.545
545.081
544.324
544.509
544.537
544.513
544.457
544.38
544.287
544.183
544.072
543.956
543.838
543.718
543.599
543.48
543.363
543.247
543.133
543.02
542.908
542.797
542.687
542.577
542.468
542.358
542.249
542.14
542.031
541.922
541.813
541.703
541.594
541.484
541.375