0.010101 	3.20218e-15 	-3.3742e-18 	3.23312e-17
0.020202 	1.18591e-16 	-3.00773e-19 	1.742e-18
