0 	-13.5629
0.010101 	-8.35838
0.020202 	-8.35838
0.030303 	-5.64813
0.040404 	-8.08932
