/*--------------------------------*- C++ -*----------------------------------*\
  =========                 |
  \\      /  F ield         | OpenFOAM: The Open Source CFD Toolbox
   \\    /   O peration     | Website:  https://openfoam.org
    \\  /    A nd           | Version:  6
     \\/     M anipulation  |
\*---------------------------------------------------------------------------*/
FoamFile
{
    version     2.0;
    format      ascii;
    class       volScalarField;
    location    "5400";
    object      dmdt;
}
// * * * * * * * * * * * * * * * * * * * * * * * * * * * * * * * * * * * * * //

dimensions      [0 0 0 0 0 0 0];

internalField   nonuniform List<scalar> 
4800
(
-0.219291
-0.216691
-0.214091
-0.211489
-0.208885
-0.20628
-0.203672
-0.201061
-0.198447
-0.195829
-0.193207
-0.19058
-0.187949
-0.185313
-0.182671
-0.180024
-0.177372
-0.174713
-0.172049
-0.169378
-0.166701
-0.164018
-0.161329
-0.158634
-0.155933
-0.153226
-0.150514
-0.147795
-0.145071
-0.142342
-0.139607
-0.136867
-0.134123
-0.131373
-0.128619
-0.12586
-0.123097
-0.120329
-0.117557
-0.114781
-0.112001
-0.109216
-0.106427
-0.103633
-0.100835
-0.0980332
-0.0952263
-0.0924149
-0.0895987
-0.0867777
-0.0839518
-0.081121
-0.0782851
-0.0754442
-0.0725981
-0.0697469
-0.0668906
-0.0640291
-0.0611626
-0.058291
-0.0554145
-0.0525332
-0.0496472
-0.0467566
-0.0438618
-0.0409627
-0.0380597
-0.035153
-0.0322429
-0.0293297
-0.0264135
-0.0234948
-0.0205738
-0.0176508
-0.0147263
-0.0118004
-0.00887349
-0.00594595
-0.00301809
-5.53173e-05
0.00273704
0.00556343
0.00838835
0.0112112
0.0140315
0.0168486
0.0196621
0.0224714
0.0252761
0.0280757
0.0308698
0.0336579
0.0364399
0.0392152
0.0419837
0.044745
0.047499
0.0502455
0.0529844
0.0557156
0.0584391
0.0611548
0.0638629
0.0665634
0.0692565
0.0719423
0.0746211
0.0772932
0.0799589
0.0826185
0.0852724
0.0879212
0.0905651
0.0932048
0.0958406
0.0984733
0.101103
0.103731
0.106358
0.108983
-0.219291
-0.216691
-0.214091
-0.211489
-0.208886
-0.20628
-0.203672
-0.201062
-0.198447
-0.195829
-0.193207
-0.190581
-0.18795
-0.185314
-0.182672
-0.180025
-0.177373
-0.174714
-0.17205
-0.169379
-0.166703
-0.16402
-0.161331
-0.158637
-0.155936
-0.153229
-0.150517
-0.147798
-0.145075
-0.142346
-0.139611
-0.136872
-0.134128
-0.131379
-0.128625
-0.125867
-0.123104
-0.120337
-0.117565
-0.11479
-0.112009
-0.109225
-0.106436
-0.103643
-0.100846
-0.0980437
-0.0952371
-0.0924258
-0.0896098
-0.0867888
-0.083963
-0.0811321
-0.0782962
-0.0754551
-0.0726089
-0.0697574
-0.0669008
-0.064039
-0.0611721
-0.0583002
-0.0554232
-0.0525415
-0.049655
-0.0467639
-0.0438685
-0.040969
-0.0380655
-0.0351583
-0.0322477
-0.029334
-0.0264173
-0.0234981
-0.0205767
-0.0176533
-0.0147283
-0.011802
-0.00887474
-0.00594683
-0.0030186
-5.5497e-05
0.002737
0.00556348
0.00838848
0.0112114
0.0140318
0.016849
0.0196625
0.0224718
0.0252766
0.0280762
0.0308703
0.0336585
0.0364405
0.0392158
0.0419843
0.0447457
0.0474997
0.0502462
0.0529852
0.0557164
0.0584398
0.0611555
0.0638636
0.0665641
0.0692571
0.0719429
0.0746217
0.0772938
0.0799594
0.082619
0.0852729
0.0879216
0.0905655
0.0932051
0.0958409
0.0984735
0.101103
0.103731
0.106358
0.108983
-0.219291
-0.216691
-0.214091
-0.211489
-0.208886
-0.20628
-0.203672
-0.201062
-0.198447
-0.19583
-0.193208
-0.190581
-0.18795
-0.185314
-0.182673
-0.180026
-0.177374
-0.174716
-0.172051
-0.169381
-0.166705
-0.164023
-0.161334
-0.15864
-0.15594
-0.153234
-0.150522
-0.147805
-0.145082
-0.142353
-0.13962
-0.136882
-0.134138
-0.13139
-0.128638
-0.12588
-0.123119
-0.120352
-0.117582
-0.114807
-0.112028
-0.109245
-0.106457
-0.103664
-0.100867
-0.098066
-0.0952598
-0.0924489
-0.0896331
-0.0868123
-0.0839865
-0.0811555
-0.0783194
-0.075478
-0.0726313
-0.0697793
-0.0669221
-0.0640596
-0.0611919
-0.0583191
-0.0554412
-0.0525585
-0.049671
-0.0467789
-0.0438825
-0.0409818
-0.0380773
-0.035169
-0.0322574
-0.0293426
-0.026425
-0.0235049
-0.0205825
-0.0176583
-0.0147324
-0.0118054
-0.00887732
-0.00594866
-0.00301972
-5.58266e-05
0.00273668
0.00556323
0.00838829
0.0112113
0.0140317
0.0168489
0.0196625
0.0224718
0.0252766
0.0280762
0.0308703
0.0336585
0.0364405
0.0392159
0.0419843
0.0447457
0.0474997
0.0502463
0.0529852
0.0557164
0.0584399
0.0611556
0.0638637
0.0665642
0.0692572
0.071943
0.0746218
0.0772939
0.0799595
0.0826191
0.085273
0.0879217
0.0905656
0.0932052
0.095841
0.0984736
0.101103
0.103731
0.106358
0.108983
-0.219291
-0.216691
-0.214091
-0.211489
-0.208886
-0.20628
-0.203672
-0.201062
-0.198447
-0.19583
-0.193208
-0.190582
-0.187951
-0.185315
-0.182674
-0.180027
-0.177375
-0.174717
-0.172053
-0.169384
-0.166708
-0.164026
-0.161339
-0.158645
-0.155946
-0.153241
-0.15053
-0.147814
-0.145092
-0.142365
-0.139633
-0.136896
-0.134154
-0.131408
-0.128657
-0.125901
-0.123141
-0.120376
-0.117607
-0.114834
-0.112056
-0.109274
-0.106487
-0.103696
-0.1009
-0.0980995
-0.095294
-0.0924836
-0.0896682
-0.0868476
-0.0840218
-0.0811906
-0.0783541
-0.0755122
-0.0726649
-0.0698121
-0.0669539
-0.0640903
-0.0612213
-0.0583472
-0.0554679
-0.0525837
-0.0496947
-0.046801
-0.0439029
-0.0410007
-0.0380946
-0.0351847
-0.0322716
-0.0293553
-0.0264362
-0.0235147
-0.020591
-0.0176655
-0.0147384
-0.0118102
-0.00888102
-0.00595131
-0.00302133
-5.62991e-05
0.00273617
0.00556281
0.00838794
0.011211
0.0140314
0.0168487
0.0196622
0.0224716
0.0252764
0.028076
0.0308701
0.0336583
0.0364402
0.0392156
0.0419841
0.0447454
0.0474994
0.050246
0.0529849
0.0557161
0.0584396
0.0611553
0.0638634
0.0665639
0.069257
0.0719428
0.0746216
0.0772937
0.0799594
0.082619
0.0852729
0.0879216
0.0905655
0.0932051
0.0958409
0.0984735
0.101103
0.103731
0.106358
0.108983
-0.219291
-0.216691
-0.214091
-0.211489
-0.208885
-0.20628
-0.203672
-0.201061
-0.198447
-0.195829
-0.193208
-0.190582
-0.187951
-0.185315
-0.182674
-0.180028
-0.177376
-0.174719
-0.172056
-0.169387
-0.166712
-0.164031
-0.161345
-0.158652
-0.155954
-0.15325
-0.150541
-0.147826
-0.145106
-0.142381
-0.13965
-0.136915
-0.134176
-0.131431
-0.128682
-0.125928
-0.12317
-0.120408
-0.117641
-0.114869
-0.112094
-0.109313
-0.106528
-0.103738
-0.100944
-0.0981441
-0.0953395
-0.0925298
-0.0897147
-0.0868943
-0.0840685
-0.0812371
-0.0784001
-0.0755574
-0.0727091
-0.0698552
-0.0669956
-0.0641305
-0.0612599
-0.0583839
-0.0555027
-0.0526165
-0.0497254
-0.0468296
-0.0439294
-0.041025
-0.0381168
-0.0352048
-0.0322896
-0.0293714
-0.0264504
-0.023527
-0.0206016
-0.0176745
-0.0147459
-0.0118161
-0.00888561
-0.00595457
-0.00302332
-5.68815e-05
0.00273554
0.00556229
0.00838749
0.0112106
0.0140311
0.0168483
0.0196619
0.0224713
0.025276
0.0280756
0.0308696
0.0336578
0.0364397
0.039215
0.0419835
0.0447448
0.0474988
0.0502454
0.0529843
0.0557155
0.058439
0.0611548
0.0638629
0.0665634
0.0692565
0.0719424
0.0746212
0.0772933
0.079959
0.0826187
0.0852726
0.0879214
0.0905653
0.0932049
0.0958408
0.0984734
0.101103
0.103731
0.106358
0.108983
-0.219291
-0.216691
-0.21409
-0.211488
-0.208885
-0.20628
-0.203672
-0.201061
-0.198447
-0.195829
-0.193208
-0.190582
-0.187951
-0.185316
-0.182675
-0.180029
-0.177378
-0.174721
-0.172059
-0.169391
-0.166717
-0.164037
-0.161352
-0.158661
-0.155964
-0.153262
-0.150554
-0.147841
-0.145123
-0.1424
-0.139672
-0.13694
-0.134202
-0.13146
-0.128714
-0.125963
-0.123207
-0.120447
-0.117683
-0.114914
-0.11214
-0.109362
-0.106579
-0.103791
-0.100998
-0.0981995
-0.0953959
-0.0925869
-0.0897723
-0.0869521
-0.0841261
-0.0812942
-0.0784565
-0.0756129
-0.0727633
-0.0699078
-0.0670465
-0.0641794
-0.0613067
-0.0584284
-0.0555448
-0.052656
-0.0497623
-0.0468639
-0.043961
-0.041054
-0.038143
-0.0352285
-0.0323108
-0.0293901
-0.0264669
-0.0235413
-0.0206138
-0.0176847
-0.0147543
-0.0118229
-0.00889076
-0.00595821
-0.00302552
-5.75329e-05
0.00273488
0.00556174
0.00838703
0.0112102
0.0140307
0.016848
0.0196615
0.0224708
0.0252755
0.028075
0.030869
0.0336571
0.036439
0.0392142
0.0419826
0.0447439
0.0474979
0.0502444
0.0529834
0.0557146
0.0584381
0.0611539
0.063862
0.0665626
0.0692558
0.0719417
0.0746206
0.0772928
0.0799585
0.0826182
0.0852722
0.087921
0.090565
0.0932046
0.0958405
0.0984732
0.101103
0.103731
0.106357
0.108983
-0.219291
-0.216691
-0.21409
-0.211488
-0.208885
-0.206279
-0.203671
-0.20106
-0.198446
-0.195829
-0.193207
-0.190581
-0.187951
-0.185316
-0.182676
-0.180031
-0.17738
-0.174724
-0.172063
-0.169395
-0.166723
-0.164044
-0.16136
-0.158671
-0.155976
-0.153276
-0.15057
-0.14786
-0.145144
-0.142424
-0.139699
-0.136969
-0.134235
-0.131496
-0.128752
-0.126004
-0.123252
-0.120495
-0.117733
-0.114967
-0.112196
-0.10942
-0.10664
-0.103853
-0.101062
-0.0982653
-0.0954628
-0.0926545
-0.0898404
-0.0870202
-0.0841939
-0.0813614
-0.0785227
-0.0756777
-0.0728265
-0.0699691
-0.0671056
-0.0642361
-0.0613607
-0.0584797
-0.0555931
-0.0527012
-0.0498044
-0.0469027
-0.0439966
-0.0410864
-0.0381723
-0.0352548
-0.0323341
-0.0294107
-0.0264847
-0.0235567
-0.0206269
-0.0176956
-0.0147632
-0.0118299
-0.00889605
-0.0059619
-0.0030277
-5.81925e-05
0.0027343
0.00556128
0.00838666
0.0112099
0.0140304
0.0168476
0.0196612
0.0224704
0.025275
0.0280745
0.0308684
0.0336564
0.0364381
0.0392133
0.0419816
0.0447429
0.0474968
0.0502433
0.0529822
0.0557134
0.0584369
0.0611528
0.0638609
0.0665616
0.0692548
0.0719407
0.0746197
0.0772919
0.0799578
0.0826175
0.0852716
0.0879204
0.0905645
0.0932042
0.0958402
0.0984729
0.101103
0.103731
0.106357
0.108983
-0.219291
-0.216691
-0.21409
-0.211488
-0.208884
-0.206278
-0.20367
-0.20106
-0.198446
-0.195828
-0.193207
-0.190581
-0.187951
-0.185317
-0.182677
-0.180032
-0.177383
-0.174727
-0.172067
-0.169401
-0.166729
-0.164053
-0.16137
-0.158683
-0.15599
-0.153292
-0.15059
-0.147882
-0.145169
-0.142452
-0.13973
-0.137004
-0.134273
-0.131537
-0.128797
-0.126053
-0.123304
-0.12055
-0.117792
-0.115029
-0.112261
-0.109488
-0.10671
-0.103926
-0.101136
-0.0983408
-0.0955394
-0.0927319
-0.089918
-0.0870978
-0.084271
-0.0814376
-0.0785975
-0.0757509
-0.0728977
-0.0700379
-0.0671717
-0.0642993
-0.0614207
-0.0585363
-0.0556462
-0.0527507
-0.0498501
-0.0469448
-0.044035
-0.0411211
-0.0382034
-0.0352824
-0.0323584
-0.0294318
-0.0265029
-0.0235721
-0.0206398
-0.0177062
-0.0147717
-0.0118365
-0.00890097
-0.00596526
-0.00302962
-5.87852e-05
0.00273393
0.00556106
0.00838654
0.0112098
0.0140303
0.0168475
0.019661
0.0224702
0.0252746
0.028074
0.0308678
0.0336556
0.0364372
0.0392123
0.0419805
0.0447416
0.0474955
0.0502419
0.0529808
0.055712
0.0584355
0.0611514
0.0638596
0.0665603
0.0692535
0.0719396
0.0746186
0.0772909
0.0799568
0.0826167
0.0852708
0.0879198
0.0905639
0.0932037
0.0958398
0.0984726
0.101103
0.103731
0.106357
0.108983
-0.219291
-0.21669
-0.214089
-0.211487
-0.208883
-0.206277
-0.203669
-0.201059
-0.198445
-0.195827
-0.193206
-0.190581
-0.187951
-0.185317
-0.182678
-0.180034
-0.177385
-0.174731
-0.172072
-0.169407
-0.166737
-0.164062
-0.161382
-0.158697
-0.156007
-0.153312
-0.150612
-0.147907
-0.145198
-0.142484
-0.139766
-0.137043
-0.134316
-0.131585
-0.128849
-0.126108
-0.123363
-0.120613
-0.117859
-0.115099
-0.112335
-0.109564
-0.106789
-0.104007
-0.101219
-0.0984255
-0.0956251
-0.0928182
-0.0900044
-0.0871838
-0.0843562
-0.0815215
-0.0786798
-0.0758311
-0.0729753
-0.0701127
-0.0672433
-0.0643674
-0.0614851
-0.0585968
-0.0557026
-0.0528029
-0.0498981
-0.0469884
-0.0440744
-0.0411564
-0.0382347
-0.0353098
-0.0323822
-0.0294522
-0.0265201
-0.0235864
-0.0206515
-0.0177156
-0.014779
-0.0118421
-0.00890493
-0.00596784
-0.00303097
-5.92262e-05
0.00273393
0.00556122
0.0083868
0.0112101
0.0140306
0.0168478
0.0196612
0.0224702
0.0252745
0.0280737
0.0308673
0.0336549
0.0364364
0.0392112
0.0419793
0.0447403
0.0474941
0.0502404
0.0529792
0.0557104
0.0584339
0.0611498
0.063858
0.0665588
0.0692521
0.0719382
0.0746173
0.0772897
0.0799557
0.0826157
0.0852699
0.087919
0.0905632
0.0932031
0.0958393
0.0984722
0.101102
0.103731
0.106357
0.108983
-0.219291
-0.21669
-0.214089
-0.211486
-0.208882
-0.206276
-0.203668
-0.201057
-0.198444
-0.195826
-0.193205
-0.19058
-0.187951
-0.185318
-0.182679
-0.180036
-0.177388
-0.174735
-0.172077
-0.169414
-0.166746
-0.164074
-0.161396
-0.158713
-0.156026
-0.153334
-0.150637
-0.147936
-0.145231
-0.142521
-0.139807
-0.137088
-0.134366
-0.131638
-0.128907
-0.126171
-0.12343
-0.120684
-0.117933
-0.115177
-0.112416
-0.109649
-0.106876
-0.104097
-0.101311
-0.0985183
-0.0957188
-0.0929123
-0.0900984
-0.0872771
-0.0844482
-0.0816119
-0.078768
-0.0759166
-0.0730578
-0.0701917
-0.0673186
-0.0644386
-0.061552
-0.0586591
-0.0557603
-0.0528559
-0.0499462
-0.0470318
-0.0441131
-0.0411905
-0.0382644
-0.0353354
-0.0324038
-0.0294702
-0.0265349
-0.0235983
-0.0206607
-0.0177226
-0.0147842
-0.0118456
-0.00890722
-0.00596911
-0.0030314
-5.94187e-05
0.00273448
0.00556195
0.00838765
0.011211
0.0140315
0.0168486
0.0196618
0.0224707
0.0252748
0.0280737
0.030867
0.0336545
0.0364356
0.0392103
0.0419782
0.044739
0.0474926
0.0502388
0.0529775
0.0557087
0.0584322
0.061148
0.0638563
0.0665571
0.0692504
0.0719366
0.0746159
0.0772884
0.0799545
0.0826145
0.0852689
0.087918
0.0905624
0.0932024
0.0958387
0.0984717
0.101102
0.10373
0.106357
0.108983
-0.219291
-0.21669
-0.214088
-0.211485
-0.208881
-0.206275
-0.203667
-0.201056
-0.198442
-0.195825
-0.193204
-0.19058
-0.187951
-0.185318
-0.18268
-0.180038
-0.177392
-0.17474
-0.172084
-0.169423
-0.166757
-0.164086
-0.161411
-0.158732
-0.156048
-0.153359
-0.150666
-0.147969
-0.145268
-0.142562
-0.139853
-0.137139
-0.134421
-0.131698
-0.128971
-0.126239
-0.123503
-0.120762
-0.118015
-0.115263
-0.112505
-0.109741
-0.106971
-0.104194
-0.10141
-0.0986183
-0.0958194
-0.0930128
-0.0901984
-0.0873759
-0.0845454
-0.0817069
-0.0788602
-0.0760056
-0.0731431
-0.070273
-0.0673955
-0.0645107
-0.0616192
-0.0587212
-0.0558171
-0.0529074
-0.0499924
-0.0470728
-0.0441489
-0.0412213
-0.0382906
-0.0353571
-0.0324215
-0.0294841
-0.0265455
-0.023606
-0.0206661
-0.0177259
-0.0147859
-0.0118463
-0.00890708
-0.00596847
-0.00303051
-5.92416e-05
0.00273576
0.00556346
0.00838929
0.0112127
0.0140332
0.0168501
0.0196632
0.0224718
0.0252756
0.0280742
0.0308672
0.0336543
0.0364352
0.0392095
0.0419771
0.0447377
0.0474911
0.0502372
0.0529758
0.0557068
0.0584303
0.0611461
0.0638544
0.0665552
0.0692487
0.0719349
0.0746142
0.0772868
0.0799531
0.0826132
0.0852677
0.087917
0.0905615
0.0932016
0.095838
0.0984712
0.101102
0.10373
0.106357
0.108983
-0.21929
-0.216689
-0.214087
-0.211484
-0.20888
-0.206274
-0.203665
-0.201055
-0.198441
-0.195824
-0.193203
-0.190579
-0.187951
-0.185318
-0.182682
-0.180041
-0.177395
-0.174745
-0.172091
-0.169432
-0.166768
-0.164101
-0.161429
-0.158752
-0.156072
-0.153387
-0.150699
-0.148006
-0.145309
-0.142608
-0.139903
-0.137194
-0.134481
-0.131763
-0.129041
-0.126315
-0.123583
-0.120846
-0.118104
-0.115355
-0.112601
-0.10984
-0.107072
-0.104297
-0.101515
-0.098724
-0.0959254
-0.0931184
-0.0903028
-0.0874787
-0.0846458
-0.0818044
-0.0789543
-0.0760958
-0.0732289
-0.070354
-0.0674714
-0.0645813
-0.0616842
-0.0587804
-0.0558705
-0.0529549
-0.0500341
-0.0471088
-0.0441794
-0.0412466
-0.0383108
-0.0353728
-0.0324329
-0.0294919
-0.02655
-0.0236079
-0.0206658
-0.0177241
-0.0147831
-0.0118429
-0.00890359
-0.00596526
-0.00302786
-5.855e-05
0.00273801
0.00556597
0.00839196
0.0112154
0.0140358
0.0168526
0.0196654
0.0224737
0.0252772
0.0280754
0.0308679
0.0336546
0.0364351
0.0392091
0.0419763
0.0447366
0.0474897
0.0502356
0.052974
0.0557049
0.0584283
0.0611441
0.0638524
0.0665532
0.0692467
0.0719331
0.0746125
0.0772852
0.0799515
0.0826118
0.0852665
0.0879159
0.0905605
0.0932008
0.0958373
0.0984706
0.101101
0.10373
0.106357
0.108983
-0.21929
-0.216689
-0.214086
-0.211483
-0.208878
-0.206272
-0.203664
-0.201053
-0.198439
-0.195822
-0.193202
-0.190578
-0.18795
-0.185319
-0.182683
-0.180043
-0.177399
-0.174751
-0.172099
-0.169442
-0.166781
-0.164117
-0.161448
-0.158775
-0.156099
-0.153418
-0.150734
-0.148046
-0.145354
-0.142659
-0.139959
-0.137255
-0.134547
-0.131834
-0.129117
-0.126396
-0.123669
-0.120936
-0.118198
-0.115454
-0.112703
-0.109945
-0.107179
-0.104406
-0.101624
-0.0988341
-0.0960351
-0.093227
-0.0904097
-0.0875831
-0.0847472
-0.0819021
-0.0790478
-0.0761845
-0.0733125
-0.0704321
-0.0675436
-0.0646474
-0.061744
-0.0588339
-0.0559175
-0.0529956
-0.0500686
-0.0471371
-0.0442019
-0.0412635
-0.0383227
-0.0353799
-0.0324359
-0.0294913
-0.0265464
-0.023602
-0.0206582
-0.0177155
-0.0147742
-0.0118342
-0.00889576
-0.00595872
-0.00302298
-5.71817e-05
0.00274146
0.00556974
0.00839593
0.0112194
0.0140397
0.0168564
0.0196688
0.0224767
0.0252797
0.0280774
0.0308694
0.0336556
0.0364355
0.039209
0.0419758
0.0447357
0.0474885
0.0502341
0.0529723
0.055703
0.0584263
0.061142
0.0638503
0.0665511
0.0692447
0.0719311
0.0746106
0.0772834
0.0799499
0.0826103
0.0852651
0.0879146
0.0905594
0.0931999
0.0958365
0.0984699
0.101101
0.103729
0.106356
0.108983
-0.21929
-0.216688
-0.214085
-0.211482
-0.208877
-0.20627
-0.203662
-0.201051
-0.198437
-0.19582
-0.1932
-0.190577
-0.18795
-0.185319
-0.182685
-0.180046
-0.177404
-0.174758
-0.172108
-0.169454
-0.166796
-0.164135
-0.161469
-0.158801
-0.156129
-0.153453
-0.150774
-0.148091
-0.145404
-0.142713
-0.140019
-0.13732
-0.134618
-0.13191
-0.129199
-0.126482
-0.12376
-0.121032
-0.118298
-0.115557
-0.11281
-0.110054
-0.107291
-0.104519
-0.101737
-0.0989468
-0.0961467
-0.0933367
-0.0905168
-0.0876869
-0.084847
-0.0819972
-0.0791378
-0.0762689
-0.0733908
-0.070504
-0.0676088
-0.0647058
-0.0617955
-0.0588783
-0.055955
-0.0530262
-0.0500925
-0.0471547
-0.0442134
-0.0412694
-0.0383233
-0.0353759
-0.0324279
-0.0294799
-0.0265324
-0.0235861
-0.0206413
-0.0176984
-0.0147576
-0.011819
-0.00888252
-0.00594805
-0.00301532
-5.49474e-05
0.00274637
0.00557505
0.00840148
0.0112251
0.0140452
0.0168616
0.0196736
0.022481
0.0252834
0.0280804
0.0308718
0.0336573
0.0364366
0.0392094
0.0419757
0.0447351
0.0474875
0.0502327
0.0529707
0.0557012
0.0584243
0.0611399
0.0638482
0.066549
0.0692426
0.0719291
0.0746087
0.0772816
0.0799482
0.0826087
0.0852637
0.0879134
0.0905583
0.0931989
0.0958357
0.0984693
0.1011
0.103729
0.106356
0.108982
-0.21929
-0.216687
-0.214084
-0.21148
-0.208875
-0.206268
-0.203659
-0.201048
-0.198434
-0.195818
-0.193198
-0.190576
-0.187949
-0.18532
-0.182686
-0.18005
-0.177409
-0.174765
-0.172117
-0.169466
-0.166812
-0.164154
-0.161493
-0.158829
-0.156162
-0.153491
-0.150816
-0.148139
-0.145457
-0.142772
-0.140083
-0.13739
-0.134693
-0.131991
-0.129285
-0.126573
-0.123856
-0.121132
-0.118402
-0.115665
-0.11292
-0.110167
-0.107405
-0.104633
-0.101852
-0.0990602
-0.096258
-0.0934452
-0.0906216
-0.0877872
-0.0849422
-0.0820868
-0.0792211
-0.0763455
-0.0734604
-0.0705663
-0.0676636
-0.064753
-0.061835
-0.0589102
-0.0559795
-0.0530434
-0.0501027
-0.0471582
-0.0442107
-0.0412609
-0.0383097
-0.0353578
-0.032406
-0.0294551
-0.0265055
-0.023558
-0.020613
-0.0176709
-0.0147317
-0.0117957
-0.00886269
-0.00593236
-0.00300432
-5.16486e-05
0.00275302
0.00558222
0.00840895
0.0112326
0.0140526
0.0168686
0.0196802
0.0224869
0.0252885
0.0280847
0.0308753
0.0336599
0.0364384
0.0392105
0.0419761
0.0447349
0.0474868
0.0502316
0.0529692
0.0556994
0.0584223
0.0611379
0.063846
0.0665468
0.0692404
0.071927
0.0746066
0.0772797
0.0799464
0.0826071
0.0852622
0.087912
0.0905571
0.0931978
0.0958348
0.0984685
0.1011
0.103729
0.106356
0.108982
-0.219289
-0.216686
-0.214083
-0.211478
-0.208873
-0.206265
-0.203656
-0.201045
-0.198432
-0.195815
-0.193196
-0.190574
-0.187949
-0.18532
-0.182688
-0.180053
-0.177415
-0.174773
-0.172128
-0.16948
-0.16683
-0.164176
-0.161519
-0.15886
-0.156197
-0.153532
-0.150863
-0.14819
-0.145514
-0.142835
-0.140151
-0.137464
-0.134772
-0.132076
-0.129374
-0.126668
-0.123955
-0.121236
-0.11851
-0.115776
-0.113034
-0.110282
-0.107521
-0.104749
-0.101966
-0.0991721
-0.0963667
-0.0935498
-0.0907212
-0.0878812
-0.0850298
-0.0821674
-0.0792942
-0.0764108
-0.0735176
-0.0706151
-0.067704
-0.0647849
-0.0618586
-0.0589257
-0.055987
-0.0530433
-0.0500954
-0.0471441
-0.0441904
-0.041235
-0.0382788
-0.0353227
-0.0323675
-0.0294141
-0.0264632
-0.0235153
-0.020571
-0.0176308
-0.0146947
-0.0117629
-0.00883499
-0.00591069
-0.00298936
-4.70574e-05
0.00276172
0.0055916
0.00841871
0.0112425
0.0140623
0.0168778
0.0196887
0.0224946
0.0252953
0.0280905
0.03088
0.0336636
0.0364411
0.0392124
0.0419771
0.0447352
0.0474865
0.0502307
0.0529679
0.0556978
0.0584205
0.0611358
0.0638438
0.0665446
0.0692382
0.0719248
0.0746046
0.0772777
0.0799445
0.0826054
0.0852606
0.0879106
0.0905558
0.0931968
0.0958339
0.0984678
0.101099
0.103728
0.106356
0.108982
-0.219289
-0.216685
-0.214081
-0.211476
-0.20887
-0.206263
-0.203653
-0.201042
-0.198429
-0.195813
-0.193194
-0.190572
-0.187948
-0.18532
-0.18269
-0.180057
-0.17742
-0.174781
-0.17214
-0.169496
-0.166849
-0.1642
-0.161548
-0.158893
-0.156236
-0.153576
-0.150912
-0.148245
-0.145575
-0.142901
-0.140222
-0.13754
-0.134854
-0.132163
-0.129467
-0.126765
-0.124057
-0.121343
-0.11862
-0.115889
-0.113149
-0.110398
-0.107636
-0.104863
-0.102078
-0.0992803
-0.0964703
-0.0936477
-0.0908127
-0.0879655
-0.0851062
-0.0822354
-0.0793534
-0.0764608
-0.0735582
-0.0706464
-0.0677259
-0.0647976
-0.0618622
-0.0589206
-0.0559736
-0.053022
-0.0500668
-0.0471087
-0.0441488
-0.041188
-0.0382272
-0.0352674
-0.0323094
-0.0293542
-0.0264026
-0.0234554
-0.0205131
-0.0175761
-0.0146447
-0.0117188
-0.00879808
-0.00588202
-0.00296978
-4.09164e-05
0.00277283
0.00560357
0.00843118
0.011255
0.0140746
0.0168896
0.0196996
0.0225045
0.025304
0.0280979
0.0308862
0.0336685
0.0364449
0.039215
0.0419788
0.044736
0.0474865
0.0502302
0.0529668
0.0556964
0.0584187
0.0611338
0.0638417
0.0665424
0.069236
0.0719226
0.0746025
0.0772757
0.0799427
0.0826036
0.085259
0.0879092
0.0905546
0.0931957
0.095833
0.098467
0.101098
0.103728
0.106355
0.108982
-0.219289
-0.216684
-0.21408
-0.211474
-0.208867
-0.206259
-0.20365
-0.201038
-0.198425
-0.195809
-0.193191
-0.19057
-0.187947
-0.185321
-0.182692
-0.180061
-0.177427
-0.174791
-0.172153
-0.169512
-0.16687
-0.164225
-0.161578
-0.158929
-0.156277
-0.153622
-0.150964
-0.148302
-0.145637
-0.142968
-0.140295
-0.137619
-0.134937
-0.132252
-0.129561
-0.126864
-0.124161
-0.121451
-0.118731
-0.116003
-0.113263
-0.110513
-0.10775
-0.104974
-0.102185
-0.0993821
-0.0965658
-0.093736
-0.0908928
-0.0880366
-0.0851678
-0.0822869
-0.0793946
-0.0764915
-0.0735783
-0.0706559
-0.0677251
-0.0647868
-0.0618417
-0.0588909
-0.0559353
-0.0529757
-0.0500131
-0.0470484
-0.0440826
-0.0411167
-0.0381517
-0.0351887
-0.0322286
-0.0292725
-0.0263213
-0.0233758
-0.0204368
-0.0175046
-0.0145796
-0.0116617
-0.00875051
-0.00584524
-0.00294485
-3.29397e-05
0.00278672
0.00561858
0.00844682
0.0112708
0.0140901
0.0169043
0.0197132
0.0225168
0.0253148
0.0281072
0.0308939
0.0336748
0.0364497
0.0392186
0.0419812
0.0447374
0.0474871
0.05023
0.052966
0.0556951
0.0584171
0.061132
0.0638397
0.0665403
0.0692339
0.0719205
0.0746004
0.0772737
0.0799408
0.0826019
0.0852574
0.0879077
0.0905533
0.0931945
0.095832
0.0984663
0.101098
0.103727
0.106355
0.108982
-0.219288
-0.216683
-0.214078
-0.211471
-0.208864
-0.206256
-0.203646
-0.201034
-0.198421
-0.195806
-0.193188
-0.190568
-0.187945
-0.185321
-0.182694
-0.180065
-0.177434
-0.174801
-0.172166
-0.16953
-0.166892
-0.164252
-0.161611
-0.158967
-0.15632
-0.153671
-0.151018
-0.148361
-0.145701
-0.143037
-0.140369
-0.137697
-0.135021
-0.132341
-0.129655
-0.126964
-0.124265
-0.121559
-0.118843
-0.116116
-0.113377
-0.110625
-0.107859
-0.105079
-0.102284
-0.0994746
-0.0966501
-0.0938111
-0.0909578
-0.0880908
-0.0852107
-0.0823182
-0.0794139
-0.0764988
-0.0735738
-0.0706397
-0.0676975
-0.0647484
-0.0617931
-0.0588328
-0.0558683
-0.0529006
-0.0499307
-0.0469596
-0.0439882
-0.0410177
-0.0380491
-0.0350835
-0.0321221
-0.029166
-0.0262163
-0.0232739
-0.0203396
-0.0174141
-0.0144975
-0.0115899
-0.00869077
-0.00579919
-0.0029138
-2.28138e-05
0.00280385
0.00563715
0.00846616
0.0112903
0.0141091
0.0169223
0.0197299
0.0225318
0.025328
0.0281186
0.0309034
0.0336825
0.0364558
0.0392231
0.0419844
0.0447394
0.047488
0.0502301
0.0529655
0.055694
0.0584156
0.0611302
0.0638377
0.0665382
0.0692317
0.0719183
0.0745983
0.0772717
0.0799389
0.0826001
0.0852558
0.0879063
0.090552
0.0931934
0.0958311
0.0984655
0.101097
0.103727
0.106355
0.108982
-0.219288
-0.216682
-0.214075
-0.211468
-0.20886
-0.206252
-0.203641
-0.20103
-0.198417
-0.195801
-0.193184
-0.190565
-0.187944
-0.185321
-0.182696
-0.180069
-0.177441
-0.174811
-0.172181
-0.169549
-0.166916
-0.164281
-0.161645
-0.159006
-0.156365
-0.15372
-0.151072
-0.14842
-0.145764
-0.143104
-0.140441
-0.137774
-0.135103
-0.132428
-0.129748
-0.127062
-0.124369
-0.121666
-0.118952
-0.116226
-0.113487
-0.110732
-0.107962
-0.105176
-0.102373
-0.0995547
-0.0967199
-0.0938695
-0.0910041
-0.0881245
-0.0852312
-0.0823253
-0.0794076
-0.0764791
-0.0735408
-0.0705939
-0.0676396
-0.0646789
-0.0617129
-0.0587427
-0.0557692
-0.0527935
-0.0498165
-0.0468392
-0.0438627
-0.040888
-0.0379164
-0.0349491
-0.0319872
-0.0290322
-0.0260851
-0.0231471
-0.0202193
-0.0173022
-0.0143963
-0.0115015
-0.00861728
-0.0057426
-0.00287575
-1.02006e-05
0.00282475
0.00565986
0.00848982
0.011314
0.0141322
0.0169441
0.01975
0.0225498
0.0253438
0.0281321
0.0309147
0.0336917
0.036463
0.0392286
0.0419883
0.044742
0.0474895
0.0502306
0.0529652
0.0556931
0.0584143
0.0611285
0.0638358
0.0665362
0.0692296
0.0719162
0.0745962
0.0772697
0.079937
0.0825984
0.0852542
0.0879048
0.0905507
0.0931923
0.0958301
0.0984647
0.101097
0.103726
0.106355
0.108982
-0.219287
-0.21668
-0.214073
-0.211465
-0.208856
-0.206247
-0.203636
-0.201025
-0.198411
-0.195797
-0.19318
-0.190562
-0.187942
-0.18532
-0.182698
-0.180073
-0.177448
-0.174822
-0.172196
-0.169568
-0.16694
-0.164311
-0.16168
-0.159046
-0.15641
-0.153769
-0.151125
-0.148477
-0.145824
-0.143168
-0.140509
-0.137846
-0.135181
-0.132512
-0.129838
-0.127158
-0.12447
-0.121771
-0.119059
-0.116333
-0.113591
-0.110832
-0.108056
-0.105261
-0.102448
-0.0996182
-0.0967709
-0.0939072
-0.0910278
-0.0881337
-0.0852257
-0.0823049
-0.0793723
-0.0764291
-0.0734765
-0.0705159
-0.0675486
-0.0645758
-0.0615987
-0.0586184
-0.0556359
-0.0526523
-0.0496683
-0.0466851
-0.0437037
-0.0407253
-0.0377512
-0.0347827
-0.0318213
-0.0288683
-0.0259252
-0.0229931
-0.0200734
-0.0171667
-0.0142738
-0.0113945
-0.00852838
-0.00567412
-0.00282975
5.2598e-06
0.00285006
0.00568742
0.00851849
0.0113427
0.0141599
0.0169702
0.0197738
0.0225711
0.0253623
0.0281479
0.0309279
0.0337024
0.0364714
0.039235
0.0419929
0.0447451
0.0474913
0.0502314
0.0529652
0.0556924
0.0584131
0.0611269
0.063834
0.0665342
0.0692276
0.0719142
0.0745942
0.0772678
0.0799352
0.0825967
0.0852526
0.0879034
0.0905494
0.0931912
0.0958292
0.0984639
0.101096
0.103726
0.106354
0.108982
-0.219287
-0.216678
-0.21407
-0.211461
-0.208851
-0.206241
-0.203631
-0.201019
-0.198406
-0.195791
-0.193175
-0.190558
-0.18794
-0.18532
-0.182699
-0.180078
-0.177456
-0.174834
-0.172211
-0.169589
-0.166966
-0.164341
-0.161715
-0.159086
-0.156454
-0.153817
-0.151175
-0.148529
-0.145879
-0.143225
-0.14057
-0.137912
-0.135253
-0.132591
-0.129924
-0.12725
-0.124567
-0.121871
-0.119161
-0.116433
-0.113687
-0.110921
-0.108135
-0.10533
-0.102504
-0.0996605
-0.0967986
-0.0939198
-0.0910249
-0.0881151
-0.0851912
-0.0822544
-0.0793059
-0.076347
-0.0733793
-0.0704042
-0.0674233
-0.0644381
-0.0614497
-0.0584594
-0.0554679
-0.0524764
-0.0494855
-0.0464964
-0.0435101
-0.0405281
-0.0375518
-0.0345826
-0.0316223
-0.0286723
-0.0257343
-0.0228096
-0.0198997
-0.0170056
-0.014128
-0.0112671
-0.00842233
-0.00559228
-0.00277468
2.39553e-05
0.00288057
0.00572068
0.00855299
0.011377
0.0141928
0.0170008
0.0198016
0.0225957
0.0253836
0.0281659
0.0309428
0.0337144
0.0364809
0.0392422
0.0419982
0.0447487
0.0474935
0.0502324
0.0529653
0.0556918
0.0584119
0.0611254
0.0638322
0.0665323
0.0692256
0.0719122
0.0745922
0.0772659
0.0799334
0.082595
0.0852511
0.087902
0.0905482
0.0931901
0.0958283
0.0984632
0.101095
0.103726
0.106354
0.108982
-0.219286
-0.216676
-0.214066
-0.211456
-0.208846
-0.206235
-0.203624
-0.201012
-0.198399
-0.195785
-0.19317
-0.190554
-0.187937
-0.185319
-0.1827
-0.180082
-0.177463
-0.174845
-0.172227
-0.169609
-0.166991
-0.164371
-0.16175
-0.159124
-0.156495
-0.15386
-0.151219
-0.148574
-0.145924
-0.143273
-0.14062
-0.137968
-0.135316
-0.132662
-0.130003
-0.127337
-0.124659
-0.121966
-0.119254
-0.116522
-0.113768
-0.110993
-0.108195
-0.105375
-0.102535
-0.0996753
-0.0967975
-0.0939026
-0.0909917
-0.0880656
-0.0851255
-0.0821723
-0.0792076
-0.0762327
-0.0732494
-0.0702596
-0.067265
-0.0642673
-0.0612678
-0.0582675
-0.0552673
-0.0522679
-0.0492699
-0.0462744
-0.0432828
-0.0402965
-0.0373175
-0.0343476
-0.0313886
-0.0284424
-0.0255105
-0.0225947
-0.0196964
-0.0168169
-0.0139571
-0.0111174
-0.00829727
-0.00549541
-0.00270922
4.63239e-05
0.00291729
0.0057607
0.00859427
0.0114177
0.0142315
0.0170365
0.0198335
0.0226237
0.0254076
0.028186
0.0309593
0.0337277
0.0364913
0.0392501
0.0420039
0.0447525
0.0474958
0.0502336
0.0529655
0.0556913
0.0584109
0.061124
0.0638305
0.0665304
0.0692237
0.0719103
0.0745903
0.0772641
0.0799317
0.0825934
0.0852496
0.0879007
0.090547
0.0931891
0.0958274
0.0984625
0.101095
0.103725
0.106354
0.108982
-0.219285
-0.216674
-0.214062
-0.211451
-0.20884
-0.206229
-0.203617
-0.201005
-0.198392
-0.195778
-0.193164
-0.190549
-0.187933
-0.185317
-0.182701
-0.180085
-0.17747
-0.174856
-0.172242
-0.169629
-0.167015
-0.1644
-0.161782
-0.15916
-0.156531
-0.153896
-0.151254
-0.148606
-0.145956
-0.143305
-0.140657
-0.138011
-0.135368
-0.132724
-0.130075
-0.127416
-0.124742
-0.122049
-0.119333
-0.116593
-0.113828
-0.111038
-0.108224
-0.105388
-0.102531
-0.099655
-0.0967612
-0.0938509
-0.0909248
-0.0879835
-0.0850281
-0.0820594
-0.0790789
-0.0760883
-0.0730898
-0.0700855
-0.0670777
-0.0640681
-0.0610581
-0.0580486
-0.0550399
-0.0520324
-0.0490267
-0.0460237
-0.043025
-0.0400329
-0.0370497
-0.034078
-0.0311199
-0.0281776
-0.0252527
-0.0223469
-0.0194618
-0.0165989
-0.0137592
-0.0109433
-0.00815118
-0.00538153
-0.00263169
7.29103e-05
0.00296156
0.00580881
0.00864346
0.0114657
0.0142764
0.0170773
0.0198696
0.0226548
0.025434
0.028208
0.0309772
0.0337419
0.0365023
0.0392583
0.0420098
0.0447565
0.0474983
0.0502347
0.0529656
0.0556907
0.0584098
0.0611225
0.0638288
0.0665286
0.0692218
0.0719084
0.0745885