/*--------------------------------*- C++ -*----------------------------------*\
  =========                 |
  \\      /  F ield         | OpenFOAM: The Open Source CFD Toolbox
   \\    /   O peration     | Website:  https://openfoam.org
    \\  /    A nd           | Version:  6
     \\/     M anipulation  |
\*---------------------------------------------------------------------------*/
FoamFile
{
    version     2.0;
    format      ascii;
    class       volVectorField;
    location    "5400";
    object      U;
}
// * * * * * * * * * * * * * * * * * * * * * * * * * * * * * * * * * * * * * //

dimensions      [0 1 -1 0 0 0 0];

internalField   nonuniform List<vector> 
4800
(
(-3.64639e-08 0 3.78665e-08)
(-1.11936e-07 0 3.46636e-08)
(-1.85362e-07 0 3.31155e-08)
(-2.57725e-07 0 3.21643e-08)
(-3.28323e-07 0 3.13061e-08)
(-3.96676e-07 0 3.03598e-08)
(-4.62347e-07 0 2.93042e-08)
(-5.2497e-07 0 2.81034e-08)
(-5.84212e-07 0 2.67514e-08)
(-6.3978e-07 0 2.52373e-08)
(-6.91442e-07 0 2.35954e-08)
(-7.39004e-07 0 2.18061e-08)
(-7.82312e-07 0 1.9889e-08)
(-8.2129e-07 0 1.79286e-08)
(-8.55936e-07 0 1.59214e-08)
(-8.86286e-07 0 1.39074e-08)
(-9.12283e-07 0 1.17887e-08)
(-9.33502e-07 0 9.39085e-09)
(-9.5035e-07 0 7.37005e-09)
(-9.63326e-07 0 5.47107e-09)
(-9.72051e-07 0 3.50518e-09)
(-9.76242e-07 0 9.33589e-10)
(-9.76543e-07 0 -5.91189e-10)
(-9.73181e-07 0 -2.56516e-09)
(-9.65945e-07 0 -4.41924e-09)
(-9.5509e-07 0 -6.15515e-09)
(-9.40805e-07 0 -7.82738e-09)
(-9.23192e-07 0 -9.44255e-09)
(-9.02407e-07 0 -1.09538e-08)
(-8.78623e-07 0 -1.24123e-08)
(-8.51981e-07 0 -1.37766e-08)
(-8.227e-07 0 -1.50407e-08)
(-7.90933e-07 0 -1.62183e-08)
(-7.56912e-07 0 -1.72896e-08)
(-7.20798e-07 0 -1.82773e-08)
(-6.82815e-07 0 -1.914e-08)
(-6.43186e-07 0 -1.99107e-08)
(-6.02136e-07 0 -2.0547e-08)
(-5.59871e-07 0 -2.10954e-08)
(-5.1664e-07 0 -2.15148e-08)
(-4.72659e-07 0 -2.18264e-08)
(-4.28172e-07 0 -2.20056e-08)
(-3.83428e-07 0 -2.20786e-08)
(-3.38626e-07 0 -2.20443e-08)
(-2.94036e-07 0 -2.18538e-08)
(-2.49868e-07 0 -2.16168e-08)
(-2.06323e-07 0 -2.12264e-08)
(-1.63655e-07 0 -2.07378e-08)
(-1.22075e-07 0 -2.01313e-08)
(-8.17818e-08 0 -1.94505e-08)
(-4.29698e-08 0 -1.86511e-08)
(-5.83857e-09 0 -1.7774e-08)
(2.94327e-08 0 -1.67991e-08)
(6.26597e-08 0 -1.57375e-08)
(9.36809e-08 0 -1.4603e-08)
(1.2237e-07 0 -1.34212e-08)
(1.48589e-07 0 -1.21349e-08)
(1.72167e-07 0 -1.0826e-08)
(1.9306e-07 0 -9.44218e-09)
(2.11116e-07 0 -8.04381e-09)
(2.26301e-07 0 -6.59707e-09)
(2.3853e-07 0 -5.12752e-09)
(2.47755e-07 0 -3.63246e-09)
(2.53943e-07 0 -2.13753e-09)
(2.57096e-07 0 -6.47281e-10)
(2.57245e-07 0 8.13001e-10)
(2.54435e-07 0 2.25488e-09)
(2.48726e-07 0 3.65536e-09)
(2.40231e-07 0 4.98241e-09)
(2.29128e-07 0 6.21173e-09)
(2.15608e-07 0 7.34854e-09)
(1.99922e-07 0 8.34579e-09)
(1.82439e-07 0 9.14542e-09)
(1.63776e-07 0 9.54749e-09)
(1.45368e-07 0 9.10092e-09)
(1.30603e-07 0 6.34965e-09)
(1.24329e-07 0 -5.79331e-09)
(8.39614e-08 0 2.11559e-08)
(-6.06973e-10 0 3.18005e-08)
(2.59265e-15 0 -5.25167e-16)
(1.15688e-15 0 -1.41344e-17)
(2.21053e-15 0 -1.52511e-17)
(2.25223e-15 0 -1.26248e-17)
(2.30155e-15 0 -9.4402e-18)
(2.34784e-15 0 -6.40031e-18)
(2.38835e-15 0 -3.54654e-18)
(2.42211e-15 0 -8.582e-19)
(2.44859e-15 0 1.73708e-18)
(2.46754e-15 0 4.27032e-18)
(2.47894e-15 0 6.78288e-18)
(2.48271e-15 0 9.30578e-18)
(2.47883e-15 0 1.1808e-17)
(2.46741e-15 0 1.43723e-17)
(2.44853e-15 0 1.69262e-17)
(2.42226e-15 0 1.94698e-17)
(2.38875e-15 0 2.2034e-17)
(2.34811e-15 0 2.45569e-17)
(2.30052e-15 0 2.70798e-17)
(2.24621e-15 0 2.9551e-17)
(2.18536e-15 0 3.19809e-17)
(2.11818e-15 0 3.4359e-17)
(2.04493e-15 0 3.66544e-17)
(1.9659e-15 0 3.88672e-17)
(1.88141e-15 0 4.09971e-17)
(1.79174e-15 0 4.30031e-17)
(1.69717e-15 0 4.48952e-17)
(1.5981e-15 0 4.66633e-17)
(1.49489e-15 0 4.8297e-17)
(1.38787e-15 0 4.97859e-17)
(1.2774e-15 0 5.11301e-17)
(1.16381e-15 0 5.23399e-17)
(1.04744e-15 0 5.34049e-17)
(9.28665e-16 0 5.43251e-17)
(8.07825e-16 0 5.51316e-17)
(6.85226e-16 0 5.57933e-17)
(5.61211e-16 0 5.63e-17)
(4.361e-16 0 5.66515e-17)
(3.10348e-16 0 5.67549e-17)
(1.8473e-16 0 5.64137e-17)
(6.10356e-17 0 5.47594e-17)
(-3.65928e-08 0 1.12452e-07)
(-1.12472e-07 0 1.14008e-07)
(-1.8677e-07 0 1.13162e-07)
(-2.59831e-07 0 1.109e-07)
(-3.30985e-07 0 1.07694e-07)
(-3.99798e-07 0 1.0371e-07)
(-4.65876e-07 0 9.90796e-08)
(-5.28829e-07 0 9.38911e-08)
(-5.88327e-07 0 8.82371e-08)
(-6.44106e-07 0 8.2196e-08)
(-6.95916e-07 0 7.58586e-08)
(-7.43553e-07 0 6.92781e-08)
(-7.86894e-07 0 6.25238e-08)
(-8.25884e-07 0 5.58874e-08)
(-8.60544e-07 0 4.92712e-08)
(-8.90895e-07 0 4.28502e-08)
(-9.16784e-07 0 3.61129e-08)
(-9.37889e-07 0 2.86528e-08)
(-9.54713e-07 0 2.24619e-08)
(-9.67597e-07 0 1.66711e-08)
(-9.76163e-07 0 1.05811e-08)
(-9.80249e-07 0 2.85188e-09)
(-9.80477e-07 0 -1.87485e-09)
(-9.76956e-07 0 -7.82774e-09)
(-9.69568e-07 0 -1.35181e-08)
(-9.58556e-07 0 -1.87601e-08)
(-9.44125e-07 0 -2.38264e-08)
(-9.26357e-07 0 -2.87342e-08)
(-9.05399e-07 0 -3.33203e-08)
(-8.81435e-07 0 -3.77316e-08)
(-8.54616e-07 0 -4.18426e-08)
(-8.25148e-07 0 -4.566e-08)
(-7.93178e-07 0 -4.92087e-08)
(-7.58948e-07 0 -5.24258e-08)
(-7.22635e-07 0 -5.53661e-08)
(-6.8444e-07 0 -5.79879e-08)
(-6.44589e-07 0 -6.0258e-08)
(-6.03317e-07 0 -6.21699e-08)
(-5.60815e-07 0 -6.37894e-08)
(-5.17355e-07 0 -6.5024e-08)
(-4.73153e-07 0 -6.59189e-08)
(-4.28433e-07 0 -6.64522e-08)
(-3.83447e-07 0 -6.66318e-08)
(-3.38417e-07 0 -6.64833e-08)
(-2.93595e-07 0 -6.58996e-08)
(-2.49195e-07 0 -6.5136e-08)
(-2.05424e-07 0 -6.39415e-08)
(-1.6254e-07 0 -6.24217e-08)
(-1.20745e-07 0 -6.05909e-08)
(-8.02455e-08 0 -5.84867e-08)
(-4.12511e-08 0 -5.60628e-08)
(-3.94881e-09 0 -5.33846e-08)
(3.1475e-08 0 -5.04254e-08)
(6.48635e-08 0 -4.72319e-08)
(9.60478e-08 0 -4.37916e-08)
(1.24865e-07 0 -4.02006e-08)
(1.51197e-07 0 -3.63287e-08)
(1.74869e-07 0 -3.23502e-08)
(1.9585e-07 0 -2.81989e-08)
(2.13994e-07 0 -2.39612e-08)
(2.29244e-07 0 -1.95862e-08)
(2.41526e-07 0 -1.51451e-08)
(2.50785e-07 0 -1.06078e-08)
(2.5698e-07 0 -6.06477e-09)
(2.60119e-07 0 -1.53648e-09)
(2.60226e-07 0 2.92725e-09)
(2.5732e-07 0 7.34279e-09)
(2.51488e-07 0 1.16109e-08)
(2.42864e-07 0 1.56612e-08)
(2.31581e-07 0 1.94547e-08)
(2.17793e-07 0 2.29643e-08)
(2.01726e-07 0 2.60381e-08)
(1.83645e-07 0 2.85678e-08)
(1.63762e-07 0 3.02168e-08)
(1.42044e-07 0 3.0282e-08)
(1.17656e-07 0 2.66337e-08)
(8.10767e-08 0 1.1752e-08)
(5.03373e-08 0 8.65435e-08)
(-4.99932e-10 0 7.96646e-08)
(2.51086e-15 0 -1.51232e-15)
(1.1566e-15 0 -4.18243e-17)
(2.21203e-15 0 -3.591e-17)
(2.25805e-15 0 -2.61389e-17)
(2.30777e-15 0 -1.68124e-17)
(2.35372e-15 0 -8.45792e-18)
(2.39389e-15 0 -8.89219e-19)
(2.42738e-15 0 6.15216e-18)
(2.45372e-15 0 1.2904e-17)
(2.47261e-15 0 1.95111e-17)
(2.48397e-15 0 2.60872e-17)
(2.48774e-15 0 3.2715e-17)
(2.4839e-15 0 3.93738e-17)
(2.47252e-15 0 4.61774e-17)
(2.45362e-15 0 5.30326e-17)
(2.42736e-15 0 5.99499e-17)
(2.39383e-15 0 6.69396e-17)
(2.35315e-15 0 7.38776e-17)
(2.30553e-15 0 8.08569e-17)
(2.25111e-15 0 8.77742e-17)
(2.19017e-15 0 9.45778e-17)
(2.12287e-15 0 1.01247e-16)
(2.04943e-15 0 1.07761e-16)
(1.97023e-15 0 1.14048e-16)
(1.88554e-15 0 1.20096e-16)
(1.79564e-15 0 1.25814e-16)
(1.70083e-15 0 1.31222e-16)
(1.6015e-15 0 1.36288e-16)
(1.49802e-15 0 1.40972e-16)
(1.39071e-15 0 1.45253e-16)
(1.27996e-15 0 1.4913e-16)
(1.16609e-15 0 1.52636e-16)
(1.04943e-15 0 1.55737e-16)
(9.30392e-16 0 1.58395e-16)
(8.09283e-16 0 1.60701e-16)
(6.86405e-16 0 1.62613e-16)
(5.62069e-16 0 1.64123e-16)
(4.36545e-16 0 1.65209e-16)
(3.1011e-16 0 1.65767e-16)
(1.82735e-16 0 1.6556e-16)
(5.93812e-17 0 1.63927e-16)
(-3.74549e-08 0 1.87474e-07)
(-1.14656e-07 0 1.86286e-07)
(-1.89539e-07 0 1.83602e-07)
(-2.63277e-07 0 1.79658e-07)
(-3.35183e-07 0 1.74506e-07)
(-4.04743e-07 0 1.68276e-07)
(-4.71518e-07 0 1.61074e-07)
(-5.35118e-07 0 1.52967e-07)
(-5.952e-07 0 1.44101e-07)
(-6.5147e-07 0 1.34569e-07)
(-7.03695e-07 0 1.24501e-07)
(-7.5168e-07 0 1.13953e-07)
(-7.95271e-07 0 1.03077e-07)
(-8.34447e-07 0 9.2295e-08)
(-8.69311e-07 0 8.15079e-08)
(-8.99756e-07 0 7.10938e-08)
(-9.25511e-07 0 5.9419e-08)
(-9.46464e-07 0 4.74777e-08)
(-9.63332e-07 0 3.72805e-08)
(-9.76076e-07 0 2.75321e-08)
(-9.84285e-07 0 1.69768e-08)
(-9.88128e-07 0 4.85362e-09)
(-9.8823e-07 0 -3.44219e-09)
(-9.84423e-07 0 -1.3251e-08)
(-9.76743e-07 0 -2.28187e-08)
(-9.65475e-07 0 -3.14494e-08)
(-9.50761e-07 0 -3.99201e-08)
(-9.32681e-07 0 -4.80989e-08)
(-9.11401e-07 0 -5.57533e-08)
(-8.87099e-07 0 -6.30825e-08)
(-8.59926e-07 0 -6.99284e-08)
(-8.30078e-07 0 -7.63071e-08)
(-7.97709e-07 0 -8.22221e-08)
(-7.63058e-07 0 -8.75917e-08)
(-7.26312e-07 0 -9.24555e-08)
(-6.87688e-07 0 -9.68548e-08)
(-6.47398e-07 0 -1.00615e-07)
(-6.0567e-07 0 -1.03816e-07)
(-5.62695e-07 0 -1.06517e-07)
(-5.18762e-07 0 -1.08555e-07)
(-4.74091e-07 0 -1.10025e-07)
(-4.28906e-07 0 -1.10928e-07)
(-3.83454e-07 0 -1.11223e-07)
(-3.37948e-07 0 -1.10948e-07)
(-2.92656e-07 0 -1.09989e-07)
(-2.47819e-07 0 -1.08677e-07)
(-2.03635e-07 0 -1.06685e-07)
(-1.60333e-07 0 -1.04135e-07)
(-1.18125e-07 0 -1.01093e-07)
(-7.72302e-08 0 -9.75493e-08)
(-3.78581e-08 0 -9.34992e-08)
(-1.98171e-10 0 -8.90211e-08)
(3.55693e-08 0 -8.40758e-08)
(6.92561e-08 0 -7.87427e-08)
(1.00705e-07 0 -7.30079e-08)
(1.29805e-07 0 -6.70114e-08)
(1.56401e-07 0 -6.05567e-08)
(1.80298e-07 0 -5.38962e-08)
(2.0148e-07 0 -4.70005e-08)
(2.1978e-07 0 -3.99141e-08)
(2.35151e-07 0 -3.26203e-08)
(2.47501e-07 0 -2.52001e-08)
(2.5678e-07 0 -1.76364e-08)
(2.6298e-07 0 -1.00771e-08)
(2.66084e-07 0 -2.52188e-09)
(2.6608e-07 0 4.95184e-09)
(2.63025e-07 0 1.2299e-08)
(2.57e-07 0 1.94173e-08)
(2.4808e-07 0 2.61835e-08)
(2.36412e-07 0 3.25598e-08)
(2.22155e-07 0 3.84725e-08)
(2.05484e-07 0 4.37364e-08)
(1.86554e-07 0 4.82439e-08)
(1.65415e-07 0 5.17704e-08)
(1.41736e-07 0 5.41386e-08)
(1.14455e-07 0 5.50813e-08)
(7.80562e-08 0 5.55997e-08)
(4.54097e-08 0 1.11619e-07)
(-4.54542e-10 0 1.13689e-07)
(2.50434e-15 0 -2.44898e-15)
(1.16481e-15 0 -6.90799e-17)
(2.22621e-15 0 -5.00238e-17)
(2.27135e-15 0 -3.19188e-17)
(2.31923e-15 0 -1.6616e-17)
(2.36374e-15 0 -3.51552e-18)
(2.40296e-15 0 8.12705e-18)
(2.4359e-15 0 1.88287e-17)
(2.46194e-15 0 2.90444e-17)
(2.48074e-15 0 3.90739e-17)
(2.49214e-15 0 4.90828e-17)
(2.49601e-15 0 5.91641e-17)
(2.49231e-15 0 6.94315e-17)
(2.48106e-15 0 7.98643e-17)
(2.46231e-15 0 9.04832e-17)
(2.43616e-15 0 1.01299e-16)
(2.40267e-15 0 1.12228e-16)
(2.36204e-15 0 1.23209e-16)
(2.31443e-15 0 1.34251e-16)
(2.25993e-15 0 1.45253e-16)
(2.19883e-15 0 1.56151e-16)
(2.13137e-15 0 1.66853e-16)
(2.05772e-15 0 1.77348e-16)
(1.97823e-15 0 1.87501e-16)
(1.89318e-15 0 1.97252e-16)
(1.80286e-15 0 2.06506e-16)
(1.70764e-15 0 2.15263e-16)
(1.60785e-15 0 2.23484e-16)
(1.50386e-15 0 2.31083e-16)
(1.39604e-15 0 2.38063e-16)
(1.28479e-15 0 2.4438e-16)
(1.17041e-15 0 2.50077e-16)
(1.05323e-15 0 2.55123e-16)
(9.33649e-16 0 2.59497e-16)
(8.12023e-16 0 2.6324e-16)
(6.88638e-16 0 2.66352e-16)
(5.63786e-16 0 2.68875e-16)
(4.37723e-16 0 2.70757e-16)
(3.1071e-16 0 2.72018e-16)
(1.829e-16 0 2.72659e-16)
(5.94019e-17 0 2.72918e-16)
(-3.81732e-08 0 2.65083e-07)
(-1.17006e-07 0 2.63187e-07)
(-1.93477e-07 0 2.59378e-07)
(-2.68686e-07 0 2.5379e-07)
(-3.41953e-07 0 2.46486e-07)
(-4.12777e-07 0 2.37615e-07)
(-4.80689e-07 0 2.27357e-07)
(-5.4529e-07 0 2.15803e-07)
(-6.06226e-07 0 2.03179e-07)
(-6.63219e-07 0 1.89611e-07)
(-7.16015e-07 0 1.75285e-07)
(-7.64434e-07 0 1.60281e-07)
(-8.08343e-07 0 1.44905e-07)
(-8.47743e-07 0 1.29599e-07)
(-8.82814e-07 0 1.14436e-07)
(-9.13294e-07 0 9.97556e-08)
(-9.38765e-07 0 8.2794e-08)
(-9.59485e-07 0 6.63071e-08)
(-9.76442e-07 0 5.2097e-08)
(-9.88907e-07 0 3.84758e-08)
(-9.9652e-07 0 2.28806e-08)
(-1.00003e-06 0 6.88117e-09)
(-9.99921e-07 0 -5.29175e-09)
(-9.95654e-07 0 -1.89808e-08)
(-9.8757e-07 0 -3.24995e-08)
(-9.75916e-07 0 -4.44466e-08)
(-9.60745e-07 0 -5.64279e-08)
(-9.42189e-07 0 -6.78665e-08)
(-9.20422e-07 0 -7.86343e-08)
(-8.95611e-07 0 -8.88971e-08)
(-8.67891e-07 0 -9.85333e-08)
(-8.37462e-07 0 -1.07507e-07)
(-8.04498e-07 0 -1.15794e-07)
(-7.69236e-07 0 -1.23352e-07)
(-7.31854e-07 0 -1.30158e-07)
(-6.92572e-07 0 -1.36339e-07)
(-6.51611e-07 0 -1.41621e-07)
(-6.09197e-07 0 -1.4612e-07)
(-5.65539e-07 0 -1.49901e-07)
(-5.20917e-07 0 -1.52767e-07)
(-4.75509e-07 0 -1.54842e-07)
(-4.29593e-07 0 -1.56072e-07)
(-3.83461e-07 0 -1.56496e-07)
(-3.37271e-07 0 -1.56103e-07)
(-2.91284e-07 0 -1.54752e-07)
(-2.45766e-07 0 -1.52865e-07)
(-2.00912e-07 0 -1.50076e-07)
(-1.56962e-07 0 -1.46484e-07)
(-1.14144e-07 0 -1.42196e-07)
(-7.26695e-08 0 -1.37199e-07)
(-3.27417e-08 0 -1.31499e-07)
(5.44382e-09 0 -1.25187e-07)
(4.17073e-08 0 -1.1824e-07)
(7.5879e-08 0 -1.10728e-07)
(1.07787e-07 0 -1.0267e-07)
(1.37278e-07 0 -9.42385e-08)
(1.64204e-07 0 -8.51394e-08)
(1.88417e-07 0 -7.57804e-08)
(2.09895e-07 0 -6.60958e-08)
(2.28447e-07 0 -5.60927e-08)
(2.43992e-07 0 -4.5821e-08)
(2.56489e-07 0 -3.53515e-08)
(2.65869e-07 0 -2.47148e-08)
(2.72095e-07 0 -1.40504e-08)
(2.75137e-07 0 -3.37922e-09)
(2.74998e-07 0 7.21551e-09)
(2.71713e-07 0 1.75833e-08)
(2.65355e-07 0 2.76736e-08)
(2.56019e-07 0 3.72879e-08)
(2.43824e-07 0 4.63672e-08)
(2.28915e-07 0 5.48211e-08)
(2.1148e-07 0 6.24213e-08)
(1.91687e-07 0 6.91402e-08)
(1.69634e-07 0 7.48753e-08)
(1.45368e-07 0 7.97167e-08)
(1.1907e-07 0 8.41914e-08)
(9.04699e-08 0 9.0666e-08)
(4.59317e-08 0 1.44377e-07)
(-4.13474e-10 0 1.45928e-07)
(2.50938e-15 0 -3.34141e-15)
(1.17849e-15 0 -9.57979e-17)
(2.24921e-15 0 -6.76634e-17)
(2.29148e-15 0 -4.23206e-17)
(2.33619e-15 0 -2.11345e-17)
(2.37845e-15 0 -3.03989e-18)
(2.41623e-15 0 1.30384e-17)
(2.44831e-15 0 2.78346e-17)
(2.47394e-15 0 4.19381e-17)
(2.49263e-15 0 5.5783e-17)
(2.50406e-15 0 6.95866e-17)
(2.50808e-15 0 8.35142e-17)
(2.5046e-15 0 9.769e-17)
(2.49358e-15 0 1.12114e-16)
(2.47508e-15 0 1.26807e-16)
(2.44912e-15 0 1.41768e-16)
(2.41575e-15 0 1.56947e-16)
(2.37519e-15 0 1.7226e-16)
(2.32756e-15 0 1.87615e-16)
(2.273e-15 0 2.02959e-16)
(2.21177e-15 0 2.18179e-16)
(2.14406e-15 0 2.33162e-16)
(2.07007e-15 0 2.47813e-16)
(1.99012e-15 0 2.6202e-16)
(1.90455e-15 0 2.75658e-16)
(1.81366e-15 0 2.88645e-16)
(1.71781e-15 0 3.00918e-16)
(1.61733e-15 0 3.12395e-16)
(1.5126e-15 0 3.23024e-16)
(1.40402e-15 0 3.32785e-16)
(1.29196e-15 0 3.41626e-16)
(1.1768e-15 0 3.49556e-16)
(1.05885e-15 0 3.56556e-16)
(9.38519e-16 0 3.62698e-16)
(8.16138e-16 0 3.6793e-16)
(6.9204e-16 0 3.72283e-16)
(5.66464e-16 0 3.75819e-16)
(4.39688e-16 0 3.78559e-16)
(3.12023e-16 0 3.80513e-16)
(1.83634e-16 0 3.81734e-16)
(5.96397e-17 0 3.82344e-16)
(-3.91457e-08 0 3.44381e-07)
(-1.20195e-07 0 3.41939e-07)
(-1.98856e-07 0 3.36974e-07)
(-2.7614e-07 0 3.29618e-07)
(-3.51313e-07 0 3.20023e-07)
(-4.2388e-07 0 3.0834e-07)
(-4.93343e-07 0 2.94811e-07)
(-5.59284e-07 0 2.79619e-07)
(-6.2136e-07 0 2.63026e-07)
(-6.79275e-07 0 2.45253e-07)
(-7.328e-07 0 2.26478e-07)
(-7.8179e-07 0 2.06846e-07)
(-8.26051e-07 0 1.87001e-07)
(-8.65768e-07 0 1.66923e-07)
(-9.01002e-07 0 1.4763e-07)
(-9.31228e-07 0 1.28811e-07)
(-9.56516e-07 0 1.04955e-07)
(-9.77101e-07 0 8.49538e-08)
(-9.93938e-07 0 6.72537e-08)
(-1.00587e-06 0 4.9597e-08)
(-1.01291e-06 0 2.6074e-08)
(-1.01609e-06 0 9.66909e-09)
(-1.0155e-06 0 -7.86585e-09)
(-1.01067e-06 0 -2.5279e-08)
(-1.00206e-06 0 -4.26572e-08)
(-9.89872e-07 0 -5.79821e-08)
(-9.74079e-07 0 -7.35222e-08)
(-9.54898e-07 0 -8.82294e-08)
(-9.32482e-07 0 -1.02124e-07)
(-9.06965e-07 0 -1.15378e-07)
(-8.78509e-07 0 -1.27817e-07)
(-8.47352e-07 0 -1.39392e-07)
(-8.13612e-07 0 -1.50093e-07)
(-7.77524e-07 0 -1.59868e-07)
(-7.3929e-07 0 -1.68638e-07)
(-6.99118e-07 0 -1.76638e-07)
(-6.57252e-07 0 -1.83441e-07)
(-6.13902e-07 0 -1.89276e-07)
(-5.69296e-07 0 -1.94118e-07)
(-5.23734e-07 0 -1.9784e-07)
(-4.77412e-07 0 -2.00509e-07)
(-4.30546e-07 0 -2.02083e-07)
(-3.83459e-07 0 -2.02615e-07)
(-3.36324e-07 0 -2.021e-07)
(-2.894e-07 0 -2.00396e-07)
(-2.42983e-07 0 -1.97843e-07)
(-1.9726e-07 0 -1.94272e-07)
(-1.52462e-07 0 -1.89618e-07)
(-1.0882e-07 0 -1.84044e-07)
(-6.65528e-08 0 -1.77574e-07)
(-2.58576e-08 0 -1.70204e-07)
(1.30499e-08 0 -1.62002e-07)
(4.99894e-08 0 -1.53042e-07)
(8.47907e-08 0 -1.43311e-07)
(1.17269e-07 0 -1.32883e-07)
(1.47299e-07 0 -1.21949e-07)
(1.74712e-07 0 -1.10179e-07)
(1.99362e-07 0 -9.80827e-08)
(2.21197e-07 0 -8.55795e-08)
(2.40094e-07 0 -7.25926e-08)
(2.55904e-07 0 -5.92805e-08)
(2.68594e-07 0 -4.57265e-08)
(2.78084e-07 0 -3.19283e-08)
(2.8433e-07 0 -1.80851e-08)
(2.87316e-07 0 -4.21108e-09)
(2.87006e-07 0 9.59065e-09)
(2.83434e-07 0 2.30827e-08)
(2.76675e-07 0 3.62445e-08)
(2.66804e-07 0 4.88298e-08)
(2.53907e-07 0 6.07528e-08)
(2.38171e-07 0 7.184e-08)
(2.19795e-07 0 8.19131e-08)
(1.99008e-07 0 9.08578e-08)
(1.76104e-07 0 9.86792e-08)
(1.51366e-07 0 1.05538e-07)
(1.25381e-07 0 1.11921e-07)
(9.72935e-08 0 1.20044e-07)
(4.81151e-08 0 1.90624e-07)
(-3.72945e-10 0 1.80953e-07)
(2.516e-15 0 -4.14605e-15)
(1.19673e-15 0 -1.20882e-16)
(2.27969e-15 0 -8.52306e-17)
(2.31788e-15 0 -5.35083e-17)
(2.35853e-15 0 -2.678e-17)
(2.39791e-15 0 -3.72231e-18)
(2.43382e-15 0 1.68435e-17)
(2.46479e-15 0 3.58583e-17)
(2.48988e-15 0 5.39735e-17)
(2.50838e-15 0 7.16959e-17)
(2.51988e-15 0 8.93665e-17)
(2.52411e-15 0 1.07244e-16)
(2.5209e-15 0 1.2538e-16)
(2.51018e-15 0 1.43867e-16)
(2.49197e-15 0 1.62727e-16)
(2.4663e-15 0 1.81907e-16)
(2.43316e-15 0 2.01418e-16)
(2.39271e-15 0 2.21136e-16)
(2.34513e-15 0 2.40916e-16)
(2.29049e-15 0 2.60727e-16)
(2.22905e-15 0 2.80383e-16)
(2.161e-15 0 2.9976e-16)
(2.08656e-15 0 3.18692e-16)
(2.00607e-15 0 3.37055e-16)
(1.9198e-15 0 3.54705e-16)
(1.82811e-15 0 3.71528e-16)
(1.73138e-15 0 3.8741e-16)
(1.62997e-15 0 4.02227e-16)
(1.52426e-15 0 4.15937e-16)
(1.41464e-15 0 4.285e-16)
(1.30155e-15 0 4.39884e-16)
(1.18533e-15 0 4.50059e-16)
(1.06634e-15 0 4.59023e-16)
(9.45002e-16 0 4.66881e-16)
(8.21639e-16 0 4.73592e-16)
(6.96559e-16 0 4.79206e-16)
(5.70062e-16 0 4.83746e-16)
(4.42418e-16 0 4.87313e-16)
(3.13884e-16 0 4.89908e-16)
(1.8472e-16 0 4.91583e-16)
(6.0012e-17 0 4.92431e-16)
(-4.04774e-08 0 4.25989e-07)
(-1.24425e-07 0 4.22836e-07)
(-2.05792e-07 0 4.1655e-07)
(-2.85684e-07 0 4.0726e-07)
(-3.63278e-07 0 3.95215e-07)
(-4.38037e-07 0 3.80566e-07)
(-5.09445e-07 0 3.63589e-07)
(-5.77088e-07 0 3.44588e-07)
(-6.40593e-07 0 3.23842e-07)
(-6.99643e-07 0 3.01647e-07)
(-7.54085e-07 0 2.78234e-07)
(-8.03756e-07 0 2.53865e-07)
(-8.48353e-07 0 2.29562e-07)
(-8.8872e-07 0 2.04028e-07)
(-9.24145e-07 0 1.80712e-07)
(-9.53782e-07 0 1.56898e-07)
(-9.78717e-07 0 1.27697e-07)
(-9.99476e-07 0 1.03752e-07)
(-1.01589e-06 0 8.14882e-08)
(-1.02696e-06 0 5.94467e-08)
(-1.03351e-06 0 3.05213e-08)
(-1.0363e-06 0 1.11423e-08)
(-1.03498e-06 0 -1.09028e-08)
(-1.02947e-06 0 -3.23361e-08)
(-1.02022e-06 0 -5.32087e-08)
(-1.00734e-06 0 -7.23004e-08)
(-9.90799e-07 0 -9.12993e-08)
(-9.7085e-07 0 -1.09334e-07)
(-9.47609e-07 0 -1.26389e-07)
(-9.21221e-07 0 -1.42698e-07)
(-8.9186e-07 0 -1.5795e-07)
(-8.59751e-07 0 -1.72157e-07)
(-8.25014e-07 0 -1.85328e-07)
(-7.87894e-07 0 -1.97354e-07)
(-7.48581e-07 0 -2.08134e-07)
(-7.07298e-07 0 -2.17949e-07)
(-6.64329e-07 0 -2.26305e-07)
(-6.19815e-07 0 -2.33527e-07)
(-5.7404e-07 0 -2.39413e-07)
(-5.27288e-07 0 -2.43984e-07)
(-4.79778e-07 0 -2.47274e-07)
(-4.31715e-07 0 -2.49212e-07)
(-3.83411e-07 0 -2.49823e-07)
(-3.35122e-07 0 -2.49189e-07)
(-2.87038e-07 0 -2.47097e-07)
(-2.39491e-07 0 -2.43863e-07)
(-1.92668e-07 0 -2.39471e-07)
(-1.46814e-07 0 -2.33744e-07)
(-1.02127e-07 0 -2.26859e-07)
(-5.88439e-08 0 -2.18873e-07)
(-1.72031e-08 0 -2.09789e-07)
(2.26059e-08 0 -1.99663e-07)
(6.03966e-08 0 -1.88627e-07)
(9.5979e-08 0 -1.76601e-07)
(1.2919e-07 0 -1.63808e-07)
(1.59904e-07 0 -1.5031e-07)
(1.87943e-07 0 -1.35796e-07)
(2.13141e-07 0 -1.20886e-07)
(2.35461e-07 0 -1.05507e-07)
(2.54759e-07 0 -8.95078e-08)
(2.70908e-07 0 -7.30378e-08)
(2.83855e-07 0 -5.63751e-08)
(2.93537e-07 0 -3.92727e-08)
(2.99848e-07 0 -2.21623e-08)
(3.02752e-07 0 -4.9799e-09)
(3.02259e-07 0 1.21313e-08)
(2.98373e-07 0 2.89395e-08)
(2.91114e-07 0 4.52819e-08)
(2.80556e-07 0 6.09959e-08)
(2.66819e-07 0 7.59205e-08)
(2.50071e-07 0 8.97955e-08)
(2.30528e-07 0 1.02455e-07)
(2.085e-07 0 1.13665e-07)
(1.84402e-07 0 1.23386e-07)
(1.58707e-07 0 1.31678e-07)
(1.32622e-07 0 1.38393e-07)
(1.03262e-07 0 1.50352e-07)
(4.8936e-08 0 2.42067e-07)
(-3.38488e-10 0 2.1319e-07)
(2.52042e-15 0 -4.82556e-15)
(1.21907e-15 0 -1.43609e-16)
(2.31658e-15 0 -1.01847e-16)
(2.34993e-15 0 -6.47786e-17)
(2.38598e-15 0 -3.29735e-17)
(2.42208e-15 0 -5.15954e-18)
(2.45581e-15 0 1.98523e-17)
(2.48544e-15 0 4.30754e-17)
(2.50979e-15 0 6.52542e-17)
(2.52804e-15 0 8.69367e-17)
(2.53962e-15 0 1.08557e-16)
(2.54409e-15 0 1.30384e-16)
(2.54122e-15 0 1.52532e-16)
(2.53094e-15 0 1.75124e-16)
(2.51312e-15 0 1.98203e-16)
(2.48779e-15 0 2.21705e-16)
(2.45497e-15 0 2.4559e-16)
(2.41471e-15 0 2.69795e-16)
(2.36715e-15 0 2.94166e-16)
(2.31247e-15 0 3.18537e-16)
(2.25081e-15 0 3.42773e-16)
(2.18236e-15 0 3.66669e-16)
(2.10736e-15 0 3.90047e-16)
(2.02615e-15 0 4.12732e-16)
(1.93904e-15 0 4.34518e-16)
(1.84635e-15 0 4.5527e-16)
(1.74849e-15 0 4.74843e-16)
(1.64586e-15 0 4.93093e-16)
(1.53888e-15 0 5.09967e-16)
(1.42795e-15 0 5.25363e-16)
(1.31351e-15 0 5.39301e-16)
(1.19595e-15 0 5.5173e-16)
(1.07568e-15 0 5.62679e-16)
(9.53078e-16 0 5.72233e-16)
(8.28473e-16 0 5.80381e-16)
(7.02194e-16 0 5.87216e-16)
(5.7456e-16 0 5.92778e-16)
(4.4584e-16 0 5.971e-16)
(3.16283e-16 0 6.00275e-16)
(1.86167e-16 0 6.02374e-16)
(6.04979e-17 0 6.03418e-16)
(-4.21293e-08 0 5.10781e-07)
(-1.29665e-07 0 5.06852e-07)
(-2.14375e-07 0 4.99119e-07)
(-2.97466e-07 0 4.87738e-07)
(-3.7804e-07 0 4.72992e-07)
(-4.55491e-07 0 4.55108e-07)
(-5.29297e-07 0 4.34393e-07)
(-5.98981e-07 0 4.11288e-07)
(-6.64165e-07 0 3.8608e-07)
(-7.24607e-07 0 3.59151e-07)
(-7.80268e-07 0 3.30634e-07)
(-8.30377e-07 0 3.02005e-07)
(-8.75731e-07 0 2.7169e-07)
(-9.16795e-07 0 2.4209e-07)
(-9.51982e-07 0 2.14911e-07)
(-9.81207e-07 0 1.82774e-07)
(-1.00563e-06 0 1.50344e-07)
(-1.02675e-06 0 1.22148e-07)
(-1.04239e-06 0 9.59974e-08)
(-1.05216e-06 0 6.79874e-08)
(-1.05821e-06 0 3.43366e-08)
(-1.06075e-06 0 1.20895e-08)
(-1.05842e-06 0 -1.46663e-08)
(-1.05211e-06 0 -4.03372e-08)
(-1.04211e-06 0 -6.43972e-08)
(-1.02842e-06 0 -8.74766e-08)
(-1.01098e-06 0 -1.09918e-07)
(-9.90081e-07 0 -1.3135e-07)
(-9.6585e-07 0 -1.5162e-07)
(-9.38435e-07 0 -1.70994e-07)
(-9.07998e-07 0 -1.89122e-07)
(-8.74743e-07 0 -2.06021e-07)
(-8.388e-07 0 -2.21696e-07)
(-8.00437e-07 0 -2.36018e-07)
(-7.59844e-07 0 -2.48854e-07)
(-7.17216e-07 0 -2.60516e-07)
(-6.72877e-07 0 -2.70441e-07)
(-6.26981e-07 0 -2.79077e-07)
(-5.7979e-07 0 -2.86067e-07)
(-5.3155e-07 0 -2.91474e-07)
(-4.82607e-07 0 -2.95395e-07)
(-4.33115e-07 0 -2.97685e-07)
(-3.83353e-07 0 -2.98374e-07)
(-3.33669e-07 0 -2.9759e-07)
(-2.84175e-07 0 -2.95135e-07)
(-2.35245e-07 0 -2.91157e-07)
(-1.87062e-07 0 -2.85941e-07)
(-1.39868e-07 0 -2.79082e-07)
(-9.39349e-08 0 -2.70868e-07)
(-4.94559e-08 0 -2.61304e-07)
(-6.67116e-09 0 -2.50445e-07)
(3.42155e-08 0 -2.38355e-07)
(7.30074e-08 0 -2.25159e-07)
(1.09537e-07 0 -2.10806e-07)
(1.43637e-07 0 -1.95567e-07)
(1.75156e-07 0 -1.79417e-07)
(2.03942e-07 0 -1.62177e-07)
(2.29816e-07 0 -1.44314e-07)
(2.52725e-07 0 -1.25999e-07)
(2.72514e-07 0 -1.06884e-07)
(2.89114e-07 0 -8.72306e-08)
(3.02407e-07 0 -6.7255e-08)
(3.12265e-07 0 -4.68622e-08)
(3.18684e-07 0 -2.63242e-08)
(3.21572e-07 0 -5.67066e-09)
(3.20879e-07 0 1.49514e-08)
(3.16616e-07 0 3.51212e-08)
(3.08796e-07 0 5.4878e-08)
(2.97469e-07 0 7.39605e-08)
(2.82712e-07 0 9.20743e-08)
(2.64704e-07 0 1.08955e-07)
(2.43673e-07 0 1.24364e-07)
(2.19963e-07 0 1.37942e-07)
(1.94124e-07 0 1.49461e-07)
(1.66805e-07 0 1.58699e-07)
(1.38876e-07 0 1.65665e-07)
(9.59072e-08 0 1.97564e-07)
(4.76099e-08 0 3.05279e-07)
(-3.14331e-10 0 2.40387e-07)
(2.52365e-15 0 -5.34794e-15)
(1.24479e-15 0 -1.63327e-16)
(2.35852e-15 0 -1.16932e-16)
(2.38675e-15 0 -7.56664e-17)
(2.41815e-15 0 -3.94462e-17)
(2.45072e-15 0 -7.22749e-18)
(2.48203e-15 0 2.20754e-17)
(2.5102e-15 0 4.94861e-17)
(2.53377e-15 0 7.57387e-17)
(2.5517e-15 0 1.01433e-16)
(2.56331e-15 0 1.27024e-16)
(2.56809e-15 0 1.52832e-16)
(2.56566e-15 0 1.79033e-16)
(2.55585e-15 0 2.05792e-16)
(2.53856e-15 0 2.3311e-16)
(2.51369e-15 0 2.60996e-16)
(2.48125e-15 0 2.89379e-16)
(2.44128e-15 0 3.18196e-16)
(2.39386e-15 0 3.47261e-16)
(2.3391e-15 0 3.76388e-16)
(2.27718e-15 0 4.0536e-16)
(2.20827e-15 0 4.3397e-16)
(2.13262e-15 0 4.6198e-16)
(2.05054e-15 0 4.89164e-16)
(1.96236e-15 0 5.15261e-16)
(1.86845e-15 0 5.40097e-16)
(1.76921e-15 0 5.63475e-16)
(1.66508e-15 0 5.85251e-16)
(1.55653e-15 0 6.05362e-16)
(1.444e-15 0 6.23663e-16)
(1.32792e-15 0 6.40165e-16)
(1.20872e-15 0 6.54889e-16)
(1.08685e-15 0 6.67814e-16)
(9.62704e-16 0 6.79022e-16)
(8.36621e-16 0 6.88566e-16)
(7.08935e-16 0 6.96548e-16)
(5.79926e-16 0 7.03052e-16)
(4.49914e-16 0 7.08118e-16)
(3.19157e-16 0 7.11841e-16)
(1.87873e-16 0 7.14302e-16)
(6.10666e-17 0 7.15542e-16)
(-4.41362e-08 0 5.99496e-07)
(-1.36044e-07 0 5.94723e-07)
(-2.2483e-07 0 5.85392e-07)
(-3.11778e-07 0 5.71708e-07)
(-3.95928e-07 0 5.53945e-07)
(-4.76584e-07 0 5.32487e-07)
(-5.53242e-07 0 5.0766e-07)
(-6.25296e-07 0 4.80066e-07)
(-6.92433e-07 0 4.50023e-07)
(-7.54784e-07 0 4.17629e-07)
(-8.11276e-07 0 3.84721e-07)
(-8.62076e-07 0 3.50427e-07)
(-9.08712e-07 0 3.14201e-07)
(-9.50242e-07 0 2.81098e-07)
(-9.84333e-07 0 2.48987e-07)
(-1.01352e-06 0 2.0749e-07)
(-1.03795e-06 0 1.732e-07)
(-1.05876e-06 0 1.40497e-07)
(-1.07279e-06 0 1.11214e-07)
(-1.08188e-06 0 6.95568e-08)
(-1.08763e-06 0 4.22226e-08)
(-1.08913e-06 0 1.06382e-08)
(-1.08584e-06 0 -1.88263e-08)
(-1.07864e-06 0 -4.96582e-08)
(-1.06782e-06 0 -7.62788e-08)
(-1.05304e-06 0 -1.03655e-07)
(-1.0346e-06 0 -1.29594e-07)
(-1.01264e-06 0 -1.544e-07)
(-9.8729e-07 0 -1.7796e-07)
(-9.58667e-07 0 -2.00451e-07)
(-9.26965e-07 0 -2.21518e-07)
(-8.92373e-07 0 -2.41205e-07)
(-8.55013e-07 0 -2.59414e-07)
(-8.15173e-07 0 -2.76087e-07)
(-7.7308e-07 0 -2.91011e-07)
(-7.28905e-07 0 -3.04574e-07)
(-6.82908e-07 0 -3.16136e-07)
(-6.35355e-07 0 -3.26184e-07)
(-5.86502e-07 0 -3.34285e-07)
(-5.36588e-07 0 -3.4059e-07)
(-4.85931e-07 0 -3.45084e-07)
(-4.34769e-07 0 -3.47755e-07)
(-3.83321e-07 0 -3.4855e-07)
(-3.31898e-07 0 -3.47532e-07)
(-2.80795e-07 0 -3.44731e-07)
(-2.30224e-07 0 -3.39966e-07)
(-1.80465e-07 0 -3.33943e-07)
(-1.31717e-07 0 -3.25871e-07)
(-8.4319e-08 0 -3.16261e-07)
(-3.84223e-08 0 -3.0507e-07)
(5.72144e-09 0 -2.9238e-07)
(4.79047e-08 0 -2.78258e-07)
(8.79019e-08 0 -2.62838e-07)
(1.25542e-07 0 -2.46053e-07)
(1.60672e-07 0 -2.28319e-07)
(1.93126e-07 0 -2.09415e-07)
(2.22766e-07 0 -1.89373e-07)
(2.49452e-07 0 -1.68512e-07)
(2.7306e-07 0 -1.47149e-07)
(2.93472e-07 0 -1.24806e-07)
(3.10596e-07 0 -1.01972e-07)
(3.24325e-07 0 -7.8549e-08)
(3.34509e-07 0 -5.46365e-08)
(3.4106e-07 0 -3.05697e-08)
(3.43907e-07 0 -6.24281e-09)
(3.43037e-07 0 1.78589e-08)
(3.38393e-07 0 4.17857e-08)
(3.29944e-07 0 6.51768e-08)
(3.17726e-07 0 8.78272e-08)
(3.01813e-07 0 1.09411e-07)
(2.82331e-07 0 1.2957e-07)
(2.59482e-07 0 1.4802e-07)
(2.33556e-07 0 1.64284e-07)
(2.05127e-07 0 1.77814e-07)
(1.75207e-07 0 1.87866e-07)
(1.46614e-07 0 1.92422e-07)
(9.07524e-08 0 2.57511e-07)
(4.86241e-08 0 3.25822e-07)
(-3.05346e-10 0 2.69497e-07)
(2.52299e-15 0 -5.6903e-15)
(1.27326e-15 0 -1.79281e-16)
(2.40425e-15 0 -1.29971e-16)
(2.42742e-15 0 -8.57786e-17)
(2.45442e-15 0 -4.59499e-17)
(2.48359e-15 0 -9.76073e-18)
(2.5125e-15 0 2.36574e-17)
(2.53908e-15 0 5.51006e-17)
(2.56175e-15 0 8.5365e-17)
(2.57934e-15 0 1.1504e-16)
(2.591e-15 0 1.44602e-16)
(2.5961e-15 0 1.74411e-16)
(2.5942e-15 0 2.04717e-16)
(2.58499e-15 0 2.35633e-16)
(2.5683e-15 0 2.67283e-16)
(2.54407e-15 0 2.99636e-16)
(2.51217e-15 0 3.3264e-16)
(2.47257e-15 0 3.66203e-16)
(2.42535e-15 0 4.00118e-16)
(2.37059e-15 0 4.34177e-16)
(2.3084e-15 0 4.68122e-16)
(2.23898e-15 0 5.01706e-16)
(2.16255e-15 0 5.34597e-16)
(2.07943e-15 0 5.66495e-16)
(1.98997e-15 0 5.97121e-16)
(1.89457e-15 0 6.26238e-16)
(1.79367e-15 0 6.53597e-16)
(1.68774e-15 0 6.79043e-16)
(1.57728e-15 0 7.02452e-16)
(1.46278e-15 0 7.23731e-16)
(1.34475e-15 0 7.42829e-16)
(1.22361e-15 0 7.59807e-16)
(1.09982e-15 0 7.74655e-16)
(9.7385e-16 0 7.87497e-16)
(8.4602e-16 0 7.98374e-16)
(7.1668e-16 0 8.07442e-16)
(5.8612e-16 0 8.14783e-16)
(4.54629e-16 0 8.20532e-16)
(3.22476e-16 0 8.24761e-16)
(1.89869e-16 0 8.27563e-16)
(6.17387e-17 0 8.28969e-16)
(-4.65494e-08 0 6.92938e-07)
(-1.43723e-07 0 6.87229e-07)
(-2.37399e-07 0 6.76084e-07)
(-3.28914e-07 0 6.59783e-07)
(-4.17296e-07 0 6.38637e-07)
(-5.01754e-07 0 6.13159e-07)
(-5.816e-07 0 5.83866e-07)
(-6.56461e-07 0 5.51145e-07)
(-7.26214e-07 0 5.15486e-07)
(-7.90042e-07 0 4.78326e-07)
(-8.4752e-07 0 4.39675e-07)
(-8.99631e-07 0 3.98886e-07)
(-9.47775e-07 0 3.57661e-07)
(-9.88136e-07 0 3.21711e-07)
(-1.02221e-06 0 2.78397e-07)
(-1.0511e-06 0 2.34427e-07)
(-1.07605e-06 0 1.94646e-07)
(-1.09488e-06 0 1.58792e-07)
(-1.10752e-06 0 1.23491e-07)
(-1.11631e-06 0 7.52236e-08)
(-1.12158e-06 0 4.64564e-08)
(-1.12149e-06 0 8.86318e-09)
(-1.11731e-06 0 -2.47994e-08)
(-1.10921e-06 0 -5.87971e-08)
(-1.09732e-06 0 -8.97789e-08)
(-1.08135e-06 0 -1.20796e-07)
(-1.06176e-06 0 -1.50398e-07)
(-1.03859e-06 0 -1.78595e-07)
(-1.01193e-06 0 -2.05617e-07)
(-9.81931e-07 0 -2.31241e-07)
(-9.48783e-07 0 -2.55322e-07)
(-9.12673e-07 0 -2.77859e-07)
(-8.73711e-07 0 -2.98698e-07)
(-8.32183e-07 0 -3.1778e-07)
(-7.88332e-07 0 -3.34867e-07)
(-7.42357e-07 0 -3.50291e-07)
(-6.94439e-07 0 -3.63707e-07)
(-6.45013e-07 0 -3.75033e-07)
(-5.94254e-07 0 -3.84355e-07)
(-5.42395e-07 0 -3.91569e-07)
(-4.8972e-07 0 -3.96625e-07)
(-4.36618e-07 0 -3.99669e-07)
(-3.83258e-07 0 -4.00567e-07)
(-3.29876e-07 0 -3.99391e-07)
(-2.76804e-07 0 -3.96095e-07)
(-2.24325e-07 0 -3.90615e-07)
(-1.72757e-07 0 -3.83597e-07)
(-1.22261e-07 0 -3.744e-07)
(-7.30836e-08 0 -3.63247e-07)
(-2.55759e-08 0 -3.50397e-07)
(2.01291e-08 0 -3.35809e-07)
(6.37529e-08 0 -3.19576e-07)
(1.0511e-07 0 -3.01715e-07)
(1.44029e-07 0 -2.82603e-07)
(1.80368e-07 0 -2.62209e-07)
(2.13902e-07 0 -2.40404e-07)
(2.44553e-07 0 -2.17574e-07)
(2.72168e-07 0 -1.93554e-07)
(2.96581e-07 0 -1.69083e-07)
(3.17732e-07 0 -1.4347e-07)
(3.35502e-07 0 -1.17184e-07)
(3.49722e-07 0 -9.03409e-08)
(3.60279e-07 0 -6.27444e-08)