/*--------------------------------*- C++ -*----------------------------------*\
  =========                 |
  \\      /  F ield         | OpenFOAM: The Open Source CFD Toolbox
   \\    /   O peration     | Website:  https://openfoam.org
    \\  /    A nd           | Version:  6
     \\/     M anipulation  |
\*---------------------------------------------------------------------------*/
FoamFile
{
    version     2.0;
    format      ascii;
    class       volScalarField;
    location    "2200";
    object      Su;
}
// * * * * * * * * * * * * * * * * * * * * * * * * * * * * * * * * * * * * * //

dimensions      [0 0 -1 0 0 0 0];

internalField   nonuniform List<scalar> 
4800
(
0.220108
0.21914
0.218164
0.217172
0.216154
0.215101
0.21401
0.212883
0.211729
0.21055
0.209351
0.208134
0.206899
0.205646
0.204377
0.203093
0.201791
0.200464
0.199106
0.197712
0.196279
0.194801
0.193278
0.191707
0.190089
0.188426
0.186721
0.184975
0.183191
0.18137
0.179516
0.177634
0.175732
0.173814
0.171882
0.169938
0.167982
0.166014
0.164037
0.162053
0.160067
0.158079
0.156094
0.154112
0.152135
0.150165
0.148203
0.146247
0.144299
0.142356
0.140416
0.138478
0.136538
0.134589
0.132625
0.130639
0.128623
0.126568
0.124462
0.122294
0.120055
0.117735
0.115325
0.112814
0.110189
0.10744
0.104553
0.101511
0.0982901
0.0948543
0.0911601
0.0871534
0.0827601
0.0778975
0.0724626
0.0663573
0.0594734
0.0517361
0.043112
0.0336108
0.0233325
0.00612869
0.0115595
0.0100964
0.00801709
0.00549616
0.00266993
-0.000365117
-0.0035425
-0.00681666
-0.0101562
-0.0135392
-0.0169504
-0.0203788
-0.0238168
-0.027259
-0.0307015
-0.0341417
-0.0375779
-0.0410089
-0.0444341
-0.0478531
-0.0512659
-0.0546725
-0.0580732
-0.0614682
-0.0648579
-0.0682426
-0.0716228
-0.0749989
-0.0783712
-0.0817403
-0.0851064
-0.08847
-0.0918313
-0.0951909
-0.098549
-0.101906
-0.105262
-0.108618
0.220098
0.219107
0.218105
0.217092
0.216057
0.21499
0.213889
0.212754
0.21159
0.210402
0.209194
0.207968
0.206725
0.205465
0.204187
0.202894
0.201586
0.200256
0.198895
0.197498
0.196057
0.194569
0.193034
0.191451
0.189821
0.188146
0.186429
0.184673
0.18288
0.181053
0.179193
0.177306
0.175397
0.173472
0.171535
0.169586
0.167627
0.16566
0.163683
0.161698
0.15971
0.157718
0.155728
0.153739
0.151753
0.149774
0.147801
0.145835
0.143874
0.141918
0.139966
0.138014
0.13606
0.134099
0.132123
0.130124
0.128097
0.126033
0.123918
0.121741
0.119494
0.117166
0.11475
0.112237
0.109609
0.10686
0.103975
0.100933
0.0977131
0.0942798
0.0905932
0.0865978
0.0822317
0.0774049
0.0720379
0.0660299
0.0593114
0.0517925
0.0434559
0.0342649
0.0241239
0.00648722
0.0123201
0.0106959
0.00844265
0.0057864
0.00286477
-0.000235499
-0.00345729
-0.00676184
-0.0101223
-0.0135199
-0.0169411
-0.0203765
-0.0238193
-0.0272647
-0.0307093
-0.0341508
-0.0375877
-0.041019
-0.0444442
-0.047863
-0.0512754
-0.0546815
-0.0580817
-0.0614761
-0.0648651
-0.0682493
-0.0716288
-0.0750043
-0.0783761
-0.0817446
-0.0851101
-0.0884731
-0.091834
-0.0951931
-0.0985506
-0.101907
-0.105263
-0.108618
0.220075
0.219041
0.217996
0.216936
0.215864
0.214769
0.213648
0.212496
0.211318
0.210117
0.208895
0.207654
0.206397
0.205123
0.203831
0.202525
0.201204
0.199863
0.198492
0.197083
0.19563
0.194129
0.192578
0.190976
0.189326
0.187631
0.185894
0.184117
0.182306
0.180463
0.178589
0.17669
0.174771
0.172835
0.170888
0.168932
0.166967
0.164994
0.163015
0.161028
0.159037
0.157042
0.155043
0.153044
0.151044
0.149047
0.147056
0.145068
0.143084
0.141103
0.139126
0.137149
0.13517
0.133185
0.131186
0.129165
0.127114
0.12503
0.122899
0.120708
0.118447
0.116106
0.113677
0.111152
0.108518
0.105763
0.102875
0.0998363
0.0966241
0.0932059
0.0895405
0.0855787
0.0812636
0.076514
0.0712577
0.0654018
0.0589038
0.0517001
0.0437607
0.0350851
0.0256184
0.00774425
0.0140459
0.0119069
0.00925443
0.00632653
0.00322401
2.68499e-06
-0.00330108
-0.00666179
-0.0100611
-0.0134857
-0.0169258
-0.0203742
-0.023826
-0.0272774
-0.0307259
-0.0341698
-0.0376079
-0.0410397
-0.0444647
-0.047883
-0.0512946
-0.0546997
-0.0580987
-0.0614919
-0.0648797
-0.0682626
-0.0716409
-0.0750152
-0.0783858
-0.0817531
-0.0851176
-0.0884795
-0.0918393
-0.0951974
-0.098554
-0.101909
-0.105264
-0.108618
0.220036
0.218924
0.217809
0.216687
0.215565
0.214432
0.213281
0.212107
0.210912
0.209695
0.208458
0.207202
0.205929
0.20464
0.20333
0.202004
0.200665
0.199308
0.197921
0.196497
0.195029
0.19351
0.191939
0.190315
0.18864
0.186918
0.185155
0.183355
0.181522
0.179662
0.177774
0.175864
0.173934
0.171987
0.170029
0.168062
0.166087
0.164105
0.162116
0.160119
0.158116
0.156107
0.154093
0.152077
0.150055
0.148031
0.146011
0.143994
0.141979
0.139962
0.13795
0.135937
0.13392
0.131899
0.129866
0.127814
0.125731
0.123618
0.121462
0.11925
0.116972
0.114615
0.112172
0.109634
0.10699
0.104228
0.101338
0.0983049
0.095109
0.0917196
0.0880965
0.0841928
0.0799553
0.0753167
0.070211
0.0645592
0.0583259
0.0514803
0.0440632
0.0362152
0.0282617
0.0210873
0.0170178
0.0136119
0.0103241
0.00702528
0.00368751
0.000310164
-0.00309979
-0.0065339
-0.00998445
-0.0134449
-0.0169101
-0.0203761
-0.0238398
-0.0272992
-0.0307528
-0.0341997
-0.0376393
-0.0410714
-0.0444961
-0.0479134
-0.0513236
-0.0547271
-0.0581243
-0.0615156
-0.0649016
-0.0682826
-0.0716591
-0.0750315
-0.0784004
-0.081766
-0.0851287
-0.0884891
-0.0918473
-0.0952039
-0.098559
-0.101913
-0.105266
-0.108619
0.219982
0.218766
0.217555
0.216349
0.215155
0.21397
0.212779
0.211577
0.210362
0.209131
0.207882
0.206614
0.205327
0.204023
0.202695
0.201345
0.199981
0.198603
0.197196
0.195753
0.194266
0.192729
0.191139
0.189493
0.187796
0.186049
0.184261
0.182439
0.180586
0.178708
0.176805
0.17488
0.172936
0.170975
0.169001
0.167016
0.165024
0.163024
0.161017
0.159002
0.156979
0.154948
0.152912
0.150871
0.148822
0.146768
0.144713
0.142657
0.140605
0.138546
0.136488
0.134429
0.132367
0.1303
0.128223
0.12613
0.124012
0.121864
0.119675
0.117436
0.115134
0.112758
0.110299
0.10775
0.105098
0.102332
0.0994433
0.0964196
0.0932448
0.0898927
0.0863292
0.0825105
0.0783875
0.0738964
0.0689795
0.0635646
0.0576318
0.0511884
0.0443135
0.037213
0.0302706
0.0241342
0.019302
0.0151778
0.0113863
0.00774644
0.00417569
0.000636869
-0.00288634
-0.00640048
-0.00990778
-0.0134085
-0.016902
-0.0203877
-0.0238649
-0.0273331
-0.0307923
-0.0342422
-0.0376831
-0.0411152
-0.0445389
-0.0479546
-0.0513628
-0.054764
-0.0581587
-0.0615475
-0.0649309
-0.0683093
-0.0716833
-0.0750533
-0.0784197
-0.081783
-0.0851436
-0.0885018
-0.091858
-0.0952125
-0.0985656
-0.101918
-0.105269
-0.10862
0.219915
0.218569
0.217239
0.215929
0.214646
0.213393
0.212148
0.210905
0.209662
0.208415
0.207157
0.205883
0.204589
0.203273
0.201928
0.200554
0.19916
0.197757
0.196327
0.194863
0.193356
0.191799
0.190189
0.188523
0.186806
0.185041
0.183234
0.181392
0.179522
0.177625
0.175703
0.173759
0.171796
0.169816
0.167822
0.165817
0.163802
0.161778
0.159747
0.157708
0.155661
0.153604
0.151538
0.149466
0.147385
0.145296
0.143201
0.141103
0.139005
0.136901
0.134794
0.132685
0.130573
0.128456
0.126329
0.124189
0.122028
0.119839
0.117613
0.115339
0.113008
0.110608
0.10813
0.105567
0.102906
0.10014
0.0972585
0.0942523
0.0911077
0.0878025
0.0843117
0.0805939
0.0766051
0.0722792
0.0675698
0.062423
0.0568213
0.0507826
0.0444037
0.0378968
0.0315793
0.0258586
0.0208525
0.0163893
0.0122777
0.00838148
0.00461676
0.000934356
-0.00269412
-0.00628494
-0.00984775
-0.0133883
-0.0169101
-0.0204154
-0.0239058
-0.0273826
-0.0308468
-0.0342991
-0.0377406
-0.0411719
-0.0445938
-0.0480071
-0.0514125
-0.0548106
-0.058202
-0.0615875
-0.0649675
-0.0683427
-0.0717135
-0.0750804
-0.0784438
-0.0818042
-0.085162
-0.0885175
-0.0918711
-0.0952231
-0.0985738
-0.101924
-0.105273
-0.108621
0.219838
0.218339
0.216867
0.215434
0.214045
0.212708
0.211396
0.210098
0.208813
0.207536
0.206261
0.204981
0.203685
0.202363
0.201007
0.199615
0.198196
0.196767
0.195315
0.193829
0.192301
0.190725
0.189097
0.187413
0.18568
0.183901
0.182081
0.180224
0.178336
0.176421
0.174478
0.172511
0.170526
0.168522
0.166506
0.164477
0.162439
0.160391
0.158333
0.156266
0.15419
0.152102
0.150004
0.147895
0.145776
0.143648
0.141512
0.139371
0.137225
0.135074
0.132917
0.130759
0.128596
0.126427
0.124248
0.122057
0.119848
0.117613
0.115344
0.113031
0.110665
0.108236
0.105735
0.103154
0.100484
0.0977177
0.0948446
0.0918608
0.088755
0.0855051
0.082098
0.0784906
0.0746503
0.070517
0.066045
0.0611844
0.0559155
0.0502644
0.0443176
0.0382521
0.0323399
0.0268511
0.021834
0.0172266
0.0129341
0.0088678
0.00496014
0.00116413
-0.00255182
-0.00620856
-0.00982015
-0.0133961
-0.0169431
-0.0204657
-0.0239676
-0.0274513
-0.030919
-0.0343726
-0.0378133
-0.0412427
-0.0446618
-0.0480716
-0.0514731
-0.0548671
-0.0582544
-0.0616357
-0.0650116
-0.0683828
-0.0717497
-0.0751128
-0.0784726
-0.0818296
-0.085184
-0.0885363
-0.0918868
-0.0952358
-0.0985836
-0.101931
-0.105277
-0.108623
0.219746
0.218071
0.216438
0.214864
0.213354
0.211913
0.21052
0.209155
0.207814
0.206492
0.205183
0.203884
0.202582
0.201258
0.1999
0.198501
0.197068
0.195619
0.194149
0.192646
0.1911
0.189508
0.187863
0.186165
0.184419
0.18263
0.1808
0.178932
0.17703
0.175098
0.173134
0.171146
0.169137
0.16711
0.165068
0.163014
0.160949
0.158874
0.156788
0.154692
0.152584
0.150463
0.14833
0.146184
0.144027
0.141859
0.139681
0.137496
0.135305
0.133107
0.130903
0.128693
0.12648
0.124259
0.12203
0.119789
0.11753
0.115247
0.112932
0.110576
0.108171
0.105708
0.103178
0.100575
0.0978912
0.0951227
0.0922597
0.0893001
0.0862383
0.0830505
0.079735
0.0762544
0.0725742
0.068644
0.0644058
0.0598164
0.0548581
0.0495513
0.0439849
0.0382968
0.0326917
0.0273556
0.02238
0.0177266
0.0133449
0.00917817
0.00517644
0.00129997
-0.00248113
-0.0061886
-0.00983846
-0.0134424
-0.017009
-0.0205448
-0.0240547
-0.0275427
-0.0310117
-0.0344644
-0.0379028
-0.0413286
-0.0447434
-0.0481485
-0.0515449
-0.0549338
-0.058316
-0.0616922
-0.0650631
-0.0684294
-0.0717917
-0.0751504
-0.078506
-0.0818589
-0.0852094
-0.088558
-0.0919049
-0.0952505
-0.0985949
-0.101939
-0.105282
-0.108624
0.219649
0.217785
0.215972
0.214234
0.212583
0.211019
0.209528
0.208081
0.206671
0.205291
0.203933
0.202599
0.20128
0.199952
0.198595
0.1972
0.195766
0.194306
0.192823
0.191306
0.189748
0.188142
0.186485
0.184777
0.183025
0.181229
0.179393
0.177516
0.175603
0.173656
0.171675
0.169667
0.167635
0.165584
0.163518
0.161439
0.159346
0.157241
0.155125
0.152997
0.150856
0.148702
0.146534
0.144353
0.142161
0.139956
0.13774
0.135513
0.133277
0.131034
0.128783
0.126525
0.124261
0.121991
0.119711
0.117419
0.115109
0.112777
0.110413
0.108012
0.105565
0.103065
0.100503
0.097878
0.0951784
0.0924069
0.0895545
0.0866192
0.0836003
0.0804797
0.0772558
0.0739038
0.0703781
0.0666406
0.0626292
0.058302
0.0536381
0.0486487
0.0434153
0.0380434
0.0326759
0.0274856
0.0225787
0.0179333
0.0135214
0.00930642
0.0052521
0.00132653
-0.00249652
-0.00623766
-0.00991314
-0.0135355
-0.0171146
-0.0206579
-0.0241714
-0.0276599
-0.0311272
-0.0345764
-0.0380101
-0.0414305
-0.0448393
-0.0482382
-0.0516283
-0.0550108
-0.0583867
-0.0617568
-0.0651219
-0.0684826
-0.0718395
-0.0751931
-0.0785438
-0.081892
-0.0852382
-0.0885825
-0.0919254
-0.095267
-0.0986076
-0.101948
-0.105287
-0.108626
0.219541
0.217468
0.21546
0.213543
0.211731
0.210025
0.208418
0.206878
0.205388
0.203944
0.202528
0.201148
0.199797
0.198453
0.197095
0.195707
0.19428
0.192823
0.191336
0.18981
0.188242
0.186628
0.184963
0.18325
0.181494
0.179695
0.177856
0.175975
0.174055
0.172096
0.170101
0.168076
0.166024
0.163951
0.161861
0.159756
0.157636
0.155502
0.153355
0.151195
0.149022
0.146836
0.144635
0.142421
0.140195
0.137956
0.135704
0.13344
0.131164
0.128878
0.126584
0.124279
0.121968
0.119648
0.117317
0.114974
0.112614
0.110231
0.107819
0.105371
0.102881
0.100343
0.0977488
0.0950991
0.0923817
0.0896027
0.0867577
0.0838436
0.0808616
0.0778027
0.0746622
0.071427
0.0680501
0.0644973
0.0607097
0.0566352
0.0522518
0.0475612
0.0426252
0.0375328
0.0323922
0.0273204
0.0224923
0.0178857
0.0134823
0.0092572
0.00518375
0.00123667
-0.00260633
-0.00636387
-0.0100515
-0.0136818
-0.0172649
-0.020809
-0.0243207
-0.0278054
-0.0312672
-0.03471
-0.0381364
-0.0415491
-0.04495
-0.0483409
-0.0517232
-0.055098
-0.0584665
-0.0618295
-0.0651879
-0.0685421
-0.0718929
-0.0752407
-0.0785859
-0.0819289
-0.0852701
-0.0886097
-0.091948
-0.0952853
-0.0986217
-0.101958
-0.105293
-0.108628
0.219433
0.217148
0.214938
0.212827
0.210835
0.208967
0.20722
0.20557
0.203986
0.202465
0.200983
0.199552
0.198164
0.196795
0.195426
0.19404
0.192621
0.191172
0.189689
0.188161
0.186589
0.18497
0.183303
0.181588
0.179831
0.178031
0.17619
0.174307
0.172383
0.170417
0.168412
0.166373
0.164304
0.16221
0.160099
0.157969
0.155823
0.153661
0.151486
0.149296
0.147093
0.144876
0.142643
0.140397
0.138138
0.135866
0.13358
0.131282
0.128971
0.126648
0.124313
0.121968
0.119612
0.117247
0.114868
0.112477
0.110069
0.107637
0.105177
0.102682
0.100146
0.0975659
0.0949342
0.0922535
0.0895145
0.0867228
0.0838787
0.0809808
0.078031
0.0750272
0.0719663
0.0688418
0.0656101
0.0622293
0.0586513
0.0548191
0.0507065
0.0462989
0.0416355
0.0367912
0.0318525
0.0269017
0.0221623
0.017615
0.0132468
0.00903985
0.00497394
0.00102887
-0.00281417
-0.00657165
-0.010258
-0.0138852
-0.0174635
-0.0210012
-0.0245051
-0.0279809
-0.0314333
-0.034866
-0.0382824
-0.0416849
-0.0450757
-0.0484568
-0.0518296
-0.0551954
-0.0585553
-0.0619102
-0.0652607
-0.0686077
-0.0719516
-0.0752929
-0.078632
-0.0819693
-0.085305
-0.0886394
-0.0919728
-0.0953053
-0.0986371
-0.101968
-0.105299
-0.10863
0.219323
0.216821
0.214402
0.212095
0.209919
0.207881
0.205982
0.204206
0.202519
0.200909
0.199354
0.197862
0.196423
0.195019
0.193631
0.19224
0.190823
0.189379
0.187899
0.186375
0.184804
0.183184
0.181515
0.179799
0.178041
0.176241
0.174399
0.172515
0.170588
0.168619
0.166608
0.164559
0.162476
0.160366
0.158234
0.156083
0.153914
0.151726
0.149524
0.147306
0.145072
0.142823
0.140558
0.138279
0.135987
0.133683
0.131366
0.129037
0.126695
0.124339
0.12197
0.119588
0.117193
0.114786
0.112364
0.109926
0.10747
0.10499
0.102481
0.0999385
0.0973556
0.0947323
0.0920612
0.0893449
0.0865799
0.0837705
0.0809216
0.0780352
0.0751143
0.072163
0.0691813
0.0661649
0.0630775
0.0598674
0.0564888
0.0528817
0.049017
0.0448732
0.0404639
0.0358452
0.0310933
0.0262632
0.0216199
0.0171463
0.0128326
0.00866533
0.00462837
0.00070518
-0.00312022
-0.00686239
-0.0105345
-0.0141479
-0.0177123
-0.021236
-0.0247258
-0.0281876
-0.031626
-0.0350451
-0.0384481
-0.0418378
-0.0452164
-0.0485857
-0.0519474
-0.0553028
-0.0586528
-0.0619983
-0.0653402
-0.0686791
-0.0720153
-0.0753495
-0.0786819
-0.0820129
-0.0853426
-0.0886714
-0.0919994
-0.0953267
-0.0986536
-0.10198
-0.105306
-0.108632
0.219216
0.216502
0.213875
0.211366
0.208999
0.206785
0.204727
0.202814
0.201018
0.199312
0.197682
0.196123
0.194627
0.193177
0.19176
0.190354
0.188932
0.187489
0.186012
0.18449
0.182919
0.181295
0.179623
0.177903
0.176141
0.174337
0.172493
0.170607
0.168678
0.166706
0.164691
0.162635
0.160542
0.158418
0.156271
0.1541
0.15191
0.149698
0.147469
0.145222
0.142956
0.140673
0.138374
0.136061
0.133736
0.131399
0.129053
0.126694
0.124323
0.121938
0.119539
0.117125
0.114694
0.112251
0.109789
0.107308
0.104806
0.102279
0.0997224
0.0971322
0.0945023
0.0918346
0.0891231
0.0863693
0.0835749
0.0807445
0.0778866
0.0750082
0.0721136
0.069212
0.0663083
0.0633952
0.060446
0.0574047
0.0542181
0.0508235
0.0471874
0.0432854
0.0391166
0.0347154
0.0301414
0.0254307
0.0208885
0.0164994
0.0122552
0.00814463
0.00415421
0.000269853
-0.0035223
-0.00723524
-0.0108809
-0.01447
-0.0180116
-0.0215138
-0.0249832
-0.0284255
-0.0318455
-0.0352471
-0.0386336
-0.0420077
-0.0453716
-0.0487273
-0.0520761
-0.0554195
-0.0587584
-0.0620936
-0.0654259
-0.0687558
-0.0720837
-0.0754101
-0.0787352
-0.0820594
-0.0853827
-0.0887055
-0.0920277
-0.0953496
-0.0986712
-0.101993
-0.105314
-0.108635
0.219113
0.21619
0.213356
0.210647
0.208089
0.2057
0.203485
0.201434
0.199524
0.197722
0.196013
0.194386
0.192829
0.191325
0.189866
0.188435
0.187004
0.185555
0.184071
0.182543
0.180964
0.179331
0.17765
0.17592
0.174148
0.172335
0.170484
0.168593
0.16666
0.164685
0.162666
0.160605
0.158504
0.156372
0.154211
0.152023
0.149812
0.147575
0.145318
0.143037
0.140737
0.138418
0.136083
0.133734
0.131373
0.129005
0.126628
0.124241
0.121843
0.119431
0.117005
0.114562
0.112101
0.109623
0.107126
0.104605
0.10206
0.0994892
0.0968867
0.0942506
0.0915754
0.0888639
0.086112
0.0833207
0.0804958
0.0776428
0.0747735
0.0718987
0.0690273
0.0661739
0.0633449
0.060531
0.0577127
0.054834
0.0518343
0.0486466
0.0452308
0.0415582
0.0376196
0.0334263
0.0290186
0.0244229
0.0199857
0.0156901
0.0115277
0.00748809
0.00355918
-0.000271598
-0.00401659
-0.0076876
-0.0112956
-0.0148504
-0.0183606
-0.0218339
-0.0252766
-0.0286941
-0.0320911
-0.0354713
-0.038838
-0.0421937
-0.0455407
-0.0488807
-0.0522151
-0.0555451
-0.0588716
-0.0621954
-0.0655172
-0.0688373
-0.0721562
-0.0754743
-0.0787916
-0.0821085
-0.0854251
-0.0887414
-0.0920575
-0.0953736
-0.0986896
-0.102006
-0.105322
-0.108638
0.219013
0.215889
0.212854
0.209946
0.2072
0.204637
0.202268
0.200086
0.198066
0.196173
0.194385
0.19269
0.191075
0.189523
0.188021
0.18655
0.185088
0.183616
0.182114
0.180569
0.178974
0.177327
0.175629
0.173883
0.172095
0.170266
0.168399
0.166495
0.164551
0.162569
0.160546
0.158476
0.156369
0.154228
0.152054
0.149849
0.147615
0.145351
0.143061
0.140745
0.138406
0.136049
0.133674
0.131287
0.128891
0.126489
0.124081
0.121666
0.119241
0.116804
0.114353
0.111885
0.109396
0.106888
0.104359
0.101802
0.0992178
0.0966048
0.0939596
0.0912809
0.0885632
0.0858106
0.0830199
0.0801933
0.0773385
0.0744637
0.071584
0.0687126
0.0658616
0.0630533
0.0602951
0.0575795
0.0548882
0.0521622
0.0493351
0.0463425
0.0431393
0.0396871
0.0359657
0.0319706
0.0277261
0.0232495
0.0189236
0.0147305
0.0106612
0.00670523
0.00285111
-0.0009129
-0.00459816
-0.00821561
-0.0117754
-0.0152865
-0.0187573
-0.0221945
-0.0256043
-0.0289918
-0.0323614
-0.0357165
-0.0390602
-0.042395
-0.0457227
-0.0490451
-0.0523633
-0.0556786
-0.0589916
-0.062303
-0.0656134
-0.0689231
-0.0722324
-0.0755415
-0.0788506
-0.0821598
-0.0854692
-0.0887788
-0.0920886
-0.0953986
-0.0987088
-0.102019
-0.10533
-0.10864
0.218916
0.2156
0.212372
0.209274
0.206345
0.203615
0.201098
0.198788
0.196662
0.194682
0.192822
0.191065
0.18939
0.187784
0.186233
0.184717
0.183213
0.181705
0.180173
0.178602
0.176979
0.175305
0.17358
0.171807
0.169989
0.168133
0.166243
0.164318
0.162359
0.160363
0.158332
0.156254
0.15414
0.151989
0.1498
0.147575
0.145315
0.143019
0.140692
0.138336
0.135956
0.133556
0.13114
0.128712
0.126277
0.12384
0.121401
0.118958
0.116508
0.114047
0.111572
0.109079
0.106565
0.10403
0.101471
0.0988826
0.0962639
0.093613
0.090929
0.0882113
0.0854552
0.0826644
0.0798369
0.0769768
0.0740932
0.0711978
0.0683086
0.0654418
0.0626142
0.0598497
0.0571583
0.0545365
0.0519675
0.049387
0.046723
0.043912
0.0409047
0.0376579
0.0341447
0.0303478
0.0262696
0.0219181
0.0177112
0.0136302
0.00966515
0.00580481
0.0020378
-0.00164728
-0.00526122
-0.00881433
-0.0123161
-0.0157749
-0.0191984
-0.0225929
-0.0259641
-0.0293167
-0.0326545
-0.035981
-0.0392987
-0.0426099
-0.0459162
-0.0492191
-0.0525198
-0.055819
-0.0591174
-0.0624155
-0.0657138
-0.0690123
-0.0723115
-0.0756112
-0.0789117
-0.0822129
-0.0855148
-0.0888174
-0.0921206
-0.0954244
-0.0987286
-0.102033
-0.105338
-0.108643
0.218827
0.215335
0.211931
0.208658
0.205559
0.20267
0.20001
0.197573
0.19534
0.193273
0.191339
0.189515
0.18778
0.186116
0.184509
0.182941
0.181388
0.179833
0.17826
0.176651
0.174992
0.173284
0.171524
0.169717
0.167864
0.165972
0.164047
0.16209
0.160103
0.158084
0.156037
0.153947
0.151821
0.149658
0.147453
0.145204
0.142913
0.140581
0.138212
0.135811
0.133385
0.130939
0.128478
0.126007
0.123532
0.121058
0.118585
0.116112
0.113635
0.11115
0.108652
0.106137
0.1036
0.101041
0.0984547
0.0958376
0.0931881
0.0905036
0.0877848
0.0850308
0.0822398
0.0794139
0.0765534
0.0736641
0.0707538
0.0678369
0.0649362
0.0620745
0.0592722
0.0565514
0.0539246
0.0513928
0.0489386
0.046494
0.0439884
0.0413577
0.0385396
0.0354913
0.0321759
0.0285668
0.024653
0.020434
0.0163554
0.0123973
0.00854788
0.0047951
0.00112709
-0.00246751
-0.00599924
-0.00947795
-0.0129125
-0.0163109
-0.0196799
-0.0230255
-0.0263526
-0.0296656
-0.0329679
-0.0362624
-0.0395513
-0.0428365
-0.0461195
-0.0494014
-0.052683
-0.0559651
-0.0592479
-0.062532
-0.0658174
-0.0691043
-0.0723928
-0.0756828
-0.0789743
-0.0822673
-0.0855615
-0.0888569
-0.0921533
-0.0954507
-0.0987487
-0.102047
-0.105346
-0.108646
0.218752
0.215108
0.211551
0.208123
0.204869
0.201828
0.199024
0.196457
0.194112
0.19195
0.189936
0.188039
0.186237
0.18451
0.182843
0.181216
0.179607
0.177998
0.176374
0.174717
0.173013
0.17126
0.169456
0.167605
0.165706
0.163769
0.1618
0.159805
0.157785
0.155738
0.153667
0.151562
0.14942
0.147241
0.145017
0.14274
0.140415
0.138041
0.135625
0.133174
0.130695
0.128198
0.125689
0.123173
0.120656
0.118145
0.115637
0.113132
0.110627
0.108115
0.105593
0.103056
0.100497
0.0979138
0.0953022
0.092658
0.0899793
0.0872632
0.0845125
0.0817254
0.0789044
0.0760484
0.0731593
0.0702438
0.0673111
0.0643761
0.0614628
0.0586022
0.0558224
0.0531448
0.0505848
0.0481446
0.0457977
0.0434803
0.0411136
0.0386512
0.0360159
0.0331603
0.0300389
0.0266192
0.0228756
0.0188
0.0148615
0.0110385
0.00731717
0.0036842
0.00012702
-0.00336589
-0.006805
-0.0101998
-0.0135587
-0.016889
-0.0201969
-0.0234878
-0.026766
-0.0300353
-0.0332984
-0.0365579
-0.0398155
-0.0430727
-0.0463306
-0.04959
-0.0528515
-0.0561154
-0.0593819
-0.0626512
-0.0659233
-0.0691982
-0.0724756
-0.0757556
-0.0790379
-0.0823224
-0.0856088
-0.0888968
-0.0921864
-0.0954772
-0.0987691
-0.102062
-0.105355
-0.108649
0.218683
0.214901
0.211206
0.20764
0.204246
0.201068
0.198133
0.195438
0.192974
0.190707
0.188607
0.186634
0.184761
0.182966
0.181233
0.179543
0.177874
0.176209
0.174529
0.172821
0.171068
0.169267
0.167415
0.165512
0.163559
0.161565
0.15954
0.157492
0.155424
0.153339
0.151234
0.149106
0.146945
0.144747
0.142502
0.140194
0.137831
0.13541
0.132941
0.130433
0.127897
0.125344
0.122781
0.120216
0.117656
0.115105
0.112561
0.110022
0.107487
0.104947
0.102398
0.0998352
0.0972523
0.0946447
0.0920086
0.0893385
0.0866326
0.0838876
0.0811072
0.0782901
0.0754409
0.0725577
0.0696437
0.066706
0.0637556
0.0608078
0.0578883
0.055033
0.0522741
0.0496345
0.0471368
0.0447876
0.0425356
0.0403394
0.0381075
0.0357955
0.0333293
0.0306577
0.0277285
0.0245007
0.0209355
0.0170179
0.0132339
0.00956022
0.00598066
0.00248042
-0.000953879
-0.004334
-0.00767043
-0.0109723
-0.0142476
-0.0175029
-0.0207437
-0.0239747
-0.0271996
-0.0304214
-0.0336423
-0.0368642
-0.0400884
-0.0433159
-0.0465473
-0.049783
-0.0530234
-0.0562683
-0.0595179
-0.062772
-0.0660304
-0.0692928
-0.0725591
-0.0758289
-0.0791018
-0.0823777
-0.0856561
-0.0889369
-0.0922195
-0.0955038
-0.0987895
-0.102076
-0.105364
-0.108651
0.21862
0.214716
0.210904
0.20722
0.203704
0.200399
0.197339
0.194524
0.191939
0.189563
0.187364
0.185306
0.183358
0.181494
0.179696
0.177943
0.176214
0.17449
0.172753
0.170989
0.169181
0.167327
0.165422
0.163462
0.161448
0.159389
0.157297
0.155183
0.153055
0.150915
0.148766
0.146606
0.14442
0.1422
0.13993
0.137588
0.13518
0.132707
0.130179
0.127607
0.125008
0.122392
0.119769
0.11715
0.114543
0.111949
0.109364
0.106788
0.104217
0.101646
0.0990668
0.0964745
0.0938639
0.0912285
0.0885656
0.0858686
0.0831353
0.0803622
0.0775532
0.0747088
0.071834
0.0689263
0.065991
0.0630366
0.0600758
0.0571228
0.054203
0.051358
0.0486211
0.0460169
0.0435748
0.0413116
0.0391463
0.0370522
0.0349514
0.0327791
0.0304767
0.0279819
0.025242
0.0222068
0.0188302
0.0150887
0.011477
0.00796916
0.00454653
0.00119278
-0.00210622
-0.00536253
-0.00858654
-0.011787
-0.0149713
-0.0181452
-0.0213136
-0.0244803
-0.0276481
-0.0308192
-0.0339954
-0.0371777
-0.0403667
-0.0435631
-0.0467669
-0.0499781
-0.0531966
-0.0564222
-0.0596544
-0.062893
-0.0661374
-0.0693873
-0.0726422
-0.0759017
-0.0791653
-0.0824326
-0.0857031
-0.0889765
-0.0922523
-0.0955301
-0.0988096
-0.10209
-0.105372
-0.108654
0.218567
0.214559
0.210654
0.206881
0.203273
0.199863
0.196681
0.193743
0.191037
0.18855
0.186249
0.184103
0.182077
0.180146
0.178282
0.176464
0.174671
0.172885
0.171087
0.169263
0.167394
0.16548
0.163514
0.161489
0.159404
0.15727
0.155097
0.152904
0.1507
0.148492
0.146282
0.14408
0.141861
0.139615
0.137319
0.134939
0.132482
0.129953
0.127359
0.124718
0.122048
0.119363
0.116674
0.113993
0.11133
0.108682
0.10605
0.103429
0.100816
0.0982058
0.0955923
0.0929666
0.0903238
0.0876582
0.0849686
0.0822481
0.0794899
0.0766893
0.0738504
0.0709777
0.0680772
0.0651457
0.0621905
0.0592233
0.0562579
0.0533074
0.0503936
0.0475618
0.0448478
0.042278
0.0398853
0.0376959
0.0356164
0.0336088
0.0316313
0.0295887
0.0274459
0.0251208
0.0225664
0.0197275
0.0165547
0.0130134
0.00959566
0.00627292
0.00302408
-0.000168478
-0.00331941
-0.00644093
-0.00954314
-0.0126342
-0.0157208
-0.0188078
-0.0218992
-0.0249977
-0.0281054
-0.0312236
-0.034353
-0.0374941
-0.0406469
-0.0438112
-0.0469867
-0.0501729
-0.0533692
-0.056575
-0.0597898
-0.0630127
-0.0662432
-0.0694805
-0.0727242
-0.0759734
-0.0792277
-0.0824865
-0.0857492
-0.0890154
-0.0922844
-0.0955559
-0.0988293
-0.102104
-0.10538
-0.108657
0.21852
0.214424
0.210438
0.20659
0.20291
0.199425
0.196146
0.193098
0.190285
0.187696
0.185303
0.183071
0.180967
0.178964
0.177032
0.175148
0.17329
0.171438
0.169576
0.167688
0.165754
0.163772
0.161737
0.159635
0.157469
0.155248
0.152981
0.150691
0.148396
0.146103
0.143816
0.141556
0.139293
0.137014
0.134687
0.13227
0.129764
0.127178
0.124516
0.121798
0.119049
0.116284
0.113517
0.110762
0.10803
0.105315
0.102623
0.0999473
0.0972822
0.0946252
0.0919726
0.0893134
0.0866409
0.0839459
0.0812281
0.0784827
0.0757001
0.0728732
0.0700057
0.0671046
0.0641771
0.0612209
0.0582441
0.0552625
0.052292
0.0493473
0.046447
0.0436317
0.0409415
0.0384049
0.0360553
0.0339195
0.0319203
0.0299905
0.0281199
0.0261975
0.0242005
0.022046
0.019686
0.0170567
0.0141073
0.0107948
0.00759676
0.00448108
0.00142456
-0.00159128
-0.00458118
-0.00755713
-0.0105286
-0.0135031
-0.0164861
-0.0194816
-0.0224922
-0.0255198
-0.0285651
-0.0316286
-0.0347101
-0.037809
-0.0409249
-0.0440567
-0.0472036
-0.0503647
-0.0535388
-0.056725
-0.0599223
-0.0631297
-0.0663463
-0.0695713
-0.0728038
-0.0760431
-0.0792883
-0.0825388
-0.0857939
-0.089053
-0.0923155
-0.0955808
-0.0988484
-0.102118
-0.105388
-0.10866
0.218488
0.214319
0.210253
0.206329
0.202574
0.199013
0.195669
0.19256
0.189676
0.187004
0.18453
0.182221
0.180046
0.177973
0.175975
0.174027
0.172104
0.170188
0.16826
0.166304
0.164301
0.162247
0.160134
0.157948
0.155692
0.153373
0.151003
0.148603
0.146198
0.1438
0.14142
0.139076
0.136751
0.13442
0.132052
0.129596
0.127044
0.124403
0.121675
0.11888
0.116044
0.113186
0.110325
0.10748
0.104659
0.101859
0.0990901
0.0963483
0.0936228
0.0909148
0.0882182
0.0855237
0.0828237
0.0801047
0.077364
0.0745966
0.0717924
0.068941
0.0660456
0.0631145
0.0601555
0.0571698
0.0541667
0.0511651
0.0481825
0.0452378
0.042351
0.0395534
0.0368867
0.0343816
0.0320687
0.0299711
0.0280385
0.02618
0.0243977
0.0225992
0.0207417
0.0187529
0.0165902
0.0141856
0.0114857
0.00843845
0.00549052
0.0026064
-0.000238126
-0.00306122
-0.00587716
-0.00869719
-0.0115299
-0.0143814
-0.017256
-0.0201563
-0.0230836
-0.0260384
-0.0290201
-0.0320281
-0.0350611
-0.0381178
-0.0411967
-0.0442962
-0.0474147
-0.0505509
-0.0537031
-0.0568699
-0.0600502
-0.0632424
-0.0664456
-0.0696586
-0.0728803
-0.0761099
-0.0793463
-0.0825888
-0.0858366
-0.0890889
-0.0923451
-0.0956046
-0.0988666
-0.102131
-0.105396
-0.108662
0.218474
0.214254
0.210118
0.206138
0.202341
0.198738
0.195345
0.192173
0.189221
0.186478
0.183933
0.181557
0.179319
0.177187
0.175133
0.17313
0.171147
0.169168
0.167175
0.165152
0.163079
0.16095
0.158755
0.156482
0.154131
0.151711
0.149233
0.146719
0.144195
0.141678
0.139187
0.136735
0.134318
0.131907
0.129469
0.126961
0.124357
0.121662
0.11887
0.115996
0.113069
0.110108
0.107142
0.104187
0.101256
0.0983511
0.0954856
0.0926592
0.089859
0.0870907
0.0843464
0.0816186
0.0788977
0.0761637
0.0734086
0.0706261
0.0678074
0.0649362
0.0620147
0.0590514
0.0560552
0.0530315
0.049992
0.0469577
0.0439491
0.0409905
0.0381049
0.0353191
0.0326695
0.0301891
0.0279056
0.025838
0.0239554
0.02216
0.0204476
0.0187611
0.0170413
0.0152253
0.0132716
0.0111158
0.00870008
0.00595815
0.0032945
0.000666815
-0.00194635
-0.00456102
-0.00719051
-0.00984501
-0.0125317
-0.0152552
-0.018018
-0.0208209
-0.0236636
-0.0265449
-0.0294629
-0.0324156
-0.0354005
-0.0384155
-0.041458
-0.0445258
-0.0476168
-0.0507287
-0.0538597
-0.0570079
-0.0601717
-0.0633494
-0.0665397
-0.0697412
-0.0729526
-0.0761729
-0.079401
-0.0826359
-0.0858768
-0.0891228
-0.0923731
-0.0956269
-0.0988837
-0.102143
-0.105403
-0.108665
0.218428
0.214154
0.209999
0.206002
0.202187
0.198567
0.19515
0.191938
0.188931
0.186125
0.183513
0.181079
0.178795
0.176624
0.17453
0.172482
0.170452
0.168417
0.166363
0.164275
0.162133
0.159927
0.157649
0.155292
0.152855
0.150341
0.147762
0.145139
0.14249
0.139845
0.137227
0.13465
0.132116
0.1296
0.127059
0.12447
0.121795
0.119029
0.116168
0.113215
0.110193
0.10712
0.104035
0.100954
0.0978943
0.0948646
0.0918781
0.08894
0.086044
0.0831986
0.0804006
0.0776426
0.0749098
0.0721726
0.0694136
0.0666239
0.0637982
0.0609145
0.0579695
0.0549719
0.051932
0.0488595
0.045769
0.0426837
0.0396294
0.0366353
0.0337269
0.030936
0.0282869
0.0258152
0.0235474
0.0215017
0.0196514
0.0179101
0.0162594
0.0146685
0.0130812
0.011441
0.00971942
0.0078541
0.00577697
0.00338362
0.00104166
-0.0013112
-0.00367783
-0.0060701
-0.0085016
-0.0109821
-0.0135171
-0.0161091
-0.0187583
-0.0214632
-0.0242215
-0.0270301
-0.0298855
-0.0327841
-0.0357224
-0.038697
-0.0417046
-0.0447421
-0.0478065
-0.0508954
-0.0540063
-0.0571368
-0.060285
-0.0634491
-0.0666272
-0.0698179
-0.0730197
-0.0762314
-0.0794517
-0.0826796
-0.085914
-0.0891541
-0.0923989
-0.0956476
-0.0988995
-0.102154
-0.10541
-0.108667
0.218433
0.214148
0.209971
0.205965
0.20215
0.198536
0.195119
0.191884
0.188831
0.185967
0.183294
0.180812
0.178497
0.176308
0.174195
0.172121
0.170056
0.167973