/*--------------------------------*- C++ -*----------------------------------*\
  =========                 |
  \\      /  F ield         | OpenFOAM: The Open Source CFD Toolbox
   \\    /   O peration     | Website:  https://openfoam.org
    \\  /    A nd           | Version:  6
     \\/     M anipulation  |
\*---------------------------------------------------------------------------*/
FoamFile
{
    version     2.0;
    format      ascii;
    class       volVectorField;
    location    "2200";
    object      U;
}
// * * * * * * * * * * * * * * * * * * * * * * * * * * * * * * * * * * * * * //

dimensions      [0 1 -1 0 0 0 0];

internalField   nonuniform List<vector> 
4800
(
(-0.000330871 0 -0.000154015)
(0.000437649 0 -0.000320307)
(0.000643117 0 -0.000269957)
(0.000843379 0 -6.3425e-05)
(0.000967792 0 -0.000268807)
(0.00112052 0 -0.000115223)
(0.00121408 0 0.000135401)
(0.00118413 0 -0.000112864)
(0.0011961 0 -4.93201e-05)
(0.00124899 0 8.02405e-05)
(0.00125149 0 -5.26974e-05)
(0.00125372 0 -6.24623e-05)
(0.00127319 0 -8.7334e-05)
(0.00131456 0 -2.44441e-05)
(0.001341 0 -7.98354e-05)
(0.00134432 0 -0.000125816)
(0.00136561 0 -0.000121572)
(0.00139992 0 -8.39458e-05)
(0.00140029 0 -0.000115562)
(0.00139921 0 -0.000125113)
(0.00140663 0 -0.0001396)
(0.00142915 0 -0.000161389)
(0.00146124 0 -0.000129169)
(0.00147106 0 -7.45305e-05)
(0.00147146 0 -6.47266e-05)
(0.00147537 0 -6.24456e-05)
(0.00148718 0 -5.98556e-05)
(0.00149599 0 -4.40911e-05)
(0.00149382 0 -3.70583e-05)
(0.00148532 0 -2.71796e-05)
(0.00146329 0 -2.66504e-05)
(0.00142875 0 -3.41892e-05)
(0.00141855 0 -4.8334e-05)
(0.00142023 0 -4.84813e-05)
(0.00142567 0 -4.47292e-05)
(0.00142537 0 -4.02744e-05)
(0.00141996 0 -4.00388e-05)
(0.00140443 0 -4.77834e-05)
(0.00137882 0 -4.31881e-05)
(0.00135144 0 -5.28454e-05)
(0.00132471 0 -6.24767e-05)
(0.00131524 0 -5.78225e-05)
(0.0013182 0 -5.80356e-05)
(0.00132903 0 -5.54662e-05)
(0.0013418 0 -4.92091e-05)
(0.00135592 0 -5.36606e-05)
(0.00137744 0 -5.57517e-05)
(0.00140472 0 -4.03387e-05)
(0.00143244 0 -3.52186e-05)
(0.00146427 0 -4.92885e-05)
(0.00150123 0 -4.20859e-05)
(0.00153598 0 -3.29263e-05)
(0.00157397 0 -3.7584e-05)
(0.00161956 0 -4.16102e-05)
(0.00166467 0 -1.50301e-05)
(0.00169858 0 -2.54555e-05)
(0.00173295 0 -6.42847e-05)
(0.0017793 0 -5.74401e-05)
(0.00179219 0 -3.16573e-05)
(0.00179032 0 -1.97585e-05)
(0.00178929 0 -1.11402e-05)
(0.00177966 0 -4.64751e-05)
(0.0017616 0 2.33526e-05)
(0.00172478 0 -1.48755e-05)
(0.00165114 0 -0.00014859)
(0.00163118 0 -1.0156e-05)
(0.00161681 0 -7.21098e-07)
(0.00158235 0 1.078e-06)
(0.00153559 0 5.08266e-05)
(0.00151276 0 -2.71871e-06)
(0.00149188 0 3.97004e-05)
(0.00146191 0 -5.48155e-05)
(0.00141307 0 0.000103451)
(0.00134853 0 -0.0001319)
(0.00125736 0 0.000209877)
(0.00113318 0 -0.000266343)
(0.00101894 0 0.000306716)
(0.000638289 0 -0.000585909)
(0.000782319 0 0.000244642)
(-0.000505111 0 -0.000510577)
(9.53475e-07 0 -0.000372743)
(-9.60829e-11 0 -4.25115e-10)
(-2.32104e-12 0 -9.55421e-13)
(-4.33904e-12 0 -2.73277e-13)
(-3.94917e-12 0 -1.16121e-13)
(-3.74405e-12 0 -8.8027e-14)
(-3.56088e-12 0 -9.4093e-14)
(-3.35697e-12 0 -1.08692e-13)
(-3.12353e-12 0 -1.23744e-13)
(-2.86222e-12 0 -1.36486e-13)
(-2.57879e-12 0 -1.45867e-13)
(-2.28024e-12 0 -1.51591e-13)
(-1.97384e-12 0 -1.53722e-13)
(-1.66652e-12 0 -1.52525e-13)
(-1.36455e-12 0 -1.48373e-13)
(-1.07342e-12 0 -1.41701e-13)
(-7.97708e-13 0 -1.32965e-13)
(-5.41095e-13 0 -1.22623e-13)
(-3.06355e-13 0 -1.11114e-13)
(-9.54205e-14 0 -9.88414e-14)
(9.05392e-14 0 -8.6166e-14)
(2.51031e-13 0 -7.34012e-14)
(3.86139e-13 0 -6.08101e-14)
(4.96423e-13 0 -4.86062e-14)
(5.82825e-13 0 -3.6956e-14)
(6.46576e-13 0 -2.59833e-14)
(6.89118e-13 0 -1.57741e-14)
(7.12034e-13 0 -6.38251e-15)
(7.16987e-13 0 2.16436e-15)
(7.05673e-13 0 9.86042e-15)
(6.79787e-13 0 1.67158e-14)
(6.40988e-13 0 2.27523e-14)
(5.90887e-13 0 2.79992e-14)
(5.3103e-13 0 3.24902e-14)
(4.62898e-13 0 3.62603e-14)
(3.87898e-13 0 3.93436e-14)
(3.07375e-13 0 4.1772e-14)
(2.22612e-13 0 4.35749e-14)
(1.3483e-13 0 4.47837e-14)
(4.51665e-14 0 4.54513e-14)
(-5.36139e-05 0 -0.00032661)
(0.000335621 0 -0.00039309)
(0.000600288 0 -0.000396813)
(0.000756437 0 -0.000497128)
(0.00100995 0 -6.22953e-05)
(0.00107921 0 -8.85861e-05)
(0.00111212 0 -0.000107413)
(0.00116378 0 -1.48721e-05)
(0.00115662 0 3.0125e-05)
(0.00112666 0 -3.9901e-05)
(0.00113129 0 -8.98936e-05)
(0.00116929 0 -4.68739e-05)
(0.00118192 0 2.59618e-05)
(0.00117593 0 1.41351e-05)
(0.00117193 0 -3.4061e-05)
(0.00118005 0 -5.14418e-05)
(0.00121322 0 -2.22541e-05)
(0.00126134 0 -4.65437e-07)
(0.00131541 0 1.43211e-05)
(0.00135431 0 6.26016e-05)
(0.0013528 0 7.19958e-05)
(0.00133312 0 7.65223e-05)
(0.00130732 0 5.47558e-05)
(0.00130427 0 4.08451e-05)
(0.00129925 0 4.50355e-05)
(0.00129105 0 3.66699e-05)
(0.0012928 0 3.29308e-05)
(0.00129998 0 3.72356e-05)
(0.00130449 0 3.49152e-05)
(0.00130268 0 6.0736e-05)
(0.0012919 0 6.668e-05)
(0.00127312 0 6.04399e-05)
(0.00126049 0 7.41783e-05)
(0.00124905 0 2.09959e-05)
(0.0012487 0 3.64159e-05)
(0.00124324 0 4.13172e-05)
(0.00122786 0 4.84011e-05)
(0.0012242 0 7.56367e-05)
(0.00122034 0 7.32512e-05)
(0.00120468 0 7.96891e-05)
(0.00117849 0 8.80425e-05)
(0.00115145 0 5.74105e-05)
(0.00114771 0 4.3295e-05)
(0.00114902 0 4.02588e-05)
(0.00114547 0 2.31713e-05)
(0.00115078 0 1.10073e-05)
(0.00117073 0 5.71015e-06)
(0.00119472 0 -1.22994e-05)
(0.0012165 0 -2.23414e-05)
(0.00124868 0 -2.15745e-05)
(0.0012899 0 -2.90081e-05)
(0.0013231 0 -5.91975e-05)
(0.0013588 0 -5.24913e-05)
(0.00139791 0 -4.52708e-05)
(0.00143309 0 -5.6669e-05)
(0.00146356 0 -4.99e-05)
(0.00150545 0 -2.06859e-05)
(0.0015566 0 -1.70565e-06)
(0.00155944 0 2.44558e-07)
(0.00155455 0 7.27804e-06)
(0.00154531 0 1.07273e-05)
(0.00153177 0 7.94444e-05)
(0.00149422 0 -7.30266e-05)
(0.00149438 0 3.50765e-05)
(0.00149314 0 7.19467e-05)
(0.00148497 0 8.08941e-05)
(0.00146906 0 7.16944e-05)
(0.00143558 0 2.75203e-05)
(0.00139321 0 3.56569e-05)
(0.00135474 0 4.47341e-05)
(0.00132082 0 7.3747e-05)
(0.00128046 0 1.79697e-05)
(0.00124321 0 0.000127431)
(0.0011962 0 6.25565e-05)
(0.00111605 0 0.000263821)
(0.00104593 0 0.000149563)
(0.000952273 0 0.000358573)
(0.000836196 0 0.00038303)
(0.000709097 0 0.000438256)
(0.000519068 0 0.000497452)
(1.61854e-06 0 0.000453672)
(-5.80454e-10 0 -3.27653e-10)
(-1.62483e-12 0 -5.48498e-13)
(-3.4997e-12 0 -2.94436e-13)
(-3.7638e-12 0 -2.18895e-13)
(-3.72185e-12 0 -2.29515e-13)
(-3.58135e-12 0 -2.73327e-13)
(-3.38652e-12 0 -3.25102e-13)
(-3.15133e-12 0 -3.73119e-13)
(-2.88435e-12 0 -4.12395e-13)
(-2.59389e-12 0 -4.4084e-13)
(-2.2881e-12 0 -4.57947e-13)
(-1.97478e-12 0 -4.64083e-13)
(-1.66117e-12 0 -4.60124e-13)
(-1.35372e-12 0 -4.47242e-13)
(-1.05801e-12 0 -4.26773e-13)
(-7.78631e-13 0 -4.00118e-13)
(-5.19245e-13 0 -3.68666e-13)
(-2.82573e-13 0 -3.33745e-13)
(-7.04722e-14 0 -2.96576e-13)
(1.15979e-13 0 -2.58247e-13)
(2.76387e-13 0 -2.19701e-13)
(4.10934e-13 0 -1.81725e-13)
(5.20277e-13 0 -1.44957e-13)
(6.05448e-13 0 -1.09892e-13)
(6.67758e-13 0 -7.68977e-14)
(7.08719e-13 0 -4.62255e-14)
(7.29972e-13 0 -1.80319e-14)
(7.3323e-13 0 7.60672e-15)
(7.20225e-13 0 3.06774e-14)
(6.92678e-13 0 5.12151e-14)
(6.52271e-13 0 6.92891e-14)
(6.00624e-13 0 8.4991e-14)
(5.39291e-13 0 9.84247e-14)
(4.69751e-13 0 1.09697e-13)
(3.9341e-13 0 1.18912e-13)
(3.11607e-13 0 1.26166e-13)
(2.25624e-13 0 1.31542e-13)
(1.36706e-13 0 1.35116e-13)
(4.5834e-14 0 1.36961e-13)
(-0.000337935 0 -0.000698055)
(0.000622148 0 -0.000463809)
(0.000780293 0 -0.000443985)
(0.000784526 0 -0.000597392)
(0.000991111 0 -0.000311114)
(0.00106303 0 -0.000261333)
(0.0011117 0 7.32958e-06)
(0.00111779 0 4.98204e-06)
(0.00110648 0 -1.43479e-05)
(0.001097 0 -2.70087e-05)
(0.00110001 0 -3.04046e-05)
(0.00108889 0 -3.79026e-05)
(0.00106514 0 -4.32787e-05)
(0.00105838 0 -2.27215e-05)
(0.00106348 0 -2.85959e-05)
(0.00108709 0 -7.32909e-05)
(0.00114907 0 -7.10544e-05)
(0.00118595 0 -3.59685e-05)
(0.00119051 0 -4.89272e-05)
(0.0012003 0 -5.28504e-05)
(0.00120564 0 -4.72576e-05)
(0.00120107 0 -5.54914e-05)
(0.00118451 0 -1.69843e-05)
(0.00116409 0 -3.53939e-06)
(0.00115292 0 -2.75402e-05)
(0.00114103 0 -5.69499e-05)
(0.00112787 0 -3.81455e-05)
(0.00110745 0 -3.74623e-05)
(0.00108756 0 -1.9595e-05)
(0.00106464 0 1.23031e-05)
(0.00102458 0 2.38019e-05)
(0.000988197 0 3.17959e-05)
(0.000957532 0 7.63606e-06)
(0.000923517 0 -1.40902e-05)
(0.000921354 0 1.05522e-05)
(0.000922838 0 7.50445e-06)
(0.000925016 0 -3.75714e-05)
(0.000926758 0 1.29491e-05)
(0.000929818 0 4.6091e-05)
(0.000935852 0 7.38999e-06)
(0.000944197 0 6.70314e-06)
(0.000959997 0 1.16442e-05)
(0.000976057 0 -5.35151e-05)
(0.00100446 0 3.73304e-05)
(0.00101106 0 -4.3952e-05)
(0.00101113 0 -8.00821e-05)
(0.00102338 0 -8.94083e-05)
(0.00104942 0 -0.000102016)
(0.00106608 0 -0.000122644)
(0.00108323 0 -0.000111638)
(0.0011212 0 -0.000110272)
(0.00116721 0 -0.00016711)
(0.00121102 0 -0.000152697)
(0.00123986 0 -0.000109421)
(0.0012711 0 -7.40865e-05)
(0.00130973 0 -8.74137e-05)
(0.00133857 0 -0.000168933)
(0.00135636 0 -3.59756e-05)
(0.00135841 0 -1.36424e-05)
(0.00136331 0 6.11622e-06)
(0.00135724 0 2.26953e-05)
(0.001339 0 -3.00839e-06)
(0.00131586 0 3.08267e-05)
(0.00129543 0 0.000112517)
(0.00127708 0 0.000102443)
(0.00125384 0 7.98593e-05)
(0.0012348 0 9.22281e-05)
(0.00121872 0 7.83327e-05)
(0.00119689 0 8.23167e-05)
(0.00116506 0 8.97196e-05)
(0.00112735 0 6.12638e-05)
(0.00107473 0 0.000109406)
(0.0010471 0 9.86103e-05)
(0.00101685 0 0.000103375)
(0.000955873 0 0.000216866)
(0.000915206 0 3.79995e-05)
(0.000767736 0 0.000455815)
(0.000771296 0 0.00036829)
(0.000632089 0 0.000483683)
(0.000434828 0 0.000609217)
(3.38163e-07 0 0.000537544)
(-7.11086e-10 0 1.65612e-09)
(-2.05628e-12 0 5.8066e-14)
(-4.00938e-12 0 -1.36791e-13)
(-3.88403e-12 0 -2.35264e-13)
(-3.79817e-12 0 -3.37568e-13)
(-3.6561e-12 0 -4.44337e-13)
(-3.45655e-12 0 -5.44794e-13)
(-3.21083e-12 0 -6.30959e-13)
(-2.92994e-12 0 -6.98859e-13)
(-2.62434e-12 0 -7.46874e-13)
(-2.30349e-12 0 -7.75001e-13)
(-1.97602e-12 0 -7.84271e-13)
(-1.64968e-12 0 -7.76379e-13)
(-1.3312e-12 0 -7.53435e-13)
(-1.02629e-12 0 -7.17775e-13)
(-7.39601e-13 0 -6.71813e-13)
(-4.74723e-13 0 -6.1793e-13)
(-2.34265e-13 0 -5.58382e-13)
(-1.99228e-14 0 -4.95233e-13)
(1.67414e-13 0 -4.30317e-13)
(3.27553e-13 0 -3.65207e-13)
(4.60883e-13 0 -3.01215e-13)
(5.68256e-13 0 -2.39394e-13)
(6.50884e-13 0 -1.80555e-13)
(7.10243e-13 0 -1.25291e-13)
(7.47984e-13 0 -7.40059e-14)
(7.65866e-13 0 -2.69397e-14)
(7.65696e-13 0 1.57985e-14)
(7.49282e-13 0 5.42039e-14)
(7.18398e-13 0 8.83501e-14)
(6.74764e-13 0 1.18366e-13)
(6.20022e-13 0 1.44416e-13)
(5.55736e-13 0 1.66682e-13)
(4.83385e-13 0 1.85351e-13)
(4.04367e-13 0 2.00601e-13)
(3.20005e-13 0 2.12594e-13)
(2.31562e-13 0 2.21469e-13)
(1.40248e-13 0 2.27332e-13)
(4.70113e-14 0 2.30247e-13)
(0.000261452 0 -0.000968529)
(0.000303125 0 -0.000975549)
(0.000640281 0 -0.000765356)
(0.000726248 0 -0.000741607)
(0.000989722 0 -0.00036869)
(0.00106005 0 -0.000165405)
(0.00108139 0 -3.14985e-05)
(0.00109332 0 -5.94554e-06)
(0.00110702 0 -9.48399e-06)
(0.00110223 0 -9.55179e-06)
(0.00107912 0 -1.73023e-05)
(0.00104158 0 -3.35566e-05)
(0.00102374 0 -2.74788e-05)
(0.00102006 0 -1.00248e-05)
(0.00101368 0 -4.55172e-05)
(0.00101836 0 -0.000120239)
(0.00106889 0 -0.000139794)
(0.00112747 0 -0.000162293)
(0.00114173 0 -7.35751e-05)
(0.00114692 0 -2.52705e-05)
(0.00114524 0 6.94424e-06)
(0.00113024 0 3.19563e-05)
(0.00109681 0 7.93096e-06)
(0.00104599 0 3.96736e-05)
(0.000999589 0 5.22113e-05)
(0.000966016 0 4.16045e-05)
(0.000927384 0 4.63905e-05)
(0.000876296 0 4.2692e-05)
(0.000825544 0 6.93282e-05)
(0.000787459 0 0.000123423)
(0.000771262 0 0.000107294)
(0.000766718 0 9.06261e-05)
(0.000763045 0 7.11545e-05)
(0.00075928 0 4.22166e-05)
(0.00075866 0 2.50097e-05)
(0.00076362 0 1.43113e-05)
(0.000779624 0 6.37249e-05)
(0.00079733 0 4.45372e-05)
(0.000807921 0 -2.70188e-06)
(0.000820731 0 -1.73141e-06)
(0.000834441 0 -3.16732e-06)
(0.000849324 0 -6.37518e-06)
(0.000864262 0 5.49523e-06)
(0.000881519 0 -2.86525e-05)
(0.00088009 0 -3.84242e-05)
(0.000873677 0 -4.97252e-05)
(0.000878513 0 -5.44044e-05)
(0.00089933 0 -4.68368e-05)
(0.000930764 0 -7.26103e-05)
(0.000939134 0 -0.000131955)
(0.000967149 0 -0.000110119)
(0.00100396 0 -0.000140761)
(0.00103286 0 -0.000142195)
(0.00104578 0 -0.000149537)
(0.00107206 0 -0.0001466)
(0.00112176 0 -0.000105212)
(0.00112075 0 -9.66491e-05)
(0.00111341 0 -7.02059e-05)
(0.00111911 0 -5.56152e-05)
(0.00113347 0 -6.73051e-06)
(0.00113693 0 3.27241e-05)
(0.00112955 0 4.89278e-05)
(0.00110944 0 6.2746e-05)
(0.00108065 0 7.70168e-05)
(0.00105193 0 6.76578e-05)
(0.00102649 0 6.30631e-05)
(0.00100924 0 5.76349e-05)
(0.00100124 0 7.72864e-05)
(0.000996668 0 9.99284e-05)
(0.000988633 0 0.000120628)
(0.000973445 0 0.000133395)
(0.000943555 0 0.000131155)
(0.000884652 0 0.000211131)
(0.000827496 0 0.000318299)
(0.000782486 0 0.000399309)
(0.000781432 0 0.000316759)
(0.000617742 0 0.000479575)
(0.000538971 0 0.000568385)
(0.000412988 0 0.000675008)
(0.000340454 0 0.000729754)
(-3.99021e-07 0 0.000706308)
(-1.45893e-12 0 1.78492e-12)
(-3.01349e-12 0 -7.35587e-14)
(-3.79296e-12 0 -7.54331e-14)
(-3.96438e-12 0 -2.48017e-13)
(-3.93064e-12 0 -4.41374e-13)
(-3.78824e-12 0 -6.21869e-13)
(-3.57295e-12 0 -7.78787e-13)
(-3.30538e-12 0 -9.07252e-13)
(-3.00026e-12 0 -1.0054e-12)
(-2.67003e-12 0 -1.07299e-12)
(-2.32549e-12 0 -1.1111e-12)
(-1.97616e-12 0 -1.1218e-12)
(-1.63033e-12 0 -1.10787e-12)
(-1.29512e-12 0 -1.07252e-12)
(-9.76385e-13 0 -1.01925e-12)
(-6.78786e-13 0 -9.5159e-13)
(-4.05814e-13 0 -8.73013e-13)
(-1.59876e-13 0 -7.86764e-13)
(5.75931e-14 0 -6.95797e-13)
(2.46006e-13 0 -6.0271e-13)
(4.05489e-13 0 -5.09719e-13)
(5.36747e-13 0 -4.18652e-13)
(6.40937e-13 0 -3.30961e-13)
(7.1955e-13 0 -2.47749e-13)
(7.74306e-13 0 -1.6981e-13)
(8.0707e-13 0 -9.76666e-14)
(8.19777e-13 0 -3.16152e-14)
(8.14373e-13 0 2.82306e-14)
(7.92776e-13 0 8.19e-14)
(7.56841e-13 0 1.29528e-13)
(7.08337e-13 0 1.71325e-13)
(6.4894e-13 0 2.07542e-13)
(5.80226e-13 0 2.38456e-13)
(5.0367e-13 0 2.64344e-13)
(4.20653e-13 0 2.85468e-13)
(3.32475e-13 0 3.02063e-13)
(2.40362e-13 0 3.1433e-13)
(1.45485e-13 0 3.22422e-13)
(4.87488e-14 0 3.2644e-13)
(0.000161001 0 -0.00123876)
(0.000336012 0 -0.00112658)
(0.000519323 0 -0.000959266)
(0.000642879 0 -0.000797511)
(0.000754143 0 -0.000668576)
(0.000890895 0 -0.000309067)
(0.000944815 0 -0.000150576)
(0.0010008 0 -6.3284e-05)
(0.00108146 0 -1.26427e-05)
(0.00111863 0 2.99529e-05)
(0.00110183 0 3.70838e-05)
(0.00104856 0 2.33827e-05)
(0.00101508 0 2.27666e-05)
(0.00101817 0 6.70164e-05)
(0.00102582 0 -3.73835e-05)
(0.00101567 0 -0.000186883)
(0.00104451 0 -0.000223511)
(0.0010926 0 -9.27669e-05)
(0.00108702 0 -6.94918e-05)
(0.00107654 0 -8.75881e-06)
(0.00106586 0 7.8239e-06)
(0.00104514 0 3.42961e-05)
(0.00100749 0 8.75656e-05)
(0.000953586 0 6.0063e-05)
(0.000893792 0 1.42027e-05)
(0.000842223 0 2.99115e-05)
(0.000782898 0 3.73298e-05)
(0.000723409 0 6.36277e-05)
(0.000693241 0 4.06005e-05)
(0.000675944 0 4.59767e-05)
(0.000673794 0 5.27918e-05)
(0.000680465 0 4.34599e-05)
(0.000690847 0 1.69175e-05)
(0.000694273 0 -2.39469e-06)
(0.000691604 0 -3.71878e-06)
(0.000686554 0 6.0766e-06)
(0.000685971 0 -4.00814e-06)
(0.000690122 0 -1.1329e-05)
(0.000703358 0 1.59451e-05)
(0.000720937 0 1.44692e-05)
(0.000724254 0 3.96623e-06)
(0.000721387 0 -5.75507e-06)
(0.000723438 0 -2.68502e-05)
(0.000742712 0 1.30027e-05)
(0.000762794 0 -4.19024e-05)
(0.000758895 0 -7.98691e-05)
(0.000763516 0 -8.2392e-05)
(0.000762531 0 -0.00015322)
(0.000806493 0 -4.40668e-05)
(0.000800052 0 -0.000178912)
(0.000806023 0 -0.000197837)
(0.000823316 0 -0.000167679)
(0.000832144 0 -0.000158148)
(0.000841928 0 -0.000140993)
(0.000853004 0 -0.000127253)
(0.000869568 0 -9.84557e-05)
(0.000870844 0 -9.27773e-05)
(0.000870362 0 -6.50306e-05)
(0.000872533 0 -1.45583e-05)
(0.000873835 0 -1.96934e-06)
(0.000878337 0 3.97585e-05)
(0.000875588 0 4.68684e-05)
(0.000864367 0 7.46794e-05)
(0.000852602 0 9.18636e-05)
(0.000845529 0 9.71821e-05)
(0.000837843 0 0.000110684)
(0.000822711 0 0.000105234)
(0.000803958 0 8.31999e-05)
(0.000797725 0 9.45723e-05)
(0.000791724 0 0.000107234)
(0.000786526 0 0.000142739)
(0.000779175 0 0.000153349)
(0.000762164 0 0.000154661)
(0.000760991 0 0.000147457)
(0.000723419 0 0.000317736)
(0.000683605 0 0.000386903)
(0.000541201 0 0.000566279)
(0.000498908 0 0.000634492)
(0.000341723 0 0.000764675)
(0.000276569 0 0.000872389)
(-1.25597e-07 0 0.000905341)
(-2.04418e-12 0 2.03242e-12)
(-3.91663e-12 0 7.42429e-13)
(-4.18374e-12 0 1.56851e-13)
(-4.24976e-12 0 -2.40087e-13)
(-4.17174e-12 0 -5.58151e-13)
(-3.9932e-12 0 -8.23075e-13)
(-3.74178e-12 0 -1.04116e-12)
(-3.43742e-12 0 -1.21395e-12)
(-3.09568e-12 0 -1.34258e-12)
(-2.73004e-12 0 -1.42866e-12)
(-2.3523e-12 0 -1.47469e-12)
(-1.97279e-12 0 -1.48406e-12)
(-1.60039e-12 0 -1.46084e-12)
(-1.24258e-12 0 -1.4096e-12)
(-9.05363e-13 0 -1.33516e-12)
(-5.93368e-13 0 -1.24235e-12)
(-3.09897e-13 0 -1.13582e-12)
(-5.70481e-14 0 -1.01991e-12)
(1.64132e-13 0 -8.98522e-13)
(3.53491e-13 0 -7.75044e-13)
(5.11611e-13 0 -6.5234e-13)
(6.39641e-13 0 -5.32742e-13)
(7.39159e-13 0 -4.18074e-13)
(8.12035e-13 0 -3.09694e-13)
(8.60325e-13 0 -2.08554e-13)
(8.86179e-13 0 -1.15254e-13)
(8.91763e-13 0 -3.01026e-14)
(8.79211e-13 0 4.68225e-14)
(8.5058e-13 0 1.15622e-13)
(8.07823e-13 0 1.76524e-13)
(7.52777e-13 0 2.29847e-13)
(6.87154e-13 0 2.75958e-13)
(6.12538e-13 0 3.15244e-13)
(5.30397e-13 0 3.48088e-13)
(4.42087e-13 0 3.7485e-13)
(3.48868e-13 0 3.9585e-13)
(2.51921e-13 0 4.11355e-13)
(1.52358e-13 0 4.21574e-13)
(5.10289e-14 0 4.26646e-13)
(-2.22974e-05 0 -0.00144967)
(0.000279496 0 -0.00131635)
(0.000487937 0 -0.00106957)
(0.000515605 0 -0.000885108)
(0.00062593 0 -0.00071285)
(0.000793614 0 -0.00029187)
(0.000822781 0 -0.000200249)
(0.000881108 0 -0.000161185)
(0.000992978 0 -0.00010019)
(0.00111817 0 -3.93363e-05)
(0.00116973 0 2.90455e-05)
(0.00116945 0 2.43343e-05)
(0.00116014 0 -1.40738e-05)
(0.00115827 0 -2.15469e-05)
(0.00115885 0 -8.47397e-05)
(0.00113977 0 -0.000115387)
(0.00107069 0 -0.000229972)
(0.00107364 0 -0.000100286)
(0.00106778 0 -7.3291e-05)
(0.00104357 0 -1.71566e-05)
(0.00101462 0 5.38828e-05)
(0.00098523 0 8.84409e-05)
(0.000933652 0 0.000140009)
(0.000875251 0 0.000130149)
(0.000801886 0 0.000196923)
(0.000739118 0 0.000198016)
(0.000695317 0 0.00013417)
(0.000670231 0 0.000127552)
(0.00064952 0 0.00014125)
(0.000631811 0 0.00013903)
(0.000631833 0 8.25586e-05)
(0.000634293 0 7.28295e-05)
(0.000640427 0 5.50659e-05)
(0.000639827 0 4.81467e-05)
(0.000631043 0 3.88954e-05)
(0.000624006 0 1.4075e-05)
(0.000621047 0 6.62481e-06)
(0.00061282 0 3.05916e-06)
(0.000608032 0 7.93268e-06)
(0.000611052 0 -6.7768e-06)
(0.0006215 0 1.27663e-05)
(0.000627971 0 -1.83166e-05)
(0.000630938 0 -4.16714e-05)
(0.000638462 0 -3.50878e-05)
(0.000654964 0 -2.77447e-05)
(0.00066342 0 -6.03781e-05)
(0.000660764 0 -0.00010148)
(0.000654237 0 -0.000108989)
(0.000653199 0 -0.000130822)
(0.000664615 0 -0.000129727)
(0.000664998 0 -0.000123495)
(0.000652327 0 -0.000141341)
(0.000642841 0 -0.00016891)
(0.000642762 0 -0.00016494)
(0.00063685 0 -0.000168891)
(0.000635662 0 -0.000143398)
(0.000639201 0 -0.000108168)
(0.000638724 0 -8.06408e-05)
(0.000640338 0 -4.20138e-05)
(0.000639635 0 -9.80503e-06)
(0.000637387 0 3.37263e-05)
(0.000633811 0 6.62206e-05)
(0.000632205 0 9.0406e-05)
(0.000635163 0 0.00011429)
(0.000639936 0 0.000131306)
(0.000639674 0 0.000135889)
(0.000638635 0 0.000121792)
(0.000639727 0 0.000116695)
(0.000638056 0 0.00011977)
(0.000629076 0 0.000133376)
(0.000631348 0 0.000138592)
(0.00065511 0 0.000143358)
(0.000662072 0 0.000263249)
(0.000619906 0 0.000353859)
(0.000572167 0 0.000458769)
(0.000504629 0 0.000574607)
(0.000510226 0 0.000625635)
(0.000364238 0 0.000787461)
(0.00028511 0 0.000893704)
(0.000251025 0 0.00100881)
(-4.97254e-07 0 0.00108097)
(-2.43344e-12 0 1.73949e-12)
(-4.88847e-12 0 8.54494e-13)
(-4.77513e-12 0 2.0049e-13)
(-4.67908e-12 0 -3.11104e-13)
(-4.51333e-12 0 -7.28152e-13)
(-4.27097e-12 0 -1.0712e-12)
(-3.96367e-12 0 -1.34881e-12)
(-3.60677e-12 0 -1.56489e-12)
(-3.21497e-12 0 -1.7224e-12)
(-2.80215e-12 0 -1.82447e-12)
(-2.38089e-12 0 -1.87504e-12)
(-1.9623e-12 0 -1.87898e-12)
(-1.55588e-12 0 -1.84191e-12)
(-1.16945e-12 0 -1.76997e-12)
(-8.09132e-13 0 -1.66953e-12)
(-4.79444e-13 0 -1.54689e-12)
(-1.83376e-13 0 -1.40807e-12)
(7.74247e-14 0 -1.2586e-12)
(3.02463e-13 0 -1.10338e-12)
(4.92187e-13 0 -9.46639e-13)
(6.4779e-13 0 -7.91887e-13)
(7.71014e-13 0 -6.41929e-13)
(8.63986e-13 0 -4.98919e-13)
(9.29069e-13 0 -3.64418e-13)
(9.68747e-13 0 -2.39475e-13)
(9.85522e-13 0 -1.24707e-13)
(9.81853e-13 0 -2.03761e-14)
(9.60097e-13 0 7.35291e-14)
(9.22478e-13 0 1.57229e-13)
(8.71066e-13 0 2.31091e-13)
(8.0777e-13 0 2.95574e-13)
(7.34337e-13 0 3.5119e-13)
(6.52356e-13 0 3.98464e-13)
(5.63276e-13 0 4.37906e-13)
(4.68415e-13 0 4.69987e-13)
(3.6898e-13 0 4.95122e-13)
(2.66087e-13 0 5.1366e-13)
(1.60776e-13 0 5.25865e-13)
(5.38209e-14 0 5.3192e-13)
(0.00018177 0 -0.00164463)
(0.000243008 0 -0.00145156)
(0.000381572 0 -0.00118521)
(0.00040941 0 -0.000926487)
(0.000556946 0 -0.000718948)
(0.000733332 0 -0.00033984)
(0.000775375 0 -0.000247802)
(0.00084619 0 -0.000211018)
(0.000952254 0 -0.000185198)
(0.00106345 0 -0.00010896)
(0.0011683 0 -6.22663e-05)
(0.00128564 0 -9.67883e-06)
(0.0013487 0 3.64991e-05)
(0.00134399 0 3.91942e-05)
(0.00131892 0 4.75926e-05)
(0.00125666 0 -5.31287e-05)
(0.00114336 0 -0.000199753)
(0.00109694 0 -8.82971e-05)
(0.00108323 0 -2.92411e-05)
(0.00103951 0 1.02681e-05)
(0.000975965 0 5.29802e-05)
(0.00092224 0 0.000124937)
(0.000867191 0 0.000175123)
(0.000802536 0 0.000207274)
(0.000754272 0 0.000155831)
(0.000690718 0 0.00019861)
(0.000672026 0 0.000171993)
(0.000657167 0 0.000134576)
(0.000622666 0 0.000136282)
(0.000610565 0 9.52711e-05)
(0.000604689 0 6.40979e-05)
(0.000594357 0 3.46192e-05)
(0.000587231 0 2.51266e-05)
(0.000576211 0 8.79544e-06)
(0.000562093 0 1.10407e-05)
(0.000561198 0 2.57579e-05)
(0.000563138 0 2.51204e-05)
(0.000561907 0 1.49283e-05)
(0.000560229 0 -3.59508e-06)
(0.000560923 0 -1.18115e-05)
(0.000565039 0 -2.33921e-05)
(0.000566534 0 -2.36944e-05)
(0.000563297 0 -2.12458e-05)
(0.000550255 0 -4.13192e-05)
(0.000546987 0 -5.5147e-05)
(0.000547331 0 -7.03387e-05)
(0.000545419 0 -7.4566e-05)
(0.000538094 0 -8.58734e-05)
(0.000533527 0 -9.65178e-05)
(0.000526401 0 -0.000126725)
(0.000512861 0 -0.00015204)
(0.000505557 0 -0.000145028)
(0.000502704 0 -0.000131537)
(0.000489105 0 -0.000131996)
(0.000471259 0 -0.000114587)
(0.000447829 0 -0.000107489)
(0.000435119 0 -7.1643e-05)
(0.000427477 0 -5.05965e-05)
(0.00042108 0 -2.43128e-05)
(0.000417728 0 5.2247e-06)
(0.000419456 0 2.88731e-05)
(0.000429051 0 4.57192e-05)
(0.000438004 0 6.60338e-05)
(0.000445838 0 9.14071e-05)
(0.000458581 0 9.27418e-05)
(0.000470159 0 9.165e-05)
(0.000472114 0 8.94071e-05)
(0.000477833 0 9.009e-05)
(0.000483239 0 0.000104361)
(0.000483301 0 9.19042e-05)
(0.000501769 0 0.000114335)
(0.000530412 0 0.000149605)
(0.000496002 0 0.000306941)
(0.000512021 0 0.000302741)
(0.000503866 0 0.000401938)
(0.000559503 0 0.000480957)
(0.000477996 0 0.000692221)
(0.000437841 0 0.00083246)
(0.000364672 0 0.00098556)
(0.000246472 0 0.00113381)
(-9.1689e-09 0 0.00122159)
(-2.77382e-12 0 1.25605e-12)
(-5.45493e-12 0 7.35689e-13)
(-5.34886e-12 0 1.0168e-13)
(-5.17803e-12 0 -4.76741e-13)
(-4.93153e-12 0 -9.72228e-13)
(-4.61359e-12 0 -1.38487e-12)
(-4.23532e-12 0 -1.71796e-12)
(-3.81097e-12 0 -1.97449e-12)
(-3.35525e-12 0 -2.15776e-12)
(-2.88268e-12 0 -2.27187e-12)
(-2.40682e-12 0 -2.32213e-12)
(-1.93966e-12 0 -2.31502e-12)
(-1.49138e-12 0 -2.25795e-12)
(-1.0702e-12 0 -2.15894e-12)
(-6.82281e-13 0 -2.02618e-12)
(-3.3191e-13 0 -1.86769e-12)
(-2.16012e-14 0 -1.69105e-12)
(2.47645e-13 0 -1.50308e-12)
(4.76089e-13 0 -1.30981e-12)
(6.64982e-13 0 -1.11629e-12)
(8.16321e-13 0 -9.26677e-13)
(9.32609e-13 0 -7.44201e-13)
(1.01667e-12 0 -5.71281e-13)
(1.07148e-12 0 -4.09605e-13)
(1.10004e-12 0 -2.6024e-13)
(1.10528e-12 0 -1.23738e-13)
(1.09e-12 0 -2.3891e-16)
(1.05682e-12 0 1.10428e-13)
(1.00814e-12 0 2.08663e-13)
(9.46168e-13 0 2.95023e-13)
(8.72877e-13 0 3.70157e-13)
(7.90044e-13 0 4.34755e-13)
(6.99254e-13 0 4.89508e-13)
(6.01919e-13 0 5.35076e-13)
(4.99303e-13 0 5.7206e-13)
(3.92541e-13 0 6.00986e-13)
(2.82663e-13 0 6.22287e-13)
(1.70618e-13 0 6.36298e-13)
(5.70842e-14 0 6.43245e-13)
(-0.000107531 0 -0.00183508)
(0.000171859 0 -0.00156353)
(0.000145942 0 -0.00131402)
(0.000394929 0 -0.00100423)
(0.000462432 0 -0.00082555)
(0.000619885 0 -0.000565941)
(0.000714784 0 -0.000442691)
(0.000797711 0 -0.000369543)
(0.000911328 0 -0.000278715)
(0.00100974 0 -0.000187207)
(0.00110004 0 -0.000142839)
(0.00122097 0 -8.08069e-05)
(0.00134135 0 -3.02345e-06)
(0.0013539 0 1.54606e-05)
(0.0013325 0 3.34231e-05)
(0.00128495 0 -1.02337e-05)
(0.00119206 0 -0.000120476)
(0.00109076 0 -5.27819e-05)
(0.00104252 0 5.28629e-05)
(0.00100246 0 8.16288e-05)
(0.00093364 0 0.000132543)
(0.000861645 0 0.000182118)
(0.000787209 0 0.000241561)
(0.000732086 0 0.000234087)
(0.000675884 0 0.000268572)
(0.000659213 0 0.000227093)
(0.000645728 0 0.000199766)
(0.000625267 0 0.000182155)
(0.000614952 0 0.000112987)
(0.000593206 0 0.000128321)
(0.000575596 0 0.000106782)
(0.000566365 0 7.05488e-05)
(0.000552705 0 7.14552e-05)
(0.000530785 0 7.00547e-05)
(0.000515196 0 4.2554e-05)
(0.000509224 0 2.24534e-05)
(0.000506919 0 1.25552e-05)
(0.00051138 0 6.6285e-06)
(0.000518898 0 4.27342e-06)
(0.000518271 0 3.0772e-06)
(0.000515201 0 3.12396e-07)
(0.000506432 0 -5.82047e-06)
(0.000489545 0 -1.84335e-05)
(0.000474207 0 -2.22629e-05)
(0.000464749 0 -3.84401e-05)
(0.000453917 0 -6.14891e-05)
(0.000441831 0 -7.7839e-05)
(0.000427216 0 -0.000105742)
(0.000419473 0 -0.00011739)
(0.000415084 0 -0.000119343)
(0.000401945 0 -0.000132234)
(0.000383654 0 -0.000141216)
(0.000371219 0 -0.000132606)
(0.000354239 0 -0.000125828)
(0.00033595 0 -0.000113964)
(0.000320696 0 -9.89003e-05)
(0.000306741 0 -8.49996e-05)
(0.000297646 0 -5.56007e-05)
(0.000291562 0 -3.18317e-05)
(0.000287447 0 -6.65208e-07)
(0.00028672 0 1.95972e-05)
(0.000290666 0 4.90153e-05)
(0.000289333 0 7.12376e-05)
(0.00029248 0 7.85019e-05)
(0.000298231 0 9.5721e-05)
(0.000310598 0 0.000120113)
(0.000327412 0 9.54726e-05)
(0.000338236 0 9.25853e-05)
(0.000343303 0 0.000167566)
(0.000380859 0 6.23684e-05)
(0.000387409 0 0.000165061)
(0.000431322 0 9.40071e-05)
(0.000468451 0 0.000146166)
(0.00052519 0 0.000257894)
(0.000526925 0 0.000425385)
(0.000524493 0 0.000565535)
(0.000462709 0 0.000756326)
(0.000450214 0 0.000913908)
(0.000155111 0 0.0011679)
(0.000389737 0 0.00125602)
(-2.16338e-07 0 0.00135513)
(-3.04294e-12 0 1.66617e-12)
(-6.0421e-12 0 7.3061e-13)
(-5.98702e-12 0 -5.27484e-14)
(-5.75258e-12 0 -7.25379e-13)
(-5.42115e-12 0 -1.29923e-12)
(-5.01646e-12 0 -1.77816e-12)
(-4.55317e-12 0 -2.1637e-12)
(-4.04654e-12 0 -2.45746e-12)
(-3.51235e-12 0 -2.66239e-12)
(-2.96652e-12 0 -2.78324e-12)
(-2.42404e-12 0 -2.8267e-12)
(-1.89813e-12 0 -2.80111e-12)
(-1.3998e-12 0 -2.71605e-12)
(-9.37671e-13 0 -2.58176e-12)
(-5.17888e-13 0 -2.40864e-12)
(-1.44314e-13 0 -2.20676e-12)
(1.81234e-13 0 -1.98542e-12)
(4.58663e-13 0 -1.75296e-12)
(6.89254e-13 0 -1.51654e-12)
(8.75319e-13 0 -1.28211e-12)
(1.01988e-12 0 -1.05438e-12)
(1.12641e-12 0 -8.36956e-13)
(1.19858e-12 0 -6.32431e-13)
(1.24011e-12 0 -4.4251e-13)
(1.25461e-12 0 -2.68167e-13)
(1.24552e-12 0 -1.09785e-13)
(1.21602e-12 0 3.27125e-14)
(1.169e-12 0 1.59742e-13)
(1.10707e-12 0 2.71958e-13)
(1.03256e-12 0 3.7017e-13)
(9.47502e-13 0 4.55264e-13)
(8.53688e-13 0 5.28153e-13)
(7.52677e-13 0 5.89727e-13)
(6.45827e-13 0 6.40819e-13)
(5.34324e-13 0 6.82182e-13)
(4.19208e-13 0 7.14463e-13)
(3.014e-13 0 7.38195e-13)
(1.81733e-13 0 7.53787e-13)
(6.07676e-14 0 7.61511e-13)
(3.94306e-05 0 -0.00196419)
(0.000158733 0 -0.00165368)
(0.00022731 0 -0.00136042)
(0.000307396 0 -0.00116633)
(0.00048143 0 -0.00093462)
(0.00051309 0 -0.000790595)
(0.000726402 0 -0.000497643)
(0.000781081 0 -0.000445205)
(0.000875434 0 -0.000371916)
(0.000942313 0 -0.000385203)
(0.000998464 0 -0.000402545)
(0.00109583 0 -0.000328573)
(0.00120859 0 -0.000144307)
(0.00126781 0 4.4515e-05)
(0.00126703 0 7.28916e-05)
(0.0012477 0 7.99564e-05)
(0.0011882 0 3.08109e-05)
(0.0010733 0 -4.94471e-06)
(0.000970542 0 7.10463e-05)
(0.000910816 0 0.000143407)
(0.00084456 0 0.000207317)
(0.000765602 0 0.000267374)
(0.000682241 0 0.000318031)
(0.000646763 0 0.00029626)
(0.00063545 0 0.000269401)
(0.000633003 0 0.000227515)
(0.000619529 0 0.000215951)
(0.00061601 0 0.000162216)
(0.00059348 0 0.00017118)
(0.000569872 0 0.000167251)
(0.000562618 0 8.4148e-05)
(0.000545003 0 7.87129e-05)
(0.000510962 0 7.7836e-05)
(0.000487258 0 4.22622e-05)
(0.000488808 0 3.62014e-05)
(0.000486081 0 3.17493e-05)
(0.000478563 0 1.64408e-05)
(0.000474703 0 7.11316e-07)
(0.000469841 0 -3.72967e-06)
(0.000458892 0 -1.01529e-05)
(0.000445968 0 -1.16413e-05)
(0.000429812 0 -3.38531e-06)
(0.00041123 0 -5.392e-07)
(0.000401466 0 -2.27373e-05)
(0.000396961 0 -3.57276e-05)
(0.000389373 0 -4.78187e-05)
(0.000376404 0 -6.86299e-05)
(0.000365792 0 -7.62457e-05)
(0.000347423 0 -9.50312e-05)
(0.000325633 0 -0.000112038)
(0.000313644 0 -0.000109586)
(0.000290792 0 -0.000124069)
(0.000268616 0 -0.000121225)
(0.000246894 0 -0.000119867)
(0.000230807 0 -0.000107864)
(0.000221708 0 -8.32323e-05)
(0.000208396 0 -6.56833e-05)
(0.000193356 0 -4.40554e-05)
(0.000181985 0 -1.49843e-05)
(0.000171296 0 1.15048e-05)
(0.000164937 0 3.31299e-05)
(0.000162333 0 5.41197e-05)
(0.000165533 0 6.4658e-05)
(0.000174847 0 9.33381e-05)
(0.000194429 0 7.6437e-05)
(0.000211046 0 8.54361e-05)
(0.000236131 0 8.13642e-05)
(0.000259945 0 6.95448e-05)
(0.000290486 0 8.45917e-05)
(0.000324747 0 6.24751e-05)
(0.000366393 0 1.32732e-05)
(0.000408519 0 0.000142379)
(0.000494672 0 0.000146758)
(0.000504634 0 0.000311591)
(0.0005202 0 0.00043415)
(0.000480686 0 0.000604653)
(0.00041505 0 0.00081542)
(0.000387629 0 0.00100638)
(0.000189756 0 0.00125678)
(0.000328962 0 0.00145644)
(-1.95261e-06 0 0.00151567)