/*--------------------------------*- C++ -*----------------------------------*\
  =========                 |
  \\      /  F ield         | OpenFOAM: The Open Source CFD Toolbox
   \\    /   O peration     | Website:  https://openfoam.org
    \\  /    A nd           | Version:  6
     \\/     M anipulation  |
\*---------------------------------------------------------------------------*/
FoamFile
{
    version     2.0;
    format      ascii;
    class       volScalarField;
    location    "1400";
    object      Su;
}
// * * * * * * * * * * * * * * * * * * * * * * * * * * * * * * * * * * * * * //

dimensions      [0 0 -1 0 0 0 0];

internalField   nonuniform List<scalar> 
4800
(
0.219562
0.217493
0.215401
0.21328
0.211123
0.208927
0.20669
0.204406
0.20207
0.199684
0.197247
0.194762
0.192232
0.189662
0.187064
0.184455
0.181858
0.179297
0.176785
0.174324
0.171915
0.169556
0.167251
0.165001
0.16281
0.16068
0.15861
0.156593
0.154627
0.152702
0.150812
0.148952
0.147112
0.14528
0.143452
0.141621
0.139787
0.137951
0.136109
0.134256
0.132386
0.130495
0.128578
0.126631
0.124652
0.122637
0.120585
0.118491
0.116354
0.114172
0.111943
0.109664
0.107336
0.104954
0.102516
0.100015
0.0974496
0.0948142
0.0921057
0.0893206
0.086455
0.0835044
0.0804656
0.0773376
0.0741206
0.0708176
0.0674307
0.0639597
0.0604056
0.0567664
0.0530433
0.0492392
0.0453601
0.0414097
0.0373955
0.0333283
0.0292263
0.0251161
0.021029
0.0169995
0.0130518
0.00919679
0.00543984
0.00177387
-0.00180836
-0.00531448
-0.00875225
-0.012129
-0.0154517
-0.0187263
-0.0219586
-0.0251535
-0.0283155
-0.0314485
-0.0345558
-0.0376406
-0.0407056
-0.0437529
-0.0467847
-0.0498029
-0.0528089
-0.0558042
-0.0587901
-0.0617677
-0.0647379
-0.0677016
-0.0706596
-0.0736126
-0.0765611
-0.0795059
-0.0824472
-0.0853857
-0.0883217
-0.0912555
-0.0941876
-0.0971182
-0.100048
-0.102976
-0.105904
-0.108832
0.219538
0.217426
0.215291
0.213126
0.21093
0.208699
0.206432
0.204126
0.20178
0.199389
0.196954
0.194474
0.191953
0.189399
0.186819
0.184226
0.181644
0.179095
0.176592
0.17414
0.171737
0.169384
0.167083
0.164838
0.16265
0.160521
0.158451
0.156433
0.154463
0.152532
0.150631
0.148757
0.146903
0.145061
0.143225
0.141391
0.139554
0.137713
0.135865
0.134006
0.13213
0.130234
0.128314
0.126365
0.124385
0.12237
0.120316
0.11822
0.116079
0.113892
0.111656
0.109371
0.107036
0.104648
0.102205
0.0997007
0.0971318
0.0944936
0.0917823
0.0889949
0.086129
0.0831805
0.0801484
0.0770286
0.0738226
0.0705297
0.0671518
0.0636891
0.0601428
0.0565126
0.0528012
0.0490111
0.0451452
0.0412094
0.0372102
0.0331669
0.0290896
0.0250035
0.0209401
0.0169205
0.0129644
0.00910077
0.0053477
0.00168876
-0.00188576
-0.00538425
-0.00881479
-0.0121849
-0.0155013
-0.0187705
-0.0219978
-0.0251883
-0.0283464
-0.0314759
-0.0345802
-0.0376624
-0.0407249
-0.0437701
-0.0468001
-0.0498166
-0.0528212
-0.0558152
-0.0587999
-0.0617765
-0.0647457
-0.0677086
-0.0706658
-0.0736181
-0.076566
-0.0795101
-0.082451
-0.0853889
-0.0883245
-0.0912579
-0.0941896
-0.0971198
-0.100049
-0.102977
-0.105905
-0.108832
0.219492
0.217285
0.215062
0.212819
0.210554
0.208265
0.205951
0.203609
0.201236
0.198832
0.196393
0.193922
0.191415
0.188882
0.186332
0.183773
0.181222
0.178696
0.176209
0.173769
0.171379
0.169038
0.166747
0.164508
0.162323
0.160194
0.158118
0.15609
0.154106
0.15216
0.150243
0.14835
0.146477
0.144618
0.142769
0.140926
0.139081
0.137231
0.135373
0.133505
0.13162
0.129716
0.12779
0.125837
0.123853
0.121834
0.119776
0.117676
0.11553
0.113336
0.111091
0.108795
0.106447
0.104048
0.101594
0.0990827
0.0965084
0.0938675
0.0911555
0.0883681
0.085504
0.0825602
0.0795353
0.0764267
0.0732344
0.0699575
0.0665959
0.0631513
0.0596221
0.0560111
0.0523212
0.0485575
0.0447179
0.0408109
0.0368402
0.0328225
0.0287779
0.0247227
0.02068
0.0166748
0.0127383
0.00889624
0.00516025
0.00151784
-0.0020405
-0.00552346
-0.0089394
-0.012296
-0.0156002
-0.0188582
-0.0220757
-0.0252574
-0.0284078
-0.0315304
-0.0346287
-0.0377055
-0.0407633
-0.0438044
-0.0468307
-0.0498439
-0.0528456
-0.055837
-0.0588194
-0.0617939
-0.0647613
-0.0677224
-0.0706781
-0.073629
-0.0765757
-0.0795187
-0.0824584
-0.0853954
-0.08833
-0.0912626
-0.0941935
-0.097123
-0.100051
-0.102979
-0.105906
-0.108832
0.219423
0.21709
0.214756
0.212411
0.210055
0.20769
0.205311
0.202916
0.200499
0.198062
0.195607
0.193135
0.19064
0.188131
0.185618
0.183101
0.180591
0.178098
0.175636
0.173214
0.170837
0.168511
0.166232
0.163999
0.161814
0.159678
0.15759
0.155544
0.153538
0.15157
0.149631
0.147715
0.145823
0.143949
0.142087
0.140231
0.138375
0.136515
0.134647
0.132771
0.130879
0.128968
0.127034
0.125072
0.123081
0.121055
0.118991
0.116885
0.114732
0.112531
0.110279
0.107973
0.105613
0.103199
0.100731
0.0982084
0.0956245
0.0929777
0.0902632
0.0874766
0.0846156
0.0816771
0.0786604
0.0755635
0.0723847
0.0691249
0.065783
0.0623628
0.0588595
0.0552781
0.0516191
0.0478879
0.0440849
0.0402162
0.0362865
0.0323082
0.0283025
0.024284
0.0202752
0.0163064
0.0124032
0.00858754
0.00487797
0.00126139
-0.00227198
-0.00573121
-0.00912499
-0.0124612
-0.015747
-0.0189885
-0.0221912
-0.0253599
-0.0284987
-0.0316112
-0.0347005
-0.0377694
-0.0408203
-0.0438552
-0.0468761
-0.0498845
-0.0528818
-0.0558694
-0.0588484
-0.0618197
-0.0647844
-0.067743
-0.0706965
-0.0736453
-0.0765901
-0.0795313
-0.0824695
-0.0854051
-0.0883383
-0.0912696
-0.0941993
-0.0971276
-0.100055
-0.102981
-0.105907
-0.108833
0.219353
0.216876
0.214403
0.211934
0.209469
0.207006
0.204543
0.20208
0.199613
0.197139
0.194662
0.192187
0.189703
0.187215
0.184729
0.182247
0.179773
0.177312
0.174877
0.172476
0.170113
0.167796
0.165524
0.163295
0.161105
0.158957
0.156851
0.154782
0.152751
0.150758
0.148796
0.146861
0.144951
0.143065
0.141192
0.139327
0.137463
0.135597
0.133723
0.13184
0.129942
0.128025
0.126084
0.124116
0.122117
0.120084
0.118012
0.115899
0.113739
0.111529
0.109267
0.10695
0.104578
0.102151
0.0996677
0.0971307
0.0945352
0.091879
0.0891594
0.0863716
0.0835132
0.0805805
0.0775733
0.0744891
0.0713255
0.0680846
0.0647606
0.0613624
0.0578877
0.0543404
0.050719
0.0470257
0.0432642
0.039438
0.0355544
0.0316225
0.0276614
0.0236893
0.0197283
0.015807
0.0119499
0.00817435
0.00450138
0.000920206
-0.00257904
-0.00600599
-0.00936981
-0.0126787
-0.0159398
-0.0191594
-0.0223426
-0.0254941
-0.0286178
-0.031717
-0.0347946
-0.0378532
-0.040895
-0.0439219
-0.0469356
-0.0499377
-0.0529294
-0.055912
-0.0588865
-0.0618538
-0.0648147
-0.0677701
-0.0707206
-0.0736667
-0.076609
-0.079548
-0.0824841
-0.0854177
-0.0883492
-0.0912788
-0.0942069
-0.0971338
-0.10006
-0.102985
-0.105909
-0.108833
0.219271
0.216637
0.214017
0.211414
0.208828
0.206256
0.203698
0.201154
0.198625
0.196104
0.193595
0.191104
0.188621
0.186148
0.183686
0.181232
0.178787
0.176354
0.173941
0.171558
0.169206
0.166893
0.164621
0.162388
0.160187
0.158021
0.155894
0.153801
0.151746
0.14973
0.14775
0.145801
0.14388
0.141984
0.140105
0.138234
0.136367
0.134498
0.132623
0.130738
0.128838
0.126918
0.124974
0.123002
0.120999
0.118962
0.116885
0.114765
0.112598
0.11038
0.108107
0.105777
0.103393
0.10095
0.098455
0.0959025
0.0932957
0.0906283
0.0879007
0.0851087
0.0822493
0.0793189
0.0763177
0.0732441
0.0700941
0.066869
0.063566
0.0601936
0.0567492
0.0532342
0.0496495
0.0459956
0.0422788
0.0385022
0.0346724
0.0307978
0.0268967
0.0229837
0.0190785
0.0152075
0.0113943
0.00765978
0.0040315
0.000495472
-0.00295992
-0.00634554
-0.00967131
-0.0129458
-0.0161762
-0.0193685
-0.0225277
-0.0256581
-0.0287633
-0.0318463
-0.0349097
-0.0379557
-0.0409864
-0.0440035
-0.0470086
-0.0500029
-0.0529878
-0.0559642
-0.0589332
-0.0618955
-0.064852
-0.0678034
-0.0707502
-0.073693
-0.0766323
-0.0795685
-0.0825021
-0.0854333
-0.0883626
-0.0912902
-0.0942163
-0.0971413
-0.100065
-0.102989
-0.105912
-0.108834
0.21919
0.216394
0.213619
0.210872
0.208155
0.205471
0.202817
0.200195
0.197606
0.195042
0.192497
0.189974
0.187471
0.18499
0.182531
0.180089
0.177659
0.175241
0.172841
0.170466
0.168119
0.165803
0.163522
0.161275
0.159057
0.15687
0.154721
0.152607
0.150531
0.148498
0.146504
0.144546
0.142618
0.140717
0.138835
0.136963
0.135095
0.133226
0.131354
0.129472
0.127575
0.125658
0.123716
0.121745
0.119742
0.117703
0.115625
0.113501
0.111329
0.109104
0.106823
0.104482
0.102087
0.0996314
0.0971252
0.0945598
0.0919429
0.0892654
0.0865304
0.0837334
0.0808735
0.0779458
0.0749493
0.0718838
0.0687484
0.0655407
0.0622575
0.0589038
0.0554819
0.0519979
0.048451
0.0448397
0.0411667
0.0374336
0.0336478
0.0298196
0.0259697
0.0221164
0.0182776
0.0144718
0.0107196
0.00703959
0.00346769
-1.16286e-05
-0.00341221
-0.00674669
-0.010026
-0.0132589
-0.0164525
-0.0196126
-0.0227436
-0.0258494
-0.028933
-0.0319971
-0.0350439
-0.0380754
-0.0410933
-0.044099
-0.047094
-0.0500793
-0.0530562
-0.0560254
-0.058988
-0.0619446
-0.0648959
-0.0678425
-0.070785
-0.0737239
-0.0766597
-0.0795927
-0.0825232
-0.0854517
-0.0883784
-0.0913035
-0.0942274
-0.0971502
-0.100072
-0.102994
-0.105915
-0.108835
0.219108
0.216153
0.213225
0.210334
0.207484
0.20468
0.201926
0.199218
0.196553
0.193927
0.191336
0.188782
0.186256
0.183759
0.181289
0.17884
0.176409
0.17399
0.171589
0.16921
0.166854
0.164523
0.162221
0.159953
0.157713
0.155506
0.153337
0.151207
0.149119
0.147074
0.145071
0.143106
0.141173
0.139269
0.137386
0.135514
0.133649
0.131784
0.129916
0.128042
0.126152
0.124242
0.122308
0.120343
0.118345
0.116309
0.114233
0.11211
0.109936
0.107708
0.105423
0.103079
0.100678
0.0982164
0.0957009
0.0931268
0.0905012
0.0878165
0.0850759
0.0822743
0.0794123
0.0764855
0.0734931
0.070433
0.0673057
0.0641122
0.060852
0.0575294
0.0541375
0.05068
0.0471585
0.0435763
0.0399416
0.0362547
0.0325182
0.0287394
0.0249397
0.0211389
0.0173585
0.0136151
0.0099269
0.0063115
0.00280943
-0.000599289
-0.00393237
-0.00720493
-0.0104289
-0.0136132
-0.0167644
-0.0198877
-0.0229868
-0.0260648
-0.0291243
-0.0321672
-0.0351955
-0.0382106
-0.0412141
-0.044207
-0.0471907
-0.0501659
-0.0531338
-0.0560949
-0.0590502
-0.0620003
-0.0649457
-0.067887
-0.0708247
-0.0737592
-0.0766909
-0.0796201
-0.0825473
-0.0854726
-0.0883963
-0.0913187
-0.09424
-0.0971604
-0.10008
-0.102999
-0.105918
-0.108836
0.219031
0.215922
0.212844
0.209812
0.206833
0.203912
0.201055
0.198258
0.195517
0.192826
0.190181
0.187581
0.185016
0.182484
0.179984
0.177507
0.175054
0.172613
0.170192
0.167789
0.165408
0.163053
0.160724
0.158429
0.156167
0.153944
0.151761
0.149618
0.147521
0.145465
0.143455
0.141486
0.139549
0.137641
0.135758
0.133889
0.132028
0.130169
0.128308
0.126443
0.124564
0.122666
0.120744
0.118791
0.116803
0.114776
0.112707
0.110589
0.108419
0.106195
0.10391
0.101569
0.0991652
0.096704
0.0941832
0.0916078
0.0889772
0.0862905
0.0835476
0.0807481
0.077888
0.0749662
0.0719814
0.0689315
0.0658154
0.0626353
0.0593899
0.0560839
0.052717
0.0492918
0.0458094
0.0422675
0.0386677
0.0350144
0.0313158
0.0275765
0.0238155
0.020054
0.0163165
0.012625
0.00900479
0.00546978
0.0020558
-0.00126448
-0.00451493
-0.00771376
-0.0108735
-0.0140026
-0.0171065
-0.0201891
-0.0232532
-0.026301
-0.0293341
-0.032354
-0.0353621
-0.0383595
-0.0413472
-0.0443263
-0.0472975
-0.0502617
-0.0532196
-0.0561719
-0.0591192
-0.0620621
-0.065001
-0.0679364
-0.0708687
-0.0737983
-0.0767255
-0.0796507
-0.082574
-0.0854958
-0.0884163
-0.0913357
-0.0942541
-0.0971717
-0.100089
-0.103005
-0.105921
-0.108837
0.21896
0.215709
0.21249
0.20932
0.206214
0.203179
0.200218
0.197329
0.194507
0.191749
0.189044
0.186388
0.183767
0.181182
0.178627
0.176098
0.173595
0.171109
0.168645
0.166204
0.163786
0.161397
0.159041
0.156722
0.154443
0.152206
0.150012
0.147859
0.145754
0.143686
0.141665
0.13969
0.137749
0.135837
0.133953
0.132087
0.13023
0.12838
0.126526
0.124673
0.122807
0.120924
0.119018
0.117082
0.11511
0.113099
0.111043
0.108937
0.106777
0.104562
0.102284
0.0999495
0.0975489
0.0950922
0.0925718
0.0900001
0.0873703
0.0846867
0.0819441
0.0791456
0.0762886
0.0733729
0.0703951
0.0673585
0.0642581
0.0610971
0.0578758
0.0545966
0.0512598
0.047866
0.0444144
0.0409058
0.037344
0.03373
0.0300656
0.0263552
0.0226168
0.0188728
0.0151559
0.011501
0.00794432
0.00450625
0.00120636
-0.00200144
-0.00515113
-0.00826373
-0.011351
-0.0144193
-0.017472
-0.0205112
-0.0235381
-0.0265538
-0.0295591
-0.0325547
-0.0355414
-0.03852
-0.041491
-0.0444551
-0.0474131
-0.0503654
-0.0533127
-0.0562555
-0.0591941
-0.0621292
-0.0650611
-0.0679901
-0.0709166
-0.0738409
-0.0767633
-0.079684
-0.0826032
-0.0855212
-0.0884381
-0.0913541
-0.0942694
-0.097184
-0.100098
-0.103012
-0.105925
-0.108839
0.218899
0.215525
0.212179
0.208881
0.205647
0.202491
0.199421
0.196437
0.193532
0.190697
0.187923
0.185196
0.182501
0.179837
0.177203
0.174596
0.172021
0.169472
0.166951
0.16446
0.162002
0.15958
0.157198
0.154859
0.152563
0.150313
0.148108
0.145942
0.143825
0.141745
0.139714
0.13773
0.135785
0.133868
0.131983
0.130119
0.128266
0.126422
0.124579
0.122736
0.120883
0.119016
0.117129
0.115215
0.113264
0.111274
0.109237
0.10715
0.105006
0.102804
0.100541
0.098218
0.0958289
0.0933812
0.0908681
0.0883039
0.0856816
0.083007
0.0802756
0.0774875
0.0746405
0.0717362
0.0687703
0.0657499
0.0626691
0.0595296
0.0563298
0.0530717
0.0497593
0.0463947
0.0429791
0.0395119
0.0359914
0.0324172
0.0287885
0.0251024
0.0213724
0.0176231
0.0138919
0.0102302
0.00671144
0.00340343
0.000262802
-0.00279845
-0.00582651
-0.00884124
-0.0118498
-0.0148538
-0.0178534
-0.0208478
-0.0238366
-0.0268193
-0.029796
-0.0327665
-0.035731
-0.0386899
-0.0416435
-0.0445921
-0.0475361
-0.050476
-0.053412
-0.0563447
-0.0592742
-0.062201
-0.0651254
-0.0680476
-0.0709679
-0.0738865
-0.0768037
-0.0797196
-0.0826345
-0.0855484
-0.0884615
-0.0913739
-0.0942858
-0.0971972
-0.100108
-0.103019
-0.10593
-0.10884
0.218837
0.21534
0.211872
0.208454
0.205104
0.201836
0.19866
0.195577
0.192576
0.189652
0.186789
0.183969
0.181177
0.178415
0.175686
0.17299
0.170331
0.16771
0.165128
0.162588
0.16009
0.157635
0.155225
0.152864
0.150548
0.148278
0.146058
0.143879
0.14175
0.139659
0.137622
0.135628
0.133679
0.13176
0.129871
0.128006
0.126156
0.124315
0.12248
0.120647
0.118806
0.116954
0.115085
0.113192
0.111265
0.109301
0.107289
0.105225
0.103104
0.100923
0.0986787
0.0963727
0.0940011
0.0915681
0.0890693
0.0865171
0.0839071
0.0812447
0.0785277
0.0757544
0.0729267
0.0700435
0.0670996
0.0641007
0.0610433
0.0579288
0.0547557
0.0515259
0.0482428
0.0449089
0.0415277
0.0380987
0.034618
0.0310835
0.0274937
0.0238395
0.0201164
0.0163357
0.0125309
0.00876918
0.00520727
0.002132
-0.000761946
-0.00363054
-0.00651734
-0.0094273
-0.0123554
-0.0152954
-0.0182423
-0.0211925
-0.0241434
-0.0270933
-0.0300411
-0.0329863
-0.0359284
-0.0388672
-0.0418029
-0.0447355
-0.0476651
-0.050592
-0.0535164
-0.0564385
-0.0593585
-0.0622767
-0.0651932
-0.0681083
-0.0710221
-0.0739348
-0.0768465
-0.0797574
-0.0826676
-0.0855771
-0.0884862
-0.0913949
-0.0943032
-0.0972112
-0.100119
-0.103027
-0.105934
-0.108842
0.218779
0.215165
0.211581
0.208048
0.204585
0.201207
0.197922
0.19473
0.19162
0.188581
0.1856
0.182662
0.17976
0.176893
0.174065
0.171281
0.168541
0.16585
0.163209
0.160619
0.15808
0.155588
0.153144
0.150753
0.148415
0.146124
0.143888
0.141695
0.139552
0.137451
0.135407
0.133404
0.131449
0.129526
0.127636
0.125769
0.123919
0.12208
0.12025
0.118424
0.116594
0.114755
0.112902
0.111029
0.109126
0.107189
0.105203
0.103166
0.10107
0.0989145
0.0966966
0.094414
0.0920659
0.0896541
0.0871784
0.0846452
0.0820566
0.0794135
0.0767176
0.0739634
0.0711573
0.0682983
0.0653827
0.0624126
0.0593859
0.0563044
0.0531646
0.0499676
0.0467178
0.0434186
0.0400731
0.036683
0.0332423
0.029746
0.026191
0.0225686
0.0188642
0.015062
0.011147
0.00711972
0.0031752
0.000677815
-0.00181352
-0.00444619
-0.00718721
-0.00999772
-0.0128516
-0.0157326
-0.0186306
-0.021539
-0.0244537
-0.0273717
-0.0302914
-0.0332114
-0.0361311
-0.0390498
-0.0419674
-0.0448838
-0.0477987
-0.0507124
-0.0536248
-0.0565361
-0.0594462
-0.0623555
-0.0652639
-0.0681715
-0.0710786
-0.0739851
-0.0768911
-0.0797968
-0.0827021
-0.0856072
-0.0885121
-0.0914168
-0.0943214
-0.0972259
-0.10013
-0.103035
-0.105939
-0.108843
0.218728
0.215012
0.21132
0.207672
0.204093
0.200596
0.197189
0.193868
0.190622
0.187442
0.184323
0.181258
0.17824
0.17527
0.172351
0.169486
0.166675
0.16392
0.16122
0.158578
0.155991
0.15346
0.150981
0.148556
0.146189
0.143875
0.141621
0.139414
0.137256
0.135145
0.133092
0.131081
0.12912
0.127191
0.125298
0.123427
0.121575
0.119735
0.117908
0.116085
0.114263
0.112436
0.110598
0.108742
0.106863
0.10495
0.102991
0.100982
0.0989143
0.0967862
0.0945961
0.0923403
0.0900189
0.0876329
0.0851866
0.0826792
0.0801196
0.0775034
0.0748358
0.0721109
0.0693346
0.0665064
0.0636243
0.0606895
0.0576994
0.0546559
0.0515584
0.0484053
0.0451963
0.0419351
0.0386275
0.0352791
0.031884
0.0284356
0.0249299
0.0213576
0.0176981
0.0139171
0.00993414
0.00542054
-0.000176963
-0.00078462
-0.00272527
-0.00515535
-0.00778996
-0.0105274
-0.0133236
-0.0161558
-0.0190113
-0.0218821
-0.0247631
-0.0276511
-0.0305436
-0.0334393
-0.0363369
-0.0392357
-0.0421353
-0.0450353
-0.0479355
-0.0508358
-0.0537361
-0.0566363
-0.0595364
-0.0624366
-0.0653366
-0.0682367
-0.0711368
-0.0740369
-0.0769371
-0.0798374
-0.0827378
-0.0856382
-0.0885388
-0.0914394
-0.0943402
-0.097241
-0.100142
-0.103043
-0.105944
-0.108845
0.218677
0.214857
0.211058
0.207299
0.203602
0.199978
0.196433
0.192964
0.189567
0.186236
0.182974
0.179778
0.176648
0.17358
0.170577
0.167637
0.164758
0.16194
0.159182
0.156485
0.153851
0.151277
0.148761
0.146303
0.143904
0.141564
0.139285
0.137061
0.134887
0.132764
0.130699
0.128681
0.126712
0.124777
0.122878
0.121001
0.119144
0.117301
0.115473
0.113652
0.111835
0.110017
0.108192
0.106352
0.10449
0.102598
0.100662
0.0986797
0.0966419
0.0945458
0.0923906
0.0901686
0.087879
0.0855237
0.0831085
0.0806298
0.0780996
0.075516
0.0728839
0.0701961
0.0674552
0.0646628
0.0618188
0.0589244
0.0559757
0.0529739
0.0499209
0.0468179
0.0436615
0.0404512
0.037193
0.0338955
0.0305571
0.0271697
0.023729
0.0202294
0.0166627
0.0130127
0.00925595
0.0053872
0.00157335
-0.000787971
-0.00314981
-0.00566226
-0.00829259
-0.0110016
-0.0137626
-0.0165589
-0.0193797
-0.0222178
-0.0250685
-0.0279285
-0.0307954
-0.0336675
-0.0365437
-0.039423
-0.0423048
-0.0451887
-0.0480741
-0.050961
-0.0538491
-0.0567382
-0.0596282
-0.0625191
-0.0654108
-0.0683032
-0.0711962
-0.0740899
-0.0769841
-0.0798789
-0.0827742
-0.0856699
-0.0885661
-0.0914626
-0.0943594
-0.0972565
-0.100154
-0.103051
-0.105949
-0.108847
0.218625
0.214702
0.210799
0.20693
0.203108
0.199346
0.195651
0.192024
0.188468
0.184985
0.18158
0.178256
0.175016
0.171855
0.168771
0.16576
0.162816
0.159936
0.157119
0.154368
0.151684
0.149067
0.146513
0.144019
0.141588
0.139218
0.136912
0.134666
0.132472
0.130331
0.12825
0.126224
0.124246
0.122304
0.120397
0.118513
0.116649
0.114801
0.112968
0.111144
0.109329
0.107516
0.1057
0.103876
0.102032
0.100159
0.0982444
0.0962843
0.0942741
0.0922072
0.0900834
0.0878956
0.0856411
0.0833223
0.0809437
0.0785054
0.0760131
0.0734659
0.0708709
0.0682239
0.0655246
0.0627736
0.0599714
0.0571222
0.0542228
0.0512693
0.0482623
0.0452101
0.0421139
0.0389683
0.0357733
0.0325369
0.0292627
0.0259453
0.0225858
0.0191836
0.0157397
0.0122593
0.00875672
0.00528488
0.00199583
-0.00079455
-0.00342667
-0.00605438
-0.00872
-0.0114273
-0.0141701
-0.0169411
-0.0197341
-0.0225441
-0.0253676
-0.0282018
-0.0310446
-0.0338943
-0.0367498
-0.0396101
-0.0424745
-0.0453424
-0.0482133
-0.0510869
-0.0539628
-0.0568408
-0.0597208
-0.0626024
-0.0654856
-0.0683703
-0.0712563
-0.0741434
-0.0770317
-0.0799209
-0.082811
-0.085702
-0.0885937
-0.091486
-0.0943788
-0.0972721
-0.100166
-0.10306
-0.105954
-0.108848
0.218579
0.214558
0.21055
0.206563
0.202611
0.198705
0.194858
0.191073
0.187357
0.183718
0.180165
0.176709
0.173358
0.170108
0.16695
0.163874
0.16087
0.157933
0.155058
0.152251
0.149515
0.146853
0.144262
0.141736
0.13927
0.136868
0.13453
0.132256
0.130037
0.127873
0.125769
0.123727
0.121737
0.119788
0.117874
0.115983
0.114112
0.112257
0.110417
0.108588
0.106769
0.104954
0.10314
0.101324
0.0994929
0.0976362
0.0957426
0.093803
0.0918167
0.0897792
0.0876879
0.0855367
0.0833217
0.0810442
0.0787052
0.0763074
0.0738571
0.0713536
0.0688028
0.0662026
0.0635519
0.0608478
0.0580913
0.0552881
0.0524399
0.0495447
0.0465978
0.0436041
0.0405697
0.0374911
0.0343659
0.0312001
0.0280006
0.0247642
0.0214936
0.0181962
0.0148783
0.011553
0.00825081
0.00501243
0.00191389
-0.000964227
-0.00371223
-0.00641286
-0.00911006
-0.0118219
-0.0145536
-0.0173054
-0.0200751
-0.0228606
-0.0256594
-0.0284696
-0.0312897
-0.034118
-0.0369536
-0.0397955
-0.0426429
-0.0454952
-0.0483518
-0.0512123
-0.0540762
-0.0569433
-0.0598132
-0.0626857
-0.0655605
-0.0684374
-0.0713163
-0.074197
-0.0770792
-0.079963
-0.082848
-0.0857341
-0.0886213
-0.0915094
-0.0943983
-0.0972878
-0.100178
-0.103068
-0.105959
-0.10885
0.218531
0.214415
0.210305
0.206207
0.202129
0.198081
0.194082
0.190141
0.186269
0.182479
0.178788
0.175209
0.17175
0.168405
0.165166
0.162021
0.158953
0.155955
0.153024
0.150164
0.147376
0.144662
0.142028
0.139466
0.136969
0.134534
0.132162
0.129856
0.127607
0.125416
0.123284
0.121213
0.1192
0.117238
0.115317
0.113421
0.111545
0.109687
0.107845
0.106013
0.104193
0.102377
0.100563
0.098748
0.0969236
0.0950779
0.0931991
0.0912784
0.0893126
0.0872987
0.0852341
0.0831145
0.0809362
0.0786996
0.0764049
0.0740525
0.0716468
0.069189
0.0666841
0.0641321
0.0615345
0.058887
0.0561858
0.0534362
0.0506431
0.0478076
0.0449259
0.0419975
0.0390295
0.0360232
0.0329732
0.0298841
0.0267636
0.0236152
0.0204412
0.0172495
0.014051
0.0108567
0.00769643
0.0046028
0.00160402
-0.00127076
-0.00405123
-0.00678047
-0.00949091
-0.0122016
-0.014922
-0.0176561
-0.0204047
-0.0231674
-0.0259433
-0.028731
-0.0315294
-0.0343373
-0.0371538
-0.0399779
-0.0428088
-0.0456459
-0.0484885
-0.0513361
-0.0541883
-0.0570446
-0.0599046
-0.062768
-0.0656346
-0.0685039
-0.0713759
-0.0742501
-0.0771264
-0.0800047
-0.0828846
-0.085766
-0.0886488
-0.0915327
-0.0944176
-0.0973034
-0.10019
-0.103077
-0.105964
-0.108852
0.218491
0.214289
0.210085
0.20588
0.201685
0.197507
0.193367
0.189278
0.18526
0.181332
0.177514
0.173813
0.170239
0.166789
0.163457
0.160233
0.157101
0.15405
0.151067
0.148153
0.145315
0.142556
0.139874
0.137265
0.134724
0.132251
0.129845
0.127505
0.125227
0.123008
0.12085
0.118752
0.116711
0.114723
0.112783
0.110873
0.108987
0.107122
0.105274
0.10344
0.101616
0.0997977
0.0979817
0.0961654
0.0943427
0.092503
0.0906336
0.0887284
0.0867805
0.084788
0.0827483
0.0806572
0.0785107
0.0763098
0.0740552
0.0717472
0.0693881
0.0669782
0.0645211
0.0620185
0.0594734
0.056885
0.0542478
0.0515599
0.0488277
0.0460567
0.0432448
0.0403876
0.0374889
0.0345564
0.0315853
0.0285778
0.0255426
0.0224836
0.019404
0.0163134
0.0132235
0.0101433
0.00708637
0.00408934
0.00116033
-0.00168077
-0.0044497
-0.00717417
-0.00987808
-0.0125776
-0.0152823
-0.0179973
-0.0207248
-0.0234655
-0.0262192
-0.0289852
-0.0317628
-0.0345511
-0.0373491
-0.0401559
-0.0429709
-0.0457932
-0.0486222
-0.0514574
-0.0542981
-0.0571439
-0.0599943
-0.0628489
-0.0657073
-0.0685692
-0.0714343
-0.0743023
-0.0771728
-0.0800457
-0.0829206
-0.0857974
-0.0886758
-0.0915556
-0.0944367
-0.0973187
-0.100202
-0.103085
-0.105969
-0.108853
0.218455
0.21418
0.209895
0.2056
0.201301
0.197006
0.19274
0.188523
0.184374
0.180318
0.176375
0.172557
0.168871
0.165319
0.161895
0.158595
0.155399
0.152288
0.149251
0.146283
0.143388
0.140571
0.137835
0.135175
0.132588
0.13007
0.127622
0.125242
0.122928
0.120675
0.118485
0.116356
0.114287
0.112271
0.110306
0.108376
0.106475
0.104597
0.102738
0.100896
0.0990655
0.0972419
0.0954208
0.0935989
0.0917725
0.0899325
0.0880668
0.0861707
0.0842349
0.0822587
0.0802401
0.078174
0.0760561
0.0738877
0.0716689
0.0694017
0.0670883
0.0647275
0.0623204
0.0598695
0.0573781
0.0548472
0.0522755
0.0496572
0.0469905
0.0442837
0.041542
0.0387611
0.035939
0.0330838
0.030198
0.0272758
0.0243247
0.0213556
0.0183707
0.015377
0.0123838
0.00939949
0.00642227
0.00349324
0.000615861
-0.00217569
-0.00490392
-0.0075979
-0.0102776
-0.0129554
-0.0156386
-0.0183316
-0.0210368
-0.0237552
-0.0264869
-0.0292318
-0.0319892
-0.0347583
-0.0375384
-0.0403285
-0.0431281
-0.0459361
-0.048752
-0.0515751
-0.0544047
-0.0572403
-0.0600814
-0.0629274
-0.065778
-0.0686327
-0.0714912
-0.074353
-0.0772179
-0.0800855
-0.0829556
-0.0858279
-0.0887021
-0.0915779
-0.0944552
-0.0973336
-0.100213
-0.103093
-0.105974
-0.108855
0.218428
0.214098
0.209754
0.205389
0.201003
0.19661
0.192242
0.187921
0.183667
0.179505
0.175458
0.17154
0.167753
0.164101
0.160575
0.157172
0.153884
0.150697
0.147591
0.144553
0.141589
0.138706
0.135911
0.133195
0.130558
0.127993
0.125499
0.123075
0.120722
0.118435
0.116212
0.114053
0.111956
0.109914
0.107922
0.105968
0.104046
0.10215
0.100276
0.09842
0.096578
0.0947434
0.0929116
0.0910784
0.0892415
0.0873929
0.0855231
0.0836263
0.081694
0.0797265
0.0777215
0.0756742
0.07358
0.0714402
0.0692539
0.0670233
0.0647528
0.06244
0.0600832
0.057685
0.0552482
0.0527742
0.0502636
0.0477131
0.0451179
0.0424802
0.0398087
0.0371058
0.0343687
0.0315946
0.0287918
0.0259604
0.0230991
0.020217
0.0173206
0.0144165
0.0115133
0.00862033
0.00572559
0.00284603
-3.17885e-05
-0.00275256
-0.00540875
-0.00804873
-0.0106891
-0.0133358
-0.0159921
-0.01866
-0.0213413
-0.0240366
-0.0267462
-0.02947
-0.0322075
-0.0349579
-0.0377206
-0.0404947
-0.0432793
-0.0460736
-0.0488768
-0.0516883
-0.0545072
-0.0573331
-0.0601652
-0.063003
-0.065846
-0.0686938
-0.0715459
-0.0744019
-0.0772613
-0.080124
-0.0829894
-0.0858573
-0.0887274
-0.0915994
-0.094473
-0.097348
-0.100224
-0.103101
-0.105979
-0.108856
0.218412
0.214051
0.209674
0.20527
0.200839
0.196387
0.191945
0.187541
0.183208
0.17897
0.174843
0.170838
0.166955
0.163196
0.159557
0.156036
0.15263
0.149334
0.146133
0.143011
0.139968
0.137011
0.134143
0.131361
0.128665
0.126049
0.12351
0.121045
0.118653
0.116331
0.114074
0.111886
0.10976
0.107689
0.10567
0.103691
0.101746
0.099829
0.0979352
0.0960595
0.0941982
0.0923451
0.0904947
0.0886418
0.0867841
0.0849153
0.0830293
0.0811188
0.079179
0.0772097
0.0752082
0.0731699
0.0710912
0.0689729
0.0668136
0.0646153
0.0623833
0.0601161
0.057809
0.0554638
0.0530829
0.0506674
0.0482186
0.045734
0.0432093
0.0406427
0.0380414
0.0354114
0.032756
0.0300705
0.027356
0.0246136
0.0218452
0.0190547
0.0162484
0.0134323
0.0106149
0.00780812
0.00500737
0.00219001
-0.000859504
-0.00342109
-0.00595376
-0.00851702
-0.0111071
-0.0137164
-0.0163417
-0.0189821
-0.0216378
-0.0243092
-0.0269963
-0.029699
-0.0324168
-0.035149
-0.0378948
-0.0406532
-0.0434235
-0.0462046
-0.0489957
-0.0517961
-0.0546049
-0.0574214
-0.060245
-0.063075
-0.0659108
-0.068752
-0.071598
-0.0744484
-0.0773027
-0.0801606
-0.0830215
-0.0858853
-0.0887515
-0.0916199
-0.09449
-0.0973617
-0.100235
-0.103108
-0.105983
-0.108858
0.218408
0.214038
0.209655
0.205245
0.200801
0.196328
0.191851
0.187408
0.183033
0.178748
0.174565
0.170486
0.166514
0.162648
0.158881
0.155218
0.151666
0.148227
0.144904
0.141676
0.138539
0.135495
0.132549
0.129698
0.126941
0.12427
0.121682
0.119174
0.116747
0.114395
0.112107
0.109893
0.107742
0.105646
0.103601
0.101599
0.0996288
0.0976873
0.0957689
0.0938665
0.091977
0.0900951
0.0882135
0.086328
0.0844356
0.0825321
0.0806149
0.0786755
0.0767137
0.074729
0.072718
0.0706758
0.0686015
0.0664958
0.0643548
0.0621817
0.0599819
0.0577553
0.0554962
0.0532037
0.0508798
0.0485233
0.0461359
0.0437164
0.0412618
0.0387685
0.0362398
0.0336825
0.0311047
0.0285043
0.0258806
0.0232309
0.0205556
0.0178555
0.0151352
0.0124026
0.0096706
0.00695293
0.00427731
0.00171399
-0.00127505
-0.00415316
-0.00650037
-0.00898217
-0.0115218
-0.0140927
-0.0166852
-0.0192964
-0.0219253
-0.0245719
-0.0272362
-0.0299177
-0.0326161
-0.0353303
-0.0380597
-0.0408031
-0.0435596
-0.0463281
-0.0491078
-0.0518976
-0.0546968
-0.0575045
-0.0603201
-0.0631427
-0.0659718
-0.0688068
-0.0716471
-0.0744922
-0.0773417
-0.080195
-0.0830518
-0.0859117
-0.0887742
-0.0916392
-0.0945061
-0.0973746
-0.100245
-0.103116
-0.105987
-0.108859
0.218418
0.214072
0.209716
0.20533
0.200901
0.196432
0.191954
0.187507
0.183124
0.178824
0.174607
0.170472
0.16642
0.162446
0.158543
0.154723
0.151005
0.147398
0.143918
0.14056
0.137318
0.134184
0.131156
0.128232
0.125411
0.122689
0.120054
0.11751
0.11505
0.112671
0.110359
0.108122
0.10595
0.103835
0.101767
0.0997418
0.0977488
0.0957813
0.0938337
0.0918972
0.0899677
0.0880416
0.0861116
0.084175
0.0822298
0.0802722
0.0783047
0.0763201
0.0743196
0.0723034
0.0702679
0.0682085
0.066125
0.0640189
0.061886
0.0597302
0.0575562
0.0553644
0.0531494
0.0509082
0.0486424
0.046347
0.0440213
0.0416648
0.0392759
0.0368525
0.0343976
0.0319151
0.0294125
0.0268941
0.0243584
0.021801
0.0192184
0.0166091
0.0139755
0.011325
0.00867081
0.00602511
0.00339831
0.000761749
-0.00210433
-0.00452844
-0.00694982
-0.00941758
-0.0119245
-0.0144606
-0.0170203
-0.0196012
-0.0222023
-0.0248234
-0.0274645
-0.0301248
-0.0328039
-0.0355007
-0.0382141
-0.0409431
-0.0436865
-0.0464432
-0.049212
-0.051992
-0.0547822
-0.0575818
-0.0603898
-0.0632056
-0.0660284
-0.0688576
-0.0716926
-0.0745328
-0.0773778
-0.080227
-0.0830799
-0.0859362
-0.0887953
-0.091657
-0.0945209
-0.0973866
-0.100254
-0.103122
-0.105991
-0.108861
0.21845
0.214167
0.209876
0.205546
0.201159
0.196721
0.19226
0.187823
0.183442
0.179131
0.174888
0.17071
0.166586
0.162504
0.158469
0.154499
0.150613
0.146835
0.143192
0.139695
0.13634
0.133116
0.13001
0.127016
0.124133
0.12136
0.11868
0.116103
0.113614
0.111212
0.108878
0.106617
0.104424
0.10229
0.100206
0.0981644
0.0961542
0.0941644
0.0921847
0.0902039
0.0882173
0.0862243
0.0842213
0.0822099
0.0801904
0.0781589
0.0761214
0.0740745
0.072019
0.0699545
0.0678785
0.0657884
0.063684
0.0615649
0.0594287
0.0572801
0.0551242
0.0529619
0.0507881
0.0485971
0.0463878
0.0441533
0.0418897
0.0395965
0.0372712
0.0349119
0.0325221
0.0301084
0.0276764
0.0252342
0.0227814
0.0203129
0.0178192
0.0152951
0.0127408
0.0101695
0.00760025
0.00504723
0.00252297
1.74894e-05
-0.00251003
-0.00495964
-0.00739431
-0.00984458
-0.0123198
-0.0148206
-0.0173459
-0.0198948
-0.0224669
-0.0250619
-0.0276794
-0.0303186
-0.0329788
-0.0356586
-0.0383569
-0.0410722
-0.0438033
-0.0465489
-0.0493076
-0.0520785