/*--------------------------------*- C++ -*----------------------------------*\
  =========                 |
  \\      /  F ield         | OpenFOAM: The Open Source CFD Toolbox
   \\    /   O peration     | Website:  https://openfoam.org
    \\  /    A nd           | Version:  6
     \\/     M anipulation  |
\*---------------------------------------------------------------------------*/
FoamFile
{
    version     2.0;
    format      ascii;
    class       volScalarField;
    location    "1400";
    object      T;
}
// * * * * * * * * * * * * * * * * * * * * * * * * * * * * * * * * * * * * * //

dimensions      [0 0 0 1 0 0 0];

internalField   nonuniform List<scalar> 
4800
(
552.513
552.438
552.362
552.285
552.207
552.127
552.046
551.963
551.878
551.792
551.703
551.613
551.522
551.428
551.334
551.24
551.145
551.053
550.961
550.872
550.785
550.699
550.616
550.534
550.455
550.377
550.302
550.229
550.158
550.088
550.019
549.952
549.885
549.819
549.752
549.686
549.62
549.553
549.486
549.419
549.351
549.283
549.213
549.142
549.071
548.998
548.923
548.847
548.77
548.691
548.61
548.527
548.443
548.356
548.268
548.177
548.084
547.989
547.89
547.789
547.685
547.578
547.468
547.355
547.238
547.118
546.995
546.87
546.741
546.609
546.474
546.336
546.195
546.052
545.906
545.759
545.61
545.461
545.313
545.167
545.023
544.884
544.747
544.614
544.484
544.357
544.233
544.11
543.99
543.871
543.754
543.638
543.523
543.409
543.297
543.185
543.074
542.963
542.853
542.744
542.635
542.526
542.418
542.31
542.202
542.095
541.987
541.88
541.773
541.667
541.56
541.453
541.347
541.241
541.134
541.028
540.922
540.815
540.709
540.603
552.512
552.435
552.358
552.279
552.2
552.119
552.036
551.953
551.868
551.781
551.693
551.603
551.511
551.419
551.325
551.231
551.138
551.045
550.954
550.865
550.778
550.693
550.61
550.528
550.449
550.372
550.296
550.223
550.152
550.082
550.013
549.945
549.878
549.811
549.744
549.678
549.611
549.544
549.477
549.41
549.342
549.273
549.203
549.133
549.061
548.988
548.913
548.837
548.76
548.68
548.599
548.516
548.432
548.345
548.257
548.166
548.073
547.977
547.879
547.777
547.674
547.567
547.457
547.344
547.227
547.108
546.985
546.86
546.731
546.6
546.465
546.327
546.187
546.045
545.899
545.753
545.605
545.457
545.309
545.164
545.02
544.88
544.744
544.611
544.482
544.355
544.23
544.108
543.988
543.869
543.752
543.637
543.522
543.408
543.296
543.184
543.073
542.963
542.853
542.743
542.634
542.526
542.418
542.31
542.202
542.094
541.987
541.88
541.773
541.666
541.56
541.453
541.347
541.24
541.134
541.028
540.922
540.815
540.709
540.603
552.51
552.43
552.349
552.268
552.186
552.103
552.019
551.934
551.848
551.761
551.672
551.583
551.492
551.4
551.308
551.215
551.122
551.031
550.941
550.852
550.765
550.68
550.597
550.516
550.437
550.36
550.284
550.211
550.139
550.068
549.999
549.93
549.862
549.795
549.728
549.661
549.594
549.527
549.459
549.392
549.323
549.254
549.184
549.114
549.042
548.968
548.894
548.818
548.74
548.66
548.579
548.496
548.41
548.323
548.234
548.143
548.05
547.954
547.856
547.755
547.651
547.544
547.434
547.322
547.206
547.087
546.965
546.84
546.712
546.581
546.447
546.311
546.172
546.03
545.886
545.74
545.594
545.447
545.3
545.155
545.012
544.873
544.737
544.605
544.476
544.35
544.226
544.104
543.984
543.866
543.749
543.634
543.52
543.407
543.294
543.183
543.072
542.961
542.852
542.742
542.633
542.525
542.417
542.309
542.201
542.094
541.987
541.88
541.773
541.666
541.56
541.453
541.347
541.24
541.134
541.028
540.922
540.815
540.709
540.603
552.508
552.423
552.338
552.253
552.168
552.082
551.996
551.909
551.821
551.733
551.644
551.554
551.464
551.373
551.282
551.19
551.099
551.009
550.92
550.832
550.746
550.661
550.579
550.498
550.418
550.341
550.265
550.191
550.118
550.047
549.977
549.907
549.838
549.77
549.703
549.636
549.568
549.501
549.433
549.365
549.296
549.227
549.157
549.086
549.014
548.94
548.865
548.789
548.711
548.631
548.549
548.466
548.38
548.293
548.203
548.112
548.018
547.922
547.823
547.722
547.619
547.512
547.403
547.29
547.175
547.057
546.936
546.812
546.685
546.555
546.422
546.287
546.149
546.008
545.866
545.722
545.576
545.431
545.285
545.141
545
544.861
544.727
544.596
544.468
544.342
544.219
544.098
543.979
543.861
543.745
543.63
543.516
543.404
543.292
543.18
543.07
542.96
542.85
542.741
542.632
542.524
542.416
542.308
542.201
542.093
541.986
541.879
541.772
541.666
541.559
541.453
541.346
541.24
541.134
541.028
540.921
540.815
540.709
540.603
552.505
552.415
552.326
552.236
552.147
552.057
551.968
551.879
551.789
551.699
551.61
551.52
551.43
551.34
551.249
551.159
551.07
550.98
550.892
550.805
550.719
550.635
550.553
550.472
550.393
550.315
550.238
550.163
550.09
550.017
549.946
549.876
549.807
549.738
549.671
549.603
549.535
549.468
549.4
549.331
549.263
549.193
549.123
549.051
548.979
548.905
548.83
548.753
548.675
548.595
548.513
548.429
548.343
548.255
548.165
548.073
547.978
547.882
547.783
547.682
547.579
547.472
547.363
547.251
547.137
547.019
546.899
546.775
546.649
546.521
546.389
546.255
546.119
545.98
545.839
545.697
545.553
545.409
545.265
545.123
544.983
544.846
544.713
544.583
544.456
544.332
544.21
544.09
543.972
543.855
543.74
543.625
543.512
543.4
543.288
543.177
543.067
542.957
542.848
542.739
542.63
542.522
542.414
542.307
542.199
542.092
541.985
541.878
541.772
541.665
541.559
541.452
541.346
541.24
541.133
541.027
540.921
540.815
540.709
540.603
552.502
552.407
552.312
552.217
552.123
552.03
551.937
551.845
551.753
551.662
551.571
551.481
551.391
551.301
551.212
551.123
551.034
550.946
550.858
550.772
550.687
550.603
550.52
550.439
550.359
550.281
550.204
550.128
550.053
549.98
549.908
549.838
549.768
549.699
549.631
549.563
549.496
549.428
549.36
549.291
549.222
549.153
549.082
549.011
548.938
548.864
548.789
548.712
548.633
548.553
548.471
548.386
548.3
548.211
548.121
548.028
547.933
547.837
547.738
547.637
547.533
547.427
547.318
547.206
547.092
546.975
546.855
546.733
546.608
546.481
546.351
546.218
546.083
545.946
545.807
545.667
545.525
545.384
545.242
545.102
544.963
544.828
544.696
544.568
544.443
544.32
544.199
544.08
543.963
543.848
543.733
543.619
543.507
543.395
543.284
543.173
543.064
542.954
542.845
542.737
542.628
542.52
542.413
542.305
542.198
542.091
541.984
541.877
541.771
541.664
541.558
541.452
541.345
541.239
541.133
541.027
540.921
540.815
540.709
540.603
552.499
552.398
552.297
552.198
552.099
552.002
551.905
551.81
551.716
551.623
551.531
551.44
551.349
551.259
551.17
551.081
550.993
550.905
550.818
550.732
550.647
550.563
550.48
550.399
550.318
550.239
550.161
550.085
550.009
549.935
549.863
549.792
549.722
549.653
549.585
549.517
549.449
549.382
549.314
549.245
549.177
549.107
549.037
548.965
548.893
548.819
548.743
548.666
548.587
548.507
548.424
548.339
548.252
548.163
548.072
547.979
547.884
547.787
547.688
547.587
547.483
547.377
547.268
547.157
547.043
546.927
546.808
546.686
546.562
546.436
546.307
546.176
546.043
545.908
545.77
545.631
545.492
545.352
545.213
545.075
544.939
544.805
544.676
544.55
544.426
544.305
544.186
544.069
543.953
543.839
543.725
543.613
543.501
543.39
543.279
543.169
543.06
542.951
542.842
542.734
542.626
542.518
542.411
542.303
542.196
542.09
541.983
541.876
541.77
541.663
541.557
541.451
541.345
541.239
541.133
541.027
540.921
540.815
540.709
540.603
552.496
552.389
552.283
552.178
552.075
551.973
551.873
551.775
551.678
551.583
551.489
551.396
551.305
551.214
551.125
551.036
550.948
550.86
550.773
550.687
550.601
550.517
550.433
550.351
550.27
550.19
550.111
550.034
549.958
549.884
549.811
549.74
549.67
549.601
549.532
549.465
549.397
549.329
549.262
549.194
549.125
549.056
548.986
548.914
548.842
548.768
548.693
548.616
548.537
548.456
548.373
548.288
548.201
548.112
548.021
547.927
547.832
547.735
547.635
547.534
547.43
547.324
547.215
547.104
546.991
546.875
546.757
546.636
546.513
546.388
546.26
546.13
545.999
545.865
545.729
545.592
545.454
545.317
545.18
545.044
544.91
544.779
544.652
544.528
544.407
544.289
544.172
544.056
543.942
543.829
543.716
543.605
543.494
543.383
543.274
543.164
543.055
542.947
542.839
542.731
542.623
542.516
542.408
542.301
542.195
542.088
541.981
541.875
541.769
541.662
541.556
541.45
541.344
541.238
541.132
541.026
540.92
540.815
540.709
540.603
552.493
552.381
552.269
552.159
552.051
551.945
551.842
551.74
551.641
551.543
551.447
551.353
551.26
551.168
551.077
550.988
550.899
550.81
550.722
550.635
550.549
550.463
550.379
550.296
550.214
550.133
550.054
549.976
549.9
549.826
549.753
549.681
549.611
549.542
549.473
549.406
549.338
549.271
549.203
549.136
549.067
548.999
548.929
548.858
548.786
548.712
548.637
548.561
548.482
548.401
548.318
548.233
548.146
548.057
547.966
547.872
547.777
547.679
547.58
547.478
547.375
547.269
547.16
547.05
546.937
546.822
546.704
546.584
546.462
546.338
546.211
546.083
545.952
545.82
545.686
545.55
545.414
545.277
545.142
545.008
544.877
544.748
544.625
544.504
544.386
544.27
544.156
544.042
543.93
543.818
543.707
543.596
543.486
543.377
543.268
543.159
543.05
542.942
542.835
542.727
542.62
542.513
542.406
542.299
542.193
542.086
541.98
541.874
541.767
541.661
541.555
541.449
541.343
541.238
541.132
541.026
540.92
540.814
540.709
540.603
552.491
552.373
552.256
552.141
552.029
551.919
551.811
551.706
551.604
551.504
551.406
551.31
551.215
551.121
551.028
550.936
550.846
550.755
550.666
550.578
550.49
550.403
550.318
550.234
550.151
550.07
549.99
549.912
549.836
549.761
549.688
549.616
549.546
549.476
549.408
549.34
549.273
549.206
549.139
549.071
549.004
548.935
548.866
548.796
548.725
548.652
548.577
548.501
548.422
548.342
548.259
548.175
548.088
547.999
547.907
547.814
547.719
547.621
547.522
547.42
547.317
547.211
547.103
546.993
546.88
546.766
546.649
546.53
546.409
546.286
546.161
546.033
545.904
545.773
545.64
545.506
545.37
545.234
545.1
544.967
544.838
544.713
544.594
544.477
544.363
544.25
544.138
544.027
543.916
543.806
543.696
543.587
543.478
543.369
543.261
543.153
543.045
542.938
542.83
542.723
542.617
542.51
542.403
542.297
542.19
542.084
541.978
541.872
541.766
541.66
541.554
541.448
541.343
541.237
541.131
541.026
540.92
540.814
540.708
540.603
552.489
552.366
552.245
552.125
552.008
551.894
551.782
551.674
551.569
551.466
551.365
551.266
551.169
551.072
550.976
550.882
550.789
550.696
550.605
550.514
550.425
550.337
550.251
550.166
550.083
550.001
549.921
549.843
549.766
549.691
549.617
549.545
549.474
549.405
549.337
549.269
549.202
549.135
549.068
549.001
548.934
548.866
548.798
548.728
548.658
548.585
548.512
548.436
548.358
548.278
548.196
548.112
548.025
547.937
547.845
547.752
547.657
547.56
547.461
547.36
547.257
547.152
547.044
546.934
546.823
546.709
546.593
546.475
546.355
546.233
546.109
545.983
545.855
545.726
545.594
545.46
545.325
545.189
545.054
544.921
544.793
544.673
544.56
544.449
544.339
544.229
544.12
544.011
543.903
543.794
543.686
543.577
543.469
543.362
543.254
543.147
543.04
542.933
542.826
542.719
542.613
542.507
542.4
542.294
542.188
542.082
541.976
541.87
541.765
541.659
541.553
541.447
541.342
541.236
541.131
541.025
540.919
540.814
540.708
540.603
552.486
552.36
552.234
552.11
551.988
551.87
551.755
551.643
551.534
551.428
551.324
551.222
551.121
551.02
550.921
550.824
550.727
550.632
550.539
550.446
550.356
550.267
550.179
550.094
550.01
549.928
549.847
549.768
549.691
549.615
549.541
549.469
549.398
549.328
549.26
549.192
549.125
549.058
548.992
548.925
548.859
548.791
548.724
548.655
548.585
548.514
548.441
548.366
548.289
548.21
548.129
548.045
547.959
547.871
547.78
547.688
547.593
547.496
547.398
547.297
547.195
547.09
546.983
546.875
546.764
546.651
546.536
546.419
546.3
546.179
546.056
545.932
545.805
545.677
545.547
545.415
545.28
545.142
545.004
544.868
544.739
544.627
544.522
544.418
544.314
544.208
544.102
543.995
543.888
543.781
543.674
543.567
543.461
543.354
543.247
543.14
543.034
542.928
542.821
542.715
542.609
542.503
542.397
542.291
542.186
542.08
541.974
541.869
541.763
541.657
541.552
541.446
541.341
541.235
541.13
541.025
540.919
540.814
540.708
540.603
552.484
552.353
552.223
552.095
551.97
551.847
551.728
551.612
551.499
551.389
551.281
551.174
551.069
550.965
550.863
550.762
550.662
550.565
550.469
550.375
550.283
550.193
550.104
550.017
549.932
549.849
549.768
549.689
549.611
549.535
549.461
549.388
549.317
549.247
549.179
549.111
549.044
548.977
548.911
548.845
548.778
548.712
548.645
548.577
548.508
548.437
548.365
548.291
548.215
548.137
548.057
547.974
547.889
547.801
547.712
547.62
547.526
547.43
547.332
547.232
547.131
547.027
546.921
546.813
546.704
546.592
546.478
546.362
546.244
546.125
546.003
545.88
545.756
545.629
545.5
545.368
545.234
545.096
544.954
544.808
544.665
544.575
544.484
544.389
544.289
544.187
544.084
543.979
543.874
543.769
543.663
543.557
543.451
543.346
543.24
543.134
543.028
542.922
542.817
542.711
542.605
542.5
542.394
542.289
542.183
542.078
541.972
541.867
541.761
541.656
541.551
541.445
541.34
541.235
541.129
541.024
540.919
540.813
540.708
540.603
552.482
552.348
552.214
552.082
551.952
551.825
551.701
551.581
551.463
551.348
551.235
551.124
551.014
550.906
550.801
550.697
550.595
550.495
550.397
550.301
550.207
550.115
550.026
549.938
549.852
549.768
549.686
549.606
549.528
549.451
549.377
549.304
549.233
549.163
549.094
549.026
548.959
548.892
548.826
548.76
548.694
548.628
548.561
548.494
548.425
548.356
548.285
548.212
548.137
548.06
547.981
547.899
547.815
547.728
547.639
547.548
547.456
547.361
547.264
547.165
547.064
546.962
546.857
546.751
546.642
546.532
546.42
546.305
546.189
546.071
545.951
545.829
545.706
545.581
545.454
545.325
545.192
545.055
544.91
544.748
544.539
544.522
544.451
544.363
544.267
544.168
544.067
543.964
543.861
543.756
543.652
543.547
543.442
543.337
543.232
543.127
543.022
542.917
542.812
542.706
542.601
542.496
542.391
542.286
542.18
542.075
541.97
541.865
541.76
541.655
541.549
541.444
541.339
541.234
541.129
541.023
540.918
540.813
540.708
540.603
552.481
552.342
552.204
552.068
551.934
551.802
551.674
551.548
551.425
551.304
551.186
551.07
550.956
550.845
550.736
550.63
550.525
550.423
550.323
550.225
550.13
550.036
549.945
549.856
549.769
549.684
549.601
549.521
549.442
549.365
549.29
549.217
549.145
549.075
549.006
548.938
548.871
548.804
548.738
548.672
548.606
548.54
548.474
548.407
548.339
548.271
548.201
548.129
548.055
547.979
547.901
547.82
547.737
547.652
547.564
547.474
547.382
547.289
547.193
547.096
546.996
546.895
546.792
546.687
546.58
546.471
546.36
546.248
546.133
546.017
545.899
545.779
545.658
545.535
545.411
545.284
545.154
545.022
544.886
544.745
544.607
544.521
544.436
544.345
544.249
544.151
544.051
543.949
543.847
543.744
543.641
543.537
543.433
543.329
543.225
543.12
543.016
542.911
542.807
542.702
542.597
542.492
542.388
542.283
542.178
542.073
541.968
541.863
541.758
541.653
541.548
541.443
541.338
541.233
541.128
541.023
540.918
540.813
540.708
540.603
552.479
552.336
552.195
552.055
551.916
551.78
551.646
551.514
551.385
551.259
551.135
551.015
550.897
550.783
550.671
550.562
550.455
550.35
550.248
550.148
550.051
549.956
549.864
549.773
549.685
549.599
549.515
549.434
549.354
549.277
549.201
549.128
549.056
548.985
548.916
548.848
548.78
548.713
548.647
548.581
548.515
548.449
548.383
548.317
548.25
548.182
548.113
548.042
547.969
547.894
547.817
547.738
547.656
547.572
547.485
547.397
547.307
547.214
547.12
547.024
546.926
546.826
546.725
546.622
546.516
546.409
546.3
546.19
546.077
545.963
545.847
545.73
545.611
545.491
545.369
545.246
545.121
544.995
544.868
544.742
544.622
544.521
544.426
544.33
544.234
544.136
544.036
543.936
543.834
543.732
543.63
543.527
543.424
543.321
543.217
543.113
543.01
542.906
542.801
542.697
542.593
542.489
542.384
542.28
542.175
542.07
541.966
541.861
541.756
541.652
541.547
541.442
541.337
541.232
541.127
541.022
540.917
540.812
540.707
540.602
552.477
552.331
552.186
552.041
551.898
551.756
551.617
551.48
551.345
551.213
551.084
550.959
550.837
550.719
550.605
550.493
550.384
550.278
550.173
550.072
549.972
549.876
549.782
549.69
549.601
549.514
549.429
549.346
549.266
549.187
549.111
549.037
548.965
548.894
548.825
548.756
548.688
548.621
548.554
548.488
548.422
548.356
548.29
548.225
548.158
548.091
548.022
547.952
547.88
547.806
547.73
547.652
547.572
547.489
547.404
547.317
547.228
547.138
547.045
546.951
546.855
546.757
546.657
546.555
546.452
546.347
546.24
546.131
546.021
545.91
545.796
545.681
545.565
545.448
545.329
545.21
545.09
544.969
544.849
544.732
544.619
544.515
544.415
544.317
544.22
544.121
544.022
543.922
543.822
543.721
543.619
543.518
543.415
543.313
543.21
543.107
543.003
542.9
542.796
542.693
542.589
542.485
542.381
542.277
542.172
542.068
541.964
541.859
541.755
541.65
541.545
541.441
541.336
541.231
541.127
541.022
540.917
540.812
540.707
540.602
552.475
552.326
552.177
552.028
551.88
551.734
551.589
551.446
551.305
551.168
551.034
550.904
550.779
550.657
550.54
550.426
550.315
550.206
550.1
549.996
549.895
549.796
549.701
549.608
549.517
549.429
549.343
549.259
549.178
549.098
549.021
548.946
548.873
548.802
548.732
548.663
548.595
548.528
548.461
548.395
548.329
548.263
548.197
548.131
548.065
547.998
547.93
547.86
547.789
547.716
547.641
547.564
547.485
547.404
547.321
547.235
547.148
547.059
546.968
546.876
546.781
546.685
546.587
546.488
546.386
546.284
546.179
546.073
545.965
545.856
545.746
545.634
545.521
545.406
545.291
545.176
545.06
544.944
544.829
544.717
544.608
544.504
544.403
544.304
544.206
544.107
544.009
543.91
543.81
543.71
543.609
543.508
543.407
543.305
543.203
543.1
542.997
542.895
542.791
542.688
542.585
542.481
542.377
542.274
542.17
542.066
541.961
541.857
541.753
541.649
541.544
541.44
541.335
541.23
541.126
541.021
540.916
540.812
540.707
540.602
552.474
552.321
552.169
552.017
551.864
551.713
551.563
551.414
551.269
551.126
550.988
550.854
550.724
550.599
550.478
550.361
550.248
550.137
550.029
549.923
549.82
549.72
549.623
549.528
549.436
549.346
549.259
549.174
549.092
549.011
548.933
548.857
548.783
548.711
548.64
548.571
548.503
548.435
548.368
548.301
548.235
548.169
548.103
548.038
547.971
547.905
547.837
547.768
547.697
547.625
547.551
547.475
547.397
547.317
547.236
547.152
547.066
546.979
546.89
546.799
546.707
546.613
546.517
546.42
546.321
546.22
546.118
546.015
545.909
545.803
545.695
545.586
545.476
545.365
545.254
545.142
545.029
544.918
544.807
544.698
544.592
544.489
544.389
544.29
544.192
544.094
543.996
543.897
543.798
543.699
543.599
543.499
543.398
543.297
543.195
543.094
542.992
542.889
542.787
542.684
542.581
542.478
542.374
542.271
542.167
542.063
541.959
541.855
541.751
541.647
541.543
541.438
541.334
541.23
541.125
541.021
540.916
540.811
540.707
540.602
552.473
552.317
552.162
552.006
551.85
551.695
551.54
551.387
551.237
551.089
550.947
550.808
550.674
550.546
550.421
550.302
550.186
550.073
549.963
549.855
549.75
549.648
549.549
549.452
549.358
549.267
549.178
549.092
549.008
548.926
548.847
548.77
548.695
548.622
548.55
548.48
548.412
548.343
548.276
548.209
548.143
548.077
548.011
547.944
547.878
547.811
547.744
547.675
547.605
547.533
547.46
547.385
547.308
547.229
547.149
547.067
546.983
546.897
546.81
546.721
546.631
546.539
546.446
546.351
546.254
546.156
546.056
545.956
545.853
545.75
545.645
545.539
545.432
545.324
545.216
545.108
544.999
544.891
544.783
544.677
544.572
544.471
544.372
544.274
544.177
544.08
543.983
543.885
543.787
543.688
543.589
543.49
543.39
543.289
543.189
543.087
542.986
542.884
542.782
542.68
542.577
542.474
542.371
542.268
542.164
542.061
541.957
541.853
541.75
541.646
541.542
541.437
541.333
541.229
541.124
541.02
540.916
540.811
540.707
540.602
552.472
552.315
552.157
551.999
551.84
551.68
551.522
551.365
551.211
551.06
550.913
550.771
550.634
550.501
550.373
550.25
550.131
550.015
549.903
549.792
549.685
549.58
549.479
549.381
549.285
549.192
549.101
549.014
548.928
548.845
548.765
548.686
548.61
548.536
548.464
548.393
548.324
548.255
548.187
548.119
548.053
547.986
547.92
547.853
547.786
547.719
547.652
547.583
547.513
547.441
547.369
547.294
547.218
547.141
547.061
546.98
546.898
546.814
546.729
546.642
546.553
546.464
546.373
546.28
546.186
546.09
545.993
545.895
545.796
545.696
545.594
545.491
545.388
545.283
545.178
545.073
544.967
544.863
544.758
544.653
544.549
544.45
544.354
544.258
544.162
544.066
543.97
543.873
543.776
543.678
543.58
543.481
543.382
543.282
543.182
543.081
542.98
542.879
542.777
542.675
542.573
542.471
542.368
542.265
542.162
542.059
541.955
541.852
541.748
541.644
541.54
541.436
541.332
541.228
541.124
541.02
540.915
540.811
540.707
540.602
552.471
552.313
552.154
551.994
551.834
551.672
551.511
551.351
551.194
551.041
550.891
550.746
550.605
550.468
550.336
550.209
550.085
549.966
549.85
549.736
549.626
549.519
549.415
549.314
549.216
549.121
549.029
548.94
548.853
548.769
548.687
548.608
548.531
548.456
548.383
548.311
548.24
548.171
548.102
548.034
547.966
547.899
547.832
547.765
547.697
547.63
547.561
547.492
547.421
547.35
547.277
547.203
547.128
547.051
546.973
546.893
546.812
546.73
546.646
546.561
546.475
546.387
546.298
546.208
546.117
546.024
545.929
545.834
545.738
545.64
545.542
545.442
545.342
545.241
545.139
545.037
544.935
544.833
544.732
544.629
544.519
544.426
544.334
544.241
544.147
544.053
543.957
543.862
543.765
543.668
543.571
543.473
543.374
543.275
543.176
543.076
542.975
542.874
542.773
542.672
542.57
542.468
542.365
542.263
542.16
542.057
541.953
541.85
541.747
541.643
541.539
541.435
541.331
541.227
541.123
541.019
540.915
540.811
540.706
540.602
552.471
552.312
552.154
551.994
551.832
551.67
551.508
551.347
551.188
551.032
550.881
550.733
550.589
550.448
550.312
550.179
550.05
549.926
549.805
549.688
549.574
549.464
549.357
549.254
549.154
549.057
548.963
548.872
548.784
548.699
548.616
548.536
548.458
548.382
548.308
548.235
548.164
548.093
548.024
547.955
547.886
547.818
547.749
547.681
547.612
547.543
547.474
547.403
547.332
547.26
547.187
547.113
547.038
546.961
546.884
546.805
546.725
546.644
546.562
546.479
546.395
546.309
546.223
546.135
546.046
545.956
545.864
545.771
545.678
545.583
545.488
545.392
545.295
545.197
545.099
545
544.901
544.802
544.705
544.612
544.47
544.399
544.314
544.224
544.132
544.039
543.945
543.85
543.755
543.659
543.562
543.465
543.367
543.269
543.17
543.07
542.97
542.87
542.769
542.668
542.566
542.465
542.362
542.26
542.157
542.055
541.952
541.848
541.745
541.642
541.538
541.434
541.33
541.227
541.123
541.019
540.915
540.81
540.706
540.602
552.471
552.314
552.156
551.997
551.836
551.674
551.512
551.35
551.191
551.035
550.882
550.732
550.585
550.441
550.299
550.161
550.026
549.895
549.769
549.648
549.53
549.417
549.307
549.201
549.099
549
548.904
548.812
548.723
548.637
548.553
548.472
548.393
548.316
548.241
548.168
548.095
548.024
547.953
547.883
547.813
547.743
547.673
547.603
547.532
547.461
547.39
547.318
547.245
547.172
547.098
547.023
546.948
546.871
546.794
546.716
546.637
546.558
546.477
546.396
546.314
546.23
546.146
546.061
545.974
545.886
545.797
545.707
545.616
545.525
545.433
545.34
545.247
545.152
545.057
544.96
544.864
544.768
544.673
544.577
544.473
544.386
544.298
544.208
544.117
544.026
543.933
543.839
543.745
543.65
543.554
543.457
543.36
543.263
543.164
543.065
542.966
542.866
542.765
542.664
542.563
542.462
542.36
542.258
542.155
542.053
541.95
541.847
541.744
541.64
541.537
541.433
541.33
541.226
541.122
541.018
540.914
540.81
540.706
540.602
552.472
552.317
552.162
552.005
551.846
551.685
551.523
551.362
551.203
551.046
550.892
550.74
550.59
550.442
550.296
550.152
550.011
549.875
549.743
549.616
549.495
549.378
549.266
549.157
549.053
548.952
548.855
548.761
548.671
548.584
548.499
548.417
548.337
548.26
548.184
548.11
548.037
547.965
547.894
547.822
547.75
547.677
547.604
547.531
547.458
547.384
547.31
547.236
547.162
547.087
547.012
546.936
546.859
546.783
546.705
546.627
546.549
546.47
546.392
546.312
546.232
546.151
546.069
545.986
545.901
545.816
545.729
545.642
545.553
545.465
545.376
545.286
545.196
545.104
545.012
544.918
544.825
544.733
544.641
544.55
544.459
544.37
544.282
544.193
544.103
544.012
543.921
543.828
543.735
543.641
543.546
543.45
543.354
543.257
543.159
543.06
542.961
542.862
542.762
542.661
542.56
542.459
542.358
542.256
542.154
542.051
541.948
541.846
541.743
541.639
541.536
541.433
541.329
541.225
541.122
541.018
540.914
540.81
540.706
540.602
552.475
552.324
552.173
552.019
551.861
551.702
551.54
551.379
551.219
551.061
550.904
550.749
550.596
550.444
550.294
550.146
550.002
549.861
549.725
549.594
549.47
549.351
549.237
549.126
549.02
548.918
548.819
548.723
548.631
548.542
548.456
548.372
548.291
548.213
548.136
548.062
547.99
547.918
547.845
547.771
547.696
547.62
547.543
547.466
547.39
547.313
547.236
547.159
547.082
547.005
546.928
546.851
546.773
546.696
546.618
546.54
546.462
546.384
546.307
546.229
546.151
546.072
545.992
545.911
545.829
545.745
545.661
545.576
545.49
545.403
545.317
545.23
545.143
545.054
544.964
544.873
544.782
544.694
544.607
544.523
544.438
544.352
544.265
544.177
544.089
544
543.909
543.818
543.726
543.633
543.539
543.444
543.348
543.252
543.154
543.056
542.958
542.858
542.759
542.658
542.558
542.457
542.355
542.254
542.152
542.05
541.947
541.844
541.742
541.638
541.535
541.432
541.328
541.225
541.121
541.017
540.914
540.81
540.706
540.602
552.479
552.336
552.19
552.039
551.883
551.723
551.561
551.398
551.234
551.071
550.909
550.748
550.589
550.434
550.282
550.133
549.988
549.848
549.711
549.58
549.456
549.338
549.224
549.113
549.006
548.902
548.8
548.7
548.603
548.512
548.423
548.336
548.251
548.17
548.093
548.019
547.948
547.877
547.805
547.73
547.651
547.57
547.487
547.405
547.324
547.244
547.165
547.086
547.007
546.927
546.848
546.769
546.691
546.613
546.534
546.456
546.378
546.301
546.225
546.149
546.072
545.994
545.915
545.836
545.756
545.675
545.593
545.51
545.426
545.341
545.257
545.173
545.088
545.001
544.912
544.823
544.735
544.65
544.57
544.493
544.416
544.332
544.246
544.161
544.074
543.987
543.898
543.809
543.718
543.626
543.532
543.438
543.343
543.247
543.15
543.052
542.954
542.855
542.756
542.656
542.556
542.455
542.354
542.252
542.15
542.048
541.946
541.843
541.741
541.638
541.535
541.431
541.328
541.224
541.121
541.017
540.913
540.81
540.706
540.602
552.485
552.354
552.216
552.068
551.91
551.747
551.582
551.414
551.243
551.069
550.896
550.724
550.557
550.398
550.246
550.099
549.958
549.823
549.693
549.567
549.449
549.337
549.226
549.117
549.012
548.909
548.799
548.688
548.583
548.486
548.393
548.302
548.211
548.122
548.042
547.969
547.901
547.833
547.762
547.687
547.605
547.517
547.426
547.339
547.257
547.175
547.095
547.015
546.934
546.853
546.774
546.693
546.614
546.535
546.456
546.379
546.301
546.223
546.148
546.073
545.997
545.918
545.837
545.757
545.679
545.602
545.524
545.445
545.363
545.281
545.199
545.116
545.032
544.947
544.861
544.772
544.684
544.603
544.53
544.466
544.398
544.313
544.227
544.144
544.06
543.975
543.888
543.8
543.71
543.619
543.527
543.433
543.338
543.243
543.146
543.049
542.951
542.853
542.754
542.654
542.554
542.453
542.352
542.251
542.149
542.047
541.945
541.842
541.74
541.637
541.534
541.431
541.327
541.224
541.12
541.017
540.913
540.809
540.706
540.602
552.493
552.379
552.252
552.103
551.936
551.763
551.593
551.42
551.237
551.048
550.86
550.666
550.485
550.326
550.177
550.033
549.895
549.772
549.659
549.545
549.436
549.335
549.229
549.124
549.027
548.929
548.804
548.675
548.552
548.449
548.356
548.267
548.165
548.064
547.977
547.899
547.829
547.758
547.686
547.615
547.534
547.44
547.343
547.261
547.187
547.105
547.026
546.944
546.863
546.783
546.709
546.624
546.542
546.464
546.389
546.315
546.239
546.157
546.081
546.005
545.929
545.842
545.753
545.665
545.583
545.515
545.443
545.376
545.3
545.227
545.146
545.064
544.974
544.892
544.817
544.727
544.639
544.563
544.497
544.456
544.406
544.298
544.207
544.125
544.045
543.963
543.878
543.792
543.703
543.613
543.522
543.429
543.335
543.24
543.143
543.047
542.949
542.851
542.752
542.652
542.552
542.452
542.351
542.25
542.148
542.046
541.944
541.842
541.739
541.636
541.533
541.43
541.327
541.224
541.12
541.017
540.913
540.809
540.706
540.602
552.501
552.414
552.293
552.126
551.933
551.734
551.56
551.386
551.198
551.018
550.83
550.588
550.38
550.223
550.08
549.939
549.794
549.689
549.616
549.524
549.414
549.312
549.194
549.084
549.001
548.921
548.767
548.629
548.484
548.388
548.308
548.242
548.125
548.019
547.94
547.833
547.732
547.628
547.526
547.466
547.401
547.302
547.206
547.171
547.131
547.058
546.988
546.889
546.811
546.723
546.679
546.575
546.476
546.404
546.344
546.282
546.218
546.118
546.04
545.959
545.889
545.777
545.672
545.545
545.44
545.387
545.32
545.29
545.227
545.187
545.101
545.03
544.909
544.824
544.802
544.689
544.599
544.546
544.486
544.511
544.421
544.28
544.185
544.106
544.03
543.952
543.87
543.785
543.698
543.609
543.518
543.425
543.332
543.237
543.141
543.045
542.947
542.849
542.75
542.651
542.551
542.451
542.35
542.249
542.147
542.046
541.943
541.841
541.739
541.636
541.533
541.43
541.327
541.223
541.12
541.016
540.913
540.809
540.706
540.602
552.508
552.462
552.299
552.061
551.817
551.574
551.425
551.235
551.064
551.052
550.937
550.571
550.342
550.129
549.953
549.861
549.719
549.637
549.652
549.642
549.451
549.275
549.09
548.914
548.819
548.78
548.586
548.487
548.397
548.307
548.261
548.265
548.127
548.082
548.024
547.916
547.712
547.428
547.275
547.247
547.231
547.064
546.973
547.077
547.137
547.127
547.084
546.956
546.853
546.656
546.66
546.564
546.392
546.372
546.363
546.282
546.28
546.125
546.004
545.968
545.939
545.772
545.654
545.382
545.239
545.167
545.072
545.158
545.109
545.197
544.997
545.074
544.951
544.734
544.63
544.627
544.447
544.54
544.51
544.512
544.391
544.239
544.157
544.088
544.018
543.943
543.864
543.78
543.694
543.605
543.515
543.423
543.33
543.235
543.14
543.043
542.946
542.848
542.749
542.65
542.55
542.45
542.349
542.248
542.147
542.045
541.943
541.841
541.738
541.636
541.533
541.43
541.327
541.223
541.12
541.016