0.010101 	-3.41996e-14 	8.30097e-17 	-1.72379e-15
0.020202 	1.72447e-14 	-2.27171e-17 	-1.41543e-16
