/*--------------------------------*- C++ -*----------------------------------*\
  =========                 |
  \\      /  F ield         | OpenFOAM: The Open Source CFD Toolbox
   \\    /   O peration     | Website:  https://openfoam.org
    \\  /    A nd           | Version:  6
     \\/     M anipulation  |
\*---------------------------------------------------------------------------*/
FoamFile
{
    version     2.0;
    format      ascii;
    class       volScalarField;
    location    "300";
    object      dmdt;
}
// * * * * * * * * * * * * * * * * * * * * * * * * * * * * * * * * * * * * * //

dimensions      [0 0 0 0 0 0 0];

internalField   nonuniform List<scalar> 
4800
(
-0.21894
-0.215652
-0.212406
-0.209226
-0.206122
-0.203099
-0.200152
-0.197271
-0.194444
-0.191652
-0.188885
-0.186137
-0.183408
-0.180694
-0.177997
-0.175318
-0.172662
-0.17004
-0.167473
-0.164989
-0.162608
-0.160343
-0.158192
-0.156144
-0.154189
-0.152306
-0.150481
-0.148703
-0.146962
-0.145254
-0.143573
-0.141912
-0.140259
-0.1386
-0.136916
-0.135182
-0.133374
-0.131475
-0.129473
-0.127351
-0.125099
-0.122713
-0.120201
-0.117575
-0.114852
-0.112047
-0.109179
-0.106264
-0.103322
-0.10037
-0.0974227
-0.0944985
-0.0916117
-0.0887726
-0.0859874
-0.0832574
-0.0805801
-0.0779518
-0.0753651
-0.0728116
-0.070286
-0.0677824
-0.0652895
-0.0627948
-0.0602975
-0.0577906
-0.0552601
-0.0527049
-0.0501202
-0.0474867
-0.044801
-0.0420718
-0.0393022
-0.036492
-0.0336411
-0.030754
-0.0278435
-0.0249239
-0.0220057
-0.0190871
-0.0161098
-0.0130544
-0.00994075
-0.00678477
-0.00359748
-0.000386991
0.0028404
0.00607964
0.00932678
0.0125786
0.0158327
0.0190868
0.0223395
0.0255896
0.0288361
0.0320783
0.0353159
0.0385486
0.0417762
0.0449987
0.0482162
0.0514288
0.0546368
0.0578403
0.0610396
0.064235
0.0674267
0.0706151
0.0738004
0.0769829
0.0801629
0.0833407
0.0865164
0.0896904
0.0928629
0.0960341
0.0992044
0.102374
0.105543
0.108711
-0.218951
-0.215683
-0.212457
-0.209293
-0.206204
-0.203194
-0.200259
-0.197389
-0.194569
-0.191786
-0.189025
-0.186284
-0.183561
-0.180854
-0.178162
-0.17549
-0.172843
-0.170234
-0.167684
-0.165218
-0.162854
-0.160603
-0.158463
-0.156422
-0.15447
-0.152588
-0.150762
-0.148982
-0.147241
-0.145535
-0.143858
-0.1422
-0.140552
-0.138898
-0.137218
-0.135485
-0.133677
-0.131776
-0.129773
-0.127645
-0.125383
-0.122985
-0.120462
-0.117826
-0.115094
-0.112281
-0.109405
-0.106488
-0.103546
-0.100595
-0.0976537
-0.0947372
-0.091859
-0.0890282
-0.0862495
-0.0835219
-0.0808429
-0.0782099
-0.0756169
-0.0730581
-0.0705278
-0.0680188
-0.065521
-0.0630211
-0.0605213
-0.0580116
-0.0554791
-0.052925
-0.0503423
-0.0477109
-0.0450339
-0.0423156
-0.0395546
-0.0367502
-0.0338995
-0.0310063
-0.0280779
-0.0251233
-0.0221624
-0.0191979
-0.0161791
-0.0130994
-0.00997043
-0.00680416
-0.00360955
-0.000393662
0.00283777
0.00608004
0.00932944
0.0125829
0.0158381
0.0190931
0.0223463
0.0255966
0.0288432
0.0320854
0.0353228
0.0385552
0.0417825
0.0450046
0.0482218
0.051434
0.0546416
0.0578448
0.0610437
0.0642388
0.0674302
0.0706182
0.0738032
0.0769854
0.0801651
0.0833426
0.0865181
0.0896918
0.0928641
0.0960351
0.0992051
0.102374
0.105543
0.108711
-0.218968
-0.215737
-0.212549
-0.209418
-0.206357
-0.203373
-0.200458
-0.197603
-0.194796
-0.192025
-0.189281
-0.186559
-0.183853
-0.18116
-0.178482
-0.175825
-0.173195
-0.17061
-0.16809
-0.165654
-0.163319
-0.161089
-0.158964
-0.156933
-0.154986
-0.153106
-0.15128
-0.149502
-0.147766
-0.146069
-0.144402
-0.142755
-0.141118
-0.139475
-0.137799
-0.136064
-0.134251
-0.132346
-0.130335
-0.128189
-0.125906
-0.123483
-0.120935
-0.118276
-0.115524
-0.112697
-0.109815
-0.106895
-0.103954
-0.101008
-0.0980748
-0.0951692
-0.0923017
-0.0894803
-0.0867077
-0.0839831
-0.0813052
-0.0786721
-0.0760772
-0.0735151
-0.0709788
-0.0684599
-0.0659498
-0.0634371
-0.0609289
-0.0584069
-0.0558657
-0.0533092
-0.050722
-0.0480904
-0.0454252
-0.0427182
-0.0399658
-0.037166
-0.0343193
-0.0314284
-0.0284833
-0.0254835
-0.0224446
-0.0193901
-0.0163011
-0.0131806
-0.0100251
-0.00684017
-0.00363186
-0.000405688
0.00283353
0.00608167
0.00933544
0.0125921
0.0158496
0.019106
0.0223602
0.0256109
0.0288576
0.0320996
0.0353366
0.0385685
0.0417951
0.0450166
0.048233
0.0514445
0.0546513
0.0578537
0.061052
0.0642463
0.067437
0.0706244
0.0738088
0.0769904
0.0801696
0.0833465
0.0865214
0.0896947
0.0928665
0.096037
0.0992066
0.102375
0.105544
0.108712
-0.218994
-0.215815
-0.212675
-0.209592
-0.206577
-0.203629
-0.200742
-0.197909
-0.195119
-0.192365
-0.18964
-0.186939
-0.184254
-0.181585
-0.178932
-0.176299
-0.173697
-0.171143
-0.168657
-0.166258
-0.163956
-0.161754
-0.159648
-0.157632
-0.155693
-0.153817
-0.151995
-0.150226
-0.148505
-0.146826
-0.14518
-0.143553
-0.141937
-0.140307
-0.138634
-0.136893
-0.135071
-0.133154
-0.131121
-0.128943
-0.126626
-0.12417
-0.12159
-0.118899
-0.11612
-0.113272
-0.110374
-0.107447
-0.104504
-0.101563
-0.0986394
-0.095746
-0.0928922
-0.0900847
-0.0873248
-0.0846131
-0.0819485
-0.0793274
-0.07674
-0.0741799
-0.0716394
-0.0691092
-0.0665821
-0.064052
-0.0615271
-0.0589802
-0.0564189
-0.0538417
-0.0512236
-0.0485686
-0.045888
-0.0431629
-0.040393
-0.0375761
-0.0347108
-0.0317937
-0.0288202
-0.0257909
-0.0227074
-0.0195945
-0.016448
-0.0132852
-0.0100978
-0.00688852
-0.00366149
-0.000420896
0.00282937
0.0060859
0.00934592
0.0126072
0.0158678
0.0191263
0.0223817
0.025633
0.0288796
0.0321213
0.0353577
0.0385887
0.0418143
0.0450347
0.04825
0.0514603
0.054666
0.0578672
0.0610643
0.0642576
0.0674473
0.0706337
0.0738172
0.0769979
0.0801762
0.0833523
0.0865265
0.089699
0.0928701
0.0960399
0.0992088
0.102377
0.105545
0.108712
-0.219031
-0.215922
-0.212845
-0.209816
-0.206849
-0.203944
-0.201095
-0.19829
-0.195522
-0.192786
-0.190079
-0.187399
-0.18474
-0.182101
-0.17948
-0.17688
-0.17431
-0.171791
-0.169342
-0.166981
-0.164717
-0.162547
-0.160466
-0.158469
-0.156544
-0.154682
-0.152876
-0.151127
-0.149431
-0.147782
-0.146164
-0.144563
-0.142965
-0.141345
-0.139673
-0.137927
-0.136092
-0.134152
-0.13208
-0.129861
-0.127504
-0.125011
-0.122396
-0.119674
-0.116867
-0.113996
-0.111081
-0.108142
-0.105197
-0.102262
-0.0993503
-0.096474
-0.0936404
-0.0908552
-0.0881194
-0.0854325
-0.0827901
-0.0801866
-0.0776104
-0.0750554
-0.0725114
-0.0699696
-0.067423
-0.064871
-0.0623153
-0.059734
-0.0571373
-0.0545171
-0.0518558
-0.0491631
-0.0464385
-0.043669
-0.0408553
-0.0379953
-0.0350876
-0.0321293
-0.0291141
-0.0260441
-0.0229302
-0.0197917
-0.0166072
-0.0134044
-0.0101823
-0.00694464
-0.0036949
-0.000436464
0.00282762
0.00609466
0.00936249
0.0126294
0.0158939
0.0191549
0.0224116
0.0256634
0.02891
0.032151
0.0353864
0.0386161
0.0418403
0.0450591
0.0482728
0.0514815
0.0546856
0.0578853
0.0610809
0.0642727
0.067461
0.0706461
0.0738283
0.0770078
0.080185
0.08336
0.0865331
0.0897047
0.0928748
0.0960438
0.0992118
0.102379
0.105546
0.108712
-0.219068
-0.216034
-0.213029
-0.210069
-0.20716
-0.204303
-0.201492
-0.198717
-0.195971
-0.193254
-0.19057
-0.187915
-0.185287
-0.182683
-0.1801
-0.177541
-0.175013
-0.172534
-0.170121
-0.167791
-0.165556
-0.163417
-0.161368
-0.1594
-0.157502
-0.155669
-0.153893
-0.152177
-0.150517
-0.148904
-0.147318
-0.14574
-0.144157
-0.142546
-0.140874
-0.139122
-0.13727
-0.135296
-0.13318
-0.130919
-0.128518
-0.125986
-0.123337
-0.120588
-0.117757
-0.114867
-0.111938
-0.10899
-0.106045
-0.103119
-0.100225
-0.0973727
-0.0945668
-0.0918125
-0.0891076
-0.0864482
-0.0838285
-0.0812419
-0.0786757
-0.0761242
-0.0735754
-0.0710199
-0.0684527
-0.065873
-0.0632778
-0.0606584
-0.0580157
-0.0553416
-0.0526295
-0.0498835
-0.0470985
-0.0442705
-0.0413973
-0.0384772
-0.0355113
-0.0325023
-0.0294512
-0.0263526
-0.0232048
-0.0200209
-0.016784
-0.0135356
-0.0102745
-0.00700434
-0.00372838
-0.000449187
0.00283101
0.00611029
0.00938716
0.0126605
0.0159293
0.019193
0.022451
0.0257031
0.0289492
0.0321892
0.0354231
0.0386511
0.0418733
0.0450901
0.0483017
0.0515083
0.0547103
0.0579079
0.0611016
0.0642915
0.0674781
0.0706615
0.0738421
0.0770201
0.0801959
0.0833695
0.0865414
0.0897117
0.0928807
0.0960485
0.0992155
0.102382
0.105547
0.108713
-0.219107
-0.21615
-0.213218
-0.210324
-0.207475
-0.204669
-0.201897
-0.199152
-0.196433
-0.193745
-0.191091
-0.188468
-0.185875
-0.183309
-0.180768
-0.178252
-0.175765
-0.173323
-0.170946
-0.168654
-0.166456
-0.164352
-0.162339
-0.160407
-0.158547
-0.156754
-0.15502
-0.153347
-0.151728
-0.150154
-0.148599
-0.147041
-0.145469
-0.143863
-0.14219
-0.14043
-0.138558
-0.136555
-0.134404
-0.132102
-0.129655
-0.127082
-0.124401
-0.121626
-0.118777
-0.115876
-0.112945
-0.110003
-0.107065
-0.104153
-0.101281
-0.0984572
-0.0956827
-0.0929612
-0.0902879
-0.087654
-0.0850532
-0.0824794
-0.0799219
-0.0773732
-0.0748188
-0.072249
-0.0696608
-0.0670508
-0.0644163
-0.0617539
-0.059059
-0.0563276
-0.053557
-0.0507475
-0.0478971
-0.045004
-0.0420654
-0.0390789
-0.0360439
-0.0329621
-0.0298337
-0.0266693
-0.0234865
-0.0202666
-0.0169756
-0.0136757
-0.0103702
-0.00706352
-0.00375809
-0.000455612
0.00284258
0.0061354
0.00942216
0.0127023
0.0159756
0.0192419
0.022501
0.025753
0.0289981
0.0322365
0.0354683
0.038694
0.0419137
0.0451278
0.0483367
0.0515407
0.0547401
0.0579352
0.0611265
0.0643142
0.0674986
0.0706799
0.0738586
0.0770348
0.0802089
0.0833809
0.0865513
0.0897201
0.0928877
0.0960542
0.0992198
0.102385
0.105549
0.108713
-0.219144
-0.216258
-0.213395
-0.210565
-0.207773
-0.205014
-0.20228
-0.199569
-0.196885
-0.194233
-0.191614
-0.18903
-0.186476
-0.183953
-0.181454
-0.178978
-0.176531
-0.174129
-0.171795
-0.169545
-0.16739
-0.165333
-0.163365
-0.161478
-0.159666
-0.157921
-0.156236
-0.154611
-0.153037
-0.151502
-0.149975
-0.148436
-0.146873
-0.145271
-0.143596
-0.141825
-0.139934
-0.137902
-0.135717
-0.133375
-0.130891
-0.128289
-0.125584
-0.122784
-0.11992
-0.117014
-0.114087
-0.111158
-0.108244
-0.105362
-0.102522
-0.0997311
-0.0969902
-0.0943002
-0.0916541
-0.089042
-0.0864602
-0.0839006
-0.0813532
-0.0788048
-0.0762415
-0.0736559
-0.0710461
-0.0684055
-0.065732
-0.0630227
-0.0602734
-0.0574838
-0.0546525
-0.0517784
-0.0488599
-0.0458973
-0.0428876
-0.0398287
-0.0367184
-0.0335588
-0.0303542
-0.0271237
-0.0238704
-0.0205594
-0.0171853
-0.0138217
-0.0104654
-0.00711788
-0.00377998
-0.000452112
0.00286551
0.00617279
0.00946989
0.0127571
0.0160347
0.0193031
0.0225627
0.0258141
0.0290575
0.0322936
0.0355226
0.0387452
0.0419617
0.0451725
0.0483781
0.0515788
0.0547751
0.0579672
0.0611556
0.0643406
0.0675224
0.0707014
0.0738778
0.0770519
0.0802239
0.0833941
0.0865626
0.0897298
0.0928957
0.0960607
0.0992248
0.102388
0.105551
0.108714
-0.219177
-0.216357
-0.213555
-0.210782
-0.208042
-0.205327
-0.202633
-0.19996
-0.197314
-0.194699
-0.19212
-0.189576
-0.187066
-0.184586
-0.182131
-0.179696
-0.177292
-0.174937
-0.172651
-0.170452
-0.16835
-0.166347
-0.164434
-0.162601
-0.160841
-0.159151
-0.157519
-0.155947
-0.154421
-0.152924
-0.151426
-0.149906
-0.148353
-0.146753
-0.145077
-0.1433
-0.141394
-0.13934
-0.137125
-0.134751
-0.132239
-0.129613
-0.12689
-0.124076
-0.121207
-0.118309
-0.115396
-0.112486
-0.1096
-0.106752
-0.103949
-0.101192
-0.0984836
-0.0958233
-0.0932033
-0.0906138
-0.088051
-0.085506
-0.082969
-0.0804194
-0.0778463
-0.0752453
-0.0726118
-0.0699393
-0.0672262
-0.0644708
-0.0616704
-0.0588253
-0.0559336
-0.0529936
-0.0500044
-0.0469666
-0.0438773
-0.0407346
-0.0375395
-0.0342966
-0.0310074
-0.0276792
-0.0243025
-0.0208672
-0.0174003
-0.0139663
-0.0105544
-0.00716269
-0.00378989
-0.000434979
0.00290308
0.00622528
0.00953278
0.0128267
0.0161081
0.019378
0.0226374
0.0258872
0.0291281
0.032361
0.0355864
0.0388051
0.0420175
0.0452243
0.0484259
0.0516227
0.0548152
0.0580038
0.0611889
0.0643707
0.0675495
0.0707257
0.0738995
0.0770711
0.0802409
0.0834089
0.0865754
0.0897407
0.0929048
0.096068
0.0992304
0.102392
0.105554
0.108715
-0.219206
-0.216443
-0.213697
-0.210977
-0.208283
-0.20561
-0.202954
-0.200319
-0.19771
-0.195134
-0.192593
-0.190089
-0.187621
-0.185185
-0.182773
-0.180385
-0.178031
-0.175731
-0.173504
-0.171365
-0.169322
-0.167378
-0.165524
-0.163751
-0.162052
-0.160423
-0.158853
-0.157339
-0.155861
-0.154406
-0.152938
-0.151439
-0.149897
-0.148298
-0.146619
-0.144841
-0.142929
-0.140863
-0.138632
-0.13624
-0.133713
-0.131075
-0.128342
-0.125522
-0.122655
-0.119771
-0.116881
-0.113999
-0.111143
-0.108327
-0.105558
-0.102837
-0.100162
-0.0975312
-0.0949387
-0.092375
-0.0898319
-0.0873016
-0.0847737
-0.0822232
-0.0796418
-0.0770249
-0.074365
-0.0716604
-0.0689104
-0.0661141
-0.0632684
-0.0603711
-0.0574209
-0.0544138
-0.0513459
-0.0482144
-0.0450174
-0.0417593
-0.0384449
-0.0350774
-0.0316616
-0.0282039
-0.0246987
-0.0211558
-0.0176064
-0.0141016
-0.0106316
-0.0071932
-0.0037837
-0.000400594
0.00295845
0.00629563
0.00961317
0.0129132
0.0161975
0.019468
0.0227262
0.0259733
0.0292107
0.0324393
0.0356601
0.0388739
0.0420815
0.0452834
0.0484802
0.0516725
0.0548606
0.0580451
0.0612262
0.0644044
0.0675798
0.0707528
0.0739237
0.0770926
0.0802597
0.0834253
0.0865896
0.0897527
0.0929148
0.096076
0.0992366
0.102397
0.105556
0.108716
-0.219232
-0.216519
-0.213821
-0.211147
-0.208495
-0.20586
-0.20324
-0.200641
-0.198068
-0.195526
-0.193019
-0.190552
-0.188126
-0.185734
-0.183369
-0.181031
-0.178732
-0.176492
-0.174328
-0.172255
-0.170283
-0.168409
-0.166623
-0.164916
-0.163284
-0.161725
-0.160222
-0.158769
-0.157342
-0.15593
-0.154495
-0.153019
-0.15149
-0.149892
-0.148217
-0.146443
-0.144531
-0.142462
-0.140228
-0.137835
-0.13531
-0.132673
-0.129937
-0.127118
-0.124253
-0.121384
-0.118518
-0.115671
-0.112854
-0.110079
-0.107348
-0.104662
-0.102022
-0.0994246
-0.0968629
-0.0943277
-0.0918076
-0.0892935
-0.0867744
-0.0842235
-0.0816321
-0.0789977
-0.0763125
-0.0735763
-0.0707906
-0.067955
-0.0650667
-0.0621223
-0.0591181
-0.0560451
-0.0528932
-0.0496553
-0.0463308
-0.0429285
-0.0394556
-0.0359247
-0.032349
-0.0287392
-0.0250976
-0.0214411
-0.0178017
-0.0142229
-0.0106924
-0.00720531
-0.00375768
-0.000345632
0.00303452
0.00638631
0.00971316
0.0130182
0.0163044
0.0195742
0.0228298
0.026073
0.0293056
0.0325288
0.0357439
0.0389519
0.0421536
0.0453497
0.048541
0.051728
0.0549111
0.0580909
0.0612676
0.0644416
0.0676132
0.0707826
0.0739502
0.077116
0.0802803
0.0834432
0.086605
0.0897658
0.0929256
0.0960848
0.0992433
0.102401
0.105559
0.108717
-0.219253
-0.216583
-0.213928
-0.211292
-0.208675
-0.206072
-0.203487
-0.200921
-0.198383
-0.195876
-0.193404
-0.190972
-0.188581
-0.18623
-0.183911
-0.181625
-0.179389
-0.177219
-0.175129
-0.173131
-0.171231
-0.169428
-0.167714
-0.166082
-0.164525
-0.163037
-0.161607
-0.160216
-0.158845
-0.157477
-0.156079
-0.154629
-0.153113
-0.151525
-0.149859
-0.148092
-0.14619
-0.144132
-0.141912
-0.139537
-0.137031
-0.134408
-0.131681
-0.128874
-0.126017
-0.123167
-0.120331
-0.117517
-0.114738
-0.112005
-0.109316
-0.106671
-0.104067
-0.101505
-0.0989772
-0.096472
-0.0939765
-0.0914789
-0.08897
-0.0864192
-0.0838187
-0.0811683
-0.0784595
-0.075693
-0.0728709
-0.0699963
-0.0670705
-0.0640879
-0.061037
-0.0578955
-0.0546404
-0.0512669
-0.0477829
-0.0442033
-0.0405425
-0.0368212
-0.0330609
-0.0292788
-0.0254885
-0.0217132
-0.017982
-0.0143271
-0.0107335
-0.00719573
-0.00370869
-0.000267247
0.00313379
0.00649941
0.00983444
0.0131433
0.0164298
0.0196973
0.0229488
0.0261868
0.0294132
0.0326297
0.0358379
0.039039
0.0422338
0.0454233
0.0486082
0.0517892
0.0549666
0.058141
0.0613127
0.0644821
0.0676495
0.070815
0.0739789
0.0771413
0.0803025
0.0834625
0.0866216
0.0897798
0.0929373
0.0960942
0.0992505
0.102406
0.105562
0.108718
-0.219272
-0.216638
-0.214016
-0.211409
-0.208817
-0.20624
-0.203681
-0.201145
-0.198638
-0.196163
-0.193725
-0.191328
-0.188973
-0.186661
-0.184389
-0.182163
-0.179996
-0.177902
-0.175892
-0.173976
-0.172154
-0.170428
-0.16879
-0.167233
-0.165755
-0.164344
-0.162988
-0.161661
-0.160346
-0.159025
-0.157666
-0.156244
-0.154751
-0.153182
-0.151528
-0.149774
-0.147892
-0.145857
-0.143669
-0.141331
-0.138861
-0.136269
-0.133566
-0.130783
-0.127942
-0.125116
-0.12231
-0.119533
-0.116794
-0.114101
-0.111454
-0.108852
-0.106293
-0.103772
-0.10128
-0.0988067
-0.0963373
-0.093857
-0.0913573
-0.0888071
-0.0862018
-0.0835373
-0.0808063
-0.0780093
-0.0751517
-0.0722448
-0.0692906
-0.0662702
-0.0631542
-0.0599072
-0.0565145
-0.0529834
-0.0493254
-0.0455548
-0.0416886
-0.0377529
-0.0337768
-0.0297926
-0.0258399
-0.0219573
-0.0181458
-0.0144134
-0.0107533
-0.00716209
-0.00363428
-0.000163185
0.00325813
0.00663644
0.00997816
0.0132891
0.0165741
0.0198378
0.0230836
0.0263146
0.0295334
0.0327419
0.035942
0.0391349
0.0423219
0.0455039
0.0486816
0.0518557
0.0550268
0.0581952
0.0613615
0.0645258
0.0676884
0.0708496
0.0740095
0.0771683
0.0803261
0.083483
0.0866392
0.0897947
0.0929496
0.0961041
0.0992581
0.102412
0.105565
0.108719
-0.219284
-0.216674
-0.214072
-0.211481
-0.208904
-0.206343
-0.203804
-0.201291
-0.19881
-0.196364
-0.193957
-0.191594
-0.189278
-0.187011
-0.184796
-0.182637
-0.180547
-0.178534
-0.176609
-0.174776
-0.173037
-0.171391
-0.169831
-0.168357
-0.166964
-0.165632
-0.164348
-0.163085
-0.161829
-0.160558
-0.159238
-0.15785
-0.156387
-0.154841
-0.153207
-0.151476
-0.149624
-0.147628
-0.145488
-0.143208
-0.140795
-0.138251
-0.135585
-0.132831
-0.130015
-0.127214
-0.12444
-0.1217
-0.119002
-0.116355
-0.113756
-0.111201
-0.108687
-0.106206
-0.103752
-0.101312
-0.0988693
-0.0964091
-0.09392
-0.0913758
-0.0887706
-0.0860962
-0.0833466
-0.0805236
-0.0776391
-0.0747053
-0.0717146
-0.0686315
-0.0654178
-0.0620406
-0.0584972
-0.0547958
-0.0509494
-0.0469738
-0.0428905
-0.0387237
-0.0345105
-0.0303159
-0.0262101
-0.0222175
-0.0183072
-0.0144851
-0.0107511
-0.00710258
-0.00353249
-3.18191e-05
0.00340874
0.00679815
0.0101447
0.0134557
0.0167375
0.0199953
0.0232336
0.0264561
0.0296658
0.032865
0.0360557
0.0392394
0.0424175
0.045591
0.0487607
0.0519272
0.0550913
0.0582532
0.0614135
0.0645722
0.0677298
0.0708863
0.074042
0.0771968
0.080351
0.0835046
0.0866577
0.0898103
0.0929625
0.0961144
0.0992661
0.102417
0.105569
0.10872
-0.219287
-0.216681
-0.21408
-0.211489
-0.208911
-0.206355
-0.203825
-0.201329
-0.198871
-0.196454
-0.194081
-0.191756
-0.189485
-0.187272
-0.18512
-0.183037
-0.181028
-0.1791
-0.17726
-0.175512
-0.173857
-0.172295
-0.170823
-0.169438
-0.168128
-0.166877
-0.165665
-0.164469
-0.163273
-0.162053
-0.160776
-0.159427
-0.158
-0.156486
-0.154882
-0.153182
-0.151369
-0.149427
-0.147354
-0.14515
-0.142813
-0.140335
-0.137717
-0.134998
-0.132218
-0.129439
-0.126697
-0.123996
-0.121343
-0.118743
-0.116193
-0.113686
-0.111218
-0.108781
-0.106367
-0.103961
-0.101549
-0.0991135
-0.0966409
-0.0941101
-0.0915116
-0.0888354
-0.0860755
-0.0832351
-0.0803273
-0.0773592
-0.0743152
-0.0711493
-0.0678165
-0.0642934
-0.0605863
-0.0567032
-0.0526592
-0.0484689
-0.0441616
-0.0397611
-0.0353241
-0.0309414
-0.0266766
-0.0225289
-0.0184763
-0.014543
-0.0107249
-0.0070148
-0.00340147
0.000127921
0.00358596
0.00698434
0.0103335
0.0136425
0.0169188
0.020169
0.0233981
0.0266105
0.0298096
0.0329981
0.0361782
0.0393517
0.0425199
0.045684
0.0488449
0.0520033
0.0551597
0.0583146
0.0614683
0.0646212
0.0677733
0.0709248
0.0740759
0.0772266
0.0803769
0.083527
0.0866769
0.0898265
0.0929759
0.0961252
0.0992743
0.102423
0.105572
0.108721
-0.219276
-0.216648
-0.214023
-0.211407
-0.208808
-0.206238
-0.203707
-0.20122
-0.198782
-0.196396
-0.194064
-0.191787
-0.189569
-0.187416
-0.185333
-0.183328
-0.181406
-0.179569
-0.177821
-0.176163
-0.174597
-0.173124
-0.171744
-0.170448
-0.169225
-0.168056
-0.166918
-0.165793
-0.164661
-0.163495
-0.162267
-0.160966
-0.159582
-0.15811
-0.156546
-0.154887
-0.153126
-0.151252
-0.149262
-0.147149
-0.144901
-0.142501
-0.139943
-0.137263
-0.134519
-0.131763
-0.129055
-0.126395
-0.123789
-0.121237
-0.118735
-0.116278
-0.113858
-0.111468
-0.109095
-0.106728
-0.104352
-0.10195
-0.0995025
-0.0969941
-0.0944114
-0.0917428
-0.0889809
-0.0861285
-0.0831984
-0.0801942
-0.0770921
-0.073836
-0.0703723
-0.0666905
-0.0628009
-0.0587176
-0.0544629
-0.0500541
-0.0455341
-0.0409382
-0.0363302
-0.0317667
-0.0272778
-0.0228876
-0.0186419
-0.0145778
-0.0106679
-0.00689438
-0.00323895
0.000316651
0.00378922
0.00719368
0.0105428
0.0138474
0.0171164
0.020357
0.0235754
0.0267762
0.0299634
0.03314
0.0363085
0.0394708
0.0426283
0.0457823
0.0489337
0.0520833
0.0552315
0.0583788
0.0615256
0.0646721
0.0678184
0.0709647
0.074111
0.0772573
0.0804037
0.0835501
0.0866966
0.0898431
0.0929896
0.0961361
0.0992827
0.102429
0.105576
0.108722
-0.219246
-0.216556
-0.213872
-0.211201
-0.208554
-0.205948
-0.203397
-0.200909
-0.198487
-0.196133
-0.193846
-0.191625
-0.189471
-0.187388
-0.185386
-0.183469
-0.181641
-0.179902
-0.178251
-0.176692
-0.175224
-0.17385
-0.172567
-0.171366
-0.170235
-0.169152
-0.168095
-0.167045
-0.165982
-0.164877
-0.163708
-0.162464
-0.161134
-0.159714
-0.158201
-0.156597
-0.1549
-0.153106
-0.151205
-0.149184
-0.147028
-0.144716
-0.142228
-0.139586
-0.136875
-0.134149
-0.131477
-0.128859
-0.126301
-0.123799
-0.12135
-0.118945
-0.116575
-0.114232
-0.111905
-0.109582
-0.107251
-0.104888
-0.102475
-0.099997
-0.0974383
-0.0947871
-0.0920331
-0.089179
-0.086236
-0.0832007
-0.08004
-0.076686
-0.073084
-0.0692328
-0.0651443
-0.0608414
-0.0563555
-0.0517112
-0.0469554
-0.0421285
-0.0372928
-0.0324974
-0.0277783
-0.0231777
-0.0187603
-0.0145675
-0.0105673
-0.00673411
-0.00304178
0.000534627
0.00401692
0.00742353
0.0107696
0.0140675
0.0173272
0.0205568
0.023763
0.0269511
0.0301254
0.0332892
0.0364452
0.0395954
0.0427416
0.0458848
0.0490261
0.0521663
0.0553059
0.0584453
0.0615848
0.0647246
0.0678649
0.0710056
0.0741469
0.0772887
0.0804309
0.0835736
0.0867166
0.0898599
0.0930035
0.0961472
0.0992911
0.102435
0.105579
0.108723
-0.219189
-0.216387
-0.213595
-0.210825
-0.208093
-0.205423
-0.20283
-0.200324
-0.19791
-0.195586
-0.193348
-0.191193
-0.189116
-0.187121
-0.185215
-0.183401
-0.181681
-0.180052
-0.178513
-0.177064
-0.175707
-0.174442
-0.173268
-0.172172
-0.171141
-0.170153
-0.169187
-0.168223
-0.167239
-0.166207
-0.165109
-0.163931
-0.162665
-0.161305
-0.159854
-0.158313
-0.156686
-0.154969
-0.153151
-0.151219
-0.149157
-0.146934
-0.144518
-0.14191
-0.139234
-0.136548
-0.133915
-0.131346
-0.128841
-0.126395
-0.124001
-0.121651
-0.119334
-0.117043
-0.114767
-0.112494
-0.110212
-0.107893
-0.105522
-0.103081
-0.100554
-0.0979296
-0.0951937
-0.0923478
-0.0893974
-0.0863305
-0.0831072
-0.0796495
-0.0759051
-0.0718762
-0.0675793
-0.0630449
-0.0583086
-0.0534031
-0.0483797
-0.0432863
-0.038186
-0.0331375
-0.0281851
-0.0233827
-0.0188012
-0.0144862
-0.0104049
-0.0065234
-0.00280552
0.000781896
0.00426638
0.00766985
0.0110094
0.0142982
0.0175472
0.0207647
0.023958
0.0271326
0.0302933
0.0334436
0.0365865
0.0397242
0.0428584
0.0459903
0.0491212
0.0522516
0.0553821
0.0585133
0.0616452
0.0647781
0.0679121
0.0710472
0.0741833
0.0773204
0.0804584
0.0835972
0.0867367
0.0898768
0.0930174
0.0961583
0.0992996
0.102441
0.105583
0.108725
-0.219098
-0.216117
-0.213154
-0.210228
-0.207364
-0.204589
-0.201924
-0.199382
-0.196963
-0.194666
-0.192485
-0.19041
-0.188432
-0.186546
-0.184755
-0.183064
-0.18147
-0.179968
-0.178557
-0.177238
-0.176009
-0.174872
-0.173821
-0.172846
-0.171932
-0.171055
-0.170195
-0.169332
-0.168441
-0.167498
-0.166482
-0.165383
-0.164189
-0.162899
-0.161512
-0.160035
-0.158474
-0.156827
-0.155085
-0.153238
-0.151263
-0.149127
-0.146779
-0.144208
-0.141565
-0.138926
-0.136344
-0.133833
-0.131387
-0.129003
-0.12667
-0.124378
-0.122117
-0.119881
-0.117659
-0.115438
-0.113205
-0.110931
-0.108604
-0.106203
-0.103714
-0.101121
-0.0984112
-0.0955792
-0.0926222
-0.0895206
-0.0862251
-0.0826524
-0.078754
-0.0745356
-0.07002
-0.0652432
-0.060243
-0.0550593
-0.0497473
-0.0443657
-0.0389868
-0.0336764
-0.0284841
-0.0234723
-0.0187226
-0.0142962
-0.0101536
-0.00624644
-0.00252369
0.00105855
0.00453398
0.00792724
0.0112561
0.014534
0.0177712
0.0209763
0.0241563
0.0273174
0.0304643
0.0336009
0.0367304
0.0398552
0.0429772
0.0460976
0.0492176
0.052338
0.0554593
0.0585819
0.0617061
0.064832
0.0679595
0.0710888
0.0742197
0.0773521
0.0804858
0.0836207
0.0867567
0.0898935
0.0930311
0.0961693
0.099308
0.102447
0.105586
0.108726
-0.218965
-0.215722
-0.212511
-0.209362
-0.206308
-0.203384
-0.200612
-0.198008
-0.195572
-0.193298
-0.191178
-0.189197
-0.187337
-0.185586
-0.183938
-0.182393
-0.180948
-0.1796
-0.178342
-0.177173
-0.176096
-0.17511
-0.174207
-0.173373
-0.172594
-0.171848
-0.171117
-0.170376
-0.169599
-0.168762
-0.167845
-0.166835
-0.165723
-0.164506
-0.163186
-0.161771
-0.16027
-0.158685
-0.157011
-0.155237
-0.153345
-0.151301
-0.149019
-0.146489
-0.14388
-0.1413
-0.138785
-0.136342
-0.133968
-0.131654
-0.129385
-0.127154
-0.12495
-0.122766
-0.120594
-0.118419
-0.116227
-0.113994
-0.111703
-0.109336
-0.106878
-0.104313
-0.101623
-0.0987963
-0.0958205
-0.0926669
-0.0892749
-0.0855632
-0.0814887
-0.0770645
-0.0723194
-0.067292
-0.0620213
-0.0565531
-0.0509487
-0.04528
-0.0396234
-0.034043
-0.028598
-0.0233676
-0.0184482
-0.0139351
-0.00977143
-0.00588018
-0.00218725
0.00136481
0.00481516
0.0081891
0.0115029
0.0147681
0.0179933
0.0211863
0.0243538
0.0275018
0.0306352
0.0337584
0.0368747
0.0399866
0.0430963
0.0462051
0.0493142
0.0524245
0.0555364
0.0586505
0.0617668
0.0648855
0.0680066
0.0711301
0.0742557
0.0773833
0.0805127
0.0836438
0.0867762
0.0899099
0.0930445
0.09618
0.0993161
0.102453
0.10559
0.108727
-0.218786
-0.215192
-0.211651
-0.208204
-0.204896
-0.201767
-0.198847
-0.196152
-0.19368
-0.191423
-0.189364
-0.187485
-0.18576
-0.184169
-0.182693
-0.181327
-0.180062
-0.178894
-0.177817
-0.176829
-0.17593
-0.175117
-0.174383
-0.173716
-0.1731
-0.172515
-0.17194
-0.171346
-0.170706
-0.169995
-0.169191
-0.168283
-0.167261
-0.166124
-0.164874
-0.163521
-0.16208
-0.160556
-0.15895
-0.157254
-0.155457
-0.153516
-0.151305
-0.148826
-0.14627
-0.143766
-0.141338
-0.138985
-0.136696
-0.13446
-0.132262
-0.130092
-0.127938
-0.125798
-0.123662
-0.121514
-0.119343
-0.117125
-0.114845
-0.112488
-0.110034
-0.107468
-0.104767
-0.101913
-0.0988808
-0.0956329
-0.0920992
-0.0882052
-0.0839193
-0.0792622
-0.0742698
-0.0689818
-0.06344
-0.057698
-0.0518237
-0.0458927
-0.0399699
-0.034112
-0.0283977
-0.0229353
-0.0178476
-0.0133049
-0.00919845
-0.00539489
-0.00178576
0.0017004
0.00510451
0.00844806
0.0117421
0.0149933
0.0182073
0.0213895
0.0245458
0.0276819
0.030803
0.0339134
0.0370169
0.0401163
0.0432139
0.0463113
0.0494096
0.0525098
0.0556125
0.0587179
0.0618264
0.064938
0.0680527
0.0711703
0.0742907
0.0774137
0.0805389
0.0836661
0.0867951
0.0899256
0.0930574
0.0961902
0.0993239
0.102458
0.105593
0.108728
-0.218567
-0.214545
-0.210599
-0.206785
-0.203162
-0.199778
-0.196668
-0.193849
-0.191319
-0.189063
-0.187058
-0.185277
-0.183691
-0.182268
-0.180982
-0.179815
-0.178755
-0.177793
-0.176922
-0.176137
-0.175437
-0.174822
-0.174284
-0.173812
-0.17339
-0.172994
-0.1726
-0.172178
-0.171696
-0.171128
-0.170455
-0.169663
-0.168745
-0.167702
-0.166536
-0.165261
-0.163893
-0.162449
-0.160936
-0.159354
-0.157695
-0.155904
-0.153804
-0.151409
-0.14894
-0.146546
-0.144242
-0.14201
-0.139831
-0.137688
-0.135563
-0.133448
-0.131331
-0.129208
-0.12707
-0.124906
-0.122706
-0.120451
-0.118126
-0.115716
-0.113203
-0.110571
-0.107792
-0.104837
-0.101673
-0.0982502
-0.0944942
-0.0903436
-0.0857841
-0.0808479
-0.0755818
-0.0700285
-0.0642368
-0.058266
-0.0521744
-0.0460188
-0.0398469
-0.033707
-0.0276838
-0.0219496
-0.0167049
-0.0122635
-0.00836212
-0.00476122
-0.00131195
0.00206271
0.00539558
0.00869662
0.0119663
0.0152031
0.0184071
0.0215806
0.0247279
0.027854
0.0309641
0.034063
0.0371546
0.0402422
0.0433282
0.0464145
0.0495023
0.0525927
0.0556862
0.0587833
0.0618841
0.0649888
0.0680971
0.0712091
0.0743244
0.0774427
0.0805638
0.0836873
0.086813
0.0899405
0.0930695
0.0961998
0.0993312
0.102463
0.105596
0.108729
-0.218335
-0.213854
-0.20947
-0.205255
-0.20128
-0.197605
-0.194272
-0.191301
-0.188684
-0.186401
-0.18442
-0.182709
-0.181232
-0.179952
-0.178838
-0.177861
-0.177001
-0.176244
-0.175581
-0.175007
-0.174517
-0.174114
-0.173789
-0.173528
-0.173314
-0.173122
-0.172922
-0.172684
-0.172377
-0.171973
-0.17145
-0.170798
-0.170014
-0.169099
-0.16806
-0.16691
-0.165673
-0.164372
-0.163027
-0.16165
-0.160233
-0.158699
-0.156803
-0.154559
-0.152244
-0.150028
-0.147913
-0.145858
-0.143829
-0.141801
-0.139754
-0.137679
-0.135561
-0.133397
-0.131184
-0.128918
-0.126595
-0.124202
-0.121724
-0.119148
-0.116459
-0.11364
-0.110657
-0.107473
-0.10404
-0.100303
-0.0961934
-0.0916749
-0.0867611
-0.0814974
-0.0759373
-0.0701348
-0.064137
-0.057991
-0.0517436
-0.0454236
-0.0390446
-0.0326105
-0.0261874
-0.0200472
-0.0146628
-0.0106353
-0.00720374
-0.00396867
-0.000770101
0.00244451
0.00568133
0.0089284
0.0121696
0.015392
0.0185879
0.0217554
0.0248961
0.0280145
0.0311156
0.0342044
0.0372854
0.0403621
0.0434373
0.0465131
0.0495909
0.0526719
0.0557566
0.0588456
0.061939
0.0650369
0.0681392
0.0712457
0.074356
0.0774699
0.0805871
0.0837071
0.0868296
0.0899542
0.0930807
0.0962086
0.0993378
0.102468
0.105599
0.10873
-0.21815
-0.213298
-0.208542
-0.203968
-0.199663
-0.195704
-0.192142
-0.188993
-0.186247
-0.183875
-0.181844
-0.180118
-0.178659
-0.177432
-0.176401
-0.175536
-0.17481
-0.174205
-0.173706
-0.173304
-0.172993
-0.172776
-0.172639
-0.172571
-0.17255
-0.172551
-0.172542
-0.172493
-0.172371
-0.172148
-0.171805
-0.171335
-0.170743
-0.170039
-0.169229
-0.168322
-0.167343
-0.166326
-0.165306
-0.164311
-0.163331
-0.162255
-0.160728
-0.158763
-0.15672
-0.154793
-0.152969
-0.151172
-0.149352
-0.147472
-0.145505
-0.143436
-0.141249
-0.138941
-0.136522
-0.134007
-0.131404
-0.128712
-0.125908
-0.122988
-0.119934
-0.116733
-0.113337
-0.109705
-0.105784
-0.101518
-0.0968842
-0.0918791
-0.0865213
-0.0808536
-0.0749591
-0.0689108
-0.0627523
-0.0565106
-0.0502014
-0.0438113
-0.0372937
-0.0305812
-0.0236262
-0.0166291
-0.0110866
-0.00829344
-0.00574984
-0.00305625
-0.000184387
0.00283387
0.00595616
0.00914022
0.0123496
0.0155574
0.0187469
0.0219107
0.0250476
0.0281607
0.0312549
0.0343354
0.0374072
0.0404741
0.0435395
0.0466055
0.049674
0.0527461
0.0558226
0.0589039
0.0619903
0.0650818
0.0681782
0.0712795
0.0743851
0.0774949
0.0806083
0.083725
0.0868445
0.0899665
0.0930906
0.0962164
0.0993437
0.102472
0.105601
0.108731