/*--------------------------------*- C++ -*----------------------------------*\
  =========                 |
  \\      /  F ield         | OpenFOAM: The Open Source CFD Toolbox
   \\    /   O peration     | Website:  https://openfoam.org
    \\  /    A nd           | Version:  6
     \\/     M anipulation  |
\*---------------------------------------------------------------------------*/
FoamFile
{
    version     2.0;
    format      ascii;
    class       volVectorField;
    location    "300";
    object      U;
}
// * * * * * * * * * * * * * * * * * * * * * * * * * * * * * * * * * * * * * //

dimensions      [0 1 -1 0 0 0 0];

internalField   nonuniform List<vector> 
4800
(
(-4.53658e-05 0 2.17891e-05)
(-0.000205912 0 -7.81342e-05)
(-0.000256009 0 0.000103831)
(-0.000326074 0 -3.97969e-05)
(-0.000364876 0 3.86538e-05)
(-0.000394943 0 -1.55237e-05)
(-0.000405845 0 -5.44986e-06)
(-0.000394292 0 -1.73192e-06)
(-0.000380672 0 2.07413e-07)
(-0.000381865 0 4.83477e-06)
(-0.000399658 0 2.34684e-06)
(-0.000413233 0 -2.10644e-05)
(-0.000431497 0 -3.37059e-05)
(-0.000454003 0 -3.94836e-06)
(-0.000468269 0 -1.71776e-05)
(-0.000498203 0 2.14723e-05)
(-0.000560733 0 8.28527e-05)
(-0.000647913 0 0.000112333)
(-0.000775596 0 0.00011529)
(-0.000923406 0 9.89467e-05)
(-0.00103518 0 6.17977e-05)
(-0.00110457 0 1.14178e-05)
(-0.00114201 0 -4.12832e-06)
(-0.00115432 0 -8.12851e-06)
(-0.00111951 0 -2.67175e-05)
(-0.00107626 0 -3.41491e-05)
(-0.00106416 0 -3.5745e-05)
(-0.00106317 0 -4.93813e-05)
(-0.00105192 0 -7.33055e-05)
(-0.00102368 0 -3.40064e-05)
(-0.00100283 0 -4.43744e-05)
(-0.00098903 0 -5.11266e-05)
(-0.000989076 0 -6.54846e-05)
(-0.000908267 0 -9.01018e-05)
(-0.000749678 0 -6.83564e-05)
(-0.000627366 0 -8.20651e-05)
(-0.000555579 0 -4.25673e-05)
(-0.000498623 0 -1.72874e-05)
(-0.000412079 0 -5.05223e-05)
(-0.000340145 0 -2.72406e-05)
(-0.000298442 0 -1.66245e-05)
(-0.000291192 0 -7.58613e-06)
(-0.000297479 0 -7.39626e-06)
(-0.000313182 0 -6.20172e-06)
(-0.000328328 0 -1.23593e-05)
(-0.000353238 0 -2.0412e-05)
(-0.000390129 0 -2.13866e-05)
(-0.000428868 0 -1.75807e-05)
(-0.000479138 0 -2.45583e-05)
(-0.000540006 0 -3.2326e-05)
(-0.00060029 0 -1.42647e-05)
(-0.000659599 0 3.99426e-06)
(-0.000723179 0 -4.56123e-06)
(-0.000777959 0 -2.97678e-06)
(-0.000811477 0 -1.38142e-05)
(-0.000827867 0 -2.6496e-05)
(-0.000832454 0 -3.25715e-05)
(-0.000810873 0 -6.46361e-05)
(-0.000785634 0 -6.68294e-05)
(-0.00076736 0 -4.5324e-05)
(-0.000736982 0 -5.98537e-05)
(-0.000709802 0 -7.14438e-05)
(-0.000694228 0 -6.65494e-05)
(-0.000662158 0 -4.84115e-05)
(-0.000606721 0 -6.79948e-05)
(-0.000589328 0 -6.78982e-05)
(-0.000593601 0 -7.07209e-05)
(-0.000531121 0 -7.33414e-05)
(-0.000491964 0 -7.66772e-05)
(-0.000493594 0 -6.77068e-05)
(-0.000535334 0 -3.79159e-05)
(-0.000564996 0 -5.35019e-05)
(-0.000576985 0 -8.38245e-05)
(-0.00057888 0 -9.85381e-05)
(-0.000570573 0 -0.000136112)
(-0.000565444 0 -0.00014622)
(-0.000559992 0 -0.000251662)
(-0.000639649 0 -0.000215018)
(-0.000667284 0 -0.000283136)
(3.47788e-06 0 -0.000459293)
(-4.6914e-14 0 1.50291e-13)
(-6.17265e-13 0 1.08811e-13)
(1.12339e-13 0 4.23034e-14)
(6.44198e-14 0 5.09658e-15)
(7.25125e-14 0 -1.3945e-14)
(1.09092e-13 0 -2.35496e-14)
(1.60013e-13 0 -2.8152e-14)
(2.17323e-13 0 -3.00047e-14)
(2.76682e-13 0 -3.02079e-14)
(3.35384e-13 0 -2.93291e-14)
(3.91605e-13 0 -2.76909e-14)
(4.44043e-13 0 -2.54989e-14)
(4.91747e-13 0 -2.29005e-14)
(5.34026e-13 0 -2.00119e-14)
(5.704e-13 0 -1.6931e-14)
(6.0057e-13 0 -1.37424e-14)
(6.24392e-13 0 -1.05196e-14)
(6.41857e-13 0 -7.32572e-15)
(6.53068e-13 0 -4.21373e-15)
(6.58226e-13 0 -1.22625e-15)
(6.57602e-13 0 1.60371e-15)
(6.51528e-13 0 4.2524e-15)
(6.40372e-13 0 6.70426e-15)
(6.24527e-13 0 8.95089e-15)
(6.04398e-13 0 1.099e-14)
(5.8039e-13 0 1.28241e-14)
(5.52904e-13 0 1.44596e-14)
(5.22321e-13 0 1.5906e-14)
(4.89008e-13 0 1.71744e-14)
(4.53305e-13 0 1.82774e-14)
(4.15531e-13 0 1.92282e-14)
(3.75976e-13 0 2.00399e-14)
(3.34908e-13 0 2.07252e-14)
(2.92567e-13 0 2.12961e-14)
(2.49173e-13 0 2.17635e-14)
(2.04926e-13 0 2.21367e-14)
(1.60009e-13 0 2.24233e-14)
(1.14591e-13 0 2.26278e-14)
(6.88417e-14 0 2.27484e-14)
(2.29526e-14 0 2.27629e-14)
(-3.58055e-05 0 0.000146567)
(-0.00015335 0 0.000184226)
(-0.000244439 0 0.000100706)
(-0.000293715 0 6.74135e-05)
(-0.000337175 0 7.08463e-05)
(-0.0003624 0 3.37452e-05)
(-0.000370319 0 2.62074e-05)
(-0.000346368 0 -3.20079e-05)
(-0.00031641 0 -1.3914e-05)
(-0.000311877 0 1.82208e-06)
(-0.000342302 0 3.19073e-05)
(-0.000359539 0 2.51426e-05)
(-0.000378653 0 3.6157e-05)
(-0.000420875 0 6.31477e-05)
(-0.000451702 0 3.54849e-05)
(-0.000469475 0 7.31044e-05)
(-0.000515512 0 9.17522e-05)
(-0.000595617 0 0.000195084)
(-0.000717488 0 0.000185614)
(-0.000839107 0 0.000171556)
(-0.000927957 0 0.000121893)
(-0.000971063 0 7.61398e-05)
(-0.000988151 0 3.75739e-05)
(-0.000992637 0 6.25826e-06)
(-0.000952728 0 -8.56965e-05)
(-0.000910375 0 -5.50561e-05)
(-0.000897485 0 -2.80997e-05)
(-0.000900191 0 -1.826e-05)
(-0.000914208 0 -8.55127e-06)
(-0.000914385 0 -7.14198e-06)
(-0.000907579 0 -6.74757e-06)
(-0.00090998 0 -7.71456e-05)
(-0.000919003 0 -8.92262e-05)
(-0.000830938 0 -0.000204349)
(-0.000672618 0 -0.00022576)
(-0.000560384 0 -0.000181604)
(-0.000472831 0 -0.00014917)
(-0.000408084 0 -8.42595e-05)
(-0.000280179 0 -0.000152776)
(-0.000214217 0 -8.72475e-05)
(-0.000161213 0 -6.38015e-05)
(-0.0001731 0 2.57613e-05)
(-0.000166039 0 1.84928e-05)
(-0.000180349 0 4.38401e-05)
(-0.000190475 0 6.0652e-05)
(-0.000225439 0 7.45201e-05)
(-0.000295773 0 8.42803e-05)
(-0.000344431 0 6.0164e-05)
(-0.000385493 0 4.64574e-05)
(-0.000433392 0 7.92969e-05)
(-0.000489985 0 9.81151e-05)
(-0.000547117 0 9.18598e-05)
(-0.000590634 0 7.31357e-05)
(-0.000613615 0 6.23601e-05)
(-0.000626148 0 4.12673e-05)
(-0.000638531 0 3.09031e-05)
(-0.000650228 0 1.86445e-05)
(-0.00066221 0 -1.37612e-06)
(-0.000674956 0 2.46827e-06)
(-0.00067838 0 -8.19349e-07)
(-0.000650059 0 -2.96586e-05)
(-0.000614953 0 -4.66844e-05)
(-0.00059247 0 -2.8585e-05)
(-0.000565173 0 2.94894e-05)
(-0.000499524 0 -6.31207e-05)
(-0.000465148 0 -2.74565e-05)
(-0.000467522 0 4.16096e-05)
(-0.00038684 0 -5.65675e-05)
(-0.000311571 0 -4.00948e-05)
(-0.000335562 0 0.000118953)
(-0.000335739 0 9.06355e-05)
(-0.000336266 0 7.47386e-05)
(-0.000336883 0 6.39754e-05)
(-0.000320555 0 6.48145e-05)
(-0.00031496 0 7.97205e-05)
(-0.000301553 0 9.67795e-05)
(-0.000343666 0 -9.12299e-05)
(-0.000524441 0 -0.000103373)
(-0.000681712 0 -0.000195921)
(4.1732e-06 0 -0.000526085)
(-2.72412e-13 0 7.82051e-13)
(-7.66964e-13 0 3.20398e-13)
(7.76319e-15 0 9.69946e-14)
(7.65744e-15 0 -3.37493e-15)
(4.37137e-14 0 -5.17717e-14)
(9.49873e-14 0 -7.59729e-14)
(1.53574e-13 0 -8.7539e-14)
(2.15267e-13 0 -9.19931e-14)
(2.77357e-13 0 -9.20185e-14)
(3.37901e-13 0 -8.90385e-14)
(3.95435e-13 0 -8.38948e-14)
(4.48833e-13 0 -7.71466e-14)
(4.97234e-13 0 -6.92096e-14)
(5.39995e-13 0 -6.04212e-14)
(5.7667e-13 0 -5.10703e-14)
(6.06982e-13 0 -4.14093e-14)
(6.30809e-13 0 -3.1659e-14)
(6.48162e-13 0 -2.20089e-14)
(6.59167e-13 0 -1.26177e-14)
(6.64043e-13 0 -3.6133e-15)
(6.63081e-13 0 4.90628e-15)
(6.56629e-13 0 1.28708e-14)
(6.45071e-13 0 2.02348e-14)
(6.28812e-13 0 2.69749e-14)
(6.08271e-13 0 3.30856e-14)
(5.8386e-13 0 3.85762e-14)
(5.55985e-13 0 4.34674e-14)
(5.25036e-13 0 4.77885e-14)
(4.91379e-13 0 5.15746e-14)
(4.55359e-13 0 5.48641e-14)
(4.17293e-13 0 5.76971e-14)
(3.77473e-13 0 6.01138e-14)
(3.36164e-13 0 6.21529e-14)
(2.93605e-13 0 6.38506e-14)
(2.50014e-13 0 6.52397e-14)
(2.05586e-13 0 6.63492e-14)
(1.605e-13 0 6.72025e-14)
(1.14916e-13 0 6.78173e-14)
(6.89768e-14 0 6.82011e-14)
(2.29671e-14 0 6.83438e-14)
(-7.42507e-05 0 0.000228443)
(-0.000143765 0 0.00023308)
(-0.000185871 0 0.000195105)
(-0.000277143 0 0.000121004)
(-0.000313821 0 8.22805e-05)
(-0.000333026 0 3.31071e-05)
(-0.000341846 0 -1.24734e-05)
(-0.0003435 0 -2.70502e-05)
(-0.000316523 0 -8.49319e-05)
(-0.000309098 0 -3.87716e-05)
(-0.000304006 0 8.0039e-05)
(-0.000296835 0 4.6019e-05)
(-0.000301086 0 3.5143e-05)
(-0.000344635 0 5.98229e-05)
(-0.000385952 0 7.46643e-05)
(-0.000420712 0 9.66712e-05)
(-0.000457099 0 0.000178947)
(-0.000532649 0 0.000222637)
(-0.000598281 0 0.000284365)
(-0.000679629 0 0.000264099)
(-0.000751042 0 0.000179789)
(-0.00079767 0 6.96526e-05)
(-0.000817972 0 -6.68402e-06)
(-0.000822307 0 -2.9623e-05)
(-0.000798309 0 -6.55751e-05)
(-0.000774923 0 -6.28705e-05)
(-0.00076966 0 -4.73169e-05)
(-0.000776514 0 -6.48614e-06)
(-0.000792641 0 2.46186e-05)
(-0.000808085 0 1.95989e-05)
(-0.000829542 0 -3.8952e-05)
(-0.000844736 0 -3.62184e-05)
(-0.000842915 0 -8.41478e-05)
(-0.000786031 0 -0.000213768)
(-0.000637549 0 -0.000357735)
(-0.000528938 0 -0.000282218)
(-0.000432593 0 -0.000216594)
(-0.000364181 0 -0.000121865)
(-0.000156181 0 -0.000243547)
(-0.000142285 0 -9.5793e-05)
(-3.19937e-05 0 -7.9145e-05)
(-7.66541e-05 0 7.98447e-06)
(-9.49435e-05 0 1.54976e-05)
(-0.000127548 0 2.8352e-05)
(-0.000146811 0 4.39251e-05)
(-0.000173318 0 6.37206e-05)
(-0.000210031 0 0.000106515)
(-0.00024201 0 0.000124017)
(-0.000280887 0 0.000152991)
(-0.000326348 0 0.000165799)
(-0.000370509 0 0.00016498)
(-0.000418689 0 0.00014662)
(-0.000453519 0 0.000128969)
(-0.000480824 0 9.39069e-05)
(-0.000511587 0 5.6492e-05)
(-0.000553886 0 4.75159e-05)
(-0.000593361 0 3.36094e-05)
(-0.000623857 0 -1.16814e-05)
(-0.000643856 0 -2.38406e-05)
(-0.00065304 0 -2.88087e-05)
(-0.000652677 0 -4.93755e-05)
(-0.000616026 0 -0.000152891)
(-0.000595352 0 -0.000157441)
(-0.000608943 0 6.3774e-05)
(-0.00051584 0 -0.000192937)
(-0.000458741 0 -0.000150884)
(-0.000456964 0 5.04917e-05)
(-0.000404436 0 -7.55669e-05)
(-0.000180001 0 -0.000302824)
(-0.000228493 0 8.61301e-05)
(-0.00010661 0 -6.2028e-06)
(-4.532e-05 0 1.44317e-05)
(4.43082e-05 0 -2.06753e-06)
(9.76044e-05 0 -2.16283e-05)
(0.000115648 0 7.83455e-05)
(0.000217994 0 -4.03048e-05)
(0.000228678 0 0.000124478)
(0.000364518 0 0.000107757)
(-0.000455548 0 -0.000186399)
(4.04164e-06 0 -0.000567302)
(-2.36861e-13 0 4.73185e-13)
(-1.41504e-12 0 2.07761e-13)
(-2.12004e-13 0 2.81416e-14)
(-8.45885e-14 0 -6.42386e-14)
(2.56713e-17 0 -1.14214e-13)
(7.3574e-14 0 -1.41167e-13)
(1.44025e-13 0 -1.54294e-13)
(2.12843e-13 0 -1.5869e-13)
(2.79636e-13 0 -1.5711e-13)
(3.43508e-13 0 -1.51178e-13)
(4.03497e-13 0 -1.41957e-13)
(4.58728e-13 0 -1.30221e-13)
(5.08472e-13 0 -1.16592e-13)
(5.52165e-13 0 -1.01597e-13)
(5.89412e-13 0 -8.57056e-14)
(6.19982e-13 0 -6.93344e-14)
(6.43793e-13 0 -5.28502e-14)
(6.60898e-13 0 -3.65696e-14)
(6.71464e-13 0 -2.07569e-14)
(6.7575e-13 0 -5.62434e-15)
(6.74087e-13 0 8.66645e-15)
(6.66857e-13 0 2.20011e-14)
(6.54476e-13 0 3.43077e-14)
(6.37377e-13 0 4.55507e-14)
(6.15999e-13 0 5.57255e-14)
(5.90772e-13 0 6.48517e-14)
(5.62116e-13 0 7.29678e-14)
(5.30428e-13 0 8.0126e-14)
(4.96083e-13 0 8.63878e-14)
(4.59428e-13 0 9.182e-14)
(4.20781e-13 0 9.64916e-14)
(3.80432e-13 0 1.00471e-13)
(3.38644e-13 0 1.03825e-13)
(2.95654e-13 0 1.06613e-13)
(2.51672e-13 0 1.08893e-13)
(2.06889e-13 0 1.10713e-13)
(1.61477e-13 0 1.12115e-13)
(1.1559e-13 0 1.13132e-13)
(6.93683e-14 0 1.1379e-13)
(2.30954e-14 0 1.14113e-13)
(-8.05037e-05 0 0.000307188)
(-0.000134944 0 0.000292036)
(-0.00027355 0 0.000164207)
(-0.000221979 0 0.000207663)
(-0.000266527 0 0.000142974)
(-0.000288328 0 4.36879e-05)
(-0.000289549 0 7.35908e-06)
(-0.000292784 0 -4.48265e-05)
(-0.000293357 0 -1.48852e-05)
(-0.000271296 0 1.60097e-05)
(-0.000244288 0 1.69348e-05)
(-0.000235672 0 3.27953e-05)
(-0.000244118 0 7.28701e-05)
(-0.000262557 0 0.000110116)
(-0.000292041 0 0.000125557)
(-0.000328755 0 0.000161544)
(-0.000368511 0 0.000245548)
(-0.000403953 0 0.000330611)
(-0.000460169 0 0.000344739)
(-0.000506028 0 0.000320019)
(-0.000564986 0 0.000228665)
(-0.000602109 0 0.000150997)
(-0.000624194 0 8.64378e-05)
(-0.000631926 0 2.21582e-05)
(-0.000635106 0 -9.54608e-05)
(-0.000650551 0 -0.000104359)
(-0.00068101 0 -2.68238e-05)
(-0.00069531 0 -1.96263e-06)
(-0.000709259 0 2.1762e-05)
(-0.000725322 0 1.87967e-05)
(-0.000732674 0 2.8079e-06)
(-0.000730245 0 -4.9006e-05)
(-0.000676568 0 -0.00018623)
(-0.000631191 0 -0.000271546)
(-0.000556898 0 -0.000400489)
(-0.000428374 0 -0.000413012)
(-0.000358759 0 -0.000330681)
(-0.000285769 0 -0.000318879)
(3.23408e-05 0 -0.000438228)
(-9.219e-05 0 -0.000189274)
(4.14443e-05 0 -9.28903e-05)
(2.52942e-05 0 5.24277e-05)
(-7.66727e-06 0 9.78729e-05)
(-6.8809e-05 0 0.000106886)
(-0.000122673 0 0.000116478)
(-0.000168729 0 0.000138166)
(-0.000204239 0 0.000152054)
(-0.000236712 0 0.000149735)
(-0.000277924 0 0.000163066)
(-0.000317023 0 0.000195133)
(-0.000366132 0 0.000187703)
(-0.000415158 0 0.000169385)
(-0.000452297 0 0.000153921)
(-0.000490432 0 0.000123106)
(-0.00054611 0 8.33549e-05)
(-0.000590732 0 6.99049e-05)
(-0.000614865 0 5.64383e-05)
(-0.000625701 0 3.13908e-05)
(-0.000628456 0 1.10402e-05)
(-0.000628839 0 -2.00428e-05)
(-0.000629704 0 -5.5009e-05)
(-0.000628661 0 -8.21521e-05)
(-0.000581793 0 -0.000211526)
(-0.000606443 0 3.80491e-05)
(-0.000512668 0 -0.000223334)
(-0.000478617 0 -0.00013378)
(-0.000443844 0 -7.87644e-05)
(-0.000342606 0 -0.000256891)
(-0.000279175 0 -0.000213886)
(-0.000271022 0 -2.8166e-05)
(-0.000131276 0 -0.000148718)
(-9.04647e-05 0 -0.000116611)
(-2.06047e-05 0 -0.000132667)
(8.41556e-05 0 -0.00010326)
(0.000110808 0 -0.000107977)
(0.000164105 0 -4.32689e-05)
(0.000137393 0 -3.01874e-06)
(0.000432828 0 1.2752e-05)
(-0.000280825 0 -3.74173e-05)
(5.17734e-06 0 -0.000633036)
(-3.27888e-13 0 -4.69094e-13)
(-1.36873e-12 0 -1.16909e-13)
(-2.63694e-13 0 -1.27789e-13)
(-1.34174e-13 0 -1.67404e-13)
(-3.26986e-14 0 -1.99601e-13)
(5.51972e-14 0 -2.19907e-13)
(1.36083e-13 0 -2.29718e-13)
(2.12451e-13 0 -2.31359e-13)
(2.8487e-13 0 -2.26573e-13)
(3.53055e-13 0 -2.16647e-13)
(4.16391e-13 0 -2.02593e-13)
(4.74198e-13 0 -1.85266e-13)
(5.25858e-13 0 -1.65426e-13)
(5.70881e-13 0 -1.43765e-13)
(6.08932e-13 0 -1.20922e-13)
(6.39837e-13 0 -9.74758e-14)
(6.63574e-13 0 -7.39397e-14)
(6.80256e-13 0 -5.07586e-14)
(6.90113e-13 0 -2.83028e-14)
(6.93466e-13 0 -6.8679e-15)
(6.90707e-13 0 1.33233e-14)
(6.8227e-13 0 3.21161e-14)
(6.6862e-13 0 4.94161e-14)
(6.5023e-13 0 6.51814e-14)
(6.27572e-13 0 7.94134e-14)
(6.01102e-13 0 9.21474e-14)
(5.7126e-13 0 1.03445e-13)
(5.38456e-13 0 1.13386e-13)
(5.03073e-13 0 1.22062e-13)
(4.65463e-13 0 1.29572e-13)
(4.25945e-13 0 1.36017e-13)
(3.84806e-13 0 1.41497e-13)
(3.42306e-13 0 1.46105e-13)
(2.98674e-13 0 1.49931e-13)
(2.54114e-13 0 1.53055e-13)
(2.08808e-13 0 1.55545e-13)
(1.62919e-13 0 1.57463e-13)
(1.16591e-13 0 1.58857e-13)
(6.99578e-14 0 1.59764e-13)
(2.32905e-14 0 1.60212e-13)
(-8.66999e-05 0 0.00037619)
(-0.000109072 0 0.000367082)
(-0.000125573 0 0.000318193)
(-0.000193326 0 0.000224565)
(-0.000260979 0 8.52168e-05)
(-0.00022661 0 4.72599e-05)
(-0.000214856 0 -2.41874e-05)
(-0.000202599 0 -3.91277e-05)
(-0.000189976 0 -7.46589e-05)
(-0.000202225 0 -3.18739e-05)
(-0.000203947 0 8.04451e-06)
(-0.000205076 0 5.35778e-05)
(-0.000206444 0 8.25227e-05)
(-0.000204588 0 0.000122408)
(-0.000209173 0 0.000163372)
(-0.000229019 0 0.000214188)
(-0.000287246 0 0.000278717)
(-0.000353573 0 0.000334122)
(-0.000387529 0 0.000344509)
(-0.000393977 0 0.000335761)
(-0.000362704 0 0.000303822)
(-0.000386772 0 0.000217768)
(-0.000444127 0 9.10948e-05)
(-0.000466486 0 6.10863e-06)
(-0.000496426 0 -3.29699e-05)
(-0.000547432 0 -5.77907e-05)
(-0.000597762 0 1.40581e-05)
(-0.000624795 0 4.79077e-05)
(-0.000630218 0 6.31948e-05)
(-0.000611227 0 1.97688e-05)
(-0.000581902 0 -2.27616e-05)
(-0.000574418 0 -6.54573e-05)
(-0.000526007 0 -0.000274957)
(-0.000473129 0 -0.000388991)
(-0.000460962 0 -0.000404393)
(-0.000362873 0 -0.000459022)
(-0.000283174 0 -0.000465714)
(-0.00017434 0 -0.000495185)
(3.2821e-05 0 -0.000456534)
(-3.38169e-05 0 -0.000289151)
(3.80506e-05 0 -0.000140711)
(5.38759e-05 0 5.20806e-05)
(3.13314e-05 0 0.000158176)
(-1.60646e-05 0 0.000171417)
(-0.000100312 0 0.000165327)
(-0.000152589 0 0.000188857)
(-0.000212919 0 0.000197879)
(-0.000258649 0 0.000194902)
(-0.000303353 0 0.000201426)
(-0.000336347 0 0.000237625)
(-0.000396857 0 0.000216475)
(-0.000433975 0 0.000219796)
(-0.000481666 0 0.000191362)
(-0.000531168 0 0.000145348)
(-0.000562069 0 0.000136288)
(-0.000575133 0 0.000125493)
(-0.000581775 0 0.000101091)
(-0.000581785 0 -2.35352e-05)
(-0.000560215 0 -9.4951e-06)
(-0.000544293 0 -4.32276e-05)
(-0.000538717 0 -7.6374e-05)
(-0.0005401 0 -0.000108419)
(-0.000520582 0 -0.000161269)
(-0.000522313 0 -0.00011896)
(-0.000455663 0 -0.000254542)
(-0.00044678 0 -0.000183723)
(-0.000407036 0 -0.000204883)
(-0.000333019 0 -0.000303541)
(-0.000347862 0 -0.000196916)
(-0.000239398 0 -0.000213357)
(-0.000185419 0 -0.000192496)
(-0.000159276 0 -0.000163656)
(-0.000109669 0 -0.000179107)
(-4.65945e-05 0 -0.000194951)
(-7.41257e-05 0 -0.000170782)
(5.18936e-05 0 -0.000131027)
(-4.27149e-05 0 1.36859e-05)
(0.00025362 0 0.000117749)
(-0.000673524 0 0.000106329)
(7.49011e-06 0 -0.000689277)
(-7.25273e-13 0 -3.57814e-13)
(-1.25235e-12 0 -2.31649e-13)
(-2.61995e-13 0 -2.54906e-13)
(-1.55897e-13 0 -2.77944e-13)
(-5.19762e-14 0 -2.9687e-13)
(4.374e-14 0 -3.08947e-13)
(1.32605e-13 0 -3.13334e-13)
(2.15988e-13 0 -3.10544e-13)
(2.94349e-13 0 -3.01292e-13)
(3.67488e-13 0 -2.86382e-13)
(4.34877e-13 0 -2.66662e-13)
(4.95895e-13 0 -2.42998e-13)
(5.49973e-13 0 -2.16262e-13)
(5.96668e-13 0 -1.87303e-13)
(6.35702e-13 0 -1.5693e-13)
(6.66965e-13 0 -1.2589e-13)
(6.9051e-13 0 -9.48508e-14)
(7.06535e-13 0 -6.43881e-14)
(7.15354e-13 0 -3.49792e-14)
(7.17376e-13 0 -7.00142e-15)
(7.13071e-13 0 1.92653e-14)
(7.0295e-13 0 4.36312e-14)
(6.87542e-13 0 6.5987e-14)
(6.67375e-13 0 8.6292e-14)
(6.42965e-13 0 1.04561e-13)
(6.14804e-13 0 1.20855e-13)
(5.83354e-13 0 1.35264e-13)
(5.49045e-13 0 1.47903e-13)
(5.1227e-13 0 1.589e-13)
(4.73383e-13 0 1.68391e-13)
(4.32705e-13 0 1.76513e-13)
(3.9052e-13 0 1.83399e-13)
(3.47079e-13 0 1.89176e-13)
(3.02603e-13 0 1.9396e-13)
(2.57286e-13 0 1.97857e-13)
(2.11298e-13 0 2.00959e-13)
(1.64788e-13 0 2.03345e-13)
(1.1789e-13 0 2.05078e-13)
(7.07237e-14 0 2.06206e-13)
(2.35438e-14 0 2.06764e-13)
(-8.72778e-05 0 0.000437305)
(-0.000143157 0 0.000429615)
(-6.53283e-05 0 0.000357873)
(-0.00014468 0 0.000255441)
(-0.000117492 0 0.000189006)
(-0.000133096 0 8.75788e-05)
(-0.000104938 0 2.44183e-05)
(-0.000100025 0 -6.91983e-06)
(-0.000125355 0 -2.33178e-05)
(-0.00015379 0 2.18156e-06)
(-0.000164377 0 2.34416e-05)
(-0.000166823 0 3.78638e-05)
(-0.000165119 0 6.95637e-05)
(-0.000160415 0 0.000112175)
(-0.000150295 0 0.00015503)
(-0.000145984 0 0.000224013)
(-0.000188393 0 0.000286493)
(-0.000165886 0 0.000375636)
(-0.000210857 0 0.000394856)
(-0.000239984 0 0.000375439)
(-0.000386778 0 0.000206781)
(-0.000338419 0 0.000167458)
(-0.000332178 0 0.000150583)
(-0.000403768 0 2.45252e-05)
(-0.000428992 0 3.32895e-07)
(-0.000454068 0 -1.36393e-05)
(-0.000500559 0 1.9611e-05)
(-0.000529249 0 3.08566e-05)
(-0.000533112 0 2.30366e-05)
(-0.000486527 0 -3.47141e-05)
(-0.000423864 0 -7.68275e-05)
(-0.00040572 0 -9.58299e-05)
(-0.000397373 0 -0.000226332)
(-0.000345649 0 -0.000432687)
(-0.000314391 0 -0.000507634)
(-0.000276293 0 -0.000533185)
(-0.000173056 0 -0.000581275)
(-7.14052e-05 0 -0.000579538)
(-0.000144219 0 -0.000448248)
(5.52951e-05 0 -0.000346444)
(-2.37519e-05 0 -0.000152665)
(5.74417e-05 0 -2.99176e-05)
(5.5768e-05 0 0.000181175)
(3.5844e-05 0 0.000243342)
(-5.17461e-05 0 0.000236706)
(-0.000127676 0 0.000242996)
(-0.000182371 0 0.000267511)
(-0.000282739 0 0.000244427)
(-0.000366467 0 0.000227362)
(-0.000379328 0 0.000278651)
(-0.000409747 0 0.000292207)
(-0.000460265 0 0.000253315)
(-0.000485153 0 0.000244977)
(-0.00050725 0 0.000212303)
(-0.000522639 0 0.000178271)
(-0.000537986 0 6.83238e-05)
(-0.000520995 0 4.96661e-05)
(-0.000515231 0 6.0883e-06)
(-0.000500017 0 -3.64736e-05)
(-0.000472448 0 -5.48154e-05)
(-0.000461206 0 -8.07481e-05)
(-0.000461108 0 -0.000119059)
(-0.000463373 0 -0.000130488)
(-0.000441758 0 -0.000192615)
(-0.000446034 0 -0.000190459)
(-0.000409014 0 -0.000225644)
(-0.000387076 0 -0.000243502)
(-0.000369406 0 -0.000273562)
(-0.000340478 0 -0.000248425)
(-0.000273072 0 -0.000250184)
(-0.000250991 0 -0.000201627)
(-0.000216126 0 -0.000182706)
(-0.000188368 0 -0.000186099)
(-0.000185023 0 -0.00018317)
(-0.000187986 0 -0.000165151)
(-0.000118154 0 -0.000173898)
(-0.00010152 0 -9.06563e-05)
(0.000421061 0 -4.33874e-05)
(-0.000372623 0 0.000141509)
(7.2482e-06 0 -0.000675606)
(-7.51497e-13 0 -5.15721e-13)
(-1.46187e-12 0 -3.67787e-13)
(-3.09504e-13 0 -3.82129e-13)
(-1.75653e-13 0 -3.92502e-13)
(-6.32182e-14 0 -4.00927e-13)
(3.90072e-14 0 -4.05445e-13)
(1.34519e-13 0 -4.0411e-13)
(2.24493e-13 0 -3.96242e-13)
(3.09031e-13 0 -3.8176e-13)
(3.87685e-13 0 -3.61052e-13)
(4.59775e-13 0 -3.34824e-13)
(5.24598e-13 0 -3.03975e-13)
(5.81554e-13 0 -2.69508e-13)
(6.30213e-13 0 -2.3245e-13)
(6.70345e-13 0 -1.93805e-13)
(7.01916e-13 0 -1.54505e-13)
(7.25076e-13 0 -1.15384e-13)
(7.40127e-13 0 -7.71556e-14)
(7.47499e-13 0 -4.04049e-14)
(7.47711e-13 0 -5.5881e-15)
(7.41339e-13 0 2.69639e-14)
(7.28992e-13 0 5.70349e-14)
(7.11281e-13 0 8.45105e-14)
(6.88805e-13 0 1.09362e-13)
(6.62135e-13 0 1.3163e-13)
(6.31805e-13 0 1.51407e-13)
(5.98308e-13 0 1.68827e-13)
(5.62092e-13 0 1.84046e-13)
(5.23562e-13 0 1.97236e-13)
(4.83076e-13 0 2.08577e-13)
(4.40952e-13 0 2.18245e-13)
(3.97468e-13 0 2.26413e-13)
(3.52866e-13 0 2.33242e-13)
(3.07355e-13 0 2.3888e-13)
(2.61113e-13 0 2.43459e-13)
(2.14296e-13 0 2.47095e-13)
(1.67037e-13 0 2.49885e-13)
(1.19452e-13 0 2.51909e-13)
(7.16437e-14 0 2.53226e-13)
(2.3848e-14 0 2.53876e-13)
(-4.92772e-05 0 0.000490588)
(-3.35343e-05 0 0.000458234)
(-5.18872e-05 0 0.000363749)
(-9.14394e-05 0 0.000274978)
(-4.36842e-05 0 0.000189279)
(-4.34162e-05 0 8.40106e-05)
(-1.80579e-05 0 -9.22463e-06)
(-4.18627e-05 0 -2.79683e-05)
(-7.21478e-05 0 -5.41314e-06)
(-9.49115e-05 0 2.05022e-06)
(-0.000106142 0 1.62365e-05)
(-0.000114948 0 4.11898e-05)
(-0.000113805 0 6.30709e-05)
(-0.000102939 0 0.000101622)
(-8.41362e-05 0 0.000137845)
(-5.97038e-05 0 0.000207096)
(-2.81518e-05 0 0.000320914)
(-8.71246e-05 0 0.000397602)
(-0.000137316 0 0.000426388)
(-0.00017505 0 0.000412259)
(-0.000203301 0 0.000351469)
(-0.000286778 0 0.000214605)
(-0.000322305 0 0.000136008)
(-0.000353155 0 8.81378e-05)
(-0.000387286 0 3.97448e-05)
(-0.000403651 0 1.795e-05)
(-0.000429555 0 5.5046e-05)
(-0.000449759 0 5.42171e-05)
(-0.000452624 0 3.01707e-05)
(-0.000399962 0 -8.2976e-05)
(-0.000327605 0 -0.000126619)
(-0.000300711 0 -0.000137347)
(-0.000299537 0 -0.000217085)
(-0.000307976 0 -0.000389963)
(-0.000297848 0 -0.000511412)
(-0.000236821 0 -0.000605377)
(-0.000180352 0 -0.000645018)
(-0.000121196 0 -0.000635109)
(-1.78654e-05 0 -0.000565586)
(9.7946e-07 0 -0.0004087)
(7.31193e-05 0 -0.000211838)
(-3.44267e-05 0 -1.24664e-05)
(4.1124e-05 0 0.000130833)
(7.95257e-05 0 0.00026914)
(-2.06589e-05 0 0.00030394)
(-0.000104471 0 0.000302562)
(-0.00013388 0 0.000336216)
(-0.000184084 0 0.000358176)
(-0.000285149 0 0.000352502)
(-0.000381307 0 0.000309774)
(-0.000405754 0 0.000307052)
(-0.000441655 0 0.00028009)
(-0.000455926 0 0.000270492)
(-0.000486014 0 0.000176412)
(-0.0004714 0 0.00011471)
(-0.000461667 0 0.000116038)
(-0.00047112 0 6.39849e-05)
(-0.000483518 0 3.70622e-06)
(-0.000483894 0 -1.18834e-05)
(-0.000440505 0 -8.46872e-05)
(-0.0004174 0 -8.84499e-05)
(-0.000411001 0 -0.000100422)
(-0.000405923 0 -0.000137187)
(-0.00040924 0 -0.000164399)
(-0.000398994 0 -0.000208086)
(-0.000373092 0 -0.000255528)
(-0.000367757 0 -0.000274408)
(-0.000368319 0 -0.000278916)
(-0.000315982 0 -0.000316529)
(-0.000341057 0 -0.000247028)
(-0.00028259 0 -0.000237971)
(-0.000254938 0 -0.000194932)
(-0.000228556 0 -0.000178721)
(-0.000209029 0 -0.000183265)
(-0.000211311 0 -0.000166895)
(-0.00017553 0 -0.000145905)
(-0.000183144 0 -8.8521e-05)
(-0.000138467 0 0.000225072)
(-0.000567504 0 0.000154649)
(8.26069e-06 0 -0.000698526)
(-8.68204e-13 0 -7.45543e-13)
(-1.33379e-12 0 -5.27344e-13)
(-2.86243e-13 0 -5.13141e-13)
(-1.74229e-13 0 -5.08833e-13)
(-6.44543e-14 0 -5.08746e-13)
(4.08216e-14 0 -5.07485e-13)
(1.4184e-13 0 -5.01317e-13)
(2.38338e-13 0 -4.88526e-13)
(3.29539e-13 0 -4.68471e-13)
(4.14424e-13 0 -4.41301e-13)
(4.91953e-13 0 -4.07703e-13)
(5.61211e-13 0 -3.68701e-13)
(6.21499e-13 0 -3.25495e-13)
(6.72371e-13 0 -2.79354e-13)
(7.13646e-13 0 -2.31516e-13)
(7.45385e-13 0 -1.83131e-13)
(7.6786e-13 0 -1.35219e-13)
(7.81514e-13 0 -8.86397e-14)
(7.86922e-13 0 -4.40872e-14)
(7.84745e-13 0 -2.09061e-15)
(7.75694e-13 0 3.69781e-14)
(7.60496e-13 0 7.28891e-14)
(7.39869e-13 0 1.05537e-13)
(7.14494e-13 0 1.34919e-13)
(6.8501e-13 0 1.61114e-13)
(6.52001e-13 0 1.84265e-13)
(6.15992e-13 0 2.04554e-13)
(5.77455e-13 0 2.22193e-13)
(5.36801e-13 0 2.37408e-13)
(4.94392e-13 0 2.50427e-13)
(4.50542e-13 0 2.61476e-13)
(4.05517e-13 0 2.70768e-13)
(3.59545e-13 0 2.78503e-13)
(3.1282e-13 0 2.84864e-13)
(2.65501e-13 0 2.9001e-13)
(2.17725e-13 0 2.94083e-13)
(1.69603e-13 0 2.972e-13)
(1.21231e-13 0 2.99456e-13)
(7.26907e-14 0 3.00921e-13)
(2.41939e-14 0 3.01644e-13)
(-2.91826e-05 0 0.000512895)
(-2.23755e-05 0 0.000454436)
(-5.65085e-05 0 0.000371266)
(-9.20894e-06 0 0.000286795)
(-1.90581e-05 0 0.000164477)
(1.13729e-05 0 2.32485e-05)
(-8.06022e-06 0 -1.62539e-05)
(-3.96283e-05 0 -5.01907e-06)
(-4.6623e-05 0 1.52559e-05)
(-6.31789e-05 0 1.58493e-05)
(-6.64751e-05 0 2.90491e-05)
(-6.49324e-05 0 4.90444e-05)
(-6.14076e-05 0 5.8659e-05)
(-4.63899e-05 0 7.97395e-05)
(-2.29547e-05 0 0.000127634)
(-6.06611e-06 0 0.000210474)
(-1.13532e-05 0 0.000327999)
(-4.26324e-05 0 0.000424518)
(-8.5411e-05 0 0.000465506)
(-0.000127144 0 0.000451798)
(-0.000175031 0 0.000382087)
(-0.000228979 0 0.000272205)
(-0.000291499 0 0.00015923)
(-0.00030019 0 0.000127146)
(-0.000333041 0 7.78673e-05)
(-0.000364961 0 4.87956e-05)
(-0.000382285 0 6.04874e-05)
(-0.000387335 0 4.58895e-05)
(-0.000385446 0 2.77541e-06)
(-0.000355115 0 -0.000100806)
(-0.000294552 0 -0.00018818)
(-0.000270958 0 -0.000178203)
(-0.000267254 0 -0.000217478)
(-0.000254451 0 -0.000394803)
(-0.000272394 0 -0.000520733)
(-0.000285651 0 -0.000613561)
(-0.000248119 0 -0.000672255)
(-0.000203365 0 -0.000681682)
(-0.000126282 0 -0.000615942)
(-0.000113943 0 -0.000430588)
(-6.47853e-05 0 -0.000233644)
(-2.42137e-05 0 -5.58957e-05)
(-2.59953e-05 0 0.000108733)
(3.99627e-05 0 0.000328187)
(-2.37897e-05 0 0.000364669)
(-0.000156912 0 0.000341612)
(-0.000203377 0 0.000348519)
(-0.000256556 0 0.000355317)
(-0.000299277 0 0.000365618)
(-0.000342022 0 0.000356019)
(-0.000377759 0 0.00032871)
(-0.000399126 0 0.000303717)
(-0.000408729 0 0.000277778)
(-0.000427199 0 0.000220531)
(-0.000433522 0 0.000139099)
(-0.000426924 0 0.000108976)
(-0.000432876 0 7.60966e-05)
(-0.000440806 0 2.03141e-05)
(-0.000438112 0 -3.19217e-05)
(-0.000416909 0 -0.000104044)
(-0.000376226 0 -0.000166624)
(-0.000376264 0 -0.000120357)
(-0.000361071 0 -0.000142411)
(-0.000363325 0 -0.000160961)
(-0.000349592 0 -0.000214728)
(-0.0003422 0 -0.000261955)
(-0.000352829 0 -0.00028097)
(-0.000352575 0 -0.00029791)
(-0.000355351 0 -0.000300831)
(-0.000310473 0 -0.00032988)
(-0.000324231 0 -0.000257658)
(-0.00025563 0 -0.000244505)
(-0.000219765 0 -0.000198429)
(-0.000183954 0 -0.000188841)
(-0.000205062 0 -0.000149047)
(-0.000130694 0 -0.000161223)
(-0.000156222 0 -1.35376e-05)
(-8.94283e-05 0 4.53131e-06)
(-0.000318292 0 -0.000190741)
(7.01127e-06 0 -0.000532363)
(-5.88872e-13 0 -1.02508e-12)
(-1.46379e-12 0 -6.80694e-13)
(-2.90549e-13 0 -6.34012e-13)
(-1.70811e-13 0 -6.20688e-13)
(-6.14234e-14 0 -6.17501e-13)
(4.66898e-14 0 -6.1403e-13)
(1.53508e-13 0 -6.04946e-13)
(2.57339e-13 0 -5.87948e-13)
(3.56257e-13 0 -5.62218e-13)
(4.48453e-13 0 -5.27946e-13)
(5.32375e-13 0 -4.86004e-13)
(6.06806e-13 0 -4.37685e-13)
(6.70901e-13 0 -3.8451e-13)
(7.24193e-13 0 -3.28069e-13)
(7.66567e-13 0 -2.69907e-13)
(7.98213e-13 0 -2.11436e-13)
(8.19567e-13 0 -1.53884e-13)
(8.31259e-13 0 -9.82691e-14)
(8.34048e-13 0 -4.53925e-14)
(8.28776e-13 0 4.15519e-15)
(8.16319e-13 0 4.99768e-14)
(7.97551e-13 0 9.18475e-14)
(7.7331e-13 0 1.2969e-13)
(7.44382e-13 0 1.63546e-13)
(7.1148e-13 0 1.93552e-13)
(6.75244e-13 0 2.19914e-13)
(6.36236e-13 0 2.42882e-13)
(5.94946e-13 0 2.62733e-13)
(5.51796e-13 0 2.79756e-13)
(5.07144e-13 0 2.94238e-13)
(4.61293e-13 0 3.06459e-13)
(4.14496e-13 0 3.1668e-13)
(3.66962e-13 0 3.25143e-13)
(3.18862e-13 0 3.32067e-13)
(2.70333e-13 0 3.37642e-13)
(2.21486e-13 0 3.42035e-13)
(1.7241e-13 0 3.45385e-13)
(1.23173e-13 0 3.47801e-13)
(7.38318e-14 0 3.49368e-13)
(2.45707e-14 0 3.50139e-13)
(-2.17323e-05 0 0.000516958)
(-1.68506e-05 0 0.000458776)
(-2.52672e-05 0 0.000381737)
(-3.244e-05 0 0.000264757)
(-2.21617e-07 0 0.000127508)
(-7.99895e-06 0 2.12446e-05)
(-1.47914e-05 0 4.88976e-06)
(-3.72124e-05 0 1.54234e-05)
(-4.26403e-05 0 2.74635e-05)
(-5.37367e-05 0 1.68839e-05)
(-5.48594e-05 0 1.08464e-05)
(-4.85688e-05 0 1.7004e-05)
(-2.69565e-05 0 3.03664e-05)
(1.13583e-05 0 5.49059e-05)
(4.07433e-05 0 9.98033e-05)
(2.78331e-05 0 0.000198088)
(1.63099e-05 0 0.000335734)
(-9.4338e-06 0 0.000456475)
(-5.1571e-05 0 0.00051416)
(-0.000106422 0 0.000495724)
(-0.000151417 0 0.000421639)
(-0.000174701 0 0.000320961)
(-0.000196107 0 0.000236329)
(-0.000229489 0 0.000180034)
(-0.000262928 0 0.000134021)
(-0.000335256 0 6.19118e-05)
(-0.000348257 0 6.78139e-05)
(-0.000348907 0 3.32435e-05)
(-0.000342976 0 -2.11399e-05)
(-0.000328891 0 -0.00014456)
(-0.000305917 0 -0.000200714)
(-0.000265864 0 -0.000232571)
(-0.000258665 0 -0.000247533)
(-0.000244543 0 -0.000375474)
(-0.000274338 0 -0.000508141)
(-0.000285949 0 -0.000635762)
(-0.000263825 0 -0.000704345)
(-0.000252387 0 -0.000710773)
(-0.000259499 0 -0.000637877)
(-0.000206823 0 -0.000450443)
(-0.000178969 0 -0.000228335)
(-0.000125233 0 -4.71464e-05)
(-9.17053e-05 0 9.59111e-05)
(-5.28823e-05 0 0.00034497)
(-4.96721e-05 0 0.000416116)
(-0.000118671 0 0.000416618)
(-0.000203363 0 0.000406772)
(-0.000274737 0 0.000402123)
(-0.000298981 0 0.0003995)
(-0.000301043 0 0.000395094)
(-0.000331887 0 0.000358839)
(-0.000367342 0 0.000293868)
(-0.000363956 0 0.000266454)