/*--------------------------------*- C++ -*----------------------------------*\
  =========                 |
  \\      /  F ield         | OpenFOAM: The Open Source CFD Toolbox
   \\    /   O peration     | Website:  https://openfoam.org
    \\  /    A nd           | Version:  6
     \\/     M anipulation  |
\*---------------------------------------------------------------------------*/
FoamFile
{
    version     2.0;
    format      ascii;
    class       volScalarField;
    location    "1600";
    object      Su;
}
// * * * * * * * * * * * * * * * * * * * * * * * * * * * * * * * * * * * * * //

dimensions      [0 0 -1 0 0 0 0];

internalField   nonuniform List<scalar> 
4800
(
0.218681
0.214865
0.211066
0.207297
0.203574
0.199918
0.196356
0.192916
0.189623
0.186514
0.183642
0.181028
0.178661
0.176525
0.174594
0.172838
0.171232
0.169751
0.168378
0.167096
0.16589
0.164747
0.163654
0.1626
0.161572
0.160561
0.159558
0.158554
0.157539
0.156507
0.155452
0.154368
0.153249
0.152093
0.150897
0.149661
0.148383
0.147063
0.145694
0.144271
0.142789
0.141244
0.139638
0.137969
0.136223
0.134391
0.132466
0.130444
0.128318
0.12608
0.12372
0.12123
0.118602
0.11583
0.112907
0.109833
0.106608
0.103237
0.0997257
0.0960798
0.0923053
0.0884116
0.0844084
0.0803069
0.0761207
0.0718684
0.0675684
0.0632468
0.0589317
0.0546471
0.0504174
0.0462555
0.0421691
0.0381564
0.0342115
0.0303364
0.0265359
0.0228113
0.0191522
0.0155332
0.0119403
0.00838017
0.00486091
0.00137779
-0.00206838
-0.0054762
-0.00884492
-0.0121744
-0.0154652
-0.0187186
-0.0219364
-0.025121
-0.0282748
-0.0314006
-0.0345011
-0.0375789
-0.0406367
-0.0436768
-0.0467015
-0.0497127
-0.0527124
-0.0557021
-0.0586833
-0.0616573
-0.0646251
-0.0675877
-0.070546
-0.0735007
-0.0764523
-0.0794014
-0.0823485
-0.0852938
-0.0882378
-0.0911807
-0.0941227
-0.0970641
-0.100005
-0.102945
-0.105885
-0.108825
0.218671
0.214836
0.21102
0.207239
0.203506
0.19984
0.196275
0.19284
0.189573
0.186512
0.183684
0.181107
0.178771
0.176658
0.174741
0.172996
0.171399
0.169927
0.168562
0.167287
0.166089
0.164952
0.163865
0.162816
0.161793
0.160785
0.159784
0.158779
0.157761
0.156726
0.155667
0.154578
0.153454
0.152293
0.151092
0.14985
0.148564
0.147231
0.145846
0.144406
0.142908
0.141351
0.139735
0.138047
0.136276
0.134419
0.132471
0.130426
0.128276
0.126013
0.123631
0.121122
0.118479
0.115695
0.112765
0.109684
0.106455
0.103081
0.0995682
0.0959221
0.0921496
0.0882582
0.0842567
0.0801563
0.075973
0.0717249
0.0674335
0.0631204
0.0588136
0.0545363
0.0503026
0.0461246
0.0420117
0.0379721
0.0340154
0.0301471
0.0263639
0.0226574
0.0190205
0.0154419
0.0118941
0.00835819
0.00484595
0.00136609
-0.00207773
-0.00548361
-0.00885067
-0.0121787
-0.0154683
-0.0187206
-0.0219376
-0.0251213
-0.0282745
-0.0313997
-0.0344996
-0.0375771
-0.0406345
-0.0436744
-0.0466989
-0.04971
-0.0527096
-0.0556993
-0.0586806
-0.0616546
-0.0646225
-0.0675853
-0.0705437
-0.0734985
-0.0764503
-0.0793996
-0.0823468
-0.0852924
-0.0882366
-0.0911796
-0.0941218
-0.0970633
-0.100004
-0.102945
-0.105885
-0.108825
0.218663
0.214811
0.210977
0.207179
0.203439
0.199772
0.196213
0.192809
0.189592
0.186597
0.183838
0.181316
0.179024
0.176943
0.175051
0.173325
0.171744
0.170288
0.168937
0.167677
0.166492
0.16537
0.164296
0.163257
0.162242
0.16124
0.160243
0.159237
0.158218
0.157178
0.156111
0.155012
0.153879
0.152707
0.151494
0.150236
0.148931
0.147575
0.146165
0.144699
0.143177
0.1416
0.139955
0.138224
0.136408
0.134505
0.132507
0.130411
0.128212
0.125904
0.12348
0.120934
0.118259
0.115451
0.112504
0.109412
0.106177
0.102801
0.0992879
0.0956421
0.0918704
0.0879807
0.0839813
0.0798838
0.0757048
0.0714628
0.0671804
0.0628802
0.0585884
0.0543266
0.0501082
0.0459495
0.0418676
0.0378727
0.0339673
0.0301477
0.0264011
0.0227086
0.0190592
0.0154499
0.0118756
0.00833026
0.00481867
0.00134256
-0.00209698
-0.0054989
-0.00886251
-0.0121876
-0.0154746
-0.0187248
-0.0219398
-0.0251219
-0.0282736
-0.0313976
-0.0344966
-0.0375732
-0.0406299
-0.0436693
-0.0466935
-0.0497044
-0.0527039
-0.0556937
-0.058675
-0.0616492
-0.0646173
-0.0675804
-0.0705391
-0.0734942
-0.0764464
-0.079396
-0.0823436
-0.0852895
-0.088234
-0.0911774
-0.09412
-0.0970618
-0.100003
-0.102944
-0.105885
-0.108825
0.21866
0.214807
0.210967
0.207151
0.203403
0.199762
0.196237
0.192875
0.18973
0.186814
0.184129
0.181672
0.17943
0.177389
0.17553
0.173831
0.172276
0.170842
0.169512
0.168273
0.167108
0.166005
0.164948
0.163923
0.162918
0.161923
0.160928
0.159923
0.158901
0.157856
0.156781
0.155672
0.154524
0.153334
0.152099
0.150815
0.149483
0.1481
0.146662
0.145165
0.143611
0.141993
0.140291
0.138504
0.136628
0.134656
0.132587
0.130417
0.128146
0.12577
0.123286
0.120687
0.117969
0.115125
0.112151
0.109041
0.105797
0.102418
0.0989068
0.0952645
0.0914947
0.0876048
0.0836057
0.0795104
0.0753358
0.0711012
0.0668313
0.0625512
0.0582857
0.0540567
0.0498829
0.0457824
0.0417694
0.0378499
0.0340152
0.0302492
0.026528
0.0228311
0.0191463
0.015478
0.0118508
0.00828496
0.00477417
0.00130458
-0.00212798
-0.00552371
-0.00888198
-0.0122024
-0.0154854
-0.018732
-0.021944
-0.0251234
-0.0282728
-0.0313949
-0.0344922
-0.0375675
-0.0406233
-0.0436618
-0.0466855
-0.049696
-0.0526954
-0.0556851
-0.0586666
-0.0616411
-0.0646095
-0.067573
-0.0705322
-0.0734878
-0.0764404
-0.0793906
-0.0823387
-0.0852852
-0.0882302
-0.0911742
-0.0941172
-0.0970596
-0.100001
-0.102943
-0.105884
-0.108825
0.218659
0.214806
0.210979
0.207186
0.203451
0.199834
0.196368
0.193081
0.190013
0.187177
0.18457
0.182181
0.179996
0.178004
0.176187
0.174522
0.173
0.171594
0.17029
0.169075
0.167933
0.166851
0.165812
0.164801
0.163807
0.16282
0.161831
0.160829
0.159805
0.158754
0.157668
0.156546
0.15538
0.154167
0.152905
0.151594
0.150234
0.148823
0.147352
0.145816
0.144214
0.142531
0.140757
0.13889
0.136921
0.134856
0.132696
0.130439
0.128083
0.125628
0.123073
0.120414
0.117643
0.114753
0.111741
0.108604
0.105341
0.101953
0.0984382
0.0947957
0.0910268
0.0871373
0.08314
0.0790492
0.0748819
0.0706603
0.0664117
0.0621621
0.0579344
0.0537529
0.0496408
0.0456145
0.0416812
0.0378374
0.0340624
0.0303272
0.0266068
0.0228854
0.0191572
0.0154378
0.0117684
0.00820349
0.00470717
0.00125071
-0.00217183
-0.00555949
-0.00891074
-0.0122249
-0.0155022
-0.0187437
-0.0219512
-0.0251268
-0.0282729
-0.0313921
-0.0344871
-0.0375605
-0.0406148
-0.0436522
-0.046675
-0.0496851
-0.0526843
-0.055674
-0.0586556
-0.0616303
-0.0645992
-0.0675632
-0.070523
-0.0734792
-0.0764326
-0.0793834
-0.0823323
-0.0852794
-0.0882252
-0.0911698
-0.0941136
-0.0970566
-0.0999991
-0.102941
-0.105883
-0.108825
0.21867
0.214838
0.211033
0.207276
0.203589
0.200019
0.196622
0.193427
0.190448
0.187694
0.185166
0.182848
0.180727
0.178792
0.177022
0.175399
0.173916
0.172542
0.171267
0.170078
0.16896
0.167898
0.166877
0.165881
0.1649
0.163925
0.162944
0.161945
0.160921
0.159864
0.158769
0.157632
0.156447
0.155211
0.153923
0.152586
0.151199
0.149755
0.148243
0.146655
0.144987
0.143224
0.141353
0.139376
0.137295
0.13512
0.132849
0.130487
0.128035
0.125493
0.122859
0.120129
0.117296
0.114353
0.111298
0.108128
0.104839
0.10143
0.0978999
0.0942478
0.0904745
0.0865853
0.0825914
0.0785069
0.0743509
0.0701491
0.0659302
0.0617217
0.0575456
0.0534231
0.0493772
0.0454219
0.0415548
0.0377626
0.034021
0.0302974
0.0265743
0.0228411
0.0190871
0.0153237
0.0115995
0.00808621
0.00462537
0.00118618
-0.00222676
-0.0056067
-0.00895031
-0.0122568
-0.0155267
-0.0187615
-0.021963
-0.0251332
-0.0282748
-0.0313902
-0.034482
-0.0375527
-0.0406049
-0.0436408
-0.0466625
-0.0496719
-0.0526706
-0.0556602
-0.058642
-0.0616171
-0.0645865
-0.0675511
-0.0705116
-0.0734687
-0.0764228
-0.0793746
-0.0823243
-0.0852723
-0.0882189
-0.0911644
-0.0941091
-0.0970529
-0.0999963
-0.102939
-0.105882
-0.108824
0.218682
0.214874
0.2111
0.207396
0.20379
0.200308
0.196996
0.193894
0.191009
0.188347
0.185904
0.183667
0.181618
0.179745
0.178028
0.176454
0.175013
0.173673
0.172428
0.171268
0.170175
0.169136
0.168136
0.167159
0.166193
0.165231
0.164261
0.163267
0.162243
0.161183
0.16008
0.158931
0.15773
0.156472
0.15516
0.153798
0.15238
0.150898
0.149337
0.147686
0.145937
0.144074
0.142088
0.13999
0.137781
0.135475
0.133078
0.130602
0.128047
0.125409
0.122682
0.119867
0.11696
0.113955
0.110849
0.107635
0.104309
0.100867
0.0973089
0.0936362
0.0898517
0.0859592
0.0819678
0.077894
0.0737601
0.0695905
0.0654107
0.0612464
0.0571227
0.0530627
0.0490825
0.0451838
0.0413577
0.0375875
0.0338566
0.0301459
0.0264415
0.0227319
0.0189932
0.0151977
0.0110533
0.0079858
0.00456245
0.0011252
-0.00228858
-0.00566537
-0.00900228
-0.0123002
-0.0155611
-0.0187872
-0.0219807
-0.025144
-0.0282795
-0.0313898
-0.0344774
-0.0375447
-0.0405942
-0.043628
-0.0466482
-0.0496566
-0.0526548
-0.0556442
-0.0586261
-0.0616016
-0.0645715
-0.0675369
-0.0704982
-0.0734562
-0.0764113
-0.0793641
-0.0823148
-0.0852638
-0.0882115
-0.0911581
-0.0941037
-0.0970486
-0.0999929
-0.102937
-0.10588
-0.108824
0.218711
0.214964
0.211259
0.207627
0.204103
0.200721
0.197514
0.19451
0.191726
0.189161
0.1868
0.184639
0.182663
0.180855
0.179197
0.177675
0.176277
0.174976
0.173766
0.172639
0.171575
0.170563
0.169585
0.16863
0.167684
0.166739
0.16578
0.164793
0.163771
0.162711
0.161603
0.160444
0.159229
0.15795
0.156615
0.155227
0.153773
0.152247
0.150628
0.148899
0.147053
0.145075
0.142963
0.140726
0.138377
0.135933
0.133408
0.13081
0.128139
0.125392
0.122567
0.11966
0.116667
0.113587
0.110415
0.107144
0.103767
0.100282
0.096688
0.0929866
0.089183
0.0852845
0.0813004
0.0772436
0.0731359
0.0690041
0.0648723
0.060762
0.0566954
0.0526899
0.048755
0.0448876
0.041076
0.0373064
0.0335722
0.0298727
0.0262025
0.0225563
0.0189336
0.0153036
0.0116658
0.00811022
0.00457231
0.00107927
-0.00235709
-0.00573798
-0.00906946
-0.0123577
-0.0156076
-0.0188227
-0.0220062
-0.0251605
-0.0282883
-0.031392
-0.0344742
-0.0375371
-0.040583
-0.0436142
-0.0466324
-0.0496395
-0.0526369
-0.055626
-0.058608
-0.0615838
-0.0645544
-0.0675205
-0.0704828
-0.0734418
-0.0763981
-0.079352
-0.0823039
-0.0852542
-0.088203
-0.0911507
-0.0940975
-0.0970436
-0.099989
-0.102934
-0.105879
-0.108823
0.218767
0.215125
0.211513
0.20797
0.204542
0.201263
0.19816
0.195254
0.192563
0.190091
0.187823
0.185754
0.183857
0.182118
0.180521
0.179055
0.177706
0.176449
0.175282
0.174191
0.173162
0.172178
0.171227
0.170298
0.169372
0.168446
0.1675
0.166523
0.165507
0.164451
0.163341
0.162174
0.160945
0.159644
0.158287
0.15687
0.155372
0.153793
0.152105
0.150289
0.148335
0.146231
0.143984
0.141606
0.139114
0.136531
0.133874
0.131147
0.128349
0.125483
0.122546
0.119534
0.116444
0.113275
0.110022
0.106681
0.103243
0.0997042
0.0960661
0.0923327
0.0885111
0.0846089
0.0806345
0.0765992
0.072521
0.068426
0.0643408
0.0602877
0.0562811
0.0523234
0.0484144
0.0445556
0.0407411
0.0369641
0.0332248
0.0295257
0.0258735
0.0222822
0.0187869
0.0153952
0.0120508
0.00828527
0.00458987
0.00101886
-0.0024472
-0.00583274
-0.0091569
-0.0124327
-0.0156686
-0.0188701
-0.022041
-0.0251841
-0.0283022
-0.0313978
-0.0344731
-0.0375305
-0.040572
-0.0435998
-0.0466156
-0.049621
-0.0526174
-0.055606
-0.0585879
-0.0615641
-0.0645354
-0.0675023
-0.0704656
-0.0734258
-0.0763833
-0.0793385
-0.0822917
-0.0852433
-0.0881935
-0.0911425
-0.0940906
-0.0970379
-0.0999846
-0.102931
-0.105877
-0.108823
0.218824
0.2153
0.211811
0.208386
0.205071
0.201905
0.198916
0.196124
0.193543
0.191175
0.189001
0.187018
0.185198
0.183531
0.182002
0.180597
0.179303
0.178096
0.176977
0.175929
0.174938
0.173985
0.173065
0.172163
0.171263
0.170357
0.169428
0.168464
0.167455
0.166402
0.165292
0.164118
0.162873
0.161554
0.160173
0.158719
0.157172
0.15553
0.153761
0.151843
0.149769
0.147538
0.145154
0.142634
0.140002
0.137281
0.134488
0.131627
0.128698
0.125704
0.122645
0.119519
0.116323
0.113053
0.109707
0.106281
0.102769
0.0991693
0.0954813
0.0917125
0.0878728
0.0839692
0.0800102
0.0760065
0.0719704
0.0679197
0.063877
0.0598648
0.0558982
0.0519746
0.0480848
0.0442317
0.0404144
0.036627
0.0328733
0.0291627
0.0255136
0.0219548
0.018547
0.0154119
0.0125854
0.00840078
0.00452126
0.000895126
-0.00258242
-0.0059614
-0.00927105
-0.0125293
-0.0157471
-0.0189314
-0.0220867
-0.0252161
-0.0283223
-0.0314078
-0.0344748
-0.0375254
-0.0405617
-0.0435854
-0.0465981
-0.0496014
-0.0525964
-0.0555844
-0.0585662
-0.0615426
-0.0645145
-0.0674823
-0.0704468
-0.0734082
-0.076367
-0.0793236
-0.0822782
-0.0852313
-0.0881829
-0.0911334
-0.094083
-0.0970317
-0.0999798
-0.102927
-0.105875
-0.108822
0.218884
0.215482
0.212121
0.208836
0.20566
0.202628
0.199767
0.197101
0.194642
0.192383
0.190306
0.188415
0.186685
0.1851
0.183647
0.182309
0.181076
0.179927
0.178857
0.177857
0.176907
0.175992
0.175106
0.174233
0.173361
0.172477
0.171567
0.170618
0.169617
0.16857
0.167459
0.166276
0.165017
0.16368
0.162268
0.160769
0.159168
0.157453
0.155597
0.153575
0.151385
0.149023
0.146499
0.143841
0.141076
0.13822
0.135292
0.132295
0.12923
0.126103
0.122914
0.119661
0.116342
0.112958
0.109505
0.105981
0.102384
0.0987114
0.0949657
0.0911571
0.0872957
0.0833869
0.0794404
0.0754665
0.0714738
0.0674733
0.0634788
0.0595062
0.055568
0.0516667
0.0477942
0.0439464
0.0401228
0.0363221
0.032551
0.0288216
0.0251518
0.0215752
0.0181403
0.0148719
0.0116461
0.0079138
0.00422261
0.000660847
-0.00278241
-0.00613398
-0.0094178
-0.0126512
-0.0158456
-0.0190085
-0.0221447
-0.0252574
-0.0283494
-0.0314229
-0.0344799
-0.0375225
-0.0405524
-0.0435712
-0.0465803
-0.049581
-0.0525744
-0.0555614
-0.0585429
-0.0615196
-0.064492
-0.0674608
-0.0704264
-0.0733891
-0.0763493
-0.0793074
-0.0822637
-0.0852183
-0.0881715
-0.0911236
-0.0940747
-0.097025
-0.0999746
-0.102924
-0.105873
-0.108821
0.218957
0.215703
0.21249
0.209349
0.206317
0.203425
0.200704
0.19817
0.195832
0.193689
0.191728
0.189943
0.188312
0.186819
0.18545
0.18419
0.183026
0.181941
0.180928
0.179978
0.179074
0.1782
0.177352
0.17651
0.17567
0.174811
0.173921
0.172991
0.171999
0.170959
0.169845
0.168653
0.167382
0.166021
0.164577
0.163027
0.161367
0.159577
0.157633
0.155511
0.153207
0.150721
0.148068
0.145282
0.142386
0.139399
0.136336
0.133198
0.129992
0.126723
0.123391
0.119996
0.116541
0.113024
0.109448
0.105812
0.102115
0.0983601
0.0945521
0.0907
0.0868116
0.0828937
0.0789547
0.0750029
0.0710455
0.0670899
0.0631436
0.0592124
0.0553007
0.0514134
0.0475505
0.0437047
0.0398731
0.0360611
0.0322804
0.0285476
0.0248811
0.0212965
0.0178022
0.0143871
0.0109563
0.00738509
0.0038236
0.000343157
-0.00304499
-0.00635369
-0.00960072
-0.0128012
-0.0159662
-0.0191029
-0.022216
-0.0253089
-0.028384
-0.0314434
-0.0344889
-0.0375221
-0.0405446
-0.0435576
-0.0465624
-0.0495601
-0.0525514
-0.0555373
-0.0585184
-0.0614952
-0.0644682
-0.0674379
-0.0704046
-0.0733687
-0.0763305
-0.0792902
-0.0822481
-0.0852044
-0.0881593
-0.0911131
-0.0940658
-0.0970177
-0.099969
-0.10292
-0.10587
-0.10882
0.219042
0.215959
0.212918
0.209947
0.207075
0.204334
0.201753
0.199352
0.197144
0.195124
0.193283
0.191609
0.190084
0.188693
0.187418
0.186245
0.185157
0.184141
0.183189
0.182291
0.181437
0.180608
0.179799
0.178995
0.17819
0.177358
0.176494
0.175581
0.174601
0.173571
0.172451
0.171254
0.16997
0.168585
0.167104
0.165501
0.163781
0.161919
0.159893
0.157681
0.155277
0.15268
0.149911
0.147006
0.143988
0.140872
0.137673
0.134397
0.131049
0.127632
0.124146
0.120591
0.116975
0.113306
0.109586
0.105819
0.102008
0.0981587
0.0942807
0.0903796
0.0864607
0.0825297
0.0785925
0.0746551
0.0707227
0.0668002
0.0628911
0.0589939
0.0551037
0.0512216
0.0473538
0.0434966
0.0396484
0.0358216
0.0320292
0.0282884
0.024618
0.0210243
0.0174812
0.0139598
0.0104214
0.00686577
0.00337154
-3.96726e-05
-0.0033666
-0.00662196
-0.00982212
-0.0129813
-0.01611
-0.0192151
-0.0223011
-0.0253708
-0.0284265
-0.0314697
-0.0345019
-0.0375244
-0.0405384
-0.0435448
-0.0465448
-0.0495389
-0.0525279
-0.0555124
-0.0584929
-0.0614697
-0.0644432
-0.0674139
-0.0703818
-0.0733473
-0.0763106
-0.079272
-0.0822316
-0.0851897
-0.0881464
-0.0911019
-0.0940564
-0.0970101
-0.0999631
-0.102916
-0.105868
-0.10882
0.219134
0.216235
0.213373
0.210577
0.207876
0.205301
0.202876
0.200623
0.198555
0.196666
0.194949
0.193393
0.191983
0.190705
0.189534
0.188456
0.187452
0.186512
0.185625
0.184785
0.183983
0.183205
0.18244
0.181679
0.180911
0.180112
0.179276
0.178384
0.177423
0.1764
0.175281
0.17408
0.172782
0.171375
0.169859
0.168212
0.166439
0.164511
0.162411
0.160125
0.157636
0.154951
0.152086
0.149079
0.14595
0.142713
0.13939
0.135982
0.132489
0.128913
0.125255
0.121517
0.117716
0.113868
0.109982
0.106064
0.102121
0.0981646
0.0942044
0.0902435
0.0862859
0.0823347
0.0783911
0.074459
0.0705413
0.0666397
0.0627533
0.0588735
0.0549894
0.0510983
0.0472064
0.0433169
0.0394368
0.0355806
0.0317589
0.0279826
0.0242652
0.0206123
0.0170048
0.0134217
0.00984654
0.0062977
0.00285228
-0.000492817
-0.00375093
-0.0069416
-0.0100838
-0.0131923
-0.0162772
-0.0193451
-0.0223995
-0.0254428
-0.0284764
-0.0315014
-0.0345187
-0.0375293
-0.0405339
-0.043533
-0.0465275
-0.0495177
-0.052504
-0.0554869
-0.0584666
-0.0614433
-0.0644173
-0.0673888
-0.070358
-0.0733249
-0.0762899
-0.079253
-0.0822144
-0.0851743
-0.0881328
-0.0910902
-0.0940466
-0.0970021
-0.0999569
-0.102911
-0.105865
-0.108819
0.21923
0.216519
0.213842
0.211226
0.208703
0.206301
0.204043
0.201947
0.200025
0.198275
0.196691
0.195265
0.193983
0.192825
0.191769
0.190794
0.189884
0.189027
0.188212
0.187435
0.18669
0.185965
0.185249
0.184534
0.183807
0.183048
0.182247
0.181383
0.180445
0.179431
0.178321
0.17712
0.175814
0.174394
0.17285
0.17117
0.169351
0.167369
0.16521
0.16287
0.160328
0.157585
0.154653
0.151565
0.148343
0.145003
0.141568
0.138034
0.134399
0.130661
0.126816
0.12287
0.118854
0.1148
0.110718
0.106626
0.102534
0.0984554
0.0943988
0.0903643
0.0863505
0.0823604
0.078395
0.0744556
0.0705414
0.066647
0.0627645
0.0588808
0.0549825
0.0510652
0.0471327
0.0431934
0.0392615
0.0353521
0.0314763
0.0276404
0.0238445
0.0200887
0.0163772
0.0127268
0.00914617
0.00562088
0.00223183
-0.00103359
-0.00420597
-0.00731562
-0.010386
-0.0134331
-0.0164665
-0.0194912
-0.0225099
-0.0255236
-0.0285328
-0.0315379
-0.0345391
-0.0375367
-0.040531
-0.0435222
-0.0465107
-0.0494966
-0.0524799
-0.055461
-0.0584397
-0.0614163
-0.0643907
-0.0673631
-0.0703334
-0.0733018
-0.0762684
-0.0792333
-0.0821965
-0.0851583
-0.0881188
-0.0910781
-0.0940364
-0.0969937
-0.0999504
-0.102907
-0.105862
-0.108818
0.219325
0.216804
0.214315
0.211884
0.209543
0.207316
0.205226
0.20329
0.20152
0.199917
0.198478
0.197193
0.196046
0.195014
0.194076
0.193212
0.192405
0.191636
0.190899
0.19019
0.189505
0.188837
0.188176
0.187512
0.186834
0.186123
0.185366
0.184538
0.183631
0.182636
0.181546
0.180356
0.179052
0.177626
0.176066
0.174371
0.17253
0.170516
0.168324
0.165957
0.163396
0.160629
0.157666
0.154529
0.151244
0.147829
0.144305
0.140663
0.136894
0.13299
0.128944
0.124769
0.120513
0.116224
0.111917
0.107628
0.103363
0.0991403
0.0949645
0.0908316
0.0867379
0.0826873
0.0786791
0.0747127
0.0707799
0.066871
0.0629697
0.0590581
0.0551237
0.0511603
0.0471692
0.043161
0.0391552
0.0351651
0.0312034
0.0272766
0.0233836
0.0195233
0.0157036
0.0119537
0.008316
0.00478507
0.00147289
-0.00167999
-0.00473753
-0.00774392
-0.0107265
-0.0137007
-0.0166744
-0.0196507
-0.0226299
-0.0256114
-0.0285944
-0.0315782
-0.0345622
-0.0375461
-0.0405295
-0.0435123
-0.0464944
-0.0494757
-0.0524558
-0.0554349
-0.0584126
-0.0613888
-0.0643636
-0.0673368
-0.0703083
-0.0732782
-0.0762464
-0.0792131
-0.0821782
-0.085142
-0.0881044
-0.0910656
-0.0940259
-0.0969852
-0.0999438
-0.102902
-0.105859
-0.108817
0.219416
0.217076
0.214768
0.212519
0.210356
0.208304
0.206383
0.20461
0.202996
0.201545
0.200254
0.199109
0.198093
0.197189
0.196375
0.19563
0.19493
0.194254
0.193599
0.192964
0.192348
0.191744
0.191145
0.190542
0.189922
0.189269
0.188566
0.187786
0.186919
0.18596
0.184903
0.18374
0.182453
0.181035
0.179484
0.177798
0.175955
0.173935
0.171741
0.169383
0.166844
0.1641
0.161154
0.158018
0.154716
0.151267
0.147689
0.143963
0.140079
0.136016
0.131766
0.127347
0.122828
0.118278
0.113716
0.109201
0.104735
0.100347
0.0960337
0.0917833
0.0875876
0.0834515
0.079372
0.0753477
0.0713647
0.0674064
0.0634498
0.0594749
0.0554711
0.0514334
0.0473615
0.0432627
0.0391544
0.0350526
0.0309715
0.0269232
0.0229097
0.018929
0.0149817
0.0110756
0.0072863
0.00369884
0.000534276
-0.00244055
-0.00534198
-0.0082199
-0.0110983
-0.013989
-0.0168961
-0.0198192
-0.0227561
-0.0257036
-0.0286593
-0.031621
-0.0345872
-0.0375568
-0.040529
-0.0435032
-0.0464787
-0.049455
-0.0524319
-0.0554087
-0.0583853
-0.0613612
-0.0643362
-0.0673102
-0.0702829
-0.0732542
-0.0762241
-0.0791926
-0.0821596
-0.0851253
-0.0880897
-0.091053
-0.0940152
-0.0969765
-0.099937
-0.102897
-0.105857
-0.108816
0.219495
0.217313
0.215167
0.213082
0.211085
0.209199
0.207443
0.205829
0.204369
0.203065
0.201914
0.200903
0.200018
0.19924
0.198548
0.19792
0.197326
0.196746
0.19618
0.195628
0.19509
0.194562
0.194038
0.193509
0.192961
0.192377
0.191737
0.191019
0.190209
0.189305
0.1883
0.187181
0.185931
0.184549
0.183032
0.181377
0.179562
0.177576
0.175423
0.173113
0.170636
0.167968
0.165094
0.162022
0.158771
0.155355
0.151781
0.148017
0.144046
0.139839
0.135391
0.130729
0.125933
0.121097
0.116263
0.111505
0.106825
0.102263
0.0977926
0.093405
0.089082
0.084834
0.0806508
0.0765304
0.0724516
0.0683929
0.0643286
0.0602403
0.0561185
0.0519607
0.0477663
0.0435392
0.0392952
0.0350516
0.0308233
0.0266204
0.0224529
0.0183149
0.0141955
0.0100683
0.00595413
0.00216512
-0.000606288
-0.00329174
-0.00599688
-0.00872833
-0.0114912
-0.0142902
-0.0171251
-0.0199919
-0.0228845
-0.0257971
-0.028725
-0.0316644
-0.0346128
-0.0375681
-0.0405291
-0.0434944
-0.0464632
-0.0494347
-0.0524081
-0.0553827
-0.058358
-0.0613336
-0.0643088
-0.0672835
-0.0702573
-0.0732301
-0.0762016
-0.0791719
-0.0821409
-0.0851085
-0.0880749
-0.0910401
-0.0940043
-0.0969676
-0.0999302
-0.102892
-0.105854
-0.108815
0.219552
0.217489
0.215467
0.213514
0.211655
0.209909
0.208295
0.206825
0.205504
0.204336
0.203314
0.202429
0.201666
0.201005
0.200425
0.199904
0.199414
0.198936
0.198469
0.198012
0.197565
0.197125
0.196688
0.196244
0.195779
0.195275
0.194713
0.194074
0.193344
0.192516
0.191583
0.190532
0.189349
0.188032
0.186581
0.184988
0.183238
0.181326
0.179259
0.177046
0.17468
0.172136
0.169395
0.166463
0.163348
0.160049
0.15655
0.152804
0.148787
0.144473
0.139861
0.134981
0.129916
0.124803
0.11971
0.114719
0.109842
0.105104
0.100476
0.0959437
0.0914753
0.0870939
0.0827755
0.0785146
0.0742834
0.0700591
0.0658174
0.061544
0.0572333
0.0528864
0.0485049
0.0440924
0.0396615
0.0352291
0.0308162
0.0264417
0.0221094
0.0178182
0.0135347
0.0091316
0.00414874
-0.000265925
-0.00181708
-0.00412936
-0.00665496
-0.00924866
-0.0118942
-0.0145965
-0.0173553
-0.0201634
-0.023011
-0.0258887
-0.0287892
-0.0317068
-0.0346377
-0.0375792
-0.0405291
-0.0434858
-0.0464481
-0.0494147
-0.0523846
-0.055357
-0.0583311
-0.0613061
-0.0642816
-0.067257
-0.0702319
-0.0732061
-0.0761792
-0.0791513
-0.0821221
-0.0850917
-0.0880601
-0.0910273
-0.0939935
-0.0969588
-0.0999233
-0.102887
-0.105851
-0.108814
0.219574
0.217559
0.215597
0.213719
0.211947
0.210302
0.208797
0.207439
0.206234
0.205179
0.204269
0.203492
0.202832
0.202272
0.20179
0.201366
0.200975
0.200603
0.200242
0.19989
0.199544
0.199203
0.198863
0.198514
0.198141
0.197731
0.197264
0.196724
0.196094
0.195366
0.194531
0.193577
0.192492
0.191276
0.189926
0.188433
0.186791
0.185001
0.183072
0.181009
0.178802
0.176432
0.173886
0.171174
0.168288
0.165199
0.16185
0.158191
0.154189
0.149835
0.145138
0.140114
0.134836
0.12949
0.124185
0.119016
0.113994
0.109117
0.104366
0.0997083
0.095095
0.0905677
0.0860884
0.0816418
0.0772029
0.0727434
0.0682428
0.0636982
0.0591095
0.054482
0.0498207
0.0451299
0.0404219
0.0357271
0.03108
0.0265049
0.0220094
0.0175863
0.0132253
0.00890463
0.00462751
0.000757651
-0.00209418
-0.00473767
-0.00727211
-0.00977072
-0.0123014
-0.014902
-0.0175807
-0.0203286
-0.0231313
-0.0259751
-0.0288494
-0.0317463
-0.0346608
-0.0375891
-0.0405285
-0.0434771
-0.046433
-0.0493949
-0.0523615
-0.0553317
-0.0583046
-0.0612792
-0.0642548
-0.0672309
-0.0702068
-0.0731824
-0.0761571
-0.0791309
-0.0821035
-0.085075
-0.0880454
-0.0910146
-0.0939828
-0.09695
-0.0999165
-0.102882
-0.105848
-0.108813
0.219541
0.217466
0.215462
0.213567
0.211804
0.210189
0.208734
0.207444
0.206317
0.205347
0.204521
0.203828
0.203249
0.202769
0.202369
0.20203
0.201734
0.201464
0.201212
0.20097
0.200732
0.200497
0.20026
0.200013
0.199743
0.199439
0.199084
0.19866
0.198154
0.197552
0.196844
0.196019
0.195068
0.193988
0.192776
0.191425
0.189937
0.188318
0.186575
0.184709
0.182713
0.180572
0.178284
0.175864
0.17329
0.170497
0.167392
0.16391
0.160016
0.155732
0.151073
0.146019
0.140641
0.135165
0.129753
0.124527
0.11947
0.114559
0.109769
0.105049
0.100329
0.0956672
0.0910157
0.0863491
0.0816604
0.0769032
0.0720617
0.0671444
0.0621628
0.0571227
0.0520373
0.0469272
0.0418228
0.0367614
0.0317751
0.0268989
0.022168
0.0176052
0.0132112
0.00897765
0.00490389
0.00102836
-0.00247019
-0.0053976
-0.00793327
-0.0103164
-0.0127132
-0.0152007
-0.0177946
-0.0204818
-0.0232411
-0.0260531
-0.0289032
-0.0317814
-0.0346808
-0.0375971
-0.0405269
-0.0434679
-0.0464179
-0.0493754
-0.0523389
-0.055307
-0.0582787
-0.0612528
-0.0642286
-0.0672053
-0.0701823
-0.0731591
-0.0761354
-0.0791108
-0.0820853
-0.0850587
-0.0880309
-0.091002
-0.0939721
-0.0969413
-0.0999098
-0.102878
-0.105845
-0.108812
0.219426
0.217131
0.21494
0.212902
0.211043
0.209373
0.207895
0.206608
0.205502
0.204566
0.203782
0.203134
0.202606
0.202178
0.201837
0.201567
0.201352
0.201177
0.201029
0.200895
0.200768
0.200641
0.20051
0.200369
0.200211
0.200022
0.199791
0.199501
0.199138
0.198687
0.198136
0.197471
0.196685
0.195773
0.194734
0.193566
0.192273
0.190865
0.189345
0.187715
0.185969
0.184103
0.182123
0.180044
0.177845
0.17543
0.172667
0.169477
0.165837
0.161796
0.157344
0.152422
0.147134
0.141711
0.136381
0.131294
0.126391
0.121626
0.11695
0.112299
0.107574
0.102836
0.098039
0.0931701
0.0882242
0.0831247
0.0778717
0.0724858
0.0669874
0.0613813
0.055708
0.0500138
0.0443477
0.0387554
0.0332789
0.0279673
0.0228687
0.0180422
0.0135426
0.00933424
0.00526476
0.00111551
-0.00318877
-0.00627886
-0.00868756
-0.0108807
-0.0131112
-0.0154757
-0.0179851
-0.0206153
-0.0233355
-0.0261195
-0.0289487
-0.0318105
-0.0346969
-0.0376026
-0.0405239
-0.043458
-0.0464028
-0.0493563
-0.0523169
-0.0552831
-0.0582536
-0.0612274
-0.0642033
-0.0671806
-0.0701586
-0.0731366
-0.0761144
-0.0790914
-0.0820676
-0.0850427
-0.0880168
-0.0909898
-0.0939618
-0.0969329
-0.0999032
-0.102873
-0.105842
-0.108811
0.219191
0.216443
0.213847
0.211477
0.209365
0.207508
0.205902
0.204533
0.203384
0.202433
0.201653
0.20102
0.200516
0.200119
0.19982
0.199606
0.199465
0.199376
0.199329
0.1993
0.199276
0.199248
0.199215
0.199176
0.199126
0.199056
0.198954
0.198806
0.1986
0.198318
0.197944
0.197463
0.196866
0.196146
0.195304
0.194344
0.193274
0.192099
0.190821
0.189441
0.187962
0.186393
0.184743
0.183025
0.181229
0.179252
0.176938
0.17419
0.170995
0.167422
0.163401
0.158848
0.153925
0.14884
0.143873
0.139214
0.134742
0.130385
0.126064
0.121692
0.117151
0.11248
0.107652
0.102681
0.0975218
0.0920859
0.0864004
0.0804799
0.0743457
0.0680241
0.0615885
0.0551193
0.0486893
0.0423596
0.0361849
0.0302314
0.0245666
0.0192918
0.0145049
0.0101594
0.00604919
0.0016463
-0.00463842
-0.00742523
-0.0094457
-0.0113729
-0.0134336
-0.0156912
-0.0181328
-0.0207189
-0.0234091
-0.0261714
-0.028984
-0.0318327
-0.0347083
-0.0376052
-0.0405192
-0.0434475
-0.0463876
-0.0493376
-0.0522956
-0.0552601
-0.0582296
-0.061203
-0.0641791
-0.067157
-0.0701358
-0.0731151
-0.0760942
-0.0790727
-0.0820505
-0.0850274
-0.0880032
-0.090978
-0.0939518
-0.0969247
-0.0998968
-0.102868
-0.105839
-0.10881
0.218785
0.215256
0.211955
0.208993
0.206414
0.204203
0.202334
0.200781
0.19951
0.198483
0.197663
0.197014
0.196512
0.196127
0.195861
0.195699
0.195624
0.195618
0.195663
0.195731
0.195801
0.195863
0.195921
0.195977
0.196032
0.196079
0.196109
0.196104
0.196061
0.195953
0.195761
0.195469
0.195062
0.194533
0.193888
0.193136
0.192291
0.191356
0.190326
0.189199
0.187983
0.18669
0.185344
0.183963
0.182547
0.181036
0.179274
0.177139
0.174595
0.171731
0.168426
0.164569
0.160363
0.156012
0.151807
0.147937
0.144251
0.140649
0.137012
0.133218
0.129141
0.1248
0.120186
0.115291
0.11005
0.10438
0.0983313
0.0918955
0.0850625
0.0779187
0.0705816
0.063173
0.0557786
0.0484757
0.0413368
0.0344569
0.027945
0.0219585
0.0166338
0.0118984
0.00768824
0.0041557
-0.00431904
-0.00849574
-0.00984088
-0.0115835
-0.0135763
-0.015798
-0.0182152
-0.0207826
-0.0234574
-0.0262068
-0.0290084
-0.0318475
-0.034715
-0.0376048
-0.0405129
-0.0434363
-0.0463725
-0.0493194
-0.0522752
-0.0552382
-0.0582069
-0.06118
-0.0641562
-0.0671346
-0.0701143
-0.0730946
-0.076075
-0.079055
-0.0820343
-0.0850127
-0.0879902
-0.0909667
-0.0939422
-0.0969168
-0.0998907
-0.102864
-0.105837
-0.108809
0.218154
0.213401
0.208991
0.20509
0.201764
0.198984
0.196691
0.194835
0.193359
0.192198
0.1913
0.190613
0.190097
0.189719
0.18949
0.189388
0.189386
0.189462
0.189597
0.189751
0.189902
0.190041
0.190175
0.190314
0.190464
0.190623
0.190785
0.190927
0.191039
0.191093
0.191069
0.190944
0.1907
0.190329
0.189838
0.189246
0.188586
0.18786
0.187043
0.186121
0.185112
0.184033
0.182922
0.18183
0.180819
0.179906
0.178861
0.177455
0.175638
0.173593
0.171335
0.168646
0.165618
0.16247
0.159459
0.156758
0.154233
0.151765
0.149178
0.146321
0.143077
0.139477
0.135468
0.13097
0.125969
0.120327
0.114122
0.107352
0.0998735
0.0918848
0.0836107
0.0752071
0.0667368
0.0582799
0.0499137
0.0417941
0.0341029
0.02706
0.020811
0.0150894
0.00956714
0.00384532
-0.00342693
-0.00672889
-0.00911666
-0.0112699
-0.013451
-0.0157619
-0.0182191
-0.0208014
-0.0234789
-0.0262255
-0.0290219
-0.0318552
-0.0347169
-0.0376016
-0.0405051
-0.0434246
-0.0463576
-0.049302
-0.052256
-0.0552177
-0.0581857
-0.0611585
-0.0641349
-0.0671138
-0.0700943
-0.0730756
-0.0760571
-0.0790384
-0.0820191
-0.084999
-0.087978
-0.090956
-0.0939331
-0.0969093
-0.0998848
-0.10286
-0.105834
-0.108808
0.217216
0.210652
0.204614
0.199345
0.194933
0.191327
0.188426
0.186141
0.184376
0.183035
0.182034