0 	-11.4954
0.010101 	-7.27289
0.020202 	-7.27289
0.030303 	-7.27289
0.040404 	-7.27289
0.0505051 	-7.27289
0.0606061 	-7.27289
0.0707071 	-5.96931
0.0808081 	-5.80631
0.0909091 	-7.27289
