0 	0 	0 	0
0.010101 	9.79314e-29 	9.10219e-30 	1.08126e-28
0.020202 	-4.44265e-27 	6.09553e-29 	3.72272e-28
