/*--------------------------------*- C++ -*----------------------------------*\
  =========                 |
  \\      /  F ield         | OpenFOAM: The Open Source CFD Toolbox
   \\    /   O peration     | Website:  https://openfoam.org
    \\  /    A nd           | Version:  6
     \\/     M anipulation  |
\*---------------------------------------------------------------------------*/
FoamFile
{
    version     2.0;
    format      ascii;
    class       volVectorField;
    location    "90";
    object      U;
}
// * * * * * * * * * * * * * * * * * * * * * * * * * * * * * * * * * * * * * //

dimensions      [0 1 -1 0 0 0 0];

internalField   nonuniform List<vector> 
5964
(
(-0.00336157 0 0.000562948)
(-0.00650478 0 0.000481688)
(-0.00794735 0 0.000398581)
(-0.00839342 0 -0.00033595)
(-0.00842784 0 -0.00114916)
(-0.00723984 0 -0.00263265)
(2.54892e-05 0 -0.00649632)
(4.08491e-09 0 2.34412e-09)
(4.59229e-09 0 6.87808e-10)
(4.49234e-09 0 3.97523e-10)
(3.78732e-09 0 2.62613e-10)
(3.30342e-09 0 1.90025e-10)
(2.94307e-09 0 1.46927e-10)
(2.65845e-09 0 1.19229e-10)
(2.4239e-09 0 1.0016e-10)
(2.22467e-09 0 8.62417e-11)
(2.05176e-09 0 7.55884e-11)
(1.89932e-09 0 6.71236e-11)
(1.76335e-09 0 6.02005e-11)
(1.64099e-09 0 5.44095e-11)
(1.5301e-09 0 4.94787e-11)
(1.42904e-09 0 4.522e-11)
(1.33652e-09 0 4.14982e-11)
(1.25149e-09 0 3.82135e-11)
(1.1731e-09 0 3.52898e-11)
(1.10064e-09 0 3.26684e-11)
(1.03351e-09 0 3.03031e-11)
(9.71213e-10 0 2.81565e-11)
(9.13307e-10 0 2.61984e-11)
(8.59417e-10 0 2.44034e-11)
(8.09217e-10 0 2.27499e-11)
(7.62426e-10 0 2.1218e-11)
(7.18804e-10 0 1.97877e-11)
(6.78161e-10 0 1.84334e-11)
(6.4038e-10 0 1.71079e-11)
(6.05069e-10 0 1.61293e-11)
(5.71759e-10 0 1.52338e-11)
(5.40331e-10 0 1.43666e-11)
(5.10709e-10 0 1.35435e-11)
(4.82793e-10 0 1.27681e-11)
(4.5648e-10 0 1.20402e-11)
(4.31672e-10 0 1.13577e-11)
(4.08273e-10 0 1.07185e-11)
(3.86193e-10 0 1.01199e-11)
(3.65347e-10 0 9.55956e-12)
(3.45656e-10 0 9.03509e-12)
(3.27045e-10 0 8.54425e-12)
(3.09446e-10 0 8.08492e-12)
(2.92791e-10 0 7.65512e-12)
(2.77021e-10 0 7.25301e-12)
(2.62079e-10 0 6.87686e-12)
(2.47909e-10 0 6.52506e-12)
(2.34463e-10 0 6.19611e-12)
(2.21693e-10 0 5.88859e-12)
(2.09555e-10 0 5.60121e-12)
(1.98007e-10 0 5.33274e-12)
(1.8701e-10 0 5.08205e-12)
(1.76528e-10 0 4.84806e-12)
(1.66527e-10 0 4.6298e-12)
(1.56974e-10 0 4.42633e-12)
(1.47838e-10 0 4.2368e-12)
(1.39091e-10 0 4.0604e-12)
(1.30706e-10 0 3.89638e-12)
(1.22657e-10 0 3.74405e-12)
(1.14919e-10 0 3.60275e-12)
(1.07471e-10 0 3.47188e-12)
(1.00291e-10 0 3.35089e-12)
(9.33576e-11 0 3.23924e-12)
(8.66519e-11 0 3.13647e-12)
(8.01556e-11 0 3.04212e-12)
(7.3851e-11 0 2.95579e-12)
(6.77215e-11 0 2.87711e-12)
(6.17512e-11 0 2.80574e-12)
(5.59249e-11 0 2.74136e-12)
(5.0228e-11 0 2.6837e-12)
(4.46465e-11 0 2.6325e-12)
(3.91668e-11 0 2.58757e-12)
(3.37759e-11 0 2.54869e-12)
(2.84611e-11 0 2.51574e-12)
(2.32099e-11 0 2.48863e-12)
(1.80098e-11 0 2.46738e-12)
(1.2848e-11 0 2.45237e-12)
(7.70981e-12 0 2.44509e-12)
(2.57226e-12 0 2.45155e-12)
(-0.00302578 0 0.0049392)
(-0.00569624 0 0.00380311)
(-0.00627095 0 0.00288591)
(-0.00642815 0 -0.000640535)
(-0.00543363 0 -0.00084315)
(-0.00356617 0 -0.00253969)
(-8.97977e-05 0 -0.00344431)
(3.34878e-09 0 4.8907e-09)
(3.75274e-09 0 1.62484e-09)
(4.09305e-09 0 1.05511e-09)
(3.59286e-09 0 7.3256e-10)
(3.19549e-09 0 5.43835e-10)
(2.87752e-09 0 4.2702e-10)
(2.61562e-09 0 3.49936e-10)
(2.39413e-09 0 2.95835e-10)
(2.20288e-09 0 2.55775e-10)
(2.03513e-09 0 2.24789e-10)
(1.88622e-09 0 1.99985e-10)
(1.75277e-09 0 1.79592e-10)
(1.63227e-09 0 1.62471e-10)
(1.52281e-09 0 1.47854e-10)
(1.42287e-09 0 1.35204e-10)
(1.33123e-09 0 1.24133e-10)
(1.24693e-09 0 1.14351e-10)
(1.16914e-09 0 1.05637e-10)
(1.09718e-09 0 9.78177e-11)
(1.03048e-09 0 9.07585e-11)
(9.68542e-10 0 8.43495e-11)
(9.10945e-10 0 7.8501e-11)
(8.57322e-10 0 7.31385e-11)
(8.0735e-10 0 6.81981e-11)
(7.6075e-10 0 6.36227e-11)
(7.17276e-10 0 5.93566e-11)
(6.76713e-10 0 5.53365e-11)
(6.3885e-10 0 5.14706e-11)
(6.03415e-10 0 4.84665e-11)
(5.70106e-10 0 4.57316e-11)
(5.38747e-10 0 4.31164e-11)
(5.0921e-10 0 4.06438e-11)
(4.81383e-10 0 3.83177e-11)
(4.55158e-10 0 3.61349e-11)
(4.30433e-10 0 3.4089e-11)
(4.07113e-10 0 3.21726e-11)
(3.85106e-10 0 3.03781e-11)
(3.6433e-10 0 2.86982e-11)
(3.44704e-10 0 2.71257e-11)
(3.26155e-10 0 2.56539e-11)
(3.08612e-10 0 2.42765e-11)
(2.92011e-10 0 2.29876e-11)
(2.76292e-10 0 2.17816e-11)
(2.61396e-10 0 2.06536e-11)
(2.47271e-10 0 1.95985e-11)
(2.33866e-10 0 1.86119e-11)
(2.21135e-10 0 1.76896e-11)
(2.09034e-10 0 1.68277e-11)
(1.9752e-10 0 1.60226e-11)
(1.86556e-10 0 1.52707e-11)
(1.76104e-10 0 1.4569e-11)
(1.66132e-10 0 1.39145e-11)
(1.56605e-10 0 1.33043e-11)
(1.47495e-10 0 1.2736e-11)
(1.38772e-10 0 1.2207e-11)
(1.30409e-10 0 1.17151e-11)
(1.22381e-10 0 1.12583e-11)
(1.14664e-10 0 1.08345e-11)
(1.07235e-10 0 1.04421e-11)
(1.00073e-10 0 1.00792e-11)
(9.31566e-11 0 9.74431e-12)
(8.64671e-11 0 9.43604e-12)
(7.99862e-11 0 9.15304e-12)
(7.36963e-11 0 8.89408e-12)
(6.75808e-11 0 8.65805e-12)
(6.16239e-11 0 8.44392e-12)
(5.58105e-11 0 8.25078e-12)
(5.0126e-11 0 8.07779e-12)
(4.45564e-11 0 7.9242e-12)
(3.90883e-11 0 7.78936e-12)
(3.37086e-11 0 7.67272e-12)
(2.84048e-11 0 7.57382e-12)
(2.31645e-11 0 7.49234e-12)
(1.79758e-11 0 7.42821e-12)
(1.28271e-11 0 7.38181e-12)
(7.70904e-12 0 7.3547e-12)
(2.57831e-12 0 7.35179e-12)
(-0.00244731 0 0.00779728)
(-0.00382395 0 0.00666766)
(-0.00621232 0 0.00270799)
(-0.00604335 0 -0.000279501)
(-0.00517771 0 -0.00305271)
(-0.000272435 0 -0.00683841)
(-9.75226e-05 0 -0.00705462)
(3.33518e-09 0 5.82161e-09)
(3.20216e-09 0 2.19775e-09)
(3.65522e-09 0 1.49441e-09)
(3.30858e-09 0 1.08435e-09)
(3.01829e-09 0 8.34127e-10)
(2.76309e-09 0 6.71975e-10)
(2.5376e-09 0 5.60286e-10)
(2.33799e-09 0 4.79059e-10)
(2.16059e-09 0 4.17259e-10)
(2.00208e-09 0 3.68513e-10)
(1.85962e-09 0 3.2895e-10)
(1.73087e-09 0 2.96107e-10)
(1.61392e-09 0 2.68343e-10)
(1.50719e-09 0 2.44521e-10)
(1.40942e-09 0 2.23829e-10)
(1.31955e-09 0 2.05669e-10)
(1.23668e-09 0 1.89587e-10)
(1.16008e-09 0 1.75235e-10)
(1.08913e-09 0 1.62341e-10)
(1.02328e-09 0 1.50686e-10)
(9.62078e-10 0 1.40095e-10)
(9.05113e-10 0 1.30424e-10)
(8.52036e-10 0 1.21552e-10)
(8.02536e-10 0 1.13376e-10)
(7.5634e-10 0 1.05808e-10)
(7.13202e-10 0 9.87629e-11)
(6.72897e-10 0 9.2159e-11)
(6.35203e-10 0 8.59079e-11)
(5.99897e-10 0 8.0801e-11)
(5.66743e-10 0 7.61632e-11)
(5.35561e-10 0 7.17798e-11)
(5.0621e-10 0 6.7654e-11)
(4.78565e-10 0 6.378e-11)
(4.52516e-10 0 6.01476e-11)
(4.27957e-10 0 5.67441e-11)
(4.04794e-10 0 5.35566e-11)
(3.82936e-10 0 5.05721e-11)
(3.62298e-10 0 4.77781e-11)
(3.42802e-10 0 4.51626e-11)
(3.24374e-10 0 4.27146e-11)
(3.06946e-10 0 4.04235e-11)
(2.90452e-10 0 3.82796e-11)
(2.74833e-10 0 3.62736e-11)
(2.60032e-10 0 3.4397e-11)
(2.45995e-10 0 3.26419e-11)
(2.32674e-10 0 3.10007e-11)
(2.2002e-10 0 2.94665e-11)
(2.07992e-10 0 2.80327e-11)
(1.96547e-10 0 2.66934e-11)
(1.85647e-10 0 2.54427e-11)
(1.75257e-10 0 2.42755e-11)
(1.65341e-10 0 2.31868e-11)
(1.55869e-10 0 2.21718e-11)
(1.46809e-10 0 2.12264e-11)
(1.38134e-10 0 2.03465e-11)
(1.29816e-10 0 1.95283e-11)
(1.21831e-10 0 1.87684e-11)
(1.14154e-10 0 1.80635e-11)
(1.06763e-10 0 1.74107e-11)
(9.96368e-11 0 1.6807e-11)
(9.27546e-11 0 1.625e-11)
(8.60976e-11 0 1.57371e-11)
(7.96475e-11 0 1.52663e-11)
(7.33869e-11 0 1.48355e-11)
(6.72995e-11 0 1.44428e-11)
(6.13694e-11 0 1.40866e-11)
(5.55817e-11 0 1.37652e-11)
(4.99218e-11 0 1.34774e-11)
(4.43761e-11 0 1.32218e-11)
(3.89311e-11 0 1.29975e-11)
(3.35739e-11 0 1.28034e-11)
(2.8292e-11 0 1.26387e-11)
(2.30734e-11 0 1.25029e-11)
(1.79062e-11 0 1.23955e-11)
(1.27791e-11 0 1.23163e-11)
(7.68166e-12 0 1.22651e-11)
(2.56953e-12 0 1.224e-11)
(-0.0022036 0 0.0099594)
(-0.00527976 0 0.00697754)
(-0.00583695 0 0.00391179)
(-0.0065474 0 7.36624e-05)
(-0.00516849 0 -0.00608354)
(-0.00270622 0 -0.00802639)
(-5.35437e-05 0 -0.00950689)
(1.32566e-09 0 2.41454e-09)
(2.83592e-09 0 2.31723e-09)
(3.05052e-09 0 1.67584e-09)
(2.9755e-09 0 1.29567e-09)
(2.81083e-09 0 1.04704e-09)
(2.62297e-09 0 8.7259e-10)
(2.43714e-09 0 7.43869e-10)
(2.26256e-09 0 6.45212e-10)
(2.10186e-09 0 5.6728e-10)
(1.95503e-09 0 5.0418e-10)
(1.82106e-09 0 4.5203e-10)
(1.69867e-09 0 4.08183e-10)
(1.58662e-09 0 3.70776e-10)
(1.48375e-09 0 3.38464e-10)
(1.38908e-09 0 3.10256e-10)
(1.30172e-09 0 2.85401e-10)
(1.22094e-09 0 2.63322e-10)
(1.14609e-09 0 2.4357e-10)
(1.07662e-09 0 2.25788e-10)
(1.01203e-09 0 2.09689e-10)
(9.51909e-10 0 1.9504e-10)
(8.95883e-10 0 1.81649e-10)
(8.43623e-10 0 1.69356e-10)
(7.94835e-10 0 1.58023e-10)
(7.49257e-10 0 1.47534e-10)
(7.0665e-10 0 1.37782e-10)
(6.66793e-10 0 1.28671e-10)
(6.29472e-10 0 1.20112e-10)
(5.94492e-10 0 1.12905e-10)
(5.61649e-10 0 1.06352e-10)
(5.30769e-10 0 1.00198e-10)
(5.0171e-10 0 9.44244e-11)
(4.74346e-10 0 8.90118e-11)
(4.48562e-10 0 8.39408e-11)
(4.24254e-10 0 7.91916e-11)
(4.01326e-10 0 7.47448e-11)
(3.79689e-10 0 7.05815e-11)
(3.59258e-10 0 6.66842e-11)
(3.39957e-10 0 6.3036e-11)
(3.21712e-10 0 5.96213e-11)
(3.04454e-10 0 5.64255e-11)
(2.88121e-10 0 5.34349e-11)
(2.72652e-10 0 5.06367e-11)
(2.57991e-10 0 4.8019e-11)
(2.44087e-10 0 4.55706e-11)
(2.30889e-10 0 4.32812e-11)
(2.18353e-10 0 4.11411e-11)
(2.06434e-10 0 3.91411e-11)
(1.95092e-10 0 3.72728e-11)
(1.84289e-10 0 3.55282e-11)
(1.73989e-10 0 3.39e-11)
(1.6416e-10 0 3.23812e-11)
(1.54768e-10 0 3.09655e-11)
(1.45784e-10 0 2.96467e-11)
(1.3718e-10 0 2.84193e-11)
(1.2893e-10 0 2.7278e-11)
(1.21008e-10 0 2.62181e-11)
(1.13391e-10 0 2.52348e-11)
(1.06057e-10 0 2.43241e-11)
(9.89847e-11 0 2.34821e-11)
(9.21535e-11 0 2.27051e-11)
(8.5545e-11 0 2.19897e-11)
(7.91409e-11 0 2.1333e-11)
(7.29242e-11 0 2.07321e-11)
(6.68787e-11 0 2.01843e-11)
(6.09887e-11 0 1.96874e-11)
(5.52394e-11 0 1.92392e-11)
(4.96165e-11 0 1.88377e-11)
(4.41064e-11 0 1.84812e-11)
(3.86959e-11 0 1.81682e-11)
(3.33723e-11 0 1.78974e-11)
(2.81231e-11 0 1.76675e-11)
(2.29365e-11 0 1.74778e-11)
(1.78009e-11 0 1.73273e-11)
(1.27049e-11 0 1.72156e-11)
(7.63748e-12 0 1.71418e-11)
(2.55478e-12 0 1.71049e-11)
(-0.00219485 0 0.0119865)
(-0.00341436 0 0.0091444)
(-0.00484539 0 0.00480316)
(-0.00545734 0 0.000174317)
(-0.00376403 0 -0.00802876)
(-0.00340424 0 -0.00972573)
(-7.47963e-05 0 -0.0118184)
(1.15378e-09 0 2.50403e-09)
(2.45357e-09 0 1.9298e-09)
(2.70107e-09 0 1.62819e-09)
(2.72194e-09 0 1.39162e-09)
(2.62429e-09 0 1.19487e-09)
(2.48147e-09 0 1.03306e-09)
(2.32707e-09 0 9.01048e-10)
(2.17513e-09 0 7.9316e-10)
(2.03111e-09 0 7.04276e-10)
(1.8968e-09 0 6.30239e-10)
(1.7724e-09 0 5.67835e-10)
(1.65746e-09 0 5.14624e-10)
(1.55129e-09 0 4.68758e-10)
(1.45316e-09 0 4.28831e-10)
(1.36233e-09 0 3.93764e-10)
(1.27815e-09 0 3.62719e-10)
(1.20002e-09 0 3.35038e-10)
(1.1274e-09 0 3.10197e-10)
(1.05983e-09 0 2.87777e-10)
(9.96871e-10 0 2.67437e-10)
(9.38161e-10 0 2.48897e-10)
(8.83363e-10 0 2.31926e-10)
(8.32176e-10 0 2.1633e-10)
(7.84329e-10 0 2.01944e-10)
(7.39576e-10 0 1.88626e-10)
(6.97693e-10 0 1.76252e-10)
(6.58469e-10 0 1.64713e-10)
(6.21701e-10 0 1.53912e-10)
(5.87217e-10 0 1.44637e-10)
(5.54831e-10 0 1.36189e-10)
(5.24379e-10 0 1.2828e-10)
(4.95723e-10 0 1.20875e-10)
(4.68737e-10 0 1.13941e-10)
(4.43309e-10 0 1.07449e-10)
(4.19336e-10 0 1.01372e-10)
(3.96722e-10 0 9.5682e-11)
(3.75379e-10 0 9.03557e-11)
(3.55224e-10 0 8.53698e-11)
(3.3618e-10 0 8.07027e-11)
(3.18177e-10 0 7.63343e-11)
(3.01146e-10 0 7.22458e-11)
(2.85025e-10 0 6.84198e-11)
(2.69756e-10 0 6.48398e-11)
(2.55283e-10 0 6.14908e-11)
(2.41554e-10 0 5.83584e-11)
(2.28521e-10 0 5.54293e-11)
(2.16139e-10 0 5.26911e-11)
(2.04365e-10 0 5.01323e-11)
(1.9316e-10 0 4.77419e-11)
(1.82486e-10 0 4.55099e-11)
(1.72307e-10 0 4.34268e-11)
(1.6259e-10 0 4.14837e-11)
(1.53305e-10 0 3.96724e-11)
(1.44422e-10 0 3.79851e-11)
(1.35913e-10 0 3.64148e-11)
(1.27753e-10 0 3.49548e-11)
(1.19916e-10 0 3.35987e-11)
(1.12379e-10 0 3.23408e-11)
(1.0512e-10 0 3.11758e-11)
(9.81189e-11 0 3.00985e-11)
(9.13556e-11 0 2.91045e-11)
(8.48113e-11 0 2.81894e-11)
(7.84684e-11 0 2.73492e-11)
(7.231e-11 0 2.65805e-11)
(6.63201e-11 0 2.58797e-11)
(6.04833e-11 0 2.5244e-11)
(5.4785e-11 0 2.46706e-11)
(4.92112e-11 0 2.4157e-11)
(4.37485e-11 0 2.37009e-11)
(3.83837e-11 0 2.33005e-11)
(3.31045e-11 0 2.29539e-11)
(2.78987e-11 0 2.26598e-11)
(2.27544e-11 0 2.24167e-11)
(1.76604e-11 0 2.22238e-11)
(1.26052e-11 0 2.20801e-11)
(7.57793e-12 0 2.19848e-11)
(2.53494e-12 0 2.19372e-11)
(-0.00149758 0 0.0137512)
(-0.00316698 0 0.0101706)
(-0.00426942 0 0.00546864)
(-0.00432502 0 0.00169739)
(-0.00322904 0 -0.00878356)
(-0.00174766 0 -0.0117298)
(-9.95052e-05 0 -0.0135062)
(8.07495e-10 0 2.25539e-09)
(2.02278e-09 0 1.30474e-09)
(2.5509e-09 0 1.52419e-09)
(2.57297e-09 0 1.453e-09)
(2.47786e-09 0 1.31218e-09)
(2.35048e-09 0 1.16744e-09)
(2.21512e-09 0 1.03708e-09)
(2.08095e-09 0 9.24446e-10)
(1.95198e-09 0 8.28254e-10)
(1.82997e-09 0 7.46104e-10)
(1.7155e-09 0 6.75592e-10)
(1.60859e-09 0 6.14642e-10)
(1.50895e-09 0 5.61552e-10)
(1.41617e-09 0 5.14958e-10)
(1.32977e-09 0 4.73768e-10)
(1.24929e-09 0 4.3711e-10)
(1.17427e-09 0 4.04283e-10)
(1.1043e-09 0 3.7472e-10)
(1.039e-09 0 3.47959e-10)
(9.78002e-10 0 3.23621e-10)
(9.20997e-10 0 3.01393e-10)
(8.67689e-10 0 2.81012e-10)
(8.17811e-10 0 2.62258e-10)
(7.7112e-10 0 2.44942e-10)
(7.27389e-10 0 2.28905e-10)
(6.86411e-10 0 2.14005e-10)
(6.47991e-10 0 2.00122e-10)
(6.11943e-10 0 1.8715e-10)
(5.78107e-10 0 1.75855e-10)
(5.46315e-10 0 1.65551e-10)
(5.16412e-10 0 1.55919e-10)
(4.88267e-10 0 1.46911e-10)
(4.61759e-10 0 1.38482e-10)
(4.36778e-10 0 1.30594e-10)
(4.13222e-10 0 1.23211e-10)
(3.90999e-10 0 1.163e-10)
(3.70021e-10 0 1.09831e-10)
(3.50209e-10 0 1.03776e-10)
(3.31486e-10 0 9.81072e-11)
(3.13783e-10 0 9.28016e-11)
(2.97034e-10 0 8.78358e-11)
(2.81178e-10 0 8.31887e-11)
(2.66156e-10 0 7.88403e-11)
(2.51915e-10 0 7.47724e-11)
(2.38404e-10 0 7.09675e-11)
(2.25576e-10 0 6.74096e-11)
(2.13387e-10 0 6.40835e-11)
(2.01794e-10 0 6.09753e-11)
(1.90758e-10 0 5.80717e-11)
(1.80244e-10 0 5.53605e-11)
(1.70215e-10 0 5.28302e-11)
(1.6064e-10 0 5.04699e-11)
(1.51488e-10 0 4.82698e-11)
(1.4273e-10 0 4.62205e-11)
(1.34339e-10 0 4.43131e-11)
(1.2629e-10 0 4.25397e-11)
(1.18557e-10 0 4.08926e-11)
(1.1112e-10 0 3.93648e-11)
(1.03955e-10 0 3.79498e-11)
(9.70428e-11 0 3.66414e-11)
(9.03637e-11 0 3.54341e-11)
(8.38994e-11 0 3.43226e-11)
(7.76326e-11 0 3.33023e-11)
(7.15466e-11 0 3.23686e-11)
(6.56258e-11 0 3.15176e-11)
(5.98552e-11 0 3.07455e-11)
(5.42203e-11 0 3.00491e-11)
(4.87075e-11 0 2.94253e-11)
(4.33035e-11 0 2.88714e-11)
(3.79956e-11 0 2.8385e-11)
(3.27716e-11 0 2.7964e-11)
(2.76195e-11 0 2.76066e-11)
(2.25278e-11 0 2.73113e-11)
(1.74853e-11 0 2.70767e-11)
(1.24808e-11 0 2.69017e-11)
(7.50353e-12 0 2.67856e-11)
(2.51016e-12 0 2.67275e-11)
(-0.00103267 0 0.0148349)
(-0.00263259 0 0.0112251)
(-0.00216927 0 0.00660778)
(-0.00338633 0 0.00157387)
(-0.00131102 0 -0.00908562)
(-0.00193982 0 -0.0127269)
(-8.28449e-05 0 -0.014842)
(8.03584e-09 0 2.30569e-07)
(1.56836e-09 0 1.61719e-09)
(2.84497e-09 0 1.67653e-09)
(2.52717e-09 0 1.57593e-09)
(2.36006e-09 0 1.43318e-09)
(2.22678e-09 0 1.28931e-09)
(2.10235e-09 0 1.15763e-09)
(1.98237e-09 0 1.04134e-09)
(1.86688e-09 0 9.39938e-10)
(1.75661e-09 0 8.51782e-10)
(1.65204e-09 0 7.74984e-10)
(1.55339e-09 0 7.07788e-10)
(1.46064e-09 0 6.48675e-10)
(1.3736e-09 0 5.96371e-10)
(1.29204e-09 0 5.49821e-10)
(1.21564e-09 0 5.08163e-10)
(1.14411e-09 0 4.70685e-10)
(1.07713e-09 0 4.36803e-10)
(1.0144e-09 0 4.06032e-10)
(9.55648e-10 0 3.77971e-10)
(9.00603e-10 0 3.52283e-10)
(8.49019e-10 0 3.28685e-10)
(8.00665e-10 0 3.06936e-10)
(7.55325e-10 0 2.86833e-10)
(7.12798e-10 0 2.68199e-10)
(6.72895e-10 0 2.50881e-10)
(6.35439e-10 0 2.34746e-10)
(6.00258e-10 0 2.19681e-10)
(5.67211e-10 0 2.0643e-10)
(5.36141e-10 0 1.94321e-10)
(5.06904e-10 0 1.8301e-10)
(4.79375e-10 0 1.72437e-10)
(4.5344e-10 0 1.62547e-10)
(4.28993e-10 0 1.53294e-10)
(4.05936e-10 0 1.44635e-10)
(3.84179e-10 0 1.3653e-10)
(3.63637e-10 0 1.28944e-10)
(3.44233e-10 0 1.21842e-10)
(3.25892e-10 0 1.15194e-10)
(3.08547e-10 0 1.08971e-10)
(2.92134e-10 0 1.03146e-10)
(2.76592e-10 0 9.76955e-11)
(2.61866e-10 0 9.2595e-11)
(2.47902e-10 0 8.78232e-11)
(2.34651e-10 0 8.33599e-11)
(2.22067e-10 0 7.91863e-11)
(2.10107e-10 0 7.52847e-11)
(1.98729e-10 0 7.16385e-11)
(1.87896e-10 0 6.82325e-11)
(1.77572e-10 0 6.50521e-11)
(1.67722e-10 0 6.20839e-11)
(1.58315e-10 0 5.93153e-11)
(1.49321e-10 0 5.67345e-11)
(1.40713e-10 0 5.43306e-11)
(1.32463e-10 0 5.20934e-11)
(1.24546e-10 0 5.00132e-11)
(1.16939e-10 0 4.80813e-11)
(1.0962e-10 0 4.62893e-11)
(1.02567e-10 0 4.46296e-11)
(9.57605e-11 0 4.3095e-11)
(8.91817e-11 0 4.1679e-11)
(8.28128e-11 0 4.03755e-11)
(7.66365e-11 0 3.91788e-11)
(7.06369e-11 0 3.80837e-11)
(6.47985e-11 0 3.70856e-11)
(5.91066e-11 0 3.61802e-11)
(5.35473e-11 0 3.53634e-11)
(4.81071e-11 0 3.46318e-11)
(4.27732e-11 0 3.39821e-11)
(3.75331e-11 0 3.34117e-11)
(3.23748e-11 0 3.29179e-11)
(2.72867e-11 0 3.24986e-11)
(2.22576e-11 0 3.21521e-11)
(1.72764e-11 0 3.18767e-11)
(1.23323e-11 0 3.16713e-11)
(7.41465e-12 0 3.15348e-11)
(2.48055e-12 0 3.14667e-11)
(-0.00280537 0 0.0154893)
(-0.00136715 0 0.0120247)
(-0.00157254 0 0.00699599)
(-0.00192184 0 0.00312529)
(-0.00103401 0 -0.00834561)
(-0.000794996 0 -0.0133959)
(-7.66017e-05 0 -0.0157343)
(5.45392e-09 0 1.86524e-07)
(1.32538e-09 0 2.3626e-09)
(2.51644e-09 0 1.96992e-09)
(2.34874e-09 0 1.73618e-09)
(2.21274e-09 0 1.55536e-09)
(2.09552e-09 0 1.40059e-09)
(1.98587e-09 0 1.26476e-09)
(1.87998e-09 0 1.1452e-09)
(1.77733e-09 0 1.04004e-09)
(1.67832e-09 0 9.47526e-10)
(1.58345e-09 0 8.65981e-10)
(1.49306e-09 0 7.93874e-10)
(1.40733e-09 0 7.29854e-10)
(1.32626e-09 0 6.72761e-10)
(1.24978e-09 0 6.21609e-10)
(1.17775e-09 0 5.75572e-10)
(1.10997e-09 0 5.33955e-10)
(1.04623e-09 0 4.96175e-10)
(9.86333e-10 0 4.61745e-10)
(9.30056e-10 0 4.30254e-10)
(8.77189e-10 0 4.01353e-10)
(8.27532e-10 0 3.74748e-10)
(7.80889e-10 0 3.50185e-10)
(7.37076e-10 0 3.27449e-10)
(6.95916e-10 0 3.06352e-10)
(6.57242e-10 0 2.86732e-10)
(6.20895e-10 0 2.68448e-10)
(5.86719e-10 0 2.51376e-10)
(5.54588e-10 0 2.3624e-10)
(5.24359e-10 0 2.22389e-10)
(4.95896e-10 0 2.09452e-10)
(4.69083e-10 0 1.97361e-10)
(4.43813e-10 0 1.86053e-10)
(4.19985e-10 0 1.75473e-10)
(3.97506e-10 0 1.65573e-10)
(3.76288e-10 0 1.56306e-10)
(3.56251e-10 0 1.47631e-10)
(3.37318e-10 0 1.3951e-10)
(3.1942e-10 0 1.31907e-10)
(3.02489e-10 0 1.24791e-10)
(2.86464e-10 0 1.18129e-10)
(2.71286e-10 0 1.11895e-10)
(2.56901e-10 0 1.06061e-10)
(2.43257e-10 0 1.00603e-10)
(2.30307e-10 0 9.54982e-11)
(2.18006e-10 0 9.07243e-11)
(2.06311e-10 0 8.62614e-11)
(1.95182e-10 0 8.20908e-11)
(1.84584e-10 0 7.81949e-11)
(1.74479e-10 0 7.45571e-11)
(1.64837e-10 0 7.1162e-11)
(1.55625e-10 0 6.79953e-11)
(1.46815e-10 0 6.50435e-11)
(1.38379e-10 0 6.2294e-11)
(1.30291e-10 0 5.97352e-11)
(1.22528e-10 0 5.73561e-11)
(1.15066e-10 0 5.51466e-11)
(1.07884e-10 0 5.30971e-11)
(1.0096e-10 0 5.1199e-11)
(9.42767e-11 0 4.9444e-11)
(8.78141e-11 0 4.78247e-11)
(8.15554e-11 0 4.6334e-11)
(7.54841e-11 0 4.49655e-11)
(6.95843e-11 0 4.37132e-11)
(6.38412e-11 0 4.25719e-11)
(5.82405e-11 0 4.15364e-11)
(5.27687e-11 0 4.06024e-11)
(4.74125e-11 0 3.97658e-11)
(4.21596e-11 0 3.90229e-11)
(3.69979e-11 0 3.83705e-11)
(3.19156e-11 0 3.78058e-11)
(2.69016e-11 0 3.73263e-11)
(2.19448e-11 0 3.693e-11)
(1.70345e-11 0 3.66149e-11)
(1.21603e-11 0 3.63799e-11)
(7.31169e-12 0 3.62237e-11)
(2.44625e-12 0 3.61456e-11)
(0.000690088 0 0.0165448)
(-0.00142612 0 0.0126152)
(-0.000333061 0 0.00736397)
(-0.00137779 0 0.00314651)
(-0.000739674 0 -0.0081144)
(-0.00050818 0 -0.0137495)
(-5.20099e-05 0 -0.0163295)
(5.02382e-09 0 2.47526e-07)
(1.18593e-09 0 2.60757e-09)
(2.26157e-09 0 2.12365e-09)
(2.14234e-09 0 1.85007e-09)
(2.04908e-09 0 1.6548e-09)
(1.9578e-09 0 1.49536e-09)
(1.86623e-09 0 1.35769e-09)
(1.77489e-09 0 1.23648e-09)
(1.68468e-09 0 1.12909e-09)
(1.59647e-09 0 1.03368e-09)
(1.51097e-09 0 9.4873e-10)
(1.42869e-09 0 8.72894e-10)
(1.34995e-09 0 8.04985e-10)
(1.27491e-09 0 7.43965e-10)
(1.20365e-09 0 6.88936e-10)
(1.13613e-09 0 6.39126e-10)
(1.07228e-09 0 5.93877e-10)
(1.01199e-09 0 5.52627e-10)
(9.55104e-10 0 5.14897e-10)
(9.01486e-10 0 4.80278e-10)
(8.50975e-10 0 4.48423e-10)
(8.03414e-10 0 4.19031e-10)
(7.58645e-10 0 3.91844e-10)
(7.16512e-10 0 3.66639e-10)
(6.76866e-10 0 3.43223e-10)
(6.39559e-10 0 3.21425e-10)
(6.04452e-10 0 3.011e-10)
(5.71406e-10 0 2.82116e-10)
(5.40307e-10 0 2.65174e-10)
(5.11027e-10 0 2.49651e-10)
(4.8344e-10 0 2.35151e-10)
(4.57438e-10 0 2.21596e-10)
(4.3292e-10 0 2.08918e-10)
(4.09793e-10 0 1.97056e-10)
(3.87966e-10 0 1.85954e-10)
(3.67358e-10 0 1.75561e-10)
(3.47891e-10 0 1.65832e-10)
(3.29492e-10 0 1.56723e-10)
(3.12093e-10 0 1.48195e-10)
(2.95631e-10 0 1.40211e-10)
(2.80044e-10 0 1.32738e-10)
(2.65278e-10 0 1.25744e-10)
(2.5128e-10 0 1.19198e-10)
(2.37999e-10 0 1.13074e-10)
(2.25389e-10 0 1.07346e-10)
(2.13408e-10 0 1.01989e-10)
(2.02013e-10 0 9.69815e-11)
(1.91167e-10 0 9.23019e-11)
(1.80833e-10 0 8.79304e-11)
(1.70978e-10 0 8.38486e-11)
(1.6157e-10 0 8.00392e-11)
(1.52579e-10 0 7.64861e-11)
(1.43976e-10 0 7.31742e-11)
(1.35736e-10 0 7.00894e-11)
(1.27833e-10 0 6.72186e-11)
(1.20244e-10 0 6.45495e-11)
(1.12946e-10 0 6.20706e-11)
(1.05919e-10 0 5.97715e-11)
(9.91421e-11 0 5.76421e-11)
(9.2597e-11 0 5.56733e-11)
(8.6266e-11 0 5.38568e-11)
(8.01322e-11 0 5.21845e-11)
(7.41796e-11 0 5.06494e-11)
(6.83929e-11 0 4.92448e-11)
(6.27577e-11 0 4.79645e-11)
(5.72603e-11 0 4.6803e-11)
(5.18873e-11 0 4.57554e-11)
(4.66263e-11 0 4.48169e-11)
(4.14651e-11 0 4.39836e-11)
(3.63921e-11 0 4.32519e-11)
(3.13958e-11 0 4.26184e-11)
(2.64656e-11 0 4.20805e-11)
(2.15906e-11 0 4.16358e-11)
(1.67607e-11 0 4.12824e-11)
(1.19655e-11 0 4.10186e-11)
(7.19507e-12 0 4.08433e-11)
(2.4074e-12 0 4.07558e-11)
(-0.00192939 0 0.016702)
(-0.0011623 0 0.0129432)
(-0.000185177 0 0.00756219)
(-0.000440787 0 0.00330059)
(-0.000530914 0 -0.00793546)
(2.34965e-05 0 -0.0139804)
(-2.5705e-05 0 -0.0167915)
(2.73014e-10 0 1.76711e-09)
(1.1186e-09 0 2.31042e-09)
(1.81048e-09 0 2.09251e-09)
(1.91309e-09 0 1.89533e-09)
(1.88386e-09 0 1.72289e-09)
(1.82047e-09 0 1.57111e-09)
(1.74652e-09 0 1.43623e-09)
(1.66892e-09 0 1.31569e-09)
(1.59037e-09 0 1.20767e-09)
(1.51232e-09 0 1.1107e-09)
(1.43572e-09 0 1.02352e-09)
(1.36125e-09 0 9.44991e-10)
(1.28933e-09 0 8.74101e-10)
(1.22028e-09 0 8.09941e-10)
(1.15424e-09 0 7.51707e-10)
(1.09131e-09 0 6.98701e-10)
(1.0315e-09 0 6.5031e-10)
(9.74757e-10 0 6.06006e-10)
(9.21024e-10 0 5.65332e-10)
(8.70204e-10 0 5.27893e-10)
(8.2219e-10 0 4.93345e-10)
(7.76864e-10 0 4.61392e-10)
(7.34104e-10 0 4.31777e-10)
(6.93783e-10 0 4.04274e-10)
(6.55776e-10 0 3.78686e-10)
(6.19959e-10 0 3.54842e-10)
(5.86208e-10 0 3.32589e-10)
(5.54402e-10 0 3.11793e-10)
(5.24443e-10 0 2.93132e-10)
(4.96212e-10 0 2.76015e-10)
(4.69594e-10 0 2.60018e-10)
(4.4449e-10 0 2.45061e-10)
(4.20807e-10 0 2.31067e-10)
(3.98456e-10 0 2.17971e-10)
(3.77355e-10 0 2.05712e-10)
(3.57424e-10 0 1.94235e-10)
(3.3859e-10 0 1.83489e-10)
(3.20784e-10 0 1.73427e-10)
(3.0394e-10 0 1.64005e-10)
(2.87998e-10 0 1.55185e-10)
(2.729e-10 0 1.46927e-10)
(2.58592e-10 0 1.39198e-10)
(2.45023e-10 0 1.31965e-10)
(2.32146e-10 0 1.25198e-10)
(2.19915e-10 0 1.18867e-10)
(2.08289e-10 0 1.12948e-10)
(1.97229e-10 0 1.07414e-10)
(1.86697e-10 0 1.02242e-10)
(1.76659e-10 0 9.74112e-11)
(1.67081e-10 0 9.29004e-11)
(1.57934e-10 0 8.86909e-11)
(1.49189e-10 0 8.47646e-11)
(1.40818e-10 0 8.11049e-11)
(1.32795e-10 0 7.76963e-11)
(1.25098e-10 0 7.45242e-11)
(1.17702e-10 0 7.1575e-11)
(1.10587e-10 0 6.88362e-11)
(1.03732e-10 0 6.6296e-11)
(9.71185e-11 0 6.39434e-11)
(9.0728e-11 0 6.17683e-11)
(8.45434e-11 0 5.97614e-11)
(7.85485e-11 0 5.7914e-11)
(7.2728e-11 0 5.62181e-11)
(6.70672e-11 0 5.46664e-11)
(6.15521e-11 0 5.32521e-11)
(5.61695e-11 0 5.19691e-11)
(5.09067e-11 0 5.08118e-11)
(4.57515e-11 0 4.97751e-11)
(4.06924e-11 0 4.88546e-11)
(3.5718e-11 0 4.80463e-11)
(3.08175e-11 0 4.73465e-11)
(2.59804e-11 0 4.67523e-11)
(2.11965e-11 0 4.6261e-11)
(1.64559e-11 0 4.58705e-11)
(1.17487e-11 0 4.55791e-11)
(7.06527e-12 0 4.53854e-11)
(2.36416e-12 0 4.52887e-11)
(-0.00124748 0 0.0170089)
(-0.000212971 0 0.0133911)
(-0.00025579 0 0.00751268)
(-0.000486089 0 0.00296104)
(-0.000433784 0 -0.00809703)
(-0.0004968 0 -0.0141955)
(-1.63057e-05 0 -0.0171646)
(7.9997e-09 0 1.41293e-06)
(9.6702e-10 0 2.03296e-09)
(1.87688e-09 0 2.0435e-09)
(1.79975e-09 0 1.91902e-09)
(1.74877e-09 0 1.77294e-09)
(1.69253e-09 0 1.63209e-09)
(1.63013e-09 0 1.50224e-09)
(1.56388e-09 0 1.38396e-09)
(1.49568e-09 0 1.27658e-09)
(1.42694e-09 0 1.17916e-09)
(1.35866e-09 0 1.09074e-09)
(1.29158e-09 0 1.01042e-09)
(1.22623e-09 0 9.37342e-10)
(1.163e-09 0 8.70741e-10)
(1.10213e-09 0 8.09917e-10)
(1.04377e-09 0 7.54245e-10)
(9.88023e-10 0 7.03174e-10)
(9.34903e-10 0 6.56217e-10)
(8.84402e-10 0 6.12944e-10)
(8.36477e-10 0 5.72982e-10)
(7.91064e-10 0 5.36002e-10)
(7.48081e-10 0 5.01715e-10)
(7.07439e-10 0 4.69868e-10)
(6.69039e-10 0 4.4024e-10)
(6.3278e-10 0 4.12634e-10)
(5.98558e-10 0 3.86876e-10)
(5.66267e-10 0 3.62814e-10)
(5.35801e-10 0 3.40311e-10)
(5.07075e-10 0 3.20021e-10)
(4.79984e-10 0 3.01391e-10)
(4.54421e-10 0 2.83973e-10)
(4.30296e-10 0 2.67677e-10)
(4.07524e-10 0 2.52428e-10)
(3.86023e-10 0 2.38152e-10)
(3.65714e-10 0 2.24785e-10)
(3.46524e-10 0 2.12268e-10)
(3.28383e-10 0 2.00546e-10)
(3.11226e-10 0 1.89568e-10)
(2.94991e-10 0 1.79289e-10)
(2.7962e-10 0 1.69664e-10)
(2.65057e-10 0 1.60653e-10)
(2.51251e-10 0 1.52218e-10)
(2.38154e-10 0 1.44324e-10)
(2.2572e-10 0 1.36938e-10)
(2.13905e-10 0 1.30029e-10)
(2.0267e-10 0 1.23568e-10)
(1.91977e-10 0 1.17527e-10)
(1.81789e-10 0 1.11883e-10)
(1.72075e-10 0 1.0661e-10)
(1.62803e-10 0 1.01687e-10)
(1.53943e-10 0 9.70933e-11)
(1.45467e-10 0 9.28084e-11)
(1.3735e-10 0 8.88145e-11)
(1.29567e-10 0 8.50948e-11)
(1.22095e-10 0 8.16333e-11)
(1.14912e-10 0 7.84151e-11)
(1.07997e-10 0 7.54266e-11)
(1.01332e-10 0 7.26549e-11)
(9.48974e-11 0 7.0088e-11)
(8.86765e-11 0 6.77148e-11)
(8.26527e-11 0 6.55252e-11)
(7.68104e-11 0 6.35097e-11)
(7.11349e-11 0 6.16595e-11)
(6.56122e-11 0 5.99666e-11)
(6.0229e-11 0 5.84237e-11)
(5.49724e-11 0 5.7024e-11)
(4.98305e-11 0 5.57615e-11)
(4.47915e-11 0 5.46306e-11)
(3.98443e-11 0 5.36264e-11)
(3.49782e-11 0 5.27446e-11)
(3.01828e-11 0 5.19812e-11)
(2.54479e-11 0 5.1333e-11)
(2.0764e-11 0 5.0797e-11)
(1.61214e-11 0 5.0371e-11)
(1.15107e-11 0 5.00531e-11)
(6.92279e-12 0 4.98418e-11)
(2.31669e-12 0 4.97362e-11)
(-0.000200687 0 0.0175635)
(-0.000533692 0 0.0134891)
(-0.000245412 0 0.00746892)
(-0.000134469 0 0.00274288)
(-0.000317574 0 -0.00796639)
(-1.0414e-05 0 -0.0142924)
(-1.60071e-05 0 -0.0174364)
(6.55746e-09 0 9.28402e-07)
(8.67018e-10 0 2.30465e-09)
(1.70767e-09 0 2.11356e-09)
(1.66316e-09 0 1.96182e-09)
(1.6184e-09 0 1.81848e-09)
(1.5701e-09 0 1.68348e-09)
(1.51723e-09 0 1.55815e-09)
(1.46062e-09 0 1.44271e-09)
(1.40154e-09 0 1.33679e-09)
(1.34121e-09 0 1.23975e-09)
(1.28058e-09 0 1.15089e-09)
(1.22041e-09 0 1.06951e-09)
(1.1613e-09 0 9.94928e-10)
(1.10366e-09 0 9.26497e-10)
(1.04781e-09 0 8.63626e-10)
(9.93957e-10 0 8.05773e-10)
(9.42249e-10 0 7.52447e-10)
(8.92764e-10 0 7.03209e-10)
(8.45535e-10 0 6.57665e-10)
(8.00563e-10 0 6.15468e-10)
(7.57821e-10 0 5.76307e-10)
(7.17262e-10 0 5.39907e-10)
(6.78824e-10 0 5.06025e-10)
(6.42435e-10 0 4.74444e-10)
(6.08014e-10 0 4.44972e-10)
(5.75476e-10 0 4.17437e-10)
(5.44733e-10 0 3.91687e-10)
(5.15694e-10 0 3.67583e-10)
(4.88286e-10 0 3.45759e-10)
(4.62417e-10 0 3.25703e-10)
(4.37987e-10 0 3.06939e-10)
(4.14917e-10 0 2.89376e-10)
(3.93126e-10 0 2.72932e-10)
(3.72541e-10 0 2.57533e-10)
(3.53089e-10 0 2.43111e-10)
(3.347e-10 0 2.29602e-10)
(3.17309e-10 0 2.16949e-10)
(3.00855e-10 0 2.05098e-10)
(2.8528e-10 0 1.93999e-10)
(2.70527e-10 0 1.83605e-10)
(2.56544e-10 0 1.73873e-10)
(2.43284e-10 0 1.64763e-10)
(2.30698e-10 0 1.56237e-10)
(2.18744e-10 0 1.48259e-10)
(2.07381e-10 0 1.40797e-10)
(1.9657e-10 0 1.33818e-10)
(1.86275e-10 0 1.27294e-10)
(1.76462e-10 0 1.21197e-10)
(1.671e-10 0 1.15502e-10)
(1.58159e-10 0 1.10185e-10)
(1.4961e-10 0 1.05223e-10)
(1.41428e-10 0 1.00596e-10)
(1.33586e-10 0 9.62827e-11)
(1.26063e-10 0 9.22658e-11)
(1.18836e-10 0 8.85278e-11)
(1.11883e-10 0 8.50528e-11)
(1.05187e-10 0 8.18258e-11)
(9.87271e-11 0 7.8833e-11)
(9.24872e-11 0 7.60615e-11)
(8.64504e-11 0 7.34993e-11)
(8.06011e-11 0 7.11353e-11)
(7.49244e-11 0 6.89594e-11)
(6.94064e-11 0 6.69619e-11)
(6.40336e-11 0 6.51344e-11)
(5.87934e-11 0 6.34687e-11)
(5.36737e-11 0 6.19577e-11)
(4.86629e-11 0 6.05948e-11)
(4.37499e-11 0 5.93741e-11)
(3.89242e-11 0 5.82901e-11)
(3.41756e-11 0 5.73381e-11)
(2.94941e-11 0 5.65141e-11)
(2.48702e-11 0 5.58143e-11)
(2.02947e-11 0 5.52358e-11)
(1.57584e-11 0 5.47759e-11)
(1.12525e-11 0 5.44327e-11)
(6.76819e-12 0 5.42045e-11)
(2.26518e-12 0 5.40906e-11)
(-0.00102947 0 0.0175479)
(-0.000763068 0 0.013351)
(-0.000458336 0 0.0071904)
(-0.000239209 0 0.00231398)
(-0.000194801 0 -0.00795493)
(-8.50506e-05 0 -0.0144055)
(-1.21702e-05 0 -0.0176328)
(6.23383e-09 0 9.49152e-07)
(7.88793e-10 0 2.29791e-09)
(1.55886e-09 0 2.14903e-09)
(1.5265e-09 0 1.99731e-09)
(1.49119e-09 0 1.85672e-09)
(1.45179e-09 0 1.72641e-09)
(1.40769e-09 0 1.60539e-09)
(1.35958e-09 0 1.49314e-09)
(1.30858e-09 0 1.38923e-09)
(1.25578e-09 0 1.29319e-09)
(1.20211e-09 0 1.20451e-09)
(1.14835e-09 0 1.12267e-09)
(1.09508e-09 0 1.04714e-09)
(1.04276e-09 0 9.77396e-10)
(9.91736e-10 0 9.12952e-10)
(9.42269e-10 0 8.53345e-10)
(8.94536e-10 0 7.98148e-10)
(8.48656e-10 0 7.46972e-10)
(8.04702e-10 0 6.99463e-10)
(7.62709e-10 0 6.55301e-10)
(7.22681e-10 0 6.142e-10)
(6.84601e-10 0 5.75902e-10)
(6.48431e-10 0 5.40174e-10)
(6.14121e-10 0 5.0681e-10)
(5.81611e-10 0 4.75624e-10)
(5.50834e-10 0 4.46447e-10)
(5.21716e-10 0 4.19129e-10)
(4.9418e-10 0 3.93534e-10)
(4.68165e-10 0 3.70273e-10)
(4.43589e-10 0 3.48879e-10)
(4.20364e-10 0 3.28849e-10)
(3.98415e-10 0 3.1009e-10)
(3.77672e-10 0 2.92519e-10)
(3.58065e-10 0 2.76058e-10)
(3.39528e-10 0 2.60636e-10)
(3.21997e-10 0 2.46187e-10)
(3.0541e-10 0 2.3265e-10)
(2.8971e-10 0 2.19968e-10)
(2.74841e-10 0 2.0809e-10)
(2.60752e-10 0 1.96965e-10)
(2.47393e-10 0 1.86549e-10)