0 	-3.62956e-21 	0 	-3.99252e-20
0.010101 	-4.91058e-21 	5.08103e-22 	-2.96479e-20
0.020202 	-4.20083e-20 	6.82694e-23 	-7.0395e-20
0.030303 	3.18348e-20 	1.70324e-25 	-5.32592e-20
0.040404 	2.91797e-20 	-3.39644e-23 	-8.09623e-20
0.0505051 	-6.73255e-20 	-1.01893e-22 	-2.53415e-20
