0 	0 	0 	0
0.010101 	-2.53512e-22 	-1.95771e-27 	-1.07819e-23
0.020202 	-1.88541e-24 	-3.61436e-28 	-1.01803e-25
