0 	-9.84631e-12 	1.48202e-27 	5.41183e-12
0.010101 	4.36462e-10 	5.15219e-27 	-2.69055e-11
