/*--------------------------------*- C++ -*----------------------------------*\
  =========                 |
  \\      /  F ield         | OpenFOAM: The Open Source CFD Toolbox
   \\    /   O peration     | Website:  https://openfoam.org
    \\  /    A nd           | Version:  6
     \\/     M anipulation  |
\*---------------------------------------------------------------------------*/
FoamFile
{
    version     2.0;
    format      ascii;
    class       volVectorField;
    location    "1350";
    object      U;
}
// * * * * * * * * * * * * * * * * * * * * * * * * * * * * * * * * * * * * * //

dimensions      [0 1 -1 0 0 0 0];

internalField   nonuniform List<vector> 
4800
(
(-1.90336e-05 0 3.45502e-05)
(-6.89585e-05 0 -3.03201e-06)
(-0.000137305 0 -6.81226e-06)
(-0.000190826 0 1.57883e-05)
(-0.000215697 0 -2.48054e-05)
(-0.000243782 0 -4.22191e-06)
(-0.000292721 0 -0.000108215)
(-0.000356274 0 2.42062e-05)
(-0.00038735 0 -3.95152e-05)
(-0.000408609 0 -1.58845e-05)
(-0.000424994 0 -1.11026e-05)
(-0.000435604 0 -1.75408e-05)
(-0.000437902 0 -2.2535e-05)
(-0.000431068 0 -2.04595e-05)
(-0.000428767 0 -4.02017e-06)
(-0.000427959 0 1.74117e-06)
(-0.000427439 0 -4.31386e-06)
(-0.00042623 0 -1.29343e-05)
(-0.000402144 0 -1.95445e-05)
(-0.000362389 0 -2.46531e-05)
(-0.000323721 0 -9.63363e-06)
(-0.00029112 0 1.84338e-06)
(-0.000278366 0 -2.18906e-06)
(-0.000280291 0 5.08987e-06)
(-0.000300793 0 5.00067e-06)
(-0.000313344 0 1.56852e-06)
(-0.000305413 0 -2.10986e-05)
(-0.000293886 0 -2.21417e-05)
(-0.000304517 0 -1.38794e-05)
(-0.000313406 0 -1.71298e-05)
(-0.00028626 0 -4.72222e-05)
(-0.000268171 0 -2.51866e-05)
(-0.000270955 0 -1.78418e-05)
(-0.000319236 0 7.38151e-06)
(-0.000372459 0 -3.36605e-05)
(-0.000480166 0 -5.136e-05)
(-0.000680962 0 2.93828e-05)
(-0.000790126 0 1.03594e-05)
(-0.000847053 0 -3.4685e-06)
(-0.000881602 0 -5.22995e-05)
(-0.000903618 0 -4.93867e-05)
(-0.000868932 0 -7.92765e-05)
(-0.000707378 0 -0.000117245)
(-0.000580895 0 -0.000119123)
(-0.000499727 0 -5.87862e-05)
(-0.000380766 0 -6.25002e-05)
(-0.000195975 0 -0.00012217)
(-7.11306e-05 0 -7.498e-05)
(1.46327e-06 0 -3.16219e-05)
(4.74673e-05 0 -4.45965e-05)
(4.21332e-05 0 -4.23806e-05)
(3.00369e-05 0 -3.28341e-05)
(-1.03504e-05 0 -2.71749e-05)
(-5.19834e-05 0 -8.66961e-06)
(-8.57367e-05 0 -4.77361e-06)
(-0.000120104 0 -1.42513e-05)
(-0.000152722 0 -5.33116e-05)
(-0.000215845 0 1.37785e-05)
(-0.000254326 0 3.66417e-05)
(-0.000280287 0 7.72703e-06)
(-0.000309119 0 1.60289e-05)
(-0.000373749 0 7.3462e-06)
(-0.000426846 0 -9.04577e-07)
(-0.000446209 0 -9.03512e-06)
(-0.000446807 0 -1.09265e-06)
(-0.000505634 0 8.75845e-05)
(-0.000651381 0 0.000115355)
(-0.000754891 0 -3.79586e-05)
(-0.000812056 0 -8.34223e-05)
(-0.000838925 0 -8.51213e-05)
(-0.000825889 0 -0.000143715)
(-0.00074787 0 -0.000206358)
(-0.000712668 0 -0.000135316)
(-0.000698872 0 -7.02862e-05)
(-0.000695546 0 -5.05893e-05)
(-0.000711645 0 -5.05906e-05)
(-0.000649321 0 -0.000206014)
(-0.00058257 0 -0.000194247)
(-0.000612822 0 -0.00025045)
(4.22495e-06 0 -0.000334966)
(-1.39415e-12 0 1.83515e-13)
(-3.46114e-12 0 7.04191e-14)
(-2.65534e-12 0 3.60311e-15)
(-2.62321e-12 0 -3.44213e-14)
(-2.5312e-12 0 -5.84388e-14)
(-2.39802e-12 0 -7.55472e-14)
(-2.23404e-12 0 -8.86742e-14)
(-2.04633e-12 0 -9.88751e-14)
(-1.84063e-12 0 -1.06475e-13)
(-1.62215e-12 0 -1.11576e-13)
(-1.39587e-12 0 -1.1425e-13)
(-1.16658e-12 0 -1.14608e-13)
(-9.38754e-13 0 -1.12818e-13)
(-7.16484e-13 0 -1.09096e-13)
(-5.03382e-13 0 -1.037e-13)
(-3.02514e-13 0 -9.69067e-14)
(-1.16367e-13 0 -8.90083e-14)
(5.31638e-14 0 -8.02963e-14)
(2.04741e-13 0 -7.10463e-14)
(3.37544e-13 0 -6.15066e-14)
(4.51223e-13 0 -5.18968e-14)
(5.45841e-13 0 -4.24106e-14)
(6.21798e-13 0 -3.32129e-14)
(6.79754e-13 0 -2.44335e-14)
(7.20572e-13 0 -1.61653e-14)
(7.45283e-13 0 -8.46907e-15)
(7.55034e-13 0 -1.37815e-15)
(7.51037e-13 0 5.09904e-15)
(7.34537e-13 0 1.09747e-14)
(7.06781e-13 0 1.62735e-14)
(6.68999e-13 0 2.10216e-14)
(6.22364e-13 0 2.52352e-14)
(5.67948e-13 0 2.89168e-14)
(5.06684e-13 0 3.20581e-14)
(4.39378e-13 0 3.46477e-14)
(3.66768e-13 0 3.66792e-14)
(2.89618e-13 0 3.81531e-14)
(2.0883e-13 0 3.90663e-14)
(1.25593e-13 0 3.93581e-14)
(4.17679e-14 0 3.8682e-14)
(1.98697e-05 0 0.000120644)
(-0.000118988 0 4.76006e-05)
(-0.000141555 0 2.81545e-05)
(-0.000154184 0 7.71902e-05)
(-0.000214038 0 8.74559e-05)
(-0.000276324 0 7.91351e-05)
(-0.000304153 0 0.000151106)
(-0.000370422 0 5.15317e-05)
(-0.000384386 0 0.000100677)
(-0.000419171 0 4.87001e-05)
(-0.000447801 0 5.62993e-05)
(-0.000472255 0 3.05811e-05)
(-0.000475437 0 2.51267e-05)
(-0.000461898 0 2.24777e-05)
(-0.00044875 0 1.52917e-05)
(-0.00043876 0 1.67811e-06)
(-0.000421915 0 -8.33479e-06)
(-0.000399769 0 -1.20598e-05)
(-0.000382983 0 -1.576e-05)
(-0.000360201 0 -5.90342e-05)
(-0.00032292 0 -8.43727e-06)
(-0.00028023 0 -4.61078e-05)
(-0.000268992 0 -5.43984e-06)
(-0.000268241 0 8.25589e-06)
(-0.000280236 0 1.96583e-05)
(-0.000290766 0 2.25335e-05)
(-0.000294339 0 1.73997e-05)
(-0.000289998 0 4.78638e-06)
(-0.000296028 0 1.91392e-05)
(-0.00030652 0 2.06868e-05)
(-0.000288238 0 -1.15936e-05)
(-0.00027041 0 -1.15483e-05)
(-0.000291309 0 2.4199e-05)
(-0.000369999 0 8.63336e-05)
(-0.000446679 0 0.000202696)
(-0.000538401 0 0.000273054)
(-0.000664937 0 0.00015349)
(-0.000732303 0 8.02158e-05)
(-0.000787435 0 6.41364e-05)
(-0.000820399 0 2.90979e-05)
(-0.000835246 0 7.20376e-06)
(-0.000820824 0 -8.92523e-05)
(-0.000644679 0 -0.000298451)
(-0.000494527 0 -0.000258795)
(-0.000431682 0 -0.000119235)
(-0.000335065 0 -0.000130363)
(-4.49866e-05 0 -0.000351489)
(-2.13585e-05 0 -0.00018787)
(3.75378e-05 0 -6.28921e-05)
(5.54717e-05 0 5.66351e-05)
(0.000107704 0 0.000112055)
(0.000108481 0 0.000112002)
(5.19503e-05 0 0.000113522)
(-1.53973e-05 0 0.000102252)
(-4.36669e-05 0 7.55019e-05)
(-0.000114012 0 6.97806e-05)
(-0.000140039 0 0.000107715)
(-0.000196326 0 8.22364e-05)
(-0.000248479 0 4.02766e-05)
(-0.000271178 0 5.93729e-05)
(-0.000291356 0 6.04167e-05)
(-0.000316252 0 6.85503e-05)
(-0.000349933 0 7.48286e-05)
(-0.000376176 0 6.71352e-05)
(-0.000386164 0 6.85821e-05)
(-0.000411624 0 0.000118222)
(-0.00051491 0 0.000156456)
(-0.00057669 0 8.94966e-05)
(-0.000591574 0 6.02792e-05)
(-0.000542329 0 -5.82798e-07)
(-0.000484992 0 -1.14078e-05)
(-0.000473418 0 6.27596e-06)
(-0.000462391 0 2.60783e-05)
(-0.000445238 0 1.69402e-05)
(-0.000419329 0 -1.51474e-05)
(-0.000422137 0 -3.46072e-05)
(-0.000389744 0 -9.65204e-05)
(-0.000238713 0 -0.000309209)
(-0.000631007 0 -0.000291961)
(5.23137e-06 0 -0.000426768)
(-1.72101e-12 0 4.59277e-13)
(-3.66661e-12 0 1.46298e-13)
(-2.76027e-12 0 -2.08053e-14)
(-2.68512e-12 0 -1.16907e-13)
(-2.57233e-12 0 -1.81463e-13)
(-2.42826e-12 0 -2.30072e-13)
(-2.25736e-12 0 -2.6856e-13)
(-2.06413e-12 0 -2.98889e-13)
(-1.85333e-12 0 -3.216e-13)
(-1.62992e-12 0 -3.36843e-13)
(-1.39891e-12 0 -3.44777e-13)
(-1.16515e-12 0 -3.45718e-13)
(-9.33242e-13 0 -3.40163e-13)
(-7.07366e-13 0 -3.28774e-13)
(-4.91192e-13 0 -3.1233e-13)
(-2.87823e-13 0 -2.91683e-13)
(-9.97566e-14 0 -2.67719e-13)
(7.11257e-14 0 -2.41323e-13)
(2.23531e-13 0 -2.13333e-13)
(3.56694e-13 0 -1.84511e-13)
(4.70319e-13 0 -1.55532e-13)
(5.64525e-13 0 -1.26978e-13)
(6.39776e-13 0 -9.93333e-14)
(6.96801e-13 0 -7.29698e-14)
(7.36537e-13 0 -4.81528e-14)
(7.6007e-13 0 -2.50498e-14)
(7.68602e-13 0 -3.74515e-15)
(7.6339e-13 0 1.57443e-14)
(7.45712e-13 0 3.34445e-14)
(7.16828e-13 0 4.93926e-14)
(6.7796e-13 0 6.36096e-14)
(6.30259e-13 0 7.60903e-14)
(5.74771e-13 0 8.68151e-14)
(5.12414e-13 0 9.57756e-14)
(4.43999e-13 0 1.03e-13)
(3.70274e-13 0 1.08563e-13)
(2.92005e-13 0 1.1258e-13)
(2.10034e-13 0 1.15176e-13)
(1.25209e-13 0 1.16426e-13)
(4.10918e-14 0 1.1623e-13)
(-7.84953e-05 0 0.000138275)
(-7.23533e-05 0 0.000143094)
(-0.000147268 0 0.000107264)
(-0.000145665 0 0.000118591)
(-0.000223746 0 0.000112972)
(-0.00029346 0 0.000107326)
(-0.000349424 0 0.000115829)
(-0.000396833 0 0.000110498)
(-0.000442908 0 8.26286e-05)
(-0.000498464 0 3.12057e-05)
(-0.000532286 0 2.98197e-05)
(-0.000541095 0 2.57509e-05)
(-0.000520817 0 -1.75001e-05)
(-0.000501853 0 -4.054e-05)
(-0.000482741 0 -3.98691e-05)
(-0.000436059 0 -4.94869e-05)
(-0.000394646 0 -3.82513e-05)
(-0.000336312 0 -8.86979e-05)
(-0.000309094 0 -9.58353e-05)
(-0.000298131 0 -7.17554e-05)
(-0.000277249 0 -2.72934e-05)
(-0.000239854 0 -5.57379e-05)
(-0.000237039 0 1.33041e-05)
(-0.000233951 0 2.15667e-05)
(-0.00024928 0 4.59177e-05)
(-0.000263195 0 9.99354e-06)
(-0.000272531 0 -7.3461e-06)
(-0.000276386 0 -9.96278e-06)
(-0.000283864 0 -2.22098e-05)
(-0.000294628 0 -9.24108e-06)
(-0.000269772 0 -1.11919e-05)
(-0.000250617 0 -3.56945e-05)
(-0.000293332 0 9.83592e-05)
(-0.000395622 0 0.000205421)
(-0.000502351 0 0.000258608)
(-0.000564552 0 0.000279745)
(-0.000617473 0 0.000232046)
(-0.000680994 0 0.000137905)
(-0.00069465 0 0.00010643)
(-0.000682103 0 3.4825e-06)
(-0.000670173 0 -3.34799e-05)
(-0.000663224 0 -0.000102261)
(-0.000613636 0 -0.000226014)
(-0.000399033 0 -0.000446393)
(-0.000403278 0 -0.000305323)
(-0.000184306 0 -0.000438215)
(-5.35363e-05 0 -0.000391291)
(-6.6465e-05 0 -0.000245663)
(2.2994e-05 0 -0.000172669)
(7.13769e-05 0 -0.000103174)
(0.000133531 0 -0.000119307)
(0.00019867 0 7.11888e-05)
(0.000145711 0 0.000154036)
(0.000130801 0 0.000127762)
(7.84223e-05 0 0.000112994)
(8.83627e-06 0 0.000129075)
(-0.000116298 0 0.000135617)
(-0.000176827 0 0.0001174)
(-0.000221507 0 7.65139e-05)
(-0.000237363 0 6.3857e-05)
(-0.000259135 0 7.39251e-05)
(-0.000276319 0 6.19522e-05)
(-0.000293019 0 4.7773e-05)
(-0.000301037 0 5.79818e-05)
(-0.000274839 0 9.89565e-05)
(-0.000239379 0 0.000134445)
(-0.000224876 0 0.000206509)
(-0.000237138 0 0.000184254)
(-0.000214929 0 7.42146e-05)
(-0.000153522 0 -1.80552e-05)
(-8.01477e-05 0 -5.03465e-05)
(-0.000114447 0 -6.06518e-05)
(-6.88238e-05 0 -7.2783e-05)
(-6.81909e-05 0 -3.88381e-05)
(-5.79705e-05 0 -5.68449e-07)
(-0.000114959 0 1.70841e-05)
(-7.80114e-05 0 -6.48222e-05)
(0.000139498 0 -0.000229668)
(-0.000387507 0 -0.000347897)
(5.25123e-06 0 -0.00045957)
(-1.74663e-12 0 2.78268e-13)
(-4.00519e-12 0 4.01176e-14)
(-2.91837e-12 0 -1.1792e-13)
(-2.78361e-12 0 -2.29977e-13)
(-2.64437e-12 0 -3.19222e-13)
(-2.48512e-12 0 -3.93711e-13)
(-2.30285e-12 0 -4.55779e-13)
(-2.09937e-12 0 -5.05776e-13)
(-1.87858e-12 0 -5.43487e-13)
(-1.64533e-12 0 -5.68748e-13)
(-1.40475e-12 0 -5.81684e-13)
(-1.16197e-12 0 -5.82784e-13)
(-9.2181e-13 0 -5.72895e-13)
(-6.88651e-13 0 -5.53152e-13)
(-4.66291e-13 0 -5.24905e-13)
(-2.57904e-13 0 -4.8962e-13)
(-6.60069e-14 0 -4.48817e-13)
(1.0755e-13 0 -4.04004e-13)
(2.61553e-13 0 -3.56611e-13)
(3.95345e-13 0 -3.07932e-13)
(5.08756e-13 0 -2.59099e-13)
(6.0204e-13 0 -2.1107e-13)
(6.75807e-13 0 -1.64627e-13)
(7.30934e-13 0 -1.20367e-13)
(7.68492e-13 0 -7.87188e-14)
(7.89691e-13 0 -3.99559e-14)
(7.95828e-13 0 -4.22592e-15)
(7.88227e-13 0 2.84216e-14)
(7.68186e-13 0 5.79946e-14)
(7.36946e-13 0 8.45129e-14)
(6.95696e-13 0 1.07978e-13)
(6.4557e-13 0 1.28371e-13)
(5.87633e-13 0 1.45684e-13)
(5.22868e-13 0 1.59966e-13)
(4.52165e-13 0 1.71352e-13)
(3.76348e-13 0 1.80073e-13)
(2.96231e-13 0 1.8643e-13)
(2.12675e-13 0 1.90758e-13)
(1.26647e-13 0 1.93402e-13)
(4.1572e-14 0 1.94804e-13)
(-0.000106746 0 0.000188752)
(-2.90841e-05 0 0.000208193)
(-0.000177487 0 0.00015948)
(-0.00022717 0 8.91167e-05)
(-0.000247416 0 0.000169686)
(-0.000319049 0 0.000168572)
(-0.000382648 0 0.00018202)
(-0.000462939 0 0.000149484)
(-0.000509634 0 0.000115425)
(-0.000517183 0 0.000128467)
(-0.00052703 0 9.97583e-05)
(-0.000529514 0 4.94307e-05)
(-0.000510659 0 -0.000148521)
(-0.000464029 0 -9.12878e-05)
(-0.000413331 0 -3.49673e-05)
(-0.000329279 0 -0.000159195)
(-0.000322313 0 -3.51893e-05)
(-0.000231699 0 -0.000156554)
(-0.000206776 0 -0.00012241)
(-0.000189304 0 -8.89175e-05)
(-0.000147485 0 -0.000111029)
(-0.000134837 0 -6.04085e-05)
(-0.000116908 0 -2.6527e-05)
(-0.000114353 0 2.03505e-06)
(-0.000149553 0 5.32492e-05)
(-0.000174931 0 4.64673e-05)
(-0.000216636 0 4.34028e-05)
(-0.00024559 0 4.50493e-05)
(-0.000274258 0 2.13841e-05)
(-0.000286697 0 -4.53635e-06)
(-0.00026589 0 -7.23423e-05)
(-0.000271091 0 -1.86118e-05)
(-0.000346155 0 0.000175565)
(-0.000421998 0 0.000272856)
(-0.000486726 0 0.00033718)
(-0.000517901 0 0.000342107)
(-0.000555996 0 0.000288845)
(-0.000574872 0 0.000259261)
(-0.000594593 0 0.000108411)
(-0.000535883 0 -2.71433e-05)
(-0.000506741 0 -5.1442e-05)
(-0.000468395 0 -0.000248152)
(-0.000425 0 -0.000355831)
(-0.00039145 0 -0.000395512)
(-0.000281282 0 -0.000458749)
(-0.000118935 0 -0.000486243)
(-0.00017279 0 -0.00037418)
(-0.000103033 0 -0.000295122)
(-4.36924e-05 0 -0.000231535)
(2.32035e-05 0 -0.000195435)
(0.000125873 0 -0.00014614)
(0.000190736 0 6.00592e-05)
(0.000207581 0 0.000113716)
(0.000209156 0 0.000180502)
(0.000166854 0 0.000214248)
(0.000136652 0 0.000187024)
(7.47503e-06 0 0.000193603)
(-3.22536e-05 0 0.000194087)
(-5.36827e-05 0 0.00016681)
(-0.000205763 0 9.76616e-05)
(-0.000228891 0 8.58204e-05)
(-0.000235416 0 7.70623e-05)
(-0.000240424 0 6.52849e-05)
(-0.000241853 0 5.32939e-05)
(-0.000191886 0 2.45448e-05)
(-0.000133211 0 4.1056e-05)
(-6.12667e-05 0 0.000131284)
(-3.1387e-06 0 6.92862e-05)
(0.000119849 0 -7.0493e-05)
(0.000155068 0 -4.52119e-05)
(0.000172188 0 -5.51921e-05)
(0.000201547 0 -5.47626e-05)
(0.000217135 0 -2.21668e-05)
(0.000208086 0 -1.41192e-05)
(0.000213155 0 -2.58272e-05)
(0.00023195 0 -7.19218e-05)
(0.00026253 0 -9.46536e-05)
(0.000260493 0 -0.000188803)
(-0.000138133 0 -0.000250804)
(5.05507e-06 0 -0.000361646)
(-1.66619e-12 0 -2.19088e-13)
(-4.13481e-12 0 -1.78896e-13)
(-3.02985e-12 0 -2.59161e-13)
(-2.88617e-12 0 -3.64663e-13)
(-2.73606e-12 0 -4.70876e-13)
(-2.56481e-12 0 -5.68907e-13)
(-2.36943e-12 0 -6.54228e-13)
(-2.15184e-12 0 -7.24147e-13)
(-1.9163e-12 0 -7.77064e-13)
(-1.66812e-12 0 -8.12258e-13)
(-1.41294e-12 0 -8.29761e-13)
(-1.15636e-12 0 -8.30262e-13)
(-9.03609e-13 0 -8.15009e-13)
(-6.59377e-13 0 -7.85697e-13)
(-4.2766e-13 0 -7.44322e-13)
(-2.11735e-13 0 -6.93043e-13)
(-1.414e-14 0 -6.34069e-13)
(1.63332e-13 0 -5.69577e-13)
(3.19602e-13 0 -5.01624e-13)
(4.54205e-13 0 -4.32054e-13)
(5.67181e-13 0 -3.62451e-13)
(6.58997e-13 0 -2.94134e-13)
(7.30478e-13 0 -2.28171e-13)
(7.8271e-13 0 -1.65384e-13)
(8.16948e-13 0 -1.06372e-13)
(8.34563e-13 0 -5.15427e-14)
(8.36979e-13 0 -1.14116e-15)
(8.25611e-13 0 4.47191e-14)
(8.01803e-13 0 8.60222e-14)
(7.66811e-13 0 1.22808e-13)
(7.21818e-13 0 1.55136e-13)
(6.67966e-13 0 1.83076e-13)
(6.06366e-13 0 2.06721e-13)
(5.38082e-13 0 2.26229e-13)
(4.64106e-13 0 2.41849e-13)
(3.85352e-13 0 2.53928e-13)
(3.02691e-13 0 2.6289e-13)
(2.17006e-13 0 2.69191e-13)
(1.29255e-13 0 2.73273e-13)
(4.24942e-14 0 2.75509e-13)
(-0.000139238 0 0.000252699)
(-5.59158e-05 0 0.000277749)
(-0.000195851 0 0.000225492)
(-0.000244597 0 0.000199633)
(-0.000258309 0 0.000256724)
(-0.000362576 0 0.000229871)
(-0.000456387 0 0.000185487)
(-0.000471204 0 0.000215142)
(-0.000484736 0 0.000176599)
(-0.000493709 0 1.88294e-05)
(-0.000448003 0 6.40517e-05)
(-0.000425306 0 2.26336e-05)
(-0.000418087 0 -3.0493e-05)
(-0.000412485 0 -7.33862e-05)
(-0.000318971 0 -0.000209991)
(-0.000273467 0 -0.000169032)
(-0.00027352 0 -7.05671e-05)
(-0.000165384 0 -0.000195341)
(-0.000138204 0 -0.000151924)
(-0.000102538 0 -0.000128064)
(-6.1022e-05 0 -0.000109294)
(-5.23666e-05 0 -6.79301e-05)
(-4.5651e-05 0 -1.28994e-05)
(-3.19898e-05 0 3.46105e-05)
(-3.06801e-05 0 7.44117e-05)
(-3.22154e-05 0 8.23637e-05)
(-9.27529e-05 0 0.00010037)
(-0.000187609 0 6.93961e-05)
(-0.000214959 0 1.06687e-05)
(-0.000226135 0 -9.627e-06)
(-0.000224212 0 -2.516e-05)
(-0.000290708 0 7.81384e-05)
(-0.000307402 0 0.000301342)
(-0.000413073 0 0.00036293)
(-0.000454411 0 0.000389876)
(-0.000476024 0 0.000374883)
(-0.000534862 0 0.000243787)
(-0.000529663 0 0.00015584)
(-0.000499509 0 7.19565e-05)
(-0.000448193 0 -5.23488e-05)
(-0.000415309 0 -0.000115251)
(-0.000399305 0 -0.00018246)
(-0.000346733 0 -0.0003771)
(-0.000239242 0 -0.000516195)
(-0.000194101 0 -0.0005295)
(-0.000181019 0 -0.000482237)
(-0.000138501 0 -0.00042392)
(-7.79696e-05 0 -0.00037105)
(-1.45627e-05 0 -0.000308447)
(-7.01701e-06 0 -0.000241458)
(0.000136614 0 -0.000131999)
(9.43096e-05 0 1.18132e-06)
(0.000161473 0 0.000160985)
(0.000195184 0 9.94132e-05)
(0.000235142 0 0.000125448)
(0.000236296 0 0.00023129)
(0.000129035 0 0.00025557)
(5.3248e-05 0 0.000241864)
(4.09702e-05 0 0.000207197)
(-9.13964e-07 0 0.000161681)
(-1.0396e-05 0 0.000131714)
(-1.09799e-05 0 0.000100245)
(-6.12407e-05 0 5.67414e-05)
(-4.8607e-05 0 6.05195e-06)
(-4.90741e-05 0 -2.34912e-05)
(2.06955e-05 0 -2.28535e-05)
(5.36045e-05 0 -5.32098e-05)
(0.000114283 0 -4.46192e-05)
(0.000175162 0 -0.000174927)
(0.000186391 0 -0.000151783)
(0.000211308 0 -0.000119616)
(0.000245768 0 -8.6851e-05)
(0.000286111 0 -0.000136792)
(0.000317164 0 -4.89124e-05)
(0.000323068 0 -4.59217e-05)
(0.000335359 0 -6.07246e-05)
(0.000331501 0 -3.96875e-05)
(0.00030135 0 -0.000128803)
(-7.59095e-05 0 -0.000184153)
(5.36256e-06 0 -0.000263415)
(-1.65707e-12 0 -2.88611e-13)
(-4.09153e-12 0 -2.90521e-13)
(-3.10365e-12 0 -3.74234e-13)
(-2.99508e-12 0 -4.97789e-13)
(-2.84861e-12 0 -6.30199e-13)
(-2.66847e-12 0 -7.56308e-13)
(-2.45809e-12 0 -8.67564e-13)
(-2.22221e-12 0 -9.58994e-13)
(-1.9667e-12 0 -1.02784e-12)
(-1.69802e-12 0 -1.07294e-12)
(-1.42275e-12 0 -1.09432e-12)
(-1.14721e-12 0 -1.09301e-12)
(-8.77245e-13 0 -1.07078e-12)
(-6.17964e-13 0 -1.02999e-12)
(-3.73637e-13 0 -9.73427e-13)
(-1.47651e-13 0 -9.04053e-13)
(5.7459e-14 0 -8.24853e-13)
(2.39995e-13 0 -7.38732e-13)
(3.99077e-13 0 -6.48418e-13)
(5.34519e-13 0 -5.56351e-13)
(6.46676e-13 0 -4.64602e-13)
(7.36319e-13 0 -3.74865e-13)
(8.04557e-13 0 -2.88487e-13)
(8.52733e-13 0 -2.06503e-13)
(8.82333e-13 0 -1.29675e-13)
(8.94922e-13 0 -5.85335e-14)
(8.92089e-13 0 6.59158e-15)
(8.7539e-13 0 6.55466e-14)
(8.46274e-13 0 1.1833e-13)
(8.0606e-13 0 1.65053e-13)
(7.55964e-13 0 2.05896e-13)
(6.97155e-13 0 2.4107e-13)
(6.30786e-13 0 2.70817e-13)
(5.57996e-13 0 2.95423e-13)
(4.79864e-13 0 3.15247e-13)
(3.9739e-13 0 3.30729e-13)
(3.11495e-13 0 3.42373e-13)
(2.23059e-13 0 3.50704e-13)
(1.32965e-13 0 3.56198e-13)
(4.38079e-14 0 3.592e-13)
(-0.000101478 0 0.00031907)
(-4.04753e-05 0 0.00034868)
(-0.00010454 0 0.00031637)
(-0.000302452 0 0.000240473)
(-0.000290441 0 0.000321989)
(-0.000369309 0 0.000326145)
(-0.000412972 0 0.00031745)
(-0.000439855 0 0.000259595)
(-0.000434996 0 0.000152308)
(-0.000400411 0 9.57427e-05)
(-0.000383631 0 3.79753e-05)
(-0.000360603 0 -6.29493e-05)
(-0.000318372 0 -0.000135313)
(-0.00030111 0 -0.000125316)
(-0.000283857 0 -0.000147132)
(-0.000216735 0 -0.00022288)
(-0.000148778 0 -0.000241311)
(-0.000136647 0 -0.000196543)
(-7.96609e-05 0 -0.000187399)
(1.67061e-05 0 -0.000184181)
(8.9717e-06 0 -0.000117394)
(5.79082e-05 0 -8.53124e-05)
(0.000101012 0 -4.83371e-05)
(0.000126454 0 2.04531e-05)
(8.22965e-05 0 8.87647e-05)
(7.40275e-05 0 0.000127676)
(2.7112e-05 0 0.000159502)
(1.16944e-05 0 0.000160658)
(-4.9549e-05 0 0.000107587)
(-6.83911e-05 0 4.82187e-05)
(-0.000158625 0 3.21844e-05)
(-0.000288649 0 0.000108981)
(-0.000324556 0 0.000293007)
(-0.000385899 0 0.000389567)
(-0.000427555 0 0.000402806)
(-0.000421882 0 0.000407677)
(-0.00043502 0 0.000311051)
(-0.000417727 0 0.000201484)
(-0.000409667 0 9.65103e-05)
(-0.000415998 0 -2.46797e-05)
(-0.000397533 0 -0.00016361)
(-0.000357235 0 -0.000226889)
(-0.000253314 0 -0.00047979)
(-0.000253455 0 -0.000522185)
(-0.000239562 0 -0.000545272)
(-0.000146943 0 -0.000536749)
(-0.000148484 0 -0.000454197)
(-0.0001019 0 -0.000406682)
(-8.67565e-05 0 -0.000351167)
(-2.25152e-07 0 -0.000280698)
(5.96996e-05 0 -0.000189491)
(-7.42959e-05 0 -0.000125834)
(0.000166964 0 6.60759e-05)
(0.000217948 0 9.92133e-05)
(0.000246917 0 0.000179514)
(0.000229901 0 0.000296035)
(0.000185245 0 0.000332462)
(0.000117647 0 0.000323095)
(0.000157852 0 0.00023011)
(6.60532e-05 0 0.000191966)
(0.000100608 0 0.000120633)
(7.73139e-05 0 0.000103496)
(7.2214e-05 0 5.24216e-05)
(9.61109e-05 0 1.95541e-05)
(0.000131905 0 3.17179e-05)
(0.000201448 0 -3.26701e-06)
(0.000269611 0 -7.05543e-05)
(0.000310452 0 -0.000100449)
(0.000339452 0 -0.000159251)
(0.000345509 0 -0.000142405)
(0.000338214 0 -0.000179057)
(0.000365398 0 -0.000106135)
(0.000380639 0 -8.15148e-05)
(0.000375915 0 -8.74488e-05)
(0.000371888 0 -7.90553e-05)
(0.000364012 0 -7.76649e-05)
(0.000347988 0 -5.47375e-05)
(0.000334566 0 -7.21968e-05)
(-7.54084e-05 0 -0.000106438)
(5.44307e-06 0 -0.000150213)
(-1.71653e-12 0 7.55936e-15)
(-4.21433e-12 0 -2.882e-13)
(-3.23666e-12 0 -4.49613e-13)
(-3.14191e-12 0 -6.22039e-13)
(-2.99458e-12 0 -7.9606e-13)
(-2.80218e-12 0 -9.58795e-13)
(-2.57211e-12 0 -1.10091e-12)
(-2.31212e-12 0 -1.21654e-12)
(-2.03025e-12 0 -1.30243e-12)
(-1.7346e-12 0 -1.35731e-12)
(-1.43302e-12 0 -1.38148e-12)
(-1.13281e-12 0 -1.37649e-12)
(-8.40589e-13 0 -1.34486e-12)
(-5.62028e-13 0 -1.28982e-12)
(-3.01723e-13 0 -1.2151e-12)
(-6.31609e-14 0 -1.12462e-12)
(1.51181e-13 0 -1.0223e-12)
(3.39767e-13 0 -9.1184e-13)
(5.01983e-13 0 -7.96719e-13)
(6.38021e-13 0 -6.80021e-13)
(7.48667e-13 0 -5.64355e-13)
(8.35112e-13 0 -4.51816e-13)
(8.98841e-13 0 -3.4403e-13)
(9.41521e-13 0 -2.42208e-13)
(9.64917e-13 0 -1.47226e-13)
(9.7083e-13 0 -5.96726e-14)
(9.61059e-13 0 2.00968e-14)
(9.37349e-13 0 9.19456e-14)
(9.0131e-13 0 1.55935e-13)
(8.54377e-13 0 2.12288e-13)
(7.97835e-13 0 2.61337e-13)
(7.32887e-13 0 3.03469e-13)
(6.60719e-13 0 3.39092e-13)
(5.82512e-13 0 3.68636e-13)
(4.99412e-13 0 3.92568e-13)
(4.12478e-13 0 4.11409e-13)
(3.22666e-13 0 4.2572e-13)
(2.30831e-13 0 4.36063e-13)
(1.37751e-13 0 4.42928e-13)
(4.54964e-14 0 4.46652e-13)
(-7.33851e-05 0 0.000352061)
(-1.80859e-05 0 0.00040207)
(-5.82086e-05 0 0.000390818)
(-0.000255766 0 0.000353989)
(-0.000310107 0 0.000370408)
(-0.000350935 0 0.000368589)
(-0.000399451 0 0.000321828)
(-0.000442709 0 0.00017283)
(-0.000400944 0 4.19891e-05)
(-0.000341085 0 2.62965e-05)
(-0.000306411 0 -1.4661e-05)
(-0.000291003 0 -2.59481e-05)
(-0.000275612 0 -8.03797e-05)
(-0.000226297 0 -0.000199253)
(-0.000200429 0 -0.000225969)
(-0.000192114 0 -0.000201582)
(-0.0001236 0 -0.00024547)
(-4.16016e-05 0 -0.000282049)
(2.46385e-05 0 -0.000284517)
(8.05339e-05 0 -0.000245147)
(0.000132421 0 -0.000198969)
(0.000162002 0 -0.000145609)
(0.000179236 0 -7.79751e-05)
(0.000210213 0 6.38044e-06)
(0.000197441 0 7.30325e-05)
(0.000189066 0 0.000105736)
(0.000143388 0 0.000175477)
(0.00010558 0 0.000172662)
(3.60007e-05 0 0.000150794)
(-3.16028e-05 0 0.000119027)
(-0.000149613 0 0.000121607)
(-0.000249759 0 0.000190054)
(-0.000298918 0 0.000335509)
(-0.000340695 0 0.000426506)
(-0.00035893 0 0.000439852)
(-0.000395697 0 0.000389436)
(-0.000395765 0 0.000266754)
(-0.000362766 0 0.000122031)
(-0.000325378 0 5.58721e-05)
(-0.000333322 0 -2.61633e-05)
(-0.000343973 0 -0.000190783)
(-0.00031776 0 -0.000325837)
(-0.00022541 0 -0.000521306)
(-0.000218494 0 -0.000578703)
(-0.000216614 0 -0.000590198)
(-0.000172909 0 -0.000557935)
(-0.000172628 0 -0.000485996)
(-0.000125792 0 -0.000449506)
(-8.82512e-05 0 -0.000406639)
(-4.78557e-05 0 -0.000337077)
(-6.48459e-05 0 -0.000265497)
(0.000148606 0 -0.000151608)
(2.76626e-05 0 -9.39144e-05)
(0.000141395 0 8.87789e-05)
(0.000178766 0 0.000187566)
(0.000186118 0 0.000289163)
(0.000184519 0 0.000333891)
(0.000214956 0 0.000306316)
(0.000237139 0 0.000256092)
(0.000206868 0 0.000204128)
(0.000171431 0 0.000175726)
(0.000183626 0 0.000100739)
(0.000202698 0 5.40467e-05)
(0.00023576 0 2.13178e-05)
(0.000285017 0 -4.92345e-05)
(0.000342954 0 -7.2056e-05)
(0.000396015 0 -0.000116592)
(0.000426807 0 -0.000120068)
(0.000421376 0 -0.000159186)
(0.000415586 0 -0.000155925)
(0.000413989 0 -0.000146288)
(0.000416487 0 -0.000129344)
(0.000418868 0 -9.06823e-05)
(0.00041193 0 -6.78619e-05)
(0.000396009 0 -5.88152e-05)
(0.000377705 0 -3.40362e-05)
(0.000342489 0 -2.27083e-05)
(0.000338074 0 5.27005e-06)
(-0.000245515 0 6.85874e-05)
(5.50627e-06 0 -4.19582e-05)
(-1.85443e-12 0 -1.37845e-13)
(-4.47305e-12 0 -3.25584e-13)
(-3.43703e-12 0 -5.14966e-13)
(-3.34132e-12 0 -7.45502e-13)
(-3.18537e-12 0 -9.74209e-13)
(-2.97332e-12 0 -1.18289e-12)
(-2.71584e-12 0 -1.36164e-12)
(-2.42373e-12 0 -1.50464e-12)
(-2.10746e-12 0 -1.60873e-12)
(-1.77707e-12 0 -1.67294e-12)
(-1.44194e-12 0 -1.69816e-12)
(-1.1106e-12 0 -1.68678e-12)
(-7.90577e-13 0 -1.64234e-12)
(-4.882e-13 0 -1.5692e-12)
(-2.08437e-13 0 -1.47227e-12)
(4.51503e-14 0 -1.35668e-12)
(2.70241e-13 0 -1.22741e-12)
(4.65572e-13 0 -1.08915e-12)
(6.30896e-13 0 -9.46153e-13)
(7.66883e-13 0 -8.0221e-13)
(8.7488e-13 0 -6.60498e-13)
(9.56644e-13 0 -5.23539e-13)
(1.01417e-12 0 -3.93225e-13)
(1.04954e-12 0 -2.70898e-13)
(1.06487e-12 0 -1.57461e-13)
(1.06224e-12 0 -5.34735e-14)
(1.04371e-12 0 4.07796e-14)
(1.01123e-12 0 1.25255e-13)
(9.66616e-13 0 2.00134e-13)
(9.11463e-13 0 2.65785e-13)
(8.47146e-13 0 3.22716e-13)
(7.7491e-13 0 3.715e-13)
(6.95953e-13 0 4.12724e-13)
(6.11472e-13 0 4.4697e-13)
(5.22637e-13 0 4.74823e-13)
(4.30541e-13 0 4.96878e-13)
(3.36148e-13 0 5.13745e-13)
(2.40267e-13 0 5.26009e-13)
(1.43555e-13 0 5.34167e-13)
(4.75313e-14 0 5.38543e-13)
(-8.95452e-05 0 0.000385372)
(-0.000110259 0 0.000426107)
(-0.000158189 0 0.000449166)
(-0.000248351 0 0.00044739)
(-0.000326329 0 0.00042275)
(-0.000378348 0 0.000384177)
(-0.000316587 0 0.000381568)
(-0.000355323 0 0.000253328)
(-0.000356106 0 0.000157721)
(-0.000359207 0 -6.43202e-05)
(-0.000278214 0 -6.19796e-05)
(-0.000248555 0 -7.62289e-05)
(-0.000226758 0 -0.000135609)
(-0.000211175 0 -0.000194407)
(-0.000186752 0 -0.000232431)
(-0.000109969 0 -0.000299214)
(-3.60308e-05 0 -0.000347271)
(9.23728e-06 0 -0.000343842)
(6.2862e-05 0 -0.000308443)
(8.74779e-05 0 -0.000271153)
(0.000135186 0 -0.000225729)
(0.000178934 0 -0.000160684)
(0.000174243 0 -0.000107024)
(0.000216102 0 5.89052e-07)
(0.000222237 0 7.77173e-05)
(0.000202717 0 0.000161851)
(0.000182624 0 0.000211609)
(0.000108867 0 0.000257633)
(6.20537e-05 0 0.000230237)
(-4.27329e-05 0 0.000206906)
(-0.000159711 0 0.000203232)
(-0.000251163 0 0.000248459)
(-0.000347525 0 0.000349169)
(-0.000383455 0 0.000410232)
(-0.000364479 0 0.000438775)
(-0.000338314 0 0.000404804)
(-0.000344805 0 0.000266236)
(-0.000346094 0 8.72344e-05)
(-0.000299086 0 -2.09271e-06)
(-0.000281836 0 -2.77677e-05)
(-0.000289243 0 -0.000145231)
(-0.000249446 0 -0.000371655)
(-0.000237637 0 -0.000526034)
(-0.000240086 0 -0.000590244)
(-0.000228304 0 -0.000603563)
(-0.00020292 0 -0.000570896)
(-0.000201898 0 -0.000518271)
(-0.000164809 0 -0.000484519)
(-0.000164321 0 -0.000431813)
(-0.000117672 0 -0.000374764)
(-0.000102334 0 -0.000297584)
(-0.000216267 0 -0.000154058)
(-4.61607e-05 0 -4.34101e-05)
(-2.54923e-05 0 5.28727e-05)
(1.46881e-05 0 0.000131646)
(0.0001104 0 0.000243946)
(0.00015579 0 0.00029403)
(0.000217401 0 0.000280406)
(0.000234753 0 0.000252058)
(0.000253564 0 0.000210894)
(0.000244155 0 0.00020414)
(0.000292609 0 8.01125e-05)
(0.000309905 0 4.93019e-05)
(0.0003361 0 -1.10938e-05)
(0.000353388 0 -9.10107e-05)
(0.000397337 0 -6.10245e-05)
(0.000443696 0 -9.45473e-05)
(0.000454343 0 -0.000144974)
(0.000449431 0 -0.000150778)
(0.000439634 0 -0.000148081)
(0.000420549 0 -0.000155868)
(0.000431517 0 -0.000112137)
(0.000431818 0 -9.01385e-05)
(0.000422135 0 -6.20744e-05)
(0.00039707 0 -7.37034e-05)
(0.000359538 0 2.6547e-05)
(0.000334513 0 -3.2e-05)
(0.00031183 0 9.97726e-05)
(8.0746e-05 0 4.44109e-05)
(6.69642e-06 0 0.000161131)
(-2.11925e-12 0 3.98431e-13)
(-4.4354e-12 0 -1.91203e-13)
(-3.65613e-12 0 -5.4044e-13)
(-3.60096e-12 0 -8.71932e-13)
(-3.43197e-12 0 -1.1737e-12)
(-3.18961e-12 0 -1.43822e-12)
(-2.89387e-12 0 -1.6594e-12)
(-2.55921e-12 0 -1.83282e-12)
(-2.19855e-12 0 -1.95598e-12)
(-1.82403e-12 0 -2.02852e-12)
(-1.44686e-12 0 -2.05221e-12)
(-1.07699e-12 0 -2.03062e-12)
(-7.23012e-13 0 -1.96872e-12)
(-3.9196e-13 0 -1.87235e-12)
(-8.91954e-14 0 -1.74794e-12)
(1.81701e-13 0 -1.60206e-12)
(4.18709e-13 0 -1.44105e-12)
(6.21024e-13 0 -1.2707e-12)
(7.88921e-13 0 -1.09617e-12)
(9.23677e-13 0 -9.21922e-13)
(1.02734e-12 0 -7.51716e-13)
(1.10239e-12 0 -5.88486e-13)
(1.15148e-12 0 -4.34365e-13)
(1.17729e-12 0 -2.9077e-13)
(1.18234e-12 0 -1.58549e-13)
(1.16907e-12 0 -3.81262e-14)
(1.13979e-12 0 7.03913e-14)
(1.0967e-12 0 1.67146e-13)
(1.04184e-12 0 2.52504e-13)
(9.76959e-13 0 3.27028e-13)
(9.0355e-13 0 3.91417e-13)
(8.22895e-13 0 4.46445e-13)
(7.3619e-13 0 4.92887e-13)
(6.44611e-13 0 5.31487e-13)
(5.49319e-13 0 5.62951e-13)
(4.514e-13 0 5.87961e-13)
(3.51797e-13 0 6.07172e-13)
(2.51253e-13 0 6.21189e-13)
(1.50285e-13 0 6.30509e-13)
(4.98729e-14 0 6.35449e-13)
(-8.03831e-05 0 0.00047176)
(-0.000161063 0 0.000484377)
(-0.000250892 0 0.000514918)
(-0.000299827 0 0.000526662)
(-0.000260146 0 0.000532826)
(-0.000340337 0 0.000420491)
(-0.000357471 0 0.000280793)
(-0.000289057 0 0.000208165)
(-0.000261859 0 0.000124462)
(-0.00026675 0 3.50338e-05)
(-0.000260467 0 -7.77318e-05)
(-0.000234467 0 -0.000101498)
(-0.000218052 0 -0.000132299)
(-0.000183606 0 -0.000235128)
(-0.000134497 0 -0.000299409)
(-9.95423e-05 0 -0.000339914)
(-5.02605e-05 0 -0.000378917)
(-9.31343e-06 0 -0.000371825)
(3.47448e-05 0 -0.000355983)
(9.43666e-05 0 -0.000322395)
(0.000108377 0 -0.000275313)
(0.000146119 0 -0.000204262)
(0.000160324 0 -0.000132957)
(0.000179126 0 -5.16655e-05)
(0.000182452 0 6.59221e-05)
(0.000177439 0 0.000157643)
(0.000136135 0 0.00024906)
(0.000106819 0 0.000299922)
(3.84422e-05 0 0.000318607)
(-4.30926e-05 0 0.000297508)
(-0.000139823 0 0.000293562)
(-0.00020949 0 0.000332205)
(-0.000275833 0 0.000430056)
(-0.000306691 0 0.000476321)
(-0.000328034 0 0.000459776)
(-0.000370256 0 0.000354354)
(-0.000320345 0 0.000252486)
(-0.000317716 0 0.000101454)
(-0.000291038 0 -1.69014e-05)
(-0.000267121 0 -8.28674e-05)
(-0.000239104 0 -0.000161666)
(-0.000201222 0 -0.000357962)
(-0.000199911 0 -0.000526208)
(-0.000229607 0 -0.000599351)
(-0.000220872 0 -0.00061129)
(-0.000233272 0 -0.000577369)
(-0.000239496 0 -0.000535964)
(-0.000229848 0 -0.000488071)
(-0.000261655 0 -0.000418813)
(-0.000283365 0 -0.000355316)
(-0.000367391 0 -0.000240874)
(-0.00036278 0 -0.000122699)