/*--------------------------------*- C++ -*----------------------------------*\
  =========                 |
  \\      /  F ield         | OpenFOAM: The Open Source CFD Toolbox
   \\    /   O peration     | Website:  https://openfoam.org
    \\  /    A nd           | Version:  6
     \\/     M anipulation  |
\*---------------------------------------------------------------------------*/
FoamFile
{
    version     2.0;
    format      ascii;
    class       surfaceScalarField;
    location    "2400";
    object      phi;
}
// * * * * * * * * * * * * * * * * * * * * * * * * * * * * * * * * * * * * * //

dimensions      [0 3 -1 0 0 0 0];

internalField   nonuniform List<scalar> 
9440
(
-2.06836e-11
2.06836e-11
-5.58146e-11
3.51275e-11
-8.85582e-11
3.27407e-11
-1.22649e-10
3.4088e-11
-1.53366e-10
3.07144e-11
-2.62694e-10
1.09326e-10
-4.46978e-10
1.84282e-10
-6.43643e-10
1.96663e-10
-8.59688e-10
2.16045e-10
-9.39863e-10
8.0174e-11
-1.09271e-09
1.52843e-10
-1.19142e-09
9.87141e-11
-1.2668e-09
7.53774e-11
-1.35171e-09
8.4911e-11
-1.37906e-09
2.73588e-11
-1.38206e-09
3.0015e-12
-1.3562e-09
-2.58606e-11
-1.34758e-09
-8.61165e-12
-1.40606e-09
5.84777e-11
-1.50423e-09
9.81701e-11
-1.61524e-09
1.1101e-10
-1.85252e-09
2.37282e-10
-2.16742e-09
3.14901e-10
-2.58087e-09
4.13458e-10
-2.98898e-09
4.08112e-10
-3.29947e-09
3.10485e-10
-3.45608e-09
1.56619e-10
-3.52584e-09
6.97544e-11
-3.60717e-09
8.13382e-11
-3.61883e-09
1.16532e-11
-3.54824e-09
-7.05824e-11
-3.48467e-09
-6.35722e-11
-3.32782e-09
-1.56846e-10
-3.00461e-09
-3.23207e-10
-2.67425e-09
-3.30365e-10
-2.31991e-09
-3.54333e-10
-2.01124e-09
-3.08671e-10
-1.66746e-09
-3.43775e-10
-1.48659e-09
-1.80875e-10
-1.37935e-09
-1.07242e-10
-1.37269e-09
-6.65661e-12
-1.44461e-09
7.1917e-11
-1.5812e-09
1.36588e-10
-1.64985e-09
6.86504e-11
-1.66997e-09
2.01203e-11
-1.67896e-09
8.99213e-12
-1.73775e-09
5.87902e-11
-1.76382e-09
2.60677e-11
-1.75784e-09
-5.98391e-12
-1.73553e-09
-2.23032e-11
-1.69004e-09
-4.54909e-11
-1.55471e-09
-1.35333e-10
-1.37176e-09
-1.8294e-10
-1.1954e-09
-1.76362e-10
-1.03786e-09
-1.57535e-10
-8.50382e-10
-1.8748e-10
-6.7929e-10
-1.71091e-10
-4.91212e-10
-1.88076e-10
-3.03251e-10
-1.87961e-10
8.73408e-11
-3.90591e-10
2.1608e-10
-1.28739e-10
4.41314e-10
-2.25235e-10
9.73539e-10
-5.32225e-10
1.1072e-09
-1.33657e-10
1.1735e-09
-6.63051e-11
1.23729e-09
-6.37962e-11
1.27039e-09
-3.30971e-11
1.43078e-09
-1.60387e-10
1.51206e-09
-8.12852e-11
1.57143e-09
-5.93686e-11
1.59717e-09
-2.57416e-11
1.51339e-09
8.37783e-11
1.4752e-09
3.81913e-11
1.25986e-09
2.15342e-10
1.18812e-09
7.17378e-11
1.01599e-09
1.72128e-10
8.86705e-10
1.29282e-10
6.56095e-10
2.3061e-10
5.45982e-10
1.10113e-10
3.69273e-10
1.7671e-10
-4.74221e-15
3.69281e-10
1.28159e-18
-1.50648e-19
1.27473e-18
6.86387e-21
1.14131e-18
1.35804e-19
1.00627e-18
1.36177e-19
8.94794e-19
1.12566e-19
8.1118e-19
8.49224e-20
7.54766e-19
5.77752e-20
7.23028e-19
3.2987e-20
7.1269e-19
1.12681e-20
7.20008e-19
-6.86623e-21
7.4105e-19
-2.11784e-20
7.71946e-19
-3.16571e-20
8.09092e-19
-3.84627e-20
8.49239e-19
-4.18876e-20
8.89552e-19
-4.23174e-20
9.27621e-19
-4.01925e-20
9.61467e-19
-3.59735e-20
9.89511e-19
-3.01126e-20
1.01053e-18
-2.3031e-20
1.02363e-18
-1.50997e-20
1.02822e-18
-6.63379e-21
1.02397e-18
2.09887e-21
1.01084e-18
1.08676e-20
9.88956e-19
1.94709e-20
9.58622e-19
2.7737e-20
9.20306e-19
3.55273e-20
8.74627e-19
4.27446e-20
8.22327e-19
4.93413e-20
7.64223e-19
5.53207e-20
7.0115e-19
6.07242e-20
6.33885e-19
6.56056e-20
5.63077e-19
7.00012e-20
4.89219e-19
7.39139e-20
4.12653e-19
7.7311e-20
3.33641e-19
8.014e-20
2.52452e-19
8.23524e-20
1.69446e-19
8.39268e-20
8.51048e-20
8.48913e-20
8.5345e-20
-3.4522e-11
5.5202e-11
-1.31493e-10
1.32093e-10
-1.94408e-10
9.56511e-11
-2.10869e-10
5.05445e-11
-2.24792e-10
4.46342e-11
-3.4089e-10
2.25421e-10
-7.19659e-10
5.63049e-10
-9.4862e-10
4.25623e-10
-1.19595e-09
4.63377e-10
-1.4667e-09
3.50924e-10
-1.49477e-09
1.80909e-10
-1.68609e-09
2.90041e-10
-1.74807e-09
1.37356e-10
-1.74847e-09
8.53154e-11
-1.79401e-09
7.29031e-11
-1.78344e-09
-7.56817e-12
-1.76437e-09
-4.49245e-11
-1.78718e-09
1.42074e-11
-1.82699e-09
9.82865e-11
-1.9186e-09
1.89782e-10
-2.12925e-09
3.2167e-10
-2.43776e-09
5.4579e-10
-2.78485e-09
6.6199e-10
-3.0563e-09
6.84919e-10
-3.23348e-09
5.8529e-10
-3.35151e-09
4.2852e-10
-3.36212e-09
1.67223e-10
-3.40358e-09
1.11223e-10
-3.50375e-09
1.81505e-10
-3.5099e-09
1.78043e-11
-3.4074e-09
-1.73081e-10
-3.29344e-09
-1.77525e-10
-3.18093e-09
-2.69353e-10
-2.88079e-09
-6.23342e-10
-2.5589e-09
-6.52251e-10
-2.23693e-09
-6.76306e-10
-2.07213e-09
-4.73471e-10
-1.73174e-09
-6.84161e-10
-1.51218e-09
-4.00436e-10
-1.35939e-09
-2.60028e-10
-1.34639e-09
-1.9657e-11
-1.40896e-09
1.3448e-10
-1.49178e-09
2.1941e-10
-1.57803e-09
1.54897e-10
-1.62108e-09
6.31637e-11
-1.62824e-09
1.61579e-11
-1.68069e-09
1.11237e-10
-1.73237e-09
7.77448e-11
-1.71841e-09
-1.99387e-11
-1.66656e-09
-7.41501e-11
-1.60512e-09
-1.06926e-10
-1.46945e-09
-2.71e-10
-1.26717e-09
-3.85222e-10
-1.07657e-09
-3.66958e-10
-8.86687e-10
-3.47415e-10
-6.81607e-10
-3.92558e-10
-4.64234e-10
-3.88462e-10
-2.30517e-10
-4.21791e-10
-1.94623e-11
-3.99015e-10
2.13102e-10
-6.23155e-10
5.17918e-10
-4.33556e-10
7.80724e-10
-4.88042e-10
9.59894e-10
-7.11396e-10
1.1177e-09
-2.9147e-10
1.23982e-09
-1.8842e-10
1.39484e-09
-2.18818e-10
1.48358e-09
-1.2184e-10
1.55026e-09
-2.27072e-10
1.58347e-09
-1.14495e-10
1.58567e-09
-6.15729e-11
1.55749e-09
2.44497e-12
1.51847e-09
1.22789e-10
1.38807e-09
1.68594e-10
1.36873e-09
2.34682e-10
1.12677e-09
3.13697e-10
1.11449e-09
1.84405e-10
8.75996e-10
3.6778e-10
8.29078e-10
2.77528e-10
6.24282e-10
3.1491e-10
4.38141e-10
3.62847e-10
-2.76338e-16
8.07411e-10
2.06988e-18
3.15072e-18
1.39935e-18
6.75286e-19
1.13877e-18
3.97647e-19
9.80973e-19
2.96294e-19
8.6657e-19
2.29489e-19
7.84094e-19
1.698e-19
7.29977e-19
1.13871e-19
7.01309e-19
6.30259e-20
6.94555e-19
1.85669e-20
7.05696e-19
-1.84041e-20
7.30572e-19
-4.73987e-20
7.65141e-19
-6.84286e-20
8.05667e-19
-8.18803e-20
8.48809e-19
-8.84132e-20
8.91676e-19
-8.88692e-20
9.3184e-19
-8.41889e-20
9.67328e-19
-7.53403e-20
9.96593e-19
-6.32576e-20
1.01846e-18
-4.87887e-20
1.0321e-18
-3.26671e-20
1.03695e-18
-1.55192e-20
1.03274e-18
2.11506e-21
1.01945e-18
1.977e-20
9.97223e-19
3.70578e-20
9.66413e-19
5.3676e-20
9.27524e-19
6.94102e-20
8.81224e-19
8.41327e-20
8.28306e-19
9.77876e-20
7.69627e-19
1.10363e-19
7.06032e-19
1.21856e-19
6.38281e-19
1.32239e-19
5.6699e-19
1.41457e-19
4.92616e-19
1.49436e-19
4.15482e-19
1.56115e-19
3.35854e-19
1.61474e-19
2.54027e-19
1.65548e-19
1.7041e-19
1.68423e-19
8.55585e-20
1.70225e-19
1.71102e-19
-5.46492e-11
1.09848e-10
-8.80604e-11
1.655e-10
-1.66534e-10
1.74121e-10
-3e-10
1.84007e-10
-5.53555e-10
2.98187e-10
-7.2079e-10
3.92653e-10
-9.29289e-10
7.71546e-10
-1.35955e-09
8.55884e-10
-1.3782e-09
4.82021e-10
-1.55768e-09
5.30408e-10
-1.75784e-09
3.81071e-10
-1.86558e-09
3.97778e-10
-1.98839e-09
2.60173e-10
-2.07435e-09
1.7127e-10
-2.10087e-09
9.9428e-11
-2.13781e-09
2.93706e-11
-2.1561e-09
-2.66258e-11
-2.1703e-09
2.84077e-11
-2.27953e-09
2.07517e-10
-2.40644e-09
3.16694e-10
-2.61783e-09
5.33068e-10
-2.86428e-09
7.92233e-10
-2.99267e-09
7.90384e-10
-3.08859e-09
7.80844e-10
-3.20387e-09
7.00567e-10
-3.27817e-09
5.02829e-10
-3.36873e-09
2.5778e-10
-3.46193e-09
2.04428e-10
-3.48692e-09
2.06493e-10
-3.42564e-09
-4.34706e-11
-3.29791e-09
-3.00813e-10
-3.14321e-09
-3.32222e-10
-2.87295e-09
-5.39612e-10
-2.72868e-09
-7.67611e-10
-2.52275e-09
-8.58178e-10
-2.2569e-09
-9.42154e-10
-2.07922e-09
-6.51151e-10
-1.86546e-09
-8.9792e-10
-1.60189e-09
-6.64008e-10
-1.44793e-09
-4.1399e-10
-1.35264e-09
-1.14942e-10
-1.38596e-09
1.67801e-10
-1.38112e-09
2.14568e-10
-1.47754e-09
2.51319e-10
-1.52932e-09
1.14938e-10
-1.57912e-09
6.59649e-11
-1.6634e-09
1.95516e-10
-1.71496e-09
1.29304e-10
-1.63844e-09
-9.64596e-11
-1.5523e-09
-1.60288e-10
-1.44203e-09
-2.17188e-10
-1.3345e-09
-3.78529e-10
-1.1629e-09
-5.56816e-10
-9.81609e-10
-5.48252e-10
-7.26154e-10
-6.02868e-10
-4.75142e-10
-6.43569e-10
-1.64618e-10
-6.98985e-10
1.22378e-10
-7.08786e-10
3.36872e-10
-6.13509e-10
3.83617e-10
-6.699e-10
5.96939e-10
-6.46879e-10
7.93863e-10
-6.84966e-10
9.02069e-10
-8.19604e-10
1.06544e-09
-4.54843e-10
1.24535e-09
-3.6833e-10
1.38274e-09
-3.5621e-10
1.5181e-09
-2.57203e-10
1.52771e-09
-2.36679e-10
1.49848e-09
-8.52706e-11
1.45269e-09
-1.57875e-11
1.40857e-09
4.65689e-11
1.3992e-09
1.32158e-10
1.36726e-09
2.00539e-10
1.32861e-09
2.73326e-10
1.25588e-09
3.86423e-10
1.07646e-09
3.63828e-10
9.65685e-10
4.78557e-10
7.83037e-10
4.60179e-10
5.91726e-10
5.06225e-10
3.77918e-10
5.76663e-10
-3.16251e-16
1.18533e-09
8.92855e-19
1.82562e-18
1.12243e-18
4.46538e-19
1.03808e-18
4.83786e-19
9.14803e-19
4.21689e-19
8.0749e-19
3.38931e-19
7.2853e-19
2.50753e-19
6.79132e-19
1.64865e-19
6.5685e-19
8.64392e-20
6.57584e-19
1.83785e-20
6.76701e-19
-3.7647e-20
7.09542e-19
-8.10885e-20
7.51689e-19
-1.1217e-19
7.99134e-19
-1.31639e-19
8.48353e-19
-1.40591e-19
8.96357e-19
-1.40351e-19
9.40689e-19
-1.32358e-19
9.7941e-19
-1.1808e-19
1.01106e-18
-9.89385e-20
1.03459e-18
-7.62373e-20
1.04925e-18
-5.11173e-20
1.05458e-18
-2.45534e-20
1.0504e-18
2.62234e-21
1.03673e-18
2.97085e-20
1.01384e-18
5.61362e-20
9.82147e-19
8.1477e-20
9.42246e-19
1.05438e-19
8.94879e-19
1.27838e-19
8.40881e-19
1.48581e-19
7.81119e-19
1.67619e-19
7.16415e-19
1.84915e-19
6.47498e-19
2.00419e-19
5.74969e-19
2.14065e-19
4.99295e-19
2.25788e-19
4.20841e-19
2.35554e-19
3.39927e-19
2.43385e-19
2.56903e-19
2.4937e-19
1.72212e-19
2.53652e-19
8.64355e-20
2.564e-19
2.57757e-19
-1.01587e-10
2.11432e-10
-1.83626e-10
2.47536e-10
-3.36347e-10
3.2684e-10
-5.81224e-10
4.28881e-10
-8.6408e-10
5.81041e-10
-1.16639e-09
6.94965e-10
-1.10984e-09
7.14987e-10
-1.23616e-09
9.82203e-10
-1.5749e-09
8.20761e-10
-1.73979e-09
6.95304e-10
-1.99293e-09
6.34207e-10
-2.12606e-09
5.30905e-10
-2.15719e-09
2.91306e-10
-2.28108e-09
2.95161e-10
-2.38188e-09
2.00229e-10
-2.46194e-09
1.09429e-10
-2.54441e-09
5.58531e-11
-2.62304e-09
1.07034e-10
-2.70134e-09
2.85817e-10
-2.77893e-09
3.94286e-10
-2.85649e-09
6.10627e-10
-2.99386e-09
9.29609e-10
-3.08754e-09
8.84064e-10
-3.13748e-09
8.3079e-10
-3.20148e-09
7.6456e-10
-3.27168e-09
5.73034e-10
-3.39433e-09
3.80432e-10
-3.44211e-09
2.5221e-10
-3.4018e-09
1.6618e-10
-3.2731e-09
-1.7217e-10
-3.13913e-09
-4.34785e-10
-3.01091e-09
-4.60435e-10
-2.89612e-09
-6.54409e-10
-2.82191e-09
-8.4182e-10
-2.48219e-09
-1.19789e-09
-2.3125e-09
-1.11184e-09
-2.06747e-09
-8.96186e-10
-1.9808e-09
-9.84582e-10
-1.72171e-09
-9.23099e-10
-1.65438e-09
-4.81318e-10
-1.45658e-09
-3.12746e-10
-1.308e-09
1.92257e-11
-1.25782e-09
1.64387e-10
-1.29507e-09
2.88572e-10
-1.4347e-09
2.54567e-10
-1.57738e-09
2.08647e-10
-1.62562e-09
2.43754e-10
-1.59544e-09
9.91333e-11
-1.50836e-09
-1.8354e-10
-1.43147e-09
-2.37177e-10
-1.32978e-09
-3.18881e-10
-1.21976e-09
-4.88548e-10
-1.07476e-09
-7.01806e-10
-7.70014e-10
-8.53e-10
-5.10757e-10
-8.62124e-10
-2.78503e-10
-8.75821e-10
-1.09413e-10
-8.68074e-10
8.48063e-11
-9.03005e-10
3.33342e-10
-8.62045e-10
4.15274e-10
-7.51833e-10
5.21191e-10
-7.52796e-10
6.43892e-10
-8.07669e-10
6.89399e-10
-8.65113e-10
9.40254e-10
-7.05699e-10
1.13293e-09
-5.61009e-10
1.21154e-09
-4.34825e-10
1.24363e-09
-2.89285e-10
1.28257e-09
-2.75622e-10
1.29013e-09
-9.28324e-11
1.29774e-09
-2.33969e-11
1.29876e-09
4.5547e-11
1.28969e-09
1.41231e-10
1.28793e-09
2.02298e-10
1.29577e-09
2.65482e-10
1.22314e-09
4.59062e-10
1.10558e-09
4.81383e-10
9.59763e-10
6.24377e-10
7.76881e-10
6.43061e-10
6.06743e-10
6.76363e-10
4.32205e-10
7.51202e-10
-5.73298e-16
1.61754e-09
1.5697e-18
4.76691e-18
1.16037e-18
8.56933e-19
9.76646e-19
6.69657e-19
8.32678e-19
5.67879e-19
7.19918e-19
4.53753e-19
6.42963e-19
3.29613e-19
6.00706e-19
2.08623e-19
5.88789e-19
9.94451e-20
6.01559e-19
6.25397e-21
6.33259e-19
-6.92357e-20
6.7846e-19
-1.26844e-19
7.32221e-19
-1.67275e-19
7.90181e-19
-1.91789e-19
8.48594e-19
-2.02018e-19
9.0435e-19
-1.99828e-19
9.54967e-19
-1.87208e-19
9.98552e-19
-1.66169e-19
1.03376e-18
-1.38661e-19
1.05971e-18
-1.06488e-19
1.07581e-18
-7.12369e-20
1.08176e-18
-3.42525e-20
1.07748e-18
3.33568e-21
1.06316e-18
4.05891e-20
1.03918e-18
7.67578e-20
1.00611e-18
1.11283e-19
9.64646e-19
1.43785e-19
9.15622e-19
1.74027e-19
8.59919e-19
2.01879e-19
7.98415e-19
2.27276e-19
7.31919e-19
2.50184e-19
6.61145e-19
2.70575e-19
5.86692e-19
2.8842e-19
5.0906e-19
3.037e-19
4.28672e-19
3.16427e-19
3.45912e-19
3.26669e-19
2.61185e-19
3.34553e-19
1.7496e-19
3.40254e-19
8.77919e-20
3.43954e-19
3.45791e-19
-9.24636e-11
3.03894e-10
-1.37006e-10
2.92076e-10
-1.56099e-10
3.45931e-10
-2.09913e-10
4.82693e-10
-5.35074e-10
9.06201e-10
-1.11634e-09
1.27623e-09
-1.51338e-09
1.11203e-09
-1.48522e-09
9.54038e-10
-1.64674e-09
9.82281e-10
-1.97253e-09
1.02109e-09
-2.15705e-09
8.18734e-10
-2.29429e-09
6.68143e-10
-2.40588e-09
4.02893e-10
-2.48917e-09
3.78459e-10
-2.66489e-09
3.75939e-10
-2.78143e-09
2.25969e-10
-2.85925e-09
1.3368e-10
-2.99489e-09
2.4267e-10
-3.06346e-09
3.54391e-10
-3.12963e-09
4.60459e-10
-3.13907e-09
6.20064e-10
-3.09704e-09
8.8758e-10
-3.15953e-09
9.46553e-10
-3.19598e-09
8.67241e-10
-3.18728e-09
7.55855e-10
-3.24575e-09
6.31506e-10
-3.31957e-09
4.54257e-10
-3.25657e-09
1.89212e-10
-3.17371e-09
8.33206e-11
-3.03986e-09
-3.06023e-10
-2.97375e-09
-5.00895e-10
-2.90252e-09
-5.31671e-10
-2.76589e-09
-7.91038e-10
-2.63403e-09
-9.73674e-10
-2.64117e-09
-1.19075e-09
-2.63322e-09
-1.11979e-09
-2.416e-09
-1.1134e-09
-2.30474e-09
-1.09584e-09
-2.19215e-09
-1.03569e-09
-2.01869e-09
-6.54778e-10
-1.77847e-09
-5.52963e-10
-1.48541e-09
-2.73833e-10
-1.58187e-09
2.60855e-10
-1.46778e-09
1.74476e-10
-1.59574e-09
3.82531e-10
-1.64408e-09
2.56987e-10
-1.59704e-09
1.96725e-10
-1.54088e-09
4.29672e-11
-1.45287e-09
-2.71546e-10
-1.37361e-09
-3.16436e-10
-1.32052e-09
-3.71968e-10
-1.25842e-09
-5.50643e-10
-1.09795e-09
-8.62274e-10
-1.01444e-09
-9.36512e-10
-9.89302e-10
-8.8726e-10
-8.62556e-10
-1.00257e-09
-7.11583e-10
-1.01905e-09
-5.02186e-10
-1.1124e-09
-1.84672e-10
-1.17956e-09
1.18894e-10
-1.0554e-09
3.48356e-10
-9.82259e-10
5.30024e-10
-9.89337e-10
5.5746e-10
-8.9255e-10
6.2295e-10
-7.7119e-10
7.65249e-10
-7.03308e-10
8.72966e-10
-5.42543e-10
9.60898e-10
-3.77218e-10
9.50972e-10
-2.65697e-10
9.93858e-10
-1.35719e-10
1.02981e-09
-5.9351e-11
1.05612e-09
1.9243e-11
1.11598e-09
8.13738e-11
1.14908e-09
1.69197e-10
1.17996e-09
2.34598e-10
1.12678e-09
5.12246e-10
1.02318e-09
5.84984e-10
9.60383e-10
6.87181e-10
7.26939e-10
8.76507e-10
4.08955e-10
9.94348e-10
2.42527e-10
9.17632e-10
-7.09355e-16
1.86007e-09
6.46961e-19
3.97744e-18
9.73795e-19
5.31095e-19
8.75524e-19
7.70258e-19
7.19177e-19
7.26645e-19
5.96377e-19
5.78652e-19
5.22233e-19
4.05642e-19
4.91528e-19
2.40802e-19
4.95598e-19
9.64487e-20
5.26069e-19
-2.35296e-20
5.75652e-19
-1.18566e-19
6.38028e-19
-1.8955e-19
7.07706e-19
-2.38048e-19
7.79953e-19
-2.66027e-19
8.50784e-19
-2.75761e-19
9.1697e-19
-2.69758e-19
9.76006e-19
-2.50629e-19
1.02606e-18
-2.20987e-19
1.06594e-18
-1.83354e-19
1.09496e-18
-1.40074e-19
1.11279e-18
-9.32183e-20
1.11935e-18
-4.45316e-20
1.11474e-18
4.54704e-21
1.09933e-18
5.28446e-20
1.07371e-18
9.94361e-20
1.03861e-18
1.4364e-19
9.94888e-19
1.84999e-19
9.43474e-19
2.23238e-19
8.85316e-19
2.58217e-19
8.21323e-19
2.89885e-19
7.52311e-19
3.18246e-19
6.7899e-19
3.43328e-19
6.01972e-19
3.65173e-19
5.21787e-19
3.83832e-19
4.38914e-19
3.99383e-19
3.53796e-19
4.11939e-19
2.66885e-19
4.21662e-19
1.7866e-19
4.28744e-19
8.96296e-20
4.3337e-19
4.35669e-19
-1.59308e-10
4.632e-10
-3.21498e-10
4.54265e-10
-5.00102e-10
5.24535e-10
-5.97909e-10
5.80499e-10
-5.98166e-10
9.06457e-10
-6.88363e-10
1.36643e-09
-1.13056e-09
1.55423e-09
-1.54673e-09
1.37021e-09
-1.72051e-09
1.15605e-09
-1.90074e-09
1.20132e-09
-2.17044e-09
1.08843e-09
-2.29238e-09
7.90077e-10
-2.50477e-09
6.15285e-10
-2.65672e-09
5.3041e-10
-2.81858e-09
5.37796e-10
-2.92601e-09
3.33393e-10
-3.04122e-09
2.48894e-10
-3.1437e-09
3.45151e-10
-3.1557e-09
3.66389e-10
-3.17153e-09
4.7629e-10
-3.17356e-09
6.22093e-10
-3.09353e-09
8.07552e-10
-3.12687e-09
9.79889e-10
-3.18754e-09
9.27916e-10
-3.08505e-09
6.53362e-10
-3.02516e-09
5.71618e-10
-2.98239e-09
4.11485e-10
-2.87787e-09
8.47004e-11
-2.82899e-09
3.44338e-11
-2.8865e-09
-2.48513e-10
-2.89825e-09
-4.8914e-10
-2.85771e-09
-5.72215e-10
-2.7693e-09
-8.79443e-10
-2.66927e-09
-1.07371e-09
-2.71983e-09
-1.14019e-09
-2.76341e-09
-1.07621e-09
-2.72675e-09
-1.15006e-09
-2.71514e-09
-1.10744e-09
-2.67868e-09
-1.07215e-09
-2.61582e-09
-7.1764e-10
-2.54341e-09
-6.25367e-10
-2.35479e-09
-4.62445e-10
-2.26782e-09
1.73881e-10
-2.08844e-09
-4.89782e-12
-1.79817e-09
9.22675e-11
-1.84345e-09
3.02271e-10
-1.65379e-09
7.0603e-12
-1.5927e-09
-1.81198e-11
-1.57265e-09
-2.91589e-10
-1.49502e-09
-3.94069e-10
-1.44989e-09
-4.17094e-10
-1.43088e-09
-5.69651e-10
-1.4781e-09
-8.15049e-10
-1.55768e-09
-8.56934e-10
-1.50724e-09
-9.37707e-10
-1.43752e-09
-1.07228e-09
-1.29047e-09
-1.1661e-09
-1.15312e-09
-1.24976e-09
-9.18944e-10
-1.41374e-09
-6.32128e-10
-1.34222e-09
-3.08243e-10
-1.30614e-09
7.1143e-11
-1.36872e-09
3.24138e-10
-1.14555e-09
4.64471e-10
-9.11524e-10
5.47618e-10
-7.86456e-10
5.78002e-10
-5.72928e-10
6.56561e-10
-4.55777e-10
6.84255e-10
-2.93391e-10
7.54759e-10
-2.06222e-10
8.07288e-10
-1.1188e-10
8.82092e-10
-5.55607e-11
9.28201e-10
3.5266e-11
9.68879e-10
1.28521e-10
9.75922e-10
2.27557e-10
1.00477e-09
4.83402e-10
9.66798e-10
6.22956e-10
9.30335e-10
7.23646e-10
8.27908e-10
9.78937e-10
7.62251e-10
1.06001e-09
4.83421e-10
1.19646e-09
-7.10928e-16
2.34349e-09
1.54267e-18
5.7515e-18
1.21361e-18
8.61251e-19
8.32546e-19
1.15369e-18
5.71797e-19
9.89986e-19
4.23956e-19
7.28606e-19
3.57577e-19
4.73816e-19
3.47175e-19
2.52543e-19
3.7562e-19
6.89079e-20
4.31032e-19
-7.84414e-20
5.04668e-19
-1.92065e-19
5.8953e-19
-2.74704e-19
6.79728e-19
-3.29134e-19
7.70218e-19
-3.58207e-19
8.56788e-19
-3.64941e-19
9.36099e-19
-3.5256e-19
1.00565e-18
-3.24393e-19
1.06369e-18
-2.83725e-19
1.10921e-18
-2.33706e-19
1.14181e-18
-1.77265e-19
1.16148e-18
-1.16997e-19
1.16842e-18
-5.50768e-20
1.16303e-18
6.73876e-21
1.14592e-18
6.70571e-20
1.11791e-18
1.24804e-19
1.07997e-18
1.792e-19
1.03313e-18
2.29736e-19
9.78453e-19
2.76129e-19
9.16985e-19
3.18257e-19
8.49683e-19
3.56118e-19
7.77393e-19
3.89783e-19
7.00835e-19
4.19368e-19
6.20631e-19
4.4501e-19
5.37338e-19
4.66853e-19
4.5147e-19
4.85052e-19
3.6352e-19
4.99779e-19
2.73967e-19
5.1123e-19
1.83286e-19
5.19609e-19
9.19287e-20
5.25102e-19
5.27827e-19
-2.84709e-11
4.91671e-10
-1.4104e-10
5.66834e-10
-4.55154e-10
8.38648e-10
-9.27077e-10
1.05242e-09
-1.34965e-09
1.32903e-09
-1.43795e-09
1.45472e-09
-1.46035e-09
1.57663e-09
-1.57893e-09
1.48879e-09
-1.8308e-09
1.40792e-09
-1.98692e-09
1.35744e-09
-2.1053e-09
1.20681e-09
-2.24767e-09
9.3245e-10
-2.41188e-09
7.7949e-10
-2.59283e-09
7.11363e-10
-2.731e-09
6.75961e-10
-2.87237e-09
4.74759e-10
-3.01214e-09
3.88665e-10
-3.09372e-09
4.26732e-10
-3.12628e-09
3.9895e-10
-3.13716e-09
4.87172e-10
-3.09515e-09
5.8008e-10
-3.04412e-09
7.56526e-10
-3.01672e-09
9.52491e-10
-3.00464e-09
9.15834e-10
-2.8813e-09
5.30019e-10
-2.73424e-09
4.24567e-10
-2.59289e-09
2.70131e-10
-2.51555e-09
7.36138e-12
-2.43474e-09
-4.6371e-11
-2.50892e-09
-1.74335e-10
-2.57539e-09
-4.22671e-10
-2.56414e-09
-5.83467e-10
-2.59259e-09
-8.50984e-10
-2.68931e-09
-9.76994e-10
-2.83855e-09
-9.90944e-10
-2.81341e-09
-1.10134e-09
-2.83427e-09
-1.12921e-09
-2.90236e-09
-1.03935e-09
-2.98255e-09
-9.91947e-10
-3.02588e-09
-6.74315e-10
-2.95526e-09
-6.95984e-10
-2.89761e-09
-5.20091e-10
-2.57317e-09
-1.50549e-10
-2.43089e-09
-1.47175e-10
-2.29174e-09
-4.68869e-11
-2.15148e-09
1.62022e-10
-1.91502e-09
-2.29402e-10
-1.82969e-09
-1.03449e-10
-1.80595e-09
-3.15323e-10
-1.76327e-09
-4.3675e-10
-1.70286e-09
-4.77507e-10
-1.71923e-09
-5.53277e-10
-1.76206e-09
-7.72216e-10
-1.69507e-09
-9.23932e-10
-1.7196e-09
-9.13172e-10
-1.66189e-09
-1.12999e-09
-1.56747e-09
-1.26051e-09
-1.43529e-09
-1.38194e-09
-1.31402e-09
-1.535e-09
-1.11068e-09
-1.54556e-09
-8.39757e-10
-1.57706e-09
-5.69433e-10
-1.63905e-09
-3.68802e-10
-1.34618e-09
-1.06724e-10
-1.1736e-09
1.62711e-10
-1.05589e-09
3.48343e-10
-7.5856e-10
3.97766e-10
-5.052e-10
4.36876e-10
-3.325e-10
4.99426e-10
-2.68773e-10
5.87016e-10
-1.99469e-10
6.49429e-10
-1.17972e-10
7.18778e-10
-3.40819e-11
8.06988e-10
4.03129e-11
7.8155e-10
2.52997e-10
7.78682e-10
4.86273e-10
7.77898e-10
6.23743e-10
7.38807e-10
7.6274e-10
6.59336e-10
1.05841e-09
5.06191e-10
1.21315e-09
3.79175e-10
1.32348e-09
-5.614e-16
2.72267e-09
3.36383e-18
1.74105e-17
1.50666e-18
2.71972e-18
6.69451e-19
1.99296e-18
3.11014e-19
1.3509e-18
1.69742e-19
8.71714e-19
1.36404e-19
5.08596e-19
1.6354e-19
2.26438e-19
2.28271e-19
4.79622e-21
3.17408e-19
-1.67407e-19
4.2203e-19
-2.96864e-19
5.351e-19
-3.88261e-19
6.50655e-19
-4.45543e-19
7.63484e-19
-4.72468e-19
8.69168e-19
-4.72855e-19
9.64266e-19
-4.50735e-19
1.04632e-18
-4.10253e-19
1.11371e-18
-3.55474e-19
1.16566e-18
-2.9025e-19
1.20208e-18
-2.18142e-19
1.2234e-18
-1.42303e-19
1.23024e-18
-6.53591e-20
1.22335e-18
1.06151e-20
1.20367e-18
8.40329e-20
1.17231e-18
1.53712e-19
1.1305e-18
2.18823e-19
1.07952e-18
2.78848e-19
1.02058e-18
3.33528e-19
9.54845e-19
3.82804e-19
8.83348e-19
4.26755e-19
8.06978e-19
4.65553e-19
7.26476e-19
4.99427e-19
6.42474e-19
5.2863e-19
5.55536e-19
5.53419e-19
4.66197e-19
5.74041e-19
3.7497e-19
5.9074e-19
2.82347e-19
6.03751e-19
1.88778e-19
6.13299e-19
9.46532e-20
6.19565e-19
6.22665e-19
-3.30993e-10
8.22664e-10
-4.02209e-10
6.38051e-10
-3.21351e-10
7.57791e-10
-5.42401e-10
1.27347e-09
-9.03325e-10
1.68996e-09
-1.28632e-09
1.83772e-09
-1.50863e-09
1.79894e-09
-1.59035e-09
1.57051e-09
-1.67467e-09
1.49225e-09
-1.78786e-09
1.47062e-09
-1.92154e-09
1.34049e-09
-2.1251e-09
1.13601e-09
-2.25838e-09
9.12773e-10
-2.40112e-09
8.54103e-10
-2.49729e-09
7.72122e-10
-2.61431e-09
5.91779e-10
-2.75617e-09
5.30532e-10
-2.88573e-09
5.56282e-10
-2.9771e-09
4.90329e-10
-3.00133e-09
5.11397e-10
-2.97324e-09
5.5199e-10
-2.86927e-09
6.5256e-10
-2.74798e-09
8.31203e-10
-2.5975e-09
7.65354e-10
-2.50223e-09
4.34752e-10
-2.34586e-09
2.68196e-10
-2.22458e-09
1.48856e-10
-2.20411e-09
-1.31041e-11
-2.16355e-09
-8.69299e-11
-2.17736e-09
-1.60528e-10
-2.24958e-09
-3.5045e-10
-2.35129e-09
-4.81759e-10
-2.58806e-09
-6.14212e-10
-2.81038e-09
-7.54678e-10
-2.86883e-09
-9.32488e-10
-2.89016e-09
-1.08001e-09
-2.96086e-09
-1.05851e-09
-3.03248e-09
-9.6772e-10
-3.12343e-09
-9.00994e-10
-3.13675e-09
-6.60994e-10
-3.20965e-09
-6.23076e-10
-3.18304e-09
-5.46702e-10
-3.063e-09
-2.7059e-10
-2.90962e-09
-3.00554e-10
-2.96423e-09
7.72441e-12
-2.65797e-09
-1.44235e-10
-2.39548e-09
-4.91891e-10
-2.22681e-09
-2.7211e-10
-2.05329e-09
-4.88842e-10
-1.97859e-09
-5.11451e-10
-1.88767e-09
-5.6843e-10
-1.80937e-09
-6.31579e-10
-1.812e-09
-7.69589e-10
-1.78979e-09
-9.46139e-10
-1.81034e-09
-8.9262e-10
-1.75641e-09
-1.18393e-09
-1.70742e-09
-1.3095e-09
-1.61738e-09
-1.47198e-09
-1.4936e-09
-1.65879e-09
-1.25041e-09
-1.78875e-09
-1.02915e-09
-1.79832e-09
-8.99998e-10
-1.7682e-09
-7.27028e-10
-1.51915e-09
-5.75725e-10
-1.3249e-09
-4.41242e-10
-1.19037e-09
-2.29101e-10
-9.70701e-10
2.67736e-11
-7.61075e-10
2.19969e-10
-5.25696e-10
2.66344e-10
-3.15148e-10
3.40832e-10
-2.73957e-10
4.27563e-10
-2.04703e-10
5.59675e-10
-1.66194e-10
5.80116e-10
1.98736e-11
6.13683e-10
2.19431e-10
6.79806e-10
4.20152e-10
6.95445e-10
6.08105e-10
6.59737e-10
7.9845e-10
6.29021e-10
1.08913e-09
6.24993e-10
1.21718e-09
6.30475e-10
1.318e-09
4.36032e-14
3.3531e-09
4.14802e-18
4.3964e-14
7.8048e-19
6.08869e-18
2.79882e-20
2.74639e-18
-1.67594e-19
1.54838e-18
-1.92834e-19
8.98098e-19
-1.45727e-19
4.62039e-19
-5.81021e-20
1.38965e-19
5.60676e-20
-1.09492e-19
1.87951e-19
-2.99795e-19
3.30633e-19
-4.40334e-19
4.77818e-19
-5.36435e-19
6.2373e-19
-5.9258e-19
7.63097e-19
-6.13222e-19
8.91287e-19
-6.03006e-19
1.00475e-18
-5.66878e-19
1.10109e-18
-5.09952e-19
1.17894e-18
-4.3722e-19
1.23776e-18
-3.53344e-19
1.27792e-18
-2.62565e-19
1.30034e-18
-1.68614e-19
1.30621e-18
-7.45744e-20
1.29677e-18
1.71725e-20
1.27335e-18
1.04877e-19
1.23742e-18
1.87306e-19
1.19053e-18
2.63642e-19
1.1342e-18
3.3342e-19
1.06986e-18
3.96465e-19
9.98796e-19
4.52821e-19
9.22146e-19
5.02691e-19
8.40852e-19
5.46383e-19
7.5568e-19
5.84265e-19
6.67263e-19
6.16729e-19
5.76159e-19
6.4416e-19
4.82896e-19
6.66917e-19
3.87982e-19
6.85325e-19
2.91894e-19
6.99674e-19
1.95045e-19
7.10212e-19
9.77525e-20
7.17128e-19
7.20538e-19
2.38791e-10
5.83873e-10
1.13145e-10
7.63699e-10
-2.42004e-10
1.11294e-09
-4.17727e-10
1.4492e-09
-5.14497e-10
1.78673e-09
-8.4532e-10
2.16854e-09
-1.10787e-09
2.06149e-09
-1.42359e-09
1.88622e-09
-1.60744e-09
1.6761e-09
-1.75667e-09
1.61986e-09
-1.76692e-09
1.35074e-09
-1.89882e-09
1.26791e-09
-2.04262e-09
1.05657e-09
-2.14674e-09
9.5823e-10
-2.1522e-09
7.77582e-10
-2.27167e-09
7.11244e-10
-2.38922e-09
6.48085e-10
-2.45696e-09
6.24024e-10
-2.57232e-09
6.0569e-10
-2.6024e-09
5.41479e-10
-2.61719e-09
5.66778e-10
-2.53454e-09
5.6991e-10
-2.33841e-09
6.35076e-10
-2.14849e-09
5.75441e-10
-2.03695e-09
3.23209e-10
-1.94227e-09
1.7352e-10
-1.88714e-09
9.37294e-11
-1.88929e-09
-1.09518e-11
-1.89538e-09
-8.08339e-11
-1.91805e-09
-1.37863e-10
-2.00541e-09
-2.63092e-10
-2.09299e-09
-3.94168e-10
-2.24453e-09
-4.62676e-10
-2.43502e-09
-5.64188e-10
-2.66418e-09
-7.03327e-10
-2.8854e-09
-8.58791e-10
-2.98985e-09
-9.54053e-10
-3.06872e-09
-8.88849e-10
-3.16195e-09
-8.07764e-10
-3.17e-09
-6.52949e-10
-3.23174e-09
-5.61328e-10
-3.27549e-09
-5.02955e-10
-3.17979e-09
-3.66283e-10
-3.1088e-09
-3.71549e-10
-2.97369e-09
-1.27375e-10
-2.69724e-09
-4.20687e-10
-2.54509e-09
-6.44041e-10
-2.27486e-09
-5.42345e-10
-2.11147e-09
-6.52228e-10
-2.02256e-09
-6.00361e-10
-1.92782e-09
-6.63169e-10
-1.84469e-09
-7.14706e-10
-1.8373e-09
-7.76982e-10
-1.84147e-09
-9.41974e-10
-1.8203e-09
-9.13785e-10
-1.80534e-09
-1.1989e-09
-1.78631e-09
-1.32853e-09
-1.68539e-09
-1.57289e-09
-1.57856e-09
-1.76562e-09
-1.49993e-09
-1.86738e-09
-1.36378e-09
-1.93447e-09
-1.199e-09
-1.93299e-09
-9.94921e-10
-1.72322e-09
-8.74665e-10
-1.44516e-09
-7.96939e-10
-1.2681e-09
-6.25548e-10
-1.14209e-09
-4.00893e-10
-9.85731e-10
-1.51771e-10
-7.74818e-10
3.04732e-11
-4.97393e-10
1.34949e-10
-3.78434e-10
2.11132e-10
-2.80888e-10
2.9761e-10
-2.52672e-10
3.63208e-10
-4.57244e-11
3.91163e-10
1.91477e-10
4.87886e-10
3.23431e-10
5.50335e-10
5.45658e-10
6.16738e-10
7.32049e-10
5.85765e-10
1.1201e-09
5.76977e-10
1.22597e-09
4.48038e-10
1.44694e-09
1.15786e-10
3.68536e-09
-4.58486e-18
1.1583e-10
-2.31442e-18
4.29226e-18
-1.16947e-18
1.60246e-18
-8.17316e-19
1.19828e-18
-6.28434e-19
7.10628e-19
-4.68801e-19
3.02904e-19
-3.06559e-19
-2.35109e-20
-1.34235e-19
-2.82449e-19
4.74124e-20
-4.82588e-19
2.34532e-19
-6.28933e-19
4.21673e-19
-7.25265e-19
6.03088e-19
-7.75688e-19
7.73313e-19
-7.85097e-19
9.27415e-19
-7.59044e-19
1.06167e-18
-7.03612e-19
1.17383e-18
-6.25123e-19
1.26281e-18
-5.29718e-19
1.32854e-18
-4.23018e-19
1.37187e-18
-3.10015e-19
1.39438e-18
-1.95014e-19
1.39796e-18
-8.15299e-20
1.38447e-18
2.77795e-20
1.35578e-18
1.31047e-19
1.31375e-18
2.27053e-19
1.26031e-18
3.15076e-19
1.19725e-18
3.94787e-19
1.12621e-18
4.66162e-19
1.04867e-18
5.29414e-19
9.65838e-19
5.84916e-19
8.78734e-19
6.3315e-19
7.88144e-19
6.74654e-19
6.94694e-19
7.09984e-19
5.98916e-19
7.39669e-19
5.01304e-19
7.64194e-19
4.02331e-19
7.83981e-19
3.02432e-19
7.99385e-19
2.01962e-19
8.1069e-19
1.01162e-19
8.181e-19
8.21743e-19
-1.78143e-10
7.62018e-10
-4.83065e-10
1.06862e-09
-6.63787e-10
1.29366e-09
-9.49407e-10
1.73482e-09
-1.08135e-09
1.91868e-09
-1.00326e-09
2.09045e-09
-1.14248e-09
2.20071e-09
-1.30913e-09
2.05287e-09
-1.43478e-09
1.80176e-09
-1.55828e-09
1.74335e-09
-1.61016e-09
1.40262e-09
-1.66437e-09
1.32212e-09
-1.74931e-09
1.14151e-09
-1.85505e-09
1.06397e-09
-1.9283e-09
8.50836e-10
-2.02109e-09
8.04033e-10
-2.08117e-09
7.0816e-10
-2.12057e-09
6.63433e-10
-2.1535e-09
6.38614e-10
-2.15487e-09
5.42855e-10
-2.15579e-09
5.67703e-10
-2.08606e-09
5.00182e-10
-1.90881e-09
4.57823e-10
-1.76287e-09
4.29505e-10
-1.68996e-09
2.50303e-10
-1.65638e-09
1.39945e-10
-1.66136e-09
9.87137e-11
-1.68646e-09
1.41483e-11
-1.71299e-09
-5.43063e-11
-1.75297e-09
-9.78724e-11
-1.83539e-09
-1.80679e-10
-1.91592e-09
-3.13633e-10
-2.05358e-09
-3.25019e-10
-2.23842e-09
-3.79339e-10
-2.44272e-09
-4.99026e-10
-2.76056e-09
-5.40952e-10
-2.94521e-09
-7.69403e-10
-3.04186e-09
-7.92206e-10
-3.09238e-09
-7.57243e-10
-3.07376e-09
-6.71567e-10
-3.09077e-09
-5.44317e-10
-3.10211e-09
-4.91612e-10
-3.04087e-09
-4.27527e-10
-3.12491e-09
-2.87511e-10
-2.93999e-09
-3.12288e-10
-2.58134e-09
-7.79336e-10
-2.53587e-09
-6.89518e-10
-2.23133e-09
-8.46884e-10
-2.07717e-09
-8.06383e-10
-2.00968e-09
-6.67858e-10
-1.91136e-09
-7.6149e-10
-1.83229e-09
-7.93781e-10
-1.79743e-09
-8.11839e-10
-1.83002e-09
-9.09385e-10
-1.81002e-09
-9.3379e-10
-1.78566e-09
-1.22325e-09
-1.84862e-09
-1.26557e-09
-1.74013e-09
-1.68138e-09
-1.71562e-09
-1.79013e-09
-1.66576e-09
-1.91724e-09
-1.63534e-09
-1.9649e-09
-1.58514e-09
-1.98319e-09
-1.50546e-09
-1.80289e-09
-1.36997e-09
-1.58066e-09
-1.1719e-09
-1.46617e-09
-9.31675e-10
-1.38231e-09
-7.5287e-10
-1.16454e-09
-5.70122e-10
-9.57568e-10
-3.14929e-10
-7.52587e-10
-1.1594e-10
-5.77424e-10
1.13621e-11
-4.08191e-10
4.67615e-11
-2.88072e-10
1.31996e-10
-1.3096e-10
2.46974e-10
7.64991e-11
3.74921e-10
1.95485e-10
3.7373e-10
5.4685e-10
3.76338e-10
7.29442e-10
4.10536e-10
1.08591e-09
3.37072e-10
1.29944e-09
2.58215e-10
1.5258e-09
4.35477e-10
3.50809e-09
1.36116e-15
5.51305e-10
-1.44132e-18
3.14522e-18
-1.57314e-18
1.73467e-18
-1.30444e-18
9.29241e-19
-1.0358e-18
4.42201e-19
-7.95215e-19
6.24097e-20
-5.65498e-19
-2.53622e-19
-3.34375e-19
-5.14264e-19
-9.89323e-20
-7.19362e-19
1.38199e-19
-8.67898e-19
3.7125e-19
-9.60525e-19
5.93679e-19
-1.00038e-18
7.99366e-19
-9.92809e-19
9.82847e-19
-9.44609e-19
1.14016e-18
-8.63396e-19
1.26923e-18
-7.57078e-19
1.36951e-18
-6.33257e-19
1.44155e-18
-4.98737e-19
1.48687e-18
-3.59351e-19
1.50787e-18
-2.19968e-19
1.50727e-18
-8.44638e-20
1.48774e-18
4.43037e-20
1.45178e-18
1.64427e-19
1.40178e-18
2.74785e-19
1.34002e-18
3.74846e-19
1.26862e-18
4.64516e-19
1.18947e-18
5.4402e-19
1.10417e-18
6.13809e-19