/*--------------------------------*- C++ -*----------------------------------*\
  =========                 |
  \\      /  F ield         | OpenFOAM: The Open Source CFD Toolbox
   \\    /   O peration     | Website:  https://openfoam.org
    \\  /    A nd           | Version:  6
     \\/     M anipulation  |
\*---------------------------------------------------------------------------*/
FoamFile
{
    version     2.0;
    format      ascii;
    class       volScalarField;
    location    "2400";
    object      T;
}
// * * * * * * * * * * * * * * * * * * * * * * * * * * * * * * * * * * * * * //

dimensions      [0 0 0 1 0 0 0];

internalField   nonuniform List<scalar> 
4800
(
552.487
552.361
552.236
552.111
551.989
551.868
551.75
551.635
551.526
551.423
551.327
551.237
551.154
551.077
551.006
550.94
550.879
550.822
550.767
550.716
550.666
550.618
550.571
550.527
550.484
550.442
550.402
550.364
550.326
550.289
550.252
550.215
550.177
550.139
550.099
550.058
550.014
549.968
549.92
549.868
549.813
549.754
549.692
549.627
549.56
549.491
549.419
549.346
549.272
549.196
549.119
549.041
548.963
548.883
548.803
548.721
548.639
548.555
548.469
548.383
548.294
548.204
548.112
548.016
547.917
547.814
547.707
547.595
547.478
547.355
547.225
547.089
546.945
546.794
546.636
546.471
546.301
546.125
545.946
545.767
545.588
545.414
545.247
545.088
544.934
544.786
544.644
544.505
544.37
544.237
544.107
543.979
543.853
543.727
543.603
543.48
543.357
543.235
543.114
542.993
542.872
542.751
542.631
542.511
542.392
542.272
542.153
542.034
541.915
541.796
541.677
541.558
541.439
541.321
541.202
541.083
540.965
540.846
540.728
540.609
552.487
552.361
552.235
552.111
551.988
551.866
551.748
551.634
551.525
551.422
551.326
551.236
551.154
551.077
551.007
550.942
550.881
550.824
550.769
550.718
550.668
550.621
550.575
550.531
550.488
550.448
550.409
550.371
550.333
550.297
550.26
550.223
550.185
550.147
550.107
550.065
550.022
549.975
549.926
549.874
549.818
549.76
549.698
549.633
549.566
549.496
549.425
549.351
549.277
549.201
549.124
549.046
548.967
548.887
548.806
548.723
548.64
548.555
548.469
548.381
548.292
548.201
548.107
548.011
547.911
547.808
547.7
547.588
547.47
547.347
547.217
547.081
546.937
546.787
546.629
546.465
546.294
546.118
545.94
545.76
545.581
545.407
545.24
545.081
544.928
544.781
544.639
544.501
544.367
544.235
544.105
543.978
543.851
543.726
543.602
543.479
543.356
543.234
543.113
542.992
542.871
542.751
542.631
542.511
542.392
542.272
542.153
542.034
541.915
541.796
541.677
541.558
541.439
541.321
541.202
541.083
540.965
540.846
540.728
540.609
552.487
552.361
552.235
552.11
551.986
551.864
551.746
551.632
551.524
551.422
551.327
551.238
551.156
551.08
551.01
550.945
550.885
550.828
550.775
550.724
550.675
550.628
550.583
550.54
550.499
550.46
550.422
550.384
550.348
550.312
550.275
550.239
550.201
550.163
550.123
550.08
550.036
549.988
549.938
549.886
549.83
549.77
549.708
549.644
549.576
549.507
549.435
549.362
549.287
549.211
549.133
549.055
548.974
548.893
548.811
548.727
548.642
548.555
548.467
548.378
548.286
548.193
548.097
547.999
547.898
547.794
547.685
547.572
547.454
547.33
547.2
547.064
546.921
546.772
546.615
546.451
546.28
546.104
545.925
545.744
545.565
545.391
545.225
545.067
544.916
544.771
544.631
544.494
544.361
544.23
544.101
543.974
543.848
543.724
543.6
543.477
543.355
543.233
543.112
542.991
542.871
542.75
542.63
542.511
542.391
542.272
542.152
542.033
541.914
541.795
541.677
541.558
541.439
541.32
541.202
541.083
540.965
540.846
540.728
540.609
552.487
552.36
552.234
552.109
551.985
551.863
551.746
551.633
551.526
551.424
551.33
551.242
551.161
551.086
551.017
550.953
550.893
550.837
550.784
550.734
550.687
550.641
550.598
550.556
550.516
550.478
550.441
550.405
550.369
550.334
550.298
550.262
550.225
550.186
550.145
550.102
550.056
550.008
549.957
549.903
549.846
549.787
549.724
549.659
549.592
549.522
549.451
549.377
549.302
549.226
549.147
549.067
548.985
548.902
548.817
548.73
548.642
548.553
548.462
548.37
548.276
548.18
548.082
547.981
547.879
547.773
547.663
547.548
547.429
547.305
547.175
547.04
546.897
546.749
546.593
546.429
546.259
546.083
545.903
545.721
545.541
545.366
545.201
545.045
544.897
544.755
544.618
544.484
544.352
544.223
544.095
543.969
543.844
543.72
543.597
543.475
543.353
543.231
543.11
542.99
542.869
542.749
542.629
542.51
542.39
542.271
542.152
542.033
541.914
541.795
541.676
541.557
541.439
541.32
541.202
541.083
540.965
540.846
540.728
540.609
552.487
552.361
552.235
552.11
551.987
551.865
551.748
551.636
551.53
551.43
551.337
551.25
551.171
551.097
551.029
550.966
550.907
550.852
550.8
550.751
550.705
550.66
550.618
550.578
550.54
550.504
550.468
550.433
550.399
550.364
550.329
550.292
550.255
550.216
550.174
550.13
550.083
550.033
549.981
549.926
549.868
549.808
549.745
549.68
549.612
549.543
549.471
549.398
549.323
549.245
549.165
549.083
548.998
548.912
548.823
548.733
548.641
548.548
548.454
548.358
548.261
548.162
548.061
547.958
547.852
547.744
547.633
547.517
547.397
547.273
547.143
547.008
546.866
546.718
546.563
546.401
546.231
546.054
545.873
545.689
545.506
545.329
545.167
545.016
544.873
544.735
544.602
544.471
544.342
544.214
544.088
543.963
543.839
543.716
543.593
543.471
543.35
543.229
543.108
542.988
542.868
542.748
542.628
542.509
542.389
542.27
542.151
542.032
541.913
541.794
541.676
541.557
541.438
541.32
541.201
541.083
540.964
540.846
540.728
540.609
552.487
552.361
552.236
552.111
551.989
551.869
551.753
551.643
551.538
551.44
551.348
551.264
551.185
551.113
551.046
550.984
550.927
550.873
550.822
550.775
550.73
550.687
550.646
550.608
550.572
550.537
550.502
550.469
550.435
550.401
550.366
550.33
550.292
550.252
550.21
550.164
550.116
550.065
550.011
549.954
549.895
549.834
549.77
549.705
549.638
549.569
549.497
549.424
549.348
549.269
549.187
549.103
549.015
548.925
548.832
548.738
548.641
548.543
548.444
548.344
548.243
548.14
548.036
547.93
547.821
547.711
547.597
547.48
547.359
547.234
547.104
546.969
546.828
546.681
546.527
546.366
546.196
546.019
545.836
545.648
545.46
545.278
545.12
544.977
544.843
544.712
544.583
544.455
544.329
544.204
544.08
543.956
543.833
543.711
543.589
543.468
543.347
543.226
543.106
542.986
542.866
542.746
542.627
542.507
542.388
542.269
542.15
542.031
541.913
541.794
541.675
541.557
541.438
541.32
541.201
541.083
540.964
540.846
540.728
540.609
552.488
552.363
552.238
552.115
551.993
551.874
551.76
551.652
551.55
551.454
551.365
551.282
551.206
551.135
551.07
551.009
550.953
550.901
550.852
550.806
550.762
550.721
550.682
550.645
550.611
550.577
550.544
550.511
550.478
550.444
550.41
550.373
550.335
550.295
550.251
550.205
550.156
550.104
550.048
549.99
549.93
549.868
549.803
549.738
549.67
549.601
549.53
549.456
549.379
549.298
549.215
549.128
549.037
548.943
548.847
548.747
548.646
548.543
548.438
548.332
548.225
548.117
548.008
547.898
547.786
547.673
547.557
547.439
547.317
547.191
547.061
546.926
546.786
546.639
546.486
546.325
546.156
545.978
545.791
545.595
545.395
545.201
545.057
544.931
544.808
544.685
544.562
544.439
544.316
544.193
544.07
543.948
543.826
543.705
543.584
543.463
543.343
543.223
543.103
542.983
542.864
542.744
542.625
542.506
542.387
542.268
542.149
542.03
541.912
541.793
541.675
541.556
541.438
541.319
541.201
541.082
540.964
540.846
540.727
540.609
552.488
552.365
552.243
552.121
552.001
551.884
551.773
551.667
551.567
551.473
551.387
551.306
551.232
551.163
551.1
551.041
550.987
550.936
550.889
550.844
550.802
550.763
550.725
550.69
550.657
550.624
550.592
550.56
550.528
550.494
550.46
550.423
550.385
550.344
550.3
550.253
550.203
550.15
550.093
550.034
549.973
549.91
549.845
549.779
549.711
549.641
549.57
549.495
549.417
549.336
549.25
549.16
549.067
548.969
548.868
548.764
548.657
548.548
548.437
548.324
548.211
548.096
547.981
547.866
547.75
547.633
547.514
547.394
547.271
547.144
547.014
546.879
546.739
546.594
546.442
546.282
546.113
545.934
545.743
545.536
545.31
545.072
544.973
544.878
544.772
544.659
544.542
544.422
544.302
544.181
544.06
543.939
543.819
543.698
543.578
543.458
543.338
543.219
543.099
542.98
542.861
542.742
542.623
542.504
542.385
542.267
542.148
542.029
541.911
541.792
541.674
541.556
541.437
541.319
541.2
541.082
540.964
540.846
540.727
540.609
552.49
552.369
552.249
552.129
552.012
551.898
551.789
551.686
551.588
551.498
551.413
551.336
551.264
551.197
551.136
551.08
551.027
550.979
550.933
550.89
550.85
550.812
550.776
550.742
550.71
550.679
550.647
550.616
550.583
550.55
550.515
550.479
550.44
550.399
550.354
550.307
550.257
550.203
550.146
550.087
550.025
549.962
549.896
549.83
549.762
549.692
549.62
549.545
549.466
549.382
549.294
549.202
549.105
549.003
548.897
548.788
548.675
548.56
548.442
548.322
548.201
548.08
547.958
547.836
547.714
547.593
547.471
547.348
547.223
547.096
546.965
546.83
546.69
546.546
546.395
546.237
546.07
545.891
545.698
545.479
545.211
544.797
544.882
544.834
544.743
544.637
544.523
544.406
544.288
544.169
544.05
543.93
543.811
543.692
543.572
543.453
543.334
543.215
543.096
542.977
542.858
542.74
542.621
542.502
542.384
542.265
542.147
542.028
541.91
541.792
541.673
541.555
541.437
541.318
541.2
541.082
540.964
540.845
540.727
540.609
552.491
552.372
552.254
552.138
552.024
551.914
551.809
551.708
551.614
551.527
551.445
551.37
551.301
551.237
551.179
551.124
551.074
551.027
550.984
550.943
550.904
550.868
550.834
550.801
550.77
550.739
550.708
550.677
550.645
550.612
550.577
550.54
550.501
550.46
550.416
550.368
550.318
550.264
550.207
550.148
550.087
550.023
549.958
549.891
549.823
549.754
549.681
549.605
549.525
549.439
549.349
549.253
549.153
549.047
548.936
548.822
548.703
548.581
548.455
548.328
548.199
548.069
547.939
547.81
547.682
547.555
547.429
547.302
547.175
547.046
546.915
546.78
546.641
546.497
546.348
546.192
546.027
545.852
545.665
545.46
545.236
545.01
544.919
544.829
544.729
544.62
544.507
544.392
544.275
544.158
544.04
543.921
543.803
543.685
543.566
543.448
543.329
543.211
543.092
542.974
542.855
542.737
542.619
542.5
542.382
542.264
542.145
542.027
541.909
541.791
541.672
541.554
541.436
541.318
541.2
541.082
540.963
540.845
540.727
540.609
552.492
552.377
552.263
552.151
552.041
551.934
551.832
551.735
551.645
551.56
551.482
551.41
551.343
551.282
551.226
551.174
551.126
551.082
551.04
551.002
550.965
550.931
550.898
550.866
550.836
550.806
550.775
550.744
550.712
550.679
550.644
550.608
550.569
550.527
550.483
550.436
550.386
550.333
550.276
550.218
550.156
550.093
550.028
549.962
549.894
549.825
549.753
549.676
549.594
549.507
549.414
549.316
549.211
549.102
548.986
548.866
548.741
548.611
548.478
548.342
548.204
548.066
547.928
547.791
547.656
547.523
547.391
547.26
547.129
546.998
546.865
546.73
546.591
546.449
546.302
546.148
545.987
545.818
545.64
545.452
545.26
545.082
544.949
544.833
544.721
544.608
544.494
544.379
544.263
544.146
544.029
543.912
543.795
543.677
543.56
543.442
543.324
543.206
543.088
542.97
542.852
542.734
542.616
542.498
542.38
542.262
542.144
542.026
541.908
541.79
541.672
541.553
541.435
541.317
541.199
541.081
540.963
540.845
540.727
540.609
552.495
552.385
552.275
552.166
552.06
551.958
551.859
551.767
551.679
551.598
551.523
551.454
551.391
551.332
551.279
551.229
551.184
551.142
551.103
551.066
551.032
550.999
550.968
550.937
550.908
550.878
550.848
550.817
550.785
550.752
550.717
550.681
550.642
550.601
550.557
550.51
550.461
550.408
550.353
550.295
550.234
550.171
550.107
550.042
549.975
549.907
549.834
549.757
549.674
549.584
549.49
549.389
549.281
549.167
549.047
548.921
548.789
548.652
548.51
548.366
548.219
548.072
547.926
547.781
547.638
547.497
547.359
547.222
547.088
546.954
546.819
546.683
546.545
546.403
546.257
546.107
545.95
545.787
545.617
545.442
545.268
545.103
544.96
544.832
544.712
544.596
544.48
544.366
544.251
544.135
544.019
543.903
543.787
543.67
543.553
543.436
543.319
543.202
543.084
542.967
542.849
542.732
542.614
542.496
542.378
542.26
542.142
542.024
541.907
541.789
541.671
541.553
541.435
541.317
541.199
541.081
540.963
540.845
540.727
540.609
552.497
552.392
552.287
552.184
552.082
551.984
551.89
551.801
551.718
551.641
551.569
551.503
551.442
551.387
551.336
551.29
551.247
551.208
551.171
551.137
551.104
551.073
551.043
551.014
550.985
550.956
550.926
550.895
550.863
550.831
550.796
550.76
550.722
550.681
550.638
550.591
550.542
550.491
550.437
550.379
550.32
550.258
550.195
550.13
550.065
549.997
549.924
549.847
549.763
549.672
549.576
549.472
549.361
549.243
549.118
548.986
548.847
548.702
548.552
548.4
548.244
548.088
547.933
547.78
547.629
547.48
547.334
547.192
547.052
546.914
546.777
546.639
546.5
546.359
546.215
546.067
545.914
545.756
545.593
545.427
545.261
545.1
544.951
544.819
544.697
544.581
544.466
544.352
544.239
544.124
544.01
543.894
543.779
543.663
543.547
543.431
543.314
543.197
543.08
542.963
542.846
542.729
542.611
542.494
542.376
542.259
542.141
542.023
541.905
541.788
541.67
541.552
541.434
541.316
541.198
541.08
540.963
540.845
540.727
540.609
552.5
552.4
552.3
552.202
552.106
552.013
551.923
551.839
551.76
551.686
551.618
551.556
551.499
551.446
551.399
551.356
551.316
551.279
551.245
551.213
551.182
551.153
551.125
551.096
551.068
551.039
551.01
550.979
550.948
550.915
550.881
550.845
550.807
550.767
550.724
550.678
550.63
550.58
550.527
550.471
550.413
550.353
550.291
550.227
550.163
550.095
550.024
549.946
549.862
549.77
549.672
549.566
549.451
549.329
549.199
549.06
548.914
548.762
548.604
548.443
548.28
548.116
547.953
547.791
547.631
547.474
547.321
547.17
547.024
546.88
546.74
546.6
546.46
546.318
546.175
546.028
545.878
545.723
545.565
545.403
545.239
545.076
544.923
544.792
544.675
544.562
544.45
544.339
544.226
544.113
544
543.886
543.771
543.656
543.541
543.425
543.309
543.193
543.076
542.96
542.843
542.726
542.609
542.491
542.374
542.257
542.139
542.022
541.904
541.786
541.669
541.551
541.433
541.316
541.198
541.08
540.962
540.844
540.727
540.609
552.503
552.409
552.315
552.223
552.132
552.044
551.959
551.879
551.805
551.735
551.671
551.612
551.559
551.51
551.466
551.426
551.389
551.355
551.323
551.294
551.265
551.238
551.211
551.184
551.156
551.128
551.098
551.068
551.037
551.004
550.97
550.935
550.897
550.858
550.815
550.771
550.724
550.675
550.623
550.569
550.513
550.454
550.394
550.332
550.269
550.203
550.131
550.054
549.97
549.878
549.778
549.669
549.551
549.425
549.289
549.143
548.99
548.83
548.665
548.496
548.326
548.155
547.984
547.814
547.646
547.481
547.319
547.16
547.006
546.855
546.709
546.566
546.423
546.281
546.137
545.991
545.842
545.69
545.534
545.372
545.205
545.031
544.863
544.746
544.642
544.539
544.433
544.324
544.214
544.102
543.99
543.877
543.763
543.649
543.534
543.419
543.304
543.188
543.072
542.956
542.84
542.723
542.606
542.489
542.372
542.255
542.138
542.02
541.903
541.785
541.668
541.55
541.433
541.315
541.197
541.08
540.962
540.844
540.727
540.609
552.506
552.418
552.331
552.244
552.159
552.077
551.997
551.922
551.852
551.786
551.726
551.672
551.622
551.577
551.537
551.5
551.466
551.435
551.406
551.379
551.352
551.327
551.301
551.275
551.248
551.22
551.191
551.161
551.13
551.097
551.064
551.029
550.992
550.953
550.911
550.868
550.822
550.774
550.724
550.672
550.618
550.561
550.503
550.443
550.381
550.316
550.246
550.171
550.088
549.996
549.895
549.784
549.662
549.53
549.387
549.235
549.073
548.906
548.733
548.558
548.382
548.205
548.028
547.851
547.676
547.502
547.331
547.163
547
546.841
546.688
546.538
546.392
546.247
546.102
545.956
545.808
545.656
545.499
545.335
545.158
544.957
544.74
544.673
544.602
544.514
544.415
544.31
544.202
544.092
543.98
543.868
543.756
543.642
543.528
543.414
543.299
543.184
543.068
542.952
542.836
542.72
542.604
542.487
542.37
542.253
542.136
542.019
541.902
541.784
541.667
541.549
541.432
541.314
541.197
541.079
540.962
540.844
540.726
540.609
552.509
552.428
552.346
552.266
552.187
552.11
552.036
551.965
551.9
551.839
551.784
551.733
551.688
551.647
551.61
551.576
551.546
551.518
551.492
551.467
551.442
551.418
551.394
551.369
551.343
551.315
551.287
551.257
551.226
551.193
551.16
551.125
551.089
551.051
551.01
550.968
550.923
550.877
550.828
550.778
550.726
550.672
550.617
550.559
550.499
550.436
550.368
550.295
550.213
550.123
550.021
549.908
549.782
549.644
549.495
549.335
549.165
548.989
548.81
548.629
548.447
548.265
548.083
547.901
547.719
547.537
547.358
547.181
547.008
546.84
546.677
546.52
546.368
546.219
546.072
545.924
545.775
545.624
545.467
545.3
545.11
544.863
544.44
544.587
544.567
544.493
544.399
544.297
544.19
544.081
543.971
543.86
543.748
543.635
543.522
543.408
543.294
543.179
543.064
542.949
542.833
542.717
542.601
542.485
542.368
542.251
542.135
542.018
541.9
541.783
541.666
541.549
541.431
541.314
541.196
541.079
540.961
540.844
540.726
540.609
552.512
552.437
552.361
552.287
552.214
552.143
552.074
552.009
551.948
551.892
551.841
551.795
551.754
551.717
551.684
551.654
551.627
551.602
551.578
551.555
551.533
551.51
551.487
551.463
551.437
551.41
551.382
551.353
551.322
551.29
551.256
551.222
551.186
551.149
551.109
551.068
551.025
550.98
550.934
550.886
550.837
550.786
550.733
550.677
550.62
550.559
550.495
550.424
550.346
550.257
550.156
550.04
549.91
549.766
549.608
549.44
549.262
549.079
548.894
548.708
548.523
548.336
548.15
547.962
547.775
547.587
547.4
547.214
547.031
546.852
546.679
546.513
546.353
546.198
546.047
545.897
545.747
545.595
545.44
545.277
545.1
544.899
544.669
544.636
544.571
544.485
544.389
544.286
544.18
544.072
543.962
543.852
543.741
543.629
543.516
543.403
543.289
543.175
543.061
542.946
542.83
542.715
542.599
542.483
542.366
542.25
542.133
542.016
541.899
541.782
541.665
541.548
541.431
541.313
541.196
541.079
540.961
540.844
540.726
540.609
552.515
552.444
552.374
552.306
552.238
552.172
552.109
552.049
551.994
551.943
551.896
551.855
551.818
551.785
551.756
551.73
551.706
551.683
551.662
551.642
551.621
551.6
551.577
551.554
551.529
551.503
551.475
551.445
551.415
551.383
551.35
551.316
551.281
551.244
551.206
551.166
551.125
551.082
551.038
550.993
550.947
550.899
550.849
550.797
550.743
550.686
550.625
550.558
550.483
550.396
550.295
550.177
550.043
549.893
549.728
549.551
549.365
549.175
548.986
548.798
548.609
548.42
548.23
548.038
547.845
547.651
547.456
547.263
547.071
546.881
546.697
546.52
546.351
546.188
546.031
545.877
545.725
545.573
545.42
545.263
545.102
544.937
544.784
544.678
544.581
544.482
544.381
544.276
544.17
544.062
543.954
543.844
543.734
543.623
543.511
543.398
543.285
543.171
543.057
542.942
542.827
542.712
542.596
542.481
542.364
542.248
542.132
542.015
541.898
541.781
541.664
541.547
541.43
541.313
541.195
541.078
540.961
540.843
540.726
540.609
552.516
552.45
552.384
552.32
552.257
552.197
552.139
552.084
552.033
551.987
551.946
551.909
551.877
551.848
551.822
551.799
551.778
551.759
551.74
551.721
551.702
551.682
551.66
551.638
551.614
551.588
551.56
551.531
551.501
551.469
551.437
551.403
551.369
551.334
551.297
551.259
551.22
551.18
551.139
551.097
551.054
551.009
550.963
550.915
550.865
550.812
550.755
550.693
550.621
550.537
550.436
550.316
550.178
550.021
549.849
549.664
549.472
549.278
549.087
548.897
548.708
548.518
548.325
548.13
547.932
547.731
547.53
547.328
547.127
546.928
546.733
546.545
546.365
546.193
546.028
545.868
545.713
545.56
545.408
545.256
545.105
544.955
544.817
544.695
544.585
544.479
544.373
544.267
544.161
544.054
543.946
543.837
543.727
543.616
543.505
543.393
543.281
543.167
543.054
542.939
542.825
542.71
542.594
542.479
542.363
542.247
542.13
542.014
541.897
541.78
541.663
541.546
541.429
541.312
541.195
541.078
540.961
540.843
540.726
540.609
552.517
552.451
552.387
552.326
552.267
552.21
552.157
552.108
552.062
552.021
551.984
551.952
551.923
551.898
551.876
551.856
551.838
551.821
551.804
551.787
551.77
551.751
551.73
551.708
551.685
551.659
551.632
551.603
551.573
551.542
551.511
551.478
551.445
551.411
551.377
551.341
551.305
551.268
551.231
551.192
551.153
551.113
551.072
551.028
550.983
550.935
550.883
550.824
550.757
550.674
550.573
550.452
550.31
550.148
549.969
549.779
549.583
549.388
549.197
549.009
548.821
548.631
548.438
548.24
548.037
547.832
547.623
547.414
547.204
546.995
546.791
546.593
546.402
546.22
546.046
545.879
545.718
545.561
545.408
545.257
545.109
544.964
544.827
544.699
544.583
544.473
544.366
544.259
544.152
544.045
543.938
543.83
543.72
543.611
543.5
543.388
543.276
543.164
543.05
542.936
542.822
542.707
542.592
542.477
542.361
542.245
542.129
542.013
541.896
541.779
541.663
541.546
541.429
541.312
541.195
541.077
540.96
540.843
540.726
540.609
552.516
552.448
552.382
552.32
552.262
552.208
552.158
552.113
552.072
552.035
552.003
551.974
551.949
551.927
551.908
551.891
551.875
551.86
551.846
551.831
551.815
551.797
551.778
551.757
551.734
551.71
551.683
551.655
551.626
551.596
551.566
551.535
551.504
551.472
551.441
551.408
551.376
551.344
551.311
551.277
551.243
551.208
551.172
551.134
551.094
551.051
551.004
550.95
550.885
550.804
550.702
550.58
550.434
550.268
550.085
549.893
549.697
549.505
549.318
549.133
548.949
548.761
548.568
548.369
548.165
547.955
547.741
547.525
547.307
547.091
546.878
546.672
546.472
546.28
546.096
545.919
545.75
545.587
545.428
545.274
545.122
544.975
544.832
544.696
544.578
544.468
544.359
544.252
544.145
544.038
543.931
543.823
543.714
543.605
543.495
543.384
543.272
543.16
543.047
542.934
542.82
542.705
542.59
542.475
542.359
542.244
542.128
542.011
541.895
541.779
541.662
541.545
541.428
541.311
541.194
541.077
540.96
540.843
540.726
540.609
552.512
552.437
552.365
552.298
552.238
552.184
552.136
552.093
552.055
552.021
551.992
551.965
551.943
551.923
551.906
551.891
551.877
551.864
551.851
551.838
551.824
551.809
551.791
551.772
551.751
551.727
551.702
551.676
551.649
551.621
551.593
551.565
551.538
551.51
551.483
551.457
551.43
551.404
551.377
551.35
551.322
551.293
551.263
551.231
551.196
551.159
551.116
551.066
551.003
550.921
550.818
550.695
550.547
550.378
550.195
550.006
549.815
549.629
549.447
549.268
549.089
548.905
548.715
548.518
548.314
548.103
547.886
547.666
547.444
547.222
547.005
546.793
546.588
546.387
546.193
546.006
545.828
545.656
545.489
545.325
545.165
545.007
544.847
544.686
544.575
544.467
544.358
544.248
544.14
544.032
543.924
543.817
543.709
543.6
543.49
543.38
543.269
543.157
543.044
542.931
542.817
542.703
542.588
542.473
542.358
542.242
542.127
542.01
541.894
541.778
541.661
541.544
541.428
541.311
541.194
541.077
540.96
540.843
540.726
540.609
552.505
552.416
552.332
552.256
552.188
552.13
552.08
552.037
552
551.967
551.939
551.913
551.891
551.871
551.855
551.84
551.826
551.814
551.803
551.792
551.78
551.767
551.752
551.736
551.717
551.696
551.674
551.651
551.628
551.605
551.582
551.56
551.539
551.519
551.5
551.482
551.464
551.447
551.429
551.411
551.391
551.369
551.346
551.32
551.291
551.259
551.22
551.171
551.106
551.021
550.916
550.791
550.641
550.472
550.294
550.111
549.929
549.751
549.578
549.407
549.235
549.058
548.875
548.684
548.483
548.275
548.061
547.843
547.622
547.4
547.182
546.971
546.763
546.558
546.357
546.163
545.977
545.797
545.619
545.442
545.265
545.087
544.891
544.637
544.582
544.481
544.366
544.251
544.138
544.028
543.92
543.812
543.704
543.595
543.486
543.376
543.265
543.154
543.042
542.929
542.815
542.701
542.587
542.472
542.357
542.241
542.126
542.01
541.893
541.777
541.661
541.544
541.427
541.31
541.194
541.077
540.96
540.843
540.726
540.609
552.494
552.385
552.281
552.188
552.107
552.039
551.982
551.935
551.894
551.859
551.827
551.798
551.773
551.75
551.73
551.713
551.698
551.686
551.675
551.665
551.656
551.647
551.636
551.624
551.609
551.594
551.578
551.562
551.547
551.532
551.519
551.508
551.498
551.49
551.484
551.479
551.475
551.471
551.467
551.461
551.452
551.441
551.426
551.408
551.384
551.356
551.319
551.268
551.197
551.104
550.993
550.863
550.711
550.545
550.373
550.201
550.03
549.863
549.699
549.538
549.377
549.212
549.04
548.859
548.668
548.47
548.267
548.06
547.847
547.633
547.423
547.218
547.014
546.812
546.614
546.419
546.231
546.047
545.86
545.665
545.466
545.261
545.03
544.718
544.652
544.527
544.393
544.264
544.143
544.028
543.917
543.807
543.699
543.591
543.482
543.372
543.262
543.151
543.039
542.927
542.813
542.7
542.585
542.471
542.356
542.24
542.125
542.009
541.893
541.776
541.66
541.544
541.427
541.31
541.193
541.076
540.959
540.843
540.726
540.609
552.479
552.341
552.211
552.094
551.993
551.908
551.838
551.779
551.728
551.682
551.64
551.602
551.567
551.536
551.508
551.484
551.464
551.448
551.435
551.427
551.42
551.414
551.409
551.403
551.397
551.391
551.386
551.382
551.381
551.383
551.386
551.392
551.401
551.411
551.425
551.44
551.456
551.472
551.487
551.499
551.506
551.509
551.506
551.497
551.482
551.458
551.422
551.364
551.28
551.176
551.055
550.915
550.759
550.595
550.432
550.273
550.114
549.958
549.805
549.655
549.507
549.358
549.206
549.041
548.865
548.686
548.508
548.326
548.131
547.934
547.744
547.559
547.368
547.177
546.992
546.809
546.628
546.448
546.26
546.045
545.813
545.575
545.323
545.041
544.815
544.616
544.442
544.289
544.154
544.031
543.916
543.805
543.696
543.587
543.479
543.369
543.259
543.149
543.037
542.925
542.812
542.698
542.584
542.469
542.355
542.239
542.124
542.008
541.892
541.776
541.66
541.543
541.427
541.31
541.193
541.076
540.959
540.842
540.725
540.608
552.459
552.282
552.117
551.97
551.843
551.734
551.642
551.563
551.492
551.427
551.366
551.308
551.255
551.206
551.163
551.125
551.093
551.068
551.051
551.041
551.035
551.033
551.034
551.037
551.043
551.051
551.063
551.08
551.102
551.128
551.157
551.189
551.224
551.262
551.302
551.343
551.386
551.428
551.469
551.506
551.537
551.56
551.577
551.585
551.585
551.571
551.538
551.473
551.374
551.254
551.121
550.969
550.823
550.673
550.52
550.379
550.229
550.083
549.935
549.793
549.66
549.533
549.41
549.266
549.106
548.955
548.823
548.692
548.521
548.344
548.197
548.058
547.886
547.71
547.551
547.385
547.221
547.048
546.857
546.619
546.333
546.038
545.725
545.357
545.005
544.728
544.506
544.325
544.172
544.038
543.917
543.803
543.693
543.584
543.476
543.367
543.257
543.146
543.035
542.923
542.81
542.697
542.583
542.469
542.354
542.239
542.123
542.008
541.892
541.775
541.659
541.543
541.426
541.31
541.193
541.076
540.959
540.842
540.725
540.608
552.429
552.197
551.988
551.804
551.645
551.509
551.389
551.281
551.182
551.087
550.996
550.908
550.826
550.75
550.682
550.621
550.57
550.529
550.501
550.484
550.475
550.474
550.48
550.492
550.512
550.539
550.575
550.621
550.675
550.734
550.797
550.863
550.931
551.001
551.072
551.144
551.215
551.287
551.359
551.431
551.496
551.551
551.6
551.643
551.675
551.69
551.676
551.65
551.548
551.414
551.282
551.13
551.165
551.164
551.024
550.913
550.743
550.604
550.432
550.287
550.153
550.043
549.959
549.828
549.668
549.549
549.492
549.459
549.304
549.125
549.066
549.019
548.855
548.672
548.543
548.373
548.22
548.015
547.66
547.398
547.032
546.644
546.216
545.694
545.172
544.836
544.576
544.366
544.194
544.048
543.92
543.803
543.691
543.582
543.473
543.364
543.255
543.145
543.033
542.922
542.809
542.696
542.582
542.468
542.353
542.238
542.123
542.007
541.891
541.775
541.659
541.543
541.426
541.309
541.193
541.076
540.959
540.842
540.725
540.608
552.376
552.054
551.781
551.553
551.362
551.198
551.051
550.914
550.784
550.657
550.532
550.409
550.291
550.183
550.084
549.995
549.916
549.853
549.805
549.773
549.753
549.745
549.748
549.766
549.796
549.841
549.902
549.981
550.071
550.168
550.266
550.365
550.464
550.563
550.661
550.756
550.846
550.938
551.045
551.171
551.307
551.416
551.52
551.63
551.728
551.814
551.888
552.259
552.245
552.11
551.997
551.773
551.503
551.336
551.174
551.073
550.925
550.782
550.573
550.436
550.293
550.172
550.094
549.973
549.875
549.79
549.76
549.824
549.732
549.627
549.798
549.801
549.846
549.796
549.698
549.401
549.202
548.933
548.695
548.454
548.022
547.438
546.735
545.982
545.165
544.902
544.637
544.407
544.217
544.059
543.925
543.804
543.69
543.58
543.471
543.363
543.253
543.143
543.032
542.921
542.808
542.695
542.581
542.467
542.353
542.238
542.122
542.007
541.891
541.775
541.659
541.542
541.426
541.309
541.193
541.076
540.959
540.842
540.725
540.608
552.259
551.758
551.382
551.103
550.886
550.705
550.546
550.399
550.256
550.116
549.979
549.845
549.713
549.586
549.47
549.359
549.249
549.159
549.086
549.022
548.967
548.933
548.921
548.929
548.954
549.014
549.087
549.186
549.304
549.426
549.544
549.654
549.762
549.868
549.967
550.063
550.141
550.231
550.37
550.65
551.098
551.325
551.518
551.764
551.971
552.199
552.347
552.463
552.533
552.458
552.334
552.098
551.822
551.656
551.497
551.407
551.25
551.1
550.836
550.651
550.461
550.203
550.101
549.965
549.95
549.969
549.905
550.031
550.082
550.129
550.678
550.608
551.043
551.179
550.919
550.4
550.19
549.846
549.389
549.033
548.621
547.804
547.106
546.121
545.213
544.965
544.691
544.444
544.238
544.07
543.929
543.805
543.689
543.579
543.47
543.361
543.252
543.142
543.031
542.92
542.807
542.694
542.581
542.467
542.352
542.237
542.122
542.007
541.891
541.775
541.659
541.542
541.426
541.309
541.193
541.076
540.959
540.842
540.725
540.608
551.981
551.106
550.552
550.221
550.003
549.836
549.709
549.607
549.517
549.428
549.346
549.283
549.244
549.191
549.112
549.019
548.876
548.761
548.673
548.547
548.383
548.284
548.24
548.23
548.228
548.381
548.425
548.488
548.602
548.714
548.802
548.869
548.934
548.997
549.044
549.085
549.117
549.161
549.274
549.485
549.729
550.054
550.399
550.85
551.259
551.723
552.132
552.429
552.798
552.917
552.925
552.713
552.431
552.396
552.28
552.122
551.969
551.825
551.48
551.118
550.762
550.259
550.043
549.876
549.857
550.072
550.036
550.126
550.315
550.716
551.536
551.367
551.879
552.53
551.912
550.903
550.656
550.844
550.097
548.73
548.635
547.572
546.639
545.84
545.199
544.993
544.724
544.469
544.254
544.078
543.933
543.806
543.689
543.578
543.469
543.36
543.251
543.141
543.031
542.919
542.807
542.694
542.581
542.467
542.352
542.237
542.122
542.007
541.891
541.775
541.659
541.542
541.426
541.309