/*--------------------------------*- C++ -*----------------------------------*\
  =========                 |
  \\      /  F ield         | OpenFOAM: The Open Source CFD Toolbox
   \\    /   O peration     | Website:  https://openfoam.org
    \\  /    A nd           | Version:  6
     \\/     M anipulation  |
\*---------------------------------------------------------------------------*/
FoamFile
{
    version     2.0;
    format      ascii;
    class       volVectorField;
    location    "2400";
    object      U;
}
// * * * * * * * * * * * * * * * * * * * * * * * * * * * * * * * * * * * * * //

dimensions      [0 1 -1 0 0 0 0];

internalField   nonuniform List<vector> 
4800
(
(-6.67508e-06 0 -1.77497e-05)
(-1.51324e-05 0 -2.57193e-05)
(-2.05315e-05 0 -1.54067e-05)
(-4.06673e-05 0 -1.0128e-05)
(-5.43264e-05 0 -1.36636e-05)
(-7.96165e-05 0 -2.1577e-05)
(-0.000134422 0 -9.33952e-06)
(-0.000185062 0 -3.42519e-05)
(-0.000271933 0 -0.000188306)
(-0.000368767 0 8.45917e-05)
(-0.000375672 0 0.000196545)
(-0.000464314 0 -9.46075e-05)
(-0.000497816 0 -2.46165e-05)
(-0.000532183 0 4.39608e-05)
(-0.000552079 0 -2.43297e-05)
(-0.000557162 0 -1.43682e-05)
(-0.000546957 0 -3.55093e-07)
(-0.000536587 0 1.06714e-06)
(-0.00054522 0 -6.32002e-06)
(-0.000567893 0 -1.23503e-05)
(-0.000604906 0 -1.7156e-05)
(-0.00068668 0 1.39317e-05)
(-0.000820405 0 -4.44723e-05)
(-0.000992507 0 -3.18062e-05)
(-0.00117239 0 -2.9368e-05)
(-0.00130268 0 -4.68498e-05)
(-0.0013697 0 1.15775e-05)
(-0.00140772 0 3.08636e-05)
(-0.00143745 0 -5.22934e-06)
(-0.00144288 0 -1.6701e-05)
(-0.00143279 0 -3.14789e-05)
(-0.0014365 0 -3.40852e-05)
(-0.00139329 0 -4.96594e-05)
(-0.00123571 0 -7.56908e-05)
(-0.00110465 0 -7.07686e-05)
(-0.00099621 0 -4.90568e-05)
(-0.000891614 0 -5.87195e-05)
(-0.000771385 0 -8.86303e-05)
(-0.000656875 0 -4.38713e-05)
(-0.000577259 0 1.90254e-06)
(-0.000545998 0 1.94132e-05)
(-0.000556501 0 2.66008e-05)
(-0.00062504 0 2.97871e-05)
(-0.000657271 0 9.04708e-06)
(-0.000661021 0 -8.76861e-06)
(-0.000659947 0 -1.3104e-05)
(-0.000689503 0 8.17524e-06)
(-0.000701621 0 -7.26989e-07)
(-0.000701845 0 -1.21555e-05)
(-0.000700787 0 -2.39475e-05)
(-0.000700669 0 -2.11318e-05)
(-0.000653906 0 -5.04112e-05)
(-0.000580694 0 -5.06834e-05)
(-0.000514436 0 -4.1891e-05)
(-0.0004471 0 -5.1463e-05)
(-0.000373665 0 -6.36451e-05)
(-0.000304787 0 -3.90523e-05)
(-0.000227642 0 -4.2575e-05)
(-0.000148953 0 -4.50728e-05)
(-4.19502e-05 0 -0.000115923)
(6.5868e-05 0 1.99411e-06)
(0.000148523 0 -4.9814e-05)
(0.00022693 0 -0.000225083)
(0.00041533 0 -8.5448e-05)
(0.000505449 0 -0.000103483)
(0.0004925 0 -0.000101905)
(0.000487424 0 -8.385e-05)
(0.000521112 0 -6.67315e-05)
(0.000599044 0 -6.23359e-05)
(0.000639084 0 -5.73476e-05)
(0.00063511 0 -5.79153e-05)
(0.000628886 0 -2.44674e-05)
(0.000597654 0 -9.63863e-05)
(0.00056127 0 3.8523e-05)
(0.00049216 0 -0.000174425)
(0.000439694 0 0.000134873)
(0.000434128 0 -9.83156e-05)
(0.00022838 0 0.000265963)
(0.00034758 0 -2.00561e-05)
(-0.000304102 0 -3.14049e-05)
(9.6861e-06 0 5.44045e-05)
(-1.21362e-12 0 -3.22443e-14)
(-8.61637e-13 0 1.41234e-15)
(4.83189e-13 0 2.71888e-14)
(4.29499e-13 0 2.72532e-14)
(3.80199e-13 0 2.25225e-14)
(3.41151e-13 0 1.69876e-14)
(3.13118e-13 0 1.1555e-14)
(2.95559e-13 0 6.5974e-15)
(2.87143e-13 0 2.25361e-15)
(2.86539e-13 0 -1.37325e-15)
(2.92212e-13 0 -4.23568e-15)
(3.02599e-13 0 -6.33142e-15)
(3.16208e-13 0 -7.69254e-15)
(3.31666e-13 0 -8.37753e-15)
(3.47758e-13 0 -8.46347e-15)
(3.63434e-13 0 -8.03851e-15)
(3.77818e-13 0 -7.19469e-15)
(3.90196e-13 0 -6.02252e-15)
(4.00009e-13 0 -4.6062e-15)
(4.06833e-13 0 -3.01995e-15)
(4.1037e-13 0 -1.32676e-15)
(4.10438e-13 0 4.19774e-16)
(4.06963e-13 0 2.17351e-15)
(3.9996e-13 0 3.89417e-15)
(3.89516e-13 0 5.5474e-15)
(3.75786e-13 0 7.10546e-15)
(3.58987e-13 0 8.54892e-15)
(3.39391e-13 0 9.86826e-15)
(3.1731e-13 0 1.10641e-14)
(2.93075e-13 0 1.21448e-14)
(2.67007e-13 0 1.31211e-14)
(2.39392e-13 0 1.40002e-14)
(2.10459e-13 0 1.47828e-14)
(1.80374e-13 0 1.54622e-14)
(1.49259e-13 0 1.6028e-14)
(1.17219e-13 0 1.64705e-14)
(8.43796e-14 0 1.67854e-14)
(5.09101e-14 0 1.69783e-14)
(1.7021e-14 0 1.7069e-14)
(-1.14639e-05 0 1.65232e-05)
(-3.02711e-05 0 3.63111e-05)
(-6.8702e-05 0 1.74013e-05)
(-7.52745e-05 0 1.32606e-05)
(-8.97485e-05 0 2.57545e-05)
(-7.45137e-05 0 0.000145215)
(-0.000204567 0 0.00017209)
(-0.000367969 0 0.000137692)
(-0.000354364 0 0.000271771)
(-0.000523626 0 -2.96183e-05)
(-0.000583011 0 -3.86589e-05)
(-0.000647621 0 0.000105427)
(-0.000681249 0 3.52596e-05)
(-0.000696994 0 1.21891e-05)
(-0.000713184 0 3.39479e-05)
(-0.000716714 0 1.56439e-05)
(-0.000710133 0 -2.75601e-05)
(-0.000708864 0 -2.66903e-05)
(-0.000717985 0 3.5729e-05)
(-0.000733157 0 6.46328e-05)
(-0.000789712 0 7.08913e-05)
(-0.000918924 0 0.000159204)
(-0.00105866 0 0.000273869)
(-0.00118307 0 0.000305036)
(-0.00127763 0 0.000254761)
(-0.00131497 0 0.000192112)
(-0.00133078 0 4.40417e-05)
(-0.00135508 0 -1.30248e-05)
(-0.00139566 0 6.29158e-05)
(-0.00140177 0 2.29092e-05)
(-0.00137769 0 -2.88744e-05)
(-0.00137034 0 -2.40046e-05)
(-0.00133879 0 -9.66971e-05)
(-0.00118815 0 -0.000194824)
(-0.00105651 0 -0.000193661)
(-0.000959103 0 -0.000229597)
(-0.000895859 0 -0.000220346)
(-0.000796895 0 -0.000225678)
(-0.000680228 0 -0.000145121)
(-0.000571208 0 -8.56616e-05)
(-0.00053183 0 -2.84485e-05)
(-0.000537603 0 2.12018e-05)
(-0.000591367 0 6.99421e-05)
(-0.000629671 0 3.3525e-05)
(-0.000637037 0 5.57349e-06)
(-0.000633699 0 -4.49154e-07)
(-0.00066864 0 3.61923e-05)
(-0.000688301 0 1.68916e-05)
(-0.000689147 0 4.24453e-07)
(-0.000680286 0 -1.94612e-06)
(-0.00067387 0 -2.54175e-05)
(-0.000624794 0 -7.47655e-05)
(-0.000539793 0 -0.000121163)
(-0.000463742 0 -0.000119339)
(-0.000393725 0 -9.89477e-05)
(-0.000309652 0 -0.000107237)
(-0.000232143 0 -9.81684e-05)
(-0.000134396 0 -0.000106504)
(-3.43107e-05 0 -0.000130059)
(1.99376e-05 0 -0.000259471)
(0.000182385 0 -0.000122036)
(0.000254057 0 -0.000145738)
(0.000339153 0 -0.000253953)
(0.00042455 0 -6.09466e-05)
(0.00046474 0 2.82176e-05)
(0.000523399 0 1.06866e-05)
(0.000578863 0 3.48072e-06)
(0.000606054 0 -0.000118865)
(0.000639144 0 -2.21239e-05)
(0.000637407 0 -1.74723e-06)
(0.000629806 0 1.13185e-05)
(0.000611507 0 6.70478e-05)
(0.000588894 0 9.00458e-05)
(0.000554702 0 0.00013386)
(0.000499596 0 0.000184018)
(0.000474082 0 4.19493e-05)
(0.00039624 0 0.000177441)
(0.000371593 0 7.04714e-06)
(0.000376644 0 6.73971e-05)
(-0.000265154 0 8.02447e-05)
(9.98254e-06 0 0.000243444)
(-1.27032e-12 0 5.94148e-13)
(-6.80112e-13 0 1.36418e-13)
(5.07621e-13 0 1.06681e-13)
(4.23946e-13 0 8.64886e-14)
(3.69507e-13 0 6.8408e-14)
(3.3013e-13 0 5.09435e-14)
(3.0281e-13 0 3.43292e-14)
(2.86257e-13 0 1.92026e-14)
(2.79173e-13 0 5.967e-15)
(2.8005e-13 0 -5.05407e-15)
(2.87253e-13 0 -1.37154e-14)
(2.99142e-13 0 -2.00172e-14)
(3.14162e-13 0 -2.40686e-14)
(3.30895e-13 0 -2.60602e-14)
(3.48097e-13 0 -2.62373e-14)
(3.64703e-13 0 -2.48763e-14)
(3.79834e-13 0 -2.22627e-14)
(3.92784e-13 0 -1.8674e-14)
(4.03011e-13 0 -1.43639e-14)
(4.10113e-13 0 -9.55338e-15)
(4.13809e-13 0 -4.43059e-15)
(4.13938e-13 0 8.42786e-16)
(4.10437e-13 0 6.1275e-15)
(4.03334e-13 0 1.13057e-14)
(3.92727e-13 0 1.62826e-14)
(3.78787e-13 0 2.09875e-14)
(3.61749e-13 0 2.53755e-14)
(3.41906e-13 0 2.94258e-14)
(3.19587e-13 0 3.31368e-14)
(2.95132e-13 0 3.6516e-14)
(2.68862e-13 0 3.9569e-14)
(2.41054e-13 0 4.22917e-14)
(2.11921e-13 0 4.467e-14)
(1.81619e-13 0 4.66852e-14)
(1.50267e-13 0 4.83228e-14)
(1.17976e-13 0 4.958e-14)
(8.48874e-14 0 5.047e-14)
(5.11937e-14 0 5.10232e-14)
(1.71117e-14 0 5.12893e-14)
(-5.47204e-05 0 3.48931e-05)
(-1.09784e-05 0 7.08608e-05)
(-4.57618e-05 0 7.62239e-05)
(-6.88084e-05 0 7.50074e-05)
(-0.000153992 0 8.09039e-05)
(-0.000307094 0 6.79024e-05)
(-0.000281734 0 0.000278598)
(-0.000453018 0 0.000203559)
(-0.000548147 0 0.000143938)
(-0.000565295 0 0.00027564)
(-0.000675628 0 0.000124612)
(-0.000700145 0 0.00016112)
(-0.000759589 0 6.75274e-05)
(-0.000789906 0 2.99387e-05)
(-0.000817602 0 3.35918e-05)
(-0.000841418 0 -2.40495e-05)
(-0.000850731 0 -1.09895e-05)
(-0.000866138 0 4.89714e-05)
(-0.000894205 0 3.8339e-05)
(-0.00092679 0 6.76957e-05)
(-0.000997938 0 0.000140048)
(-0.00110443 0 0.000215502)
(-0.00117679 0 0.000233082)
(-0.00122053 0 0.000248736)
(-0.00126178 0 0.000239505)
(-0.00128783 0 0.000193658)
(-0.00132042 0 0.000101299)
(-0.00137339 0 6.19906e-05)
(-0.00139844 0 6.31541e-05)
(-0.00138679 0 -1.06949e-05)
(-0.00132303 0 -9.15164e-05)
(-0.0012999 0 -0.000101244)
(-0.00129343 0 -0.000164467)
(-0.00118804 0 -0.000394483)
(-0.00103974 0 -0.000345449)
(-0.00093234 0 -0.000304942)
(-0.00090144 0 -0.000157662)
(-0.000781679 0 -0.000291872)
(-0.000723948 0 -0.00011717)
(-0.000608881 0 -0.000120018)
(-0.000556427 0 -9.26974e-06)
(-0.000540108 0 5.20859e-05)
(-0.000553118 0 8.66648e-05)
(-0.000587117 0 7.68153e-05)
(-0.000596178 0 5.02075e-05)
(-0.000601198 0 2.82841e-05)
(-0.0006619 0 6.02121e-05)
(-0.000682475 0 4.84325e-05)
(-0.00067239 0 -5.49274e-06)
(-0.000635572 0 -4.83934e-05)
(-0.000612724 0 -6.0803e-05)
(-0.000568924 0 -0.000152334)
(-0.000498927 0 -0.000185934)
(-0.000425889 0 -0.000168949)
(-0.000342401 0 -0.000151562)
(-0.000235028 0 -0.000190094)
(-0.000148963 0 -0.000218258)
(8.28211e-06 0 -0.000270998)
(0.000122866 0 -0.000217629)
(0.000132574 0 -0.000259227)
(0.000218253 0 -0.000236015)
(0.000260842 0 -0.000261415)
(0.000317782 0 -0.000309276)
(0.000433785 0 -0.000138128)
(0.000447441 0 -0.000142301)
(0.000498742 0 -0.000161276)
(0.000600331 0 -9.79172e-05)
(0.0006246 0 -4.6111e-05)
(0.000611623 0 -4.91405e-05)
(0.000586249 0 -2.90835e-05)
(0.000566382 0 1.18822e-05)
(0.000561949 0 4.3803e-05)
(0.000555305 0 6.24128e-05)
(0.000544145 0 6.94336e-05)
(0.000518353 0 0.00011121)
(0.000483901 0 9.62308e-05)
(0.000421455 0 0.000148872)
(0.000345211 0 0.000179353)
(0.000345656 0 0.000197005)
(-0.000175279 0 0.000223025)
(9.38963e-06 0 0.000399737)
(-1.25177e-12 0 9.83501e-13)
(-9.69848e-13 0 2.24365e-13)
(4.32101e-13 0 1.76287e-13)
(3.90575e-13 0 1.43597e-13)
(3.44457e-13 0 1.13684e-13)
(3.07201e-13 0 8.41106e-14)
(2.81529e-13 0 5.57472e-14)
(2.67196e-13 0 2.9893e-14)
(2.62887e-13 0 7.38909e-15)
(2.66857e-13 0 -1.12102e-14)
(2.77249e-13 0 -2.56974e-14)
(2.92246e-13 0 -3.61197e-14)
(3.10165e-13 0 -4.27038e-14)
(3.29498e-13 0 -4.58009e-14)
(3.48942e-13 0 -4.5844e-14)
(3.67409e-13 0 -4.33093e-14)
(3.8402e-13 0 -3.8684e-14)
(3.98094e-13 0 -3.24392e-14)
(4.0913e-13 0 -2.50052e-14)
(4.16766e-13 0 -1.67569e-14)
(4.20766e-13 0 -8.01452e-15)
(4.20996e-13 0 9.47479e-16)
(4.17426e-13 0 9.8957e-15)
(4.10115e-13 0 1.86388e-14)
(3.99197e-13 0 2.70306e-14)
(3.84879e-13 0 3.49696e-14)
(3.67425e-13 0 4.23941e-14)
(3.47152e-13 0 4.92738e-14)
(3.244e-13 0 5.55965e-14)
(2.99507e-13 0 6.13541e-14)
(2.72783e-13 0 6.65316e-14)
(2.44493e-13 0 7.11045e-14)
(2.14853e-13 0 7.50448e-14)
(1.84027e-13 0 7.83338e-14)
(1.52154e-13 0 8.09718e-14)
(1.19366e-13 0 8.29835e-14)
(8.58228e-14 0 8.44151e-14)
(5.17294e-14 0 8.5325e-14)
(1.72871e-14 0 8.57717e-14)
(-5.42452e-05 0 6.7168e-05)
(-3.87706e-05 0 8.20298e-05)
(-8.46007e-05 0 9.24663e-05)
(-0.000171688 0 8.07298e-05)
(-0.000276829 0 0.000125098)
(-0.000475687 0 0.000173109)
(-0.000462609 0 0.000270695)
(-0.000307654 0 0.00050512)
(-0.000583635 0 0.000285339)
(-0.000686137 0 0.000209061)
(-0.00074891 0 0.000172857)
(-0.000801351 0 7.27087e-05)
(-0.000832953 0 0.000105341)
(-0.000884543 0 9.73105e-05)
(-0.00092925 0 3.18264e-05)
(-0.000940343 0 4.69494e-05)
(-0.000965078 0 2.17222e-05)
(-0.0010245 0 9.74479e-06)
(-0.00106484 0 0.000143488)
(-0.00109815 0 0.000174915)
(-0.00112513 0 0.000272058)
(-0.00116878 0 0.000390751)
(-0.00122616 0 0.000362806)
(-0.00124266 0 0.000344415)
(-0.00125583 0 0.000304361)
(-0.00128488 0 0.000201792)
(-0.00134113 0 0.000106897)
(-0.00137448 0 0.000104019)
(-0.00138026 0 0.000109396)
(-0.00135685 0 -2.45541e-05)
(-0.0012708 0 -0.000169091)
(-0.00121244 0 -0.000154069)
(-0.00118596 0 -0.000192428)
(-0.00118684 0 -0.000212971)
(-0.00107785 0 -0.000452935)
(-0.000912182 0 -0.000499778)
(-0.00089016 0 -0.000311804)
(-0.000827079 0 -0.000389191)
(-0.000816013 0 -0.000382832)
(-0.000769085 0 -0.000215748)
(-0.000632417 0 -6.06465e-05)
(-0.000535516 0 0.000116315)
(-0.000504467 0 0.000140048)
(-0.000512094 0 0.000182657)
(-0.000543207 0 9.70567e-05)
(-0.000605793 0 4.1682e-05)
(-0.000645521 0 8.82249e-05)
(-0.000654138 0 5.84125e-05)
(-0.000623285 0 -7.99695e-05)
(-0.000579833 0 -8.39991e-05)
(-0.000555628 0 -0.000106123)
(-0.000532675 0 -0.000162069)
(-0.000454677 0 -0.00027868)
(-0.000375691 0 -0.000277633)
(-0.000226997 0 -0.000360131)
(-0.000164261 0 -0.000342322)
(-7.93812e-05 0 -0.000351347)
(-1.96012e-05 0 -0.000312034)
(0.000107539 0 -0.000268106)
(0.000168031 0 -0.000251413)
(0.000180012 0 -0.000284285)
(0.000231576 0 -0.00030213)
(0.000243249 0 -0.000349191)
(0.000357372 0 -0.000249282)
(0.00039887 0 -0.000186283)
(0.000459384 0 -0.000130411)
(0.000513647 0 -9.62567e-05)
(0.000503257 0 -0.000127918)
(0.00051519 0 -4.13357e-05)
(0.000517098 0 -6.81144e-06)
(0.000518202 0 9.00811e-06)
(0.000518952 0 5.1773e-05)
(0.000515609 0 9.71688e-05)
(0.000517266 0 0.000144092)
(0.000508057 0 0.000171776)
(0.000481532 0 0.000172975)
(0.000421132 0 0.000201318)
(0.000352747 0 0.000200743)
(0.000347322 0 0.000221681)
(-0.000114914 0 0.000277219)
(9.90709e-06 0 0.000541926)
(-1.32264e-12 0 1.29443e-12)
(-8.25473e-13 0 2.60695e-13)
(4.27401e-13 0 2.30689e-13)
(3.61863e-13 0 1.97914e-13)
(3.10518e-13 0 1.58537e-13)
(2.72573e-13 0 1.16073e-13)
(2.48731e-13 0 7.46976e-14)
(2.37899e-13 0 3.71769e-14)
(2.3807e-13 0 4.9265e-15)
(2.46964e-13 0 -2.13765e-14)
(2.62344e-13 0 -4.15864e-14)
(2.82136e-13 0 -5.58891e-14)
(3.0448e-13 0 -6.46856e-14)
(3.27755e-13 0 -6.85219e-14)
(3.50589e-13 0 -6.80358e-14)
(3.71863e-13 0 -6.39132e-14)
(3.90704e-13 0 -5.68498e-14)
(4.06463e-13 0 -4.75199e-14)
(4.18694e-13 0 -3.65451e-14)
(4.27103e-13 0 -2.44708e-14)
(4.31514e-13 0 -1.17612e-14)
(4.31848e-13 0 1.1916e-15)
(4.28129e-13 0 1.40595e-14)
(4.20468e-13 0 2.65788e-14)
(4.09058e-13 0 3.85521e-14)
(3.94151e-13 0 4.98445e-14)
(3.76054e-13 0 6.03729e-14)
(3.55108e-13 0 7.00921e-14)
(3.31667e-13 0 7.89791e-14)
(3.06067e-13 0 8.70197e-14)
(2.78613e-13 0 9.41988e-14)
(2.49567e-13 0 1.00497e-13)
(2.1915e-13 0 1.05898e-13)
(1.87546e-13 0 1.10396e-13)
(1.54917e-13 0 1.14011e-13)
(1.21419e-13 0 1.16785e-13)
(8.72289e-14 0 1.18781e-13)
(5.25503e-14 0 1.20071e-13)
(1.75584e-14 0 1.2071e-13)
(-4.5476e-05 0 0.000104658)
(-3.48024e-05 0 0.000106793)
(-5.68991e-05 0 0.00013505)
(-7.32335e-05 0 0.000216242)
(-0.000104085 0 0.000321893)
(-0.000327181 0 0.000421775)
(-0.00054973 0 0.000336504)
(-0.000557948 0 0.000339509)
(-0.000603007 0 0.000377004)
(-0.000777308 0 0.000290369)
(-0.000848455 0 0.000254588)
(-0.000846533 0 0.000288089)
(-0.000905177 0 9.42163e-05)
(-0.000963478 0 0.000129539)
(-0.00101886 0 0.000107202)
(-0.0010586 0 2.99748e-05)
(-0.00111217 0 1.93683e-05)
(-0.00115944 0 7.51288e-05)
(-0.00119853 0 0.000105522)
(-0.00123802 0 0.00014533)
(-0.00124833 0 0.000226091)
(-0.00122625 0 0.000398504)
(-0.00125541 0 0.000373352)
(-0.00127171 0 0.000333965)
(-0.00127064 0 0.000303253)
(-0.00129175 0 0.000234694)
(-0.00131472 0 0.000181824)
(-0.00131521 0 0.000104982)
(-0.00129871 0 1.88312e-05)
(-0.00127078 0 -0.000142712)
(-0.00121946 0 -0.000205804)
(-0.00117223 0 -0.000243613)
(-0.00111907 0 -0.00033934)
(-0.00108418 0 -0.000399939)
(-0.00107847 0 -0.000427132)
(-0.00104998 0 -0.00042841)
(-0.000978433 0 -0.000469559)
(-0.000969756 0 -0.000457482)
(-0.000952733 0 -0.000480286)
(-0.000953893 0 -0.000232162)
(-0.00078808 0 -0.000211097)
(-0.000662019 0 -0.000110467)
(-0.000598687 0 -6.8783e-05)
(-0.000609158 0 7.19285e-06)
(-0.000622269 0 5.52762e-06)
(-0.000648064 0 8.37734e-05)
(-0.000649105 0 9.67704e-05)
(-0.000640847 0 2.02325e-06)
(-0.000598444 0 -7.91352e-05)
(-0.00056067 0 -0.000111098)
(-0.000538115 0 -0.000153823)
(-0.000516615 0 -0.000211723)
(-0.000498134 0 -0.000268569)
(-0.000377155 0 -0.000412544)
(-0.000409464 0 -0.000331739)
(-0.000357683 0 -0.000374822)
(-0.000340878 0 -0.000383171)
(-0.000249224 0 -0.000399842)
(-0.000135972 0 -0.000403127)
(-8.09955e-07 0 -0.000352061)
(0.000110617 0 -0.000320471)
(0.000168007 0 -0.000330671)
(0.000226559 0 -0.000331325)
(0.000232252 0 -0.00031682)
(0.000266228 0 -0.000268918)
(0.000319774 0 -0.000229403)
(0.000382746 0 -0.000151253)
(0.000385592 0 -0.000128306)
(0.000393077 0 -4.4349e-05)
(0.00040053 0 -1.5002e-05)
(0.000414833 0 1.27787e-05)
(0.000431149 0 4.15459e-05)
(0.000449965 0 3.0924e-05)
(0.000479288 0 5.58644e-05)
(0.000462149 0 0.000203305)
(0.000447554 0 0.000220996)
(0.000385718 0 0.000296322)
(0.000347327 0 0.000283856)
(0.00031957 0 0.000336565)
(-0.000355777 0 0.000278965)
(9.58833e-06 0 0.000703579)
(-1.37971e-12 0 1.69196e-12)
(-1.04438e-12 0 2.77605e-13)
(3.69863e-13 0 2.87984e-13)
(3.18939e-13 0 2.58905e-13)
(2.6311e-13 0 2.06481e-13)
(2.23719e-13 0 1.47051e-13)
(2.02751e-13 0 8.9885e-14)
(1.97425e-13 0 3.91787e-14)
(2.04333e-13 0 -3.45512e-15)
(2.20344e-13 0 -3.75604e-14)
(2.42736e-13 0 -6.32786e-14)
(2.69147e-13 0 -8.10646e-14)
(2.97532e-13 0 -9.15632e-14)
(3.26147e-13 0 -9.55558e-14)
(3.53551e-13 0 -9.39171e-14)
(3.78595e-13 0 -8.75673e-14)
(4.00413e-13 0 -7.74311e-14)
(4.18399e-13 0 -6.4403e-14)
(4.32179e-13 0 -4.93125e-14)
(4.4155e-13 0 -3.2891e-14)
(4.46428e-13 0 -1.57568e-14)
(4.46816e-13 0 1.57654e-15)
(4.42813e-13 0 1.86867e-14)
(4.34607e-13 0 3.52388e-14)
(4.22463e-13 0 5.09847e-14)
(4.06699e-13 0 6.57567e-14)
(3.87673e-13 0 7.9453e-14)
(3.65758e-13 0 9.20193e-14)
(3.41328e-13 0 1.03432e-13)
(3.14727e-13 0 1.13686e-13)
(2.8626e-13 0 1.22781e-13)
(2.56192e-13 0 1.30719e-13)
(2.24752e-13 0 1.37506e-13)
(1.9214e-13 0 1.43162e-13)
(1.58542e-13 0 1.47722e-13)
(1.24136e-13 0 1.51243e-13)
(8.9109e-14 0 1.538e-13)
(5.36579e-14 0 1.55465e-13)
(1.79259e-14 0 1.56292e-13)
(-4.69302e-05 0 0.000148243)
(-8.45323e-05 0 0.000138976)
(-0.000146055 0 0.000154919)
(-0.000257495 0 0.000177639)
(-0.000265584 0 0.000376657)
(-0.000183224 0 0.000601755)
(-0.000319157 0 0.00060811)
(-0.000577517 0 0.000441654)
(-0.000697302 0 0.000362326)
(-0.000715264 0 0.000486011)
(-0.000806295 0 0.00043144)
(-0.000896751 0 0.00029358)
(-0.000964222 0 0.000206009)
(-0.00103313 0 0.000157086)
(-0.00107679 0 0.000199094)
(-0.00114748 0 0.000151009)
(-0.00120262 0 8.61095e-05)
(-0.00122123 0 0.000114952)
(-0.00123845 0 0.000163027)
(-0.00126559 0 0.000213777)
(-0.00126714 0 0.000262723)
(-0.00125039 0 0.000309768)
(-0.001245 0 0.000377737)
(-0.00126216 0 0.000348789)
(-0.00125292 0 0.000304143)
(-0.00124395 0 0.00026419)
(-0.00122019 0 0.000187326)
(-0.00116497 0 4.71392e-05)
(-0.00113932 0 5.19434e-05)
(-0.00114506 0 -0.000100669)
(-0.00116263 0 -0.000208326)
(-0.00116656 0 -0.000224914)
(-0.00111494 0 -0.000334276)
(-0.0010818 0 -0.000390402)
(-0.0010745 0 -0.000479027)
(-0.00110254 0 -0.000427471)
(-0.00109626 0 -0.000420829)
(-0.00109343 0 -0.000433666)
(-0.00109882 0 -0.000415346)
(-0.00106271 0 -0.000333453)
(-0.00103915 0 -0.000212359)
(-0.00101009 0 -0.000150965)
(-0.000958482 0 0.000216501)
(-0.000875898 0 3.10695e-05)
(-0.000760905 0 0.000268101)
(-0.000730546 0 9.53445e-05)
(-0.000685888 0 6.37572e-05)
(-0.000657727 0 4.6253e-05)
(-0.000638609 0 -0.000124522)
(-0.000604164 0 -0.000125579)
(-0.000593628 0 -0.000134701)
(-0.000575285 0 -0.000217033)
(-0.00055812 0 -0.00035905)
(-0.000628832 0 -0.000293481)
(-0.000606396 0 -0.000357345)
(-0.000580623 0 -0.000413413)
(-0.000562746 0 -0.000434264)
(-0.000506368 0 -0.000492538)
(-0.000400168 0 -0.000543102)
(-0.000307526 0 -0.000496476)
(-0.000195745 0 -0.00045341)
(-4.66967e-05 0 -0.00045559)
(5.98845e-05 0 -0.000402515)
(0.000199079 0 -0.00031121)
(0.000176812 0 -0.000296092)
(0.000226766 0 -0.000216966)
(0.000250942 0 -0.000161067)
(0.000280944 0 -8.17309e-05)
(0.00028889 0 -5.98789e-05)
(0.000307437 0 -3.82175e-05)
(0.000336625 0 -4.80918e-06)
(0.000367692 0 1.7029e-05)
(0.000372422 0 0.00010741)
(0.000389462 0 0.000110494)
(0.000398298 0 0.000179022)
(0.000410399 0 0.000210805)
(0.000426078 0 0.000241308)
(0.000300722 0 0.000388059)
(0.000373585 0 0.000380072)
(-8.94963e-05 0 0.000458964)
(9.77075e-06 0 0.00085277)
(-1.42186e-12 0 1.7943e-12)
(-8.16575e-13 0 2.78471e-13)
(4.09228e-13 0 3.84792e-13)
(2.80866e-13 0 3.43327e-13)
(1.99149e-13 0 2.61452e-13)
(1.56304e-13 0 1.75892e-13)
(1.4095e-13 0 9.8669e-14)
(1.44559e-13 0 3.30713e-14)
(1.6133e-13 0 -2.03942e-14)
(1.8714e-13 0 -6.21263e-14)
(2.1884e-13 0 -9.28507e-14)
(2.53852e-13 0 -1.13436e-13)
(2.89989e-13 0 -1.24847e-13)
(3.25401e-13 0 -1.2814e-13)
(3.58577e-13 0 -1.24464e-13)
(3.88349e-13 0 -1.15004e-13)
(4.13868e-13 0 -1.00942e-13)
(4.34581e-13 0 -8.3412e-14)
(4.50206e-13 0 -6.34679e-14)
(4.60659e-13 0 -4.2043e-14)
(4.65981e-13 0 -1.99217e-14)
(4.66292e-13 0 2.25716e-15)
(4.61791e-13 0 2.39803e-14)
(4.52766e-13 0 4.4848e-14)
(4.39576e-13 0 6.45679e-14)
(4.22619e-13 0 8.2947e-14)
(4.02316e-13 0 9.98733e-14)
(3.79088e-13 0 1.15295e-13)
(3.53334e-13 0 1.29201e-13)
(3.25415e-13 0 1.41606e-13)
(2.95645e-13 0 1.52539e-13)
(2.64293e-13 0 1.62037e-13)
(2.31594e-13 0 1.70137e-13)
(1.97762e-13 0 1.76887e-13)
(1.62998e-13 0 1.82344e-13)
(1.27497e-13 0 1.86578e-13)
(9.14506e-14 0 1.89671e-13)
(5.50429e-14 0 1.91694e-13)
(1.83857e-14 0 1.92699e-13)
(-2.9101e-05 0 0.000195836)
(4.60544e-06 0 0.000204934)
(-0.000110553 0 0.000267941)
(-0.000224712 0 0.000338422)
(-0.000498678 0 0.000436466)
(-0.000578583 0 0.000483843)
(-0.000548139 0 0.000556495)
(-0.00059668 0 0.000550256)
(-0.00069748 0 0.00049695)
(-0.00075984 0 0.000462319)
(-0.000809372 0 0.000422473)
(-0.000881653 0 0.000332549)
(-0.000939026 0 0.000294451)
(-0.000996919 0 0.000260636)
(-0.00103669 0 0.000244465)
(-0.00112131 0 0.000138302)
(-0.00118345 0 0.000115474)
(-0.00121187 0 0.000167801)
(-0.00124021 0 0.000148955)
(-0.00125417 0 0.000183935)
(-0.00124672 0 0.000245614)
(-0.00122679 0 0.000325532)
(-0.00120678 0 0.000402147)
(-0.00119008 0 0.000413638)
(-0.00118754 0 0.000227399)
(-0.00112407 0 0.00021624)
(-0.00107149 0 0.00013969)
(-0.00101201 0 -7.00363e-07)
(-0.000979383 0 -2.74893e-05)
(-0.000986432 0 -9.23873e-05)
(-0.00102385 0 -0.000169409)
(-0.00103646 0 -0.000195284)
(-0.00102626 0 -0.000348688)
(-0.00103629 0 -0.000521705)
(-0.00109828 0 -0.000480353)
(-0.00112989 0 -0.000435575)
(-0.00112033 0 -0.000481991)
(-0.00115693 0 -0.000438614)
(-0.0011693 0 -0.000421482)
(-0.0012161 0 -0.000258156)
(-0.00119109 0 -0.000313524)
(-0.00119562 0 -0.000186729)
(-0.00112845 0 6.23711e-05)
(-0.00103966 0 6.81311e-05)
(-0.000955728 0 -0.000212034)
(-0.000874433 0 0.000163855)
(-0.000794307 0 -4.83989e-05)
(-0.0007466 0 -3.5369e-05)
(-0.000737248 0 -0.00010813)
(-0.000707855 0 -0.000176365)
(-0.000687788 0 -0.000180195)
(-0.000685172 0 -0.000216595)
(-0.000699846 0 -0.000283683)
(-0.000679484 0 -0.000360244)
(-0.000692678 0 -0.000368359)
(-0.0006749 0 -0.000433949)
(-0.000643138 0 -0.00048691)
(-0.0006333 0 -0.000502908)
(-0.000509523 0 -0.000609108)
(-0.000490826 0 -0.00056973)
(-0.000419147 0 -0.000582622)
(-0.000245614 0 -0.000623086)
(-0.000235953 0 -0.000501992)
(-0.000106641 0 -0.000437344)
(7.22305e-06 0 -0.000370409)
(0.000142974 0 -0.000235733)
(0.000154695 0 -0.000160438)
(0.000163523 0 -0.0001305)
(0.000185546 0 -0.000113472)
(0.000223338 0 -5.86292e-05)
(0.000249676 0 -3.28246e-05)
(0.000269704 0 2.55882e-05)
(0.000298945 0 6.40857e-06)
(0.000328403 0 7.09102e-05)
(0.000310612 0 0.000205461)
(0.000306294 0 0.000276129)
(0.00033677 0 0.000313954)
(0.000286517 0 0.000415308)
(0.000245113 0 0.000486812)
(-0.000158325 0 0.000502123)
(1.08683e-05 0 0.00104901)
(-1.56738e-12 0 3.79695e-12)
(-3.89777e-13 0 7.16206e-13)
(4.35216e-13 0 6.29333e-13)
(1.9609e-13 0 4.68178e-13)
(9.615e-14 0 3.20064e-13)
(6.12279e-14 0 1.96482e-13)
(5.99886e-14 0 9.57963e-14)
(7.83621e-14 0 1.47408e-14)
(1.09136e-13 0 -4.91697e-14)
(1.47888e-13 0 -9.77859e-14)
(1.91426e-13 0 -1.32593e-13)
(2.37151e-13 0 -1.54935e-13)
(2.82828e-13 0 -1.66135e-13)
(3.2653e-13 0 -1.67559e-13)
(3.66687e-13 0 -1.60659e-13)
(4.02116e-13 0 -1.46929e-13)
(4.32005e-13 0 -1.2784e-13)
(4.55874e-13 0 -1.04791e-13)
(4.73548e-13 0 -7.90813e-14)
(4.85097e-13 0 -5.18599e-14)
(4.90728e-13 0 -2.40872e-14)
(4.90718e-13 0 3.47078e-15)
(4.85404e-13 0 3.0218e-14)
(4.75195e-13 0 5.57032e-14)
(4.60562e-13 0 7.96045e-14)
(4.42005e-13 0 1.01717e-13)
(4.2002e-13 0 1.21931e-13)
(3.95085e-13 0 1.40212e-13)
(3.67639e-13 0 1.56574e-13)
(3.38065e-13 0 1.71067e-13)
(3.06691e-13 0 1.83759e-13)
(2.7379e-13 0 1.94728e-13)
(2.39602e-13 0 2.04054e-13)
(2.04347e-13 0 2.11819e-13)
(1.68234e-13 0 2.18104e-13)
(1.31463e-13 0 2.22996e-13)
(9.4225e-14 0 2.26582e-13)
(5.66863e-14 0 2.28933e-13)
(1.89306e-14 0 2.30098e-13)
(-2.62664e-05 0 0.000258141)
(-0.000228547 0 0.000274332)
(-0.000101901 0 0.000356716)
(-0.000132922 0 0.000469825)
(-0.000257746 0 0.000610066)
(-0.000486506 0 0.000674735)
(-0.00054447 0 0.000683246)
(-0.00062278 0 0.000633522)
(-0.000652616 0 0.000622961)
(-0.000686357 0 0.000598509)
(-0.000727837 0 0.000536801)
(-0.00082525 0 0.00040443)
(-0.000891423 0 0.000328382)
(-0.000922159 0 0.000310885)
(-0.000961553 0 0.00026911)
(-0.0010258 0 0.000201512)
(-0.00106995 0 0.000207984)
(-0.00112165 0 0.000196826)
(-0.00117498 0 0.000177797)
(-0.00119713 0 0.000204243)
(-0.00119914 0 0.000212983)
(-0.00117002 0 0.000283703)
(-0.00111137 0 0.000378332)
(-0.00106922 0 0.000340638)
(-0.00103267 0 0.000182639)
(-0.000964086 0 0.000113649)
(-0.000910198 0 9.00849e-05)
(-0.000884864 0 1.63257e-05)
(-0.000868919 0 -1.95467e-05)
(-0.000867798 0 -5.03061e-05)
(-0.000884211 0 -0.000160954)
(-0.000898721 0 -0.000234985)
(-0.00098035 0 -0.000237144)
(-0.00111758 0 -0.000188799)
(-0.00115384 0 -0.000296666)
(-0.00112949 0 -0.000460921)
(-0.00116661 0 -0.000432114)
(-0.00120443 0 -0.000390572)
(-0.00122093 0 -0.000369113)
(-0.00125871 0 -0.000262537)
(-0.0012792 0 -0.000248683)
(-0.00127957 0 -0.000235201)
(-0.00124244 0 -0.00017694)
(-0.00123813 0 -0.000127772)
(-0.0012153 0 0.000186059)
(-0.00109586 0 -3.76116e-05)
(-0.000997655 0 -0.000154665)
(-0.000921161 0 -8.34983e-05)
(-0.000853714 0 -0.000171256)
(-0.000804038 0 -0.00019545)
(-0.000765665 0 -0.000215852)
(-0.000748696 0 -0.000234644)
(-0.00071521 0 -0.000333418)
(-0.000708055 0 -0.000381396)
(-0.000740593 0 -0.000358523)
(-0.000708238 0 -0.000465753)
(-0.000694056 0 -0.000520146)
(-0.000664794 0 -0.000574459)
(-0.000635262 0 -0.000610339)
(-0.000537648 0 -0.000689421)
(-0.000487512 0 -0.000703883)
(-0.000355622 0 -0.000715273)
(-0.000363166 0 -0.000573222)
(-0.00029998 0 -0.000512962)
(-0.000180978 0 -0.00047399)
(-0.000133725 0 -0.000380866)
(-5.34064e-05 0 -0.000282664)
(7.62185e-05 0 -0.000155391)
(0.00010924 0 -9.89978e-05)
(0.00011711 0 -8.90714e-05)
(0.000148557 0 -6.33292e-05)
(0.000188722 0 -6.7576e-05)
(0.000248748 0 -5.78395e-06)
(0.00024281 0 0.000127209)
(0.000249651 0 0.000177921)
(0.000275171 0 0.00021918)
(0.000292897 0 0.000296544)
(0.000240566 0 0.000426625)
(0.000353802 0 0.000513308)
(-0.000289176 0 0.000525349)
(1.11298e-05 0 0.00129739)
(-3.86817e-13 0 1.26057e-11)
(-6.6278e-13 0 1.60976e-12)
(1.61689e-13 0 9.47871e-13)
(-2.79225e-14 0 5.79856e-13)
(-7.20857e-14 0 3.53962e-13)
(-6.77109e-14 0 1.94127e-13)
(-4.07658e-14 0 7.30807e-14)
(-4.06887e-16 0 -2.09392e-14)
(4.88037e-14 0 -9.34404e-14)
(1.03717e-13 0 -1.4744e-13)
(1.6169e-13 0 -1.84939e-13)
(2.2031e-13 0 -2.07625e-13)
(2.77365e-13 0 -2.17138e-13)
(3.30877e-13 0 -2.15172e-13)
(3.79207e-13 0 -2.03523e-13)
(4.21169e-13 0 -1.84041e-13)
(4.56006e-13 0 -1.58539e-13)
(4.8334e-13 0 -1.28719e-13)
(5.03137e-13 0 -9.61414e-14)
(5.15653e-13 0 -6.21834e-14)
(5.21312e-13 0 -2.79867e-14)
(5.20597e-13 0 5.55754e-15)
(5.14023e-13 0 3.77821e-14)
(5.02153e-13 0 6.82036e-14)
(4.85589e-13 0 9.64929e-14)
(4.64946e-13 0 1.22454e-13)
(4.40812e-13 0 1.45999e-13)
(4.13731e-13 0 1.67125e-13)
(3.84188e-13 0 1.85889e-13)
(3.526e-13 0 2.02387e-13)
(3.19306e-13 0 2.16738e-13)
(2.84588e-13 0 2.29072e-13)
(2.48684e-13 0 2.39516e-13)
(2.11811e-13 0 2.48192e-13)
(1.74176e-13 0 2.55213e-13)
(1.35975e-13 0 2.60685e-13)
(9.73879e-14 0 2.64702e-13)
(5.85596e-14 0 2.67339e-13)
(1.95505e-14 0 2.68641e-13)
(-0.000119499 0 0.000282596)
(0.000346713 0 0.000227012)
(-0.000148611 0 0.000373575)
(-0.000127773 0 0.00055508)
(-0.000134606 0 0.000725401)
(-0.000291886 0 0.000817921)
(-0.00037953 0 0.000808578)
(-0.000491293 0 0.000740896)
(-0.00063756 0 0.000625959)
(-0.000676179 0 0.000593339)
(-0.000707062 0 0.000528341)
(-0.000726221 0 0.000486792)
(-0.000804099 0 0.00037778)
(-0.000831716 0 0.00034191)
(-0.00085139 0 0.000312301)
(-0.000888567 0 0.000270463)
(-0.000934168 0 0.00021664)
(-0.000965435 0 0.000237497)
(-0.00101225 0 0.000215511)
(-0.00104045 0 0.000211362)
(-0.00104778 0 0.000227461)
(-0.00103478 0 0.000239666)
(-0.000971288 0 0.000284995)
(-0.000902514 0 0.000249674)
(-0.000841409 0 0.000156397)
(-0.000787979 0 8.88349e-05)
(-0.000761243 0 2.59189e-05)
(-0.000755047 0 -1.11068e-05)
(-0.000753784 0 -3.24104e-05)
(-0.000757957 0 -6.34185e-05)
(-0.000784498 0 -0.000115318)
(-0.000822467 0 -0.000169225)
(-0.000862174 0 -0.000263234)
(-0.00091759 0 -0.000330633)
(-0.00102337 0 -0.000323124)
(-0.00113497 0 -0.000342223)
(-0.00118131 0 -0.000409254)
(-0.00121477 0 -0.000382584)
(-0.00123832 0 -0.00033961)
(-0.00126814 0 -0.000250839)
(-0.00128834 0 -0.00023713)
(-0.0012983 0 -0.000208444)
(-0.00129927 0 -7.28531e-05)
(-0.00127568 0 -0.000142644)
(-0.00122687 0 -7.96146e-05)
(-0.00113865 0 -3.15469e-05)
(-0.00103301 0 -0.000247304)
(-0.000960729 0 -0.000134737)
(-0.00087089 0 -0.00023679)
(-0.000826545 0 -0.000227543)
(-0.000782493 0 -0.000250696)
(-0.000754375 0 -0.000275916)
(-0.000742441 0 -0.000302388)
(-0.000712139 0 -0.000399694)
(-0.000754353 0 -0.000350229)
(-0.000715223 0 -0.000479976)
(-0.000729829 0 -0.00053163)
(-0.000698884 0 -0.000621217)
(-0.000638733 0 -0.000711053)
(-0.000620989 0 -0.000737484)
(-0.0005949 0 -0.000760277)
(-0.000528094 0 -0.000769651)
(-0.000435033 0 -0.000691626)
(-0.000406769 0 -0.000568117)