/*--------------------------------*- C++ -*----------------------------------*\
  =========                 |
  \\      /  F ield         | OpenFOAM: The Open Source CFD Toolbox
   \\    /   O peration     | Website:  https://openfoam.org
    \\  /    A nd           | Version:  6
     \\/     M anipulation  |
\*---------------------------------------------------------------------------*/
FoamFile
{
    version     2.0;
    format      ascii;
    class       volScalarField;
    location    "990";
    object      dmdt;
}
// * * * * * * * * * * * * * * * * * * * * * * * * * * * * * * * * * * * * * //

dimensions      [0 0 0 0 0 0 0];

internalField   nonuniform List<scalar> 
5964
(
-0.363138
-0.323857
-0.289766
-0.262065
-0.240229
-0.22308
-0.209074
-0.197048
-0.185871
-0.17477
-0.163514
-0.151724
-0.139367
-0.126634
-0.113867
-0.101385
-0.089382
-0.0779685
-0.0670163
-0.0564101
-0.0457933
-0.0349649
-0.0143045
-0.0225075
-0.0211352
-0.0198963
-0.0188844
-0.0181047
-0.0175242
-0.0170974
-0.0167786
-0.0165295
-0.0163202
-0.0161298
-0.0159449
-0.0157582
-0.0155669
-0.0153713
-0.0151735
-0.0149762
-0.0147826
-0.0145951
-0.0144156
-0.014245
-0.0140834
-0.0139302
-0.013784
-0.013643
-0.0135051
-0.0133676
-0.0132281
-0.013084
-0.0129326
-0.0127715
-0.0125985
-0.0124113
-0.012208
-0.011987
-0.0117469
-0.0114864
-0.0112045
-0.0109004
-0.0105738
-0.0102242
-0.00985169
-0.0094563
-0.00903841
-0.00859852
-0.00813732
-0.00765563
-0.00715437
-0.00663451
-0.00609701
-0.00554277
-0.00497265
-0.00438764
-0.00378949
-0.00318163
-0.00257011
-0.00196217
-0.0013597
-0.000753274
-0.000153953
0.000294272
-0.362961
-0.324656
-0.291872
-0.265039
-0.24391
-0.227017
-0.213277
-0.201478
-0.1904
-0.179318
-0.168176
-0.156248
-0.143647
-0.130631
-0.117574
-0.104821
-0.0925871
-0.0809132
-0.0695523
-0.0584062
-0.0472526
-0.036124
-0.0257463
-0.0227896
-0.0210722
-0.0197314
-0.01869
-0.0179162
-0.0173582
-0.0169582
-0.016665
-0.0164371
-0.0162444
-0.0160661
-0.0158896
-0.0157085
-0.0155211
-0.0153281
-0.0151325
-0.0149375
-0.0147462
-0.0145615
-0.0143852
-0.0142182
-0.0140605
-0.0139114
-0.0137694
-0.0136326
-0.0134986
-0.013365
-0.0132291
-0.0130882
-0.0129397
-0.0127813
-0.0126104
-0.0124252
-0.0122236
-0.0120039
-0.0117648
-0.0115051
-0.0112238
-0.0109201
-0.0105936
-0.010244
-0.00987125
-0.00947551
-0.00905713
-0.00861664
-0.00815473
-0.00767223
-0.00717007
-0.00664925
-0.00611073
-0.00555545
-0.00498429
-0.00439826
-0.00379904
-0.00318981
-0.00257563
-0.00196031
-0.0013353
-0.000668047
5.3684e-05
0.000641326
-0.364088
-0.327691
-0.296302
-0.270526
-0.250102
-0.233774
-0.220516
-0.209118
-0.19822
-0.187221
-0.176223
-0.164123
-0.151133
-0.137744
-0.124373
-0.111362
-0.0987493
-0.0864948
-0.0743353
-0.0621985
-0.0498573
-0.0369115
-0.0143957
-0.0220616
-0.020742
-0.019343
-0.0182735
-0.0175276
-0.0170239
-0.0166829
-0.0164426
-0.0162577
-0.0160975
-0.0159425
-0.015782
-0.0156114
-0.0154308
-0.0152428
-0.0150511
-0.0148601
-0.0146735
-0.0144944
-0.0143245
-0.0141647
-0.0140149
-0.0138741
-0.0137405
-0.013612
-0.0134862
-0.0133602
-0.0132314
-0.013097
-0.0129544
-0.0128012
-0.0126349
-0.0124535
-0.0122551
-0.0120381
-0.0118011
-0.0115429
-0.0112627
-0.0109597
-0.0106334
-0.0102837
-0.00991056
-0.0095141
-0.00909474
-0.00865301
-0.00818966
-0.00770552
-0.00720155
-0.00667878
-0.00613822
-0.00558084
-0.00500758
-0.00441949
-0.00381819
-0.00320658
-0.00258882
-0.00196586
-0.0013207
-0.000601783
0.000223189
0.000928673
-0.365523
-0.331599
-0.302032
-0.277558
-0.258065
-0.242499
-0.229912
-0.218954
-0.208279
-0.197495
-0.186411
-0.174116
-0.160857
-0.147344
-0.133696
-0.12015
-0.106735
-0.0935094
-0.0803537
-0.0671605
-0.0538549
-0.040561
-0.0273481
-0.0235539
-0.0205647
-0.0187153
-0.0175928
-0.0169212
-0.0165222
-0.0162811
-0.0161242
-0.0160039
-0.015891
-0.0157688
-0.0156297
-0.0154726
-0.0153004
-0.0151179
-0.0149311
-0.0147453
-0.0145653
-0.0143941
-0.0142338
-0.014085
-0.0139472
-0.013819
-0.0136982
-0.0135823
-0.0134687
-0.0133543
-0.0132362
-0.0131116
-0.0129778
-0.0128322
-0.0126727
-0.012497
-0.0123034
-0.0120903
-0.0118564
-0.0116005
-0.0113218
-0.0110197
-0.0106938
-0.0103439
-0.00997002
-0.00957242
-0.00915152
-0.00870791
-0.00824234
-0.00775571
-0.007249
-0.00672326
-0.00617959
-0.00561901
-0.00504255
-0.0044513
-0.00384686
-0.00323206
-0.00261131
-0.0019876
-0.00135165
-0.000670757
6.4774e-05
0.00065748
-0.367041
-0.335785
-0.308346
-0.285472
-0.267141
-0.252499
-0.240514
-0.229731
-0.219072
-0.208174
-0.196606
-0.183959
-0.170381
-0.156551
-0.142457
-0.128342
-0.114361
-0.100562
-0.0866876
-0.0725526
-0.0582781
-0.0442376
-0.031764
-0.0236462
-0.0194909
-0.0175121
-0.0165461
-0.0160791
-0.0158651
-0.0157743
-0.0157326
-0.0156969
-0.0156429
-0.0155594
-0.015444
-0.0153003
-0.0151353
-0.0149574
-0.0147747
-0.0145944
-0.0144221
-0.0142613
-0.0141138
-0.0139798
-0.0138582
-0.013747
-0.0136435
-0.0135448
-0.0134475
-0.0133486
-0.0132448
-0.0131333
-0.0130111
-0.0128758
-0.0127251
-0.012557
-0.0123697
-0.0121616
-0.0119317
-0.0116787
-0.011402
-0.011101
-0.0107754
-0.0104251
-0.0100502
-0.00965098
-0.00922794
-0.00878173
-0.00831314
-0.0078231
-0.00731266
-0.00678292
-0.00623502
-0.00567009
-0.00508923
-0.0044936
-0.00388477
-0.00326549
-0.00264053
-0.00201563
-0.00139158
-0.000758674
-0.000130181
0.000338776
-0.368588
-0.340066
-0.314733
-0.293429
-0.276127
-0.261843
-0.24951
-0.238172
-0.226973
-0.215662
-0.203899
-0.191258
-0.177833
-0.164022
-0.149708
-0.135206
-0.120765
-0.106374
-0.0918374
-0.0770104
-0.0618785
-0.0467247
-0.0322553
-0.0198914
-0.0166129
-0.0154897
-0.015102
-0.0150297
-0.0150939
-0.0152026
-0.0153036
-0.0153669
-0.015378
-0.0153338
-0.0152394
-0.0151048
-0.0149425
-0.0147652
-0.0145841
-0.0144083
-0.0142444
-0.0140959
-0.0139644
-0.0138493
-0.0137485
-0.0136592
-0.0135778
-0.0135008
-0.0134244
-0.013345
-0.0132592
-0.0131639
-0.0130562
-0.0129337
-0.0127939
-0.0126351
-0.0124554
-0.0122535
-0.0120283
-0.0117788
-0.0115043
-0.0112045
-0.0108792
-0.0105282
-0.0101518
-0.00975045
-0.00932459
-0.00887499
-0.00840249
-0.00790809
-0.00739288
-0.00685803
-0.00630474
-0.00573424
-0.0051477
-0.00454634
-0.00393166
-0.00330609
-0.00267376
-0.00203951
-0.00140287
-0.000751714
-9.53534e-05
0.00040626
-0.369784
-0.343578
-0.320186
-0.300221
-0.283362
-0.268667
-0.255394
-0.242902
-0.230915
-0.219243
-0.20752
-0.195328
-0.18246
-0.16885
-0.154464
-0.139778
-0.125049
-0.110301
-0.0954541
-0.0803762
-0.0649811
-0.049057
-0.0314567
-0.00412098
-0.0119534
-0.0128994
-0.0134352
-0.0138903
-0.0142918
-0.0146292
-0.0148871
-0.0150543
-0.0151283
-0.0151165
-0.0150335
-0.014898
-0.0147293
-0.0145452
-0.0143608
-0.0141871
-0.0140315
-0.0138975
-0.0137855
-0.0136937
-0.0136188
-0.0135567
-0.0135027
-0.0134523
-0.0134013
-0.0133456
-0.0132814
-0.0132056
-0.0131153
-0.0130078
-0.0128811
-0.0127331
-0.0125624
-0.0123676
-0.0121478
-0.0119022
-0.0116302
-0.0113316
-0.0110062
-0.0106542
-0.0102758
-0.00987162
-0.00944218
-0.00898832
-0.00851096
-0.00801117
-0.00749008
-0.00694894
-0.00638903
-0.00581165
-0.00521806
-0.00460953
-0.00398743
-0.00335366
-0.00271071
-0.00205862
-0.0013836
-0.000643838
0.000184199
0.000884721
-0.370664
-0.346013
-0.323798
-0.304378
-0.287087
-0.271316
-0.256742
-0.243152
-0.230426
-0.218479
-0.206974
-0.195369
-0.18309
-0.169922
-0.155961
-0.141552
-0.126941
-0.112261
-0.0974871
-0.0824574
-0.0670402
-0.0511977
-0.0346947
-0.0160155
-0.010286
-0.0107684
-0.0119128
-0.0128468
-0.0135719
-0.0141334
-0.0145447
-0.0148083
-0.0149324
-0.0149361
-0.0148465
-0.0146927
-0.0145026
-0.0143004
-0.0141048
-0.0139294
-0.0137817
-0.0136642
-0.0135758
-0.0135127
-0.0134696
-0.0134405
-0.0134195
-0.0134011
-0.0133803
-0.0133525
-0.0133137
-0.0132607
-0.0131905
-0.0131005
-0.0129886
-0.0128531
-0.0126926
-0.0125058
-0.012292
-0.0120506
-0.0117812
-0.0114835
-0.0111578
-0.0108043
-0.0104233
-0.0100154
-0.00958154
-0.00912245
-0.00863918
-0.00813287
-0.00760474
-0.00705607
-0.00648823
-0.00590259
-0.0053005
-0.00468325
-0.00405214
-0.00340855
-0.00275343
-0.00208251
-0.00137068
-0.000551369
0.00042664
0.00129945
-0.371209
-0.347221
-0.325067
-0.305042
-0.286529
-0.269149
-0.252836
-0.238028
-0.224888
-0.213072
-0.202214
-0.191498
-0.180101
-0.167774
-0.154551
-0.140702
-0.126568
-0.112359
-0.0980589
-0.0835209
-0.0686311
-0.0533226
-0.0374955
-0.0209161
-0.000781083
-0.00818258
-0.0106718
-0.0120576
-0.0130424
-0.0137963
-0.0143443
-0.014686
-0.0148353
-0.0148254
-0.0146997
-0.0145013
-0.0142681
-0.0140313
-0.013814
-0.0136314
-0.0134908
-0.0133928
-0.0133332
-0.0133052
-0.0133007
-0.0133115
-0.0133299
-0.0133491
-0.0133635
-0.013368
-0.0133585
-0.0133315
-0.0132841
-0.0132139
-0.0131188
-0.0129973
-0.012848
-0.0126701
-0.0124628
-0.0122257
-0.0119588
-0.0116619
-0.0113354
-0.0109796
-0.0105952
-0.0101829
-0.00974358
-0.00927818
-0.00878786
-0.00827383
-0.00773738
-0.00717986
-0.00660271
-0.00600736
-0.00539522
-0.00476766
-0.00412592
-0.00347117
-0.00280406
-0.00212165
-0.0014076
-0.000622323
0.000245399
0.000960504
-0.371356
-0.347206
-0.323977
-0.302025
-0.281173
-0.261684
-0.243908
-0.228361
-0.215284
-0.203929
-0.194042
-0.184292
-0.174031
-0.162882
-0.150705
-0.137719
-0.124338
-0.110865
-0.097339
-0.0836518
-0.0697347
-0.0555694
-0.0412616
-0.0270341
-0.0123589
-0.00950794
-0.0105176
-0.0117114
-0.0127824
-0.0136874
-0.0143568
-0.0147526
-0.0148888
-0.0148201
-0.0146151
-0.0143351
-0.0140291
-0.0137357
-0.0134827
-0.0132865
-0.0131527
-0.0130782
-0.0130542
-0.0130695
-0.013112
-0.0131704
-0.0132352
-0.0132983
-0.0133531
-0.0133943
-0.0134178
-0.0134201
-0.0133983
-0.0133501
-0.0132737
-0.0131676
-0.0130307
-0.0128623
-0.012662
-0.0124294
-0.0121648
-0.0118683
-0.0115404
-0.0111817
-0.010793
-0.0103752
-0.00992929
-0.00945641
-0.00895778
-0.00843471
-0.00788858
-0.00732082
-0.0067329
-0.00612631
-0.00550254
-0.00486299
-0.00420892
-0.00354137
-0.0028611
-0.00216796
-0.00145951
-0.000734526
-2.98418e-05
0.0004777
-0.371088
-0.346026
-0.320443
-0.295418
-0.271584
-0.250013
-0.231379
-0.215885
-0.203416
-0.192807
-0.183963
-0.175166
-0.165882
-0.155785
-0.144652
-0.132717
-0.120437
-0.108064
-0.0956636
-0.0831446
-0.0704485
-0.0575908
-0.0447272
-0.0320177
-0.0194007
-0.00337866
-0.0103186
-0.0115728
-0.0127492
-0.0138495
-0.0146601
-0.0150869
-0.0151535
-0.0149577
-0.0146132
-0.0142028
-0.0137854
-0.0134074
-0.0131013
-0.0128842
-0.0127582
-0.0127136
-0.0127348
-0.0128037
-0.0129032
-0.0130185
-0.0131374
-0.0132507
-0.0133512
-0.0134336
-0.0134938
-0.0135284
-0.013535
-0.0135112
-0.0134553
-0.0133662
-0.0132428
-0.0130846
-0.0128916
-0.0126636
-0.012401
-0.0121044
-0.0117744
-0.0114119
-0.0110179
-0.0105934
-0.0101397
-0.00965804
-0.00914973
-0.00861622
-0.00805896
-0.00747946
-0.00687924
-0.00625983
-0.00562277
-0.00496952
-0.00430139
-0.00361934
-0.002924
-0.00221651
-0.00150245
-0.000803656
-0.000185114
0.000211225
-0.370161
-0.343087
-0.31442
-0.285724
-0.258833
-0.235499
-0.216595
-0.201898
-0.190435
-0.180907
-0.172793
-0.164697
-0.156209
-0.147084
-0.137142
-0.126521
-0.115578
-0.104491
-0.0933981
-0.082273
-0.0710487
-0.0597386
-0.0484331
-0.0371991
-0.0261871
-0.0143749
-0.0127119
-0.0115888
-0.0128616
-0.0143368
-0.015365
-0.0157962
-0.0157017
-0.0152726
-0.0147087
-0.0141086
-0.0135321
-0.0130346
-0.0126547
-0.0124099
-0.0122955
-0.0122911
-0.0123703
-0.0125062
-0.0126749
-0.0128573
-0.0130387
-0.0132086
-0.0133599
-0.0134876
-0.0135879
-0.0136581
-0.0136956
-0.0136985
-0.0136652
-0.0135946
-0.0134859
-0.0133388
-0.0131534
-0.01293
-0.0126692
-0.0123719
-0.012039
-0.0116717
-0.0112712
-0.0108389
-0.010376
-0.00988403
-0.00936456
-0.00881908
-0.00824915
-0.00765633
-0.00704221
-0.00640834
-0.0057563
-0.00508762
-0.00440372
-0.00370567
-0.00299415
-0.00227093
-0.00154504
-0.000848192
-0.000257324
9.9054e-05
-0.368518
-0.338179
-0.305922
-0.27343
-0.243928
-0.219497
-0.200982
-0.187574
-0.177481
-0.169198
-0.161847
-0.154448
-0.146668
-0.138317
-0.129346
-0.119928
-0.11033
-0.10067
-0.091019
-0.0813649
-0.071672
-0.0619313
-0.0521376
-0.0422247
-0.0321337
-0.0214283
-0.00963355
-0.00954788
-0.0128506
-0.0152782
-0.016662
-0.0170404
-0.0166193
-0.0157795
-0.0149034
-0.0140526
-0.0132584
-0.0125986
-0.0121205
-0.0118433
-0.0117501
-0.0118022
-0.0119573
-0.0121769
-0.0124294
-0.0126903
-0.0129425
-0.0131752
-0.0133817
-0.0135581
-0.0137016
-0.0138099
-0.013881
-0.0139131
-0.0139045
-0.0138543
-0.0137616
-0.0136265
-0.0134492
-0.0132305
-0.0129712
-0.0126725
-0.0123359
-0.0119626
-0.0115544
-0.0111127
-0.0106391
-0.0101354
-0.00960312
-0.00904403
-0.00845977
-0.00785198
-0.00722228
-0.00657226
-0.00590352
-0.00521767
-0.00451625
-0.00380067
-0.00307219
-0.00233382
-0.00159729
-0.00089899
-0.000319179
2.15341e-05
-0.366181
-0.331052
-0.294469
-0.258518
-0.227429
-0.203041
-0.185638
-0.173715
-0.16518
-0.15802
-0.151322
-0.144557
-0.137459
-0.129867
-0.121796
-0.113506
-0.105175
-0.0969049
-0.0887188
-0.0805777
-0.0724245
-0.0642108
-0.0558909
-0.0473897
-0.0385793
-0.0291526
-0.0178723
-0.00111377
-0.0136363
-0.0171746
-0.0189009
-0.0190669
-0.0179996
-0.0164171
-0.0151734
-0.0140356
-0.0129433
-0.0120684
-0.0114636
-0.0111565
-0.0111057
-0.0112397
-0.0114948
-0.0118192
-0.0121721
-0.0125236
-0.0128546
-0.0131547
-0.0134193
-0.0136465
-0.0138352
-0.0139841
-0.0140915
-0.0141553
-0.0141739
-0.0141461
-0.0140712
-0.0139492
-0.0137807
-0.0135667
-0.0133085
-0.0130079
-0.0126665
-0.0122861
-0.0118687
-0.0114161
-0.0109302
-0.010413
-0.00986625
-0.00929181
-0.00869146
-0.00806694
-0.00741993
-0.00675203
-0.00606487
-0.00536006
-0.00463927
-0.0039042
-0.00315687
-0.00240192
-0.00165402
-0.000952805
-0.000378146
-4.29798e-05
-0.363346
-0.322323
-0.280724
-0.241439
-0.209247
-0.186247
-0.171
-0.160762
-0.15363
-0.147492
-0.141481
-0.135313
-0.128854
-0.122042
-0.114894
-0.107692
-0.100546
-0.0935396
-0.0866616
-0.0798701
-0.0730949
-0.066252
-0.0593183
-0.0523005
-0.0451108
-0.0375893
-0.0295207
-0.0192797
-0.0216981
-0.0206785
-0.0225504
-0.0222528
-0.0199324
-0.0168555
-0.0154648
-0.0140906
-0.012536
-0.0113905
-0.0106248
-0.0103091
-0.0103462
-0.0106014
-0.0109874
-0.0114417
-0.0119141
-0.0123684
-0.0127842
-0.0131536
-0.0134763
-0.0137542
-0.0139889
-0.0141801
-0.0143262
-0.0144247
-0.0144734
-0.0144707
-0.0144155
-0.0143081
-0.0141492
-0.0139402
-0.013683
-0.0133796
-0.0130324
-0.0126435
-0.0122154
-0.0117503
-0.0112504
-0.0107179
-0.0101548
-0.00956312
-0.00894483
-0.00830174
-0.00763561
-0.00694808
-0.00624076
-0.00551528
-0.0047733
-0.00401657
-0.00324754
-0.002472
-0.00170672
-0.000992419
-0.000403244
-4.22171e-05
-0.360556
-0.313935
-0.267985
-0.227004
-0.194385
-0.171719
-0.157827
-0.149082
-0.143088
-0.137825
-0.13251
-0.126937
-0.121092
-0.115035
-0.108782
-0.102586
-0.0965346
-0.0906862
-0.0849963
-0.0794094
-0.0738737
-0.0683376
-0.0628172
-0.0573712
-0.0518928
-0.0463659
-0.04068
-0.0348894
-0.0263193
-0.0136354
-0.0281151
-0.0272673
-0.0225846
-0.0157801
-0.0158102
-0.0144034
-0.011855
-0.0104748
-0.0094914
-0.00924079
-0.00946387
-0.00989546
-0.0104482
-0.0110619
-0.0116755
-0.0122439
-0.0127465
-0.0131818
-0.0135576
-0.0138826
-0.0141618
-0.0143962
-0.0145835
-0.0147202
-0.0148026
-0.0148281
-0.0147954
-0.0147044
-0.0145562
-0.0143526
-0.0140961
-0.0137893
-0.0134351
-0.0130364
-0.012596
-0.0121166
-0.0116007
-0.0110509
-0.0104695
-0.00985863
-0.00922044
-0.00855687
-0.00786975
-0.0071608
-0.00643165
-0.00568392
-0.00491923
-0.00413929
-0.00334664
-0.00254744
-0.00175822
-0.00101144
-0.000342754
0.000195785
-0.358453
-0.307999
-0.258726
-0.215532
-0.182605
-0.160473
-0.147167
-0.139114
-0.133789
-0.129177
-0.124522
-0.119569
-0.11436
-0.109045
-0.103658
-0.0984137
-0.0934142
-0.0886893
-0.0841967
-0.0798551
-0.0756105
-0.0714591
-0.0674591
-0.0636502
-0.0598111
-0.0560489
-0.0521706
-0.0479922
-0.0440827
-0.0402369
-0.0393562
-0.0350214
-0.0265775
-0.00452627
-0.0172626
-0.0157193
-0.0101048
-0.00925604
-0.00781791
-0.00786336
-0.00848743
-0.00914857
-0.00989932
-0.0107088
-0.0114907
-0.0121825
-0.0127661
-0.0132543
-0.0136701
-0.0140327
-0.0143521
-0.0146295
-0.0148609
-0.0150399
-0.0151605
-0.0152184
-0.0152114
-0.0151393
-0.0150032
-0.0148056
-0.0145495
-0.0142386
-0.0138763
-0.0134662
-0.0130117
-0.012516
-0.0119822
-0.011413
-0.0108111
-0.010179
-0.00951882
-0.00883276
-0.00812272
-0.00739052
-0.00663787
-0.00586647
-0.00507803
-0.00427445
-0.00345856
-0.00263662
-0.00182015
-0.0010029
-4.43685e-05
0.00131437
-0.355741
-0.300571
-0.24833
-0.203943
-0.171282
-0.150269
-0.13802
-0.130763
-0.125966
-0.121844
-0.117779
-0.113493
-0.108994
-0.104523
-0.100154
-0.0960322
-0.0922514
-0.0887683
-0.085522
-0.082488
-0.0795931
-0.0768366
-0.0743078
-0.0720121
-0.0696323
-0.0673304
-0.0648946
-0.0620448
-0.0590763
-0.0558294
-0.052555
-0.0465834
-0.0389463
-0.0289557
-0.0271525
-0.0200736
-0.00215775
-0.00843903
-0.00492114
-0.00608253
-0.0075757
-0.00840359
-0.00936098
-0.0104262
-0.0114183
-0.0122384
-0.0128817
-0.0133925
-0.0138216
-0.0142045
-0.0145561
-0.0148759
-0.0151548
-0.0153816
-0.0155463
-0.0156418
-0.0156646
-0.015614
-0.0154917
-0.0153008
-0.0150451
-0.0147292
-0.0143574
-0.0139342
-0.0134637
-0.0129496
-0.0123957
-0.0118049
-0.0111804
-0.0105247
-0.00984044
-0.00912978
-0.00839482
-0.00763748
-0.00685963
-0.00606317
-0.00525017
-0.00442317
-0.00358614
-0.00274606
-0.00190609
-0.000983786
0.000574936
0.00405405
-0.354055
-0.296029
-0.241878
-0.196486
-0.163685
-0.143071
-0.131245
-0.1244
-0.119985
-0.116307
-0.112808
-0.109268
-0.105663
-0.102217
-0.0990514
-0.0962045
-0.0936704
-0.0914635
-0.0895651
-0.087879
-0.0862954
-0.0848594
-0.0836693
-0.0826958
-0.0815882
-0.0803804
-0.0790526
-0.0771663
-0.0747848
-0.0716358
-0.067627
-0.0618962
-0.0558113
-0.0488206
-0.0415279
-0.0322133
-0.0185415
-0.0142466
0.0010303
-0.00407139
-0.00732286
-0.00762962
-0.00880941
-0.0102816
-0.0115611
-0.0125017
-0.0131518
-0.0136247
-0.01402
-0.0143951
-0.0147674
-0.0151291
-0.0154611
-0.0157433
-0.0159595
-0.016099
-0.0161564
-0.0161308
-0.0160241
-0.0158404
-0.0155848
-0.0152628
-0.0148801
-0.0144419
-0.0139532
-0.0134186
-0.0128421
-0.0122274
-0.0115778
-0.0108964
-0.0101857
-0.00944825
-0.00868626
-0.00790181
-0.00709695
-0.00627388
-0.00543524
-0.00458471
-0.00372835
-0.00287717
-0.00204621
-0.00121842
-0.00019139
0.0013556
-0.352555
-0.291846
-0.236264
-0.190618
-0.15827
-0.13824
-0.126844
-0.120311
-0.116203
-0.112988
-0.110103
-0.107372
-0.104788
-0.102435
-0.10038
-0.0987575
-0.0975075
-0.0965404
-0.0958791
-0.0954194
-0.0950078
-0.0947514
-0.0946771
-0.0947319
-0.0946825
-0.0942775
-0.093788
-0.0926315
-0.0907897
-0.0880501
-0.0844651
-0.0796138
-0.0744455
-0.0676727
-0.059686
-0.0509547
-0.0414485
-0.0302616
-0.0152923
-0.00219305
-0.00965597
-0.00617319
-0.00810713
-0.0104175
-0.0121116
-0.0131188
-0.0136569
-0.0139799
-0.0142656
-0.0145941
-0.0149749
-0.0153811
-0.0157754
-0.0161237
-0.0164012
-0.0165923
-0.0166897
-0.0166923
-0.016603
-0.016427
-0.0161709
-0.0158417
-0.0154462
-0.0149908
-0.0144816
-0.0139239
-0.0133223
-0.0126811
-0.012004
-0.0112943
-0.0105549
-0.00978837
-0.0089972
-0.00818356
-0.00734972
-0.0064982
-0.00563228
-0.00475686
-0.00388023
-0.00301648
-0.00218331
-0.00136339
-0.00035284
0.00119522
-0.350809
-0.287464
-0.231054
-0.186081
-0.154898
-0.135639
-0.124715
-0.11856
-0.114786
-0.11207
-0.109822
-0.107825
-0.106093
-0.104721
-0.103762
-0.103259
-0.103083
-0.103134
-0.10351
-0.104069
-0.104662
-0.105371
-0.106167
-0.107007
-0.107682
-0.108003
-0.108158
-0.10768
-0.106467
-0.104369
-0.101807
-0.0976487
-0.0931151
-0.0867553
-0.0796552
-0.0714205
-0.0622053
-0.0503229
-0.0388232
-0.0264604
-0.0191488
-0.000163493
-0.00724776
-0.0112622
-0.0134379
-0.0143118
-0.014489
-0.0144706
-0.014538
-0.0147764
-0.0151598
-0.0156217
-0.0160943
-0.016524
-0.0168748
-0.0171261
-0.0172691
-0.0173032
-0.0172324
-0.017064
-0.0168063
-0.016468
-0.0160574
-0.0155824
-0.01505
-0.0144664
-0.013837
-0.0131666
-0.0124593
-0.0117188
-0.0109482
-0.0101503
-0.00932767
-0.0084827
-0.00761778
-0.00673571
-0.00584028
-0.00493742
-0.00403712
-0.0031549
-0.00230127
-0.00139109
0.000151691
0.00364309
-0.34816
-0.281235
-0.224888
-0.182293
-0.153047
-0.134805
-0.124431
-0.118677
-0.115274
-0.113013
-0.111325
-0.110051
-0.109156
-0.108676
-0.108569
-0.108905
-0.109544
-0.110443
-0.111598
-0.112925
-0.114312
-0.115737
-0.117159
-0.118557
-0.119785
-0.120737
-0.12139
-0.121555
-0.12105
-0.119608
-0.1182
-0.1146
-0.111024
-0.105235
-0.0992051
-0.0914663
-0.0825674
-0.0716878
-0.0607688
-0.049134
-0.0377844
-0.0232931
-0.00505722
-0.0139737
-0.0161598
-0.0163652
-0.0157069
-0.0150493
-0.01477
-0.0148913
-0.0152942
-0.0158407
-0.0164186
-0.0169501
-0.0173883
-0.0177086
-0.017902
-0.0179695
-0.0179175
-0.0177555
-0.0174942
-0.0171443
-0.0167159
-0.0162183
-0.0156596
-0.015047
-0.0143868
-0.0136843
-0.012944
-0.01217
-0.0113657
-0.010534
-0.00967764
-0.00879912
-0.00790096
-0.00698609
-0.00605862
-0.00512509
-0.00419659
-0.00329063
-0.00242663
-0.00158838
-0.000594825
0.000816709
-0.347404
-0.279352
-0.222653
-0.180637
-0.152416
-0.135266
-0.12553
-0.120177
-0.117201
-0.115439
-0.114326
-0.113685
-0.113448
-0.113605
-0.114175
-0.115113
-0.116324
-0.11781
-0.119472
-0.121327
-0.123255
-0.125165
-0.127022
-0.128815
-0.130457
-0.131894
-0.133013
-0.1337
-0.133859
-0.133106
-0.132695
-0.129775
-0.127267
-0.122195
-0.117214
-0.110268
-0.102102
-0.0923802
-0.0818236
-0.0703213
-0.0579103
-0.0439643
-0.0281275
-0.0150565
-0.0209601
-0.0195284
-0.0172268
-0.0155276
-0.0148107
-0.0148548
-0.0153449
-0.0160337
-0.0167571
-0.017416
-0.0179561
-0.0183526
-0.0185991
-0.0186998
-0.0186648
-0.0185066
-0.0182385
-0.0178736
-0.0174238
-0.0169
-0.0163115
-0.0156666
-0.0149722
-0.0142344
-0.0134583
-0.012648
-0.0118073
-0.0109394
-0.010047
-0.00913268
-0.00819909
-0.00724919
-0.00628715
-0.00531965
-0.00435771
-0.0034174
-0.00251478
-0.00164964
-0.00079584
-3.45966e-05
-0.348954
-0.283154
-0.226677
-0.183678
-0.154656
-0.137437
-0.127931
-0.122918
-0.120343
-0.11902
-0.118395
-0.118217
-0.118446
-0.119113
-0.12013
-0.121456
-0.123001
-0.124808
-0.12676
-0.128917
-0.13117
-0.133402
-0.13554
-0.13759
-0.139513
-0.141287
-0.142775
-0.143973
-0.144601
-0.144617
-0.144748
-0.142861
-0.141045
-0.137284
-0.13306
-0.127301
-0.120042
-0.111417
-0.10145
-0.090196
-0.0776381
-0.063815
-0.0499322
-0.0381927
-0.0282562
-0.0239225
-0.0186107
-0.015437
-0.0143901
-0.0145581
-0.0152883
-0.0162137
-0.0171353
-0.0179481
-0.0186013
-0.0190769
-0.0193749
-0.0195052
-0.0194826
-0.0193233
-0.0190437
-0.0186591
-0.0181834
-0.017629
-0.0170067
-0.0163256
-0.0155936
-0.0148173
-0.014002
-0.0131526
-0.0122729
-0.0113661
-0.0104354
-0.00948311
-0.00851198
-0.00752495
-0.00652608
-0.00552181
-0.00452205
-0.00353807
-0.00256975
-0.00158199
-0.000534915
0.000358689
-0.349378
-0.284722
-0.2294
-0.18694
-0.158065
-0.140881
-0.131477
-0.126709
-0.124468
-0.12348
-0.123193
-0.123337
-0.12389
-0.124879
-0.126146
-0.127698
-0.129386
-0.131303
-0.133363
-0.135617
-0.138012
-0.140442
-0.142735
-0.144956
-0.147045
-0.149006
-0.150758
-0.15233
-0.153434
-0.154139
-0.15462
-0.153868
-0.152657
-0.150287
-0.146803
-0.142189
-0.136005
-0.128425
-0.119266
-0.108558
-0.0964227
-0.0829931
-0.0691619
-0.0555028
-0.0417947
-0.0249905
-0.0185647
-0.0138025
-0.0131354
-0.0139246
-0.0151501
-0.0164316
-0.0176034
-0.0185886
-0.0193573
-0.0199066
-0.0202478
-0.020399
-0.0203804
-0.0202125
-0.0199144
-0.0195039
-0.0189968
-0.0184069
-0.0177461
-0.0170247
-0.0162511
-0.0154326
-0.0145751
-0.0136835
-0.0127619
-0.0118139
-0.0108424
-0.00985004
-0.00883937
-0.00781329
-0.0067757
-0.00573264
-0.0046929
-0.00366362
-0.00263112
-0.00152681
-0.000271625
0.000853333
-0.349901
-0.286143
-0.231638
-0.190146
-0.162104
-0.145273
-0.136029
-0.131415
-0.129415
-0.128654
-0.128553
-0.128915
-0.129653
-0.130806
-0.132163
-0.133786
-0.135477
-0.137362
-0.139382
-0.141586
-0.143991
-0.146495
-0.148855
-0.151154
-0.153331
-0.15539
-0.157308
-0.159114
-0.160597
-0.161809
-0.162689
-0.162803
-0.162326
-0.160937
-0.158472
-0.154782
-0.149762
-0.143197
-0.135055
-0.125234
-0.113861
-0.100999
-0.0870126
-0.071851
-0.0552732
-0.037056
-0.0091681
-0.00886092
-0.0108264
-0.013072
-0.0150663
-0.0167944
-0.0182414
-0.0193966
-0.0202668
-0.0208722
-0.0212394
-0.0213961
-0.0213685
-0.021181
-0.0208554
-0.0204113
-0.0198661
-0.0192347
-0.0185303
-0.0177639
-0.0169446
-0.0160801
-0.0151769
-0.01424
-0.0132739
-0.0122821
-0.0112675
-0.010233
-0.00918083
-0.00811395
-0.00703601
-0.00595272
-0.0048726
-0.00380424
-0.00274309
-0.00165149
-0.000506043
0.000427734
-0.350836
-0.288319
-0.234667
-0.194067
-0.166912
-0.150596
-0.141515
-0.137005
-0.135107
-0.134481
-0.134464
-0.134901
-0.135711
-0.13688
-0.138238
-0.139796
-0.141426
-0.143202
-0.14511
-0.147185
-0.149489
-0.151905
-0.154257
-0.156539
-0.158729
-0.160817
-0.162817
-0.164744
-0.16649
-0.168042
-0.169309
-0.170042
-0.170239
-0.169636
-0.168121
-0.165379
-0.161403
-0.155909
-0.148895
-0.14023
-0.129985
-0.118028
-0.104264
-0.0884844
-0.0704728
-0.0500962
-0.0262494
0.0013923
-0.00846105
-0.0125904
-0.0153196
-0.0174594
-0.0191506
-0.0204415
-0.0213778
-0.0220067
-0.0223721
-0.0225117
-0.0224572
-0.0222359
-0.0218713
-0.0213842
-0.0207929
-0.0201134
-0.0193596
-0.018543
-0.0176735
-0.0167592
-0.0158067
-0.0148215
-0.013808
-0.0127698
-0.01171
-0.0106312
-0.00953578
-0.00842645
-0.00730655
-0.00618118
-0.00505815
-0.00394729
-0.00285545
-0.00178387
-0.000772287
-4.83633e-05
-0.35156
-0.29062
-0.238704
-0.199478
-0.172987
-0.156854
-0.147878
-0.143468
-0.14157
-0.140962
-0.140943
-0.141361
-0.142118
-0.143193
-0.144456
-0.145839
-0.147328
-0.148935
-0.150671
-0.152561
-0.154687
-0.156955
-0.159253
-0.161488
-0.16364
-0.165702
-0.167701
-0.16965
-0.17153
-0.173281
-0.174831
-0.176027
-0.176737
-0.176821
-0.176092
-0.174284
-0.171242
-0.166803
-0.160925
-0.153554
-0.144626
-0.133846
-0.120857
-0.105446
-0.0874019
-0.0666528
-0.0439034
-0.0195368
-0.0118774
-0.0134494
-0.0161691
-0.0185625
-0.0204249
-0.0217895
-0.0227357
-0.0233407
-0.0236664
-0.0237595
-0.0236556
-0.023383
-0.0229657
-0.0224246
-0.0217784
-0.0210433
-0.0202337
-0.0193615
-0.0184371
-0.0174688
-0.0164635
-0.0154267
-0.014363
-0.013276
-0.0121688
-0.0110438
-0.00990342
-0.00875006
-0.00758659
-0.00641705
-0.00524731
-0.00408503
-0.00293882
-0.00182617
-0.000819466
-0.000140345
-0.352619
-0.293665
-0.243256
-0.205217
-0.179527
-0.163838
-0.155116
-0.150759
-0.148808
-0.148117
-0.148027
-0.148385
-0.148988
-0.149861
-0.150937
-0.152139
-0.153495
-0.154958
-0.156524
-0.158218
-0.160095
-0.162139
-0.164263
-0.166365
-0.168406
-0.170376
-0.172296
-0.174193
-0.17609
-0.177933
-0.179653
-0.181132
-0.182236
-0.182833
-0.182748
-0.181725
-0.17956
-0.176087
-0.171309
-0.165214
-0.157607
-0.148113
-0.136223
-0.121676
-0.104312
-0.0840658
-0.061308
-0.0362829
-0.00253822
-0.0133203
-0.0173183
-0.0201304
-0.0221256
-0.0234888
-0.0243739
-0.0248967
-0.0251374
-0.0251497
-0.0249704
-0.0246267
-0.0241412
-0.0235339
-0.0228227
-0.0220239
-0.0211517
-0.0202183
-0.0192341
-0.0182076
-0.0171458
-0.0160544
-0.0149377
-0.0137995
-0.0126427
-0.0114698
-0.0102828
-0.009084
-0.00787551
-0.00666012
-0.00544143
-0.00422406
-0.00301488
-0.0018336
-0.000748282
6.18553e-05
-0.353
-0.295696
-0.247556
-0.211336
-0.186752
-0.171619
-0.163064
-0.158655
-0.156608
-0.155812
-0.155652
-0.155933
-0.156385
-0.156992
-0.157831
-0.158835
-0.160046
-0.161353
-0.162744
-0.164237
-0.165858
-0.167651
-0.169559
-0.171466
-0.173338
-0.175181
-0.176966
-0.178728
-0.180515
-0.182325
-0.184095
-0.185722
-0.187071
-0.188033
-0.18842
-0.188022
-0.186612
-0.184029
-0.180267
-0.175274
-0.168838
-0.160602
-0.150055
-0.136829
-0.120687
-0.101464
-0.0793293
-0.054739
-0.0275881
-0.0169657
-0.0194131
-0.0223146
-0.0243047
-0.0255603
-0.0263029
-0.026682
-0.0267911
-0.0266869
-0.0264047
-0.0259687
-0.0253985
-0.0247118
-0.0239253
-0.0230541
-0.0221122
-0.0211116
-0.0200626
-0.0189737
-0.0178519
-0.0167026
-0.0155304
-0.0143388
-0.0131305
-0.0119079
-0.010673
-0.00942739
-0.00817276
-0.00691063
-0.00564306
-0.00437399
-0.00311204
-0.00186773
-0.000580015
0.00107419
-0.353328
-0.297693
-0.252168
-0.218031
-0.19459
-0.179901
-0.171396
-0.166875
-0.164682
-0.163774
-0.163569
-0.163768
-0.16408
-0.164477
-0.165121
-0.165949
-0.166994
-0.16813
-0.169342
-0.170634
-0.17203
-0.173557
-0.175228
-0.176902
-0.17856
-0.180231
-0.18186
-0.183471
-0.185099
-0.186773
-0.188473
-0.190104
-0.191551
-0.192716
-0.193432
-0.193501
-0.192714
-0.190915
-0.188021
-0.183945
-0.178534
-0.171498
-0.162381
-0.150745
-0.13626
-0.118638
-0.0976543
-0.0729783
-0.0444252
-0.00389118
-0.020831
-0.0250164
-0.0269256
-0.0279675
-0.0284995
-0.0286853
-0.0286227
-0.0283693
-0.0279578
-0.0274083
-0.0267365
-0.0259569
-0.0250839
-0.0241316
-0.0231127
-0.022039
-0.0209202
-0.0197648
-0.0185793
-0.0173693
-0.0161391
-0.0148919
-0.0136304
-0.0123567
-0.0110726
-0.00977925
-0.00847772
-0.00716848
-0.00585254
-0.00453438
-0.00322386
-0.00188535
5.51683e-05
0.00564861
-0.354594
-0.301316
-0.257749
-0.225108
-0.202582
-0.188237
-0.179759
-0.175123
-0.172766
-0.171768
-0.171534
-0.171673
-0.171872
-0.172188
-0.172685
-0.173364
-0.174234
-0.175199
-0.176235
-0.177336
-0.178534
-0.179816
-0.181236
-0.182673
-0.184114
-0.185585
-0.187034
-0.188475
-0.189926
-0.191419
-0.192977
-0.194512
-0.195933
-0.197156
-0.198045
-0.19844
-0.198128
-0.196956
-0.194787
-0.191508
-0.187021
-0.181154
-0.173505
-0.163502
-0.150637
-0.134454
-0.114591
-0.0909901
-0.0644589
-0.0364629
-0.0301722
-0.0291332
-0.0299029
-0.0306009
-0.0309067
-0.0308804
-0.0306201
-0.0301906
-0.0296255
-0.028942
-0.0281517
-0.0272656
-0.0262953
-0.0252529
-0.02415
-0.0229972
-0.0218038
-0.0205778
-0.0193255
-0.0180521
-0.0167615
-0.0154568
-0.0141406
-0.0128146
-0.0114802
-0.0101385
-0.00878965
-0.00743327
-0.00606932
-0.00470274
-0.00335238
-0.00205036
-0.000741685
0.000933753
-0.356355
-0.305946
-0.264207
-0.232646
-0.210662
-0.196525
-0.188024
-0.183219
-0.18069
-0.179624
-0.179375
-0.17949
-0.179633
-0.179948
-0.180354
-0.180927
-0.181646
-0.182453
-0.183326
-0.18426
-0.18527
-0.186341
-0.187516
-0.18873
-0.189964
-0.19123
-0.19249
-0.193755
-0.195031
-0.196323
-0.197691