/*--------------------------------*- C++ -*----------------------------------*\
  =========                 |
  \\      /  F ield         | OpenFOAM: The Open Source CFD Toolbox
   \\    /   O peration     | Website:  https://openfoam.org
    \\  /    A nd           | Version:  6
     \\/     M anipulation  |
\*---------------------------------------------------------------------------*/
FoamFile
{
    version     2.0;
    format      ascii;
    class       surfaceScalarField;
    location    "990";
    object      phi;
}
// * * * * * * * * * * * * * * * * * * * * * * * * * * * * * * * * * * * * * //

dimensions      [0 3 -1 0 0 0 0];

internalField   nonuniform List<scalar> 
11773
(
-1.5739e-08
1.5739e-08
-7.07028e-08
5.48912e-08
-8.03371e-08
9.57601e-09
-1.195e-07
3.91064e-08
-1.23962e-07
4.40698e-09
-1.3305e-07
9.03219e-09
-1.35439e-07
2.33499e-09
-1.23981e-07
-1.15137e-08
-1.11914e-07
-1.21238e-08
-1.09943e-07
-2.02709e-09
-9.48851e-08
-1.51151e-08
-8.86212e-08
-6.32013e-09
-8.32369e-08
-5.44075e-09
-8.49259e-08
1.63231e-09
-8.47592e-08
-2.23778e-10
-8.59316e-08
1.11473e-09
-8.72027e-08
1.21358e-09
-7.6112e-08
-1.11487e-08
-6.61795e-08
-9.99074e-09
-3.48987e-08
-3.13382e-08
-2.61972e-08
-8.75881e-09
1.20316e-10
-2.63748e-08
1.81769e-13
8.50682e-11
1.0562e-13
7.21584e-14
7.8434e-14
2.71863e-14
6.48903e-14
1.3489e-14
5.6594e-14
8.23725e-15
5.08051e-14
5.732e-15
4.64335e-14
4.31762e-15
4.29664e-14
3.41647e-15
4.01303e-14
2.78874e-15
3.77653e-14
2.32082e-15
3.57699e-14
1.954e-15
3.40751e-14
1.65627e-15
3.26296e-14
1.40952e-15
3.13931e-14
1.20307e-15
3.03317e-14
1.03026e-15
2.94162e-14
8.86588e-16
2.86208e-14
7.68638e-16
2.79226e-14
6.7354e-16
2.73011e-14
5.98683e-16
2.67385e-14
5.41603e-16
2.62194e-14
4.99943e-16
2.57304e-14
4.71468e-16
2.52605e-14
4.54087e-16
2.48002e-14
4.4588e-16
2.43421e-14
4.45114e-16
2.38803e-14
4.50253e-16
2.341e-14
4.59955e-16
2.29279e-14
4.73068e-16
2.24313e-14
4.88611e-16
2.19187e-14
5.05765e-16
2.1389e-14
5.2385e-16
2.08417e-14
5.42312e-16
2.02768e-14
5.60706e-16
1.96948e-14
5.78683e-16
1.90962e-14
5.95972e-16
1.84818e-14
6.12375e-16
1.78525e-14
6.2775e-16
1.72095e-14
6.42006e-16
1.65538e-14
6.55092e-16
1.58866e-14
6.66991e-16
1.5209e-14
6.77713e-16
1.45221e-14
6.87288e-16
1.38269e-14
6.95763e-16
1.31244e-14
7.03198e-16
1.24156e-14
7.09658e-16
1.17013e-14
7.15215e-16
1.09823e-14
7.19943e-16
1.02593e-14
7.23917e-16
9.53311e-15
7.2721e-16
8.80419e-15
7.29891e-16
8.0731e-15
7.32025e-16
7.34033e-15
7.33674e-16
6.60629e-15
7.34887e-16
5.87137e-15
7.35709e-16
5.13593e-15
7.36177e-16
4.40028e-15
7.36325e-16
3.66472e-15
7.36187e-16
2.92953e-15
7.35773e-16
2.1951e-15
7.34975e-16
1.46218e-15
7.33423e-16
7.31645e-16
7.31022e-16
7.32118e-16
-5.4125e-08
6.9791e-08
-5.98251e-08
6.04758e-08
-8.66129e-08
3.62626e-08
-8.73714e-08
3.97654e-08
-1.02187e-07
1.91229e-08
-1.0502e-07
1.17674e-08
-1.06414e-07
3.63041e-09
-9.80324e-08
-1.99955e-08
-8.48849e-08
-2.53725e-08
-8.05317e-08
-6.48126e-09
-6.49821e-08
-3.07654e-08
-5.91911e-08
-1.22119e-08
-5.86529e-08
-6.0803e-09
-6.01845e-08
3.06186e-09
-7.10451e-08
1.05341e-08
-7.57917e-08
5.75902e-09
-7.54145e-08
7.33648e-10
-6.7154e-08
-1.95128e-08
-5.55209e-08
-2.17266e-08
-4.50686e-08
-4.18926e-08
-1.3932e-08
-3.99977e-08
1.6345e-10
-4.05504e-08
2.10701e-14
2.21537e-10
6.61096e-14
2.71156e-14
6.64075e-14
2.67924e-14
6.0284e-14
1.95082e-14
5.43993e-14
1.40208e-14
4.95671e-14
1.04685e-14
4.56453e-14
8.14967e-15
4.24175e-14
6.56014e-15
3.97212e-14
5.40641e-15
3.74447e-14
4.52394e-15
3.55099e-14
3.82019e-15
3.38599e-14
3.24241e-15
3.24499e-14
2.76001e-15
3.12429e-14
2.35463e-15
3.02072e-14
2.01461e-15
2.93144e-14
1.73184e-15
2.8539e-14
1.49997e-15
2.78585e-14
1.31351e-15
2.72526e-14
1.16734e-15
2.67036e-14
1.05655e-15
2.61959e-14
9.76423e-16
2.57166e-14
9.22472e-16
2.52546e-14
8.90494e-16
2.48008e-14
8.76633e-16
2.43479e-14
8.77419e-16
2.38901e-14
8.89782e-16
2.34228e-14
9.11048e-16
2.29428e-14
9.38921e-16
2.24477e-14
9.71458e-16
2.1936e-14
1.00703e-15
2.14067e-14
1.0443e-15
2.08594e-14
1.08218e-15
2.02944e-14
1.11978e-15
1.97119e-14
1.15641e-15
1.91126e-14
1.19157e-15
1.84975e-14
1.22484e-15
1.78675e-14
1.25598e-15
1.72236e-14
1.28479e-15
1.65671e-14
1.31119e-15
1.58991e-14
1.33516e-15
1.52207e-14
1.35671e-15
1.4533e-14
1.37593e-15
1.38371e-14
1.39291e-15
1.31339e-14
1.40778e-15
1.24245e-14
1.42067e-15
1.17097e-14
1.43174e-15
1.09902e-14
1.44113e-15
1.02669e-14
1.449e-15
9.5403e-15
1.45551e-15
8.81106e-15
1.46078e-15
8.0797e-15
1.46497e-15
7.34669e-15
1.46818e-15
6.61244e-15
1.47054e-15
5.87733e-15
1.47212e-15
5.1417e-15
1.47302e-15
4.40584e-15
1.4733e-15
3.67003e-15
1.47304e-15
2.93452e-15
1.47226e-15
2.19964e-15
1.47078e-15
1.46595e-15
1.468e-15
7.33321e-16
1.4645e-15
1.46582e-15
-2.96853e-08
9.94188e-08
-4.56976e-08
7.63895e-08
-6.57843e-08
5.6263e-08
-6.99939e-08
4.38887e-08
-7.99802e-08
2.90228e-08
-8.4951e-08
1.66532e-08
-8.15255e-08
1.19552e-10
-7.58584e-08
-2.57486e-08
-6.86405e-08
-3.26766e-08
-5.71228e-08
-1.80852e-08
-4.20091e-08
-4.59659e-08
-2.71707e-08
-2.71381e-08
-3.57312e-08
2.39222e-09
-4.20194e-08
9.26199e-09
-4.45829e-08
1.30095e-08
-4.34474e-08
4.5353e-09
-3.7772e-08
-5.03057e-09
-3.64884e-08
-2.08852e-08
-3.04977e-08
-2.78055e-08
-3.30949e-08
-3.93832e-08
-2.17633e-08
-5.1417e-08
3.53731e-09
-6.59211e-08
6.85074e-13
3.73241e-09
6.58397e-14
4.57306e-14
6.00182e-14
3.2568e-14
5.54707e-14
2.39674e-14
5.1284e-14
1.81199e-14
4.75339e-14
1.41355e-14
4.42515e-14
1.13539e-14
4.14058e-14
9.33247e-15
3.89474e-14
7.79613e-15
3.68277e-14
6.57941e-15
3.50036e-14
5.58419e-15
3.34374e-14
4.75252e-15
3.20952e-14
4.04994e-15
3.09458e-14
3.4553e-15
2.99604e-14
2.95469e-15
2.91123e-14
2.53793e-15
2.83769e-14
2.19654e-15
2.77318e-14
1.92279e-15
2.71569e-14
1.70921e-15
2.66347e-14
1.54847e-15
2.615e-14
1.43346e-15
2.56899e-14
1.35737e-15
2.52438e-14
1.31383e-15
2.48028e-14
1.29703e-15
2.436e-14
1.30176e-15
2.391e-14
1.32339e-15
2.34485e-14
1.35796e-15
2.29726e-14
1.40203e-15
2.24803e-14
1.45275e-15
2.19701e-14
1.5077e-15
2.14414e-14
1.56491e-15
2.08941e-14
1.62277e-15
2.03283e-14
1.68002e-15
1.97446e-14
1.73563e-15
1.91439e-14
1.78885e-15
1.85271e-14
1.83913e-15
1.78952e-14
1.88607e-15
1.72495e-14
1.92944e-15
1.6591e-14
1.96911e-15
1.59211e-14
2.00507e-15
1.52408e-14
2.03736e-15
1.45514e-14
2.06611e-15
1.38538e-14
2.09147e-15
1.31492e-14
2.11363e-15
1.24384e-14
2.13283e-15
1.17222e-14
2.14927e-15
1.10016e-14
2.16321e-15
1.02773e-14
2.17487e-15
9.54979e-15
2.18448e-15
8.81975e-15
2.19226e-15
8.0877e-15
2.19841e-15
7.35407e-15
2.20312e-15
6.61929e-15
2.20656e-15
5.8837e-15
2.20887e-15
5.14762e-15
2.21017e-15
4.41133e-15
2.21059e-15
3.67509e-15
2.21022e-15
2.93912e-15
2.2091e-15
2.20363e-15
2.20709e-15
1.46877e-15
2.20365e-15
7.34481e-16
2.19957e-15
2.2007e-15
-2.02544e-08
1.19619e-07
-3.11273e-08
8.71672e-08
-4.58195e-08
7.08709e-08
-5.58765e-08
5.38618e-08
-5.87001e-08
3.17625e-08
-6.45557e-08
2.24254e-08
-5.51433e-08
-9.37649e-09
-4.51095e-08
-3.5866e-08
-3.69988e-08
-4.08713e-08
-5.93347e-09
-4.92353e-08
2.27181e-09
-5.42565e-08
1.94673e-08
-4.44192e-08
2.92553e-08
-7.48123e-09
3.60964e-08
2.33518e-09
3.59533e-08
1.30666e-08
2.70196e-08
1.33829e-08
1.09975e-08
1.09054e-08
-6.32063e-09
-3.65307e-09
-1.23854e-08
-2.18268e-08
-1.70558e-08
-3.47988e-08
-2.11369e-08
-4.74209e-08
-2.28272e-08
-6.42983e-08
2.80772e-11
-1.91655e-08
5.42996e-14
4.84709e-14
5.24744e-14
3.43507e-14
5.03412e-14
2.6014e-14
4.77884e-14
2.05869e-14
4.5093e-14
1.67495e-14
4.24773e-14
1.38929e-14
4.00572e-14
1.16806e-14
3.78793e-14
9.90639e-15
3.59542e-14
8.44119e-15
3.42739e-14
7.20509e-15
3.28212e-14
6.14959e-15
3.1574e-14
5.24528e-15
3.05074e-14
4.47351e-15
2.95958e-14
3.82122e-15
2.8814e-14
3.27785e-15
2.8138e-14
2.83372e-15
2.75457e-14
2.47923e-15
2.70172e-14
2.20466e-15
2.65351e-14
2.0002e-15
2.60845e-14
1.85624e-15
2.5653e-14
1.76355e-15
2.52303e-14
1.71354e-15
2.48081e-14
1.69836e-15
2.43802e-14
1.71102e-15
2.39414e-14
1.7454e-15
2.34884e-14
1.79622e-15
2.30184e-14
1.85901e-15
2.25298e-14
1.92998e-15
2.20217e-14
2.00602e-15
2.14937e-14
2.08456e-15
2.09459e-14
2.16353e-15
2.03788e-14
2.24129e-15
1.97933e-14
2.31654e-15
1.91901e-14
2.38833e-15
1.85705e-14
2.45594e-15
1.79357e-14
2.51891e-15
1.72869e-14
2.57695e-15
1.66254e-14
2.62993e-15
1.59525e-14
2.67783e-15
1.52694e-14
2.72077e-15
1.45772e-14
2.75892e-15
1.3877e-14
2.7925e-15
1.317e-14
2.82179e-15
1.24569e-14
2.84711e-15
1.17388e-14
2.86875e-15
1.10164e-14
2.88704e-15
1.02904e-14
2.90231e-15
9.5615e-15
2.91485e-15
8.8302e-15
2.92497e-15
8.09704e-15
2.93294e-15
7.36244e-15
2.93902e-15
6.6268e-15
2.94343e-15
5.89045e-15
2.94638e-15
5.15369e-15
2.94802e-15
4.41676e-15
2.94853e-15
3.6799e-15
2.94802e-15
2.94331e-15
2.94658e-15
2.2071e-15
2.94415e-15
1.4711e-15
2.94047e-15
7.35476e-16
2.93599e-15
2.9366e-15
-1.34923e-08
1.33058e-07
-2.52633e-08
9.8844e-08
-2.78806e-08
7.3406e-08
-3.39734e-08
5.9873e-08
-3.13131e-08
2.902e-08
-6.40366e-09
-2.56635e-09
2.12852e-08
-3.71479e-08
4.55115e-08
-6.01757e-08
6.82302e-08
-6.36738e-08
8.0994e-08
-6.20826e-08
7.56455e-08
-4.89914e-08
6.55944e-08
-3.44515e-08
6.46146e-08
-6.58511e-09
6.29969e-08
3.8688e-09
5.76368e-08
1.83425e-08
4.78563e-08
2.30793e-08
4.17285e-08
1.69486e-08
3.82943e-08
-3.03914e-10
2.84718e-08
-1.20895e-08
1.33176e-08
-1.97295e-08
2.56426e-09
-3.6752e-08
-1.93113e-08
-4.25062e-08
2.58071e-11
-3.85719e-08
4.19361e-14
4.79272e-14
4.51648e-14
3.10802e-14
4.55806e-14
2.55125e-14
4.44205e-14
2.1662e-14
4.25847e-14
1.85045e-14
4.05342e-14
1.58673e-14
3.84986e-14
1.36444e-14
3.65921e-14
1.17453e-14
3.48684e-14
1.01015e-14
3.33471e-14
8.66682e-15
3.20275e-14
7.41321e-15
3.0897e-14
6.32347e-15
2.99356e-14
5.38602e-15
2.91198e-14
4.59132e-15
2.84253e-14
3.92989e-15
2.78281e-14
3.39148e-15
2.7306e-14
2.96482e-15
2.6839e-14
2.63786e-15
2.641e-14
2.39815e-15
2.60044e-14
2.23335e-15
2.56102e-14
2.13163e-15
2.5218e-14
2.08201e-15
2.48203e-14
2.07458e-15
2.44113e-14
2.10055e-15
2.39871e-14
2.15231e-15
2.35445e-14
2.22333e-15
2.30818e-14
2.30813e-15
2.25977e-14
2.40212e-15
2.20919e-14
2.50151e-15
2.15644e-14
2.60322e-15
2.10157e-14
2.70476e-15
2.04466e-14
2.80418e-15
1.98581e-14
2.89994e-15
1.92515e-14
2.99093e-15
1.86281e-14
3.07632e-15
1.79891e-14
3.1556e-15
1.73361e-14
3.22844e-15
1.66704e-14
3.29475e-15
1.59933e-14
3.35455e-15
1.53062e-14
3.408e-15
1.46102e-14
3.45537e-15
1.39065e-14
3.49696e-15
1.31961e-14
3.53315e-15
1.24801e-14
3.56432e-15
1.17593e-14
3.5909e-15
1.10344e-14
3.61329e-15
1.03062e-14
3.63192e-15
9.57532e-15
3.64716e-15
8.8423e-15
3.6594e-15
8.10762e-15
3.66899e-15
7.3717e-15
3.67626e-15
6.63491e-15
3.68148e-15
5.89755e-15
3.68493e-15
5.15987e-15
3.68682e-15
4.42211e-15
3.68735e-15
3.68444e-15
3.68668e-15
2.94704e-15
3.68493e-15
2.20998e-15
3.68211e-15
1.4732e-15
3.67811e-15
7.36615e-16
3.67343e-15
3.67367e-15
-2.0725e-09
1.35077e-07
-9.09163e-09
1.05772e-07
-1.18408e-08
7.60757e-08
-4.85593e-09
5.2808e-08
1.16612e-08
1.24223e-08
3.15433e-08
-2.2529e-08
4.82029e-08
-5.38888e-08
7.6519e-08
-8.85737e-08
9.31033e-08
-8.03399e-08
1.02446e-07
-7.15055e-08
1.08288e-07
-5.49134e-08
9.13622e-08
-1.76075e-08
8.62214e-08
-1.52662e-09
9.06076e-08
-6.0036e-10
8.12213e-08
2.76461e-08
7.19114e-08
3.23064e-08
6.35753e-08
2.52015e-08
5.13038e-08
1.18839e-08
3.97658e-08
-6.35243e-10
2.51128e-08
-5.16059e-09
-1.5186e-09
-1.02049e-08
-1.52814e-08
-2.88278e-08
2.70218e-11
-5.39479e-08
2.7176e-14
2.77053e-12
4.02848e-14
1.79298e-14
4.22018e-14
2.35106e-14
4.16472e-14
2.21325e-14
4.02671e-14
1.98043e-14
3.858e-14
1.74786e-14
3.68289e-14
1.53239e-14
3.5147e-14
1.33598e-14
3.36075e-14
1.15773e-14
3.22457e-14
9.96869e-15
3.10706e-14
8.53191e-15
3.00743e-14
7.26686e-15
2.92386e-14
6.17213e-15
2.85401e-14
5.24336e-15
2.79537e-14
4.47293e-15
2.74547e-14
3.85018e-15
2.70201e-14
3.36197e-15
2.66297e-14
2.99358e-15
2.62664e-14
2.72947e-15
2.59161e-14
2.55421e-15
2.55676e-14
2.45309e-15
2.52124e-14
2.41259e-15
2.48439e-14
2.42061e-15
2.44576e-14
2.46658e-15
2.40503e-14
2.54143e-15
2.36199e-14
2.6375e-15
2.31653e-14
2.74835e-15
2.2686e-14
2.86869e-15
2.21824e-14
2.99417e-15
2.16548e-14
3.12125e-15
2.11044e-14
3.24711e-15
2.05323e-14
3.36955e-15
1.99398e-14
3.48686e-15
1.93285e-14
3.59779e-15
1.86999e-14
3.70147e-15
1.80555e-14
3.79735e-15
1.7397e-14
3.88514e-15
1.67258e-14
3.96477e-15
1.60433e-14
4.03636e-15
1.53511e-14
4.10015e-15
1.46503e-14
4.15649e-15
1.3942e-14
4.2058e-15
1.32275e-14
4.24856e-15
1.25077e-14
4.28527e-15
1.17833e-14
4.31645e-15
1.10554e-14
4.34262e-15
1.03244e-14
4.36428e-15
9.59104e-15
4.38191e-15
8.85586e-15
4.39599e-15
8.1193e-15
4.40694e-15
7.38174e-15
4.41516e-15
6.64352e-15
4.42099e-15
5.90491e-15
4.42477e-15
5.16614e-15
4.42676e-15
4.42738e-15
4.42721e-15
3.68877e-15
4.42633e-15
2.95042e-15
4.42428e-15
2.21245e-15
4.42105e-15
1.47507e-15
4.41643e-15
7.37872e-16
4.41156e-15
4.41205e-15
-4.39446e-09
1.3942e-07
1.03946e-09
1.0025e-07
7.50982e-09
6.95273e-08
3.0463e-08
2.97762e-08
5.27542e-08
-9.94707e-09
7.6147e-08
-4.6e-08
1.09157e-07
-8.69776e-08
1.19456e-07
-9.89523e-08
1.32243e-07
-9.32055e-08
1.37485e-07
-7.68243e-08
1.38747e-07
-5.62534e-08
1.29536e-07
-8.47676e-09
1.28563e-07
-6.3568e-10
1.12191e-07
1.56899e-08
9.33205e-08
4.64352e-08
8.04634e-08
4.50816e-08
6.7591e-08
3.79922e-08
5.38412e-08
2.55514e-08
4.37968e-08
9.32634e-09
3.60531e-08
2.5006e-09
3.32135e-08
-7.44759e-09
3.03888e-08
-2.60855e-08
2.38132e-09
-2.60055e-08
7.80164e-14
2.36044e-09
4.51886e-14
4.8097e-14
4.09887e-14
2.76662e-14
3.95983e-14
2.34425e-14
3.82203e-14
2.1103e-14
3.66837e-14
1.89397e-14
3.51007e-14
1.68355e-14
3.35791e-14
1.48139e-14
3.21932e-14
1.28993e-14
3.09831e-14
1.11185e-14
2.99595e-14
9.49854e-15
2.91133e-14
8.05944e-15
2.84237e-14
6.81128e-15
2.78646e-14
5.7552e-15
2.7408e-14
4.88519e-15
2.70272e-14
4.18966e-15
2.66977e-14
3.6529e-15
2.63988e-14
3.25671e-15
2.61134e-14
2.98177e-15
2.58281e-14
2.80897e-15
2.55328e-14
2.72031e-15
2.52201e-14
2.69952e-15
2.48849e-14
2.73226e-15
2.4524e-14
2.8062e-15
2.41353e-14
2.9109e-15
2.37179e-14
3.03764e-15
2.32717e-14
3.17923e-15
2.27971e-14
3.32977e-15
2.2295e-14
3.48446e-15
2.17666e-14
3.63942e-15
2.12133e-14
3.7916e-15
2.06369e-14
3.93859e-15
2.0039e-14
4.07858e-15
1.94215e-14
4.21027e-15
1.87862e-14
4.33276e-15
1.8135e-14
4.44554e-15
1.74695e-14
4.54838e-15
1.67915e-14
4.6413e-15
1.61025e-14
4.7245e-15
1.54039e-14
4.79836e-15
1.46971e-14
4.86334e-15
1.39834e-14
4.91999e-15
1.32638e-14
4.96892e-15
1.25393e-14
5.01074e-15
1.18108e-14
5.04611e-15
1.1079e-14
5.07563e-15
1.03447e-14
5.09994e-15
9.60844e-15
5.1196e-15
8.87068e-15
5.13516e-15
8.13187e-15
5.14715e-15
7.39237e-15
5.15603e-15
6.65248e-15
5.16221e-15
5.91243e-15
5.16609e-15
5.17241e-15
5.168e-15
4.43255e-15
5.16824e-15
3.69296e-15
5.16705e-15
2.9537e-15
5.16462e-15
2.21486e-15
5.16093e-15
1.47685e-15
5.15547e-15
7.38741e-16
5.15069e-15
5.15134e-15
-3.53348e-09
1.42904e-07
8.24493e-10
9.58064e-08
1.97016e-08
5.05744e-08
5.24308e-08
-3.02859e-09
7.49786e-08
-3.25701e-08
1.05152e-07
-7.62494e-08
1.33519e-07
-1.15421e-07
1.43771e-07
-1.0928e-07
1.48552e-07
-9.80612e-08
1.49538e-07
-7.78859e-08
1.41596e-07
-4.8389e-08
1.35692e-07
-2.65184e-09
1.22733e-07
1.22431e-08
1.01761e-07
3.65817e-08
8.85722e-08
5.95442e-08
7.57129e-08
5.78618e-08
6.29962e-08
5.06294e-08
5.3085e-08
3.53824e-08
4.39147e-08
1.84157e-08
3.18897e-08
1.44449e-08
1.57827e-08
8.57917e-09
1.11642e-08
-2.1547e-08
1.49577e-08
-2.98618e-08
1.15803e-11
1.72791e-08
2.72266e-14
4.04684e-12
3.72675e-14
1.75859e-14
3.75348e-14
2.30964e-14
3.63131e-14
2.22463e-14
3.48297e-14
2.03482e-14
3.33206e-14
1.82735e-14
3.18942e-14
1.61729e-14
3.06271e-14
1.41025e-14
2.95592e-14
1.21258e-14
2.86954e-14
1.03049e-14
2.80176e-14
8.68293e-15
2.74971e-14
7.28043e-15
2.71016e-14
6.10235e-15
2.67984e-14
5.14305e-15
2.65569e-14
4.38858e-15
2.63508e-14
3.81932e-15
2.61583e-14
3.4123e-15
2.59624e-14
3.14329e-15
2.57508e-14
2.98871e-15
2.5515e-14
2.92678e-15
2.52492e-14
2.93826e-15
2.49502e-14
3.00653e-15
2.46163e-14
3.11759e-15
2.4247e-14
3.25978e-15
2.38428e-14
3.42354e-15
2.34045e-14
3.60108e-15
2.29337e-14
3.78606e-15
2.2432e-14
3.97339e-15
2.19013e-14
4.15898e-15
2.13436e-14
4.33962e-15
2.07613e-14
4.5128e-15
2.01563e-14
4.67669e-15
1.9531e-14
4.82996e-15
1.88874e-14
4.97179e-15
1.82277e-14
5.10172e-15
1.75538e-14
5.21965e-15
1.68674e-14
5.32571e-15
1.61704e-14
5.42027e-15
1.54643e-14
5.50383e-15
1.47505e-14
5.57701e-15
1.40302e-14
5.64053e-15
1.33046e-14
5.69512e-15
1.25747e-14
5.74154e-15
1.18412e-14
5.78058e-15
1.11051e-14
5.81297e-15
1.03669e-14
5.83944e-15
9.62722e-15
5.86067e-15
8.88649e-15
5.87731e-15
8.14511e-15
5.88995e-15
7.4034e-15
5.89914e-15
6.66162e-15
5.90537e-15
5.91996e-15
5.90909e-15
5.17857e-15
5.91068e-15
4.43756e-15
5.91049e-15
3.697e-15
5.90882e-15
2.95692e-15
5.90587e-15
2.21733e-15
5.90166e-15
1.47823e-15
5.8957e-15
7.39314e-16
5.89074e-15
5.89128e-15
2.82233e-09
1.40034e-07
-3.36315e-09
1.0191e-07
2.90534e-08
1.80853e-08
6.179e-08
-3.58374e-08
1.01325e-07
-7.21774e-08
1.3223e-07
-1.07228e-07
1.43346e-07
-1.2661e-07
1.55233e-07
-1.2124e-07
1.54086e-07
-9.69874e-08
1.49682e-07
-7.35572e-08
1.378e-07
-3.65831e-08
1.26931e-07
8.1389e-09
1.06518e-07
3.25788e-08
8.61218e-08
5.69009e-08
7.3698e-08
7.18907e-08
6.29054e-08
6.85775e-08
5.6122e-08
5.73354e-08
5.04188e-08
4.10074e-08
4.14907e-08
2.7265e-08
3.23163e-08
2.35407e-08
2.07123e-08
2.0105e-08
1.37414e-09
-2.28664e-09
-1.32213e-08
-1.53318e-08
2.48199e-09
1.52991e-09
7.58698e-14
2.46106e-09
4.20924e-14
4.72537e-14
3.67761e-14
2.8372e-14
3.46364e-14
2.43111e-14
3.29998e-14
2.19107e-14
3.14698e-14
1.97328e-14
3.00716e-14
1.75039e-14
2.88884e-14
1.52218e-14
2.79589e-14
1.29944e-14
2.72708e-14
1.0935e-14
2.67865e-14
9.1122e-15
2.64636e-14
7.55108e-15
2.62605e-14
6.25606e-15
2.61371e-14
5.21981e-15
2.60582e-14
4.42372e-15
2.59943e-14
3.84216e-15
2.59228e-14
3.44557e-15
2.58271e-14
3.2032e-15
2.56968e-14
3.08587e-15
2.55252e-14
3.06754e-15
2.53093e-14
3.12581e-15
2.50478e-14
3.24188e-15
2.47413e-14
3.40026e-15
2.4391e-14
3.58834e-15
2.39989e-14
3.79597e-15
2.35673e-14
4.01503e-15
2.30987e-14
4.23897e-15
2.25957e-14
4.46258e-15
2.20608e-14
4.68169e-15
2.14968e-14
4.89302e-15
2.09065e-14
5.09409e-15
2.02925e-14
5.28308e-15
1.96574e-14
5.45874e-15
1.90036e-14
5.62036e-15
1.83336e-14
5.76762e-15
1.76495e-14
5.90057e-15
1.69534e-14
6.01953e-15
1.6247e-14
6.12505e-15
1.5532e-14
6.21782e-15
1.48099e-14
6.29866e-15
1.40821e-14
6.36843e-15
1.33495e-14
6.42806e-15
1.26133e-14
6.47846e-15
1.18743e-14
6.52055e-15
1.11332e-14
6.55521e-15
1.03906e-14
6.58329e-15
9.64703e-15
6.60556e-15
8.90296e-15
6.62279e-15
8.15871e-15
6.63564e-15
7.41456e-15
6.64474e-15
6.6707e-15
6.65066e-15
5.92731e-15
6.65389e-15
5.18447e-15
6.65489e-15
4.44227e-15
6.65404e-15
3.70074e-15
6.65166e-15
2.95988e-15
6.64801e-15
2.21959e-15
6.64322e-15
1.47934e-15
6.6372e-15
7.39792e-16
6.63154e-15
6.63176e-15
1.03111e-08
1.29676e-07
6.32734e-09
1.05815e-07
4.30726e-08
-1.87297e-08
7.22672e-08
-6.51013e-08
1.09933e-07
-1.09912e-07
1.32164e-07
-1.2953e-07
1.34308e-07
-1.28824e-07
1.34875e-07
-1.21877e-07
1.20303e-07
-8.24873e-08
1.19311e-07
-7.26386e-08
9.13169e-08
-8.66435e-09
8.56819e-08
1.36989e-08
7.81218e-08
4.00641e-08
6.84524e-08
6.64957e-08
6.02686e-08
7.99999e-08
4.99147e-08
7.88565e-08
4.28128e-08
6.4362e-08
4.00241e-08
4.37201e-08
3.35835e-08
3.36294e-08
2.6392e-08
3.06562e-08
1.99425e-08
2.6479e-08
8.83715e-09
8.74351e-09
4.40787e-09
-1.09778e-08
1.79941e-08
-1.21178e-08
1.01304e-11
2.04184e-08
2.54829e-14
2.19652e-12
3.31944e-14
2.0624e-14
3.25168e-14
2.49152e-14
3.10777e-14
2.32767e-14
2.95049e-14
2.12354e-14
2.80623e-14
1.88795e-14
2.69294e-14
1.62909e-14
2.61492e-14
1.37137e-14
2.56703e-14
1.13554e-14
2.54166e-14
9.31014e-15
2.53278e-14
7.58664e-15
2.53521e-14
6.18125e-15
2.54395e-14
5.08445e-15
2.55487e-14
4.26935e-15
2.56469e-14
3.70151e-15
2.57104e-14
3.34231e-15
2.57243e-14
3.15215e-15
2.56806e-14
3.09487e-15
2.55762e-14
3.13968e-15
2.54109e-14
3.26116e-15
2.51866e-14
3.43859e-15
2.49062e-14
3.65531e-15
2.45731e-14
3.89817e-15
2.41912e-14
4.15683e-15
2.37641e-14
4.42317e-15
2.32954e-14
4.69071e-15
2.27886e-14
4.9543e-15
2.22471e-14
5.20985e-15
2.16744e-14
5.45415e-15
2.10737e-14
5.68477e-15
2.04483e-14
5.90002e-15
1.98011e-14
6.09879e-15
1.9135e-14
6.28054e-15
1.84527e-14
6.44516e-15
1.77566e-14
6.59292e-15
1.70489e-14
6.72438e-15
1.63316e-14
6.84032e-15
1.56064e-14
6.94166e-15
1.48749e-14
7.02944e-15
1.41384e-14
7.10473e-15
1.3398e-14
7.16864e-15
1.26547e-14
7.22228e-15
1.19094e-14
7.2667e-15
1.11627e-14
7.30294e-15
1.04152e-14
7.33197e-15
9.66745e-15
7.35468e-15
8.91972e-15
7.37193e-15
8.17235e-15
7.38448e-15
7.42555e-15
7.39303e-15
6.67948e-15
7.39822e-15
5.93424e-15
7.40061e-15
5.18991e-15
7.4007e-15
4.44648e-15
7.39891e-15
3.70396e-15
7.3956e-15
2.96231e-15
7.39108e-15
2.22135e-15
7.38556e-15
1.48058e-15
7.37936e-15
7.40126e-16
7.37338e-15
7.37266e-15
2.0128e-08
1.09504e-07
2.79835e-08
9.78846e-08
5.11866e-08
-4.1999e-08
7.9447e-08
-9.3428e-08
1.07695e-07
-1.38227e-07
1.21992e-07
-1.43893e-07
1.25311e-07
-1.32211e-07
1.12237e-07
-1.08872e-07
9.65923e-08
-6.69132e-08
7.85792e-08
-5.46969e-08
7.1558e-08
-1.71518e-09
6.08257e-08
2.43595e-08
4.97214e-08
5.10969e-08
3.62453e-08
7.98997e-08
2.3778e-08
9.2395e-08
2.24148e-08
8.01472e-08
2.59627e-08
6.07411e-08
2.80116e-08
4.15977e-08
2.51188e-08
3.64487e-08
1.95984e-08
3.61032e-08
1.29789e-08
3.30255e-08
-6.95577e-10
2.23451e-08
-1.03345e-08
-1.41164e-09
-6.38738e-09
-1.6127e-08
1.43469e-09
1.25528e-08
7.00631e-14
1.41377e-09
3.69542e-14
5.24206e-14
3.1066e-14
3.07643e-14
2.9274e-14
2.49987e-14
2.74273e-14
2.30127e-14
2.57834e-14
2.04567e-14
2.46635e-14
1.73471e-14
2.40778e-14
1.42386e-14
2.38753e-14
1.14992e-14
2.3905e-14
9.22398e-15
2.4096e-14
7.34151e-15
2.43911e-14
5.83428e-15
2.47256e-14
4.70054e-15
2.50514e-14
3.89677e-15
2.53323e-14
3.37663e-15
2.55437e-14
3.08953e-15
2.56738e-14
2.98324e-15
2.57195e-14
3.01293e-15
2.56822e-14
3.1431e-15
2.5566e-14
3.34587e-15
2.53762e-14
3.59916e-15
2.51188e-14
3.88572e-15
2.47998e-14
4.19242e-15
2.44248e-14
4.50926e-15
2.39989e-14
4.82857e-15
2.35269e-14
5.14428e-15
2.30133e-14
5.45152e-15
2.24622e-14
5.74639e-15
2.18778e-14
6.02585e-15
2.12639e-14
6.28762e-15
2.06243e-14
6.53017e-15
1.99624e-14
6.75262e-15
1.92816e-14
6.95467e-15
1.85848e-14
7.1365e-15
1.78747e-14
7.29867e-15
1.71536e-14
7.44203e-15
1.64238e-14
7.56765e-15
1.5687e-14
7.67673e-15
1.49448e-14
7.77056e-15
1.41985e-14
7.85047e-15
1.34494e-14
7.91777e-15
1.26983e-14
7.97376e-15
1.1946e-14
8.01967e-15
1.11932e-14
8.05669e-15
1.04404e-14
8.08592e-15
9.68799e-15
8.10838e-15
8.93633e-15
8.12501e-15
8.18562e-15
8.13669e-15
7.43602e-15
8.14417e-15
6.68764e-15
8.14817e-15
5.94051e-15
8.14931e-15
5.19465e-15
8.14813e-15
4.45001e-15
8.14511e-15
3.70654e-15
8.14063e-15
2.96412e-15
8.13504e-15
2.22257e-15
8.12865e-15
1.48151e-15
8.12196e-15
7.40493e-16
8.11595e-15
8.114e-15
1.91202e-08
9.03422e-08
4.42452e-08
7.26888e-08
5.75629e-08
-5.53792e-08
8.36357e-08
-1.19563e-07
9.62429e-08
-1.50897e-07
1.01996e-07
-1.49709e-07
9.82443e-08
-1.28524e-07
7.27706e-08
-8.34647e-08
5.6884e-08
-5.10945e-08
2.06626e-08
-1.85438e-08
-3.95155e-09
2.28305e-08
-2.00289e-08
4.03682e-08
-2.78311e-08
5.88299e-08
-2.26867e-08
7.4686e-08
-9.17234e-09
7.88115e-08
5.99817e-09
6.49069e-08
1.23054e-08
5.43635e-08
1.18852e-08
4.19473e-08
1.23146e-08
3.59485e-08
1.26135e-08
3.57336e-08
1.09332e-08
3.46354e-08
7.45629e-09
2.57518e-08
-8.27119e-10
6.80153e-09
-6.71485e-09
-1.03092e-08
5.13929e-09
6.41623e-10
4.10195e-10
6.11996e-09
1.80122e-14
4.05827e-10
2.59869e-14
2.27287e-14
2.75163e-14
2.34006e-14
2.51723e-14
2.52882e-14
2.30464e-14
2.25166e-14
2.19318e-14
1.83985e-14
2.16732e-14
1.44367e-14
2.18799e-14
1.12337e-14
2.22553e-14
8.79168e-15
2.27758e-14
6.76573e-15
2.33987e-14
5.15846e-15
2.40222e-14
4.02586e-15
2.45962e-14
3.27418e-15
2.50809e-14
2.84617e-15
2.54504e-14
2.6769e-15
2.56993e-14
2.69376e-15
2.58328e-14
2.84139e-15
2.58591e-14
3.08126e-15
2.57871e-14
3.38457e-15
2.56266e-14
3.72875e-15
2.5387e-14
4.09665e-15
2.50771e-14
4.47591e-15
2.47044e-14
4.85768e-15
2.42756e-14
5.23531e-15
2.37965e-14
5.6035e-15
2.32723e-14
5.95788e-15
2.2708e-14
6.29483e-15
2.21083e-14
6.61152e-15
2.14779e-14
6.90586e-15
2.08209e-14
7.17658e-15
2.01415e-14
7.42308e-15
1.94432e-14
7.64538e-15
1.87295e-14
7.84402e-15
1.80032e-14
8.01993e-15
1.72669e-14
8.17435e-15
1.65228e-14
8.30867e-15
1.57729e-14
8.42444e-15
1.50188e-14
8.52325e-15
1.42617e-14
8.60669e-15
1.35029e-14
8.67631e-15
1.27432e-14
8.73363e-15
1.19834e-14
8.78006e-15
1.1224e-14
8.81695e-15
1.04654e-14
8.84553e-15
9.70813e-15
8.86696e-15
8.95229e-15
8.88227e-15
8.19808e-15
8.89243e-15
7.44559e-15
8.89827e-15
6.69484e-15
8.90057e-15
5.94582e-15
8.90001e-15
5.19846e-15
8.89718e-15
4.45267e-15
8.89259e-15
3.70832e-15
8.88668e-15
2.96525e-15
8.87981e-15
2.22322e-15
8.87238e-15
1.48189e-15
8.86499e-15
7.40849e-16
8.85869e-15
8.85577e-15
1.43016e-08
7.60004e-08
5.55081e-08
3.14153e-08
6.75555e-08
-6.74852e-08
8.25469e-08
-1.34613e-07
8.10662e-08
-1.49476e-07
7.63296e-08
-1.45034e-07
5.72675e-08
-1.09523e-07
3.79479e-08
-6.42081e-08
9.32741e-09
-2.25386e-08
-1.93241e-08
1.00424e-08
-3.09379e-08
3.43785e-08
-4.04274e-08
4.97916e-08
-4.5034e-08
6.33708e-08
-4.00048e-08
6.95914e-08
-2.44418e-08
6.31823e-08
-1.13962e-08
5.1794e-08
-6.43691e-10
4.35432e-08
4.40138e-09
3.68344e-08
5.12279e-09
3.5159e-08
6.60916e-09
3.41791e-08
8.07729e-09
3.30994e-08
9.54566e-09
2.42156e-08
5.31156e-09
1.09677e-08
-5.80827e-09
7.42972e-10
-3.96702e-09
-1.25551e-09
4.13249e-09
-2.01681e-09
2.52881e-12
4.51381e-09
2.65557e-14
1.42167e-12
2.91568e-14
2.07647e-14
2.27252e-14
3.16546e-14
1.94235e-14
2.57544e-14
1.84525e-14
1.93073e-14
1.88642e-14
1.39653e-14
1.97405e-14
1.02992e-14
2.04814e-14
7.99351e-15
2.13695e-14
5.82148e-15
2.24085e-14
4.06555e-15
2.33654e-14
3.0163e-15
2.42223e-14
2.3668e-15
2.49329e-14
2.08786e-15
2.54648e-14
2.09981e-15
2.58278e-14
2.28825e-15
2.60419e-14
2.58734e-15
2.61236e-14
2.96204e-15
2.60875e-14
3.38559e-15
2.59479e-14
3.83558e-15
2.57184e-14
4.29561e-15
2.54109e-14
4.75522e-15
2.50349e-14
5.20775e-15
2.45981e-14
5.64837e-15
2.41072e-14
6.07295e-15
2.3568e-14
6.47769e-15
2.29862e-14
6.8593e-15
2.23673e-14
7.21511e-15
2.17164e-14
7.54327e-15
2.10386e-14
7.84277e-15
2.03383e-14
8.11339e-15
1.96196e-14
8.35557e-15
1.88863e-14
8.57031e-15
1.81414e-14
8.759e-15
1.73878e-14
8.92332e-15
1.66278e-14
9.0651e-15
1.58633e-14
9.18626e-15
1.5096e-14
9.28874e-15
1.43271e-14
9.37441e-15
1.35577e-14
9.44512e-15
1.27887e-14
9.50258e-15
1.20208e-14
9.54843e-15
1.12543e-14
9.58415e-15
1.04897e-14
9.61115e-15
9.72724e-15
9.63067e-15
8.96707e-15
9.64388e-15
8.20926e-15
9.65181e-15
7.45382e-15
9.65538e-15
6.70071e-15
9.65543e-15
5.94983e-15
9.65268e-15
5.20106e-15
9.64777e-15
4.45423e-15
9.64126e-15
3.70914e-15
9.63361e-15
2.96558e-15
9.62524e-15
2.22325e-15
9.61657e-15
1.48184e-15
9.60826e-15
7.40981e-16
9.60142e-15
9.59775e-15
8.98629e-09
6.6976e-08
4.50409e-08
-4.70252e-09
6.26109e-08
-8.51101e-08
8.17248e-08
-1.53781e-07
7.56317e-08
-1.43439e-07
4.72508e-08
-1.16711e-07
2.10231e-08
-8.33534e-08
4.05454e-09
-4.72992e-08
-2.56932e-08
7.14809e-09
-5.00976e-08
3.43845e-08
-5.95054e-08
4.37238e-08
-6.26703e-08
5.2894e-08
-6.04596e-08
6.10974e-08
-5.30227e-08
6.20915e-08
-3.90754e-08
4.91713e-08
-2.81787e-08
4.08329e-08
-1.69283e-08
3.22281e-08
-7.55561e-09
2.73968e-08
1.17613e-09
2.63622e-08
9.89744e-09
2.53927e-08
1.7234e-08
2.56977e-08
2.24667e-08
1.89176e-08
2.25315e-08
1.08374e-08
1.85342e-08
4.67484e-09
1.49469e-08
2.26686e-09
6.93873e-09
5.93781e-09
2.68449e-09
8.73568e-09
7.3137e-14
2.6664e-09
3.87e-14
5.40044e-14
1.75251e-14
5.27938e-14
1.37551e-14
2.94655e-14
1.37648e-14
1.92371e-14
1.56537e-14
1.20171e-14
1.7724e-14
8.17068e-15
1.85818e-14
7.07842e-15
1.9835e-14
4.51103e-15
2.14933e-14
2.35239e-15
2.27994e-14
1.65654e-15
2.39796e-14
1.13452e-15
2.49439e-14
1.07425e-15
2.56293e-14
1.36703e-15
2.60886e-14
1.78455e-15
2.63685e-14
2.26528e-15
2.64929e-14
2.79801e-15
2.64801e-14
3.36134e-15
2.63494e-14
3.93143e-15
2.61199e-14
4.49277e-15
2.58065e-14
5.03858e-15
2.54203e-14
5.56616e-15
2.49698e-14
6.07346e-15
2.44618e-14
6.55777e-15
2.39026e-14
7.01586e-15
2.32986e-14
7.44453e-15
2.26557e-14
7.84118e-15
2.19801e-14
8.20414e-15
2.12773e-14
8.53272e-15
2.05524e-14
8.82717e-15
1.981e-14
9.08847e-15
1.90542e-14
9.31819e-15
1.82883e-14
9.51831e-15
1.75153e-14
9.69103e-15
1.67375e-14
9.83869e-15
1.5957e-14
9.96365e-15
1.51752e-14
1.00682e-14
1.43935e-14
1.01546e-14
1.36128e-14
1.0225e-14
1.28339e-14
1.02812e-14
1.20573e-14
1.03252e-14
1.12834e-14
1.03587e-14
1.05125e-14
1.0383e-14
9.74466e-15
1.03997e-14
8.98005e-15
1.04099e-14
8.2186e-15
1.04149e-14
7.46024e-15
1.04155e-14
6.70483e-15
1.04127e-14
5.9522e-15
1.04072e-14
5.20215e-15
1.03998e-14
4.45443e-15
1.0391e-14
3.70879e-15
1.03813e-14
2.96492e-15
1.03711e-14
2.22252e-15
1.0361e-14
1.48125e-15
1.03516e-14
7.40829e-16
1.03439e-14
1.03397e-14
2.41148e-09
6.45288e-08
1.60848e-08
-1.84347e-08
1.73337e-08
-8.64111e-08
-1.66633e-08
-1.19836e-07
-8.05349e-09
-1.52101e-07
6.64713e-09
-1.31464e-07
-1.57952e-08
-6.09662e-08
-4.14261e-08
-2.17246e-08
-6.20045e-08
2.76687e-08
-7.23876e-08
4.47087e-08
-7.84072e-08
4.96845e-08
-7.827e-08
5.26978e-08
-6.9687e-08
5.24547e-08
-5.82202e-08
5.05647e-08
-4.51986e-08
3.6089e-08
-3.38632e-08
2.94364e-08
-2.39113e-08
2.22149e-08
-1.64867e-08
1.99106e-08
-9.06622e-09
1.88799e-08
8.76453e-10
1.53878e-08
7.52009e-09
1.89916e-08
7.27261e-09
1.91022e-08
4.12105e-09
1.39258e-08
3.58087e-09
5.15182e-09
6.81838e-09
-1.03358e-09
1.47443e-08
-2.04999e-09
2.10431e-08
2.38733e-09
1.28101e-09
2.24059e-08
3.79283e-14
1.27456e-09
-2.99558e-15
9.36463e-14
4.76637e-15
2.15927e-14
7.43546e-15
1.65118e-14
1.22951e-14
7.09978e-15
1.67765e-14
3.63193e-15
1.63371e-14
7.461e-15
1.795e-14
2.84006e-15
2.0891e-14
-6.45724e-16
2.23467e-14
1.45089e-16
2.39293e-14
-5.02176e-16
2.5201e-14
-2.48538e-16
2.59942e-14
5.24396e-16
2.6508e-14
1.22477e-15
2.6833e-14
1.89614e-15
2.69841e-14
2.60503e-15
2.69773e-14
3.32888e-15
2.68393e-14
4.03245e-15
2.65964e-14
4.70111e-15
2.62674e-14
5.33559e-15
2.58639e-14
5.94013e-15
2.53935e-14
6.51655e-15
2.48629e-14