/*--------------------------------*- C++ -*----------------------------------*\
  =========                 |
  \\      /  F ield         | OpenFOAM: The Open Source CFD Toolbox
   \\    /   O peration     | Website:  https://openfoam.org
    \\  /    A nd           | Version:  6
     \\/     M anipulation  |
\*---------------------------------------------------------------------------*/
FoamFile
{
    version     2.0;
    format      ascii;
    class       volVectorField;
    location    "990";
    object      U;
}
// * * * * * * * * * * * * * * * * * * * * * * * * * * * * * * * * * * * * * //

dimensions      [0 1 -1 0 0 0 0];

internalField   nonuniform List<vector> 
5964
(
(0.00299812 0 -0.00251508)
(-0.00380873 0 0.00197507)
(-0.00374178 0 -0.00256464)
(-0.00545579 0 0.0015215)
(-0.006186 0 -0.000765246)
(-0.006642 0 0.000338012)
(-0.00677721 0 -0.000104365)
(-0.00626482 0 -0.00041897)
(-0.00594953 0 -0.000290036)
(-0.00560072 0 -0.000353732)
(-0.00495182 0 -0.000469564)
(-0.00457126 0 -0.000321945)
(-0.00436943 0 -0.000277553)
(-0.00433165 0 -9.08826e-05)
(-0.00430578 0 -0.000133733)
(-0.00430956 0 -0.000215814)
(-0.00438659 0 -0.000311445)
(-0.00419483 0 -0.000926494)
(-0.00332428 0 -0.00107735)
(-0.00222649 0 -0.00130142)
(-0.00163302 0 0.000107857)
(-1.03302e-05 0 -0.00060066)
(3.80984e-08 0 4.02451e-06)
(2.66296e-09 0 1.70453e-09)
(4.63758e-09 0 6.42197e-10)
(3.61131e-09 0 3.18638e-10)
(3.06102e-09 0 1.94581e-10)
(2.70612e-09 0 1.35402e-10)
(2.4501e-09 0 1.01991e-10)
(2.2526e-09 0 8.0704e-11)
(2.09378e-09 0 6.58758e-11)
(1.96272e-09 0 5.48225e-11)
(1.85286e-09 0 4.61574e-11)
(1.75988e-09 0 3.91246e-11)
(1.68075e-09 0 3.32958e-11)
(1.61317e-09 0 2.84189e-11)
(1.55527e-09 0 2.43369e-11)
(1.50546e-09 0 2.0943e-11)
(1.46235e-09 0 1.81568e-11)
(1.42471e-09 0 1.59104e-11)
(1.39146e-09 0 1.41421e-11)
(1.36163e-09 0 1.27938e-11)
(1.33437e-09 0 1.18097e-11)
(1.30897e-09 0 1.1137e-11)
(1.28481e-09 0 1.07265e-11)
(1.26137e-09 0 1.05326e-11)
(1.23823e-09 0 1.05145e-11)
(1.21505e-09 0 1.06359e-11)
(1.19157e-09 0 1.08651e-11)
(1.16757e-09 0 1.11748e-11)
(1.14291e-09 0 1.1542e-11)
(1.11748e-09 0 1.19472e-11)
(1.09122e-09 0 1.23744e-11)
(1.06408e-09 0 1.28105e-11)
(1.03606e-09 0 1.3245e-11)
(1.00716e-09 0 1.36697e-11)
(9.7741e-10 0 1.40781e-11)
(9.46845e-10 0 1.44656e-11)
(9.15509e-10 0 1.48287e-11)
(8.83453e-10 0 1.51655e-11)
(8.5073e-10 0 1.54746e-11)
(8.17398e-10 0 1.57557e-11)
(7.83513e-10 0 1.6009e-11)
(7.49131e-10 0 1.62351e-11)
(7.14305e-10 0 1.64354e-11)
(6.79087e-10 0 1.6611e-11)
(6.43526e-10 0 1.67636e-11)
(6.07668e-10 0 1.68948e-11)
(5.71553e-10 0 1.70065e-11)
(5.35222e-10 0 1.71004e-11)
(4.98707e-10 0 1.71782e-11)
(4.62042e-10 0 1.72415e-11)
(4.25255e-10 0 1.72919e-11)
(3.8837e-10 0 1.73309e-11)
(3.51411e-10 0 1.73595e-11)
(3.14397e-10 0 1.73789e-11)
(2.77349e-10 0 1.739e-11)
(2.40282e-10 0 1.73935e-11)
(2.03213e-10 0 1.73902e-11)
(1.66154e-10 0 1.73805e-11)
(1.29124e-10 0 1.73616e-11)
(9.21518e-11 0 1.7325e-11)
(5.52774e-11 0 1.72682e-11)
(1.84351e-11 0 1.72941e-11)
(-0.00213318 0 0.00328417)
(-0.00329948 0 0.00247523)
(-0.0038702 0 0.00162741)
(-0.00436 0 0.00186925)
(-0.00480761 0 0.00059287)
(-0.00532457 0 0.000476593)
(-0.00541679 0 0.000174453)
(-0.00482378 0 -0.000770167)
(-0.00452842 0 -0.000721687)
(-0.00437091 0 0.000191096)
(-0.00335667 0 -0.00098555)
(-0.00307902 0 -0.000297451)
(-0.00280733 0 -8.16352e-05)
(-0.0031782 0 0.000749282)
(-0.00356914 0 0.000331395)
(-0.00379752 0 0.000247317)
(-0.00387677 0 2.62209e-06)
(-0.0034004 0 -0.00155101)
(-0.0031805 0 -0.00113138)
(-0.00176837 0 -0.00247216)
(-0.00228458 0 -0.00147343)
(1.93905e-05 0 -0.00225679)
(5.24633e-10 0 1.46269e-09)
(2.19662e-09 0 2.34506e-09)
(3.33901e-09 0 1.27509e-09)
(3.19222e-09 0 7.79463e-10)
(2.88965e-09 0 5.25781e-10)
(2.61962e-09 0 3.82689e-10)
(2.39905e-09 0 2.94503e-10)
(2.2189e-09 0 2.35668e-10)
(2.06964e-09 0 1.93586e-10)
(1.94434e-09 0 1.61687e-10)
(1.83823e-09 0 1.36398e-10)
(1.7479e-09 0 1.15717e-10)
(1.6708e-09 0 9.84929e-11)
(1.60486e-09 0 8.40401e-11)
(1.54835e-09 0 7.19261e-11)
(1.49976e-09 0 6.18526e-11)
(1.45772e-09 0 5.35893e-11)
(1.42104e-09 0 4.69382e-11)
(1.38863e-09 0 4.17171e-11)
(1.35953e-09 0 3.77516e-11)
(1.3329e-09 0 3.48748e-11)
(1.30803e-09 0 3.29277e-11)
(1.28432e-09 0 3.17618e-11)
(1.26124e-09 0 3.12405e-11)
(1.23839e-09 0 3.12409e-11)
(1.21545e-09 0 3.16544e-11)
(1.19214e-09 0 3.23859e-11)
(1.16827e-09 0 3.33541e-11)
(1.1437e-09 0 3.44898e-11)
(1.11833e-09 0 3.57354e-11)
(1.0921e-09 0 3.7043e-11)
(1.06497e-09 0 3.83737e-11)
(1.03695e-09 0 3.96964e-11)
(1.00803e-09 0 4.09866e-11)
(9.78255e-10 0 4.22253e-11)
(9.47657e-10 0 4.33989e-11)
(9.16282e-10 0 4.44975e-11)
(8.84185e-10 0 4.55148e-11)
(8.51421e-10 0 4.64476e-11)
(8.18047e-10 0 4.72948e-11)
(7.84121e-10 0 4.80573e-11)
(7.49699e-10 0 4.87375e-11)
(7.14837e-10 0 4.93388e-11)
(6.79585e-10 0 4.98656e-11)
(6.43993e-10 0 5.03227e-11)
(6.08106e-10 0 5.07154e-11)
(5.71967e-10 0 5.10489e-11)
(5.35613e-10 0 5.13288e-11)
(4.99079e-10 0 5.15602e-11)
(4.62396e-10 0 5.17482e-11)
(4.25594e-10 0 5.18975e-11)
(3.88696e-10 0 5.20124e-11)
(3.51726e-10 0 5.20966e-11)
(3.14703e-10 0 5.21535e-11)
(2.77645e-10 0 5.21858e-11)
(2.40568e-10 0 5.2196e-11)
(2.03487e-10 0 5.21865e-11)
(1.66414e-10 0 5.21582e-11)
(1.29365e-10 0 5.21044e-11)
(9.23611e-11 0 5.20021e-11)
(5.54144e-11 0 5.18628e-11)
(1.84774e-11 0 5.19199e-11)
(-0.00162666 0 0.00393061)
(-0.00192737 0 0.00327235)
(-0.00294465 0 0.00216097)
(-0.00351718 0 0.00173716)
(-0.00372087 0 0.00131289)
(-0.00422659 0 0.000699254)
(-0.00432853 0 0.000330328)
(-0.00373527 0 -0.00100042)
(-0.00330293 0 -0.0013613)
(-0.00360459 0 -5.62564e-06)
(-0.00221589 0 -0.00145368)
(-0.00165836 0 -0.00020496)
(-0.000879203 0 5.56478e-05)
(-0.00261284 0 4.28055e-05)
(-0.00269781 0 4.52791e-06)
(-0.00238019 0 -0.000297917)
(-0.00187926 0 -0.00052805)
(-0.00169347 0 -0.000985915)
(-0.00186834 0 -0.00150693)
(-0.00138271 0 -0.00195466)
(-0.00118379 0 -0.00251817)
(0.00028126 0 -0.00278934)
(6.31427e-07 0 1.09567e-05)
(1.66105e-09 0 1.72075e-09)
(3.17122e-09 0 1.40221e-09)
(2.90995e-09 0 1.02698e-09)
(2.68988e-09 0 7.59228e-10)
(2.4899e-09 0 5.81197e-10)
(2.3127e-09 0 4.60714e-10)
(2.15829e-09 0 3.75416e-10)
(2.02465e-09 0 3.11871e-10)
(1.90929e-09 0 2.62284e-10)
(1.80992e-09 0 2.22151e-10)
(1.7245e-09 0 1.88857e-10)
(1.65121e-09 0 1.60865e-10)
(1.58843e-09 0 1.37242e-10)
(1.53464e-09 0 1.17385e-10)
(1.48845e-09 0 1.00861e-10)
(1.44855e-09 0 8.73193e-11)
(1.41376e-09 0 7.64482e-11)
(1.38302e-09 0 6.795e-11)
(1.35538e-09 0 6.1536e-11)
(1.33001e-09 0 5.69264e-11)
(1.3062e-09 0 5.38544e-11)
(1.28337e-09 0 5.20707e-11)
(1.26102e-09 0 5.13465e-11)
(1.23875e-09 0 5.14766e-11)
(1.21625e-09 0 5.22797e-11)
(1.19328e-09 0 5.35985e-11)
(1.16967e-09 0 5.52982e-11)
(1.14527e-09 0 5.72647e-11)
(1.12001e-09 0 5.94031e-11)
(1.09383e-09 0 6.16349e-11)
(1.06672e-09 0 6.38965e-11)
(1.03867e-09 0 6.61368e-11)
(1.00971e-09 0 6.8316e-11)
(9.79869e-10 0 7.04036e-11)
(9.4919e-10 0 7.23773e-11)
(9.17727e-10 0 7.42216e-11)
(8.85535e-10 0 7.59266e-11)
(8.52673e-10 0 7.74875e-11)
(8.19203e-10 0 7.89029e-11)
(7.85182e-10 0 8.0175e-11)
(7.5067e-10 0 8.1308e-11)
(7.15722e-10 0 8.23081e-11)
(6.80391e-10 0 8.31829e-11)
(6.44725e-10 0 8.39408e-11)
(6.08771e-10 0 8.45908e-11)
(5.72571e-10 0 8.51418e-11)
(5.36162e-10 0 8.56033e-11)
(4.9958e-10 0 8.59839e-11)
(4.62855e-10 0 8.62923e-11)
(4.26014e-10 0 8.65365e-11)
(3.89084e-10 0 8.67237e-11)
(3.52085e-10 0 8.68605e-11)
(3.15036e-10 0 8.69525e-11)
(2.77954e-10 0 8.70046e-11)
(2.40855e-10 0 8.70211e-11)
(2.03752e-10 0 8.70061e-11)
(1.66657e-10 0 8.69611e-11)
(1.29581e-10 0 8.68789e-11)
(9.25327e-11 0 8.67317e-11)
(5.55148e-11 0 8.65528e-11)
(1.85066e-11 0 8.66108e-11)
(-0.001323 0 0.00482072)
(-0.00134501 0 0.00377914)
(-0.0018961 0 0.00308629)
(-0.00274881 0 0.00228311)
(-0.00316543 0 0.00107865)
(-0.00328459 0 0.000379096)
(-0.00295901 0 -0.00016248)
(-0.00262342 0 -0.00119507)
(-0.00165871 0 -0.00226193)
(-0.00135431 0 -0.00232134)
(0.000400366 0 -0.00302716)
(0.000659738 0 -0.00205541)
(0.0010753 0 5.71909e-05)
(0.00148557 0 0.000509537)
(0.00125183 0 0.0011514)
(0.00171578 0 0.00088134)
(0.00156289 0 0.000546811)
(-0.000121413 0 -0.000489674)
(-0.00108402 0 -0.00141173)
(1.0134e-05 0 -0.00186731)
(-0.00141053 0 -0.00240938)
(-0.00152269 0 -0.00256857)
(-5.47458e-05 0 0.000320503)
(1.38406e-09 0 2.22525e-09)
(2.69034e-09 0 1.58076e-09)
(2.59062e-09 0 1.18067e-09)
(2.47255e-09 0 9.14335e-10)
(2.34032e-09 0 7.29569e-10)
(2.2065e-09 0 5.96381e-10)
(2.07961e-09 0 4.96371e-10)
(1.96376e-09 0 4.1817e-10)
(1.86037e-09 0 3.54818e-10)
(1.76953e-09 0 3.02109e-10)
(1.69059e-09 0 2.5753e-10)
(1.62256e-09 0 2.19572e-10)
(1.56426e-09 0 1.87295e-10)
(1.51441e-09 0 1.60061e-10)
(1.47174e-09 0 1.37381e-10)
(1.43501e-09 0 1.18825e-10)
(1.40306e-09 0 1.03985e-10)
(1.37481e-09 0 9.24536e-11)
(1.34935e-09 0 8.38269e-11)
(1.32585e-09 0 7.77094e-11)
(1.30362e-09 0 7.37225e-11)
(1.2821e-09 0 7.15127e-11)
(1.26081e-09 0 7.07573e-11)
(1.23939e-09 0 7.11679e-11)
(1.21755e-09 0 7.24911e-11)
(1.19508e-09 0 7.45082e-11)
(1.17182e-09 0 7.70324e-11)
(1.14767e-09 0 7.9907e-11)
(1.12256e-09 0 8.30012e-11)
(1.09645e-09 0 8.6208e-11)
(1.06934e-09 0 8.94404e-11)
(1.04125e-09 0 9.26292e-11)
(1.01221e-09 0 9.57206e-11)
(9.82258e-10 0 9.86736e-11)
(9.51449e-10 0 1.01458e-10)
(9.19843e-10 0 1.04055e-10)
(8.875e-10 0 1.0645e-10)
(8.54485e-10 0 1.08639e-10)
(8.20862e-10 0 1.1062e-10)
(7.86693e-10 0 1.12397e-10)
(7.52039e-10 0 1.13977e-10)
(7.16956e-10 0 1.15369e-10)
(6.81499e-10 0 1.16585e-10)
(6.45717e-10 0 1.17636e-10)
(6.09657e-10 0 1.18536e-10)
(5.7336e-10 0 1.19297e-10)
(5.36865e-10 0 1.19933e-10)
(5.00206e-10 0 1.20457e-10)
(4.63413e-10 0 1.20879e-10)
(4.26513e-10 0 1.21213e-10)
(3.8953e-10 0 1.21468e-10)
(3.52485e-10 0 1.21653e-10)
(3.15395e-10 0 1.21777e-10)
(2.78277e-10 0 1.21847e-10)
(2.41145e-10 0 1.21869e-10)
(2.0401e-10 0 1.21848e-10)
(1.66884e-10 0 1.21788e-10)
(1.29774e-10 0 1.21683e-10)
(9.26789e-11 0 1.21515e-10)
(5.55985e-11 0 1.21312e-10)
(1.85317e-11 0 1.21353e-10)
(-0.000834951 0 0.00564374)
(-0.00137587 0 0.00420818)
(-0.00118477 0 0.00344943)
(-0.00184039 0 0.00272439)
(-0.00202513 0 0.00136094)
(-0.00141453 0 0.00111796)
(0.000788113 0 -0.00164541)
(0.00224741 0 -0.00309485)
(0.00369488 0 -0.0021462)
(0.00400894 0 -0.00225628)
(0.00416198 0 -0.00169619)
(0.00369724 0 -0.00170974)
(0.00293779 0 -0.000531065)
(0.00310503 0 -9.48934e-05)
(0.00294538 0 0.000589117)
(0.00266647 0 0.000980075)
(0.00241289 0 0.000714171)
(0.0017977 0 3.55761e-05)
(0.00194888 0 -0.000285914)
(0.00112709 0 -0.00101321)
(0.000116584 0 -0.00181358)
(7.59635e-05 0 -0.00298461)
(-3.27364e-05 0 -0.00175393)
(1.06671e-09 0 2.27715e-09)
(2.19465e-09 0 1.54562e-09)
(2.28649e-09 0 1.21716e-09)
(2.26774e-09 0 9.98008e-10)
(2.19226e-09 0 8.32773e-10)
(2.09433e-09 0 7.02997e-10)
(1.99138e-09 0 5.98228e-10)
(1.89205e-09 0 5.11458e-10)
(1.80058e-09 0 4.38015e-10)
(1.71881e-09 0 3.74927e-10)
(1.64723e-09 0 3.20381e-10)
(1.5855e-09 0 2.73278e-10)
(1.53279e-09 0 2.32902e-10)
(1.48801e-09 0 1.98721e-10)
(1.44996e-09 0 1.70262e-10)
(1.41741e-09 0 1.47052e-10)
(1.38921e-09 0 1.286e-10)
(1.36428e-09 0 1.1439e-10)
(1.34171e-09 0 1.03898e-10)
(1.32068e-09 0 9.66044e-11)
(1.30052e-09 0 9.20122e-11)
(1.28071e-09 0 8.96587e-11)
(1.26081e-09 0 8.91245e-11)
(1.24048e-09 0 9.00371e-11)
(1.21949e-09 0 9.20718e-11)
(1.19765e-09 0 9.49501e-11)
(1.17484e-09 0 9.84363e-11)
(1.15098e-09 0 1.02333e-10)
(1.12604e-09 0 1.06477e-10)
(1.1e-09 0 1.10735e-10)
(1.07288e-09 0 1.14999e-10)
(1.04472e-09 0 1.19184e-10)
(1.01555e-09 0 1.23224e-10)
(9.8544e-10 0 1.27069e-10)
(9.54446e-10 0 1.30684e-10)
(9.22637e-10 0 1.34044e-10)
(8.90084e-10 0 1.37135e-10)
(8.56856e-10 0 1.39953e-10)
(8.23022e-10 0 1.42497e-10)
(7.88648e-10 0 1.44774e-10)
(7.53798e-10 0 1.46794e-10)
(7.1853e-10 0 1.4857e-10)
(6.82901e-10 0 1.50117e-10)
(6.46961e-10 0 1.51451e-10)
(6.10756e-10 0 1.5259e-10)
(5.74328e-10 0 1.53551e-10)
(5.37715e-10 0 1.54352e-10)
(5.00951e-10 0 1.55008e-10)
(4.64066e-10 0 1.55536e-10)
(4.27084e-10 0 1.55951e-10)
(3.9003e-10 0 1.56266e-10)
(3.52923e-10 0 1.56494e-10)
(3.15778e-10 0 1.56645e-10)
(2.78612e-10 0 1.56729e-10)
(2.41436e-10 0 1.56753e-10)
(2.0426e-10 0 1.56725e-10)
(1.67092e-10 0 1.5665e-10)
(1.2994e-10 0 1.56526e-10)
(9.28045e-11 0 1.56345e-10)
(5.56803e-11 0 1.56128e-10)
(1.85604e-11 0 1.56148e-10)
(-0.00138983 0 0.00640749)
(-2.84005e-05 0 0.00492609)
(-0.000829773 0 0.00349208)
(-0.000923785 0 0.00233301)
(0.000253098 0 0.00122562)
(0.000873298 0 -0.00174189)
(0.00250112 0 -0.0025167)
(0.00382196 0 -0.00356218)
(0.00483967 0 -0.00358307)
(0.00501673 0 -0.00330069)
(0.00530259 0 -0.00260299)
(0.00526259 0 -0.00167989)
(0.0043635 0 -1.61426e-05)
(0.0042775 0 0.000655003)
(0.00427611 0 0.000956138)
(0.00396902 0 0.00104462)
(0.00344173 0 0.000827324)
(0.00295352 0 0.000298411)
(0.00236999 0 -0.000211649)
(0.00198991 0 -0.000575427)
(0.00069488 0 -0.00137997)
(-0.00102067 0 -0.00207417)
(5.15544e-06 0 -0.00229426)
(6.79347e-10 0 2.03971e-09)
(1.69979e-09 0 1.15772e-09)
(2.0784e-09 0 1.15803e-09)
(2.11273e-09 0 1.03452e-09)
(2.06398e-09 0 9.04933e-10)
(1.9867e-09 0 7.87699e-10)
(1.90007e-09 0 6.8429e-10)
(1.81357e-09 0 5.93033e-10)
(1.7324e-09 0 5.12096e-10)
(1.6593e-09 0 4.40209e-10)
(1.59537e-09 0 3.76656e-10)
(1.54066e-09 0 3.21031e-10)
(1.4945e-09 0 2.73027e-10)
(1.45584e-09 0 2.32315e-10)
(1.42347e-09 0 1.98492e-10)
(1.39612e-09 0 1.71063e-10)
(1.37259e-09 0 1.49452e-10)
(1.35181e-09 0 1.33026e-10)
(1.33282e-09 0 1.21125e-10)
(1.31483e-09 0 1.13092e-10)
(1.29723e-09 0 1.08301e-10)
(1.27949e-09 0 1.06172e-10)
(1.26126e-09 0 1.06186e-10)
(1.24224e-09 0 1.07885e-10)
(1.22225e-09 0 1.10876e-10)
(1.20114e-09 0 1.14823e-10)
(1.17884e-09 0 1.19445e-10)
(1.15531e-09 0 1.24507e-10)
(1.13054e-09 0 1.29819e-10)
(1.10456e-09 0 1.35224e-10)
(1.0774e-09 0 1.40596e-10)
(1.04911e-09 0 1.45836e-10)
(1.01977e-09 0 1.50869e-10)
(9.89438e-10 0 1.55639e-10)
(9.58195e-10 0 1.60105e-10)
(9.2612e-10 0 1.64243e-10)
(8.9329e-10 0 1.68037e-10)
(8.59785e-10 0 1.71485e-10)
(8.25678e-10 0 1.74588e-10)
(7.91041e-10 0 1.77358e-10)
(7.55939e-10 0 1.79808e-10)
(7.20436e-10 0 1.81955e-10)
(6.84587e-10 0 1.8382e-10)
(6.48445e-10 0 1.85423e-10)
(6.12056e-10 0 1.86788e-10)
(5.75463e-10 0 1.87935e-10)
(5.38702e-10 0 1.88886e-10)
(5.01806e-10 0 1.89663e-10)
(4.64804e-10 0 1.90285e-10)
(4.2772e-10 0 1.9077e-10)
(3.90577e-10 0 1.91136e-10)
(3.53392e-10 0 1.91397e-10)
(3.16181e-10 0 1.91568e-10)
(2.78955e-10 0 1.91659e-10)
(2.41726e-10 0 1.91682e-10)
(2.04501e-10 0 1.91646e-10)
(1.67287e-10 0 1.91556e-10)
(1.30088e-10 0 1.91413e-10)
(9.29138e-11 0 1.9121e-10)
(5.57591e-11 0 1.90984e-10)
(1.8592e-11 0 1.91001e-10)
(-0.000778439 0 0.00678002)
(-0.000301695 0 0.00484058)
(0.000104336 0 0.00341179)
(0.000481793 0 0.0024632)
(0.00210179 0 -0.000258913)
(0.00315834 0 -0.000928417)
(0.00473931 0 -0.00241718)
(0.00579816 0 -0.00443889)
(0.00676905 0 -0.00398774)
(0.00685939 0 -0.00349658)
(0.00688336 0 -0.0027823)
(0.00682486 0 -0.000259339)
(0.00597283 0 -0.000518817)
(0.00542607 0 -0.000714127)
(0.0048913 0 0.00174)
(0.00448159 0 0.00197009)
(0.00381944 0 0.00168332)
(0.00299186 0 0.00108065)
(0.00253217 0 0.0002556)
(0.00213423 0 -7.76789e-05)
(0.00161407 0 -0.000200216)
(0.00189405 0 -0.000779238)
(0.000261798 0 -0.00193967)
(1.54858e-09 0 1.88425e-07)
(1.16574e-09 0 1.55968e-09)
(2.1714e-09 0 1.2089e-09)
(2.03054e-09 0 1.07658e-09)
(1.96078e-09 0 9.66315e-10)
(1.88735e-09 0 8.60274e-10)
(1.80874e-09 0 7.59669e-10)
(1.73052e-09 0 6.65519e-10)
(1.65726e-09 0 5.78187e-10)
(1.59185e-09 0 4.98123e-10)
(1.53556e-09 0 4.25916e-10)
(1.48845e-09 0 3.62039e-10)
(1.44975e-09 0 3.06695e-10)
(1.41829e-09 0 2.59808e-10)
(1.39269e-09 0 2.21058e-10)
(1.37159e-09 0 1.89917e-10)
(1.3537e-09 0 1.65706e-10)
(1.33787e-09 0 1.47645e-10)
(1.32314e-09 0 1.34911e-10)
(1.30876e-09 0 1.26689e-10)
(1.29413e-09 0 1.22206e-10)
(1.27881e-09 0 1.20758e-10)
(1.26249e-09 0 1.21721e-10)
(1.24495e-09 0 1.24554e-10)
(1.22606e-09 0 1.28795e-10)
(1.20575e-09 0 1.34058e-10)
(1.18399e-09 0 1.40022e-10)
(1.16079e-09 0 1.4642e-10)
(1.13618e-09 0 1.53038e-10)
(1.11021e-09 0 1.59701e-10)
(1.08296e-09 0 1.66269e-10)
(1.05449e-09 0 1.72633e-10)
(1.0249e-09 0 1.78711e-10)
(9.9428e-10 0 1.84442e-10)
(9.62715e-10 0 1.89785e-10)
(9.30299e-10 0 1.94714e-10)
(8.97122e-10 0 1.99217e-10)
(8.6327e-10 0 2.03293e-10)
(8.28824e-10 0 2.0695e-10)
(7.93861e-10 0 2.10201e-10)
(7.58451e-10 0 2.13067e-10)
(7.22659e-10 0 2.1557e-10)
(6.86543e-10 0 2.17736e-10)
(6.50156e-10 0 2.19591e-10)
(6.13545e-10 0 2.21163e-10)
(5.76751e-10 0 2.22478e-10)
(5.39811e-10 0 2.23564e-10)
(5.02757e-10 0 2.24445e-10)
(4.65616e-10 0 2.25145e-10)
(4.28411e-10 0 2.25687e-10)
(3.91162e-10 0 2.26091e-10)
(3.53886e-10 0 2.26375e-10)
(3.16596e-10 0 2.26556e-10)
(2.79303e-10 0 2.26648e-10)
(2.42015e-10 0 2.26664e-10)
(2.04737e-10 0 2.26615e-10)
(1.67475e-10 0 2.26509e-10)
(1.30231e-10 0 2.26346e-10)
(9.30195e-11 0 2.26108e-10)
(5.58258e-11 0 2.2588e-10)
(1.86139e-11 0 2.25907e-10)
(-0.000713493 0 0.00668763)
(2.57349e-05 0 0.0046149)
(0.000137006 0 0.00321081)
(0.00177555 0 0.000616953)
(0.00313248 0 -0.000475688)
(0.00459345 0 -0.00291919)
(0.0057064 0 -0.00552443)
(0.0073686 0 -0.00506209)
(0.00745596 0 -0.00469655)
(0.00746748 0 -0.00384299)
(0.00737095 0 -0.00271004)
(0.00701611 0 -0.000605588)
(0.00637722 0 1.90315e-05)
(0.0055103 0 0.00143487)
(0.00456869 0 0.00248142)
(0.00423308 0 0.00228567)
(0.0035661 0 0.00198575)
(0.00276208 0 0.00149434)
(0.0024493 0 0.000737926)
(0.00202187 0 0.000576894)
(0.00135481 0 0.000176078)
(0.000622115 0 -0.00119231)
(0.00146968 0 -0.0011198)
(4.67201e-06 0 0.000121094)
(6.83022e-10 0 2.02558e-09)
(1.62504e-09 0 1.06894e-09)
(1.88478e-09 0 1.09934e-09)
(1.86074e-09 0 1.024e-09)
(1.79258e-09 0 9.2806e-10)
(1.71718e-09 0 8.29345e-10)
(1.64321e-09 0 7.31972e-10)
(1.57534e-09 0 6.37838e-10)
(1.51651e-09 0 5.49077e-10)
(1.46783e-09 0 4.67798e-10)
(1.42899e-09 0 3.95489e-10)
(1.3988e-09 0 3.32875e-10)
(1.37572e-09 0 2.80099e-10)
(1.35811e-09 0 2.36888e-10)
(1.34439e-09 0 2.02636e-10)
(1.33311e-09 0 1.76509e-10)
(1.32306e-09 0 1.57536e-10)
(1.31328e-09 0 1.44687e-10)
(1.30301e-09 0 1.36953e-10)
(1.29174e-09 0 1.33396e-10)
(1.2791e-09 0 1.33176e-10)
(1.26487e-09 0 1.35562e-10)
(1.24892e-09 0 1.39932e-10)
(1.2312e-09 0 1.45764e-10)
(1.21171e-09 0 1.52626e-10)
(1.19048e-09 0 1.60165e-10)
(1.16758e-09 0 1.6809e-10)
(1.14307e-09 0 1.7617e-10)
(1.11706e-09 0 1.84214e-10)
(1.08964e-09 0 1.92076e-10)
(1.06091e-09 0 1.99639e-10)
(1.03099e-09 0 2.06817e-10)
(9.99995e-10 0 2.13549e-10)
(9.68023e-10 0 2.19792e-10)
(9.35184e-10 0 2.25526e-10)
(9.0158e-10 0 2.30741e-10)
(8.67306e-10 0 2.35441e-10)
(8.32451e-10 0 2.3964e-10)
(7.97097e-10 0 2.43359e-10)
(7.61319e-10 0 2.46622e-10)
(7.25183e-10 0 2.49461e-10)
(6.88751e-10 0 2.51906e-10)
(6.52076e-10 0 2.53991e-10)
(6.15203e-10 0 2.55748e-10)
(5.78176e-10 0 2.57211e-10)
(5.41027e-10 0 2.5841e-10)
(5.03789e-10 0 2.59376e-10)
(4.66487e-10 0 2.60137e-10)
(4.29143e-10 0 2.60719e-10)
(3.91773e-10 0 2.61146e-10)
(3.54394e-10 0 2.61439e-10)
(3.17016e-10 0 2.61619e-10)
(2.79648e-10 0 2.61701e-10)
(2.42296e-10 0 2.61702e-10)
(2.04965e-10 0 2.61635e-10)
(1.67658e-10 0 2.61508e-10)
(1.30375e-10 0 2.61321e-10)
(9.31163e-11 0 2.61051e-10)
(5.5875e-11 0 2.60821e-10)
(1.86284e-11 0 2.60849e-10)
(-0.000379104 0 0.00664511)
(0.00020206 0 0.00462099)
(0.000226944 0 0.00228794)
(0.00228529 0 -0.000615974)
(0.00413208 0 -0.00207971)
(0.0057588 0 -0.0042356)
(0.00702281 0 -0.00579729)
(0.00783618 0 -0.00500222)
(0.00782882 0 -0.00457441)
(0.00762891 0 -0.00365209)
(0.00717389 0 -0.00283551)
(0.00679472 0 -0.000672461)
(0.0060824 0 0.000371199)
(0.00498133 0 0.00198123)
(0.00374982 0 0.00321544)
(0.00335002 0 0.00308688)
(0.00299811 0 0.00238626)
(0.00255842 0 0.00147819)
(0.00234179 0 0.000850732)
(0.00192548 0 0.000769005)
(0.00155643 0 0.000624014)
(0.000369029 0 -0.000720861)
(-0.000545406 0 -0.000858872)
(0.000231267 0 0.00172575)
(5.26332e-09 0 2.66938e-07)
(1.07828e-09 0 1.53162e-09)
(1.98725e-09 0 1.21579e-09)
(1.79937e-09 0 1.09978e-09)
(1.70422e-09 0 9.98242e-10)
(1.62443e-09 0 8.97787e-10)
(1.55065e-09 0 7.95515e-10)
(1.48561e-09 0 6.92699e-10)
(1.43237e-09 0 5.93389e-10)
(1.39162e-09 0 5.01729e-10)
(1.36208e-09 0 4.20357e-10)
(1.34173e-09 0 3.5035e-10)
(1.32848e-09 0 2.91931e-10)
(1.32025e-09 0 2.44792e-10)
(1.31516e-09 0 2.08165e-10)
(1.31156e-09 0 1.8098e-10)
(1.30815e-09 0 1.61997e-10)
(1.30393e-09 0 1.49917e-10)
(1.29824e-09 0 1.43494e-10)
(1.29063e-09 0 1.41598e-10)
(1.28087e-09 0 1.43246e-10)
(1.26884e-09 0 1.476e-10)
(1.25453e-09 0 1.53965e-10)
(1.23798e-09 0 1.61767e-10)
(1.21927e-09 0 1.7054e-10)
(1.19852e-09 0 1.79908e-10)
(1.17584e-09 0 1.89568e-10)
(1.15135e-09 0 1.99275e-10)
(1.1252e-09 0 2.08835e-10)
(1.09752e-09 0 2.18094e-10)
(1.06843e-09 0 2.26934e-10)
(1.03809e-09 0 2.3527e-10)
(1.00661e-09 0 2.4304e-10)
(9.74136e-10 0 2.50208e-10)
(9.40781e-10 0 2.56756e-10)
(9.06662e-10 0 2.62682e-10)
(8.71883e-10 0 2.67998e-10)
(8.36544e-10 0 2.72724e-10)
(8.0073e-10 0 2.76889e-10)
(7.64521e-10 0 2.80528e-10)
(7.27987e-10 0 2.83676e-10)
(6.91189e-10 0 2.86374e-10)
(6.54181e-10 0 2.88662e-10)
(6.1701e-10 0 2.90578e-10)
(5.79715e-10 0 2.92162e-10)
(5.4233e-10 0 2.9345e-10)
(5.04884e-10 0 2.94478e-10)
(4.67401e-10 0 2.95278e-10)
(4.299e-10 0 2.9588e-10)
(3.92397e-10 0 2.96312e-10)
(3.54904e-10 0 2.96599e-10)
(3.1743e-10 0 2.96763e-10)
(2.79982e-10 0 2.96825e-10)
(2.42563e-10 0 2.968e-10)
(2.05178e-10 0 2.96704e-10)
(1.67826e-10 0 2.96549e-10)
(1.30506e-10 0 2.96336e-10)
(9.32012e-11 0 2.96053e-10)
(5.59151e-11 0 2.95802e-10)
(1.86404e-11 0 2.9582e-10)
(-0.000250588 0 0.00645542)
(0.000361856 0 0.0047677)
(0.00161179 0 -0.000264946)
(0.00281965 0 -0.00230503)
(0.00447044 0 -0.00448959)
(0.00596675 0 -0.00593876)
(0.00727447 0 -0.00594942)
(0.00633482 0 -0.00671439)
(0.00678125 0 -0.00508343)
(0.00577802 0 -0.00399303)
(0.00507562 0 -0.00274414)
(0.00507407 0 -0.000417377)
(0.0045488 0 0.00156365)
(0.00387513 0 0.00250058)
(0.00332521 0 0.00321944)
(0.00262506 0 0.00346957)
(0.00214995 0 0.00288124)
(0.0020687 0 0.00190204)
(0.00200637 0 0.0013704)
(0.00161738 0 0.0012203)
(0.00129161 0 0.00106021)
(0.000519727 0 0.000312839)
(0.000250073 0 -0.000986888)
(0.00177014 0 -0.000712261)
(5.29204e-06 0 0.000130764)
(6.36538e-10 0 2.05009e-09)
(1.47848e-09 0 1.15739e-09)
(1.65572e-09 0 1.16282e-09)
(1.60238e-09 0 1.06742e-09)
(1.52649e-09 0 9.67753e-10)
(1.45051e-09 0 8.59449e-10)
(1.38562e-09 0 7.44392e-10)
(1.33741e-09 0 6.309e-10)
(1.30569e-09 0 5.26544e-10)
(1.28723e-09 0 4.35173e-10)
(1.2786e-09 0 3.57584e-10)
(1.27697e-09 0 2.93795e-10)
(1.27979e-09 0 2.43408e-10)
(1.28474e-09 0 2.05348e-10)
(1.28997e-09 0 1.78197e-10)
(1.29404e-09 0 1.60344e-10)
(1.29599e-09 0 1.50126e-10)
(1.29524e-09 0 1.46002e-10)
(1.29151e-09 0 1.46627e-10)
(1.28471e-09 0 1.50873e-10)
(1.2749e-09 0 1.57806e-10)
(1.26218e-09 0 1.66667e-10)
(1.24672e-09 0 1.76847e-10)
(1.22871e-09 0 1.87862e-10)
(1.20832e-09 0 1.99327e-10)
(1.18575e-09 0 2.10937e-10)
(1.16117e-09 0 2.22446e-10)
(1.13476e-09 0 2.33658e-10)
(1.10668e-09 0 2.44421e-10)
(1.07712e-09 0 2.54619e-10)
(1.04622e-09 0 2.64168e-10)
(1.01416e-09 0 2.73013e-10)
(9.81067e-10 0 2.81124e-10)
(9.47092e-10 0 2.88491e-10)
(9.12361e-10 0 2.95122e-10)
(8.7699e-10 0 3.01037e-10)
(8.41084e-10 0 3.06269e-10)
(8.04738e-10 0 3.10854e-10)
(7.68034e-10 0 3.14837e-10)
(7.31043e-10 0 3.18264e-10)
(6.9383e-10 0 3.21182e-10)
(6.56446e-10 0 3.23639e-10)
(6.18938e-10 0 3.25683e-10)
(5.81344e-10 0 3.27358e-10)
(5.43696e-10 0 3.28707e-10)
(5.0602e-10 0 3.29769e-10)
(4.68338e-10 0 3.30584e-10)
(4.30666e-10 0 3.31184e-10)
(3.93018e-10 0 3.31601e-10)
(3.55402e-10 0 3.31863e-10)
(3.17826e-10 0 3.31996e-10)
(2.80293e-10 0 3.32022e-10)
(2.42807e-10 0 3.31959e-10)
(2.05365e-10 0 3.31825e-10)
(1.67969e-10 0 3.31632e-10)
(1.30612e-10 0 3.31388e-10)
(9.32769e-11 0 3.311e-10)
(5.59545e-11 0 3.30825e-10)
(1.86488e-11 0 3.30813e-10)
(0.000111232 0 0.00589986)
(0.00073435 0 0.00492602)
(0.00269982 0 -0.00212641)
(0.00338678 0 -0.00412225)
(0.00430893 0 -0.0062443)
(0.00615858 0 -0.00644273)
(0.0062202 0 -0.00623559)
(0.00577724 0 -0.00553221)
(0.00613629 0 -0.00282648)
(0.00378994 0 -0.00360814)
(0.00365981 0 8.1652e-05)
(0.00373563 0 0.00101983)
(0.00283527 0 0.00207481)
(0.00248393 0 0.00367983)
(0.00125816 0 0.00429465)
(0.00108824 0 0.00392864)
(0.000867544 0 0.00317734)
(0.00143012 0 0.00224505)
(0.00151675 0 0.00173638)
(0.00117813 0 0.00158742)
(0.000936262 0 0.00139907)
(0.000384362 0 0.000621375)
(-0.000802895 0 -0.000486739)
(-0.000260154 0 -0.000341254)
(0.000132746 0 0.00199226)
(3.94361e-09 0 1.46895e-07)
(9.62878e-10 0 1.72529e-09)
(1.7139e-09 0 1.31526e-09)
(1.52038e-09 0 1.14037e-09)
(1.4287e-09 0 1.04523e-09)
(1.34074e-09 0 9.29201e-10)
(1.2711e-09 0 7.94596e-10)
(1.22813e-09 0 6.60291e-10)
(1.20827e-09 0 5.39873e-10)
(1.20392e-09 0 4.37814e-10)
(1.20947e-09 0 3.52633e-10)
(1.22172e-09 0 2.83831e-10)
(1.23759e-09 0 2.31142e-10)
(1.25422e-09 0 1.92901e-10)
(1.26951e-09 0 1.672e-10)
(1.28191e-09 0 1.51933e-10)
(1.29052e-09 0 1.4493e-10)
(1.29495e-09 0 1.44279e-10)
(1.29516e-09 0 1.48412e-10)
(1.29129e-09 0 1.56072e-10)
(1.28358e-09 0 1.66246e-10)
(1.27231e-09 0 1.78135e-10)
(1.25779e-09 0 1.91116e-10)
(1.2403e-09 0 2.04711e-10)
(1.22012e-09 0 2.18545e-10)
(1.1975e-09 0 2.32322e-10)
(1.17267e-09 0 2.45807e-10)
(1.14584e-09 0 2.58809e-10)
(1.11723e-09 0 2.71181e-10)
(1.08703e-09 0 2.82812e-10)
(1.05545e-09 0 2.93626e-10)
(1.02266e-09 0 3.03577e-10)
(9.88825e-10 0 3.12643e-10)
(9.54113e-10 0 3.20827e-10)
(9.18663e-10 0 3.28148e-10)
(8.82603e-10 0 3.3464e-10)
(8.46046e-10 0 3.40346e-10)
(8.09091e-10 0 3.45316e-10)
(7.71825e-10 0 3.49606e-10)
(7.3432e-10 0 3.53272e-10)
(6.9664e-10 0 3.56372e-10)
(6.58838e-10 0 3.58961e-10)
(6.20957e-10 0 3.61095e-10)
(5.83034e-10 0 3.62826e-10)
(5.45098e-10 0 3.64202e-10)
(5.07172e-10 0 3.65269e-10)
(4.69274e-10 0 3.66069e-10)
(4.31419e-10 0 3.66642e-10)
(3.93616e-10 0 3.67021e-10)
(3.55872e-10 0 3.67238e-10)
(3.1819e-10 0 3.67321e-10)
(2.80571e-10 0 3.67295e-10)
(2.43015e-10 0 3.67181e-10)
(2.05519e-10 0 3.66998e-10)
(1.68079e-10 0 3.66759e-10)
(1.30688e-10 0 3.66478e-10)
(9.3331e-11 0 3.66173e-10)
(5.59874e-11 0 3.6589e-10)
(1.86581e-11 0 3.65826e-10)
(0.000239379 0 0.0049196)
(0.00104626 0 0.00454605)
(0.00315255 0 -0.00231214)
(0.00371451 0 -0.00508816)
(0.00442845 0 -0.00690777)
(0.00486895 0 -0.00710773)
(0.00481843 0 -0.00640625)
(0.00476448 0 -0.00425794)
(0.00313124 0 -0.00343975)
(0.00278818 0 -0.00111001)
(-4.2534e-05 0 0.00110268)
(-0.000448594 0 0.00203169)
(-0.00106276 0 0.00303055)
(-0.00156995 0 0.00397108)
(-0.000693483 0 0.00427497)
(-8.37726e-05 0 0.00364211)
(0.000429451 0 0.00285895)
(0.000526563 0 0.00221175)
(0.000695353 0 0.00191565)
(0.000693755 0 0.00175617)
(0.000650572 0 0.00159968)
(0.000264913 0 0.00105274)
(0.000190936 0 0.000115746)
(-0.000116322 0 -0.000861858)
(0.000516192 0 0.000715339)
(2.25967e-05 0 7.43366e-05)
(5.77602e-10 0 1.76213e-09)
(1.10857e-09 0 1.26362e-09)
(1.34811e-09 0 1.14329e-09)
(1.32759e-09 0 1.14096e-09)
(1.21496e-09 0 1.01511e-09)
(1.13331e-09 0 8.44382e-10)
(1.09871e-09 0 6.77369e-10)
(1.0974e-09 0 5.36999e-10)
(1.11207e-09 0 4.25567e-10)
(1.13464e-09 0 3.33242e-10)
(1.16345e-09 0 2.59671e-10)
(1.19486e-09 0 2.06135e-10)
(1.22503e-09 0 1.69393e-10)
(1.25171e-09 0 1.46995e-10)
(1.27323e-09 0 1.36215e-10)
(1.28881e-09 0 1.34102e-10)
(1.29845e-09 0 1.38291e-10)
(1.30247e-09 0 1.47032e-10)
(1.30132e-09 0 1.58987e-10)
(1.29546e-09 0 1.731e-10)
(1.28538e-09 0 1.8856e-10)
(1.27153e-09 0 2.04764e-10)
(1.25434e-09 0 2.21266e-10)
(1.23414e-09 0 2.37729e-10)
(1.21127e-09 0 2.53885e-10)
(1.18599e-09 0 2.69513e-10)
(1.15856e-09 0 2.84438e-10)
(1.12923e-09 0 2.9852e-10)
(1.09824e-09 0 3.11657e-10)
(1.0658e-09 0 3.23781e-10)
(1.03212e-09 0 3.34859e-10)
(9.97411e-10 0 3.44883e-10)
(9.61833e-10 0 3.5387e-10)
(9.25548e-10 0 3.61857e-10)
(8.88695e-10 0 3.68891e-10)
(8.51395e-10 0 3.75031e-10)
(8.13752e-10 0 3.80343e-10)
(7.75855e-10 0 3.84893e-10)
(7.37777e-10 0 3.88752e-10)
(6.99582e-10 0 3.91986e-10)
(6.6132e-10 0 3.94663e-10)
(6.23032e-10 0 3.96844e-10)
(5.84751e-10 0 3.9859e-10)
(5.46504e-10 0 3.99956e-10)
(5.0831e-10 0 4.00992e-10)
(4.70184e-10 0 4.01747e-10)
(4.32135e-10 0 4.02262e-10)
(3.94171e-10 0 4.02577e-10)
(3.56294e-10 0 4.02726e-10)
(3.18505e-10 0 4.0274e-10)
(2.80801e-10 0 4.02645e-10)
(2.43178e-10 0 4.02465e-10)
(2.05631e-10 0 4.0222e-10)
(1.68153e-10 0 4.01926e-10)
(1.30733e-10 0 4.01599e-10)
(9.33569e-11 0 4.01266e-10)
(5.60059e-11 0 4.00976e-10)
(1.8667e-11 0 4.00861e-10)
(0.000459795 0 0.00399332)
(0.00176151 0 0.00288228)
(0.00341964 0 -0.00239059)
(0.00381316 0 -0.00604954)
(0.00422387 0 -0.00732086)
(0.00383367 0 -0.0070341)
(0.00307572 0 -0.00580194)
(0.00246186 0 -0.00373793)
(0.00197641 0 -0.00132703)
(-0.000284145 0 0.000115961)
(-0.00130006 0 0.00149511)
(-0.00171694 0 0.00230626)
(-0.00196475 0 0.00305922)
(-0.00258076 0 0.0035248)
(-0.00131397 0 0.0036787)
(-0.00102775 0 0.00282768)
(-0.000317962 0 0.00238467)
(0.00018991 0 0.00198902)
(0.000237615 0 0.00181859)
(0.000240651 0 0.00174341)
(0.000420257 0 0.00166928)
(0.000175847 0 0.00147213)
(0.000517699 0 0.000584058)
(0.000244272 0 -0.000270616)
(-4.5078e-05 0 -0.000291411)
(0.000375049 0 0.000569729)
(8.56965e-07 0 2.13121e-05)
(6.7211e-10 0 1.50248e-09)
(1.40378e-09 0 1.04327e-09)
(1.30727e-09 0 1.3451e-09)
(1.06202e-09 0 1.14025e-09)
(9.54359e-10 0 8.90686e-10)
(9.40265e-10 0 6.70914e-10)
(9.72717e-10 0 5.08652e-10)
(1.01347e-09 0 3.96501e-10)
(1.05451e-09 0 2.97336e-10)
(1.10307e-09 0 2.1789e-10)
(1.15336e-09 0 1.6635e-10)
(1.19906e-09 0 1.33252e-10)
(1.23856e-09 0 1.16552e-10)
(1.26986e-09 0 1.12836e-10)
(1.29241e-09 0 1.17685e-10)
(1.30695e-09 0 1.28238e-10)
(1.31441e-09 0 1.42755e-10)
(1.31556e-09 0 1.59925e-10)
(1.31113e-09 0 1.78685e-10)
(1.30183e-09 0 1.98242e-10)
(1.2883e-09 0 2.18058e-10)
(1.27108e-09 0 2.37766e-10)
(1.2506e-09 0 2.57095e-10)
(1.22722e-09 0 2.75822e-10)
(1.20126e-09 0 2.93754e-10)
(1.17302e-09 0 3.10728e-10)