0.010101 	-7.20423e-09 	-1.51071e-13 	-2.1242e-11
0.020202 	-8.5768e-10 	1.93557e-13 	-1.2382e-11
