/*--------------------------------*- C++ -*----------------------------------*\
  =========                 |
  \\      /  F ield         | OpenFOAM: The Open Source CFD Toolbox
   \\    /   O peration     | Website:  https://openfoam.org
    \\  /    A nd           | Version:  6
     \\/     M anipulation  |
\*---------------------------------------------------------------------------*/
FoamFile
{
    version     2.0;
    format      ascii;
    class       volScalarField;
    location    "150";
    object      dmdt;
}
// * * * * * * * * * * * * * * * * * * * * * * * * * * * * * * * * * * * * * //

dimensions      [0 0 0 0 0 0 0];

internalField   nonuniform List<scalar> 
5964
(
-0.356439
-0.304322
-0.257996
-0.218525
-0.184042
-0.152576
-0.122877
-0.0938134
-0.0640201
-0.0286258
-0.0208325
-0.0304056
-0.0369564
-0.0420592
-0.0457024
-0.0479843
-0.0490724
-0.0491715
-0.0484976
-0.0472576
-0.0456345
-0.0437793
-0.0418075
-0.0398011
-0.0378127
-0.035872
-0.0339914
-0.0321726
-0.0304102
-0.028696
-0.0270206
-0.0253754
-0.0237528
-0.022147
-0.0205538
-0.0189703
-0.0173949
-0.0158271
-0.014267
-0.0127155
-0.0111736
-0.00964289
-0.0081251
-0.00662199
-0.00513541
-0.00366721
-0.00221923
-0.000793225
0.000609091
0.00198608
0.00333621
0.00465804
0.00595019
0.00721142
0.00844054
0.00963644
0.0107981
0.0119247
0.0130152
0.0140688
0.015085
0.0160628
0.0170019
0.0179015
0.0187611
0.0195803
0.0203586
0.0210957
0.0217911
0.0224445
0.0230556
0.0236241
0.0241498
0.0246324
0.0250718
0.0254677
0.02582
0.0261286
0.0263932
0.0266139
0.0267905
0.026923
0.0270113
0.0270555
-0.356401
-0.305337
-0.260459
-0.221671
-0.187326
-0.155742
-0.125635
-0.0957935
-0.0652242
-0.0291794
-0.0212653
-0.0310043
-0.0375351
-0.042548
-0.0460817
-0.0482615
-0.0492657
-0.0493012
-0.0485819
-0.0473112
-0.0456686
-0.0438018
-0.0418238
-0.0398144
-0.0378249
-0.0358839
-0.0340035
-0.0321848
-0.0304224
-0.0287079
-0.0270321
-0.0253862
-0.0237629
-0.0221564
-0.0205624
-0.0189781
-0.017402
-0.0158334
-0.0142727
-0.0127205
-0.011178
-0.0096468
-0.00812854
-0.006625
-0.00513804
-0.0036695
-0.00222121
-0.000794942
0.000607616
0.00198482
0.00333514
0.00465714
0.00594944
0.0072108
0.00844004
0.00963605
0.0107978
0.0119244
0.013015
0.0140688
0.015085
0.0160629
0.017002
0.0179016
0.0187613
0.0195805
0.0203589
0.021096
0.0217914
0.0224448
0.023056
0.0236245
0.0241502
0.0246329
0.0250723
0.0254682
0.0258205
0.0261291
0.0263937
0.0266144
0.0267911
0.0269235
0.0270118
0.0270559
-0.357556
-0.30846
-0.264941
-0.226819
-0.192517
-0.160658
-0.129821
-0.0989625
-0.0673991
-0.0302461
-0.0222225
-0.0323153
-0.0387522
-0.0435418
-0.0468339
-0.0488015
-0.0496375
-0.0495482
-0.0487412
-0.0474122
-0.045733
-0.0438449
-0.0418554
-0.0398408
-0.0378495
-0.0359083
-0.0340281
-0.0322096
-0.030447
-0.028732
-0.0270552
-0.0254081
-0.0237834
-0.0221753
-0.0205796
-0.0189938
-0.0174161
-0.0158461
-0.014284
-0.0127306
-0.011187
-0.00965476
-0.00813557
-0.0066312
-0.0051435
-0.0036743
-0.00222542
-0.000798626
0.000604397
0.00198202
0.0033327
0.00465502
0.00594762
0.00720923
0.00843869
0.00963491
0.0107969
0.0119236
0.0130144
0.0140683
0.0150845
0.0160626
0.0170018
0.0179015
0.0187613
0.0195806
0.020359
0.0210961
0.0217916
0.0224451
0.0230563
0.0236249
0.0241506
0.0246333
0.0250727
0.0254687
0.025821
0.0261296
0.0263943
0.026615
0.0267916
0.0269241
0.0270124
0.0270565
-0.358895
-0.311999
-0.269867
-0.232363
-0.198145
-0.16596
-0.134516
-0.102895
-0.0704328
-0.0319347
-0.0240351
-0.0346314
-0.0407351
-0.0450742
-0.0479537
-0.0495876
-0.0501706
-0.0498985
-0.0489654
-0.0475536
-0.0458232
-0.0439055
-0.0419008
-0.0398793
-0.0378858
-0.0359445
-0.0340649
-0.0322466
-0.0304839
-0.0287679
-0.0270897
-0.0254407
-0.0238137
-0.0222033
-0.0206053
-0.0190171
-0.0174371
-0.015865
-0.0143009
-0.0127456
-0.0112004
-0.00966664
-0.00814608
-0.0066405
-0.0051517
-0.00368152
-0.00223178
-0.000804209
0.000599499
0.00197773
0.00332895
0.00465175
0.00594477
0.00720676
0.00843655
0.00963307
0.0107953
0.0119223
0.0130132
0.0140673
0.0150838
0.016062
0.0170013
0.0179012
0.018761
0.0195805
0.020359
0.0210962
0.0217918
0.0224453
0.0230566
0.0236252
0.024151
0.0246338
0.0250733
0.0254693
0.0258216
0.0261302
0.026395
0.0266157
0.0267923
0.0269248
0.0270131
0.0270572
-0.360114
-0.315187
-0.27417
-0.237221
-0.203103
-0.170664
-0.138914
-0.106925
-0.0740042
-0.0344735
-0.0277164
-0.0384639
-0.0436042
-0.0471357
-0.0494009
-0.0505796
-0.0508329
-0.050329
-0.0492388
-0.0477253
-0.0459327
-0.0439799
-0.0419573
-0.0399283
-0.0379328
-0.0359918
-0.0341132
-0.0322954
-0.0305323
-0.0288152
-0.027135
-0.0254835
-0.0238536
-0.0222401
-0.020639
-0.0190476
-0.0174647
-0.0158898
-0.0143231
-0.0127654
-0.011218
-0.00968229
-0.00815995
-0.00665277
-0.00516254
-0.00369109
-0.00224021
-0.000811628
0.000592976
0.001972
0.00332393
0.00464735
0.00594092
0.00720341
0.00843364
0.00963054
0.0107931
0.0119204
0.0130117
0.014066
0.0150827
0.0160611
0.0170006
0.0179006
0.0187606
0.0195802
0.0203589
0.0210962
0.0217919
0.0224455
0.0230569
0.0236256
0.0241515
0.0246343
0.0250738
0.0254699
0.0258223
0.026131
0.0263957
0.0266165
0.0267931
0.0269257
0.027014
0.027058
-0.360987
-0.317426
-0.277096
-0.240295
-0.206122
-0.173783
-0.142279
-0.11051
-0.0778023
-0.0381374
-0.0415062
-0.0442281
-0.0472409
-0.0495871
-0.0510726
-0.0517068
-0.051577
-0.0508081
-0.0495408
-0.0479142
-0.0460537
-0.0440632
-0.0420222
-0.0399862
-0.0379894
-0.0360496
-0.0341723
-0.0323553
-0.0305918
-0.0288732
-0.0271906
-0.0255359
-0.0239025
-0.0222852
-0.0206802
-0.0190851
-0.0174986
-0.0159202
-0.0143503
-0.0127897
-0.0112396
-0.00970152
-0.00817701
-0.00666787
-0.00517589
-0.00370289
-0.00225062
-0.000820805
0.000584895
0.00196489
0.00331768
0.00464187
0.00593612
0.00719921
0.00842998
0.00962736
0.0107904
0.0119181
0.0130096
0.0140643
0.0150812
0.0160599
0.0169996
0.0178999
0.0187601
0.0195798
0.0203586
0.0210961
0.0217919
0.0224457
0.0230572
0.023626
0.024152
0.0246349
0.0250745
0.0254706
0.0258231
0.0261318
0.0263966
0.0266174
0.0267941
0.0269266
0.0270149
0.027059
-0.361511
-0.318769
-0.278782
-0.24194
-0.207812
-0.175701
-0.144672
-0.113545
-0.0813577
-0.0413319
-0.0478279
-0.049228
-0.0508382
-0.052109
-0.0528083
-0.0528759
-0.0523449
-0.0512996
-0.0498489
-0.0481065
-0.0461777
-0.0441506
-0.0420929
-0.0400513
-0.0380547
-0.0361169
-0.0342417
-0.0324256
-0.0306617
-0.0289412
-0.0272557
-0.0255974
-0.0239598
-0.022338
-0.0207285
-0.0191289
-0.0175382
-0.0159558
-0.0143822
-0.0128182
-0.011265
-0.00972408
-0.00819704
-0.00668562
-0.00519161
-0.00371679
-0.0022629
-0.000831642
0.000575339
0.00195647
0.00331028
0.00463536
0.00593041
0.0071942
0.00842561
0.00962355
0.0107871
0.0119152
0.0130072
0.0140622
0.0150795
0.0160584
0.0169984
0.0178989
0.0187594
0.0195793
0.0203583
0.021096
0.021792
0.0224459
0.0230575
0.0236264
0.0241525
0.0246355
0.0250752
0.0254714
0.025824
0.0261328
0.0263976
0.0266185
0.0267952
0.0269277
0.0270161
0.0270601
-0.3618
-0.319373
-0.279362
-0.242369
-0.20843
-0.176824
-0.146448
-0.116147
-0.0848522
-0.0445101
-0.0527976
-0.0535472
-0.0541408
-0.0544938
-0.0544693
-0.0539974
-0.0530796
-0.0517674
-0.0501408
-0.048289
-0.0462972
-0.0442379
-0.0421668
-0.0401223
-0.0381276
-0.0361931
-0.0343205
-0.0325056
-0.0307411
-0.0290186
-0.0273297
-0.0256671
-0.0240247
-0.0223978
-0.0207831
-0.0191786
-0.017583
-0.0159962
-0.0144184
-0.0128505
-0.0112938
-0.00974972
-0.00821981
-0.00670583
-0.00520952
-0.00373264
-0.00227691
-0.000844026
0.000564406
0.00194683
0.00330178
0.00462788
0.00592384
0.00718844
0.00842056
0.00961914
0.0107832
0.0119119
0.0130043
0.0140597
0.0150774
0.0160567
0.016997
0.0178978
0.0187585
0.0195787
0.0203579
0.0210958
0.0217919
0.022446
0.0230578
0.0236269
0.0241531
0.0246363
0.0250761
0.0254724
0.025825
0.0261339
0.0263988
0.0266197
0.0267964
0.026929
0.0270174
0.0270614
-0.361788
-0.319384
-0.279331
-0.242364
-0.20876
-0.17762
-0.147848
-0.118565
-0.0889257
-0.0491431
-0.057945
-0.0575374
-0.0571057
-0.0566267
-0.0559553
-0.0549992
-0.0537329
-0.052181
-0.050398
-0.0484509
-0.0464062
-0.0443218
-0.0422423
-0.0401984
-0.0382077
-0.0362776
-0.0344082
-0.0325946
-0.0308293
-0.0291043
-0.0274116
-0.0257441
-0.0240963
-0.0224638
-0.0208435
-0.0192334
-0.0176325
-0.0160407
-0.0144583
-0.0128863
-0.0113257
-0.00977812
-0.00824507
-0.00672826
-0.00522941
-0.00375026
-0.00229252
-0.000857833
0.000552203
0.00193605
0.00329227
0.0046195
0.00591646
0.00718196
0.00841488
0.00961418
0.0107789
0.0119081
0.0130011
0.014057
0.0150751
0.0160548
0.0169954
0.0178965
0.0187575
0.019578
0.0203575
0.0210956
0.0217919
0.0224462
0.0230581
0.0236274
0.0241538
0.0246371
0.025077
0.0254734
0.0258262
0.0261351
0.0264001
0.026621
0.0267978
0.0269305
0.0270188
0.0270629
-0.361819
-0.319362
-0.279266
-0.24247
-0.208917
-0.177868
-0.148644
-0.120576
-0.0936352
-0.0705529
-0.0637553
-0.0611203
-0.0596152
-0.0584078
-0.0571903
-0.0558274
-0.0542692
-0.052518
-0.0506072
-0.0485848
-0.046501
-0.0444008
-0.042319
-0.0402791
-0.0382946
-0.0363701
-0.0345043
-0.0326919
-0.0309256
-0.0291976
-0.0275005
-0.0258277
-0.024174
-0.0225353
-0.0209087
-0.0192927
-0.0176861
-0.0160889
-0.0145016
-0.012925
-0.0113603
-0.00980896
-0.00827252
-0.00675266
-0.00525108
-0.00376949
-0.00230956
-0.000872925
0.000538848
0.00192425
0.00328184
0.0046103
0.00590836
0.00717483
0.00840862
0.0096087
0.0107741
0.011904
0.0129975
0.0140539
0.0150725
0.0160526
0.0169936
0.0178951
0.0187564
0.0195772
0.0203569
0.0210953
0.0217919
0.0224464
0.0230585
0.023628
0.0241546
0.024638
0.025078
0.0254746
0.0258274
0.0261365
0.0264015
0.0266225
0.0267994
0.0269321
0.0270205
0.0270646
-0.361872
-0.319546
-0.279574
-0.242685
-0.209031
-0.178219
-0.149388
-0.121715
-0.0946923
-0.0358778
-0.0655971
-0.0633231
-0.0614226
-0.0597428
-0.0581213
-0.0564478
-0.0546666
-0.0527655
-0.0507617
-0.0486878
-0.0465809
-0.0444751
-0.0423971
-0.0403651
-0.0383886
-0.0364704
-0.0346083
-0.0327968
-0.031029
-0.0292975
-0.0275954
-0.0259168
-0.0242566
-0.0226113
-0.0209782
-0.0193557
-0.0177431
-0.0161403
-0.0145477
-0.0129663
-0.0113972
-0.00984189
-0.00830187
-0.00677878
-0.00527431
-0.00379012
-0.00232787
-0.000889159
0.000524466
0.00191151
0.00327059
0.00460036
0.00589959
0.00716711
0.00840184
0.00960276
0.0107689
0.0118995
0.0129936
0.0140506
0.0150697
0.0160502
0.0169917
0.0178935
0.0187552
0.0195763
0.0203564
0.021095
0.0217919
0.0224466
0.023059
0.0236287
0.0241554
0.024639
0.0250792
0.0254759
0.0258289
0.026138
0.0264032
0.0266243
0.0268012
0.0269339
0.0270223
0.0270664
-0.361879
-0.319666
-0.279944
-0.243183
-0.209644
-0.17901
-0.150322
-0.122847
-0.0958989
-0.0361472
-0.0670834
-0.0648557
-0.0626549
-0.0606382
-0.0587342
-0.0568479
-0.0549179
-0.0529207
-0.0508615
-0.0487615
-0.0466478
-0.0445465
-0.0424784
-0.0404572
-0.0384901
-0.0365785
-0.0347198
-0.0329087
-0.0311388
-0.0294031
-0.0276955
-0.0260104
-0.0243433
-0.0226909
-0.0210509
-0.0194217
-0.0178028
-0.0161941
-0.0145961
-0.0130097
-0.011436
-0.00987657
-0.00833281
-0.00680636
-0.00529886
-0.00381195
-0.00234727
-0.000906383
0.000509186
0.00189797
0.0032586
0.00458976
0.00589023
0.00715886
0.00839458
0.0095964
0.0107634
0.0118947
0.0129895
0.014047
0.0150666
0.0160477
0.0169896
0.0178919
0.018754
0.0195754
0.0203558
0.0210948
0.0217919
0.0224469
0.0230595
0.0236294
0.0241564
0.0246402
0.0250805
0.0254774
0.0258305
0.0261398
0.026405
0.0266262
0.0268032
0.026936
0.0270244
0.0270685
-0.362162
-0.320374
-0.280846
-0.244287
-0.210912
-0.180189
-0.15139
-0.124145
-0.0979329
-0.039089
-0.0691042
-0.0660701
-0.0634016
-0.0611092
-0.0590308
-0.0570305
-0.0550281
-0.0529899
-0.0509129
-0.0488115
-0.0467064
-0.0446187
-0.0425651
-0.0405569
-0.0385997
-0.0366944
-0.0348385
-0.0330269
-0.031254
-0.0295135
-0.0277997
-0.0261076
-0.0244332
-0.0227734
-0.0211261
-0.01949
-0.0178646
-0.0162498
-0.0146462
-0.0130546
-0.0114763
-0.00991263
-0.00836503
-0.00683511
-0.00532449
-0.00383479
-0.00236759
-0.000924447
0.000493141
0.00188373
0.00324598
0.00457858
0.00588035
0.00715015
0.00838692
0.00958968
0.0107575
0.0118896
0.012985
0.0140432
0.0150634
0.0160451
0.0169875
0.0178902
0.0187527
0.0195745
0.0203553
0.0210946
0.021792
0.0224473
0.0230602
0.0236303
0.0241575
0.0246415
0.0250821
0.0254791
0.0258323
0.0261417
0.0264071
0.0266284
0.0268054
0.0269382
0.0270268
0.0270709
-0.362264
-0.320715
-0.281448
-0.245025
-0.211447
-0.180403
-0.151466
-0.124561
-0.100186
-0.0805935
-0.0715756
-0.0667113
-0.0635441
-0.0611217
-0.0590131
-0.0570098
-0.0550139
-0.0529881
-0.0509283
-0.0488471
-0.0467635
-0.0446962
-0.0426602
-0.0406659
-0.0387182
-0.0368182
-0.0349638
-0.0331507
-0.0313737
-0.0296275
-0.0279068
-0.0262073
-0.0245252
-0.0228577
-0.021203
-0.0195599
-0.0179278
-0.0163068
-0.0146975
-0.0131008
-0.0115177
-0.00994973
-0.00839823
-0.00686478
-0.00535098
-0.00385842
-0.00238865
-0.000943198
0.000476461
0.00186891
0.00323282
0.00456692
0.00587003
0.00714104
0.0083789
0.00958264
0.0107514
0.0118842
0.0129804
0.0140393
0.0150601
0.0160423
0.0169852
0.0178884
0.0187514
0.0195736
0.0203548
0.0210944
0.0217922
0.0224478
0.023061
0.0236314
0.0241588
0.024643
0.0250838
0.025481
0.0258344
0.0261439
0.0264094
0.0266308
0.0268079
0.0269408
0.0270294
0.0270735
-0.362418
-0.321106
-0.281885
-0.245258
-0.211156
-0.179414
-0.149902
-0.122704
-0.0983069
-0.0791543
-0.0702138
-0.0656406
-0.0627969
-0.0606308
-0.0587014
-0.0568186
-0.0549051
-0.0529388
-0.0509249
-0.0488807
-0.0468274
-0.0447844
-0.042767
-0.0407857
-0.0388461
-0.0369498
-0.0350952
-0.0332791
-0.0314969
-0.0297441
-0.0280159
-0.0263084
-0.0246183
-0.022943
-0.0212807
-0.0196305
-0.0179917
-0.0163646
-0.0147496
-0.0131476
-0.0115598
-0.00998752
-0.00843209
-0.00689511
-0.00537811
-0.00388265
-0.00241028
-0.000962489
0.000459276
0.00185362
0.00321923
0.00455486
0.00585935
0.0071316
0.00837058
0.00957534
0.010745
0.0118787
0.0129757
0.0140352
0.0150567
0.0160394
0.0169829
0.0178866
0.0187501
0.0195728
0.0203543
0.0210943
0.0217925
0.0224484
0.0230619
0.0236326
0.0241603
0.0246447
0.0250857
0.0254831
0.0258367
0.0261464
0.026412
0.0266335
0.0268108
0.0269437
0.0270323
0.0270765
-0.362723
-0.321685
-0.282303
-0.245308
-0.21065
-0.178229
-0.147831
-0.119278
-0.0923686
-0.0527766
-0.0648303
-0.0628439
-0.0612417
-0.0597341
-0.0581791
-0.0565203
-0.0547474
-0.0528738
-0.0509241
-0.0489263
-0.0469069
-0.0448885
-0.0428882
-0.0409177
-0.0389836
-0.0370885
-0.0352318
-0.033411
-0.0316224
-0.0298621
-0.0281258
-0.02641
-0.0247116
-0.0230284
-0.0213585
-0.0197011
-0.0180557
-0.0164225
-0.0148019
-0.0131948
-0.0116023
-0.0100257
-0.00846635
-0.00692584
-0.00540564
-0.0039073
-0.00243232
-0.000982177
0.00044171
0.00183797
0.0032053
0.00454249
0.00584838
0.00712189
0.00836202
0.00956782
0.0107384
0.011873
0.0129708
0.014031
0.0150532
0.0160366
0.0169806
0.0178849
0.0187488
0.0195719
0.0203539
0.0210944
0.0217929
0.0224492
0.023063
0.023634
0.0241619
0.0246467
0.0250879
0.0254855
0.0258393
0.0261492
0.0264149
0.0266365
0.0268139
0.0269469
0.0270355
0.0270798
-0.362552
-0.321448
-0.282179
-0.244959
-0.209761
-0.176676
-0.145418
-0.115491
-0.0859369
-0.0437059
-0.0585315
-0.0594952
-0.0593968
-0.0586971
-0.0575983
-0.056208
-0.0545994
-0.0528301
-0.0509492
-0.0489979
-0.0470102
-0.0450129
-0.0430258
-0.0410623
-0.0391303
-0.0372334
-0.0353723
-0.0335451
-0.0317489
-0.0299802
-0.0282353
-0.0265109
-0.0248042
-0.0231129
-0.0214356
-0.0197712
-0.0181193
-0.0164801
-0.0148539
-0.0132418
-0.0116447
-0.0100639
-0.00850074
-0.00695674
-0.00543339
-0.00393218
-0.00245461
-0.00100213
0.000423881
0.00182205
0.00319112
0.00452987
0.00583718
0.00711199
0.00835328
0.00956015
0.0107317
0.0118672
0.0129658
0.0140268
0.0150496
0.0160337
0.0169783
0.0178831
0.0187476
0.0195712
0.0203537
0.0210945
0.0217935
0.0224501
0.0230643
0.0236356
0.0241639
0.0246489
0.0250904
0.0254882
0.0258422
0.0261523
0.0264182
0.0266399
0.0268174
0.0269505
0.0270392
0.0270834
-0.362507
-0.321306
-0.281843
-0.244243
-0.208552
-0.174965
-0.143209
-0.11253
-0.0813527
-0.0377305
-0.0537719
-0.0568271
-0.057863
-0.0578328
-0.0571341
-0.0559844
-0.0545224
-0.0528446
-0.0510218
-0.0491077
-0.0471436
-0.0451604
-0.0431804
-0.0412187
-0.0392847
-0.037383
-0.0355151
-0.0336798
-0.0318748
-0.030097
-0.0283431
-0.02661
-0.0248949
-0.0231958
-0.0215111
-0.0198399
-0.0181818
-0.0165368
-0.0149054
-0.0132883
-0.0116868
-0.0101019
-0.008535
-0.00698761
-0.00546116
-0.00395715
-0.00247702
-0.00102221
0.000405898
0.00180598
0.00317678
0.0045171
0.00582584
0.00710194
0.00834442
0.00955236
0.0107249
0.0118613
0.0129607
0.0140225
0.0150461
0.0160308
0.0169761
0.0178815
0.0187465
0.0195706
0.0203535
0.0210949
0.0217942
0.0224513
0.0230658
0.0236375
0.0241661
0.0246514
0.0250932
0.0254913
0.0258455
0.0261557
0.0264218
0.0266437
0.0268213
0.0269544
0.0270432
0.0270875
-0.362566
-0.321289
-0.281409
-0.243307
-0.207301
-0.173597
-0.141727
-0.11091
-0.0804416
-0.0516798
-0.0533205
-0.0556369
-0.0570301
-0.0573751
-0.0569303
-0.0559365
-0.0545683
-0.0529468
-0.0511579
-0.0492638
-0.0473103
-0.0453312
-0.0433507
-0.0413851
-0.0394447
-0.037535
-0.035658
-0.0338131
-0.0319984
-0.0302111
-0.028448
-0.0267062
-0.024983
-0.0232763
-0.0215846
-0.0199069
-0.0182427
-0.0165922
-0.0149557
-0.0133341
-0.0117282
-0.0101394
-0.00856893
-0.00701825
-0.0054888
-0.00398204
-0.00249941
-0.00104232
0.000387861
0.00178983
0.00316234
0.00450423
0.0058144
0.0070918
0.00833547
0.00954451
0.0107181
0.0118554
0.0129556
0.0140183
0.0150426
0.016028
0.0169739
0.0178799
0.0187455
0.0195702
0.0203536
0.0210954
0.0217952
0.0224527
0.0230677
0.0236397
0.0241687
0.0246543
0.0250963
0.0254947
0.0258491
0.0261596
0.0264259
0.0266479
0.0268256
0.0269589
0.0270477
0.027092
-0.362465
-0.320801
-0.280372
-0.241919
-0.205904
-0.17257
-0.141041
-0.110037
-0.0779161
-0.0371055
-0.0508494
-0.0549086
-0.0568564
-0.0574221
-0.0570725
-0.05612
-0.0547689
-0.0531535
-0.051365
-0.0494678
-0.047509
-0.0455227
-0.0435334
-0.041558
-0.0396071
-0.0376865
-0.0357985
-0.0339429
-0.032118
-0.0303209
-0.0285487
-0.0267985
-0.0250674
-0.0233536
-0.0216552
-0.0199715
-0.0183017
-0.016646
-0.0150048
-0.0133787
-0.0117688
-0.0101762
-0.00860234
-0.0070485
-0.00551615
-0.00400673
-0.00252167
-0.00106236
0.000369857
0.00177368
0.0031479
0.00449134
0.00580292
0.00708163
0.00832649
0.00953663
0.0107112
0.0118494
0.0129506
0.014014
0.0150391
0.0160252
0.0169718
0.0178784
0.0187446
0.0195699
0.0203539
0.0210962
0.0217965
0.0224544
0.0230698
0.0236422
0.0241715
0.0246575
0.0250999
0.0254985
0.0258532
0.0261639
0.0264304
0.0266526
0.0268304
0.0269638
0.0270527
0.027097
-0.362108
-0.31978
-0.27894
-0.240397
-0.204831
-0.172275
-0.141748
-0.111427
-0.0791876
-0.0387318
-0.0511756
-0.0555894
-0.0575936
-0.0580709
-0.0576058
-0.0565552
-0.0551315
-0.0534646
-0.0516391
-0.0497143
-0.0477335
-0.0457286
-0.0437228
-0.0417324
-0.0397674
-0.0378338
-0.0359336
-0.0340668
-0.0322315
-0.0304249
-0.028644
-0.0268858
-0.0251475
-0.023427
-0.0217226
-0.0200332
-0.0183583
-0.0166978
-0.0150522
-0.013422
-0.0118083
-0.0102122
-0.00863509
-0.00707824
-0.00554311
-0.00403113
-0.00254372
-0.00108224
0.000351961
0.00175761
0.00313349
0.00447847
0.00579146
0.00707146
0.00831753
0.00952877
0.0107044
0.0118436
0.0129456
0.0140099
0.0150357
0.0160226
0.0169699
0.0178772
0.0187439
0.0195698
0.0203544
0.0210972
0.021798
0.0224564
0.0230722
0.0236451
0.0241748
0.0246611
0.0251039
0.0255028
0.0258578
0.0261687
0.0264354
0.0266578
0.0268357
0.0269692
0.0270582
0.0271025
-0.361701
-0.318772
-0.277783
-0.239624
-0.205035
-0.173685
-0.144088
-0.114303
-0.0822147
-0.0473673
-0.0538852
-0.057809
-0.0593176
-0.0593313
-0.0585131
-0.0572194
-0.0556348
-0.0538618
-0.0519649
-0.0499902
-0.0479729
-0.0459398
-0.0439114
-0.041902
-0.0399208
-0.0379729
-0.0360602
-0.0341822
-0.0323369
-0.0305215
-0.0287326
-0.0269673
-0.0252225
-0.0234961
-0.0217862
-0.0200918
-0.0184123
-0.0167475
-0.0150978
-0.0134638
-0.0118466
-0.0102473
-0.00866705
-0.00710735
-0.00556958
-0.00405515
-0.00256547
-0.0011019
0.000334234
0.00174166
0.00311919
0.00446567
0.00578006
0.00706135
0.00830861
0.00952096
0.0106976
0.0118377
0.0129407
0.0140058
0.0150325
0.0160201
0.0169681
0.0178761
0.0187435
0.01957
0.0203551
0.0210985
0.0217998
0.0224588
0.0230751
0.0236484
0.0241785
0.0246652
0.0251083
0.0255076
0.0258629
0.026174
0.026441
0.0266635
0.0268416
0.0269752
0.0270643
0.0271087
-0.361442
-0.318139
-0.277173
-0.239686
-0.206481
-0.176636
-0.148411
-0.119576
-0.0860233
-0.026159
-0.0567312
-0.0614269
-0.0619549
-0.0610994
-0.059701
-0.0580423
-0.0562289
-0.0543097
-0.0523166
-0.0502763
-0.0482123
-0.0461448
-0.04409
-0.0420597
-0.0400615
-0.0380994
-0.0361748
-0.0342865
-0.0324324
-0.0306092
-0.0288135
-0.027042
-0.0252918
-0.0235603
-0.0218458
-0.020147
-0.0184634
-0.0167948
-0.0151415
-0.0135041
-0.0118836
-0.0102812
-0.00869816
-0.00713578
-0.0055955
-0.00407873
-0.00258687
-0.00112128
0.000316725
0.00172589
0.00310502
0.00445299
0.00576876
0.00705133
0.00829977
0.00951324
0.0106909
0.011832
0.0129359
0.0140019
0.0150293
0.0160177
0.0169665
0.0178752
0.0187433
0.0195704
0.0203562
0.0211002
0.0218021
0.0224615
0.0230783
0.0236521
0.0241827
0.0246698
0.0251133
0.0255129
0.0258685
0.02618
0.0264471
0.0266699
0.0268482
0.0269819
0.027071
0.0271155
-0.361257
-0.317914
-0.277532
-0.24129
-0.20985
-0.181689
-0.155195
-0.128699
-0.101209
-0.0758625
-0.0707991
-0.0678532
-0.065397
-0.0631341
-0.0609919
-0.0589097
-0.056841
-0.0547605
-0.0526614
-0.0505489
-0.0484344
-0.0463305
-0.0442487
-0.0421979
-0.0401837
-0.038209
-0.0362741
-0.0343774
-0.0325162
-0.0306869
-0.0288858
-0.0271095
-0.0253549
-0.0236194
-0.0219011
-0.0201987
-0.0185116
-0.0168397
-0.0151831
-0.0135427
-0.0119193
-0.0103141
-0.00872839
-0.00716349
-0.00562083
-0.00410183
-0.00260789
-0.00114036
0.000299465
0.00171032
0.00309102
0.00444045
0.00575758
0.00704142
0.00829105
0.00950562
0.0106843
0.0118264
0.0129312
0.0139981
0.0150264
0.0160156
0.0169651
0.0178745
0.0187434
0.0195712
0.0203576
0.0211022
0.0218047
0.0224647
0.023082
0.0236563
0.0241874
0.024675
0.0251188
0.0255188
0.0258748
0.0261865
0.026454
0.0266769
0.0268554
0.0269893
0.0270785
0.027123
-0.361355
-0.318494
-0.279209
-0.244556
-0.214938
-0.188311
-0.163147
-0.138274
-0.114044
-0.0933466
-0.0809914
-0.0732168
-0.0683548
-0.0648994
-0.0621271
-0.059683
-0.0573902
-0.0551633
-0.052965
-0.050784
-0.0486214
-0.0464836
-0.0443775
-0.0423091
-0.040282
-0.0382976
-0.0363553
-0.0344528
-0.0325867
-0.0307534
-0.0289488
-0.0271693
-0.0254116
-0.0236732
-0.021952
-0.0202468
-0.0185569
-0.0168821
-0.0152228
-0.0135797
-0.0119537
-0.0103459
-0.00875772
-0.00719047
-0.00564557
-0.00412446
-0.00262852
-0.00115911
0.000282473
0.00169497
0.00307721
0.00442808
0.00574655
0.00703165
0.00828246
0.00949814
0.0106779
0.011821
0.0129268
0.0139945
0.0150237
0.0160137
0.016964
0.0178742
0.0187437
0.0195723
0.0203593
0.0211046
0.0218077
0.0224683
0.0230862
0.0236611
0.0241926
0.0246807
0.025125
0.0255254
0.0258817
0.0261938
0.0264615
0.0266847
0.0268634
0.0269974
0.0270867
0.0271312
-0.361813
-0.320094
-0.282356
-0.24953
-0.221461
-0.195757
-0.171068
-0.146457
-0.122437
-0.100984
-0.0853764
-0.0756735
-0.0698934
-0.065961
-0.0628974
-0.0602516
-0.0578112
-0.0554752
-0.0531975
-0.0509597
-0.0487574
-0.0465922
-0.0444676
-0.0423868
-0.0403516
-0.0383619
-0.0364159
-0.0345109
-0.0326431
-0.0308082
-0.0290022
-0.0272212
-0.0254619
-0.0237217
-0.0219987
-0.0202914
-0.0185993
-0.0169223
-0.0152607
-0.0136152
-0.0119868
-0.0103767
-0.00878622
-0.00721676
-0.00566975
-0.00414661
-0.00264875
-0.00117753
0.000265755
0.00167985
0.0030636
0.00441588
0.00573568
0.00702203
0.00827402
0.00949082
0.0106716
0.0118157
0.0129225
0.0139911
0.0150212
0.016012
0.0169632
0.0178741
0.0187445
0.0195737
0.0203615
0.0211074
0.0218112
0.0224725
0.023091
0.0236664
0.0241985
0.0246871
0.0251318
0.0255327
0.0258894
0.0262018
0.0264698
0.0266933
0.0268721
0.0270063
0.0270957
0.0271403
-0.362643
-0.322489
-0.286181
-0.254749
-0.227895
-0.202953
-0.178329
-0.153076
-0.127409
-0.102779
-0.0829881
-0.0745437
-0.0697317
-0.0662062
-0.0632464
-0.0605771
-0.058073
-0.0556706
-0.0533378
-0.0510592
-0.048829
-0.0466462
-0.0445115
-0.0424257
-0.0403887
-0.0383991
-0.0364544
-0.0345509
-0.0326846
-0.030851
-0.0290459
-0.0272653
-0.025506
-0.0237653
-0.0220413
-0.0203328
-0.0186392
-0.0169604
-0.0152968
-0.0136493
-0.0120188
-0.0104065
-0.00881396
-0.00724242
-0.0056934
-0.00416833
-0.00266862
-0.00119565
0.0002493
0.00166497
0.00305019
0.00440387
0.00572499
0.00701258
0.00826575
0.00948367
0.0106656
0.0118107
0.0129184
0.013988
0.0150189
0.0160107
0.0169627
0.0178744
0.0187455
0.0195756
0.0203641
0.0211108
0.0218152
0.0224772
0.0230963
0.0236723
0.024205
0.0246941
0.0251394
0.0255407
0.0258978
0.0262106
0.026479
0.0267027
0.0268818
0.0270161
0.0271056
0.0271503
-0.363553
-0.325228
-0.290611
-0.260357
-0.234339
-0.20961
-0.18452
-0.158172
-0.130369
-0.101119
-0.0539776
-0.0702084
-0.0684292
-0.0659335
-0.0633006
-0.0607019
-0.0581812
-0.0557413
-0.053374
-0.0510711
-0.048827
-0.0466386
-0.0445041
-0.0424221
-0.040391
-0.038408
-0.0364699
-0.0345725
-0.0327115
-0.0308822
-0.0290804
-0.0273022
-0.0255444
-0.0238044
-0.0220805
-0.0203714
-0.0186768
-0.0169967
-0.0153315
-0.0136822
-0.0120498
-0.0104356
-0.00884105
-0.00726755
-0.0057166
-0.00418967
-0.00268817
-0.00121349
0.000233088
0.0016503
0.00303698
0.00439205
0.00571447
0.0070033
0.00825766
0.0094767
0.0106597
0.0118058
0.0129145
0.0139851
0.015017
0.0160096
0.0169625
0.0178751
0.018747
0.0195778
0.0203672
0.0211146
0.0218198
0.0224825
0.0231023
0.023679
0.0242123
0.0247019
0.0251478
0.0255496
0.0259071
0.0262203
0.026489
0.0267131
0.0268924
0.0270269
0.0271166
0.0271613
-0.364691
-0.328215
-0.294983
-0.265908
-0.24061
-0.215917
-0.190445
-0.16313
-0.133707
-0.101774
-0.0521109
-0.0684415
-0.0677846
-0.0657779
-0.063294
-0.0607075
-0.0581582
-0.0556875
-0.0532996
-0.050988
-0.0487451
-0.0465647
-0.0444423
-0.0423744
-0.0403577
-0.0383885
-0.0364628
-0.0345764
-0.0327244
-0.0309026
-0.0291065
-0.0273326
-0.0255778
-0.0238397
-0.0221166
-0.0204077
-0.0187127
-0.0170316
-0.0153651
-0.0137142
-0.0120801
-0.0104641
-0.00886765
-0.00729226
-0.00573945
-0.0042107
-0.00270746
-0.00123109
0.000217086
0.00163582
0.00302395
0.00438039
0.00570413
0.0069942
0.00824974
0.00946993
0.010654
0.0118012
0.0129109
0.0139824
0.0150153
0.0160088
0.0169626
0.0178761
0.0187489
0.0195806
0.0203707
0.021119
0.021825
0.0224884
0.0231089
0.0236863
0.0242203
0.0247106
0.025157
0.0255593
0.0259174
0.026231
0.0265001
0.0267245
0.026904
0.0270387
0.0271285
0.0271733
-0.365306
-0.330419
-0.298993
-0.271319
-0.246576
-0.221772
-0.195823
-0.167874
-0.137771
-0.104991
-0.053185
-0.0694826
-0.0683719
-0.0660469
-0.0633524
-0.0606348
-0.0580112
-0.0555052
-0.0531083
-0.0508047
-0.0485798
-0.0464228
-0.0443257
-0.042283
-0.0402898
-0.0383419
-0.0364348
-0.034564
-0.032725
-0.0309135
-0.0291256
-0.0273577
-0.0256072
-0.023872
-0.0221506
-0.0204424
-0.0187473
-0.0170655
-0.015398
-0.0137457
-0.01211
-0.0104922
-0.00889393
-0.0073167
-0.00576207
-0.00423153
-0.00272655
-0.00124852
0.000201253
0.00162151
0.00301108
0.0043689
0.00569394
0.00698527
0.00824201
0.00946334
0.0106485
0.0117968
0.0129075
0.0139801
0.0150139
0.0160084
0.0169632
0.0178776
0.0187513
0.0195839
0.0203749
0.021124
0.0218308
0.022495
0.0231163
0.0236944
0.0242291
0.02472
0.0251671
0.02557
0.0259286
0.0262427
0.0265122
0.0267369
0.0269168
0.0270517
0.0271416
0.0271865
-0.365859
-0.332422
-0.30259
-0.276095
-0.25153
-0.226352
-0.199803
-0.171534
-0.141768
-0.110206
-0.0570752
-0.0732237
-0.0700805
-0.0666507
-0.063411
-0.0604403
-0.0577121
-0.0551776
-0.0527911
-0.0505171
-0.0483304
-0.0462139
-0.0441565
-0.0421505
-0.0401903
-0.0382711
-0.0363884
-0.0345379
-0.0327154
-0.0309171
-0.0291393
-0.027379
-0.025634
-0.0239024
-0.0221833
-0.0204762
-0.0187813
-0.0170991
-0.0154306
-0.013777
-0.0121397
-0.0105202
-0.0089201
-0.00734103
-0.00578457
-0.00425224
-0.00274553
-0.00126583
0.000185538
0.00160732
0.00299835
0.00435755
0.00568391
0.00697651
0.00823446
0.00945696
0.0106432
0.0117926
0.0129044
0.013978
0.0150129
0.0160084
0.0169641
0.0178795
0.0187542
0.0195877
0.0203796
0.0211296
0.0218372
0.0225023
0.0231244
0.0237034
0.0242388
0.0247305
0.0251782
0.0255817
0.0259409
0.0262555
0.0265254
0.0267505
0.0269307
0.0270659
0.0271559
0.0272009
-0.366556
-0.334432
-0.305672
-0.2798
-0.255014
-0.229364
-0.202289
-0.17384
-0.144691
-0.116128
-0.0911329
-0.0791874
-0.0720966
-0.0671017
-0.0632193
-0.0600006
-0.0572023
-0.0546785
-0.0523382
-0.0501238
-0.0479993
-0.0459426
-0.0439398
-0.0419823
-0.040064
-0.0381805
-0.0363276
-0.0345015
-0.0326986
-0.0309157
-0.0291497
-0.0273983
-0.0256595
-0.0239322
-0.0222158
-0.02051
-0.0188154
-0.0171329
-0.0154634
-0.0138084
-0.0121695
-0.0105483
-0.00894637
-0.00736543
-0.00580711
-0.00427296
-0.00276449
-0.0012831
0.000169884
0.00159321
0.00298571
0.00434631
0.00567401
0.00696789
0.00822708
0.00945077
0.0106382
0.0117887
0.0129016
0.0139763
0.0150122
0.0160087
0.0169655
0.0178819
0.0187575
0.019592
0.0203849
0.0211358
0.0218444
0.0225104
0.0231334
0.0237132
0.0242494
0.0247419
0.0251903
0.0255945
0.0259543
0.0262695
0.0265399
0.0267654
0.0269459
0.0270813
0.0271715
0.0272166
-0.367197
-0.336001
-0.307566
-0.281562
-0.256302
-0.230286
-0.202969
-0.174401
-0.145435
-0.117736
-0.0952802
-0.0809783
-0.072322
-0.0665932
-0.0624371
-0.0591682
-0.0564199
-0.0539856
-0.0517454
-0.0496288
-0.0475942
-0.0456172
-0.0436838
-0.0417858
-0.0399177
-0.038076
-0.0362573
-0.034459
-0.0326781
-0.0309123
-0.0291594
-0.0274175
-0.0256856
-0.0239628
-0.0222491
-0.0205448
-0.0188505
-0.0171674
-0.0154969
-0.0138405
-0.0121999
-0.0105768
-0.00897296
-0.00739008
-0.00582983
-0.00429381
-0.00278353
-0.0013004
0.000154232
0.00157913
0.00297313
0.00433516
0.00566423
0.00695941
0.00821986
0.00944477
0.0106334
0.011785
0.0128991
0.0139748
0.0150118
0.0160095
0.0169673
0.0178847
0.0187614
0.0195969
0.0203908
0.0211428
0.0218524
0.0225193
0.0231433
0.0237239
0.024261
0.0247543
0.0252035
0.0256085
0.0259689
0.0262847
0.0265556
0.0267816
0.0269625
0.0270981
0.0271886
0.0272337
-0.36765
-0.336985
-0.308303
-0.281478
-0.255403