0 	-3.49169e-11 	-9.76008e-27 	8.69011e-11
0.010101 	-6.1634e-11 	-2.19388e-28 	-3.27806e-12
0.020202 	-2.98545e-12 	-5.6053e-30 	-1.80189e-13
