/*--------------------------------*- C++ -*----------------------------------*\
  =========                 |
  \\      /  F ield         | OpenFOAM: The Open Source CFD Toolbox
   \\    /   O peration     | Website:  https://openfoam.org
    \\  /    A nd           | Version:  6
     \\/     M anipulation  |
\*---------------------------------------------------------------------------*/
FoamFile
{
    version     2.0;
    format      ascii;
    class       surfaceScalarField;
    location    "950";
    object      phi;
}
// * * * * * * * * * * * * * * * * * * * * * * * * * * * * * * * * * * * * * //

dimensions      [0 3 -1 0 0 0 0];

internalField   nonuniform List<scalar> 
9440
(
-3.45861e-10
3.45861e-10
-8.05683e-10
4.59821e-10
-1.11566e-09
3.09972e-10
-1.49595e-09
3.80296e-10
-1.78136e-09
2.85408e-10
-1.99275e-09
2.11389e-10
-2.09128e-09
9.85316e-11
-2.12776e-09
3.64804e-11
-2.13588e-09
8.12246e-12
-2.10727e-09
-2.86142e-11
-2.09034e-09
-1.69265e-11
-2.12241e-09
3.20722e-11
-2.08191e-09
-4.05085e-11
-2.05144e-09
-3.04701e-11
-2.00109e-09
-5.0342e-11
-1.95857e-09
-4.25181e-11
-2.00744e-09
4.88672e-11
-1.84948e-09
-1.57961e-10
-1.81001e-09
-3.94695e-11
-1.62034e-09
-1.89668e-10
-1.47482e-09
-1.45518e-10
-1.54004e-09
6.52222e-11
-1.3894e-09
-1.50639e-10
-1.26333e-09
-1.26066e-10
-1.16209e-09
-1.01243e-10
-1.06062e-09
-1.01473e-10
-9.04962e-10
-1.55653e-10
-5.58989e-10
-3.45973e-10
-3.54785e-10
-2.04204e-10
-1.97234e-10
-1.5755e-10
8.17671e-11
-2.79e-10
3.34753e-10
-2.52985e-10
5.26187e-10
-1.91433e-10
5.59976e-10
-3.37869e-11
5.8618e-10
-2.62012e-11
5.8529e-10
8.91955e-13
5.06281e-10
7.90119e-11
3.94426e-10
1.11858e-10
1.80776e-10
2.13653e-10
-4.78861e-11
2.28665e-10
-1.76576e-10
1.28693e-10
-3.12691e-10
1.36117e-10
-4.52899e-10
1.4021e-10
-5.4901e-10
9.61131e-11
-6.70024e-10
1.21015e-10
-8.73482e-10
2.03459e-10
-1.28034e-09
4.06864e-10
-1.53548e-09
2.55138e-10
-1.7564e-09
2.2092e-10
-1.85221e-09
9.58114e-11
-1.91128e-09
5.90717e-11
-1.9161e-09
4.81745e-12
-1.93147e-09
1.53761e-11
-1.96965e-09
3.81782e-11
-2.02223e-09
5.25788e-11
-2.02436e-09
2.13336e-12
-2.01144e-09
-1.29158e-11
-1.85712e-09
-1.54323e-10
-1.5549e-09
-3.02219e-10
-1.33429e-09
-2.20605e-10
-8.41747e-10
-4.92546e-10
-6.22101e-10
-2.19646e-10
-5.73924e-10
-4.81778e-11
-4.64343e-10
-1.09582e-10
-1.40732e-10
-3.23613e-10
4.26583e-11
-1.83392e-10
2.00916e-10
-1.5826e-10
1.93762e-10
7.15147e-12
-1.5001e-10
3.4377e-10
-2.83836e-10
1.33824e-10
-6.53624e-10
3.69785e-10
-8.84133e-10
2.30507e-10
-1.05245e-09
1.6831e-10
-1.24704e-09
1.94589e-10
-1.19091e-09
-5.61335e-11
-9.7567e-10
-2.15238e-10
-9.96666e-10
2.0993e-11
-8.48026e-10
-1.48644e-10
-6.10707e-10
-2.37317e-10
-2.62659e-14
-6.10664e-10
-3.19677e-18
2.1514e-19
-3.24488e-18
4.81091e-20
-3.14702e-18
-9.32682e-20
-2.99417e-18
-1.5584e-19
-2.81072e-18
-1.87311e-19
-2.60215e-18
-2.11339e-19
-2.36978e-18
-2.34272e-19
-2.11557e-18
-2.55752e-19
-1.84309e-18
-2.73912e-19
-1.55732e-18
-2.87168e-19
-1.26406e-18
-2.9461e-19
-9.6936e-19
-2.95948e-19
-6.79117e-19
-2.91354e-19
-3.98765e-19
-2.81321e-19
-1.3308e-19
-2.66537e-19
1.13928e-19
-2.47802e-19
3.39084e-19
-2.25957e-19
5.40062e-19
-2.01831e-19
7.15369e-19
-1.76214e-19
8.64278e-19
-1.49816e-19
9.86729e-19
-1.23262e-19
1.08321e-18
-9.70745e-20
1.15465e-18
-7.16896e-20
1.20228e-18
-4.74642e-20
1.22756e-18
-2.46739e-20
1.2321e-18
-3.50264e-21
1.21758e-18
1.59558e-20
1.18575e-18
3.36774e-20
1.13836e-18
4.96808e-20
1.0771e-18
6.4006e-20
1.00355e-18
7.67047e-20
9.19159e-19
8.78418e-20
8.25245e-19
9.74911e-20
7.2304e-19
1.05727e-19
6.13713e-19
1.12618e-19
4.98398e-19
1.18216e-19
3.78231e-19
1.22568e-19
2.54362e-19
1.25729e-19
1.2794e-19
1.27801e-19
1.29006e-19
-3.97662e-10
7.43523e-10
-6.11022e-10
6.7318e-10
-9.79371e-10
6.78321e-10
-1.40296e-09
8.03885e-10
-1.69115e-09
5.73597e-10
-1.85599e-09
3.76232e-10
-1.97643e-09
2.18967e-10
-2.0356e-09
9.56478e-11
-2.08228e-09
5.48114e-11
-2.07489e-09
-3.60101e-11
-2.03731e-09
-5.45031e-11
-2.01643e-09
1.11944e-11
-2.00167e-09
-5.52684e-11
-1.96657e-09
-6.55689e-11
-1.94431e-09
-7.26043e-11
-1.88672e-09
-1.001e-10
-1.75206e-09
-8.57879e-11
-1.77399e-09
-1.36038e-10
-1.65588e-09
-1.57576e-10
-1.61214e-09
-2.334e-10
-1.55339e-09
-2.04268e-10
-1.43899e-09
-4.91726e-11
-1.34053e-09
-2.491e-10
-1.25563e-09
-2.10967e-10
-1.12853e-09
-2.28343e-10
-9.70346e-10
-2.59656e-10
-8.30382e-10
-2.95617e-10
-5.79532e-10
-5.96822e-10
-4.15939e-10
-3.67795e-10
-1.76366e-10
-3.97121e-10
2.06215e-11
-4.75985e-10
1.79603e-10
-4.11963e-10
3.48504e-10
-3.6033e-10
4.52743e-10
-1.38022e-10
4.82331e-10
-5.57845e-11
4.71104e-10
1.2124e-11
4.11107e-10
1.39014e-10
2.64445e-10
2.58526e-10
1.24231e-10
3.53872e-10
2.16973e-11
3.31203e-10
-2.29876e-10
3.8027e-10
-4.10869e-10
3.17113e-10
-7.01327e-10
4.30672e-10
-1.01719e-09
4.11979e-10
-1.28601e-09
3.89834e-10
-1.4583e-09
3.75755e-10
-1.51614e-09
4.64704e-10
-1.73654e-09
4.75545e-10
-1.84765e-09
3.32024e-10
-1.95054e-09
1.98702e-10
-2.01842e-09
1.26958e-10
-2.08845e-09
7.48455e-11
-2.11021e-09
3.71352e-11
-2.09726e-09
2.52314e-11
-2.04141e-09
-3.26601e-12
-1.93762e-09
-1.01662e-10
-1.83374e-09
-1.16785e-10
-1.70099e-09
-2.87079e-10
-1.59485e-09
-4.08353e-10
-1.28228e-09
-5.33174e-10
-1.01444e-09
-7.60388e-10
-9.57144e-10
-2.76943e-10
-7.73529e-10
-2.31795e-10
-3.80753e-10
-5.02361e-10
-1.23314e-10
-5.81055e-10
4.58501e-11
-3.5256e-10
1.63868e-10
-2.76281e-10
2.84861e-10
-1.13846e-10
3.25305e-10
3.03321e-10
1.09102e-09
-6.3189e-10
1.35894e-09
1.01857e-10
1.25824e-09
3.31206e-10
1.35158e-09
7.49575e-11
1.06632e-09
4.79848e-10
4.35243e-10
5.74941e-10
-2.44535e-10
4.64536e-10
-5.82263e-10
3.58717e-10
-7.04525e-10
-2.63916e-11
-4.05442e-10
-5.36431e-10
1.90816e-15
-1.01619e-09
-3.41491e-18
1.23938e-18
-3.38626e-18
3.13315e-21
-3.20959e-18
-2.77415e-19
-3.02564e-18
-3.43715e-19
-2.83475e-18
-3.81462e-19
-2.62508e-18
-4.24101e-19
-2.39126e-18
-4.71005e-19
-2.13373e-18
-5.16012e-19
-1.85635e-18
-5.53843e-19
-1.56476e-18
-5.81117e-19
-1.2654e-18
-5.96145e-19
-9.64767e-19
-5.98517e-19
-6.69084e-19
-5.88737e-19
-3.83981e-19
-5.67916e-19
-1.14345e-19
-5.37526e-19
1.35774e-19
-4.99223e-19
3.63209e-19
-4.54708e-19
5.6568e-19
-4.05639e-19
7.41766e-19
-3.53579e-19
8.90833e-19
-2.99961e-19
1.01292e-18
-2.4606e-19
1.1086e-18
-1.92967e-19
1.17887e-18
-1.41579e-19
1.22507e-18
-9.25999e-20
1.24873e-18
-4.65442e-20
1.25156e-18
-3.75023e-21
1.2353e-18
3.55909e-20
1.20176e-18
7.13964e-20
1.15269e-18
1.03658e-19
1.0898e-18
1.32424e-19
1.01469e-18
1.57788e-19
9.28809e-19
1.79887e-19
8.33481e-19
1.98881e-19
7.29931e-19
2.14942e-19
6.19311e-19
2.28238e-19
5.0275e-19
2.38938e-19
3.81392e-19
2.47208e-19
2.56434e-19
2.53219e-19
1.29146e-19
2.57139e-19
2.59111e-19
-3.76367e-10
1.11989e-09
-7.21201e-10
1.01801e-09
-1.01506e-09
9.72179e-10
-1.21703e-09
1.00586e-09
-1.47493e-09
8.3149e-10
-1.6215e-09
5.228e-10
-1.71972e-09
3.17193e-10
-1.81868e-09
1.94608e-10
-1.85035e-09
8.6483e-11
-1.8559e-09
-3.04599e-11
-1.88253e-09
-2.78769e-11
-1.83297e-09
-3.83574e-11
-1.78574e-09
-1.02503e-10
-1.75023e-09
-1.01073e-10
-1.71468e-09
-1.0816e-10
-1.70563e-09
-1.09144e-10
-1.6943e-09
-9.71116e-11
-1.66034e-09
-1.69999e-10
-1.56967e-09
-2.48242e-10
-1.50696e-09
-2.96111e-10
-1.40785e-09
-3.03377e-10
-1.26423e-09
-1.92798e-10
-1.22205e-09
-2.91278e-10
-1.16199e-09
-2.7102e-10
-1.09251e-09
-2.97822e-10
-9.89872e-10
-3.62297e-10
-8.06404e-10
-4.79083e-10
-6.82035e-10
-7.21191e-10
-5.14529e-10
-5.353e-10
-3.48044e-10
-5.63605e-10
-2.19616e-10
-6.04411e-10
3.98633e-11
-6.7144e-10
1.4612e-10
-4.66583e-10
2.26586e-10
-2.18484e-10
2.78972e-10
-1.08167e-10
2.66133e-10
2.49678e-11
1.72068e-10
2.33084e-10
2.8118e-11
4.02479e-10
-1.97052e-10
5.79046e-10
-4.43134e-10
5.77289e-10
-5.41982e-10
4.79121e-10
-5.68126e-10
3.43261e-10
-6.64057e-10
5.26606e-10
-1.03372e-09
7.81641e-10
-1.24566e-09
6.01781e-10
-1.45397e-09
5.84068e-10
-1.62941e-09
6.40145e-10
-1.6793e-09
5.25436e-10
-1.80508e-09
4.57801e-10
-1.9302e-09
3.23829e-10
-2.00851e-09
2.05262e-10
-2.09642e-09
1.62761e-10
-2.10771e-09
4.842e-11
-2.05891e-09
-2.35639e-11
-2.01053e-09
-5.16409e-11
-1.91576e-09
-1.9644e-10
-1.7614e-09
-2.71137e-10
-1.68288e-09
-3.65602e-10
-1.61049e-09
-4.8074e-10
-1.3121e-09
-8.31565e-10
-1.24786e-09
-8.24621e-10
-1.04271e-09
-4.82099e-10
-5.38907e-10
-7.35599e-10
-1.15974e-10
-9.25296e-10
7.30616e-11
-7.70093e-10
2.3976e-10
-5.19261e-10
2.66901e-10
-3.03425e-10
4.87475e-10
-3.34424e-10
8.85656e-10
-9.48631e-11
9.3587e-10
-6.82108e-10
1.22875e-09
-1.91026e-10
1.39285e-09
1.67097e-10
1.36219e-09
1.05621e-10
1.29839e-09
5.43638e-10
1.19603e-09
6.77297e-10
9.20798e-10
7.39764e-10
7.26674e-10
5.52843e-10
3.38822e-10
3.61474e-10
7.67242e-11
-2.74301e-10
2.98615e-15
-9.39458e-10
-4.72194e-18
-1.95989e-18
-3.66681e-18
-1.05417e-18
-3.27589e-18
-6.73234e-19
-3.06339e-18
-5.60035e-19
-2.87739e-18
-5.70676e-19
-2.67198e-18
-6.32434e-19
-2.43627e-18
-7.09421e-19
-2.17156e-18
-7.83199e-19
-1.88362e-18
-8.44026e-19
-1.57979e-18
-8.8695e-19
-1.26777e-18
-9.09927e-19
-9.54987e-19
-9.12808e-19
-6.48262e-19
-8.96712e-19
-3.53591e-19
-8.6359e-19
-7.60418e-20
-8.15877e-19
1.80289e-19
-7.56225e-19
4.12278e-19
-6.87314e-19
6.17741e-19
-6.11727e-19
7.95384e-19
-5.31874e-19
9.44734e-19
-4.49942e-19
1.06601e-18
-3.67852e-19
1.15998e-18
-2.87212e-19
1.22785e-18
-2.09322e-19
1.27112e-18
-1.35196e-19
1.29153e-18
-6.55888e-20
1.2909e-18
-1.01546e-21
1.27111e-18
5.82277e-20
1.23402e-18
1.12023e-19
1.18145e-18
1.60381e-19
1.11517e-18
2.03401e-19
1.03679e-18
2.41248e-19
9.47803e-19
2.74132e-19
8.49542e-19
3.02309e-19
7.43228e-19
3.26055e-19
6.3001e-19
3.45663e-19
5.1102e-19
3.61424e-19
3.87403e-19
3.73627e-19
2.60354e-19
3.82541e-19
1.31118e-19
3.88401e-19
3.91365e-19
-2.35402e-10
1.35529e-09
-5.08512e-10
1.29112e-09
-8.1327e-10
1.27694e-09
-1.07779e-09
1.27039e-09
-1.31465e-09
1.06835e-09
-1.48746e-09
6.95604e-10
-1.58574e-09
4.15478e-10
-1.65311e-09
2.61976e-10
-1.61159e-09
4.49625e-11
-1.6521e-09
1.00536e-11
-1.68977e-09
9.79426e-12
-1.68351e-09
-4.46145e-11
-1.66308e-09
-1.22938e-10
-1.64741e-09
-1.16735e-10
-1.55964e-09
-1.95932e-10
-1.54595e-09
-1.22828e-10
-1.53533e-09
-1.0773e-10
-1.4771e-09
-2.28233e-10
-1.37942e-09
-3.45918e-10
-1.40733e-09
-2.68202e-10
-1.31403e-09
-3.96673e-10
-1.20821e-09
-2.98618e-10
-1.11324e-09
-3.86249e-10
-1.04456e-09
-3.39697e-10
-9.59437e-10
-3.8295e-10
-8.65843e-10
-4.5589e-10
-7.01666e-10
-6.4326e-10
-6.85055e-10
-7.37801e-10
-4.97987e-10
-7.22366e-10
-3.08375e-10
-7.53215e-10
-8.30195e-11
-8.29764e-10
1.87058e-11
-7.73162e-10
6.27593e-11
-5.10634e-10
1.949e-10
-3.50621e-10
1.47203e-10
-6.04667e-11
1.29503e-10
4.26709e-11
9.07417e-11
2.71849e-10
-3.15246e-11
5.2475e-10
-1.94492e-10
7.42017e-10
-3.88168e-10
7.70968e-10
-5.89358e-10
6.80315e-10
-7.94979e-10
5.48886e-10
-8.92264e-10
6.23893e-10
-1.04314e-09
9.32524e-10
-1.28512e-09
8.43759e-10
-1.37921e-09
6.78159e-10
-1.51623e-09
7.77162e-10
-1.67476e-09
6.83969e-10
-1.73883e-09
5.21873e-10
-1.85539e-09
4.4039e-10
-1.97464e-09
3.24512e-10
-2.04468e-09
2.32806e-10
-2.06218e-09
6.5916e-11
-2.05568e-09
-3.00661e-11
-2.02522e-09
-8.20954e-11
-1.89984e-09
-3.21818e-10
-1.71615e-09
-4.54823e-10
-1.57349e-09
-5.0826e-10
-1.39975e-09
-6.54481e-10
-1.28793e-09
-9.43387e-10
-1.20986e-09
-9.02687e-10
-7.39072e-10
-9.52892e-10
-3.87128e-10
-1.08754e-09
-4.14312e-10
-8.98114e-10
-2.33412e-10
-9.50994e-10
1.81172e-10
-9.33848e-10
4.62389e-10
-5.84645e-10
6.60066e-10
-5.32103e-10
9.38085e-10
-3.72885e-10
8.70012e-10
-6.14038e-10
1.15399e-09
-4.75011e-10
1.32091e-09
1.73514e-13
1.32134e-09
1.05191e-10
1.4474e-09
4.17568e-10
1.56962e-09
5.55072e-10
1.48302e-09
8.26362e-10
1.19452e-09
8.41331e-10
7.59477e-10
7.96496e-10
2.95328e-10
1.89845e-10
1.89934e-15
-6.44135e-10
-3.86987e-18
-5.06697e-18
-3.28587e-18
-1.639e-18
-3.16269e-18
-8.00189e-19
-3.07403e-18
-6.52416e-19
-2.93915e-18
-7.08927e-19
-2.74897e-18
-8.25683e-19
-2.51005e-18
-9.5115e-19
-2.23239e-18
-1.0634e-18
-1.92655e-18
-1.15214e-18
-1.60277e-18
-1.21273e-18
-1.27065e-18
-1.24381e-18
-9.38891e-19
-1.2461e-18
-6.15141e-19
-1.22176e-18
-3.05878e-19
-1.17388e-18
-1.63895e-20
-1.10611e-18
2.49199e-19
-1.02232e-18
4.87865e-19
-9.26323e-19
6.97594e-19
-8.21753e-19
8.77316e-19
-7.11919e-19
1.02682e-18
-5.99787e-19
1.14665e-18
-4.87931e-19
1.23787e-18
-3.78489e-19
1.30198e-18
-2.73151e-19
1.34073e-18
-1.73211e-19
1.3561e-18
-7.96163e-20
1.35014e-18
6.98809e-21
1.3249e-18
8.62323e-20
1.28238e-18
1.57982e-19
1.22447e-18
2.22284e-19
1.15301e-18
2.79315e-19
1.06967e-18
3.29338e-19
9.75979e-19
3.72685e-19
8.73288e-19
4.09737e-19
7.62835e-19
4.40907e-19
6.45772e-19
4.66623e-19
5.23222e-19
4.87308e-19
3.96317e-19
5.03358e-19
2.66214e-19
5.15125e-19
1.34082e-19
5.22893e-19
5.26839e-19
-2.03516e-10
1.55881e-09
-3.91086e-10
1.47869e-09
-6.08062e-10
1.49391e-09
-7.72675e-10
1.435e-09
-9.25404e-10
1.22108e-09
-1.15171e-09
9.21911e-10
-1.20702e-09
4.70789e-10
-1.43138e-09
4.86334e-10
-1.45798e-09
7.15617e-11
-1.48696e-09
3.90407e-11
-1.50713e-09
2.99581e-11
-1.51684e-09
-3.48968e-11
-1.50582e-09
-1.33966e-10
-1.49495e-09
-1.27595e-10
-1.48883e-09
-2.0206e-10
-1.44139e-09
-1.70264e-10
-1.38686e-09
-1.62263e-10
-1.32746e-09
-2.87628e-10
-1.2962e-09
-3.77178e-10
-1.21675e-09
-3.47648e-10
-1.13148e-09
-4.81948e-10
-1.04214e-09
-3.87954e-10
-9.88365e-10
-4.40022e-10
-9.39866e-10
-3.88194e-10
-8.73749e-10
-4.49066e-10
-7.89635e-10
-5.40003e-10
-6.94424e-10
-7.38469e-10
-5.97125e-10
-8.35098e-10
-4.19387e-10
-9.00102e-10
-2.48856e-10
-9.23745e-10
-1.69883e-10
-9.08734e-10
-1.72913e-10
-7.70129e-10
-1.18955e-10
-5.64589e-10
-8.96647e-11
-3.79909e-10
-3.43867e-11
-1.15741e-10
-1.44668e-11
2.27545e-11
-1.3484e-11
2.7087e-10
-9.97848e-11
6.11054e-10
-2.27768e-10
8.70004e-10
-3.86282e-10
9.29486e-10
-5.05489e-10
7.99525e-10
-6.37098e-10
6.80498e-10
-7.02545e-10
6.89342e-10
-7.41772e-10
9.71754e-10
-1.07763e-09
1.17962e-09
-1.37433e-09
9.74863e-10
-1.47294e-09
8.75766e-10
-1.5765e-09
7.87536e-10
-1.72031e-09
6.65683e-10
-1.82931e-09
5.49386e-10
-1.89726e-09
3.92467e-10
-1.89985e-09
2.354e-10
-1.89285e-09
5.89163e-11
-1.87725e-09
-4.56691e-11
-1.76706e-09
-1.92279e-10
-1.67661e-09
-4.12267e-10
-1.53319e-09
-5.98246e-10
-1.40088e-09
-6.40572e-10
-1.22232e-09
-8.3304e-10
-1.12519e-09
-1.04052e-09
-9.4407e-10
-1.0838e-09
-6.2151e-10
-1.27545e-09
-5.7406e-10
-1.13499e-09
-2.4326e-10
-1.22892e-09
3.25766e-11
-1.22683e-09
1.20071e-10
-1.02134e-09
4.04293e-10
-8.6887e-10
7.00844e-10
-8.28656e-10
1.08639e-09
-7.58434e-10
1.01121e-09
-5.38867e-10
1.16821e-09
-6.32009e-10
1.29696e-09
-1.2858e-10
1.42203e-09
-1.98876e-11
1.46873e-09
3.70867e-10
1.5713e-09
4.525e-10
1.55799e-09
8.3967e-10
1.44951e-09
9.49804e-10
1.5178e-09
7.28201e-10
9.79545e-10
7.28092e-10
1.33411e-15
3.35404e-10
-4.17937e-19
2.88504e-18
-2.44706e-18
3.88616e-19
-3.01492e-18
-2.35666e-19
-3.13054e-18
-5.40269e-19
-3.0559e-18
-7.86909e-19
-2.87444e-18
-1.01029e-18
-2.62229e-18
-1.20622e-18
-2.32113e-18
-1.36727e-18
-1.98714e-18
-1.48863e-18
-1.63385e-18
-1.56835e-18
-1.27294e-18
-1.60689e-18
-9.1455e-19
-1.60654e-18
-5.67263e-19
-1.57093e-18
-2.38107e-19
-1.50467e-18
6.74078e-20
-1.4129e-18
3.45192e-19
-1.30096e-18
5.92435e-19
-1.17404e-18
8.07428e-19
-1.03694e-18
9.89448e-19
-8.93992e-19
1.13868e-18
-7.4898e-19
1.25609e-18
-6.05156e-19
1.34321e-18
-4.65184e-19
1.40192e-18
-3.31133e-19
1.43433e-18
-2.04525e-19
1.44271e-18
-8.64349e-20
1.42939e-18
2.24301e-20
1.39665e-18
1.21686e-19
1.34668e-18
2.11228e-19
1.28151e-18
2.91182e-19
1.20304e-18
3.61844e-19
1.11302e-18
4.23628e-19
1.01303e-18
4.77024e-19
9.04458e-19
5.22576e-19
7.88552e-19
5.60852e-19
6.66457e-19
5.92423e-19
5.39272e-19
6.17833e-19
4.08084e-19
6.37577e-19
2.73981e-19
6.5208e-19
1.38028e-19
6.61664e-19
6.66532e-19
-2.06878e-10
1.76569e-09
-4.25922e-10
1.69774e-09
-5.73259e-10
1.64125e-09
-7.16224e-10
1.57796e-09
-8.47608e-10
1.35246e-09
-1.09591e-09
1.17021e-09
-1.21327e-09
5.88146e-10
-1.21006e-09
4.83131e-10
-1.31246e-09
1.73956e-10
-1.3529e-09
7.94869e-11
-1.36253e-09
3.9585e-11
-1.35993e-09
-3.74916e-11
-1.39934e-09
-9.45586e-11
-1.42137e-09
-1.05566e-10
-1.40896e-09
-2.1447e-10
-1.35126e-09
-2.27961e-10
-1.28186e-09
-2.31658e-10
-1.26785e-09
-3.01637e-10
-1.26766e-09
-3.77373e-10
-1.15489e-09
-4.60416e-10
-1.10165e-09
-5.35184e-10
-1.01726e-09
-4.72344e-10
-9.27112e-10
-5.30173e-10
-8.66577e-10
-4.48727e-10
-7.95067e-10
-5.20576e-10
-7.05337e-10
-6.29731e-10
-5.78176e-10
-8.65629e-10
-4.45755e-10
-9.67517e-10
-3.22517e-10
-1.02334e-09
-1.96277e-10
-1.04998e-09
-1.06342e-10
-9.98666e-10
-5.78335e-11
-8.18635e-10
-3.20941e-11
-5.90325e-10
-7.44506e-11
-3.37549e-10
-7.75288e-11
-1.1266e-10
-9.01365e-11
3.53656e-11
-1.38133e-10
3.1887e-10
-1.78731e-10
6.51656e-10
-1.85581e-10
8.76858e-10
-2.94245e-10
1.03815e-09
-5.61607e-10
1.06689e-09
-8.86141e-10
1.00504e-09
-1.24447e-09
1.04767e-09
-1.32116e-09
1.04845e-09
-1.16938e-09
1.02784e-09
-1.30596e-09
1.11145e-09
-1.42885e-09
9.9865e-10
-1.51939e-09
8.7808e-10
-1.6267e-09
7.72992e-10
-1.71407e-09
6.3676e-10
-1.69484e-09
3.73241e-10
-1.67345e-09
2.14014e-10
-1.64266e-09
2.81272e-11
-1.55324e-09
-1.35093e-10
-1.49662e-09
-2.48892e-10
-1.41215e-09
-4.96744e-10
-1.33442e-09
-6.7597e-10
-1.27925e-09
-6.95746e-10
-1.12588e-09
-9.86411e-10
-1.04377e-09
-1.12262e-09
-8.47149e-10
-1.28043e-09
-7.1276e-10
-1.40984e-09
-4.96785e-10
-1.35097e-09
-3.11862e-10
-1.41384e-09
-2.49549e-10
-1.28915e-09
-1.30473e-11
-1.25785e-09
3.64933e-10
-1.24685e-09
6.89714e-10
-1.15344e-09
9.68901e-10
-1.03762e-09
1.21214e-09
-7.82109e-10
1.15959e-09
-5.79459e-10
1.26817e-09
-2.37171e-10
1.39534e-09
-1.47057e-10
1.46755e-09
2.9865e-10
1.40675e-09
5.13296e-10
1.47294e-09
7.73474e-10
1.31658e-09
1.10616e-09
9.85339e-10
1.05943e-09
5.15559e-10
1.19787e-09
9.40213e-16
8.50958e-10
-2.80564e-18
1.64284e-18
-3.07134e-18
6.5251e-19
-3.31952e-18
9.54736e-21
-3.37718e-18
-4.85706e-19
-3.27929e-18
-8.87907e-19
-3.07037e-18
-1.22225e-18
-2.78335e-18
-1.49618e-18
-2.44248e-18
-1.71098e-18
-2.06687e-18
-1.86701e-18
-1.67239e-18
-1.96555e-18
-1.27259e-18
-2.00941e-18
-8.7894e-19
-2.00288e-18
-5.01003e-19
-1.95153e-18
-1.46344e-19
-1.86181e-18
1.79348e-19
-1.7407e-18
4.72118e-19
-1.59527e-18
7.29531e-19
-1.43232e-18
9.50378e-19
-1.25806e-18
1.13446e-18
-1.07793e-18
1.2825e-18
-8.96613e-19
1.39606e-18
-7.18037e-19
1.47726e-18
-5.45388e-19
1.52853e-18
-3.81081e-19
1.55242e-18
-2.2682e-19
1.55157e-18
-8.37246e-20
1.52864e-18
4.75412e-20
1.48619e-18
1.66678e-19
1.42663e-18
2.73698e-19
1.35217e-18
3.68874e-19
1.26482e-18
4.52674e-19
1.16642e-18
5.25704e-19
1.05858e-18
5.88652e-19
9.42734e-19
6.42249e-19
8.20122e-19
6.87229e-19
6.91867e-19
7.24309e-19
5.59017e-19
7.54153e-19
4.22587e-19
7.7735e-19
2.83566e-19
7.94392e-19
1.42896e-19
8.05646e-19
8.11343e-19
-1.84871e-10
1.95056e-09
-3.59526e-10
1.87239e-09
-4.86743e-10
1.76847e-09
-5.86703e-10
1.67792e-09
-6.77402e-10
1.44316e-09
-6.26394e-10
1.11921e-09
-7.64736e-10
7.26489e-10
-9.69243e-10
6.87638e-10
-1.15948e-09
3.64198e-10
-1.24479e-09
1.64795e-10
-1.23469e-09
2.94842e-11
-1.26039e-09
-1.17861e-11
-1.31493e-09
-4.00249e-11
-1.31212e-09
-1.08373e-10
-1.29998e-09
-2.26612e-10
-1.31894e-09
-2.08999e-10
-1.27021e-09
-2.80387e-10
-1.19862e-09
-3.73229e-10
-1.13523e-09
-4.40759e-10
-1.06087e-09
-5.34781e-10
-1.06268e-09
-5.33374e-10
-9.68499e-10
-5.66521e-10
-9.06203e-10
-5.92469e-10
-8.45552e-10
-5.09377e-10
-7.51004e-10
-6.15123e-10
-6.43164e-10
-7.37568e-10
-4.9524e-10
-1.01355e-09
-3.3517e-10
-1.12758e-09
-2.08884e-10
-1.14962e-09
-1.48048e-10
-1.11082e-09
-8.68833e-11
-1.05983e-09
-7.72498e-11
-8.28266e-10
-1.19533e-10
-5.48039e-10
-1.62166e-10
-2.94912e-10
-1.8302e-10
-9.18031e-11
-2.01189e-10
5.35382e-11
-3.65635e-10
4.83319e-10
-5.77426e-10
8.6345e-10
-7.19318e-10
1.01875e-09
-7.11606e-10
1.03045e-09
-6.85511e-10
1.0408e-09
-6.60744e-10
9.8027e-10
-7.24642e-10
1.11157e-09
-9.87482e-10
1.31129e-09
-1.18998e-09
1.23034e-09
-1.3095e-09
1.23097e-09
-1.4322e-09
1.12135e-09
-1.49589e-09
9.41773e-10
-1.5473e-09
8.24407e-10
-1.56384e-09
6.53301e-10
-1.47687e-09
2.86279e-10
-1.45103e-09
1.8817e-10
-1.41372e-09
-9.18269e-12
-1.36976e-09
-1.79047e-10
-1.32299e-09
-2.95668e-10
-1.25818e-09
-5.61548e-10
-1.18282e-09
-7.51336e-10
-1.10272e-09
-7.75839e-10
-9.61213e-10
-1.12792e-09
-9.08375e-10
-1.17546e-09
-8.23367e-10
-1.36543e-09
-7.19584e-10
-1.51363e-09
-4.70233e-10
-1.60032e-09
-2.97432e-10
-1.58664e-09
-1.2074e-10
-1.46584e-09
5.08439e-11
-1.42943e-09
3.31232e-10
-1.52724e-09
6.60053e-10
-1.48226e-09
8.70851e-10
-1.24843e-09
1.07622e-09
-9.87486e-10
1.0336e-09
-5.3684e-10
1.25203e-09
-4.55599e-10
1.20465e-09
-9.96791e-11
1.39656e-09
1.06736e-10
1.28154e-09
6.28302e-10
1.2298e-09
8.25218e-10
8.38915e-10
1.49704e-09
5.3421e-10
1.36414e-09
3.18802e-10
1.41327e-09
5.12678e-16
1.16976e-09
-3.57289e-18
1.55083e-18
-3.7143e-18
7.9229e-19
-3.81478e-18
1.07669e-19
-3.77938e-18
-5.23585e-19
-3.61363e-18
-1.05623e-18
-3.34429e-18
-1.49421e-18
-2.99815e-18
-1.84492e-18
-2.59851e-18
-2.11321e-18
-2.16541e-18
-2.3027e-18
-1.71625e-18
-2.41735e-18
-1.26606e-18
-2.46233e-18
-8.27586e-19
-2.44421e-18
-4.11286e-19
-2.3708e-18
-2.52357e-20
-2.25082e-18
3.24775e-19
-2.0934e-18
6.35067e-19
-1.90769e-18
9.03794e-19
-1.70235e-18
1.13051e-18
-1.4852e-18
1.31578e-18
-1.26296e-18
1.46108e-18
-1.04125e-18
1.56871e-18
-8.24669e-19
1.64157e-18
-6.16878e-19
1.68279e-18
-4.20582e-19
1.69551e-18
-2.37599e-19
1.68284e-18
-6.89957e-20
1.64778e-18
8.47236e-20
1.59321e-18
2.23477e-19
1.52181e-18
3.47508e-19
1.43597e-18
4.57324e-19
1.33785e-18
5.53629e-19
1.22937e-18
6.37265e-19
1.11218e-18
7.09144e-19
9.87715e-19
7.702e-19
8.57202e-19
8.2135e-19
7.2171e-19
8.6346e-19
5.82214e-19
8.97321e-19
4.39629e-19
9.2362e-19
2.9482e-19
9.42919e-19
1.48594e-19
9.55639e-19
9.62045e-19
-1.61145e-11
1.96667e-09
-1.31697e-10
1.98798e-09
-2.63636e-10
1.90041e-09
-4.2847e-10
1.84276e-09
-6.92659e-10
1.70735e-09
-8.92169e-10
1.31872e-09
-9.96531e-10
8.30851e-10
-9.63598e-10
6.54705e-10
-1.04223e-09
4.42827e-10
-1.16453e-09
2.87098e-10
-1.16225e-09
2.72073e-11
-1.19601e-09
2.19713e-11
-1.21832e-09
-1.77153e-11
-1.19359e-09
-1.33102e-10
-1.2043e-09
-2.15898e-10
-1.20122e-09
-2.12079e-10
-1.1621e-09
-3.19512e-10
-1.14941e-09
-3.8592e-10
-1.12746e-09
-4.62702e-10
-1.06491e-09
-5.97339e-10
-1.04666e-09
-5.51622e-10
-9.23686e-10
-6.89492e-10
-8.84381e-10
-6.31773e-10
-7.72808e-10
-6.20948e-10
-7.01599e-10
-6.8633e-10
-5.79685e-10
-8.5948e-10
-4.80248e-10
-1.11299e-09
-3.82446e-10
-1.22538e-09
-2.83364e-10
-1.2487e-09
-1.58062e-10
-1.23611e-09
-1.16973e-10
-1.10091e-09
-9.92469e-11
-8.45989e-10
-1.19954e-10
-5.27329e-10
-1.57054e-10
-2.5781e-10
-1.84169e-10
-6.4685e-11
-2.54848e-10
1.2422e-10
-3.06833e-10
5.35308e-10
-4.10807e-10
9.67426e-10
-4.65013e-10
1.07296e-09
-5.72277e-10
1.13771e-09
-6.99241e-10
1.16776e-09
-8.13478e-10
1.09451e-09
-8.021e-10
1.1002e-09
-8.52706e-10
1.3619e-09
-1.00024e-09
1.37787e-09
-1.07749e-09
1.30823e-09
-1.12572e-09
1.16958e-09
-1.1203e-09
9.36352e-10
-1.20946e-09
9.13574e-10
-1.30309e-09
7.46933e-10
-1.35459e-09
3.37783e-10
-1.3248e-09
1.58377e-10
-1.21691e-09
-1.17068e-10
-1.26894e-09
-1.27017e-10
-1.1761e-09
-3.88509e-10
-1.07264e-09
-6.65009e-10
-9.89736e-10
-8.3424e-10
-9.74176e-10
-7.91399e-10
-9.39329e-10
-1.16277e-09
-8.59073e-10
-1.25572e-09
-7.87912e-10
-1.4366e-09
-6.72973e-10
-1.62857e-09
-5.23093e-10
-1.7502e-09
-2.99612e-10
-1.81012e-09
-8.76859e-11
-1.67777e-09
7.74188e-11
-1.59454e-09
3.2391e-10
-1.77374e-09
5.64477e-10
-1.72283e-09
7.61379e-10
-1.44533e-09
9.24243e-10
-1.15035e-09
9.40813e-10
-5.53414e-10
1.04249e-09
-5.57283e-10
9.41069e-10
1.74315e-12
9.68823e-10
7.89797e-11
9.80763e-10
6.1636e-10
9.64346e-10
8.41632e-10
1.10082e-09
1.36057e-09
8.6462e-10
1.60033e-09
5.52771e-10
1.72512e-09
5.24848e-17
1.72253e-09
-3.9988e-18
3.11082e-18
-4.39892e-18
1.1912e-18
-4.44603e-18
1.53317e-19
-4.31203e-18
-6.59165e-19
-4.05162e-18
-1.31831e-18
-3.695e-18
-1.85258e-18
-3.26643e-18
-2.27522e-18
-2.788e-18
-2.59334e-18
-2.28006e-18
-2.8123e-18
-1.76123e-18
-2.93789e-18
-1.24794e-18
-2.97745e-18
-7.54178e-19
-2.93999e-18
-2.91299e-19
-2.83598e-18
1.32178e-19
-2.67681e-18
5.10488e-19
-2.47424e-18
8.40409e-19
-2.23982e-18
1.12095e-18
-1.98436e-18
1.35274e-18
-1.71752e-18
1.53749e-18
-1.44743e-18
1.67766e-18
-1.18068e-18
1.7765e-18
-9.22498e-19
1.83787e-18
-6.76911e-19
1.86577e-18
-4.46809e-19
1.86411e-18
-2.34017e-19
1.83656e-18
-3.94462e-20
1.78653e-18
1.36685e-19
1.71725e-18
2.94646e-19
1.63162e-18
4.35043e-19
1.53227e-18
5.58723e-19
1.42149e-18
6.66703e-19
1.30124e-18
7.60105e-19
1.17323e-18
8.40098e-19
1.03887e-18
9.0784e-19
8.99313e-19
9.64445e-19
7.55571e-19
1.01094e-18
6.08513e-19
1.04826e-18
4.58928e-19
1.07719e-18
3.0754e-19
1.09838e-18
1.55e-19
1.1123e-18
1.11927e-18
-6.43191e-11
2.03099e-09
-1.50259e-10
2.07392e-09
-2.72495e-10
2.02264e-09
-4.08804e-10
1.97907e-09
-5.55324e-10
1.85387e-09
-5.95037e-10
1.35843e-09
-7.4879e-10
9.84605e-10
-8.18186e-10
7.241e-10
-9.0792e-10
5.32562e-10
-1.0038e-09
3.82981e-10
-1.08318e-09
1.06589e-10
-1.13137e-09
7.01586e-11
-1.10275e-09
-4.63385e-11
-1.09758e-09
-1.38272e-10
-1.11987e-09
-1.9361e-10
-1.10794e-09
-2.24008e-10
-1.0804e-09
-3.47047e-10
-1.05648e-09
-4.09841e-10
-1.00411e-09
-5.15069e-10
-9.7088e-10
-6.30573e-10
-8.90637e-10
-6.31864e-10
-8.74105e-10
-7.06023e-10
-8.45767e-10
-6.6011e-10
-7.9821e-10
-6.68503e-10
-7.75466e-10
-7.09072e-10
-7.00816e-10
-9.34128e-10
-6.60975e-10
-1.15282e-09
-6.07642e-10
-1.27871e-09
-5.39803e-10
-1.31654e-09
-4.2873e-10
-1.34718e-09
-3.14193e-10
-1.21545e-09
-2.24623e-10
-9.35556e-10
-1.62816e-10
-5.89133e-10
-1.69361e-10
-2.51262e-10
-1.86525e-10
-4.75184e-11
-2.32859e-10
1.70557e-10
-2.11359e-10
5.1381e-10
-2.43153e-10
9.99224e-10
-3.43669e-10
1.17348e-09
-4.19993e-10
1.21404e-09
-4.56489e-10
1.20426e-09
-6.0874e-10
1.24676e-09
-7.24759e-10
1.21622e-09
-7.89504e-10
1.42664e-09
-8.97307e-10
1.48568e-09
-1.08126e-09
1.49219e-09
-1.33191e-09
1.42023e-09
-1.40939e-09
1.01383e-09
-1.31865e-09
8.22845e-10
-1.18453e-09
6.12813e-10
-1.23084e-09
3.84096e-10
-1.17765e-09
1.05184e-10
-1.15979e-09
-1.34922e-10
-1.10483e-09
-1.81977e-10
-1.07095e-09
-4.22384e-10
-1.03324e-09
-7.02725e-10
-9.73257e-10
-8.94219e-10
-8.18037e-10
-9.46621e-10
-7.89528e-10
-1.19128e-09
-7.62244e-10
-1.283e-09
-7.20584e-10
-1.47826e-09
-6.43194e-10
-1.70596e-09
-4.75513e-10
-1.91788e-09
-3.00235e-10
-1.9854e-09
-8.99267e-11
-1.88808e-09
7.99887e-11
-1.76445e-09
2.27093e-10
-1.92084e-09
4.10318e-10
-1.90605e-09
5.15603e-10
-1.55062e-09
4.87043e-10
-1.12179e-09
6.66846e-10
-7.33219e-10
6.6844e-10
-5.58878e-10
6.91091e-10
-2.09093e-11
5.58216e-10
2.11854e-10
6.1509e-10
5.59484e-10
4.43272e-10
1.01345e-09
5.41756e-10
1.26208e-09
4.68368e-10
1.67372e-09
2.66597e-10
1.92689e-09
-3.70276e-16
1.98912e-09
-5.50866e-18
3.07603e-18
-5.43681e-18
1.11869e-18
-5.25851e-18
-2.53766e-20
-4.97117e-18
-9.46973e-19
-4.58589e-18
-1.70413e-18
-4.11763e-18
-2.32143e-18
-3.58456e-18
-2.80884e-18
-3.00696e-18
-3.1714e-18
-2.40565e-18
-3.41389e-18
-1.80079e-18
-3.54296e-18
-1.21049e-18
-3.56795e-18
-6.50164e-19
-3.50064e-18
-1.3213e-19
-3.35469e-18
3.34746e-19
-3.1448e-18
7.44912e-19
-2.88591e-18
1.09586e-18
-2.5924e-18
1.38779e-18
-2.27756e-18
1.62284e-18
-1.95305e-18
1.80424e-18
-1.62854e-18
1.93584e-18
-1.3116e-18
2.02209e-18
-1.00798e-18
2.06797e-18
-7.21889e-19
2.07856e-18
-4.56226e-19
2.05868e-18
-2.12659e-19
2.01269e-18
8.19289e-21
1.94449e-18
2.06522e-19
1.85764e-18
3.83078e-19
1.7553e-18
5.38956e-19
1.64025e-18
6.75459e-19
1.51489e-18
7.94004e-19
1.38124e-18
8.96059e-19
1.24098e-18
9.83087e-19
1.09547e-18
1.0565e-18
9.45812e-19
1.11763e-18
7.92888e-19
1.16769e-18
6.37442e-19
1.20774e-18
4.80115e-19
1.23871e-18
3.21464e-19
1.26133e-18
1.61972e-19
1.27615e-18
1.28352e-18
-2.47567e-10
2.27856e-09
-3.2745e-10
2.1538e-09
-3.09051e-10
2.00425e-09
-3.61507e-10
2.03152e-09
-3.99553e-10
1.89192e-09
-5.12427e-10
1.4713e-09
-6.2739e-10
1.09957e-09
-7.07782e-10
8.04491e-10
-8.09557e-10
6.34337e-10
-8.99498e-10
4.72922e-10
-1.00581e-09
2.12896e-10
-1.03083e-09
9.51795e-11
-9.96444e-10
-8.07212e-11
-9.85914e-10
-1.48803e-10
-9.92609e-10
-1.86915e-10
-9.70059e-10
-2.46558e-10
-9.70502e-10
-3.46604e-10
-9.84062e-10
-3.9628e-10
-9.38816e-10
-5.60314e-10
-9.58732e-10
-6.10657e-10
-9.21842e-10
-6.68752e-10
-9.12153e-10
-7.15711e-10
-8.61613e-10
-7.10648e-10
-8.57996e-10
-6.72118e-10
-8.45362e-10
-7.21703e-10
-8.22463e-10
-9.57025e-10
-7.7544e-10
-1.19984e-09
-7.15674e-10
-1.33848e-09
-6.32222e-10
-1.39999e-09
-5.36575e-10
-1.44283e-09
-4.3403e-10
-1.31799e-09
-3.62007e-10
-1.00758e-09
-2.59684e-10
-6.91454e-10
-2.30562e-10
-2.80381e-10
-2.42866e-10
-3.52124e-11
-2.33217e-10
1.60911e-10
-2.03487e-10
4.84082e-10
-1.95135e-10
9.90874e-10
-2.77438e-10
1.25579e-09
-3.53792e-10
1.29039e-09
-4.25241e-10
1.27571e-09
-5.02724e-10
1.32425e-09
-5.96336e-10
1.30983e-09
-6.48799e-10
1.47911e-09
-7.28456e-10
1.56534e-09
-7.84457e-10
1.54819e-09
-6.94206e-10
1.32998e-09
-6.04969e-10
9.246e-10
-8.61361e-10
1.07924e-09
-9.83483e-10
7.34938e-10
-1.10037e-09
5.00986e-10
-1.09307e-09
9.78901e-11
-1.13552e-09
-9.24776e-11
-1.05866e-09
-2.5883e-10
-9.64391e-10
-5.16656e-10
-9.24353e-10
-7.42763e-10
-8.61766e-10
-9.56807e-10
-7.48201e-10
-1.06019e-09
-6.79878e-10
-1.25961e-09
-5.86823e-10
-1.37606e-09
-5.48038e-10
-1.51704e-09
-5.2953e-10
-1.72446e-09
-4.30968e-10
-2.01645e-09
-2.61037e-10
-2.15533e-09
-5.00805e-11
-2.09903e-09
3.66385e-11
-1.85117e-09
1.26883e-10
-2.01109e-09
2.50485e-10
-2.02966e-09
3.0681e-10
-1.60694e-09
3.34784e-10
-1.14977e-09
3.30622e-10
-7.29057e-10
2.85453e-10
-5.1371e-10
3.60037e-10
-9.54939e-11
3.63748e-10
2.08143e-10
4.67353e-10
4.55878e-10
4.96553e-10
9.84248e-10
4.7121e-10
1.28743e-09
3.56573e-10
1.78835e-09
2.07699e-10
2.07576e-09
-6.29335e-16
2.19682e-09
-6.98619e-18
2.66703e-18
-6.58088e-18
7.13314e-19
-6.18011e-18
-4.25603e-19
-5.72833e-18
-1.39826e-18
-5.20319e-18
-2.22886e-18
-4.60505e-18
-2.91925e-18
-3.94712e-18
-3.46646e-18
-3.24944e-18
-3.86867e-18
-2.53473e-18
-4.1279e-18
-1.82578e-18
-4.25095e-18
-1.14318e-18
-4.24934e-18
-5.04211e-19
-4.13829e-18
7.77566e-20
-3.93557e-18
5.93641e-19
-3.66009e-18
1.03842e-18
-3.33075e-18
1.4107e-18
-2.96534e-18