/*--------------------------------*- C++ -*----------------------------------*\
  =========                 |
  \\      /  F ield         | OpenFOAM: The Open Source CFD Toolbox
   \\    /   O peration     | Website:  https://openfoam.org
    \\  /    A nd           | Version:  6
     \\/     M anipulation  |
\*---------------------------------------------------------------------------*/
FoamFile
{
    version     2.0;
    format      ascii;
    class       volVectorField;
    location    "950";
    object      U;
}
// * * * * * * * * * * * * * * * * * * * * * * * * * * * * * * * * * * * * * //

dimensions      [0 1 -1 0 0 0 0];

internalField   nonuniform List<vector> 
4800
(
(-0.000186383 0 -6.05883e-05)
(-0.000228691 0 8.11941e-05)
(-0.000410288 0 -0.000155655)
(-0.000553981 0 -9.8838e-05)
(-0.000679091 0 7.81624e-05)
(-0.000775658 0 5.10575e-05)
(-0.000827375 0 -4.81423e-05)
(-0.000849168 0 -3.59309e-05)
(-0.000853901 0 -4.52727e-05)
(-0.000841843 0 -6.18531e-05)
(-0.000840909 0 -4.10425e-05)
(-0.000844539 0 -3.8698e-05)
(-0.000831288 0 -8.21009e-05)
(-0.000821748 0 -4.25708e-05)
(-0.000815794 0 -3.87294e-05)
(-0.000816773 0 -3.38864e-05)
(-0.00081718 0 -3.58549e-05)
(-0.000766622 0 -0.000167036)
(-0.000728129 0 3.78598e-05)
(-0.000666638 0 -9.23896e-05)
(-0.000637187 0 -0.00013169)
(-0.000634338 0 -2.17787e-05)
(-0.000580001 0 -2.21962e-05)
(-0.000548109 0 -5.76874e-05)
(-0.000537906 0 -5.37082e-05)
(-0.0004901 0 -4.05127e-05)
(-0.000388451 0 -5.10432e-05)
(-0.000283065 0 -5.14098e-05)
(-0.000196524 0 -5.11998e-06)
(-0.000114714 0 -1.74608e-05)
(-2.87505e-05 0 -8.42614e-05)
(9.24157e-05 0 -0.000109577)
(0.000160089 0 -2.02592e-05)
(0.000207168 0 1.96199e-05)
(0.000219685 0 -3.7292e-05)
(0.000214253 0 -8.23215e-05)
(0.000223814 0 -3.83598e-05)
(0.000199003 0 -3.35196e-05)
(0.000153072 0 -2.17953e-05)
(5.7357e-05 0 -1.7788e-05)
(-8.68237e-05 0 -0.000227384)
(-0.000100607 0 -0.000172144)
(-0.000147746 0 -0.000122958)
(-0.000214812 0 -0.000215235)
(-0.000211647 0 -0.00028849)
(-0.000288112 0 -0.000206735)
(-0.000465829 0 -6.51468e-05)
(-0.000573889 0 -0.000169546)
(-0.000683179 0 3.90853e-05)
(-0.000733048 0 -3.38565e-05)
(-0.000758096 0 -8.75135e-06)
(-0.000766956 0 -1.75506e-05)
(-0.000772968 0 -2.06953e-05)
(-0.000781314 0 -3.58311e-05)
(-0.000798338 0 -3.28454e-05)
(-0.000808439 0 -3.92619e-05)
(-0.000810334 0 -3.75743e-05)
(-0.000804425 0 -5.74868e-05)
(-0.000721598 0 -0.000141628)
(-0.0005699 0 -8.27576e-05)
(-0.000395534 0 -0.000129196)
(-0.000295673 0 -0.000136486)
(-0.000251959 0 -0.000165394)
(-0.000223357 0 -0.0001096)
(-9.76999e-05 0 -0.000122297)
(-6.52515e-05 0 -3.54897e-05)
(5.84562e-05 0 -7.80678e-06)
(7.59239e-05 0 1.24951e-05)
(3.42954e-05 0 5.95187e-05)
(8.54185e-05 0 0.000351517)
(-0.00025503 0 -0.000336731)
(-0.000381379 0 -0.000407443)
(-0.00044662 0 -0.000340155)
(-0.000520715 0 -0.000109767)
(-0.000422859 0 -0.000124263)
(-0.000414537 0 -8.12152e-05)
(-0.000445896 0 -9.22056e-05)
(-0.000479909 0 -0.000133821)
(-0.000547665 0 -0.000165275)
(3.55393e-06 0 -0.000280888)
(-6.30309e-13 0 4.0683e-14)
(-2.13296e-12 0 9.62183e-15)
(-1.27838e-12 0 -1.86536e-14)
(-1.22824e-12 0 -3.11681e-14)
(-1.16098e-12 0 -3.74621e-14)
(-1.08257e-12 0 -4.22679e-14)
(-9.94386e-13 0 -4.68543e-14)
(-8.9707e-13 0 -5.11504e-14)
(-7.91732e-13 0 -5.47824e-14)
(-6.80083e-13 0 -5.74337e-14)
(-5.64277e-13 0 -5.8922e-14)
(-4.46684e-13 0 -5.91895e-14)
(-3.29695e-13 0 -5.82709e-14)
(-2.15576e-13 0 -5.62642e-14)
(-1.06369e-13 0 -5.33073e-14)
(-3.83023e-15 0 -4.95604e-14)
(9.06025e-14 0 -4.51913e-14)
(1.75829e-13 0 -4.03663e-14)
(2.51086e-13 0 -3.52427e-14)
(3.15929e-13 0 -2.99633e-14)
(3.70202e-13 0 -2.46524e-14)
(4.13988e-13 0 -1.94149e-14)
(4.47572e-13 0 -1.43379e-14)
(4.71385e-13 0 -9.49285e-15)
(4.85968e-13 0 -4.93478e-15)
(4.91932e-13 0 -7.00529e-16)
(4.89936e-13 0 3.19116e-15)
(4.80666e-13 0 6.73548e-15)
(4.64823e-13 0 9.93615e-15)
(4.43094e-13 0 1.28012e-14)
(4.16132e-13 0 1.53409e-14)
(3.84543e-13 0 1.75684e-14)
(3.48881e-13 0 1.94982e-14)
(3.09657e-13 0 2.11455e-14)
(2.67351e-13 0 2.25236e-14)
(2.22422e-13 0 2.36432e-14)
(1.75326e-13 0 2.45135e-14)
(1.26519e-13 0 2.51458e-14)
(7.64604e-14 0 2.55601e-14)
(2.5588e-14 0 2.58013e-14)
(-0.000107519 0 0.00024566)
(-0.000266516 0 0.000212725)
(-0.0003085 0 0.000316634)
(-0.000477706 0 0.000300069)
(-0.000659277 0 0.000100521)
(-0.000726333 0 9.14722e-05)
(-0.000774374 0 0.000104398)
(-0.000808086 0 5.47169e-05)
(-0.000824703 0 3.78856e-05)
(-0.000827675 0 2.51843e-05)
(-0.000828334 0 7.66349e-06)
(-0.000820859 0 4.88103e-05)
(-0.00080015 0 2.31126e-05)
(-0.000788905 0 5.52928e-06)
(-0.000785049 0 -1.75136e-05)
(-0.000785666 0 -3.82927e-05)
(-0.000775593 0 -2.2465e-05)
(-0.000739024 0 -1.18386e-05)
(-0.000704306 0 -9.04725e-05)
(-0.000670714 0 -0.000127589)
(-0.000644982 0 -7.28992e-05)
(-0.000604701 0 3.51395e-05)
(-0.000552531 0 -0.000127555)
(-0.000532764 0 -8.76977e-05)
(-0.00050419 0 -7.75062e-05)
(-0.000456146 0 -8.79004e-05)
(-0.000382291 0 -0.00014413)
(-0.000243965 0 -0.000242771)
(-0.000204296 0 -0.0001427)
(-0.000154663 0 -0.000122919)
(-1.15697e-05 0 -0.000203624)
(5.77329e-05 0 -0.000151393)
(0.000106337 0 -0.000147217)
(0.000139222 0 -6.99021e-05)
(0.000190084 0 -2.81142e-05)
(0.000193149 0 1.45062e-05)
(0.000179224 0 5.42579e-05)
(0.00015768 0 8.02302e-05)
(7.79053e-05 0 0.000126055)
(8.05263e-05 0 0.000121398)
(-9.63431e-05 0 0.000230669)
(-0.000109647 0 0.000216173)
(-0.000189436 0 0.000166111)
(-0.000403165 0 0.00016582)
(-0.00044942 0 0.000253166)
(-0.000538323 0 0.00017151)
(-0.000583129 0 0.000212919)
(-0.00063642 0 0.000281474)
(-0.000741872 0 9.30172e-05)
(-0.000765767 0 8.85411e-05)
(-0.000795165 0 5.37593e-05)
(-0.000823852 0 1.44758e-05)
(-0.000844796 0 1.625e-05)
(-0.000853995 0 2.76193e-05)
(-0.00082897 0 4.06572e-05)
(-0.000783771 0 2.32039e-05)
(-0.000754984 0 1.06604e-05)
(-0.000726903 0 -0.000104322)
(-0.000669255 0 -0.000156787)
(-0.000585919 0 -0.000116984)
(-0.000406207 0 -0.000333216)
(-0.000409089 0 -0.000139238)
(-0.000371319 0 2.39474e-05)
(-0.000237477 0 -2.00878e-05)
(-5.83336e-05 0 -0.000161481)
(-3.96978e-05 0 -5.428e-05)
(9.03243e-06 0 -6.60057e-05)
(0.000123978 0 1.54252e-05)
(0.000133747 0 0.000191963)
(0.00028427 0 -0.000463619)
(0.000465371 0 0.00030054)
(0.000492172 0 0.000327271)
(0.000542486 0 0.000312404)
(0.000500712 0 0.000321314)
(0.000469636 0 0.000231353)
(-2.35768e-05 0 6.15494e-05)
(-0.000275268 0 -4.45231e-05)
(-0.000341413 0 -0.000183148)
(-0.000517238 0 -0.000212179)
(4.63369e-06 0 -0.000408203)
(-9.33163e-13 0 2.84356e-13)
(-2.21336e-12 0 1.02485e-14)
(-1.31917e-12 0 -7.41366e-14)
(-1.24705e-12 0 -9.99111e-14)
(-1.17208e-12 0 -1.13754e-13)
(-1.09197e-12 0 -1.27088e-13)
(-1.00327e-12 0 -1.41055e-13)
(-9.04998e-13 0 -1.54353e-13)
(-7.98015e-13 0 -1.65551e-13)
(-6.84222e-13 0 -1.73657e-13)
(-5.66033e-13 0 -1.78151e-13)
(-4.46033e-13 0 -1.78893e-13)
(-3.2677e-13 0 -1.76018e-13)
(-2.10613e-13 0 -1.69847e-13)
(-9.96651e-14 0 -1.60813e-13)
(4.28581e-15 0 -1.49405e-13)
(9.97966e-14 0 -1.36133e-13)
(1.85778e-13 0 -1.21494e-13)
(2.61489e-13 0 -1.05958e-13)
(3.2652e-13 0 -8.99554e-14)
(3.8075e-13 0 -7.38643e-14)
(4.24303e-13 0 -5.80082e-14)
(4.57494e-13 0 -4.26537e-14)
(4.80788e-13 0 -2.80128e-14)
(4.9476e-13 0 -1.42436e-14)
(5.00058e-13 0 -1.45057e-15)
(4.97372e-13 0 1.03093e-14)
(4.87411e-13 0 2.10148e-14)
(4.70889e-13 0 3.06678e-14)
(4.48498e-13 0 3.92859e-14)
(4.20899e-13 0 4.68986e-14)
(3.887e-13 0 5.35458e-14)
(3.52458e-13 0 5.92745e-14)
(3.12682e-13 0 6.41338e-14)
(2.69848e-13 0 6.81713e-14)
(2.24412e-13 0 7.14308e-14)
(1.76828e-13 0 7.39551e-14)
(1.27565e-13 0 7.57895e-14)
(7.71159e-14 0 7.69879e-14)
(2.58292e-14 0 7.76235e-14)
(-7.56546e-05 0 0.000362057)
(-0.000240298 0 0.000335297)
(-0.000355713 0 0.000323217)
(-0.000454146 0 0.000355557)
(-0.000548223 0 0.000318995)
(-0.000637134 0 0.000186345)
(-0.000683885 0 7.30145e-05)
(-0.000717046 0 2.25042e-05)
(-0.000730192 0 7.37116e-06)
(-0.000735027 0 -4.78413e-05)
(-0.000746667 0 -3.89359e-05)
(-0.000749785 0 -2.31186e-05)
(-0.000726664 0 -6.07547e-05)
(-0.000701793 0 -5.67922e-05)
(-0.00068858 0 -3.41005e-05)
(-0.000685725 0 -3.72732e-05)
(-0.000684692 0 -5.29441e-05)
(-0.000661822 0 -9.87261e-05)
(-0.00065581 0 -7.99046e-05)
(-0.000643581 0 -0.000116956)
(-0.00058969 0 -0.000144324)
(-0.000548851 0 -0.000129097)
(-0.000512922 0 -0.000130029)
(-0.000481994 0 -0.000108294)
(-0.000444509 0 -0.000105778)
(-0.000411686 0 -0.000132575)
(-0.000389624 0 -0.000131409)
(-0.000251164 0 -0.000292336)
(-0.00024058 0 -0.000188093)
(-0.00016691 0 -0.000199416)
(-0.000147108 0 -0.000193174)
(-4.55818e-05 0 -0.00024602)
(9.05285e-05 0 -0.000194475)
(5.25018e-06 0 -7.98353e-05)
(0.00011504 0 -3.4609e-05)
(0.000122844 0 -6.46248e-06)
(7.84677e-05 0 6.47357e-05)
(4.55759e-05 0 0.000132226)
(9.76434e-06 0 0.000185582)
(-0.000122997 0 0.00016865)
(-0.000229248 0 0.000133258)
(-0.00024944 0 0.000108501)
(-0.000201898 0 0.000253518)
(-0.000327261 0 0.000283644)
(-0.00048749 0 0.000185155)
(-0.000551307 0 0.000239722)
(-0.000626787 0 0.000208691)
(-0.000674551 0 0.00014986)
(-0.000698635 0 0.000189534)
(-0.00075035 0 8.58579e-05)
(-0.000792185 0 5.83441e-05)
(-0.000828552 0 5.02085e-05)
(-0.000840794 0 2.49578e-05)
(-0.000843902 0 2.23326e-05)
(-0.000839762 0 -2.1489e-05)
(-0.000770749 0 -8.48548e-05)
(-0.000718264 0 -7.77468e-05)
(-0.000695842 0 -9.22726e-05)
(-0.000676242 0 -0.000143846)
(-0.000581809 0 -0.000304196)
(-0.00049571 0 -0.000295992)
(-0.0004697 0 -7.39501e-05)
(-0.000338759 0 -0.000147539)
(-0.000123537 0 -0.000349301)
(3.54237e-05 0 -0.000270115)
(7.3324e-05 0 -0.000198613)
(7.55105e-05 0 -0.000141466)
(0.000171853 0 -0.000118175)
(0.000295579 0 2.56679e-05)
(0.00032756 0 -0.000123465)
(0.000427674 0 -2.92406e-05)
(0.000476037 0 0.000169473)
(0.000593874 0 -2.68091e-05)
(0.000557001 0 0.000208008)
(0.00053435 0 0.000249152)
(0.000418112 0 0.000233205)
(0.000238539 0 0.000215997)
(0.000297973 0 0.00018508)
(-0.000206166 0 -0.000119086)
(4.42125e-06 0 -0.000416355)
(-9.00119e-13 0 -1.5165e-13)
(-2.54533e-12 0 -2.10208e-13)
(-1.38854e-12 0 -1.9013e-13)
(-1.26786e-12 0 -1.8075e-13)
(-1.18816e-12 0 -1.90428e-13)
(-1.10987e-12 0 -2.11307e-13)
(-1.02165e-12 0 -2.36085e-13)
(-9.21566e-13 0 -2.59842e-13)
(-8.11036e-13 0 -2.79574e-13)
(-6.92683e-13 0 -2.93613e-13)
(-5.69513e-13 0 -3.01214e-13)
(-4.44552e-13 0 -3.02265e-13)
(-3.2065e-13 0 -2.9709e-13)
(-2.00371e-13 0 -2.86301e-13)
(-8.59266e-14 0 -2.70681e-13)
(2.08494e-14 0 -2.5109e-13)
(1.18513e-13 0 -2.28405e-13)
(2.06004e-13 0 -2.03473e-13)
(2.82625e-13 0 -1.77091e-13)
(3.48024e-13 0 -1.49981e-13)
(4.02149e-13 0 -1.22782e-13)
(4.45199e-13 0 -9.60357e-14)
(4.77567e-13 0 -7.01801e-14)
(4.99795e-13 0 -4.55591e-14)
(5.1253e-13 0 -2.24266e-14)
(5.16485e-13 0 -9.53138e-16)
(5.12401e-13 0 1.87637e-14)
(5.01025e-13 0 3.66838e-14)
(4.83094e-13 0 5.28078e-14)
(4.59324e-13 0 6.7165e-14)
(4.30392e-13 0 7.98072e-14)
(3.96919e-13 0 9.08039e-14)
(3.59469e-13 0 1.00238e-13)
(3.18554e-13 0 1.08199e-13)
(2.74648e-13 0 1.1478e-13)
(2.28206e-13 0 1.20072e-13)
(1.79685e-13 0 1.24167e-13)
(1.29551e-13 0 1.27152e-13)
(7.82944e-14 0 1.29108e-13)
(2.62236e-14 0 1.30095e-13)
(-4.52059e-05 0 0.000488935)
(-0.000125431 0 0.000464369)
(-0.000283424 0 0.000454222)
(-0.000385267 0 0.000445822)
(-0.000494428 0 0.00035941)
(-0.000592381 0 0.000187996)
(-0.000634961 0 8.13989e-05)
(-0.000648266 0 9.49244e-05)
(-0.00064776 0 6.44814e-05)
(-0.000651389 0 2.34616e-05)
(-0.000671265 0 7.16107e-06)
(-0.000675145 0 -1.65819e-05)
(-0.000677538 0 -2.24205e-05)
(-0.000660647 0 -2.30113e-05)
(-0.00062984 0 -4.02529e-05)
(-0.000625076 0 -5.4014e-05)
(-0.000629145 0 -5.80722e-05)
(-0.00059264 0 -6.19422e-05)
(-0.000569095 0 -9.47635e-05)
(-0.000561263 0 -9.15416e-05)
(-0.000534465 0 -9.09523e-05)
(-0.000511366 0 -5.33049e-05)
(-0.000467911 0 -0.000119918)
(-0.000435494 0 -0.000124685)
(-0.000396161 0 -0.000154081)
(-0.000377401 0 -0.000163954)
(-0.000327432 0 -0.00024562)
(-0.000268307 0 -0.000284804)
(-0.000227616 0 -0.0002578)
(-0.000170428 0 -0.000277588)
(-9.241e-05 0 -0.000311823)
(7.64085e-06 0 -0.000305583)
(-5.40378e-06 0 -0.000203425)
(3.40508e-05 0 -0.000136542)
(5.58181e-05 0 -6.70201e-05)
(6.0696e-05 0 1.61113e-06)
(3.83554e-05 0 0.000101822)
(1.22229e-05 0 0.000179357)
(-1.98263e-05 0 0.000252167)
(-8.99633e-05 0 0.000266806)
(-0.000192003 0 0.000235507)
(-0.000310932 0 0.000146198)
(-0.000366183 0 0.000143552)
(-0.000355189 0 0.000295976)
(-0.000469467 0 0.000255504)
(-0.000548191 0 0.000244705)
(-0.000581962 0 0.000308713)
(-0.000639457 0 0.000256519)
(-0.000682735 0 0.000185832)
(-0.000719459 0 0.000177222)
(-0.000779873 0 0.00010217)
(-0.000803708 0 7.78224e-05)
(-0.000816279 0 1.33319e-05)
(-0.000826889 0 -4.7904e-05)
(-0.000838742 0 -2.18012e-05)
(-0.000792749 0 -8.15637e-05)
(-0.000699697 0 -0.000155761)
(-0.000647426 0 -0.000186099)
(-0.000623893 0 -0.000214753)
(-0.000549163 0 -0.000358374)
(-0.000492628 0 -0.000328951)
(-0.000428268 0 -0.000270479)
(-0.000166861 0 -0.000446249)
(-0.000156159 0 -0.000361525)
(-0.000183413 0 -0.000297527)
(-3.80589e-05 0 -0.000309886)
(0.000201278 0 -0.000180677)
(0.000226916 0 -0.000171702)
(0.000335197 0 -9.51843e-05)
(0.000268631 0 -0.000345655)
(0.000451598 0 -7.17602e-05)
(0.00049121 0 -4.42e-05)
(0.000530215 0 3.48368e-05)
(0.000558415 0 0.000141875)
(0.000616338 0 0.000233758)
(0.000606198 0 0.000315878)
(0.000539991 0 0.000278972)
(0.000448186 0 0.000241139)
(-5.17158e-05 0 -2.51313e-05)
(4.4015e-06 0 -0.000253625)
(-7.22076e-13 0 -1.41183e-12)
(-2.31245e-12 0 -5.38634e-13)
(-1.28971e-12 0 -2.94684e-13)
(-1.24734e-12 0 -2.4249e-13)
(-1.20264e-12 0 -2.55921e-13)
(-1.13762e-12 0 -2.91623e-13)
(-1.0518e-12 0 -3.32114e-13)
(-9.48487e-13 0 -3.69319e-13)
(-8.31787e-13 0 -3.99233e-13)
(-7.05863e-13 0 -4.19936e-13)
(-5.74684e-13 0 -4.30748e-13)
(-4.41909e-13 0 -4.31782e-13)
(-3.10806e-13 0 -4.23695e-13)
(-1.84204e-13 0 -4.07495e-13)
(-6.44535e-14 0 -3.84398e-13)
(4.6562e-14 0 -3.55708e-13)
(1.47413e-13 0 -3.22728e-13)
(2.37092e-13 0 -2.86696e-13)
(3.14982e-13 0 -2.48759e-13)
(3.80828e-13 0 -2.09946e-13)
(4.34695e-13 0 -1.71157e-13)
(4.76905e-13 0 -1.3314e-13)
(5.0797e-13 0 -9.64946e-14)
(5.28542e-13 0 -6.16814e-14)
(5.39366e-13 0 -2.9041e-14)
(5.41248e-13 0 1.19453e-15)
(5.35009e-13 0 2.8892e-14)
(5.21456e-13 0 5.40009e-14)
(5.0137e-13 0 7.6533e-14)
(4.75498e-13 0 9.65433e-14)
(4.44538e-13 0 1.14117e-13)
(4.09131e-13 0 1.29364e-13)
(3.69853e-13 0 1.42409e-13)
(3.27225e-13 0 1.53392e-13)
(2.81721e-13 0 1.62457e-13)
(2.33799e-13 0 1.69746e-13)
(1.83908e-13 0 1.75397e-13)
(1.32506e-13 0 1.79533e-13)
(8.00593e-14 0 1.82259e-13)
(2.68165e-14 0 1.83641e-13)
(-6.67521e-05 0 0.00058801)
(-7.80133e-05 0 0.000553565)
(-0.000227768 0 0.000550099)
(-0.000282665 0 0.000546148)
(-0.000340901 0 0.000481059)
(-0.000431672 0 0.000355548)
(-0.000460401 0 0.000313014)
(-0.000548193 0 0.000159616)
(-0.000572317 0 -2.97009e-05)
(-0.000582533 0 -1.92435e-05)
(-0.00060026 0 -8.71832e-07)
(-0.000603794 0 -2.33251e-05)
(-0.000601836 0 -6.71796e-05)
(-0.000605342 0 -5.61331e-05)
(-0.000591203 0 -0.00012786)
(-0.000585583 0 -4.43823e-05)
(-0.000563438 0 -5.00319e-06)
(-0.000541377 0 -0.000103939)
(-0.000520798 0 -0.000189332)
(-0.000517202 0 -0.000104858)
(-0.000453958 0 -0.000205799)
(-0.00043934 0 -0.000150894)
(-0.000401169 0 -0.000170288)
(-0.000389485 0 -0.000140266)
(-0.000362123 0 -0.000166431)
(-0.000333674 0 -0.000210115)
(-0.000300103 0 -0.000269958)
(-0.0002641 0 -0.000296114)
(-0.000185354 0 -0.000331203)
(-0.000147548 0 -0.000340383)
(-5.69945e-05 0 -0.000364209)
(-8.0069e-05 0 -0.000301365)
(-9.80922e-05 0 -0.000195019)
(-3.11917e-05 0 -0.000138028)
(-5.57573e-05 0 3.50446e-06)
(5.4432e-06 0 2.05528e-05)
(-1.1698e-05 0 0.000112531)
(-3.23576e-05 0 0.000232241)
(-3.7158e-05 0 0.000322636)
(-0.000103312 0 0.000333588)
(-0.000184643 0 0.00029615)
(-0.000229581 0 0.000277625)
(-0.00031504 0 0.000331368)
(-0.000246879 0 0.000462464)
(-0.000328444 0 0.000450381)
(-0.000538521 0 0.000304111)
(-0.000572658 0 0.000314324)
(-0.000603036 0 0.000314842)
(-0.000662793 0 0.000245576)
(-0.000721207 0 0.000178284)
(-0.000750192 0 0.000149521)
(-0.000758447 0 0.000113121)
(-0.000759123 0 3.65526e-05)
(-0.000758038 0 6.92337e-06)
(-0.00075213 0 -6.18846e-05)
(-0.000693252 0 -0.000193442)
(-0.000628557 0 -0.000219801)
(-0.000581929 0 -0.000243297)
(-0.000529615 0 -0.000317425)
(-0.000476832 0 -0.000396969)
(-0.000435021 0 -0.000410392)
(-0.000230215 0 -0.000510338)
(-0.000242315 0 -0.000444454)
(-0.000248585 0 -0.000430228)
(5.82997e-05 0 -0.000487231)
(-3.34527e-05 0 -0.0003988)
(0.000143237 0 -0.00029791)
(0.000221517 0 -0.000276632)
(0.00032699 0 -0.000237593)
(0.000448199 0 -0.000173185)
(0.000410523 0 -0.000310124)
(0.000513407 0 -2.27833e-05)
(0.000538815 0 6.2108e-06)
(0.000566102 0 0.00014029)
(0.000630348 0 0.000191845)
(0.000634164 0 0.000349539)
(0.000593656 0 0.000389796)
(0.000552397 0 0.000301964)
(0.000392624 0 0.000210127)
(4.91319e-06 0 -6.78895e-05)
(-5.23552e-13 0 -4.38423e-13)
(-1.46537e-12 0 -2.50076e-13)
(-1.0924e-12 0 -2.07171e-13)
(-1.22909e-12 0 -2.38537e-13)
(-1.23729e-12 0 -2.99167e-13)
(-1.18607e-12 0 -3.67195e-13)
(-1.09935e-12 0 -4.31474e-13)
(-9.88684e-13 0 -4.86134e-13)
(-8.61654e-13 0 -5.28153e-13)
(-7.24198e-13 0 -5.56217e-13)
(-5.81358e-13 0 -5.70141e-13)
(-4.37499e-13 0 -5.70528e-13)
(-2.96363e-13 0 -5.58538e-13)
(-1.61074e-13 0 -5.3571e-13)
(-3.41399e-14 0 -5.03803e-13)
(8.252e-14 0 -4.64656e-13)
(1.87525e-13 0 -4.20072e-13)
(2.79973e-13 0 -3.71739e-13)
(3.59375e-13 0 -3.21182e-13)
(4.25626e-13 0 -2.69753e-13)
(4.78955e-13 0 -2.18617e-13)
(5.19861e-13 0 -1.68734e-13)
(5.49026e-13 0 -1.20857e-13)
(5.67249e-13 0 -7.55472e-14)
(5.75406e-13 0 -3.32103e-14)
(5.74418e-13 0 5.88364e-15)
(5.65208e-13 0 4.15836e-14)
(5.48666e-13 0 7.38419e-14)
(5.25637e-13 0 1.02693e-13)
(4.96909e-13 0 1.28232e-13)
(4.63212e-13 0 1.50593e-13)
(4.2521e-13 0 1.69942e-13)
(3.83498e-13 0 1.86462e-13)
(3.38602e-13 0 2.00352e-13)
(2.91002e-13 0 2.11809e-13)
(2.41146e-13 0 2.21028e-13)
(1.89471e-13 0 2.28187e-13)
(1.36413e-13 0 2.33441e-13)
(8.2402e-14 0 2.36911e-13)
(2.76057e-14 0 2.38674e-13)
(-5.85307e-05 0 0.000664691)
(-0.000130564 0 0.000623953)
(-0.000207503 0 0.00061822)
(-0.000259653 0 0.00059705)
(-0.00032963 0 0.000499819)
(-0.000348933 0 0.000419321)
(-0.000545412 0 3.29824e-05)
(-0.000449488 0 0.000188313)
(-0.000518183 0 4.65561e-05)
(-0.000535538 0 2.60329e-05)
(-0.000541198 0 1.41713e-05)
(-0.000538088 0 7.63062e-07)
(-0.000552685 0 -4.11509e-05)
(-0.000570428 0 -5.00784e-05)
(-0.000575038 0 -5.66163e-05)
(-0.000545789 0 -0.000116615)
(-0.000514741 0 -0.000132363)
(-0.0005158 0 -0.000117944)
(-0.000515717 0 -0.000102069)
(-0.000479744 0 -0.000162367)
(-0.00045112 0 -0.000181195)
(-0.000422676 0 -0.000177614)
(-0.000383272 0 -0.000184749)
(-0.0003602 0 -0.000171895)
(-0.000333953 0 -0.000194062)
(-0.000309562 0 -0.000234668)
(-0.000248681 0 -0.000331074)
(-0.000201516 0 -0.000366808)
(-0.000154567 0 -0.00037934)
(-9.82086e-05 0 -0.00038828)
(-6.33467e-05 0 -0.000376993)
(-3.58237e-05 0 -0.000326429)
(-1.209e-05 0 -0.000250832)
(-3.19044e-05 0 -0.000153006)
(-2.60959e-05 0 -6.59156e-05)
(-4.6946e-05 0 2.55557e-05)
(-4.22337e-05 0 0.000104079)
(-7.94103e-05 0 0.000266916)
(-5.72995e-05 0 0.000383936)
(-6.05083e-05 0 0.000434193)
(-0.000180426 0 0.000372022)
(-0.000229082 0 0.000327313)
(-0.000482571 0 0.000250041)
(-0.000545282 0 0.000249263)
(-0.000463353 0 0.000399277)
(-0.000497561 0 0.000424877)
(-0.000543874 0 0.000377067)
(-0.000596656 0 0.000317461)
(-0.000641678 0 0.000288484)
(-0.000666022 0 0.000264577)
(-0.000689362 0 0.000180028)
(-0.000694013 0 5.87458e-05)
(-0.000664765 0 -9.0041e-06)
(-0.00063055 0 -3.35995e-05)
(-0.000617033 0 -8.47246e-05)
(-0.000604427 0 -0.000162014)
(-0.000535082 0 -0.000298728)
(-0.000528775 0 -0.000275897)
(-0.000481386 0 -0.000349108)
(-0.000433983 0 -0.000430551)
(-0.000398361 0 -0.0004632)
(-0.000220824 0 -0.000558354)
(-0.00030378 0 -0.000498457)
(-9.44085e-05 0 -0.000560402)
(-0.000149504 0 -0.000500479)
(-5.3188e-05 0 -0.000469055)
(9.08659e-05 0 -0.000425487)
(0.000210771 0 -0.000395725)
(0.000299542 0 -0.000379783)
(0.00045954 0 -0.000247634)
(0.00047439 0 -0.000212683)
(0.000490432 0 -9.21803e-05)
(0.000519885 0 -3.37025e-05)
(0.000552057 0 0.000131001)
(0.000603452 0 0.00015839)
(0.000582318 0 0.000361516)
(0.000565969 0 0.000381947)
(0.00051038 0 0.000367806)
(9.41568e-05 0 0.000438109)
(4.12366e-06 0 0.000227126)
(-5.17064e-13 0 9.07917e-13)
(-2.069e-12 0 2.08225e-13)
(-1.27817e-12 0 -4.52237e-14)
(-1.33934e-12 0 -2.05195e-13)
(-1.33129e-12 0 -3.34963e-13)
(-1.26993e-12 0 -4.46509e-13)
(-1.17074e-12 0 -5.40479e-13)
(-1.04517e-12 0 -6.15651e-13)
(-9.0187e-13 0 -6.71127e-13)
(-7.47851e-13 0 -7.0678e-13)
(-5.88995e-13 0 -7.2326e-13)
(-4.30305e-13 0 -7.21883e-13)
(-2.75989e-13 0 -7.04491e-13)
(-1.29469e-13 0 -6.73295e-13)
(6.60083e-15 0 -6.30721e-13)
(1.30293e-13 0 -5.79247e-13)
(2.4033e-13 0 -5.21272e-13)
(3.35982e-13 0 -4.59001e-13)
(4.16968e-13 0 -3.94385e-13)
(4.83393e-13 0 -3.29119e-13)
(5.35714e-13 0 -2.64638e-13)
(5.74665e-13 0 -2.02114e-13)
(6.01158e-13 0 -1.42443e-13)
(6.16188e-13 0 -8.6269e-14)
(6.20797e-13 0 -3.40319e-14)
(6.16042e-13 0 1.39943e-14)
(6.02967e-13 0 5.76727e-14)
(5.82565e-13 0 9.69853e-14)
(5.5576e-13 0 1.32011e-13)
(5.23398e-13 0 1.62904e-13)
(4.86248e-13 0 1.89866e-13)
(4.45e-13 0 2.13135e-13)
(4.00263e-13 0 2.32965e-13)
(3.52571e-13 0 2.49616e-13)
(3.02398e-13 0 2.63346e-13)
(2.50177e-13 0 2.74397e-13)
(1.96321e-13 0 2.82985e-13)
(1.41231e-13 0 2.89294e-13)
(8.52925e-14 0 2.93462e-13)
(2.85793e-14 0 2.95575e-13)
(-0.000121272 0 0.000738303)
(-9.90412e-05 0 0.000710804)
(-0.000166271 0 0.000684923)
(-0.000226956 0 0.00065159)
(-0.000260882 0 0.000570236)
(-0.000296088 0 0.000476779)
(-0.000214392 0 0.000441009)
(-0.000373359 0 0.000244238)
(-0.000438682 0 0.00011015)
(-0.000488132 0 4.34353e-05)
(-0.00048776 0 3.29213e-05)
(-0.00049295 0 -1.51483e-05)
(-0.000519268 0 -3.31947e-05)
(-0.000525836 0 -2.43221e-05)
(-0.000519742 0 -8.86706e-05)
(-0.000528129 0 -5.88357e-05)
(-0.000517537 0 -7.39765e-05)
(-0.000490003 0 -0.000143455)
(-0.00046354 0 -0.00019372)
(-0.000448545 0 -0.000211437)
(-0.000418852 0 -0.000251643)
(-0.000418215 0 -0.000190831)
(-0.000356678 0 -0.000239043)
(-0.00035733 0 -0.000179478)
(-0.000320991 0 -0.00021288)
(-0.000293543 0 -0.000255876)
(-0.000224291 0 -0.000360092)
(-0.000150492 0 -0.000422059)
(-0.0001027 0 -0.000438521)
(-6.57424e-05 0 -0.000428618)
(-6.53406e-05 0 -0.000394573)
(-2.36624e-05 0 -0.00032388)
(-3.85313e-05 0 -0.000218748)
(-6.31779e-05 0 -0.000113944)
(-7.5388e-05 0 -2.66597e-05)
(-7.06507e-05 0 1.28445e-05)
(-0.000103641 0 0.000175494)
(-0.000178472 0 0.00029793)
(-0.000264445 0 0.000350048)
(-0.000329362 0 0.000353934)
(-0.000247754 0 0.000409012)
(-0.00025129 0 0.000395141)
(-0.000269986 0 0.000467117)
(-0.000293969 0 0.000544211)
(-0.000492199 0 0.00044591)
(-0.000488385 0 0.000464893)
(-0.000553881 0 0.000384585)
(-0.000592351 0 0.000319585)
(-0.000617174 0 0.000293805)
(-0.000628648 0 0.000232313)
(-0.000610462 0 0.000107511)
(-0.000583998 0 0.000107092)
(-0.000578866 0 3.74817e-06)
(-0.000552421 0 -0.000102684)
(-0.000540816 0 -0.000124257)
(-0.000512755 0 -0.000203882)
(-0.000495955 0 -0.000224901)
(-0.000471663 0 -0.000310194)
(-0.000357947 0 -0.000468948)
(-0.00039653 0 -0.00046879)
(-0.000329283 0 -0.000550065)
(-0.000317319 0 -0.000572407)
(-0.000247705 0 -0.000606859)
(-0.000120788 0 -0.000609352)
(-0.000108715 0 -0.000556963)
(1.36637e-05 0 -0.00055176)
(5.97319e-05 0 -0.000575879)
(0.000184894 0 -0.000544462)
(0.00032224 0 -0.000455291)
(0.000367799 0 -0.000383865)
(0.00043846 0 -0.000267104)
(0.000463786 0 -0.000106638)
(0.000475289 0 -0.000109136)
(0.000511051 0 0.000104107)
(0.000531119 0 0.000198922)
(0.000597394 0 0.000216557)
(0.000360685 0 0.000528276)
(0.00035565 0 0.000518082)
(-5.2288e-05 0 0.000517252)
(4.37718e-06 0 0.000396113)
(-6.60631e-13 0 6.40205e-13)
(-2.34876e-12 0 2.8896e-13)
(-1.50582e-12 0 2.34433e-14)
(-1.51883e-12 0 -2.01858e-13)
(-1.4786e-12 0 -3.88827e-13)
(-1.39158e-12 0 -5.43294e-13)
(-1.26849e-12 0 -6.6822e-13)
(-1.11933e-12 0 -7.64837e-13)
(-9.52783e-13 0 -8.33941e-13)
(-7.76331e-13 0 -8.76579e-13)
(-5.96462e-13 0 -8.94347e-13)
(-4.18729e-13 0 -8.89419e-13)
(-2.47774e-13 0 -8.64466e-13)
(-8.73044e-14 0 -8.22525e-13)
(5.9908e-14 0 -7.66821e-13)
(1.91969e-13 0 -7.00593e-13)
(3.07772e-13 0 -6.26935e-13)
(4.0686e-13 0 -5.48652e-13)
(4.89257e-13 0 -4.68178e-13)
(5.55372e-13 0 -3.87572e-13)
(6.05959e-13 0 -3.08541e-13)
(6.42057e-13 0 -2.32453e-13)
(6.64871e-13 0 -1.60333e-13)
(6.7566e-13 0 -9.28838e-14)
(6.75669e-13 0 -3.05441e-14)
(6.66123e-13 0 2.6453e-14)
(6.48199e-13 0 7.8031e-14)
(6.23004e-13 0 1.24241e-13)
(5.91555e-13 0 1.65239e-13)
(5.54764e-13 0 2.01261e-13)
(5.13443e-13 0 2.32594e-13)
(4.68309e-13 0 2.59559e-13)
(4.19979e-13 0 2.8249e-13)
(3.68983e-13 0 3.01716e-13)
(3.15782e-13 0 3.17554e-13)
(2.60785e-13 0 3.30295e-13)
(2.04369e-13 0 3.40194e-13)
(1.4689e-13 0 3.47462e-13)
(8.86828e-14 0 3.52257e-13)
(2.97187e-14 0 3.54678e-13)
(-0.000100288 0 0.000834252)
(-4.88398e-06 0 0.00078601)
(-7.98703e-05 0 0.000739759)
(-0.000139995 0 0.000712046)
(-0.000232311 0 0.000620495)
(-0.00030221 0 0.000465343)
(-0.000459672 0 0.00016252)
(-0.000358274 0 0.000245647)
(-0.000398628 0 0.000168558)
(-0.000437523 0 9.9923e-05)
(-0.000453012 0 1.89585e-06)
(-0.000473482 0 -1.21532e-06)
(-0.000484805 0 -1.29745e-06)
(-0.00047916 0 -7.12671e-05)
(-0.000478388 0 -0.000104737)
(-0.000483402 0 -0.000102921)
(-0.000469129 0 -0.000130403)
(-0.00046332 0 -0.000143446)
(-0.000458066 0 -0.000162139)
(-0.000437849 0 -0.000210703)
(-0.000452216 0 -0.000169467)
(-0.000378782 0 -0.00026412)
(-0.000356198 0 -0.000240118)
(-0.000333208 0 -0.000225108)
(-0.000290278 0 -0.00027173)
(-0.000272789 0 -0.000314081)
(-0.000207932 0 -0.00042599)
(-0.000164768 0 -0.000470462)
(-0.000127068 0 -0.000484032)
(-9.9688e-05 0 -0.000483318)
(-4.15307e-05 0 -0.000445229)
(-5.02958e-05 0 -0.000326171)
(-4.53434e-05 0 -0.000212122)
(-5.14437e-05 0 -0.000111764)
(-7.33865e-05 0 -3.01889e-05)
(-8.54282e-05 0 4.10116e-05)
(-0.000101884 0 0.000224723)
(-0.000139116 0 0.000371851)
(-0.000197884 0 0.000420289)
(-0.000192222 0 0.000463664)
(-0.000246527 0 0.000459245)
(-0.000311551 0 0.000431939)
(-0.00030213 0 0.000462137)
(-0.000315118 0 0.000547223)
(-0.000378144 0 0.00055145)
(-0.000433152 0 0.000515296)
(-0.000432945 0 0.000522477)
(-0.000444115 0 0.000501203)
(-0.000470224 0 0.000445232)
(-0.000521089 0 0.000317791)
(-0.000564153 0 8.80903e-05)
(-0.000523316 0 1.96182e-05)
(-0.000502613 0 2.2343e-05)
(-0.000502228 0 -4.07148e-05)
(-0.000498296 0 -0.000115904)
(-0.000439364 0 -0.000266792)
(-0.000370214 0 -0.000363485)
(-0.000462695 0 -0.00027909)
(-0.000342422 0 -0.000457092)
(-0.000362273 0 -0.00048827)
(-0.000337666 0 -0.000563853)
(-0.000278496 0 -0.000643365)
(-0.000250368 0 -0.000673874)
(-0.000176066 0 -0.000681735)
(-5.01091e-05 0 -0.000639216)
(-1.28334e-05 0 -0.000617435)
(7.75497e-05 0 -0.000678224)
(0.000178818 0 -0.000649669)
(0.000258093 0 -0.000555707)
(0.000294796 0 -0.000454469)
(0.000459445 0 -0.000155147)
(0.000325029 0 -0.000279064)
(0.000374162 0 -2.0787e-05)
(0.000433968 0 -4.57269e-05)
(0.000333088 0 0.000321149)
(0.000419335 0 0.000325191)
(0.000467433 0 0.00040469)
(0.000449542 0 0.000503456)
(0.000106618 0 0.000585238)
(4.2866e-06 0 0.000553754)
(-7.80716e-13 0 9.34208e-13)
(-2.56792e-12 0 3.96698e-13)
(-1.76899e-12 0 5.21973e-14)
(-1.75161e-12 0 -2.3655e-13)
(-1.67273e-12 0 -4.74908e-13)
(-1.54932e-12 0 -6.6936e-13)
(-1.39229e-12 0 -8.24028e-13)
(-1.21089e-12 0 -9.4131e-13)
(-1.01361e-12 0 -1.023e-12)
(-8.08258e-13 0 -1.07105e-12)
(-6.01835e-13 0 -1.08796e-12)
(-4.00424e-13 0 -1.07684e-12)
(-2.09095e-13 0 -1.04136e-12)
(-3.18242e-14 0 -9.85525e-13)
(1.28533e-13 0 -9.13529e-13)
(2.70179e-13 0 -8.29501e-13)
(3.92271e-13 0 -7.37342e-13)
(4.94738e-13 0 -6.40543e-13)
(5.78047e-13 0 -5.42077e-13)
(6.4303e-13 0 -4.44385e-13)
(6.90833e-13 0 -3.49434e-13)
(7.22874e-13 0 -2.58758e-13)
(7.40727e-13 0 -1.73478e-13)
(7.45977e-13 0 -9.43231e-14)
(7.40134e-13 0 -2.16884e-14)
(7.24617e-13 0 4.42818e-14)
(7.00755e-13 0 1.03625e-13)
(6.69774e-13 0 1.5651e-13)
(6.32779e-13 0 2.03209e-13)
(5.90752e-13 0 2.44066e-13)
(5.44546e-13 0 2.79474e-13)
(4.94896e-13 0 3.09848e-13)
(4.4242e-13 0 3.35608e-13)
(3.87636e-13 0 3.57159e-13)
(3.30977e-13 0 3.74881e-13)
(2.72817e-13 0 3.89117e-13)
(2.13488e-13 0 4.00162e-13)
(1.53294e-13 0 4.0826e-13)
(9.2508e-14 0 4.13588e-13)
(3.10001e-14 0 4.16264e-13)
(-7.4554e-05 0 0.000841167)
(-3.68466e-05 0 0.000815216)
(-5.64545e-05 0 0.000781046)
(-0.000175741 0 0.000750097)
(-0.000195033 0 0.000690384)
(-0.000261654 0 0.000528311)
(-0.000257937 0 0.000408716)
(-0.000305855 0 0.000299513)
(-0.000348058 0 0.000204427)
(-0.000372099 0 0.000142128)
(-0.000432427 0 1.40932e-05)
(-0.000446549 0 1.50813e-05)
(-0.000444744 0 -9.54163e-06)
(-0.00043939 0 -3.3141e-05)
(-0.000444155 0 -7.16663e-05)
(-0.00044644 0 -7.72847e-05)
(-0.000431547 0 -0.000143106)
(-0.000427871 0 -0.000173267)
(-0.000414545 0 -0.000206329)
(-0.00038801 0 -0.000258238)
(-0.00039128 0 -0.000257537)
(-0.000339779 0 -0.000311201)
(-0.000348846 0 -0.000262975)
(-0.000323668 0 -0.000274952)
(-0.000319174 0 -0.000285314)
(-0.000291591 0 -0.000373783)
(-0.000276843 0 -0.000453368)
(-0.000250955 0 -0.00049633)
(-0.000235094 0 -0.000509219)
(-0.000206085 0 -0.000519555)
(-0.000154643 0 -0.000470824)
(-9.66542e-05 0 -0.0003621)
(-7.63554e-05 0 -0.000222857)
(-6.30556e-05 0 -0.000104862)
(-6.71454e-05 0 -2.92004e-05)
(-8.82638e-05 0 5.4753e-05)
(-8.11917e-05 0 0.000200664)
(-8.87747e-05 0 0.000398826)
(-0.000121067 0 0.000461373)
(-0.000143467 0 0.000477752)
(-0.000200219 0 0.000480276)
(-0.000165434 0 0.000505903)
(-0.000290927 0 0.000468927)
(-0.000292131 0 0.000556369)
(-0.000343463 0 0.000572831)
(-0.000371519 0 0.000560717)
(-0.000490047 0 0.000455008)
(-0.000615746 0 0.000196173)
(-0.000555581 0 0.000178136)
(-0.000491698 0 0.000205349)