/*--------------------------------*- C++ -*----------------------------------*\
  =========                 |
  \\      /  F ield         | OpenFOAM: The Open Source CFD Toolbox
   \\    /   O peration     | Website:  https://openfoam.org
    \\  /    A nd           | Version:  6
     \\/     M anipulation  |
\*---------------------------------------------------------------------------*/
FoamFile
{
    version     2.0;
    format      ascii;
    class       volScalarField;
    location    "1000";
    object      T;
}
// * * * * * * * * * * * * * * * * * * * * * * * * * * * * * * * * * * * * * //

dimensions      [0 0 0 1 0 0 0];

internalField   nonuniform List<scalar> 
4800
(
552.515
552.446
552.376
552.308
552.239
552.171
552.103
552.036
551.968
551.901
551.835
551.768
551.702
551.635
551.569
551.503
551.437
551.37
551.304
551.237
551.171
551.104
551.037
550.97
550.903
550.836
550.769
550.702
550.635
550.567
550.5
550.432
550.363
550.293
550.222
550.149
550.074
549.998
549.919
549.838
549.754
549.667
549.577
549.484
549.388
549.289
549.187
549.081
548.971
548.857
548.738
548.615
548.488
548.355
548.217
548.077
547.936
547.794
547.653
547.513
547.373
547.235
547.099
546.963
546.829
546.695
546.562
546.429
546.297
546.165
546.034
545.904
545.775
545.646
545.519
545.392
545.267
545.143
545.02
544.899
544.779
544.66
544.543
544.427
544.312
544.198
544.085
543.973
543.862
543.752
543.642
543.533
543.424
543.317
543.209
543.102
542.996
542.89
542.784
542.678
542.573
542.468
542.364
542.259
542.155
542.051
541.947
541.843
541.739
541.636
541.532
541.428
541.325
541.222
541.118
541.015
540.912
540.808
540.705
540.602
552.515
552.445
552.375
552.305
552.236
552.167
552.099
552.031
551.963
551.895
551.828
551.761
551.695
551.628
551.562
551.495
551.429
551.363
551.296
551.229
551.163
551.096
551.029
550.962
550.895
550.828
550.761
550.694
550.626
550.559
550.492
550.423
550.355
550.285
550.214
550.141
550.067
549.99
549.911
549.83
549.746
549.659
549.569
549.476
549.38
549.28
549.178
549.071
548.962
548.848
548.73
548.607
548.48
548.348
548.212
548.073
547.932
547.79
547.649
547.509
547.37
547.232
547.095
546.959
546.825
546.691
546.558
546.425
546.293
546.161
546.03
545.9
545.771
545.643
545.516
545.39
545.265
545.141
545.019
544.897
544.777
544.659
544.542
544.426
544.311
544.197
544.084
543.972
543.861
543.751
543.641
543.532
543.424
543.316
543.209
543.102
542.995
542.889
542.784
542.678
542.573
542.468
542.364
542.259
542.155
542.051
541.947
541.843
541.739
541.635
541.532
541.428
541.325
541.222
541.118
541.015
540.911
540.808
540.705
540.602
552.514
552.443
552.371
552.3
552.23
552.16
552.09
552.021
551.952
551.884
551.816
551.748
551.681
551.614
551.547
551.481
551.414
551.348
551.281
551.214
551.147
551.08
551.013
550.946
550.879
550.812
550.745
550.678
550.611
550.543
550.476
550.408
550.339
550.27
550.199
550.126
550.052
549.976
549.897
549.815
549.731
549.644
549.554
549.46
549.364
549.264
549.161
549.055
548.945
548.831
548.714
548.592
548.466
548.335
548.2
548.062
547.922
547.781
547.641
547.501
547.362
547.225
547.088
546.952
546.818
546.684
546.551
546.418
546.286
546.154
546.023
545.893
545.764
545.637
545.51
545.385
545.26
545.137
545.015
544.894
544.775
544.656
544.539
544.424
544.309
544.195
544.083
543.971
543.86
543.749
543.64
543.531
543.423
543.315
543.208
543.101
542.994
542.888
542.783
542.677
542.572
542.468
542.363
542.259
542.154
542.05
541.946
541.843
541.739
541.635
541.532
541.428
541.325
541.221
541.118
541.015
540.911
540.808
540.705
540.602
552.513
552.44
552.366
552.294
552.221
552.149
552.078
552.007
551.937
551.867
551.798
551.73
551.661
551.594
551.527
551.46
551.393
551.326
551.259
551.192
551.125
551.058
550.991
550.923
550.856
550.789
550.722
550.655
550.588
550.521
550.453
550.385
550.317
550.248
550.177
550.105
550.031
549.955
549.876
549.795
549.71
549.623
549.532
549.439
549.342
549.242
549.139
549.032
548.923
548.809
548.692
548.571
548.445
548.315
548.182
548.046
547.907
547.768
547.628
547.489
547.351
547.214
547.078
546.942
546.808
546.674
546.54
546.407
546.275
546.144
546.013
545.883
545.755
545.627
545.501
545.376
545.253
545.131
545.009
544.889
544.77
544.652
544.536
544.42
544.306
544.192
544.08
543.968
543.857
543.747
543.638
543.529
543.421
543.313
543.206
543.099
542.993
542.887
542.782
542.676
542.571
542.467
542.362
542.258
542.154
542.05
541.946
541.842
541.738
541.635
541.531
541.428
541.325
541.221
541.118
541.015
540.911
540.808
540.705
540.602
552.512
552.436
552.361
552.285
552.211
552.136
552.063
551.989
551.917
551.845
551.775
551.705
551.636
551.567
551.499
551.432
551.365
551.298
551.231
551.164
551.096
551.029
550.961
550.894
550.827
550.759
550.692
550.625
550.558
550.491
550.423
550.356
550.288
550.219
550.149
550.077
550.004
549.928
549.849
549.768
549.684
549.596
549.506
549.412
549.314
549.214
549.111
549.004
548.894
548.781
548.665
548.544
548.419
548.29
548.158
548.024
547.887
547.749
547.611
547.473
547.336
547.2
547.064
546.929
546.794
546.66
546.527
546.394
546.262
546.131
546
545.871
545.743
545.616
545.49
545.366
545.244
545.122
545.002
544.882
544.764
544.647
544.531
544.416
544.301
544.188
544.076
543.965
543.854
543.744
543.635
543.526
543.418
543.311
543.204
543.098
542.991
542.886
542.78
542.675
542.57
542.466
542.361
542.257
542.153
542.049
541.945
541.841
541.738
541.634
541.531
541.428
541.324
541.221
541.118
541.014
540.911
540.808
540.705
540.602
552.511
552.432
552.354
552.276
552.198
552.12
552.043
551.967
551.892
551.818
551.746
551.674
551.604
551.535
551.466
551.398
551.33
551.263
551.196
551.128
551.061
550.993
550.925
550.858
550.79
550.722
550.655
550.588
550.521
550.454
550.387
550.319
550.252
550.183
550.114
550.043
549.97
549.895
549.817
549.736
549.652
549.564
549.473
549.379
549.282
549.181
549.077
548.971
548.861
548.748
548.632
548.512
548.388
548.26
548.13
547.996
547.861
547.725
547.589
547.453
547.317
547.182
547.047
546.913
546.778
546.645
546.511
546.379
546.247
546.116
545.986
545.857
545.729
545.603
545.478
545.355
545.233
545.113
544.993
544.875
544.757
544.64
544.524
544.41
544.296
544.183
544.072
543.96
543.85
543.741
543.632
543.523
543.415
543.308
543.201
543.095
542.989
542.884
542.778
542.673
542.569
542.464
542.36
542.256
542.152
542.048
541.944
541.841
541.737
541.634
541.53
541.427
541.324
541.221
541.117
541.014
540.911
540.808
540.705
540.602
552.509
552.427
552.346
552.264
552.183
552.101
552.021
551.942
551.864
551.787
551.712
551.639
551.567
551.497
551.427
551.358
551.29
551.222
551.154
551.087
551.019
550.951
550.882
550.814
550.746
550.678
550.611
550.544
550.476
550.41
550.343
550.276
550.209
550.141
550.072
550.002
549.929
549.855
549.777
549.697
549.613
549.526
549.435
549.341
549.244
549.143
549.039
548.932
548.823
548.71
548.594
548.474
548.351
548.225
548.096
547.965
547.832
547.698
547.564
547.429
547.295
547.161
547.027
546.893
546.76
546.626
546.493
546.361
546.23
546.099
545.97
545.842
545.715
545.59
545.466
545.343
545.222
545.102
544.983
544.865
544.748
544.632
544.517
544.403
544.29
544.178
544.066
543.955
543.845
543.736
543.627
543.519
543.412
543.305
543.198
543.092
542.987
542.881
542.776
542.671
542.567
542.463
542.358
542.254
542.151
542.047
541.943
541.84
541.736
541.633
541.53
541.427
541.323
541.22
541.117
541.014
540.911
540.808
540.705
540.602
552.507
552.422
552.336
552.251
552.165
552.08
551.995
551.913
551.832
551.753
551.675
551.6
551.527
551.455
551.384
551.314
551.245
551.176
551.107
551.039
550.97
550.902
550.833
550.764
550.696
550.628
550.56
550.493
550.426
550.359
550.292
550.226
550.16
550.092
550.024
549.954
549.883
549.809
549.732
549.653
549.569
549.483
549.392
549.298
549.201
549.1
548.996
548.889
548.78
548.667
548.552
548.433
548.311
548.186
548.059
547.93
547.799
547.667
547.535
547.402
547.27
547.137
547.005
546.872
546.739
546.606
546.474
546.342
546.211
546.082
545.953
545.826
545.7
545.575
545.452
545.33
545.21
545.091
544.972
544.855
544.739
544.624
544.509
544.395
544.283
544.171
544.06
543.949
543.84
543.731
543.623
543.515
543.408
543.301
543.195
543.089
542.984
542.879
542.774
542.669
542.565
542.461
542.357
542.253
542.149
542.046
541.942
541.839
541.735
541.632
541.529
541.426
541.323
541.22
541.117
541.014
540.911
540.808
540.705
540.602
552.505
552.415
552.326
552.235
552.145
552.056
551.968
551.881
551.797
551.715
551.635
551.558
551.482
551.408
551.336
551.264
551.194
551.124
551.055
550.986
550.917
550.847
550.778
550.709
550.64
550.571
550.503
550.436
550.369
550.302
550.236
550.171
550.105
550.038
549.971
549.902
549.831
549.758
549.682
549.603
549.52
549.434
549.344
549.25
549.153
549.052
548.948
548.842
548.733
548.621
548.506
548.389
548.268
548.145
548.02
547.892
547.763
547.634
547.503
547.373
547.242
547.111
546.98
546.848
546.716
546.584
546.453
546.322
546.192
546.063
545.935
545.809
545.684
545.56
545.438
545.317
545.197
545.078
544.961
544.844
544.729
544.614
544.5
544.387
544.275
544.163
544.053
543.943
543.834
543.725
543.617
543.51
543.403
543.297
543.191
543.086
542.98
542.876
542.771
542.667
542.562
542.459
542.355
542.251
542.148
542.044
541.941
541.838
541.734
541.631
541.528
541.425
541.322
541.219
541.116
541.013
540.91
540.807
540.704
540.601
552.503
552.409
552.314
552.219
552.124
552.03
551.938
551.848
551.76
551.675
551.592
551.512
551.434
551.359
551.284
551.211
551.139
551.068
550.998
550.928
550.858
550.787
550.717
550.647
550.578
550.509
550.441
550.373
550.306
550.24
550.175
550.109
550.044
549.979
549.912
549.844
549.774
549.702
549.626
549.548
549.466
549.38
549.29
549.197
549.1
549
548.896
548.79
548.682
548.571
548.458
548.342
548.223
548.102
547.978
547.853
547.726
547.598
547.47
547.341
547.212
547.083
546.952
546.822
546.691
546.56
546.43
546.3
546.171
546.043
545.917
545.791
545.667
545.545
545.423
545.302
545.183
545.065
544.948
544.832
544.717
544.603
544.49
544.377
544.266
544.155
544.045
543.935
543.827
543.719
543.611
543.505
543.398
543.292
543.187
543.082
542.977
542.872
542.768
542.664
542.56
542.456
542.353
542.249
542.146
542.043
541.939
541.836
541.733
541.63
541.527
541.424
541.321
541.219
541.116
541.013
540.91
540.807
540.704
540.601
552.501
552.401
552.302
552.202
552.103
552.004
551.908
551.813
551.722
551.634
551.548
551.465
551.385
551.306
551.229
551.154
551.08
551.007
550.936
550.864
550.793
550.722
550.652
550.581
550.511
550.442
550.373
550.306
550.239
550.173
550.108
550.043
549.979
549.914
549.848
549.781
549.712
549.641
549.566
549.488
549.407
549.322
549.233
549.14
549.043
548.943
548.841
548.735
548.628
548.519
548.407
548.293
548.176
548.057
547.935
547.811
547.687
547.561
547.434
547.308
547.18
547.052
546.924
546.794
546.665
546.535
546.406
546.278
546.15
546.023
545.897
545.773
545.65
545.528
545.407
545.287
545.169
545.052
544.935
544.82
544.705
544.592
544.479
544.367
544.256
544.146
544.036
543.927
543.819
543.712
543.605
543.498
543.393
543.287
543.182
543.077
542.973
542.868
542.764
542.661
542.557
542.454
542.35
542.247
542.144
542.041
541.938
541.835
541.732
541.629
541.526
541.424
541.321
541.218
541.115
541.012
540.91
540.807
540.704
540.601
552.498
552.394
552.29
552.185
552.081
551.979
551.877
551.779
551.683
551.591
551.502
551.416
551.332
551.251
551.171
551.093
551.017
550.942
550.869
550.797
550.724
550.652
550.581
550.51
550.44
550.37
550.301
550.234
550.167
550.101
550.036
549.972
549.908
549.844
549.779
549.713
549.645
549.574
549.501
549.424
549.343
549.259
549.171
549.079
548.983
548.884
548.782
548.678
548.572
548.464
548.355
548.243
548.128
548.011
547.891
547.77
547.646
547.523
547.398
547.273
547.147
547.021
546.894
546.766
546.638
546.51
546.382
546.254
546.127
546.001
545.876
545.753
545.631
545.51
545.39
545.272
545.154
545.037
544.921
544.806
544.692
544.579
544.467
544.356
544.245
544.136
544.027
543.918
543.811
543.704
543.598
543.492
543.386
543.281
543.177
543.072
542.968
542.865
542.761
542.657
542.554
542.451
542.348
542.245
542.142
542.039
541.936
541.834
541.731
541.628
541.525
541.423
541.32
541.217
541.115
541.012
540.909
540.807
540.704
540.601
552.496
552.387
552.278
552.17
552.061
551.954
551.848
551.745
551.645
551.548
551.455
551.365
551.278
551.193
551.11
551.03
550.951
550.874
550.799
550.725
550.651
550.578
550.506
550.435
550.364
550.294
550.225
550.157
550.091
550.025
549.96
549.896
549.832
549.769
549.705
549.639
549.573
549.503
549.431
549.355
549.275
549.192
549.105
549.014
548.919
548.822
548.721
548.619
548.515
548.409
548.301
548.191
548.079
547.964
547.847
547.727
547.606
547.484
547.361
547.237
547.113
546.989
546.863
546.737
546.61
546.483
546.356
546.23
546.104
545.979
545.855
545.733
545.612
545.492
545.373
545.255
545.138
545.022
544.906
544.792
544.678
544.566
544.454
544.343
544.234
544.125
544.016
543.909
543.802
543.696
543.59
543.485
543.38
543.276
543.171
543.067
542.964
542.86
542.757
542.654
542.551
542.448
542.345
542.242
542.14
542.037
541.935
541.832
541.729
541.627
541.524
541.422
541.319
541.217
541.114
541.012
540.909
540.806
540.704
540.601
552.494
552.381
552.268
552.155
552.043
551.931
551.82
551.712
551.606
551.505
551.407
551.313
551.222
551.134
551.048
550.964
550.883
550.803
550.726
550.65
550.575
550.501
550.428
550.356
550.285
550.215
550.145
550.077
550.01
549.945
549.88
549.816
549.753
549.69
549.626
549.562
549.496
549.428
549.357
549.282
549.204
549.121
549.035
548.945
548.852
548.756
548.658
548.558
548.456
548.352
548.246
548.138
548.028
547.916
547.801
547.683
547.564
547.444
547.322
547.2
547.078
546.955
546.831
546.706
546.581
546.455
546.33
546.205
546.08
545.956
545.833
545.712
545.592
545.472
545.354
545.237
545.121
545.005
544.89
544.776
544.663
544.551
544.44
544.33
544.221
544.113
544.006
543.899
543.793
543.687
543.582
543.477
543.373
543.269
543.166
543.062
542.959
542.856
542.753
542.65
542.548
542.445
542.342
542.24
542.138
542.035
541.933
541.83
541.728
541.626
541.523
541.421
541.318
541.216
541.114
541.011
540.909
540.806
540.704
540.601
552.492
552.376
552.259
552.143
552.026
551.909
551.793
551.68
551.569
551.463
551.36
551.262
551.166
551.074
550.985
550.898
550.814
550.732
550.652
550.574
550.497
550.421
550.347
550.275
550.203
550.132
550.062
549.994
549.927
549.861
549.796
549.733
549.67
549.607
549.544
549.481
549.416
549.348
549.278
549.205
549.128
549.047
548.962
548.874
548.782
548.688
548.592
548.494
548.394
548.293
548.189
548.084
547.976
547.866
547.754
547.639
547.521
547.402
547.282
547.162
547.041
546.919
546.797
546.673
546.55
546.426
546.303
546.179
546.056
545.933
545.811
545.691
545.571
545.453
545.335
545.218
545.102
544.987
544.873
544.759
544.647
544.536
544.426
544.316
544.208
544.101
543.994
543.888
543.783
543.678
543.574
543.47
543.366
543.263
543.159
543.057
542.954
542.851
542.749
542.646
542.544
542.442
542.34
542.237
542.135
542.033
541.931
541.829
541.726
541.624
541.522
541.42
541.317
541.215
541.113
541.011
540.908
540.806
540.704
540.601
552.49
552.371
552.251
552.131
552.01
551.889
551.768
551.649
551.533
551.421
551.314
551.211
551.111
551.015
550.922
550.832
550.744
550.66
550.577
550.497
550.418
550.341
550.265
550.191
550.119
550.047
549.977
549.909
549.841
549.775
549.711
549.647
549.584
549.522
549.46
549.397
549.333
549.267
549.198
549.125
549.049
548.97
548.886
548.8
548.711
548.619
548.525
548.429
548.331
548.232
548.131
548.028
547.923
547.815
547.704
547.591
547.476
547.359
547.24
547.121
547.002
546.882
546.761
546.639
546.518
546.396
546.275
546.153
546.031
545.91
545.789
545.669
545.55
545.432
545.315
545.198
545.083
544.968
544.854
544.741
544.63
544.519
544.41
544.301
544.194
544.088
543.982
543.877
543.772
543.668
543.565
543.461
543.358
543.256
543.153
543.051
542.949
542.847
542.745
542.643
542.541
542.439
542.337
542.235
542.133
542.031
541.929
541.827
541.725
541.623
541.521
541.419
541.317
541.214
541.112
541.01
540.908
540.806
540.703
540.601
552.489
552.367
552.244
552.12
551.996
551.871
551.745
551.62
551.499
551.381
551.268
551.16
551.057
550.957
550.86
550.767
550.676
550.588
550.503
550.42
550.338
550.259
550.182
550.106
550.033
549.961
549.891
549.822
549.754
549.688
549.623
549.56
549.497
549.436
549.374
549.311
549.248
549.182
549.114
549.043
548.969
548.891
548.809
548.725
548.637
548.547
548.455
548.362
548.266
548.169
548.071
547.97
547.867
547.761
547.652
547.541
547.428
547.313
547.196
547.079
546.961
546.842
546.723
546.604
546.484
546.365
546.245
546.125
546.005
545.885
545.765
545.647
545.528
545.411
545.294
545.178
545.063
544.948
544.835
544.722
544.611
544.502
544.393
544.286
544.179
544.074
543.969
543.865
543.761
543.658
543.555
543.453
543.351
543.249
543.147
543.045
542.943
542.842
542.74
542.639
542.537
542.435
542.334
542.232
542.131
542.029
541.927
541.825
541.723
541.622
541.52
541.418
541.316
541.214
541.112
541.01
540.907
540.805
540.703
540.601
552.488
552.362
552.236
552.109
551.98
551.851
551.721
551.592
551.465
551.341
551.223
551.111
551.003
550.9
550.8
550.703
550.609
550.518
550.429
550.343
550.259
550.177
550.098
550.021
549.947
549.874
549.803
549.734
549.667
549.6
549.536
549.472
549.41
549.348
549.287
549.225
549.162
549.097
549.03
548.96
548.887
548.811
548.731
548.648
548.563
548.475
548.385
548.294
548.201
548.106
548.009
547.91
547.808
547.705
547.598
547.489
547.378
547.264
547.149
547.034
546.917
546.8
546.683
546.566
546.448
546.331
546.213
546.095
545.977
545.859
545.741
545.623
545.506
545.389
545.272
545.157
545.042
544.927
544.814
544.702
544.592
544.483
544.375
544.269
544.164
544.059
543.956
543.852
543.75
543.648
543.546
543.444
543.343
543.241
543.14
543.039
542.938
542.837
542.736
542.635
542.533
542.432
542.331
542.23
542.128
542.027
541.925
541.824
541.722
541.62
541.519
541.417
541.315
541.213
541.111
541.009
540.907
540.805
540.703
540.601
552.486
552.357
552.227
552.096
551.964
551.831
551.697
551.562
551.43
551.302
551.179
551.061
550.95
550.843
550.74
550.64
550.543
550.448
550.356
550.267
550.18
550.096
550.015
549.937
549.861
549.787
549.716
549.647
549.579
549.513
549.448
549.385
549.323
549.261
549.2
549.139
549.076
549.012
548.946
548.877
548.805
548.73
548.652
548.571
548.488
548.402
548.315
548.225
548.134
548.041
547.946
547.848
547.749
547.646
547.542
547.434
547.324
547.213
547.099
546.985
546.871
546.755
546.64
546.525
546.41
546.295
546.179
546.064
545.948
545.831
545.715
545.598
545.482
545.366
545.25
545.134
545.02
544.906
544.793
544.682
544.572
544.464
544.357
544.252
544.147
544.044
543.942
543.84
543.738
543.637
543.536
543.435
543.335
543.234
543.134
543.033
542.932
542.832
542.731
542.63
542.53
542.429
542.328
542.227
542.126
542.025
541.923
541.822
541.72
541.619
541.517
541.416
541.314
541.212
541.11
541.009
540.907
540.805
540.703
540.601
552.484
552.351
552.217
552.082
551.946
551.808
551.67
551.531
551.394
551.26
551.133
551.012
550.897
550.787
550.68
550.577
550.477
550.38
550.285
550.192
550.103
550.017
549.934
549.854
549.777
549.703
549.631
549.561
549.493
549.427
549.362
549.299
549.237
549.175
549.114
549.053
548.991
548.928
548.862
548.795
548.724
548.65
548.574
548.495
548.413
548.33
548.244
548.156
548.067
547.975
547.881
547.785
547.687
547.586
547.483
547.377
547.268
547.158
547.047
546.934
546.821
546.708
546.595
546.481
546.368
546.256
546.142
546.029
545.915
545.801
545.687
545.571
545.456
545.341
545.226
545.111
544.997
544.883
544.771
544.66
544.551
544.443
544.338
544.233
544.13
544.028
543.927
543.826
543.726
543.626
543.526
543.426
543.327
543.227
543.127
543.027
542.927
542.827
542.727
542.627
542.526
542.426
542.325
542.224
542.123
542.022
541.921
541.82
541.719
541.618
541.516
541.415
541.313
541.212
541.11
541.008
540.906
540.805
540.703
540.601
552.481
552.344
552.206
552.067
551.926
551.785
551.642
551.499
551.357
551.219
551.087
550.962
550.843
550.73
550.621
550.515
550.412
550.312
550.215
550.12
550.028
549.941
549.856
549.774
549.696
549.621
549.548
549.478
549.41
549.343
549.278
549.215
549.153
549.091
549.03
548.969
548.908
548.845
548.781
548.714
548.644
548.572
548.497
548.42
548.34
548.258
548.174
548.088
547.999
547.909
547.816
547.721
547.624
547.524
547.421
547.317
547.21
547.101
546.991
546.88
546.769
546.658
546.546
546.435
546.324
546.214
546.103
545.992
545.88
545.768
545.655
545.542
545.428
545.314
545.2
545.086
544.972
544.859
544.748
544.638
544.529
544.423
544.318
544.215
544.113
544.012
543.912
543.813
543.714
543.615
543.516
543.417
543.318
543.219
543.12
543.021
542.922
542.822
542.722
542.623
542.523
542.422
542.322
542.222
542.121
542.02
541.92
541.819
541.718
541.616
541.515
541.414
541.312
541.211
541.109
541.008
540.906
540.804
540.703
540.601
552.479
552.336
552.194
552.05
551.907
551.762
551.616
551.469
551.324
551.181
551.044
550.914
550.791
550.674
550.562
550.454
550.349
550.247
550.147
550.05
549.957
549.868
549.782
549.699
549.62
549.544
549.471
549.399
549.33
549.263
549.198
549.134
549.072
549.01
548.949
548.888
548.827
548.765
548.701
548.635
548.567
548.496
548.423
548.347
548.268
548.188
548.105
548.019
547.932
547.842
547.75
547.655
547.558
547.459
547.357
547.254
547.148
547.041
546.933
546.824
546.714
546.605
546.496
546.387
546.278
546.169
546.06
545.951
545.842
545.732
545.621
545.51
545.398
545.285
545.172
545.059
544.946
544.834
544.724
544.615
544.509
544.403
544.298
544.196
544.095
543.996
543.898
543.8
543.702
543.604
543.506
543.408
543.31
543.212
543.114
543.015
542.916
542.817
542.718
542.619
542.519
542.419
542.319
542.219
542.119
542.018
541.918
541.817
541.716
541.615
541.514
541.413
541.312
541.21
541.109
541.007
540.906
540.804
540.702
540.601
552.476
552.328
552.181
552.034
551.887
551.739
551.59
551.44
551.291
551.144
551.003
550.868
550.74
550.619
550.504
550.394
550.287
550.184
550.083
549.986
549.892
549.802
549.715
549.632
549.552
549.475
549.4
549.328
549.257
549.189
549.122
549.057
548.994
548.932
548.87
548.809
548.748
548.687
548.624
548.559
548.492
548.422
548.35
548.275
548.197
548.117
548.035
547.949
547.862
547.772
547.68
547.585
547.489
547.39
547.289
547.187
547.083
546.978
546.872
546.765
546.658
546.551
546.443
546.337
546.23
546.123
546.017
545.91
545.802
545.694
545.585
545.475
545.364
545.253
545.142
545.031
544.92
544.809
544.701
544.594
544.49
544.383
544.279
544.177
544.078
543.98
543.883
543.786
543.69
543.593
543.497
543.4
543.303
543.205
543.108
543.01
542.911
542.813
542.714
542.615
542.516
542.416
542.317
542.217
542.117
542.017
541.916
541.816
541.715
541.614
541.513
541.412
541.311
541.21
541.108
541.007
540.905
540.804
540.702
540.601
552.473
552.32
552.168
552.017
551.867
551.717
551.565
551.412
551.26
551.11
550.964
550.824
550.692
550.567
550.449
550.337
550.229
550.126
550.026
549.929
549.836
549.747
549.66
549.577
549.496
549.417
549.34
549.265
549.192
549.122
549.053
548.986
548.921
548.857
548.794
548.733
548.672
548.611
548.549
548.485
548.419
548.35
548.279
548.204
548.126
548.046
547.962
547.877
547.788
547.698
547.605
547.511
547.414
547.316
547.217
547.116
547.014
546.912
546.808
546.704
546.6
546.496
546.392
546.288
546.183
546.079
545.974
545.868
545.762
545.654
545.547
545.438
545.33
545.221
545.112
545.003
544.894
544.785
544.678
544.574
544.478
544.365
544.259
544.158
544.06
543.964
543.868
543.773
543.678
543.583
543.487
543.391
543.295
543.199
543.102
543.004
542.907
542.809
542.71
542.612
542.513
542.414
542.314
542.215
542.115
542.015
541.915
541.814
541.714
541.613
541.512
541.411
541.31
541.209
541.108
541.006
540.905
540.804
540.702
540.601
552.47
552.311
552.154
551.999
551.845
551.692
551.538
551.384
551.229
551.076
550.928
550.785
550.649
550.521
550.4
550.286
550.179
550.077
549.98
549.886
549.795
549.708
549.622
549.538
549.455
549.373
549.293
549.214
549.138
549.063
548.991
548.92
548.852
548.785
548.721
548.659
548.598
548.537
548.476
548.413
548.348
548.279
548.206
548.13
548.051
547.969
547.884
547.796
547.707
547.615
547.523
547.429
547.333
547.237
547.139
547.041
546.943
546.844
546.744
546.644
546.544
546.444
546.344
546.244
546.143
546.04
545.936
545.831
545.724
545.617
545.51
545.403
545.296
545.189
545.082
544.976
544.869
544.761
544.654
544.548
544.444
544.34
544.238
544.139
544.043
543.948
543.854
543.76
543.666
543.572
543.478
543.383
543.288
543.192
543.096
542.999
542.902
542.805
542.707
542.609
542.51
542.411
542.312
542.213
542.113
542.013
541.913
541.813
541.713
541.612
541.511
541.41
541.309
541.208
541.107
541.006
540.905
540.803
540.702
540.601
552.466
552.299
552.136
551.975
551.818
551.662
551.507
551.351
551.196
551.043
550.893
550.749
550.612
550.483
550.361
550.248
550.143
550.045
549.953
549.864
549.778
549.693
549.608
549.522
549.436
549.348
549.261
549.176
549.093
549.013
548.935
548.859
548.787
548.717
548.65
548.586
548.524
548.463
548.403
548.34
548.274
548.204
548.129
548.05
547.967
547.88
547.792
547.702
547.611
547.519
547.428
547.336
547.244
547.15
547.057
546.963
546.868
546.774
546.679
546.584
546.491
546.399
546.306
546.212
546.115
546.015
545.91
545.803
545.695
545.586
545.479
545.373
545.267
545.161
545.056
544.95
544.844
544.737
544.628
544.52
544.414
544.314
544.216
544.119
544.025
543.932
543.84
543.748
543.655
543.563
543.47
543.376
543.281
543.186
543.091
542.995
542.898
542.801
542.704
542.606
542.508
542.409
542.31
542.211
542.112
542.012
541.912
541.812
541.712
541.611
541.511
541.41
541.309
541.208
541.107
541.006
540.905
540.803
540.702
540.601
552.461
552.284
552.111
551.943
551.781
551.623
551.467
551.313
551.16
551.009
550.861
550.719
550.585
550.459
550.342
550.234
550.134
550.043
549.958
549.876
549.793
549.71
549.624
549.533
549.44
549.343
549.245
549.149
549.057
548.968
548.883
548.802
548.727
548.654
548.584
548.516
548.45
548.388
548.326
548.263
548.194
548.12
548.04
547.954
547.864
547.772
547.68
547.589
547.498
547.407
547.319
547.233
547.146
547.059
546.971
546.883
546.794
546.704
546.616
546.532
546.449
546.368
546.287
546.201
546.108
546.009
545.902
545.792
545.679
545.569
545.463
545.358
545.254
545.148
545.039
544.93
544.819
544.706
544.593
544.483
544.38
544.285
544.191
544.098
544.007
543.917
543.827
543.736
543.645
543.554
543.462
543.369
543.275
543.181
543.086
542.991
542.895
542.798
542.701
542.603
542.505
542.407
542.308
542.209
542.11
542.011
541.911
541.811
541.711
541.61
541.51
541.409
541.308
541.208
541.107
541.005
540.904
540.803
540.702
540.601
552.453
552.262
552.077
551.9
551.732
551.571
551.415
551.263
551.115
550.969
550.828
550.694
550.569
550.456
550.353
550.257
550.169
550.092
550.017
549.938
549.854
549.766
549.672
549.57
549.464
549.352
549.239
549.128
549.021
548.92
548.827
548.744
548.671
548.599
548.527
548.454
548.38
548.313
548.247
548.178
548.101
548.018
547.929
547.834
547.738
547.64
547.546
547.458
547.371
547.286
547.204
547.126
547.05
546.97
546.891
546.808
546.724
546.643
546.568
546.499
546.43
546.361
546.291
546.21
546.122
546.024
545.911
545.795
545.676
545.567
545.467
545.37
545.275
545.174
545.048
544.918
544.787
544.655
544.532
544.422
544.331
544.247
544.161
544.075
543.988
543.902
543.814
543.725
543.636
543.546
543.455
543.363
543.27
543.177
543.082
542.987
542.892
542.795
542.698
542.601
542.503
542.405
542.307
542.208
542.109
542.01
541.91
541.81
541.71
541.61
541.509
541.409
541.308
541.207
541.106
541.005
540.904
540.803
540.702
540.601
552.445
552.238
552.04
551.851
551.672
551.507
551.348
551.2
551.063
550.931
550.801
550.677
550.568
550.486
550.414
550.345
550.284
550.232
550.162
550.067
549.97
549.865
549.746
549.619
549.496
549.366
549.242
549.111
548.978
548.86
548.758
548.68
548.626
548.562
548.495
548.423
548.333
548.255
548.179
548.091
547.99
547.893
547.794
547.692
547.604
547.503
547.417
547.341
547.265
547.187
547.111
547.041
546.983
546.909
546.833
546.751
546.685
546.626
546.566
546.524
546.457
546.382
546.315
546.22
546.134
546.04
545.909
545.794
545.667
545.569
545.484
545.414
545.361
545.295
545.12
544.932
544.748
544.555
544.414
544.318
544.281
544.201
544.125
544.048
543.969
543.887
543.802
543.716
543.628
543.539
543.449
543.358
543.266
543.173
543.079
542.984
542.889
542.793
542.696
542.599
542.502
542.404
542.306
542.207
542.108
542.009
541.909
541.809
541.709
541.609
541.509
541.408
541.308
541.207
541.106
541.005
540.904
540.803
540.702
540.601
552.441
552.226
552.024
551.813
551.618
551.453
551.277
551.133
551.033
550.943
550.83
550.706
550.601
550.569
550.552
550.553
550.559
550.55
550.447
550.28
550.149
550.003
549.834
549.655
549.513
549.373
549.285
549.129
548.931
548.792
548.681
548.622
548.628
548.564
548.522
548.496
548.375
548.265
548.152
548.021
547.856
547.762
547.694
547.592
547.583
547.464
547.395
547.317
547.227
547.172
547.096
547.026
547.042
546.947
546.83
546.742
546.832
546.831
546.679
546.641
546.507
546.389
546.323
546.186
546.151
546.031
545.799
545.722
545.593
545.554
545.474
545.455
545.518
545.591
545.314
545.073
544.78
544.318
544.162
544.154
544.222
544.15
544.086
544.021
543.951
543.874
543.793
543.708
543.622
543.534
543.445
543.354
543.263
543.17
543.077
542.982
542.887
542.791
542.695
542.598
542.501
542.403
542.305
542.206
542.107
542.008
541.909
541.809
541.709
541.609
541.509
541.408
541.308
541.207
541.106
541.005
540.904
540.803
540.702
540.601
552.466
552.275
552.099
551.829
551.599
551.481
551.244
551.106
551.122
551.117
551.051
550.974
550.796
550.799
550.802
551.018
551.18
551.17
550.889
550.565
550.44
550.184
549.946
549.642
549.477
549.344
549.236
548.99
548.605
548.48
548.417
548.44
548.459
548.423
548.488
548.54
548.435
548.223
547.944
547.786
547.523
547.588
547.642
547.523
547.756
547.677
547.577
547.294
547.028
547.138
547.045
546.967
547.406
547.182
546.765
546.684
547.441
547.898
546.802
546.474
546.115
546.061
546.012
546.113
546.582
545.87
545.261
545.528
545.384
545.604
545.401
545.428
545.51
545.538
545.113
545.513
545.375
543.493
543.577
544.319
544.036
544.098
544.05
543.998
543.935
543.863
543.785
543.703
543.617
543.53
543.442
543.352
543.26
543.168
543.075
542.981
542.886
542.79
542.694
542.597
542.5
542.402
542.304
542.206
542.107
542.008
541.908
541.809
541.709
541.609
541.508
541.408