/*--------------------------------*- C++ -*----------------------------------*\
  =========                 |
  \\      /  F ield         | OpenFOAM: The Open Source CFD Toolbox
   \\    /   O peration     | Website:  https://openfoam.org
    \\  /    A nd           | Version:  6
     \\/     M anipulation  |
\*---------------------------------------------------------------------------*/
FoamFile
{
    version     2.0;
    format      ascii;
    class       volVectorField;
    location    "1000";
    object      U;
}
// * * * * * * * * * * * * * * * * * * * * * * * * * * * * * * * * * * * * * //

dimensions      [0 1 -1 0 0 0 0];

internalField   nonuniform List<vector> 
4800
(
(-0.000147651 0 4.64712e-05)
(0.000110472 0 -7.74376e-05)
(0.00014066 0 -7.48082e-05)
(0.000202522 0 -6.00517e-05)
(0.000265639 0 -6.31602e-05)
(0.000336476 0 -4.35199e-05)
(0.000406121 0 -7.56072e-05)
(0.000486503 0 -5.62497e-05)
(0.000543606 0 -5.55339e-05)
(0.00058435 0 -6.19742e-05)
(0.000636209 0 -4.63579e-05)
(0.000680316 0 -5.93437e-05)
(0.00071843 0 -5.8726e-05)
(0.000762339 0 -2.75107e-05)
(0.000792316 0 -9.03796e-05)
(0.000821069 0 -2.20929e-05)
(0.000847858 0 -4.46746e-05)
(0.000848749 0 -6.17936e-05)
(0.000848127 0 -6.32435e-05)
(0.000856823 0 -5.41281e-05)
(0.000873197 0 -5.43338e-05)
(0.000885126 0 -6.88118e-05)
(0.000894129 0 -3.09265e-05)
(0.000894079 0 -2.20479e-05)
(0.000889569 0 -1.93013e-05)
(0.000887543 0 -1.43795e-05)
(0.000890733 0 -1.25216e-05)
(0.000890492 0 -1.53368e-05)
(0.000888858 0 -2.07092e-05)
(0.000891599 0 -1.95055e-05)
(0.000901714 0 -2.26683e-05)
(0.000906212 0 -2.52935e-05)
(0.000905862 0 -2.48845e-05)
(0.000906171 0 -2.41875e-05)
(0.000905241 0 -2.34096e-05)
(0.000901979 0 -2.34711e-05)
(0.000898025 0 -2.51992e-05)
(0.000894807 0 -2.2907e-05)
(0.000890471 0 -2.44047e-05)
(0.00088334 0 -2.64261e-05)
(0.000873744 0 -2.92807e-05)
(0.000863062 0 -1.91046e-05)
(0.000851469 0 -1.48543e-05)
(0.000850145 0 -1.97294e-05)
(0.000849682 0 -1.98671e-05)
(0.000845269 0 -2.07057e-05)
(0.000836575 0 -2.19324e-05)
(0.000828982 0 -2.27822e-05)
(0.000822059 0 -2.21175e-05)
(0.000810267 0 -1.1007e-05)
(0.000788539 0 -1.18178e-05)
(0.000751243 0 1.11087e-05)
(0.000700614 0 3.82765e-05)
(0.0006376 0 1.20812e-05)
(0.000431115 0 3.84981e-05)
(0.000233568 0 3.49593e-05)
(0.000212168 0 -1.5708e-05)
(0.000197714 0 -1.63178e-05)
(0.000184166 0 -2.61867e-07)
(0.000164611 0 3.32548e-06)
(0.000146105 0 1.98684e-07)
(0.000137485 0 -3.7178e-06)
(0.000137948 0 -9.18524e-06)
(0.000147519 0 -1.07012e-05)
(0.000164844 0 -2.60403e-05)
(0.000184493 0 -1.03068e-05)
(0.000185821 0 -7.363e-06)
(0.000183525 0 7.1561e-06)
(0.00017707 0 -1.75149e-05)
(0.000165735 0 2.47888e-05)
(0.000147274 0 -2.9107e-05)
(0.000140283 0 1.68236e-05)
(0.000133798 0 -1.92625e-05)
(0.000126158 0 1.08381e-05)
(0.000108771 0 -3.31616e-05)
(9.57569e-05 0 2.42064e-05)
(5.42189e-05 0 -4.46405e-05)
(3.17314e-05 0 -6.60399e-05)
(-2.79962e-05 0 -5.70812e-05)
(8.17719e-06 0 -7.75785e-05)
(1.13911e-08 0 -3.36828e-05)
(-6.64249e-13 0 5.02473e-15)
(-1.31395e-12 0 -7.7533e-15)
(-1.28758e-12 0 -1.86802e-14)
(-1.24039e-12 0 -2.85993e-14)
(-1.17461e-12 0 -3.7293e-14)
(-1.09288e-12 0 -4.45366e-14)
(-9.98207e-13 0 -5.0207e-14)
(-8.93736e-13 0 -5.42766e-14)
(-7.82602e-13 0 -5.67934e-14)
(-6.67816e-13 0 -5.78556e-14)
(-5.52173e-13 0 -5.75941e-14)
(-4.38161e-13 0 -5.61659e-14)
(-3.27917e-13 0 -5.37457e-14)
(-2.2323e-13 0 -5.05122e-14)
(-1.25542e-13 0 -4.66412e-14)
(-3.59536e-14 0 -4.23042e-14)
(4.47487e-14 0 -3.76599e-14)
(1.16073e-13 0 -3.28479e-14)
(1.77815e-13 0 -2.79931e-14)
(2.30013e-13 0 -2.32108e-14)
(2.72853e-13 0 -1.85987e-14)
(3.06604e-13 0 -1.42218e-14)
(3.31619e-13 0 -1.01122e-14)
(3.48368e-13 0 -6.28613e-15)
(3.57433e-13 0 -2.75856e-15)
(3.59467e-13 0 4.58756e-16)
(3.5515e-13 0 3.36611e-15)
(3.45162e-13 0 5.97769e-15)
(3.30172e-13 0 8.3129e-15)
(3.10811e-13 0 1.03877e-14)
(2.87655e-13 0 1.2212e-14)
(2.61218e-13 0 1.37926e-14)
(2.31959e-13 0 1.51367e-14)
(2.00296e-13 0 1.6253e-14)
(1.66613e-13 0 1.71516e-14)
(1.31272e-13 0 1.78427e-14)
(9.46299e-14 0 1.83331e-14)
(5.70678e-14 0 1.86179e-14)
(1.90535e-14 0 1.86512e-14)
(-0.000163704 0 -6.57471e-05)
(0.000129147 0 -0.000128484)
(0.000133039 0 -0.000111372)
(0.000167736 0 -0.000106589)
(0.000225726 0 -9.65762e-05)
(0.000284161 0 -0.000107553)
(0.000357125 0 -0.000106709)
(0.000432799 0 -7.91658e-05)
(0.000485643 0 -7.31602e-05)
(0.000520014 0 -0.000115745)
(0.000576517 0 -5.42454e-05)
(0.00062083 0 -7.05969e-05)
(0.000654936 0 -5.04585e-05)
(0.000687835 0 -4.94028e-05)
(0.000724189 0 1.91993e-05)
(0.00073747 0 -6.26297e-05)
(0.000753091 0 1.48815e-05)
(0.000767463 0 3.327e-05)
(0.000775147 0 1.39548e-05)
(0.000788762 0 2.36178e-05)
(0.000791452 0 2.70914e-05)
(0.000783886 0 1.48883e-05)
(0.000775605 0 1.71248e-05)
(0.000775863 0 1.91946e-05)
(0.000778738 0 1.0912e-05)
(0.000787016 0 3.33301e-06)
(0.000797902 0 4.13002e-06)
(0.000805702 0 6.05648e-06)
(0.000812355 0 3.78663e-06)
(0.000820024 0 1.77621e-06)
(0.000830822 0 -1.04177e-05)
(0.000837877 0 -8.43453e-06)
(0.000838968 0 6.29763e-06)
(0.000839337 0 1.5032e-05)
(0.000837401 0 1.75328e-05)
(0.000831806 0 1.94575e-05)
(0.00082431 0 2.47946e-05)
(0.000815061 0 2.40777e-05)
(0.000800381 0 3.47571e-05)
(0.000788607 0 2.76546e-05)
(0.000780516 0 2.54558e-05)
(0.000767617 0 2.45132e-05)
(0.000747056 0 1.59663e-05)
(0.000737955 0 2.79675e-05)
(0.000735878 0 2.55257e-05)
(0.000728826 0 2.85522e-05)
(0.000713895 0 2.00235e-05)
(0.000703371 0 2.79402e-05)
(0.000701274 0 3.4546e-05)
(0.000699231 0 3.25024e-05)
(0.000689996 0 4.58384e-05)
(0.000662433 0 5.19597e-05)
(0.000633397 0 4.13521e-05)
(0.000586303 0 0.000164667)
(0.000516916 0 0.000250254)
(0.000483162 0 0.000151045)
(0.000349005 0 8.0099e-05)
(0.000244358 0 3.29837e-05)
(0.000216946 0 2.33131e-05)
(0.000180415 0 2.5816e-05)
(0.000150524 0 1.72797e-05)
(0.000135207 0 5.10664e-06)
(0.000131806 0 -8.68677e-06)
(0.000137057 0 -1.9253e-05)
(0.000150273 0 -1.83104e-05)
(0.00015627 0 -1.13069e-05)
(0.000158554 0 -6.63458e-06)
(0.000162513 0 4.66497e-06)
(0.000160669 0 5.26216e-06)
(0.000154838 0 2.25487e-05)
(0.00014286 0 7.47397e-06)
(0.000125164 0 3.26458e-05)
(0.000117329 0 2.66364e-05)
(0.000111722 0 3.04192e-05)
(9.72412e-05 0 4.09865e-05)
(9.24789e-05 0 3.43434e-05)
(7.42807e-05 0 5.51948e-05)
(6.2944e-05 0 6.09512e-05)
(3.28285e-05 0 4.35247e-05)
(1.94689e-05 0 5.67849e-05)
(5.41839e-09 0 2.11285e-05)
(-6.7546e-13 0 6.03532e-15)
(-1.33756e-12 0 -2.50348e-14)
(-1.30842e-12 0 -5.71139e-14)
(-1.259e-12 0 -8.70703e-14)
(-1.19055e-12 0 -1.13353e-13)
(-1.10579e-12 0 -1.35176e-13)
(-1.00795e-12 0 -1.52188e-13)
(-9.00323e-13 0 -1.64332e-13)
(-7.86181e-13 0 -1.71763e-13)
(-6.68616e-13 0 -1.74782e-13)
(-5.50483e-13 0 -1.73798e-13)
(-4.34312e-13 0 -1.69296e-13)
(-3.22263e-13 0 -1.61813e-13)
(-2.16125e-13 0 -1.519e-13)
(-1.17334e-13 0 -1.40097e-13)
(-2.69723e-14 0 -1.26918e-13)
(5.42049e-14 0 -1.1284e-13)
(1.2574e-13 0 -9.83e-14)
(1.87452e-13 0 -8.36932e-14)
(2.39407e-13 0 -6.93612e-14)
(2.81842e-13 0 -5.55676e-14)
(3.15091e-13 0 -4.2484e-14)
(3.39555e-13 0 -3.0204e-14)
(3.55722e-13 0 -1.87776e-14)
(3.64178e-13 0 -8.23589e-15)
(3.65592e-13 0 1.40667e-15)
(3.60669e-13 0 1.01571e-14)
(3.50109e-13 0 1.80414e-14)
(3.34582e-13 0 2.5093e-14)
(3.1471e-13 0 3.13415e-14)
(2.9106e-13 0 3.68106e-14)
(2.64142e-13 0 4.15219e-14)
(2.3442e-13 0 4.55009e-14)
(2.02311e-13 0 4.87811e-14)
(1.68203e-13 0 5.14053e-14)
(1.32453e-13 0 5.34197e-14)
(9.54051e-14 0 5.48642e-14)
(5.73859e-14 0 5.57599e-14)
(1.90868e-14 0 5.60971e-14)
(-2.26734e-05 0 -0.000153273)
(8.9737e-05 0 -0.000142908)
(9.75507e-05 0 -0.000137074)
(0.000137686 0 -0.000132973)
(0.000202251 0 -0.000130967)
(0.000259497 0 -0.000146256)
(0.000325986 0 -0.00015486)
(0.000404067 0 -0.000118964)
(0.000456012 0 -0.000116794)
(0.000493463 0 -0.000154467)
(0.000551667 0 -9.85408e-05)
(0.000594703 0 -7.52149e-05)
(0.000621102 0 -8.13497e-05)
(0.000650834 0 -7.50256e-05)
(0.000692009 0 -3.87428e-05)
(0.000708423 0 -6.85965e-05)
(0.00071061 0 -4.03476e-05)
(0.000713216 0 -3.5138e-05)
(0.000723201 0 -5.72088e-05)
(0.000742398 0 -2.20661e-05)
(0.000740562 0 -1.50233e-05)
(0.0007379 0 -2.52503e-05)
(0.000741811 0 -2.25655e-05)
(0.000746819 0 -1.72218e-05)
(0.00075213 0 -2.44587e-05)
(0.000767033 0 -3.19816e-05)
(0.000778987 0 -1.43338e-05)
(0.000777219 0 -1.34214e-05)
(0.000779183 0 -1.8121e-05)
(0.000788662 0 -1.75086e-05)
(0.000799969 0 -1.20561e-05)
(0.000799808 0 -1.27774e-05)
(0.000801657 0 -1.3166e-05)
(0.000806137 0 -4.02553e-06)
(0.000804967 0 2.12557e-06)
(0.000800811 0 5.05738e-06)
(0.000791753 0 1.23618e-05)
(0.000777122 0 2.69237e-05)
(0.000756871 0 9.49179e-06)
(0.000729046 0 4.81326e-05)
(0.000715694 0 4.28734e-05)
(0.000707352 0 9.30562e-06)
(0.00068848 0 -5.3399e-06)
(0.000666743 0 -1.76873e-07)
(0.000651392 0 7.12486e-06)
(0.000634365 0 2.95566e-06)
(0.000621362 0 1.4002e-06)
(0.000619818 0 1.18333e-05)
(0.000616213 0 5.20071e-06)
(0.000602732 0 4.13004e-05)
(0.000600167 0 6.72129e-05)
(0.000598344 0 6.92651e-05)
(0.000586435 0 6.71098e-05)
(0.000538031 0 0.00020907)
(0.00049311 0 0.000271925)
(0.000406065 0 0.000302196)
(0.000295369 0 0.000203877)
(0.000229598 0 0.000126376)
(0.000199961 0 0.000101553)
(0.000172817 0 7.85365e-05)
(0.000155681 0 5.18319e-05)
(0.000143903 0 2.16551e-05)
(0.000132941 0 -1.5166e-05)
(0.00013053 0 -3.42882e-05)
(0.000138056 0 -1.60733e-05)
(0.000137369 0 -1.29267e-05)
(0.000135369 0 1.21482e-06)
(0.000135109 0 1.16895e-05)
(0.000132067 0 1.85611e-05)
(0.000119845 0 4.61618e-05)
(0.000109103 0 2.23225e-05)
(0.000109822 0 7.54188e-06)
(0.000110978 0 -1.12289e-06)
(0.000108913 0 9.16881e-06)
(9.92477e-05 0 2.37687e-05)
(9.09396e-05 0 3.07278e-05)
(7.11017e-05 0 5.43552e-05)
(6.07166e-05 0 5.60506e-05)
(3.58121e-05 0 5.11048e-05)
(4.5696e-05 0 1.61314e-05)
(9.32067e-09 0 1.24408e-05)
(-6.97273e-13 0 1.76543e-14)
(-1.37691e-12 0 -4.11605e-14)
(-1.34961e-12 0 -9.77479e-14)
(-1.29663e-12 0 -1.4928e-13)
(-1.22271e-12 0 -1.93935e-13)
(-1.13172e-12 0 -2.30682e-13)
(-1.02736e-12 0 -2.59079e-13)
(-9.13311e-13 0 -2.79124e-13)
(-7.93052e-13 0 -2.91137e-13)
(-6.69851e-13 0 -2.95672e-13)
(-5.46686e-13 0 -2.93451e-13)
(-4.26175e-13 0 -2.85328e-13)
(-3.10521e-13 0 -2.72236e-13)
(-2.01514e-13 0 -2.55127e-13)
(-1.0056e-13 0 -2.34928e-13)
(-8.69639e-15 0 -2.12504e-13)
(7.33668e-14 0 -1.88645e-13)
(1.4522e-13 0 -1.64073e-13)
(2.06754e-13 0 -1.39444e-13)
(2.58138e-13 0 -1.15325e-13)
(2.9973e-13 0 -9.21496e-14)
(3.31968e-13 0 -7.02002e-14)
(3.55326e-13 0 -4.96318e-14)
(3.70336e-13 0 -3.05194e-14)
(3.77617e-13 0 -1.28982e-14)
(3.7786e-13 0 3.22053e-15)
(3.71784e-13 0 1.78465e-14)
(3.60098e-13 0 3.10087e-14)
(3.43472e-13 0 4.27482e-14)
(3.22528e-13 0 5.31099e-14)
(2.97835e-13 0 6.21388e-14)
(2.69908e-13 0 6.98818e-14)
(2.39218e-13 0 7.63944e-14)
(2.06201e-13 0 8.17472e-14)
(1.71252e-13 0 8.60253e-14)
(1.34731e-13 0 8.93178e-14)
(9.697e-14 0 9.17047e-14)
(5.83007e-14 0 9.3251e-14)
(1.93907e-14 0 9.40266e-14)
(-2.36743e-05 0 -0.000152873)
(6.8386e-05 0 -0.000144765)
(2.51427e-05 0 -0.000173141)
(8.05434e-05 0 -0.000212167)
(0.000199093 0 -0.000194088)
(0.000244692 0 -0.000238299)
(0.000284074 0 -0.000284328)
(0.000378521 0 -0.000210272)
(0.000426748 0 -0.000178069)
(0.000471607 0 -0.000178148)
(0.000521405 0 -0.00016919)
(0.000571333 0 -0.000104061)
(0.000594697 0 -0.000126132)
(0.000629903 0 -0.000113217)
(0.000672194 0 4.40648e-06)
(0.000677147 0 -0.000141856)
(0.000704098 0 -4.24143e-05)
(0.000712398 0 -2.08948e-05)
(0.000726764 0 -4.41804e-05)
(0.000740087 0 6.20221e-08)
(0.00073244 0 1.99867e-06)
(0.000728641 0 -9.70845e-06)
(0.000733835 0 6.31914e-06)
(0.000741649 0 -3.32927e-06)
(0.000746941 0 -2.23397e-05)
(0.00075758 0 -3.66681e-06)
(0.000766335 0 -8.27057e-06)
(0.000765691 0 -1.38238e-05)
(0.000768739 0 -1.72121e-05)
(0.000779817 0 -9.09797e-06)
(0.000785942 0 -1.81265e-05)
(0.000791558 0 -3.47064e-05)
(0.000805539 0 -8.51332e-06)
(0.000807422 0 1.66184e-05)
(0.00080501 0 1.6793e-05)
(0.000798639 0 2.79986e-05)
(0.000786283 0 3.30618e-05)
(0.000769694 0 5.42291e-05)
(0.000752577 0 6.53088e-05)
(0.000731425 0 4.51863e-05)
(0.000695671 0 7.74242e-05)
(0.000661756 0 0.000105331)
(0.000651353 0 4.69709e-05)
(0.000638829 0 2.31466e-05)
(0.00062142 0 3.72849e-05)
(0.000594175 0 4.16909e-05)
(0.000568377 0 3.03664e-05)
(0.000567977 0 3.34327e-05)
(0.000569777 0 3.06049e-05)
(0.000568026 0 2.14782e-05)
(0.000562569 0 3.43462e-05)
(0.000544068 0 0.000131954)
(0.000535747 0 0.000147152)
(0.000472773 0 0.000248473)
(0.000393333 0 0.000356974)
(0.000375483 0 0.000329269)
(0.000329409 0 0.000220597)
(0.000272737 0 0.000125388)
(0.000220475 0 9.50836e-05)
(0.00019336 0 6.45741e-05)
(0.000179385 0 4.79249e-05)
(0.000167321 0 3.31918e-05)
(0.000148846 0 7.65092e-06)
(0.000131353 0 -2.14245e-05)
(0.0001269 0 -2.44068e-05)
(0.000127197 0 -1.73164e-05)
(0.000125649 0 -1.38294e-05)
(0.000116216 0 6.47493e-06)
(0.000110904 0 2.09011e-05)
(0.000110331 0 2.12529e-05)
(0.000102695 0 2.46738e-05)
(6.66983e-05 0 3.47466e-05)
(2.05384e-05 0 4.42509e-05)
(2.8325e-05 0 4.66299e-05)
(2.58753e-05 0 4.73518e-05)
(4.48772e-05 0 5.73063e-05)
(3.50455e-05 0 6.94623e-05)
(3.25486e-05 0 6.56157e-05)
(2.57406e-05 0 5.32913e-05)
(2.15684e-05 0 4.08233e-05)
(6.13748e-09 0 2.6823e-05)
(-7.34011e-13 0 3.2148e-14)
(-1.45278e-12 0 -5.93921e-14)
(-1.41654e-12 0 -1.4341e-13)
(-1.35519e-12 0 -2.18355e-13)
(-1.27195e-12 0 -2.82438e-13)
(-1.17094e-12 0 -3.34572e-13)
(-1.05639e-12 0 -3.7437e-13)
(-9.32381e-13 0 -4.01997e-13)
(-8.02728e-13 0 -4.18035e-13)
(-6.7093e-13 0 -4.23369e-13)
(-5.4014e-13 0 -4.19102e-13)
(-4.13098e-13 0 -4.06504e-13)
(-2.92062e-13 0 -3.86947e-13)
(-1.78817e-13 0 -3.61819e-13)
(-7.47104e-14 0 -3.32459e-13)
(1.9311e-14 0 -3.00103e-13)
(1.02636e-13 0 -2.65853e-13)
(1.7494e-13 0 -2.30693e-13)
(2.362e-13 0 -1.95507e-13)
(2.86702e-13 0 -1.61073e-13)
(3.26967e-13 0 -1.28021e-13)
(3.57608e-13 0 -9.67776e-14)
(3.79236e-13 0 -6.75835e-14)
(3.92455e-13 0 -4.05439e-14)
(3.97918e-13 0 -1.56975e-14)
(3.96336e-13 0 6.9493e-15)
(3.88457e-13 0 2.74165e-14)
(3.7501e-13 0 4.57537e-14)
(3.56683e-13 0 6.20343e-14)
(3.341e-13 0 7.63444e-14)
(3.07831e-13 0 8.87731e-14)
(2.78398e-13 0 9.94121e-14)
(2.46285e-13 0 1.08361e-13)
(2.11942e-13 0 1.15729e-13)
(1.75773e-13 0 1.21638e-13)
(1.38133e-13 0 1.26202e-13)
(9.93383e-14 0 1.29528e-13)
(5.97078e-14 0 1.31703e-13)
(1.98623e-14 0 1.32797e-13)
(-1.60133e-05 0 -0.000161677)
(4.62378e-05 0 -0.000176286)
(3.78423e-05 0 -0.000206363)
(0.000106692 0 -0.000267868)
(0.000235389 0 -0.000259621)
(0.000312518 0 -0.000250045)
(0.000293497 0 -0.000315865)
(0.000361556 0 -0.000262144)
(0.000403126 0 -0.000231881)
(0.000436801 0 -0.000227829)
(0.000476502 0 -0.000204669)
(0.000525824 0 -0.000148116)
(0.000538769 0 -0.000216213)
(0.000589817 0 -0.000156474)
(0.000630888 0 -8.11505e-05)
(0.000644158 0 -0.000181325)
(0.00069318 0 -4.53633e-07)
(0.000699386 0 -4.32053e-05)
(0.000712301 0 -8.58055e-05)
(0.000724852 0 5.05712e-06)
(0.000720946 0 -9.4044e-06)
(0.000723393 0 -2.82655e-05)
(0.000729344 0 -6.79916e-06)
(0.000736792 0 2.44575e-06)
(0.000746732 0 -4.09697e-05)
(0.000756089 0 -4.62683e-05)
(0.000757131 0 -1.48836e-05)
(0.000759389 0 -2.04015e-05)
(0.000765237 0 -2.51964e-05)
(0.000774669 0 -8.44213e-06)
(0.000783489 0 -3.63893e-05)
(0.000800468 0 -4.67409e-05)
(0.000819021 0 -6.02078e-06)
(0.000815489 0 -1.10887e-05)
(0.000811971 0 1.06434e-05)
(0.000809401 0 3.18252e-05)
(0.000800005 0 4.47021e-05)
(0.000780636 0 4.81184e-05)
(0.000758599 0 6.8599e-05)
(0.000734344 0 7.84831e-05)
(0.000699106 0 8.80147e-05)
(0.000667856 0 8.31529e-05)
(0.000632775 0 0.000105258)
(0.000608417 0 7.25595e-05)
(0.000592042 0 6.14442e-05)
(0.000563546 0 5.80503e-05)
(0.00053335 0 3.10428e-05)
(0.000529532 0 2.56877e-05)
(0.000533271 0 2.46658e-05)
(0.000549141 0 5.67946e-05)
(0.000545624 0 7.07715e-05)
(0.000527829 0 0.000103437)
(0.000465798 0 0.000202992)
(0.000414083 0 0.000287849)
(0.000400213 0 0.000322751)
(0.000355787 0 0.000341609)
(0.000271567 0 0.0003106)
(0.000209326 0 0.000232796)
(0.000189549 0 0.000155496)
(0.000186675 0 9.82215e-05)
(0.000179988 0 6.83118e-05)
(0.000168191 0 5.46371e-05)
(0.00014922 0 3.01098e-05)
(0.000130003 0 -7.35054e-06)
(0.000121177 0 -2.44111e-05)
(0.00011774 0 -1.04429e-05)
(0.000114724 0 1.121e-05)
(0.000108633 0 1.45805e-05)
(7.60259e-05 0 3.40972e-05)
(4.25092e-05 0 5.83131e-05)
(2.03718e-05 0 6.24882e-05)
(1.26685e-06 0 6.10659e-05)
(-1.60061e-05 0 5.39905e-05)
(-2.40048e-05 0 4.63732e-05)
(-3.09788e-05 0 4.00405e-05)
(-2.8401e-05 0 4.70297e-05)
(-1.04517e-05 0 5.65937e-05)
(1.35532e-06 0 5.61891e-05)
(2.28558e-05 0 4.50119e-05)
(1.52569e-05 0 4.6393e-05)
(8.72987e-09 0 4.02935e-05)
(-7.85813e-13 0 3.55503e-14)
(-1.55229e-12 0 -8.50063e-14)
(-1.50858e-12 0 -1.97957e-13)
(-1.43566e-12 0 -2.98103e-13)
(-1.33893e-12 0 -3.82719e-13)
(-1.22365e-12 0 -4.50638e-13)
(-1.09479e-12 0 -5.01685e-13)
(-9.56976e-13 0 -5.36338e-13)
(-8.14424e-13 0 -5.55546e-13)
(-6.70918e-13 0 -5.60611e-13)
(-5.29821e-13 0 -5.53089e-13)
(-3.9402e-13 0 -5.3472e-13)
(-2.65836e-13 0 -5.0737e-13)
(-1.47027e-13 0 -4.72915e-13)
(-3.88442e-14 0 -4.33162e-13)
(5.79096e-14 0 -3.89755e-13)
(1.42776e-13 0 -3.44135e-13)
(2.15566e-13 0 -2.97553e-13)
(2.76374e-13 0 -2.51107e-13)
(3.25625e-13 0 -2.05768e-13)
(3.64026e-13 0 -1.62338e-13)
(3.92405e-13 0 -1.21395e-13)
(4.1156e-13 0 -8.32805e-14)
(4.22222e-13 0 -4.81421e-14)
(4.2511e-13 0 -1.60136e-14)
(4.20974e-13 0 1.31295e-14)
(4.10589e-13 0 3.93462e-14)
(3.94716e-13 0 6.27277e-14)
(3.74062e-13 0 8.33954e-14)
(3.49267e-13 0 1.0149e-13)
(3.20903e-13 0 1.17161e-13)
(2.89495e-13 0 1.30558e-13)
(2.55536e-13 0 1.41828e-13)
(2.19478e-13 0 1.51122e-13)
(1.81725e-13 0 1.58588e-13)
(1.42621e-13 0 1.64364e-13)
(1.0247e-13 0 1.68577e-13)
(6.15699e-14 0 1.71336e-13)
(2.04854e-14 0 1.72723e-13)
(-4.99465e-05 0 -0.000164072)
(3.71155e-05 0 -0.000216041)
(0.000155806 0 -0.000253983)
(0.00016979 0 -0.000328026)
(0.000196095 0 -0.000375322)
(0.000283218 0 -0.000334536)
(0.000293428 0 -0.000334579)
(0.000327341 0 -0.000296465)
(0.000342068 0 -0.000266002)
(0.000363611 0 -0.000246233)
(0.000385803 0 -0.000236143)
(0.000432104 0 -0.000203355)
(0.000469043 0 -0.000200625)
(0.00051627 0 -0.000153525)
(0.000550571 0 -0.000125538)
(0.000574341 0 -0.000175207)
(0.000634071 0 -1.52738e-05)
(0.000644476 0 -0.000128303)
(0.000688943 0 -8.40152e-05)
(0.000700703 0 -2.42822e-05)
(0.000702948 0 -3.30221e-05)
(0.000719556 0 -2.49194e-05)
(0.000720647 0 -1.85106e-05)
(0.000723311 0 -2.27911e-05)
(0.000736616 0 -2.17362e-05)
(0.000748997 0 -1.55066e-05)
(0.000748943 0 -3.29876e-05)
(0.000754574 0 -2.15353e-05)
(0.000762985 0 -2.96151e-05)
(0.000767475 0 -4.43054e-05)
(0.000779966 0 -3.27129e-05)
(0.000793916 0 -0.00010731)
(0.000807131 0 5.17571e-07)
(0.000805646 0 1.1204e-05)
(0.000809411 0 9.53912e-06)
(0.00081324 0 5.31308e-05)
(0.000806996 0 6.54443e-05)
(0.000789167 0 7.43235e-05)
(0.000764973 0 9.26992e-05)
(0.000734043 0 0.000125284)
(0.000708006 0 9.54226e-05)
(0.000654871 0 0.000175179)
(0.000620512 0 0.000106481)
(0.000594799 0 6.89885e-05)
(0.000565828 0 9.86963e-05)
(0.000528055 0 7.51072e-05)
(0.000520989 0 4.09404e-05)
(0.00052346 0 3.72027e-05)
(0.000520269 0 -4.85121e-06)
(0.000512356 0 4.83615e-05)
(0.000500234 0 0.000118216)
(0.000486646 0 0.000147359)
(0.000423506 0 0.000242976)
(0.00038819 0 0.000312671)
(0.000301922 0 0.000411847)
(0.000250349 0 0.000418884)
(0.000203677 0 0.00035379)
(0.00018152 0 0.000249169)
(0.000169812 0 0.000165448)
(0.000166137 0 0.000109556)
(0.00016116 0 7.79089e-05)
(0.000152938 0 6.5167e-05)
(0.000139781 0 4.69775e-05)
(0.000125571 0 5.18271e-06)
(0.000119818 0 -2.11723e-06)
(0.000113052 0 -4.14486e-07)
(8.8012e-05 0 2.24779e-05)
(3.92727e-05 0 5.82474e-05)
(2.4496e-05 0 7.02348e-05)
(1.09268e-05 0 7.60502e-05)
(-1.04007e-05 0 7.4742e-05)
(-2.08893e-05 0 7.00228e-05)
(-4.35073e-05 0 5.88393e-05)
(-4.22089e-05 0 4.47905e-05)
(-3.88896e-05 0 2.79916e-05)
(-3.21404e-05 0 1.83464e-05)
(-2.15468e-05 0 3.1767e-05)
(-4.68094e-06 0 3.82349e-05)
(-6.81857e-07 0 4.70354e-05)
(1.80993e-05 0 4.79799e-05)
(3.96588e-09 0 4.67769e-05)
(-8.5385e-13 0 4.19031e-14)
(-1.68612e-12 0 -1.17966e-13)
(-1.62964e-12 0 -2.64945e-13)
(-1.53995e-12 0 -3.9301e-13)
(-1.42448e-12 0 -4.99369e-13)
(-1.2899e-12 0 -5.83305e-13)
(-1.14209e-12 0 -6.45185e-13)
(-9.86242e-13 0 -6.85987e-13)
(-8.27001e-13 0 -7.07134e-13)
(-6.68472e-13 0 -7.10429e-13)
(-5.14249e-13 0 -6.97953e-13)
(-3.67379e-13 0 -6.71993e-13)
(-2.30257e-13 0 -6.34971e-13)
(-1.04609e-13 0 -5.89331e-13)
(8.44943e-15 0 -5.37428e-13)
(1.08337e-13 0 -4.81398e-13)
(1.94838e-13 0 -4.2307e-13)
(2.67968e-13 0 -3.63972e-13)
(3.27984e-13 0 -3.05407e-13)
(3.75471e-13 0 -2.48501e-13)
(4.11339e-13 0 -1.94202e-13)
(4.36666e-13 0 -1.43211e-13)
(4.52489e-13 0 -9.59528e-14)
(4.59722e-13 0 -5.26063e-14)
(4.59189e-13 0 -1.3185e-14)
(4.51696e-13 0 2.2386e-14)
(4.38055e-13 0 5.42279e-14)
(4.1906e-13 0 8.24963e-14)
(3.95446e-13 0 1.07377e-13)
(3.67866e-13 0 1.29079e-13)
(3.36899e-13 0 1.47818e-13)
(3.03065e-13 0 1.63807e-13)
(2.6685e-13 0 1.77246e-13)
(2.28702e-13 0 1.88328e-13)
(1.89015e-13 0 1.97231e-13)
(1.48122e-13 0 2.04121e-13)
(1.06311e-13 0 2.0915e-13)
(6.38536e-14 0 2.12445e-13)
(2.12492e-14 0 2.14101e-13)
(-5.76777e-05 0 -0.000191565)
(0.000152499 0 -0.000260485)
(0.000100943 0 -0.000383834)
(0.000204181 0 -0.000390496)
(0.000231128 0 -0.000379872)
(0.000255624 0 -0.000357893)
(0.000247105 0 -0.000335512)
(0.000240688 0 -0.000302058)
(0.000220403 0 -0.000298262)
(0.000261492 0 -0.000273866)
(0.000291257 0 -0.000272879)
(0.000349833 0 -0.000247458)
(0.00038647 0 -0.000250594)
(0.000441461 0 -0.000199209)
(0.00046501 0 -0.000208381)
(0.000509042 0 -0.00018339)
(0.000570654 0 -8.47064e-05)
(0.000587462 0 -0.000212535)
(0.000645221 0 2.03619e-05)
(0.000645205 0 -3.15845e-05)
(0.000654876 0 -3.66549e-05)
(0.000679712 0 2.35696e-05)
(0.00068346 0 -4.14924e-05)
(0.000689329 0 -3.65224e-05)
(0.000701412 0 -5.77761e-05)
(0.000720316 0 -5.96007e-05)
(0.000723624 0 -3.96766e-05)
(0.000720918 0 -3.09326e-05)
(0.000717605 0 -3.72846e-05)
(0.000718617 0 -4.7386e-05)
(0.000738217 0 -5.06268e-05)
(0.000744649 0 -3.94035e-05)
(0.000734487 0 -3.10785e-05)
(0.000735313 0 -1.52011e-05)
(0.000746727 0 -2.27839e-05)
(0.000764573 0 4.29823e-05)
(0.000761019 0 6.61767e-05)
(0.000750397 0 9.16201e-05)
(0.00073774 0 0.000110519)
(0.000716292 0 0.000140473)
(0.000689275 0 0.000137283)
(0.000642804 0 0.000173759)
(0.000619371 0 0.000111297)
(0.000565028 0 0.000174837)
(0.000507006 0 0.000204849)
(0.000484273 0 8.86195e-05)
(0.000487432 0 4.66462e-05)
(0.00049674 0 3.53134e-05)
(0.000495269 0 3.31531e-05)
(0.000480855 0 2.35494e-05)
(0.000459193 0 9.96731e-05)
(0.000382085 0 0.000223157)
(0.000319087 0 0.000307712)
(0.000239975 0 0.000416652)
(0.000181782 0 0.00047042)
(0.000159419 0 0.00045284)
(0.000145678 0 0.000371876)
(0.000149603 0 0.00025512)
(0.000149699 0 0.000150182)
(0.000146063 0 9.79172e-05)
(0.000150197 0 7.20005e-05)
(0.000146949 0 6.41597e-05)
(0.000135278 0 5.20744e-05)
(0.000120906 0 1.0934e-05)
(0.000114333 0 -1.06701e-05)
(9.67681e-05 0 8.88573e-06)
(4.64647e-05 0 6.48558e-05)
(2.19415e-05 0 7.64383e-05)
(-2.39912e-06 0 8.57128e-05)
(-1.72243e-05 0 9.06454e-05)
(-3.37646e-05 0 8.56822e-05)
(-4.03239e-05 0 8.04281e-05)
(-4.58955e-05 0 6.93826e-05)
(-4.70573e-05 0 5.20845e-05)
(-4.20657e-05 0 3.13024e-05)
(-3.3667e-05 0 2.17337e-05)
(-2.86333e-05 0 2.24076e-05)
(-1.63833e-05 0 2.90674e-05)
(-4.50347e-06 0 4.91739e-05)
(1.00128e-05 0 5.14777e-05)
(-8.6797e-10 0 5.25932e-05)
(-9.42356e-13 0 4.45005e-14)
(-1.85898e-12 0 -1.6342e-13)
(-1.78362e-12 0 -3.50505e-13)
(-1.67008e-12 0 -5.09292e-13)
(-1.52923e-12 0 -6.38196e-13)
(-1.36946e-12 0 -7.37895e-13)
(-1.19747e-12 0 -8.09736e-13)
(-1.01893e-12 0 -8.55357e-13)
(-8.38866e-13 0 -8.76723e-13)
(-6.61736e-13 0 -8.76201e-13)
(-4.91385e-13 0 -8.5649e-13)
(-3.31038e-13 0 -8.2052e-13)
(-1.83174e-13 0 -7.71367e-13)
(-4.94837e-14 0 -7.12126e-13)
(6.9088e-14 0 -6.45797e-13)
(1.72268e-13 0 -5.751e-13)
(2.60202e-13 0 -5.02331e-13)
(3.33229e-13 0 -4.29333e-13)
(3.91845e-13 0 -3.57598e-13)
(4.3683e-13 0 -2.8837e-13)
(4.69316e-13 0 -2.22682e-13)
(4.90654e-13 0 -1.61309e-13)
(5.02164e-13 0 -1.04723e-13)
(5.0499e-13 0 -5.31065e-14)
(5.00103e-13 0 -6.43157e-15)
(4.88387e-13 0 3.54511e-14)
(4.70699e-13 0 7.27491e-14)
(4.47865e-13 0 1.05704e-13)
(4.20645e-13 0 1.34582e-13)
(3.89708e-13 0 1.59668e-13)
(3.5563e-13 0 1.81254e-13)
(3.18924e-13 0 1.9962e-13)
(2.80057e-13 0 2.15026e-13)
(2.39463e-13 0 2.27713e-13)
(1.97518e-13 0 2.379e-13)
(1.5454e-13 0 2.45782e-13)
(1.10794e-13 0 2.51537e-13)
(6.65216e-14 0 2.55311e-13)
(2.21419e-14 0 2.5721e-13)
(-4.23321e-05 0 -0.000233388)
(0.000106383 0 -0.000378858)
(0.000157792 0 -0.000430622)
(0.000196706 0 -0.000414347)
(0.0002008 0 -0.000394674)
(0.000179312 0 -0.000352729)
(0.000125189 0 -0.000321986)
(0.000139591 0 -0.00030642)
(0.000183266 0 -0.000286878)
(0.00018883 0 -0.00030146)
(0.000222185 0 -0.000321848)
(0.000306158 0 -0.000291905)
(0.000356502 0 -0.000276141)
(0.000396966 0 -0.000257508)
(0.000437482 0 -0.000240428)
(0.000489878 0 -0.00020638)
(0.000513359 0 -0.000280751)
(0.000579329 0 -8.34386e-05)
(0.000578284 0 -7.97119e-05)
(0.00058898 0 -8.90419e-05)
(0.000617129 0 -2.93964e-05)
(0.000622438 0 -3.9621e-05)
(0.000624073 0 -4.68553e-05)
(0.000630872 0 -4.49642e-05)
(0.000640945 0 -5.52889e-05)
(0.000650868 0 -3.24381e-05)
(0.000650781 0 -2.5906e-05)
(0.000649238 0 -2.39299e-05)
(0.00064524 0 -3.87193e-05)
(0.000648524 0 -5.99978e-05)
(0.000680216 0 -5.86327e-05)
(0.00069341 0 -4.2924e-05)
(0.000689636 0 -2.40062e-05)
(0.000692848 0 -2.64133e-05)
(0.000695849 0 -1.51194e-06)
(0.000693446 0 6.88106e-05)
(0.000692735 0 7.6646e-05)
(0.000686191 0 8.38324e-05)
(0.000670455 0 0.000138785)
(0.00065918 0 0.000172713)
(0.000646955 0 0.000174859)
(0.000618391 0 0.000192575)
(0.000591815 0 0.000173802)
(0.000543921 0 0.000172288)
(0.000486189 0 0.000191172)
(0.000456808 0 0.000147609)
(0.000446918 0 3.79998e-05)
(0.000451898 0 2.82499e-05)
(0.000448905 0 3.31102e-05)
(0.000426239 0 6.01957e-05)
(0.000320407 0 0.000207717)
(0.00025346 0 0.000298248)
(0.000196779 0 0.000387686)
(0.000150783 0 0.000468696)
(0.000127564 0 0.000493365)
(9.4659e-05 0 0.000462318)
(0.000103609 0 0.000364618)
(0.000108666 0 0.000253842)
(0.000114624 0 0.000169351)
(0.000136858 0 9.19827e-05)
(0.000136455 0 8.10027e-05)
(0.000129523 0 8.0897e-05)
(0.000122724 0 6.01188e-05)
(0.000119726 0 1.766e-05)
(0.00010693 0 1.93645e-05)
(4.66765e-05 0 7.02195e-05)
(3.01017e-05 0 8.59586e-05)
(-2.91045e-06 0 9.84583e-05)
(-1.31184e-05 0 0.000108269)
(-2.48486e-05 0 0.00010953)
(-3.95843e-05 0 9.87285e-05)
(-4.17477e-05 0 8.69452e-05)
(-4.46283e-05 0 6.96785e-05)
(-4.46706e-05 0 5.30069e-05)
(-4.38808e-05 0 2.79372e-05)
(-3.55569e-05 0 7.52121e-06)
(-3.81394e-05 0 9.06904e-06)
(-2.75878e-05 0 1.95588e-05)
(-2.07816e-05 0 4.60688e-05)
(-1.46013e-06 0 5.28546e-05)
(-6.74358e-09 0 5.00016e-05)
(-1.05833e-12 0 4.44868e-14)
(-2.08098e-12 0 -2.29313e-13)
(-1.97551e-12 0 -4.64284e-13)
(-1.82765e-12 0 -6.55412e-13)
(-1.65309e-12 0 -8.06266e-13)
(-1.46144e-12 0 -9.20492e-13)
(-1.25955e-12 0 -1.00074e-12)
(-1.05323e-12 0 -1.04925e-12)
(-8.47845e-13 0 -1.06851e-12)
(-6.48239e-13 0 -1.06146e-12)
(-4.58567e-13 0 -1.03155e-12)
(-2.82256e-13 0 -9.82495e-13)
(-1.21863e-13 0 -9.18141e-13)
(2.09607e-14 0 -8.42343e-13)
(1.45475e-13 0 -7.58826e-13)
(2.51804e-13 0 -6.70984e-13)
(3.40606e-13 0 -5.81661e-13)
(4.12701e-13 0 -4.93071e-13)
(4.68947e-13 0 -4.06891e-13)
(5.10388e-13 0 -3.24439e-13)
(5.38401e-13 0 -2.46768e-13)
(5.54625e-13 0 -1.74661e-13)
(5.60691e-13 0 -1.08581e-13)
(5.58013e-13 0 -4.86739e-14)
(5.47747e-13 0 5.16089e-15)
(5.30877e-13 0 5.31746e-14)
(5.08308e-13 0 9.56881e-14)
(4.80892e-13 0 1.33052e-13)
(4.4941e-13 0 1.65634e-13)
(4.14539e-13 0 1.9381e-13)
(3.7685e-13 0 2.17954e-13)
(3.36837e-13 0 2.38423e-13)
(2.94944e-13 0 2.55547e-13)
(2.51575e-13 0 2.69619e-13)
(2.07083e-13 0 2.80904e-13)
(1.61759e-13 0 2.89633e-13)
(1.1584e-13 0 2.96007e-13)
(6.95262e-14 0 3.00189e-13)
(2.31473e-14 0 3.02291e-13)
(-5.9733e-05 0 -0.000270083)
(0.000132605 0 -0.000455174)
(0.000142798 0 -0.000459475)
(0.000149667 0 -0.000428977)
(0.000103353 0 -0.000376076)
(8.47877e-05 0 -0.000306494)
(3.76303e-05 0 -0.000296052)
(5.28679e-05 0 -0.000327938)
(0.000104576 0 -0.000327821)
(0.000141509 0 -0.000324572)
(0.000172598 0 -0.000350318)
(0.000205617 0 -0.000376422)
(0.000338373 0 -0.000296836)
(0.000368535 0 -0.000292277)
(0.000460793 0 -0.000199066)
(0.000423199 0 -0.000373755)
(0.000559071 0 -8.09287e-05)
(0.000543883 0 -0.000131572)
(0.000554836 0 -0.0001327)
(0.000582431 0 -6.75847e-05)
(0.000580388 0 -5.81361e-05)
(0.0005768 0 -4.77488e-05)
(0.000577601 0 -4.53692e-05)
(0.000575319 0 -4.65475e-05)
(0.000571248 0 -6.46756e-05)
(0.000572319 0 -7.12415e-05)
(0.000576531 0 -5.87644e-05)
(0.000583958 0 -3.61341e-05)
(0.000590878 0 -4.07736e-05)
(0.000607248 0 -8.60821e-05)
(0.000655921 0 -8.52636e-05)
(0.000677235 0 -5.11289e-05)
(0.000683324 0 -6.5648e-05)
(0.000696592 0 5.33785e-06)
(0.000687297 0 1.93704e-05)
(0.000663277 0 1.46942e-05)
(0.000648271 0 0.000112923)
(0.000644262 0 0.000114467)
(0.000633292 0 0.000112484)
(0.000615082 0 0.000152731)
(0.000594473 0 0.000188385)
(0.000568092 0 0.000214419)
(0.000541769 0 0.000208873)
(0.000497786 0 0.000215477)
(0.000453699 0 0.000217859)
(0.000416685 0 0.000179777)
(0.000402726 0 6.78184e-05)
(0.000401863 0 5.67098e-05)
(0.000387852 0 7.56479e-05)
(0.000327224 0 0.000162774)
(0.000233256 0 0.000272271)
(0.000213401 0 0.000333816)
(0.000142516 0 0.00042877)
(6.57725e-05 0 0.000507316)
(4.37718e-05 0 0.000510933)
(6.1119e-05 0 0.000451815)
(7.47061e-05 0 0.000346797)
(8.46538e-05 0 0.000244229)
(9.9385e-05 0 0.000158283)
(0.00010411 0 0.000106755)
(0.000102955 0 9.98312e-05)
(0.000102854 0 9.18788e-05)
(0.000108319 0 6.6141e-05)
(0.000111339 0 3.6246e-05)
(6.20298e-05 0 6.77446e-05)
(5.67457e-05 0 8.1255e-05)
(2.09227e-05 0 0.000111432)
(-2.83435e-06 0 0.000125868)
(-2.40616e-05 0 0.000126848)