/*--------------------------------*- C++ -*----------------------------------*\
  =========                 |
  \\      /  F ield         | OpenFOAM: The Open Source CFD Toolbox
   \\    /   O peration     | Website:  https://openfoam.org
    \\  /    A nd           | Version:  6
     \\/     M anipulation  |
\*---------------------------------------------------------------------------*/
FoamFile
{
    version     2.0;
    format      ascii;
    class       volVectorField;
    location    "3000";
    object      U;
}
// * * * * * * * * * * * * * * * * * * * * * * * * * * * * * * * * * * * * * //

dimensions      [0 1 -1 0 0 0 0];

internalField   nonuniform List<vector> 
4800
(
(-6.48253e-09 0 7.76064e-09)
(-2.19724e-08 0 5.13568e-09)
(-3.62848e-08 0 4.1831e-09)
(-5.06885e-08 0 3.95569e-09)
(-6.4936e-08 0 3.97863e-09)
(-7.89597e-08 0 4.11268e-09)
(-9.27003e-08 0 4.28956e-09)
(-1.06114e-07 0 4.48178e-09)
(-1.19152e-07 0 4.64735e-09)
(-1.31754e-07 0 4.76327e-09)
(-1.43867e-07 0 4.83293e-09)
(-1.55452e-07 0 4.8348e-09)
(-1.66448e-07 0 4.74155e-09)
(-1.76838e-07 0 4.64517e-09)
(-1.86639e-07 0 4.49018e-09)
(-1.95846e-07 0 4.36168e-09)
(-2.04611e-07 0 4.15938e-09)
(-2.12367e-07 0 3.56615e-09)
(-2.19182e-07 0 3.26738e-09)
(-2.25628e-07 0 3.13868e-09)
(-2.31593e-07 0 3.01933e-09)
(-2.36432e-07 0 2.06236e-09)
(-2.40484e-07 0 2.07758e-09)
(-2.44148e-07 0 1.74314e-09)
(-2.47065e-07 0 1.37494e-09)
(-2.49272e-07 0 1.06789e-09)
(-2.50896e-07 0 7.82602e-10)
(-2.51904e-07 0 4.88169e-10)
(-2.52307e-07 0 2.02813e-10)
(-2.52112e-07 0 -9.1687e-11)
(-2.51313e-07 0 -3.84671e-10)
(-2.4993e-07 0 -6.66694e-10)
(-2.47981e-07 0 -9.45602e-10)
(-2.45467e-07 0 -1.23151e-09)
(-2.42381e-07 0 -1.51043e-09)
(-2.38749e-07 0 -1.7842e-09)
(-2.34568e-07 0 -2.06513e-09)
(-2.29861e-07 0 -2.32834e-09)
(-2.24609e-07 0 -2.59852e-09)
(-2.18865e-07 0 -2.85175e-09)
(-2.12622e-07 0 -3.10662e-09)
(-2.05895e-07 0 -3.34317e-09)
(-1.98732e-07 0 -3.56675e-09)
(-1.9114e-07 0 -3.78261e-09)
(-1.83171e-07 0 -3.96184e-09)
(-1.74851e-07 0 -4.14298e-09)
(-1.66224e-07 0 -4.29425e-09)
(-1.57342e-07 0 -4.41031e-09)
(-1.48258e-07 0 -4.5108e-09)
(-1.39018e-07 0 -4.58397e-09)
(-1.29683e-07 0 -4.6198e-09)
(-1.20314e-07 0 -4.63541e-09)
(-1.10969e-07 0 -4.61025e-09)
(-1.01717e-07 0 -4.55658e-09)
(-9.26171e-08 0 -4.47122e-09)
(-8.37243e-08 0 -4.3659e-09)
(-7.50755e-08 0 -4.23141e-09)
(-6.67419e-08 0 -4.07664e-09)
(-5.87461e-08 0 -3.89065e-09)
(-5.11465e-08 0 -3.70721e-09)
(-4.39401e-08 0 -3.50227e-09)
(-3.71657e-08 0 -3.29559e-09)
(-3.08264e-08 0 -3.08131e-09)
(-2.4926e-08 0 -2.87151e-09)
(-1.94616e-08 0 -2.66212e-09)
(-1.44081e-08 0 -2.47732e-09)
(-9.73853e-09 0 -2.29493e-09)
(-5.42773e-09 0 -2.13457e-09)
(-1.42234e-09 0 -2.00764e-09)
(2.36414e-09 0 -1.92789e-09)
(6.00902e-09 0 -1.88067e-09)
(9.63471e-09 0 -1.91045e-09)
(1.3455e-08 0 -2.05275e-09)
(1.79033e-08 0 -2.48973e-09)
(2.42005e-08 0 -3.74187e-09)
(3.57041e-08 0 -7.46871e-09)
(5.95323e-08 0 -1.99046e-08)
(3.57492e-08 0 1.49999e-08)
(5.06243e-11 0 1.70597e-08)
(1.17695e-15 0 -5.46612e-16)
(2.71121e-16 0 -9.30578e-19)
(5.39953e-16 0 4.3427e-19)
(5.36582e-16 0 1.23043e-18)
(5.30337e-16 0 1.94387e-18)
(5.2345e-16 0 2.64698e-18)
(5.16057e-16 0 3.33974e-18)
(5.08023e-16 0 4.01183e-18)
(4.99235e-16 0 4.68391e-18)
(4.8967e-16 0 5.28362e-18)
(4.79258e-16 0 5.8523e-18)
(4.68008e-16 0 6.35895e-18)
(4.56025e-16 0 6.83458e-18)
(4.43307e-16 0 7.24817e-18)
(4.29875e-16 0 7.6204e-18)
(4.15834e-16 0 7.93059e-18)
(4.01245e-16 0 8.17875e-18)
(3.86138e-16 0 8.39588e-18)
(3.70567e-16 0 8.55098e-18)
(3.54643e-16 0 8.67506e-18)
(3.3842e-16 0 8.75778e-18)
(3.21949e-16 0 8.79913e-18)
(3.0525e-16 0 8.83015e-18)
(2.88397e-16 0 8.79913e-18)
(2.7145e-16 0 8.74744e-18)
(2.54461e-16 0 8.69574e-18)
(2.37473e-16 0 8.60268e-18)
(2.20444e-16 0 8.4786e-18)
(2.03445e-16 0 8.3752e-18)
(1.8655e-16 0 8.26147e-18)
(1.69758e-16 0 8.13739e-18)
(1.53039e-16 0 7.99263e-18)
(1.36412e-16 0 7.8789e-18)
(1.199e-16 0 7.74448e-18)
(1.03532e-16 0 7.6204e-18)
(8.72676e-17 0 7.49633e-18)
(7.10548e-17 0 7.39293e-18)
(5.49662e-17 0 7.32055e-18)
(3.89809e-17 0 7.21715e-18)
(2.313e-17 0 7.10341e-18)
(7.63074e-18 0 6.85526e-18)
(-6.38659e-09 0 2.19882e-08)
(-2.18605e-08 0 2.4066e-08)
(-3.65116e-08 0 2.45962e-08)
(-5.11315e-08 0 2.44557e-08)
(-6.55141e-08 0 2.40082e-08)
(-7.96288e-08 0 2.34025e-08)
(-9.34506e-08 0 2.26666e-08)
(-1.06925e-07 0 2.18374e-08)
(-1.19991e-07 0 2.09156e-08)
(-1.32612e-07 0 1.99191e-08)
(-1.4474e-07 0 1.88753e-08)
(-1.56318e-07 0 1.77739e-08)
(-1.67291e-07 0 1.65741e-08)
(-1.77653e-07 0 1.55723e-08)
(-1.87443e-07 0 1.45867e-08)
(-1.96693e-07 0 1.38447e-08)
(-2.05426e-07 0 1.29135e-08)
(-2.13074e-07 0 1.09194e-08)
(-2.19926e-07 0 9.92118e-09)
(-2.26393e-07 0 9.47333e-09)
(-2.32309e-07 0 8.95413e-09)
(-2.37082e-07 0 6.11579e-09)
(-2.41194e-07 0 6.04572e-09)
(-2.44825e-07 0 5.02174e-09)
(-2.47714e-07 0 3.82515e-09)
(-2.49905e-07 0 2.88967e-09)
(-2.51523e-07 0 1.98539e-09)
(-2.52518e-07 0 1.06662e-09)
(-2.529e-07 0 1.69662e-10)
(-2.52684e-07 0 -7.33832e-10)
(-2.5188e-07 0 -1.62179e-09)
(-2.50501e-07 0 -2.47557e-09)
(-2.48538e-07 0 -3.33438e-09)
(-2.46012e-07 0 -4.17175e-09)
(-2.42935e-07 0 -4.99609e-09)
(-2.39296e-07 0 -5.83896e-09)
(-2.35097e-07 0 -6.65039e-09)
(-2.30385e-07 0 -7.42669e-09)
(-2.25119e-07 0 -8.22443e-09)
(-2.19352e-07 0 -8.9704e-09)
(-2.13088e-07 0 -9.70262e-09)
(-2.0634e-07 0 -1.04005e-08)
(-1.99151e-07 0 -1.1047e-08)
(-1.91539e-07 0 -1.16635e-08)
(-1.83526e-07 0 -1.22118e-08)
(-1.75146e-07 0 -1.27132e-08)
(-1.66474e-07 0 -1.31452e-08)
(-1.57541e-07 0 -1.34782e-08)
(-1.48395e-07 0 -1.37608e-08)
(-1.39096e-07 0 -1.39533e-08)
(-1.29703e-07 0 -1.40448e-08)
(-1.20282e-07 0 -1.40609e-08)
(-1.10888e-07 0 -1.39741e-08)
(-1.01577e-07 0 -1.37975e-08)
(-9.24188e-08 0 -1.35201e-08)
(-8.34676e-08 0 -1.31923e-08)
(-7.4764e-08 0 -1.27674e-08)
(-6.63914e-08 0 -1.22769e-08)
(-5.83666e-08 0 -1.17038e-08)
(-5.07407e-08 0 -1.11362e-08)
(-4.35125e-08 0 -1.04989e-08)
(-3.67213e-08 0 -9.85977e-09)
(-3.03754e-08 0 -9.18842e-09)
(-2.44907e-08 0 -8.52316e-09)
(-1.9043e-08 0 -7.88267e-09)
(-1.40129e-08 0 -7.28256e-09)
(-9.39361e-09 0 -6.70277e-09)
(-5.13562e-09 0 -6.19815e-09)
(-1.17997e-09 0 -5.79208e-09)
(2.53194e-09 0 -5.50473e-09)
(6.04973e-09 0 -5.3147e-09)
(9.44463e-09 0 -5.33442e-09)
(1.282e-08 0 -5.66197e-09)
(1.62068e-08 0 -6.58501e-09)
(1.92667e-08 0 -8.85479e-09)
(2.0773e-08 0 -1.4597e-08)
(1.05861e-08 0 -3.06275e-08)
(8.15214e-09 0 4.58587e-08)
(4.01801e-11 0 3.68141e-08)
(1.01852e-15 0 -1.51982e-15)
(2.72471e-16 0 -2.59528e-18)
(5.42093e-16 0 6.20385e-19)
(5.38081e-16 0 3.16397e-18)
(5.31753e-16 0 5.59381e-18)
(5.24856e-16 0 7.94093e-18)
(5.17433e-16 0 1.0226e-17)
(5.09347e-16 0 1.23974e-17)
(5.00496e-16 0 1.4486e-17)
(4.90839e-16 0 1.63989e-17)
(4.80323e-16 0 1.81359e-17)
(4.68991e-16 0 1.97076e-17)
(4.56904e-16 0 2.11345e-17)
(4.44093e-16 0 2.23959e-17)
(4.30568e-16 0 2.34609e-17)
(4.16403e-16 0 2.43812e-17)
(4.0172e-16 0 2.50946e-17)
(3.86521e-16 0 2.56633e-17)
(3.70856e-16 0 2.61079e-17)
(3.5485e-16 0 2.64284e-17)
(3.38544e-16 0 2.66042e-17)
(3.22001e-16 0 2.66662e-17)
(3.0525e-16 0 2.66352e-17)
(2.88335e-16 0 2.65215e-17)
(2.71346e-16 0 2.63147e-17)
(2.54317e-16 0 2.60562e-17)
(2.37256e-16 0 2.5715e-17)
(2.20216e-16 0 2.53014e-17)
(2.03228e-16 0 2.49188e-17)
(1.86312e-16 0 2.45052e-17)
(1.695e-16 0 2.40503e-17)
(1.5278e-16 0 2.35953e-17)
(1.36154e-16 0 2.31404e-17)
(1.19641e-16 0 2.27061e-17)
(1.03284e-16 0 2.23132e-17)
(8.70504e-17 0 2.19306e-17)
(7.08894e-17 0 2.15894e-17)
(5.478e-17 0 2.13102e-17)
(3.87638e-17 0 2.10414e-17)
(2.27681e-17 0 2.07933e-17)
(7.37225e-18 0 2.04624e-17)
(-6.72799e-09 0 3.59734e-08)
(-2.25284e-08 0 3.59177e-08)
(-3.6886e-08 0 3.56449e-08)
(-5.13295e-08 0 3.52763e-08)
(-6.56599e-08 0 3.47877e-08)
(-7.97902e-08 0 3.42091e-08)
(-9.36583e-08 0 3.35354e-08)
(-1.07212e-07 0 3.27333e-08)
(-1.20389e-07 0 3.17923e-08)
(-1.33132e-07 0 3.07203e-08)
(-1.45387e-07 0 2.95224e-08)
(-1.57087e-07 0 2.81439e-08)
(-1.68179e-07 0 2.65848e-08)
(-1.78675e-07 0 2.52176e-08)
(-1.8862e-07 0 2.38411e-08)
(-1.98058e-07 0 2.30212e-08)
(-2.0681e-07 0 2.09557e-08)
(-2.14338e-07 0 1.80793e-08)
(-2.21332e-07 0 1.65967e-08)
(-2.27909e-07 0 1.58984e-08)
(-2.33706e-07 0 1.4444e-08)
(-2.38333e-07 0 1.04552e-08)
(-2.42557e-07 0 1.00452e-08)
(-2.46143e-07 0 8.39292e-09)
(-2.48971e-07 0 6.32689e-09)
(-2.51153e-07 0 4.87275e-09)
(-2.52761e-07 0 3.33862e-09)
(-2.53733e-07 0 1.8112e-09)
(-2.54095e-07 0 3.16647e-10)
(-2.53869e-07 0 -1.1684e-09)
(-2.53056e-07 0 -2.63224e-09)
(-2.51657e-07 0 -4.06288e-09)
(-2.4968e-07 0 -5.50447e-09)
(-2.47138e-07 0 -6.89007e-09)
(-2.44035e-07 0 -8.25404e-09)
(-2.40383e-07 0 -9.68163e-09)
(-2.36174e-07 0 -1.10242e-08)
(-2.31437e-07 0 -1.23279e-08)
(-2.26134e-07 0 -1.36718e-08)
(-2.20335e-07 0 -1.49264e-08)
(-2.14029e-07 0 -1.61398e-08)
(-2.07239e-07 0 -1.7312e-08)
(-1.99995e-07 0 -1.84186e-08)
(-1.92298e-07 0 -1.94359e-08)
(-1.84211e-07 0 -2.03931e-08)
(-1.75761e-07 0 -2.12126e-08)
(-1.67007e-07 0 -2.19491e-08)
(-1.57967e-07 0 -2.25267e-08)
(-1.4871e-07 0 -2.30029e-08)
(-1.39298e-07 0 -2.33287e-08)
(-1.29786e-07 0 -2.349e-08)
(-1.20233e-07 0 -2.35198e-08)
(-1.1071e-07 0 -2.33772e-08)
(-1.01288e-07 0 -2.30844e-08)
(-9.20238e-08 0 -2.2625e-08)
(-8.29603e-08 0 -2.20907e-08)
(-7.41554e-08 0 -2.13676e-08)
(-6.57011e-08 0 -2.05367e-08)
(-5.75934e-08 0 -1.95872e-08)
(-4.99132e-08 0 -1.86227e-08)
(-4.26484e-08 0 -1.75656e-08)
(-3.58421e-08 0 -1.64811e-08)
(-2.95145e-08 0 -1.53557e-08)
(-2.36357e-08 0 -1.42543e-08)
(-1.8218e-08 0 -1.31782e-08)
(-1.32624e-08 0 -1.21568e-08)
(-8.71685e-09 0 -1.12043e-08)
(-4.54103e-09 0 -1.03638e-08)
(-7.03563e-10 0 -9.68513e-09)
(2.84671e-09 0 -9.15991e-09)
(6.14996e-09 0 -8.79243e-09)
(9.26637e-09 0 -8.70471e-09)
(1.21762e-08 0 -8.92967e-09)
(1.47084e-08 0 -9.63202e-09)
(1.62589e-08 0 -1.0922e-08)
(1.54095e-08 0 -1.28973e-08)
(6.35279e-09 0 -1.4217e-08)
(2.13818e-09 0 4.19017e-08)
(3.80599e-11 0 4.18307e-08)
(9.78265e-16 0 -2.41521e-15)
(2.74325e-16 0 -4.10488e-18)
(5.45701e-16 0 4.54949e-19)
(5.41545e-16 0 4.87003e-18)
(5.35093e-16 0 9.19205e-18)
(5.28082e-16 0 1.339e-17)
(5.20524e-16 0 1.74018e-17)
(5.12263e-16 0 2.11862e-17)
(5.03226e-16 0 2.4743e-17)
(4.93331e-16 0 2.80104e-17)
(4.82567e-16 0 3.09676e-17)
(4.70997e-16 0 3.36559e-17)
(4.58692e-16 0 3.60134e-17)
(4.45633e-16 0 3.80917e-17)
(4.3185e-16 0 3.98288e-17)
(4.17457e-16 0 4.13073e-17)
(4.02547e-16 0 4.24757e-17)
(3.87172e-16 0 4.33753e-17)
(3.71332e-16 0 4.40577e-17)
(3.55129e-16 0 4.4492e-17)
(3.38668e-16 0 4.47195e-17)
(3.2198e-16 0 4.47401e-17)
(3.05106e-16 0 4.45954e-17)
(2.88076e-16 0 4.43162e-17)
(2.70974e-16 0 4.38923e-17)
(2.53851e-16 0 4.33649e-17)
(2.36708e-16 0 4.27135e-17)
(2.19647e-16 0 4.20001e-17)
(2.02649e-16 0 4.12453e-17)
(1.85702e-16 0 4.04698e-17)
(1.68869e-16 0 3.96426e-17)
(1.52129e-16 0 3.88361e-17)
(1.35534e-16 0 3.80193e-17)
(1.19083e-16 0 3.72438e-17)
(1.02746e-16 0 3.65407e-17)
(8.65438e-17 0 3.5879e-17)
(7.04448e-17 0 3.52793e-17)
(5.44181e-17 0 3.47519e-17)
(3.84639e-17 0 3.43383e-17)
(2.2551e-17 0 3.40281e-17)
(7.29987e-18 0 3.38524e-17)
(-6.69188e-09 0 5.12347e-08)
(-2.265e-08 0 5.11086e-08)
(-3.71881e-08 0 5.0788e-08)
(-5.17754e-08 0 5.03205e-08)
(-6.62332e-08 0 4.9667e-08)
(-8.05104e-08 0 4.8846e-08)
(-9.45401e-08 0 4.78614e-08)
(-1.08247e-07 0 4.66735e-08)
(-1.21579e-07 0 4.5291e-08)
(-1.34487e-07 0 4.37118e-08)
(-1.46892e-07 0 4.1928e-08)
(-1.58733e-07 0 3.9868e-08)
(-1.69966e-07 0 3.76694e-08)
(-1.80586e-07 0 3.56099e-08)
(-1.90664e-07 0 3.37211e-08)
(-2.00299e-07 0 3.26297e-08)
(-2.08976e-07 0 2.90728e-08)
(-2.16321e-07 0 2.53049e-08)
(-2.23541e-07 0 2.33696e-08)
(-2.30279e-07 0 2.25539e-08)
(-2.358e-07 0 1.96348e-08)
(-2.40245e-07 0 1.50164e-08)
(-2.44624e-07 0 1.40217e-08)
(-2.48124e-07 0 1.17293e-08)
(-2.50877e-07 0 8.7239e-09)
(-2.53059e-07 0 6.84593e-09)
(-2.54623e-07 0 4.64019e-09)
(-2.55564e-07 0 2.51007e-09)
(-2.55899e-07 0 4.16529e-10)
(-2.55649e-07 0 -1.6449e-09)
(-2.5481e-07 0 -3.70238e-09)
(-2.53379e-07 0 -5.71724e-09)
(-2.51376e-07 0 -7.72062e-09)
(-2.48814e-07 0 -9.67276e-09)
(-2.45687e-07 0 -1.15682e-08)
(-2.42016e-07 0 -1.35712e-08)
(-2.3779e-07 0 -1.54571e-08)
(-2.33027e-07 0 -1.72946e-08)
(-2.27685e-07 0 -1.91831e-08)
(-2.21851e-07 0 -2.09537e-08)
(-2.15477e-07 0 -2.26782e-08)
(-2.08582e-07 0 -2.43129e-08)
(-2.01274e-07 0 -2.58896e-08)
(-1.93485e-07 0 -2.73312e-08)
(-1.85292e-07 0 -2.86796e-08)
(-1.76702e-07 0 -2.98488e-08)
(-1.67797e-07 0 -3.08934e-08)
(-1.5861e-07 0 -3.17226e-08)
(-1.49196e-07 0 -3.23926e-08)
(-1.39606e-07 0 -3.2867e-08)
(-1.29905e-07 0 -3.30975e-08)
(-1.20177e-07 0 -3.3135e-08)
(-1.10474e-07 0 -3.29381e-08)
(-1.00859e-07 0 -3.25187e-08)
(-9.14055e-08 0 -3.18736e-08)
(-8.21791e-08 0 -3.11063e-08)
(-7.32472e-08 0 -3.00627e-08)
(-6.46623e-08 0 -2.88836e-08)
(-5.64405e-08 0 -2.75462e-08)
(-4.86585e-08 0 -2.61468e-08)
(-4.13462e-08 0 -2.46389e-08)
(-3.44992e-08 0 -2.308e-08)
(-2.8154e-08 0 -2.14722e-08)
(-2.2306e-08 0 -1.99054e-08)
(-1.69516e-08 0 -1.83508e-08)
(-1.20693e-08 0 -1.68762e-08)
(-7.63055e-09 0 -1.55262e-08)
(-3.60125e-09 0 -1.43071e-08)
(5.37502e-11 0 -1.33022e-08)
(3.3914e-09 0 -1.25037e-08)
(6.45994e-09 0 -1.19046e-08)
(9.29641e-09 0 -1.16411e-08)
(1.19045e-08 0 -1.16422e-08)
(1.41945e-08 0 -1.18947e-08)
(1.59491e-08 0 -1.22018e-08)
(1.71415e-08 0 -1.18624e-08)
(1.7601e-08 0 -8.44336e-09)
(6.21389e-10 0 4.71798e-08)
(3.72376e-11 0 4.394e-08)
(9.92469e-16 0 -3.35821e-15)
(2.77065e-16 0 -5.72823e-18)
(5.51088e-16 0 6.61745e-19)
(5.46839e-16 0 6.94832e-18)
(5.40263e-16 0 1.30798e-17)
(5.33056e-16 0 1.90769e-17)
(5.25239e-16 0 2.47637e-17)
(5.16688e-16 0 3.01404e-17)
(5.0731e-16 0 3.51448e-17)
(4.97074e-16 0 3.97667e-17)
(4.85979e-16 0 4.39543e-17)
(4.74047e-16 0 4.76973e-17)
(4.6135e-16 0 5.1006e-17)
(4.47908e-16 0 5.38701e-17)
(4.33763e-16 0 5.63e-17)
(4.19029e-16 0 5.83059e-17)
(4.03799e-16 0 5.99292e-17)
(3.88103e-16 0 6.11597e-17)
(3.71962e-16 0 6.20179e-17)
(3.55522e-16 0 6.25659e-17)
(3.38803e-16 0 6.2814e-17)
(3.21866e-16 0 6.28037e-17)
(3.04806e-16 0 6.25659e-17)
(2.87611e-16 0 6.20903e-17)
(2.70385e-16 0 6.14388e-17)
(2.53128e-16 0 6.06323e-17)
(2.35881e-16 0 5.97018e-17)
(2.18738e-16 0 5.86678e-17)
(2.01667e-16 0 5.75511e-17)
(1.84709e-16 0 5.6393e-17)
(1.67876e-16 0 5.5204e-17)
(1.51157e-16 0 5.40149e-17)
(1.34572e-16 0 5.28775e-17)
(1.18152e-16 0 5.17712e-17)
(1.01898e-16 0 5.07269e-17)
(8.57786e-17 0 4.97859e-17)
(6.97624e-17 0 4.89381e-17)
(5.38495e-17 0 4.82143e-17)
(3.804e-17 0 4.76559e-17)
(2.22822e-17 0 4.72527e-17)
(7.20681e-18 0 4.70149e-17)
(-6.66968e-09 0 6.63898e-08)
(-2.28436e-08 0 6.62615e-08)
(-3.76113e-08 0 6.58885e-08)
(-5.24371e-08 0 6.52936e-08)
(-6.71149e-08 0 6.4477e-08)
(-8.16119e-08 0 6.34125e-08)
(-9.58541e-08 0 6.21034e-08)
(-1.0978e-07 0 6.05379e-08)
(-1.23331e-07 0 5.87193e-08)
(-1.36435e-07 0 5.66454e-08)
(-1.49014e-07 0 5.42763e-08)
(-1.61046e-07 0 5.15306e-08)
(-1.72434e-07 0 4.88776e-08)
(-1.83247e-07 0 4.59508e-08)
(-1.93544e-07 0 4.38684e-08)
(-2.03165e-07 0 4.29816e-08)
(-2.11697e-07 0 3.63184e-08)
(-2.19157e-07 0 3.23402e-08)
(-2.26565e-07 0 3.07255e-08)
(-2.33321e-07 0 3.02249e-08)
(-2.38444e-07 0 2.24429e-08)
(-2.43025e-07 0 2.04064e-08)
(-2.47338e-07 0 1.78724e-08)
(-2.50756e-07 0 1.4905e-08)
(-2.53415e-07 0 1.1094e-08)
(-2.556e-07 0 8.78512e-09)
(-2.57093e-07 0 5.88876e-09)
(-2.57987e-07 0 3.16263e-09)
(-2.58286e-07 0 4.88508e-10)
(-2.58e-07 0 -2.16143e-09)
(-2.57116e-07 0 -4.80736e-09)
(-2.55668e-07 0 -7.39042e-09)
(-2.53657e-07 0 -9.95331e-09)
(-2.51077e-07 0 -1.24802e-08)
(-2.47928e-07 0 -1.49059e-08)
(-2.44218e-07 0 -1.74927e-08)
(-2.39962e-07 0 -1.99123e-08)
(-2.35144e-07 0 -2.23228e-08)
(-2.29736e-07 0 -2.47436e-08)
(-2.23836e-07 0 -2.70394e-08)
(-2.17415e-07 0 -2.92926e-08)
(-2.10424e-07 0 -3.1411e-08)
(-2.03008e-07 0 -3.34568e-08)
(-1.95078e-07 0 -3.53612e-08)
(-1.86725e-07 0 -3.71068e-08)
(-1.77968e-07 0 -3.86555e-08)
(-1.68871e-07 0 -4.00086e-08)
(-1.59477e-07 0 -4.11111e-08)
(-1.49826e-07 0 -4.19872e-08)
(-1.40005e-07 0 -4.26141e-08)
(-1.30061e-07 0 -4.29358e-08)
(-1.20075e-07 0 -4.29591e-08)
(-1.10118e-07 0 -4.27296e-08)
(-1.00251e-07 0 -4.21788e-08)
(-9.05728e-08 0 -4.13205e-08)
(-8.11255e-08 0 -4.02999e-08)
(-7.19904e-08 0 -3.89251e-08)
(-6.3215e-08 0 -3.73797e-08)
(-5.48581e-08 0 -3.56368e-08)
(-4.69474e-08 0 -3.37533e-08)
(-3.95718e-08 0 -3.17702e-08)
(-3.26806e-08 0 -2.97146e-08)
(-2.63353e-08 0 -2.75861e-08)
(-2.05219e-08 0 -2.55151e-08)
(-1.52243e-08 0 -2.34627e-08)
(-1.04532e-08 0 -2.1499e-08)
(-6.17192e-09 0 -1.97224e-08)
(-2.32462e-09 0 -1.80874e-08)
(1.1286e-09 0 -1.67218e-08)
(4.20763e-09 0 -1.56047e-08)
(6.99184e-09 0 -1.47798e-08)
(9.55227e-09 0 -1.42896e-08)
(1.19403e-08 0 -1.41176e-08)
(1.4235e-08 0 -1.41325e-08)
(1.65071e-08 0 -1.40545e-08)
(1.91109e-08 0 -1.32678e-08)
(2.12277e-08 0 -9.9202e-09)
(1.50778e-10 0 6.57512e-08)
(3.66535e-11 0 4.73112e-08)
(9.95764e-16 0 -4.29678e-15)
(2.80749e-16 0 -7.36191e-18)
(5.58378e-16 0 9.71937e-19)
(5.53984e-16 0 9.19205e-18)
(5.47221e-16 0 1.7226e-17)
(5.39766e-16 0 2.50015e-17)
(5.31608e-16 0 3.24151e-17)
(5.22644e-16 0 3.93945e-17)
(5.12821e-16 0 4.59189e-17)
(5.02119e-16 0 5.19159e-17)
(4.90508e-16 0 5.73133e-17)
(4.78059e-16 0 6.21316e-17)
(4.64865e-16 0 6.63813e-17)
(4.50927e-16 0 7.00312e-17)
(4.36276e-16 0 7.31021e-17)
(4.21087e-16 0 7.5625e-17)
(4.05412e-16 0 7.76619e-17)
(3.89261e-16 0 7.91612e-17)
(3.72748e-16 0 8.01952e-17)
(3.55936e-16 0 8.08259e-17)
(3.38906e-16 0 8.1074e-17)
(3.21722e-16 0 8.09706e-17)
(3.04382e-16 0 8.05674e-17)
(2.86949e-16 0 7.98953e-17)
(2.69516e-16 0 7.90061e-17)
(2.52125e-16 0 7.78791e-17)
(2.34744e-16 0 7.66176e-17)
(2.17466e-16 0 7.52217e-17)
(2.00343e-16 0 7.37328e-17)
(1.83345e-16 0 7.21715e-17)
(1.66491e-16 0 7.05689e-17)
(1.49802e-16 0 6.90179e-17)
(1.33279e-16 0 6.74979e-17)
(1.16922e-16 0 6.60504e-17)
(1.00751e-16 0 6.46752e-17)
(8.47447e-17 0 6.34448e-17)
(6.88731e-17 0 6.23281e-17)
(5.3136e-17 0 6.14285e-17)
(3.75126e-17 0 6.07151e-17)
(2.19306e-17 0 6.02188e-17)
(7.07239e-18 0 5.99189e-17)
(-6.6903e-09 0 8.15853e-08)
(-2.31684e-08 0 8.13576e-08)
(-3.81393e-08 0 8.08979e-08)
(-5.32135e-08 0 8.01697e-08)
(-6.81534e-08 0 7.92149e-08)
(-8.29143e-08 0 7.79512e-08)
(-9.74289e-08 0 7.63697e-08)
(-1.11641e-07 0 7.44841e-08)
(-1.25475e-07 0 7.22604e-08)
(-1.38827e-07 0 6.96938e-08)
(-1.51659e-07 0 6.67331e-08)
(-1.63958e-07 0 6.33527e-08)
(-1.75454e-07 0 6.04361e-08)
(-1.86593e-07 0 5.61412e-08)
(-1.9741e-07 0 5.42102e-08)
(-2.06862e-07 0 5.21995e-08)
(-2.1494e-07 0 4.44018e-08)
(-2.22897e-07 0 4.00718e-08)
(-2.30469e-07 0 3.78253e-08)
(-2.369e-07 0 3.66195e-08)
(-2.41749e-07 0 2.6976e-08)
(-2.46584e-07 0 2.52339e-08)
(-2.50722e-07 0 2.17163e-08)
(-2.54024e-07 0 1.78609e-08)
(-2.56634e-07 0 1.36429e-08)
(-2.58772e-07 0 1.05872e-08)
(-2.60185e-07 0 7.09584e-09)
(-2.61028e-07 0 3.76692e-09)
(-2.61272e-07 0 5.21678e-10)
(-2.60924e-07 0 -2.73424e-09)
(-2.60002e-07 0 -5.94513e-09)
(-2.58525e-07 0 -9.08299e-09)
(-2.56475e-07 0 -1.22149e-08)
(-2.53872e-07 0 -1.53059e-08)
(-2.50705e-07 0 -1.82808e-08)
(-2.46949e-07 0 -2.14378e-08)
(-2.42689e-07 0 -2.43961e-08)
(-2.37817e-07 0 -2.74204e-08)
(-2.32364e-07 0 -3.0362e-08)
(-2.26374e-07 0 -3.31988e-08)
(-2.19863e-07 0 -3.59898e-08)
(-2.12769e-07 0 -3.86376e-08)
(-2.05164e-07 0 -4.11616e-08)
(-1.97105e-07 0 -4.35488e-08)
(-1.8857e-07 0 -4.57146e-08)
(-1.79605e-07 0 -4.76619e-08)
(-1.70261e-07 0 -4.934e-08)
(-1.60624e-07 0 -5.07509e-08)
(-1.50686e-07 0 -5.18537e-08)
(-1.40545e-07 0 -5.26361e-08)
(-1.3029e-07 0 -5.30515e-08)
(-1.19975e-07 0 -5.30898e-08)
(-1.09676e-07 0 -5.28128e-08)
(-9.94971e-08 0 -5.20918e-08)
(-8.95121e-08 0 -5.10502e-08)
(-7.97703e-08 0 -4.97499e-08)
(-7.03754e-08 0 -4.79959e-08)
(-6.13729e-08 0 -4.60679e-08)
(-5.28208e-08 0 -4.38707e-08)
(-4.47607e-08 0 -4.1485e-08)
(-3.727e-08 0 -3.89478e-08)
(-3.03426e-08 0 -3.64037e-08)
(-2.39588e-08 0 -3.36783e-08)
(-1.81858e-08 0 -3.1061e-08)
(-1.29969e-08 0 -2.84804e-08)
(-8.35478e-09 0 -2.59939e-08)
(-4.23582e-09 0 -2.3696e-08)
(-6.05657e-10 0 -2.16618e-08)
(2.56691e-09 0 -1.98933e-08)
(5.33996e-09 0 -1.84135e-08)
(7.78944e-09 0 -1.73275e-08)
(9.99482e-09 0 -1.66302e-08)
(1.20914e-08 0 -1.63793e-08)
(1.42959e-08 0 -1.64712e-08)
(1.68726e-08 0 -1.67441e-08)
(2.05526e-08 0 -1.69534e-08)
(2.207e-08 0 -1.05164e-08)
(-2.55125e-09 0 8.78181e-08)
(3.60895e-11 0 4.64022e-08)
(1.00834e-15 0 -5.20847e-15)
(2.85436e-16 0 -8.97491e-18)
(5.67642e-16 0 1.38553e-18)
(5.63093e-16 0 1.16219e-17)
(5.56072e-16 0 2.16515e-17)
(5.48245e-16 0 3.12881e-17)
(5.39632e-16 0 4.04905e-17)
(5.30202e-16 0 4.91345e-17)
(5.19831e-16 0 5.71892e-17)
(5.08458e-16 0 6.45408e-17)
(4.96195e-16 0 7.11582e-17)
(4.83115e-16 0 7.70829e-17)
(4.69249e-16 0 8.22424e-17)
(4.54629e-16 0 8.66575e-17)
(4.39357e-16 0 9.03385e-17)
(4.23589e-16 0 9.3337e-17)
(4.07335e-16 0 9.57151e-17)
(3.90657e-16 0 9.74626e-17)
(3.73658e-16 0 9.86516e-17)
(3.56401e-16 0 9.9303e-17)
(3.38948e-16 0 9.94892e-17)
(3.2138e-16 0 9.92617e-17)
(3.03741e-16 0 9.86413e-17)
(2.86049e-16 0 9.77107e-17)
(2.68368e-16 0 9.65113e-17)
(2.5076e-16 0 9.50637e-17)
(2.33234e-16 0 9.34094e-17)
(2.15842e-16 0 9.16413e-17)
(1.98627e-16 0 8.97284e-17)
(1.81545e-16 0 8.77432e-17)
(1.64712e-16 0 8.57269e-17)
(1.48086e-16 0 8.3752e-17)
(1.31604e-16 0 8.18495e-17)
(1.1534e-16 0 8.00297e-17)
(9.9303e-17 0 7.83237e-17)
(8.34315e-17 0 7.6783e-17)
(6.77461e-17 0 7.54389e-17)
(5.22365e-17 0 7.43118e-17)
(3.68302e-17 0 7.34226e-17)
(2.15067e-17 0 7.28229e-17)
(6.92764e-18 0 7.25024e-17)
(-6.70331e-09 0 9.70265e-08)
(-2.3546e-08 0 9.67334e-08)
(-3.87625e-08 0 9.61946e-08)
(-5.41103e-08 0 9.53729e-08)
(-6.93524e-08 0 9.42754e-08)
(-8.4431e-08 0 9.28274e-08)
(-9.92977e-08 0 9.0987e-08)
(-1.13859e-07 0 8.87783e-08)
(-1.28014e-07 0 8.61301e-08)
(-1.41682e-07 0 8.30511e-08)
(-1.54978e-07 0 7.92588e-08)
(-1.67384e-07 0 7.60225e-08)
(-1.79187e-07 0 7.13723e-08)
(-1.90916e-07 0 6.70864e-08)
(-2.01984e-07 0 6.63862e-08)
(-2.1125e-07 0 5.97175e-08)
(-2.19001e-07 0 5.23885e-08)
(-2.27571e-07 0 4.77142e-08)
(-2.35339e-07 0 4.58966e-08)
(-2.41126e-07 0 4.2306e-08)
(-2.45554e-07 0 3.12887e-08)
(-2.50953e-07 0 3.01357e-08)
(-2.54811e-07 0 2.55302e-08)
(-2.57932e-07 0 2.05362e-08)
(-2.60501e-07 0 1.6204e-08)
(-2.6256e-07 0 1.22972e-08)
(-2.639e-07 0 8.24246e-09)
(-2.64657e-07 0 4.30802e-09)
(-2.64825e-07 0 4.83121e-10)
(-2.6443e-07 0 -3.34431e-09)
(-2.6347e-07 0 -7.10885e-09)
(-2.6195e-07 0 -1.08138e-08)
(-2.59875e-07 0 -1.44989e-08)
(-2.57243e-07 0 -1.81563e-08)
(-2.54058e-07 0 -2.16773e-08)
(-2.50273e-07 0 -2.5418e-08)
(-2.45967e-07 0 -2.89177e-08)
(-2.41053e-07 0 -3.25518e-08)
(-2.35572e-07 0 -3.60632e-08)
(-2.29447e-07 0 -3.94459e-08)
(-2.22843e-07 0 -4.28042e-08)
(-2.15629e-07 0 -4.60209e-08)
(-2.07817e-07 0 -4.90202e-08)
(-1.99606e-07 0 -5.1914e-08)
(-1.90833e-07 0 -5.45488e-08)
(-1.81619e-07 0 -5.69229e-08)
(-1.71968e-07 0 -5.89622e-08)
(-1.61982e-07 0 -6.06899e-08)
(-1.51707e-07 0 -6.20594e-08)
(-1.41197e-07 0 -6.30081e-08)
(-1.30549e-07 0 -6.35221e-08)
(-1.19832e-07 0 -6.36021e-08)
(-1.09141e-07 0 -6.32501e-08)
(-9.85691e-08 0 -6.23625e-08)
(-8.81896e-08 0 -6.11277e-08)
(-7.80846e-08 0 -5.94833e-08)
(-6.83568e-08 0 -5.73853e-08)
(-5.90638e-08 0 -5.49833e-08)
(-5.02733e-08 0 -5.23007e-08)
(-4.20515e-08 0 -4.93648e-08)
(-3.44007e-08 0 -4.62304e-08)
(-2.73747e-08 0 -4.30858e-08)
(-2.10251e-08 0 -3.97854e-08)
(-1.52952e-08 0 -3.65482e-08)
(-1.01906e-08 0 -3.33749e-08)
(-5.70711e-09 0 -3.02447e-08)
(-1.81416e-09 0 -2.75222e-08)
(1.54149e-09 0 -2.49738e-08)
(4.39286e-09 0 -2.2713e-08)
(6.77858e-09 0 -2.08517e-08)
(8.77887e-09 0 -1.9448e-08)
(1.05064e-08 0 -1.85527e-08)
(1.21104e-08 0 -1.82639e-08)
(1.38926e-08 0 -1.86758e-08)
(1.6391e-08 0 -1.97847e-08)
(1.97178e-08 0 -2.11707e-08)
(7.87263e-09 0 5.69717e-09)
(-5.6585e-09 0 1.15253e-07)
(3.50466e-11 0 3.95416e-08)
(9.95856e-16 0 -6.08302e-15)
(2.91161e-16 0 -1.05776e-17)
(5.78985e-16 0 1.94387e-18)
(5.7425e-16 0 1.42999e-17)
(5.66898e-16 0 2.6356e-17)
(5.58605e-16 0 3.79986e-17)
(5.49444e-16 0 4.90622e-17)
(5.39342e-16 0 5.94433e-17)
(5.28238e-16 0 6.90386e-17)
(5.16099e-16 0 7.7786e-17)
(5.0305e-16 0 8.56752e-17)
(4.89153e-16 0 9.26442e-17)
(4.7444e-16 0 9.87137e-17)
(4.59023e-16 0 1.03853e-16)
(4.42976e-16 0 1.08133e-16)
(4.26453e-16 0 1.11597e-16)
(4.09527e-16 0 1.14244e-16)
(3.92208e-16 0 1.16167e-16)
(3.74589e-16 0 1.17418e-16)
(3.56784e-16 0 1.18059e-16)
(3.38865e-16 0 1.18111e-16)
(3.20863e-16 0 1.17697e-16)
(3.02831e-16 0 1.16808e-16)
(2.84829e-16 0 1.15557e-16)
(2.6688e-16 0 1.13965e-16)
(2.49033e-16 0 1.12155e-16)
(2.31331e-16 0 1.10087e-16)
(2.13785e-16 0 1.07885e-16)
(1.96455e-16 0 1.05517e-16)
(1.79333e-16 0 1.03077e-16)
(1.62479e-16 0 1.00627e-16)
(1.45925e-16 0 9.8207e-17)
(1.29557e-16 0 9.58806e-17)
(1.13396e-16 0 9.36886e-17)
(9.75039e-17 0 9.16103e-17)
(8.18599e-17 0 8.97594e-17)
(6.64019e-17 0 8.81878e-17)
(5.11094e-17 0 8.68333e-17)
(3.6003e-17 0 8.582e-17)
(2.1e-17 0 8.51066e-17)
(6.75186e-18 0 8.47447e-17)
(-6.71297e-09 0 1.12752e-07)
(-2.39768e-08 0 1.12415e-07)
(-3.94578e-08 0 1.11821e-07)
(-5.51137e-08 0 1.10947e-07)
(-7.0715e-08 0 1.09718e-07)
(-8.61672e-08 0 1.08109e-07)
(-1.0145e-07 0 1.06031e-07)
(-1.16426e-07 0 1.03492e-07)
(-1.30954e-07 0 1.00445e-07)
(-1.45284e-07 0 9.64327e-08)
(-1.58814e-07 0 9.28947e-08)
(-1.71392e-07 0 8.86096e-08)
(-1.83834e-07 0 8.25488e-08)
(-1.96492e-07 0 7.92445e-08)
(-2.07068e-07 0 7.85321e-08)
(-2.15963e-07 0 6.65902e-08)
(-2.24401e-07 0 6.08768e-08)
(-2.33207e-07 0 5.57654e-08)
(-2.40802e-07 0 5.61498e-08)
(-2.45458e-07 0 4.17215e-08)
(-2.50885e-07 0 3.94872e-08)
(-2.55769e-07 0 3.40347e-08)
(-2.59601e-07 0 2.94535e-08)
(-2.62441e-07 0 2.27566e-08)
(-2.65114e-07 0 1.88053e-08)
(-2.66939e-07 0 1.38892e-08)
(-2.68193e-07 0 9.28401e-09)
(-2.6886e-07 0 4.77149e-09)
(-2.68965e-07 0 3.81605e-10)
(-2.68498e-07 0 -4.00921e-09)
(-2.67488e-07 0 -8.31624e-09)
(-2.6594e-07 0 -1.25807e-08)
(-2.63827e-07 0 -1.68119e-08)
(-2.61171e-07 0 -2.10329e-08)
(-2.57961e-07 0 -2.50888e-08)
(-2.5419e-07 0 -2.94192e-08)
(-2.49822e-07 0 -3.34912e-08)
(-2.44871e-07 0 -3.7736e-08)
(-2.39316e-07 0 -4.18266e-08)
(-2.33128e-07 0 -4.58086e-08)
(-2.2638e-07 0 -4.97306e-08)
(-2.19055e-07 0 -5.3545e-08)
(-2.11091e-07 0 -5.71156e-08)
(-2.02553e-07 0 -6.04705e-08)
(-1.93575e-07 0 -6.36446e-08)
(-1.84053e-07 0 -6.64857e-08)
(-1.74061e-07 0 -6.89512e-08)
(-1.63646e-07 0 -7.09894e-08)
(-1.52991e-07 0 -7.26557e-08)
(-1.42032e-07 0 -7.38081e-08)
(-1.30891e-07 0 -7.44486e-08)
(-1.19669e-07 0 -7.45611e-08)
(-1.08488e-07 0 -7.41427e-08)
(-9.74308e-08 0 -7.30567e-08)
(-8.65743e-08 0 -7.16333e-08)
(-7.60383e-08 0 -6.95879e-08)
(-6.59349e-08 0 -6.71099e-08)
(-5.62919e-08 0 -6.41964e-08)
(-4.72018e-08 0 -6.09718e-08)
(-3.87331e-08 0 -5.73898e-08)
(-3.09219e-08 0 -5.36924e-08)
(-2.38075e-08 0 -4.98565e-08)
(-1.74232e-08 0 -4.57987e-08)
(-1.17696e-08 0 -4.19463e-08)
(-6.80243e-09 0 -3.80553e-08)
(-2.50126e-09 0 -3.44544e-08)
(1.1602e-09 0 -3.10274e-08)
(4.19261e-09 0 -2.79187e-08)
(6.64942e-09 0 -2.51633e-08)
(8.59722e-09 0 -2.28434e-08)
(1.00746e-08 0 -2.10475e-08)
(1.11554e-08 0 -1.9872e-08)
(1.19591e-08 0 -1.94448e-08)
(1.27605e-08 0 -2.01271e-08)
(1.44707e-08 0 -2.24495e-08)
(2.00488e-08 0 -2.83367e-08)
(-4.8046e-09 0 3.71625e-08)
(-7.69066e-09 0 8.88075e-08)
(3.45122e-11 0 3.35131e-08)
(9.8339e-16 0 -6.86821e-15)
(2.98005e-16 0 -1.20458e-17)
(5.9251e-16 0 2.7297e-18)
(5.87515e-16 0 1.73088e-17)
(5.79781e-16 0 3.15259e-17)
(5.70951e-16 0 4.52468e-17)
(5.61077e-16 0 5.82439e-17)
(5.50158e-16 0 7.04241e-17)
(5.38174e-16 0 8.16634e-17)
(5.25105e-16 0 9.18584e-17)
(5.11053e-16 0 1.01009e-16)
(4.96143e-16 0 1.09033e-16)
(4.80447e-16 0 1.1594e-16)
(4.64048e-16 0 1.21792e-16)
(4.47102e-16 0 1.2661e-16)
(4.29689e-16 0 1.30446e-16)
(4.11905e-16 0 1.33362e-16)
(3.93821e-16 0 1.35389e-16)
(3.75519e-16 0 1.36661e-16)
(3.57094e-16 0 1.37188e-16)
(3.38586e-16 0 1.37054e-16)
(3.20057e-16 0 1.3634e-16)
(3.016e-16 0 1.3512e-16)
(2.83227e-16 0 1.33486e-16)
(2.64967e-16 0 1.3148e-16)
(2.46872e-16 0 1.29206e-16)
(2.28953e-16 0 1.26662e-16)
(2.11262e-16 0 1.23943e-16)
(1.93829e-16 0 1.21079e-16)
(1.76665e-16 0 1.18163e-16)
(1.59853e-16 0 1.15247e-16)
(1.4334e-16 0 1.12383e-16)
(1.27086e-16 0 1.09601e-16)
(1.1109e-16 0 1.06975e-16)
(9.53739e-17 0 1.04566e-16)
(7.99884e-17 0 1.02415e-16)
(6.48096e-17 0 1.00533e-16)
(4.98687e-17 0 9.90135e-17)
(3.51035e-17 0 9.78348e-17)
(2.0421e-17 0 9.7018e-17)
(6.55541e-18 0 9.66147e-17)
(-6.69941e-09 0 1.28784e-07)
(-2.44401e-08 0 1.28415e-07)
(-4.02243e-08 0 1.27794e-07)
(-5.62042e-08 0 1.26906e-07)
(-7.22066e-08 0 1.25592e-07)
(-8.81176e-08 0 1.23831e-07)
(-1.03836e-07 0 1.21616e-07)
(-1.19286e-07 0 1.18686e-07)
(-1.34608e-07 0 1.1483e-07)
(-1.49343e-07 0 1.11022e-07)
(-1.63089e-07 0 1.0688e-07)
(-1.76204e-07 0 1.00948e-07)
(-1.90098e-07 0 9.41868e-08)
(-2.02354e-07 0 9.43338e-08)
(-2.12704e-07 0 8.59082e-08)
(-2.21672e-07 0 7.60366e-08)
(-2.31482e-07 0 6.8546e-08)
(-2.39513e-07 0 6.49007e-08)
(-2.46333e-07 0 6.42733e-08)
(-2.50695e-07 0 4.50024e-08)
(-2.57241e-07 0 4.54822e-08)
(-2.61293e-07 0 3.83e-08)
(-2.64955e-07 0 3.24442e-08)
(-2.6779e-07 0 2.58562e-08)
(-2.70314e-07 0 2.09029e-08)
(-2.71961e-07 0 1.54182e-08)
(-2.73092e-07 0 1.02136e-08)
(-2.73652e-07 0 5.16664e-09)
(-2.73653e-07 0 1.98429e-10)
(-2.73116e-07 0 -4.72896e-09)
(-2.72053e-07 0 -9.56088e-09)
(-2.70466e-07 0 -1.43656e-08)
(-2.68341e-07 0 -1.9148e-08)
(-2.65674e-07 0 -2.39182e-08)
(-2.6245e-07 0 -2.85473e-08)
(-2.58711e-07 0 -3.33552e-08)
(-2.54236e-07 0 -3.81756e-08)
(-2.49276e-07 0 -4.29246e-08)
(-2.43685e-07 0 -4.76654e-08)
(-2.37452e-07 0 -5.23042e-08)
(-2.30481e-07 0 -5.67766e-08)
(-2.23026e-07 0 -6.12217e-08)
(-2.14898e-07 0 -6.54247e-08)
(-2.06106e-07 0 -6.93675e-08)
(-1.96746e-07 0 -7.2993e-08)
(-1.86901e-07 0 -7.63893e-08)
(-1.7653e-07 0 -7.9339e-08)
(-1.65685e-07 0 -8.17829e-08)
(-1.54444e-07 0 -8.36801e-08)
(-1.43003e-07 0 -8.51277e-08)
(-1.313e-07 0 -8.59187e-08)
(-1.19514e-07 0 -8.60693e-08)
(-1.07754e-07 0 -8.55066e-08)
(-9.60924e-08 0 -8.43629e-08)
(-8.46563e-08 0 -8.26439e-08)
(-7.35993e-08 0 -8.01451e-08)
(-6.30013e-08 0 -7.72272e-08)
(-5.29241e-08 0 -7.37903e-08)