0 	2.01857e-05 	0 	-4.65054e-06
0.010101 	-2.88684e-10 	-1.12035e-14 	-8.39728e-12
0.020202 	1.1152e-10 	7.62394e-15 	1.32928e-11
0.030303 	1.71857e-11 	6.80593e-16 	1.37102e-11
0.040404 	3.60593e-12 	1.02844e-16 	3.27051e-12
0.0505051 	7.77825e-13 	1.79146e-17 	8.27604e-13
