0 	100006
0.010101 	100007
0.020202 	100003
0.030303 	100001
0.040404 	100000
0.0505051 	100000
