0 	5.34568
0.010101 	-2.4137
0.020202 	-7.27868
0.030303 	-7.27868
0.040404 	-7.27868
0.0505051 	-7.27868
0.0606061 	-7.27868
0.0707071 	-7.27868
