0.010101 	4.55822e-13 	-4.68447e-16 	4.4469e-15
0.020202 	2.20751e-14 	-4.66345e-17 	2.67462e-16
