/*--------------------------------*- C++ -*----------------------------------*\
  =========                 |
  \\      /  F ield         | OpenFOAM: The Open Source CFD Toolbox
   \\    /   O peration     | Website:  https://openfoam.org
    \\  /    A nd           | Version:  6
     \\/     M anipulation  |
\*---------------------------------------------------------------------------*/
FoamFile
{
    version     2.0;
    format      ascii;
    class       surfaceScalarField;
    location    "1700";
    object      phi;
}
// * * * * * * * * * * * * * * * * * * * * * * * * * * * * * * * * * * * * * //

dimensions      [0 3 -1 0 0 0 0];

internalField   nonuniform List<scalar> 
9440
(
1.50139e-10
-1.50139e-10
2.70008e-10
-1.19864e-10
3.50311e-10
-8.02981e-11
4.2929e-10
-7.89741e-11
3.94939e-10
3.43546e-11
4.08485e-10
-1.35436e-11
3.48254e-10
6.02337e-11
2.03589e-10
1.44665e-10
-3.20281e-11
2.35618e-10
-4.9476e-10
4.62731e-10
-7.01019e-10
2.06257e-10
-8.53112e-10
1.52092e-10
-9.62501e-10
1.09386e-10
-1.0131e-09
5.05976e-11
-9.60153e-10
-5.2951e-11
-8.89525e-10
-7.06315e-11
-8.40788e-10
-4.87397e-11
-7.48813e-10
-9.1977e-11
-6.42319e-10
-1.06496e-10
-6.29578e-10
-1.27424e-11
-5.67183e-10
-6.23962e-11
-6.00006e-10
3.28225e-11
-6.02684e-10
2.67851e-12
-6.19644e-10
1.69603e-11
-6.4788e-10
2.82367e-11
-6.51788e-10
3.90943e-12
-7.21839e-10
7.00537e-11
-7.91103e-10
6.9266e-11
-8.98552e-10
1.0745e-10
-9.83293e-10
8.47431e-11
-1.06095e-09
7.7657e-11
-1.09676e-09
3.58154e-11
-1.10762e-09
1.08619e-11
-1.10812e-09
5.03268e-13
-1.04653e-09
-6.15897e-11
-9.6459e-10
-8.19343e-11
-8.83648e-10
-8.09392e-11
-8.3345e-10
-5.01957e-11
-7.47643e-10
-8.5805e-11
-6.94225e-10
-5.34166e-11
-5.15929e-10
-1.78295e-10
-5.38346e-10
2.24175e-11
-4.79438e-10
-5.89078e-11
-4.36654e-10
-4.27836e-11
-4.08065e-10
-2.85893e-11
-3.65318e-10
-4.27467e-11
-3.31758e-10
-3.35603e-11
-3.37834e-10
6.07579e-12
-3.87668e-10
4.98342e-11
-4.73001e-10
8.53328e-11
-5.8845e-10
1.1545e-10
-6.68309e-10
7.9858e-11
-7.24418e-10
5.6109e-11
-7.54457e-10
3.00379e-11
-7.74518e-10
2.00614e-11
-8.49123e-10
7.46056e-11
-9.95372e-10
1.4625e-10
-1.15336e-09
1.57994e-10
-1.24511e-09
9.17424e-11
-1.24787e-09
2.76448e-12
-1.25007e-09
2.20572e-12
-1.10837e-09
-1.417e-10
-9.53581e-10
-1.54789e-10
-9.05002e-10
-4.85774e-11
-8.20409e-10
-8.4592e-11
-7.42633e-10
-7.77747e-11
-6.15753e-10
-1.26878e-10
-4.81633e-10
-1.34119e-10
-4.393e-10
-4.23319e-11
-4.07096e-10
-3.22033e-11
-4.15919e-10
8.82418e-12
-2.69616e-10
-1.46304e-10
-1.96297e-10
-7.33193e-11
-1.1547e-10
-8.08273e-11
1.06075e-10
-2.21546e-10
4.44538e-10
-3.38465e-10
7.04018e-10
-2.59481e-10
1.00905e-09
-3.05035e-10
9.88683e-10
2.03682e-11
8.36931e-10
1.51745e-10
3.72222e-14
8.36867e-10
4.00908e-19
2.51317e-18
-3.31582e-19
7.3249e-19
-4.91218e-19
1.50096e-19
-3.95606e-19
-9.56409e-20
-2.00666e-19
-1.93465e-19
2.34554e-20
-2.2371e-19
2.46695e-19
-2.23724e-19
4.57091e-19
-2.11233e-19
6.50536e-19
-1.9432e-19
8.26034e-19
-1.76335e-19
9.83587e-19
-1.58422e-19
1.12339e-18
-1.40803e-19
1.24564e-18
-1.23389e-19
1.35051e-18
-1.06062e-19
1.4382e-18
-8.87634e-20
1.50894e-18
-7.15055e-20
1.56305e-18
-5.43629e-20
1.601e-18
-3.74582e-20
1.62334e-18
-2.09473e-20
1.63073e-18
-5.00388e-21
1.62389e-18
1.02e-20
1.60356e-18
2.4515e-20
1.57051e-18
3.78296e-20
1.52555e-18
5.00782e-20
1.46954e-18
6.12364e-20
1.40334e-18
7.13079e-20
1.32786e-18
8.0315e-20
1.24397e-18
8.82933e-20
1.15253e-18
9.52915e-20
1.05442e-18
1.01372e-19
9.5047e-19
1.06604e-19
8.41531e-19
1.11061e-19
7.28413e-19
1.14808e-19
6.11876e-19
1.17902e-19
4.92625e-19
1.20392e-19
3.71292e-19
1.2232e-19
2.48442e-19
1.23733e-19
1.24563e-19
1.24696e-19
1.25348e-19
8.80175e-11
-2.3815e-10
1.33065e-10
-1.64902e-10
1.37282e-10
-8.45073e-11
7.00052e-11
-1.16915e-11
1.40315e-11
9.0333e-11
-1.03801e-10
1.04292e-10
-2.84855e-10
2.41289e-10
-4.72593e-10
3.32404e-10
-6.91554e-10
4.54578e-10
-8.77616e-10
6.48791e-10
-1.12783e-09
4.56471e-10
-1.19721e-09
2.21463e-10
-1.22431e-09
1.36483e-10
-1.24657e-09
7.28506e-11
-1.25366e-09
-4.58663e-11
-1.24349e-09
-8.08046e-11
-1.21858e-09
-7.36511e-11
-1.14587e-09
-1.64696e-10
-1.1204e-09
-1.31965e-10
-1.08961e-09
-4.35369e-11
-1.07287e-09
-7.91277e-11
-1.06964e-09
2.95913e-11
-1.05385e-09
-1.31118e-11
-1.04064e-09
3.75193e-12
-1.03679e-09
2.43901e-11
-1.06983e-09
3.69456e-11
-1.11433e-09
1.1456e-10
-1.18209e-09
1.37032e-10
-1.21285e-09
1.38211e-10
-1.28406e-09
1.55963e-10
-1.3506e-09
1.44194e-10
-1.36617e-09
5.13931e-11
-1.39355e-09
3.82497e-11
-1.3981e-09
5.05923e-12
-1.33998e-09
-1.19706e-10
-1.26028e-09
-1.61637e-10
-1.20391e-09
-1.37305e-10
-1.19286e-09
-6.12341e-11
-1.08234e-09
-1.96323e-10
-9.83117e-10
-1.52641e-10
-8.78347e-10
-2.83064e-10
-8.04638e-10
-5.12905e-11
-7.40881e-10
-1.22664e-10
-7.05047e-10
-7.86178e-11
-6.69217e-10
-6.44186e-11
-6.77338e-10
-3.46258e-11
-6.7076e-10
-4.01386e-11
-6.77978e-10
1.32941e-11
-6.76963e-10
4.88192e-11
-7.22132e-10
1.30501e-10
-8.18739e-10
2.12056e-10
-9.21632e-10
1.8275e-10
-1.03023e-09
1.64709e-10
-1.15348e-09
1.53281e-10
-1.24601e-09
1.12592e-10
-1.3349e-09
1.63497e-10
-1.37734e-09
1.88701e-10
-1.39739e-09
1.78042e-10
-1.38456e-09
7.89127e-11
-1.32418e-09
-5.76083e-11
-1.30324e-09
-1.87308e-11
-1.21704e-09
-2.27904e-10
-1.12002e-09
-2.51809e-10
-9.65285e-10
-2.03306e-10
-9.32037e-10
-1.17838e-10
-8.34102e-10
-1.75707e-10
-6.94818e-10
-2.6616e-10
-6.20479e-10
-2.08455e-10
-6.00663e-10
-6.21468e-11
-5.57158e-10
-7.57071e-11
-4.99232e-10
-4.91023e-11
-3.76699e-10
-2.68837e-10
-2.866e-10
-1.63419e-10
-1.76124e-10
-1.91306e-10
4.13118e-11
-4.38984e-10
3.19241e-10
-6.16397e-10
6.49719e-10
-5.89962e-10
7.08149e-10
-3.63468e-10
6.44709e-10
8.38114e-11
3.55375e-10
4.41108e-10
1.60639e-15
1.19234e-09
-1.00961e-18
2.58567e-18
-9.13897e-19
6.54533e-19
-7.36955e-19
-2.44996e-20
-4.9343e-19
-3.41022e-19
-2.30911e-19
-4.58158e-19
2.34406e-20
-4.80109e-19
2.59187e-19
-4.61561e-19
4.74004e-19
-4.28263e-19
6.68521e-19
-3.91137e-19
8.43947e-19
-3.54089e-19
1.00121e-18
-3.17993e-19
1.14081e-18
-2.82626e-19
1.26297e-18
-2.47542e-19
1.36781e-18
-2.12421e-19
1.45546e-18
-1.77143e-19
1.52608e-18
-1.41781e-19
1.57996e-18
-1.06562e-19
1.61751e-18
-7.18295e-20
1.63928e-18
-3.79943e-20
1.64594e-18
-5.4779e-21
1.63821e-18
2.53401e-20
1.61687e-18
5.41618e-20
1.58275e-18
8.07891e-20
1.53671e-18
1.0512e-19
1.47961e-18
1.27129e-19
1.41235e-18
1.46853e-19
1.33584e-18
1.64375e-19
1.25096e-18
1.79813e-19
1.15861e-18
1.93318e-19
1.05965e-18
2.0505e-19
9.54927e-19
2.15168e-19
8.45278e-19
2.23813e-19
7.31506e-19
2.31101e-19
6.14366e-19
2.3713e-19
4.94553e-19
2.41984e-19
3.72705e-19
2.45743e-19
2.49404e-19
2.48487e-19
1.25214e-19
2.50287e-19
2.51182e-19
3.20218e-11
-2.70167e-10
8.4119e-12
-1.41285e-10
-5.21276e-11
-2.39621e-11
-1.11618e-10
4.7804e-11
-1.97946e-10
1.76665e-10
-4.07936e-10
3.14284e-10
-7.02261e-10
5.35616e-10
-9.42098e-10
5.72241e-10
-1.09671e-09
6.09192e-10
-1.18104e-09
7.33116e-10
-1.29505e-09
5.7048e-10
-1.28328e-09
2.09685e-10
-1.42318e-09
2.76388e-10
-1.47846e-09
1.28119e-10
-1.54785e-09
2.35221e-11
-1.54274e-09
-8.5915e-11
-1.51812e-09
-9.82752e-11
-1.54757e-09
-1.35248e-10
-1.53169e-09
-1.47844e-10
-1.49465e-09
-8.05817e-11
-1.52082e-09
-5.29606e-11
-1.47224e-09
-1.89854e-11
-1.46268e-09
-2.2675e-11
-1.48784e-09
2.89175e-11
-1.54127e-09
7.78196e-11
-1.58601e-09
8.1683e-11
-1.61459e-09
1.43142e-10
-1.67527e-09
1.97721e-10
-1.70003e-09
1.62973e-10
-1.72449e-09
1.80419e-10
-1.69556e-09
1.15271e-10
-1.67329e-09
2.91309e-11
-1.64391e-09
8.87115e-12
-1.6285e-09
-1.03424e-11
-1.59475e-09
-1.53458e-10
-1.54786e-09
-2.08516e-10
-1.5419e-09
-1.43267e-10
-1.51353e-09
-8.95993e-11
-1.35747e-09
-3.52375e-10
-1.31751e-09
-1.92598e-10
-1.29786e-09
-3.02718e-10
-1.15268e-09
-1.96463e-10
-1.16698e-09
-1.08363e-10
-1.0437e-09
-2.01899e-10
-9.861e-10
-1.22019e-10
-9.43021e-10
-7.77048e-11
-9.33567e-10
-4.95932e-11
-9.34637e-10
1.43645e-11
-9.28717e-10
4.28989e-11
-9.93373e-10
1.95156e-10
-1.07199e-09
2.90675e-10
-1.14772e-09
2.58476e-10
-1.2386e-09
2.55592e-10
-1.3356e-09
2.5028e-10
-1.40171e-09
1.78701e-10
-1.44745e-09
2.09236e-10
-1.47251e-09
2.13767e-10
-1.48763e-09
1.93165e-10
-1.47387e-09
6.51489e-11
-1.39123e-09
-1.40248e-10
-1.26384e-09
-1.46114e-10
-1.18732e-09
-3.0442e-10
-1.13816e-09
-3.00969e-10
-9.80169e-10
-3.61294e-10
-9.33582e-10
-1.64422e-10
-8.6646e-10
-2.42827e-10
-7.47498e-10
-3.85119e-10
-7.29573e-10
-2.26378e-10
-6.96475e-10
-9.52438e-11
-5.97124e-10
-1.75056e-10
-4.79903e-10
-1.66323e-10
-4.13007e-10
-3.35733e-10
-3.41761e-10
-2.34666e-10
-2.28226e-10
-3.04842e-10
-1.44306e-10
-5.22905e-10
-4.79377e-11
-7.12767e-10
1.8066e-10
-8.18563e-10
3.64005e-10
-5.46823e-10
4.6109e-10
-1.33008e-11
3.69971e-10
5.32175e-10
9.91755e-16
1.56228e-09
-2.17197e-18
2.64493e-18
-1.59272e-18
7.52679e-20
-1.05348e-18
-5.6589e-19
-6.10565e-19
-7.87567e-19
-2.52862e-19
-8.19895e-19
4.19891e-20
-7.79012e-19
2.92484e-19
-7.16092e-19
5.1113e-19
-6.50889e-19
7.0557e-19
-5.89308e-19
8.80042e-19
-5.31807e-19
1.03657e-18
-4.77128e-19
1.17589e-18
-4.23839e-19
1.29809e-18
-3.70893e-19
1.40309e-18
-3.17741e-19
1.49082e-18
-2.6427e-19
1.5613e-18
-2.10682e-19
1.61469e-18
-1.5739e-19
1.65134e-18
-1.04941e-19
1.6718e-18
-5.39495e-20
1.67676e-18
-5.02688e-21
1.66703e-18
4.12806e-20
1.6435e-18
8.45393e-20
1.60709e-18
1.24454e-19
1.55872e-18
1.60873e-19
1.49933e-18
1.93767e-19
1.42987e-18
2.23207e-19
1.35128e-18
2.49332e-19
1.26447e-18
2.72331e-19
1.17034e-18
2.92427e-19
1.06977e-18
3.09857e-19
9.63571e-19
3.24854e-19
8.52567e-19
3.37631e-19
7.37535e-19
3.48375e-19
6.1922e-19
3.57246e-19
4.98313e-19
3.64382e-19
3.75448e-19
3.69913e-19
2.51204e-19
3.73952e-19
1.26109e-19
3.76597e-19
3.77907e-19
-1.14845e-10
-1.55317e-10
-1.61191e-10
-9.49328e-11
-1.0893e-10
-7.6219e-11
-1.13378e-10
5.2257e-11
-2.19463e-10
2.82753e-10
-5.9766e-10
6.92483e-10
-8.22262e-10
7.60219e-10
-1.11529e-09
8.65266e-10
-1.35546e-09
8.4937e-10
-1.43612e-09
8.13772e-10
-1.50732e-09
6.41682e-10
-1.56105e-09
2.63413e-10
-1.67031e-09
3.85646e-10
-1.75654e-09
2.14345e-10
-1.80041e-09
6.73898e-11
-1.79465e-09
-9.16745e-11
-1.81577e-09
-7.71646e-11
-1.81599e-09
-1.35024e-10
-1.8184e-09
-1.45443e-10
-1.81342e-09
-8.55631e-11
-1.82175e-09
-4.4633e-11
-1.82585e-09
-1.48838e-11
-1.85086e-09
2.33937e-12
-1.88455e-09
6.2601e-11
-1.93374e-09
1.27018e-10
-2.00596e-09
1.53904e-10
-2.05809e-09
1.95271e-10
-2.08199e-09
2.21619e-10
-2.12338e-09
2.04368e-10
-2.12757e-09
1.84612e-10
-2.0905e-09
7.82073e-11
-2.05866e-09
-2.70389e-12
-2.0244e-09
-2.53895e-11
-1.9947e-09
-4.00403e-11
-1.95221e-09
-1.9594e-10
-1.90148e-09
-2.59238e-10
-1.86727e-09
-1.77479e-10
-1.76243e-09
-1.94429e-10
-1.7353e-09
-3.79504e-10
-1.55857e-09
-3.6932e-10
-1.56333e-09
-2.97963e-10
-1.48629e-09
-2.73498e-10
-1.61549e-09
2.08392e-11
-1.2873e-09
-5.30085e-10
-1.25714e-09
-1.52179e-10
-1.18685e-09
-1.47994e-10
-1.19517e-09
-4.12767e-11
-1.16936e-09
-1.14471e-11
-1.18359e-09
5.71353e-11
-1.24434e-09
2.55902e-10
-1.27516e-09
3.21496e-10
-1.31466e-09
2.97969e-10
-1.37256e-09
3.13495e-10
-1.40596e-09
2.83681e-10
-1.45537e-09
2.28114e-10
-1.46836e-09
2.22219e-10
-1.4692e-09
2.14608e-10
-1.45211e-09
1.76079e-10
-1.45965e-09
7.26912e-11
-1.33785e-09
-2.62044e-10
-1.22678e-09
-2.57186e-10
-1.22872e-09
-3.02481e-10
-1.11816e-09
-4.11523e-10
-1.02101e-09
-4.58439e-10
-8.99941e-10
-2.85491e-10
-8.49217e-10
-2.93548e-10
-8.19767e-10
-4.14567e-10
-8.02064e-10
-2.44078e-10
-6.99684e-10
-1.97623e-10
-5.76566e-10
-2.98172e-10
-4.6434e-10
-2.78549e-10
-4.38973e-10
-3.61101e-10
-3.86272e-10
-2.87367e-10
-3.41774e-10
-3.49342e-10
-4.54863e-10
-4.09817e-10
-5.12884e-10
-6.54746e-10
-4.13938e-10
-9.17506e-10
5.53609e-11
-1.01611e-09
5.45887e-10
-5.03818e-10
5.32547e-10
5.45507e-10
2.64907e-15
2.09482e-09
-3.53967e-18
2.76268e-18
-2.23374e-18
-1.23376e-18
-1.27515e-18
-1.52994e-18
-6.42894e-19
-1.42577e-18
-2.11979e-19
-1.25695e-18
1.04909e-19
-1.10196e-18
3.57687e-19
-9.74698e-19
5.72711e-19
-8.71348e-19
7.63072e-19
-7.84434e-19
9.34721e-19
-7.07247e-19
1.08986e-18
-6.34894e-19
1.22884e-18
-5.64246e-19
1.35124e-18
-4.93591e-19
1.45656e-18
-4.22258e-19
1.54441e-18
-3.50273e-19
1.61459e-18
-2.78081e-19
1.66714e-18
-2.06357e-19
1.70234e-18
-1.35892e-19
1.72072e-18
-6.75147e-20
1.72306e-18
-2.01801e-21
1.71029e-18
5.98977e-20
1.68341e-18
1.17676e-19
1.6435e-18
1.70934e-19
1.59161e-18
2.19471e-19
1.52877e-18
2.63254e-19
1.456e-18
3.02382e-19
1.37428e-18
3.37048e-19
1.28456e-18
3.6751e-19
1.18777e-18
3.94065e-19
1.08476e-18
4.17031e-19
9.76349e-19
4.36726e-19
8.6331e-19
4.53449e-19
7.46406e-19
4.67469e-19
6.26357e-19
4.79023e-19
5.03843e-19
4.88313e-19
3.79488e-19
4.95518e-19
2.53849e-19
5.00789e-19
1.2742e-19
5.04245e-19
5.05964e-19
-1.47846e-10
-7.46801e-12
-3.75568e-10
1.32795e-10
-5.44655e-10
9.28724e-11
-6.28695e-10
1.363e-10
-6.55155e-10
3.09215e-10
-7.46999e-10
7.8433e-10
-1.05805e-09
1.07127e-09
-1.31776e-09
1.12498e-09
-1.47726e-09
1.00886e-09
-1.53353e-09
8.70049e-10
-1.61702e-09
7.25171e-10
-1.84021e-09
4.86597e-10
-1.88484e-09
4.30275e-10
-1.95341e-09
2.82915e-10
-1.92125e-09
3.52244e-11
-2.0168e-09
3.87454e-12
-2.0843e-09
-9.66589e-12
-2.02596e-09
-1.93366e-10
-2.05042e-09
-1.20986e-10
-2.06859e-09
-6.73965e-11
-2.06402e-09
-4.92026e-11
-2.11142e-09
3.25185e-11
-2.15749e-09
4.84022e-11
-2.22346e-09
1.28569e-10
-2.24449e-09
1.48054e-10
-2.28028e-09
1.89688e-10
-2.31087e-09
2.25867e-10
-2.32756e-09
2.38312e-10
-2.35288e-09
2.29691e-10
-2.38629e-09
2.18026e-10
-2.36646e-09
5.8381e-11
-2.37937e-09
1.02075e-11
-2.3698e-09
-3.49559e-11
-2.34174e-09
-6.80915e-11
-2.33663e-09
-2.01042e-10
-2.26502e-09
-3.30851e-10
-2.15221e-09
-2.90281e-10
-2.0555e-09
-2.91135e-10
-2.14138e-09
-2.93625e-10
-1.88884e-09
-6.21856e-10
-2.00809e-09
-1.78703e-10
-1.87888e-09
-4.02707e-10
-1.65442e-09
-2.03614e-10
-1.52869e-09
-6.55818e-10
-1.45873e-09
-2.22137e-10
-1.46068e-09
-1.46042e-10
-1.42247e-09
-7.9488e-11
-1.40575e-09
-2.81654e-11
-1.42681e-09
7.81892e-11
-1.44642e-09
2.7552e-10
-1.46637e-09
3.41437e-10
-1.43392e-09
2.65527e-10
-1.41364e-09
2.93208e-10
-1.42296e-09
2.92997e-10
-1.45054e-09
2.55701e-10
-1.4366e-09
2.08279e-10
-1.4346e-09
2.12607e-10
-1.39406e-09
1.35541e-10
-1.34665e-09
2.52747e-11
-1.3598e-09
-2.48887e-10
-1.18554e-09
-4.31444e-10
-1.11688e-09
-3.71137e-10
-1.07876e-09
-4.49641e-10
-1.00507e-09
-5.32121e-10
-8.94718e-10
-3.95844e-10
-8.567e-10
-3.31562e-10
-8.91076e-10
-3.80188e-10
-7.96439e-10
-3.38713e-10
-6.41036e-10
-3.53023e-10
-5.37258e-10
-4.01949e-10
-4.42775e-10
-3.73031e-10
-4.39687e-10
-3.64187e-10
-4.08972e-10
-3.18082e-10
-4.80479e-10
-2.77835e-10
-6.31746e-10
-2.58552e-10
-7.72967e-10
-5.13529e-10
-9.80246e-10
-7.10234e-10
-1.1382e-09
-8.58168e-10
-8.31322e-10
-8.10694e-10
-4.13142e-13
-2.85408e-10
3.02317e-15
2.09439e-09
-5.85438e-18
-8.28763e-18
-2.52987e-18
-4.5619e-18
-1.17098e-18
-2.89573e-18
-4.74076e-19
-2.12967e-18
-5.69866e-20
-1.68097e-18
2.32169e-19
-1.39783e-18
4.61037e-19
-1.20992e-18
6.59625e-19
-1.07569e-18
8.40259e-19
-9.69922e-19
1.00707e-18
-8.77713e-19
1.16051e-18
-7.90602e-19
1.29949e-18
-7.04126e-19
1.42257e-18
-6.16299e-19
1.52855e-18
-5.26666e-19
1.6166e-18
-4.35662e-19
1.68632e-18
-3.44188e-19
1.7376e-18
-2.5333e-19
1.77071e-18
-1.64215e-19
1.78622e-18
-7.79302e-20
1.78498e-18
4.5359e-21
1.76806e-18
8.23396e-20
1.73667e-18
1.54819e-19
1.69204e-18
2.21522e-19
1.6354e-18
2.82207e-19
1.5679e-18
3.36841e-19
1.49066e-18
3.85557e-19
1.40474e-18
4.28608e-19
1.31112e-18
4.66332e-19
1.21074e-18
4.99117e-19
1.10446e-18
5.27372e-19
9.93072e-19
5.51514e-19
8.77331e-19
5.71938e-19
7.57959e-19
5.89009e-19
6.35647e-19
6.03046e-19
5.11048e-19
6.14322e-19
3.84758e-19
6.23068e-19
2.57305e-19
6.29472e-19
1.29138e-19
6.33676e-19
6.3577e-19
4.44488e-12
-1.19099e-11
-1.01215e-10
2.38458e-10
-3.28845e-10
3.20505e-10
-6.47483e-10
4.54941e-10
-1.07883e-09
7.40565e-10
-1.17655e-09
8.82053e-10
-1.24973e-09
1.14445e-09
-1.41125e-09
1.2865e-09
-1.65237e-09
1.24998e-09
-1.7717e-09
9.89383e-10
-1.79896e-09
7.52434e-10
-1.94763e-09
6.35269e-10
-2.02359e-09
5.06231e-10
-2.06726e-09
3.26581e-10
-2.12322e-09
9.1189e-11
-2.22243e-09
1.0308e-10
-2.23906e-09
6.96133e-12
-2.22929e-09
-2.03137e-10
-2.27443e-09
-7.5853e-11
-2.30233e-09
-3.94925e-11
-2.32018e-09
-3.13547e-11
-2.35838e-09
7.0716e-11
-2.39949e-09
8.95073e-11
-2.46643e-09
1.95507e-10
-2.53152e-09
2.1314e-10
-2.56802e-09
2.26189e-10
-2.59473e-09
2.52578e-10
-2.61055e-09
2.54141e-10
-2.6039e-09
2.2304e-10
-2.59091e-09
2.05036e-10
-2.60647e-09
7.39443e-11
-2.58123e-09
-1.5024e-11
-2.60806e-09
-8.11941e-12
-2.54978e-09
-1.2637e-10
-2.50635e-09
-2.4447e-10
-2.48372e-09
-3.53473e-10
-2.4348e-09
-3.39193e-10
-2.41338e-09
-3.12549e-10
-2.32444e-09
-3.82561e-10
-2.27653e-09
-6.69764e-10
-2.18892e-09
-2.66307e-10
-2.1322e-09
-4.59425e-10
-1.81656e-09
-5.19254e-10
-1.83138e-09
-6.40997e-10
-1.72491e-09
-3.28602e-10
-1.75228e-09
-1.18673e-10
-1.651e-09
-1.8077e-10
-1.61112e-09
-6.80414e-11
-1.54017e-09
7.2361e-12
-1.53684e-09
2.72187e-10
-1.54426e-09
3.48865e-10
-1.50437e-09
2.25628e-10
-1.44165e-09
2.30496e-10
-1.40169e-09
2.53027e-10
-1.40294e-09
2.56956e-10
-1.36738e-09
1.72719e-10
-1.34902e-09
1.94244e-10
-1.32392e-09
1.10446e-10
-1.28139e-09
-1.72572e-11
-1.26715e-09
-2.63123e-10
-1.19223e-09
-5.06362e-10
-1.05336e-09
-5.10001e-10
-9.85753e-10
-5.17247e-10
-1.00741e-09
-5.10459e-10
-9.38559e-10
-4.64693e-10
-8.90647e-10
-3.79471e-10
-8.54168e-10
-4.16665e-10
-7.63909e-10
-4.28969e-10
-6.84473e-10
-4.32457e-10
-5.65946e-10
-5.20474e-10
-4.4813e-10
-4.90845e-10
-3.74854e-10
-4.37463e-10
-2.88955e-10
-4.0398e-10
-2.43291e-10
-3.23499e-10
-2.42089e-10
-2.59754e-10
-5.2978e-10
-2.2584e-10
-9.71977e-10
-2.68042e-10
-1.32843e-09
-5.0172e-10
-1.40301e-09
-7.36122e-10
-6.87865e-10
-1.00056e-09
3.27652e-15
1.40652e-09
9.04673e-20
5.87638e-18
-8.63697e-19
-3.61159e-18
-4.04922e-19
-3.36187e-18
-2.53798e-20
-2.51609e-18
2.26155e-19
-1.9389e-18
4.20078e-19
-1.59775e-18
5.95271e-19
-1.39063e-18
7.65391e-19
-1.25059e-18
9.32467e-19
-1.14082e-18
1.09418e-18
-1.0421e-18
1.24699e-18
-9.44829e-19
1.38732e-18
-8.44684e-19
1.51221e-18
-7.40328e-19
1.61955e-18
-6.32105e-19
1.70808e-18
-5.2126e-19
1.77717e-18
-4.09429e-19
1.82672e-18
-2.98318e-19
1.857e-18
-1.89525e-19
1.86869e-18
-8.44749e-20
1.86278e-18
1.56171e-20
1.84054e-18
1.09765e-19
1.80337e-18
1.97225e-19
1.75273e-18
2.77502e-19
1.69003e-18
3.50345e-19
1.61662e-18
4.15739e-19
1.53372e-18
4.73864e-19
1.44246e-18
5.25058e-19
1.3439e-18
5.69754e-19
1.239e-18
6.08449e-19
1.1286e-18
6.41666e-19
1.0135e-18
6.69933e-19
8.94402e-19
6.93754e-19
7.71995e-19
7.13595e-19
6.46923e-19
7.29864e-19
5.19794e-19
7.42911e-19
3.91163e-19
7.53023e-19
2.6151e-19
7.60427e-19
1.31232e-19
7.65288e-19
7.6771e-19
-1.47004e-10
1.35096e-10
-7.76542e-11
1.69111e-10
-1.74656e-10
4.17509e-10
-4.69752e-10
7.50038e-10
-9.18759e-10
1.18958e-09
-1.25543e-09
1.21872e-09
-1.39654e-09
1.28556e-09
-1.44799e-09
1.33796e-09
-1.55823e-09
1.36022e-09
-1.76955e-09
1.2007e-09
-1.94402e-09
9.26905e-10
-2.06683e-09
7.58086e-10
-2.14789e-09
5.87284e-10
-2.16505e-09
3.43744e-10
-2.29751e-09
2.23652e-10
-2.34221e-09
1.4778e-10
-2.26219e-09
-7.30648e-11
-2.36623e-09
-9.90949e-11
-2.38802e-09
-5.40649e-11
-2.4204e-09
-7.11722e-12
-2.46886e-09
1.71012e-11
-2.52553e-09
1.27387e-10
-2.61367e-09
1.77643e-10
-2.65445e-09
2.3628e-10
-2.72888e-09
2.87567e-10
-2.78746e-09
2.8477e-10
-2.81929e-09
2.84415e-10
-2.83527e-09
2.70123e-10
-2.83407e-09
2.21843e-10
-2.80488e-09
1.75843e-10
-2.82868e-09
9.7755e-11
-2.75907e-09
-8.4633e-11
-2.70891e-09
-5.82712e-11
-2.68556e-09
-1.49714e-10
-2.64123e-09
-2.88804e-10
-2.63185e-09
-3.62842e-10
-2.57944e-09
-3.91598e-10
-2.53515e-09
-3.56842e-10
-2.54577e-09
-3.71938e-10
-2.51884e-09
-6.96682e-10
-2.31194e-09
-4.73211e-10
-2.24316e-09
-5.28197e-10
-2.07718e-09
-6.85234e-10
-1.99691e-09
-7.21259e-10
-2.00002e-09
-3.25492e-10
-1.9122e-09
-2.06498e-10
-1.80808e-09
-2.84883e-10
-1.73492e-09
-1.41202e-10
-1.59641e-09
-1.31282e-10
-1.64263e-09
3.18412e-10
-1.53496e-09
2.41187e-10
-1.48615e-09
1.76824e-10
-1.3587e-09
1.03048e-10
-1.32525e-09
2.19569e-10
-1.29523e-09
2.26936e-10
-1.26044e-09
1.37935e-10
-1.20948e-09
1.43284e-10
-1.2111e-09
1.12059e-10
-1.20328e-09
-2.50719e-11
-1.14761e-09
-3.1879e-10
-1.15423e-09
-4.99739e-10
-1.04414e-09
-6.20086e-10
-1.00157e-09
-5.59814e-10
-1.00889e-09
-5.03129e-10
-1.0017e-09
-4.71885e-10
-9.59859e-10
-4.21308e-10
-9.17156e-10
-4.59365e-10
-8.99697e-10
-4.46426e-10
-8.53266e-10
-4.78887e-10
-6.86702e-10
-6.87036e-10
-5.32681e-10
-6.44866e-10
-3.70296e-10
-5.99847e-10
-2.38266e-10
-5.3601e-10
-1.24144e-10
-4.37622e-10
3.49967e-12
-3.87399e-10
1.38443e-10
-3.60786e-10
2.27421e-10
-3.57024e-10
-1.04367e-10
-1.69938e-10
-4.82668e-10
-3.57829e-10
-1.35951e-09
-1.23722e-10
1.22244e-15
4.69977e-11
-6.93447e-18
-2.99169e-17
-6.13981e-19
-9.93541e-18
4.40856e-19
-4.42233e-18
5.51816e-19
-2.63214e-18
5.67299e-19
-1.95881e-18
6.27203e-19
-1.66172e-18
7.35312e-19
-1.50231e-18
8.75159e-19
-1.3932e-18
1.03118e-18
-1.29867e-18
1.19146e-18
-1.20325e-18
1.34713e-18
-1.10048e-18
1.49167e-18
-9.88462e-19
1.62043e-18
-8.67708e-19
1.7304e-18
-7.40064e-19
1.81991e-18
-6.08019e-19
1.88828e-18
-4.74245e-19
1.93551e-18
-3.41283e-19
1.96205e-18
-2.1136e-19
1.96878e-18
-8.63329e-20
1.95693e-18
3.23107e-20
1.928e-18
1.43439e-19
1.88365e-18
2.46251e-19
1.82557e-18
3.40253e-19
1.75542e-18
4.25228e-19
1.67474e-18
5.01222e-19
1.58491e-18
5.68498e-19
1.48716e-18
6.27496e-19
1.3826e-18
6.78776e-19
1.27221e-18
7.22967e-19
1.15687e-18
7.60727e-19
1.03732e-18
7.92711e-19
9.14243e-19
8.19545e-19
7.88265e-19
8.41804e-19
6.5997e-19
8.59993e-19
5.29906e-19
8.74541e-19
3.98566e-19
8.85796e-19
2.66371e-19
8.94027e-19
1.33654e-19
8.99426e-19
9.02115e-19
-1.87836e-10
3.22933e-10
-3.39266e-10
3.20543e-10
-5.03652e-10
5.81896e-10
-7.09776e-10
9.56163e-10
-9.10169e-10
1.38997e-09
-1.24552e-09
1.55407e-09
-1.56067e-09
1.60071e-09
-1.74331e-09
1.5206e-09
-1.77578e-09
1.39269e-09
-1.78645e-09
1.21138e-09
-1.93523e-09
1.07569e-09
-2.07991e-09
9.02768e-10
-2.12734e-09
6.34716e-10
-2.24023e-09
4.56627e-10
-2.38474e-09
3.68169e-10
-2.32766e-09
9.07009e-11
-2.35217e-09
-4.85599e-11
-2.46018e-09
8.91306e-12
-2.46841e-09
-4.58368e-11
-2.53575e-09
6.02244e-11
-2.60789e-09
8.92384e-11
-2.66378e-09
1.83269e-10
-2.74855e-09
2.62408e-10
-2.78326e-09
2.70991e-10
-2.79321e-09
2.97516e-10
-2.80922e-09
3.00782e-10
-2.83191e-09
3.07103e-10
-2.84036e-09
2.7858e-10
-2.86076e-09
2.4224e-10
-2.85495e-09
1.70038e-10
-2.84965e-09
9.24568e-11
-2.81603e-09
-1.18247e-10
-2.74359e-09
-1.30704e-10
-2.74334e-09
-1.49966e-10
-2.72213e-09
-3.10011e-10
-2.73182e-09
-3.53146e-10
-2.66629e-09
-4.57129e-10
-2.60495e-09
-4.18177e-10
-2.55173e-09
-4.25156e-10
-2.46519e-09
-7.83213e-10
-2.41354e-09
-5.24866e-10
-2.29559e-09
-6.46143e-10
-2.19852e-09
-7.823e-10
-2.15458e-09
-7.65199e-10
-2.10582e-09
-3.74245e-10
-1.96256e-09
-3.49758e-10
-1.87002e-09
-3.77421e-10
-1.82982e-09
-1.814e-10
-1.76974e-09
-1.91369e-10
-1.6565e-09
2.05171e-10
-1.40016e-09
-1.51436e-11
-1.45214e-09
2.28796e-10
-1.22703e-09
-1.22062e-10
-1.17969e-09
1.72235e-10
-1.11515e-09
1.62389e-10
-1.08572e-09
1.08515e-10
-9.9716e-10
5.47207e-11
-9.89087e-10
1.03988e-10
-9.85808e-10
-2.83473e-11
-1.0053e-09
-2.99291e-10
-9.92988e-10
-5.12051e-10
-1.02747e-09
-5.856e-10
-1.01851e-09
-5.68775e-10
-1.02269e-09
-4.98942e-10
-1.04522e-09
-4.4935e-10
-1.02613e-09
-4.40397e-10
-1.04728e-09
-4.38214e-10
-1.0218e-09
-4.71903e-10
-8.98732e-10
-6.01956e-10
-8.40428e-10
-7.45339e-10
-7.45198e-10
-7.40096e-10
-5.97732e-10
-7.47313e-10
-4.30827e-10
-7.02916e-10
-2.38602e-10
-6.29849e-10
-1.20239e-10
-5.05766e-10
2.49487e-11
-5.05979e-10
2.45186e-10
-5.77266e-10
3.99746e-10
-3.24504e-10
6.4683e-11
-2.27723e-11
-4.69967e-11
-1.20489e-11
3.70453e-17
-2.24129e-15
1.25016e-17
-5.37504e-18
4.89909e-18
-2.33551e-18
2.23105e-18
-1.75788e-18
1.22515e-18
-1.6291e-18
8.6439e-19
-1.60033e-18
7.86615e-19
-1.58592e-18
8.4442e-19
-1.56156e-18
9.69686e-19
-1.51895e-18
1.12661e-18
-1.45507e-18
1.29422e-18
-1.3695e-18
1.45915e-18
-1.2635e-18
1.61243e-18
-1.1396e-18
1.74807e-18
-1.00122e-18
1.86244e-18
-8.52264e-19
1.95368e-18
-6.96826e-19
2.02125e-18
-5.38854e-19
2.06543e-18
-3.81902e-19
2.08708e-18
-2.2896e-19
2.08742e-18
-8.24079e-20
2.06806e-18
5.59552e-20
2.03082e-18
1.8485e-19
1.97765e-18
3.03453e-19
1.91055e-18
4.11323e-19
1.83142e-18
5.08347e-19
1.74202e-18
5.94686e-19
1.64391e-18
6.70737e-19
1.53844e-18
7.37086e-19
1.42679e-18
7.94446e-19
1.30997e-18
8.43605e-19
1.18885e-18
8.85378e-19
1.06415e-18
9.20567e-19
9.36501e-19
9.49935e-19
8.06454e-19
9.74175e-19
6.74518e-19
9.93897e-19
5.4116e-19
1.00961e-18
4.06797e-19
1.02173e-18
2.71771e-19
1.03058e-18
1.36343e-19
1.03637e-18
1.03925e-18
-3.14995e-10
6.37929e-10
-7.29517e-10
7.35065e-10
-9.91758e-10
8.44137e-10
-1.17214e-09
1.13655e-09
-1.24143e-09
1.45926e-09
-1.28102e-09
1.59366e-09
-1.3264e-09
1.6461e-09
-1.44924e-09
1.64343e-09
-1.60054e-09
1.54399e-09
-1.68946e-09
1.30031e-09
-1.80186e-09
1.18808e-09
-1.92441e-09
1.02532e-09
-2.04695e-09
7.57258e-10
-2.15678e-09
5.66458e-10
-2.23647e-09
4.47858e-10
-2.25641e-09
1.10635e-10
-2.40038e-09
9.54129e-11
-2.45015e-09
5.86856e-11
-2.48641e-09
-9.58622e-12
-2.55451e-09
1.2833e-10
-2.59939e-09
1.34112e-10
-2.63155e-09
2.15423e-10
-2.68395e-09
3.14809e-10
-2.74798e-09
3.35021e-10
-2.7841e-09
3.33642e-10
-2.80697e-09
3.23649e-10
-2.83418e-09
3.34308e-10
-2.84977e-09
2.94178e-10
-2.86645e-09
2.58919e-10
-2.84318e-09
1.4677e-10
-2.81047e-09
5.97495e-11
-2.80955e-09
-1.19166e-10
-2.79497e-09
-1.45282e-10
-2.76736e-09
-1.77571e-10
-2.75099e-09
-3.26377e-10
-2.72006e-09
-3.8407e-10
-2.70285e-09
-4.7434e-10
-2.59125e-09
-5.29774e-10
-2.52019e-09
-4.96219e-10
-2.49968e-09
-8.03715e-10
-2.39009e-09
-6.34452e-10
-2.30679e-09
-7.29443e-10
-2.20739e-09
-8.81698e-10
-2.21019e-09
-7.62393e-10
-2.11469e-09
-4.69753e-10
-1.98509e-09
-4.79351e-10
-1.85805e-09
-5.04463e-10
-1.87799e-09
-1.61457e-10
-1.81932e-09
-2.50035e-10
-1.5083e-09
-1.05854e-10
-1.26493e-09
-2.58512e-10
-1.38713e-09
3.50992e-10
-1.10539e-09
-4.03795e-10
-9.47875e-10
1.47199e-11
-8.58178e-10
7.26932e-11
-8.25681e-10
7.60199e-11
-7.50855e-10
-2.01032e-11
-7.03977e-10
5.71127e-11
-6.90123e-10
-4.21988e-11
-7.67537e-10
-2.21873e-10
-8.41056e-10
-4.38529e-10
-9.28446e-10
-4.98206e-10
-1.01272e-09
-4.84498e-10
-1.0577e-09
-4.53964e-10
-1.06696e-09
-4.40088e-10
-1.06602e-09
-4.41339e-10
-1.05423e-09
-4.49999e-10
-1.0203e-09
-5.05835e-10
-9.71008e-10
-6.51248e-10
-9.95098e-10
-7.2125e-10
-9.65067e-10
-7.70128e-10
-8.77298e-10
-8.35084e-10
-7.25245e-10
-8.54973e-10
-5.29227e-10
-8.25871e-10
-3.60473e-10
-6.74526e-10
-2.06265e-10
-6.60192e-10
-1.134e-10
-6.70137e-10
7.54379e-12
-4.45452e-10
-4.06539e-11
2.5421e-11
-5.0853e-11
-1.85261e-12
4.93244e-17
-5.08561e-11
1.50434e-17
2.79801e-17
5.47673e-18
7.22957e-18
2.35983e-18
1.35655e-18
1.25391e-18
-5.24777e-19
8.78806e-19
-1.22627e-18
8.10975e-19
-1.5188e-18
8.87025e-19
-1.6377e-18
1.03356e-18
-1.66437e-18
1.21218e-18
-1.63133e-18
1.40023e-18
-1.55422e-18
1.58305e-18
-1.44256e-18
1.75081e-18
-1.30371e-18
1.89703e-18
-1.14429e-18
2.01788e-18
-9.70544e-19
2.11165e-18
-7.88337e-19
2.1782e-18
-6.03042e-19
2.21838e-18
-4.1933e-19
2.23363e-18
-2.41032e-19
2.22578e-18
-7.10997e-20
2.19696e-18
8.83393e-20
2.14942e-18
2.35879e-19
2.08552e-18
3.70717e-19
2.00757e-18
4.92539e-19
1.91776e-18
6.0141e-19
1.81807e-18
6.97692e-19
1.71026e-18
7.81984e-19
1.5958e-18
8.55067e-19
1.47595e-18
9.17847e-19
1.35175e-18
9.71302e-19
1.22404e-18
1.01643e-18
1.09352e-18
1.05419e-18
9.60742e-19
1.0855e-18
8.26176e-19
1.11119e-18
6.90233e-19
1.13197e-18
5.53283e-19
1.14845e-18
4.15643e-19
1.16111e-18
2.77563e-19
1.17032e-18
1.39223e-19
1.17633e-18
1.17931e-18
-2.40441e-10
8.7837e-10
-4.06535e-10
9.01158e-10
-6.47811e-10
1.08541e-09
-8.79794e-10
1.36853e-09
-1.04319e-09
1.62265e-09
-1.16228e-09
1.71276e-09
-1.28467e-09
1.76849e-09
-1.4356e-09
1.79436e-09
-1.60475e-09
1.71314e-09
-1.71748e-09
1.41304e-09
-1.77306e-09
1.24366e-09
-1.81315e-09
1.06542e-09
-1.87708e-09
8.21184e-10
-1.95698e-09
6.46363e-10
-1.94982e-09
4.40701e-10
-2.06847e-09
2.29282e-10
-2.20348e-09
2.30424e-10
-2.29472e-09
1.49925e-10
-2.42429e-09
1.1998e-10
-2.48245e-09
1.86494e-10
-2.53075e-09
1.82407e-10
-2.57183e-09
2.56508e-10
-2.59556e-09
3.38538e-10
-2.6404e-09
3.79865e-10
-2.68761e-09
3.80847e-10
-2.73656e-09
3.726e-10
-2.76342e-09
3.61174e-10
-2.78922e-09
3.19973e-10
-2.79538e-09
2.65085e-10
-2.76781e-09
1.19195e-10
-2.74062e-09
3.25607e-11
-2.74257e-09
-1.17214e-10
-2.74008e-09
-1.4777e-10
-2.71666e-09
-2.00994e-10
-2.72221e-09
-3.20825e-10
-2.66184e-09
-4.44439e-10
-2.66224e-09
-4.7393e-10
-2.57819e-09
-6.13827e-10
-2.43618e-09
-6.3823e-10
-2.49913e-09
-7.40759e-10
-2.36526e-09
-7.68319e-10
-2.29734e-09
-7.97366e-10
-2.1564e-09
-1.02264e-09
-2.2312e-09
-6.87594e-10
-2.05135e-09
-6.49596e-10
-1.99244e-09
-5.38264e-10
-1.8948e-09
-6.02101e-10
-1.8287e-09
-2.27553e-10
-1.69267e-09
-3.86061e-10
-1.38975e-09
-4.08778e-10
-1.23367e-09
-4.14591e-10
-1.08087e-09
1.98193e-10
-9.53158e-10
-5.31502e-10
-6.74727e-10
-2.63708e-10
-5.68603e-10
-3.3428e-11
-5.72809e-10
8.02282e-11
-5.39459e-10
-5.34503e-11
-5.0032e-10
1.79776e-11
-4.86628e-10
-5.58882e-11
-6.06375e-10
-1.02123e-10
-8.37383e-10
-2.07518e-10
-9.70353e-10
-3.65234e-10
-1.01295e-09
-4.419e-10
-1.02815e-09
-4.38765e-10
-1.05133e-09
-4.16908e-10
-1.06804e-09
-4.24631e-10
-1.04637e-09
-4.71666e-10
-1.02654e-09
-5.25674e-10
-1.02291e-09
-6.54874e-10
-1.05926e-09
-6.84906e-10
-1.05893e-09
-7.70456e-10
-1.04106e-09
-8.52958e-10
-9.70736e-10
-9.25303e-10
-8.62993e-10
-9.3362e-10
-6.58033e-10
-8.79491e-10
-5.32167e-10
-7.86064e-10
-5.09078e-10
-6.93231e-10
-5.86182e-10
-3.68353e-10
-6.52938e-10
9.21734e-11
-1.21945e-09
5.64655e-10
1.39811e-15
-1.27031e-09
-6.0257e-18
-5.45716e-18
-3.96295e-19
1.59949e-18
4.78498e-19
4.79727e-19
5.52423e-19
-6.00374e-19
5.86271e-19
-1.26135e-18
6.92079e-19
-1.62541e-18
8.60353e-19
-1.80605e-18
1.0666e-18
-1.86922e-18
1.28929e-18
-1.85103e-18
1.51189e-18
-1.7725e-18
1.7219e-18
-1.64759e-18
1.91023e-18
-1.48718e-18
2.07078e-18
-1.3007e-18
2.20009e-18
-1.09668e-18
2.29695e-18
-8.8284e-19
2.36191e-18
-6.66018e-19
2.39667e-18