/*--------------------------------*- C++ -*----------------------------------*\
  =========                 |
  \\      /  F ield         | OpenFOAM: The Open Source CFD Toolbox
   \\    /   O peration     | Website:  https://openfoam.org
    \\  /    A nd           | Version:  6
     \\/     M anipulation  |
\*---------------------------------------------------------------------------*/
FoamFile
{
    version     2.0;
    format      ascii;
    class       volScalarField;
    location    "1700";
    object      T;
}
// * * * * * * * * * * * * * * * * * * * * * * * * * * * * * * * * * * * * * //

dimensions      [0 0 0 1 0 0 0];

internalField   nonuniform List<scalar> 
4800
(
552.488
552.365
552.241
552.118
551.995
551.872
551.752
551.634
551.519
551.409
551.303
551.205
551.112
551.026
550.945
550.869
550.798
550.73
550.665
550.602
550.541
550.481
550.423
550.365
550.308
550.251
550.194
550.137
550.08
550.024
549.967
549.909
549.852
549.794
549.735
549.676
549.615
549.552
549.488
549.422
549.353
549.282
549.207
549.129
549.048
548.963
548.874
548.781
548.684
548.584
548.479
548.372
548.262
548.15
548.036
547.921
547.804
547.687
547.57
547.453
547.336
547.219
547.102
546.984
546.865
546.745
546.624
546.501
546.377
546.251
546.124
545.997
545.868
545.739
545.61
545.482
545.354
545.225
545.096
544.966
544.837
544.711
544.591
544.475
544.362
544.252
544.144
544.037
543.93
543.825
543.719
543.613
543.508
543.402
543.296
543.19
543.084
542.978
542.871
542.765
542.658
542.551
542.443
542.336
542.229
542.121
542.013
541.905
541.797
541.689
541.581
541.473
541.364
541.256
541.147
541.039
540.93
540.822
540.713
540.604
552.488
552.363
552.239
552.114
551.99
551.868
551.747
551.629
551.514
551.405
551.3
551.202
551.111
551.025
550.944
550.869
550.797
550.729
550.664
550.602
550.541
550.481
550.423
550.365
550.308
550.251
550.195
550.138
550.082
550.025
549.969
549.912
549.855
549.797
549.739
549.679
549.619
549.556
549.492
549.426
549.357
549.286
549.212
549.134
549.053
548.968
548.879
548.786
548.689
548.589
548.485
548.378
548.268
548.156
548.042
547.927
547.811
547.695
547.578
547.461
547.345
547.228
547.11
546.992
546.872
546.752
546.63
546.507
546.382
546.256
546.129
546
545.871
545.741
545.61
545.48
545.35
545.219
545.089
544.959
544.831
544.706
544.587
544.471
544.36
544.25
544.143
544.036
543.93
543.825
543.719
543.614
543.508
543.402
543.297
543.191
543.084
542.978
542.872
542.765
542.658
542.551
542.444
542.336
542.229
542.121
542.013
541.905
541.797
541.689
541.581
541.473
541.364
541.256
541.147
541.039
540.93
540.822
540.713
540.604
552.487
552.361
552.235
552.109
551.985
551.861
551.74
551.622
551.508
551.4
551.297
551.2
551.109
551.024
550.944
550.868
550.797
550.73
550.665
550.602
550.542
550.482
550.424
550.367
550.31
550.253
550.197
550.141
550.085
550.03
549.974
549.918
549.861
549.804
549.746
549.687
549.627
549.565
549.502
549.436
549.367
549.296
549.222
549.144
549.063
548.979
548.89
548.798
548.701
548.601
548.498
548.391
548.282
548.171
548.058
547.943
547.828
547.712
547.596
547.48
547.363
547.246
547.128
547.009
546.888
546.767
546.644
546.519
546.393
546.266
546.138
546.008
545.877
545.744
545.611
545.477
545.342
545.209
545.077
544.947
544.82
544.696
544.578
544.465
544.355
544.247
544.141
544.035
543.93
543.824
543.719
543.614
543.508
543.403
543.297
543.191
543.085
542.978
542.872
542.765
542.658
542.551
542.444
542.336
542.229
542.121
542.013
541.905
541.797
541.689
541.581
541.473
541.364
541.256
541.147
541.039
540.93
540.822
540.713
540.604
552.486
552.358
552.231
552.104
551.979
551.855
551.734
551.616
551.503
551.395
551.294
551.198
551.108
551.024
550.945
550.87
550.8
550.732
550.668
550.606
550.545
550.486
550.428
550.371
550.315
550.259
550.203
550.148
550.093
550.038
549.983
549.928
549.873
549.816
549.759
549.701
549.642
549.58
549.517
549.452
549.384
549.313
549.239
549.162
549.082
548.997
548.909
548.817
548.721
548.622
548.519
548.414
548.306
548.195
548.083
547.97
547.855
547.74
547.624
547.508
547.391
547.273
547.154
547.034
546.912
546.789
546.664
546.538
546.411
546.283
546.153
546.021
545.887
545.751
545.613
545.474
545.334
545.196
545.061
544.929
544.802
544.68
544.566
544.456
544.349
544.243
544.139
544.034
543.929
543.825
543.72
543.615
543.509
543.404
543.298
543.192
543.086
542.979
542.873
542.766
542.659
542.552
542.444
542.337
542.229
542.122
542.014
541.906
541.798
541.689
541.581
541.473
541.364
541.256
541.148
541.039
540.93
540.822
540.713
540.604
552.485
552.356
552.227
552.099
551.973
551.849
551.728
551.611
551.499
551.393
551.293
551.199
551.11
551.027
550.949
550.875
550.805
550.738
550.674
550.612
550.552
550.494
550.436
550.38
550.324
550.269
550.214
550.16
550.106
550.052
549.998
549.944
549.89
549.835
549.779
549.722
549.663
549.603
549.54
549.476
549.408
549.338
549.265
549.189
549.109
549.025
548.937
548.846
548.751
548.652
548.55
548.446
548.34
548.231
548.12
548.007
547.893
547.778
547.663
547.546
547.429
547.31
547.19
547.068
546.944
546.819
546.692
546.564
546.435
546.305
546.173
546.039
545.902
545.763
545.621
545.476
545.329
545.183
545.039
544.902
544.775
544.657
544.548
544.444
544.341
544.239
544.136
544.033
543.929
543.825
543.72
543.615
543.51
543.405
543.299
543.193
543.087
542.98
542.873
542.767
542.659
542.552
542.445
542.337
542.23
542.122
542.014
541.906
541.798
541.69
541.581
541.473
541.365
541.256
541.148
541.039
540.93
540.822
540.713
540.604
552.485
552.355
552.225
552.096
551.968
551.844
551.724
551.609
551.498
551.394
551.295
551.202
551.115
551.033
550.956
550.884
550.814
550.748
550.685
550.624
550.564
550.506
550.449
550.393
550.338
550.284
550.23
550.177
550.125
550.072
550.02
549.967
549.914
549.861
549.806
549.75
549.693
549.633
549.572
549.508
549.442
549.373
549.301
549.225
549.146
549.062
548.975
548.885
548.791
548.693
548.593
548.491
548.385
548.278
548.168
548.056
547.943
547.828
547.712
547.595
547.476
547.356
547.234
547.11
546.984
546.856
546.727
546.597
546.466
546.334
546.199
546.062
545.923
545.781
545.635
545.486
545.332
545.175
545.019
544.869
544.735
544.626
544.527
544.431
544.334
544.235
544.134
544.033
543.93
543.826
543.722
543.617
543.512
543.406
543.3
543.194
543.088
542.981
542.874
542.767
542.66
542.553
542.446
542.338
542.23
542.122
542.015
541.906
541.798
541.69
541.582
541.473
541.365
541.256
541.148
541.039
540.93
540.822
540.713
540.604
552.484
552.353
552.223
552.094
551.967
551.843
551.723
551.609
551.501
551.398
551.301
551.21
551.125
551.044
550.968
550.897
550.829
550.763
550.701
550.64
550.581
550.524
550.467
550.412
550.358
550.305
550.253
550.201
550.15
550.099
550.048
549.998
549.946
549.894
549.841
549.787
549.731
549.673
549.613
549.55
549.485
549.417
549.346
549.271
549.192
549.11
549.024
548.935
548.842
548.746
548.647
548.547
548.443
548.336
548.227
548.116
548.003
547.888
547.771
547.653
547.533
547.411
547.286
547.159
547.031
546.901
546.769
546.637
546.503
546.368
546.23
546.091
545.949
545.804
545.656
545.502
545.344
545.179
545.006
544.829
544.668
544.583
544.504
544.419
544.328
544.233
544.134
544.033
543.931
543.828
543.724
543.619
543.514
543.408
543.302
543.196
543.089
542.983
542.876
542.769
542.661
542.554
542.446
542.339
542.231
542.123
542.015
541.907
541.799
541.69
541.582
541.474
541.365
541.257
541.148
541.039
540.931
540.822
540.713
540.604
552.484
552.352
552.222
552.093
551.967
551.844
551.726
551.614
551.507
551.407
551.312
551.223
551.139
551.06
550.985
550.915
550.848
550.784
550.722
550.662
550.604
550.547
550.492
550.438
550.385
550.333
550.283
550.232
550.183
550.134
550.085
550.036
549.986
549.936
549.884
549.832
549.777
549.721
549.662
549.602
549.538
549.471
549.402
549.328
549.25
549.168
549.084
548.996
548.905
548.81
548.714
548.614
548.512
548.407
548.298
548.187
548.074
547.958
547.84
547.72
547.598
547.473
547.346
547.216
547.085
546.952
546.818
546.683
546.546
546.408
546.267
546.125
545.98
545.832
545.68
545.523
545.361
545.189
545.002
544.785
544.528
544.534
544.486
544.413
544.327
544.234
544.136
544.036
543.934
543.83
543.726
543.621
543.516
543.41
543.304
543.198
543.091
542.984
542.877
542.77
542.663
542.555
542.447
542.34
542.232
542.124
542.016
541.908
541.799
541.691
541.582
541.474
541.365
541.257
541.148
541.039
540.931
540.822
540.713
540.604
552.484
552.352
552.222
552.094
551.969
551.849
551.733
551.623
551.519
551.42
551.327
551.24
551.158
551.081
551.008
550.939
550.873
550.809
550.749
550.69
550.633
550.577
550.523
550.47
550.419
550.369
550.319
550.271
550.223
550.176
550.129
550.082
550.034
549.985
549.936
549.885
549.832
549.778
549.721
549.662
549.6
549.535
549.467
549.394
549.317
549.237
549.154
549.068
548.978
548.886
548.791
548.693
548.593
548.488
548.38
548.268
548.154
548.037
547.917
547.795
547.671
547.543
547.413
547.28
547.146
547.011
546.874
546.736
546.596
546.454
546.31
546.164
546.016
545.864
545.71
545.55
545.385
545.21
545.023
544.812
544.523
544.541
544.494
544.42
544.333
544.239
544.141
544.04
543.938
543.834
543.73
543.624
543.519
543.413
543.307
543.2
543.093
542.986
542.879
542.772
542.664
542.556
542.449
542.341
542.233
542.125
542.016
541.908
541.8
541.691
541.583
541.474
541.366
541.257
541.148
541.04
540.931
540.822
540.713
540.604
552.485
552.354
552.226
552.099
551.976
551.858
551.744
551.636
551.534
551.438
551.347
551.262
551.182
551.107
551.036
550.968
550.903
550.841
550.781
550.723
550.668
550.613
550.561
550.51
550.46
550.411
550.363
550.317
550.271
550.226
550.18
550.135
550.089
550.043
549.995
549.946
549.896
549.843
549.788
549.731
549.671
549.607
549.54
549.469
549.394
549.316
549.234
549.149
549.062
548.972
548.879
548.782
548.683
548.578
548.47
548.357
548.242
548.123
548.001
547.877
547.749
547.619
547.486
547.351
547.215
547.077
546.937
546.796
546.654
546.508
546.361
546.211
546.058
545.903
545.746
545.584
545.418
545.245
545.065
544.88
544.704
544.613
544.529
544.441
544.347
544.249
544.148
544.046
543.943
543.839
543.734
543.628
543.522
543.416
543.309
543.203
543.096
542.988
542.881
542.773
542.666
542.558
542.45
542.342
542.234
542.126
542.017
541.909
541.8
541.692
541.583
541.475
541.366
541.257
541.149
541.04
540.931
540.822
540.713
540.604
552.486
552.358
552.231
552.107
551.986
551.87
551.759
551.653
551.553
551.46
551.372
551.289
551.212
551.138
551.068
551.002
550.939
550.878
550.82
550.763
550.709
550.656
550.605
550.556
550.508
550.461
550.415
550.37
550.326
550.283
550.24
550.196
550.152
550.108
550.062
550.015
549.966
549.916
549.863
549.807
549.749
549.687
549.622
549.552
549.479
549.402
549.323
549.24
549.155
549.066
548.975
548.879
548.781
548.677
548.567
548.453
548.335
548.214
548.09
547.963
547.833
547.7
547.565
547.428
547.289
547.149
547.007
546.864
546.718
546.569
546.418
546.265
546.109
545.95
545.79
545.626
545.459
545.289
545.118
544.952
544.801
544.678
544.569
544.466
544.364
544.261
544.158
544.054
543.949
543.844
543.738
543.632
543.526
543.42
543.313
543.205
543.098
542.991
542.883
542.775
542.667
542.559
542.451
542.343
542.235
542.127
542.018
541.91
541.801
541.693
541.584
541.475
541.366
541.258
541.149
541.04
540.931
540.822
540.713
540.604
552.487
552.362
552.238
552.117
551.998
551.885
551.776
551.673
551.576
551.485
551.4
551.32
551.244
551.173
551.105
551.041
550.979
550.92
550.864
550.809
550.757
550.706
550.657
550.609
550.563
550.517
550.474
550.431
550.389
550.347
550.306
550.264
550.223
550.18
550.136
550.091
550.044
549.996
549.944
549.891
549.834
549.774
549.711
549.642
549.571
549.496
549.419
549.338
549.254
549.167
549.077
548.983
548.885
548.78
548.669
548.553
548.433
548.309
548.182
548.053
547.92
547.785
547.648
547.509
547.368
547.226
547.083
546.937
546.788
546.637
546.483
546.326
546.166
546.005
545.841
545.675
545.509
545.342
545.176
545.015
544.864
544.727
544.604
544.49
544.381
544.274
544.167
544.062
543.956
543.85
543.744
543.637
543.53
543.423
543.316
543.209
543.101
542.993
542.885
542.777
542.669
542.561
542.453
542.345
542.236
542.128
542.019
541.911
541.802
541.693
541.585
541.476
541.367
541.258
541.149
541.04
540.931
540.822
540.713
540.604
552.489
552.367
552.246
552.127
552.012
551.902
551.796
551.696
551.602
551.514
551.432
551.354
551.281
551.212
551.146
551.084
551.025
550.968
550.913
550.861
550.81
550.762
550.715
550.669
550.624
550.581
550.539
550.498
550.458
550.419
550.379
550.339
550.299
550.259
550.217
550.174
550.129
550.082
550.033
549.981
549.926
549.867
549.805
549.739
549.669
549.596
549.52
549.441
549.358
549.273
549.184
549.092
548.994
548.888
548.774
548.655
548.533
548.406
548.276
548.144
548.009
547.872
547.734
547.593
547.451
547.307
547.162
547.014
546.863
546.71
546.553
546.393
546.23
546.065
545.897
545.727
545.558
545.389
545.223
545.06
544.905
544.761
544.63
544.51
544.395
544.285
544.177
544.07
543.963
543.856
543.749
543.642
543.535
543.427
543.32
543.212
543.104
542.996
542.888
542.78
542.671
542.563
542.455
542.346
542.237
542.129
542.02
541.911
541.803
541.694
541.585
541.476
541.367
541.258
541.15
541.041
540.932
540.823
540.714
540.605
552.49
552.372
552.254
552.139
552.028
551.921
551.819
551.722
551.632
551.547
551.467
551.392
551.321
551.255
551.191
551.132
551.075
551.02
550.968
550.918
550.87
550.824
550.779
550.736
550.693
550.652
550.612
550.573
550.535
550.497
550.459
550.421
550.383
550.344
550.304
550.262
550.219
550.174
550.127
550.076
550.023
549.966
549.905
549.841
549.773
549.701
549.626
549.548
549.466
549.382
549.295
549.203
549.104
548.996
548.88
548.758
548.631
548.501
548.369
548.234
548.098
547.959
547.819
547.678
547.535
547.39
547.242
547.093
546.94
546.784
546.625
546.462
546.296
546.127
545.954
545.779
545.604
545.429
545.257
545.089
544.929
544.78
544.646
544.522
544.406
544.294
544.185
544.077
543.969
543.862
543.755
543.647
543.54
543.432
543.324
543.216
543.107
542.999
542.891
542.782
542.673
542.565
542.456
542.348
542.239
542.13
542.021
541.912
541.804
541.695
541.586
541.477
541.368
541.259
541.15
541.041
540.932
540.823
540.714
540.605
552.492
552.378
552.264
552.153
552.046
551.943
551.844
551.751
551.663
551.582
551.505
551.433
551.365
551.301
551.241
551.184
551.13
551.078
551.029
550.982
550.937
550.893
550.851
550.81
550.77
550.731
550.692
550.655
550.618
550.582
550.546
550.51
550.473
550.435
550.397
550.357
550.316
550.273
550.226
550.177
550.125
550.069
550.01
549.947
549.88
549.81
549.736
549.658
549.577
549.493
549.406
549.314
549.212
549.101
548.981
548.856
548.726
548.593
548.459
548.322
548.184
548.044
547.903
547.76
547.616
547.47
547.321
547.17
547.015
546.858
546.696
546.531
546.361
546.188
546.01
545.829
545.647
545.463
545.282
545.106
544.939
544.785
544.649
544.527
544.411
544.3
544.191
544.083
543.976
543.868
543.76
543.653
543.545
543.436
543.328
543.219
543.111
543.002
542.893
542.785
542.676
542.567
542.458
542.349
542.24
542.131
542.022
541.913
541.804
541.695
541.586
541.477
541.368
541.259
541.15
541.041
540.932
540.823
540.714
540.605
552.495
552.385
552.276
552.169
552.066
551.967
551.872
551.783
551.699
551.62
551.547
551.478
551.413
551.352
551.295
551.241
551.19
551.142
551.096
551.052
551.01
550.969
550.929
550.891
550.853
550.816
550.78
550.745
550.71
550.675
550.64
550.605
550.57
550.534
550.497
550.459
550.419
550.377
550.333
550.285
550.233
550.179
550.12
550.058
549.992
549.923
549.849
549.772
549.69
549.605
549.516
549.421
549.316
549.2
549.076
548.947
548.814
548.68
548.543
548.405
548.265
548.124
547.982
547.838
547.693
547.546
547.396
547.243
547.087
546.927
546.763
546.595
546.422
546.245
546.063
545.876
545.686
545.494
545.302
545.113
544.932
544.768
544.638
544.523
544.412
544.304
544.196
544.089
543.981
543.874
543.766
543.658
543.55
543.441
543.332
543.223
543.114
543.005
542.896
542.787
542.678
542.569
542.46
542.351
542.242
542.133
542.024
541.914
541.805
541.696
541.587
541.478
541.369
541.26
541.151
541.041
540.932
540.823
540.714
540.605
552.497
552.392
552.288
552.187
552.088
551.993
551.902
551.817
551.737
551.662
551.593
551.527
551.466
551.408
551.354
551.304
551.256
551.212
551.169
551.129
551.09
551.052
551.016
550.98
550.945
550.91
550.876
550.843
550.809
550.776
550.743
550.71
550.676
550.641
550.606
550.569
550.531
550.49
550.446
550.399
550.349
550.295
550.237
550.176
550.11
550.041
549.968
549.889
549.806
549.719
549.627
549.528
549.416
549.294
549.165
549.031
548.896
548.759
548.621
548.481
548.34
548.197
548.054
547.909
547.763
547.614
547.463
547.309
547.151
546.989
546.823
546.652
546.476
546.295
546.109
545.918
545.722
545.522
545.318
545.113
544.906
544.716
544.612
544.513
544.411
544.306
544.2
544.094
543.987
543.879
543.771
543.663
543.555
543.446
543.337
543.227
543.118
543.009
542.899
542.79
542.681
542.571
542.462
542.353
542.243
542.134
542.025
541.916
541.806
541.697
541.588
541.479
541.369
541.26
541.151
541.042
540.932
540.823
540.714
540.605
552.5
552.401
552.302
552.206
552.112
552.022
551.936
551.855
551.779
551.708
551.642
551.58
551.523
551.469
551.419
551.373
551.329
551.288
551.249
551.213
551.178
551.143
551.11
551.077
551.045
551.013
550.981
550.95
550.918
550.887
550.855
550.823
550.791
550.758
550.723
550.688
550.651
550.612
550.569
550.523
550.473
550.42
550.363
550.302
550.237
550.167
550.093
550.014
549.928
549.836
549.739
549.633
549.514
549.384
549.248
549.11
548.971
548.832
548.691
548.55
548.407
548.263
548.117
547.97
547.822
547.672
547.519
547.363
547.202
547.038
546.869
546.695
546.517
546.333
546.143
545.948
545.748
545.541
545.33
545.108
544.861
544.572
544.577
544.505
544.41
544.308
544.204
544.098
543.992
543.884
543.777
543.668
543.559
543.45
543.341
543.231
543.122
543.012
542.902
542.793
542.683
542.573
542.464
542.354
542.245
542.135
542.026
541.917
541.807
541.698
541.589
541.479
541.37
541.261
541.151
541.042
540.933
540.823
540.714
540.605
552.503
552.41
552.318
552.227
552.139
552.054
551.972
551.896
551.824
551.758
551.696
551.638
551.585
551.535
551.489
551.447
551.407
551.37
551.336
551.303
551.272
551.242
551.212
551.182
551.153
551.124
551.095
551.066
551.036
551.007
550.977
550.947
550.916
550.885
550.852
550.818
550.783
550.745
550.703
550.658
550.61
550.557
550.5
550.44
550.374
550.304
550.228
550.147
550.057
549.96
549.855
549.74
549.611
549.473
549.33
549.186
549.042
548.898
548.755
548.61
548.465
548.318
548.17
548.021
547.87
547.717
547.56
547.401
547.237
547.07
546.898
546.722
546.541
546.355
546.163
545.966
545.763
545.554
545.341
545.126
544.913
544.721
544.615
544.516
544.415
544.312
544.208
544.102
543.996
543.889
543.781
543.673
543.564
543.455
543.345
543.235
543.125
543.015
542.905
542.795
542.685
542.576
542.466
542.356
542.246
542.137
542.027
541.918
541.808
541.699
541.589
541.48
541.37
541.261
541.152
541.042
540.933
540.823
540.714
540.605
552.507
552.421
552.335
552.251
552.169
552.089
552.014
551.942
551.875
551.813
551.755
551.702
551.652
551.607
551.565
551.526
551.491
551.458
551.427
551.399
551.372
551.345
551.319
551.293
551.267
551.242
551.216
551.19
551.163
551.136
551.109
551.081
551.053
551.024
550.993
550.962
550.928
550.892
550.852
550.809
550.761
550.71
550.653
550.592
550.526
550.455
550.378
550.293
550.198
550.093
549.978
549.854
549.714
549.566
549.415
549.262
549.112
548.962
548.812
548.663
548.514
548.364
548.213
548.06
547.905
547.747
547.587
547.423
547.255
547.084
546.909
546.731
546.548
546.36
546.167
545.969
545.766
545.559
545.351
545.146
544.951
544.778
544.642
544.527
544.42
544.315
544.21
544.105
544
543.893
543.786
543.678
543.569
543.459
543.349
543.239
543.129
543.019
542.908
542.798
542.688
542.578
542.468
542.358
542.248
542.138
542.028
541.919
541.809
541.7
541.59
541.48
541.371
541.261
541.152
541.043
540.933
540.824
540.714
540.605
552.511
552.434
552.356
552.28
552.204
552.131
552.061
551.994
551.932
551.874
551.82
551.771
551.725
551.683
551.644
551.609
551.577
551.548
551.522
551.497
551.474
551.451
551.429
551.407
551.386
551.364
551.342
551.319
551.297
551.273
551.25
551.225
551.2
551.174
551.147
551.119
551.088
551.054
551.017
550.976
550.931
550.881
550.825
550.765
550.698
550.626
550.546
550.456
550.353
550.238
550.112
549.976
549.825
549.666
549.504
549.342
549.182
549.024
548.867
548.711
548.556
548.401
548.245
548.088
547.927
547.764
547.597
547.428
547.255
547.079
546.901
546.719
546.534
546.346
546.153
545.955
545.753
545.55
545.347
545.15
544.963
544.791
544.644
544.527
544.42
544.315
544.212
544.108
544.003
543.897
543.79
543.682
543.573
543.463
543.353
543.243
543.132
543.022
542.911
542.801
542.69
542.58
542.47
542.36
542.249
542.14
542.03
541.92
541.81
541.7
541.591
541.481
541.371
541.262
541.152
541.043
540.933
540.824
540.714
540.605
552.517
552.449
552.382
552.314
552.247
552.18
552.116
552.055
551.997
551.943
551.893
551.846
551.803
551.763
551.728
551.695
551.666
551.64
551.616
551.595
551.575
551.556
551.538
551.52
551.503
551.486
551.468
551.45
551.432
551.414
551.395
551.375
551.355
551.334
551.312
551.288
551.261
551.232
551.199
551.162
551.12
551.073
551.02
550.96
550.893
550.819
550.734
550.638
550.526
550.398
550.259
550.11
549.946
549.775
549.602
549.429
549.257
549.088
548.922
548.758
548.596
548.434
548.271
548.107
547.939
547.768
547.595
547.418
547.239
547.057
546.873
546.688
546.501
546.311
546.118
545.922
545.723
545.523
545.324
545.131
544.947
544.774
544.609
544.51
544.413
544.313
544.211
544.108
544.004
543.899
543.793
543.685
543.576
543.467
543.357
543.246
543.136
543.025
542.914
542.803
542.693
542.582
542.472
542.361
542.251
542.141
542.031
541.921
541.811
541.701
541.591
541.482
541.372
541.262
541.153
541.043
540.934
540.824
540.714
540.605
552.523
552.469
552.413
552.356
552.298
552.24
552.182
552.126
552.073
552.022
551.974
551.929
551.888
551.85
551.815
551.783
551.755
551.73
551.708
551.689
551.672
551.656
551.641
551.628
551.615
551.602
551.589
551.577
551.564
551.552
551.539
551.525
551.512
551.497
551.482
551.465
551.445
551.422
551.396
551.364
551.328
551.285
551.235
551.177
551.111
551.034
550.944
550.839
550.716
550.574
550.421
550.259
550.082
549.899
549.714
549.528
549.344
549.164
548.986
548.812
548.639
548.468
548.297
548.123
547.947
547.767
547.584
547.399
547.211
547.021
546.829
546.638
546.446
546.255
546.064
545.871
545.677
545.482
545.288
545.1
544.92
544.754
544.493
544.48
544.403
544.308
544.209
544.107
544.005
543.9
543.795
543.688
543.579
543.47
543.36
543.249
543.139
543.028
542.917
542.806
542.695
542.584
542.473
542.363
542.252
542.142
542.032
541.922
541.812
541.702
541.592
541.482
541.373
541.263
541.153
541.043
540.934
540.824
540.714
540.605
552.531
552.491
552.45
552.406
552.36
552.311
552.261
552.211
552.162
552.114
552.068
552.024
551.983
551.945
551.91
551.878
551.85
551.824
551.802
551.783
551.766
551.752
551.739
551.728
551.718
551.709
551.7
551.692
551.685
551.678
551.672
551.666
551.66
551.653
551.646
551.638
551.627
551.613
551.595
551.572
551.544
551.507
551.463
551.409
551.345
551.267
551.172
551.058
550.921
550.765
550.599
550.424
550.237
550.045
549.849
549.651
549.454
549.261
549.071
548.885
548.701
548.518
548.335
548.15
547.963
547.772
547.577
547.38
547.18
546.977
546.775
546.573
546.374
546.181
545.991
545.803
545.616
545.429
545.244
545.065
544.896
544.739
544.587
544.495
544.402
544.305
544.206
544.106
544.004
543.901
543.796
543.689
543.582
543.473
543.363
543.252
543.141
543.03
542.919
542.808
542.697
542.586
542.475
542.364
542.254
542.143
542.033
541.923
541.813
541.703
541.593
541.483
541.373
541.263
541.153
541.044
540.934
540.824
540.715
540.605
552.538
552.513
552.486
552.458
552.425
552.389
552.349
552.307
552.263
552.22
552.177
552.135
552.096
552.059
552.024
551.992
551.962
551.935
551.911
551.89
551.871
551.856
551.842
551.83
551.82
551.81
551.802
551.796
551.791
551.787
551.785
551.784
551.784
551.784
551.785
551.786
551.786
551.782
551.775
551.763
551.744
551.718
551.682
551.635
551.576
551.5
551.401
551.28
551.133
550.966
550.79
550.609
550.418
550.222
550.017
549.809
549.602
549.399
549.198
548.998
548.801
548.605
548.409
548.211
548.009
547.803
547.592
547.379
547.163
546.943
546.722
546.503
546.291
546.091
545.901
545.718
545.541
545.367
545.196
545.031
544.877
544.736
544.609
544.503
544.403
544.303
544.203
544.103
544.003
543.9
543.796
543.691
543.583
543.475
543.365
543.255
543.144
543.033
542.921
542.81
542.699
542.588
542.477
542.366
542.255
542.144
542.034
541.924
541.813
541.703
541.593
541.483
541.373
541.264
541.154
541.044
540.934
540.824
540.715
540.605
552.54
552.523
552.507
552.493
552.476
552.456
552.431
552.402
552.369
552.335
552.301
552.267
552.235
552.205
552.176
552.149
552.122
552.095
552.069
552.045
552.023
552.002
551.983
551.965
551.947
551.929
551.913
551.899
551.887
551.878
551.872
551.867
551.866
551.866
551.87
551.876
551.882
551.888
551.892
551.892
551.886
551.872
551.848
551.813
551.765
551.698
551.605
551.485
551.337
551.168
550.991
550.813
550.63
550.44
550.232
550.022
549.815
549.606
549.399
549.185
548.974
548.766
548.554
548.336
548.115
547.891
547.663
547.43
547.192
546.947
546.698
546.451
546.213
545.997
545.8
545.618
545.45
545.292
545.138
544.992
544.855
544.727
544.611
544.505
544.402
544.301
544.2
544.1
544
543.899
543.796
543.691
543.584
543.476
543.367
543.257
543.146
543.035
542.923
542.812
542.701
542.589
542.478
542.367
542.256
542.145
542.035
541.925
541.814
541.704
541.594
541.484
541.374
541.264
541.154
541.044
540.934
540.825
540.715
540.605
552.53
552.496
552.476
552.469
552.469
552.471
552.471
552.465
552.456
552.444
552.432
552.421
552.412
552.405
552.397
552.388
552.376
552.361
552.341
552.317
552.291
552.264
552.233
552.2
552.164
552.125
552.084
552.044
552.006
551.972
551.941
551.915
551.892
551.875
551.865
551.861
551.864
551.872
551.881
551.891
551.899
551.902
551.896
551.878
551.847
551.801
551.732
551.634
551.504
551.352
551.193
551.034
550.878
550.709
550.504
550.31
550.124
549.918
549.718
549.487
549.263
549.047
548.818
548.574
548.329
548.091
547.846
547.592
547.33
547.046
546.757
546.463
546.176
545.929
545.71
545.507
545.342
545.2
545.064
544.937
544.817
544.703
544.6
544.504
544.401
544.298
544.197
544.097
543.997
543.897
543.794
543.691
543.585
543.477
543.369
543.259
543.148
543.037
542.925
542.814
542.702
542.591
542.479
542.368
542.257
542.146
542.036
541.925
541.815
541.705
541.594
541.484
541.374
541.264
541.154
541.044
540.934
540.825
540.715
540.605
552.49
552.388
552.327
552.311
552.327
552.358
552.394
552.431
552.467
552.503
552.541
552.582
552.626
552.673
552.717
552.756
552.79
552.814
552.822
552.815
552.794
552.76
552.715
552.659
552.591
552.509
552.418
552.322
552.225
552.129
552.038
551.953
551.873
551.801
551.739
551.694
551.665
551.652
551.652
551.665
551.686
551.712
551.732
551.736
551.735
551.735
551.72
551.675
551.595
551.486
551.37
551.252
551.144
551.009
550.798
550.654
550.526
550.326
550.174
549.91
549.683
549.473
549.233
548.957
548.689
548.462
548.217
547.941
547.651
547.309
546.98
546.629
546.242
545.948
545.679
545.398
545.217
545.09
544.97
544.865
544.761
544.657
544.577
544.509
544.4
544.296
544.194
544.093
543.994
543.894
543.793
543.69
543.585
543.478
543.37
543.26
543.149
543.038
542.927
542.815
542.703
542.592
542.48
542.369
542.258
542.147
542.037
541.926
541.815
541.705
541.595
541.485
541.375
541.265
541.155
541.045
540.935
540.825
540.715
540.605
552.393
552.122
551.954
551.896
551.92
551.99
552.085
552.191
552.305
552.425
552.554
552.693
552.841
552.993
553.14
553.279
553.417
553.545
553.632
553.681
553.687
553.656
553.6
553.52
553.411
553.263
553.087
552.894
552.688
552.476
552.27
552.072
551.878
551.689
551.513
551.362
551.243
551.155
551.105
551.104
551.135
551.19
551.247
551.276
551.316
551.394
551.462
551.482
551.484
551.441
551.398
551.347
551.315
551.244
551.078
551.028
550.936
550.76
550.639
550.388
550.183
549.958
549.746
549.494
549.229
549.021
548.77
548.445
548.062
547.666
547.337
546.952
546.498
546.076
545.692
545.352
545.157
544.986
544.865
544.781
544.693
544.569
544.528
544.492
544.392
544.291
544.189
544.089
543.99
543.891
543.791
543.689
543.584
543.478
543.37
543.261
543.15
543.039
542.928
542.816
542.705
542.593
542.481
542.37
542.259
542.148
542.037
541.927
541.816
541.706
541.595
541.485
541.375
541.265
541.155
541.045
540.935
540.825
540.715
540.605
552.2
551.594
551.216
551.071
551.09
551.205
551.376
551.582
551.813
552.065
552.336
552.629
552.947
553.275
553.588
553.889
554.231
554.584
554.845
555.024
555.104
555.097
555.049
554.965
554.827
554.596
554.299
553.972
553.608
553.223
552.849
552.486
552.106
551.712
551.334
550.975
550.655
550.369
550.163
550.109
550.132
550.199
550.302
550.356
550.432
550.603
550.764
550.82
550.912
551.024
551.132
551.252
551.348
551.331
551.233
551.258
551.188
551.163
551.116
550.867
550.698
550.458
550.382
550.212
549.975
549.78
549.524
549.092
548.531
548.166
547.992
547.636
547.169
546.511
546.03
545.567
545.213
544.94
544.773
544.606
544.505
544.393
544.439
544.463
544.378
544.283
544.184
544.085
543.987
543.888
543.789
543.688
543.584
543.478
543.371
543.262
543.151
543.04
542.929
542.817
542.705
542.594
542.482
542.371
542.26
542.149
542.038
541.927
541.816
541.706
541.596
541.485
541.375
541.265
541.155
541.045
540.935
540.825
540.715
540.605
551.88
550.707
549.99
549.721
549.717
549.868
550.114
550.426
550.795
551.214
551.66
552.157
552.705
553.28
553.808
554.275
554.965
555.714
556.257
556.684
556.942
557.001
556.984
556.94
556.829
556.515
556.087
555.638
555.145
554.619
554.103
553.577
552.95
552.227
551.577
550.897
550.199
549.461
548.815
548.608
548.598
548.592
548.626
548.713
548.854
549.055
549.305
549.596
549.842
550.117
550.423
550.733
550.987
551.119
551.061
551.125
551.15
551.581
551.653
551.257
550.997
551.03
551.209
550.889
550.764
550.578
550.309
549.758
548.956
548.91
549.086
548.879
548.389
547.266
546.707
546.111
545.561
545.18
544.901
544.565
544.361
544.228
544.324
544.433
544.358
544.273
544.178
544.081
543.984
543.886
543.787
543.687
543.584
543.478
543.371
543.262
543.152
543.041
542.93
542.818
542.706
542.594
542.483
542.371
542.26
542.149
542.038
541.927
541.817
541.706
541.596
541.486
541.375