0.010101 	1.78335e-09 	-6.69692e-14 	2.40646e-11
0.020202 	6.72839e-11 	-1.89571e-14 	1.29894e-12
