0.010101 	-2.78829e-10 	1.45951e-15 	-2.23661e-12
0.020202 	-1.35506e-11 	3.78089e-15 	-2.57964e-13
