0 	-15.2176
0.010101 	-9.60417
0.020202 	-9.60423
0.030303 	-9.60523
0.040404 	-9.62511
0.0505051 	-9.72659
0.0606061 	-9.61343
0.0707071 	-9.60465
0.0808081 	-9.6042
0.0909091 	-9.60417
