/*--------------------------------*- C++ -*----------------------------------*\
  =========                 |
  \\      /  F ield         | OpenFOAM: The Open Source CFD Toolbox
   \\    /   O peration     | Website:  https://openfoam.org
    \\  /    A nd           | Version:  6
     \\/     M anipulation  |
\*---------------------------------------------------------------------------*/
FoamFile
{
    version     2.0;
    format      ascii;
    class       volScalarField;
    location    "30";
    object      p;
}
// * * * * * * * * * * * * * * * * * * * * * * * * * * * * * * * * * * * * * //

dimensions      [1 -1 -2 0 0 0 0];

internalField   nonuniform List<scalar> 
5964
(
103806
103806
103806
103806
103806
103806
103801
103797
103793
103790
103787
103784
103782
103780
103778
103776
103774
103772
103770
103769
103767
103766
103764
103763
103762
103761
103759
103758
103757
103756
103755
103755
103754
103753
103752
103751
103751
103750
103749
103749
103748
103747
103747
103746
103746
103745
103745
103744
103744
103743
103743
103742
103742
103742
103741
103741
103741
103740
103740
103740
103740
103739
103739
103739
103739
103738
103738
103738
103738
103738
103738
103738
103737
103737
103737
103737
103737
103737
103737
103737
103737
103737
103737
103737
103746
103746
103746
103746
103746
103746
103741
103738
103734
103731
103728
103726
103723
103721
103719
103717
103715
103713
103711
103710
103708
103707
103706
103704
103703
103702
103701
103700
103699
103698
103697
103696
103695
103694
103693
103693
103692
103691
103690
103690
103689
103689
103688
103688
103687
103686
103686
103686
103685
103685
103684
103684
103683
103683
103683
103682
103682
103682
103681
103681
103681
103681
103680
103680
103680
103680
103680
103679
103679
103679
103679
103679
103679
103679
103679
103678
103678
103678
103678
103678
103678
103678
103678
103678
103686
103686
103686
103686
103686
103686
103682
103678
103675
103672
103669
103667
103664
103662
103660
103658
103656
103654
103653
103651
103650
103648
103647
103646
103644
103643
103642
103641
103640
103639
103638
103637
103636
103635
103635
103634
103633
103632
103632
103631
103631
103630
103629
103629
103628
103628
103627
103627
103626
103626
103626
103625
103625
103624
103624
103624
103623
103623
103623
103623
103622
103622
103622
103622
103621
103621
103621
103621
103621
103620
103620
103620
103620
103620
103620
103620
103620
103620
103620
103620
103619
103619
103619
103619
103625
103625
103625
103625
103625
103625
103622
103618
103615
103613
103610
103607
103605
103603
103601
103599
103597
103595
103594
103592
103591
103589
103588
103587
103586
103584
103583
103582
103581
103580
103579
103578
103578
103577
103576
103575
103574
103574
103573
103572
103572
103571
103571
103570
103570
103569
103569
103568
103568
103567
103567
103566
103566
103566
103565
103565
103565
103564
103564
103564
103564
103563
103563
103563
103563
103562
103562
103562
103562
103562
103562
103562
103561
103561
103561
103561
103561
103561
103561
103561
103561
103561
103561
103561
103565
103565
103565
103565
103565
103565
103562
103559
103556
103553
103551
103548
103546
103544
103542
103540
103538
103537
103535
103533
103532
103531
103529
103528
103527
103526
103524
103523
103522
103521
103521
103520
103519
103518
103517
103516
103516
103515
103514
103514
103513
103513
103512
103511
103511
103510
103510
103509
103509
103509
103508
103508
103507
103507
103507
103506
103506
103506
103505
103505
103505
103505
103504
103504
103504
103504
103504
103503
103503
103503
103503
103503
103503
103503
103503
103502
103502
103502
103502
103502
103502
103502
103502
103502
103504
103504
103504
103504
103504
103504
103501
103499
103496
103494
103491
103489
103487
103485
103483
103481
103479
103477
103476
103474
103473
103472
103470
103469
103468
103467
103466
103465
103464
103463
103462
103461
103460
103459
103458
103458
103457
103456
103456
103455
103454
103454
103453
103453
103452
103452
103451
103451
103450
103450
103449
103449
103449
103448
103448
103448
103447
103447
103447
103446
103446
103446
103446
103446
103445
103445
103445
103445
103445
103444
103444
103444
103444
103444
103444
103444
103444
103444
103444
103444
103443
103443
103443
103443
103444
103444
103444
103444
103444
103444
103441
103439
103436
103434
103432
103429
103427
103425
103423
103422
103420
103418
103417
103415
103414
103413
103411
103410
103409
103408
103407
103406
103405
103404
103403
103402
103401
103400
103400
103399
103398
103397
103397
103396
103396
103395
103394
103394
103393
103393
103392
103392
103392
103391
103391
103390
103390
103390
103389
103389
103389
103388
103388
103388
103388
103387
103387
103387
103387
103386
103386
103386
103386
103386
103386
103385
103385
103385
103385
103385
103385
103385
103385
103385
103385
103385
103385
103385
103383
103383
103383
103383
103383
103383
103381
103379
103376
103374
103372
103370
103368
103366
103364
103362
103361
103359
103358
103356
103355
103354
103352
103351
103350
103349
103348
103347
103346
103345
103344
103343
103342
103342
103341
103340
103339
103339
103338
103337
103337
103336
103336
103335
103335
103334
103334
103333
103333
103332
103332
103332
103331
103331
103331
103330
103330
103330
103329
103329
103329
103329
103328
103328
103328
103328
103328
103327
103327
103327
103327
103327
103327
103327
103326
103326
103326
103326
103326
103326
103326
103326
103326
103326
103323
103323
103323
103323
103323
103323
103321
103318
103316
103314
103312
103310
103308
103307
103305
103303
103301
103300
103299
103297
103296
103294
103293
103292
103291
103290
103289
103288
103287
103286
103285
103284
103283
103283
103282
103281
103281
103280
103279
103279
103278
103277
103277
103276
103276
103275
103275
103274
103274
103274
103273
103273
103272
103272
103272
103271
103271
103271
103271
103270
103270
103270
103270
103269
103269
103269
103269
103269
103268
103268
103268
103268
103268
103268
103268
103268
103268
103268
103267
103267
103267
103267
103267
103267
103263
103263
103263
103263
103263
103263
103260
103258
103256
103254
103252
103251
103249
103247
103245
103244
103242
103241
103239
103238
103237
103235
103234
103233
103232
103231
103230
103229
103228
103227
103226
103225
103225
103224
103223
103222
103222
103221
103220
103220
103219
103219
103218
103218
103217
103217
103216
103216
103215
103215
103214
103214
103214
103213
103213
103213
103212
103212
103212
103212
103211
103211
103211
103211
103210
103210
103210
103210
103210
103210
103209
103209
103209
103209
103209
103209
103209
103209
103209
103209
103209
103209
103209
103209
103202
103202
103202
103202
103202
103202
103200
103198
103196
103194
103193
103191
103189
103187
103186
103184
103183
103181
103180
103179
103177
103176
103175
103174
103173
103172
103171
103170
103169
103168
103167
103166
103166
103165
103164
103163
103163
103162
103161
103161
103160
103160
103159
103159
103158
103158
103157
103157
103156
103156
103156
103155
103155
103155
103154
103154
103154
103153
103153
103153
103153
103152
103152
103152
103152
103152
103151
103151
103151
103151
103151
103151
103150
103150
103150
103150
103150
103150
103150
103150
103150
103150
103150
103150
103142
103142
103142
103142
103142
103142
103140
103138
103136
103134
103133
103131
103129
103128
103126
103125
103123
103122
103121
103119
103118
103117
103116
103115
103114
103113
103112
103111
103110
103109
103108
103107
103107
103106
103105
103104
103104
103103
103103
103102
103101
103101
103100
103100
103099
103099
103098
103098
103098
103097
103097
103096
103096
103096
103095
103095
103095
103095
103094
103094
103094
103094
103093
103093
103093
103093
103093
103092
103092
103092
103092
103092
103092
103092
103092
103091
103091
103091
103091
103091
103091
103091
103091
103091
103081
103081
103081
103081
103081
103081
103080
103078
103076
103074
103073
103071
103070
103068
103067
103065
103064
103063
103061
103060
103059
103058
103057
103056
103055
103054
103053
103052
103051
103050
103049
103048
103048
103047
103046
103046
103045
103044
103044
103043
103043
103042
103042
103041
103041
103040
103040
103039
103039
103038
103038
103038
103037
103037
103037
103036
103036
103036
103036
103035
103035
103035
103035
103034
103034
103034
103034
103034
103034
103033
103033
103033
103033
103033
103033
103033
103033
103033
103033
103032
103032
103032
103032
103032
103021
103021
103021
103021
103021
103021
103019
103018
103016
103014
103013
103011
103010
103008
103007
103006
103004
103003
103002
103001
102999
102998
102997
102996
102995
102994
102993
102993
102992
102991
102990
102989
102989
102988
102987
102987
102986
102985
102985
102984
102984
102983
102983
102982
102982
102981
102981
102980
102980
102980
102979
102979
102979
102978
102978
102978
102977
102977
102977
102977
102976
102976
102976
102976
102975
102975
102975
102975
102975
102975
102974
102974
102974
102974
102974
102974
102974
102974
102974
102974
102974
102974
102974
102974
102960
102960
102960
102960
102960
102960
102959
102957
102956
102954
102953
102951
102950
102949
102947
102946
102945
102944
102942
102941
102940
102939
102938
102937
102936
102935
102934
102933
102933
102932
102931
102930
102930
102929
102928
102928
102927
102926
102926
102925
102925
102924
102924
102923
102923
102922
102922
102922
102921
102921
102920
102920
102920
102919
102919
102919
102918
102918
102918
102918
102917
102917
102917
102917
102917
102916
102916
102916
102916
102916
102916
102916
102915
102915
102915
102915
102915
102915
102915
102915
102915
102915
102915
102915
102900
102900
102900
102900
102900
102900
102899
102897
102896
102894
102893
102891
102890
102889
102888
102886
102885
102884
102883
102882
102881
102880
102879
102878
102877
102876
102875
102874
102873
102873
102872
102871
102871
102870
102869
102869
102868
102867
102867
102866
102866
102865
102865
102864
102864
102863
102863
102863
102862
102862
102862
102861
102861
102861
102860
102860
102860
102859
102859
102859
102859
102858
102858
102858
102858
102858
102858
102857
102857
102857
102857
102857
102857
102857
102857
102856
102856
102856
102856
102856
102856
102856
102856
102856
102840
102840
102840
102840
102840
102840
102838
102837
102835
102834
102833
102832
102830
102829
102828
102827
102826
102824
102823
102822
102821
102820
102819
102818
102818
102817
102816
102815
102814
102814
102813
102812
102811
102811
102810
102810
102809
102808
102808
102807
102807
102806
102806
102805
102805
102805
102804
102804
102803
102803
102803
102802
102802
102802
102801
102801
102801
102801
102800
102800
102800
102800
102799
102799
102799
102799
102799
102799
102798
102798
102798
102798
102798
102798
102798
102798
102798
102798
102797
102797
102797
102797
102797
102797
102779
102779
102779
102779
102779
102779
102778
102777
102775
102774
102773
102772
102770
102769
102768
102767
102766
102765
102764
102763
102762
102761
102760
102759
102758
102757
102757
102756
102755
102754
102754
102753
102752
102752
102751
102750
102750
102749
102749
102748
102748
102747
102747
102746
102746
102746
102745
102745
102744
102744
102744
102743
102743
102743
102743
102742
102742
102742
102741
102741
102741
102741
102741
102740
102740
102740
102740
102740
102740
102739
102739
102739
102739
102739
102739
102739
102739
102739
102739
102739
102739
102739
102739
102739
102719
102719
102719
102719
102719
102719
102718
102716
102715
102714
102713
102712
102710
102709
102708
102707
102706
102705
102704
102703
102702
102701
102701
102700
102699
102698
102697
102697
102696
102695
102694
102694
102693
102693
102692
102691
102691
102690
102690
102689
102689
102688
102688
102688
102687
102687
102686
102686
102686
102685
102685
102685
102684
102684
102684
102683
102683
102683
102683
102682
102682
102682
102682
102682
102681
102681
102681
102681
102681
102681
102681
102680
102680
102680
102680
102680
102680
102680
102680
102680
102680
102680
102680
102680
102658
102658
102658
102658
102658
102658
102657
102656
102655
102654
102653
102652
102651
102649
102648
102647
102646
102646
102645
102644
102643
102642
102641
102640
102640
102639
102638
102637
102637
102636
102635
102635
102634
102633
102633
102632
102632
102631
102631
102630
102630
102629
102629
102629
102628
102628
102627
102627
102627
102626
102626
102626
102625
102625
102625
102625
102624
102624
102624
102624
102623
102623
102623
102623
102623
102622
102622
102622
102622
102622
102622
102622
102622
102621
102621
102621
102621
102621
102621
102621
102621
102621
102621
102621
102598
102598
102598
102598
102598
102598
102597
102596
102595
102594
102593
102592
102591
102590
102589
102588
102587
102586
102585
102584
102583
102582
102582
102581
102580
102579
102579
102578
102577
102577
102576
102575
102575
102574
102574
102573
102573
102572
102572
102571
102571
102570
102570
102570
102569
102569
102568
102568
102568
102567
102567
102567
102566
102566
102566
102566
102565
102565
102565
102565
102564
102564
102564
102564
102564
102564
102563
102563
102563
102563
102563
102563
102563
102563
102563
102562
102562
102562
102562
102562
102562
102562
102562
102562
102537
102537
102537
102537
102537
102537
102536
102535
102534
102533
102533
102532
102531
102530
102529
102528
102527
102526
102525
102524
102524
102523
102522
102521
102521
102520
102519
102519
102518
102517
102517
102516
102516
102515
102515
102514
102514
102513
102513
102512
102512
102511
102511
102511
102510
102510
102509
102509
102509
102508
102508
102508
102508
102507
102507
102507
102507
102506
102506
102506
102506
102505
102505
102505
102505
102505
102505
102504
102504
102504
102504
102504
102504
102504
102504
102504
102504
102504
102503
102503
102503
102503
102503
102503
102477
102477
102477
102477
102477
102477
102476
102475
102474
102473
102472
102472
102471
102470
102469
102468
102467
102466
102466
102465
102464
102463
102463
102462
102461
102461
102460
102459
102459
102458
102458
102457
102457
102456
102455
102455
102455
102454
102454
102453
102453
102452
102452
102452
102451
102451
102450
102450
102450
102450
102449
102449
102449
102448
102448
102448
102448
102447
102447
102447
102447
102447
102446
102446
102446
102446
102446
102446
102445
102445
102445
102445
102445
102445
102445
102445
102445
102445
102445
102445
102445
102445
102445
102445
102417
102417
102417
102417
102417
102417
102416
102415
102414
102413
102412
102411
102411
102410
102409
102408
102407
102407
102406
102405
102405
102404
102403
102403
102402
102401
102401
102400
102399
102399
102398
102398
102397
102397
102396
102396
102395
102395
102395
102394
102394
102393
102393
102393
102392
102392
102391
102391
102391
102391
102390
102390
102390
102389
102389
102389
102389
102388
102388
102388
102388
102388
102388
102387
102387
102387
102387
102387
102387
102387
102386
102386
102386
102386
102386
102386
102386
102386
102386
102386
102386
102386
102386
102386
102356
102356
102356
102356
102356
102356
102355
102355
102354
102353
102352
102351
102351
102350
102349
102348
102348
102347
102346
102346
102345
102344
102344
102343
102342
102342
102341
102341
102340
102340
102339
102339
102338
102338
102337
102337
102336
102336
102335
102335
102335
102334
102334
102334
102333
102333
102333
102332
102332
102332
102331
102331
102331
102331
102330
102330
102330
102330
102329
102329
102329
102329
102329
102328
102328
102328
102328
102328
102328
102328
102328
102327
102327
102327
102327
102327
102327
102327
102327
102327
102327
102327
102327
102327
102296
102296
102296
102296
102296
102296
102295
102294
102294
102293
102292
102291
102291
102290
102289
102289
102288
102287
102287
102286
102285
102285
102284
102284
102283
102282
102282
102281
102281
102280
102280
102279
102279
102278
102278
102278
102277
102277
102276
102276
102276
102275
102275
102274
102274
102274
102274
102273
102273
102273
102272
102272
102272
102272
102271
102271
102271
102271
102270
102270
102270
102270
102270
102270
102269
102269
102269
102269
102269
102269
102269
102269
102269
102268
102268
102268
102268
102268
102268
102268
102268
102268
102268
102268
102235
102235
102235
102235
102235
102235
102235
102234
102233
102233
102232
102231
102231
102230
102229
102229
102228
102227
102227
102226
102226
102225
102225
102224
102223
102223
102222
102222
102221
102221
102221
102220
102220
102219
102219
102218
102218
102218
102217
102217
102216
102216
102216
102215
102215
102215
102214
102214
102214
102214
102213
102213
102213
102213
102212
102212
102212
102212
102212
102211
102211
102211
102211
102211
102211
102210
102210
102210
102210
102210
102210
102210
102210
102210
102210
102209
102209
102209
102209
102209
102209
102209
102209
102209
102175
102175
102175
102175
102175
102175
102174
102174
102173
102172
102172
102171
102171
102170
102169
102169
102168
102168
102167
102167
102166
102166
102165
102165
102164
102164
102163
102163
102162
102162
102161
102161
102160
102160
102160
102159
102159
102158
102158
102158
102157
102157
102157
102156
102156
102156
102155
102155
102155
102155
102154
102154
102154
102154
102153
102153
102153
102153
102153
102152
102152
102152
102152
102152
102152
102152
102151
102151
102151
102151
102151
102151
102151
102151
102151
102151
102151
102150
102150
102150
102150
102150
102150
102150
102115
102115
102115
102115
102115
102115
102114
102113
102113
102112
102112
102111
102111
102110
102109
102109
102108
102108
102107
102107
102106
102106
102105
102105
102105
102104
102104
102103
102103
102102
102102
102102
102101
102101
102100
102100
102100
102099
102099
102099
102098
102098
102098
102097
102097
102097
102096
102096
102096
102096
102095
102095
102095
102095
102095
102094
102094
102094
102094
102094
102093
102093
102093
102093
102093
102093
102093
102092
102092
102092
102092
102092
102092
102092
102092
102092
102092
102092
102092
102092
102092
102091
102091
102091
102054
102054
102054
102054
102054
102054
102054
102053
102053
102052
102052
102051
102051
102050
102050
102049
102049
102048
102048
102047
102047
102046
102046
102045
102045
102045
102044
102044
102043
102043
102043
102042
102042
102041
102041
102041
102040
102040
102040
102039
102039
102039
102039
102038
102038
102038
102037
102037
102037
102037
102036
102036
102036
102036
102036
102035
102035
102035
102035
102035
102034
102034
102034
102034
102034
102034
102034
102034
102033
102033
102033
102033
102033
102033
102033
102033
102033
102033
102033
102033
102033
102033
102033
102033
101994
101994
101994
101994
101994
101994
101993
101993
101992
101992
101991
101991
101990
101990
101990
101989
101989
101988
101988
101988
101987
101987
101986
101986
101986
101985
101985
101984
101984
101984
101983
101983
101983
101982
101982
101982
101981
101981
101981
101980
101980
101980
101979
101979
101979
101979
101978
101978
101978
101978
101977
101977
101977
101977
101977
101976
101976
101976
101976
101976
101976
101975
101975
101975
101975
101975
101975
101975
101975
101974
101974
101974
101974
101974
101974
101974
101974
101974
101974
101974
101974
101974
101974
101974
101933
101933
101933
101933
101933
101933
101933
101932
101932
101932
101931
101931
101930
101930
101930
101929
101929
101929
101928
101928
101927
101927
101927
101926
101926
101926
101925
101925
101925
101924
101924
101924
101923
101923
101923
101922
101922
101922
101921
101921
101921
101921
101920
101920
101920
101920
101919
101919
101919
101919
101918
101918
101918
101918
101918
101917
101917
101917
101917
101917
101917
101916
101916
101916
101916
101916
101916
101916
101916
101916
101915
101915
101915
101915
101915
101915
101915
101915
101915
101915
101915
101915
101915
101915
101873
101873
101873
101873
101873
101873
101872
101872
101872
101871
101871
101871
101870
101870
101870
101869
101869
101869
101868
101868
101868
101867
101867
101867
101867
101866
101866
101866
101865
101865
101865
101864
101864
101864
101863
101863
101863
101863
101862
101862
101862
101861
101861
101861
101861
101861
101860
101860
101860
101860
101859
101859
101859
101859
101859
101858
101858
101858
101858
101858
101858
101858
101857
101857
101857
101857
101857
101857
101857
101857
101857
101856
101856
101856
101856
101856
101856
101856
101856
101856
101856
101856
101856
101856
101812
101812
101812
101812
101812
101812
101812
101812
101812
101811
101811
101811
101810
101810
101810
101810
101809
101809
101809
101808
101808
101808
101808
101807
101807
101807
101806
101806
101806
101806
101805
101805
101805
101804
101804
101804
101804
101803
101803
101803
101803
101802
101802
101802
101802
101801
101801
101801
101801
101801
101800
101800
101800
101800
101800
101799
101799
101799
101799
101799
101799
101799
101798
101798
101798
101798
101798
101798
101798
101798
101798
101798
101797
101797
101797
101797
101797
101797
101797
101797
101797
101797
101797
101797
101752
101752
101752
101752
101752
101752
101752
101751
101751
101751
101751
101751
101750
101750
101750
101750
101749
101749
101749
101749
101748
101748
101748
101748
101747
101747
101747
101747
101746
101746
101746
101746
101745
101745
101745
101745
101744
101744
101744
101744
101743
101743
101743
101743
101743
101742
101742
101742
101742
101742
101741
101741
101741
101741
101741
101740
101740
101740
101740
101740
101740
101740
101739
101739
101739
101739
101739
101739
101739
101739
101739
101739
101739
101738
101738
101738
101738
101738
101738
101738
101738
101738
101738
101738
101692
101692
101692
101692
101691
101691
101691
101691
101691
101691
101691
101691
101690
101690
101690
101690
101690
101689
101689
101689
101689
101689
101688
101688
101688
101688
101688
101687
101687
101687
101687
101686
101686
101686
101686
101685
101685
101685
101685
101685
101684
101684
101684
101684
101683
101683
101683
101683
101683
101683
101682
101682
101682
101682
101682
101681
101681
101681
101681
101681
101681
101681
101681
101680
101680
101680
101680
101680
101680
101680
101680
101680
101680
101680
101680
101679
101679
101679
101679
101679
101679
101679
101679
101679
101631
101631
101631
101631
101631
101631
101631
101631
101631
101631
101631
101630
101630
101630
101630
101630
101630
101630
101630
101629
101629
101629
101629
101629
101628
101628
101628
101628
101628
101627
101627
101627
101627
101627
101626
101626
101626
101626
101626
101625
101625
101625
101625
101625
101624
101624
101624
101624
101624
101623
101623
101623
101623
101623
101623
101622
101622
101622
101622
101622
101622
101622
101622
101621
101621
101621
101621
101621
101621
101621
101621
101621
101621
101621
101621
101621
101621
101620
101620
101620
101620
101620
101620
101620
101571
101571
101571
101571
101571
101571
101571
101571
101571
101570
101570
101570
101570
101570
101570
101570
101570
101570
101570
101570
101570
101569
101569
101569
101569
101569
101569
101568
101568
101568
101568
101568
101568
101567
101567
101567
101567
101567
101566
101566
101566
101566
101566
101565
101565
101565
101565
101565
101565
101564
101564
101564
101564
101564
101564
101563
101563
101563
101563
101563
101563
101563
101563
101563
101562
101562
101562
101562
101562
101562
101562
101562
101562
101562
101562
101562
101562
101562
101562
101562
101562
101561
101561
101561
101510
101510
101510
101510
101510
101510
101510
101510
101510
101510
101510
101510
101510
101510
101510
101510
101510
101510
101510
101510
101510
101510
101510
101510
101509
101509
101509
101509
101509
101509
101509
101508
101508
101508
101508
101508
101508
101507
101507
101507
101507
101507
101507
101506
101506
101506
101506
101506
101506
101505
101505
101505
101505
101505
101505
101504
101504
101504
101504
101504
101504
101504
101504
101504
101503
101503
101503
101503
101503
101503
101503
101503
101503
101503
101503
101503
101503
101503
101503
101503
101503
101503
101503
101503
101450
101450
101450
101450
101450
101450
101450
101450
101450
101450
101450
101450
101450
101450
101450
101450
101450
101450
101450
101450
101450
101450
101450
101450
101450
101450
101450
101450
101450
101449
101449
101449
101449
101449
101449
101449
101448
101448
101448
101448
101448
101448
101447
101447
101447
101447
101447
101447
101446
101446
101446
101446
101446
101446
101446
101445
101445
101445
101445
101445
101445
101445
101445
101445
101445
101444
101444
101444
101444
101444
101444
101444
101444
101444
101444
101444
101444
101444
101444
101444
101444
101444
101444
101444
101389
101389
101389
101389
101389
101389
101390
101390
101390
101390
101390
101390
101390
101390
101390
101391
101391
101391
101391
101391
101391
101391
101391
101391
101391
101390
101390
101390
101390
101390
101390
101390
101390
101390
101389
101389
101389
101389
101389
101389
101389
101388
101388
101388
101388
101388
101388
101388
101387
101387
101387
101387
101387
101387
101387
101386
101386
101386
101386
101386
101386
101386
101386
101386
101386
101385
101385
101385
101385
101385
101385
101385
101385
101385
101385
101385
101385
101385
101385
101385
101385
101385
101385
101385
101329
101329
101329
101329
101329
101329
101329
101329
101330
101330
101330
101330
101330
101330
101331
101331
101331
101331
101331
101331
101331
101331
101331
101331
101331
101331
101331
101331
101331
101331
101331
101331
101330
101330
101330
101330
101330
101330
101330
101330
101329
101329
101329
101329
101329
101329
101329
101328
101328
101328
101328
101328
101328
101328
101328
101327
101327
101327
101327
101327
101327
101327
101327
101327
101327
101327
101326
101326
101326
101326
101326
101326
101326
101326
101326
101326
101326
101326
101326
101326
101326
101326
101326
101326
101268
101268
101268
101269
101268
101268
101269
101269
101269
101270
101270
101270
101270
101271
101271
101271
101271
101271
101271
101271
101271
101272
101272
101272
101272
101272
101272
101272
101271
101271
101271
101271
101271
101271
101271
101271
101271
101271
101271
101270
101270
101270
101270
101270
101270
101270
101270
101269
101269
101269
101269
101269
101269
101269
101269
101268
101268
101268
101268
101268
101268
101268
101268
101268
101268
101268
101267
101267
101267
101267
101267
101267
101267
101267
101267
101267
101267
101267
101267
101267
101267
101267
101267
101267
101208
101208
101208
101208
101208
101208
101208
101209
101209
101209
101210
101210
101210
101211
101211
101211
101211
101212
101212
101212
101212
101212
101212
101212
101212
101212
101212
101212
101212
101212
101212
101212
101212
101212
101212
101212
101212
101211
101211
101211
101211
101211
101211
101211
101211
101211
101210
101210
101210
101210
101210
101210
101210
101210
101210
101209
101209
101209
101209
101209
101209
101209
101209
101209
101209
101209
101209
101208
101208
101208
101208
101208
101208
101208
101208
101208
101208
101208
101208
101208
101208
101208
101208
101208
101147
101147
101147
101147
101147
101147
101148
101148
101149
101149
101150
101150
101150
101151
101151
101151
101152
101152
101152
101152
101152
101152
101153
101153
101153
101153
101153
101153
101153
101153
101153
101153
101153
101153
101153
101152
101152
101152
101152
101152
101152
101152
101152
101152
101152
101151
101151
101151
101151
101151
101151
101151
101151
101151
101151
101150
101150
101150
101150
101150
101150
101150
101150
101150
101150
101150
101150
101149
101149
101149
101149
101149
101149
101149
101149
101149
101149
101149
101149
101149
101149
101149
101149
101149
101087
101087
101087
101087
101087
101087
101088
101088
101089
101089
101090
101090
101091
101091
101091
101092
101092
101092
101092
101093
101093
101093
101093
101093
101093
101093
101093
101093
101093
101093
101093
101093
101093
101093
101093
101093
101093
101093
101093
101093
101093
101093
101093
101093
101092
101092
101092
101092
101092
101092
101092
101092
101092
101092
101091
101091
101091
101091
101091
101091
101091
101091
101091
101091
101091
101091
101091
101091
101090
101090
101090
101090
101090
101090
101090
101090
101090
101090
101090
101090
101090
101090
101090
101090
101027
101027
101026
101027
101026
101027
101027
101028
101028
101029
101030
101030
101031
101031
101032
101032
101032
101033
101033
101033
101033
101034
101034
101034
101034
101034
101034
101034
101034
101034
101034
101034
101034
101034
101034
101034
101034
101034
101034
101034
101034
101034
101034
101033
101033
101033
101033
101033
101033
101033
101033
101033
101033
101033
101032
101032
101032
101032
101032
101032
101032
101032
101032
101032
101032
101032
101032
101032
101032
101031
101031
101031
101031
101031
101031
101031
101031
101031
101031
101031
101031
101031
101031
101031
100966
100966
100966
100966
100966
100966
100967
100968
100968
100969
100970
100970
100971
100971
100972
100972
100973
100973
100973
100974
100974
100974
100974
100974
100975
100975
100975
100975
100975
100975
100975
100975
100975
100975
100975
100975
100975
100975
100975
100975
100975
100974
100974
100974
100974
100974
100974
100974
100974
100974
100974
100974
100974
100973
100973
100973
100973
100973
100973
100973
100973
100973
100973
100973
100973
100973
100973
100973
100973
100972
100972
100972
100972
100972
100972
100972
100972
100972
100972
100972
100972
100972
100972
100972
100906
100906
100906
100906
100906
100906
100907
100907
100908
100909
100910
100910
100911
100912
100912
100913
100913
100913
100914
100914
100914
100915
100915
100915
100915
100915
100915
100915
100916
100916
100916
100916
100916
100916
100916
100916
100916
100916
100916
100915
100915
100915
100915
100915
100915
100915
100915
100915
100915
100915
100915
100915
100915
100914
100914
100914
100914
100914
100914
100914
100914
100914
100914
100914
100914
100914
100914
100914
100914
100914
100913
100913
100913
100913
100913
100913
100913
100913
100913
100913
100913
100913
100913
100913
100845
100845
100845
100845
100845
100845
100846
100847
100848
100849
100850
100851
100851
100852
100853
100853
100854
100854
100854
100855
100855
100855
100855
100856
100856
100856
100856
100856
100856
100856
100856
100856
100856
100856
100856
100856
100856
100856
100856
100856
100856
100856
100856
100856
100856
100856
100856
100856
100856
100856
100856
100856
100855
100855
100855
100855
100855
100855
100855
100855
100855
100855
100855
100855
100855
100855
100855
100855
100855
100855
100855