/*--------------------------------*- C++ -*----------------------------------*\
  =========                 |
  \\      /  F ield         | OpenFOAM: The Open Source CFD Toolbox
   \\    /   O peration     | Website:  https://openfoam.org
    \\  /    A nd           | Version:  6
     \\/     M anipulation  |
\*---------------------------------------------------------------------------*/
FoamFile
{
    version     2.0;
    format      ascii;
    class       surfaceScalarField;
    location    "30";
    object      phi;
}
// * * * * * * * * * * * * * * * * * * * * * * * * * * * * * * * * * * * * * //

dimensions      [0 3 -1 0 0 0 0];

internalField   nonuniform List<scalar> 
11773
(
-3.76082e-08
3.76082e-08
-4.04175e-08
2.77481e-09
1.73619e-08
-5.7807e-08
1.69103e-11
1.73184e-08
1.54308e-13
5.56219e-13
1.1508e-13
3.92283e-14
9.55397e-14
1.95253e-14
8.32645e-14
1.22291e-14
7.4443e-14
8.77281e-15
6.76005e-14
6.79608e-15
6.20389e-14
5.51815e-15
5.73738e-14
4.6249e-15
5.33702e-14
3.96648e-15
4.98745e-14
3.46177e-15
4.67807e-14
3.06281e-15
4.40133e-14
2.73947e-15
4.15164e-14
2.47188e-15
3.92479e-14
2.24644e-15
3.71752e-14
2.0535e-15
3.52727e-14
1.88586e-15
3.3521e-14
1.73774e-15
3.1906e-14
1.6033e-15
3.0397e-14
1.49961e-15
2.89852e-14
1.40441e-15
2.76621e-14
1.31757e-15
2.64197e-14
1.2385e-15
2.5251e-14
1.16639e-15
2.41494e-14
1.10047e-15
2.31094e-14
1.04005e-15
2.2126e-14
9.84516e-16
2.11946e-14
9.33343e-16
2.03111e-14
8.86081e-16
1.9472e-14
8.42337e-16
1.8674e-14
8.0177e-16
1.79141e-14
7.64082e-16
1.71896e-14
7.29012e-16
1.64981e-14
6.9633e-16
1.58372e-14
6.65833e-16
1.52051e-14
6.37339e-16
1.45996e-14
6.10689e-16
1.40192e-14
5.85737e-16
1.34622e-14
5.62355e-16
1.29272e-14
5.40426e-16
1.24127e-14
5.19844e-16
1.19175e-14
5.00514e-16
1.14404e-14
4.8235e-16
1.09803e-14
4.65272e-16
1.05363e-14
4.49208e-16
1.01072e-14
4.34093e-16
9.6923e-15
4.19866e-16
9.29068e-15
4.06471e-16
8.90156e-15
3.93858e-16
8.52422e-15
3.81981e-16
8.15795e-15
3.70795e-16
7.80211e-15
3.60261e-16
7.45608e-15
3.50343e-16
7.11927e-15
3.41006e-16
6.79114e-15
3.3222e-16
6.47117e-15
3.23955e-16
6.15887e-15
3.16184e-16
5.85377e-15
3.08883e-16
5.55542e-15
3.02029e-16
5.2634e-15
2.95601e-16
4.97732e-15
2.8958e-16
4.69678e-15
2.83946e-16
4.42141e-15
2.78684e-16
4.15087e-15
2.73778e-16
3.88482e-15
2.69215e-16
3.62293e-15
2.6498e-16
3.36488e-15
2.61063e-16
3.11039e-15
2.57452e-16
2.85914e-15
2.54137e-16
2.61087e-15
2.5111e-16
2.3653e-15
2.48362e-16
2.12215e-15
2.45887e-16
1.88117e-15
2.43677e-16
1.64211e-15
2.41728e-16
1.4047e-15
2.40035e-16
1.1687e-15
2.38595e-16
9.33863e-16
2.37408e-16
6.99934e-16
2.36481e-16
4.66629e-16
2.3584e-16
2.3357e-16
2.35582e-16
2.36086e-16
-2.84744e-08
6.60481e-08
-2.63801e-08
6.25641e-10
8.65059e-09
-9.28858e-08
1.67279e-11
2.59149e-08
9.46036e-14
4.35639e-12
9.7806e-14
3.60105e-14
8.91687e-14
2.8104e-14
8.02662e-14
2.1048e-14
7.27431e-14
1.62142e-14
6.65129e-14
1.29497e-14
6.12879e-14
1.06721e-14
5.68277e-14
9.01947e-15
5.2958e-14
7.77609e-15
4.95541e-14
6.81098e-15
4.65258e-14
6.04176e-15
4.38065e-14
5.4147e-15
4.13458e-14
4.89358e-15
3.9105e-14
4.45322e-15
3.70537e-14
4.07555e-15
3.51677e-14
3.74717e-15
3.34272e-14
3.4577e-15
3.18154e-14
3.19852e-15
3.03133e-14
2.98878e-15
2.89089e-14
2.79916e-15
2.75926e-14
2.62708e-15
2.63564e-14
2.4706e-15
2.5193e-14
2.3279e-15
2.40963e-14
2.1974e-15
2.30606e-14
2.0777e-15
2.2081e-14
1.9676e-15
2.1153e-14
1.86609e-15
2.02727e-14
1.77227e-15
1.94364e-14
1.68537e-15
1.86409e-14
1.60472e-15
1.78833e-14
1.52976e-15
1.71609e-14
1.45996e-15
1.64713e-14
1.39487e-15
1.58122e-14
1.3341e-15
1.51816e-14
1.27729e-15
1.45777e-14
1.22413e-15
1.39987e-14
1.17434e-15
1.34429e-14
1.12765e-15
1.29091e-14
1.08385e-15
1.23957e-14
1.04272e-15
1.19015e-14
1.00408e-15
1.14254e-14
9.67753e-16
1.09662e-14
9.33588e-16
1.0523e-14
9.0144e-16
1.00947e-14
8.71181e-16
9.68053e-15
8.42692e-16
9.27959e-15
8.15862e-16
8.89112e-15
7.90591e-16
8.51439e-15
7.66786e-16
8.14869e-15
7.44363e-16
7.79339e-15
7.23242e-16
7.44787e-15
7.03351e-16
7.11155e-15
6.84622e-16
6.78388e-15
6.66993e-16
6.46434e-15
6.50408e-16
6.15245e-15
6.34812e-16
5.84774e-15
6.20156e-16
5.54977e-15
6.06396e-16
5.25811e-15
5.93489e-16
4.97237e-15
5.81396e-16
4.69215e-15
5.70081e-16
4.4171e-15
5.59511e-16
4.14686e-15
5.49656e-16
3.8811e-15
5.40488e-16
3.61948e-15
5.3198e-16
3.36171e-15
5.2411e-16
3.10747e-15
5.16854e-16
2.85648e-15
5.10194e-16
2.60846e-15
5.04112e-16
2.36312e-15
4.98592e-16
2.12021e-15
4.93618e-16
1.87946e-15
4.89179e-16
1.64062e-15
4.85263e-16
1.40343e-15
4.81861e-16
1.16766e-15
4.78967e-16
9.33048e-16
4.76577e-16
6.9937e-16
4.74691e-16
4.66403e-16
4.7332e-16
2.34014e-16
4.72471e-16
4.72079e-16
-1.60775e-08
8.2098e-08
-1.60465e-08
5.46603e-10
-8.22355e-10
-1.08152e-07
1.47607e-11
2.50448e-08
1.03161e-13
6.57117e-12
9.09051e-14
4.82347e-14
8.3011e-14
3.59607e-14
7.60584e-14
2.79289e-14
6.9912e-14
2.22898e-14
6.45472e-14
1.8248e-14
5.98696e-14
1.52878e-14
5.57677e-14
1.30641e-14
5.21413e-14
1.135e-14
4.89084e-14
9.99603e-15
4.6004e-14
8.90293e-15
4.33769e-14
8.0032e-15
4.09863e-14
7.24996e-15
3.87998e-14
6.60985e-15
3.67911e-14
6.05858e-15
3.49385e-14
5.578e-15
3.32239e-14
5.15418e-15
3.16316e-14
4.7762e-15
3.01466e-14
4.46222e-15
2.87576e-14
4.17955e-15
2.74551e-14
3.9236e-15
2.62309e-14
3.69098e-15
2.50783e-14
3.47882e-15
2.39911e-14
3.2847e-15
2.29639e-14
3.10656e-15
2.19918e-14
2.94263e-15
2.10706e-14
2.79139e-15
2.01963e-14
2.65155e-15
1.93655e-14
2.52197e-15
1.8575e-14
2.40168e-15
1.7822e-14
2.28981e-15
1.71037e-14
2.18562e-15
1.64179e-14
2.08844e-15
1.57623e-14
1.99767e-15
1.51349e-14
1.91281e-15
1.45339e-14
1.83337e-15
1.39576e-14
1.75895e-15
1.34044e-14
1.68916e-15
1.28729e-14
1.62367e-15
1.23617e-14
1.56217e-15
1.18696e-14
1.50438e-15
1.13954e-14
1.45005e-15
1.0938e-14
1.39894e-15
1.04964e-14
1.35084e-15
1.00697e-14
1.30556e-15
9.65694e-15
1.26293e-15
9.25738e-15
1.22278e-15
8.8702e-15
1.18496e-15
8.49468e-15
1.14933e-15
8.13013e-15
1.11576e-15
7.77591e-15
1.08414e-15
7.43141e-15
1.05436e-15
7.09605e-15
1.02632e-15
6.7693e-15
9.99924e-16
6.45064e-15
9.75088e-16
6.13957e-15
9.51733e-16
5.83565e-15
9.29786e-16
5.53843e-15
9.09178e-16
5.24748e-15
8.89847e-16
4.96242e-15
8.71734e-16
4.68286e-15
8.54787e-16
4.40844e-15
8.38955e-16
4.1388e-15
8.24194e-16
3.87362e-15
8.1046e-16
3.61257e-15
7.97715e-16
3.35533e-15
7.85925e-16
3.10162e-15
7.75056e-16
2.85114e-15
7.65079e-16
2.60361e-15
7.55967e-16
2.35875e-15
7.47697e-16
2.11631e-15
7.40245e-16
1.87602e-15
7.33595e-16
1.63763e-15
7.27727e-16
1.40089e-15
7.22629e-16
1.16555e-15
7.18289e-16
9.31391e-16
7.14698e-16
6.98165e-16
7.1185e-16
4.65657e-16
7.09742e-16
2.3367e-16
7.08361e-16
7.07667e-16
-1.01265e-08
9.21979e-08
-1.01049e-08
4.77665e-10
-5.78677e-09
-1.12511e-07
1.25175e-11
1.9213e-08
8.0117e-14
6.62113e-12
8.01696e-14
4.81632e-14
7.59975e-14
4.00973e-14
7.11437e-14
3.27129e-14
6.63983e-14
2.6966e-14
6.19818e-14
2.25993e-14
5.79497e-14
1.92592e-14
5.42941e-14
1.66637e-14
5.09829e-14
1.46096e-14
4.79781e-14
1.29539e-14
4.52426e-14
1.1596e-14
4.27433e-14
1.04646e-14
4.04513e-14
9.50838e-15
3.8342e-14
8.68975e-15
3.63946e-14
7.98072e-15
3.45912e-14
7.36006e-15
3.29162e-14
6.81142e-15
3.1356e-14
6.32204e-15
2.98982e-14
5.90873e-15
2.85327e-14
5.53663e-15
2.72506e-14
5.19976e-15
2.60445e-14
4.89346e-15
2.49077e-14
4.61393e-15
2.38345e-14
4.35799e-15
2.28198e-14
4.12293e-15
2.18589e-14
3.90647e-15
2.09476e-14
3.70665e-15
2.00824e-14
3.52176e-15
1.92598e-14
3.35036e-15
1.84767e-14
3.19115e-15
1.77304e-14
3.04303e-15
1.70183e-14
2.90502e-15
1.63381e-14
2.77625e-15
1.56877e-14
2.65594e-15
1.50651e-14
2.54342e-15
1.44685e-14
2.43807e-15
1.38963e-14
2.33935e-15
1.33469e-14
2.24676e-15
1.28189e-14
2.15985e-15
1.23109e-14
2.07822e-15
1.18218e-14
2.00151e-15
1.13505e-14
1.92937e-15
1.08957e-14
1.8615e-15
1.04566e-14
1.79763e-15
1.00322e-14
1.73749e-15
9.62165e-15
1.68086e-15
9.22414e-15
1.62752e-15
8.83888e-15
1.57727e-15
8.46518e-15
1.52993e-15
8.10234e-15
1.48532e-15
7.74974e-15
1.4433e-15
7.40676e-15
1.40373e-15
7.07285e-15
1.36646e-15
6.74747e-15
1.33137e-15
6.43011e-15
1.29836e-15
6.12028e-15
1.26731e-15
5.81754e-15
1.23814e-15
5.52144e-15
1.21074e-15
5.23156e-15
1.18504e-15
4.94753e-15
1.16095e-15
4.66895e-15
1.13842e-15
4.39546e-15
1.11737e-15
4.12673e-15
1.09774e-15
3.86242e-15
1.07948e-15
3.6022e-15
1.06253e-15
3.34578e-15
1.04685e-15
3.09285e-15
1.03239e-15
2.84313e-15
1.01912e-15
2.59634e-15
1.007e-15
2.3522e-15
9.96004e-16
2.11046e-15
9.86093e-16
1.87086e-15
9.77247e-16
1.63315e-15
9.69441e-16
1.39707e-15
9.62657e-16
1.1624e-15
9.56879e-16
9.28888e-16
9.52094e-16
6.96311e-16
9.48288e-16
4.64443e-16
9.45453e-16
2.3306e-16
9.43575e-16
9.42634e-16
-9.19188e-09
1.01363e-07
-9.28999e-09
5.28564e-10
-7.49707e-09
-1.14346e-07
1.02702e-11
1.16735e-08
8.05576e-14
4.40265e-12
7.31325e-14
5.55766e-14
6.95531e-14
4.36417e-14
6.61346e-14
3.6062e-14
6.25992e-14
3.04325e-14
5.90826e-14
2.60511e-14
5.57032e-14
2.25782e-14
5.25218e-14
1.97893e-14
4.95594e-14
1.75207e-14
4.68151e-14
1.56514e-14
4.42777e-14
1.40912e-14
4.19313e-14
1.27732e-14
3.97593e-14
1.16469e-14
3.77456e-14
1.06743e-14
3.58751e-14
9.82609e-15
3.41342e-14
9.07969e-15
3.25106e-14
8.41742e-15
3.09929e-14
7.8254e-15
2.95712e-14
7.31929e-15
2.82366e-14
6.86285e-15
2.69814e-14
6.44911e-15
2.57988e-14
6.07249e-15
2.46828e-14
5.72839e-15
2.36279e-14
5.41299e-15
2.26295e-14
5.12303e-15
2.16832e-14
4.85576e-15
2.07852e-14
4.60882e-15
1.99318e-14
4.38017e-15
1.91199e-14
4.16805e-15
1.83465e-14
3.97091e-15
1.76091e-14
3.78739e-15
1.69051e-14
3.61632e-15
1.62324e-14
3.45662e-15
1.55888e-14
3.30737e-15
1.49725e-14
3.16773e-15
1.43817e-14
3.03695e-15
1.38149e-14
2.91436e-15
1.32705e-14
2.79935e-15
1.27471e-14
2.69138e-15
1.22435e-14
2.58994e-15
1.17584e-14
2.49459e-15
1.12908e-14
2.40491e-15
1.08396e-14
2.32053e-15
1.04037e-14
2.2411e-15
9.98243e-15
2.16631e-15
9.57477e-15
2.09587e-15
9.17997e-15
2.02952e-15
8.79727e-15
1.967e-15
8.42598e-15
1.90809e-15
8.06541e-15
1.85259e-15
7.71495e-15
1.8003e-15
7.37401e-15
1.75104e-15
7.04202e-15
1.70465e-15
6.71846e-15
1.66097e-15
6.40282e-15
1.61988e-15
6.09464e-15
1.58122e-15
5.79346e-15
1.5449e-15
5.49885e-15
1.51078e-15
5.2104e-15
1.47878e-15
4.92772e-15
1.44879e-15
4.65044e-15
1.42073e-15
4.37821e-15
1.39451e-15
4.11068e-15
1.37006e-15
3.84752e-15
1.34732e-15
3.58842e-15
1.3262e-15
3.33307e-15
1.30667e-15
3.08119e-15
1.28867e-15
2.83248e-15
1.27214e-15
2.58667e-15
1.25704e-15
2.34349e-15
1.24334e-15
2.10269e-15
1.23099e-15
1.864e-15
1.21997e-15
1.62718e-15
1.21024e-15
1.39199e-15
1.20179e-15
1.15819e-15
1.19458e-15
9.25544e-16
1.18861e-15
6.9382e-16
1.18386e-15
4.62792e-16
1.18031e-15
2.32234e-16
1.17795e-15
1.17677e-15
-8.83281e-09
1.1017e-07
-9.26074e-09
9.09564e-10
-6.70342e-09
-1.16945e-07
8.80865e-12
4.92919e-09
5.59178e-14
5.4938e-13
6.26913e-14
4.88021e-14
6.29359e-14
4.33509e-14
6.12282e-14
3.76998e-14
5.87872e-14
3.2805e-14
5.60669e-14
2.87069e-14
5.32867e-14
2.52984e-14
5.05611e-14
2.24594e-14
4.79482e-14
2.00826e-14
4.54745e-14
1.80785e-14
4.31487e-14
1.6375e-14
4.09699e-14
1.49144e-14
3.89321e-14
1.36515e-14
3.70269e-14
1.25504e-14
3.52451e-14
1.15829e-14
3.35774e-14
1.07262e-14
3.20147e-14
9.96255e-15
3.05481e-14
9.2777e-15
2.917e-14
8.68633e-15
2.78729e-14
8.1516e-15
2.66504e-14
7.66591e-15
2.54964e-14
7.22301e-15
2.44055e-14
6.81772e-15
2.33731e-14
6.44569e-15
2.23946e-14
6.10324e-15
2.14662e-14
5.78724e-15
2.05842e-14
5.49498e-15
1.97453e-14
5.22412e-15
1.89466e-14
4.97263e-15
1.81852e-14
4.73873e-15
1.74587e-14
4.52086e-15
1.67647e-14
4.31764e-15
1.61012e-14
4.12784e-15
1.54661e-14
3.95038e-15
1.48576e-14
3.78427e-15
1.4274e-14
3.62864e-15
1.37138e-14
3.48271e-15
1.31756e-14
3.34576e-15
1.2658e-14
3.21715e-15
1.21597e-14
3.0963e-15
1.16796e-14
2.98267e-15
1.12166e-14
2.87578e-15
1.07698e-14
2.77519e-15
1.0338e-14
2.68048e-15
9.92052e-15
2.5913e-15
9.51645e-15
2.50728e-15
9.12502e-15
2.42812e-15
8.7455e-15
2.35353e-15
8.37719e-15
2.28325e-15
8.01945e-15
2.21701e-15
7.67166e-15
2.1546e-15
7.33323e-15
2.09581e-15
7.00363e-15
2.04043e-15
6.68234e-15
1.98829e-15
6.36885e-15
1.93923e-15
6.06271e-15
1.89308e-15
5.76347e-15
1.8497e-15
5.47072e-15
1.80896e-15
5.18404e-15
1.77074e-15
4.90306e-15
1.73492e-15
4.6274e-15
1.7014e-15
4.35672e-15
1.67008e-15
4.09069e-15
1.64088e-15
3.82897e-15
1.6137e-15
3.57125e-15
1.58848e-15
3.31725e-15
1.56515e-15
3.06666e-15
1.54363e-15
2.81921e-15
1.52388e-15
2.57462e-15
1.50584e-15
2.33264e-15
1.48946e-15
2.093e-15
1.47471e-15
1.85545e-15
1.46153e-15
1.61975e-15
1.44991e-15
1.38566e-15
1.4398e-15
1.15294e-15
1.43119e-15
9.21366e-16
1.42405e-15
6.907e-16
1.41836e-15
4.60719e-16
1.4141e-15
2.31197e-16
1.41128e-15
1.40986e-15
-8.64783e-09
1.18792e-07
-9.22382e-09
1.43891e-09
-5.32849e-09
-1.20881e-07
1.27646e-11
-4.43905e-10
5.7039e-14
5.3181e-13
5.79446e-14
4.78843e-14
5.80121e-14
4.32359e-14
5.6967e-14
3.86752e-14
5.52241e-14
3.44799e-14
5.31079e-14
3.0759e-14
5.08263e-14
2.75203e-14
4.85053e-14
2.47252e-14
4.62186e-14
2.23185e-14
4.40078e-14
2.0243e-14
4.18945e-14
1.84464e-14
3.98884e-14
1.68831e-14
3.79919e-14
1.55149e-14
3.62031e-14
1.43102e-14
3.45181e-14
1.3243e-14
3.29313e-14
1.22919e-14
3.14369e-14
1.14395e-14
3.00284e-14
1.06721e-14
2.87e-14
1.00037e-14
2.74461e-14
9.39735e-15
2.62611e-14
8.8452e-15
2.51402e-14
8.34057e-15
2.40786e-14
7.8779e-15
2.30721e-14
7.45248e-15
2.21169e-14
7.06031e-15
2.12093e-14
6.69794e-15
2.03461e-14
6.36239e-15
1.95243e-14
6.0511e-15
1.8741e-14
5.7618e-15
1.79937e-14
5.49252e-15
1.72801e-14
5.2415e-15
1.65979e-14
5.0072e-15
1.59452e-14
4.78825e-15
1.53201e-14
4.58342e-15
1.47208e-14
4.39161e-15
1.41457e-14
4.21182e-15
1.35935e-14
4.04317e-15
1.30626e-14
3.88484e-15
1.25518e-14
3.73611e-15
1.20598e-14
3.59631e-15
1.15857e-14
3.46483e-15
1.11282e-14
3.34111e-15
1.06865e-14
3.22466e-15
1.02596e-14
3.115e-15
9.84668e-15
3.01171e-15
9.44688e-15
2.9144e-15
9.05947e-15
2.82269e-15
8.68372e-15
2.73627e-15
8.31898e-15
2.65482e-15
7.9646e-15
2.57805e-15
7.61998e-15
2.50571e-15
7.28456e-15
2.43755e-15
6.95781e-15
2.37335e-15
6.63921e-15
2.31289e-15
6.32829e-15
2.25599e-15
6.02459e-15
2.20247e-15
5.72767e-15
2.15216e-15
5.43712e-15
2.1049e-15
5.15256e-15
2.06056e-15
4.8736e-15
2.01901e-15
4.59988e-15
1.98012e-15
4.33105e-15
1.94378e-15
4.0668e-15
1.90989e-15
3.8068e-15
1.87835e-15
3.55074e-15
1.84908e-15
3.29834e-15
1.822e-15
3.0493e-15
1.79703e-15
2.80335e-15
1.7741e-15
2.56023e-15
1.75316e-15
2.31967e-15
1.73415e-15
2.08142e-15
1.71702e-15
1.84523e-15
1.70173e-15
1.61087e-15
1.68823e-15
1.37809e-15
1.67649e-15
1.14667e-15
1.66649e-15
9.16366e-16
1.65819e-15
6.86962e-16
1.65158e-15
4.58232e-16
1.64664e-15
2.29953e-16
1.64335e-15
1.6417e-15
-7.92342e-09
1.26689e-07
-8.58985e-09
2.05884e-09
-4.11996e-09
-1.25393e-07
1.28709e-11
-4.60848e-09
5.31629e-14
5.28875e-13
5.39025e-14
4.71318e-14
5.40463e-14
4.30446e-14
5.33206e-14
3.93318e-14
5.19924e-14
3.57407e-14
5.02982e-14
3.23898e-14
4.84047e-14
2.93545e-14
4.64233e-14
2.66517e-14
4.44263e-14
2.4265e-14
4.24593e-14
2.2164e-14
4.055e-14
2.0314e-14
3.87144e-14
1.86814e-14
3.69606e-14
1.72357e-14
3.52918e-14
1.59502e-14
3.37081e-14
1.48019e-14
3.22073e-14
1.37717e-14
3.07863e-14
1.28431e-14
2.94409e-14
1.20036e-14
2.81671e-14
1.12665e-14
2.69608e-14
1.05956e-14
2.58176e-14
9.98281e-15
2.47335e-14
9.42135e-15
2.37047e-14
8.90544e-15
2.27274e-14
8.43015e-15
2.17984e-14
7.99127e-15
2.09144e-14
7.58514e-15
2.00725e-14
7.20858e-15
1.927e-14
6.85883e-15
1.85043e-14
6.53345e-15
1.77731e-14
6.23031e-15
1.70742e-14
5.94749e-15
1.64055e-14
5.68332e-15
1.57652e-14
5.43629e-15
1.51515e-14
5.20505e-15
1.45628e-14
4.9884e-15
1.39975e-14
4.78522e-15
1.34543e-14
4.59455e-15
1.29318e-14
4.41549e-15
1.24289e-14
4.24721e-15
1.19443e-14
4.08899e-15
1.14769e-14
3.94014e-15
1.10259e-14
3.80005e-15
1.05901e-14
3.66814e-15
1.01688e-14
3.5439e-15
9.76115e-15
3.42686e-15
9.36628e-15
3.31656e-15
8.98351e-15
3.2126e-15
8.61214e-15
3.11461e-15
8.25151e-15
3.02224e-15
7.90102e-15
2.93518e-15
7.56008e-15
2.85312e-15
7.22813e-15
2.77579e-15
6.90467e-15
2.70295e-15
6.5892e-15
2.63434e-15
6.28125e-15
2.56977e-15
5.98037e-15
2.50902e-15
5.68614e-15
2.4519e-15
5.39815e-15
2.39826e-15
5.11604e-15
2.34792e-15
4.83941e-15
2.30073e-15
4.56794e-15
2.25657e-15
4.30127e-15
2.2153e-15
4.03909e-15
2.17681e-15
3.78108e-15
2.14099e-15
3.52694e-15
2.10775e-15
3.27639e-15
2.07698e-15
3.02915e-15
2.04861e-15
2.78495e-15
2.02257e-15
2.54352e-15
1.99877e-15
2.30461e-15
1.97717e-15
2.06798e-15
1.95771e-15
1.83337e-15
1.94032e-15
1.60056e-15
1.92498e-15
1.3693e-15
1.91164e-15
1.13937e-15
1.90027e-15
9.10555e-16
1.89084e-15
6.82617e-16
1.88332e-15
4.5534e-16
1.8777e-15
2.28505e-16
1.87396e-15
1.87208e-15
-7.2754e-09
1.33938e-07
-7.90224e-09
2.63932e-09
-3.83985e-09
-1.29497e-07
1.40346e-11
-8.49397e-09
4.60943e-14
1.63154e-12
5.03548e-14
4.28583e-14
5.08264e-14
4.25258e-14
5.02055e-14
3.9884e-14
4.90864e-14
3.67931e-14
4.76675e-14
3.37457e-14
4.60643e-14
3.08989e-14
4.43592e-14
2.83023e-14
4.26117e-14
2.59623e-14
4.0864e-14
2.38659e-14
3.91446e-14
2.1992e-14
3.74721e-14
2.03168e-14
3.58582e-14
1.88168e-14
3.43093e-14
1.74704e-14
3.28284e-14
1.62581e-14
3.14163e-14
1.51629e-14
3.00719e-14
1.41702e-14
2.87931e-14
1.32685e-14
2.75775e-14
1.24713e-14
2.64222e-14
1.17429e-14
2.53241e-14
1.10754e-14
2.42801e-14
1.04622e-14
2.32869e-14
9.89737e-15
2.23417e-14
9.37594e-15
2.14414e-14
8.89356e-15
2.05835e-14
8.44645e-15
1.97651e-14
8.03131e-15
1.8984e-14
7.64522e-15
1.82379e-14
7.28564e-15
1.75245e-14
6.95029e-15
1.6842e-14
6.63715e-15
1.61884e-14
6.34442e-15
1.55619e-14
6.07049e-15
1.49611e-14
5.8139e-15
1.43842e-14
5.57335e-15
1.38299e-14
5.34766e-15
1.32969e-14
5.13575e-15
1.27839e-14
4.93665e-15
1.22898e-14
4.74948e-15
1.18135e-14
4.57342e-15
1.13538e-14
4.40774e-15
1.09099e-14
4.25176e-15
1.04809e-14
4.10486e-15
1.0066e-14
3.96646e-15
9.6642e-15
3.83604e-15
9.27491e-15
3.71312e-15
8.89739e-15
3.59723e-15
8.53095e-15
3.48798e-15
8.17499e-15
3.38498e-15
7.8289e-15
3.28788e-15
7.49211e-15
3.19634e-15
7.16411e-15
3.11007e-15
6.84438e-15
3.02879e-15
6.53244e-15
2.95223e-15
6.22785e-15
2.88015e-15
5.93017e-15
2.81234e-15
5.63899e-15
2.74858e-15
5.35391e-15
2.68868e-15
5.07457e-15
2.63247e-15
4.8006e-15
2.57978e-15
4.53167e-15
2.53046e-15
4.26744e-15
2.48436e-15
4.0076e-15
2.44137e-15
3.75185e-15
2.40135e-15
3.4999e-15
2.36421e-15
3.25146e-15
2.32983e-15
3.00626e-15
2.29813e-15
2.76404e-15
2.26903e-15
2.52454e-15
2.24244e-15
2.28751e-15
2.21829e-15
2.0527e-15
2.19654e-15
1.81989e-15
2.17711e-15
1.58883e-15
2.15996e-15
1.35931e-15
2.14505e-15
1.13108e-15
2.13234e-15
9.03947e-16
2.12179e-15
6.77674e-16
2.11338e-15
4.5205e-16
2.10709e-15
2.26859e-16
2.10291e-15
2.10081e-15
-6.07464e-09
1.39987e-07
-7.25357e-09
3.77208e-09
-4.09226e-09
-1.327e-07
1.36915e-11
-1.26314e-08
5.54686e-14
2.40435e-12
5.01105e-14
4.82023e-14
4.85495e-14
4.405e-14
4.75311e-14
4.08351e-14
4.64477e-14
3.78105e-14
4.52028e-14
3.49283e-14
4.38175e-14
3.22258e-14
4.23361e-14
2.97295e-14
4.08012e-14
2.74473e-14
3.92476e-14
2.5374e-14
3.77016e-14
2.34968e-14
3.61822e-14
2.17993e-14
3.47022e-14
2.0264e-14
3.32704e-14
1.88737e-14
3.18917e-14
1.76122e-14
3.05688e-14
1.64651e-14
2.93026e-14
1.54192e-14
2.80923e-14
1.44649e-14
2.69373e-14
1.36156e-14
2.58356e-14
1.28366e-14
2.47852e-14
1.21205e-14
2.37836e-14
1.14606e-14
2.28286e-14
1.08513e-14
2.19177e-14
1.02875e-14
2.10485e-14
9.76496e-15
2.02186e-14
9.27977e-15
1.94258e-14
8.82858e-15
1.8668e-14
8.40842e-15
1.79432e-14
8.01662e-15
1.72493e-14
7.65083e-15
1.65847e-14
7.30894e-15
1.59476e-14
6.98905e-15
1.53364e-14
6.68948e-15
1.47496e-14
6.40868e-15
1.41858e-14
6.14527e-15
1.36437e-14
5.89798e-15
1.31219e-14
5.66568e-15
1.26194e-14
5.44733e-15
1.21351e-14
5.24196e-15
1.16678e-14
5.04872e-15
1.12167e-14
4.86681e-15
1.07808e-14
4.69548e-15
1.03593e-14
4.53408e-15
9.95134e-15
4.38198e-15
9.55616e-15
4.23862e-15
9.17306e-15
4.10345e-15
8.80136e-15
3.97601e-15
8.44043e-15
3.85583e-15
8.08964e-15
3.7425e-15
7.74844e-15
3.63565e-15
7.41629e-15
3.5349e-15
7.09267e-15
3.43993e-15
6.77709e-15
3.35044e-15
6.4691e-15
3.26614e-15
6.16825e-15
3.18676e-15
5.87413e-15
3.11207e-15
5.58634e-15
3.04183e-15
5.3045e-15
2.97584e-15
5.02826e-15
2.9139e-15
4.75725e-15
2.85583e-15
4.49116e-15
2.80148e-15
4.22965e-15
2.75067e-15
3.97243e-15
2.70328e-15
3.71921e-15
2.65916e-15
3.46969e-15
2.61821e-15
3.2236e-15
2.5803e-15
2.98068e-15
2.54535e-15
2.74067e-15
2.51325e-15
2.50332e-15
2.48393e-15
2.26838e-15
2.4573e-15
2.03563e-15
2.4333e-15
1.80482e-15
2.41187e-15
1.57573e-15
2.39295e-15
1.34813e-15
2.3765e-15
1.12181e-15
2.36247e-15
8.96557e-16
2.35084e-15
6.72147e-16
2.34156e-15
4.4837e-16
2.33462e-15
2.25017e-16
2.33e-15
2.32768e-15
-5.36525e-09
1.45327e-07
-5.80287e-09
4.1637e-09
-3.52082e-09
-1.35024e-07
1.28009e-11
-1.61966e-08
4.65629e-14
2.21356e-12
4.65123e-14
4.82487e-14
4.57707e-14
4.47554e-14
4.4916e-14
4.16232e-14
4.39549e-14
3.87062e-14
4.28654e-14
3.5956e-14
4.16591e-14
3.33742e-14
4.03641e-14
3.09708e-14
3.90111e-14
2.87506e-14
3.76285e-14
2.67113e-14
3.62392e-14
2.48451e-14
3.48611e-14
2.31406e-14
3.35076e-14
2.1585e-14
3.21882e-14
2.01647e-14
3.09091e-14
1.88668e-14
2.96745e-14
1.7679e-14
2.84866e-14
1.659e-14
2.73459e-14
1.5592e-14
2.62526e-14
1.46982e-14
2.52062e-14
1.38753e-14
2.42052e-14
1.31163e-14
2.32481e-14
1.24147e-14
2.23331e-14
1.17653e-14
2.14584e-14
1.1163e-14
2.0622e-14
1.06036e-14
1.9822e-14
1.00833e-14
1.90565e-14
9.5987e-15
1.83237e-14
9.14677e-15
1.76217e-14
8.72482e-15
1.69488e-14
8.33043e-15
1.63036e-14
7.96144e-15
1.56843e-14
7.61589e-15
1.50896e-14
7.29201e-15
1.45181e-14
6.98821e-15
1.39685e-14
6.70303e-15
1.34395e-14
6.43515e-15
1.293e-14
6.18337e-15
1.24389e-14
5.94658e-15
1.19652e-14
5.72379e-15
1.15079e-14
5.51406e-15
1.10661e-14
5.31654e-15
1.0639e-14
5.13046e-15
1.02256e-14
4.9551e-15
9.82533e-15
4.7898e-15
9.43737e-15
4.63395e-15
9.06105e-15
4.48697e-15
8.69574e-15
4.34836e-15
8.34082e-15
4.21762e-15
7.99573e-15
4.09431e-15
7.6599e-15
3.97801e-15
7.33282e-15
3.86834e-15
7.01401e-15
3.76495e-15
6.703e-15
3.6675e-15
6.39933e-15
3.57568e-15
6.1026e-15
3.48922e-15
5.8124e-15
3.40784e-15
5.52834e-15
3.33131e-15
5.25007e-15
3.2594e-15
4.97722e-15
3.19189e-15
4.70947e-15
3.1286e-15
4.4465e-15
3.06934e-15
4.188e-15
3.01395e-15
3.93366e-15
2.96227e-15
3.68321e-15
2.91417e-15
3.43637e-15
2.8695e-15
3.19288e-15
2.82816e-15
2.95247e-15
2.79003e-15
2.7149e-15
2.75502e-15
2.47991e-15
2.72302e-15
2.24729e-15
2.69397e-15
2.01679e-15
2.66778e-15
1.78819e-15
2.6444e-15
1.56127e-15
2.62375e-15
1.3358e-15
2.6058e-15
1.11159e-15
2.59049e-15
8.88403e-16
2.57779e-15
6.66047e-16
2.56766e-15
4.44309e-16
2.56008e-15
2.22984e-16
2.55504e-15
2.55251e-15
-4.90066e-09
1.50202e-07
-5.42681e-09
4.64397e-09
-4.23312e-09
-1.3626e-07
1.29661e-11
-2.04742e-08
4.34646e-14
2.11926e-12
4.34946e-14
4.82143e-14
4.30657e-14
4.51484e-14
4.23963e-14
4.22267e-14
4.15787e-14
3.9459e-14
4.06345e-14
3.68389e-14
3.95828e-14
3.43685e-14
3.84467e-14
3.20534e-14
3.7251e-14
2.9897e-14
3.6019e-14
2.78984e-14
3.47705e-14
2.60528e-14
3.35221e-14
2.43525e-14
3.22867e-14
2.2788e-14
3.10739e-14
2.13492e-14
2.98908e-14
2.00255e-14
2.87424e-14
1.88069e-14
2.76317e-14
1.76837e-14
2.65603e-14
1.66498e-14
2.55294e-14
1.57187e-14
2.4539e-14
1.48581e-14
2.35886e-14
1.40615e-14
2.26773e-14
1.33232e-14
2.18038e-14
1.26379e-14
2.09668e-14
1.20009e-14
2.01647e-14
1.14081e-14
1.93961e-14
1.08556e-14
1.86593e-14
1.03402e-14
1.79528e-14
9.85887e-15
1.7275e-14
9.40888e-15
1.66245e-14
8.98779e-15
1.59999e-14
8.59341e-15
1.53997e-14
8.22373e-15
1.48226e-14
7.87694e-15
1.42675e-14
7.55141e-15
1.3733e-14
7.24561e-15
1.32182e-14
6.95819e-15
1.27219e-14
6.68788e-15
1.22431e-14
6.43354e-15
1.17809e-14
6.19412e-15
1.13344e-14
5.96863e-15
1.09026e-14
5.7562e-15
1.04849e-14
5.55599e-15
1.00803e-14
5.36725e-15
9.68835e-15
5.18928e-15
9.30819e-15
5.02144e-15
8.93922e-15
4.86311e-15
8.58083e-15
4.71375e-15
8.23245e-15
4.57284e-15
7.89351e-15
4.4399e-15
7.56351e-15
4.3145e-15
7.24195e-15
4.19623e-15
6.92836e-15
4.0847e-15
6.6223e-15
3.97956e-15
6.32334e-15
3.88048e-15
6.03108e-15
3.78716e-15
5.74513e-15
3.69933e-15
5.46514e-15
3.6167e-15
5.19074e-15
3.53905e-15
4.92159e-15
3.46615e-15
4.65739e-15
3.39779e-15
4.39782e-15
3.33378e-15
4.14258e-15
3.27394e-15
3.89138e-15
3.2181e-15
3.64396e-15
3.16612e-15
3.40004e-15
3.11785e-15
3.15937e-15
3.07316e-15
2.92169e-15
3.03195e-15
2.68678e-15
2.99409e-15
2.45438e-15
2.95951e-15
2.22428e-15
2.9281e-15
1.99624e-15
2.89978e-15
1.77004e-15
2.87449e-15
1.54549e-15
2.85217e-15
1.32235e-15
2.83275e-15
1.10042e-15
2.81619e-15
8.79502e-16
2.80245e-15
6.59388e-16
2.79149e-15
4.39875e-16
2.7833e-15
2.20764e-16
2.77784e-15
2.77511e-15
-6.54814e-09
1.56725e-07
-5.72032e-09
3.77039e-09
-4.60967e-09
-1.37412e-07
1.30485e-11
-2.51281e-08
4.08527e-14
2.06723e-12
4.08531e-14
4.82095e-14
4.05465e-14
4.54192e-14
4.00086e-14
4.26991e-14
3.93173e-14
4.00862e-14
3.85019e-14
3.75935e-14
3.75843e-14
3.52292e-14
3.65855e-14
3.29991e-14
3.55267e-14
3.09068e-14
3.44276e-14
2.89527e-14
3.33055e-14
2.71342e-14
3.21754e-14
2.54462e-14
3.10493e-14
2.38819e-14
2.99369e-14
2.24335e-14
2.88453e-14
2.10929e-14
2.77801e-14
1.98517e-14
2.67449e-14
1.87021e-14
2.57419e-14
1.76393e-14
2.4773e-14
1.66772e-14
2.38389e-14
1.57846e-14
2.29397e-14
1.49558e-14
2.2075e-14
1.41853e-14
2.12439e-14
1.34682e-14
2.04457e-14
1.28002e-14
1.96792e-14
1.21771e-14
1.89431e-14
1.15955e-14
1.82363e-14
1.10519e-14
1.75573e-14
1.05435e-14
1.69049e-14
1.00676e-14
1.62779e-14
9.62177e-15
1.5675e-14
9.20373e-15
1.50949e-14
8.8115e-15
1.45365e-14
8.44325e-15
1.39987e-14
8.09728e-15
1.34804e-14
7.77207e-15
1.29806e-14
7.46619e-15
1.24984e-14
7.17836e-15
1.20327e-14
6.90739e-15
1.15827e-14
6.65218e-15
1.11476e-14
6.41172e-15
1.07266e-14
6.18509e-15
1.0319e-14
5.97141e-15
9.92392e-15
5.76991e-15
9.54082e-15
5.57984e-15
9.16903e-15
5.40052e-15
8.80795e-15
5.23132e-15
8.45699e-15
5.07166e-15
8.11561e-15
4.921e-15
7.7833e-15
4.77884e-15
7.45956e-15
4.64469e-15
7.14392e-15
4.51815e-15
6.83595e-15
4.39879e-15
6.53522e-15
4.28625e-15
6.24132e-15
4.18018e-15
5.95388e-15
4.08026e-15
5.67252e-15
3.98618e-15
5.39689e-15
3.89768e-15
5.12666e-15
3.81449e-15
4.86151e-15
3.73638e-15
4.60113e-15
3.66312e-15
4.34522e-15
3.59451e-15
4.0935e-15
3.53037e-15
3.84569e-15
3.4705e-15
3.60153e-15
3.41477e-15
3.36077e-15
3.363e-15
3.12314e-15
3.31508e-15
2.88843e-15
3.27088e-15
2.65638e-15
3.23027e-15
2.42677e-15
3.19317e-15
2.19939e-15
3.15947e-15
1.97401e-15
3.12909e-15
1.75042e-15
3.10195e-15
1.52842e-15
3.07799e-15
1.30779e-15
3.05715e-15
1.08835e-15
3.03938e-15
8.69875e-16
3.02464e-15
6.52184e-16
3.01288e-15
4.35078e-16
3.00408e-15
2.18363e-16
2.99822e-15
2.99529e-15
-6.42967e-09
1.63129e-07
-6.75033e-09
4.0455e-09
-5.48892e-09
-1.38716e-07
1.30916e-11
-3.06611e-08
3.84835e-14
2.03821e-12
3.84539e-14
4.82347e-14
3.82048e-14
4.56329e-14
3.77573e-14
4.30817e-14
3.71685e-14
4.06114e-14
3.64629e-14
3.82389e-14
3.56607e-14
3.59748e-14
3.47809e-14
3.38262e-14
3.38417e-14
3.17973e-14
3.286e-14
2.98898e-14
3.18513e-14
2.81026e-14
3.08287e-14
2.64325e-14
2.98035e-14
2.48749e-14
2.87849e-14
2.34241e-14
2.778e-14
2.20736e-14
2.67944e-14
2.08169e-14
2.58323e-14
1.96474e-14
2.48962e-14
1.8562e-14
2.39886e-14
1.75746e-14
2.31105e-14
1.66553e-14
2.22625e-14
1.57989e-14
2.14447e-14
1.50006e-14
2.06568e-14
1.42556e-14
1.98981e-14
1.356e-14
1.9168e-14
1.291e-14
1.84654e-14
1.23019e-14
1.77894e-14
1.17328e-14
1.7139e-14
1.11998e-14
1.65131e-14
1.07001e-14
1.59105e-14
1.02314e-14
1.53302e-14
9.79144e-15
1.47712e-14
9.37827e-15
1.42324e-14
8.99001e-15
1.37129e-14
8.62495e-15
1.32116e-14
8.28154e-15
1.27277e-14
7.95834e-15
1.22602e-14
7.65403e-15
1.18084e-14
7.36738e-15
1.13714e-14
7.09726e-15
1.09484e-14
6.84264e-15
1.05388e-14
6.60255e-15
1.01419e-14
6.37611e-15
9.75687e-15
6.16248e-15
9.38322e-15
5.9609e-15
9.02033e-15
5.77066e-15
8.66762e-15
5.59111e-15
8.32457e-15
5.42163e-15
7.99066e-15
5.26166e-15
7.6654e-15
5.11067e-15
7.34833e-15
4.96816e-15
7.03902e-15
4.83369e-15
6.73704e-15
4.70684e-15
6.44199e-15
4.5872e-15
6.1535e-15
4.47443e-15
5.8712e-15
4.36816e-15
5.59473e-15
4.2681e-15
5.32378e-15
4.17395e-15
5.05801e-15
4.08543e-15
4.79712e-15
4.0023e-15
4.54083e-15
3.92433e-15
4.28884e-15
3.85129e-15
4.04089e-15
3.78299e-15
3.7967e-15
3.71925e-15
3.55604e-15
3.65989e-15
3.31865e-15
3.60475e-15
3.08429e-15
3.55371e-15
2.85274e-15
3.50661e-15
2.62377e-15
3.46335e-15
2.39715e-15
3.42381e-15
2.17269e-15
3.38789e-15
1.95016e-15
3.35551e-15
1.72937e-15
3.32659e-15
1.5101e-15
3.30105e-15
1.29217e-15
3.27884e-15
1.07538e-15
3.25989e-15
8.5954e-16
3.24417e-15
6.44452e-16
3.23163e-15
4.29929e-16
3.22225e-15
2.15785e-16
3.216e-15
3.21288e-15
-6.27197e-09
1.69376e-07
-8.33529e-09
6.06355e-09
-6.70417e-09
-1.40389e-07
1.3141e-11
-3.74091e-08
3.62534e-14
2.0215e-12
3.62205e-14
4.82632e-14
3.60118e-14
4.58064e-14
3.56317e-14
4.33977e-14
3.51255e-14
4.10547e-14
3.45122e-14
3.87925e-14
3.38089e-14
3.66219e-14
3.30321e-14
3.45506e-14
3.21976e-14
3.25835e-14
3.132e-14
3.0723e-14
3.04128e-14
2.89695e-14
2.94879e-14
2.73213e-14
2.85555e-14
2.57753e-14
2.76242e-14
2.43275e-14
2.67009e-14
2.29729e-14
2.57912e-14
2.17064e-14
2.48994e-14
2.05226e-14
2.40283e-14
1.94199e-14
2.31806e-14
1.84121e-14
2.23578e-14
1.74708e-14
2.15608e-14
1.65913e-14
2.079e-14
1.5769e-14
2.00454e-14
1.49998e-14
1.93268e-14
1.428e-14
1.86336e-14
1.3606e-14
1.79652e-14
1.29744e-14
1.73209e-14
1.23822e-14
1.66998e-14
1.18268e-14
1.61011e-14
1.13054e-14
1.55238e-14
1.08158e-14
1.49671e-14
1.03557e-14
1.443e-14
9.92321e-15
1.39116e-14
9.51642e-15
1.3411e-14
9.13363e-15
1.29275e-14
8.77328e-15
1.24602e-14
8.43391e-15
1.20083e-14
8.11417e-15
1.1571e-14
7.81282e-15
1.11476e-14
7.52871e-15
1.07374e-14
7.26076e-15
1.03398e-14
7.008e-15
9.9541e-15
6.7695e-15
9.5797e-15
6.54441e-15
9.21602e-15
6.33195e-15
8.86252e-15
6.13137e-15
8.51867e-15
5.94199e-15
8.18397e-15
5.76319e-15
7.85795e-15
5.59437e-15
7.54015e-15
5.43498e-15
7.23015e-15
5.28452e-15
6.92753e-15
5.1425e-15
6.63189e-15
5.00849e-15
6.34287e-15
4.88209e-15
6.06011e-15
4.7629e-15
5.78325e-15
4.65057e-15
5.51198e-15
4.54477e-15
5.24598e-15
4.44521e-15
4.98495e-15
4.35159e-15
4.72859e-15