/*--------------------------------*- C++ -*----------------------------------*\
  =========                 |
  \\      /  F ield         | OpenFOAM: The Open Source CFD Toolbox
   \\    /   O peration     | Website:  https://openfoam.org
    \\  /    A nd           | Version:  6
     \\/     M anipulation  |
\*---------------------------------------------------------------------------*/
FoamFile
{
    version     2.0;
    format      ascii;
    class       volScalarField;
    location    "30";
    object      Su;
}
// * * * * * * * * * * * * * * * * * * * * * * * * * * * * * * * * * * * * * //

dimensions      [0 0 -1 0 0 0 0];

internalField   nonuniform List<scalar> 
5964
(
0.347175
0.279123
0.219053
0.160637
0.0673096
0.0924785
0.0851503
0.0778611
0.0708133
0.0640657
0.0576157
0.0514395
0.0455088
0.0397977
0.0342842
0.0289504
0.0237819
0.0187675
0.0138985
0.0091684
0.00457267
0.000108712
-0.00422446
-0.00842639
-0.0124955
-0.0164292
-0.0202247
-0.0238788
-0.0273883
-0.0307507
-0.033964
-0.0370268
-0.0399389
-0.0427008
-0.0453139
-0.0477805
-0.0501036
-0.0522869
-0.0543346
-0.0562514
-0.0580424
-0.0597129
-0.0612684
-0.0627143
-0.0640563
-0.0652999
-0.0664505
-0.0675135
-0.0684942
-0.0693975
-0.0702284
-0.0709915
-0.0716913
-0.0723321
-0.0729181
-0.073453
-0.0739406
-0.0743843
-0.0747876
-0.0751534
-0.0754848
-0.0757844
-0.0760549
-0.0762986
-0.0765177
-0.0767145
-0.0768908
-0.0770484
-0.0771889
-0.077314
-0.0774249
-0.0775229
-0.0776093
-0.077685
-0.077751
-0.077808
-0.077857
-0.0778985
-0.077933
-0.077961
-0.077983
-0.0779992
-0.0780099
-0.0780152
0.347947
0.280794
0.220224
0.161374
0.0679017
0.0933535
0.0855534
0.0780224
0.0708634
0.0640667
0.0575955
0.0514107
0.0454773
0.0397664
0.0342546
0.0289233
0.0237578
0.0187465
0.0138806
0.00915334
0.00456027
9.86666e-05
-0.00423248
-0.0084327
-0.0125004
-0.016433
-0.0202277
-0.023881
-0.0273901
-0.0307521
-0.0339651
-0.0370278
-0.0399398
-0.0427016
-0.0453147
-0.0477813
-0.0501043
-0.0522876
-0.0543353
-0.0562521
-0.0580431
-0.0597136
-0.061269
-0.062715
-0.0640569
-0.0653005
-0.0664511
-0.0675141
-0.0684947
-0.069398
-0.0702289
-0.0709919
-0.0716917
-0.0723325
-0.0729184
-0.0734533
-0.0739409
-0.0743846
-0.0747879
-0.0751537
-0.075485
-0.0757846
-0.076055
-0.0762987
-0.0765179
-0.0767147
-0.0768909
-0.0770485
-0.0771891
-0.0773141
-0.077425
-0.077523
-0.0776094
-0.077685
-0.077751
-0.0778081
-0.0778571
-0.0778985
-0.077933
-0.0779611
-0.0779831
-0.0779993
-0.07801
-0.0780153
0.348989
0.282844
0.221594
0.162725
0.0533664
0.0949649
0.0861489
0.0782291
0.0709112
0.0640472
0.0575475
0.0513513
0.0454148
0.0397051
0.034197
0.0288707
0.023711
0.0187058
0.0138459
0.00912445
0.00453665
7.97257e-05
-0.00424737
-0.00844418
-0.0125091
-0.0164395
-0.0202323
-0.0238843
-0.0273924
-0.0307537
-0.0339662
-0.0370286
-0.0399403
-0.042702
-0.0453151
-0.0477816
-0.0501047
-0.0522879
-0.0543357
-0.0562525
-0.0580436
-0.0597141
-0.0612695
-0.0627154
-0.0640574
-0.0653009
-0.0664515
-0.0675145
-0.0684952
-0.0693984
-0.0702293
-0.0709923
-0.0716921
-0.0723329
-0.0729187
-0.0734536
-0.0739412
-0.0743849
-0.0747881
-0.0751539
-0.0754852
-0.0757848
-0.0760552
-0.0762989
-0.0765181
-0.0767148
-0.0768911
-0.0770486
-0.0771892
-0.0773142
-0.0774251
-0.0775231
-0.0776094
-0.0776851
-0.0777511
-0.0778082
-0.0778571
-0.0778986
-0.0779331
-0.0779611
-0.0779831
-0.0779993
-0.07801
-0.0780153
0.349753
0.284299
0.222447
0.16333
0.0541204
0.0955403
0.0863685
0.0782747
0.070877
0.0639763
0.05746
0.0512576
0.0453208
0.0396145
0.0341122
0.0287936
0.0236425
0.0186463
0.0137953
0.00908227
0.00450224
5.22342e-05
-0.00426888
-0.00846065
-0.0125214
-0.0164485
-0.0202387
-0.0238887
-0.0273952
-0.0307555
-0.0339672
-0.0370291
-0.0399406
-0.0427021
-0.045315
-0.0477815
-0.0501046
-0.052288
-0.0543358
-0.0562527
-0.0580438
-0.0597143
-0.0612698
-0.0627158
-0.0640577
-0.0653013
-0.0664519
-0.0675149
-0.0684955
-0.0693988
-0.0702296
-0.0709926
-0.0716924
-0.0723332
-0.072919
-0.0734539
-0.0739414
-0.0743851
-0.0747883
-0.0751541
-0.0754854
-0.075785
-0.0760554
-0.076299
-0.0765182
-0.0767149
-0.0768912
-0.0770487
-0.0771893
-0.0773143
-0.0774251
-0.0775232
-0.0776095
-0.0776852
-0.0777511
-0.0778082
-0.0778572
-0.0778986
-0.0779331
-0.0779612
-0.0779831
-0.0779994
-0.07801
-0.0780153
0.350133
0.284954
0.222633
0.162954
0.0533409
0.0949458
0.0860498
0.0780789
0.0707274
0.0638419
0.0573302
0.0511301
0.0451969
0.0394965
0.0340024
0.0286937
0.0235537
0.0185691
0.0137297
0.00902766
0.00445774
1.67301e-05
-0.00429658
-0.00848177
-0.0125371
-0.0164598
-0.0202466
-0.023894
-0.0273986
-0.0307574
-0.0339682
-0.0370294
-0.0399405
-0.0427018
-0.0453146
-0.0477811
-0.0501043
-0.0522877
-0.0543356
-0.0562526
-0.0580437
-0.0597144
-0.0612699
-0.0627159
-0.0640579
-0.0653015
-0.0664522
-0.0675152
-0.0684958
-0.0693991
-0.0702299
-0.0709929
-0.0716927
-0.0723334
-0.0729193
-0.0734541
-0.0739416
-0.0743853
-0.0747885
-0.0751543
-0.0754856
-0.0757851
-0.0760555
-0.0762992
-0.0765183
-0.076715
-0.0768913
-0.0770488
-0.0771893
-0.0773143
-0.0774252
-0.0775232
-0.0776096
-0.0776852
-0.0777512
-0.0778083
-0.0778572
-0.0778986
-0.0779332
-0.0779612
-0.0779832
-0.0779994
-0.0780101
-0.0780153
0.350308
0.285208
0.222502
0.161759
0.0679821
0.0932876
0.0853436
0.0777206
0.0705002
0.063663
0.0571686
0.0509757
0.0450481
0.0393549
0.0338705
0.0285735
0.0234467
0.018476
0.0136505
0.00896172
0.00440402
-2.60846e-05
-0.00432994
-0.00850713
-0.0125559
-0.0164733
-0.0202559
-0.0239001
-0.0274024
-0.0307595
-0.0339691
-0.0370295
-0.0399401
-0.0427011
-0.0453139
-0.0477804
-0.0501036
-0.0522871
-0.0543351
-0.0562522
-0.0580435
-0.0597142
-0.0612699
-0.0627159
-0.064058
-0.0653017
-0.0664523
-0.0675154
-0.068496
-0.0693993
-0.0702301
-0.0709932
-0.0716929
-0.0723336
-0.0729195
-0.0734543
-0.0739418
-0.0743855
-0.0747887
-0.0751545
-0.0754857
-0.0757853
-0.0760557
-0.0762993
-0.0765184
-0.0767151
-0.0768914
-0.0770489
-0.0771894
-0.0773144
-0.0774253
-0.0775233
-0.0776096
-0.0776853
-0.0777512
-0.0778083
-0.0778572
-0.0778987
-0.0779332
-0.0779612
-0.0779832
-0.0779994
-0.0780101
-0.0780154
0.350419
0.285405
0.22253
0.161166
0.0673357
0.0923194
0.0848118
0.0774092
0.0702825
0.0634795
0.0569954
0.0508058
0.0448816
0.0391948
0.0337202
0.028436
0.023324
0.0183691
0.0135593
0.0088858
0.00434217
-7.5353e-05
-0.00436828
-0.00853623
-0.0125773
-0.0164886
-0.0202665
-0.023907
-0.0274065
-0.0307616
-0.0339698
-0.0370293
-0.0399394
-0.0427001
-0.0453127
-0.0477793
-0.0501025
-0.0522862
-0.0543343
-0.0562516
-0.058043
-0.0597139
-0.0612696
-0.0627158
-0.064058
-0.0653017
-0.0664524
-0.0675155
-0.0684962
-0.0693995
-0.0702303
-0.0709933
-0.0716931
-0.0723338
-0.0729197
-0.0734545
-0.073942
-0.0743857
-0.0747888
-0.0751546
-0.0754859
-0.0757854
-0.0760558
-0.0762994
-0.0765185
-0.0767152
-0.0768915
-0.077049
-0.0771895
-0.0773145
-0.0774253
-0.0775234
-0.0776097
-0.0776853
-0.0777513
-0.0778083
-0.0778573
-0.0778987
-0.0779332
-0.0779613
-0.0779832
-0.0779994
-0.0780101
-0.0780154
0.350551
0.285725
0.222904
0.16131
0.0674245
0.0921592
0.0846702
0.077276
0.0701431
0.0633271
0.05683
0.0506316
0.0447048
0.0390215
0.0335558
0.0282846
0.0231883
0.0182505
0.0134582
0.00880146
0.00427344
-0.000130081
-0.00441083
-0.00856847
-0.0126011
-0.0165055
-0.020278
-0.0239144
-0.0274108
-0.0307637
-0.0339704
-0.0370289
-0.0399384
-0.0426988
-0.0453113
-0.0477778
-0.0501012
-0.052285
-0.0543333
-0.0562507
-0.0580423
-0.0597134
-0.0612692
-0.0627155
-0.0640578
-0.0653016
-0.0664524
-0.0675155
-0.0684962
-0.0693996
-0.0702304
-0.0709935
-0.0716932
-0.072334
-0.0729198
-0.0734546
-0.0739421
-0.0743858
-0.074789
-0.0751547
-0.075486
-0.0757855
-0.0760559
-0.0762995
-0.0765186
-0.0767153
-0.0768915
-0.0770491
-0.0771896
-0.0773145
-0.0774254
-0.0775234
-0.0776097
-0.0776854
-0.0777513
-0.0778084
-0.0778573
-0.0778987
-0.0779332
-0.0779613
-0.0779833
-0.0779995
-0.0780101
-0.0780154
0.350706
0.286144
0.223527
0.162105
0.0680603
0.0927874
0.0849457
0.0773509
0.0701048
0.0632212
0.0566828
0.0504608
0.0445234
0.0388397
0.0333811
0.0281226
0.0230424
0.0181227
0.013349
0.0087104
0.00419923
-0.000189162
-0.00445673
-0.0086032
-0.0126266
-0.0165236
-0.0202902
-0.0239222
-0.0274153
-0.0307658
-0.0339708
-0.0370283
-0.0399371
-0.0426971
-0.0453095
-0.0477761
-0.0500996
-0.0522835
-0.054332
-0.0562497
-0.0580415
-0.0597127
-0.0612687
-0.0627151
-0.0640575
-0.0653014
-0.0664522
-0.0675154
-0.0684962
-0.0693996
-0.0702305
-0.0709935
-0.0716933
-0.0723341
-0.0729199
-0.0734547
-0.0739422
-0.0743859
-0.0747891
-0.0751548
-0.0754861
-0.0757856
-0.076056
-0.0762996
-0.0765187
-0.0767154
-0.0768916
-0.0770491
-0.0771896
-0.0773146
-0.0774254
-0.0775234
-0.0776097
-0.0776854
-0.0777513
-0.0778084
-0.0778573
-0.0778988
-0.0779333
-0.0779613
-0.0779833
-0.0779995
-0.0780101
-0.0780154
0.350876
0.286594
0.224248
0.163426
0.057809
0.0941243
0.0855134
0.0775709
0.0701424
0.0631539
0.0565531
0.0502954
0.0443407
0.0386528
0.0331997
0.0279532
0.0228894
0.0179884
0.0132341
0.00861445
0.00412101
-0.000251407
-0.00450504
-0.0086397
-0.0126533
-0.0165425
-0.0203029
-0.0239302
-0.0274198
-0.0307678
-0.0339711
-0.0370274
-0.0399355
-0.0426952
-0.0453074
-0.047774
-0.0500977
-0.0522818
-0.0543305
-0.0562484
-0.0580404
-0.0597118
-0.061268
-0.0627146
-0.0640571
-0.0653011
-0.066452
-0.0675153
-0.0684961
-0.0693995
-0.0702305
-0.0709936
-0.0716933
-0.0723341
-0.07292
-0.0734548
-0.0739423
-0.074386
-0.0747892
-0.0751549
-0.0754862
-0.0757857
-0.076056
-0.0762996
-0.0765188
-0.0767154
-0.0768917
-0.0770492
-0.0771897
-0.0773146
-0.0774255
-0.0775235
-0.0776098
-0.0776854
-0.0777514
-0.0778084
-0.0778574
-0.0778988
-0.0779333
-0.0779613
-0.0779833
-0.0779995
-0.0780102
-0.0780154
0.351021
0.286983
0.224818
0.164299
0.0591957
0.0949836
0.0860047
0.0778006
0.0702012
0.0631028
0.0564326
0.0501335
0.0441576
0.0384632
0.0330143
0.0277795
0.0227321
0.01785
0.0131156
0.00851547
0.00404034
-0.000315577
-0.0045548
-0.00867723
-0.0126807
-0.0165618
-0.0203158
-0.0239382
-0.0274241
-0.0307696
-0.0339711
-0.0370262
-0.0399336
-0.042693
-0.0453051
-0.0477717
-0.0500955
-0.0522799
-0.0543288
-0.0562469
-0.0580392
-0.0597108
-0.0612672
-0.0627139
-0.0640566
-0.0653007
-0.0664517
-0.0675151
-0.068496
-0.0693994
-0.0702304
-0.0709935
-0.0716933
-0.0723341
-0.07292
-0.0734549
-0.0739424
-0.0743861
-0.0747892
-0.075155
-0.0754862
-0.0757857
-0.0760561
-0.0762997
-0.0765188
-0.0767155
-0.0768917
-0.0770492
-0.0771897
-0.0773147
-0.0774255
-0.0775235
-0.0776098
-0.0776855
-0.0777514
-0.0778085
-0.0778574
-0.0778988
-0.0779333
-0.0779613
-0.0779833
-0.0779995
-0.0780102
-0.0780155
0.351102
0.287179
0.225073
0.164703
0.0598257
0.0954425
0.0863291
0.077969
0.0702407
0.0630471
0.0563117
0.0499718
0.0439741
0.0382727
0.0328275
0.0276041
0.022573
0.01771
0.0129957
0.00841534
0.00395875
-0.000380423
-0.00460501
-0.00871503
-0.0127083
-0.016581
-0.0203286
-0.023946
-0.0274283
-0.0307711
-0.0339708
-0.0370247
-0.0399314
-0.0426905
-0.0453025
-0.0477692
-0.0500932
-0.0522777
-0.0543269
-0.0562453
-0.0580378
-0.0597096
-0.0612662
-0.0627131
-0.0640559
-0.0653002
-0.0664513
-0.0675148
-0.0684957
-0.0693993
-0.0702303
-0.0709934
-0.0716933
-0.0723341
-0.07292
-0.0734549
-0.0739424
-0.0743861
-0.0747892
-0.075155
-0.0754862
-0.0757858
-0.0760561
-0.0762997
-0.0765188
-0.0767155
-0.0768917
-0.0770492
-0.0771897
-0.0773147
-0.0774255
-0.0775235
-0.0776098
-0.0776855
-0.0777514
-0.0778085
-0.0778574
-0.0778988
-0.0779333
-0.0779614
-0.0779833
-0.0779995
-0.0780102
-0.0780155
0.351079
0.287168
0.225125
0.164848
0.0601379
0.0956642
0.0865092
0.0780617
0.0702432
0.0629745
0.0561837
0.0498076
0.0437903
0.0380827
0.0326416
0.0274297
0.0224149
0.0175709
0.0128765
0.00831589
0.00387777
-0.000444723
-0.00465474
-0.00875237
-0.0127354
-0.0165999
-0.020341
-0.0239535
-0.0274321
-0.0307723
-0.0339702
-0.037023
-0.039929
-0.0426877
-0.0452997
-0.0477665
-0.0500906
-0.0522754
-0.0543249
-0.0562435
-0.0580363
-0.0597083
-0.0612651
-0.0627123
-0.0640552
-0.0652996
-0.0664509
-0.0675144
-0.0684954
-0.069399
-0.0702301
-0.0709933
-0.0716932
-0.072334
-0.07292
-0.0734548
-0.0739424
-0.0743861
-0.0747892
-0.075155
-0.0754863
-0.0757858
-0.0760561
-0.0762998
-0.0765189
-0.0767155
-0.0768918
-0.0770493
-0.0771897
-0.0773147
-0.0774256
-0.0775235
-0.0776098
-0.0776855
-0.0777514
-0.0778085
-0.0778574
-0.0778988
-0.0779333
-0.0779614
-0.0779833
-0.0779995
-0.0780102
-0.0780155
0.35108
0.287148
0.225096
0.164872
0.0602974
0.0957596
0.0865903
0.0780897
0.070208
0.0628819
0.0560466
0.0496405
0.0436071
0.0378951
0.032459
0.0272588
0.0222602
0.0174349
0.0127602
0.00821884
0.00379883
-0.00050732
-0.00470305
-0.00878856
-0.0127616
-0.016618
-0.0203528
-0.0239604
-0.0274355
-0.0307731
-0.0339693
-0.037021
-0.0399263
-0.0426847
-0.0452966
-0.0477635
-0.0500879
-0.0522729
-0.0543227
-0.0562416
-0.0580346
-0.0597069
-0.061264
-0.0627113
-0.0640544
-0.0652989
-0.0664503
-0.0675139
-0.0684951
-0.0693987
-0.0702299
-0.0709931
-0.071693
-0.0723339
-0.0729199
-0.0734548
-0.0739423
-0.074386
-0.0747892
-0.075155
-0.0754862
-0.0757858
-0.0760561
-0.0762998
-0.0765189
-0.0767156
-0.0768918
-0.0770493
-0.0771898
-0.0773147
-0.0774256
-0.0775236
-0.0776099
-0.0776855
-0.0777514
-0.0778085
-0.0778574
-0.0778988
-0.0779333
-0.0779614
-0.0779833
-0.0779995
-0.0780102
-0.0780155
0.351107
0.287165
0.22508
0.164875
0.0603883
0.0957947
0.0866105
0.0780707
0.0701419
0.0627718
0.0559016
0.049472
0.0434264
0.0377123
0.0322821
0.0270939
0.0221113
0.0173042
0.0126485
0.0081258
0.00372324
-0.000567162
-0.00474914
-0.00882297
-0.0127863
-0.016635
-0.0203637
-0.0239667
-0.0274383
-0.0307735
-0.033968
-0.0370186
-0.0399234
-0.0426816
-0.0452934
-0.0477604
-0.050085
-0.0522703
-0.0543203
-0.0562396
-0.0580328
-0.0597054
-0.0612627
-0.0627102
-0.0640535
-0.0652982
-0.0664497
-0.0675134
-0.0684946
-0.0693984
-0.0702296
-0.0709929
-0.0716928
-0.0723338
-0.0729197
-0.0734547
-0.0739422
-0.074386
-0.0747892
-0.0751549
-0.0754862
-0.0757857
-0.0760561
-0.0762997
-0.0765189
-0.0767155
-0.0768918
-0.0770493
-0.0771898
-0.0773147
-0.0774256
-0.0775236
-0.0776099
-0.0776855
-0.0777514
-0.0778085
-0.0778574
-0.0778988
-0.0779333
-0.0779614
-0.0779833
-0.0779995
-0.0780102
-0.0780155
0.351197
0.287344
0.225239
0.164969
0.0604535
0.0958056
0.086596
0.0780209
0.0700541
0.0626495
0.0557522
0.0493048
0.0432508
0.0375367
0.0321134
0.0269373
0.0219703
0.0171808
0.0125432
0.00803817
0.00365216
-0.000623329
-0.00479228
-0.00885506
-0.0128093
-0.0166506
-0.0203736
-0.0239722
-0.0274406
-0.0307735
-0.0339664
-0.0370161
-0.0399203
-0.0426782
-0.04529
-0.0477572
-0.050082
-0.0522676
-0.0543179
-0.0562374
-0.058031
-0.0597038
-0.0612613
-0.062709
-0.0640525
-0.0652973
-0.066449
-0.0675128
-0.0684941
-0.069398
-0.0702292
-0.0709926
-0.0716926
-0.0723335
-0.0729196
-0.0734545
-0.0739421
-0.0743859
-0.0747891
-0.0751549
-0.0754861
-0.0757857
-0.0760561
-0.0762997
-0.0765188
-0.0767155
-0.0768917
-0.0770493
-0.0771897
-0.0773147
-0.0774255
-0.0775235
-0.0776098
-0.0776855
-0.0777514
-0.0778085
-0.0778574
-0.0778988
-0.0779333
-0.0779614
-0.0779833
-0.0779995
-0.0780102
-0.0780155
0.351252
0.287496
0.225408
0.165072
0.0604986
0.095803
0.0865607
0.0779519
0.069953
0.0625208
0.0556028
0.0491424
0.0430832
0.037371
0.0319554
0.0267913
0.0218392
0.0170662
0.0124456
0.00795712
0.00358653
-0.000675066
-0.00483189
-0.00888439
-0.0128301
-0.0166646
-0.0203822
-0.0239768
-0.0274422
-0.0307729
-0.0339644
-0.0370132
-0.039917
-0.0426747
-0.0452865
-0.0477538
-0.0500788
-0.0522647
-0.0543154
-0.0562352
-0.058029
-0.0597021
-0.0612598
-0.0627077
-0.0640514
-0.0652964
-0.0664482
-0.0675121
-0.0684936
-0.0693975
-0.0702288
-0.0709922
-0.0716923
-0.0723333
-0.0729193
-0.0734543
-0.0739419
-0.0743857
-0.074789
-0.0751548
-0.0754861
-0.0757856
-0.076056
-0.0762997
-0.0765188
-0.0767155
-0.0768917
-0.0770492
-0.0771897
-0.0773147
-0.0774255
-0.0775235
-0.0776098
-0.0776855
-0.0777514
-0.0778085
-0.0778574
-0.0778988
-0.0779333
-0.0779613
-0.0779833
-0.0779995
-0.0780102
-0.0780155
0.351327
0.287651
0.225533
0.165144
0.0605347
0.0957889
0.0865122
0.0778719
0.0698457
0.0623916
0.0554579
0.0489885
0.0429267
0.0372177
0.0318101
0.0266576
0.0217196
0.0169619
0.0123569
0.00788357
0.0035271
-0.000721802
-0.00486754
-0.00891064
-0.0128486
-0.0166769
-0.0203896
-0.0239804
-0.0274431
-0.0307719
-0.0339622
-0.0370101
-0.0399135
-0.042671
-0.0452829
-0.0477504
-0.0500757
-0.0522618
-0.0543127
-0.0562328
-0.0580269
-0.0597003
-0.0612583
-0.0627064
-0.0640502
-0.0652954
-0.0664473
-0.0675114
-0.0684929
-0.0693969
-0.0702283
-0.0709918
-0.0716919
-0.072333
-0.0729191
-0.0734541
-0.0739417
-0.0743855
-0.0747888
-0.0751546
-0.0754859
-0.0757855
-0.0760559
-0.0762996
-0.0765187
-0.0767154
-0.0768916
-0.0770492
-0.0771897
-0.0773146
-0.0774255
-0.0775235
-0.0776098
-0.0776854
-0.0777514
-0.0778084
-0.0778574
-0.0778988
-0.0779333
-0.0779613
-0.0779833
-0.0779995
-0.0780102
-0.0780155
0.351298
0.28767
0.225631
0.165207
0.0605545
0.0957676
0.086456
0.0777871
0.0697381
0.0622669
0.0553217
0.0488464
0.042784
0.037079
0.0316794
0.0265378
0.0216126
0.0168688
0.0122778
0.00781815
0.00347435
-0.000763158
-0.00489895
-0.00893361
-0.0128646
-0.0166873
-0.0203956
-0.0239831
-0.0274433
-0.0307705
-0.0339596
-0.0370069
-0.0399099
-0.0426673
-0.0452793
-0.0477469
-0.0500724
-0.0522588
-0.0543101
-0.0562304
-0.0580248
-0.0596984
-0.0612566
-0.0627049
-0.064049
-0.0652943
-0.0664463
-0.0675106
-0.0684922
-0.0693963
-0.0702278
-0.0709913
-0.0716915
-0.0723326
-0.0729187
-0.0734538
-0.0739415
-0.0743853
-0.0747886
-0.0751545
-0.0754858
-0.0757854
-0.0760558
-0.0762995
-0.0765186
-0.0767153
-0.0768916
-0.0770491
-0.0771896
-0.0773146
-0.0774255
-0.0775235
-0.0776098
-0.0776854
-0.0777514
-0.0778084
-0.0778573
-0.0778988
-0.0779333
-0.0779613
-0.0779833
-0.0779995
-0.0780101
-0.0780154
0.351338
0.287831
0.225836
0.16533
0.0605703
0.0957438
0.0863965
0.0777024
0.0696351
0.062151
0.0551978
0.0487189
0.0426572
0.0369566
0.0315645
0.0264328
0.0215191
0.0167875
0.0122089
0.00776121
0.00342854
-0.000798948
-0.004926
-0.00895323
-0.0128781
-0.0166958
-0.0204003
-0.0239849
-0.027443
-0.0307686
-0.0339567
-0.0370034
-0.0399061
-0.0426635
-0.0452756
-0.0477434
-0.0500691
-0.0522558
-0.0543073
-0.056228
-0.0580226
-0.0596965
-0.0612549
-0.0627034
-0.0640476
-0.0652931
-0.0664453
-0.0675097
-0.0684914
-0.0693956
-0.0702271
-0.0709908
-0.071691
-0.0723322
-0.0729184
-0.0734535
-0.0739412
-0.0743851
-0.0747884
-0.0751543
-0.0754856
-0.0757852
-0.0760557
-0.0762994
-0.0765185
-0.0767152
-0.0768915
-0.077049
-0.0771895
-0.0773145
-0.0774254
-0.0775234
-0.0776097
-0.0776854
-0.0777513
-0.0778084
-0.0778573
-0.0778987
-0.0779332
-0.0779613
-0.0779833
-0.0779995
-0.0780101
-0.0780154
0.351464
0.288114
0.226071
0.165452
0.0605823
0.0957138
0.0863357
0.0776216
0.0695407
0.0620475
0.0550889
0.0486082
0.0425478
0.0368515
0.0314662
0.0263431
0.0214392
0.0167182
0.0121503
0.00771283
0.00338971
-0.000829173
-0.0049487
-0.00896953
-0.0128891
-0.0167026
-0.0204037
-0.0239858
-0.027442
-0.0307664
-0.0339536
-0.0369999
-0.0399023
-0.0426597
-0.0452718
-0.0477398
-0.0500658
-0.0522528
-0.0543046
-0.0562255
-0.0580204
-0.0596945
-0.0612531
-0.0627018
-0.0640462
-0.0652919
-0.0664442
-0.0675087
-0.0684905
-0.0693948
-0.0702265
-0.0709902
-0.0716905
-0.0723317
-0.072918
-0.0734531
-0.0739409
-0.0743848
-0.0747881
-0.075154
-0.0754854
-0.0757851
-0.0760555
-0.0762992
-0.0765184
-0.0767151
-0.0768914
-0.0770489
-0.0771895
-0.0773145
-0.0774253
-0.0775233
-0.0776097
-0.0776853
-0.0777513
-0.0778083
-0.0778573
-0.0778987
-0.0779332
-0.0779612
-0.0779832
-0.0779994
-0.0780101
-0.0780154
0.351571
0.288294
0.226177
0.165492
0.0605687
0.0956739
0.0862752
0.077548
0.0694581
0.061959
0.0549971
0.0485156
0.0424568
0.0367643
0.0313847
0.0262688
0.0213731
0.0166608
0.0121017
0.00767282
0.00335768
-0.000853999
-0.00496721
-0.00898266
-0.0128978
-0.0167076
-0.020406
-0.0239859
-0.0274406
-0.0307638
-0.0339504
-0.0369962
-0.0398985
-0.0426559
-0.0452681
-0.0477363
-0.0500625
-0.0522497
-0.0543018
-0.056223
-0.0580181
-0.0596924
-0.0612513
-0.0627002
-0.0640448
-0.0652905
-0.066443
-0.0675076
-0.0684896
-0.069394
-0.0702257
-0.0709895
-0.0716899
-0.0723312
-0.0729175
-0.0734527
-0.0739405
-0.0743844
-0.0747878
-0.0751538
-0.0754852
-0.0757848
-0.0760553
-0.076299
-0.0765182
-0.076715
-0.0768913
-0.0770488
-0.0771894
-0.0773144
-0.0774252
-0.0775233
-0.0776096
-0.0776853
-0.0777512
-0.0778083
-0.0778572
-0.0778987
-0.0779332
-0.0779612
-0.0779832
-0.0779994
-0.0780101
-0.0780153
0.351559
0.288254
0.22612
0.165441
0.0605355
0.095626
0.0862184
0.0774846
0.0693899
0.0618874
0.0549235
0.0484417
0.0423843
0.0366949
0.0313197
0.0262094
0.0213202
0.0166149
0.0120628
0.00764079
0.00333209
-0.000873733
-0.00498179
-0.00899283
-0.0129043
-0.0167112
-0.0204072
-0.0239853
-0.0274387
-0.0307611
-0.0339471
-0.0369926
-0.0398948
-0.0426521
-0.0452645
-0.0477328
-0.0500592
-0.0522467
-0.054299
-0.0562204
-0.0580158
-0.0596903
-0.0612494
-0.0626985
-0.0640432
-0.0652891
-0.0664418
-0.0675065
-0.0684886
-0.069393
-0.0702249
-0.0709888
-0.0716892
-0.0723306
-0.0729169
-0.0734522
-0.0739401
-0.0743841
-0.0747875
-0.0751534
-0.0754849
-0.0757846
-0.0760551
-0.0762988
-0.076518
-0.0767148
-0.0768911
-0.0770487
-0.0771892
-0.0773143
-0.0774251
-0.0775232
-0.0776095
-0.0776852
-0.0777511
-0.0778082
-0.0778572
-0.0778986
-0.0779331
-0.0779612
-0.0779831
-0.0779993
-0.07801
-0.0780153
0.351588
0.288223
0.225986
0.165334
0.0604906
0.0955768
0.0861692
0.0774344
0.0693379
0.0618337
0.0548687
0.0483866
0.04233
0.0366426
0.0312705
0.0261643
0.0212798
0.0165796
0.0120329
0.00761616
0.00331246
-0.000888795
-0.00499279
-0.00900034
-0.0129089
-0.0167134
-0.0204075
-0.0239842
-0.0274366
-0.0307582
-0.0339438
-0.036989
-0.0398911
-0.0426485
-0.0452609
-0.0477294
-0.050056
-0.0522437
-0.0542962
-0.0562178
-0.0580134
-0.0596881
-0.0612474
-0.0626967
-0.0640416
-0.0652876
-0.0664404
-0.0675053
-0.0684874
-0.069392
-0.070224
-0.0709879
-0.0716885
-0.0723299
-0.0729163
-0.0734516
-0.0739396
-0.0743836
-0.0747871
-0.0751531
-0.0754846
-0.0757843
-0.0760548
-0.0762986
-0.0765178
-0.0767146
-0.0768909
-0.0770485
-0.0771891
-0.0773141
-0.077425
-0.0775231
-0.0776094
-0.0776851
-0.0777511
-0.0778081
-0.0778571
-0.0778985
-0.0779331
-0.0779611
-0.0779831
-0.0779993
-0.07801
-0.0780152
0.351556
0.288094
0.225822
0.165214
0.0604361
0.0955323
0.086131
0.0773989
0.069303
0.0617982
0.0548323
0.0483496
0.0422931
0.0366065
0.0312361
0.0261323
0.0212509
0.0165542
0.0120113
0.00759826
0.0032982
-0.000899678
-0.00500064
-0.00900553
-0.0129118
-0.0167145
-0.0204071
-0.0239827
-0.0274343
-0.0307553
-0.0339405
-0.0369856
-0.0398876
-0.0426449
-0.0452575
-0.0477261
-0.0500529
-0.0522407
-0.0542934
-0.0562152
-0.058011
-0.0596859
-0.0612453
-0.0626948
-0.0640398
-0.0652861
-0.066439
-0.0675039
-0.0684862
-0.0693909
-0.070223
-0.070987
-0.0716877
-0.0723292
-0.0729157
-0.073451
-0.073939
-0.0743831
-0.0747866
-0.0751527
-0.0754842
-0.075784
-0.0760545
-0.0762983
-0.0765176
-0.0767144
-0.0768907
-0.0770484
-0.0771889
-0.077314
-0.0774249
-0.077523
-0.0776093
-0.077685
-0.077751
-0.0778081
-0.077857
-0.0778985
-0.077933
-0.077961
-0.077983
-0.0779992
-0.0780099
-0.0780152
0.351499
0.287941
0.22562
0.165058
0.0603821
0.0954937
0.0861046
0.0773784
0.0692848
0.0617801
0.0548134
0.0483296
0.0422722
0.0365852
0.0312151
0.0261123
0.0212324
0.0165377
0.011997
0.00758633
0.00328866
-0.000906918
-0.00500576
-0.00900877
-0.0129134
-0.0167147
-0.0204063
-0.023981
-0.0274319
-0.0307526
-0.0339374
-0.0369823
-0.0398842
-0.0426416
-0.0452542
-0.0477229
-0.0500498
-0.0522378
-0.0542907
-0.0562127
-0.0580086
-0.0596837
-0.0612432
-0.0626928
-0.064038
-0.0652844
-0.0664374
-0.0675025
-0.068485
-0.0693898
-0.0702219
-0.0709861
-0.0716868
-0.0723284
-0.0729149
-0.0734504
-0.0739384
-0.0743826
-0.0747861
-0.0751522
-0.0754838
-0.0757836
-0.0760542
-0.076298
-0.0765173
-0.0767142
-0.0768905
-0.0770482
-0.0771888
-0.0773138
-0.0774247
-0.0775228
-0.0776092
-0.0776849
-0.0777509
-0.077808
-0.0778569
-0.0778984
-0.0779329
-0.077961
-0.0779829
-0.0779991
-0.0780098
-0.0780151
0.351289
0.287576
0.22535
0.164872
0.0603218
0.0954625
0.08609
0.0773724
0.0692824
0.0617784
0.0548106
0.0483251
0.0422659
0.0365774
0.0312063
0.0261029
0.0212231
0.0165289
0.0119891
0.00757958
0.00328319
-0.00091106
-0.00500861
-0.00901041
-0.012914
-0.0167144
-0.0204052
-0.0239793
-0.0274297
-0.0307499
-0.0339346
-0.0369793
-0.0398811
-0.0426385
-0.0452511
-0.0477199
-0.0500469
-0.052235
-0.054288
-0.0562101
-0.0580062
-0.0596814
-0.0612411
-0.0626908
-0.0640362
-0.0652827
-0.0664358
-0.0675011
-0.0684836
-0.0693885
-0.0702207
-0.070985
-0.0716858
-0.0723275
-0.0729141
-0.0734496
-0.0739378
-0.074382
-0.0747856
-0.0751517
-0.0754834
-0.0757832
-0.0760538
-0.0762977
-0.076517
-0.0767139
-0.0768903
-0.0770479
-0.0771886
-0.0773136
-0.0774246
-0.0775227
-0.077609
-0.0776847
-0.0777507
-0.0778078
-0.0778568
-0.0778983
-0.0779328
-0.0779609
-0.0779829
-0.0779991
-0.0780097
-0.078015
0.351324
0.287595
0.225215
0.164723
0.0602578
0.095441
0.0860868
0.0773796
0.0692944
0.0617914
0.0548225
0.0483346
0.0422727
0.0365815
0.0312081
0.026103
0.0212219
0.0165269
0.0119867
0.00757727
0.00328116
-0.000912626
-0.00500961
-0.00901082
-0.0129138
-0.0167136
-0.0204039
-0.0239776
-0.0274276
-0.0307476
-0.033932
-0.0369766
-0.0398783
-0.0426356
-0.0452482
-0.0477171
-0.0500441
-0.0522323
-0.0542853
-0.0562075
-0.0580037
-0.0596791
-0.0612389
-0.0626888
-0.0640342
-0.0652808
-0.0664341
-0.0674995
-0.0684821
-0.0693871
-0.0702195
-0.0709838
-0.0716847
-0.0723265
-0.0729132
-0.0734488
-0.073937
-0.0743813
-0.074785
-0.0751512
-0.0754829
-0.0757827
-0.0760534
-0.0762973
-0.0765167
-0.0767136
-0.07689
-0.0770477
-0.0771883
-0.0773134
-0.0774244
-0.0775225
-0.0776089
-0.0776846
-0.0777506
-0.0778077
-0.0778567
-0.0778982
-0.0779327
-0.0779608
-0.0779828
-0.077999
-0.0780097
-0.0780149
0.35134
0.287585
0.225103
0.164597
0.060204
0.0954281
0.0860939
0.0773988
0.0693194
0.0618178
0.0548475
0.0483566
0.0422911
0.0365962
0.0312193
0.0261112
0.0212276
0.0165307
0.0119892
0.00757872
0.00328201
-0.000912086
-0.00500916
-0.00901029
-0.0129131
-0.0167127
-0.0204027
-0.0239761
-0.0274259
-0.0307457
-0.0339299
-0.0369742
-0.0398759
-0.0426331
-0.0452456
-0.0477144
-0.0500415
-0.0522297
-0.0542827
-0.056205
-0.0580013
-0.0596767
-0.0612366
-0.0626866
-0.0640322
-0.0652789
-0.0664323
-0.0674978
-0.0684805
-0.0693857
-0.0702181
-0.0709826
-0.0716836
-0.0723254
-0.0729122
-0.0734479
-0.0739362
-0.0743806
-0.0747843
-0.0751506
-0.0754823
-0.0757822
-0.076053
-0.0762969
-0.0765163
-0.0767132
-0.0768897
-0.0770474
-0.0771881
-0.0773132
-0.0774242
-0.0775223
-0.0776087
-0.0776844
-0.0777504
-0.0778076
-0.0778566
-0.077898
-0.0779326
-0.0779607
-0.0779826
-0.0779989
-0.0780095
-0.0780148
0.351419
0.287619
0.225011
0.164523
0.0601573
0.0954254
0.0861117
0.0774298
0.0693567
0.0618564
0.0548842
0.0483897
0.0423197
0.0366201
0.0312387
0.0261265
0.0212394
0.0165396
0.0119956
0.00758335
0.00328525
-0.000909839
-0.00500757
-0.00900911
-0.0129121
-0.0167117
-0.0204017
-0.023975
-0.0274246
-0.0307441
-0.0339281
-0.0369723
-0.0398738
-0.0426309
-0.0452433
-0.047712
-0.050039
-0.0522272
-0.0542802
-0.0562025
-0.0579989
-0.0596743
-0.0612343
-0.0626844
-0.0640301
-0.0652769
-0.0664304
-0.067496
-0.0684788
-0.0693841
-0.0702167
-0.0709812
-0.0716823
-0.0723243
-0.0729112
-0.073447
-0.0739353
-0.0743797
-0.0747836
-0.0751499
-0.0754817
-0.0757817
-0.0760525
-0.0762964
-0.0765159
-0.0767129
-0.0768893
-0.0770471
-0.0771878
-0.0773129
-0.0774239
-0.0775221
-0.0776085
-0.0776842
-0.0777503
-0.0778074
-0.0778564
-0.0778979
-0.0779324
-0.0779605
-0.0779825
-0.0779988
-0.0780094
-0.0780147
0.351344
0.28743
0.224872
0.164461
0.0601172
0.0954369
0.0861432
0.0774738
0.0694063
0.0619066
0.0549318
0.0484328
0.0423573
0.0366521
0.0312653
0.0261481
0.0212566
0.0165528
0.0120056
0.00759071
0.00329051
-0.000906189
-0.00500511
-0.00900747
-0.012911
-0.0167109
-0.020401
-0.0239743
-0.0274238
-0.0307431
-0.0339269
-0.0369709
-0.0398721
-0.042629
-0.0452413
-0.0477098
-0.0500367
-0.0522248
-0.0542778
-0.0562001
-0.0579964
-0.0596719
-0.061232
-0.0626821
-0.0640278
-0.0652748
-0.0664284
-0.0674941
-0.0684771
-0.0693824
-0.0702151
-0.0709798
-0.071681
-0.072323
-0.07291
-0.0734459
-0.0739344
-0.0743789
-0.0747828
-0.0751492
-0.075481
-0.0757811
-0.0760519
-0.0762959
-0.0765154
-0.0767124
-0.0768889
-0.0770467
-0.0771875
-0.0773126
-0.0774237
-0.0775218
-0.0776083
-0.077684
-0.0777501
-0.0778072
-0.0778562
-0.0778977
-0.0779323
-0.0779604
-0.0779824
-0.0779986
-0.0780093
-0.0780146
0.351229
0.287143
0.224654
0.164405
0.0600856
0.0954716
0.0861932
0.0775328
0.0694686
0.0619679
0.0549892
0.0484847
0.0424031
0.0366914
0.0312983
0.0261752
0.0212784
0.01657
0.0120188
0.0076005
0.00329755
-0.000901333
-0.00500193
-0.00900551
-0.0129099
-0.0167103
-0.0204007
-0.023974
-0.0274235
-0.0307427
-0.0339263
-0.03697
-0.0398709
-0.0426275
-0.0452396
-0.0477079
-0.0500346
-0.0522226
-0.0542755
-0.0561977
-0.057994
-0.0596695
-0.0612296
-0.0626797
-0.0640255
-0.0652726
-0.0664263
-0.0674921
-0.0684752
-0.0693806
-0.0702134
-0.0709782
-0.0716795
-0.0723217
-0.0729088
-0.0734448
-0.0739333
-0.0743779
-0.0747819
-0.0751484
-0.0754803
-0.0757804
-0.0760513
-0.0762954
-0.0765149
-0.076712
-0.0768885
-0.0770463
-0.0771871
-0.0773123
-0.0774234
-0.0775215
-0.077608
-0.0776838
-0.0777499
-0.077807
-0.0778561
-0.0778976
-0.0779321
-0.0779602
-0.0779822
-0.0779985
-0.0780092
-0.0780145
0.350986
0.286752
0.224526
0.164439
0.0600834
0.0955377
0.0862657
0.0776084
0.0695437
0.0620397
0.0550557
0.0485448
0.0424561
0.0367373
0.0313372
0.0262076
0.0213047
0.0165909
0.012035
0.00761259
0.00330626
-0.000895355
-0.00499809
-0.00900328
-0.0129088
-0.01671
-0.0204008
-0.0239743
-0.0274238
-0.0307428
-0.0339262
-0.0369696
-0.0398702
-0.0426265
-0.0452382
-0.0477063
-0.0500327
-0.0522205
-0.0542732
-0.0561953
-0.0579916
-0.059667
-0.0612271
-0.0626773
-0.0640232
-0.0652703
-0.0664241
-0.0674899
-0.0684731
-0.0693787
-0.0702116
-0.0709765
-0.071678
-0.0723203
-0.0729075
-0.0734435
-0.0739322
-0.0743769