/*--------------------------------*- C++ -*----------------------------------*\
  =========                 |
  \\      /  F ield         | OpenFOAM: The Open Source CFD Toolbox
   \\    /   O peration     | Website:  https://openfoam.org
    \\  /    A nd           | Version:  6
     \\/     M anipulation  |
\*---------------------------------------------------------------------------*/
FoamFile
{
    version     2.0;
    format      ascii;
    class       volScalarField;
    location    "30";
    object      T;
}
// * * * * * * * * * * * * * * * * * * * * * * * * * * * * * * * * * * * * * //

dimensions      [0 0 0 1 0 0 0];

internalField   nonuniform List<scalar> 
5964
(
310.236
308.804
307.54
306.31
304.999
304.857
304.704
304.552
304.405
304.264
304.13
304.001
303.878
303.759
303.644
303.533
303.425
303.321
303.219
303.121
303.025
302.932
302.842
302.755
302.67
302.588
302.509
302.433
302.36
302.29
302.223
302.159
302.098
302.041
301.986
301.935
301.887
301.841
301.799
301.759
301.721
301.686
301.654
301.624
301.596
301.57
301.546
301.524
301.504
301.485
301.468
301.452
301.437
301.424
301.412
301.4
301.39
301.381
301.373
301.365
301.358
301.352
301.346
301.341
301.337
301.332
301.329
301.325
301.323
301.32
301.318
301.316
301.314
301.312
301.311
301.31
301.309
301.308
301.307
301.306
301.306
301.306
301.305
301.305
310.252
308.839
307.564
306.326
305.03
304.875
304.712
304.555
304.406
304.265
304.13
304.001
303.877
303.758
303.643
303.532
303.425
303.32
303.219
303.121
303.025
302.932
302.842
302.754
302.67
302.588
302.509
302.433
302.36
302.29
302.223
302.159
302.098
302.041
301.986
301.935
301.887
301.841
301.798
301.759
301.721
301.686
301.654
301.624
301.596
301.57
301.546
301.524
301.504
301.485
301.468
301.452
301.437
301.424
301.411
301.4
301.39
301.381
301.373
301.365
301.358
301.352
301.346
301.341
301.337
301.332
301.329
301.325
301.323
301.32
301.318
301.316
301.314
301.312
301.311
301.31
301.309
301.308
301.307
301.306
301.306
301.306
301.305
301.305
310.274
308.882
307.593
306.354
305.124
304.908
304.725
304.56
304.407
304.264
304.129
304
303.876
303.757
303.642
303.531
303.424
303.32
303.218
303.12
303.024
302.932
302.842
302.754
302.67
302.588
302.509
302.433
302.36
302.29
302.223
302.159
302.098
302.041
301.986
301.935
301.887
301.841
301.798
301.759
301.721
301.686
301.654
301.624
301.596
301.57
301.546
301.524
301.504
301.485
301.467
301.452
301.437
301.424
301.411
301.4
301.39
301.381
301.373
301.365
301.358
301.352
301.346
301.341
301.337
301.332
301.329
301.325
301.323
301.32
301.318
301.316
301.314
301.312
301.311
301.31
301.309
301.308
301.307
301.306
301.306
301.306
301.305
301.305
310.29
308.913
307.611
306.367
305.146
304.92
304.729
304.561
304.406
304.263
304.127
303.998
303.874
303.755
303.64
303.53
303.422
303.318
303.217
303.119
303.024
302.931
302.841
302.754
302.669
302.587
302.509
302.433
302.36
302.29
302.223
302.159
302.098
302.041
301.986
301.935
301.887
301.841
301.798
301.759
301.721
301.686
301.654
301.624
301.596
301.57
301.546
301.524
301.504
301.485
301.467
301.452
301.437
301.424
301.411
301.4
301.39
301.381
301.373
301.365
301.358
301.352
301.346
301.341
301.337
301.332
301.329
301.325
301.323
301.32
301.318
301.316
301.314
301.312
301.311
301.31
301.309
301.308
301.307
301.306
301.306
301.306
301.305
301.305
310.298
308.926
307.615
306.359
305.126
304.908
304.723
304.556
304.403
304.26
304.124
303.995
303.871
303.753
303.638
303.528
303.421
303.317
303.216
303.118
303.023
302.93
302.841
302.753
302.669
302.587
302.508
302.432
302.359
302.289
302.223
302.159
302.098
302.041
301.986
301.935
301.887
301.841
301.798
301.759
301.721
301.686
301.654
301.624
301.596
301.57
301.546
301.524
301.504
301.485
301.467
301.452
301.437
301.424
301.411
301.4
301.39
301.381
301.373
301.365
301.358
301.352
301.346
301.341
301.337
301.332
301.329
301.325
301.323
301.32
301.318
301.316
301.314
301.312
301.311
301.31
301.309
301.308
301.307
301.306
301.306
301.306
301.305
301.305
310.302
308.932
307.612
306.334
305.034
304.873
304.708
304.549
304.399
304.256
304.121
303.992
303.868
303.75
303.635
303.525
303.418
303.315
303.214
303.117
303.022
302.929
302.84
302.753
302.669
302.587
302.508
302.432
302.359
302.289
302.223
302.159
302.098
302.041
301.986
301.935
301.887
301.841
301.798
301.759
301.721
301.686
301.654
301.624
301.596
301.57
301.546
301.524
301.504
301.485
301.467
301.452
301.437
301.424
301.411
301.4
301.39
301.381
301.373
301.365
301.358
301.352
301.346
301.341
301.337
301.332
301.329
301.325
301.323
301.32
301.318
301.316
301.314
301.312
301.311
301.31
301.309
301.308
301.307
301.306
301.306
301.306
301.305
301.305
310.304
308.936
307.613
306.321
305.002
304.853
304.697
304.543
304.394
304.252
304.117
303.988
303.865
303.746
303.632
303.522
303.416
303.313
303.212
303.115
303.02
302.928
302.839
302.752
302.668
302.587
302.508
302.432
302.359
302.289
302.223
302.159
302.098
302.041
301.986
301.935
301.887
301.841
301.799
301.759
301.721
301.686
301.654
301.624
301.596
301.57
301.546
301.524
301.504
301.485
301.467
301.452
301.437
301.424
301.411
301.4
301.39
301.381
301.373
301.365
301.358
301.352
301.346
301.341
301.337
301.332
301.329
301.325
301.323
301.32
301.318
301.316
301.314
301.312
301.311
301.31
301.309
301.308
301.307
301.306
301.306
301.306
301.305
301.305
310.307
308.943
307.621
306.324
305
304.85
304.694
304.54
304.391
304.249
304.114
303.985
303.861
303.743
303.629
303.519
303.413
303.31
303.21
303.113
303.019
302.927
302.838
302.752
302.668
302.586
302.508
302.432
302.359
302.289
302.223
302.159
302.098
302.041
301.986
301.935
301.887
301.841
301.799
301.759
301.721
301.686
301.654
301.624
301.596
301.57
301.546
301.524
301.504
301.485
301.467
301.452
301.437
301.424
301.411
301.4
301.39
301.381
301.373
301.365
301.358
301.352
301.346
301.341
301.337
301.332
301.329
301.325
301.323
301.32
301.318
301.316
301.314
301.312
301.311
301.31
301.309
301.308
301.307
301.306
301.306
301.306
301.305
301.305
310.31
308.951
307.634
306.341
305.022
304.863
304.7
304.541
304.39
304.247
304.111
303.981
303.857
303.739
303.625
303.516
303.41
303.307
303.208
303.111
303.017
302.926
302.837
302.751
302.667
302.586
302.507
302.432
302.359
302.289
302.223
302.159
302.098
302.041
301.986
301.935
301.887
301.841
301.799
301.759
301.721
301.687
301.654
301.624
301.596
301.57
301.546
301.524
301.504
301.485
301.467
301.452
301.437
301.424
301.411
301.4
301.39
301.381
301.373
301.365
301.358
301.352
301.346
301.341
301.337
301.332
301.329
301.325
301.323
301.32
301.318
301.316
301.314
301.312
301.311
301.31
301.309
301.308
301.307
301.306
301.306
301.306
301.305
301.305
310.314
308.961
307.649
306.369
305.092
304.891
304.711
304.546
304.391
304.245
304.108
303.978
303.854
303.735
303.621
303.512
303.407
303.305
303.206
303.109
303.016
302.925
302.836
302.75
302.666
302.586
302.507
302.432
302.359
302.289
302.223
302.159
302.098
302.041
301.986
301.935
301.887
301.841
301.799
301.759
301.721
301.687
301.654
301.624
301.596
301.57
301.546
301.524
301.504
301.485
301.467
301.452
301.437
301.424
301.411
301.4
301.39
301.381
301.373
301.365
301.358
301.352
301.346
301.341
301.337
301.332
301.329
301.325
301.323
301.32
301.318
301.316
301.314
301.312
301.311
301.31
301.309
301.308
301.307
301.306
301.306
301.306
301.305
301.305
310.317
308.969
307.661
306.387
305.116
304.909
304.722
304.551
304.392
304.244
304.105
303.974
303.85
303.731
303.618
303.509
303.403
303.302
303.203
303.107
303.014
302.923
302.835
302.749
302.666
302.585
302.507
302.431
302.359
302.289
302.223
302.159
302.098
302.041
301.987
301.935
301.887
301.841
301.799
301.759
301.721
301.687
301.654
301.624
301.596
301.57
301.546
301.524
301.504
301.485
301.467
301.452
301.437
301.424
301.411
301.4
301.39
301.381
301.373
301.365
301.358
301.352
301.346
301.341
301.337
301.332
301.329
301.325
301.323
301.32
301.318
301.316
301.314
301.312
301.311
301.31
301.309
301.308
301.307
301.306
301.306
301.306
301.305
301.305
310.318
308.973
307.666
306.396
305.124
304.918
304.728
304.554
304.393
304.243
304.103
303.971
303.846
303.727
303.614
303.505
303.4
303.299
303.201
303.105
303.012
302.922
302.834
302.749
302.665
302.585
302.507
302.431
302.359
302.289
302.223
302.159
302.098
302.041
301.987
301.935
301.887
301.841
301.799
301.759
301.721
301.687
301.654
301.624
301.596
301.57
301.546
301.524
301.504
301.485
301.467
301.452
301.437
301.424
301.411
301.4
301.39
301.381
301.373
301.365
301.358
301.352
301.346
301.341
301.337
301.332
301.329
301.325
301.323
301.32
301.318
301.316
301.314
301.312
301.311
301.31
301.309
301.308
301.307
301.306
301.306
301.306
301.305
301.305
310.318
308.973
307.667
306.399
305.127
304.923
304.732
304.556
304.393
304.242
304.1
303.967
303.842
303.723
303.61
303.501
303.397
303.296
303.198
303.103
303.011
302.921
302.833
302.748
302.665
302.584
302.506
302.431
302.359
302.289
302.223
302.159
302.098
302.041
301.987
301.935
301.887
301.841
301.799
301.759
301.721
301.687
301.654
301.624
301.596
301.57
301.546
301.524
301.504
301.485
301.467
301.452
301.437
301.424
301.411
301.4
301.39
301.381
301.373
301.365
301.358
301.352
301.346
301.341
301.337
301.332
301.329
301.325
301.323
301.32
301.318
301.316
301.314
301.312
301.311
301.31
301.309
301.308
301.307
301.306
301.306
301.306
301.305
301.305
310.318
308.973
307.667
306.399
305.128
304.925
304.734
304.557
304.392
304.24
304.097
303.964
303.838
303.719
303.606
303.498
303.394
303.293
303.196
303.101
303.009
302.919
302.832
302.747
302.664
302.584
302.506
302.431
302.359
302.289
302.223
302.159
302.099
302.041
301.987
301.935
301.887
301.841
301.799
301.759
301.721
301.687
301.654
301.624
301.596
301.57
301.546
301.524
301.504
301.485
301.467
301.452
301.437
301.424
301.411
301.4
301.39
301.381
301.373
301.365
301.358
301.352
301.346
301.341
301.337
301.332
301.329
301.325
301.323
301.32
301.318
301.316
301.314
301.312
301.311
301.31
301.309
301.308
301.307
301.306
301.306
301.306
301.305
301.305
310.318
308.973
307.666
306.399
305.128
304.926
304.734
304.556
304.391
304.238
304.094
303.96
303.834
303.715
303.602
303.494
303.391
303.29
303.193
303.099
303.008
302.918
302.831
302.746
302.664
302.584
302.506
302.431
302.359
302.289
302.223
302.159
302.099
302.041
301.987
301.935
301.887
301.841
301.799
301.759
301.721
301.687
301.654
301.624
301.596
301.57
301.546
301.524
301.504
301.485
301.467
301.452
301.437
301.424
301.411
301.4
301.39
301.381
301.373
301.365
301.358
301.352
301.346
301.341
301.337
301.332
301.329
301.325
301.323
301.32
301.318
301.316
301.314
301.312
301.311
301.31
301.309
301.308
301.307
301.306
301.306
301.306
301.305
301.305
310.32
308.977
307.67
306.401
305.129
304.926
304.734
304.555
304.389
304.235
304.091
303.957
303.831
303.712
303.599
303.491
303.388
303.288
303.191
303.097
303.006
302.917
302.83
302.746
302.663
302.583
302.506
302.431
302.359
302.289
302.223
302.159
302.099
302.041
301.987
301.935
301.887
301.842
301.799
301.759
301.722
301.687
301.654
301.624
301.596
301.57
301.546
301.524
301.504
301.485
301.468
301.452
301.437
301.424
301.411
301.4
301.39
301.381
301.373
301.365
301.358
301.352
301.346
301.341
301.337
301.332
301.329
301.325
301.323
301.32
301.318
301.316
301.314
301.312
301.311
301.31
301.309
301.308
301.307
301.306
301.306
301.306
301.305
301.305
310.321
308.98
307.673
306.404
305.129
304.926
304.733
304.554
304.387
304.232
304.088
303.954
303.827
303.708
303.596
303.488
303.385
303.285
303.189
303.096
303.005
302.916
302.829
302.745
302.663
302.583
302.506
302.431
302.359
302.289
302.223
302.159
302.099
302.041
301.987
301.936
301.887
301.842
301.799
301.759
301.722
301.687
301.654
301.624
301.596
301.57
301.546
301.524
301.504
301.485
301.468
301.452
301.437
301.424
301.411
301.4
301.39
301.381
301.373
301.365
301.358
301.352
301.346
301.341
301.337
301.332
301.329
301.325
301.323
301.32
301.318
301.316
301.314
301.312
301.311
301.31
301.309
301.308
301.307
301.306
301.306
301.306
301.305
301.305
310.323
308.983
307.676
306.405
305.13
304.926
304.732
304.552
304.385
304.23
304.085
303.95
303.824
303.705
303.593
303.485
303.382
303.283
303.187
303.094
303.003
302.915
302.829
302.744
302.662
302.583
302.505
302.431
302.359
302.289
302.223
302.159
302.099
302.041
301.987
301.936
301.887
301.842
301.799
301.759
301.722
301.687
301.654
301.624
301.596
301.57
301.546
301.524
301.504
301.485
301.468
301.452
301.437
301.424
301.411
301.4
301.39
301.381
301.373
301.365
301.358
301.352
301.346
301.341
301.337
301.332
301.329
301.325
301.323
301.32
301.318
301.316
301.314
301.312
301.311
301.31
301.309
301.308
301.307
301.306
301.306
301.306
301.305
301.305
310.322
308.983
307.678
306.406
305.13
304.925
304.731
304.55
304.383
304.227
304.082
303.947
303.821
303.702
303.59
303.483
303.38
303.281
303.186
303.093
303.002
302.914
302.828
302.744
302.662
302.582
302.505
302.431
302.359
302.289
302.223
302.159
302.099
302.041
301.987
301.936
301.887
301.842
301.799
301.759
301.722
301.687
301.654
301.624
301.596
301.57
301.546
301.524
301.504
301.485
301.468
301.452
301.437
301.424
301.411
301.4
301.39
301.381
301.373
301.365
301.358
301.352
301.346
301.341
301.337
301.332
301.329
301.325
301.323
301.32
301.318
301.316
301.314
301.312
301.311
301.31
301.309
301.308
301.307
301.306
301.306
301.306
301.305
301.305
310.323
308.987
307.682
306.409
305.131
304.925
304.73
304.549
304.381
304.225
304.08
303.945
303.818
303.7
303.587
303.481
303.378
303.28
303.184
303.092
303.001
302.913
302.827
302.744
302.662
302.582
302.505
302.431
302.359
302.289
302.223
302.159
302.099
302.042
301.987
301.936
301.887
301.842
301.799
301.759
301.722
301.687
301.654
301.624
301.596
301.57
301.546
301.524
301.504
301.485
301.468
301.452
301.437
301.424
301.412
301.4
301.39
301.381
301.373
301.365
301.358
301.352
301.346
301.341
301.337
301.332
301.329
301.325
301.323
301.32
301.318
301.316
301.314
301.312
301.311
301.31
301.309
301.308
301.307
301.306
301.306
301.306
301.305
301.305
310.326
308.993
307.687
306.412
305.131
304.924
304.729
304.547
304.379
304.222
304.077
303.942
303.816
303.698
303.585
303.479
303.377
303.278
303.183
303.091
303.001
302.913
302.827
302.743
302.662
302.582
302.505
302.431
302.359
302.289
302.223
302.159
302.099
302.042
301.987
301.936
301.887
301.842
301.799
301.759
301.722
301.687
301.654
301.624
301.596
301.57
301.546
301.524
301.504
301.485
301.468
301.452
301.437
301.424
301.412
301.4
301.39
301.381
301.373
301.365
301.358
301.352
301.346
301.341
301.337
301.332
301.329
301.325
301.323
301.32
301.318
301.316
301.314
301.312
301.311
301.31
301.309
301.308
301.307
301.306
301.306
301.306
301.305
301.305
310.328
308.997
307.689
306.412
305.131
304.923
304.727
304.545
304.377
304.221
304.076
303.941
303.814
303.696
303.584
303.477
303.375
303.277
303.182
303.09
303
302.912
302.827
302.743
302.661
302.582
302.505
302.431
302.359
302.289
302.223
302.16
302.099
302.042
301.987
301.936
301.887
301.842
301.799
301.759
301.722
301.687
301.654
301.624
301.596
301.57
301.546
301.524
301.504
301.485
301.468
301.452
301.437
301.424
301.412
301.4
301.39
301.381
301.373
301.365
301.358
301.352
301.346
301.341
301.337
301.332
301.329
301.325
301.323
301.32
301.318
301.316
301.314
301.312
301.311
301.31
301.309
301.308
301.307
301.306
301.306
301.306
301.305
301.305
310.328
308.996
307.688
306.411
305.13
304.922
304.726
304.544
304.375
304.219
304.074
303.939
303.813
303.694
303.582
303.476
303.374
303.276
303.181
303.089
302.999
302.912
302.826
302.743
302.661
302.582
302.505
302.431
302.359
302.289
302.223
302.16
302.099
302.042
301.987
301.936
301.888
301.842
301.799
301.759
301.722
301.687
301.655
301.624
301.596
301.57
301.546
301.524
301.504
301.485
301.468
301.452
301.437
301.424
301.412
301.4
301.39
301.381
301.373
301.365
301.358
301.352
301.346
301.341
301.337
301.332
301.329
301.325
301.323
301.32
301.318
301.316
301.314
301.312
301.311
301.31
301.309
301.308
301.307
301.306
301.306
301.306
301.305
301.305
310.329
308.995
307.685
306.409
305.129
304.921
304.725
304.543
304.374
304.218
304.073
303.938
303.812
303.693
303.581
303.475
303.373
303.275
303.181
303.089
302.999
302.911
302.826
302.743
302.661
302.582
302.505
302.431
302.359
302.289
302.223
302.16
302.099
302.042
301.987
301.936
301.888
301.842
301.799
301.759
301.722
301.687
301.655
301.624
301.596
301.57
301.546
301.524
301.504
301.485
301.468
301.452
301.437
301.424
301.412
301.4
301.39
301.381
301.373
301.365
301.358
301.352
301.346
301.341
301.337
301.332
301.329
301.325
301.323
301.32
301.318
301.316
301.314
301.312
301.311
301.31
301.309
301.308
301.307
301.306
301.306
301.306
301.305
301.305
310.328
308.992
307.682
306.407
305.128
304.92
304.724
304.542
304.374
304.217
304.072
303.937
303.811
303.692
303.581
303.474
303.373
303.275
303.18
303.088
302.999
302.911
302.826
302.742
302.661
302.582
302.505
302.431
302.359
302.29
302.223
302.16
302.099
302.042
301.988
301.936
301.888
301.842
301.799
301.759
301.722
301.687
301.655
301.624
301.596
301.57
301.546
301.524
301.504
301.485
301.468
301.452
301.437
301.424
301.412
301.4
301.39
301.381
301.373
301.365
301.358
301.352
301.346
301.341
301.337
301.332
301.329
301.325
301.323
301.32
301.318
301.316
301.314
301.312
301.311
301.31
301.309
301.308
301.307
301.306
301.306
301.306
301.305
301.305
310.327
308.989
307.678
306.403
305.127
304.919
304.724
304.542
304.373
304.217
304.072
303.937
303.81
303.692
303.58
303.474
303.372
303.274
303.18
303.088
302.998
302.911
302.826
302.742
302.661
302.582
302.505
302.431
302.359
302.29
302.223
302.16
302.099
302.042
301.988
301.936
301.888
301.842
301.799
301.759
301.722
301.687
301.655
301.624
301.596
301.57
301.546
301.524
301.504
301.485
301.468
301.452
301.437
301.424
301.412
301.4
301.39
301.381
301.373
301.365
301.358
301.352
301.346
301.341
301.337
301.332
301.329
301.325
301.323
301.32
301.318
301.316
301.314
301.312
301.311
301.31
301.309
301.308
301.307
301.306
301.306
301.306
301.305
301.305
310.322
308.982
307.672
306.399
305.125
304.919
304.723
304.542
304.373
304.217
304.072
303.937
303.81
303.692
303.58
303.474
303.372
303.274
303.18
303.088
302.998
302.911
302.826
302.742
302.661
302.582
302.505
302.431
302.359
302.29
302.223
302.16
302.099
302.042
301.988
301.936
301.888
301.842
301.799
301.759
301.722
301.687
301.655
301.624
301.596
301.571
301.546
301.524
301.504
301.485
301.468
301.452
301.437
301.424
301.412
301.4
301.39
301.381
301.373
301.365
301.358
301.352
301.346
301.341
301.337
301.332
301.329
301.326
301.323
301.32
301.318
301.316
301.314
301.312
301.311
301.31
301.309
301.308
301.307
301.306
301.306
301.306
301.305
301.305
310.323
308.982
307.669
306.396
305.124
304.918
304.723
304.542
304.373
304.217
304.072
303.937
303.81
303.692
303.58
303.474
303.372
303.274
303.18
303.088
302.998
302.911
302.826
302.742
302.661
302.582
302.505
302.431
302.359
302.29
302.223
302.16
302.1
302.042
301.988
301.936
301.888
301.842
301.8
301.759
301.722
301.687
301.655
301.625
301.597
301.571
301.547
301.524
301.504
301.485
301.468
301.452
301.437
301.424
301.412
301.4
301.39
301.381
301.373
301.365
301.358
301.352
301.346
301.341
301.337
301.332
301.329
301.326
301.323
301.32
301.318
301.316
301.314
301.312
301.311
301.31
301.309
301.308
301.307
301.306
301.306
301.306
301.305
301.305
310.323
308.982
307.667
306.394
305.124
304.918
304.723
304.542
304.374
304.218
304.072
303.937
303.811
303.692
303.58
303.474
303.372
303.274
303.18
303.088
302.998
302.911
302.826
302.742
302.661
302.582
302.505
302.431
302.359
302.29
302.223
302.16
302.1
302.042
301.988
301.936
301.888
301.842
301.8
301.76
301.722
301.687
301.655
301.625
301.597
301.571
301.547
301.524
301.504
301.485
301.468
301.452
301.437
301.424
301.412
301.4
301.39
301.381
301.373
301.365
301.358
301.352
301.346
301.341
301.337
301.332
301.329
301.326
301.323
301.32
301.318
301.316
301.314
301.312
301.311
301.31
301.309
301.308
301.307
301.306
301.306
301.306
301.305
301.305
310.325
308.982
307.665
306.392
305.123
304.918
304.724
304.543
304.375
304.218
304.073
303.938
303.811
303.693
303.581
303.474
303.372
303.274
303.18
303.088
302.998
302.911
302.826
302.742
302.661
302.582
302.505
302.431
302.359
302.29
302.223
302.16
302.1
302.042
301.988
301.936
301.888
301.842
301.8
301.76
301.722
301.687
301.655
301.625
301.597
301.571
301.547
301.524
301.504
301.485
301.468
301.452
301.437
301.424
301.412
301.4
301.39
301.381
301.373
301.365
301.358
301.352
301.346
301.341
301.337
301.332
301.329
301.326
301.323
301.32
301.318
301.316
301.314
301.312
301.311
301.31
301.309
301.308
301.307
301.306
301.306
301.306
301.305
301.305
310.323
308.978
307.662
306.391
305.123
304.918
304.725
304.544
304.376
304.22
304.074
303.939
303.812
303.693
303.581
303.475
303.373
303.275
303.18
303.088
302.999
302.911
302.826
302.742
302.661
302.582
302.505
302.431
302.359
302.29
302.223
302.16
302.1
302.042
301.988
301.936
301.888
301.842
301.8
301.76
301.722
301.687
301.655
301.625
301.597
301.571
301.547
301.524
301.504
301.485
301.468
301.452
301.437
301.424
301.412
301.401
301.39
301.381
301.373
301.365
301.358
301.352
301.346
301.341
301.337
301.332
301.329
301.326
301.323
301.32
301.318
301.316
301.314
301.312
301.311
301.31
301.309
301.308
301.307
301.307
301.306
301.306
301.305
301.305
310.321
308.972
307.657
306.39
305.123
304.919
304.726
304.545
304.377
304.221
304.075
303.94
303.813
303.694
303.582
303.475
303.373
303.275
303.18
303.088
302.999
302.911
302.826
302.742
302.661
302.582
302.505
302.431
302.359
302.29
302.223
302.16
302.1
302.042
301.988
301.936
301.888
301.842
301.8
301.76
301.722
301.687
301.655
301.625
301.597
301.571
301.547
301.525
301.504
301.485
301.468
301.452
301.437
301.424
301.412
301.401
301.39
301.381
301.373
301.365
301.358
301.352
301.346
301.341
301.337
301.332
301.329
301.326
301.323
301.32
301.318
301.316
301.314
301.312
301.311
301.31
301.309
301.308
301.307
301.307
301.306
301.306
301.305
301.305
310.316
308.964
307.655
306.39
305.124
304.92
304.727
304.547
304.379
304.222
304.077
303.941
303.814
303.695
303.583
303.476
303.374
303.276
303.181
303.089
302.999
302.911
302.826
302.743
302.661
302.582
302.505
302.431
302.359
302.29
302.223
302.16
302.1
302.042
301.988
301.937
301.888
301.843
301.8
301.76
301.722
301.687
301.655
301.625
301.597
301.571
301.547
301.525
301.504
301.485
301.468
301.452
301.437
301.424
301.412
301.401
301.39
301.381
301.373
301.365
301.358
301.352
301.346
301.341
301.337
301.333
301.329
301.326
301.323
301.32
301.318
301.316
301.314
301.312
301.311
301.31
301.309
301.308
301.307
301.307
301.306
301.306
301.305
301.305
310.316
308.965
307.656
306.393
305.126
304.922
304.729
304.549
304.38
304.224
304.078
303.943
303.816
303.696
303.584
303.477
303.374
303.276
303.181
303.089
302.999
302.912
302.826
302.743
302.661
302.582
302.505
302.431
302.359
302.29
302.223
302.16
302.1
302.042
301.988
301.937
301.888
301.843
301.8
301.76
301.722
301.688
301.655
301.625
301.597
301.571
301.547
301.525
301.504
301.485
301.468
301.452
301.437
301.424
301.412
301.401
301.39
301.381
301.373
301.365
301.358
301.352
301.346
301.341
301.337
301.333
301.329
301.326
301.323
301.32
301.318
301.316
301.314
301.312
301.311
301.31
301.309
301.308
301.307
301.307
301.306
301.306
301.305
301.305
310.319
308.971
307.661
306.397
305.129
304.925
304.731
304.551
304.382
304.226
304.08
303.944
303.817
303.697
303.585
303.477
303.375
303.277
303.181
303.089
302.999
302.912
302.826
302.743
302.661
302.582
302.505
302.431
302.359
302.29
302.223
302.16
302.1
302.042
301.988
301.937
301.888
301.843
301.8
301.76
301.722
301.688
301.655
301.625
301.597
301.571
301.547
301.525
301.504
301.485
301.468
301.452
301.437
301.424
301.412
301.401
301.39
301.381
301.373
301.365
301.358
301.352
301.346
301.341
301.337
301.333
301.329
301.326
301.323
301.32
301.318
301.316
301.314
301.312
301.311
301.31
301.309
301.308
301.307
301.307
301.306
301.306
301.305
301.305
310.321
308.977
307.67
306.403
305.133
304.928
304.734
304.553
304.385
304.228
304.082
303.946
303.818
303.699
303.586
303.478
303.376
303.277
303.182
303.09
303
302.912
302.826
302.743
302.661
302.582
302.505
302.431
302.359
302.29
302.223
302.16
302.1
302.042
301.988
301.937
301.888
301.843
301.8
301.76
301.722
301.688
301.655
301.625
301.597
301.571
301.547
301.525
301.504
301.485
301.468
301.452
301.437
301.424
301.412
301.401
301.39
301.381
301.373
301.365
301.358
301.352
301.346
301.341
301.337
301.333
301.329
301.326
301.323
301.32
301.318
301.316
301.314
301.312
301.311
301.31
301.309
301.308
301.307
301.307
301.306
301.306
301.306
301.305
310.325
308.987
307.681
306.411
305.137
304.931
304.737
304.555
304.387
304.23
304.084
303.947
303.82
303.7
303.587
303.48
303.377
303.278
303.183
303.09
303
302.912
302.826
302.743
302.661
302.582
302.505
302.431
302.359
302.29
302.223
302.16
302.1
302.042
301.988
301.937
301.888
301.843
301.8
301.76
301.723
301.688
301.655
301.625
301.597
301.571
301.547
301.525
301.504
301.485
301.468
301.452
301.437
301.424
301.412
301.401
301.391
301.381
301.373
301.365
301.358
301.352
301.346
301.341
301.337
301.333
301.329
301.326
301.323
301.32
301.318
301.316
301.314
301.312
301.311
301.31
301.309
301.308
301.307
301.307
301.306
301.306
301.306
301.305
310.328
308.996
307.692
306.418
305.141
304.933
304.739
304.557
304.389
304.232
304.086
303.949
303.822
303.702
303.589
303.481
303.378
303.279
303.183
303.091
303
302.912
302.827
302.743
302.661
302.582
302.505
302.431
302.359
302.29
302.223
302.16
302.1
302.042
301.988
301.937
301.888
301.843
301.8
301.76
301.723
301.688
301.655
301.625
301.597
301.571
301.547
301.525
301.504
301.485
301.468
301.452
301.438
301.424
301.412
301.401
301.391
301.381
301.373
301.365
301.358
301.352
301.346
301.341
301.337
301.333
301.329
301.326
301.323
301.32
301.318
301.316
301.314
301.312
301.311
301.31
301.309
301.308
301.307
301.307
301.306
301.306
301.306
301.305
310.329
309.001
307.698
306.421
305.142
304.934
304.74
304.559
304.39
304.233
304.087
303.951
303.824
303.704
303.59
303.482
303.379
303.28
303.184
303.091
303.001
302.913
302.827
302.743
302.661
302.582
302.505
302.431
302.359
302.29
302.223
302.16
302.1
302.042
301.988
301.937
301.888
301.843
301.8
301.76
301.723
301.688
301.655
301.625
301.597
301.571
301.547
301.525
301.504
301.486
301.468
301.452
301.438
301.424
301.412
301.401
301.391
301.381
301.373
301.365
301.358
301.352
301.346
301.341
301.337
301.333
301.329
301.326
301.323
301.32
301.318
301.316
301.314
301.312
301.311
301.31
301.309
301.308
301.307
301.307
301.306
301.306
301.306
301.305
310.327
308.995
307.69
306.413
305.138
304.933
304.739
304.559
304.391
304.235
304.089
303.953
303.826
303.705
303.592
303.484
303.381
303.281
303.185
303.092
303.001
302.913
302.827
302.743
302.662
302.582
302.505
302.43
302.359
302.289
302.223
302.16
302.1
302.042
301.988
301.937
301.888
301.843
301.8
301.76
301.723
301.688
301.655
301.625
301.597
301.571
301.547
301.525
301.504
301.486
301.468
301.452
301.438
301.424
301.412
301.401
301.391
301.381
301.373
301.365
301.358
301.352
301.346
301.341
301.337
301.333
301.329
301.326
301.323
301.32
301.318
301.316
301.314
301.312
301.311
301.31
301.309
301.308
301.307
301.307
301.306
301.306
301.306
301.305
310.321
308.972
307.656
306.388
305.128
304.928
304.737
304.559
304.392
304.236
304.091
303.955
303.828
303.708
303.594
303.486
303.382
303.283
303.186
303.093
303.002
302.914
302.828
302.743
302.662
302.582
302.505
302.43
302.359
302.289
302.223
302.16
302.1
302.042
301.988
301.937
301.888
301.843
301.8
301.76
301.723
301.688
301.655
301.625
301.597
301.571
301.547
301.525
301.505
301.486
301.468
301.452
301.438
301.424
301.412
301.401
301.391
301.381
301.373
301.365
301.358
301.352
301.346
301.341
301.337
301.333
301.329
301.326
301.323
301.32
301.318
301.316
301.314
301.312
301.311
301.31
301.309
301.308
301.307
301.307
301.306
301.306
301.306
301.305
310.307
308.926
307.597
306.348
305.112
304.92
304.734
304.558
304.393
304.238
304.093
303.957
303.83
303.71
303.596
303.488
303.384
303.284
303.188
303.094
303.003
302.914
302.828
302.744
302.662
302.582
302.505
302.43
302.358
302.289
302.223
302.16
302.099
302.042
301.988
301.937
301.888
301.843
301.8
301.76
301.723
301.688
301.655
301.625
301.597
301.571
301.547
301.525
301.505
301.486
301.468
301.452
301.438
301.424
301.412
301.401
301.391
301.381
301.373
301.365
301.358
301.352
301.346
301.341
301.337
301.333
301.329
301.326
301.323
301.32
301.318
301.316
301.314
301.312
301.311
301.31
301.309
301.308
301.307
301.307
301.306
301.306
301.306
301.305
310.291
308.882
307.547
306.316
305.099
304.913
304.731
304.557
304.393
304.24
304.095
303.96
303.833
303.712
303.598
303.49
303.386
303.286
303.189
303.095
303.004
302.915
302.828
302.744
302.662
302.582
302.505
302.43
302.358
302.289
302.223
302.16
302.099
302.042
301.988
301.937
301.888
301.843
301.8
301.76
301.723
301.688
301.656
301.625
301.597
301.571
301.547
301.525
301.505
301.486
301.468
301.452
301.438
301.424
301.412
301.401
301.391
301.381
301.373
301.365
301.358
301.352
301.346
301.341
301.337
301.333
301.329
301.326
301.323
301.32
301.318
301.316
301.314
301.312
301.311
301.31
301.309
301.308
301.307
301.307
301.306
301.306
301.306
301.305
310.279
308.859
307.53
306.308
305.093
304.91
304.73
304.558
304.395
304.242
304.098
303.963
303.835
303.715
303.601
303.492
303.388
303.288
303.191
303.096
303.005
302.916
302.829
302.744
302.662
302.582
302.505
302.43
302.358
302.289
302.223
302.16
302.099
302.042
301.988
301.937
301.888
301.843
301.8
301.76
301.723
301.688
301.656
301.625
301.597
301.571
301.547
301.525
301.505
301.486
301.468
301.453
301.438
301.424
301.412
301.401
301.391
301.382
301.373
301.365
301.358
301.352
301.347
301.341
301.337
301.333
301.329
301.326
301.323
301.32
301.318
301.316
301.314
301.312
301.311
301.31
301.309
301.308
301.307
301.307
301.306
301.306
301.306
301.305
310.281
308.871
307.554
306.327
305.1
304.914
304.732
304.56
304.398
304.245
304.101
303.966
303.839
303.718
303.604
303.495
303.39
303.29
303.192
303.098
303.006
302.917
302.83
302.745
302.663
302.583
302.505