/*--------------------------------*- C++ -*----------------------------------*\
  =========                 |
  \\      /  F ield         | OpenFOAM: The Open Source CFD Toolbox
   \\    /   O peration     | Website:  https://openfoam.org
    \\  /    A nd           | Version:  6
     \\/     M anipulation  |
\*---------------------------------------------------------------------------*/
FoamFile
{
    version     2.0;
    format      ascii;
    class       volVectorField;
    location    "30";
    object      U;
}
// * * * * * * * * * * * * * * * * * * * * * * * * * * * * * * * * * * * * * //

dimensions      [0 1 -1 0 0 0 0];

internalField   nonuniform List<vector> 
5964
(
(-0.00255137 0 -0.00181061)
(-0.00180716 0 -0.000811888)
(-0.000606946 0 -0.0025368)
(1.94731e-05 0 3.63803e-05)
(7.16177e-09 0 1.27911e-08)
(3.41892e-09 0 9.2665e-10)
(5.30693e-09 0 4.61228e-10)
(4.50529e-09 0 2.88877e-10)
(3.97372e-09 0 2.07232e-10)
(3.57904e-09 0 1.60537e-10)
(3.2665e-09 0 1.3035e-10)
(3.00882e-09 0 1.0925e-10)
(2.7904e-09 0 9.36964e-11)
(2.60144e-09 0 8.1774e-11)
(2.4354e-09 0 7.23499e-11)
(2.28772e-09 0 6.47119e-11)
(2.15508e-09 0 5.83909e-11)
(2.03501e-09 0 5.30656e-11)
(1.92562e-09 0 4.85078e-11)
(1.82546e-09 0 4.45479e-11)
(1.73338e-09 0 4.10489e-11)
(1.64854e-09 0 3.78733e-11)
(1.56984e-09 0 3.5424e-11)
(1.49624e-09 0 3.31751e-11)
(1.42733e-09 0 3.11237e-11)
(1.36269e-09 0 2.92558e-11)
(1.30194e-09 0 2.75525e-11)
(1.24473e-09 0 2.59955e-11)
(1.19077e-09 0 2.45681e-11)
(1.13979e-09 0 2.32563e-11)
(1.09154e-09 0 2.20475e-11)
(1.04581e-09 0 2.09311e-11)
(1.00241e-09 0 1.98977e-11)
(9.61161e-10 0 1.89395e-11)
(9.21906e-10 0 1.80492e-11)
(8.84504e-10 0 1.72208e-11)
(8.48824e-10 0 1.64487e-11)
(8.14748e-10 0 1.57283e-11)
(7.82168e-10 0 1.50553e-11)
(7.50984e-10 0 1.44257e-11)
(7.21104e-10 0 1.38363e-11)
(6.92445e-10 0 1.3284e-11)
(6.64929e-10 0 1.2766e-11)
(6.38484e-10 0 1.22798e-11)
(6.13044e-10 0 1.18232e-11)
(5.88546e-10 0 1.13941e-11)
(5.64933e-10 0 1.09907e-11)
(5.42151e-10 0 1.06112e-11)
(5.20151e-10 0 1.02542e-11)
(4.98885e-10 0 9.91808e-12)
(4.78311e-10 0 9.60168e-12)
(4.58387e-10 0 9.30374e-12)
(4.39075e-10 0 9.02316e-12)
(4.20338e-10 0 8.75893e-12)
(4.02143e-10 0 8.5101e-12)
(3.84458e-10 0 8.27581e-12)
(3.67253e-10 0 8.05526e-12)
(3.50499e-10 0 7.84771e-12)
(3.34169e-10 0 7.65247e-12)
(3.18237e-10 0 7.46891e-12)
(3.02681e-10 0 7.29646e-12)
(2.87476e-10 0 7.13455e-12)
(2.726e-10 0 6.98271e-12)
(2.58034e-10 0 6.84046e-12)
(2.43757e-10 0 6.70739e-12)
(2.2975e-10 0 6.58309e-12)
(2.15994e-10 0 6.4672e-12)
(2.02474e-10 0 6.3594e-12)
(1.89171e-10 0 6.25937e-12)
(1.76071e-10 0 6.16683e-12)
(1.63156e-10 0 6.08153e-12)
(1.50413e-10 0 6.00324e-12)
(1.37827e-10 0 5.93173e-12)
(1.25384e-10 0 5.86683e-12)
(1.1307e-10 0 5.80835e-12)
(1.00871e-10 0 5.75615e-12)
(8.87755e-11 0 5.71011e-12)
(7.67698e-11 0 5.67011e-12)
(6.48415e-11 0 5.6361e-12)
(5.29779e-11 0 5.60806e-12)
(4.11665e-11 0 5.58616e-12)
(2.93937e-11 0 5.57101e-12)
(1.76428e-11 0 5.56493e-12)
(5.88524e-12 0 5.57684e-12)
(-0.00198243 0 0.00275881)
(-0.00130582 0 -0.000264553)
(-0.000397611 0 -0.00425191)
(1.03134e-05 0 0.000453691)
(4.41029e-09 0 2.49555e-08)
(2.76741e-09 0 1.77729e-09)
(4.71116e-09 0 1.1251e-09)
(4.26921e-09 0 7.86074e-10)
(3.85534e-09 0 5.90245e-10)
(3.50881e-09 0 4.66436e-10)
(3.22017e-09 0 3.82448e-10)
(2.97614e-09 0 3.22308e-10)
(2.76625e-09 0 2.77384e-10)
(2.58298e-09 0 2.42663e-10)
(2.42091e-09 0 2.15069e-10)
(2.27609e-09 0 1.92618e-10)
(2.14557e-09 0 1.73987e-10)
(2.02711e-09 0 1.5826e-10)
(1.91896e-09 0 1.44781e-10)
(1.81975e-09 0 1.33064e-10)
(1.72838e-09 0 1.22727e-10)
(1.6439e-09 0 1.13429e-10)
(1.56545e-09 0 1.06025e-10)
(1.49221e-09 0 9.92969e-11)
(1.42366e-09 0 9.31807e-11)
(1.35934e-09 0 8.76164e-11)
(1.29888e-09 0 8.25424e-11)
(1.24194e-09 0 7.79025e-11)
(1.18821e-09 0 7.36476e-11)
(1.13743e-09 0 6.97351e-11)
(1.08936e-09 0 6.61283e-11)
(1.0438e-09 0 6.27956e-11)
(1.00054e-09 0 5.97095e-11)
(9.59428e-10 0 5.68463e-11)
(9.20295e-10 0 5.41852e-11)
(8.83004e-10 0 5.17079e-11)
(8.47425e-10 0 4.93984e-11)
(8.13442e-10 0 4.72425e-11)
(7.80947e-10 0 4.52275e-11)
(7.49841e-10 0 4.33423e-11)
(7.20034e-10 0 4.15766e-11)
(6.91442e-10 0 3.99215e-11)
(6.63988e-10 0 3.83687e-11)
(6.376e-10 0 3.6911e-11)
(6.12213e-10 0 3.55416e-11)
(5.87765e-10 0 3.42544e-11)
(5.64199e-10 0 3.30439e-11)
(5.4146e-10 0 3.19051e-11)
(5.19501e-10 0 3.08332e-11)
(4.98274e-10 0 2.98242e-11)
(4.77735e-10 0 2.8874e-11)
(4.57845e-10 0 2.79791e-11)
(4.38564e-10 0 2.71362e-11)
(4.19857e-10 0 2.63423e-11)
(4.0169e-10 0 2.55946e-11)
(3.84032e-10 0 2.48904e-11)
(3.66851e-10 0 2.42274e-11)
(3.50121e-10 0 2.36035e-11)
(3.33813e-10 0 2.30164e-11)
(3.17904e-10 0 2.24645e-11)
(3.02367e-10 0 2.19458e-11)
(2.87181e-10 0 2.14589e-11)
(2.72325e-10 0 2.10021e-11)
(2.57776e-10 0 2.05742e-11)
(2.43515e-10 0 2.01739e-11)
(2.29524e-10 0 1.97999e-11)
(2.15785e-10 0 1.94512e-11)
(2.02279e-10 0 1.91268e-11)
(1.88991e-10 0 1.88258e-11)
(1.75904e-10 0 1.85474e-11)
(1.63003e-10 0 1.82907e-11)
(1.50273e-10 0 1.80551e-11)
(1.37699e-10 0 1.78399e-11)
(1.25268e-10 0 1.76446e-11)
(1.12966e-10 0 1.74686e-11)
(1.00779e-10 0 1.73116e-11)
(8.86949e-11 0 1.7173e-11)
(7.67004e-11 0 1.70527e-11)
(6.47833e-11 0 1.69503e-11)
(5.29311e-11 0 1.68658e-11)
(4.11318e-11 0 1.67993e-11)
(2.93738e-11 0 1.67518e-11)
(1.76483e-11 0 1.67257e-11)
(5.89641e-12 0 1.67283e-11)
(-0.00161312 0 0.00341498)
(-0.000650708 0 -0.000150101)
(-0.000492605 0 -0.00487649)
(2.26229e-06 0 0.00121645)
(5.06147e-09 0 3.55239e-07)
(2.31134e-09 0 1.99005e-09)
(4.38212e-09 0 1.51334e-09)
(4.00804e-09 0 1.15694e-09)
(3.67799e-09 0 9.09545e-10)
(3.38794e-09 0 7.36954e-10)
(3.13491e-09 0 6.13227e-10)
(2.91369e-09 0 5.2166e-10)
(2.71896e-09 0 4.51797e-10)
(2.54613e-09 0 3.97016e-10)
(2.39149e-09 0 3.53024e-10)
(2.25211e-09 0 3.16958e-10)
(2.12568e-09 0 2.86855e-10)
(2.01036e-09 0 2.61332e-10)
(1.90465e-09 0 2.39389e-10)
(1.80736e-09 0 2.2028e-10)
(1.71748e-09 0 2.0343e-10)
(1.63414e-09 0 1.88379e-10)
(1.55662e-09 0 1.76008e-10)
(1.4842e-09 0 1.64851e-10)
(1.41638e-09 0 1.54741e-10)
(1.35272e-09 0 1.45549e-10)
(1.29283e-09 0 1.37167e-10)
(1.23639e-09 0 1.29498e-10)
(1.18312e-09 0 1.22463e-10)
(1.13274e-09 0 1.1599e-10)
(1.08504e-09 0 1.10019e-10)
(1.03979e-09 0 1.045e-10)
(9.96833e-10 0 9.9386e-11)
(9.55982e-10 0 9.46395e-11)
(9.17089e-10 0 9.02261e-11)
(8.80016e-10 0 8.6116e-11)
(8.44638e-10 0 8.22828e-11)
(8.10838e-10 0 7.87033e-11)
(7.78512e-10 0 7.53567e-11)
(7.47561e-10 0 7.22245e-11)
(7.17897e-10 0 6.92902e-11)
(6.89438e-10 0 6.65389e-11)
(6.62107e-10 0 6.39572e-11)
(6.35834e-10 0 6.15329e-11)
(6.10553e-10 0 5.92549e-11)
(5.86204e-10 0 5.71134e-11)
(5.6273e-10 0 5.5099e-11)
(5.40078e-10 0 5.32035e-11)
(5.182e-10 0 5.14192e-11)
(4.97049e-10 0 4.97391e-11)
(4.76581e-10 0 4.81569e-11)
(4.56758e-10 0 4.66665e-11)
(4.3754e-10 0 4.52625e-11)
(4.18893e-10 0 4.39399e-11)
(4.00782e-10 0 4.26941e-11)
(3.83177e-10 0 4.15208e-11)
(3.66046e-10 0 4.04159e-11)
(3.49363e-10 0 3.9376e-11)
(3.33101e-10 0 3.83975e-11)
(3.17234e-10 0 3.74774e-11)
(3.01738e-10 0 3.66128e-11)
(2.86591e-10 0 3.5801e-11)
(2.71771e-10 0 3.50394e-11)
(2.57257e-10 0 3.43259e-11)
(2.43031e-10 0 3.36583e-11)
(2.29072e-10 0 3.30346e-11)
(2.15364e-10 0 3.24531e-11)
(2.01888e-10 0 3.19122e-11)
(1.88628e-10 0 3.14101e-11)
(1.75569e-10 0 3.09457e-11)
(1.62695e-10 0 3.05176e-11)
(1.49991e-10 0 3.01246e-11)
(1.37442e-10 0 2.97657e-11)
(1.25036e-10 0 2.94399e-11)
(1.12757e-10 0 2.91464e-11)
(1.00594e-10 0 2.88844e-11)
(8.85328e-11 0 2.86533e-11)
(7.6561e-11 0 2.84525e-11)
(6.46663e-11 0 2.82816e-11)
(5.28364e-11 0 2.81403e-11)
(4.10597e-11 0 2.80285e-11)
(2.93246e-11 0 2.79463e-11)
(1.76208e-11 0 2.78937e-11)
(5.88774e-12 0 2.7868e-11)
(-0.00141599 0 0.00409358)
(-0.000313297 0 0.00022109)
(-0.000441066 0 -0.00506112)
(-1.57181e-08 0 0.00124064)
(4.15117e-09 0 2.97895e-07)
(2.03742e-09 0 2.27712e-09)
(3.93491e-09 0 1.79665e-09)
(3.70749e-09 0 1.43248e-09)
(3.46562e-09 0 1.16352e-09)
(3.23477e-09 0 9.64898e-10)
(3.02189e-09 0 8.1607e-10)
(2.82819e-09 0 7.02232e-10)
(2.65264e-09 0 6.13218e-10)
(2.4935e-09 0 5.42123e-10)
(2.34887e-09 0 4.84226e-10)
(2.21697e-09 0 4.36247e-10)
(2.09624e-09 0 3.95866e-10)
(1.98534e-09 0 3.61408e-10)
(1.88313e-09 0 3.31637e-10)
(1.78862e-09 0 3.05623e-10)
(1.70097e-09 0 2.82652e-10)
(1.61944e-09 0 2.62163e-10)
(1.54341e-09 0 2.44983e-10)
(1.47227e-09 0 2.29516e-10)
(1.40556e-09 0 2.15512e-10)
(1.34287e-09 0 2.02782e-10)
(1.28383e-09 0 1.91167e-10)
(1.22815e-09 0 1.80536e-10)
(1.17554e-09 0 1.70775e-10)
(1.12576e-09 0 1.6179e-10)
(1.07859e-09 0 1.53497e-10)
(1.03383e-09 0 1.45826e-10)
(9.91299e-10 0 1.38717e-10)
(9.5084e-10 0 1.32114e-10)
(9.12304e-10 0 1.25973e-10)
(8.75557e-10 0 1.20251e-10)
(8.40476e-10 0 1.14914e-10)
(8.06949e-10 0 1.09928e-10)
(7.74873e-10 0 1.05265e-10)
(7.44154e-10 0 1.009e-10)
(7.14704e-10 0 9.68103e-11)
(6.86442e-10 0 9.29746e-11)
(6.59295e-10 0 8.93746e-11)
(6.33192e-10 0 8.59936e-11)
(6.0807e-10 0 8.28162e-11)
(5.83869e-10 0 7.98286e-11)
(5.60533e-10 0 7.70181e-11)
(5.38011e-10 0 7.43732e-11)
(5.16253e-10 0 7.18832e-11)
(4.95215e-10 0 6.95384e-11)
(4.74855e-10 0 6.73299e-11)
(4.55131e-10 0 6.52494e-11)
(4.36008e-10 0 6.32894e-11)
(4.17449e-10 0 6.14429e-11)
(3.99422e-10 0 5.97034e-11)
(3.81896e-10 0 5.80651e-11)
(3.64841e-10 0 5.65223e-11)
(3.48229e-10 0 5.507e-11)
(3.32034e-10 0 5.37035e-11)
(3.1623e-10 0 5.24184e-11)
(3.00795e-10 0 5.12107e-11)
(2.85706e-10 0 5.00768e-11)
(2.70942e-10 0 4.9013e-11)
(2.56481e-10 0 4.80163e-11)
(2.42305e-10 0 4.70836e-11)
(2.28395e-10 0 4.62124e-11)
(2.14732e-10 0 4.54e-11)
(2.01301e-10 0 4.46441e-11)
(1.88085e-10 0 4.39427e-11)
(1.75067e-10 0 4.32938e-11)
(1.62233e-10 0 4.26956e-11)
(1.49568e-10 0 4.21465e-11)
(1.37057e-10 0 4.1645e-11)
(1.24688e-10 0 4.11898e-11)
(1.12445e-10 0 4.07797e-11)
(1.00317e-10 0 4.04136e-11)
(8.829e-11 0 4.00906e-11)
(7.6352e-11 0 3.98099e-11)
(6.44906e-11 0 3.95709e-11)
(5.26939e-11 0 3.9373e-11)
(4.09499e-11 0 3.92159e-11)
(2.92473e-11 0 3.90991e-11)
(1.75749e-11 0 3.90221e-11)
(5.87238e-12 0 3.89835e-11)
(-0.00128225 0 0.00467625)
(-0.000318027 0 0.000135539)
(-0.000435131 0 -0.0051981)
(-7.93394e-07 0 0.000909166)
(4.26267e-09 0 3.61166e-07)
(1.85849e-09 0 2.45055e-09)
(3.59522e-09 0 1.97809e-09)
(3.4189e-09 0 1.6246e-09)
(3.24368e-09 0 1.35587e-09)
(3.06599e-09 0 1.14922e-09)
(2.89224e-09 0 9.88285e-10)
(2.72692e-09 0 8.61094e-10)
(2.57212e-09 0 7.58984e-10)
(2.42833e-09 0 6.75714e-10)
(2.29525e-09 0 6.06784e-10)
(2.17219e-09 0 5.48925e-10)
(2.05835e-09 0 4.99732e-10)
(1.95288e-09 0 4.57419e-10)
(1.85501e-09 0 4.20633e-10)
(1.76401e-09 0 3.88341e-10)
(1.67924e-09 0 3.59736e-10)
(1.60007e-09 0 3.34191e-10)
(1.52602e-09 0 3.12473e-10)
(1.45657e-09 0 2.92901e-10)
(1.39132e-09 0 2.7517e-10)
(1.32989e-09 0 2.59038e-10)
(1.27198e-09 0 2.44307e-10)
(1.21728e-09 0 2.3081e-10)
(1.16554e-09 0 2.18408e-10)
(1.11654e-09 0 2.06982e-10)
(1.07007e-09 0 1.96428e-10)
(1.02594e-09 0 1.8666e-10)
(9.83978e-10 0 1.776e-10)
(9.44034e-10 0 1.69182e-10)
(9.05968e-10 0 1.61349e-10)
(8.69649e-10 0 1.54047e-10)
(8.3496e-10 0 1.47233e-10)
(8.01793e-10 0 1.40866e-10)
(7.70048e-10 0 1.34909e-10)
(7.39635e-10 0 1.29331e-10)
(7.10467e-10 0 1.24103e-10)
(6.82467e-10 0 1.192e-10)
(6.55562e-10 0 1.14596e-10)
(6.29685e-10 0 1.10272e-10)
(6.04773e-10 0 1.06207e-10)
(5.80768e-10 0 1.02384e-10)
(5.57616e-10 0 9.8788e-11)
(5.35264e-10 0 9.5403e-11)
(5.13667e-10 0 9.22158e-11)
(4.9278e-10 0 8.92142e-11)
(4.7256e-10 0 8.63867e-11)
(4.5297e-10 0 8.37228e-11)
(4.33972e-10 0 8.1213e-11)
(4.15531e-10 0 7.88483e-11)
(3.97615e-10 0 7.66205e-11)
(3.80194e-10 0 7.4522e-11)
(3.63238e-10 0 7.25458e-11)
(3.46721e-10 0 7.06854e-11)
(3.30615e-10 0 6.89347e-11)
(3.14897e-10 0 6.72883e-11)
(2.99543e-10 0 6.57409e-11)
(2.8453e-10 0 6.42879e-11)
(2.69839e-10 0 6.29248e-11)
(2.55449e-10 0 6.16475e-11)
(2.4134e-10 0 6.04523e-11)
(2.27494e-10 0 5.93357e-11)
(2.13893e-10 0 5.82945e-11)
(2.00522e-10 0 5.73258e-11)
(1.87362e-10 0 5.64267e-11)
(1.744e-10 0 5.5595e-11)
(1.61619e-10 0 5.48282e-11)
(1.49006e-10 0 5.41243e-11)
(1.36545e-10 0 5.34814e-11)
(1.24225e-10 0 5.28978e-11)
(1.1203e-10 0 5.2372e-11)
(9.99481e-11 0 5.19027e-11)
(8.79669e-11 0 5.14885e-11)
(7.60738e-11 0 5.11286e-11)
(6.42567e-11 0 5.08219e-11)
(5.25036e-11 0 5.05678e-11)
(4.08029e-11 0 5.03657e-11)
(2.9143e-11 0 5.02148e-11)
(1.75125e-11 0 5.01147e-11)
(5.85156e-12 0 5.00647e-11)
(-0.00116316 0 0.00516205)
(-0.000342183 0 9.60897e-05)
(-0.000336506 0 -0.00539502)
(-1.2041e-06 0 0.000443644)
(2.65455e-09 0 2.45955e-08)
(1.758e-09 0 2.46564e-09)
(3.16541e-09 0 2.05494e-09)
(3.12854e-09 0 1.7424e-09)
(3.02401e-09 0 1.4938e-09)
(2.89396e-09 0 1.2935e-09)
(2.75536e-09 0 1.13094e-09)
(2.61663e-09 0 9.98001e-10)
(2.48212e-09 0 8.88267e-10)
(2.35395e-09 0 7.96769e-10)
(2.23302e-09 0 7.19674e-10)
(2.11952e-09 0 6.54038e-10)
(2.01328e-09 0 5.97602e-10)
(1.91392e-09 0 5.48616e-10)
(1.82102e-09 0 5.05723e-10)
(1.73411e-09 0 4.67856e-10)
(1.65271e-09 0 4.34173e-10)
(1.57637e-09 0 4.0401e-10)
(1.50471e-09 0 3.78086e-10)
(1.4373e-09 0 3.54672e-10)
(1.37382e-09 0 3.33426e-10)
(1.31393e-09 0 3.14067e-10)
(1.25737e-09 0 2.96365e-10)
(1.20387e-09 0 2.80126e-10)
(1.1532e-09 0 2.65187e-10)
(1.10515e-09 0 2.51409e-10)
(1.05954e-09 0 2.38672e-10)
(1.01618e-09 0 2.26873e-10)
(9.74914e-10 0 2.15921e-10)
(9.35605e-10 0 2.05739e-10)
(8.98115e-10 0 1.96258e-10)
(8.62323e-10 0 1.87416e-10)
(8.28118e-10 0 1.79161e-10)
(7.95395e-10 0 1.71443e-10)
(7.6406e-10 0 1.6422e-10)
(7.34023e-10 0 1.57455e-10)
(7.05205e-10 0 1.51112e-10)
(6.77529e-10 0 1.4516e-10)
(6.50925e-10 0 1.39572e-10)
(6.25327e-10 0 1.34321e-10)
(6.00676e-10 0 1.29384e-10)
(5.76914e-10 0 1.24741e-10)
(5.53988e-10 0 1.20371e-10)
(5.31849e-10 0 1.16258e-10)
(5.10451e-10 0 1.12384e-10)
(4.8975e-10 0 1.08736e-10)
(4.69706e-10 0 1.05299e-10)
(4.50281e-10 0 1.0206e-10)
(4.31438e-10 0 9.9008e-11)
(4.13144e-10 0 9.61323e-11)
(3.95366e-10 0 9.34228e-11)
(3.78076e-10 0 9.08704e-11)
(3.61244e-10 0 8.84665e-11)
(3.44843e-10 0 8.62032e-11)
(3.28849e-10 0 8.40733e-11)
(3.13236e-10 0 8.20701e-11)
(2.97983e-10 0 8.01873e-11)
(2.83066e-10 0 7.84191e-11)
(2.68466e-10 0 7.67602e-11)
(2.54163e-10 0 7.52057e-11)
(2.40137e-10 0 7.3751e-11)
(2.26372e-10 0 7.23919e-11)
(2.12848e-10 0 7.11245e-11)
(1.9955e-10 0 6.99453e-11)
(1.86462e-10 0 6.88508e-11)
(1.73569e-10 0 6.78382e-11)
(1.60854e-10 0 6.69047e-11)
(1.48305e-10 0 6.60477e-11)
(1.35908e-10 0 6.52649e-11)
(1.23648e-10 0 6.45544e-11)
(1.11512e-10 0 6.39141e-11)
(9.94885e-11 0 6.33425e-11)
(8.75643e-11 0 6.28382e-11)
(7.5727e-11 0 6.23997e-11)
(6.39649e-11 0 6.20261e-11)
(5.22661e-11 0 6.17163e-11)
(4.0619e-11 0 6.14696e-11)
(2.90121e-11 0 6.12853e-11)
(1.74341e-11 0 6.11628e-11)
(5.82542e-12 0 6.11015e-11)
(-0.00110463 0 0.00555504)
(-0.000326449 0 0.000106655)
(-0.000297879 0 -0.00560216)
(-1.7724e-07 0 0.000187157)
(2.69451e-09 0 2.53831e-08)
(1.65021e-09 0 2.28393e-09)
(2.92174e-09 0 2.04536e-09)
(2.89711e-09 0 1.80413e-09)
(2.82686e-09 0 1.58941e-09)
(2.72962e-09 0 1.40471e-09)
(2.61881e-09 0 1.24769e-09)
(2.50284e-09 0 1.1146e-09)
(2.38674e-09 0 1.0016e-09)
(2.27342e-09 0 9.05234e-10)
(2.16447e-09 0 8.22551e-10)
(2.06067e-09 0 7.51122e-10)
(1.96234e-09 0 6.88971e-10)
(1.86948e-09 0 6.34504e-10)
(1.78195e-09 0 5.86437e-10)
(1.69951e-09 0 5.43735e-10)
(1.62188e-09 0 5.0556e-10)
(1.54872e-09 0 4.71256e-10)
(1.47977e-09 0 4.41496e-10)
(1.4147e-09 0 4.14542e-10)
(1.35325e-09 0 3.90026e-10)
(1.29515e-09 0 3.67644e-10)
(1.24016e-09 0 3.47141e-10)
(1.18805e-09 0 3.28303e-10)
(1.13862e-09 0 3.1095e-10)
(1.09168e-09 0 2.94925e-10)
(1.04707e-09 0 2.80095e-10)
(1.00461e-09 0 2.66344e-10)
(9.64165e-10 0 2.53569e-10)
(9.256e-10 0 2.41683e-10)
(8.8879e-10 0 2.30607e-10)
(8.5362e-10 0 2.20272e-10)
(8.19985e-10 0 2.10616e-10)
(7.87786e-10 0 2.01586e-10)
(7.56935e-10 0 1.93131e-10)
(7.27345e-10 0 1.85208e-10)
(6.98941e-10 0 1.77777e-10)
(6.71648e-10 0 1.70802e-10)
(6.454e-10 0 1.6425e-10)
(6.20135e-10 0 1.58093e-10)
(5.95792e-10 0 1.52303e-10)
(5.72319e-10 0 1.46856e-10)
(5.49663e-10 0 1.41729e-10)
(5.27777e-10 0 1.36901e-10)
(5.06615e-10 0 1.32354e-10)
(4.86137e-10 0 1.28071e-10)
(4.66302e-10 0 1.24035e-10)
(4.47073e-10 0 1.20232e-10)
(4.28415e-10 0 1.16647e-10)
(4.10295e-10 0 1.13269e-10)
(3.92682e-10 0 1.10086e-10)
(3.75548e-10 0 1.07087e-10)
(3.58863e-10 0 1.04263e-10)
(3.42602e-10 0 1.01603e-10)
(3.2674e-10 0 9.90997e-11)
(3.11254e-10 0 9.67451e-11)
(2.9612e-10 0 9.4532e-11)
(2.81318e-10 0 9.24533e-11)
(2.66827e-10 0 9.05031e-11)
(2.52628e-10 0 8.86754e-11)
(2.38702e-10 0 8.69649e-11)
(2.25031e-10 0 8.53668e-11)
(2.116e-10 0 8.38763e-11)
(1.9839e-10 0 8.24895e-11)
(1.85387e-10 0 8.12023e-11)
(1.72575e-10 0 8.00113e-11)
(1.59941e-10 0 7.89132e-11)
(1.47469e-10 0 7.79051e-11)
(1.35145e-10 0 7.69844e-11)
(1.22958e-10 0 7.61484e-11)
(1.10894e-10 0 7.53952e-11)
(9.89393e-11 0 7.47227e-11)
(8.7083e-11 0 7.41292e-11)
(7.53125e-11 0 7.36133e-11)
(6.3616e-11 0 7.31735e-11)
(5.19819e-11 0 7.28088e-11)
(4.03988e-11 0 7.25182e-11)
(2.88553e-11 0 7.2301e-11)
(1.73401e-11 0 7.21564e-11)
(5.79408e-12 0 7.20841e-11)
(-0.000991956 0 0.00590109)
(-0.000283223 0 9.64998e-05)
(-0.000284112 0 -0.00579276)
(3.05774e-07 0 -8.50939e-05)
(2.50485e-09 0 2.48323e-08)
(1.53945e-09 0 2.24447e-09)
(2.71997e-09 0 2.03812e-09)
(2.70531e-09 0 1.84269e-09)
(2.65355e-09 0 1.65875e-09)
(2.5774e-09 0 1.4917e-09)
(2.487e-09 0 1.3435e-09)
(2.38937e-09 0 1.21363e-09)
(2.28912e-09 0 1.1004e-09)
(2.18924e-09 0 1.00174e-09)
(2.09157e-09 0 9.156e-10)
(1.99721e-09 0 8.40107e-10)
(1.90677e-09 0 7.73637e-10)
(1.82053e-09 0 7.14812e-10)
(1.73858e-09 0 6.62479e-10)
(1.66086e-09 0 6.15675e-10)
(1.58724e-09 0 5.73605e-10)
(1.51752e-09 0 5.35646e-10)
(1.45154e-09 0 5.02445e-10)
(1.38905e-09 0 4.72274e-10)
(1.32985e-09 0 4.44756e-10)
(1.27373e-09 0 4.19573e-10)
(1.22049e-09 0 3.96457e-10)
(1.16994e-09 0 3.7518e-10)
(1.12191e-09 0 3.55549e-10)
(1.07623e-09 0 3.37396e-10)
(1.03274e-09 0 3.20574e-10)
(9.91309e-10 0 3.04959e-10)
(9.51795e-10 0 2.90439e-10)
(9.14077e-10 0 2.76917e-10)
(8.78042e-10 0 2.64307e-10)
(8.43582e-10 0 2.52532e-10)
(8.106e-10 0 2.41525e-10)
(7.79002e-10 0 2.31224e-10)
(7.48705e-10 0 2.21575e-10)
(7.19629e-10 0 2.12529e-10)
(6.91699e-10 0 2.04041e-10)
(6.64848e-10 0 1.96071e-10)
(6.39011e-10 0 1.88582e-10)
(6.14127e-10 0 1.81542e-10)
(5.90141e-10 0 1.7492e-10)
(5.67e-10 0 1.68689e-10)
(5.44656e-10 0 1.62822e-10)
(5.23061e-10 0 1.57297e-10)
(5.02173e-10 0 1.52092e-10)
(4.81951e-10 0 1.47188e-10)
(4.62357e-10 0 1.42566e-10)
(4.43355e-10 0 1.3821e-10)
(4.24911e-10 0 1.34104e-10)
(4.06993e-10 0 1.30234e-10)
(3.89571e-10 0 1.26587e-10)
(3.72616e-10 0 1.2315e-10)
(3.56102e-10 0 1.19913e-10)
(3.40003e-10 0 1.16864e-10)
(3.24295e-10 0 1.13994e-10)
(3.08954e-10 0 1.11295e-10)
(2.93959e-10 0 1.08757e-10)
(2.79289e-10 0 1.06374e-10)
(2.64924e-10 0 1.04137e-10)
(2.50846e-10 0 1.02041e-10)
(2.37036e-10 0 1.00079e-10)
(2.23476e-10 0 9.8246e-11)
(2.10151e-10 0 9.65362e-11)
(1.97043e-10 0 9.49452e-11)
(1.84139e-10 0 9.34684e-11)
(1.71423e-10 0 9.21019e-11)
(1.5888e-10 0 9.08419e-11)
(1.46497e-10 0 8.96851e-11)
(1.34261e-10 0 8.86284e-11)
(1.22158e-10 0 8.76691e-11)
(1.10176e-10 0 8.68046e-11)
(9.83017e-11 0 8.60327e-11)
(8.65241e-11 0 8.53515e-11)
(7.4831e-11 0 8.47592e-11)
(6.32107e-11 0 8.42542e-11)
(5.16518e-11 0 8.38354e-11)
(4.01429e-11 0 8.35016e-11)
(2.86729e-11 0 8.3252e-11)
(1.72308e-11 0 8.30859e-11)
(5.75762e-12 0 8.30027e-11)
(-0.000932434 0 0.00620319)
(-0.000210942 0 0.000170592)
(-0.000295317 0 -0.00596592)
(3.27782e-07 0 -0.000309628)
(2.17523e-09 0 2.41193e-08)
(1.42427e-09 0 2.12575e-09)
(2.54945e-09 0 2.02135e-09)
(2.54568e-09 0 1.87124e-09)
(2.50184e-09 0 1.7134e-09)
(2.43789e-09 0 1.56226e-09)
(2.36174e-09 0 1.42331e-09)
(2.27838e-09 0 1.29812e-09)
(2.19139e-09 0 1.18647e-09)
(2.10332e-09 0 1.08732e-09)
(2.01596e-09 0 9.99356e-10)
(1.9305e-09 0 9.21218e-10)
(1.84769e-09 0 8.51634e-10)
(1.768e-09 0 7.89462e-10)
(1.69166e-09 0 7.33702e-10)
(1.61876e-09 0 6.83495e-10)
(1.54931e-09 0 6.38109e-10)
(1.4832e-09 0 5.96978e-10)
(1.42036e-09 0 5.60734e-10)
(1.36062e-09 0 5.2768e-10)
(1.30384e-09 0 4.97438e-10)
(1.24987e-09 0 4.6969e-10)
(1.19854e-09 0 4.44161e-10)
(1.1497e-09 0 4.20616e-10)
(1.1032e-09 0 3.98854e-10)
(1.0589e-09 0 3.78699e-10)
(1.01666e-09 0 3.59997e-10)
(9.76357e-10 0 3.42616e-10)
(9.37876e-10 0 3.26435e-10)
(9.01101e-10 0 3.11353e-10)
(8.65929e-10 0 2.97275e-10)
(8.32261e-10 0 2.8412e-10)
(8.00008e-10 0 2.71814e-10)
(7.69083e-10 0 2.6029e-10)
(7.39408e-10 0 2.4949e-10)
(7.10907e-10 0 2.39359e-10)
(6.83511e-10 0 2.2985e-10)
(6.57156e-10 0 2.20917e-10)
(6.3178e-10 0 2.1252e-10)
(6.07327e-10 0 2.04624e-10)
(5.83742e-10 0 1.97194e-10)
(5.60977e-10 0 1.902e-10)
(5.38983e-10 0 1.83614e-10)
(5.17717e-10 0 1.7741e-10)
(4.97138e-10 0 1.71565e-10)
(4.77206e-10 0 1.66055e-10)
(4.57885e-10 0 1.60862e-10)
(4.39139e-10 0 1.55967e-10)
(4.20937e-10 0 1.51352e-10)
(4.03247e-10 0 1.47001e-10)
(3.86041e-10 0 1.42901e-10)
(3.69291e-10 0 1.39036e-10)
(3.5297e-10 0 1.35395e-10)
(3.37054e-10 0 1.31966e-10)
(3.21519e-10 0 1.28738e-10)
(3.06344e-10 0 1.25701e-10)
(2.91506e-10 0 1.22846e-10)
(2.76986e-10 0 1.20164e-10)
(2.62765e-10 0 1.17647e-10)
(2.48823e-10 0 1.15288e-10)
(2.35144e-10 0 1.13079e-10)
(2.2171e-10 0 1.11016e-10)
(2.08505e-10 0 1.09091e-10)
(1.95514e-10 0 1.07299e-10)
(1.82721e-10 0 1.05637e-10)
(1.70113e-10 0 1.04098e-10)
(1.57675e-10 0 1.02679e-10)
(1.45393e-10 0 1.01376e-10)
(1.33255e-10 0 1.00186e-10)
(1.21248e-10 0 9.91055e-11)
(1.0936e-10 0 9.81317e-11)
(9.75771e-11 0 9.72622e-11)
(8.5889e-11 0 9.64948e-11)
(7.42838e-11 0 9.58274e-11)
(6.275e-11 0 9.52585e-11)
(5.12764e-11 0 9.47865e-11)
(3.98519e-11 0 9.44103e-11)
(2.84655e-11 0 9.41289e-11)
(1.71064e-11 0 9.39416e-11)
(5.71613e-12 0 9.38478e-11)
(-0.000781406 0 0.00650453)
(-0.000169974 0 0.000104306)
(-0.000305254 0 -0.00615406)
(-4.95716e-07 0 -0.000470539)
(2.83561e-09 0 1.25765e-07)
(1.29758e-09 0 2.15104e-09)
(2.48592e-09 0 2.0451e-09)
(2.42092e-09 0 1.90675e-09)
(2.36797e-09 0 1.76229e-09)
(2.3093e-09 0 1.62222e-09)
(2.24303e-09 0 1.49113e-09)
(2.1708e-09 0 1.37083e-09)
(2.0948e-09 0 1.26164e-09)
(2.01698e-09 0 1.16315e-09)
(1.93888e-09 0 1.07454e-09)
(1.86164e-09 0 9.94869e-10)
(1.78606e-09 0 9.23169e-10)
(1.71269e-09 0 8.58521e-10)
(1.64188e-09 0 8.00087e-10)
(1.57381e-09 0 7.47119e-10)
(1.50857e-09 0 6.98961e-10)
(1.44616e-09 0 6.55121e-10)
(1.38657e-09 0 6.16225e-10)
(1.32971e-09 0 5.80618e-10)
(1.27548e-09 0 5.47935e-10)
(1.22378e-09 0 5.17862e-10)
(1.17448e-09 0 4.90126e-10)
(1.12747e-09 0 4.64491e-10)
(1.08261e-09 0 4.40752e-10)
(1.0398e-09 0 4.1873e-10)
(9.98914e-10 0 3.98265e-10)
(9.59844e-10 0 3.7922e-10)
(9.22486e-10 0 3.61471e-10)
(8.8674e-10 0 3.44908e-10)
(8.52511e-10 0 3.29435e-10)
(8.19712e-10 0 3.14964e-10)
(7.88259e-10 0 3.01417e-10)
(7.58074e-10 0 2.88722e-10)
(7.29082e-10 0 2.76818e-10)
(7.01216e-10 0 2.65645e-10)
(6.74409e-10 0 2.55152e-10)
(6.48602e-10 0 2.45291e-10)
(6.23736e-10 0 2.36018e-10)
(5.99759e-10 0 2.27295e-10)
(5.76619e-10 0 2.19084e-10)
(5.54269e-10 0 2.11352e-10)
(5.32665e-10 0 2.0407e-10)
(5.11764e-10 0 1.97207e-10)
(4.91528e-10 0 1.9074e-10)
(4.71918e-10 0 1.84643e-10)
(4.52899e-10 0 1.78895e-10)
(4.34439e-10 0 1.73476e-10)
(4.16506e-10 0 1.68366e-10)
(3.9907e-10 0 1.63548e-10)
(3.82104e-10 0 1.59006e-10)
(3.6558e-10 0 1.54724e-10)
(3.49474e-10 0 1.5069e-10)
(3.33762e-10 0 1.4689e-10)
(3.18421e-10 0 1.43313e-10)
(3.0343e-10 0 1.39947e-10)
(2.88768e-10 0 1.36781e-10)
(2.74415e-10 0 1.33808e-10)
(2.60353e-10 0 1.31017e-10)
(2.46564e-10 0 1.284e-10)
(2.33031e-10 0 1.25951e-10)
(2.19737e-10 0 1.23662e-10)
(2.06667e-10 0 1.21527e-10)
(1.93805e-10 0 1.1954e-10)
(1.81137e-10 0 1.17695e-10)
(1.6865e-10 0 1.15987e-10)
(1.56328e-10 0 1.14413e-10)
(1.4416e-10 0 1.12967e-10)
(1.32132e-10 0 1.11646e-10)
(1.20232e-10 0 1.10447e-10)
(1.08447e-10 0 1.09366e-10)
(9.67671e-11 0 1.08401e-10)
(8.5179e-11 0 1.07549e-10)
(7.3672e-11 0 1.06808e-10)
(6.22349e-11 0 1.06177e-10)
(5.08566e-11 0 1.05653e-10)
(3.95264e-11 0 1.05235e-10)
(2.82335e-11 0 1.04922e-10)
(1.69672e-11 0 1.04714e-10)
(5.66972e-12 0 1.0461e-10)
(-0.000763985 0 0.00677716)
(-0.000138302 0 0.000195046)
(-0.00023496 0 -0.00632086)
(-4.08772e-07 0 -0.000677128)
(2.37555e-09 0 1.07262e-07)
(1.20504e-09 0 2.27837e-09)
(2.32523e-09 0 2.09777e-09)
(2.28501e-09 0 1.94784e-09)
(2.23926e-09 0 1.80748e-09)
(2.1876e-09 0 1.67443e-09)
(2.12975e-09 0 1.54961e-09)
(2.06672e-09 0 1.43386e-09)
(2e-09 0 1.32751e-09)
(1.93108e-09 0 1.23036e-09)
(1.86123e-09 0 1.14193e-09)
(1.7915e-09 0 1.06157e-09)
(1.72268e-09 0 9.88559e-10)
(1.65533e-09 0 9.22167e-10)
(1.58985e-09 0 8.6171e-10)
(1.52652e-09 0 8.06553e-10)
(1.46548e-09 0 7.56124e-10)
(1.40679e-09 0 7.10007e-10)
(1.35051e-09 0 6.68831e-10)
(1.2966e-09 0 6.30992e-10)
(1.24501e-09 0 5.96144e-10)
(1.19567e-09 0 5.63985e-10)
(1.1485e-09 0 5.3425e-10)
(1.10341e-09 0 5.06705e-10)
(1.0603e-09 0 4.81147e-10)
(1.01906e-09 0 4.57396e-10)
(9.79617e-10 0 4.3529e-10)
(9.41863e-10 0 4.14689e-10)
(9.05709e-10 0 3.95467e-10)
(8.71068e-10 0 3.7751e-10)
(8.37856e-10 0 3.60717e-10)
(8.05994e-10 0 3.44999e-10)
(7.75407e-10 0 3.30271e-10)
(7.46022e-10 0 3.16462e-10)
(7.17773e-10 0 3.03503e-10)
(6.90595e-10 0 2.91334e-10)
(6.64429e-10 0 2.79899e-10)
(6.39218e-10 0 2.69148e-10)
(6.14909e-10 0 2.59034e-10)
(5.91451e-10 0 2.49514e-10)
(5.68796e-10 0 2.40552e-10)
(5.46901e-10 0 2.32109e-10)
(5.25722e-10 0 2.24154e-10)
(5.05221e-10 0 2.16656e-10)
(4.85359e-10 0 2.09588e-10)
(4.66102e-10 0 2.02923e-10)
(4.47415e-10 0 1.96638e-10)
(4.29268e-10 0 1.90711e-10)
(4.1163e-10 0 1.85121e-10)
(3.94472e-10 0 1.7985e-10)
(3.77769e-10 0 1.7488e-10)
(3.61495e-10 0 1.70194e-10)
(3.45625e-10 0 1.65778e-10)
(3.30137e-10 0 1.61618e-10)
(3.15009e-10 0 1.577e-10)
(3.0022e-10 0 1.54014e-10)
(2.85751e-10 0 1.50547e-10)
(2.71582e-10 0 1.47289e-10)
(2.57695e-10 0 1.44231e-10)
(2.44074e-10 0 1.41365e-10)
(2.30702e-10 0 1.38681e-10)
(2.17562e-10 0 1.36172e-10)
(2.0464e-10 0 1.33832e-10)
(1.91921e-10 0 1.31653e-10)
(1.79391e-10 0 1.29631e-10)
(1.67036e-10 0 1.27759e-10)
(1.54843e-10 0 1.26033e-10)
(1.428e-10 0 1.24447e-10)
(1.30893e-10 0 1.22999e-10)
(1.19111e-10 0 1.21684e-10)
(1.07441e-10 0 1.20498e-10)
(9.58735e-11 0 1.19439e-10)
(8.43957e-11 0 1.18505e-10)
(7.2997e-11 0 1.17692e-10)
(6.16665e-11 0 1.16999e-10)
(5.03934e-11 0 1.16424e-10)
(3.91672e-11 0 1.15966e-10)
(2.79775e-11 0 1.15623e-10)
(1.68137e-11 0 1.15395e-10)
(5.61849e-12 0 1.1528e-10)
(-0.000614729 0 0.00709818)
(-0.000177329 0 0.000286395)
(-0.000271411 0 -0.00640414)
(4.50093e-07 0 -0.00088273)
(2.18992e-09 0 1.01625e-07)
(1.12874e-09 0 2.27865e-09)
(2.18104e-09 0 2.12371e-09)
(2.15337e-09 0 1.98071e-09)
(2.1159e-09 0 1.84642e-09)
(2.07151e-09 0 1.71956e-09)
(2.02122e-09 0 1.60022e-09)
(1.96609e-09 0 1.48876e-09)
(1.90734e-09 0 1.38538e-09)
(1.84617e-09 0 1.28999e-09)
(1.78367e-09 0 1.20231e-09)
(1.72076e-09 0 1.12188e-09)
(1.65817e-09 0 1.04818e-09)
(1.59649e-09 0 9.80644e-10)
(1.53612e-09 0 9.18717e-10)
(1.47737e-09 0 8.61872e-10)
(1.42045e-09 0 8.09617e-10)
(1.36546e-09 0 7.61618e-10)
(1.3125e-09 0 7.18509e-10)
(1.26157e-09 0 6.78742e-10)
(1.21266e-09 0 6.41995e-10)
(1.16575e-09 0 6.07984e-10)
(1.12078e-09 0 5.76454e-10)
(1.07768e-09 0 5.47179e-10)
(1.03639e-09 0 5.19961e-10)
(9.96809e-10 0 4.9462e-10)
(9.58877e-10 0 4.70998e-10)
(9.2251e-10 0 4.48952e-10)
(8.8763e-10 0 4.28355e-10)
(8.54162e-10 0 4.09092e-10)
(8.22032e-10 0 3.91059e-10)
(7.91169e-10 0 3.74164e-10)
(7.61506e-10 0 3.58322e-10)
(7.32979e-10 0 3.43455e-10)
(7.05525e-10 0 3.29495e-10)
(6.79087e-10 0 3.16378e-10)
(6.5361e-10 0 3.04045e-10)
(6.2904e-10 0 2.92444e-10)
(6.0533e-10 0 2.81525e-10)
(5.82432e-10 0 2.71245e-10)
(5.60301e-10 0 2.61561e-10)
(5.38896e-10 0 2.52436e-10)
(5.18178e-10 0 2.43835e-10)
(4.98109e-10 0 2.35726e-10)
(4.78653e-10 0 2.2808e-10)
(4.59777e-10 0 2.20868e-10)
(4.4145e-10 0 2.14065e-10)
(4.23642e-10 0 2.07648e-10)
(4.06323e-10 0 2.01595e-10)
(3.89468e-10 0 1.95886e-10)
(3.73051e-10 0 1.90502e-10)
(3.57047e-10 0 1.85425e-10)
(3.41434e-10 0 1.80639e-10)
(3.26189e-10 0 1.7613e-10)
(3.11292e-10 0 1.71883e-10)
(2.96724e-10 0 1.67886e-10)
(2.82464e-10 0 1.64126e-10)
(2.68494e-10 0 1.60593e-10)
(2.54799e-10 0 1.57277e-10)
(2.4136e-10 0 1.54167e-10)
(2.28163e-10 0 1.51255e-10)
(2.15191e-10 0 1.48533e-10)
(2.0243e-10 0 1.45993e-10)
(1.89867e-10 0 1.43629e-10)
(1.77486e-10 0 1.41433e-10)
(1.65276e-10 0 1.39401e-10)
(1.53224e-10 0 1.37527e-10)
(1.41316e-10 0 1.35806e-10)
(1.29541e-10 0 1.34233e-10)
(1.17887e-10 0 1.32805e-10)
(1.06344e-10 0 1.31517e-10)
(9.48984e-11 0 1.30367e-10)
(8.35409e-11 0 1.29352e-10)
(7.22603e-11 0 1.2847e-10)
(6.10461e-11 0 1.27717e-10)
(4.98878e-11 0 1.27092e-10)
(3.87752e-11 0 1.26594e-10)
(2.7698e-11 0 1.26222e-10)
(1.6646e-11 0 1.25973e-10)
(5.56256e-12 0 1.25849e-10)
(-0.000632617 0 0.00731001)
(-0.000240052 0 0.000150827)
(-0.00027107 0 -0.00647556)
(1.28025e-06 0 -0.00108218)
(2.03371e-09 0 9.85172e-08)
(1.06131e-09 0 2.27773e-09)
(2.05101e-09 0 2.13939e-09)
(2.02973e-09 0 2.00612e-09)
(1.99876e-09 0 1.87902e-09)
(1.9608e-09 0 1.75825e-09)
(1.91713e-09 0 1.64404e-09)
(1.86884e-09 0 1.53667e-09)
(1.817e-09 0 1.43631e-09)
(1.76263e-09 0 1.34294e-09)
(1.70666e-09 0 1.25639e-09)
(1.64991e-09 0 1.17635e-09)
(1.59306e-09 0 1.10244e-09)
(1.53666e-09 0 1.03424e-09)
(1.48113e-09 0 9.71301e-10)
(1.42678e-09 0 9.13196e-10)
(1.37386e-09 0 8.59507e-10)
(1.32249e-09 0 8.0998e-10)
(1.27282e-09 0 7.65255e-10)
(1.22487e-09 0 7.23843e-10)
(1.17867e-09 0 6.85449e-10)
(1.13423e-09 0 6.49808e-10)
(1.0915e-09 0 6.16681e-10)
(1.05045e-09 0 5.85853e-10)
(1.01102e-09 0 5.57131e-10)
(9.73161e-10 0 5.3034e-10)
(9.36803e-10 0 5.05326e-10)
(9.01885e-10 0 4.81947e-10)
(8.68339e-10 0 4.60075e-10)
(8.36103e-10 0 4.39596e-10)
(8.05111e-10 0 4.20405e-10)
(7.75303e-10 0 4.02407e-10)
(7.46617e-10 0 3.85516e-10)
(7.18997e-10 0 3.69654e-10)
(6.92388e-10 0 3.54748e-10)
(6.66736e-10 0 3.40733e-10)
(6.41991e-10 0 3.27549e-10)
(6.18106e-10 0 3.1514e-10)
(5.95034e-10 0 3.03456e-10)
(5.72734e-10 0 2.92449e-10)
(5.51163e-10 0 2.82078e-10)
(5.30283e-10 0 2.72301e-10)
(5.10057e-10 0 2.63083e-10)