0 	7.25912e-21 	0 	-5.44434e-20
0.010101 	-3.54236e-20 	2.37069e-22 	-1.59209e-19
0.020202 	-5.00634e-21 	3.4065e-25 	-1.00723e-19
0.030303 	1.33567e-20 	6.79287e-23 	-4.74733e-20
0.040404 	4.72078e-20 	-1.35517e-22 	5.81835e-21
0.0505051 	-6.35124e-20 	2.02764e-22 	-1.25019e-20
