0 	1.44795e-11 	-1.70711e-27 	-1.05435e-11
0.010101 	-1.89448e-10 	-1.17316e-26 	1.16963e-10
0.020202 	-9.68027e-11 	-3.63948e-28 	-5.11278e-12
