0 	459.531
0.010101 	458.638
0.020202 	464.879
