/*--------------------------------*- C++ -*----------------------------------*\
  =========                 |
  \\      /  F ield         | OpenFOAM: The Open Source CFD Toolbox
   \\    /   O peration     | Website:  https://openfoam.org
    \\  /    A nd           | Version:  6
     \\/     M anipulation  |
\*---------------------------------------------------------------------------*/
FoamFile
{
    version     2.0;
    format      ascii;
    class       volVectorField;
    location    "8400";
    object      U;
}
// * * * * * * * * * * * * * * * * * * * * * * * * * * * * * * * * * * * * * //

dimensions      [0 1 -1 0 0 0 0];

internalField   nonuniform List<vector> 
4800
(
(4.29921e-08 0 -4.0589e-08)
(1.24319e-07 0 -4.29549e-08)
(2.05181e-07 0 -4.34117e-08)
(2.84567e-07 0 -4.23841e-08)
(3.60775e-07 0 -4.06912e-08)
(4.33442e-07 0 -3.8611e-08)
(5.02197e-07 0 -3.62439e-08)
(5.66721e-07 0 -3.37243e-08)
(6.26831e-07 0 -3.11152e-08)
(6.82438e-07 0 -2.85027e-08)
(7.33518e-07 0 -2.58935e-08)
(7.80086e-07 0 -2.33396e-08)
(8.222e-07 0 -2.08963e-08)
(8.59932e-07 0 -1.84959e-08)
(8.93315e-07 0 -1.61493e-08)
(9.22324e-07 0 -1.37925e-08)
(9.46866e-07 0 -1.13941e-08)
(9.67184e-07 0 -9.48246e-09)
(9.83629e-07 0 -7.477e-09)
(9.9607e-07 0 -5.31399e-09)
(1.00422e-06 0 -2.84673e-09)
(1.0084e-06 0 -1.56176e-09)
(1.00915e-06 0 5.1749e-10)
(1.0064e-06 0 2.2776e-09)
(1.00026e-06 0 3.82614e-09)
(9.90979e-07 0 5.42071e-09)
(9.78836e-07 0 6.68792e-09)
(9.64473e-07 0 7.77913e-09)
(9.4788e-07 0 8.85458e-09)
(9.29362e-07 0 9.73794e-09)
(9.0932e-07 0 1.04291e-08)
(8.88039e-07 0 1.09839e-08)
(8.65792e-07 0 1.14025e-08)
(8.42863e-07 0 1.16653e-08)
(8.19505e-07 0 1.18174e-08)
(7.95893e-07 0 1.19094e-08)
(7.72194e-07 0 1.19027e-08)
(7.48545e-07 0 1.18552e-08)
(7.25067e-07 0 1.17305e-08)
(7.0186e-07 0 1.15752e-08)
(6.78966e-07 0 1.1398e-08)
(6.56427e-07 0 1.11973e-08)
(6.34273e-07 0 1.10094e-08)
(6.12514e-07 0 1.07796e-08)
(5.91151e-07 0 1.06207e-08)
(5.70165e-07 0 1.04168e-08)
(5.4947e-07 0 1.02887e-08)
(5.29079e-07 0 1.00645e-08)
(5.09034e-07 0 9.91199e-09)
(4.893e-07 0 9.75027e-09)
(4.6985e-07 0 9.59018e-09)
(4.5067e-07 0 9.46783e-09)
(4.31722e-07 0 9.32363e-09)
(4.13013e-07 0 9.17294e-09)
(3.94544e-07 0 9.04874e-09)
(3.76313e-07 0 8.88136e-09)
(3.58342e-07 0 8.74658e-09)
(3.40621e-07 0 8.57871e-09)
(3.23144e-07 0 8.44849e-09)
(3.05908e-07 0 8.27572e-09)
(2.88931e-07 0 8.09621e-09)
(2.72248e-07 0 7.9192e-09)
(2.55852e-07 0 7.74616e-09)
(2.39735e-07 0 7.56351e-09)
(2.23903e-07 0 7.37576e-09)
(2.08371e-07 0 7.17552e-09)
(1.9315e-07 0 6.97691e-09)
(1.78238e-07 0 6.77324e-09)
(1.63616e-07 0 6.58724e-09)
(1.49322e-07 0 6.36357e-09)
(1.35415e-07 0 6.13629e-09)
(1.21937e-07 0 5.89985e-09)
(1.09017e-07 0 5.61163e-09)
(9.70001e-08 0 5.16704e-09)
(8.68881e-08 0 4.51501e-09)
(8.09371e-08 0 3.19081e-09)
(8.22675e-08 0 -1.15734e-08)
(6.97054e-08 0 4.64876e-09)
(-6.33926e-10 0 2.58037e-08)
(7.04112e-18 0 1.63593e-16)
(1.2452e-16 0 7.13443e-19)
(2.51515e-16 0 -4.22896e-18)
(2.78739e-16 0 -3.56722e-18)
(3.20874e-16 0 -1.90252e-18)
(3.56163e-16 0 -2.89513e-19)
(3.83212e-16 0 1.14771e-18)
(4.02868e-16 0 2.4195e-18)
(4.16093e-16 0 3.4845e-18)
(4.23827e-16 0 4.41508e-18)
(4.26877e-16 0 5.19056e-18)
(4.25926e-16 0 5.87298e-18)
(4.21655e-16 0 6.41065e-18)
(4.14583e-16 0 6.85526e-18)
(4.05184e-16 0 7.20681e-18)
(3.93914e-16 0 7.47565e-18)
(3.81072e-16 0 7.65142e-18)
(3.66968e-16 0 7.7755e-18)
(3.51914e-16 0 7.83754e-18)
(3.36104e-16 0 7.85822e-18)
(3.19726e-16 0 7.83754e-18)
(3.02965e-16 0 7.76516e-18)
(2.85977e-16 0 7.66176e-18)
(2.68854e-16 0 7.53768e-18)
(2.51711e-16 0 7.40327e-18)
(2.3463e-16 0 7.23783e-18)
(2.17673e-16 0 7.06206e-18)
(2.00902e-16 0 6.87594e-18)
(1.84337e-16 0 6.67948e-18)
(1.68011e-16 0 6.48303e-18)
(1.51932e-16 0 6.28657e-18)
(1.36123e-16 0 6.1108e-18)
(1.20624e-16 0 5.93502e-18)
(1.05393e-16 0 5.76959e-18)
(9.04108e-17 0 5.59381e-18)
(7.56974e-17 0 5.46973e-18)
(6.1201e-17 0 5.33532e-18)
(4.69115e-17 0 5.22158e-18)
(3.28598e-17 0 5.07682e-18)
(1.91492e-17 0 4.87003e-18)
(6.20386e-18 0 4.31168e-18)
(4.18997e-08 0 -1.26042e-07)
(1.2728e-07 0 -1.21976e-07)
(2.07164e-07 0 -1.18932e-07)
(2.8724e-07 0 -1.14805e-07)
(3.63955e-07 0 -1.09943e-07)
(4.36989e-07 0 -1.0447e-07)
(5.06015e-07 0 -9.8504e-08)
(5.70721e-07 0 -9.22361e-08)
(6.30937e-07 0 -8.57864e-08)
(6.86581e-07 0 -7.92682e-08)
(7.3765e-07 0 -7.277e-08)
(7.84215e-07 0 -6.63136e-08)
(8.26336e-07 0 -5.99993e-08)
(8.64064e-07 0 -5.35802e-08)
(8.97425e-07 0 -4.71982e-08)
(9.26401e-07 0 -4.05147e-08)
(9.50908e-07 0 -3.36516e-08)
(9.71221e-07 0 -2.82722e-08)
(9.87693e-07 0 -2.23985e-08)
(1.00001e-06 0 -1.59616e-08)
(1.00803e-06 0 -8.70891e-09)
(1.01211e-06 0 -4.86658e-09)
(1.0127e-06 0 1.28277e-09)
(1.00969e-06 0 6.55116e-09)
(1.0033e-06 0 1.10963e-08)
(9.93761e-07 0 1.58908e-08)
(9.81335e-07 0 1.96515e-08)
(9.66678e-07 0 2.29396e-08)
(9.49759e-07 0 2.61568e-08)
(9.30927e-07 0 2.88024e-08)
(9.10592e-07 0 3.08858e-08)
(8.89032e-07 0 3.25607e-08)
(8.66528e-07 0 3.38422e-08)
(8.4337e-07 0 3.4654e-08)
(8.19804e-07 0 3.51833e-08)
(7.9601e-07 0 3.54679e-08)
(7.72168e-07 0 3.55064e-08)
(7.48414e-07 0 3.53977e-08)
(7.24854e-07 0 3.5081e-08)
(7.0158e-07 0 3.46606e-08)
(6.78636e-07 0 3.42413e-08)
(6.56073e-07 0 3.36772e-08)
(6.33925e-07 0 3.31553e-08)
(6.12177e-07 0 3.25768e-08)
(5.90803e-07 0 3.21283e-08)
(5.69836e-07 0 3.16209e-08)
(5.49187e-07 0 3.13116e-08)
(5.28829e-07 0 3.07431e-08)
(5.08801e-07 0 3.03208e-08)
(4.89096e-07 0 2.99352e-08)
(4.69669e-07 0 2.95455e-08)
(4.50495e-07 0 2.9292e-08)
(4.31548e-07 0 2.89933e-08)
(4.12836e-07 0 2.8645e-08)
(3.94369e-07 0 2.83878e-08)
(3.76143e-07 0 2.80189e-08)
(3.58156e-07 0 2.77407e-08)
(3.40427e-07 0 2.73991e-08)
(3.2294e-07 0 2.7175e-08)
(3.05695e-07 0 2.68139e-08)
(2.88713e-07 0 2.64394e-08)
(2.72033e-07 0 2.60562e-08)
(2.55644e-07 0 2.57037e-08)
(2.3953e-07 0 2.53351e-08)
(2.23698e-07 0 2.49636e-08)
(2.08174e-07 0 2.45497e-08)
(1.92939e-07 0 2.41895e-08)
(1.77986e-07 0 2.38043e-08)
(1.63348e-07 0 2.34114e-08)
(1.49053e-07 0 2.29252e-08)
(1.35082e-07 0 2.24403e-08)
(1.21462e-07 0 2.18653e-08)
(1.08217e-07 0 2.11312e-08)
(9.53287e-08 0 2.0076e-08)
(8.24855e-08 0 1.78819e-08)
(7.01524e-08 0 1.24082e-08)
(4.40718e-08 0 -3.33882e-09)
(2.87366e-08 0 5.93294e-08)
(-4.93246e-10 0 5.94485e-08)
(6.57354e-17 0 4.04459e-16)
(1.19506e-16 0 1.91286e-18)
(2.47244e-16 0 -2.31611e-18)
(2.81076e-16 0 -8.2718e-20)
(3.24151e-16 0 3.35008e-18)
(3.59214e-16 0 6.62779e-18)
(3.85911e-16 0 9.5953e-18)
(4.05194e-16 0 1.22216e-17)
(4.18088e-16 0 1.44757e-17)
(4.25533e-16 0 1.64402e-17)
(4.28325e-16 0 1.80842e-17)
(4.27135e-16 0 1.94801e-17)
(4.22627e-16 0 2.06175e-17)
(4.15358e-16 0 2.14964e-17)
(4.05794e-16 0 2.21788e-17)
(3.94348e-16 0 2.26544e-17)
(3.81372e-16 0 2.29439e-17)
(3.67154e-16 0 2.30783e-17)
(3.51986e-16 0 2.3099e-17)
(3.36094e-16 0 2.29749e-17)
(3.19633e-16 0 2.27681e-17)
(3.0281e-16 0 2.24476e-17)
(2.8576e-16 0 2.2034e-17)
(2.68575e-16 0 2.15584e-17)
(2.51391e-16 0 2.10621e-17)
(2.34299e-16 0 2.05141e-17)
(2.17321e-16 0 1.99351e-17)
(2.00519e-16 0 1.93353e-17)
(1.83944e-16 0 1.87046e-17)
(1.67607e-16 0 1.80946e-17)
(1.5155e-16 0 1.74639e-17)
(1.35771e-16 0 1.68952e-17)
(1.20282e-16 0 1.63472e-17)
(1.05052e-16 0 1.58198e-17)
(9.01007e-17 0 1.53339e-17)
(7.54285e-17 0 1.49203e-17)
(6.09529e-17 0 1.45274e-17)
(4.66633e-17 0 1.41758e-17)
(3.25185e-17 0 1.38243e-17)
(1.83738e-17 0 1.34417e-17)
(5.63517e-18 0 1.28006e-17)
(4.19643e-08 0 -2.12384e-07)
(1.29829e-07 0 -2.09767e-07)
(2.11338e-07 0 -2.05426e-07)
(2.93272e-07 0 -1.98686e-07)
(3.71367e-07 0 -1.9021e-07)
(4.45383e-07 0 -1.80439e-07)
(5.15082e-07 0 -1.69741e-07)
(5.80178e-07 0 -1.58494e-07)
(6.4055e-07 0 -1.46986e-07)
(6.96206e-07 0 -1.35406e-07)
(7.47198e-07 0 -1.23896e-07)
(7.93609e-07 0 -1.12605e-07)
(8.35556e-07 0 -1.01593e-07)
(8.73134e-07 0 -9.0493e-08)
(9.0632e-07 0 -7.96621e-08)
(9.35106e-07 0 -6.78713e-08)
(9.59401e-07 0 -5.68334e-08)
(9.79652e-07 0 -4.76849e-08)
(9.96058e-07 0 -3.74702e-08)
(1.00808e-06 0 -2.64075e-08)
(1.01577e-06 0 -1.49852e-08)
(1.01967e-06 0 -7.925e-09)
(1.01997e-06 0 2.37391e-09)
(1.01644e-06 0 1.12167e-08)
(1.00951e-06 0 1.86929e-08)
(9.99407e-07 0 2.69998e-08)
(9.86384e-07 0 3.30595e-08)
(9.71082e-07 0 3.86878e-08)
(9.53498e-07 0 4.40442e-08)
(9.34026e-07 0 4.84141e-08)
(9.13092e-07 0 5.18873e-08)
(8.90946e-07 0 5.46195e-08)
(8.67891e-07 0 5.67122e-08)
(8.44281e-07 0 5.79768e-08)
(8.20336e-07 0 5.88344e-08)
(7.96194e-07 0 5.92333e-08)
(7.72047e-07 0 5.92319e-08)
(7.48054e-07 0 5.89919e-08)
(7.24333e-07 0 5.83965e-08)
(7.00968e-07 0 5.76209e-08)
(6.77971e-07 0 5.69003e-08)
(6.55371e-07 0 5.59166e-08)
(6.33191e-07 0 5.50042e-08)
(6.11441e-07 0 5.40848e-08)
(5.90101e-07 0 5.3217e-08)
(5.69197e-07 0 5.23476e-08)
(5.486e-07 0 5.18461e-08)
(5.28275e-07 0 5.09494e-08)
(5.08253e-07 0 5.02067e-08)
(4.88561e-07 0 4.95724e-08)
(4.69164e-07 0 4.88921e-08)
(4.50022e-07 0 4.8446e-08)
(4.31097e-07 0 4.7932e-08)
(4.12379e-07 0 4.73212e-08)
(3.93885e-07 0 4.68609e-08)
(3.75642e-07 0 4.62364e-08)
(3.57648e-07 0 4.57107e-08)
(3.39929e-07 0 4.50819e-08)
(3.22435e-07 0 4.46276e-08)
(3.05182e-07 0 4.39798e-08)
(2.88185e-07 0 4.32974e-08)
(2.71479e-07 0 4.26035e-08)
(2.55053e-07 0 4.19694e-08)
(2.38913e-07 0 4.12968e-08)
(2.23068e-07 0 4.05981e-08)
(2.07521e-07 0 3.98615e-08)
(1.92266e-07 0 3.91662e-08)
(1.77315e-07 0 3.84237e-08)
(1.62662e-07 0 3.76581e-08)
(1.48322e-07 0 3.68267e-08)
(1.34286e-07 0 3.59874e-08)
(1.20525e-07 0 3.50544e-08)
(1.06956e-07 0 3.39982e-08)
(9.34376e-08 0 3.25912e-08)
(7.93624e-08 0 3.05535e-08)
(6.47978e-08 0 2.80145e-08)
(3.93657e-08 0 2.49808e-08)
(2.38557e-08 0 7.128e-08)
(-4.69677e-10 0 7.92515e-08)
(8.15891e-17 0 5.83462e-16)
(1.20248e-16 0 2.88479e-18)
(2.4954e-16 0 6.06944e-18)
(2.84426e-16 0 1.0226e-17)
(3.27584e-16 0 1.44963e-17)
(3.62409e-16 0 1.84771e-17)
(3.88806e-16 0 2.20961e-17)
(4.07748e-16 0 2.53324e-17)
(4.20311e-16 0 2.81552e-17)
(4.27425e-16 0 3.0616e-17)
(4.29906e-16 0 3.26633e-17)
(4.28449e-16 0 3.4359e-17)
(4.23661e-16 0 3.57342e-17)
(4.16134e-16 0 3.67785e-17)
(4.06332e-16 0 3.75333e-17)
(3.94679e-16 0 3.80193e-17)
(3.81516e-16 0 3.82364e-17)
(3.67123e-16 0 3.82261e-17)
(3.5179e-16 0 3.804e-17)
(3.35753e-16 0 3.76574e-17)
(3.19188e-16 0 3.71301e-17)
(3.02252e-16 0 3.6489e-17)
(2.85109e-16 0 3.57032e-17)
(2.67862e-16 0 3.48346e-17)
(2.50636e-16 0 3.39247e-17)
(2.33513e-16 0 3.29218e-17)
(2.16504e-16 0 3.19085e-17)
(1.99681e-16 0 3.08435e-17)
(1.83096e-16 0 2.97578e-17)
(1.6677e-16 0 2.87135e-17)
(1.50754e-16 0 2.76589e-17)
(1.35006e-16 0 2.66456e-17)
(1.19548e-16 0 2.57253e-17)
(1.0438e-16 0 2.48154e-17)
(8.9501e-17 0 2.40296e-17)
(7.48805e-17 0 2.32851e-17)
(6.04566e-17 0 2.26337e-17)
(4.62187e-17 0 2.20754e-17)
(3.21256e-17 0 2.16308e-17)
(1.81153e-17 0 2.12689e-17)
(5.55245e-18 0 2.10931e-17)
(4.32369e-08 0 -3.00104e-07)
(1.34615e-07 0 -2.96268e-07)
(2.1835e-07 0 -2.89608e-07)
(3.026e-07 0 -2.79651e-07)
(3.82536e-07 0 -2.67237e-07)
(4.57859e-07 0 -2.53047e-07)
(5.28398e-07 0 -2.3763e-07)
(5.93948e-07 0 -2.21551e-07)
(6.54489e-07 0 -2.05209e-07)
(7.10098e-07 0 -1.88889e-07)
(7.60924e-07 0 -1.72768e-07)
(8.07137e-07 0 -1.57037e-07)
(8.48877e-07 0 -1.41632e-07)
(8.86253e-07 0 -1.26276e-07)
(9.19231e-07 0 -1.1115e-07)
(9.47885e-07 0 -9.42869e-08)
(9.71978e-07 0 -7.97518e-08)
(9.92209e-07 0 -6.65627e-08)
(1.00851e-06 0 -5.22871e-08)
(1.02021e-06 0 -3.59577e-08)
(1.02739e-06 0 -2.12687e-08)
(1.03101e-06 0 -1.02828e-08)
(1.03086e-06 0 4.20339e-09)
(1.02664e-06 0 1.65981e-08)
(1.01885e-06 0 2.69896e-08)
(1.00788e-06 0 3.90423e-08)
(9.94002e-07 0 4.7252e-08)
(9.77685e-07 0 5.5352e-08)
(9.59094e-07 0 6.2841e-08)
(9.38663e-07 0 6.88936e-08)
(9.16817e-07 0 7.3699e-08)
(8.93795e-07 0 7.75218e-08)
(8.69925e-07 0 8.02913e-08)
(8.45611e-07 0 8.19342e-08)
(8.21052e-07 0 8.30902e-08)
(7.96395e-07 0 8.3543e-08)
(7.71835e-07 0 8.34391e-08)
(7.47508e-07 0 8.2997e-08)
(7.23539e-07 0 8.2056e-08)
(6.99991e-07 0 8.09287e-08)
(6.76862e-07 0 7.98465e-08)
(6.54235e-07 0 7.84333e-08)
(6.32088e-07 0 7.70902e-08)
(6.10369e-07 0 7.58119e-08)
(5.89043e-07 0 7.45517e-08)
(5.68194e-07 0 7.33136e-08)
(5.47714e-07 0 7.26443e-08)
(5.27492e-07 0 7.14112e-08)
(5.07493e-07 0 7.03363e-08)
(4.87833e-07 0 6.94859e-08)
(4.68493e-07 0 6.84956e-08)
(4.49363e-07 0 6.79325e-08)
(4.30443e-07 0 6.72786e-08)
(4.11733e-07 0 6.64172e-08)
(3.93231e-07 0 6.58023e-08)
(3.75006e-07 0 6.49009e-08)
(3.56989e-07 0 6.41802e-08)
(3.39222e-07 0 6.3349e-08)
(3.21678e-07 0 6.27257e-08)
(3.04423e-07 0 6.18211e-08)
(2.87412e-07 0 6.08854e-08)
(2.70674e-07 0 5.99465e-08)
(2.5423e-07 0 5.90248e-08)
(2.38088e-07 0 5.80616e-08)
(2.22243e-07 0 5.708e-08)
(2.06679e-07 0 5.60991e-08)
(1.91385e-07 0 5.51267e-08)
(1.76393e-07 0 5.41326e-08)
(1.61719e-07 0 5.30761e-08)
(1.4735e-07 0 5.19445e-08)
(1.33239e-07 0 5.08453e-08)
(1.19388e-07 0 4.96457e-08)
(1.05735e-07 0 4.83905e-08)
(9.21247e-08 0 4.70552e-08)
(7.81757e-08 0 4.57036e-08)
(6.4826e-08 0 4.45631e-08)
(4.62354e-08 0 4.62769e-08)
(2.45226e-08 0 8.73384e-08)
(-4.62212e-10 0 9.64951e-08)
(8.34951e-17 0 8.16628e-16)
(1.22745e-16 0 4.01183e-18)
(2.54596e-16 0 1.01226e-17)
(2.89513e-16 0 1.63058e-17)
(3.32403e-16 0 2.21581e-17)
(3.66813e-16 0 2.75348e-17)
(3.92756e-16 0 3.23841e-17)
(4.11254e-16 0 3.67061e-17)
(4.23382e-16 0 4.04698e-17)
(4.30051e-16 0 4.37372e-17)
(4.32078e-16 0 4.64669e-17)
(4.30186e-16 0 4.87003e-17)
(4.25036e-16 0 5.04787e-17)
(4.17168e-16 0 5.18332e-17)
(4.07025e-16 0 5.27741e-17)
(3.95061e-16 0 5.33842e-17)
(3.81609e-16 0 5.3591e-17)
(3.66958e-16 0 5.35186e-17)
(3.51417e-16 0 5.31774e-17)
(3.35205e-16 0 5.2588e-17)
(3.18465e-16 0 5.17815e-17)
(3.01373e-16 0 5.08199e-17)
(2.84116e-16 0 4.96929e-17)
(2.66807e-16 0 4.84521e-17)
(2.49478e-16 0 4.71286e-17)
(2.32272e-16 0 4.56914e-17)
(2.15243e-16 0 4.42335e-17)
(1.98379e-16 0 4.27342e-17)
(1.81814e-16 0 4.12039e-17)
(1.65519e-16 0 3.9684e-17)
(1.49503e-16 0 3.82468e-17)
(1.33838e-16 0 3.68095e-17)
(1.18452e-16 0 3.54964e-17)
(1.03346e-16 0 3.42246e-17)
(8.85497e-17 0 3.30872e-17)
(7.40327e-17 0 3.20533e-17)
(5.97535e-17 0 3.11537e-17)
(4.565e-17 0 3.04196e-17)
(3.16914e-17 0 2.98509e-17)
(1.78361e-17 0 2.9427e-17)
(5.45939e-18 0 2.92408e-17)
(4.51712e-08 0 -3.91693e-07)
(1.41188e-07 0 -3.86317e-07)
(2.28243e-07 0 -3.77003e-07)
(3.15644e-07 0 -3.63325e-07)
(3.98028e-07 0 -3.46333e-07)
(4.75009e-07 0 -3.27132e-07)
(5.46565e-07 0 -3.065e-07)
(6.126e-07 0 -2.85184e-07)
(6.73228e-07 0 -2.63725e-07)
(7.28685e-07 0 -2.42463e-07)
(7.79237e-07 0 -2.21628e-07)
(8.25074e-07 0 -2.01525e-07)
(8.66575e-07 0 -1.81467e-07)
(9.03621e-07 0 -1.62193e-07)
(9.36252e-07 0 -1.42516e-07)
(9.64908e-07 0 -1.19876e-07)
(9.88805e-07 0 -1.03006e-07)
(1.00913e-06 0 -8.58168e-08)
(1.02515e-06 0 -6.69302e-08)
(1.03661e-06 0 -4.34672e-08)
(1.04312e-06 0 -2.91251e-08)
(1.04648e-06 0 -1.15583e-08)
(1.04543e-06 0 6.58937e-09)
(1.04033e-06 0 2.27165e-08)
(1.03144e-06 0 3.64156e-08)
(1.01926e-06 0 5.19637e-08)
(1.0042e-06 0 6.25456e-08)
(9.86519e-07 0 7.3295e-08)
(9.66552e-07 0 8.27546e-08)
(9.44799e-07 0 9.04496e-08)
(9.21688e-07 0 9.65629e-08)
(8.97464e-07 0 1.01433e-07)
(8.72512e-07 0 1.04717e-07)
(8.47243e-07 0 1.0663e-07)
(8.21851e-07 0 1.07991e-07)
(7.96512e-07 0 1.08331e-07)
(7.71393e-07 0 1.08057e-07)
(7.4664e-07 0 1.07271e-07)
(7.22386e-07 0 1.05894e-07)
(6.98642e-07 0 1.04373e-07)
(6.75391e-07 0 1.02766e-07)
(6.52706e-07 0 1.00871e-07)
(6.30556e-07 0 9.90923e-08)
(6.08878e-07 0 9.74494e-08)
(5.87627e-07 0 9.5804e-08)
(5.66884e-07 0 9.39521e-08)
(5.46523e-07 0 9.32491e-08)
(5.26467e-07 0 9.18467e-08)
(5.06527e-07 0 9.03434e-08)
(4.86859e-07 0 8.92755e-08)
(4.67579e-07 0 8.80538e-08)
(4.48497e-07 0 8.73148e-08)
(4.29608e-07 0 8.65136e-08)
(4.10939e-07 0 8.54133e-08)
(3.92425e-07 0 8.46435e-08)
(3.74172e-07 0 8.35331e-08)
(3.56112e-07 0 8.26302e-08)
(3.38322e-07 0 8.15733e-08)
(3.20733e-07 0 8.07199e-08)
(3.03446e-07 0 7.95708e-08)
(2.8641e-07 0 7.83896e-08)
(2.6965e-07 0 7.71758e-08)
(2.53176e-07 0 7.60079e-08)
(2.36988e-07 0 7.47992e-08)
(2.21105e-07 0 7.35288e-08)
(2.05512e-07 0 7.23249e-08)
(1.90208e-07 0 7.10544e-08)
(1.75196e-07 0 6.97584e-08)
(1.60504e-07 0 6.84104e-08)
(1.46089e-07 0 6.70312e-08)
(1.31941e-07 0 6.56596e-08)
(1.18084e-07 0 6.42127e-08)
(1.04488e-07 0 6.27732e-08)
(9.1159e-08 0 6.14188e-08)
(7.78974e-08 0 6.04785e-08)
(6.57821e-08 0 6.01895e-08)
(4.98146e-08 0 6.31952e-08)
(2.52544e-08 0 1.12207e-07)
(-4.55214e-10 0 1.16094e-07)
(9.22136e-17 0 1.0729e-15)
(1.264e-16 0 5.26294e-18)
(2.61823e-16 0 1.36588e-17)
(2.96451e-16 0 2.19099e-17)
(3.38803e-16 0 2.95097e-17)
(3.72645e-16 0 3.64373e-17)
(3.97977e-16 0 4.26515e-17)
(4.15834e-16 0 4.81419e-17)
(4.27342e-16 0 5.29292e-17)
(4.33422e-16 0 5.70341e-17)
(4.3487e-16 0 6.04979e-17)
(4.3245e-16 0 6.32897e-17)
(4.26794e-16 0 6.5492e-17)
(4.18429e-16 0 6.71464e-17)
(4.07862e-16 0 6.82734e-17)
(3.95485e-16 0 6.89352e-17)
(3.81651e-16 0 6.9142e-17)
(3.667e-16 0 6.89662e-17)
(3.50859e-16 0 6.84802e-17)
(3.34357e-16 0 6.7653e-17)
(3.1741e-16 0 6.6588e-17)
(3.00174e-16 0 6.52749e-17)
(2.82761e-16 0 6.3786e-17)
(2.65308e-16 0 6.21419e-17)
(2.47896e-16 0 6.03739e-17)
(2.30608e-16 0 5.85024e-17)
(2.13526e-16 0 5.65585e-17)
(1.96662e-16 0 5.46043e-17)
(1.80067e-16 0 5.26294e-17)
(1.63813e-16 0 5.06545e-17)
(1.4789e-16 0 4.8752e-17)
(1.32266e-16 0 4.69218e-17)
(1.16963e-16 0 4.51847e-17)
(1.01981e-16 0 4.35614e-17)
(8.73193e-17 0 4.20828e-17)
(7.29573e-17 0 4.07697e-17)
(5.88332e-17 0 3.9622e-17)
(4.49159e-17 0 3.8681e-17)
(3.11537e-17 0 3.79573e-17)
(1.75052e-17 0 3.74816e-17)
(5.35599e-18 0 3.72335e-17)
(4.78161e-08 0 -4.88444e-07)
(1.4995e-07 0 -4.81234e-07)
(2.41625e-07 0 -4.68725e-07)
(3.33188e-07 0 -4.50506e-07)
(4.18682e-07 0 -4.28022e-07)
(4.97686e-07 0 -4.02897e-07)
(5.70332e-07 0 -3.76298e-07)
(6.36738e-07 0 -3.4912e-07)
(6.97203e-07 0 -3.22164e-07)
(7.52231e-07 0 -2.95789e-07)
(8.02233e-07 0 -2.70187e-07)
(8.4753e-07 0 -2.45563e-07)
(8.88695e-07 0 -2.20926e-07)
(9.25163e-07 0 -1.9807e-07)
(9.57427e-07 0 -1.73275e-07)
(9.85907e-07 0 -1.46365e-07)
(1.01001e-06 0 -1.26184e-07)
(1.0306e-06 0 -1.04464e-07)
(1.04603e-06 0 -8.06603e-08)
(1.05705e-06 0 -5.20976e-08)
(1.06335e-06 0 -3.53365e-08)
(1.06621e-06 0 -1.18769e-08)
(1.06393e-06 0 9.78095e-09)
(1.05767e-06 0 2.9765e-08)
(1.04745e-06 0 4.76003e-08)
(1.03364e-06 0 6.61431e-08)
(1.01704e-06 0 7.94536e-08)
(9.97617e-07 0 9.27678e-08)
(9.7586e-07 0 1.04268e-07)
(9.52372e-07 0 1.13423e-07)
(9.27596e-07 0 1.20934e-07)
(9.01855e-07 0 1.26615e-07)
(8.75539e-07 0 1.30316e-07)
(8.49073e-07 0 1.32341e-07)
(8.22631e-07 0 1.33748e-07)
(7.96444e-07 0 1.33798e-07)
(7.70636e-07 0 1.33274e-07)
(7.45365e-07 0 1.31891e-07)
(7.20744e-07 0 1.29985e-07)
(6.96771e-07 0 1.27982e-07)
(6.73394e-07 0 1.25786e-07)
(6.50665e-07 0 1.23339e-07)
(6.28574e-07 0 1.21025e-07)
(6.06996e-07 0 1.18978e-07)
(5.85895e-07 0 1.16866e-07)
(5.65243e-07 0 1.14661e-07)
(5.45018e-07 0 1.13377e-07)
(5.25119e-07 0 1.12324e-07)
(5.05345e-07 0 1.10321e-07)
(4.85671e-07 0 1.08991e-07)
(4.6645e-07 0 1.07572e-07)
(4.47429e-07 0 1.06636e-07)
(4.28567e-07 0 1.05713e-07)
(4.0993e-07 0 1.04421e-07)
(3.91385e-07 0 1.03535e-07)
(3.73115e-07 0 1.02146e-07)
(3.55021e-07 0 1.01069e-07)
(3.37208e-07 0 9.98058e-08)
(3.19559e-07 0 9.8763e-08)
(3.02224e-07 0 9.7316e-08)
(2.8512e-07 0 9.59268e-08)
(2.68335e-07 0 9.43773e-08)
(2.5183e-07 0 9.29712e-08)
(2.35651e-07 0 9.14578e-08)
(2.19753e-07 0 8.98992e-08)
(2.04123e-07 0 8.84329e-08)
(1.88788e-07 0 8.691e-08)
(1.73762e-07 0 8.53005e-08)
(1.59033e-07 0 8.36856e-08)
(1.4457e-07 0 8.20556e-08)
(1.30404e-07 0 8.03863e-08)
(1.16552e-07 0 7.8669e-08)
(1.03068e-07 0 7.69158e-08)
(9.00781e-08 0 7.52334e-08)
(7.72821e-08 0 7.41337e-08)
(6.65898e-08 0 7.28361e-08)
(5.37987e-08 0 7.60859e-08)
(2.65977e-08 0 1.40323e-07)
(-4.47727e-10 0 1.34136e-07)
(1.12861e-16 0 1.2737e-15)
(1.31202e-16 0 6.30725e-18)
(2.71243e-16 0 1.70503e-17)
(3.05354e-16 0 2.74624e-17)
(3.4693e-16 0 3.69336e-17)
(3.79955e-16 0 4.55053e-17)
(4.04471e-16 0 5.31464e-17)
(4.21542e-16 0 5.98879e-17)
(4.32264e-16 0 6.57402e-17)
(4.37599e-16 0 7.07343e-17)
(4.38323e-16 0 7.49012e-17)
(4.35211e-16 0 7.82616e-17)
(4.28904e-16 0 8.08776e-17)
(4.19939e-16 0 8.28111e-17)
(4.08803e-16 0 8.41036e-17)
(3.9592e-16 0 8.4786e-17)
(3.81651e-16 0 8.49721e-17)
(3.66307e-16 0 8.46826e-17)
(3.50104e-16 0 8.39588e-17)
(3.33292e-16 0 8.28835e-17)
(3.16076e-16 0 8.1498e-17)
(2.98592e-16 0 7.98333e-17)
(2.80993e-16 0 7.79204e-17)
(2.63385e-16 0 7.58525e-17)
(2.45838e-16 0 7.36294e-17)
(2.28457e-16 0 7.12926e-17)
(2.11334e-16 0 6.88835e-17)
(1.9446e-16 0 6.64329e-17)
(1.77875e-16 0 6.40031e-17)
(1.61641e-16 0 6.15836e-17)
(1.4578e-16 0 5.91951e-17)
(1.3026e-16 0 5.69204e-17)
(1.15071e-16 0 5.478e-17)
(1.00254e-16 0 5.27845e-17)
(8.57683e-17 0 5.09647e-17)
(7.15821e-17 0 4.93413e-17)
(5.76648e-17 0 4.79558e-17)
(4.39957e-17 0 4.68081e-17)
(3.05126e-17 0 4.59292e-17)
(1.71226e-17 0 4.53812e-17)
(5.22158e-18 0 4.5102e-17)
(5.13774e-08 0 -5.91945e-07)
(1.61707e-07 0 -5.82303e-07)
(2.59426e-07 0 -5.65687e-07)
(3.56342e-07 0 -5.41654e-07)
(4.456e-07 0 -5.12369e-07)
(5.26803e-07 0 -4.8012e-07)
(6.00361e-07 0 -4.46586e-07)
(6.66803e-07 0 -4.129e-07)
(7.26755e-07 0 -3.79993e-07)
(7.80886e-07 0 -3.48357e-07)
(8.29763e-07 0 -3.18225e-07)
(8.74575e-07 0 -2.88327e-07)
(9.14786e-07 0 -2.60848e-07)
(9.50597e-07 0 -2.33284e-07)
(9.82996e-07 0 -2.01648e-07)
(1.01092e-06 0 -1.74749e-07)
(1.03572e-06 0 -1.49745e-07)
(1.05625e-06 0 -1.23438e-07)
(1.07154e-06 0 -9.24896e-08)
(1.0819e-06 0 -6.18092e-08)
(1.08822e-06 0 -4.03933e-08)
(1.09039e-06 0 -1.12754e-08)
(1.08662e-06 0 1.43992e-08)
(1.07888e-06 0 3.78773e-08)
(1.06696e-06 0 6.07462e-08)
(1.05109e-06 0 8.18634e-08)
(1.03257e-06 0 9.83073e-08)
(1.01096e-06 0 1.14215e-07)
(9.86938e-07 0 1.27897e-07)
(9.61287e-07 0 1.38418e-07)
(9.34434e-07 0 1.47022e-07)
(9.06794e-07 0 1.53453e-07)
(8.78828e-07 0 1.57279e-07)
(8.50909e-07 0 1.59343e-07)
(8.23198e-07 0 1.60541e-07)
(7.95972e-07 0 1.60143e-07)
(7.69361e-07 0 1.59078e-07)
(7.4351e-07 0 1.57014e-07)
(7.18473e-07 0 1.54381e-07)
(6.94238e-07 0 1.51775e-07)
(6.70794e-07 0 1.48823e-07)
(6.48094e-07 0 1.45767e-07)
(6.26093e-07 0 1.42836e-07)
(6.04612e-07 0 1.40452e-07)
(5.83733e-07 0 1.37641e-07)
(5.63189e-07 0 1.35529e-07)
(5.43223e-07 0 1.33074e-07)
(5.23466e-07 0 1.32613e-07)
(5.04004e-07 0 1.30281e-07)
(4.84415e-07 0 1.28532e-07)
(4.65193e-07 0 1.2705e-07)
(4.4624e-07 0 1.25852e-07)
(4.27406e-07 0 1.24889e-07)
(4.08793e-07 0 1.23403e-07)
(3.90175e-07 0 1.22427e-07)
(3.71856e-07 0 1.20818e-07)
(3.537e-07 0 1.1954e-07)
(3.35843e-07 0 1.18081e-07)
(3.18146e-07 0 1.16821e-07)
(3.00757e-07 0 1.15139e-07)
(2.83585e-07 0 1.1346e-07)
(2.66748e-07 0 1.11661e-07)
(2.50206e-07 0 1.09941e-07)
(2.33968e-07 0 1.08176e-07)
(2.1808e-07 0 1.06289e-07)
(2.02399e-07 0 1.04668e-07)
(1.87082e-07 0 1.02755e-07)
(1.72042e-07 0 1.00854e-07)
(1.57281e-07 0 9.90104e-08)
(1.42783e-07 0 9.71248e-08)
(1.28562e-07 0 9.51778e-08)
(1.14654e-07 0 9.31667e-08)
(1.0116e-07 0 9.10112e-08)
(8.84003e-08 0 8.8706e-08)
(7.59791e-08 0 8.67162e-08)
(6.6469e-08 0 8.2781e-08)
(4.66814e-08 0 9.86141e-08)
(2.26082e-08 0 1.80809e-07)
(-4.40298e-10 0 1.45663e-07)
(1.23057e-16 0 1.47919e-15)
(1.37266e-16 0 7.41361e-18)
(2.82968e-16 0 2.04831e-17)
(3.16335e-16 0 3.30976e-17)
(3.56856e-16 0 4.45644e-17)
(3.88847e-16 0 5.48628e-17)
(4.1235e-16 0 6.40341e-17)
(4.28428e-16 0 7.20785e-17)
(4.38189e-16 0 7.90268e-17)
(4.42573e-16 0 8.49308e-17)
(4.42407e-16 0 8.98008e-17)
(4.38447e-16 0 9.36886e-17)
(4.31354e-16 0 9.67078e-17)
(4.21666e-16 0 9.88895e-17)
(4.09837e-16 0 1.00306e-16)
(3.96354e-16 0 1.01019e-16)
(3.81547e-16 0 1.01133e-16)
(3.65686e-16 0 1.00668e-16)
(3.4907e-16 0 9.96856e-17)
(3.31917e-16 0 9.83104e-17)
(3.1436e-16 0 9.65423e-17)
(2.96575e-16 0 9.44951e-17)
(2.7877e-16 0 9.21479e-17)
(2.60996e-16 0 8.96043e-17)
(2.43315e-16 0 8.69057e-17)
(2.25851e-16 0 8.40829e-17)
(2.08677e-16 0 8.11878e-17)
(1.91782e-16 0 7.82513e-17)
(1.75197e-16 0 7.53148e-17)
(1.59015e-16 0 7.24197e-17)
(1.43216e-16 0 6.95762e-17)
(1.2782e-16 0 6.68259e-17)
(1.12807e-16 0 6.42616e-17)
(9.81553e-17 0 6.18835e-17)
(8.38865e-17 0 5.97121e-17)
(6.99485e-17 0 5.77682e-17)
(5.62896e-17 0 5.61242e-17)
(4.2879e-17 0 5.47904e-17)
(2.97061e-17 0 5.37874e-17)
(1.6678e-17 0 5.3105e-17)
(5.08716e-18 0 5.28051e-17)
(5.61083e-08 0 -7.04463e-07)
(1.77378e-07 0 -6.9152e-07)
(2.8296e-07 0 -6.69343e-07)
(3.86482e-07 0 -6.37727e-07)
(4.80196e-07 0 -5.99677e-07)
(5.63574e-07 0 -5.58642e-07)
(6.37642e-07 0 -5.16822e-07)
(7.03422e-07 0 -4.75921e-07)
(7.62099e-07 0 -4.36673e-07)
(8.14373e-07 0 -3.99946e-07)
(8.621e-07 0 -3.64341e-07)
(9.05698e-07 0 -3.30799e-07)
(9.44707e-07 0 -2.99769e-07)
(9.79822e-07 0 -2.67303e-07)
(1.01247e-06 0 -2.30745e-07)
(1.04044e-06 0 -2.0338e-07)
(1.0659e-06 0 -1.73207e-07)
(1.08578e-06 0 -1.42664e-07)
(1.10214e-06 0 -1.0055e-07)
(1.11141e-06 0 -7.68671e-08)
(1.11838e-06 0 -4.32823e-08)
(1.1187e-06 0 -9.32466e-09)
(1.1138e-06 0 2.07428e-08)
(1.10428e-06 0 4.72107e-08)
(1.09024e-06 0 7.74804e-08)
(1.07203e-06 0 9.87756e-08)
(1.05087e-06 0 1.19663e-07)
(1.02655e-06 0 1.38262e-07)
(9.99757e-07 0 1.53853e-07)
(9.71459e-07 0 1.65836e-07)
(9.42073e-07 0 1.75317e-07)
(9.12073e-07 0 1.82252e-07)
(8.82126e-07 0 1.85995e-07)
(8.52481e-07 0 1.8787e-07)
(8.23294e-07 0 1.88538e-07)
(7.94877e-07 0 1.8748e-07)
(7.67342e-07 0 1.85624e-07)
(7.40882e-07 0 1.82629e-07)
(7.15458e-07 0 1.79108e-07)
(6.90969e-07 0 1.75706e-07)
(6.67478e-07 0 1.71854e-07)
(6.44864e-07 0 1.68138e-07)
(6.23027e-07 0 1.6449e-07)
(6.01723e-07 0 1.6169e-07)
(5.81166e-07 0 1.58191e-07)
(5.60858e-07 0 1.56171e-07)
(5.41195e-07 0 1.52526e-07)
(5.21472e-07 0 1.52681e-07)
(5.02464e-07 0 1.50228e-07)
(4.83099e-07 0 1.47886e-07)
(4.63733e-07 0 1.46565e-07)
(4.44866e-07 0 1.44999e-07)
(4.26068e-07 0 1.44064e-07)
(4.07486e-07 0 1.42458e-07)
(3.88802e-07 0 1.41373e-07)
(3.7044e-07 0 1.39565e-07)
(3.52188e-07 0 1.38042e-07)
(3.34228e-07 0 1.36428e-07)
(3.16469e-07 0 1.34923e-07)
(2.9902e-07 0 1.33095e-07)
(2.81826e-07 0 1.30994e-07)
(2.64894e-07 0 1.28934e-07)
(2.48325e-07 0 1.26954e-07)
(2.32103e-07 0 1.24836e-07)
(2.16121e-07 0 1.2278e-07)
(2.00431e-07 0 1.20797e-07)
(1.85115e-07 0 1.18582e-07)
(1.70056e-07 0 1.1645e-07)
(1.5527e-07 0 1.14364e-07)
(1.40719e-07 0 1.1225e-07)
(1.26402e-07 0 1.10047e-07)
(1.12345e-07 0 1.0775e-07)
(9.8615e-08 0 1.05247e-07)
(8.54472e-08 0 1.0238e-07)
(7.37383e-08 0 9.8698e-08)
(6.31838e-08 0 9.27187e-08)
(4.14195e-08 0 1.23473e-07)
(1.78588e-08 0 2.02188e-07)
(-4.30892e-10 0 1.52968e-07)
(1.43448e-16 0 1.68356e-15)
(1.44455e-16 0 8.59234e-18)
(2.96927e-16 0 2.40606e-17)
(3.29425e-16 0 3.89602e-17)
(3.68695e-16 0 5.25156e-17)
(3.99435e-16 0 6.46752e-17)
(4.21697e-16 0 7.54492e-17)
(4.36534e-16 0 8.48687e-17)
(4.45106e-16 0 9.29648e-17)
(4.48363e-16 0 9.97373e-17)
(4.47102e-16 0 1.05331e-16)
(4.42118e-16 0 1.09746e-16)
(4.34084e-16 0 1.13107e-16)
(4.23537e-16 0 1.15516e-16)
(4.10943e-16 0 1.17015e-16)
(3.96747e-16 0 1.17677e-16)
(3.81279e-16 0 1.17656e-16)
(3.64859e-16 0 1.16943e-16)
(3.47757e-16 0 1.15681e-16)
(3.30159e-16 0 1.13954e-16)
(3.1225e-16 0 1.11783e-16)
(2.94176e-16 0 1.09281e-16)
(2.76113e-16 0 1.0652e-16)
(2.58142e-16 0 1.0347e-16)
(2.40306e-16 0 1.00254e-16)
(2.22739e-16 0 9.69146e-17)
(2.05492e-16 0 9.34714e-17)
(1.88577e-16 0 8.99973e-17)
(1.72043e-16 0 8.65438e-17)
(1.55903e-16 0 8.31523e-17)
(1.40186e-16 0 7.98333e-17)
(1.24956e-16 0 7.66486e-17)
(1.10139e-16 0 7.36294e-17)
(9.56945e-17 0 7.0848e-17)
(8.16531e-17 0 6.83148e-17)
(6.80149e-17 0 6.60607e-17)
(5.46973e-17 0 6.41375e-17)
(4.16382e-17 0 6.25866e-17)
(2.88066e-17 0 6.14595e-17)
(1.613e-17 0 6.06737e-17)
(4.91139e-18 0 6.03428e-17)
(6.24594e-08 0 -8.29081e-07)
(1.98202e-07 0 -8.11854e-07)
(3.14492e-07 0 -7.81513e-07)
(4.25778e-07 0 -7.39537e-07)
(5.24603e-07 0 -6.90013e-07)
(6.09715e-07 0 -6.38017e-07)
(6.83352e-07 0 -5.8628e-07)
(7.47184e-07 0 -5.37214e-07)
(8.03146e-07 0 -4.91568e-07)
(8.53032e-07 0 -4.48882e-07)
(8.98967e-07 0 -4.08511e-07)
(9.40451e-07 0 -3.72517e-07)
(9.77339e-07 0 -3.39064e-07)
(1.01357e-06 0 -2.97543e-07)
(1.04491e-06 0 -2.64249e-07)
(1.07451e-06 0 -2.31084e-07)
(1.09961e-06 0 -1.98279e-07)
(1.12042e-06 0 -1.58543e-07)
(1.13689e-06 0 -1.15218e-07)
(1.14724e-06 0 -8.59e-08)
(1.15344e-06 0 -4.4951e-08)
(1.152e-06 0 -7.13194e-09)
(1.14584e-06 0 2.79419e-08)
(1.13425e-06 0 6.03066e-08)
(1.11751e-06 0 9.47434e-08)
(1.09655e-06 0 1.19516e-07)
(1.07203e-06 0 1.44047e-07)
(1.04433e-06 0 1.65597e-07)
(1.01425e-06 0 1.82723e-07)
(9.82714e-07 0 1.96118e-07)
(9.50255e-07 0 2.06566e-07)
(9.17533e-07 0 2.13279e-07)
(8.85237e-07 0 2.16664e-07)
(8.53521e-07 0 2.18197e-07)
(8.22651e-07 0 2.17877e-07)
(7.92875e-07 0 2.16092e-07)
(7.64381e-07 0 2.12829e-07)
(7.37277e-07 0 2.08727e-07)
(7.11466e-07 0 2.04233e-07)
(6.86789e-07 0 1.9967e-07)
(6.63331e-07 0 1.94815e-07)
(6.40931e-07 0 1.90208e-07)
(6.19324e-07 0 1.86151e-07)
(5.98368e-07 0 1.82416e-07)
(5.78115e-07 0 1.78547e-07)
(5.58261e-07 0 1.76029e-07)
(5.38752e-07 0 1.72948e-07)
(5.19549e-07 0 1.70978e-07)
(5.00575e-07 0 1.70384e-07)
(4.81737e-07 0 1.67349e-07)
(4.62286e-07 0 1.65901e-07)
(4.43418e-07 0 1.64123e-07)
(4.24647e-07 0 1.63154e-07)
(4.0602e-07 0 1.61651e-07)
(3.87332e-07 0 1.60227e-07)
(3.68817e-07 0 1.58532e-07)
(3.5052e-07 0 1.56581e-07)
(3.32342e-07 0 1.55005e-07)
(3.14615e-07 0 1.52898e-07)
(2.97007e-07 0 1.51099e-07)
(2.79747e-07 0 1.48732e-07)
(2.62784e-07 0 1.46186e-07)
(2.46117e-07 0 1.43969e-07)
(2.29855e-07 0 1.41638e-07)
(2.13895e-07 0 1.39211e-07)
(1.98181e-07 0 1.36916e-07)
(1.82888e-07 0 1.34433e-07)
(1.6783e-07 0 1.32051e-07)
(1.53006e-07 0 1.29726e-07)
(1.38407e-07 0 1.27404e-07)
(1.24018e-07 0 1.24996e-07)
(1.09764e-07 0 1.22491e-07)
(9.56231e-08 0 1.19783e-07)
(8.1536e-08 0 1.16645e-07)
(6.80078e-08 0 1.12556e-07)
(5.10357e-08 0 1.05932e-07)
(3.70167e-08 0 1.56495e-07)
(8.38073e-09 0 2.07745e-07)
(-4.20492e-10 0 1.61001e-07)
(1.69324e-16 0 1.83176e-15)
(1.52949e-16 0 9.65733e-18)
(3.13346e-16 0 2.77623e-17)
(3.4479e-16 0 4.51434e-17)
(3.82571e-16 0 6.09322e-17)
(4.11791e-16 0 7.5077e-17)
(4.32543e-16 0 8.75467e-17)
(4.45943e-16 0 9.83828e-17)