/*--------------------------------*- C++ -*----------------------------------*\
  =========                 |
  \\      /  F ield         | OpenFOAM: The Open Source CFD Toolbox
   \\    /   O peration     | Website:  https://openfoam.org
    \\  /    A nd           | Version:  6
     \\/     M anipulation  |
\*---------------------------------------------------------------------------*/
FoamFile
{
    version     2.0;
    format      ascii;
    class       volVectorField;
    location    "7500";
    object      U;
}
// * * * * * * * * * * * * * * * * * * * * * * * * * * * * * * * * * * * * * //

dimensions      [0 1 -1 0 0 0 0];

internalField   nonuniform List<vector> 
4800
(
(1.91719e-08 0 -1.73686e-08)
(5.42748e-08 0 -2.02381e-08)
(9.04533e-08 0 -2.12117e-08)
(1.26145e-07 0 -2.11546e-08)
(1.6108e-07 0 -2.06955e-08)
(1.95283e-07 0 -2.00473e-08)
(2.28714e-07 0 -1.92907e-08)
(2.61358e-07 0 -1.85055e-08)
(2.93241e-07 0 -1.77262e-08)
(3.24414e-07 0 -1.70075e-08)
(3.54949e-07 0 -1.63366e-08)
(3.84911e-07 0 -1.5757e-08)
(4.14375e-07 0 -1.52849e-08)
(4.43388e-07 0 -1.48442e-08)
(4.71915e-07 0 -1.44236e-08)
(4.99863e-07 0 -1.3974e-08)
(5.27167e-07 0 -1.35399e-08)
(5.54103e-07 0 -1.34478e-08)
(5.80549e-07 0 -1.3025e-08)
(6.05914e-07 0 -1.23458e-08)
(6.30119e-07 0 -1.15663e-08)
(6.53354e-07 0 -1.15153e-08)
(6.75427e-07 0 -1.04739e-08)
(6.9575e-07 0 -9.58469e-09)
(7.14218e-07 0 -8.72193e-09)
(7.30859e-07 0 -7.71576e-09)
(7.45431e-07 0 -6.62403e-09)
(7.57772e-07 0 -5.49971e-09)
(7.67819e-07 0 -4.31241e-09)
(7.75523e-07 0 -3.13865e-09)
(7.80875e-07 0 -1.96127e-09)
(7.8389e-07 0 -8.01288e-10)
(7.8462e-07 0 3.31445e-10)
(7.8311e-07 0 1.42e-09)
(7.79547e-07 0 2.40369e-09)
(7.73997e-07 0 3.36457e-09)
(7.66619e-07 0 4.22837e-09)
(7.57544e-07 0 5.0381e-09)
(7.46953e-07 0 5.74096e-09)
(7.34995e-07 0 6.38354e-09)
(7.21793e-07 0 6.949e-09)
(7.07515e-07 0 7.44397e-09)
(6.92284e-07 0 7.88281e-09)
(6.76227e-07 0 8.23588e-09)
(6.59458e-07 0 8.60318e-09)
(6.42055e-07 0 8.87155e-09)
(6.24038e-07 0 9.15298e-09)
(6.0558e-07 0 9.2828e-09)
(5.8677e-07 0 9.46681e-09)
(5.67625e-07 0 9.59291e-09)
(5.48214e-07 0 9.69243e-09)
(5.28581e-07 0 9.79833e-09)
(5.08755e-07 0 9.84253e-09)
(4.88808e-07 0 9.87158e-09)
(4.68768e-07 0 9.89355e-09)
(4.48687e-07 0 9.85598e-09)
(4.28616e-07 0 9.84222e-09)
(4.08578e-07 0 9.76551e-09)
(3.88599e-07 0 9.72872e-09)
(3.68702e-07 0 9.6223e-09)
(3.4894e-07 0 9.50402e-09)
(3.29358e-07 0 9.3785e-09)
(3.09968e-07 0 9.24361e-09)
(2.9078e-07 0 9.09611e-09)
(2.71817e-07 0 8.93384e-09)
(2.5311e-07 0 8.7525e-09)
(2.34676e-07 0 8.57122e-09)
(2.16522e-07 0 8.38167e-09)
(1.98644e-07 0 8.19674e-09)
(1.81093e-07 0 7.97189e-09)
(1.63929e-07 0 7.74523e-09)
(1.47199e-07 0 7.49845e-09)
(1.31039e-07 0 7.19724e-09)
(1.15817e-07 0 6.69676e-09)
(1.02599e-07 0 5.87187e-09)
(9.37206e-08 0 4.15222e-09)
(9.28097e-08 0 -1.06344e-08)
(7.40721e-08 0 7.39372e-09)
(-3.90989e-10 0 2.75695e-08)
(4.26154e-17 0 2.54171e-16)
(2.49596e-16 0 1.8715e-18)
(4.94344e-16 0 -2.09897e-18)
(5.10846e-16 0 -1.85082e-18)
(5.38174e-16 0 -3.20532e-19)
(5.62059e-16 0 1.39587e-18)
(5.79068e-16 0 2.90547e-18)
(5.88436e-16 0 4.11522e-18)
(5.90876e-16 0 5.06648e-18)
(5.87557e-16 0 5.82128e-18)
(5.79709e-16 0 6.38997e-18)
(5.68439e-16 0 6.88628e-18)
(5.54594e-16 0 7.24817e-18)
(5.38794e-16 0 7.55836e-18)
(5.21548e-16 0 7.79618e-18)
(5.03257e-16 0 8.01331e-18)
(4.8418e-16 0 8.18909e-18)
(4.64545e-16 0 8.31317e-18)
(4.44568e-16 0 8.41656e-18)
(4.24364e-16 0 8.49928e-18)
(4.04067e-16 0 8.59234e-18)
(3.8376e-16 0 8.65438e-18)
(3.63474e-16 0 8.70608e-18)
(3.43249e-16 0 8.76812e-18)
(3.23117e-16 0 8.83015e-18)
(3.031e-16 0 8.87151e-18)
(2.83154e-16 0 8.92321e-18)
(2.63302e-16 0 8.94389e-18)
(2.43512e-16 0 8.97491e-18)
(2.23773e-16 0 9.00593e-18)
(2.04128e-16 0 9.04729e-18)
(1.84503e-16 0 9.05763e-18)
(1.64909e-16 0 9.07831e-18)
(1.45367e-16 0 9.07831e-18)
(1.25825e-16 0 9.07831e-18)
(1.06313e-16 0 9.09899e-18)
(8.68436e-17 0 9.08865e-18)
(6.73842e-17 0 9.06797e-18)
(4.79558e-17 0 9.04729e-18)
(2.85998e-17 0 8.97491e-18)
(9.47122e-18 0 8.78879e-18)
(1.89049e-08 0 -5.42543e-08)
(5.53277e-08 0 -5.13367e-08)
(9.07911e-08 0 -5.00845e-08)
(1.26488e-07 0 -4.9094e-08)
(1.61407e-07 0 -4.81875e-08)
(1.95602e-07 0 -4.7293e-08)
(2.29021e-07 0 -4.64071e-08)
(2.61641e-07 0 -4.55776e-08)
(2.93493e-07 0 -4.48104e-08)
(3.24622e-07 0 -4.41506e-08)
(3.55107e-07 0 -4.35938e-08)
(3.85058e-07 0 -4.31382e-08)
(4.14544e-07 0 -4.27961e-08)
(4.43582e-07 0 -4.2291e-08)
(4.72133e-07 0 -4.17131e-08)
(5.00133e-07 0 -4.07928e-08)
(5.2757e-07 0 -3.99067e-08)
(5.54692e-07 0 -4.00106e-08)
(5.81298e-07 0 -3.8894e-08)
(6.06797e-07 0 -3.7002e-08)
(6.31248e-07 0 -3.48625e-08)
(6.54693e-07 0 -3.47581e-08)
(6.76958e-07 0 -3.17827e-08)
(6.97434e-07 0 -2.9161e-08)
(7.16101e-07 0 -2.67119e-08)
(7.32925e-07 0 -2.37293e-08)
(7.47615e-07 0 -2.04825e-08)
(7.60038e-07 0 -1.71662e-08)
(7.70144e-07 0 -1.36394e-08)
(7.77869e-07 0 -1.01465e-08)
(7.83208e-07 0 -6.64266e-09)
(7.86183e-07 0 -3.17194e-09)
(7.86835e-07 0 2.25866e-10)
(7.85218e-07 0 3.47885e-09)
(7.81518e-07 0 6.47077e-09)
(7.75816e-07 0 9.31978e-09)
(7.68295e-07 0 1.1941e-08)
(7.59071e-07 0 1.43762e-08)
(7.4833e-07 0 1.65071e-08)
(7.36222e-07 0 1.8454e-08)
(7.22869e-07 0 2.02214e-08)
(7.08461e-07 0 2.17024e-08)
(6.93129e-07 0 2.30629e-08)
(6.76961e-07 0 2.42002e-08)
(6.60082e-07 0 2.52946e-08)
(6.42609e-07 0 2.61931e-08)
(6.24539e-07 0 2.709e-08)
(6.06017e-07 0 2.75744e-08)
(5.87146e-07 0 2.81609e-08)
(5.67957e-07 0 2.86412e-08)
(5.48504e-07 0 2.90258e-08)
(5.28823e-07 0 2.94504e-08)
(5.08946e-07 0 2.97164e-08)
(4.88949e-07 0 2.99034e-08)
(4.68874e-07 0 3.00958e-08)
(4.48762e-07 0 3.01289e-08)
(4.28653e-07 0 3.02164e-08)
(4.08578e-07 0 3.01792e-08)
(3.88556e-07 0 3.02275e-08)
(3.68631e-07 0 3.00807e-08)
(3.48845e-07 0 2.99077e-08)
(3.29249e-07 0 2.97008e-08)
(3.09848e-07 0 2.94903e-08)
(2.90649e-07 0 2.92508e-08)
(2.71671e-07 0 2.89753e-08)
(2.52956e-07 0 2.86453e-08)
(2.34492e-07 0 2.83533e-08)
(2.16293e-07 0 2.80099e-08)
(1.98401e-07 0 2.76459e-08)
(1.80837e-07 0 2.71822e-08)
(1.63597e-07 0 2.67139e-08)
(1.46709e-07 0 2.61321e-08)
(1.30207e-07 0 2.53849e-08)
(1.1407e-07 0 2.42434e-08)
(9.79586e-08 0 2.20285e-08)
(8.21137e-08 0 1.63699e-08)
(5.27986e-08 0 4.05931e-10)
(3.31169e-08 0 6.63969e-08)
(-3.3434e-10 0 6.41554e-08)
(2.40736e-16 0 5.76376e-16)
(2.45576e-16 0 4.42542e-18)
(4.90622e-16 0 1.10635e-18)
(5.12625e-16 0 2.66766e-18)
(5.414e-16 0 5.71789e-18)
(5.65254e-16 0 8.92321e-18)
(5.81787e-16 0 1.17253e-17)
(5.90607e-16 0 1.40414e-17)
(5.92572e-16 0 1.59439e-17)
(5.8887e-16 0 1.74845e-17)
(5.80764e-16 0 1.87667e-17)
(5.69307e-16 0 1.9873e-17)
(5.55286e-16 0 2.07726e-17)
(5.39342e-16 0 2.15481e-17)
(5.22003e-16 0 2.21995e-17)
(5.0365e-16 0 2.27681e-17)
(4.8449e-16 0 2.32645e-17)
(4.64782e-16 0 2.3678e-17)
(4.44754e-16 0 2.40503e-17)
(4.2454e-16 0 2.43708e-17)
(4.04223e-16 0 2.46913e-17)
(3.83874e-16 0 2.49498e-17)
(3.63567e-16 0 2.52187e-17)
(3.43352e-16 0 2.54461e-17)
(3.23211e-16 0 2.5684e-17)
(3.03172e-16 0 2.58804e-17)
(2.83227e-16 0 2.60562e-17)
(2.63354e-16 0 2.62113e-17)
(2.43563e-16 0 2.63664e-17)
(2.23845e-16 0 2.64905e-17)
(2.04169e-16 0 2.65939e-17)
(1.84544e-16 0 2.66559e-17)
(1.6495e-16 0 2.66973e-17)
(1.45367e-16 0 2.67076e-17)
(1.25835e-16 0 2.67179e-17)
(1.06313e-16 0 2.6749e-17)
(8.68023e-17 0 2.67283e-17)
(6.73325e-17 0 2.66662e-17)
(4.78627e-17 0 2.65835e-17)
(2.83206e-17 0 2.64698e-17)
(9.26442e-18 0 2.6232e-17)
(1.86314e-08 0 -9.13034e-08)
(5.54404e-08 0 -9.05839e-08)
(9.15539e-08 0 -8.96534e-08)
(1.27881e-07 0 -8.81767e-08)
(1.63192e-07 0 -8.63772e-08)
(1.97605e-07 0 -8.43571e-08)
(2.31111e-07 0 -8.22325e-08)
(2.63694e-07 0 -8.01521e-08)
(2.95422e-07 0 -7.82011e-08)
(3.26388e-07 0 -7.64396e-08)
(3.56686e-07 0 -7.48955e-08)
(3.8644e-07 0 -7.36549e-08)
(4.15766e-07 0 -7.2643e-08)
(4.44701e-07 0 -7.14772e-08)
(4.73147e-07 0 -7.03039e-08)
(5.01114e-07 0 -6.83614e-08)
(5.2869e-07 0 -6.73907e-08)
(5.56108e-07 0 -6.72476e-08)
(5.82906e-07 0 -6.50736e-08)
(6.08653e-07 0 -6.20213e-08)
(6.33555e-07 0 -5.89782e-08)
(6.57485e-07 0 -5.81041e-08)
(6.80133e-07 0 -5.33657e-08)
(7.00917e-07 0 -4.89551e-08)
(7.19957e-07 0 -4.49282e-08)
(7.37103e-07 0 -3.98051e-08)
(7.52006e-07 0 -3.43477e-08)
(7.64592e-07 0 -2.87747e-08)
(7.74812e-07 0 -2.28443e-08)
(7.82578e-07 0 -1.69482e-08)
(7.87877e-07 0 -1.10312e-08)
(7.90733e-07 0 -5.21045e-09)
(7.9121e-07 0 5.24018e-10)
(7.89394e-07 0 5.93449e-09)
(7.8546e-07 0 1.10169e-08)
(7.79467e-07 0 1.5749e-08)
(7.71633e-07 0 2.01314e-08)
(7.62098e-07 0 2.41885e-08)
(7.51061e-07 0 2.77177e-08)
(7.38678e-07 0 3.09395e-08)
(7.25057e-07 0 3.39098e-08)
(7.10382e-07 0 3.63272e-08)
(6.94794e-07 0 3.85581e-08)
(6.78406e-07 0 4.04749e-08)
(6.61346e-07 0 4.21807e-08)
(6.43735e-07 0 4.36761e-08)
(6.25517e-07 0 4.51744e-08)
(6.06826e-07 0 4.59941e-08)
(5.87804e-07 0 4.69042e-08)
(5.68499e-07 0 4.7686e-08)
(5.48952e-07 0 4.82781e-08)
(5.29188e-07 0 4.89655e-08)
(5.09227e-07 0 4.93859e-08)
(4.89138e-07 0 4.96472e-08)
(4.68962e-07 0 4.99287e-08)
(4.48758e-07 0 4.99467e-08)
(4.28576e-07 0 5.00116e-08)
(4.08451e-07 0 4.99083e-08)
(3.8837e-07 0 4.9897e-08)
(3.68389e-07 0 4.95919e-08)
(3.48549e-07 0 4.92346e-08)
(3.28889e-07 0 4.88224e-08)
(3.09417e-07 0 4.84101e-08)
(2.90163e-07 0 4.79289e-08)
(2.71153e-07 0 4.7381e-08)
(2.52391e-07 0 4.67781e-08)
(2.33886e-07 0 4.61819e-08)
(2.15673e-07 0 4.55036e-08)
(1.97746e-07 0 4.47924e-08)
(1.8012e-07 0 4.39931e-08)
(1.62797e-07 0 4.31742e-08)
(1.45754e-07 0 4.22401e-08)
(1.28917e-07 0 4.11559e-08)
(1.12117e-07 0 3.97231e-08)
(9.47541e-08 0 3.76157e-08)
(7.66822e-08 0 3.49588e-08)
(4.80251e-08 0 3.20962e-08)
(2.86495e-08 0 8.01863e-08)
(-3.21965e-10 0 8.67995e-08)
(2.68143e-16 0 8.08779e-16)
(2.46294e-16 0 6.34861e-18)
(4.92607e-16 0 9.00593e-18)
(5.15458e-16 0 1.24284e-17)
(5.44409e-16 0 1.60059e-17)
(5.68035e-16 0 1.9356e-17)
(5.84186e-16 0 2.23339e-17)
(5.92665e-16 0 2.48981e-17)
(5.94298e-16 0 2.71315e-17)
(5.90369e-16 0 2.90651e-17)
(5.82097e-16 0 3.07918e-17)
(5.70444e-16 0 3.226e-17)
(5.56269e-16 0 3.35835e-17)
(5.40211e-16 0 3.47416e-17)
(5.22778e-16 0 3.57652e-17)
(5.04322e-16 0 3.66338e-17)
(4.8509e-16 0 3.74506e-17)
(4.6533e-16 0 3.81744e-17)
(4.45261e-16 0 3.88672e-17)
(4.25005e-16 0 3.94462e-17)
(4.04646e-16 0 4.00355e-17)
(3.84287e-16 0 4.05525e-17)
(3.63949e-16 0 4.10695e-17)
(3.43704e-16 0 4.15245e-17)
(3.23552e-16 0 4.19381e-17)
(3.03462e-16 0 4.2331e-17)
(2.83475e-16 0 4.26515e-17)
(2.63612e-16 0 4.29824e-17)
(2.43791e-16 0 4.32616e-17)
(2.24001e-16 0 4.34994e-17)
(2.04283e-16 0 4.36751e-17)
(1.84616e-16 0 4.38096e-17)
(1.64992e-16 0 4.38716e-17)
(1.45398e-16 0 4.3913e-17)
(1.25845e-16 0 4.3913e-17)
(1.06313e-16 0 4.39026e-17)
(8.67609e-17 0 4.38509e-17)
(6.72395e-17 0 4.37682e-17)
(4.77697e-17 0 4.36545e-17)
(2.82379e-17 0 4.35304e-17)
(9.22306e-18 0 4.34166e-17)
(1.89783e-08 0 -1.2777e-07)
(5.66039e-08 0 -1.26859e-07)
(9.315e-08 0 -1.25364e-07)
(1.29967e-07 0 -1.23116e-07)
(1.65617e-07 0 -1.20407e-07)
(2.00192e-07 0 -1.17421e-07)
(2.3371e-07 0 -1.14325e-07)
(2.66187e-07 0 -1.11333e-07)
(2.97709e-07 0 -1.08571e-07)
(3.28391e-07 0 -1.06131e-07)
(3.5841e-07 0 -1.04072e-07)
(3.87918e-07 0 -1.02478e-07)
(4.17047e-07 0 -1.01158e-07)
(4.45857e-07 0 -9.97636e-08)
(4.74215e-07 0 -9.81961e-08)
(5.02273e-07 0 -9.54668e-08)
(5.30136e-07 0 -9.50184e-08)
(5.58006e-07 0 -9.4467e-08)
(5.85133e-07 0 -9.16009e-08)
(6.11362e-07 0 -8.70494e-08)
(6.36897e-07 0 -8.3928e-08)
(6.61631e-07 0 -8.16257e-08)
(6.84839e-07 0 -7.53669e-08)
(7.0615e-07 0 -6.91609e-08)
(7.25756e-07 0 -6.35847e-08)
(7.43391e-07 0 -5.61421e-08)
(7.58646e-07 0 -4.8448e-08)
(7.715e-07 0 -4.05588e-08)
(7.81904e-07 0 -3.21306e-08)
(7.89721e-07 0 -2.37049e-08)
(7.94958e-07 0 -1.53208e-08)
(7.9766e-07 0 -7.07352e-09)
(7.97861e-07 0 1.10024e-09)
(7.95709e-07 0 8.6584e-09)
(7.91394e-07 0 1.59045e-08)
(7.84972e-07 0 2.25498e-08)
(7.76672e-07 0 2.87204e-08)
(7.66656e-07 0 3.43772e-08)
(7.55154e-07 0 3.93061e-08)
(7.42293e-07 0 4.38148e-08)
(7.28232e-07 0 4.79068e-08)
(7.13204e-07 0 5.12782e-08)
(6.9728e-07 0 5.436e-08)
(6.80554e-07 0 5.70457e-08)
(6.63176e-07 0 5.93286e-08)
(6.45341e-07 0 6.13734e-08)
(6.26967e-07 0 6.35115e-08)
(6.08078e-07 0 6.46566e-08)
(5.88848e-07 0 6.58553e-08)
(5.69384e-07 0 6.69771e-08)
(5.49685e-07 0 6.77527e-08)
(5.29763e-07 0 6.87518e-08)
(5.09667e-07 0 6.93672e-08)
(4.89452e-07 0 6.97019e-08)
(4.6916e-07 0 7.01314e-08)
(4.48868e-07 0 7.01359e-08)
(4.28562e-07 0 7.02336e-08)
(4.08305e-07 0 7.01201e-08)
(3.88109e-07 0 7.01015e-08)
(3.68058e-07 0 6.96775e-08)
(3.48134e-07 0 6.91982e-08)
(3.28388e-07 0 6.86484e-08)
(3.08854e-07 0 6.80483e-08)
(2.89554e-07 0 6.73569e-08)
(2.70495e-07 0 6.65997e-08)
(2.51676e-07 0 6.58049e-08)
(2.33112e-07 0 6.49612e-08)
(2.1483e-07 0 6.40562e-08)
(1.96851e-07 0 6.30741e-08)
(1.79171e-07 0 6.19999e-08)
(1.61755e-07 0 6.09209e-08)
(1.44613e-07 0 5.97283e-08)
(1.27675e-07 0 5.84563e-08)
(1.10784e-07 0 5.71162e-08)
(9.35886e-08 0 5.57769e-08)
(7.6847e-08 0 5.47407e-08)
(5.5487e-08 0 5.66816e-08)
(2.91388e-08 0 9.96968e-08)
(-3.15845e-10 0 1.07128e-07)
(2.70657e-16 0 1.13607e-15)
(2.48343e-16 0 8.91287e-18)
(4.96712e-16 0 1.38449e-17)
(5.19614e-16 0 1.88287e-17)
(5.48338e-16 0 2.35333e-17)
(5.71592e-16 0 2.77933e-17)
(5.8734e-16 0 3.16293e-17)
(5.95415e-16 0 3.49897e-17)
(5.96718e-16 0 3.79676e-17)
(5.9251e-16 0 4.06146e-17)
(5.83969e-16 0 4.2941e-17)
(5.72099e-16 0 4.49573e-17)
(5.57747e-16 0 4.67564e-17)
(5.41514e-16 0 4.83384e-17)
(5.23905e-16 0 4.97549e-17)
(5.05314e-16 0 5.09957e-17)
(4.86e-16 0 5.21124e-17)
(4.66178e-16 0 5.31257e-17)
(4.46026e-16 0 5.40769e-17)
(4.25719e-16 0 5.49248e-17)
(4.05319e-16 0 5.5721e-17)
(3.84898e-16 0 5.64654e-17)
(3.64539e-16 0 5.71375e-17)
(3.44231e-16 0 5.77786e-17)
(3.24038e-16 0 5.83576e-17)
(3.03906e-16 0 5.89056e-17)
(2.83868e-16 0 5.93916e-17)
(2.63953e-16 0 5.98465e-17)
(2.4408e-16 0 6.02084e-17)
(2.24269e-16 0 6.04876e-17)
(2.04479e-16 0 6.07254e-17)
(1.8473e-16 0 6.09012e-17)
(1.65054e-16 0 6.10046e-17)
(1.45408e-16 0 6.10563e-17)
(1.25825e-16 0 6.10563e-17)
(1.06251e-16 0 6.09942e-17)
(8.66782e-17 0 6.09115e-17)
(6.71361e-17 0 6.07668e-17)
(4.76146e-17 0 6.0653e-17)
(2.81035e-17 0 6.04772e-17)
(9.17137e-18 0 6.03325e-17)
(1.95182e-08 0 -1.6533e-07)
(5.82275e-08 0 -1.63997e-07)
(9.54225e-08 0 -1.61819e-07)
(1.32861e-07 0 -1.58661e-07)
(1.68941e-07 0 -1.54844e-07)
(2.03691e-07 0 -1.50714e-07)
(2.37178e-07 0 -1.46512e-07)
(2.69449e-07 0 -1.42497e-07)
(3.00642e-07 0 -1.38841e-07)
(3.30948e-07 0 -1.35678e-07)
(3.60564e-07 0 -1.33112e-07)
(3.8967e-07 0 -1.31265e-07)
(4.18574e-07 0 -1.29502e-07)
(4.47108e-07 0 -1.28209e-07)
(4.75341e-07 0 -1.26003e-07)
(5.03757e-07 0 -1.22235e-07)
(5.31905e-07 0 -1.23697e-07)
(5.60368e-07 0 -1.22475e-07)
(5.87982e-07 0 -1.18318e-07)
(6.1505e-07 0 -1.11727e-07)
(6.41275e-07 0 -1.11739e-07)
(6.67193e-07 0 -1.05216e-07)
(6.91017e-07 0 -9.8089e-08)
(7.1321e-07 0 -9.02255e-08)
(7.33607e-07 0 -8.28206e-08)
(7.51892e-07 0 -7.30043e-08)
(7.67654e-07 0 -6.29978e-08)
(7.80909e-07 0 -5.25069e-08)
(7.91516e-07 0 -4.16329e-08)
(7.99412e-07 0 -3.0474e-08)
(8.04572e-07 0 -1.94831e-08)
(8.07025e-07 0 -8.65982e-09)
(8.06839e-07 0 2.06504e-09)
(8.04225e-07 0 1.17988e-08)
(7.99352e-07 0 2.13e-08)
(7.92324e-07 0 2.98668e-08)
(7.83393e-07 0 3.78888e-08)
(7.72736e-07 0 4.51124e-08)
(7.60607e-07 0 5.14545e-08)
(7.47135e-07 0 5.72612e-08)
(7.32492e-07 0 6.23612e-08)
(7.16928e-07 0 6.66609e-08)
(7.00515e-07 0 7.05553e-08)
(6.83366e-07 0 7.39762e-08)
(6.65622e-07 0 7.68029e-08)
(6.47456e-07 0 7.91712e-08)
(6.2885e-07 0 8.20937e-08)
(6.09726e-07 0 8.36581e-08)
(5.90198e-07 0 8.49565e-08)
(5.70493e-07 0 8.64026e-08)
(5.50629e-07 0 8.74116e-08)
(5.30536e-07 0 8.86434e-08)
(5.10274e-07 0 8.94511e-08)
(4.8992e-07 0 8.98524e-08)
(4.69459e-07 0 9.04017e-08)
(4.49001e-07 0 9.04242e-08)
(4.28535e-07 0 9.05455e-08)
(4.08141e-07 0 9.03933e-08)
(3.87808e-07 0 9.03068e-08)
(3.67636e-07 0 8.97743e-08)
(3.476e-07 0 8.91599e-08)
(3.27757e-07 0 8.84317e-08)
(3.08124e-07 0 8.76647e-08)
(2.88726e-07 0 8.67753e-08)
(2.69589e-07 0 8.57902e-08)
(2.50702e-07 0 8.481e-08)
(2.32077e-07 0 8.36975e-08)
(2.13737e-07 0 8.25253e-08)
(1.95711e-07 0 8.12676e-08)
(1.77958e-07 0 7.99596e-08)
(1.60479e-07 0 7.86067e-08)
(1.43301e-07 0 7.71688e-08)
(1.26396e-07 0 7.57056e-08)
(1.09774e-07 0 7.43282e-08)
(9.32759e-08 0 7.33347e-08)
(7.78743e-08 0 7.30345e-08)
(5.90759e-08 0 7.6093e-08)
(2.98883e-08 0 1.28462e-07)
(-3.10841e-10 0 1.29709e-07)
(2.78072e-16 0 1.48007e-15)
(2.51325e-16 0 1.16736e-17)
(5.02502e-16 0 1.8291e-17)
(5.25136e-16 0 2.47637e-17)
(5.53394e-16 0 3.07401e-17)
(5.76152e-16 0 3.61581e-17)
(5.91383e-16 0 4.09454e-17)
(5.99003e-16 0 4.52468e-17)
(5.99923e-16 0 4.90311e-17)
(5.95332e-16 0 5.23709e-17)
(5.8643e-16 0 5.52867e-17)
(5.7426e-16 0 5.7882e-17)
(5.5965e-16 0 6.01464e-17)
(5.4322e-16 0 6.21213e-17)
(5.25446e-16 0 6.391e-17)
(5.06659e-16 0 6.5492e-17)
(4.87199e-16 0 6.68879e-17)
(4.67285e-16 0 6.817e-17)
(4.4706e-16 0 6.93384e-17)
(4.26649e-16 0 7.04138e-17)
(4.06187e-16 0 7.13857e-17)
(3.85725e-16 0 7.22853e-17)
(3.65273e-16 0 7.31331e-17)
(3.44924e-16 0 7.39189e-17)
(3.24689e-16 0 7.46427e-17)
(3.04506e-16 0 7.53355e-17)
(2.84405e-16 0 7.59765e-17)
(2.64408e-16 0 7.65039e-17)
(2.44432e-16 0 7.69485e-17)
(2.24528e-16 0 7.72897e-17)
(2.04686e-16 0 7.75585e-17)
(1.84896e-16 0 7.7755e-17)
(1.65147e-16 0 7.78791e-17)
(1.45439e-16 0 7.78894e-17)
(1.25794e-16 0 7.78791e-17)
(1.06169e-16 0 7.77653e-17)
(8.65334e-17 0 7.76309e-17)
(6.69706e-17 0 7.74551e-17)
(4.74595e-17 0 7.72794e-17)
(2.79277e-17 0 7.70622e-17)
(9.08865e-18 0 7.68554e-17)
(2.02026e-08 0 -2.04274e-07)
(6.03178e-08 0 -2.02509e-07)
(9.85564e-08 0 -1.99524e-07)
(1.36871e-07 0 -1.95233e-07)
(1.73511e-07 0 -1.90014e-07)
(2.08497e-07 0 -1.84412e-07)
(2.41907e-07 0 -1.78809e-07)
(2.73828e-07 0 -1.73495e-07)
(3.0449e-07 0 -1.68817e-07)
(3.34213e-07 0 -1.64869e-07)
(3.63205e-07 0 -1.6179e-07)
(3.91757e-07 0 -1.59642e-07)
(4.20341e-07 0 -1.57476e-07)
(4.48261e-07 0 -1.56806e-07)
(4.7632e-07 0 -1.53767e-07)
(5.05218e-07 0 -1.50108e-07)
(5.34073e-07 0 -1.52518e-07)
(5.63083e-07 0 -1.50614e-07)
(5.91178e-07 0 -1.45872e-07)
(6.19568e-07 0 -1.38391e-07)
(6.46941e-07 0 -1.39133e-07)
(6.74009e-07 0 -1.30189e-07)
(6.98807e-07 0 -1.21736e-07)
(7.22199e-07 0 -1.12375e-07)
(7.43657e-07 0 -1.02652e-07)
(7.6276e-07 0 -9.05906e-08)
(7.79185e-07 0 -7.80417e-08)
(7.92948e-07 0 -6.4862e-08)
(8.03833e-07 0 -5.12271e-08)
(8.1181e-07 0 -3.72533e-08)
(8.16855e-07 0 -2.34293e-08)
(8.18969e-07 0 -9.82903e-09)
(8.18276e-07 0 3.50011e-09)
(8.15057e-07 0 1.55453e-08)
(8.09441e-07 0 2.73874e-08)
(8.01617e-07 0 3.79218e-08)
(7.9183e-07 0 4.78599e-08)
(7.80317e-07 0 5.65381e-08)
(7.67369e-07 0 6.4325e-08)
(7.5311e-07 0 7.13883e-08)
(7.37722e-07 0 7.746e-08)
(7.21479e-07 0 8.26172e-08)
(7.04497e-07 0 8.72568e-08)
(6.86825e-07 0 9.13565e-08)
(6.68627e-07 0 9.46448e-08)
(6.50002e-07 0 9.7455e-08)
(6.31098e-07 0 1.00595e-07)
(6.11719e-07 0 1.03173e-07)
(5.91887e-07 0 1.0435e-07)
(5.71853e-07 0 1.06054e-07)
(5.51763e-07 0 1.07299e-07)
(5.31461e-07 0 1.087e-07)
(5.10999e-07 0 1.09716e-07)
(4.90452e-07 0 1.10204e-07)
(4.69768e-07 0 1.10883e-07)
(4.49126e-07 0 1.10847e-07)
(4.28487e-07 0 1.11015e-07)
(4.0793e-07 0 1.10821e-07)
(3.87408e-07 0 1.10678e-07)
(3.67079e-07 0 1.09979e-07)
(3.46887e-07 0 1.09256e-07)
(3.26933e-07 0 1.08277e-07)
(3.07195e-07 0 1.07356e-07)
(2.87718e-07 0 1.06229e-07)
(2.68489e-07 0 1.04998e-07)
(2.49512e-07 0 1.03795e-07)
(2.30818e-07 0 1.02448e-07)
(2.12425e-07 0 1.00989e-07)
(1.94315e-07 0 9.94712e-08)
(1.76484e-07 0 9.79131e-08)
(1.5896e-07 0 9.6267e-08)
(1.41761e-07 0 9.45518e-08)
(1.24944e-07 0 9.27717e-08)
(1.08628e-07 0 9.10443e-08)
(9.25795e-08 0 8.98398e-08)
(7.86677e-08 0 8.84216e-08)
(6.26681e-08 0 9.19546e-08)
(3.06592e-08 0 1.60792e-07)
(-3.05848e-10 0 1.50123e-07)
(2.92748e-16 0 1.81496e-15)
(2.55106e-16 0 1.44343e-17)
(5.09791e-16 0 2.26751e-17)
(5.32074e-16 0 3.06677e-17)
(5.59733e-16 0 3.80193e-17)
(5.81798e-16 0 4.46574e-17)
(5.96418e-16 0 5.05304e-17)
(6.0347e-16 0 5.57727e-17)
(6.03842e-16 0 6.03635e-17)
(5.98775e-16 0 6.44167e-17)
(5.8947e-16 0 6.79529e-17)
(5.76959e-16 0 7.10755e-17)
(5.61997e-16 0 7.37949e-17)
(5.45278e-16 0 7.6173e-17)
(5.27276e-16 0 7.8272e-17)
(5.08303e-16 0 8.01331e-17)
(4.88667e-16 0 8.17875e-17)
(4.68608e-16 0 8.32661e-17)
(4.4828e-16 0 8.45999e-17)
(4.27766e-16 0 8.58303e-17)
(4.072e-16 0 8.69574e-17)
(3.86666e-16 0 8.80017e-17)
(3.66183e-16 0 8.8984e-17)
(3.45751e-16 0 8.99042e-17)
(3.25444e-16 0 9.07521e-17)
(3.0524e-16 0 9.15172e-17)
(2.85036e-16 0 9.22513e-17)
(2.64915e-16 0 9.28407e-17)
(2.44877e-16 0 9.33473e-17)
(2.24879e-16 0 9.37713e-17)
(2.04934e-16 0 9.40608e-17)
(1.85051e-16 0 9.42676e-17)
(1.65209e-16 0 9.43813e-17)
(1.45429e-16 0 9.43917e-17)
(1.257e-16 0 9.42986e-17)
(1.05993e-16 0 9.41228e-17)
(8.63473e-17 0 9.39057e-17)
(6.67742e-17 0 9.36989e-17)
(4.72217e-17 0 9.34301e-17)
(2.76795e-17 0 9.31922e-17)
(8.96457e-18 0 9.29234e-17)
(2.11455e-08 0 -2.44846e-07)
(6.31857e-08 0 -2.42481e-07)
(1.02851e-07 0 -2.38432e-07)
(1.42385e-07 0 -2.3259e-07)
(1.79724e-07 0 -2.25584e-07)
(2.1492e-07 0 -2.18116e-07)
(2.48089e-07 0 -2.10771e-07)
(2.79485e-07 0 -2.03914e-07)
(3.09414e-07 0 -1.98024e-07)
(3.38194e-07 0 -1.93305e-07)
(3.66114e-07 0 -1.8991e-07)
(3.94203e-07 0 -1.86836e-07)
(4.21817e-07 0 -1.85962e-07)
(4.49063e-07 0 -1.84267e-07)
(4.77349e-07 0 -1.80031e-07)
(5.06345e-07 0 -1.80681e-07)
(5.36365e-07 0 -1.81891e-07)
(5.65669e-07 0 -1.79626e-07)
(5.94901e-07 0 -1.73251e-07)
(6.24689e-07 0 -1.67644e-07)
(6.53866e-07 0 -1.67136e-07)
(6.82129e-07 0 -1.5656e-07)
(7.08269e-07 0 -1.465e-07)
(7.33123e-07 0 -1.36137e-07)
(7.55966e-07 0 -1.23459e-07)
(7.76095e-07 0 -1.09092e-07)
(7.93411e-07 0 -9.37575e-08)
(8.07798e-07 0 -7.76787e-08)
(8.19057e-07 0 -6.09351e-08)
(8.27102e-07 0 -4.40682e-08)
(8.31983e-07 0 -2.71e-08)
(8.33633e-07 0 -1.0441e-08)
(8.32299e-07 0 5.52382e-09)
(8.28291e-07 0 2.01532e-08)
(8.21701e-07 0 3.43471e-08)
(8.12836e-07 0 4.69553e-08)
(8.01975e-07 0 5.87531e-08)
(7.89385e-07 0 6.89776e-08)
(7.75357e-07 0 7.81074e-08)
(7.60113e-07 0 8.63804e-08)
(7.43863e-07 0 9.33145e-08)
(7.26818e-07 0 9.92906e-08)
(7.09101e-07 0 1.04556e-07)
(6.90792e-07 0 1.09318e-07)
(6.72081e-07 0 1.1286e-07)
(6.52931e-07 0 1.16431e-07)
(6.33655e-07 0 1.19109e-07)
(6.13996e-07 0 1.23026e-07)
(5.93932e-07 0 1.24156e-07)
(5.73541e-07 0 1.25882e-07)
(5.53136e-07 0 1.27485e-07)
(5.32591e-07 0 1.28944e-07)
(5.11884e-07 0 1.30236e-07)
(4.91101e-07 0 1.30771e-07)
(4.70131e-07 0 1.31579e-07)
(4.4925e-07 0 1.31508e-07)
(4.2838e-07 0 1.31663e-07)
(4.0762e-07 0 1.31433e-07)
(3.86907e-07 0 1.31206e-07)
(3.6639e-07 0 1.30382e-07)
(3.46019e-07 0 1.29458e-07)
(3.25908e-07 0 1.28316e-07)
(3.06034e-07 0 1.27137e-07)
(2.86427e-07 0 1.25806e-07)
(2.67127e-07 0 1.24286e-07)
(2.4804e-07 0 1.22958e-07)
(2.293e-07 0 1.21231e-07)
(2.10834e-07 0 1.19507e-07)
(1.92655e-07 0 1.1777e-07)
(1.74746e-07 0 1.1595e-07)
(1.57127e-07 0 1.14031e-07)
(1.39835e-07 0 1.12008e-07)
(1.22976e-07 0 1.09817e-07)
(1.06857e-07 0 1.07439e-07)
(9.11513e-08 0 1.05245e-07)
(7.86554e-08 0 1.0115e-07)
(5.39525e-08 0 1.18816e-07)
(2.63197e-08 0 2.0527e-07)
(-3.00534e-10 0 1.63857e-07)
(3.11179e-16 0 2.11317e-15)
(2.59756e-16 0 1.70399e-17)
(5.18735e-16 0 2.70385e-17)
(5.4048e-16 0 3.66751e-17)
(5.67374e-16 0 4.54846e-17)
(5.88673e-16 0 5.33945e-17)
(6.02508e-16 0 6.04255e-17)
(6.08826e-16 0 6.65984e-17)
(6.08567e-16 0 7.20474e-17)
(6.02922e-16 0 7.68347e-17)
(5.93078e-16 0 8.10017e-17)
(5.80112e-16 0 8.46413e-17)
(5.64778e-16 0 8.77742e-17)
(5.47687e-16 0 9.05142e-17)
(5.29396e-16 0 9.28924e-17)
(5.10195e-16 0 9.49914e-17)
(4.90342e-16 0 9.68008e-17)
(4.70097e-16 0 9.84242e-17)
(4.49635e-16 0 9.98821e-17)
(4.29028e-16 0 1.01237e-16)
(4.08358e-16 0 1.02457e-16)
(3.87731e-16 0 1.03604e-16)
(3.67175e-16 0 1.04669e-16)
(3.46702e-16 0 1.05672e-16)
(3.26302e-16 0 1.06634e-16)
(3.06005e-16 0 1.0744e-16)
(2.85739e-16 0 1.08206e-16)
(2.65504e-16 0 1.08878e-16)
(2.45342e-16 0 1.09426e-16)
(2.25241e-16 0 1.0987e-16)
(2.05193e-16 0 1.1018e-16)
(1.85206e-16 0 1.10356e-16)
(1.6526e-16 0 1.10418e-16)
(1.45367e-16 0 1.10398e-16)
(1.25535e-16 0 1.10211e-16)
(1.05786e-16 0 1.09974e-16)
(8.61198e-17 0 1.09684e-16)
(6.6495e-17 0 1.09384e-16)
(4.69528e-17 0 1.09053e-16)
(2.74314e-17 0 1.08764e-16)
(8.83015e-18 0 1.08485e-16)
(2.24274e-08 0 -2.87634e-07)
(6.70946e-08 0 -2.8442e-07)
(1.08652e-07 0 -2.78889e-07)
(1.49746e-07 0 -2.70948e-07)
(1.87957e-07 0 -2.61575e-07)
(2.23353e-07 0 -2.51693e-07)
(2.56114e-07 0 -2.42107e-07)
(2.86677e-07 0 -2.33427e-07)
(3.15432e-07 0 -2.26153e-07)
(3.4259e-07 0 -2.20831e-07)
(3.69556e-07 0 -2.16269e-07)
(3.96562e-07 0 -2.13674e-07)
(4.22723e-07 0 -2.13156e-07)
(4.49281e-07 0 -2.11129e-07)
(4.78171e-07 0 -2.06702e-07)
(5.07363e-07 0 -2.11918e-07)
(5.38008e-07 0 -2.11735e-07)
(5.67735e-07 0 -2.09474e-07)
(5.99503e-07 0 -1.99659e-07)
(6.30067e-07 0 -2.04332e-07)
(6.62019e-07 0 -1.93611e-07)
(6.91118e-07 0 -1.85277e-07)
(7.19682e-07 0 -1.72741e-07)
(7.46209e-07 0 -1.61514e-07)
(7.70696e-07 0 -1.45571e-07)
(7.9215e-07 0 -1.28689e-07)
(8.10641e-07 0 -1.10357e-07)
(8.25832e-07 0 -9.09984e-08)
(8.37474e-07 0 -7.0939e-08)
(8.45554e-07 0 -5.07445e-08)
(8.50169e-07 0 -3.04186e-08)
(8.5122e-07 0 -1.03527e-08)
(8.49063e-07 0 8.34725e-09)
(8.44022e-07 0 2.58154e-08)
(8.36218e-07 0 4.24082e-08)
(8.26025e-07 0 5.72411e-08)
(8.13813e-07 0 7.08768e-08)
(7.99923e-07 0 8.26091e-08)
(7.84603e-07 0 9.30702e-08)
(7.6813e-07 0 1.0242e-07)
(7.50826e-07 0 1.101e-07)
(7.32831e-07 0 1.16827e-07)
(7.14232e-07 0 1.22584e-07)
(6.95203e-07 0 1.2788e-07)
(6.75932e-07 0 1.31645e-07)
(6.56279e-07 0 1.35857e-07)
(6.36458e-07 0 1.38037e-07)
(6.16465e-07 0 1.43141e-07)
(5.96269e-07 0 1.44447e-07)
(5.7548e-07 0 1.45906e-07)
(5.54606e-07 0 1.48024e-07)
(5.33834e-07 0 1.49385e-07)
(5.12864e-07 0 1.51018e-07)
(4.91829e-07 0 1.51657e-07)
(4.70562e-07 0 1.52545e-07)
(4.49405e-07 0 1.52455e-07)
(4.28229e-07 0 1.52526e-07)
(4.07197e-07 0 1.52296e-07)
(3.86271e-07 0 1.51928e-07)
(3.6554e-07 0 1.51059e-07)
(3.44986e-07 0 1.49779e-07)
(3.24667e-07 0 1.48451e-07)
(3.04664e-07 0 1.47075e-07)
(2.84963e-07 0 1.45439e-07)
(2.65492e-07 0 1.43777e-07)
(2.46322e-07 0 1.4207e-07)
(2.27515e-07 0 1.40079e-07)
(2.0898e-07 0 1.38122e-07)
(1.90731e-07 0 1.36146e-07)
(1.72725e-07 0 1.3409e-07)
(1.54975e-07 0 1.31909e-07)
(1.37497e-07 0 1.29595e-07)
(1.20357e-07 0 1.27045e-07)
(1.03792e-07 0 1.24054e-07)
(8.87034e-08 0 1.2018e-07)
(7.48328e-08 0 1.14106e-07)
(4.81167e-08 0 1.48594e-07)
(2.12644e-08 0 2.25712e-07)
(-2.94332e-10 0 1.73919e-07)
(3.30755e-16 0 2.38457e-15)
(2.65389e-16 0 1.96766e-17)
(5.29437e-16 0 3.14639e-17)
(5.50499e-16 0 4.28273e-17)
(5.76442e-16 0 5.32084e-17)
(5.96759e-16 0 6.25142e-17)
(6.09643e-16 0 7.07239e-17)
(6.15112e-16 0 7.79308e-17)
(6.14078e-16 0 8.42484e-17)
(6.0773e-16 0 8.97491e-17)
(5.97276e-16 0 9.44951e-17)
(5.83721e-16 0 9.8631e-17)
(5.6788e-16 0 1.02146e-16)
(5.50396e-16 0 1.05186e-16)
(5.31743e-16 0 1.07802e-16)
(5.12211e-16 0 1.10025e-16)
(4.92121e-16 0 1.11959e-16)
(4.7171e-16 0 1.13675e-16)
(4.51082e-16 0 1.15226e-16)
(4.30351e-16 0 1.16591e-16)
(4.09579e-16 0 1.17853e-16)
(3.88868e-16 0 1.19042e-16)
(3.6824e-16 0 1.20179e-16)
(3.47716e-16 0 1.21234e-16)
(3.27253e-16 0 1.22195e-16)
(3.06832e-16 0 1.23084e-16)
(2.86463e-16 0 1.2385e-16)
(2.66145e-16 0 1.24563e-16)
(2.45869e-16 0 1.25121e-16)
(2.25624e-16 0 1.25545e-16)
(2.0543e-16 0 1.25825e-16)
(1.85288e-16 0 1.2599e-16)
(1.65209e-16 0 1.2598e-16)
(1.45201e-16 0 1.25856e-16)
(1.25287e-16 0 1.25576e-16)
(1.05476e-16 0 1.25266e-16)
(8.57786e-17 0 1.24904e-16)
(6.61538e-17 0 1.24532e-16)
(4.66013e-17 0 1.2416e-16)
(2.71108e-17 0 1.23788e-16)
(8.6854e-18 0 1.23488e-16)
(2.41676e-08 0 -3.33468e-07)
(7.23926e-08 0 -3.29063e-07)
(1.16519e-07 0 -3.21421e-07)
(1.59639e-07 0 -3.10632e-07)
(1.98918e-07 0 -2.9805e-07)
(2.34372e-07 0 -2.85004e-07)
(2.66477e-07 0 -2.72497e-07)
(2.9567e-07 0 -2.61631e-07)
(3.22381e-07 0 -2.52963e-07)
(3.4783e-07 0 -2.46149e-07)
(3.73398e-07 0 -2.41002e-07)
(3.9826e-07 0 -2.39568e-07)
(4.22342e-07 0 -2.40255e-07)
(4.4953e-07 0 -2.34735e-07)
(4.77452e-07 0 -2.381e-07)
(5.07819e-07 0 -2.41576e-07)
(5.3793e-07 0 -2.43651e-07)
(5.70126e-07 0 -2.38566e-07)
(6.03737e-07 0 -2.32435e-07)
(6.3664e-07 0 -2.36783e-07)
(6.70351e-07 0 -2.24587e-07)
(7.01708e-07 0 -2.15423e-07)
(7.32857e-07 0 -2.02091e-07)
(7.61624e-07 0 -1.87908e-07)
(7.87997e-07 0 -1.69732e-07)
(8.11242e-07 0 -1.4969e-07)
(8.31132e-07 0 -1.28033e-07)
(8.47274e-07 0 -1.04938e-07)
(8.59429e-07 0 -8.11791e-08)
(8.67587e-07 0 -5.7212e-08)
(8.71764e-07 0 -3.32607e-08)
(8.72057e-07 0 -9.33971e-09)
(8.68848e-07 0 1.21648e-08)
(8.62433e-07 0 3.28484e-08)
(8.531e-07 0 5.1886e-08)
(8.41244e-07 0 6.92103e-08)
(8.27363e-07 0 8.43391e-08)
(8.11878e-07 0 9.77565e-08)
(7.94963e-07 0 1.09503e-07)
(7.77032e-07 0 1.19617e-07)
(7.58485e-07 0 1.27998e-07)
(7.39378e-07 0 1.35296e-07)
(7.19812e-07 0 1.41702e-07)
(6.99981e-07 0 1.46885e-07)
(6.80039e-07 0 1.51078e-07)
(6.59907e-07 0 1.55486e-07)
(6.39502e-07 0 1.58453e-07)
(6.19251e-07 0 1.61893e-07)
(5.98691e-07 0 1.65821e-07)
(5.77734e-07 0 1.66467e-07)
(5.56358e-07 0 1.68763e-07)
(5.35256e-07 0 1.70177e-07)
(5.13974e-07 0 1.72049e-07)
(4.92597e-07 0 1.72946e-07)
(4.71042e-07 0 1.73656e-07)
(4.49504e-07 0 1.73866e-07)
(4.28043e-07 0 1.73631e-07)
(4.06638e-07 0 1.73557e-07)
(3.85551e-07 0 1.72671e-07)
(3.64487e-07 0 1.71988e-07)
(3.43725e-07 0 1.70453e-07)
(3.23222e-07 0 1.68695e-07)
(3.03011e-07 0 1.67136e-07)
(2.83169e-07 0 1.65296e-07)
(2.63613e-07 0 1.63275e-07)
(2.44337e-07 0 1.61273e-07)
(2.25486e-07 0 1.5902e-07)
(2.06886e-07 0 1.56803e-07)
(1.88544e-07 0 1.5458e-07)
(1.70453e-07 0 1.52308e-07)
(1.52591e-07 0 1.49916e-07)
(1.3488e-07 0 1.47394e-07)
(1.17289e-07 0 1.44637e-07)
(9.97366e-08 0 1.41409e-07)
(8.26361e-08 0 1.37156e-07)
(6.20845e-08 0 1.30297e-07)
(4.39846e-08 0 1.86624e-07)
(1.29897e-08 0 2.32502e-07)
(-2.8756e-10 0 1.85082e-07)
(3.57798e-16 0 2.60518e-15)
(2.7195e-16 0 2.22718e-17)
(5.41907e-16 0 3.59927e-17)
(5.62224e-16 0 4.92173e-17)
(5.8704e-16 0 6.13044e-17)