0 	580.886
0.010101 	588.572
0.020202 	588.59
0.030303 	588.594
0.040404 	588.586
