0 	1.08887e-20 	0 	-4.35547e-20
0.010101 	3.14696e-20 	1.69311e-22 	-5.77087e-20
0.020202 	2.02843e-20 	-2.02764e-22 	-7.70697e-20
0.030303 	-5.53184e-20 	3.4305e-23 	-6.66704e-20
0.040404 	3.79887e-20 	3.36237e-23 	-9.72876e-20
0.0505051 	-6.37859e-20 	1.35176e-22 	-2.10646e-20
