0.010101 	6.44875e-09 	1.22833e-13 	2.13993e-11
0.020202 	6.95894e-10 	-1.636e-13 	1.05947e-11
