/*--------------------------------*- C++ -*----------------------------------*\
  =========                 |
  \\      /  F ield         | OpenFOAM: The Open Source CFD Toolbox
   \\    /   O peration     | Website:  https://openfoam.org
    \\  /    A nd           | Version:  6
     \\/     M anipulation  |
\*---------------------------------------------------------------------------*/
FoamFile
{
    version     2.0;
    format      ascii;
    class       volScalarField;
    location    "6800";
    object      dmdt;
}
// * * * * * * * * * * * * * * * * * * * * * * * * * * * * * * * * * * * * * //

dimensions      [0 0 0 0 0 0 0];

internalField   nonuniform List<scalar> 
4800
(
-0.219291
-0.21669
-0.214089
-0.211487
-0.208883
-0.206277
-0.203669
-0.201058
-0.198443
-0.195825
-0.193202
-0.190576
-0.187944
-0.185308
-0.182666
-0.180019
-0.177366
-0.174708
-0.172043
-0.169373
-0.166696
-0.164013
-0.161325
-0.15863
-0.155929
-0.153223
-0.15051
-0.147792
-0.145069
-0.14234
-0.139606
-0.136867
-0.134123
-0.131374
-0.12862
-0.125862
-0.1231
-0.120332
-0.117561
-0.114785
-0.112005
-0.109221
-0.106432
-0.103639
-0.100841
-0.0980394
-0.0952327
-0.0924213
-0.0896052
-0.0867842
-0.0839583
-0.0811273
-0.0782913
-0.0754502
-0.072604
-0.0697525
-0.0668959
-0.0640342
-0.0611673
-0.0582954
-0.0554186
-0.0525369
-0.0496506
-0.0467597
-0.0438645
-0.0409652
-0.0380619
-0.035155
-0.0322447
-0.0293312
-0.0264148
-0.0234959
-0.0205748
-0.0176517
-0.0147271
-0.0118011
-0.00887415
-0.00594656
-0.00301866
-5.02583e-05
0.00273599
0.00556186
0.00838626
0.0112086
0.0140284
0.016845
0.0196581
0.0224669
0.0252712
0.0280703
0.0308641
0.0336519
0.0364335
0.0392086
0.0419768
0.0447379
0.0474918
0.0502382
0.052977
0.0557082
0.0584317
0.0611475
0.0638556
0.0665563
0.0692495
0.0719356
0.0746147
0.077287
0.0799531
0.0826131
0.0852674
0.0879166
0.090561
0.0932012
0.0958376
0.0984708
0.101101
0.10373
0.106357
0.108983
-0.219291
-0.216691
-0.21409
-0.211487
-0.208884
-0.206278
-0.203669
-0.201058
-0.198444
-0.195825
-0.193203
-0.190576
-0.187945
-0.185309
-0.182667
-0.18002
-0.177367
-0.174709
-0.172044
-0.169374
-0.166698
-0.164015
-0.161327
-0.158632
-0.155932
-0.153225
-0.150513
-0.147796
-0.145073
-0.142344
-0.13961
-0.136872
-0.134128
-0.13138
-0.128626
-0.125869
-0.123107
-0.12034
-0.117569
-0.114794
-0.112014
-0.10923
-0.106442
-0.103649
-0.100852
-0.0980498
-0.0952434
-0.0924322
-0.0896161
-0.0867952
-0.0839693
-0.0811383
-0.0783023
-0.075461
-0.0726145
-0.0697629
-0.066906
-0.0640439
-0.0611767
-0.0583044
-0.0554271
-0.052545
-0.0496582
-0.0467669
-0.0438712
-0.0409713
-0.0380675
-0.0351601
-0.0322493
-0.0293353
-0.0264185
-0.0234992
-0.0205776
-0.0176541
-0.014729
-0.0118027
-0.00887535
-0.0059474
-0.00301914
-5.03793e-05
0.00273597
0.00556192
0.0083864
0.0112088
0.0140287
0.0168454
0.0196584
0.0224674
0.0252717
0.0280709
0.0308646
0.0336525
0.0364341
0.0392092
0.0419775
0.0447386
0.0474925
0.0502389
0.0529777
0.0557089
0.0584324
0.0611482
0.0638563
0.0665569
0.0692502
0.0719362
0.0746153
0.0772876
0.0799536
0.0826136
0.0852679
0.087917
0.0905614
0.0932015
0.0958378
0.098471
0.101101
0.10373
0.106357
0.108983
-0.219291
-0.216691
-0.21409
-0.211487
-0.208884
-0.206278
-0.203669
-0.201058
-0.198444
-0.195825
-0.193203
-0.190577
-0.187945
-0.185309
-0.182668
-0.180021
-0.177368
-0.17471
-0.172046
-0.169376
-0.1667
-0.164018
-0.16133
-0.158636
-0.155936
-0.15323
-0.150519
-0.147802
-0.14508
-0.142352
-0.139619
-0.136881
-0.134139
-0.131391
-0.128639
-0.125882
-0.123121
-0.120356
-0.117586
-0.114811
-0.112032
-0.109249
-0.106462
-0.10367
-0.100873
-0.0980718
-0.0952658
-0.092455
-0.0896392
-0.0868184
-0.0839925
-0.0811614
-0.0783251
-0.0754835
-0.0726366
-0.0697844
-0.0669268
-0.064064
-0.061196
-0.0583229
-0.0554447
-0.0525616
-0.0496738
-0.0467814
-0.0438847
-0.0409838
-0.038079
-0.0351705
-0.0322587
-0.0293437
-0.0264259
-0.0235057
-0.0205832
-0.0176589
-0.014733
-0.0118059
-0.0088778
-0.00594914
-0.00302019
-5.0621e-05
0.00273567
0.00556171
0.00838625
0.0112087
0.0140286
0.0168454
0.0196585
0.0224674
0.0252717
0.0280709
0.0308647
0.0336525
0.0364342
0.0392093
0.0419775
0.0447387
0.0474925
0.050239
0.0529778
0.055709
0.0584325
0.0611482
0.0638564
0.066557
0.0692503
0.0719363
0.0746154
0.0772877
0.0799537
0.0826137
0.085268
0.0879171
0.0905615
0.0932016
0.0958379
0.098471
0.101101
0.10373
0.106357
0.108983
-0.219291
-0.216691
-0.214089
-0.211487
-0.208883
-0.206278
-0.203669
-0.201058
-0.198444
-0.195826
-0.193203
-0.190577
-0.187946
-0.18531
-0.182668
-0.180022
-0.17737
-0.174712
-0.172048
-0.169378
-0.166703
-0.164022
-0.161334
-0.158641
-0.155942
-0.153237
-0.150527
-0.147811
-0.14509
-0.142364
-0.139632
-0.136896
-0.134155
-0.131409
-0.128658
-0.125903
-0.123143
-0.120379
-0.117611
-0.114838
-0.11206
-0.109279
-0.106492
-0.103701
-0.100905
-0.098105
-0.0952996
-0.0924893
-0.0896738
-0.0868532
-0.0840272
-0.081196
-0.0783593
-0.0755172
-0.0726696
-0.0698165
-0.066958
-0.0640941
-0.0612248
-0.0583504
-0.0554708
-0.0525862
-0.0496969
-0.0468029
-0.0439046
-0.0410021
-0.0380957
-0.0351857
-0.0322723
-0.0293559
-0.0264367
-0.0235151
-0.0205913
-0.0176658
-0.0147387
-0.0118104
-0.00888133
-0.00595165
-0.00302172
-5.09699e-05
0.00273521
0.00556133
0.00838595
0.0112085
0.0140284
0.0168452
0.0196583
0.0224672
0.0252715
0.0280707
0.0308645
0.0336523
0.0364339
0.039209
0.0419772
0.0447384
0.0474923
0.0502387
0.0529775
0.0557087
0.0584322
0.061148
0.0638562
0.0665568
0.0692501
0.0719361
0.0746152
0.0772876
0.0799536
0.0826136
0.0852679
0.087917
0.0905614
0.0932015
0.0958379
0.098471
0.101101
0.10373
0.106357
0.108983
-0.219291
-0.21669
-0.214089
-0.211487
-0.208883
-0.206277
-0.203669
-0.201058
-0.198443
-0.195825
-0.193203
-0.190577
-0.187946
-0.18531
-0.182669
-0.180023
-0.177371
-0.174714
-0.172051
-0.169382
-0.166707
-0.164027
-0.16134
-0.158648
-0.15595
-0.153247
-0.150538
-0.147824
-0.145104
-0.142379
-0.13965
-0.136915
-0.134176
-0.131432
-0.128683
-0.12593
-0.123173
-0.120411
-0.117644
-0.114873
-0.112098
-0.109317
-0.106533
-0.103743
-0.100949
-0.0981491
-0.0953446
-0.0925348
-0.0897197
-0.0868992
-0.0840732
-0.0812416
-0.0784044
-0.0755615
-0.072713
-0.0698587
-0.0669988
-0.0641334
-0.0612625
-0.0583862
-0.0555047
-0.0526182
-0.0497268
-0.0468307
-0.0439303
-0.0410257
-0.0381172
-0.0352051
-0.0322897
-0.0293714
-0.0264503
-0.0235269
-0.0206015
-0.0176743
-0.0147458
-0.0118161
-0.00888568
-0.00595473
-0.00302359
-5.13969e-05
0.00273464
0.00556086
0.00838556
0.0112082
0.0140281
0.0168449
0.019658
0.0224669
0.0252712
0.0280704
0.0308641
0.0336519
0.0364335
0.0392085
0.0419767
0.0447378
0.0474917
0.0502381
0.0529769
0.0557081
0.0584316
0.0611474
0.0638556
0.0665563
0.0692496
0.0719357
0.0746148
0.0772872
0.0799533
0.0826133
0.0852677
0.0879168
0.0905612
0.0932013
0.0958377
0.0984709
0.101101
0.10373
0.106357
0.108983
-0.219291
-0.21669
-0.214089
-0.211487
-0.208883
-0.206277
-0.203669
-0.201058
-0.198443
-0.195825
-0.193203
-0.190577
-0.187946
-0.185311
-0.18267
-0.180024
-0.177373
-0.174716
-0.172054
-0.169386
-0.166712
-0.164033
-0.161347
-0.158657
-0.15596
-0.153259
-0.150552
-0.147839
-0.145122
-0.142399
-0.139672
-0.13694
-0.134203
-0.131461
-0.128715
-0.125965
-0.12321
-0.12045
-0.117686
-0.114917
-0.112144
-0.109366
-0.106583
-0.103795
-0.101002
-0.0982039
-0.0954003
-0.0925912
-0.0897765
-0.0869561
-0.0841299
-0.0812978
-0.0784599
-0.0756159
-0.0727661
-0.0699103
-0.0670487
-0.0641813
-0.0613082
-0.0584296
-0.0555457
-0.0526567
-0.0497627
-0.046864
-0.0439609
-0.0410536
-0.0381426
-0.0352279
-0.0323101
-0.0293894
-0.0264661
-0.0235406
-0.0206131
-0.0176841
-0.0147538
-0.0118225
-0.00889053
-0.00595815
-0.00302564
-5.18651e-05
0.00273405
0.00556039
0.00838517
0.0112078
0.0140278
0.0168446
0.0196577
0.0224666
0.0252708
0.0280699
0.0308636
0.0336513
0.0364328
0.0392078
0.0419759
0.044737
0.0474908
0.0502372
0.0529761
0.0557072
0.0584308
0.0611466
0.0638548
0.0665555
0.0692489
0.071935
0.0746142
0.0772866
0.0799527
0.0826128
0.0852672
0.0879164
0.0905609
0.0932011
0.0958375
0.0984707
0.101101
0.10373
0.106357
0.108983
-0.219291
-0.21669
-0.214089
-0.211486
-0.208882
-0.206276
-0.203668
-0.201057
-0.198443
-0.195825
-0.193203
-0.190577
-0.187946
-0.185311
-0.182671
-0.180026
-0.177375
-0.174719
-0.172058
-0.169391
-0.166718
-0.16404
-0.161356
-0.158667
-0.155973
-0.153273
-0.150568
-0.147858
-0.145143
-0.142423
-0.139699
-0.136969
-0.134235
-0.131497
-0.128754
-0.126006
-0.123254
-0.120498
-0.117736
-0.11497
-0.1122
-0.109424
-0.106643
-0.103857
-0.101066
-0.0982688
-0.0954663
-0.0926578
-0.0898435
-0.0870231
-0.0841965
-0.0813638
-0.0785248
-0.0756795
-0.072828
-0.0699703
-0.0671064
-0.0642366
-0.0613609
-0.0584795
-0.0555927
-0.0527005
-0.0498034
-0.0469016
-0.0439953
-0.0410849
-0.0381708
-0.0352532
-0.0323325
-0.029409
-0.0264831
-0.0235552
-0.0206255
-0.0176944
-0.0147621
-0.0118291
-0.00889546
-0.00596157
-0.00302765
-5.23233e-05
0.00273356
0.00556003
0.00838489
0.0112076
0.0140276
0.0168444
0.0196574
0.0224663
0.0252704
0.0280694
0.030863
0.0336506
0.036432
0.0392069
0.041975
0.044736
0.0474898
0.0502361
0.0529749
0.0557061
0.0584296
0.0611455
0.0638538
0.0665545
0.0692479
0.0719341
0.0746133
0.0772858
0.079952
0.0826121
0.0852666
0.0879159
0.0905604
0.0932007
0.0958371
0.0984704
0.101101
0.10373
0.106357
0.108983
-0.219291
-0.21669
-0.214088
-0.211486
-0.208882
-0.206276
-0.203667
-0.201056
-0.198442
-0.195824
-0.193202
-0.190577
-0.187947
-0.185312
-0.182672
-0.180027
-0.177378
-0.174723
-0.172062
-0.169396
-0.166725
-0.164049
-0.161367
-0.15868
-0.155987
-0.15329
-0.150588
-0.14788
-0.145168
-0.142451
-0.13973
-0.137004
-0.134273
-0.131538
-0.128799
-0.126055
-0.123306
-0.120553
-0.117795
-0.115032
-0.112264
-0.109491
-0.106712
-0.103929
-0.101139
-0.0983434
-0.0955418
-0.092734
-0.0899199
-0.0870993
-0.0842722
-0.0814385
-0.0785981
-0.0757511
-0.0728975
-0.0700374
-0.0671709
-0.0642981
-0.0614193
-0.0585346
-0.0556442
-0.0527485
-0.0498477
-0.0469422
-0.0440322
-0.0411182
-0.0382006
-0.0352796
-0.0323556
-0.0294291
-0.0265003
-0.0235697
-0.0206376
-0.0177043
-0.01477
-0.0118352
-0.00889998
-0.00596463
-0.00302937
-5.27099e-05
0.00273329
0.0055599
0.00838487
0.0112076
0.0140277
0.0168444
0.0196574
0.0224661
0.0252701
0.028069
0.0308624
0.0336499
0.0364312
0.039206
0.0419739
0.0447349
0.0474886
0.0502348
0.0529736
0.0557048
0.0584283
0.0611442
0.0638525
0.0665533
0.0692467
0.0719329
0.0746122
0.0772849
0.0799511
0.0826113
0.0852659
0.0879152
0.0905598
0.0932002
0.0958367
0.0984701
0.101101
0.103729
0.106356
0.108983
-0.219291
-0.21669
-0.214088
-0.211485
-0.208881
-0.206275
-0.203667
-0.201055
-0.198441
-0.195823
-0.193202
-0.190576
-0.187947
-0.185312
-0.182673
-0.180029
-0.17738
-0.174726
-0.172067
-0.169403
-0.166733
-0.164059
-0.161379
-0.158694
-0.156004
-0.15331
-0.15061
-0.147906
-0.145197
-0.142484
-0.139766
-0.137044
-0.134317
-0.131586
-0.12885
-0.12611
-0.123365
-0.120615
-0.117861
-0.115101
-0.112337
-0.109566
-0.106791
-0.104009
-0.101221
-0.0984268
-0.0956262
-0.0928189
-0.0900048
-0.0871838
-0.0843558
-0.0815207
-0.0786786
-0.0758294
-0.0729733
-0.0701103
-0.0672406
-0.0643643
-0.0614818
-0.0585931
-0.0556987
-0.0527989
-0.0498939
-0.0469842
-0.0440701
-0.041152
-0.0382304
-0.0353056
-0.0323781
-0.0294482
-0.0265164
-0.023583
-0.0206484
-0.0177129
-0.0147767
-0.0118402
-0.00890348
-0.00596687
-0.00303049
-5.2955e-05
0.0027334
0.00556018
0.00838526
0.0112081
0.0140281
0.0168448
0.0196577
0.0224663
0.0252701
0.0280689
0.0308621
0.0336494
0.0364305
0.0392051
0.0419729
0.0447336
0.0474872
0.0502334
0.0529721
0.0557032
0.0584267
0.0611426
0.0638509
0.0665518
0.0692453
0.0719316
0.074611
0.0772837
0.07995
0.0826103
0.085265
0.0879144
0.0905591
0.0931996
0.0958362
0.0984697
0.1011
0.103729
0.106356
0.108983
-0.21929
-0.216689
-0.214087
-0.211485
-0.20888
-0.206274
-0.203665
-0.201054
-0.19844
-0.195822
-0.193201
-0.190576
-0.187947
-0.185313
-0.182675
-0.180031
-0.177384
-0.174731
-0.172073
-0.16941
-0.166743
-0.16407
-0.161393
-0.15871
-0.156024
-0.153332
-0.150636
-0.147935
-0.14523
-0.142521
-0.139807
-0.137089
-0.134366
-0.131639
-0.128908
-0.126172
-0.123431
-0.120686
-0.117935
-0.115179
-0.112417
-0.10965
-0.106877
-0.104097
-0.101311
-0.0985182
-0.0957183
-0.0929113
-0.0900969
-0.0872751
-0.0844458
-0.081609
-0.0787646
-0.0759128
-0.0730536
-0.0701871
-0.0673136
-0.0644333
-0.0615465
-0.0586533
-0.0557543
-0.0528498
-0.04994
-0.0470256
-0.0441069
-0.0411844
-0.0382585
-0.0353296
-0.0323983
-0.0294649
-0.02653
-0.0235937
-0.0206567
-0.017719
-0.0147811
-0.0118431
-0.00890528
-0.00596776
-0.00303068
-5.29801e-05
0.00273406
0.00556103
0.00838623
0.0112091
0.0140291
0.0168457
0.0196585
0.0224669
0.0252705
0.028069
0.030862
0.033649
0.0364299
0.0392042
0.0419718
0.0447324
0.0474858
0.0502319
0.0529705
0.0557016
0.058425
0.0611409
0.0638492
0.0665501
0.0692437
0.0719301
0.0746095
0.0772823
0.0799488
0.0826092
0.085264
0.0879135
0.0905583
0.0931989
0.0958356
0.0984692
0.1011
0.103729
0.106356
0.108982
-0.21929
-0.216689
-0.214087
-0.211484
-0.208879
-0.206273
-0.203664
-0.201053
-0.198439
-0.195821
-0.1932
-0.190576
-0.187947
-0.185313
-0.182676
-0.180034
-0.177387
-0.174736
-0.17208
-0.169419
-0.166753
-0.164083
-0.161408
-0.158729
-0.156045
-0.153357
-0.150665
-0.147968
-0.145267
-0.142562
-0.139853
-0.137139
-0.134421
-0.131699
-0.128972
-0.12624
-0.123504
-0.120763
-0.118016
-0.115264
-0.112505
-0.109741
-0.10697
-0.104193
-0.101408
-0.0986164
-0.095817
-0.0930099
-0.0901948
-0.0873718
-0.0845408
-0.0817016
-0.0788544
-0.0759993
-0.0731364
-0.0702659
-0.067388
-0.0645029
-0.0616112
-0.058713
-0.0558087
-0.0528989
-0.049984
-0.0470644
-0.0441407
-0.0412133
-0.0382828
-0.0353496
-0.0324143
-0.0294774
-0.0265392
-0.0236003
-0.0206609
-0.0177214
-0.0147821
-0.0118431
-0.0089046
-0.00596673
-0.00302953
-5.26912e-05
0.00273547
0.00556267
0.00838801
0.0112109
0.0140309
0.0168474
0.0196599
0.0224681
0.0252715
0.0280697
0.0308623
0.033649
0.0364295
0.0392036
0.0419709
0.0447312
0.0474844
0.0502303
0.0529688
0.0556998
0.0584232
0.0611391
0.0638474
0.0665483
0.0692419
0.0719284
0.0746079
0.0772808
0.0799474
0.0826079
0.0852628
0.0879125
0.0905574
0.0931981
0.095835
0.0984686
0.1011
0.103729
0.106356
0.108982
-0.21929
-0.216688
-0.214086
-0.211483
-0.208878
-0.206271
-0.203663
-0.201051
-0.198437
-0.19582
-0.193199
-0.190575
-0.187947
-0.185314
-0.182677
-0.180036
-0.177391
-0.174741
-0.172087
-0.169428
-0.166765
-0.164098
-0.161426
-0.15875
-0.15607
-0.153386
-0.150698
-0.148005
-0.145309
-0.142608
-0.139903
-0.137195
-0.134481
-0.131764
-0.129042
-0.126315
-0.123583
-0.120846
-0.118103
-0.115355
-0.1126
-0.109839
-0.10707
-0.104295
-0.101511
-0.0987202
-0.0959209
-0.0931131
-0.0902969
-0.0874721
-0.0846386
-0.0817964
-0.0789458
-0.0760867
-0.0732194
-0.0703441
-0.0674611
-0.0645707
-0.0616733
-0.0587695
-0.0558595
-0.0529439
-0.0500233
-0.0470981
-0.0441689
-0.0412364
-0.0383011
-0.0353634
-0.0324241
-0.0294836
-0.0265424
-0.0236009
-0.0206595
-0.0177186
-0.0147784
-0.011839
-0.00890056
-0.00596311
-0.00302662
-5.19781e-05
0.00273785
0.00556532
0.00839082
0.0112138
0.0140337
0.01685
0.0196624
0.0224702
0.0252732
0.028071
0.0308632
0.0336495
0.0364296
0.0392032
0.0419702
0.0447302
0.0474832
0.0502288
0.0529671
0.055698
0.0584213
0.0611371
0.0638455
0.0665464
0.06924
0.0719266
0.0746062
0.0772792
0.0799459
0.0826065
0.0852616
0.0879114
0.0905564
0.0931972
0.0958343
0.0984681
0.101099
0.103728
0.106356
0.108982
-0.21929
-0.216688
-0.214085
-0.211482
-0.208876
-0.20627
-0.203661
-0.20105
-0.198435
-0.195818
-0.193198
-0.190574
-0.187946
-0.185315
-0.182679
-0.180039
-0.177395
-0.174747
-0.172095
-0.169439
-0.166779
-0.164114
-0.161446
-0.158774
-0.156097
-0.153417
-0.150733
-0.148046
-0.145354
-0.142658
-0.139959
-0.137255
-0.134547
-0.131834
-0.129117
-0.126395
-0.123668
-0.120935
-0.118197
-0.115452
-0.112701
-0.109942
-0.107176
-0.104402
-0.101619
-0.0988281
-0.0960282
-0.0932192
-0.0904011
-0.0875737
-0.084737
-0.0818912
-0.0790362
-0.0761723
-0.0732998
-0.070419
-0.0675301
-0.0646337
-0.0617301
-0.0588199
-0.0559036
-0.0529818
-0.050055
-0.0471239
-0.044189
-0.0412511
-0.0383108
-0.0353687
-0.0324253
-0.0294814
-0.0265373
-0.0235937
-0.0206508
-0.017709
-0.0147686
-0.0118296
-0.00889218
-0.00595617
-0.00302147
-5.07178e-05
0.00274143
0.00556923
0.00839492
0.011218
0.0140378
0.0168539
0.0196659
0.0224734
0.0252759
0.0280732
0.0308648
0.0336506
0.0364302
0.0392033
0.0419698
0.0447295
0.0474821
0.0502274
0.0529655
0.0556962
0.0584194
0.0611351
0.0638434
0.0665444
0.0692381
0.0719247
0.0746044
0.0772775
0.0799443
0.0826051
0.0852602
0.0879102
0.0905554
0.0931963
0.0958335
0.0984674
0.101099
0.103728
0.106356
0.108982
-0.21929
-0.216687
-0.214084
-0.21148
-0.208875
-0.206268
-0.203659
-0.201047
-0.198433
-0.195817
-0.193196
-0.190573
-0.187946
-0.185315
-0.182681
-0.180043
-0.1774
-0.174754
-0.172104
-0.169451
-0.166793
-0.164132
-0.161468
-0.158799
-0.156128
-0.153452
-0.150773
-0.14809
-0.145403
-0.142713
-0.140018
-0.13732
-0.134617
-0.13191
-0.129198
-0.126481
-0.123758
-0.12103
-0.118296
-0.115554
-0.112806
-0.11005
-0.107285
-0.104512
-0.10173
-0.0989383
-0.0961371
-0.0933261
-0.0905052
-0.0876744
-0.0848336
-0.081983
-0.0791228
-0.0762533
-0.0733747
-0.0704875
-0.067592
-0.0646888
-0.0617783
-0.0588612
-0.055938
-0.0530095
-0.0500761
-0.0471387
-0.044198
-0.0412546
-0.0383092
-0.0353626
-0.0324154
-0.0294683
-0.0265218
-0.0235765
-0.0206327
-0.0176909
-0.0147512
-0.0118137
-0.0088784
-0.00594511
-0.00301356
-4.87673e-05
0.00274646
0.00557467
0.00840061
0.0112237
0.0140434
0.0168593
0.0196709
0.0224778
0.0252798
0.0280764
0.0308673
0.0336524
0.0364314
0.0392039
0.0419699
0.044729
0.0474812
0.0502262
0.052964
0.0556944
0.0584175
0.0611331
0.0638414
0.0665423
0.069236
0.0719227
0.0746025
0.0772757
0.0799426
0.0826035
0.0852588
0.0879089
0.0905543
0.0931953
0.0958327
0.0984667
0.101098
0.103727
0.106355
0.108982
-0.21929
-0.216687
-0.214083
-0.211479
-0.208873
-0.206266
-0.203656
-0.201045
-0.198431
-0.195814
-0.193195
-0.190572
-0.187946
-0.185316
-0.182683
-0.180046
-0.177406
-0.174762
-0.172115
-0.169464
-0.16681
-0.164152
-0.161492
-0.158828
-0.156161
-0.15349
-0.150816
-0.148138
-0.145457
-0.142771
-0.140082
-0.137389
-0.134692
-0.13199
-0.129283
-0.126571
-0.123853
-0.121129
-0.118398
-0.115661
-0.112915
-0.11016
-0.107397
-0.104624
-0.101842
-0.0990489
-0.0962455
-0.0934315
-0.0906068
-0.0877714
-0.0849254
-0.082069
-0.0792026
-0.0763263
-0.0734407
-0.0705461
-0.0676432
-0.0647324
-0.0618143
-0.0588897
-0.0559592
-0.0530235
-0.0500833
-0.0471395
-0.0441927
-0.0412437
-0.0382934
-0.0353425
-0.0323917
-0.0294418
-0.0264934
-0.0235471
-0.0206033
-0.0176624
-0.0147245
-0.0117898
-0.00885807
-0.00592905
-0.00300233
-4.59589e-05
0.00275321
0.00558196
0.00840821
0.0112314
0.014051
0.0168665
0.0196776
0.0224839
0.0252851
0.0280808
0.030871
0.0336552
0.0364334
0.0392052
0.0419704
0.044729
0.0474806
0.0502252
0.0529626
0.0556928
0.0584156
0.0611311
0.0638393
0.0665402
0.0692339
0.0719206
0.0746005
0.0772738
0.0799408
0.0826019
0.0852573
0.0879076
0.0905531
0.0931943
0.0958318
0.098466
0.101098
0.103727
0.106355
0.108982
-0.219289
-0.216686
-0.214082
-0.211477
-0.208871
-0.206263
-0.203654
-0.201042
-0.198428
-0.195812
-0.193193
-0.190571
-0.187945
-0.185317
-0.182685
-0.18005
-0.177411
-0.17477
-0.172126
-0.169478
-0.166828
-0.164174
-0.161518
-0.158859
-0.156196
-0.153531
-0.150862
-0.148189
-0.145513
-0.142833
-0.14015
-0.137462
-0.13477
-0.132073
-0.129371
-0.126664
-0.123951
-0.121231
-0.118505
-0.11577
-0.113026
-0.110273
-0.10751
-0.104737
-0.101953
-0.0991578
-0.096351
-0.0935328
-0.090703
-0.0878618
-0.0850093
-0.0821459
-0.079272
-0.0763878
-0.0734941
-0.0705912
-0.0676799
-0.0647607
-0.0618345
-0.0589018
-0.0559635
-0.0530203
-0.050073
-0.0471226
-0.0441697
-0.0412153
-0.0382602
-0.0353053
-0.0323514
-0.0293992
-0.0264496
-0.0235031
-0.0205603
-0.0176214
-0.0146868
-0.0117564
-0.00882994
-0.00590708
-0.00298719
-4.20889e-05
0.002762
0.00559142
0.00841808
0.0112414
0.0140608
0.0168759
0.0196863
0.0224918
0.025292
0.0280868
0.0308759
0.0336591
0.0364363
0.0392072
0.0419716
0.0447294
0.0474804
0.0502245
0.0529615
0.0556913
0.0584138
0.0611292
0.0638372
0.066538
0.0692318
0.0719185
0.0745985
0.0772719
0.079939
0.0826002
0.0852558
0.0879062
0.0905518
0.0931933
0.0958309
0.0984653
0.101097
0.103727
0.106355
0.108982
-0.219289
-0.216685
-0.21408
-0.211475
-0.208868
-0.20626
-0.203651
-0.201039
-0.198425
-0.195809
-0.19319
-0.190569
-0.187944
-0.185317
-0.182687
-0.180054
-0.177418
-0.174779
-0.172138
-0.169494
-0.166847
-0.164198
-0.161546
-0.158892
-0.156235
-0.153574
-0.15091
-0.148243
-0.145573
-0.142898
-0.14022
-0.137537
-0.13485
-0.132159
-0.129462
-0.12676
-0.124052
-0.121336
-0.118613
-0.115881
-0.113139
-0.110386
-0.107623
-0.104848
-0.102062
-0.0992626
-0.0964511
-0.0936271
-0.0907908
-0.0879423
-0.0850819
-0.0822101
-0.0793273
-0.0764341
-0.073531
-0.0706188
-0.0676982
-0.0647699
-0.0618347
-0.0588935
-0.055947
-0.0529961
-0.0500416
-0.0470845
-0.0441257
-0.041166
-0.0382065
-0.035248
-0.0322915
-0.0293378
-0.0263878
-0.0234421
-0.0205014
-0.017566
-0.0146362
-0.0117119
-0.00879271
-0.00587819
-0.00296748
-3.69016e-05
0.00277316
0.00560346
0.00843062
0.011254
0.0140732
0.0168877
0.0196973
0.0225018
0.0253008
0.0280944
0.0308822
0.0336642
0.0364402
0.03921
0.0419734
0.0447304
0.0474806
0.0502241
0.0529605
0.0556899
0.0584122
0.0611273
0.0638352
0.0665359
0.0692296
0.0719164
0.0745964
0.0772699
0.0799372
0.0825985
0.0852542
0.0879048
0.0905506
0.0931922
0.09583
0.0984645
0.101096
0.103726
0.106355
0.108982
-0.219289
-0.216684
-0.214078
-0.211472
-0.208865
-0.206257
-0.203647
-0.201036
-0.198422
-0.195806
-0.193188
-0.190567
-0.187944
-0.185318
-0.182689
-0.180058
-0.177425
-0.174789
-0.172151
-0.169511
-0.166868
-0.164224
-0.161577
-0.158927
-0.156275
-0.15362
-0.150962
-0.1483
-0.145634
-0.142965
-0.140291
-0.137614
-0.134933
-0.132246
-0.129555
-0.126858
-0.124154
-0.121442
-0.118722
-0.115992
-0.113251
-0.110498
-0.107734
-0.104956
-0.102165
-0.0993607
-0.0965428
-0.0937115
-0.090867
-0.0880096
-0.0851397
-0.0822579
-0.0793649
-0.0764612
-0.0735476
-0.070625
-0.0676942
-0.0647559
-0.0618112
-0.0588609
-0.0559059
-0.0529471
-0.0499854
-0.0470218
-0.0440572
-0.0410926
-0.0381291
-0.0351676
-0.0322091
-0.0292547
-0.0263053
-0.0233616
-0.0204243
-0.017494
-0.0145707
-0.0116545
-0.00874497
-0.00584132
-0.0029425
-3.00664e-05
0.00278706
0.00561848
0.00844628
0.0112698
0.0140887
0.0169025
0.019711
0.0225142
0.0253118
0.0281038
0.0308901
0.0336706
0.0364452
0.0392137
0.041976
0.0447319
0.0474813
0.050224
0.0529598
0.0556888
0.0584107
0.0611255
0.0638332
0.0665339
0.0692275
0.0719143
0.0745944
0.0772679
0.0799353
0.0825967
0.0852526
0.0879033
0.0905493
0.0931911
0.095829
0.0984638
0.101096
0.103726
0.106354
0.108982
-0.219288
-0.216683
-0.214076
-0.21147
-0.208862
-0.206254
-0.203643
-0.201032
-0.198418
-0.195803
-0.193185
-0.190565
-0.187943
-0.185318
-0.182691
-0.180062
-0.177432
-0.174799
-0.172165
-0.169529
-0.166891
-0.164251
-0.161609
-0.158965
-0.156318
-0.153667
-0.151014
-0.148357
-0.145696
-0.143032
-0.140363
-0.137691
-0.135015
-0.132334
-0.129648
-0.126956
-0.124256
-0.121548
-0.11883
-0.116102
-0.113361
-0.110607
-0.107839
-0.105057
-0.102261
-0.0994491
-0.096623
-0.0937825
-0.090928
-0.08806
-0.085179
-0.0822857
-0.0793809
-0.0764654
-0.0735401
-0.070606
-0.067664
-0.0647151
-0.0617603
-0.0588006
-0.0558369
-0.0528701
-0.0499012
-0.0469312
-0.0439611
-0.040992
-0.0380249
-0.035061
-0.0321014
-0.0291472
-0.0261994
-0.023259
-0.0203267
-0.0174031
-0.0144885
-0.0115827
-0.00868527
-0.00579533
-0.00291152
-2.11421e-05
0.00280414
0.00563698
0.00846557
0.0112893
0.0141077
0.0169205
0.0197278
0.0225293
0.0253251
0.0281153
0.0308998
0.0336785
0.0364514
0.0392184
0.0419793
0.0447341
0.0474824
0.0502243
0.0529594
0.0556878
0.0584093
0.0611238
0.0638313
0.0665318
0.0692254
0.0719122
0.0745923
0.077266
0.0799334
0.082595
0.085251
0.0879019
0.0905481
0.0931899
0.0958281
0.098463
0.101095
0.103725
0.106354
0.108982
-0.219288
-0.216681
-0.214074
-0.211467
-0.208859
-0.206249
-0.203639
-0.201027
-0.198414
-0.195798
-0.193181
-0.190562
-0.187941
-0.185318
-0.182693
-0.180067
-0.177439
-0.17481
-0.172179
-0.169548
-0.166914
-0.164279
-0.161642
-0.159003
-0.156361
-0.153716
-0.151066
-0.148414
-0.145757
-0.143097
-0.140433
-0.137766
-0.135095
-0.13242
-0.129739
-0.127052
-0.124357
-0.121653
-0.118937
-0.116209
-0.113467
-0.11071
-0.107938
-0.105149
-0.102345
-0.0995244
-0.0966882
-0.0938366
-0.0909703
-0.0880899
-0.0851962
-0.0822898
-0.0793719
-0.0764433
-0.0735051
-0.0705585
-0.0676046
-0.0646444
-0.061679
-0.0587096
-0.055737
-0.0527622
-0.0497862
-0.04681
-0.0438347
-0.0408614
-0.0378913
-0.0349257
-0.0319657
-0.0290127
-0.0260677
-0.0231319
-0.0202062
-0.0172912
-0.0143874
-0.0114945
-0.00861206
-0.00573901
-0.00287368
-9.52293e-06
0.00282489
0.00565954
0.00848908
0.0113129
0.0141307
0.0169423
0.0197478
0.0225474
0.025341
0.0281289
0.0309112
0.0336878
0.0364588
0.039224
0.0419834
0.0447368
0.047484
0.0502249
0.0529593
0.055687
0.0584081
0.0611222
0.0638295
0.0665299
0.0692234
0.0719102
0.0745903
0.077264
0.0799316
0.0825933
0.0852495
0.0879005
0.0905468
0.0931888
0.0958272
0.0984622
0.101095
0.103725
0.106354
0.108982
-0.219287
-0.21668
-0.214072
-0.211463
-0.208854
-0.206245
-0.203634
-0.201022
-0.198409
-0.195794
-0.193177
-0.190559
-0.187939
-0.185318
-0.182695
-0.180072
-0.177447
-0.174821
-0.172195
-0.169567
-0.166939
-0.164309
-0.161677
-0.159042
-0.156404
-0.153763
-0.151117
-0.148468
-0.145815
-0.143159
-0.140499
-0.137837
-0.135171
-0.132502
-0.129827
-0.127146
-0.124455
-0.121754
-0.11904
-0.116311
-0.113566
-0.110804
-0.108025
-0.105228
-0.102414
-0.0995825
-0.0967342
-0.0938699
-0.0909902
-0.0880959
-0.085188
-0.0822673
-0.079335
-0.0763922
-0.0734402
-0.0704803
-0.0675137
-0.0645417
-0.0615655
-0.0585861
-0.0556046
-0.0526218
-0.0496387
-0.0466564
-0.0436761
-0.0406989
-0.0377261
-0.0347593
-0.0317996
-0.0288487
-0.0259077
-0.022978
-0.0200606
-0.0171562
-0.0142654
-0.0113881
-0.00852375
-0.00567105
-0.00282805
5.65166e-06
0.00284995
0.00568682
0.00851748
0.0113414
0.0141582
0.0169682
0.0197716
0.0225686
0.0253596
0.0281448
0.0309244
0.0336986
0.0364673
0.0392306
0.0419882
0.04474
0.047486
0.0502258
0.0529593
0.0556864
0.0584069
0.0611207
0.0638278
0.066528
0.0692214
0.0719082
0.0745883
0.0772621
0.0799298
0.0825916
0.0852479
0.0878991
0.0905455
0.0931878
0.0958262
0.0984615
0.101094
0.103725
0.106354
0.108982
-0.219287
-0.216678
-0.214069
-0.211459
-0.20885
-0.206239
-0.203628
-0.201016
-0.198403
-0.195789
-0.193173
-0.190556
-0.187937
-0.185318
-0.182697
-0.180076
-0.177454
-0.174832
-0.17221
-0.169587
-0.166963
-0.164338
-0.161711
-0.15908
-0.156446
-0.153807
-0.151165
-0.148518
-0.145867
-0.143214
-0.140558
-0.137901
-0.135241
-0.132578
-0.12991
-0.127235
-0.124548
-0.121849
-0.119135
-0.116404
-0.113654
-0.110885
-0.108097
-0.10529
-0.102463
-0.0996186
-0.0967566
-0.0938781
-0.0909838
-0.0880747
-0.0851517
-0.0822159
-0.0792685
-0.0763108
-0.0733443
-0.0703705
-0.0673909
-0.0644068
-0.0614196
-0.0584303
-0.0554398
-0.052449
-0.0494588
-0.0464703
-0.0434847
-0.0405035
-0.0375281
-0.0345602
-0.0316014
-0.0286534
-0.0257175
-0.0227953
-0.0198878
-0.0169961
-0.0141207
-0.0112617
-0.00841864
-0.00559001
-0.00277357
2.56621e-05
0.00288006
0.00571965
0.00855155
0.0113753
0.0141908
0.0169986
0.0197992
0.0225931
0.0253808
0.0281628
0.0309394
0.0337108
0.0364769
0.0392379
0.0419935
0.0447437
0.0474882
0.0502269
0.0529596
0.0556859
0.0584059
0.0611193
0.0638261
0.0665261
0.0692195
0.0719062
0.0745864
0.0772603
0.079928
0.08259
0.0852464
0.0878977
0.0905443
0.0931867
0.0958253
0.0984607
0.101093
0.103724
0.106353
0.108982
-0.219286
-0.216676
-0.214065
-0.211455
-0.208844
-0.206233
-0.203622
-0.20101
-0.198397
-0.195783
-0.193168
-0.190552
-0.187935
-0.185317
-0.182699
-0.18008
-0.177462
-0.174844
-0.172225
-0.169607
-0.166988
-0.164367
-0.161743
-0.159116
-0.156484
-0.153847
-0.151205
-0.148559
-0.14591
-0.143259
-0.140607
-0.137955
-0.135303
-0.132648
-0.129987
-0.127317
-0.124634
-0.121936
-0.11922
-0.116483
-0.113726
-0.110947
-0.108147
-0.105326
-0.102485
-0.0996265
-0.09675
-0.0938568
-0.0909478
-0.0880237
-0.0850857
-0.0821347
-0.079172
-0.0761993
-0.0732182
-0.0702304
-0.0672378
-0.0642419
-0.0612439
-0.0582449
-0.0552456
-0.0522467
-0.049249
-0.0462537
-0.0432621
-0.040276
-0.0372973
-0.034328
-0.0313702
-0.0284255
-0.0254956
-0.0225821
-0.0196862
-0.016809
-0.0139514
-0.0111135
-0.00829493
-0.00549425
-0.00270891
5.25286e-05
0.00291621
0.00575903
0.00859218
0.0114154
0.014229
0.0170339
0.0198309
0.0226209
0.0254047
0.0281829
0.030956
0.0337241
0.0364874
0.0392459
0.0419993
0.0447477
0.0474907
0.0502282
0.0529599
0.0556855
0.0584049
0.0611179
0.0638244
0.0665243
0.0692176
0.0719043
0.0745846
0.0772585
0.0799263
0.0825884
0.0852449
0.0878964
0.0905431
0.0931857
0.0958244
0.09846
0.101093
0.103724
0.106353
0.108981
-0.219285
-0.216673
-0.214061
-0.21145
-0.208838
-0.206227
-0.203615
-0.201003
-0.19839
-0.195776
-0.193162
-0.190547
-0.187931
-0.185315
-0.1827
-0.180084
-0.177469
-0.174854
-0.17224
-0.169626
-0.167011
-0.164394
-0.161773
-0.159148
-0.156517
-0.153879
-0.151236
-0.148589
-0.145939
-0.14329
-0.140643
-0.137998
-0.135354
-0.132707
-0.130054
-0.12739
-0.124709
-0.122009
-0.119287
-0.116542
-0.113772
-0.11098
-0.108165
-0.105328
-0.102473
-0.0995992
-0.0967086
-0.0938017
-0.0908792
-0.0879417
-0.0849897
-0.0820245
-0.0790474
-0.0760604
-0.0730652
-0.0700642
-0.0670593
-0.0640522
-0.0610442
-0.058036
-0.055028
-0.0520208
-0.0490148
-0.0460114
-0.0430121
-0.0400194
-0.0370357
-0.0340639
-0.0311062
-0.0281648
-0.0252415
-0.0223377
-0.0194547
-0.0165939
-0.013756
-0.0109416
-0.00815065
-0.0053818
-0.00263241
8.96857e-05
0.00295971
0.00580625
0.00864046
0.0114625
0.0142732
0.0170741
0.0198665
0.0226518
0.0254309
0.0282048
0.0309738
0.0337384
0.0364985
0.0392542
0.0420054
0.0447518
0.0474933
0.0502294
0.0529601
0.055685
0.0584039
0.0611165
0.0638228
0.0665225
0.0692158
0.0719025
0.0745828
0.0772568
0.0799247
0.0825868