/*--------------------------------*- C++ -*----------------------------------*\
  =========                 |
  \\      /  F ield         | OpenFOAM: The Open Source CFD Toolbox
   \\    /   O peration     | Website:  https://openfoam.org
    \\  /    A nd           | Version:  6
     \\/     M anipulation  |
\*---------------------------------------------------------------------------*/
FoamFile
{
    version     2.0;
    format      ascii;
    class       volVectorField;
    location    "6800";
    object      U;
}
// * * * * * * * * * * * * * * * * * * * * * * * * * * * * * * * * * * * * * //

dimensions      [0 1 -1 0 0 0 0];

internalField   nonuniform List<vector> 
4800
(
(8.77443e-09 0 -7.03346e-09)
(2.30307e-08 0 -9.95027e-09)
(3.82778e-08 0 -1.08866e-08)
(5.29534e-08 0 -1.07861e-08)
(6.68183e-08 0 -1.02716e-08)
(7.98603e-08 0 -9.56293e-09)
(9.20293e-08 0 -8.7434e-09)
(1.03303e-07 0 -7.89245e-09)
(1.13731e-07 0 -7.07612e-09)
(1.23414e-07 0 -6.34417e-09)
(1.32489e-07 0 -5.70161e-09)
(1.41135e-07 0 -5.22621e-09)
(1.49565e-07 0 -4.92516e-09)
(1.57985e-07 0 -4.74696e-09)
(1.6656e-07 0 -4.69858e-09)
(1.75432e-07 0 -4.74627e-09)
(1.84812e-07 0 -4.95668e-09)
(1.95276e-07 0 -5.63525e-09)
(2.06862e-07 0 -6.06626e-09)
(2.19208e-07 0 -6.40036e-09)
(2.32663e-07 0 -6.83039e-09)
(2.47633e-07 0 -8.01463e-09)
(2.6394e-07 0 -8.25994e-09)
(2.81224e-07 0 -8.82706e-09)
(2.9962e-07 0 -9.42638e-09)
(3.19138e-07 0 -9.8861e-09)
(3.39516e-07 0 -1.02684e-08)
(3.60599e-07 0 -1.05814e-08)
(3.82222e-07 0 -1.07745e-08)
(4.04186e-07 0 -1.08906e-08)
(4.26282e-07 0 -1.08918e-08)
(4.48272e-07 0 -1.07766e-08)
(4.69953e-07 0 -1.05662e-08)
(4.91088e-07 0 -1.0228e-08)
(5.11469e-07 0 -9.80828e-09)
(5.30894e-07 0 -9.26811e-09)
(5.49163e-07 0 -8.66032e-09)
(5.66102e-07 0 -7.94596e-09)
(5.81563e-07 0 -7.18105e-09)
(5.95403e-07 0 -6.34203e-09)
(6.07514e-07 0 -5.47054e-09)
(6.17797e-07 0 -4.52358e-09)
(6.26158e-07 0 -3.56601e-09)
(6.32578e-07 0 -2.60731e-09)
(6.37023e-07 0 -1.56607e-09)
(6.39402e-07 0 -5.66619e-10)
(6.39714e-07 0 4.70567e-10)
(6.38073e-07 0 1.37389e-09)
(6.34506e-07 0 2.36349e-09)
(6.28985e-07 0 3.28774e-09)
(6.21636e-07 0 4.17798e-09)
(6.12492e-07 0 5.05883e-09)
(6.01631e-07 0 5.85991e-09)
(5.89173e-07 0 6.62037e-09)
(5.75191e-07 0 7.33849e-09)
(5.5981e-07 0 7.96782e-09)
(5.43146e-07 0 8.58122e-09)
(5.2529e-07 0 9.09858e-09)
(5.0635e-07 0 9.61414e-09)
(4.8643e-07 0 1.00125e-08)
(4.65667e-07 0 1.03671e-08)
(4.44172e-07 0 1.06733e-08)
(4.2203e-07 0 1.09356e-08)
(3.99333e-07 0 1.11405e-08)
(3.7617e-07 0 1.13047e-08)
(3.52646e-07 0 1.14053e-08)
(3.28839e-07 0 1.14854e-08)
(3.04813e-07 0 1.15225e-08)
(2.80633e-07 0 1.15314e-08)
(2.56403e-07 0 1.14786e-08)
(2.32224e-07 0 1.14002e-08)
(2.08193e-07 0 1.12746e-08)
(1.84498e-07 0 1.10666e-08)
(1.61546e-07 0 1.0623e-08)
(1.40495e-07 0 9.66923e-09)
(1.23796e-07 0 7.65017e-09)
(1.15672e-07 0 -6.7204e-09)
(8.53569e-08 0 1.3756e-08)
(-1.19317e-10 0 3.16084e-08)
(6.49124e-16 0 8.32261e-17)
(3.87367e-16 0 1.03398e-18)
(7.57418e-16 0 6.30725e-19)
(7.59331e-16 0 1.47859e-18)
(7.62661e-16 0 2.54358e-18)
(7.63095e-16 0 3.56722e-18)
(7.60396e-16 0 4.51847e-18)
(7.54813e-16 0 5.38701e-18)
(7.46665e-16 0 6.21419e-18)
(7.36243e-16 0 6.95866e-18)
(7.23824e-16 0 7.63074e-18)
(7.09597e-16 0 8.23045e-18)
(6.93808e-16 0 8.76812e-18)
(6.76686e-16 0 9.2334e-18)
(6.58363e-16 0 9.66767e-18)
(6.3909e-16 0 1.00709e-17)
(6.18917e-16 0 1.04121e-17)
(5.9799e-16 0 1.0712e-17)
(5.76442e-16 0 1.09912e-17)
(5.54325e-16 0 1.12497e-17)
(5.31743e-16 0 1.14875e-17)
(5.08737e-16 0 1.17356e-17)
(4.85328e-16 0 1.19734e-17)
(4.61546e-16 0 1.21906e-17)
(4.37434e-16 0 1.2387e-17)
(4.13001e-16 0 1.25835e-17)
(3.88268e-16 0 1.27903e-17)
(3.63225e-16 0 1.29867e-17)
(3.37883e-16 0 1.31625e-17)
(3.12219e-16 0 1.33383e-17)
(2.86277e-16 0 1.35244e-17)
(2.60076e-16 0 1.36795e-17)
(2.33585e-16 0 1.38139e-17)
(2.06857e-16 0 1.39587e-17)
(1.79891e-16 0 1.40724e-17)
(1.52687e-16 0 1.41551e-17)
(1.25308e-16 0 1.42585e-17)
(9.77728e-17 0 1.43102e-17)
(7.00519e-17 0 1.43826e-17)
(4.21966e-17 0 1.4455e-17)
(1.41241e-17 0 1.45997e-17)
(8.61742e-09 0 -2.3217e-08)
(2.40212e-08 0 -2.0304e-08)
(3.86701e-08 0 -1.89565e-08)
(5.33649e-08 0 -1.78769e-08)
(6.72323e-08 0 -1.68369e-08)
(8.0282e-08 0 -1.57841e-08)
(9.24318e-08 0 -1.47244e-08)
(1.03664e-07 0 -1.37177e-08)
(1.14024e-07 0 -1.28322e-08)
(1.23589e-07 0 -1.21221e-08)
(1.3252e-07 0 -1.16492e-08)
(1.41024e-07 0 -1.14622e-08)
(1.49299e-07 0 -1.16055e-08)
(1.57542e-07 0 -1.18666e-08)
(1.65914e-07 0 -1.23795e-08)
(1.74586e-07 0 -1.29365e-08)
(1.83847e-07 0 -1.39971e-08)
(1.94238e-07 0 -1.63546e-08)
(2.05694e-07 0 -1.78109e-08)
(2.17936e-07 0 -1.89625e-08)
(2.31405e-07 0 -2.04562e-08)
(2.46376e-07 0 -2.40574e-08)
(2.62694e-07 0 -2.49671e-08)
(2.80044e-07 0 -2.67251e-08)
(2.98574e-07 0 -2.86841e-08)
(3.18249e-07 0 -3.01235e-08)
(3.38784e-07 0 -3.13329e-08)
(3.60052e-07 0 -3.2359e-08)
(3.81883e-07 0 -3.29932e-08)
(4.0406e-07 0 -3.3401e-08)
(4.26381e-07 0 -3.34487e-08)
(4.48604e-07 0 -3.31365e-08)
(4.70514e-07 0 -3.25203e-08)
(4.91861e-07 0 -3.15207e-08)
(5.12436e-07 0 -3.02412e-08)
(5.32044e-07 0 -2.86551e-08)
(5.50485e-07 0 -2.67957e-08)
(5.67578e-07 0 -2.46497e-08)
(5.83177e-07 0 -2.23287e-08)
(5.97133e-07 0 -1.97885e-08)
(6.09329e-07 0 -1.71116e-08)
(6.19688e-07 0 -1.42782e-08)
(6.28121e-07 0 -1.13518e-08)
(6.34575e-07 0 -8.41253e-09)
(6.39034e-07 0 -5.28812e-09)
(6.41425e-07 0 -2.20566e-09)
(6.41738e-07 0 9.38374e-10)
(6.40058e-07 0 3.73142e-09)
(6.36445e-07 0 6.70931e-09)
(6.30884e-07 0 9.56248e-09)
(6.23469e-07 0 1.2297e-08)
(6.14238e-07 0 1.50174e-08)
(6.03279e-07 0 1.75131e-08)
(5.90719e-07 0 1.98629e-08)
(5.76645e-07 0 2.21167e-08)
(5.61166e-07 0 2.41231e-08)
(5.44388e-07 0 2.60699e-08)
(5.26413e-07 0 2.77818e-08)
(5.07351e-07 0 2.94532e-08)
(4.87326e-07 0 3.0796e-08)
(4.66464e-07 0 3.20207e-08)
(4.44878e-07 0 3.30965e-08)
(4.22652e-07 0 3.40607e-08)
(3.99871e-07 0 3.48726e-08)
(3.76632e-07 0 3.55555e-08)
(3.53033e-07 0 3.60807e-08)
(3.2913e-07 0 3.65519e-08)
(3.05008e-07 0 3.6879e-08)
(2.80762e-07 0 3.70944e-08)
(2.56462e-07 0 3.71523e-08)
(2.32158e-07 0 3.71255e-08)
(2.07925e-07 0 3.6914e-08)
(1.83841e-07 0 3.64627e-08)
(1.59925e-07 0 3.55284e-08)
(1.35846e-07 0 3.35366e-08)
(1.11658e-07 0 2.78946e-08)
(7.42435e-08 0 1.19998e-08)
(4.60162e-08 0 7.99746e-08)
(-9.66638e-11 0 7.64521e-08)
(6.83729e-16 0 2.10341e-16)
(3.8705e-16 0 2.58494e-18)
(7.57863e-16 0 3.85673e-18)
(7.61254e-16 0 6.50371e-18)
(7.64749e-16 0 9.35748e-18)
(7.6507e-16 0 1.20872e-17)
(7.62216e-16 0 1.46825e-17)
(7.56498e-16 0 1.70916e-17)
(7.48226e-16 0 1.93353e-17)
(7.37669e-16 0 2.13826e-17)
(7.25096e-16 0 2.32645e-17)
(7.10745e-16 0 2.49498e-17)
(6.94811e-16 0 2.64698e-17)
(6.77564e-16 0 2.78656e-17)
(6.59201e-16 0 2.91271e-17)
(6.39824e-16 0 3.02748e-17)
(6.19558e-16 0 3.12881e-17)
(5.98569e-16 0 3.22187e-17)
(5.76969e-16 0 3.30769e-17)
(5.54821e-16 0 3.38937e-17)
(5.32229e-16 0 3.46485e-17)
(5.09212e-16 0 3.53827e-17)
(4.85772e-16 0 3.61064e-17)
(4.6197e-16 0 3.67992e-17)
(4.37837e-16 0 3.74299e-17)
(4.13404e-16 0 3.8071e-17)
(3.88672e-16 0 3.87121e-17)
(3.63598e-16 0 3.93221e-17)
(3.38224e-16 0 3.98908e-17)
(3.12561e-16 0 4.04285e-17)
(2.86608e-16 0 4.09661e-17)
(2.60365e-16 0 4.14314e-17)
(2.33854e-16 0 4.18553e-17)
(2.07105e-16 0 4.22586e-17)
(1.80098e-16 0 4.26101e-17)
(1.52873e-16 0 4.28997e-17)
(1.25463e-16 0 4.31582e-17)
(9.78968e-17 0 4.33443e-17)
(7.01966e-17 0 4.34994e-17)
(4.24137e-17 0 4.36338e-17)
(1.42585e-17 0 4.38096e-17)
(8.38048e-09 0 -3.97784e-08)
(2.41809e-08 0 -3.8995e-08)
(3.95618e-08 0 -3.79341e-08)
(5.49376e-08 0 -3.62735e-08)
(6.92312e-08 0 -3.4232e-08)
(8.25259e-08 0 -3.19203e-08)
(9.47643e-08 0 -2.94654e-08)
(1.05926e-07 0 -2.7065e-08)
(1.16078e-07 0 -2.48531e-08)
(1.25339e-07 0 -2.29568e-08)
(1.33871e-07 0 -2.15056e-08)
(1.41899e-07 0 -2.06441e-08)
(1.49678e-07 0 -2.03887e-08)
(1.57406e-07 0 -2.04552e-08)
(1.65201e-07 0 -2.1039e-08)
(1.7334e-07 0 -2.15629e-08)
(1.82245e-07 0 -2.38079e-08)
(1.92375e-07 0 -2.73671e-08)
(2.03436e-07 0 -2.94964e-08)
(2.15456e-07 0 -3.1614e-08)
(2.2893e-07 0 -3.45945e-08)
(2.43971e-07 0 -3.99171e-08)
(2.60297e-07 0 -4.17992e-08)
(2.77743e-07 0 -4.47335e-08)
(2.96518e-07 0 -4.81189e-08)
(3.1646e-07 0 -5.04572e-08)
(3.3729e-07 0 -5.252e-08)
(3.58924e-07 0 -5.42729e-08)
(3.81166e-07 0 -5.53475e-08)
(4.03777e-07 0 -5.60231e-08)
(4.2654e-07 0 -5.60971e-08)
(4.49211e-07 0 -5.55944e-08)
(4.71572e-07 0 -5.45381e-08)
(4.93368e-07 0 -5.28716e-08)
(5.14367e-07 0 -5.06756e-08)
(5.34354e-07 0 -4.80344e-08)
(5.53145e-07 0 -4.48949e-08)
(5.70556e-07 0 -4.12833e-08)
(5.86438e-07 0 -3.73973e-08)
(6.00645e-07 0 -3.31331e-08)
(6.1304e-07 0 -2.85985e-08)
(6.23536e-07 0 -2.38787e-08)
(6.32066e-07 0 -1.89714e-08)
(6.38594e-07 0 -1.40245e-08)
(6.43104e-07 0 -8.84685e-09)
(6.45529e-07 0 -3.65492e-09)
(6.45796e-07 0 1.64323e-09)
(6.44007e-07 0 6.34074e-09)
(6.40286e-07 0 1.12672e-08)
(6.34601e-07 0 1.60454e-08)
(6.27049e-07 0 2.05958e-08)
(6.17661e-07 0 2.51523e-08)
(6.06513e-07 0 2.93041e-08)
(5.93745e-07 0 3.31958e-08)
(5.7943e-07 0 3.69306e-08)
(5.63715e-07 0 4.02391e-08)
(5.46727e-07 0 4.34211e-08)
(5.28546e-07 0 4.62477e-08)
(5.09267e-07 0 4.89452e-08)
(4.8903e-07 0 5.1124e-08)
(4.67953e-07 0 5.30934e-08)
(4.4615e-07 0 5.48116e-08)
(4.23704e-07 0 5.63405e-08)
(4.00724e-07 0 5.76031e-08)
(3.77313e-07 0 5.86301e-08)
(3.53542e-07 0 5.94471e-08)
(3.29481e-07 0 6.01071e-08)
(3.05228e-07 0 6.05389e-08)
(2.80834e-07 0 6.07904e-08)
(2.56373e-07 0 6.0839e-08)
(2.31892e-07 0 6.07498e-08)
(2.07415e-07 0 6.04219e-08)
(1.82916e-07 0 5.9838e-08)
(1.58243e-07 0 5.88183e-08)
(1.32842e-07 0 5.70555e-08)
(1.06355e-07 0 5.46184e-08)
(6.96054e-08 0 5.21148e-08)
(4.13065e-08 0 1.01962e-07)
(-9.20468e-11 0 1.07368e-07)
(6.92419e-16 0 3.18489e-16)
(3.88817e-16 0 3.86707e-18)
(7.61337e-16 0 8.32351e-18)
(7.64842e-16 0 1.28937e-17)
(7.68244e-16 0 1.73398e-17)
(7.6842e-16 0 2.16308e-17)
(7.6539e-16 0 2.56736e-17)
(7.59445e-16 0 2.9489e-17)
(7.50946e-16 0 3.30252e-17)
(7.40172e-16 0 3.62822e-17)
(7.27381e-16 0 3.92601e-17)
(7.12823e-16 0 4.19691e-17)
(6.96734e-16 0 4.44299e-17)
(6.79322e-16 0 4.66944e-17)
(6.60762e-16 0 4.8752e-17)
(6.41251e-16 0 5.06131e-17)
(6.20882e-16 0 5.22778e-17)
(5.99789e-16 0 5.38495e-17)
(5.78117e-16 0 5.53074e-17)
(5.55886e-16 0 5.66619e-17)
(5.33232e-16 0 5.7944e-17)
(5.10184e-16 0 5.91641e-17)
(4.86713e-16 0 6.03739e-17)
(4.6287e-16 0 6.15422e-17)
(4.38716e-16 0 6.26796e-17)
(4.14283e-16 0 6.37756e-17)
(3.89509e-16 0 6.48613e-17)
(3.64404e-16 0 6.58746e-17)
(3.38989e-16 0 6.68362e-17)
(3.13274e-16 0 6.77564e-17)
(2.8727e-16 0 6.86457e-17)
(2.60976e-16 0 6.94418e-17)
(2.34402e-16 0 7.01553e-17)
(2.07581e-16 0 7.0817e-17)
(1.80532e-16 0 7.13857e-17)
(1.53246e-16 0 7.18717e-17)
(1.25762e-16 0 7.22439e-17)
(9.8114e-17 0 7.25541e-17)
(7.0331e-17 0 7.27609e-17)
(4.25171e-17 0 7.28953e-17)
(1.43102e-17 0 7.2916e-17)
(8.77396e-09 0 -5.57424e-08)
(2.54269e-08 0 -5.47589e-08)
(4.13314e-08 0 -5.30999e-08)
(5.72807e-08 0 -5.05909e-08)
(7.19938e-08 0 -4.75211e-08)
(8.55069e-08 0 -4.40923e-08)
(9.77804e-08 0 -4.04738e-08)
(1.08798e-07 0 -3.69574e-08)
(1.18636e-07 0 -3.37302e-08)
(1.27419e-07 0 -3.09852e-08)
(1.35366e-07 0 -2.89198e-08)
(1.42728e-07 0 -2.77306e-08)
(1.49783e-07 0 -2.73511e-08)
(1.56764e-07 0 -2.75605e-08)
(1.63753e-07 0 -2.83599e-08)
(1.71192e-07 0 -2.90672e-08)
(1.79609e-07 0 -3.30202e-08)
(1.8934e-07 0 -3.76268e-08)
(1.99864e-07 0 -4.08513e-08)
(2.11585e-07 0 -4.36837e-08)
(2.25057e-07 0 -4.88845e-08)
(2.40214e-07 0 -5.551e-08)
(2.56535e-07 0 -5.86845e-08)
(2.7418e-07 0 -6.29085e-08)
(2.9332e-07 0 -6.78751e-08)
(3.13663e-07 0 -7.1079e-08)
(3.34982e-07 0 -7.41312e-08)
(3.57177e-07 0 -7.66827e-08)
(3.80062e-07 0 -7.82327e-08)
(4.03337e-07 0 -7.91796e-08)
(4.26785e-07 0 -7.93314e-08)
(4.50157e-07 0 -7.86459e-08)
(4.73204e-07 0 -7.71277e-08)
(4.95661e-07 0 -7.47936e-08)
(5.17291e-07 0 -7.16404e-08)
(5.37865e-07 0 -6.78963e-08)
(5.57187e-07 0 -6.3441e-08)
(5.75069e-07 0 -5.83282e-08)
(5.91361e-07 0 -5.2812e-08)
(6.05902e-07 0 -4.67672e-08)
(6.1859e-07 0 -4.03614e-08)
(6.29348e-07 0 -3.36594e-08)
(6.38049e-07 0 -2.67195e-08)
(6.44656e-07 0 -1.97173e-08)
(6.49184e-07 0 -1.24398e-08)
(6.51659e-07 0 -5.14249e-09)
(6.51934e-07 0 2.42152e-09)
(6.50011e-07 0 9.05796e-09)
(6.46126e-07 0 1.59424e-08)
(6.40256e-07 0 2.27191e-08)
(6.32465e-07 0 2.90849e-08)
(6.22812e-07 0 3.55519e-08)
(6.11381e-07 0 4.14054e-08)
(5.98312e-07 0 4.68494e-08)
(5.83691e-07 0 5.21464e-08)
(5.67665e-07 0 5.67645e-08)
(5.50313e-07 0 6.12421e-08)
(5.31768e-07 0 6.52249e-08)
(5.12153e-07 0 6.89875e-08)
(4.91605e-07 0 7.20562e-08)
(4.70201e-07 0 7.48261e-08)
(4.48082e-07 0 7.72478e-08)
(4.25352e-07 0 7.9363e-08)
(4.02113e-07 0 8.11116e-08)
(3.78447e-07 0 8.25479e-08)
(3.54422e-07 0 8.37293e-08)
(3.30119e-07 0 8.46335e-08)
(3.05628e-07 0 8.52667e-08)
(2.81027e-07 0 8.5622e-08)
(2.56362e-07 0 8.57252e-08)
(2.31652e-07 0 8.5659e-08)
(2.06952e-07 0 8.53091e-08)
(1.82227e-07 0 8.47537e-08)
(1.57363e-07 0 8.39989e-08)
(1.32072e-07 0 8.31654e-08)
(1.06954e-07 0 8.26182e-08)
(7.7806e-08 0 8.50366e-08)
(4.15071e-08 0 1.301e-07)
(-8.99773e-11 0 1.35971e-07)
(6.97261e-16 0 4.46392e-16)
(3.91723e-16 0 5.42837e-18)
(7.6689e-16 0 1.20355e-17)
(7.70271e-16 0 1.85392e-17)
(7.73486e-16 0 2.48258e-17)
(7.73393e-16 0 3.08435e-17)
(7.70064e-16 0 3.64787e-17)
(7.6385e-16 0 4.17726e-17)
(7.5503e-16 0 4.6715e-17)
(7.43915e-16 0 5.12438e-17)
(7.30793e-16 0 5.54004e-17)
(7.15915e-16 0 5.91434e-17)
(6.99536e-16 0 6.25969e-17)
(6.81886e-16 0 6.56988e-17)
(6.6312e-16 0 6.85319e-17)
(6.43371e-16 0 7.11169e-17)
(6.22815e-16 0 7.3433e-17)
(6.01588e-16 0 7.55836e-17)
(5.79781e-16 0 7.75792e-17)
(5.57458e-16 0 7.9461e-17)
(5.34731e-16 0 8.12498e-17)
(5.11653e-16 0 8.29455e-17)
(4.8814e-16 0 8.45999e-17)
(4.64266e-16 0 8.62026e-17)
(4.40081e-16 0 8.77846e-17)
(4.15586e-16 0 8.93148e-17)
(3.9076e-16 0 9.07727e-17)
(3.65583e-16 0 9.21996e-17)
(3.40106e-16 0 9.35438e-17)
(3.14349e-16 0 9.48569e-17)
(2.88293e-16 0 9.6077e-17)
(2.61896e-16 0 9.72144e-17)
(2.3523e-16 0 9.8207e-17)
(2.08315e-16 0 9.91376e-17)
(1.81142e-16 0 9.98821e-17)
(1.53742e-16 0 1.00544e-16)
(1.26145e-16 0 1.0105e-16)
(9.84138e-17 0 1.01464e-16)
(7.05482e-17 0 1.01723e-16)
(4.25791e-17 0 1.01867e-16)
(1.42895e-17 0 1.01847e-16)
(9.37062e-09 0 -7.28626e-08)
(2.71736e-08 0 -7.1446e-08)
(4.38537e-08 0 -6.90575e-08)
(6.05302e-08 0 -6.5567e-08)
(7.57806e-08 0 -6.1271e-08)
(8.95777e-08 0 -5.65225e-08)
(1.01883e-07 0 -5.15599e-08)
(1.12682e-07 0 -4.67357e-08)
(1.22067e-07 0 -4.23163e-08)
(1.30216e-07 0 -3.85609e-08)
(1.37359e-07 0 -3.57671e-08)
(1.4377e-07 0 -3.42025e-08)
(1.4988e-07 0 -3.34708e-08)
(1.55746e-07 0 -3.39784e-08)
(1.61662e-07 0 -3.46675e-08)
(1.68378e-07 0 -3.53133e-08)
(1.75985e-07 0 -4.23752e-08)
(1.8508e-07 0 -4.76318e-08)
(1.94966e-07 0 -5.13271e-08)
(2.06375e-07 0 -5.46203e-08)
(2.19707e-07 0 -6.5402e-08)
(2.34964e-07 0 -7.02293e-08)
(2.51278e-07 0 -7.58364e-08)
(2.69273e-07 0 -8.15702e-08)
(2.88881e-07 0 -8.80367e-08)
(3.0978e-07 0 -9.22629e-08)
(3.31792e-07 0 -9.64305e-08)
(3.54786e-07 0 -9.97122e-08)
(3.78515e-07 0 -1.01995e-07)
(4.02719e-07 0 -1.03159e-07)
(4.27119e-07 0 -1.03397e-07)
(4.51428e-07 0 -1.02508e-07)
(4.75391e-07 0 -1.00516e-07)
(4.98742e-07 0 -9.74806e-08)
(5.21231e-07 0 -9.33301e-08)
(5.42611e-07 0 -8.84419e-08)
(5.62667e-07 0 -8.25703e-08)
(5.81199e-07 0 -7.5905e-08)
(5.98062e-07 0 -6.86595e-08)
(6.1308e-07 0 -6.07699e-08)
(6.26135e-07 0 -5.24147e-08)
(6.37178e-07 0 -4.36719e-08)
(6.46093e-07 0 -3.46216e-08)
(6.52846e-07 0 -2.54777e-08)
(6.57441e-07 0 -1.60619e-08)
(6.59908e-07 0 -6.75344e-09)
(6.6019e-07 0 3.35009e-09)
(6.5809e-07 0 1.20471e-08)
(6.5393e-07 0 2.07785e-08)
(6.4781e-07 0 2.96091e-08)
(6.3974e-07 0 3.78915e-08)
(6.29753e-07 0 4.62271e-08)
(6.1795e-07 0 5.38366e-08)
(6.04488e-07 0 6.08489e-08)
(5.8942e-07 0 6.77035e-08)
(5.72934e-07 0 7.36742e-08)
(5.55117e-07 0 7.94434e-08)
(5.36117e-07 0 8.45585e-08)
(5.16028e-07 0 8.93444e-08)
(4.95035e-07 0 9.33043e-08)
(4.73206e-07 0 9.6855e-08)
(4.50674e-07 0 9.99316e-08)
(4.27546e-07 0 1.02629e-07)
(4.03926e-07 0 1.04846e-07)
(3.79913e-07 0 1.06665e-07)
(3.55563e-07 0 1.08198e-07)
(3.30958e-07 0 1.09302e-07)
(3.06188e-07 0 1.10092e-07)
(2.81322e-07 0 1.10541e-07)
(2.5638e-07 0 1.10717e-07)
(2.31427e-07 0 1.10638e-07)
(2.06519e-07 0 1.10276e-07)
(1.81676e-07 0 1.09705e-07)
(1.56939e-07 0 1.09058e-07)
(1.32217e-07 0 1.08638e-07)
(1.08412e-07 0 1.08815e-07)
(8.16087e-08 0 1.1227e-07)
(4.24913e-08 0 1.68182e-07)
(-8.85418e-11 0 1.66857e-07)
(7.05505e-16 0 5.71912e-16)
(3.95686e-16 0 7.0207e-18)
(7.74427e-16 0 1.57268e-17)
(7.77633e-16 0 2.42364e-17)
(7.80559e-16 0 3.24151e-17)
(7.80073e-16 0 4.0201e-17)
(7.7633e-16 0 4.75422e-17)
(7.69692e-16 0 5.43665e-17)
(7.60407e-16 0 6.07047e-17)
(7.48847e-16 0 6.65363e-17)
(7.35302e-16 0 7.1851e-17)
(7.2003e-16 0 7.66693e-17)
(7.0329e-16 0 8.1074e-17)
(6.85257e-16 0 8.50238e-17)
(6.6618e-16 0 8.85911e-17)
(6.46163e-16 0 9.18274e-17)
(6.25338e-16 0 9.47742e-17)
(6.03914e-16 0 9.74729e-17)
(5.81984e-16 0 9.99751e-17)
(5.59557e-16 0 1.02343e-16)
(5.36716e-16 0 1.04587e-16)
(5.13555e-16 0 1.06748e-16)
(4.89991e-16 0 1.08795e-16)
(4.66065e-16 0 1.10832e-16)
(4.41839e-16 0 1.12796e-16)
(4.17271e-16 0 1.1473e-16)
(3.92394e-16 0 1.16581e-16)
(3.67175e-16 0 1.1839e-16)
(3.41626e-16 0 1.20127e-16)
(3.15787e-16 0 1.21792e-16)
(2.89627e-16 0 1.23343e-16)
(2.63126e-16 0 1.2477e-16)
(2.36336e-16 0 1.26062e-16)
(2.09256e-16 0 1.27189e-16)
(1.81938e-16 0 1.28151e-16)
(1.54404e-16 0 1.28978e-16)
(1.26672e-16 0 1.29619e-16)
(9.87757e-17 0 1.30116e-16)
(7.07446e-17 0 1.30436e-16)
(4.26412e-17 0 1.30581e-16)
(1.42792e-17 0 1.30539e-16)
(1.01194e-08 0 -9.14597e-08)
(2.93993e-08 0 -8.96235e-08)
(4.72701e-08 0 -8.6411e-08)
(6.49919e-08 0 -8.17282e-08)
(8.09858e-08 0 -7.59199e-08)
(9.51896e-08 0 -6.94905e-08)
(1.07541e-07 0 -6.28237e-08)
(1.18022e-07 0 -5.63145e-08)
(1.26773e-07 0 -5.04239e-08)
(1.3406e-07 0 -4.54298e-08)
(1.40093e-07 0 -4.17121e-08)
(1.45252e-07 0 -3.95721e-08)
(1.50141e-07 0 -3.82579e-08)
(1.54269e-07 0 -3.96137e-08)
(1.5873e-07 0 -3.98427e-08)
(1.64608e-07 0 -4.12912e-08)
(1.71437e-07 0 -5.04369e-08)
(1.79434e-07 0 -5.64222e-08)
(1.88415e-07 0 -6.14608e-08)
(1.99694e-07 0 -6.62384e-08)
(2.12877e-07 0 -8.01862e-08)
(2.2798e-07 0 -8.55299e-08)
(2.44433e-07 0 -9.31829e-08)
(2.62919e-07 0 -1.00799e-07)
(2.83131e-07 0 -1.08566e-07)
(3.04744e-07 0 -1.14245e-07)
(3.27639e-07 0 -1.19555e-07)
(3.51656e-07 0 -1.23754e-07)
(3.76486e-07 0 -1.26715e-07)
(4.01885e-07 0 -1.28241e-07)
(4.27509e-07 0 -1.2853e-07)
(4.53038e-07 0 -1.27438e-07)
(4.7821e-07 0 -1.24959e-07)
(5.02729e-07 0 -1.21172e-07)
(5.26319e-07 0 -1.15973e-07)
(5.48712e-07 0 -1.09841e-07)
(5.69669e-07 0 -1.0245e-07)
(5.89001e-07 0 -9.4202e-08)
(6.06577e-07 0 -8.50925e-08)
(6.22191e-07 0 -7.52358e-08)
(6.35715e-07 0 -6.48426e-08)
(6.47121e-07 0 -5.3981e-08)
(6.56336e-07 0 -4.27189e-08)
(6.63255e-07 0 -3.13494e-08)
(6.67918e-07 0 -1.97127e-08)
(6.703e-07 0 -8.20594e-09)
(6.70588e-07 0 4.01117e-09)
(6.68313e-07 0 1.55707e-08)
(6.63815e-07 0 2.58864e-08)
(6.5735e-07 0 3.68108e-08)
(6.48902e-07 0 4.70872e-08)
(6.38472e-07 0 5.7284e-08)
(6.26194e-07 0 6.67174e-08)
(6.12203e-07 0 7.53593e-08)
(5.96556e-07 0 8.37888e-08)
(5.79506e-07 0 9.10692e-08)
(5.61124e-07 0 9.81764e-08)
(5.41542e-07 0 1.04423e-07)
(5.20863e-07 0 1.10245e-07)
(4.99299e-07 0 1.1503e-07)
(4.76909e-07 0 1.19384e-07)
(4.53873e-07 0 1.2303e-07)
(4.30268e-07 0 1.26318e-07)
(4.06204e-07 0 1.28963e-07)
(3.81743e-07 0 1.31131e-07)
(3.5698e-07 0 1.32952e-07)
(3.32007e-07 0 1.34285e-07)
(3.06897e-07 0 1.3518e-07)
(2.81691e-07 0 1.35723e-07)
(2.56434e-07 0 1.3594e-07)
(2.31203e-07 0 1.35818e-07)
(2.06059e-07 0 1.35394e-07)
(1.811e-07 0 1.34674e-07)
(1.56478e-07 0 1.33815e-07)
(1.32056e-07 0 1.33241e-07)
(1.09658e-07 0 1.32293e-07)
(8.50703e-08 0 1.366e-07)
(4.28052e-08 0 2.10177e-07)
(-8.71778e-11 0 1.95127e-07)
(7.1459e-16 0 6.92191e-16)
(4.00757e-16 0 8.67506e-18)
(7.84085e-16 0 1.95008e-17)
(7.86969e-16 0 3.01094e-17)
(7.89451e-16 0 4.02527e-17)
(7.8852e-16 0 4.991e-17)
(7.84229e-16 0 5.89883e-17)
(7.77023e-16 0 6.74152e-17)
(7.67189e-16 0 7.51907e-17)
(7.5503e-16 0 8.23252e-17)
(7.40937e-16 0 8.87875e-17)
(7.25158e-16 0 9.46812e-17)
(7.07901e-16 0 9.99751e-17)
(6.89403e-16 0 1.04721e-16)
(6.69913e-16 0 1.08981e-16)
(6.49564e-16 0 1.12817e-16)
(6.28461e-16 0 1.16322e-16)
(6.06778e-16 0 1.19538e-16)
(5.84651e-16 0 1.22536e-16)
(5.62069e-16 0 1.25297e-16)
(5.39125e-16 0 1.27955e-16)
(5.15851e-16 0 1.30488e-16)
(4.92214e-16 0 1.32949e-16)
(4.68267e-16 0 1.35358e-16)
(4.43979e-16 0 1.37705e-16)
(4.19381e-16 0 1.40021e-16)
(3.94431e-16 0 1.42265e-16)
(3.69119e-16 0 1.44426e-16)
(3.43497e-16 0 1.46545e-16)
(3.17555e-16 0 1.4851e-16)
(2.91261e-16 0 1.50381e-16)
(2.64625e-16 0 1.52077e-16)
(2.37659e-16 0 1.53638e-16)
(2.10393e-16 0 1.54983e-16)
(1.82931e-16 0 1.56161e-16)
(1.5521e-16 0 1.57102e-16)
(1.27272e-16 0 1.57867e-16)
(9.921e-17 0 1.58415e-16)
(7.10031e-17 0 1.58798e-16)
(4.27032e-17 0 1.58943e-16)
(1.42689e-17 0 1.58901e-16)
(1.11233e-08 0 -1.11773e-07)
(3.23885e-08 0 -1.09379e-07)
(5.18688e-08 0 -1.05133e-07)
(7.10249e-08 0 -9.88989e-08)
(8.79876e-08 0 -9.12079e-08)
(1.02691e-07 0 -8.26853e-08)
(1.15045e-07 0 -7.38945e-08)
(1.25122e-07 0 -6.5321e-08)
(1.33082e-07 0 -5.75882e-08)
(1.39135e-07 0 -5.11454e-08)
(1.43544e-07 0 -4.64614e-08)
(1.47406e-07 0 -4.28305e-08)
(1.50216e-07 0 -4.25167e-08)
(1.52283e-07 0 -4.2538e-08)
(1.55329e-07 0 -4.2116e-08)
(1.5976e-07 0 -4.83365e-08)
(1.65669e-07 0 -5.72714e-08)
(1.72015e-07 0 -6.43174e-08)
(1.80131e-07 0 -6.99786e-08)
(1.91283e-07 0 -7.84535e-08)
(2.04347e-07 0 -9.45208e-08)
(2.19102e-07 0 -1.00934e-07)
(2.35774e-07 0 -1.10724e-07)
(2.54862e-07 0 -1.20944e-07)
(2.75828e-07 0 -1.29728e-07)
(2.98337e-07 0 -1.37195e-07)
(3.22367e-07 0 -1.43753e-07)
(3.47674e-07 0 -1.49016e-07)
(3.73919e-07 0 -1.52661e-07)
(4.00799e-07 0 -1.54777e-07)
(4.27957e-07 0 -1.55028e-07)
(4.55009e-07 0 -1.53733e-07)
(4.81683e-07 0 -1.50737e-07)
(5.07637e-07 0 -1.46121e-07)
(5.32564e-07 0 -1.3979e-07)
(5.56195e-07 0 -1.32322e-07)
(5.7829e-07 0 -1.23288e-07)
(5.98593e-07 0 -1.13298e-07)
(6.16989e-07 0 -1.02257e-07)
(6.33339e-07 0 -9.03025e-08)
(6.47463e-07 0 -7.77398e-08)
(6.59295e-07 0 -6.46205e-08)
(6.68816e-07 0 -5.10643e-08)
(6.75922e-07 0 -3.73107e-08)
(6.80651e-07 0 -2.34412e-08)
(6.82966e-07 0 -9.34669e-09)
(6.83135e-07 0 4.47525e-09)
(6.80754e-07 0 1.94372e-08)
(6.7594e-07 0 3.14428e-08)
(6.68999e-07 0 4.43249e-08)
(6.60043e-07 0 5.68132e-08)
(6.49081e-07 0 6.88188e-08)
(6.36203e-07 0 8.02124e-08)
(6.2155e-07 0 9.04717e-08)
(6.05182e-07 0 1.00514e-07)
(5.87412e-07 0 1.09142e-07)
(5.68308e-07 0 1.17532e-07)
(5.48011e-07 0 1.24938e-07)
(5.26626e-07 0 1.31759e-07)
(5.04369e-07 0 1.37416e-07)
(4.8131e-07 0 1.4246e-07)
(4.57647e-07 0 1.46756e-07)
(4.33438e-07 0 1.50498e-07)
(4.08811e-07 0 1.53577e-07)
(3.83871e-07 0 1.56047e-07)
(3.58612e-07 0 1.58232e-07)
(3.33221e-07 0 1.59607e-07)
(3.07702e-07 0 1.60621e-07)
(2.82113e-07 0 1.61274e-07)
(2.56482e-07 0 1.61513e-07)
(2.3088e-07 0 1.61345e-07)
(2.05391e-07 0 1.60807e-07)
(1.8016e-07 0 1.59827e-07)
(1.55511e-07 0 1.58431e-07)
(1.31223e-07 0 1.56884e-07)
(1.10214e-07 0 1.53404e-07)
(7.51976e-08 0 1.73385e-07)
(3.84205e-08 0 2.63988e-07)
(-8.59408e-11 0 2.1673e-07)
(7.28501e-16 0 8.09291e-16)
(4.0702e-16 0 1.04018e-17)
(7.95862e-16 0 2.34713e-17)
(7.98384e-16 0 3.62512e-17)
(8.00349e-16 0 4.85245e-17)
(7.98788e-16 0 6.01154e-17)
(7.93825e-16 0 7.09721e-17)
(7.85904e-16 0 8.10534e-17)
(7.75327e-16 0 9.03075e-17)
(7.62454e-16 0 9.8755e-17)
(7.47668e-16 0 1.06406e-16)
(7.31217e-16 0 1.13272e-16)
(7.1333e-16 0 1.19393e-16)
(6.94263e-16 0 1.24884e-16)
(6.74276e-16 0 1.29785e-16)
(6.53514e-16 0 1.34179e-16)
(6.32069e-16 0 1.3817e-16)
(6.10118e-16 0 1.4182e-16)
(5.87743e-16 0 1.45201e-16)
(5.64975e-16 0 1.48334e-16)
(5.41907e-16 0 1.51353e-16)
(5.18539e-16 0 1.54218e-16)
(4.94819e-16 0 1.5703e-16)
(4.70811e-16 0 1.5978e-16)
(4.46512e-16 0 1.62469e-16)
(4.21852e-16 0 1.65136e-16)
(3.96819e-16 0 1.67711e-16)
(3.71445e-16 0 1.70234e-16)
(3.45699e-16 0 1.72684e-16)
(3.19612e-16 0 1.75e-16)
(2.93184e-16 0 1.7713e-16)
(2.66363e-16 0 1.79116e-16)
(2.39231e-16 0 1.80894e-16)
(2.11779e-16 0 1.82466e-16)
(1.84058e-16 0 1.8382e-16)
(1.5612e-16 0 1.84896e-16)
(1.27986e-16 0 1.85785e-16)
(9.97063e-17 0 1.86395e-16)
(7.1272e-17 0 1.86798e-16)
(4.27446e-17 0 1.86953e-16)
(1.42378e-17 0 1.86922e-16)
(1.24546e-08 0 -1.3436e-07)
(3.63539e-08 0 -1.31214e-07)
(5.79299e-08 0 -1.25609e-07)
(7.89347e-08 0 -1.17377e-07)
(9.71785e-08 0 -1.07289e-07)
(1.1254e-07 0 -9.61183e-08)
(1.24901e-07 0 -8.46328e-08)
(1.34439e-07 0 -7.35252e-08)
(1.41267e-07 0 -6.35412e-08)
(1.45434e-07 0 -5.55275e-08)
(1.48289e-07 0 -4.8659e-08)
(1.50076e-07 0 -4.47305e-08)
(1.50044e-07 0 -4.39123e-08)
(1.49695e-07 0 -4.34699e-08)
(1.51457e-07 0 -4.26731e-08)
(1.53885e-07 0 -5.43145e-08)
(1.57975e-07 0 -6.22287e-08)
(1.62524e-07 0 -7.08066e-08)
(1.70505e-07 0 -7.54361e-08)
(1.80714e-07 0 -9.66949e-08)
(1.93602e-07 0 -1.04624e-07)
(2.0792e-07 0 -1.17528e-07)
(2.25233e-07 0 -1.28417e-07)
(2.44915e-07 0 -1.42025e-07)
(2.66732e-07 0 -1.51713e-07)
(2.9043e-07 0 -1.61308e-07)
(3.15889e-07 0 -1.6934e-07)
(3.42789e-07 0 -1.75758e-07)
(3.70702e-07 0 -1.80287e-07)
(3.9937e-07 0 -1.82933e-07)
(4.28411e-07 0 -1.83249e-07)
(4.57346e-07 0 -1.81718e-07)
(4.85851e-07 0 -1.78148e-07)
(5.13557e-07 0 -1.72618e-07)
(5.40118e-07 0 -1.65034e-07)
(5.65216e-07 0 -1.56072e-07)
(5.88659e-07 0 -1.45306e-07)
(6.10147e-07 0 -1.33392e-07)
(6.29543e-07 0 -1.20219e-07)
(6.46689e-07 0 -1.06086e-07)
(6.61474e-07 0 -9.11565e-08)
(6.73798e-07 0 -7.56416e-08)
(6.83647e-07 0 -5.96876e-08)
(6.90998e-07 0 -4.34089e-08)
(6.95788e-07 0 -2.71298e-08)
(6.98078e-07 0 -1.0457e-08)
(6.97876e-07 0 5.3068e-09)
(6.95487e-07 0 2.34256e-08)
(6.90323e-07 0 3.76056e-08)
(6.82735e-07 0 5.22366e-08)
(6.73124e-07 0 6.71654e-08)
(6.61557e-07 0 8.08934e-08)
(6.4797e-07 0 9.44134e-08)
(6.32544e-07 0 1.06389e-07)
(6.15328e-07 0 1.18024e-07)
(5.96691e-07 0 1.28046e-07)
(5.76674e-07 0 1.37656e-07)
(5.55513e-07 0 1.46275e-07)
(5.33309e-07 0 1.54024e-07)
(5.10228e-07 0 1.60627e-07)
(4.86385e-07 0 1.66172e-07)
(4.61959e-07 0 1.7109e-07)
(4.37083e-07 0 1.75341e-07)
(4.11825e-07 0 1.78739e-07)
(3.86226e-07 0 1.81593e-07)
(3.60442e-07 0 1.83856e-07)
(3.34565e-07 0 1.85387e-07)
(3.08579e-07 0 1.86524e-07)
(2.82544e-07 0 1.8723e-07)
(2.56486e-07 0 1.87486e-07)
(2.30452e-07 0 1.8727e-07)
(2.04491e-07 0 1.86613e-07)
(1.78699e-07 0 1.85418e-07)
(1.53344e-07 0 1.83484e-07)
(1.29353e-07 0 1.80378e-07)
(1.06659e-07 0 1.7493e-07)
(6.91425e-08 0 2.14003e-07)
(3.36677e-08 0 2.89217e-07)
(-8.4276e-11 0 2.35399e-07)
(7.46053e-16 0 9.14723e-16)
(4.14532e-16 0 1.21492e-17)
(8.09944e-16 0 2.76795e-17)
(8.12023e-16 0 4.28066e-17)
(8.13305e-16 0 5.72823e-17)
(8.10968e-16 0 7.09307e-17)
(8.05178e-16 0 8.36797e-17)
(7.96348e-16 0 9.54773e-17)
(7.84891e-16 0 1.0622e-16)
(7.71139e-16 0 1.15981e-16)
(7.55423e-16 0 1.24739e-16)
(7.38135e-16 0 1.32556e-16)
(7.19513e-16 0 1.39463e-16)
(6.99795e-16 0 1.45646e-16)
(6.79219e-16 0 1.51095e-16)
(6.5795e-16 0 1.55975e-16)
(6.36102e-16 0 1.60339e-16)
(6.13809e-16 0 1.6434e-16)
(5.91176e-16 0 1.68e-16)
(5.68221e-16 0 1.71433e-16)
(5.44998e-16 0 1.74721e-16)
(5.21537e-16 0 1.77906e-16)
(4.97777e-16 0 1.80966e-16)
(4.73716e-16 0 1.84037e-16)
(4.49356e-16 0 1.87046e-16)
(4.24633e-16 0 1.90014e-16)
(3.99539e-16 0 1.9293e-16)
(3.74092e-16 0 1.95794e-16)
(3.48264e-16 0 1.98534e-16)
(3.22011e-16 0 2.0117e-16)
(2.95386e-16 0 2.0359e-16)
(2.68379e-16 0 2.05823e-16)
(2.41009e-16 0 2.07819e-16)
(2.1333e-16 0 2.09566e-16)
(1.85361e-16 0 2.11086e-16)
(1.57164e-16 0 2.12317e-16)
(1.28771e-16 0 2.13299e-16)
(1.00234e-16 0 2.13992e-16)
(7.15718e-17 0 2.14416e-16)
(4.28273e-17 0 2.14602e-16)
(1.42275e-17 0 2.14509e-16)
(1.41757e-08 0 -1.59962e-07)
(4.15318e-08 0 -1.55817e-07)
(6.58624e-08 0 -1.48409e-07)
(8.92861e-08 0 -1.37617e-07)
(1.09185e-07 0 -1.24423e-07)
(1.25334e-07 0 -1.09878e-07)
(1.37747e-07 0 -9.49231e-08)
(1.46437e-07 0 -8.07467e-08)
(1.51443e-07 0 -6.81426e-08)
(1.53742e-07 0 -5.71997e-08)
(1.54492e-07 0 -4.85619e-08)
(1.53031e-07 0 -4.41132e-08)
(1.49324e-07 0 -4.36685e-08)
(1.47487e-07 0 -3.9031e-08)
(1.4619e-07 0 -4.56783e-08)
(1.46648e-07 0 -5.59512e-08)
(1.47703e-07 0 -6.64108e-08)
(1.5137e-07 0 -7.4469e-08)
(1.58732e-07 0 -8.36259e-08)
(1.67983e-07 0 -1.08564e-07)
(1.8002e-07 0 -1.17076e-07)
(1.94442e-07 0 -1.3363e-07)
(2.12374e-07 0 -1.47527e-07)
(2.32709e-07 0 -1.62962e-07)
(2.55589e-07 0 -1.75303e-07)
(2.80769e-07 0 -1.86798e-07)
(3.07959e-07 0 -1.96607e-07)
(3.36762e-07 0 -2.04274e-07)
(3.66779e-07 0 -2.09858e-07)
(3.97646e-07 0 -2.13082e-07)
(4.28945e-07 0 -2.13647e-07)
(4.60142e-07 0 -2.11721e-07)
(4.9083e-07 0 -2.07507e-07)
(5.2061e-07 0 -2.00965e-07)
(5.49103e-07 0 -1.92011e-07)
(5.75947e-07 0 -1.81264e-07)
(6.0096e-07 0 -1.6877e-07)
(6.23827e-07 0 -1.54591e-07)
(6.44319e-07 0 -1.39165e-07)
(6.62377e-07 0 -1.22652e-07)
(6.77924e-07 0 -1.0518e-07)
(6.90813e-07 0 -8.71026e-08)
(7.01012e-07 0 -6.85388e-08)
(7.08552e-07 0 -4.97097e-08)
(7.13434e-07 0 -3.07863e-08)
(7.15694e-07 0 -1.15785e-08)
(7.15176e-07 0 7.20566e-09)
(7.12577e-07 0 2.60266e-08)
(7.06992e-07 0 4.53299e-08)
(6.98807e-07 0 6.08415e-08)
(6.88397e-07 0 7.80892e-08)
(6.76025e-07 0 9.38074e-08)
(6.61561e-07 0 1.09405e-07)
(6.4517e-07 0 1.23282e-07)
(6.26992e-07 0 1.36299e-07)
(6.0729e-07 0 1.48074e-07)
(5.86256e-07 0 1.58682e-07)
(5.6404e-07 0 1.6865e-07)
(5.40925e-07 0 1.76967e-07)
(5.16808e-07 0 1.84773e-07)
(4.92071e-07 0 1.90865e-07)
(4.66781e-07 0 1.96133e-07)
(4.41075e-07 0 2.00883e-07)
(4.15088e-07 0 2.04657e-07)
(3.88841e-07 0 2.07641e-07)
(3.62427e-07 0 2.10062e-07)
(3.36014e-07 0 2.11705e-07)
(3.09516e-07 0 2.12894e-07)
(2.82991e-07 0 2.13621e-07)
(2.56471e-07 0 2.1388e-07)
(2.29977e-07 0 2.13642e-07)
(2.03465e-07 0 2.1294e-07)
(1.76912e-07 0 2.11682e-07)
(1.50258e-07 0 2.09644e-07)
(1.23823e-07 0 2.06271e-07)
(9.3855e-08 0 1.99998e-07)
(6.58415e-08 0 2.62901e-07)
(2.66122e-08 0 3.03424e-07)
(-8.22548e-11 0 2.55654e-07)