0 	3.62956e-21 	0 	1.45182e-20
0.010101 	3.65291e-20 	-1.01723e-22 	-1.69971e-20
0.020202 	2.13891e-20 	-1.01893e-22 	-2.37153e-20
0.030303 	-4.07795e-20 	-2.36899e-22 	-6.77568e-20
0.040404 	3.56588e-20 	-2.36899e-22 	2.73712e-20
0.0505051 	-4.22789e-20 	-1.69311e-22 	3.36837e-20
