/*--------------------------------*- C++ -*----------------------------------*\
  =========                 |
  \\      /  F ield         | OpenFOAM: The Open Source CFD Toolbox
   \\    /   O peration     | Website:  https://openfoam.org
    \\  /    A nd           | Version:  6
     \\/     M anipulation  |
\*---------------------------------------------------------------------------*/
FoamFile
{
    version     2.0;
    format      ascii;
    class       surfaceScalarField;
    location    "5800";
    object      phi;
}
// * * * * * * * * * * * * * * * * * * * * * * * * * * * * * * * * * * * * * //

dimensions      [0 3 -1 0 0 0 0];

internalField   nonuniform List<scalar> 
9440
(
-2.13454e-15
2.13343e-15
-3.70528e-15
1.68331e-15
-4.24513e-15
6.30116e-16
-3.11719e-15
-1.03916e-15
1.82003e-16
-3.21309e-15
6.25004e-15
-5.97875e-15
1.54343e-14
-9.09433e-15
2.80818e-14
-1.25582e-14
4.44326e-14
-1.62611e-14
6.47774e-14
-2.0252e-14
8.91418e-14
-2.42742e-14
1.17655e-13
-2.84193e-14
1.5037e-13
-3.2619e-14
1.86848e-13
-3.6382e-14
2.26825e-13
-3.98794e-14
2.69883e-13
-4.29587e-14
3.16304e-13
-4.63197e-14
3.67136e-13
-5.07307e-14
4.20098e-13
-5.28593e-14
4.74529e-13
-5.43243e-14
5.30758e-13
-5.61208e-14
5.91416e-13
-6.05464e-14
6.51344e-13
-5.9817e-14
7.12694e-13
-6.12333e-14
7.75228e-13
-6.24195e-14
8.38025e-13
-6.26775e-14
9.00997e-13
-6.28516e-14
9.63961e-13
-6.28416e-14
1.02654e-12
-6.24583e-14
1.08869e-12
-6.20214e-14
1.15014e-12
-6.13214e-14
1.21066e-12
-6.03958e-14
1.27015e-12
-5.93545e-14
1.32832e-12
-5.80413e-14
1.38515e-12
-5.66937e-14
1.44035e-12
-5.50617e-14
1.49382e-12
-5.3335e-14
1.54526e-12
-5.13083e-14
1.5946e-12
-4.92e-14
1.64153e-12
-4.67964e-14
1.68591e-12
-4.42337e-14
1.72733e-12
-4.12892e-14
1.76567e-12
-3.8204e-14
1.80065e-12
-3.48406e-14
1.83179e-12
-3.10011e-14
1.85911e-12
-2.71882e-14
1.88216e-12
-2.29093e-14
1.90067e-12
-1.8376e-14
1.91429e-12
-1.34944e-14
1.92296e-12
-8.52849e-15
1.9263e-12
-3.20767e-15
1.92399e-12
2.43498e-15
1.91616e-12
7.95791e-15
1.90252e-12
1.37656e-14
1.88305e-12
1.9596e-14
1.85784e-12
2.53255e-14
1.82667e-12
3.12891e-14
1.78978e-12
3.70064e-14
1.74699e-12
4.29036e-14
1.69882e-12
4.82908e-14
1.64528e-12
5.36481e-14
1.58656e-12
5.88254e-14
1.52285e-12
6.38177e-14
1.45445e-12
6.85074e-14
1.3816e-12
7.29437e-14
1.30468e-12
7.70262e-14
1.22389e-12
8.08835e-14
1.13959e-12
8.43922e-14
1.05219e-12
8.75011e-14
9.62108e-13
9.0172e-14
8.6975e-13
9.24509e-14
7.75697e-13
9.41424e-14
6.80732e-13
9.50536e-14
5.86641e-13
9.4178e-14
4.97342e-13
8.93842e-14
4.24908e-13
7.25199e-14
4.08239e-13
1.67524e-14
2.00241e-13
2.08083e-13
-5.16474e-17
2.00375e-13
2.28054e-21
-1.48893e-22
2.2841e-21
-1.60266e-24
2.28374e-21
9.30578e-25
2.28483e-21
5.99706e-24
2.2808e-21
1.14771e-23
2.27144e-21
1.68538e-23
2.25681e-21
2.20754e-23
2.23716e-21
2.70385e-23
2.21235e-21
3.1588e-23
2.18329e-21
3.59824e-23
2.15005e-21
3.99115e-23
2.11272e-21
4.36338e-23
2.07167e-21
4.70976e-23
2.02742e-21
5.02512e-23
1.97996e-21
5.31464e-23
1.92955e-21
5.5783e-23
1.87625e-21
5.81611e-23
1.82026e-21
6.03842e-23
1.76179e-21
6.25038e-23
1.70094e-21
6.44684e-23
1.63787e-21
6.64846e-23
1.57247e-21
6.82941e-23
1.505e-21
7.01553e-23
1.43537e-21
7.19647e-23
1.36387e-21
7.37225e-23
1.28988e-21
7.54285e-23
1.21435e-21
7.7238e-23
1.13686e-21
7.89441e-23
1.05765e-21
8.08052e-23
9.76642e-22
8.2563e-23
8.93769e-22
8.41139e-23
8.095e-22
8.58717e-23
7.23628e-22
8.73193e-23
6.36567e-22
8.88702e-23
5.48214e-22
9.02144e-23
4.58827e-22
9.14552e-23
3.68457e-22
9.25408e-23
2.77312e-22
9.35231e-23
1.85547e-22
9.4402e-23
9.33163e-23
9.51775e-23
9.63665e-23
-1.79554e-15
4.04325e-15
-4.72038e-15
4.79327e-15
-6.54507e-15
2.61281e-15
-6.37798e-15
-1.04573e-15
-3.65433e-15
-5.78099e-15
1.902e-15
-1.13768e-14
1.07205e-14
-1.77541e-14
2.31375e-14
-2.48151e-14
3.94348e-14
-3.23944e-14
5.96759e-14
-4.03254e-14
8.41723e-14
-4.8604e-14
1.12918e-13
-5.69934e-14
1.45844e-13
-6.53703e-14
1.82563e-13
-7.29254e-14
2.22858e-13
-7.99952e-14
2.65959e-13
-8.58782e-14
3.13179e-13
-9.33559e-14
3.6432e-13
-1.01684e-13
4.17518e-13
-1.05866e-13
4.72176e-13
-1.08786e-13
5.29257e-13
-1.13004e-13
5.89764e-13
-1.20853e-13
6.50233e-13
-1.2008e-13
7.11819e-13
-1.22613e-13
7.74759e-13
-1.25142e-13
8.37862e-13
-1.25566e-13
9.01049e-13
-1.25819e-13
9.64253e-13
-1.25823e-13
1.02708e-12
-1.25055e-13
1.08943e-12
-1.24152e-13
1.15106e-12
-1.22715e-13
1.21178e-12
-1.20883e-13
1.27142e-12
-1.1876e-13
1.32981e-12
-1.16191e-13
1.3867e-12
-1.13341e-13
1.44216e-12
-1.10283e-13
1.49576e-12
-1.06691e-13
1.54743e-12
-1.02733e-13
1.59697e-12
-9.84854e-14
1.64415e-12
-9.37298e-14
1.68867e-12
-8.85173e-14
1.73047e-12
-8.28367e-14
1.76908e-12
-7.65738e-14
1.80432e-12
-6.98298e-14
1.83579e-12
-6.22286e-14
1.8634e-12
-5.45546e-14
1.88676e-12
-4.60356e-14
1.9055e-12
-3.68696e-14
1.91947e-12
-2.72333e-14
1.92831e-12
-1.71304e-14
1.93187e-12
-6.54228e-15
1.92967e-12
4.86449e-15
1.92191e-12
1.59428e-14
1.90842e-12
2.7473e-14
1.889e-12
3.92348e-14
1.86372e-12
5.08165e-14
1.83252e-12
6.26994e-14
1.79543e-12
7.43015e-14
1.75256e-12
8.59775e-14
1.70423e-12
9.6818e-14
1.65049e-12
1.07578e-13
1.59159e-12
1.17916e-13
1.52766e-12
1.27935e-13
1.45898e-12
1.37369e-13
1.38588e-12
1.46215e-13
1.30862e-12
1.54465e-13
1.22744e-12
1.62228e-13
1.14281e-12
1.69192e-13
1.05509e-12
1.75394e-13
9.64549e-13
1.80868e-13
8.71598e-13
1.85562e-13
7.76671e-13
1.89222e-13
6.80302e-13
1.91579e-13
5.82519e-13
1.92115e-13
4.82444e-13
1.89612e-13
3.73192e-13
1.81923e-13
2.24479e-13
1.65616e-13
1.21126e-13
3.11584e-13
-3.93854e-17
3.21658e-13
2.28468e-21
-2.8786e-22
2.28664e-21
-4.80799e-24
2.28876e-21
6.35895e-24
2.29031e-21
1.7681e-23
2.28622e-21
2.87445e-23
2.27666e-21
3.94979e-23
2.26177e-21
4.98893e-23
2.24171e-21
5.97121e-23
2.21674e-21
6.8656e-23
2.18722e-21
7.7238e-23
2.15372e-21
8.50445e-23
2.11614e-21
9.21789e-23
2.07488e-21
9.8693e-23
2.03032e-21
1.04638e-22
1.9826e-21
1.10067e-22
1.93188e-21
1.14978e-22
1.87848e-21
1.19631e-22
1.82243e-21
1.23819e-22
1.76376e-21
1.27696e-22
1.70296e-21
1.3147e-22
1.63968e-21
1.34882e-22
1.57433e-21
1.38346e-22
1.50681e-21
1.41758e-22
1.43707e-21
1.45119e-22
1.36557e-21
1.48582e-22
1.29164e-21
1.51891e-22
1.21611e-21
1.55458e-22
1.13867e-21
1.59181e-22
1.05941e-21
1.62748e-22
9.78193e-22
1.66263e-22
8.95475e-22
1.69831e-22
8.10947e-22
1.73139e-22
7.25179e-22
1.76655e-22
6.37911e-22
1.79653e-22
5.49403e-22
1.826e-22
4.59964e-22
1.85392e-22
3.69491e-22
1.8777e-22
2.78088e-22
1.89941e-22
1.86426e-22
1.91699e-22
9.44537e-23
1.93198e-22
1.94181e-22
-4.95568e-15
9.08824e-15
-8.03554e-15
8.03288e-15
-9.91824e-15
4.63087e-15
-1.01393e-14
-6.86436e-16
-8.03841e-15
-7.74582e-15
-3.06433e-15
-1.62138e-14
5.15345e-15
-2.58349e-14
1.70658e-14
-3.65854e-14
3.28672e-14
-4.80556e-14
5.28844e-14
-6.02014e-14
7.71061e-14
-7.2677e-14
1.05793e-13
-8.55349e-14
1.38715e-13
-9.8142e-14
1.7562e-13
-1.0968e-13
2.15951e-13
-1.20171e-13
2.59076e-13
-1.28847e-13
3.07517e-13
-1.41637e-13
3.59232e-13
-1.53235e-13
4.12564e-13
-1.5903e-13
4.67578e-13
-1.63634e-13
5.26638e-13
-1.71892e-13
5.86989e-13
-1.81025e-13
6.48127e-13
-1.8104e-13
7.10398e-13
-1.84704e-13
7.74008e-13
-1.8857e-13
8.37461e-13
-1.8883e-13
9.01202e-13
-1.89369e-13
9.64813e-13
-1.89238e-13
1.02809e-12
-1.88134e-13
1.09081e-12
-1.86676e-13
1.15279e-12
-1.84493e-13
1.21388e-12
-1.81769e-13
1.27389e-12
-1.78561e-13
1.33264e-12
-1.74733e-13
1.38991e-12
-1.70399e-13
1.44566e-12
-1.65825e-13
1.49968e-12
-1.60496e-13
1.55172e-12
-1.5457e-13
1.60176e-12
-1.48312e-13
1.64939e-12
-1.41146e-13
1.69443e-12
-1.33344e-13
1.73667e-12
-1.24856e-13
1.77588e-12
-1.15576e-13
1.81171e-12
-1.05448e-13
1.84381e-12
-9.41194e-14
1.87194e-12
-8.24642e-14
1.89582e-12
-6.97048e-14
1.91512e-12
-5.59671e-14
1.92957e-12
-4.14798e-14
1.93889e-12
-2.62509e-14
1.94287e-12
-1.03178e-14
1.94102e-12
6.9115e-15
1.93349e-12
2.36759e-14
1.92006e-12
4.10894e-14
1.90062e-12
5.88688e-14
1.87543e-12
7.61903e-14
1.84413e-12
9.41865e-14
1.80688e-12
1.11728e-13
1.76374e-12
1.29293e-13
1.71505e-12
1.45679e-13
1.66089e-12
1.619e-13
1.60141e-12
1.77558e-13
1.53691e-12
1.92596e-13
1.46771e-12
2.06727e-13
1.39401e-12
2.20073e-13
1.31603e-12
2.32593e-13
1.23428e-12
2.44128e-13
1.14896e-12
2.54655e-13
1.06042e-12
2.64083e-13
9.69041e-13
2.72388e-13
8.75121e-13
2.7962e-13
7.79008e-13
2.85474e-13
6.80694e-13
2.90026e-13
5.79857e-13
2.93084e-13
4.74463e-13
2.95134e-13
3.58971e-13
2.97548e-13
2.17073e-13
3.07643e-13
1.1482e-13
4.13964e-13
-3.78801e-17
4.36617e-13
2.29543e-21
-4.20209e-22
2.2978e-21
-7.39293e-24
2.30013e-21
1.02364e-23
2.30132e-21
2.77106e-23
2.29698e-21
4.47195e-23
2.28705e-21
6.10046e-23
2.27154e-21
7.65659e-23
2.25071e-21
9.11967e-23
2.22527e-21
1.04897e-22
2.19513e-21
1.17563e-22
2.16085e-21
1.29299e-22
2.1227e-21
1.39949e-22
2.08082e-21
1.49668e-22
2.03574e-21
1.58509e-22
1.98751e-21
1.6647e-22
1.93653e-21
1.73811e-22
1.88261e-21
1.80325e-22
1.82626e-21
1.86529e-22
1.76753e-21
1.92268e-22
1.70642e-21
1.97748e-22
1.64314e-21
2.03073e-22
1.57774e-21
2.08088e-22
1.51017e-21
2.13154e-22
1.44054e-21
2.18272e-22
1.36893e-21
2.23442e-22
1.29526e-21
2.28664e-22
1.21978e-21
2.3404e-22
1.14228e-21
2.39365e-22
1.06293e-21
2.44794e-22
9.8176e-22
2.5017e-22
8.98835e-22
2.55702e-22
8.14411e-22
2.60976e-22
7.28126e-22
2.66145e-22
6.4091e-22
2.71212e-22
5.52195e-22
2.75865e-22
4.62291e-22
2.80052e-22
3.71663e-22
2.83878e-22
2.79897e-22
2.87238e-22
1.87873e-22
2.90185e-22
9.54877e-23
2.92357e-22
2.93856e-22
-6.47421e-15
1.5651e-14
-1.1577e-14
1.32898e-14
-1.51767e-14
8.36779e-15
-1.68689e-14
1.13906e-15
-1.61323e-14
-8.34743e-15
-1.23967e-14
-1.98158e-14
-5.16534e-15
-3.29302e-14
5.89179e-15
-4.75054e-14
2.11659e-14
-6.31877e-14
4.07349e-14
-7.96271e-14
6.49229e-14
-9.67181e-14
9.36937e-14
-1.14163e-13
1.2665e-13
-1.30953e-13
1.64189e-13
-1.47065e-13
2.04787e-13
-1.60618e-13
2.48199e-13
-1.72102e-13
2.98737e-13
-1.92013e-13
3.51114e-13
-2.05454e-13
4.04961e-13
-2.12715e-13
4.6026e-13
-2.18766e-13
5.22899e-13
-2.34362e-13
5.82495e-13
-2.4045e-13
6.45008e-13
-2.4338e-13
7.08288e-13
-2.47805e-13
7.72712e-13
-2.52813e-13
8.36931e-13
-2.52868e-13
9.01448e-13
-2.53697e-13
9.65747e-13
-2.53347e-13
1.02966e-12
-2.51858e-13
1.09291e-12
-2.49726e-13
1.15548e-12
-2.46869e-13
1.21713e-12
-2.43221e-13
1.27761e-12
-2.38839e-13
1.33687e-12
-2.33786e-13
1.39465e-12
-2.27975e-13
1.45094e-12
-2.21903e-13
1.50548e-12
-2.14833e-13
1.55816e-12
-2.07041e-13
1.60874e-12
-1.98679e-13
1.65709e-12
-1.8929e-13
1.70299e-12
-1.79037e-13
1.74604e-12
-1.67694e-13
1.78601e-12
-1.55336e-13
1.8227e-12
-1.41926e-13
1.85572e-12
-1.2693e-13
1.88474e-12
-1.11278e-13
1.90956e-12
-9.43107e-14
1.92969e-12
-7.58977e-14
1.9449e-12
-5.649e-14
1.95487e-12
-3.60188e-14
1.95942e-12
-1.46723e-14
1.9581e-12
8.42496e-15
1.95085e-12
3.11154e-14
1.93775e-12
5.43853e-14
1.91844e-12
7.836e-14
1.8931e-12
1.01715e-13
1.86156e-12
1.25906e-13
1.82402e-12
1.49444e-13
1.78053e-12
1.72952e-13
1.73128e-12
1.95098e-13
1.67647e-12
2.16875e-13
1.61635e-12
2.37844e-13
1.55112e-12
2.57975e-13
1.48107e-12
2.76929e-13
1.40648e-12
2.94816e-13
1.32754e-12
3.11676e-13
1.24474e-12
3.27077e-13
1.15834e-12
3.41194e-13
1.06872e-12
3.53845e-13
9.76158e-13
3.65086e-13
8.80983e-13
3.74931e-13
7.83491e-13
3.83096e-13
6.8381e-13
3.89839e-13
5.81632e-13
3.95393e-13
4.76568e-13
4.0033e-13
3.68236e-13
4.06003e-13
2.59695e-13
4.16312e-13
1.16623e-13
5.5716e-13
-3.67986e-17
5.53377e-13
2.3128e-21
-5.50904e-22
2.31538e-21
-9.82277e-24
2.31761e-21
1.43723e-23
2.31833e-21
3.80503e-23
2.31331e-21
6.10046e-23
2.30256e-21
8.308e-23
2.28622e-21
1.03966e-22
2.26441e-21
1.2356e-22
2.23794e-21
1.41913e-22
2.20687e-21
1.5887e-22
2.1715e-21
1.74328e-22
2.13242e-21
1.88442e-22
2.08967e-21
2.0116e-22
2.0437e-21
2.12792e-22
1.99485e-21
2.23235e-22
1.9431e-21
2.32903e-22
1.88887e-21
2.41692e-22
1.832e-21
2.49705e-22
1.77306e-21
2.57357e-22
1.71175e-21
2.64388e-22
1.64816e-21
2.71264e-22
1.58286e-21
2.78243e-22
1.51529e-21
2.84912e-22
1.44576e-21
2.91736e-22
1.37405e-21
2.98664e-22
1.30064e-21
3.0585e-22
1.22511e-21
3.12984e-22
1.14766e-21
3.20429e-22
1.06836e-21
3.27977e-22
9.87292e-22
3.35525e-22
9.04108e-22
3.42918e-22
8.19581e-22
3.50414e-22
7.33192e-22
3.57549e-22
6.45563e-22
3.64528e-22
5.56434e-22
3.71146e-22
4.66168e-22
3.77194e-22
3.75023e-22
3.82674e-22
2.82792e-22
3.87379e-22
1.90096e-22
3.91205e-22
9.69352e-23
3.94307e-22
3.96375e-22
-8.63371e-15
2.43694e-14
-1.63117e-14
2.11197e-14
-2.25177e-14
1.47069e-14
-2.64458e-14
5.20029e-15
-2.76977e-14
-6.96269e-15
-2.56815e-14
-2.1699e-14
-1.98615e-14
-3.86137e-14
-9.84126e-15
-5.73889e-14
4.63695e-15
-7.7529e-14
2.38524e-14
-9.8702e-14
4.7922e-14
-1.20647e-13
7.6809e-14
-1.42905e-13
1.1012e-13
-1.64116e-13
1.48565e-13
-1.85363e-13
1.89288e-13
-2.01188e-13
2.34492e-13
-2.17153e-13
2.86637e-13
-2.44e-13
3.39745e-13
-2.58402e-13
3.94591e-13
-2.674e-13
4.51685e-13
-2.75694e-13
5.16518e-13
-2.99028e-13
5.76899e-13
-3.00666e-13
6.40801e-13
-3.07107e-13
7.05667e-13
-3.12494e-13
7.70939e-13
-3.17905e-13
8.3636e-13
-3.18106e-13
9.01889e-13
-3.19041e-13
9.671e-13
-3.18372e-13
1.03176e-12
-3.1633e-13
1.0959e-12
-3.1367e-13
1.15916e-12
-3.0993e-13
1.22138e-12
-3.05248e-13
1.28253e-12
-2.99781e-13
1.34246e-12
-2.93511e-13
1.40089e-12
-2.862e-13
1.45794e-12
-2.78751e-13
1.51319e-12
-2.69877e-13
1.56673e-12
-2.60373e-13
1.61817e-12
-2.49917e-13
1.66743e-12
-2.38332e-13
1.71423e-12
-2.25622e-13
1.75838e-12
-2.11635e-13
1.79952e-12
-1.96266e-13
1.83741e-12
-1.79612e-13
1.87171e-12
-1.61017e-13
1.90187e-12
-1.41232e-13
1.92783e-12
-1.20064e-13
1.94914e-12
-9.70092e-14
1.96538e-12
-7.25272e-14
1.97632e-12
-4.67603e-14
1.98173e-12
-1.98896e-14
1.98115e-12
9.20318e-15
1.97439e-12
3.80666e-14
1.96155e-12
6.74081e-14
1.94231e-12
9.77819e-14
1.91695e-12
1.27253e-13
1.88515e-12
1.5789e-13
1.84717e-12
1.8759e-13
1.80305e-12
2.17244e-13
1.75317e-12
2.4515e-13
1.69749e-12
2.72716e-13
1.63644e-12
2.99056e-13
1.57012e-12
3.24448e-13
1.49894e-12
3.48259e-13
1.42313e-12
3.70777e-13
1.34293e-12
3.92022e-13
1.25879e-12
4.1136e-13
1.17108e-12
4.29045e-13
1.07997e-12
4.4509e-13
9.85838e-13
4.59358e-13
8.89168e-13
4.71733e-13
7.90139e-13
4.82257e-13
6.89245e-13
4.90863e-13
5.86783e-13
4.97982e-13
4.82888e-13
5.04352e-13
3.79153e-13
5.09867e-13
2.72769e-13
5.2282e-13
1.18413e-13
7.11639e-13
-3.64653e-17
6.71925e-13
2.33679e-21
-6.70018e-22
2.33958e-21
-1.18907e-23
2.34133e-21
1.88184e-23
2.34123e-21
4.89588e-23
2.33529e-21
7.82203e-23
2.3235e-21
1.06034e-22
2.30582e-21
1.32452e-22
2.28276e-21
1.57268e-22
2.25479e-21
1.80222e-22
2.22238e-21
2.01367e-22
2.18562e-21
2.20599e-22
2.14503e-21
2.38176e-22
2.1013e-21
2.54048e-22
2.0542e-21
2.68317e-22
2.00441e-21
2.81293e-22
1.95189e-21
2.92977e-22
1.89688e-21
3.03627e-22
1.83965e-21
3.13605e-22
1.78009e-21
3.22704e-22
1.71862e-21
3.31493e-22
1.65514e-21
3.40126e-22
1.58953e-21
3.4845e-22
1.52212e-21
3.5698e-22
1.45268e-21
3.65666e-22
1.38124e-21
3.74454e-22
1.30777e-21
3.83605e-22
1.2326e-21
3.92963e-22
1.15521e-21
4.02475e-22
1.07585e-21
4.12091e-22
9.94685e-22
4.22017e-22
9.11605e-22
4.31892e-22
8.26767e-22
4.41766e-22
7.40172e-22
4.51434e-22
6.52129e-22
4.60636e-22
5.62483e-22
4.69322e-22
4.717e-22
4.77335e-22
3.79728e-22
4.84624e-22
2.8667e-22
4.90932e-22
1.93147e-22
4.96153e-22
9.90549e-23
5.00082e-22
5.02874e-22
-1.18566e-14
3.63149e-14
-2.27145e-14
3.21313e-14
-3.19168e-14
2.40424e-14
-3.87289e-14
1.21441e-14
-4.25007e-14
-3.05729e-15
-4.26428e-14
-2.14225e-14
-3.85606e-14
-4.25606e-14
-3.00037e-14
-6.58098e-14
-1.6458e-14
-9.09362e-14
2.37992e-15
-1.17402e-13
2.63456e-14
-1.44469e-13
5.49596e-14
-1.71379e-13
8.96132e-14
-1.98625e-13
1.28037e-13
-2.23638e-13
1.68711e-13
-2.41713e-13
2.18705e-13
-2.66994e-13
2.71246e-13
-2.96383e-13
3.25281e-13
-3.12281e-13
3.81086e-13
-3.23042e-13
4.43262e-13
-3.37708e-13
5.07397e-13
-3.62997e-13
5.70362e-13
-3.63459e-13
6.35673e-13
-3.72248e-13
7.02707e-13
-3.79353e-13
7.68891e-13
-3.83913e-13
8.3588e-13
-3.84914e-13
9.02554e-13
-3.85533e-13
9.68866e-13
-3.84498e-13
1.03461e-12
-3.81883e-13
1.09969e-12
-3.78559e-13
1.16381e-12
-3.73856e-13
1.22688e-12
-3.68124e-13
1.28882e-12
-3.6153e-13
1.34951e-12
-3.53996e-13
1.40882e-12
-3.4531e-13
1.4666e-12
-3.36323e-13
1.52274e-12
-3.25818e-13
1.57725e-12
-3.14675e-13
1.62977e-12
-3.0223e-13
1.68012e-12
-2.88473e-13
1.72824e-12
-2.73538e-13
1.77375e-12
-2.56933e-13
1.81635e-12
-2.38665e-13
1.85574e-12
-2.18788e-13
1.8916e-12
-1.96669e-13
1.92331e-12
-1.7274e-13
1.95075e-12
-1.47301e-13
1.97351e-12
-1.19563e-13
1.99118e-12
-8.99995e-14
2.0034e-12
-5.87877e-14
2.00975e-12
-2.60383e-14
2.0103e-12
8.84253e-15
2.004e-12
4.45593e-14
1.99155e-12
8.00475e-14
1.97248e-12
1.1703e-13
1.94704e-12
1.52869e-13
1.91496e-12
1.90153e-13
1.8764e-12
2.26321e-13
1.83159e-12
2.62227e-13
1.78065e-12
2.96248e-13
1.72394e-12
3.29585e-13
1.66171e-12
3.61443e-13
1.59414e-12
3.92177e-13
1.52147e-12
4.21073e-13
1.44414e-12
4.48259e-13
1.36237e-12
4.73934e-13
1.27664e-12
4.97227e-13
1.18713e-12
5.18692e-13
1.0942e-12
5.3816e-13
9.98269e-13
5.55424e-13
8.99662e-13
5.70474e-13
7.98862e-13
5.83185e-13
6.96429e-13
5.93424e-13
5.93106e-13
6.01431e-13
4.89827e-13
6.07757e-13
3.89507e-13
6.10308e-13
2.80909e-13
6.3154e-13
1.06089e-13
8.86582e-13
-3.5005e-17
7.78145e-13
2.3674e-21
-7.99059e-22
2.37034e-21
-1.40621e-23
2.37148e-21
2.37814e-23
2.37049e-21
6.07978e-23
2.36315e-21
9.64182e-23
2.34992e-21
1.30539e-22
2.33063e-21
1.62489e-22
2.30571e-21
1.92423e-22
2.27599e-21
2.20185e-22
2.24161e-21
2.45673e-22
2.2032e-21
2.6873e-22
2.16091e-21
2.89565e-22
2.11557e-21
3.08383e-22
2.06712e-21
3.25289e-22
2.0161e-21
3.40488e-22
1.96259e-21
3.54137e-22
1.90681e-21
3.66596e-22
1.8488e-21
3.78022e-22
1.78883e-21
3.8893e-22
1.7272e-21
3.9927e-22
1.66351e-21
4.09351e-22
1.59801e-21
4.19484e-22
1.53075e-21
4.29669e-22
1.46152e-21
4.40164e-22
1.39039e-21
4.50969e-22
1.31718e-21
4.62136e-22
1.24206e-21
4.73768e-22
1.16488e-21
4.85658e-22
1.08573e-21
4.97911e-22
1.00461e-21
5.10526e-22
9.21428e-22
5.23243e-22
8.36331e-22
5.35755e-22
7.49426e-22
5.48111e-22
6.60814e-22
5.60001e-22
5.70548e-22
5.71168e-22
4.78938e-22
5.81663e-22
3.86035e-22
5.90969e-22
2.91891e-22
5.98982e-22
1.97076e-22
6.056e-22
1.01795e-22
6.10718e-22
6.1413e-22
-1.59126e-14
5.23111e-14
-3.06937e-14
4.70629e-14
-4.36138e-14
3.70972e-14
-5.39607e-14
2.26212e-14
-6.08448e-14
3.95805e-15
-6.36946e-14
-1.84396e-14
-6.18536e-14
-4.42702e-14
-5.49288e-14
-7.25994e-14
-4.24337e-14
-1.03297e-13
-2.42478e-14
-1.35451e-13
-8.53586e-16
-1.67722e-13
2.84458e-14
-2.00536e-13
6.44601e-14
-2.34498e-13
1.01785e-13
-2.60818e-13
1.44104e-13
-2.83884e-13
1.99104e-13
-3.21842e-13
2.5221e-13
-3.49334e-13
3.07607e-13
-3.67523e-13
3.63915e-13
-3.79192e-13
4.35277e-13
-4.08907e-13
4.95634e-13
-4.23189e-13
5.62772e-13
-4.30431e-13
6.29685e-13
-4.38988e-13
6.99228e-13
-4.48723e-13
7.66718e-13
-4.51226e-13
8.35373e-13
-4.53393e-13
9.03539e-13
-4.53514e-13
9.71216e-13
-4.51992e-13
1.03823e-12
-4.48706e-13
1.1043e-12
-4.44449e-13
1.16944e-12
-4.38804e-13
1.23348e-12
-4.31969e-13
1.29634e-12
-4.24189e-13
1.35791e-12
-4.15367e-13
1.41806e-12
-4.05265e-13
1.47685e-12
-3.94913e-13
1.534e-12
-3.82769e-13
1.5896e-12
-3.7007e-13
1.64339e-12
-3.55812e-13
1.69526e-12
-3.40138e-13
1.74483e-12
-3.22905e-13
1.79201e-12
-3.03899e-13
1.83639e-12
-2.82837e-13
1.87755e-12
-2.59745e-13
1.91543e-12
-2.34346e-13
1.94904e-12
-2.06145e-13
1.97855e-12
-1.76607e-13
2.00317e-12
-1.43993e-13
2.02258e-12
-1.09209e-13
2.0363e-12
-7.23079e-14
2.04398e-12
-3.35252e-14
2.04581e-12
7.20801e-15
2.04009e-12
5.04598e-14
2.02811e-12
9.22164e-14
2.00924e-12
1.36081e-13
1.9836e-12
1.78683e-13
1.95118e-12
2.22743e-13
1.91188e-12
2.65787e-13
1.86618e-12
3.08097e-13
1.81398e-12
3.48615e-13
1.75607e-12
3.87657e-13
1.69225e-12
4.25414e-13
1.62299e-12
4.61586e-13
1.54872e-12
4.95496e-13
1.46951e-12
5.27608e-13
1.38586e-12
5.57731e-13
1.29818e-12
5.85048e-13
1.20664e-12
6.10367e-13
1.11154e-12
6.33389e-13
1.01326e-12
6.53831e-13
9.1231e-13
6.71555e-13
8.09073e-13
6.8655e-13
7.04317e-13
6.98304e-13
5.99358e-13
7.06511e-13
4.96197e-13
7.11039e-13
3.93933e-13
7.12692e-13
2.24844e-13
8.00748e-13
9.67165e-14
1.01483e-12
-3.5179e-17
8.7499e-13
2.40793e-21
-8.88394e-22
2.40818e-21
-1.57164e-23
2.40854e-21
2.95717e-23
2.40611e-21
7.37225e-23
2.39722e-21
1.16219e-22
2.38187e-21
1.56596e-22
2.36057e-21
1.94594e-22
2.33348e-21
2.29801e-22
2.30142e-21
2.62371e-22
2.26472e-21
2.91943e-22
2.22398e-21
3.18826e-22
2.17978e-21
3.43021e-22
2.13247e-21
3.64683e-22
2.08232e-21
3.83915e-22
2.0298e-21
4.01079e-22
1.97505e-21
4.16641e-22
1.91828e-21
4.30754e-22
1.85966e-21
4.43731e-22
1.79917e-21
4.55828e-22
1.73729e-21
4.67667e-22
1.67365e-21
4.79196e-22
1.60825e-21
4.9088e-22
1.5413e-21
5.02874e-22
1.47223e-21
5.1523e-22
1.40155e-21
5.28258e-22
1.32881e-21
5.41752e-22
1.25401e-21
5.55865e-22
1.17713e-21
5.706e-22
1.09834e-21
5.85902e-22
1.01728e-21
6.01567e-22
9.3399e-22
6.1718e-22
8.48739e-22
6.33103e-22
7.61265e-22
6.48458e-22
6.72033e-22
6.63451e-22
5.80991e-22
6.77513e-22
4.88243e-22
6.90541e-22
3.94048e-22
7.02225e-22
2.98509e-22
7.12306e-22
2.02194e-22
7.20681e-22
1.05155e-22
7.26937e-22
7.31124e-22
-2.08476e-14
7.32438e-14
-4.04847e-14
6.68505e-14
-5.80555e-14
5.47983e-14
-7.26419e-14
3.73363e-14
-8.32924e-14
1.47407e-14
-8.93368e-14
-1.22621e-14
-9.01933e-14
-4.32828e-14
-8.51667e-14
-7.74941e-14
-7.39266e-14
-1.144e-13
-5.69622e-14
-1.5228e-13
-3.38193e-14
-1.9073e-13
-2.53809e-15
-2.31676e-13
3.25722e-14
-2.69466e-13
6.88742e-14
-2.96973e-13
1.18705e-13
-3.33567e-13
1.73622e-13
-3.7661e-13
2.29003e-13
-4.04562e-13
2.85735e-13
-4.24102e-13
3.48078e-13
-4.41377e-13
4.21669e-13
-4.82334e-13
4.83331e-13
-4.84688e-13
5.53884e-13
-5.00817e-13
6.23771e-13
-5.08707e-13
6.94752e-13
-5.19534e-13
7.64815e-13
-5.21116e-13
8.35201e-13
-5.23601e-13
9.05157e-13
-5.23291e-13
9.74193e-13
-5.20845e-13
1.04254e-12
-5.16868e-13
1.10991e-12
-5.11633e-13
1.17611e-12
-5.04811e-13
1.24126e-12
-4.96926e-13
1.30511e-12
-4.87845e-13
1.36768e-12
-4.77741e-13
1.42884e-12
-4.66226e-13
1.48853e-12
-4.54401e-13
1.54707e-12
-4.41105e-13
1.60387e-12
-4.26675e-13
1.65908e-12
-4.10813e-13
1.71249e-12
-3.93348e-13
1.76384e-12
-3.74044e-13
1.81294e-12
-3.52799e-13
1.85946e-12
-3.29154e-13
1.90298e-12
-3.03054e-13
1.94307e-12
-2.74233e-13
1.97924e-12
-2.42112e-13
2.011e-12
-2.08174e-13
2.03798e-12
-1.70765e-13
2.05949e-12
-1.30525e-13
2.07513e-12
-8.77603e-14
2.08449e-12
-4.26884e-14
2.08768e-12
4.20775e-15
2.08314e-12
5.51847e-14
2.07149e-12
1.04043e-13
2.05295e-12
1.54799e-13
2.02687e-12
2.04941e-13
1.99402e-12
2.55765e-13
1.95381e-12
3.06159e-13
1.90717e-12
3.54905e-13
1.85335e-12
4.02592e-13
1.79383e-12
4.47337e-13
1.72835e-12
4.9105e-13
1.65714e-12
5.32939e-13
1.58068e-12
5.72106e-13
1.49929e-12
6.09142e-13
1.41353e-12
6.43626e-13
1.3235e-12
6.75218e-13
1.2295e-12
7.04493e-13
1.13196e-12
7.31064e-13
1.03105e-12
7.54868e-13
9.27202e-13
7.75524e-13
8.20848e-13
7.93027e-13
7.12447e-13
8.06827e-13
6.03239e-13
8.15839e-13
4.96598e-13
8.17799e-13
4.02956e-13
8.06452e-13
1.97964e-13
1.00585e-12
1.03764e-13
1.10915e-12
-3.29292e-17
9.7888e-13
2.45094e-21
-9.84347e-22
2.45342e-21
-1.70089e-23
2.45264e-21
3.60341e-23
2.44866e-21
8.77846e-23
2.4376e-21
1.37519e-22
2.41987e-21
1.84668e-22
2.39588e-21
2.28767e-22
2.366e-21
2.69713e-22
2.331e-21
3.07091e-22
2.2916e-21
3.41057e-22
2.24817e-21
3.71559e-22
2.20144e-21
3.98856e-22
2.1517e-21
4.23051e-22
2.09954e-21
4.44558e-22
2.04531e-21
4.63583e-22
1.98916e-21
4.80644e-22
1.93126e-21
4.96153e-22
1.87175e-21
5.10319e-22
1.81106e-21
5.23657e-22
1.74887e-21
5.36633e-22
1.68528e-21
5.4961e-22
1.62024e-21
5.62845e-22
1.5536e-21
5.76545e-22
1.48525e-21
5.90969e-22
1.4151e-21
6.0622e-22
1.34293e-21
6.22557e-22
1.26869e-21
6.39617e-22
1.19243e-21
6.57505e-22
1.11401e-21
6.76117e-22
1.03294e-21
6.9509e-22
9.4981e-22
7.14581e-22
8.64145e-22
7.33968e-22
7.76206e-22
7.53096e-22
6.86146e-22
7.71501e-22
5.94019e-22
7.89027e-22
4.99927e-22
8.05054e-22
4.04181e-22
8.19478e-22
3.06884e-22
8.31782e-22
2.0845e-22
8.41863e-22
1.09395e-22
8.49566e-22
8.54323e-22
-2.69125e-14
1.00239e-13
-5.24746e-14
9.25605e-14
-7.55936e-14
7.8047e-14
-9.52041e-14
5.70772e-14
-1.104e-13
3.00679e-14
-1.20213e-13
-2.32068e-15
-1.24162e-13
-3.92019e-14
-1.21495e-13
-8.0031e-14
-1.12022e-13
-1.2374e-13
-9.63247e-14
-1.67844e-13
-7.2152e-14
-2.14766e-13
-3.96015e-14
-2.64089e-13
-7.79963e-15
-3.01128e-13
3.23605e-14
-3.36993e-13
8.95413e-14
-3.90604e-13
1.42978e-13
-4.29901e-13
2.00737e-13
-4.62168e-13
2.60862e-13
-4.84075e-13
3.35914e-13
-5.16275e-13
4.00448e-13
-5.46711e-13
4.72058e-13
-5.56139e-13
5.43485e-13
-5.72082e-13
6.1782e-13
-5.82876e-13
6.89738e-13
-5.91282e-13
7.63062e-13
-5.94266e-13
8.35511e-13
-5.9588e-13
9.0727e-13
-5.94874e-13
9.78028e-13
-5.91423e-13
1.04798e-12
-5.86637e-13
1.11663e-12
-5.80098e-13
1.18409e-12
-5.72092e-13
1.25026e-12
-5.62901e-13
1.31517e-12
-5.52566e-13
1.37876e-12
-5.41135e-13
1.44094e-12
-5.28211e-13
1.50185e-12
-5.15115e-13
1.56158e-12
-5.00637e-13
1.61972e-12
-4.84615e-13
1.67651e-12
-4.67393e-13
1.73173e-12
-4.4837e-13
1.78517e-12
-4.27279e-13
1.83649e-12
-4.03921e-13
1.88545e-12
-3.77911e-13
1.93173e-12
-3.49137e-13
1.97473e-12
-3.17029e-13
2.01394e-12
-2.81123e-13
2.04841e-12
-2.42439e-13
2.07825e-12
-2.00413e-13
2.10241e-12
-1.54486e-13
2.12041e-12
-1.05566e-13
2.13182e-12
-5.39167e-14
2.13611e-12
1.09869e-16
2.13336e-12
5.81123e-14
2.12213e-12
1.15453e-13
2.10382e-12
1.7328e-13
2.07732e-12
2.31616e-13
2.04393e-12
2.89331e-13
2.00266e-12
3.47591e-13
1.95468e-12
4.03047e-13
1.89906e-12
4.58364e-13
1.83757e-12
5.0898e-13
1.76987e-12
5.58902e-13
1.69644e-12
6.06516e-13
1.61757e-12
6.51118e-13
1.53366e-12
6.93191e-13
1.44543e-12
7.31997e-13
1.35271e-12
7.68068e-13
1.25602e-12
8.01309e-13
1.15556e-12
8.31645e-13
1.05178e-12
8.58771e-13
9.4473e-13
8.82697e-13
8.34678e-13
9.03197e-13
7.21715e-13
9.19907e-13
6.0557e-13
9.321e-13
4.85748e-13
9.37739e-13
3.55522e-13
9.36789e-13
2.01286e-13
1.16021e-12
1.07793e-13
1.20275e-12
-3.2577e-17
1.08679e-12
2.50388e-21
-1.0439e-21
2.50651e-21
-1.74225e-23
2.50439e-21
4.40991e-23
2.49829e-21
1.03915e-22
2.4848e-21
1.61404e-22
2.46402e-21
2.15584e-22
2.43672e-21
2.66197e-22
2.40343e-21
3.12778e-22
2.36501e-21
3.55274e-22
2.3221e-21
3.93583e-22
2.27542e-21
4.27756e-22
2.22568e-21
4.57948e-22
2.17321e-21
4.84573e-22
2.11862e-21
5.07889e-22
2.06232e-21
5.28413e-22
2.00467e-21
5.46508e-22
1.94543e-21
5.62845e-22
1.88514e-21
5.77941e-22
1.82399e-21
5.92365e-22
1.76189e-21
6.06427e-22
1.69846e-21
6.20592e-22
1.63394e-21
6.35275e-22
1.56808e-21
6.50836e-22
1.50051e-21
6.67483e-22
1.43138e-21
6.85164e-22
1.35994e-21
7.04241e-22
1.28658e-21
7.24662e-22
1.21104e-21
7.46169e-22
1.13303e-21
7.68658e-22
1.05243e-21
7.91767e-22
9.69197e-22
8.15497e-22
8.83326e-22
8.39123e-22
7.94662e-22
8.62232e-22
7.03569e-22
8.84773e-22
6.10097e-22
9.06073e-22
5.143e-22
9.25512e-22
4.16537e-22
9.42831e-22
3.16914e-22
9.57668e-22
2.16153e-22
9.69714e-22
1.14151e-22
9.784e-22
9.83776e-22
-3.42205e-14
1.34542e-13
-6.67515e-14
1.25238e-13
-9.64736e-14
1.07898e-13
-1.22168e-13
8.28958e-14
-1.42651e-13
5.06808e-14
-1.57234e-13
1.23899e-14
-1.6475e-13
-3.15558e-14
-1.63851e-13
-8.08014e-14
-1.57751e-13
-1.29708e-13
-1.4259e-13
-1.8287e-13
-1.14766e-13
-2.42454e-13
-8.87074e-14
-2.9001e-13
-5.57951e-14
-3.33903e-13
-2.18451e-15
-3.90461e-13
5.03489e-14
-4.42998e-13
1.08576e-13
-4.87985e-13
1.65298e-13
-5.18743e-13
2.40055e-13
-5.58683e-13
3.13717e-13
-5.89783e-13
3.81227e-13
-6.14066e-13
4.57759e-13
-6.32514e-13
5.3365e-13
-6.47813e-13
6.10334e-13
-6.59394e-13
6.85629e-13
-6.66407e-13
7.61593e-13
-6.70063e-13
8.3644e-13
-6.70556e-13
9.10214e-13
-6.68472e-13
9.83016e-13
-6.64049e-13
1.05447e-12
-6.57914e-13
1.12461e-12
-6.50056e-13
1.19335e-12
-6.40653e-13
1.26064e-12
-6.30006e-13
1.32658e-12
-6.18308e-13
1.39117e-12
-6.05533e-13
1.45437e-12
-5.91224e-13
1.5166e-12
-5.77146e-13
1.57748e-12
-5.61318e-13
1.63722e-12
-5.44158e-13
1.69556e-12
-5.25535e-13
1.75273e-12
-5.05339e-13
1.80841e-12
-4.82771e-13
1.86248e-12
-4.57792e-13
1.91434e-12
-4.29573e-13
1.96372e-12
-3.98313e-13
2.0101e-12
-3.6321e-13
2.05299e-12
-3.23821e-13
2.09097e-12
-2.8022e-13
2.12403e-12
-2.33281e-13
2.15135e-12
-1.81617e-13
2.17231e-12
-1.26338e-13
2.18608e-12
-6.75035e-14
2.19201e-12
-5.63318e-15
2.1915e-12
5.8805e-14
2.18065e-12
1.26473e-13
2.16229e-12
1.91814e-13
2.13538e-12
2.58695e-13
2.10123e-12
3.23641e-13
2.05864e-12
3.90349e-13
2.00886e-12
4.5298e-13
1.95137e-12
5.16012e-13
1.88721e-12
5.73297e-13
1.81723e-12
6.29021e-13
1.74103e-12
6.82861e-13
1.65951e-12
7.32783e-13
1.57279e-12
7.80042e-13
1.48158e-12
8.23345e-13
1.38592e-12
8.63851e-13
1.28622e-12
9.01137e-13
1.18269e-12
9.35292e-13
1.07564e-12
9.65947e-13
9.65143e-13
9.9331e-13
8.51306e-13
1.01715e-12
7.33656e-13
1.03767e-12
6.10934e-13
1.05494e-12
4.79368e-13
1.06942e-12
3.22603e-13
1.09367e-12
2.09285e-13
1.27363e-12
1.08117e-13
1.30403e-12
-3.16501e-17
1.19502e-12
2.56757e-21
-1.09188e-21
2.56803e-21
-1.74225e-23
2.56431e-21
5.356e-23
2.55578e-21
1.22371e-22
2.53898e-21
1.8808e-22
2.51463e-21
2.49912e-22
2.4833e-21
3.07298e-22
2.44587e-21
3.59979e-22
2.40327e-21
4.07542e-22
2.35617e-21
4.49986e-22
2.30566e-21
4.8752e-22
2.25231e-21
5.20452e-22
2.19647e-21
5.48938e-22
2.13909e-21
5.73805e-22
2.08046e-21
5.95363e-22
2.02096e-21
6.14337e-22
1.96047e-21
6.31191e-22
1.89957e-21
6.46959e-22
1.8381e-21
6.619e-22
1.77601e-21
6.76789e-22
1.71319e-21
6.91937e-22
1.6495e-21
7.0817e-22
1.58467e-21
7.25489e-22
1.51829e-21
7.44256e-22
1.45041e-21
7.64935e-22
1.38041e-21
7.87269e-22
1.30808e-21
8.11361e-22
1.23353e-21
8.37003e-22
1.15614e-21
8.63835e-22
1.07611e-21
8.91856e-22
9.92824e-22
9.20135e-22
9.06435e-22
9.48466e-22
8.17203e-22
9.76538e-22
7.24869e-22
1.00358e-21
6.29536e-22
1.02891e-21
5.31619e-22
1.05212e-21
4.31375e-22
1.07275e-21
3.28908e-22
1.09012e-21
2.2489e-22
1.10382e-21
1.19528e-22
1.1137e-21
1.11933e-21
-4.28675e-14
1.77492e-13
-8.39705e-14
1.66486e-13
-1.21597e-13
1.45648e-13
-1.54708e-13
1.16134e-13
-1.81078e-13
7.71741e-14
-1.99637e-13
3.10762e-14
-2.12374e-13
-1.86906e-14
-2.16938e-13
-7.61077e-14
-2.11662e-13
-1.34855e-13
-1.91336e-13
-2.03063e-13
-1.72267e-13
-2.61391e-13
-1.47659e-13