0 	7.8423e-13 	0 	-6.75534e-11
0.010101 	1.69049e-10 	1.73409e-14 	-4.14771e-11
0.020202 	2.58817e-11 	1.26298e-15 	1.85622e-11
0.030303 	5.04954e-12 	1.66406e-16 	4.4457e-12
0.040404 	1.12941e-12 	2.82659e-17 	1.04187e-12
0.0505051 	2.48059e-13 	5.16981e-18 	2.66516e-13
