0.010101 	1.56764e-13 	-1.44094e-16 	1.39441e-15
0.020202 	9.3754e-15 	-1.65619e-17 	1.16869e-16
