/*--------------------------------*- C++ -*----------------------------------*\
  =========                 |
  \\      /  F ield         | OpenFOAM: The Open Source CFD Toolbox
   \\    /   O peration     | Website:  https://openfoam.org
    \\  /    A nd           | Version:  6
     \\/     M anipulation  |
\*---------------------------------------------------------------------------*/
FoamFile
{
    version     2.0;
    format      ascii;
    class       surfaceScalarField;
    location    "3600";
    object      phi;
}
// * * * * * * * * * * * * * * * * * * * * * * * * * * * * * * * * * * * * * //

dimensions      [0 3 -1 0 0 0 0];

internalField   nonuniform List<scalar> 
9440
(
2.56413e-11
-2.56413e-11
4.69503e-11
-2.13075e-11
-1.34856e-11
6.0437e-11
-1.52389e-10
1.38904e-10
-4.3655e-10
2.84162e-10
-8.97182e-10
4.60633e-10
-1.52134e-09
6.24163e-10
-1.98506e-09
4.63717e-10
-2.20244e-09
2.17384e-10
-2.34564e-09
1.43198e-10
-2.45371e-09
1.0807e-10
-2.39211e-09
-6.15958e-11
-2.20644e-09
-1.85674e-10
-2.07541e-09
-1.31025e-10
-1.93746e-09
-1.37952e-10
-1.48351e-09
-4.53952e-10
-1.08194e-09
-4.01565e-10
-8.47984e-10
-2.33955e-10
-3.87065e-10
-4.60918e-10
4.17343e-11
-4.28799e-10
6.46777e-10
-6.05043e-10
7.80712e-10
-1.33934e-10
1.33547e-09
-5.54754e-10
1.48454e-09
-1.49071e-10
1.8492e-09
-3.64663e-10
1.9001e-09
-5.0901e-11
2.20804e-09
-3.0794e-10
2.64113e-09
-4.33092e-10
3.21017e-09
-5.69039e-10
3.34024e-09
-1.30068e-10
3.42169e-09
-8.14511e-11
3.44706e-09
-2.53717e-11
3.42902e-09
1.80452e-11
3.5846e-09
-1.55576e-10
3.57948e-09
5.11865e-12
3.57928e-09
1.98935e-13
3.5388e-09
4.04747e-11
3.3637e-09
1.75101e-10
3.07401e-09
2.89693e-10
2.71068e-09
3.63335e-10
2.28856e-09
4.22113e-10
1.95277e-09
3.35794e-10
1.71782e-09
2.34946e-10
1.52862e-09
1.89206e-10
1.39514e-09
1.3348e-10
1.3375e-09
5.76431e-11
1.22923e-09
1.08262e-10
1.1558e-09
7.34365e-11
1.17183e-09
-1.60282e-11
1.16814e-09
3.69113e-12
1.19076e-09
-2.26248e-11
1.24764e-09
-5.68765e-11
1.2679e-09
-2.02603e-11
1.31175e-09
-4.38489e-11
1.38452e-09
-7.27685e-11
1.48425e-09
-9.97329e-11
1.60742e-09
-1.2316e-10
1.6616e-09
-5.41881e-11
1.64677e-09
1.48395e-11
1.59345e-09
5.33202e-11
1.4563e-09
1.3715e-10
1.32877e-09
1.27531e-10
1.13806e-09
1.90709e-10
8.69809e-10
2.68251e-10
7.36187e-10
1.33623e-10
5.44821e-10
1.91366e-10
5.17182e-10
2.76396e-11
5.91547e-10
-7.43645e-11
6.86316e-10
-9.47682e-11
8.0846e-10
-1.22143e-10
9.21142e-10
-1.12681e-10
1.04904e-09
-1.27894e-10
1.08628e-09
-3.72412e-11
1.10459e-09
-1.8313e-11
1.01317e-09
9.14194e-11
1.02062e-09
-7.44542e-12
7.74211e-10
2.46406e-10
8.01599e-10
-2.73882e-11
6.11521e-10
1.90077e-10
3.79485e-10
2.32036e-10
4.27989e-16
3.79484e-10
-3.41409e-18
-1.16123e-19
-3.37773e-18
-3.63602e-20
-3.36596e-18
-1.22232e-20
-3.31252e-18
-5.42626e-20
-3.20684e-18
-1.06938e-19
-3.0497e-18
-1.58751e-19
-2.84518e-18
-2.06394e-19
-2.59871e-18
-2.48605e-19
-2.31622e-18
-2.84864e-19
-2.00423e-18
-3.14583e-19
-1.66969e-18
-3.37292e-19
-1.31988e-18
-3.52691e-19
-9.62144e-19
-3.60674e-19
-6.03766e-19
-3.6134e-19
-2.51725e-19
-3.54983e-19
8.74691e-20
-3.42076e-19
4.07931e-19
-3.23251e-19
7.04522e-19
-2.99259e-19
9.72935e-19
-2.7094e-19
1.20974e-18
-2.39178e-19
1.41242e-18
-2.0487e-19
1.57928e-18
-1.68887e-19
1.70948e-18
-1.3205e-19
1.80291e-18
-9.51076e-20
1.86012e-18
-5.87217e-20
1.88223e-18
-2.34597e-20
1.87081e-18
1.02066e-20
1.82784e-18
4.18998e-20
1.75556e-18
7.13301e-20
1.65643e-18
9.82856e-20
1.53305e-18
1.22622e-19
1.38814e-18
1.44253e-19
1.22441e-18
1.63133e-19
1.04463e-18
1.79253e-19
8.51526e-19
1.92623e-19
6.47824e-19
2.03267e-19
4.36211e-19
2.11209e-19
2.19367e-19
2.16463e-19
2.19e-19
-6.03778e-12
-1.96021e-11
-1.18013e-10
9.06697e-11
-3.36148e-10
2.78575e-10
-5.26205e-10
3.28964e-10
-7.8762e-10
5.45579e-10
-1.14854e-09
8.2156e-10
-1.5098e-09
9.85419e-10
-1.81801e-09
7.7193e-10
-1.96962e-09
3.68995e-10
-2.07421e-09
2.47788e-10
-2.17122e-09
2.05082e-10
-2.08573e-09
-1.47076e-10
-1.80594e-09
-4.65472e-10
-1.60045e-09
-3.36511e-10
-1.33597e-09
-4.02428e-10
-1.05894e-09
-7.30981e-10
-8.51534e-10
-6.08969e-10
-3.4411e-10
-7.41378e-10
9.89554e-11
-9.03983e-10
4.92438e-10
-8.2228e-10
8.21625e-10
-9.3423e-10
1.30938e-09
-6.2169e-10
1.40782e-09
-6.5319e-10
1.91102e-09
-6.52271e-10
2.23719e-09
-6.90831e-10
2.17032e-09
1.59734e-11
2.55472e-09
-6.92341e-10
2.85944e-09
-7.37817e-10
3.14327e-09
-8.5286e-10
3.35284e-09
-3.39642e-10
3.62126e-09
-3.49876e-10
3.82692e-09
-2.31027e-10
4.01567e-09
-1.70708e-10
4.09582e-09
-2.35718e-10
4.13676e-09
-3.58262e-11
4.12802e-09
8.93939e-12
4.14222e-09
2.62746e-11
4.0611e-09
2.56225e-10
3.96658e-09
3.84218e-10
3.79964e-09
5.30276e-10
3.56911e-09
6.52642e-10
3.1848e-09
7.20102e-10
2.84493e-09
5.74822e-10
2.53489e-09
4.99248e-10
2.22888e-09
4.39488e-10
1.9879e-09
2.98631e-10
1.84295e-09
2.53208e-10
1.7274e-09
1.88992e-10
1.59168e-09
1.19686e-10
1.50633e-09
8.90428e-11
1.37462e-09
1.0909e-10
1.40557e-09
-8.78224e-11
1.35884e-09
2.64682e-11
1.35529e-09
-4.02902e-11
1.3859e-09
-1.03382e-10
1.44411e-09
-1.57943e-10
1.52415e-09
-2.03192e-10
1.59101e-09
-1.21049e-10
1.57306e-09
3.27899e-11
1.55361e-09
7.27694e-11
1.51458e-09
1.76184e-10
1.36092e-09
2.81193e-10
1.12967e-09
4.21961e-10
9.39131e-10
4.58791e-10
7.84257e-10
2.88498e-10
7.6723e-10
2.08396e-10
7.85151e-10
9.7195e-12
8.29877e-10
-1.1909e-10
8.75448e-10
-1.40338e-10
9.49625e-10
-1.9632e-10
1.04195e-09
-2.05006e-10
1.12571e-09
-2.11658e-10
1.17831e-09
-8.98397e-11
1.19145e-09
-3.14501e-11
1.15966e-09
1.23212e-10
1.06528e-09
8.69273e-11
9.58577e-10
3.53112e-10
8.3247e-10
9.87182e-11
5.95329e-10
4.27218e-10
3.22317e-10
5.05048e-10
2.86188e-16
7.018e-10
-3.05343e-18
1.5189e-18
-3.35913e-18
2.68531e-19
-3.41179e-18
3.86734e-20
-3.36731e-18
-1.00977e-19
-3.25918e-18
-2.17839e-19
-3.09727e-18
-3.24001e-19
-2.88739e-18
-4.20113e-19
-2.63496e-18
-5.05292e-19
-2.34594e-18
-5.78495e-19
-2.02694e-18
-6.38461e-19
-1.68509e-18
-6.84206e-19
-1.32786e-18
-7.15106e-19
-9.6281e-19
-7.30945e-19
-5.97408e-19
-7.31925e-19
-2.38819e-19
-7.18656e-19
1.06295e-19
-6.92118e-19
4.31923e-19
-6.53606e-19
7.32841e-19
-6.04667e-19
1.0047e-18
-5.47019e-19
1.24405e-18
-4.82471e-19
1.4484e-18
-4.1285e-19
1.61611e-18
-3.3993e-19
1.74642e-18
-2.65377e-19
1.8393e-18
-1.90704e-19
1.89538e-18
-1.17247e-19
1.9159e-18
-4.61438e-20
1.90251e-18
2.1664e-20
1.85727e-18
8.54273e-20
1.78251e-18
1.44575e-19
1.68076e-18
1.98694e-19
1.55468e-18
2.47511e-19
1.40702e-18
2.90862e-19
1.24053e-18
3.28671e-19
1.058e-18
3.60928e-19
8.6217e-19
3.87667e-19
6.55766e-19
4.08944e-19
4.41465e-19
4.24822e-19
2.21904e-19
4.35361e-19
4.40615e-19
-3.01706e-11
1.05697e-11
-1.25761e-10
1.86262e-10
-2.51491e-10
4.04307e-10
-5.65921e-10
6.43396e-10
-9.75377e-10
9.55038e-10
-1.24628e-09
1.09246e-09
-1.36918e-09
1.10833e-09
-1.51362e-09
9.16369e-10
-1.74223e-09
5.97609e-10
-1.83263e-09
3.38188e-10
-1.85019e-09
2.22643e-10
-1.69439e-09
-3.02877e-10
-1.39404e-09
-7.65821e-10
-1.16413e-09
-5.66419e-10
-8.87715e-10
-6.7884e-10
-7.67639e-10
-8.51055e-10
-4.70913e-10
-9.05694e-10
-1.08626e-12
-1.2112e-09
2.70444e-10
-1.17551e-09
6.03829e-10
-1.15566e-09
8.29905e-10
-1.1603e-09
1.24574e-09
-1.03752e-09
1.54584e-09
-9.53296e-10
1.89446e-09
-1.00089e-09
2.18051e-09
-9.76881e-10
2.3392e-09
-1.42711e-10
2.57813e-09
-9.3128e-10
2.90938e-09
-1.06906e-09
2.9835e-09
-9.26982e-10
3.27407e-09
-6.30209e-10
3.41432e-09
-4.90124e-10
3.66455e-09
-4.81254e-10
4.04026e-09
-5.46423e-10
4.16825e-09
-3.63706e-10
4.21054e-09
-7.81171e-11
4.23644e-09
-1.69601e-11
4.25483e-09
7.88772e-12
4.22286e-09
2.88189e-10
4.20086e-09
4.06226e-10
4.16051e-09
5.70626e-10
4.05122e-09
7.61933e-10
3.92465e-09
8.46671e-10
3.67809e-09
8.21385e-10
3.37337e-09
8.03969e-10
3.011e-09
8.0186e-10
2.66581e-09
6.43819e-10
2.38126e-09
5.37762e-10
2.22767e-09
3.42584e-10
2.04968e-09
2.97672e-10
1.95883e-09
1.79893e-10
1.80951e-09
2.58416e-10
1.66333e-09
5.83587e-11
1.59121e-09
9.85841e-11
1.57955e-09
-2.86197e-11
1.54801e-09
-7.18421e-11
1.54331e-09
-1.53243e-10
1.55769e-09
-2.17569e-10
1.58659e-09
-1.49946e-10
1.59409e-09
2.52832e-11
1.55162e-09
1.15241e-10
1.44493e-09
2.82877e-10
1.31929e-09
4.06835e-10
1.17853e-09
5.62726e-10
1.0988e-09
5.38515e-10
9.62497e-10
4.24806e-10
9.34204e-10
2.3669e-10
9.6036e-10
-1.64351e-11
1.06571e-09
-2.2444e-10
1.16308e-09
-2.37704e-10
1.2333e-09
-2.66541e-10
1.32345e-09
-2.95156e-10
1.30822e-09
-1.96433e-10
1.28642e-09
-6.8036e-11
1.26625e-09
-1.12789e-11
1.17673e-09
2.12727e-10
1.08454e-09
1.79123e-10
9.31531e-10
5.06119e-10
7.80033e-10
2.50215e-10
5.61501e-10
6.45749e-10
3.40592e-10
7.25956e-10
1.2619e-16
1.04239e-09
-3.72796e-18
8.35012e-19
-3.58794e-18
1.27916e-19
-3.55043e-18
-2.19416e-22
-3.4832e-18
-1.70059e-19
-3.3644e-18
-3.38904e-19
-3.193e-18
-4.9812e-19
-2.97257e-18
-6.43698e-19
-2.70817e-18
-7.73229e-19
-2.40591e-18
-8.84612e-19
-2.07268e-18
-9.75786e-19
-1.71599e-18
-1.04518e-18
-1.3437e-18
-1.0918e-18
-9.6379e-19
-1.11531e-18
-5.84139e-19
-1.11604e-18
-2.1228e-19
-1.09493e-18
1.44806e-19
-1.05353e-18
4.80861e-19
-9.93859e-19
7.9049e-19
-9.18329e-19
1.06924e-18
-8.29609e-19
1.31367e-18
-7.30506e-19
1.52132e-18
-6.23844e-19
1.69067e-18
-5.12354e-19
1.82109e-18
-3.98593e-19
1.91275e-18
-2.84872e-19
1.96649e-18
-1.73214e-19
1.9837e-18
-6.5338e-20
1.96627e-18
3.73505e-20
1.91642e-18
1.33744e-19
1.83663e-18
2.23008e-19
1.72958e-18
3.04555e-19
1.59803e-18
3.78002e-19
1.44483e-18
4.43136e-19
1.27279e-18
4.99873e-19
1.08474e-18
5.48227e-19
8.83447e-19
5.8827e-19
6.71644e-19
6.2011e-19
4.52004e-19
6.43861e-19
2.27158e-19
6.59627e-19
6.67489e-19
-2.17985e-10
2.28556e-10
-4.33357e-10
4.01636e-10
-5.11589e-10
4.82541e-10
-5.5597e-10
6.87778e-10
-7.64964e-10
1.16403e-09
-1.02134e-09
1.34883e-09
-1.26038e-09
1.34738e-09
-1.31657e-09
9.72558e-10
-1.40221e-09
6.83254e-10
-1.48706e-09
4.23042e-10
-1.48994e-09
2.25525e-10
-1.30087e-09
-4.91948e-10
-1.17969e-09
-8.86998e-10
-9.28324e-10
-8.17786e-10
-6.31878e-10
-9.75285e-10
-4.50544e-10
-1.03239e-09
-2.96299e-10
-1.05994e-09
-4.40673e-12
-1.5031e-09
3.85995e-10
-1.56591e-09
6.68009e-10
-1.43768e-09
8.4009e-10
-1.33238e-09
1.11036e-09
-1.3078e-09
1.49589e-09
-1.33882e-09
1.81855e-09
-1.32355e-09
2.0026e-09
-1.16093e-09
2.57851e-09
-7.18624e-10
2.56831e-09
-9.21073e-10
2.97191e-09
-1.47267e-09
3.01967e-09
-9.7474e-10
3.0889e-09
-6.99436e-10
3.22275e-09
-6.23971e-10
3.51268e-09
-7.71188e-10
3.80852e-09
-8.42266e-10
4.07776e-09
-6.32944e-10
4.1104e-09
-1.10753e-10
4.23479e-09
-1.41349e-10
4.20471e-09
3.7966e-11
4.22146e-09
2.71438e-10
4.18255e-09
4.45142e-10
4.14114e-09
6.12038e-10
4.08746e-09
8.15614e-10
4.03236e-09
9.01766e-10
3.90327e-09
9.50477e-10
3.73873e-09
9.68507e-10
3.60784e-09
9.32749e-10
3.36097e-09
8.90694e-10
3.04436e-09
8.54374e-10
2.71728e-09
6.69665e-10
2.46966e-09
5.45289e-10
2.29602e-09
3.5354e-10
2.25548e-09
2.98951e-10
2.11532e-09
1.98521e-10
2.08973e-09
1.24173e-10
1.97289e-09
8.82247e-11
1.85755e-09
4.34949e-11
1.75725e-09
-5.29339e-11
1.68491e-09
-1.45232e-10
1.6536e-09
-1.18638e-10
1.62894e-09
4.99533e-11
1.51052e-09
2.33657e-10
1.34799e-09
4.45406e-10
1.24543e-09
5.09395e-10
1.24039e-09
5.67771e-10
1.30489e-09
4.74012e-10
1.19799e-09
5.31713e-10
1.1438e-09
2.90873e-10
1.17806e-09
-5.06911e-11
1.26778e-09
-3.14159e-10
1.42403e-09
-3.93953e-10
1.45519e-09
-2.97699e-10
1.44174e-09
-2.81703e-10
1.46772e-09
-2.22419e-10
1.40046e-09
-7.71798e-13
1.30167e-09
8.75137e-11
1.22305e-09
2.9134e-10
1.1169e-09
2.85273e-10
1.01847e-09
6.04553e-10
7.52713e-10
5.15972e-10
6.32163e-10
7.66298e-10
4.04565e-10
9.53554e-10
2.71735e-18
1.44696e-09
-3.55807e-18
2.00314e-18
-3.71502e-18
2.84291e-19
-3.71926e-18
2.81933e-21
-3.65108e-18
-2.39965e-19
-3.5227e-18
-4.69427e-19
-3.33825e-18
-6.85094e-19
-3.1021e-18
-8.82771e-19
-2.81955e-18
-1.05906e-18
-2.49708e-18
-1.21068e-18
-2.14207e-18
-1.33464e-18
-1.76262e-18
-1.42868e-18
-1.36721e-18
-1.49139e-18
-9.64514e-19
-1.52228e-18
-5.63033e-19
-1.52183e-18
-1.70879e-19
-1.4914e-18
2.04476e-19
-1.43317e-18
5.56392e-19
-1.34999e-18
8.7921e-19
-1.24525e-18
1.16835e-18
-1.12269e-18
1.42034e-18
-9.86241e-19
1.63281e-18
-8.39817e-19
1.80443e-18
-6.87201e-19
1.93482e-18
-5.31906e-19
2.02441e-18
-3.77088e-19
2.07436e-18
-2.25489e-19
2.08639e-18
-7.9409e-20
2.06266e-18
5.92897e-20
2.00568e-18
1.89163e-19
1.91818e-18
3.09148e-19
1.80303e-18
4.18513e-19
1.66317e-18
5.16809e-19
1.50156e-18
6.03811e-19
1.32114e-18
6.79466e-19
1.12478e-18
7.43842e-19
9.15286e-19
7.97084e-19
6.95395e-19
8.39372e-19
4.6777e-19
8.7089e-19
2.35021e-19
8.91802e-19
9.02226e-19
-1.17665e-10
3.46223e-10
-2.42013e-10
5.25987e-10
-3.80686e-10
6.21216e-10
-4.76747e-10
7.83842e-10
-6.51497e-10
1.33879e-09
-8.63659e-10
1.561e-09
-9.7297e-10
1.45669e-09
-1.05631e-09
1.0559e-09
-1.15998e-09
7.86928e-10
-1.20819e-09
4.71255e-10
-1.1785e-09
1.9584e-10
-1.1286e-09
-5.41847e-10
-9.94346e-10
-1.02125e-09
-6.45009e-10
-1.16712e-09
-4.42269e-10
-1.17802e-09
-3.78031e-10
-1.09662e-09
-1.54627e-10
-1.28334e-09
7.77745e-11
-1.7355e-09
2.83813e-10
-1.77195e-09
6.29601e-10
-1.78346e-09
9.68689e-10
-1.67147e-09
1.1797e-09
-1.51881e-09
1.41113e-09
-1.57024e-09
1.58141e-09
-1.49383e-09
1.77473e-09
-1.35425e-09
2.33218e-09
-1.27607e-09
2.42765e-09
-1.01654e-09
2.62765e-09
-1.67267e-09
2.84264e-09
-1.18974e-09
2.85984e-09
-7.1663e-10
2.99074e-09
-7.54869e-10
3.25675e-09
-1.0372e-09
3.48424e-09
-1.06975e-09
3.63993e-09
-7.88633e-10
3.88973e-09
-3.60552e-10
4.06545e-09
-3.17069e-10
4.01256e-09
9.08614e-11
4.0572e-09
2.26798e-10
4.06599e-09
4.36346e-10
3.99636e-09
6.81675e-10
3.99084e-09
8.2113e-10
3.93793e-09
9.54677e-10
3.84933e-09
1.03908e-09
3.73501e-09
1.08283e-09
3.58821e-09
1.07956e-09
3.41595e-09
1.06295e-09
3.30026e-09
9.7007e-10
3.09594e-09
8.73987e-10
2.90784e-09
7.33389e-10
2.67703e-09
5.84354e-10
2.51463e-09
4.61347e-10
2.40196e-09
3.11195e-10
2.26663e-09
2.59497e-10
2.06035e-09
2.94509e-10
1.91723e-09
1.8662e-10
1.82945e-09
3.48453e-11
1.72904e-09
-4.48211e-11
1.7028e-09
-9.23966e-11
1.62775e-09
1.25004e-10
1.4986e-09
3.62803e-10
1.35063e-09
5.93377e-10
1.2996e-09
5.60433e-10
1.33002e-09
5.37344e-10
1.36332e-09
4.4072e-10
1.447e-09
4.4803e-10
1.51095e-09
2.26928e-10
1.60051e-09
-1.40257e-10
1.60306e-09
-3.16708e-10
1.63245e-09
-4.23336e-10
1.65971e-09
-3.24963e-10
1.62363e-09
-2.4562e-10
1.62525e-09
-2.24041e-10
1.53382e-09
9.06542e-11
1.46434e-09
1.56999e-10
1.3168e-09
4.38878e-10
1.05049e-09
5.51581e-10
9.66425e-10
6.88619e-10
7.08891e-10
7.73506e-10
4.7269e-10
1.0025e-09
2.38092e-10
1.18815e-09
-2.10206e-16
1.68505e-09
-4.08873e-18
1.50871e-18
-3.99541e-18
1.90435e-19
-3.96103e-18
-3.23808e-20
-3.87958e-18
-3.22776e-19
-3.73745e-18
-6.13409e-19
-3.53567e-18
-8.8916e-19
-3.27838e-18
-1.14273e-18
-2.97117e-18
-1.36929e-18
-2.62104e-18
-1.56414e-18
-2.23611e-18
-1.72317e-18
-1.82532e-18
-1.84328e-18
-1.39811e-18
-1.92257e-18
-9.64066e-19
-1.96042e-18
-5.32603e-19
-1.95748e-18
-1.12643e-19
-1.91561e-18
2.87657e-19
-1.83773e-18
6.61131e-19
-1.72771e-18
1.00176e-18
-1.59008e-18
1.3048e-18
-1.42982e-18
1.56676e-18
-1.25213e-18
1.78542e-18
-1.06219e-18
1.95972e-18
-8.64936e-19
2.08963e-18
-6.64939e-19
2.17601e-18
-4.6626e-19
2.22044e-18
-2.72388e-19
2.22509e-18
-8.62114e-20
2.19254e-18
8.99702e-20
2.12567e-18
2.54412e-19
2.02754e-18
4.05866e-19
1.90132e-18
5.43514e-19
1.75017e-18
6.66894e-19
1.57722e-18
7.75824e-19
1.38552e-18
8.70332e-19
1.17802e-18
9.50588e-19
9.57574e-19
1.01685e-18
7.26913e-19
1.0694e-18
4.88682e-19
1.10852e-18
2.45445e-19
1.13446e-18
1.14738e-18
-1.05691e-10
4.51915e-10
-2.29085e-10
6.49384e-10
-5.14476e-10
9.0661e-10
-8.17284e-10
1.08665e-09
-8.09921e-10
1.33143e-09
-8.19961e-10
1.57104e-09
-9.50579e-10
1.58731e-09
-9.91308e-10
1.09663e-09
-8.87823e-10
6.83446e-10
-8.58455e-10
4.41889e-10
-8.79806e-10
2.17193e-10
-7.91346e-10
-6.30304e-10
-5.95688e-10
-1.21691e-09
-4.21306e-10
-1.3415e-09
-2.29932e-10
-1.3694e-09
-1.91288e-10
-1.13527e-09
7.09319e-11
-1.54556e-09
2.6204e-10
-1.9266e-09
3.95844e-10
-1.90575e-09
5.33999e-10
-1.92162e-09
8.10367e-10
-1.94784e-09
1.13199e-09
-1.84044e-09
1.36776e-09
-1.806e-09
1.56897e-09
-1.69505e-09
1.74265e-09
-1.52792e-09
1.92661e-09
-1.46003e-09
2.09267e-09
-1.1826e-09
2.17758e-09
-1.75757e-09
2.51546e-09
-1.52762e-09
2.74395e-09
-9.45122e-10
2.8737e-09
-8.84619e-10
3.0692e-09
-1.23271e-09
3.17294e-09
-1.17349e-09
3.2968e-09
-9.12498e-10
3.60483e-09
-6.68581e-10
3.77231e-09
-4.84541e-10
3.81984e-09
4.3327e-11
3.85694e-09
1.89703e-10
3.84964e-09
4.43646e-10
3.75839e-09
7.72918e-10
3.76496e-09
8.14568e-10
3.75582e-09
9.63818e-10
3.68678e-09
1.10811e-09
3.58872e-09
1.18089e-09
3.45316e-09
1.21512e-09
3.33914e-09
1.17696e-09
3.19778e-09
1.11144e-09
3.01954e-09
1.05223e-09
2.84096e-09
9.11969e-10
2.66912e-09
7.56191e-10
2.50594e-09
6.24529e-10
2.38611e-09
4.31019e-10
2.2589e-09
3.86714e-10
2.09171e-09
4.61698e-10
2.00184e-09
2.7649e-10
1.93236e-09
1.04328e-10
1.83704e-09
5.05029e-11
1.76118e-09
-1.6536e-11
1.69926e-09
1.8692e-10
1.5036e-09
5.58467e-10
1.39422e-09
7.02755e-10
1.41281e-09
5.41845e-10
1.46935e-09
4.80806e-10
1.53585e-09
3.74222e-10
1.69873e-09
2.85148e-10
1.71308e-09
2.12573e-10
1.77111e-09
-1.98283e-10
1.77389e-09
-3.19487e-10
1.73774e-09
-3.87183e-10
1.817e-09
-4.04228e-10
1.77358e-09
-2.02197e-10
1.66484e-09
-1.15299e-10
1.56417e-09
1.91323e-10
1.44647e-09
2.74698e-10
1.26729e-09
6.18053e-10
1.16816e-09
6.50718e-10
1.06675e-09
7.90023e-10
8.16832e-10
1.02343e-09
5.74566e-10
1.24477e-09
3.64761e-10
1.39796e-09
-4.43843e-17
2.04981e-09
-3.87361e-18
3.56341e-18
-4.21714e-18
5.33452e-19
-4.2504e-18
1.26313e-22
-4.16926e-18
-4.05042e-19
-4.01231e-18
-7.71907e-19
-3.78907e-18
-1.11438e-18
-3.50494e-18
-1.42923e-18
-3.16603e-18
-1.71094e-18
-2.78007e-18
-1.95315e-18
-2.35622e-18
-2.15034e-18
-1.90461e-18
-2.29843e-18
-1.43596e-18
-2.39496e-18
-9.61125e-19
-2.43915e-18
-4.90727e-19
-2.4319e-18
-3.4772e-20
-2.37568e-18
3.97677e-19
-2.27438e-18
7.98763e-19
-2.13305e-18
1.16202e-18
-1.9576e-18
1.48249e-18
-1.7545e-18
1.75671e-18
-1.53045e-18
1.98268e-18
-1.29206e-18
2.15972e-18
-1.04563e-18
2.28831e-18
-7.96865e-19
2.36988e-18
-5.5082e-19
2.40662e-18
-3.11759e-19
2.40127e-18
-8.31565e-20
2.35698e-18
1.32284e-19
2.27712e-18
3.32569e-19
2.16519e-18
5.16333e-19
2.0247e-18
6.82744e-19
1.8591e-18
8.31402e-19
1.67173e-18
9.62241e-19
1.46577e-18
1.07544e-18
1.24428e-18
1.17132e-18
1.01013e-18
1.25031e-18
7.66038e-19
1.31285e-18
5.14618e-19
1.35934e-18
2.58367e-19
1.39013e-18
1.40546e-18
-1.28284e-10
5.802e-10
-2.45031e-10
7.66135e-10
-3.17805e-10
9.79387e-10
-4.0997e-10
1.17882e-09
-5.67579e-10
1.48904e-09
-6.27446e-10
1.63091e-09
-5.69759e-10
1.52962e-09
-6.10178e-10
1.13705e-09
-7.41896e-10
8.15167e-10
-7.4557e-10
4.45565e-10
-7.89892e-10
2.61517e-10
-7.52155e-10
-6.6804e-10
-7.27916e-10
-1.24115e-09
-7.22036e-10
-1.34738e-09
-6.27429e-10
-1.464e-09
-2.69915e-10
-1.49278e-09
1.53996e-11
-1.83087e-09
1.01967e-10
-2.01317e-09
3.10885e-10
-2.11467e-09
5.55381e-10
-2.16611e-09
7.41339e-10
-2.1338e-09
9.90836e-10
-2.08993e-09
1.18031e-09
-1.99547e-09
1.35586e-09
-1.8706e-09
1.58624e-09
-1.7583e-09
1.71622e-09
-1.59001e-09
1.98599e-09
-1.45237e-09
1.95806e-09
-1.72964e-09
2.17584e-09
-1.7454e-09
2.48011e-09
-1.24939e-09
2.86079e-09
-1.2653e-09
3.08879e-09
-1.4607e-09
2.98095e-09
-1.06565e-09
3.25002e-09
-1.18156e-09
3.40422e-09
-8.22784e-10
3.4107e-09
-4.91018e-10
3.57108e-09
-1.17059e-10
3.61482e-09
1.45963e-10
3.62097e-09
4.37505e-10
3.61303e-09
7.80856e-10
3.56359e-09
8.64005e-10
3.469e-09
1.05841e-09
3.39602e-09
1.18109e-09
3.33989e-09
1.23703e-09
3.26583e-09
1.28917e-09
3.17043e-09
1.27236e-09
3.02311e-09
1.25877e-09
2.87844e-09
1.19689e-09
2.73608e-09
1.05433e-09
2.60211e-09
8.90157e-10
2.42385e-09
8.02797e-10
2.32419e-09
5.30675e-10
2.20063e-09
5.1028e-10
2.06774e-09
5.94584e-10
2.01677e-09
3.27457e-10
1.94747e-09
1.73636e-10
1.87518e-09
1.22794e-10
1.75921e-09
9.9429e-11
1.6199e-09
3.26236e-10
1.50284e-09
6.75523e-10
1.55277e-09
6.52827e-10
1.607e-09
4.87616e-10
1.61939e-09
4.68411e-10
1.65384e-09
3.3978e-10
1.73046e-09
2.08527e-10
1.84915e-09
9.38821e-11
1.89812e-09
-2.47253e-10
1.93854e-09
-3.59907e-10
1.8625e-09
-3.11138e-10
1.91922e-09
-4.60957e-10
1.87017e-09
-1.53142e-10
1.67673e-09
7.81456e-11
1.62034e-09
2.47711e-10
1.42057e-09
4.74467e-10
1.38811e-09
6.50513e-10
1.12877e-09
9.10059e-10
8.54505e-10
1.06429e-09
5.70008e-10
1.30793e-09
3.52349e-10
1.46242e-09
2.48749e-10
1.50156e-09
-2.17813e-16
2.29856e-09
-4.99852e-18
2.72258e-18
-4.74933e-18
2.83949e-19
-4.65453e-18
-9.5208e-20
-4.53517e-18
-5.25312e-19
-4.3539e-18
-9.5446e-19
-4.10383e-18
-1.36612e-18
-3.78665e-18
-1.74848e-18
-3.40823e-18
-2.09178e-18
-2.97726e-18
-2.38686e-18
-2.50431e-18
-2.62631e-18
-2.00114e-18
-2.80487e-18
-1.48015e-18
-2.91942e-18
-9.53873e-19
-2.96907e-18
-4.34511e-19
-2.95507e-18
6.6526e-20
-2.88067e-18
5.39012e-19
-2.75095e-18
9.74216e-19
-2.57243e-18
1.36512e-18
-2.35274e-18
1.70654e-18
-2.10017e-18
1.99509e-18
-1.82319e-18
2.22911e-18
-1.53014e-18
2.40848e-18
-1.22882e-18
2.53436e-18
-9.26275e-19
2.60894e-18
-6.28593e-19
2.63522e-18
-3.40853e-19
2.61671e-18
-6.70937e-20
2.55726e-18
1.89629e-19
2.46089e-18
4.27151e-19
2.3316e-18
6.44083e-19
2.17336e-18
8.39677e-19
1.98994e-18
1.01369e-18
1.78492e-18
1.16628e-18
1.56166e-18
1.29784e-18
1.32327e-18
1.40894e-18
1.07266e-18
1.50023e-18
8.1253e-19
1.57234e-18
5.45408e-19
1.62586e-18
2.73697e-19
1.66126e-18
1.67887e-18
-1.94884e-10
7.75085e-10
-2.90927e-10
8.62182e-10
-3.11914e-10
1.00038e-09
-3.75769e-10
1.24268e-09
-4.4865e-10
1.56192e-09
-5.22363e-10
1.70463e-09
-6.49682e-10
1.65695e-09
-7.05862e-10
1.19323e-09
-6.15234e-10
7.24542e-10
-6.39101e-10
4.69435e-10
-7.00633e-10
3.23051e-10
-7.41971e-10
-6.26699e-10
-7.95501e-10
-1.18761e-09
-7.49479e-10
-1.3934e-09
-5.0526e-10
-1.70822e-09
-1.70272e-10
-1.82777e-09
2.46031e-11
-2.02575e-09
1.40843e-10
-2.12941e-09
1.77691e-10
-2.15152e-09
3.8842e-10
-2.37684e-09
6.60863e-10
-2.40624e-09
8.27033e-10
-2.2561e-09
9.73516e-10
-2.14195e-09
1.04894e-09
-1.94602e-09
1.29863e-09
-2.008e-09
1.52042e-09
-1.81179e-09
1.74968e-09
-1.68163e-09
1.70116e-09
-1.68112e-09
1.93656e-09
-1.9808e-09
2.34298e-09
-1.65581e-09
2.42197e-09
-1.34429e-09
2.46341e-09
-1.50214e-09
2.67865e-09
-1.28089e-09
2.89964e-09
-1.40255e-09
3.0384e-09
-9.61545e-10
3.19026e-09
-6.42873e-10
3.23306e-09
-1.59856e-10
3.24319e-09
1.35829e-10
3.23419e-09
4.46502e-10
3.26241e-09
7.52639e-10
3.19977e-09
9.26646e-10
3.16011e-09
1.09807e-09
3.08662e-09
1.25458e-09
3.03374e-09
1.28991e-09
2.99813e-09
1.32478e-09
2.95526e-09
1.31523e-09
2.88909e-09
1.32494e-09
2.76751e-09
1.31847e-09
2.61879e-09
1.20306e-09
2.44025e-09
1.0687e-09
2.31663e-09
9.2642e-10
2.20364e-09
6.43659e-10
2.01953e-09
6.94399e-10
1.89001e-09
7.24104e-10
1.89507e-09
3.22392e-10
1.87058e-09
1.98132e-10
1.81138e-09
1.8199e-10
1.66874e-09
2.42066e-10
1.50692e-09
4.88059e-10
1.51622e-09
6.66217e-10
1.54744e-09
6.21613e-10
1.61032e-09
4.2474e-10
1.68157e-09
3.97152e-10
1.76229e-09
2.59061e-10
1.86861e-09
1.02211e-10
1.99833e-09
-3.5839e-11
2.03494e-09
-2.83866e-10
2.03607e-09
-3.61039e-10
1.9743e-09
-2.49364e-10
1.86545e-09
-3.5211e-10
1.78984e-09
-7.75288e-11
1.62211e-09
2.45873e-10
1.55375e-09
3.16079e-10
1.38242e-09
6.4579e-10
1.23895e-09
7.93985e-10
1.15837e-09
9.90637e-10
1.06415e-09
1.15851e-09
8.90477e-10
1.4816e-09
7.40361e-10
1.61254e-09
4.32323e-10
1.8096e-09
-3.52098e-16
2.73088e-09
-5.0888e-18
3.33765e-18
-5.12735e-18
3.22315e-19
-5.08359e-18
-1.3923e-19
-4.96337e-18
-6.46214e-19
-4.76482e-18
-1.15407e-18
-4.48619e-18
-1.64618e-18
-4.12996e-18
-2.1065e-18
-3.70331e-18
-2.52058e-18
-3.21672e-18
-2.8759e-18
-2.68287e-18
-3.16292e-18
-2.11569e-18
-3.37504e-18
-1.5298e-18
-3.50853e-18
-9.39868e-19
-3.56241e-18
-3.60116e-19
-3.53841e-18
1.96252e-19
-3.4408e-18
7.17528e-19
-3.27614e-18
1.1939e-18
-3.05286e-18
1.6177e-18
-2.78071e-18
1.98351e-18
-2.47021e-18
2.28814e-18
-2.13205e-18
2.53043e-18
-1.77658e-18
2.71103e-18
-1.41339e-18
2.83204e-18
-1.05099e-18
2.89668e-18
-6.96607e-19
2.90898e-18
-3.56144e-19
2.87343e-18
-3.41558e-20
2.79479e-18
2.66037e-19
2.67782e-18
5.42213e-19
2.5272e-18
7.93087e-19
2.34738e-18
1.01812e-18
2.14252e-18
1.21738e-18
1.91648e-18
1.39131e-18
1.67276e-18
1.54067e-18
1.41456e-18
1.66636e-18
1.14478e-18
1.7693e-18
8.66049e-19
1.85041e-18
5.80806e-19
1.91049e-18
2.91309e-19
1.95016e-18
1.96988e-18
1.49599e-11
7.60127e-10
-6.58281e-11
9.42974e-10
-1.71557e-10
1.10611e-09
-3.09716e-10
1.38084e-09
-3.4005e-10
1.59226e-09
-3.29218e-10
1.6938e-09
-3.12025e-10
1.63976e-09
-3.84527e-10
1.26574e-09
-5.04085e-10
8.44102e-10
-5.47317e-10
5.12669e-10
-6.07298e-10
3.83035e-10
-7.35298e-10
-4.98697e-10
-7.95009e-10
-1.1279e-09
-7.30837e-10
-1.45757e-09
-5.56059e-10
-1.88299e-09
-2.77204e-10
-2.10662e-09
-1.17468e-10
-2.18548e-09
-5.57979e-11
-2.19108e-09
1.06648e-10
-2.31396e-09
3.11472e-10
-2.58166e-09
5.23917e-10
-2.61868e-09
6.91679e-10
-2.42386e-09
8.58633e-10
-2.30891e-09
1.07405e-09
-2.16143e-09
1.17169e-09
-2.10564e-09
1.32361e-09
-1.96371e-09
1.51888e-09
-1.8769e-09
1.56863e-09
-1.73087e-09
1.54823e-09
-1.9604e-09
1.86444e-09
-1.97202e-09
2.34637e-09
-1.82622e-09
2.43452e-09
-1.59029e-09
2.69488e-09
-1.54125e-09
2.6425e-09
-1.35017e-09
2.63329e-09
-9.52329e-10
2.87239e-09
-8.81977e-10
2.86726e-09
-1.5472e-10
2.84039e-09
1.62699e-10
2.8028e-09
4.8409e-10
2.81833e-09
7.37113e-10
2.78234e-09
9.62629e-10
2.75737e-09
1.12304e-09
2.6614e-09
1.35056e-09
2.61872e-09
1.33258e-09
2.56799e-09
1.37551e-09
2.43311e-09
1.45011e-09
2.3133e-09
1.44475e-09
2.26765e-09
1.36412e-09
2.24875e-09
1.22196e-09
2.18997e-09
1.12747e-09
2.11034e-09
1.00605e-09
1.93106e-09
8.22937e-10
1.78477e-09
8.40685e-10
1.78245e-09
7.26431e-10
1.73031e-09
3.74525e-10
1.67721e-09
2.51233e-10
1.57692e-09
2.82285e-10
1.41383e-09
4.05157e-10
1.35982e-09
5.42062e-10
1.42117e-09
6.04867e-10
1.50553e-09
5.3726e-10
1.57211e-09
3.58159e-10
1.71856e-09
2.50697e-10
1.85188e-09
1.25745e-10
2.00927e-09
-5.51803e-11
2.13001e-09
-1.56574e-10
2.09672e-09
-2.50585e-10
2.00735e-09
-2.71666e-10
1.885e-09
-1.27015e-10
1.81422e-09
-2.81324e-10
1.60127e-09
1.35418e-10
1.504e-09
3.43148e-10
1.31964e-09
5.00432e-10
1.1995e-09
7.65937e-10
1.07782e-09
9.15665e-10
9.81041e-10
1.08741e-09
7.9382e-10
1.34573e-09
7.49804e-10
1.52562e-09
7.66838e-10
1.59551e-09
5.2675e-10
2.04968e-09
-3.11644e-16
3.25763e-09
-5.22716e-18
6.03433e-18
-5.58773e-18
6.82779e-19
-5.58952e-18
-1.37581e-19
-5.47028e-18
-7.65993e-19
-5.25633e-18
-1.36895e-18
-4.9465e-18
-1.95729e-18
-4.54404e-18
-2.51058e-18
-4.05862e-18
-3.00796e-18
-3.50374e-18
-3.43305e-18
-2.89499e-18
-3.7742e-18
-2.24919e-18
-4.02364e-18
-1.58368e-18
-4.17704e-18
-9.15864e-19
-4.23343e-18
-2.62505e-19
-4.19515e-18
3.6091e-19
-4.06778e-18
9.40812e-19
-3.85978e-18
1.46605e-18
-3.582e-18
1.9282e-18
-3.2469e-18
2.32167e-18
-2.86782e-18
2.64361e-18
-2.45818e-18
2.89362e-18
-2.03076e-18
3.07343e-18
-1.59725e-18
3.18642e-18
-1.1678e-18
3.23715e-18
-7.50859e-19
3.23097e-18
-3.53123e-19
3.17363e-18
2.04195e-20
3.07096e-18
3.66318e-19
2.92869e-18
6.8246e-19
2.75224e-18
9.67831e-19
2.54663e-18
1.22229e-18
2.31646e-18
1.44632e-18
2.06584e-18
1.64088e-18
1.79844e-18
1.80716e-18
1.51751e-18
1.94649e-18
1.22589e-18
2.0602e-18
9.26121e-19
2.14951e-18
6.2048e-19
2.2155e-18
3.1103e-19
2.25901e-18
2.28061e-18
1.51671e-11
7.44962e-10
-1.07627e-10
1.06577e-09
-1.85826e-10
1.18431e-09
-2.11857e-10
1.40687e-09
-2.21077e-10
1.60148e-09
-2.22201e-10
1.69492e-09
-2.51632e-10
1.66919e-09
-2.95042e-10
1.30915e-09
-3.2928e-10
8.78343e-10
-3.76941e-10
5.60334e-10
-3.80485e-10
3.86582e-10
-6.47576e-10
-2.31603e-10
-7.51352e-10
-1.02412e-09
-6.95363e-10
-1.51356e-09
-5.43132e-10
-2.03522e-09
-3.45719e-10
-2.30403e-09
-2.02214e-10
-2.32898e-09
-1.25801e-10
-2.26749e-09
-3.21621e-11
-2.4076e-09
8.80842e-11
-2.70191e-09
2.40003e-10
-2.7706e-09
4.87237e-10
-2.67109e-09
6.21913e-10
-2.44358e-09
8.10185e-10
-2.34971e-09
9.34775e-10
-2.23023e-09
1.09754e-09
-2.12647e-09
1.30317e-09
-2.08254e-09
1.52281e-09
-1.95051e-09
1.53608e-09
-1.97367e-09
1.54047e-09
-1.9764e-09
1.69399e-09
-1.97974e-09
1.93208e-09
-1.82838e-09
2.07364e-09
-1.6828e-09
2.03627e-09
-1.31281e-09
2.0893e-09
-1.00535e-09
2.20193e-09
-9.94603e-10
2.22086e-09
-1.73651e-10
2.19819e-09
1.85362e-10
2.17932e-09
5.02965e-10
2.24379e-09
6.7264e-10
2.34653e-09
8.59887e-10
2.3592e-09
1.11038e-09
2.33958e-09
1.37018e-09
2.31584e-09
1.35632e-09
2.22001e-09
1.47135e-09
2.13734e-09
1.53278e-09
2.19637e-09
1.38572e-09
2.18656e-09
1.37394e-09
2.00427e-09
1.40424e-09
1.87005e-09
1.26169e-09
1.80787e-09
1.06824e-09
1.61757e-09
1.01324e-09
1.55848e-09
8.9977e-10
1.5927e-09
6.92213e-10
1.51653e-09
4.50697e-10
1.35721e-09
4.10551e-10
1.19871e-09
4.40783e-10
1.12523e-09
4.78636e-10
1.20015e-09
4.67145e-10
1.31192e-09
4.93098e-10
1.50528e-09
3.43901e-10
1.61391e-09
2.49526e-10
1.77757e-09
8.70387e-11
1.94585e-09
-4.25392e-11
2.05327e-09
-1.62599e-10
2.12153e-09
-2.24831e-10
2.05757e-09
-1.86629e-10
1.98584e-09
-1.99934e-10
1.83003e-09
2.87921e-11
1.57217e-09
-2.34622e-11
1.4144e-09
2.93191e-10
1.30672e-09
4.5083e-10
1.17346e-09
6.3369e-10
1.11136e-09
8.28033e-10
1.0276e-09
9.99426e-10
8.81214e-10
1.2338e-09
7.73636e-10
1.45331e-09
5.12724e-10
1.78653e-09
2.37033e-10
1.8712e-09
2.23632e-10
2.06309e-09
-2.02569e-16
3.48127e-09
-7.02081e-18
4.92464e-18
-6.40685e-18
6.87681e-20
-6.21686e-18
-3.27788e-19
-6.07231e-18
-9.11157e-19
-5.84423e-18
-1.59799e-18
-5.49979e-18
-2.30302e-18
-5.04143e-18
-2.97053e-18
-4.48371e-18
-3.56756e-18
-3.84488e-18
-4.07405e-18
-3.14443e-18
-4.47707e-18
-2.40259e-18
-4.76812e-18
-1.64007e-18
-4.94241e-18
-8.77587e-19
-4.99894e-18
-1.35132e-19
-4.94081e-18
5.68907e-19
-4.7752e-18
1.2186e-18
-4.51304e-18
1.80115e-18
-4.16828e-18
2.30728e-18
-3.75692e-18
2.73132e-18
-3.29588e-18
3.07102e-18
-2.80198e-18
3.32713e-18
-2.291e-18
3.50288e-18
-1.77706e-18
3.60336e-18
-1.27216e-18
3.63488e-18
-7.8602e-19
3.60451e-18
-3.26044e-19
3.51953e-18
1.02494e-19
3.3871e-18
4.9622e-19
3.21406e-18
8.53355e-19
3.00669e-18
1.17339e-18
2.77067e-18
1.45679e-18
2.51101e-18
1.70469e-18
2.23212e-18
1.91868e-18
1.93777e-18
2.10057e-18
1.63121e-18
2.25223e-18
1.3152e-18
2.37547e-18
9.9211e-19
2.47193e-18
6.63984e-19
2.543e-18
3.32632e-19
2.58975e-18
2.61294e-18