/*--------------------------------*- C++ -*----------------------------------*\
  =========                 |
  \\      /  F ield         | OpenFOAM: The Open Source CFD Toolbox
   \\    /   O peration     | Website:  https://openfoam.org
    \\  /    A nd           | Version:  6
     \\/     M anipulation  |
\*---------------------------------------------------------------------------*/
FoamFile
{
    version     2.0;
    format      ascii;
    class       volScalarField;
    location    "3600";
    object      T;
}
// * * * * * * * * * * * * * * * * * * * * * * * * * * * * * * * * * * * * * //

dimensions      [0 0 0 1 0 0 0];

internalField   nonuniform List<scalar> 
4800
(
552.47
552.31
552.149
551.989
551.829
551.672
551.519
551.374
551.238
551.112
550.996
550.889
550.791
550.7
550.616
550.537
550.463
550.393
550.326
550.263
550.202
550.144
550.087
550.033
549.98
549.928
549.878
549.83
549.784
549.74
549.696
549.653
549.611
549.57
549.528
549.487
549.444
549.401
549.355
549.306
549.254
549.199
549.14
549.077
549.011
548.942
548.869
548.793
548.715
548.634
548.552
548.468
548.383
548.297
548.21
548.123
548.035
547.947
547.857
547.767
547.675
547.583
547.489
547.395
547.301
547.207
547.113
547.019
546.924
546.828
546.729
546.626
546.519
546.406
546.287
546.163
546.031
545.895
545.753
545.608
545.46
545.313
545.168
545.025
544.885
544.747
544.611
544.477
544.345
544.215
544.086
543.959
543.832
543.707
543.583
543.459
543.336
543.214
543.093
542.972
542.851
542.731
542.611
542.492
542.373
542.254
542.136
542.017
541.899
541.781
541.664
541.546
541.429
541.311
541.194
541.077
540.96
540.843
540.726
540.609
552.47
552.309
552.148
551.988
551.829
551.672
551.521
551.377
551.242
551.117
551.001
550.894
550.796
550.704
550.619
550.539
550.464
550.392
550.325
550.26
550.198
550.139
550.081
550.026
549.972
549.92
549.87
549.821
549.775
549.73
549.686
549.643
549.601
549.56
549.519
549.478
549.437
549.394
549.349
549.301
549.25
549.196
549.138
549.076
549.01
548.941
548.868
548.792
548.714
548.633
548.55
548.466
548.38
548.293
548.206
548.118
548.03
547.941
547.852
547.762
547.67
547.578
547.485
547.391
547.298
547.204
547.111
547.017
546.922
546.826
546.727
546.624
546.516
546.403
546.285
546.16
546.028
545.892
545.75
545.604
545.456
545.309
545.164
545.022
544.882
544.744
544.608
544.475
544.343
544.213
544.084
543.957
543.83
543.705
543.581
543.458
543.335
543.213
543.092
542.971
542.85
542.73
542.611
542.491
542.372
542.254
542.135
542.017
541.899
541.781
541.663
541.546
541.428
541.311
541.194
541.077
540.96
540.842
540.725
540.608
552.47
552.309
552.148
551.988
551.83
551.675
551.526
551.384
551.25
551.126
551.01
550.902
550.803
550.711
550.624
550.542
550.464
550.391
550.321
550.254
550.19
550.128
550.069
550.012
549.957
549.904
549.853
549.803
549.755
549.709
549.665
549.622
549.581
549.54
549.5
549.46
549.419
549.377
549.334
549.288
549.239
549.186
549.13
549.069
549.005
548.936
548.863
548.788
548.709
548.628
548.544
548.459
548.373
548.285
548.197
548.109
548.02
547.931
547.841
547.751
547.66
547.568
547.476
547.383
547.291
547.198
547.105
547.012
546.917
546.821
546.722
546.618
546.511
546.397
546.278
546.153
546.022
545.885
545.743
545.597
545.449
545.302
545.157
545.015
544.875
544.738
544.603
544.469
544.338
544.208
544.08
543.953
543.827
543.702
543.578
543.455
543.333
543.211
543.09
542.969
542.849
542.729
542.609
542.49
542.371
542.253
542.134
542.016
541.898
541.78
541.663
541.545
541.428
541.311
541.193
541.076
540.959
540.842
540.725
540.608
552.469
552.308
552.148
551.99
551.834
551.681
551.534
551.394
551.261
551.137
551.021
550.913
550.812
550.717
550.628
550.544
550.463
550.386
550.313
550.243
550.177
550.112
550.051
549.991
549.934
549.88
549.826
549.775
549.726
549.679
549.634
549.591
549.549
549.509
549.47
549.431
549.392
549.352
549.31
549.266
549.219
549.168
549.114
549.055
548.992
548.924
548.853
548.777
548.699
548.617
548.533
548.448
548.361
548.273
548.184
548.094
548.004
547.915
547.825
547.735
547.644
547.553
547.462
547.371
547.279
547.187
547.095
547.002
546.908
546.812
546.712
546.609
546.501
546.387
546.268
546.143
546.011
545.874
545.732
545.586
545.439
545.291
545.147
545.005
544.865
544.728
544.594
544.461
544.33
544.201
544.074
543.947
543.822
543.698
543.574
543.451
543.329
543.208
543.087
542.966
542.846
542.727
542.607
542.488
542.37
542.251
542.133
542.015
541.897
541.779
541.662
541.545
541.427
541.31
541.193
541.076
540.959
540.842
540.725
540.608
552.47
552.31
552.151
551.994
551.839
551.689
551.544
551.405
551.274
551.15
551.033
550.924
550.821
550.724
550.631
550.544
550.46
550.379
550.302
550.229
550.159
550.091
550.026
549.964
549.904
549.847
549.792
549.738
549.688
549.64
549.594
549.55
549.508
549.469
549.431
549.393
549.355
549.317
549.277
549.234
549.189
549.141
549.088
549.031
548.97
548.904
548.833
548.759
548.681
548.599
548.515
548.429
548.341
548.253
548.163
548.073
547.982
547.892
547.803
547.713
547.623
547.533
547.443
547.353
547.263
547.172
547.08
546.988
546.894
546.797
546.698
546.594
546.486
546.373
546.253
546.128
545.996
545.859
545.717
545.571
545.424
545.277
545.132
544.99
544.852
544.716
544.582
544.45
544.321
544.192
544.066
543.94
543.815
543.691
543.568
543.446
543.325
543.204
543.083
542.963
542.843
542.724
542.605
542.486
542.368
542.249
542.131
542.013
541.896
541.778
541.661
541.544
541.426
541.309
541.192
541.076
540.959
540.842
540.725
540.608
552.471
552.312
552.154
551.998
551.846
551.697
551.554
551.417
551.287
551.163
551.045
550.934
550.829
550.729
550.633
550.542
550.454
550.37
550.289
550.211
550.136
550.065
549.997
549.931
549.868
549.808
549.75
549.694
549.642
549.593
549.546
549.501
549.459
549.419
549.382
549.345
549.309
549.272
549.234
549.194
549.151
549.104
549.053
548.998
548.938
548.874
548.805
548.731
548.653
548.572
548.488
548.402
548.314
548.224
548.134
548.044
547.953
547.863
547.774
547.685
547.595
547.506
547.417
547.328
547.239
547.15
547.059
546.967
546.873
546.776
546.677
546.574
546.466
546.353
546.233
546.108
545.977
545.84
545.698
545.553
545.406
545.258
545.113
544.972
544.835
544.7
544.567
544.437
544.308
544.181
544.055
543.931
543.807
543.684
543.562
543.44
543.319
543.198
543.078
542.959
542.839
542.72
542.602
542.483
542.365
542.247
542.129
542.011
541.894
541.777
541.66
541.542
541.425
541.309
541.192
541.075
540.958
540.842
540.725
540.608
552.471
552.315
552.159
552.006
551.855
551.708
551.567
551.431
551.301
551.176
551.057
550.944
550.835
550.732
550.632
550.537
550.446
550.358
550.272
550.19
550.111
550.036
549.963
549.894
549.827
549.764
549.703
549.644
549.589
549.538
549.49
549.444
549.402
549.362
549.325
549.289
549.255
549.22
549.183
549.145
549.103
549.058
549.009
548.955
548.897
548.834
548.766
548.693
548.616
548.535
548.451
548.365
548.277
548.187
548.097
548.006
547.916
547.826
547.737
547.649
547.561
547.473
547.385
547.297
547.209
547.12
547.03
546.939
546.845
546.749
546.65
546.547
546.44
546.327
546.208
546.084
545.953
545.816
545.675
545.53
545.382
545.234
545.09
544.95
544.814
544.68
544.55
544.421
544.294
544.168
544.044
543.92
543.797
543.675
543.554
543.433
543.312
543.192
543.073
542.954
542.835
542.716
542.598
542.48
542.362
542.244
542.127
542.009
541.892
541.775
541.658
541.541
541.424
541.308
541.191
541.074
540.958
540.841
540.725
540.608
552.473
552.318
552.165
552.014
551.865
551.72
551.58
551.444
551.314
551.189
551.069
550.953
550.841
550.734
550.631
550.533
550.437
550.344
550.254
550.167
550.083
550.003
549.926
549.853
549.782
549.715
549.651
549.589
549.531
549.478
549.428
549.381
549.338
549.298
549.261
549.226
549.193
549.159
549.124
549.087
549.047
549.004
548.956
548.904
548.847
548.785
548.718
548.646
548.57
548.489
548.405
548.319
548.231
548.141
548.051
547.96
547.871
547.781
547.693
547.606
547.519
547.432
547.345
547.258
547.171
547.083
546.994
546.903
546.81
546.714
546.616
546.514
546.407
546.295
546.177
546.054
545.924
545.788
545.648
545.502
545.355
545.206
545.062
544.923
544.789
544.658
544.529
544.402
544.277
544.153
544.03
543.908
543.786
543.665
543.544
543.424
543.305
543.185
543.066
542.948
542.829
542.711
542.593
542.476
542.358
542.241
542.124
542.007
541.89
541.773
541.656
541.539
541.423
541.306
541.19
541.073
540.957
540.841
540.724
540.608
552.474
552.322
552.171
552.022
551.876
551.733
551.594
551.459
551.329
551.202
551.08
550.962
550.848
550.738
550.631
550.528
550.428
550.33
550.235
550.143
550.055
549.97
549.888
549.81
549.735
549.664
549.596
549.531
549.47
549.413
549.361
549.313
549.269
549.228
549.191
549.157
549.124
549.091
549.058
549.022
548.983
548.941
548.895
548.844
548.787
548.726
548.66
548.589
548.513
548.433
548.35
548.263
548.175
548.086
547.996
547.906
547.816
547.728
547.64
547.554
547.468
547.382
547.297
547.211
547.125
547.038
546.95
546.86
546.768
546.673
546.575
546.474
546.368
546.257
546.141
546.018
545.889
545.754
545.614
545.469
545.321
545.17
545.028
544.891
544.76
544.632
544.506
544.382
544.259
544.137
544.015
543.894
543.774
543.654
543.534
543.415
543.296
543.178
543.059
542.941
542.824
542.706
542.589
542.471
542.354
542.237
542.12
542.004
541.887
541.77
541.654
541.538
541.421
541.305
541.189
541.073
540.956
540.84
540.724
540.608
552.475
552.326
552.178
552.031
551.886
551.745
551.607
551.473
551.343
551.216
551.093
550.973
550.856
550.743
550.632
550.525
550.42
550.317
550.217
550.12
550.026
549.936
549.85
549.767
549.687
549.611
549.539
549.47
549.405
549.345
549.29
549.24
549.195
549.154
549.116
549.082
549.049
549.017
548.984
548.949
548.911
548.87
548.825
548.775
548.72
548.659
548.594
548.523
548.448
548.368
548.285
548.199
548.111
548.022
547.932
547.843
547.754
547.666
547.58
547.494
547.41
547.325
547.241
547.156
547.071
546.985
546.898
546.809
546.718
546.624
546.528
546.428
546.324
546.214
546.1
545.978
545.85
545.715
545.574
545.427
545.278
545.127
544.986
544.853
544.726
544.602
544.48
544.359
544.239
544.119
543.999
543.88
543.76
543.642
543.523
543.405
543.287
543.169
543.052
542.934
542.817
542.7
542.583
542.466
542.35
542.233
542.117
542
541.884
541.768
541.652
541.536
541.42
541.304
541.188
541.072
540.956
540.84
540.724
540.608
552.477
552.33
552.184
552.04
551.897
551.758
551.621
551.487
551.357
551.23
551.106
550.985
550.866
550.75
550.636
550.524
550.414
550.306
550.201
550.098
549.999
549.904
549.812
549.724
549.639
549.558
549.481
549.408
549.339
549.276
549.218
549.165
549.118
549.076
549.038
549.003
548.97
548.938
548.905
548.87
548.833
548.793
548.748
548.698
548.644
548.584
548.518
548.448
548.373
548.294
548.211
548.126
548.039
547.95
547.861
547.772
547.684
547.597
547.512
547.427
547.343
547.26
547.176
547.093
547.009
546.924
546.838
546.751
546.661
546.569
546.475
546.377
546.274
546.167
546.054
545.934
545.807
545.673
545.53
545.38
545.227
545.072
544.935
544.809
544.689
544.57
544.453
544.335
544.217
544.099
543.982
543.864
543.746
543.629
543.511
543.394
543.277
543.16
543.043
542.927
542.81
542.694
542.577
542.461
542.345
542.229
542.113
541.997
541.881
541.765
541.649
541.534
541.418
541.302
541.186
541.071
540.955
540.839
540.724
540.608
552.478
552.333
552.19
552.048
551.907
551.769
551.634
551.501
551.372
551.245
551.121
550.999
550.878
550.759
550.642
550.525
550.411
550.298
550.187
550.079
549.974
549.873
549.775
549.682
549.592
549.506
549.424
549.346
549.273
549.205
549.143
549.088
549.039
548.996
548.956
548.92
548.887
548.853
548.82
548.785
548.748
548.709
548.664
548.615
548.56
548.5
548.435
548.365
548.29
548.211
548.129
548.044
547.958
547.87
547.782
547.694
547.607
547.521
547.437
547.353
547.27
547.187
547.105
547.022
546.939
546.856
546.772
546.686
546.599
546.509
546.417
546.321
546.221
546.116
546.005
545.887
545.761
545.626
545.48
545.325
545.163
544.998
544.872
544.759
544.649
544.537
544.424
544.31
544.195
544.08
543.964
543.848
543.731
543.615
543.499
543.383
543.267
543.15
543.034
542.919
542.803
542.687
542.571
542.456
542.34
542.224
542.109
541.993
541.878
541.762
541.647
541.531
541.416
541.3
541.185
541.069
540.954
540.839
540.723
540.608
552.479
552.337
552.195
552.055
551.917
551.781
551.647
551.515
551.386
551.26
551.135
551.013
550.891
550.77
550.649
550.529
550.41
550.292
550.176
550.062
549.95
549.843
549.74
549.64
549.545
549.454
549.367
549.284
549.207
549.135
549.07
549.011
548.959
548.913
548.872
548.835
548.8
548.765
548.731
548.696
548.658
548.618
548.574
548.525
548.47
548.41
548.345
548.274
548.2
548.121
548.039
547.955
547.869
547.782
547.695
547.609
547.523
547.439
547.355
547.271
547.189
547.107
547.026
546.944
546.863
546.781
546.699
546.615
546.53
546.443
546.353
546.26
546.163
546.06
545.952
545.836
545.711
545.576
545.428
545.265
545.083
544.885
544.794
544.706
544.609
544.505
544.397
544.286
544.173
544.06
543.945
543.831
543.716
543.601
543.486
543.371
543.255
543.14
543.025
542.91
542.795
542.68
542.565
542.45
542.335
542.22
542.104
541.989
541.874
541.759
541.644
541.529
541.414
541.299
541.183
541.068
540.953
540.838
540.723
540.608
552.48
552.34
552.201
552.063
551.926
551.792
551.659
551.529
551.401
551.275
551.151
551.028
550.905
550.782
550.658
550.534
550.41
550.287
550.166
550.046
549.928
549.814
549.705
549.6
549.499
549.403
549.311
549.224
549.142
549.066
548.997
548.934
548.879
548.831
548.787
548.748
548.711
548.674
548.639
548.603
548.565
548.523
548.478
548.428
548.373
548.312
548.247
548.176
548.102
548.023
547.941
547.858
547.773
547.687
547.601
547.516
547.432
547.349
547.266
547.183
547.102
547.021
546.94
546.86
546.78
546.7
546.62
546.539
546.457
546.372
546.286
546.195
546.101
546.002
545.896
545.783
545.66
545.527
545.378
545.207
544.993
544.666
544.713
544.66
544.575
544.476
544.371
544.262
544.152
544.04
543.927
543.814
543.7
543.586
543.472
543.358
543.244
543.13
543.015
542.901
542.787
542.672
542.558
542.444
542.329
542.214
542.1
541.985
541.871
541.756
541.641
541.526
541.412
541.297
541.182
541.067
540.952
540.837
540.722
540.607
552.481
552.343
552.206
552.07
551.935
551.802
551.672
551.543
551.416
551.291
551.166
551.043
550.919
550.793
550.667
550.539
550.411
550.283
550.156
550.03
549.907
549.787
549.671
549.56
549.454
549.353
549.257
549.165
549.078
548.998
548.925
548.859
548.8
548.748
548.702
548.66
548.62
548.581
548.544
548.506
548.466
548.424
548.378
548.327
548.27
548.209
548.143
548.072
547.997
547.918
547.837
547.754
547.67
547.585
547.501
547.417
547.334
547.252
547.17
547.088
547.008
546.928
546.849
546.77
546.692
546.614
546.536
546.458
546.378
546.297
546.214
546.127
546.036
545.94
545.838
545.728
545.61
545.48
545.338
545.178
545.001
544.823
544.732
544.647
544.553
544.453
544.348
544.24
544.131
544.02
543.908
543.796
543.684
543.571
543.458
543.345
543.232
543.119
543.005
542.892
542.778
542.665
542.551
542.437
542.323
542.209
542.095
541.981
541.867
541.753
541.638
541.524
541.409
541.295
541.18
541.066
540.951
540.837
540.722
540.607
552.482
552.346
552.211
552.077
551.944
551.813
551.684
551.557
551.431
551.307
551.183
551.058
550.933
550.806
550.676
550.545
550.413
550.28
550.148
550.016
549.887
549.761
549.639
549.523
549.412
549.306
549.204
549.107
549.017
548.932
548.855
548.785
548.722
548.666
548.616
548.571
548.528
548.487
548.447
548.407
548.366
548.322
548.274
548.222
548.164
548.101
548.034
547.963
547.888
547.809
547.728
547.645
547.561
547.478
547.394
547.312
547.23
547.149
547.068
546.987
546.908
546.829
546.752
546.674
546.598
546.523
546.447
546.372
546.295
546.217
546.137
546.055
545.968
545.876
545.778
545.673
545.56
545.437
545.303
545.158
545.007
544.861
544.745
544.641
544.538
544.433
544.327
544.219
544.11
544
543.89
543.779
543.667
543.556
543.444
543.332
543.22
543.107
542.995
542.882
542.77
542.657
542.544
542.431
542.317
542.204
542.09
541.977
541.863
541.749
541.635
541.521
541.407
541.293
541.179
541.064
540.95
540.836
540.722
540.607
552.483
552.349
552.216
552.084
551.953
551.825
551.697
551.572
551.447
551.323
551.199
551.074
550.948
550.819
550.688
550.553
550.417
550.28
550.142
550.005
549.869
549.737
549.61
549.488
549.371
549.26
549.154
549.054
548.959
548.87
548.789
548.714
548.647
548.587
548.532
548.483
548.437
548.393
548.35
548.307
548.264
548.217
548.168
548.114
548.055
547.991
547.922
547.85
547.775
547.696
547.615
547.532
547.449
547.366
547.284
547.202
547.121
547.04
546.96
546.881
546.803
546.726
546.65
546.574
546.5
546.427
546.354
546.281
546.208
546.134
546.058
545.979
545.896
545.809
545.716
545.617
545.509
545.393
545.269
545.138
545.002
544.868
544.746
544.632
544.523
544.415
544.307
544.199
544.09
543.981
543.871
543.761
543.65
543.54
543.429
543.318
543.207
543.096
542.984
542.873
542.761
542.649
542.536
542.424
542.311
542.198
542.086
541.972
541.859
541.746
541.632
541.519
541.405
541.291
541.177
541.063
540.949
540.835
540.721
540.607
552.484
552.352
552.221
552.091
551.963
551.836
551.71
551.586
551.463
551.339
551.216
551.091
550.963
550.833
550.7
550.563
550.423
550.282
550.139
549.996
549.855
549.717
549.583
549.455
549.332
549.216
549.107
549.003
548.904
548.812
548.725
548.646
548.574
548.509
548.45
548.396
548.347
548.299
548.253
548.207
548.161
548.112
548.06
548.004
547.944
547.878
547.809
547.735
547.659
547.58
547.499
547.417
547.334
547.252
547.17
547.089
547.008
546.928
546.85
546.771
546.694
546.618
546.544
546.471
546.399
546.328
546.257
546.187
546.117
546.047
545.974
545.9
545.822
545.74
545.652
545.558
545.457
545.349
545.234
545.112
544.987
544.859
544.736
544.62
544.507
544.397
544.288
544.179
544.07
543.961
543.852
543.743
543.633
543.524
543.414
543.304
543.194
543.084
542.974
542.863
542.752
542.641
542.529
542.417
542.305
542.193
542.081
541.968
541.855
541.742
541.629
541.516
541.402
541.289
541.175
541.062
540.948
540.834
540.721
540.607
552.485
552.355
552.226
552.098
551.972
551.847
551.723
551.601
551.478
551.355
551.232
551.106
550.978
550.847
550.711
550.572
550.429
550.284
550.137
549.99
549.843
549.7
549.56
549.425
549.297
549.176
549.062
548.954
548.852
548.756
548.666
548.582
548.505
548.435
548.371
548.313
548.259
548.207
548.157
548.109
548.059
548.007
547.953
547.895
547.833
547.766
547.694
547.62
547.543
547.464
547.383
547.301
547.219
547.136
547.055
546.974
546.894
546.815
546.737
546.66
546.584
546.509
546.436
546.365
546.294
546.226
546.158
546.091
546.024
545.957
545.888
545.818
545.745
545.667
545.585
545.497
545.403
545.302
545.194
545.081
544.964
544.841
544.719
544.602
544.488
544.377
544.267
544.158
544.049
543.941
543.832
543.724
543.616
543.508
543.399
543.29
543.182
543.072
542.963
542.853
542.743
542.632
542.522
542.411
542.299
542.188
542.076
541.964
541.851
541.739
541.626
541.513
541.4
541.287
541.174
541.061
540.947
540.834
540.72
540.607
552.486
552.359
552.232
552.106
551.981
551.857
551.735
551.614
551.492
551.37
551.246
551.12
550.991
550.859
550.722
550.581
550.435
550.287
550.137
549.985
549.834
549.685
549.539
549.398
549.264
549.138
549.019
548.908
548.803
548.704
548.61
548.522
548.44
548.365
548.296
548.232
548.173
548.117
548.064
548.012
547.959
547.904
547.848
547.788
547.723
547.655
547.582
547.507
547.429
547.349
547.269
547.187
547.105
547.023
546.941
546.86
546.781
546.702
546.625
546.549
546.473
546.4
546.328
546.258
546.189
546.122
546.057
545.992
545.928
545.864
545.799
545.733
545.664
545.593
545.516
545.434
545.346
545.252
545.151
545.046
544.935
544.818
544.697
544.581
544.467
544.355
544.245
544.136
544.027
543.92
543.812
543.705
543.598
543.491
543.384
543.276
543.168
543.06
542.952
542.843
542.734
542.624
542.514
542.404
542.293
542.182
542.071
541.959
541.847
541.735
541.623
541.511
541.398
541.285
541.172
541.059
540.946
540.833
540.72
540.607
552.487
552.362
552.237
552.112
551.989
551.867
551.746
551.625
551.504
551.382
551.258
551.131
551.001
550.868
550.73
550.588
550.44
550.289
550.137
549.982
549.826
549.671
549.52
549.373
549.233
549.1
548.977
548.862
548.755
548.654
548.557
548.465
548.379
548.298
548.224
548.155
548.091
548.031
547.973
547.918
547.862
547.804
547.746
547.684
547.618
547.548
547.475
547.398
547.32
547.24
547.159
547.078
546.995
546.913
546.832
546.751
546.672
546.593
546.516
546.44
546.366
546.293
546.222
546.153
546.085
546.02
545.956
545.893
545.831
545.77
545.709
545.646
545.581
545.515
545.443
545.367
545.286
545.198
545.104
545.005
544.9
544.788
544.671
544.556
544.443
544.331
544.221
544.112
544.005
543.898
543.792
543.686
543.58
543.474
543.368
543.262
543.155
543.048
542.941
542.833
542.725
542.616
542.507
542.397
542.287
542.177
542.066
541.955
541.844
541.732
541.62
541.508
541.396
541.283
541.171
541.058
540.945
540.832
540.719
540.606
552.488
552.365
552.242
552.119
551.997
551.876
551.755
551.634
551.513
551.39
551.265
551.136
551.005
550.871
550.733
550.589
550.44
550.286
550.131
549.974
549.815
549.655
549.5
549.348
549.202
549.063
548.934
548.815
548.706
548.603
548.505
548.41
548.32
548.235
548.156
548.082
548.013
547.949
547.887
547.828
547.769
547.709
547.649
547.586
547.518
547.449
547.374
547.298
547.219
547.139
547.058
546.977
546.895
546.812
546.731
546.65
546.57
546.492
546.414
546.339
546.264
546.192
546.121
546.052
545.985
545.92
545.857
545.796
545.736
545.677
545.618
545.558
545.497
545.434
545.368
545.298
545.222
545.141
545.054
544.962
544.863
544.756
544.642
544.528
544.416
544.305
544.196
544.087
543.981
543.875
543.77
543.665
543.561
543.457
543.352
543.247
543.142
543.036
542.93
542.823
542.716
542.608
542.5
542.391
542.281
542.172
542.061
541.951
541.84
541.729
541.617
541.506
541.394
541.282
541.169
541.057
540.944
540.832
540.719
540.606
552.489
552.368
552.246
552.125
552.004
551.882
551.761
551.639
551.516
551.392
551.264
551.133
550.999
550.864
550.726
550.58
550.427
550.271
550.114
549.956
549.795
549.633
549.476
549.323
549.172
549.027
548.892
548.769
548.656
548.552
548.452
548.356
548.263
548.174
548.091
548.013
547.94
547.871
547.806
547.743
547.681
547.619
547.558
547.495
547.427
547.357
547.284
547.208
547.13
547.051
546.97
546.889
546.807
546.725
546.644
546.563
546.482
546.403
546.325
546.248
546.173
546.1
546.029
545.96
545.893
545.828
545.765
545.704
545.644
545.586
545.528
545.471
545.412
545.353
545.291
545.226
545.157
545.082
545.002
544.916
544.823
544.721
544.61
544.499
544.387
544.277
544.168
544.061
543.955
543.851
543.747
543.645
543.542
543.439
543.336
543.233
543.129
543.025
542.92
542.814
542.707
542.6
542.493
542.385
542.276
542.167
542.057
541.947
541.837
541.726
541.615
541.503
541.392
541.28
541.168
541.056
540.943
540.831
540.719
540.606
552.49
552.37
552.25
552.13
552.009
551.886
551.763
551.638
551.513
551.385
551.253
551.117
550.98
550.842
550.702
550.556
550.401
550.241
550.082
549.924
549.762
549.601
549.444
549.293
549.142
548.993
548.853
548.723
548.605
548.499
548.399
548.302
548.207
548.116
548.03
547.949
547.872
547.799
547.73
547.664
547.599
547.536
547.475
547.411
547.344
547.276
547.205
547.131
547.055
546.978
546.899
546.819
546.738
546.657
546.575
546.494
546.412
546.331
546.252
546.173
546.097
546.023
545.951
545.881
545.813
545.748
545.684
545.621
545.561
545.502
545.444
545.388
545.331
545.275
545.216
545.156
545.091
545.023
544.95
544.87
544.784
544.687
544.579
544.468
544.357
544.246
544.138
544.032
543.928
543.825
543.724
543.623
543.522
543.421
543.32
543.219
543.116
543.013
542.909
542.805
542.699
542.593
542.486
542.379
542.271
542.162
542.053
541.943
541.833
541.723
541.612
541.501
541.39
541.278
541.167
541.055
540.943
540.831
540.718
540.606
552.491
552.373
552.253
552.133
552.011
551.887
551.76
551.631
551.499
551.366
551.228
551.086
550.942
550.8
550.658
550.512
550.355
550.192
550.033
549.878
549.718
549.557
549.403
549.256
549.11
548.961
548.817
548.681
548.557
548.446
548.345
548.249
548.154
548.063
547.976
547.893
547.813
547.736
547.664
547.593
547.526
547.462
547.4
547.338
547.274
547.208
547.14
547.07
546.998
546.923
546.847
546.77
546.692
546.612
546.531
546.448
546.364
546.281
546.198
546.118
546.04
545.964
545.891
545.822
545.753
545.687
545.622
545.558
545.495
545.434
545.376
545.319
545.264
545.207
545.15
545.093
545.033
544.97
544.902
544.828
544.747
544.655
544.553
544.438
544.324
544.213
544.105
544.001
543.898
543.798
543.699
543.601
543.502
543.404
543.304
543.205
543.104
543.002
542.899
542.796
542.691
542.586
542.48
542.373
542.266
542.158
542.049
541.94
541.83
541.72
541.61
541.499
541.388
541.277
541.165
541.054
540.942
540.83
540.718
540.606
552.491
552.374
552.255
552.134
552.009
551.881
551.749
551.612
551.472
551.331
551.186
551.036
550.882
550.733
550.589
550.442
550.285
550.119
549.961
549.813
549.659
549.5
549.348
549.207
549.07
548.928
548.784
548.645
548.513
548.396
548.294
548.201
548.107
548.018
547.934
547.852
547.771
547.691
547.614
547.537
547.465
547.4
547.338
547.278
547.217
547.156
547.093
547.026
546.958
546.886
546.814
546.744
546.67
546.594
546.512
546.427
546.337
546.252
546.163
546.082
546.002
545.928
545.855
545.788
545.721
545.655
545.592
545.527
545.464
545.402
545.347
545.284
545.23
545.167
545.108
545.05
544.993
544.933
544.868
544.798
544.719
544.633
544.547
544.408
544.287
544.175
544.069
543.966
543.867
543.77
543.674
543.578
543.482
543.386
543.289
543.191
543.092
542.992
542.89
542.788
542.684
542.58
542.474
542.368
542.261
542.154
542.046
541.937
541.827
541.718
541.608
541.497
541.386
541.275
541.164
541.053
540.941
540.83
540.718
540.606
552.491
552.373
552.253
552.129
551.999
551.864
551.723
551.576
551.425
551.276
551.123
550.963
550.797
550.64
550.494
550.347
550.188
550.019
549.863
549.723
549.578
549.428
549.283
549.148
549.022
548.89
548.753
548.614
548.478
548.354
548.251
548.166
548.066
547.982
547.905
547.828
547.751
547.669
547.592
547.501
547.422
547.353
547.292
547.233
547.177
547.12
547.061
546.993
546.93
546.859
546.789
546.735
546.667
546.599
546.513
546.426
546.318
546.238
546.131
546.064
545.981
545.913
545.84
545.785
545.722
545.663
545.612
545.546
545.492
545.433
545.406
545.315
545.259
545.179
545.117
545.049
544.995
544.939
544.872
544.798
544.712
544.618
544.507
544.37
544.243
544.132
544.027
543.928
543.832
543.739
543.647
543.555
543.462
543.369
543.274
543.178
543.081
542.982
542.882
542.78
542.678
542.574
542.469
542.364
542.257
542.15
542.042
541.934
541.825
541.716
541.606
541.496
541.385
541.274
541.163
541.052
540.941
540.829
540.717
540.606
552.49
552.37
552.244
552.113
551.975
551.829
551.677
551.517
551.353
551.195
551.037
550.866
550.686
550.517
550.368
550.219
550.061
549.892
549.741
549.613
549.482
549.347
549.211
549.081
548.961
548.837
548.707
548.582
548.452
548.323
548.222
548.156
548.058
547.969
547.892
547.807
547.736
547.659
547.58
547.487
547.404
547.329
547.255
547.183
547.115
547.051
546.994
546.934
546.875
546.815
546.762
546.703
546.646
546.584
546.503
546.416
546.322
546.237
546.144
546.068
545.992
545.922
545.861
545.807
545.762
545.68
545.643
545.591
545.572
545.521
545.471
545.423
545.351
545.275
545.241
545.139
545.121
545.097
545.029
544.882
544.732
544.586
544.49
544.29
544.183
544.083
543.979
543.885
543.795
543.708
543.62
543.532
543.442
543.352
543.26
543.166
543.07
542.973
542.874
542.774
542.672
542.569
542.465
542.36
542.254
542.147
542.04
541.932
541.823
541.714
541.604
541.494
541.384
541.273
541.162
541.051
540.94
540.829
540.717
540.606
552.487
552.36
552.224
552.079
551.925
551.766
551.6
551.429
551.258
551.096
550.934
550.753
550.551
550.364
550.206
550.051
549.896
549.733
549.588
549.469
549.362
549.245
549.137
549.012
548.898
548.767
548.639
548.526
548.416
548.313
548.224
548.165
548.079
547.991
547.896
547.801
547.73
547.666
547.594
547.507
547.419
547.339
547.246
547.149
547.049
546.965
546.894
546.822
546.764
546.703
546.665
546.628
546.606
546.557
546.504
546.418
546.358
546.266
546.194
546.132
546.076
546.009
545.929
545.864
545.815
545.725
545.663
545.587
545.553
545.469
545.408
545.317
545.258
545.19
545.117
545.06
545.019
544.991
544.936
544.845
544.727
544.603
544.486
544.25
544.141
544.012
543.919
543.836
543.756
543.675
543.593
543.509
543.424
543.337
543.247
543.155
543.061
542.965
542.868
542.768
542.667
542.565
542.461
542.357
542.251
542.145
542.038
541.93
541.821
541.712
541.603
541.493
541.383
541.272
541.162
541.051
540.94
540.828
540.717
540.606
552.482
552.341
552.187
552.016
551.842
551.673
551.503
551.327
551.165
551.013
550.848
550.652
550.415
550.189
550.004
549.822
549.685
549.542
549.4
549.249
549.144
549.071
548.983
548.905
548.808
548.714
548.591
548.497
548.397
548.289
548.216
548.154
548.075
547.973
547.86
547.77
547.704
547.651
547.567
547.485
547.389
547.301
547.213
547.089
546.986
546.875
546.796
546.713
546.642
546.582
546.571
546.557
546.567
546.516
546.455
546.356
546.298
546.238
546.195
546.11
546.077
545.976
545.916
545.828
545.769
545.672
545.591
545.51
545.442
545.362
545.286
545.207
545.145
545.086
545.03
544.975
544.93
544.886
544.836
544.774
544.695
544.593
544.401
544.127
544.064
543.957
543.857
543.785
543.717
543.645
543.567
543.487
543.406
543.323
543.236
543.147
543.054
542.959
542.863
542.764
542.663
542.562
542.458
542.354
542.249
542.143
542.036
541.928
541.82
541.711
541.602
541.492
541.382
541.272
541.161
541.05
540.939
540.828
540.717
540.606
552.471
552.308
552.125
551.912
551.718
551.576
551.432
551.24
551.105
550.988
550.799
550.577
550.324
550.057
549.773
549.559
549.411
549.274
549.061
548.882
548.788
548.769
548.776
548.753
548.709
548.652
548.546
548.469
548.369
548.231
548.167
548.115
548.038
547.947
547.795
547.717
547.631
547.609
547.52
547.478
547.402
547.327
547.237
547.087
546.984
546.844
546.763
546.645
546.589
546.548
546.52
546.515
546.537
546.489
546.447
546.361
546.31
546.245
546.198
546.112
546.045
545.949
545.87
545.775
545.686
545.584
545.489
545.396
545.31
545.226
545.151
545.08
545.025
544.976
544.933
544.893
544.852
544.81
544.765
544.71
544.635
544.477
544.297
544.074
543.978
543.887
543.817
543.737
543.681
543.619
543.543
543.466
543.391
543.312
543.228
543.14
543.049
542.955
542.859
542.761
542.661
542.559
542.456
542.352
542.247
542.141
542.035
541.927
541.819
541.71
541.601
541.492
541.382
541.271
541.161
541.05