0 	6.40498e-11 	0 	-1.77681e-10
0.010101 	1.3905e-09 	0 	3.44485e-11
0.020202 	7.4074e-11 	0 	4.3559e-12
0.030303 	4.08709e-12 	0 	2.45658e-13
0.040404 	2.38519e-13 	0 	1.16968e-14
0.0505051 	1.40641e-14 	0 	-2.1009e-15
0.0606061 	9.5397e-16 	0 	-2.9283e-15
0.0707071 	-5.76533e-16 	0 	-2.94302e-15
