/*--------------------------------*- C++ -*----------------------------------*\
  =========                 |
  \\      /  F ield         | OpenFOAM: The Open Source CFD Toolbox
   \\    /   O peration     | Website:  https://openfoam.org
    \\  /    A nd           | Version:  6
     \\/     M anipulation  |
\*---------------------------------------------------------------------------*/
FoamFile
{
    version     2.0;
    format      ascii;
    class       surfaceScalarField;
    location    "1200";
    object      phi;
}
// * * * * * * * * * * * * * * * * * * * * * * * * * * * * * * * * * * * * * //

dimensions      [0 3 -1 0 0 0 0];

internalField   nonuniform List<scalar> 
9440
(
-1.32477e-13
1.32477e-13
-2.64751e-13
1.30984e-13
-3.93708e-13
1.27922e-13
-5.18029e-13
1.2333e-13
-6.36342e-13
1.17332e-13
-7.47359e-13
1.10042e-13
-8.49945e-13
1.01618e-13
-9.43131e-13
9.22285e-14
-1.02612e-12
8.20379e-14
-1.09825e-12
7.11957e-14
-1.15908e-12
5.99134e-14
-1.20834e-12
4.83485e-14
-1.24594e-12
3.67033e-14
-1.27186e-12
2.50535e-14
-1.28646e-12
1.3745e-14
-1.29086e-12
3.56218e-15
-1.28586e-12
-5.818e-15
-1.26978e-12
-1.68683e-14
-1.24463e-12
-2.59117e-14
-1.21236e-12
-3.30067e-14
-1.1744e-12
-3.86694e-14
-1.12727e-12
-4.78203e-14
-1.07616e-12
-5.17645e-14
-1.02088e-12
-5.59028e-14
-9.61894e-13
-5.95791e-14
-9.00409e-13
-6.20472e-14
-8.37322e-13
-6.36157e-14
-7.73343e-13
-6.44726e-14
-7.09191e-13
-6.46127e-14
-6.4544e-13
-6.41754e-14
-5.82684e-13
-6.31438e-14
-5.21403e-13
-6.16332e-14
-4.62032e-13
-5.96849e-14
-4.04849e-13
-5.74578e-14
-3.5014e-13
-5.49455e-14
-2.98136e-13
-5.22051e-14
-2.48951e-13
-4.93445e-14
-2.02701e-13
-4.63702e-14
-1.59369e-13
-4.34118e-14
-1.18983e-13
-4.04301e-14
-8.1496e-14
-3.74915e-14
-4.68871e-14
-3.45726e-14
-1.49955e-14
-3.18149e-14
1.42304e-14
-2.91116e-14
4.09032e-14
-2.65186e-14
6.51934e-14
-2.40987e-14
8.72155e-14
-2.17896e-14
1.07047e-13
-1.95611e-14
1.24883e-13
-1.75276e-14
1.408e-13
-1.55685e-14
1.54945e-13
-1.37622e-14
1.67395e-13
-1.20292e-14
1.78236e-13
-1.03854e-14
1.87542e-13
-8.81715e-15
1.95343e-13
-7.27625e-15
2.01788e-13
-5.8867e-15
2.0686e-13
-4.4818e-15
2.10626e-13
-3.14487e-15
2.13109e-13
-1.83158e-15
2.14358e-13
-5.68691e-16
2.14393e-13
6.75697e-16
2.13262e-13
1.86604e-15
2.10996e-13
3.02888e-15
2.07621e-13
4.16429e-15
2.03183e-13
5.24979e-15
1.97806e-13
6.21345e-15
1.91523e-13
7.13936e-15
1.84427e-13
7.9707e-15
1.76741e-13
8.57973e-15
1.68583e-13
9.06811e-15
1.60243e-13
9.26654e-15
1.52082e-13
9.10252e-15
1.44809e-13
8.22773e-15
1.40002e-13
5.77399e-15
1.42001e-13
-1.02382e-15
1.63854e-13
-2.08689e-14
2.46867e-13
-8.20244e-14
1.03249e-13
1.44615e-13
-6.20132e-16
1.0487e-13
1.06397e-21
-8.57931e-20
1.64511e-21
-1.96972e-23
1.68512e-21
-3.9653e-23
1.80258e-21
-3.54654e-23
1.91808e-21
-2.46086e-23
2.02039e-21
-1.23043e-23
2.10709e-21
1.55096e-25
2.17688e-21
1.20975e-23
2.22992e-21
2.34713e-23
2.26642e-21
3.40178e-23
2.287e-21
4.36855e-23
2.29248e-21
5.2526e-23
2.28431e-21
6.04876e-23
2.26317e-21
6.7622e-23
2.23023e-21
7.37225e-23
2.18686e-21
7.89958e-23
2.13407e-21
8.35452e-23
2.07291e-21
8.73193e-23
2.00447e-21
9.03695e-23
1.93007e-21
9.27476e-23
1.8504e-21
9.45571e-23
1.7666e-21
9.59013e-23
1.67907e-21
9.66767e-23
1.58886e-21
9.7142e-23
1.49658e-21
9.73488e-23
1.4029e-21
9.72971e-23
1.30819e-21
9.68835e-23
1.21285e-21
9.63149e-23
1.11721e-21
9.55911e-23
1.02157e-21
9.48673e-23
9.26236e-22
9.39884e-23
8.31058e-22
9.31095e-23
7.36656e-22
9.22306e-23
6.42564e-22
9.14035e-23
5.49248e-22
9.0628e-23
4.56345e-22
8.98525e-23
3.64011e-22
8.92321e-23
2.72142e-22
8.856e-23
1.80687e-22
8.8043e-23
8.98008e-23
8.74744e-23
8.6337e-23
-1.3374e-13
2.64923e-13
-2.67906e-13
2.63089e-13
-3.98703e-13
2.56927e-13
-5.24646e-13
2.47518e-13
-6.44337e-13
2.35283e-13
-7.56551e-13
2.20533e-13
-8.60164e-13
2.03522e-13
-9.5418e-13
1.84551e-13
-1.03774e-12
1.63929e-13
-1.11027e-12
1.42079e-13
-1.17128e-12
1.19306e-13
-1.22054e-12
9.60244e-14
-1.2579e-12
7.25031e-14
-1.28341e-12
4.90362e-14
-1.29745e-12
2.63009e-14
-1.30169e-12
6.35801e-15
-1.29559e-12
-1.33229e-14
-1.27856e-12
-3.52623e-14
-1.25264e-12
-5.31492e-14
-1.2198e-12
-6.71081e-14
-1.18033e-12
-7.93524e-14
-1.13251e-12
-9.68092e-14
-1.08045e-12
-1.04931e-13
-1.0243e-12
-1.13099e-13
-9.64345e-13
-1.20534e-13
-9.02082e-13
-1.25247e-13
-8.38232e-13
-1.28341e-13
-7.73543e-13
-1.29972e-13
-7.08708e-13
-1.30197e-13
-6.44405e-13
-1.29164e-13
-5.81172e-13
-1.26995e-13
-5.19511e-13
-1.23849e-13
-4.59755e-13
-1.19924e-13
-4.02328e-13
-1.15302e-13
-3.47441e-13
-1.10182e-13
-2.95276e-13
-1.04647e-13
-2.45986e-13
-9.88426e-14
-1.99699e-13
-9.27956e-14
-1.5637e-13
-8.68102e-14
-1.16018e-13
-8.07803e-14
-7.86351e-14
-7.47995e-14
-4.40738e-14
-6.89898e-14
-1.23097e-14
-6.3365e-14
1.67793e-14
-5.79174e-14
4.33677e-14
-5.27531e-14
6.75126e-14
-4.78193e-14
8.93985e-14
-4.31835e-14
1.0915e-13
-3.87544e-14
1.26877e-13
-3.46269e-14
1.42687e-13
-3.06883e-14
1.56728e-13
-2.70449e-14
1.69065e-13
-2.35489e-14
1.798e-13
-2.02388e-14
1.89027e-13
-1.70999e-14
1.96791e-13
-1.40405e-14
2.03187e-13
-1.12216e-14
2.08243e-13
-8.42074e-15
2.11963e-13
-5.69443e-15
2.14389e-13
-3.03467e-15
2.15617e-13
-5.22296e-16
2.15628e-13
1.98487e-15
2.14471e-13
4.39167e-15
2.12144e-13
6.76932e-15
2.08704e-13
9.05706e-15
2.04211e-13
1.12393e-14
1.98699e-13
1.32602e-14
1.92293e-13
1.51135e-14
1.85102e-13
1.67637e-14
1.77217e-13
1.80954e-14
1.68844e-13
1.90997e-14
1.60098e-13
1.97009e-14
1.51208e-13
1.96973e-14
1.42391e-13
1.87717e-14
1.33569e-13
1.63379e-14
1.23214e-13
1.10899e-14
1.03171e-13
9.46098e-16
3.84109e-14
-1.54857e-14
3.74547e-14
1.4736e-13
-4.79169e-16
1.44206e-13
1.06296e-21
-1.66082e-19
1.6252e-21
-3.82054e-23
1.68936e-21
-2.3523e-23
1.81339e-21
-4.0842e-24
1.93028e-21
1.7164e-23
2.0329e-21
3.83088e-23
2.11903e-21
5.85747e-23
2.18825e-21
7.78584e-23
2.24052e-21
9.57462e-23
2.27614e-21
1.12135e-22
2.29579e-21
1.26921e-22
2.30049e-21
1.40052e-22
2.29139e-21
1.51736e-22
2.26927e-21
1.61766e-22
2.23556e-21
1.70451e-22
2.19141e-21
1.77534e-22
2.13785e-21
1.83479e-22
2.07597e-21
1.8808e-22
2.00684e-21
1.91544e-22
1.93188e-21
1.94181e-22
1.8517e-21
1.95887e-22
1.76732e-21
1.96714e-22
1.67959e-21
1.96972e-22
1.58907e-21
1.96714e-22
1.49658e-21
1.95938e-22
1.40254e-21
1.94801e-22
1.30762e-21
1.93353e-22
1.21213e-21
1.91803e-22
1.11644e-21
1.89838e-22
1.02074e-21
1.87925e-22
9.25305e-22
1.85909e-22
8.30231e-22
1.83893e-22
7.35777e-22
1.82031e-22
6.41841e-22
1.8017e-22
5.48472e-22
1.78568e-22
4.55673e-22
1.76913e-22
3.63391e-22
1.75517e-22
2.71625e-22
1.74225e-22
1.80067e-22
1.73139e-22
8.87151e-23
1.72364e-22
1.7195e-22
-1.38343e-13
4.02232e-13
-2.74885e-13
3.97842e-13
-4.07914e-13
3.88403e-13
-5.36171e-13
3.74255e-13
-6.58176e-13
3.55777e-13
-7.72539e-13
3.33398e-13
-8.78026e-13
3.07525e-13
-9.73621e-13
2.7868e-13
-1.05849e-12
2.47346e-13
-1.13194e-12
2.14102e-13
-1.19357e-12
1.7953e-13
-1.24304e-12
1.44116e-13
-1.2803e-12
1.08408e-13
-1.30531e-12
7.27255e-14
-1.31861e-12
3.83105e-14
-1.32263e-12
9.12105e-15
-1.31466e-12
-2.25149e-14
-1.29586e-12
-5.52468e-14
-1.26852e-12
-8.16306e-14
-1.23468e-12
-1.02052e-13
-1.19209e-12
-1.23007e-13
-1.1429e-12
-1.47009e-13
-1.08894e-12
-1.59856e-13
-1.03099e-12
-1.71967e-13
-9.69127e-13
-1.83269e-13
-9.05264e-13
-1.89927e-13
-8.39841e-13
-1.94527e-13
-7.73756e-13
-1.96771e-13
-7.0767e-13
-1.96938e-13
-6.42271e-13
-1.9516e-13
-5.78087e-13
-1.9172e-13
-5.15576e-13
-1.86843e-13
-4.55173e-13
-1.80756e-13
-3.97193e-13
-1.73647e-13
-3.41906e-13
-1.65776e-13
-2.89473e-13
-1.57326e-13
-2.40021e-13
-1.48482e-13
-1.93659e-13
-1.39283e-13
-1.50314e-13
-1.30218e-13
-1.10051e-13
-1.21047e-13
-7.27678e-14
-1.12027e-13
-3.84233e-14
-1.03215e-13
-6.883e-15
-9.47236e-14
2.19855e-14
-8.65476e-14
4.83181e-14
-7.87848e-14
7.22019e-14
-7.1342e-14
9.38087e-14
-6.43705e-14
1.133e-13
-5.77667e-14
1.30753e-13
-5.15446e-14
1.46378e-13
-4.57205e-14
1.6018e-13
-4.01935e-14
1.72351e-13
-3.50118e-14
1.82936e-13
-3.00624e-14
1.92035e-13
-2.5388e-14
1.99674e-13
-2.08126e-14
2.06005e-13
-1.66387e-14
2.10942e-13
-1.23955e-14
2.14591e-13
-8.33495e-15
2.16985e-13
-4.37151e-15
2.18125e-13
-5.61522e-16
2.1807e-13
3.18073e-15
2.16798e-13
6.84691e-15
2.1438e-13
1.04083e-14
2.10841e-13
1.38552e-14
2.06196e-13
1.71775e-14
2.00514e-13
2.02676e-14
1.93899e-13
2.3085e-14
1.86435e-13
2.56138e-14
1.78235e-13
2.7706e-14
1.69427e-13
2.93446e-14
1.60069e-13
3.05162e-14
1.5031e-13
3.09377e-14
1.39946e-13
3.06304e-14
1.28278e-13
2.95183e-14
1.12871e-13
2.80214e-14
8.70322e-14
2.83198e-14
3.4156e-14
3.89345e-14
2.31058e-14
1.5996e-13
-4.56929e-16
1.69011e-13
1.27452e-21
-2.50606e-19
1.63989e-21
-5.77476e-23
1.7088e-21
-2.6263e-23
1.83469e-21
6.25555e-24
1.95147e-21
3.85673e-23
2.05317e-21
7.00519e-23
2.13831e-21
9.99855e-23
2.20619e-21
1.27955e-22
2.25686e-21
1.53804e-22
2.29083e-21
1.77379e-22
2.30892e-21
1.98678e-22
2.31218e-21
2.17704e-22
2.30142e-21
2.34247e-22
2.27795e-21
2.48516e-22
2.24269e-21
2.60665e-22
2.19725e-21
2.70695e-22
2.14245e-21
2.78863e-22
2.07943e-21
2.85274e-22
2.00953e-21
2.9003e-22
1.93359e-21
2.93339e-22
1.85252e-21
2.95407e-22
1.76758e-21
2.96493e-22
1.67923e-21
2.96441e-22
1.58834e-21
2.95717e-22
1.49544e-21
2.9427e-22
1.40109e-21
2.92253e-22
1.30601e-21
2.89927e-22
1.21022e-21
2.87187e-22
1.11452e-21
2.84343e-22
1.01872e-21
2.8119e-22
9.23289e-22
2.78191e-22
8.28318e-22
2.75038e-22
7.33968e-22
2.72091e-22
6.40186e-22
2.69351e-22
5.46818e-22
2.66559e-22
4.54329e-22
2.64181e-22
3.62098e-22
2.61958e-22
2.7054e-22
2.602e-22
1.79291e-22
2.58649e-22
8.82498e-23
2.5746e-22
2.56633e-22
-1.42876e-13
5.44118e-13
-2.84351e-13
5.37571e-13
-4.22015e-13
5.2455e-13
-5.54561e-13
5.05313e-13
-6.80437e-13
4.80174e-13
-7.9826e-13
4.49757e-13
-9.06751e-13
4.14561e-13
-1.00481e-12
3.75301e-13
-1.09158e-12
3.32701e-13
-1.16639e-12
2.87508e-13
-1.22876e-12
2.40531e-13
-1.27844e-12
1.92438e-13
-1.31531e-12
1.4396e-13
-1.33932e-12
9.54299e-14
-1.35138e-12
4.91149e-14
-1.35483e-12
1.13407e-14
-1.34369e-12
-3.48531e-14
-1.32218e-12
-7.79183e-14
-1.29258e-12
-1.12353e-13
-1.25752e-12
-1.38191e-13
-1.20953e-12
-1.72036e-13
-1.15848e-12
-1.99048e-13
-1.10171e-12
-2.17576e-13
-1.04083e-12
-2.33742e-13
-9.76242e-13
-2.48711e-13
-9.09901e-13
-2.57069e-13
-8.42157e-13
-2.63017e-13
-7.73933e-13
-2.65691e-13
-7.05946e-13
-2.65567e-13
-6.38864e-13
-2.62831e-13
-5.73213e-13
-2.57902e-13
-5.0949e-13
-2.51043e-13
-4.48102e-13
-2.42562e-13
-3.89334e-13
-2.32776e-13
-3.33444e-13
-2.21968e-13
-2.80609e-13
-2.10404e-13
-2.30946e-13
-1.98328e-13
-1.84453e-13
-1.859e-13
-1.41166e-13
-1.73569e-13
-1.0103e-13
-1.6119e-13
-6.39503e-14
-1.49049e-13
-2.98826e-14
-1.37167e-13
1.31234e-15
-1.25744e-13
2.98017e-14
-1.14801e-13
5.56987e-14
-1.04387e-13
7.91904e-14
-9.44816e-14
1.00419e-13
-8.51875e-14
1.19504e-13
-7.63839e-14
1.36614e-13
-6.8129e-14
1.51854e-13
-6.03803e-14
1.65379e-13
-5.30849e-14
1.77241e-13
-4.61811e-14
1.87602e-13
-3.96803e-14
1.96496e-13
-3.34862e-14
2.03988e-13
-2.746e-14
2.10144e-13
-2.18988e-14
2.14944e-13
-1.62545e-14
2.1851e-13
-1.0914e-14
2.20819e-13
-5.64877e-15
2.21891e-13
-5.54995e-16
2.2172e-13
4.46846e-15
2.20382e-13
9.34276e-15
2.17834e-13
1.41512e-14
2.14106e-13
1.88145e-14
2.09264e-13
2.32845e-14
2.03339e-13
2.74901e-14
1.96415e-13
3.13388e-14
1.88573e-13
3.48138e-14
1.79888e-13
3.77713e-14
1.70504e-13
4.01375e-14
1.60524e-13
4.19247e-14
1.4998e-13
4.29308e-14
1.3883e-13
4.32448e-14
1.26692e-13
4.31378e-14
1.12854e-13
4.33518e-14
9.71626e-14
4.5512e-14
8.50562e-14
5.25498e-14
1.9067e-14
2.27465e-13
-4.50383e-16
1.89739e-13
1.06274e-21
-3.35342e-19
1.67142e-21
-7.71863e-23
1.74142e-21
-3.14329e-23
1.86695e-21
1.40621e-23
1.98296e-21
5.82128e-23
2.083e-21
1.00451e-22
2.16628e-21
1.40311e-22
2.2321e-21
1.77534e-22
2.28049e-21
2.11758e-22
2.31213e-21
2.43036e-22
2.32789e-21
2.71005e-22
2.32877e-21
2.95924e-22
2.31564e-21
3.17637e-22
2.29015e-21
3.36197e-22
2.25272e-21
3.5181e-22
2.20542e-21
3.64838e-22
2.14886e-21
3.75126e-22
2.08419e-21
3.83191e-22
2.01289e-21
3.89189e-22
1.93565e-21
3.93221e-22
1.85361e-21
3.95703e-22
1.76758e-21
3.96581e-22
1.6785e-21
3.96323e-22
1.58695e-21
3.94927e-22
1.49337e-21
3.92704e-22
1.39876e-21
3.89861e-22
1.30322e-21
3.865e-22
1.20737e-21
3.82623e-22
1.11137e-21
3.78539e-22
1.01573e-21
3.74248e-22
9.20187e-22
3.69957e-22
8.25371e-22
3.65614e-22
7.31124e-22
3.61426e-22
6.37394e-22
3.57497e-22
5.4444e-22
3.53775e-22
4.52054e-22
3.50311e-22
3.60341e-22
3.47261e-22
2.68989e-22
3.44728e-22
1.78154e-22
3.42711e-22
8.74744e-23
3.41212e-22
3.40126e-22
-1.49277e-13
6.92418e-13
-2.97303e-13
6.83871e-13
-4.41312e-13
6.67059e-13
-5.79703e-13
6.42234e-13
-7.1096e-13
6.09966e-13
-8.33516e-13
5.7086e-13
-9.46079e-13
5.25685e-13
-1.04746e-12
4.75264e-13
-1.13681e-12
4.2064e-13
-1.21338e-12
3.62698e-13
-1.27673e-12
3.02514e-13
-1.32659e-12
2.40967e-13
-1.36285e-12
1.7891e-13
-1.38536e-12
1.16657e-13
-1.39665e-12
5.91584e-14
-1.39733e-12
1.07986e-14
-1.38267e-12
-5.0698e-14
-1.35814e-12
-1.03588e-13
-1.32565e-12
-1.45953e-13
-1.28678e-12
-1.78129e-13
-1.23384e-12
-2.26003e-13
-1.17922e-12
-2.54652e-13
-1.11864e-12
-2.79089e-13
-1.05356e-12
-2.99709e-13
-9.85613e-13
-3.17504e-13
-9.15794e-13
-3.2768e-13
-8.44916e-13
-3.34635e-13
-7.73804e-13
-3.37492e-13
-7.03267e-13
-3.3674e-13
-6.33934e-13
-3.32745e-13
-5.66338e-13
-3.26021e-13
-5.01024e-13
-3.16825e-13
-4.3832e-13
-3.0568e-13
-3.78527e-13
-2.92926e-13
-3.219e-13
-2.78894e-13
-2.68552e-13
-2.63994e-13
-2.18623e-13
-2.4844e-13
-1.72e-13
-2.32641e-13
-1.28743e-13
-2.16888e-13
-8.88594e-14
-2.01076e-13
-5.21403e-14
-1.85713e-13
-1.84836e-14
-1.7071e-13
1.2251e-14
-1.56304e-13
4.02297e-14
-1.42544e-13
6.55939e-14
-1.29462e-13
8.85439e-14
-1.17083e-13
1.09188e-13
-1.05424e-13
1.27763e-13
-9.44964e-14
1.4437e-13
-8.42149e-14
1.59167e-13
-7.46025e-14
1.72271e-13
-6.55608e-14
1.83787e-13
-5.70148e-14
1.93832e-13
-4.89883e-14
2.02427e-13
-4.12978e-14
2.09707e-13
-3.39026e-14
2.15663e-13
-2.69712e-14
2.20349e-13
-2.00061e-14
2.23769e-13
-1.33577e-14
2.25982e-13
-6.83724e-15
2.26932e-13
-4.38321e-16
2.26645e-13
5.8629e-15
2.25153e-13
1.1979e-14
2.22431e-13
1.80572e-14
2.18541e-13
2.39223e-14
2.13432e-13
2.96461e-14
2.07178e-13
3.50284e-14
1.99836e-13
3.99962e-14
1.91513e-13
4.44761e-14
1.82306e-13
4.83485e-14
1.72219e-13
5.16149e-14
1.61532e-13
5.40239e-14
1.50296e-13
5.56004e-14
1.38714e-13
5.62747e-14
1.26957e-13
5.63592e-14
1.15316e-13
5.64694e-14
1.04755e-13
5.75581e-14
9.33386e-14
6.54621e-14
1.88405e-14
3.03462e-13
-4.45219e-16
2.10222e-13
1.16856e-21
-4.20713e-19
1.71712e-21
-9.66767e-23
1.78692e-21
-3.71714e-23
1.9111e-21
2.16101e-23
2.02509e-21
7.80652e-23
2.12296e-21
1.31573e-22
2.20351e-21
1.82083e-22
2.26632e-21
2.28922e-22
2.31171e-21
2.71832e-22
2.34009e-21
3.10761e-22
2.35281e-21
3.45606e-22
2.35049e-21
3.76316e-22
2.33425e-21
4.0294e-22
2.30577e-21
4.25998e-22
2.26575e-21
4.45127e-22
2.21576e-21
4.60895e-22
2.15693e-21
4.73406e-22
2.09018e-21
4.82918e-22
2.01687e-21
4.89846e-22
1.93808e-21
4.94396e-22
1.85454e-21
4.96877e-22
1.76727e-21
4.97653e-22
1.67711e-21
4.96877e-22
1.58467e-21
4.94757e-22
1.49058e-21
4.91604e-22
1.39545e-21
4.87675e-22
1.2994e-21
4.82867e-22
1.20329e-21
4.778e-22
1.10713e-21
4.72424e-22
1.01138e-21
4.66737e-22
9.15844e-22
4.60998e-22
8.21184e-22
4.55363e-22
7.27195e-22
4.49883e-22
6.33724e-22
4.4461e-22
5.40976e-22
4.39698e-22
4.49107e-22
4.35304e-22
3.57756e-22
4.3122e-22
2.66973e-22
4.27911e-22
1.76603e-22
4.25067e-22
8.63887e-23
4.22948e-22
4.215e-22
-1.57767e-13
8.49215e-13
-3.14098e-13
8.38495e-13
-4.66058e-13
8.17534e-13
-6.11992e-13
7.86709e-13
-7.50083e-13
7.46611e-13
-8.78713e-13
6.98055e-13
-9.96431e-13
6.41983e-13
-1.1021e-12
5.79529e-13
-1.19469e-12
5.11842e-13
-1.2735e-12
4.40135e-13
-1.33801e-12
3.65682e-13
-1.38802e-12
2.89656e-13
-1.4233e-12
2.12899e-13
-1.44377e-12
1.35859e-13
-1.45584e-12
6.99898e-14
-1.45018e-12
3.9384e-15
-1.4317e-12
-7.035e-14
-1.4036e-12
-1.32814e-13
-1.36839e-12
-1.82257e-13
-1.32136e-12
-2.26218e-13
-1.26494e-12
-2.83434e-13
-1.20498e-12
-3.15577e-13
-1.13957e-12
-3.45429e-13
-1.06917e-12
-3.70987e-13
-9.96936e-13
-3.90565e-13
-9.22695e-13
-4.02702e-13
-8.47822e-13
-4.10241e-13
-7.73107e-13
-4.12889e-13
-6.99352e-13
-4.11124e-13
-6.27163e-13
-4.05509e-13
-5.5719e-13
-3.96515e-13
-4.89856e-13
-3.84623e-13
-4.25542e-13
-3.70401e-13
-3.64542e-13
-3.54278e-13
-3.06991e-13
-3.3674e-13
-2.53069e-13
-3.18152e-13
-2.02864e-13
-2.98827e-13
-1.56118e-13
-2.79507e-13
-1.13051e-13
-2.6002e-13
-7.34277e-14
-2.407e-13
-3.71663e-14
-2.2192e-13
-4.04034e-15
-2.03724e-13
2.60433e-14
-1.86217e-13
5.33262e-14
-1.696e-13
7.79599e-14
-1.53808e-13
1.00186e-13
-1.38964e-13
1.20117e-13
-1.24952e-13
1.37976e-13
-1.11896e-13
1.53969e-13
-9.96955e-14
1.6818e-13
-8.82461e-14
1.80763e-13
-7.75227e-14
1.9184e-13
-6.74168e-14
2.01502e-13
-5.79267e-14
2.09732e-13
-4.87513e-14
2.16761e-13
-4.01063e-14
2.22508e-13
-3.18446e-14
2.26992e-13
-2.35722e-14
2.30292e-13
-1.5689e-14
2.3241e-13
-7.94425e-15
2.33264e-13
-2.40627e-16
2.32842e-13
7.37836e-15
2.31231e-13
1.47213e-14
2.28366e-13
2.20898e-14
2.2418e-13
2.93136e-14
2.18787e-13
3.62754e-14
2.12128e-13
4.29568e-14
2.04351e-13
4.90732e-14
1.95466e-13
5.46864e-14
1.85527e-13
5.96398e-14
1.74714e-13
6.38048e-14
1.63105e-13
6.70296e-14
1.51011e-13
6.91099e-14
1.38786e-13
6.9931e-14
1.27058e-13
6.95322e-14
1.16873e-13
6.81133e-14
1.09148e-13
6.67512e-14
8.76331e-14
8.84537e-14
7.74294e-15
3.84834e-13
-4.38333e-16
2.19585e-13
1.16849e-21
-5.0566e-19
1.77668e-21
-1.16167e-22
1.84565e-21
-4.24447e-23
1.96755e-21
2.98302e-23
2.07865e-21
9.90032e-23
2.17337e-21
1.64506e-22
2.25035e-21
2.25872e-22
2.30923e-21
2.82586e-22
2.35069e-21
3.34439e-22
2.37499e-21
3.81227e-22
2.38347e-21
4.23103e-22
2.37711e-21
4.59757e-22
2.35726e-21
4.91604e-22
2.32495e-21
5.18642e-22
2.28147e-21
5.41183e-22
2.22827e-21
5.59484e-22
2.16644e-21
5.73857e-22
2.09711e-21
5.84713e-22
2.02142e-21
5.92313e-22
1.94062e-21
5.97276e-22
1.85531e-21
5.99551e-22
1.76655e-21
5.99861e-22
1.67499e-21
5.9831e-22
1.58152e-21
5.9526e-22
1.4866e-21
5.90917e-22
1.39065e-21
5.85489e-22
1.29433e-21
5.79388e-22
1.19786e-21
5.72719e-22
1.10144e-21
5.65533e-22
1.00564e-21
5.58399e-22
9.10312e-22
5.51006e-22
8.15652e-22
5.43768e-22
7.21922e-22
5.36685e-22
6.28812e-22
5.30016e-22
5.36582e-22
5.23709e-22
4.45023e-22
5.1797e-22
3.54395e-22
5.13007e-22
2.64233e-22
5.08613e-22
1.74432e-22
5.05046e-22
8.49928e-23
5.02254e-22
5.00548e-22
-1.68308e-13
1.01657e-12
-3.34972e-13
1.00348e-12
-4.96876e-13
9.77974e-13
-6.52085e-13
9.4048e-13
-7.98617e-13
8.91719e-13
-9.34752e-13
8.32773e-13
-1.05889e-12
7.64721e-13
-1.16976e-12
6.89012e-13
-1.26629e-12
6.0701e-13
-1.34774e-12
5.20232e-13
-1.41361e-12
4.30225e-13
-1.46377e-12
3.38514e-13
-1.49721e-12
2.45074e-13
-1.51693e-12
1.54334e-13
-1.52804e-12
7.98791e-14
-1.51495e-12
-1.03301e-14
-1.49189e-12
-9.45691e-14
-1.45888e-12
-1.66938e-13
-1.42169e-12
-2.20524e-13
-1.36165e-12
-2.87292e-13
-1.30266e-12
-3.43426e-13
-1.23591e-12
-3.83273e-13
-1.16434e-12
-4.17915e-13
-1.08749e-12
-4.48701e-13
-1.00983e-12
-4.69039e-13
-9.30309e-13
-4.82998e-13
-8.50561e-13
-4.90712e-13
-7.7143e-13
-4.92689e-13
-6.93735e-13
-4.89437e-13
-6.18211e-13
-4.81599e-13
-5.45361e-13
-4.69873e-13
-4.75676e-13
-4.54767e-13
-4.09447e-13
-4.37032e-13
-3.47017e-13
-4.17054e-13
-2.88457e-13
-3.95591e-13
-2.33889e-13
-3.72952e-13
-1.83351e-13
-3.49541e-13
-1.36669e-13
-3.26308e-13
-9.37673e-14
-3.02982e-13
-5.4604e-14
-2.7987e-13
-1.89379e-14
-2.57531e-13
1.34587e-14
-2.36009e-13
4.27313e-14
-2.1532e-13
6.90865e-14
-1.95728e-13
9.28361e-14
-1.77274e-13
1.14136e-13
-1.59922e-13
1.33227e-13
-1.43653e-13
1.50231e-13
-1.28449e-13
1.65421e-13
-1.14379e-13
1.78916e-13
-1.01181e-13
1.90861e-13
-8.88563e-14
2.0136e-13
-7.72519e-14
2.10534e-13
-6.63862e-14
2.18377e-13
-5.58286e-14
2.25132e-13
-4.60473e-14
2.30585e-13
-3.64367e-14
2.34955e-13
-2.70333e-14
2.38098e-13
-1.7882e-14
2.40087e-13
-8.94055e-15
2.40826e-13
5.83256e-17
2.4038e-13
8.89917e-15
2.38614e-13
1.76021e-14
2.35511e-13
2.63448e-14
2.3113e-13
3.48799e-14
2.25365e-13
4.32594e-14
2.18315e-13
5.12594e-14
2.10011e-13
5.86577e-14
2.00449e-13
6.55563e-14
1.89698e-13
7.17203e-14
1.77875e-13
7.69853e-14
1.6518e-13
8.11004e-14
1.51858e-13
8.38254e-14
1.38341e-13
8.48597e-14
1.25675e-13
8.36249e-14
1.15406e-13
7.9818e-14
1.09311e-13
7.42928e-14
8.60295e-15
1.9062e-13
5.94214e-15
3.88954e-13
-4.30499e-16
2.27123e-13
1.27435e-21
-5.87642e-19
1.85045e-21
-1.35192e-22
1.91792e-21
-4.68908e-23
2.03673e-21
3.94462e-23
2.14416e-21
1.21751e-22
2.23473e-21
1.99609e-22
2.30706e-21
2.72194e-22
2.36108e-21
3.39247e-22
2.39753e-21
4.00355e-22
2.41676e-21
4.55363e-22
2.42018e-21
5.04322e-22
2.40896e-21
5.4718e-22
2.38435e-21
5.83886e-22
2.34744e-21
6.14905e-22
2.29977e-21
6.40651e-22
2.24264e-21
6.61228e-22
2.17729e-21
6.77306e-22
2.10471e-21
6.89093e-22
2.02639e-21
6.97262e-22
1.94289e-21
7.0207e-22
1.85552e-21
7.04034e-22
1.765e-21
7.03569e-22
1.67194e-21
7.00829e-22
1.57718e-21
6.96383e-22
1.48117e-21
6.90489e-22
1.38455e-21
6.83458e-22
1.28766e-21
6.756e-22
1.19067e-21
6.67121e-22
1.09426e-21
6.58281e-22
9.98252e-22
6.49078e-22
9.03075e-22
6.39773e-22
8.08621e-22
6.30622e-22
7.15149e-22
6.21833e-22
6.22557e-22
6.13354e-22
5.30843e-22
6.05548e-22
4.40008e-22
5.9831e-22
3.50053e-22
5.91899e-22
2.60665e-22
5.86316e-22
1.7164e-22
5.81818e-22
8.31834e-23
5.78509e-22
5.76183e-22
-1.81186e-13
1.19681e-12
-3.60434e-13
1.18107e-12
-5.34369e-13
1.15047e-12
-7.00804e-13
1.1055e-12
-8.57585e-13
1.0471e-12
-1.00273e-12
9.76529e-13
-1.13459e-12
8.95208e-13
-1.25168e-12
8.04738e-13
-1.3529e-12
7.06881e-13
-1.43743e-12
6.03435e-13
-1.50496e-12
4.96454e-13
-1.5548e-12
3.87077e-13
-1.58551e-12
2.74532e-13
-1.6088e-12
1.76401e-13
-1.6106e-12
8.04822e-14
-1.59266e-12
-2.94361e-14
-1.564e-12
-1.24355e-13
-1.527e-12
-2.05034e-13
-1.48072e-12
-2.67872e-13
-1.41127e-12
-3.57763e-13
-1.34655e-12
-4.09119e-13
-1.27197e-12
-4.58793e-13
-1.19217e-12
-4.98612e-13
-1.10868e-12
-5.33032e-13
-1.024e-12
-5.54523e-13
-9.38167e-13
-5.69593e-13
-8.52561e-13
-5.77025e-13
-7.68239e-13
-5.77668e-13
-6.85984e-13
-5.723e-13
-6.06462e-13
-5.61677e-13
-5.30303e-13
-5.46534e-13
-4.57882e-13
-5.27637e-13
-3.89582e-13
-5.05725e-13
-3.25504e-13
-4.8147e-13
-2.65865e-13
-4.55515e-13
-2.10735e-13
-4.28314e-13
-1.59844e-13
-4.00603e-13
-1.13262e-13
-3.73005e-13
-7.08025e-14
-3.45501e-13
-3.21908e-14
-3.18485e-13
2.60326e-15
-2.92271e-13
3.40373e-14
-2.67335e-13
6.22979e-14
-2.43415e-13
8.75927e-14
-2.20801e-13
1.10177e-13
-1.99581e-13
1.30351e-13
-1.79763e-13
1.48393e-13
-1.61309e-13
1.64417e-13
-1.44029e-13
1.78578e-13
-1.28042e-13
1.91232e-13
-1.13288e-13
2.02419e-13
-9.94387e-14
2.12324e-13
-8.65038e-14
2.20868e-13
-7.42266e-14
2.28327e-13
-6.25379e-14
2.34724e-13
-5.16456e-14
2.39882e-13
-4.07465e-14
2.44054e-13
-3.03134e-14
2.4712e-13
-2.00127e-14
2.4901e-13
-9.85303e-15
2.49706e-13
3.79242e-16
2.49205e-13
1.04594e-14
2.47329e-13
2.05716e-14
2.44071e-13
3.07368e-14
2.39389e-13
4.07279e-14
2.33301e-13
5.05473e-14
2.25854e-13
5.99369e-14
2.16905e-13
6.88639e-14
2.06582e-13
7.71631e-14
1.94918e-13
8.46927e-14
1.82012e-13
9.12253e-14
1.67929e-13
9.65362e-14
1.52859e-13
1.00267e-13
1.37129e-13
1.01975e-13
1.21751e-13
1.00406e-13
1.10312e-13
9.26709e-14
1.15645e-13
7.03835e-14
-2.12983e-14
3.28991e-13
7.28785e-15
3.61805e-13
-4.22285e-16
2.35977e-13
1.27431e-21
-6.66658e-19
1.93876e-21
-1.53597e-22
2.00421e-21
-5.03546e-23
2.11908e-21
5.05097e-23
2.22201e-21
1.46928e-22
2.30732e-21
2.37608e-22
2.37411e-21
3.22135e-22
2.42219e-21
3.99942e-22
2.45254e-21
4.70718e-22
2.46572e-21
5.34049e-22
2.46303e-21
5.9009e-22
2.44571e-21
6.3879e-22
2.41532e-21
6.80563e-22
2.37318e-21
7.15511e-22
2.32035e-21
7.44049e-22
2.25872e-21
7.66745e-22
2.18908e-21
7.84116e-22
2.11288e-21
7.96678e-22
2.03114e-21
8.04847e-22
1.94486e-21
8.09241e-22
1.85511e-21
8.10275e-22
1.76231e-21
8.08517e-22
1.66749e-21
8.0433e-22
1.57128e-21
7.98178e-22
1.47424e-21
7.90526e-22
1.37669e-21
7.81531e-22
1.27918e-21
7.71553e-22
1.18178e-21
7.60851e-22
1.08505e-21
7.49736e-22
9.88998e-22
7.38362e-22
8.93924e-22
7.26937e-22
7.9978e-22
7.15615e-22
7.06774e-22
7.04758e-22
6.14699e-22
6.94211e-22
5.23605e-22
6.8444e-22
4.33649e-22
6.75393e-22
3.44469e-22
6.67431e-22
2.56168e-22
6.60659e-22
1.68383e-22
6.54972e-22
8.09086e-23
6.50733e-22
6.47734e-22
-1.96619e-13
1.3925e-12
-3.90947e-13
1.37378e-12
-5.79285e-13
1.3374e-12
-7.59169e-13
1.28401e-12
-9.28167e-13
1.21472e-12
-1.08405e-12
1.13105e-12
-1.22497e-12
1.03477e-12
-1.3494e-12
9.27831e-13
-1.45604e-12
8.12203e-13
-1.54409e-12
6.90184e-13
-1.61351e-12
5.64602e-13
-1.66137e-12
4.33683e-13
-1.69383e-12
3.05762e-13
-1.71599e-12
1.97361e-13
-1.70538e-12
6.8701e-14
-1.68424e-12
-5.17166e-14
-1.64974e-12
-1.59958e-13
-1.60912e-12
-2.46727e-13
-1.54096e-12
-3.37069e-13
-1.47317e-12
-4.26556e-13
-1.39608e-12
-4.87164e-13
-1.31293e-12
-5.42866e-13
-1.223e-12
-5.89424e-13
-1.13215e-12
-6.24716e-13
-1.03899e-12
-6.48466e-13
-9.45705e-13
-6.63624e-13
-8.53352e-13
-6.70074e-13
-7.62955e-13
-6.68709e-13
-6.75392e-13
-6.60457e-13
-5.91378e-13
-6.46234e-13
-5.11435e-13
-6.2697e-13
-4.36016e-13
-6.03494e-13
-3.65338e-13
-5.7679e-13
-2.99604e-13
-5.47536e-13
-2.38881e-13
-5.16519e-13
-1.8312e-13
-4.84297e-13
-1.31972e-13
-4.51919e-13
-8.57564e-14
-4.19335e-13
-4.38827e-14
-3.87433e-13
-6.10648e-15
-3.56264e-13
2.77556e-14
-3.26083e-13
5.78833e-14
-2.97354e-13
8.4848e-14
-2.70219e-13
1.08851e-13
-2.44586e-13
1.30084e-13
-2.20539e-13
1.48885e-13
-1.98236e-13
1.65573e-13
-1.77618e-13
1.80416e-13
-1.58439e-13
1.93515e-13
-1.40655e-13
2.05062e-13
-1.24296e-13
2.1538e-13
-1.0917e-13
2.24472e-13
-9.49548e-14
2.32361e-13
-8.14269e-14
2.39475e-13
-6.8912e-14
2.45399e-13
-5.67873e-14
2.50373e-13
-4.48915e-14
2.54367e-13
-3.34347e-14
2.57377e-13
-2.21074e-14
2.59203e-13
-1.07196e-14
2.59962e-13
6.16079e-16
2.59383e-13
1.20751e-14
2.57377e-13
2.36536e-14
2.54048e-13
3.5175e-14
2.49148e-13
4.67721e-14
2.42752e-13
5.81183e-14
2.34786e-13
6.91067e-14
2.25227e-13
7.96536e-14
2.14093e-13
8.9556e-14
2.01435e-13
9.86342e-14
1.87327e-13
1.06641e-13
1.71713e-13
1.13475e-13
1.54542e-13
1.18782e-13
1.35626e-13
1.22251e-13
1.14141e-13
1.23264e-13
8.80089e-14
1.20186e-13
5.06015e-14
1.09185e-13
8.95926e-15
3.72034e-13
7.82814e-15
3.64345e-13
-4.12253e-16
2.45338e-13
1.4859e-21
-7.43342e-19
2.042e-21
-1.72002e-22
2.10512e-21
-5.27845e-23
2.21545e-21
6.3848e-23
2.31275e-21
1.74897e-22
2.39184e-21
2.79484e-22
2.45192e-21
3.76522e-22
2.49302e-21
4.65548e-22
2.51592e-21
5.46249e-22
2.52171e-21
6.18214e-22
2.51173e-21
6.8139e-22
2.48749e-21
7.36191e-22
2.45026e-21
7.82616e-22
2.40172e-21
8.21235e-22
2.34314e-21
8.52358e-22
2.27604e-21
8.76812e-22
2.20164e-21
8.9501e-22
2.12105e-21
9.07676e-22
2.03554e-21
9.15379e-22
1.94594e-21
9.18843e-22
1.8533e-21
9.18688e-22
1.75812e-21
9.15224e-22
1.66134e-21
9.0902e-22
1.56358e-21
9.00851e-22
1.4652e-21
8.9077e-22
1.36671e-21
8.79396e-22
1.26848e-21
8.66989e-22
1.17067e-21
8.53806e-22
1.07368e-21
8.40002e-22
9.77521e-22
8.26095e-22
8.82602e-22
8.12085e-22
7.88924e-22
7.98281e-22
6.96279e-22
7.84788e-22
6.04876e-22
7.71915e-22
5.14558e-22
7.59765e-22
4.25636e-22
7.48805e-22
3.37697e-22
7.38983e-22
2.50481e-22
7.30401e-22
1.6404e-22
7.23473e-22
7.80135e-23
7.18148e-22
7.14632e-22
-2.14995e-13
1.60659e-12
-4.27204e-13
1.5844e-12
-6.32653e-13
1.54147e-12
-8.28443e-13
1.47844e-12
-1.0118e-12
1.39673e-12
-1.18028e-12
1.2982e-12
-1.33188e-12
1.18505e-12
-1.46484e-12
1.05949e-12
-1.57749e-12
9.23562e-13
-1.66989e-12
7.81315e-13
-1.73907e-12
6.32536e-13
-1.78739e-12
4.80778e-13
-1.82804e-12
3.45212e-13
-1.83169e-12
1.99841e-13
-1.81841e-12
5.42758e-14
-1.78934e-12
-8.18955e-14
-1.75573e-12
-1.9465e-13
-1.69364e-12
-3.09868e-13
-1.61638e-12
-4.15341e-13
-1.54142e-12
-5.02491e-13
-1.45267e-12
-5.76847e-13
-1.3576e-12
-6.38839e-13
-1.25766e-12
-6.9022e-13
-1.15678e-12
-7.26407e-13
-1.0542e-12
-7.51811e-13
-9.52254e-13
-7.66298e-13
-8.52081e-13
-7.70924e-13
-7.54783e-13
-7.66637e-13
-6.61222e-13
-7.54599e-13
-5.72117e-13
-7.35872e-13
-4.88027e-13
-7.11541e-13
-4.09259e-13
-6.82695e-13
-3.36102e-13
-6.50325e-13
-2.68628e-13
-6.15334e-13
-2.06918e-13
-5.78502e-13
-1.50522e-13
-5.40911e-13
-9.94859e-14
-5.03122e-13
-5.35965e-14
-4.65335e-13
-1.26759e-14
-4.28411e-13
2.38835e-14
-3.92829e-13
5.64404e-14
-3.58588e-13
8.51893e-14
-3.25998e-13
1.10417e-13
-2.95287e-13
1.32752e-13
-2.66708e-13
1.52427e-13
-2.39949e-13
1.69635e-13
-2.15123e-13
1.84799e-13
-1.92411e-13
1.98116e-13
-1.71332e-13
2.09933e-13
-1.51998e-13
2.20361e-13
-1.342e-13
2.29587e-13
-1.17819e-13
2.3769e-13
-1.02434e-13
2.4511e-13
-8.81729e-14
2.51603e-13
-7.4685e-14
2.57039e-13
-6.14587e-14
2.61877e-13
-4.89199e-14
2.65779e-13
-3.64836e-14
2.68772e-13
-2.42058e-14
2.7063e-13
-1.16421e-14
2.71415e-13
8.06225e-16
2.70883e-13
1.36211e-14
2.6896e-13
2.66247e-14
2.65533e-13
3.96854e-14
2.60526e-13
5.28984e-14
2.53806e-13
6.59867e-14
2.45335e-13
7.87542e-14
2.35113e-13
9.1082e-14
2.23163e-13
1.02737e-13
2.09485e-13
1.13567e-13
1.94078e-13
1.23322e-13
1.76995e-13
1.31857e-13
1.58027e-13
1.39062e-13
1.36551e-13
1.45053e-13
1.10868e-13
1.50287e-13
7.59806e-14
1.56427e-13
1.46446e-14
1.71882e-13
1.53236e-14
3.72723e-13
7.1857e-15
3.73856e-13
-4.00813e-16
2.54017e-13
1.69759e-21
-8.16e-19
2.16127e-21
-1.90148e-22
2.22176e-21
-5.35082e-23
2.32645e-21
7.97195e-23
2.41733e-21
2.0664e-22
2.48883e-21
3.25702e-22
2.54094e-21
4.36234e-22
2.57372e-21
5.37202e-22
2.58778e-21
6.2814e-22
2.58494e-21
7.08894e-22
2.56659e-21
7.79566e-22
2.53391e-21
8.40054e-22
2.48878e-21
8.90977e-22
2.43289e-21
9.32801e-22
2.3676e-21
9.66302e-22
2.29429e-21
9.91841e-22
2.21426e-21
1.01056e-21
2.1288e-21
1.02276e-21
2.03895e-21
1.02948e-21
1.94579e-21
1.03144e-21
1.84978e-21
1.02927e-21
1.75197e-21
1.02364e-21
1.65317e-21
1.01526e-21
1.5535e-21
1.0043e-21
1.45382e-21
9.91583e-22
1.35435e-21
9.77314e-22
1.25525e-21
9.61908e-22
1.15697e-21
9.45623e-22
1.05977e-21
9.28924e-22
9.63614e-22
9.11812e-22
8.68747e-22
8.94803e-22
7.75379e-22
8.78001e-22
6.83406e-22
8.6156e-22
5.92778e-22
8.45896e-22
5.03546e-22
8.3111e-22
4.15813e-22
8.17616e-22
3.29115e-22
8.05467e-22
2.43605e-22
7.95076e-22
1.58664e-22
7.86494e-22
7.4498e-23