/*--------------------------------*- C++ -*----------------------------------*\
  =========                 |
  \\      /  F ield         | OpenFOAM: The Open Source CFD Toolbox
   \\    /   O peration     | Website:  https://openfoam.org
    \\  /    A nd           | Version:  6
     \\/     M anipulation  |
\*---------------------------------------------------------------------------*/
FoamFile
{
    version     2.0;
    format      ascii;
    class       volVectorField;
    location    "1200";
    object      U;
}
// * * * * * * * * * * * * * * * * * * * * * * * * * * * * * * * * * * * * * //

dimensions      [0 1 -1 0 0 0 0];

internalField   nonuniform List<vector> 
4800
(
(-2.58403e-08 0 2.69791e-08)
(-7.9691e-08 0 2.43907e-08)
(-1.31813e-07 0 2.29625e-08)
(-1.82492e-07 0 2.18778e-08)
(-2.31042e-07 0 2.07601e-08)
(-2.76929e-07 0 1.95026e-08)
(-3.19664e-07 0 1.8081e-08)
(-3.58827e-07 0 1.64986e-08)
(-3.94065e-07 0 1.4765e-08)
(-4.25087e-07 0 1.28948e-08)
(-4.51677e-07 0 1.09185e-08)
(-4.7369e-07 0 8.85827e-09)
(-4.91062e-07 0 6.74809e-09)
(-5.0381e-07 0 4.60159e-09)
(-5.11982e-07 0 2.48128e-09)
(-5.15647e-07 0 5.30108e-10)
(-5.15542e-07 0 -1.2583e-09)
(-5.11295e-07 0 -3.41343e-09)
(-5.02971e-07 0 -5.19499e-09)
(-4.91481e-07 0 -6.592e-09)
(-4.77347e-07 0 -7.69529e-09)
(-4.60214e-07 0 -9.53816e-09)
(-4.40546e-07 0 -1.02997e-08)
(-4.19278e-07 0 -1.11202e-08)
(-3.9643e-07 0 -1.18301e-08)
(-3.72322e-07 0 -1.23203e-08)
(-3.4743e-07 0 -1.26196e-08)
(-3.22032e-07 0 -1.27801e-08)
(-2.96421e-07 0 -1.27987e-08)
(-2.70853e-07 0 -1.27036e-08)
(-2.45563e-07 0 -1.24909e-08)
(-2.20767e-07 0 -1.21848e-08)
(-1.96645e-07 0 -1.17928e-08)
(-1.73346e-07 0 -1.13469e-08)
(-1.50976e-07 0 -1.0845e-08)
(-1.29637e-07 0 -1.02987e-08)
(-1.09406e-07 0 -9.72956e-09)
(-9.03319e-08 0 -9.13959e-09)
(-7.2407e-08 0 -8.55209e-09)
(-5.56718e-08 0 -7.96195e-09)
(-4.01026e-08 0 -7.38054e-09)
(-2.5682e-08 0 -6.80395e-09)
(-1.23852e-08 0 -6.25909e-09)
(-1.648e-10 0 -5.72535e-09)
(1.10126e-08 0 -5.21445e-09)
(2.12088e-08 0 -4.73801e-09)
(3.04668e-08 0 -4.2835e-09)
(3.8838e-08 0 -3.84478e-09)
(4.63724e-08 0 -3.44511e-09)
(5.31222e-08 0 -3.06035e-09)
(5.91357e-08 0 -2.7056e-09)
(6.44543e-08 0 -2.36528e-09)
(6.91123e-08 0 -2.04253e-09)
(7.31427e-08 0 -1.73462e-09)
(7.65664e-08 0 -1.4322e-09)
(7.94144e-08 0 -1.15873e-09)
(8.17267e-08 0 -8.82697e-10)
(8.34886e-08 0 -6.20033e-10)
(8.47497e-08 0 -3.62072e-10)
(8.54927e-08 0 -1.14221e-10)
(8.5756e-08 0 1.29612e-10)
(8.55341e-08 0 3.62663e-10)
(8.48565e-08 0 5.89741e-10)
(8.37271e-08 0 8.10899e-10)
(8.21643e-08 0 1.02184e-09)
(8.02016e-08 0 1.20825e-09)
(7.787e-08 0 1.38687e-09)
(7.51958e-08 0 1.54636e-09)
(7.22388e-08 0 1.66321e-09)
(6.90724e-08 0 1.7546e-09)
(6.57732e-08 0 1.78972e-09)
(6.24746e-08 0 1.75481e-09)
(5.93956e-08 0 1.5863e-09)
(5.6999e-08 0 1.13869e-09)
(5.64553e-08 0 -1.68386e-10)
(6.13199e-08 0 -4.13891e-09)
(8.08851e-08 0 -1.6547e-08)
(4.04059e-08 0 2.52773e-08)
(-5.04417e-10 0 2.04223e-08)
(2.33037e-14 0 -1.71725e-14)
(3.29119e-16 0 -3.93945e-18)
(6.66046e-16 0 -7.93059e-18)
(6.97541e-16 0 -7.09307e-18)
(7.44132e-16 0 -4.92173e-18)
(7.87693e-16 0 -2.46086e-18)
(8.25495e-16 0 3.10193e-20)
(8.56794e-16 0 2.4195e-18)
(8.81361e-16 0 4.69425e-18)
(8.99269e-16 0 6.80356e-18)
(9.10685e-16 0 8.7371e-18)
(9.15896e-16 0 1.05052e-17)
(9.15358e-16 0 1.20975e-17)
(9.09496e-16 0 1.35244e-17)
(8.9868e-16 0 1.47445e-17)
(8.83419e-16 0 1.57992e-17)
(8.64187e-16 0 1.6709e-17)
(8.41398e-16 0 1.74639e-17)
(8.15476e-16 0 1.80739e-17)
(7.86907e-16 0 1.85495e-17)
(7.56095e-16 0 1.89114e-17)
(7.23401e-16 0 1.91803e-17)
(6.89135e-16 0 1.93353e-17)
(6.53586e-16 0 1.94284e-17)
(6.17087e-16 0 1.94698e-17)
(5.79895e-16 0 1.94594e-17)
(5.42217e-16 0 1.93767e-17)
(5.04208e-16 0 1.9263e-17)
(4.66013e-16 0 1.91182e-17)
(4.27756e-16 0 1.89735e-17)
(3.89561e-16 0 1.87977e-17)
(3.51459e-16 0 1.86219e-17)
(3.13543e-16 0 1.84461e-17)
(2.75844e-16 0 1.82807e-17)
(2.38362e-16 0 1.81256e-17)
(2.01119e-16 0 1.79705e-17)
(1.64071e-16 0 1.78464e-17)
(1.27231e-16 0 1.7712e-17)
(9.05659e-17 0 1.76086e-17)
(5.40976e-17 0 1.74949e-17)
(1.79602e-17 0 1.72674e-17)
(-2.60961e-08 0 7.98606e-08)
(-8.05568e-08 0 8.07973e-08)
(-1.3346e-07 0 7.95032e-08)
(-1.84833e-07 0 7.67873e-08)
(-2.33984e-07 0 7.30436e-08)
(-2.80387e-07 0 6.84503e-08)
(-3.23569e-07 0 6.31274e-08)
(-3.63104e-07 0 5.71933e-08)
(-3.98622e-07 0 5.07607e-08)
(-4.29838e-07 0 4.39563e-08)
(-4.56541e-07 0 3.68938e-08)
(-4.78589e-07 0 2.96968e-08)
(-4.95912e-07 0 2.24651e-08)
(-5.08523e-07 0 1.52765e-08)
(-5.16507e-07 0 8.33249e-09)
(-5.20003e-07 0 2.13385e-09)
(-5.19666e-07 0 -3.59099e-09)
(-5.1499e-07 0 -1.03005e-08)
(-5.06351e-07 0 -1.57523e-08)
(-4.94556e-07 0 -2.00037e-08)
(-4.80038e-07 0 -2.34736e-08)
(-4.62437e-07 0 -2.89609e-08)
(-4.42457e-07 0 -3.13254e-08)
(-4.20814e-07 0 -3.38017e-08)
(-3.97595e-07 0 -3.60016e-08)
(-3.73145e-07 0 -3.7468e-08)
(-3.47945e-07 0 -3.83972e-08)
(-3.22251e-07 0 -3.88989e-08)
(-2.96361e-07 0 -3.89751e-08)
(-2.70547e-07 0 -3.86852e-08)
(-2.45053e-07 0 -3.80481e-08)
(-2.20085e-07 0 -3.71181e-08)
(-1.9581e-07 0 -3.59448e-08)
(-1.72387e-07 0 -3.45756e-08)
(-1.49931e-07 0 -3.30501e-08)
(-1.28525e-07 0 -3.13958e-08)
(-1.08242e-07 0 -2.96626e-08)
(-8.91405e-08 0 -2.78592e-08)
(-7.12068e-08 0 -2.60679e-08)
(-5.4481e-08 0 -2.42654e-08)
(-3.89388e-08 0 -2.24808e-08)
(-2.45479e-08 0 -2.07341e-08)
(-1.12876e-08 0 -1.90561e-08)
(8.80742e-10 0 -1.74246e-08)
(1.20134e-08 0 -1.58709e-08)
(2.21643e-08 0 -1.43984e-08)
(3.13658e-08 0 -1.30078e-08)
(3.96933e-08 0 -1.16746e-08)
(4.71901e-08 0 -1.04407e-08)
(5.38973e-08 0 -9.25883e-09)
(5.98682e-08 0 -8.16725e-09)
(6.51438e-08 0 -7.1195e-09)
(6.97582e-08 0 -6.12699e-09)
(7.37516e-08 0 -5.18322e-09)
(7.71518e-08 0 -4.26208e-09)
(7.99832e-08 0 -3.41739e-09)
(8.22822e-08 0 -2.57508e-09)
(8.40319e-08 0 -1.76031e-09)
(8.52732e-08 0 -9.64175e-10)
(8.59999e-08 0 -2.06196e-10)
(8.62541e-08 0 5.47037e-10)
(8.60228e-08 0 1.27002e-09)
(8.53284e-08 0 1.98202e-09)
(8.41735e-08 0 2.67126e-09)
(8.25864e-08 0 3.33004e-09)
(8.05863e-08 0 3.93221e-09)
(7.8203e-08 0 4.49367e-09)
(7.54852e-08 0 4.99433e-09)
(7.24694e-08 0 5.39098e-09)
(6.92197e-08 0 5.69364e-09)
(6.57951e-08 0 5.86014e-09)
(6.22663e-08 0 5.83484e-09)
(5.87204e-08 0 5.48466e-09)
(5.51822e-08 0 4.51582e-09)
(5.13101e-08 0 2.12739e-09)
(4.55119e-08 0 -3.8292e-09)
(2.8055e-08 0 -1.98633e-08)
(1.84517e-08 0 5.91075e-08)
(-3.86733e-10 0 4.83594e-08)
(1.81667e-14 0 -5.03599e-14)
(3.25138e-16 0 -1.15805e-17)
(6.62913e-16 0 -1.26352e-17)
(7.0055e-16 0 -7.90992e-18)
(7.48733e-16 0 -1.48893e-18)
(7.92636e-16 0 5.2009e-18)
(8.30386e-16 0 1.1746e-17)
(8.61457e-16 0 1.79912e-17)
(8.85755e-16 0 2.38435e-17)
(9.03333e-16 0 2.92305e-17)
(9.14386e-16 0 3.41212e-17)
(9.19256e-16 0 3.85156e-17)
(9.18377e-16 0 4.24447e-17)
(9.12132e-16 0 4.58775e-17)
(9.00965e-16 0 4.88347e-17)
(8.85394e-16 0 5.13059e-17)
(8.65851e-16 0 5.34049e-17)
(8.42763e-16 0 5.50799e-17)
(8.16562e-16 0 5.63827e-17)
(7.87745e-16 0 5.73857e-17)
(7.56715e-16 0 5.80888e-17)
(7.23804e-16 0 5.8523e-17)
(6.89383e-16 0 5.87298e-17)
(6.53731e-16 0 5.87712e-17)
(6.17128e-16 0 5.86575e-17)
(5.79823e-16 0 5.84196e-17)
(5.42031e-16 0 5.80474e-17)
(5.03949e-16 0 5.76235e-17)
(4.65713e-16 0 5.70858e-17)
(4.27435e-16 0 5.65585e-17)
(3.89209e-16 0 5.59795e-17)
(3.51107e-16 0 5.54004e-17)
(3.13202e-16 0 5.48524e-17)
(2.75524e-16 0 5.43148e-17)
(2.38063e-16 0 5.38391e-17)
(2.00829e-16 0 5.33532e-17)
(1.63813e-16 0 5.29499e-17)
(1.27003e-16 0 5.2557e-17)
(9.03385e-17 0 5.22365e-17)
(5.37564e-17 0 5.19676e-17)
(1.7743e-17 0 5.16574e-17)
(-2.69911e-08 0 1.33269e-07)
(-8.29061e-08 0 1.31629e-07)
(-1.36711e-07 0 1.28381e-07)
(-1.89005e-07 0 1.23659e-07)
(-2.39094e-07 0 1.17549e-07)
(-2.86395e-07 0 1.10174e-07)
(-3.30384e-07 0 1.01662e-07)
(-3.70612e-07 0 9.21719e-08)
(-4.06708e-07 0 8.18567e-08)
(-4.38368e-07 0 7.09147e-08)
(-4.65376e-07 0 5.95213e-08)
(-4.87588e-07 0 4.7854e-08)
(-5.0493e-07 0 3.60743e-08)
(-5.17414e-07 0 2.43039e-08)
(-5.2516e-07 0 1.29185e-08)
(-5.28412e-07 0 3.02044e-09)
(-5.2768e-07 0 -7.08568e-09)
(-5.22255e-07 0 -1.80031e-08)
(-5.13035e-07 0 -2.68981e-08)
(-5.00679e-07 0 -3.38544e-08)
(-4.85379e-07 0 -4.03078e-08)
(-4.66859e-07 0 -4.8784e-08)
(-4.46247e-07 0 -5.29271e-08)
(-4.23845e-07 0 -5.69878e-08)
(-3.99876e-07 0 -6.07124e-08)
(-3.7474e-07 0 -6.30167e-08)
(-3.48902e-07 0 -6.45495e-08)
(-3.22616e-07 0 -6.53268e-08)
(-2.96196e-07 0 -6.54068e-08)
(-2.69913e-07 0 -6.4845e-08)
(-2.44008e-07 0 -6.37235e-08)
(-2.1868e-07 0 -6.21213e-08)
(-1.94107e-07 0 -6.01201e-08)
(-1.70443e-07 0 -5.77758e-08)
(-1.47798e-07 0 -5.51789e-08)
(-1.26258e-07 0 -5.23822e-08)
(-1.05889e-07 0 -4.94536e-08)
(-8.67414e-08 0 -4.64062e-08)
(-6.87858e-08 0 -4.3397e-08)
(-5.20781e-08 0 -4.03584e-08)
(-3.65727e-08 0 -3.73581e-08)
(-2.2244e-08 0 -3.44351e-08)
(-9.07339e-09 0 -3.16114e-08)
(3.00672e-09 0 -2.88875e-08)
(1.40443e-08 0 -2.6303e-08)
(2.40931e-08 0 -2.38284e-08)
(3.31845e-08 0 -2.15066e-08)
(4.14046e-08 0 -1.93003e-08)
(4.87952e-08 0 -1.72309e-08)
(5.54103e-08 0 -1.52791e-08)
(6.12963e-08 0 -1.34452e-08)
(6.6491e-08 0 -1.17102e-08)
(7.10419e-08 0 -1.00582e-08)
(7.49801e-08 0 -8.49566e-09)
(7.8329e-08 0 -6.97073e-09)
(8.11233e-08 0 -5.5705e-09)
(8.33853e-08 0 -4.16419e-09)
(8.50959e-08 0 -2.80819e-09)
(8.63208e-08 0 -1.48213e-09)
(8.70203e-08 0 -2.20175e-10)
(8.72443e-08 0 1.03019e-09)
(8.6978e-08 0 2.24165e-09)
(8.62408e-08 0 3.42953e-09)
(8.50488e-08 0 4.57436e-09)
(8.34114e-08 0 5.67395e-09)
(8.13471e-08 0 6.69419e-09)
(7.88883e-08 0 7.6262e-09)
(7.60743e-08 0 8.45925e-09)
(7.29408e-08 0 9.14239e-09)
(6.95402e-08 0 9.67095e-09)
(6.59059e-08 0 1.00233e-08)
(6.20798e-08 0 1.01064e-08)
(5.80506e-08 0 9.86153e-09)
(5.36397e-08 0 9.1541e-09)
(4.822e-08 0 7.82493e-09)
(4.01913e-08 0 5.85527e-09)
(2.40239e-08 0 4.72208e-09)
(1.25857e-08 0 6.23748e-08)
(-3.68861e-10 0 6.12279e-08)
(1.73189e-14 0 -8.33172e-14)
(3.28094e-16 0 -1.91906e-17)
(6.69737e-16 0 -9.95719e-18)
(7.08697e-16 0 4.3427e-19)
(7.57232e-16 0 1.11463e-17)
(8.00928e-16 0 2.16721e-17)
(8.38296e-16 0 3.1712e-17)
(8.68902e-16 0 4.11626e-17)
(8.92611e-16 0 4.991e-17)
(9.09537e-16 0 5.79026e-17)
(9.19949e-16 0 6.51198e-17)
(9.24219e-16 0 7.15511e-17)
(9.2272e-16 0 7.71966e-17)
(9.15875e-16 0 8.20563e-17)
(9.04129e-16 0 8.62232e-17)
(8.87989e-16 0 8.96457e-17)
(8.6794e-16 0 9.24685e-17)
(8.44376e-16 0 9.46708e-17)
(8.17792e-16 0 9.63149e-17)
(7.88624e-16 0 9.75039e-17)
(7.57222e-16 0 9.82587e-17)
(7.24021e-16 0 9.86413e-17)
(6.89362e-16 0 9.86827e-17)
(6.53514e-16 0 9.84862e-17)
(6.16756e-16 0 9.80416e-17)
(5.79306e-16 0 9.74109e-17)
(5.41421e-16 0 9.66561e-17)
(5.03246e-16 0 9.57979e-17)
(4.64948e-16 0 9.48363e-17)
(4.26649e-16 0 9.3823e-17)
(3.88403e-16 0 9.282e-17)
(3.50321e-16 0 9.1786e-17)
(3.12457e-16 0 9.08244e-17)
(2.74831e-16 0 8.99042e-17)
(2.37401e-16 0 8.90253e-17)
(2.00229e-16 0 8.82188e-17)
(1.63285e-16 0 8.7495e-17)
(1.26528e-16 0 8.6885e-17)
(8.99662e-17 0 8.63577e-17)
(5.35083e-17 0 8.59648e-17)
(1.765e-17 0 8.57166e-17)
(-2.78702e-08 0 1.89416e-07)
(-8.5722e-08 0 1.87155e-07)
(-1.41427e-07 0 1.82628e-07)
(-1.95505e-07 0 1.75942e-07)
(-2.47225e-07 0 1.67224e-07)
(-2.95993e-07 0 1.56678e-07)
(-3.41278e-07 0 1.44479e-07)
(-3.82599e-07 0 1.30873e-07)
(-4.19569e-07 0 1.161e-07)
(-4.51883e-07 0 1.00425e-07)
(-4.79312e-07 0 8.41253e-08)
(-5.01718e-07 0 6.74319e-08)
(-5.19025e-07 0 5.06007e-08)
(-5.31227e-07 0 3.37819e-08)
(-5.3855e-07 0 1.75925e-08)
(-5.41387e-07 0 3.93358e-09)
(-5.39917e-07 0 -1.11655e-08)
(-5.33286e-07 0 -2.64324e-08)
(-5.23201e-07 0 -3.87986e-08)
(-5.10012e-07 0 -4.83418e-08)
(-4.93413e-07 0 -5.83118e-08)
(-4.73486e-07 0 -6.93173e-08)
(-4.51918e-07 0 -7.54313e-08)
(-4.28363e-07 0 -8.10653e-08)
(-4.03246e-07 0 -8.63622e-08)
(-3.77099e-07 0 -8.93622e-08)
(-3.50291e-07 0 -9.14705e-08)
(-3.23114e-07 0 -9.24556e-08)
(-2.95886e-07 0 -9.24666e-08)
(-2.68886e-07 0 -9.15653e-08)
(-2.42352e-07 0 -8.98952e-08)
(-2.16489e-07 0 -8.75492e-08)
(-1.91476e-07 0 -8.46373e-08)
(-1.67459e-07 0 -8.12608e-08)
(-1.44533e-07 0 -7.75258e-08)
(-1.22792e-07 0 -7.35264e-08)
(-1.02303e-07 0 -6.93467e-08)
(-8.30886e-08 0 -6.50151e-08)
(-6.5112e-08 0 -6.0742e-08)
(-4.84456e-08 0 -5.64335e-08)
(-3.30088e-08 0 -5.22028e-08)
(-1.87686e-08 0 -4.80645e-08)
(-5.72975e-09 0 -4.40828e-08)
(6.21029e-09 0 -4.02597e-08)
(1.70812e-08 0 -3.66248e-08)
(2.69694e-08 0 -3.31552e-08)
(3.59031e-08 0 -2.99046e-08)
(4.39662e-08 0 -2.68225e-08)
(5.12082e-08 0 -2.39267e-08)
(5.76773e-08 0 -2.12131e-08)
(6.34309e-08 0 -1.86489e-08)
(6.85083e-08 0 -1.62319e-08)
(7.29526e-08 0 -1.39422e-08)
(7.68049e-08 0 -1.17696e-08)
(8.00826e-08 0 -9.64836e-09)
(8.28145e-08 0 -7.70163e-09)
(8.50116e-08 0 -5.72578e-09)
(8.66821e-08 0 -3.84685e-09)
(8.78688e-08 0 -1.99667e-09)
(8.85444e-08 0 -2.22267e-10)
(8.87226e-08 0 1.53481e-09)
(8.84276e-08 0 3.24232e-09)
(8.76465e-08 0 4.91513e-09)
(8.63932e-08 0 6.53885e-09)
(8.46774e-08 0 8.09598e-09)
(8.25253e-08 0 9.55607e-09)
(7.99565e-08 0 1.089e-08)
(7.70047e-08 0 1.209e-08)
(7.37e-08 0 1.30994e-08)
(7.00869e-08 0 1.38993e-08)
(6.62125e-08 0 1.44923e-08)
(6.21065e-08 0 1.47754e-08)
(5.77666e-08 0 1.47707e-08)
(5.31132e-08 0 1.45112e-08)
(4.79342e-08 0 1.42011e-08)
(4.21894e-08 0 1.45895e-08)
(3.60844e-08 0 1.81109e-08)
(1.03961e-08 0 7.73849e-08)
(-3.63732e-10 0 7.07728e-08)
(1.68893e-14 0 -1.17171e-13)
(3.34382e-16 0 -2.69868e-17)
(6.82569e-16 0 -1.15392e-17)
(7.21674e-16 0 4.06353e-18)
(7.69981e-16 0 1.9356e-17)
(8.13191e-16 0 3.41005e-17)
(8.49856e-16 0 4.80592e-17)
(8.79676e-16 0 6.10976e-17)
(9.02516e-16 0 7.31124e-17)
(9.18522e-16 0 8.40829e-17)
(9.28004e-16 0 9.39367e-17)
(9.31333e-16 0 1.02726e-16)
(9.28883e-16 0 1.10377e-16)
(9.21159e-16 0 1.16943e-16)
(9.08575e-16 0 1.22495e-16)
(8.91628e-16 0 1.27107e-16)
(8.70856e-16 0 1.30798e-16)
(8.46609e-16 0 1.33693e-16)
(8.19416e-16 0 1.35844e-16)
(7.89709e-16 0 1.37312e-16)
(7.57853e-16 0 1.38222e-16)
(7.24238e-16 0 1.38615e-16)
(6.89217e-16 0 1.38553e-16)
(6.5309e-16 0 1.38129e-16)
(6.16063e-16 0 1.37395e-16)
(5.78427e-16 0 1.36423e-16)
(5.40397e-16 0 1.35285e-16)
(5.02119e-16 0 1.33962e-16)
(4.63749e-16 0 1.32576e-16)
(4.25419e-16 0 1.31087e-16)
(3.87183e-16 0 1.2963e-16)
(3.49112e-16 0 1.2813e-16)
(3.11299e-16 0 1.26703e-16)
(2.73704e-16 0 1.2537e-16)
(2.36367e-16 0 1.24067e-16)
(1.99299e-16 0 1.22898e-16)
(1.62479e-16 0 1.21844e-16)
(1.25866e-16 0 1.20986e-16)
(8.94286e-17 0 1.20272e-16)
(5.31257e-17 0 1.19734e-16)
(1.74949e-17 0 1.19352e-16)
(-2.90964e-08 0 2.47575e-07)
(-8.96046e-08 0 2.44587e-07)
(-1.47883e-07 0 2.38628e-07)
(-2.04399e-07 0 2.29812e-07)
(-2.58363e-07 0 2.18321e-07)
(-3.09154e-07 0 2.04403e-07)
(-3.562e-07 0 1.88314e-07)
(-3.99002e-07 0 1.70364e-07)
(-4.37151e-07 0 1.50904e-07)
(-4.70333e-07 0 1.30264e-07)
(-4.98313e-07 0 1.0882e-07)
(-5.20957e-07 0 8.68834e-08)
(-5.38169e-07 0 6.47644e-08)
(-5.49987e-07 0 4.26773e-08)
(-5.56834e-07 0 2.17648e-08)
(-5.58893e-07 0 4.89133e-09)
(-5.56159e-07 0 -1.7074e-08)
(-5.48276e-07 0 -3.63609e-08)
(-5.36988e-07 0 -5.1483e-08)
(-5.22433e-07 0 -6.28249e-08)
(-5.03963e-07 0 -7.99463e-08)
(-4.82536e-07 0 -9.0582e-08)
(-4.59422e-07 0 -9.92656e-08)
(-4.34299e-07 0 -1.06579e-07)
(-4.07652e-07 0 -1.13255e-07)
(-3.80158e-07 0 -1.16882e-07)
(-3.52018e-07 0 -1.19482e-07)
(-3.23641e-07 0 -1.20588e-07)
(-2.95326e-07 0 -1.20415e-07)
(-2.67364e-07 0 -1.19072e-07)
(-2.39991e-07 0 -1.16743e-07)
(-2.13421e-07 0 -1.13536e-07)
(-1.87827e-07 0 -1.09613e-07)
(-1.63342e-07 0 -1.05107e-07)
(-1.40065e-07 0 -1.00142e-07)
(-1.18069e-07 0 -9.48523e-08)
(-9.74302e-08 0 -8.93332e-08)
(-7.81335e-08 0 -8.36796e-08)
(-6.0138e-08 0 -7.80712e-08)
(-4.35235e-08 0 -7.24359e-08)
(-2.82212e-08 0 -6.69342e-08)
(-1.41216e-08 0 -6.15576e-08)
(-1.26523e-09 0 -5.63961e-08)
(1.04856e-08 0 -5.14553e-08)
(2.11437e-08 0 -4.67569e-08)
(3.08157e-08 0 -4.23013e-08)
(3.95337e-08 0 -3.81117e-08)
(4.73687e-08 0 -3.41658e-08)
(5.44101e-08 0 -3.04593e-08)
(6.06914e-08 0 -2.69871e-08)
(6.62714e-08 0 -2.37203e-08)
(7.11953e-08 0 -2.06308e-08)
(7.55069e-08 0 -1.77245e-08)
(7.92379e-08 0 -1.49574e-08)
(8.24103e-08 0 -1.22564e-08)
(8.50642e-08 0 -9.76584e-09)
(8.71918e-08 0 -7.24836e-09)
(8.88211e-08 0 -4.84676e-09)
(8.99436e-08 0 -2.49486e-09)
(9.05959e-08 0 -1.8781e-10)
(9.0711e-08 0 2.06508e-09)
(9.03667e-08 0 4.2744e-09)
(8.95212e-08 0 6.44434e-09)
(8.81975e-08 0 8.55314e-09)
(8.63993e-08 0 1.05934e-08)
(8.41261e-08 0 1.25072e-08)
(8.14087e-08 0 1.42634e-08)
(7.82764e-08 0 1.58715e-08)
(7.4772e-08 0 1.72341e-08)
(7.09137e-08 0 1.83566e-08)
(6.67581e-08 0 1.91939e-08)
(6.23731e-08 0 1.971e-08)
(5.78103e-08 0 1.99041e-08)
(5.3145e-08 0 1.98944e-08)
(4.84631e-08 0 1.99594e-08)
(4.41037e-08 0 2.06829e-08)
(3.93791e-08 0 2.38134e-08)
(9.53991e-09 0 1.05636e-07)
(-3.59651e-10 0 8.11798e-08)
(1.66995e-14 0 -1.5123e-13)
(3.43532e-16 0 -3.47726e-17)
(7.00808e-16 0 -1.37209e-17)
(7.39603e-16 0 7.13443e-18)
(7.87238e-16 0 2.72556e-17)
(8.29611e-16 0 4.64048e-17)
(8.65293e-16 0 6.44787e-17)
(8.93965e-16 0 8.12912e-17)
(9.15606e-16 0 9.67181e-17)
(9.30361e-16 0 1.10759e-16)
(9.38581e-16 0 1.23322e-16)
(9.4066e-16 0 1.34448e-16)
(9.36948e-16 0 1.44116e-16)
(9.28004e-16 0 1.52439e-16)
(9.14303e-16 0 1.59387e-16)
(8.96302e-16 0 1.65147e-16)
(8.74537e-16 0 1.69706e-16)
(8.49422e-16 0 1.73222e-16)
(8.21411e-16 0 1.75807e-16)
(7.90992e-16 0 1.77523e-16)
(7.58525e-16 0 1.78516e-16)
(7.24362e-16 0 1.78847e-16)
(6.88876e-16 0 1.7864e-16)
(6.52356e-16 0 1.77937e-16)
(6.1505e-16 0 1.76862e-16)
(5.77207e-16 0 1.75507e-16)
(5.3897e-16 0 1.73873e-16)
(5.00537e-16 0 1.72085e-16)
(4.62084e-16 0 1.70192e-16)
(4.23703e-16 0 1.68197e-16)
(3.85446e-16 0 1.66191e-16)
(3.47406e-16 0 1.64195e-16)
(3.09676e-16 0 1.62262e-16)
(2.72184e-16 0 1.60421e-16)
(2.3494e-16 0 1.58695e-16)
(1.98017e-16 0 1.57123e-16)
(1.61373e-16 0 1.55696e-16)
(1.24946e-16 0 1.54528e-16)
(8.87151e-17 0 1.53556e-16)
(5.25984e-17 0 1.52832e-16)
(1.72777e-17 0 1.52325e-16)
(-3.0726e-08 0 3.08653e-07)
(-9.46803e-08 0 3.04819e-07)
(-1.56198e-07 0 2.97266e-07)
(-2.15814e-07 0 2.86132e-07)
(-2.72654e-07 0 2.71651e-07)
(-3.26028e-07 0 2.54108e-07)
(-3.7532e-07 0 2.33847e-07)
(-4.20011e-07 0 2.11259e-07)
(-4.59667e-07 0 1.86783e-07)
(-4.93947e-07 0 1.60842e-07)
(-5.22613e-07 0 1.33909e-07)
(-5.45525e-07 0 1.0637e-07)
(-5.62526e-07 0 7.86575e-08)
(-5.73886e-07 0 5.08568e-08)
(-5.8033e-07 0 2.52848e-08)
(-5.81387e-07 0 3.65312e-09)
(-5.76509e-07 0 -2.38679e-08)
(-5.67334e-07 0 -4.70345e-08)
(-5.54571e-07 0 -6.58188e-08)
(-5.37889e-07 0 -8.04619e-08)
(-5.17094e-07 0 -1.01738e-07)
(-4.93936e-07 0 -1.13976e-07)
(-4.68743e-07 0 -1.24847e-07)
(-4.41598e-07 0 -1.33996e-07)
(-4.13053e-07 0 -1.41559e-07)
(-3.83799e-07 0 -1.46006e-07)
(-3.53982e-07 0 -1.4891e-07)
(-3.24083e-07 0 -1.50013e-07)
(-2.94403e-07 0 -1.49514e-07)
(-2.65228e-07 0 -1.47596e-07)
(-2.36807e-07 0 -1.44458e-07)
(-2.0936e-07 0 -1.40241e-07)
(-1.83039e-07 0 -1.35173e-07)
(-1.57988e-07 0 -1.294e-07)
(-1.34297e-07 0 -1.23089e-07)
(-1.1198e-07 0 -1.16392e-07)
(-9.11891e-08 0 -1.09424e-07)
(-7.18014e-08 0 -1.02401e-07)
(-5.38314e-08 0 -9.5354e-08)
(-3.72917e-08 0 -8.83329e-08)
(-2.21424e-08 0 -8.15043e-08)
(-8.24491e-09 0 -7.48634e-08)
(4.38747e-09 0 -6.8488e-08)
(1.58619e-08 0 -6.24105e-08)
(2.62347e-08 0 -5.664e-08)
(3.56127e-08 0 -5.11927e-08)
(4.40555e-08 0 -4.606e-08)
(5.15939e-08 0 -4.12684e-08)
(5.83708e-08 0 -3.67696e-08)
(6.44139e-08 0 -3.2557e-08)
(6.97725e-08 0 -2.86051e-08)
(7.45036e-08 0 -2.48745e-08)
(7.86507e-08 0 -2.13726e-08)
(8.22339e-08 0 -1.79994e-08)
(8.52817e-08 0 -1.47919e-08)
(8.78437e-08 0 -1.17642e-08)
(8.98901e-08 0 -8.69772e-09)
(9.14527e-08 0 -5.80261e-09)
(9.25341e-08 0 -2.94797e-09)
(9.31417e-08 0 -1.28303e-10)
(9.32283e-08 0 2.65731e-09)
(9.28115e-08 0 5.33506e-09)
(9.1927e-08 0 8.0451e-09)
(9.05123e-08 0 1.06543e-08)
(8.85959e-08 0 1.31889e-08)
(8.61885e-08 0 1.55865e-08)
(8.33043e-08 0 1.78462e-08)
(7.99713e-08 0 1.98414e-08)
(7.62076e-08 0 2.15964e-08)
(7.20567e-08 0 2.30894e-08)
(6.7572e-08 0 2.42179e-08)
(6.28318e-08 0 2.49491e-08)
(5.79691e-08 0 2.5247e-08)
(5.31809e-08 0 2.51816e-08)
(4.87523e-08 0 2.49187e-08)
(4.52838e-08 0 2.47741e-08)
(3.9323e-08 0 3.11976e-08)
(6.35794e-09 0 1.37364e-07)
(-3.54648e-10 0 8.74498e-08)
(1.65636e-14 0 -1.85313e-13)
(3.55443e-16 0 -4.25688e-17)
(7.24466e-16 0 -1.59232e-17)
(7.6264e-16 0 1.02881e-17)
(8.09241e-16 0 3.54137e-17)
(8.50404e-16 0 5.92158e-17)
(8.84742e-16 0 8.1591e-17)
(9.11915e-16 0 1.02302e-16)
(9.31984e-16 0 1.21254e-16)
(9.45137e-16 0 1.38398e-16)
(9.51692e-16 0 1.53742e-16)
(9.52116e-16 0 1.67215e-16)
(9.46874e-16 0 1.78909e-16)
(9.36441e-16 0 1.88928e-16)
(9.21283e-16 0 1.97262e-16)
(9.01947e-16 0 2.04076e-16)
(8.78942e-16 0 2.09452e-16)
(8.5271e-16 0 2.13526e-16)
(8.23707e-16 0 2.16432e-16)
(7.92408e-16 0 2.18334e-16)
(7.59186e-16 0 2.19286e-16)
(7.24372e-16 0 2.19503e-16)
(6.88307e-16 0 2.19037e-16)
(6.51301e-16 0 2.18003e-16)
(6.13623e-16 0 2.16504e-16)
(5.75449e-16 0 2.14633e-16)
(5.36995e-16 0 2.12451e-16)
(4.98438e-16 0 2.10104e-16)
(4.59861e-16 0 2.07591e-16)
(4.21418e-16 0 2.05027e-16)
(3.83191e-16 0 2.02401e-16)
(3.45193e-16 0 1.99826e-16)
(3.07515e-16 0 1.97314e-16)
(2.70147e-16 0 1.94925e-16)
(2.33079e-16 0 1.92681e-16)
(1.96321e-16 0 1.90655e-16)
(1.59884e-16 0 1.88845e-16)
(1.23726e-16 0 1.87305e-16)
(8.77329e-17 0 1.86023e-16)
(5.18849e-17 0 1.8504e-16)
(1.69986e-17 0 1.8441e-16)
(-3.27476e-08 0 3.73572e-07)
(-1.00989e-07 0 3.68833e-07)
(-1.66547e-07 0 3.5954e-07)
(-2.30004e-07 0 3.45869e-07)
(-2.90391e-07 0 3.28088e-07)
(-3.46954e-07 0 3.06575e-07)
(-3.99034e-07 0 2.81736e-07)
(-4.46049e-07 0 2.54088e-07)
(-4.87535e-07 0 2.24134e-07)
(-5.23134e-07 0 1.92428e-07)
(-5.52624e-07 0 1.59519e-07)
(-5.75786e-07 0 1.25923e-07)
(-5.92467e-07 0 9.20554e-08)
(-6.03571e-07 0 5.79828e-08)
(-6.09159e-07 0 3.00635e-08)
(-6.08826e-07 0 -6.1788e-10)
(-6.01432e-07 0 -3.27391e-08)
(-5.90715e-07 0 -5.98167e-08)
(-5.76082e-07 0 -8.125e-08)
(-5.56574e-07 0 -1.0076e-07)
(-5.32719e-07 0 -1.26119e-07)
(-5.07684e-07 0 -1.39506e-07)
(-4.79857e-07 0 -1.52609e-07)
(-4.50181e-07 0 -1.63737e-07)
(-4.19328e-07 0 -1.71856e-07)
(-3.87897e-07 0 -1.77051e-07)
(-3.56053e-07 0 -1.80105e-07)
(-3.24293e-07 0 -1.81039e-07)
(-2.92945e-07 0 -1.80039e-07)
(-2.62316e-07 0 -1.77354e-07)
(-2.32653e-07 0 -1.73212e-07)
(-2.04158e-07 0 -1.67819e-07)
(-1.76985e-07 0 -1.61432e-07)
(-1.51266e-07 0 -1.54216e-07)
(-1.27091e-07 0 -1.46418e-07)
(-1.04436e-07 0 -1.38183e-07)
(-8.34503e-08 0 -1.2963e-07)
(-6.40032e-08 0 -1.2113e-07)
(-4.6111e-08 0 -1.12572e-07)
(-2.96478e-08 0 -1.04079e-07)
(-1.4732e-08 0 -9.5868e-08)
(-1.12433e-09 0 -8.79252e-08)
(1.1247e-08 0 -8.02772e-08)
(2.23356e-08 0 -7.30502e-08)
(3.23753e-08 0 -6.61959e-08)
(4.13659e-08 0 -5.97623e-08)
(4.94657e-08 0 -5.37012e-08)
(5.66774e-08 0 -4.8057e-08)
(6.31063e-08 0 -4.27999e-08)
(6.88502e-08 0 -3.78716e-08)
(7.39392e-08 0 -3.32619e-08)
(7.84267e-08 0 -2.8921e-08)
(8.23611e-08 0 -2.48475e-08)
(8.57682e-08 0 -2.09069e-08)
(8.86847e-08 0 -1.72172e-08)
(9.11343e-08 0 -1.36506e-08)
(9.30982e-08 0 -1.0113e-08)
(9.46031e-08 0 -6.70254e-09)
(9.56369e-08 0 -3.3655e-09)
(9.61788e-08 0 -4.11918e-11)
(9.62485e-08 0 3.27962e-09)
(9.58068e-08 0 6.48465e-09)
(9.48224e-08 0 9.68008e-09)
(9.33302e-08 0 1.28411e-08)
(9.13021e-08 0 1.59012e-08)
(8.87498e-08 0 1.89013e-08)
(8.56703e-08 0 2.15359e-08)
(8.20998e-08 0 2.40455e-08)
(7.80383e-08 0 2.62829e-08)
(7.35226e-08 0 2.81692e-08)
(6.86186e-08 0 2.96382e-08)
(6.34163e-08 0 3.06004e-08)
(5.80503e-08 0 3.0973e-08)
(5.28157e-08 0 3.06458e-08)
(4.82824e-08 0 2.95808e-08)
(4.46097e-08 0 2.82631e-08)
(2.35442e-08 0 5.67252e-08)
(4.39517e-09 0 1.68893e-07)
(-3.48394e-10 0 8.87884e-08)
(1.62406e-14 0 -2.18718e-13)
(3.70208e-16 0 -5.02719e-17)
(7.53675e-16 0 -1.78671e-17)
(7.90929e-16 0 1.38553e-17)
(8.36176e-16 0 4.41508e-17)
(8.75778e-16 0 7.28229e-17)
(9.08358e-16 0 9.96132e-17)
(9.33629e-16 0 1.24367e-16)
(9.51723e-16 0 1.46959e-16)
(9.62859e-16 0 1.67318e-16)
(9.67388e-16 0 1.85485e-16)
(9.65827e-16 0 2.01387e-16)
(9.58661e-16 0 2.15098e-16)
(9.46357e-16 0 2.2671e-16)
(9.29441e-16 0 2.36367e-16)
(9.08482e-16 0 2.44142e-16)
(8.83987e-16 0 2.50232e-16)
(8.56401e-16 0 2.54761e-16)
(8.26219e-16 0 2.57915e-16)
(7.93856e-16 0 2.59869e-16)
(7.59683e-16 0 2.60717e-16)
(7.24104e-16 0 2.60686e-16)
(6.87387e-16 0 2.59828e-16)
(6.49823e-16 0 2.58329e-16)
(6.11669e-16 0 2.56281e-16)
(5.73143e-16 0 2.53789e-16)
(5.34441e-16 0 2.50998e-16)
(4.95667e-16 0 2.47968e-16)
(4.56986e-16 0 2.44763e-16)
(4.18502e-16 0 2.41495e-16)
(3.80265e-16 0 2.38156e-16)
(3.42339e-16 0 2.34878e-16)
(3.04754e-16 0 2.31704e-16)
(2.67541e-16 0 2.28674e-16)
(2.3068e-16 0 2.25851e-16)
(1.9417e-16 0 2.23256e-16)
(1.58012e-16 0 2.20981e-16)
(1.22144e-16 0 2.18986e-16)
(8.64611e-17 0 2.17373e-16)
(5.09647e-17 0 2.16153e-16)
(1.66367e-17 0 2.15346e-16)
(-3.52134e-08 0 4.43207e-07)
(-1.08689e-07 0 4.37471e-07)
(-1.79151e-07 0 4.2625e-07)
(-2.47258e-07 0 4.0975e-07)
(-3.11943e-07 0 3.88303e-07)
(-3.7236e-07 0 3.62383e-07)
(-4.27789e-07 0 3.32487e-07)
(-4.77593e-07 0 2.99233e-07)
(-5.21259e-07 0 2.63243e-07)
(-5.58433e-07 0 2.25192e-07)
(-5.88895e-07 0 1.85705e-07)
(-6.12165e-07 0 1.45637e-07)
(-6.28562e-07 0 1.04792e-07)
(-6.39677e-07 0 6.50032e-08)
(-6.43856e-07 0 3.38846e-08)
(-6.40795e-07 0 -7.94138e-09)
(-6.31585e-07 0 -4.33777e-08)
(-6.18731e-07 0 -7.46617e-08)
(-6.0138e-07 0 -9.6596e-08)
(-5.77951e-07 0 -1.29758e-07)
(-5.51743e-07 0 -1.49909e-07)
(-5.23489e-07 0 -1.68373e-07)
(-4.92695e-07 0 -1.8293e-07)
(-4.59904e-07 0 -1.96495e-07)
(-4.26446e-07 0 -2.04525e-07)
(-3.92286e-07 0 -2.10422e-07)
(-3.58027e-07 0 -2.13448e-07)
(-3.24058e-07 0 -2.13978e-07)
(-2.90757e-07 0 -2.1226e-07)
(-2.58417e-07 0 -2.08574e-07)
(-2.27291e-07 0 -2.03206e-07)
(-1.97591e-07 0 -1.96411e-07)
(-1.69454e-07 0 -1.88487e-07)
(-1.4299e-07 0 -1.79644e-07)
(-1.18269e-07 0 -1.70169e-07)
(-9.53054e-08 0 -1.60219e-07)
(-7.40996e-08 0 -1.49957e-07)
(-5.46295e-08 0 -1.39834e-07)
(-3.68307e-08 0 -1.29658e-07)
(-2.05936e-08 0 -1.1963e-07)
(-5.9231e-09 0 -1.09932e-07)
(7.29692e-09 0 -1.00644e-07)
(1.92549e-08 0 -9.17172e-08)
(2.99711e-08 0 -8.3275e-08)
(3.95318e-08 0 -7.53542e-08)
(4.80883e-08 0 -6.79175e-08)
(5.57188e-08 0 -6.09764e-08)
(6.25711e-08 0 -5.44645e-08)
(6.85651e-08 0 -4.84811e-08)
(7.39447e-08 0 -4.28768e-08)
(7.87126e-08 0 -3.76422e-08)
(8.29312e-08 0 -3.27328e-08)
(8.662e-08 0 -2.81304e-08)
(8.98241e-08 0 -2.36369e-08)
(9.25924e-08 0 -1.95262e-08)
(9.49128e-08 0 -1.54285e-08)
(9.67765e-08 0 -1.14632e-08)
(9.82293e-08 0 -7.56393e-09)
(9.92233e-08 0 -3.75065e-09)
(9.97435e-08 0 1.07698e-10)
(9.97842e-08 0 3.86867e-09)
(9.93042e-08 0 7.63734e-09)
(9.82849e-08 0 1.14362e-08)
(9.66946e-08 0 1.5131e-08)
(9.45469e-08 0 1.88065e-08)
(9.1835e-08 0 2.22149e-08)
(8.85573e-08 0 2.55149e-08)
(8.47057e-08 0 2.85581e-08)
(8.03068e-08 0 3.12963e-08)
(7.53927e-08 0 3.3656e-08)
(6.99949e-08 0 3.55433e-08)
(6.41647e-08 0 3.68385e-08)
(5.80052e-08 0 3.73954e-08)
(5.17963e-08 0 3.68505e-08)
(4.64558e-08 0 3.45647e-08)
(4.50831e-08 0 2.8821e-08)
(1.08056e-08 0 1.01338e-07)
(2.6554e-09 0 1.4202e-07)
(-3.41245e-10 0 9.12401e-08)
(1.57533e-14 0 -2.50976e-13)
(3.87868e-16 0 -5.77579e-17)
(7.88593e-16 0 -1.94491e-17)
(8.24658e-16 0 1.79912e-17)
(8.68219e-16 0 5.37357e-17)
(9.05866e-16 0 8.74433e-17)
(9.36286e-16 0 1.18866e-16)
(9.59261e-16 0 1.47838e-16)
(9.74946e-16 0 1.74215e-16)
(9.83652e-16 0 1.97882e-16)
(9.85751e-16 0 2.18882e-16)
(9.8175e-16 0 2.37194e-16)
(9.72206e-16 0 2.5289e-16)
(9.57699e-16 0 2.66083e-16)
(9.38705e-16 0 2.7694e-16)
(9.15813e-16 0 2.85594e-16)
(8.8956e-16 0 2.92284e-16)
(8.60392e-16 0 2.97154e-16)
(8.28804e-16 0 3.00422e-16)
(7.952e-16 0 3.02262e-16)
(7.59993e-16 0 3.02862e-16)
(7.23483e-16 0 3.02417e-16)
(6.8596e-16 0 3.01032e-16)
(6.47755e-16 0 2.98912e-16)
(6.09105e-16 0 2.96203e-16)
(5.70186e-16 0 2.92998e-16)
(5.31174e-16 0 2.89431e-16)
(4.92193e-16 0 2.85594e-16)
(4.53367e-16 0 2.81603e-16)
(4.1481e-16 0 2.77488e-16)
(3.76584e-16 0 2.73342e-16)
(3.38741e-16 0 2.69247e-16)
(3.01311e-16 0 2.65318e-16)
(2.64295e-16 0 2.61513e-16)
(2.27661e-16 0 2.57998e-16)
(1.91451e-16 0 2.54741e-16)
(1.55624e-16 0 2.51866e-16)
(1.20127e-16 0 2.49395e-16)
(8.49101e-17 0 2.47358e-16)
(4.98583e-17 0 2.45848e-16)
(1.61817e-17 0 2.44783e-16)
(-3.81633e-08 0 5.18537e-07)
(-1.17918e-07 0 5.11684e-07)
(-1.94253e-07 0 4.98287e-07)
(-2.67931e-07 0 4.78605e-07)
(-3.37752e-07 0 4.53047e-07)
(-4.02762e-07 0 4.22177e-07)
(-4.62151e-07 0 3.86639e-07)
(-5.15237e-07 0 3.47124e-07)
(-5.61458e-07 0 3.04411e-07)
(-6.00496e-07 0 2.59252e-07)
(-6.3187e-07 0 2.12633e-07)
(-6.55134e-07 0 1.65455e-07)
(-6.7237e-07 0 1.15261e-07)
(-6.82004e-07 0 7.51357e-08)
(-6.84403e-07 0 3.1145e-08)
(-6.78088e-07 0 -1.60667e-08)
(-6.67727e-07 0 -5.68481e-08)
(-6.51595e-07 0 -9.14563e-08)
(-6.29935e-07 0 -1.17094e-07)
(-6.02577e-07 0 -1.58807e-07)
(-5.73978e-07 0 -1.78633e-07)
(-5.4151e-07 0 -2.00233e-07)
(-5.07027e-07 0 -2.17287e-07)
(-4.70837e-07 0 -2.31463e-07)
(-4.34102e-07 0 -2.40448e-07)
(-3.96798e-07 0 -2.46515e-07)
(-3.59693e-07 0 -2.49298e-07)
(-3.23161e-07 0 -2.49159e-07)
(-2.87584e-07 0 -2.46444e-07)
(-2.53283e-07 0 -2.41484e-07)
(-2.20504e-07 0 -2.3461e-07)
(-1.89445e-07 0 -2.26141e-07)
(-1.60235e-07 0 -2.16424e-07)
(-1.32968e-07 0 -2.05728e-07)
(-1.07676e-07 0 -1.94355e-07)
(-8.44242e-08 0 -1.82442e-07)
(-6.29773e-08 0 -1.70453e-07)
(-4.35546e-08 0 -1.58423e-07)
(-2.59373e-08 0 -1.46547e-07)
(-1.00441e-08 0 -1.3492e-07)
(4.36307e-09 0 -1.23613e-07)
(1.70986e-08 0 -1.1291e-07)
(2.8509e-08 0 -1.02706e-07)
(3.87332e-08 0 -9.3041e-08)
(4.77731e-08 0 -8.39904e-08)
(5.57728e-08 0 -7.55792e-08)
(6.28703e-08 0 -6.77677e-08)
(6.91679e-08 0 -6.04839e-08)
(7.47966e-08 0 -5.36949e-08)
(7.96783e-08 0 -4.75185e-08)
(8.40716e-08 0 -4.17053e-08)
(8.79502e-08 0 -3.6277e-08)
(9.13531e-08 0 -3.1113e-08)
(9.43488e-08 0 -2.62632e-08)
(9.69584e-08 0 -2.17021e-08)
(9.91454e-08 0 -1.70983e-08)
(1.00937e-07 0 -1.27318e-08)
(1.02343e-07 0 -8.41037e-09)
(1.03314e-07 0 -4.12207e-09)
(1.03832e-07 0 2.30182e-10)
(1.03868e-07 0 4.52093e-09)
(1.03352e-07 0 8.84265e-09)
(1.02287e-07 0 1.32024e-08)
(1.00643e-07 0 1.75285e-08)