/*--------------------------------*- C++ -*----------------------------------*\
  =========                 |
  \\      /  F ield         | OpenFOAM: The Open Source CFD Toolbox
   \\    /   O peration     | Website:  https://openfoam.org
    \\  /    A nd           | Version:  6
     \\/     M anipulation  |
\*---------------------------------------------------------------------------*/
FoamFile
{
    version     2.0;
    format      ascii;
    class       surfaceScalarField;
    location    "4400";
    object      phi;
}
// * * * * * * * * * * * * * * * * * * * * * * * * * * * * * * * * * * * * * //

dimensions      [0 3 -1 0 0 0 0];

internalField   nonuniform List<scalar> 
9440
(
-2.07403e-14
2.07416e-14
-4.14563e-14
2.06322e-14
-6.18091e-14
2.02886e-14
-8.15422e-14
1.96701e-14
-1.0042e-13
1.88144e-14
-1.18195e-13
1.77106e-14
-1.34738e-13
1.6482e-14
-1.49934e-13
1.51322e-14
-1.63658e-13
1.3663e-14
-1.75775e-13
1.20543e-14
-1.86286e-13
1.04492e-14
-1.95116e-13
8.76532e-15
-2.02151e-13
6.97241e-15
-2.07813e-13
5.59878e-15
-2.12196e-13
4.31995e-15
-2.15634e-13
3.37452e-15
-2.17823e-13
2.12713e-15
-2.17337e-13
-5.49579e-16
-2.16089e-13
-1.31274e-15
-2.14765e-13
-1.38661e-15
-2.13135e-13
-1.69401e-15
-2.07749e-13
-5.45091e-15
-2.03476e-13
-4.33772e-15
-1.9825e-13
-5.2913e-15
-1.92133e-13
-6.18215e-15
-1.85515e-13
-6.68394e-15
-1.78399e-13
-7.18286e-15
-1.70706e-13
-7.76032e-15
-1.62606e-13
-8.16635e-15
-1.53915e-13
-8.75802e-15
-1.44685e-13
-9.29522e-15
-1.34966e-13
-9.78787e-15
-1.24704e-13
-1.03264e-14
-1.1394e-13
-1.08282e-14
-1.02598e-13
-1.14085e-14
-9.07533e-14
-1.19096e-14
-7.83741e-14
-1.24474e-14
-6.55344e-14
-1.29062e-14
-5.2216e-14
-1.33847e-14
-3.85054e-14
-1.37767e-14
-2.44361e-14
-1.41347e-14
-1.01193e-14
-1.43839e-14
4.37158e-15
-1.45576e-14
1.89955e-14
-1.46915e-14
3.35332e-14
-1.46016e-14
4.79834e-14
-1.45169e-14
6.21584e-14
-1.42408e-14
7.59332e-14
-1.38389e-14
8.91377e-14
-1.32692e-14
1.0175e-13
-1.26756e-14
1.13562e-13
-1.18761e-14
1.24525e-13
-1.10245e-14
1.34473e-13
-1.00109e-14
1.43315e-13
-8.90402e-15
1.50964e-13
-7.71077e-15
1.57471e-13
-6.57059e-15
1.62716e-13
-5.30701e-15
1.66716e-13
-4.06042e-15
1.69374e-13
-2.71931e-15
1.70875e-13
-1.56035e-15
1.71179e-13
-3.64668e-16
1.70358e-13
7.59704e-16
1.68453e-13
1.84422e-15
1.65584e-13
2.81105e-15
1.61816e-13
3.70662e-15
1.57379e-13
4.37931e-15
1.52234e-13
5.08577e-15
1.4656e-13
5.61419e-15
1.40558e-13
5.94431e-15
1.34482e-13
6.01896e-15
1.28464e-13
5.95927e-15
1.22911e-13
5.494e-15
1.184e-13
4.45286e-15
1.16464e-13
1.87674e-15
1.20965e-13
-4.55899e-15
1.44172e-13
-2.32663e-14
2.24501e-13
-8.03892e-14
1.02463e-13
1.21979e-13
3.58558e-17
1.02367e-13
7.67629e-22
1.52206e-22
7.62506e-22
1.29247e-24
7.57387e-22
4.96308e-24
7.45445e-22
7.08273e-24
7.31486e-22
8.89219e-24
7.15821e-22
1.05983e-23
6.99123e-22
1.22526e-23
6.81028e-22
1.34934e-23
6.619e-22
1.47859e-23
6.41737e-22
1.59232e-23
6.20696e-22
1.69572e-23
5.99241e-22
1.78878e-23
5.76907e-22
1.86116e-23
5.54418e-22
1.9387e-23
5.31515e-22
1.9904e-23
5.08561e-22
2.03693e-23
4.85452e-22
2.07829e-23
4.62497e-22
2.09897e-23
4.39543e-22
2.12482e-23
4.17002e-22
2.1455e-23
3.94565e-22
2.15584e-23
3.72438e-22
2.16101e-23
3.50776e-22
2.17135e-23
3.29476e-22
2.17652e-23
3.08383e-22
2.17652e-23
2.87807e-22
2.18169e-23
2.67386e-22
2.17652e-23
2.47379e-22
2.18686e-23
2.27733e-22
2.1972e-23
2.08243e-22
2.1972e-23
1.88959e-22
2.20754e-23
1.69934e-22
2.21271e-23
1.5096e-22
2.21788e-23
1.32349e-22
2.23856e-23
1.13686e-22
2.24373e-23
9.51258e-23
2.24373e-23
7.64108e-23
2.24373e-23
5.79543e-23
2.25407e-23
3.92394e-23
2.26441e-23
2.01625e-23
2.30577e-23
2.41433e-23
-2.02178e-14
4.0878e-14
-4.18094e-14
4.20945e-14
-6.29946e-14
4.13617e-14
-8.32656e-14
3.98313e-14
-1.02446e-13
3.7882e-14
-1.20483e-13
3.56341e-14
-1.37212e-13
3.30992e-14
-1.52491e-13
3.02995e-14
-1.66173e-13
2.72323e-14
-1.78309e-13
2.40751e-14
-1.88701e-13
2.07287e-14
-1.97344e-13
1.72971e-14
-2.04269e-13
1.37845e-14
-2.09724e-13
1.09394e-14
-2.13944e-13
8.42631e-15
-2.17557e-13
6.87373e-15
-2.19147e-13
3.60372e-15
-2.18512e-13
-1.30006e-15
-2.17258e-13
-2.6805e-15
-2.16019e-13
-2.74265e-15
-2.13727e-13
-4.10275e-15
-2.08692e-13
-1.06023e-14
-2.0422e-13
-8.92687e-15
-1.99009e-13
-1.06181e-14
-1.927e-13
-1.2606e-14
-1.86071e-13
-1.34285e-14
-1.78961e-13
-1.44105e-14
-1.71289e-13
-1.5552e-14
-1.631e-13
-1.64731e-14
-1.54391e-13
-1.75834e-14
-1.45174e-13
-1.8629e-14
-1.3546e-13
-1.96195e-14
-1.2519e-13
-2.07162e-14
-1.14401e-13
-2.17375e-14
-1.03157e-13
-2.2771e-14
-9.12306e-14
-2.3956e-14
-7.88396e-14
-2.49572e-14
-6.5973e-14
-2.58931e-14
-5.26052e-14
-2.68699e-14
-3.8835e-14
-2.76674e-14
-2.47288e-14
-2.83576e-14
-1.02928e-14
-2.89361e-14
4.30434e-15
-2.92716e-14
1.89777e-14
-2.94819e-14
3.37097e-14
-2.94503e-14
4.82659e-14
-2.91827e-14
6.25861e-14
-2.86779e-14
7.6463e-14
-2.78282e-14
8.98788e-14
-2.67996e-14
1.02584e-13
-2.54929e-14
1.14535e-13
-2.39381e-14
1.25539e-13
-2.21412e-14
1.3555e-13
-2.01333e-14
1.44489e-13
-1.79544e-14
1.52225e-13
-1.55564e-14
1.58742e-13
-1.31951e-14
1.63994e-13
-1.06664e-14
1.67946e-13
-8.12075e-15
1.70616e-13
-5.49911e-15
1.72061e-13
-3.11248e-15
1.72295e-13
-7.05897e-16
1.71446e-13
1.50039e-15
1.69464e-13
3.71969e-15
1.66484e-13
5.68533e-15
1.62669e-13
7.41468e-15
1.58012e-13
8.92768e-15
1.52691e-13
1.03013e-14
1.46892e-13
1.13089e-14
1.40783e-13
1.19485e-14
1.34438e-13
1.226e-14
1.28061e-13
1.22339e-14
1.21844e-13
1.16069e-14
1.16061e-13
1.0132e-14
1.10517e-13
7.31624e-15
1.03989e-13
1.86804e-15
8.8755e-14
-8.13426e-15
3.3744e-14
-2.54827e-14
2.83206e-14
1.27301e-13
2.83257e-17
1.3058e-13
7.6432e-22
3.11029e-22
7.66124e-22
2.58494e-24
7.59559e-22
6.97934e-24
7.47254e-22
1.08567e-23
7.33192e-22
1.43723e-23
7.17476e-22
1.7681e-23
7.00415e-22
2.0938e-23
6.82269e-22
2.40916e-23
6.62934e-22
2.68317e-23
6.42771e-22
2.93132e-23
6.21626e-22
3.14329e-23
5.99964e-22
3.35525e-23
5.77631e-22
3.5362e-23
5.54935e-22
3.69129e-23
5.32032e-22
3.83088e-23
5.08923e-22
3.94462e-23
4.85658e-22
4.04802e-23
4.62652e-22
4.1359e-23
4.3975e-22
4.21862e-23
4.17106e-22
4.28066e-23
3.94617e-22
4.33753e-23
3.72593e-22
4.37889e-23
3.50776e-22
4.42025e-23
3.29528e-22
4.46678e-23
3.08435e-22
4.49779e-23
2.87807e-22
4.53398e-23
2.6749e-22
4.565e-23
2.4743e-22
4.60119e-23
2.27733e-22
4.63738e-23
2.08346e-22
4.6684e-23
1.89011e-22
4.68908e-23
1.69986e-22
4.71493e-23
1.51167e-22
4.74078e-23
1.32401e-22
4.76146e-23
1.13686e-22
4.78731e-23
9.50741e-23
4.79248e-23
7.66176e-23
4.79765e-23
5.80577e-23
4.81833e-23
3.95496e-23
4.8235e-23
2.13516e-23
4.82867e-23
4.82867e-23
-2.24142e-14
6.32271e-14
-4.3587e-14
6.31521e-14
-6.4236e-14
6.19125e-14
-8.43591e-14
5.98547e-14
-1.03638e-13
5.70649e-14
-1.21775e-13
5.36713e-14
-1.38682e-13
4.99065e-14
-1.5412e-13
4.56426e-14
-1.68084e-13
4.10973e-14
-1.80321e-13
3.62167e-14
-1.90922e-13
3.12317e-14
-1.99646e-13
2.59219e-14
-2.06683e-13
2.07217e-14
-2.12171e-13
1.63303e-14
-2.16576e-13
1.27319e-14
-2.20558e-13
1.07554e-14
-2.21298e-13
4.24579e-15
-2.20442e-13
-2.25543e-15
-2.19454e-13
-3.76944e-15
-2.1849e-13
-3.80641e-15
-2.14707e-13
-7.98663e-15
-2.10233e-13
-1.51759e-14
-2.05601e-13
-1.36607e-14
-2.00239e-13
-1.60798e-14
-1.93723e-13
-1.92236e-14
-1.87168e-13
-2.00868e-14
-1.80011e-13
-2.16713e-14
-1.72315e-13
-2.3349e-14
-1.64132e-13
-2.47587e-14
-1.55464e-13
-2.63567e-14
-1.46304e-13
-2.7892e-14
-1.36569e-13
-2.94592e-14
-1.26297e-13
-3.10897e-14
-1.15492e-13
-3.26471e-14
-1.04181e-13
-3.41853e-14
-9.22682e-14
-3.59719e-14
-7.9851e-14
-3.7477e-14
-6.69112e-14
-3.89357e-14
-5.34048e-14
-4.04798e-14
-3.95034e-14
-4.16701e-14
-2.52501e-14
-4.27148e-14
-1.06858e-14
-4.36043e-14
4.15789e-15
-4.42175e-14
1.90732e-14
-4.44996e-14
3.40392e-14
-4.45176e-14
4.87999e-14
-4.40447e-14
6.3343e-14
-4.33229e-14
7.7499e-14
-4.20861e-14
9.11407e-14
-4.05378e-14
1.04126e-13
-3.85759e-14
1.16273e-13
-3.61838e-14
1.2753e-13
-3.34941e-14
1.37734e-13
-3.04318e-14
1.46759e-13
-2.70756e-14
1.54595e-13
-2.34859e-14
1.61253e-13
-1.99526e-14
1.66553e-13
-1.60612e-14
1.70509e-13
-1.21703e-14
1.73161e-13
-8.24397e-15
1.74516e-13
-4.56147e-15
1.7466e-13
-9.43116e-16
1.73554e-13
2.51273e-15
1.7137e-13
5.81123e-15
1.68226e-13
8.73535e-15
1.64129e-13
1.14195e-14
1.59208e-13
1.37576e-14
1.53687e-13
1.57321e-14
1.47582e-13
1.73218e-14
1.41077e-13
1.83614e-14
1.34336e-13
1.89094e-14
1.27416e-13
1.90643e-14
1.20449e-13
1.84838e-14
1.13189e-13
1.73001e-14
1.05051e-13
1.53636e-14
9.36022e-14
1.32264e-14
7.26566e-14
1.27215e-14
2.56697e-14
2.14122e-14
1.89268e-14
1.33952e-13
2.64252e-17
1.4941e-13
7.74247e-22
5.42643e-22
7.70519e-22
4.4461e-24
7.63384e-22
1.00813e-23
7.50822e-22
1.5613e-23
7.36501e-22
2.10931e-23
7.20733e-22
2.62113e-23
7.03465e-22
3.10193e-23
6.85061e-22
3.55171e-23
6.65415e-22
3.97047e-23
6.44891e-22
4.34787e-23
6.23746e-22
4.70976e-23
6.01774e-22
5.00961e-23
5.79285e-22
5.28879e-23
5.56279e-22
5.53694e-23
5.33221e-22
5.75408e-23
5.09957e-22
5.92985e-23
4.86589e-22
6.08495e-23
4.63428e-22
6.21936e-23
4.4037e-22
6.33827e-23
4.17675e-22
6.4365e-23
3.95082e-22
6.51922e-23
3.73058e-22
6.60711e-23
3.5119e-22
6.67431e-23
3.29787e-22
6.73635e-23
3.08849e-22
6.78805e-23
2.88169e-22
6.84492e-23
2.678e-22
6.89662e-23
2.47792e-22
6.95349e-23
2.28043e-22
7.00002e-23
2.08553e-22
7.05172e-23
1.89269e-22
7.0879e-23
1.70192e-22
7.11892e-23
1.51374e-22
7.14477e-23
1.32607e-22
7.17062e-23
1.13737e-22
7.1913e-23
9.51775e-23
7.21715e-23
7.6721e-23
7.23266e-23
5.81094e-23
7.23266e-23
3.9653e-23
7.22749e-23
2.13516e-23
7.22749e-23
7.21198e-23
-2.27797e-14
8.5945e-14
-4.4845e-14
8.51056e-14
-6.62474e-14
8.32167e-14
-8.69255e-14
8.04362e-14
-1.06688e-13
7.67332e-14
-1.25341e-13
7.22284e-14
-1.42646e-13
6.7117e-14
-1.58427e-13
6.1327e-14
-1.72558e-13
5.51338e-14
-1.85062e-13
4.86236e-14
-1.95637e-13
4.17093e-14
-2.04332e-13
3.45235e-14
-2.1154e-13
2.78329e-14
-2.16687e-13
2.1379e-14
-2.21162e-13
1.71074e-14
-2.25475e-13
1.49715e-14
-2.24739e-13
3.41547e-15
-2.23657e-13
-3.43676e-15
-2.22849e-13
-4.67296e-15
-2.22624e-13
-4.1293e-15
-2.15925e-13
-1.47838e-14
-2.12757e-13
-1.8444e-14
-2.07625e-13
-1.88929e-14
-2.02021e-13
-2.17835e-14
-1.95425e-13
-2.59172e-14
-1.88832e-13
-2.67809e-14
-1.81564e-13
-2.90382e-14
-1.73853e-13
-3.11598e-14
-1.65702e-13
-3.3009e-14
-1.57086e-13
-3.50734e-14
-1.47897e-13
-3.71816e-14
-1.3816e-13
-3.92961e-14
-1.27932e-13
-4.14204e-14
-1.17124e-13
-4.35551e-14
-1.05823e-13
-4.55871e-14
-9.38775e-14
-4.80174e-14
-8.1379e-14
-5.0076e-14
-6.83031e-14
-5.21129e-14
-5.47276e-14
-5.4155e-14
-4.06294e-14
-5.5869e-14
-2.60631e-14
-5.73804e-14
-1.12276e-14
-5.85402e-14
3.84462e-15
-5.93881e-14
1.91111e-14
-5.98666e-14
3.43748e-14
-5.988e-14
4.96071e-14
-5.93779e-14
6.45684e-14
-5.83799e-14
7.91225e-14
-5.67368e-14
9.31231e-14
-5.4635e-14
1.0646e-13
-5.20083e-14
1.18969e-13
-4.87872e-14
1.30498e-13
-4.51193e-14
1.40977e-13
-4.10048e-14
1.50287e-13
-3.64808e-14
1.58331e-13
-3.16244e-14
1.6503e-13
-2.67441e-14
1.70335e-13
-2.14597e-14
1.74294e-13
-1.62211e-14
1.76918e-13
-1.09602e-14
1.78142e-13
-5.87706e-15
1.78067e-13
-9.60598e-16
1.76805e-13
3.68349e-15
1.74385e-13
8.13911e-15
1.70907e-13
1.21234e-14
1.66474e-13
1.57614e-14
1.61183e-13
1.89575e-14
1.5521e-13
2.16128e-14
1.48658e-13
2.37863e-14
1.41683e-13
2.52504e-14
1.34365e-13
2.61375e-14
1.26868e-13
2.64718e-14
1.19216e-13
2.60476e-14
1.11352e-13
2.50751e-14
1.02746e-13
2.38814e-14
9.27147e-14
2.31675e-14
8.06473e-14
2.47006e-14
7.0446e-14
3.1523e-14
1.78057e-14
1.86503e-13
2.64466e-17
1.67116e-13
7.77555e-22
6.94847e-22
7.76154e-22
5.79027e-24
7.68968e-22
1.36485e-23
7.56198e-22
2.10414e-23
7.41671e-22
2.82275e-23
7.25489e-22
3.50001e-23
7.08015e-22
4.15141e-23
6.89197e-22
4.75629e-23
6.69241e-22
5.31981e-23
6.4851e-22
5.84196e-23
6.26796e-22
6.30725e-23
6.04514e-22
6.74152e-23
5.81767e-22
7.10341e-23
5.5845e-22
7.42395e-23
5.34979e-22
7.70829e-23
5.11508e-22
7.9461e-23
4.87882e-22
8.15807e-23
4.64565e-22
8.34419e-23
4.41404e-22
8.50445e-23
4.18553e-22
8.6337e-23
3.95961e-22
8.74744e-23
3.73627e-22
8.84566e-23
3.51862e-22
8.94906e-23
3.30252e-22
9.03178e-23
3.09417e-22
9.11967e-23
2.88686e-22
9.19205e-23
2.68368e-22
9.26442e-23
2.48258e-22
9.32129e-23
2.2856e-22
9.36782e-23
2.08967e-22
9.41952e-23
1.89579e-22
9.46088e-23
1.70451e-22
9.49707e-23
1.51684e-22
9.54877e-23
1.32814e-22
9.55911e-23
1.13996e-22
9.56945e-23
9.53326e-23
9.57462e-23
7.67727e-23
9.57979e-23
5.80577e-23
9.56945e-23
3.96013e-23
9.56428e-23
2.11965e-23
9.5436e-23
9.50224e-23
-2.34801e-14
1.09362e-13
-4.66048e-14
1.08121e-13
-6.91149e-14
1.0563e-13
-9.07036e-14
1.01929e-13
-1.11297e-13
9.72297e-14
-1.30647e-13
9.14818e-14
-1.48476e-13
8.48494e-14
-1.64718e-13
7.74753e-14
-1.79194e-13
6.95142e-14
-1.91757e-13
6.1091e-14
-2.02354e-13
5.22137e-14
-2.1106e-13
4.31311e-14
-2.18232e-13
3.49083e-14
-2.22892e-13
2.59412e-14
-2.27845e-13
2.19663e-14
-2.31045e-13
1.80731e-14
-2.2949e-13
1.76526e-15
-2.28487e-13
-4.5362e-15
-2.27716e-13
-5.54123e-15
-2.26771e-13
-5.17081e-15
-2.18811e-13
-2.28431e-14
-2.15854e-13
-2.15004e-14
-2.10386e-13
-2.44592e-14
-2.04209e-13
-2.80597e-14
-1.97703e-13
-3.25226e-14
-1.90913e-13
-3.36716e-14
-1.8357e-13
-3.6479e-14
-1.75837e-13
-3.89939e-14
-1.67728e-13
-4.12171e-14
-1.59086e-13
-4.3817e-14
-1.49938e-13
-4.64304e-14
-1.40352e-13
-4.8981e-14
-1.3018e-13
-5.16959e-14
-1.19397e-13
-5.44375e-14
-1.08077e-13
-5.70047e-14
-9.60319e-14
-6.01638e-14
-8.3466e-14
-6.27418e-14
-7.01965e-14
-6.54804e-14
-5.64038e-14
-6.80486e-14
-4.21021e-14
-7.0272e-14
-2.72937e-14
-7.22896e-14
-1.20753e-14
-7.38573e-14
3.4024e-15
-7.4965e-14
1.91457e-14
-7.5707e-14
3.49301e-14
-7.57648e-14
5.06505e-14
-7.51962e-14
6.61312e-14
-7.39584e-14
8.1257e-14
-7.19602e-14
9.57916e-14
-6.92663e-14
1.0963e-13
-6.59416e-14
1.22699e-13
-6.19508e-14
1.34648e-13
-5.71663e-14
1.45547e-13
-5.19948e-14
1.55127e-13
-4.61562e-14
1.63366e-13
-3.99595e-14
1.70237e-13
-3.37066e-14
1.75589e-13
-2.69042e-14
1.7953e-13
-2.02566e-14
1.82031e-13
-1.35518e-14
1.8312e-13
-7.05927e-15
1.82771e-13
-7.03389e-16
1.81201e-13
5.16088e-15
1.78362e-13
1.08901e-14
1.74491e-13
1.59016e-14
1.6964e-13
2.05243e-14
1.63794e-13
2.47138e-14
1.57256e-13
2.80606e-14
1.50171e-13
3.07829e-14
1.42564e-13
3.27679e-14
1.34555e-13
3.40562e-14
1.26451e-13
3.44863e-14
1.18211e-13
3.41976e-14
1.10064e-13
3.31347e-14
1.02134e-13
3.17218e-14
9.45332e-14
3.06791e-14
8.82249e-14
3.09175e-14
8.01994e-14
3.94584e-14
1.71018e-14
2.49513e-13
2.64571e-17
1.84119e-13
7.84173e-22
8.93372e-22
7.84012e-22
7.49633e-24
7.76361e-22
1.71123e-23
7.63436e-22
2.65732e-23
7.48392e-22
3.56205e-23
7.32055e-22
4.4461e-23
7.14064e-22
5.26294e-23
6.94832e-22
6.02291e-23
6.74411e-22
6.73118e-23
6.53163e-22
7.38776e-23
6.31035e-22
7.98229e-23
6.08185e-22
8.50962e-23
5.84972e-22
8.97491e-23
5.61294e-22
9.38333e-23
5.37409e-22
9.73488e-23
5.13576e-22
1.00451e-22
4.89794e-22
1.03087e-22
4.6622e-22
1.0531e-22
4.42697e-22
1.07172e-22
4.19587e-22
1.08878e-22
3.96943e-22
1.10377e-22
3.74661e-22
1.11669e-22
3.52741e-22
1.126e-22
3.31131e-22
1.13582e-22
3.10089e-22
1.14565e-22
2.8941e-22
1.1534e-22
2.68937e-22
1.16115e-22
2.48723e-22
1.16788e-22
2.29026e-22
1.17408e-22
2.0938e-22
1.17822e-22
1.89993e-22
1.18287e-22
1.70916e-22
1.18545e-22
1.51788e-22
1.18752e-22
1.32866e-22
1.18907e-22
1.14099e-22
1.18959e-22
9.53326e-23
1.18804e-22
7.66693e-23
1.18597e-22
5.79026e-23
1.18235e-22
3.93945e-23
1.17873e-22
2.07829e-23
1.1746e-22
1.17046e-22
-2.47275e-14
1.34027e-13
-4.90724e-14
1.32356e-13
-7.27399e-14
1.292e-13
-9.54738e-14
1.2457e-13
-1.17065e-13
1.18725e-13
-1.37271e-13
1.11593e-13
-1.55829e-13
1.03314e-13
-1.72655e-13
9.42055e-14
-1.87525e-13
8.42879e-14
-2.00209e-13
7.36829e-14
-2.10769e-13
6.26792e-14
-2.19878e-13
5.21454e-14
-2.26091e-13
4.10239e-14
-2.31161e-13
3.09165e-14
-2.37363e-13
2.80714e-14
-2.3662e-13
1.72314e-14
-2.35382e-13
4.33152e-16
-2.34592e-13
-5.42329e-15
-2.34366e-13
-5.86379e-15
-2.29694e-13
-9.93728e-15
-2.23354e-13
-2.92786e-14
-2.1934e-13
-2.56127e-14
-2.13686e-13
-3.02084e-14
-2.06739e-13
-3.51053e-14
-2.00503e-13
-3.8856e-14
-1.93407e-13
-4.08645e-14
-1.86046e-13
-4.39392e-14
-1.78322e-13
-4.6817e-14
-1.7024e-13
-4.94001e-14
-1.61626e-13
-5.25279e-14
-1.52598e-13
-5.55568e-14
-1.43036e-13
-5.86415e-14
-1.32907e-13
-6.19228e-14
-1.22166e-13
-6.52792e-14
-1.10796e-13
-6.84748e-14
-9.88101e-14
-7.22496e-14
-8.61414e-14
-7.55125e-14
-7.27009e-14
-7.90189e-14
-5.86909e-14
-8.21552e-14
-4.40849e-14
-8.49734e-14
-2.89026e-14
-8.75723e-14
-1.32187e-14
-8.9639e-14
2.83563e-15
-9.11164e-14
1.91156e-14
-9.20836e-14
3.55008e-14
-9.22459e-14
5.18966e-14
-9.16905e-14
6.8007e-14
-9.01645e-14
8.38016e-14
-8.78506e-14
9.91034e-14
-8.46641e-14
1.13672e-13
-8.06069e-14
1.27273e-13
-7.56468e-14
1.39893e-13
-6.988e-14
1.51255e-13
-6.3452e-14
1.61211e-13
-5.62033e-14
1.69817e-13
-4.8657e-14
1.76839e-13
-4.08229e-14
1.82331e-13
-3.24908e-14
1.862e-13
-2.42194e-14
1.8861e-13
-1.60535e-14
1.89399e-13
-7.94096e-15
1.88727e-13
-1.23317e-16
1.86808e-13
6.98995e-15
1.8358e-13
1.40276e-14
1.79106e-13
2.02876e-14
1.73618e-13
2.59219e-14
1.67216e-13
3.10276e-14
1.60061e-13
3.51289e-14
1.52226e-13
3.85287e-14
1.43836e-13
4.107e-14
1.351e-13
4.2702e-14
1.26154e-13
4.33454e-14
1.17236e-13
4.30283e-14
1.08701e-13
4.15799e-14
1.01154e-13
3.91806e-14
9.56452e-14
3.60997e-14
9.34056e-14
3.30694e-14
7.99769e-14
5.27986e-14
2.80745e-15
3.26593e-13
2.67586e-17
1.86829e-13
7.94099e-22
1.08528e-21
7.93628e-22
9.30578e-24
7.85822e-22
2.09897e-23
7.72483e-22
3.25185e-23
7.57232e-22
4.35821e-23
7.40172e-22
5.41286e-23
7.21715e-22
6.40548e-23
7.01915e-22
7.35674e-23
6.80925e-22
8.21494e-23
6.59108e-22
9.01627e-23
6.36309e-22
9.71937e-23
6.12889e-22
1.03604e-22
5.89056e-22
1.09188e-22
5.64809e-22
1.14099e-22
5.40459e-22
1.18287e-22
5.16264e-22
1.22009e-22
4.92017e-22
1.25111e-22
4.68029e-22
1.27748e-22
4.44455e-22
1.30022e-22
4.21138e-22
1.31884e-22
3.98236e-22
1.33486e-22
3.75643e-22
1.34882e-22
3.53723e-22
1.36175e-22
3.32061e-22
1.3726e-22
3.10865e-22
1.38087e-22
2.90185e-22
1.39018e-22
2.69558e-22
1.39587e-22
2.49343e-22
1.40207e-22
2.29491e-22
1.40621e-22
2.09845e-22
1.41034e-22
1.90252e-22
1.41344e-22
1.71175e-22
1.41396e-22
1.51943e-22
1.41448e-22
1.32969e-22
1.41344e-22
1.13944e-22
1.41034e-22
9.51258e-23
1.40724e-22
7.63074e-23
1.40155e-22
5.75925e-23
1.39483e-22
3.89809e-23
1.39018e-22
2.03693e-23
1.38294e-22
1.37622e-22
-2.6243e-14
1.60209e-13
-5.20851e-14
1.58084e-13
-7.7194e-14
1.54212e-13
-1.01347e-13
1.48626e-13
-1.24169e-13
1.41455e-13
-1.45476e-13
1.32805e-13
-1.64956e-13
1.22697e-13
-1.82451e-13
1.11608e-13
-1.97704e-13
9.94464e-14
-2.10543e-13
8.6425e-14
-2.21657e-13
7.36993e-14
-2.30476e-13
6.08667e-14
-2.35557e-13
4.60093e-14
-2.42405e-13
3.76699e-14
-2.48332e-13
3.39025e-14
-2.4368e-13
1.24856e-14
-2.42778e-13
-5.63544e-16
-2.42066e-13
-6.23029e-15
-2.43475e-13
-4.54971e-15
-2.30964e-13
-2.25432e-14
-2.29383e-13
-3.09561e-14
-2.23385e-13
-3.17086e-14
-2.17506e-13
-3.61815e-14
-2.09676e-13
-4.30309e-14
-2.0366e-13
-4.4968e-14
-1.96336e-13
-4.82845e-14
-1.8892e-13
-5.14541e-14
-1.81185e-13
-5.4649e-14
-1.73109e-13
-5.75756e-14
-1.64666e-13
-6.10685e-14
-1.55751e-13
-6.45717e-14
-1.46324e-13
-6.81631e-14
-1.36307e-13
-7.20393e-14
-1.25649e-13
-7.60348e-14
-1.14341e-13
-7.98805e-14
-1.02244e-13
-8.44426e-14
-8.95057e-14
-8.83474e-14
-7.5922e-14
-9.27008e-14
-6.16003e-14
-9.65733e-14
-4.65821e-14
-1.0009e-13
-3.09405e-14
-1.03312e-13
-1.4674e-14
-1.06e-13
1.96864e-15
-1.07858e-13
1.8909e-14
-1.09122e-13
3.61243e-14
-1.09557e-13
5.33155e-14
-1.08978e-13
7.04031e-14
-1.07347e-13
8.70967e-14
-1.04641e-13
1.0327e-13
-1.0093e-13
1.18648e-13
-9.60824e-14
1.33075e-13
-9.01664e-14
1.46347e-13
-8.32438e-14
1.58302e-13
-7.55039e-14
1.68774e-13
-6.67676e-14
1.77794e-13
-5.77701e-14
1.85006e-13
-4.8128e-14
1.90618e-13
-3.8195e-14
1.94477e-13
-2.81686e-14
1.96662e-13
-1.83293e-14
1.97156e-13
-8.52483e-15
1.96194e-13
7.48237e-16
1.93682e-13
9.41053e-15
1.89807e-13
1.78104e-14
1.84799e-13
2.52061e-14
1.78571e-13
3.20617e-14
1.7144e-13
3.80674e-14
1.63444e-13
4.30352e-14
1.54793e-13
4.70901e-14
1.45508e-13
5.02637e-14
1.35758e-13
5.23624e-14
1.25739e-13
5.32746e-14
1.15741e-13
5.29341e-14
1.06205e-13
5.10273e-14
9.81278e-14
4.71658e-14
9.28248e-14
4.13133e-14
9.23702e-14
3.34341e-14
1.1101e-14
1.33979e-13
-4.45049e-15
3.42059e-13
2.69364e-17
1.82281e-13
8.07334e-22
1.26395e-21
8.05312e-22
1.10118e-23
7.97299e-22
2.50222e-23
7.83599e-22
3.88258e-23
7.67727e-22
5.19056e-23
7.50149e-22
6.45201e-23
7.31176e-22
7.64625e-23
7.10497e-22
8.75261e-23
6.8899e-22
9.79175e-23
6.66139e-22
1.07068e-22
6.42719e-22
1.15547e-22
6.18473e-22
1.22991e-22
5.93967e-22
1.29661e-22
5.691e-22
1.35347e-22
5.44181e-22
1.40259e-22
5.19366e-22
1.44446e-22
4.94654e-22
1.47962e-22
4.70356e-22
1.51012e-22
4.46316e-22
1.53545e-22
4.22741e-22
1.55665e-22
3.99632e-22
1.57319e-22
3.76884e-22
1.58715e-22
3.54809e-22
1.60163e-22
3.32992e-22
1.61145e-22
3.11744e-22
1.62127e-22
2.90806e-22
1.62799e-22
2.70178e-22
1.63316e-22
2.49757e-22
1.6373e-22
2.29905e-22
1.64092e-22
2.10104e-22
1.64144e-22
1.90407e-22
1.64144e-22
1.71175e-22
1.63833e-22
1.51788e-22
1.63368e-22
1.32711e-22
1.62696e-22
1.13634e-22
1.62024e-22
9.45571e-23
1.61197e-22
7.56353e-23
1.60266e-22
5.70755e-23
1.59491e-22
3.83605e-23
1.58457e-22
1.96455e-23
1.57526e-22
1.56751e-22
-2.8134e-14
1.8828e-13
-5.58393e-14
1.85678e-13
-8.27433e-14
1.81017e-13
-1.08552e-13
1.74341e-13
-1.32868e-13
1.65677e-13
-1.55403e-13
1.55245e-13
-1.76039e-13
1.43238e-13
-1.94302e-13
1.29776e-13
-2.09983e-13
1.15037e-13
-2.23537e-13
9.98881e-14
-2.35023e-13
8.50937e-14
-2.42157e-13
6.79064e-14
-2.48248e-13
5.2007e-14
-2.57847e-13
4.71721e-14
-2.57191e-13
3.3152e-14
-2.53745e-13
8.94682e-15
-2.5209e-13
-2.31268e-15
-2.52148e-13
-6.26471e-15
-2.49761e-13
-7.03115e-15
-2.36052e-13
-3.63464e-14
-2.35446e-13
-3.16577e-14
-2.28006e-13
-3.92431e-14
-2.20976e-13
-4.33076e-14
-2.13601e-13
-5.04991e-14
-2.06897e-13
-5.17674e-14
-1.99552e-13
-5.57247e-14
-1.91982e-13
-5.91221e-14
-1.84439e-13
-6.22872e-14
-1.7648e-13
-6.56294e-14
-1.68166e-13
-6.94761e-14
-1.59499e-13
-7.33319e-14
-1.50189e-13
-7.75716e-14
-1.40336e-13
-8.19874e-14
-1.29768e-13
-8.66971e-14
-1.18548e-13
-9.1198e-14
-1.06582e-13
-9.65051e-14
-9.35512e-14
-1.01474e-13
-7.9808e-14
-1.06542e-13
-6.51899e-14
-1.11286e-13
-4.97313e-14
-1.15645e-13
-3.36096e-14
-1.1953e-13
-1.67536e-14
-1.22951e-13
7.43051e-16
-1.25447e-13
1.85741e-14
-1.27049e-13
3.6604e-14
-1.27682e-13
5.48714e-14
-1.27341e-13
7.30521e-14
-1.25619e-13
9.08683e-14
-1.22552e-13
1.08045e-13
-1.18204e-13
1.24498e-13
-1.12628e-13
1.39938e-13
-1.057e-13
1.54186e-13
-9.75848e-14
1.66836e-13
-8.82478e-14
1.77976e-13
-7.80003e-14
1.87377e-13
-6.7265e-14
1.94833e-13
-5.56757e-14
2.00528e-13
-4.39799e-14
2.04369e-13
-3.20999e-14
2.06326e-13
-2.03798e-14
2.06495e-13
-8.78385e-15
2.05036e-13
2.11561e-15
2.01974e-13
1.2384e-14
1.97413e-13
2.22822e-14
1.91507e-13
3.10228e-14
1.84477e-13
3.90027e-14
1.76517e-13
4.59396e-14
1.67619e-13
5.18445e-14
1.57892e-13
5.67274e-14
1.47564e-13
6.05033e-14
1.36682e-13
6.3156e-14
1.25382e-13
6.44857e-14
1.13831e-13
6.43953e-14
1.0231e-13
6.24571e-14
9.18133e-14
5.75739e-14
8.58411e-14
4.71979e-14
9.55385e-14
2.36465e-14
-2.3188e-14
2.52618e-13
5.21202e-16
3.18261e-13
2.62775e-17
1.82706e-13
8.20569e-22
1.51542e-21
8.19271e-22
1.35451e-23
8.11051e-22
2.96234e-23
7.9673e-22
4.54949e-23
7.80342e-22
6.10563e-23
7.62144e-22
7.58421e-23
7.42188e-22
8.96974e-23
7.20888e-22
1.02674e-22
6.98141e-22
1.14668e-22
6.74618e-22
1.25576e-22
6.50112e-22
1.35296e-22
6.25142e-22
1.43826e-22
5.99654e-22
1.51271e-22
5.73908e-22
1.5763e-22
5.48369e-22
1.63213e-22
5.22882e-22
1.67969e-22
4.97704e-22
1.71795e-22
4.72837e-22
1.75052e-22
4.48384e-22
1.77844e-22
4.24395e-22
1.80067e-22
4.01028e-22
1.81825e-22
3.78332e-22
1.83376e-22
3.55791e-22
1.84461e-22
3.33974e-22
1.85495e-22
3.12416e-22
1.86219e-22
2.91374e-22
1.86736e-22
2.7054e-22
1.86943e-22
2.5017e-22
1.8715e-22
2.29956e-22
1.86995e-22
2.1e-22
1.86684e-22
1.902e-22
1.86064e-22
1.70709e-22
1.8534e-22
1.51116e-22
1.84254e-22
1.31935e-22
1.83065e-22
1.12807e-22
1.81721e-22
9.36782e-23
1.80274e-22
7.48599e-23
1.7893e-22
5.60932e-23
1.77534e-22
3.73782e-23
1.76138e-22
1.88701e-23
1.75e-22
1.73915e-22
-3.04533e-14
2.18673e-13
-6.04247e-14
2.15539e-13
-8.94538e-14
2.0995e-13
-1.17205e-13
2.01998e-13
-1.43339e-13
1.91718e-13
-1.6739e-13
1.79202e-13
-1.89235e-13
1.6499e-13
-2.08504e-13
1.48949e-13
-2.25009e-13
1.3145e-13
-2.39423e-13
1.14209e-13
-2.50107e-13
9.56848e-14
-2.55876e-13
7.35812e-14
-2.66013e-13
6.20493e-14
-2.73844e-13
5.49104e-14
-2.66655e-13
2.58682e-14
-2.6609e-13
8.29013e-15
-2.64144e-13
-4.35328e-15
-2.64056e-13
-6.44733e-15
-2.50176e-13
-2.10051e-14
-2.47131e-13
-3.94854e-14
-2.40015e-13
-3.88689e-14
-2.33395e-13
-4.59573e-14
-2.2426e-13
-5.25374e-14
-2.18044e-13
-5.68074e-14
-2.10344e-13
-5.95601e-14
-2.02867e-13
-6.32991e-14
-1.9541e-13
-6.66733e-14
-1.87964e-13
-6.98279e-14
-1.80131e-13
-7.35563e-14
-1.72124e-13
-7.75762e-14
-1.63662e-13
-8.18882e-14
-1.54714e-13
-8.66139e-14
-1.45043e-13
-9.17521e-14
-1.34704e-13
-9.71287e-14
-1.23587e-13
-1.02411e-13
-1.11593e-13
-1.08593e-13
-9.8448e-14
-1.14715e-13
-8.45937e-14
-1.2049e-13
-6.96486e-14
-1.26327e-13
-5.37152e-14
-1.31671e-13
-3.68838e-14
-1.36456e-13
-1.93524e-14
-1.40576e-13
-1.0354e-15
-1.43859e-13
1.79418e-14
-1.4612e-13
3.72147e-14
-1.47048e-13
5.6604e-14
-1.46824e-13
7.60562e-14
-1.45165e-13
9.52578e-14
-1.41844e-13
1.13803e-13
-1.36842e-13
1.31496e-13
-1.30413e-13
1.48145e-13
-1.22443e-13
1.63333e-13
-1.12864e-13
1.76852e-13
-1.01859e-13
1.88902e-13
-9.01425e-14
1.98752e-13
-7.72069e-14
2.06611e-13
-6.36273e-14
2.12407e-13
-4.98653e-14
2.1617e-13
-3.59533e-14
2.17801e-13
-2.21035e-14
2.17582e-13
-8.65473e-15
2.15498e-13
4.10923e-15
2.11605e-13
1.61865e-14
2.06266e-13
2.75318e-14
1.99409e-13
3.77894e-14
1.91442e-13
4.68805e-14
1.8247e-13
5.48231e-14
1.72461e-13
6.17651e-14
1.61696e-13
6.7403e-14
1.50153e-13
7.19573e-14
1.38052e-13
7.51705e-14
1.25314e-13
7.71354e-14
1.11876e-13
7.77431e-14
9.75685e-14
7.66761e-14
8.16657e-14
7.33863e-14
6.25852e-14
6.61915e-14
3.30672e-14
5.30762e-14
-1.13181e-14
2.96917e-13
1.73599e-15
3.05117e-13
2.7002e-17
1.84344e-13
8.32149e-22
1.6246e-21
8.35349e-22
1.51994e-23
8.26922e-22
3.41729e-23
8.12291e-22
5.27845e-23
7.95179e-22
7.07239e-23
7.76051e-22
8.78362e-23
7.55216e-22
1.04018e-22
7.32882e-22
1.19062e-22
7.09049e-22
1.32763e-22
6.84337e-22
1.4517e-22
6.58694e-22
1.56234e-22
6.32586e-22
1.65901e-22
6.06065e-22
1.74277e-22
5.79543e-22
1.81566e-22
5.53125e-22
1.87615e-22
5.26759e-22
1.92681e-22
5.00961e-22
1.96817e-22
4.75629e-22
2.00229e-22
4.50607e-22
2.02969e-22
4.26205e-22
2.05193e-22
4.02475e-22
2.06899e-22
3.79469e-22
2.08243e-22
3.56825e-22
2.09277e-22
3.34646e-22
2.09949e-22
3.12933e-22
2.10311e-22
2.91633e-22
2.10414e-22
2.70695e-22
2.10414e-22
2.50015e-22
2.09949e-22
2.29698e-22
2.09277e-22
2.0938e-22
2.08243e-22
1.89476e-22
2.07105e-22
1.69572e-22
2.05503e-22
1.49978e-22
2.03693e-22
1.30591e-22
2.01832e-22
1.11359e-22
1.99764e-22
9.2334e-23
1.97644e-22
7.34123e-23
1.95473e-22
5.4749e-23
1.9356e-22
3.61892e-23
1.91751e-22
1.77844e-23
1.902e-22
1.88804e-22
-3.32085e-14
2.5182e-13
-6.57852e-14
2.48002e-13
-9.73326e-14
2.41401e-13
-1.2749e-13
2.32064e-13
-1.55709e-13
2.19845e-13
-1.81643e-13
2.05044e-13
-2.05191e-13
1.88444e-13
-2.24769e-13
1.68434e-13
-2.4331e-13
1.49896e-13
-2.5823e-13
1.29034e-13
-2.64987e-13
1.02349e-13
-2.76836e-13
8.53358e-14
-2.8931e-13
7.44282e-14
-2.83557e-13
4.90644e-14
-2.82752e-13
2.4972e-14
-2.78956e-13
4.40316e-15
-2.81754e-13
-1.64967e-15
-2.69522e-13
-1.8771e-14
-2.57914e-13
-3.2708e-14
-2.55682e-13
-4.18085e-14
-2.46314e-13
-4.83301e-14
-2.37773e-13
-5.45899e-14
-2.28862e-13
-6.15394e-14
-2.21857e-13
-6.3907e-14
-2.13824e-13
-6.76851e-14
-2.063e-13
-7.0914e-14
-1.98995e-13
-7.40716e-14
-1.9161e-13
-7.73046e-14
-1.84111e-13
-8.1147e-14
-1.76424e-13
-8.53561e-14
-1.68365e-13
-9.00407e-14
-1.5973e-13
-9.53398e-14
-1.50499e-13
-1.01076e-13
-1.40405e-13
-1.07314e-13
-1.2956e-13
-1.13347e-13
-1.17426e-13
-1.2082e-13
-1.04335e-13
-1.27898e-13
-9.01476e-14
-1.34771e-13
-7.49951e-14
-1.41569e-13
-5.85835e-14
-1.48176e-13
-4.109e-14
-1.54041e-13
-2.25755e-14
-1.59182e-13
-3.28844e-15
-1.63239e-13
1.68087e-14
-1.66311e-13
3.75379e-14
-1.67867e-13
5.84435e-14
-1.67823e-13
7.94526e-14
-1.66266e-13
1.00112e-13
-1.62593e-13
1.20292e-13
-1.57113e-13
1.39599e-13
-1.49812e-13
1.57636e-13
-1.40571e-13
1.74094e-13
-1.29412e-13
1.88983e-13
-1.16841e-13
2.01731e-13
-1.02978e-13
2.12122e-13
-8.76856e-14
2.20472e-13
-7.20663e-14
2.26376e-13
-5.58602e-14
2.29979e-13
-3.96462e-14
2.31212e-13
-2.34256e-14
2.30398e-13
-7.93126e-15
2.27568e-13
6.85063e-15
2.22843e-13
2.08244e-14
2.16464e-13
3.38208e-14
2.08634e-13
4.55312e-14
1.99541e-13
5.58847e-14
1.89308e-13
6.49694e-14
1.78146e-13
7.28402e-14
1.66123e-13
7.93354e-14
1.53397e-13
8.4594e-14
1.39994e-13
8.84843e-14
1.25852e-13
9.11886e-14
1.10834e-13
9.26704e-14
9.4207e-14
9.32143e-14
7.43127e-14
9.3193e-14
4.64418e-14
9.39765e-14
-6.30844e-15
1.05742e-13
-4.1968e-15
2.94716e-13
-8.66622e-16
3.01699e-13
2.63432e-17
1.8338e-13
8.5531e-22
1.79666e-21
8.54374e-22
1.73708e-23
8.45534e-22
3.92911e-23
8.30179e-22
6.07978e-23
8.12291e-22
8.1529e-23
7.92181e-22
1.01226e-22
7.70209e-22
1.19838e-22
7.46531e-22
1.3695e-22
7.21508e-22
1.52563e-22
6.954e-22
1.66522e-22
6.68362e-22
1.78878e-22
6.40962e-22
1.89683e-22
6.13251e-22
1.98885e-22
5.85592e-22
2.06692e-22
5.58192e-22
2.13154e-22
5.30947e-22
2.18531e-22
5.0427e-22
2.22925e-22
4.78369e-22
2.26389e-22
4.5283e-22
2.29077e-22
4.27963e-22
2.31145e-22
4.03819e-22
2.32696e-22
3.80503e-22
2.33834e-22
3.57445e-22
2.34402e-22
3.35008e-22
2.34661e-22
3.13036e-22
2.34713e-22
2.91581e-22
2.34299e-22
2.70178e-22
2.33368e-22
2.49343e-22
2.32334e-22
2.28612e-22
2.30835e-22
2.08243e-22
2.28974e-22
1.87925e-22
2.26751e-22
1.67814e-22
2.24321e-22
1.48117e-22
2.21633e-22
1.28523e-22
2.18634e-22
1.09291e-22
2.15739e-22
9.02144e-23
2.12741e-22
7.14994e-23
2.09845e-22
5.29396e-23
2.07209e-22
3.46899e-23
2.04779e-22
1.63368e-23
2.02711e-22
2.01212e-22
-3.64002e-14
2.88158e-13