/*--------------------------------*- C++ -*----------------------------------*\
  =========                 |
  \\      /  F ield         | OpenFOAM: The Open Source CFD Toolbox
   \\    /   O peration     | Website:  https://openfoam.org
    \\  /    A nd           | Version:  6
     \\/     M anipulation  |
\*---------------------------------------------------------------------------*/
FoamFile
{
    version     2.0;
    format      ascii;
    class       volVectorField;
    location    "4400";
    object      U;
}
// * * * * * * * * * * * * * * * * * * * * * * * * * * * * * * * * * * * * * //

dimensions      [0 1 -1 0 0 0 0];

internalField   nonuniform List<vector> 
4800
(
(-3.3848e-09 0 4.69053e-09)
(-1.27377e-08 0 1.92411e-09)
(-2.07996e-08 0 8.85748e-10)
(-2.88506e-08 0 5.89109e-10)
(-3.6601e-08 0 5.48245e-10)
(-4.39552e-08 0 6.02571e-10)
(-5.08348e-08 0 7.05835e-10)
(-5.71923e-08 0 8.16752e-10)
(-6.29781e-08 0 9.04594e-10)
(-6.81428e-08 0 9.48167e-10)
(-7.26643e-08 0 9.60732e-10)
(-7.653e-08 0 9.15186e-10)
(-7.9724e-08 0 7.99604e-10)
(-8.22837e-08 0 7.02549e-10)
(-8.42794e-08 0 5.84047e-10)
(-8.58017e-08 0 4.89455e-10)
(-8.68928e-08 0 3.24479e-10)
(-8.71049e-08 0 -1.53718e-10)
(-8.67295e-08 0 -2.80833e-10)
(-8.63125e-08 0 -2.67517e-10)
(-8.555e-08 0 -3.03671e-10)
(-8.39894e-08 0 -1.05226e-09)
(-8.213e-08 0 -8.01583e-10)
(-8.02239e-08 0 -9.82916e-10)
(-7.79447e-08 0 -1.13311e-09)
(-7.5397e-08 0 -1.23019e-09)
(-7.26669e-08 0 -1.31397e-09)
(-6.97235e-08 0 -1.41733e-09)
(-6.65734e-08 0 -1.48997e-09)
(-6.32293e-08 0 -1.6009e-09)
(-5.96558e-08 0 -1.70331e-09)
(-5.58793e-08 0 -1.79881e-09)
(-5.18952e-08 0 -1.90604e-09)
(-4.77008e-08 0 -2.00826e-09)
(-4.3283e-08 0 -2.12421e-09)
(-3.86511e-08 0 -2.22668e-09)
(-3.38132e-08 0 -2.33922e-09)
(-2.87797e-08 0 -2.43574e-09)
(-2.35412e-08 0 -2.53602e-09)
(-1.81448e-08 0 -2.62116e-09)
(-1.25921e-08 0 -2.69914e-09)
(-6.91282e-09 0 -2.75558e-09)
(-1.15617e-09 0 -2.79723e-09)
(4.66448e-09 0 -2.83051e-09)
(1.04942e-08 0 -2.81967e-09)
(1.62956e-08 0 -2.81025e-09)
(2.20161e-08 0 -2.76147e-09)
(2.76054e-08 0 -2.68789e-09)
(3.30019e-08 0 -2.58093e-09)
(3.81642e-08 0 -2.4692e-09)
(4.305e-08 0 -2.31606e-09)
(4.76032e-08 0 -2.15268e-09)
(5.1785e-08 0 -1.95672e-09)
(5.5543e-08 0 -1.7415e-09)
(5.88432e-08 0 -1.50899e-09)
(6.16734e-08 0 -1.28607e-09)
(6.4031e-08 0 -1.0392e-09)
(6.58752e-08 0 -7.95401e-10)
(6.72175e-08 0 -5.33046e-10)
(6.80472e-08 0 -3.06406e-10)
(6.84143e-08 0 -7.31551e-11)
(6.83107e-08 0 1.46252e-10)
(6.77663e-08 0 3.57077e-10)
(6.68124e-08 0 5.43513e-10)
(6.54848e-08 0 7.15691e-10)
(6.38442e-08 0 8.43141e-10)
(6.19281e-08 0 9.76539e-10)
(5.97666e-08 0 1.07444e-09)
(5.74311e-08 0 1.13488e-09)
(5.50177e-08 0 1.14313e-09)
(5.26008e-08 0 1.12659e-09)
(5.02917e-08 0 1.03771e-09)
(4.82934e-08 0 8.42047e-10)
(4.70283e-08 0 3.59114e-10)
(4.76734e-08 0 -8.78909e-10)
(5.35239e-08 0 -4.50726e-09)
(7.01406e-08 0 -1.7046e-08)
(4.72447e-08 0 1.31827e-08)
(3.56727e-11 0 1.99251e-08)
(2.64153e-16 0 3.0579e-17)
(1.54851e-16 0 2.58494e-19)
(3.03979e-16 0 9.92617e-19)
(3.00566e-16 0 1.41655e-18)
(2.95386e-16 0 1.77844e-18)
(2.89462e-16 0 2.11965e-18)
(2.82989e-16 0 2.45052e-18)
(2.7603e-16 0 2.69868e-18)
(2.68586e-16 0 2.95717e-18)
(2.60727e-16 0 3.18465e-18)
(2.52487e-16 0 3.39144e-18)
(2.43987e-16 0 3.57756e-18)
(2.3523e-16 0 3.72231e-18)
(2.26265e-16 0 3.87741e-18)
(2.17187e-16 0 3.98081e-18)
(2.08015e-16 0 4.07386e-18)
(1.98803e-16 0 4.15658e-18)
(1.8959e-16 0 4.19794e-18)
(1.80408e-16 0 4.24964e-18)
(1.71309e-16 0 4.291e-18)
(1.62314e-16 0 4.31168e-18)
(1.53401e-16 0 4.32202e-18)
(1.44643e-16 0 4.3427e-18)
(1.36051e-16 0 4.35304e-18)
(1.27572e-16 0 4.35304e-18)
(1.19238e-16 0 4.36338e-18)
(1.11039e-16 0 4.35304e-18)
(1.02953e-16 0 4.37372e-18)
(9.50224e-17 0 4.3944e-18)
(8.71952e-17 0 4.3944e-18)
(7.94404e-17 0 4.41508e-18)
(7.17786e-17 0 4.42542e-18)
(6.41789e-17 0 4.43576e-18)
(5.66619e-17 0 4.47712e-18)
(4.92069e-17 0 4.48746e-18)
(4.17623e-17 0 4.48746e-18)
(3.43073e-17 0 4.48746e-18)
(2.6873e-17 0 4.50813e-18)
(1.94387e-17 0 4.52881e-18)
(1.18804e-17 0 4.61153e-18)
(4.03251e-18 0 4.82867e-18)
(-3.30516e-09 0 1.27802e-08)
(-1.26597e-08 0 1.48298e-08)
(-2.11338e-08 0 1.52383e-08)
(-2.94564e-08 0 1.48861e-08)
(-3.73745e-08 0 1.41922e-08)
(-4.48435e-08 0 1.32865e-08)
(-5.18159e-08 0 1.22414e-08)
(-5.82248e-08 0 1.10936e-08)
(-6.40172e-08 0 9.86562e-09)
(-6.91782e-08 0 8.60284e-09)
(-7.36776e-08 0 7.3275e-09)
(-7.74819e-08 0 6.05313e-09)
(-8.0607e-08 0 4.77514e-09)
(-8.30943e-08 0 3.76284e-09)
(-8.50376e-08 0 2.87497e-09)
(-8.65399e-08 0 2.24106e-09)
(-8.75213e-08 0 1.41126e-09)
(-8.76068e-08 0 -2.52892e-10)
(-8.72321e-08 0 -7.31133e-10)
(-8.6781e-08 0 -7.60346e-10)
(-8.59196e-08 0 -1.02823e-09)
(-8.43031e-08 0 -3.25719e-09)
(-8.24705e-08 0 -2.62254e-09)
(-8.05164e-08 0 -3.18018e-09)
(-7.81984e-08 0 -3.73745e-09)
(-7.56214e-08 0 -4.03512e-09)
(-7.289e-08 0 -4.3255e-09)
(-6.99488e-08 0 -4.67286e-09)
(-6.67837e-08 0 -4.94377e-09)
(-6.34214e-08 0 -5.28901e-09)
(-5.985e-08 0 -5.60771e-09)
(-5.6075e-08 0 -5.90566e-09)
(-5.20886e-08 0 -6.23474e-09)
(-4.78932e-08 0 -6.54045e-09)
(-4.34869e-08 0 -6.86281e-09)
(-3.88569e-08 0 -7.20009e-09)
(-3.4004e-08 0 -7.50801e-09)
(-2.89628e-08 0 -7.7872e-09)
(-2.37064e-08 0 -8.07565e-09)
(-1.82908e-08 0 -8.31353e-09)
(-1.27178e-08 0 -8.52281e-09)
(-7.00588e-09 0 -8.68747e-09)
(-1.20848e-09 0 -8.78737e-09)
(4.64659e-09 0 -8.85434e-09)
(1.05256e-08 0 -8.82811e-09)
(1.63853e-08 0 -8.75685e-09)
(2.21565e-08 0 -8.5988e-09)
(2.77953e-08 0 -8.34683e-09)
(3.32545e-08 0 -8.02562e-09)
(3.8478e-08 0 -7.64334e-09)
(4.34095e-08 0 -7.17082e-09)
(4.79989e-08 0 -6.63865e-09)
(5.22021e-08 0 -6.03213e-09)
(5.59921e-08 0 -5.37285e-09)
(5.93284e-08 0 -4.65379e-09)
(6.21788e-08 0 -3.95015e-09)
(6.45393e-08 0 -3.19031e-09)
(6.63759e-08 0 -2.42948e-09)
(6.7712e-08 0 -1.63529e-09)
(6.8532e-08 0 -9.23096e-10)
(6.88739e-08 0 -1.99769e-10)
(6.87511e-08 0 4.6995e-10)
(6.81862e-08 0 1.13458e-09)
(6.7195e-08 0 1.72547e-09)
(6.5835e-08 0 2.25699e-09)
(6.4142e-08 0 2.69944e-09)
(6.21468e-08 0 3.12161e-09)
(5.99244e-08 0 3.4343e-09)
(5.75422e-08 0 3.63769e-09)
(5.5053e-08 0 3.72002e-09)
(5.25083e-08 0 3.71072e-09)
(4.99876e-08 0 3.49893e-09)
(4.75814e-08 0 3.00644e-09)
(4.5298e-08 0 1.9601e-09)
(4.28203e-08 0 -3.65487e-10)
(3.91027e-08 0 -6.08718e-09)
(2.37416e-08 0 -2.21509e-08)
(1.60013e-08 0 5.28836e-08)
(2.84999e-11 0 4.46764e-08)
(2.70587e-16 0 9.27396e-17)
(1.55586e-16 0 7.75482e-19)
(3.05137e-16 0 2.38848e-18)
(3.01363e-16 0 3.5879e-18)
(2.96089e-16 0 4.65289e-18)
(2.90134e-16 0 5.65585e-18)
(2.83578e-16 0 6.63813e-18)
(2.76537e-16 0 7.517e-18)
(2.69041e-16 0 8.32351e-18)
(2.61141e-16 0 9.04729e-18)
(2.52879e-16 0 9.67801e-18)
(2.44318e-16 0 1.02881e-17)
(2.35519e-16 0 1.07947e-17)
(2.26513e-16 0 1.126e-17)
(2.17393e-16 0 1.16426e-17)
(2.08191e-16 0 1.19631e-17)
(1.98916e-16 0 1.22526e-17)
(1.89662e-16 0 1.24697e-17)
(1.8048e-16 0 1.26869e-17)
(1.71371e-16 0 1.28523e-17)
(1.62345e-16 0 1.29867e-17)
(1.53442e-16 0 1.30798e-17)
(1.44674e-16 0 1.31832e-17)
(1.36061e-16 0 1.32866e-17)
(1.27593e-16 0 1.33486e-17)
(1.19248e-16 0 1.34313e-17)
(1.11059e-16 0 1.3483e-17)
(1.02984e-16 0 1.35761e-17)
(9.50327e-17 0 1.36692e-17)
(8.72159e-17 0 1.37312e-17)
(7.94714e-17 0 1.37932e-17)
(7.17993e-17 0 1.38553e-17)
(6.42306e-17 0 1.39173e-17)
(5.67136e-17 0 1.4e-17)
(4.92173e-17 0 1.40621e-17)
(4.17519e-17 0 1.40724e-17)
(3.43383e-17 0 1.40828e-17)
(2.69351e-17 0 1.41448e-17)
(1.95215e-17 0 1.41758e-17)
(1.21802e-17 0 1.42689e-17)
(4.27032e-18 0 1.4486e-17)
(-3.70819e-09 0 2.06717e-08)
(-1.35046e-08 0 2.05503e-08)
(-2.17442e-08 0 2.00523e-08)
(-2.99486e-08 0 1.93366e-08)
(-3.78716e-08 0 1.84233e-08)
(-4.53861e-08 0 1.7344e-08)
(-5.24152e-08 0 1.61456e-08)
(-5.88957e-08 0 1.47993e-08)
(-6.47772e-08 0 1.33455e-08)
(-7.00117e-08 0 1.1809e-08)
(-7.4571e-08 0 1.02129e-08)
(-7.84336e-08 0 8.53403e-09)
(-8.15818e-08 0 6.82616e-09)
(-8.409e-08 0 5.43577e-09)
(-8.6111e-08 0 4.22008e-09)
(-8.76656e-08 0 3.51552e-09)
(-8.85117e-08 0 1.66751e-09)
(-8.84291e-08 0 -6.11826e-10)
(-8.81382e-08 0 -1.24296e-09)
(-8.76715e-08 0 -1.32975e-09)
(-8.65872e-08 0 -2.23668e-09)
(-8.48355e-08 0 -5.18617e-09)
(-8.30635e-08 0 -4.47635e-09)
(-8.10259e-08 0 -5.30989e-09)
(-7.86371e-08 0 -6.31664e-09)
(-7.60514e-08 0 -6.68695e-09)
(-7.33166e-08 0 -7.18825e-09)
(-7.03623e-08 0 -7.75815e-09)
(-6.71961e-08 0 -8.22613e-09)
(-6.38439e-08 0 -8.76529e-09)
(-6.02895e-08 0 -9.28217e-09)
(-5.65224e-08 0 -9.79746e-09)
(-5.25336e-08 0 -1.03437e-08)
(-4.83313e-08 0 -1.08609e-08)
(-4.39108e-08 0 -1.13777e-08)
(-3.92713e-08 0 -1.19716e-08)
(-3.44145e-08 0 -1.24736e-08)
(-2.93541e-08 0 -1.29548e-08)
(-2.40527e-08 0 -1.34607e-08)
(-1.85859e-08 0 -1.38593e-08)
(-1.29576e-08 0 -1.42054e-08)
(-7.18776e-09 0 -1.45013e-08)
(-1.31675e-09 0 -1.46895e-08)
(4.63564e-09 0 -1.47898e-08)
(1.06099e-08 0 -1.47881e-08)
(1.6558e-08 0 -1.46396e-08)
(2.24144e-08 0 -1.43942e-08)
(2.81531e-08 0 -1.39772e-08)
(3.37139e-08 0 -1.34625e-08)
(3.90383e-08 0 -1.28092e-08)
(4.40652e-08 0 -1.20199e-08)
(4.87449e-08 0 -1.11239e-08)
(5.30362e-08 0 -1.01098e-08)
(5.68825e-08 0 -9.00247e-09)
(6.02559e-08 0 -7.80678e-09)
(6.31551e-08 0 -6.62646e-09)
(6.55525e-08 0 -5.34547e-09)
(6.73993e-08 0 -4.05957e-09)
(6.87355e-08 0 -2.74825e-09)
(6.95316e-08 0 -1.53706e-09)
(6.98379e-08 0 -3.31864e-10)
(6.9647e-08 0 7.97739e-10)
(6.89895e-08 0 1.90031e-09)
(6.79247e-08 0 2.87702e-09)
(6.64761e-08 0 3.7586e-09)
(6.46748e-08 0 4.52545e-09)
(6.25862e-08 0 5.19325e-09)
(6.02626e-08 0 5.7098e-09)
(5.77401e-08 0 6.04368e-09)
(5.50914e-08 0 6.21572e-09)
(5.23582e-08 0 6.24004e-09)
(4.95763e-08 0 6.00128e-09)
(4.67214e-08 0 5.47741e-09)
(4.36324e-08 0 4.52023e-09)
(3.96992e-08 0 3.00999e-09)
(3.35837e-08 0 8.48416e-10)
(1.93083e-08 0 -8.12784e-10)
(1.00686e-08 0 5.43814e-08)
(2.72107e-11 0 5.48475e-08)
(2.69502e-16 0 1.70974e-16)
(1.56513e-16 0 1.40621e-18)
(3.06781e-16 0 3.41212e-18)
(3.02841e-16 0 5.29396e-18)
(2.97465e-16 0 7.09307e-18)
(2.91447e-16 0 8.77846e-18)
(2.8484e-16 0 1.03915e-17)
(2.77705e-16 0 1.19217e-17)
(2.70095e-16 0 1.33073e-17)
(2.62061e-16 0 1.45584e-17)
(2.53727e-16 0 1.57061e-17)
(2.45104e-16 0 1.67297e-17)
(2.36212e-16 0 1.765e-17)
(2.27113e-16 0 1.84565e-17)
(2.179e-16 0 1.91699e-17)
(2.08636e-16 0 1.97489e-17)
(1.99309e-16 0 2.02659e-17)
(1.90003e-16 0 2.07105e-17)
(1.8076e-16 0 2.11138e-17)
(1.71609e-16 0 2.14343e-17)
(1.62551e-16 0 2.17135e-17)
(1.53628e-16 0 2.1972e-17)
(1.4485e-16 0 2.21891e-17)
(1.36195e-16 0 2.24063e-17)
(1.27727e-16 0 2.25717e-17)
(1.19404e-16 0 2.27578e-17)
(1.11194e-16 0 2.29232e-17)
(1.03118e-16 0 2.31094e-17)
(9.51671e-17 0 2.32748e-17)
(8.73193e-17 0 2.34402e-17)
(7.95644e-17 0 2.3554e-17)
(7.18923e-17 0 2.36677e-17)
(6.43133e-17 0 2.37711e-17)
(5.67963e-17 0 2.38642e-17)
(4.92689e-17 0 2.39572e-17)
(4.1783e-17 0 2.40193e-17)
(3.43797e-17 0 2.40606e-17)
(2.69661e-17 0 2.4102e-17)
(1.95525e-17 0 2.4102e-17)
(1.22009e-17 0 2.41123e-17)
(4.27032e-18 0 2.40813e-17)
(-3.75599e-09 0 2.99733e-08)
(-1.38541e-08 0 2.96505e-08)
(-2.24011e-08 0 2.89592e-08)
(-3.08629e-08 0 2.79757e-08)
(-3.89938e-08 0 2.66905e-08)
(-4.67117e-08 0 2.5139e-08)
(-5.39256e-08 0 2.33954e-08)
(-6.05535e-08 0 2.14179e-08)
(-6.6539e-08 0 1.93016e-08)
(-7.18622e-08 0 1.7051e-08)
(-7.64701e-08 0 1.46978e-08)
(-8.03431e-08 0 1.22199e-08)
(-8.34882e-08 0 9.78657e-09)
(-8.59666e-08 0 7.71581e-09)
(-8.80048e-08 0 6.04694e-09)
(-8.95413e-08 0 5.06543e-09)
(-9.0096e-08 0 1.90513e-09)
(-8.97525e-08 0 -1.00619e-09)
(-8.96165e-08 0 -1.74835e-09)
(-8.908e-08 0 -1.72738e-09)
(-8.75878e-08 0 -3.81184e-09)
(-8.56665e-08 0 -6.94513e-09)
(-8.39605e-08 0 -6.40434e-09)
(-8.17749e-08 0 -7.49659e-09)
(-7.93195e-08 0 -8.99474e-09)
(-7.67328e-08 0 -9.33188e-09)
(-7.39579e-08 0 -1.00977e-08)
(-7.09799e-08 0 -1.08625e-08)
(-6.78186e-08 0 -1.15152e-08)
(-6.44826e-08 0 -1.22483e-08)
(-6.09305e-08 0 -1.29833e-08)
(-5.71601e-08 0 -1.37213e-08)
(-5.31804e-08 0 -1.44739e-08)
(-4.89854e-08 0 -1.52152e-08)
(-4.4566e-08 0 -1.59296e-08)
(-3.99214e-08 0 -1.67773e-08)
(-3.50437e-08 0 -1.74927e-08)
(-2.99409e-08 0 -1.81852e-08)
(-2.45946e-08 0 -1.89093e-08)
(-1.90777e-08 0 -1.94912e-08)
(-1.33469e-08 0 -2.00042e-08)
(-7.45429e-09 0 -2.04149e-08)
(-1.49272e-09 0 -2.07091e-08)
(4.58102e-09 0 -2.08601e-08)
(1.06831e-08 0 -2.08668e-08)
(1.67896e-08 0 -2.06719e-08)
(2.28198e-08 0 -2.03309e-08)
(2.87214e-08 0 -1.97532e-08)
(3.44347e-08 0 -1.90228e-08)
(3.99024e-08 0 -1.81065e-08)
(4.50707e-08 0 -1.69844e-08)
(4.98765e-08 0 -1.57124e-08)
(5.42781e-08 0 -1.42774e-08)
(5.82368e-08 0 -1.27035e-08)
(6.17069e-08 0 -1.10133e-08)
(6.46575e-08 0 -9.33073e-09)
(6.70633e-08 0 -7.49771e-09)
(6.89143e-08 0 -5.67247e-09)
(7.02413e-08 0 -3.83146e-09)
(7.10114e-08 0 -2.08438e-09)
(7.12405e-08 0 -3.74536e-10)
(7.09808e-08 0 1.24603e-09)
(7.02411e-08 0 2.79337e-09)
(6.90648e-08 0 4.17855e-09)
(6.7482e-08 0 5.44025e-09)
(6.55379e-08 0 6.54798e-09)
(6.32858e-08 0 7.47498e-09)
(6.07824e-08 0 8.22657e-09)
(5.80778e-08 0 8.7269e-09)
(5.52196e-08 0 9.01256e-09)
(5.22542e-08 0 9.11087e-09)
(4.92227e-08 0 8.90616e-09)
(4.61169e-08 0 8.4676e-09)
(4.28261e-08 0 7.82956e-09)
(3.91206e-08 0 7.18756e-09)
(3.49395e-08 0 7.24584e-09)
(2.99378e-08 0 1.03614e-08)
(8.70391e-09 0 6.3723e-08)
(2.72776e-11 0 6.23374e-08)
(2.73202e-16 0 2.47766e-16)
(1.57671e-16 0 2.04727e-18)
(3.09024e-16 0 4.74595e-18)
(3.05033e-16 0 7.33089e-18)
(2.99574e-16 0 9.86413e-18)
(2.93432e-16 0 1.22423e-17)
(2.86701e-16 0 1.45067e-17)
(2.79442e-16 0 1.6616e-17)
(2.71687e-16 0 1.85805e-17)
(2.6355e-16 0 2.03797e-17)
(2.55061e-16 0 2.2034e-17)
(2.46262e-16 0 2.35023e-17)
(2.37256e-16 0 2.47844e-17)
(2.28043e-16 0 2.59218e-17)
(2.18686e-16 0 2.69247e-17)
(2.09297e-16 0 2.77519e-17)
(1.99878e-16 0 2.8486e-17)
(1.90489e-16 0 2.91271e-17)
(1.81194e-16 0 2.96854e-17)
(1.71992e-16 0 3.01404e-17)
(1.62903e-16 0 3.05333e-17)
(1.53918e-16 0 3.09055e-17)
(1.45098e-16 0 3.12468e-17)
(1.36423e-16 0 3.15363e-17)
(1.27934e-16 0 3.18154e-17)
(1.19621e-16 0 3.20739e-17)
(1.11411e-16 0 3.23221e-17)
(1.03325e-16 0 3.25496e-17)
(9.53636e-17 0 3.27357e-17)
(8.75054e-17 0 3.29425e-17)
(7.97092e-17 0 3.30976e-17)
(7.20061e-17 0 3.3232e-17)
(6.4427e-17 0 3.33871e-17)
(5.68997e-17 0 3.34595e-17)
(4.9362e-17 0 3.35215e-17)
(4.18657e-17 0 3.35835e-17)
(3.44211e-17 0 3.36249e-17)
(2.69661e-17 0 3.36042e-17)
(1.95318e-17 0 3.35835e-17)
(1.21596e-17 0 3.35422e-17)
(4.2393e-18 0 3.34284e-17)
(-3.83366e-09 0 3.93943e-08)
(-1.43567e-08 0 3.90184e-08)
(-2.33363e-08 0 3.81536e-08)
(-3.2201e-08 0 3.68532e-08)
(-4.06789e-08 0 3.51588e-08)
(-4.87015e-08 0 3.30897e-08)
(-5.61607e-08 0 3.07214e-08)
(-6.29883e-08 0 2.80704e-08)
(-6.91352e-08 0 2.52216e-08)
(-7.45385e-08 0 2.222e-08)
(-7.91735e-08 0 1.90605e-08)
(-8.30673e-08 0 1.57374e-08)
(-8.61439e-08 0 1.27217e-08)
(-8.86183e-08 0 9.80562e-09)
(-9.06404e-08 0 8.00795e-09)
(-9.18414e-08 0 7.06655e-09)
(-9.21316e-08 0 1.00249e-09)
(-9.16952e-08 0 -1.58072e-09)
(-9.15812e-08 0 -1.75523e-09)
(-9.07438e-08 0 -1.53632e-09)
(-8.88639e-08 0 -7.87787e-09)
(-8.69235e-08 0 -7.73307e-09)
(-8.50937e-08 0 -8.61094e-09)
(-8.276e-08 0 -9.8541e-09)
(-8.021e-08 0 -1.16999e-08)
(-7.76077e-08 0 -1.20078e-08)
(-7.47712e-08 0 -1.30515e-08)
(-7.17801e-08 0 -1.39772e-08)
(-6.86234e-08 0 -1.47949e-08)
(-6.52852e-08 0 -1.57299e-08)
(-6.17402e-08 0 -1.66779e-08)
(-5.80101e-08 0 -1.76142e-08)
(-5.4069e-08 0 -1.85843e-08)
(-4.98913e-08 0 -1.95622e-08)
(-4.54733e-08 0 -2.0484e-08)
(-4.08007e-08 0 -2.16066e-08)
(-3.58966e-08 0 -2.25387e-08)
(-3.07356e-08 0 -2.34876e-08)
(-2.53092e-08 0 -2.44178e-08)
(-1.97077e-08 0 -2.52086e-08)
(-1.38948e-08 0 -2.59127e-08)
(-7.86467e-09 0 -2.64551e-08)
(-1.75187e-09 0 -2.6858e-08)
(4.50052e-09 0 -2.7097e-08)
(1.07993e-08 0 -2.71132e-08)
(1.71062e-08 0 -2.69e-08)
(2.33466e-08 0 -2.64537e-08)
(2.94588e-08 0 -2.57267e-08)
(3.53931e-08 0 -2.47678e-08)
(4.1071e-08 0 -2.35773e-08)
(4.64511e-08 0 -2.21355e-08)
(5.14512e-08 0 -2.04453e-08)
(5.60215e-08 0 -1.85874e-08)
(6.01192e-08 0 -1.65245e-08)
(6.36799e-08 0 -1.42969e-08)
(6.67075e-08 0 -1.2079e-08)
(6.91513e-08 0 -9.66517e-09)
(7.10169e-08 0 -7.28579e-09)
(7.23029e-08 0 -4.89661e-09)
(7.30383e-08 0 -2.57357e-09)
(7.31732e-08 0 -3.31909e-10)
(7.28002e-08 0 1.78143e-09)
(7.19173e-08 0 3.80808e-09)
(7.05745e-08 0 5.61466e-09)
(6.88332e-08 0 7.26558e-09)
(6.66931e-08 0 8.73861e-09)
(6.42175e-08 0 9.93268e-09)
(6.14931e-08 0 1.0928e-08)
(5.8557e-08 0 1.16154e-08)
(5.54348e-08 0 1.20457e-08)
(5.22112e-08 0 1.21967e-08)
(4.89415e-08 0 1.20515e-08)
(4.56655e-08 0 1.1635e-08)
(4.24542e-08 0 1.10948e-08)
(3.93413e-08 0 1.07309e-08)
(3.6657e-08 0 1.119e-08)
(3.35149e-08 0 1.44572e-08)
(8.37099e-09 0 8.61741e-08)
(2.71262e-11 0 7.12783e-08)
(2.76176e-16 0 3.18151e-16)
(1.59289e-16 0 2.65732e-18)
(3.12075e-16 0 6.15216e-18)
(3.07959e-16 0 9.52292e-18)
(3.02366e-16 0 1.27696e-17)
(2.96089e-16 0 1.58922e-17)
(2.89224e-16 0 1.88287e-17)
(2.81779e-16 0 2.15584e-17)
(2.73849e-16 0 2.4102e-17)
(2.65515e-16 0 2.64594e-17)
(2.5684e-16 0 2.85791e-17)
(2.47844e-16 0 3.05023e-17)
(2.38631e-16 0 3.21566e-17)
(2.29253e-16 0 3.36146e-17)
(2.19741e-16 0 3.48863e-17)
(2.10197e-16 0 3.59824e-17)
(2.00674e-16 0 3.69336e-17)
(1.91203e-16 0 3.77505e-17)
(1.81783e-16 0 3.84432e-17)
(1.72457e-16 0 3.90429e-17)
(1.63306e-16 0 3.95703e-17)
(1.54321e-16 0 4.00252e-17)
(1.4548e-16 0 4.04181e-17)
(1.36774e-16 0 4.078e-17)
(1.28244e-16 0 4.11522e-17)
(1.199e-16 0 4.14521e-17)
(1.11669e-16 0 4.17519e-17)
(1.03532e-16 0 4.20001e-17)
(9.55497e-17 0 4.22172e-17)
(8.76812e-17 0 4.24033e-17)
(7.98746e-17 0 4.25791e-17)
(7.21819e-17 0 4.27032e-17)
(6.45408e-17 0 4.2848e-17)
(5.69307e-17 0 4.28997e-17)
(4.9393e-17 0 4.29307e-17)
(4.18864e-17 0 4.291e-17)
(3.44004e-17 0 4.2879e-17)
(2.69144e-17 0 4.27859e-17)
(1.94594e-17 0 4.27032e-17)
(1.20355e-17 0 4.25791e-17)
(4.15658e-18 0 4.24137e-17)
(-4.00451e-09 0 4.9083e-08)
(-1.51192e-08 0 4.85324e-08)
(-2.45625e-08 0 4.74093e-08)
(-3.38939e-08 0 4.57394e-08)
(-4.27973e-08 0 4.3618e-08)
(-5.11912e-08 0 4.10279e-08)
(-5.89696e-08 0 3.80294e-08)
(-6.60633e-08 0 3.47126e-08)
(-7.24028e-08 0 3.11189e-08)
(-7.79117e-08 0 2.7314e-08)
(-8.2609e-08 0 2.33246e-08)
(-8.65178e-08 0 1.91669e-08)
(-8.94048e-08 0 1.5761e-08)
(-9.20814e-08 0 1.14458e-08)
(-9.41853e-08 0 9.76682e-09)
(-9.47398e-08 0 7.90882e-09)
(-9.45192e-08 0 7.04262e-10)
(-9.43281e-08 0 -1.79137e-09)
(-9.40235e-08 0 -2.39631e-09)
(-9.25859e-08 0 -2.51232e-09)
(-9.04358e-08 0 -1.03428e-08)
(-8.85331e-08 0 -9.34818e-09)
(-8.64235e-08 0 -1.08517e-08)
(-8.3919e-08 0 -1.24709e-08)
(-8.12992e-08 0 -1.42283e-08)
(-7.86567e-08 0 -1.48243e-08)
(-7.57711e-08 0 -1.60088e-08)
(-7.27725e-08 0 -1.70943e-08)
(-6.96218e-08 0 -1.80578e-08)
(-6.62973e-08 0 -1.92107e-08)
(-6.27826e-08 0 -2.03432e-08)
(-5.90792e-08 0 -2.14718e-08)
(-5.51526e-08 0 -2.26781e-08)
(-5.09918e-08 0 -2.38997e-08)
(-4.65783e-08 0 -2.50565e-08)
(-4.18937e-08 0 -2.64398e-08)
(-3.69929e-08 0 -2.76184e-08)
(-3.17695e-08 0 -2.8868e-08)
(-2.62747e-08 0 -3.0008e-08)
(-2.05543e-08 0 -3.10225e-08)
(-1.46171e-08 0 -3.19456e-08)
(-8.42734e-09 0 -3.26724e-08)
(-2.0757e-09 0 -3.31934e-08)
(4.37163e-09 0 -3.35398e-08)
(1.09069e-08 0 -3.35813e-08)
(1.74672e-08 0 -3.33557e-08)
(2.39755e-08 0 -3.28026e-08)
(3.03414e-08 0 -3.19459e-08)
(3.6564e-08 0 -3.07671e-08)
(4.25409e-08 0 -2.92911e-08)
(4.81747e-08 0 -2.75016e-08)
(5.34161e-08 0 -2.53921e-08)
(5.821e-08 0 -2.30737e-08)
(6.24792e-08 0 -2.04575e-08)
(6.61857e-08 0 -1.77082e-08)
(6.93175e-08 0 -1.49031e-08)
(7.1821e-08 0 -1.18564e-08)
(7.36968e-08 0 -8.88359e-09)
(7.49528e-08 0 -5.90762e-09)
(7.56038e-08 0 -2.99162e-09)
(7.56299e-08 0 -1.49713e-10)
(7.51043e-08 0 2.42311e-09)
(7.4084e-08 0 5.00828e-09)
(7.25424e-08 0 7.24551e-09)
(7.0551e-08 0 9.29432e-09)
(6.81741e-08 0 1.1141e-08)
(6.54656e-08 0 1.2669e-08)
(6.2467e-08 0 1.38753e-08)
(5.92239e-08 0 1.47684e-08)
(5.57986e-08 0 1.53584e-08)
(5.22613e-08 0 1.55729e-08)
(4.86909e-08 0 1.54512e-08)
(4.52028e-08 0 1.49457e-08)
(4.19925e-08 0 1.4178e-08)
(3.92993e-08 0 1.33533e-08)
(3.7918e-08 0 1.26737e-08)
(3.46175e-08 0 1.88457e-08)
(5.8405e-09 0 1.12017e-07)
(2.6781e-11 0 7.56814e-08)
(2.81579e-16 0 3.964e-16)
(1.61279e-16 0 3.36042e-18)
(3.1589e-16 0 7.6204e-18)
(3.11661e-16 0 1.18183e-17)
(3.05943e-16 0 1.58405e-17)
(2.99481e-16 0 1.97179e-17)
(2.92377e-16 0 2.33368e-17)
(2.84726e-16 0 2.67593e-17)
(2.76568e-16 0 2.98922e-17)
(2.68007e-16 0 3.28081e-17)
(2.59083e-16 0 3.54033e-17)
(2.4984e-16 0 3.77401e-17)
(2.40389e-16 0 3.97874e-17)
(2.30773e-16 0 4.15865e-17)
(2.21054e-16 0 4.31271e-17)
(2.11345e-16 0 4.4492e-17)
(2.01656e-16 0 4.56397e-17)
(1.92009e-16 0 4.66116e-17)
(1.82497e-16 0 4.74388e-17)
(1.73119e-16 0 4.81523e-17)
(1.63875e-16 0 4.87726e-17)
(1.54776e-16 0 4.93103e-17)
(1.45873e-16 0 4.97549e-17)
(1.37157e-16 0 5.01685e-17)
(1.28585e-16 0 5.05304e-17)
(1.2021e-16 0 5.08716e-17)
(1.11949e-16 0 5.11404e-17)
(1.0378e-16 0 5.13989e-17)
(9.57668e-17 0 5.16057e-17)
(8.78673e-17 0 5.17712e-17)
(8.00194e-17 0 5.19263e-17)
(7.22853e-17 0 5.19883e-17)
(6.46235e-17 0 5.204e-17)
(5.69824e-17 0 5.20503e-17)
(4.93827e-17 0 5.19986e-17)
(4.1814e-17 0 5.19056e-17)
(3.42866e-17 0 5.17505e-17)
(2.678e-17 0 5.15437e-17)
(1.93147e-17 0 5.13783e-17)
(1.187e-17 0 5.11508e-17)
(4.07386e-18 0 5.09337e-17)
(-4.21089e-09 0 5.93553e-08)
(-1.6051e-08 0 5.86261e-08)
(-2.607e-08 0 5.72211e-08)
(-3.59695e-08 0 5.51687e-08)
(-4.54076e-08 0 5.25558e-08)
(-5.42687e-08 0 4.9383e-08)
(-6.24582e-08 0 4.56908e-08)
(-6.98659e-08 0 4.16283e-08)
(-7.6411e-08 0 3.72064e-08)
(-8.20573e-08 0 3.25222e-08)
(-8.69877e-08 0 2.74043e-08)
(-9.06086e-08 0 2.31323e-08)
(-9.35734e-08 0 1.78826e-08)
(-9.65424e-08 0 1.36667e-08)
(-9.82783e-08 0 1.26905e-08)
(-9.82727e-08 0 6.61003e-09)
(-9.74477e-08 0 1.8687e-10)
(-9.77015e-08 0 -2.29598e-09)
(-9.70258e-08 0 -2.46063e-09)
(-9.45446e-08 0 -4.38276e-09)
(-9.2107e-08 0 -1.31275e-08)
(-9.05078e-08 0 -1.09977e-08)
(-8.7955e-08 0 -1.32535e-08)
(-8.52388e-08 0 -1.53974e-08)
(-8.25594e-08 0 -1.67164e-08)
(-7.98625e-08 0 -1.77256e-08)
(-7.69345e-08 0 -1.89757e-08)
(-7.39155e-08 0 -2.02119e-08)
(-7.07718e-08 0 -2.13137e-08)
(-6.74826e-08 0 -2.26462e-08)
(-6.40229e-08 0 -2.3954e-08)
(-6.0369e-08 0 -2.52974e-08)
(-5.64908e-08 0 -2.67334e-08)
(-5.23716e-08 0 -2.82087e-08)
(-4.79903e-08 0 -2.96222e-08)
(-4.32864e-08 0 -3.12928e-08)
(-3.83527e-08 0 -3.27225e-08)
(-3.30891e-08 0 -3.43057e-08)
(-2.75157e-08 0 -3.57136e-08)
(-2.16184e-08 0 -3.69698e-08)
(-1.55278e-08 0 -3.81515e-08)
(-9.14287e-09 0 -3.91041e-08)
(-2.5291e-09 0 -3.97528e-08)
(4.15379e-09 0 -4.02245e-08)
(1.09941e-08 0 -4.03392e-08)
(1.7868e-08 0 -4.01126e-08)
(2.47378e-08 0 -3.94776e-08)
(3.14892e-08 0 -3.84786e-08)
(3.80504e-08 0 -3.71016e-08)
(4.43687e-08 0 -3.53175e-08)
(5.033e-08 0 -3.31424e-08)
(5.58673e-08 0 -3.06054e-08)
(6.091e-08 0 -2.77715e-08)
(6.54006e-08 0 -2.45764e-08)
(6.92929e-08 0 -2.12649e-08)
(7.25479e-08 0 -1.77793e-08)
(7.51121e-08 0 -1.41251e-08)
(7.70052e-08 0 -1.04608e-08)
(7.82235e-08 0 -6.86003e-09)
(7.87562e-08 0 -3.29248e-09)
(7.86726e-08 0 1.5152e-10)
(7.79847e-08 0 3.30448e-09)
(7.66959e-08 0 6.36746e-09)
(7.4924e-08 0 9.10049e-09)
(7.2681e-08 0 1.15948e-08)
(7.00165e-08 0 1.38772e-08)
(6.69867e-08 0 1.56309e-08)
(6.36559e-08 0 1.71211e-08)
(6.00714e-08 0 1.82785e-08)
(5.62636e-08 0 1.90263e-08)
(5.23116e-08 0 1.93406e-08)
(4.8309e-08 0 1.92094e-08)
(4.44079e-08 0 1.85394e-08)
(4.08893e-08 0 1.72844e-08)
(3.82457e-08 0 1.54523e-08)
(3.66887e-08 0 1.34021e-08)
(2.1006e-08 0 3.92702e-08)
(1.83183e-09 0 1.46076e-07)
(2.66932e-11 0 7.35392e-08)
(2.87371e-16 0 4.7067e-16)
(1.63704e-16 0 4.06353e-18)
(3.20522e-16 0 9.20239e-18)
(3.16179e-16 0 1.42689e-17)
(3.10265e-16 0 1.90975e-17)
(3.03575e-16 0 2.37297e-17)
(2.96265e-16 0 2.81035e-17)
(2.88335e-16 0 3.22187e-17)
(2.79897e-16 0 3.60134e-17)
(2.71026e-16 0 3.94462e-17)
(2.61772e-16 0 4.25481e-17)
(2.52238e-16 0 4.53192e-17)
(2.42488e-16 0 4.77697e-17)
(2.32614e-16 0 4.98893e-17)
(2.22656e-16 0 5.17091e-17)
(2.1271e-16 0 5.32911e-17)
(2.02804e-16 0 5.46146e-17)
(1.93002e-16 0 5.5752e-17)
(1.83334e-16 0 5.67136e-17)
(1.73811e-16 0 5.75097e-17)
(1.64475e-16 0 5.81611e-17)
(1.55303e-16 0 5.87195e-17)
(1.46339e-16 0 5.92675e-17)
(1.3756e-16 0 5.96811e-17)
(1.28947e-16 0 6.0043e-17)
(1.2051e-16 0 6.03635e-17)
(1.12197e-16 0 6.05806e-17)
(1.03987e-16 0 6.07874e-17)
(9.59323e-17 0 6.09425e-17)
(8.80017e-17 0 6.10356e-17)
(8.01021e-17 0 6.10976e-17)
(7.23163e-17 0 6.10459e-17)
(6.45925e-17 0 6.09632e-17)
(5.68997e-17 0 6.08081e-17)
(4.92689e-17 0 6.06117e-17)
(4.16382e-17 0 6.03842e-17)
(3.40385e-17 0 6.00843e-17)
(2.65422e-17 0 5.97948e-17)
(1.90872e-17 0 5.9495e-17)
(1.16012e-17 0 5.91641e-17)
(3.92911e-18 0 5.88746e-17)
(-4.46836e-09 0 7.03516e-08)
(-1.72116e-08 0 6.94466e-08)
(-2.79507e-08 0 6.77416e-08)
(-3.85334e-08 0 6.52777e-08)
(-4.86087e-08 0 6.20965e-08)
(-5.80131e-08 0 5.82609e-08)
(-6.6695e-08 0 5.37991e-08)
(-7.44691e-08 0 4.88881e-08)
(-8.12361e-08 0 4.35666e-08)
(-8.73637e-08 0 3.75132e-08)
(-9.20902e-08 0 3.22552e-08)
(-9.54903e-08 0 2.66663e-08)
(-9.89361e-08 0 1.98908e-08)
(-1.02186e-07 0 1.65772e-08)
(-1.02597e-07 0 1.53076e-08)
(-1.02243e-07 0 4.00587e-09)
(-1.01495e-07 0 7.08337e-13)
(-1.01683e-07 0 -2.61476e-09)
(-9.98019e-08 0 -1.15951e-09)
(-9.67047e-08 0 -1.29969e-08)
(-9.46229e-08 0 -1.16542e-08)
(-9.24551e-08 0 -1.41547e-08)
(-8.96033e-08 0 -1.54762e-08)
(-8.66758e-08 0 -1.89056e-08)
(-8.40196e-08 0 -1.90919e-08)
(-8.11331e-08 0 -2.07129e-08)
(-7.81917e-08 0 -2.20071e-08)
(-7.5185e-08 0 -2.32985e-08)
(-7.2097e-08 0 -2.45348e-08)
(-6.88589e-08 0 -2.60211e-08)
(-6.5476e-08 0 -2.74997e-08)
(-6.18944e-08 0 -2.90734e-08)
(-5.80735e-08 0 -3.07353e-08)
(-5.39977e-08 0 -3.24811e-08)
(-4.96644e-08 0 -3.41534e-08)
(-4.50093e-08 0 -3.61538e-08)
(-4.00126e-08 0 -3.7885e-08)
(-3.46818e-08 0 -3.98208e-08)
(-2.90113e-08 0 -4.1528e-08)
(-2.29812e-08 0 -4.31002e-08)
(-1.66772e-08 0 -4.45317e-08)
(-1.00978e-08 0 -4.57581e-08)
(-3.2138e-09 0 -4.66299e-08)
(3.86792e-09 0 -4.7183e-08)
(1.10131e-08 0 -4.74295e-08)
(1.82784e-08 0 -4.724e-08)
(2.55668e-08 0 -4.65707e-08)
(3.2787e-08 0 -4.54031e-08)
(3.97542e-08 0 -4.38077e-08)
(4.64947e-08 0 -4.17191e-08)
(5.28706e-08 0 -3.91479e-08)
(5.88082e-08 0 -3.61375e-08)
(6.41828e-08 0 -3.27532e-08)
(6.89478e-08 0 -2.89062e-08)
(7.3048e-08 0 -2.499e-08)
(7.6431e-08 0 -2.07441e-08)
(7.90583e-08 0 -1.64197e-08)
(8.09673e-08 0 -1.20309e-08)
(8.21315e-08 0 -7.72853e-09)
(8.25609e-08 0 -3.43312e-09)
(8.23023e-08 0 5.62636e-10)
(8.14033e-08 0 4.38409e-09)
(7.988e-08 0 8.03797e-09)
(7.77909e-08 0 1.12577e-08)
(7.5208e-08 0 1.42608e-08)
(7.2206e-08 0 1.67851e-08)
(6.88335e-08 0 1.89876e-08)
(6.51137e-08 0 2.07808e-08)
(6.11004e-08 0 2.21712e-08)
(5.68576e-08 0 2.31221e-08)
(5.24216e-08 0 2.35729e-08)
(4.78548e-08 0 2.34938e-08)
(4.32496e-08 0 2.27383e-08)
(3.88733e-08 0 2.10068e-08)
(3.55818e-08 0 1.77946e-08)
(3.6356e-08 0 1.10753e-08)
(8.03594e-09 0 7.28102e-08)
(-5.38185e-10 0 1.29953e-07)
(2.59881e-11 0 7.16073e-08)
(2.91317e-16 0 5.57172e-16)
(1.66598e-16 0 4.91139e-18)
(3.26064e-16 0 1.09291e-17)
(3.21556e-16 0 1.68641e-17)
(3.15414e-16 0 2.25924e-17)
(3.08497e-16 0 2.80724e-17)
(3.00866e-16 0 3.3232e-17)
(2.92615e-16 0 3.804e-17)
(2.83806e-16 0 4.25171e-17)
(2.74552e-16 0 4.65289e-17)
(2.64946e-16 0 5.01685e-17)
(2.55051e-16 0 5.33635e-17)
(2.44959e-16 0 5.61862e-17)
(2.34713e-16 0 5.85954e-17)
(2.24455e-16 0 6.06944e-17)
(2.1425e-16 0 6.24832e-17)
(2.04117e-16 0 6.39514e-17)
(1.94108e-16 0 6.52129e-17)
(1.84244e-16 0 6.62779e-17)
(1.74556e-16 0 6.71464e-17)
(1.65085e-16 0 6.78288e-17)
(1.55872e-16 0 6.84182e-17)
(1.46825e-16 0 6.89248e-17)
(1.37953e-16 0 6.93281e-17)
(1.29278e-16 0 6.96693e-17)
(1.20758e-16 0 6.99071e-17)
(1.12383e-16 0 7.00519e-17)
(1.04142e-16 0 7.01759e-17)
(9.60253e-17 0 7.02173e-17)
(8.79913e-17 0 7.01656e-17)
(8.00401e-17 0 7.00415e-17)
(7.21819e-17 0 6.98347e-17)
(6.4365e-17 0 6.95245e-17)
(5.66102e-17 0 6.91523e-17)
(4.89484e-17 0 6.87491e-17)
(4.1297e-17 0 6.82941e-17)
(3.37076e-17 0 6.78392e-17)
(2.61906e-17 0 6.74049e-17)
(1.86943e-17 0 6.69189e-17)
(1.12497e-17 0 6.65053e-17)
(3.77401e-18 0 6.61331e-17)
(-4.78442e-09 0 8.22249e-08)
(-1.86281e-08 0 8.11307e-08)
(-3.02402e-08 0 7.90851e-08)
(-4.16208e-08 0 7.61473e-08)
(-5.24586e-08 0 7.23261e-08)
(-6.25569e-08 0 6.77202e-08)
(-7.17323e-08 0 6.24781e-08)
(-7.99453e-08 0 5.64911e-08)
(-8.73699e-08 0 4.97849e-08)
(-9.34913e-08 0 4.33837e-08)
(-9.79759e-08 0 3.70059e-08)
(-1.016e-07 0 2.95276e-08)
(-1.06014e-07 0 2.21212e-08)
(-1.07827e-07 0 2.11386e-08)
(-1.07837e-07 0 1.28866e-08)
(-1.06983e-07 0 3.68105e-09)
(-1.06963e-07 0 -1.48507e-09)
(-1.05577e-07 0 -2.57978e-09)
(-1.02549e-07 0 -2.63451e-09)
(-9.92936e-08 0 -1.71273e-08)
(-9.75532e-08 0 -1.2979e-08)
(-9.43861e-08 0 -1.71362e-08)
(-9.13243e-08 0 -1.87596e-08)
(-8.83191e-08 0 -2.14249e-08)
(-8.55383e-08 0 -2.20781e-08)
(-8.24996e-08 0 -2.36398e-08)
(-7.95437e-08 0 -2.50356e-08)
(-7.65751e-08 0 -2.62927e-08)
(-7.35359e-08 0 -2.77262e-08)
(-7.03832e-08 0 -2.93017e-08)
(-6.71042e-08 0 -3.09462e-08)
(-6.3636e-08 0 -3.27447e-08)
(-5.99239e-08 0 -3.4663e-08)
(-5.59303e-08 0 -3.669e-08)
(-5.16555e-08 0 -3.867e-08)
(-4.70491e-08 0 -4.09259e-08)
(-4.19725e-08 0 -4.31771e-08)
(-3.66166e-08 0 -4.5351e-08)
(-3.08688e-08 0 -4.74769e-08)
(-2.46969e-08 0 -4.94319e-08)
(-1.81023e-08 0 -5.11267e-08)
(-1.12731e-08 0 -5.26693e-08)
(-4.10894e-09 0 -5.38336e-08)
(3.3745e-09 0 -5.45987e-08)
(1.10286e-08 0 -5.48878e-08)
(1.87437e-08 0 -5.48063e-08)
(2.65117e-08 0 -5.41352e-08)
(3.42462e-08 0 -5.28579e-08)
(4.18116e-08 0 -5.09657e-08)
(4.90347e-08 0 -4.85922e-08)
(5.59107e-08 0 -4.56032e-08)
(6.2274e-08 0 -4.20759e-08)
(6.80281e-08 0 -3.79798e-08)
(7.31262e-08 0 -3.35916e-08)
(7.75095e-08 0 -2.89059e-08)
(8.10639e-08 0 -2.38177e-08)
(8.37867e-08 0 -1.87421e-08)
(8.57037e-08 0 -1.35874e-08)
(8.67859e-08 0 -8.49867e-09)
(8.70706e-08 0 -3.46548e-09)
(8.66154e-08 0 1.303e-09)
(8.5419e-08 0 5.70111e-09)
(8.35772e-08 0 9.98498e-09)
(8.11403e-08 0 1.37984e-08)
(7.81797e-08 0 1.71738e-08)
(7.47873e-08 0 2.01785e-08)
(7.09945e-08 0 2.27431e-08)