/*--------------------------------*- C++ -*----------------------------------*\
  =========                 |
  \\      /  F ield         | OpenFOAM: The Open Source CFD Toolbox
   \\    /   O peration     | Website:  https://openfoam.org
    \\  /    A nd           | Version:  6
     \\/     M anipulation  |
\*---------------------------------------------------------------------------*/
FoamFile
{
    version     2.0;
    format      ascii;
    class       volScalarField;
    location    "700";
    object      dmdt;
}
// * * * * * * * * * * * * * * * * * * * * * * * * * * * * * * * * * * * * * //

dimensions      [0 0 0 0 0 0 0];

internalField   nonuniform List<scalar> 
4800
(
-0.219299
-0.216715
-0.214128
-0.211532
-0.208929
-0.206325
-0.203726
-0.20114
-0.198578
-0.196052
-0.193574
-0.191153
-0.188791
-0.186488
-0.184245
-0.182056
-0.179919
-0.177827
-0.175773
-0.173753
-0.171765
-0.169808
-0.167873
-0.165956
-0.164057
-0.162175
-0.160316
-0.158479
-0.156657
-0.154847
-0.153049
-0.151262
-0.149488
-0.147731
-0.145992
-0.14427
-0.142563
-0.140866
-0.139175
-0.137485
-0.135795
-0.134102
-0.1324
-0.130682
-0.128943
-0.127173
-0.125365
-0.123509
-0.121594
-0.119612
-0.117552
-0.115406
-0.113169
-0.110834
-0.108396
-0.10585
-0.103188
-0.100402
-0.0974864
-0.0944337
-0.0912392
-0.0878986
-0.0844144
-0.0807884
-0.0770249
-0.0731361
-0.0691361
-0.0650417
-0.0608673
-0.056626
-0.0523352
-0.048009
-0.0436594
-0.0392978
-0.0349402
-0.0306068
-0.026315
-0.0220822
-0.0179292
-0.0138842
-0.00996765
-0.00619136
-0.00255454
0.000960462
0.00437241
0.00769926
0.0109565
0.0141569
0.0173105
0.0204254
0.0235083
0.0265644
0.0295981
0.0326129
0.0356118
0.0385972
0.0415711
0.0445353
0.0474911
0.0504399
0.0533825
0.0563199
0.059253
0.0621822
0.0651083
0.0680318
0.070953
0.0738723
0.0767901
0.0797066
0.0826221
0.0855368
0.0884508
0.0913643
0.0942774
0.0971901
0.100103
0.103015
0.105927
0.108839
-0.219291
-0.216688
-0.214079
-0.211463
-0.208844
-0.206225
-0.203614
-0.201019
-0.198451
-0.19592
-0.193437
-0.191009
-0.188642
-0.186335
-0.184088
-0.181897
-0.179756
-0.17766
-0.175601
-0.173576
-0.171578
-0.169612
-0.16767
-0.165747
-0.163842
-0.161953
-0.160085
-0.158239
-0.156408
-0.154592
-0.152787
-0.150994
-0.149215
-0.147452
-0.145706
-0.143977
-0.142264
-0.140559
-0.138862
-0.137166
-0.135468
-0.133769
-0.132061
-0.130335
-0.128589
-0.126815
-0.125005
-0.123148
-0.121235
-0.119256
-0.117199
-0.115057
-0.112823
-0.11049
-0.108053
-0.105507
-0.102847
-0.100064
-0.0971518
-0.0941036
-0.0909156
-0.0875849
-0.0841098
-0.0804938
-0.0767415
-0.0728649
-0.0688782
-0.0647969
-0.0606353
-0.0564085
-0.0521314
-0.0478188
-0.0434796
-0.0391274
-0.0347773
-0.0304486
-0.0261608
-0.0219338
-0.0177866
-0.0137394
-0.00981959
-0.00605002
-0.00242972
0.00106504
0.00445703
0.00776639
0.0110094
0.0141986
0.0173437
0.0204522
0.0235302
0.0265826
0.0296134
0.0326259
0.035623
0.0386069
0.0415796
0.0445428
0.0474978
0.0504457
0.0533877
0.0563246
0.0592572
0.062186
0.0651117
0.0680348
0.0709556
0.0738747
0.0767922
0.0797085
0.0826238
0.0855382
0.088452
0.0913653
0.0942782
0.0971908
0.100103
0.103015
0.105927
0.108839
-0.219272
-0.216632
-0.213985
-0.211336
-0.208687
-0.206043
-0.20341
-0.200797
-0.198215
-0.195671
-0.193176
-0.190738
-0.188362
-0.186049
-0.183795
-0.181598
-0.179448
-0.177343
-0.175272
-0.173235
-0.171219
-0.169235
-0.167277
-0.16534
-0.163423
-0.161521
-0.159634
-0.15777
-0.155923
-0.154092
-0.152276
-0.150472
-0.148679
-0.146905
-0.145145
-0.1434
-0.141671
-0.139951
-0.138239
-0.136531
-0.134818
-0.133103
-0.131382
-0.129645
-0.127888
-0.126107
-0.124294
-0.122438
-0.120529
-0.118556
-0.116508
-0.114373
-0.112145
-0.109818
-0.107386
-0.104844
-0.102188
-0.0994091
-0.0965042
-0.0934656
-0.09029
-0.0869753
-0.0835181
-0.0799229
-0.0761951
-0.0723435
-0.0683805
-0.0643209
-0.0601831
-0.055983
-0.0517319
-0.0474433
-0.0431248
-0.0387895
-0.0344529
-0.0301322
-0.0258463
-0.0216141
-0.0174577
-0.0134078
-0.00949737
-0.00575167
-0.00217115
0.00127812
0.0046269
0.00789949
0.0111132
0.01428
0.0174083
0.0205042
0.0235727
0.0266179
0.0296431
0.0326513
0.0356449
0.038626
0.0415963
0.0445575
0.0475109
0.0504574
0.0533981
0.0563339
0.0592655
0.0621934
0.0651184
0.0680407
0.0709609
0.0738794
0.0767964
0.0797122
0.082627
0.085541
0.0884544
0.0913674
0.0942799
0.0971922
0.100104
0.103016
0.105928
0.10884
-0.219247
-0.216556
-0.213864
-0.211173
-0.208487
-0.205809
-0.203145
-0.200505
-0.197899
-0.195336
-0.192825
-0.190372
-0.187983
-0.185657
-0.18339
-0.181178
-0.179011
-0.176888
-0.174797
-0.172739
-0.1707
-0.168688
-0.166704
-0.164745
-0.162805
-0.160882
-0.158972
-0.15708
-0.15521
-0.153358
-0.151525
-0.149706
-0.147892
-0.146096
-0.144315
-0.142545
-0.140793
-0.139051
-0.137316
-0.135587
-0.133855
-0.132119
-0.130379
-0.128628
-0.126859
-0.125069
-0.123251
-0.121395
-0.119491
-0.117528
-0.11549
-0.113367
-0.111149
-0.108831
-0.106407
-0.103872
-0.101225
-0.0984575
-0.0955653
-0.0925427
-0.089386
-0.0860909
-0.0826551
-0.0790853
-0.0753889
-0.0715686
-0.0676404
-0.0636206
-0.0595201
-0.0553558
-0.0511421
-0.0468893
-0.0426032
-0.0382955
-0.0339786
-0.029665
-0.0253704
-0.0211145
-0.0169296
-0.0128631
-0.00896522
-0.00526778
-0.00176201
0.00160629
0.00488209
0.00809542
0.0112638
0.014397
0.0175007
0.0205785
0.0236336
0.0266686
0.029686
0.032688
0.0356767
0.0386537
0.0416208
0.0445792
0.0475301
0.0504746
0.0534135
0.0563477
0.0592778
0.0622045
0.0651282
0.0680496
0.0709688
0.0738864
0.0768026
0.0797176
0.0826318
0.0855452
0.088458
0.0913704
0.0942824
0.0971942
0.100106
0.103017
0.105929
0.10884
-0.21922
-0.216477
-0.213736
-0.211001
-0.208272
-0.205556
-0.20286
-0.200189
-0.197553
-0.194961
-0.192423
-0.189944
-0.187528
-0.185177
-0.182886
-0.180649
-0.178457
-0.176304
-0.174182
-0.172093
-0.170024
-0.167979
-0.16596
-0.16397
-0.161998
-0.160042
-0.158101
-0.15618
-0.154279
-0.152398
-0.150537
-0.148697
-0.146859
-0.145034
-0.143225
-0.141428
-0.139647
-0.137879
-0.13612
-0.134366
-0.132611
-0.130855
-0.129095
-0.127326
-0.125541
-0.123738
-0.121911
-0.120051
-0.118149
-0.116194
-0.114168
-0.112058
-0.109855
-0.107551
-0.10514
-0.10262
-0.0999847
-0.0972329
-0.0943583
-0.0913565
-0.0882239
-0.0849591
-0.0815601
-0.0780267
-0.0743673
-0.070587
-0.0666979
-0.062719
-0.0586642
-0.0545495
-0.0503835
-0.0461743
-0.0419297
-0.0376593
-0.0333679
-0.0290594
-0.0247418
-0.0204371
-0.0161902
-0.0120688
-0.00816563
-0.00455076
-0.001178
0.0020557
0.00521901
0.00834693
0.0114535
0.0145429
0.0176154
0.0206708
0.0237095
0.0267322
0.0297401
0.0327346
0.0357172
0.0386894
0.0416523
0.0446072
0.0475551
0.0504969
0.0534335
0.0563657
0.0592939
0.0622189
0.0651412
0.0680612
0.0709792
0.0738956
0.0768107
0.0797248
0.0826381
0.0855506
0.0884627
0.0913743
0.0942857
0.0971968
0.100108
0.103019
0.105929
0.10884
-0.219196
-0.216405
-0.213618
-0.210836
-0.208064
-0.205307
-0.202571
-0.199862
-0.19719
-0.194561
-0.191986
-0.189471
-0.187021
-0.184634
-0.182307
-0.180031
-0.1778
-0.175608
-0.173448
-0.171317
-0.16921
-0.167127
-0.165066
-0.163033
-0.161023
-0.159029
-0.15705
-0.155091
-0.153153
-0.151236
-0.149339
-0.147465
-0.145601
-0.143746
-0.141906
-0.140079
-0.138269
-0.136474
-0.13469
-0.132912
-0.131135
-0.129357
-0.127575
-0.125786
-0.123984
-0.122165
-0.120325
-0.118456
-0.11655
-0.114596
-0.112579
-0.110482
-0.108296
-0.106007
-0.103613
-0.101111
-0.098495
-0.0957631
-0.0929094
-0.0899298
-0.0868207
-0.0835847
-0.0802226
-0.0767337
-0.073122
-0.0693936
-0.0655607
-0.0616407
-0.0576464
-0.0535887
-0.0494786
-0.0453262
-0.0411355
-0.0369082
-0.0326437
-0.0283372
-0.0239859
-0.0195976
-0.0152133
-0.0109363
-0.00696577
-0.00351888
-0.000391485
0.00262388
0.00562421
0.00863916
0.0116695
0.0147075
0.0177447
0.0207754
0.0237962
0.0268054
0.0298029
0.0327892
0.0357651
0.0387317
0.0416899
0.0446408
0.0475852
0.050524
0.0534579
0.0563875
0.0593136
0.0622366
0.0651571
0.0680753
0.0709918
0.0739069
0.0768207
0.0797336
0.0826458
0.0855573
0.0884685
0.0913792
0.0942897
0.0972001
0.10011
0.10302
0.10593
0.10884
-0.219172
-0.216337
-0.213507
-0.210684
-0.207871
-0.205072
-0.202292
-0.199539
-0.19682
-0.194146
-0.191526
-0.188967
-0.186473
-0.184039
-0.181662
-0.179336
-0.177056
-0.174817
-0.172611
-0.170434
-0.168282
-0.16615
-0.164042
-0.16196
-0.159902
-0.157863
-0.155843
-0.153843
-0.151864
-0.149905
-0.147967
-0.146053
-0.144154
-0.142267
-0.140394
-0.138537
-0.136697
-0.134872
-0.133062
-0.131259
-0.12946
-0.127661
-0.125859
-0.124051
-0.122231
-0.120396
-0.118542
-0.116662
-0.114749
-0.112792
-0.110776
-0.108689
-0.106516
-0.104244
-0.101867
-0.0993828
-0.0967907
-0.0940853
-0.0912626
-0.0883187
-0.0852504
-0.0820565
-0.0787344
-0.0752852
-0.0717172
-0.0680423
-0.0642709
-0.0604108
-0.0564798
-0.05249
-0.0484513
-0.0443686
-0.040241
-0.0360672
-0.0318388
-0.0275395
-0.0231489
-0.0186403
-0.0140102
-0.00935786
-0.00508425
-0.00205185
0.00060422
0.00327964
0.00606367
0.00894519
0.0118926
0.0148774
0.0178794
0.0208857
0.0238888
0.0268847
0.0298718
0.0328497
0.0358188
0.0387795
0.0417328
0.0446793
0.0476199
0.0505552
0.0534861
0.056413
0.0593365
0.0622572
0.0651756
0.0680919
0.0710067
0.0739201
0.0768325
0.079744
0.0826548
0.0855652
0.0884752
0.0913849
0.0942945
0.0972039
0.100113
0.103022
0.105932
0.108841
-0.219153
-0.216281
-0.213413
-0.210551
-0.207697
-0.204856
-0.202031
-0.199229
-0.19646
-0.193735
-0.191064
-0.188456
-0.185912
-0.183426
-0.180993
-0.178608
-0.176265
-0.173963
-0.171697
-0.169462
-0.167255
-0.165072
-0.162911
-0.160774
-0.158663
-0.156575
-0.154507
-0.152461
-0.150437
-0.148433
-0.146451
-0.144493
-0.142555
-0.140632
-0.138724
-0.136833
-0.134961
-0.133105
-0.131265
-0.129436
-0.127613
-0.125794
-0.123973
-0.122148
-0.120313
-0.118464
-0.116597
-0.114706
-0.112785
-0.110822
-0.108804
-0.106723
-0.10456
-0.102304
-0.0999438
-0.0974772
-0.0949063
-0.0922236
-0.0894269
-0.0865115
-0.0834781
-0.0803295
-0.0770633
-0.0736768
-0.0701706
-0.0665528
-0.0628438
-0.0590568
-0.0552031
-0.0512911
-0.0473304
-0.0433271
-0.0392793
-0.0351765
-0.0309998
-0.0267229
-0.0222995
-0.0176482
-0.0126454
-0.00715327
-0.00170774
-3.75885e-05
0.0017162
0.00392468
0.00647012
0.00922356
0.0120974
0.0150369
0.0180092
0.0209946
0.0239823
0.0269664
0.029944
0.0329141
0.0358765
0.0388316
0.0417798
0.0447219
0.0476584
0.0505902
0.0535177
0.0564416
0.0593624
0.0622805
0.0651965
0.0681108
0.0710235
0.0739351
0.0768458
0.0797557
0.0826651
0.0855742
0.0884829
0.0913914
0.0942999
0.0972082
0.100117
0.103025
0.105933
0.108841
-0.219138
-0.216232
-0.21333
-0.210434
-0.207544
-0.204664
-0.201796
-0.198948
-0.196129
-0.193353
-0.190629
-0.187966
-0.185364
-0.182816
-0.180315
-0.177859
-0.175444
-0.17307
-0.170736
-0.168434
-0.166159
-0.163911
-0.16169
-0.159495
-0.157327
-0.155184
-0.153063
-0.150966
-0.148892
-0.14684
-0.144812
-0.142808
-0.140828
-0.138866
-0.136923
-0.134996
-0.133089
-0.1312
-0.129328
-0.12747
-0.125622
-0.123781
-0.121941
-0.120099
-0.11825
-0.116388
-0.114509
-0.112609
-0.110682
-0.108714
-0.106695
-0.104618
-0.102462
-0.100218
-0.0978765
-0.0954317
-0.0928877
-0.0902372
-0.0874786
-0.0846041
-0.0816101
-0.0785009
-0.0752804
-0.0719491
-0.0685081
-0.0649624
-0.0613271
-0.0576158
-0.0538419
-0.050018
-0.0461536
-0.0422487
-0.0382962
-0.0342832
-0.0301867
-0.0259698
-0.0215699
-0.0168621
-0.0115218
-0.00444283
0.00293102
0.00213649
0.00254512
0.0043504
0.00674365
0.00942497
0.0122578
0.0151708
0.0181243
0.0210957
0.0240722
0.0270471
0.030017
0.0329804
0.0359368
0.0388866
0.04183
0.0447676
0.0477002
0.0506282
0.0535522
0.0564729
0.0593908
0.0623062
0.0652197
0.0681315
0.0710421
0.0739517
0.0768605
0.0797687
0.0826765
0.0855841
0.0884914
0.0913986
0.0943058
0.097213
0.10012
0.103027
0.105935
0.108842
-0.219125
-0.216192
-0.213262
-0.210335
-0.207413
-0.204497
-0.201594
-0.198708
-0.195847
-0.193022
-0.190242
-0.187516
-0.184842
-0.182217
-0.179638
-0.177104
-0.174613
-0.172162
-0.169749
-0.16737
-0.165019
-0.162698
-0.160406
-0.158143
-0.15591
-0.153707
-0.151529
-0.149376
-0.147248
-0.145145
-0.143068
-0.141019
-0.138996
-0.136995
-0.135014
-0.133052
-0.131109
-0.129184
-0.127276
-0.125386
-0.12351
-0.121644
-0.119782
-0.117923
-0.116059
-0.114185
-0.112296
-0.110387
-0.108451
-0.106478
-0.104459
-0.102385
-0.100237
-0.0980061
-0.095682
-0.0932583
-0.0907388
-0.0881189
-0.085398
-0.0825679
-0.0796237
-0.0765676
-0.0734066
-0.0701418
-0.0667752
-0.0633116
-0.0597616
-0.0561377
-0.0524548
-0.0487275
-0.0449676
-0.0411743
-0.0373376
-0.0334405
-0.0294601
-0.0253639
-0.0211042
-0.0166056
-0.0117486
-0.00639005
-0.00105945
0.000497084
0.00216644
0.00431006
0.00680435
0.00951671
0.012357
0.0152689
0.018218
0.0211838
0.0241546
0.0271238
0.0300883
0.0330465
0.0359981
0.0389432
0.0418823
0.0448158
0.0477444
0.0506686
0.0535892
0.0565066
0.0594213
0.0623339
0.0652446
0.068154
0.0710622
0.0739697
0.0768764
0.0797828
0.0826889
0.0855948
0.0885006
0.0914065
0.0943123
0.0972182
0.100124
0.10303
0.105936
0.108842
-0.219114
-0.216159
-0.213208
-0.21026
-0.207315
-0.204371
-0.201435
-0.198515
-0.195619
-0.192751
-0.189914
-0.187116
-0.184364
-0.181655
-0.178989
-0.176365
-0.173785
-0.171246
-0.168746
-0.166283
-0.163854
-0.161457
-0.159092
-0.156757
-0.154454
-0.15218
-0.149934
-0.147716
-0.145527
-0.143367
-0.141237
-0.13914
-0.137074
-0.135035
-0.133019
-0.131024
-0.129046
-0.127083
-0.125138
-0.12321
-0.1213
-0.119407
-0.117522
-0.115643
-0.113763
-0.111877
-0.109976
-0.108056
-0.106112
-0.104131
-0.102111
-0.100039
-0.0978988
-0.0956831
-0.0933826
-0.0909869
-0.0884992
-0.0859178
-0.0832412
-0.0804627
-0.0775783
-0.0745881
-0.0714964
-0.0683057
-0.0650207
-0.0616483
-0.0581974
-0.0546761
-0.0510977
-0.0474778
-0.0438306
-0.0401578
-0.0364503
-0.0326901
-0.0288553
-0.0249228
-0.0208655
-0.016659
-0.0123031
-0.00790618
-0.00385829
-0.00103273
0.00146676
0.00402047
0.0067081
0.00951206
0.0123962
0.0153287
0.0182869
0.0212558
0.0242266
0.0271942
0.030156
0.033111
0.0360591
0.0390005
0.0419358
0.0448655
0.0477904
0.050711
0.0536281
0.0565421
0.0594537
0.0623633
0.0652712
0.0681779
0.0710837
0.0739888
0.0768935
0.0797978
0.0827021
0.0856063
0.0885105
0.0914148
0.0943192
0.0972238
0.100128
0.103033
0.105938
0.108843
-0.219106
-0.216135
-0.213166
-0.210199
-0.207235
-0.204274
-0.201321
-0.198378
-0.195449
-0.192539
-0.189645
-0.186772
-0.183934
-0.18113
-0.178364
-0.175641
-0.172962
-0.170328
-0.167738
-0.165189
-0.162679
-0.160203
-0.157761
-0.155349
-0.152969
-0.150619
-0.148299
-0.146009
-0.143752
-0.141528
-0.139339
-0.13719
-0.135079
-0.133002
-0.130952
-0.128924
-0.126914
-0.124916
-0.122932
-0.120963
-0.119014
-0.117087
-0.115177
-0.113278
-0.111382
-0.109483
-0.107571
-0.105639
-0.103685
-0.101701
-0.0996783
-0.0976082
-0.0954738
-0.0932701
-0.090993
-0.088631
-0.0861825
-0.0836468
-0.0810228
-0.0783072
-0.0754941
-0.0725804
-0.0695704
-0.0664679
-0.0632764
-0.0600044
-0.0566627
-0.0532592
-0.0498049
-0.0463132
-0.0427971
-0.0392594
-0.0356935
-0.0320839
-0.0284087
-0.0246494
-0.0207956
-0.0168525
-0.0128644
-0.00894387
-0.00528405
-0.00210856
0.000809008
0.00366016
0.00653026
0.0094404
0.0123852
0.0153523
0.0183299
0.0213097
0.0242861
0.0272561
0.0302183
0.0331724
0.0361185
0.0390574
0.0419896
0.0449161
0.0478376
0.0507548
0.0536684
0.0565792
0.0594875
0.062394
0.0652991
0.068203
0.0711062
0.074009
0.0769114
0.0798137
0.0827159
0.0856183
0.0885208
0.0914235
0.0943265
0.0972296
0.100133
0.103036
0.10594
0.108844
-0.2191
-0.216118
-0.213139
-0.210161
-0.207186
-0.204212
-0.201241
-0.198275
-0.195316
-0.192366
-0.18942
-0.186476
-0.183542
-0.180632
-0.177758
-0.17493
-0.172149
-0.169417
-0.166734
-0.164096
-0.1615
-0.158939
-0.156413
-0.153918
-0.151455
-0.149025
-0.146627
-0.144263
-0.141934
-0.139645
-0.137398
-0.135196
-0.133037
-0.130918
-0.128831
-0.126771
-0.124729
-0.122697
-0.120674
-0.118665
-0.116676
-0.114708
-0.112765
-0.110841
-0.108928
-0.107016
-0.105095
-0.103155
-0.101191
-0.0992
-0.0971752
-0.0951105
-0.09299
-0.0908064
-0.0885553
-0.0862282
-0.0838218
-0.0813348
-0.0787667
-0.0761162
-0.0733792
-0.0705522
-0.0676356
-0.0646344
-0.0615533
-0.0583994
-0.0551841
-0.0519166
-0.0486081
-0.0452713
-0.0419148
-0.0385383
-0.0351317
-0.0316806
-0.0281668
-0.0245739
-0.0208973
-0.0171567
-0.0134023
-0.00971575
-0.00618669
-0.00288526
0.000248038
0.00329578
0.00631233
0.00932237
0.0123326
0.0153419
0.0183468
0.0213439
0.0243313
0.0273079
0.0302737
0.0332292
0.0361752
0.0391128
0.042043
0.0449668
0.0478853
0.0507994
0.0537097
0.0566172
0.0595224
0.0624258
0.0653278
0.068229
0.0711296
0.0740298
0.0769299
0.07983
0.0827303
0.0856308
0.0885316
0.0914326
0.094334
0.0972356
0.100138
0.10304
0.105942
0.108844
-0.219096
-0.216106
-0.213118
-0.210133
-0.20715
-0.204168
-0.201188
-0.198208
-0.195223
-0.192228
-0.189217
-0.186185
-0.183152
-0.180141
-0.177166
-0.174234
-0.171348
-0.168513
-0.165731
-0.162997
-0.160309
-0.157661
-0.155049
-0.152471
-0.149925
-0.147411
-0.144931
-0.142487
-0.140083
-0.137722
-0.13541
-0.133148
-0.13094
-0.128782
-0.126663
-0.124575
-0.122502
-0.120435
-0.118374
-0.116327
-0.114299
-0.112295
-0.110316
-0.108361
-0.106423
-0.104492
-0.102558
-0.100611
-0.0986453
-0.0966552
-0.0946329
-0.0925737
-0.0904671
-0.0883064
-0.0860862
-0.0837987
-0.0814389
-0.0790048
-0.0764949
-0.0739121
-0.0712536
-0.0685177
-0.0657039
-0.0628178
-0.0598663
-0.056856
-0.0537955
-0.0506942
-0.0475638
-0.0444172
-0.0412573
-0.0380761
-0.0348568
-0.0315803
-0.0282269
-0.0247806
-0.0212422
-0.0176364
-0.0140098
-0.0104221
-0.00692006
-0.00353755
-0.000266152
0.00292393
0.00606077
0.00916293
0.0122403
0.0152973
0.0183357
0.0213564
0.0243601
0.0273477
0.0303207
0.0332803
0.0362282
0.0391659
0.0420951
0.0450171
0.0479331
0.0508442
0.0537516
0.0566559
0.0595579
0.0624582
0.0653573
0.0682556
0.0711535
0.0740512
0.0769489
0.0798468
0.082745
0.0856436
0.0885425
0.0914419
0.0943417
0.0972418
0.100142
0.103043
0.105944
0.108845
-0.219093
-0.216098
-0.213105
-0.210113
-0.207122
-0.204134
-0.201144
-0.198147
-0.195134
-0.192096
-0.189028
-0.185928
-0.18281
-0.179696
-0.176606
-0.173555
-0.170553
-0.167607
-0.164721
-0.16189
-0.159112
-0.156377
-0.153679
-0.151015
-0.148383
-0.145783
-0.143215
-0.140684
-0.138195
-0.135753
-0.133371
-0.131048
-0.128787
-0.126583
-0.12443
-0.122313
-0.120216
-0.118121
-0.116028
-0.113946
-0.111884
-0.109847
-0.107838
-0.105857
-0.103895
-0.101944
-0.0999942
-0.0980363
-0.0960641
-0.0940755
-0.0920584
-0.0900077
-0.0879173
-0.0857807
-0.083594
-0.0813493
-0.07904
-0.0766663
-0.0742223
-0.0717133
-0.0691396
-0.0665027
-0.0638044
-0.0610499
-0.0582475
-0.0554066
-0.0525362
-0.049645
-0.0467415
-0.0438352
-0.0409223
-0.0379845
-0.0349911
-0.0319115
-0.0287183
-0.0253973
-0.0219522
-0.0184104
-0.0148205
-0.0112366
-0.00768925
-0.00420754
-0.000808355
0.00251059
0.00576066
0.00895465
0.0121032
0.0152142
0.0182931
0.0213439
0.0243698
0.0273734
0.0303573
0.0333241
0.0362762
0.0392159
0.0421453
0.0450662
0.0479803
0.050889
0.0537935
0.0566948
0.0595937
0.062491
0.0653871
0.0682826
0.0711777
0.0740729
0.0769682
0.0798638
0.0827599
0.0856565
0.0885536
0.0914513
0.0943494
0.097248
0.100147
0.103046
0.105946
0.108846
-0.219092
-0.216094
-0.213098
-0.210103
-0.207109
-0.204114
-0.201111
-0.198095
-0.195053
-0.191974
-0.188849
-0.185681
-0.18248
-0.179262
-0.176052
-0.172875
-0.169752
-0.166694
-0.163703
-0.160776
-0.157908
-0.155086
-0.152302
-0.149551
-0.14683
-0.144139
-0.14148
-0.138859
-0.13628
-0.133752
-0.131288
-0.128891
-0.126564
-0.124309
-0.122119
-0.119976
-0.117856
-0.11574
-0.113622
-0.111512
-0.10942
-0.107354
-0.105319
-0.103316
-0.101334
-0.0993634
-0.0974007
-0.0954333
-0.0934534
-0.0914649
-0.0894535
-0.0874145
-0.0853446
-0.0832356
-0.0810867
-0.0788893
-0.0766364
-0.0743279
-0.0719582
-0.0695313
-0.0670526
-0.0645272
-0.0619592
-0.0593565
-0.0567316
-0.0540981
-0.0514665
-0.0488434
-0.0462343
-0.0436424
-0.0410508
-0.038422
-0.0357097
-0.0328659
-0.0298463
-0.0266326
-0.0232289
-0.0196692
-0.0160147
-0.0123287
-0.00864735
-0.00500862
-0.00144986
0.00201508
0.00538932
0.0086842
0.0119127
0.0150863
0.018214
0.0213026
0.0243572
0.0273824
0.0303819
0.0333594
0.0363183
0.0392618
0.0421928
0.0451136
0.0480264
0.0509331
0.053835
0.0567335
0.0596295
0.0625237
0.0654169
0.0683095
0.071202
0.0740946
0.0769875
0.0798808
0.0827748
0.0856694
0.0885647
0.0914606
0.0943572
0.0972542
0.100152
0.10305
0.105948
0.108846
-0.219094
-0.216099
-0.213106
-0.210112
-0.207116
-0.204114
-0.201101
-0.198066
-0.194995
-0.191873
-0.18869
-0.185444
-0.182148
-0.178821
-0.175492
-0.172193
-0.168948
-0.165775
-0.16268
-0.159659
-0.156701
-0.153792
-0.150922
-0.148083
-0.145272
-0.142486
-0.13973
-0.137009
-0.134329
-0.131702
-0.129146
-0.126666
-0.124269
-0.121954
-0.119719
-0.117544
-0.115403
-0.113272
-0.11114
-0.109012
-0.106898
-0.104811
-0.102756
-0.100735
-0.098737
-0.0967494
-0.0947724
-0.0927939
-0.0908068
-0.0888174
-0.0868113
-0.0847848
-0.0827373
-0.080659
-0.0785511
-0.0764054
-0.0742172
-0.0719852
-0.0697047
-0.0673733
-0.0650015
-0.0626023
-0.0601884
-0.0577724
-0.0553704
-0.053001
-0.0506786
-0.0484094
-0.0461936
-0.0440181
-0.0418533
-0.0396334
-0.0372868
-0.0347361
-0.031911
-0.0287792
-0.02534
-0.0216426
-0.0177826
-0.0138532
-0.00991378
-0.006023
-0.00224187
0.0014072
0.0049288
0.00834006
0.0116605
0.0149072
0.0180931
0.0212281
0.0243191
0.0273722
0.0303924
0.0333846
0.0363534
0.0393029
0.0422369
0.0451587
0.048071
0.0509761
0.0538758
0.0567717
0.0596648
0.0625562
0.0654465
0.0683363
0.0712261
0.0741161
0.0770066
0.0798977
0.0827896
0.0856822
0.0885757
0.0914699
0.0943648
0.0972603
0.100156
0.103053
0.10595
0.108847
-0.2191
-0.216117
-0.213132
-0.210145
-0.20715
-0.204145
-0.201122
-0.198068
-0.194967
-0.191804
-0.188566
-0.185247
-0.181858
-0.178426
-0.174979
-0.171555
-0.168185
-0.164892
-0.161682
-0.158556
-0.155504
-0.152507
-0.149548
-0.146616
-0.143707
-0.140819
-0.137957
-0.135128
-0.132339
-0.129604
-0.126945
-0.124372
-0.121894
-0.119515
-0.11723
-0.115018
-0.112849
-0.110701
-0.108559
-0.106421
-0.104294
-0.102193
-0.100126
-0.0980921
-0.0960795
-0.0940757
-0.0920835
-0.0900916
-0.088097
-0.0861045
-0.0841042
-0.0820943
-0.080075
-0.0780367
-0.0759798
-0.0738956
-0.0717789
-0.0696313
-0.0674546
-0.0652406
-0.0630016
-0.0607578
-0.0585349
-0.0563568
-0.0542489
-0.0522344
-0.0503322
-0.0485447
-0.0468569
-0.0452541
-0.0436719
-0.0420027
-0.0401404
-0.0379564
-0.0353428
-0.0322368
-0.0286408
-0.0246241
-0.0203422
-0.0159471
-0.0115617
-0.00728241
-0.00319456
0.000685027
0.00437863
0.00792076
0.0113438
0.0146732
0.0179268
0.0211169
0.0242524
0.0273403
0.0303869
0.0333983
0.0363802
0.0393382
0.0422771
0.045201
0.0481136
0.0510177
0.0539155
0.056809
0.0596994
0.062588
0.0654755
0.0683626
0.0712496
0.0741371
0.0770252
0.0799142
0.0828039
0.0856947
0.0885863
0.0914788
0.0943722
0.0972663
0.100161
0.103056
0.105952
0.108848
-0.219111
-0.21615
-0.213186
-0.210215
-0.207232
-0.20423
-0.201201
-0.198133
-0.195008
-0.191809
-0.188523
-0.185141
-0.181671
-0.178141
-0.174585
-0.171039
-0.167538
-0.164106
-0.160758
-0.157504
-0.15434
-0.151245
-0.148189
-0.145155
-0.142138
-0.139139
-0.136161
-0.133214
-0.130305
-0.127451
-0.124677
-0.121999
-0.119428
-0.116971
-0.114628
-0.11237
-0.110167
-0.107997
-0.105845
-0.103699
-0.101564
-0.0994529
-0.0973786
-0.0953368
-0.0933134
-0.0912961
-0.0892882
-0.0872789
-0.0852733
-0.0832732
-0.0812764
-0.0792849
-0.0773006
-0.0753152
-0.0733278
-0.0713284
-0.0693077
-0.0672675
-0.0652166
-0.0631506
-0.0610852
-0.0590491
-0.057083
-0.0552284
-0.0535286
-0.0520171
-0.0507084
-0.0495927
-0.04864
-0.0478198
-0.0470256
-0.0460957
-0.0448613
-0.0431204
-0.0407059
-0.0375129
-0.0335469
-0.0289137
-0.0238684
-0.0186721
-0.0135704
-0.00872795
-0.00424694
-0.000104652
0.00376891
0.00744302
0.0109705
0.0143868
0.0177146
0.0209676
0.0241553
0.0272852
0.0303641
0.0333994
0.0363982
0.0393672
0.0423127
0.0452401
0.0481538
0.0510574
0.0539537
0.0568451
0.059733
0.0626189
0.0655037
0.068388
0.0712725
0.0741575
0.0770433
0.0799301
0.0828178
0.0857066
0.0885965
0.0914874
0.0943793
0.0972719
0.100165
0.103059
0.105954
0.108848
-0.219131
-0.216209
-0.213281
-0.210342
-0.207384
-0.2044
-0.201378
-0.198306
-0.195165
-0.191939
-0.188615
-0.185186
-0.181655
-0.178044
-0.174387
-0.170719
-0.167077
-0.163495
-0.159991
-0.156578
-0.153263
-0.150035
-0.146865
-0.143715
-0.140575
-0.137446
-0.134335
-0.131254
-0.128213
-0.125224
-0.122319
-0.119518
-0.116838
-0.114288
-0.11187
-0.109554
-0.107308
-0.105107
-0.102936
-0.100781
-0.0986367
-0.096516
-0.0944338
-0.0923861
-0.0903522
-0.0883205
-0.086295
-0.0842672
-0.0822485
-0.0802417
-0.0782523
-0.0762883
-0.0743528
-0.0724427
-0.0705551
-0.068678
-0.0667977
-0.0649141
-0.0630375
-0.0611728
-0.0593452
-0.0575998
-0.0559988
-0.0546108
-0.0535054
-0.0527247
-0.0522862
-0.052139
-0.0521938
-0.0524295
-0.0526798
-0.0527146
-0.0522568
-0.051002
-0.0486939
-0.0451736
-0.0404603
-0.034764
-0.0284562
-0.0219654
-0.0157552
-0.0101554
-0.00523465
-0.000849734
0.00316881
0.00694665
0.0105619
0.014059
0.0174615
0.020782
0.0240282
0.0272064
0.0303236
0.0333875
0.0364066
0.0393894
0.0423434
0.0452755
0.0481912
0.0510949
0.0539901
0.0568796
0.0597652
0.0626485
0.0655307
0.0684125
0.0712945
0.0741771
0.0770606
0.0799452
0.082831
0.085718
0.0886062
0.0914956
0.0943859
0.0972772
0.100169
0.103062
0.105955
0.108849
-0.219162
-0.216301
-0.213431
-0.210545
-0.207633
-0.204685
-0.201689
-0.19863
-0.195491
-0.192256
-0.188911
-0.185448
-0.181872
-0.178197
-0.174449
-0.170665
-0.166885
-0.163141
-0.159456
-0.155848
-0.152338
-0.148928
-0.1456
-0.142301
-0.139011
-0.135733
-0.132471
-0.129237
-0.12604
-0.122894
-0.119836
-0.116886
-0.114069
-0.111401
-0.108885
-0.106491
-0.104182
-0.101935
-0.0997321
-0.0975554
-0.0953934
-0.0932584
-0.0911666
-0.0891126
-0.0870651
-0.0850178
-0.082974
-0.0809326
-0.0789049
-0.0769002
-0.0749329
-0.0730214
-0.0711732
-0.0693911
-0.0676669
-0.0659813
-0.0643172
-0.0626691
-0.0610489
-0.0594728
-0.0579839
-0.0566532
-0.0555802
-0.0548741
-0.0546432
-0.054961
-0.0558254
-0.0570781
-0.0584994
-0.0601264
-0.0616961
-0.0629179
-0.0633338
-0.0625008
-0.0600495
-0.0557691
-0.0497521
-0.0423439
-0.0340507
-0.0255457
-0.017663
-0.0111629
-0.0058788
-0.0013774
0.00268031
0.00649073
0.0101522
0.0137088
0.0171782
0.020566
0.0238742
0.0271057
0.0302659
0.0333627
0.0364057
0.0394047
0.042369
0.0453071
0.0482255
0.0511299
0.0540244
0.0569122
0.0597957
0.0626767
0.0655563
0.0684356
0.0713152
0.0741955
0.0770769
0.0799595
0.0828434
0.0857286
0.0886152
0.0915031
0.0943921
0.0972821
0.100173
0.103065
0.105957
0.108849
-0.219204
-0.216426
-0.213637
-0.210829
-0.207989
-0.205107
-0.202166
-0.199149
-0.196039
-0.192817
-0.18947
-0.185989
-0.182376
-0.178646
-0.174827
-0.170951
-0.167044
-0.16313
-0.159238
-0.155396
-0.151636
-0.147983
-0.144435
-0.140945
-0.137468
-0.134007
-0.130557
-0.127136
-0.123749
-0.120412
-0.117163
-0.114024
-0.11103
-0.108201
-0.105548
-0.103043
-0.100644
-0.0983254
-0.0960708
-0.0938533
-0.0916575
-0.0894974
-0.0873932
-0.0853349
-0.083277
-0.0812184
-0.0791643
-0.0771265
-0.0751175
-0.0731536
-0.0712596
-0.0694645
-0.0677866
-0.0662378
-0.0647935
-0.0634197
-0.0620924
-0.0607994
-0.0595566
-0.0583946
-0.0573856
-0.056639
-0.0563082
-0.0565805
-0.0576506
-0.0596228
-0.0624285
-0.0656849
-0.068898
-0.0722401
-0.0753345
-0.0778707
-0.0790984
-0.0784091
-0.0753062
-0.0695876
-0.0615148
-0.0515369
-0.0403372
-0.0288249
-0.018416
-0.0111411
-0.00583931
-0.00150495
0.00240614
0.00613686
0.00977967
0.0133609
0.0168803
0.0203291
0.0236991
0.0269865
0.0301933
0.0333264
0.036396
0.0394133
0.0423896
0.0453346
0.0482567
0.0511622
0.0540563
0.0569428
0.0598243
0.0627031
0.0655804
0.0684573
0.0713345
0.0742127
0.0770919
0.0799726
0.0828547
0.0857383
0.0886234
0.0915099
0.0943977
0.0972865
0.100176
0.103067
0.105958
0.10885
-0.219252
-0.216572
-0.213883
-0.211177
-0.208439
-0.205655
-0.202805
-0.199868
-0.196825
-0.193653
-0.190337
-0.186868
-0.183245
-0.179482
-0.175603
-0.171634
-0.167598
-0.163514
-0.159405
-0.155304
-0.151248
-0.147278
-0.143433
-0.139681
-0.135954
-0.132247
-0.128557
-0.124899
-0.121273
-0.117693
-0.114193
-0.110804
-0.10757
-0.10452
-0.101671
-0.0990067
-0.0964698
-0.0940449
-0.0917075
-0.0894216
-0.0871709
-0.0849764
-0.082862
-0.0808119
-0.0787679
-0.0767234
-0.0746952
-0.0727152
-0.0708049
-0.0689877
-0.0673011
-0.0657803
-0.0644483
-0.0633213
-0.0623479
-0.0614725
-0.0606537
-0.0598772
-0.0591634
-0.058566
-0.0581886
-0.0582003
-0.0588686
-0.0605128
-0.0634586
-0.067883
-0.0735177
-0.0795168
-0.0849709
-0.0901715
-0.0947644
-0.0984938
-0.10013
-0.0989649
-0.094357
-0.086237
-0.0751943
-0.0616623
-0.0465939
-0.0308869
-0.016325
-0.00939384
-0.00488931
-0.00114866
0.00239499
0.00592348
0.0094758
0.0130394
0.0165854
0.020084
0.0235116
0.0268545
0.0301093
0.0332807
0.0363788
0.0394161
0.0424054
0.0453583
0.0482845
0.0511916
0.0540856
0.056971
0.0598508
0.0627274
0.0656025
0.0684772
0.0713523
0.0742283
0.0771056
0.0799845
0.0828649
0.085747
0.0886307
0.0915159
0.0944025
0.0972904
0.100179
0.103069
0.105959
0.10885
-0.219294
-0.216701
-0.214111
-0.211517
-0.208904
-0.206253
-0.203539
-0.200735
-0.197814
-0.19475
-0.191519
-0.188108
-0.184513
-0.180742
-0.17682
-0.172769
-0.168601
-0.164337
-0.159996
-0.155606
-0.151207
-0.146862
-0.142629
-0.138518
-0.134455
-0.13042
-0.126411
-0.122434
-0.118488
-0.114582
-0.110743
-0.10701
-0.103446
-0.100089
-0.0969631
-0.0940684
-0.0913355
-0.0887576
-0.0862974
-0.0839133
-0.0815941
-0.0793706
-0.0772689
-0.0752695
-0.0733115
-0.0713689
-0.0694739
-0.0676916
-0.0660622
-0.064618
-0.0634133
-0.0624869
-0.061849
-0.0614689
-0.0612521
-0.0611192
-0.0610129
-0.0609137
-0.0608537
-0.0609304
-0.0613029
-0.0622242
-0.0641061
-0.0675216
-0.0730549
-0.0810151
-0.0906393
-0.100228
-0.108282
-0.115
-0.120594
-0.124839
-0.125955
-0.123185
-0.115832
-0.104131
-0.0891719
-0.071166
-0.0516091
-0.0309287
-0.00564521
-0.00574016
-0.00324836
-0.000441556
0.00260251
0.00585072
0.00925694
0.0127636
0.0163107
0.0198439
0.0233214
0.0267166
0.0300186
0.0332286
0.0363559
0.0394139
0.042417
0.0453783
0.0483089
0.051218
0.0541122
0.0569966
0.0598748
0.0627495
0.0656226
0.0684952
0.0713682
0.0742423
0.0771178