/*--------------------------------*- C++ -*----------------------------------*\
  =========                 |
  \\      /  F ield         | OpenFOAM: The Open Source CFD Toolbox
   \\    /   O peration     | Website:  https://openfoam.org
    \\  /    A nd           | Version:  6
     \\/     M anipulation  |
\*---------------------------------------------------------------------------*/
FoamFile
{
    version     2.0;
    format      ascii;
    class       volScalarField;
    location    "700";
    object      T;
}
// * * * * * * * * * * * * * * * * * * * * * * * * * * * * * * * * * * * * * //

dimensions      [0 0 0 1 0 0 0];

internalField   nonuniform List<scalar> 
4800
(
552.503
552.409
552.316
552.221
552.127
552.033
551.938
551.845
551.752
551.66
551.57
551.482
551.397
551.313
551.232
551.152
551.075
550.999
550.924
550.851
550.779
550.708
550.638
550.568
550.5
550.431
550.364
550.297
550.231
550.165
550.1
550.035
549.971
549.907
549.844
549.782
549.72
549.658
549.597
549.536
549.475
549.413
549.351
549.289
549.226
549.162
549.096
549.029
548.96
548.888
548.813
548.735
548.654
548.569
548.481
548.389
548.292
548.191
548.085
547.975
547.859
547.738
547.611
547.48
547.343
547.202
547.057
546.909
546.758
546.604
546.448
546.291
546.133
545.975
545.817
545.66
545.504
545.351
545.2
545.054
544.911
544.775
544.643
544.515
544.391
544.271
544.153
544.037
543.922
543.809
543.697
543.587
543.477
543.367
543.259
543.15
543.042
542.935
542.828
542.721
542.614
542.507
542.401
542.295
542.189
542.083
541.977
541.871
541.765
541.659
541.554
541.448
541.342
541.237
541.131
541.025
540.92
540.814
540.708
540.603
552.503
552.408
552.314
552.219
552.124
552.029
551.934
551.84
551.747
551.655
551.565
551.477
551.391
551.308
551.226
551.147
551.069
550.993
550.918
550.845
550.772
550.701
550.631
550.561
550.492
550.423
550.355
550.289
550.222
550.156
550.091
550.026
549.961
549.897
549.834
549.771
549.709
549.647
549.586
549.524
549.463
549.401
549.339
549.277
549.213
549.149
549.083
549.016
548.947
548.875
548.8
548.723
548.642
548.557
548.469
548.376
548.28
548.179
548.073
547.963
547.847
547.726
547.6
547.469
547.333
547.193
547.048
546.9
546.749
546.596
546.441
546.284
546.127
545.969
545.811
545.654
545.499
545.345
545.195
545.048
544.906
544.769
544.638
544.511
544.388
544.268
544.151
544.035
543.921
543.808
543.697
543.586
543.476
543.367
543.258
543.15
543.042
542.935
542.827
542.721
542.614
542.507
542.401
542.295
542.189
542.083
541.977
541.871
541.765
541.659
541.554
541.448
541.342
541.237
541.131
541.025
540.92
540.814
540.708
540.603
552.502
552.406
552.31
552.214
552.118
552.022
551.927
551.832
551.738
551.646
551.556
551.467
551.381
551.297
551.215
551.136
551.058
550.981
550.906
550.832
550.759
550.687
550.616
550.546
550.477
550.408
550.339
550.271
550.205
550.138
550.072
550.007
549.942
549.877
549.814
549.75
549.688
549.625
549.563
549.501
549.439
549.377
549.314
549.251
549.188
549.123
549.057
548.99
548.921
548.849
548.775
548.698
548.617
548.533
548.444
548.352
548.256
548.155
548.05
547.94
547.824
547.704
547.579
547.449
547.313
547.174
547.03
546.883
546.733
546.58
546.426
546.271
546.114
545.957
545.8
545.643
545.487
545.334
545.183
545.036
544.894
544.759
544.629
544.504
544.382
544.264
544.147
544.032
543.919
543.806
543.695
543.585
543.475
543.366
543.257
543.149
543.041
542.934
542.827
542.72
542.613
542.507
542.401
542.294
542.188
542.082
541.977
541.871
541.765
541.659
541.553
541.448
541.342
541.236
541.131
541.025
540.92
540.814
540.708
540.603
552.501
552.404
552.306
552.208
552.111
552.014
551.917
551.822
551.727
551.634
551.543
551.454
551.367
551.283
551.201
551.12
551.042
550.965
550.889
550.814
550.74
550.667
550.596
550.524
550.454
550.384
550.315
550.246
550.179
550.111
550.045
549.979
549.913
549.848
549.783
549.719
549.656
549.593
549.53
549.467
549.404
549.341
549.278
549.215
549.15
549.086
549.02
548.952
548.883
548.812
548.738
548.661
548.581
548.497
548.409
548.317
548.221
548.121
548.016
547.906
547.792
547.672
547.548
547.418
547.284
547.146
547.003
546.857
546.709
546.558
546.405
546.251
546.095
545.939
545.782
545.626
545.47
545.316
545.164
545.016
544.875
544.741
544.614
544.492
544.373
544.256
544.141
544.028
543.915
543.804
543.693
543.583
543.473
543.365
543.256
543.148
543.041
542.933
542.826
542.719
542.613
542.506
542.4
542.294
542.188
542.082
541.976
541.87
541.765
541.659
541.553
541.448
541.342
541.236
541.131
541.025
540.92
540.814
540.708
540.603
552.5
552.401
552.301
552.202
552.103
552.005
551.907
551.81
551.714
551.62
551.528
551.438
551.351
551.266
551.182
551.101
551.022
550.944
550.867
550.791
550.716
550.642
550.569
550.496
550.425
550.354
550.284
550.214
550.145
550.077
550.009
549.942
549.876
549.81
549.744
549.679
549.614
549.55
549.486
549.423
549.359
549.295
549.232
549.167
549.103
549.037
548.971
548.904
548.835
548.764
548.69
548.614
548.534
548.45
548.363
548.272
548.176
548.076
547.972
547.863
547.75
547.631
547.508
547.38
547.247
547.11
546.969
546.825
546.678
546.528
546.377
546.225
546.071
545.916
545.76
545.604
545.447
545.291
545.137
544.987
544.846
544.715
544.593
544.475
544.361
544.247
544.135
544.023
543.911
543.8
543.69
543.581
543.471
543.363
543.255
543.147
543.039
542.932
542.825
542.719
542.612
542.506
542.4
542.294
542.188
542.082
541.976
541.87
541.764
541.659
541.553
541.447
541.342
541.236
541.131
541.025
540.919
540.814
540.708
540.603
552.499
552.398
552.297
552.196
552.096
551.996
551.896
551.798
551.701
551.606
551.512
551.421
551.332
551.246
551.161
551.079
550.998
550.918
550.84
550.763
550.686
550.611
550.536
550.462
550.389
550.317
550.245
550.174
550.104
550.034
549.966
549.898
549.83
549.763
549.696
549.63
549.564
549.499
549.434
549.37
549.306
549.241
549.176
549.112
549.046
548.98
548.913
548.846
548.777
548.706
548.633
548.557
548.477
548.394
548.308
548.217
548.122
548.023
547.919
547.811
547.699
547.581
547.459
547.333
547.202
547.067
546.928
546.786
546.641
546.494
546.345
546.194
546.042
545.889
545.734
545.578
545.42
545.261
545.101
544.946
544.802
544.677
544.564
544.455
544.346
544.237
544.127
544.017
543.906
543.797
543.687
543.578
543.469
543.361
543.253
543.145
543.038
542.931
542.824
542.718
542.611
542.505
542.399
542.293
542.187
542.081
541.975
541.87
541.764
541.658
541.553
541.447
541.342
541.236
541.13
541.025
540.919
540.814
540.708
540.603
552.499
552.396
552.293
552.191
552.089
551.987
551.886
551.786
551.688
551.591
551.496
551.403
551.313
551.224
551.138
551.054
550.971
550.89
550.81
550.731
550.653
550.575
550.499
550.423
550.349
550.275
550.202
550.129
550.057
549.986
549.916
549.847
549.778
549.709
549.641
549.574
549.507
549.441
549.375
549.31
549.245
549.18
549.114
549.049
548.983
548.916
548.849
548.781
548.711
548.64
548.567
548.492
548.413
548.33
548.244
548.154
548.06
547.962
547.86
547.753
547.642
547.526
547.405
547.28
547.151
547.018
546.881
546.741
546.598
546.454
546.307
546.159
546.01
545.858
545.705
545.549
545.389
545.226
545.058
544.889
544.734
544.624
544.528
544.431
544.33
544.225
544.119
544.01
543.902
543.793
543.684
543.575
543.467
543.359
543.251
543.144
543.037
542.93
542.823
542.717
542.61
542.504
542.398
542.292
542.186
542.081
541.975
541.869
541.764
541.658
541.552
541.447
541.341
541.236
541.13
541.025
540.919
540.814
540.708
540.603
552.498
552.394
552.29
552.186
552.082
551.979
551.877
551.775
551.675
551.576
551.479
551.384
551.292
551.202
551.114
551.027
550.942
550.859
550.777
550.696
550.616
550.536
550.458
550.38
550.304
550.228
550.153
550.079
550.005
549.933
549.861
549.79
549.72
549.65
549.581
549.512
549.444
549.377
549.31
549.244
549.178
549.112
549.046
548.98
548.913
548.846
548.778
548.71
548.64
548.569
548.496
548.42
548.342
548.26
548.174
548.085
547.992
547.895
547.793
547.687
547.577
547.463
547.345
547.222
547.095
546.964
546.829
546.692
546.552
546.41
546.267
546.121
545.975
545.826
545.674
545.519
545.359
545.19
545.008
544.808
544.611
544.551
544.487
544.407
544.315
544.215
544.111
544.005
543.897
543.789
543.68
543.572
543.464
543.356
543.249
543.142
543.035
542.928
542.822
542.715
542.609
542.503
542.397
542.291
542.186
542.08
541.974
541.869
541.763
541.658
541.552
541.447
541.341
541.236
541.13
541.025
540.919
540.814
540.708
540.603
552.497
552.392
552.287
552.182
552.077
551.972
551.868
551.765
551.663
551.562
551.463
551.367
551.272
551.18
551.089
551
550.913
550.826
550.742
550.658
550.576
550.494
550.414
550.334
550.255
550.178
550.101
550.025
549.949
549.875
549.801
549.729
549.657
549.586
549.515
549.446
549.376
549.308
549.24
549.173
549.106
549.039
548.972
548.905
548.838
548.771
548.703
548.634
548.564
548.492
548.419
548.344
548.266
548.184
548.099
548.011
547.919
547.823
547.722
547.618
547.51
547.397
547.28
547.159
547.035
546.906
546.774
546.64
546.503
546.364
546.224
546.082
545.939
545.793
545.645
545.492
545.332
545.161
544.967
544.713
544.336
544.472
544.457
544.392
544.305
544.208
544.105
544
543.893
543.785
543.677
543.569
543.461
543.354
543.247
543.14
543.033
542.926
542.82
542.714
542.608
542.502
542.396
542.29
542.185
542.079
541.974
541.868
541.763
541.657
541.552
541.446
541.341
541.235
541.13
541.024
540.919
540.814
540.708
540.603
552.497
552.39
552.284
552.178
552.072
551.966
551.861
551.756
551.653
551.55
551.449
551.35
551.253
551.158
551.065
550.973
550.882
550.793
550.706
550.62
550.534
550.45
550.367
550.285
550.204
550.124
550.045
549.967
549.89
549.814
549.738
549.664
549.591
549.518
549.446
549.375
549.305
549.235
549.166
549.097
549.029
548.961
548.894
548.826
548.759
548.691
548.622
548.553
548.483
548.411
548.338
548.263
548.185
548.104
548.02
547.932
547.841
547.746
547.647
547.544
547.438
547.327
547.212
547.094
546.972
546.846
546.717
546.586
546.453
546.317
546.181
546.043
545.904
545.763
545.619
545.47
545.315
545.152
544.975
544.781
544.587
544.531
544.471
544.393
544.303
544.205
544.102
543.996
543.889
543.782
543.674
543.566
543.459
543.352
543.245
543.138
543.031
542.925
542.819
542.712
542.607
542.501
542.395
542.289
542.184
542.078
541.973
541.867
541.762
541.657
541.551
541.446
541.34
541.235
541.13
541.024
540.919
540.813
540.708
540.603
552.496
552.389
552.282
552.175
552.068
551.962
551.855
551.749
551.644
551.54
551.437
551.336
551.236
551.138
551.041
550.946
550.852
550.76
550.67
550.58
550.492
550.405
550.319
550.235
550.151
550.069
549.987
549.907
549.827
549.749
549.672
549.596
549.521
549.447
549.374
549.301
549.23
549.158
549.088
549.018
548.949
548.88
548.812
548.744
548.675
548.607
548.538
548.469
548.398
548.326
548.253
548.178
548.1
548.02
547.936
547.85
547.759
547.666
547.569
547.468
547.363
547.255
547.143
547.027
546.908
546.786
546.661
546.533
546.403
546.272
546.14
546.007
545.872
545.736
545.597
545.454
545.307
545.154
544.996
544.836
544.689
544.587
544.497
544.404
544.307
544.205
544.1
543.994
543.887
543.779
543.671
543.564
543.456
543.349
543.242
543.136
543.029
542.923
542.817
542.711
542.605
542.499
542.394
542.288
542.183
542.077
541.972
541.867
541.761
541.656
541.551
541.445
541.34
541.235
541.129
541.024
540.919
540.813
540.708
540.603
552.496
552.388
552.281
552.173
552.066
551.958
551.851
551.744
551.638
551.533
551.428
551.323
551.22
551.119
551.018
550.92
550.822
550.727
550.633
550.541
550.449
550.36
550.271
550.184
550.097
550.012
549.928
549.845
549.763
549.682
549.603
549.525
549.448
549.373
549.299
549.225
549.152
549.08
549.008
548.936
548.866
548.796
548.727
548.658
548.589
548.52
548.451
548.381
548.31
548.238
548.165
548.09
548.012
547.932
547.85
547.764
547.675
547.583
547.488
547.39
547.288
547.182
547.073
546.961
546.845
546.726
546.605
546.482
546.357
546.23
546.102
545.974
545.845
545.714
545.581
545.444
545.304
545.161
545.017
544.874
544.742
544.626
544.521
544.417
544.313
544.208
544.101
543.993
543.885
543.777
543.669
543.562
543.454
543.347
543.24
543.134
543.027
542.921
542.815
542.709
542.604
542.498
542.393
542.287
542.182
542.077
541.971
541.866
541.761
541.655
541.55
541.445
541.34
541.234
541.129
541.024
540.919
540.813
540.708
540.603
552.496
552.388
552.28
552.172
552.064
551.956
551.848
551.741
551.633
551.526
551.419
551.313
551.206
551.101
550.996
550.894
550.793
550.694
550.597
550.501
550.407
550.314
550.222
550.132
550.042
549.954
549.867
549.781
549.697
549.614
549.533
549.453
549.374
549.297
549.222
549.147
549.073
548.999
548.926
548.853
548.781
548.71
548.639
548.569
548.5
548.431
548.361
548.291
548.22
548.147
548.074
547.999
547.922
547.843
547.761
547.677
547.59
547.5
547.406
547.31
547.211
547.109
547.003
546.894
546.782
546.668
546.552
546.433
546.313
546.192
546.071
545.948
545.825
545.7
545.572
545.442
545.308
545.173
545.036
544.903
544.775
544.655
544.541
544.431
544.321
544.212
544.103
543.994
543.885
543.776
543.668
543.56
543.452
543.345
543.238
543.132
543.025
542.919
542.813
542.708
542.602
542.497
542.391
542.286
542.181
542.076
541.97
541.865
541.76
541.655
541.55
541.444
541.339
541.234
541.129
541.024
540.918
540.813
540.708
540.603
552.496
552.387
552.279
552.171
552.063
551.954
551.846
551.738
551.63
551.521
551.412
551.302
551.192
551.083
550.975
550.869
550.764
550.661
550.56
550.461
550.364
550.267
550.173
550.079
549.987
549.896
549.806
549.717
549.63
549.544
549.46
549.378
549.298
549.22
549.143
549.067
548.992
548.917
548.843
548.768
548.695
548.622
548.55
548.479
548.409
548.339
548.269
548.198
548.127
548.055
547.982
547.907
547.831
547.752
547.672
547.589
547.503
547.415
547.324
547.23
547.134
547.035
546.933
546.828
546.721
546.612
546.501
546.389
546.276
546.162
546.047
545.932
545.815
545.696
545.575
545.45
545.321
545.19
545.059
544.929
544.801
544.679
544.56
544.444
544.33
544.218
544.106
543.995
543.885
543.776
543.667
543.558
543.45
543.343
543.236
543.13
543.023
542.917
542.812
542.706
542.601
542.495
542.39
542.285
542.18
542.075
541.97
541.864
541.759
541.654
541.549
541.444
541.339
541.234
541.129
541.023
540.918
540.813
540.708
540.603
552.496
552.387
552.278
552.17
552.062
551.953
551.845
551.736
551.627
551.517
551.405
551.293
551.18
551.067
550.955
550.844
550.735
550.628
550.524
550.421
550.32
550.221
550.123
550.026
549.931
549.837
549.743
549.652
549.561
549.473
549.386
549.302
549.22
549.14
549.062
548.985
548.909
548.833
548.757
548.682
548.607
548.533
548.46
548.389
548.317
548.247
548.176
548.105
548.033
547.961
547.888
547.814
547.738
547.661
547.581
547.5
547.416
547.33
547.242
547.151
547.057
546.962
546.864
546.764
546.663
546.56
546.456
546.351
546.246
546.141
546.035
545.929
545.82
545.709
545.593
545.472
545.347
545.219
545.089
544.958
544.83
544.703
544.58
544.459
544.341
544.226
544.111
543.998
543.887
543.776
543.666
543.557
543.449
543.342
543.234
543.128
543.022
542.916
542.81
542.704
542.599
542.494
542.389
542.284
542.179
542.074
541.969
541.864
541.759
541.654
541.549
541.444
541.338
541.233
541.128
541.023
540.918
540.813
540.708
540.603
552.496
552.387
552.278
552.17
552.061
551.952
551.844
551.734
551.624
551.512
551.399
551.284
551.168
551.051
550.935
550.819
550.706
550.595
550.487
550.38
550.276
550.174
550.073
549.973
549.875
549.777
549.68
549.585
549.492
549.4
549.311
549.224
549.139
549.058
548.978
548.9
548.824
548.747
548.67
548.594
548.518
548.443
548.369
548.296
548.224
548.153
548.082
548.01
547.939
547.867
547.794
547.72
547.645
547.568
547.49
547.411
547.329
547.245
547.159
547.072
546.982
546.89
546.797
546.703
546.608
546.513
546.417
546.323
546.228
546.134
546.041
545.946
545.847
545.744
545.635
545.518
545.394
545.265
545.132
544.998
544.865
544.733
544.603
544.478
544.355
544.235
544.118
544.003
543.89
543.778
543.667
543.557
543.448
543.34
543.233
543.126
543.02
542.914
542.808
542.703
542.598
542.492
542.387
542.283
542.178
542.073
541.968
541.863
541.758
541.653
541.548
541.443
541.338
541.233
541.128
541.023
540.918
540.813
540.708
540.603
552.496
552.387
552.279
552.17
552.061
551.952
551.843
551.733
551.622
551.509
551.393
551.275
551.156
551.035
550.914
550.795
550.677
550.562
550.45
550.34
550.233
550.127
550.023
549.92
549.818
549.717
549.617
549.518
549.421
549.326
549.233
549.143
549.056
548.972
548.891
548.812
548.735
548.657
548.58
548.503
548.426
548.35
548.276
548.203
548.13
548.058
547.986
547.915
547.843
547.77
547.698
547.624
547.55
547.475
547.398
547.321
547.241
547.16
547.078
546.993
546.907
546.821
546.733
546.646
546.559
546.473
546.389
546.308
546.228
546.149
546.071
545.991
545.905
545.813
545.71
545.596
545.471
545.337
545.197
545.054
544.911
544.77
544.632
544.5
544.372
544.248
544.128
544.01
543.894
543.78
543.668
543.557
543.448
543.339
543.232
543.125
543.018
542.912
542.807
542.701
542.596
542.491
542.386
542.281
542.177
542.072
541.967
541.862
541.757
541.652
541.548
541.443
541.338
541.233
541.128
541.023
540.918
540.813
540.708
540.603
552.496
552.388
552.28
552.171
552.063
551.954
551.844
551.733
551.621
551.506
551.389
551.268
551.145
551.021
550.896
550.772
550.649
550.53
550.413
550.3
550.189
550.081
549.973
549.867
549.761
549.656
549.553
549.45
549.349
549.25
549.153
549.06
548.97
548.883
548.801
548.72
548.642
548.564
548.486
548.409
548.331
548.255
548.18
548.107
548.034
547.961
547.889
547.816
547.744
547.672
547.599
547.526
547.453
547.379
547.305
547.229
547.153
547.075
546.996
546.916
546.835
546.754
546.674
546.595
546.519
546.446
546.378
546.314
546.253
546.195
546.138
546.078
546.01
545.931
545.836
545.723
545.592
545.446
545.29
545.13
544.971
544.815
544.667
544.526
544.392
544.263
544.139
544.018
543.9
543.784
543.671
543.559
543.448
543.339
543.231
543.123
543.017
542.911
542.805
542.7
542.595
542.49
542.385
542.28
542.175
542.071
541.966
541.861
541.757
541.652
541.547
541.442
541.337
541.232
541.127
541.023
540.918
540.813
540.708
540.603
552.496
552.389
552.282
552.174
552.066
551.957
551.847
551.736
551.622
551.506
551.387
551.265
551.139
551.011
550.882
550.753
550.626
550.501
550.38
550.262
550.147
550.035
549.924
549.814
549.704
549.595
549.487
549.38
549.275
549.171
549.071
548.973
548.88
548.791
548.706
548.624
548.544
548.466
548.387
548.31
548.232
548.156
548.08
548.006
547.933
547.86
547.787
547.714
547.641
547.569
547.496
547.424
547.352
547.281
547.209
547.136
547.063
546.989
546.915
546.84
546.766
546.692
546.622
546.555
546.494
546.44
546.393
546.354
546.32
546.29
546.262
546.228
546.183
546.12
546.031
545.915
545.77
545.601
545.418
545.229
545.044
544.868
544.705
544.554
544.414
544.281
544.153
544.029
543.908
543.79
543.674
543.561
543.449
543.339
543.23
543.122
543.016
542.909
542.804
542.698
542.593
542.488
542.384
542.279
542.174
542.07
541.965
541.861
541.756
541.651
541.547
541.442
541.337
541.232
541.127
541.022
540.917
540.812
540.707
540.602
552.497
552.391
552.285
552.178
552.071
551.963
551.853
551.742
551.628
551.511
551.391
551.266
551.138
551.007
550.875
550.742
550.609
550.479
550.352
550.228
550.108
549.991
549.876
549.762
549.648
549.534
549.421
549.309
549.199
549.09
548.985
548.883
548.786
548.693
548.606
548.522
548.44
548.36
548.282
548.203
548.126
548.049
547.973
547.899
547.825
547.751
547.678
547.604
547.531
547.459
547.387
547.315
547.245
547.176
547.108
547.04
546.972
546.904
546.837
546.769
546.704
546.641
546.583
546.534
546.495
546.468
546.453
546.449
546.452
546.461
546.47
546.471
546.453
546.406
546.321
546.192
546.02
545.813
545.583
545.348
545.123
544.919
544.74
544.581
544.435
544.298
544.167
544.04
543.917
543.797
543.679
543.564
543.45
543.339
543.23
543.122
543.014
542.908
542.802
542.697
542.592
542.487
542.383
542.278
542.173
542.069
541.964
541.86
541.755
541.651
541.546
541.441
541.337
541.232
541.127
541.022
540.917
540.812
540.707
540.602
552.498
552.394
552.29
552.186
552.08
551.973
551.865
551.754
551.64
551.523
551.402
551.276
551.146
551.013
550.877
550.74
550.603
550.467
550.333
550.202
550.075
549.951
549.83
549.71
549.591
549.472
549.353
549.236
549.12
549.006
548.895
548.787
548.685
548.588
548.497
548.41
548.326
548.245
548.165
548.086
548.007
547.93
547.854
547.78
547.705
547.631
547.557
547.483
547.41
547.337
547.266
547.197
547.13
547.066
547.004
546.943
546.883
546.824
546.766
546.709
546.656
546.608
546.57
546.546
546.539
546.552
546.585
546.632
546.684
546.743
546.8
546.843
546.856
546.824
546.733
546.575
546.356
546.086
545.785
545.477
545.191
544.955
544.764
544.6
544.453
544.315
544.182
544.053
543.927
543.804
543.684
543.567
543.453
543.34
543.23
543.121
543.014
542.907
542.801
542.696
542.591
542.486
542.381
542.277
542.173
542.068
541.964
541.859
541.755
541.65
541.546
541.441
541.336
541.232
541.127
541.022
540.917
540.812
540.707
540.602
552.5
552.399
552.298
552.196
552.093
551.989
551.882
551.773
551.66
551.543
551.422
551.296
551.165
551.03
550.891
550.75
550.609
550.467
550.326
550.186
550.05
549.917
549.788
549.661
549.535
549.409
549.284
549.16
549.037
548.915
548.797
548.683
548.574
548.472
548.375
548.284
548.197
548.113
548.031
547.951
547.871
547.793
547.716
547.642
547.567
547.493
547.418
547.345
547.272
547.201
547.133
547.069
547.008
546.953
546.901
546.852
546.804
546.758
546.713
546.672
546.636
546.61
546.599
546.611
546.652
546.726
546.83
546.949
547.066
547.186
547.297
547.386
547.427
547.398
547.283
547.073
546.779
546.416
546.011
545.595
545.219
544.955
544.762
544.604
544.462
544.327
544.195
544.066
543.938
543.813
543.691
543.572
543.455
543.342
543.23
543.121
543.013
542.906
542.8
542.695
542.59
542.485
542.38
542.276
542.172
542.067
541.963
541.859
541.754
541.65
541.545
541.441
541.336
541.231
541.127
541.022
540.917
540.812
540.707
540.602
552.501
552.404
552.307
552.208
552.109
552.008
551.905
551.799
551.688
551.573
551.453
551.328
551.196
551.06
550.919
550.776
550.629
550.481
550.332
550.183
550.036
549.892
549.752
549.616
549.48
549.345
549.211
549.078
548.946
548.816
548.689
548.566
548.448
548.337
548.234
548.137
548.045
547.957
547.872
547.789
547.707
547.628
547.551
547.477
547.403
547.329
547.256
547.185
547.116
547.051
546.991
546.937
546.89
546.85
546.815
546.784
546.755
546.728
546.702
546.681
546.668
546.67
546.696
546.758
546.868
547.032
547.238
547.457
547.653
547.839
548.002
548.132
548.186
548.138
547.967
547.67
547.269
546.778
546.234
545.668
545.145
544.892
544.728
544.591
544.463
544.335
544.206
544.077
543.949
543.822
543.698
543.576
543.458
543.343
543.231
543.121
543.012
542.905
542.799
542.694
542.589
542.484
542.379
542.275
542.171
542.067
541.962
541.858
541.754
541.649
541.545
541.44
541.336
541.231
541.126
541.022
540.917
540.812
540.707
540.602
552.503
552.409
552.315
552.22
552.126
552.029
551.931
551.83
551.724
551.613
551.496
551.373
551.242
551.106
550.964
550.817
550.666
550.511
550.354
550.194
550.035
549.877
549.723
549.573
549.426
549.279
549.133
548.988
548.845
548.702
548.563
548.427
548.297
548.175
548.061
547.956
547.857
547.763
547.674
547.588
547.504
547.423
547.348
547.276
547.205
547.135
547.067
547.004
546.946
546.895
546.853
546.822
546.8
546.787
546.781
546.776
546.773
546.77
546.768
546.771
546.785
546.82
546.89
547.018
547.223
547.515
547.866
548.212
548.5
548.738
548.934
549.08
549.112
549.005
548.734
548.309
547.768
547.117
546.411
545.667
544.83
544.76
544.668
544.565
544.455
544.337
544.214
544.087
543.958
543.83
543.704
543.581
543.462
543.345
543.232
543.121
543.012
542.904
542.798
542.693
542.588
542.483
542.379
542.274
542.17
542.066
541.962
541.858
541.753
541.649
541.544
541.44
541.335
541.231
541.126
541.022
540.917
540.812
540.707
540.602
552.503
552.409
552.317
552.226
552.136
552.046
551.954
551.86
551.762
551.658
551.548
551.429
551.303
551.168
551.025
550.877
550.722
550.561
550.394
550.222
550.048
549.873
549.701
549.534
549.37
549.206
549.043
548.882
548.722
548.563
548.407
548.254
548.108
547.971
547.843
547.727
547.618
547.517
547.422
547.332
547.247
547.168
547.096
547.031
546.97
546.912
546.859
546.815
546.782
546.762
546.756
546.766
546.788
546.819
546.853
546.886
546.913
546.937
546.96
546.987
547.027
547.092
547.208
547.412
547.741
548.212
548.757
549.259
549.631
549.884
550.067
550.168
550.122
549.894
549.466
548.873
548.178
547.337
546.485
545.697
544.917
544.675
544.617
544.537
544.442
544.335
544.218
544.094
543.967
543.838
543.711
543.586
543.465
543.347
543.233
543.121
543.012
542.904
542.797
542.692
542.587
542.482
542.378
542.274
542.169
542.065
541.961
541.857
541.753
541.649
541.544
541.44
541.335
541.231
541.126
541.021
540.917
540.812
540.707
540.602
552.5
552.402
552.307
552.216
552.13
552.047
551.964
551.881
551.795
551.703
551.603
551.495
551.376
551.246
551.106
550.957
550.799
550.633
550.456
550.27
550.076
549.879
549.684
549.493
549.305
549.118
548.932
548.748
548.564
548.382
548.202
548.028
547.86
547.704
547.559
547.428
547.308
547.199
547.099
547.007
546.923
546.852
546.795
546.749
546.711
546.68
546.66
546.657
546.674
546.712
546.772
546.85
546.939
547.031
547.116
547.19
547.248
547.294
547.335
547.377
547.431
547.512
547.659
547.944
548.435
549.144
549.941
550.604
550.996
551.211
551.301
551.255
551.066
550.622
549.982
549.208
548.422
547.308
546.293
545.545
544.695
544.597
544.567
544.506
544.426
544.329
544.219
544.1
543.974
543.845
543.717
543.591
543.468
543.349
543.234
543.121
543.011
542.903
542.797
542.691
542.586
542.481
542.377
542.273
542.169
542.065
541.961
541.857
541.753
541.648
541.544
541.44
541.335
541.231
541.126
541.021
540.917
540.812
540.707
540.602
552.492
552.379
552.273
552.178
552.094
552.018
551.947
551.88
551.811
551.737
551.655
551.563
551.458
551.337
551.203
551.057
550.899
550.727
550.54
550.335
550.116
549.889
549.661
549.438
549.218
548.999
548.78
548.562
548.345
548.131
547.92
547.718
547.525
547.348
547.185
547.04
546.909
546.793
546.69
546.603
546.534
546.488
546.466
546.463
546.473
546.497
546.541
546.617
546.728
546.868
547.032
547.209
547.38
547.535
547.668
547.772
547.845
547.895
547.936
547.97
548.014
548.075
548.216
548.579
549.302
550.347
551.438
552.2
552.464
552.584
552.47
552.142
551.864
551.009
550.112
549.155
548.311
546.81
545.665
545.021
544.363
544.502
544.524
544.477
544.408
544.321
544.218
544.103
543.979
543.851
543.722
543.595
543.471
543.351
543.235
543.122
543.011
542.903
542.796
542.69
542.585
542.481
542.377
542.272
542.168
542.064
541.96
541.856
541.752
541.648
541.544
541.439
541.335
541.231
541.126
541.021
540.917
540.812
540.707
540.602
552.476
552.334
552.206
552.1
552.014
551.947
551.894
551.847
551.802
551.753
551.694
551.625
551.539
551.432
551.309
551.169
551.013
550.839
550.641
550.413
550.159
549.888
549.615
549.346
549.082
548.817
548.552
548.287
548.026
547.769
547.519
547.285
547.067
546.873
546.698
546.548
546.413
546.3
546.204
546.14
546.113
546.132
546.192
546.275
546.37
546.486
546.635
546.853
547.136
547.438
547.74
548.029
548.279
548.455
548.603
548.692
548.746
548.755
548.781
548.757
548.756
548.721
548.789
549.242
550.417
552.034
553.265
553.92
553.89
553.979
553.391
552.522
552.02
550.895
549.51
548.424
547.342
545.8
544.764
544.219
543.962
544.407
544.493
544.452
544.391
544.312
544.216
544.105
543.983
543.856
543.727
543.599
543.474
543.353
543.236
543.122
543.011
542.903
542.796
542.69
542.585
542.48
542.376
542.272
542.168
542.064
541.96
541.856
541.752
541.648
541.544
541.439
541.335
541.23
541.126
541.021
540.917
540.812
540.707
540.602
552.454
552.269
552.107
551.981
551.896
551.841
551.81
551.787
551.768
551.751
551.711
551.668
551.598
551.503
551.395
551.265
551.117
550.948
550.747
550.492
550.189
549.854
549.514
549.178
548.845
548.513
548.186
547.856
547.548
547.246
546.952
546.695
546.46
546.267
546.094
545.966
545.847
545.761
545.695
545.702
545.788
545.95
546.174
546.407
546.622
546.862
547.156
547.616
548.207
548.748
549.155
549.512
549.835
549.889
550.002
549.96
549.958
549.823
549.9
549.714
549.656
549.339
549.232
549.823
552.034
554.703
554.775
554.456
553.967
554.287
553.015
552
551.345
549.922
548.143
547.035
545.887
544.69
544.02
543.834
544.032
544.382
544.474
544.432
544.377
544.304
544.213
544.106
543.986
543.86
543.73
543.602
543.476
543.354
543.236
543.122
543.011
542.903
542.795
542.69
542.584
542.48
542.376
542.272
542.168
542.064
541.96
541.856
541.752
541.648
541.544
541.439
541.335
541.23
541.126
541.021
540.917
540.812
540.707
540.602
552.441
552.216
552.016
551.87
551.804
551.757
551.736
551.718
551.71
551.752
551.72
551.717
551.613
551.51
551.433
551.302
551.172
551.033
550.846
550.562
550.204
549.767
549.331
548.879
548.425
547.988
547.578
547.16
546.843
546.507
546.177
545.933
545.714
545.585
545.436
545.405
545.323
545.322
545.318
545.531
545.916
546.325
546.813
547.302
547.605
547.921
548.382
549.241
550.379
551.311
551.499
551.673
551.931
551.754
551.607
551.448
551.101
550.791
550.983
550.768
550.462
549.718
549.135
549.326
552.312
555.3
554.872
553.568
553.435
553.449
551.616
550.845
550.405
548.397
546.361
545.71
543.983
543.521
543.221
543.399
543.83
544.313
544.451
544.415
544.365
544.297
544.21
544.106
543.988
543.862
543.733
543.604
543.478
543.355
543.237
543.123
543.011
542.902
542.795
542.689
542.584
542.48
542.376
542.272
542.168
542.064
541.96
541.856
541.752
541.648
541.544
541.439
541.335
541.231
541.126
541.021
540.917
540.812
540.707
540.602
552.496
552.298
552.087
551.929
551.988
551.89
551.742
551.639
551.591
551.833
551.837
551.976
551.597
551.45
551.516
551.291
551.21
551.14
550.937
550.581
550.197
549.608
549.054
548.354
547.719
547.117
546.548
546.016
545.577
545.223
544.967
544.843
544.806
544.899
544.904
545.051
545.081
545.157
545.38
546.136
547.355
547.666
547.969
548.838
549.468
549.354
550.308
551.397
552.798
554.045
554.338
553.749
553.914
553.28
553.39
553.131
552.221
550.936
551.433
551.214
551.596
549.799
550.285
549.216
549.235
550.858
551.444
552.244
552.96
552.527
551.839
549.94
548.867
547.4
546.019
543.854
543.107
543.304
542.597
542.848
543.602
544.181
544.426
544.403
544.358
544.293
544.209
544.106
543.99
543.864
543.735
543.606
543.479
543.356
543.238
543.123
543.012
542.902
542.795
542.689
542.584
542.48
542.375
542.271
542.168
542.064
541.96
541.856
541.752
541.648
541.544
541.439
541.335
541.231
541.126
541.021
540.917