/*--------------------------------*- C++ -*----------------------------------*\
  =========                 |
  \\      /  F ield         | OpenFOAM: The Open Source CFD Toolbox
   \\    /   O peration     | Website:  https://openfoam.org
    \\  /    A nd           | Version:  6
     \\/     M anipulation  |
\*---------------------------------------------------------------------------*/
FoamFile
{
    version     2.0;
    format      ascii;
    class       volVectorField;
    location    "700";
    object      U;
}
// * * * * * * * * * * * * * * * * * * * * * * * * * * * * * * * * * * * * * //

dimensions      [0 1 -1 0 0 0 0];

internalField   nonuniform List<vector> 
4800
(
(-0.000106802 0 7.17621e-05)
(0.00010661 0 -7.20792e-05)
(0.000135047 0 -6.89714e-05)
(0.0001626 0 -5.01713e-05)
(0.000170395 0 -8.33562e-05)
(0.000208748 0 -5.88647e-05)
(0.000215471 0 -3.51588e-05)
(0.000204731 0 -3.57649e-05)
(0.000185054 0 -1.00133e-05)
(0.000157616 0 -1.92912e-05)
(0.000138695 0 -3.38457e-05)
(0.000143148 0 -3.46421e-05)
(0.000155256 0 -3.42363e-05)
(0.000172382 0 -3.30886e-05)
(0.000188716 0 -3.42924e-05)
(0.000214092 0 -2.22488e-05)
(0.000231999 0 -3.80261e-05)
(0.000270562 0 -1.48836e-05)
(0.000298642 0 -4.29584e-05)
(0.000331614 0 -1.23075e-05)
(0.00034809 0 -4.54273e-05)
(0.000395616 0 -5.42492e-05)
(0.000465732 0 -4.06124e-05)
(0.000474882 0 -2.13322e-05)
(0.000474628 0 -1.18636e-05)
(0.000480773 0 -5.98225e-06)
(0.000507903 0 -2.06731e-05)
(0.00057266 0 -3.75034e-05)
(0.000648761 0 -3.89845e-05)
(0.000665999 0 -2.48719e-05)
(0.000673614 0 -1.7497e-05)
(0.000690917 0 -5.25263e-06)
(0.000712782 0 -1.51403e-05)
(0.000732408 0 -1.65057e-05)
(0.000753892 0 -1.52477e-05)
(0.000795662 0 -5.00179e-05)
(0.000873497 0 -7.05065e-08)
(0.000943256 0 -1.96739e-05)
(0.000952253 0 -2.3187e-05)
(0.00096137 0 -8.01618e-06)
(0.000999447 0 5.48797e-06)
(0.00107831 0 -2.92808e-05)
(0.00117432 0 -6.48855e-05)
(0.00119626 0 -2.32917e-05)
(0.00120354 0 -1.29139e-05)
(0.00122942 0 -2.14317e-05)
(0.00127742 0 -2.40028e-05)
(0.00129802 0 -2.38908e-05)
(0.00129438 0 -1.68056e-05)
(0.0012882 0 -5.88443e-06)
(0.00127404 0 -1.75151e-05)
(0.00124765 0 2.67482e-05)
(0.00121821 0 -1.58254e-05)
(0.00119167 0 4.08373e-05)
(0.00116882 0 3.51977e-05)
(0.00115236 0 4.39249e-06)
(0.00113199 0 4.53384e-05)
(0.00110018 0 -2.86363e-05)
(0.00106205 0 2.44053e-05)
(0.00102679 0 4.71455e-05)
(0.00099402 0 -4.84809e-06)
(0.000943854 0 5.75337e-05)
(0.000872295 0 -4.05676e-05)
(0.000807052 0 2.55497e-05)
(0.000766574 0 3.8493e-05)
(0.000723868 0 2.00518e-05)
(0.000658616 0 6.44839e-06)
(0.000562043 0 4.71075e-05)
(0.000501284 0 -2.42721e-05)
(0.000487148 0 4.08603e-05)
(0.000459288 0 -5.24569e-06)
(0.000394037 0 6.17669e-05)
(0.000351777 0 -9.68771e-06)
(0.000303801 0 8.12796e-05)
(0.000263933 0 -1.11298e-05)
(0.000222086 0 5.49139e-05)
(0.000195032 0 -1.42621e-05)
(0.000162641 0 1.43359e-05)
(8.2654e-05 0 -5.01392e-05)
(2.34722e-07 0 -0.000140634)
(-1.99356e-08 0 -9.69931e-05)
(-5.33717e-13 0 -1.31696e-14)
(-1.05837e-12 0 -8.38736e-15)
(-1.0367e-12 0 -1.29831e-14)
(-1.00339e-12 0 -1.99812e-14)
(-9.56458e-13 0 -2.67957e-14)
(-8.96868e-13 0 -3.25685e-14)
(-8.26861e-13 0 -3.70746e-14)
(-7.48993e-13 0 -4.03174e-14)
(-6.65801e-13 0 -4.23749e-14)
(-5.79649e-13 0 -4.33417e-14)
(-4.9262e-13 0 -4.33152e-14)
(-4.06466e-13 0 -4.24094e-14)
(-3.22653e-13 0 -4.07616e-14)
(-2.42437e-13 0 -3.85114e-14)
(-1.66903e-13 0 -3.5782e-14)
(-9.69235e-14 0 -3.2689e-14)
(-3.3143e-14 0 -2.93497e-14)
(2.3985e-14 0 -2.58714e-14)
(7.41725e-14 0 -2.23402e-14)
(1.17305e-13 0 -1.88281e-14)
(1.5342e-13 0 -1.5403e-14)
(1.82657e-13 0 -1.21256e-14)
(2.0522e-13 0 -9.03932e-15)
(2.21392e-13 0 -6.17012e-15)
(2.31546e-13 0 -3.5328e-15)
(2.36133e-13 0 -1.13584e-15)
(2.35652e-13 0 1.01832e-15)
(2.30626e-13 0 2.93296e-15)
(2.2158e-13 0 4.61562e-15)
(2.09043e-13 0 6.08047e-15)
(1.93547e-13 0 7.35253e-15)
(1.75624e-13 0 8.46678e-15)
(1.55783e-13 0 9.4571e-15)
(1.34449e-13 0 1.03403e-14)
(1.11912e-13 0 1.11052e-14)
(8.83309e-14 0 1.17165e-14)
(6.38041e-14 0 1.21311e-14)
(3.85055e-14 0 1.23126e-14)
(1.28471e-14 0 1.22042e-14)
(7.91532e-06 0 -9.65921e-05)
(6.56287e-05 0 -0.000116886)
(0.000129365 0 -6.47802e-05)
(0.000130115 0 -4.4453e-05)
(0.000144807 0 -1.44604e-05)
(0.000152053 0 -1.00492e-05)
(0.000148948 0 2.11657e-05)
(0.000137931 0 4.52578e-05)
(0.000124781 0 5.06875e-05)
(0.000108643 0 3.68596e-05)
(9.79135e-05 0 2.832e-05)
(9.19841e-05 0 1.04402e-05)
(9.51458e-05 0 1.66138e-06)
(0.000110888 0 5.7254e-06)
(0.00011861 0 -2.74562e-05)
(0.000156911 0 1.55765e-05)
(0.000162905 0 -8.00572e-05)
(0.000222372 0 9.8468e-06)
(0.000245459 0 -8.98419e-05)
(0.000303096 0 5.97407e-05)
(0.000295522 0 -0.000118853)
(0.000347609 0 -8.57243e-05)
(0.00041966 0 -1.27728e-05)
(0.000432777 0 -3.6004e-05)
(0.000438688 0 -1.41923e-05)
(0.000445359 0 -2.09294e-05)
(0.000464655 0 -8.74644e-05)
(0.000536551 0 -7.0699e-05)
(0.000595115 0 -5.25976e-05)
(0.000602067 0 -3.95799e-05)
(0.000611478 0 -2.75196e-05)
(0.000626229 0 -1.60611e-05)
(0.000645933 0 -3.46678e-05)
(0.000678408 0 -4.18681e-05)
(0.000715856 0 -5.96617e-05)
(0.000767705 0 -7.08892e-05)
(0.000839104 0 -4.04573e-05)
(0.000888149 0 -8.33777e-05)
(0.000929601 0 -5.14714e-05)
(0.000963791 0 -7.05448e-05)
(0.00099845 0 -0.000104435)
(0.00106329 0 -2.44343e-05)
(0.00114916 0 -4.47049e-05)
(0.00116987 0 -0.000101354)
(0.00117408 0 -6.72856e-05)
(0.00119352 0 -5.00452e-05)
(0.0012329 0 -2.72662e-05)
(0.00124963 0 -1.52145e-06)
(0.00124617 0 3.00684e-06)
(0.00123618 0 2.12121e-05)
(0.001219 0 4.36487e-05)
(0.00119591 0 1.97262e-05)
(0.00116707 0 4.93242e-05)
(0.0011402 0 3.12721e-05)
(0.00110819 0 3.39721e-06)
(0.00107942 0 5.64308e-05)
(0.0010646 0 7.28265e-06)
(0.00104607 0 2.44744e-05)
(0.0010179 0 6.12521e-05)
(0.000982596 0 3.10648e-05)
(0.000932059 0 0.000126275)
(0.000890806 0 6.25507e-05)
(0.000845005 0 4.52074e-05)
(0.000796298 0 0.000105521)
(0.000745684 0 0.000111473)
(0.000667214 0 0.000181186)
(0.000609371 0 0.000124892)
(0.000549719 0 3.20997e-05)
(0.000499534 0 8.59533e-05)
(0.000474834 0 9.80548e-05)
(0.000442396 0 6.699e-05)
(0.000382203 0 8.2634e-05)
(0.000345268 0 4.53093e-05)
(0.000304344 0 7.97649e-05)
(0.000266858 0 4.91806e-05)
(0.000221335 0 6.23611e-05)
(0.000198208 0 3.89424e-05)
(0.000170293 0 7.49456e-05)
(0.000151023 0 7.68172e-05)
(9.73874e-05 0 0.000119074)
(5.22023e-08 0 8.25971e-05)
(-5.58476e-13 0 -1.31049e-14)
(-1.05793e-12 0 -1.61323e-14)
(-1.04819e-12 0 -3.66833e-14)
(-1.01721e-12 0 -5.99405e-14)
(-9.69045e-13 0 -8.11293e-14)
(-9.07147e-13 0 -9.86974e-14)
(-8.3461e-13 0 -1.12292e-13)
(-7.54293e-13 0 -1.22005e-13)
(-6.68825e-13 0 -1.28074e-13)
(-5.80589e-13 0 -1.30794e-13)
(-4.91687e-13 0 -1.30491e-13)
(-4.03913e-13 0 -1.27538e-13)
(-3.18755e-13 0 -1.22354e-13)
(-2.37457e-13 0 -1.15362e-13)
(-1.6108e-13 0 -1.06961e-13)
(-9.04912e-14 0 -9.75252e-14)
(-2.63253e-14 0 -8.74092e-14)
(3.09945e-14 0 -7.69285e-14)
(8.12158e-14 0 -6.63478e-14)
(1.24242e-13 0 -5.58895e-14)
(1.60123e-13 0 -4.57458e-14)
(1.8902e-13 0 -3.60744e-14)
(2.11175e-13 0 -2.69877e-14)
(2.26898e-13 0 -1.85538e-14)
(2.3658e-13 0 -1.08094e-14)
(2.40684e-13 0 -3.77115e-15)
(2.39721e-13 0 2.56208e-15)
(2.34223e-13 0 8.21226e-15)
(2.24727e-13 0 1.32257e-14)
(2.1178e-13 0 1.76707e-14)
(1.95933e-13 0 2.16247e-14)
(1.77729e-13 0 2.51512e-14)
(1.57657e-13 0 2.82766e-14)
(1.36097e-13 0 3.09808e-14)
(1.13288e-13 0 3.32081e-14)
(8.93568e-14 0 3.48986e-14)
(6.44003e-14 0 3.60209e-14)
(3.85786e-14 0 3.65924e-14)
(1.27387e-14 0 3.66662e-14)
(-3.94276e-06 0 -0.000140353)
(5.26494e-05 0 -0.000126371)
(7.86321e-05 0 -8.80076e-05)
(5.05501e-05 0 -6.93143e-05)
(6.71642e-05 0 -3.38921e-05)
(5.99798e-05 0 -1.70458e-05)
(5.37149e-05 0 3.43801e-06)
(4.44471e-05 0 2.51711e-05)
(3.18412e-05 0 3.11807e-05)
(2.24313e-05 0 4.44556e-05)
(2.06386e-05 0 3.36278e-05)
(-2.20952e-05 0 -5.11019e-06)
(-6.62763e-06 0 -2.76791e-05)
(3.88248e-05 0 -3.34429e-05)
(4.15674e-05 0 -7.5325e-05)
(0.000122737 0 -3.8779e-05)
(0.000118555 0 -0.000124022)
(0.000217082 0 -3.11973e-05)
(0.000191988 0 -0.000173653)
(0.000310172 0 3.32857e-05)
(0.000252715 0 -0.000193026)
(0.000311042 0 -0.000121704)
(0.000361726 0 -6.79417e-05)
(0.00038841 0 -9.30047e-05)
(0.000421606 0 -2.15359e-05)
(0.000464491 0 -1.37994e-05)
(0.00044738 0 -0.000247134)
(0.000533257 0 -9.76621e-05)
(0.000545419 0 -5.37834e-05)
(0.000552609 0 -4.72548e-05)
(0.00057581 0 -2.2324e-05)
(0.000599025 0 -1.81422e-05)
(0.000622623 0 -5.8699e-05)
(0.000676796 0 -4.60844e-05)
(0.000733355 0 -0.000100693)
(0.000765624 0 -0.000167041)
(0.000819612 0 -0.000101252)
(0.000853192 0 -0.000168413)
(0.000896571 0 -0.000151489)
(0.000968429 0 -7.41229e-06)
(0.00100694 0 -0.0001992)
(0.00105952 0 -0.000175556)
(0.00108558 0 -8.94836e-05)
(0.00109627 0 -5.90233e-05)
(0.00110999 0 -8.92187e-05)
(0.00114281 0 -8.71587e-05)
(0.00116246 0 -3.5607e-05)
(0.00116619 0 -2.00159e-05)
(0.00117655 0 1.23979e-05)
(0.00117521 0 2.63899e-05)
(0.0011596 0 6.10493e-05)
(0.00113629 0 7.89442e-05)
(0.00111289 0 5.66777e-05)
(0.00108625 0 0.000103015)
(0.00105967 0 6.60934e-05)
(0.00101746 0 5.70481e-05)
(0.000982599 0 0.000109257)
(0.000970552 0 4.41295e-05)
(0.000948994 0 6.25612e-05)
(0.000913653 0 9.60348e-05)
(0.000870651 0 5.89934e-05)
(0.000800975 0 0.000155272)
(0.000790819 0 9.95396e-05)
(0.000767065 0 0.000112961)
(0.000720232 0 0.000104557)
(0.000662017 0 6.85752e-05)
(0.000601003 0 8.28937e-05)
(0.000526974 0 0.000130552)
(0.000482244 0 0.000137665)
(0.000463647 0 0.000114436)
(0.000423346 0 9.52273e-05)
(0.000370089 0 7.26018e-05)
(0.000327867 0 0.000105761)
(0.000295762 0 0.00011382)
(0.000253722 0 0.000116993)
(0.000221402 0 7.81955e-05)
(0.000189572 0 6.5944e-05)
(0.000169907 0 8.31129e-05)
(0.000144829 0 0.00010463)
(0.0001002 0 0.000132882)
(3.97746e-08 0 0.000110879)
(-5.69711e-13 0 5.78792e-14)
(-1.08144e-12 0 -6.19005e-15)
(-1.08031e-12 0 -5.76216e-14)
(-1.04784e-12 0 -1.01763e-13)
(-9.95215e-13 0 -1.38827e-13)
(-9.2803e-13 0 -1.68635e-13)
(-8.50168e-13 0 -1.91348e-13)
(-7.64776e-13 0 -2.07352e-13)
(-6.7459e-13 0 -2.17125e-13)
(-5.82065e-13 0 -2.21196e-13)
(-4.89364e-13 0 -2.20155e-13)
(-3.9833e-13 0 -2.14663e-13)
(-3.10477e-13 0 -2.05443e-13)
(-2.27044e-13 0 -1.93227e-13)
(-1.49066e-13 0 -1.78717e-13)
(-7.7372e-14 0 -1.62571e-13)
(-1.25463e-14 0 -1.45389e-13)
(4.50464e-14 0 -1.27697e-13)
(9.52115e-14 0 -1.09936e-13)
(1.37907e-13 0 -9.24738e-14)
(1.73235e-13 0 -7.56073e-14)
(2.01415e-13 0 -5.95669e-14)
(2.22741e-13 0 -4.45176e-14)
(2.3757e-13 0 -3.05673e-14)
(2.46328e-13 0 -1.7778e-14)
(2.49504e-13 0 -6.17178e-15)
(2.47636e-13 0 4.27272e-15)
(2.41289e-13 0 1.36235e-14)
(2.31038e-13 0 2.19897e-14)
(2.17442e-13 0 2.9495e-14)
(2.01027e-13 0 3.62384e-14)
(1.82276e-13 0 4.22578e-14)
(1.61613e-13 0 4.75218e-14)
(1.3938e-13 0 5.19556e-14)
(1.1583e-13 0 5.54896e-14)
(9.11437e-14 0 5.8107e-14)
(6.54979e-14 0 5.98698e-14)
(3.91508e-14 0 6.09152e-14)
(1.2921e-14 0 6.14344e-14)
(-1.85196e-05 0 -0.000146793)
(-8.97724e-06 0 -0.000127879)
(4.39327e-05 0 -7.49054e-05)
(-8.0553e-05 0 -4.19355e-05)
(2.67099e-06 0 -2.86372e-06)
(-1.65304e-05 0 2.82245e-05)
(-6.72904e-05 0 4.48341e-05)
(-9.71798e-05 0 5.77156e-05)
(-0.000109393 0 5.96159e-05)
(-0.000113528 0 3.75771e-05)
(-0.000112982 0 5.31576e-06)
(-0.000113817 0 -3.79132e-05)
(-6.37464e-05 0 -6.7736e-05)
(5.68049e-06 0 -5.40426e-05)
(2.19992e-05 0 -7.66335e-05)
(9.09386e-05 0 -9.6374e-05)
(9.74595e-05 0 -0.000154774)
(0.00018645 0 -0.000105431)
(0.000196296 0 -0.000152276)
(0.0003057 0 2.16252e-05)
(0.000258051 0 -0.000143071)
(0.000287494 0 -0.000128886)
(0.000325052 0 -8.58383e-05)
(0.000363139 0 -7.6267e-05)
(0.000398303 0 -6.27311e-05)
(0.000436672 0 -4.23529e-05)
(0.000476594 0 -6.69432e-05)
(0.000475556 0 -0.00015394)
(0.000498429 0 -0.000125076)
(0.000516537 0 -0.000140431)
(0.000564996 0 -7.40182e-05)
(0.000617849 0 -8.09209e-05)
(0.000631848 0 -0.000155159)
(0.000668794 0 -9.80446e-05)
(0.000724018 0 -0.000109666)
(0.000747266 0 -0.000241627)
(0.000780212 0 -0.000206746)
(0.000804841 0 -0.000152293)
(0.00081543 0 -0.000169871)
(0.000848357 0 -0.000175871)
(0.000894877 0 -0.000123233)
(0.000896425 0 -0.000124068)
(0.000899658 0 -0.000128092)
(0.000923397 0 -0.000140515)
(0.0009731 0 -0.000118652)
(0.0010082 0 -8.35567e-05)
(0.00101986 0 -6.28893e-05)
(0.00103518 0 -5.98382e-05)
(0.00106553 0 -1.407e-05)
(0.00108252 0 4.10336e-05)
(0.0010757 0 4.82511e-05)
(0.00105506 0 6.93122e-05)
(0.00103223 0 7.63271e-05)
(0.00101075 0 6.16691e-05)
(0.000981805 0 0.000104338)
(0.000954177 0 5.27141e-05)
(0.000889569 0 0.000153139)
(0.000861121 0 0.000148225)
(0.000866207 0 0.000112429)
(0.000850491 0 0.000115497)
(0.000804572 0 0.000162644)
(0.000773956 0 0.000132215)
(0.000679441 0 0.000279204)
(0.000601721 0 0.000333374)
(0.000605382 0 0.000269662)
(0.000584196 0 0.000255234)
(0.000526569 0 0.000264137)
(0.000486211 0 0.000202949)
(0.000463131 0 0.00014992)
(0.000401058 0 0.000204323)
(0.000363692 0 0.000154754)
(0.00034326 0 0.000121282)
(0.000308165 0 0.000156052)
(0.000283003 0 0.000148943)
(0.00024032 0 0.000149213)
(0.00019773 0 0.000136322)
(0.00019114 0 9.57738e-05)
(0.000155989 0 0.00011712)
(9.29513e-05 0 0.000153925)
(6.01623e-05 0 0.000170347)
(-2.65755e-08 0 0.000145305)
(-5.97656e-13 0 8.00367e-14)
(-1.17293e-12 0 -8.17138e-15)
(-1.14359e-12 0 -8.55853e-14)
(-1.09841e-12 0 -1.50749e-13)
(-1.03592e-12 0 -2.03987e-13)
(-9.59667e-13 0 -2.45966e-13)
(-8.73327e-13 0 -2.77459e-13)
(-7.80071e-13 0 -2.99248e-13)
(-6.82669e-13 0 -3.12127e-13)
(-5.83618e-13 0 -3.16917e-13)
(-4.85154e-13 0 -3.14494e-13)
(-3.89201e-13 0 -3.05808e-13)
(-2.97319e-13 0 -2.91893e-13)
(-2.10732e-13 0 -2.73805e-13)
(-1.30425e-13 0 -2.52563e-13)
(-5.71634e-14 0 -2.29119e-13)
(8.54942e-15 0 -2.04342e-13)
(6.64476e-14 0 -1.78993e-13)
(1.16439e-13 0 -1.53691e-13)
(1.58571e-13 0 -1.28926e-13)
(1.9303e-13 0 -1.05077e-13)
(2.2011e-13 0 -8.24325e-14)
(2.40175e-13 0 -6.1207e-14)
(2.53638e-13 0 -4.15506e-14)
(2.60975e-13 0 -2.35516e-14)
(2.62735e-13 0 -7.23242e-15)
(2.59516e-13 0 7.45451e-15)
(2.5194e-13 0 2.06182e-14)
(2.40599e-13 0 3.24026e-14)
(2.26029e-13 0 4.29463e-14)
(2.08696e-13 0 5.23435e-14)
(1.89012e-13 0 6.06235e-14)
(1.67354e-13 0 6.77588e-14)
(1.44065e-13 0 7.37011e-14)
(1.1944e-13 0 7.84271e-14)
(9.37371e-14 0 8.19757e-14)
(6.72085e-14 0 8.44592e-14)
(4.01432e-14 0 8.60398e-14)
(1.32579e-14 0 8.68581e-14)
(-3.01915e-05 0 -0.000144023)
(-3.352e-05 0 -9.20313e-05)
(-7.89262e-05 0 -4.6018e-05)
(-4.60674e-05 0 -3.17706e-05)
(-8.53945e-05 0 1.37595e-05)
(-0.000106393 0 3.93307e-05)
(-0.000113145 0 7.13859e-05)
(-0.000140401 0 8.35886e-05)
(-0.000156288 0 7.99208e-05)
(-0.000161105 0 4.97389e-05)
(-0.000159086 0 2.47105e-05)
(-0.000150191 0 -4.67108e-05)
(-0.000116528 0 -7.55088e-05)
(-8.70531e-05 0 -0.000115041)
(-4.93076e-05 0 -0.000164931)
(5.33464e-05 0 -0.000206128)
(9.26846e-05 0 -0.000194227)
(0.000145394 0 -0.000174612)
(0.000162151 0 -0.000172201)
(0.000208286 0 -0.00012709)
(0.000218168 0 -0.000142853)
(0.000266699 0 -0.000116147)
(0.000207127 0 -0.000248017)
(0.000323533 0 -6.78385e-05)
(0.00035065 0 -0.000106439)
(0.000357595 0 -0.000164926)
(0.000367657 0 -0.000191699)
(0.000397281 0 -0.000144853)
(0.000419611 0 -8.72824e-05)
(0.000431366 0 -0.000123287)
(0.000462521 0 -0.000154966)
(0.000556526 0 7.55268e-05)
(0.000587844 0 -0.000135431)
(0.000570436 0 -0.000247447)
(0.000603131 0 -0.000226641)
(0.000639871 0 -0.000183728)
(0.000647919 0 -0.00017701)
(0.000656321 0 -0.000181552)
(0.000686162 0 -0.000168632)
(0.000714302 0 -0.000137043)
(0.000712094 0 -0.000175871)
(0.000720248 0 -0.000181482)
(0.000744991 0 -0.000157069)
(0.00078106 0 -0.000121906)
(0.000791547 0 -0.000122526)
(0.00079818 0 -0.000124271)
(0.000821801 0 -0.00010683)
(0.000857541 0 -7.9459e-05)
(0.00088909 0 -4.44716e-05)
(0.000915449 0 3.7494e-05)
(0.0009275 0 9.42223e-05)
(0.000924411 0 9.85528e-05)
(0.000914746 0 0.000110528)
(0.00089668 0 0.000131736)
(0.000881885 0 8.63095e-05)
(0.000848801 0 0.000148685)
(0.000821558 0 7.92594e-05)
(0.000772934 0 0.000139303)
(0.000745656 0 0.000206702)
(0.000760371 0 0.000142525)
(0.000758302 0 8.22268e-05)
(0.00073289 0 0.000112181)
(0.00068779 0 4.2837e-05)
(0.000635284 0 -2.13737e-05)
(0.000594775 0 0.000179244)
(0.000568529 0 0.000220957)
(0.000538205 0 0.000189739)
(0.000405824 0 0.000281142)
(0.000373454 0 0.000265222)
(0.000377568 0 0.000190119)
(0.000361447 0 0.000125903)
(0.00028089 0 0.000208485)
(0.000257495 0 0.000216928)
(0.000248903 0 0.000194819)
(0.00021858 0 0.000180358)
(0.000215268 0 0.0001192)
(0.000146357 0 0.000168011)
(0.000101009 0 0.000175471)
(6.17414e-05 0 0.000185868)
(9.10254e-05 0 0.000187742)
(-3.13797e-09 0 0.000180473)
(-6.40021e-13 0 1.00991e-13)
(-1.24658e-12 0 -2.06837e-14)
(-1.22275e-12 0 -1.25848e-13)
(-1.16624e-12 0 -2.12018e-13)
(-1.09043e-12 0 -2.80841e-13)
(-1.0015e-12 0 -3.3422e-13)
(-9.0345e-13 0 -3.73672e-13)
(-7.99444e-13 0 -4.00388e-13)
(-6.92259e-13 0 -4.15454e-13)
(-5.84431e-13 0 -4.19987e-13)
(-4.78255e-13 0 -4.15185e-13)
(-3.75729e-13 0 -4.02313e-13)
(-2.78474e-13 0 -3.82722e-13)
(-1.87714e-13 0 -3.57797e-13)
(-1.0438e-13 0 -3.28896e-13)
(-2.91513e-14 0 -2.97292e-13)
(3.75801e-14 0 -2.64145e-13)
(9.56979e-14 0 -2.30464e-13)
(1.45278e-13 0 -1.97074e-13)
(1.8652e-13 0 -1.64597e-13)
(2.19729e-13 0 -1.33479e-13)
(2.45285e-13 0 -1.04035e-13)
(2.63622e-13 0 -7.64889e-14)
(2.75225e-13 0 -5.09978e-14)
(2.80647e-13 0 -2.76569e-14)
(2.8051e-13 0 -6.49135e-15)
(2.75486e-13 0 1.25463e-14)
(2.66237e-13 0 2.95656e-14)
(2.53366e-13 0 4.47132e-14)
(2.37383e-13 0 5.81395e-14)
(2.18704e-13 0 6.99667e-14)
(1.97691e-13 0 8.02704e-14)
(1.7469e-13 0 8.90823e-14)
(1.50049e-13 0 9.64139e-14)
(1.24105e-13 0 1.02291e-13)
(9.71757e-14 0 1.06783e-13)
(6.95619e-14 0 1.10012e-13)
(4.15497e-14 0 1.12121e-13)
(1.37393e-14 0 1.13215e-13)
(-1.85669e-05 0 -0.000135292)
(-4.03604e-05 0 -7.31667e-05)
(-5.32544e-05 0 -4.21283e-05)
(-8.18755e-05 0 -9.03129e-06)
(-0.00011406 0 3.44664e-05)
(-0.00014201 0 5.70215e-05)
(-0.000156971 0 8.37194e-05)
(-0.000176684 0 8.11581e-05)
(-0.000183171 0 7.82247e-05)
(-0.000185548 0 5.71427e-05)
(-0.000196295 0 -1.37414e-06)
(-0.000182053 0 -6.67012e-05)
(-0.000145443 0 -0.000109203)
(-9.38622e-05 0 -0.000210202)
(-3.83284e-05 0 -0.00023298)
(1.85989e-05 0 -0.000233502)
(5.29982e-05 0 -0.000215494)
(0.000109798 0 -0.000192221)
(0.000109402 0 -0.000174481)
(0.000129557 0 -0.000158501)
(0.000161757 0 -0.000147485)
(0.000186573 0 -0.00016627)
(0.000198418 0 -0.000174452)
(0.000217389 0 -0.000170154)
(0.000264217 0 -0.000134922)
(0.000287582 0 -0.00013631)
(0.000292493 0 -0.000146195)
(0.000293236 0 -0.000156623)
(0.00029892 0 -0.000165009)
(0.000332897 0 -0.000137249)
(0.000349495 0 -0.000165728)
(0.000376376 0 -0.000202723)
(0.000443966 0 -0.00016043)
(0.000483635 0 -0.000138421)
(0.000488828 0 -0.000168187)
(0.000490298 0 -0.000204498)
(0.000510439 0 -0.000203994)
(0.000535969 0 -0.000196589)
(0.00056391 0 -0.000196978)
(0.000577823 0 -0.000201403)
(0.000590961 0 -0.000185156)
(0.000603152 0 -0.000169554)
(0.000610645 0 -0.000159378)
(0.000615263 0 -0.000159251)
(0.000621405 0 -0.000161273)
(0.000634004 0 -0.000149865)
(0.000654785 0 -0.000103502)
(0.00066758 0 -7.56406e-05)
(0.000683602 0 -5.68259e-05)
(0.000713439 0 -3.75538e-05)
(0.000734135 0 4.91e-05)
(0.000745974 0 8.55833e-05)
(0.000755252 0 0.000118696)
(0.000752782 0 0.000125765)
(0.000741067 0 0.000141614)
(0.000734533 0 0.000122029)
(0.00072067 0 0.000132724)
(0.000693013 0 0.00015906)
(0.000669669 0 0.000158552)
(0.000613136 0 0.000266332)
(0.000547609 0 0.000353338)
(0.000493904 0 0.000394788)
(0.000451875 0 0.000367092)
(0.000493379 0 0.000299789)
(0.000491875 0 0.00029443)
(0.00042737 0 0.000341955)
(0.000418679 0 0.000288313)
(0.000391791 0 0.000253725)
(0.000355818 0 0.000251978)
(0.000312338 0 0.000240188)
(0.000291926 0 0.000211759)
(0.000249268 0 0.000231768)
(0.000253544 0 0.000205136)
(0.000225495 0 0.000211076)
(0.000192523 0 0.000206323)
(0.000190135 0 0.00016922)
(0.000121281 0 0.000207885)
(6.78701e-05 0 0.000215955)
(1.08647e-05 0 0.000222852)
(-7.99546e-06 0 0.000223486)
(-1.03027e-07 0 0.000204196)
(-6.92444e-13 0 1.25284e-13)
(-1.39933e-12 0 -4.96601e-14)
(-1.33483e-12 0 -1.85436e-13)
(-1.2534e-12 0 -2.91181e-13)
(-1.15812e-12 0 -3.737e-13)
(-1.0525e-12 0 -4.36905e-13)
(-9.39494e-13 0 -4.83013e-13)
(-8.21854e-13 0 -5.13476e-13)
(-7.02268e-13 0 -5.29535e-13)
(-5.83349e-13 0 -5.32538e-13)
(-4.6748e-13 0 -5.24008e-13)
(-3.56738e-13 0 -5.05586e-13)
(-2.52802e-13 0 -4.78989e-13)
(-1.56906e-13 0 -4.45965e-13)
(-6.99202e-14 0 -4.08226e-13)
(7.58826e-15 0 -3.67374e-13)
(7.53775e-14 0 -3.24864e-13)
(1.33519e-13 0 -2.81963e-13)
(1.82306e-13 0 -2.39718e-13)
(2.22166e-13 0 -1.98923e-13)
(2.53591e-13 0 -1.60114e-13)
(2.771e-13 0 -1.2361e-13)
(2.93212e-13 0 -8.95881e-14)
(3.0247e-13 0 -5.81583e-14)
(3.05482e-13 0 -2.93953e-14)
(3.02938e-13 0 -3.33504e-15)
(2.95573e-13 0 2.00444e-14)
(2.84107e-13 0 4.0834e-14)
(2.69173e-13 0 5.91864e-14)
(2.51282e-13 0 7.52904e-14)
(2.30826e-13 0 8.93346e-14)
(2.08128e-13 0 1.01477e-13)
(1.83498e-13 0 1.11828e-13)
(1.57273e-13 0 1.20463e-13)
(1.29809e-13 0 1.27444e-13)
(1.01458e-13 0 1.32852e-13)
(7.25471e-14 0 1.36798e-13)
(4.33462e-14 0 1.394e-13)
(1.43512e-14 0 1.40732e-13)
(-4.5177e-06 0 -0.000104466)
(-7.8015e-05 0 -2.01081e-05)
(-7.82981e-05 0 -9.64037e-07)
(-8.77993e-05 0 1.52369e-05)
(-0.000121936 0 5.68408e-05)
(-0.000151827 0 7.1193e-05)
(-0.000176511 0 9.42257e-05)
(-0.000196544 0 0.000111462)
(-0.000223179 0 9.94994e-05)
(-0.000243599 0 7.11947e-05)
(-0.000252692 0 3.51859e-05)
(-0.000241044 0 -8.44139e-05)
(-0.00021009 0 -0.000140643)
(-0.000172018 0 -0.000223369)
(-0.000136143 0 -0.000245312)
(-0.000120608 0 -0.000259836)
(-6.39638e-05 0 -0.00027922)
(2.41845e-05 0 -0.000245932)
(5.62473e-05 0 -0.000182557)
(8.28011e-05 0 -0.000170489)
(0.000134758 0 -0.000154046)
(9.42955e-05 0 -0.000204131)
(0.000139272 0 -0.000185023)
(0.000133199 0 -0.000192616)
(0.000167453 0 -0.000165194)
(0.000178913 0 -0.000167021)
(0.000194946 0 -0.000168698)
(0.000207185 0 -0.000170318)
(0.000225988 0 -0.000162154)
(0.000224671 0 -0.000194734)
(0.000251534 0 -0.000208372)
(0.00030588 0 -0.000171342)
(0.000335107 0 -0.000177789)
(0.000339505 0 -0.000226174)
(0.000377178 0 -0.0002145)
(0.000391177 0 -0.000223081)
(0.00040634 0 -0.000233337)
(0.000429202 0 -0.000229157)
(0.000464691 0 -0.000196316)
(0.000480134 0 -0.000183244)
(0.000491346 0 -0.000172589)
(0.000498882 0 -0.000171455)
(0.000502835 0 -0.000172849)
(0.000511417 0 -0.000158065)
(0.000520352 0 -0.000139158)
(0.000521571 0 -0.000127651)
(0.000520923 0 -0.000111139)
(0.000525102 0 -0.000111655)
(0.000544009 0 -6.91982e-05)
(0.00055179 0 1.86939e-05)
(0.000557955 0 3.51867e-05)
(0.0005804 0 5.64156e-05)
(0.000610205 0 0.000108356)
(0.000615408 0 0.000120658)
(0.000606535 0 0.000118462)
(0.000588304 0 0.00015962)
(0.000598264 0 0.000145897)
(0.000604831 0 0.000127507)
(0.000611393 0 8.08841e-05)
(0.000611417 0 4.31412e-05)
(0.000605481 0 4.45247e-05)
(0.000583883 0 8.46382e-05)
(0.000529627 0 0.000184169)
(0.000435758 0 0.000304421)
(0.000373032 0 0.000350274)
(0.00041183 0 0.000256137)
(0.000371946 0 0.000264135)
(0.000332416 0 0.000281092)
(0.000283759 0 0.000296406)
(0.000252372 0 0.000270506)
(0.000219167 0 0.00025129)
(0.000223142 0 0.000236089)
(0.000210496 0 0.000238173)
(0.00018119 0 0.000245073)
(0.000186924 0 0.00021386)
(0.000126464 0 0.000224904)
(0.000101582 0 0.000248707)
(0.000102518 0 0.000260114)
(-6.26877e-06 0 0.000273829)
(4.02593e-06 0 0.000285759)
(-2.47121e-07 0 0.000196506)
(-7.46204e-13 0 1.07958e-13)
(-1.55696e-12 0 -1.17888e-13)
(-1.46423e-12 0 -2.75436e-13)
(-1.3545e-12 0 -3.94086e-13)
(-1.23615e-12 0 -4.86343e-13)
(-1.11082e-12 0 -5.57064e-13)
(-9.80021e-13 0 -6.08254e-13)
(-8.45966e-13 0 -6.41102e-13)
(-7.11321e-13 0 -6.56767e-13)
(-5.78904e-13 0 -6.5672e-13)
(-4.51303e-13 0 -6.42808e-13)
(-3.3071e-13 0 -6.17114e-13)
(-2.18853e-13 0 -5.81821e-13)
(-1.1695e-13 0 -5.39097e-13)
(-2.57884e-14 0 -4.91041e-13)
(5.42105e-14 0 -4.39604e-13)
(1.22992e-13 0 -3.86528e-13)
(1.80844e-13 0 -3.33325e-13)
(2.28317e-13 0 -2.81261e-13)
(2.66124e-13 0 -2.31329e-13)
(2.95042e-13 0 -1.84201e-13)
(3.15811e-13 0 -1.40228e-13)
(3.29074e-13 0 -9.9531e-14)
(3.35418e-13 0 -6.21254e-14)
(3.3547e-13 0 -2.80107e-14)
(3.2995e-13 0 2.80976e-15)
(3.19655e-13 0 3.03591e-14)
(3.05379e-13 0 5.47271e-14)
(2.87823e-13 0 7.6087e-14)
(2.67531e-13 0 9.468e-14)
(2.44891e-13 0 1.10773e-13)
(2.20185e-13 0 1.2461e-13)
(1.93677e-13 0 1.36381e-13)
(1.65664e-13 0 1.46217e-13)
(1.36494e-13 0 1.54211e-13)
(1.0653e-13 0 1.60452e-13)
(7.61097e-14 0 1.65037e-13)
(4.54835e-14 0 1.68063e-13)
(1.50716e-14 0 1.69586e-13)
(-6.22169e-05 0 -5.5074e-05)
(-3.99214e-05 0 -2.7466e-05)
(-5.86202e-05 0 -4.30629e-06)
(-9.4195e-05 0 4.84623e-05)
(-0.00011449 0 8.36449e-05)
(-0.000148838 0 0.000101511)
(-0.00019002 0 0.000124026)
(-0.00023316 0 0.000144358)
(-0.000279445 0 0.00012927)
(-0.000313463 0 7.86954e-05)
(-0.00032473 0 4.91303e-06)
(-0.000299561 0 -0.000119422)
(-0.000263643 0 -0.000183006)
(-0.000207259 0 -0.00025634)
(-0.000162958 0 -0.000296273)
(-0.000131613 0 -0.000312384)
(-6.26496e-05 0 -0.000300878)
(-3.68095e-05 0 -0.000248524)
(-5.15246e-05 0 -0.000220598)
(-3.27219e-05 0 -0.000234778)
(3.17345e-05 0 -0.000223934)
(7.67844e-05 0 -0.000194637)
(6.98849e-05 0 -0.000199425)
(7.38322e-05 0 -0.000198936)
(9.76503e-05 0 -0.000176443)
(0.000105163 0 -0.00016994)
(0.000111692 0 -0.000177009)
(0.000134935 0 -0.000177689)
(0.000160387 0 -0.000174407)
(0.000173398 0 -0.000184399)
(0.000193146 0 -0.000206505)
(0.00021923 0 -0.000220328)
(0.000254445 0 -0.000208288)
(0.000266713 0 -0.000217781)
(0.000285196 0 -0.000227805)
(0.000290178 0 -0.000249266)
(0.000324609 0 -0.000237945)
(0.000333943 0 -0.000247074)
(0.00035495 0 -0.000234412)
(0.000373176 0 -0.000220117)
(0.00038967 0 -0.000211229)
(0.00040828 0 -0.00019539)
(0.000422491 0 -0.00017869)
(0.000432334 0 -0.000167064)
(0.000436478 0 -0.00016281)
(0.000441199 0 -0.000145606)
(0.000443898 0 -0.000144989)
(0.000455964 0 -0.000103483)
(0.000452445 0 -7.32527e-05)
(0.00042994 0 -7.8629e-06)
(0.000435813 0 2.98611e-05)
(0.000475747 0 4.12742e-05)
(0.000499565 0 9.69276e-05)
(0.000498111 0 0.000131255)
(0.000496095 0 0.000130401)
(0.000491677 0 0.000110876)
(0.000448846 0 0.000199674)
(0.000438027 0 0.000238736)
(0.000394046 0 0.00030216)
(0.000345422 0 0.00034879)
(0.000319805 0 0.000362401)
(0.000353886 0 0.000318719)
(0.000371064 0 0.000311287)
(0.000336424 0 0.000346908)
(0.000319385 0 0.000336473)
(0.000289912 0 0.000320218)
(0.000241322 0 0.000353125)
(0.000245455 0 0.000336649)
(0.000252534 0 0.000294674)
(0.000243657 0 0.000253357)
(0.000164336 0 0.000274174)
(0.0001483 0 0.000281861)
(0.000161245 0 0.000268941)
(0.000164258 0 0.000252222)
(0.00011518 0 0.000245251)
(9.73169e-05 0 0.000246424)
(5.14941e-05 0 0.000283465)
(1.12761e-05 0 0.000340489)
(-8.89507e-05 0 0.000365023)
(-0.000110922 0 0.000259489)
(-7.27292e-07 0 9.67237e-05)
(-7.93589e-13 0 -3.15798e-14)
(-1.78254e-12 0 -2.54563e-13)
(-1.61102e-12 0 -4.04493e-13)
(-1.46431e-12 0 -5.23611e-13)
(-1.3211e-12 0 -6.20708e-13)
(-1.17441e-12 0 -6.96853e-13)
(-1.02353e-12 0 -7.51834e-13)
(-8.70367e-13 0 -7.85806e-13)
(-7.17886e-13 0 -7.99605e-13)
(-5.6939e-13 0 -7.94771e-13)
(-4.27874e-13 0 -7.735e-13)
(-2.9575e-13 0 -7.38409e-13)
(-1.74786e-13 0 -6.9228e-13)
(-6.61268e-14 0 -6.3782e-13)
(2.9573e-14 0 -5.7759e-13)
(1.12102e-13 0 -5.13929e-13)
(1.81657e-13 0 -4.48882e-13)
(2.38786e-13 0 -3.84166e-13)
(2.84301e-13 0 -3.2122e-13)
(3.19225e-13 0 -2.6122e-13)
(3.44692e-13 0 -2.05011e-13)
(3.6177e-13 0 -1.53046e-13)
(3.71315e-13 0 -1.05424e-13)
(3.7399e-13 0 -6.20464e-14)
(3.70417e-13 0 -2.27641e-14)
(3.61308e-13 0 1.25403e-14)
(3.47491e-13 0 4.39651e-14)
(3.29835e-13 0 7.16434e-14)
(3.09126e-13 0 9.57861e-14)
(2.85968e-13 0 1.16683e-13)
(2.60756e-13 0 1.34666e-13)
(2.33736e-13 0 1.50051e-13)
(2.05105e-13 0 1.63097e-13)
(1.75103e-13 0 1.73987e-13)
(1.44044e-13 0 1.82849e-13)
(1.12284e-13 0 1.89785e-13)
(8.01578e-14 0 1.9489e-13)
(4.78949e-14 0 1.98249e-13)
(1.58747e-14 0 1.99913e-13)
(-3.79395e-05 0 -3.00167e-05)
(-3.65721e-05 0 -2.96778e-07)
(-7.31973e-05 0 4.10598e-05)
(-8.8485e-05 0 7.12823e-05)
(-0.000112785 0 0.000105094)
(-0.000137922 0 0.00014405)
(-0.000186025 0 0.000182174)
(-0.000262618 0 0.000189344)
(-0.000323022 0 0.000171879)
(-0.000365411 0 0.000122725)
(-0.000378093 0 -2.01344e-05)
(-0.000338073 0 -0.000134572)
(-0.000238317 0 -0.000303221)
(-0.000213532 0 -0.000333706)
(-0.000174044 0 -0.000372273)
(-0.000118919 0 -0.00036119)
(-0.000150261 0 -0.000297405)
(-0.000138023 0 -0.000283589)
(-8.45344e-05 0 -0.000286648)
(-7.01269e-05 0 -0.000257065)
(-5.60613e-05 0 -0.000240859)
(-4.07492e-05 0 -0.000232616)
(-4.76618e-07 0 -0.00021209)
(4.78931e-06 0 -0.000210834)
(3.10429e-05 0 -0.000193758)
(5.67921e-05 0 -0.000178677)
(5.63511e-05 0 -0.000189486)
(8.00818e-05 0 -0.000195046)
(9.19882e-05 0 -0.000200676)
(0.000111261 0 -0.000211165)
(0.000134157 0 -0.00023516)
(0.000144838 0 -0.000242126)
(0.000166797 0 -0.000234132)
(0.000175201 0 -0.000240266)
(0.000199765 0 -0.000241128)
(0.000211733 0 -0.000258207)
(0.000228451 0 -0.000265497)
(0.000244607 0 -0.000258483)
(0.000266757 0 -0.000243208)
(0.000282887 0 -0.000229187)
(0.000305011 0 -0.000214117)
(0.000323344 0 -0.000206633)
(0.000335063 0 -0.000203697)
(0.000353894 0 -0.000184236)
(0.000368749 0 -0.000161472)
(0.000376091 0 -0.000154032)
(0.000379806 0 -0.000142044)
(0.000378118 0 -0.000117961)
(0.000375022 0 -3.24746e-05)
(0.000380349 0 -4.08485e-05)
(0.000413517 0 -9.78663e-05)
(0.000420038 0 7.17208e-05)
(0.00041145 0 0.000100787)
(0.000414022 0 0.000115616)
(0.000403689 0 0.000152136)
(0.000417702 0 0.0001123)
(0.00041843 0 0.000113521)
(0.000420828 0 0.000119708)
(0.000412427 0 0.000164496)
(0.000394397 0 0.000202168)
(0.000387769 0 0.000205591)
(0.000342938 0 0.000241291)
(0.000275135 0 0.000315551)
(0.000234628 0 0.000355761)
(0.000226542 0 0.000373991)
(0.00018814 0 0.00038497)
(0.000179841 0 0.000365347)