/*--------------------------------*- C++ -*----------------------------------*\
  =========                 |
  \\      /  F ield         | OpenFOAM: The Open Source CFD Toolbox
   \\    /   O peration     | Website:  https://openfoam.org
    \\  /    A nd           | Version:  6
     \\/     M anipulation  |
\*---------------------------------------------------------------------------*/
FoamFile
{
    version     2.0;
    format      ascii;
    class       volScalarField;
    location    "3600";
    object      Su;
}
// * * * * * * * * * * * * * * * * * * * * * * * * * * * * * * * * * * * * * //

dimensions      [0 0 -1 0 0 0 0];

internalField   nonuniform List<scalar> 
4800
(
0.219362
0.216953
0.214669
0.212538
0.210549
0.208665
0.206884
0.205178
0.203502
0.201889
0.200317
0.198779
0.197276
0.195825
0.194433
0.1931
0.191816
0.190587
0.189417
0.188314
0.187282
0.186314
0.185403
0.184539
0.183719
0.182939
0.182197
0.181491
0.180823
0.180191
0.179595
0.179033
0.178503
0.178004
0.177531
0.177083
0.176656
0.17625
0.175859
0.175481
0.175114
0.174754
0.174401
0.174053
0.17371
0.17337
0.173034
0.172701
0.172373
0.172049
0.171728
0.171412
0.171098
0.170786
0.170473
0.170159
0.169842
0.169519
0.169187
0.168842
0.168475
0.168077
0.167631
0.167111
0.166481
0.16569
0.164669
0.163326
0.161544
0.159174
0.156047
0.151996
0.146916
0.140773
0.133636
0.125703
0.117214
0.108406
0.0994962
0.0906619
0.0820296
0.0736778
0.0656354
0.0578897
0.0504083
0.0431698
0.0362354
0.0295705
0.0231666
0.0170144
0.0111032
0.00542129
-4.44674e-05
-0.00530768
-0.0103825
-0.0152835
-0.0200251
-0.0246214
-0.0290859
-0.0334315
-0.0376704
-0.041814
-0.0458727
-0.0498563
-0.0537735
-0.0576323
-0.0614402
-0.0652035
-0.0689282
-0.0726196
-0.0762822
-0.0799203
-0.0835377
-0.0871377
-0.0907232
-0.0942969
-0.0978614
-0.101419
-0.104971
-0.108521
0.219356
0.216937
0.214632
0.212455
0.210409
0.208477
0.206609
0.204841
0.203106
0.201424
0.199801
0.19823
0.196702
0.195228
0.193812
0.192468
0.191179
0.18995
0.188782
0.187682
0.186659
0.185705
0.184815
0.183975
0.18318
0.182427
0.18171
0.181027
0.180382
0.179772
0.179196
0.178651
0.178136
0.177649
0.177187
0.176749
0.176333
0.175936
0.175556
0.175187
0.174828
0.174477
0.174132
0.173791
0.173454
0.17312
0.172788
0.17246
0.172135
0.171814
0.171496
0.171183
0.170871
0.170562
0.170252
0.169941
0.169625
0.169305
0.168974
0.168631
0.168266
0.167868
0.167423
0.166906
0.166279
0.165494
0.164481
0.163152
0.161396
0.15907
0.156016
0.152094
0.147171
0.141128
0.13401
0.126023
0.117435
0.10854
0.0995769
0.0907072
0.0820426
0.0736561
0.0655805
0.0578106
0.0503196
0.0430777
0.0361397
0.0294724
0.0230677
0.0169164
0.0110077
0.0053295
-0.00013159
-0.00538948
-0.0104586
-0.0153538
-0.0200895
-0.02468
-0.0291391
-0.0334795
-0.0377137
-0.0418528
-0.0459074
-0.0498873
-0.0538011
-0.0576569
-0.0614619
-0.0652227
-0.0689451
-0.0726344
-0.0762951
-0.0799315
-0.0835473
-0.0871457
-0.0907298
-0.0943023
-0.0978655
-0.101422
-0.104973
-0.108522
0.219337
0.216881
0.21453
0.212266
0.21008
0.207997
0.205972
0.204055
0.202207
0.200421
0.198717
0.197084
0.195509
0.193998
0.192551
0.191183
0.189883
0.188657
0.187503
0.18642
0.185418
0.184496
0.183647
0.182853
0.182106
0.181405
0.180738
0.180099
0.179497
0.178927
0.178388
0.177878
0.177395
0.176937
0.176501
0.176086
0.17569
0.175312
0.17495
0.174599
0.174256
0.17392
0.173587
0.173258
0.172932
0.172607
0.172285
0.171963
0.171645
0.171331
0.17102
0.170712
0.170407
0.170103
0.169798
0.169491
0.16918
0.168864
0.168536
0.168195
0.167832
0.167433
0.16699
0.166474
0.165848
0.16507
0.164068
0.162759
0.161039
0.158774
0.155812
0.151999
0.147192
0.141303
0.134331
0.126364
0.117686
0.108704
0.0996832
0.0907595
0.0820383
0.0735925
0.0654603
0.0576513
0.0501442
0.042894
0.035948
0.0292756
0.0228694
0.0167201
0.0108166
0.00514601
-0.000305582
-0.0055527
-0.0106103
-0.0154937
-0.0202177
-0.0247968
-0.0292449
-0.0335751
-0.0377997
-0.0419299
-0.0459765
-0.0499489
-0.0538559
-0.0577056
-0.0615051
-0.0652609
-0.0689787
-0.0726638
-0.0763207
-0.0799537
-0.0835662
-0.0871617
-0.090743
-0.0943129
-0.0978736
-0.101427
-0.104977
-0.108523
0.219303
0.216759
0.214271
0.21184
0.209463
0.207162
0.204945
0.202837
0.200834
0.198917
0.197091
0.195362
0.193712
0.192147
0.190673
0.189289
0.18798
0.186761
0.185635
0.184589
0.183626
0.182754
0.18196
0.181228
0.180548
0.17992
0.179322
0.178745
0.178205
0.177693
0.177207
0.176745
0.176308
0.175891
0.175493
0.175113
0.174748
0.174398
0.174061
0.173734
0.173412
0.173095
0.172779
0.172466
0.172153
0.171842
0.17153
0.171219
0.17091
0.170604
0.170302
0.170003
0.169707
0.169411
0.169113
0.16881
0.168504
0.168192
0.167867
0.16753
0.167166
0.166769
0.166328
0.16581
0.165185
0.164411
0.163414
0.162123
0.16043
0.158208
0.155318
0.151589
0.146886
0.141119
0.134236
0.126349
0.117785
0.108861
0.0997967
0.0907976
0.0820052
0.0734903
0.0652924
0.057426
0.0498845
0.0426171
0.0356573
0.0289768
0.0225687
0.0164232
0.0105281
0.0048696
-0.000567217
-0.00579776
-0.0108378
-0.0157033
-0.0204095
-0.0249714
-0.0294031
-0.0337179
-0.0379281
-0.0420451
-0.0460795
-0.0500408
-0.0539378
-0.0577783
-0.0615695
-0.0653178
-0.0690288
-0.0727077
-0.076359
-0.0799867
-0.0835944
-0.0871855
-0.0907627
-0.0943286
-0.0978857
-0.101436
-0.104982
-0.108525
0.21924
0.216543
0.21387
0.211213
0.208587
0.206023
0.203558
0.201213
0.199006
0.196933
0.194969
0.193132
0.191403
0.189784
0.188282
0.186884
0.185568
0.184365
0.183286
0.182295
0.181389
0.180586
0.179856
0.179191
0.178588
0.178043
0.17753
0.177033
0.176571
0.176132
0.175713
0.175314
0.174933
0.174568
0.174218
0.17388
0.173553
0.173236
0.172928
0.172626
0.172328
0.172031
0.171733
0.171437
0.17114
0.170843
0.170545
0.170247
0.169949
0.169653
0.169359
0.16907
0.168783
0.168495
0.168204
0.167907
0.167604
0.167295
0.166971
0.166637
0.166268
0.165873
0.165432
0.164907
0.164278
0.163503
0.1625
0.161219
0.159548
0.157362
0.154527
0.150887
0.146312
0.140719
0.13408
0.126491
0.118121
0.109167
0.0999509
0.0908126
0.081927
0.0733368
0.0650667
0.0571362
0.0495012
0.0422419
0.0352615
0.0285707
0.0221614
0.0160223
0.0101398
0.00449864
-0.000917481
-0.00612515
-0.0111412
-0.0159823
-0.0206646
-0.0252034
-0.0296131
-0.0339072
-0.0380982
-0.0421976
-0.0462158
-0.0501625
-0.0540461
-0.0578745
-0.0616547
-0.065393
-0.069095
-0.0727657
-0.0764095
-0.0800303
-0.0836318
-0.087217
-0.0907887
-0.0943495
-0.0979016
-0.101447
-0.104988
-0.108527
0.219134
0.216204
0.213269
0.210322
0.207402
0.204554
0.201833
0.199244
0.196822
0.194564
0.192459
0.190513
0.188701
0.187028
0.185497
0.184088
0.18278
0.181598
0.180569
0.179641
0.1788
0.17808
0.17743
0.176842
0.176328
0.175874
0.175453
0.175049
0.174674
0.174318
0.173975
0.173645
0.173328
0.173022
0.172725
0.172434
0.172149
0.171869
0.171593
0.171318
0.171042
0.170765
0.170484
0.170204
0.169922
0.169639
0.169354
0.169068
0.168784
0.1685
0.168215
0.167935
0.167655
0.167373
0.167088
0.166794
0.166492
0.166184
0.165861
0.165524
0.165149
0.164753
0.164305
0.163768
0.163129
0.162341
0.161324
0.160042
0.158385
0.156235
0.153467
0.149937
0.145502
0.140072
0.13362
0.12617
0.117849
0.108935
0.0997859
0.0906782
0.0817487
0.0730851
0.0647435
0.0567489
0.0490745
0.0417561
0.0347508
0.0280496
0.0216416
0.0155132
0.00964876
0.00403122
-0.00135745
-0.0065353
-0.0115204
-0.0163305
-0.0209823
-0.0254919
-0.0298739
-0.0341422
-0.0383093
-0.0423867
-0.0463848
-0.0503131
-0.0541801
-0.0579935
-0.0617601
-0.0654861
-0.0691769
-0.0728374
-0.0764719
-0.0800843
-0.0836779
-0.0872558
-0.0908208
-0.0943752
-0.0979213
-0.101461
-0.104997
-0.108529
0.218994
0.215758
0.212485
0.209198
0.205949
0.202799
0.199811
0.196976
0.194341
0.191897
0.189655
0.187596
0.185701
0.183975
0.182416
0.180997
0.179708
0.178562
0.177586
0.176727
0.175964
0.175329
0.174766
0.174268
0.173852
0.173494
0.17317
0.172865
0.172582
0.172314
0.172052
0.171797
0.171546
0.1713
0.171058
0.170817
0.170575
0.170332
0.170086
0.169837
0.169583
0.169324
0.169059
0.168793
0.168524
0.168252
0.167979
0.167706
0.167433
0.16716
0.166885
0.166614
0.166337
0.166059
0.165777
0.165485
0.165181
0.164869
0.164544
0.1642
0.163819
0.163416
0.162954
0.162401
0.161749
0.160942
0.15991
0.158614
0.156955
0.154824
0.152105
0.148671
0.144376
0.139124
0.13285
0.125548
0.117383
0.10862
0.0995564
0.0904347
0.0814347
0.0726962
0.0642844
0.0562239
0.048497
0.0411397
0.0341121
0.0274041
0.0210023
0.0148909
0.00905168
0.00346535
-0.00188812
-0.00702844
-0.0119752
-0.0167471
-0.0213618
-0.0258359
-0.0301846
-0.0344218
-0.0385602
-0.0426112
-0.0465853
-0.0504918
-0.0543391
-0.0581346
-0.061885
-0.0655963
-0.0692738
-0.0729223
-0.0765458
-0.0801481
-0.0837325
-0.0873018
-0.0908588
-0.0944057
-0.0979447
-0.101478
-0.105006
-0.108533
0.218833
0.215223
0.211521
0.207831
0.204229
0.200773
0.19753
0.194482
0.191644
0.189016
0.186629
0.184458
0.182483
0.180707
0.179125
0.177708
0.176446
0.175347
0.174425
0.173638
0.172967
0.172418
0.17195
0.171552
0.171234
0.170974
0.17075
0.170547
0.170355
0.170174
0.169995
0.169815
0.169633
0.169446
0.169257
0.169063
0.168863
0.168654
0.168436
0.16821
0.167974
0.167729
0.167476
0.167221
0.166961
0.1667
0.166436
0.166174
0.165911
0.165647
0.16538
0.165116
0.164838
0.164563
0.164278
0.163983
0.163674
0.163355
0.163024
0.162666
0.162277
0.161861
0.161381
0.16081
0.160135
0.159309
0.158264
0.156957
0.155301
0.153196
0.150516
0.147147
0.142963
0.137869
0.131794
0.124721
0.11676
0.108128
0.0991177
0.0899955
0.0809493
0.0721392
0.0636632
0.0555433
0.0477681
0.0403763
0.033332
0.0266238
0.0202362
0.0141503
0.0083453
0.00279922
-0.00251016
-0.00760443
-0.0125047
-0.0172309
-0.0218016
-0.026234
-0.0305435
-0.0347444
-0.0388493
-0.0428698
-0.0468161
-0.0506974
-0.0545218
-0.0582967
-0.0620285
-0.0657229
-0.0693852
-0.0730197
-0.0766306
-0.0802213
-0.0837951
-0.0873546
-0.0909024
-0.0944406
-0.0979714
-0.101496
-0.105018
-0.108536
0.218586
0.214506
0.210355
0.206241
0.202272
0.198523
0.195024
0.191772
0.188747
0.185967
0.18345
0.181177
0.179126
0.177305
0.175706
0.174301
0.173079
0.172038
0.171176
0.170466
0.169889
0.169431
0.16906
0.168767
0.168546
0.16838
0.168254
0.168151
0.16805
0.167953
0.167852
0.167744
0.167625
0.167495
0.167354
0.167203
0.167039
0.166859
0.166664
0.166456
0.166232
0.165996
0.165752
0.165501
0.165248
0.164992
0.164735
0.164482
0.164226
0.163968
0.163705
0.163443
0.163162
0.162885
0.162594
0.162287
0.161969
0.161639
0.161295
0.160922
0.160516
0.160079
0.159576
0.158984
0.158283
0.157435
0.156369
0.155043
0.153379
0.151297
0.148686
0.145437
0.141404
0.136491
0.13065
0.12384
0.116134
0.107691
0.0987099
0.089491
0.0803528
0.0714614
0.0628977
0.0547
0.0468719
0.0394498
0.0323968
0.0256984
0.0193358
0.0132865
0.00752671
0.00203151
-0.0032237
-0.00826256
-0.0131078
-0.0177804
-0.0223
-0.0266841
-0.0309487
-0.0351081
-0.039175
-0.0431609
-0.0470757
-0.0509284
-0.0547271
-0.0584787
-0.0621894
-0.0658649
-0.06951
-0.073129
-0.0767257
-0.0803034
-0.0838652
-0.0874137
-0.0909512
-0.0944798
-0.0980013
-0.101518
-0.10503
-0.108541
0.218298
0.213662
0.209013
0.204478
0.200158
0.196107
0.192354
0.188908
0.185721
0.182803
0.180171
0.177813
0.175702
0.173847
0.172241
0.170859
0.169687
0.168715
0.167921
0.167296
0.166812
0.166448
0.166173
0.165979
0.165851
0.165774
0.16574
0.16573
0.165715
0.165696
0.165666
0.165621
0.165558
0.165477
0.165379
0.165263
0.165127
0.164968
0.164789
0.164591
0.164373
0.16414
0.163897
0.163646
0.163392
0.163138
0.162884
0.162635
0.162383
0.162127
0.161865
0.161598
0.161312
0.161026
0.16072
0.160397
0.160061
0.159712
0.159348
0.158955
0.158526
0.158063
0.157532
0.156913
0.156183
0.155311
0.154226
0.152887
0.151214
0.14913
0.146541
0.143351
0.139449
0.134726
0.129107
0.12253
0.11502
0.106713
0.0978417
0.0886972
0.0795583
0.0705958
0.061947
0.0536679
0.045785
0.0383415
0.0312923
0.0246176
0.018294
0.0122952
0.00659371
0.00116164
-0.00402815
-0.00900139
-0.0137823
-0.0183933
-0.0228544
-0.0271839
-0.0313978
-0.0355107
-0.0395351
-0.0434823
-0.0473621
-0.0511832
-0.0549533
-0.0586792
-0.0623668
-0.0660213
-0.0696474
-0.0732492
-0.0768303
-0.0803937
-0.0839424
-0.0874787
-0.0910048
-0.0945228
-0.0980342
-0.101541
-0.105044
-0.108545
0.21798
0.212746
0.207578
0.202596
0.197913
0.193582
0.189591
0.185945
0.182599
0.179555
0.176831
0.174411
0.172266
0.170394
0.168796
0.167452
0.166338
0.165441
0.16473
0.164193
0.163803
0.16353
0.163347
0.163245
0.163203
0.16321
0.163258
0.163329
0.163389
0.163438
0.163467
0.163476
0.16346
0.163419
0.163354
0.163263
0.163146
0.163
0.162828
0.162631
0.162411
0.162173
0.161923
0.161665
0.161405
0.161145
0.160888
0.160639
0.160387
0.160129
0.159861
0.159582
0.159284
0.158981
0.158653
0.158309
0.157944
0.157568
0.157172
0.15675
0.15629
0.155793
0.155229
0.154575
0.153812
0.152911
0.1518
0.15044
0.148766
0.146701
0.144165
0.141051
0.137261
0.13269
0.127261
0.120905
0.113634
0.105533
0.0968306
0.0877791
0.078607
0.0695173
0.0607391
0.0523866
0.0444755
0.0370307
0.030004
0.0233713
0.0171045
0.0111729
0.0055451
0.00019007
-0.00492189
-0.00981855
-0.0145256
-0.0190664
-0.0234618
-0.0277302
-0.031888
-0.0359494
-0.0399271
-0.0438318
-0.0476733
-0.0514599
-0.0551989
-0.0588967
-0.062559
-0.0661908
-0.0697963
-0.0733794
-0.0769435
-0.0804915
-0.0840259
-0.087549
-0.0910629
-0.0945693
-0.0980698
-0.101566
-0.105059
-0.10855
0.21764
0.21176
0.206031
0.200597
0.195556
0.190947
0.186737
0.182913
0.179433
0.176281
0.173477
0.171014
0.168861
0.167001
0.165433
0.164137
0.163091
0.162272
0.161651
0.161205
0.160907
0.160724
0.160628
0.160613
0.160647
0.160728
0.160846
0.160982
0.161102
0.161204
0.16128
0.161331
0.16135
0.161339
0.161297
0.161222
0.161113
0.16097
0.160794
0.160589
0.160358
0.160108
0.159842
0.159569
0.159294
0.159022
0.158756
0.158498
0.158239
0.157973
0.157689
0.157394
0.157075
0.156742
0.156386
0.156011
0.155611
0.155197
0.15476
0.154297
0.153799
0.153262
0.152657
0.15196
0.15115
0.150215
0.149069
0.147683
0.146
0.143941
0.141433
0.13838
0.134697
0.130289
0.12506
0.118925
0.111891
0.103999
0.0953845
0.0862899
0.0770688
0.067982
0.0591938
0.0508264
0.0429201
0.0354994
0.028519
0.0219511
0.0157624
0.00991764
0.00438115
-0.000881398
-0.00590209
-0.0107106
-0.0153339
-0.0197961
-0.0241184
-0.0283195
-0.0324157
-0.0364211
-0.0403479
-0.0442068
-0.0480069
-0.0517562
-0.0554617
-0.0591294
-0.0627646
-0.066372
-0.0699554
-0.0735186
-0.0770645
-0.0805958
-0.084115
-0.0876241
-0.0911248
-0.0946189
-0.0981078
-0.101593
-0.105075
-0.108555
0.217291
0.210743
0.204421
0.198509
0.1931
0.188213
0.183799
0.179813
0.176222
0.172996
0.170139
0.16765
0.165507
0.163691
0.162181
0.160954
0.159987
0.159253
0.158722
0.158367
0.158159
0.158064
0.15805
0.158108
0.158211
0.158355
0.158527
0.158708
0.158872
0.159011
0.159121
0.159202
0.159243
0.159251
0.15922
0.15915
0.15904
0.158889
0.1587
0.158478
0.158229
0.157957
0.157668
0.15737
0.157072
0.156779
0.156495
0.156216
0.155942
0.15566
0.155352
0.155034
0.154681
0.154306
0.153911
0.153492
0.153046
0.152581
0.152093
0.151576
0.151026
0.150437
0.149782
0.149047
0.148193
0.147215
0.14603
0.14461
0.142898
0.140822
0.138341
0.135348
0.131774
0.127533
0.122492
0.116539
0.10968
0.10198
0.0935393
0.0845628
0.0753509
0.0662079
0.0573681
0.0489835
0.0411047
0.033733
0.0268262
0.0203501
0.0142649
0.00852947
0.00310396
-0.00204926
-0.00696444
-0.0116728
-0.0162023
-0.0205774
-0.0248196
-0.0289475
-0.0329771
-0.0369221
-0.0407945
-0.0446043
-0.0483602
-0.0520699
-0.0557398
-0.0593755
-0.0629819
-0.0665634
-0.0701235
-0.0736654
-0.0771921
-0.0807059
-0.084209
-0.0877032
-0.0911901
-0.0946712
-0.0981478
-0.101621
-0.105092
-0.108561
0.21693
0.209697
0.20277
0.196361
0.190566
0.185394
0.180782
0.176652
0.172975
0.169709
0.16684
0.164358
0.162242
0.160472
0.159037
0.157914
0.157047
0.156407
0.155968
0.155706
0.155584
0.155569
0.155629
0.155749
0.155909
0.156101
0.156311
0.156519
0.15671
0.156871
0.157001
0.157098
0.157149
0.157163
0.157133
0.157057
0.156935
0.156767
0.156556
0.156309
0.156033
0.155734
0.155416
0.155085
0.154752
0.154427
0.154112
0.153804
0.153501
0.153191
0.152851
0.152495
0.152099
0.151674
0.151226
0.150752
0.150252
0.149726
0.149173
0.148589
0.147972
0.147318
0.1466
0.145809
0.144898
0.143857
0.142638
0.141205
0.13948
0.137379
0.134903
0.13195
0.128435
0.124291
0.119394
0.113629
0.106979
0.0994888
0.0912439
0.0824251
0.0733082
0.0641973
0.055324
0.0468802
0.039015
0.0317158
0.0249149
0.0185633
0.0126113
0.00701097
0.00171802
-0.00330794
-0.00810292
-0.0126992
-0.0171249
-0.0214049
-0.0255603
-0.0296094
-0.0335677
-0.0374485
-0.041263
-0.0450209
-0.0487303
-0.0523982
-0.0560307
-0.0596328
-0.0632091
-0.0667633
-0.0702989
-0.0738188
-0.0773254
-0.0808208
-0.0843071
-0.0877858
-0.0912583
-0.0947258
-0.0981895
-0.10165
-0.105109
-0.108567
0.216543
0.208578
0.201017
0.194096
0.187928
0.182492
0.177703
0.17345
0.169702
0.166425
0.163579
0.161145
0.159108
0.157418
0.156058
0.15503
0.154273
0.15374
0.153399
0.15323
0.15319
0.153245
0.153368
0.15354
0.153745
0.153969
0.1542
0.15442
0.15462
0.154791
0.154927
0.155025
0.155074
0.155081
0.15504
0.154947
0.154803
0.154609
0.154368
0.15409
0.153782
0.153451
0.153099
0.152728
0.152352
0.151982
0.151622
0.151271
0.150923
0.150566
0.15018
0.149768
0.149315
0.148828
0.148315
0.147774
0.147205
0.146605
0.145974
0.145308
0.14461
0.143877
0.143085
0.142223
0.141247
0.140123
0.13884
0.137371
0.135639
0.133551
0.131069
0.128122
0.12466
0.120612
0.115853
0.110254
0.103789
0.0964781
0.0883991
0.0797279
0.0707059
0.0616358
0.0527974
0.044388
0.0366007
0.0294239
0.0227748
0.0165887
0.0108047
0.00536818
0.000230872
-0.00464938
-0.0093095
-0.0137819
-0.0180946
-0.0222719
-0.0263344
-0.0302997
-0.0341826
-0.0379958
-0.0417497
-0.0454532
-0.049114
-0.0527384
-0.0563319
-0.0598991
-0.063444
-0.0669701
-0.0704803
-0.0739772
-0.077463
-0.0809395
-0.0844084
-0.087871
-0.0913285
-0.0947821
-0.0982325
-0.101681
-0.105127
-0.108573
0.216121
0.207364
0.199137
0.191691
0.185139
0.179451
0.17452
0.170189
0.166408
0.163148
0.160358
0.158001
0.156056
0.154483
0.153244
0.152321
0.151672
0.15125
0.151012
0.150935
0.150969
0.151085
0.151261
0.151476
0.151713
0.151958
0.152192
0.15241
0.152605
0.152774
0.152901
0.152987
0.153021
0.153009
0.152946
0.152828
0.152655
0.152427
0.15215
0.151833
0.151485
0.151114
0.150721
0.150309
0.149886
0.149465
0.149049
0.14864
0.148229
0.147806
0.147354
0.146871
0.146345
0.145786
0.145195
0.144573
0.143921
0.143232
0.142507
0.141747
0.140953
0.140122
0.139238
0.138284
0.137225
0.136022
0.134653
0.133101
0.13131
0.129224
0.126767
0.123854
0.120435
0.116455
0.111797
0.106314
0.0999905
0.0928558
0.0849716
0.0764688
0.0675666
0.058568
0.0497943
0.0414424
0.0338274
0.0268372
0.0203996
0.0144294
0.00885363
0.00361184
-0.00134616
-0.00606263
-0.010574
-0.0149117
-0.0191029
-0.0231708
-0.0271351
-0.0310123
-0.0348165
-0.0385592
-0.0422501
-0.0458974
-0.0495079
-0.0530874
-0.0566407
-0.060172
-0.0636847
-0.0671818
-0.070666
-0.0741393
-0.0776038
-0.0810608
-0.0845119
-0.087958
-0.0914003
-0.0948396
-0.0982765
-0.101712
-0.105146
-0.108579
0.215675
0.206073
0.197134
0.189137
0.182194
0.176266
0.171225
0.16687
0.163104
0.159888
0.157185
0.154944
0.153123
0.151681
0.150583
0.149785
0.14925
0.148938
0.148801
0.148808
0.14891
0.149081
0.1493
0.149544
0.149796
0.150047
0.15028
0.150492
0.150673
0.150825
0.150926
0.150986
0.150992
0.150951
0.150857
0.150704
0.150497
0.150232
0.149916
0.149557
0.149162
0.148743
0.148301
0.147837
0.147359
0.14688
0.146398
0.145915
0.145424
0.144918
0.144379
0.143809
0.143195
0.142546
0.141863
0.141145
0.140395
0.139601
0.138768
0.137899
0.136992
0.136046
0.135055
0.133992
0.132827
0.131542
0.13008
0.128438
0.126568
0.124443
0.121986
0.119109
0.115736
0.111804
0.10722
0.10186
0.0957031
0.0887442
0.0810429
0.0727129
0.0639552
0.0550665
0.0463449
0.0380861
0.0306578
0.0239387
0.0177903
0.012097
0.00677396
0.00175867
-0.0029973
-0.00753351
-0.0118839
-0.0160778
-0.0201404
-0.0240935
-0.0279552
-0.031741
-0.0354636
-0.0391336
-0.0427598
-0.0463494
-0.0499085
-0.053442
-0.0569543
-0.0604489
-0.0639288
-0.0673965
-0.0708542
-0.0743036
-0.0777463
-0.0811836
-0.0846166
-0.0880462
-0.091473
-0.0948977
-0.0983209
-0.101743
-0.105164
-0.108585
0.215197
0.204694
0.194999
0.186439
0.179147
0.173032
0.167895
0.163536
0.159829
0.156699
0.1541
0.151991
0.150319
0.149027
0.148077
0.147414
0.147003
0.1468
0.146756
0.146836
0.147002
0.14722
0.147471
0.147733
0.147989
0.148235
0.148462
0.148656
0.148813
0.14893
0.148999
0.149023
0.148993
0.148915
0.148781
0.148589
0.148343
0.148036
0.147677
0.147271
0.146827
0.146353
0.145854
0.14533
0.144786
0.144237
0.143676
0.143101
0.142514
0.141908
0.141263
0.140589
0.139869
0.139115
0.138323
0.137494
0.136629
0.135713
0.134756
0.133761
0.132722
0.131646
0.130533
0.129349
0.128061
0.126681
0.125115
0.123385
0.121416
0.119226
0.116757
0.113914
0.110607
0.106745
0.102248
0.0970084
0.090997
0.0841998
0.0766731
0.068513
0.0598982
0.0510861
0.0423761
0.0341535
0.0270272
0.0207135
0.0149611
0.00961657
0.00459213
-0.000167365
-0.00470198
-0.00904476
-0.0132248
-0.0172679
-0.0211967
-0.0250308
-0.0287869
-0.0324788
-0.036118
-0.0397138
-0.0432741
-0.046805
-0.0503119
-0.053799
-0.0572699
-0.0607274
-0.0641741
-0.0676121
-0.0710431
-0.0744684
-0.0778893
-0.0813068
-0.0847216
-0.0881345
-0.0915458
-0.094956
-0.0983654
-0.101774
-0.105183
-0.108591
0.214697
0.203236
0.192753
0.183626
0.175951
0.169645
0.164457
0.160141
0.156527
0.153534
0.151086
0.149135
0.14763
0.146509
0.145723
0.145197
0.144912
0.144813
0.144852
0.144995
0.145215
0.145469
0.145741
0.146012
0.146269
0.146506
0.146716
0.146878
0.147006
0.147086
0.147121
0.147106
0.147036
0.146916
0.14674
0.146505
0.146213
0.145862
0.145454
0.144998
0.144499
0.143964
0.143399
0.142805
0.142183
0.141548
0.140893
0.14021
0.139509
0.138784
0.138017
0.13722
0.136377
0.1355
0.134584
0.133628
0.132633
0.131578
0.130478
0.129341
0.128156
0.126937
0.125687
0.124365
0.122944
0.121438
0.119755
0.11794
0.115885
0.113621
0.111114
0.108271
0.105016
0.101228
0.0968125
0.0917034
0.0858576
0.0792541
0.0719395
0.0639759
0.0554872
0.0466678
0.0377909
0.0293946
0.0228329
0.0171693
0.0119563
0.0070351
0.00234789
-0.00213466
-0.00643538
-0.0105766
-0.0145806
-0.0184688
-0.0222606
-0.0259735
-0.0296221
-0.0332187
-0.0367734
-0.0402943
-0.0437881
-0.0472601
-0.0507145
-0.0541549
-0.0575842
-0.0610047
-0.0644183
-0.0678266
-0.0712309
-0.0746322
-0.0780314
-0.0814291
-0.0848259
-0.0882221
-0.091618
-0.0950138
-0.0984096
-0.101805
-0.105201
-0.108597
0.214245
0.201883
0.19055
0.180743
0.172641
0.166164
0.160969
0.156743
0.153267
0.150437
0.148163
0.146386
0.145058
0.144114
0.143495
0.143106
0.142944
0.142946
0.143071
0.143278
0.14354
0.14382
0.14411
0.144384
0.144635
0.144857
0.145041
0.145171
0.145264
0.145303
0.1453
0.145244
0.145134
0.144971
0.144752
0.144472
0.144133
0.143733
0.143274
0.142761
0.142201
0.141597
0.140956
0.140278
0.139564
0.138827
0.138061
0.137254
0.136421
0.135557
0.134651
0.133711
0.132728
0.131713
0.130657
0.12956
0.128419
0.127213
0.125955
0.12466
0.12332
0.121953
0.120561
0.119093
0.117533
0.115889
0.114079
0.112152
0.110026
0.107705
0.105174
0.10232
0.0990877
0.0953647
0.0910499
0.0861007
0.0804523
0.0740932
0.0670198
0.0592824
0.0509116
0.0419715
0.0325237
0.0230749
0.0179885
0.0134108
0.00888461
0.0044313
9.4838e-05
-0.00410586
-0.00817029
-0.0121083
-0.015935
-0.0196671
-0.0233211
-0.0269119
-0.0304525
-0.0339535
-0.0374236
-0.0408696
-0.0442969
-0.04771
-0.0511123
-0.0545063
-0.0578943
-0.061278
-0.0646588
-0.0680378
-0.0714157
-0.0747933
-0.0781711
-0.0815493
-0.0849283
-0.0883081
-0.0916889
-0.0950705
-0.0984529
-0.101836
-0.10522
-0.108603
0.213786
0.200577
0.188551
0.178226
0.169707
0.162929
0.157624
0.153451
0.150099
0.147427
0.145337
0.143745
0.1426
0.141835
0.141373
0.141123
0.141079
0.141179
0.141379
0.141641
0.141939
0.142245
0.142553
0.142829
0.143076
0.143281
0.143439
0.143537
0.143593
0.143595
0.14355
0.143454
0.143303
0.143097
0.142834
0.142507
0.142121
0.14167
0.141155
0.140579
0.139947
0.139265
0.138536
0.137761
0.13694
0.136082
0.135187
0.134239
0.133257
0.132238
0.131174
0.130076
0.128938
0.127771
0.126564
0.125313
0.124016
0.122652
0.121231
0.11977
0.118268
0.116752
0.115214
0.113603
0.111908
0.110129
0.108208
0.106171
0.103972
0.101602
0.0990254
0.0962045
0.0930387
0.0893822
0.0851971
0.0804316
0.0749841
0.0689138
0.0621208
0.0546666
0.0464964
0.037487
0.0270127
0.009161
0.0128938
0.00983369
0.00595663
0.00191231
-0.00210772
-0.00604397
-0.00988091
-0.0136204
-0.0172724
-0.02085
-0.0243671
-0.0278368
-0.03127
-0.0346761
-0.0380621
-0.0414339
-0.0447956
-0.0481505
-0.0515012
-0.0548496
-0.0581971
-0.0615447
-0.0648933
-0.0682435
-0.0715957
-0.0749501
-0.0783069
-0.0816662
-0.0850278
-0.0883917
-0.0917577
-0.0951255
-0.0984949
-0.101866
-0.105237
-0.108609
0.213289
0.199246
0.186596
0.175762
0.166865
0.159818
0.15436
0.150192
0.146959
0.144459
0.142555
0.141158
0.140204
0.13962
0.139309
0.139214
0.139284
0.139482
0.139756
0.140074
0.140414
0.140752
0.141079
0.141365
0.141609
0.141798
0.141931
0.141995
0.142011
0.141972
0.141883
0.141743
0.141551
0.141301
0.140991
0.140618
0.140181
0.139675
0.1391
0.138452
0.137741
0.136968
0.136139
0.135253
0.134309
0.133315
0.132272
0.131168
0.13002
0.128833
0.127599
0.126332
0.125029
0.123699
0.122335
0.120929
0.119469
0.117944
0.116362
0.114745
0.113093
0.111435
0.10976
0.108029
0.106229
0.104343
0.102336
0.100217
0.0979586
0.095579
0.0929294
0.0901063
0.0870471
0.0834823
0.0794509
0.0749127
0.0696843
0.0639146
0.0574573
0.0504036
0.0426686
0.0342825
0.025227
0.016141
0.0113338
0.00730664
0.00340659
-0.000438758
-0.00421864
-0.00792251
-0.0115474
-0.0150968
-0.0185792
-0.0220057
-0.0253886
-0.028739
-0.0320666
-0.0353792
-0.0386827
-0.0419816
-0.0452789
-0.048577
-0.0518775
-0.0551813
-0.0584893
-0.0618019
-0.0651193
-0.0684416
-0.0717689
-0.0751009
-0.0784375
-0.0817784
-0.0851234
-0.0884719
-0.0918237
-0.0951783
-0.0985352
-0.101894
-0.105254
-0.108615
0.212967
0.198292
0.185031
0.173644
0.164317
0.15697
0.151335
0.1471
0.143916
0.141545
0.139809
0.138602
0.137834
0.137419
0.137262
0.137334
0.137526
0.137834
0.138185
0.138568
0.138968
0.139351
0.139707
0.140013
0.140265
0.14044
0.140541
0.140566
0.140532
0.14044
0.140299
0.140109
0.139869
0.139569
0.139207
0.138783
0.13829
0.137727
0.137088
0.136364
0.135565
0.134693
0.133753
0.132744
0.131664
0.13052
0.129317
0.128049
0.126724
0.125364
0.123952
0.122513
0.121044
0.119548
0.118024
0.116468
0.114857
0.113173
0.111441
0.109682
0.107906
0.106132
0.104353
0.102545
0.100687
0.0987467
0.0967088
0.0945475
0.0922317
0.0898472
0.087176
0.0843294
0.0813286
0.0778725
0.0739928
0.0697369
0.0648231
0.0593717
0.0533072
0.0466895
0.0394227
0.0316507
0.0235139
0.0156112
0.00924278
0.00486053
0.00100233
-0.00267137
-0.00624077
-0.00973242
-0.0131581
-0.0165258
-0.0198444
-0.0231242
-0.0263762
-0.0296102
-0.0328346
-0.0360561
-0.0392791
-0.0425071
-0.045742
-0.048985
-0.0522369
-0.0554979
-0.0587679
-0.0620468
-0.0653343
-0.06863
-0.0719334
-0.075244
-0.0785614
-0.0818849
-0.0852139
-0.0885479
-0.0918863
-0.0952283
-0.0985734
-0.101921
-0.10527
-0.10862
0.21294
0.197976
0.18415
0.172163
0.162337
0.154602
0.148683
0.144267
0.141024
0.138704
0.137085
0.136043
0.135451
0.135204
0.135203
0.13544
0.135778
0.136207
0.136665
0.137144
0.137629
0.138078
0.138477
0.138815
0.139082
0.139241
0.139296
0.139263
0.139155
0.13899
0.138778
0.138522
0.138218
0.137854
0.137429
0.13694
0.136385
0.135762
0.135061
0.134262
0.133374
0.132402
0.131352
0.130219
0.129003
0.127707
0.126343
0.124912
0.123416
0.121889
0.12031
0.118707
0.117076
0.115416
0.113735
0.112029
0.110285
0.108473
0.106617
0.10475
0.102888
0.10103
0.0991839
0.0973418
0.0954617
0.09355
0.0915541
0.089419
0.0870723
0.0846939
0.0820436
0.0791143
0.0761018
0.0728573
0.0691986
0.0652171
0.0607167
0.055609
0.0499812
0.0438962
0.036771
0.0291515
0.0218218
0.0148392
0.00307255
0.00206798
-0.00141358
-0.00483681
-0.00818649
-0.011472
-0.0147062
-0.0178988
-0.021059
-0.0241966
-0.0273213
-0.0304422
-0.0335666
-0.0366997
-0.0398451
-0.0430048
-0.0461797
-0.0493701
-0.0525756
-0.0557958
-0.0590298
-0.0622768
-0.065536
-0.0688065
-0.0720875
-0.075378
-0.0786772
-0.0819844
-0.0852985
-0.0886189
-0.0919446
-0.0952749
-0.098609
-0.101946
-0.105285
-0.108625
0.21282
0.197593
0.18346
0.171096
0.160822
0.152637
0.146343
0.141654
0.138262
0.135915
0.134352
0.133443
0.13302
0.132938
0.133111
0.133508
0.134005
0.134596
0.135213
0.13583
0.136431
0.136966
0.137431
0.137811
0.138086
0.138224
0.138214
0.138081
0.137859
0.137585
0.137275
0.136929
0.136532
0.136076
0.135559
0.134983
0.134353
0.133669
0.132916
0.13206
0.131093
0.130036
0.128897
0.127663
0.126334
0.124908
0.123406
0.121837
0.120204
0.118539
0.11683
0.115091
0.113314
0.111495
0.109654
0.107783
0.105911
0.104026
0.102105
0.100197
0.0983152
0.0963989
0.0944926
0.092626
0.0907624
0.0888795
0.0869317
0.0848178
0.0824001
0.0799695
0.0773231
0.0741143
0.0710388
0.0676747
0.0648771
0.0600593
0.0575179
0.0511615
0.0474728
0.0390897
0.0347565
0.0239326
0.0225488
0.0209397
0.00334093
-0.000402685
-0.00373557
-0.00692402
-0.0100549
-0.0131381
-0.016186
-0.0192087
-0.0222152
-0.0252146
-0.028216
-0.0312274
-0.0342551
-0.0373033
-0.0403744
-0.043469
-0.0465871
-0.0497277
-0.0528897
-0.0560716
-0.0592718
-0.0624891
-0.065722
-0.0689692
-0.0722293
-0.0755012
-0.0787837
-0.0820757
-0.0853762
-0.088684
-0.0919981
-0.0953176
-0.0986415
-0.101969
-0.105298
-0.10863
0.21271
0.197286
0.183032
0.170523
0.159888
0.1512
0.144411
0.13932
0.135667
0.133193
0.131616
0.130794
0.130516
0.130604
0.130954
0.131516
0.132205
0.133015
0.133849
0.134657
0.135401
0.136047
0.136584
0.136998
0.137268
0.137372
0.137257
0.136969
0.136579
0.136158
0.135724
0.13526
0.134733
0.13413
0.133462
0.132753
0.132029
0.131284
0.130504
0.129632
0.128606
0.1275
0.126322
0.125045
0.123668
0.122181
0.120618
0.118983
0.117289
0.115562
0.113792
0.111969
0.110066
0.108084
0.106073
0.10402
0.102035
0.100139
0.0982125
0.0963272
0.0944518
0.0923531
0.0902381
0.0881455
0.0861479
0.0840399
0.0818288
0.079388
0.0765402
0.0734023
0.0705188
0.0660979
0.0618134
0.0577388
0.0545797
0.0495749
0.0456201
0.0367266
0.0321654
0.0216039