/*--------------------------------*- C++ -*----------------------------------*\
  =========                 |
  \\      /  F ield         | OpenFOAM: The Open Source CFD Toolbox
   \\    /   O peration     | Website:  https://openfoam.org
    \\  /    A nd           | Version:  6
     \\/     M anipulation  |
\*---------------------------------------------------------------------------*/
FoamFile
{
    version     2.0;
    format      ascii;
    class       volScalarField;
    location    "3600";
    object      T;
}
// * * * * * * * * * * * * * * * * * * * * * * * * * * * * * * * * * * * * * //

dimensions      [0 0 0 1 0 0 0];

internalField   nonuniform List<scalar> 
4800
(
552.505
552.418
552.335
552.258
552.186
552.117
552.053
551.991
551.93
551.872
551.815
551.759
551.704
551.652
551.601
551.553
551.506
551.462
551.419
551.379
551.342
551.307
551.274
551.242
551.213
551.184
551.157
551.132
551.108
551.085
551.063
551.043
551.023
551.005
550.988
550.972
550.956
550.942
550.928
550.914
550.901
550.888
550.875
550.862
550.85
550.837
550.825
550.813
550.801
550.789
550.778
550.766
550.755
550.744
550.732
550.721
550.709
550.698
550.686
550.673
550.66
550.645
550.629
550.61
550.587
550.559
550.522
550.473
550.409
550.323
550.209
550.062
549.878
549.656
549.397
549.109
548.802
548.482
548.159
547.839
547.526
547.223
546.931
546.65
546.379
546.117
545.865
545.623
545.391
545.167
544.953
544.747
544.549
544.358
544.174
543.996
543.824
543.657
543.495
543.338
543.184
543.034
542.886
542.742
542.6
542.46
542.322
542.185
542.05
541.916
541.784
541.652
541.52
541.39
541.26
541.13
541.001
540.872
540.743
540.614
552.505
552.417
552.334
552.255
552.181
552.111
552.043
551.979
551.916
551.855
551.796
551.739
551.684
551.63
551.579
551.53
551.483
551.439
551.396
551.356
551.319
551.285
551.252
551.222
551.193
551.166
551.14
551.115
551.092
551.07
551.049
551.029
551.01
550.993
550.976
550.96
550.945
550.93
550.917
550.903
550.89
550.877
550.865
550.853
550.84
550.828
550.816
550.804
550.793
550.781
550.769
550.758
550.747
550.735
550.724
550.713
550.702
550.69
550.678
550.665
550.652
550.638
550.622
550.603
550.58
550.552
550.515
550.467
550.403
550.319
550.208
550.066
549.888
549.668
549.41
549.121
548.81
548.487
548.162
547.84
547.526
547.222
546.929
546.647
546.375
546.113
545.862
545.62
545.387
545.164
544.95
544.744
544.545
544.355
544.171
543.993
543.822
543.655
543.493
543.336
543.182
543.032
542.885
542.741
542.599
542.459
542.321
542.185
542.05
541.916
541.783
541.651
541.52
541.39
541.26
541.13
541.001
540.872
540.743
540.614
552.505
552.415
552.33
552.248
552.169
552.093
552.02
551.95
551.883
551.819
551.757
551.697
551.64
551.586
551.533
551.483
551.436
551.392
551.35
551.311
551.274
551.241
551.21
551.181
551.154
551.129
551.105
551.081
551.06
551.039
551.019
551.001
550.983
550.967
550.951
550.936
550.921
550.908
550.895
550.882
550.869
550.857
550.845
550.833
550.821
550.81
550.798
550.786
550.775
550.763
550.752
550.741
550.73
550.719
550.708
550.697
550.685
550.674
550.662
550.65
550.636
550.622
550.606
550.587
550.565
550.536
550.5
550.453
550.39
550.308
550.201
550.063
549.888
549.675
549.422
549.133
548.819
548.493
548.166
547.842
547.526
547.219
546.924
546.641
546.369
546.107
545.855
545.612
545.38
545.157
544.943
544.737
544.539
544.349
544.165
543.988
543.817
543.651
543.49
543.332
543.179
543.029
542.883
542.739
542.597
542.457
542.319
542.183
542.048
541.915
541.782
541.65
541.519
541.389
541.259
541.13
541.001
540.872
540.743
540.614
552.503
552.411
552.321
552.233
552.146
552.063
551.983
551.906
551.834
551.764
551.698
551.635
551.575
551.518
551.465
551.415
551.367
551.323
551.282
551.244
551.209
551.178
551.149
551.122
551.098
551.075
551.053
551.032
551.013
550.994
550.976
550.96
550.944
550.929
550.914
550.901
550.887
550.875
550.862
550.851
550.839
550.827
550.816
550.805
550.793
550.782
550.771
550.759
550.748
550.737
550.726
550.715
550.704
550.694
550.683
550.672
550.661
550.65
550.638
550.626
550.612
550.598
550.582
550.563
550.54
550.512
550.476
550.429
550.368
550.288
550.183
550.048
549.877
549.668
549.419
549.133
548.822
548.499
548.17
547.843
547.525
547.216
546.918
546.633
546.36
546.097
545.844
545.602
545.369
545.146
544.932
544.727
544.53
544.34
544.157
543.981
543.81
543.645
543.484
543.327
543.175
543.025
542.879
542.735
542.594
542.455
542.317
542.181
542.047
541.913
541.781
541.649
541.518
541.388
541.258
541.129
541
540.871
540.743
540.614
552.501
552.403
552.306
552.21
552.115
552.022
551.932
551.847
551.767
551.692
551.621
551.554
551.491
551.433
551.378
551.328
551.28
551.236
551.197
551.161
551.128
551.099
551.073
551.048
551.027
551.007
550.988
550.97
550.953
550.937
550.922
550.908
550.894
550.881
550.868
550.856
550.844
550.832
550.821
550.81
550.8
550.789
550.778
550.767
550.756
550.746
550.735
550.724
550.713
550.703
550.692
550.681
550.671
550.661
550.65
550.639
550.628
550.617
550.605
550.593
550.58
550.565
550.549
550.53
550.508
550.479
550.443
550.397
550.336
550.257
550.154
550.022
549.856
549.654
549.413
549.138
548.834
548.51
548.175
547.844
547.522
547.21
546.91
546.623
546.347
546.083
545.83
545.587
545.354
545.131
544.918
544.713
544.517
544.328
544.146
543.971
543.801
543.636
543.476
543.32
543.168
543.02
542.874
542.731
542.59
542.451
542.314
542.178
542.044
541.911
541.779
541.648
541.517
541.387
541.257
541.128
540.999
540.871
540.742
540.614
552.497
552.391
552.284
552.178
552.072
551.968
551.87
551.776
551.688
551.606
551.53
551.459
551.393
551.333
551.277
551.226
551.179
551.136
551.098
551.065
551.034
551.008
550.985
550.963
550.945
550.928
550.913
550.898
550.885
550.872
550.859
550.847
550.836
550.825
550.814
550.803
550.793
550.783
550.773
550.763
550.753
550.743
550.733
550.723
550.712
550.702
550.692
550.681
550.671
550.661
550.65
550.64
550.63
550.62
550.609
550.599
550.588
550.577
550.565
550.553
550.539
550.525
550.509
550.489
550.466
550.437
550.4
550.354
550.294
550.216
550.116
549.988
549.827
549.63
549.396
549.126
548.824
548.501
548.169
547.839
547.515
547.201
546.898
546.608
546.331
546.065
545.811
545.568
545.335
545.113
544.9
544.696
544.501
544.313
544.132
543.958
543.789
543.626
543.467
543.312
543.161
543.013
542.868
542.725
542.585
542.447
542.31
542.175
542.041
541.908
541.777
541.646
541.515
541.386
541.256
541.127
540.999
540.87
540.742
540.614
552.492
552.375
552.256
552.137
552.019
551.905
551.796
551.694
551.598
551.509
551.428
551.353
551.285
551.222
551.166
551.114
551.067
551.026
550.99
550.959
550.931
550.908
550.888
550.87
550.855
550.842
550.83
550.819
550.809
550.799
550.79
550.78
550.771
550.762
550.754
550.745
550.736
550.727
550.718
550.709
550.7
550.691
550.681
550.671
550.662
550.652
550.642
550.632
550.622
550.612
550.602
550.592
550.582
550.572
550.562
550.551
550.54
550.529
550.517
550.505
550.491
550.476
550.46
550.44
550.416
550.387
550.349
550.302
550.242
550.165
550.066
549.942
549.786
549.596
549.368
549.103
548.807
548.49
548.161
547.83
547.504
547.187
546.882
546.589
546.31
546.043
545.788
545.545
545.312
545.09
544.879
544.676
544.482
544.295
544.116
543.943
543.775
543.613
543.455
543.302
543.152
543.005
542.861
542.719
542.579
542.442
542.306
542.171
542.038
541.905
541.774
541.643
541.513
541.384
541.255
541.126
540.998
540.87
540.742
540.614
552.486
552.355
552.221
552.087
551.957
551.831
551.714
551.603
551.5
551.405
551.318
551.24
551.168
551.104
551.046
550.995
550.949
550.909
550.876
550.847
550.823
550.803
550.786
550.771
550.76
550.75
550.742
550.735
550.728
550.721
550.715
550.708
550.702
550.695
550.688
550.681
550.674
550.666
550.658
550.65
550.642
550.633
550.624
550.614
550.605
550.595
550.586
550.576
550.567
550.557
550.548
550.538
550.528
550.518
550.508
550.497
550.486
550.474
550.462
550.449
550.435
550.42
550.403
550.382
550.357
550.327
550.289
550.242
550.182
550.106
550.009
549.886
549.735
549.55
549.33
549.073
548.785
548.472
548.145
547.814
547.486
547.167
546.859
546.565
546.284
546.015
545.76
545.516
545.284
545.064
544.853
544.652
544.459
544.274
544.097
543.925
543.76
543.599
543.442
543.29
543.141
542.995
542.852
542.711
542.573
542.436
542.301
542.167
542.034
541.902
541.771
541.641
541.511
541.382
541.253
541.125
540.997
540.869
540.741
540.614
552.477
552.329
552.179
552.03
551.886
551.75
551.623
551.505
551.395
551.294
551.203
551.121
551.046
550.98
550.922
550.871
550.827
550.789
550.758
550.732
550.711
550.695
550.681
550.67
550.662
550.656
550.652
550.648
550.644
550.641
550.637
550.633
550.629
550.624
550.619
550.614
550.608
550.601
550.594
550.587
550.578
550.57
550.561
550.552
550.543
550.534
550.524
550.515
550.506
550.496
550.487
550.477
550.467
550.457
550.447
550.435
550.424
550.412
550.399
550.386
550.371
550.355
550.337
550.316
550.29
550.259
550.221
550.173
550.112
550.037
549.942
549.824
549.678
549.5
549.288
549.041
548.762
548.456
548.13
547.796
547.464
547.142
546.831
546.534
546.251
545.982
545.726
545.483
545.252
545.032
544.823
544.624
544.433
544.251
544.075
543.905
543.741
543.582
543.428
543.277
543.129
542.985
542.843
542.703
542.565
542.429
542.295
542.161
542.029
541.898
541.767
541.638
541.509
541.38
541.252
541.124
540.996
540.868
540.741
540.614
552.467
552.299
552.13
551.966
551.809
551.662
551.526
551.401
551.286
551.18
551.084
550.999
550.922
550.855
550.797
550.746
550.704
550.669
550.64
550.617
550.6
550.586
550.576
550.569
550.565
550.562
550.561
550.56
550.56
550.559
550.558
550.556
550.554
550.551
550.548
550.543
550.538
550.533
550.526
550.519
550.511
550.503
550.494
550.485
550.475
550.466
550.457
550.448
550.439
550.43
550.42
550.41
550.4
550.39
550.379
550.367
550.355
550.342
550.329
550.315
550.299
550.282
550.263
550.24
550.214
550.182
550.143
550.094
550.034
549.958
549.864
549.749
549.607
549.436
549.232
548.994
548.721
548.42
548.098
547.767
547.436
547.111
546.797
546.497
546.212
545.942
545.686
545.443
545.214
544.996
544.789
544.592
544.404
544.224
544.05
543.883
543.721
543.564
543.411
543.262
543.116
542.973
542.832
542.694
542.557
542.422
542.288
542.156
542.024
541.894
541.764
541.634
541.506
541.377
541.25
541.122
540.995
540.868
540.74
540.613
552.455
552.266
552.078
551.897
551.728
551.571
551.426
551.294
551.172
551.062
550.963
550.875
550.798
550.73
550.672
550.623
550.582
550.55
550.524
550.505
550.49
550.481
550.474
550.47
550.469
550.469
550.471
550.473
550.475
550.477
550.478
550.479
550.478
550.476
550.474
550.471
550.467
550.461
550.455
550.448
550.44
550.431
550.422
550.413
550.403
550.394
550.385
550.376
550.366
550.357
550.347
550.337
550.326
550.315
550.304
550.291
550.278
550.264
550.25
550.235
550.218
550.2
550.179
550.156
550.128
550.095
550.055
550.006
549.945
549.87
549.778
549.665
549.528
549.362
549.165
548.935
548.671
548.377
548.062
547.734
547.401
547.071
546.753
546.45
546.164
545.894
545.639
545.398
545.171
544.956
544.751
544.557
544.372
544.194
544.023
543.859
543.699
543.544
543.394
543.246
543.102
542.96
542.821
542.684
542.548
542.414
542.281
542.15
542.019
541.889
541.76
541.631
541.503
541.375
541.248
541.12
540.993
540.867
540.74
540.613
552.443
552.23
552.022
551.825
551.642
551.475
551.322
551.184
551.058
550.943
550.841
550.752
550.674
550.607
550.55
550.503
550.465
550.435
550.412
550.396
550.385
550.379
550.375
550.375
550.376
550.379
550.383
550.388
550.392
550.396
550.399
550.401
550.401
550.401
550.4
550.397
550.393
550.388
550.381
550.374
550.365
550.356
550.347
550.337
550.327
550.317
550.307
550.298
550.289
550.279
550.269
550.258
550.246
550.234
550.221
550.208
550.193
550.178
550.162
550.146
550.128
550.108
550.086
550.061
550.031
549.998
549.956
549.906
549.845
549.77
549.679
549.568
549.435
549.275
549.085
548.863
548.608
548.322
548.009
547.68
547.345
547.016
546.697
546.394
546.108
545.838
545.585
545.347
545.122
544.91
544.709
544.518
544.336
544.162
543.994
543.832
543.675
543.523
543.375
543.229
543.087
542.947
542.809
542.673
542.539
542.406
542.274
542.143
542.013
541.884
541.755
541.627
541.499
541.372
541.245
541.119
540.992
540.866
540.739
540.613
552.43
552.193
551.964
551.749
551.553
551.376
551.216
551.071
550.941
550.824
550.72
550.63
550.552
550.487
550.432
550.387
550.352
550.326
550.306
550.293
550.286
550.282
550.282
550.284
550.288
550.293
550.299
550.306
550.312
550.317
550.321
550.324
550.325
550.325
550.324
550.322
550.318
550.312
550.305
550.297
550.288
550.278
550.268
550.257
550.246
550.236
550.225
550.215
550.205
550.195
550.184
550.172
550.16
550.146
550.132
550.116
550.1
550.083
550.066
550.047
550.027
550.006
549.982
549.955
549.924
549.889
549.846
549.794
549.732
549.657
549.567
549.458
549.329
549.175
548.992
548.776
548.528
548.248
547.942
547.617
547.283
546.951
546.631
546.327
546.042
545.774
545.524
545.289
545.068
544.86
544.663
544.476
544.298
544.127
543.963
543.804
543.65
543.5
543.354
543.211
543.071
542.932
542.796
542.662
542.529
542.397
542.266
542.136
542.007
541.878
541.751
541.623
541.496
541.369
541.243
541.117
540.991
540.865
540.739
540.613
552.417
552.155
551.904
551.671
551.461
551.274
551.106
550.957
550.823
550.705
550.601
550.511
550.434
550.37
550.318
550.277
550.246
550.222
550.206
550.197
550.192
550.192
550.194
550.198
550.204
550.211
550.219
550.226
550.233
550.239
550.244
550.247
550.249
550.25
550.249
550.246
550.241
550.235
550.228
550.219
550.209
550.198
550.186
550.174
550.162
550.15
550.139
550.128
550.117
550.106
550.093
550.08
550.066
550.05
550.034
550.017
549.999
549.98
549.96
549.939
549.916
549.892
549.866
549.838
549.805
549.767
549.723
549.671
549.608
549.532
549.442
549.335
549.208
549.058
548.88
548.671
548.43
548.158
547.859
547.539
547.209
546.879
546.557
546.251
545.966
545.701
545.454
545.224
545.008
544.805
544.613
544.43
544.256
544.09
543.929
543.774
543.623
543.476
543.333
543.192
543.054
542.917
542.783
542.65
542.518
542.387
542.258
542.129
542.001
541.873
541.746
541.619
541.493
541.366
541.24
541.115
540.989
540.864
540.738
540.613
552.403
552.114
551.84
551.589
551.366
551.168
550.995
550.841
550.705
550.586
550.483
550.394
550.32
550.259
550.21
550.172
550.145
550.126
550.113
550.107
550.106
550.108
550.112
550.118
550.126
550.134
550.142
550.15
550.157
550.164
550.169
550.172
550.174
550.174
550.173
550.169
550.164
550.157
550.148
550.138
550.127
550.115
550.102
550.089
550.075
550.062
550.049
550.036
550.023
550.01
549.996
549.981
549.965
549.947
549.929
549.909
549.888
549.867
549.844
549.82
549.794
549.768
549.739
549.708
549.672
549.631
549.585
549.532
549.469
549.393
549.303
549.196
549.071
548.924
548.752
548.549
548.314
548.049
547.756
547.442
547.115
546.786
546.465
546.16
545.878
545.618
545.377
545.152
544.942
544.745
544.559
544.382
544.213
544.05
543.894
543.742
543.595
543.451
543.31
543.172
543.036
542.902
542.769
542.637
542.507
542.378
542.249
542.121
541.994
541.867
541.741
541.615
541.489
541.363
541.238
541.113
540.987
540.862
540.737
540.612
552.388
552.07
551.772
551.502
551.264
551.058
550.879
550.722
550.585
550.467
550.366
550.28
550.21
550.153
550.108
550.074
550.051
550.035
550.027
550.024
550.025
550.029
550.036
550.043
550.052
550.061
550.069
550.077
550.084
550.09
550.095
550.098
550.099
550.099
550.097
550.092
550.086
550.078
550.068
550.056
550.044
550.03
550.016
550.001
549.986
549.97
549.955
549.94
549.926
549.91
549.894
549.876
549.857
549.837
549.815
549.793
549.769
549.744
549.718
549.69
549.662
549.631
549.599
549.565
549.526
549.483
549.433
549.377
549.312
549.236
549.147
549.042
548.918
548.773
548.605
548.406
548.176
547.918
547.632
547.324
547.001
546.674
546.356
546.055
545.778
545.524
545.29
545.074
544.872
544.681
544.502
544.33
544.167
544.009
543.857
543.71
543.566
543.425
543.287
543.152
543.018
542.886
542.755
542.625
542.496
542.368
542.24
542.114
541.987
541.861
541.736
541.61
541.485
541.36
541.235
541.111
540.986
540.861
540.737
540.612
552.372
552.023
551.699
551.409
551.158
550.943
550.76
550.602
550.465
550.349
550.251
550.169
550.103
550.051
550.011
549.982
549.963
549.951
549.946
549.947
549.95
549.957
549.964
549.973
549.982
549.992
550
550.008
550.014
550.02
550.023
550.026
550.026
550.024
550.021
550.015
550.008
549.998
549.987
549.974
549.959
549.944
549.928
549.911
549.894
549.877
549.859
549.842
549.824
549.805
549.786
549.765
549.743
549.719
549.695
549.669
549.641
549.612
549.582
549.551
549.518
549.484
549.448
549.409
549.367
549.32
549.267
549.208
549.14
549.063
548.974
548.87
548.747
548.605
548.439
548.244
548.021
547.769
547.49
547.187
546.87
546.548
546.231
545.932
545.663
545.419
545.196
544.989
544.796
544.614
544.442
544.277
544.119
543.967
543.82
543.676
543.536
543.399
543.264
543.131
542.999
542.869
542.74
542.612
542.485
542.358
542.232
542.106
541.98
541.855
541.73
541.606
541.481
541.357
541.233
541.108
540.984
540.86
540.736
540.612
552.354
551.973
551.622
551.311
551.047
550.825
550.639
550.481
550.347
550.233
550.139
550.062
550.002
549.955
549.92
549.896
549.881
549.874
549.872
549.875
549.881
549.889
549.898
549.908
549.917
549.926
549.934
549.941
549.947
549.951
549.954
549.954
549.953
549.951
549.946
549.939
549.93
549.919
549.906
549.891
549.875
549.858
549.839
549.82
549.801
549.781
549.76
549.74
549.718
549.696
549.673
549.648
549.622
549.595
549.566
549.536
549.505
549.471
549.437
549.401
549.363
549.324
549.284
549.241
549.194
549.144
549.087
549.025
548.953
548.874
548.784
548.681
548.561
548.421
548.258
548.068
547.85
547.604
547.331
547.035
546.723
546.403
546.087
545.79
545.531
545.302
545.093
544.899
544.717
544.544
544.38
544.222
544.071
543.924
543.781
543.642
543.506
543.372
543.24
543.11
542.981
542.853
542.725
542.599
542.473
542.348
542.223
542.098
541.974
541.849
541.725
541.601
541.477
541.354
541.23
541.106
540.983
540.859
540.735
540.612
552.336
551.921
551.54
551.209
550.931
550.702
550.514
550.358
550.227
550.118
550.029
549.959
549.904
549.863
549.835
549.816
549.805
549.802
549.803
549.808
549.816
549.826
549.835
549.845
549.855
549.863
549.871
549.877
549.881
549.884
549.885
549.885
549.882
549.878
549.872
549.863
549.853
549.84
549.825
549.808
549.79
549.771
549.75
549.729
549.706
549.683
549.659
549.635
549.609
549.583
549.555
549.526
549.496
549.464
549.43
549.396
549.36
549.321
549.282
549.24
549.197
549.153
549.108
549.06
549.008
548.954
548.893
548.827
548.753
548.671
548.58
548.477
548.359
548.221
548.061
547.876
547.664
547.425
547.16
546.871
546.563
546.243
545.921
545.617
545.379
545.173
544.984
544.806
544.636
544.473
544.317
544.167
544.021
543.88
543.743
543.608
543.476
543.345
543.216
543.089
542.962
542.836
542.711
542.586
542.462
542.338
542.214
542.09
541.967
541.843
541.72
541.597
541.474
541.351
541.227
541.104
540.981
540.858
540.735
540.612
552.32
551.872
551.461
551.105
550.811
550.576
550.388
550.235
550.109
550.006
549.923
549.859
549.811
549.777
549.754
549.74
549.734
549.734
549.739
549.746
549.756
549.766
549.776
549.786
549.795
549.803
549.81
549.815
549.818
549.82
549.819
549.817
549.813
549.807
549.8
549.789
549.777
549.763
549.746
549.727
549.707
549.685
549.662
549.637
549.611
549.584
549.557
549.527
549.497
549.466
549.433
549.399
549.363
549.326
549.288
549.248
549.207
549.163
549.117
549.071
549.022
548.972
548.922
548.869
548.812
548.753
548.687
548.617
548.54
548.456
548.365
548.261
548.144
548.009
547.853
547.673
547.468
547.238
546.981
546.701
546.397
546.073
545.73
545.388
545.203
545.037
544.873
544.711
544.554
544.401
544.254
544.111
543.972
543.837
543.704
543.574
543.446
543.319
543.193
543.068
542.944
542.82
542.696
542.573
542.45
542.328
542.205
542.083
541.96
541.838
541.715
541.593
541.47
541.347
541.225
541.102
540.979
540.857
540.734
540.611
552.303
551.824
551.388
551.014
550.705
550.459
550.267
550.115
549.994
549.897
549.821
549.763
549.722
549.694
549.677
549.668
549.666
549.67
549.677
549.687
549.698
549.709
549.72
549.73
549.739
549.746
549.752
549.756
549.758
549.758
549.756
549.752
549.747
549.739
549.73
549.718
549.704
549.688
549.669
549.648
549.625
549.6
549.574
549.546
549.516
549.485
549.452
549.418
549.382
549.345
549.307
549.267
549.226
549.183
549.139
549.094
549.047
548.998
548.946
548.893
548.839
548.784
548.728
548.67
548.608
548.544
548.474
548.401
548.321
548.235
548.142
548.04
547.925
547.792
547.64
547.468
547.27
547.05
546.804
546.533
546.237
545.91
545.53
545.012
545.018
544.907
544.766
544.62
544.474
544.331
544.192
544.056
543.924
543.794
543.666
543.541
543.416
543.293
543.17
543.047
542.925
542.804
542.682
542.561
542.439
542.318
542.197
542.075
541.954
541.832
541.71
541.588
541.466
541.344
541.222
541.1
540.978
540.856
540.733
540.611
552.285
551.776
551.317
550.924
550.602
550.346
550.148
549.997
549.88
549.789
549.72
549.669
549.635
549.613
549.602
549.599
549.601
549.608
549.618
549.63
549.642
549.655
549.667
549.677
549.686
549.693
549.697
549.7
549.7
549.699
549.695
549.69
549.683
549.674
549.663
549.649
549.634
549.615
549.594
549.571
549.545
549.517
549.487
549.455
549.42
549.384
549.346
549.306
549.265
549.222
549.177
549.131
549.084
549.035
548.986
548.935
548.882
548.827
548.769
548.711
548.651
548.591
548.53
548.468
548.403
548.334
548.262
548.185
548.103
548.017
547.921
547.819
547.708
547.578
547.432
547.268
547.078
546.869
546.635
546.379
546.099
545.794
545.466
545.136
544.962
544.815
544.674
544.534
544.397
544.263
544.132
544.003
543.876
543.752
543.629
543.508
543.387
543.267
543.147
543.028
542.908
542.788
542.669
542.549
542.429
542.309
542.188
542.068
541.947
541.826
541.705
541.584
541.463
541.341
541.22
541.098
540.976
540.855
540.733
540.611
552.274
551.741
551.261
550.848
550.509
550.243
550.038
549.885
549.769
549.683
549.62
549.576
549.549
549.534
549.528
549.531
549.538
549.549
549.562
549.575
549.59
549.604
549.617
549.628
549.637
549.643
549.647
549.648
549.647
549.643
549.638
549.631
549.622
549.611
549.598
549.583
549.565
549.544
549.521
549.495
549.466
549.434
549.4
549.363
549.324
549.283
549.239
549.193
549.145
549.096
549.044
548.992
548.939
548.885
548.83
548.773
548.715
548.654
548.591
548.527
548.463
548.399
548.335
548.269
548.202
548.132
548.058
547.979
547.896
547.809
547.712
547.609
547.5
547.375
547.234
547.08
546.902
546.705
546.485
546.245
545.981
545.699
545.405
545.12
544.887
544.727
544.587
544.453
544.324
544.197
544.073
543.951
543.831
543.712
543.594
543.476
543.359
543.242
543.126
543.008
542.891
542.774
542.656
542.537
542.419
542.3
542.181
542.061
541.941
541.821
541.701
541.58
541.46
541.339
541.218
541.096
540.975
540.854
540.732
540.611
552.273
551.73
551.229
550.794
550.437
550.157
549.942
549.782
549.664
549.58
549.521
549.484
549.462
549.453
549.453
549.462
549.474
549.49
549.507
549.524
549.542
549.558
549.572
549.585
549.594
549.6
549.602
549.601
549.596
549.59
549.583
549.573
549.562
549.549
549.533
549.515
549.495
549.473
549.447
549.418
549.386
549.351
549.313
549.271
549.227
549.18
549.131
549.079
549.025
548.97
548.912
548.854
548.795
548.735
548.674
548.612
548.549
548.483
548.416
548.349
548.281
548.214
548.147
548.081
548.012
547.943
547.871
547.793
547.708
547.622
547.525
547.419
547.31
547.192
547.06
546.915
546.753
546.568
546.364
546.141
545.885
545.611
545.35
545.105
544.76
544.626
544.499
544.375
544.253
544.134
544.017
543.901
543.786
543.673
543.559
543.446
543.333
543.219
543.105
542.99
542.875
542.76
542.643
542.527
542.409
542.291
542.173
542.055
541.936
541.816
541.697
541.577
541.457
541.336
541.216
541.095
540.974
540.853
540.732
540.611
552.268
551.716
551.203
550.755
550.382
550.085
549.857
549.687
549.564
549.479
549.422
549.389
549.374
549.371
549.377
549.392
549.41
549.432
549.454
549.477
549.498
549.518
549.535
549.548
549.558
549.563
549.562
549.557
549.549
549.539
549.528
549.515
549.501
549.484
549.465
549.444
549.421
549.396
549.369
549.338
549.303
549.264
549.223
549.178
549.13
549.079
549.024
548.968
548.909
548.848
548.787
548.724
548.659
548.593
548.526
548.459
548.391
548.323
548.253
548.184
548.116
548.047
547.978
547.91
547.842
547.773
547.702
547.626
547.539
547.452
547.358
547.245
547.124
547.019
546.9
546.762
546.633
546.475
546.27
546.04
545.821
545.58
545.433
545.506
544.72
544.538
544.415
544.299
544.186
544.074
543.963
543.854
543.744
543.636
543.527
543.418
543.308
543.197
543.086
542.974
542.86
542.747
542.632
542.517
542.4
542.284
542.167
542.049
541.931
541.812
541.693
541.573
541.454
541.334
541.214
541.093
540.973
540.852
540.731
540.61
552.264
551.705
551.188
550.734
550.348
550.033
549.787
549.602
549.47
549.38
549.323
549.293
549.283
549.287
549.3
549.32
549.345
549.375
549.405
549.434
549.461
549.484
549.504
549.518
549.528
549.532
549.527
549.517
549.502
549.487
549.471
549.454
549.435
549.413
549.388
549.363
549.336
549.309
549.281
549.249
549.212
549.172
549.129
549.083
549.033
548.98
548.923
548.864
548.803
548.741
548.677
548.611
548.541
548.469
548.397
548.322
548.251
548.186
548.118
548.052
547.985
547.911
547.837
547.764
547.693
547.62
547.543
547.459
547.367
547.266
547.167
547.04
546.886
546.787
546.689
546.601
546.457
546.332
546.139
545.985
545.927
545.679
546.383
545.24
544.587
544.444
544.334
544.226
544.121
544.016
543.912
543.809
543.705
543.601
543.496
543.391
543.285
543.177
543.068
542.958
542.847
542.735
542.622
542.507
542.392
542.277
542.16
542.043
541.926
541.808
541.689
541.57
541.451
541.332
541.212
541.092
540.972
540.851
540.731
540.61
552.268
551.717
551.203
550.739
550.335
549.997
549.729
549.526
549.382
549.285
549.226
549.198
549.191
549.201
549.22
549.247
549.28
549.319
549.36
549.398
549.431
549.458
549.477
549.491
549.499
549.501
549.492
549.474
549.452
549.431
549.411
549.39
549.364
549.332
549.298
549.264
549.234
549.205
549.175
549.146
549.108
549.068
549.027
548.983
548.937
548.886
548.833
548.778
548.719
548.659
548.597
548.529
548.452
548.372
548.288
548.214
548.143
548.09
548.029
547.975
547.912
547.833
547.765
547.679
547.574
547.449
547.329
547.208
547.116
547.036
547.069
546.937
546.707
546.61
546.577
546.579
546.457
546.33
546.111
545.932
545.806
545.558
545.862
544.524
544.443
544.349
544.256
544.157
544.059
543.962
543.864
543.766
543.668
543.569
543.469
543.367
543.264
543.159
543.052
542.944
542.835
542.724
542.612
542.499
542.385
542.271
542.155
542.039
541.922
541.804
541.686
541.568
541.449
541.33
541.21
541.091
540.971
540.851
540.73
540.61
552.274
551.733
551.22
550.746
550.327
549.969
549.678
549.457
549.3
549.196
549.134
549.106
549.102
549.117
549.142
549.176
549.217
549.266
549.316
549.367
549.406
549.433
549.447
549.455
549.458
549.46
549.443
549.42
549.39
549.366
549.345
549.323
549.288
549.241
549.186
549.141
549.111
549.078
549.041
549.012
548.978
548.941
548.903
548.865
548.832
548.789
548.752
548.708
548.658
548.61
548.558
548.491
548.389
548.295
548.189
548.131
548.088
548.065
548.019
548.021
547.915
547.809
547.778
547.635
547.464
547.326
547.196
547.149
547.094
546.995
546.947
546.878
546.755
546.675
546.624
546.571
546.433
546.259
546.043
545.849
545.664
545.457
545.246
544.425
544.348
544.273
544.188
544.092
544
543.91
543.819
543.727
543.634
543.54
543.443
543.345
543.245
543.143
543.039
542.932
542.825
542.715
542.604
542.493
542.379
542.265
542.15
542.035
541.918
541.801
541.684
541.566
541.447
541.328
541.209
541.09
540.97
540.85
540.73
540.61
552.274
551.732
551.214
550.732
550.297
549.924
549.619
549.387
549.225
549.118
549.054
549.028
549.026
549.044
549.073
549.115
549.162
549.22
549.267
549.336
549.379
549.402
549.399
549.388
549.377
549.388
549.375
549.363
549.322
549.275
549.238
549.217
549.187
549.121
549.037
548.985
548.963
548.936
548.882
548.838
548.823
548.786
548.762
548.736
548.73
548.703
548.688
548.674
548.644
548.6
548.552
548.467
548.324
548.24
548.083
548.064
548.066
548.087
547.99
547.996
547.871
547.709
547.639
547.494
547.378
547.295
547.2
547.159
547.109
547.034
546.965
546.884
546.795
546.704
546.607
546.491
546.33
546.154
545.959
545.779
545.588
545.342
545.062
544.6
544.298
544.228
544.114
544.025
543.944
543.862
543.778
543.692
543.603
543.513
543.421
543.327
543.229
543.129
543.027
542.923
542.816
542.708
542.598
542.487
542.375
542.261
542.147
542.032
541.916
541.799
541.682
541.564
541.446
541.327
541.208
541.089
540.969
540.85
540.73
540.61
552.261
551.697
551.16
550.662
550.214
549.83
549.524
549.302
549.159
549.056
548.991
548.983
548.993
549.003
549.028
549.077
549.121
549.214
549.28
549.308
549.306
549.327
549.31
549.276
549.28
549.288
549.278
549.249
549.199
549.138
549.098
549.067
549.031
548.98
548.912
548.791
548.763
548.755
548.691
548.647
548.663
548.639
548.638
548.606
548.603
548.561
548.542
548.504
548.555
548.53
548.517
548.404
548.296
548.243
548.147
548.073
548.038
548.009
547.928
547.862
547.763
547.619
547.526
547.411
547.334
547.276
547.216
547.173
547.123
547.062
546.989
546.905
546.813
546.706
546.586
546.451
546.293
546.095
545.886
545.718
545.463
545.114
544.863
544.618
544.302
544.187
544.042
543.965
543.891
543.818
543.742
543.66
543.576
543.491
543.403
543.312
543.217
543.119
543.018
542.915
542.809
542.702
542.593
542.483
542.371
542.258
542.144
542.029
541.913
541.797
541.68
541.563
541.444
541.326
541.207
541.088
540.969
540.849
540.73
540.61
552.219
551.597
551.022
550.497
550.034
549.646
549.345
549.161
549.112
549.015
548.93
548.988
549.048
549.063
549.055
549.072
549.129
549.255
549.308
549.321
549.288
549.244
549.234
549.179
549.141
549.125
549.14
549.147
549.125
548.98
548.944
548.876
548.81
548.759
548.768
548.587
548.597
548.59
548.457
548.525
548.524
548.498
548.507
548.529
548.541
548.509
548.461
548.417
548.414
548.41
548.379
548.313
548.262
548.222
548.16
548.074
547.989
547.909
547.821
547.725
547.629
547.522
547.44
547.367
547.313
547.268
547.224
547.181
547.128
547.068
546.996
546.916
546.818
546.692
546.557
546.427
546.261
545.996
545.694
545.475
545.185
544.889
544.661
544.502
544.364
544.219
544.019
543.933
543.843
543.781
543.713
543.632
543.551
543.472
543.389
543.301
543.208
543.112
543.012
542.91
542.805
542.698
542.59
542.48
542.368
542.256
542.142
542.027
541.912
541.796
541.679
541.562
541.444
541.325
541.207
541.088