/*--------------------------------*- C++ -*----------------------------------*\
  =========                 |
  \\      /  F ield         | OpenFOAM: The Open Source CFD Toolbox
   \\    /   O peration     | Website:  https://openfoam.org
    \\  /    A nd           | Version:  6
     \\/     M anipulation  |
\*---------------------------------------------------------------------------*/
FoamFile
{
    version     2.0;
    format      ascii;
    class       volScalarField;
    location    "6100";
    object      T;
}
// * * * * * * * * * * * * * * * * * * * * * * * * * * * * * * * * * * * * * //

dimensions      [0 0 0 1 0 0 0];

internalField   nonuniform List<scalar> 
4800
(
552.503
552.409
552.314
552.22
552.125
552.031
551.936
551.842
551.747
551.652
551.557
551.461
551.366
551.27
551.175
551.079
550.982
550.886
550.789
550.693
550.595
550.498
550.401
550.303
550.205
550.107
550.008
549.91
549.811
549.712
549.613
549.514
549.414
549.314
549.215
549.115
549.014
548.914
548.813
548.713
548.612
548.511
548.41
548.309
548.207
548.106
548.004
547.902
547.8
547.697
547.595
547.492
547.389
547.286
547.183
547.08
546.976
546.872
546.768
546.664
546.56
546.455
546.351
546.246
546.141
546.036
545.93
545.825
545.719
545.614
545.508
545.402
545.296
545.19
545.084
544.978
544.872
544.766
544.659
544.553
544.451
544.348
544.246
544.144
544.041
543.939
543.837
543.735
543.634
543.532
543.431
543.33
543.229
543.128
543.028
542.928
542.828
542.728
542.629
542.53
542.431
542.332
542.234
542.136
542.039
541.941
541.844
541.747
541.65
541.554
541.458
541.362
541.266
541.17
541.074
540.979
540.883
540.788
540.693
540.598
552.503
552.409
552.314
552.22
552.125
552.031
551.936
551.842
551.747
551.652
551.557
551.461
551.366
551.27
551.175
551.079
550.982
550.886
550.789
550.693
550.595
550.498
550.401
550.303
550.205
550.107
550.009
549.91
549.811
549.712
549.613
549.514
549.414
549.315
549.215
549.115
549.015
548.914
548.814
548.713
548.612
548.511
548.41
548.309
548.208
548.106
548.004
547.902
547.8
547.698
547.595
547.493
547.39
547.287
547.183
547.08
546.976
546.873
546.769
546.664
546.56
546.456
546.351
546.246
546.141
546.036
545.931
545.825
545.72
545.614
545.508
545.402
545.296
545.19
545.084
544.978
544.872
544.766
544.659
544.553
544.451
544.348
544.246
544.143
544.041
543.939
543.837
543.735
543.633
543.532
543.431
543.33
543.229
543.128
543.028
542.927
542.828
542.728
542.629
542.53
542.431
542.332
542.234
542.136
542.039
541.941
541.844
541.747
541.65
541.554
541.458
541.362
541.266
541.17
541.074
540.979
540.883
540.788
540.693
540.598
552.503
552.409
552.314
552.22
552.125
552.031
551.936
551.842
551.747
551.652
551.557
551.461
551.366
551.27
551.175
551.079
550.982
550.886
550.789
550.693
550.596
550.498
550.401
550.303
550.205
550.107
550.009
549.91
549.811
549.713
549.613
549.514
549.415
549.315
549.215
549.115
549.015
548.915
548.814
548.714
548.613
548.512
548.411
548.31
548.208
548.107
548.005
547.903
547.801
547.699
547.596
547.493
547.391
547.288
547.184
547.081
546.977
546.873
546.769
546.665
546.561
546.456
546.351
546.247
546.142
546.036
545.931
545.826
545.72
545.614
545.508
545.402
545.296
545.19
545.084
544.978
544.872
544.766
544.66
544.553
544.451
544.348
544.246
544.144
544.041
543.939
543.837
543.735
543.633
543.532
543.431
543.33
543.229
543.128
543.028
542.927
542.828
542.728
542.629
542.53
542.431
542.332
542.234
542.136
542.039
541.941
541.844
541.747
541.65
541.554
541.458
541.362
541.266
541.17
541.074
540.979
540.883
540.788
540.693
540.598
552.503
552.409
552.314
552.22
552.125
552.031
551.936
551.842
551.747
551.652
551.557
551.462
551.366
551.27
551.175
551.079
550.983
550.886
550.79
550.693
550.596
550.498
550.401
550.303
550.205
550.107
550.009
549.911
549.812
549.713
549.614
549.515
549.415
549.316
549.216
549.116
549.016
548.916
548.815
548.715
548.614
548.513
548.412
548.311
548.209
548.108
548.006
547.904
547.802
547.7
547.597
547.495
547.392
547.289
547.185
547.082
546.978
546.874
546.77
546.666
546.562
546.457
546.352
546.247
546.142
546.037
545.932
545.826
545.72
545.615
545.509
545.403
545.297
545.191
545.085
544.978
544.872
544.766
544.66
544.553
544.451
544.348
544.246
544.144
544.041
543.939
543.837
543.735
543.633
543.532
543.431
543.33
543.229
543.128
543.028
542.928
542.828
542.728
542.629
542.53
542.431
542.332
542.234
542.136
542.039
541.941
541.844
541.747
541.65
541.554
541.458
541.362
541.266
541.17
541.074
540.979
540.883
540.788
540.693
540.598
552.503
552.409
552.314
552.22
552.125
552.031
551.936
551.842
551.747
551.652
551.557
551.462
551.366
551.27
551.175
551.079
550.983
550.886
550.79
550.693
550.596
550.499
550.401
550.304
550.206
550.108
550.009
549.911
549.812
549.714
549.615
549.515
549.416
549.317
549.217
549.117
549.017
548.917
548.817
548.716
548.615
548.515
548.414
548.312
548.211
548.109
548.008
547.906
547.804
547.702
547.599
547.496
547.393
547.29
547.187
547.084
546.98
546.876
546.772
546.667
546.563
546.458
546.353
546.248
546.143
546.038
545.932
545.827
545.721
545.615
545.509
545.403
545.297
545.191
545.085
544.979
544.872
544.766
544.66
544.553
544.451
544.348
544.246
544.144
544.041
543.939
543.837
543.735
543.634
543.532
543.431
543.33
543.229
543.128
543.028
542.928
542.828
542.728
542.629
542.53
542.431
542.332
542.234
542.136
542.039
541.941
541.844
541.747
541.65
541.554
541.458
541.362
541.266
541.17
541.074
540.979
540.883
540.788
540.693
540.598
552.503
552.409
552.314
552.22
552.125
552.031
551.936
551.842
551.747
551.652
551.557
551.462
551.366
551.271
551.175
551.079
550.983
550.886
550.79
550.693
550.596
550.499
550.401
550.304
550.206
550.108
550.01
549.912
549.813
549.714
549.615
549.516
549.417
549.318
549.218
549.118
549.018
548.918
548.818
548.718
548.617
548.516
548.415
548.314
548.213
548.111
548.01
547.908
547.806
547.704
547.601
547.498
547.395
547.292
547.189
547.085
546.982
546.878
546.773
546.669
546.564
546.46
546.355
546.25
546.144
546.039
545.933
545.828
545.722
545.616
545.51
545.404
545.298
545.191
545.085
544.979
544.872
544.766
544.66
544.553
544.451
544.348
544.246
544.144
544.041
543.939
543.837
543.735
543.634
543.532
543.431
543.33
543.229
543.128
543.028
542.928
542.828
542.728
542.629
542.53
542.431
542.332
542.234
542.136
542.039
541.941
541.844
541.747
541.65
541.554
541.458
541.362
541.266
541.17
541.074
540.979
540.883
540.788
540.693
540.598
552.503
552.409
552.314
552.22
552.125
552.031
551.936
551.842
551.747
551.652
551.557
551.462
551.366
551.271
551.175
551.079
550.983
550.886
550.79
550.693
550.596
550.499
550.402
550.304
550.207
550.109
550.011
549.912
549.814
549.715
549.616
549.517
549.418
549.319
549.219
549.12
549.02
548.92
548.82
548.72
548.619
548.518
548.418
548.317
548.215
548.114
548.012
547.91
547.808
547.706
547.603
547.501
547.398
547.295
547.191
547.088
546.984
546.88
546.775
546.671
546.566
546.461
546.356
546.251
546.146
546.04
545.934
545.828
545.723
545.617
545.51
545.404
545.298
545.192
545.085
544.979
544.873
544.766
544.66
544.553
544.451
544.348
544.246
544.144
544.041
543.939
543.837
543.735
543.634
543.532
543.431
543.33
543.229
543.128
543.028
542.928
542.828
542.728
542.629
542.53
542.431
542.332
542.234
542.136
542.039
541.941
541.844
541.747
541.65
541.554
541.458
541.362
541.266
541.17
541.074
540.979
540.883
540.788
540.693
540.598
552.503
552.409
552.314
552.22
552.125
552.031
551.936
551.842
551.747
551.652
551.557
551.461
551.366
551.271
551.175
551.079
550.983
550.887
550.79
550.693
550.596
550.499
550.402
550.305
550.207
550.109
550.011
549.913
549.815
549.716
549.617
549.519
549.42
549.32
549.221
549.122
549.022
548.922
548.822
548.722
548.621
548.521
548.42
548.319
548.218
548.117
548.015
547.913
547.811
547.709
547.606
547.503
547.4
547.297
547.194
547.09
546.986
546.882
546.777
546.673
546.568
546.463
546.358
546.252
546.147
546.041
545.935
545.829
545.723
545.617
545.511
545.405
545.298
545.192
545.086
544.979
544.873
544.766
544.66
544.553
544.451
544.348
544.246
544.144
544.041
543.939
543.837
543.735
543.634
543.532
543.431
543.33
543.229
543.128
543.028
542.928
542.828
542.728
542.629
542.53
542.431
542.333
542.234
542.136
542.039
541.941
541.844
541.747
541.65
541.554
541.458
541.362
541.266
541.17
541.074
540.979
540.883
540.788
540.693
540.598
552.503
552.409
552.314
552.22
552.125
552.031
551.936
551.842
551.747
551.652
551.557
551.461
551.366
551.271
551.175
551.079
550.983
550.887
550.79
550.694
550.597
550.5
550.403
550.305
550.208
550.11
550.012
549.914
549.816
549.717
549.619
549.52
549.421
549.322
549.223
549.124
549.024
548.924
548.824
548.724
548.624
548.524
548.423
548.322
548.221
548.12
548.018
547.916
547.814
547.712
547.609
547.506
547.403
547.3
547.196
547.093
546.989
546.884
546.78
546.675
546.57
546.465
546.359
546.254
546.148
546.042
545.936
545.83
545.724
545.618
545.512
545.405
545.299
545.192
545.086
544.979
544.873
544.766
544.66
544.553
544.451
544.348
544.246
544.144
544.041
543.939
543.837
543.735
543.634
543.532
543.431
543.33
543.229
543.128
543.028
542.928
542.828
542.728
542.629
542.53
542.431
542.333
542.234
542.136
542.039
541.941
541.844
541.747
541.651
541.554
541.458
541.362
541.266
541.17
541.074
540.979
540.883
540.788
540.693
540.598
552.503
552.409
552.314
552.22
552.125
552.031
551.936
551.841
551.747
551.652
551.557
551.461
551.366
551.271
551.175
551.079
550.983
550.887
550.79
550.694
550.597
550.5
550.403
550.306
550.208
550.111
550.013
549.915
549.817
549.719
549.62
549.522
549.423
549.324
549.225
549.126
549.026
548.927
548.827
548.727
548.627
548.527
548.426
548.325
548.224
548.123
548.021
547.92
547.817
547.715
547.613
547.51
547.406
547.303
547.199
547.095
546.991
546.887
546.782
546.677
546.572
546.467
546.361
546.255
546.15
546.044
545.937
545.831
545.725
545.619
545.512
545.406
545.299
545.193
545.086
544.98
544.873
544.766
544.66
544.553
544.451
544.348
544.246
544.143
544.041
543.939
543.837
543.735
543.634
543.532
543.431
543.33
543.229
543.128
543.028
542.928
542.828
542.728
542.629
542.53
542.431
542.333
542.234
542.136
542.039
541.941
541.844
541.747
541.651
541.554
541.458
541.362
541.266
541.17
541.074
540.979
540.883
540.788
540.693
540.598
552.503
552.408
552.314
552.22
552.125
552.031
551.936
551.841
551.747
551.652
551.557
551.461
551.366
551.271
551.175
551.079
550.983
550.887
550.791
550.694
550.598
550.501
550.404
550.307
550.209
550.112
550.014
549.916
549.818
549.72
549.622
549.524
549.425
549.326
549.227
549.128
549.029
548.93
548.83
548.73
548.63
548.53
548.429
548.329
548.228
548.126
548.025
547.923
547.821
547.719
547.616
547.513
547.41
547.306
547.202
547.098
546.994
546.889
546.784
546.679
546.574
546.468
546.363
546.257
546.151
546.045
545.938
545.832
545.726
545.619
545.512
545.406
545.299
545.193
545.086
544.98
544.873
544.766
544.66
544.553
544.451
544.348
544.246
544.143
544.041
543.939
543.837
543.735
543.633
543.532
543.431
543.33
543.229
543.128
543.028
542.928
542.828
542.728
542.629
542.53
542.431
542.333
542.234
542.137
542.039
541.941
541.844
541.747
541.651
541.554
541.458
541.362
541.266
541.17
541.074
540.979
540.883
540.788
540.693
540.598
552.503
552.408
552.314
552.22
552.125
552.031
551.936
551.841
551.747
551.652
551.557
551.461
551.366
551.271
551.175
551.079
550.983
550.887
550.791
550.695
550.598
550.501
550.404
550.307
550.21
550.113
550.015
549.918
549.82
549.722
549.624
549.526
549.427
549.329
549.23
549.131
549.032
548.933
548.833
548.733
548.634
548.533
548.433
548.332
548.231
548.13
548.029
547.927
547.825
547.722
547.62
547.516
547.413
547.309
547.205
547.101
546.997
546.892
546.787
546.681
546.576
546.47
546.364
546.258
546.152
546.045
545.939
545.832
545.726
545.619
545.513
545.406
545.299
545.193
545.086
544.979
544.873
544.766
544.66
544.553
544.451
544.348
544.246
544.143
544.041
543.939
543.837
543.735
543.633
543.532
543.431
543.33
543.229
543.128
543.028
542.928
542.828
542.728
542.629
542.53
542.431
542.333
542.235
542.137
542.039
541.941
541.844
541.747
541.651
541.554
541.458
541.362
541.266
541.17
541.074
540.979
540.884
540.788
540.693
540.598
552.503
552.408
552.314
552.22
552.125
552.031
551.936
551.841
551.747
551.652
551.557
551.461
551.366
551.271
551.175
551.079
550.983
550.887
550.791
550.695
550.598
550.502
550.405
550.308
550.211
550.114
550.017
549.919
549.821
549.724
549.626
549.528
549.43
549.331
549.233
549.134
549.035
548.936
548.837
548.737
548.637
548.537
548.437
548.336
548.235
548.134
548.033
547.931
547.829
547.726
547.623
547.52
547.416
547.312
547.208
547.104
546.999
546.894
546.789
546.683
546.577
546.471
546.365
546.259
546.153
546.046
545.939
545.833
545.726
545.619
545.512
545.406
545.299
545.192
545.086
544.979
544.872
544.766
544.66
544.553
544.451
544.348
544.246
544.143
544.041
543.939
543.837
543.735
543.633
543.532
543.431
543.33
543.229
543.128
543.028
542.928
542.828
542.728
542.629
542.53
542.431
542.333
542.235
542.137
542.039
541.942
541.844
541.747
541.651
541.554
541.458
541.362
541.266
541.17
541.074
540.979
540.884
540.788
540.693
540.598
552.503
552.408
552.314
552.22
552.125
552.031
551.936
551.841
551.746
551.652
551.557
551.461
551.366
551.271
551.175
551.079
550.984
550.888
550.792
550.695
550.599
550.502
550.406
550.309
550.212
550.115
550.018
549.921
549.823
549.726
549.628
549.53
549.432
549.334
549.236
549.137
549.038
548.939
548.84
548.741
548.641
548.541
548.441
548.34
548.239
548.138
548.037
547.935
547.832
547.73
547.627
547.523
547.419
547.315
547.211
547.106
547.001
546.896
546.79
546.685
546.579
546.472
546.366
546.26
546.153
546.046
545.939
545.832
545.726
545.619
545.512
545.405
545.298
545.192
545.085
544.978
544.872
544.766
544.659
544.553
544.45
544.348
544.245
544.143
544.041
543.939
543.837
543.735
543.633
543.532
543.431
543.33
543.229
543.128
543.028
542.928
542.828
542.728
542.629
542.53
542.431
542.333
542.235
542.137
542.039
541.942
541.844
541.748
541.651
541.554
541.458
541.362
541.266
541.17
541.075
540.979
540.884
540.788
540.693
540.598
552.503
552.408
552.314
552.22
552.125
552.03
551.936
551.841
551.746
551.651
551.556
551.461
551.366
551.271
551.175
551.08
550.984
550.888
550.792
550.696
550.6
550.503
550.407
550.31
550.213
550.116
550.02
549.922
549.825
549.728
549.63
549.533
549.435
549.337
549.239
549.14
549.042
548.943
548.844
548.745
548.645
548.545
548.445
548.344
548.243
548.142
548.04
547.938
547.836
547.733
547.63
547.526
547.422
547.318
547.213
547.108
547.003
546.898
546.792
546.686
546.579
546.473
546.366
546.26
546.153
546.046
545.939
545.832
545.725
545.618
545.511
545.404
545.297
545.191
545.084
544.978
544.871
544.765
544.659
544.553
544.45
544.348
544.245
544.143
544.04
543.938
543.836
543.735
543.633
543.532
543.43
543.329
543.229
543.128
543.028
542.928
542.828
542.729
542.629
542.53
542.431
542.333
542.235
542.137
542.039
541.942
541.845
541.748
541.651
541.554
541.458
541.362
541.266
541.17
541.075
540.979
540.884
540.788
540.693
540.598
552.503
552.408
552.314
552.219
552.125
552.03
551.936
551.841
551.746
551.651
551.556
551.461
551.366
551.271
551.175
551.08
550.984
550.888
550.792
550.696
550.6
550.504
550.408
550.311
550.215
550.118
550.021
549.924
549.827
549.73
549.633
549.535
549.438
549.34
549.242
549.144
549.045
548.947
548.848
548.749
548.649
548.549
548.449
548.348
548.247
548.146
548.044
547.942
547.839
547.736
547.633
547.529
547.425
547.32
547.215
547.11
547.004
546.899
546.793
546.686
546.58
546.473
546.366
546.259
546.152
546.045
545.938
545.83
545.723
545.616
545.509
545.402
545.296
545.189
545.083
544.976
544.87
544.764
544.658
544.553
544.45
544.347
544.245
544.142
544.04
543.938
543.836
543.734
543.633
543.531
543.43
543.329
543.229
543.128
543.028
542.928
542.828
542.729
542.629
542.53
542.432
542.333
542.235
542.137
542.039
541.942
541.845
541.748
541.651
541.554
541.458
541.362
541.266
541.17
541.075
540.979
540.884
540.788
540.693
540.598
552.503
552.408
552.314
552.219
552.125
552.03
551.936
551.841
551.746
551.651
551.556
551.461
551.366
551.271
551.175
551.08
550.984
550.889
550.793
550.697
550.601
550.505
550.409
550.312
550.216
550.12
550.023
549.926
549.829
549.732
549.635
549.538
549.441
549.343
549.245
549.147
549.049
548.95
548.852
548.753
548.653
548.553
548.453
548.352
548.251
548.15
548.048
547.946
547.843
547.739
547.636
547.531
547.427
547.322
547.217
547.111
547.005
546.899
546.793
546.686
546.579
546.472
546.365
546.258
546.15
546.043
545.936
545.828
545.721
545.614
545.507
545.4
545.294
545.187
545.081
544.975
544.869
544.763
544.658
544.552
544.449
544.347
544.244
544.142
544.04
543.938
543.836
543.734
543.632
543.531
543.43
543.329
543.228
543.128
543.028
542.928
542.828
542.729
542.629
542.53
542.432
542.333
542.235
542.137
542.039
541.942
541.845
541.748
541.651
541.554
541.458
541.362
541.266
541.17
541.075
540.979
540.884
540.788
540.693
540.598
552.503
552.408
552.314
552.219
552.125
552.03
551.936
551.841
551.746
551.651
551.556
551.461
551.366
551.271
551.175
551.08
550.985
550.889
550.793
550.698
550.602
550.506
550.41
550.314
550.218
550.121
550.025
549.928
549.832
549.735
549.638
549.541
549.443
549.346
549.248
549.151
549.053
548.954
548.856
548.757
548.657
548.557
548.457
548.356
548.255
548.153
548.051
547.949
547.845
547.742
547.638
547.533
547.428
547.323
547.217
547.111
547.005
546.898
546.792
546.685
546.577
546.47
546.363
546.255
546.148
546.04
545.933
545.825
545.718
545.611
545.504
545.397
545.291
545.184
545.078
544.973
544.867
544.762
544.657
544.552
544.449
544.346
544.244
544.141
544.039
543.937
543.835
543.733
543.632
543.531
543.43
543.329
543.228
543.128
543.028
542.928
542.828
542.729
542.629
542.53
542.432
542.333
542.235
542.137
542.039
541.942
541.845
541.748
541.651
541.555
541.458
541.362
541.266
541.17
541.075
540.979
540.884
540.788
540.693
540.598
552.503
552.408
552.314
552.219
552.125
552.03
551.935
551.841
551.746
551.651
551.556
551.461
551.366
551.271
551.176
551.08
550.985
550.889
550.794
550.698
550.602
550.507
550.411
550.315
550.219
550.123
550.027
549.93
549.834
549.737
549.64
549.544
549.446
549.349
549.252
549.154
549.056
548.958
548.86
548.761
548.661
548.561
548.461
548.36
548.259
548.157
548.054
547.951
547.848
547.744
547.639
547.534
547.429
547.323
547.217
547.111
547.004
546.897
546.79
546.682
546.575
546.467
546.36
546.252
546.144
546.037
545.929
545.822
545.714
545.607
545.5
545.394
545.287
545.181
545.075
544.97
544.865
544.76
544.656
544.551
544.448
544.346
544.243
544.141
544.038
543.936
543.835
543.733
543.632
543.53
543.429
543.329
543.228
543.128
543.028
542.928
542.828
542.729
542.629
542.53
542.432
542.333
542.235
542.137
542.039
541.942
541.845
541.748
541.651
541.555
541.458
541.362
541.266
541.17
541.075
540.979
540.884
540.788
540.693
540.598
552.503
552.408
552.314
552.219
552.125
552.03
551.935
551.84
551.746
551.651
551.556
551.461
551.366
551.271
551.176
551.08
550.985
550.89
550.794
550.699
550.603
550.508
550.412
550.316
550.221
550.125
550.029
549.932
549.836
549.74
549.643
549.546
549.449
549.352
549.255
549.158
549.06
548.962
548.863
548.764
548.665
548.565
548.464
548.363
548.262
548.159
548.057
547.953
547.849
547.745
547.64
547.534
547.429
547.322
547.216
547.109
547.002
546.894
546.787
546.679
546.571
546.463
546.356
546.248
546.14
546.032
545.924
545.817
545.709
545.602
545.495
545.389
545.283
545.177
545.072
544.967
544.862
544.758
544.654
544.551
544.448
544.345
544.242
544.14
544.038
543.936
543.834
543.732
543.631
543.53
543.429
543.328
543.228
543.127
543.027
542.928
542.828
542.729
542.629
542.53
542.432
542.333
542.235
542.137
542.04
541.942
541.845
541.748
541.651
541.555
541.458
541.362
541.266
541.17
541.075
540.979
540.884
540.788
540.693
540.598
552.503
552.408
552.314
552.219
552.124
552.03
551.935
551.84
551.746
551.651
551.556
551.461
551.366
551.271
551.176
551.081
550.985
550.89
550.795
550.7
550.604
550.509
550.413
550.318
550.222
550.126
550.03
549.934
549.838
549.742
549.645
549.549
549.452
549.355
549.258
549.161
549.064
548.966
548.867
548.768
548.669
548.568
548.468
548.366
548.264
548.161
548.058
547.954
547.85
547.745
547.639
547.534
547.427
547.32
547.213
547.106
546.998
546.891
546.783
546.675
546.567
546.458
546.35
546.242
546.134
546.026
545.918
545.811
545.703
545.596
545.49
545.383
545.278
545.172
545.067
544.963
544.859
544.756
544.653
544.55
544.447
544.344
544.241
544.139
544.037
543.935
543.833
543.732
543.63
543.529
543.428
543.328
543.227
543.127
543.027
542.927
542.828
542.729
542.629
542.53
542.432
542.333
542.235
542.137
542.04
541.942
541.845
541.748
541.651
541.555
541.458
541.362
541.266
541.17
541.075
540.979
540.884
540.788
540.693
540.598
552.503
552.408
552.313
552.219
552.124
552.03
551.935
551.84
551.745
551.651
551.556
551.461
551.366
551.271
551.176
551.081
550.986
550.891
550.795
550.7
550.605
550.51
550.415
550.319
550.224
550.128
550.032
549.936
549.84
549.744
549.648
549.551
549.455
549.358
549.261
549.164
549.067
548.969
548.871
548.772
548.672
548.571
548.47
548.368
548.266
548.163
548.059
547.955
547.85
547.744
547.638
547.532
547.425
547.318
547.21
547.102
546.994
546.886
546.777
546.669
546.561
546.452
546.344
546.235
546.127
546.019
545.911
545.803
545.696
545.589
545.483
545.377
545.271
545.166
545.062
544.958
544.855
544.753
544.651
544.549
544.446
544.343
544.24
544.137
544.035
543.934
543.832
543.731
543.63
543.529
543.428
543.327
543.227
543.127
543.027
542.927
542.828
542.728
542.629
542.53
542.432
542.333
542.235
542.137
542.04
541.942
541.845
541.748
541.651
541.555
541.458
541.362
541.266
541.17
541.075
540.979
540.884
540.788
540.693
540.598
552.503
552.408
552.313
552.219
552.124
552.029
551.935
551.84
551.745
551.65
551.555
551.461
551.366
551.271
551.176
551.081
550.986
550.891
550.796
550.701
550.606
550.511
550.416
550.321
550.225
550.129
550.034
549.938
549.842
549.745
549.649
549.553
549.457
549.361
549.264
549.167
549.07
548.972
548.874
548.774
548.674
548.574
548.472
548.37
548.267
548.163
548.059
547.954
547.848
547.742
547.636
547.529
547.421
547.313
547.205
547.097
546.988
546.88
546.771
546.662
546.554
546.445
546.336
546.227
546.119
546.011
545.903
545.795
545.688
545.581
545.475
545.369
545.264
545.16
545.056
544.953
544.851
544.749
544.648
544.548
544.444
544.341
544.238
544.136
544.034
543.932
543.831
543.73
543.629
543.528
543.427
543.327
543.227
543.127
543.027
542.927
542.828
542.728
542.629
542.53
542.432
542.333
542.235
542.137
542.04
541.942
541.845
541.748
541.651
541.555
541.458
541.362
541.266
541.171
541.075
540.979
540.884
540.788
540.693
540.598
552.503
552.408
552.313
552.218
552.124
552.029
551.934
551.84
551.745
551.65
551.555
551.46
551.366
551.271
551.176
551.081
550.986
550.891
550.797
550.702
550.607
550.512
550.417
550.322
550.226
550.131
550.035
549.939
549.843
549.747
549.651
549.555
549.459
549.363
549.267
549.17
549.073
548.975
548.876
548.777
548.676
548.575
548.473
548.37
548.266
548.162
548.057
547.952
547.846
547.739
547.632
547.525
547.417
547.308
547.2
547.091
546.982
546.873
546.764
546.655
546.546
546.437
546.328
546.219
546.11
546.001
545.893
545.785
545.678
545.571
545.465
545.36
545.256
545.152
545.049
544.947
544.846
544.745
544.645
544.546
544.443
544.339
544.237
544.134
544.032
543.931
543.83
543.729
543.628
543.527
543.427
543.326
543.226
543.126
543.027
542.927
542.828
542.728
542.629
542.531
542.432
542.334
542.235
542.137
542.04
541.942
541.845
541.748
541.651
541.555
541.459
541.362
541.266
541.171
541.075
540.979
540.884
540.788
540.693
540.598
552.503
552.408
552.313
552.218
552.124
552.029
551.934
551.839
551.745
551.65
551.555
551.46
551.365
551.271
551.176
551.081
550.986
550.892
550.797
550.702
550.608
550.513
550.418
550.323
550.227
550.131
550.035
549.939
549.843
549.747
549.651
549.556
549.46
549.365
549.269
549.172
549.075
548.977
548.878
548.777
548.676
548.575
548.472
548.368
548.264
548.16
548.054
547.948
547.842
547.735
547.628
547.52
547.411
547.303
547.194
547.084
546.975
546.865
546.756
546.647
546.537
546.428
546.319
546.209
546.1
545.991
545.883
545.775
545.667
545.561
545.455
545.35
545.246
545.143
545.041
544.94
544.84
544.74
544.642
544.545
544.441
544.337
544.235
544.132
544.031
543.929
543.828
543.727
543.627
543.526
543.426
543.326
543.226
543.126
543.026
542.927
542.828
542.728
542.629
542.531
542.432
542.334
542.235
542.138
542.04
541.942
541.845
541.748
541.651
541.555
541.459
541.362
541.266
541.171
541.075
540.979
540.884
540.788
540.693
540.598
552.503
552.408
552.313
552.218
552.123
552.028
551.934
551.839
551.744
551.649
551.555
551.46
551.365
551.27
551.176
551.081
550.987
550.892
550.797
550.703
550.608
550.514
550.419
550.323
550.228
550.132
550.035
549.939
549.843
549.747
549.651
549.556
549.461
549.366
549.27
549.174
549.076
548.977
548.878
548.777
548.675
548.572
548.469
548.365
548.26
548.155
548.05
547.944
547.837
547.73
547.622
547.514
547.405
547.296
547.187
547.077
546.968
546.858
546.748
546.639
546.529
546.419
546.309
546.2
546.09
545.981
545.872
545.763
545.656
545.549
545.444
545.339
545.236
545.133
545.032
544.932
544.833
544.735
544.638
544.543
544.438
544.335
544.232
544.13
544.028
543.927
543.827
543.726
543.626
543.525
543.425
543.325
543.226
543.126
543.026
542.927
542.827
542.728
542.629
542.531
542.432
542.334
542.236
542.138
542.04
541.942
541.845
541.748
541.652
541.555
541.459
541.362
541.266
541.171
541.075
540.979
540.884
540.788
540.693
540.598
552.503
552.408
552.313
552.218
552.123
552.028
551.933
551.839
551.744
551.649
551.554
551.46
551.365
551.27
551.176
551.081
550.987
550.892
550.798
550.703
550.609
550.514
550.419
550.324
550.228
550.131
550.035
549.938
549.842
549.746
549.651
549.556
549.462
549.367
549.271
549.174
549.076
548.976
548.875
548.774
548.671
548.567
548.463
548.359
548.254
548.149
548.043
547.938
547.831
547.724
547.616
547.508
547.399
547.29
547.18
547.071
546.961
546.851
546.741
546.631
546.521
546.411
546.301
546.191
546.08
545.97
545.86
545.752
545.644
545.537
545.432
545.328
545.225
545.123
545.022
544.922
544.825
544.728
544.633
544.54
544.435
544.332
544.229
544.127
544.026
543.925
543.825
543.725
543.625
543.525
543.425
543.325
543.225
543.126
543.026
542.927
542.827
542.728
542.629
542.531
542.432
542.334
542.236
542.138
542.04
541.943
541.845
541.748
541.652
541.555
541.459
541.363
541.266
541.171
541.075
540.979
540.884
540.788
540.693
540.598
552.502
552.407
552.312
552.217
552.123
552.028
551.933
551.838
551.743
551.649
551.554
551.459
551.365
551.27
551.176
551.081
550.987
550.892
550.798
550.704
550.609
550.514
550.419
550.324
550.227
550.13
550.033
549.936
549.84
549.744
549.65
549.556
549.462
549.367
549.271
549.173
549.074
548.973
548.871
548.768
548.664
548.559
548.454
548.35
548.245
548.141
548.036
547.93
547.824
547.718
547.61
547.502
547.393
547.284
547.175
547.065
546.955
546.845
546.735
546.625
546.515
546.405
546.294
546.182
546.071
545.96
545.85
545.74
545.632
545.525
545.42
545.316
545.214
545.112
545.012
544.913
544.815
544.72
544.627
544.537
544.432
544.328
544.226
544.125
544.024
543.923
543.823
543.723
543.624
543.524
543.424
543.324
543.225
543.125
543.026
542.927
542.827
542.728
542.629
542.531
542.432
542.334
542.236
542.138
542.04
541.943
541.845
541.748
541.652
541.555
541.459
541.363
541.267
541.171
541.075
540.979
540.884
540.788
540.693
540.598
552.502
552.407
552.312
552.217
552.122
552.027
551.933
551.838
551.743
551.648
551.554
551.459
551.364
551.27
551.175
551.081
550.987
550.892
550.798
550.704
550.609
550.515
550.419
550.323
550.226
550.128
550.031
549.933
549.837
549.743
549.65
549.557
549.463
549.367
549.27
549.17
549.069
548.967
548.863
548.759
548.653
548.548
548.443
548.339
548.235
548.132
548.027
547.923
547.817
547.711
547.604
547.497
547.388
547.28
547.17
547.06
546.951
546.841
546.731
546.621
546.51
546.399
546.288
546.176
546.064
545.952
545.841
545.731
545.622
545.515
545.41
545.307
545.204
545.102
545.001
544.902
544.805
544.71
544.619
544.533
544.426
544.323
544.222
544.121
544.021
543.922
543.822
543.722
543.623
543.523
543.424
543.324
543.225
543.125
543.026
542.927
542.827
542.728
542.63
542.531
542.432
542.334
542.236
542.138
542.04
541.943
541.845
541.748
541.652
541.555
541.459
541.363
541.267
541.171
541.075
540.979
540.884
540.788
540.693
540.598
552.502
552.407
552.312
552.217
552.122
552.027
551.932
551.837
551.743
551.648
551.553
551.459
551.364
551.27
551.175
551.081
550.987
550.892
550.798
550.704
550.609
550.515
550.419
550.322
550.225
550.126
550.028
549.93
549.835
549.741
549.65
549.558
549.464
549.367
549.267
549.165
549.062
548.959
548.854
548.748
548.642
548.536
548.431
548.328
548.226
548.124
548.02
547.915
547.809
547.704
547.599
547.493
547.386
547.278
547.168
547.058
546.948
546.838
546.729
546.618
546.507
546.396
546.284
546.171
546.058
545.946
545.834
545.723
545.613
545.506
545.402
545.301
545.199
545.096
544.993
544.891
544.793
544.698
544.608
544.525
544.419
544.317
544.218
544.118
544.019
543.92
543.821
543.721
543.622
543.523
543.423
543.324
543.224
543.125
543.026
542.927
542.828
542.729
542.63
542.531
542.432
542.334
542.236
542.138
542.04
541.943
541.845
541.748
541.652
541.555
541.459
541.363
541.267
541.171
541.075
540.979
540.884
540.788
540.693
540.598
552.502
552.407
552.311
552.216
552.121
552.026
551.932
551.837
551.742
551.648
551.553
551.458
551.364
551.269
551.175
551.081
550.986
550.892
550.798
550.704
550.609
550.514
550.419
550.321
550.223
550.124
550.025
549.927
549.832
549.741
549.654
549.56
549.464
549.363
549.262
549.158
549.054
548.951
548.847
548.738
548.631
548.526
548.425
548.322
548.222
548.12
548.015
547.909
547.803
547.699
547.596
547.493
547.387
547.279
547.168
547.058
546.948
546.838
546.729
546.618
546.505
546.393
546.281
546.169
546.055
545.943
545.83
545.718
545.608
545.501
545.4
545.303
545.203
545.097
544.988
544.88
544.779
544.683
544.592
544.502
544.407
544.311
544.214
544.116
544.017
543.919
543.82
543.721
543.621
543.522
543.423
543.324
543.224
543.125
543.026
542.927
542.828
542.729
542.63
542.531
542.433
542.334
542.236
542.138
542.04
541.943
541.846
541.749
541.652
541.555
541.459