/*--------------------------------*- C++ -*----------------------------------*\
  =========                 |
  \\      /  F ield         | OpenFOAM: The Open Source CFD Toolbox
   \\    /   O peration     | Website:  https://openfoam.org
    \\  /    A nd           | Version:  6
     \\/     M anipulation  |
\*---------------------------------------------------------------------------*/
FoamFile
{
    version     2.0;
    format      ascii;
    class       volVectorField;
    location    "9000";
    object      U;
}
// * * * * * * * * * * * * * * * * * * * * * * * * * * * * * * * * * * * * * //

dimensions      [0 1 -1 0 0 0 0];

internalField   nonuniform List<vector> 
4800
(
(6.33709e-08 0 -5.98607e-08)
(1.84124e-07 0 -6.13781e-08)
(3.02865e-07 0 -6.11544e-08)
(4.18683e-07 0 -5.87742e-08)
(5.27926e-07 0 -5.53827e-08)
(6.29755e-07 0 -5.14202e-08)
(7.23593e-07 0 -4.70526e-08)
(8.08937e-07 0 -4.24637e-08)
(8.85558e-07 0 -3.78028e-08)
(9.53456e-07 0 -3.31891e-08)
(1.01277e-06 0 -2.8668e-08)
(1.06375e-06 0 -2.43038e-08)
(1.10669e-06 0 -2.018e-08)
(1.14199e-06 0 -1.62488e-08)
(1.17e-06 0 -1.25421e-08)
(1.19109e-06 0 -9.01914e-09)
(1.20544e-06 0 -5.46981e-09)
(1.21345e-06 0 -2.64867e-09)
(1.21588e-06 0 1.31e-10)
(1.21325e-06 0 2.59213e-09)
(1.20577e-06 0 5.4353e-09)
(1.19351e-06 0 7.06184e-09)
(1.1775e-06 0 8.82438e-09)
(1.15852e-06 0 1.04274e-08)
(1.13659e-06 0 1.16926e-08)
(1.11207e-06 0 1.28948e-08)
(1.08548e-06 0 1.37568e-08)
(1.05747e-06 0 1.43089e-08)
(1.02841e-06 0 1.4787e-08)
(9.98514e-07 0 1.51045e-08)
(9.6814e-07 0 1.52355e-08)
(9.37612e-07 0 1.52343e-08)
(9.07162e-07 0 1.51373e-08)
(8.76986e-07 0 1.49276e-08)
(8.47276e-07 0 1.46328e-08)
(8.18141e-07 0 1.43279e-08)
(7.89651e-07 0 1.39696e-08)
(7.61854e-07 0 1.36212e-08)
(7.34784e-07 0 1.32331e-08)
(7.08466e-07 0 1.28516e-08)
(6.82881e-07 0 1.24761e-08)
(6.58003e-07 0 1.21065e-08)
(6.33808e-07 0 1.17784e-08)
(6.10272e-07 0 1.14235e-08)
(5.87359e-07 0 1.11514e-08)
(5.65029e-07 0 1.08421e-08)
(5.43176e-07 0 1.06315e-08)
(5.21763e-07 0 1.03353e-08)
(5.00827e-07 0 1.01064e-08)
(4.80347e-07 0 9.87396e-09)
(4.60279e-07 0 9.64772e-09)
(4.40602e-07 0 9.45715e-09)
(4.21271e-07 0 9.25625e-09)
(4.02276e-07 0 9.04756e-09)
(3.83628e-07 0 8.8626e-09)
(3.6531e-07 0 8.65266e-09)
(3.47337e-07 0 8.4633e-09)
(3.29706e-07 0 8.24877e-09)
(3.12399e-07 0 8.07277e-09)
(2.95398e-07 0 7.8686e-09)
(2.78713e-07 0 7.65255e-09)
(2.62379e-07 0 7.44339e-09)
(2.46384e-07 0 7.24378e-09)
(2.30709e-07 0 7.03876e-09)
(2.15354e-07 0 6.82951e-09)
(2.00329e-07 0 6.61409e-09)
(1.85637e-07 0 6.40224e-09)
(1.71273e-07 0 6.18504e-09)
(1.57214e-07 0 5.9899e-09)
(1.43488e-07 0 5.76136e-09)
(1.30154e-07 0 5.53007e-09)
(1.17248e-07 0 5.29662e-09)
(1.04894e-07 0 5.01341e-09)
(9.34237e-08 0 4.59862e-09)
(8.37892e-08 0 4.02945e-09)
(7.82592e-08 0 2.68052e-09)
(7.96625e-08 0 -1.15098e-08)
(6.92036e-08 0 3.40492e-09)
(4.83134e-11 0 2.48778e-08)
(6.03828e-16 0 -1.48934e-16)
(1.9592e-16 0 -5.06648e-19)
(3.88672e-16 0 3.61892e-19)
(3.86159e-16 0 8.6854e-19)
(3.8193e-16 0 1.38553e-18)
(3.77598e-16 0 1.93353e-18)
(3.72965e-16 0 2.49188e-18)
(3.67806e-16 0 3.02955e-18)
(3.61995e-16 0 3.54654e-18)
(3.5546e-16 0 4.01183e-18)
(3.48191e-16 0 4.45644e-18)
(3.4023e-16 0 4.84935e-18)
(3.31586e-16 0 5.2009e-18)
(3.22311e-16 0 5.49041e-18)
(3.12468e-16 0 5.73857e-18)
(3.02128e-16 0 5.96604e-18)
(2.91364e-16 0 6.14182e-18)
(2.80218e-16 0 6.28657e-18)
(2.68761e-16 0 6.37963e-18)
(2.57026e-16 0 6.45201e-18)
(2.45083e-16 0 6.49337e-18)
(2.32996e-16 0 6.51405e-18)
(2.20775e-16 0 6.50371e-18)
(2.0846e-16 0 6.48303e-18)
(1.96094e-16 0 6.43133e-18)
(1.83727e-16 0 6.38997e-18)
(1.71381e-16 0 6.30725e-18)
(1.59057e-16 0 6.19352e-18)
(1.46752e-16 0 6.10046e-18)
(1.3451e-16 0 6.01774e-18)
(1.2234e-16 0 5.904e-18)
(1.10243e-16 0 5.8006e-18)
(9.8238e-17 0 5.68687e-18)
(8.63163e-17 0 5.56279e-18)
(7.44876e-17 0 5.46973e-18)
(6.27417e-17 0 5.36633e-18)
(5.10784e-17 0 5.27328e-18)
(3.94875e-17 0 5.21124e-18)
(2.79794e-17 0 5.11818e-18)
(1.65953e-17 0 5.01478e-18)
(5.46973e-18 0 4.78731e-18)
(6.06337e-08 0 -1.86414e-07)
(1.90479e-07 0 -1.80333e-07)
(3.07315e-07 0 -1.74869e-07)
(4.24599e-07 0 -1.6634e-07)
(5.34966e-07 0 -1.55981e-07)
(6.37492e-07 0 -1.4441e-07)
(7.31757e-07 0 -1.31998e-07)
(8.17302e-07 0 -1.19149e-07)
(8.93937e-07 0 -1.0621e-07)
(9.61698e-07 0 -9.34223e-08)
(1.02077e-06 0 -8.09711e-08)
(1.07146e-06 0 -6.89364e-08)
(1.1141e-06 0 -5.75093e-08)
(1.14908e-06 0 -4.64462e-08)
(1.17675e-06 0 -3.59763e-08)
(1.19748e-06 0 -2.57883e-08)
(1.21139e-06 0 -1.54233e-08)
(1.21898e-06 0 -7.3197e-09)
(1.22109e-06 0 8.16225e-10)
(1.21802e-06 0 8.11773e-09)
(1.21001e-06 0 1.65049e-08)
(1.19732e-06 0 2.13954e-08)
(1.18091e-06 0 2.66156e-08)
(1.16144e-06 0 3.14574e-08)
(1.13901e-06 0 3.52204e-08)
(1.11405e-06 0 3.88816e-08)
(1.08704e-06 0 4.14965e-08)
(1.05863e-06 0 4.32016e-08)
(1.0292e-06 0 4.46856e-08)
(9.98975e-07 0 4.56758e-08)
(9.68322e-07 0 4.61057e-08)
(9.37559e-07 0 4.61305e-08)
(9.06907e-07 0 4.58687e-08)
(8.76573e-07 0 4.5245e-08)
(8.46739e-07 0 4.44285e-08)
(8.17508e-07 0 4.35137e-08)
(7.88954e-07 0 4.2469e-08)
(7.61134e-07 0 4.14088e-08)
(7.34059e-07 0 4.0276e-08)
(7.07738e-07 0 3.9143e-08)
(6.82165e-07 0 3.81138e-08)
(6.57314e-07 0 3.70277e-08)
(6.33169e-07 0 3.60318e-08)
(6.09686e-07 0 3.50361e-08)
(5.86792e-07 0 3.42318e-08)
(5.64495e-07 0 3.33858e-08)
(5.42703e-07 0 3.28004e-08)
(5.21344e-07 0 3.19882e-08)
(5.00433e-07 0 3.13033e-08)
(4.79986e-07 0 3.06719e-08)
(4.59951e-07 0 3.00486e-08)
(4.40291e-07 0 2.95715e-08)
(4.20969e-07 0 2.90865e-08)
(4.01986e-07 0 2.85376e-08)
(3.83341e-07 0 2.80881e-08)
(3.65032e-07 0 2.7552e-08)
(3.47054e-07 0 2.70957e-08)
(3.29419e-07 0 2.65941e-08)
(3.12106e-07 0 2.62205e-08)
(2.95108e-07 0 2.57406e-08)
(2.78424e-07 0 2.52462e-08)
(2.62097e-07 0 2.47431e-08)
(2.46119e-07 0 2.42877e-08)
(2.30459e-07 0 2.38344e-08)
(2.15107e-07 0 2.33874e-08)
(2.00092e-07 0 2.29054e-08)
(1.85394e-07 0 2.24915e-08)
(1.70998e-07 0 2.20573e-08)
(1.56929e-07 0 2.16306e-08)
(1.43207e-07 0 2.11149e-08)
(1.29815e-07 0 2.06083e-08)
(1.16777e-07 0 2.00257e-08)
(1.04111e-07 0 1.92917e-08)
(9.18022e-08 0 1.82773e-08)
(7.95599e-08 0 1.6086e-08)
(6.7929e-08 0 1.06879e-08)
(4.2519e-08 0 -4.91385e-09)
(2.84976e-08 0 5.5661e-08)
(3.73918e-11 0 5.71284e-08)
(5.58782e-16 0 -4.28247e-16)
(1.96832e-16 0 -1.5096e-18)
(3.90067e-16 0 7.34123e-19)
(3.87172e-16 0 2.55392e-18)
(3.82985e-16 0 4.36338e-18)
(3.78704e-16 0 6.19352e-18)
(3.74061e-16 0 7.95127e-18)
(3.6885e-16 0 9.63666e-18)
(3.62967e-16 0 1.12083e-17)
(3.5637e-16 0 1.26662e-17)
(3.4905e-16 0 1.3969e-17)
(3.40985e-16 0 1.51477e-17)
(3.32227e-16 0 1.61817e-17)
(3.22869e-16 0 1.70296e-17)
(3.12953e-16 0 1.77534e-17)
(3.02531e-16 0 1.83944e-17)
(2.91685e-16 0 1.88701e-17)
(2.80456e-16 0 1.92526e-17)
(2.68927e-16 0 1.95215e-17)
(2.5715e-16 0 1.96972e-17)
(2.45156e-16 0 1.978e-17)
(2.33017e-16 0 1.97593e-17)
(2.20744e-16 0 1.96766e-17)
(2.08387e-16 0 1.95628e-17)
(1.96011e-16 0 1.93664e-17)
(1.83593e-16 0 1.91492e-17)
(1.71175e-16 0 1.88494e-17)
(1.58839e-16 0 1.85392e-17)
(1.46566e-16 0 1.81773e-17)
(1.34324e-16 0 1.78257e-17)
(1.22123e-16 0 1.74432e-17)
(1.10015e-16 0 1.70709e-17)
(9.80002e-17 0 1.66677e-17)
(8.60888e-17 0 1.62955e-17)
(7.42912e-17 0 1.59336e-17)
(6.25659e-17 0 1.5582e-17)
(5.09233e-17 0 1.52925e-17)
(3.93221e-17 0 1.5034e-17)
(2.77829e-17 0 1.47859e-17)
(1.62748e-17 0 1.45274e-17)
(5.2526e-18 0 1.42172e-17)
(6.09024e-08 0 -3.14066e-07)
(1.96896e-07 0 -3.08348e-07)
(3.16377e-07 0 -2.99244e-07)
(4.37096e-07 0 -2.85027e-07)
(5.50014e-07 0 -2.67227e-07)
(6.54197e-07 0 -2.47068e-07)
(7.49456e-07 0 -2.25425e-07)
(8.35427e-07 0 -2.03067e-07)
(9.12026e-07 0 -1.80632e-07)
(9.7944e-07 0 -1.58545e-07)
(1.03797e-06 0 -1.37064e-07)
(1.08798e-06 0 -1.16439e-07)
(1.12988e-06 0 -9.68848e-08)
(1.16407e-06 0 -7.79625e-08)
(1.19094e-06 0 -6.04272e-08)
(1.21084e-06 0 -4.26006e-08)
(1.22374e-06 0 -2.55832e-08)
(1.2304e-06 0 -1.20409e-08)
(1.23175e-06 0 1.79301e-09)
(1.22777e-06 0 1.46007e-08)
(1.21862e-06 0 2.77385e-08)
(1.205e-06 0 3.63919e-08)
(1.18778e-06 0 4.50975e-08)
(1.16732e-06 0 5.31894e-08)
(1.14387e-06 0 5.92347e-08)
(1.11795e-06 0 6.55004e-08)
(1.09007e-06 0 6.9561e-08)
(1.06086e-06 0 7.23699e-08)
(1.03067e-06 0 7.47568e-08)
(9.99773e-07 0 7.62656e-08)
(9.68563e-07 0 7.68912e-08)
(9.37327e-07 0 7.68252e-08)
(9.06255e-07 0 7.63112e-08)
(8.75611e-07 0 7.51538e-08)
(8.45576e-07 0 7.3733e-08)
(8.16193e-07 0 7.2129e-08)
(7.87515e-07 0 7.03432e-08)
(7.5961e-07 0 6.85504e-08)
(7.32517e-07 0 6.66267e-08)
(7.06248e-07 0 6.46451e-08)
(6.80744e-07 0 6.28935e-08)
(6.55965e-07 0 6.10567e-08)
(6.31877e-07 0 5.93955e-08)
(6.08457e-07 0 5.78257e-08)
(5.85646e-07 0 5.63754e-08)
(5.63449e-07 0 5.49278e-08)
(5.41743e-07 0 5.39647e-08)
(5.20455e-07 0 5.26879e-08)
(4.99579e-07 0 5.1521e-08)
(4.79157e-07 0 5.04968e-08)
(4.5916e-07 0 4.94321e-08)
(4.3954e-07 0 4.86057e-08)
(4.2025e-07 0 4.77742e-08)
(4.01267e-07 0 4.68296e-08)
(3.82608e-07 0 4.60592e-08)
(3.64302e-07 0 4.51518e-08)
(3.46331e-07 0 4.43361e-08)
(3.28723e-07 0 4.34338e-08)
(3.11418e-07 0 4.27261e-08)
(2.94422e-07 0 4.18748e-08)
(2.77743e-07 0 4.09947e-08)
(2.6141e-07 0 4.01085e-08)
(2.45405e-07 0 3.93055e-08)
(2.2973e-07 0 3.84985e-08)
(2.14386e-07 0 3.76774e-08)
(1.99369e-07 0 3.68297e-08)
(1.84664e-07 0 3.60453e-08)
(1.70278e-07 0 3.52206e-08)
(1.562e-07 0 3.43969e-08)
(1.42443e-07 0 3.35226e-08)
(1.28992e-07 0 3.26455e-08)
(1.15825e-07 0 3.16877e-08)
(1.02846e-07 0 3.06351e-08)
(8.99319e-08 0 2.92122e-08)
(7.64607e-08 0 2.72309e-08)
(6.25892e-08 0 2.47531e-08)
(3.78095e-08 0 2.16321e-08)
(2.31554e-08 0 6.68289e-08)
(3.54182e-11 0 7.55038e-08)
(5.47592e-16 0 -6.85154e-16)
(1.98208e-16 0 -2.45052e-18)
(3.92756e-16 0 9.40918e-19)
(3.89788e-16 0 4.28066e-18)
(3.85559e-16 0 7.58938e-18)
(3.81196e-16 0 1.0805e-17)
(3.76419e-16 0 1.38656e-17)
(3.71053e-16 0 1.67297e-17)
(3.65014e-16 0 1.93974e-17)
(3.58231e-16 0 2.18582e-17)
(3.50694e-16 0 2.40399e-17)
(3.42432e-16 0 2.59735e-17)
(3.33468e-16 0 2.76692e-17)
(3.23903e-16 0 2.90754e-17)
(3.13822e-16 0 3.02645e-17)
(3.03234e-16 0 3.12571e-17)
(2.92222e-16 0 3.20119e-17)
(2.80869e-16 0 3.25702e-17)
(2.69196e-16 0 3.29735e-17)
(2.57274e-16 0 3.31906e-17)
(2.45156e-16 0 3.32733e-17)
(2.32924e-16 0 3.31906e-17)
(2.20588e-16 0 3.29838e-17)
(2.0815e-16 0 3.27047e-17)
(1.9569e-16 0 3.23324e-17)
(1.8321e-16 0 3.18465e-17)
(1.70771e-16 0 3.13191e-17)
(1.58384e-16 0 3.07401e-17)
(1.46039e-16 0 3.0068e-17)
(1.33786e-16 0 2.93649e-17)
(1.21585e-16 0 2.86825e-17)
(1.09457e-16 0 2.79897e-17)
(9.74522e-17 0 2.72763e-17)
(8.55718e-17 0 2.66249e-17)
(7.37742e-17 0 2.59528e-17)
(6.21006e-17 0 2.53531e-17)
(5.05201e-17 0 2.48051e-17)
(3.89602e-17 0 2.43088e-17)
(2.74624e-17 0 2.39262e-17)
(1.6037e-17 0 2.3585e-17)
(5.16988e-18 0 2.33782e-17)
(6.32865e-08 0 -4.46347e-07)
(2.07254e-07 0 -4.37757e-07)
(3.31238e-07 0 -4.23694e-07)
(4.56667e-07 0 -4.0258e-07)
(5.7317e-07 0 -3.76376e-07)
(6.79645e-07 0 -3.46945e-07)
(7.76144e-07 0 -3.15627e-07)
(8.62514e-07 0 -2.8355e-07)
(9.38892e-07 0 -2.516e-07)
(1.00565e-06 0 -2.20359e-07)
(1.06328e-06 0 -1.90157e-07)
(1.11226e-06 0 -1.61306e-07)
(1.15306e-06 0 -1.33845e-07)
(1.18611e-06 0 -1.07493e-07)
(1.21182e-06 0 -8.30761e-08)
(1.23058e-06 0 -5.7445e-08)
(1.24214e-06 0 -3.45925e-08)
(1.24742e-06 0 -1.5456e-08)
(1.24752e-06 0 3.97986e-09)
(1.24239e-06 0 2.30045e-08)
(1.23153e-06 0 3.9998e-08)
(1.21646e-06 0 5.28543e-08)
(1.19803e-06 0 6.4931e-08)
(1.17611e-06 0 7.63145e-08)
(1.15112e-06 0 8.45144e-08)
(1.12372e-06 0 9.35851e-08)
(1.09458e-06 0 9.88725e-08)
(1.06413e-06 0 1.02789e-07)
(1.03279e-06 0 1.06036e-07)
(1.0009e-06 0 1.0797e-07)
(9.68854e-07 0 1.08662e-07)
(9.36903e-07 0 1.08498e-07)
(9.05221e-07 0 1.07583e-07)
(8.74115e-07 0 1.05771e-07)
(8.43737e-07 0 1.03716e-07)
(8.14113e-07 0 1.01371e-07)
(7.85294e-07 0 9.87624e-08)
(7.57318e-07 0 9.61494e-08)
(7.30214e-07 0 9.33608e-08)
(7.03972e-07 0 9.05958e-08)
(6.78512e-07 0 8.81432e-08)
(6.53841e-07 0 8.55613e-08)
(6.2991e-07 0 8.3147e-08)
(6.06639e-07 0 8.09505e-08)
(5.83933e-07 0 7.8919e-08)
(5.61846e-07 0 7.69077e-08)
(5.40293e-07 0 7.55785e-08)
(5.19165e-07 0 7.38104e-08)
(4.9835e-07 0 7.21513e-08)
(4.77968e-07 0 7.075e-08)
(4.58045e-07 0 6.92155e-08)
(4.38452e-07 0 6.81167e-08)
(4.19184e-07 0 6.70249e-08)
(4.00234e-07 0 6.56929e-08)
(3.81586e-07 0 6.46292e-08)
(3.63316e-07 0 6.33199e-08)
(3.45342e-07 0 6.21863e-08)
(3.27709e-07 0 6.09747e-08)
(3.10374e-07 0 6.00033e-08)
(2.93399e-07 0 5.88083e-08)
(2.76733e-07 0 5.75794e-08)
(2.60393e-07 0 5.63793e-08)
(2.44393e-07 0 5.52166e-08)
(2.28737e-07 0 5.40512e-08)
(2.13411e-07 0 5.28921e-08)
(1.98397e-07 0 5.17505e-08)
(1.83678e-07 0 5.06549e-08)
(1.69273e-07 0 4.95555e-08)
(1.55194e-07 0 4.84149e-08)
(1.41428e-07 0 4.72213e-08)
(1.27922e-07 0 4.60662e-08)
(1.14673e-07 0 4.48316e-08)
(1.01617e-07 0 4.35633e-08)
(8.8604e-08 0 4.22022e-08)
(7.52397e-08 0 4.08192e-08)
(6.25467e-08 0 3.96155e-08)
(4.43182e-08 0 4.11813e-08)
(2.38559e-08 0 8.11166e-08)
(3.45304e-11 0 9.11883e-08)
(5.57314e-16 0 -9.55356e-16)
(2.00232e-16 0 -3.41212e-18)
(3.96809e-16 0 1.40621e-18)
(3.93841e-16 0 6.20386e-18)
(3.89509e-16 0 1.09601e-17)
(3.84991e-16 0 1.552e-17)
(3.80007e-16 0 1.9873e-17)
(3.74403e-16 0 2.39159e-17)
(3.68085e-16 0 2.76899e-17)
(3.61002e-16 0 3.11123e-17)
(3.53175e-16 0 3.41729e-17)
(3.44603e-16 0 3.68509e-17)
(3.35349e-16 0 3.91877e-17)
(3.25485e-16 0 4.11833e-17)
(3.15114e-16 0 4.28273e-17)
(3.04289e-16 0 4.41611e-17)
(2.93018e-16 0 4.51847e-17)
(2.81417e-16 0 4.59189e-17)
(2.69537e-16 0 4.64048e-17)
(2.57429e-16 0 4.6653e-17)
(2.45156e-16 0 4.6715e-17)
(2.32748e-16 0 4.6591e-17)
(2.20268e-16 0 4.62497e-17)
(2.07726e-16 0 4.57845e-17)
(1.95132e-16 0 4.52054e-17)
(1.82579e-16 0 4.44816e-17)
(1.70068e-16 0 4.36855e-17)
(1.57599e-16 0 4.27756e-17)
(1.45212e-16 0 4.18243e-17)
(1.32928e-16 0 4.07903e-17)
(1.20737e-16 0 3.97771e-17)
(1.08609e-16 0 3.87638e-17)
(9.66147e-17 0 3.77401e-17)
(8.47653e-17 0 3.67889e-17)
(7.30194e-17 0 3.58479e-17)
(6.13871e-17 0 3.49794e-17)
(4.9879e-17 0 3.41729e-17)
(3.84329e-17 0 3.34698e-17)
(2.70385e-17 0 3.29115e-17)
(1.57268e-17 0 3.24875e-17)
(5.0458e-18 0 3.22083e-17)
(6.70635e-08 0 -5.86753e-07)
(2.21595e-07 0 -5.7462e-07)
(3.52425e-07 0 -5.5475e-07)
(4.84364e-07 0 -5.25432e-07)
(6.05668e-07 0 -4.89273e-07)
(7.15006e-07 0 -4.49173e-07)
(8.12876e-07 0 -4.07045e-07)
(8.99475e-07 0 -3.64365e-07)
(9.75249e-07 0 -3.22309e-07)
(1.04091e-06 0 -2.81534e-07)
(1.09718e-06 0 -2.42366e-07)
(1.14463e-06 0 -2.05324e-07)
(1.18398e-06 0 -1.69584e-07)
(1.2155e-06 0 -1.36123e-07)
(1.23956e-06 0 -1.04674e-07)
(1.25679e-06 0 -7.01187e-08)
(1.26664e-06 0 -4.24215e-08)
(1.27044e-06 0 -1.68042e-08)
(1.26875e-06 0 6.4067e-09)
(1.26185e-06 0 3.47333e-08)
(1.24893e-06 0 5.23808e-08)
(1.23196e-06 0 7.09299e-08)
(1.21168e-06 0 8.64579e-08)
(1.18767e-06 0 1.01061e-07)
(1.16068e-06 0 1.11623e-07)
(1.13129e-06 0 1.23139e-07)
(1.10041e-06 0 1.29556e-07)
(1.06831e-06 0 1.34633e-07)
(1.03544e-06 0 1.38477e-07)
(1.0022e-06 0 1.40643e-07)
(9.69028e-07 0 1.41254e-07)
(9.36117e-07 0 1.40886e-07)
(9.03661e-07 0 1.3937e-07)
(8.71963e-07 0 1.36747e-07)
(8.41129e-07 0 1.33965e-07)
(8.11206e-07 0 1.30711e-07)
(7.82205e-07 0 1.27243e-07)
(7.54147e-07 0 1.23732e-07)
(7.2707e-07 0 1.20001e-07)
(7.00916e-07 0 1.16408e-07)
(6.75581e-07 0 1.13077e-07)
(6.51064e-07 0 1.09719e-07)
(6.27296e-07 0 1.06645e-07)
(6.04193e-07 0 1.03886e-07)
(5.8166e-07 0 1.01312e-07)
(5.59763e-07 0 9.84868e-08)
(5.38363e-07 0 9.69095e-08)
(5.17455e-07 0 9.48407e-08)
(4.96764e-07 0 9.2638e-08)
(4.76393e-07 0 9.08674e-08)
(4.56545e-07 0 8.89523e-08)
(4.3703e-07 0 8.75169e-08)
(4.17818e-07 0 8.61357e-08)
(3.98928e-07 0 8.44376e-08)
(3.80284e-07 0 8.30866e-08)
(3.6201e-07 0 8.14518e-08)
(3.44022e-07 0 8.0024e-08)
(3.26398e-07 0 7.84691e-08)
(3.0905e-07 0 7.71674e-08)
(2.92073e-07 0 7.56352e-08)
(2.75416e-07 0 7.40765e-08)
(2.59084e-07 0 7.25327e-08)
(2.43088e-07 0 7.10505e-08)
(2.27422e-07 0 6.95912e-08)
(2.12093e-07 0 6.80972e-08)
(1.97077e-07 0 6.66907e-08)
(1.82366e-07 0 6.52628e-08)
(1.6796e-07 0 6.38314e-08)
(1.53885e-07 0 6.23754e-08)
(1.40095e-07 0 6.09164e-08)
(1.2657e-07 0 5.94754e-08)
(1.13337e-07 0 5.79861e-08)
(1.00358e-07 0 5.6529e-08)
(8.76383e-08 0 5.51573e-08)
(7.49594e-08 0 5.42133e-08)
(6.34544e-08 0 5.39144e-08)
(4.78454e-08 0 5.68663e-08)
(2.47253e-08 0 1.03985e-07)
(3.39258e-11 0 1.0932e-07)
(5.60973e-16 0 -1.25016e-15)
(2.03059e-16 0 -4.45644e-18)
(4.02372e-16 0 1.96455e-18)
(3.99332e-16 0 8.31317e-18)
(3.94855e-16 0 1.45274e-17)
(3.90088e-16 0 2.04934e-17)
(3.84825e-16 0 2.61389e-17)
(3.789e-16 0 3.14122e-17)
(3.722e-16 0 3.62926e-17)
(3.64704e-16 0 4.0718e-17)
(3.56453e-16 0 4.46367e-17)
(3.47468e-16 0 4.80695e-17)
(3.37821e-16 0 5.1037e-17)
(3.27543e-16 0 5.35599e-17)
(3.16779e-16 0 5.56279e-17)
(3.05602e-16 0 5.72719e-17)
(2.94001e-16 0 5.85127e-17)
(2.821e-16 0 5.94019e-17)
(2.6995e-16 0 5.99603e-17)
(2.57584e-16 0 6.02188e-17)
(2.45083e-16 0 6.02188e-17)
(2.32458e-16 0 5.99706e-17)
(2.19782e-16 0 5.94846e-17)
(2.07095e-16 0 5.88125e-17)
(1.94377e-16 0 5.7975e-17)
(1.8169e-16 0 5.70031e-17)
(1.69065e-16 0 5.58761e-17)
(1.56523e-16 0 5.46456e-17)
(1.44054e-16 0 5.33635e-17)
(1.31729e-16 0 5.2009e-17)
(1.19538e-16 0 5.06131e-17)
(1.0742e-16 0 4.92379e-17)
(9.54567e-17 0 4.78627e-17)
(8.36693e-17 0 4.65496e-17)
(7.19957e-17 0 4.53192e-17)
(6.04359e-17 0 4.41508e-17)
(4.90311e-17 0 4.31065e-17)
(3.77194e-17 0 4.22069e-17)
(2.64905e-17 0 4.14728e-17)
(1.53339e-17 0 4.09248e-17)
(4.88037e-18 0 4.05525e-17)
(7.23935e-08 0 -7.38292e-07)
(2.41216e-07 0 -7.216e-07)
(3.81519e-07 0 -6.9444e-07)
(5.22001e-07 0 -6.54879e-07)
(6.4933e-07 0 -6.06496e-07)
(7.61933e-07 0 -5.53675e-07)
(8.60972e-07 0 -4.99177e-07)
(9.47294e-07 0 -4.44734e-07)
(1.02178e-06 0 -3.91837e-07)
(1.08561e-06 0 -3.41201e-07)
(1.13985e-06 0 -2.92995e-07)
(1.18525e-06 0 -2.4754e-07)
(1.22271e-06 0 -2.03591e-07)
(1.25226e-06 0 -1.63404e-07)
(1.27437e-06 0 -1.23826e-07)
(1.28933e-06 0 -8.19244e-08)
(1.29716e-06 0 -4.87045e-08)
(1.29962e-06 0 -1.65312e-08)
(1.29573e-06 0 1.26066e-08)
(1.286e-06 0 4.67649e-08)
(1.27083e-06 0 6.80417e-08)
(1.25162e-06 0 9.13699e-08)
(1.22873e-06 0 1.10283e-07)
(1.202e-06 0 1.27851e-07)
(1.17248e-06 0 1.41406e-07)
(1.14057e-06 0 1.5475e-07)
(1.10743e-06 0 1.6228e-07)
(1.07325e-06 0 1.68262e-07)
(1.03844e-06 0 1.7258e-07)
(1.00351e-06 0 1.74611e-07)
(9.68885e-07 0 1.75087e-07)
(9.3479e-07 0 1.7421e-07)
(9.01393e-07 0 1.71907e-07)
(8.6899e-07 0 1.68288e-07)
(8.37622e-07 0 1.64608e-07)
(8.07375e-07 0 1.60251e-07)
(7.78174e-07 0 1.55863e-07)
(7.50053e-07 0 1.51252e-07)
(7.23016e-07 0 1.4652e-07)
(6.96989e-07 0 1.42086e-07)
(6.71829e-07 0 1.37898e-07)
(6.4751e-07 0 1.33753e-07)
(6.24003e-07 0 1.29918e-07)
(6.0116e-07 0 1.26554e-07)
(5.78897e-07 0 1.23358e-07)
(5.57198e-07 0 1.20054e-07)
(5.35992e-07 0 1.17725e-07)
(5.15267e-07 0 1.15826e-07)
(4.9481e-07 0 1.13071e-07)
(4.74465e-07 0 1.10882e-07)
(4.54684e-07 0 1.08618e-07)
(4.3525e-07 0 1.06835e-07)
(4.16084e-07 0 1.05196e-07)
(3.97257e-07 0 1.03175e-07)
(3.78623e-07 0 1.01571e-07)
(3.60371e-07 0 9.95273e-08)
(3.4238e-07 0 9.78002e-08)
(3.24771e-07 0 9.59226e-08)
(3.07401e-07 0 9.43428e-08)
(2.90423e-07 0 9.241e-08)
(2.73739e-07 0 9.05702e-08)
(2.5743e-07 0 8.86164e-08)
(2.41442e-07 0 8.68315e-08)
(2.25817e-07 0 8.5003e-08)
(2.10511e-07 0 8.31699e-08)
(1.95492e-07 0 8.14698e-08)
(1.80779e-07 0 7.97589e-08)
(1.66388e-07 0 7.79882e-08)
(1.52306e-07 0 7.6244e-08)
(1.38498e-07 0 7.45162e-08)
(1.2498e-07 0 7.2774e-08)
(1.11768e-07 0 7.10065e-08)
(9.89218e-08 0 6.92315e-08)
(8.65685e-08 0 6.75376e-08)
(7.43628e-08 0 6.64642e-08)
(6.42365e-08 0 6.52071e-08)
(5.20003e-08 0 6.82963e-08)
(2.62136e-08 0 1.29976e-07)
(3.30781e-11 0 1.26207e-07)
(5.61222e-16 0 -1.52413e-15)
(2.06699e-16 0 -5.42837e-18)
(4.09579e-16 0 2.6263e-18)
(4.06384e-16 0 1.05776e-17)
(4.01669e-16 0 1.83324e-17)
(3.96571e-16 0 2.57667e-17)
(3.90915e-16 0 3.27874e-17)
(3.84567e-16 0 3.93118e-17)
(3.77381e-16 0 4.52985e-17)
(3.69336e-16 0 5.07269e-17)
(3.60537e-16 0 5.55142e-17)
(3.51014e-16 0 5.96707e-17)
(3.40829e-16 0 6.32793e-17)
(3.30055e-16 0 6.62882e-17)
(3.18806e-16 0 6.87387e-17)
(3.07163e-16 0 7.06516e-17)
(2.95148e-16 0 7.20991e-17)
(2.82865e-16 0 7.31021e-17)
(2.70354e-16 0 7.36811e-17)
(2.57677e-16 0 7.39086e-17)
(2.44897e-16 0 7.37845e-17)
(2.32024e-16 0 7.33399e-17)
(2.1912e-16 0 7.26678e-17)
(2.06216e-16 0 7.17269e-17)
(1.93343e-16 0 7.06206e-17)
(1.80501e-16 0 6.93384e-17)
(1.67721e-16 0 6.78805e-17)
(1.55086e-16 0 6.62985e-17)
(1.42565e-16 0 6.46132e-17)
(1.30178e-16 0 6.28864e-17)
(1.17946e-16 0 6.10666e-17)
(1.05858e-16 0 5.92882e-17)
(9.39367e-17 0 5.75511e-17)
(8.22011e-17 0 5.58554e-17)
(7.06206e-17 0 5.42424e-17)
(5.91848e-17 0 5.27948e-17)
(4.79351e-17 0 5.14713e-17)
(3.68095e-17 0 5.03546e-17)
(2.57667e-17 0 4.94447e-17)
(1.47962e-17 0 4.87623e-17)
(4.66323e-18 0 4.8328e-17)
(7.96034e-08 0 -9.04881e-07)
(2.68029e-07 0 -8.81979e-07)
(4.20936e-07 0 -8.45245e-07)
(5.72219e-07 0 -7.92306e-07)
(7.06765e-07 0 -7.28277e-07)
(8.22515e-07 0 -6.59883e-07)
(9.21895e-07 0 -5.91061e-07)
(1.00688e-06 0 -5.23652e-07)
(1.07902e-06 0 -4.59181e-07)
(1.14e-06 0 -3.98406e-07)
(1.19117e-06 0 -3.41499e-07)
(1.23417e-06 0 -2.86736e-07)
(1.26903e-06 0 -2.3636e-07)
(1.29613e-06 0 -1.89044e-07)
(1.31637e-06 0 -1.38184e-07)
(1.32853e-06 0 -9.2959e-08)
(1.33418e-06 0 -5.37545e-08)
(1.33456e-06 0 -1.47708e-08)
(1.32847e-06 0 2.31849e-08)
(1.31529e-06 0 6.01211e-08)
(1.29725e-06 0 8.70795e-08)
(1.27538e-06 0 1.1464e-07)
(1.24928e-06 0 1.37273e-07)
(1.21916e-06 0 1.57214e-07)
(1.18639e-06 0 1.74286e-07)
(1.15135e-06 0 1.88828e-07)
(1.11538e-06 0 1.97467e-07)
(1.07872e-06 0 2.04091e-07)
(1.04154e-06 0 2.08776e-07)
(1.00456e-06 0 2.10433e-07)
(9.68187e-07 0 2.10312e-07)
(9.32658e-07 0 2.08721e-07)
(8.98201e-07 0 2.05253e-07)
(8.65018e-07 0 2.00494e-07)
(8.33066e-07 0 1.95671e-07)
(8.02442e-07 0 1.90105e-07)
(7.73043e-07 0 1.84568e-07)
(7.44903e-07 0 1.78786e-07)
(7.17964e-07 0 1.7293e-07)
(6.92095e-07 0 1.67607e-07)
(6.67219e-07 0 1.62434e-07)
(6.43223e-07 0 1.57464e-07)
(6.20051e-07 0 1.52845e-07)
(5.9747e-07 0 1.49057e-07)
(5.75577e-07 0 1.45026e-07)
(5.54063e-07 0 1.41741e-07)
(5.33199e-07 0 1.38116e-07)
(5.12624e-07 0 1.36551e-07)
(4.92536e-07 0 1.33427e-07)
(4.72341e-07 0 1.30699e-07)
(4.52565e-07 0 1.28204e-07)
(4.33214e-07 0 1.26022e-07)
(4.14098e-07 0 1.24184e-07)
(3.95337e-07 0 1.21838e-07)
(3.76663e-07 0 1.20013e-07)
(3.58396e-07 0 1.1763e-07)
(3.40387e-07 0 1.15578e-07)
(3.22783e-07 0 1.13392e-07)
(3.05419e-07 0 1.11489e-07)
(2.88441e-07 0 1.09223e-07)
(2.71735e-07 0 1.07021e-07)
(2.55418e-07 0 1.04736e-07)
(2.39445e-07 0 1.02584e-07)
(2.23814e-07 0 1.00455e-07)
(2.0856e-07 0 9.82463e-08)
(1.93532e-07 0 9.63507e-08)
(1.78885e-07 0 9.42268e-08)
(1.64523e-07 0 9.21368e-08)
(1.50439e-07 0 9.01451e-08)
(1.36619e-07 0 8.81463e-08)
(1.23076e-07 0 8.61215e-08)
(1.0984e-07 0 8.40587e-08)
(9.70056e-08 0 8.18777e-08)
(8.49061e-08 0 7.9571e-08)
(7.30984e-08 0 7.76699e-08)
(6.40499e-08 0 7.38054e-08)
(4.57055e-08 0 8.86722e-08)
(2.24327e-08 0 1.6831e-07)
(3.17438e-11 0 1.36703e-07)
(5.64065e-16 0 -1.77486e-15)
(2.11171e-16 0 -6.32793e-18)
(4.18398e-16 0 3.4328e-18)
(4.15048e-16 0 1.30695e-17)
(4.10044e-16 0 2.24683e-17)
(4.04553e-16 0 3.14742e-17)
(3.9837e-16 0 3.99425e-17)
(3.91412e-16 0 4.77593e-17)
(3.83605e-16 0 5.48731e-17)
(3.74899e-16 0 6.12734e-17)
(3.65397e-16 0 6.69086e-17)
(3.55222e-16 0 7.17993e-17)
(3.44417e-16 0 7.59972e-17)
(3.33023e-16 0 7.94714e-17)
(3.21163e-16 0 8.22528e-17)
(3.08952e-16 0 8.44034e-17)
(2.96441e-16 0 8.59854e-17)
(2.83682e-16 0 8.70401e-17)
(2.70747e-16 0 8.75984e-17)
(2.57677e-16 0 8.77018e-17)
(2.44515e-16 0 8.74123e-17)
(2.31331e-16 0 8.67713e-17)
(2.18159e-16 0 8.58303e-17)
(2.05037e-16 0 8.45792e-17)
(1.91978e-16 0 8.31213e-17)
(1.7894e-16 0 8.14566e-17)
(1.66026e-16 0 7.96058e-17)
(1.53256e-16 0 7.76206e-17)
(1.40641e-16 0 7.55009e-17)
(1.28192e-16 0 7.33089e-17)
(1.15929e-16 0 7.10445e-17)
(1.03894e-16 0 6.88318e-17)
(9.20445e-17 0 6.66914e-17)
(8.03813e-17 0 6.46338e-17)
(6.89145e-17 0 6.26279e-17)
(5.76545e-17 0 6.08495e-17)
(4.6591e-17 0 5.92365e-17)
(3.56928e-17 0 5.78716e-17)
(2.48981e-17 0 5.67549e-17)
(1.42068e-17 0 5.59484e-17)
(4.4461e-18 0 5.54625e-17)
(8.93367e-08 0 -1.09186e-06)
(3.04047e-07 0 -1.06168e-06)
(4.74852e-07 0 -1.01045e-06)
(6.38668e-07 0 -9.38845e-07)
(7.81363e-07 0 -8.54606e-07)
(8.99522e-07 0 -7.66976e-07)
(9.9747e-07 0 -6.81309e-07)
(1.07925e-06 0 -5.99463e-07)
(1.14728e-06 0 -5.22879e-07)
(1.20376e-06 0 -4.52518e-07)
(1.25132e-06 0 -3.85851e-07)
(1.29087e-06 0 -3.2384e-07)
(1.32273e-06 0 -2.66793e-07)
(1.34727e-06 0 -2.10874e-07)
(1.36503e-06 0 -1.51006e-07)
(1.37444e-06 0 -1.02439e-07)
(1.37843e-06 0 -5.3389e-08)
(1.37559e-06 0 -1.32419e-08)
(1.36675e-06 0 4.0896e-08)
(1.34997e-06 0 7.19407e-08)
(1.32867e-06 0 1.10739e-07)
(1.30335e-06 0 1.40426e-07)
(1.27295e-06 0 1.68509e-07)
(1.23904e-06 0 1.89406e-07)
(1.20218e-06 0 2.12159e-07)
(1.16368e-06 0 2.25493e-07)
(1.12417e-06 0 2.35505e-07)
(1.08441e-06 0 2.42762e-07)
(1.04441e-06 0 2.47241e-07)
(1.00502e-06 0 2.48325e-07)
(9.66662e-07 0 2.47214e-07)
(9.29437e-07 0 2.44544e-07)
(8.93763e-07 0 2.39605e-07)
(8.59728e-07 0 2.33468e-07)
(8.27179e-07 0 2.27195e-07)
(7.96211e-07 0 2.20218e-07)
(7.66654e-07 0 2.13359e-07)
(7.38576e-07 0 2.06233e-07)
(7.11862e-07 0 1.99146e-07)
(6.86247e-07 0 1.92815e-07)
(6.61727e-07 0 1.86601e-07)
(6.38137e-07 0 1.80875e-07)
(6.15402e-07 0 1.75442e-07)
(5.93164e-07 0 1.71182e-07)
(5.71742e-07 0 1.6631e-07)
(5.50534e-07 0 1.63111e-07)
(5.30127e-07 0 1.58168e-07)
(5.09528e-07 0 1.57053e-07)
(4.89883e-07 0 1.53745e-07)
(4.70024e-07 0 1.50326e-07)
(4.5012e-07 0 1.47842e-07)
(4.30843e-07 0 1.45161e-07)
(4.11784e-07 0 1.4317e-07)
(3.93098e-07 0 1.40553e-07)
(3.744e-07 0 1.38487e-07)
(3.56136e-07 0 1.35767e-07)
(3.3809e-07 0 1.33345e-07)
(3.20437e-07 0 1.30882e-07)
(3.03062e-07 0 1.28631e-07)
(2.86083e-07 0 1.2613e-07)
(2.69429e-07 0 1.23425e-07)
(2.53082e-07 0 1.20807e-07)
(2.37136e-07 0 1.18329e-07)
(2.2158e-07 0 1.15792e-07)
(2.06293e-07 0 1.13375e-07)
(1.91303e-07 0 1.11098e-07)
(1.76697e-07 0 1.08641e-07)
(1.62356e-07 0 1.06301e-07)
(1.48291e-07 0 1.04055e-07)
(1.34457e-07 0 1.01818e-07)
(1.20848e-07 0 9.95316e-08)
(1.07489e-07 0 9.71866e-08)
(9.44547e-08 0 9.46527e-08)
(8.19754e-08 0 9.18097e-08)
(7.09426e-08 0 8.82056e-08)
(6.10644e-08 0 8.2239e-08)
(4.07539e-08 0 1.11067e-07)
(1.80211e-08 0 1.9031e-07)
(3.08834e-11 0 1.42696e-07)
(5.70374e-16 0 -2.02128e-15)
(2.16575e-16 0 -7.28953e-18)
(4.28986e-16 0 4.41508e-18)
(4.25419e-16 0 1.59129e-17)
(4.20073e-16 0 2.70902e-17)
(4.14056e-16 0 3.77298e-17)
(4.07221e-16 0 4.76973e-17)
(3.99508e-16 0 5.68894e-17)
(3.90895e-16 0 6.51715e-17)
(3.81382e-16 0 7.25541e-17)
(3.71063e-16 0 7.90475e-17)
(3.60082e-16 0 8.46309e-17)
(3.48491e-16 0 8.93459e-17)
(3.36342e-16 0 9.32129e-17)
(3.23779e-16 0 9.62838e-17)
(3.10896e-16 0 9.86206e-17)
(2.97764e-16 0 1.00254e-16)
(2.84467e-16 0 1.01257e-16)
(2.71026e-16 0 1.01723e-16)
(2.57501e-16 0 1.0165e-16)
(2.43967e-16 0 1.01154e-16)
(2.30432e-16 0 1.00244e-16)
(2.16928e-16 0 9.89825e-17)
(2.03497e-16 0 9.73695e-17)
(1.9019e-16 0 9.54773e-17)
(1.76975e-16 0 9.3337e-17)
(1.63885e-16 0 9.10209e-17)
(1.50971e-16 0 8.85394e-17)
(1.38243e-16 0 8.59648e-17)
(1.25742e-16 0 8.32868e-17)
(1.13479e-16 0 8.05881e-17)
(1.01485e-16 0 7.78894e-17)
(8.97284e-17 0 7.52838e-17)
(7.81582e-17 0 7.27712e-17)
(6.68569e-17 0 7.04241e-17)
(5.58037e-17 0 6.82527e-17)
(4.49676e-17 0 6.63399e-17)
(3.43487e-17 0 6.47269e-17)
(2.38642e-17 0 6.34137e-17)
(1.35037e-17 0 6.24832e-17)
(4.17726e-18 0 6.19352e-17)
(1.03649e-07 0 -1.30681e-06)
(3.52138e-07 0 -1.26759e-06)
(5.53212e-07 0 -1.18965e-06)
(7.25419e-07 0 -1.09543e-06)
(8.76004e-07 0 -9.85848e-07)
(9.96516e-07 0 -8.73166e-07)
(1.08986e-06 0 -7.68575e-07)
(1.16544e-06 0 -6.70971e-07)
(1.22627e-06 0 -5.81861e-07)
(1.27669e-06 0 -5.00686e-07)
(1.31956e-06 0 -4.25423e-07)
(1.35473e-06 0 -3.58021e-07)
(1.3828e-06 0 -2.96185e-07)
(1.40607e-06 0 -2.26299e-07)
(1.42013e-06 0 -1.64961e-07)
(1.4276e-06 0 -1.08114e-07)
(1.42896e-06 0 -5.50386e-08)
(1.42354e-06 0 -1.52476e-09)
(1.41049e-06 0 5.49069e-08)
(1.39065e-06 0 9.28505e-08)
(1.36549e-06 0 1.37618e-07)
(1.33542e-06 0 1.71061e-07)
(1.3e-06 0 2.03031e-07)
(1.26143e-06 0 2.27664e-07)
(1.21988e-06 0 2.52511e-07)
(1.17712e-06 0 2.66577e-07)
(1.13349e-06 0 2.77272e-07)
(1.08988e-06 0 2.84939e-07)
(1.04666e-06 0 2.88472e-07)
(1.00452e-06 0 2.88492e-07)
(9.63824e-07 0 2.86334e-07)
(9.24798e-07 0 2.81782e-07)
(8.87844e-07 0 2.74889e-07)
(8.52867e-07 0 2.6722e-07)
(8.19765e-07 0 2.59043e-07)
(7.88456e-07 0 2.50664e-07)
(7.58877e-07 0 2.41999e-07)
(7.30965e-07 0 2.33377e-07)
(7.04561e-07 0 2.25134e-07)
(6.79333e-07 0 2.1761e-07)
(6.55291e-07 0 2.10344e-07)
(6.32292e-07 0 2.03635e-07)
(6.10063e-07 0 1.97762e-07)
(5.88372e-07 0 1.92635e-07)
(5.67358e-07 0 1.87364e-07)
(5.46683e-07 0 1.83559e-07)
(5.26456e-07 0 1.79198e-07)
(5.06435e-07 0 1.75946e-07)
(4.86772e-07 0 1.74105e-07)
(4.67501e-07 0 1.70031e-07)
(4.47553e-07 0 1.67296e-07)
(4.28258e-07 0 1.64249e-07)
(4.09248e-07 0 1.62032e-07)
(3.90551e-07 0 1.59368e-07)
(3.71899e-07 0 1.56838e-07)
(3.5354e-07 0 1.54074e-07)
(3.35519e-07 0 1.51094e-07)
(3.17699e-07 0 1.48551e-07)
(3.00428e-07 0 1.45608e-07)
(2.83376e-07 0 1.43005e-07)
(2.66724e-07 0 1.39975e-07)
(2.50426e-07 0 1.36803e-07)
(2.34452e-07 0 1.34025e-07)
(2.18918e-07 0 1.31237e-07)
(2.03719e-07 0 1.28408e-07)
(1.88765e-07 0 1.25797e-07)
(1.7424e-07 0 1.23044e-07)
(1.5995e-07 0 1.20443e-07)
(1.45888e-07 0 1.17945e-07)
(1.32039e-07 0 1.15503e-07)
(1.18392e-07 0 1.13003e-07)
(1.04873e-07 0 1.10449e-07)
(9.14622e-08 0 1.07704e-07)
(7.81089e-08 0 1.04574e-07)
(6.53626e-08 0 1.00546e-07)
(4.91484e-08 0 9.4045e-08)
(3.62365e-08 0 1.41516e-07)
(7.74788e-09 0 1.95505e-07)
(2.95508e-11 0 1.49211e-07)
(5.73401e-16 0 -2.21489e-15)
(2.23033e-16 0 -8.13739e-18)
(4.4159e-16 0 5.66619e-18)
(4.37713e-16 0 1.92009e-17)
(4.31871e-16 0 3.22704e-17)
(4.25161e-16 0 4.46678e-17)
(4.1753e-16 0 5.62173e-17)
(4.08886e-16 0 6.68362e-17)
(3.9928e-16 0 7.63384e-17)