0 	7.25912e-21 	0 	-4.35547e-20
0.010101 	1.02615e-19 	1.35517e-22 	-3.30877e-20
0.020202 	3.64281e-20 	3.4305e-23 	-6.43259e-20
0.030303 	-5.64283e-20 	-3.34534e-23 	-9.81357e-20
0.040404 	7.02468e-20 	1.69481e-22 	-1.23314e-21
0.0505051 	-4.6912e-20 	1.01382e-22 	-1.68836e-20
