/*--------------------------------*- C++ -*----------------------------------*\
  =========                 |
  \\      /  F ield         | OpenFOAM: The Open Source CFD Toolbox
   \\    /   O peration     | Website:  https://openfoam.org
    \\  /    A nd           | Version:  6
     \\/     M anipulation  |
\*---------------------------------------------------------------------------*/
FoamFile
{
    version     2.0;
    format      ascii;
    class       volScalarField;
    location    "4900";
    object      dmdt;
}
// * * * * * * * * * * * * * * * * * * * * * * * * * * * * * * * * * * * * * //

dimensions      [0 0 0 0 0 0 0];

internalField   nonuniform List<scalar> 
4800
(
-0.218987
-0.215769
-0.212521
-0.209233
-0.205901
-0.20254
-0.199168
-0.195813
-0.19251
-0.189301
-0.186227
-0.183324
-0.180618
-0.178115
-0.175813
-0.173706
-0.171782
-0.170026
-0.168422
-0.166952
-0.1656
-0.164347
-0.163179
-0.162081
-0.16104
-0.160042
-0.159078
-0.158137
-0.157211
-0.156291
-0.155368
-0.154441
-0.153503
-0.152549
-0.151575
-0.150575
-0.14955
-0.1485
-0.147419
-0.146303
-0.145148
-0.143949
-0.142695
-0.14138
-0.139995
-0.138534
-0.136993
-0.135366
-0.13365
-0.131841
-0.129939
-0.127944
-0.125856
-0.123675
-0.121406
-0.119053
-0.116614
-0.114087
-0.111469
-0.108755
-0.105938
-0.103007
-0.0999506
-0.0967558
-0.0934061
-0.0898861
-0.0861863
-0.0823049
-0.0782463
-0.0740232
-0.0696614
-0.0651874
-0.060622
-0.0559754
-0.0512451
-0.0464185
-0.0414736
-0.0363866
-0.0311407
-0.0257421
-0.0202259
-0.0145982
-0.00886671
-0.003575
-0.00130603
0.000716875
0.00296563
0.00545454
0.00812849
0.0109376
0.0138465
0.0168308
0.019874
0.0229645
0.0260934
0.0292544
0.0324423
0.035653
0.0388832
0.0421302
0.0453916
0.0486657
0.0519509
0.0552456
0.0585489
0.0618597
0.0651769
0.0684999
0.0718279
0.0751603
0.0784965
0.0818359
0.0851781
0.0885227
0.0918692
0.0952173
0.0985668
0.101917
0.105268
0.10862
-0.218985
-0.215762
-0.212509
-0.209216
-0.205885
-0.202529
-0.199172
-0.195837
-0.192551
-0.189346
-0.186275
-0.183386
-0.180688
-0.178187
-0.175893
-0.17379
-0.171868
-0.170116
-0.168515
-0.16705
-0.165703
-0.164454
-0.163291
-0.162197
-0.16116
-0.160165
-0.159203
-0.158264
-0.157338
-0.156416
-0.155494
-0.154566
-0.153626
-0.152671
-0.151694
-0.150695
-0.149672
-0.148621
-0.14754
-0.146426
-0.14527
-0.144067
-0.142811
-0.141491
-0.140097
-0.138629
-0.137078
-0.13544
-0.13371
-0.131887
-0.129969
-0.127958
-0.125854
-0.123659
-0.121376
-0.119005
-0.11655
-0.114006
-0.111371
-0.108639
-0.105805
-0.102857
-0.0997843
-0.0965777
-0.093225
-0.0897115
-0.0860281
-0.0821708
-0.0781443
-0.0739633
-0.0696451
-0.065209
-0.0606695
-0.0560341
-0.0513092
-0.0464874
-0.0415517
-0.036485
-0.0312912
-0.0259881
-0.0205395
-0.0148103
-0.00831751
-0.000414736
-0.00104972
0.000501782
0.00273681
0.00528084
0.00800395
0.0108474
0.013779
0.0167783
0.0198319
0.0229297
0.0260643
0.0292298
0.0324214
0.0356352
0.038868
0.0421172
0.0453806
0.0486564
0.0519429
0.0552389
0.0585433
0.0618549
0.0651729
0.0684966
0.0718251
0.075158
0.0784945
0.0818343
0.0851768
0.0885216
0.0918683
0.0952167
0.0985663
0.101917
0.105268
0.10862
-0.21898
-0.215748
-0.212487
-0.209192
-0.205865
-0.202516
-0.199168
-0.195847
-0.192584
-0.189411
-0.18637
-0.183501
-0.180821
-0.178338
-0.176054
-0.173962
-0.172051
-0.170308
-0.168716
-0.167259
-0.165919
-0.164679
-0.163523
-0.162436
-0.161404
-0.160415
-0.159455
-0.158518
-0.157592
-0.15667
-0.155748
-0.154819
-0.153878
-0.152921
-0.151944
-0.150946
-0.149924
-0.148875
-0.147798
-0.146685
-0.145529
-0.144326
-0.143065
-0.141735
-0.140329
-0.138845
-0.137273
-0.135611
-0.133857
-0.132008
-0.130065
-0.128027
-0.125894
-0.12367
-0.121357
-0.118954
-0.116465
-0.113889
-0.111222
-0.108459
-0.105593
-0.102615
-0.0995183
-0.0962946
-0.092936
-0.0894312
-0.085771
-0.0819531
-0.0779806
-0.0738618
-0.0696071
-0.0652274
-0.0607313
-0.0561276
-0.0514212
-0.0466051
-0.0416627
-0.0365904
-0.0314184
-0.0261871
-0.0209176
-0.0156041
-0.010298
-0.00541686
-0.00283724
-0.000384026
0.00221225
0.00494143
0.00777177
0.0106806
0.0136533
0.0166796
0.0197516
0.0228629
0.0260078
0.0291817
0.0323803
0.0356
0.0388379
0.0420915
0.0453587
0.0486378
0.0519272
0.0552256
0.058532
0.0618454
0.0651649
0.0684899
0.0718195
0.0751533
0.0784906
0.0818311
0.0851741
0.0885194
0.0918666
0.0952153
0.0985653
0.101916
0.105268
0.108619
-0.218972
-0.215728
-0.212464
-0.209171
-0.205852
-0.202514
-0.199176
-0.195868
-0.192629
-0.189496
-0.1865
-0.18367
-0.181022
-0.178566
-0.176303
-0.174228
-0.172332
-0.170603
-0.169024
-0.167578
-0.166248
-0.165017
-0.163868
-0.162789
-0.161764
-0.160779
-0.159825
-0.158892
-0.15797
-0.157051
-0.156131
-0.155204
-0.154265
-0.153309
-0.152334
-0.151341
-0.150325
-0.149285
-0.148214
-0.147105
-0.145951
-0.144746
-0.143478
-0.142133
-0.140709
-0.1392
-0.137598
-0.135902
-0.134111
-0.132227
-0.13025
-0.128177
-0.126008
-0.123746
-0.121391
-0.118945
-0.116408
-0.113784
-0.111071
-0.108264
-0.105357
-0.102345
-0.0992227
-0.0959841
-0.092624
-0.0891355
-0.0855089
-0.0817391
-0.0778271
-0.0737788
-0.0695979
-0.0652854
-0.0608474
-0.0562904
-0.0516115
-0.0468021
-0.0418689
-0.0368522
-0.0317997
-0.0267472
-0.0217412
-0.0168433
-0.012173
-0.00795046
-0.00448525
-0.0013983
0.00157062
0.00451735
0.0074772
0.0104649
0.0134869
0.0165456
0.0196402
0.0227685
0.025927
0.0291121
0.0323203
0.0355485
0.0387937
0.0420537
0.0453265
0.0486103
0.0519039
0.0552059
0.0585153
0.0618313
0.0651531
0.0684799
0.0718112
0.0751463
0.0784848
0.0818263
0.0851702
0.0885163
0.0918641
0.0952133
0.0985638
0.101915
0.105267
0.108619
-0.218967
-0.215714
-0.212449
-0.209167
-0.205868
-0.20256
-0.199256
-0.195978
-0.192771
-0.189677
-0.186721
-0.183925
-0.18131
-0.178881
-0.176641
-0.174587
-0.17271
-0.170998
-0.169432
-0.167998
-0.166679
-0.165456
-0.164316
-0.163245
-0.162227
-0.16125
-0.160303
-0.159378
-0.158463
-0.157552
-0.156639
-0.155719
-0.154786
-0.153839
-0.152875
-0.151892
-0.150887
-0.149858
-0.148797
-0.147695
-0.146543
-0.145332
-0.14405
-0.142685
-0.141237
-0.139697
-0.138058
-0.136324
-0.134493
-0.132568
-0.130549
-0.128433
-0.126222
-0.123914
-0.121511
-0.119012
-0.116419
-0.113738
-0.11097
-0.108114
-0.105165
-0.102118
-0.0989666
-0.0957106
-0.0923473
-0.0888729
-0.0852815
-0.0815694
-0.0777351
-0.0737728
-0.0696749
-0.0654414
-0.061076
-0.0565814
-0.0519569
-0.047205
-0.0423464
-0.0374316
-0.0325166
-0.0276496
-0.0228723
-0.0182162
-0.0137473
-0.00956907
-0.005743
-0.00227969
0.000968396
0.00409926
0.00717467
0.0102339
0.0133011
0.0163899
0.0195065
0.0226522
0.0258255
0.0290236
0.0322434
0.0354819
0.0387364
0.0420045
0.0452844
0.0485744
0.0518734
0.05518
0.0584934
0.0618129
0.0651375
0.0684669
0.0718002
0.0751372
0.0784772
0.08182
0.085165
0.0885121
0.0918607
0.0952107
0.0985618
0.101914
0.105266
0.108619
-0.218966
-0.215715
-0.212456
-0.209186
-0.205909
-0.202632
-0.199374
-0.196151
-0.192987
-0.189926
-0.187007
-0.18425
-0.181667
-0.179269
-0.177059
-0.17503
-0.173174
-0.17148
-0.169928
-0.168507
-0.1672
-0.165985
-0.164855
-0.163795
-0.162786
-0.16182
-0.160885
-0.159972
-0.159068
-0.158168
-0.157268
-0.15636
-0.155442
-0.15451
-0.153563
-0.152596
-0.151608
-0.150592
-0.149541
-0.148446
-0.147294
-0.146076
-0.144778
-0.143391
-0.141914
-0.140338
-0.138658
-0.13688
-0.135006
-0.133041
-0.13098
-0.128819
-0.126559
-0.124199
-0.12174
-0.119183
-0.116531
-0.113786
-0.110956
-0.108044
-0.105054
-0.101979
-0.098816
-0.095563
-0.0922131
-0.0887625
-0.0852126
-0.0815598
-0.0777943
-0.0739043
-0.069882
-0.0657257
-0.0614355
-0.0570127
-0.0524606
-0.0477928
-0.0430377
-0.0382433
-0.0334584
-0.0287227
-0.0240573
-0.0194632
-0.0149787
-0.0106768
-0.00663125
-0.00293589
0.000497374
0.00375507
0.00691009
0.0100176
0.0131151
0.016225
0.0193586
0.0225196
0.0257072
0.028919
0.0321516
0.0354019
0.038667
0.0419448
0.0452332
0.0485307
0.0518361
0.0551483
0.0584666
0.0617902
0.0651185
0.0684508
0.0717868
0.075126
0.0784679
0.0818123
0.0851587
0.0885069
0.0918566
0.0952075
0.0985594
0.101912
0.105265
0.108619
-0.218972
-0.215731
-0.212484
-0.209231
-0.205974
-0.202726
-0.199503
-0.196326
-0.193221
-0.190217
-0.187347
-0.184635
-0.182094
-0.179734
-0.177556
-0.175552
-0.173715
-0.172036
-0.170499
-0.169091
-0.167797
-0.166595
-0.165477
-0.16443
-0.163435
-0.162483
-0.161564
-0.160665
-0.159777
-0.158896
-0.158013
-0.157125
-0.156226
-0.155316
-0.154391
-0.153445
-0.152474
-0.151473
-0.150432
-0.149344
-0.148191
-0.146963
-0.145649
-0.144239
-0.14273
-0.141114
-0.139396
-0.137579
-0.135668
-0.133662
-0.131554
-0.129346
-0.127037
-0.124624
-0.122109
-0.119493
-0.116781
-0.113981
-0.1111
-0.108144
-0.105117
-0.102019
-0.0988486
-0.0956019
-0.0922688
-0.0888473
-0.0853385
-0.0817359
-0.0780271
-0.0741989
-0.070244
-0.0661592
-0.0619418
-0.057592
-0.0531169
-0.0485363
-0.0438836
-0.0391988
-0.0345069
-0.0298185
-0.0251328
-0.0204583
-0.0158488
-0.0113824
-0.00717631
-0.00333496
0.000203228
0.00352406
0.00671193
0.00983525
0.0129416
0.0160595
0.0192024
0.0223747
0.0255752
0.0288005
0.0320466
0.0353098
0.0385869
0.0418755
0.0451736
0.0484797
0.0517926
0.0551114
0.0584353
0.0617637
0.0650961
0.068432
0.071771
0.0751128
0.0784569
0.0818032
0.0851512
0.0885008
0.0918517
0.0952037
0.0985566
0.10191
0.105264
0.108618
-0.21898
-0.215757
-0.212531
-0.209304
-0.206077
-0.202859
-0.199666
-0.19652
-0.193457
-0.190514
-0.18771
-0.185057
-0.182565
-0.180245
-0.178101
-0.176128
-0.174316
-0.172659
-0.171141
-0.169749
-0.168469
-0.167281
-0.166178
-0.165147
-0.164168
-0.163234
-0.162333
-0.161453
-0.160586
-0.159726
-0.158866
-0.158001
-0.157128
-0.156242
-0.155341
-0.154417
-0.153464
-0.152479
-0.151449
-0.150369
-0.149215
-0.147978
-0.14665
-0.145219
-0.14368
-0.14203
-0.140275
-0.138423
-0.136476
-0.134431
-0.132284
-0.130031
-0.127671
-0.125201
-0.122627
-0.119952
-0.117185
-0.114337
-0.111416
-0.108427
-0.105376
-0.102267
-0.0990971
-0.0958576
-0.0925374
-0.08914
-0.0856643
-0.0821015
-0.0784378
-0.0746616
-0.0707657
-0.066744
-0.0625914
-0.0583078
-0.0539023
-0.0493942
-0.044815
-0.0401905
-0.0355274
-0.0308192
-0.0260475
-0.0212219
-0.0164132
-0.0117402
-0.00738969
-0.00346624
0.000100098
0.00341659
0.00658632
0.0096903
0.012783
0.015895
0.0190398
0.0222197
0.0254316
0.0286702
0.0319304
0.0352073
0.0384974
0.0417979
0.0451067
0.0484223
0.0517435
0.0550695
0.0583998
0.0617336
0.0650707
0.0684106
0.0717531
0.0750978
0.0784444
0.0817928
0.0851427
0.0884939
0.0918462
0.0951994
0.0985534
0.101908
0.105263
0.108618
-0.218991
-0.215793
-0.212596
-0.209397
-0.206203
-0.203026
-0.199887
-0.19681
-0.193813
-0.190922
-0.188163
-0.185555
-0.183108
-0.180829
-0.178719
-0.176773
-0.174984
-0.173347
-0.17185
-0.170476
-0.169213
-0.168043
-0.166959
-0.165946
-0.164986
-0.164072
-0.163193
-0.162335
-0.161491
-0.160655
-0.159821
-0.158981
-0.158134
-0.157275
-0.156399
-0.155498
-0.154565
-0.153596
-0.152579
-0.151506
-0.15035
-0.149112
-0.147775
-0.146325
-0.14476
-0.143079
-0.141293
-0.139413
-0.137437
-0.135361
-0.133179
-0.130884
-0.128474
-0.125951
-0.12332
-0.120591
-0.117775
-0.114889
-0.111935
-0.108922
-0.105856
-0.102737
-0.0995619
-0.0963207
-0.0930069
-0.0896262
-0.0861751
-0.0826448
-0.0790174
-0.0752829
-0.0714345
-0.0674637
-0.0633631
-0.0591323
-0.0547784
-0.0503159
-0.0457698
-0.0411545
-0.0364647
-0.0316764
-0.0267678
-0.0217455
-0.0166818
-0.011752
-0.00724919
-0.00332587
0.000173321
0.00341098
0.00651293
0.00956728
0.0126289
0.015726
0.0188682
0.0220539
0.0252769
0.0285294
0.0318043
0.0350959
0.0383999
0.0417132
0.0450335
0.0483593
0.0516896
0.0550235
0.0583606
0.0617004
0.0650426
0.068387
0.0717332
0.0750811
0.0784306
0.0817813
0.0851333
0.0884862
0.0918401
0.0951946
0.0985498
0.101905
0.105261
0.108617
-0.219009
-0.215846
-0.212687
-0.209533
-0.20639
-0.203269
-0.200183
-0.197153
-0.194207
-0.19137
-0.188661
-0.186101
-0.183698
-0.181458
-0.179381
-0.177468
-0.175709
-0.174098
-0.172625
-0.171274
-0.170031
-0.168884
-0.167822
-0.16683
-0.165893
-0.165003
-0.164147
-0.163314
-0.162495
-0.161686
-0.160879
-0.160066
-0.159246
-0.158413
-0.157563
-0.156687
-0.155776
-0.154824
-0.153816
-0.15275
-0.151601
-0.150369
-0.149022
-0.147556
-0.145972
-0.144269
-0.142461
-0.140558
-0.13856
-0.136462
-0.134253
-0.131921
-0.129467
-0.126893
-0.12421
-0.121431
-0.118573
-0.115651
-0.112669
-0.109635
-0.106552
-0.103417
-0.100226
-0.0969732
-0.0936575
-0.0902832
-0.0868465
-0.083338
-0.0797354
-0.0760307
-0.0722158
-0.0682803
-0.0642155
-0.0600186
-0.0556916
-0.0512438
-0.0466924
-0.0420447
-0.0372893
-0.0323939
-0.0273235
-0.0220565
-0.0166439
-0.0113229
-0.00665458
-0.00291655
0.000367888
0.00344552
0.00644192
0.00943163
0.0124579
0.0155403
0.0186816
0.0218753
0.0251112
0.028379
0.03167
0.0349772
0.038296
0.0416227
0.0449552
0.0482918
0.0516316
0.054974
0.0583184
0.0616645
0.0650122
0.0683613
0.0717116
0.075063
0.0784155
0.0817688
0.085123
0.0884779
0.0918334
0.0951894
0.0985459
0.101903
0.10526
0.108617
-0.219029
-0.21591
-0.212796
-0.209691
-0.206601
-0.203536
-0.200509
-0.197536
-0.194642
-0.191856
-0.189199
-0.18669
-0.184335
-0.182139
-0.180102
-0.178224
-0.176499
-0.174919
-0.173473
-0.172148
-0.170931
-0.169811
-0.168775
-0.167809
-0.1669
-0.166035
-0.165205
-0.164401
-0.16361
-0.162829
-0.162051
-0.161266
-0.160474
-0.159668
-0.158845
-0.157993
-0.157103
-0.156165
-0.15517
-0.154116
-0.152979
-0.151748
-0.150393
-0.148917
-0.147321
-0.145608
-0.143786
-0.14187
-0.13986
-0.137743
-0.135511
-0.133147
-0.130652
-0.128033
-0.125301
-0.122476
-0.119579
-0.116622
-0.11361
-0.11055
-0.107441
-0.104278
-0.101061
-0.0977875
-0.0944597
-0.0910809
-0.0876461
-0.0841418
-0.0805448
-0.0768535
-0.0730548
-0.0691364
-0.0650877
-0.0609034
-0.056581
-0.0521259
-0.0475496
-0.0428539
-0.038025
-0.0330277
-0.0278021
-0.0222674
-0.016366
-0.01026
-0.00530987
-0.00228874
0.00055227
0.00340794
0.00629636
0.0092355
0.0122423
0.015323
0.0184731
0.0216813
0.0249345
0.0282204
0.0315291
0.0348532
0.0381873
0.0415281
0.0448731
0.0482209
0.0515706
0.0549216
0.0582736
0.0616264
0.0649798
0.0683339
0.0716885
0.0750436
0.0783993
0.0817554
0.0851119
0.0884689
0.0918262
0.0951838
0.0985417
0.1019
0.105258
0.108616
-0.219052
-0.215977
-0.21291
-0.209855
-0.206821
-0.203818
-0.200854
-0.197942
-0.195107
-0.192379
-0.189779
-0.187325
-0.185023
-0.182879
-0.180892
-0.179059
-0.177372
-0.175825
-0.17441
-0.173115
-0.171929
-0.170841
-0.169837
-0.168902
-0.168023
-0.167188
-0.166389
-0.165615
-0.164854
-0.164103
-0.163355
-0.162599
-0.161836
-0.161059
-0.16026
-0.159432
-0.158563
-0.15764
-0.156659
-0.155615
-0.15449
-0.153258
-0.151901
-0.150423
-0.148825
-0.14711
-0.145283
-0.14336
-0.141337
-0.139205
-0.136952
-0.134559
-0.13203
-0.129367
-0.126588
-0.123716
-0.120778
-0.117781
-0.114731
-0.111631
-0.108479
-0.105274
-0.102018
-0.0987117
-0.0953584
-0.0919605
-0.0885093
-0.0849886
-0.0813814
-0.0776896
-0.0738926
-0.0699769
-0.0659302
-0.061746
-0.0574182
-0.0529497
-0.0483472
-0.0436086
-0.0387213
-0.0336507
-0.0283203
-0.0225791
-0.0161038
-0.00785937
-0.00141976
-0.00178157
0.000441169
0.00313733
0.00599043
0.0089337
0.011959
0.0150635
0.0182389
0.0214719
0.0247485
0.028056
0.0313843
0.034726
0.0380761
0.0414311
0.0447888
0.0481479
0.0515076
0.0548674
0.0582271
0.0615866
0.064946
0.0683052
0.0716642
0.0750232
0.0783822
0.0817412
0.0851002
0.0884594
0.0918186
0.0951778
0.0985372
0.101897
0.105256
0.108616
-0.219081
-0.216063
-0.213053
-0.210056
-0.207082
-0.204138
-0.201235
-0.198385
-0.195612
-0.192946
-0.19041
-0.18802
-0.185778
-0.18369
-0.181754
-0.179968
-0.178328
-0.176825
-0.175451
-0.174197
-0.173051
-0.172002
-0.171036
-0.170137
-0.169292
-0.168491
-0.167725
-0.166984
-0.166255
-0.165538
-0.16482
-0.164095
-0.163362
-0.162611
-0.161836
-0.16103
-0.160178
-0.15927
-0.158303
-0.157268
-0.15615
-0.154917
-0.153566
-0.152093
-0.150503
-0.148789
-0.146959
-0.145029
-0.142994
-0.140843
-0.138563
-0.13614
-0.133576
-0.13087
-0.128042
-0.125117
-0.122127
-0.119078
-0.115975
-0.11282
-0.109611
-0.106349
-0.103038
-0.0996797
-0.0962804
-0.0928387
-0.089346
-0.085787
-0.0821539
-0.0784455
-0.0746409
-0.0707238
-0.0666767
-0.0624893
-0.0581559
-0.0536805
-0.0490676
-0.0443134
-0.0394047
-0.0343116
-0.0289787
-0.0233393
-0.0173464
-0.0111878
-0.00636401
-0.00334187
-0.000442806
0.00249654
0.005478
0.00850984
0.0116034
0.0147626
0.017982
0.021251
0.0245572
0.0278895
0.0312389
0.0345989
0.0379649
0.0413339
0.044704
0.0480742
0.0514436
0.0548121
0.0581795
0.0615458
0.0649111
0.0682755
0.0716391
0.075002
0.0783644
0.0817264
0.085088
0.0884494
0.0918106
0.0951716
0.0985325
0.101893
0.105254
0.108615
-0.219119
-0.216176
-0.21324
-0.210316
-0.207413
-0.204537
-0.201696
-0.198907
-0.196199
-0.1936
-0.19113
-0.188806
-0.186634
-0.184612
-0.182738
-0.181009
-0.179422
-0.177971
-0.176649
-0.175442
-0.17434
-0.173334
-0.172411
-0.171552
-0.170747
-0.169983
-0.169253
-0.168545
-0.167853
-0.167168
-0.166483
-0.165789
-0.165083
-0.164358
-0.163605
-0.162817
-0.161981
-0.161087
-0.16013
-0.159102
-0.157988
-0.156762
-0.155418
-0.153952
-0.152368
-0.150649
-0.148815
-0.146876
-0.144823
-0.142644
-0.140329
-0.137867
-0.135255
-0.132494
-0.129605
-0.126618
-0.123564
-0.120451
-0.117282
-0.114057
-0.110776
-0.10744
-0.104051
-0.100615
-0.0971375
-0.0936198
-0.090055
-0.0864336
-0.0827528
-0.0790084
-0.0751829
-0.071257
-0.06721
-0.0630293
-0.0587092
-0.0542486
-0.0496477
-0.0449044
-0.0400107
-0.0349521
-0.0297124
-0.0242981
-0.0187929
-0.0134534
-0.00887865
-0.00505086
-0.00162225
0.0016339
0.00482134
0.00799824
0.0111981
0.0144361
0.0177144
0.0210277
0.0243678
0.0277267
0.0310975
0.0344754
0.0378566
0.0412389
0.0446207
0.0480012
0.05138
0.0547568
0.0581316
0.0615045
0.0648757
0.0682452
0.0716134
0.0749803
0.0783462
0.0817112
0.0850754
0.0884391
0.0918023
0.0951651
0.0985277
0.10189
0.105252
0.108614
-0.219171
-0.216331
-0.213492
-0.210661
-0.20784
-0.205036
-0.202264
-0.199546
-0.196911
-0.194388
-0.191995
-0.189747
-0.187647
-0.185694
-0.183887
-0.182225
-0.180701
-0.179311
-0.178043
-0.176888
-0.175839
-0.174886
-0.174013
-0.173203
-0.172441
-0.171717
-0.171024
-0.170352
-0.169695
-0.169042
-0.168387
-0.167722
-0.167041
-0.166337
-0.165602
-0.164828
-0.164004
-0.16312
-0.162169
-0.161143
-0.160029
-0.158805
-0.157462
-0.156001
-0.154413
-0.152689
-0.150851
-0.148897
-0.146813
-0.144593
-0.142227
-0.139705
-0.13702
-0.134184
-0.131218
-0.128156
-0.125028
-0.121843
-0.118598
-0.115291
-0.111922
-0.108489
-0.104998
-0.101455
-0.0978709
-0.0942473
-0.090583
-0.0868747
-0.0831203
-0.0793148
-0.0754461
-0.0714946
-0.067439
-0.0632638
-0.0589619
-0.0545284
-0.0499575
-0.0452486
-0.0404049
-0.0354305
-0.0303405
-0.0251789
-0.0200457
-0.0151113
-0.0106298
-0.00653176
-0.0027912
0.000730115
0.00412706
0.0074648
0.0107855
0.0141125
0.0174555
0.0208156
0.0241901
0.0275748
0.0309657
0.0343597
0.0377545
0.0411486
0.0445408
0.0479308
0.051318
0.0547025
0.0580843
0.0614634
0.0648402
0.0682147
0.0715873
0.0749582
0.0783275
0.0816956
0.0850625
0.0884286
0.0917938
0.0951585
0.0985227
0.101887
0.10525
0.108614
-0.219244
-0.216544
-0.213836
-0.211122
-0.208405
-0.205693
-0.203003
-0.200364
-0.197806
-0.19536
-0.193049
-0.190885
-0.188868
-0.186996
-0.185269
-0.183684
-0.182235
-0.180915
-0.179714
-0.178624
-0.177638
-0.176743
-0.175922
-0.175162
-0.174446
-0.173763
-0.173107
-0.172469
-0.171843
-0.171219
-0.17059
-0.169947
-0.169283
-0.168593
-0.167869
-0.167102
-0.166282
-0.165399
-0.164445
-0.163415
-0.162294
-0.161062
-0.159712
-0.158243
-0.156641
-0.15491
-0.153058
-0.151067
-0.148931
-0.146653
-0.144223
-0.141618
-0.138834
-0.135892
-0.132826
-0.129675
-0.126463
-0.123195
-0.119862
-0.11646
-0.112985
-0.109433
-0.105813
-0.10214
-0.0984238
-0.0946709
-0.0908844
-0.0870666
-0.0832138
-0.0793234
-0.0753874
-0.0713889
-0.0673082
-0.0631294
-0.0588405
-0.0544336
-0.0499023
-0.045248
-0.0404835
-0.0356295
-0.0307192
-0.025802
-0.020958
-0.0162806
-0.0118711
-0.00770179
-0.00378869
-7.3343e-05
0.00349999
0.00698273
0.0104155
0.0138255
0.0172282
0.0206308
0.0240354
0.0274419
0.0308493
0.0342563
0.037662
0.0410656
0.0444665
0.0478643
0.0512589
0.0546501
0.0580382
0.0614231
0.0648051
0.0681845
0.0715614
0.074936
0.0783088
0.0816798
0.0850495
0.0884178
0.0917852
0.0951517
0.0985176
0.101883
0.105248
0.108613
-0.219339
-0.216828
-0.214298
-0.211743
-0.209164
-0.20657
-0.203985
-0.201438
-0.198967
-0.19661
-0.194387
-0.192316
-0.190396
-0.188621
-0.186989
-0.185496
-0.184134
-0.182897
-0.181775
-0.180757
-0.179837
-0.179002
-0.178237
-0.177529
-0.176858
-0.176214
-0.175589
-0.17498
-0.174378
-0.173775
-0.173161
-0.172528
-0.171869
-0.171181
-0.170454
-0.169681
-0.168851
-0.167956
-0.166988
-0.165939
-0.164796
-0.163544
-0.162175
-0.160682
-0.159056
-0.157296
-0.155396
-0.153345
-0.151142
-0.148796
-0.14628
-0.143565
-0.140654
-0.137577
-0.13438
-0.131113
-0.127801
-0.124441
-0.121014
-0.117508
-0.11391
-0.110219
-0.106448
-0.102617
-0.0987414
-0.0948345
-0.0909028
-0.0869486
-0.0829733
-0.0789757
-0.0749512
-0.0708904
-0.0667746
-0.0625824
-0.058299
-0.0539153
-0.0494273
-0.0448403
-0.0401721
-0.0354518
-0.0307188
-0.0260221
-0.0214115
-0.0169433
-0.0126516
-0.00852973
-0.00451926
-0.000673126
0.00302671
0.00661719
0.0101348
0.0136078
0.0170553
0.0204888
0.0239146
0.0273359
0.030754
0.0341696
0.0375824
0.0409925
0.0443996
0.0478034
0.0512038
0.0546007
0.0579941
0.0613842
0.064771
0.0681548
0.0715357
0.0749141
0.0782901
0.0816641
0.0850363
0.088407
0.0917765
0.0951449
0.0985125
0.101879
0.105246
0.108612
-0.21947
-0.217217
-0.21493
-0.212592
-0.210198
-0.207761
-0.205309
-0.202878
-0.200511
-0.198255
-0.196135
-0.194172
-0.192363
-0.190701
-0.18918
-0.187794
-0.186534
-0.185392
-0.184358
-0.183422
-0.182575
-0.181805
-0.181097
-0.180439
-0.179808
-0.179194
-0.178592
-0.177999
-0.177407
-0.176808
-0.176192
-0.175549
-0.174875
-0.174166
-0.173414
-0.172611
-0.171748
-0.170816
-0.169809
-0.16872
-0.167533
-0.166238
-0.164825
-0.163284
-0.161606
-0.159783
-0.15781
-0.155679
-0.153394
-0.150952
-0.148316
-0.145462
-0.142403
-0.139169
-0.135815
-0.132405
-0.128971
-0.125508
-0.121983
-0.11836
-0.114621
-0.110769
-0.106828
-0.102822
-0.0987704
-0.0946893
-0.090591
-0.086481
-0.0823623
-0.0782379
-0.0741094
-0.0699719
-0.065805
-0.0615872
-0.057302
-0.0529382
-0.048492
-0.0439763
-0.0394131
-0.0348336
-0.0302761
-0.0257783
-0.0213726
-0.0170931
-0.0129625
-0.00878458
-0.00490593
-0.000990435
0.00277183
0.00641737
0.00997934
0.0134851
0.016955
0.0204027
0.0238372
0.0272636
0.030685
0.0341031
0.0375186
0.0409315
0.0443418
0.0477494
0.0511538
0.054555
0.0579528
0.0613472
0.0647382
0.068126
0.0715106
0.0748924
0.0782716
0.0816484
0.0850232
0.0883962
0.0917677
0.095138
0.0985073
0.101876
0.105244
0.108612
-0.21965
-0.217747
-0.215788
-0.213745
-0.211604
-0.20938
-0.207103
-0.20482
-0.202582
-0.20045
-0.198453
-0.196615
-0.194937
-0.193409
-0.192018
-0.190757
-0.189616
-0.188585
-0.187654
-0.186808
-0.186039
-0.185334
-0.184684
-0.184073
-0.18347
-0.182871
-0.182273
-0.181673
-0.181068
-0.180448
-0.179801
-0.179119
-0.178397
-0.17763
-0.176815
-0.175942
-0.175004
-0.173997
-0.172913
-0.171744
-0.170477
-0.169103
-0.167611
-0.165985
-0.164216
-0.162297
-0.160222
-0.157983
-0.155577
-0.152988
-0.150187
-0.147166
-0.143943
-0.140547
-0.137028
-0.133457
-0.129879
-0.12629
-0.122644
-0.118901
-0.115026
-0.111013
-0.106888
-0.10269
-0.0984474
-0.0941808
-0.0899047
-0.0856268
-0.08135
-0.0770815
-0.0728316
-0.0686039
-0.0643798
-0.0601362
-0.0558526
-0.0515139
-0.0471095
-0.0426582
-0.0381886
-0.0337389
-0.0293498
-0.0250499
-0.0208485
-0.0167535
-0.0127503
-0.0088008
-0.00482993
-0.000969746
0.00277186
0.00641065
0.0099702
0.0134735
0.0169393
0.0203815
0.0238096
0.0272298
0.0306459
0.0340598
0.0374725
0.0408842
0.0442946
0.0477033
0.0511098
0.0545138
0.0579148
0.0613126
0.0647071
0.0680984
0.0714864
0.0748713
0.0782535
0.081633
0.0850102
0.0883855
0.091759
0.0951311
0.0985021
0.101872
0.105242
0.108611
-0.219889
-0.218456
-0.216938
-0.21529
-0.21349
-0.211553
-0.209512
-0.207426
-0.205357
-0.20338
-0.201531
-0.199845
-0.198322
-0.196952
-0.195719
-0.194608
-0.193611
-0.19271
-0.191898
-0.19115
-0.190469
-0.189834
-0.189243
-0.188666
-0.188076
-0.187469
-0.186847
-0.186212
-0.18556
-0.184882
-0.184163
-0.183395
-0.182572
-0.181691
-0.180749
-0.179741
-0.178664
-0.177515
-0.17629
-0.174982
-0.17358
-0.172074
-0.170448
-0.168688
-0.166784
-0.164727
-0.162505
-0.160105
-0.157516
-0.154723
-0.151719
-0.148503
-0.145093
-0.141523
-0.13784
-0.134107
-0.130373
-0.126637
-0.122859
-0.118993
-0.114994
-0.110835
-0.10654
-0.102153
-0.0977184
-0.0932619
-0.0888015
-0.0843494
-0.0799094
-0.0754893
-0.0711094
-0.0667825
-0.0624925
-0.0582167
-0.0539323
-0.0496213
-0.0452683
-0.0408944
-0.0365244
-0.0321949
-0.0279529
-0.0238337
-0.019838
-0.0159433
-0.0120937
-0.00824256
-0.00439494
-0.000640769
0.00302018
0.00659845
0.0101114
0.0135773
0.0170122
0.0204284
0.0238347
0.0272369
0.0306384
0.0340411
0.0374456
0.0408517
0.0442587
0.0476659
0.0510725
0.0544775
0.0578804
0.0612807
0.0646781
0.0680722
0.0714632
0.074851
0.0782358
0.0816179
0.0849974
0.0883748
0.0917503
0.0951242
0.0984969
0.101869
0.10524
0.10861
-0.220201
-0.219379
-0.218437
-0.217309
-0.215963
-0.214409
-0.212686
-0.210867
-0.209025
-0.207249
-0.205589
-0.204091
-0.202759
-0.201582
-0.200541
-0.199613
-0.19879
-0.198043
-0.197373
-0.196743
-0.196167
-0.19561
-0.195073
-0.194518
-0.193922
-0.193283
-0.192606
-0.191896
-0.191153
-0.190364
-0.189515
-0.188595
-0.187595
-0.186515
-0.185354
-0.184114
-0.182799
-0.181412
-0.179951
-0.178413
-0.17679
-0.17507
-0.173235
-0.171269
-0.169157
-0.166883
-0.164432
-0.161788
-0.158941
-0.155878
-0.152601
-0.149145
-0.14554
-0.141814
-0.137996
-0.134117
-0.130228
-0.126344
-0.122432
-0.118451
-0.114349
-0.110079
-0.105652
-0.10111
-0.0965069
-0.0918747
-0.087238
-0.0826153
-0.0780135
-0.073441
-0.0689256
-0.0644909
-0.0601258
-0.0558119
-0.0515288
-0.0472519
-0.0429621
-0.038677
-0.0344187
-0.0302201
-0.0261218
-0.0221595
-0.0183356
-0.0146355
-0.0109947
-0.00733744
-0.00365177
-4.49583e-05
0.00349014
0.00696458
0.0103932
0.0137909
0.0171704
0.0205417
0.0239115
0.0272843
0.0306625
0.0340471
0.0374379
0.0408341
0.0442344
0.0476375
0.0510419
0.0544465
0.0578501
0.0612518
0.0646512
0.0680477
0.0714411
0.0748314
0.0782187
0.0816031
0.0849849
0.0883643
0.0917417
0.0951174
0.0984917
0.101865
0.105237
0.10861
-0.220589
-0.22053
-0.220316
-0.219856
-0.219097
-0.21805
-0.216756
-0.2153
-0.213768
-0.212265
-0.210859
-0.209604
-0.208513
-0.207576
-0.206771
-0.20607
-0.205455
-0.204901
-0.204405
-0.20393
-0.203482
-0.203019
-0.202533
-0.201992
-0.201379
-0.200686
-0.199917
-0.199083
-0.198188
-0.197221
-0.196166
-0.195005
-0.193726
-0.19233
-0.190824
-0.189219
-0.187531
-0.185771
-0.183944
-0.182052
-0.18009
-0.178044
-0.175893
-0.173617
-0.171194
-0.168602
-0.165818
-0.162821
-0.159614
-0.156208
-0.152608
-0.148831
-0.144944
-0.141001
-0.137025
-0.132995
-0.128974
-0.124995
-0.121016
-0.116993
-0.112863
-0.108545
-0.104047
-0.0994072
-0.0946858
-0.0899188
-0.0851336
-0.0803585
-0.0756074
-0.0708904
-0.0662422
-0.0616986
-0.0572599
-0.0529125
-0.048642
-0.0444135
-0.0402128
-0.0360448
-0.0319247
-0.0278795
-0.0239384
-0.0201337
-0.0164605
-0.0129291
-0.00952109
-0.00612821
-0.00264912
0.000774076
0.00414679
0.00748235
0.0107958
0.0140998
0.0174038
0.0207142
0.0240351
0.0273687
0.0307159
0.0340763
0.0374486
0.040831
0.0442215
0.0476179
0.0510183
0.0544207
0.0578237
0.061226
0.0646266
0.0680248
0.0714203
0.0748128
0.0782023
0.0815888
0.0849726
0.0883539
0.0917331
0.0951105
0.0984865
0.101861
0.105235
0.108609
-0.221051
-0.221908
-0.222574
-0.222932
-0.222912
-0.222518
-0.221792
-0.220827
-0.219722
-0.218597
-0.21754
-0.216607
-0.215828
-0.215194
-0.214682
-0.214266
-0.213912
-0.213612
-0.213338
-0.213069
-0.212785
-0.21244
-0.212015
-0.211493
-0.210858
-0.210095
-0.209202
-0.208192
-0.207075
-0.205846
-0.204489
-0.202979
-0.201293
-0.199436
-0.197425
-0.195291
-0.19306
-0.190758
-0.188401
-0.185998
-0.183549
-0.181037
-0.178437
-0.175721
-0.172859
-0.169822
-0.166576
-0.163105
-0.159408
-0.155502
-0.151426
-0.147224
-0.142977
-0.138747
-0.13455
-0.130328
-0.126193
-0.122187
-0.118241
-0.11428
-0.110223
-0.105955
-0.101483
-0.0968366
-0.0920747
-0.0872354
-0.0823471
-0.0774486
-0.0725669
-0.0677204
-0.0629601
-0.058332
-0.0538448
-0.0494953
-0.0452753
-0.0411326
-0.0370564
-0.0330435
-0.0290957
-0.0252316
-0.0214678
-0.0178336
-0.0143233
-0.010963
-0.00778331
-0.00468135
-0.00144202
0.00177099
0.00495041
0.00811775
0.0112918
0.0144831
0.0176966
0.0209345
0.0241972
0.0274843
0.0307945
0.0341257
0.0374754
0.0408408
0.0442188
0.0476064
0.051001
0.0544
0.0578013
0.0612032
0.0646043
0.0680038
0.0714008
0.0747951
0.0781865
0.0815749
0.0849606
0.0883437
0.0917247
0.0951037
0.0984812
0.101858
0.105233
0.108608
-0.221576
-0.223471
-0.225145
-0.226465
-0.227335
-0.227753
-0.227761
-0.227449
-0.226925
-0.22632
-0.22574
-0.225246
-0.224879
-0.224636
-0.224496
-0.224445
-0.224433
-0.224458
-0.224477
-0.224474
-0.224407
-0.224216
-0.223879
-0.223393
-0.222745
-0.221908
-0.220867
-0.219632
-0.218228
-0.216644
-0.214873
-0.212894
-0.210663
-0.208184
-0.205496
-0.202653
-0.199696
-0.196671
-0.193607
-0.190527
-0.187433
-0.184305
-0.181103
-0.177792
-0.174338
-0.170701
-0.166836
-0.162707
-0.15833
-0.153749
-0.149026
-0.144236
-0.139482
-0.134837
-0.13028
-0.125779
-0.121553
-0.117582
-0.113764
-0.109979
-0.106104
-0.101993
-0.0976503
-0.0931013
-0.0883964
-0.0835689
-0.078641
-0.0736618
-0.0686792
-0.0637288
-0.0588908
-0.0542296
-0.0497492
-0.0454502
-0.0413355
-0.0373432
-0.0334519
-0.0296562
-0.0259499
-0.022341
-0.0188262
-0.0154249
-0.0121275
-0.00894387
-0.00594188
-0.0030813
-9.4513e-05
0.00290154
0.00585669
0.00882917
0.0118462
0.0149133
0.0180284
0.0211876
0.024387
0.0276231
0.0308924
0.0341912
0.0375156
0.0408615
0.044225
0.0476021
0.0509895
0.0543838
0.0577825
0.0611832
0.0645843
0.0679844
0.0713826
0.0747783
0.0781713
0.0815615
0.0849489
0.0883337
0.0917162
0.0950969
0.0984759
0.101854
0.105231
0.108607
-0.222142
-0.22516
-0.227934
-0.230322
-0.232216
-0.2336
-0.234517
-0.235041
-0.23528
-0.235374
-0.235432
-0.235524
-0.235701
-0.23597
-0.236307
-0.236718
-0.23714