/*--------------------------------*- C++ -*----------------------------------*\
  =========                 |
  \\      /  F ield         | OpenFOAM: The Open Source CFD Toolbox
   \\    /   O peration     | Website:  https://openfoam.org
    \\  /    A nd           | Version:  6
     \\/     M anipulation  |
\*---------------------------------------------------------------------------*/
FoamFile
{
    version     2.0;
    format      ascii;
    class       surfaceScalarField;
    location    "4900";
    object      phi;
}
// * * * * * * * * * * * * * * * * * * * * * * * * * * * * * * * * * * * * * //

dimensions      [0 3 -1 0 0 0 0];

internalField   nonuniform List<scalar> 
9440
(
1.01304e-10
-1.01304e-10
1.53191e-10
-5.18855e-11
2.1173e-10
-5.85387e-11
1.35608e-10
7.61227e-11
-3.33426e-13
1.35942e-10
-1.98392e-10
1.98059e-10
-4.69854e-10
2.71463e-10
-8.32272e-10
3.62418e-10
-1.15543e-09
3.23161e-10
-1.40018e-09
2.4475e-10
-1.73987e-09
3.3969e-10
-2.08936e-09
3.49485e-10
-2.1892e-09
9.9843e-11
-2.43832e-09
2.49118e-10
-2.62689e-09
1.88572e-10
-2.75974e-09
1.3285e-10
-2.95119e-09
1.91447e-10
-3.03674e-09
8.55516e-11
-3.19808e-09
1.61336e-10
-3.31933e-09
1.21252e-10
-3.41049e-09
9.11565e-11
-3.55664e-09
1.46155e-10
-3.63311e-09
7.6468e-11
-3.69219e-09
5.90712e-11
-3.73024e-09
3.80517e-11
-3.71699e-09
-1.32513e-11
-3.68932e-09
-2.76688e-11
-3.6653e-09
-2.40244e-11
-3.42114e-09
-2.44154e-10
-3.33729e-09
-8.38588e-11
-3.34479e-09
7.50221e-12
-3.07215e-09
-2.72644e-10
-2.97434e-09
-9.78081e-11
-2.76873e-09
-2.05606e-10
-2.56657e-09
-2.02161e-10
-2.64458e-09
7.80098e-11
-2.42258e-09
-2.22003e-10
-2.26684e-09
-1.55735e-10
-2.12378e-09
-1.43061e-10
-1.93795e-09
-1.85834e-10
-1.67534e-09
-2.62612e-10
-1.42776e-09
-2.4758e-10
-1.20825e-09
-2.19511e-10
-8.88678e-10
-3.19569e-10
-7.10348e-10
-1.7833e-10
-4.94557e-10
-2.15792e-10
-3.13354e-10
-1.81202e-10
-7.39351e-11
-2.39419e-10
4.43811e-11
-1.18316e-10
2.34853e-10
-1.90473e-10
3.63906e-10
-1.29053e-10
5.20492e-10
-1.56587e-10
6.2556e-10
-1.05069e-10
6.83803e-10
-5.82435e-11
8.02606e-10
-1.18803e-10
9.41027e-10
-1.38422e-10
1.06992e-09
-1.28895e-10
1.19494e-09
-1.25024e-10
1.33721e-09
-1.42271e-10
1.46316e-09
-1.25944e-10
1.60558e-09
-1.42422e-10
1.72776e-09
-1.2218e-10
1.84134e-09
-1.1358e-10
1.91457e-09
-7.32365e-11
1.8978e-09
1.67735e-11
1.80775e-09
9.00447e-11
1.63236e-09
1.75386e-10
1.44351e-09
1.88858e-10
1.16561e-09
2.77897e-10
8.22396e-10
3.43211e-10
5.67043e-10
2.55353e-10
3.37303e-10
2.29739e-10
2.66232e-10
7.10713e-11
2.39583e-10
2.66492e-11
2.80045e-10
-4.04618e-11
3.15601e-10
-3.55563e-11
3.24022e-10
-8.41999e-12
2.31556e-10
9.2467e-11
-1.1097e-10
3.42526e-10
-6.29737e-10
5.18768e-10
-5.81274e-10
-4.84622e-11
-6.13091e-11
-5.19964e-10
-2.95935e-13
-6.1012e-11
-9.01263e-18
-2.95138e-13
5.0157e-18
-1.40282e-17
5.96325e-18
-9.46428e-19
5.14564e-18
8.19056e-19
4.4393e-18
7.07948e-19
4.01766e-18
4.2337e-19
3.79904e-18
2.20427e-19
3.70134e-18
9.95584e-20
3.6707e-18
3.25138e-20
3.67456e-18
-2.01925e-21
3.69338e-18
-1.70125e-20
3.71509e-18
-1.99926e-20
3.73205e-18
-1.53384e-20
3.73923e-18
-5.67255e-21
3.73324e-18
7.35318e-21
3.71181e-18
2.26308e-20
3.67349e-18
3.93625e-20
3.61741e-18
5.69382e-20
3.54321e-18
7.48694e-20
3.45092e-18
9.27576e-20
3.34092e-18
1.10276e-19
3.21384e-18
1.27159e-19
3.07053e-18
1.432e-19
2.912e-18
1.5824e-19
2.73937e-18
1.72168e-19
2.55383e-18
1.84914e-19
2.35661e-18
1.96442e-19
2.14895e-18
2.06745e-19
1.93207e-18
2.15839e-19
1.70717e-18
2.23756e-19
1.47541e-18
2.30535e-19
1.23788e-18
2.36224e-19
9.95639e-19
2.40867e-19
7.4971e-19
2.44504e-19
5.01083e-19
2.47159e-19
2.5078e-19
2.48806e-19
2.49264e-19
1.25177e-10
-2.2648e-10
1.54642e-10
-8.13494e-11
1.58471e-10
-6.23664e-11
4.43193e-11
1.90275e-10
-9.69559e-11
2.77218e-10
-2.49896e-10
3.51e-10
-3.63314e-10
3.84883e-10
-4.80596e-10
4.79699e-10
-8.27942e-10
6.70507e-10
-1.41846e-09
8.35264e-10
-1.78686e-09
7.08094e-10
-1.8484e-09
4.11024e-10
-2.24717e-09
4.98617e-10
-2.52188e-09
5.23828e-10
-2.53015e-09
1.96841e-10
-2.88188e-09
4.84572e-10
-3.01828e-09
3.27845e-10
-3.17733e-09
2.44602e-10
-3.38244e-09
3.66451e-10
-3.44855e-09
1.87357e-10
-3.59241e-09
2.35013e-10
-3.67021e-09
2.23957e-10
-3.72756e-09
1.33819e-10
-3.77976e-09
1.11269e-10
-3.77512e-09
3.34078e-11
-3.7658e-09
-2.25784e-11
-3.74891e-09
-4.45604e-11
-3.65091e-09
-1.22018e-10
-3.54152e-09
-3.53548e-10
-3.4787e-09
-1.4668e-10
-3.35322e-09
-1.17979e-10
-3.26263e-09
-3.63229e-10
-3.10752e-09
-2.5292e-10
-2.96854e-09
-3.44594e-10
-2.93498e-09
-2.35715e-10
-2.68833e-09
-1.68645e-10
-2.64447e-09
-2.65859e-10
-2.562e-09
-2.38205e-10
-2.34348e-09
-3.61581e-10
-2.15298e-09
-3.76338e-10
-2.04581e-09
-3.69782e-10
-1.79093e-09
-5.02457e-10
-1.43565e-09
-5.74794e-10
-1.28949e-09
-4.65721e-10
-1.07832e-09
-3.89507e-10
-8.18775e-10
-4.75334e-10
-5.36007e-10
-4.6397e-10
-3.66588e-10
-4.08838e-10
-2.02369e-10
-2.82536e-10
-6.4989e-11
-3.27854e-10
3.07131e-11
-2.24756e-10
1.46604e-10
-2.72478e-10
2.60985e-10
-2.19451e-10
3.82818e-10
-1.80077e-10
4.8888e-10
-2.24867e-10
6.17874e-10
-2.67417e-10
7.72162e-10
-2.83185e-10
8.93551e-10
-2.46414e-10
1.01625e-09
-2.64969e-10
1.15256e-09
-2.62264e-10
1.27694e-09
-2.66799e-10
1.37947e-09
-2.24715e-10
1.41304e-09
-1.4715e-10
1.48379e-09
-1.43985e-10
1.49402e-09
6.53673e-12
1.44507e-09
1.39001e-10
1.36763e-09
2.52822e-10
1.18252e-09
3.73968e-10
9.83286e-10
4.77126e-10
8.31755e-10
4.94742e-10
6.40416e-10
4.46691e-10
5.46825e-10
3.2333e-10
4.11523e-10
2.06373e-10
3.08902e-10
1.29271e-10
3.26659e-10
-5.82186e-11
3.7284e-10
-8.17361e-11
4.98092e-10
-1.33671e-10
4.67205e-10
1.23356e-10
5.36672e-10
2.73061e-10
8.2344e-10
2.32002e-10
5.63079e-10
2.11901e-10
-2.07257e-10
2.50374e-10
-1.98072e-10
-7.01953e-11
3.20829e-17
-1.98367e-10
1.77926e-17
2.92904e-17
7.72874e-18
9.11905e-18
5.03453e-18
3.51603e-18
4.15472e-18
1.59081e-18
3.81472e-18
7.6657e-19
3.67818e-18
3.60232e-19
3.6343e-18
1.46715e-19
3.63617e-18
3.38905e-20
3.65957e-18
-2.22721e-20
3.6904e-18
-4.48207e-20
3.71975e-18
-4.65032e-20
3.74172e-18
-3.46848e-20
3.75225e-18
-1.38289e-20
3.74851e-18
1.3193e-20
3.72855e-18
4.43989e-20
3.69107e-18
7.83212e-20
3.63534e-18
1.13807e-19
3.56109e-18
1.49917e-19
3.46844e-18
1.85873e-19
3.3578e-18
2.2103e-19
3.22988e-18
2.54867e-19
3.08557e-18
2.86973e-19
2.92593e-18
3.1704e-19
2.75212e-18
3.44853e-19
2.56536e-18
3.70278e-19
2.36691e-18
3.93252e-19
2.15804e-18
4.13767e-19
1.93999e-18
4.31858e-19
1.71395e-18
4.47593e-19
1.4811e-18
4.61059e-19
1.24252e-18
4.72352e-19
9.99277e-19
4.81569e-19
7.52364e-19
4.88801e-19
5.02731e-19
4.94124e-19
2.51238e-19
4.97599e-19
4.99312e-19
1.12853e-10
-3.39332e-10
1.27941e-10
-9.64365e-11
5.95193e-11
6.05676e-12
-1.09991e-11
2.60795e-10
-1.60827e-10
4.27047e-10
-3.3944e-10
5.29613e-10
-5.1059e-10
5.56033e-10
-6.71452e-10
6.40562e-10
-9.1245e-10
9.11506e-10
-1.3045e-09
1.22731e-09
-1.6492e-09
1.0528e-09
-1.90659e-09
6.68417e-10
-2.21872e-09
8.10739e-10
-2.42726e-09
7.3237e-10
-2.67469e-09
4.4427e-10
-2.81979e-09
6.29669e-10
-3.02452e-09
5.32577e-10
-3.18439e-09
4.04475e-10
-3.31155e-09
4.9361e-10
-3.43256e-09
3.08367e-10
-3.48791e-09
2.90357e-10
-3.54668e-09
2.82727e-10
-3.61225e-09
1.99391e-10
-3.60928e-09
1.08295e-10
-3.57982e-09
3.94321e-12
-3.5779e-09
-2.44959e-11
-3.57053e-09
-5.19354e-11
-3.51852e-09
-1.74027e-10
-3.62945e-09
-2.42617e-10
-3.52246e-09
-2.53672e-10
-3.39918e-09
-2.41265e-10
-3.43418e-09
-3.28226e-10
-3.30986e-09
-3.77235e-10
-3.24998e-09
-4.0448e-10
-3.16915e-09
-3.16549e-10
-3.065e-09
-2.72789e-10
-3.06945e-09
-2.61414e-10
-2.9953e-09
-3.12353e-10
-2.82471e-09
-5.32174e-10
-2.61304e-09
-5.88007e-10
-2.41561e-09
-5.67209e-10
-2.14006e-09
-7.78012e-10
-1.7926e-09
-9.22248e-10
-1.59079e-09
-6.6753e-10
-1.30977e-09
-6.70526e-10
-1.04974e-09
-7.35363e-10
-8.6747e-10
-6.46245e-10
-6.70049e-10
-6.0626e-10
-4.21124e-10
-5.31461e-10
-3.32468e-10
-4.16511e-10
-2.06484e-10
-3.5074e-10
-1.21727e-10
-3.57237e-10
-4.05171e-11
-3.00662e-10
7.35731e-11
-2.94168e-10
1.6925e-10
-3.20545e-10
2.81936e-10
-3.80104e-10
4.21179e-10
-4.22429e-10
5.75804e-10
-4.01041e-10
6.91612e-10
-3.80779e-10
8.33194e-10
-4.03847e-10
9.05232e-10
-3.38838e-10
9.50363e-10
-2.69848e-10
9.79581e-10
-1.76369e-10
9.76659e-10
-1.41065e-10
9.88839e-10
-5.64444e-12
9.23355e-10
2.04484e-10
8.56078e-10
3.20098e-10
7.72638e-10
4.57407e-10
6.97245e-10
5.52518e-10
5.9981e-10
5.92176e-10
5.18383e-10
5.28118e-10
4.23507e-10
4.18206e-10
3.15284e-10
3.14596e-10
2.38588e-10
2.05967e-10
2.48451e-10
-6.80813e-11
3.03428e-10
-1.36712e-10
1.20109e-10
4.96491e-11
-3.38404e-10
5.81869e-10
-8.18669e-10
7.53327e-10
-1.20322e-09
6.1655e-10
-1.33311e-09
3.41796e-10
-1.42943e-09
3.467e-10
-1.32864e-09
-1.70989e-10
-6.29779e-16
-1.527e-09
-2.83277e-18
2.23135e-19
2.12579e-18
4.16165e-18
3.10931e-18
2.53483e-18
3.33049e-18
1.3722e-18
3.40838e-18
6.91371e-19
3.46466e-18
3.06713e-19
3.52147e-18
9.26778e-20
3.58e-18
-2.18828e-20
3.63702e-18
-7.6603e-20
3.68871e-18
-9.39293e-20
3.73156e-18
-8.69144e-20
3.76257e-18
-6.34302e-20
3.77927e-18
-2.84709e-20
3.77972e-18
1.45744e-20
3.76247e-18
6.32267e-20
3.72655e-18
1.15545e-19
3.67145e-18
1.69938e-19
3.59705e-18
2.25061e-19
3.50359e-18
2.79781e-19
3.39164e-18
3.3315e-19
3.26198e-18
3.84398e-19
3.11564e-18
4.3292e-19
2.95374e-18
4.78269e-19
2.77754e-18
5.20135e-19
2.58833e-18
5.58335e-19
2.38742e-18
5.92789e-19
2.17613e-18
6.23501e-19
1.95572e-18
6.50541e-19
1.72742e-18
6.74022e-19
1.49239e-18
6.94088e-19
1.25174e-18
7.10897e-19
1.00651e-18
7.24607e-19
7.57687e-19
7.35364e-19
5.06205e-19
7.43299e-19
2.52951e-19
7.48518e-19
7.51115e-19
6.95027e-12
-3.46282e-10
4.609e-11
-1.35575e-10
-2.05022e-11
7.26499e-11
-1.37058e-10
3.77351e-10
-2.98324e-10
5.88314e-10
-5.67669e-10
7.98958e-10
-9.1517e-10
9.03535e-10
-1.18752e-09
9.12908e-10
-1.45071e-09
1.1747e-09
-1.61427e-09
1.39086e-09
-1.84356e-09
1.28209e-09
-2.06567e-09
8.90534e-10
-2.18846e-09
9.33527e-10
-2.38638e-09
9.3029e-10
-2.61579e-09
6.73679e-10
-2.74151e-09
7.55385e-10
-2.94831e-09
7.39375e-10
-3.04935e-09
5.05516e-10
-3.15294e-09
5.972e-10
-3.28576e-09
4.41179e-10
-3.27367e-09
2.78266e-10
-3.34371e-09
3.52768e-10
-3.40657e-09
2.62252e-10
-3.36925e-09
7.09733e-11
-3.40478e-09
3.94764e-11
-3.42686e-09
-2.42664e-12
-3.42565e-09
-5.31453e-11
-3.41732e-09
-1.8236e-10
-3.45048e-09
-2.09456e-10
-3.4574e-09
-2.46753e-10
-3.41302e-09
-2.85647e-10
-3.41553e-09
-3.25711e-10
-3.44539e-09
-3.4738e-10
-3.49775e-09
-3.52122e-10
-3.4676e-09
-3.46698e-10
-3.37419e-09
-3.66197e-10
-3.30669e-09
-3.28916e-10
-3.16133e-09
-4.57716e-10
-3.03174e-09
-6.6176e-10
-2.86284e-09
-7.56903e-10
-2.61476e-09
-8.15289e-10
-2.30703e-09
-1.08574e-09
-1.95231e-09
-1.27697e-09
-1.65783e-09
-9.62013e-10
-1.40314e-09
-9.25208e-10
-1.16627e-09
-9.72233e-10
-9.99914e-10
-8.12604e-10
-8.6396e-10
-7.42215e-10
-8.06392e-10
-5.8903e-10
-6.4021e-10
-5.82692e-10
-4.15292e-10
-5.7566e-10
-3.58256e-10
-4.14273e-10
-2.78719e-10
-3.802e-10
-1.65756e-10
-4.07133e-10
-7.03448e-11
-4.15957e-10
5.62509e-12
-4.56075e-10
8.66318e-11
-5.03437e-10
2.16626e-10
-5.31036e-10
3.44879e-10
-5.09034e-10
4.06926e-10
-4.65895e-10
4.43122e-10
-3.75035e-10
4.82941e-10
-3.09669e-10
5.49825e-10
-2.43255e-10
5.64888e-10
-1.56129e-10
6.12835e-10
-5.35929e-11
6.398e-10
1.77518e-10
6.18028e-10
3.4187e-10
5.1787e-10
5.57563e-10
4.11294e-10
6.59093e-10
3.67416e-10
6.36054e-10
3.19923e-10
5.7561e-10
2.23587e-10
5.14542e-10
1.40097e-10
3.98087e-10
9.6275e-11
2.49789e-10
-4.50751e-11
7.32694e-11
-3.37951e-10
1.56165e-10
-7.71959e-10
4.83658e-10
-9.34526e-10
7.44438e-10
-1.09249e-09
9.11294e-10
-1.3072e-09
8.31257e-10
-1.4031e-09
4.37703e-10
-1.08113e-09
2.4731e-11
-4.66917e-10
-7.85203e-10
-5.06908e-16
-1.99392e-09
-2.41733e-18
-3.11309e-18
4.99187e-19
1.24624e-18
1.94668e-18
1.08954e-18
2.64966e-18
6.7165e-19
3.02372e-18
3.19843e-19
3.25062e-18
8.24169e-20
3.40691e-18
-6.09847e-20
3.52528e-18
-1.37639e-19
3.6197e-18
-1.68459e-19
3.69573e-18
-1.67496e-19
3.75505e-18
-1.43899e-19
3.79753e-18
-1.03738e-19
3.82232e-18
-5.12717e-20
3.82837e-18
1.02909e-20
3.81479e-18
7.8346e-20
3.78094e-18
1.50674e-19
3.72657e-18
2.25332e-19
3.65177e-18
3.00621e-19
3.55696e-18
3.75068e-19
3.44289e-18
4.47433e-19
3.31051e-18
5.16707e-19
3.16099e-18
5.82103e-19
2.99561e-18
6.43048e-19
2.81574e-18
6.99156e-19
2.62278e-18
7.50213e-19
2.41814e-18
7.96143e-19
2.20317e-18
8.36982e-19
1.9792e-18
8.72851e-19
1.74749e-18
9.03931e-19
1.5092e-18
9.30437e-19
1.26545e-18
9.52602e-19
1.01727e-18
9.70654e-19
7.65622e-19
9.84806e-19
5.11425e-19
9.95243e-19
2.55548e-19
1.00212e-18
1.00553e-18
-3.77936e-11
-3.08487e-10
-8.08202e-11
-9.25476e-11
-1.1886e-10
1.10691e-10
-1.76334e-10
4.34826e-10
-2.71022e-10
6.83003e-10
-3.56837e-10
8.84774e-10
-6.66646e-10
1.21334e-09
-1.10131e-09
1.34757e-09
-1.26955e-09
1.34294e-09
-1.39066e-09
1.51197e-09
-1.62331e-09
1.51474e-09
-1.89897e-09
1.16619e-09
-1.9848e-09
1.01936e-09
-2.26006e-09
1.20554e-09
-2.4745e-09
8.8812e-10
-2.59846e-09
8.79343e-10
-2.72498e-09
8.65892e-10
-2.83702e-09
6.17555e-10
-2.9044e-09
6.64583e-10
-3.03328e-09
5.70055e-10
-3.0327e-09
2.77685e-10
-3.1197e-09
4.39769e-10
-3.18429e-09
3.26839e-10
-3.19296e-09
7.9642e-11
-3.24996e-09
9.64823e-11
-3.28351e-09
3.11213e-11
-3.30358e-09
-3.3083e-11
-3.32551e-09
-1.60425e-10
-3.35308e-09
-1.81886e-10
-3.38236e-09
-2.17478e-10
-3.40274e-09
-2.65264e-10
-3.42476e-09
-3.03691e-10
-3.46184e-09
-3.10301e-10
-3.48995e-09
-3.24012e-10
-3.49034e-09
-3.46311e-10
-3.47212e-09
-3.84416e-10
-3.35473e-09
-4.46307e-10
-3.21982e-09
-5.92622e-10
-3.07256e-09
-8.09024e-10
-2.84296e-09
-9.86505e-10
-2.59193e-09
-1.06632e-09
-2.4129e-09
-1.26477e-09
-2.16488e-09
-1.52499e-09
-1.84233e-09
-1.28456e-09
-1.56561e-09
-1.20193e-09
-1.36525e-09
-1.17259e-09
-1.17853e-09
-9.99323e-10
-1.02897e-09
-8.91772e-10
-9.10279e-10
-7.07723e-10
-8.12598e-10
-6.80374e-10
-7.52777e-10
-6.35481e-10
-6.16869e-10
-5.50182e-10
-4.71658e-10
-5.25411e-10
-3.79772e-10
-4.9902e-10
-2.83442e-10
-5.12289e-10
-2.20337e-10
-5.19181e-10
-1.7203e-10
-5.51746e-10
-9.63614e-11
-6.06706e-10
2.77232e-11
-6.3312e-10
1.14521e-10
-5.52695e-10
1.68553e-10
-4.29069e-10
1.12434e-10
-2.53551e-10
2.40675e-11
-1.5489e-10
-4.33712e-11
-8.86914e-11
-7.84198e-11
-1.85457e-11
-6.74549e-11
1.66551e-10
-8.18119e-11
3.56226e-10
-3.36512e-11
5.09402e-10
7.85802e-11
5.46861e-10
1.71973e-10
5.42661e-10
1.77579e-10
5.70003e-10
1.60855e-10
5.31266e-10
1.19083e-10
4.3986e-10
6.3317e-11
3.05555e-10
-7.75805e-11
2.14168e-10
-2.7661e-10
3.55196e-10
-5.61076e-10
7.68125e-10
-7.34527e-10
9.1789e-10
-7.99524e-10
9.76293e-10
-7.00457e-10
7.32191e-10
-4.27785e-10
1.65033e-10
-1.41283e-10
-2.6177e-10
-3.62002e-11
-8.90284e-10
-4.8388e-16
-2.03012e-09
-1.21052e-18
-3.04641e-18
3.42813e-19
-3.06045e-19
1.52879e-18
-9.43393e-20
2.29785e-18
-9.51046e-20
2.7863e-18
-1.66199e-19
3.10722e-18
-2.36038e-19
3.33026e-18
-2.81521e-19
3.49446e-18
-2.99351e-19
3.62066e-18
-2.92206e-19
3.71933e-18
-2.6379e-19
3.79521e-18
-2.17523e-19
3.85e-18
-1.56418e-19
3.88388e-18
-8.32195e-20
3.89643e-18
-5.2366e-22
3.88711e-18
8.91685e-20
3.8556e-18
1.8346e-19
3.80186e-18
2.80102e-19
3.72622e-18
3.77041e-19
3.62933e-18
4.72468e-19
3.51216e-18
5.64851e-19
3.3759e-18
6.52946e-19
3.22193e-18
7.35799e-19
3.05172e-18
8.12727e-19
2.8668e-18
8.83296e-19
2.66871e-18
9.47286e-19
2.45898e-18
1.00465e-18
2.23904e-18
1.05549e-18
2.01028e-18
1.10001e-18
1.77399e-18
1.13846e-18
1.53136e-18
1.17117e-18
1.2835e-18
1.19846e-18
1.03142e-18
1.22064e-18
7.76059e-19
1.238e-18
5.18297e-19
1.25079e-18
2.58964e-19
1.2592e-18
1.26338e-18
-7.08823e-11
-2.37605e-10
-1.12721e-10
-5.0708e-11
-1.54752e-10
1.52722e-10
-2.14434e-10
4.94509e-10
-2.90264e-10
7.58832e-10
-3.92224e-10
9.86735e-10
-3.41212e-10
1.16233e-09
-5.49645e-10
1.55601e-09
-1.02078e-09
1.81408e-09
-1.27825e-09
1.76944e-09
-1.46986e-09
1.70635e-09
-1.77551e-09
1.47184e-09
-1.99286e-09
1.23672e-09
-2.14429e-09
1.35697e-09
-2.34545e-09
1.08929e-09
-2.42066e-09
9.54552e-10
-2.50198e-09
9.4721e-10
-2.59307e-09
7.0864e-10
-2.65666e-09
7.28177e-10
-2.73351e-09
6.46898e-10
-2.81615e-09
3.60321e-10
-2.87396e-09
4.9758e-10
-2.93561e-09
3.8849e-10
-3.01108e-09
1.55112e-10
-3.05288e-09
1.38283e-10
-3.09255e-09
7.07859e-11
-3.10001e-09
-2.5621e-11
-3.12972e-09
-1.30718e-10
-3.19343e-09
-1.1818e-10
-3.23723e-09
-1.73676e-10
-3.29136e-09
-2.11132e-10
-3.34135e-09
-2.53702e-10
-3.37628e-09
-2.75376e-10
-3.38921e-09
-3.1108e-10
-3.35499e-09
-3.80526e-10
-3.29634e-09
-4.43073e-10
-3.19076e-09
-5.51881e-10
-3.0693e-09
-7.14082e-10
-3.02799e-09
-8.50335e-10
-2.80459e-09
-1.20991e-09
-2.53794e-09
-1.33297e-09
-2.34623e-09
-1.45648e-09
-2.22334e-09
-1.64789e-09
-1.91972e-09
-1.58818e-09
-1.58951e-09
-1.53214e-09
-1.45417e-09
-1.30793e-09
-1.34282e-09
-1.11068e-09
-1.32041e-09
-9.14174e-10
-1.21469e-09
-8.13444e-10
-1.03784e-09
-8.57225e-10
-8.53744e-10
-8.1958e-10
-7.657e-10
-6.38227e-10
-6.86983e-10
-6.04129e-10
-6.10511e-10
-5.75493e-10
-5.5794e-10
-5.64861e-10
-5.0652e-10
-5.70601e-10
-4.93469e-10
-5.64799e-10
-5.41172e-10
-5.59005e-10
-6.01554e-10
-5.72739e-10
-5.9064e-10
-5.6361e-10
-5.08842e-10
-5.10868e-10
-4.93341e-10
-2.69054e-10
-4.75219e-10
-1.73014e-10
-3.86596e-10
-1.77316e-10
-4.09966e-10
4.8232e-12
-4.03131e-10
1.59716e-10
-3.24027e-10
2.7712e-10
-1.8401e-10
3.69384e-10
-4.80624e-11
4.10913e-10
2.60629e-11
4.68535e-10
6.41815e-11
5.31884e-10
8.32613e-11
5.12186e-10
6.61882e-11
4.56933e-10
1.42951e-11
3.57449e-10
-9.55209e-11
3.23984e-10
-1.92034e-10
4.5171e-10
-3.02247e-10
8.78339e-10
-4.01067e-10
1.01671e-09
-3.23361e-10
8.98588e-10
-8.87394e-11
4.97572e-10
3.14034e-10
-2.37739e-10
5.39781e-10
-4.87515e-10
4.45333e-10
-7.95835e-10
-4.7706e-16
-1.58478e-09
-7.5549e-19
-4.1244e-18
5.549e-19
-1.61544e-18
1.52803e-18
-1.06545e-18
2.22675e-18
-7.91637e-19
2.71646e-18
-6.53619e-19
3.06174e-18
-5.78974e-19
3.31243e-18
-5.29829e-19
3.50161e-18
-4.86148e-19
3.64908e-18
-4.37322e-19
3.76559e-18
-3.78017e-19
3.85631e-18
-3.06053e-19
3.9232e-18
-2.21245e-19
3.96658e-18
-1.24704e-19
3.98612e-18
-1.83623e-20
3.98141e-18
9.53729e-20
3.95224e-18
2.13889e-19
3.8988e-18
3.34577e-19
3.82164e-18
4.54988e-19
3.72171e-18
5.72942e-19
3.60025e-18
6.86597e-19
3.45876e-18
7.94479e-19
3.29886e-18
8.95478e-19
3.12229e-18
9.88831e-19
2.93079e-18
1.07409e-18
2.72608e-18
1.15105e-18
2.50982e-18
1.21976e-18
2.28355e-18
1.2804e-18
2.04874e-18
1.33328e-18
1.8067e-18
1.3788e-18
1.55865e-18
1.41739e-18
1.30568e-18
1.44947e-18
1.04878e-18
1.47549e-18
7.88847e-19
1.4958e-18
5.26713e-19
1.51074e-18
2.63144e-19
1.52056e-18
1.52544e-18
-2.51517e-11
-2.12452e-10
-7.23861e-11
-3.473e-12
-1.63948e-10
2.44285e-10
-2.54199e-10
5.8476e-10
-3.97294e-10
9.01929e-10
-4.68329e-10
1.05777e-09
-5.95918e-10
1.28992e-09
-5.68619e-10
1.52871e-09
-6.83969e-10
1.92943e-09
-1.00247e-09
2.08794e-09
-1.22944e-09
1.93332e-09
-1.48627e-09
1.72868e-09
-1.69914e-09
1.44958e-09
-1.74293e-09
1.40075e-09
-1.94773e-09
1.29409e-09
-2.08123e-09
1.08805e-09
-2.2415e-09
1.10748e-09
-2.41482e-09
8.81963e-10
-2.51474e-09
8.2809e-10
-2.54582e-09
6.77976e-10
-2.61426e-09
4.28765e-10
-2.66259e-09
5.4591e-10
-2.72582e-09
4.51717e-10
-2.79319e-09
2.22479e-10
-2.83186e-09
1.76952e-10
-2.882e-09
1.2093e-10
-2.87451e-09
-3.31189e-11
-2.91079e-09
-9.44347e-11
-2.94228e-09
-8.66953e-11
-2.94314e-09
-1.72809e-10
-2.96966e-09
-1.84617e-10
-3.00346e-09
-2.19904e-10
-3.04196e-09
-2.36871e-10
-3.0364e-09
-3.16645e-10
-2.96371e-09
-4.53212e-10
-2.88202e-09
-5.24766e-10
-2.84178e-09
-5.92119e-10
-2.74919e-09
-8.06681e-10
-2.69556e-09
-9.03963e-10
-2.59009e-09
-1.31538e-09
-2.44038e-09
-1.48268e-09
-2.32355e-09
-1.57331e-09
-2.20737e-09
-1.76407e-09
-2.04155e-09
-1.75399e-09
-1.81407e-09
-1.75962e-09
-1.68561e-09
-1.4364e-09
-1.55433e-09
-1.24196e-09
-1.42694e-09
-1.04156e-09
-1.27534e-09
-9.65049e-10
-1.18655e-09
-9.46017e-10
-1.15099e-09
-8.55139e-10
-9.95628e-10
-7.93589e-10
-8.49236e-10
-7.50522e-10
-7.62245e-10
-6.62485e-10
-7.03039e-10
-6.24068e-10
-6.73577e-10
-6.00065e-10
-7.02272e-10
-5.36105e-10
-7.30219e-10
-5.31059e-10
-7.75911e-10
-5.27049e-10
-8.07525e-10
-5.31997e-10
-8.23736e-10
-4.94658e-10
-8.14345e-10
-2.78447e-10
-7.75797e-10
-2.11563e-10
-6.51499e-10
-3.01615e-10
-6.32011e-10
-1.46651e-11
-5.46749e-10
7.44528e-11
-4.21678e-10
1.52048e-10
-2.66713e-10
2.14418e-10
-1.40822e-10
2.85022e-10
-6.66418e-11
3.94354e-10
-1.47454e-13
4.65389e-10
4.43251e-11
4.67714e-10
6.04034e-11
4.40855e-10
2.18451e-11
3.96008e-10
-4.70895e-11
3.9292e-10
-8.32001e-11
4.87821e-10
8.70602e-12
7.86434e-10
1.51713e-10
8.73704e-10
3.38004e-10
7.12298e-10
4.64489e-10
3.71088e-10
4.50719e-10
-2.23968e-10
5.27236e-10
-5.6403e-10
4.78381e-10
-7.46979e-10
-4.74732e-16
-1.1064e-09
3.75985e-19
-3.60284e-18
1.10527e-18
-2.34378e-18
1.80185e-18
-1.76008e-18
2.36477e-18
-1.35245e-18
2.7911e-18
-1.07776e-18
3.11088e-18
-8.9651e-19
3.35611e-18
-7.72773e-19
3.55043e-18
-6.78177e-19
3.70838e-18
-5.92992e-19
3.83756e-18
-5.04966e-19
3.94112e-18
-4.07474e-19
4.01974e-18
-2.97837e-19
4.07292e-18
-1.76009e-19
4.09985e-18
-4.36049e-20
4.09992e-18
9.67925e-20
4.07293e-18
2.42148e-19
4.01921e-18
3.89337e-19
3.9396e-18
5.35405e-19
3.83537e-18
6.77738e-19
3.70814e-18
8.14153e-19
3.55975e-18
9.4294e-19
3.39221e-18
1.06286e-18
3.20754e-18
1.1731e-18
3.00775e-18
1.27323e-18
2.79479e-18
1.36315e-18
2.57045e-18
1.443e-18
2.33644e-18
1.51313e-18
2.09426e-18
1.57399e-18
1.84529e-18
1.62614e-18
1.59074e-18
1.67016e-18
1.33169e-18
1.70662e-18
1.06909e-18
1.73608e-18
8.03788e-19
1.75903e-18
5.36533e-19
1.77586e-18
2.68019e-19
1.78691e-18
1.79239e-18
-2.92723e-11
-1.8318e-10
-1.06568e-10
7.38231e-11
-1.44854e-10
2.82571e-10
-1.69791e-10
6.09696e-10
-2.62891e-10
9.95029e-10
-4.47204e-10
1.24208e-09
-7.67126e-10
1.60984e-09
-1.2467e-09
2.00828e-09
-1.43861e-09
2.12134e-09
-1.4153e-09
2.06463e-09
-1.41789e-09
1.93591e-09
-1.53566e-09
1.84645e-09
-1.74731e-09
1.66123e-09
-1.83806e-09
1.4915e-09
-1.96815e-09
1.42418e-09
-2.04362e-09
1.16352e-09
-2.07646e-09
1.14031e-09
-2.20146e-09
1.00697e-09
-2.22488e-09
8.51506e-10
-2.32265e-09
7.75745e-10
-2.4405e-09
5.46611e-10
-2.48184e-09
5.87251e-10
-2.51431e-09
4.84188e-10
-2.54885e-09
2.57018e-10
-2.59912e-09
2.2722e-10
-2.63831e-09
1.60113e-10
-2.63377e-09
-3.76592e-11
-2.66333e-09
-6.48742e-11
-2.6453e-09
-1.04729e-10
-2.66019e-09
-1.57913e-10
-2.63948e-09
-2.0533e-10
-2.63336e-09
-2.26025e-10
-2.59946e-09
-2.70776e-10
-2.57305e-09
-3.43047e-10
-2.55381e-09
-4.72457e-10
-2.5276e-09
-5.50975e-10
-2.50683e-09
-6.12886e-10
-2.46638e-09
-8.4713e-10
-2.45161e-09
-9.18736e-10
-2.35624e-09
-1.41075e-09
-2.31798e-09
-1.52094e-09
-2.2761e-09
-1.61519e-09
-2.22063e-09
-1.81953e-09
-2.11759e-09
-1.85703e-09
-1.95696e-09
-1.92026e-09
-1.775e-09
-1.61836e-09
-1.71317e-09
-1.30379e-09
-1.58834e-09
-1.16639e-09
-1.47468e-09
-1.07871e-09
-1.40745e-09
-1.01324e-09
-1.27065e-09
-9.91939e-10
-1.13207e-09
-9.32176e-10
-1.07704e-09
-8.05554e-10
-1.00704e-09
-7.32485e-10
-9.75542e-10
-6.55565e-10
-9.98238e-10
-5.7737e-10
-1.05895e-09
-4.75394e-10
-1.05409e-09
-5.35919e-10
-1.10544e-09
-4.75697e-10
-1.13942e-09
-4.98026e-10
-1.12025e-09
-5.13822e-10
-1.01499e-09
-3.83715e-10
-8.6974e-10
-3.56811e-10
-7.58141e-10
-4.13216e-10
-7.13247e-10
-5.95603e-11
-6.0603e-10
-3.27654e-11
-4.79312e-10
2.53297e-11
-3.42176e-10
7.72809e-11
-2.27416e-10
1.70262e-10
-1.15724e-10
2.82661e-10
-1.99969e-11
3.69662e-10
5.44995e-11
3.93217e-10
9.05834e-11
4.04771e-10
8.45071e-11
4.02084e-10
7.47123e-11
4.02715e-10
7.7958e-11
4.84576e-10
2.66562e-10
5.97831e-10
4.391e-10
7.01168e-10
6.24141e-10
5.27259e-10
8.29163e-10
1.66067e-10
7.35521e-10
-1.30324e-10
6.18876e-10
-4.47384e-10
4.57407e-10
-5.85509e-10
-4.78637e-16
-6.48989e-10
1.19337e-18
-2.9413e-18
1.68932e-18
-2.83883e-18
2.20948e-18
-2.2783e-18
2.63946e-18
-1.78034e-18
2.97235e-18
-1.40851e-18
3.23462e-18
-1.1566e-18
3.45071e-18
-9.8665e-19
3.63562e-18
-8.60861e-19
3.79641e-18
-7.51559e-19
3.93505e-18
-6.41419e-19
4.05076e-18
-5.21063e-19
4.14157e-18
-3.86631e-19
4.20532e-18
-2.37883e-19
4.24025e-18
-7.68261e-20
4.24528e-18
9.32741e-20
4.22012e-18
2.68591e-19
4.16528e-18
4.45234e-19
4.08193e-18
6.19579e-19
3.97178e-18
7.88478e-19
3.83692e-18
9.4937e-19
3.67967e-18
1.10031e-18
3.50245e-18
1.23997e-18
3.30768e-18
1.36753e-18
3.09767e-18
1.48265e-18
2.87464e-18
1.58539e-18
2.64058e-18
1.67605e-18
2.3973e-18
1.75519e-18
2.14641e-18
1.82348e-18
1.8893e-18
1.88167e-18
1.62721e-18
1.93054e-18
1.36115e-18
1.97084e-18
1.09204e-18
2.00326e-18
8.20624e-19
2.02842e-18
5.47582e-19
2.04683e-18
2.73499e-19
2.05888e-18
2.06486e-18
-8.71975e-11
-9.59818e-11
-1.25705e-10
1.12331e-10
-1.75655e-10
3.32521e-10
-3.38389e-10
7.72431e-10
-4.85866e-10
1.14251e-09
-7.22141e-10
1.47836e-09
-6.90999e-10
1.5787e-09
-5.59635e-10
1.87692e-09
-7.29274e-10
2.29098e-09
-9.12957e-10
2.24831e-09
-1.09669e-09
2.11964e-09
-1.22038e-09
1.97014e-09
-1.36044e-09
1.80129e-09
-1.43863e-09
1.56969e-09
-1.48796e-09
1.47351e-09
-1.6971e-09
1.37266e-09
-1.83746e-09
1.28067e-09
-1.97163e-09
1.14114e-09
-2.00513e-09
8.84998e-10
-2.08711e-09
8.57724e-10
-2.19803e-09
6.57529e-10
-2.24738e-09
6.36608e-10
-2.26888e-09
5.0568e-10
-2.32671e-09
3.14847e-10
-2.3702e-09
2.7071e-10
-2.36662e-09
1.5653e-10
-2.39913e-09
-5.14309e-12
-2.40259e-09
-6.14241e-11
-2.39607e-09
-1.11249e-10
-2.39168e-09
-1.62297e-10
-2.35924e-09
-2.37769e-10
-2.34254e-09
-2.42733e-10
-2.31745e-09
-2.95866e-10
-2.29482e-09
-3.6567e-10
-2.28754e-09
-4.79741e-10
-2.24784e-09
-5.90673e-10
-2.22794e-09
-6.32785e-10
-2.2529e-09
-8.22171e-10
-2.15028e-09
-1.02136e-09
-2.16295e-09
-1.39807e-09
-2.3706e-09
-1.31329e-09
-2.24271e-09
-1.74308e-09
-2.19046e-09
-1.87179e-09
-2.15425e-09
-1.89323e-09
-2.15229e-09
-1.92221e-09
-2.05191e-09
-1.71875e-09
-1.94241e-09
-1.41329e-09
-1.79763e-09
-1.31118e-09
-1.65901e-09
-1.21733e-09
-1.56851e-09
-1.10374e-09
-1.45322e-09
-1.10723e-09
-1.36333e-09
-1.02207e-09
-1.27536e-09
-8.93521e-10
-1.23364e-09
-7.74199e-10
-1.23935e-09
-6.49863e-10
-1.27526e-09
-5.41456e-10
-1.30077e-09
-4.49886e-10
-1.30197e-09
-5.34724e-10
-1.30345e-09
-4.7422e-10
-1.30373e-09
-4.97743e-10
-1.24968e-09
-5.67873e-10
-1.11143e-09
-5.21974e-10
-9.51402e-10
-5.16835e-10
-8.88727e-10
-4.75892e-10
-7.69961e-10
-1.78328e-10
-6.91154e-10
-1.11573e-10
-5.33246e-10
-1.3258e-10
-3.56444e-10
-9.95213e-11
-2.46159e-10
5.99761e-11
-1.13995e-10
1.50497e-10
1.39765e-11
2.4169e-10
1.16614e-10
2.90579e-10
1.75114e-10
3.46272e-10
2.14292e-10
3.62907e-10
2.52706e-10
3.64302e-10
2.89882e-10
4.474e-10
4.47274e-10
4.4044e-10
6.46302e-10
5.0214e-10
8.00497e-10
3.73065e-10
8.21437e-10
1.45128e-10
7.96196e-10
-1.05081e-10
6.60807e-10
-3.11994e-10
5.24647e-10
-4.49348e-10
-4.7636e-16
-1.2434e-10
1.89133e-18
9.05765e-20
2.25016e-18
-3.19676e-18
2.70744e-18
-2.73365e-18
3.01129e-18
-2.08208e-18
3.22427e-18
-1.61935e-18
3.40457e-18
-1.33474e-18
3.5765e-18
-1.1564e-18
3.74492e-18
-1.0271e-18
3.90655e-18
-9.10998e-19
4.0554e-18
-7.8811e-19
4.18519e-18
-6.48738e-19
4.29032e-18
-4.89733e-19
4.36638e-18
-3.12045e-19
4.41035e-18
-1.19054e-19
4.4206e-18
8.45822e-20
4.39676e-18
2.93754e-19
4.33963e-18
5.03469e-19
4.25083e-18
7.09231e-19
4.13267e-18
9.07255e-19
3.98787e-18
1.09457e-18
3.81933e-18
1.26902e-18
3.63001e-18
1.42922e-18
3.4228e-18
1.57444e-18
3.20041e-18
1.70453e-18
2.96531e-18
1.81975e-18
2.71972e-18
1.92069e-18
2.46559e-18
2.00817e-18
2.2046e-18
2.08314e-18
1.93817e-18
2.14661e-18
1.6675e-18
2.19957e-18
1.39357e-18
2.243e-18
1.11719e-18
2.27776e-18
8.39033e-19
2.30462e-18
5.59638e-19
2.32421e-18
2.79472e-19
2.337e-18
2.34333e-18
-4.77191e-11
-4.82626e-11
-6.59007e-11
1.30513e-10
-1.19207e-10
3.85827e-10
-1.52716e-10
8.05941e-10
-1.73403e-10
1.16319e-09
-1.97618e-10
1.50257e-09
-4.24477e-10
1.80556e-09
-5.6404e-10
2.01648e-09
-6.03546e-10
2.33048e-09
-7.45641e-10
2.39041e-09
-9.09385e-10
2.28338e-09
-1.01889e-09
2.07964e-09
-1.14937e-09
1.93177e-09
-1.3458e-09
1.76612e-09
-1.45592e-09
1.58362e-09
-1.51698e-09
1.43372e-09
-1.58676e-09
1.35045e-09
-1.71148e-09
1.26586e-09
-1.80977e-09
9.83286e-10
-1.81021e-09
8.58157e-10
-1.91826e-09
7.65579e-10
-1.96484e-09
6.83191e-10
-1.98259e-09
5.23429e-10
-2.0737e-09
4.0595e-10
-2.08075e-09
2.77763e-10
-2.10234e-09
1.78124e-10
-2.15954e-09
5.20495e-11
-2.15147e-09
-6.94921e-11
-2.15893e-09
-1.03787e-10
-2.15237e-09
-1.68857e-10
-2.13272e-09
-2.57424e-10
-2.10533e-09
-2.70122e-10
-2.08615e-09
-3.15042e-10
-2.07392e-09
-3.77907e-10
-2.05435e-09
-4.99305e-10
-2.0145e-09
-6.30527e-10
-1.91886e-09
-7.28421e-10
-1.87479e-09
-8.66239e-10
-2.06412e-09
-8.32034e-10
-2.20439e-09
-1.2578e-09
-2.15118e-09
-1.3665e-09
-2.07822e-09
-1.81604e-09
-2.13149e-09
-1.81851e-09
-2.15887e-09
-1.86586e-09
-2.22134e-09
-1.85974e-09
-2.19903e-09
-1.74106e-09
-2.10973e-09
-1.50258e-09
-2.03675e-09
-1.38416e-09
-1.88458e-09
-1.36951e-09
-1.69707e-09
-1.29125e-09
-1.54217e-09
-1.26213e-09
-1.4566e-09
-1.10764e-09
-1.38939e-09
-9.60741e-10
-1.36511e-09
-7.98472e-10
-1.37584e-09
-6.39133e-10
-1.42797e-09
-4.89333e-10
-1.42838e-09
-4.4948e-10
-1.4551e-09
-5.07998e-10
-1.42574e-09
-5.03579e-10
-1.38421e-09
-5.39281e-10
-1.2853e-09
-6.66777e-10
-1.14999e-09
-6.57293e-10
-1.05131e-09
-6.15514e-10
-9.96425e-10
-5.30777e-10
-8.44767e-10
-3.29986e-10
-7.68715e-10
-1.87626e-10
-6.18495e-10
-2.828e-10
-3.53584e-10
-3.64432e-10
-2.26398e-10
-6.72102e-11
-6.53251e-11
-1.05765e-11
8.7883e-11
8.84821e-11
2.17123e-10
1.61339e-10
3.15696e-10
2.47699e-10
3.89054e-10
2.89549e-10
4.26773e-10
3.26584e-10
4.55362e-10
4.18812e-10
5.02244e-10
3.93559e-10
6.35069e-10
3.69316e-10
6.97368e-10
3.10767e-10
6.87412e-10
1.55085e-10
6.50637e-10
-6.83043e-11
5.05137e-10
-1.66493e-10
3.2807e-10
-2.72279e-10
-4.65596e-16
2.03732e-10
5.44426e-19
1.81196e-19
2.71352e-18
-5.36492e-18
3.35902e-18
-3.37716e-18
3.47401e-18
-2.19493e-18
3.50888e-18
-1.65207e-18
3.5829e-18
-1.4066e-18
3.7058e-18
-1.27716e-18
3.86102e-18
-1.18015e-18
4.02944e-18
-1.07726e-18
4.19478e-18
-9.5131e-19
4.34419e-18
-7.96057e-19
4.468e-18
-6.1152e-19
4.55937e-18
-4.01489e-19
4.61399e-18
-1.71887e-19
4.62977e-18
7.04099e-20
4.60648e-18
3.18433e-19
4.54539e-18
5.65716e-19
4.44885e-18
8.06671e-19
4.31999e-18
1.03679e-18
4.16232e-18
1.25267e-18
3.97952e-18
1.45202e-18
3.77524e-18
1.63349e-18
3.55289e-18