0 	-7.25912e-21 	0 	-3.62956e-21
0.010101 	-3.18915e-21 	3.72586e-22 	-3.30583e-20
0.020202 	-1.6812e-20 	-3.32831e-23 	-6.5129e-20
0.030303 	2.42743e-20 	-3.36237e-23 	-1.27231e-20
0.040404 	-7.6039e-21 	2.37069e-22 	-4.27826e-20
0.0505051 	4.2079e-20 	1.688e-22 	-7.61927e-20
