0 	0 	0 	0
0.010101 	-3.74372e-28 	-5.04215e-28 	-1.35423e-27
0.020202 	-1.83924e-27 	-4.22176e-28 	-1.0964e-27
