0 	-3.20035e-13 	0 	1.23638e-13
0.010101 	-4.37592e-11 	0 	2.39085e-12
0.020202 	-4.11303e-10 	0 	-2.68296e-11
0.030303 	3.30829e-10 	0 	-4.40715e-11
0.040404 	6.10959e-11 	0 	3.3535e-12
