0 	-3.62956e-21 	0 	-5.44434e-20
0.010101 	7.89296e-20 	2.36899e-22 	-1.18536e-19
0.020202 	2.29431e-20 	5.10977e-25 	-1.47454e-19
0.030303 	-2.24902e-20 	-1.35176e-22 	-6.77775e-20
0.040404 	5.40919e-20 	6.77584e-23 	-2.13887e-21
0.0505051 	-2.5531e-20 	1.35176e-22 	1.27769e-20
