/*--------------------------------*- C++ -*----------------------------------*\
  =========                 |
  \\      /  F ield         | OpenFOAM: The Open Source CFD Toolbox
   \\    /   O peration     | Website:  https://openfoam.org
    \\  /    A nd           | Version:  6
     \\/     M anipulation  |
\*---------------------------------------------------------------------------*/
FoamFile
{
    version     2.0;
    format      ascii;
    class       volScalarField;
    location    "3700";
    object      dmdt;
}
// * * * * * * * * * * * * * * * * * * * * * * * * * * * * * * * * * * * * * //

dimensions      [0 0 0 0 0 0 0];

internalField   nonuniform List<scalar> 
4800
(
-0.218204
-0.213434
-0.208661
-0.203866
-0.199044
-0.194193
-0.189327
-0.18447
-0.179648
-0.174887
-0.170217
-0.165665
-0.16126
-0.157035
-0.153016
-0.14922
-0.14566
-0.142338
-0.139249
-0.136387
-0.13374
-0.131294
-0.129035
-0.126959
-0.125049
-0.123302
-0.121722
-0.120292
-0.118998
-0.117844
-0.11683
-0.115926
-0.115125
-0.114434
-0.113839
-0.113329
-0.112886
-0.112501
-0.11217
-0.111888
-0.111645
-0.111434
-0.111248
-0.111084
-0.110936
-0.110799
-0.11067
-0.110546
-0.110424
-0.110302
-0.110181
-0.11006
-0.10994
-0.109819
-0.109699
-0.109578
-0.109456
-0.109329
-0.109196
-0.109053
-0.108893
-0.108708
-0.108486
-0.108212
-0.107862
-0.107403
-0.106792
-0.105968
-0.104854
-0.103349
-0.101334
-0.098675
-0.0952337
-0.0908959
-0.0856146
-0.0794419
-0.0725413
-0.0651858
-0.0576761
-0.0502624
-0.0431298
-0.036402
-0.0301376
-0.024294
-0.0187502
-0.0134863
-0.00854823
-0.00389102
0.00053227
0.00476484
0.00884285
0.0127952
0.0166446
0.0204091
0.0241031
0.0277383
0.031324
0.0348681
0.038377
0.0418556
0.0453084
0.0487387
0.0521495
0.0555432
0.0589218
0.0622871
0.0656407
0.068984
0.0723181
0.0756442
0.0789633
0.0822763
0.0855841
0.0888874
0.092187
0.0954835
0.0987775
0.10207
0.105361
0.108651
-0.218152
-0.213268
-0.208371
-0.203463
-0.198542
-0.193612
-0.188673
-0.183748
-0.178868
-0.174065
-0.169376
-0.16482
-0.160426
-0.156216
-0.152218
-0.148451
-0.144922
-0.141632
-0.138575
-0.135744
-0.133121
-0.130697
-0.12845
-0.126381
-0.124475
-0.122723
-0.121133
-0.119705
-0.118412
-0.117247
-0.116245
-0.115364
-0.11457
-0.11389
-0.113312
-0.112832
-0.112418
-0.112059
-0.111757
-0.111505
-0.111287
-0.111098
-0.110932
-0.110783
-0.110649
-0.110525
-0.110406
-0.110291
-0.110176
-0.11006
-0.109943
-0.109826
-0.109708
-0.10959
-0.109473
-0.109355
-0.109235
-0.109111
-0.10898
-0.108838
-0.108679
-0.108494
-0.108273
-0.107997
-0.107644
-0.107181
-0.106565
-0.105735
-0.104616
-0.103109
-0.101102
-0.0984641
-0.0950605
-0.0907989
-0.0855907
-0.0794416
-0.0725556
-0.0652257
-0.0577312
-0.0503048
-0.043125
-0.0363181
-0.0299368
-0.0239796
-0.0184056
-0.0131627
-0.00826521
-0.00365638
0.000721188
0.00491557
0.00896376
0.0128936
0.0167262
0.0204781
0.0241624
0.02779
0.0313698
0.034909
0.0384136
0.0418887
0.0453383
0.0487658
0.052174
0.0555654
0.0589419
0.0623053
0.065657
0.0689986
0.0723311
0.0756558
0.0789735
0.0822852
0.0855918
0.088894
0.0921924
0.0954879
0.0987809
0.102072
0.105362
0.108651
-0.218036
-0.212924
-0.207808
-0.202696
-0.197594
-0.192512
-0.187443
-0.182412
-0.177444
-0.172574
-0.167843
-0.163272
-0.158885
-0.154707
-0.150757
-0.147051
-0.14359
-0.140369
-0.137378
-0.134605
-0.132031
-0.129645
-0.127423
-0.125364
-0.123456
-0.121687
-0.120078
-0.118635
-0.11734
-0.116164
-0.115166
-0.114308
-0.113535
-0.112878
-0.112337
-0.111904
-0.111539
-0.111225
-0.110972
-0.110769
-0.110598
-0.110449
-0.110318
-0.1102
-0.110091
-0.10999
-0.10989
-0.10979
-0.109688
-0.109583
-0.109474
-0.109363
-0.109251
-0.109139
-0.109027
-0.108913
-0.108798
-0.108678
-0.108551
-0.108413
-0.108256
-0.108072
-0.107851
-0.10757
-0.107213
-0.106741
-0.106117
-0.105278
-0.10415
-0.102642
-0.100648
-0.0980496
-0.0947089
-0.0905221
-0.08542
-0.0794041
-0.0726327
-0.0653752
-0.0578968
-0.050421
-0.0431177
-0.0361203
-0.0295078
-0.0233438
-0.0176909
-0.0124841
-0.00768201
-0.00318294
0.00109616
0.00521168
0.00920014
0.0130857
0.0168857
0.0206132
0.024279
0.0278921
0.0314602
0.0349898
0.0384863
0.0419543
0.0453977
0.0488196
0.0522228
0.0556096
0.0589819
0.0623414
0.0656895
0.0690278
0.0723572
0.0756789
0.0789939
0.0823031
0.0856072
0.0889071
0.0922033
0.0954967
0.0987877
0.102077
0.105365
0.108652
-0.217866
-0.212423
-0.207006
-0.201629
-0.196288
-0.191004
-0.185764
-0.18059
-0.175507
-0.170548
-0.165758
-0.161164
-0.156796
-0.152678
-0.148822
-0.145222
-0.141867
-0.138745
-0.135848
-0.133156
-0.13065
-0.128312
-0.126118
-0.124066
-0.122141
-0.120341
-0.118689
-0.117204
-0.115887
-0.114697
-0.113698
-0.11286
-0.112119
-0.111497
-0.111004
-0.110622
-0.110316
-0.110064
-0.109874
-0.109731
-0.109619
-0.109522
-0.109438
-0.109359
-0.109285
-0.109213
-0.109137
-0.109058
-0.108973
-0.108881
-0.108783
-0.108682
-0.108578
-0.108474
-0.108368
-0.108261
-0.108153
-0.108039
-0.107918
-0.107786
-0.107631
-0.107451
-0.107228
-0.106943
-0.106582
-0.106095
-0.105463
-0.104613
-0.103476
-0.101961
-0.0999787
-0.0974224
-0.0941491
-0.0900612
-0.0850992
-0.0792751
-0.0726911
-0.0655489
-0.0581029
-0.0505707
-0.0431049
-0.0358277
-0.0288487
-0.0223245
-0.0164867
-0.0113665
-0.00676552
-0.00246862
0.00164651
0.0056398
0.00953998
0.0133621
0.017116
0.0208093
0.024449
0.0280417
0.0315933
0.035109
0.0385938
0.0420515
0.0454858
0.0488996
0.0522954
0.0556754
0.0590414
0.0623951
0.065738
0.0690712
0.072396
0.0757134
0.0790243
0.0823296
0.0856302
0.0889266
0.0922196
0.0955098
0.0987978
0.102084
0.105369
0.108653
-0.217664
-0.211833
-0.206053
-0.200344
-0.194712
-0.189182
-0.183742
-0.1784
-0.173193
-0.168163
-0.163357
-0.158787
-0.154465
-0.150417
-0.146661
-0.143189
-0.139958
-0.136955
-0.134166
-0.131567
-0.12914
-0.126856
-0.124685
-0.12263
-0.12067
-0.118818
-0.117099
-0.115545
-0.114174
-0.112971
-0.111959
-0.111136
-0.110427
-0.109853
-0.109412
-0.109084
-0.108837
-0.108651
-0.10853
-0.108452
-0.1084
-0.108359
-0.108326
-0.108293
-0.108256
-0.108216
-0.108168
-0.108111
-0.108044
-0.107968
-0.107884
-0.107794
-0.107699
-0.107605
-0.107507
-0.107408
-0.107308
-0.107199
-0.107088
-0.106961
-0.106812
-0.106635
-0.106412
-0.106124
-0.105758
-0.105255
-0.104612
-0.103752
-0.102609
-0.101095
-0.0991268
-0.0966111
-0.0934185
-0.0894642
-0.0846885
-0.0790811
-0.0726996
-0.0657008
-0.0582868
-0.0506625
-0.0429863
-0.0353537
-0.0278619
-0.020723
-0.0144614
-0.00965709
-0.00548665
-0.00153269
0.00234272
0.00617356
0.00996302
0.013708
0.0174066
0.0210589
0.0246672
0.0282349
0.031766
0.0352645
0.0387344
0.0421791
0.0456016
0.0490048
0.052391
0.0557621
0.0591199
0.0624661
0.0658019
0.0691285
0.0724472
0.0757589
0.0790644
0.0823647
0.0856605
0.0889524
0.0922411
0.0955271
0.0988111
0.102093
0.105375
0.108655
-0.217446
-0.211177
-0.204975
-0.198884
-0.192935
-0.187144
-0.1815
-0.176007
-0.170698
-0.165614
-0.160801
-0.156274
-0.152027
-0.148073
-0.144446
-0.141145
-0.138063
-0.135203
-0.132539
-0.13004
-0.127686
-0.125453
-0.123298
-0.121222
-0.119207
-0.117276
-0.115464
-0.113818
-0.112363
-0.111116
-0.110074
-0.109248
-0.108562
-0.108032
-0.107642
-0.107367
-0.107178
-0.107058
-0.107002
-0.106988
-0.106994
-0.107006
-0.107021
-0.107031
-0.107031
-0.107022
-0.107001
-0.106966
-0.106918
-0.106858
-0.106788
-0.10671
-0.106626
-0.10654
-0.106451
-0.106362
-0.106269
-0.106168
-0.106065
-0.105946
-0.105802
-0.10563
-0.105406
-0.105118
-0.104743
-0.104229
-0.103573
-0.102701
-0.10155
-0.100038
-0.0980894
-0.0956173
-0.0925093
-0.0886878
-0.0840998
-0.0787226
-0.0725667
-0.0657134
-0.0583334
-0.0506266
-0.0427401
-0.0347254
-0.0265846
-0.0183732
-0.0108067
-0.00718635
-0.00389755
-0.000456398
0.00312085
0.00676927
0.0104404
0.0141044
0.0177446
0.0213531
0.0249272
0.0284671
0.031975
0.0354537
0.0389061
0.0423352
0.0457438
0.0491342
0.0525086
0.0558689
0.0592167
0.0625535
0.0658807
0.0691993
0.0725104
0.075815
0.079114
0.082408
0.0856979
0.0889842
0.0922676
0.0955485
0.0988275
0.102105
0.105382
0.108658
-0.217217
-0.210494
-0.203852
-0.197352
-0.191035
-0.184953
-0.179115
-0.173504
-0.168132
-0.163033
-0.158245
-0.153794
-0.149669
-0.145853
-0.142376
-0.139267
-0.13634
-0.133612
-0.13105
-0.12863
-0.12633
-0.12412
-0.121959
-0.119841
-0.117754
-0.115727
-0.113806
-0.112055
-0.110518
-0.109216
-0.108138
-0.10729
-0.106618
-0.106119
-0.105767
-0.105536
-0.105404
-0.105344
-0.105346
-0.105386
-0.105444
-0.105502
-0.105557
-0.105604
-0.105637
-0.105655
-0.105657
-0.105642
-0.105611
-0.105566
-0.105509
-0.105442
-0.105369
-0.105291
-0.10521
-0.105129
-0.105045
-0.104951
-0.104856
-0.104745
-0.104607
-0.10444
-0.104218
-0.103928
-0.103542
-0.10302
-0.102349
-0.101465
-0.100305
-0.0987935
-0.0968651
-0.0944355
-0.0914143
-0.0877252
-0.0833026
-0.0781046
-0.0721363
-0.0654663
-0.0581989
-0.0504816
-0.0424467
-0.03412
-0.0253561
-0.015625
-0.001463
-0.00418588
-0.00233025
0.000565439
0.00387639
0.00736931
0.0109386
0.0145305
0.0181168
0.021683
0.0252227
0.0287338
0.0322169
0.0356737
0.0391067
0.0425182
0.0459107
0.0492864
0.0526472
0.0559948
0.0593309
0.0626568
0.0659738
0.0692829
0.0725851
0.0758814
0.0791725
0.0824592
0.0857421
0.0890218
0.0922989
0.0955738
0.098847
0.102119
0.10539
0.10866
-0.216977
-0.209784
-0.202702
-0.195805
-0.189148
-0.182779
-0.176736
-0.171017
-0.165609
-0.160549
-0.15585
-0.151527
-0.147567
-0.143914
-0.140574
-0.137614
-0.134827
-0.132211
-0.129729
-0.12736
-0.125079
-0.122859
-0.120668
-0.118494
-0.116328
-0.114197
-0.112163
-0.110301
-0.108678
-0.107312
-0.106199
-0.105327
-0.104658
-0.104175
-0.10385
-0.103651
-0.103566
-0.103556
-0.103602
-0.103688
-0.103786
-0.103879
-0.103966
-0.10404
-0.104098
-0.104137
-0.104158
-0.104159
-0.104143
-0.10411
-0.104064
-0.104005
-0.10394
-0.103869
-0.103794
-0.10372
-0.103642
-0.103556
-0.103468
-0.103365
-0.103232
-0.103069
-0.102848
-0.102555
-0.102156
-0.101627
-0.100941
-0.100041
-0.0988768
-0.0973739
-0.0954735
-0.093098
-0.0901696
-0.0866123
-0.0823614
-0.0773703
-0.0716026
-0.0650936
-0.0579342
-0.0502529
-0.042172
-0.0337466
-0.0249518
-0.0156814
-0.00303224
-0.0040533
-0.00165203
0.00126242
0.00450335
0.00792303
0.0114297
0.0149695
0.018512
0.0220409
0.0255482
0.0290307
0.0324883
0.0359221
0.0393341
0.0427263
0.046101
0.0494601
0.0528055
0.0561388
0.0594616
0.062775
0.0660803
0.0693786
0.0726706
0.0759574
0.0792395
0.0825178
0.0857927
0.0890648
0.0923347
0.0956027
0.0988692
0.102135
0.105399
0.108663
-0.21673
-0.209044
-0.201497
-0.194201
-0.187228
-0.180628
-0.174428
-0.168648
-0.163267
-0.158308
-0.153758
-0.149605
-0.145827
-0.142348
-0.139133
-0.136256
-0.133576
-0.13104
-0.128602
-0.12624
-0.123937
-0.121677
-0.119434
-0.117192
-0.114941
-0.11271
-0.110562
-0.108595
-0.10688
-0.105446
-0.10429
-0.10339
-0.102717
-0.102239
-0.101931
-0.101757
-0.101702
-0.101725
-0.101807
-0.101922
-0.102046
-0.102163
-0.102272
-0.102365
-0.102439
-0.102492
-0.102526
-0.102538
-0.102532
-0.102508
-0.102467
-0.102414
-0.102352
-0.102285
-0.102214
-0.102143
-0.10207
-0.101991
-0.101908
-0.101812
-0.101683
-0.101522
-0.1013
-0.101001
-0.100588
-0.10005
-0.0993453
-0.0984267
-0.0972526
-0.0957482
-0.0938614
-0.0915235
-0.0886653
-0.0852264
-0.0811408
-0.0763548
-0.0708166
-0.0645207
-0.0575194
-0.0499332
-0.0418934
-0.0334986
-0.0248337
-0.0159057
-0.00340773
-0.00416967
-0.00136465
0.00171291
0.00500092
0.00841832
0.0119027
0.0154129
0.0189239
0.0224219
0.0258997
0.0293547
0.0327866
0.0361965
0.0395861
0.0429576
0.0463128
0.0496538
0.0529823
0.0562997
0.0596076
0.0629072
0.0661995
0.0694856
0.0727663
0.0760424
0.0793145
0.0825833
0.0858493
0.089113
0.0923748
0.095635
0.0988941
0.102152
0.10541
0.108667
-0.216471
-0.208299
-0.200323
-0.192655
-0.185395
-0.178608
-0.172307
-0.16653
-0.161239
-0.156429
-0.152066
-0.148106
-0.1445
-0.141178
-0.138094
-0.135273
-0.132649
-0.130145
-0.127703
-0.125304
-0.122938
-0.120599
-0.118272
-0.11594
-0.113599
-0.111271
-0.109017
-0.106949
-0.10515
-0.103644
-0.102436
-0.101498
-0.100811
-0.100334
-0.100035
-0.0998767
-0.0998384
-0.0998796
-0.0999791
-0.100108
-0.100246
-0.100377
-0.100498
-0.100602
-0.100684
-0.100745
-0.100784
-0.100802
-0.100798
-0.100776
-0.100737
-0.100684
-0.100622
-0.100554
-0.100481
-0.100409
-0.100337
-0.100261
-0.100183
-0.100092
-0.0999673
-0.0998033
-0.0995772
-0.0992666
-0.0988411
-0.0982882
-0.0975625
-0.0966245
-0.0954434
-0.0939488
-0.0920855
-0.089796
-0.0870164
-0.0836781
-0.0797182
-0.0750902
-0.0697451
-0.063664
-0.0568693
-0.0494362
-0.0415077
-0.0332373
-0.0247645
-0.0161147
-0.00358764
-0.00435609
-0.00126266
0.00201485
0.00540927
0.00887055
0.0123627
0.0158614
0.0193514
0.022824
0.0262752
0.0297035
0.0331096
0.0364948
0.039861
0.0432104
0.0465448
0.0498661
0.0531761
0.0564763
0.0597679
0.0630523
0.0663304
0.0696031
0.0728713
0.0761357
0.0793968
0.0826552
0.0859114
0.0891658
0.0924187
0.0956705
0.0989214
0.102172
0.105421
0.108671
-0.216251
-0.207646
-0.199259
-0.191239
-0.183713
-0.176798
-0.170492
-0.164789
-0.159651
-0.155027
-0.150852
-0.14707
-0.143619
-0.140437
-0.137481
-0.134725
-0.132112
-0.129588
-0.127101
-0.12463
-0.122162
-0.119697
-0.117242
-0.114785
-0.112329
-0.109897
-0.107543
-0.105381
-0.103499
-0.101925
-0.100663
-0.0996774
-0.0989564
-0.0984706
-0.0981744
-0.0980232
-0.0979907
-0.0980361
-0.0981357
-0.0982666
-0.0984079
-0.0985433
-0.0986666
-0.0987725
-0.0988559
-0.0989167
-0.0989543
-0.098969
-0.0989623
-0.0989357
-0.0988914
-0.0988334
-0.0987656
-0.0986891
-0.0986091
-0.0985299
-0.0984548
-0.0983769
-0.0983008
-0.098212
-0.0980886
-0.0979188
-0.0976842
-0.0973588
-0.0969155
-0.0963374
-0.0955899
-0.0946245
-0.0934175
-0.0919106
-0.0900543
-0.0877896
-0.0850633
-0.0818302
-0.0780191
-0.0735653
-0.0684079
-0.062517
-0.0559224
-0.0486929
-0.0409631
-0.0329126
-0.0247229
-0.0164744
-0.00395459
-0.00475142
-0.00128522
0.00224435
0.00578057
0.00930989
0.0128257
0.0163228
0.0197977
0.0232482
0.0266741
0.0300761
0.0334559
0.0368155
0.0401572
0.0434831
0.0467952
0.0500955
0.0533857
0.0566672
0.0599413
0.0632092
0.0664719
0.0697302
0.0729849
0.0762365
0.0794857
0.0827329
0.0859786
0.0892229
0.0924663
0.0957088
0.0989508
0.102192
0.105434
0.108675
-0.216057
-0.207079
-0.198359
-0.190095
-0.182417
-0.175427
-0.169165
-0.163577
-0.158597
-0.154149
-0.150151
-0.146535
-0.14323
-0.140172
-0.137318
-0.134606
-0.13198
-0.129401
-0.12683
-0.124237
-0.121626
-0.119002
-0.116379
-0.113761
-0.111159
-0.108601
-0.106139
-0.103881
-0.101916
-0.100274
-0.0989594
-0.097937
-0.0971793
-0.0966678
-0.09636
-0.0962062
-0.096168
-0.0962062
-0.0962944
-0.0964155
-0.0965499
-0.0966795
-0.0967981
-0.0968999
-0.0969772
-0.0970308
-0.0970591
-0.0970631
-0.0970456
-0.0970074
-0.0969513
-0.0968815
-0.0968001
-0.0967086
-0.0966138
-0.0965209
-0.0964354
-0.0963512
-0.0962724
-0.0961777
-0.096055
-0.0958774
-0.0956231
-0.0952771
-0.09481
-0.0942031
-0.0934334
-0.092441
-0.0912036
-0.0896791
-0.0878264
-0.085588
-0.0829055
-0.079737
-0.0760164
-0.0716844
-0.0666897
-0.0609965
-0.054622
-0.0476271
-0.0401486
-0.0323882
-0.024586
-0.0170436
-0.0102265
-0.00544444
-0.00133058
0.00249763
0.00617917
0.00977486
0.0133135
0.016809
0.0202687
0.023697
0.0270971
0.030472
0.0338246
0.0371574
0.0404731
0.0437741
0.0470626
0.0503405
0.0536095
0.056871
0.0601264
0.0633767
0.0666229
0.0698658
0.073106
0.0763441
0.0795806
0.0828158
0.0860501
0.0892837
0.0925169
0.0957497
0.0989822
0.102215
0.105447
0.108679
-0.215949
-0.206746
-0.197787
-0.18931
-0.181548
-0.174578
-0.168392
-0.162936
-0.158119
-0.153836
-0.149991
-0.146517
-0.143341
-0.140396
-0.137614
-0.134903
-0.132224
-0.129543
-0.126832
-0.124082
-0.121287
-0.118471
-0.115654
-0.112852
-0.110085
-0.107387
-0.104804
-0.102446
-0.100399
-0.0986932
-0.0973206
-0.0962559
-0.0954707
-0.0949334
-0.0946017
-0.0944336
-0.0943797
-0.0944014
-0.0944702
-0.0945709
-0.094689
-0.0948064
-0.0949149
-0.0950053
-0.0950693
-0.0951083
-0.0951209
-0.0951075
-0.095071
-0.0950133
-0.0949375
-0.0948482
-0.0947464
-0.0946334
-0.0945163
-0.0944018
-0.094296
-0.0941987
-0.0941066
-0.0940013
-0.0938766
-0.0936867
-0.0934026
-0.0930233
-0.0925193
-0.0918779
-0.0910683
-0.0900302
-0.0887487
-0.0872091
-0.0853592
-0.0831404
-0.0804968
-0.0773806
-0.0737408
-0.0695277
-0.0646707
-0.0591388
-0.0529409
-0.0461364
-0.0388559
-0.0313099
-0.0237918
-0.016713
-0.010503
-0.0054336
-0.00106277
0.00291719
0.00667617
0.0103038
0.0138472
0.0173314
0.0207705
0.0241732
0.0275453
0.0308911
0.0342146
0.0375191
0.0408073
0.044082
0.0473454
0.0505995
0.053846
0.0570864
0.0603219
0.0635536
0.0667823
0.0700089
0.0732338
0.0764575
0.0796806
0.0829031
0.0861255
0.0893478
0.0925702
0.0957927
0.0990153
0.102238
0.105461
0.108684
-0.215803
-0.206362
-0.197304
-0.188836
-0.181125
-0.174241
-0.168162
-0.162833
-0.15816
-0.154025
-0.150335
-0.146992
-0.143926
-0.141064
-0.138307
-0.135554
-0.13279
-0.129971
-0.12708
-0.124118
-0.121104
-0.118064
-0.115034
-0.112037
-0.109091
-0.106237
-0.103525
-0.101063
-0.0989336
-0.0971663
-0.0957466
-0.0946411
-0.0938273
-0.0932661
-0.0929098
-0.0927163
-0.0926361
-0.0926338
-0.0926768
-0.0927503
-0.0928447
-0.092945
-0.0930368
-0.0931076
-0.0931521
-0.0931706
-0.0931626
-0.093126
-0.0930634
-0.0929781
-0.0928742
-0.0927563
-0.092626
-0.0924854
-0.0923403
-0.0921977
-0.092064
-0.0919403
-0.0918212
-0.0916952
-0.0915542
-0.0913498
-0.0910329
-0.0906061
-0.090055
-0.0893753
-0.0885246
-0.0874478
-0.086117
-0.0845284
-0.0826427
-0.080413
-0.0777976
-0.0747421
-0.0711824
-0.0670676
-0.0623139
-0.0568866
-0.0508143
-0.0441495
-0.0370084
-0.0296014
-0.0222457
-0.0154225
-0.00960663
-0.00470022
-0.000387443
0.0035684
0.00731045
0.0109193
0.0144399
0.0178974
0.0213071
0.0246787
0.0280189
0.031333
0.0346253
0.0378993
0.0411584
0.0444052
0.047642
0.050871
0.0540937
0.0573118
0.0605264
0.0637385
0.0669489
0.0701582
0.0733671
0.0765758
0.0797848
0.0829942
0.086204
0.0894146
0.0926257
0.0958374
0.0990497
0.102262
0.105476
0.108689
-0.215821
-0.206417
-0.197393
-0.188969
-0.181317
-0.174507
-0.168518
-0.163272
-0.158688
-0.154678
-0.151128
-0.147903
-0.144923
-0.1421
-0.139316
-0.136497
-0.133615
-0.130623
-0.127515
-0.124308
-0.121038
-0.117748
-0.114486
-0.111281
-0.108155
-0.105145
-0.102306
-0.0997434
-0.0975298
-0.0956991
-0.094235
-0.0930922
-0.0922498
-0.0916629
-0.0912836
-0.0910611
-0.0909518
-0.0909186
-0.0909308
-0.090974
-0.0910398
-0.0911146
-0.0911807
-0.0912255
-0.0912442
-0.0912366
-0.0912026
-0.0911375
-0.0910443
-0.0909263
-0.0907888
-0.0906356
-0.0904688
-0.090294
-0.090115
-0.089938
-0.0897696
-0.0896088
-0.0894525
-0.0892872
-0.0891018
-0.0888648
-0.088508
-0.0880284
-0.0874226
-0.0866803
-0.0857645
-0.0846353
-0.0832652
-0.0816346
-0.0797146
-0.0774687
-0.0748494
-0.0717925
-0.0682554
-0.0641975
-0.0595441
-0.0542349
-0.0482781
-0.0417212
-0.0346432
-0.0272097
-0.0197772
-0.0130238
-0.00778456
-0.00336239
0.000650851
0.00443591
0.00807784
0.0116214
0.0150927
0.0185082
0.0218791
0.0252135
0.0285176
0.0317967
0.0350552
0.0382967
0.0415247
0.0447418
0.0479506
0.0511531
0.054351
0.0575457
0.0607383
0.0639299
0.0671212
0.0703127
0.0735049
0.0766981
0.0798924
0.0830881
0.0862851
0.0894834
0.0926829
0.0958836
0.0990852
0.102288
0.10549
0.108694
-0.215836
-0.206484
-0.197584
-0.189344
-0.181855
-0.175159
-0.169283
-0.164173
-0.159728
-0.155838
-0.15238
-0.149227
-0.146282
-0.14345
-0.140597
-0.137679
-0.134634
-0.131428
-0.128067
-0.124582
-0.121033
-0.117488
-0.113999
-0.110591
-0.107282
-0.104114
-0.101146
-0.0984837
-0.0961927
-0.0942992
-0.0927879
-0.0916109
-0.0907444
-0.0901328
-0.0897264
-0.0894687
-0.0893302
-0.0892656
-0.0892472
-0.0892595
-0.0892934
-0.0893341
-0.0893663
-0.0893785
-0.0893661
-0.0893267
-0.0892616
-0.0891613
-0.0890338
-0.0888796
-0.0887049
-0.0885122
-0.0883045
-0.0880888
-0.0878687
-0.0876495
-0.0874376
-0.0872304
-0.0870264
-0.0868046
-0.0865538
-0.0862548
-0.0858396
-0.0853048
-0.0846401
-0.0838286
-0.0828503
-0.0816603
-0.0802339
-0.0785493
-0.07658
-0.0743025
-0.0716796
-0.0686414
-0.065135
-0.0611248
-0.0565495
-0.0513485
-0.0454882
-0.0389733
-0.0318814
-0.0242855
-0.0163516
-0.00905623
-0.00515139
-0.00162065
0.00191212
0.00544105
0.00893785
0.0123901
0.015796
0.019159
0.0224838
0.0257757
0.0290398
0.0322807
0.0355027
0.0387095
0.0419044
0.0450902
0.0482695
0.0514441
0.0546159
0.0577862
0.0609561
0.0641265
0.0672979
0.070471
0.073646
0.0768231
0.0800025
0.0831841
0.0863679
0.0895537
0.0927414
0.0959307
0.0991214
0.102313
0.105506
0.108699
-0.216005
-0.206951
-0.198262
-0.190179
-0.182851
-0.176331
-0.170627
-0.16564
-0.161297
-0.157486
-0.154078
-0.150942
-0.147969
-0.145061
-0.142094
-0.139023
-0.135772
-0.132321
-0.128678
-0.124891
-0.121048
-0.117247
-0.113542
-0.109946
-0.106464
-0.103138
-0.100048
-0.097301
-0.0949466
-0.0929989
-0.0914421
-0.0902238
-0.0893284
-0.0886929
-0.088259
-0.0879654
-0.0877903
-0.0876912
-0.0876422
-0.0876233
-0.0876233
-0.0876266
-0.0876206
-0.0875946
-0.0875455
-0.0874695
-0.0873675
-0.0872275
-0.087061
-0.0868667
-0.0866503
-0.0864135
-0.0861606
-0.0858967
-0.085627
-0.0853559
-0.0850881
-0.0848207
-0.0845504
-0.0842534
-0.0839226
-0.083545
-0.0830508
-0.0824489
-0.0817196
-0.0808362
-0.0797928
-0.0785361
-0.0770491
-0.0753097
-0.0732914
-0.0709763
-0.0683334
-0.065301
-0.0618071
-0.0578165
-0.0532861
-0.0481656
-0.0424208
-0.0360264
-0.0289971
-0.0212407
-0.0120322
-0.00087031
-0.00218441
9.53078e-05
0.00316055
0.00646507
0.00983135
0.0131955
0.0165345
0.0198415
0.0231165
0.0263623
0.029583
0.0327828
0.0359657
0.0391355
0.0422953
0.0454482
0.0485964
0.051742
0.0548867
0.0580317
0.061178
0.0643265
0.0674776
0.0706318
0.0737892
0.07695
0.0801141
0.0832814
0.0864517
0.0896248
0.0928005
0.0959783
0.099158
0.102339
0.105521
0.108704
-0.216194
-0.207497
-0.199124
-0.191302
-0.184178
-0.177806
-0.172201
-0.167319
-0.163109
-0.159403
-0.156049
-0.152903
-0.149866
-0.146842
-0.143728
-0.140454
-0.136969
-0.133256
-0.129313
-0.125202
-0.121055
-0.117006
-0.113104
-0.109342
-0.105718
-0.102264
-0.0990545
-0.0962016
-0.0937681
-0.0917664
-0.090177
-0.0889308
-0.0880051
-0.0873382
-0.086872
-0.08655
-0.0863439
-0.0862157
-0.0861361
-0.0860853
-0.0860503
-0.086016
-0.0859701
-0.0859043
-0.0858149
-0.0856975
-0.0855515
-0.0853691
-0.0851584
-0.0849192
-0.0846552
-0.0843689
-0.0840631
-0.083742
-0.0834118
-0.0830765
-0.0827391
-0.0823952
-0.0820408
-0.0816532
-0.0812267
-0.0807552
-0.080169
-0.0794844
-0.0786799
-0.0777263
-0.076614
-0.0752862
-0.0737366
-0.0719431
-0.0698771
-0.067524
-0.0648528
-0.0618232
-0.0583548
-0.0543993
-0.049919
-0.0448908
-0.0393063
-0.033163
-0.0264929
-0.0193862
-0.0120241
-0.00531294
-0.00203347
0.000984811
0.00414365
0.00740754
0.0107111
0.0140134
0.0172949
0.0205481
0.0237723
0.0269699
0.0301446
0.0333006
0.036442
0.0395724
0.0426953
0.0458135
0.0489293
0.0520447
0.0551612
0.0582801
0.0614023
0.0645283
0.0676587
0.0707937
0.0739332
0.0770774
0.0802261
0.083379
0.0865358
0.0896962
0.0928597
0.096026
0.0991946
0.102365
0.105537
0.108709
-0.216401
-0.2081
-0.200079
-0.192552
-0.185663
-0.179504
-0.174114
-0.169414
-0.165286
-0.161581
-0.158204
-0.154994
-0.15184
-0.148651
-0.145348
-0.141856
-0.138124
-0.134123
-0.129868
-0.125448
-0.121019
-0.116736
-0.112649
-0.108722
-0.104948
-0.10137
-0.0980654
-0.0951391
-0.0926498
-0.090605
-0.0889841
-0.0877235
-0.0867862
-0.0861017
-0.0856081
-0.0852533
-0.0850157
-0.0848626
-0.0847521
-0.0846701
-0.0846003
-0.0845295
-0.0844442
-0.0843371
-0.0842061
-0.0840431
-0.0838481
-0.0836188
-0.0833581
-0.083068
-0.0827493
-0.082406
-0.0820379
-0.0816499
-0.081248
-0.0808353
-0.0804133
-0.0799757
-0.0795221
-0.0790318
-0.0784946
-0.0779122
-0.0772263
-0.0764473
-0.0755569
-0.0745294
-0.0733448
-0.0719451
-0.0703347
-0.0684886
-0.0663777
-0.0639942
-0.061303
-0.0582788
-0.0548441
-0.050954
-0.0465816
-0.0417083
-0.0363369
-0.0305048
-0.0242827
-0.0178176
-0.0113826
-0.00554179
-0.00167775
0.00169656
0.00499305
0.00828677
0.0115726
0.0148368
0.0180713
0.0212744
0.0244479
0.0275955
0.0307218
0.0338314
0.0369287
0.0400177
0.0431017
0.0461836
0.0492656
0.0523497
0.0554373
0.0585295
0.061627
0.0647303
0.0678396
0.0709551
0.0740768
0.0772043
0.0803375
0.083476
0.0866193
0.089767
0.0929185
0.0960734
0.099231
0.102391
0.105552
0.108714
-0.216608
-0.208722
-0.201095
-0.193911
-0.187316
-0.181408
-0.176194
-0.171584
-0.167483
-0.163807
-0.160423
-0.157125
-0.153833
-0.150472
-0.146969
-0.143229
-0.139201
-0.134877
-0.130301
-0.125591
-0.120916
-0.116407
-0.112126
-0.108047
-0.104155
-0.100474
-0.0970905
-0.0941144
-0.0915966
-0.0895438
-0.0879216
-0.0866521
-0.0856923
-0.084984
-0.0844693
-0.0840944
-0.0838339
-0.0836554
-0.0835159
-0.083406
-0.0833048
-0.0831992
-0.083075
-0.0829254
-0.0827512
-0.0825384
-0.0822912
-0.0820093
-0.081693
-0.0813449
-0.0809645
-0.0805551
-0.0801153
-0.0796513
-0.0791672
-0.0786655
-0.0781444
-0.0775996
-0.0770323
-0.0764278
-0.0757696
-0.0750632
-0.0742684
-0.0733869
-0.0724026
-0.0712951
-0.0700326
-0.0685667
-0.066902
-0.0650034
-0.0628552
-0.0604457
-0.0577396
-0.0547235
-0.0513427
-0.0475474
-0.0433116
-0.038625
-0.0335026
-0.02801
-0.0222374
-0.0162848
-0.0102333
-0.00287765
-0.000874938
0.0024571
0.00581907
0.00914958
0.0124346
0.0156723
0.0188657
0.02202
0.0251415
0.0282368
0.031312
0.0343724
0.0374232
0.0404685
0.0435117
0.0465557
0.0496028
0.0526547
0.0557127
0.0587776
0.0618501
0.0649304
0.0680186
0.0711147
0.0742184
0.0773294
0.0804473
0.0835715
0.0867014
0.0898366
0.0929763
0.0961199
0.0992667
0.102416
0.105567
0.108719
-0.216817
-0.209368
-0.202181
-0.195399
-0.189135
-0.183461
-0.1784
-0.173888
-0.169834
-0.166135
-0.16266
-0.159215
-0.155753
-0.152193
-0.148456
-0.144444
-0.14012
-0.135484
-0.130598
-0.125613
-0.120699
-0.115989
-0.111551
-0.107359
-0.103377
-0.099624
-0.0961926
-0.0931882
-0.0906438
-0.0885597
-0.0869224
-0.0856664
-0.0847171
-0.0840081
-0.0834845
-0.0830984
-0.0828213
-0.0826185
-0.0824581
-0.0823257
-0.0821978
-0.0820601
-0.0818979
-0.081706
-0.0814846
-0.08122
-0.0809165
-0.0805767
-0.0801978
-0.0797837
-0.0793337
-0.0788491
-0.0783298
-0.0777812
-0.0772062
-0.0766066
-0.0759784
-0.07532
-0.07463
-0.073899
-0.0731113
-0.0722725
-0.071359
-0.0703684
-0.0692801
-0.0680862
-0.0667403
-0.0652137
-0.0634992
-0.061541
-0.0593609
-0.0569335
-0.054228
-0.051228
-0.0478905
-0.0441844
-0.0400916
-0.0356077
-0.0307506
-0.0256024
-0.0202609
-0.0148185
-0.00942961
-0.00436325
-0.000448467
0.00317617
0.00666037
0.0100373
0.0133236
0.0165346
0.0196847
0.0227871
0.0258532
0.0288924
0.0319128
0.0349209
0.0379223
0.0409215
0.0439221
0.0469269
0.049938
0.0529569
0.0559847
0.0590221
0.0620694
0.0651268
0.068194
0.0712708
0.0743568
0.0774515
0.0805543
0.0836645
0.0867814
0.0899044
0.0930325
0.0961651
0.0993014
0.102441
0.105582
0.108724
-0.217035
-0.210019
-0.203251
-0.196854
-0.190918
-0.185491
-0.180588
-0.176156
-0.172128
-0.168386
-0.164795
-0.16119
-0.157532
-0.153741
-0.149744
-0.145462
-0.140857
-0.135925
-0.130738
-0.125483
-0.12034
-0.115446
-0.11088
-0.106628
-0.102641
-0.0989038
-0.0954593
-0.0924125
-0.0898328
-0.0877381
-0.0861011
-0.0848515
-0.0839057
-0.0832007
-0.0826764
-0.0822867
-0.0820009
-0.081784
-0.0816135
-0.0814649
-0.0813159
-0.0811503
-0.0809527
-0.0807197
-0.0804483
-0.0801321
-0.0797668
-0.0793623
-0.0789107
-0.078421
-0.0778918
-0.0773242
-0.0767189
-0.0760793
-0.0754084
-0.0747085
-0.0739773
-0.0732115
-0.0724027
-0.0715404
-0.0706151
-0.0696356
-0.0685941
-0.0674881
-0.066288
-0.0649916
-0.0635531
-0.0619585
-0.0601896
-0.0581759
-0.0559575
-0.053518
-0.0508112
-0.0478307
-0.0445431
-0.0409233
-0.0369654
-0.0326602
-0.0280078
-0.0231033
-0.018071
-0.0130309
-0.00812646
-0.00359554
0.000360397
0.00408273
0.00762028
0.011007
0.0142721
0.0174413
0.0205374
0.0235795
0.0265832
0.0295607
0.0325216
0.0354735
0.0384225
0.0413733
0.0443295
0.0472937
0.0502679
0.0532533
0.0562508
0.0592606
0.0622829
0.0653175
0.068364
0.0714219
0.0744906
0.0775694
0.0806575
0.0837541
0.0868584
0.0899695
0.0930866
0.0962086
0.0993348
0.102464
0.105596
0.108729
-0.217256
-0.210672
-0.204312
-0.198276
-0.192641
-0.187451
-0.182712
-0.178356
-0.174343
-0.170511
-0.166761
-0.162973
-0.159093
-0.155059
-0.150809
-0.146262
-0.141365
-0.136152
-0.130712
-0.125196
-0.119812
-0.114737
-0.110064
-0.10578
-0.101806
-0.0980992
-0.0946982
-0.0917011
-0.0891611
-0.0870874
-0.0854623
-0.0842286
-0.0832979
-0.0826036
-0.0820857
-0.0817
-0.081415
-0.081199
-0.0810265
-0.0808684
-0.0807014
-0.0805109
-0.080282
-0.0800126
-0.0796952
-0.0793275
-0.0788984
-0.0784187
-0.0778811
-0.0773016
-0.0766812
-0.0760199
-0.0753189
-0.0745815
-0.0738145
-0.0730272
-0.0722216
-0.0713835
-0.070483
-0.0694964
-0.0684268
-0.0672965
-0.0661141
-0.06488
-0.0635593
-0.0621358
-0.0605821
-0.0588907
-0.0570234
-0.0549312
-0.0526479
-0.0501939
-0.0474704
-0.0445023
-0.0412789
-0.0377398
-0.0338729
-0.0296735
-0.0251122
-0.0202582
-0.0152587
-0.0103829
-0.00583966
-0.00182567
0.00168019
0.00532546
0.00879667
0.0121153
0.0153113
0.018409
0.0214315
0.0243998
0.0273311
0.0302394
0.0331351
0.0360265
0.0389198
0.0418198
0.0447299
0.0476525
0.0505892
0.0535409
0.0565079
0.0594904
0.062488
0.0655003
0.0685267
0.0715662
0.0746182
0.0776817
0.0807557
0.0838394
0.0869316
0.0900315
0.0931379
0.0962499
0.0993664
0.102486
0.105609
0.108733
-0.217479
-0.211327
-0.205368
-0.199687
-0.194341
-0.189362
-0.184749
-0.180437
-0.176379
-0.172406
-0.168469
-0.164456
-0.160307
-0.155973
-0.151394
-0.14654
-0.141396
-0.135948
-0.130281
-0.124559
-0.119004
-0.113819
-0.109107
-0.104859
-0.10098
-0.0973915
-0.0940974
-0.0911713
-0.0886747
-0.0866457
-0.0850686
-0.0838696
-0.0829584
-0.0822728
-0.0817677
-0.0814002
-0.0811356
-0.0809376
-0.0807703
-0.0805992
-0.0804051
-0.0801866
-0.0799366
-0.0796425
-0.0792945
-0.0788828
-0.0783918
-0.0778206
-0.0771793
-0.0764912
-0.0757626
-0.0749872
-0.0741704
-0.0733205
-0.0724596
-0.0716221
-0.0708175
-0.0699959
-0.0690653
-0.0679671
-0.0667436
-0.0654574
-0.0641242
-0.0627454
-0.0612773
-0.0596836
-0.0579776
-0.0561493
-0.0541106
-0.0518397
-0.0494436
-0.0469918
-0.0441478
-0.0411044
-0.0380201
-0.0345631
-0.0306862
-0.0263952
-0.021714
-0.0165562
-0.0112175
-0.00613977
-0.00177453
0.00133029
0.00213845
0.00705116
0.010282
0.0134069
0.0164622
0.0194471
0.0223703
0.0252474