/*--------------------------------*- C++ -*----------------------------------*\
  =========                 |
  \\      /  F ield         | OpenFOAM: The Open Source CFD Toolbox
   \\    /   O peration     | Website:  https://openfoam.org
    \\  /    A nd           | Version:  6
     \\/     M anipulation  |
\*---------------------------------------------------------------------------*/
FoamFile
{
    version     2.0;
    format      ascii;
    class       surfaceScalarField;
    location    "3700";
    object      phi;
}
// * * * * * * * * * * * * * * * * * * * * * * * * * * * * * * * * * * * * * //

dimensions      [0 3 -1 0 0 0 0];

internalField   nonuniform List<scalar> 
9440
(
3.13433e-10
-3.13433e-10
8.1241e-10
-4.98978e-10
1.26158e-09
-4.49173e-10
1.58483e-09
-3.23245e-10
1.83599e-09
-2.51167e-10
1.94325e-09
-1.07252e-10
2.05559e-09
-1.12347e-10
2.16459e-09
-1.08996e-10
2.22351e-09
-5.89253e-11
2.22815e-09
-4.64165e-12
2.18023e-09
4.79243e-11
2.0913e-09
8.8929e-11
1.9751e-09
1.16197e-10
1.90685e-09
6.82501e-11
1.84851e-09
5.83381e-11
1.80552e-09
4.29919e-11
1.81226e-09
-6.74215e-12
1.81813e-09
-5.86539e-12
1.89219e-09
-7.40601e-11
1.94329e-09
-5.11025e-11
2.13855e-09
-1.95262e-10
2.15448e-09
-1.59286e-11
2.48109e-09
-3.26613e-10
2.70016e-09
-2.19071e-10
2.8385e-09
-1.38337e-10
3.31602e-09
-4.77521e-10
3.96506e-09
-6.49044e-10
4.18194e-09
-2.16875e-10
4.58745e-09
-4.05511e-10
5.68888e-09
-1.10143e-09
6.0337e-09
-3.44825e-10
6.18793e-09
-1.5423e-10
7.16296e-09
-9.75027e-10
7.93529e-09
-7.72331e-10
8.75547e-09
-8.20179e-10
9.1848e-09
-4.29333e-10
9.23978e-09
-5.49844e-11
9.48215e-09
-2.42366e-10
9.68231e-09
-2.00164e-10
9.70858e-09
-2.62729e-11
9.73438e-09
-2.57932e-11
9.74552e-09
-1.11435e-11
9.80643e-09
-6.09165e-11
9.87844e-09
-7.20102e-11
9.88229e-09
-3.85229e-12
9.84295e-09
3.93447e-11
9.78332e-09
5.96301e-11
9.66262e-09
1.207e-10
9.54501e-09
1.17604e-10
9.41765e-09
1.27362e-10
9.32861e-09
8.90369e-11
9.2685e-09
6.01121e-11
9.21757e-09
5.09284e-11
9.19879e-09
1.87763e-11
9.13558e-09
6.32087e-11
9.09893e-09
3.66548e-11
9.0192e-09
7.97251e-11
8.93426e-09
8.49404e-11
8.82905e-09
1.05206e-10
8.74238e-09
8.66663e-11
8.53506e-09
2.07325e-10
8.46514e-09
6.99177e-11
8.24388e-09
2.21258e-10
8.0471e-09
1.96776e-10
7.90691e-09
1.40194e-10
7.58886e-09
3.18044e-10
7.38227e-09
2.06589e-10
7.04716e-09
3.35109e-10
6.67348e-09
3.73683e-10
6.2095e-09
4.63981e-10
5.63154e-09
5.77957e-10
5.03595e-09
5.95595e-10
4.25743e-09
7.78518e-10
3.2854e-09
9.72027e-10
2.51752e-09
7.67874e-10
1.76401e-09
7.53517e-10
9.07935e-10
8.56069e-10
2.01947e-10
7.05988e-10
-3.35639e-10
5.37586e-10
-6.95524e-10
3.59884e-10
-8.7881e-10
1.83285e-10
-8.17731e-10
-6.10791e-11
-2.07077e-10
-6.10655e-10
4.35503e-10
-6.4258e-10
9.60246e-17
4.35503e-10
-2.06016e-20
2.78258e-18
-1.14592e-18
1.12532e-18
-1.64399e-18
4.97969e-19
-1.84597e-18
2.01941e-19
-1.88014e-18
3.42018e-20
-1.80643e-18
-7.36149e-20
-1.65847e-18
-1.47782e-19
-1.45818e-18
-2.00015e-19
-1.22155e-18
-2.3625e-19
-9.6117e-19
-2.59864e-19
-6.87502e-19
-2.73004e-19
-4.0948e-19
-2.77195e-19
-1.34841e-19
-2.73647e-19
1.29718e-19
-2.63413e-19
3.78474e-19
-2.4747e-19
6.06638e-19
-2.26762e-19
8.10335e-19
-2.02209e-19
9.86586e-19
-1.74707e-19
1.13327e-18
-1.45113e-19
1.24907e-18
-1.14234e-19
1.33343e-18
-8.28141e-20
1.38646e-18
-5.152e-20
1.40886e-18
-2.09351e-20
1.40184e-18
8.44418e-21
1.36701e-18
3.6208e-20
1.30633e-18
6.20285e-20
1.222e-18
8.56532e-20
1.1164e-18
1.06895e-19
9.92049e-19
1.25622e-19
8.5156e-19
1.41749e-19
6.97584e-19
1.55224e-19
5.328e-19
1.66024e-19
3.59882e-19
1.74151e-19
1.81461e-19
1.79649e-19
1.82685e-19
4.87762e-10
-8.01195e-10
8.27321e-10
-8.38538e-10
1.12266e-09
-7.44508e-10
1.37816e-09
-5.78753e-10
1.60155e-09
-4.74558e-10
1.7177e-09
-2.23396e-10
1.71978e-09
-1.14434e-10
1.68545e-09
-7.46588e-11
1.59478e-09
3.17394e-11
1.58613e-09
4.01345e-12
1.5629e-09
7.11498e-11
1.5009e-09
1.50924e-10
1.43701e-09
1.8009e-10
1.31185e-09
1.9341e-10
1.21474e-09
1.55445e-10
1.15009e-09
1.07642e-10
1.08286e-09
6.04848e-11
1.06957e-09
7.42168e-12
1.08564e-09
-9.01243e-11
1.16982e-09
-1.35288e-10
1.26239e-09
-2.87832e-10
1.37724e-09
-1.30781e-10
1.52454e-09
-4.73916e-10
1.75506e-09
-4.49585e-10
2.02207e-09
-4.05345e-10
2.45902e-09
-9.14479e-10
2.86476e-09
-1.05478e-09
3.50478e-09
-8.569e-10
3.78342e-09
-6.84151e-10
4.41983e-09
-1.73785e-09
5.45956e-09
-1.38456e-09
5.92068e-09
-6.15351e-10
6.45868e-09
-1.51303e-09
7.03111e-09
-1.34476e-09
7.59584e-09
-1.38492e-09
7.70765e-09
-5.4114e-10
8.0142e-09
-3.61541e-10
8.55184e-09
-7.80007e-10
8.84777e-09
-4.96093e-10
9.0205e-09
-1.99008e-10
9.1347e-09
-1.39988e-10
9.21169e-09
-8.81341e-11
9.18795e-09
-3.71852e-11
9.11709e-09
-1.14821e-12
9.03604e-09
7.71944e-11
8.93662e-09
1.38767e-10
8.85157e-09
1.44677e-10
8.79206e-09
1.80206e-10
8.69796e-09
2.1171e-10
8.63165e-09
1.93667e-10
8.56253e-09
1.58155e-10
8.50445e-09
1.1819e-10
8.46098e-09
9.43992e-11
8.44814e-09
3.16139e-11
8.40298e-09
1.08363e-10
8.37998e-09
5.9653e-11
8.35425e-09
1.05452e-10
8.24304e-09
1.96153e-10
8.23202e-09
1.16226e-10
8.0619e-09
2.56786e-10
7.98643e-09
2.82791e-10
7.87903e-09
1.77316e-10
7.69977e-09
4.00515e-10
7.61335e-09
2.83193e-10
7.42297e-09
3.30569e-10
7.25795e-09
4.83069e-10
6.91626e-09
5.48275e-10
6.72476e-09
5.2661e-10
6.29542e-09
8.0302e-10
5.80041e-09
9.58986e-10
5.50557e-09
8.72795e-10
4.72075e-09
1.38041e-09
4.17899e-09
1.32028e-09
3.97564e-09
1.17538e-09
2.85887e-09
1.88464e-09
1.6183e-09
1.99409e-09
7.10811e-10
1.76356e-09
6.65148e-11
1.35028e-09
-3.81347e-10
9.85447e-10
-6.88504e-10
6.6704e-10
-7.93126e-10
2.87907e-10
-5.92899e-10
-2.61307e-10
-3.00013e-10
-9.0354e-10
8.98084e-11
-1.0324e-09
1.4147e-17
5.25311e-10
-1.67699e-18
1.84267e-18
-1.77255e-18
1.22079e-18
-1.93947e-18
6.64897e-19
-2.01371e-18
2.76326e-19
-1.98796e-18
8.72522e-21
-1.88059e-18
-1.80566e-19
-1.7107e-18
-3.17102e-19
-1.49441e-18
-4.15538e-19
-1.24516e-18
-4.84526e-19
-9.74309e-19
-5.29494e-19
-6.91693e-19
-5.54133e-19
-4.05932e-19
-5.61198e-19
-1.24607e-19
-5.52955e-19
1.45661e-19
-5.3143e-19
3.99182e-19
-4.98542e-19
6.3119e-19
-4.56168e-19
8.37837e-19
-4.06151e-19
1.01618e-18
-3.50288e-19
1.16415e-18
-2.90307e-19
1.28049e-18
-2.27832e-19
1.36472e-18
-1.64356e-19
1.41704e-18
-1.01216e-19
1.43824e-18
-3.95802e-20
1.4296e-18
1.9561e-20
1.39284e-18
7.53934e-20
1.32996e-18
1.27269e-19
1.24324e-18
1.7469e-19
1.13512e-18
2.17293e-19
1.00818e-18
2.54825e-19
8.65035e-19
2.87123e-19
7.08384e-19
3.14091e-19
5.40927e-19
3.35685e-19
3.6538e-19
3.51894e-19
1.84496e-19
3.62722e-19
3.68143e-19
4.24337e-10
-1.22553e-09
7.47169e-10
-1.16137e-09
9.54451e-10
-9.5179e-10
1.03258e-09
-6.56879e-10
1.22893e-09
-6.70916e-10
1.18554e-09
-1.80007e-10
1.22747e-09
-1.56358e-10
1.1174e-09
3.54076e-11
1.0347e-09
1.14436e-10
1.00812e-09
3.05948e-11
9.19343e-10
1.59927e-10
8.08568e-10
2.61698e-10
6.47839e-10
3.40819e-10
4.36485e-10
4.04763e-10
2.55349e-10
3.3658e-10
1.75152e-10
1.87839e-10
1.05567e-10
1.30069e-10
1.32306e-10
-1.9318e-11
1.5993e-10
-1.17749e-10
2.43815e-10
-2.19173e-10
2.92126e-10
-3.36143e-10
5.28416e-10
-3.67072e-10
6.81794e-10
-6.27295e-10
9.41215e-10
-7.09007e-10
1.27832e-09
-7.42447e-10
1.66786e-09
-1.30403e-09
2.17149e-09
-1.55842e-09
2.93154e-09
-1.61695e-09
3.52034e-09
-1.27295e-09
4.26294e-09
-2.48045e-09
4.84386e-09
-1.96547e-09
5.56339e-09
-1.33488e-09
5.80936e-09
-1.759e-09
6.37731e-09
-1.91271e-09
6.61022e-09
-1.61783e-09
7.18224e-09
-1.11316e-09
7.63302e-09
-8.12324e-10
7.81006e-09
-9.57042e-10
8.08148e-09
-7.67512e-10
8.26939e-09
-3.86919e-10
8.20017e-09
-7.07727e-11
8.1924e-09
-8.03683e-11
8.14844e-09
6.77501e-12
8.11032e-09
3.6972e-11
8.11644e-09
7.10696e-11
8.09707e-09
1.58137e-10
8.05647e-09
1.85274e-10
8.00215e-09
2.34533e-10
7.93477e-09
2.79086e-10
7.86811e-09
2.60325e-10
7.86177e-09
1.64489e-10
7.79867e-09
1.81292e-10
7.80019e-09
9.28765e-11
7.69013e-09
1.41673e-10
7.62308e-09
1.75407e-10
7.54359e-09
1.39144e-10
7.43637e-09
2.1267e-10
7.39758e-09
2.34947e-10
7.30752e-09
2.06281e-10
7.15475e-09
4.09557e-10
7.15907e-09
2.78471e-10
6.97768e-09
3.58704e-10
6.82182e-09
5.56375e-10
6.88879e-09
2.16218e-10
6.50144e-09
7.1792e-10
6.53587e-09
4.48636e-10
6.31217e-09
7.71966e-10
6.00964e-09
8.2914e-10
5.67316e-09
1.1395e-09
5.402e-09
1.23015e-09
5.11293e-09
1.16186e-09
4.6978e-09
1.79554e-09
4.22032e-09
1.79776e-09
3.61127e-09
1.78443e-09
2.9024e-09
2.59351e-09
1.87159e-09
3.0249e-09
1.00721e-09
2.62794e-09
3.64755e-10
1.99273e-09
-1.49684e-10
1.49989e-09
-4.84625e-10
1.00198e-09
-7.53387e-10
5.56669e-10
-5.94798e-10
-4.19897e-10
-4.49932e-10
-1.04841e-09
-1.20114e-10
-1.36222e-09
-4.34478e-17
4.05197e-10
-2.29803e-18
2.06195e-18
-2.32771e-18
1.25044e-18
-2.32753e-18
6.64901e-19
-2.28131e-18
2.30411e-19
-2.17725e-18
-9.49423e-20
-2.01713e-18
-3.40212e-19
-1.80914e-18
-5.24531e-19
-1.5634e-18
-6.60601e-19
-1.29013e-18
-7.56994e-19
-9.98948e-19
-8.19702e-19
-6.98759e-19
-8.53156e-19
-3.97689e-19
-8.60889e-19
-1.03081e-19
-8.45968e-19
1.78549e-19
-8.11257e-19
4.41556e-19
-7.59559e-19
6.81207e-19
-6.93667e-19
8.937e-19
-6.16366e-19
1.07616e-18
-5.30389e-19
1.22662e-18
-4.38368e-19
1.34396e-18
-3.42777e-19
1.42786e-18
-2.45885e-19
1.47868e-18
-1.49718e-19
1.49738e-18
-5.60313e-20
1.48544e-18
3.36924e-20
1.44471e-18
1.18244e-19
1.37738e-18
1.96672e-19
1.28584e-18
2.68254e-19
1.17266e-18
3.32471e-19
1.04047e-18
3.88971e-19
8.92003e-19
4.37534e-19
7.29979e-19
4.7804e-19
5.57136e-19
5.1044e-19
3.76207e-19
5.34727e-19
1.89918e-19
5.5091e-19
5.58991e-19
2.40659e-10
-1.46619e-09
3.69677e-10
-1.29039e-09
6.0814e-10
-1.19025e-09
7.58727e-10
-8.07467e-10
7.90273e-10
-7.02462e-10
8.08547e-10
-1.98281e-10
7.10088e-10
-5.78993e-11
5.78668e-10
1.66827e-10
3.81342e-10
3.11761e-10
6.88226e-11
3.43114e-10
-3.25142e-10
5.53891e-10
-6.5422e-10
5.90776e-10
-8.45105e-10
5.31702e-10
-8.50907e-10
4.10565e-10
-8.10337e-10
2.96009e-10
-8.34614e-10
2.12115e-10
-8.32703e-10
1.28158e-10
-7.43982e-10
-1.0804e-10
-6.4862e-10
-2.13113e-10
-5.00383e-10
-3.6741e-10
-3.50367e-10
-4.86161e-10
-1.02207e-10
-6.15233e-10
1.77248e-10
-9.06751e-10
4.17236e-10
-9.48996e-10
8.95702e-10
-1.22091e-09
1.23571e-09
-1.64403e-09
1.77607e-09
-2.09878e-09
2.53197e-09
-2.37285e-09
3.4212e-09
-2.16218e-09
3.74534e-09
-2.80459e-09
4.41399e-09
-2.63413e-09
5.02757e-09
-1.94846e-09
5.30472e-09
-2.03615e-09
5.59852e-09
-2.20651e-09
5.91394e-09
-1.93325e-09
6.2752e-09
-1.47443e-09
6.57492e-09
-1.11205e-09
6.78173e-09
-1.16385e-09
6.78347e-09
-7.69255e-10
7.04381e-09
-6.47253e-10
7.24153e-09
-2.68497e-10
7.33105e-09
-1.69893e-10
7.34686e-09
-9.03337e-12
7.31817e-09
6.56625e-11
7.32545e-09
6.37845e-11
7.29708e-09
1.86506e-10
7.25693e-09
2.25429e-10
7.21326e-09
2.78201e-10
7.20783e-09
2.84508e-10
7.16404e-09
3.0412e-10
7.12187e-09
2.06658e-10
7.02529e-09
2.77864e-10
7.00942e-09
1.08744e-10
6.90895e-09
2.42145e-10
6.8819e-09
2.02462e-10
6.83266e-09
1.88381e-10
6.70275e-09
3.42573e-10
6.73698e-09
2.00718e-10
6.5868e-09
3.56455e-10
6.5262e-09
4.70155e-10
6.47758e-09
3.27095e-10
6.29819e-09
5.38095e-10
6.2231e-09
6.31457e-10
6.15696e-09
2.82362e-10
5.74059e-09
1.13429e-09
5.92985e-09
2.59371e-10
5.69269e-09
1.00913e-09
5.33411e-09
1.18772e-09
4.95245e-09
1.52116e-09
4.66778e-09
1.51481e-09
4.61676e-09
1.21289e-09
4.18988e-09
2.22242e-09
3.81748e-09
2.17016e-09
3.09139e-09
2.51052e-09
2.48728e-09
3.19761e-09
1.95221e-09
3.55997e-09
1.2524e-09
3.32775e-09
5.61349e-10
2.68378e-09
1.92153e-10
1.86908e-09
-7.35066e-11
1.26764e-09
-2.80442e-10
7.63604e-10
-3.25276e-10
-3.75063e-10
-2.93586e-10
-1.0801e-09
-7.21649e-11
-1.58364e-09
-7.4239e-17
3.33032e-10
-3.10869e-18
1.72771e-18
-2.91251e-18
1.05434e-18
-2.76158e-18
5.1435e-19
-2.60667e-18
7.59791e-20
-2.42252e-18
-2.7852e-19
-2.20145e-18
-5.60661e-19
-1.94521e-18
-7.80111e-19
-1.65979e-18
-9.45304e-19
-1.35284e-18
-1.06317e-18
-1.0324e-18
-1.13925e-18
-7.06492e-19
-1.17803e-18
-3.82768e-19
-1.18341e-18
-6.83703e-20
-1.15897e-18
2.30247e-19
-1.10828e-18
5.07448e-19
-1.03497e-18
7.58509e-19
-9.42753e-19
9.79677e-19
-8.35399e-19
1.16818e-18
-7.16636e-19
1.32221e-18
-5.90064e-19
1.44086e-18
-4.5906e-19
1.52403e-18
-3.26708e-19
1.57236e-18
-1.95744e-19
1.5871e-18
-6.85227e-20
1.56999e-18
5.29897e-20
1.52314e-18
1.67209e-19
1.44896e-18
2.72903e-19
1.35006e-18
3.69161e-19
1.22916e-18
4.5534e-19
1.08904e-18
5.31022e-19
9.32509e-19
5.95967e-19
7.62379e-19
6.50059e-19
5.81423e-19
6.93271e-19
3.9239e-19
7.25624e-19
1.97999e-19
7.47159e-19
7.5791e-19
6.55906e-11
-1.53178e-09
3.2091e-10
-1.54571e-09
4.2674e-10
-1.29608e-09
5.01636e-10
-8.82363e-10
3.70476e-10
-5.71303e-10
3.55737e-10
-1.83542e-10
3.51276e-11
2.62709e-10
-3.03926e-10
5.05881e-10
-6.10405e-10
6.18239e-10
-8.78221e-10
6.10929e-10
-1.09268e-09
7.68349e-10
-1.34454e-09
8.42634e-10
-1.56458e-09
7.5174e-10
-1.69336e-09
5.39345e-10
-1.67317e-09
2.75818e-10
-1.79636e-09
3.35312e-10
-1.75611e-09
8.79052e-11
-1.74622e-09
-1.17929e-10
-1.6241e-09
-3.35233e-10
-1.37829e-09
-6.13225e-10
-1.02615e-09
-8.38307e-10
-8.20142e-10
-8.21237e-10
-4.521e-10
-1.27479e-09
-1.98882e-10
-1.20221e-09
2.17918e-10
-1.63771e-09
6.02753e-10
-2.02887e-09
1.05827e-09
-2.55429e-09
1.61296e-09
-2.92754e-09
2.76789e-09
-3.31711e-09
3.22624e-09
-3.26294e-09
3.95303e-09
-3.36092e-09
4.39182e-09
-2.38725e-09
5.08206e-09
-2.7264e-09
5.30418e-09
-2.42863e-09
5.35571e-09
-1.98478e-09
5.4887e-09
-1.60742e-09
5.74979e-09
-1.37315e-09
5.9048e-09
-1.31886e-09
6.09263e-09
-9.57095e-10
6.11992e-09
-6.74544e-10
6.24419e-09
-3.92766e-10
6.37328e-09
-2.98987e-10
6.45112e-09
-8.68732e-11
6.47028e-09
4.65033e-11
6.45197e-09
8.20895e-11
6.43356e-09
2.04921e-10
6.41297e-09
2.46011e-10
6.40091e-09
2.90265e-10
6.38636e-09
2.99054e-10
6.38848e-09
3.01995e-10
6.32674e-09
2.68399e-10
6.32726e-09
2.77344e-10
6.21642e-09
2.19581e-10
6.18529e-09
2.73274e-10
6.17005e-09
2.17703e-10
6.0935e-09
2.64924e-10
6.03771e-09
3.98367e-10
6.04222e-09
1.96205e-10
5.92425e-09
4.74426e-10
5.90961e-09
4.84787e-10
5.77339e-09
4.63313e-10
5.62854e-09
6.8295e-10
5.65199e-09
6.08007e-10
5.3839e-09
5.5045e-10
5.27329e-09
1.24489e-09
5.07612e-09
4.56546e-10
4.91854e-09
1.1667e-09
4.72078e-09
1.38548e-09
4.52639e-09
1.71554e-09
4.45996e-09
1.58124e-09
4.07799e-09
1.59486e-09
3.79634e-09
2.50407e-09
3.51911e-09
2.44738e-09
3.08006e-09
2.94957e-09
2.71658e-09
3.56109e-09
2.20287e-09
4.07367e-09
1.61082e-09
3.9198e-09
1.06428e-09
3.23032e-09
5.76802e-10
2.35656e-09
1.97959e-10
1.64648e-09
8.64252e-12
9.5292e-10
-1.68337e-10
-1.98085e-10
-2.14196e-10
-1.03424e-09
-1.325e-10
-1.66534e-09
-5.04235e-17
2.00532e-10
-3.78122e-18
1.3696e-18
-3.4518e-18
7.25116e-19
-3.19964e-18
2.62664e-19
-2.96116e-18
-1.61865e-19
-2.70466e-18
-5.34272e-19
-2.4209e-18
-8.43609e-19
-2.1104e-18
-1.08978e-18
-1.77766e-18
-1.27722e-18
-1.42891e-18
-1.4111e-18
-1.07119e-18
-1.49611e-18
-7.11865e-19
-1.53642e-18
-3.58331e-19
-1.53588e-18
-1.76808e-20
-1.49841e-18
3.0356e-19
-1.42813e-18
5.99664e-19
-1.32949e-18
8.65863e-19
-1.20716e-18
1.09844e-18
-1.06599e-18
1.29475e-18
-9.10803e-19
1.45322e-18
-7.46256e-19
1.57321e-18
-5.76715e-19
1.65499e-18
-4.06139e-19
1.69959e-18
-2.38007e-19
1.70862e-18
-7.52792e-20
1.68421e-18
7.96065e-20
1.62883e-18
2.24717e-19
1.54522e-18
3.58585e-19
1.43624e-18
4.80151e-19
1.30484e-18
5.88701e-19
1.15398e-18
6.83804e-19
9.86602e-19
7.6524e-19
8.05591e-19
8.32942e-19
6.13776e-19
8.86942e-19
4.13925e-19
9.2732e-19
2.08751e-19
9.5417e-19
9.67569e-19
6.6479e-11
-1.59826e-09
7.33441e-11
-1.55258e-09
2.27894e-11
-1.24553e-09
4.46184e-11
-9.04192e-10
1.01513e-10
-6.28198e-10
-1.18019e-10
3.59896e-11
-5.17382e-10
6.62071e-10
-9.0523e-10
8.93729e-10
-1.30121e-09
1.01422e-09
-1.68686e-09
9.96582e-10
-1.93298e-09
1.01447e-09
-2.25774e-09
1.16739e-09
-2.65372e-09
1.14772e-09
-2.89151e-09
7.77138e-10
-2.50599e-09
-1.09698e-10
-2.59368e-09
4.22997e-10
-2.36191e-09
-1.43864e-10
-1.98113e-09
-4.98715e-10
-1.57051e-09
-7.45852e-10
-1.13414e-09
-1.04959e-09
-5.97485e-10
-1.37496e-09
-4.17135e-11
-1.37701e-09
3.24825e-10
-1.64133e-09
6.51375e-10
-1.52877e-09
9.10095e-10
-1.89644e-09
1.20305e-09
-2.32182e-09
1.67999e-09
-3.03124e-09
2.18892e-09
-3.43647e-09
2.64698e-09
-3.77517e-09
3.01667e-09
-3.63264e-09
3.41894e-09
-3.76319e-09
4.11274e-09
-3.08106e-09
4.34359e-09
-2.95724e-09
4.46813e-09
-2.55317e-09
4.66099e-09
-2.17764e-09
4.83224e-09
-1.77867e-09
5.04852e-09
-1.58942e-09
5.08436e-09
-1.3547e-09
5.18995e-09
-1.06269e-09
5.22818e-09
-7.12773e-10
5.28407e-09
-4.48658e-10
5.3446e-09
-3.59516e-10
5.42032e-09
-1.62601e-10
5.46779e-09
-9.62715e-13
5.46656e-09
8.33189e-11
5.49518e-09
1.76293e-10
5.507e-09
2.34195e-10
5.52688e-09
2.70382e-10
5.55023e-09
2.75704e-10
5.5711e-09
2.81124e-10
5.55157e-09
2.87921e-10
5.58043e-09
2.48488e-10
5.53306e-09
2.6695e-10
5.51672e-09
2.89612e-10
5.51715e-09
2.17268e-10
5.44554e-09
3.36537e-10
5.43019e-09
4.13716e-10
5.34694e-09
2.79448e-10
5.30108e-09
5.20287e-10
5.22242e-09
5.63448e-10
5.15345e-09
5.32279e-10
5.062e-09
7.74398e-10
4.98165e-09
6.88355e-10
4.6593e-09
8.72801e-10
4.74448e-09
1.1597e-09
4.4159e-09
7.85126e-10
4.26773e-09
1.31488e-09
4.0855e-09
1.5677e-09
4.06016e-09
1.74089e-09
4.00118e-09
1.64021e-09
3.56821e-09
2.02783e-09
3.47202e-09
2.60026e-09
3.13316e-09
2.78624e-09
2.80375e-09
3.27897e-09
2.69729e-09
3.66755e-09
2.59069e-09
4.18027e-09
2.21371e-09
4.29679e-09
1.45169e-09
3.99234e-09
7.32942e-10
3.0753e-09
3.38712e-10
2.04071e-09
7.16721e-11
1.21996e-09
-1.32721e-11
-1.13141e-10
-1.29453e-10
-9.18056e-10
-1.15155e-10
-1.67964e-09
1.23378e-17
8.53769e-11
-4.42495e-18
-6.99389e-19
-3.9136e-18
2.14079e-19
-3.62399e-18
-2.65097e-20
-3.33357e-18
-4.51597e-19
-3.014e-18
-8.52941e-19
-2.66707e-18
-1.18951e-18
-2.29784e-18
-1.45798e-18
-1.91154e-18
-1.66252e-18
-1.51393e-18
-1.80777e-18
-1.11149e-18
-1.89765e-18
-7.11327e-19
-1.93567e-18
-3.20858e-19
-1.92538e-18
5.25938e-20
-1.87079e-18
4.02204e-19
-1.77654e-18
7.21988e-19
-1.6479e-18
1.00703e-18
-1.49063e-18
1.25363e-18
-1.3108e-18
1.4593e-18
-1.11447e-18
1.62276e-18
-9.07539e-19
1.74378e-18
-6.95458e-19
1.82313e-18
-4.83142e-19
1.86231e-18
-2.74855e-19
1.8635e-18
-7.41702e-20
1.82932e-18
1.16025e-19
1.7627e-18
2.93493e-19
1.66679e-18
4.56586e-19
1.54479e-18
6.04164e-19
1.39994e-18
7.35511e-19
1.23542e-18
8.50246e-19
1.0543e-18
9.48234e-19
8.59591e-19
1.02951e-18
6.54154e-19
1.09422e-18
4.40775e-19
1.14252e-18
2.2215e-19
1.17461e-18
1.19061e-18
7.48016e-11
-1.67306e-09
3.3447e-14
-1.47781e-09
-1.13539e-10
-1.13196e-09
-3.5458e-10
-6.63152e-10
-6.87086e-10
-2.95691e-10
-9.54212e-10
3.03115e-10
-1.18497e-09
8.92827e-10
-1.56011e-09
1.26887e-09
-1.96844e-09
1.42255e-09
-2.48819e-09
1.51633e-09
-2.96478e-09
1.49106e-09
-3.23908e-09
1.44169e-09
-3.54978e-09
1.45841e-09
-3.60322e-09
8.3058e-10
-2.66223e-09
-1.05069e-09
-2.53012e-09
2.90883e-10
-2.07492e-09
-5.99069e-10
-1.70809e-09
-8.65544e-10
-1.25638e-09
-1.19756e-09
-5.48103e-10
-1.75787e-09
1.14386e-10
-2.03745e-09
6.52889e-10
-1.91551e-09
8.82556e-10
-1.871e-09
1.06908e-09
-1.71529e-09
1.16886e-09
-1.99621e-09
1.40181e-09
-2.55477e-09
1.65003e-09
-3.27946e-09
2.21022e-09
-3.99666e-09
2.61125e-09
-4.1762e-09
3.03906e-09
-4.06045e-09
3.13523e-09
-3.85936e-09
3.40832e-09
-3.35415e-09
3.59019e-09
-3.13911e-09
3.73585e-09
-2.69884e-09
3.89409e-09
-2.33587e-09
4.21123e-09
-2.09581e-09
4.20942e-09
-1.58761e-09
4.23816e-09
-1.38344e-09
4.32166e-09
-1.14619e-09
4.394e-09
-7.85119e-10
4.39896e-09
-4.53612e-10
4.38428e-09
-3.44844e-10
4.41083e-09
-1.89155e-10
4.46808e-09
-5.82051e-11
4.52107e-09
3.0319e-11
4.58188e-09
1.15486e-10
4.62833e-09
1.87738e-10
4.69105e-09
2.07666e-10
4.7411e-09
2.25653e-10
4.77777e-09
2.44446e-10
4.80797e-09
2.57725e-10
4.81129e-09
2.45161e-10
4.80387e-09
2.74371e-10
4.79471e-09
2.98772e-10
4.75937e-09
2.52601e-10
4.72849e-09
3.67418e-10
4.69719e-09
4.45016e-10
4.6248e-09
3.51835e-10
4.62891e-09
5.16172e-10
4.53357e-09
6.5879e-10
4.50751e-09
5.58337e-10
4.42346e-09
8.58448e-10
4.30627e-09
8.05542e-10
4.1062e-09
1.07287e-09
4.10545e-09
1.16046e-09
3.83461e-09
1.05596e-09
3.70999e-09
1.43949e-09
3.64213e-09
1.63557e-09
3.55113e-09
1.83188e-09
3.2581e-09
1.93324e-09
2.88244e-09
2.40349e-09
2.77624e-09
2.70645e-09
2.56358e-09
2.9989e-09
2.4241e-09
3.41846e-09
2.12483e-09
3.96682e-09
1.69195e-09
4.61314e-09
1.49259e-09
4.49614e-09
1.27854e-09
4.20639e-09
8.83838e-10
3.47e-09
4.30556e-10
2.49399e-09
2.42015e-10
1.4085e-09
9.66294e-11
3.22444e-11
-1.15441e-10
-7.05987e-10
-8.5375e-11
-1.7097e-09
2.09353e-19
1.63718e-15
-3.51095e-18
3.02012e-18
-4.15371e-18
8.57168e-19
-4.04903e-18
-1.30981e-19
-3.73492e-18
-7.65089e-19
-3.35057e-18
-1.23631e-18
-2.93554e-18
-1.60333e-18
-2.50238e-18
-1.88988e-18
-2.05679e-18
-2.1069e-18
-1.60381e-18
-2.25963e-18
-1.14951e-18
-2.35095e-18
-7.01039e-19
-2.38319e-18
-2.66271e-19
-2.35921e-18
1.46844e-19
-2.28293e-18
5.30848e-19
-2.15949e-18
8.79254e-19
-1.99512e-18
1.18687e-18
-1.79689e-18
1.44995e-18
-1.5723e-18
1.66624e-18
-1.32894e-18
1.83484e-18
-1.07411e-18
1.9561e-18
-8.14523e-19
2.03141e-18
-5.56159e-19
2.063e-18
-3.04109e-19
2.0537e-18
-6.25593e-20
2.00679e-18
1.65191e-19
1.92579e-18
3.76665e-19
1.81436e-18
5.70116e-19
1.67614e-18
7.44415e-19
1.51468e-18
8.98934e-19
1.3334e-18
1.03343e-18
1.13558e-18
1.14793e-18
9.24294e-19
1.24264e-18
7.02463e-19
1.31786e-18
4.72863e-19
1.37393e-18
2.38151e-19
1.41111e-18
1.42965e-18
-7.02015e-12
-1.66604e-09
-8.59404e-12
-1.47623e-09
-1.74794e-10
-9.65758e-10
-3.57495e-10
-4.80452e-10
-8.51655e-10
1.98468e-10
-1.38938e-09
8.40843e-10
-1.73241e-09
1.23586e-09
-2.32946e-09
1.86591e-09
-2.81554e-09
1.90863e-09
-3.31218e-09
2.01297e-09
-3.76585e-09
1.94472e-09
-3.81972e-09
1.49556e-09
-3.87555e-09
1.51425e-09
-3.7228e-09
6.77837e-10
-2.99615e-09
-1.77734e-09
-2.45514e-09
-2.50135e-10
-1.91732e-09
-1.13688e-09
-1.50194e-09
-1.28093e-09
-7.30894e-10
-1.96861e-09
6.15528e-11
-2.55032e-09
5.72022e-10
-2.54792e-09
9.61466e-10
-2.30496e-09
1.15762e-09
-2.06715e-09
1.27515e-09
-1.83282e-09
1.27764e-09
-1.99871e-09
1.35349e-09
-2.63062e-09
1.62463e-09
-3.5506e-09
1.97039e-09
-4.34242e-09
2.36484e-09
-4.57066e-09
2.68436e-09
-4.37997e-09
2.84587e-09
-4.02088e-09
3.06281e-09
-3.57109e-09
3.11853e-09
-3.19483e-09
3.25001e-09
-2.83033e-09
3.29935e-09
-2.38521e-09
3.42726e-09
-2.22372e-09
3.5199e-09
-1.68025e-09
3.56039e-09
-1.42394e-09
3.50404e-09
-1.08983e-09
3.43557e-09
-7.16652e-10
3.44238e-09
-4.60427e-10
3.4752e-09
-3.7766e-10
3.5367e-09
-2.50655e-10
3.61994e-09
-1.41445e-10
3.69275e-09
-4.24918e-11
3.77931e-09
2.89171e-11
3.85215e-09
1.149e-10
3.91481e-09
1.45003e-10
3.95732e-09
1.83143e-10
3.97816e-09
2.23604e-10
3.99097e-09
2.44907e-10
4.0011e-09
2.35036e-10
4.01169e-09
2.63773e-10
4.02857e-09
2.819e-10
3.99844e-09
2.82725e-10
3.99357e-09
3.72283e-10
3.98955e-09
4.49034e-10
3.93061e-09
4.10783e-10
3.92994e-09
5.16839e-10
3.8723e-09
7.16427e-10
3.81154e-09
6.19098e-10
3.77622e-09
8.93768e-10
3.61664e-09
9.6512e-10
3.49538e-09
1.19413e-09
3.54058e-09
1.11526e-09
3.34228e-09
1.25426e-09
3.19094e-09
1.59084e-09
3.3073e-09
1.5192e-09
3.22715e-09
1.91203e-09
3.02894e-09
2.13145e-09
2.95849e-09
2.47394e-09
2.95151e-09
2.71343e-09
2.8392e-09
3.1112e-09
2.58936e-09
3.66831e-09
2.43898e-09
4.1172e-09
2.24425e-09
4.80787e-09
1.81718e-09
4.92322e-09
1.38839e-09
4.63518e-09
9.47242e-10
3.91116e-09
5.69228e-10
2.872e-09
3.16032e-10
1.66169e-09
1.28889e-10
2.19386e-10
1.65367e-11
-5.93635e-10
-6.16094e-16
-1.69317e-09
-7.23872e-18
5.3507e-16
-5.67349e-18
1.45406e-18
-5.14154e-18
3.25454e-19
-4.68314e-18
-5.8947e-19
-4.20614e-18
-1.24163e-18
-3.71759e-18
-1.7239e-18
-3.22209e-18
-2.09753e-18
-2.71939e-18
-2.39114e-18
-2.20952e-18
-2.61533e-18
-1.69513e-18
-2.7727e-18
-1.18175e-18
-2.86317e-18
-6.77061e-19
-2.88682e-18
-1.89996e-19
-2.84529e-18
2.70285e-19
-2.74226e-18
6.95218e-19
-2.58345e-18
1.07749e-18
-2.37636e-18
1.41146e-18
-2.12968e-18
1.69331e-18
-1.85278e-18
1.92107e-18
-1.55508e-18
2.09442e-18
-1.24559e-18
2.21446e-18
-9.32492e-19
2.28346e-18
-6.22937e-19
2.30455e-18
-3.22897e-19
2.28145e-18
-3.71546e-20
2.21826e-18
2.30642e-19
2.11924e-18
4.77875e-19
1.98866e-18
7.02812e-19
1.83066e-18
9.04454e-19
1.64917e-18
1.08238e-18
1.4479e-18
1.23659e-18
1.23029e-18
1.36739e-18
9.9952e-19
1.47523e-18
7.58526e-19
1.56065e-18
5.10052e-19
1.62417e-18
2.56682e-19
1.66625e-18
1.68719e-18
3.40071e-11
-1.70005e-09
-3.07162e-10
-1.13507e-09
-5.9508e-10
-6.77841e-10
-9.46375e-10
-1.29157e-10
-1.43988e-09
6.9197e-10
-1.93573e-09
1.33669e-09
-2.53368e-09
1.83381e-09
-3.07836e-09
2.41059e-09
-3.52571e-09
2.35599e-09
-3.91678e-09
2.40404e-09
-4.06822e-09
2.09617e-09
-4.06269e-09
1.49002e-09
-3.682e-09
1.13356e-09
-3.28482e-09
2.80654e-10
-3.51642e-09
-1.54574e-09
-2.48188e-09
-1.28468e-09
-1.92451e-09
-1.69425e-09
-1.23141e-09
-1.97404e-09
-3.88753e-10
-2.81126e-09
9.65085e-11
-3.03558e-09
6.03242e-10
-3.05466e-09
1.02402e-09
-2.72574e-09
1.24688e-09
-2.29002e-09
1.32418e-09
-1.91012e-09
1.32525e-09
-1.99978e-09
1.30468e-09
-2.61005e-09
1.55871e-09
-3.80463e-09
1.80546e-09
-4.58917e-09
1.98466e-09
-4.74986e-09
2.27192e-09
-4.66723e-09
2.47995e-09
-4.22891e-09
2.68313e-09
-3.77428e-09
2.69598e-09
-3.20767e-09
2.68257e-09
-2.81692e-09
2.69581e-09
-2.39845e-09
2.60589e-09
-2.1338e-09
2.67271e-09
-1.74707e-09
2.70207e-09
-1.4533e-09
2.63559e-09
-1.02335e-09
2.66145e-09
-7.42508e-10
2.72254e-09
-5.21523e-10
2.78078e-09
-4.35905e-10
2.8034e-09
-2.73271e-10
2.83731e-09
-1.75355e-10
2.89789e-09
-1.0308e-10
2.97494e-09
-4.81337e-11
3.0506e-09
3.92423e-11
3.11196e-09
8.36336e-11
3.14693e-09
1.48175e-10
3.17776e-09
1.92775e-10
3.20896e-09
2.13704e-10
3.24659e-09
1.97403e-10
3.28365e-09
2.2671e-10
3.30402e-09
2.61532e-10
3.29498e-09
2.91762e-10
3.3103e-09
3.56965e-10
3.35503e-09
4.04293e-10
3.28898e-09
4.76833e-10
3.27792e-09
5.27905e-10
3.23569e-09
7.5865e-10
3.15121e-09
7.03582e-10
3.12911e-09
9.15861e-10
3.06878e-09
1.02545e-09
3.01762e-09
1.24529e-09
3.00295e-09
1.12993e-09
2.75321e-09
1.504e-09
2.82468e-09
1.51937e-09
2.63398e-09
1.70991e-09
2.28286e-09
2.26315e-09
2.05683e-09
2.35749e-09
1.97123e-09
2.55954e-09
1.75071e-09
2.93396e-09
1.66551e-09
3.1964e-09
1.77443e-09
3.55938e-09
1.84177e-09
4.04986e-09
1.95203e-09
4.69762e-09
1.92618e-09
4.94906e-09
1.60606e-09
4.9553e-09
1.131e-09
4.38622e-09
8.2248e-10
3.18053e-09
4.57766e-10
2.02641e-09
1.4159e-10
5.35563e-10
1.82833e-10
-6.34879e-10
5.35999e-16
-1.51033e-09
-7.15682e-18
4.63322e-16
-6.80169e-18
1.09761e-18
-6.05624e-18
-4.19947e-19
-5.3353e-18
-1.31087e-18
-4.6884e-18
-1.88835e-18
-4.09123e-18
-2.32023e-18
-3.5157e-18
-2.67175e-18
-2.94359e-18
-2.96168e-18
-2.36689e-18
-3.19042e-18
-1.7856e-18
-3.35247e-18
-1.2054e-18
-3.44201e-18
-6.35532e-19
-3.4555e-18
-8.69603e-20
-3.39279e-18
4.2909e-19
-3.25731e-18
9.02315e-19
-3.05571e-18
1.32417e-18
-2.79724e-18
1.68836e-18
-2.49282e-18
1.99101e-18
-2.15423e-18
2.23057e-18
-1.79322e-18
2.40752e-18
-1.42086e-18
2.52402e-18
-1.04707e-18
2.5835e-18
-6.80305e-19
2.59029e-18
-3.27449e-19
2.54924e-18
6.16664e-21
2.46549e-18
3.16652e-19
2.34418e-18
6.01385e-19
2.19031e-18
8.58809e-19
2.00858e-18
1.08821e-18
1.80338e-18
1.28954e-18
1.5787e-18
1.46317e-18
1.33813e-18
1.60978e-18
1.08494e-18
1.73021e-18
8.2205e-19
1.8253e-18
5.52125e-19
1.89584e-18
2.77627e-19
1.94247e-18
1.96566e-18
-3.32388e-10
-1.36766e-09
-6.29223e-10
-8.38231e-10
-8.96184e-10
-4.10881e-10
-1.4373e-09
4.11954e-10
-1.79657e-09
1.05124e-09
-2.61302e-09
2.15314e-09
-3.22499e-09
2.44578e-09
-3.71119e-09
2.8968e-09
-4.12396e-09
2.76875e-09
-4.29465e-09
2.57473e-09
-4.07731e-09
1.87883e-09
-3.91282e-09
1.32554e-09
-3.52597e-09
7.46715e-10
-3.18686e-09
-5.84559e-11
-3.53582e-09
-1.19679e-09
-2.80045e-09
-2.02004e-09
-2.04891e-09
-2.44579e-09
-1.25635e-09
-2.7666e-09
-7.87247e-10
-3.28036e-09
-3.94866e-10
-3.42796e-09
7.58667e-11
-3.52539e-09
5.41101e-10
-3.19098e-09
7.78102e-10
-2.52702e-09
1.0025e-09
-2.13453e-09
1.13063e-09
-2.12791e-09
1.1779e-09
-2.65732e-09
1.27711e-09
-3.90384e-09
1.47619e-09
-4.78825e-09
1.65527e-09
-4.92894e-09
1.7388e-09
-4.75076e-09
1.82736e-09
-4.31747e-09
2.06749e-09
-4.01441e-09
2.19589e-09
-3.33607e-09
2.19855e-09
-2.81959e-09
2.2077e-09
-2.4076e-09
2.18499e-09
-2.1111e-09
2.0973e-09
-1.65937e-09
2.01201e-09
-1.36802e-09
2.00127e-09
-1.01261e-09
2.03843e-09
-7.79672e-10
2.08401e-09
-5.67103e-10
2.08463e-09
-4.36523e-10
2.12486e-09
-3.13508e-10
2.17002e-09
-2.20518e-10
2.23203e-09
-1.65088e-10
2.29123e-09
-1.07342e-10
2.35707e-09
-2.65943e-11
2.39977e-09
4.09268e-11
2.45333e-09
9.46174e-11
2.52135e-09
1.24756e-10
2.58605e-09
1.49003e-10
2.62078e-09
1.62663e-10
2.62788e-09
2.19611e-10
2.64434e-09
2.45078e-10
2.66165e-09
2.74447e-10
2.70566e-09
3.12951e-10
2.70384e-09
4.06114e-10
2.74065e-09
4.40018e-10
2.73348e-09
5.35082e-10
2.71307e-09
7.79054e-10
2.60785e-09
8.08803e-10
2.58452e-09
9.39187e-10
2.52175e-09
1.08822e-09
2.55764e-09
1.20941e-09
2.44205e-09
1.24551e-09
2.43855e-09
1.50749e-09
2.21318e-09
1.74474e-09
2.16713e-09
1.75596e-09
2.36347e-09
2.0668e-09
2.35765e-09
2.36331e-09
2.27872e-09
2.63847e-09
2.36401e-09
2.84867e-09
2.2327e-09
3.3277e-09
1.92276e-09
3.86932e-09
1.65659e-09
4.31603e-09
1.59732e-09
4.75688e-09
1.57325e-09
4.97314e-09
1.56441e-09
4.96413e-09
1.34459e-09
4.60604e-09
8.57253e-10
3.66786e-09
4.74496e-10
2.40916e-09
5.10334e-11
9.59025e-10
8.69735e-11
-6.7082e-10
2.90543e-16
-1.42336e-09
-9.22767e-18
1.15486e-16
-8.31883e-18
1.8658e-19
-6.947e-18
-1.79198e-18
-5.91278e-18
-2.34595e-18
-5.12028e-18
-2.68102e-18
-4.44275e-18
-2.99715e-18
-3.80563e-18
-3.30764e-18
-3.17233e-18
-3.59336e-18
-2.52894e-18
-3.83207e-18
-1.87514e-18
-4.00458e-18
-1.2189e-18
-4.09672e-18
-5.72822e-19
-4.10024e-18
4.85273e-20
-4.01295e-18
6.30687e-19
-3.83838e-18
1.16079e-18
-3.58479e-18
1.62858e-18
-3.26405e-18
2.02695e-18
-2.89021e-18
2.35202e-18
-2.47824e-18
2.60292e-18
-2.04288e-18
2.78131e-18
-1.59776e-18
2.89079e-18
-1.15479e-18
2.93636e-18
-7.23895e-19
2.9239e-18
-3.12849e-19
2.85973e-18
7.25665e-20
2.75023e-18
4.2839e-19
2.60161e-18
7.52198e-19
2.41971e-18
1.04282e-18
2.2099e-18
1.30005e-18
1.97701e-18
1.52438e-18
1.72531e-18
1.71674e-18
1.45856e-18
1.87835e-18
1.18003e-18
2.01051e-18
8.92587e-19
2.11448e-18
5.98758e-19
2.19138e-18
3.00816e-19
2.24211e-18
2.26731e-18
-3.0204e-10
-1.06562e-09
-7.49746e-10