/*--------------------------------*- C++ -*----------------------------------*\
  =========                 |
  \\      /  F ield         | OpenFOAM: The Open Source CFD Toolbox
   \\    /   O peration     | Website:  https://openfoam.org
    \\  /    A nd           | Version:  6
     \\/     M anipulation  |
\*---------------------------------------------------------------------------*/
FoamFile
{
    version     2.0;
    format      ascii;
    class       volScalarField;
    location    "3700";
    object      T;
}
// * * * * * * * * * * * * * * * * * * * * * * * * * * * * * * * * * * * * * //

dimensions      [0 0 0 1 0 0 0];

internalField   nonuniform List<scalar> 
4800
(
552.463
552.29
552.117
551.943
551.768
551.593
551.416
551.24
551.065
550.892
550.723
550.558
550.398
550.245
550.099
549.961
549.832
549.712
549.6
549.496
549.4
549.311
549.229
549.154
549.085
549.021
548.964
548.912
548.865
548.823
548.787
548.754
548.725
548.7
548.678
548.66
548.644
548.63
548.618
548.607
548.599
548.591
548.584
548.578
548.573
548.568
548.563
548.559
548.554
548.55
548.546
548.541
548.537
548.532
548.528
548.524
548.519
548.515
548.51
548.505
548.499
548.492
548.484
548.474
548.461
548.445
548.423
548.393
548.352
548.298
548.225
548.128
548.004
547.846
547.655
547.431
547.181
546.914
546.642
546.373
546.114
545.87
545.643
545.431
545.23
545.039
544.86
544.691
544.531
544.377
544.229
544.086
543.946
543.81
543.676
543.544
543.414
543.285
543.158
543.032
542.907
542.782
542.659
542.536
542.413
542.291
542.169
542.048
541.927
541.807
541.686
541.566
541.446
541.326
541.207
541.087
540.968
540.848
540.729
540.61
552.462
552.284
552.107
551.929
551.75
551.571
551.392
551.214
551.037
550.862
550.692
550.527
550.368
550.215
550.07
549.933
549.806
549.686
549.575
549.473
549.378
549.29
549.208
549.133
549.064
549
548.943
548.891
548.844
548.802
548.765
548.734
548.705
548.68
548.659
548.642
548.627
548.614
548.603
548.593
548.586
548.579
548.573
548.567
548.562
548.558
548.554
548.549
548.545
548.541
548.537
548.533
548.528
548.524
548.52
548.516
548.511
548.507
548.502
548.497
548.491
548.484
548.476
548.466
548.454
548.437
548.414
548.384
548.344
548.289
548.216
548.121
547.997
547.843
547.654
547.431
547.182
546.916
546.644
546.375
546.114
545.867
545.636
545.42
545.217
545.027
544.85
544.683
544.524
544.372
544.225
544.082
543.943
543.807
543.674
543.542
543.412
543.284
543.157
543.031
542.906
542.781
542.658
542.535
542.412
542.29
542.169
542.048
541.927
541.806
541.686
541.566
541.446
541.326
541.207
541.087
540.968
540.848
540.729
540.61
552.457
552.272
552.086
551.901
551.716
551.532
551.348
551.165
550.985
550.808
550.637
550.471
550.312
550.16
550.017
549.883
549.757
549.64
549.532
549.431
549.338
549.252
549.171
549.096
549.027
548.963
548.905
548.852
548.805
548.763
548.726
548.695
548.667
548.643
548.624
548.608
548.595
548.583
548.574
548.567
548.561
548.555
548.55
548.546
548.542
548.539
548.535
548.531
548.528
548.524
548.52
548.516
548.512
548.508
548.504
548.5
548.495
548.491
548.486
548.481
548.476
548.469
548.461
548.451
548.438
548.421
548.398
548.368
548.327
548.272
548.2
548.106
547.985
547.833
547.648
547.43
547.184
546.921
546.65
546.379
546.114
545.86
545.62
545.397
545.192
545.003
544.829
544.665
544.51
544.361
544.216
544.075
543.938
543.802
543.669
543.538
543.409
543.281
543.154
543.028
542.904
542.779
542.656
542.533
542.411
542.289
542.168
542.047
541.926
541.805
541.685
541.565
541.445
541.326
541.206
541.087
540.967
540.848
540.729
540.61
552.451
552.254
552.057
551.862
551.669
551.477
551.287
551.099
550.915
550.735
550.561
550.395
550.236
550.087
549.947
549.816
549.695
549.582
549.477
549.379
549.288
549.203
549.124
549.049
548.98
548.914
548.854
548.8
548.753
548.709
548.673
548.643
548.616
548.593
548.575
548.562
548.55
548.541
548.534
548.529
548.525
548.522
548.519
548.516
548.513
548.51
548.508
548.505
548.502
548.498
548.495
548.491
548.487
548.484
548.48
548.476
548.472
548.468
548.463
548.459
548.453
548.447
548.438
548.428
548.415
548.397
548.374
548.344
548.302
548.248
548.176
548.083
547.964
547.816
547.636
547.425
547.186
546.927
546.657
546.384
546.113
545.849
545.596
545.359
545.148
544.962
544.795
544.639
544.49
544.345
544.204
544.065
543.929
543.795
543.663
543.533
543.404
543.277
543.15
543.025
542.9
542.777
542.653
542.531
542.409
542.287
542.166
542.045
541.924
541.804
541.684
541.564
541.445
541.325
541.206
541.086
540.967
540.848
540.729
540.61
552.444
552.232
552.023
551.816
551.611
551.411
551.214
551.02
550.831
550.648
550.474
550.308
550.152
550.005
549.869
549.743
549.626
549.517
549.416
549.321
549.233
549.151
549.072
548.997
548.926
548.859
548.797
548.74
548.691
548.647
548.61
548.58
548.555
548.534
548.518
548.506
548.497
548.49
548.486
548.483
548.481
548.479
548.478
548.477
548.476
548.474
548.472
548.47
548.468
548.465
548.462
548.459
548.456
548.452
548.449
548.445
548.441
548.437
548.433
548.429
548.423
548.417
548.409
548.398
548.385
548.367
548.344
548.312
548.271
548.216
548.145
548.054
547.938
547.794
547.621
547.418
547.187
546.933
546.664
546.387
546.109
545.832
545.56
545.301
545.074
544.9
544.749
544.605
544.465
544.326
544.189
544.053
543.919
543.786
543.655
543.526
543.398
543.271
543.145
543.02
542.896
542.773
542.65
542.528
542.406
542.285
542.164
542.043
541.923
541.803
541.683
541.563
541.443
541.324
541.205
541.086
540.966
540.847
540.728
540.609
552.436
552.209
551.984
551.763
551.547
551.337
551.132
550.933
550.74
550.556
550.382
550.217
550.063
549.92
549.788
549.669
549.557
549.453
549.357
549.266
549.181
549.1
549.022
548.946
548.873
548.803
548.737
548.678
548.625
548.58
548.542
548.512
548.487
548.468
548.454
548.444
548.437
548.432
548.43
548.43
548.43
548.43
548.431
548.431
548.431
548.431
548.43
548.429
548.427
548.425
548.422
548.42
548.417
548.414
548.41
548.407
548.404
548.4
548.396
548.392
548.387
548.381
548.372
548.362
548.348
548.33
548.306
548.274
548.233
548.178
548.107
548.017
547.905
547.766
547.6
547.405
547.182
546.933
546.665
546.386
546.1
545.809
545.514
545.216
544.941
544.81
544.691
544.566
544.437
544.304
544.171
544.038
543.906
543.776
543.646
543.518
543.39
543.264
543.139
543.015
542.891
542.768
542.646
542.524
542.402
542.281
542.161
542.04
541.92
541.8
541.681
541.561
541.442
541.323
541.204
541.085
540.966
540.847
540.728
540.609
552.428
552.184
551.943
551.707
551.478
551.258
551.046
550.842
550.647
550.463
550.289
550.127
549.978
549.839
549.713
549.601
549.495
549.396
549.303
549.215
549.132
549.051
548.973
548.896
548.821
548.747
548.677
548.614
548.558
548.511
548.472
548.441
548.416
548.398
548.386
548.377
548.372
548.37
548.37
548.372
548.374
548.376
548.378
548.38
548.381
548.381
548.381
548.381
548.38
548.378
548.376
548.374
548.371
548.368
548.365
548.362
548.359
548.356
548.352
548.348
548.343
548.337
548.329
548.319
548.305
548.286
548.262
548.229
548.187
548.133
548.063
547.975
547.865
547.731
547.571
547.382
547.166
546.924
546.661
546.381
546.089
545.787
545.469
545.116
544.655
544.701
544.634
544.529
544.409
544.283
544.153
544.023
543.893
543.764
543.635
543.508
543.382
543.256
543.132
543.008
542.885
542.763
542.641
542.519
542.398
542.278
542.157
542.037
541.918
541.798
541.679
541.56
541.44
541.322
541.203
541.084
540.965
540.847
540.728
540.609
552.419
552.158
551.901
551.651
551.41
551.179
550.96
550.752
550.556
550.372
550.202
550.045
549.902
549.769
549.648
549.541
549.44
549.345
549.255
549.169
549.086
549.006
548.926
548.847
548.769
548.692
548.618
548.55
548.491
548.442
548.401
548.37
548.345
548.328
548.316
548.309
548.306
548.305
548.307
548.31
548.314
548.317
548.32
548.323
548.325
548.326
548.327
548.327
548.327
548.325
548.324
548.322
548.319
548.317
548.314
548.311
548.308
548.305
548.302
548.298
548.294
548.288
548.28
548.269
548.255
548.235
548.211
548.178
548.136
548.081
548.012
547.926
547.82
547.691
547.537
547.356
547.147
546.911
546.651
546.372
546.079
545.774
545.455
545.118
544.768
544.697
544.61
544.504
544.387
544.263
544.135
544.007
543.879
543.751
543.623
543.497
543.372
543.247
543.123
543
542.878
542.756
542.635
542.514
542.394
542.273
542.154
542.034
541.915
541.795
541.676
541.557
541.439
541.32
541.201
541.083
540.964
540.846
540.728
540.609
552.41
552.131
551.858
551.593
551.34
551.101
550.876
550.666
550.471
550.291
550.126
549.976
549.839
549.712
549.596
549.492
549.394
549.302
549.214
549.128
549.045
548.963
548.882
548.8
548.719
548.638
548.56
548.488
548.426
548.374
548.332
548.3
548.275
548.258
548.247
548.24
548.238
548.239
548.242
548.246
548.251
548.255
548.259
548.262
548.265
548.267
548.268
548.268
548.268
548.267
548.266
548.264
548.262
548.259
548.257
548.254
548.251
548.249
548.246
548.242
548.237
548.232
548.224
548.213
548.198
548.178
548.153
548.119
548.077
548.022
547.954
547.869
547.765
547.641
547.492
547.319
547.118
546.89
546.636
546.361
546.069
545.765
545.45
545.127
544.796
544.701
544.599
544.488
544.369
544.245
544.118
543.991
543.864
543.737
543.611
543.485
543.361
543.237
543.114
542.992
542.87
542.749
542.629
542.508
542.388
542.269
542.149
542.03
541.911
541.792
541.674
541.555
541.437
541.318
541.2
541.082
540.963
540.845
540.727
540.609
552.401
552.104
551.815
551.537
551.274
551.028
550.799
550.59
550.398
550.223
550.065
549.921
549.791
549.67
549.558
549.456
549.361
549.27
549.181
549.094
549.009
548.924
548.839
548.755
548.67
548.586
548.504
548.429
548.363
548.309
548.265
548.231
548.206
548.189
548.178
548.172
548.171
548.172
548.176
548.18
548.185
548.19
548.194
548.198
548.201
548.203
548.205
548.205
548.205
548.205
548.203
548.201
548.199
548.196
548.194
548.191
548.189
548.186
548.183
548.18
548.175
548.169
548.161
548.15
548.134
548.114
548.088
548.054
548.011
547.957
547.889
547.806
547.706
547.584
547.441
547.273
547.079
546.859
546.612
546.343
546.055
545.755
545.448
545.134
544.81
544.708
544.596
544.477
544.354
544.228
544.102
543.975
543.848
543.722
543.597
543.473
543.349
543.226
543.104
542.983
542.862
542.742
542.621
542.502
542.382
542.263
542.144
542.026
541.907
541.789
541.671
541.552
541.434
541.316
541.198
541.08
540.962
540.845
540.727
540.609
552.393
552.081
551.776
551.486
551.213
550.962
550.733
550.526
550.34
550.172
550.021
549.884
549.759
549.643
549.536
549.436
549.341
549.25
549.16
549.07
548.98
548.891
548.802
548.713
548.624
548.536
548.45
548.372
548.304
548.247
548.201
548.165
548.139
548.121
548.11
548.105
548.104
548.105
548.109
548.114
548.119
548.124
548.128
548.132
548.135
548.137
548.139
548.139
548.139
548.138
548.136
548.134
548.132
548.129
548.126
548.123
548.12
548.118
548.115
548.112
548.107
548.101
548.092
548.081
548.065
548.044
548.016
547.981
547.938
547.883
547.816
547.734
547.635
547.517
547.379
547.218
547.031
546.817
546.578
546.316
546.035
545.743
545.446
545.147
544.835
544.722
544.597
544.469
544.34
544.212
544.085
543.958
543.832
543.707
543.583
543.459
543.337
543.215
543.094
542.973
542.853
542.733
542.614
542.495
542.376
542.258
542.139
542.021
541.903
541.785
541.667
541.55
541.432
541.314
541.197
541.079
540.961
540.844
540.726
540.609
552.386
552.06
551.744
551.444
551.166
550.912
550.685
550.483
550.302
550.141
549.996
549.864
549.745
549.634
549.53
549.432
549.337
549.243
549.15
549.056
548.961
548.866
548.771
548.676
548.581
548.489
548.399
548.317
548.246
548.187
548.139
548.102
548.074
548.056
548.045
548.039
548.038
548.039
548.042
548.046
548.051
548.056
548.06
548.064
548.067
548.069
548.07
548.07
548.069
548.068
548.066
548.063
548.06
548.057
548.054
548.05
548.047
548.044
548.041
548.038
548.033
548.027
548.018
548.005
547.988
547.966
547.938
547.902
547.857
547.802
547.735
547.654
547.556
547.442
547.307
547.149
546.968
546.762
546.531
546.277
546.006
545.724
545.441
545.168
544.921
544.747
544.598
544.459
544.326
544.195
544.067
543.94
543.815
543.691
543.567
543.445
543.323
543.202
543.082
542.962
542.843
542.724
542.606
542.487
542.369
542.252
542.134
542.016
541.899
541.781
541.664
541.547
541.429
541.312
541.195
541.078
540.96
540.843
540.726
540.609
552.382
552.048
551.723
551.416
551.134
550.881
550.657
550.459
550.285
550.129
549.99
549.864
549.749
549.642
549.541
549.443
549.345
549.248
549.15
549.05
548.949
548.847
548.744
548.643
548.542
548.445
548.351
548.265
548.191
548.129
548.08
548.041
548.012
547.993
547.981
547.975
547.973
547.973
547.976
547.98
547.984
547.988
547.992
547.995
547.998
547.999
548
547.999
547.998
547.996
547.993
547.99
547.986
547.982
547.978
547.973
547.97
547.966
547.963
547.959
547.954
547.948
547.937
547.923
547.905
547.882
547.853
547.815
547.768
547.713
547.645
547.565
547.469
547.356
547.224
547.071
546.895
546.694
546.47
546.223
545.959
545.685
545.413
545.156
544.931
544.747
544.589
544.444
544.308
544.176
544.048
543.921
543.797
543.673
543.551
543.43
543.309
543.189
543.07
542.951
542.833
542.715
542.597
542.48
542.362
542.245
542.128
542.011
541.894
541.777
541.66
541.543
541.427
541.31
541.193
541.076
540.959
540.842
540.725
540.608
552.376
552.034
551.706
551.398
551.119
550.869
550.649
550.456
550.286
550.136
550.002
549.881
549.77
549.666
549.566
549.466
549.366
549.264
549.159
549.051
548.942
548.832
548.722
548.613
548.506
548.403
548.305
548.215
548.138
548.074
548.022
547.982
547.953
547.932
547.919
547.912
547.91
547.909
547.911
547.914
547.917
547.921
547.924
547.927
547.928
547.929
547.929
547.927
547.925
547.922
547.918
547.914
547.909
547.904
547.899
547.894
547.889
547.884
547.88
547.875
547.87
547.863
547.851
547.836
547.816
547.791
547.76
547.721
547.673
547.615
547.547
547.466
547.371
547.26
547.131
546.982
546.81
546.613
546.393
546.151
545.892
545.623
545.357
545.109
544.898
544.72
544.564
544.421
544.285
544.154
544.026
543.901
543.777
543.655
543.534
543.414
543.294
543.176
543.057
542.94
542.822
542.705
542.588
542.472
542.355
542.238
542.122
542.006
541.889
541.773
541.656
541.54
541.424
541.307
541.191
541.074
540.958
540.841
540.725
540.608
552.377
552.036
551.709
551.403
551.126
550.879
550.662
550.472
550.305
550.16
550.031
549.914
549.806
549.704
549.603
549.5
549.396
549.287
549.175
549.058
548.94
548.82
548.702
548.586
548.472
548.363
548.26
548.167
548.087
548.021
547.968
547.926
547.896
547.874
547.861
547.852
547.848
547.847
547.848
547.849
547.852
547.854
547.857
547.858
547.859
547.859
547.858
547.855
547.852
547.848
547.843
547.837
547.831
547.825
547.818
547.812
547.806
547.8
547.794
547.788
547.781
547.773
547.76
547.742
547.72
547.693
547.66
547.619
547.57
547.51
547.441
547.359
547.264
547.153
547.025
546.878
546.709
546.517
546.301
546.063
545.806
545.537
545.267
545.022
544.832
544.672
544.526
544.389
544.257
544.129
544.003
543.879
543.757
543.636
543.516
543.397
543.279
543.161
543.044
542.927
542.811
542.695
542.579
542.463
542.347
542.231
542.116
542
541.884
541.768
541.653
541.537
541.421
541.305
541.189
541.073
540.957
540.84
540.724
540.608
552.378
552.038
551.716
551.417
551.145
550.903
550.69
550.504
550.343
550.202
550.077
549.962
549.855
549.753
549.649
549.543
549.433
549.317
549.195
549.068
548.939
548.811
548.684
548.561
548.441
548.326
548.218
548.122
548.039
547.97
547.915
547.872
547.841
547.819
547.804
547.795
547.79
547.787
547.787
547.787
547.788
547.79
547.791
547.791
547.791
547.79
547.787
547.784
547.779
547.773
547.767
547.76
547.752
547.745
547.737
547.729
547.721
547.713
547.706
547.698
547.689
547.678
547.663
547.644
547.619
547.59
547.555
547.511
547.46
547.399
547.327
547.245
547.149
547.039
546.912
546.767
546.601
546.412
546.2
545.963
545.706
545.431
545.143
544.879
544.737
544.609
544.481
544.353
544.226
544.101
543.977
543.855
543.735
543.615
543.497
543.379
543.262
543.146
543.03
542.915
542.799
542.684
542.569
542.454
542.339
542.224
542.109
541.994
541.879
541.764
541.649
541.533
541.418
541.302
541.187
541.071
540.955
540.839
540.724
540.608
552.384
552.055
551.74
551.447
551.182
550.945
550.738
550.557
550.4
550.262
550.138
550.024
549.917
549.811
549.703
549.592
549.474
549.349
549.217
549.079
548.94
548.802
548.668
548.537
548.411
548.29
548.178
548.079
547.993
547.923
547.866
547.822
547.79
547.767
547.751
547.74
547.734
547.73
547.729
547.728
547.728
547.728
547.728
547.727
547.725
547.722
547.719
547.713
547.707
547.7
547.693
547.684
547.675
547.665
547.655
547.646
547.636
547.626
547.616
547.606
547.593
547.58
547.562
547.54
547.514
547.482
547.444
547.398
547.344
547.281
547.208
547.124
547.028
546.918
546.791
546.647
546.482
546.297
546.088
545.857
545.602
545.32
544.988
544.614
544.629
544.547
544.435
544.316
544.193
544.071
543.95
543.83
543.712
543.594
543.477
543.361
543.246
543.131
543.016
542.902
542.788
542.674
542.559
542.445
542.331
542.217
542.103
541.988
541.874
541.759
541.645
541.53
541.415
541.3
541.184
541.069
540.954
540.839
540.723
540.608
552.391
552.075
551.772
551.488
551.23
550.999
550.795
550.618
550.466
550.331
550.21
550.096
549.985
549.876
549.763
549.644
549.517
549.383
549.24
549.091
548.94
548.793
548.652
548.515
548.384
548.259
548.142
548.039
547.951
547.878
547.82
547.775
547.742
547.718
547.701
547.689
547.681
547.677
547.674
547.672
547.671
547.67
547.668
547.666
547.662
547.658
547.653
547.646
547.638
547.63
547.62
547.61
547.599
547.587
547.575
547.563
547.551
547.538
547.525
547.511
547.496
547.479
547.457
547.433
547.403
547.369
547.328
547.28
547.224
547.159
547.084
546.999
546.902
546.792
546.666
546.523
546.36
546.178
545.975
545.753
545.511
545.253
544.986
544.743
544.624
544.514
544.4
544.281
544.162
544.042
543.923
543.805
543.688
543.572
543.457
543.342
543.228
543.115
543.002
542.889
542.776
542.663
542.55
542.436
542.323
542.21
542.096
541.983
541.869
541.755
541.64
541.526
541.412
541.297
541.182
541.067
540.953
540.838
540.723
540.608
552.398
552.097
551.806
551.533
551.284
551.06
550.865
550.694
550.545
550.41
550.288
550.171
550.057
549.941
549.821
549.695
549.559
549.414
549.26
549.099
548.939
548.784
548.635
548.493
548.356
548.226
548.106
548
547.91
547.836
547.777
547.731
547.698
547.673
547.655
547.642
547.633
547.628
547.624
547.621
547.618
547.616
547.613
547.609
547.604
547.598
547.591
547.583
547.573
547.563
547.551
547.539
547.525
547.511
547.497
547.482
547.466
547.45
547.434
547.416
547.397
547.376
547.351
547.322
547.29
547.253
547.21
547.159
547.101
547.034
546.957
546.871
546.773
546.663
546.539
546.398
546.239
546.063
545.868
545.656
545.431
545.196
544.963
544.751
544.611
544.489
544.369
544.25
544.13
544.012
543.895
543.778
543.663
543.549
543.436
543.323
543.211
543.099
542.987
542.875
542.763
542.651
542.539
542.427
542.315
542.202
542.09
541.977
541.864
541.75
541.636
541.523
541.409
541.294
541.18
541.066
540.951
540.837
540.722
540.607
552.406
552.12
551.843
551.583
551.343
551.129
550.94
550.773
550.624
550.491
550.368
550.249
550.129
550.007
549.88
549.745
549.598
549.441
549.276
549.105
548.935
548.772
548.616
548.468
548.327
548.194
548.071
547.963
547.872
547.797
547.739
547.693
547.658
547.632
547.614
547.6
547.591
547.584
547.579
547.575
547.571
547.568
547.563
547.558
547.551
547.544
547.535
547.524
547.513
547.5
547.486
547.472
547.456
547.439
547.421
547.403
547.384
547.364
547.344
547.322
547.298
547.272
547.243
547.211
547.176
547.136
547.09
547.037
546.976
546.907
546.829
546.742
546.644
546.534
546.412
546.274
546.121
545.951
545.765
545.566
545.356
545.14
544.921
544.691
544.582
544.461
544.339
544.218
544.099
543.982
543.866
543.751
543.638
543.526
543.414
543.303
543.193
543.082
542.972
542.862
542.751
542.64
542.53
542.418
542.307
542.195
542.083
541.971
541.858
541.746
541.632
541.519
541.406
541.292
541.178
541.064
540.95
540.836
540.721
540.607
552.413
552.143
551.883
551.637
551.409
551.204
551.02
550.857
550.71
550.575
550.449
550.324
550.199
550.07
549.934
549.788
549.632
549.463
549.286
549.105
548.927
548.756
548.595
548.443
548.299
548.163
548.039
547.93
547.837
547.762
547.702
547.657
547.623
547.597
547.578
547.564
547.554
547.547
547.541
547.536
547.531
547.526
547.52
547.513
547.505
547.496
547.485
547.472
547.459
547.444
547.427
547.41
547.391
547.371
547.35
547.328
547.306
547.282
547.257
547.23
547.202
547.171
547.138
547.102
547.063
547.019
546.97
546.915
546.853
546.782
546.703
546.615
546.516
546.408
546.287
546.152
546.004
545.841
545.665
545.478
545.284
545.087
544.891
544.708
544.566
544.435
544.308
544.186
544.067
543.95
543.836
543.724
543.612
543.502
543.393
543.284
543.175
543.066
542.957
542.848
542.739
542.629
542.52
542.409
542.299
542.188
542.077
541.965
541.853
541.741
541.629
541.516
541.403
541.29
541.176
541.062
540.949
540.835
540.721
540.607
552.421
552.167
551.921
551.689
551.474
551.277
551.1
550.939
550.793
550.657
550.527
550.396
550.263
550.126
549.981
549.825
549.658
549.479
549.291
549.101
548.914
548.737
548.571
548.417
548.272
548.137
548.012
547.901
547.808
547.732
547.673
547.628
547.593
547.568
547.549
547.535
547.524
547.516
547.51
547.505
547.499
547.493
547.486
547.478
547.468
547.456
547.443
547.428
547.412
547.394
547.375
547.354
547.332
547.309
547.285
547.259
547.233
547.205
547.176
547.145
547.111
547.076
547.038
546.998
546.954
546.907
546.855
546.797
546.733
546.66
546.579
546.491
546.392
546.284
546.165
546.034
545.89
545.734
545.565
545.387
545.204
545.021
544.844
544.679
544.536
544.402
544.274
544.151
544.032
543.917
543.805
543.695
543.586
543.478
543.371
543.264
543.157
543.05
542.942
542.835
542.727
542.619
542.51
542.401
542.291
542.181
542.071
541.96
541.849
541.737
541.625
541.513
541.4
541.287
541.174
541.061
540.948
540.834
540.72
540.607
552.429
552.19
551.96
551.741
551.537
551.348
551.177
551.019
550.873
550.734
550.598
550.461
550.32
550.173
550.019
549.854
549.677
549.488
549.29
549.09
548.895
548.711
548.541
548.386
548.242
548.108
547.984
547.876
547.784
547.709
547.65
547.605
547.571
547.546
547.527
547.513
547.503
547.495
547.489
547.483
547.477
547.47
547.462
547.452
547.441
547.427
547.412
547.394
547.375
547.354
547.331
547.307
547.282
547.255
547.227
547.199
547.169
547.139
547.107
547.071
547.032
546.991
546.948
546.903
546.855
546.804
546.747
546.686
546.618
546.542
546.459
546.37
546.271
546.163
546.046
545.918
545.777
545.625
545.459
545.283
545.101
544.925
544.76
544.615
544.488
544.356
544.231
544.11
543.995
543.882
543.773
543.665
543.559
543.453
543.348
543.243
543.139
543.033
542.928
542.822
542.715
542.608
542.501
542.392
542.284
542.175
542.065
541.955
541.844
541.733
541.621
541.509
541.397
541.285
541.172
541.059
540.946
540.833
540.72
540.607
552.437
552.214
551.998
551.792
551.598
551.418
551.25
551.094
550.947
550.803
550.66
550.514
550.364
550.206
550.04
549.864
549.678
549.48
549.274
549.067
548.866
548.677
548.507
548.353
548.212
548.082
547.963
547.857
547.766
547.693
547.636
547.592
547.559
547.534
547.516
547.503
547.493
547.486
547.48
547.474
547.467
547.459
547.45
547.439
547.426
547.411
547.393
547.373
547.349
547.324
547.298
547.27
547.24
547.209
547.178
547.148
547.119
547.089
547.055
547.015
546.971
546.924
546.876
546.826
546.773
546.715
546.653
546.587
546.513
546.43
546.343
546.254
546.15
546.04
545.927
545.801
545.66
545.504
545.334
545.146
544.955
544.772
544.613
544.5
544.427
544.293
544.177
544.064
543.953
543.845
543.739
543.634
543.531
543.428
543.326
543.224
543.121
543.018
542.914
542.809
542.704
542.598
542.492
542.385
542.277
542.168
542.059
541.95
541.84
541.729
541.618
541.507
541.395
541.283
541.17
541.058
540.945
540.832
540.72
540.607
552.445
552.237
552.035
551.841
551.656
551.482
551.317
551.161
551.01
550.86
550.709
550.553
550.39
550.221
550.045
549.858
549.661
549.456
549.245
549.032
548.826
548.636
548.466
548.315
548.18
548.056
547.942
547.841
547.755
547.686
547.632
547.591
547.559
547.534
547.517
547.506
547.499
547.494
547.487
547.479
547.47
547.461
547.452
547.442
547.429
547.413
547.393
547.368
547.34
547.311
547.28
547.246
547.211
547.176
547.143
547.113
547.089
547.063
547.03
546.984
546.933
546.882
546.828
546.773
546.714
546.65
546.588
546.518
546.433
546.333
546.239
546.153
546.024
545.906
545.8
545.662
545.514
545.333
545.157
544.939
544.757
544.575
544.377
544.311
544.267
544.197
544.109
544.01
543.907
543.805
543.703
543.603
543.503
543.404
543.304
543.204
543.104
543.002
542.9
542.797
542.694
542.589
542.483
542.377
542.27
542.162
542.054
541.945
541.835
541.725
541.615
541.504
541.393
541.281
541.169
541.057
540.944
540.832
540.719
540.606
552.453
552.259
552.069
551.884
551.707
551.538
551.374
551.216
551.059
550.901
550.738
550.569
550.394
550.211
550.021
549.823
549.619
549.409
549.198
548.986
548.778
548.586
548.417
548.27
548.143
548.028
547.923
547.829
547.749
547.686
547.639
547.603
547.573
547.549
547.536
547.531
547.531
547.528
547.52
547.506
547.491
547.484
547.477
547.47
547.46
547.444
547.42
547.388
547.353
547.322
547.288
547.244
547.203
547.17
547.143
547.118
547.096
547.075
547.034
546.967
546.908
546.858
546.802
546.743
546.676
546.621
546.59
546.532
546.432
546.289
546.199
546.155
545.888
545.79
545.637
545.372
545.239
544.94
544.851
544.53
544.562
544.673
544.238
544.177
544.135
544.102
544.038
543.953
543.859
543.763
543.667
543.571
543.475
543.379
543.283
543.185
543.087
542.988
542.888
542.786
542.684
542.58
542.476
542.37
542.264
542.157
542.049
541.941
541.832
541.722
541.612
541.501
541.39
541.279
541.167
541.056
540.943
540.831
540.719
540.606
552.459
552.279
552.1
551.925
551.753
551.585
551.419
551.255
551.088
550.917
550.74
550.557
550.365
550.166
549.962
549.755
549.546
549.336
549.127
548.92
548.718
548.527
548.356
548.21
548.093
547.994
547.902
547.817
547.744
547.69
547.656
547.631
547.604
547.581
547.579
547.59
547.608
547.611
547.594
547.565
547.539
547.548
547.547
547.549
547.55
547.53
547.494
547.444
547.4
547.384
547.361
547.282
547.236
547.238
547.247
547.226
547.184
547.146
547.056
546.909
546.846
546.814
546.768
546.711
546.61
546.609
546.721
546.715
546.582
546.435
546.461
546.361
545.729
545.885
545.492
544.935
544.628
544.243
544.666
544.712
544.211
544.332
544.109
544.126
544.073
544.033
543.976
543.897
543.81
543.72
543.63
543.539
543.447
543.355
543.262
543.167
543.072
542.974
542.876
542.776
542.675
542.572
542.469
542.364
542.259
542.152
542.045
541.937
541.829
541.719
541.61
541.499
541.389
541.278
541.166
541.054
540.943
540.831
540.718
540.606
552.467
552.3
552.132
551.964
551.796
551.624
551.45
551.271
551.087
550.897
550.703
550.504
550.295
550.076
549.857
549.644
549.437
549.237
549.042
548.848
548.656
548.465
548.283
548.128
548.021
547.951
547.879
547.806
547.735
547.69
547.68
547.672
547.648
547.623
547.661
547.709
547.772
547.784
547.749
547.679
547.604
547.639
547.629
547.665
547.722
547.682
547.606
547.518
547.433
547.405
547.416
547.316
547.269
547.347
547.521
547.515
547.374
547.275
546.988
546.609
546.609
546.607
546.577
546.557
546.382
546.518
546.929
547.123
547.009
546.681
546.967
546.357
546.061
546.096
545.579
545.446
545.068
544.857
544.596
544.647
544.34
544.233
544.075
544.027
544.004
543.984
543.925
543.843
543.761
543.678
543.593
543.508
543.421
543.332
543.242
543.151
543.058
542.962
542.865
542.767
542.667
542.566
542.463
542.359
542.254
542.148
542.042
541.934
541.826
541.717
541.607
541.497
541.387
541.276
541.165
541.054
540.942
540.83
540.718
540.606
552.475
552.324
552.169
552.007
551.837
551.654
551.46
551.259
551.045
550.83
550.617
550.403
550.174
549.934
549.7
549.491
549.288
549.102
548.931
548.763
548.604
548.419
548.22
548.035
547.934
547.915
547.859
547.799
547.718
547.666
547.705
547.721
547.688
547.665
547.797
547.928
548.003
548.021
547.928
547.879
547.772
547.691
547.707
547.85
548.117
547.991
547.75
547.651
547.427
547.453
547.729
547.314
547.15
547.359
547.889
547.983
547.822
547.504
547.048
546.5
546.762
546.599
546.274
545.931
546.357
546.957
546.922
547.031
547.153
546.47
546.442
546.128
545.998
545.982
545.686
545.59
545.304
545.143
544.747
544.595
544.351
544.178
544.078
544.014
543.984
543.956
543.862
543.786
543.711
543.636
543.558
543.478
543.395
543.311
543.225
543.136
543.045
542.952
542.857
542.759
542.66
542.56
542.458
542.355
542.25
542.145
542.039
541.931
541.824
541.715
541.606
541.496
541.386
541.275
541.164
541.053
540.941
540.83
540.718
540.606
552.485
552.353
552.211
552.055
551.889
551.684
551.46
551.224
550.959
550.712
550.481
550.255
550.007
549.744
549.506
549.331
549.096
548.891
548.753
548.636
548.599
548.449
548.24
547.987
547.868
547.883
547.802
547.737
547.692
547.705
547.67
547.62
547.719
547.654
547.988
548.274
548.328
548.351
548.225
548.134
547.832
547.747
547.808
548.009
548.58
548.329
547.706
547.693
547.325
547.499
547.824
547.206
547.036
547.371
547.907
547.617
547.868
548.013
547.388
546.813
546.834
546.798
546.658
546.278
546.458
546.832
546.89
546.84
546.816
546.455
546.23
546.08
545.947
545.906
545.742
545.629
545.389
545.187
544.799
544.512
544.315
544.177
544.076
543.993
543.921
543.891
543.812
543.727
543.661
543.596
543.526
543.45
543.372
543.292
543.21
543.124
543.035
542.944
542.85
542.753
542.655
542.555
542.454
542.351
542.247
542.142
542.036
541.929
541.822
541.713
541.604
541.495
541.385
541.274
541.164
541.052
540.941
540.829
540.718
540.606
552.498
552.386
552.253
552.095
551.953
551.717
551.472
551.176
550.831
550.584
550.32
550.087
549.812
549.522
549.321
549.312
548.846
548.415
548.352
548.43
548.524
548.465
548.289
548.038
547.967
547.822
547.661
547.569
547.525
547.655
547.443
547.276
547.788
547.527
548.046
548.459
548.449
548.799
549.085
548.576
547.647
547.651
548.005
547.969
548.058
548.053
547.651
547.691
547.766
547.499
547.71
547.244
547.141
547.39
547.583
547.424
547.454
547.492
547.375
547.074
546.988
546.891
546.833
546.708
546.722
546.831
546.801
546.679
546.564
546.355
546.172
546.047
545.935
545.852
545.707
545.549
545.346
545.138
544.804
544.528
544.329
544.206
544.146
544.057
543.958
543.842
543.754
543.69
543.614
543.561
543.5
543.425
543.35
543.276
543.198
543.115
543.028
542.938
542.845
542.749
542.652
542.552
542.451
542.349
542.245
542.141
542.035
541.928
541.821
541.712
541.604
541.494
541.384
541.274
541.163