/*--------------------------------*- C++ -*----------------------------------*\
  =========                 |
  \\      /  F ield         | OpenFOAM: The Open Source CFD Toolbox
   \\    /   O peration     | Website:  https://openfoam.org
    \\  /    A nd           | Version:  6
     \\/     M anipulation  |
\*---------------------------------------------------------------------------*/
FoamFile
{
    version     2.0;
    format      ascii;
    class       volVectorField;
    location    "3700";
    object      U;
}
// * * * * * * * * * * * * * * * * * * * * * * * * * * * * * * * * * * * * * //

dimensions      [0 1 -1 0 0 0 0];

internalField   nonuniform List<vector> 
4800
(
(-0.000398942 0 -0.000118022)
(0.000366504 0 -0.000196768)
(0.000432815 0 -0.000213203)
(0.000539672 0 -0.000155085)
(0.000640684 0 -0.000177675)
(0.000755543 0 -0.000117707)
(0.000816293 0 -0.00019379)
(0.000886693 0 -9.9334e-05)
(0.000890193 0 -6.02635e-05)
(0.00088984 0 -1.92872e-05)
(0.000882805 0 1.36349e-05)
(0.000863589 0 2.79771e-05)
(0.000827361 0 4.71159e-05)
(0.000788783 0 4.56456e-05)
(0.000766422 0 7.13053e-05)
(0.000743397 0 0.000103333)
(0.000718408 0 4.70193e-05)
(0.000723234 0 2.12244e-05)
(0.000740308 0 -4.6858e-06)
(0.000777258 0 4.07375e-05)
(0.000806217 0 -8.93189e-05)
(0.000897586 0 -2.81108e-05)
(0.000945843 0 -6.45604e-05)
(0.00103058 0 -6.72359e-05)
(0.00115271 0 -0.000100157)
(0.00125621 0 -0.000174211)
(0.00142681 0 -0.000214336)
(0.00169501 0 8.02759e-05)
(0.00183486 0 -0.000202891)
(0.00201696 0 -0.000300779)
(0.00244965 0 0.000482054)
(0.00279937 0 -0.000507274)
(0.00294196 0 -0.000854784)
(0.00312604 0 -0.000420443)
(0.00328051 0 -0.000316156)
(0.00355225 0 -0.000143669)
(0.00380098 0 -7.06758e-05)
(0.00378232 0 -2.80126e-05)
(0.00380063 0 -1.64962e-05)
(0.00386096 0 8.04964e-05)
(0.00391401 0 4.52701e-06)
(0.00390481 0 -6.8855e-05)
(0.00390335 0 -0.000116912)
(0.00393309 0 -0.000106731)
(0.00396114 0 -2.63952e-05)
(0.00395289 0 -1.11548e-05)
(0.00392906 0 3.68724e-05)
(0.00389128 0 6.85584e-05)
(0.0038404 0 4.23737e-05)
(0.00378337 0 4.81769e-05)
(0.00373831 0 5.12683e-05)
(0.00371427 0 5.8022e-05)
(0.00369814 0 5.73337e-05)
(0.00368276 0 4.62788e-05)
(0.00366599 0 4.14061e-05)
(0.00364561 0 7.45424e-06)
(0.00362246 0 1.7441e-05)
(0.00359266 0 -5.11309e-05)
(0.00355398 0 1.67481e-05)
(0.00350822 0 -0.000108842)
(0.00345991 0 -1.27188e-05)
(0.00339488 0 -0.000116506)
(0.00333509 0 -7.12336e-05)
(0.00326549 0 -6.83578e-05)
(0.00318093 0 -0.000150435)
(0.00310131 0 -1.02184e-05)
(0.00299829 0 -0.000165027)
(0.00288861 0 8.79697e-06)
(0.00275786 0 -8.30666e-05)
(0.00260665 0 -9.1436e-05)
(0.0024179 0 0.000162546)
(0.00219238 0 -0.000224152)
(0.00192025 0 0.000129533)
(0.00171994 0 0.000274643)
(0.000865314 0 -0.000972982)
(0.000690049 0 -0.000743365)
(0.000636993 0 -4.53071e-05)
(0.000126858 0 6.51052e-05)
(-6.51039e-05 0 5.43382e-05)
(-0.000218913 0 -7.0798e-05)
(-0.000297415 0 -3.85678e-05)
(-0.000302203 0 -1.90999e-05)
(-0.000188586 0 -0.000209295)
(9.95748e-05 0 -0.000299519)
(1.02441e-06 0 5.81549e-06)
(-3.99986e-13 0 5.56518e-13)
(-2.33315e-13 0 2.25064e-13)
(-5.57984e-13 0 9.95939e-14)
(-6.97979e-13 0 4.03882e-14)
(-7.45223e-13 0 6.84037e-15)
(-7.37314e-13 0 -1.4723e-14)
(-6.92979e-13 0 -2.95563e-14)
(-6.23329e-13 0 -4.0003e-14)
(-5.35945e-13 0 -4.725e-14)
(-4.36543e-13 0 -5.19729e-14)
(-3.29734e-13 0 -5.46008e-14)
(-2.19396e-13 0 -5.5439e-14)
(-1.08864e-13 0 -5.47294e-14)
(-1.02454e-15 0 -5.26825e-14)
(1.01639e-13 0 -4.9494e-14)
(1.97022e-13 0 -4.53524e-14)
(2.83395e-13 0 -4.04419e-14)
(3.59384e-13 0 -3.49414e-14)
(4.23971e-13 0 -2.90225e-14)
(4.76467e-13 0 -2.28468e-14)
(5.16499e-13 0 -1.65628e-14)
(5.43977e-13 0 -1.0304e-14)
(5.59063e-13 0 -4.18703e-15)
(5.6214e-13 0 1.68884e-15)
(5.53771e-13 0 7.24159e-15)
(5.3467e-13 0 1.24057e-14)
(5.05666e-13 0 1.71306e-14)
(4.67679e-13 0 2.13789e-14)
(4.21689e-13 0 2.51244e-14)
(3.68722e-13 0 2.83497e-14)
(3.09829e-13 0 3.10447e-14)
(2.46077e-13 0 3.32047e-14)
(1.78536e-13 0 3.48302e-14)
(1.08268e-13 0 3.59298e-14)
(3.62921e-14 0 3.6537e-14)
(-0.00025788 0 -0.000244138)
(0.000359412 0 -0.000277807)
(0.000422172 0 -0.000239358)
(0.000472299 0 -0.000217402)
(0.000560781 0 -0.000151364)
(0.000653049 0 -0.000119012)
(0.000707576 0 -3.45567e-05)
(0.000690364 0 -2.83392e-05)
(0.000656486 0 -3.27024e-05)
(0.000630366 0 -3.01563e-05)
(0.000631389 0 -1.10186e-05)
(0.00062403 0 6.1692e-06)
(0.000598806 0 3.69954e-06)
(0.000565543 0 -1.46004e-05)
(0.000532542 0 4.35257e-06)
(0.000477782 0 5.30514e-06)
(0.00042779 0 -1.15372e-05)
(0.000436951 0 4.07873e-07)
(0.00043173 0 -1.84545e-05)
(0.000448868 0 -4.13522e-05)
(0.000466192 0 -6.5073e-05)
(0.000584981 0 6.72036e-05)
(0.000545108 0 -0.000155178)
(0.000639292 0 -9.1904e-05)
(0.000810756 0 -6.2601e-06)
(0.000894402 0 -0.000227451)
(0.00103596 0 -0.000340179)
(0.00129868 0 -0.000207942)
(0.00154186 0 -0.000144936)
(0.00164615 0 -0.000549482)
(0.00198286 0 -0.000614908)
(0.0025116 0 0.000133781)
(0.00273892 0 -0.000282576)
(0.00277513 0 -0.000374772)
(0.00286306 0 -0.000439489)
(0.0030934 0 -0.000217991)
(0.00333015 0 -0.000103685)
(0.00339368 0 -0.000281893)
(0.00345836 0 -0.000198896)
(0.00354805 0 -0.00013921)
(0.00363684 0 -8.08812e-05)
(0.00368682 0 2.32895e-05)
(0.00368627 0 3.76334e-05)
(0.00366448 0 2.81392e-05)
(0.00362784 0 1.90412e-05)
(0.00359956 0 3.83401e-05)
(0.00356309 0 1.75488e-05)
(0.00352469 0 3.60306e-05)
(0.0034962 0 4.33671e-05)
(0.00346577 0 5.87074e-05)
(0.00343298 0 3.64936e-05)
(0.00340946 0 9.86719e-06)
(0.00339357 0 -8.89901e-06)
(0.00337836 0 -2.18737e-05)
(0.00336863 0 1.26618e-05)
(0.00335596 0 2.45561e-05)
(0.00334409 0 5.05664e-05)
(0.00332411 0 9.89975e-05)
(0.00329119 0 6.21451e-05)
(0.00325395 0 0.000147068)
(0.00321181 0 0.000164554)
(0.00316024 0 0.000142754)
(0.00311502 0 0.000224714)
(0.00306437 0 0.000194506)
(0.00300018 0 0.000226558)
(0.00293414 0 0.000227803)
(0.00283391 0 0.000281814)
(0.00271661 0 0.000252279)
(0.00260008 0 0.000312034)
(0.00245136 0 0.000382646)
(0.00229833 0 0.000282647)
(0.00208291 0 0.000532498)
(0.00186152 0 0.000339009)
(0.00166064 0 0.000242529)
(0.00121948 0 0.000928052)
(0.0009197 0 0.000889763)
(0.000360587 0 0.000630262)
(9.5151e-05 0 0.000393014)
(-0.000132648 0 0.000267531)
(-0.000228646 0 0.000242744)
(-0.000312632 0 6.39749e-05)
(-0.00028041 0 -0.000115443)
(-0.000118962 0 -0.000368129)
(-5.87739e-05 0 -0.00040129)
(7.29869e-07 0 0.000199681)
(-5.4714e-13 0 9.25052e-13)
(-6.89908e-13 0 4.69222e-13)
(-7.42402e-13 0 2.32573e-13)
(-7.90621e-13 0 9.56534e-14)
(-8.00334e-13 0 8.58541e-15)
(-7.73711e-13 0 -5.08362e-14)
(-7.18259e-13 0 -9.29766e-14)
(-6.41023e-13 0 -1.23111e-13)
(-5.47915e-13 0 -1.44155e-13)
(-4.43894e-13 0 -1.57872e-13)
(-3.332e-13 0 -1.65427e-13)
(-2.19525e-13 0 -1.67679e-13)
(-1.06108e-13 0 -1.6532e-13)
(4.21092e-15 0 -1.58968e-13)
(1.08969e-13 0 -1.49202e-13)
(2.06074e-13 0 -1.36586e-13)
(2.93805e-13 0 -1.21672e-13)
(3.70803e-13 0 -1.04999e-13)
(4.36065e-13 0 -8.70839e-14)
(4.88927e-13 0 -6.84132e-14)
(5.29042e-13 0 -4.9434e-14)
(5.56353e-13 0 -3.05472e-14)
(5.71056e-13 0 -1.21031e-14)
(5.73568e-13 0 5.60103e-15)
(5.64488e-13 0 2.23203e-14)
(5.44559e-13 0 3.78595e-14)
(5.1464e-13 0 5.20687e-14)
(4.75673e-13 0 6.48376e-14)
(4.2866e-13 0 7.60894e-14)
(3.74642e-13 0 8.57742e-14)
(3.14684e-13 0 9.38629e-14)
(2.49862e-13 0 1.00342e-13)
(1.81261e-13 0 1.05209e-13)
(1.09975e-13 0 1.08474e-13)
(3.68993e-14 0 1.10166e-13)
(-4.57952e-05 0 -0.000498404)
(0.000259945 0 -0.00042824)
(0.000343545 0 -0.000335077)
(0.000401668 0 -0.000263665)
(0.000427263 0 -0.000232758)
(0.000502335 0 -0.000111277)
(0.000484916 0 -6.77528e-05)
(0.000453772 0 -8.46181e-05)
(0.000443247 0 3.27182e-05)
(0.000413267 0 3.97837e-05)
(0.00039246 0 6.52728e-05)
(0.000368895 0 9.19231e-05)
(0.000332774 0 0.000111686)
(0.000239821 0 0.000163718)
(0.000149988 0 0.000122824)
(4.55974e-05 0 5.67209e-05)
(6.17677e-05 0 2.66029e-05)
(6.00479e-05 0 8.89088e-06)
(4.89333e-05 0 -5.29151e-05)
(8.34814e-05 0 -6.47609e-05)
(0.000107542 0 -0.000114188)
(0.000181272 0 -0.000118483)
(0.000203638 0 -0.000226874)
(0.000332672 0 -0.000225615)
(0.000495813 0 -0.000246705)
(0.000528988 0 -0.00048593)
(0.000766324 0 -0.00051631)
(0.00101479 0 -0.000510623)
(0.00135242 0 -0.000410687)
(0.00144465 0 -0.000882256)
(0.00186596 0 -0.00059615)
(0.00218493 0 -0.00037213)
(0.00226683 0 -0.000714589)
(0.00244395 0 -0.000609338)
(0.00260364 0 -0.000690626)
(0.00282753 0 -0.000304198)
(0.00296791 0 -0.00017334)
(0.00306952 0 -0.000330312)
(0.00319849 0 -0.00026918)
(0.0033012 0 -5.94968e-05)
(0.00330334 0 -3.60586e-05)
(0.00328037 0 -5.41206e-05)
(0.00325932 0 -2.27237e-05)
(0.00325128 0 -4.38106e-06)
(0.00324674 0 5.03696e-05)
(0.00324383 0 7.47937e-05)
(0.00323405 0 8.43123e-05)
(0.00321012 0 0.000100205)
(0.00317249 0 0.000134057)
(0.0031451 0 8.70976e-05)
(0.00314096 0 7.3129e-05)
(0.00313563 0 5.8961e-05)
(0.0031198 0 7.69838e-05)
(0.00309462 0 2.65924e-05)
(0.00306024 0 6.56584e-05)
(0.00302591 0 1.04901e-05)
(0.00299653 0 1.59533e-05)
(0.002963 0 6.11677e-05)
(0.00293017 0 9.17612e-06)
(0.00289975 0 5.26452e-05)
(0.00285111 0 6.40572e-05)
(0.00281269 0 -1.72726e-05)
(0.00276999 0 7.68067e-05)
(0.00270549 0 4.29614e-05)
(0.0026712 0 2.01439e-05)
(0.00260023 0 0.000162125)
(0.0025297 0 9.61636e-05)
(0.00246107 0 6.30111e-05)
(0.00236253 0 0.000263979)
(0.0022406 0 0.000281825)
(0.00211775 0 0.000229871)
(0.00197486 0 0.000445796)
(0.00179305 0 0.000507802)
(0.00160428 0 0.000578813)
(0.00138298 0 0.000823907)
(0.000949565 0 0.00100886)
(0.000452671 0 0.000856826)
(0.000236733 0 0.000659621)
(2.81621e-07 0 0.000487416)
(-0.000153382 0 0.000286413)
(-0.00023776 0 7.10783e-05)
(-0.000260379 0 -0.000220188)
(-0.000154338 0 -0.000409315)
(-0.000149627 0 -0.00047024)
(3.77079e-07 0 0.000204748)
(-5.79765e-13 0 7.80927e-13)
(-9.25147e-13 0 4.94246e-13)
(-9.31041e-13 0 2.6596e-13)
(-9.21753e-13 0 1.01347e-13)
(-8.91713e-13 0 -1.72434e-14)
(-8.38876e-13 0 -1.04156e-13)
(-7.65253e-13 0 -1.68327e-13)
(-6.74507e-13 0 -2.15228e-13)
(-5.70706e-13 0 -2.48304e-13)
(-4.57815e-13 0 -2.69839e-13)
(-3.39541e-13 0 -2.81458e-13)
(-2.19289e-13 0 -2.84417e-13)
(-1.00154e-13 0 -2.79785e-13)
(1.50935e-14 0 -2.68537e-13)
(1.24021e-13 0 -2.5162e-13)
(2.24553e-13 0 -2.29967e-13)
(3.14982e-13 0 -2.04503e-13)
(3.93972e-13 0 -1.76135e-13)
(4.60556e-13 0 -1.45735e-13)
(5.14117e-13 0 -1.14122e-13)
(5.54365e-13 0 -8.20482e-14)
(5.81308e-13 0 -5.01867e-14)
(5.95212e-13 0 -1.91223e-14)
(5.96563e-13 0 1.06507e-14)
(5.86029e-13 0 3.87275e-14)
(5.64418e-13 0 6.47881e-14)
(5.32645e-13 0 8.85889e-14)
(4.917e-13 0 1.09953e-13)
(4.42626e-13 0 1.28759e-13)
(3.86495e-13 0 1.44931e-13)
(3.24396e-13 0 1.58426e-13)
(2.57423e-13 0 1.69225e-13)
(1.86669e-13 0 1.77324e-13)
(1.13225e-13 0 1.82726e-13)
(3.79836e-14 0 1.85427e-13)
(0.000108677 0 -0.000556643)
(7.54702e-05 0 -0.000538914)
(0.000131545 0 -0.000479425)
(0.000361095 0 -0.000280969)
(0.000230812 0 -0.000331628)
(0.000367332 0 -4.13826e-05)
(0.000267049 0 -0.000113472)
(0.00024316 0 6.34761e-05)
(0.000225741 0 7.33509e-05)
(0.000101782 0 1.9035e-05)
(-2.71794e-05 0 0.000147498)
(-0.000187349 0 0.000200677)
(-0.000314478 0 0.000214734)
(-0.000326053 0 0.000195288)
(-0.000318419 0 0.000171896)
(-0.000353032 0 0.000102615)
(-0.000303425 0 9.45615e-05)
(-0.000315135 0 -3.92218e-05)
(-0.000269807 0 -2.42925e-05)
(-0.000219199 0 -5.09643e-05)
(-0.000159382 0 -0.00010802)
(-0.000131219 0 -0.000167795)
(3.20465e-05 0 -0.000233561)
(0.000104668 0 -0.000290032)
(0.0003207 0 -0.000293222)
(0.000382636 0 -0.000506342)
(0.00059436 0 -0.000652364)
(0.000844239 0 -0.000712584)
(0.00127812 0 -0.000499406)
(0.00131323 0 -0.00103159)
(0.00165301 0 -0.000953152)
(0.00192302 0 -0.00073268)
(0.00208276 0 -0.000707782)
(0.00218375 0 -0.0010232)
(0.00248762 0 -0.000669893)
(0.00252479 0 -0.00050326)
(0.00256744 0 -0.000416207)
(0.00265027 0 -0.000390742)
(0.00276067 0 -0.000314242)
(0.00283889 0 -0.000269986)
(0.00288392 0 -3.38584e-05)
(0.0029021 0 -3.81859e-05)
(0.00293711 0 -9.37117e-06)
(0.00294011 0 8.05275e-06)
(0.00293019 0 -2.30246e-06)
(0.00292176 0 4.84479e-05)
(0.00291199 0 7.19116e-05)
(0.00289607 0 0.000100892)
(0.00288009 0 0.000101033)
(0.00287132 0 0.000124016)
(0.00285849 0 6.46415e-05)
(0.00283393 0 9.74686e-05)
(0.0028021 0 5.77148e-06)
(0.00277751 0 9.73261e-05)
(0.00275653 0 8.077e-05)
(0.00273505 0 0.00010593)
(0.00270989 0 0.000156271)
(0.00267635 0 0.000128356)
(0.0026558 0 0.000144342)
(0.00262003 0 0.000269419)
(0.0025884 0 0.0001272)
(0.00254189 0 0.000270066)
(0.00247238 0 0.000345985)
(0.00243535 0 7.44038e-05)
(0.00235816 0 0.000486737)
(0.00229206 0 6.27585e-05)
(0.00219937 0 0.000406573)
(0.00217842 0 0.000508677)
(0.00211088 0 0.000567114)
(0.00194262 0 0.000604698)
(0.00183273 0 0.000553857)
(0.00173951 0 0.000764944)
(0.00166956 0 0.000732572)
(0.00147908 0 0.000849142)
(0.00106685 0 0.00123973)
(0.000875597 0 0.00128895)
(0.000639903 0 0.00116287)
(0.000303771 0 0.000919107)
(7.46681e-05 0 0.000674248)
(4.80213e-06 0 0.000450592)
(-0.000101749 0 0.000267499)
(-8.13096e-05 0 -0.000247821)
(-0.000122268 0 -0.000437036)
(-3.98889e-05 0 -0.000615663)
(-1.21685e-07 0 0.000129228)
(-5.84941e-13 0 7.57933e-13)
(-1.20424e-12 0 4.60956e-13)
(-1.13481e-12 0 2.3585e-13)
(-1.07364e-12 0 6.12781e-14)
(-1.00584e-12 0 -7.46925e-14)
(-9.24794e-13 0 -1.80175e-13)
(-8.29331e-13 0 -2.60928e-13)
(-7.21e-13 0 -3.21181e-13)
(-6.02526e-13 0 -3.64033e-13)
(-4.77048e-13 0 -3.9179e-13)
(-3.47779e-13 0 -4.06238e-13)
(-2.17852e-13 0 -4.08859e-13)
(-9.02277e-14 0 -4.00988e-13)
(3.23754e-14 0 -3.83908e-13)
(1.47539e-13 0 -3.58905e-13)
(2.53191e-13 0 -3.27284e-13)
(3.47637e-13 0 -2.90353e-13)
(4.29572e-13 0 -2.49405e-13)
(4.98079e-13 0 -2.05686e-13)
(5.52614e-13 0 -1.60367e-13)
(5.92977e-13 0 -1.14519e-13)
(6.19279e-13 0 -6.90923e-14)
(6.31894e-13 0 -2.49108e-14)
(6.31418e-13 0 1.73364e-14)
(6.18625e-13 0 5.70906e-14)
(5.9442e-13 0 9.3915e-14)
(5.59805e-13 0 1.27483e-13)
(5.15843e-13 0 1.57562e-13)
(4.63638e-13 0 1.83999e-13)
(4.04309e-13 0 2.067e-13)
(3.38978e-13 0 2.2562e-13)
(2.6876e-13 0 2.40742e-13)
(1.94763e-13 0 2.5207e-13)
(1.18078e-13 0 2.59614e-13)
(3.95999e-14 0 2.6338e-13)
(-2.02628e-05 0 -0.000612438)
(5.9168e-05 0 -0.000586356)
(0.000139295 0 -0.000499062)
(0.0001926 0 -0.000398756)
(0.000163723 0 -0.000271782)
(0.000132039 0 -0.000139896)
(8.8887e-05 0 3.69692e-05)
(-4.49201e-05 0 0.000110165)
(-0.000175519 0 0.000192057)
(-0.000318359 0 0.000229435)
(-0.000361832 0 0.000272263)
(-0.000481639 0 0.000277408)
(-0.000581959 0 0.000261133)
(-0.000646646 0 0.000179523)
(-0.000683816 0 5.86322e-05)
(-0.000688882 0 8.52938e-05)
(-0.000691126 0 9.92081e-05)
(-0.000714234 0 6.72606e-05)
(-0.000682363 0 -4.88442e-05)
(-0.000591108 0 -0.000186467)
(-0.00047737 0 -0.00025392)
(-0.000381416 0 -0.000298551)
(-0.000235899 0 -0.000450454)
(-0.00016457 0 -0.000485407)
(7.37867e-05 0 -0.000712036)
(0.000161099 0 -0.000795484)
(0.000287512 0 -0.00102712)
(0.000560752 0 -0.00121467)
(0.000821293 0 -0.00127907)
(0.00116339 0 -0.00128029)
(0.00145268 0 -0.00117481)
(0.00175414 0 -0.000870128)
(0.00177667 0 -0.00107948)
(0.00211124 0 -0.000790018)
(0.00218279 0 -0.000691705)
(0.00217653 0 -0.000615391)
(0.00222798 0 -0.000494263)
(0.00229656 0 -0.000601002)
(0.00246189 0 -0.000340835)
(0.00246465 0 -0.000240153)
(0.00246771 0 -0.000135491)
(0.00250146 0 -9.84042e-05)
(0.00258182 0 9.76885e-07)
(0.00259814 0 4.55747e-05)
(0.00258661 0 5.04916e-05)
(0.00257518 0 0.000100803)
(0.00256939 0 0.000103322)
(0.00256352 0 0.00010714)
(0.00255688 0 0.000106138)
(0.002554 0 0.000114606)
(0.00254599 0 9.42386e-05)
(0.00252651 0 0.000125726)
(0.0025035 0 6.02263e-05)
(0.00248274 0 9.49049e-05)
(0.0024628 0 7.68197e-05)
(0.00244906 0 4.22028e-05)
(0.00242815 0 0.000122984)
(0.00240104 0 3.03391e-05)
(0.00238231 0 0.000154865)
(0.0023644 0 0.000126595)
(0.00233348 0 0.000131487)
(0.00228781 0 0.000196591)
(0.00223163 0 0.00016173)
(0.00218888 0 9.82812e-05)
(0.0021104 0 0.000433836)
(0.0020577 0 4.28373e-05)
(0.00196326 0 0.000407898)
(0.00192863 0 0.000499108)
(0.00184977 0 0.000650407)
(0.00176614 0 0.000513066)
(0.00175205 0 0.000435765)
(0.00149344 0 0.00100941)
(0.00149458 0 0.000964345)
(0.00134235 0 0.00105686)
(0.00120271 0 0.00123396)
(0.000931168 0 0.00149698)
(0.000814338 0 0.00144682)
(0.000462947 0 0.00118171)
(0.000313823 0 0.000818179)
(7.16947e-05 0 0.000599641)
(2.54146e-06 0 0.000361061)
(-8.91369e-06 0 -8.24869e-05)
(-4.71507e-05 0 -0.000427586)
(-5.40073e-05 0 -0.00066301)
(-3.48166e-07 0 0.000143724)
(-6.50557e-13 0 6.19463e-13)
(-1.4466e-12 0 3.55891e-13)
(-1.33027e-12 0 1.55402e-13)
(-1.23215e-12 0 -1.71771e-14)
(-1.13317e-12 0 -1.62558e-13)
(-1.02511e-12 0 -2.80854e-13)
(-9.0626e-13 0 -3.73979e-13)
(-7.77612e-13 0 -4.44505e-13)
(-6.41315e-13 0 -4.94854e-13)
(-5.0002e-13 0 -5.27073e-13)
(-3.56611e-13 0 -5.4289e-13)
(-2.14039e-13 0 -5.43857e-13)
(-7.52023e-14 0 -5.31475e-13)
(5.71758e-14 0 -5.07283e-13)
(1.80645e-13 0 -4.72891e-13)
(2.93105e-13 0 -4.29983e-13)
(3.9286e-13 0 -3.80278e-13)
(4.78639e-13 0 -3.25488e-13)
(5.49594e-13 0 -2.67264e-13)
(6.05285e-13 0 -2.07155e-13)
(6.4564e-13 0 -1.46569e-13)
(6.70916e-13 0 -8.67501e-14)
(6.8164e-13 0 -2.87604e-14)
(6.78565e-13 0 2.65192e-14)
(6.62608e-13 0 7.83852e-14)
(6.34811e-13 0 1.26298e-13)
(5.96292e-13 0 1.69862e-13)
(5.48216e-13 0 2.08808e-13)
(4.91764e-13 0 2.42965e-13)
(4.28116e-13 0 2.72241e-13)
(3.58438e-13 0 2.966e-13)
(2.83873e-13 0 3.16043e-13)
(2.0554e-13 0 3.30589e-13)
(1.24535e-13 0 3.40266e-13)
(4.17502e-14 0 3.45096e-13)
(1.04372e-05 0 -0.000634007)
(4.23029e-05 0 -0.00062516)
(9.00525e-06 0 -0.000493558)
(-6.36681e-05 0 -0.000362503)
(5.91837e-05 0 -0.000271519)
(-3.3583e-06 0 -9.95415e-05)
(-0.000147825 0 0.00011516)
(-0.000274079 0 0.000228904)
(-0.000404313 0 0.000293452)
(-0.000629131 0 0.0003)
(-0.000699453 0 0.000386207)
(-0.00082069 0 0.000426505)
(-0.00100904 0 0.000349722)
(-0.00110201 0 0.000265552)
(-0.00109212 0 0.000266915)
(-0.0010131 0 0.00030561)
(-0.00101784 0 -4.45193e-06)
(-0.00085863 0 -0.000177413)
(-0.000699576 0 -0.00022757)
(-0.000544066 0 -0.000325644)
(-0.000331251 0 -0.000434334)
(-0.000229386 0 -0.000416608)
(0.000270054 0 -0.000651406)
(-3.29985e-06 0 -0.000573237)
(0.000436519 0 -0.000722103)
(0.000439617 0 -0.000901822)
(0.000468435 0 -0.00115109)
(0.000863623 0 -0.00123967)
(0.000797054 0 -0.001491)
(0.00123195 0 -0.00134655)
(0.00117594 0 -0.0015205)
(0.00158134 0 -0.00112004)
(0.00167035 0 -0.00102898)
(0.00176202 0 -0.00100779)
(0.00184779 0 -0.000856814)
(0.00190435 0 -0.000712126)
(0.00194061 0 -0.000661838)
(0.00204144 0 -0.000473704)
(0.0020821 0 -0.0003513)
(0.00208553 0 -0.000276105)
(0.00209586 0 -0.000217322)
(0.00213058 0 -0.000172467)
(0.002173 0 -7.18967e-05)
(0.00218222 0 -1.53265e-06)
(0.0021889 0 1.23763e-05)
(0.002194 0 6.31323e-05)
(0.0021986 0 9.96528e-05)
(0.00220577 0 0.000132328)
(0.00221653 0 0.000137728)
(0.00222659 0 0.000125802)
(0.0022258 0 0.000121398)
(0.00222229 0 9.80511e-05)
(0.00221806 0 0.000120354)
(0.00221184 0 0.000124401)
(0.00220033 0 9.81496e-05)
(0.00218846 0 0.000155944)
(0.002173 0 0.000180768)
(0.00214299 0 0.000101827)
(0.0021116 0 0.000219903)
(0.00209757 0 0.000229654)
(0.00207161 0 0.000234712)
(0.00202385 0 0.000317088)
(0.0019949 0 0.000283346)
(0.0019532 0 0.000290913)
(0.00184856 0 0.000507134)
(0.00180756 0 0.000257756)
(0.00173031 0 0.000463368)
(0.0016718 0 0.000588773)
(0.00161072 0 0.000707754)
(0.00161485 0 0.000613053)
(0.0015576 0 0.000682156)
(0.0013745 0 0.000992078)
(0.00138069 0 0.00101935)
(0.0011432 0 0.00129484)
(0.00109423 0 0.00147546)
(0.00108866 0 0.00163229)
(0.00101556 0 0.0016174)
(0.00077035 0 0.00138553)
(0.000315616 0 0.00106902)
(0.00020071 0 0.000711672)
(2.57476e-07 0 0.000457362)
(4.7925e-05 0 -4.91888e-05)
(2.18905e-05 0 -0.000392513)
(-6.31606e-05 0 -0.000689156)
(-5.8927e-07 0 6.85724e-05)
(-7.05497e-13 0 1.34031e-13)
(-1.66771e-12 0 1.87837e-13)
(-1.5075e-12 0 4.72302e-14)
(-1.39151e-12 0 -1.22692e-13)
(-1.26951e-12 0 -2.77443e-13)
(-1.13621e-12 0 -4.06624e-13)
(-9.92982e-13 0 -5.09553e-13)
(-8.41875e-13 0 -5.87949e-13)
(-6.85094e-13 0 -6.43773e-13)
(-5.25084e-13 0 -6.78753e-13)
(-3.64564e-13 0 -6.94417e-13)
(-2.06437e-13 0 -6.92252e-13)
(-5.36529e-14 0 -6.7384e-13)
(9.09596e-14 0 -6.40935e-13)
(2.24838e-13 0 -5.95477e-13)
(3.45804e-13 0 -5.39559e-13)
(4.52133e-13 0 -4.75358e-13)
(5.42586e-13 0 -4.05055e-13)
(6.16412e-13 0 -3.30759e-13)
(6.73308e-13 0 -2.54435e-13)
(7.13382e-13 0 -1.77856e-13)
(7.37088e-13 0 -1.02572e-13)
(7.45163e-13 0 -2.98899e-14)
(7.38564e-13 0 3.91262e-14)
(7.18404e-13 0 1.03642e-13)
(6.85897e-13 0 1.63034e-13)
(6.42315e-13 0 2.16863e-13)
(5.88946e-13 0 2.64843e-13)
(5.27072e-13 0 3.0681e-13)
(4.57944e-13 0 3.42695e-13)
(3.82779e-13 0 3.72491e-13)
(3.02749e-13 0 3.96232e-13)
(2.18986e-13 0 4.13969e-13)
(1.32585e-13 0 4.25756e-13)
(4.44299e-14 0 4.31637e-13)
(2.00481e-06 0 -0.000643816)
(4.22794e-06 0 -0.000635329)
(-2.63097e-05 0 -0.000465113)
(-7.26563e-05 0 -0.000285442)
(-0.000229363 0 -0.000132725)
(-0.000429369 0 0.000109569)
(-0.000440896 0 0.000339834)
(-0.000522974 0 0.000423486)
(-0.000659249 0 0.000487075)
(-0.00086666 0 0.000526389)
(-0.00109269 0 0.000490396)
(-0.00127309 0 0.000501401)
(-0.00137534 0 0.000541101)
(-0.00141224 0 0.000434782)
(-0.00127217 0 -0.00022778)
(-0.00105485 0 2.54851e-05)
(-0.000913719 0 -0.000130462)
(-0.000760413 0 -0.000259065)
(-0.000591031 0 -0.000399473)
(-0.000384753 0 -0.000518895)
(-6.93538e-05 0 -0.000736201)
(0.000101992 0 -0.000720979)
(0.000443985 0 -0.000722905)
(0.000333232 0 -0.000676585)
(0.000431277 0 -0.000796316)
(0.000553787 0 -0.0010079)
(0.000591124 0 -0.00129375)
(0.000650451 0 -0.00157015)
(0.00102378 0 -0.00157877)
(0.00114279 0 -0.00154142)
(0.0011952 0 -0.00150078)
(0.00136199 0 -0.00131942)
(0.00133142 0 -0.00129702)
(0.00147076 0 -0.00110754)
(0.00154146 0 -0.000953619)
(0.00162934 0 -0.000723278)
(0.00168637 0 -0.000615298)
(0.00170022 0 -0.000567002)
(0.00170724 0 -0.00051693)
(0.00174684 0 -0.000331904)
(0.00176711 0 -0.000155686)
(0.0017616 0 -0.000105941)
(0.00175923 0 -4.45055e-05)
(0.00177336 0 -1.50497e-05)
(0.00180102 0 3.13041e-05)
(0.00182098 0 6.24664e-05)
(0.00184395 0 7.1993e-05)
(0.00187134 0 7.03264e-05)
(0.00189147 0 7.90933e-05)
(0.00190376 0 9.82984e-05)
(0.00191575 0 0.000107725)
(0.00192394 0 8.583e-05)
(0.0019241 0 9.00148e-05)
(0.00192071 0 0.000103191)
(0.00190994 0 6.97304e-05)
(0.00189391 0 0.000128101)
(0.00188457 0 0.000158993)
(0.0018627 0 0.000149408)
(0.00184004 0 0.000195083)
(0.00182827 0 0.000236421)
(0.00181061 0 0.000196473)
(0.00176515 0 0.000313511)
(0.00174743 0 0.000279522)
(0.00169197 0 0.000407137)
(0.0016454 0 0.000387976)
(0.00157577 0 0.000398721)
(0.00148919 0 0.000601454)
(0.00147408 0 0.000639683)
(0.00144633 0 0.000699857)
(0.00140025 0 0.00077593)
(0.00119351 0 0.00102175)
(0.00114124 0 0.00111823)
(0.00108108 0 0.00124525)
(0.00100817 0 0.00139017)
(0.000932154 0 0.00160728)
(0.000743088 0 0.001869)
(0.000700567 0 0.00185531)
(0.000463124 0 0.00170063)
(0.000499009 0 0.00126164)
(0.000173981 0 0.000883769)
(0.000106203 0 0.000491975)
(0.000102694 0 -3.72904e-05)
(6.68811e-05 0 -0.000323984)
(-6.79805e-05 0 -0.000670205)
(-2.74422e-10 0 4.70979e-10)
(-7.01982e-13 0 4.64151e-13)
(-1.53294e-12 0 2.1425e-13)
(-1.64053e-12 0 -3.14982e-14)
(-1.55679e-12 0 -2.43337e-13)
(-1.4171e-12 0 -4.1785e-13)
(-1.25722e-12 0 -5.58569e-13)
(-1.08758e-12 0 -6.69573e-13)
(-9.11833e-13 0 -7.53884e-13)
(-7.3212e-13 0 -8.1348e-13)
(-5.50664e-13 0 -8.4972e-13)
(-3.70109e-13 0 -8.63771e-13)
(-1.93462e-13 0 -8.56918e-13)
(-2.38853e-14 0 -8.30746e-13)
(1.35538e-13 0 -7.87207e-13)
(2.8202e-13 0 -7.28605e-13)
(4.13224e-13 0 -6.57504e-13)
(5.27364e-13 0 -5.76619e-13)
(6.23238e-13 0 -4.88683e-13)
(7.00215e-13 0 -3.96329e-13)
(7.58187e-13 0 -3.01996e-13)
(7.97503e-13 0 -2.0786e-13)
(8.18882e-13 0 -1.15793e-13)
(8.23339e-13 0 -2.73459e-14)
(8.12097e-13 0 5.6243e-14)
(7.86516e-13 0 1.34032e-13)
(7.48031e-13 0 2.0534e-13)
(6.981e-13 0 2.69716e-13)
(6.38163e-13 0 3.26889e-13)
(5.69616e-13 0 3.76735e-13)
(4.93797e-13 0 4.19232e-13)
(4.11975e-13 0 4.5443e-13)
(3.25351e-13 0 4.82416e-13)
(2.35065e-13 0 5.0329e-13)
(1.42203e-13 0 5.17145e-13)
(4.76303e-14 0 5.24052e-13)
(4.2619e-05 0 -0.000659667)
(-0.000182305 0 -0.000566609)
(-7.90537e-06 0 -0.000446106)
(-9.17088e-05 0 -0.000259076)
(-0.000212108 0 -5.84373e-05)
(-0.000565914 0 0.000334082)
(-0.000683723 0 0.000530253)
(-0.000770845 0 0.000652273)
(-0.000999319 0 0.000672757)
(-0.00121929 0 0.000710962)
(-0.00143095 0 0.000680911)
(-0.00152327 0 0.000693354)
(-0.0015771 0 0.000624003)
(-0.00165207 0 5.68618e-05)
(-0.00122499 0 -0.000805269)
(-0.0011202 0 0.000218769)
(-0.000860469 0 -0.000348631)
(-0.000683132 0 -0.00040247)
(-0.000511726 0 -0.000527402)
(-5.61305e-05 0 -0.000884982)
(9.35833e-05 0 -0.000908478)
(0.000273839 0 -0.000867437)
(0.000489104 0 -0.000796953)
(0.000491272 0 -0.000723945)
(0.000484923 0 -0.000803401)
(0.000541313 0 -0.00105172)
(0.000592133 0 -0.00138155)
(0.00062218 0 -0.00167719)
(0.000939309 0 -0.00172728)
(0.000974147 0 -0.00170111)
(0.00109864 0 -0.00158921)
(0.00122393 0 -0.00139305)
(0.00116807 0 -0.00129306)
(0.00127802 0 -0.00108056)
(0.00136124 0 -0.000899008)
(0.00127657 0 -0.000909882)
(0.00141356 0 -0.000614327)
(0.0014207 0 -0.000556911)
(0.0014262 0 -0.000431452)
(0.00140588 0 -0.000281506)
(0.00137834 0 -0.000169783)
(0.00138355 0 -0.000150526)
(0.00141003 0 -0.00011413)
(0.0014473 0 -3.01366e-05)
(0.00146554 0 1.22551e-05)
(0.00148609 0 4.02475e-05)
(0.00152714 0 6.61921e-05)
(0.00156512 0 8.57503e-05)
(0.00157815 0 8.80489e-05)
(0.00158666 0 9.09512e-05)
(0.00159484 0 9.7069e-05)
(0.00159728 0 0.00012002)
(0.00160133 0 0.000131193)
(0.00160826 0 0.000130794)
(0.00160717 0 0.000123155)
(0.00159878 0 0.000149869)
(0.00159441 0 0.000182649)
(0.00158989 0 0.000123627)
(0.00156485 0 0.000222813)
(0.00155138 0 0.000280576)
(0.00153764 0 0.000223191)
(0.0014907 0 0.000354739)
(0.00147689 0 0.000352064)
(0.00143119 0 0.000459803)
(0.00137758 0 0.000548685)
(0.00139191 0 0.000426968)
(0.00132357 0 0.000558902)
(0.00127116 0 0.00069125)
(0.00130473 0 0.000699563)
(0.00129794 0 0.000704459)
(0.00116486 0 0.000886426)
(0.0011514 0 0.000980833)
(0.00122141 0 0.00104806)
(0.00109943 0 0.0013058)
(0.000993931 0 0.00155427)
(0.000934872 0 0.00179026)
(0.000887373 0 0.00181369)
(0.000639841 0 0.00177684)
(0.000388929 0 0.00151277)
(0.000301233 0 0.00105474)
(0.000123425 0 0.000617632)
(0.000107356 0 2.15237e-05)
(0.000110485 0 -0.000247312)
(-2.76803e-07 0 -0.000640833)
(-9.8884e-12 0 3.15168e-10)
(-1.14299e-12 0 8.94836e-13)
(-2.163e-12 0 2.36523e-13)
(-1.96492e-12 0 -1.4409e-13)
(-1.77786e-12 0 -4.01345e-13)
(-1.58475e-12 0 -5.92041e-13)
(-1.38794e-12 0 -7.40173e-13)
(-1.1883e-12 0 -8.56204e-13)
(-9.85782e-13 0 -9.44446e-13)
(-7.8093e-13 0 -1.00647e-12)
(-5.75376e-13 0 -1.04282e-12)
(-3.71761e-13 0 -1.054e-12)
(-1.73411e-13 0 -1.0409e-12)
(1.60578e-14 0 -1.00504e-12)
(1.931e-13 0 -9.48589e-13)
(3.54542e-13 0 -8.74296e-13)
(4.9779e-13 0 -7.85313e-13)
(6.20954e-13 0 -6.85016e-13)
(7.22877e-13 0 -5.76805e-13)
(8.03098e-13 0 -4.63939e-13)
(8.61777e-13 0 -3.49403e-13)
(8.99585e-13 0 -2.35819e-13)
(9.17602e-13 0 -1.25401e-13)
(9.17199e-13 0 -1.99428e-14)
(8.99941e-13 0 7.91665e-14)
(8.67501e-13 0 1.70908e-13)
(8.21581e-13 0 2.54586e-13)
(7.63864e-13 0 3.29774e-13)
(6.95965e-13 0 3.96263e-13)
(6.19414e-13 0 4.54004e-13)
(5.35639e-13 0 5.03062e-13)
(4.45963e-13 0 5.43573e-13)
(3.51609e-13 0 5.75702e-13)
(2.53715e-13 0 5.9962e-13)
(1.53347e-13 0 6.15472e-13)
(5.13364e-14 0 6.23367e-13)
(0.000101182 0 -0.000667116)
(-7.39106e-05 0 -0.000504942)
(-0.00024541 0 -0.000299768)
(-0.000270892 0 -0.000172653)
(-0.000432809 0 0.000166486)
(-0.000786118 0 0.000493575)
(-0.00100698 0 0.000601421)
(-0.00105667 0 0.000910675)
(-0.00134751 0 0.000893887)
(-0.00152119 0 0.000894411)
(-0.0015596 0 0.000935256)
(-0.0016718 0 0.000558344)
(-0.00152915 0 0.000636122)
(-0.00157444 0 0.000453153)
(-0.00137851 0 -0.000883172)
(-0.00112459 0 -0.000417445)
(-0.000851633 0 -0.000490454)
(-0.000719253 0 -0.000571248)
(-0.000278444 0 -0.000967687)
(-4.48519e-05 0 -0.00109351)
(9.45317e-05 0 -0.00112889)
(0.000302842 0 -0.0010165)
(0.000513606 0 -0.000825692)
(0.000526659 0 -0.000724318)
(0.000510545 0 -0.000782108)
(0.000549601 0 -0.00103326)
(0.000531418 0 -0.00144512)
(0.000703346 0 -0.00170123)
(0.000743415 0 -0.00186427)
(0.000784806 0 -0.00183005)
(0.000998747 0 -0.00165478)
(0.00101692 0 -0.00147742)
(0.00109707 0 -0.00123236)
(0.00105706 0 -0.00111096)
(0.00109075 0 -0.0009744)
(0.00104565 0 -0.000893073)
(0.00106327 0 -0.000756531)
(0.00109829 0 -0.000585352)
(0.00109989 0 -0.000409592)
(0.00106573 0 -0.000257736)
(0.00107047 0 -0.000201523)
(0.00110288 0 -0.000164122)
(0.00113046 0 -8.35287e-05)
(0.00112907 0 -6.78047e-05)
(0.00114015 0 -4.89091e-05)
(0.00117541 0 -3.05792e-05)
(0.00122102 0 2.23273e-05)
(0.00123983 0 3.94803e-05)
(0.00125122 0 6.91029e-05)
(0.0012672 0 8.78186e-05)
(0.00128289 0 9.10305e-05)
(0.00129366 0 6.13889e-05)
(0.00130376 0 7.73259e-05)
(0.00131584 0 9.60506e-05)
(0.00132344 0 0.000111099)
(0.00132161 0 0.000156439)
(0.00133054 0 0.000187388)
(0.00133119 0 0.00019171)
(0.00132104 0 0.000183257)
(0.00129154 0 0.000301923)
(0.00128645 0 0.000271219)
(0.00125488 0 0.000354866)
(0.00123543 0 0.000412076)
(0.00120932 0 0.000476006)
(0.00123771 0 0.000353344)
(0.00113554 0 0.000602531)
(0.00106792 0 0.00070547)
(0.00120861 0 0.000517301)
(0.000922088 0 0.000949776)
(0.000832498 0 0.00105118)
(0.00086045 0 0.00108213)
(0.000754998 0 0.00125576)
(0.000627024 0 0.00145253)
(0.000697746 0 0.0015513)
(0.000775227 0 0.00167132)
(0.000699924 0 0.00190242)
(0.000814811 0 0.00194213)
(0.000847401 0 0.00184662)
(0.000476497 0 0.00169054)
(0.000244697 0 0.00129552)
(0.000313748 0 0.000780504)
(9.54958e-05 0 0.000154716)
(0.000118256 0 -0.000223817)
(-3.40539e-07 0 -0.000612559)
(2.26372e-11 0 1.98519e-10)
(-1.36772e-12 0 5.10335e-13)
(-2.57156e-12 0 -1.88989e-14)