0 	2.54069e-20 	0 	-6.17025e-20
0.010101 	-5.83246e-20 	3.04828e-22 	-8.56485e-20
0.020202 	3.57289e-20 	1.69651e-22 	-1.60042e-19
0.030303 	-5.35442e-21 	-1.35176e-22 	-4.12965e-20
0.040404 	5.49047e-20 	3.38281e-22 	-6.08831e-20
0.0505051 	-3.82748e-20 	1.01212e-22 	2.53422e-20
