0 	3.62956e-21 	0 	-1.81478e-20
0.010101 	-2.18752e-20 	2.37069e-22 	1.34777e-20
0.020202 	5.24996e-20 	-3.04317e-22 	-1.01578e-19
0.030303 	-3.61006e-20 	-3.71905e-22 	2.11708e-20
0.040404 	2.8687e-20 	6.79287e-23 	-5.06395e-20
0.0505051 	-2.56048e-20 	-3.41347e-23 	3.35797e-20
