/*--------------------------------*- C++ -*----------------------------------*\
  =========                 |
  \\      /  F ield         | OpenFOAM: The Open Source CFD Toolbox
   \\    /   O peration     | Website:  https://openfoam.org
    \\  /    A nd           | Version:  6
     \\/     M anipulation  |
\*---------------------------------------------------------------------------*/
FoamFile
{
    version     2.0;
    format      ascii;
    class       surfaceScalarField;
    location    "1950";
    object      phi;
}
// * * * * * * * * * * * * * * * * * * * * * * * * * * * * * * * * * * * * * //

dimensions      [0 3 -1 0 0 0 0];

internalField   nonuniform List<scalar> 
9440
(
-4.19993e-11
4.19993e-11
-1.13351e-10
7.13516e-11
-2.50204e-10
1.36854e-10
-4.23127e-10
1.72923e-10
-4.73735e-10
5.0608e-11
-6.10809e-10
1.37073e-10
-6.84281e-10
7.34723e-11
-8.03175e-10
1.18894e-10
-9.54185e-10
1.51011e-10
-1.06164e-09
1.07454e-10
-1.15571e-09
9.40717e-11
-1.2126e-09
5.68927e-11
-1.22776e-09
1.51548e-11
-1.21488e-09
-1.28825e-11
-1.2864e-09
7.15233e-11
-1.33666e-09
5.02549e-11
-1.38752e-09
5.08646e-11
-1.40971e-09
2.21877e-11
-1.33281e-09
-7.69034e-11
-1.21789e-09
-1.14917e-10
-1.14418e-09
-7.37069e-11
-9.41411e-10
-2.02773e-10
-5.61822e-10
-3.79589e-10
-2.52258e-10
-3.09564e-10
2.2214e-11
-2.74473e-10
1.9324e-10
-1.71027e-10
4.28586e-10
-2.35347e-10
7.48241e-10
-3.19655e-10
8.69697e-10
-1.21457e-10
8.95415e-10
-2.57189e-11
9.72942e-10
-7.75277e-11
8.96817e-10
7.61249e-11
9.46779e-10
-4.99624e-11
1.00966e-09
-6.28817e-11
1.06569e-09
-5.60277e-11
1.17877e-09
-1.13084e-10
1.24426e-09
-6.54887e-11
1.38435e-09
-1.40093e-10
1.4096e-09
-2.525e-11
1.64184e-09
-2.32241e-10
1.59297e-09
4.88725e-11
1.80268e-09
-2.09716e-10
2.08018e-09
-2.77497e-10
2.28611e-09
-2.05926e-10
2.32551e-09
-3.94052e-11
2.35558e-09
-3.00676e-11
2.3913e-09
-3.57252e-11
2.40289e-09
-1.15859e-11
2.38851e-09
1.43806e-11
2.39234e-09
-3.83196e-12
2.45023e-09
-5.78933e-11
2.59988e-09
-1.49648e-10
2.658e-09
-5.81207e-11
2.6943e-09
-3.6299e-11
2.69906e-09
-4.76275e-12
2.6264e-09
7.26675e-11
2.54454e-09
8.18542e-11
2.41572e-09
1.2882e-10
2.22875e-09
1.8697e-10
2.1443e-09
8.44491e-11
1.9529e-09
1.91403e-10
1.79975e-09
1.53151e-10
1.49881e-09
3.00939e-10
1.20386e-09
2.94949e-10
9.05572e-10
2.98286e-10
5.0068e-10
4.04892e-10
2.12392e-10
2.88288e-10
-8.50874e-11
2.97479e-10
-2.83173e-10
1.98085e-10
-4.56348e-10
1.73175e-10
-5.78576e-10
1.22227e-10
-6.66178e-10
8.76012e-11
-6.81309e-10
1.51299e-11
-6.15727e-10
-6.55827e-11
-5.01835e-10
-1.13892e-10
-4.41281e-10
-6.0555e-11
-3.67349e-10
-7.39322e-11
-2.68175e-10
-9.91758e-11
4.98555e-11
-3.18031e-10
5.93544e-16
4.98539e-11
5.02412e-19
1.62873e-19
8.1252e-19
-3.10108e-19
1.03281e-18
-2.2098e-19
1.18499e-18
-1.52817e-19
1.28882e-18
-1.04189e-19
1.35638e-18
-6.77065e-20
1.39656e-18
-4.00855e-20
1.41717e-18
-2.03488e-20
1.42533e-18
-7.76506e-21
1.42725e-18
-1.39416e-21
1.42797e-18
-5.30927e-23
1.4312e-18
-2.42147e-21
1.43934e-18
-7.16256e-21
1.4535e-18
-1.30224e-20
1.47367e-18
-1.89021e-20
1.49893e-18
-2.39003e-20
1.52767e-18
-2.73335e-20
1.55779e-18
-2.87348e-20
1.58699e-18
-2.78408e-20
1.61287e-18
-2.45688e-20
1.63313e-18
-1.89897e-20
1.64567e-18
-1.12974e-20
1.64866e-18
-1.7788e-21
1.6406e-18
9.21796e-21
1.62036e-18
2.13129e-20
1.5872e-18
3.41211e-20
1.54074e-18
4.72732e-20
1.48093e-18
6.04322e-20
1.40806e-18
7.33023e-20
1.32265e-18
8.56344e-20
1.22546e-18
9.72256e-20
1.11741e-18
1.07917e-19
9.99545e-19
1.17589e-19
8.72987e-19
1.26154e-19
7.3893e-19
1.33552e-19
5.98602e-19
1.39745e-19
4.53254e-19
1.44706e-19
3.04155e-19
1.48414e-19
1.52604e-19
1.50836e-19
1.51873e-19
-1.32703e-10
1.74702e-10
-2.80286e-10
2.18934e-10
-3.3033e-10
1.86898e-10
-3.69757e-10
2.12349e-10
-4.94812e-10
1.75663e-10
-5.53751e-10
1.96012e-10
-6.6335e-10
1.83071e-10
-7.48856e-10
2.044e-10
-8.57239e-10
2.59393e-10
-9.61667e-10
2.11882e-10
-1.05155e-09
1.83958e-10
-1.11449e-09
1.19831e-10
-1.18024e-09
8.08989e-11
-1.26936e-09
7.62432e-11
-1.37109e-09
1.73251e-10
-1.46288e-09
1.42045e-10
-1.55229e-09
1.40272e-10
-1.628e-09
9.78965e-11
-1.69318e-09
-1.17244e-11
-1.54443e-09
-2.63668e-10
-1.41452e-09
-2.0362e-10
-1.15792e-09
-4.59366e-10
-7.47177e-10
-7.90338e-10
-3.26613e-10
-7.30129e-10
-7.69873e-11
-5.24099e-10
6.15331e-11
-3.09548e-10
2.79628e-10
-4.53443e-10
4.9406e-10
-5.34088e-10
6.97042e-10
-3.2444e-10
7.09077e-10
-3.77547e-11
7.22828e-10
-9.12801e-11
7.5105e-10
4.79027e-11
8.04732e-10
-1.03646e-10
8.41753e-10
-9.99042e-11
9.47156e-10
-1.61431e-10
1.05013e-09
-2.1606e-10
1.14548e-09
-1.60837e-10
1.30379e-09
-2.98408e-10
1.36321e-09
-8.46692e-11
1.60764e-09
-4.76671e-10
1.54616e-09
1.10347e-10
1.70782e-09
-3.71375e-10
2.01323e-09
-5.82909e-10
2.13677e-09
-3.29468e-10
2.17677e-09
-7.93991e-11
2.21442e-09
-6.77226e-11
2.26366e-09
-8.49626e-11
2.25018e-09
1.89076e-12
2.25846e-09
6.10324e-12
2.35874e-09
-1.04116e-10
2.4577e-09
-1.5685e-10
2.5454e-09
-2.37345e-10
2.57312e-09
-8.58443e-11
2.57837e-09
-4.15556e-11
2.55307e-09
2.05401e-11
2.53232e-09
9.34149e-11
2.44804e-09
1.6614e-10
2.32825e-09
2.48605e-10
2.26056e-09
2.5466e-10
2.01052e-09
3.34491e-10
1.95576e-09
2.46162e-10
1.84885e-09
2.60067e-10
1.64171e-09
5.08073e-10
1.42723e-09
5.09433e-10
1.13924e-09
5.86271e-10
8.83916e-10
6.60215e-10
5.31108e-10
6.41095e-10
3.75681e-10
4.52906e-10
2.26573e-10
3.47192e-10
3.14294e-11
3.68317e-10
-1.69933e-10
3.23588e-10
-2.221e-10
1.39768e-10
-1.51991e-10
-5.49811e-11
-1.01188e-10
-1.16387e-10
-1.08225e-11
-2.0426e-10
1.4395e-10
-2.15329e-10
3.73552e-10
-3.03536e-10
6.30693e-10
-3.56318e-10
4.68906e-10
-1.56246e-10
4.8769e-16
5.18758e-10
5.15355e-19
-4.20089e-19
8.99727e-19
-6.9509e-19
1.09991e-18
-4.22127e-19
1.23333e-18
-2.86891e-19
1.32535e-18
-1.96402e-19
1.384e-18
-1.26217e-19
1.4163e-18
-7.19083e-20
1.42975e-18
-3.30628e-20
1.4317e-18
-8.73343e-21
1.42859e-18
2.93319e-21
1.4256e-18
4.41834e-21
1.42646e-18
-1.52795e-21
1.43348e-18
-1.21583e-20
1.44762e-18
-2.4917e-20
1.46867e-18
-3.75689e-20
1.4955e-18
-4.82821e-20
1.52627e-18
-5.56665e-20
1.55869e-18
-5.87802e-20
1.59026e-18
-5.71068e-20
1.61845e-18
-5.05099e-20
1.64082e-18
-3.91735e-20
1.65519e-18
-2.35352e-20
1.65965e-18
-4.21351e-21
1.65269e-18
1.80603e-20
1.63317e-18
4.25033e-20
1.60036e-18
6.83338e-20
1.5539e-18
9.48108e-20
1.4938e-18
1.21262e-19
1.42039e-18
1.47103e-19
1.33424e-18
1.71838e-19
1.23616e-18
1.95069e-19
1.12709e-18
2.16483e-19
1.00811e-18
2.35843e-19
8.80386e-19
2.5298e-19
7.45122e-19
2.67778e-19
6.03563e-19
2.80162e-19
4.56962e-19
2.90087e-19
3.06578e-19
2.97527e-19
1.53641e-19
3.02472e-19
3.04937e-19
-1.41416e-10
3.16118e-10
-2.23371e-10
3.00889e-10
-2.88406e-10
2.51934e-10
-3.05073e-10
2.29016e-10
-3.81895e-10
2.52485e-10
-4.76135e-10
2.90252e-10
-5.78508e-10
2.85444e-10
-6.78307e-10
3.04199e-10
-7.38138e-10
3.19223e-10
-8.02731e-10
2.76475e-10
-8.67986e-10
2.49213e-10
-9.71696e-10
2.2354e-10
-1.15336e-09
2.62566e-10
-1.37878e-09
3.01655e-10
-1.55068e-09
3.45152e-10
-1.74905e-09
3.40419e-10
-1.8905e-09
2.81719e-10
-1.98388e-09
1.91279e-10
-1.99951e-09
3.89959e-12
-1.70076e-09
-5.62417e-10
-1.53088e-09
-3.735e-10
-1.2399e-09
-7.50349e-10
-8.75017e-10
-1.15522e-09
-5.34159e-10
-1.07099e-09
-1.74147e-10
-8.84112e-10
9.94721e-11
-5.83168e-10
3.96907e-10
-7.50878e-10
3.80911e-10
-5.18093e-10
3.92198e-10
-3.35727e-10
4.13837e-10
-5.93954e-11
4.36962e-10
-1.14406e-10
5.44953e-10
-6.00893e-11
5.75303e-10
-1.33997e-10
6.41294e-10
-1.65895e-10
7.3655e-10
-2.56689e-10
8.44086e-10
-3.23596e-10
9.79781e-10
-2.96533e-10
1.12497e-09
-4.436e-10
1.28282e-09
-2.42515e-10
1.46328e-09
-6.57136e-10
1.47875e-09
9.4876e-11
1.63263e-09
-5.25259e-10
1.81688e-09
-7.67156e-10
1.94526e-09
-4.57845e-10
2.00033e-09
-1.34471e-10
2.04718e-09
-1.14571e-10
2.14518e-09
-1.82964e-10
2.19424e-09
-4.71762e-11
2.28934e-09
-8.89988e-11
2.38995e-09
-2.04718e-10
2.47197e-09
-2.38871e-10
2.49564e-09
-2.61023e-10
2.51383e-09
-1.04032e-10
2.49804e-09
-2.576e-11
2.42011e-09
9.84644e-11
2.34847e-09
1.65061e-10
2.28021e-09
2.34397e-10
2.1973e-09
3.31513e-10
2.13031e-09
3.21645e-10
2.08775e-09
3.7705e-10
1.96679e-09
3.67128e-10
1.89787e-09
3.28988e-10
1.71785e-09
6.88093e-10
1.58428e-09
6.42993e-10
1.43251e-09
7.38045e-10
1.15297e-09
9.39755e-10
1.06801e-09
7.26051e-10
9.45221e-10
5.75696e-10
5.28688e-10
7.63724e-10
2.01407e-10
6.95598e-10
2.03618e-10
3.21375e-10
2.08888e-10
1.34497e-10
2.12874e-10
-5.89682e-11
2.45428e-10
-1.48942e-10
3.13367e-10
-2.722e-10
4.17154e-10
-3.19117e-10
3.65556e-10
-2.5194e-10
5.55062e-11
-4.62692e-11
-1.12103e-10
1.13618e-11
4.47102e-16
4.06654e-10
1.21917e-18
3.64387e-19
1.17315e-18
-6.49532e-19
1.2356e-18
-4.85449e-19
1.32426e-18
-3.76163e-19
1.39574e-18
-2.6809e-19
1.43831e-18
-1.68704e-19
1.45514e-18
-8.83788e-20
1.45408e-18
-3.1405e-20
1.44337e-18
2.78978e-21
1.43008e-18
1.72509e-20
1.41965e-18
1.61023e-20
1.41583e-18
3.79088e-21
1.42072e-18
-1.53325e-20
1.43497e-18
-3.72731e-20
1.45796e-18
-5.85694e-20
1.48812e-18
-7.64078e-20
1.52315e-18
-8.86829e-20
1.56036e-18
-9.40027e-20
1.59686e-18
-9.16498e-20
1.62978e-18
-8.15028e-20
1.65646e-18
-6.39351e-20
1.67451e-18
-3.97001e-20
1.68193e-18
-9.81601e-21
1.67714e-18
2.45438e-20
1.659e-18
6.21453e-20
1.62683e-18
1.01771e-19
1.58035e-18
1.42281e-19
1.51964e-18
1.8265e-19
1.44512e-18
2.21991e-19
1.35747e-18
2.59567e-19
1.25757e-18
2.94785e-19
1.14645e-18
3.27185e-19
1.02525e-18
3.56427e-19
8.95184e-19
3.82272e-19
7.57507e-19
4.04559e-19
6.13488e-19
4.2319e-19
4.64403e-19
4.38113e-19
3.11522e-19
4.49303e-19
1.56107e-19
4.56755e-19
4.60481e-19
-8.94905e-11
4.05609e-10
-1.45281e-10
3.5668e-10
-2.11406e-10
3.18059e-10
-2.69962e-10
2.87572e-10
-3.28733e-10
3.11256e-10
-4.13684e-10
3.75202e-10
-5.02339e-10
3.741e-10
-5.72633e-10
3.74492e-10
-6.05053e-10
3.51643e-10
-6.26686e-10
2.98108e-10
-6.73706e-10
2.96234e-10
-8.46349e-10
3.96182e-10
-1.14557e-09
5.61785e-10
-1.47528e-09
6.31366e-10
-1.78656e-09
6.56428e-10
-2.03981e-09
5.93676e-10
-2.20359e-09
4.45491e-10
-2.19241e-09
1.80108e-10
-2.06468e-09
-1.23836e-10
-1.83933e-09
-7.87767e-10
-1.56984e-09
-6.4299e-10
-1.18377e-09
-1.13642e-09
-8.03518e-10
-1.53547e-09
-3.9314e-10
-1.48137e-09
-5.79343e-11
-1.21932e-09
3.00734e-10
-9.41836e-10
4.05308e-10
-8.55454e-10
4.07994e-10
-5.2078e-10
3.25875e-10
-2.53609e-10
2.60116e-10
6.36347e-12
2.42931e-10
-9.72217e-11
3.03394e-10
-1.20553e-10
3.26803e-10
-1.57407e-10
3.98054e-10
-2.37147e-10
4.97905e-10
-3.56541e-10
6.31953e-10
-4.57645e-10
7.86073e-10
-4.50654e-10
8.73385e-10
-5.30913e-10
1.11814e-09
-4.87269e-10
1.19266e-09
-7.31654e-10
1.42578e-09
-1.38248e-10
1.5996e-09
-6.99085e-10
1.63461e-09
-8.0216e-10
1.72363e-09
-5.46867e-10
1.87868e-09
-2.89517e-10
1.9558e-09
-1.91695e-10
2.00136e-09
-2.28528e-10
2.2144e-09
-2.60212e-10
2.40858e-09
-2.8318e-10
2.48109e-09
-2.77233e-10
2.48212e-09
-2.399e-10
2.44334e-09
-2.22242e-10
2.42459e-09
-8.52788e-11
2.45649e-09
-5.76583e-11
2.39275e-09
1.62204e-10
2.3403e-09
2.1751e-10
2.2824e-09
2.92296e-10
2.22034e-09
3.93568e-10
2.1331e-09
4.08887e-10
2.10163e-09
4.08517e-10
1.8775e-09
5.91262e-10
1.76391e-09
4.42572e-10
1.76757e-09
6.84436e-10
1.59871e-09
8.11849e-10
1.44734e-09
8.89418e-10
1.4289e-09
9.58197e-10
1.28734e-09
8.67606e-10
7.83847e-10
1.07919e-09
4.43298e-10
1.10427e-09
4.68566e-10
6.70328e-10
4.96129e-10
2.93811e-10
3.75796e-10
2.54828e-10
2.55204e-10
6.16233e-11
2.76212e-10
-1.69952e-10
2.90747e-10
-2.86736e-10
3.12647e-10
-3.41018e-10
3.60555e-10
-2.99849e-10
7.21641e-10
-4.07357e-10
6.99318e-10
3.3684e-11
4.25549e-16
1.10597e-09
1.8095e-18
3.33329e-18
1.33767e-18
-1.78158e-19
1.34532e-18
-4.93943e-19
1.43277e-18
-4.64216e-19
1.4953e-18
-3.30845e-19
1.51864e-18
-1.91995e-19
1.51211e-18
-8.15532e-20
1.48828e-18
-7.00881e-21
1.45783e-18
3.40136e-20
1.42893e-18
4.71421e-20
1.40734e-18
3.89006e-20
1.39671e-18
1.58536e-20
1.39878e-18
-1.57821e-20
1.41367e-18
-5.0392e-20
1.44012e-18
-8.31661e-20
1.47584e-18
-1.10245e-19
1.51783e-18
-1.28799e-19
1.56271e-18
-1.37026e-19
1.607e-18
-1.34088e-19
1.64735e-18
-1.19987e-19
1.68069e-18
-9.54037e-20
1.70439e-18
-6.15298e-20
1.71629e-18
-1.98924e-20
1.71474e-18
2.77977e-20
1.69863e-18
7.97785e-20
1.66734e-18
1.34341e-19
1.62072e-18
1.89907e-19
1.55898e-18
2.45077e-19
1.4827e-18
2.98657e-19
1.39269e-18
3.49666e-19
1.28997e-18
3.97329e-19
1.17569e-18
4.41056e-19
1.05109e-18
4.80421e-19
9.17471e-19
5.15134e-19
7.76138e-19
5.45009e-19
6.2841e-19
5.69943e-19
4.75592e-19
5.89887e-19
3.18975e-19
6.04831e-19
1.59833e-19
6.14782e-19
6.19753e-19
-9.24276e-11
4.98037e-10
-1.52042e-10
4.16294e-10
-2.06958e-10
3.72975e-10
-3.03346e-10
3.8396e-10
-3.98197e-10
4.06108e-10
-4.35625e-10
4.1263e-10
-4.80137e-10
4.18612e-10
-5.07441e-10
4.01796e-10
-4.98881e-10
3.43084e-10
-5.00977e-10
3.00204e-10
-6.11441e-10
4.06698e-10
-9.07912e-10
6.92652e-10
-1.30888e-09
9.62758e-10
-1.65194e-09
9.74422e-10
-1.95431e-09
9.58792e-10
-2.21278e-09
8.52151e-10
-2.29677e-09
5.2948e-10
-2.13792e-09
2.12534e-11
-1.94904e-09
-3.12715e-10
-1.88758e-09
-8.49226e-10
-1.44176e-09
-1.08881e-09
-1.04861e-09
-1.52958e-09
-8.17268e-10
-1.76681e-09
-5.18495e-10
-1.78014e-09
-1.72858e-10
-1.56496e-09
2.40571e-10
-1.35527e-09
2.65861e-10
-8.80744e-10
1.88892e-10
-4.43812e-10
7.99315e-11
-1.44649e-10
9.09313e-11
-4.63709e-12
1.34318e-10
-1.40609e-10
1.53856e-10
-1.40092e-10
1.91079e-10
-1.94631e-10
2.62287e-10
-3.08356e-10
3.6018e-10
-4.54435e-10
4.75709e-10
-5.73174e-10
6.20592e-10
-5.95538e-10
6.94569e-10
-6.0489e-10
9.02027e-10
-6.94728e-10
9.43106e-10
-7.72734e-10
1.34399e-09
-5.39134e-10
1.38025e-09
-7.35343e-10
1.44465e-09
-8.66557e-10
1.51905e-09
-6.21274e-10
1.66743e-09
-4.37892e-10
1.80053e-09
-3.24801e-10
1.99014e-09
-4.18137e-10
2.19225e-09
-4.62324e-10
2.28852e-09
-3.79446e-10
2.34757e-09
-3.36289e-10
2.37566e-09
-2.67986e-10
2.32926e-09
-1.75843e-10
2.39282e-09
-1.48839e-10
2.38405e-09
-4.88861e-11
2.37499e-09
1.71259e-10
2.38043e-09
2.12074e-10
2.32085e-09
3.51868e-10
2.25856e-09
4.55861e-10
2.17121e-09
4.9624e-10
2.07525e-09
5.04479e-10
1.95254e-09
7.13967e-10
1.77095e-09
6.24166e-10
1.70689e-09
7.48489e-10
1.55148e-09
9.67266e-10
1.40375e-09
1.03714e-09
1.24209e-09
1.11985e-09
9.05202e-10
1.2045e-09
7.27174e-10
1.25721e-09
8.1007e-10
1.02138e-09
8.83583e-10
5.96814e-10
7.12663e-10
4.6473e-10
5.11068e-10
4.56423e-10
3.603e-10
2.1239e-10
2.77724e-10
-8.73769e-11
1.98458e-10
-2.07471e-10
3.20163e-11
-1.74578e-10
-2.97262e-10
2.94274e-11
-3.61734e-10
-3.42886e-10
-2.63818e-12
-3.25413e-10
4.04342e-16
1.10333e-09
6.15409e-19
4.64794e-18
1.02234e-18
-5.85546e-19
1.37547e-18
-8.47918e-19
1.56655e-18
-6.55936e-19
1.63426e-18
-3.98826e-19
1.62908e-18
-1.86793e-19
1.58666e-18
-3.88998e-20
1.5293e-18
5.08248e-20
1.47096e-18
9.30534e-20
1.42069e-18
9.83331e-20
1.3843e-18
7.64356e-20
1.36507e-18
3.64278e-20
1.36417e-18
-1.33491e-20
1.3809e-18
-6.54537e-20
1.41304e-18
-1.13577e-19
1.45729e-18
-1.52735e-19
1.50961e-18
-1.79366e-19
1.56565e-18
-1.91327e-19
1.62111e-18
-1.87784e-19
1.67193e-18
-1.6902e-19
1.71457e-18
-1.36203e-19
1.74603e-18
-9.11338e-20
1.76398e-18
-3.60099e-20
1.76672e-18
2.67871e-20
1.75319e-18
9.48632e-20
1.72291e-18
1.65943e-19
1.67589e-18
2.37961e-19
1.61256e-18
3.09121e-19
1.53371e-18
3.77914e-19
1.44035e-18
4.43127e-19
1.3337e-18
5.0382e-19
1.21505e-18
5.59297e-19
1.0858e-18
6.09074e-19
9.47346e-19
6.52837e-19
8.01072e-19
6.90403e-19
6.48355e-19
7.21686e-19
4.90536e-19
7.46665e-19
3.28925e-19
7.65355e-19
1.64804e-19
7.77789e-19
7.83997e-19
-6.61129e-12
5.04648e-10
-3.35969e-11
4.4328e-10
-5.20603e-11
3.91438e-10
-8.82669e-11
4.20166e-10
-2.86712e-10
6.04553e-10
-4.33931e-10
5.59849e-10
-4.90365e-10
4.75046e-10
-4.94334e-10
4.05766e-10
-4.81035e-10
3.29785e-10
-5.30681e-10
3.4985e-10
-7.24271e-10
6.00288e-10
-1.13398e-09
1.10236e-09
-1.50593e-09
1.33471e-09
-1.88112e-09
1.34961e-09
-2.13108e-09
1.20875e-09
-2.22094e-09
9.42016e-10
-2.20156e-09
5.10092e-10
-2.03219e-09
-1.48112e-10
-1.88656e-09
-4.58343e-10
-1.72139e-09
-1.0144e-09
-1.34963e-09
-1.46057e-09
-1.14141e-09
-1.7378e-09
-1.04479e-09
-1.86344e-09
-9.33908e-10
-1.89102e-09
-5.65948e-10
-1.93292e-09
-3.2863e-10
-1.59258e-09
-2.55185e-10
-9.5419e-10
-1.49463e-10
-5.49535e-10
-1.02268e-10
-1.91844e-10
9.71202e-13
-1.07877e-10
-6.80368e-13
-1.38958e-10
-1.45475e-11
-1.26226e-10
4.16358e-11
-2.50816e-10
1.35387e-10
-4.02108e-10
2.31926e-10
-5.50974e-10
3.34656e-10
-6.75905e-10
4.93879e-10
-7.54761e-10
6.00218e-10
-7.1123e-10
7.32542e-10
-8.27053e-10
8.47956e-10
-8.88149e-10
1.10742e-09
-7.986e-10
1.17785e-09
-8.05776e-10
1.25171e-09
-9.40414e-10
1.3738e-09
-7.43365e-10
1.5006e-09
-5.64696e-10
1.63857e-09
-4.62766e-10
1.83661e-09
-6.16183e-10
1.9773e-09
-6.03011e-10
2.00789e-09
-4.10039e-10
2.04664e-09
-3.75035e-10
2.11306e-09
-3.3441e-10
2.13455e-09
-1.97333e-10
2.24112e-09
-2.5541e-10
2.23383e-09
-4.15952e-11
2.2819e-09
1.23195e-10
2.31231e-09
1.81656e-10
2.26435e-09
3.99832e-10
2.2054e-09
5.14809e-10
2.14449e-09
5.57154e-10
2.02198e-09
6.26983e-10
1.90437e-09
8.31581e-10
1.73269e-09
7.95846e-10
1.5995e-09
8.81672e-10
1.45008e-09
1.11668e-09
1.28086e-09
1.20637e-09
1.22347e-09
1.17724e-09
1.21611e-09
1.21185e-09
1.27147e-09
1.20185e-09
1.24865e-09
1.0442e-09
9.59262e-10
8.862e-10
5.82668e-10
8.41324e-10
5.19154e-10
5.19936e-10
4.69646e-10
2.61897e-10
2.44934e-10
1.37334e-10
-1.8029e-10
2.17751e-10
-5.40194e-10
1.85325e-10
-5.2548e-10
1.47119e-11
-2.8629e-10
-5.82077e-10
2.89381e-10
-9.01085e-10
3.66279e-16
1.39271e-09
-1.22818e-18
1.98839e-18
7.60376e-19
-2.57456e-18
1.56783e-18
-1.6562e-18
1.82404e-18
-9.12829e-19
1.84634e-18
-4.21501e-19
1.77697e-18
-1.17486e-19
1.67638e-18
6.18339e-20
1.57153e-18
1.56045e-19
1.47624e-18
1.88923e-19
1.39879e-18
1.76582e-19
1.34429e-18
1.31964e-19
1.3153e-18
6.66564e-20
1.31207e-18
-8.70174e-21
1.33277e-18
-8.46117e-20
1.37389e-18
-1.53071e-19
1.43066e-18
-2.07867e-19
1.49764e-18
-2.44718e-19
1.56919e-18
-2.61248e-19
1.63987e-18
-2.56808e-19
1.70475e-18
-2.32198e-19
1.75964e-18
-1.89319e-19
1.80115e-18
-1.30829e-19
1.82677e-18
-5.98087e-20
1.83479e-18
2.05129e-20
1.82427e-18
1.06974e-19
1.79493e-18
1.96642e-19
1.74705e-18
2.86912e-19
1.68136e-18
3.75565e-19
1.59892e-18
4.60781e-19
1.50104e-18
5.41131e-19
1.38917e-18
6.15542e-19
1.26483e-18
6.83249e-19
1.12957e-18
7.4375e-19
9.84912e-19
7.96742e-19
8.32355e-19
8.42084e-19
6.73334e-19
8.79737e-19
5.09227e-19
9.09733e-19
3.41359e-19
9.32137e-19
1.71013e-19
9.47023e-19
9.5445e-19
-1.40184e-10
6.44832e-10
-2.20771e-10
5.23867e-10
-2.85886e-10
4.56554e-10
-2.95926e-10
4.30206e-10
-2.91863e-10
6.00491e-10
-3.75508e-10
6.43493e-10
-4.69444e-10
5.68983e-10
-5.4287e-10
4.79192e-10
-6.29227e-10
4.16142e-10
-8.57721e-10
5.78344e-10
-1.19606e-09
9.38631e-10
-1.5055e-09
1.4118e-09
-1.7787e-09
1.60791e-09
-2.01186e-09
1.58277e-09
-2.14303e-09
1.33992e-09
-2.15032e-09
9.49298e-10
-2.0939e-09
4.53679e-10
-1.99186e-09
-2.50158e-10
-1.89799e-09
-5.52212e-10
-1.63589e-09
-1.2765e-09
-1.59011e-09
-1.50636e-09
-1.53855e-09
-1.78935e-09
-1.44243e-09
-1.95956e-09
-1.3137e-09
-2.01975e-09
-1.20039e-09
-2.04623e-09
-1.1963e-09
-1.59667e-09
-1.00782e-09
-1.14268e-09
-7.45181e-10
-8.12172e-10
-4.89696e-10
-4.47329e-10
-2.91843e-10
-3.05731e-10
-2.52748e-10
-1.78054e-10
-2.18977e-10
-1.59997e-10
-1.54709e-10
-3.15084e-10
-1.97314e-11
-5.37086e-10
1.05844e-10
-6.76549e-10
1.43103e-10
-7.13165e-10
2.18743e-10
-8.30402e-10
4.21528e-10
-9.14016e-10
5.58962e-10
-9.64488e-10
7.35345e-10
-1.06453e-09
8.97014e-10
-9.6027e-10
9.85119e-10
-8.93881e-10
1.0586e-09
-1.01389e-09
1.21966e-09
-9.0443e-10
1.35308e-09
-6.98112e-10
1.49173e-09
-6.01424e-10
1.54199e-09
-6.66436e-10
1.61526e-09
-6.76283e-10
1.75643e-09
-5.51215e-10
1.85107e-09
-4.69677e-10
1.92617e-09
-4.0951e-10
1.99837e-09
-2.69528e-10
1.96578e-09
-2.22819e-10
1.94808e-09
-2.38969e-11
2.0092e-09
6.20783e-11
2.0618e-09
1.29048e-10
2.08351e-09
3.7812e-10
2.03854e-09
5.59782e-10
1.9644e-09
6.31296e-10
1.92785e-09
6.63527e-10
1.8259e-09
9.33535e-10
1.67943e-09
9.42309e-10
1.50807e-09
1.05304e-09
1.40871e-09
1.21604e-09
1.38728e-09
1.22779e-09
1.30963e-09
1.25489e-09
1.25462e-09
1.26686e-09
1.18491e-09
1.27155e-09
1.04858e-09
1.18053e-09
8.89018e-10
1.04576e-09
8.13787e-10
9.16553e-10
7.64784e-10
5.68938e-10
5.86241e-10
4.40439e-10
4.9255e-10
2.31024e-10
5.24949e-10
1.85352e-10
6.42303e-10
6.79691e-11
8.07439e-10
-1.50425e-10
5.65663e-10
-3.40302e-10
3.45581e-10
-6.81004e-10
3.51368e-16
1.73829e-09
-5.97923e-19
3.15406e-18
1.67901e-18
-4.85196e-18
2.31151e-18
-2.28955e-18
2.3157e-18
-9.17731e-19
2.15036e-18
-2.56658e-19
1.95629e-18
7.63839e-20
1.77059e-18
2.47536e-19
1.6044e-18
3.22436e-19
1.4639e-18
3.29833e-19
1.35417e-18
2.86921e-19
1.27898e-18
2.07999e-19
1.23994e-18
1.06765e-19
1.23616e-18
-3.65526e-21
1.26432e-18
-1.11355e-19
1.31909e-18
-2.06347e-19
1.39381e-18
-2.81052e-19
1.48111e-18
-3.30498e-19
1.57363e-18
-3.52247e-19
1.66448e-18
-3.46116e-19
1.74763e-18
-3.13752e-19
1.81813e-18
-2.58142e-19
1.87218e-18
-1.83123e-19
1.9071e-18
-9.29439e-20
1.92126e-18
8.09331e-21
1.91394e-18
1.15898e-19
1.8852e-18
2.26773e-19
1.8357e-18
3.37521e-19
1.76657e-18
4.45483e-19
1.67927e-18
5.48547e-19
1.57546e-18
6.45103e-19
1.45688e-18
7.33989e-19
1.32533e-18
8.14426e-19
1.18256e-18
8.85943e-19
1.03025e-18
9.48308e-19
8.70008e-19
1.00146e-18
7.0333e-19
1.04545e-18
5.31631e-19
1.0804e-18
3.56245e-19
1.10644e-18
1.78439e-19
1.12372e-18
1.13233e-18
-3.30644e-11
6.77897e-10
-1.04029e-10
5.94831e-10
-1.92863e-10
5.45387e-10
-3.22905e-10
5.60248e-10
-4.37341e-10
7.14927e-10
-5.42586e-10
7.48738e-10
-6.07134e-10
6.33531e-10
-6.44641e-10
5.16699e-10
-7.82759e-10
5.5426e-10
-1.15917e-09
9.54755e-10
-1.6786e-09
1.45806e-09
-1.90806e-09
1.64126e-09
-2.05721e-09
1.75706e-09
-2.13176e-09
1.65732e-09
-2.08004e-09
1.2882e-09
-2.0461e-09
9.15361e-10
-2.04619e-09
4.5377e-10
-2.10685e-09
-1.895e-10
-1.8262e-09
-8.32864e-10
-1.66917e-09
-1.43353e-09
-1.66102e-09
-1.51451e-09
-1.69105e-09
-1.75931e-09
-1.67382e-09
-1.97679e-09
-1.67804e-09
-2.01553e-09
-1.68019e-09
-2.04409e-09
-1.59283e-09
-1.68403e-09
-1.39176e-09
-1.34374e-09
-1.14008e-09
-1.06386e-09
-8.96128e-10
-6.91283e-10
-6.96017e-10
-5.05842e-10
-5.61542e-10
-3.1253e-10
-4.19637e-10
-3.01902e-10
-3.30786e-10
-4.03936e-10
-2.60627e-10
-6.07245e-10
-1.95888e-10
-7.41289e-10
-6.7497e-11
-8.41557e-10
2.29088e-11
-9.20808e-10
2.01685e-10
-1.09279e-09
3.2954e-10
-1.09234e-09
4.44331e-10
-1.17932e-09
6.56507e-10
-1.17245e-09
8.3812e-10
-1.0755e-09
8.62803e-10
-1.03857e-09
9.65482e-10
-1.00711e-09
1.11094e-09
-8.43572e-10
1.25031e-09
-7.40798e-10
1.33189e-09
-7.48017e-10
1.4155e-09
-7.59887e-10
1.54064e-09
-6.76362e-10
1.5988e-09
-5.27835e-10
1.64328e-09
-4.53987e-10
1.71369e-09
-3.3994e-10
1.69811e-09
-2.07235e-10
1.7075e-09
-3.32926e-11
1.79926e-09
-2.96817e-11
1.78009e-09
1.48221e-10
1.81415e-09
3.44054e-10
1.84494e-09
5.28996e-10
1.80566e-09
6.70572e-10
1.72891e-09
7.40276e-10
1.59575e-09
1.0667e-09
1.47059e-09
1.06746e-09
1.37404e-09
1.14959e-09
1.333e-09
1.25708e-09
1.29743e-09
1.26336e-09
1.21676e-09
1.33556e-09
1.17956e-09
1.30406e-09
1.13988e-09
1.31123e-09
1.07868e-09
1.24173e-09
9.80616e-10
1.14382e-09
9.01919e-10
9.95249e-10
6.94092e-10
7.76764e-10
5.79372e-10
5.55158e-10
5.85421e-10
2.24974e-10
6.69825e-10
1.00947e-10
7.54243e-10
-1.64503e-11
7.70139e-10
-1.66322e-10
5.43744e-10
-1.13908e-10
1.61533e-10
-2.98794e-10
3.54131e-16
1.89982e-09
8.21997e-19
-1.10198e-18
4.24151e-18
-8.27198e-18
3.68355e-18
-1.73257e-18
2.97701e-18
-2.11986e-19
2.4834e-18
2.36297e-19
2.12744e-18
4.31947e-19
1.8455e-18
5.29296e-19
1.6118e-18
5.56123e-19
1.42098e-18
5.20824e-19
1.27525e-18
4.33027e-19
1.17775e-18
3.06099e-19
1.12952e-18
1.55823e-19
1.12846e-18
-1.53844e-21
1.16932e-18
-1.50982e-19
1.24438e-18
-2.80055e-19
1.34436e-18
-3.79616e-19
1.45937e-18
-4.44078e-19
1.57977e-18
-4.71228e-19
1.69684e-18
-4.61767e-19
1.80324e-18
-4.18671e-19
1.89315e-18
-3.46489e-19
1.96235e-18
-2.50674e-19
2.00813e-18
-1.37002e-19
2.02906e-18
-1.11245e-20
2.02482e-18
1.21752e-19
1.99595e-18
2.57056e-19
1.94366e-18
3.90949e-19
1.86964e-18
5.20342e-19
1.77583e-18
6.42862e-19
1.66434e-18
7.56777e-19
1.53732e-18
8.60912e-19
1.39685e-18
9.54544e-19
1.24492e-18
1.03731e-18
1.0834e-18
1.1091e-18
9.13998e-19
1.17e-18
7.38277e-19
1.22021e-18
5.57677e-19
1.25997e-18
3.73523e-19
1.28952e-18
1.87052e-19
1.30909e-18
1.31883e-18
-5.93882e-11
7.37285e-10
-1.34709e-10
6.70152e-10
-2.13339e-10
6.24018e-10
-3.34499e-10
6.81408e-10
-4.22588e-10
8.03016e-10
-5.23416e-10
8.49566e-10
-6.9112e-10
8.01235e-10
-9.03537e-10
7.29115e-10
-1.27262e-09
9.23339e-10
-1.54031e-09
1.22245e-09
-1.79291e-09
1.71066e-09
-1.98842e-09
1.83677e-09
-2.0605e-09
1.82914e-09
-2.02311e-09
1.61993e-09
-1.91005e-09
1.17514e-09
-1.75384e-09
7.5915e-10
-1.63077e-09
3.30698e-10
-1.66916e-09
-1.51112e-10
-1.57779e-09
-9.24229e-10
-1.67188e-09
-1.33944e-09
-1.75974e-09
-1.42665e-09
-1.81326e-09
-1.70579e-09
-1.86026e-09
-1.92979e-09
-1.87073e-09
-2.00505e-09
-1.87584e-09
-2.03898e-09
-1.77079e-09
-1.78909e-09
-1.59345e-09
-1.52108e-09
-1.40092e-09
-1.25639e-09
-1.16471e-09
-9.27498e-10
-9.29776e-10
-7.40772e-10
-7.15767e-10
-5.26539e-10
-5.51513e-10
-4.66157e-10
-4.51327e-10
-5.04123e-10
-3.86996e-10
-6.71576e-10
-2.94776e-10
-8.3351e-10
-1.74925e-10
-9.61409e-10
-2.37848e-11
-1.07195e-09
8.73473e-11
-1.20393e-09
2.49673e-10
-1.25467e-09
3.69097e-10
-1.29875e-09
3.95585e-10
-1.19894e-09
4.87469e-10
-1.16738e-09
6.04072e-10
-1.15518e-09
7.16764e-10
-1.1198e-09
8.70343e-10
-9.97151e-10
1.00335e-09
-8.7381e-10
1.07084e-09
-8.15504e-10
1.18079e-09
-8.69832e-10
1.22717e-09
-7.22746e-10
1.30652e-09
-6.07183e-10
1.37362e-09
-5.21094e-10
1.44309e-09
-4.09408e-10
1.47169e-09
-2.35837e-10
1.51786e-09
-7.94638e-11
1.56007e-09
-7.18885e-11
1.54039e-09
1.67897e-10
1.54357e-09
3.40874e-10
1.48973e-09
5.82839e-10
1.54578e-09
6.14519e-10
1.51659e-09
7.69464e-10
1.5801e-09
1.0032e-09
1.50961e-09
1.13795e-09
1.42803e-09
1.23118e-09
1.35169e-09
1.33342e-09
1.2766e-09
1.33845e-09
1.21766e-09
1.3945e-09
1.157e-09
1.36473e-09
1.1111e-09
1.35713e-09
1.07372e-09
1.27911e-09
1.00778e-09
1.20976e-09
8.84149e-10
1.11888e-09
7.46188e-10
9.14724e-10
6.48794e-10
6.52551e-10
5.85823e-10
2.87945e-10
6.62051e-10
2.4718e-11
6.68306e-10
-2.27067e-11
5.59552e-10
-5.75693e-11
5.53745e-10
-1.08102e-10
3.66525e-10
-1.11575e-10
3.1709e-11
2.23464e-09
3.73757e-17
3.17086e-11
1.10674e-17
1.80294e-17
5.20435e-18
4.12991e-18
3.42546e-18
1.5662e-18
2.67905e-18
9.82026e-19
2.22479e-18
8.85683e-19
1.87232e-18
8.81416e-19
1.5765e-18
8.51748e-19
1.33319e-18
7.64097e-19
1.14832e-18
6.18022e-19
1.02747e-18
4.27283e-19
9.72158e-19
2.11697e-19
9.79016e-19
-7.59331e-21
1.04025e-18
-2.11203e-19
1.14482e-18
-3.83465e-19
1.2799e-18
-5.13436e-19
1.43222e-18
-5.95094e-19
1.58923e-18
-6.26928e-19
1.73994e-18
-6.11163e-19
1.87542e-18
-5.52796e-19
1.98896e-18
-4.58596e-19
2.07603e-18
-3.362e-19
2.13401e-18
-1.9336e-19
2.16194e-18
-3.73981e-20
2.16012e-18
1.25157e-19
2.12984e-18
2.88759e-19
2.07306e-18
4.48907e-19
1.99216e-18
6.02115e-19
1.88974e-18
7.45822e-19
1.76848e-18
8.78272e-19
1.63095e-18
9.98372e-19
1.47961e-18
1.10556e-18
1.31672e-18
1.19966e-18
1.14431e-18
1.2808e-18
9.64205e-19
1.34926e-18
7.78032e-19
1.40543e-18
5.8723e-19
1.44975e-18
3.93091e-19
1.48259e-18
1.96795e-19
1.50429e-18
1.51508e-18
-3.95047e-11
7.7679e-10
-1.24116e-10
7.54763e-10
-2.47665e-10
7.47566e-10
-3.77308e-10
8.11051e-10
-4.86045e-10
9.11753e-10
-5.68634e-10
9.32155e-10
-7.55089e-10
9.87691e-10
-9.61127e-10
9.35153e-10
-1.43409e-09
1.39631e-09
-1.79941e-09
1.58777e-09
-1.86022e-09
1.77147e-09
-1.90563e-09
1.88218e-09
-1.92272e-09
1.84624e-09
-1.79618e-09
1.49339e-09
-1.59898e-09
9.77941e-10
-1.41494e-09
5.75103e-10
-1.28818e-09
2.03945e-10
-1.25722e-09
-1.82075e-10
-1.228e-09
-9.53444e-10
-1.57618e-09
-9.91259e-10
-1.8559e-09
-1.14694e-09
-1.89349e-09
-1.6682e-09
-1.92723e-09
-1.89605e-09
-1.90657e-09
-2.02572e-09
-1.89502e-09
-2.05053e-09
-1.77461e-09
-1.9095e-09
-1.65306e-09
-1.64263e-09
-1.53563e-09
-1.37382e-09
-1.24179e-09
-1.22134e-09
-9.7588e-10
-1.00668e-09
-7.30031e-10
-7.72389e-10
-5.4539e-10
-6.50797e-10
-4.29193e-10
-6.20321e-10
-3.44197e-10
-7.56573e-10
-2.41371e-10
-9.36336e-10
-1.48784e-10
-1.054e-09
-5.75425e-11
-1.16319e-09
3.47622e-12
-1.26494e-09
6.89484e-11
-1.32014e-09
1.59804e-10
-1.3896e-09
2.71192e-10
-1.31032e-09
3.41676e-10
-1.23786e-09
3.78439e-10
-1.19194e-09
4.81804e-10
-1.22317e-09
6.35594e-10
-1.15094e-09
8.09372e-10
-1.04759e-09
8.54561e-10
-8.60693e-10
9.07511e-10
-9.22783e-10
9.51486e-10
-7.66722e-10
1.04931e-09
-7.0501e-10
1.12865e-09
-6.00434e-10
1.21189e-09
-4.92644e-10
1.26088e-09
-2.84833e-10
1.31882e-09
-1.37406e-10
1.26044e-09
-1.35e-11
1.2714e-09
1.5693e-10
1.28423e-09
3.28049e-10
1.34582e-09
5.21248e-10
1.39453e-09
5.65801e-10
1.28687e-09
8.77126e-10
1.16304e-09
1.12703e-09
1.12195e-09
1.17904e-09
1.13949e-09
1.21363e-09
1.12028e-09
1.35262e-09
1.10695e-09
1.35179e-09
1.10706e-09
1.39438e-09
1.06e-09
1.41179e-09
1.01235e-09
1.40478e-09
9.65227e-10
1.32623e-09
9.04416e-10
1.27057e-09
8.64245e-10
1.15905e-09
7.95038e-10
9.8393e-10
6.88387e-10
7.59201e-10
6.19521e-10
3.5681e-10
6.55128e-10
-1.08898e-11
6.17255e-10
1.51655e-11
5.21276e-10
3.8408e-11
3.47333e-10
6.58402e-11
-1.44785e-10
3.80542e-10
6.95098e-11
2.02034e-09
3.19379e-16
1.01218e-10
1.4323e-19
6.60037e-19
2.64107e-18
1.63156e-18
2.8414e-18
1.36515e-18
2.58271e-18
1.24011e-18
2.22053e-18
1.24736e-18
1.84265e-18
1.25891e-18
1.48885e-18
1.20529e-18
1.18711e-18
1.06569e-18
9.57583e-19
8.47536e-19
8.11885e-19
5.73121e-19
7.52868e-19
2.71046e-19
7.75407e-19
-2.95701e-20
8.67989e-19
-3.03009e-19
1.01485e-18
-5.29392e-19
1.19824e-18
-6.95776e-19
1.40038e-18
-7.96105e-19
1.60499e-18
-8.30366e-19
1.79831e-18
-8.03289e-19
1.96962e-18
-7.22883e-19
2.11136e-18
-5.99037e-19
2.21887e-18
-4.42302e-19
2.28997e-18
-2.62955e-19
2.32449e-18
-7.03467e-20
2.32372e-18
1.27472e-19
2.28999e-18
3.23908e-19
2.22626e-18
5.13823e-19
2.13586e-18
6.93422e-19
2.02219e-18
8.60082e-19
1.88858e-18
1.01216e-18
1.73814e-18
1.14878e-18
1.57371e-18
1.26969e-18
1.39785e-18
1.37501e-18
1.21277e-18
1.46519e-18
1.02038e-18
1.54081e-18
8.22344e-19
1.60254e-18
6.20071e-19
1.65101e-18
4.1479e-19
1.68681e-18
2.07585e-19
1.7104e-18