/*--------------------------------*- C++ -*----------------------------------*\
  =========                 |
  \\      /  F ield         | OpenFOAM: The Open Source CFD Toolbox
   \\    /   O peration     | Website:  https://openfoam.org
    \\  /    A nd           | Version:  6
     \\/     M anipulation  |
\*---------------------------------------------------------------------------*/
FoamFile
{
    version     2.0;
    format      ascii;
    class       volScalarField;
    location    "1950";
    object      Su;
}
// * * * * * * * * * * * * * * * * * * * * * * * * * * * * * * * * * * * * * //

dimensions      [0 0 -1 0 0 0 0];

internalField   nonuniform List<scalar> 
4800
(
0.21894
0.215643
0.212361
0.209108
0.205898
0.202742
0.19965
0.19663
0.193691
0.190844
0.1881
0.185466
0.18295
0.180556
0.178287
0.176147
0.17414
0.172265
0.170517
0.168884
0.167347
0.165891
0.164499
0.163146
0.16181
0.160473
0.159126
0.157764
0.156375
0.154953
0.153501
0.152023
0.150528
0.149022
0.147511
0.145997
0.144484
0.142972
0.141463
0.139956
0.138453
0.136951
0.135457
0.133962
0.132454
0.130925
0.129376
0.127804
0.126204
0.124573
0.122905
0.121191
0.119413
0.117551
0.115588
0.113503
0.111279
0.108897
0.106341
0.103596
0.100649
0.0974819
0.0940807
0.090439
0.0865668
0.0824801
0.0782132
0.0738093
0.0693088
0.0647503
0.0601693
0.0555983
0.0510614
0.0465725
0.0421361
0.0377507
0.0334191
0.0291489
0.0249492
0.0208178
0.0167728
0.0128581
0.00907462
0.00541403
0.00186105
-0.00160211
-0.0049929
-0.008327
-0.0116177
-0.0148756
-0.0181091
-0.0213248
-0.0245271
-0.0277196
-0.0309046
-0.0340836
-0.0372575
-0.0404267
-0.0435913
-0.0467511
-0.049906
-0.0530556
-0.0561995
-0.0593374
-0.0624691
-0.0655943
-0.068713
-0.0718251
-0.0749307
-0.07803
-0.0811232
-0.0842107
-0.0872929
-0.0903702
-0.0934432
-0.0965125
-0.0995786
-0.102642
-0.105704
-0.108765
0.218938
0.21564
0.212363
0.20912
0.205917
0.202766
0.199678
0.196661
0.193726
0.190883
0.188139
0.185501
0.182976
0.18057
0.178291
0.176146
0.174137
0.172263
0.170516
0.168886
0.167354
0.1659
0.164506
0.163148
0.161805
0.160459
0.159101
0.157724
0.15632
0.154885
0.15342
0.151932
0.150427
0.148911
0.147389
0.145865
0.144342
0.14282
0.141302
0.139786
0.138275
0.136761
0.135256
0.133753
0.132239
0.130707
0.129157
0.127584
0.125986
0.124357
0.122691
0.120976
0.119198
0.117338
0.115377
0.113299
0.111084
0.108714
0.106172
0.103442
0.100511
0.0973682
0.0939969
0.0903901
0.086555
0.0825082
0.0782782
0.0739056
0.069429
0.0648816
0.0603036
0.0557316
0.0511888
0.046683
0.0422194
0.0378048
0.033444
0.0291394
0.0248878
0.0207003
0.0166227
0.0127019
0.00892597
0.00527998
0.0017444
-0.00170137
-0.0050763
-0.00839674
-0.011676
-0.0149246
-0.0181507
-0.0213602
-0.0245577
-0.0277462
-0.030928
-0.0341043
-0.0372759
-0.0404432
-0.0436061
-0.0467646
-0.0499182
-0.0530667
-0.0562096
-0.0593466
-0.0624774
-0.0656019
-0.0687199
-0.0718313
-0.0749363
-0.078035
-0.0811277
-0.0842146
-0.0872963
-0.0903731
-0.0934456
-0.0965144
-0.0995801
-0.102643
-0.105705
-0.108765
0.218941
0.215651
0.212384
0.20915
0.205957
0.202812
0.199728
0.196716
0.193787
0.190949
0.188205
0.185559
0.183019
0.180596
0.178305
0.176154
0.174146
0.172279
0.170543
0.168923
0.167397
0.165941
0.164538
0.163166
0.161806
0.160443
0.159064
0.15766
0.156225
0.154762
0.153273
0.151765
0.150239
0.148701
0.147157
0.145611
0.144067
0.142524
0.140987
0.139452
0.137925
0.136391
0.134864
0.133345
0.131821
0.130283
0.128728
0.127157
0.125561
0.123934
0.122269
0.120553
0.118777
0.116922
0.11497
0.112903
0.110704
0.108354
0.105837
0.103137
0.100238
0.0971299
0.0938036
0.0902506
0.086477
0.0824937
0.0783276
0.0740077
0.069557
0.0650222
0.0604593
0.0558911
0.0513258
0.0467775
0.0422582
0.0377755
0.0333327
0.028936
0.0246095
0.0203883
0.0162956
0.0123761
0.00862149
0.00500899
0.001511
-0.00189845
-0.00524107
-0.00853412
-0.0117908
-0.0150211
-0.0182324
-0.0214301
-0.024618
-0.0277988
-0.0309742
-0.0341452
-0.0373125
-0.040476
-0.0436358
-0.0467914
-0.0499426
-0.0530888
-0.0562298
-0.059365
-0.0624941
-0.0656171
-0.0687336
-0.0718437
-0.0749474
-0.0780449
-0.0811365
-0.0842223
-0.087303
-0.0903788
-0.0934504
-0.0965183
-0.0995831
-0.102646
-0.105706
-0.108766
0.218949
0.215672
0.212416
0.20919
0.206002
0.202864
0.199787
0.196782
0.19386
0.191026
0.188281
0.185626
0.183072
0.180637
0.17834
0.176193
0.174197
0.172348
0.170629
0.169019
0.167493
0.166031
0.16461
0.163212
0.161823
0.160429
0.159017
0.157575
0.156104
0.154606
0.153083
0.151542
0.149984
0.148414
0.146836
0.145257
0.143679
0.142102
0.140533
0.138966
0.137413
0.135853
0.134297
0.132754
0.131214
0.129665
0.128102
0.126527
0.124932
0.123306
0.12164
0.119926
0.118154
0.116309
0.114374
0.112328
0.110154
0.107834
0.105348
0.102682
0.0998202
0.0967506
0.0934769
0.0899862
0.0862785
0.0823703
0.0782733
0.0740004
0.0695927
0.0651084
0.0605745
0.0559949
0.0513866
0.046776
0.0421774
0.0375998
0.0330613
0.0285934
0.0242136
0.0199249
0.0157754
0.0118611
0.00814951
0.00459738
0.00116247
-0.00218908
-0.00548207
-0.00873413
-0.0119576
-0.0151613
-0.0183514
-0.021532
-0.0247062
-0.0278758
-0.0310421
-0.0342056
-0.0373665
-0.0405246
-0.0436797
-0.0468313
-0.0499788
-0.0531218
-0.0562598
-0.0593923
-0.062519
-0.0656397
-0.0687541
-0.0718622
-0.074964
-0.0780597
-0.0811496
-0.0842339
-0.087313
-0.0903873
-0.0934575
-0.0965241
-0.0995876
-0.102649
-0.105708
-0.108766
0.218956
0.215693
0.212448
0.20923
0.206047
0.202913
0.199843
0.196846
0.19393
0.191097
0.188348
0.185685
0.183126
0.180696
0.178414
0.176289
0.17432
0.172497
0.170797
0.169191
0.167656
0.166175
0.16472
0.163279
0.161845
0.160407
0.15895
0.157467
0.155956
0.154421
0.152863
0.151283
0.149684
0.148072
0.146451
0.144825
0.143201
0.141578
0.139961
0.138351
0.136757
0.135161
0.13357
0.131996
0.13043
0.128863
0.127286
0.125701
0.124098
0.122469
0.120804
0.119095
0.117332
0.115503
0.11359
0.111572
0.10943
0.107145
0.104697
0.102072
0.0992566
0.0962356
0.0930135
0.0895839
0.0859441
0.082105
0.0780761
0.0738814
0.0695591
0.0651342
0.0606122
0.0560112
0.0513618
0.0466844
0.0419915
0.0372955
0.0326205
0.028011
0.0235258
0.019186
0.0150006
0.0111198
0.00749354
0.00404314
0.000704554
-0.00256457
-0.00579031
-0.00898869
-0.0121697
-0.0153398
-0.0185031
-0.0216625
-0.0248195
-0.0279753
-0.0311301
-0.0342841
-0.0374369
-0.0405882
-0.0437373
-0.0468836
-0.0500265
-0.0531653
-0.0562994
-0.0594284
-0.0625519
-0.0656695
-0.0687811
-0.0718866
-0.0749859
-0.0780793
-0.081167
-0.0842491
-0.0873262
-0.0903986
-0.093467
-0.0965317
-0.0995935
-0.102653
-0.105711
-0.108767
0.218964
0.215716
0.212484
0.209277
0.2061
0.202968
0.199899
0.196904
0.193988
0.191152
0.188397
0.185737
0.183193
0.18079
0.178545
0.176462
0.174533
0.172739
0.171051
0.169444
0.167891
0.166373
0.164869
0.163371
0.161877
0.160381
0.158871
0.157343
0.155795
0.154224
0.152626
0.151003
0.149357
0.147694
0.146019
0.144336
0.142653
0.140972
0.139296
0.13763
0.135981
0.134337
0.132702
0.131089
0.12949
0.127895
0.126294
0.124689
0.123074
0.121438
0.119773
0.118071
0.116318
0.114506
0.112615
0.110627
0.108522
0.106277
0.103874
0.101298
0.0985353
0.095571
0.0924072
0.089043
0.0854767
0.0817194
0.0777844
0.0736856
0.0694356
0.0650409
0.0605195
0.0559114
0.0512427
0.0465153
0.0417367
0.0369312
0.032138
0.0273873
0.022726
0.0182141
0.0139035
0.0101017
0.00663849
0.00335269
0.000151904
-0.00300916
-0.00615179
-0.00928627
-0.0124178
-0.0155492
-0.0186821
-0.0218172
-0.0249547
-0.0280944
-0.0312361
-0.034379
-0.0375225
-0.0406657
-0.0438078
-0.0469478
-0.0500851
-0.0532188
-0.0563483
-0.059473
-0.0625925
-0.0657064
-0.0688145
-0.0719168
-0.0750131
-0.0781035
-0.0811884
-0.084268
-0.0873426
-0.0904126
-0.0934786
-0.0965412
-0.0996008
-0.102658
-0.105714
-0.108768
0.218967
0.215726
0.212502
0.209304
0.20614
0.20302
0.199956
0.19696
0.194038
0.191194
0.188439
0.185797
0.183294
0.180946
0.17876
0.176732
0.174845
0.173077
0.171396
0.16978
0.168196
0.16663
0.16507
0.163511
0.161951
0.160384
0.158813
0.157235
0.155644
0.154032
0.152391
0.15072
0.149021
0.1473
0.145561
0.143811
0.142055
0.140303
0.138557
0.136823
0.135107
0.133405
0.131716
0.130053
0.128412
0.12678
0.125146
0.123514
0.121883
0.120239
0.118572
0.116874
0.115129
0.11333
0.111459
0.109499
0.107432
0.105231
0.102877
0.100356
0.0976551
0.0947555
0.0916589
0.0883681
0.0848839
0.0812104
0.0773548
0.073327
0.0691336
0.0647857
0.0603057
0.0557183
0.0510409
0.0462913
0.04149
0.0366438
0.0317489
0.0267883
0.0217923
0.0169034
0.012282
0.00872498
0.00558439
0.00255409
-0.000464786
-0.00349722
-0.00654678
-0.00961202
-0.0126908
-0.0157813
-0.0188819
-0.0219911
-0.0251078
-0.0282304
-0.0313578
-0.0344887
-0.0376219
-0.0407561
-0.0438902
-0.0470231
-0.050154
-0.0532818
-0.0564059
-0.0595257
-0.0626405
-0.0657501
-0.0688541
-0.0719525
-0.0750452
-0.0781322
-0.0812139
-0.0842903
-0.087362
-0.0904292
-0.0934925
-0.0965523
-0.0996094
-0.102664
-0.105717
-0.10877
0.218977
0.215752
0.212539
0.209346
0.206186
0.203072
0.200014
0.197022
0.194102
0.19126
0.18852
0.185915
0.183471
0.181193
0.179079
0.177112
0.175267
0.17352
0.171843
0.17021
0.16859
0.166975
0.165359
0.163737
0.162108
0.160473
0.158837
0.157198
0.155551
0.153884
0.15219
0.150465
0.148707
0.146917
0.145103
0.143275
0.141437
0.1396
0.13777
0.135953
0.134158
0.132386
0.130633
0.12891
0.127216
0.12554
0.123871
0.12221
0.120555
0.118897
0.117224
0.115526
0.11379
0.112003
0.110148
0.108213
0.106179
0.104022
0.10172
0.0992557
0.0966193
0.093789
0.090767
0.087554
0.0841485
0.0805531
0.0767728
0.0728164
0.0686888
0.0643989
0.059962
0.0553934
0.050717
0.045959
0.0411329
0.0362265
0.0312078
0.0260315
0.0206566
0.0151231
0.00958389
0.00691446
0.00440021
0.0017223
-0.0010912
-0.00399245
-0.0069509
-0.00994904
-0.0129766
-0.016027
-0.0190957
-0.0221793
-0.0252749
-0.0283801
-0.0314928
-0.0346112
-0.0377335
-0.0408581
-0.0439836
-0.0471088
-0.0502326
-0.0533539
-0.0564719
-0.059586
-0.0626956
-0.0658002
-0.0688996
-0.0719936
-0.0750821
-0.0781652
-0.0812431
-0.084316
-0.0873842
-0.0904482
-0.0935084
-0.0965652
-0.0996193
-0.102671
-0.105722
-0.108771
0.218986
0.21578
0.212582
0.209403
0.206255
0.203153
0.200104
0.197117
0.194201
0.19138
0.188684
0.186142
0.183768
0.181566
0.179524
0.177616
0.175813
0.174085
0.172406
0.170744
0.169083
0.167422
0.165756
0.164077
0.162386
0.160684
0.158979
0.15727
0.155553
0.153822
0.152066
0.150277
0.148448
0.146581
0.144683
0.142763
0.140831
0.138895
0.136967
0.135054
0.133166
0.131306
0.129477
0.127685
0.12593
0.124204
0.122494
0.120797
0.119116
0.117438
0.115755
0.114055
0.112324
0.110548
0.108707
0.106795
0.104789
0.10267
0.100417
0.0980137
0.0954466
0.0926927
0.0897476
0.0866107
0.08328
0.0797597
0.0760521
0.0721642
0.0681016
0.0638711
0.0594813
0.0549454
0.0502849
0.0455205
0.0406658
0.0357042
0.0305918
0.0252706
0.019592
0.0131043
0.00280397
0.00493649
0.00336216
0.0010057
-0.00165211
-0.00445406
-0.0073396
-0.0102811
-0.0132636
-0.0162778
-0.0193171
-0.0223766
-0.0254521
-0.0285405
-0.0316388
-0.0347446
-0.0378558
-0.0409705
-0.044087
-0.047204
-0.0503201
-0.0534344
-0.0565458
-0.0596537
-0.0627574
-0.0658565
-0.0689507
-0.0720397
-0.0751236
-0.0782023
-0.081276
-0.0843448
-0.0874093
-0.0904696
-0.0935262
-0.0965796
-0.0996304
-0.102679
-0.105726
-0.108773
0.218999
0.215816
0.212639
0.209477
0.206348
0.203267
0.20024
0.197275
0.194386
0.191602
0.188964
0.186493
0.184196
0.18207
0.180095
0.17824
0.17647
0.174755
0.17307
0.17138
0.169681
0.167984
0.166276
0.164549
0.162802
0.161037
0.15926
0.157475
0.155682
0.153877
0.152048
0.150184
0.148275
0.146319
0.144324
0.1423
0.140258
0.138208
0.136165
0.134142
0.132151
0.130197
0.128281
0.126408
0.124582
0.122798
0.121043
0.119307
0.117593
0.115891
0.114194
0.112487
0.110759
0.108989
0.10716
0.105265
0.103285
0.101204
0.0989975
0.0966504
0.0941416
0.0914543
0.0885834
0.0855237
0.0822692
0.0788247
0.0751904
0.0713711
0.0673729
0.0632028
0.058868
0.0543778
0.0497448
0.0449858
0.0401166
0.0351283
0.0299918
0.0246834
0.0191757
0.0134874
0.00774395
0.00545055
0.00309142
0.000571525
-0.00209016
-0.00485492
-0.00769605
-0.010596
-0.0135426
-0.0165265
-0.0195405
-0.0225787
-0.0256362
-0.028709
-0.0317937
-0.0348874
-0.0379876
-0.0410923
-0.0441996
-0.0473079
-0.050416
-0.0535227
-0.056627
-0.0597281
-0.0628254
-0.0659185
-0.0690069
-0.0720906
-0.0751693
-0.0782431
-0.0813122
-0.0843767
-0.0874368
-0.0904931
-0.0935459
-0.0965955
-0.0996427
-0.102688
-0.105731
-0.108774
0.219014
0.215862
0.212716
0.209579
0.206475
0.203423
0.200432
0.197509
0.194671
0.191951
0.189378
0.186975
0.18475
0.182695
0.180779
0.178964
0.177219
0.175513
0.173819
0.172108
0.17039
0.16867
0.16693
0.165163
0.163363
0.161535
0.159686
0.157823
0.15595
0.154061
0.152148
0.150199
0.148199
0.146142
0.144035
0.141893
0.139728
0.137553
0.135385
0.13324
0.131134
0.129075
0.127067
0.125106
0.123201
0.121347
0.119542
0.117765
0.116015
0.114284
0.112568
0.110851
0.109119
0.107349
0.105528
0.103647
0.10169
0.0996402
0.0974766
0.0951835
0.0927396
0.0901228
0.0873229
0.0843325
0.081147
0.0777708
0.0742051
0.0704538
0.0665224
0.0624161
0.0581385
0.0536971
0.0491008
0.0443618
0.0394955
0.0345043
0.0293811
0.0241496
0.0188948
0.0137953
0.00919454
0.00581572
0.00296613
0.000261368
-0.00244536
-0.00520143
-0.00801675
-0.010888
-0.0138077
-0.0167681
-0.0197617
-0.0227822
-0.0258243
-0.0288834
-0.0319556
-0.0350379
-0.0381276
-0.0412224
-0.0443204
-0.0474199
-0.0505196
-0.0536183
-0.0567149
-0.0598088
-0.0628993
-0.0659858
-0.0690681
-0.0721458
-0.075219
-0.0782875
-0.0813515
-0.0844112
-0.0874668
-0.0905187
-0.0935672
-0.0966128
-0.099656
-0.102697
-0.105737
-0.108776
0.219026
0.215901
0.212789
0.209699
0.206643
0.203639
0.200701
0.197834
0.195053
0.192398
0.1899
0.187574
0.185422
0.18343
0.181562
0.179782
0.178059
0.176364
0.17467
0.172954
0.171225
0.169484
0.167717
0.165908
0.164058
0.16217
0.160253
0.158314
0.156354
0.154371
0.152365
0.15032
0.148219
0.14605
0.143822
0.141551
0.139257
0.136955
0.134663
0.132398
0.130174
0.127999
0.125884
0.123825
0.121826
0.119888
0.118016
0.116194
0.114408
0.112645
0.110904
0.10917
0.107429
0.105653
0.103835
0.101963
0.100023
0.0979971
0.0958669
0.0936119
0.0912148
0.088658
0.0859291
0.0830111
0.0798995
0.076597
0.0731045
0.0694241
0.0655588
0.0615144
0.057298
0.0529175
0.0483746
0.0436711
0.0388205
0.0338354
0.0287224
0.0235318
0.0183802
0.0134979
0.00913998
0.00564018
0.00268271
-6.3007e-05
-0.00277006
-0.00550967
-0.00830389
-0.0111543
-0.0140552
-0.0169988
-0.0199776
-0.0229847
-0.0260144
-0.029062
-0.0321234
-0.0351953
-0.0382749
-0.0413601
-0.0444487
-0.0475392
-0.0506302
-0.0537205
-0.0568092
-0.0598954
-0.0629786
-0.0660581
-0.0691337
-0.0722052
-0.0752723
-0.0783351
-0.0813937
-0.0844482
-0.0874989
-0.0905461
-0.0935901
-0.0966313
-0.0996702
-0.102707
-0.105743
-0.108778
0.219042
0.21595
0.212875
0.20983
0.206829
0.203881
0.200998
0.198195
0.195496
0.192929
0.190513
0.188263
0.186185
0.184255
0.182433
0.180684
0.178979
0.177295
0.175603
0.173887
0.172155
0.170405
0.168611
0.166761
0.164865
0.162925
0.160945
0.158927
0.156874
0.154787
0.152669
0.150512
0.148299
0.146018
0.143672
0.141276
0.138856
0.136432
0.134021
0.13164
0.129298
0.127003
0.124766
0.122591
0.120489
0.118463
0.11651
0.114627
0.112793
0.110996
0.10923
0.107475
0.105718
0.103932
0.102108
0.100236
0.0983051
0.0963006
0.0942038
0.0919899
0.089637
0.0871283
0.0844534
0.0815992
0.0785593
0.0753278
0.0719037
0.0682896
0.0644906
0.0605152
0.0563699
0.0520571
0.047577
0.0429263
0.0381029
0.0331191
0.0279959
0.0227751
0.0175536
0.0125727
0.00816438
0.00491388
0.00217633
-0.000440143
-0.00307924
-0.00578282
-0.00855614
-0.0113926
-0.0142826
-0.0172167
-0.0201864
-0.0231847
-0.0262055
-0.029244
-0.0322961
-0.0353587
-0.0384289
-0.0415047
-0.044584
-0.0476653
-0.0507474
-0.053829
-0.0569092
-0.0599874
-0.0630627
-0.0661349
-0.0692034
-0.0722681
-0.0753289
-0.0783856
-0.0814385
-0.0844875
-0.0875329
-0.0905751
-0.0936143
-0.0966509
-0.0996853
-0.102718
-0.10575
-0.10878
0.21907
0.216034
0.213011
0.210017
0.20707
0.204188
0.201381
0.198658
0.196041
0.193559
0.191228
0.189058
0.187043
0.185159
0.183375
0.181655
0.179968
0.178295
0.176606
0.174892
0.173157
0.171394
0.169582
0.167711
0.165785
0.163798
0.161753
0.159649
0.157491
0.155287
0.153043
0.150756
0.148421
0.14603
0.143576
0.141071
0.138538
0.135999
0.133468
0.130963
0.128499
0.126088
0.123742
0.121467
0.119263
0.117141
0.115097
0.113134
0.111235
0.109384
0.107579
0.105793
0.104013
0.10221
0.100374
0.0984941
0.096561
0.0945628
0.0924806
0.0902963
0.0879883
0.0855379
0.0829253
0.0801336
0.0771517
0.07398
0.0706209
0.0670773
0.0633537
0.0594534
0.0553795
0.051135
0.0467221
0.0421296
0.0373488
0.0323937
0.0272755
0.0220061
0.0166072
0.0111117
0.00591354
0.00366903
0.00154004
-0.000806293
-0.00333872
-0.00600398
-0.00876531
-0.0115988
-0.014488
-0.0174208
-0.0203879
-0.023382
-0.0263973
-0.0294291
-0.0324736
-0.0355279
-0.0385893
-0.0416558
-0.0447258
-0.0477978
-0.0508706
-0.0539431
-0.0570145
-0.0600841
-0.0631513
-0.0662156
-0.0692767
-0.0723343
-0.0753883
-0.0784387
-0.0814854
-0.0845287
-0.0875686
-0.0906055
-0.0936396
-0.0966714
-0.0997011
-0.102729
-0.105756
-0.108782
0.219103
0.216134
0.21318
0.210257
0.207385
0.204577
0.201843
0.199195
0.196658
0.194256
0.191999
0.189898
0.187949
0.186124
0.184381
0.182688
0.181019
0.179355
0.177668
0.175956
0.17422
0.172455
0.170638
0.168755
0.166799
0.164763
0.162647
0.160452
0.15819
0.155867
0.153491
0.151067
0.148598
0.14609
0.143537
0.140938
0.138307
0.135664
0.133029
0.130416
0.127838
0.125308
0.12284
0.120447
0.118134
0.11591
0.113776
0.111729
0.109755
0.107833
0.105969
0.104141
0.102326
0.100501
0.0986485
0.0967592
0.0948235
0.0928303
0.09076
0.0885949
0.0863127
0.0838951
0.0813248
0.0785904
0.0756788
0.0725826
0.0693003
0.0658341
0.0621877
0.0583614
0.0543581
0.0501829
0.0458387
0.0413154
0.0366067
0.0317299
0.0267047
0.0215207
0.0160612
0.00956603
0.000503249
0.00230979
0.00111438
-0.000995983
-0.00347793
-0.00614488
-0.00892094
-0.0117698
-0.0146711
-0.0176118
-0.020583
-0.0235777
-0.0265908
-0.0296181
-0.0326563
-0.035703
-0.0387559
-0.0418133
-0.0448738
-0.0479361
-0.0509993
-0.0540623
-0.0571245
-0.0601852
-0.0632437
-0.0662998
-0.0693531
-0.0724033
-0.0754502
-0.0784939
-0.0815342
-0.0845715
-0.0876057
-0.0906371
-0.093666
-0.0966927
-0.0997175
-0.102741
-0.105763
-0.108785
0.219135
0.216231
0.213348
0.210506
0.207719
0.204997
0.202348
0.199789
0.197343
0.195028
0.192856
0.190832
0.188943
0.187159
0.185449
0.183778
0.182124
0.180467
0.178784
0.177078
0.175349
0.173585
0.171762
0.169862
0.167875
0.16579
0.163606
0.161325
0.158959
0.156517
0.154011
0.15145
0.148848
0.146223
0.143574
0.140896
0.138192
0.135471
0.132745
0.130027
0.127337
0.124689
0.122098
0.11958
0.117146
0.114807
0.112567
0.110428
0.10838
0.10639
0.104453
0.10256
0.100689
0.0988247
0.096945
0.0950372
0.0930928
0.0910984
0.0890335
0.0868856
0.084636
0.0822575
0.0797316
0.0770496
0.0742
0.0711712
0.0679607
0.0645691
0.0609993
0.0572541
0.053338
0.0492536
0.0449977
0.040567
0.0359664
0.0312259
0.0263883
0.0214784
0.0164642
0.0112159
0.00595569
0.00375316
0.00159637
-0.000823433
-0.00344316
-0.00619068
-0.0090209
-0.0119077
-0.0148353
-0.0177934
-0.0207748
-0.0237743
-0.0267878
-0.0298122
-0.0328451
-0.0358845
-0.038929
-0.0419771
-0.0450278
-0.04808
-0.0511331
-0.0541862
-0.0572387
-0.0602899
-0.0633395
-0.066387
-0.0694321
-0.0724745
-0.075514
-0.0785507
-0.0815845
-0.0846155
-0.0876438
-0.0906695
-0.093693
-0.0967145
-0.0997343
-0.102753
-0.10577
-0.108787
0.219175
0.216349
0.21354
0.210775
0.208074
0.205446
0.202895
0.200434
0.198081
0.195853
0.193758
0.191799
0.189968
0.188235
0.186563
0.184917
0.183278
0.181631
0.179958
0.178262
0.17654
0.174774
0.17294
0.171023
0.169007
0.166875
0.164625
0.162257
0.15979
0.157235
0.154602
0.151908
0.149178
0.146441
0.143701
0.140955
0.138193
0.13541
0.13261
0.129803
0.127009
0.124247
0.121536
0.118892
0.116331
0.113865
0.111501
0.109246
0.107103
0.105037
0.103028
0.101064
0.0991291
0.0972092
0.0952908
0.0933569
0.0913972
0.0893981
0.0873361
0.0851973
0.0829689
0.080628
0.0781493
0.0755209
0.0727327
0.0697746
0.0666416
0.063331
0.0598448
0.0561893
0.0523704
0.0483884
0.0442404
0.039933
0.0354854
0.0309418
0.026352
0.021753
0.0171463
0.0125096
0.00797008
0.00510853
0.00231986
-0.000462903
-0.00329082
-0.00616616
-0.00907991
-0.0120231
-0.0149888
-0.0179718
-0.0209684
-0.0239756
-0.0269912
-0.0300136
-0.0330413
-0.0360734
-0.039109
-0.0421473
-0.0451875
-0.0482292
-0.0512716
-0.0543142
-0.0573564
-0.0603978
-0.063438
-0.0664765
-0.069513
-0.0725474
-0.0755794
-0.0786089
-0.0816359
-0.0846605
-0.0876827
-0.0907026
-0.0937206
-0.0967367
-0.0997514
-0.102765
-0.105777
-0.10879
0.21922
0.216486
0.213776
0.211109
0.208498
0.205957
0.203497
0.201131
0.198871
0.196733
0.19472
0.192835
0.191059
0.189366
0.187724
0.186101
0.184477
0.182842
0.181183
0.179502
0.177785
0.176013
0.174166
0.172232
0.170185
0.168006
0.165686
0.163232
0.160665
0.158001
0.155258
0.152451
0.14961
0.146769
0.143943
0.141132
0.138324
0.135498
0.132642
0.129761
0.126869
0.123991
0.121153
0.118378
0.115684
0.113086
0.110593
0.10821
0.105945
0.103784
0.101693
0.0996479
0.0976421
0.0956614
0.0936963
0.0917296
0.0897485
0.0877397
0.085681
0.0835531
0.081347
0.0790445
0.0766151
0.0740452
0.0713218
0.0684379
0.0653873
0.0621654
0.0587734
0.0552148
0.0514949
0.0476198
0.0435959
0.0394371
0.0351682
0.0308346
0.0264871
0.0221668
0.0178636
0.0136164
0.00964896
0.00619679
0.00300587
-6.96698e-05
-0.00309969
-0.00611381
-0.00912353
-0.012133
-0.0151438
-0.0181562
-0.0211705
-0.0241866
-0.0272047
-0.0302247
-0.0332467
-0.0362706
-0.0392964
-0.0423239
-0.0453529
-0.0483831
-0.0514141
-0.0544456
-0.0574771
-0.0605081
-0.0635385
-0.0665676
-0.0695954
-0.0726214
-0.0756456
-0.0786678
-0.0816879
-0.0847059
-0.0877219
-0.090736
-0.0937484
-0.0967592
-0.0997687
-0.102777
-0.105785
-0.108792
0.219269
0.216633
0.214023
0.211456
0.208946
0.206505
0.204144
0.201873
0.199705
0.197652
0.195716
0.193893
0.192169
0.190521
0.188914
0.187317
0.185711
0.184094
0.182452
0.180782
0.179066
0.177285
0.175424
0.173461
0.171362
0.169118
0.166725
0.164194
0.161546
0.158798
0.155967
0.153064
0.150122
0.147182
0.144278
0.141419
0.138584
0.135734
0.132837
0.129889
0.126902
0.123912
0.120949
0.118038
0.115202
0.112459
0.109823
0.107306
0.104915
0.102637
0.100446
0.0983135
0.0962307
0.0941819
0.092162
0.090156
0.0881507
0.0861325
0.0840819
0.081971
0.0797873
0.0775202
0.0751405
0.0726365
0.069988
0.0671872
0.0642283
0.0611051
0.0578156
0.0543633
0.0507551
0.0469999
0.0431101
0.039108
0.0350192
0.0308748
0.0267097
0.0225564
0.0184333
0.0144188
0.0105976
0.00698277
0.0035611
0.000272483
-0.00292932
-0.00607403
-0.00917967
-0.0122575
-0.0153149
-0.0183575
-0.0213892
-0.0244134
-0.0274325
-0.0304486
-0.0334631
-0.0364772
-0.0394917
-0.0425071
-0.0455237
-0.0485414
-0.0515601
-0.0545797
-0.0575998
-0.0606201
-0.0636402
-0.0666597
-0.0696784
-0.072696
-0.0757122
-0.0787269
-0.08174
-0.0847514
-0.0877612
-0.0907694
-0.0937761
-0.0967816
-0.0997859
-0.102789
-0.105792
-0.108794
0.219322
0.216794
0.214292
0.211831
0.209428
0.207092
0.204832
0.202657
0.200581
0.198612
0.196749
0.194989
0.193315
0.191707
0.190131
0.188557
0.18697
0.185371
0.183742
0.182076
0.18035
0.17855
0.176658
0.174651
0.172506
0.170203
0.167738
0.165132
0.16241
0.159592
0.156687
0.153703
0.150671
0.147645
0.144673
0.141775
0.138925
0.136059
0.13313
0.130123
0.127057
0.123969
0.120896
0.117859
0.114881
0.111985
0.109194
0.106522
0.103981
0.101573
0.0992754
0.0970497
0.0948827
0.0927627
0.0906831
0.0886325
0.0866012
0.084573
0.0825282
0.0804411
0.0782943
0.0760774
0.0737564
0.0713235
0.0687575
0.0660493
0.0631916
0.060179
0.0570076
0.053678
0.0501963
0.0465738
0.0428287
0.0389849
0.0350672
0.0311011
0.0271124
0.0231057
0.0190981
0.0151557
0.0113107
0.00757392
0.00398734
0.000531949
-0.00281594
-0.00607865
-0.00927412
-0.0124166
-0.0155178
-0.0185873
-0.0216333
-0.0246621
-0.027679
-0.030688
-0.0336922
-0.0366941
-0.0396952
-0.0426967
-0.0456993
-0.0487033
-0.0517088
-0.0547157
-0.0577239
-0.0607329
-0.0637423
-0.066752
-0.0697614
-0.0727703
-0.0757785
-0.0787857
-0.0817917
-0.0847965
-0.0878001
-0.0908024
-0.0938036
-0.0968037
-0.0998029
-0.102801
-0.105799
-0.108797
0.219381
0.21697
0.214584
0.212236
0.209942
0.207711
0.20555
0.203471
0.201486
0.199598
0.197805
0.196101
0.194475
0.192903
0.191356
0.189803
0.188238
0.186653
0.185032
0.183363
0.181625
0.179802
0.177871
0.175808
0.173593
0.171208
0.168666
0.165995
0.163217
0.160344
0.157376
0.154315
0.151202
0.148107
0.145082
0.142151
0.139284
0.13641
0.133461
0.130401
0.12726
0.124087
0.120919
0.117777
0.114676
0.111637
0.108685
0.105846
0.103143
0.100586
0.0981591
0.0958326
0.0935809
0.0913879
0.0892496
0.087155
0.0851001
0.0830699
0.0810391
0.0789837
0.0768776
0.0747148
0.0724644
0.0701138
0.0676408
0.0650354
0.0622896
0.0593989
0.0563592
0.0531692
0.0498313
0.0463529
0.0427522
0.0390543
0.0352853
0.0314661
0.0276025
0.0236921
0.0197556
0.0158283
0.0118993
0.0080259
0.00429971
0.000697153
-0.00278255
-0.00615295
-0.00943002
-0.0126298
-0.0157677
-0.0188574
-0.0219112
-0.0249387
-0.0279481
-0.0309454
-0.0339355
-0.0369217
-0.0399067
-0.0428921
-0.0458789
-0.0488679
-0.0518591
-0.0548526
-0.0578481
-0.0608454
-0.063844
-0.0668435
-0.0698435
-0.0728438
-0.0758438
-0.0788435
-0.0818426
-0.0848408
-0.0878383
-0.0908348
-0.0938305
-0.0968254
-0.0998195
-0.102813
-0.105806
-0.108799
0.219443
0.217155
0.214888
0.212655
0.210471
0.208344
0.206282
0.204296
0.202395
0.200581
0.198854
0.197207
0.195624
0.194087
0.192564
0.191034
0.189489
0.187914
0.186296
0.184618
0.182857
0.180997
0.179009
0.176864
0.174548
0.172063
0.169435
0.166696
0.163869
0.160955
0.157945
0.154844
0.151686
0.148543
0.145487
0.14254
0.13965
0.136743
0.133751
0.130638
0.127432
0.124186
0.120942
0.117716
0.114515
0.111352
0.108254
0.105252
0.10238
0.0996616
0.0970952
0.0946545
0.092309
0.0900388
0.087842
0.0857077
0.0836344
0.0816091
0.0795993
0.0775809
0.0755258
0.0734247
0.0712545
0.0689998
0.066634
0.0641415
0.0615126
0.0587448
0.0558358
0.0527844
0.0495908
0.0462601
0.0428052
0.0392462
0.0356034
0.0318847
0.0280889
0.0242175
0.0202819
0.0163007
0.0122999
0.00804834
0.00449427
0.000757493
-0.00284871
-0.00632003
-0.0096696
-0.0129161
-0.0160796
-0.0191791
-0.0222309
-0.0252487
-0.0282432
-0.0312227
-0.0341935
-0.0371601
-0.0401256
-0.0430923
-0.0460615
-0.0490339
-0.0520097
-0.054989
-0.0579714
-0.0609565
-0.063944
-0.0669333
-0.0699239
-0.0729155
-0.0759075
-0.0788998
-0.081892
-0.0848838
-0.0878753
-0.0908662
-0.0938565
-0.0968463
-0.0998356
-0.102824
-0.105813
-0.108801
0.219504
0.217337
0.215188
0.213069
0.210993
0.208968
0.207002
0.205107
0.203287
0.201545
0.199877
0.198278
0.196733
0.195224
0.193728
0.192225
0.190696
0.189127
0.187507
0.185812
0.184019
0.182112
0.180052
0.177819
0.175399
0.172801
0.170064
0.16724
0.164356
0.161394
0.158341
0.155207
0.152031
0.148876
0.145817
0.142866
0.139954
0.13699
0.133922
0.130747
0.127492
0.124198
0.120899
0.117611
0.114331
0.111066
0.107839
0.10469
0.101663
0.0987895
0.0960766
0.0935091
0.0910609
0.0887091
0.0864513
0.0842804
0.0821916
0.0801722
0.0781873
0.0762057
0.0742013
0.0721662
0.0700873
0.0679476
0.0657107
0.0633474
0.0608379
0.0581784
0.0553733
0.0524299
0.0493523
0.0461436
0.0428092
0.0393625
0.0358107
0.0321605
0.0284147
0.0245756
0.0206509
0.0166563
0.0126181
0.00857188
0.00458535
0.000700759
-0.00303633
-0.00660515
-0.0100163
-0.0132948
-0.0164682
-0.0195625
-0.0225993
-0.0255961
-0.0285665
-0.0315206
-0.034466
-0.0374081
-0.0403506
-0.0432959
-0.0462453
-0.0491997
-0.0521591
-0.0551234
-0.0580922
-0.0610651
-0.0640413
-0.0670203
-0.0700016
-0.0729846
-0.0759688
-0.0789538
-0.0819393
-0.084925
-0.0879107
-0.0908961
-0.0938814
-0.0968663
-0.099851
-0.102835
-0.105819
-0.108803
0.219561
0.217508
0.215471
0.213459
0.211481
0.20955
0.207676
0.205865
0.204121
0.202443
0.200829
0.199274
0.197762
0.196282
0.194813
0.193332
0.191821
0.190264
0.188644
0.186937
0.185124
0.183178
0.181044
0.178699
0.176144
0.173409
0.170547
0.167634
0.164683
0.161656
0.158545
0.155377
0.152196
0.149058
0.146007
0.143038
0.140079
0.137045
0.133898
0.130668
0.127392
0.124084
0.12076
0.117434
0.114102
0.110764
0.107442
0.104181
0.101033
0.0980236
0.0951619
0.0924516
0.0898821
0.0874351
0.0851055
0.082892
0.0807844
0.0787647
0.0767949
0.0748352
0.0728631
0.0708851
0.0689022
0.0669075
0.0648347
0.0626192
0.0602162
0.0576103
0.0548259
0.051903
0.0488588
0.0457097
0.0424492
0.0390815
0.0356036
0.0320376
0.0283723
0.0246041
0.0207301
0.0167563
0.0127172
0.00864002
0.00454939
0.000514827
-0.00337257
-0.00703955
-0.0104971
-0.0137858
-0.0169471
-0.0200163
-0.0230212
-0.0259831
-0.0289181
-0.031838
-0.0347513
-0.0376638
-0.0405794
-0.0435004
-0.0464282
-0.0493632
-0.0523053
-0.0552541
-0.0582091
-0.0611695
-0.0641346
-0.0671035
-0.0700757
-0.0730503
-0.076027
-0.079005
-0.0819841
-0.0849639
-0.087944
-0.0909244
-0.0939048
-0.0968851
-0.0998654
-0.102846
-0.105826
-0.108806
0.219611
0.217658
0.215721
0.213808
0.211924
0.210078
0.208278
0.206532
0.204848
0.203224
0.201655
0.200138
0.198659
0.197212
0.195772
0.19432
0.192837
0.191302
0.189696
0.18799
0.186161
0.184162
0.181934
0.179468
0.176777
0.173902
0.170912
0.167902
0.164863
0.161753
0.158586
0.155407
0.152257
0.149158
0.146117
0.143108
0.140061
0.136923
0.133704
0.130454
0.127182
0.123884
0.120566
0.117225
0.113857
0.110476
0.107106
0.103786
0.10056
0.0974496
0.0944671
0.0916222
0.0889134
0.08634
0.0839126
0.0816341
0.0794896
0.0774504
0.0754645
0.0734929
0.0715121
0.0695652
0.0676538
0.0658241
0.0639594
0.0619153
0.0595916
0.0569067
0.053946
0.0508494
0.0476632
0.0444591
0.0412054
0.0378937
0.0344915
0.0311206
0.0276725
0.0241014
0.0203903
0.0165439
0.0125903
0.00853384
0.00429461
0.000153888
-0.00390787
-0.00766824
-0.0111444
-0.0144096
-0.0175277
-0.020546
-0.0234983
-0.0264091
-0.0292961
-0.0321722
-0.035046
-0.0379236
-0.0408086
-0.0437028
-0.0466072
-0.0495218
-0.052446
-0.0553791
-0.0583203
-0.0612684
-0.0642225
-0.0671817
-0.070145
-0.0731118
-0.0760812
-0.0790527
-0.0820257
-0.085
-0.087975
-0.0909506
-0.0939265
-0.0969025
-0.0998787
-0.102855
-0.105831
-0.108807