/*--------------------------------*- C++ -*----------------------------------*\
  =========                 |
  \\      /  F ield         | OpenFOAM: The Open Source CFD Toolbox
   \\    /   O peration     | Website:  https://openfoam.org
    \\  /    A nd           | Version:  6
     \\/     M anipulation  |
\*---------------------------------------------------------------------------*/
FoamFile
{
    version     2.0;
    format      ascii;
    class       volScalarField;
    location    "1950";
    object      T;
}
// * * * * * * * * * * * * * * * * * * * * * * * * * * * * * * * * * * * * * //

dimensions      [0 0 0 1 0 0 0];

internalField   nonuniform List<scalar> 
4800
(
552.49
552.371
552.252
552.134
552.017
551.903
551.791
551.681
551.574
551.471
551.372
551.276
551.185
551.098
551.016
550.938
550.865
550.797
550.734
550.675
550.619
550.566
550.516
550.467
550.418
550.37
550.321
550.271
550.221
550.17
550.117
550.063
550.009
549.954
549.9
549.845
549.79
549.735
549.68
549.626
549.571
549.517
549.462
549.408
549.354
549.298
549.242
549.185
549.127
549.068
549.007
548.945
548.881
548.813
548.742
548.666
548.586
548.499
548.407
548.307
548.2
548.085
547.962
547.83
547.689
547.541
547.387
547.227
547.064
546.898
546.732
546.566
546.402
546.239
546.078
545.919
545.762
545.607
545.455
545.305
545.158
545.016
544.879
544.746
544.617
544.492
544.369
544.248
544.129
544.01
543.893
543.777
543.66
543.545
543.429
543.314
543.199
543.084
542.969
542.854
542.74
542.626
542.512
542.398
542.284
542.171
542.058
541.945
541.833
541.72
541.608
541.496
541.384
541.273
541.161
541.05
540.939
540.828
540.717
540.605
552.49
552.37
552.252
552.134
552.018
551.904
551.792
551.682
551.576
551.473
551.373
551.277
551.186
551.099
551.016
550.938
550.865
550.797
550.734
550.675
550.619
550.567
550.516
550.467
550.418
550.369
550.32
550.27
550.219
550.167
550.114
550.06
550.005
549.95
549.895
549.84
549.785
549.729
549.674
549.619
549.565
549.51
549.455
549.401
549.346
549.29
549.234
549.177
549.119
549.06
549
548.937
548.873
548.805
548.734
548.659
548.579
548.493
548.4
548.301
548.195
548.081
547.959
547.828
547.689
547.542
547.389
547.23
547.068
546.903
546.737
546.571
546.406
546.243
546.081
545.921
545.763
545.607
545.453
545.301
545.153
545.011
544.874
544.741
544.613
544.488
544.366
544.245
544.127
544.009
543.892
543.775
543.659
543.544
543.428
543.313
543.198
543.083
542.969
542.854
542.74
542.625
542.511
542.398
542.284
542.171
542.058
541.945
541.832
541.72
541.608
541.496
541.384
541.273
541.161
541.05
540.939
540.828
540.716
540.605
552.49
552.371
552.252
552.135
552.019
551.905
551.793
551.684
551.578
551.475
551.375
551.279
551.187
551.099
551.016
550.938
550.866
550.798
550.735
550.676
550.621
550.568
550.517
550.467
550.418
550.369
550.319
550.268
550.216
550.163
550.109
550.054
549.999
549.943
549.887
549.831
549.775
549.719
549.663
549.607
549.552
549.496
549.441
549.386
549.331
549.275
549.218
549.161
549.104
549.045
548.984
548.922
548.858
548.79
548.719
548.645
548.565
548.48
548.388
548.29
548.185
548.073
547.952
547.823
547.686
547.542
547.391
547.234
547.073
546.908
546.743
546.577
546.411
546.246
546.083
545.92
545.759
545.599
545.442
545.289
545.141
544.999
544.863
544.732
544.605
544.481
544.36
544.24
544.122
544.005
543.889
543.773
543.657
543.542
543.427
543.312
543.197
543.082
542.967
542.853
542.739
542.625
542.511
542.397
542.284
542.17
542.057
541.945
541.832
541.72
541.607
541.496
541.384
541.272
541.161
541.05
540.938
540.827
540.716
540.605
552.49
552.372
552.254
552.137
552.021
551.907
551.795
551.687
551.581
551.478
551.378
551.282
551.189
551.101
551.018
550.94
550.867
550.8
550.738
550.68
550.624
550.571
550.52
550.469
550.419
550.368
550.317
550.265
550.211
550.157
550.102
550.046
549.989
549.932
549.875
549.818
549.761
549.703
549.647
549.59
549.533
549.477
549.42
549.364
549.309
549.252
549.196
549.139
549.081
549.022
548.961
548.899
548.835
548.768
548.698
548.624
548.545
548.461
548.371
548.274
548.17
548.059
547.94
547.813
547.679
547.537
547.389
547.234
547.074
546.911
546.747
546.581
546.414
546.246
546.08
545.914
545.749
545.587
545.428
545.273
545.122
544.98
544.846
544.717
544.592
544.471
544.351
544.233
544.116
544
543.884
543.769
543.654
543.539
543.424
543.309
543.195
543.08
542.966
542.852
542.737
542.623
542.51
542.396
542.283
542.169
542.057
541.944
541.831
541.719
541.607
541.495
541.383
541.272
541.161
541.049
540.938
540.827
540.716
540.605
552.491
552.372
552.255
552.138
552.023
551.909
551.798
551.689
551.583
551.48
551.381
551.284
551.191
551.103
551.02
550.943
550.872
550.806
550.744
550.686
550.63
550.577
550.524
550.471
550.419
550.367
550.314
550.261
550.206
550.15
550.094
550.036
549.978
549.92
549.861
549.802
549.743
549.684
549.626
549.567
549.51
549.452
549.394
549.337
549.28
549.223
549.166
549.109
549.051
548.991
548.931
548.869
548.805
548.739
548.669
548.596
548.519
548.436
548.347
548.252
548.15
548.04
547.923
547.799
547.667
547.528
547.382
547.229
547.073
546.912
546.748
546.581
546.413
546.243
546.073
545.903
545.733
545.566
545.403
545.246
545.094
544.953
544.822
544.697
544.576
544.457
544.34
544.224
544.109
543.994
543.879
543.764
543.65
543.535
543.421
543.307
543.192
543.078
542.964
542.85
542.736
542.622
542.508
542.395
542.281
542.168
542.056
541.943
541.831
541.718
541.606
541.495
541.383
541.272
541.16
541.049
540.938
540.827
540.716
540.605
552.491
552.373
552.256
552.14
552.024
551.911
551.8
551.691
551.585
551.482
551.382
551.286
551.194
551.107
551.025
550.95
550.88
550.815
550.753
550.695
550.639
550.584
550.529
550.475
550.421
550.366
550.312
550.256
550.2
550.143
550.085
550.026
549.967
549.906
549.845
549.784
549.723
549.662
549.602
549.541
549.481
549.422
549.363
549.304
549.246
549.188
549.13
549.072
549.013
548.954
548.894
548.832
548.768
548.703
548.634
548.562
548.486
548.404
548.317
548.224
548.124
548.016
547.901
547.779
547.65
547.514
547.371
547.222
547.068
546.909
546.745
546.578
546.408
546.237
546.064
545.889
545.716
545.543
545.374
545.211
545.054
544.916
544.791
544.672
544.555
544.441
544.327
544.213
544.1
543.986
543.872
543.759
543.645
543.531
543.417
543.303
543.189
543.075
542.961
542.847
542.734
542.62
542.506
542.393
542.28
542.167
542.054
541.942
541.83
541.717
541.606
541.494
541.382
541.271
541.16
541.049
540.938
540.827
540.716
540.605
552.491
552.374
552.257
552.141
552.026
551.913
551.802
551.693
551.587
551.484
551.384
551.288
551.197
551.112
551.033
550.959
550.891
550.827
550.766
550.707
550.65
550.593
550.536
550.48
550.423
550.366
550.309
550.252
550.195
550.136
550.077
550.016
549.954
549.892
549.829
549.765
549.702
549.638
549.575
549.512
549.45
549.388
549.327
549.266
549.207
549.148
549.089
549.029
548.97
548.911
548.85
548.789
548.725
548.66
548.592
548.521
548.446
548.366
548.281
548.19
548.092
547.986
547.874
547.755
547.628
547.495
547.355
547.209
547.057
546.9
546.737
546.571
546.401
546.229
546.055
545.879
545.701
545.521
545.34
545.163
544.995
544.866
544.752
544.643
544.533
544.423
544.313
544.201
544.09
543.978
543.865
543.752
543.639
543.526
543.413
543.299
543.186
543.072
542.958
542.845
542.731
542.618
542.504
542.391
542.278
542.165
542.053
541.941
541.828
541.716
541.605
541.493
541.382
541.27
541.159
541.048
540.938
540.827
540.716
540.605
552.491
552.375
552.258
552.142
552.028
551.915
551.804
551.695
551.589
551.486
551.387
551.292
551.204
551.121
551.045
550.973
550.906
550.843
550.782
550.723
550.664
550.606
550.547
550.488
550.429
550.37
550.31
550.251
550.191
550.131
550.069
550.007
549.943
549.878
549.812
549.746
549.679
549.613
549.546
549.48
549.415
549.351
549.288
549.225
549.164
549.103
549.042
548.982
548.922
548.862
548.801
548.74
548.677
548.612
548.545
548.474
548.401
548.322
548.239
548.15
548.054
547.951
547.842
547.725
547.602
547.471
547.334
547.191
547.041
546.886
546.725
546.559
546.389
546.217
546.042
545.864
545.682
545.494
545.299
545.098
544.898
544.801
544.71
544.612
544.51
544.405
544.298
544.189
544.079
543.969
543.857
543.746
543.633
543.521
543.408
543.295
543.182
543.068
542.955
542.842
542.728
542.615
542.502
542.389
542.276
542.164
542.051
541.939
541.827
541.715
541.604
541.492
541.381
541.27
541.159
541.048
540.937
540.827
540.716
540.605
552.492
552.376
552.26
552.144
552.03
551.918
551.807
551.699
551.593
551.491
551.393
551.301
551.215
551.135
551.061
550.991
550.926
550.863
550.802
550.742
550.682
550.622
550.561
550.5
550.439
550.377
550.316
550.254
550.191
550.129
550.065
550
549.934
549.866
549.797
549.727
549.657
549.587
549.517
549.448
549.379
549.312
549.246
549.181
549.117
549.054
548.992
548.931
548.87
548.809
548.748
548.686
548.624
548.559
548.492
548.423
548.35
548.273
548.192
548.105
548.011
547.912
547.805
547.691
547.57
547.443
547.308
547.167
547.02
546.866
546.707
546.543
546.374
546.201
546.025
545.845
545.659
545.466
545.261
545.025
544.696
544.729
544.672
544.586
544.49
544.388
544.284
544.177
544.069
543.96
543.849
543.738
543.627
543.515
543.403
543.29
543.177
543.064
542.951
542.838
542.725
542.612
542.499
542.387
542.274
542.162
542.049
541.937
541.826
541.714
541.602
541.491
541.38
541.269
541.158
541.047
540.937
540.826
540.716
540.605
552.492
552.377
552.262
552.147
552.033
551.922
551.812
551.704
551.6
551.499
551.403
551.313
551.23
551.153
551.081
551.014
550.95
550.888
550.827
550.765
550.704
550.642
550.58
550.518
550.454
550.39
550.326
550.261
550.196
550.131
550.064
549.997
549.927
549.856
549.784
549.711
549.637
549.562
549.488
549.415
549.343
549.272
549.202
549.134
549.068
549.003
548.94
548.877
548.815
548.753
548.691
548.629
548.567
548.503
548.436
548.368
548.296
548.22
548.14
548.055
547.964
547.867
547.763
547.652
547.534
547.409
547.277
547.138
546.993
546.842
546.685
546.522
546.354
546.181
546.005
545.824
545.638
545.445
545.245
545.039
544.838
544.748
544.662
544.571
544.474
544.374
544.271
544.166
544.059
543.951
543.841
543.731
543.62
543.509
543.397
543.285
543.172
543.06
542.947
542.834
542.722
542.609
542.496
542.384
542.272
542.159
542.047
541.936
541.824
541.712
541.601
541.49
541.379
541.268
541.157
541.047
540.936
540.826
540.716
540.605
552.493
552.379
552.264
552.151
552.038
551.927
551.819
551.713
551.61
551.511
551.418
551.331
551.25
551.176
551.106
551.04
550.977
550.915
550.854
550.792
550.729
550.667
550.604
550.54
550.475
550.408
550.341
550.274
550.206
550.137
550.068
549.997
549.925
549.85
549.774
549.696
549.617
549.539
549.46
549.382
549.306
549.231
549.158
549.087
549.018
548.951
548.885
548.821
548.757
548.695
548.632
548.57
548.507
548.443
548.377
548.309
548.238
548.164
548.085
548.002
547.913
547.818
547.717
547.608
547.493
547.37
547.241
547.105
546.963
546.814
546.658
546.497
546.331
546.159
545.982
545.801
545.616
545.426
545.235
545.05
544.883
544.761
544.658
544.559
544.461
544.361
544.259
544.155
544.049
543.942
543.833
543.724
543.613
543.502
543.391
543.279
543.167
543.055
542.943
542.83
542.718
542.605
542.493
542.381
542.269
542.157
542.045
541.934
541.822
541.711
541.6
541.489
541.378
541.267
541.157
541.046
540.936
540.826
540.715
540.605
552.493
552.38
552.267
552.155
552.044
551.935
551.829
551.725
551.624
551.528
551.437
551.353
551.275
551.202
551.135
551.07
551.008
550.946
550.885
550.822
550.76
550.697
550.632
550.567
550.5
550.431
550.362
550.291
550.22
550.148
550.076
550.002
549.925
549.847
549.766
549.684
549.6
549.517
549.434
549.352
549.271
549.192
549.115
549.041
548.968
548.898
548.83
548.764
548.699
548.635
548.572
548.509
548.446
548.382
548.316
548.248
548.177
548.104
548.027
547.945
547.858
547.765
547.666
547.56
547.448
547.328
547.201
547.068
546.928
546.781
546.628
546.469
546.304
546.134
545.958
545.777
545.592
545.403
545.217
545.039
544.881
544.755
544.647
544.548
544.45
544.35
544.249
544.145
544.04
543.933
543.825
543.716
543.607
543.496
543.385
543.274
543.162
543.05
542.938
542.826
542.714
542.602
542.49
542.378
542.266
542.154
542.043
541.931
541.82
541.709
541.598
541.487
541.377
541.266
541.156
541.046
540.935
540.825
540.715
540.605
552.494
552.382
552.27
552.16
552.051
551.944
551.839
551.738
551.64
551.547
551.459
551.378
551.302
551.232
551.166
551.103
551.041
550.98
550.918
550.856
550.793
550.73
550.665
550.598
550.529
550.459
550.387
550.314
550.239
550.164
550.087
550.009
549.928
549.846
549.76
549.674
549.586
549.498
549.41
549.324
549.239
549.156
549.075
548.996
548.92
548.846
548.775
548.707
548.641
548.575
548.511
548.448
548.384
548.319
548.253
548.185
548.115
548.042
547.966
547.886
547.801
547.71
547.613
547.509
547.399
547.282
547.158
547.027
546.889
546.745
546.594
546.438
546.275
546.107
545.932
545.751
545.565
545.376
545.187
545.006
544.846
544.728
544.629
544.534
544.438
544.34
544.24
544.137
544.032
543.926
543.818
543.709
543.6
543.489
543.379
543.268
543.156
543.045
542.933
542.821
542.71
542.598
542.486
542.374
542.263
542.152
542.04
541.929
541.818
541.707
541.597
541.486
541.376
541.265
541.155
541.045
540.935
540.825
540.715
540.605
552.495
552.385
552.275
552.167
552.06
551.955
551.853
551.755
551.66
551.57
551.485
551.406
551.333
551.265
551.2
551.138
551.077
551.016
550.955
550.893
550.83
550.766
550.7
550.632
550.562
550.49
550.416
550.34
550.262
550.182
550.1
550.017
549.933
549.846
549.757
549.666
549.574
549.482
549.39
549.3
549.21
549.123
549.038
548.955
548.875
548.798
548.724
548.653
548.584
548.517
548.451
548.387
548.322
548.257
548.19
548.122
548.052
547.979
547.904
547.825
547.741
547.652
547.557
547.456
547.348
547.233
547.111
546.983
546.848
546.706
546.558
546.404
546.244
546.078
545.905
545.725
545.539
545.348
545.152
544.953
544.765
544.683
544.606
544.521
544.429
544.332
544.232
544.129
544.025
543.918
543.811
543.702
543.593
543.483
543.372
543.262
543.15
543.039
542.928
542.817
542.705
542.594
542.482
542.371
542.26
542.149
542.038
541.927
541.816
541.705
541.595
541.484
541.374
541.264
541.154
541.044
540.934
540.824
540.715
540.605
552.496
552.388
552.281
552.175
552.071
551.969
551.87
551.774
551.682
551.595
551.513
551.437
551.366
551.3
551.237
551.175
551.115
551.055
550.993
550.931
550.868
550.804
550.738
550.67
550.599
550.525
550.449
550.369
550.287
550.203
550.117
550.029
549.939
549.848
549.756
549.661
549.566
549.47
549.374
549.28
549.186
549.094
549.005
548.918
548.834
548.754
548.676
548.602
548.53
548.461
548.393
548.327
548.261
548.195
548.128
548.059
547.989
547.917
547.842
547.763
547.68
547.593
547.499
547.4
547.295
547.182
547.063
546.938
546.805
546.667
546.521
546.37
546.212
546.048
545.878
545.701
545.519
545.33
545.132
544.903
544.577
544.634
544.59
544.514
544.424
544.327
544.226
544.123
544.018
543.911
543.803
543.695
543.586
543.476
543.366
543.255
543.144
543.034
542.923
542.812
542.7
542.589
542.478
542.367
542.256
542.146
542.035
541.924
541.814
541.703
541.593
541.483
541.373
541.263
541.153
541.043
540.934
540.824
540.714
540.605
552.497
552.392
552.287
552.184
552.083
551.984
551.888
551.796
551.707
551.623
551.544
551.471
551.402
551.338
551.276
551.215
551.155
551.095
551.034
550.972
550.909
550.845
550.779
550.71
550.638
550.563
550.483
550.401
550.315
550.226
550.135
550.043
549.948
549.853
549.757
549.66
549.562
549.463
549.364
549.266
549.168
549.072
548.978
548.887
548.798
548.714
548.632
548.555
548.481
548.408
548.338
548.269
548.202
548.134
548.066
547.997
547.926
547.854
547.779
547.701
547.619
547.533
547.442
547.344
547.241
547.131
547.015
546.892
546.762
546.626
546.484
546.336
546.182
546.021
545.854
545.682
545.507
545.329
545.147
544.957
544.766
544.686
544.608
544.52
544.425
544.325
544.223
544.118
544.012
543.905
543.797
543.688
543.578
543.469
543.359
543.249
543.138
543.028
542.917
542.806
542.696
542.585
542.474
542.364
542.253
542.142
542.032
541.922
541.811
541.701
541.591
541.481
541.371
541.262
541.152
541.043
540.933
540.824
540.714
540.605
552.499
552.396
552.294
552.194
552.096
552.001
551.908
551.819
551.734
551.653
551.577
551.506
551.439
551.377
551.316
551.256
551.197
551.137
551.076
551.015
550.952
550.888
550.822
550.752
550.679
550.602
550.52
550.434
550.345
550.252
550.157
550.059
549.96
549.861
549.762
549.662
549.562
549.461
549.359
549.257
549.156
549.056
548.958
548.862
548.769
548.679
548.594
548.512
548.434
548.359
548.286
548.215
548.145
548.075
548.006
547.936
547.865
547.792
547.717
547.64
547.559
547.474
547.384
547.289
547.188
547.081
546.967
546.847
546.72
546.588
546.449
546.305
546.155
545.998
545.837
545.672
545.506
545.339
545.172
545.004
544.843
544.735
544.634
544.533
544.431
544.326
544.221
544.114
544.006
543.898
543.79
543.68
543.571
543.461
543.352
543.242
543.132
543.021
542.911
542.801
542.691
542.58
542.47
542.36
542.249
542.139
542.029
541.919
541.809
541.699
541.589
541.48
541.37
541.261
541.151
541.042
540.932
540.823
540.714
540.605
552.5
552.401
552.303
552.206
552.111
552.019
551.93
551.844
551.762
551.685
551.612
551.543
551.479
551.418
551.358
551.299
551.24
551.181
551.121
551.06
550.998
550.933
550.866
550.796
550.722
550.643
550.559
550.47
550.377
550.28
550.181
550.079
549.976
549.873
549.77
549.668
549.567
549.464
549.36
549.256
549.151
549.047
548.944
548.843
548.745
548.651
548.561
548.474
548.392
548.314
548.238
548.164
548.091
548.019
547.948
547.877
547.805
547.732
547.657
547.58
547.5
547.417
547.329
547.235
547.137
547.032
546.921
546.805
546.682
546.553
546.418
546.277
546.131
545.98
545.826
545.668
545.511
545.354
545.198
545.044
544.9
544.775
544.659
544.547
544.438
544.328
544.219
544.11
544.001
543.892
543.782
543.673
543.563
543.454
543.344
543.235
543.125
543.015
542.905
542.795
542.685
542.575
542.466
542.356
542.246
542.136
542.026
541.916
541.807
541.697
541.587
541.478
541.369
541.259
541.15
541.041
540.932
540.823
540.714
540.605
552.502
552.406
552.312
552.219
552.128
552.039
551.954
551.871
551.793
551.718
551.648
551.582
551.519
551.46
551.401
551.343
551.285
551.226
551.167
551.106
551.044
550.979
550.912
550.841
550.765
550.683
550.596
550.505
550.409
550.309
550.206
550.101
549.994
549.888
549.782
549.679
549.576
549.473
549.368
549.261
549.152
549.044
548.936
548.831
548.728
548.628
548.533
548.441
548.355
548.272
548.193
548.115
548.04
547.966
547.892
547.82
547.747
547.674
547.599
547.523
547.444
547.361
547.275
547.184
547.088
546.987
546.879
546.766
546.647
546.522
546.391
546.255
546.114
545.968
545.82
545.67
545.519
545.368
545.219
545.073
544.934
544.803
544.679
544.56
544.444
544.33
544.217
544.105
543.995
543.884
543.774
543.665
543.555
543.446
543.336
543.227
543.118
543.008
542.899
542.79
542.68
542.571
542.461
542.352
542.242
542.133
542.023
541.914
541.804
541.695
541.586
541.476
541.367
541.258
541.149
541.04
540.931
540.822
540.713
540.604
552.504
552.412
552.322
552.232
552.145
552.06
551.978
551.9
551.824
551.753
551.685
551.621
551.561
551.502
551.445
551.388
551.331
551.273
551.214
551.153
551.091
551.025
550.957
550.884
550.806
550.723
550.633
550.539
550.44
550.338
550.232
550.124
550.014
549.905
549.797
549.692
549.588
549.484
549.378
549.269
549.158
549.046
548.934
548.824
548.716
548.611
548.51
548.413
548.321
548.234
548.15
548.069
547.991
547.914
547.839
547.764
547.691
547.617
547.543
547.467
547.389
547.309
547.225
547.137
547.044
546.945
546.842
546.733
546.618
546.497
546.37
546.239
546.103
545.964
545.822
545.678
545.533
545.388
545.243
545.1
544.96
544.825
544.695
544.569
544.448
544.33
544.214
544.1
543.987
543.876
543.765
543.656
543.546
543.437
543.328
543.219
543.11
543.002
542.893
542.784
542.675
542.566
542.457
542.347
542.238
542.129
542.02
541.911
541.802
541.693
541.584
541.475
541.366
541.257
541.148
541.039
540.931
540.822
540.713
540.604
552.506
552.419
552.332
552.247
552.164
552.083
552.005
551.929
551.857
551.789
551.724
551.662
551.603
551.546
551.49
551.433
551.377
551.319
551.26
551.2
551.137
551.071
551.001
550.926
550.846
550.759
550.667
550.57
550.469
550.365
550.257
550.146
550.034
549.921
549.812
549.705
549.601
549.497
549.39
549.279
549.165
549.05
548.935
548.821
548.709
548.599
548.491
548.389
548.29
548.198
548.11
548.025
547.944
547.864
547.787
547.711
547.636
547.562
547.489
547.414
547.338
547.26
547.178
547.093
547.003
546.909
546.809
546.704
546.594
546.478
546.357
546.231
546.1
545.966
545.83
545.691
545.551
545.409
545.266
545.124
544.982
544.841
544.706
544.575
544.449
544.327
544.208
544.092
543.978
543.866
543.755
543.646
543.536
543.428
543.319
543.211
543.103
542.994
542.886
542.778
542.669
542.561
542.452
542.343
542.235
542.126
542.017
541.908
541.799
541.691
541.582
541.473
541.364
541.256
541.147
541.039
540.93
540.821
540.713
540.604
552.508
552.425
552.343
552.262
552.183
552.106
552.031
551.959
551.89
551.824
551.762
551.702
551.644
551.589
551.533
551.478
551.422
551.365
551.306
551.245
551.182
551.114
551.042
550.964
550.88
550.79
550.695
550.595
550.493
550.387
550.278
550.166
550.051
549.937
549.826
549.719
549.615
549.509
549.401
549.288
549.171
549.054
548.936
548.819
548.703
548.588
548.476
548.367
548.263
548.164
548.071
547.983
547.898
547.815
547.736
547.658
547.583
547.509
547.437
547.363
547.289
547.213
547.134
547.052
546.966
546.876
546.781
546.68
546.575
546.464
546.348
546.227
546.102
545.973
545.841
545.706
545.568
545.428
545.285
545.141
544.996
544.85
544.713
544.577
544.447
544.321
544.199
544.082
543.967
543.854
543.744
543.634
543.526
543.418
543.31
543.202
543.095
542.987
542.88
542.772
542.664
542.556
542.448
542.339
542.231
542.123
542.014
541.906
541.797
541.689
541.58
541.472
541.363
541.255
541.146
541.038
540.929
540.821
540.713
540.604
552.511
552.432
552.354
552.277
552.202
552.128
552.057
551.988
551.922
551.859
551.799
551.741
551.685
551.63
551.576
551.521
551.466
551.409
551.35
551.289
551.224
551.155
551.08
550.999
550.911
550.817
550.718
550.615
550.511
550.403
550.293
550.179
550.064
549.949
549.838
549.731
549.626
549.518
549.407
549.292
549.174
549.054
548.935
548.815
548.696
548.578
548.461
548.347
548.237
548.133
548.034
547.941
547.852
547.767
547.685
547.606
547.531
547.457
547.385
547.313
547.241
547.167
547.092
547.014
546.933
546.847
546.756
546.66
546.558
546.451
546.339
546.223
546.102
545.977
545.848
545.716
545.58
545.441
545.299
545.154
545.007
544.861
544.716
544.575
544.44
544.31
544.187
544.068
543.953
543.841
543.73
543.622
543.514
543.407
543.3
543.193
543.087
542.98
542.873
542.766
542.658
542.551
542.443
542.335
542.227
542.119
542.011
541.903
541.795
541.687
541.578
541.47
541.362
541.254
541.145
541.037
540.929
540.821
540.712
540.604
552.513
552.438
552.364
552.291
552.22
552.149
552.081
552.016
551.952
551.892
551.833
551.777
551.722
551.668
551.615
551.561
551.506
551.45
551.391
551.33
551.264
551.193
551.116
551.031
550.938
550.839
550.735
550.63
550.523
550.413
550.3
550.185
550.07
549.956
549.845
549.738
549.63
549.52
549.406
549.289
549.17
549.05
548.93
548.809
548.688
548.567
548.447
548.328
548.214
548.105
548.001
547.903
547.81
547.721
547.637
547.556
547.48
547.406
547.335
547.264
547.192
547.121
547.049
546.976
546.901
546.821
546.733
546.639
546.538
546.431
546.321
546.206
546.088
545.966
545.84
545.711
545.578
545.441
545.301
545.157
545.011
544.863
544.715
544.569
544.428
544.295
544.169
544.05
543.935
543.824
543.715
543.608
543.501
543.395
543.29
543.184
543.078
542.972
542.866
542.76
542.653
542.546
542.439
542.332
542.224
542.116
542.009
541.901
541.793
541.685
541.577
541.469
541.361
541.253
541.144
541.036
540.928
540.82
540.712
540.604
552.514
552.444
552.373
552.304
552.235
552.169
552.103
552.04
551.979
551.92
551.863
551.808
551.754
551.702
551.65
551.597
551.543
551.488
551.43
551.368
551.301
551.229
551.148
551.059
550.961
550.857
550.749
550.64
550.529
550.417
550.302
550.186
550.072
549.96
549.849
549.74
549.63
549.516
549.399
549.281
549.163
549.043
548.923
548.802
548.679
548.557
548.435
548.314
548.198
548.085
547.977
547.874
547.775
547.682
547.594
547.511
547.433
547.359
547.287
547.215
547.144
547.073
547.004
546.937
546.869
546.795
546.71
546.613
546.505
546.392
546.276
546.16
546.042
545.921
545.798
545.676
545.552
545.423
545.289
545.149
545.006
544.858
544.704
544.555
544.408
544.272
544.146
544.027
543.914
543.805
543.698
543.592
543.488
543.383
543.279
543.175
543.07
542.965
542.86
542.754
542.648
542.542
542.435
542.328
542.221
542.114
542.006
541.899
541.791
541.683
541.575
541.467
541.359
541.252
541.144
541.036
540.928
540.82
540.712
540.604
552.516
552.448
552.38
552.313
552.247
552.183
552.119
552.058
551.999
551.941
551.886
551.832
551.78
551.729
551.679
551.627
551.575
551.521
551.464
551.403
551.337
551.263
551.178
551.084
550.982
550.874
550.762
550.651
550.537
550.421
550.304
550.189
550.076
549.964
549.854
549.743
549.63
549.515
549.396
549.276
549.158
549.039
548.92
548.799
548.676
548.553
548.431
548.312
548.195
548.081
547.97
547.863
547.76
547.66
547.567
547.48
547.4
547.323
547.248
547.175
547.101
547.031
546.963
546.897
546.839
546.766
546.686
546.573
546.449
546.317
546.186
546.06
545.939
545.815
545.692
545.59
545.489
545.379
545.257
545.126
544.987
544.839
544.662
544.528
544.377
544.239
544.115
543.999
543.889
543.783
543.679
543.576
543.473
543.371
543.268
543.165
543.062
542.958
542.854
542.749
542.643
542.537
542.431
542.325
542.218
542.111
542.004
541.896
541.789
541.681
541.574
541.466
541.358
541.251
541.143
541.035
540.927
540.82
540.712
540.604
552.517
552.45
552.384
552.318
552.253
552.19
552.128
552.067
552.009
551.954
551.9
551.849
551.799
551.75
551.701
551.652
551.602
551.551
551.497
551.438
551.372
551.295
551.207
551.109
551.005
550.895
550.784
550.671
550.555
550.439
550.324
550.21
550.096
549.983
549.87
549.755
549.645
549.548
549.43
549.307
549.188
549.071
548.953
548.829
548.701
548.579
548.462
548.347
548.234
548.122
548.009
547.9
547.792
547.684
547.583
547.488
547.403
547.324
547.241
547.164
547.087
547.026
546.963
546.873
546.832
546.727
546.67
546.51
546.37
546.197
546.04
545.886
545.761
545.621
545.502
545.439
545.382
545.312
545.206
545.093
544.957
544.807
544.666
544.492
544.328
544.194
544.075
543.965
543.861
543.758
543.658
543.558
543.458
543.358
543.257
543.156
543.054
542.951
542.848
542.744
542.639
542.533
542.428
542.322
542.215
542.109
542.002
541.895
541.787
541.68
541.573
541.465
541.358
541.25
541.142
541.035
540.927
540.819
540.712
540.604
552.516
552.449
552.382
552.316
552.251
552.187
552.125
552.066
552.01
551.958
551.908
551.859
551.812
551.765
551.719
551.673
551.628
551.581
551.53
551.473
551.407
551.33
551.239
551.141
551.043
550.937
550.827
550.716
550.604
550.512
550.403
550.289
550.172
550.056
549.93
549.809
549.717
549.738
549.63
549.493
549.374
549.262
549.147
549.008
548.86
548.736
548.629
548.521
548.409
548.297
548.176
548.065
547.959
547.834
547.718
547.612
547.527
547.451
547.332
547.255
547.163
547.154
547.051
546.898
546.781
546.6
546.529
546.379
546.185
546.034
545.779
545.59
545.437
545.318
545.389
545.35
545.174
545.077
544.992
544.977
544.874
544.746
544.657
544.392
544.245
544.133
544.027
543.927
543.829
543.732
543.636
543.54
543.443
543.346
543.247
543.148
543.047
542.945
542.842
542.739
542.635
542.53
542.425
542.319
542.213
542.107
542
541.893
541.786
541.679
541.572
541.464
541.357
541.249
541.142
541.034
540.927
540.819
540.711
540.604
552.515
552.445
552.376
552.306
552.238
552.173
552.114
552.059
552.007
551.959
551.913
551.868
551.822
551.777
551.74
551.704
551.667
551.626
551.577
551.519
551.453
551.399
551.311
551.228
551.157
551.058
550.943
550.831
550.73
550.773
550.686
550.562
550.431
550.32
550.152
549.991
549.895
549.833
549.695
549.55
549.424
549.308
549.2
549.071
548.928
548.817
548.718
548.611
548.495
548.368
548.237
548.16
548.069
547.959
547.817
547.708
547.621
547.482
547.355
547.233
547.077
547.082
547.023
546.838
546.704
546.515
546.264
546.256
546.086
545.909
545.785
545.604
545.466
545.323
545.256
545.248
545.181
545.137
545.06
544.993
544.849
544.68
544.642
544.24
544.162
544.067
543.974
543.885
543.795
543.705
543.613
543.522
543.429
543.334
543.238
543.14
543.04
542.94
542.838
542.735
542.632
542.527
542.422
542.317
542.211
542.105
541.998
541.892
541.785
541.678
541.571
541.463
541.356
541.249
541.141
541.034
540.926
540.819
540.711
540.604
552.512
552.437
552.362
552.288
552.219
552.158
552.111
552.062
552.015
551.974
551.927
551.874
551.825
551.793
551.809
551.797
551.781
551.748
551.684
551.606
551.55
551.64
551.595
551.559
551.568
551.447
551.284
551.134
550.955
550.858
550.761
550.647
550.51
550.367
550.154
549.973
549.894
549.85
549.745
549.619
549.47
549.377
549.309
549.207
549.071
548.962
548.838
548.709
548.551
548.363
548.256
548.237
548.147
548.032
547.838
547.759
547.767
547.556
547.373
547.192
546.992
546.963
546.926
546.862
546.772
546.576
546.407
546.311
546.138
545.994
545.841
545.695
545.561
545.409
545.28
545.226
545.179
545.135
545.066
544.979
544.856
544.694
544.555
544.188
544.116
543.997
543.917
543.842
543.763
543.678
543.591
543.505
543.416
543.324
543.23
543.134
543.035
542.936
542.834
542.732
542.629
542.525
542.42
542.315
542.21
542.104
541.997
541.891
541.784
541.677
541.57
541.463
541.356
541.248
541.141
541.034
540.926
540.819
540.711
540.604
552.507
552.424
552.344
552.269
552.222
552.182
552.183
552.123
552.068
552.035
551.953
551.85
551.8
551.84
552.124
552.174
552.213
552.193
552.03
551.829
551.725
551.661
551.639
551.648
551.669
551.529
551.414
551.265
551.014
550.812
550.705
550.606
550.507
550.298
550.063
549.936
549.962
550.001
549.861
549.727
549.487
549.429
549.392
549.312
549.174
549.074
548.877
548.797
548.563
548.381
548.292
548.264
548.115
547.972
547.764
547.681
547.646
547.487
547.34
547.181
546.982
546.915
546.865
546.783
546.729
546.594
546.45
546.346
546.204
546.076
545.93
545.772
545.622
545.481
545.348
545.252
545.18
545.114
545.047
544.96
544.836
544.574
544.35
544.108
544.032
543.952
543.865
543.803
543.735
543.652
543.57
543.489
543.405
543.316
543.224
543.129
543.032
542.933
542.832
542.73
542.627
542.523
542.419
542.314
542.209
542.103
541.997
541.89
541.783
541.677
541.57
541.463
541.355
541.248
541.141
541.033