/*--------------------------------*- C++ -*----------------------------------*\
  =========                 |
  \\      /  F ield         | OpenFOAM: The Open Source CFD Toolbox
   \\    /   O peration     | Website:  https://openfoam.org
    \\  /    A nd           | Version:  6
     \\/     M anipulation  |
\*---------------------------------------------------------------------------*/
FoamFile
{
    version     2.0;
    format      ascii;
    class       surfaceScalarField;
    location    "2500";
    object      phi;
}
// * * * * * * * * * * * * * * * * * * * * * * * * * * * * * * * * * * * * * //

dimensions      [0 3 -1 0 0 0 0];

internalField   nonuniform List<scalar> 
9440
(
-5.23367e-10
5.23367e-10
-4.04863e-11
-4.82881e-10
2.09314e-09
-2.13363e-09
2.15517e-09
-6.20276e-11
3.63182e-09
-1.47666e-09
5.28048e-09
-1.64865e-09
6.16079e-09
-8.80309e-10
6.56406e-09
-4.03278e-10
6.82579e-09
-2.61729e-10
6.74251e-09
8.32813e-11
6.53183e-09
2.10678e-10
6.58044e-09
-4.86041e-11
6.69637e-09
-1.15928e-10
6.77903e-09
-8.26651e-11
6.82302e-09
-4.3992e-11
6.83763e-09
-1.46078e-11
6.8425e-09
-4.87356e-12
6.82381e-09
1.86985e-11
6.83669e-09
-1.28809e-11
6.76372e-09
7.29649e-11
6.80697e-09
-4.32472e-11
6.88899e-09
-8.20196e-11
6.86356e-09
2.54306e-11
7.00321e-09
-1.39651e-10
7.19534e-09
-1.92126e-10
7.39354e-09
-1.98207e-10
7.67152e-09
-2.77977e-10
7.8434e-09
-1.71883e-10
7.97773e-09
-1.34329e-10
8.1035e-09
-1.25762e-10
8.20624e-09
-1.02745e-10
8.3162e-09
-1.0996e-10
8.43925e-09
-1.23047e-10
8.59221e-09
-1.52955e-10
8.70794e-09
-1.15729e-10
8.72558e-09
-1.76429e-11
8.7324e-09
-6.82016e-12
8.69556e-09
3.68437e-11
8.67872e-09
1.68437e-11
8.6481e-09
3.06191e-11
8.57951e-09
6.85888e-11
8.46508e-09
1.14436e-10
8.20714e-09
2.57939e-10
7.98532e-09
2.21818e-10
7.57814e-09
4.07181e-10
7.29634e-09
2.81799e-10
6.87955e-09
4.16792e-10
6.52316e-09
3.56398e-10
6.1449e-09
3.78259e-10
5.72988e-09
4.15018e-10
5.38974e-09
3.40145e-10
5.01939e-09
3.70353e-10
4.72192e-09
2.97467e-10
4.42403e-09
2.9789e-10
4.07117e-09
3.52862e-10
3.55544e-09
5.15735e-10
3.13552e-09
4.19919e-10
2.91277e-09
2.2275e-10
2.56824e-09
3.44529e-10
2.38235e-09
1.85898e-10
2.1855e-09
1.96853e-10
2.05484e-09
1.30656e-10
1.9951e-09
5.9747e-11
1.96516e-09
2.99409e-11
1.95907e-09
6.08402e-12
1.9291e-09
2.99728e-11
1.87413e-09
5.49712e-11
1.80067e-09
7.34547e-11
1.75805e-09
4.26263e-11
1.73264e-09
2.54092e-11
1.71184e-09
2.07979e-11
1.58423e-09
1.27609e-10
1.60201e-09
-1.77726e-11
1.36573e-09
2.36277e-10
1.30968e-09
5.6053e-11
1.04115e-09
2.6853e-10
1.02336e-09
1.77813e-11
6.69487e-10
3.53876e-10
6.77844e-10
-8.35796e-12
3.14916e-10
3.62927e-10
1.59428e-10
1.55487e-10
4.45909e-16
1.59427e-10
-1.04233e-17
4.87535e-19
-1.04042e-17
-1.91179e-20
-1.01592e-17
-2.45699e-19
-9.76316e-18
-3.96748e-19
-9.24803e-18
-5.1585e-19
-8.63604e-18
-6.1269e-19
-7.94755e-18
-6.89159e-19
-7.20198e-18
-7.46185e-19
-6.4181e-18
-7.84459e-19
-5.61375e-18
-8.04855e-19
-4.80563e-18
-8.08583e-19
-4.00888e-18
-7.97151e-19
-3.2369e-18
-7.72308e-19
-2.50119e-18
-7.35966e-19
-1.81125e-18
-6.90126e-19
-1.17454e-18
-6.36802e-19
-5.96612e-19
-5.77951e-19
-8.11419e-20
-5.15412e-19
3.6985e-19
-4.50867e-19
7.55831e-19
-3.858e-19
1.07754e-18
-3.21485e-19
1.33678e-18
-2.58977e-19
1.53618e-18
-1.99119e-19
1.67903e-18
-1.42555e-19
1.76908e-18
-8.97487e-20
1.81039e-18
-4.1006e-20
1.80719e-18
3.49898e-21
1.76377e-18
4.37005e-20
1.68442e-18
7.96176e-20
1.57334e-18
1.11332e-19
1.43461e-18
1.38969e-19
1.27216e-18
1.62678e-19
1.08975e-18
1.82619e-19
8.90997e-19
1.98953e-19
6.79363e-19
2.11826e-19
4.58182e-19
2.21366e-19
2.30683e-19
2.27679e-19
2.3086e-19
5.11083e-10
1.2283e-11
2.21893e-09
-2.19072e-09
2.71967e-09
-2.63437e-09
4.82787e-09
-2.17023e-09
4.97768e-09
-1.62647e-09
5.2483e-09
-1.91928e-09
5.53624e-09
-1.16825e-09
5.93061e-09
-7.97646e-10
6.29243e-09
-6.23553e-10
6.65476e-09
-2.7904e-10
7.06801e-09
-2.02572e-10
7.18234e-09
-1.62935e-10
7.09663e-09
-3.02261e-11
7.03282e-09
-1.88535e-11
7.00281e-09
-1.39767e-11
6.97402e-09
1.418e-11
6.9274e-09
4.17449e-11
6.87198e-09
7.41234e-11
6.71225e-09
1.46842e-10
6.66476e-09
1.20456e-10
6.64581e-09
-2.42892e-11
6.68644e-09
-1.22648e-10
6.85981e-09
-1.47948e-10
7.03118e-09
-3.11015e-10
7.09019e-09
-2.51137e-10
7.09717e-09
-2.05184e-10
7.06821e-09
-2.49018e-10
7.14026e-09
-2.43929e-10
7.2249e-09
-2.18974e-10
7.30557e-09
-2.06424e-10
7.42849e-09
-2.25665e-10
7.51325e-09
-1.94722e-10
7.67994e-09
-2.89729e-10
7.84178e-09
-3.14802e-10
7.93753e-09
-2.11473e-10
7.98864e-09
-6.87482e-11
7.98119e-09
6.31357e-13
7.98385e-09
3.41768e-11
7.98193e-09
1.87648e-11
8.02702e-09
-1.44656e-11
8.08703e-09
8.57926e-12
8.00085e-09
2.00625e-10
7.93873e-09
3.20054e-10
7.66842e-09
4.92129e-10
7.52325e-09
5.52361e-10
7.03439e-09
7.70663e-10
6.8247e-09
6.26481e-10
6.28266e-09
8.98439e-10
5.99354e-09
6.67384e-10
5.5858e-09
8.22755e-10
5.27603e-09
6.49917e-10
4.93383e-09
7.12555e-10
4.58578e-09
6.45528e-10
4.45871e-09
4.24954e-10
4.22792e-09
5.8366e-10
4.07992e-09
6.63739e-10
3.77165e-09
7.2819e-10
3.2263e-09
7.68096e-10
2.95066e-09
6.20178e-10
2.72946e-09
4.07097e-10
2.58592e-09
3.40393e-10
2.47028e-09
2.46302e-10
2.27205e-09
2.5798e-10
2.08683e-09
2.15161e-10
2.02509e-09
6.78244e-11
1.94874e-09
1.06317e-10
1.90767e-09
9.60428e-11
1.85748e-09
1.2365e-10
1.78687e-09
1.13236e-10
1.6923e-09
1.1998e-10
1.62726e-09
8.58399e-11
1.59987e-09
1.54999e-10
1.46242e-09
1.19669e-10
1.43493e-09
2.63766e-10
1.23567e-09
2.55319e-10
1.19025e-09
3.13944e-10
9.0158e-10
3.06453e-10
8.72108e-10
3.83348e-10
5.41683e-10
3.22065e-10
4.52644e-10
4.51965e-10
1.34311e-10
4.73819e-10
3.33864e-16
2.93736e-10
-1.09291e-17
-3.13365e-19
-1.063e-17
-3.18827e-19
-1.03095e-17
-5.67453e-19
-9.88163e-18
-8.25952e-19
-9.34429e-18
-1.05444e-18
-8.71237e-18
-1.24579e-18
-8.00457e-18
-1.39806e-18
-7.24026e-18
-1.51151e-18
-6.43849e-18
-1.58715e-18
-5.61748e-18
-1.62668e-18
-4.7942e-18
-1.63257e-18
-3.98403e-18
-1.6079e-18
-3.20056e-18
-1.55624e-18
-2.45535e-18
-1.48149e-18
-1.75792e-18
-1.38774e-18
-1.11569e-18
-1.27908e-18
-5.34074e-19
-1.15949e-18
-1.65964e-20
-1.03269e-18
4.34917e-19
-9.02085e-19
8.20146e-19
-7.70655e-19
1.14005e-18
-6.40954e-19
1.39664e-18
-5.15085e-19
1.59274e-18
-3.9472e-19
1.73184e-18
-2.81128e-19
1.81782e-18
-1.75213e-19
1.85489e-18
-7.75612e-20
1.84739e-18
1.15038e-20
1.79969e-18
9.18764e-20
1.71614e-18
1.63618e-19
1.60098e-18
2.26912e-19
1.45832e-18
2.82025e-19
1.2921e-18
3.29275e-19
1.10608e-18
3.68993e-19
9.0387e-19
4.01509e-19
6.88903e-19
4.27123e-19
4.64496e-19
4.46096e-19
2.33863e-19
4.5863e-19
4.64862e-19
6.07e-10
-5.94717e-10
2.74787e-09
-4.33159e-09
3.13955e-09
-3.02605e-09
4.01965e-09
-3.05034e-09
4.44544e-09
-2.05225e-09
4.86917e-09
-2.34301e-09
5.03626e-09
-1.33534e-09
5.26928e-09
-1.03067e-09
5.41012e-09
-7.64389e-10
5.74336e-09
-6.1228e-10
6.03283e-09
-4.92045e-10
6.22227e-09
-3.52372e-10
6.36103e-09
-1.68986e-10
6.41311e-09
-7.09315e-11
6.39151e-09
7.62391e-12
6.3606e-09
4.50847e-11
6.32679e-09
7.55576e-11
6.27388e-09
1.27036e-10
6.25723e-09
1.63491e-10
6.25651e-09
1.21174e-10
6.1716e-09
6.06258e-11
6.05011e-09
-1.16073e-12
5.9716e-09
-6.94409e-11
5.8173e-09
-1.56716e-10
5.79713e-09
-2.3096e-10
5.85388e-09
-2.6194e-10
5.91101e-09
-3.06142e-10
6.01242e-09
-3.45344e-10
6.17746e-09
-3.84009e-10
6.34386e-09
-3.72824e-10
6.51595e-09
-3.97756e-10
6.63257e-09
-3.1134e-10
6.77548e-09
-4.32636e-10
6.83073e-09
-3.70053e-10
6.85838e-09
-2.39116e-10
6.96568e-09
-1.76043e-10
7.06609e-09
-9.97777e-11
7.12773e-09
-2.74654e-11
7.13727e-09
9.22652e-12
7.1149e-09
7.90564e-12
7.20685e-09
-8.33724e-11
7.1739e-09
2.33576e-10
7.10694e-09
3.8702e-10
6.95996e-09
6.39108e-10
6.80136e-09
7.10967e-10
6.53752e-09
1.0345e-09
6.22157e-09
9.42435e-10
5.92967e-09
1.19034e-09
5.57527e-09
1.02179e-09
5.32322e-09
1.07481e-09
5.0387e-09
9.34434e-10
4.84492e-09
9.06342e-10
4.6179e-09
8.72545e-10
4.33248e-09
7.10381e-10
4.14733e-09
7.68813e-10
3.94164e-09
8.69422e-10
3.64079e-09
1.02905e-09
3.39109e-09
1.01779e-09
3.13599e-09
8.75278e-10
2.89841e-09
6.44685e-10
2.65135e-09
5.87454e-10
2.52251e-09
3.75144e-10
2.34734e-09
4.33148e-10
2.27196e-09
2.90537e-10
2.13665e-09
2.03139e-10
1.98237e-09
2.60597e-10
1.88776e-09
1.9066e-10
1.82616e-09
1.85248e-10
1.75525e-09
1.84146e-10
1.70765e-09
1.67578e-10
1.62093e-09
1.72556e-10
1.56859e-09
2.07345e-10
1.43043e-09
2.57831e-10
1.32434e-09
3.69855e-10
1.23249e-09
3.47165e-10
1.14057e-09
4.05865e-10
9.7313e-10
4.7389e-10
8.29665e-10
5.26812e-10
5.70642e-10
5.81087e-10
4.23704e-10
5.98903e-10
2.57811e-10
6.39711e-10
3.3194e-16
5.51546e-10
-1.09337e-17
4.15397e-19
-1.08779e-17
-3.75191e-19
-1.05673e-17
-8.79117e-19
-1.01095e-17
-1.28495e-18
-9.53507e-18
-1.62999e-18
-8.86453e-18
-1.9174e-18
-8.11803e-18
-2.14555e-18
-7.31589e-18
-2.31457e-18
-6.47802e-18
-2.42586e-18
-5.62337e-18
-2.48209e-18
-4.76953e-18
-2.48708e-18
-3.93237e-18
-2.44563e-18
-3.12581e-18
-2.36327e-18
-2.3616e-18
-2.24606e-18
-1.64926e-18
-2.10032e-18
-9.961e-19
-1.93237e-18
-4.07279e-19
-1.74833e-18
1.1401e-19
-1.5539e-18
5.66346e-19
-1.35426e-18
9.49848e-19
-1.15392e-18
1.26592e-18
-9.56718e-19
1.517e-18
-7.65809e-19
1.70634e-18
-5.83661e-19
1.83775e-18
-4.12127e-19
1.91548e-18
-2.52505e-19
1.94396e-18
-1.05614e-19
1.92776e-18
2.81256e-20
1.87143e-18
1.48615e-19
1.77943e-18
2.56002e-19
1.65609e-18
3.50613e-19
1.50557e-18
4.32893e-19
1.33182e-18
5.03353e-19
1.1386e-18
5.62523e-19
9.29484e-19
6.10922e-19
7.07875e-19
6.4902e-19
4.7703e-19
6.7722e-19
2.40096e-19
6.9584e-19
7.05093e-19
1.40912e-09
-2.00384e-09
1.38435e-09
-4.30682e-09
2.75901e-09
-4.40071e-09
3.57607e-09
-3.8674e-09
3.85257e-09
-2.32875e-09
3.79177e-09
-2.2822e-09
3.92256e-09
-1.46614e-09
4.11726e-09
-1.22536e-09
4.31028e-09
-9.57411e-10
4.59445e-09
-8.96457e-10
4.74168e-09
-6.39266e-10
4.86599e-09
-4.76688e-10
4.94683e-09
-2.49826e-10
4.9853e-09
-1.09405e-10
5.01047e-09
-1.75391e-11
5.029e-09
2.65522e-11
5.08618e-09
1.83776e-11
5.04853e-09
1.64682e-10
5.05041e-09
1.61614e-10
5.05343e-09
1.18157e-10
4.99307e-09
1.20985e-10
4.93801e-09
5.39041e-11
4.93191e-09
-6.33411e-11
4.86442e-09
-8.92276e-11
4.85873e-09
-2.25276e-10
4.92387e-09
-3.27075e-10
5.01416e-09
-3.96436e-10
5.12657e-09
-4.5775e-10
5.28374e-09
-5.41177e-10
5.44605e-09
-5.35134e-10
5.58932e-09
-5.41027e-10
5.76907e-09
-4.91084e-10
5.92584e-09
-5.89411e-10
5.98565e-09
-4.29859e-10
6.06448e-09
-3.17942e-10
6.1533e-09
-2.64863e-10
6.2536e-09
-2.00071e-10
6.36227e-09
-1.36137e-10
6.37816e-09
-6.6652e-12
6.31994e-09
6.61286e-11
6.30615e-09
-6.95823e-11
6.23043e-09
3.09299e-10
6.0991e-09
5.18352e-10
6.04226e-09
6.9595e-10
5.91014e-09
8.43088e-10
5.78474e-09
1.1599e-09
5.52273e-09
1.20444e-09
5.37917e-09
1.3339e-09
5.14424e-09
1.25672e-09
5.00119e-09
1.21786e-09
4.7761e-09
1.15953e-09
4.60022e-09
1.08223e-09
4.42211e-09
1.05065e-09
4.21351e-09
9.18984e-10
3.98694e-09
9.95382e-10
3.76951e-09
1.08686e-09
3.51624e-09
1.28232e-09
3.30839e-09
1.22565e-09
3.08294e-09
1.10073e-09
2.84835e-09
8.79273e-10
2.68812e-09
7.47689e-10
2.45369e-09
6.09575e-10
2.35045e-09
5.36387e-10
2.16109e-09
4.79905e-10
2.04618e-09
3.18042e-10
2.04035e-09
2.66435e-10
1.88978e-09
3.41225e-10
1.84539e-09
2.29639e-10
1.77942e-09
2.50115e-10
1.68701e-09
2.59986e-10
1.53103e-09
3.28535e-10
1.5442e-09
1.94181e-10
1.42469e-09
3.7734e-10
1.30991e-09
4.84636e-10
1.16485e-09
4.92222e-10
1.02007e-09
5.50644e-10
8.21405e-10
6.72553e-10
5.66037e-10
7.82179e-10
3.85218e-10
7.61905e-10
2.59806e-10
7.24314e-10
1.41005e-10
7.58511e-10
3.39062e-16
6.92549e-10
-1.17233e-17
2.05748e-19
-1.1381e-17
-7.18059e-19
-1.09725e-17
-1.28876e-18
-1.04539e-17
-1.80466e-18
-9.82197e-18
-2.2631e-18
-9.0926e-18
-2.64786e-18
-8.28705e-18
-2.95213e-18
-7.42718e-18
-3.1754e-18
-6.53425e-18
-3.31967e-18
-5.62837e-18
-3.38877e-18
-4.72807e-18
-3.38809e-18
-3.85001e-18
-3.32432e-18
-3.0086e-18
-3.20522e-18
-2.21586e-18
-3.03924e-18
-1.48132e-18
-2.8352e-18
-8.12059e-19
-2.60186e-18
-2.12853e-19
-2.34767e-18
3.13656e-19
-2.08045e-18
7.66687e-19
-1.80723e-18
1.14704e-18
-1.53414e-18
1.45683e-18
-1.26629e-18
1.69915e-18
-1.00785e-18
1.87787e-18
-7.62054e-19
1.99738e-18
-5.31267e-19
2.06237e-18
-3.17108e-19
2.0777e-18
-1.20548e-19
2.04825e-18
5.79719e-20
1.97881e-18
2.18436e-19
1.87404e-18
3.61147e-19
1.73837e-18
4.86634e-19
1.57603e-18
5.95572e-19
1.39099e-18
6.88711e-19
1.187e-18
7.66818e-19
9.67582e-19
8.30629e-19
7.36075e-19
8.80808e-19
4.95649e-19
9.17921e-19
2.49349e-19
9.42409e-19
9.54576e-19
1.6917e-09
-3.69554e-09
2.43652e-09
-5.05164e-09
2.57411e-09
-4.53831e-09
2.35859e-09
-3.65188e-09
2.69131e-09
-2.66148e-09
2.58575e-09
-2.17664e-09
2.7508e-09
-1.63119e-09
3.01829e-09
-1.49285e-09
3.25658e-09
-1.19571e-09
3.42232e-09
-1.0622e-09
3.61685e-09
-8.33795e-10
3.76776e-09
-6.27592e-10
3.80535e-09
-2.87417e-10
3.83123e-09
-1.35281e-10
3.8382e-09
-2.4518e-11
3.75233e-09
1.12422e-10
3.84097e-09
-7.02616e-11
3.71617e-09
2.89488e-10
3.76197e-09
1.15815e-10
3.83105e-09
4.90776e-11
3.86289e-09
8.91437e-11
3.94242e-09
-2.56319e-11
4.02622e-09
-1.47139e-10
4.06839e-09
-1.31393e-10
4.10184e-09
-2.58724e-10
4.16861e-09
-3.93849e-10
4.26293e-09
-4.90752e-10
4.39156e-09
-5.86381e-10
4.48537e-09
-6.34989e-10
4.59357e-09
-6.43331e-10
4.69065e-09
-6.38107e-10
4.85544e-09
-6.55868e-10
4.93914e-09
-6.7311e-10
4.99864e-09
-4.89358e-10
5.06937e-09
-3.88669e-10
5.13455e-09
-3.30043e-10
5.18439e-09
-2.4991e-10
5.2527e-09
-2.04443e-10
5.30505e-09
-5.90181e-11
5.31601e-09
5.51692e-11
5.18659e-09
5.98362e-11
5.19621e-09
2.99689e-10
5.14034e-09
5.74216e-10
5.09196e-09
7.44339e-10
5.01172e-09
9.23325e-10
4.96442e-09
1.20721e-09
4.85123e-09
1.31764e-09
4.81446e-09
1.37067e-09
4.70553e-09
1.36566e-09
4.58311e-09
1.34028e-09
4.43242e-09
1.31022e-09
4.30786e-09
1.20678e-09
4.1649e-09
1.19361e-09
3.96995e-09
1.11394e-09
3.78177e-09
1.18356e-09
3.51225e-09
1.35638e-09
3.31714e-09
1.47743e-09
3.13568e-09
1.40711e-09
2.97059e-09
1.26582e-09
2.80003e-09
1.04984e-09
2.58072e-09
9.66996e-10
2.43125e-09
7.59054e-10
2.25538e-09
7.12249e-10
2.13063e-09
6.04662e-10
2.06522e-09
3.83452e-10
2.07077e-09
2.60881e-10
1.96725e-09
4.44751e-10
1.84243e-09
3.54462e-10
1.75511e-09
3.3743e-10
1.65167e-09
3.6342e-10
1.60953e-09
3.70679e-10
1.50599e-09
2.97717e-10
1.32955e-09
5.53786e-10
1.23613e-09
5.78055e-10
1.1285e-09
5.99849e-10
9.83185e-10
6.95958e-10
8.38295e-10
8.17442e-10
7.0288e-10
9.17593e-10
5.17097e-10
9.47686e-10
2.08983e-10
1.03243e-09
5.42295e-11
9.13264e-10
3.50678e-16
7.46778e-10
-1.2646e-17
-3.05842e-18
-1.19508e-17
-1.41384e-18
-1.14877e-17
-1.7531e-18
-1.09118e-17
-2.38173e-18
-1.02063e-17
-2.96982e-18
-9.39684e-18
-3.45845e-18
-8.51032e-18
-3.83973e-18
-7.57145e-18
-4.11528e-18
-6.60336e-18
-4.28871e-18
-5.62768e-18
-4.36532e-18
-4.6643e-18
-4.35226e-18
-3.73091e-18
-4.25843e-18
-2.84263e-18
-4.09413e-18
-2.01181e-18
-3.8706e-18
-1.24798e-18
-3.59948e-18
-5.57867e-19
-3.29233e-18
5.43659e-20
-2.96016e-18
5.86871e-19
-2.61312e-18
1.03979e-18
-2.26022e-18
1.41489e-18
-1.90922e-18
1.71526e-18
-1.56655e-18
1.94495e-18
-1.23735e-18
2.10866e-18
-9.25514e-19
2.21153e-18
-6.33841e-19
2.25893e-18
-3.64159e-19
2.25622e-18
-1.1748e-19
2.20871e-18
1.05848e-19
2.12153e-18
3.05991e-19
1.99953e-18
4.83502e-19
1.84731e-18
6.39193e-19
1.66917e-18
7.74042e-19
1.4691e-18
8.89095e-19
1.25081e-18
9.85405e-19
1.01776e-18
1.06396e-18
7.73188e-19
1.12566e-18
5.20137e-19
1.17124e-18
2.61516e-19
1.2013e-18
1.21622e-18
1.26312e-09
-4.95866e-09
1.25659e-09
-5.04511e-09
1.74878e-09
-5.0305e-09
1.81496e-09
-3.71806e-09
1.98349e-09
-2.83001e-09
2.12389e-09
-2.31704e-09
2.2366e-09
-1.74389e-09
2.39098e-09
-1.64723e-09
2.56471e-09
-1.36944e-09
2.58501e-09
-1.08249e-09
2.52927e-09
-7.78057e-10
2.48345e-09
-5.81769e-10
2.49785e-09
-3.01819e-10
2.56187e-09
-1.99304e-10
2.62137e-09
-8.40202e-11
2.74808e-09
-1.42845e-11
2.88815e-09
-2.10333e-10
3.00513e-09
1.72508e-10
3.12941e-09
-8.46024e-12
3.22557e-09
-4.70896e-11
3.30552e-09
9.20234e-12
3.32787e-09
-4.79838e-11
3.31812e-09
-1.37394e-10
3.3767e-09
-1.89973e-10
3.39485e-09
-2.76867e-10
3.43077e-09
-4.29769e-10
3.4846e-09
-5.44582e-10
3.51328e-09
-6.15062e-10
3.56761e-09
-6.89321e-10
3.65017e-09
-7.25882e-10
3.72118e-09
-7.09125e-10
3.78962e-09
-7.24303e-10
3.80181e-09
-6.85293e-10
3.85719e-09
-5.44737e-10
3.93841e-09
-4.69895e-10
4.03641e-09
-4.28034e-10
4.11833e-09
-3.31834e-10
4.13785e-09
-2.23958e-10
4.17349e-09
-9.46578e-11
4.21215e-09
1.65099e-11
4.19381e-09
7.81777e-11
4.22007e-09
2.73432e-10
4.23757e-09
5.56715e-10
4.22004e-09
7.61871e-10
4.17549e-09
9.67874e-10
4.19783e-09
1.18488e-09
4.21875e-09
1.29672e-09
4.24477e-09
1.34465e-09
4.21915e-09
1.39127e-09
4.16863e-09
1.39081e-09
4.0892e-09
1.38965e-09
3.95012e-09
1.34586e-09
3.81836e-09
1.32538e-09
3.64958e-09
1.28272e-09
3.45303e-09
1.38011e-09
3.23492e-09
1.57449e-09
3.06495e-09
1.6474e-09
2.92993e-09
1.54213e-09
2.80217e-09
1.39359e-09
2.6585e-09
1.19351e-09
2.53358e-09
1.09192e-09
2.32144e-09
9.71192e-10
2.19602e-09
8.37664e-10
2.12814e-09
6.72546e-10
2.02801e-09
4.83586e-10
1.94102e-09
3.47871e-10
1.85295e-09
5.32816e-10
1.79403e-09
4.13385e-10
1.70742e-09
4.24042e-10
1.57109e-09
4.99748e-10
1.59017e-09
3.51594e-10
1.40939e-09
4.78496e-10
1.28401e-09
6.79168e-10
1.18716e-09
6.74905e-10
1.13361e-09
6.53399e-10
1.03795e-09
7.91619e-10
9.77981e-10
8.77406e-10
9.54376e-10
9.41197e-10
8.4724e-10
1.05482e-09
6.85306e-10
1.19436e-09
4.53187e-10
1.14538e-09
3.68423e-16
1.19996e-09
-1.10005e-17
4.07274e-18
-1.22892e-17
-1.25693e-19
-1.21156e-17
-1.92795e-18
-1.14994e-17
-2.99927e-18
-1.06946e-17
-3.77587e-18
-9.77812e-18
-4.37615e-18
-8.78587e-18
-4.83313e-18
-7.74488e-18
-5.15736e-18
-6.67997e-18
-5.35464e-18
-5.61462e-18
-5.43161e-18
-4.57047e-18
-5.39729e-18
-3.56661e-18
-5.2631e-18
-2.61909e-18
-5.04237e-18
-1.7407e-18
-4.74964e-18
-9.40829e-19
-4.39991e-18
-2.257e-19
-4.00793e-18
4.01409e-19
-3.58765e-18
9.39769e-19
-3.15177e-18
1.39079e-18
-2.71143e-18
1.75756e-18
-2.2761e-18
2.04447e-18
-1.85347e-18
2.25678e-18
-1.44958e-18
2.40033e-18
-1.0689e-18
2.48122e-18
-7.14497e-19
2.50561e-18
-3.88265e-19
2.47955e-18
-9.11033e-20
2.40886e-18
1.76875e-19
2.29904e-18
4.16156e-19
2.15522e-18
6.27658e-19
1.98216e-18
8.12584e-19
1.78422e-18
9.72297e-19
1.56541e-18
1.10822e-18
1.32937e-18
1.22174e-18
1.07946e-18
1.31416e-18
8.18772e-19
1.38662e-18
5.50192e-19
1.44009e-18
2.76442e-19
1.47531e-18
1.4928e-18
8.60226e-10
-5.81888e-09
1.6696e-09
-5.85448e-09
1.58441e-09
-4.94531e-09
1.52058e-09
-3.65423e-09
1.45965e-09
-2.76908e-09
1.45441e-09
-2.3118e-09
1.68494e-09
-1.97443e-09
1.86398e-09
-1.82627e-09
1.96095e-09
-1.46641e-09
1.95339e-09
-1.07494e-09
1.88648e-09
-7.11146e-10
1.80944e-09
-5.04727e-10
1.8817e-09
-3.74087e-10
1.96723e-09
-2.84827e-10
2.11026e-09
-2.27053e-10
2.37348e-09
-2.77502e-10
2.45609e-09
-2.92948e-10
2.7396e-09
-1.11001e-10
2.79557e-09
-6.44261e-11
2.80302e-09
-5.45459e-11
2.83392e-09
-2.16951e-11
2.77724e-09
8.69723e-12
2.73405e-09
-9.42014e-11
2.75521e-09
-2.11134e-10
2.75044e-09
-2.72101e-10
2.74548e-09
-4.24802e-10
2.75235e-09
-5.5145e-10
2.73183e-09
-5.94544e-10
2.71753e-09
-6.75023e-10
2.74305e-09
-7.51404e-10
2.78932e-09
-7.55386e-10
2.78522e-09
-7.20205e-10
2.7677e-09
-6.67776e-10
2.78718e-09
-5.64213e-10
2.83679e-09
-5.19504e-10
2.90693e-09
-4.98168e-10
2.99499e-09
-4.19902e-10
3.08859e-09
-3.17553e-10
3.18936e-09
-1.95423e-10
3.27562e-09
-6.97562e-11
3.31157e-09
4.22377e-11
3.36675e-09
2.18254e-10
3.4448e-09
4.78659e-10
3.54938e-09
6.57296e-10
3.62511e-09
8.92148e-10
3.69542e-09
1.11456e-09
3.75322e-09
1.23893e-09
3.77105e-09
1.32682e-09
3.7525e-09
1.40983e-09
3.71245e-09
1.43086e-09
3.65108e-09
1.45102e-09
3.53782e-09
1.45912e-09
3.43122e-09
1.43198e-09
3.27048e-09
1.44346e-09
3.03076e-09
1.61983e-09
2.85319e-09
1.75207e-09
2.74136e-09
1.75923e-09
2.6649e-09
1.61859e-09
2.57297e-09
1.48552e-09
2.43971e-09
1.32676e-09
2.30598e-09
1.22565e-09
2.20109e-09
1.07609e-09
2.10788e-09
9.30874e-10
2.09004e-09
6.90383e-10
1.99039e-09
5.83235e-10
1.84719e-09
4.9107e-10
1.81501e-09
5.64995e-10
1.75838e-09
4.70015e-10
1.63761e-09
5.44819e-10
1.55715e-09
5.802e-10
1.49759e-09
4.11151e-10
1.27163e-09
7.04464e-10
1.15129e-09
7.99506e-10
1.09701e-09
7.29178e-10
9.47217e-10
8.03194e-10
7.08092e-10
1.03074e-09
4.61882e-10
1.12361e-09
1.14494e-10
1.28858e-09
-2.64248e-10
1.43356e-09
-4.78382e-10
1.40849e-09
-3.84315e-10
1.05131e-09
3.53037e-16
8.15647e-10
-1.51976e-17
2.17024e-18
-1.40906e-17
-1.23328e-18
-1.31863e-17
-2.83351e-18
-1.22755e-17
-3.91143e-18
-1.12947e-17
-4.75809e-18
-1.02351e-17
-5.43704e-18
-9.11011e-18
-5.95938e-18
-7.94215e-18
-6.32652e-18
-6.75694e-18
-6.54098e-18
-5.5803e-18
-6.6093e-18
-4.43628e-18
-6.5423e-18
-3.34588e-18
-6.35442e-18
-2.32637e-18
-6.06273e-18
-1.39096e-18
-5.68581e-18
-5.48847e-19
-5.2427e-18
1.9458e-19
-4.75194e-18
8.37292e-19
-4.23085e-18
1.3801e-18
-3.69498e-18
1.82612e-18
-3.15776e-18
2.18018e-18
-2.63038e-18
2.44836e-18
-2.12177e-18
2.63747e-18
-1.63872e-18
2.75473e-18
-1.1861e-18
2.80745e-18
-7.67066e-19
2.80277e-18
-3.83369e-19
2.74753e-18
-3.55969e-20
2.64814e-18
2.76559e-19
2.51054e-18
5.5407e-19
2.34015e-18
7.98369e-19
2.14187e-18
1.01117e-18
1.92014e-18
1.19433e-18
1.67893e-18
1.34973e-18
1.42178e-18
1.47917e-18
1.15192e-18
1.5843e-18
8.72242e-19
1.66657e-18
5.85416e-19
1.72718e-18
2.93924e-19
1.76706e-18
1.78685e-18
5.07667e-10
-6.32655e-09
7.31323e-10
-6.07814e-09
1.01088e-09
-5.22487e-09
9.64769e-10
-3.60811e-09
1.06766e-09
-2.87197e-09
1.30249e-09
-2.54663e-09
1.37044e-09
-2.04238e-09
1.42661e-09
-1.88244e-09
1.56219e-09
-1.60199e-09
1.60086e-09
-1.11361e-09
1.57662e-09
-6.86905e-10
1.65623e-09
-5.84339e-10
1.77516e-09
-4.93009e-10
1.90928e-09
-4.18947e-10
2.04915e-09
-3.66925e-10
2.22234e-09
-4.50698e-10
2.34057e-09
-4.11172e-10
2.4405e-09
-2.10928e-10
2.45753e-09
-8.14605e-11
2.43811e-09
-3.51208e-11
2.45427e-09
-3.78607e-11
2.36347e-09
9.94998e-11
2.32208e-09
-5.28101e-11
2.2928e-09
-1.81853e-10
2.30948e-09
-2.88784e-10
2.31869e-09
-4.34009e-10
2.28914e-09
-5.21902e-10
2.2472e-09
-5.52603e-10
2.19063e-09
-6.18446e-10
2.10338e-09
-6.64156e-10
2.03013e-09
-6.82136e-10
1.98194e-09
-6.72011e-10
1.93951e-09
-6.25346e-10
1.94387e-09
-5.68576e-10
1.97793e-09
-5.53557e-10
2.02587e-09
-5.46111e-10
2.10659e-09
-5.00619e-10
2.24692e-09
-4.57885e-10
2.40171e-09
-3.50209e-10
2.53844e-09
-2.06481e-10
2.64036e-09
-5.96789e-11
2.74725e-09
1.11361e-10
2.90385e-09
3.22064e-10
2.98847e-09
5.72677e-10
3.06219e-09
8.18425e-10
3.14326e-09
1.0335e-09
3.20776e-09
1.17442e-09
3.22506e-09
1.30953e-09
3.2176e-09
1.41729e-09
3.18853e-09
1.45993e-09
3.1391e-09
1.50045e-09
3.08733e-09
1.5109e-09
2.99412e-09
1.52519e-09
2.80599e-09
1.63159e-09
2.61403e-09
1.8118e-09
2.53876e-09
1.82734e-09
2.52495e-09
1.77304e-09
2.47431e-09
1.66923e-09
2.39361e-09
1.56622e-09
2.2778e-09
1.44258e-09
2.1952e-09
1.30825e-09
2.1333e-09
1.13799e-09
2.07164e-09
9.92532e-10
1.92096e-09
8.41068e-10
1.93265e-09
5.71545e-10
1.82471e-09
5.99008e-10
1.83953e-09
5.50178e-10
1.7012e-09
6.08347e-10
1.54085e-09
7.05165e-10
1.46503e-09
6.56021e-10
1.23296e-09
6.43212e-10
1.0913e-09
8.46129e-10
1.10743e-09
7.83375e-10
9.82248e-10
8.54356e-10
7.68678e-10
1.01676e-09
6.01883e-10
1.19754e-09
4.06923e-10
1.31857e-09
1.87172e-10
1.50833e-09
-1.40963e-10
1.76169e-09
-8.94877e-10
2.1624e-09
-6.99735e-10
8.5617e-10
2.48683e-16
1.15911e-10
-1.85997e-17
-7.30442e-18
-1.569e-17
-4.14363e-18
-1.42637e-17
-4.26129e-18
-1.31218e-17
-5.05486e-18
-1.19735e-17
-5.90799e-18
-1.07574e-17
-6.65455e-18
-9.47725e-18
-7.24101e-18
-8.15661e-18
-7.64853e-18
-6.82525e-18
-7.87362e-18
-5.5133e-18
-7.92246e-18
-4.24841e-18
-7.80833e-18
-3.05419e-18
-7.54969e-18
-1.94945e-18
-7.16845e-18
-9.47848e-19
-6.6883e-18
-5.80882e-20
-6.13325e-18
7.15669e-19
-5.52638e-18
1.37316e-18
-4.88894e-18
1.91732e-18
-4.23963e-18
2.3535e-18
-3.59435e-18
2.6888e-18
-2.96599e-18
2.9314e-18
-2.3646e-18
3.09009e-18
-1.79754e-18
3.17376e-18
-1.2698e-18
3.19115e-18
-7.84388e-19
3.15054e-18
-3.42623e-19
3.05968e-18
5.54666e-20
2.92565e-18
4.10841e-19
2.75484e-18
7.25162e-19
2.55295e-18
1.00055e-18
2.32504e-18
1.23938e-18
2.07554e-18
1.44412e-18
1.80836e-18
1.6172e-18
1.52691e-18
1.7609e-18
1.23419e-18
1.87729e-18
9.32856e-19
1.96816e-18
6.253e-19
2.035e-18
3.13707e-19
2.07891e-18
2.10068e-18
3.98509e-10
-6.72506e-09
9.12736e-10
-6.59236e-09
8.6404e-10
-5.17617e-09
7.88046e-10
-3.53212e-09
7.03906e-10
-2.78783e-09
8.2035e-10
-2.66307e-09
1.08724e-09
-2.30927e-09
1.17486e-09
-1.97006e-09
1.29921e-09
-1.72634e-09
1.41878e-09
-1.23319e-09
1.49017e-09
-7.58286e-10
1.59123e-09
-6.85407e-10
1.68998e-09
-5.91755e-10
1.84833e-09
-5.77298e-10
1.94917e-09
-4.67767e-10
2.0816e-09
-5.83121e-10
2.09865e-09
-4.2823e-10
2.16651e-09
-2.78784e-10
2.20279e-09
-1.17737e-10
2.17123e-09
-3.56381e-12
2.1469e-09
-1.35329e-11
2.13476e-09
1.1164e-10
2.11171e-09
-2.9757e-11
2.10538e-09
-1.7552e-10
2.13222e-09
-3.15626e-10
2.12465e-09
-4.26433e-10
2.0774e-09
-4.74656e-10
2.03366e-09
-5.08865e-10
1.94025e-09
-5.25028e-10
1.81136e-09
-5.35274e-10
1.67107e-09
-5.41842e-10
1.54291e-09
-5.43846e-10
1.46894e-09
-5.51378e-10
1.42409e-09
-5.23728e-10
1.4143e-09
-5.43759e-10
1.42002e-09
-5.51836e-10
1.48898e-09
-5.69571e-10
1.58024e-09
-5.49146e-10
1.74245e-09
-5.12414e-10
1.91962e-09
-3.8365e-10
2.08488e-09
-2.24939e-10
2.22605e-09
-2.98048e-11
2.34673e-09
2.01386e-10
2.38222e-09
5.37186e-10
2.47274e-09
7.27903e-10
2.58402e-09
9.22225e-10
2.66759e-09
1.09085e-09
2.69479e-09
1.28233e-09
2.71261e-09
1.39946e-09
2.71286e-09
1.45968e-09
2.68139e-09
1.53192e-09
2.54173e-09
1.65056e-09
2.32801e-09
1.73891e-09
2.15144e-09
1.80816e-09
2.12418e-09
1.83906e-09
2.15057e-09
1.80096e-09
2.15903e-09
1.76458e-09
2.11402e-09
1.71424e-09
2.09294e-09
1.5873e-09
2.03307e-09
1.50245e-09
2.0097e-09
1.33162e-09
2.01398e-09
1.1337e-09
1.98847e-09
1.01804e-09
2.02096e-09
8.0858e-10
2.0097e-09
5.828e-10
1.86366e-09
7.45054e-10
1.7166e-09
6.97231e-10
1.53638e-09
7.88571e-10
1.39178e-09
8.49764e-10
1.25991e-09
7.87893e-10
1.09405e-09
8.09064e-10
1.06425e-09
8.75927e-10
9.17861e-10
9.29767e-10
7.25593e-10
1.04662e-09
6.14201e-10
1.12815e-09
5.11234e-10
1.3005e-09
3.81718e-10
1.44809e-09
1.83847e-10
1.7062e-09
-1.46388e-10
2.09193e-09
-2.67032e-10
2.28305e-09
-1.15907e-10
7.05043e-10
-9.81474e-18
2.92266e-15
-1.5438e-17
-1.68127e-18
-1.58072e-17
-3.77519e-18
-1.5057e-17
-5.01325e-18
-1.39747e-17
-6.13887e-18
-1.272e-17
-7.16453e-18
-1.13439e-17
-8.03233e-18
-9.88477e-18
-8.7018e-18
-8.38169e-18
-9.15318e-18
-6.87409e-18
-9.3827e-18
-5.39917e-18
-9.39879e-18
-3.98977e-18
-9.21905e-18
-2.67295e-18
-8.86773e-18
-1.4693e-18
-8.37323e-18
-3.92798e-19
-7.76582e-18
5.48773e-19
-7.07573e-18
1.35311e-18
-6.33153e-18
2.02247e-18
-5.55899e-18
2.56261e-18
-4.78037e-18
2.98186e-18
-4.0141e-18
3.29019e-18
-3.27474e-18
3.49847e-18
-2.5732e-18
3.61782e-18
-1.91712e-18
3.65918e-18
-1.31128e-18
3.63291e-18
-7.58147e-19
3.54863e-18
-2.58278e-19
3.41506e-18
1.89181e-19
3.23997e-18
5.86125e-19
3.03022e-18
9.35147e-19
2.79178e-18
1.23926e-18
2.52978e-18
1.50166e-18
2.24862e-18
1.72556e-18
1.95206e-18
1.91403e-18
1.6433e-18
2.06993e-18
1.32506e-18
2.19579e-18
9.99688e-19
2.2938e-18
6.69218e-19
2.36572e-18
3.35473e-19
2.41291e-18
2.43627e-18
5.52007e-10
-7.27707e-09
5.53607e-10
-6.59396e-09
5.9926e-10
-5.22182e-09
6.56257e-10
-3.58912e-09
6.85941e-10
-2.81751e-09
6.52395e-10
-2.62953e-09
7.92079e-10
-2.44895e-09
9.14436e-10
-2.09242e-09
9.84891e-10
-1.7968e-09
1.20021e-09
-1.4485e-09
1.37274e-09
-9.30824e-10
1.48527e-09
-7.9793e-10
1.60922e-09
-7.15714e-10
1.69749e-09
-6.65563e-10
1.73311e-09
-5.03384e-10
1.81565e-09
-6.6566e-10
1.83482e-09
-4.474e-10
1.92807e-09
-3.72041e-10
1.9396e-09
-1.29266e-10
1.94381e-09
-7.76991e-12
1.91343e-09
1.68441e-11
1.96986e-09
5.52087e-11
1.99284e-09
-5.27306e-11
2.03655e-09
-2.19235e-10
2.06183e-09
-3.40907e-10
2.04285e-09
-4.07445e-10
2.00104e-09
-4.32849e-10
1.93669e-09
-4.44514e-10
1.83022e-09
-4.1856e-10
1.70906e-09
-4.14109e-10
1.57536e-09
-4.0814e-10
1.44544e-09
-4.13926e-10
1.33221e-09
-4.38151e-10
1.23654e-09
-4.28061e-10
1.16856e-09
-4.75776e-10
1.11747e-09
-5.00741e-10
1.0836e-09
-5.35705e-10
1.07288e-09
-5.3842e-10
1.0833e-09
-5.22836e-10
1.16932e-09
-4.69662e-10
1.28624e-09
-3.41865e-10
1.42905e-09
-1.7261e-10
1.56805e-09
6.23902e-11
1.72261e-09
3.8262e-10
1.81424e-09
6.36275e-10
1.90215e-09
8.34323e-10
1.93722e-09
1.05578e-09
2.00367e-09
1.21588e-09
2.01842e-09
1.38471e-09
2.02439e-09
1.45371e-09
1.99505e-09
1.56127e-09
1.9838e-09
1.66181e-09
1.95337e-09
1.76934e-09
1.91187e-09
1.84966e-09
1.91996e-09
1.83098e-09
1.93124e-09
1.78967e-09
1.91307e-09
1.78275e-09
1.88376e-09
1.74355e-09
1.86912e-09
1.60195e-09
1.8934e-09
1.47817e-09
1.86116e-09
1.36386e-09
1.91101e-09
1.08385e-09
1.91913e-09
1.00992e-09
1.94104e-09
7.86673e-10
1.75443e-09
7.69411e-10
1.66007e-09
8.39407e-10
1.51624e-09
8.41062e-10
1.3154e-09
9.89411e-10
1.19347e-09
9.71697e-10
1.15001e-09
8.31351e-10
1.04769e-09
9.11378e-10
8.95424e-10
1.02819e-09
7.62472e-10
1.06272e-09
6.34254e-10
1.17484e-09
4.73469e-10
1.28894e-09
3.046e-10
1.46937e-09
4.71979e-11
1.70549e-09
-2.10019e-10
1.96342e-09
-1.50666e-10
2.03257e-09
1.8542e-11
2.11384e-09
-2.25273e-15
7.23586e-10
-1.83389e-17
-1.227e-18
-1.75324e-17
-2.4878e-18
-1.70453e-17
-4.26419e-18
-1.61825e-17
-5.87808e-18
-1.50003e-17
-7.32311e-18
-1.35878e-17
-8.57915e-18
-1.20134e-17
-9.6087e-18
-1.03361e-17
-1.03809e-17
-8.61122e-18
-1.08799e-17
-6.89018e-18
-1.11055e-17
-5.21943e-18
-1.10712e-17
-3.63845e-18
-1.08016e-17
-2.17845e-18
-1.03292e-17
-8.61893e-19
-9.69109e-18
2.97291e-19
-8.9262e-18
1.29298e-18
-8.07249e-18
2.12566e-18
-7.16515e-18
2.80108e-18
-6.23523e-18
3.32888e-18
-5.30886e-18
3.72122e-18
-4.40703e-18
3.99173e-18
-3.54575e-18
4.15455e-18
-2.73644e-18
4.22366e-18
-1.98654e-18
4.21232e-18
-1.30016e-18
4.13278e-18
-6.7872e-19
3.99609e-18
-1.21598e-19
3.812e-18
3.73344e-19
3.58899e-18
8.09275e-19
3.33434e-18
1.19e-18
3.05418e-18
1.51965e-18
2.75367e-18
1.80241e-18
2.43709e-18
2.04239e-18
2.10796e-18
2.24342e-18
1.76917e-18
2.40898e-18
1.42307e-18
2.54214e-18
1.07161e-18
2.64551e-18
7.16408e-19
2.72117e-18
3.58839e-19
2.77072e-18
2.79523e-18
2.64997e-10
-7.54206e-09
4.37772e-10
-6.76674e-09
4.21774e-10
-5.20583e-09
4.25175e-10