/*--------------------------------*- C++ -*----------------------------------*\
  =========                 |
  \\      /  F ield         | OpenFOAM: The Open Source CFD Toolbox
   \\    /   O peration     | Website:  https://openfoam.org
    \\  /    A nd           | Version:  6
     \\/     M anipulation  |
\*---------------------------------------------------------------------------*/
FoamFile
{
    version     2.0;
    format      ascii;
    class       volScalarField;
    location    "3200";
    object      dmdt;
}
// * * * * * * * * * * * * * * * * * * * * * * * * * * * * * * * * * * * * * //

dimensions      [0 0 0 0 0 0 0];

internalField   nonuniform List<scalar> 
4800
(
-0.219643
-0.217776
-0.215986
-0.214284
-0.212661
-0.211107
-0.209605
-0.208155
-0.206745
-0.205361
-0.203985
-0.202624
-0.201277
-0.199944
-0.198622
-0.197309
-0.196
-0.194692
-0.193385
-0.19208
-0.190778
-0.189477
-0.188177
-0.186877
-0.185574
-0.184269
-0.18296
-0.181646
-0.18033
-0.179011
-0.177692
-0.176374
-0.17506
-0.173749
-0.172445
-0.171148
-0.16986
-0.168583
-0.167318
-0.16607
-0.16484
-0.163633
-0.162452
-0.161299
-0.160175
-0.159084
-0.158026
-0.156998
-0.155998
-0.155024
-0.154069
-0.15313
-0.152199
-0.151272
-0.150341
-0.149396
-0.148428
-0.147422
-0.146362
-0.145227
-0.143987
-0.142609
-0.141052
-0.139264
-0.137187
-0.134753
-0.13189
-0.128522
-0.124585
-0.120019
-0.114762
-0.10876
-0.102034
-0.0947105
-0.086879
-0.0785977
-0.0699306
-0.0609854
-0.0518778
-0.0426937
-0.0334794
-0.0242272
-0.0148846
-0.00497268
-0.00484844
-0.00412362
-0.00316228
-0.0019208
-0.000372243
0.00149439
0.00367596
0.00615774
0.00891606
0.011921
0.015139
0.0185353
0.0220757
0.0257281
0.0294638
0.0332577
0.0370891
0.040941
0.0448005
0.0486577
0.0525056
0.0563398
0.0601574
0.0639571
0.0677385
0.0715021
0.0752489
0.0789802
0.0826973
0.0864021
0.0900961
0.093781
0.0974585
0.10113
0.104798
0.108463
-0.219632
-0.217743
-0.215921
-0.214178
-0.212504
-0.210895
-0.209338
-0.207835
-0.20638
-0.204968
-0.203572
-0.202193
-0.200834
-0.19949
-0.198157
-0.196831
-0.195511
-0.194196
-0.192884
-0.191574
-0.190269
-0.188968
-0.187668
-0.186369
-0.185068
-0.183764
-0.182456
-0.181145
-0.179831
-0.178515
-0.177199
-0.175884
-0.174571
-0.173261
-0.171958
-0.170661
-0.169372
-0.168094
-0.166829
-0.16558
-0.16435
-0.163143
-0.161963
-0.160811
-0.159689
-0.1586
-0.157546
-0.156523
-0.15553
-0.154563
-0.153618
-0.152688
-0.151769
-0.150853
-0.149932
-0.148998
-0.14804
-0.147042
-0.14599
-0.144862
-0.143629
-0.142257
-0.140707
-0.138928
-0.136862
-0.134443
-0.1316
-0.128267
-0.12437
-0.119873
-0.114744
-0.108933
-0.102424
-0.0952372
-0.0874144
-0.0790487
-0.0703042
-0.0613295
-0.052205
-0.0429883
-0.0337242
-0.0244045
-0.0149919
-0.0050137
-0.00489997
-0.00417712
-0.0032129
-0.00196439
-0.000406088
0.00147148
0.00366393
0.00615569
0.00892258
0.0119345
0.0151579
0.018558
0.0221009
0.0257547
0.0294909
0.0332847
0.0371153
0.0409662
0.0448243
0.04868
0.0525264
0.0563589
0.0601748
0.0639729
0.0677528
0.0715149
0.0752603
0.0789901
0.082706
0.0864095
0.0901022
0.093786
0.0974623
0.101133
0.1048
0.108464
-0.219605
-0.217656
-0.21575
-0.213904
-0.212124
-0.210414
-0.208762
-0.207166
-0.205635
-0.204167
-0.20273
-0.201313
-0.199923
-0.198557
-0.197203
-0.195862
-0.194529
-0.193203
-0.191883
-0.190567
-0.189257
-0.187953
-0.186653
-0.185355
-0.184059
-0.182759
-0.181455
-0.180148
-0.178836
-0.177523
-0.176209
-0.174896
-0.173585
-0.172277
-0.170974
-0.169678
-0.16839
-0.167112
-0.165847
-0.164598
-0.163368
-0.162163
-0.160987
-0.15984
-0.158724
-0.157642
-0.156597
-0.155587
-0.154609
-0.153659
-0.152731
-0.151821
-0.150922
-0.150025
-0.149126
-0.148211
-0.147272
-0.146293
-0.145258
-0.144145
-0.142925
-0.141567
-0.140028
-0.138267
-0.136222
-0.133836
-0.131037
-0.127764
-0.123959
-0.119583
-0.114611
-0.108988
-0.102657
-0.0955735
-0.0878029
-0.0795002
-0.0708232
-0.0618852
-0.0527629
-0.0435162
-0.034181
-0.0247486
-0.0152111
-0.00509453
-0.00500453
-0.00428581
-0.00331473
-0.00205059
-0.000471379
0.00142904
0.00364375
0.00615554
0.00893935
0.0119648
0.0151984
0.0186057
0.0221531
0.0258093
0.0295461
0.0333392
0.0371682
0.0410167
0.0448719
0.0487245
0.0525676
0.0563968
0.0602095
0.0640044
0.0677812
0.0715403
0.0752828
0.0790099
0.0827232
0.0864242
0.0901145
0.0937959
0.09747
0.101138
0.104803
0.108465
-0.219555
-0.217493
-0.215453
-0.213452
-0.211512
-0.209647
-0.207866
-0.20615
-0.204518
-0.202969
-0.201472
-0.200004
-0.198564
-0.197163
-0.195782
-0.19442
-0.193073
-0.191738
-0.190411
-0.189092
-0.187781
-0.186479
-0.185181
-0.183886
-0.182594
-0.181299
-0.18
-0.178695
-0.177386
-0.176074
-0.174761
-0.173449
-0.172139
-0.170833
-0.169532
-0.168237
-0.166952
-0.165676
-0.164413
-0.163167
-0.16194
-0.16074
-0.15957
-0.158433
-0.157328
-0.156261
-0.155233
-0.154244
-0.153291
-0.152365
-0.151461
-0.150578
-0.149706
-0.148837
-0.147967
-0.147082
-0.146168
-0.145214
-0.144206
-0.143119
-0.141921
-0.140586
-0.139061
-0.137326
-0.135308
-0.132962
-0.130226
-0.127042
-0.123367
-0.119132
-0.114295
-0.108821
-0.102636
-0.095715
-0.0881178
-0.0799753
-0.0714249
-0.0625568
-0.053454
-0.0441855
-0.034776
-0.0252287
-0.01554
-0.00521894
-0.00517199
-0.00446101
-0.00347741
-0.00218619
-0.000572211
0.00136498
0.00361457
0.00615707
0.00896641
0.0120119
0.0152605
0.0186781
0.022232
0.0258915
0.029629
0.0334208
0.0372471
0.041092
0.0449429
0.0487908
0.052629
0.0564533
0.0602611
0.0640512
0.0678234
0.0715781
0.0753163
0.0790394
0.0827487
0.086446
0.0901327
0.0938106
0.0974813
0.101146
0.104808
0.108466
-0.219477
-0.217244
-0.215019
-0.212815
-0.21067
-0.208608
-0.206657
-0.204804
-0.203056
-0.201406
-0.199828
-0.198304
-0.196812
-0.195363
-0.193947
-0.19256
-0.191196
-0.189853
-0.188524
-0.187204
-0.185898
-0.184602
-0.18331
-0.182022
-0.180737
-0.179448
-0.178154
-0.176854
-0.175548
-0.174237
-0.172926
-0.171615
-0.170306
-0.169001
-0.167702
-0.166409
-0.165125
-0.163851
-0.16259
-0.161347
-0.160124
-0.158932
-0.15777
-0.156646
-0.155556
-0.154507
-0.153503
-0.152543
-0.151621
-0.150727
-0.149855
-0.149006
-0.148169
-0.147333
-0.1465
-0.145653
-0.144775
-0.143852
-0.142881
-0.141826
-0.140659
-0.139356
-0.137855
-0.136151
-0.134169
-0.131868
-0.129202
-0.126113
-0.122558
-0.118468
-0.113788
-0.108482
-0.1025
-0.0958177
-0.0884622
-0.0805275
-0.0721313
-0.0633636
-0.0542939
-0.0449945
-0.0355137
-0.025849
-0.015977
-0.0053935
-0.00542186
-0.00472282
-0.00371615
-0.00238052
-0.000713214
0.00127769
0.00357639
0.00616096
0.00900449
0.0120765
0.0153444
0.0187754
0.0223373
0.0260007
0.0297388
0.0335288
0.0373515
0.0411914
0.0450366
0.0488782
0.0527099
0.0565277
0.0603291
0.0641129
0.067879
0.0716278
0.0753605
0.0790782
0.0827824
0.0864747
0.0901567
0.09383
0.0974963
0.101157
0.104814
0.108469
-0.219361
-0.216888
-0.214412
-0.211961
-0.209581
-0.207301
-0.205156
-0.203142
-0.201268
-0.199512
-0.197844
-0.196256
-0.194713
-0.193214
-0.19176
-0.190344
-0.188963
-0.187613
-0.186282
-0.184966
-0.183668
-0.182382
-0.181101
-0.179825
-0.178549
-0.177269
-0.175982
-0.174686
-0.173383
-0.172074
-0.170763
-0.169453
-0.168144
-0.16684
-0.165541
-0.164248
-0.162962
-0.161687
-0.160425
-0.159182
-0.157962
-0.156778
-0.155624
-0.154521
-0.153445
-0.152418
-0.151443
-0.150519
-0.149633
-0.148777
-0.147943
-0.147137
-0.146343
-0.145549
-0.144762
-0.143963
-0.14313
-0.142249
-0.141324
-0.140309
-0.139184
-0.137918
-0.136455
-0.134785
-0.132844
-0.130598
-0.128004
-0.12501
-0.121573
-0.117633
-0.113129
-0.108023
-0.10228
-0.0958661
-0.0887833
-0.0810768
-0.0728363
-0.0641676
-0.0551644
-0.045881
-0.0363493
-0.0265799
-0.0165306
-0.00563666
-0.00579369
-0.00510509
-0.0040522
-0.00264392
-0.000897652
0.00116762
0.00353114
0.00616934
0.00905539
0.0121597
0.0154509
0.0188974
0.0224687
0.0261364
0.0298749
0.0336623
0.0374802
0.0413139
0.045152
0.0489858
0.0528096
0.0566193
0.0604127
0.0641888
0.0679474
0.0716891
0.0754148
0.0791259
0.0828238
0.0865101
0.0901862
0.0938539
0.0975147
0.10117
0.104822
0.108471
-0.21921
-0.216435
-0.213658
-0.210911
-0.208255
-0.205731
-0.203379
-0.201194
-0.199185
-0.197312
-0.195555
-0.193901
-0.192306
-0.190759
-0.189264
-0.187817
-0.186421
-0.185063
-0.183733
-0.182424
-0.181134
-0.17986
-0.178592
-0.177331
-0.176065
-0.174795
-0.173516
-0.172224
-0.170923
-0.169614
-0.168303
-0.166991
-0.165681
-0.164374
-0.163072
-0.161775
-0.160486
-0.159207
-0.157941
-0.156698
-0.155479
-0.154303
-0.153157
-0.152081
-0.151027
-0.150029
-0.149088
-0.148208
-0.147366
-0.146553
-0.145766
-0.145009
-0.144267
-0.143527
-0.142797
-0.142056
-0.141279
-0.140452
-0.139583
-0.138621
-0.137545
-0.136321
-0.134907
-0.133279
-0.131391
-0.129207
-0.126687
-0.123784
-0.120461
-0.116663
-0.112334
-0.107433
-0.101917
-0.0957521
-0.0889197
-0.081445
-0.0734137
-0.0649135
-0.056013
-0.0467746
-0.0372655
-0.027468
-0.017281
-0.00601268
-0.00636876
-0.00566121
-0.00451033
-0.00298309
-0.00112346
0.00103997
0.00348431
0.00618682
0.00912244
0.0122636
0.0155809
0.0190447
0.022626
0.0262979
0.0300363
0.0338202
0.0376323
0.0414585
0.045288
0.0491127
0.052927
0.0567272
0.0605113
0.0642782
0.068028
0.0717612
0.0754789
0.0791822
0.0828726
0.0865517
0.090221
0.093882
0.0975364
0.101186
0.104831
0.108474
-0.219038
-0.215901
-0.212757
-0.209673
-0.206721
-0.203941
-0.201367
-0.198999
-0.196847
-0.194853
-0.193004
-0.191276
-0.189623
-0.18803
-0.186493
-0.185014
-0.183604
-0.182233
-0.180902
-0.1796
-0.17832
-0.177056
-0.175801
-0.174555
-0.1733
-0.172042
-0.17077
-0.169483
-0.168183
-0.166874
-0.16556
-0.164245
-0.16293
-0.161618
-0.160309
-0.159005
-0.157711
-0.156427
-0.155157
-0.153912
-0.152699
-0.15153
-0.150402
-0.149347
-0.148332
-0.147374
-0.146477
-0.145648
-0.144859
-0.144099
-0.143368
-0.142671
-0.141991
-0.141317
-0.140656
-0.139985
-0.139277
-0.138521
-0.137718
-0.136818
-0.135806
-0.134638
-0.133285
-0.131709
-0.129875
-0.127752
-0.125303
-0.12249
-0.119277
-0.115616
-0.111455
-0.106746
-0.101447
-0.09552
-0.0889474
-0.0817391
-0.0739167
-0.0655499
-0.0567521
-0.0476211
-0.0382229
-0.0285211
-0.0183607
-0.00667004
-0.00731046
-0.00646346
-0.00510721
-0.00339114
-0.00137706
0.000907965
0.00344654
0.0062211
0.0092108
0.0123913
0.0157361
0.0192176
0.0228088
0.0264845
0.0302219
0.0340013
0.0378063
0.0416237
0.0454433
0.0492574
0.0530609
0.0568503
0.0606237
0.0643803
0.06812
0.0718436
0.075552
0.0792464
0.0829284
0.0865993
0.0902607
0.0939142
0.0975611
0.101203
0.104841
0.108478
-0.218815
-0.215256
-0.211722
-0.208276
-0.204996
-0.201935
-0.199127
-0.196569
-0.194265
-0.192145
-0.190199
-0.188392
-0.186679
-0.185035
-0.183456
-0.181946
-0.180518
-0.179134
-0.177801
-0.176504
-0.17523
-0.173975
-0.172734
-0.1715
-0.170258
-0.16901
-0.167748
-0.166467
-0.165169
-0.163859
-0.162542
-0.161222
-0.159901
-0.158581
-0.157264
-0.155951
-0.154647
-0.15336
-0.152086
-0.150842
-0.14964
-0.148486
-0.147384
-0.146355
-0.145388
-0.144484
-0.143646
-0.142877
-0.142154
-0.141462
-0.140802
-0.140178
-0.139575
-0.138981
-0.138404
-0.137817
-0.137194
-0.136524
-0.135798
-0.134975
-0.134034
-0.132933
-0.131646
-0.130138
-0.128375
-0.12632
-0.123942
-0.121211
-0.118095
-0.114552
-0.110536
-0.105996
-0.100885
-0.0951668
-0.0888138
-0.0818162
-0.0741859
-0.0659984
-0.0573665
-0.0483859
-0.0391725
-0.0297664
-0.0200474
-0.00816802
-0.00891615
-0.0075659
-0.00581853
-0.00383029
-0.00162605
0.000795434
0.00343416
0.0062829
0.00932715
0.0125468
0.0159184
0.0194167
0.0230168
0.0266952
0.0304304
0.0342041
0.0380008
0.0418081
0.0456164
0.0494187
0.0532101
0.0569874
0.0607489
0.0644939
0.0682225
0.0719353
0.0756334
0.079318
0.0829905
0.0866523
0.090305
0.09395
0.0975887
0.101223
0.104853
0.108482
-0.218574
-0.214542
-0.210568
-0.206726
-0.203091
-0.199728
-0.196672
-0.193914
-0.191445
-0.189196
-0.18714
-0.185246
-0.183467
-0.181774
-0.180154
-0.178618
-0.177164
-0.17577
-0.174436
-0.173139
-0.171868
-0.17062
-0.169391
-0.168166
-0.166935
-0.165698
-0.164445
-0.163171
-0.161877
-0.160569
-0.15925
-0.157925
-0.156597
-0.155269
-0.153943
-0.152618
-0.151303
-0.150012
-0.148739
-0.147502
-0.146316
-0.145188
-0.144123
-0.143139
-0.142231
-0.141397
-0.140634
-0.13994
-0.139296
-0.13869
-0.138122
-0.137592
-0.137085
-0.136594
-0.136117
-0.135631
-0.135112
-0.134544
-0.133911
-0.133179
-0.132323
-0.131306
-0.130097
-0.12866
-0.12697
-0.124996
-0.122702
-0.120055
-0.11702
-0.113566
-0.109658
-0.105253
-0.100302
-0.0947564
-0.0885805
-0.081764
-0.0743195
-0.0662862
-0.0577643
-0.0489133
-0.0399048
-0.0309687
-0.0224776
-0.0150799
-0.0114489
-0.00883864
-0.0065143
-0.00421325
-0.00181614
0.000735658
0.00346754
0.00638456
0.00947876
0.012734
0.0161296
0.0196425
0.0232496
0.0269289
0.0306605
0.034427
0.038214
0.0420099
0.0458058
0.049595
0.0533731
0.0571372
0.0608857
0.0646181
0.0683344
0.0720355
0.0757224
0.0793962
0.0830584
0.0867103
0.0903534
0.0939892
0.0976189
0.101244
0.104866
0.108486
-0.218315
-0.21377
-0.209302
-0.205024
-0.20101
-0.197327
-0.194008
-0.191038
-0.188388
-0.186
-0.183821
-0.181831
-0.179981
-0.178242
-0.176585
-0.175026
-0.173545
-0.172141
-0.170804
-0.169504
-0.168232
-0.16699
-0.165767
-0.164546
-0.163322
-0.162093
-0.160851
-0.159588
-0.1583
-0.156994
-0.155675
-0.154345
-0.153012
-0.151674
-0.150339
-0.149004
-0.147681
-0.146388
-0.145124
-0.143904
-0.142747
-0.141656
-0.140643
-0.13972
-0.138886
-0.13814
-0.137471
-0.136874
-0.136331
-0.135834
-0.135383
-0.134974
-0.134592
-0.134232
-0.133881
-0.133522
-0.13313
-0.132687
-0.132166
-0.131541
-0.130782
-0.129857
-0.128738
-0.127391
-0.125782
-0.12388
-0.121653
-0.119072
-0.116109
-0.112728
-0.108898
-0.104584
-0.0997446
-0.0943303
-0.0882973
-0.0816304
-0.0743306
-0.0664251
-0.0579875
-0.0491472
-0.0401228
-0.031344
-0.0234233
-0.0170495
-0.0127425
-0.00957812
-0.0069188
-0.00441452
-0.00188393
0.000762964
0.00356606
0.00653717
0.00967182
0.0129561
0.016371
0.0198949
0.0235063
0.0271844
0.0309105
0.0346683
0.0384442
0.0422274
0.0460096
0.0497846
0.0535484
0.0572982
0.0610327
0.0647515
0.0684548
0.0721433
0.0758181
0.0794803
0.0831314
0.0867727
0.0904055
0.0940313
0.0976514
0.101267
0.10488
0.10849
-0.218036
-0.212941
-0.207937
-0.203165
-0.198729
-0.194703
-0.191111
-0.187921
-0.185077
-0.182536
-0.180236
-0.178145
-0.176219
-0.174432
-0.172743
-0.171164
-0.16966
-0.168246
-0.166902
-0.165598
-0.164322
-0.16308
-0.161855
-0.160632
-0.159408
-0.158183
-0.156951
-0.155698
-0.15442
-0.153119
-0.151803
-0.150471
-0.149132
-0.147787
-0.146444
-0.1451
-0.143774
-0.142486
-0.141241
-0.140055
-0.138942
-0.137908
-0.136967
-0.136124
-0.135382
-0.134741
-0.134187
-0.133712
-0.133299
-0.132943
-0.132641
-0.132388
-0.132167
-0.131969
-0.131779
-0.131578
-0.131342
-0.131047
-0.130663
-0.130166
-0.129525
-0.128708
-0.127688
-0.126432
-0.124909
-0.123088
-0.120932
-0.118412
-0.115496
-0.112156
-0.108369
-0.104102
-0.0993168
-0.0939737
-0.0880341
-0.0814667
-0.0742482
-0.0663721
-0.0578782
-0.0488806
-0.0395948
-0.0305159
-0.0225699
-0.0167521
-0.0126621
-0.00955599
-0.00689399
-0.00436129
-0.00179124
0.000898014
0.00374123
0.00674716
0.00990974
0.0132145
0.0166426
0.0201733
0.0237856
0.02746
0.0311785
0.0349258
0.0386892
0.0424585
0.0462259
0.0499858
0.0537342
0.0574689
0.0611886
0.064893
0.0685825
0.0722576
0.0759196
0.0795695
0.0832088
0.0868388
0.0904607
0.094076
0.0976858
0.101292
0.104894
0.108495
-0.217733
-0.212033
-0.206442
-0.201141
-0.196256
-0.19186
-0.187969
-0.184543
-0.181507
-0.178795
-0.176365
-0.174177
-0.172178
-0.170343
-0.168626
-0.167028
-0.165509
-0.164084
-0.162724
-0.161415
-0.160132
-0.15888
-0.157647
-0.156412
-0.155179
-0.15395
-0.152723
-0.151481
-0.150214
-0.14892
-0.147608
-0.146277
-0.144935
-0.143586
-0.142238
-0.140891
-0.139572
-0.138301
-0.137091
-0.135957
-0.134911
-0.133957
-0.133111
-0.132374
-0.131747
-0.131235
-0.130823
-0.1305
-0.130254
-0.130078
-0.129967
-0.129912
-0.129895
-0.129902
-0.129913
-0.129908
-0.129861
-0.129742
-0.129522
-0.129173
-0.128665
-0.127967
-0.127049
-0.125883
-0.124439
-0.122686
-0.12059
-0.118118
-0.11524
-0.111927
-0.108152
-0.103892
-0.0991194
-0.0937959
-0.0878776
-0.0813257
-0.074098
-0.0661561
-0.057473
-0.048082
-0.038147
-0.0281548
-0.0194577
-0.0145677
-0.0113888
-0.00884266
-0.00646888
-0.00406618
-0.00154336
0.00113886
0.00399247
0.00701426
0.010192
0.0135084
0.0169434
0.020476
0.0240857
0.0277536
0.0314624
0.0351976
0.0389471
0.0427013
0.0464529
0.0501967
0.053929
0.0576478
0.0613519
0.0650413
0.0687161
0.0723773
0.0760259
0.079663
0.08329
0.0869081
0.0905186
0.0941228
0.0977219
0.101317
0.10491
0.1085
-0.217401
-0.211052
-0.204837
-0.198963
-0.193588
-0.188795
-0.184586
-0.180896
-0.177655
-0.174778
-0.172216
-0.169926
-0.16786
-0.165976
-0.164235
-0.162619
-0.161086
-0.159648
-0.158269
-0.15695
-0.155652
-0.154382
-0.153129
-0.151872
-0.15062
-0.149379
-0.148146
-0.14691
-0.145651
-0.144367
-0.143061
-0.141734
-0.140394
-0.139048
-0.1377
-0.136359
-0.13506
-0.133824
-0.13267
-0.131613
-0.130661
-0.12982
-0.129097
-0.128497
-0.128018
-0.127669
-0.127435
-0.127307
-0.127275
-0.127328
-0.12746
-0.127654
-0.127893
-0.128154
-0.128414
-0.128648
-0.128826
-0.128917
-0.128887
-0.128708
-0.12835
-0.127782
-0.126976
-0.125903
-0.124532
-0.122832
-0.120774
-0.118323
-0.115452
-0.11213
-0.10833
-0.104028
-0.0992022
-0.0938292
-0.0878732
-0.0812768
-0.0739728
-0.0658858
-0.056923
-0.0469935
-0.0360561
-0.0241897
-0.0126542
-0.0106212
-0.00933363
-0.00773907
-0.00581495
-0.00361857
-0.00118548
0.00146269
0.00430796
0.00733194
0.0105147
0.0138349
0.0172707
0.0208007
0.0244043
0.0280629
0.0317599
0.0354813
0.0392156
0.0429536
0.0466885
0.0504153
0.0541308
0.057833
0.0615211
0.0651948
0.0688546
0.0725014
0.076136
0.0797599
0.0833741
0.0869799
0.0905786
0.0941714
0.0977594
0.101344
0.104925
0.108506
-0.217037
-0.20998
-0.203095
-0.196609
-0.190711
-0.185495
-0.18096
-0.17701
-0.173552
-0.170502
-0.167805
-0.165409
-0.16327
-0.161337
-0.159571
-0.157936
-0.156386
-0.154933
-0.153536
-0.152194
-0.150873
-0.149575
-0.148288
-0.146998
-0.145714
-0.144447
-0.143197
-0.141955
-0.1407
-0.139423
-0.138126
-0.136807
-0.135475
-0.134138
-0.132802
-0.131484
-0.130223
-0.129044
-0.127971
-0.127021
-0.126198
-0.125508
-0.124949
-0.12453
-0.124244
-0.124107
-0.124105
-0.124228
-0.12447
-0.124817
-0.125253
-0.125761
-0.126314
-0.126886
-0.127447
-0.127967
-0.128411
-0.128744
-0.128931
-0.128935
-0.128728
-0.128281
-0.12757
-0.126573
-0.125256
-0.123593
-0.121554
-0.119103
-0.11621
-0.112846
-0.108985
-0.104604
-0.0996825
-0.0942102
-0.0881609
-0.0814554
-0.0739995
-0.0656862
-0.0564019
-0.0459853
-0.0340981
-0.0195089
0.00147386
-0.00605207
-0.00751898
-0.0067859
-0.00519377
-0.0031447
-0.00078007
0.00183741
0.0046704
0.00769025
0.0108714
0.0141895
0.0176212
0.0211444
0.0247386
0.0283854
0.0320686
0.0357746
0.0394923
0.0432131
0.0469305
0.0506398
0.0543379
0.0580231
0.0616945
0.0653522
0.0689966
0.0726285
0.076249
0.0798592
0.0834603
0.0870535
0.0906401
0.0942211
0.0977977
0.101371
0.104942
0.108511
-0.216642
-0.208815
-0.201204
-0.194065
-0.187613
-0.181949
-0.177062
-0.172844
-0.16918
-0.16597
-0.163148
-0.160655
-0.15844
-0.156451
-0.154652
-0.152988
-0.151414
-0.149939
-0.148515
-0.147141
-0.145782
-0.144443
-0.143109
-0.14177
-0.140437
-0.139129
-0.137847
-0.136585
-0.135323
-0.134048
-0.13276
-0.131454
-0.130138
-0.12882
-0.127514
-0.126243
-0.125046
-0.123953
-0.122994
-0.122186
-0.121536
-0.121041
-0.1207
-0.120514
-0.120486
-0.120627
-0.120928
-0.12138
-0.121973
-0.12269
-0.123507
-0.124399
-0.125335
-0.12628
-0.127199
-0.128054
-0.128802
-0.129406
-0.129826
-0.130025
-0.129974
-0.129648
-0.129023
-0.128086
-0.1268
-0.125143
-0.123083
-0.120584
-0.117623
-0.114169
-0.110202
-0.105701
-0.100648
-0.0950222
-0.0887824
-0.0818658
-0.0741973
-0.0656874
-0.0562399
-0.0458026
-0.0343955
-0.0222594
-0.0109341
-0.00894226
-0.00788463
-0.0065364
-0.00480309
-0.00273202
-0.00037204
0.00223776
0.00506464
0.0080796
0.0112557
0.0145676
0.0179912
0.0215041
0.0250859
0.0287184
0.0323858
0.036075
0.0397751
0.0434778
0.047177
0.0508681
0.0545484
0.0582162
0.0618707
0.0655121
0.0691408
0.0727576
0.0763636
0.07996
0.0835478
0.0871283
0.0907025
0.0942717
0.0978367
0.101399
0.104958
0.108517
-0.216208
-0.207542
-0.199158
-0.191324
-0.184285
-0.178161
-0.172921
-0.168438
-0.164575
-0.161216
-0.15828
-0.155697
-0.15341
-0.151363
-0.149514
-0.147802
-0.146178
-0.144673
-0.143203
-0.141779
-0.140365
-0.138965
-0.137566
-0.136157
-0.134757
-0.133388
-0.132057
-0.130758
-0.129476
-0.128198
-0.126917
-0.125631
-0.124342
-0.123061
-0.121807
-0.120609
-0.119508
-0.118542
-0.117737
-0.117118
-0.116691
-0.116448
-0.116388
-0.11651
-0.116822
-0.117329
-0.118025
-0.1189
-0.119939
-0.121118
-0.122406
-0.123765
-0.125158
-0.126541
-0.127872
-0.129106
-0.130199
-0.131104
-0.131778
-0.132178
-0.132272
-0.132047
-0.131482
-0.130569
-0.12928
-0.127585
-0.125459
-0.122864
-0.119778
-0.11618
-0.112057
-0.10738
-0.102124
-0.0962697
-0.0897882
-0.082627
-0.074722
-0.0660037
-0.0564406
-0.0460805
-0.0351676
-0.0243973
-0.0154141
-0.0109853
-0.00848196
-0.00650659
-0.00452449
-0.00235884
3.51453e-05
0.00265513
0.00548244
0.00849319
0.0116622
0.0149647
0.0183768
0.0218764
0.0254432
0.0290593
0.0327092
0.0363801
0.0400615
0.0437454
0.0474258
0.0510984
0.0547605
0.0584106
0.0620481
0.065673
0.0692858
0.0728875
0.076479
0.0800613
0.0836358
0.0872034
0.0907653
0.0943225
0.0978758
0.101426
0.104975
0.108522
-0.215748
-0.206185
-0.196977
-0.188426
-0.180779
-0.17417
-0.168568
-0.163821
-0.15977
-0.156282
-0.153249
-0.150587
-0.14823
-0.146116
-0.144197
-0.142419
-0.140719
-0.139153
-0.137602
-0.136098
-0.134603
-0.133118
-0.131624
-0.130125
-0.128637
-0.127188
-0.125785
-0.12443
-0.123113
-0.121821
-0.120548
-0.119285
-0.11804
-0.116823
-0.115656
-0.114569
-0.113604
-0.112806
-0.112208
-0.111834
-0.111692
-0.111772
-0.112077
-0.112599
-0.11335
-0.114332
-0.115534
-0.116946
-0.118543
-0.12029
-0.122145
-0.12406
-0.125985
-0.127871
-0.129672
-0.131335
-0.132805
-0.134031
-0.134964
-0.135556
-0.135777
-0.135621
-0.135076
-0.134146
-0.132802
-0.131019
-0.128771
-0.126021
-0.122755
-0.118954
-0.1146
-0.109673
-0.104161
-0.0980465
-0.0912942
-0.0838477
-0.0756531
-0.0666693
-0.0568966
-0.0464152
-0.0354818
-0.0246835
-0.0153542
-0.0110627
-0.00843018
-0.00629349
-0.00419835
-0.0019677
0.000458906
0.00309208
0.00592128
0.00892714
0.012087
0.0153772
0.0187749
0.0222584
0.0258077
0.0294053
0.0330362
0.0366876
0.0403494
0.0440137
0.0476748
0.0513285
0.0549723
0.0586046
0.0622249
0.0658333
0.0694304
0.0730169
0.0765939
0.0801624
0.0837235
0.0872783
0.0908279
0.0943731
0.0979148
0.101454
0.104991
0.108528
-0.215274
-0.204779
-0.194696
-0.185379
-0.177103
-0.170007
-0.164049
-0.159053
-0.154835
-0.151238
-0.148122
-0.14539
-0.142968
-0.140784
-0.138778
-0.136901
-0.135103
-0.133415
-0.131748
-0.130115
-0.128496
-0.126886
-0.125265
-0.123648
-0.122055
-0.12051
-0.119022
-0.117593
-0.116224
-0.114907
-0.113636
-0.1124
-0.111211
-0.110084
-0.109041
-0.108113
-0.107338
-0.106765
-0.106433
-0.106369
-0.106586
-0.107078
-0.107847
-0.108879
-0.110188
-0.111768
-0.113606
-0.115679
-0.117951
-0.120377
-0.122897
-0.125455
-0.12799
-0.130444
-0.132766
-0.134895
-0.136767
-0.138326
-0.139514
-0.140282
-0.140599
-0.14047
-0.139896
-0.138889
-0.137435
-0.135515
-0.133094
-0.130134
-0.126624
-0.122558
-0.117921
-0.112697
-0.106876
-0.100443
-0.0933573
-0.0855661
-0.0770284
-0.067719
-0.057636
-0.0468203
-0.0353744
-0.0233337
-0.00899435
-0.00936209
-0.00771419
-0.00582879
-0.00377319
-0.00153084
0.000911226
0.00355212
0.00638061
0.00937918
0.0125271
0.0158022
0.0191825
0.0226471
0.0261766
0.0297539
0.0333641
0.0369949
0.0406363
0.0442805
0.047922
0.0515566
0.0551819
0.0587965
0.0623997
0.0659918
0.0695731
0.0731446
0.0767073
0.080262
0.08381
0.0873522
0.0908895
0.094423
0.0979533
0.101481
0.105008
0.108533
-0.214792
-0.20336
-0.192392
-0.182279
-0.173345
-0.165747
-0.159442
-0.154225
-0.149869
-0.146188
-0.143012
-0.140225
-0.137721
-0.135437
-0.133314
-0.131293
-0.129352
-0.127478
-0.125636
-0.123813
-0.122009
-0.120221
-0.118428
-0.116657
-0.114934
-0.113278
-0.111698
-0.110197
-0.108777
-0.107431
-0.106162
-0.104963
-0.103846
-0.102834
-0.10195
-0.101225
-0.100699
-0.10042
-0.100428
-0.100761
-0.101431
-0.102438
-0.103781
-0.105449
-0.107446
-0.109759
-0.112363
-0.115223
-0.118286
-0.121491
-0.124768
-0.128048
-0.131259
-0.134336
-0.137219
-0.139841
-0.142131
-0.144027
-0.145461
-0.14638
-0.146758
-0.146614
-0.145954
-0.144805
-0.143183
-0.14107
-0.138433
-0.135223
-0.131426
-0.127045
-0.122074
-0.116516
-0.110351
-0.103546
-0.0960739
-0.0879038
-0.0789979
-0.0693231
-0.0588667
-0.0476354
-0.0356294
-0.0227839
-0.00795918
-0.0083423
-0.00703818
-0.00531237
-0.00330146
-0.00105948
0.00139067
0.00403492
0.00685935
0.0098474
0.01298
0.0162367
0.0195967
0.0230398
0.0265473
0.0301024
0.0336905
0.0372996
0.0409198
0.0445436
0.0481651
0.0517806
0.0553876
0.0589845
0.0625709
0.0661468
0.0697127
0.0732695
0.0768181
0.0803594
0.0838945
0.0874243
0.0909498
0.0944717
0.0979909
0.101508
0.105024
0.108538
-0.21432
-0.201953
-0.190094
-0.179185
-0.169599
-0.161511
-0.154866
-0.149451
-0.145002
-0.141266
-0.138045
-0.135211
-0.132629
-0.130226
-0.127956
-0.125736
-0.12357
-0.12144
-0.119329
-0.117229
-0.115151
-0.113107
-0.111082
-0.109106
-0.107219
-0.105432
-0.103754
-0.102186
-0.100725
-0.0993641
-0.098112
-0.0969677
-0.0959464
-0.0950791
-0.0943901
-0.0939147
-0.093698
-0.093778
-0.0942141
-0.0950392
-0.0962712
-0.0979075
-0.0999481
-0.102381
-0.105198
-0.108375
-0.111868
-0.115625
-0.119575
-0.12364
-0.12774
-0.131794
-0.135725
-0.139459
-0.142927
-0.146055
-0.148769
-0.150997
-0.152668
-0.153716
-0.154122
-0.153917
-0.153125
-0.15178
-0.149947
-0.147602
-0.144723
-0.141244
-0.137147
-0.132444
-0.127135
-0.121231
-0.114724
-0.107569
-0.0997309
-0.0911725
-0.0818713
-0.0718013
-0.0609228
-0.049199
-0.0365839
-0.0230544
-0.00775238
-0.00785447
-0.00654756
-0.00484358
-0.00282909
-0.000571386
0.00189108
0.00453811
0.00735582
0.0103299
0.0134436
0.0166784
0.0200148
0.0234336
0.0269168
0.0304479
0.0340128
0.0375993
0.0411977
0.0448006
0.0484022
0.0519986
0.0555873
0.0591669
0.0627368
0.0662969
0.0698479
0.0733904
0.0769253
0.0804536
0.0839762
0.0874941
0.091008
0.0945188
0.0980272
0.101534
0.105039
0.108543
-0.213871
-0.20061
-0.1879
-0.176217
-0.165975
-0.157413
-0.150477
-0.144912
-0.140407
-0.136649
-0.133406
-0.130519
-0.127832
-0.125259
-0.122779
-0.120287
-0.117807
-0.115327
-0.112844
-0.110372
-0.107924
-0.105533
-0.103197
-0.100952
-0.0988608
-0.0969236
-0.0951454
-0.093517
-0.0920358
-0.090684
-0.0894754
-0.0884138
-0.0875213
-0.0868327
-0.0863803
-0.0862049
-0.086352
-0.086872
-0.0878171
-0.089234
-0.0911407
-0.0935234
-0.0963865
-0.0997072
-0.103463
-0.10761
-0.112086
-0.116813
-0.121707
-0.126669
-0.131609
-0.136446
-0.141102
-0.145498
-0.149547
-0.153175
-0.156301
-0.158851
-0.160747
-0.16191
-0.162321
-0.162027
-0.161078
-0.159522
-0.157462
-0.154873
-0.151753
-0.148021
-0.143661
-0.138686
-0.133101
-0.126914
-0.120104
-0.112621
-0.104453
-0.0955561
-0.0858947
-0.0754277
-0.0640819
-0.0517603
-0.038357
-0.0239025
-0.00780737
-0.00752066
-0.00613251
-0.00440937
-0.00236253
-7.20506e-05
0.00240976
0.00506019
0.0078685
0.0108246
0.0139152
0.0171242
0.0204337
0.0238255
0.0272822
0.0307877
0.034328
0.0378911
0.0414674
0.0450492
0.0486309
0.0522085
0.0557794
0.059342
0.0628958
0.0664408
0.0699773
0.073506
0.0770278
0.0805436
0.0840543
0.0875607
0.0910637
0.0945638
0.0980618
0.101558
0.105054
0.108548
-0.21344
-0.199339
-0.185847
-0.173505
-0.162744
-0.153776
-0.146566
-0.140866
-0.136339
-0.132584
-0.129336
-0.126387
-0.123565
-0.120763
-0.117974
-0.115097
-0.112173
-0.109206
-0.106212
-0.103235
-0.100309
-0.097471
-0.0947446
-0.092168
-0.0898339
-0.0877327
-0.0858602
-0.0841924
-0.0827163
-0.0814083
-0.0802752
-0.0793329
-0.0786063
-0.0781361
-0.0779609
-0.0781306
-0.078707
-0.0797375
-0.0812745
-0.0833765
-0.0860577
-0.0892875
-0.0930786
-0.0973802
-0.102155
-0.107333
-0.112826
-0.118535
-0.124355
-0.130177
-0.135907
-0.141479
-0.146817
-0.15184
-0.156439
-0.160535
-0.164047
-0.166897
-0.168999
-0.170259
-0.170666
-0.170286
-0.169191
-0.167454
-0.165197
-0.162425
-0.15912
-0.155211
-0.150692
-0.145567
-0.13984
-0.133517
-0.126552
-0.118876
-0.110476
-0.101298
-0.0912938
-0.0804078
-0.0685275
-0.0554663
-0.0409488
-0.0248734
-0.00904437
-0.00670654
-0.00556346
-0.00394325
-0.00188208
0.000445473
0.00294934
0.0056015
0.0083962
0.0113293
0.0143919
0.0175708
0.0208498
0.0242119
0.0276399
0.0311183
0.0346331
0.0381723
0.0417262
0.045287
0.0488491
0.0524082
0.0559618
0.0595081
0.0630465
0.0665769
0.0700996
0.0736153
0.0771247
0.0806287
0.0841281
0.0876237
0.0911162
0.0946063
0.0980946
0.101581
0.105067
0.108553
-0.213013
-0.198152
-0.184069
-0.171269
-0.160176
-0.150955
-0.143546
-0.137701
-0.133102
-0.129325
-0.126044
-0.122995
-0.119989
-0.116882
-0.113657
-0.110268
-0.106747
-0.103135
-0.0994708
-0.0958282
-0.0922931
-0.0889078
-0.0857147
-0.0827541
-0.0801473
-0.0778838
-0.0759379
-0.074264
-0.0728283
-0.0716033
-0.0705875
-0.069806
-0.069288
-0.0690733
-0.0692099
-0.0697771
-0.0708335
-0.072437
-0.0746395
-0.0775023
-0.0810274
-0.0851766
-0.0899589
-0.0952838
-0.101096
-0.107289
-0.113751
-0.120359
-0.126992
-0.13354
-0.13992
-0.146106
-0.152034
-0.157611
-0.16269
-0.167186
-0.171025
-0.174128
-0.176401
-0.177725
-0.178126
-0.177686
-0.176495
-0.174664
-0.172317
-0.169487
-0.166114
-0.162166
-0.15767
-0.152616
-0.147006
-0.140774
-0.133832
-0.126101
-0.117594
-0.10823
-0.0979247
-0.0866251
-0.0741761
-0.0602095
-0.0441021
-0.0242715
0.00270927
-0.00373053
-0.00472224
-0.00343703
-0.0013741
0.000992708
0.00351568
0.0061634
0.00893745
0.0118409
0.0148698
0.018014
0.021259
0.0245885
0.0279861
0.0314362
0.0349247
0.0384398
0.0419713
0.0455115
0.0490544
0.0525958
0.0561327
0.0596635
0.0631873
0.066704
0.0702137
0.0737171
0.0772149
0.0807078
0.0841967
0.0876822
0.091165
0.0946458
0.098125
0.101603
0.10508
0.108557
-0.212726
-0.197337
-0.182935
-0.169966
-0.158678
-0.14921
-0.141603
-0.135656
-0.130994
-0.127174
-0.123815
-0.120605
-0.117318
-0.113794
-0.109982
-0.105896
-0.101575
-0.0971233
-0.0926192
-0.0881424
-0.0838574
-0.079844
-0.0761272