/*--------------------------------*- C++ -*----------------------------------*\
  =========                 |
  \\      /  F ield         | OpenFOAM: The Open Source CFD Toolbox
   \\    /   O peration     | Website:  https://openfoam.org
    \\  /    A nd           | Version:  6
     \\/     M anipulation  |
\*---------------------------------------------------------------------------*/
FoamFile
{
    version     2.0;
    format      ascii;
    class       surfaceScalarField;
    location    "3200";
    object      phi;
}
// * * * * * * * * * * * * * * * * * * * * * * * * * * * * * * * * * * * * * //

dimensions      [0 3 -1 0 0 0 0];

internalField   nonuniform List<scalar> 
9440
(
-3.75592e-10
3.75592e-10
-6.56149e-10
2.80556e-10
-1.4238e-10
-5.13771e-10
2.32937e-10
-3.75319e-10
1.17105e-09
-9.38116e-10
1.75074e-09
-5.79684e-10
2.58253e-09
-8.31794e-10
3.28681e-09
-7.04285e-10
4.27753e-09
-9.90718e-10
4.38622e-09
-1.08687e-10
4.72213e-09
-3.35909e-10
4.96146e-09
-2.39334e-10
5.18805e-09
-2.26582e-10
5.43032e-09
-2.42273e-10
5.73799e-09
-3.07668e-10
5.97527e-09
-2.37279e-10
6.14247e-09
-1.672e-10
6.22855e-09
-8.60797e-11
6.29944e-09
-7.08941e-11
6.43635e-09
-1.36909e-10
6.50114e-09
-6.47891e-11
6.53644e-09
-3.53012e-11
6.58006e-09
-4.36193e-11
6.6186e-09
-3.85384e-11
6.62856e-09
-9.96539e-12
6.63488e-09
-6.32005e-12
6.61886e-09
1.60257e-11
6.58976e-09
2.91003e-11
6.55207e-09
3.76869e-11
6.50763e-09
4.44448e-11
6.46086e-09
4.67659e-11
6.42584e-09
3.5017e-11
6.40437e-09
2.14725e-11
6.39956e-09
4.80363e-12
6.4053e-09
-5.73209e-12
6.40931e-09
-4.01137e-12
6.41842e-09
-9.11217e-12
6.43334e-09
-1.49243e-11
6.44724e-09
-1.38988e-11
6.47463e-09
-2.73903e-11
6.51054e-09
-3.59099e-11
6.53876e-09
-2.82218e-11
6.573e-09
-3.42402e-11
6.61546e-09
-4.24635e-11
6.70777e-09
-9.23083e-11
6.80829e-09
-1.00516e-10
6.88042e-09
-7.21309e-11
6.9396e-09
-5.91786e-11
7.03078e-09
-9.11834e-11
7.07907e-09
-4.82818e-11
7.08489e-09
-5.8286e-12
7.08039e-09
4.50477e-12
7.0397e-09
4.06845e-11
6.9955e-09
4.42036e-11
6.91967e-09
7.58241e-11
6.86629e-09
5.33817e-11
6.75253e-09
1.1375e-10
6.69304e-09
5.94891e-11
6.61571e-09
7.73342e-11
6.52374e-09
9.19622e-11
6.37794e-09
1.45806e-10
6.24452e-09
1.33421e-10
5.99644e-09
2.48072e-10
5.79237e-09
2.04076e-10
5.41886e-09
3.73505e-10
5.0476e-09
3.71263e-10
4.65233e-09
3.95268e-10
3.93345e-09
7.18886e-10
3.57305e-09
3.60394e-10
2.79287e-09
7.80175e-10
2.17278e-09
6.20082e-10
9.22578e-10
1.2502e-09
3.81201e-11
8.84454e-10
-3.65594e-10
4.03712e-10
-4.01141e-10
3.55455e-11
-3.82149e-10
-1.89924e-11
-5.91374e-10
2.09226e-10
-7.66935e-10
1.75561e-10
-8.78051e-10
1.11116e-10
-8.11709e-10
-6.63428e-11
-6.08922e-10
-2.02787e-10
-2.59893e-10
-3.49028e-10
-1.03056e-15
-2.5989e-10
-3.28419e-18
5.18495e-19
-3.6784e-18
3.94209e-19
-3.89831e-18
2.21555e-19
-3.95882e-18
6.22904e-20
-3.88978e-18
-6.74577e-20
-3.71786e-18
-1.70178e-19
-3.46582e-18
-2.49955e-19
-3.15315e-18
-3.10612e-19
-2.79705e-18
-3.54971e-19
-2.4127e-18
-3.84925e-19
-2.01293e-18
-4.01892e-19
-1.60847e-18
-4.07273e-19
-1.20878e-18
-4.0249e-19
-8.22264e-19
-3.88869e-19
-4.5587e-19
-3.67857e-19
-1.15384e-19
-3.41121e-19
1.93985e-19
-3.10149e-19
4.68295e-19
-2.76047e-19
7.05375e-19
-2.3974e-19
9.04315e-19
-2.02087e-19
1.06525e-18
-1.6388e-19
1.18911e-18
-1.25865e-19
1.2772e-18
-8.87572e-20
1.33098e-18
-5.32216e-20
1.3521e-18
-1.98155e-20
1.34268e-18
1.10809e-20
1.30545e-18
3.91895e-20
1.2434e-18
6.41982e-20
1.15915e-18
8.58385e-20
1.05505e-18
1.04186e-19
9.33639e-19
1.19786e-19
7.97987e-19
1.33345e-19
6.51257e-19
1.4523e-19
4.96145e-19
1.55248e-19
3.34726e-19
1.62904e-19
1.68768e-19
1.6787e-19
1.70505e-19
-3.02444e-10
6.78031e-10
-1.82523e-10
1.60631e-10
4.62689e-10
-1.15899e-09
1.20382e-09
-1.11645e-09
1.90765e-09
-1.64195e-09
2.47865e-09
-1.15069e-09
3.0225e-09
-1.37564e-09
3.80793e-09
-1.48971e-09
4.20631e-09
-1.38911e-09
4.69396e-09
-5.96336e-10
4.91341e-09
-5.55353e-10
5.29948e-09
-6.25404e-10
5.60766e-09
-5.34759e-10
5.91062e-09
-5.45237e-10
5.98411e-09
-3.8116e-10
6.07911e-09
-3.3228e-10
6.15015e-09
-2.38243e-10
6.25461e-09
-1.90533e-10
6.32129e-09
-1.37583e-10
6.34556e-09
-1.61176e-10
6.43978e-09
-1.59014e-10
6.52908e-09
-1.24595e-10
6.56271e-09
-7.72512e-11
6.56698e-09
-4.28093e-11
6.55411e-09
2.90122e-12
6.52677e-09
2.10225e-11
6.50425e-09
3.85531e-11
6.48913e-09
4.42168e-11
6.48407e-09
4.27428e-11
6.48818e-09
4.03431e-11
6.49863e-09
3.63086e-11
6.50204e-09
3.16043e-11
6.50113e-09
2.23861e-11
6.49951e-09
6.42396e-12
6.49614e-09
-2.36636e-12
6.49164e-09
4.86169e-13
6.48666e-09
-4.13473e-12
6.48606e-09
-1.43312e-11
6.48283e-09
-1.0668e-11
6.4682e-09
-1.27608e-11
6.48389e-09
-5.15991e-11
6.51592e-09
-6.02512e-11
6.54742e-09
-6.57391e-11
6.57021e-09
-6.52479e-11
6.59045e-09
-1.12544e-10
6.64142e-09
-1.51493e-10
6.70954e-09
-1.40249e-10
6.76532e-09
-1.14956e-10
6.79686e-09
-1.22723e-10
6.80565e-09
-5.70745e-11
6.82471e-09
-2.4893e-11
6.83042e-09
-1.20506e-12
6.81353e-09
5.75686e-11
6.79665e-09
6.10785e-11
6.76166e-09
1.10815e-10
6.70436e-09
1.10681e-10
6.65095e-09
1.67157e-10
6.52695e-09
1.83484e-10
6.46469e-09
1.3959e-10
6.31123e-09
2.45426e-10
6.20036e-09
2.56669e-10
6.00888e-09
3.24903e-10
5.86476e-09
3.92201e-10
5.5663e-09
5.02538e-10
5.30254e-09
6.37263e-10
4.84563e-09
8.28165e-10
4.37465e-09
8.66248e-10
3.98721e-09
1.10632e-09
3.11321e-09
1.2344e-09
2.81867e-09
1.0747e-09
2.46552e-09
9.73235e-10
2.22861e-09
1.48711e-09
1.96526e-09
1.1478e-09
1.62882e-09
7.40148e-10
9.53409e-10
7.10956e-10
1.21585e-10
8.12832e-10
-3.28087e-10
6.58898e-10
-5.50881e-10
3.98356e-10
-6.70565e-10
2.30799e-10
-7.41169e-10
4.26033e-12
-5.23834e-10
-4.20121e-10
-3.26502e-10
-5.46357e-10
-1.07234e-15
-5.86389e-10
-3.34341e-18
1.93133e-18
-3.85087e-18
9.02926e-19
-4.05733e-18
4.30853e-19
-4.08827e-18
9.59996e-20
-3.99213e-18
-1.61018e-19
-3.79755e-18
-3.62638e-19
-3.52647e-18
-5.19933e-19
-3.19751e-18
-6.39965e-19
-2.82701e-18
-7.27427e-19
-2.42967e-18
-7.85673e-19
-2.01831e-18
-8.17568e-19
-1.60369e-18
-8.26039e-19
-1.19516e-18
-8.14187e-19
-8.01252e-19
-7.85175e-19
-4.29135e-19
-7.4214e-19
-8.44112e-20
-6.87947e-19
2.28087e-19
-6.24946e-19
5.04603e-19
-5.55187e-19
7.43028e-19
-4.80613e-19
9.42522e-19
-4.03179e-19
1.10326e-18
-3.24863e-19
1.22622e-18
-2.47573e-19
1.31273e-18
-1.72961e-19
1.36438e-18
-1.02223e-19
1.383e-18
-3.61571e-20
1.37078e-18
2.45595e-20
1.33046e-18
7.93007e-20
1.26504e-18
1.27812e-19
1.1775e-18
1.70507e-19
1.07065e-18
2.08261e-19
9.47199e-19
2.41794e-19
8.09872e-19
2.71189e-19
6.61275e-19
2.95953e-19
5.03801e-19
3.15507e-19
3.39692e-19
3.29636e-19
1.71403e-19
3.38591e-19
3.43083e-19
-7.66351e-11
7.54664e-10
4.81097e-10
-3.97105e-10
7.05515e-10
-1.38341e-09
1.52993e-09
-1.94086e-09
2.07958e-09
-2.1916e-09
2.93002e-09
-2.00113e-09
3.29398e-09
-1.7396e-09
3.78466e-09
-1.98039e-09
4.11011e-09
-1.71455e-09
4.58248e-09
-1.06871e-09
4.83817e-09
-8.11041e-10
5.10646e-09
-8.93696e-10
5.56782e-09
-9.96115e-10
5.62421e-09
-6.01635e-10
5.76731e-09
-5.24257e-10
5.83514e-09
-4.00112e-10
5.85199e-09
-2.55097e-10
5.85487e-09
-1.93418e-10
5.88695e-09
-1.6966e-10
5.87244e-09
-1.46666e-10
5.85758e-09
-1.44154e-10
5.83623e-09
-1.03251e-10
5.84856e-09
-8.95746e-11
5.88616e-09
-8.04108e-11
5.90685e-09
-1.77878e-11
5.90548e-09
2.23888e-11
5.90498e-09
3.90549e-11
5.90942e-09
3.97797e-11
5.91373e-09
3.84288e-11
5.9268e-09
2.72732e-11
5.94505e-09
1.80548e-11
5.95113e-09
2.55194e-11
5.95435e-09
1.91666e-11
5.94775e-09
1.30265e-11
5.93656e-09
8.82431e-12
5.91458e-09
2.24602e-11
5.88064e-09
2.98062e-11
5.85629e-09
1.00164e-11
5.82911e-09
1.65123e-11
5.80926e-09
7.09057e-12
5.805e-09
-4.7337e-11
5.81798e-09
-7.32315e-11
5.82306e-09
-7.08227e-11
5.8353e-09
-7.74876e-11
5.84789e-09
-1.25135e-10
5.85726e-09
-1.6086e-10
5.84492e-09
-1.27904e-10
5.88812e-09
-1.58159e-10
5.88714e-09
-1.21746e-10
5.92398e-09
-9.39135e-11
5.97798e-09
-7.88972e-11
5.99488e-09
-1.81055e-11
5.99335e-09
5.91003e-11
6.00845e-09
4.59744e-11
6.00811e-09
1.11148e-10
5.9659e-09
1.52897e-10
5.96742e-09
1.65629e-10
5.95139e-09
1.99521e-10
5.84726e-09
2.43717e-10
5.71778e-09
3.74907e-10
5.65649e-09
3.17957e-10
5.37052e-09
6.10872e-10
5.37538e-09
3.87346e-10
5.06423e-09
8.13688e-10
4.84244e-09
8.5905e-10
4.5418e-09
1.12881e-09
4.05417e-09
1.35388e-09
3.61272e-09
1.54777e-09
2.99697e-09
1.85014e-09
2.87627e-09
1.1954e-09
2.70863e-09
1.14088e-09
2.72034e-09
1.4754e-09
2.39296e-09
1.47518e-09
1.5585e-09
1.57461e-09
7.88567e-10
1.48089e-09
2.67408e-10
1.33399e-09
-7.05596e-11
9.96865e-10
-2.90846e-10
6.18641e-10
-4.33344e-10
3.73293e-10
-4.87525e-10
5.84378e-11
-3.8555e-10
-5.22098e-10
-3.35546e-10
-5.96362e-10
-3.12748e-16
-9.21932e-10
-4.16645e-18
1.92403e-18
-4.32276e-18
1.0605e-18
-4.39195e-18
5.00804e-19
-4.34499e-18
4.84823e-20
-4.19338e-18
-3.14158e-19
-3.95475e-18
-6.03388e-19
-3.64651e-18
-8.30447e-19
-3.28497e-18
-1.00361e-18
-2.88525e-18
-1.12897e-18
-2.46156e-18
-1.21121e-18
-2.02678e-18
-1.25454e-18
-1.59183e-18
-1.2633e-18
-1.16615e-18
-1.24187e-18
-7.58216e-19
-1.19452e-18
-3.74941e-19
-1.12564e-18
-2.14104e-20
-1.03968e-18
2.97846e-19
-9.40583e-19
5.79176e-19
-8.3189e-19
8.20461e-19
-7.16925e-19
1.02084e-18
-5.98976e-19
1.18055e-18
-4.81163e-19
1.30083e-18
-3.66093e-19
1.38347e-18
-2.55668e-19
1.43045e-18
-1.51155e-19
1.44371e-18
-5.33442e-20
1.42553e-18
3.72594e-20
1.37897e-18
1.20274e-19
1.30773e-18
1.95392e-19
1.21525e-18
2.6243e-19
1.10418e-18
3.21377e-19
9.76594e-19
3.72348e-19
8.34636e-19
4.15501e-19
6.80829e-19
4.50984e-19
5.17929e-19
4.78959e-19
3.48647e-19
4.99629e-19
1.75896e-19
5.13333e-19
5.20224e-19
1.8629e-10
5.68373e-10
7.94271e-10
-1.00509e-09
1.09998e-09
-1.68912e-09
1.79663e-09
-2.63751e-09
2.17384e-09
-2.56882e-09
2.9228e-09
-2.75009e-09
3.3848e-09
-2.20159e-09
3.59205e-09
-2.18765e-09
3.87595e-09
-1.99845e-09
4.28703e-09
-1.47978e-09
4.62781e-09
-1.15182e-09
4.72115e-09
-9.8704e-10
4.85552e-09
-1.13048e-09
4.96516e-09
-7.11275e-10
5.02734e-09
-5.86447e-10
5.02777e-09
-4.0054e-10
5.06935e-09
-2.96682e-10
5.08724e-09
-2.11309e-10
5.06191e-09
-1.44326e-10
5.07835e-09
-1.63116e-10
5.07185e-09
-1.37654e-10
5.05194e-09
-8.3338e-11
5.0385e-09
-7.61347e-11
5.01506e-09
-5.69707e-11
4.98931e-09
7.96296e-12
4.98057e-09
3.11228e-11
4.97345e-09
4.61741e-11
4.9555e-09
5.77329e-11
4.94591e-09
4.80202e-11
4.94304e-09
3.01444e-11
4.92506e-09
3.60319e-11
4.91244e-09
3.81333e-11
4.90821e-09
2.33974e-11
4.90076e-09
2.04801e-11
4.88592e-09
2.36611e-11
4.89004e-09
1.83362e-11
4.89532e-09
2.45262e-11
4.88176e-09
2.35743e-11
4.88496e-09
1.33125e-11
4.89228e-09
-2.32555e-13
4.89753e-09
-5.25833e-11
4.91272e-09
-8.84194e-11
4.94532e-09
-1.03426e-10
4.98414e-09
-1.16311e-10
5.00075e-09
-1.41742e-10
5.0321e-09
-1.92207e-10
5.10772e-09
-2.03525e-10
5.17738e-09
-2.27824e-10
5.19347e-09
-1.37837e-10
5.19772e-09
-9.81655e-11
5.24588e-09
-1.27056e-10
5.26299e-09
-3.521e-11
5.31731e-09
4.77903e-12
5.38356e-09
-2.02825e-11
5.39594e-09
9.87703e-11
5.3615e-09
1.87338e-10
5.31148e-09
2.15648e-10
5.36247e-09
1.48534e-10
5.25429e-09
3.51893e-10
5.18297e-09
4.46228e-10
5.09864e-09
4.02296e-10
4.83463e-09
8.74875e-10
4.79512e-09
4.26858e-10
4.48379e-09
1.12502e-09
4.25388e-09
1.08896e-09
4.03456e-09
1.34814e-09
3.61805e-09
1.77038e-09
3.40681e-09
1.75902e-09
3.40396e-09
1.853e-09
2.9077e-09
1.69165e-09
2.68642e-09
1.36216e-09
2.46603e-09
1.69579e-09
1.89634e-09
2.04487e-09
1.30003e-09
2.17092e-09
6.9396e-10
2.08696e-09
3.12898e-10
1.71505e-09
3.47321e-11
1.27503e-09
-2.66741e-10
9.2011e-10
-3.67391e-10
4.73939e-10
-3.71387e-10
6.2431e-11
-4.03347e-10
-4.9014e-10
-2.38744e-10
-7.60967e-10
9.69585e-16
-1.16068e-09
-4.81199e-18
2.19454e-18
-4.88228e-18
1.13024e-18
-4.84405e-18
4.60037e-19
-4.70734e-18
-9.13648e-20
-4.48226e-18
-5.4247e-19
-4.1817e-18
-9.07082e-19
-3.81967e-18
-1.19527e-18
-3.41033e-18
-1.41508e-18
-2.9675e-18
-1.57318e-18
-2.50489e-18
-1.67505e-18
-2.03554e-18
-1.72562e-18
-1.57041e-18
-1.73017e-18
-1.1188e-18
-1.69434e-18
-6.89337e-19
-1.62377e-18
-2.88977e-19
-1.52433e-18
7.76832e-20
-1.40223e-18
4.06539e-19
-1.26336e-18
6.94141e-19
-1.11304e-18
9.38411e-19
-9.55933e-19
1.13865e-18
-7.96118e-19
1.29562e-18
-6.37221e-19
1.41125e-18
-4.82353e-19
1.48798e-18
-3.33907e-19
1.52826e-18
-1.93461e-19
1.53432e-18
-6.19001e-20
1.50854e-18
6.02078e-20
1.45409e-18
1.72248e-19
1.37477e-18
2.73507e-19
1.2742e-18
3.63433e-19
1.15515e-18
4.41898e-19
1.01975e-18
5.09211e-19
8.70119e-19
5.6591e-19
7.08804e-19
6.12518e-19
5.38599e-19
6.49421e-19
3.62351e-19
6.76893e-19
1.82788e-19
6.95248e-19
7.04471e-19
5.36833e-10
3.15387e-11
1.12532e-09
-1.59358e-09
1.8093e-09
-2.37311e-09
2.06277e-09
-2.89098e-09
2.41482e-09
-2.92087e-09
2.74498e-09
-3.08025e-09
3.21009e-09
-2.66671e-09
3.53459e-09
-2.51214e-09
3.65215e-09
-2.11602e-09
3.78957e-09
-1.6172e-09
4.13031e-09
-1.49256e-09
4.27131e-09
-1.12805e-09
4.05293e-09
-9.121e-10
4.08355e-09
-7.41887e-10
4.05873e-09
-5.6163e-10
4.05925e-09
-4.01065e-10
4.11345e-09
-3.50886e-10
4.13109e-09
-2.28949e-10
4.15555e-09
-1.68793e-10
4.16559e-09
-1.73159e-10
4.15152e-09
-1.23583e-10
4.12286e-09
-5.46807e-11
4.10255e-09
-5.58188e-11
4.07916e-09
-3.3586e-11
4.06681e-09
2.03186e-11
4.05852e-09
3.94131e-11
4.05251e-09
5.21842e-11
4.04299e-09
6.72484e-11
4.02116e-09
6.98493e-11
4.01539e-09
3.59212e-11
4.00914e-09
4.22747e-11
4.01383e-09
3.34419e-11
4.02374e-09
1.34882e-11
4.03048e-09
1.37443e-11
4.03155e-09
2.25889e-11
4.04346e-09
6.42196e-12
4.06343e-09
4.5547e-12
4.0998e-09
-1.28009e-11
4.14971e-09
-3.65901e-11
4.20072e-09
-5.12509e-11
4.26511e-09
-1.16968e-10
4.26324e-09
-8.65546e-11
4.32738e-09
-1.67567e-10
4.36951e-09
-1.58437e-10
4.45967e-09
-2.31912e-10
4.55348e-09
-2.86017e-10
4.67619e-09
-3.26228e-10
4.71993e-09
-2.71564e-10
4.78085e-09
-1.98762e-10
4.82328e-09
-1.40591e-10
4.87812e-09
-1.81901e-10
4.90275e-09
-5.98319e-11
4.87556e-09
3.19636e-11
4.92634e-09
-7.10544e-11
4.9283e-09
9.68088e-11
4.89763e-09
2.18004e-10
4.82375e-09
2.89532e-10
4.83156e-09
1.40725e-10
4.76244e-09
4.21009e-10
4.71967e-09
4.89006e-10
4.57689e-09
5.45073e-10
4.40803e-09
1.04373e-09
4.17106e-09
6.63829e-10
4.03189e-09
1.26419e-09
3.73934e-09
1.38151e-09
3.44809e-09
1.63939e-09
3.24674e-09
1.97173e-09
3.13167e-09
1.8741e-09
3.04523e-09
1.93943e-09
2.77987e-09
1.95702e-09
2.48501e-09
1.65703e-09
2.15141e-09
2.02939e-09
1.83669e-09
2.3596e-09
1.45327e-09
2.55434e-09
9.77897e-10
2.56233e-09
6.16595e-10
2.07635e-09
3.91553e-10
1.50007e-09
1.92962e-10
1.1187e-09
-1.28845e-10
7.95746e-10
-2.44839e-10
1.78424e-10
-2.31627e-10
-5.03354e-10
-1.19771e-10
-8.72827e-10
1.59539e-15
-1.28045e-09
-5.63285e-18
2.15981e-18
-5.55233e-18
1.04798e-18
-5.39524e-18
2.99666e-19
-5.15817e-18
-3.31032e-19
-4.84654e-18
-8.55969e-19
-4.46976e-18
-1.28545e-18
-4.03948e-18
-1.6273e-18
-3.56843e-18
-1.88801e-18
-3.06937e-18
-2.07363e-18
-2.55547e-18
-2.18987e-18
-2.04009e-18
-2.2423e-18
-1.53457e-18
-2.23713e-18
-1.04823e-18
-2.18139e-18
-5.89902e-19
-2.08228e-18
-1.66876e-19
-1.94739e-18
2.1656e-19
-1.78465e-18
5.56858e-19
-1.60171e-18
8.51245e-19
-1.4054e-18
1.09823e-18
-1.20154e-18
1.29755e-18
-9.95121e-19
1.45049e-18
-7.90597e-19
1.5597e-18
-5.91846e-19
1.62843e-18
-4.01959e-19
1.65982e-18
-2.23107e-19
1.65642e-18
-5.65873e-20
1.62058e-18
9.68901e-20
1.55535e-18
2.36844e-19
1.4647e-18
3.62844e-19
1.35267e-18
4.74593e-19
1.22247e-18
5.72102e-19
1.07645e-18
6.55746e-19
9.16727e-19
7.26142e-19
7.45707e-19
7.83949e-19
5.66071e-19
8.29716e-19
3.80707e-19
8.63857e-19
1.9201e-19
8.86666e-19
8.98096e-19
6.11303e-10
-5.79766e-10
1.11728e-09
-2.09955e-09
1.58254e-09
-2.83836e-09
2.0243e-09
-3.33274e-09
2.45789e-09
-3.35446e-09
2.67968e-09
-3.30204e-09
2.9116e-09
-2.89863e-09
3.15765e-09
-2.75819e-09
3.27943e-09
-2.23779e-09
3.47638e-09
-1.81414e-09
3.55785e-09
-1.57404e-09
3.42142e-09
-9.91615e-10
3.31941e-09
-8.10086e-10
3.27271e-09
-6.95194e-10
3.2282e-09
-5.17117e-10
3.30178e-09
-4.74648e-10
3.35873e-09
-4.07839e-10
3.37158e-09
-2.41796e-10
3.39979e-09
-1.97011e-10
3.42463e-09
-1.97993e-10
3.45736e-09
-1.56319e-10
3.46674e-09
-6.40569e-11
3.49127e-09
-8.03481e-11
3.48019e-09
-2.25095e-11
3.48676e-09
1.37527e-11
3.47922e-09
4.69458e-11
3.46596e-09
6.54499e-11
3.46807e-09
6.51333e-11
3.47637e-09
6.15531e-11
3.47619e-09
3.61009e-11
3.48637e-09
3.2092e-11
3.51216e-09
7.66005e-12
3.53815e-09
-1.25025e-11
3.56833e-09
-1.64383e-11
3.60034e-09
-9.42031e-12
3.62122e-09
-1.44647e-11
3.65333e-09
-2.75566e-11
3.68713e-09
-4.65999e-11
3.71857e-09
-6.80348e-11
3.74146e-09
-7.41436e-11
3.83921e-09
-2.14716e-10
3.8318e-09
-7.91432e-11
4.05978e-09
-3.95548e-10
3.89964e-09
1.70334e-12
4.04666e-09
-3.7894e-10
4.16386e-09
-4.03209e-10
4.26822e-09
-4.30592e-10
4.29268e-09
-2.96023e-10
4.34196e-09
-2.4804e-10
4.38847e-09
-1.87101e-10
4.42446e-09
-2.17891e-10
4.458e-09
-9.33702e-11
4.44974e-09
4.02241e-11
4.4639e-09
-8.52083e-11
4.44368e-09
1.17023e-10
4.39686e-09
2.64828e-10
4.33251e-09
3.5388e-10
4.36391e-09
1.09326e-10
4.23268e-09
5.52241e-10
4.13298e-09
5.88704e-10
3.94297e-09
7.35084e-10
3.95647e-09
1.03024e-09
3.61501e-09
1.00528e-09
3.38012e-09
1.49908e-09
3.10453e-09
1.65711e-09
2.86561e-09
1.87831e-09
2.83551e-09
2.00183e-09
2.79129e-09
1.91832e-09
2.7174e-09
2.01333e-09
2.65933e-09
2.01509e-09
2.36888e-09
1.94748e-09
2.15605e-09
2.24221e-09
2.06956e-09
2.44608e-09
1.83063e-09
2.79327e-09
1.59533e-09
2.79763e-09
1.13115e-09
2.54054e-09
6.6771e-10
1.9635e-09
2.91279e-10
1.49513e-09
1.80673e-10
9.06354e-10
-4.50897e-11
4.04189e-10
-1.99312e-10
-3.49134e-10
-1.23755e-10
-9.48389e-10
9.50181e-16
-1.40421e-09
-6.51345e-18
1.91195e-18
-6.30054e-18
8.34121e-19
-6.02576e-18
2.37185e-20
-5.68285e-18
-6.74048e-19
-5.2757e-18
-1.26259e-18
-4.81147e-18
-1.74908e-18
-4.30019e-18
-2.13851e-18
-3.75405e-18
-2.43491e-18
-3.18561e-18
-2.64295e-18
-2.6079e-18
-2.76803e-18
-2.03492e-18
-2.81626e-18
-1.47883e-18
-2.79496e-18
-9.49126e-19
-2.71272e-18
-4.55004e-19
-2.57843e-18
-4.13845e-21
-2.40134e-18
3.99498e-19
-2.19105e-18
7.53164e-19
-1.95715e-18
1.05511e-18
-1.70835e-18
1.30465e-18
-1.45193e-18
1.50207e-18
-1.19384e-18
1.64924e-18
-9.39274e-19
1.74959e-18
-6.9292e-19
1.80728e-18
-4.58738e-19
1.82634e-18
-2.39602e-19
1.8099e-18
-3.71341e-20
1.76054e-18
1.48055e-19
1.68135e-18
3.15885e-19
1.57645e-18
4.66412e-19
1.45017e-18
5.997e-19
1.30611e-18
7.15935e-19
1.14684e-18
8.15564e-19
9.74534e-19
8.99297e-19
7.91473e-19
9.67946e-19
6.00212e-19
1.02223e-18
4.03515e-19
1.06271e-18
2.0344e-19
1.08967e-18
1.10312e-18
4.31295e-10
-1.01106e-09
1.16007e-09
-2.82833e-09
1.59469e-09
-3.27299e-09
1.83343e-09
-3.57148e-09
1.99386e-09
-3.51489e-09
2.19799e-09
-3.50617e-09
2.46294e-09
-3.16358e-09
2.67107e-09
-2.96632e-09
2.6688e-09
-2.23553e-09
2.73278e-09
-1.87812e-09
2.69726e-09
-1.53852e-09
2.69186e-09
-9.86217e-10
2.6119e-09
-7.30129e-10
2.53862e-09
-6.21912e-10
2.59081e-09
-5.69309e-10
2.72167e-09
-6.05511e-10
2.74242e-09
-4.28584e-10
2.86174e-09
-3.61119e-10
2.95774e-09
-2.9301e-10
3.00761e-09
-2.47865e-10
3.04923e-09
-1.97942e-10
3.10227e-09
-1.17097e-10
3.13884e-09
-1.16917e-10
3.11876e-09
-2.43782e-12
3.13199e-09
5.29845e-13
3.12578e-09
5.31551e-11
3.10011e-09
9.11169e-11
3.09876e-09
6.64857e-11
3.11138e-09
4.89395e-11
3.12527e-09
2.22078e-11
3.16728e-09
-9.91943e-12
3.20533e-09
-3.0385e-11
3.21701e-09
-2.4182e-11
3.23062e-09
-3.00484e-11
3.25802e-09
-3.68192e-11
3.2819e-09
-3.83501e-11
3.28079e-09
-2.64483e-11
3.28718e-09
-5.29949e-11
3.31619e-09
-9.70475e-11
3.35125e-09
-1.09205e-10
3.37497e-09
-2.38432e-10
3.46603e-09
-1.70202e-10
3.54479e-09
-4.74314e-10
3.64884e-09
-1.02346e-10
3.6838e-09
-4.13898e-10
3.74713e-09
-4.66545e-10
3.83761e-09
-5.21075e-10
3.8345e-09
-2.92905e-10
3.81595e-09
-2.29492e-10
3.84303e-09
-2.14178e-10
3.85335e-09
-2.28213e-10
3.86122e-09
-1.01233e-10
3.89661e-09
4.82769e-12
3.8425e-09
-3.10903e-11
3.85815e-09
1.01376e-10
3.81233e-09
3.10644e-10
3.80658e-09
3.59627e-10
3.68622e-09
2.2969e-10
3.60309e-09
6.35371e-10
3.48902e-09
7.02775e-10
3.24932e-09
9.74783e-10
3.10993e-09
1.16962e-09
2.74208e-09
1.37313e-09
2.65675e-09
1.5844e-09
2.56521e-09
1.74866e-09
2.52551e-09
1.91801e-09
2.49996e-09
2.02738e-09
2.43361e-09
1.98467e-09
2.38406e-09
2.06287e-09
2.35065e-09
2.04851e-09
2.16464e-09
2.13348e-09
2.04963e-09
2.35723e-09
1.90723e-09
2.58847e-09
1.74642e-09
2.95407e-09
1.40469e-09
3.13935e-09
9.55341e-10
2.98989e-09
7.93256e-10
2.12559e-09
6.39116e-10
1.64928e-09
3.88129e-10
1.15735e-09
5.7209e-11
7.3511e-10
3.31311e-12
-2.95241e-10
-4.04005e-11
-9.04679e-10
6.53787e-17
-1.44461e-09
-7.39404e-18
1.8021e-18
-7.1109e-18
5.52e-19
-6.72338e-18
-3.62204e-19
-6.27117e-18
-1.12401e-18
-5.7619e-18
-1.76957e-18
-5.20073e-18
-2.30825e-18
-4.5966e-18
-2.74135e-18
-3.96209e-18
-3.06935e-18
-3.31069e-18
-3.29488e-18
-2.65613e-18
-3.4227e-18
-2.01361e-18
-3.45938e-18
-1.39659e-18
-3.4135e-18
-8.14835e-19
-3.29557e-18
-2.77911e-19
-3.11658e-18
2.06145e-19
-2.88789e-18
6.33404e-19
-2.62101e-18
1.00196e-18
-2.32759e-18
1.31153e-18
-2.0186e-18
1.56274e-18
-1.70317e-18
1.75664e-18
-1.38845e-18
1.8956e-18
-1.08019e-18
1.98377e-18
-7.83471e-19
2.02642e-18
-5.02753e-19
2.02881e-18
-2.41467e-19
1.99509e-18
-1.58067e-21
1.92837e-18
2.16312e-19
1.83188e-18
4.12492e-19
1.70973e-18
5.87542e-19
1.56641e-18
7.42015e-19
1.40574e-18
8.76436e-19
1.23057e-18
9.91457e-19
1.04318e-18
1.08795e-18
8.45761e-19
1.16688e-18
6.40692e-19
1.22915e-18
4.30469e-19
1.27546e-18
2.16897e-19
1.30615e-18
1.32139e-18
9.85963e-10
-1.99703e-09
1.06481e-09
-2.90718e-09
1.23758e-09
-3.44576e-09
1.51318e-09
-3.84708e-09
1.83459e-09
-3.8363e-09
2.05768e-09
-3.72926e-09
2.21212e-09
-3.31801e-09
2.26883e-09
-3.02304e-09
2.23113e-09
-2.19783e-09
2.26964e-09
-1.91663e-09
2.12571e-09
-1.39459e-09
2.1189e-09
-9.79412e-10
2.14801e-09
-7.59239e-10
2.22251e-09
-6.96405e-10
2.31342e-09
-6.60219e-10
2.46673e-09
-7.58826e-10
2.49947e-09
-4.61319e-10
2.61035e-09
-4.72006e-10
2.7367e-09
-4.19363e-10
2.78725e-09
-2.98414e-10
2.81103e-09
-2.21723e-10
2.86584e-09
-1.71902e-10
2.88059e-09
-1.31675e-10
2.86782e-09
1.03341e-11
2.87381e-09
-5.45365e-12
2.86039e-09
6.65715e-11
2.85021e-09
1.01295e-10
2.84531e-09
7.13873e-11
2.84875e-09
4.55052e-11
2.85681e-09
1.4147e-11
2.869e-09
-2.21103e-11
2.86809e-09
-2.94759e-11
2.87202e-09
-2.81159e-11
2.87311e-09
-3.11327e-11
2.87476e-09
-3.8472e-11
2.8927e-09
-5.62907e-11
2.92157e-09
-5.53188e-11
2.89652e-09
-2.79498e-11
2.92792e-09
-1.28442e-10
2.99708e-09
-1.78369e-10
2.98043e-09
-2.21786e-10
3.09105e-09
-2.80821e-10
3.03939e-09
-4.22654e-10
3.32547e-09
-3.8843e-10
3.33694e-09
-4.25363e-10
3.3166e-09
-4.46202e-10
3.28848e-09
-4.92958e-10
3.28675e-09
-2.91175e-10
3.24403e-09
-1.86773e-10
3.21267e-09
-1.82815e-10
3.19892e-09
-2.1446e-10
3.17712e-09
-7.94277e-11
3.17277e-09
9.17483e-12
3.19803e-09
-5.63501e-11
3.15976e-09
1.39648e-10
3.11955e-09
3.50849e-10
3.09897e-09
3.80212e-10
2.96231e-09
3.66349e-10
2.84826e-09
7.49418e-10
2.78867e-09
7.62367e-10
2.63509e-09
1.12836e-09
2.57463e-09
1.23008e-09
2.33979e-09
1.60797e-09
2.12623e-09
1.79797e-09
1.98952e-09
1.88536e-09
1.96051e-09
1.94703e-09
1.99481e-09
1.99308e-09
2.0217e-09
1.95778e-09
2.09125e-09
1.99332e-09
2.09492e-09
2.04484e-09
2.01473e-09
2.21367e-09
1.95446e-09
2.41749e-09
1.85227e-09
2.69066e-09
1.75632e-09
3.05002e-09
1.7035e-09
3.19216e-09
1.57517e-09
3.11822e-09
1.18411e-09
2.51664e-09
7.026e-10
2.13079e-09
3.86437e-10
1.47351e-09
1.88925e-10
9.32621e-10
7.38269e-11
-1.80145e-10
-4.40872e-11
-7.86765e-10
2.36246e-16
-1.4887e-09
-8.55755e-18
1.04476e-18
-8.02515e-18
2.21676e-20
-7.48509e-18
-8.99954e-19
-6.91654e-18
-1.69007e-18
-6.30032e-18
-2.38396e-18
-5.63366e-18
-2.9738e-18
-4.9246e-18
-3.45002e-18
-4.18762e-18
-3.80719e-18
-3.43851e-18
-4.04534e-18
-2.69281e-18
-4.16865e-18
-1.96773e-18
-4.18439e-18
-1.27867e-18
-4.10289e-18
-6.35844e-19
-3.93721e-18
-4.92255e-20
-3.7012e-18
4.73028e-19
-3.40893e-18
9.26822e-19
-3.0742e-18
1.31095e-18
-2.71097e-18
1.62696e-18
-2.33267e-18
1.87746e-18
-1.95065e-18
2.06489e-18
-1.57354e-18
2.19232e-18
-1.20763e-18
2.26449e-18
-8.57914e-19
2.2877e-18
-5.28806e-19
2.26869e-18
-2.2392e-19
2.21298e-18
5.44998e-20
2.12455e-18
3.05789e-19
2.00693e-18
5.30506e-19
1.86421e-18
7.29779e-19
1.70083e-18
9.0478e-19
1.52076e-18
1.05654e-18
1.32706e-18
1.18607e-18
1.12212e-18
1.29446e-18
9.08032e-19
1.38287e-18
6.86998e-19
1.45238e-18
4.61156e-19
1.50385e-18
2.32139e-19
1.53781e-18
1.55459e-18
4.08004e-10
-2.40503e-09
8.3143e-10
-3.33061e-09
1.08315e-09
-3.69747e-09
1.33417e-09
-4.09811e-09
1.57024e-09
-4.07237e-09
1.73383e-09
-3.89286e-09
1.82169e-09
-3.40587e-09
1.81408e-09
-3.01543e-09
1.76981e-09
-2.15357e-09
1.70956e-09
-1.85637e-09
1.76203e-09
-1.44706e-09
1.85522e-09
-1.0726e-09
1.93906e-09
-8.43074e-10
2.03077e-09
-7.88123e-10
2.16248e-09
-7.91931e-10
2.22007e-09
-8.16409e-10
2.30304e-09
-5.44299e-10
2.43277e-09
-6.01734e-10
2.47401e-09
-4.60601e-10
2.51154e-09
-3.35944e-10
2.55674e-09
-2.66925e-10
2.62183e-09
-2.36992e-10
2.6067e-09
-1.16543e-10
2.63606e-09
-1.90347e-11
2.6338e-09
-3.18748e-12
2.63253e-09
6.7834e-11
2.63735e-09
9.64781e-11
2.62149e-09
8.72474e-11
2.61385e-09
5.31433e-11
2.58793e-09
4.00669e-11
2.56196e-09
3.86479e-12
2.54617e-09
-1.36898e-11
2.54119e-09
-2.31386e-11
2.53968e-09
-2.96195e-11
2.51428e-09
-1.30736e-11
2.49413e-09
-3.61346e-11
2.52062e-09
-8.18183e-11
2.53417e-09
-4.14944e-11
2.55273e-09
-1.47001e-10
2.6132e-09
-2.38839e-10
2.67313e-09
-2.81722e-10
2.72285e-09
-3.30541e-10
2.74055e-09
-4.40354e-10
2.7849e-09
-4.32782e-10
2.77682e-09
-4.17275e-10
2.74835e-09
-4.17738e-10
2.6662e-09
-4.10805e-10
2.64437e-09
-2.69346e-10
2.60881e-09
-1.51206e-10
2.54003e-09
-1.14039e-10
2.44838e-09
-1.22808e-10
2.39481e-09
-2.58581e-11
2.35497e-09
4.90202e-11
2.33327e-09
-3.46503e-11
2.2609e-09
2.12011e-10
2.26603e-09
3.45723e-10
2.21125e-09
4.34995e-10
2.10032e-09
4.77279e-10
2.08324e-09
7.66493e-10
1.93222e-09
9.13394e-10
1.78782e-09
1.27276e-09
1.53061e-09
1.4873e-09
1.59748e-09
1.54109e-09
1.72247e-09
1.67298e-09
1.64791e-09
1.95992e-09
1.52212e-09
2.07281e-09
1.48768e-09
2.02752e-09
1.5475e-09
1.89796e-09
1.64749e-09
1.89333e-09
1.74543e-09
1.9469e-09
1.75381e-09
2.20529e-09
1.72068e-09
2.45061e-09
1.6493e-09
2.76205e-09
1.59284e-09
3.10648e-09
1.53864e-09
3.24637e-09
1.40731e-09
3.24955e-09
9.59593e-10
2.96436e-09
8.45366e-10
2.24502e-09
6.41869e-10
1.67701e-09
3.73376e-10
1.20111e-09
2.35785e-10
-4.25554e-11
4.47998e-11
-5.95776e-10
1.12962e-15
-1.4439e-09
-9.93375e-18
1.32157e-19
-8.94744e-18
-9.62183e-19
-8.27516e-18
-1.57164e-18
-7.61025e-18
-2.35501e-18
-6.88993e-18
-3.10513e-18
-6.10971e-18
-3.7556e-18
-5.28177e-18
-4.27994e-18
-4.42577e-18
-4.66643e-18
-3.56182e-18
-4.9128e-18
-2.70856e-18
-5.02336e-18
-1.88622e-18
-5.00684e-18
-1.11299e-18
-4.87616e-18
-3.99831e-19
-4.64779e-18
2.43038e-19
-4.33957e-18
8.0776e-19
-3.96913e-18
1.29005e-18
-3.55306e-18
1.68925e-18
-3.10778e-18
2.00898e-18
-2.64925e-18
2.25457e-18
-2.19125e-18
2.43081e-18
-1.74425e-18
2.54204e-18
-1.31535e-18
2.59359e-18
-9.0938e-19
2.59259e-18
-5.30128e-19
2.54711e-18
-1.80751e-19
2.46427e-18
1.3665e-19
2.34926e-18
4.21459e-19
2.2062e-18
6.74467e-19
2.03921e-18
8.97303e-19
1.85259e-18
1.09179e-18
1.65029e-18
1.25961e-18
1.43545e-18
1.40227e-18
1.21052e-18
1.52123e-18
9.77537e-19
1.61791e-18
7.38473e-19
1.69364e-18
4.95114e-19
1.7495e-18
2.48926e-19
1.78624e-18
1.80435e-18
3.27534e-10
-2.73257e-09
5.525e-10
-3.55558e-09
9.93334e-10
-4.13831e-09
1.12038e-09
-4.22516e-09
1.30692e-09
-4.25891e-09
1.40464e-09
-3.99057e-09
1.44561e-09
-3.44685e-09
1.34338e-09
-2.9132e-09
1.43771e-09
-2.2479e-09
1.40427e-09
-1.82294e-09
1.51514e-09
-1.55794e-09
1.64638e-09
-1.20384e-09
1.79066e-09
-9.87357e-10
1.86374e-09
-8.61209e-10
1.98807e-09
-9.16258e-10
1.97504e-09
-8.03375e-10
2.15913e-09
-7.28397e-10
2.23606e-09
-6.78659e-10
2.23455e-09
-4.59093e-10
2.27196e-09
-3.7336e-10
2.34311e-09
-3.38077e-10
2.36691e-09
-2.60788e-10
2.38003e-09
-1.29663e-10
2.40862e-09
-4.76326e-11
2.41407e-09
-8.63571e-12
2.42039e-09
6.15159e-11
2.40424e-09
1.12621e-10
2.37639e-09
1.15096e-10
2.348e-09
8.15374e-11
2.34162e-09
4.64386e-11
2.31616e-09
2.9331e-11
2.29516e-09
7.30858e-12
2.25468e-09
1.73392e-11
2.2324e-09
-7.33616e-12
2.19204e-09
2.7282e-11
2.16632e-09
-1.04089e-11
2.16808e-09
-8.35848e-11
2.19668e-09
-7.00918e-11
2.20859e-09
-1.58912e-10
2.24444e-09
-2.74684e-10
2.27549e-09
-3.12777e-10
2.31489e-09
-3.69939e-10
2.32151e-09
-4.46979e-10
2.32538e-09
-4.3665e-10
2.30871e-09
-4.00601e-10
2.23535e-09
-3.44376e-10
2.09928e-09
-2.74739e-10
1.96779e-09
-1.37855e-10
1.86875e-09
-5.2172e-11
1.78876e-09
-3.40459e-11
1.67157e-09
-5.61003e-12
1.5593e-09
8.64065e-11
1.49974e-09
1.08579e-10
1.31978e-09
1.45318e-10
1.2799e-09
2.51882e-10
1.22438e-09
4.01246e-10
1.19158e-09
4.67801e-10
1.07758e-09
5.91285e-10
1.06282e-09
7.81252e-10
9.78405e-10
9.9781e-10
1.11721e-09
1.13395e-09
1.26673e-09
1.33778e-09
1.12201e-09
1.68581e-09
9.28723e-10
1.86627e-09
1.10457e-09
1.78407e-09
1.33573e-09
1.84165e-09
1.53108e-09
1.83217e-09
1.52513e-09
1.9039e-09
1.47661e-09
1.94186e-09
1.4364e-09
1.98711e-09
1.50166e-09
2.14003e-09
1.56104e-09
2.39124e-09
1.56404e-09
2.75905e-09
1.49598e-09
3.17455e-09
1.39197e-09
3.35039e-09
1.29111e-09
3.35042e-09
1.12304e-09
3.13242e-09
7.49135e-10
2.61892e-09
4.06608e-10
2.01953e-09
4.37452e-10
1.17026e-09
2.79884e-10
1.15013e-10
2.07293e-10
-5.23183e-10
1.30158e-15
-1.23661e-09
-9.56386e-18
5.64071e-19
-9.55715e-18
-9.6969e-19
-9.05848e-18
-2.07276e-18
-8.36022e-18
-3.05649e-18
-7.54019e-18
-3.92885e-18
-6.6339e-18
-4.66577e-18
-5.66827e-18
-5.24875e-18
-4.67214e-18
-5.66691e-18
-3.67238e-18
-5.91777e-18
-2.69203e-18
-6.00671e-18
-1.75555e-18
-5.94483e-18
-8.84614e-19
-5.74893e-18
-9.16082e-20
-5.43983e-18
6.13474e-19
-5.04083e-18
1.22383e-18
-4.57446e-18
1.73533e-18
-4.06093e-18
2.14778e-18
-3.51932e-18
2.46698e-18
-2.96793e-18
2.70157e-18
-2.423e-18
2.8597e-18
-1.89704e-18
2.94801e-18
-1.39829e-18
2.97285e-18
-9.31589e-19
2.94197e-18
-4.99918e-19
2.86452e-18
-1.05339e-19
2.74908e-18
2.50883e-19
2.60227e-18
5.68623e-19
2.42903e-18
8.49047e-19
2.2337e-18
1.09426e-18
2.02041e-18
1.30674e-18
1.79295e-18
1.48885e-18
1.55441e-18
1.64279e-18
1.30721e-18
1.77053e-18
1.05327e-18
1.87393e-18
7.94334e-19
1.95463e-18
5.3185e-19
2.01396e-18
2.67037e-19