/*--------------------------------*- C++ -*----------------------------------*\
  =========                 |
  \\      /  F ield         | OpenFOAM: The Open Source CFD Toolbox
   \\    /   O peration     | Website:  https://openfoam.org
    \\  /    A nd           | Version:  6
     \\/     M anipulation  |
\*---------------------------------------------------------------------------*/
FoamFile
{
    version     2.0;
    format      ascii;
    class       volScalarField;
    location    "3200";
    object      T;
}
// * * * * * * * * * * * * * * * * * * * * * * * * * * * * * * * * * * * * * //

dimensions      [0 0 0 1 0 0 0];

internalField   nonuniform List<scalar> 
4800
(
552.516
552.448
552.383
552.321
552.262
552.206
552.151
552.099
552.048
551.998
551.948
551.898
551.849
551.801
551.753
551.706
551.658
551.611
551.563
551.516
551.469
551.422
551.374
551.327
551.28
551.233
551.185
551.138
551.09
551.042
550.994
550.946
550.899
550.851
550.804
550.757
550.71
550.664
550.618
550.573
550.528
550.484
550.441
550.4
550.359
550.319
550.281
550.244
550.207
550.172
550.137
550.103
550.07
550.036
550.002
549.968
549.933
549.896
549.858
549.817
549.772
549.722
549.665
549.601
549.525
549.437
549.333
549.211
549.068
548.903
548.712
548.494
548.25
547.985
547.7
547.4
547.086
546.761
546.431
546.098
545.764
545.428
545.089
544.745
544.725
544.699
544.664
544.619
544.562
544.495
544.416
544.326
544.226
544.117
544
543.877
543.749
543.617
543.481
543.344
543.205
543.065
542.925
542.785
542.646
542.507
542.368
542.231
542.093
541.957
541.821
541.686
541.551
541.417
541.283
541.149
541.016
540.882
540.749
540.616
552.515
552.447
552.381
552.317
552.257
552.198
552.142
552.087
552.034
551.983
551.933
551.883
551.833
551.785
551.736
551.688
551.64
551.593
551.545
551.498
551.45
551.403
551.356
551.309
551.262
551.214
551.167
551.119
551.072
551.024
550.976
550.929
550.881
550.834
550.786
550.739
550.692
550.646
550.6
550.555
550.51
550.467
550.424
550.382
550.341
550.302
550.263
550.226
550.19
550.155
550.121
550.087
550.054
550.021
549.987
549.953
549.919
549.883
549.844
549.804
549.759
549.709
549.653
549.589
549.514
549.426
549.323
549.202
549.061
548.898
548.711
548.501
548.264
548.004
547.72
547.416
547.099
546.774
546.443
546.108
545.772
545.435
545.093
544.747
544.727
544.701
544.666
544.62
544.564
544.496
544.416
544.326
544.225
544.116
544
543.876
543.748
543.616
543.48
543.343
543.204
543.064
542.924
542.785
542.645
542.506
542.368
542.23
542.093
541.956
541.821
541.685
541.551
541.416
541.282
541.149
541.015
540.882
540.749
540.616
552.514
552.444
552.374
552.307
552.243
552.181
552.121
552.063
552.007
551.954
551.902
551.851
551.8
551.751
551.702
551.653
551.605
551.557
551.509
551.461
551.414
551.366
551.319
551.272
551.225
551.178
551.131
551.083
551.036
550.988
550.94
550.893
550.845
550.798
550.751
550.704
550.657
550.61
550.565
550.519
550.475
550.431
550.388
550.347
550.306
550.267
550.229
550.192
550.157
550.122
550.089
550.056
550.023
549.991
549.958
549.925
549.891
549.855
549.818
549.778
549.733
549.684
549.628
549.565
549.49
549.404
549.302
549.184
549.046
548.887
548.707
548.503
548.273
548.016
547.734
547.433
547.118
546.794
546.463
546.127
545.789
545.447
545.101
544.75
544.731
544.705
544.669
544.623
544.566
544.497
544.417
544.326
544.225
544.115
543.998
543.875
543.746
543.614
543.478
543.341
543.202
543.062
542.923
542.783
542.644
542.505
542.366
542.229
542.092
541.956
541.82
541.685
541.55
541.416
541.282
541.148
541.015
540.882
540.749
540.616
552.512
552.438
552.364
552.291
552.221
552.153
552.088
552.026
551.967
551.911
551.856
551.803
551.751
551.7
551.65
551.601
551.552
551.503
551.455
551.408
551.36
551.313
551.266
551.219
551.172
551.125
551.078
551.031
550.983
550.935
550.888
550.84
550.793
550.745
550.698
550.651
550.605
550.558
550.513
550.467
550.423
550.379
550.337
550.296
550.256
550.217
550.18
550.144
550.109
550.075
550.043
550.011
549.979
549.948
549.916
549.884
549.851
549.816
549.78
549.74
549.697
549.649
549.593
549.53
549.457
549.372
549.273
549.158
549.024
548.871
548.695
548.497
548.272
548.021
547.745
547.45
547.14
546.818
546.488
546.152
545.811
545.464
545.113
544.755
544.737
544.711
544.675
544.628
544.57
544.499
544.418
544.326
544.224
544.114
543.996
543.872
543.743
543.611
543.475
543.338
543.199
543.06
542.92
542.781
542.641
542.503
542.365
542.227
542.09
541.954
541.819
541.684
541.549
541.415
541.281
541.148
541.015
540.882
540.749
540.616
552.51
552.429
552.348
552.268
552.19
552.115
552.044
551.977
551.914
551.854
551.797
551.741
551.687
551.635
551.584
551.533
551.484
551.435
551.387
551.339
551.292
551.245
551.198
551.151
551.105
551.058
551.011
550.964
550.916
550.869
550.821
550.774
550.726
550.679
550.632
550.585
550.538
550.492
550.446
550.401
550.357
550.314
550.272
550.231
550.191
550.153
550.117
550.082
550.049
550.016
549.984
549.954
549.923
549.893
549.863
549.832
549.8
549.767
549.732
549.694
549.651
549.604
549.55
549.488
549.416
549.333
549.236
549.124
548.995
548.847
548.677
548.484
548.267
548.025
547.758
547.47
547.165
546.847
546.518
546.181
545.837
545.487
545.129
544.763
544.746
544.721
544.684
544.635
544.575
544.503
544.419
544.326
544.223
544.111
543.993
543.869
543.739
543.607
543.471
543.334
543.195
543.056
542.917
542.777
542.638
542.5
542.362
542.225
542.088
541.952
541.817
541.682
541.548
541.414
541.28
541.147
541.014
540.881
540.749
540.616
552.505
552.416
552.326
552.237
552.151
552.068
551.99
551.917
551.849
551.785
551.725
551.667
551.611
551.557
551.504
551.453
551.403
551.354
551.306
551.258
551.211
551.164
551.118
551.071
551.025
550.979
550.932
550.885
550.838
550.79
550.743
550.695
550.648
550.601
550.553
550.507
550.46
550.414
550.368
550.323
550.279
550.236
550.194
550.154
550.115
550.077
550.042
550.009
549.976
549.945
549.915
549.886
549.857
549.828
549.8
549.771
549.741
549.709
549.675
549.639
549.598
549.552
549.499
549.438
549.368
549.287
549.193
549.084
548.959
548.816
548.653
548.468
548.259
548.026
547.769
547.49
547.191
546.876
546.55
546.213
545.868
545.513
545.149
544.773
544.76
544.734
544.696
544.645
544.582
544.507
544.421
544.325
544.221
544.108
543.989
543.864
543.735
543.602
543.466
543.329
543.191
543.052
542.912
542.773
542.635
542.497
542.359
542.222
542.086
541.95
541.815
541.68
541.546
541.413
541.279
541.146
541.014
540.881
540.749
540.616
552.5
552.399
552.298
552.199
552.102
552.011
551.925
551.846
551.773
551.705
551.642
551.582
551.524
551.468
551.414
551.361
551.31
551.261
551.213
551.166
551.119
551.073
551.027
550.981
550.935
550.889
550.843
550.796
550.749
550.701
550.654
550.606
550.558
550.511
550.464
550.417
550.37
550.324
550.278
550.233
550.188
550.146
550.104
550.065
550.027
549.991
549.957
549.925
549.894
549.865
549.836
549.809
549.782
549.755
549.729
549.702
549.674
549.644
549.612
549.577
549.538
549.494
549.443
549.384
549.315
549.236
549.145
549.04
548.919
548.781
548.624
548.446
548.246
548.022
547.774
547.503
547.212
546.903
546.581
546.246
545.901
545.546
545.176
544.788
544.78
544.755
544.713
544.657
544.59
544.511
544.423
544.325
544.218
544.105
543.984
543.859
543.729
543.596
543.46
543.323
543.185
543.046
542.908
542.769
542.631
542.493
542.355
542.219
542.083
541.948
541.813
541.678
541.545
541.411
541.278
541.145
541.013
540.88
540.748
540.616
552.494
552.38
552.266
552.154
552.047
551.946
551.852
551.766
551.688
551.616
551.549
551.486
551.426
551.369
551.313
551.259
551.208
551.159
551.11
551.063
551.017
550.971
550.925
550.88
550.835
550.789
550.743
550.696
550.649
550.602
550.554
550.506
550.459
550.411
550.364
550.316
550.269
550.223
550.177
550.132
550.088
550.045
550.004
549.966
549.929
549.894
549.862
549.832
549.803
549.776
549.749
549.724
549.699
549.675
549.651
549.627
549.601
549.574
549.545
549.512
549.475
549.433
549.384
549.327
549.261
549.184
549.095
548.993
548.876
548.743
548.592
548.421
548.229
548.014
547.775
547.514
547.23
546.927
546.607
546.276
545.935
545.584
545.215
544.816
544.815
544.784
544.734
544.672
544.599
544.516
544.424
544.324
544.215
544.1
543.979
543.853
543.722
543.589
543.454
543.317
543.179
543.04
542.902
542.764
542.626
542.488
542.351
542.215
542.08
541.945
541.81
541.676
541.543
541.409
541.277
541.144
541.012
540.88
540.748
540.616
552.486
552.356
552.228
552.103
551.984
551.873
551.771
551.678
551.595
551.518
551.447
551.382
551.32
551.26
551.203
551.148
551.096
551.046
550.998
550.951
550.905
550.859
550.814
550.769
550.724
550.679
550.633
550.587
550.54
550.492
550.444
550.397
550.349
550.301
550.253
550.205
550.158
550.111
550.065
550.02
549.977
549.935
549.895
549.857
549.822
549.79
549.759
549.731
549.705
549.68
549.656
549.634
549.612
549.59
549.57
549.548
549.526
549.502
549.475
549.445
549.411
549.371
549.325
549.27
549.206
549.132
549.045
548.946
548.833
548.705
548.559
548.394
548.209
548.001
547.771
547.517
547.24
546.943
546.63
546.304
545.97
545.629
545.276
544.882
544.873
544.824
544.76
544.688
544.608
544.52
544.425
544.321
544.211
544.094
543.972
543.845
543.715
543.582
543.446
543.309
543.172
543.034
542.896
542.758
542.62
542.483
542.347
542.211
542.076
541.941
541.807
541.673
541.54
541.407
541.275
541.143
541.011
540.879
540.747
540.616
552.477
552.33
552.186
552.047
551.915
551.793
551.682
551.582
551.492
551.411
551.336
551.267
551.203
551.142
551.083
551.027
550.974
550.924
550.876
550.829
550.782
550.737
550.693
550.648
550.604
550.559
550.513
550.467
550.42
550.373
550.325
550.277
550.229
550.181
550.133
550.084
550.037
549.99
549.944
549.899
549.856
549.815
549.776
549.741
549.708
549.678
549.65
549.625
549.602
549.58
549.559
549.54
549.522
549.504
549.487
549.469
549.451
549.43
549.407
549.381
549.349
549.313
549.269
549.217
549.155
549.084
549.001
548.904
548.794
548.669
548.527
548.367
548.188
547.986
547.762
547.515
547.245
546.953
546.644
546.323
545.996
545.672
545.364
545.096
544.965
544.87
544.785
544.702
544.615
544.522
544.423
544.318
544.206
544.088
543.965
543.837
543.706
543.573
543.438
543.301
543.164
543.026
542.889
542.751
542.614
542.478
542.342
542.207
542.072
541.938
541.804
541.671
541.538
541.405
541.273
541.141
541.01
540.878
540.747
540.616
552.467
552.302
552.14
551.985
551.839
551.706
551.585
551.477
551.381
551.295
551.216
551.143
551.076
551.013
550.953
550.897
550.843
550.792
550.744
550.697
550.651
550.605
550.561
550.517
550.472
550.428
550.383
550.337
550.29
550.243
550.195
550.147
550.099
550.05
550.002
549.953
549.905
549.858
549.813
549.768
549.726
549.687
549.65
549.617
549.587
549.56
549.535
549.514
549.494
549.476
549.46
549.445
549.432
549.419
549.406
549.393
549.379
549.363
549.344
549.321
549.294
549.26
549.22
549.171
549.112
549.043
548.963
548.869
548.761
548.639
548.5
548.343
548.167
547.971
547.752
547.51
547.245
546.958
546.652
546.331
546.004
545.686
545.399
545.168
545.011
544.897
544.8
544.709
544.617
544.521
544.42
544.312
544.199
544.08
543.956
543.828
543.697
543.564
543.429
543.293
543.156
543.019
542.881
542.744
542.608
542.472
542.337
542.202
542.067
541.934
541.8
541.668
541.535
541.403
541.271
541.14
541.009
540.877
540.746
540.615
552.457
552.272
552.091
551.917
551.756
551.61
551.48
551.364
551.261
551.169
551.085
551.01
550.94
550.875
550.814
550.757
550.702
550.651
550.602
550.555
550.509
550.464
550.419
550.375
550.33
550.286
550.241
550.196
550.15
550.102
550.055
550.006
549.958
549.909
549.86
549.812
549.764
549.717
549.672
549.629
549.588
549.551
549.517
549.486
549.46
549.437
549.417
549.399
549.385
549.372
549.361
549.352
549.344
549.337
549.33
549.323
549.314
549.304
549.29
549.272
549.249
549.219
549.182
549.136
549.081
549.015
548.937
548.845
548.739
548.618
548.48
548.326
548.152
547.958
547.742
547.504
547.242
546.956
546.648
546.322
545.985
545.656
545.368
545.157
545.009
544.896
544.799
544.707
544.614
544.517
544.413
544.305
544.19
544.07
543.946
543.818
543.687
543.554
543.419
543.283
543.147
543.01
542.874
542.737
542.601
542.466
542.331
542.197
542.063
541.93
541.797
541.664
541.532
541.401
541.269
541.138
541.007
540.877
540.746
540.615
552.446
552.239
552.036
551.844
551.667
551.507
551.366
551.242
551.131
551.033
550.945
550.866
550.793
550.727
550.664
550.606
550.551
550.5
550.45
550.403
550.356
550.311
550.266
550.222
550.177
550.132
550.088
550.043
549.997
549.95
549.902
549.854
549.806
549.757
549.708
549.659
549.611
549.565
549.521
549.48
549.442
549.408
549.377
549.351
549.328
549.31
549.295
549.283
549.274
549.268
549.264
549.262
549.262
549.262
549.263
549.263
549.261
549.257
549.249
549.236
549.218
549.192
549.159
549.117
549.064
549
548.924
548.834
548.73
548.61
548.473
548.318
548.145
547.951
547.737
547.499
547.237
546.948
546.633
546.293
545.933
545.571
545.256
545.078
544.963
544.87
544.784
544.697
544.605
544.508
544.404
544.295
544.18
544.06
543.935
543.807
543.676
543.543
543.409
543.273
543.137
543.001
542.865
542.73
542.594
542.459
542.325
542.191
542.058
541.925
541.793
541.661
541.529
541.398
541.267
541.137
541.006
540.876
540.745
540.615
552.434
552.204
551.978
551.765
551.57
551.396
551.243
551.109
550.992
550.887
550.794
550.711
550.636
550.568
550.505
550.446
550.391
550.339
550.289
550.241
550.194
550.148
550.102
550.057
550.011
549.966
549.922
549.877
549.831
549.785
549.737
549.689
549.641
549.592
549.543
549.494
549.447
549.403
549.361
549.323
549.288
549.258
549.232
549.21
549.193
549.18
549.172
549.168
549.167
549.169
549.174
549.181
549.19
549.199
549.209
549.218
549.224
549.227
549.226
549.22
549.207
549.186
549.157
549.117
549.068
549.006
548.931
548.842
548.738
548.617
548.479
548.323
548.148
547.953
547.736
547.497
547.232
546.939
546.614
546.254
545.857
545.428
545.011
544.936
544.888
544.83
544.76
544.68
544.592
544.496
544.393
544.283
544.168
544.048
543.923
543.795
543.665
543.532
543.398
543.263
543.128
542.992
542.857
542.722
542.587
542.453
542.319
542.186
542.053
541.921
541.789
541.657
541.526
541.396
541.265
541.135
541.005
540.875
540.745
540.615
552.421
552.165
551.915
551.68
551.465
551.276
551.112
550.968
550.843
550.732
550.634
550.547
550.47
550.4
550.336
550.276
550.22
550.167
550.117
550.068
550.02
549.973
549.927
549.88
549.833
549.787
549.742
549.697
549.651
549.605
549.558
549.51
549.462
549.414
549.365
549.318
549.272
549.229
549.19
549.156
549.126
549.102
549.082
549.067
549.056
549.052
549.052
549.057
549.066
549.078
549.094
549.113
549.133
549.154
549.175
549.193
549.209
549.222
549.228
549.228
549.221
549.204
549.178
549.142
549.094
549.033
548.959
548.87
548.765
548.643
548.503
548.344
548.165
547.966
547.747
547.503
547.233
546.931
546.595
546.217
545.786
545.258
544.456
544.77
544.823
544.796
544.738
544.663
544.577
544.483
544.38
544.27
544.155
544.035
543.911
543.783
543.653
543.52
543.387
543.253
543.118
542.983
542.848
542.714
542.579
542.446
542.313
542.18
542.048
541.916
541.785
541.654
541.523
541.393
541.263
541.133
541.003
540.874
540.744
540.615
552.407
552.123
551.846
551.587
551.353
551.148
550.97
550.817
550.684
550.568
550.465
550.375
550.295
550.222
550.157
550.097
550.04
549.986
549.935
549.885
549.835
549.787
549.738
549.69
549.642
549.594
549.548
549.502
549.456
549.41
549.363
549.316
549.268
549.221
549.173
549.127
549.084
549.045
549.01
548.981
548.958
548.94
548.928
548.921
548.921
548.926
548.937
548.954
548.976
549.002
549.032
549.064
549.098
549.133
549.166
549.197
549.224
549.246
549.261
549.268
549.266
549.254
549.231
549.197
549.15
549.09
549.015
548.924
548.816
548.691
548.547
548.383
548.2
547.995
547.769
547.518
547.24
546.931
546.589
546.21
545.797
545.358
544.947
544.875
544.836
544.786
544.723
544.648
544.563
544.468
544.366
544.256
544.141
544.021
543.897
543.77
543.64
543.508
543.375
543.242
543.107
542.973
542.839
542.705
542.572
542.439
542.306
542.174
542.043
541.911
541.781
541.65
541.52
541.39
541.261
541.131
541.002
540.873
540.744
540.615
552.391
552.076
551.772
551.488
551.233
551.01
550.82
550.657
550.517
550.395
550.289
550.195
550.112
550.038
549.971
549.909
549.85
549.795
549.742
549.69
549.639
549.588
549.537
549.486
549.435
549.386
549.337
549.29
549.244
549.198
549.151
549.105
549.058
549.012
548.966
548.923
548.883
548.848
548.819
548.797
548.782
548.774
548.772
548.777
548.788
548.807
548.833
548.865
548.903
548.946
548.993
549.042
549.093
549.143
549.191
549.236
549.275
549.308
549.332
549.346
549.35
549.341
549.32
549.287
549.24
549.178
549.101
549.006
548.894
548.763
548.614
548.444
548.253
548.04
547.805
547.545
547.259
546.943
546.596
546.22
545.825
545.435
545.109
544.948
544.857
544.785
544.713
544.635
544.548
544.453
544.35
544.241
544.127
544.007
543.883
543.756
543.627
543.496
543.364
543.231
543.097
542.964
542.83
542.697
542.564
542.432
542.3
542.168
542.037
541.907
541.776
541.647
541.517
541.387
541.258
541.129
541
540.872
540.743
540.614
552.374
552.027
551.693
551.383
551.106
550.866
550.663
550.49
550.343
550.217
550.107
550.01
549.924
549.848
549.778
549.713
549.652
549.595
549.538
549.484
549.43
549.376
549.321
549.267
549.213
549.161
549.11
549.061
549.013
548.966
548.92
548.874
548.829
548.785
548.743
548.704
548.669
548.641
548.619
548.606
548.601
548.604
548.616
548.635
548.663
548.699
548.743
548.795
548.853
548.916
548.984
549.053
549.123
549.192
549.257
549.317
549.37
549.414
549.448
549.469
549.477
549.471
549.45
549.416
549.367
549.302
549.22
549.12
549.002
548.864
548.705
548.527
548.327
548.105
547.86
547.59
547.292
546.967
546.612
546.232
545.836
545.445
545.107
544.951
544.855
544.778
544.701
544.621
544.533
544.437
544.335
544.226
544.111
543.992
543.869
543.743
543.614
543.483
543.352
543.219
543.087
542.954
542.821
542.689
542.556
542.425
542.293
542.163
542.032
541.902
541.772
541.643
541.514
541.385
541.256
541.127
540.999
540.871
540.742
540.614
552.357
551.977
551.611
551.273
550.973
550.715
550.499
550.318
550.165
550.034
549.921
549.822
549.734
549.654
549.582
549.513
549.448
549.387
549.326
549.267
549.208
549.149
549.09
549.032
548.974
548.918
548.864
548.812
548.763
548.715
548.669
548.625
548.582
548.541
548.503
548.47
548.442
548.422
548.41
548.408
548.416
548.435
548.463
548.501
548.549
548.607
548.674
548.749
548.832
548.92
549.012
549.105
549.196
549.285
549.369
549.446
549.514
549.57
549.613
549.64
549.651
549.646
549.625
549.588
549.535
549.465
549.377
549.269
549.141
548.994
548.825
548.636
548.425
548.191
547.934
547.652
547.342
547.005
546.639
546.247
545.832
545.396
544.919
544.889
544.829
544.761
544.686
544.605
544.516
544.42
544.318
544.209
544.095
543.977
543.854
543.728
543.6
543.471
543.34
543.208
543.076
542.944
542.812
542.68
542.549
542.418
542.287
542.157
542.027
541.897
541.768
541.639
541.511
541.382
541.254
541.126
540.998
540.87
540.742
540.614
552.34
551.925
551.528
551.161
550.837
550.561
550.333
550.143
549.985
549.852
549.736
549.635
549.544
549.461
549.384
549.31
549.239
549.171
549.104
549.038
548.972
548.907
548.842
548.778
548.715
548.655
548.598
548.544
548.493
548.444
548.398
548.355
548.314
548.278
548.246
548.22
548.202
548.192
548.193
548.205
548.23
548.267
548.316
548.377
548.45
548.535
548.63
548.734
548.845
548.961
549.08
549.199
549.315
549.426
549.531
549.625
549.708
549.776
549.828
549.86
549.874
549.868
549.844
549.801
549.742
549.665
549.569
549.453
549.315
549.156
548.975
548.774
548.55
548.304
548.033
547.736
547.413
547.063
546.684
546.276
545.841
545.375
544.873
544.852
544.804
544.742
544.669
544.588
544.499
544.403
544.301
544.192
544.079
543.961
543.839
543.714
543.587
543.458
543.328
543.197
543.066
542.935
542.803
542.672
542.541
542.411
542.281
542.151
542.022
541.893
541.764
541.636
541.507
541.379
541.252
541.124
540.996
540.869
540.741
540.614
552.323
551.875
551.445
551.05
550.702
550.409
550.168
549.971
549.81
549.674
549.557
549.454
549.36
549.272
549.19
549.109
549.03
548.952
548.875
548.799
548.723
548.649
548.575
548.504
548.435
548.371
548.31
548.253
548.2
548.151
548.106
548.065
548.028
547.997
547.972
547.956
547.948
547.952
547.968
547.998
548.044
548.104
548.178
548.267
548.37
548.485
548.612
548.748
548.892
549.039
549.187
549.334
549.476
549.611
549.737
549.849
549.947
550.027
550.087
550.125
550.139
550.131
550.102
550.053
549.986
549.901
549.796
549.67
549.521
549.351
549.158
548.944
548.708
548.449
548.165
547.855
547.518
547.152
546.758
546.333
545.875
545.385
544.864
544.834
544.786
544.725
544.652
544.57
544.481
544.385
544.283
544.175
544.062
543.945
543.824
543.7
543.574
543.446
543.316
543.186
543.056
542.925
542.795
542.664
542.534
542.404
542.275
542.146
542.017
541.888
541.76
541.632
541.505
541.377
541.25
541.122
540.995
540.868
540.741
540.614
552.307
551.826
551.366
550.943
550.572
550.261
550.01
549.808
549.644
549.507
549.389
549.284
549.186
549.093
549.002
548.911
548.821
548.73
548.64
548.55
548.461
548.374
548.289
548.208
548.132
548.062
547.998
547.939
547.885
547.837
547.793
547.755
547.723
547.698
547.682
547.676
547.682
547.702
547.737
547.789
547.859
547.946
548.05
548.171
548.307
548.458
548.62
548.792
548.969
549.148
549.327
549.502
549.67
549.829
549.975
550.106
550.218
550.31
550.378
550.419
550.434
550.423
550.388
550.331
550.256
550.162
550.049
549.914
549.756
549.576
549.373
549.149
548.903
548.631
548.336
548.013
547.663
547.283
546.872
546.425
545.939
545.414
544.869
544.821
544.771
544.709
544.635
544.552
544.462
544.366
544.264
544.157
544.045
543.929
543.809
543.686
543.56
543.433
543.305
543.176
543.046
542.916
542.786
542.657
542.527
542.398
542.269
542.141
542.012
541.884
541.757
541.629
541.502
541.375
541.247
541.121
540.994
540.867
540.74
540.613
552.291
551.781
551.293
550.846
550.456
550.131
549.869
549.662
549.498
549.361
549.243
549.135
549.032
548.93
548.828
548.723
548.616
548.508
548.399
548.291
548.184
548.081
547.982
547.889
547.805
547.729
547.661
547.601
547.548
547.501
547.46
547.426
547.4
547.384
547.378
547.385
547.406
547.444
547.501
547.578
547.675
547.793
547.931
548.087
548.261
548.448
548.647
548.854
549.064
549.274
549.481
549.682
549.875
550.056
550.222
550.37
550.496
550.598
550.674
550.719
550.733
550.719
550.679
550.616
550.534
550.433
550.314
550.172
550.009
549.823
549.616
549.387
549.135
548.856
548.552
548.219
547.857
547.462
547.031
546.557
546.03
545.447
544.873
544.79
544.749
544.691
544.617
544.533
544.442
544.346
544.245
544.139
544.028
543.912
543.794
543.672
543.547
543.421
543.294
543.166
543.037
542.908
542.778
542.649
542.521
542.392
542.264
542.136
542.008
541.88
541.753
541.626
541.499
541.372
541.246
541.119
540.992
540.866
540.74
540.613
552.276
551.739
551.229
550.766
550.365
550.031
549.762
549.549
549.382
549.244
549.124
549.012
548.903
548.789
548.671
548.548
548.419
548.287
548.154
548.022
547.893
547.77
547.655
547.548
547.453
547.372
547.302
547.241
547.19
547.146
547.109
547.081
547.063
547.056
547.061
547.083
547.122
547.181
547.261
547.366
547.494
547.645
547.819
548.012
548.223
548.447
548.68
548.919
549.158
549.395
549.625
549.848
550.062
550.263
550.446
550.608
550.746
550.857
550.938
550.985
550.999
550.983
550.939
550.873
550.788
550.686
550.564
550.421
550.259
550.076
549.872
549.646
549.394
549.114
548.805
548.465
548.092
547.682
547.23
546.723
546.139
545.419
544.333
544.679
544.717
544.672
544.599
544.513
544.422
544.326
544.225
544.12
544.01
543.896
543.779
543.658
543.535
543.41
543.283
543.156
543.028
542.9
542.771
542.643
542.514
542.386
542.259
542.131
542.004
541.877
541.75
541.623
541.497
541.37
541.244
541.118
540.991
540.865
540.739
540.613
552.266
551.71
551.19
550.721
550.313
549.97
549.693
549.477
549.306
549.167
549.044
548.926
548.806
548.677
548.537
548.388
548.231
548.069
547.905
547.742
547.587
547.442
547.307
547.185
547.081
546.995
546.923
546.864
546.816
546.777
546.747
546.727
546.717
546.72
546.739
546.775
546.833
546.914
547.021
547.154
547.314
547.5
547.709
547.939
548.184
548.441
548.704
548.968
549.228
549.482
549.728
549.967
550.198
550.415
550.612
550.783
550.928
551.044
551.128
551.175
551.188
551.17
551.126
551.062
550.982
550.885
550.767
550.63
550.476
550.305
550.114
549.897
549.648
549.365
549.053
548.707
548.322
547.893
547.42
546.885
546.283
545.637
545.015
544.807
544.728
544.658
544.578
544.492
544.4
544.305
544.205
544.102
543.993
543.881
543.764
543.645
543.523
543.399
543.273
543.147
543.02
542.892
542.764
542.636
542.509
542.381
542.254
542.127
542
541.873
541.747
541.62
541.494
541.368
541.242
541.116
540.99
540.865
540.739
540.613
552.276
551.736
551.218
550.74
550.319
549.965
549.682
549.46
549.284
549.138
549.008
548.88
548.745
548.595
548.428
548.246
548.051
547.85
547.65
547.451
547.264
547.095
546.942
546.806
546.693
546.603
546.533
546.477
546.434
546.402
546.381
546.37
546.371
546.385
546.417
546.469
546.546
546.649
546.782
546.945
547.137
547.355
547.599
547.861
548.137
548.42
548.704
548.983
549.255
549.516
549.768
550.016
550.26
550.49
550.695
550.87
551.012
551.126
551.209
551.254
551.264
551.243
551.2
551.145
551.079
550.996
550.886
550.757
550.618
550.466
550.282
550.063
549.806
549.497
549.173
548.804
548.407
547.95
547.47
546.908
546.264
545.651
545.072
544.731
544.679
544.623
544.55
544.466
544.377
544.283
544.185
544.083
543.976
543.865
543.751
543.633
543.512
543.389
543.264
543.139
543.012
542.885
542.758
542.631
542.503
542.376
542.25
542.123
541.996
541.87
541.744
541.618
541.492
541.366
541.241
541.115
540.989
540.864
540.738
540.613
552.293
551.783
551.288
550.822
550.399
550.036
549.743
549.511
549.324
549.165
549.023
548.881
548.726
548.548
548.347
548.121
547.878
547.629
547.385
547.147
546.926
546.732
546.564
546.417
546.297
546.207
546.139
546.088
546.052
546.03
546.02
546.02
546.033
546.059
546.103
546.17
546.265
546.391
546.55
546.741
546.964
547.214
547.489
547.78
548.08
548.383
548.68
548.964
549.237
549.498
549.747
549.994
550.243
550.484
550.697
550.872
551.003
551.105
551.183
551.224
551.228
551.2
551.162
551.123
551.08
551.008
550.879
550.745
550.617
550.478
550.247
549.957
549.664
549.261
548.902
548.414
548.019
547.509
547.143
546.603
545.871
545.32
544.644
544.542
544.583
544.572
544.515
544.438
544.352
544.261
544.165
544.065
543.96
543.851
543.738
543.621
543.502
543.38
543.256
543.131
543.005
542.879
542.752
542.626
542.499
542.372
542.246
542.12
541.993
541.868
541.742
541.616
541.49
541.365
541.239
541.114
540.989
540.863
540.738
540.613
552.33
551.884
551.437
551.001
550.586
550.21
549.9
549.651
549.442
549.259
549.098
548.937
548.758
548.547
548.304
548.024
547.717
547.404
547.108
546.829
546.577
546.361
546.183
546.033
545.911
545.821
545.755
545.707
545.678
545.667
545.67
545.685
545.709
545.747
545.803
545.887
546.003
546.155
546.34
546.557
546.806
547.084
547.388
547.702
548.027
548.352
548.662
548.944
549.215
549.466
549.705
549.937
550.166
550.414
550.649
550.858
550.961
551.027
551.099
551.144
551.134
551.126
551.13
551.124
551.122
550.988
550.717
550.528
550.39
550.265
549.765
549.252
548.829
548.326
547.773
546.7
546.277
545.898
546.417
545.638
545.455
545.047
544.576
544.565
544.563
544.539
544.484
544.41
544.327
544.239
544.146
544.048
543.945
543.838
543.726
543.611
543.493
543.372
543.249
543.125
543
542.874
542.748
542.621
542.495
542.369
542.243
542.117
541.991
541.865
541.74
541.614
541.489
541.364
541.238
541.113
540.988
540.863
540.738
540.613
552.396
552.066
551.706
551.324
550.922
550.52
550.177
549.897
549.655
549.428
549.244
549.062
548.864
548.614
548.324
547.973
547.585
547.191
546.833
546.513
546.238
546
545.824
545.684
545.56
545.467
545.397
545.338
545.309
545.31
545.331
545.358
545.392
545.44
545.515
545.63
545.785
545.978
546.189
546.41
546.674
546.981
547.323
547.644
548.01
548.425
548.778
549.012
549.263
549.46
549.657
549.868
550.058
550.194
550.425
550.687
550.864
550.95
551.165
551.251
551.19
551.208
551.323
551.164
551.297
550.935
550.793
550.495
549.864
549.843
549.316
548.916
547.929
547.604
546.961
546.881
546.194
546.215
546.363
545.69
545.284
545.11
544.784
544.609
544.559
544.513
544.455
544.383
544.302
544.217
544.127
544.032
543.932
543.827
543.717
543.602
543.485
543.365
543.243
543.119
542.995
542.869
542.744
542.618
542.492
542.366
542.24
542.114
541.989
541.863
541.738
541.613
541.488
541.363
541.238
541.113
540.987
540.862
540.737
540.612
552.508
552.369
552.137
551.837
551.449
551.01
550.619
550.29
549.997
549.677
549.466
549.253
549.061
548.748
548.417
547.949
547.478
547.003
546.581
546.227
545.958
545.699
545.554
545.437
545.291
545.185
545.09
544.978
544.927
544.944
544.973
545.009
545.048
545.101
545.225
545.429
545.667
545.932
546.129
546.26
546.535
546.93
547.334
547.506
547.907
548.571
548.985
549.098
549.524
549.427
549.413
549.67
550.008
549.882
550.318
551.255
551.238
551.138
551.869
552.055
551.34
551.331
551.735
551.653
551.103
550.735
550.943
550.844
550.136
549.855
549.551
549.181
548.852
548.232
547.75
547.647
547.156
546.863
546.564
546.058
545.507
545.307
544.931
544.642
544.523
544.48
544.424
544.357
544.279
544.196
544.11
544.018
543.921
543.817
543.709
543.596
543.479
543.36
543.238
543.115
542.991
542.866
542.741
542.615
542.49
542.364
542.238
542.113
541.987
541.862
541.737
541.612
541.487
541.362
541.237
541.112
540.987
540.862
540.737
540.612
552.693
552.833
552.743
552.53
552.127
551.697
551.299
550.911
550.593
550.238
549.835
549.453
549.249
548.961
548.477
547.836
547.451
547.132
546.67
546.315
546.132
545.922
545.767
545.381
545.335
545.269
545.067
544.799
544.719
544.655
544.573
544.622
544.666
544.685
544.876
545.121
545.31
545.54
545.464
545.224
545.432
546.295
547.176
546.908
547.521
548.593
548.864
548.708
549.531
548.937
548.369
548.933
549.795
549.54
549.328
550.57
550.73
550.708
551.342
551.535
551.05
550.905
551.204
550.97
550.747
550.675
550.722
550.807
550.539
550.29
550.104
549.831
549.759
549.199
548.925
548.48
548.178
547.537
547.194
546.512
545.966
545.512
544.999
544.66
544.518
544.443
544.395
544.334
544.256
544.175
544.095
544.007
543.912
543.811
543.703
543.591
543.475
543.356
543.235
543.113
542.989
542.864
542.739
542.614
542.488
542.363
542.237
542.112
541.986
541.861
541.736
541.611
541.486
541.361
541.237