/*--------------------------------*- C++ -*----------------------------------*\
  =========                 |
  \\      /  F ield         | OpenFOAM: The Open Source CFD Toolbox
   \\    /   O peration     | Website:  https://openfoam.org
    \\  /    A nd           | Version:  6
     \\/     M anipulation  |
\*---------------------------------------------------------------------------*/
FoamFile
{
    version     2.0;
    format      ascii;
    class       volVectorField;
    location    "3200";
    object      U;
}
// * * * * * * * * * * * * * * * * * * * * * * * * * * * * * * * * * * * * * //

dimensions      [0 1 -1 0 0 0 0];

internalField   nonuniform List<vector> 
4800
(
(-0.000192661 0 6.11737e-05)
(-0.000330508 0 -3.054e-06)
(0.000159589 0 -0.000358941)
(-0.000265998 0 -0.000402699)
(0.000459679 0 -0.000357804)
(0.000632383 0 -0.000274313)
(0.000827702 0 -0.000287526)
(0.00112722 0 -0.000178202)
(0.0014407 0 -0.000383306)
(0.00177414 0 -0.000138431)
(0.00191832 0 -0.000159359)
(0.00199843 0 -0.00018806)
(0.00213383 0 -0.000190718)
(0.00233749 0 -0.00014982)
(0.00235964 0 -0.00013257)
(0.00235421 0 -0.000115533)
(0.00239321 0 -0.000117722)
(0.00246966 0 -8.36361e-05)
(0.00253398 0 -0.000123781)
(0.00257179 0 -0.000161488)
(0.00259266 0 -7.43902e-05)
(0.00260518 0 -6.36129e-05)
(0.00262062 0 -9.43217e-05)
(0.00264544 0 -8.89234e-05)
(0.00265533 0 -5.36281e-05)
(0.00265374 0 -4.96023e-05)
(0.00265209 0 -4.17599e-05)
(0.00264627 0 -3.65442e-05)
(0.00263237 0 -3.51748e-05)
(0.00261238 0 -3.08552e-05)
(0.00259054 0 -3.04406e-05)
(0.00257664 0 -1.46169e-05)
(0.00256928 0 -1.09521e-05)
(0.00256145 0 -1.32087e-05)
(0.00255975 0 -2.21032e-05)
(0.00256248 0 -1.48383e-05)
(0.00256769 0 -1.43627e-05)
(0.00257473 0 -3.26625e-05)
(0.00258583 0 -2.41482e-05)
(0.00259405 0 -3.20368e-05)
(0.00260039 0 -4.04298e-05)
(0.00261372 0 -4.57159e-05)
(0.00263935 0 -5.81883e-05)
(0.0026776 0 -4.19068e-05)
(0.00270497 0 -7.37147e-05)
(0.00271294 0 -8.61808e-05)
(0.00272922 0 -7.99369e-05)
(0.00275654 0 -0.000102091)
(0.00279143 0 -0.000120758)
(0.00282994 0 -7.52229e-05)
(0.00283678 0 -4.68189e-05)
(0.00283338 0 -4.1599e-05)
(0.00282501 0 -1.81254e-05)
(0.00280835 0 -2.42233e-05)
(0.00278285 0 -1.66623e-05)
(0.00275313 0 -2.57334e-05)
(0.00272511 0 -1.41192e-05)
(0.00269052 0 -1.64064e-05)
(0.00265036 0 1.05397e-05)
(0.0026197 0 -1.42761e-05)
(0.002586 0 -2.43098e-05)
(0.00253293 0 4.39634e-06)
(0.00245405 0 -2.37501e-05)
(0.00235351 0 -3.64664e-05)
(0.00223885 0 3.40397e-05)
(0.00210069 0 -9.2584e-06)
(0.00193714 0 0.000108278)
(0.00173977 0 0.000174659)
(0.00152856 0 2.97504e-05)
(0.00129561 0 0.000294599)
(0.00115981 0 -7.03136e-05)
(0.000790392 0 0.000143929)
(-0.000270026 0 9.51728e-05)
(3.06344e-05 0 0.000125626)
(-0.000129703 0 8.54916e-05)
(-0.000150447 0 -8.68255e-06)
(-0.00021801 0 2.99879e-05)
(-0.000296466 0 2.28904e-05)
(-0.000335064 0 7.28394e-06)
(-0.000313002 0 -0.000106157)
(-0.000260236 0 -0.000114064)
(-0.000141705 0 -0.000177038)
(4.14838e-08 0 -0.000127205)
(-7.40876e-13 0 1.03644e-13)
(-1.34333e-12 0 7.88417e-14)
(-1.51534e-12 0 4.43109e-14)
(-1.57143e-12 0 1.24581e-14)
(-1.56973e-12 0 -1.34915e-14)
(-1.52151e-12 0 -3.40356e-14)
(-1.43673e-12 0 -4.99909e-14)
(-1.32379e-12 0 -6.21223e-14)
(-1.19004e-12 0 -7.09942e-14)
(-1.04195e-12 0 -7.69851e-14)
(-8.85127e-13 0 -8.03784e-14)
(-7.2428e-13 0 -8.14547e-14)
(-5.6345e-13 0 -8.0498e-14)
(-4.06209e-13 0 -7.77738e-14)
(-2.55627e-13 0 -7.35713e-14)
(-1.14251e-13 0 -6.82243e-14)
(1.57203e-14 0 -6.20297e-14)
(1.32456e-13 0 -5.52095e-14)
(2.34734e-13 0 -4.79481e-14)
(3.21938e-13 0 -4.04175e-14)
(3.93913e-13 0 -3.2776e-14)
(4.50871e-13 0 -2.51731e-14)
(4.93261e-13 0 -1.77514e-14)
(5.21635e-13 0 -1.06443e-14)
(5.36615e-13 0 -3.9631e-15)
(5.38955e-13 0 2.21617e-15)
(5.29625e-13 0 7.8379e-15)
(5.0977e-13 0 1.28396e-14)
(4.8051e-13 0 1.71677e-14)
(4.4284e-13 0 2.08371e-14)
(3.97737e-13 0 2.39572e-14)
(3.46325e-13 0 2.66691e-14)
(2.89849e-13 0 2.9046e-14)
(2.2948e-13 0 3.10497e-14)
(1.66174e-13 0 3.25808e-14)
(1.00699e-13 0 3.3574e-14)
(3.37537e-14 0 3.4101e-14)
(-0.000202126 0 0.000167702)
(-0.000106125 0 0.000137849)
(4.93953e-05 0 -0.000269491)
(0.000424929 0 -4.76384e-05)
(0.000605849 0 -0.000405989)
(0.000920406 0 -0.000301819)
(0.00107083 0 -0.000520357)
(0.00133384 0 -0.000485679)
(0.00156369 0 -0.000629951)
(0.00185781 0 -8.29404e-05)
(0.00196813 0 -0.000270641)
(0.00208975 0 -0.000206825)
(0.00223185 0 -0.000110279)
(0.00240312 0 -0.000112948)
(0.00242448 0 -0.000127936)
(0.00241777 0 -9.90836e-05)
(0.00243602 0 -6.81106e-05)
(0.00246919 0 -5.82934e-05)
(0.00251267 0 -1.87467e-05)
(0.0025576 0 -5.02086e-05)
(0.00258109 0 -4.93547e-05)
(0.00260093 0 -3.47297e-05)
(0.00262655 0 1.24995e-05)
(0.00263034 0 3.30225e-05)
(0.00262604 0 3.25557e-05)
(0.00261495 0 2.71933e-05)
(0.00260388 0 4.02214e-05)
(0.00259896 0 4.6445e-05)
(0.00259496 0 4.71086e-05)
(0.00259394 0 4.86597e-05)
(0.00259589 0 4.91978e-05)
(0.00260133 0 3.3187e-05)
(0.0026021 0 2.40157e-05)
(0.0025997 0 1.11606e-05)
(0.00259816 0 1.16927e-05)
(0.00259846 0 7.97363e-06)
(0.0025978 0 4.93295e-06)
(0.00259584 0 1.62644e-05)
(0.00259498 0 8.13245e-06)
(0.00259172 0 1.11793e-06)
(0.00259043 0 2.8479e-06)
(0.00259566 0 4.60638e-06)
(0.0026083 0 5.70401e-06)
(0.00262277 0 1.95062e-05)
(0.00263565 0 -4.3277e-06)
(0.002648 0 -2.65261e-05)
(0.00266554 0 -1.20542e-05)
(0.0026909 0 1.39461e-05)
(0.00271108 0 1.42148e-05)
(0.0027241 0 1.8466e-05)
(0.00272967 0 3.42948e-05)
(0.00273111 0 4.37218e-05)
(0.0027293 0 4.92444e-05)
(0.00272187 0 5.42817e-05)
(0.00271092 0 6.65225e-05)
(0.00269419 0 4.65903e-05)
(0.00266916 0 9.0197e-05)
(0.00263445 0 4.63009e-05)
(0.00258561 0 5.40427e-05)
(0.00254518 0 7.20639e-05)
(0.00250418 0 0.000127306)
(0.00244838 0 8.20802e-05)
(0.00236423 0 0.000199797)
(0.00228431 0 0.000155068)
(0.00217731 0 0.000244712)
(0.00203932 0 0.000286401)
(0.00187257 0 0.000220214)
(0.00164573 0 0.0004202)
(0.00150233 0 0.000179627)
(0.00125019 0 0.000286226)
(0.00116874 0 0.000185404)
(0.000907724 0 0.000574957)
(0.000720335 0 0.000320972)
(0.000781795 0 8.57331e-05)
(0.000677409 0 6.50164e-05)
(4.96618e-05 0 0.00016609)
(-7.5243e-05 0 0.000166646)
(-0.000196025 0 0.000108177)
(-0.000262752 0 3.85893e-05)
(-0.000278904 0 -3.70107e-05)
(-0.000246105 0 -0.000115217)
(-0.000143299 0 -0.00023126)
(1.36047e-07 0 -0.000209931)
(-8.08376e-13 0 4.8967e-13)
(-1.38842e-12 0 2.59427e-13)
(-1.58164e-12 0 1.30482e-13)
(-1.62912e-12 0 3.1658e-14)
(-1.61608e-12 0 -4.5695e-14)
(-1.55792e-12 0 -1.06563e-13)
(-1.4648e-12 0 -1.53977e-13)
(-1.3448e-12 0 -1.90115e-13)
(-1.2049e-12 0 -2.1648e-13)
(-1.05134e-12 0 -2.3412e-13)
(-8.89597e-13 0 -2.43892e-13)
(-7.244e-13 0 -2.46663e-13)
(-5.59769e-13 0 -2.43335e-13)
(-3.99282e-13 0 -2.34809e-13)
(-2.46077e-13 0 -2.21999e-13)
(-1.02709e-13 0 -2.05814e-13)
(2.87351e-14 0 -1.87019e-13)
(1.46538e-13 0 -1.66247e-13)
(2.49526e-13 0 -1.44071e-13)
(3.3711e-13 0 -1.21053e-13)
(4.09157e-13 0 -9.77487e-14)
(4.65896e-13 0 -7.46878e-14)
(5.0779e-13 0 -5.23436e-14)
(5.35423e-13 0 -3.10889e-14)
(5.49476e-13 0 -1.11945e-14)
(5.50756e-13 0 7.12807e-15)
(5.40249e-13 0 2.3698e-14)
(5.19099e-13 0 3.84021e-14)
(4.88508e-13 0 5.12692e-14)
(4.49629e-13 0 6.24893e-14)
(4.03569e-13 0 7.2316e-14)
(3.51414e-13 0 8.09069e-14)
(2.94229e-13 0 8.82366e-14)
(2.33015e-13 0 9.41511e-14)
(1.68699e-13 0 9.8508e-14)
(1.02219e-13 0 1.01292e-13)
(3.42807e-14 0 1.02718e-13)
(-0.000222396 0 0.00032697)
(0.00022957 0 9.28156e-05)
(0.000233158 0 -0.000530907)
(0.000507595 0 -0.000703634)
(0.000624944 0 -0.000922926)
(0.00104438 0 -0.000653947)
(0.00125066 0 -0.000628781)
(0.00135622 0 -0.000813517)
(0.00162687 0 -0.000493689)
(0.00175156 0 -0.000435592)
(0.00188752 0 -0.000356137)
(0.00199632 0 -0.000346048)
(0.00210773 0 -0.000331205)
(0.0022565 0 -0.000310362)
(0.00232551 0 -0.000206667)
(0.00232377 0 -0.000172802)
(0.00233305 0 -0.000128588)
(0.00233999 0 -0.000104792)
(0.00234834 0 -0.000102985)
(0.00235294 0 -6.40783e-05)
(0.00235018 0 -5.76043e-05)
(0.00234346 0 -4.69374e-05)
(0.00233956 0 -4.86352e-05)
(0.00234518 0 -4.90262e-05)
(0.00236089 0 -2.04173e-05)
(0.00236382 0 -2.1444e-06)
(0.00236235 0 7.06518e-07)
(0.00236232 0 6.37975e-07)
(0.00236401 0 -2.32671e-06)
(0.00236749 0 -6.44948e-06)
(0.00237456 0 -5.93166e-06)
(0.00238142 0 3.9872e-06)
(0.00238214 0 2.14882e-06)
(0.00238116 0 3.63392e-06)
(0.00237718 0 -5.82164e-06)
(0.00237062 0 -1.35412e-06)
(0.00236213 0 1.45479e-06)
(0.00234936 0 -1.46727e-05)
(0.00233816 0 -5.16513e-06)
(0.00232915 0 -1.29463e-06)
(0.00232058 0 -4.09741e-05)
(0.00232168 0 -5.12754e-05)
(0.00232897 0 -5.95151e-05)
(0.00233688 0 -7.82648e-05)
(0.0023368 0 -8.42779e-05)
(0.00233899 0 -8.23029e-05)
(0.00234298 0 -8.30482e-05)
(0.0023468 0 -7.47143e-05)
(0.00235691 0 -9.85837e-05)
(0.00237099 0 -6.86498e-05)
(0.00237636 0 -5.47625e-05)
(0.00239026 0 -4.89823e-05)
(0.00240314 0 -8.32673e-06)
(0.00239995 0 -3.71399e-06)
(0.00240041 0 2.70357e-05)
(0.00239659 0 4.67836e-05)
(0.0023825 0 4.7511e-05)
(0.00236878 0 9.15723e-05)
(0.00235534 0 2.60725e-05)
(0.0023215 0 0.000111068)
(0.00227551 0 7.2974e-05)
(0.00221624 0 0.000162925)
(0.00214542 0 0.000100664)
(0.00207488 0 0.000213238)
(0.00200028 0 0.000232144)
(0.00188169 0 0.000340104)
(0.00173948 0 0.000367592)
(0.00159379 0 0.000370782)
(0.00136295 0 0.000620916)
(0.00128945 0 0.000213243)
(0.0010965 0 0.00045206)
(0.00105737 0 0.000550253)
(0.0010404 0 0.000537757)
(0.000928612 0 0.00051288)
(0.000433033 0 0.000472242)
(0.000105324 0 0.000379036)
(3.23159e-05 0 0.000314526)
(-9.18209e-05 0 0.000186207)
(-0.000175877 0 0.000125062)
(-0.000232464 0 1.28408e-05)
(-6.17196e-05 0 -0.000249057)
(-0.0001689 0 -0.00022121)
(1.47934e-08 0 -0.000347231)
(-8.99209e-13 0 7.70888e-13)
(-1.63425e-12 0 3.92684e-13)
(-1.74295e-12 0 1.86331e-13)
(-1.74739e-12 0 2.88964e-14)
(-1.70768e-12 0 -9.50349e-14)
(-1.62961e-12 0 -1.93205e-13)
(-1.52024e-12 0 -2.70076e-13)
(-1.3863e-12 0 -3.28715e-13)
(-1.23405e-12 0 -3.71279e-13)
(-1.06936e-12 0 -3.99377e-13)
(-8.9767e-13 0 -4.14422e-13)
(-7.23724e-13 0 -4.17867e-13)
(-5.51596e-13 0 -4.11211e-13)
(-3.84873e-13 0 -3.95939e-13)
(-2.26632e-13 0 -3.73556e-13)
(-7.92704e-14 0 -3.45525e-13)
(5.52871e-14 0 -3.13106e-13)
(1.75404e-13 0 -2.77415e-13)
(2.79928e-13 0 -2.39508e-13)
(3.6826e-13 0 -2.00431e-13)
(4.40278e-13 0 -1.61205e-13)
(4.96276e-13 0 -1.22733e-13)
(5.3686e-13 0 -8.57257e-14)
(5.62784e-13 0 -5.06756e-14)
(5.74832e-13 0 -1.79003e-14)
(5.73848e-13 0 1.23638e-14)
(5.609e-13 0 3.9915e-14)
(5.37341e-13 0 6.46408e-14)
(5.04597e-13 0 8.65875e-14)
(4.63887e-13 0 1.05928e-13)
(4.16155e-13 0 1.22828e-13)
(3.62246e-13 0 1.37338e-13)
(3.03093e-13 0 1.49387e-13)
(2.39752e-13 0 1.58893e-13)
(1.73315e-13 0 1.65853e-13)
(1.04909e-13 0 1.70385e-13)
(3.51792e-14 0 1.72662e-13)
(-0.000346857 0 0.000303633)
(0.000347428 0 -0.000390045)
(0.00051743 0 -0.000636998)
(0.000435718 0 -0.00101294)
(0.000816911 0 -0.00100858)
(0.00098946 0 -0.00104056)
(0.00128544 0 -0.00081914)
(0.00141371 0 -0.00079168)
(0.00147427 0 -0.000859794)
(0.00165703 0 -0.000503774)
(0.00177065 0 -0.000301446)
(0.00185284 0 -0.000431369)
(0.00193407 0 -0.000581697)
(0.00201345 0 -0.000190923)
(0.00200211 0 -0.000189093)
(0.00201126 0 -0.000142794)
(0.00202059 0 -7.08256e-05)
(0.00203225 0 -4.58433e-05)
(0.00203325 0 -3.76202e-05)
(0.00202458 0 -5.12904e-05)
(0.00202746 0 -5.59173e-05)
(0.00202906 0 -3.15357e-05)
(0.00202281 0 -2.83194e-05)
(0.00200865 0 -2.51229e-05)
(0.00199774 0 4.83532e-07)
(0.00199341 0 1.6187e-05)
(0.00199169 0 2.42847e-05)
(0.00198817 0 2.40549e-05)
(0.00198139 0 3.01729e-05)
(0.00197218 0 2.3112e-05)
(0.00197046 0 9.31883e-06)
(0.00196924 0 7.46779e-06)
(0.00196577 0 8.77397e-06)
(0.00196218 0 8.6917e-06)
(0.00195681 0 9.12714e-06)
(0.00195308 0 1.22799e-05)
(0.0019559 0 1.14795e-05)
(0.00195738 0 1.11778e-05)
(0.0019555 0 1.97595e-05)
(0.00195454 0 1.03761e-05)
(0.00195613 0 5.71361e-06)
(0.00195949 0 -4.08746e-06)
(0.0019678 0 6.31696e-06)
(0.00198155 0 6.3432e-06)
(0.00199451 0 -3.24493e-05)
(0.00200518 0 -5.07187e-05)
(0.00202168 0 -1.96692e-05)
(0.00204777 0 -7.34904e-05)
(0.00208273 0 -1.57454e-05)
(0.00208295 0 -3.28478e-06)
(0.00208445 0 -2.82121e-06)
(0.00209869 0 2.54087e-05)
(0.00212174 0 3.52663e-05)
(0.00214001 0 6.99619e-06)
(0.00215462 0 5.17715e-05)
(0.00215355 0 7.21526e-05)
(0.00213964 0 7.51452e-05)
(0.00211244 0 5.1678e-05)
(0.00210367 0 0.000160897)
(0.00209477 0 0.000183069)
(0.00206556 0 0.000169009)
(0.00200068 0 0.000306095)
(0.00192895 0 0.000184467)
(0.00182372 0 0.000408005)
(0.00176678 0 0.000363702)
(0.00166286 0 0.000482278)
(0.00153942 0 0.000600096)
(0.00142923 0 0.000616795)
(0.00128853 0 0.000699273)
(0.00124692 0 0.000543738)
(0.00119151 0 0.000439572)
(0.00102752 0 0.000678555)
(0.000890552 0 0.000785731)
(0.00068475 0 0.000829962)
(0.000357474 0 0.000694531)
(0.000121449 0 0.000622941)
(0.000105774 0 0.00043868)
(-6.59096e-05 0 0.000287809)
(-0.000175152 0 0.000142047)
(-0.000207043 0 7.03545e-06)
(-2.32528e-05 0 -0.000227249)
(-0.000143128 0 -0.000290288)
(-5.87013e-08 0 -0.000438087)
(-1.02563e-12 0 8.23317e-13)
(-1.86408e-12 0 4.38146e-13)
(-1.94527e-12 0 1.92168e-13)
(-1.91028e-12 0 -8.57639e-15)
(-1.83792e-12 0 -1.71325e-13)
(-1.73277e-12 0 -3.02094e-13)
(-1.60026e-12 0 -4.05143e-13)
(-1.446e-12 0 -4.83739e-13)
(-1.27557e-12 0 -5.40429e-13)
(-1.09448e-12 0 -5.77252e-13)
(-9.08087e-13 0 -5.96033e-13)
(-7.21189e-13 0 -5.98694e-13)
(-5.37841e-13 0 -5.87241e-13)
(-3.61628e-13 0 -5.63658e-13)
(-1.95663e-13 0 -5.29995e-13)
(-4.22588e-14 0 -4.88382e-13)
(9.68444e-14 0 -4.40788e-13)
(2.20136e-13 0 -3.88985e-13)
(3.2651e-13 0 -3.34572e-13)
(4.15412e-13 0 -2.79019e-13)
(4.86855e-13 0 -2.23677e-13)
(5.41375e-13 0 -1.69689e-13)
(5.79847e-13 0 -1.17915e-13)
(6.03249e-13 0 -6.89232e-14)
(6.12515e-13 0 -2.30489e-14)
(6.08571e-13 0 1.94934e-14)
(5.92526e-13 0 5.85044e-14)
(5.65772e-13 0 9.37798e-14)
(5.29794e-13 0 1.25173e-13)
(4.8587e-13 0 1.52655e-13)
(4.3498e-13 0 1.76312e-13)
(3.77973e-13 0 1.96282e-13)
(3.15785e-13 0 2.127e-13)
(2.49481e-13 0 2.25676e-13)
(1.8019e-13 0 2.35304e-13)
(1.09028e-13 0 2.41716e-13)
(3.65575e-14 0 2.44939e-13)
(-0.000612437 0 0.000327584)
(0.000595058 0 -0.000572511)
(0.000717531 0 -0.000723183)
(0.000573953 0 -0.00112225)
(0.000966241 0 -0.00106036)
(0.000972246 0 -0.00121589)
(0.00125253 0 -0.000967058)
(0.00133817 0 -0.000926726)
(0.00141221 0 -0.000867651)
(0.00149277 0 -0.000744297)
(0.00155073 0 -0.000682012)
(0.00168845 0 -0.000428233)
(0.00169045 0 -0.000366725)
(0.00163643 0 -0.000382342)
(0.00161922 0 -0.00031685)
(0.00162465 0 -0.000191927)
(0.00162765 0 -0.0001741)
(0.00165066 0 -0.00013757)
(0.00166445 0 -8.8996e-05)
(0.00166038 0 -9.02719e-05)
(0.00166188 0 -5.69341e-05)
(0.00165947 0 -3.60022e-05)
(0.00164835 0 -3.87308e-05)
(0.00163368 0 -2.46406e-05)
(0.00162769 0 3.02865e-06)
(0.00162587 0 8.65448e-06)
(0.00162358 0 1.34425e-05)
(0.00161981 0 2.2312e-05)
(0.00161725 0 9.56354e-06)
(0.00161527 0 7.74835e-06)
(0.00161407 0 2.29825e-05)
(0.00161149 0 2.31922e-05)
(0.00160825 0 1.18789e-05)
(0.00160969 0 8.39979e-06)
(0.00161363 0 1.23668e-05)
(0.00161787 0 6.7424e-06)
(0.00162555 0 1.31573e-05)
(0.00163844 0 5.81489e-06)
(0.00165227 0 -2.08922e-05)
(0.00166741 0 -1.9044e-05)
(0.00168764 0 -5.33321e-05)
(0.00171661 0 -6.97834e-05)
(0.00173417 0 -6.94106e-05)
(0.00174612 0 -5.49727e-05)
(0.00176581 0 -5.89069e-05)
(0.00179757 0 -9.31036e-05)
(0.00184215 0 -0.000124605)
(0.00188663 0 -0.000101885)
(0.00190708 0 -6.85269e-05)
(0.00191658 0 -6.47194e-05)
(0.00193163 0 -8.77806e-05)
(0.00196079 0 -3.17773e-05)
(0.00196252 0 -3.13901e-06)
(0.00195731 0 2.2497e-05)
(0.00196626 0 2.96541e-05)
(0.00196778 0 7.20731e-05)
(0.00195317 0 8.14697e-05)
(0.00191235 0 8.58272e-05)
(0.00190896 0 0.000116719)
(0.00189902 0 0.000170911)
(0.00187738 0 0.000137311)
(0.00179221 0 0.000371605)
(0.00173038 0 0.000156489)
(0.00158513 0 0.000493516)
(0.00154015 0 0.000477787)
(0.00146859 0 0.00053987)
(0.00132002 0 0.000748707)
(0.00128434 0 0.000706412)
(0.00122187 0 0.000724796)
(0.00111101 0 0.000798856)
(0.0011031 0 0.000644808)
(0.000958584 0 0.000732389)
(0.000764616 0 0.000909928)
(0.000710938 0 0.000911388)
(0.00040893 0 0.000948501)
(0.000374787 0 0.000769804)
(9.30564e-05 0 0.00056538)
(0.000163749 0 0.000403757)
(2.20068e-05 0 0.000249423)
(-0.000176825 0 9.09561e-05)
(-3.74872e-05 0 -0.000202491)
(-2.4738e-05 0 -0.000346461)
(-2.75174e-07 0 -0.000496135)
(-1.16224e-12 0 8.70279e-13)
(-2.14714e-12 0 4.35644e-13)
(-2.18952e-12 0 1.51941e-13)
(-2.11069e-12 0 -8.4479e-14)
(-2.00095e-12 0 -2.79687e-13)
(-1.86324e-12 0 -4.38505e-13)
(-1.70184e-12 0 -5.64513e-13)
(-1.52158e-12 0 -6.60619e-13)
(-1.32756e-12 0 -7.29362e-13)
(-1.12497e-12 0 -7.72984e-13)
(-9.19112e-13 0 -7.93585e-13)
(-7.14932e-13 0 -7.9346e-13)
(-5.16561e-13 0 -7.75146e-13)
(-3.27626e-13 0 -7.41211e-13)
(-1.51356e-13 0 -6.94344e-13)
(9.93672e-15 0 -6.37376e-13)
(1.54683e-13 0 -5.73013e-13)
(2.81621e-13 0 -5.03688e-13)
(3.89894e-13 0 -4.31495e-13)
(4.79155e-13 0 -3.58248e-13)
(5.49608e-13 0 -2.85564e-13)
(6.02038e-13 0 -2.1484e-13)
(6.37626e-13 0 -1.47173e-13)
(6.5765e-13 0 -8.33135e-14)
(6.63249e-13 0 -2.36975e-14)
(6.55401e-13 0 3.14196e-14)
(6.35186e-13 0 8.18184e-14)
(6.04009e-13 0 1.2727e-13)
(5.63472e-13 0 1.67605e-13)
(5.15026e-13 0 2.028e-13)
(4.59782e-13 0 2.32991e-13)
(3.98634e-13 0 2.58411e-13)
(3.32487e-13 0 2.79293e-13)
(2.62356e-13 0 2.95827e-13)
(1.89356e-13 0 3.0815e-13)
(1.14543e-13 0 3.16383e-13)
(3.8402e-14 0 3.20513e-13)
(-0.000887676 0 -0.000277052)
(0.000897205 0 -0.000642031)
(0.000351623 0 -0.00119095)
(0.000634039 0 -0.00125986)
(0.000882361 0 -0.00125828)
(0.00105406 0 -0.00118655)
(0.00115065 0 -0.00109346)
(0.00116274 0 -0.00107363)
(0.00128498 0 -0.000905701)
(0.00141216 0 -0.000603103)
(0.00139028 0 -0.000514353)
(0.00139402 0 -0.000423384)
(0.00139103 0 -0.0003316)
(0.00134751 0 -0.000253689)
(0.00129601 0 -0.000142519)
(0.00129483 0 -0.000119915)
(0.00132307 0 -0.000103935)
(0.00136014 0 -4.05718e-05)
(0.00135861 0 -3.43954e-05)
(0.00136299 0 -3.1625e-05)
(0.00137734 0 -3.20152e-05)
(0.00139416 0 -7.57876e-06)
(0.00139378 0 4.61488e-07)
(0.00139415 0 6.24528e-06)
(0.00139446 0 1.96667e-05)
(0.00139424 0 2.84745e-05)
(0.00139116 0 3.72446e-05)
(0.00138759 0 3.44203e-05)
(0.00139059 0 2.95117e-05)
(0.00139905 0 3.46513e-06)
(0.00140509 0 1.1361e-05)
(0.00140431 0 9.73986e-06)
(0.00140828 0 2.00941e-06)
(0.0014184 0 1.10361e-06)
(0.00143325 0 7.21612e-07)
(0.00144803 0 -1.83653e-06)
(0.00145701 0 -9.34421e-07)
(0.00146523 0 -3.63168e-06)
(0.00147787 0 -9.99071e-06)
(0.00149258 0 -2.93865e-05)
(0.00151145 0 -4.9497e-05)
(0.00154832 0 -4.40454e-05)
(0.0015733 0 -9.70921e-05)
(0.0016019 0 -0.000121335)
(0.00160564 0 -9.43793e-05)
(0.00162454 0 -8.30917e-05)
(0.00168451 0 -0.000120141)
(0.00173053 0 -0.000103874)
(0.00172939 0 -8.57959e-05)
(0.00173811 0 -7.346e-05)
(0.00175731 0 -9.75482e-05)
(0.00178386 0 -3.61481e-05)
(0.00178616 0 1.44232e-05)
(0.00177062 0 -0.000106985)
(0.001767 0 5.34514e-05)
(0.00176562 0 0.000106246)
(0.00175159 0 0.000149572)
(0.00172407 0 1.56538e-05)
(0.00169977 0 0.000227504)
(0.00168704 0 0.000211248)
(0.00162838 0 0.000286381)
(0.00155283 0 0.000402344)
(0.00153362 0 0.000254116)
(0.00140845 0 0.000486481)
(0.00129398 0 0.000592843)
(0.00116441 0 0.000749957)
(0.00112629 0 0.000811596)
(0.0011444 0 0.00076372)
(0.00109572 0 0.000802875)
(0.00106521 0 0.000792409)
(0.00105063 0 0.000704181)
(0.000873098 0 0.000852345)
(0.000863902 0 0.000897056)
(0.000760595 0 0.00103809)
(0.000676051 0 0.00104728)
(0.000629094 0 0.000879132)
(0.000302732 0 0.000670403)
(0.000106208 0 0.000513872)
(7.15086e-05 0 0.00034937)
(0.000101023 0 1.19557e-05)
(-8.19581e-05 0 -0.000147577)
(-2.12025e-05 0 -0.000369302)
(-3.18803e-07 0 -0.000543053)
(-1.34812e-12 0 8.14415e-13)
(-2.4543e-12 0 3.76421e-13)
(-2.46527e-12 0 6.46773e-14)
(-2.34173e-12 0 -2.01015e-13)
(-2.19172e-12 0 -4.23711e-13)
(-2.01742e-12 0 -6.06905e-13)
(-1.82232e-12 0 -7.5316e-13)
(-1.61085e-12 0 -8.64584e-13)
(-1.38793e-12 0 -9.43315e-13)
(-1.1587e-12 0 -9.9158e-13)
(-9.28563e-13 0 -1.01171e-12)
(-7.0275e-13 0 -1.00642e-12)
(-4.85592e-13 0 -9.78822e-13)
(-2.80826e-13 0 -9.32143e-13)
(-9.18285e-14 0 -8.69745e-13)
(7.90719e-14 0 -7.9514e-13)
(2.30532e-13 0 -7.11772e-13)
(3.61655e-13 0 -6.22751e-13)
(4.71951e-13 0 -5.30694e-13)
(5.61343e-13 0 -4.37792e-13)
(6.30263e-13 0 -3.45974e-13)
(6.79766e-13 0 -2.56953e-13)
(7.11374e-13 0 -1.72139e-13)
(7.26725e-13 0 -9.25418e-14)
(7.27248e-13 0 -1.87443e-14)
(7.14087e-13 0 4.89889e-14)
(6.88377e-13 0 1.10546e-13)
(6.51559e-13 0 1.65851e-13)
(6.05324e-13 0 2.14859e-13)
(5.51257e-13 0 2.57607e-13)
(4.9059e-13 0 2.94262e-13)
(4.24275e-13 0 3.25088e-13)
(3.53201e-13 0 3.50379e-13)
(2.78337e-13 0 3.7039e-13)
(2.00746e-13 0 3.85314e-13)
(1.21391e-13 0 3.95267e-13)
(4.06881e-14 0 4.00244e-13)
(-0.000634476 0 -0.000295961)
(0.000517176 0 -0.00107727)
(0.000545004 0 -0.00123456)
(0.000642718 0 -0.00134966)
(0.000843792 0 -0.00136457)
(0.000793264 0 -0.00139209)
(0.000936966 0 -0.00127002)
(0.00095753 0 -0.00118587)
(0.00115605 0 -0.000857968)
(0.00110396 0 -0.000753928)
(0.00106926 0 -0.000627389)
(0.00113826 0 -0.000323922)
(0.00109727 0 -0.000267325)
(0.00102842 0 -0.000235518)
(0.0010189 0 -0.000226519)
(0.00104718 0 -0.000233406)
(0.00112635 0 -0.000199856)
(0.00115911 0 -0.000138315)
(0.001166 0 -0.000114751)
(0.00119169 0 -0.000117852)
(0.00123639 0 -0.000109746)
(0.00124609 0 -4.84177e-05)
(0.00124667 0 -6.44583e-05)
(0.0012538 0 -2.5344e-05)
(0.00125156 0 -9.42236e-06)
(0.00125096 0 4.92618e-06)
(0.00124869 0 8.07261e-06)
(0.00123891 0 1.70214e-05)
(0.00123895 0 2.27861e-05)
(0.00124899 0 3.2308e-05)
(0.00126915 0 7.37212e-06)
(0.0012795 0 -2.1982e-05)
(0.00128432 0 -2.31242e-05)
(0.001289 0 -2.39064e-05)
(0.00129437 0 -2.32252e-05)
(0.00130633 0 -2.97959e-05)
(0.00131808 0 -3.04223e-05)
(0.00131559 0 -3.03596e-05)
(0.00131731 0 -3.85205e-05)
(0.00133058 0 -3.37671e-05)
(0.00133933 0 -0.000132036)
(0.00137096 0 3.374e-06)
(0.0013772 0 -0.000215776)
(0.00146364 0 0.000151505)
(0.00146475 0 -0.000261054)
(0.00148019 0 -0.000282877)
(0.00151111 0 -0.000234774)
(0.00154191 0 -0.000147579)
(0.00153791 0 -0.000131898)
(0.00152688 0 -7.27668e-05)
(0.00153139 0 -6.80687e-05)
(0.00154698 0 -4.19881e-05)
(0.00155589 0 1.08713e-05)
(0.00154577 0 6.7449e-06)
(0.00154087 0 1.08057e-05)
(0.0015376 0 0.000103204)
(0.00152787 0 0.000130798)
(0.00150148 0 3.56102e-05)
(0.00145893 0 0.000206517)
(0.00142128 0 0.000272519)
(0.00137375 0 0.000313852)
(0.00127855 0 0.000442016)
(0.00114756 0 0.000608853)
(0.00108582 0 0.000688768)
(0.00105014 0 0.0006967)
(0.00100728 0 0.000751572)
(0.000996796 0 0.000789998)
(0.00100095 0 0.000778264)
(0.000950127 0 0.000835527)
(0.000956152 0 0.000824007)
(0.000914086 0 0.00084223)
(0.000831832 0 0.000930424)
(0.000803515 0 0.00103466)
(0.000718013 0 0.00120615)
(0.000668173 0 0.00120556)
(0.000445483 0 0.00113866)
(0.000386896 0 0.000832737)
(0.000143115 0 0.000619827)
(0.000264162 0 0.000400467)
(0.000125013 0 0.000285197)
(6.69933e-06 0 -0.000126304)
(1.84314e-05 0 -0.000371997)
(-2.62546e-07 0 -0.00057727)
(-1.55517e-12 0 7.39152e-13)
(-2.77223e-12 0 2.77224e-13)
(-2.76687e-12 0 -6.7696e-14)
(-2.59892e-12 0 -3.5961e-13)
(-2.40662e-12 0 -6.06431e-13)
(-2.19251e-12 0 -8.11466e-13)
(-1.95945e-12 0 -9.75971e-13)
(-1.71174e-12 0 -1.10085e-12)
(-1.45456e-12 0 -1.18757e-12)
(-1.19336e-12 0 -1.23815e-12)
(-9.33949e-13 0 -1.25513e-12)
(-6.82041e-13 0 -1.24169e-12)
(-4.42286e-13 0 -1.20166e-12)
(-2.18549e-13 0 -1.139e-12)
(-1.43532e-14 0 -1.05785e-12)
(1.6791e-13 0 -9.62412e-13)
(3.27073e-13 0 -8.56947e-13)
(4.62698e-13 0 -7.4539e-13)
(5.74853e-13 0 -6.3102e-13)
(6.63875e-13 0 -5.16458e-13)
(7.30447e-13 0 -4.03894e-13)
(7.75873e-13 0 -2.95278e-13)
(8.02037e-13 0 -1.92298e-13)
(8.11045e-13 0 -9.62139e-14)
(8.0478e-13 0 -7.74296e-15)
(7.84691e-13 0 7.28733e-14)
(7.52048e-13 0 1.45675e-13)
(7.08322e-13 0 2.10791e-13)
(6.55228e-13 0 2.68343e-13)
(5.9443e-13 0 3.18474e-13)
(5.27263e-13 0 3.61404e-13)
(4.54752e-13 0 3.97449e-13)
(3.77789e-13 0 4.26965e-13)
(2.97291e-13 0 4.50277e-13)
(2.14232e-13 0 4.67634e-13)
(1.29473e-13 0 4.79162e-13)
(4.33794e-14 0 4.84902e-13)
(7.14873e-05 0 -0.000812505)
(0.000417688 0 -0.00121551)
(0.000445768 0 -0.00134122)
(0.000454822 0 -0.00149227)
(0.000763788 0 -0.00146991)
(0.000712469 0 -0.00146141)
(0.000869854 0 -0.00129701)
(0.000854844 0 -0.00117434)
(0.000975847 0 -0.000892526)
(0.00088895 0 -0.000725159)
(0.000889129 0 -0.000511833)
(0.000877704 0 -0.000390002)
(0.000866272 0 -0.00030343)
(0.000875242 0 -0.00025785)
(0.000896291 0 -0.000252809)
(0.000946215 0 -0.000282434)
(0.00102988 0 -0.00013567)
(0.00103847 0 -0.000128487)
(0.00106001 0 -0.000122543)
(0.00111432 0 -9.78833e-05)
(0.00113474 0 -4.89516e-05)
(0.0011333 0 -4.07014e-05)
(0.00114545 0 -3.3059e-05)
(0.00115723 0 1.96085e-05)
(0.00115116 0 7.36493e-06)
(0.00114653 0 4.07712e-05)
(0.00114375 0 6.34341e-05)
(0.00113944 0 3.25161e-05)
(0.00113945 0 1.10372e-05)
(0.00114168 0 -9.8769e-06)
(0.00114447 0 -5.94099e-06)
(0.00114751 0 4.45009e-06)
(0.00114928 0 7.44628e-06)
(0.00115003 0 1.61309e-06)
(0.0011495 0 -4.06042e-06)
(0.00115096 0 -3.20318e-07)
(0.00116136 0 -6.64645e-07)
(0.00116837 0 -2.81236e-05)
(0.0011653 0 -4.15462e-05)
(0.00117638 0 -4.52557e-05)
(0.00120146 0 -5.78974e-05)
(0.00121427 0 -0.000138472)
(0.00122232 0 -0.000159329)
(0.00125591 0 -0.000197089)
(0.00133175 0 -0.000126561)
(0.00134977 0 -0.00012414)
(0.00131629 0 -0.000196967)
(0.00130991 0 -7.93062e-05)
(0.0013081 0 -4.92998e-05)
(0.00129185 0 -9.48328e-05)
(0.00127593 0 -0.000102333)
(0.00127523 0 -2.98017e-05)
(0.00126854 0 5.547e-06)
(0.0012564 0 -1.11166e-06)
(0.00126164 0 5.25851e-05)
(0.00125974 0 0.000119373)
(0.001247 0 0.000138292)
(0.00121967 0 0.000116331)
(0.0011669 0 0.00025539)
(0.00112919 0 0.000274158)
(0.00107095 0 0.000423096)
(0.00104843 0 0.00043671)
(0.0010214 0 0.000491047)
(0.000886463 0 0.000663642)
(0.000807348 0 0.000773803)
(0.00078568 0 0.000823434)
(0.000777927 0 0.000839353)
(0.000805576 0 0.000796337)
(0.000815113 0 0.000800899)
(0.000852822 0 0.000801105)
(0.000824738 0 0.000870493)
(0.000786599 0 0.000959263)
(0.000774571 0 0.00105702)
(0.000733396 0 0.00120095)
(0.000653555 0 0.0012905)
(0.000643281 0 0.00122232)
(0.000715998 0 0.00090773)
(0.000160068 0 0.000750861)
(0.000241983 0 0.00054409)
(0.000166967 0 0.000334763)
(3.16923e-05 0 -9.54722e-05)
(3.82879e-05 0 -0.00037356)
(-2.13151e-07 0 -0.000591781)
(-1.84084e-12 0 5.6504e-13)
(-3.14346e-12 0 1.14835e-13)
(-3.10206e-12 0 -2.52429e-13)
(-2.88033e-12 0 -5.62814e-13)
(-2.64337e-12 0 -8.30704e-13)
(-2.38678e-12 0 -1.05641e-12)
(-2.11162e-12 0 -1.23827e-12)
(-1.82244e-12 0 -1.37531e-12)
(-1.52523e-12 0 -1.46804e-12)
(-1.22626e-12 0 -1.51827e-12)
(-9.32108e-13 0 -1.52876e-12)
(-6.49278e-13 0 -1.50328e-12)
(-3.82902e-13 0 -1.44656e-12)
(-1.37014e-13 0 -1.36355e-12)
(8.47606e-14 0 -1.25937e-12)
(2.7997e-13 0 -1.13904e-12)
(4.47555e-13 0 -1.00771e-12)
(5.87581e-13 0 -8.70254e-13)
(7.00883e-13 0 -7.30765e-13)
(7.8847e-13 0 -5.92399e-13)
(8.51443e-13 0 -4.57565e-13)
(8.91361e-13 0 -3.28277e-13)
(9.10438e-13 0 -2.06312e-13)
(9.1128e-13 0 -9.30774e-14)
(8.96335e-13 0 1.05838e-14)
(8.67506e-13 0 1.0442e-13)
(8.26294e-13 0 1.88599e-13)
(7.74226e-13 0 2.63464e-13)
(7.13007e-13 0 3.29359e-13)
(6.44318e-13 0 3.86596e-13)
(5.69565e-13 0 4.35506e-13)
(4.89836e-13 0 4.76482e-13)
(4.0603e-13 0 5.0995e-13)
(3.19006e-13 0 5.36305e-13)
(2.29631e-13 0 5.55862e-13)
(1.38659e-13 0 5.68791e-13)
(4.64279e-14 0 5.75197e-13)
(-0.000389882 0 -0.000898006)
(0.000544062 0 -0.001249)
(0.000227687 0 -0.00146545)
(0.000435612 0 -0.00154355)
(0.000597762 0 -0.00159247)
(0.000637683 0 -0.00153383)
(0.000768816 0 -0.00133685)
(0.000641623 0 -0.00121236)
(0.000844466 0 -0.000830828)
(0.000634648 0 -0.000751004)
(0.00071146 0 -0.000554434)
(0.00075183 0 -0.000395869)
(0.000772966 0 -0.000306921)
(0.000782146 0 -0.000306115)
(0.000832576 0 -0.000270759)
(0.000879683 0 -0.000301669)
(0.000933357 0 -0.00019836)
(0.000938429 0 -0.000234623)
(0.000978036 0 -0.000219942)
(0.00101514 0 -0.000129707)
(0.00101539 0 -0.00011336)
(0.00102483 0 -9.74701e-05)
(0.00104888 0 -7.91861e-05)
(0.00105881 0 -1.18934e-05)
(0.00105546 0 -1.14231e-05)
(0.00105225 0 1.70594e-05)
(0.00105329 0 2.53379e-05)
(0.0010531 0 2.82894e-05)
(0.00104974 0 3.04629e-05)
(0.0010403 0 1.96693e-05)
(0.00102527 0 -1.80332e-05)
(0.00102048 0 -2.98351e-05)
(0.00101892 0 -3.05002e-05)
(0.00101748 0 -2.6584e-05)
(0.00101428 0 -2.64866e-05)
(0.000999758 0 -4.01849e-05)
(0.000998626 0 -2.75301e-05)
(0.00101346 0 1.8918e-05)
(0.00102147 0 -6.78527e-05)
(0.00102868 0 -9.81923e-05)
(0.00104895 0 -0.000112128)
(0.00107809 0 -0.00011203)
(0.00108441 0 -0.000185436)
(0.00110354 0 -0.000164194)
(0.00111294 0 -0.00018401)
(0.00111023 0 -0.000196025)
(0.0010937 0 -0.000180209)
(0.00106465 0 -0.000146875)
(0.00104997 0 -9.53081e-05)
(0.00103578 0 -4.31242e-05)
(0.000999416 0 -4.00493e-05)
(0.000962179 0 -6.37146e-06)
(0.000950921 0 4.39925e-07)
(0.000931044 0 -4.37247e-05)
(0.000920224 0 7.94938e-05)
(0.000889572 0 0.000182733)
(0.000897264 0 0.00016312)
(0.000871993 0 0.000180814)
(0.000809194 0 0.000324316)
(0.000843249 0 0.000303657)
(0.000738541 0 0.000505365)
(0.000696184 0 0.000582902)
(0.000536305 0 0.000772963)
(0.000719808 0 0.000677847)
(0.000707601 0 0.000712158)
(0.000638082 0 0.000783896)
(0.000580311 0 0.00083492)
(0.000593176 0 0.000815509)
(0.000630255 0 0.000805109)
(0.000673317 0 0.000821924)
(0.000714343 0 0.000879465)
(0.000706772 0 0.000982191)
(0.000671142 0 0.00110436)
(0.000655259 0 0.00124214)
(0.000636501 0 0.00129941)
(0.000531893 0 0.00129191)
(0.000634039 0 0.00107426)
(0.000170491 0 0.000915867)
(0.00032856 0 0.000654408)
(0.000237869 0 0.000407028)
(7.38327e-05 0 -8.79657e-05)
(0.000173788 0 -0.000280245)
(-6.44571e-08 0 -0.000569528)
(-2.2762e-12 0 2.48682e-13)
(-3.48686e-12 0 -1.87994e-13)
(-3.44453e-12 0 -4.94316e-13)
(-3.17709e-12 0 -8.09014e-13)
(-2.90004e-12 0 -1.09782e-12)