/*--------------------------------*- C++ -*----------------------------------*\
  =========                 |
  \\      /  F ield         | OpenFOAM: The Open Source CFD Toolbox
   \\    /   O peration     | Website:  https://openfoam.org
    \\  /    A nd           | Version:  6
     \\/     M anipulation  |
\*---------------------------------------------------------------------------*/
FoamFile
{
    version     2.0;
    format      ascii;
    class       volScalarField;
    location    "840";
    object      T;
}
// * * * * * * * * * * * * * * * * * * * * * * * * * * * * * * * * * * * * * //

dimensions      [0 0 0 1 0 0 0];

internalField   nonuniform List<scalar> 
5964
(
310.571
309.742
309.01
308.411
307.939
307.564
307.25
306.969
306.71
306.462
306.216
305.97
305.722
305.476
305.234
305.003
304.784
304.579
304.385
304.202
304.031
303.89
303.797
303.737
303.694
303.66
303.63
303.602
303.575
303.55
303.527
303.505
303.484
303.465
303.448
303.432
303.417
303.404
303.392
303.38
303.37
303.361
303.352
303.344
303.337
303.33
303.323
303.316
303.31
303.304
303.297
303.291
303.284
303.278
303.271
303.263
303.255
303.247
303.239
303.23
303.221
303.211
303.201
303.19
303.179
303.168
303.156
303.144
303.132
303.119
303.106
303.092
303.079
303.065
303.05
303.036
303.021
303.006
302.99
302.974
302.958
302.944
302.932
302.926
310.557
309.731
309.025
308.446
307.984
307.618
307.309
307.033
306.779
306.534
306.288
306.039
305.787
305.534
305.285
305.045
304.816
304.599
304.391
304.19
304
303.843
303.765
303.72
303.686
303.656
303.628
303.601
303.575
303.549
303.526
303.504
303.483
303.464
303.447
303.431
303.416
303.403
303.391
303.38
303.37
303.36
303.352
303.344
303.336
303.329
303.323
303.316
303.31
303.304
303.297
303.291
303.284
303.278
303.271
303.263
303.256
303.248
303.239
303.23
303.221
303.211
303.201
303.191
303.18
303.168
303.156
303.144
303.132
303.119
303.106
303.093
303.079
303.065
303.051
303.036
303.021
303.006
302.99
302.974
302.958
302.944
302.933
302.927
310.566
309.752
309.059
308.5
308.056
307.705
307.408
307.143
306.901
306.664
306.421
306.169
305.907
305.642
305.38
305.126
304.881
304.646
304.413
304.179
303.939
303.723
303.702
303.692
303.674
303.651
303.625
303.599
303.573
303.548
303.524
303.502
303.481
303.463
303.445
303.429
303.415
303.402
303.39
303.379
303.369
303.359
303.351
303.343
303.336
303.329
303.322
303.316
303.31
303.304
303.297
303.291
303.285
303.278
303.271
303.264
303.256
303.248
303.24
303.231
303.221
303.212
303.202
303.191
303.18
303.169
303.157
303.145
303.132
303.12
303.106
303.093
303.079
303.065
303.051
303.036
303.021
303.006
302.99
302.974
302.959
302.945
302.933
302.927
310.581
309.793
309.119
308.576
308.153
307.818
307.532
307.279
307.048
306.817
306.575
306.321
306.056
305.786
305.512
305.241
304.977
304.721
304.462
304.19
303.864
303.428
303.628
303.669
303.665
303.646
303.621
303.596
303.57
303.545
303.521
303.499
303.479
303.46
303.443
303.427
303.413
303.399
303.388
303.377
303.367
303.358
303.35
303.342
303.335
303.328
303.322
303.316
303.31
303.304
303.297
303.291
303.285
303.278
303.272
303.264
303.257
303.249
303.24
303.232
303.222
303.213
303.202
303.192
303.181
303.17
303.158
303.146
303.133
303.12
303.107
303.093
303.08
303.066
303.051
303.037
303.022
303.007
302.991
302.975
302.959
302.945
302.934
302.928
310.599
309.846
309.2
308.68
308.276
307.958
307.687
307.444
307.216
306.983
306.737
306.477
306.205
305.925
305.643
305.363
305.086
304.811
304.536
304.257
303.981
303.733
303.699
303.684
303.666
303.643
303.618
303.592
303.566
303.541
303.518
303.496
303.475
303.457
303.44
303.424
303.41
303.397
303.385
303.374
303.365
303.356
303.348
303.34
303.334
303.327
303.321
303.315
303.309
303.303
303.298
303.292
303.285
303.279
303.272
303.265
303.258
303.25
303.241
303.233
303.223
303.214
303.204
303.193
303.182
303.171
303.159
303.147
303.134
303.121
303.108
303.094
303.08
303.066
303.052
303.037
303.022
303.007
302.992
302.976
302.96
302.947
302.936
302.93
310.624
309.912
309.298
308.803
308.42
308.118
307.858
307.62
307.388
307.147
306.893
306.624
306.341
306.051
305.759
305.469
305.18
304.892
304.602
304.318
304.06
303.851
303.75
303.7
303.668
303.64
303.613
303.587
303.561
303.536
303.513
303.491
303.471
303.452
303.435
303.42
303.406
303.393
303.382
303.371
303.362
303.353
303.346
303.339
303.332
303.326
303.32
303.314
303.309
303.303
303.298
303.292
303.286
303.28
303.273
303.266
303.259
303.251
303.243
303.234
303.225
303.215
303.205
303.194
303.183
303.172
303.16
303.148
303.135
303.122
303.109
303.095
303.081
303.067
303.053
303.038
303.023
303.008
302.992
302.977
302.962
302.948
302.937
302.931
310.646
309.98
309.407
308.943
308.578
308.287
308.028
307.784
307.539
307.286
307.02
306.74
306.448
306.149
305.849
305.55
305.253
304.953
304.652
304.355
304.083
303.863
303.752
303.696
303.66
303.631
303.604
303.579
303.554
303.53
303.507
303.486
303.466
303.447
303.43
303.415
303.401
303.389
303.378
303.368
303.359
303.35
303.343
303.336
303.33
303.324
303.319
303.314
303.308
303.303
303.298
303.292
303.287
303.281
303.274
303.267
303.26
303.253
303.244
303.236
303.227
303.217
303.207
303.196
303.185
303.174
303.162
303.149
303.137
303.124
303.11
303.097
303.083
303.068
303.054
303.039
303.024
303.009
302.993
302.978
302.963
302.949
302.939
302.93
310.679
310.064
309.524
309.083
308.733
308.441
308.173
307.914
307.65
307.379
307.1
306.812
306.514
306.209
305.902
305.597
305.294
304.988
304.679
304.367
304.054
303.771
303.701
303.667
303.64
303.615
303.591
303.567
303.544
303.521
303.499
303.479
303.459
303.441
303.425
303.41
303.396
303.384
303.373
303.363
303.355
303.347
303.34
303.334
303.328
303.323
303.318
303.313
303.308
303.303
303.298
303.293
303.288
303.282
303.276
303.269
303.262
303.254
303.246
303.238
303.229
303.219
303.209
303.198
303.187
303.176
303.164
303.151
303.138
303.125
303.112
303.098
303.084
303.069
303.055
303.04
303.025
303.01
302.994
302.979
302.964
302.951
302.937
302.836
310.703
310.135
309.633
309.215
308.873
308.571
308.282
307.993
307.703
307.414
307.125
306.83
306.53
306.223
305.916
305.611
305.307
305.001
304.689
304.365
304
303.48
303.615
303.625
303.61
303.591
303.571
303.551
303.531
303.511
303.49
303.47
303.452
303.434
303.418
303.403
303.39
303.378
303.367
303.358
303.35
303.343
303.336
303.331
303.326
303.321
303.316
303.312
303.308
303.303
303.299
303.294
303.289
303.283
303.277
303.271
303.264
303.257
303.249
303.24
303.231
303.221
303.211
303.201
303.189
303.178
303.166
303.153
303.14
303.127
303.114
303.1
303.085
303.071
303.056
303.041
303.026
303.011
302.995
302.98
302.965
302.951
302.94
302.93
310.722
310.191
309.72
309.321
308.976
308.65
308.329
308.011
307.697
307.39
307.091
306.794
306.496
306.196
305.895
305.597
305.298
304.997
304.691
304.377
304.052
303.728
303.635
303.597
303.576
303.561
303.546
303.531
303.515
303.497
303.479
303.461
303.443
303.426
303.41
303.396
303.383
303.371
303.361
303.352
303.345
303.338
303.333
303.327
303.323
303.319
303.315
303.311
303.308
303.304
303.3
303.295
303.29
303.285
303.28
303.273
303.267
303.259
303.251
303.243
303.234
303.224
303.214
303.203
303.192
303.18
303.168
303.156
303.143
303.129
303.116
303.101
303.087
303.072
303.058
303.042
303.027
303.012
302.996
302.98
302.965
302.95
302.938
302.93
310.742
310.245
309.793
309.397
309.032
308.675
308.318
307.964
307.623
307.303
307.001
306.707
306.42
306.132
305.845
305.559
305.274
304.985
304.692
304.393
304.09
303.804
303.599
303.546
303.529
303.521
303.514
303.506
303.496
303.482
303.467
303.451
303.434
303.417
303.402
303.387
303.375
303.364
303.354
303.346
303.339
303.333
303.328
303.324
303.32
303.317
303.314
303.311
303.307
303.304
303.301
303.297
303.292
303.287
303.282
303.276
303.269
303.262
303.254
303.246
303.237
303.227
303.217
303.206
303.195
303.183
303.171
303.158
303.145
303.132
303.118
303.104
303.089
303.074
303.059
303.044
303.028
303.013
302.997
302.981
302.965
302.949
302.934
302.924
310.756
310.284
309.843
309.434
309.038
308.638
308.237
307.848
307.488
307.158
306.861
306.577
306.306
306.038
305.771
305.506
305.242
304.974
304.701
304.42
304.125
303.811
303.422
303.458
303.465
303.471
303.476
303.477
303.474
303.466
303.454
303.439
303.423
303.407
303.392
303.378
303.366
303.355
303.346
303.338
303.332
303.327
303.323
303.32
303.317
303.314
303.312
303.31
303.307
303.305
303.302
303.298
303.295
303.29
303.285
303.279
303.273
303.266
303.258
303.25
303.241
303.231
303.221
303.21
303.199
303.187
303.174
303.161
303.148
303.134
303.12
303.106
303.091
303.076
303.061
303.045
303.03
303.014
302.998
302.982
302.965
302.948
302.932
302.922
310.766
310.305
309.86
309.424
308.985
308.54
308.099
307.683
307.308
306.978
306.691
306.425
306.173
305.927
305.684
305.445
305.206
304.964
304.715
304.454
304.174
303.874
303.561
303.393
303.396
303.415
303.433
303.445
303.451
303.449
303.441
303.428
303.413
303.397
303.382
303.368
303.356
303.345
303.337
303.33
303.325
303.321
303.318
303.315
303.314
303.312
303.311
303.309
303.308
303.306
303.304
303.301
303.297
303.293
303.288
303.283
303.277
303.27
303.262
303.254
303.245
303.235
303.225
303.214
303.202
303.19
303.178
303.165
303.151
303.137
303.123
303.108
303.094
303.078
303.063
303.047
303.031
303.015
302.999
302.983
302.966
302.949
302.934
302.924
310.767
310.299
309.836
309.364
308.876
308.386
307.914
307.484
307.109
306.787
306.514
306.264
306.031
305.808
305.592
305.379
305.168
304.953
304.731
304.492
304.231
303.938
303.606
303.17
303.308
303.355
303.387
303.413
303.43
303.434
303.429
303.416
303.401
303.385
303.37
303.356
303.345
303.335
303.327
303.321
303.316
303.313
303.312
303.311
303.31
303.31
303.31
303.309
303.309
303.307
303.306
303.304
303.301
303.297
303.293
303.287
303.281
303.274
303.267
303.259
303.25
303.24
303.229
303.218
303.207
303.194
303.182
303.168
303.155
303.141
303.126
303.111
303.096
303.081
303.065
303.049
303.033
303.017
303
302.984
302.967
302.951
302.937
302.929
310.76
310.271
309.771
309.251
308.714
308.187
307.695
307.261
306.897
306.592
306.335
306.104
305.891
305.689
305.498
305.312
305.128
304.942
304.746
304.534
304.298
304.03
303.734
303.433
303.301
303.305
303.343
303.385
303.414
303.425
303.42
303.406
303.389
303.373
303.358
303.344
303.332
303.322
303.315
303.31
303.307
303.305
303.305
303.305
303.306
303.307
303.309
303.309
303.31
303.309
303.309
303.307
303.305
303.301
303.297
303.292
303.286
303.28
303.272
303.264
303.255
303.245
303.234
303.223
303.211
303.199
303.186
303.172
303.158
303.144
303.129
303.114
303.099
303.083
303.067
303.051
303.035
303.018
303.001
302.985
302.968
302.953
302.94
302.932
310.746
310.222
309.662
309.084
308.504
307.954
307.46
307.033
306.685
306.398
306.159
305.948
305.755
305.575
305.407
305.246
305.088
304.927
304.757
304.57
304.36
304.121
303.85
303.537
303.181
303.226
303.295
303.364
303.41
303.425
303.416
303.395
303.376
303.359
303.344
303.33
303.318
303.309
303.302
303.298
303.297
303.297
303.298
303.3
303.303
303.305
303.308
303.31
303.311
303.312
303.312
303.311
303.309
303.307
303.303
303.298
303.292
303.286
303.278
303.27
303.261
303.251
303.24
303.229
303.216
303.204
303.191
303.177
303.163
303.148
303.133
303.118
303.102
303.086
303.07
303.053
303.037
303.02
303.003
302.985
302.969
302.953
302.94
302.933
310.721
310.144
309.514
308.87
308.25
307.69
307.21
306.801
306.475
306.209
305.989
305.798
305.627
305.468
305.32
305.18
305.043
304.904
304.757
304.596
304.416
304.212
303.983
303.718
303.418
303.134
303.249
303.362
303.43
303.444
303.419
303.382
303.359
303.343
303.328
303.314
303.302
303.293
303.288
303.285
303.285
303.287
303.29
303.295
303.299
303.304
303.308
303.311
303.314
303.316
303.317
303.316
303.315
303.313
303.309
303.305
303.299
303.293
303.285
303.277
303.267
303.257
303.246
303.234
303.222
303.209
303.196
303.182
303.167
303.152
303.137
303.121
303.105
303.089
303.072
303.056
303.039
303.021
303.004
302.986
302.969
302.952
302.939
302.931
310.687
310.041
309.333
308.616
307.959
307.396
306.94
306.564
306.267
306.028
305.83
305.661
305.509
305.37
305.239
305.116
304.997
304.876
304.75
304.616
304.468
304.306
304.126
303.918
303.707
303.493
303.207
303.403
303.494
303.493
303.431
303.352
303.333
303.324
303.312
303.297
303.284
303.275
303.271
303.27
303.272
303.277
303.282
303.289
303.296
303.302
303.308
303.313
303.317
303.32
303.322
303.323
303.322
303.32
303.317
303.312
303.307
303.3
303.293
303.284
303.274
303.264
303.253
303.241
303.228
303.215
303.201
303.187
303.172
303.157
303.141
303.125
303.109
303.092
303.075
303.058
303.041
303.023
303.005
302.987
302.969
302.951
302.936
302.927
310.641
309.91
309.129
308.356
307.675
307.115
306.685
306.346
306.076
305.863
305.687
305.539
305.41
305.294
305.189
305.09
304.994
304.896
304.794
304.685
304.567
304.442
304.305
304.147
304.001
303.825
303.615
303.528
303.635
303.59
303.453
303.268
303.295
303.304
303.295
303.277
303.263
303.255
303.252
303.254
303.259
303.266
303.274
303.284
303.293
303.302
303.31
303.317
303.322
303.326
303.329
303.33
303.33
303.328
303.325
303.321
303.316
303.309
303.301
303.292
303.282
303.272
303.26
303.248
303.235
303.221
303.207
303.192
303.177
303.162
303.146
303.129
303.113
303.096
303.078
303.061
303.043
303.025
303.007
302.988
302.969
302.95
302.934
302.924
310.585
309.752
308.9
308.089
307.401
306.857
306.451
306.146
305.908
305.723
305.576
305.457
305.359
305.275
305.2
305.131
305.063
304.991
304.915
304.833
304.744
304.65
304.544
304.426
304.319
304.178
304.043
303.953
303.891
303.758
303.509
302.995
303.264
303.293
303.28
303.251
303.235
303.23
303.231
303.236
303.244
303.254
303.266
303.278
303.291
303.302
303.313
303.321
303.328
303.334
303.337
303.339
303.339
303.338
303.335
303.331
303.325
303.318
303.31
303.301
303.291
303.28
303.268
303.256
303.242
303.228
303.214
303.199
303.183
303.167
303.15
303.134
303.117
303.099
303.082
303.064
303.046
303.027
303.009
302.989
302.969
302.949
302.932
302.921
310.52
309.557
308.617
307.784
307.122
306.612
306.242
305.975
305.776
305.628
305.517
305.434
305.37
305.318
305.275
305.236
305.198
305.152
305.101
305.046
304.984
304.917
304.837
304.75
304.662
304.543
304.431
304.318
304.187
304.018
303.779
303.48
303.428
303.301
303.268
303.208
303.198
303.201
303.207
303.216
303.227
303.242
303.257
303.274
303.289
303.304
303.317
303.328
303.336
303.343
303.347
303.35
303.35
303.349
303.346
303.342
303.336
303.329
303.321
303.311
303.301
303.289
303.277
303.264
303.25
303.236
303.221
303.205
303.189
303.172
303.156
303.138
303.121
303.103
303.085
303.067
303.048
303.03
303.01
302.991
302.97
302.949
302.931
302.919
310.457
309.374
308.344
307.477
306.842
306.384
306.064
305.845
305.691
305.585
305.514
305.464
305.433
305.415
305.4
305.388
305.376
305.353
305.324
305.293
305.254
305.208
305.149
305.083
305.004
304.904
304.799
304.671
304.521
304.346
304.129
303.886
303.63
303.192
303.259
303.113
303.148
303.171
303.183
303.195
303.21
303.228
303.249
303.269
303.289
303.307
303.323
303.336
303.346
303.354
303.359
303.362
303.363
303.362
303.359
303.354
303.348
303.341
303.332
303.322
303.311
303.299
303.287
303.273
303.259
303.244
303.228
303.212
303.195
303.178
303.161
303.143
303.125
303.107
303.089
303.07
303.051
303.032
303.013
302.993
302.972
302.95
302.93
302.918
310.39
309.186
308.088
307.208
306.6
306.196
305.931
305.763
305.657
305.592
305.555
305.539
305.537
305.548
305.556
305.566
305.573
305.57
305.559
305.546
305.525
305.493
305.452
305.402
305.333
305.25
305.151
305.023
304.876
304.705
304.504
304.267
303.99
303.693
303.415
302.855
303.11
303.151
303.161
303.172
303.19
303.214
303.24
303.266
303.291
303.312
303.331
303.346
303.358
303.367
303.373
303.376
303.377
303.376
303.373
303.368
303.362
303.354
303.345
303.334
303.323
303.31
303.297
303.283
303.268
303.252
303.236
303.219
303.202
303.185
303.167
303.148
303.13
303.111
303.092
303.073
303.054
303.034
303.015
302.994
302.973
302.952
302.931
302.918
310.323
309.011
307.864
306.985
306.413
306.067
305.856
305.734
305.668
305.638
305.633
305.644
305.667
305.698
305.725
305.75
305.771
305.782
305.785
305.784
305.778
305.757
305.731
305.694
305.639
305.569
305.481
305.365
305.232
305.072
304.885
304.658
304.397
304.117
303.776
303.395
303.258
303.161
303.14
303.145
303.167
303.197
303.231
303.264
303.294
303.32
303.342
303.36
303.373
303.383
303.39
303.393
303.394
303.393
303.389
303.384
303.377
303.368
303.359
303.347
303.335
303.322
303.308
303.293
303.277
303.261
303.244
303.227
303.209
303.191
303.173
303.154
303.135
303.116
303.096
303.077
303.057
303.037
303.017
302.996
302.975
302.953
302.932
302.919
310.235
308.81
307.668
306.847
306.309
305.998
305.831
305.747
305.715
305.712
305.736
305.768
305.808
305.852
305.893
305.928
305.957
305.979
305.992
305.999
306.003
305.992
305.978
305.95
305.915
305.853
305.783
305.686
305.571
305.431
305.259
305.054
304.81
304.532
304.206
303.863
303.545
303.105
303.101
303.108
303.137
303.179
303.223
303.263
303.299
303.33
303.355
303.376
303.391
303.402
303.409
303.412
303.413
303.411
303.407
303.401
303.393
303.384
303.373
303.362
303.349
303.335
303.32
303.304
303.288
303.271
303.253
303.235
303.217
303.198
303.179
303.16
303.14
303.12
303.1
303.08
303.06
303.04
303.019
302.998
302.977
302.954
302.933
302.92
310.186
308.686
307.516
306.734
306.254
305.984
305.847
305.792
305.783
305.807
305.85
305.901
305.952
306.004
306.053
306.095
306.13
306.157
306.176
306.19
306.199
306.199
306.194
306.173
306.152
306.104
306.052
305.976
305.884
305.768
305.62
305.439
305.217
304.954
304.646
304.302
303.927
303.481
303.058
303.059
303.1
303.16
303.216
303.265
303.307
303.343
303.372
303.395
303.412
303.423
303.43
303.434
303.434
303.431
303.427
303.42
303.411
303.401
303.39
303.377
303.363
303.348
303.332
303.316
303.298
303.281
303.262
303.244
303.225
303.205
303.186
303.166
303.145
303.125
303.105
303.084
303.063
303.042
303.021
303
302.979
302.956
302.936
302.922
310.206
308.732
307.553
306.749
306.266
306.008
305.893
305.86
305.867
305.912
305.969
306.033
306.094
306.151
306.203
306.249
306.287
306.318
306.341
306.359
306.371
306.377
306.378
306.366
306.353
306.322
306.285
306.231
306.162
306.073
305.953
305.8
305.606
305.368
305.083
304.748
304.364
303.931
303.484
302.985
303.053
303.149
303.217
303.271
303.318
303.359
303.392
303.417
303.436
303.448
303.455
303.458
303.458
303.454
303.448
303.44
303.431
303.419
303.407
303.393
303.378
303.362
303.345
303.328
303.31
303.291
303.272
303.253
303.233
303.213
303.192
303.172
303.151
303.13
303.109
303.088
303.067
303.045
303.024
303.002
302.98
302.958
302.938
302.925
310.223
308.773
307.602
306.79
306.305
306.057
305.96
305.941
305.963
306.023
306.091
306.164
306.232
306.293
306.347
306.394
306.433
306.465
306.49
306.509
306.523
306.532
306.537
306.533
306.527
306.509
306.485
306.451
306.405
306.34
306.252
306.128
305.967
305.759
305.499
305.18
304.808
304.382
303.919
303.423
302.99
303.166
303.229
303.282
303.333
303.379
303.416
303.444
303.464
303.476
303.483
303.485
303.484
303.479
303.472
303.463
303.452
303.439
303.425
303.41
303.394
303.377
303.359
303.341
303.322
303.302
303.282
303.262
303.241
303.221
303.199
303.178
303.157
303.135
303.114
303.092
303.07
303.048
303.026
303.004
302.982
302.959
302.939
302.926
310.234
308.814
307.667
306.861
306.378
306.136
306.045
306.033
306.07
306.138
306.216
306.296
306.369
306.433
306.488
306.534
306.572
306.603
306.628
306.646
306.66
306.67
306.677
306.68
306.678
306.671
306.658
306.638
306.612
306.569
306.509
306.417
306.288
306.111
305.877
305.583
305.234
304.83
304.38
303.905
303.474
303.287
303.252
303.292
303.349
303.402
303.444
303.475
303.496
303.508
303.514
303.515
303.512
303.506
303.497
303.487
303.474
303.46
303.445
303.429
303.411
303.393
303.374
303.355
303.334
303.314
303.293
303.272
303.25
303.229
303.207
303.185
303.163
303.14
303.118
303.096
303.073
303.051
303.028
303.006
302.983
302.96
302.938
302.924
310.245
308.838
307.704
306.916
306.448
306.218
306.138
306.134
306.184
306.26
306.345
306.43
306.508
306.574
306.629
306.672
306.709
306.737
306.758
306.773
306.785
306.796
306.804
306.809
306.813
306.813
306.808
306.8
306.788
306.765
306.727
306.664
306.564
306.417
306.214
305.952
305.634
305.255
304.823
304.344
303.843
303.274
303.211
303.286
303.365
303.429
303.477
303.511
303.532
303.544
303.549
303.548
303.543
303.535
303.525
303.512
303.498
303.483
303.466
303.448
303.429
303.41
303.389
303.369
303.347
303.326
303.304
303.282
303.259
303.237
303.214
303.192
303.169
303.146
303.123
303.1
303.077
303.054
303.031
303.008
302.984
302.96
302.938
302.923
310.264
308.891
307.779
307.007
306.549
306.322
306.241
306.239
306.299
306.384
306.477
306.567
306.649
306.717
306.771
306.812
306.844
306.868
306.884
306.896
306.905
306.913
306.921
306.927
306.933
306.938
306.94
306.941
306.94
306.932
306.912
306.873
306.799
306.683
306.516
306.291
306.006
305.655
305.241
304.764
304.238
303.63
303.049
303.275
303.389
303.467
303.519
303.553
303.573
303.584
303.586
303.584
303.576
303.566
303.554
303.539
303.523
303.506
303.487
303.468
303.448
303.427
303.405
303.383
303.361
303.338
303.315
303.292
303.269
303.245
303.222
303.198
303.175
303.151
303.128
303.104
303.081
303.057
303.033
303.01
302.986
302.961
302.939
302.923
310.288
308.955
307.871
307.114
306.659
306.429
306.35
306.35
306.418
306.51
306.61
306.705
306.791
306.861
306.913
306.952
306.98
306.998
307.009
307.016
307.021
307.026
307.031
307.037
307.044
307.051
307.059
307.067
307.073
307.076
307.072
307.051
307.003
306.918
306.787
306.602
306.354
306.038
305.652
305.195
304.675
304.104
303.538
303.357
303.442
303.521
303.571
303.602
303.62
303.627
303.627
303.622
303.612
303.599
303.585
303.568
303.55
303.53
303.51
303.489
303.467
303.445
303.422
303.398
303.375
303.351
303.327
303.302
303.278
303.254
303.23
303.205
303.181
303.157
303.133
303.109
303.084
303.06
303.036
303.012
302.987
302.963
302.94
302.924
310.305
309.013
307.965
307.228
306.778
306.546
306.464
306.466
306.537
306.635
306.742
306.844
306.933
307.003
307.055
307.091
307.114
307.127
307.133
307.135
307.135
307.136
307.138
307.142
307.148
307.157
307.168
307.18
307.193
307.205
307.211
307.207
307.181
307.125
307.03
306.884
306.674
306.393
306.036
305.603
305.102
304.538
303.93
303.195
303.496
303.594
303.637
303.659
303.671
303.674
303.67
303.662
303.649
303.634
303.617
303.598
303.577
303.556
303.534
303.511
303.487
303.463
303.438
303.414
303.389
303.363
303.338
303.313
303.288
303.263
303.238
303.213
303.188
303.163
303.138
303.113
303.088
303.063
303.038
303.014
302.989
302.964
302.939
302.921
310.324
309.072
308.062
307.346
306.9
306.666
306.582
306.586
306.658
306.76
306.873
306.982
307.072
307.144
307.194
307.227
307.246
307.254
307.255
307.252
307.248
307.244
307.243
307.245
307.249
307.257
307.27
307.286
307.303
307.321
307.337
307.346
307.339
307.309
307.245
307.136
306.966
306.726
306.403
306.001
305.522
304.974
304.381
303.77
303.722
303.712
303.716
303.722
303.725
303.723
303.716
303.704
303.688
303.67
303.65
303.628
303.606
303.582
303.558
303.533
303.507
303.481
303.455
303.429
303.403
303.376
303.35
303.324
303.298
303.272
303.246
303.22
303.194
303.168
303.143
303.117
303.092
303.066
303.041
303.016
302.991
302.964
302.935
302.907
310.348
309.141
308.164
307.464
307.024
306.79
306.704
306.709
306.782
306.886
307.002
307.117
307.209
307.281
307.331
307.36
307.375
307.378
307.374
307.367
307.359
307.352
307.348
307.346
307.349
307.356
307.368
307.386
307.406
307.429
307.452
307.472
307.481
307.473
307.436
307.362
307.232
307.033
306.75
306.381
305.929
305.402
304.825
304.267
303.916
303.82
303.791
303.783
303.779
303.773
303.762
303.747
303.729
303.707
303.684
303.66
303.635
303.609
303.582
303.555
303.528
303.5
303.473
303.445
303.417
303.39
303.362
303.335
303.308
303.28
303.254
303.227
303.2
303.174
303.148
303.122
303.095
303.069
303.044
303.018
302.992
302.964
302.927
302.888
310.382
309.23
308.289
307.605
307.164
306.923
306.83
306.832
306.904
307.011
307.13
307.248
307.343
307.415
307.463
307.489
307.5
307.499
307.491
307.481
307.469
307.459
307.452
307.447
307.447
307.453
307.465
307.483
307.505
307.531
307.561
307.589
307.612
307.622
307.61
307.565
307.474
307.316
307.074
306.742
306.316
305.797
305.201
304.562
303.878
303.878
303.852
303.839
303.831
303.822
303.808
303.791
303.769
303.745
303.719
303.692
303.664
303.636
303.607
303.578
303.548
303.519
303.49
303.461
303.432
303.403
303.374
303.346
303.317
303.289
303.262
303.234
303.207
303.18
303.153
303.126
303.099
303.073
303.046
303.02
302.994
302.965
302.932
302.901
310.418
309.326
308.421
307.749
307.307
307.059
306.958
306.956
307.026
307.134
307.255
307.376
307.474
307.545
307.59
307.614
307.621
307.617
307.606
307.592
307.578
307.565
307.555
307.548
307.546
307.55
307.561
307.578
307.602
307.631
307.665
307.7
307.735
307.76
307.768
307.751
307.693
307.573
307.375
307.085
306.694
306.195
305.59
304.884
304.141
303.974
303.911
303.891
303.882
303.87
303.855
303.835
303.81
303.783
303.755
303.724
303.694
303.663
303.631
303.6
303.569
303.538
303.507
303.476
303.446
303.416
303.386
303.356
303.327
303.298
303.27
303.241
303.213
303.185
303.158
303.13
303.103
303.076
303.049
303.022
302.995
302.966
302.936
302.911
310.447
309.411
308.546
307.89
307.45
307.197
307.089
307.082
307.149
307.256
307.379
307.499
307.599
307.67
307.714
307.734
307.738
307.731
307.718
307.702
307.686
307.671
307.658
307.649
307.645
307.648
307.657
307.674
307.698
307.729
307.766
307.807
307.851
307.889
307.915
307.921
307.892
307.809
307.654
307.406
307.053
306.584
306
305.302
304.56
304.025
303.951
303.94
303.931
303.919
303.901
303.879
303.852
303.822
303.79
303.757
303.723
303.69
303.656
303.623
303.589
303.557
303.524
303.492
303.46
303.429
303.397
303.367
303.337
303.307
303.277
303.248
303.219
303.191
303.162
303.134
303.106
303.079
303.051
303.024
302.996
302.968
302.942
302.922
310.476
309.495
308.666
308.028
307.591
307.335
307.221
307.209
307.272
307.378
307.502
307.621
307.72
307.79
307.832
307.85
307.852
307.842
307.827
307.809
307.791
307.775
307.761
307.751
307.745
307.746
307.754
307.77
307.795
307.827
307.867
307.913
307.963
308.013
308.054
308.079
308.075
308.026
307.909
307.7
307.383
306.941
306.366
305.662
304.817
303.706
303.961
303.993
303.984
303.968
303.948
303.922
303.893
303.86
303.825
303.789
303.753
303.716
303.68
303.645
303.61
303.575
303.541
303.507
303.474
303.441
303.409
303.377
303.346
303.315
303.285
303.255
303.225
303.196
303.167
303.139
303.11
303.082
303.054
303.026
302.998
302.971
302.946
302.93
310.506
309.577
308.782
308.161
307.731
307.473
307.354
307.338
307.396
307.499
307.621
307.738
307.837
307.905
307.945
307.961
307.961
307.95
307.933
307.914
307.895
307.878
307.863
307.851
307.845
307.845
307.852
307.868
307.892
307.926
307.968
308.017
308.073
308.131
308.186
308.227
308.244
308.223
308.14
307.966
307.682
307.265
306.711
306.023
305.225
304.459
304.198
304.09
304.045
304.018
303.994
303.966
303.934
303.898
303.86
303.821
303.782
303.742
303.704
303.666
303.629
303.593
303.557
303.522
303.487
303.453
303.42
303.387
303.355
303.323
303.292
303.262
303.231
303.202
303.172
303.143
303.114
303.085
303.056
303.028
303
302.972
302.947
302.93
310.534
309.651
308.888
308.288
307.867
307.611
307.489
307.469
307.52
307.619
307.738
307.852
307.948
308.016
308.054
308.068
308.066
308.054
308.036
308.017
307.997
307.979
307.964
307.952
307.945
307.945
307.952
307.967
307.992
308.026
308.07
308.122
308.182
308.247
308.312
308.366
308.4
308.403
308.348
308.205
307.95
307.558
307.014
306.326
305.54
304.789
304.302
304.137
304.088
304.065
304.041
304.011
303.975
303.936
303.894
303.852
303.81
303.768
303.727
303.687
303.648
303.61
303.572
303.536
303.5
303.465
303.431
303.397
303.364
303.331
303.3
303.268
303.237
303.207
303.176
303.147
303.117
303.088
303.059
303.03
303.001
302.972
302.943
302.919
310.558
309.718
308.986
308.408
308.001
307.75
307.628
307.603
307.648
307.738
307.854
307.964
308.057
308.122
308.158
308.171
308.168
308.155
308.136
308.117
308.097
308.079
308.064
308.052
308.046
308.045
308.052
308.068
308.093
308.128
308.173
308.227
308.29
308.36
308.433
308.498
308.546
308.566
308.536
308.422
308.196
307.827
307.292
306.583
305.738
304.859
304.113
304.086
304.111
304.111
304.09
304.057
304.018
303.974
303.928
303.882
303.837
303.792
303.749
303.707
303.666
303.626
303.587
303.549
303.512
303.476
303.441
303.406
303.372
303.339
303.306
303.274
303.243
303.211
303.181
303.15
303.12
303.091
303.061
303.032
303.002
302.971
302.937
302.907
310.581
309.782
309.084
308.532
308.14
307.894
307.771
307.742
307.781
307.861
307.969
308.073
308.162
308.224
308.258
308.27
308.265
308.252
308.233
308.214
308.194
308.177
308.162
308.152
308.146
308.146
308.154
308.17
308.196
308.232
308.277
308.333
308.399
308.472
308.55
308.624
308.683
308.716
308.706
308.619
308.426
308.093
307.582
306.873
305.974
304.828
303.305
304.001
304.16
304.176
304.149
304.108
304.061
304.011
303.961
303.911
303.862
303.815
303.77
303.725
303.683
303.641
303.601
303.562
303.524
303.487
303.451
303.415
303.38
303.346
303.313
303.28
303.248
303.216
303.185
303.154
303.123
303.093
303.063
303.034
303.004
302.972
302.939
302.912
310.603
309.846
309.183
308.657
308.28
308.04
307.917
307.884
307.918
307.987
308.086
308.183
308.266
308.324
308.355
308.364
308.359
308.345
308.327
308.308
308.289
308.273
308.26
308.251
308.246
308.248
308.256
308.274
308.3
308.337
308.383
308.44
308.507
308.583
308.664
308.743
308.809
308.852
308.858
308.795
308.634
308.341
307.872
307.206
306.36
305.413
304.615
304.425
304.344
304.279
304.219
304.161
304.104
304.048
303.993
303.939
303.887
303.837
303.789
303.743
303.698
303.656
303.614
303.574
303.535
303.497
303.46
303.423
303.388
303.353
303.319
303.286
303.253
303.22
303.189
303.157
303.126
303.096
303.066
303.036
303.006
302.975
302.945
302.922
310.625
309.91
309.283
308.785
308.423
308.19
308.067
308.03
308.057
308.116
308.205
308.293
308.369
308.422
308.449
308.456
308.449
308.435
308.417
308.399
308.382
308.367