/*--------------------------------*- C++ -*----------------------------------*\
  =========                 |
  \\      /  F ield         | OpenFOAM: The Open Source CFD Toolbox
   \\    /   O peration     | Website:  https://openfoam.org
    \\  /    A nd           | Version:  6
     \\/     M anipulation  |
\*---------------------------------------------------------------------------*/
FoamFile
{
    version     2.0;
    format      ascii;
    class       volVectorField;
    location    "840";
    object      U;
}
// * * * * * * * * * * * * * * * * * * * * * * * * * * * * * * * * * * * * * //

dimensions      [0 1 -1 0 0 0 0];

internalField   nonuniform List<vector> 
5964
(
(0.00265585 0 -0.0027665)
(-0.00219254 0 0.000342301)
(-0.00382814 0 -0.000371858)
(-0.00483814 0 0.000762286)
(-0.00533051 0 -1.4435e-05)
(-0.00534003 0 -0.000193836)
(-0.00530058 0 -0.000325205)
(-0.00546146 0 -0.000363001)
(-0.00528027 0 -0.00048458)
(-0.0050082 0 -0.000164654)
(-0.00475118 0 -0.00052868)
(-0.00451604 0 -0.000576521)
(-0.00439486 0 -0.000571332)
(-0.00437695 0 0.000455492)
(-0.00409551 0 9.72184e-05)
(-0.00363488 0 -0.000269272)
(-0.0030351 0 -0.000642455)
(-0.00237603 0 -0.000715565)
(-0.00147749 0 -0.00101122)
(-0.000420004 0 -0.00100307)
(0.000641622 0 -0.000655164)
(1.8362e-06 0 -0.000227611)
(2.9306e-09 0 1.14555e-09)
(5.26478e-09 0 5.60447e-10)
(4.30587e-09 0 3.37106e-10)
(3.69789e-09 0 2.29959e-10)
(3.26973e-09 0 1.68642e-10)
(2.94907e-09 0 1.29448e-10)
(2.69911e-09 0 1.0264e-10)
(2.4985e-09 0 8.34445e-11)
(2.33382e-09 0 6.92187e-11)
(2.1961e-09 0 5.83845e-11)
(2.07916e-09 0 4.99536e-11)
(1.97851e-09 0 4.32834e-11)
(1.89084e-09 0 3.79421e-11)
(1.8136e-09 0 3.36302e-11)
(1.74481e-09 0 3.01326e-11)
(1.68287e-09 0 2.72899e-11)
(1.6265e-09 0 2.49801e-11)
(1.57465e-09 0 2.31076e-11)
(1.52646e-09 0 2.15954e-11)
(1.48122e-09 0 2.03808e-11)
(1.43833e-09 0 1.9412e-11)
(1.39732e-09 0 1.86455e-11)
(1.35778e-09 0 1.80451e-11)
(1.31941e-09 0 1.75801e-11)
(1.28192e-09 0 1.72248e-11)
(1.24511e-09 0 1.69574e-11)
(1.20881e-09 0 1.67596e-11)
(1.1729e-09 0 1.66162e-11)
(1.13726e-09 0 1.65145e-11)
(1.10182e-09 0 1.6444e-11)
(1.06653e-09 0 1.6396e-11)
(1.03134e-09 0 1.63636e-11)
(9.96234e-10 0 1.63412e-11)
(9.61187e-10 0 1.63245e-11)
(9.26193e-10 0 1.63101e-11)
(8.9125e-10 0 1.62953e-11)
(8.5636e-10 0 1.62785e-11)
(8.2153e-10 0 1.62584e-11)
(7.86767e-10 0 1.62341e-11)
(7.52078e-10 0 1.62054e-11)
(7.17473e-10 0 1.61721e-11)
(6.82962e-10 0 1.61344e-11)
(6.48551e-10 0 1.60926e-11)
(6.1425e-10 0 1.60472e-11)
(5.80062e-10 0 1.59988e-11)
(5.45994e-10 0 1.59479e-11)
(5.12049e-10 0 1.58953e-11)
(4.78229e-10 0 1.58416e-11)
(4.44535e-10 0 1.57875e-11)
(4.10965e-10 0 1.57336e-11)
(3.77518e-10 0 1.56806e-11)
(3.4419e-10 0 1.5629e-11)
(3.10978e-10 0 1.55793e-11)
(2.77874e-10 0 1.55319e-11)
(2.44875e-10 0 1.54869e-11)
(2.11973e-10 0 1.54443e-11)
(1.79164e-10 0 1.54037e-11)
(1.46443e-10 0 1.53649e-11)
(1.13805e-10 0 1.53283e-11)
(8.12418e-11 0 1.52959e-11)
(4.87404e-11 0 1.5272e-11)
(1.62514e-11 0 1.52853e-11)
(-0.00298601 0 0.00258743)
(-0.00285601 0 0.00181279)
(-0.00291196 0 0.00224121)
(-0.00431013 0 0.000966798)
(-0.00452227 0 0.00103403)
(-0.00430466 0 -0.00046549)
(-0.00402227 0 0.000510836)
(-0.00441084 0 0.000760511)
(-0.00446495 0 0.000202622)
(-0.00423002 0 -0.000467223)
(-0.00420994 0 -0.000228462)
(-0.00370217 0 -0.000477928)
(-0.00357497 0 -0.000330684)
(-0.00349017 0 -0.000330733)
(-0.00347498 0 -0.00021713)
(-0.00335201 0 -0.000847442)
(-0.00311197 0 -0.000890457)
(-0.00268903 0 -0.00147982)
(-0.00199273 0 -0.00231641)
(-0.00132072 0 -0.00182225)
(0.000633686 0 0.000376526)
(9.5742e-07 0 0.000254346)
(2.38306e-09 0 2.28913e-09)
(4.50743e-09 0 1.36221e-09)
(3.99638e-09 0 9.08198e-10)
(3.54026e-09 0 6.4875e-10)
(3.17579e-09 0 4.85736e-10)
(2.88746e-09 0 3.76808e-10)
(2.65624e-09 0 3.00668e-10)
(2.46742e-09 0 2.45485e-10)
(2.31055e-09 0 2.04263e-10)
(2.17826e-09 0 1.72688e-10)
(2.0652e-09 0 1.48009e-10)
(1.96743e-09 0 1.28417e-10)
(1.88196e-09 0 1.12689e-10)
(1.80643e-09 0 9.99673e-11)
(1.739e-09 0 8.96343e-11)
(1.67817e-09 0 8.12285e-11)
(1.6227e-09 0 7.4395e-11)
(1.57159e-09 0 6.8854e-11)
(1.524e-09 0 6.43798e-11)
(1.47926e-09 0 6.07877e-11)
(1.43679e-09 0 5.79244e-11)
(1.39611e-09 0 5.56617e-11)
(1.35686e-09 0 5.38921e-11)
(1.3187e-09 0 5.25247e-11)
(1.2814e-09 0 5.14829e-11)
(1.24474e-09 0 5.07021e-11)
(1.20856e-09 0 5.01281e-11)
(1.17273e-09 0 4.97153e-11)
(1.13716e-09 0 4.94259e-11)
(1.10178e-09 0 4.92285e-11)
(1.06652e-09 0 4.90977e-11)
(1.03136e-09 0 4.90125e-11)
(9.9627e-10 0 4.89564e-11)
(9.61233e-10 0 4.89163e-11)
(9.26244e-10 0 4.88822e-11)
(8.91303e-10 0 4.88466e-11)
(8.56413e-10 0 4.88041e-11)
(8.2158e-10 0 4.87509e-11)
(7.86812e-10 0 4.86849e-11)
(7.52119e-10 0 4.86048e-11)
(7.17511e-10 0 4.85105e-11)
(6.82995e-10 0 4.84026e-11)
(6.48582e-10 0 4.82819e-11)
(6.14277e-10 0 4.815e-11)
(5.80089e-10 0 4.80085e-11)
(5.46021e-10 0 4.78594e-11)
(5.12076e-10 0 4.77046e-11)
(4.78258e-10 0 4.75463e-11)
(4.44567e-10 0 4.73863e-11)
(4.11001e-10 0 4.72268e-11)
(3.77559e-10 0 4.70696e-11)
(3.44237e-10 0 4.69163e-11)
(3.11031e-10 0 4.67684e-11)
(2.77936e-10 0 4.66272e-11)
(2.44944e-10 0 4.64931e-11)
(2.12051e-10 0 4.63663e-11)
(1.79249e-10 0 4.62462e-11)
(1.46532e-10 0 4.61325e-11)
(1.13891e-10 0 4.60268e-11)
(8.13176e-11 0 4.59341e-11)
(4.87988e-11 0 4.58641e-11)
(1.62758e-11 0 4.58679e-11)
(-0.00261757 0 0.00371288)
(-0.00218689 0 0.00342378)
(-0.00375832 0 0.00153249)
(-0.00372622 0 0.00214046)
(-0.00434547 0 0.00141367)
(-0.00416513 0 -0.000965283)
(-0.00336999 0 -0.00110114)
(-0.00331407 0 0.000735509)
(-0.00256534 0 -0.000650917)
(-0.0018618 0 -0.000921351)
(-0.00162234 0 -5.19481e-05)
(-0.00106847 0 -8.20299e-05)
(-0.00146574 0 0.000128237)
(-0.00258807 0 -0.000344343)
(-0.00264344 0 -0.000454042)
(-0.002622 0 -0.000497741)
(-0.0028014 0 -0.00110516)
(-0.00194271 0 -0.00250288)
(-0.00260947 0 -0.0023616)
(-0.00108685 0 -0.00298843)
(-0.000248853 0 -0.00124152)
(2.35217e-06 0 0.000558915)
(2.06154e-09 0 2.16382e-09)
(3.97103e-09 0 1.74749e-09)
(3.6376e-09 0 1.30764e-09)
(3.30241e-09 0 9.8229e-10)
(3.01534e-09 0 7.54874e-10)
(2.77611e-09 0 5.94992e-10)
(2.57651e-09 0 4.79973e-10)
(2.40861e-09 0 3.94998e-10)
(2.26603e-09 0 3.30613e-10)
(2.14379e-09 0 2.80749e-10)
(2.03805e-09 0 2.41438e-10)
(1.94576e-09 0 2.10023e-10)
(1.8645e-09 0 1.84676e-10)
(1.79229e-09 0 1.64101e-10)
(1.72752e-09 0 1.47347e-10)
(1.66884e-09 0 1.33696e-10)
(1.61513e-09 0 1.22588e-10)
(1.56548e-09 0 1.1358e-10)
(1.5191e-09 0 1.06307e-10)
(1.47534e-09 0 1.00473e-10)
(1.43369e-09 0 9.5829e-11)
(1.39369e-09 0 9.21655e-11)
(1.35499e-09 0 8.93075e-11)
(1.31728e-09 0 8.71062e-11)
(1.28034e-09 0 8.54364e-11)
(1.24397e-09 0 8.41922e-11)
(1.20801e-09 0 8.32844e-11)
(1.17236e-09 0 8.26385e-11)
(1.13693e-09 0 8.21923e-11)
(1.10164e-09 0 8.18946e-11)
(1.06646e-09 0 8.17031e-11)
(1.03135e-09 0 8.15841e-11)
(9.96288e-10 0 8.15102e-11)
(9.61268e-10 0 8.14602e-11)
(9.26285e-10 0 8.14178e-11)
(8.91342e-10 0 8.13708e-11)
(8.56445e-10 0 8.13104e-11)
(8.21601e-10 0 8.12308e-11)
(7.8682e-10 0 8.11285e-11)
(7.52114e-10 0 8.10016e-11)
(7.17492e-10 0 8.08501e-11)
(6.82964e-10 0 8.06749e-11)
(6.48539e-10 0 8.04779e-11)
(6.14225e-10 0 8.02614e-11)
(5.80029e-10 0 8.00285e-11)
(5.45956e-10 0 7.97825e-11)
(5.1201e-10 0 7.95266e-11)
(4.78191e-10 0 7.92643e-11)
(4.44502e-10 0 7.89991e-11)
(4.10941e-10 0 7.87344e-11)
(3.77505e-10 0 7.84731e-11)
(3.44192e-10 0 7.82182e-11)
(3.10996e-10 0 7.79722e-11)
(2.77912e-10 0 7.77371e-11)
(2.44934e-10 0 7.75143e-11)
(2.12054e-10 0 7.73041e-11)
(1.79264e-10 0 7.71067e-11)
(1.46556e-10 0 7.69223e-11)
(1.13921e-10 0 7.6754e-11)
(8.13459e-11 0 7.66089e-11)
(4.88174e-11 0 7.6499e-11)
(1.62814e-11 0 7.64665e-11)
(-0.00193833 0 0.00521811)
(-0.0019191 0 0.00430869)
(-0.00344742 0 0.00270609)
(-0.00410035 0 0.00195295)
(-0.00421916 0 0.00187422)
(-0.00444167 0 -0.00127065)
(-0.00396226 0 -0.000672539)
(-0.00347362 0 -0.000534131)
(-0.00261487 0 -0.00132881)
(-0.00164407 0 -0.0018444)
(-0.000906324 0 -0.00148674)
(-4.00774e-05 0 -0.000811776)
(0.000506071 0 0.000208949)
(0.000551735 0 0.00045597)
(0.000561731 0 0.000671388)
(-0.00121854 0 -7.19061e-05)
(-0.00190757 0 -0.000731145)
(-0.000746261 0 -0.00238466)
(-0.00223696 0 -0.00287746)
(-0.0014065 0 -0.00317166)
(-0.000516544 0 -8.97539e-05)
(-8.83559e-07 0 7.26982e-06)
(1.9942e-09 0 2.97274e-09)
(3.70505e-09 0 2.15371e-09)
(3.27942e-09 0 1.60692e-09)
(3.02255e-09 0 1.23024e-09)
(2.81322e-09 0 9.65104e-10)
(2.63027e-09 0 7.7415e-10)
(2.46926e-09 0 6.33233e-10)
(2.32788e-09 0 5.26733e-10)
(2.2039e-09 0 4.44483e-10)
(2.09508e-09 0 3.79785e-10)
(1.99929e-09 0 3.28147e-10)
(1.91458e-09 0 2.8649e-10)
(1.83924e-09 0 2.52642e-10)
(1.77174e-09 0 2.25029e-10)
(1.71078e-09 0 2.02469e-10)
(1.65521e-09 0 1.8405e-10)
(1.60407e-09 0 1.69048e-10)
(1.55653e-09 0 1.56878e-10)
(1.51191e-09 0 1.47061e-10)
(1.46961e-09 0 1.39195e-10)
(1.42916e-09 0 1.32944e-10)
(1.39015e-09 0 1.28028e-10)
(1.35226e-09 0 1.24205e-10)
(1.31521e-09 0 1.21274e-10)
(1.2788e-09 0 1.19063e-10)
(1.24284e-09 0 1.17428e-10)
(1.20722e-09 0 1.16247e-10)
(1.17183e-09 0 1.15418e-10)
(1.13659e-09 0 1.14855e-10)
(1.10144e-09 0 1.1449e-10)
(1.06636e-09 0 1.14264e-10)
(1.03132e-09 0 1.14131e-10)
(9.96297e-10 0 1.14054e-10)
(9.61297e-10 0 1.14006e-10)
(9.26318e-10 0 1.13963e-10)
(8.91368e-10 0 1.13909e-10)
(8.56455e-10 0 1.13834e-10)
(8.21591e-10 0 1.13729e-10)
(7.86788e-10 0 1.1359e-10)
(7.52058e-10 0 1.13415e-10)
(7.17412e-10 0 1.13203e-10)
(6.82863e-10 0 1.12958e-10)
(6.48419e-10 0 1.12681e-10)
(6.14089e-10 0 1.12377e-10)
(5.7988e-10 0 1.12049e-10)
(5.45798e-10 0 1.11702e-10)
(5.11845e-10 0 1.11341e-10)
(4.78025e-10 0 1.10971e-10)
(4.44337e-10 0 1.10598e-10)
(4.10781e-10 0 1.10224e-10)
(3.77354e-10 0 1.09856e-10)
(3.44052e-10 0 1.09497e-10)
(3.1087e-10 0 1.09151e-10)
(2.77803e-10 0 1.0882e-10)
(2.44842e-10 0 1.08507e-10)
(2.11981e-10 0 1.08213e-10)
(1.7921e-10 0 1.0794e-10)
(1.46519e-10 0 1.07687e-10)
(1.13898e-10 0 1.0746e-10)
(8.13336e-11 0 1.07268e-10)
(4.88106e-11 0 1.07125e-10)
(1.62787e-11 0 1.07066e-10)
(-0.00206173 0 0.00627933)
(-0.00184301 0 0.00498459)
(-0.00286039 0 0.00384465)
(-0.00365682 0 0.0029553)
(-0.00409081 0 0.000775625)
(-0.00376994 0 -0.000235728)
(-0.00322779 0 -0.00137293)
(-0.00258738 0 -0.00159315)
(-0.00195611 0 -0.00193977)
(-0.00065973 0 -0.00240753)
(-0.00100935 0 -0.00187869)
(0.000800537 0 -0.000855671)
(0.00116979 0 -0.000331245)
(0.00136973 0 0.000346519)
(0.00125314 0 0.000832016)
(0.000816401 0 0.000721281)
(0.000947628 0 0.000227613)
(-0.000130947 0 -0.00131299)
(-0.000276755 0 -0.00310284)
(-0.000602392 0 -0.00345905)
(-3.30709e-05 0 -0.00237255)
(6.60376e-10 0 1.96367e-09)
(1.94588e-09 0 3.30152e-09)
(2.69052e-09 0 2.31969e-09)
(2.77217e-09 0 1.7569e-09)
(2.70117e-09 0 1.38043e-09)
(2.58827e-09 0 1.11039e-09)
(2.4655e-09 0 9.09565e-10)
(2.34507e-09 0 7.56458e-10)
(2.23215e-09 0 6.37349e-10)
(2.12873e-09 0 5.43103e-10)
(2.03516e-09 0 4.67501e-10)
(1.95098e-09 0 4.06229e-10)
(1.87534e-09 0 3.56222e-10)
(1.80721e-09 0 3.15247e-10)
(1.74556e-09 0 2.81622e-10)
(1.68938e-09 0 2.54046e-10)
(1.63775e-09 0 2.31483e-10)
(1.58989e-09 0 2.13091e-10)
(1.54507e-09 0 1.98175e-10)
(1.50271e-09 0 1.86155e-10)
(1.46228e-09 0 1.76543e-10)
(1.42338e-09 0 1.68928e-10)
(1.38565e-09 0 1.62961e-10)
(1.34879e-09 0 1.58345e-10)
(1.31259e-09 0 1.54828e-10)
(1.27686e-09 0 1.52199e-10)
(1.24145e-09 0 1.50275e-10)
(1.20625e-09 0 1.48906e-10)
(1.17118e-09 0 1.47964e-10)
(1.13618e-09 0 1.47344e-10)
(1.10121e-09 0 1.46958e-10)
(1.06625e-09 0 1.46735e-10)
(1.03129e-09 0 1.46619e-10)
(9.96313e-10 0 1.46564e-10)
(9.61331e-10 0 1.46534e-10)
(9.26352e-10 0 1.46504e-10)
(8.91386e-10 0 1.46454e-10)
(8.56449e-10 0 1.4637e-10)
(8.21554e-10 0 1.46243e-10)
(7.86716e-10 0 1.46069e-10)
(7.51951e-10 0 1.45845e-10)
(7.17272e-10 0 1.45573e-10)
(6.82691e-10 0 1.45256e-10)
(6.48219e-10 0 1.44896e-10)
(6.13866e-10 0 1.44501e-10)
(5.79638e-10 0 1.44074e-10)
(5.45542e-10 0 1.43623e-10)
(5.11581e-10 0 1.43154e-10)
(4.77757e-10 0 1.42673e-10)
(4.4407e-10 0 1.42187e-10)
(4.1052e-10 0 1.41702e-10)
(3.77103e-10 0 1.41224e-10)
(3.43816e-10 0 1.40758e-10)
(3.10652e-10 0 1.40309e-10)
(2.77606e-10 0 1.3988e-10)
(2.44669e-10 0 1.39476e-10)
(2.11833e-10 0 1.39098e-10)
(1.79088e-10 0 1.38748e-10)
(1.46423e-10 0 1.38429e-10)
(1.13826e-10 0 1.38146e-10)
(8.12843e-11 0 1.37911e-10)
(4.87825e-11 0 1.37738e-10)
(1.62698e-11 0 1.37653e-10)
(-0.00121831 0 0.0074918)
(-0.000902901 0 0.00592359)
(-0.00305616 0 0.00414527)
(-0.00340486 0 0.00280994)
(-0.00356253 0 0.000765426)
(-0.0031653 0 -0.00062203)
(-0.00218648 0 -0.00186347)
(-0.00138842 0 -0.00243437)
(-4.30953e-05 0 -0.00342954)
(-6.90566e-05 0 -0.00317892)
(0.0014252 0 -0.00260089)
(0.00142662 0 -0.00197623)
(0.00207825 0 -0.000433312)
(0.00200586 0 0.000306909)
(0.00189423 0 0.000780078)
(0.00163762 0 0.000850969)
(0.00143666 0 0.000662195)
(0.0007826 0 -0.000819567)
(-2.21373e-06 0 -0.00203739)
(-0.000465467 0 -0.00283454)
(-7.87417e-06 0 -0.00290329)
(8.46957e-10 0 2.28721e-09)
(1.91441e-09 0 2.48071e-09)
(2.2573e-09 0 2.11664e-09)
(2.3993e-09 0 1.74343e-09)
(2.41694e-09 0 1.43739e-09)
(2.37231e-09 0 1.19514e-09)
(2.29899e-09 0 1.00331e-09)
(2.21457e-09 0 8.50047e-10)
(2.12835e-09 0 7.26338e-10)
(2.04513e-09 0 6.25542e-10)
(1.96719e-09 0 5.42812e-10)
(1.89536e-09 0 4.74581e-10)
(1.82965e-09 0 4.18173e-10)
(1.76963e-09 0 3.71532e-10)
(1.71466e-09 0 3.33027e-10)
(1.66404e-09 0 3.01333e-10)
(1.61706e-09 0 2.75354e-10)
(1.57307e-09 0 2.5417e-10)
(1.53148e-09 0 2.37005e-10)
(1.49181e-09 0 2.232e-10)
(1.45363e-09 0 2.12195e-10)
(1.41658e-09 0 2.03512e-10)
(1.38037e-09 0 1.96745e-10)
(1.34477e-09 0 1.91548e-10)
(1.30957e-09 0 1.87626e-10)
(1.27465e-09 0 1.84729e-10)
(1.23987e-09 0 1.82644e-10)
(1.20517e-09 0 1.81193e-10)
(1.17048e-09 0 1.80227e-10)
(1.13576e-09 0 1.79621e-10)
(1.101e-09 0 1.79273e-10)
(1.06617e-09 0 1.79101e-10)
(1.03129e-09 0 1.79039e-10)
(9.96357e-10 0 1.79034e-10)
(9.61388e-10 0 1.79047e-10)
(9.26398e-10 0 1.79046e-10)
(8.91406e-10 0 1.7901e-10)
(8.5643e-10 0 1.78925e-10)
(8.21491e-10 0 1.7878e-10)
(7.86606e-10 0 1.78573e-10)
(7.51793e-10 0 1.78301e-10)
(7.17069e-10 0 1.77967e-10)
(6.82446e-10 0 1.77574e-10)
(6.47937e-10 0 1.77129e-10)
(6.13552e-10 0 1.76638e-10)
(5.79299e-10 0 1.76108e-10)
(5.45185e-10 0 1.75548e-10)
(5.11212e-10 0 1.74965e-10)
(4.77382e-10 0 1.74369e-10)
(4.43697e-10 0 1.73767e-10)
(4.10154e-10 0 1.73166e-10)
(3.7675e-10 0 1.72574e-10)
(3.43481e-10 0 1.71997e-10)
(3.10339e-10 0 1.71442e-10)
(2.7732e-10 0 1.70913e-10)
(2.44413e-10 0 1.70416e-10)
(2.11609e-10 0 1.69952e-10)
(1.78898e-10 0 1.69526e-10)
(1.46268e-10 0 1.69141e-10)
(1.13706e-10 0 1.68803e-10)
(8.11992e-11 0 1.68524e-10)
(4.87328e-11 0 1.68322e-10)
(1.62539e-11 0 1.68216e-10)
(-0.00125725 0 0.00820185)
(-0.0020493 0 0.00629417)
(-0.00210814 0 0.0049757)
(-0.00237763 0 0.00337369)
(-0.00269326 0 0.00166809)
(-0.00141141 0 -0.00285503)
(-0.00011082 0 -0.003213)
(0.000690773 0 -0.00425169)
(0.000704719 0 -0.00425324)
(0.00210539 0 -0.00386449)
(0.00222072 0 -0.00336547)
(0.00241643 0 -0.00231447)
(0.00263562 0 5.15798e-05)
(0.00262496 0 0.00041601)
(0.00247758 0 0.000673019)
(0.0021826 0 0.000895958)
(0.00195328 0 0.000707281)
(0.00140356 0 0.000172552)
(0.0011478 0 -0.00101936)
(-0.00061246 0 -0.00242826)
(-2.42961e-06 0 -0.00311605)
(8.35448e-10 0 2.27987e-09)
(1.78776e-09 0 2.14992e-09)
(2.0001e-09 0 1.92211e-09)
(2.13597e-09 0 1.67141e-09)
(2.1877e-09 0 1.43871e-09)
(2.18185e-09 0 1.23596e-09)
(2.1425e-09 0 1.06348e-09)
(2.08591e-09 0 9.17963e-10)
(2.02216e-09 0 7.95462e-10)
(1.95712e-09 0 6.92356e-10)
(1.89405e-09 0 6.05613e-10)
(1.83452e-09 0 5.32755e-10)
(1.77909e-09 0 4.71738e-10)
(1.72771e-09 0 4.20846e-10)
(1.68004e-09 0 3.78607e-10)
(1.63557e-09 0 3.43743e-10)
(1.59378e-09 0 3.15141e-10)
(1.55415e-09 0 2.91833e-10)
(1.51623e-09 0 2.72984e-10)
(1.47962e-09 0 2.57873e-10)
(1.44399e-09 0 2.45879e-10)
(1.40904e-09 0 2.36473e-10)
(1.37457e-09 0 2.292e-10)
(1.34037e-09 0 2.23671e-10)
(1.30632e-09 0 2.19554e-10)
(1.2723e-09 0 2.16567e-10)
(1.23824e-09 0 2.1447e-10)
(1.20409e-09 0 2.13061e-10)
(1.16982e-09 0 2.12173e-10)
(1.1354e-09 0 2.11666e-10)
(1.10085e-09 0 2.11425e-10)
(1.06616e-09 0 2.11359e-10)
(1.03136e-09 0 2.11394e-10)
(9.96457e-10 0 2.11473e-10)
(9.61487e-10 0 2.11551e-10)
(9.26471e-10 0 2.11597e-10)
(8.91435e-10 0 2.11588e-10)
(8.56405e-10 0 2.1151e-10)
(8.21405e-10 0 2.11352e-10)
(7.86458e-10 0 2.11113e-10)
(7.51583e-10 0 2.10791e-10)
(7.168e-10 0 2.10392e-10)
(6.82124e-10 0 2.0992e-10)
(6.47568e-10 0 2.09384e-10)
(6.13144e-10 0 2.08792e-10)
(5.7886e-10 0 2.08153e-10)
(5.44722e-10 0 2.07478e-10)
(5.10734e-10 0 2.06776e-10)
(4.76898e-10 0 2.06058e-10)
(4.43214e-10 0 2.05334e-10)
(4.09679e-10 0 2.04612e-10)
(3.76291e-10 0 2.03901e-10)
(3.43043e-10 0 2.03209e-10)
(3.0993e-10 0 2.02544e-10)
(2.76942e-10 0 2.01912e-10)
(2.44072e-10 0 2.01318e-10)
(2.11309e-10 0 2.00767e-10)
(1.7864e-10 0 2.00264e-10)
(1.46055e-10 0 1.99812e-10)
(1.13538e-10 0 1.99419e-10)
(8.10781e-11 0 1.99097e-10)
(4.86597e-11 0 1.98864e-10)
(1.62296e-11 0 1.9874e-10)
(-0.0013668 0 0.00901109)
(-5.15832e-05 0 0.00747906)
(-0.00226915 0 0.00528077)
(-0.00179397 0 0.00345955)
(-0.00160205 0 0.00197551)
(-0.000954131 0 -0.00175967)
(0.00163209 0 -0.00326956)
(0.001213 0 -0.00529692)
(0.00322068 0 -0.00473946)
(0.00298576 0 -0.00452963)
(0.00320752 0 -0.00355082)
(0.00348452 0 -0.00197195)
(0.00324303 0 -0.000298027)
(0.00270778 0 0.0010092)
(0.00233692 0 0.00122821)
(0.00202123 0 0.001231)
(0.00176386 0 0.000999648)
(0.00155283 0 0.000513545)
(0.000644823 0 -0.00104903)
(0.000611548 0 -0.00198262)
(2.38003e-06 0 -0.00293386)
(7.18436e-10 0 2.24826e-09)
(1.58066e-09 0 1.90588e-09)
(1.80955e-09 0 1.74841e-09)
(1.94673e-09 0 1.58413e-09)
(2.00925e-09 0 1.41422e-09)
(2.02105e-09 0 1.25061e-09)
(2.00137e-09 0 1.10033e-09)
(1.96379e-09 0 9.66009e-10)
(1.91731e-09 0 8.4787e-10)
(1.86759e-09 0 7.45095e-10)
(1.81798e-09 0 6.56496e-10)
(1.77023e-09 0 5.80784e-10)
(1.72508e-09 0 5.16647e-10)
(1.68264e-09 0 4.6278e-10)
(1.64267e-09 0 4.1791e-10)
(1.6048e-09 0 3.80834e-10)
(1.56863e-09 0 3.50439e-10)
(1.53375e-09 0 3.25725e-10)
(1.49983e-09 0 3.05808e-10)
(1.46657e-09 0 2.89917e-10)
(1.43372e-09 0 2.77386e-10)
(1.40108e-09 0 2.67642e-10)
(1.3685e-09 0 2.6019e-10)
(1.33584e-09 0 2.54607e-10)
(1.30302e-09 0 2.50531e-10)
(1.26999e-09 0 2.47653e-10)
(1.23669e-09 0 2.45711e-10)
(1.20312e-09 0 2.44484e-10)
(1.16928e-09 0 2.4379e-10)
(1.13517e-09 0 2.43475e-10)
(1.10082e-09 0 2.43417e-10)
(1.06626e-09 0 2.43516e-10)
(1.03152e-09 0 2.43695e-10)
(9.96639e-10 0 2.43892e-10)
(9.61647e-10 0 2.44063e-10)
(9.26585e-10 0 2.44175e-10)
(8.91485e-10 0 2.44205e-10)
(8.56379e-10 0 2.4414e-10)
(8.21299e-10 0 2.43972e-10)
(7.86271e-10 0 2.437e-10)
(7.51318e-10 0 2.43327e-10)
(7.16462e-10 0 2.42858e-10)
(6.8172e-10 0 2.42302e-10)
(6.47107e-10 0 2.41668e-10)
(6.12635e-10 0 2.40968e-10)
(5.78313e-10 0 2.40213e-10)
(5.44147e-10 0 2.39415e-10)
(5.10141e-10 0 2.38587e-10)
(4.76297e-10 0 2.3774e-10)
(4.42614e-10 0 2.36887e-10)
(4.0909e-10 0 2.36037e-10)
(3.7572e-10 0 2.35201e-10)
(3.42499e-10 0 2.34389e-10)
(3.09419e-10 0 2.33609e-10)
(2.76471e-10 0 2.32869e-10)
(2.43645e-10 0 2.32176e-10)
(2.1093e-10 0 2.31535e-10)
(1.78314e-10 0 2.30952e-10)
(1.45783e-10 0 2.30432e-10)
(1.13323e-10 0 2.29983e-10)
(8.09211e-11 0 2.29616e-10)
(4.85638e-11 0 2.2935e-10)
(1.61973e-11 0 2.29209e-10)
(-0.00109555 0 0.00969484)
(-0.000392646 0 0.00808094)
(-0.000612874 0 0.00598787)
(-0.00065781 0 0.00346805)
(-1.35951e-05 0 -6.96159e-05)
(0.00118924 0 -0.00177893)
(0.00233546 0 -0.00452505)
(0.00383087 0 -0.00559285)
(0.0035746 0 -0.00562023)
(0.0038536 0 -0.00475538)
(0.0037593 0 -0.00359109)
(0.00371458 0 -0.00211803)
(0.00333782 0 0.000524505)
(0.00233541 0 0.00165222)
(0.00203998 0 0.0015272)
(0.00165974 0 0.00153998)
(0.00160403 0 0.00111278)
(0.00138187 0 0.000727251)
(0.000604943 0 -0.000550264)
(0.00049065 0 -0.00197891)
(0.000134342 0 -0.00274375)
(6.16084e-10 0 2.21156e-09)
(1.28975e-09 0 1.53647e-09)
(1.69901e-09 0 1.58135e-09)
(1.82317e-09 0 1.50239e-09)
(1.87551e-09 0 1.38472e-09)
(1.88805e-09 0 1.25405e-09)
(1.87614e-09 0 1.12361e-09)
(1.84969e-09 0 1.00025e-09)
(1.81549e-09 0 8.87161e-10)
(1.77814e-09 0 7.85735e-10)
(1.74041e-09 0 6.96392e-10)
(1.70379e-09 0 6.18958e-10)
(1.6688e-09 0 5.52826e-10)
(1.63546e-09 0 4.97077e-10)
(1.6035e-09 0 4.50614e-10)
(1.57258e-09 0 4.12281e-10)
(1.54234e-09 0 3.8095e-10)
(1.51251e-09 0 3.55584e-10)
(1.48284e-09 0 3.35254e-10)
(1.45314e-09 0 3.19149e-10)
(1.42325e-09 0 3.06567e-10)
(1.39305e-09 0 2.96899e-10)
(1.36246e-09 0 2.89623e-10)
(1.33142e-09 0 2.84289e-10)
(1.2999e-09 0 2.80511e-10)
(1.26788e-09 0 2.77959e-10)
(1.23537e-09 0 2.76353e-10)
(1.20239e-09 0 2.75459e-10)
(1.16897e-09 0 2.75082e-10)
(1.13515e-09 0 2.7506e-10)
(1.10099e-09 0 2.75265e-10)
(1.06653e-09 0 2.75592e-10)
(1.03183e-09 0 2.75963e-10)
(9.96932e-10 0 2.76315e-10)
(9.61891e-10 0 2.76604e-10)
(9.26753e-10 0 2.76799e-10)
(8.91562e-10 0 2.76879e-10)
(8.56357e-10 0 2.76833e-10)
(8.21173e-10 0 2.76657e-10)
(7.86043e-10 0 2.76351e-10)
(7.50994e-10 0 2.75921e-10)
(7.16049e-10 0 2.75377e-10)
(6.81228e-10 0 2.74728e-10)
(6.46546e-10 0 2.73988e-10)
(6.12018e-10 0 2.73171e-10)
(5.77651e-10 0 2.7229e-10)
(5.43452e-10 0 2.71361e-10)
(5.09426e-10 0 2.70397e-10)
(4.75573e-10 0 2.69413e-10)
(4.41892e-10 0 2.68422e-10)
(4.08381e-10 0 2.67437e-10)
(3.75033e-10 0 2.66469e-10)
(3.41843e-10 0 2.6553e-10)
(3.08803e-10 0 2.6463e-10)
(2.75901e-10 0 2.63777e-10)
(2.43128e-10 0 2.6298e-10)
(2.10471e-10 0 2.62246e-10)
(1.77917e-10 0 2.61581e-10)
(1.45452e-10 0 2.60991e-10)
(1.1306e-10 0 2.60484e-10)
(8.07296e-11 0 2.6007e-10)
(4.84478e-11 0 2.59768e-10)
(1.61587e-11 0 2.5961e-10)
(-0.000858292 0 0.00969288)
(-0.00105603 0 0.00788407)
(-0.000159708 0 0.00590147)
(-0.000760892 0 0.00373597)
(0.00176181 0 -0.000731557)
(0.00222229 0 -0.00311306)
(0.00325977 0 -0.00586278)
(0.00388473 0 -0.00666716)
(0.00440287 0 -0.00598517)
(0.00413013 0 -0.00501188)
(0.00389307 0 -0.00368564)
(0.00376932 0 -0.00185712)
(0.00305303 0 0.000891542)
(0.00142985 0 0.00227738)
(0.00165262 0 0.00179795)
(0.00149214 0 0.00164022)
(0.000961728 0 0.0015813)
(0.00087864 0 0.00118359)
(0.000395707 0 -6.25906e-05)
(0.000173203 0 -0.00200949)
(0.000302832 0 -0.00243803)
(1.50394e-06 0 6.51192e-05)
(9.00842e-10 0 1.7701e-09)
(1.7779e-09 0 1.5238e-09)
(1.76277e-09 0 1.45531e-09)
(1.77681e-09 0 1.36726e-09)
(1.77664e-09 0 1.25785e-09)
(1.76382e-09 0 1.14119e-09)
(1.74252e-09 0 1.02592e-09)
(1.71661e-09 0 9.16649e-10)
(1.68914e-09 0 8.16178e-10)
(1.66201e-09 0 7.26219e-10)
(1.636e-09 0 6.47576e-10)
(1.61116e-09 0 5.80231e-10)
(1.58712e-09 0 5.2354e-10)
(1.56345e-09 0 4.76475e-10)
(1.53974e-09 0 4.37848e-10)
(1.5157e-09 0 4.0647e-10)
(1.49111e-09 0 3.8124e-10)
(1.46585e-09 0 3.61186e-10)
(1.43983e-09 0 3.45461e-10)
(1.413e-09 0 3.33336e-10)
(1.38532e-09 0 3.24183e-10)
(1.35678e-09 0 3.17458e-10)
(1.3274e-09 0 3.12694e-10)
(1.29718e-09 0 3.09485e-10)
(1.26618e-09 0 3.07489e-10)
(1.23444e-09 0 3.06412e-10)
(1.20202e-09 0 3.06009e-10)
(1.16899e-09 0 3.06078e-10)
(1.13544e-09 0 3.06454e-10)
(1.10142e-09 0 3.07003e-10)
(1.06702e-09 0 3.07623e-10)
(1.03232e-09 0 3.08233e-10)
(9.97366e-10 0 3.08775e-10)
(9.62237e-10 0 3.09206e-10)
(9.26989e-10 0 3.095e-10)
(8.91674e-10 0 3.09638e-10)
(8.56339e-10 0 3.09614e-10)
(8.21026e-10 0 3.09426e-10)
(7.85771e-10 0 3.09081e-10)
(7.50605e-10 0 3.08588e-10)
(7.15554e-10 0 3.07959e-10)
(6.80639e-10 0 3.07208e-10)
(6.45878e-10 0 3.06351e-10)
(6.11283e-10 0 3.05406e-10)
(5.76864e-10 0 3.04388e-10)
(5.42629e-10 0 3.03316e-10)
(5.0858e-10 0 3.02206e-10)
(4.74717e-10 0 3.01075e-10)
(4.4104e-10 0 2.99937e-10)
(4.07544e-10 0 2.98807e-10)
(3.74223e-10 0 2.97699e-10)
(3.4107e-10 0 2.96626e-10)
(3.08076e-10 0 2.95598e-10)
(2.75229e-10 0 2.94627e-10)
(2.42518e-10 0 2.93721e-10)
(2.0993e-10 0 2.92889e-10)
(1.77449e-10 0 2.92139e-10)
(1.45061e-10 0 2.91476e-10)
(1.12751e-10 0 2.90908e-10)
(8.05064e-11 0 2.90443e-10)
(4.83159e-11 0 2.901e-10)
(1.61166e-11 0 2.89932e-10)
(-0.000690447 0 0.0098222)
(0.000210629 0 0.00788535)
(0.000113876 0 0.00571527)
(0.000713493 0 0.0012759)
(0.00198778 0 -0.00169271)
(0.00323501 0 -0.0041602)
(0.00450749 0 -0.00620719)
(0.00458159 0 -0.00671449)
(0.004851 0 -0.00604675)
(0.00394998 0 -0.00518336)
(0.00374608 0 -0.00332835)
(0.00338198 0 -0.00175929)
(0.00236861 0 0.00159205)
(0.000758627 0 0.00256317)
(0.000935436 0 0.00212048)
(0.000767226 0 0.00194959)
(0.000686294 0 0.00178695)
(0.000276895 0 0.00144543)
(-0.000611194 0 -0.000920168)
(-0.00108171 0 -0.00171374)
(-0.00088656 0 -0.00189834)
(-1.58519e-05 0 0.00046541)
(5.86154e-10 0 1.97634e-09)
(1.40439e-09 0 1.31072e-09)
(1.67671e-09 0 1.42608e-09)
(1.69065e-09 0 1.36919e-09)
(1.67638e-09 0 1.26861e-09)
(1.659e-09 0 1.15812e-09)
(1.6395e-09 0 1.04683e-09)
(1.61921e-09 0 9.38909e-10)
(1.59997e-09 0 8.37861e-10)
(1.58271e-09 0 7.46561e-10)
(1.56727e-09 0 6.66701e-10)
(1.55285e-09 0 5.98685e-10)
(1.53849e-09 0 5.41928e-10)
(1.52344e-09 0 4.95277e-10)
(1.50719e-09 0 4.57372e-10)
(1.48949e-09 0 4.26883e-10)
(1.47025e-09 0 4.02617e-10)
(1.44946e-09 0 3.83552e-10)
(1.42717e-09 0 3.6882e-10)
(1.40342e-09 0 3.57679e-10)
(1.37827e-09 0 3.49492e-10)
(1.35178e-09 0 3.43706e-10)
(1.32403e-09 0 3.39842e-10)
(1.2951e-09 0 3.37486e-10)
(1.26508e-09 0 3.36283e-10)
(1.23406e-09 0 3.35933e-10)
(1.20215e-09 0 3.36185e-10)
(1.16947e-09 0 3.36832e-10)
(1.13611e-09 0 3.37709e-10)
(1.10218e-09 0 3.38684e-10)
(1.06779e-09 0 3.39657e-10)
(1.03302e-09 0 3.40552e-10)
(9.97966e-10 0 3.41314e-10)
(9.62703e-10 0 3.41908e-10)
(9.27302e-10 0 3.42311e-10)
(8.91824e-10 0 3.42511e-10)
(8.56326e-10 0 3.42507e-10)
(8.20853e-10 0 3.42304e-10)
(7.85448e-10 0 3.41912e-10)
(7.50143e-10 0 3.41344e-10)
(7.14967e-10 0 3.40618e-10)
(6.79943e-10 0 3.39751e-10)
(6.45089e-10 0 3.38765e-10)
(6.10419e-10 0 3.37678e-10)
(5.75943e-10 0 3.3651e-10)
(5.41666e-10 0 3.35283e-10)
(5.07592e-10 0 3.34014e-10)
(4.7372e-10 0 3.32723e-10)
(4.40048e-10 0 3.31427e-10)
(4.06571e-10 0 3.30142e-10)
(3.73282e-10 0 3.28885e-10)
(3.40173e-10 0 3.27668e-10)
(3.07233e-10 0 3.26506e-10)
(2.7445e-10 0 3.25409e-10)
(2.41811e-10 0 3.24389e-10)
(2.09302e-10 0 3.23454e-10)
(1.76907e-10 0 3.22613e-10)
(1.44611e-10 0 3.21873e-10)
(1.12398e-10 0 3.21242e-10)
(8.02525e-11 0 3.20723e-10)
(4.8164e-11 0 3.20334e-10)
(1.60664e-11 0 3.20165e-10)
(-0.000580902 0 0.00980502)
(0.000594506 0 0.00772255)
(-8.51729e-05 0 0.00589352)
(0.00234366 0 -0.000738299)
(0.00304689 0 -0.00268256)
(0.00408165 0 -0.00523099)
(0.00438325 0 -0.00689924)
(0.00448081 0 -0.0068525)
(0.00435943 0 -0.00582346)
(0.00196668 0 -0.00471457)
(0.00278849 0 -0.00238614)
(0.000924167 0 0.000647589)
(-0.000112612 0 0.00243357)
(0.000306796 0 0.00257431)
(4.96081e-05 0 0.00218939)
(0.000380709 0 0.00206456)
(0.000276728 0 0.0020362)
(0.000258751 0 0.00168115)
(-0.000134027 0 0.000529481)
(4.89699e-05 0 -0.00146142)
(-0.000470016 0 -0.00224206)
(0.000166997 0 -0.00163982)
(6.90404e-09 0 6.32305e-07)
(9.90062e-10 0 1.68036e-09)
(1.81772e-09 0 1.54871e-09)
(1.62927e-09 0 1.41013e-09)
(1.57887e-09 0 1.2887e-09)
(1.55606e-09 0 1.17637e-09)
(1.53723e-09 0 1.06537e-09)
(1.52097e-09 0 9.55682e-10)
(1.50913e-09 0 8.51513e-10)
(1.50188e-09 0 7.57369e-10)
(1.4977e-09 0 6.75916e-10)
(1.4945e-09 0 6.07715e-10)
(1.49047e-09 0 5.51879e-10)
(1.48445e-09 0 5.06807e-10)
(1.47586e-09 0 4.70762e-10)
(1.46457e-09 0 4.42175e-10)
(1.45066e-09 0 4.19738e-10)
(1.43431e-09 0 4.02393e-10)
(1.4157e-09 0 3.89273e-10)
(1.39498e-09 0 3.79645e-10)
(1.37231e-09 0 3.7288e-10)
(1.34781e-09 0 3.68427e-10)
(1.32163e-09 0 3.65802e-10)
(1.29391e-09 0 3.64587e-10)
(1.26478e-09 0 3.6442e-10)
(1.2344e-09 0 3.64997e-10)
(1.20292e-09 0 3.66066e-10)
(1.17049e-09 0 3.67421e-10)
(1.13725e-09 0 3.68901e-10)
(1.10333e-09 0 3.70379e-10)
(1.06887e-09 0 3.71761e-10)
(1.03398e-09 0 3.72979e-10)
(9.98754e-10 0 3.73988e-10)
(9.633e-10 0 3.74757e-10)
(9.27695e-10 0 3.75275e-10)
(8.92012e-10 0 3.75536e-10)
(8.56311e-10 0 3.75546e-10)
(8.20646e-10 0 3.75316e-10)
(7.85062e-10 0 3.74863e-10)
(7.49594e-10 0 3.74207e-10)
(7.14274e-10 0 3.73368e-10)
(6.79126e-10 0 3.7237e-10)
(6.44168e-10 0 3.71237e-10)
(6.09414e-10 0 3.69992e-10)
(5.74873e-10 0 3.68659e-10)
(5.40551e-10 0 3.6726e-10)
(5.0645e-10 0 3.65818e-10)
(4.7257e-10 0 3.64354e-10)
(4.38906e-10 0 3.62887e-10)
(4.05452e-10 0 3.61436e-10)
(3.72201e-10 0 3.60018e-10)
(3.39143e-10 0 3.58649e-10)
(3.06265e-10 0 3.57343e-10)
(2.73556e-10 0 3.56113e-10)
(2.41e-10 0 3.5497e-10)
(2.08583e-10 0 3.53926e-10)
(1.76288e-10 0 3.5299e-10)
(1.44098e-10 0 3.52169e-10)
(1.11996e-10 0 3.51469e-10)
(7.99653e-11 0 3.50897e-10)
(4.79855e-11 0 3.50465e-10)
(1.6003e-11 0 3.50289e-10)
(-0.000512634 0 0.00965593)
(0.00147948 0 0.00728624)
(0.000301946 0 0.00583722)
(0.00273028 0 -0.000540944)
(0.00353104 0 -0.00343045)
(0.00469347 0 -0.00583636)
(0.00433588 0 -0.0069937)
(0.00379894 0 -0.00630213)
(0.00236747 0 -0.00487944)
(0.00095355 0 -0.00299344)
(1.61795e-05 0 0.000241842)
(-0.000446547 0 0.00138462)
(-0.000642638 0 0.00254101)
(-0.00073248 0 0.00231075)
(-0.000321517 0 0.0020209)
(0.000110461 0 0.00200473)
(0.00016135 0 0.00199917)
(0.000379502 0 0.00172952)
(0.000436413 0 0.000337618)
(0.000324656 0 -0.000966725)
(0.000235419 0 -0.0016308)
(0.000170157 0 -0.00168824)
(2.65745e-06 0 9.77644e-05)
(7.02696e-10 0 2.24709e-09)
(1.42325e-09 0 1.67773e-09)
(1.44674e-09 0 1.43665e-09)
(1.45712e-09 0 1.30144e-09)
(1.44961e-09 0 1.19407e-09)
(1.4327e-09 0 1.08338e-09)
(1.41891e-09 0 9.68203e-10)
(1.41431e-09 0 8.56945e-10)
(1.41839e-09 0 7.57599e-10)
(1.42729e-09 0 6.74041e-10)
(1.43687e-09 0 6.0641e-10)
(1.44418e-09 0 5.5287e-10)
(1.44765e-09 0 5.10874e-10)
(1.44682e-09 0 4.78036e-10)
(1.44184e-09 0 4.52461e-10)
(1.43311e-09 0 4.32746e-10)
(1.42103e-09 0 4.17848e-10)
(1.40595e-09 0 4.06946e-10)
(1.38814e-09 0 3.99353e-10)
(1.36782e-09 0 3.94462e-10)
(1.34521e-09 0 3.91734e-10)
(1.32048e-09 0 3.90689e-10)
(1.29385e-09 0 3.90903e-10)
(1.2655e-09 0 3.92014e-10)
(1.23565e-09 0 3.93718e-10)
(1.20447e-09 0 3.95763e-10)