0.010101 	-4.21252e-10 	4.32346e-13 	-4.05351e-12
0.020202 	-1.63016e-11 	4.10259e-14 	-2.35509e-13
