/*--------------------------------*- C++ -*----------------------------------*\
  =========                 |
  \\      /  F ield         | OpenFOAM: The Open Source CFD Toolbox
   \\    /   O peration     | Website:  https://openfoam.org
    \\  /    A nd           | Version:  6
     \\/     M anipulation  |
\*---------------------------------------------------------------------------*/
FoamFile
{
    version     2.0;
    format      ascii;
    class       surfaceScalarField;
    location    "1200";
    object      phi;
}
// * * * * * * * * * * * * * * * * * * * * * * * * * * * * * * * * * * * * * //

dimensions      [0 3 -1 0 0 0 0];

internalField   nonuniform List<scalar> 
9440
(
-1.75407e-11
1.75407e-11
9.60804e-11
-1.13621e-10
4.57616e-11
5.03186e-11
3.00455e-10
-2.54694e-10
4.65568e-10
-1.65113e-10
5.87212e-10
-1.21644e-10
7.45121e-10
-1.57909e-10
8.16868e-10
-7.17473e-11
9.18993e-10
-1.02125e-10
9.77662e-10
-5.86693e-11
1.06414e-09
-8.64743e-11
1.15322e-09
-8.90819e-11
1.23008e-09
-7.68651e-11
1.30835e-09
-7.82694e-11
1.42352e-09
-1.15174e-10
1.51309e-09
-8.95667e-11
1.59786e-09
-8.47721e-11
1.61981e-09
-2.19443e-11
1.62935e-09
-9.53871e-12
1.651e-09
-2.16466e-11
1.68869e-09
-3.76904e-11
1.61134e-09
7.73486e-11
1.78397e-09
-1.72631e-10
1.80123e-09
-1.72627e-11
1.88596e-09
-8.4728e-11
1.97668e-09
-9.07202e-11
2.01783e-09
-4.11491e-11
2.10154e-09
-8.37055e-11
2.16314e-09
-6.16025e-11
2.21081e-09
-4.76698e-11
2.31345e-09
-1.02641e-10
2.31859e-09
-5.14259e-12
2.30686e-09
1.17245e-11
2.35559e-09
-4.87283e-11
2.38782e-09
-3.223e-11
2.48928e-09
-1.01462e-10
2.31498e-09
1.743e-10
2.43619e-09
-1.2121e-10
2.58678e-09
-1.50589e-10
2.65544e-09
-6.86704e-11
2.70796e-09
-5.25145e-11
2.76166e-09
-5.37019e-11
2.70147e-09
6.01867e-11
2.83458e-09
-1.33106e-10
2.91175e-09
-7.71762e-11
2.94349e-09
-3.17456e-11
2.97363e-09
-3.01391e-11
3.01631e-09
-4.26789e-11
3.10463e-09
-8.83281e-11
3.15975e-09
-5.51218e-11
3.15965e-09
8.88812e-14
3.16136e-09
-1.71542e-12
3.15246e-09
8.89499e-12
3.13195e-09
2.05122e-11
3.10412e-09
2.78151e-11
3.0719e-09
3.22182e-11
3.05278e-09
1.91149e-11
3.0248e-09
2.79765e-11
3.00021e-09
2.4592e-11
2.9516e-09
4.86017e-11
2.91194e-09
3.96651e-11
2.83976e-09
7.21802e-11
2.76218e-09
7.75781e-11
2.65802e-09
1.04157e-10
2.47168e-09
1.86341e-10
2.35374e-09
1.17942e-10
2.1515e-09
2.02238e-10
2.02168e-09
1.29825e-10
1.85388e-09
1.67801e-10
1.66826e-09
1.85615e-10
1.43159e-09
2.36672e-10
1.26879e-09
1.628e-10
9.51023e-10
3.17772e-10
6.98765e-10
2.52259e-10
4.60731e-10
2.38036e-10
2.54389e-10
2.06344e-10
1.6172e-10
9.26705e-11
1.13864e-10
4.78587e-11
2.97035e-11
8.41629e-11
-1.46573e-11
4.43609e-11
1.52438e-14
-1.46812e-11
-1.80843e-18
-1.61511e-19
-1.75841e-18
-5.00148e-20
-1.70812e-18
-5.12548e-20
-1.62734e-18
-7.73003e-20
-1.51626e-18
-1.06813e-19
-1.37854e-18
-1.33946e-19
-1.21924e-18
-1.56277e-19
-1.04393e-18
-1.73041e-19
-8.58292e-19
-1.84157e-19
-6.6769e-19
-1.89858e-19
-4.77007e-19
-1.90561e-19
-2.90537e-19
-1.86801e-19
-1.11947e-19
-1.79193e-19
5.57476e-20
-1.68391e-19
2.10169e-19
-1.55065e-19
3.49541e-19
-1.39873e-19
4.72629e-19
-1.23432e-19
5.78692e-19
-1.06294e-19
6.6743e-19
-8.89369e-20
7.38923e-19
-7.17544e-20
7.93581e-19
-5.50588e-20
8.32079e-19
-3.90857e-20
8.553e-19
-2.40016e-20
8.6428e-19
-9.91852e-21
8.60144e-19
3.09314e-21
8.44047e-19
1.49909e-20
8.17123e-19
2.57524e-20
7.80451e-19
3.53761e-20
7.35044e-19
4.38812e-20
6.81862e-19
5.13105e-20
6.21828e-19
5.77267e-20
5.55849e-19
6.32064e-20
4.84813e-19
6.78306e-20
4.09592e-19
7.16749e-20
3.31026e-19
7.48006e-20
2.49914e-19
7.72432e-20
1.67045e-19
7.89917e-20
8.32902e-20
7.9917e-20
7.94999e-20
7.80058e-11
-6.04655e-11
1.39151e-10
-1.74767e-10
2.78224e-10
-8.87543e-11
2.7995e-10
-2.5642e-10
4.94126e-10
-3.79291e-10
6.07175e-10
-2.34693e-10
7.20917e-10
-2.71652e-10
8.35562e-10
-1.86392e-10
9.01499e-10
-1.68063e-10
9.71496e-10
-1.28667e-10
1.07393e-09
-1.88914e-10
1.15853e-09
-1.73674e-10
1.25775e-09
-1.76092e-10
1.35097e-09
-1.71486e-10
1.38467e-09
-1.48874e-10
1.39317e-09
-9.80654e-11
1.46812e-09
-1.59726e-10
1.45221e-09
-6.03323e-12
1.4964e-09
-5.37223e-11
1.55759e-09
-8.28362e-11
1.56522e-09
-4.5316e-11
1.62643e-09
1.61399e-11
1.71234e-09
-2.58544e-10
1.80395e-09
-1.08872e-10
1.85019e-09
-1.3097e-10
1.8921e-09
-1.32625e-10
1.93275e-09
-8.18038e-11
1.96343e-09
-1.14387e-10
1.99763e-09
-9.57972e-11
2.04158e-09
-9.16202e-11
2.03352e-09
-9.45889e-11
2.03473e-09
-6.34721e-12
2.21945e-09
-1.73003e-10
2.29502e-09
-1.24299e-10
2.3625e-09
-9.97113e-11
2.42716e-09
-1.66127e-10
2.45402e-09
1.47433e-10
2.53533e-09
-2.02514e-10
2.59298e-09
-2.0825e-10
2.63312e-09
-1.0881e-10
2.67068e-09
-9.00798e-11
2.67711e-09
-6.01308e-11
2.75997e-09
-2.26773e-11
2.74846e-09
-1.21596e-10
2.82347e-09
-1.52194e-10
2.88116e-09
-8.94338e-11
2.92665e-09
-7.5642e-11
2.95272e-09
-6.87482e-11
3.00341e-09
-1.39027e-10
3.02097e-09
-7.26936e-11
3.06485e-09
-4.38038e-11
3.10128e-09
-3.81541e-11
3.11437e-09
-4.20805e-12
3.11044e-09
2.44376e-11
3.09502e-09
4.32264e-11
3.08002e-09
4.72111e-11
3.04776e-09
5.13607e-11
3.0273e-09
4.84322e-11
2.9882e-09
6.36952e-11
2.96467e-09
7.2126e-11
2.90519e-09
9.91428e-11
2.82213e-09
1.55244e-10
2.72557e-09
1.74141e-10
2.61265e-09
2.17074e-10
2.5741e-09
2.24892e-10
2.39132e-09
3.0072e-10
2.26047e-09
3.33093e-10
2.14934e-09
2.40954e-10
2.03017e-09
2.86976e-10
1.7643e-09
4.51487e-10
1.59105e-09
4.09927e-10
1.42548e-09
3.28364e-10
1.2057e-09
5.37561e-10
1.0996e-09
3.58363e-10
7.74394e-10
5.63241e-10
5.89678e-10
3.91062e-10
4.09693e-10
2.72659e-10
2.58118e-10
1.99437e-10
1.85282e-10
1.57008e-10
1.3432e-10
9.53452e-11
-1.38604e-15
1.19694e-10
-1.69584e-18
1.55227e-19
-1.75859e-18
2.27371e-20
-1.73314e-18
-6.99313e-20
-1.65685e-18
-1.48079e-19
-1.54339e-18
-2.15147e-19
-1.40087e-18
-2.71912e-19
-1.236e-18
-3.17519e-19
-1.05505e-18
-3.51466e-19
-8.63993e-19
-3.73784e-19
-6.68393e-19
-3.84975e-19
-4.73248e-19
-3.85915e-19
-2.82929e-19
-3.77743e-19
-1.01145e-19
-3.61767e-19
6.90733e-20
-3.39386e-19
2.25361e-19
-3.12015e-19
3.65982e-19
-2.81021e-19
4.89767e-19
-2.47658e-19
5.9605e-19
-2.13033e-19
6.84612e-19
-1.78079e-19
7.55618e-19
-1.43553e-19
8.09554e-19
-1.10049e-19
8.47163e-19
-7.80133e-20
8.69383e-19
-4.7779e-20
8.77292e-19
-1.95898e-20
8.72042e-19
6.37876e-21
8.54808e-19
3.00113e-20
8.26747e-19
5.12566e-20
7.88956e-19
7.01307e-20
7.42473e-19
8.67192e-20
6.88278e-19
1.01164e-19
6.27308e-19
1.13642e-19
5.60473e-19
1.24341e-19
4.88658e-19
1.33433e-19
4.12718e-19
1.41058e-19
3.33468e-19
1.47315e-19
2.51663e-19
1.52262e-19
1.6797e-19
1.55918e-19
8.28731e-20
1.58281e-19
1.59444e-19
4.02071e-11
-1.00673e-10
1.14192e-10
-2.48752e-10
3.41265e-10
-3.15828e-10
3.59038e-10
-2.74193e-10
4.12481e-10
-4.32734e-10
5.65382e-10
-3.87595e-10
6.45056e-10
-3.51327e-10
7.94698e-10
-3.36035e-10
8.91927e-10
-2.65293e-10
1.00802e-09
-2.44756e-10
1.08884e-09
-2.6974e-10
1.15346e-09
-2.38291e-10
1.16846e-09
-1.91099e-10
1.18029e-09
-1.83312e-10
1.18645e-09
-1.55031e-10
1.21596e-09
-1.27579e-10
1.23819e-09
-1.81952e-10
1.27165e-09
-3.95004e-11
1.34989e-09
-1.31958e-10
1.40818e-09
-1.41124e-10
1.46173e-09
-9.88703e-11
1.61732e-09
-1.39445e-10
1.55427e-09
-1.95493e-10
1.58924e-09
-1.43845e-10
1.62747e-09
-1.69193e-10
1.70243e-09
-2.07591e-10
1.71774e-09
-9.71136e-11
1.77012e-09
-1.66771e-10
1.85511e-09
-1.80784e-10
1.88653e-09
-1.23042e-10
1.98631e-09
-1.94363e-10
2.0459e-09
-6.59441e-11
2.07768e-09
-2.04781e-10
2.1442e-09
-1.90825e-10
2.21411e-09
-1.69618e-10
2.16925e-09
-1.21267e-10
2.35655e-09
-3.98696e-11
2.3416e-09
-1.87566e-10
2.38969e-09
-2.56344e-10
2.42206e-09
-1.41186e-10
2.46292e-09
-1.30939e-10
2.47324e-09
-7.04501e-11
2.54614e-09
-9.55863e-11
2.552e-09
-1.27462e-10
2.56563e-09
-1.65819e-10
2.62145e-09
-1.45267e-10
2.6721e-09
-1.26296e-10
2.71019e-09
-1.06838e-10
2.74704e-09
-1.7589e-10
2.77272e-09
-9.83798e-11
2.78367e-09
-5.47606e-11
2.78997e-09
-4.44568e-11
2.81521e-09
-2.94595e-11
2.86537e-09
-2.57273e-11
2.89872e-09
9.86077e-12
2.92326e-09
2.26641e-11
2.91527e-09
5.93462e-11
2.87919e-09
8.45133e-11
2.83001e-09
1.12876e-10
2.8265e-09
7.56296e-11
2.7601e-09
1.65541e-10
2.70727e-09
2.08075e-10
2.64058e-09
2.40833e-10
2.48571e-09
3.71941e-10
2.4932e-09
2.17402e-10
2.36137e-09
4.32556e-10
2.25379e-09
4.40675e-10
2.06235e-09
4.32389e-10
1.82708e-09
5.22252e-10
1.68739e-09
5.91178e-10
1.56703e-09
5.30283e-10
1.29051e-09
6.04888e-10
1.22092e-09
6.07157e-10
9.71703e-10
6.07581e-10
8.55508e-10
6.7944e-10
7.21005e-10
5.25569e-10
5.38199e-10
4.5547e-10
4.12008e-10
3.25629e-10
2.87526e-10
2.81484e-10
1.09443e-10
2.7341e-10
-1.54097e-15
2.29131e-10
-1.8272e-18
2.67373e-19
-1.85018e-18
4.82385e-20
-1.8103e-18
-1.05785e-19
-1.72392e-18
-2.30655e-19
-1.60016e-18
-3.35273e-19
-1.44648e-18
-4.22147e-19
-1.26995e-18
-4.90976e-19
-1.07737e-18
-5.41505e-19
-8.75185e-19
-5.74044e-19
-6.69333e-19
-5.8952e-19
-4.65075e-19
-5.89387e-19
-2.66953e-19
-5.75478e-19
-7.87636e-20
-5.49858e-19
9.64441e-20
-5.14696e-19
2.56356e-19
-4.72156e-19
3.99345e-19
-4.24305e-19
5.24392e-19
-3.73039e-19
6.31004e-19
-3.20019e-19
7.19138e-19
-2.6665e-19
7.89123e-19
-2.14077e-19
8.4159e-19
-1.63203e-19
8.77397e-19
-1.14715e-19
8.97573e-19
-6.9114e-20
9.0326e-19
-2.67547e-20
8.95674e-19
1.21341e-20
8.76054e-19
4.74286e-20
8.45621e-19
7.9103e-20
8.05544e-19
1.07226e-19
7.56918e-19
1.3195e-19
7.00756e-19
1.53496e-19
6.38007e-19
1.72125e-19
5.69565e-19
1.88105e-19
4.96282e-19
2.01682e-19
4.18976e-19
2.13058e-19
3.38415e-19
2.22384e-19
2.55318e-19
2.29758e-19
1.70333e-19
2.35239e-19
8.40358e-20
2.38869e-19
2.40711e-19
6.17492e-11
-1.62422e-10
8.53215e-11
-2.72324e-10
2.14021e-10
-4.44527e-10
4.06311e-10
-4.66484e-10
4.51754e-10
-4.78177e-10
5.34275e-10
-4.70116e-10
6.17842e-10
-4.34894e-10
6.59554e-10
-3.77748e-10
7.44018e-10
-3.49758e-10
8.41385e-10
-3.42125e-10
8.87235e-10
-3.1559e-10
9.06009e-10
-2.57066e-10
9.24309e-10
-2.094e-10
9.48259e-10
-2.07262e-10
9.5941e-10
-1.66183e-10
1.0138e-09
-1.81971e-10
1.01971e-09
-1.87862e-10
1.06917e-09
-8.89536e-11
1.14084e-09
-2.03627e-10
1.223e-09
-2.23287e-10
1.24083e-09
-1.16702e-10
1.31364e-09
-2.12246e-10
1.31658e-09
-1.9844e-10
1.34088e-09
-1.68144e-10
1.39116e-09
-2.19467e-10
1.44434e-09
-2.60773e-10
1.49341e-09
-1.46182e-10
1.57213e-09
-2.45493e-10
1.68678e-09
-2.95434e-10
1.65908e-09
-9.53447e-11
1.73108e-09
-2.66363e-10
1.86995e-09
-2.04815e-10
1.90732e-09
-2.42149e-10
1.96635e-09
-2.49858e-10
1.98365e-09
-1.86914e-10
2.05607e-09
-1.93689e-10
2.19956e-09
-1.83368e-10
2.20101e-09
-1.89019e-10
2.21427e-09
-2.69602e-10
2.20704e-09
-1.33955e-10
2.27931e-09
-2.03215e-10
2.19511e-09
1.37474e-11
2.32042e-09
-2.20906e-10
2.42432e-09
-2.31362e-10
2.44748e-09
-1.8899e-10
2.44187e-09
-1.39653e-10
2.44712e-09
-1.31553e-10
2.47252e-09
-1.3225e-10
2.51802e-09
-2.21396e-10
2.53624e-09
-1.16599e-10
2.57019e-09
-8.87241e-11
2.58726e-09
-6.15295e-11
2.59923e-09
-4.14335e-11
2.64167e-09
-6.81809e-11
2.65665e-09
-5.12639e-12
2.66737e-09
1.19446e-11
2.67649e-09
5.02228e-11
2.6606e-09
1.0039e-10
2.61403e-09
1.59447e-10
2.59062e-09
9.90356e-11
2.55324e-09
2.02923e-10
2.50263e-09
2.58687e-10
2.45128e-09
2.92183e-10
2.41862e-09
4.04595e-10
2.28519e-09
3.50841e-10
2.27227e-09
4.45475e-10
2.16569e-09
5.47257e-10
1.97485e-09
6.23224e-10
1.82708e-09
6.70022e-10
1.69098e-09
7.27285e-10
1.46016e-09
7.61103e-10
1.22628e-09
8.38768e-10
1.09743e-09
7.36012e-10
9.64934e-10
7.40083e-10
9.24421e-10
7.19958e-10
6.59396e-10
7.906e-10
4.17919e-10
6.96955e-10
2.27974e-10
5.15586e-10
1.28595e-10
3.80874e-10
8.85601e-11
3.13448e-10
-4.5095e-16
3.17693e-10
-2.04519e-18
2.18611e-19
-2.00312e-18
7.36639e-21
-1.93424e-18
-1.7246e-19
-1.82854e-18
-3.33899e-19
-1.68703e-18
-4.74135e-19
-1.51531e-18
-5.91049e-19
-1.32048e-18
-6.82921e-19
-1.1099e-18
-7.49301e-19
-8.90661e-19
-7.90808e-19
-6.69199e-19
-8.0893e-19
-4.51166e-19
-8.05832e-19
-2.41334e-19
-7.84162e-19
-4.36013e-20
-7.46841e-19
1.38984e-19
-6.96885e-19
3.04206e-19
-6.37267e-19
4.50611e-19
-5.70803e-19
5.77412e-19
-5.00054e-19
6.84373e-19
-4.27267e-19
7.7171e-19
-3.54338e-19
8.39997e-19
-2.82812e-19
8.90078e-19
-2.13897e-19
9.22998e-19
-1.48501e-19
9.39932e-19
-8.72654e-20
9.42149e-19
-3.06107e-20
9.30969e-19
2.1225e-20
9.07728e-19
6.81516e-20
8.73743e-19
1.10202e-19
8.30268e-19
1.47512e-19
7.78464e-19
1.80309e-19
7.19385e-19
2.08889e-19
6.53987e-19
2.33586e-19
5.83142e-19
2.54744e-19
5.07658e-19
2.7268e-19
4.28301e-19
2.87667e-19
3.45789e-19
2.99916e-19
2.608e-19
3.09578e-19
1.73964e-19
3.16757e-19
8.58772e-20
3.21522e-19
3.23931e-19
5.5555e-11
-2.17977e-10
1.62123e-10
-3.78892e-10
2.57438e-10
-5.39841e-10
3.51383e-10
-5.60428e-10
4.27792e-10
-5.54586e-10
4.70093e-10
-5.12417e-10
5.14408e-10
-4.7921e-10
5.38427e-10
-4.01767e-10
5.77622e-10
-3.88954e-10
6.15688e-10
-3.80193e-10
6.69817e-10
-3.6972e-10
7.29181e-10
-3.16432e-10
7.60612e-10
-2.40832e-10
7.78331e-10
-2.24983e-10
7.93655e-10
-1.81509e-10
8.26971e-10
-2.15288e-10
8.64143e-10
-2.25034e-10
9.21168e-10
-1.45979e-10
9.26809e-10
-2.09268e-10
1.00978e-09
-3.06253e-10
1.04351e-09
-1.50432e-10
1.09907e-09
-2.67808e-10
1.13717e-09
-2.36541e-10
1.1831e-09
-2.14073e-10
1.24017e-09
-2.76531e-10
1.25768e-09
-2.78292e-10
1.37115e-09
-2.59647e-10
1.40634e-09
-2.80688e-10
1.46263e-09
-3.5172e-10
1.6015e-09
-2.34217e-10
1.54362e-09
-2.08482e-10
1.7115e-09
-3.72693e-10
1.78278e-09
-3.13433e-10
1.82079e-09
-2.87866e-10
1.84632e-09
-2.12447e-10
1.90095e-09
-2.48317e-10
1.93594e-09
-2.1836e-10
1.93161e-09
-1.84688e-10
1.9609e-09
-2.98896e-10
2.03795e-09
-2.11005e-10
2.08897e-09
-2.54243e-10
2.14105e-09
-3.8339e-11
2.15393e-09
-2.33782e-10
2.17632e-09
-2.53759e-10
2.19708e-09
-2.09755e-10
2.22401e-09
-1.66594e-10
2.24963e-09
-1.57174e-10
2.27186e-09
-1.54487e-10
2.29377e-09
-2.43319e-10
2.32412e-09
-1.46948e-10
2.35384e-09
-1.18456e-10
2.38848e-09
-9.61721e-11
2.41095e-09
-6.3912e-11
2.4568e-09
-1.14037e-10
2.45974e-09
-8.06831e-12
2.44916e-09
2.25201e-11
2.45301e-09
4.63676e-11
2.43841e-09
1.14988e-10
2.40708e-09
1.90772e-10
2.3594e-09
1.46716e-10
2.31058e-09
2.51739e-10
2.24056e-09
3.28709e-10
2.25553e-09
2.77218e-10
2.19522e-09
4.649e-10
2.04083e-09
5.05237e-10
1.94361e-09
5.42693e-10
1.72214e-09
7.68731e-10
1.65909e-09
6.86272e-10
1.54296e-09
7.86149e-10
1.44811e-09
8.22137e-10
1.32495e-09
8.84266e-10
1.23495e-09
9.28771e-10
1.12449e-09
8.4648e-10
9.77295e-10
8.8728e-10
7.60302e-10
9.36955e-10
5.51155e-10
9.99752e-10
4.16861e-10
8.31253e-10
2.63682e-10
6.68769e-10
1.43367e-10
5.01196e-10
4.85813e-11
4.08238e-10
1.6031e-16
3.66275e-10
-2.25529e-18
2.02412e-20
-2.18187e-18
-6.52903e-20
-2.09485e-18
-2.58701e-19
-1.96878e-18
-4.58873e-19
-1.80394e-18
-6.37443e-19
-1.60718e-18
-7.85816e-19
-1.38686e-18
-9.00844e-19
-1.15141e-18
-9.82119e-19
-9.08783e-19
-1.03083e-18
-6.66102e-19
-1.04924e-18
-4.29496e-19
-1.04045e-18
-2.04012e-19
-1.00808e-18
6.35479e-21
-9.56055e-19
1.98602e-19
-8.88388e-19
3.7067e-19
-8.08963e-19
5.2136e-19
-7.21417e-19
6.50199e-19
-6.2903e-19
7.57302e-19
-5.34656e-19
8.43237e-19
-4.40686e-19
9.08912e-19
-3.49047e-19
9.55475e-19
-2.61227e-19
9.84233e-19
-1.78313e-19
9.96587e-19
-1.01047e-19
9.93985e-19
-2.98747e-20
9.77895e-19
3.49959e-20
9.49778e-19
9.35429e-20
9.11054e-19
1.45886e-19
8.63066e-19
1.92255e-19
8.07044e-19
2.32966e-19
7.44083e-19
2.68396e-19
6.75145e-19
2.98962e-19
6.01078e-19
3.25085e-19
5.22646e-19
3.47163e-19
4.4055e-19
3.65543e-19
3.55452e-19
3.80507e-19
2.67978e-19
3.92271e-19
1.78729e-19
4.0099e-19
8.82861e-20
4.0677e-19
4.09688e-19
4.96134e-11
-2.6759e-10
1.79814e-10
-5.09092e-10
2.62497e-10
-6.22524e-10
3.2513e-10
-6.23061e-10
3.52196e-10
-5.81652e-10
3.63123e-10
-5.23344e-10
3.69178e-10
-4.85265e-10
4.06124e-10
-4.38713e-10
4.57496e-10
-4.40326e-10
5.17684e-10
-4.40382e-10
5.51142e-10
-4.03179e-10
5.61549e-10
-3.26839e-10
5.83407e-10
-2.62691e-10
6.15208e-10
-2.56784e-10
6.66999e-10
-2.33301e-10
6.79817e-10
-2.28107e-10
6.80401e-10
-2.25619e-10
7.65603e-10
-2.31181e-10
7.90209e-10
-2.33874e-10
8.19367e-10
-3.3541e-10
9.17763e-10
-2.48828e-10
9.39289e-10
-2.89333e-10
9.78434e-10
-2.75685e-10
1.07746e-09
-3.13096e-10
1.11577e-09
-3.14841e-10
1.17758e-09
-3.40099e-10
1.25005e-09
-3.32124e-10
1.25747e-09
-2.88108e-10
1.30454e-09
-3.98792e-10
1.46428e-09
-3.93955e-10
1.51323e-09
-2.57432e-10
1.54686e-09
-4.06325e-10
1.59342e-09
-3.59989e-10
1.61977e-09
-3.14216e-10
1.65485e-09
-2.47528e-10
1.67572e-09
-2.69189e-10
1.73957e-09
-2.82206e-10
1.8152e-09
-2.60325e-10
1.77397e-09
-2.57665e-10
1.79322e-09
-2.30255e-10
1.79355e-09
-2.54586e-10
1.93891e-09
-1.83699e-10
1.94568e-09
-2.40561e-10
1.95319e-09
-2.61269e-10
1.95327e-09
-2.09838e-10
1.96603e-09
-1.79364e-10
2.03589e-09
-2.27038e-10
2.09225e-09
-2.10856e-10
2.06331e-09
-2.14377e-10
2.07377e-09
-1.57418e-10
2.0865e-09
-1.31195e-10
2.12083e-09
-1.30506e-10
2.17478e-09
-1.17865e-10
2.20917e-09
-1.48428e-10
2.21887e-09
-1.77741e-11
2.22272e-09
1.86705e-11
2.22192e-09
4.71634e-11
2.19346e-09
1.43439e-10
2.18728e-09
1.96954e-10
2.16081e-09
1.73181e-10
2.10145e-09
3.11103e-10
2.02007e-09
4.10083e-10
1.96305e-09
3.34239e-10
1.90207e-09
5.25883e-10
1.90183e-09
5.05473e-10
1.83831e-09
6.06212e-10
1.84642e-09
7.60625e-10
1.76502e-09
7.6767e-10
1.60993e-09
9.41244e-10
1.44719e-09
9.84881e-10
1.29721e-09
1.03424e-09
1.15516e-09
1.07083e-09
9.17731e-10
1.08391e-09
7.51644e-10
1.05337e-09
5.72096e-10
1.11651e-09
4.65306e-10
1.10655e-09
3.88461e-10
9.08103e-10
3.08361e-10
7.48873e-10
2.80956e-10
5.28605e-10
2.05715e-10
4.8348e-10
4.43106e-16
5.7199e-10
-2.3397e-18
3.6887e-19
-2.37422e-18
-3.0597e-20
-2.2943e-18
-3.39028e-19
-2.14735e-18
-6.06051e-19
-1.95232e-18
-8.32202e-19
-1.72221e-18
-1.01503e-18
-1.46813e-18
-1.15342e-18
-1.20012e-18
-1.24817e-18
-9.272e-19
-1.30156e-18
-6.57307e-19
-1.317e-18
-3.97123e-19
-1.29875e-18
-1.51992e-19
-1.25167e-18
7.40218e-20
-1.18089e-18
2.78027e-19
-1.09159e-18
4.58216e-19
-9.88728e-19
6.13746e-19
-8.76861e-19
7.44573e-19
-7.60046e-19
8.51271e-19
-6.41764e-19
9.34876e-19
-5.24889e-19
9.96732e-19
-4.11696e-19
1.03839e-18
-3.03902e-19
1.0615e-18
-2.02723e-19
1.06776e-18
-1.08944e-19
1.05886e-18
-2.29887e-20
1.03644e-18
5.50058e-20
1.00212e-18
1.25121e-19
9.57423e-19
1.87599e-19
9.03776e-19
2.42793e-19
8.42474e-19
2.91132e-19
7.74649e-19
3.33101e-19
7.01268e-19
3.69211e-19
6.23156e-19
3.99976e-19
5.41025e-19
4.25881e-19
4.55514e-19
4.47358e-19
3.67216e-19
4.64772e-19
2.76697e-19
4.78408e-19
1.8451e-19
4.88481e-19
9.12046e-20
4.95145e-19
4.98508e-19
8.59695e-11
-3.53559e-10
1.46058e-10
-5.6918e-10
2.00658e-10
-6.77124e-10
2.09804e-10
-6.32207e-10
1.95783e-10
-5.67632e-10
2.25153e-10
-5.52715e-10
2.8524e-10
-5.45352e-10
3.48322e-10
-5.01795e-10
3.72529e-10
-4.64534e-10
3.87893e-10
-4.55747e-10
4.22279e-10
-4.37566e-10
4.54232e-10
-3.58793e-10
4.91329e-10
-2.99788e-10
5.07906e-10
-2.73362e-10
5.20044e-10
-2.45439e-10
5.46994e-10
-2.55058e-10
5.71544e-10
-2.50171e-10
6.04994e-10
-2.64631e-10
6.59791e-10
-2.88672e-10
6.89217e-10
-3.64836e-10
7.6974e-10
-3.29352e-10
8.18275e-10
-3.37867e-10
8.31517e-10
-2.88928e-10
9.21308e-10
-4.02886e-10
9.76824e-10
-3.70357e-10
9.94599e-10
-3.57873e-10
1.07306e-09
-4.1059e-10
1.15825e-09
-3.73294e-10
1.19131e-09
-4.31851e-10
1.24553e-09
-4.48173e-10
1.39348e-09
-4.05382e-10
1.3706e-09
-3.83449e-10
1.40144e-09
-3.90827e-10
1.43917e-09
-3.51947e-10
1.50442e-09
-3.12781e-10
1.52495e-09
-2.89721e-10
1.51644e-09
-2.73694e-10
1.51434e-09
-2.58226e-10
1.51354e-09
-2.56868e-10
1.5405e-09
-2.57218e-10
1.56652e-09
-2.80609e-10
1.62663e-09
-2.43811e-10
1.62428e-09
-2.38216e-10
1.65171e-09
-2.8871e-10
1.66334e-09
-2.21469e-10
1.69781e-09
-2.13841e-10
1.72399e-09
-2.53223e-10
1.73171e-09
-2.18578e-10
1.76755e-09
-2.5023e-10
1.82331e-09
-2.13177e-10
1.84134e-09
-1.49232e-10
1.87856e-09
-1.67727e-10
1.93052e-09
-1.69826e-10
1.92927e-09
-1.47186e-10
1.96297e-09
-5.14719e-11
1.97292e-09
8.71209e-12
1.97665e-09
4.34308e-11
1.96245e-09
1.57636e-10
1.94516e-09
2.14245e-10
1.9434e-09
1.74941e-10
1.8971e-09
3.57404e-10
1.87027e-09
4.36903e-10
1.72652e-09
4.77998e-10
1.66801e-09
5.84391e-10
1.47639e-09
6.97095e-10
1.391e-09
6.91597e-10
1.32244e-09
8.29184e-10
1.24312e-09
8.46991e-10
1.19225e-09
9.92116e-10
1.10913e-09
1.068e-09
1.03922e-09
1.10416e-09
9.42695e-10
1.16736e-09
8.16506e-10
1.2101e-09
7.59657e-10
1.11023e-09
6.97246e-10
1.17892e-09
7.86309e-10
1.01749e-09
7.04748e-10
9.89669e-10
5.3008e-10
9.23544e-10
2.83757e-10
7.74929e-10
7.21596e-11
6.95077e-10
5.23762e-16
6.44148e-10
-2.738e-18
2.29919e-19
-2.68159e-18
-8.75176e-20
-2.56074e-18
-4.61269e-19
-2.3735e-18
-7.94683e-19
-2.13515e-18
-1.0715e-18
-1.8606e-18
-1.28988e-18
-1.56288e-18
-1.45076e-18
-1.25351e-18
-1.55658e-18
-9.42642e-19
-1.61109e-18
-6.39059e-19
-1.61914e-18
-3.50036e-19
-1.58646e-18
-8.12153e-20
-1.51942e-18
1.63319e-19
-1.42463e-18
3.80891e-19
-1.30868e-18
5.70084e-19
-1.17775e-18
7.30561e-19
-1.03747e-18
8.62855e-19
-8.92737e-19
9.68147e-19
-7.47681e-19
1.04807e-18
-6.05632e-19
1.10453e-18
-4.69165e-19
1.13957e-18
-3.4016e-19
1.15528e-18
-2.19885e-19
1.15371e-18
-1.09098e-19
1.13685e-18
-8.13516e-21
1.10656e-18
8.29915e-20
1.0646e-18
1.64516e-19
1.01262e-18
2.36841e-19
9.52115e-19
3.00481e-19
8.84443e-19
3.56016e-19
8.10759e-19
4.04065e-19
7.32033e-19
4.45259e-19
6.49061e-19
4.80221e-19
5.62503e-19
5.09538e-19
4.72928e-19
5.33737e-19
3.80851e-19
5.5327e-19
2.8677e-19
5.68502e-19
1.91174e-19
5.79717e-19
9.45671e-20
5.87119e-19
5.90851e-19
6.64534e-11
-4.20012e-10
1.265e-10
-6.29227e-10
1.079e-10
-6.58525e-10
6.56243e-11
-5.89931e-10
6.26684e-11
-5.64676e-10
8.5146e-11
-5.75193e-10
1.25627e-10
-5.85834e-10
2.16358e-10
-5.92526e-10
3.03495e-10
-5.51671e-10
3.33197e-10
-4.85449e-10
3.46281e-10
-4.50649e-10
3.81595e-10
-3.94106e-10
4.1608e-10
-3.34273e-10
4.31017e-10
-2.88299e-10
4.2973e-10
-2.44153e-10
4.28089e-10
-2.53416e-10
4.46739e-10
-2.68822e-10
4.78008e-10
-2.95901e-10
5.30239e-10
-3.40905e-10
5.54842e-10
-3.89439e-10
6.1859e-10
-3.93101e-10
6.67131e-10
-3.86408e-10
7.50175e-10
-3.71972e-10
7.54481e-10
-4.07193e-10
8.86527e-10
-5.02403e-10
9.32099e-10
-4.03445e-10
9.27095e-10
-4.05586e-10
1.01299e-09
-4.59194e-10
1.07706e-09
-4.95913e-10
1.09202e-09
-4.63138e-10
1.12116e-09
-4.34523e-10
1.14498e-09
-4.07269e-10
1.16472e-09
-4.10566e-10
1.20018e-09
-3.87409e-10
1.22367e-09
-3.36272e-10
1.24346e-09
-3.09509e-10
1.26151e-09
-2.9175e-10
1.28133e-09
-2.78041e-10
1.29771e-09
-2.73256e-10
1.31799e-09
-2.77501e-10
1.31401e-09
-2.76629e-10
1.33588e-09
-2.65691e-10
1.35547e-09
-2.57808e-10
1.37999e-09
-3.13239e-10
1.39663e-09
-2.38109e-10
1.44721e-09
-2.64425e-10
1.47639e-09
-2.8241e-10
1.5213e-09
-2.63492e-10
1.5224e-09
-2.51338e-10
1.53679e-09
-2.27569e-10
1.58825e-09
-2.00698e-10
1.66891e-09
-2.48389e-10
1.71272e-09
-2.13632e-10
1.69995e-09
-1.34421e-10
1.73704e-09
-8.85667e-11
1.734e-09
1.17523e-11
1.75106e-09
2.63704e-11
1.75025e-09
1.58448e-10
1.74607e-09
2.18418e-10
1.68917e-09
2.31842e-10
1.62031e-09
4.26258e-10
1.58498e-09
4.72237e-10
1.45043e-09
6.12546e-10
1.42667e-09
6.08149e-10
1.43532e-09
6.88445e-10
1.43423e-09
6.92683e-10
1.33859e-09
9.24823e-10
1.18788e-09
9.97699e-10
1.10174e-09
1.07826e-09
1.07035e-09
1.0994e-09
9.90047e-10
1.18446e-09
8.68346e-10
1.28906e-09
8.31529e-10
1.24692e-09
7.75231e-10
1.16653e-09
7.19599e-10
1.23456e-09
4.9874e-10
1.23835e-09
2.73397e-10
1.21501e-09
2.37659e-10
9.59282e-10
2.45699e-10
7.66889e-10
1.57228e-10
7.83547e-10
4.06992e-16
8.01374e-10
-3.05429e-18
7.05566e-19
-3.0543e-18
-8.8557e-20
-2.89373e-18
-6.2387e-19
-2.65032e-18
-1.04033e-18
-2.35352e-18
-1.37022e-18
-2.02147e-18
-1.62326e-18
-1.66871e-18
-1.80419e-18
-1.30802e-18
-1.91736e-18
-9.50688e-19
-1.96809e-18
-6.06382e-19
-1.96291e-18
-2.8299e-19
-1.90935e-18
1.35676e-20
-1.81565e-18
2.79276e-19
-1.69024e-18
5.11821e-19
-1.54135e-18
7.10364e-19
-1.37665e-18
8.7529e-19
-1.20296e-18
1.00791e-18
-1.02611e-18
1.1102e-18
-8.50868e-19
1.18454e-18
-6.80997e-19
1.23353e-18
-5.19301e-19
1.25984e-18
-3.67736e-19
1.26607e-18
-2.27527e-19
1.25468e-18
-9.93085e-20
1.22798e-18
1.67577e-20
1.18808e-18
1.20864e-19
1.13692e-18
2.13458e-19
1.07626e-18
2.95157e-19
1.00765e-18
3.66683e-19
9.32492e-19
4.28806e-19
8.51954e-19
4.82313e-19
7.66995e-19
5.27985e-19
6.78377e-19
5.66573e-19
5.86702e-19
5.9878e-19
4.9246e-19
6.25238e-19
3.96084e-19
6.46495e-19
2.97984e-19
6.63001e-19
1.98576e-19
6.75109e-19
9.82994e-20
6.83082e-19
6.87099e-19
-1.50403e-11
-4.04972e-10
-7.77254e-11
-5.66544e-10
-1.20186e-10
-6.16065e-10
-1.25401e-10
-5.84718e-10
-1.43931e-10
-5.46147e-10
-1.77149e-10
-5.41976e-10
-1.36288e-10
-6.26695e-10
-5.76437e-11
-6.71169e-10
5.90496e-11
-6.68364e-10
2.10079e-10
-6.36477e-10
2.96814e-10
-5.37382e-10
3.59023e-10
-4.56315e-10
3.52518e-10
-3.27767e-10
3.13047e-10
-2.48827e-10
3.08483e-10
-2.39589e-10
3.16573e-10
-2.61507e-10
3.46297e-10
-2.98547e-10
3.76392e-10
-3.25997e-10
4.23294e-10
-3.87808e-10
4.65721e-10
-4.31867e-10
5.20894e-10
-4.48275e-10
5.43896e-10
-4.09411e-10
6.48526e-10
-4.76603e-10
6.44484e-10
-4.03151e-10
6.41119e-10
-4.99039e-10
7.67776e-10
-5.30101e-10
8.53584e-10
-4.91395e-10
8.52105e-10
-4.57716e-10
8.75889e-10
-5.19698e-10
9.15568e-10
-5.02817e-10
9.50408e-10
-4.69363e-10
9.90507e-10
-4.47369e-10
9.8008e-10
-4.00139e-10
9.74862e-10
-3.82191e-10
9.88171e-10
-3.49581e-10
9.99178e-10
-3.20516e-10
1.0063e-09
-2.98874e-10
1.01512e-09
-2.86855e-10
1.02707e-09
-2.85214e-10
1.03573e-09
-2.86164e-10
1.0613e-09
-3.02203e-10
1.08275e-09
-2.87143e-10
1.11776e-09
-2.92819e-10
1.13743e-09
-3.32922e-10
1.21893e-09
-3.19611e-10
1.22452e-09
-2.70023e-10
1.26544e-09
-3.23332e-10
1.32835e-09
-3.264e-10
1.33215e-09
-2.55145e-10
1.35892e-09
-2.54347e-10
1.40343e-09
-2.45204e-10
1.42674e-09
-2.71703e-10
1.4451e-09
-2.31994e-10
1.48226e-09
-1.71576e-10
1.52233e-09
-1.28639e-10
1.51289e-09
2.11896e-11
1.49134e-09
4.79217e-11
1.49136e-09
1.58424e-10
1.52953e-09
1.80243e-10
1.47161e-09
2.89761e-10
1.44397e-09
4.53896e-10
1.38934e-09
5.2687e-10
1.37292e-09
6.28959e-10
1.32349e-09
6.57571e-10
1.15422e-09
8.57716e-10
1.00256e-09
8.4434e-10
1.00648e-09
9.20904e-10
9.59768e-10
1.04441e-09
9.25808e-10
1.11222e-09
7.652e-10
1.26e-09
6.90825e-10
1.25883e-09
6.75856e-10
1.30403e-09
6.0652e-10
1.31626e-09
4.38349e-10
1.3347e-09
3.29465e-10
1.34344e-09
2.03892e-10
1.36393e-09
1.65938e-10
1.25297e-09
7.72171e-11
1.048e-09
-8.36568e-11
9.27761e-10
-1.07919e-10
8.07808e-10
1.27331e-16
6.93454e-10
-3.84722e-18
2.23948e-19
-3.58858e-18
-3.48517e-19
-3.30995e-18
-9.04761e-19
-2.98021e-18
-1.37276e-18
-2.60656e-18
-1.74642e-18
-2.2024e-18
-2.02945e-18
-1.78188e-18
-2.22612e-18
-1.35875e-18
-2.3414e-18
-9.45502e-19
-2.38186e-18
-5.52831e-19
-2.35587e-18
-1.89289e-19
-2.27319e-18
1.3898e-19
-2.14436e-18
4.28167e-19
-1.98007e-18
6.76523e-19
-1.79056e-18
8.84053e-19
-1.58521e-18
1.05214e-18
-1.37219e-18
1.18315e-18
-1.15831e-18
1.28007e-18
-9.49005e-19
1.34623e-18
-7.48374e-19
1.3851e-18
-5.59356e-19
1.40005e-18
-3.83866e-19
1.39428e-18
-2.2297e-19
1.37074e-18
-7.70557e-20
1.33208e-18
5.40021e-20
1.28068e-18
1.70697e-19
1.21862e-18
2.73775e-19
1.14778e-18
3.64138e-19
1.06977e-18
4.42767e-19
9.85999e-19
5.10667e-19
8.97626e-19
5.6883e-19
8.05583e-19
6.18213e-19
7.10584e-19
6.59719e-19
6.1316e-19
6.94181e-19
5.13717e-19
7.22346e-19
4.1259e-19
7.44862e-19
3.10092e-19
7.62266e-19
2.06549e-19
7.74985e-19
1.02316e-19
7.83338e-19
7.87543e-19
-3.68238e-11
-3.68149e-10
-9.30456e-11
-5.10324e-10
-1.95936e-10
-5.13177e-10
-3.2527e-10
-4.55385e-10
-3.80621e-10
-4.90798e-10
-4.17558e-10
-5.05039e-10
-3.95725e-10
-6.48527e-10
-3.15414e-10
-7.5148e-10
-1.92325e-10
-7.91452e-10
-1.4013e-10
-6.8867e-10
3.13382e-12
-6.80644e-10
1.70379e-10
-6.23558e-10
2.07914e-10
-3.653e-10
1.83239e-10
-2.24151e-10
1.8922e-10
-2.4557e-10
2.14431e-10
-2.86718e-10
2.53133e-10
-3.37249e-10
3.07998e-10
-3.80863e-10
3.36682e-10
-4.16493e-10
3.5812e-10
-4.53307e-10
3.96488e-10
-4.86644e-10
4.46194e-10
-4.59118e-10
4.51871e-10
-4.82281e-10
5.77207e-10
-5.28488e-10
6.00856e-10
-5.22689e-10
5.79327e-10
-5.08572e-10
6.31933e-10
-5.44001e-10
7.17236e-10
-5.4302e-10
7.25495e-10
-5.27958e-10
7.26165e-10
-5.03488e-10
7.16038e-10
-4.59237e-10
7.22259e-10
-4.53591e-10
7.36926e-10
-4.14807e-10
7.54829e-10
-4.00095e-10
7.73922e-10
-3.68674e-10
7.81822e-10
-3.28415e-10
7.83991e-10
-3.01043e-10
7.92442e-10
-2.95307e-10
8.11748e-10
-3.04521e-10
8.34776e-10
-3.09193e-10
8.54404e-10
-3.21834e-10
8.97388e-10
-3.30132e-10
9.41277e-10
-3.36712e-10
9.48396e-10
-3.40046e-10
1.01508e-09
-3.86298e-10
1.07888e-09
-3.33834e-10
1.11386e-09
-3.58311e-10
1.1269e-09
-3.39447e-10
1.14983e-09
-2.78069e-10
1.18168e-09
-2.86207e-10
1.20576e-09
-2.69282e-10
1.21322e-09
-2.79167e-10
1.21201e-09
-2.30778e-10
1.24816e-09
-2.07733e-10
1.27321e-09
-1.5368e-10
1.28373e-09
1.06686e-11
1.26363e-09
6.80194e-11
1.22477e-09
1.97278e-10
1.13099e-09
2.74026e-10
1.09573e-09
3.25014e-10
1.005e-09
5.44627e-10
9.30712e-10
6.01151e-10
9.04273e-10
6.55395e-10
8.1662e-10
7.45221e-10
8.3221e-10
8.42124e-10
8.51861e-10
8.24687e-10
7.37949e-10
1.03481e-09
6.39121e-10
1.14324e-09
6.006e-10
1.15074e-09
6.19545e-10
1.24106e-09
5.85234e-10
1.29314e-09
4.69563e-10
1.4197e-09
3.77567e-10
1.40825e-09
2.77974e-10
1.43429e-09
1.76661e-10
1.44475e-09
6.42698e-11
1.47631e-09
-1.09266e-10
1.4265e-09
-1.97606e-10
1.13634e-09
-1.81133e-10
9.11285e-10
-1.50475e-10
7.77147e-10
-1.77759e-16
5.42979e-10
-4.41853e-18
5.01358e-20
-4.14392e-18
-6.24468e-19
-3.77786e-18
-1.27296e-18
-3.35387e-18
-1.79955e-18
-2.88959e-18
-2.2136e-18
-2.39907e-18
-2.52244e-18
-1.89716e-18
-2.72987e-18
-1.39921e-18
-2.8407e-18
-9.19513e-19
-2.86259e-18
-4.70151e-19
-2.80607e-18
-6.04651e-20
-2.68371e-18
3.03272e-19
-2.50908e-18
6.17677e-19
-2.29568e-18
8.81878e-19
-2.05621e-18
1.09707e-18
-1.80203e-18
1.26602e-18
-1.54282e-18
1.39246e-18
-1.2864e-18
1.4807e-18
-1.03878e-18
1.53525e-18
-8.04304e-19
1.56059e-18
-5.85889e-19
1.56095e-18
-3.85248e-19
1.5402e-18
-2.03125e-19
1.5018e-18
-3.95169e-20
1.44878e-18
1.06121e-19
1.38375e-18
2.34705e-19
1.30899e-18
3.47379e-19
1.22641e-18
4.45406e-19
1.13767e-18
5.30093e-19
1.04416e-18
6.02725e-19
9.47009e-19
6.6454e-19
8.47089e-19
7.16696e-19
7.45046e-19
7.60268e-19
6.41325e-19
7.96232e-19
5.36233e-19
8.25456e-19
4.29994e-19
8.48691e-19
3.22811e-19
8.66563e-19