/*--------------------------------*- C++ -*----------------------------------*\
  =========                 |
  \\      /  F ield         | OpenFOAM: The Open Source CFD Toolbox
   \\    /   O peration     | Website:  https://openfoam.org
    \\  /    A nd           | Version:  6
     \\/     M anipulation  |
\*---------------------------------------------------------------------------*/
FoamFile
{
    version     2.0;
    format      ascii;
    class       volScalarField;
    location    "1200";
    object      T;
}
// * * * * * * * * * * * * * * * * * * * * * * * * * * * * * * * * * * * * * //

dimensions      [0 0 0 1 0 0 0];

internalField   nonuniform List<scalar> 
4800
(
552.502
552.407
552.313
552.219
552.126
552.034
551.943
551.852
551.762
551.672
551.583
551.495
551.408
551.321
551.236
551.151
551.067
550.984
550.901
550.82
550.74
550.661
550.583
550.506
550.43
550.356
550.282
550.21
550.138
550.067
549.998
549.929
549.86
549.792
549.725
549.659
549.593
549.527
549.462
549.397
549.333
549.269
549.205
549.141
549.078
549.014
548.951
548.887
548.824
548.759
548.695
548.629
548.563
548.495
548.426
548.355
548.282
548.207
548.128
548.046
547.96
547.869
547.773
547.672
547.565
547.45
547.329
547.201
547.066
546.924
546.774
546.619
546.458
546.293
546.125
545.956
545.787
545.62
545.455
545.294
545.137
544.984
544.835
544.691
544.551
544.414
544.281
544.151
544.023
543.898
543.775
543.654
543.535
543.417
543.301
543.186
543.072
542.959
542.847
542.736
542.626
542.516
542.407
542.299
542.191
542.083
541.976
541.869
541.762
541.656
541.55
541.444
541.339
541.233
541.128
541.023
540.918
540.812
540.707
540.602
552.502
552.407
552.312
552.217
552.124
552.031
551.939
551.847
551.756
551.666
551.577
551.489
551.401
551.314
551.228
551.143
551.058
550.975
550.892
550.811
550.731
550.651
550.573
550.497
550.421
550.346
550.272
550.2
550.128
550.057
549.987
549.918
549.85
549.782
549.715
549.648
549.582
549.517
549.451
549.387
549.322
549.258
549.194
549.13
549.066
549.003
548.939
548.875
548.811
548.747
548.683
548.617
548.551
548.484
548.415
548.344
548.271
548.195
548.117
548.035
547.949
547.858
547.763
547.662
547.555
547.441
547.321
547.193
547.058
546.916
546.768
546.613
546.453
546.289
546.122
545.953
545.784
545.617
545.452
545.291
545.133
544.98
544.832
544.688
544.548
544.412
544.279
544.149
544.021
543.896
543.774
543.653
543.534
543.416
543.3
543.185
543.071
542.959
542.847
542.736
542.626
542.516
542.407
542.298
542.19
542.083
541.976
541.869
541.762
541.656
541.55
541.444
541.339
541.233
541.128
541.023
540.917
540.812
540.707
540.602
552.502
552.405
552.309
552.213
552.118
552.024
551.93
551.838
551.746
551.655
551.565
551.476
551.387
551.299
551.213
551.127
551.042
550.958
550.875
550.794
550.713
550.634
550.555
550.478
550.402
550.327
550.253
550.18
550.108
550.037
549.967
549.898
549.829
549.761
549.694
549.627
549.561
549.495
549.43
549.365
549.3
549.235
549.171
549.107
549.043
548.979
548.916
548.852
548.788
548.724
548.659
548.594
548.527
548.46
548.391
548.321
548.248
548.173
548.094
548.012
547.927
547.837
547.742
547.641
547.535
547.422
547.302
547.175
547.041
546.9
546.753
546.6
546.441
546.278
546.112
545.945
545.776
545.609
545.445
545.283
545.126
544.973
544.825
544.681
544.542
544.406
544.274
544.145
544.018
543.893
543.771
543.65
543.532
543.414
543.298
543.184
543.07
542.958
542.846
542.735
542.625
542.515
542.406
542.298
542.19
542.082
541.975
541.868
541.762
541.656
541.55
541.444
541.338
541.233
541.128
541.023
540.917
540.812
540.707
540.602
552.501
552.402
552.304
552.206
552.11
552.013
551.918
551.824
551.73
551.638
551.547
551.456
551.367
551.278
551.191
551.104
551.018
550.934
550.851
550.768
550.688
550.608
550.529
550.451
550.375
550.299
550.225
550.152
550.08
550.008
549.938
549.868
549.8
549.731
549.664
549.597
549.53
549.464
549.398
549.333
549.268
549.203
549.138
549.074
549.01
548.946
548.882
548.818
548.753
548.689
548.624
548.559
548.493
548.426
548.357
548.287
548.214
548.139
548.061
547.98
547.894
547.805
547.71
547.61
547.505
547.393
547.274
547.148
547.016
546.876
546.731
546.579
546.421
546.26
546.096
545.93
545.762
545.595
545.431
545.27
545.113
544.961
544.814
544.671
544.533
544.398
544.267
544.138
544.012
543.889
543.767
543.647
543.529
543.412
543.296
543.182
543.068
542.956
542.844
542.734
542.624
542.514
542.405
542.297
542.189
542.082
541.975
541.868
541.762
541.655
541.549
541.444
541.338
541.233
541.128
541.022
540.917
540.812
540.707
540.602
552.499
552.398
552.298
552.198
552.098
552
551.902
551.805
551.71
551.616
551.523
551.432
551.341
551.251
551.163
551.075
550.989
550.904
550.82
550.737
550.655
550.575
550.495
550.417
550.34
550.264
550.189
550.116
550.043
549.972
549.901
549.831
549.761
549.693
549.625
549.557
549.49
549.424
549.357
549.292
549.226
549.161
549.096
549.031
548.967
548.902
548.838
548.774
548.709
548.645
548.58
548.515
548.449
548.381
548.313
548.243
548.171
548.096
548.018
547.937
547.852
547.763
547.669
547.57
547.465
547.354
547.237
547.112
546.982
546.844
546.7
546.551
546.396
546.236
546.073
545.908
545.742
545.577
545.413
545.253
545.097
544.945
544.799
544.658
544.521
544.388
544.258
544.13
544.005
543.882
543.761
543.642
543.524
543.408
543.293
543.179
543.066
542.954
542.842
542.732
542.622
542.513
542.404
542.296
542.188
542.081
541.974
541.867
541.761
541.655
541.549
541.443
541.338
541.232
541.127
541.022
540.917
540.812
540.707
540.602
552.498
552.394
552.29
552.187
552.084
551.983
551.882
551.784
551.686
551.59
551.496
551.403
551.311
551.22
551.13
551.042
550.954
550.868
550.783
550.699
550.617
550.536
550.456
550.377
550.299
550.223
550.147
550.073
550
549.927
549.856
549.786
549.716
549.647
549.578
549.51
549.442
549.375
549.308
549.242
549.176
549.11
549.045
548.98
548.915
548.85
548.785
548.721
548.656
548.592
548.527
548.461
548.395
548.328
548.26
548.19
548.118
548.044
547.967
547.886
547.802
547.713
547.62
547.521
547.417
547.308
547.192
547.07
546.941
546.805
546.663
546.516
546.363
546.205
546.044
545.881
545.717
545.552
545.39
545.23
545.075
544.925
544.78
544.641
544.506
544.374
544.246
544.12
543.996
543.875
543.755
543.636
543.519
543.404
543.289
543.175
543.063
542.951
542.84
542.73
542.62
542.511
542.403
542.295
542.187
542.08
541.973
541.866
541.76
541.654
541.548
541.443
541.337
541.232
541.127
541.022
540.917
540.812
540.707
540.602
552.496
552.388
552.281
552.174
552.068
551.963
551.86
551.759
551.659
551.561
551.465
551.37
551.277
551.185
551.094
551.004
550.915
550.828
550.742
550.657
550.574
550.492
550.411
550.331
550.253
550.175
550.099
550.024
549.95
549.877
549.805
549.734
549.663
549.593
549.524
549.456
549.387
549.319
549.252
549.185
549.118
549.052
548.986
548.92
548.855
548.79
548.725
548.66
548.595
548.531
548.466
548.4
548.334
548.267
548.199
548.129
548.058
547.984
547.907
547.827
547.743
547.656
547.563
547.465
547.362
547.254
547.139
547.019
546.892
546.758
546.619
546.474
546.324
546.169
546.01
545.849
545.686
545.523
545.36
545.201
545.047
544.899
544.757
544.62
544.487
544.358
544.232
544.108
543.986
543.866
543.747
543.63
543.513
543.398
543.284
543.171
543.059
542.948
542.837
542.727
542.618
542.509
542.401
542.293
542.186
542.078
541.972
541.865
541.759
541.653
541.548
541.442
541.337
541.232
541.127
541.022
540.917
540.812
540.707
540.602
552.494
552.382
552.27
552.159
552.05
551.941
551.835
551.731
551.629
551.529
551.431
551.335
551.24
551.146
551.054
550.963
550.873
550.784
550.697
550.611
550.527
550.443
550.362
550.281
550.201
550.123
550.046
549.97
549.895
549.821
549.748
549.676
549.605
549.534
549.464
549.395
549.326
549.257
549.189
549.121
549.054
548.987
548.92
548.854
548.789
548.723
548.658
548.593
548.528
548.463
548.397
548.332
548.266
548.199
548.131
548.061
547.99
547.917
547.841
547.761
547.678
547.591
547.499
547.403
547.301
547.194
547.081
546.962
546.837
546.706
546.57
546.427
546.279
546.127
545.97
545.81
545.647
545.484
545.323
545.165
545.013
544.867
544.728
544.595
544.466
544.34
544.216
544.095
543.975
543.856
543.738
543.622
543.507
543.392
543.279
543.167
543.055
542.944
542.834
542.724
542.615
542.507
542.399
542.291
542.184
542.077
541.97
541.864
541.758
541.652
541.547
541.442
541.336
541.231
541.126
541.021
540.916
540.812
540.707
540.602
552.492
552.375
552.259
552.144
552.03
551.918
551.808
551.701
551.596
551.494
551.395
551.297
551.2
551.105
551.011
550.919
550.827
550.738
550.649
550.562
550.476
550.392
550.308
550.227
550.146
550.067
549.988
549.911
549.835
549.76
549.686
549.613
549.541
549.47
549.399
549.329
549.259
549.19
549.121
549.052
548.984
548.917
548.849
548.783
548.717
548.651
548.585
548.52
548.454
548.389
548.324
548.258
548.191
548.125
548.057
547.988
547.917
547.844
547.768
547.689
547.607
547.521
547.43
547.335
547.234
547.128
547.017
546.9
546.778
546.649
546.515
546.375
546.229
546.079
545.924
545.765
545.603
545.44
545.278
545.12
544.97
544.828
544.694
544.566
544.441
544.319
544.199
544.08
543.962
543.845
543.729
543.614
543.499
543.386
543.273
543.162
543.05
542.94
542.83
542.721
542.612
542.504
542.396
542.289
542.182
542.075
541.969
541.863
541.757
541.652
541.546
541.441
541.336
541.231
541.126
541.021
540.916
540.812
540.707
540.602
552.489
552.368
552.248
552.128
552.01
551.894
551.781
551.67
551.563
551.458
551.356
551.256
551.158
551.062
550.967
550.872
550.78
550.688
550.598
550.51
550.423
550.337
550.252
550.169
550.087
550.007
549.927
549.849
549.772
549.696
549.621
549.547
549.474
549.401
549.33
549.259
549.188
549.118
549.048
548.979
548.91
548.842
548.774
548.707
548.64
548.574
548.508
548.442
548.376
548.311
548.245
548.179
548.112
548.045
547.978
547.909
547.838
547.766
547.69
547.612
547.53
547.445
547.355
547.261
547.162
547.058
546.949
546.834
546.713
546.587
546.456
546.319
546.176
546.028
545.874
545.717
545.555
545.391
545.226
545.067
544.918
544.782
544.656
544.534
544.415
544.297
544.18
544.064
543.948
543.833
543.719
543.605
543.492
543.379
543.267
543.156
543.046
542.936
542.826
542.717
542.609
542.501
542.394
542.287
542.18
542.074
541.968
541.862
541.756
541.65
541.545
541.44
541.335
541.23
541.125
541.021
540.916
540.811
540.707
540.602
552.487
552.362
552.237
552.113
551.991
551.871
551.754
551.64
551.529
551.421
551.317
551.215
551.115
551.017
550.92
550.824
550.73
550.638
550.546
550.456
550.367
550.28
550.194
550.11
550.026
549.944
549.863
549.784
549.706
549.628
549.552
549.477
549.403
549.33
549.257
549.185
549.114
549.043
548.972
548.902
548.832
548.763
548.695
548.627
548.559
548.493
548.426
548.36
548.294
548.228
548.162
548.096
548.03
547.962
547.895
547.826
547.756
547.683
547.608
547.531
547.45
547.366
547.277
547.184
547.087
546.984
546.877
546.764
546.646
546.523
546.394
546.26
546.12
545.974
545.823
545.667
545.505
545.339
545.169
545.002
544.851
544.727
544.613
544.5
544.388
544.275
544.161
544.048
543.934
543.821
543.708
543.596
543.483
543.372
543.261
543.15
543.04
542.931
542.822
542.714
542.606
542.498
542.391
542.284
542.178
542.072
541.966
541.86
541.755
541.649
541.544
541.439
541.334
541.229
541.125
541.02
540.916
540.811
540.707
540.602
552.485
552.355
552.227
552.099
551.974
551.85
551.729
551.611
551.496
551.385
551.277
551.172
551.07
550.971
550.872
550.775
550.68
550.585
550.492
550.401
550.311
550.222
550.134
550.048
549.963
549.88
549.798
549.717
549.637
549.559
549.481
549.405
549.33
549.256
549.182
549.109
549.037
548.965
548.893
548.822
548.752
548.682
548.613
548.544
548.476
548.409
548.342
548.275
548.209
548.143
548.077
548.01
547.944
547.876
547.809
547.74
547.67
547.597
547.523
547.446
547.366
547.283
547.196
547.104
547.008
546.908
546.802
546.692
546.576
546.456
546.33
546.199
546.062
545.919
545.771
545.616
545.454
545.284
545.105
544.92
544.755
544.661
544.568
544.467
544.361
544.253
544.143
544.032
543.921
543.809
543.697
543.586
543.475
543.364
543.254
543.144
543.035
542.926
542.818
542.71
542.602
542.495
542.388
542.282
542.176
542.07
541.964
541.859
541.753
541.648
541.543
541.438
541.333
541.229
541.124
541.02
540.915
540.811
540.707
540.602
552.484
552.351
552.219
552.088
551.958
551.83
551.705
551.583
551.465
551.349
551.238
551.13
551.026
550.924
550.824
550.725
550.628
550.532
550.438
550.345
550.253
550.162
550.073
549.986
549.899
549.814
549.731
549.648
549.567
549.488
549.409
549.332
549.255
549.18
549.105
549.032
548.958
548.885
548.813
548.741
548.67
548.599
548.529
548.46
548.391
548.323
548.255
548.188
548.122
548.056
547.989
547.923
547.856
547.788
547.72
547.652
547.582
547.51
547.436
547.359
547.28
547.198
547.112
547.022
546.928
546.829
546.726
546.618
546.505
546.387
546.264
546.136
546.002
545.863
545.717
545.565
545.405
545.235
545.048
544.82
544.585
544.596
544.53
544.439
544.339
544.233
544.126
544.017
543.907
543.797
543.686
543.576
543.466
543.356
543.247
543.138
543.029
542.921
542.813
542.706
542.599
542.492
542.386
542.279
542.173
542.068
541.962
541.857
541.752
541.647
541.542
541.437
541.333
541.228
541.124
541.019
540.915
540.811
540.706
540.602
552.483
552.348
552.213
552.079
551.945
551.814
551.685
551.559
551.436
551.316
551.201
551.09
550.982
550.878
550.776
550.676
550.577
550.479
550.383
550.289
550.195
550.103
550.012
549.923
549.835
549.748
549.663
549.579
549.497
549.416
549.336
549.257
549.18
549.103
549.028
548.953
548.878
548.805
548.731
548.659
548.587
548.515
548.444
548.374
548.305
548.236
548.168
548.101
548.034
547.967
547.9
547.834
547.767
547.699
547.631
547.562
547.493
547.421
547.347
547.271
547.193
547.111
547.026
546.938
546.846
546.749
546.648
546.542
546.432
546.317
546.197
546.073
545.942
545.807
545.665
545.518
545.363
545.201
545.03
544.852
544.693
544.606
544.518
544.422
544.321
544.216
544.11
544.002
543.894
543.785
543.676
543.566
543.457
543.348
543.24
543.132
543.024
542.916
542.809
542.702
542.595
542.489
542.383
542.277
542.171
542.066
541.96
541.855
541.75
541.645
541.541
541.436
541.332
541.227
541.123
541.019
540.915
540.81
540.706
540.602
552.482
552.345
552.209
552.072
551.936
551.801
551.668
551.537
551.41
551.287
551.167
551.052
550.941
550.834
550.73
550.627
550.527
550.427
550.329
550.233
550.138
550.044
549.952
549.861
549.771
549.683
549.596
549.51
549.427
549.344
549.263
549.182
549.104
549.026
548.949
548.873
548.798
548.723
548.649
548.576
548.503
548.431
548.359
548.288
548.218
548.149
548.08
548.013
547.945
547.878
547.811
547.744
547.677
547.61
547.542
547.473
547.403
547.332
547.259
547.184
547.106
547.025
546.941
546.854
546.764
546.669
546.57
546.467
546.36
546.248
546.131
546.01
545.883
545.752
545.616
545.474
545.327
545.174
545.019
544.866
544.727
544.615
544.512
544.41
544.306
544.201
544.095
543.989
543.881
543.773
543.665
543.557
543.449
543.341
543.233
543.125
543.018
542.911
542.804
542.697
542.591
542.485
542.379
542.274
542.169
542.063
541.958
541.854
541.749
541.644
541.54
541.435
541.331
541.227
541.122
541.018
540.914
540.81
540.706
540.602
552.482
552.344
552.207
552.068
551.93
551.792
551.655
551.521
551.389
551.261
551.137
551.018
550.903
550.792
550.685
550.58
550.477
550.376
550.277
550.178
550.082
549.987
549.893
549.8
549.708
549.618
549.53
549.443
549.357
549.273
549.191
549.109
549.029
548.95
548.872
548.795
548.718
548.643
548.568
548.494
548.42
548.347
548.275
548.204
548.133
548.063
547.994
547.925
547.857
547.79
547.723
547.656
547.589
547.521
547.453
547.385
547.315
547.244
547.171
547.097
547.02
546.94
546.857
546.771
546.682
546.59
546.493
546.393
546.288
546.179
546.066
545.948
545.826
545.699
545.567
545.432
545.292
545.149
545.005
544.865
544.734
544.616
544.506
544.399
544.294
544.188
544.082
543.976
543.869
543.762
543.655
543.547
543.44
543.333
543.225
543.119
543.012
542.905
542.799
542.693
542.587
542.482
542.376
542.271
542.166
542.061
541.956
541.852
541.747
541.643
541.538
541.434
541.33
541.226
541.122
541.018
540.914
540.81
540.706
540.602
552.482
552.345
552.207
552.067
551.927
551.787
551.647
551.508
551.372
551.239
551.111
550.987
550.868
550.753
550.642
550.535
550.43
550.326
550.225
550.125
550.027
549.93
549.834
549.74
549.647
549.555
549.465
549.376
549.289
549.203
549.119
549.036
548.955
548.874
548.795
548.717
548.64
548.563
548.488
548.413
548.339
548.265
548.192
548.12
548.049
547.979
547.909
547.84
547.772
547.704
547.637
547.57
547.502
547.435
547.367
547.298
547.228
547.158
547.085
547.011
546.935
546.857
546.775
546.69
546.603
546.512
546.418
546.32
546.218
546.112
546.002
545.888
545.77
545.647
545.52
545.39
545.257
545.121
544.986
544.854
544.728
544.61
544.497
544.388
544.281
544.175
544.069
543.963
543.857
543.751
543.644
543.538
543.431
543.325
543.218
543.112
543.006
542.9
542.794
542.689
542.584
542.478
542.373
542.268
542.164
542.059
541.954
541.85
541.746
541.641
541.537
541.433
541.329
541.225
541.121
541.017
540.913
540.81
540.706
540.602
552.482
552.346
552.209
552.069
551.928
551.785
551.642
551.5
551.36
551.223
551.089
550.961
550.836
550.717
550.602
550.492
550.384
550.278
550.175
550.074
549.974
549.875
549.778
549.682
549.588
549.494
549.402
549.312
549.223
549.136
549.05
548.966
548.883
548.801
548.721
548.642
548.563
548.486
548.41
548.334
548.259
548.186
548.112
548.04
547.968
547.897
547.827
547.758
547.689
547.621
547.554
547.486
547.419
547.351
547.283
547.214
547.145
547.074
547.002
546.929
546.853
546.776
546.695
546.612
546.526
546.437
546.345
546.249
546.15
546.047
545.94
545.83
545.715
545.597
545.475
545.349
545.221
545.092
544.963
544.836
544.714
544.597
544.484
544.375
544.267
544.161
544.056
543.95
543.845
543.74
543.634
543.528
543.423
543.317
543.211
543.106
543
542.895
542.79
542.685
542.58
542.475
542.37
542.266
542.161
542.057
541.952
541.848
541.744
541.64
541.536
541.432
541.328
541.224
541.121
541.017
540.913
540.809
540.706
540.602
552.483
552.348
552.211
552.072
551.929
551.785
551.64
551.495
551.351
551.21
551.072
550.939
550.81
550.685
550.566
550.451
550.34
550.232
550.127
550.023
549.922
549.822
549.723
549.626
549.53
549.435
549.342
549.25
549.159
549.071
548.983
548.898
548.814
548.731
548.649
548.569
548.49
548.412
548.335
548.259
548.183
548.109
548.036
547.963
547.891
547.82
547.749
547.68
547.611
547.542
547.474
547.407
547.339
547.271
547.203
547.134
547.065
546.994
546.923
546.85
546.775
546.698
546.619
546.537
546.453
546.365
546.275
546.182
546.085
545.985
545.882
545.774
545.663
545.549
545.431
545.31
545.186
545.061
544.936
544.814
544.694
544.579
544.467
544.359
544.252
544.147
544.042
543.938
543.833
543.729
543.624
543.519
543.414
543.309
543.204
543.099
542.995
542.89
542.785
542.681
542.576
542.472
542.367
542.263
542.159
542.055
541.951
541.847
541.743
541.639
541.535
541.431
541.327
541.224
541.12
541.016
540.913
540.809
540.705
540.602
552.483
552.349
552.213
552.073
551.931
551.786
551.639
551.491
551.345
551.201
551.059
550.921
550.787
550.658
550.533
550.413
550.298
550.187
550.08
549.974
549.871
549.769
549.669
549.571
549.474
549.378
549.283
549.19
549.098
549.008
548.92
548.833
548.748
548.664
548.581
548.5
548.42
548.342
548.264
548.187
548.112
548.037
547.963
547.89
547.818
547.747
547.676
547.606
547.537
547.468
547.4
547.332
547.264
547.196
547.128
547.059
546.99
546.92
546.848
546.775
546.701
546.625
546.547
546.466
546.383
546.298
546.21
546.119
546.025
545.927
545.827
545.723
545.615
545.504
545.389
545.272
545.151
545.029
544.907
544.787
544.67
544.557
544.448
544.341
544.236
544.132
544.029
543.925
543.822
543.718
543.614
543.51
543.406
543.302
543.198
543.093
542.989
542.885
542.781
542.676
542.572
542.468
542.364
542.26
542.156
542.053
541.949
541.845
541.741
541.637
541.534
541.43
541.327
541.223
541.119
541.016
540.912
540.809
540.705
540.602
552.483
552.349
552.213
552.073
551.93
551.785
551.638
551.489
551.341
551.194
551.049
550.907
550.769
550.634
550.505
550.38
550.26
550.145
550.034
549.926
549.821
549.718
549.617
549.517
549.419
549.322
549.227
549.133
549.04
548.949
548.86
548.772
548.686
548.601
548.518
548.436
548.356
548.276
548.198
548.121
548.045
547.97
547.896
547.823
547.751
547.679
547.608
547.538
547.469
547.4
547.331
547.263
547.195
547.127
547.058
546.99
546.921
546.85
546.779
546.707
546.633
546.557
546.48
546.401
546.319
546.235
546.149
546.061
545.969
545.874
545.777
545.676
545.571
545.463
545.351
545.236
545.118
544.998
544.877
544.757
544.64
544.531
544.425
544.322
544.219
544.117
544.015
543.913
543.81
543.708
543.605
543.501
543.398
543.295
543.191
543.087
542.984
542.88
542.776
542.673
542.569
542.465
542.362
542.258
542.154
542.051
541.947
541.843
541.74
541.636
541.533
541.429
541.326
541.222
541.119
541.015
540.912
540.809
540.705
540.602
552.482
552.346
552.209
552.069
551.927
551.781
551.634
551.485
551.335
551.187
551.04
550.895
550.753
550.614
550.48
550.35
550.225
550.105
549.99
549.88
549.772
549.668
549.566
549.465
549.366
549.269
549.173
549.079
548.986
548.894
548.804
548.716
548.629
548.544
548.461
548.378
548.297
548.218
548.139
548.061
547.985
547.91
547.835
547.762
547.689
547.618
547.547
547.477
547.407
547.338
547.269
547.2
547.132
547.064
546.995
546.927
546.858
546.788
546.717
546.645
546.572
546.497
546.42
546.342
546.261
546.179
546.095
546.008
545.919
545.827
545.732
545.634
545.532
545.426
545.317
545.204
545.087
544.967
544.845
544.722
544.604
544.5
544.4
544.301
544.202
544.102
544.001
543.9
543.799
543.697
543.595
543.493
543.391
543.288
543.185
543.082
542.979
542.876
542.772
542.669
542.566
542.462
542.359
542.255
542.152
542.049
541.945
541.842
541.738
541.635
541.532
541.428
541.325
541.222
541.118
541.015
540.912
540.808
540.705
540.602
552.48
552.341
552.201
552.06
551.918
551.773
551.626
551.477
551.327
551.178
551.029
550.883
550.738
550.597
550.458
550.323
550.193
550.068
549.948
549.833
549.724
549.618
549.515
549.414
549.316
549.219
549.123
549.029
548.936
548.845
548.755
548.667
548.58
548.495
548.411
548.329
548.247
548.167
548.088
548.01
547.933
547.857
547.782
547.709
547.636
547.564
547.493
547.422
547.352
547.283
547.214
547.145
547.076
547.008
546.939
546.871
546.802
546.733
546.662
546.591
546.518
546.444
546.368
546.29
546.211
546.131
546.048
545.963
545.876
545.787
545.694
545.598
545.498
545.395
545.287
545.175
545.059
544.939
544.813
544.684
544.555
544.464
544.374
544.28
544.184
544.087
543.988
543.889
543.788
543.688
543.587
543.485
543.383
543.281
543.179
543.077
542.974
542.871
542.768
542.665
542.562
542.459
542.356
542.253
542.15
542.047
541.944
541.84
541.737
541.634
541.531
541.427
541.324
541.221
541.118
541.015
540.911
540.808
540.705
540.602
552.478
552.333
552.189
552.046
551.902
551.757
551.611
551.463
551.313
551.164
551.015
550.868
550.722
550.579
550.437
550.299
550.164
550.033
549.908
549.789
549.676
549.569
549.466
549.365
549.268
549.172
549.077
548.984
548.893
548.802
548.713
548.626
548.539
548.454
548.371
548.288
548.207
548.126
548.047
547.968
547.89
547.814
547.739
547.665
547.592
547.519
547.448
547.377
547.307
547.236
547.167
547.097
547.028
546.96
546.891
546.823
546.754
546.685
546.616
546.545
546.473
546.399
546.324
546.248
546.17
546.091
546.009
545.926
545.841
545.754
545.663
545.569
545.471
545.369
545.263
545.152
545.037
544.915
544.787
544.644
544.468
544.426
544.35
544.262
544.169
544.073
543.976
543.878
543.778
543.679
543.579
543.478
543.377
543.275
543.174
543.072
542.97
542.867
542.765
542.662
542.56
542.457
542.354
542.251
542.148
542.045
541.942
541.839
541.736
541.633
541.53
541.427
541.324
541.22
541.117
541.014
540.911
540.808
540.705
540.602
552.474
552.322
552.173
552.026
551.88
551.734
551.588
551.441
551.293
551.144
550.996
550.848
550.702
550.557
550.414
550.273
550.135
550
549.87
549.746
549.63
549.521
549.418
549.319
549.223
549.13
549.038
548.947
548.858
548.77
548.682
548.596
548.51
548.426
548.342
548.259
548.177
548.096
548.016
547.937
547.859
547.782
547.706
547.632
547.558
547.486
547.414
547.342
547.271
547.2
547.129
547.059
546.989
546.92
546.852
546.784
546.716
546.647
546.578
546.509
546.438
546.365
546.291
546.216
546.139
546.061
545.981
545.899
545.816
545.729
545.64
545.547
545.45
545.35
545.244
545.135
545.02
544.899
544.774
544.643
544.514
544.425
544.338
544.248
544.155
544.061
543.965
543.867
543.769
543.67
543.571
543.471
543.371
543.27
543.169
543.067
542.966
542.864
542.762
542.659
542.557
542.454
542.352
542.249
542.146
542.044
541.941
541.838
541.735
541.632
541.529
541.426
541.323
541.22
541.117
541.014
540.911
540.808
540.705
540.602
552.469
552.309
552.151
551.999
551.849
551.702
551.555
551.409
551.262
551.115
550.968
550.821
550.674
550.529
550.386
550.244
550.103
549.966
549.834
549.708
549.59
549.479
549.376
549.279
549.186
549.096
549.008
548.921
548.836
548.751
548.666
548.58
548.496
548.411
548.327
548.243
548.16
548.078
547.998
547.919
547.841
547.763
547.687
547.612
547.538
547.466
547.393
547.321
547.248
547.176
547.104
547.033
546.962
546.893
546.824
546.756
546.687
546.619
546.552
546.483
546.414
546.343
546.271
546.196
546.121
546.043
545.964
545.883
545.801
545.715
545.626
545.533
545.437
545.337
545.232
545.123
545.009
544.89
544.766
544.641
544.522
544.421
544.328
544.236
544.143
544.049
543.954
543.858
543.761
543.663
543.564
543.465
543.365
543.265
543.164
543.063
542.962
542.86
542.759
542.657
542.555
542.452
542.35
542.247
542.145
542.042
541.94
541.837
541.734
541.631
541.528
541.425
541.322
541.219
541.116
541.013
540.91
540.808
540.705
540.602
552.463
552.291
552.124
551.963
551.809
551.659
551.512
551.367
551.222
551.076
550.93
550.783
550.637
550.492
550.348
550.206
550.066
549.931
549.801
549.677
549.561
549.452
549.35
549.254
549.164
549.078
548.994
548.912
548.83
548.749
548.666
548.582
548.497
548.411
548.326
548.24
548.155
548.072
547.992
547.914
547.837
547.76
547.683
547.607
547.533
547.46
547.387
547.313
547.239
547.166
547.094
547.022
546.952
546.882
546.812
546.742
546.673
546.605
546.538
546.471
546.404
546.335
546.264
546.191
546.116
546.039
545.96
545.879
545.796
545.71
545.619
545.525
545.429
545.331
545.228
545.12
545.007
544.888
544.763
544.635
544.513
544.411
544.317
544.225
544.133
544.04
543.945
543.85
543.754
543.656
543.558
543.46
543.36
543.261
543.16
543.06
542.959
542.858
542.756
542.654
542.552
542.45
542.348
542.246
542.144
542.041
541.938
541.836
541.733
541.63
541.528
541.425
541.322
541.219
541.116
541.013
540.91
540.807
540.704
540.601
552.455
552.269
552.089
551.919
551.759
551.605
551.457
551.313
551.172
551.027
550.88
550.732
550.585
550.44
550.296
550.153
550.018
549.892
549.774
549.663
549.556
549.451
549.349
549.255
549.169
549.088
549.008
548.928
548.846
548.765
548.685
548.601
548.512
548.423
548.335
548.246
548.158
548.074
547.996
547.92
547.845
547.772
547.696
547.618
547.543
547.47
547.394
547.318
547.243
547.172
547.102
547.033
546.964
546.895
546.824
546.75
546.678
546.608
546.54
546.474
546.408
546.339
546.27
546.2
546.125
546.048
545.969
545.887
545.8
545.71
545.612
545.514
545.421
545.331
545.233
545.13
545.022
544.903
544.77
544.628
544.486
544.394
544.304
544.214
544.123
544.031
543.937
543.843
543.747
543.651
543.553
543.455
543.356
543.257
543.157
543.057
542.956
542.855
542.754
542.652
542.551
542.449
542.347
542.245
542.142
542.04
541.938
541.835
541.732
541.63
541.527
541.424
541.321
541.219
541.116
541.013
540.91
540.807
540.704
540.601
552.444
552.239
552.044
551.865
551.701
551.546
551.395
551.254
551.118
550.973
550.818
550.663
550.514
550.368
550.223
550.078
549.957
549.855
549.764
549.679
549.588
549.485
549.386
549.295
549.222
549.151
549.069
548.978
548.877
548.791
548.715
548.63
548.532
548.433
548.345
548.255
548.165
548.074
547.998
547.922
547.852
547.795
547.73
547.65
547.568
547.492
547.407
547.323
547.246
547.185
547.126
547.068
547.012
546.945
546.873
546.789
546.71
546.639
546.562
546.488
546.417
546.343
546.275
546.218
546.147
546.073
546
545.914
545.814
545.707
545.584
545.471
545.39
545.334
545.241
545.149
545.068
544.954
544.798
544.627
544.419
544.376
544.295
544.206
544.115
544.023
543.931
543.837
543.742
543.646
543.549
543.451
543.353
543.254
543.154
543.054
542.954
542.853
542.752
542.651
542.549
542.448
542.346
542.244
542.141
542.039
541.937
541.834
541.732
541.629
541.527
541.424
541.321
541.218
541.116
541.013
540.91
540.807
540.704
540.601
552.426
552.192
551.982
551.8
551.641
551.49
551.332
551.189
551.065
550.916
550.749
550.577
550.411
550.258
550.111
549.975
549.918
549.86
549.785
549.727
549.641
549.531
549.456
549.381
549.362
549.314
549.2
549.062
548.892
548.794
548.747
548.682
548.567
548.426
548.342
548.265
548.178
548.045
547.965
547.876
547.806
547.817
547.821
547.737
547.616
547.53
547.407
547.3
547.198
547.174
547.155
547.142
547.163
547.067
546.978
546.875
546.775
546.713
546.601
546.486
546.421
546.312
546.232
546.25
546.197
546.114
546.079
545.997
545.861
545.708
545.514
545.328
545.287
545.348
545.226
545.121
545.157
545.073
544.849
544.656
544.486
544.395
544.297
544.201
544.109
544.017
543.925
543.832
543.738
543.642
543.546
543.448
543.35
543.252
543.152
543.052
542.952
542.852
542.751
542.65
542.548
542.447
542.345
542.243
542.141
542.039
541.936
541.834
541.731
541.629
541.526
541.424
541.321
541.218
541.115
541.013
540.91
540.807
540.704
540.601
552.393
552.114
551.89
551.718
551.565
551.421
551.259
551.092
550.977
550.837
550.725
550.556
550.286
550.062
549.9
549.863
550.136
550.072
549.852
549.762
549.576
549.453
549.573
549.544
549.716
549.682
549.396
549.149
548.819
548.714
548.686
548.693
548.574
548.431
548.333
548.296
548.232
547.972
547.803
547.652
547.637
547.836
548.02
547.985
547.802
547.611
547.387
547.226
546.993
547.021
547.158
547.394
547.704
547.342
547.112
546.982
546.81
546.81
546.585
546.373
546.4
546.279
546.023
546.404
546.477
546.125
546.259
546.2
545.978
545.762
545.197
545.008
545.05
545.361
545.171
544.893
545.225
545.156
544.829
544.756
544.591
544.411
544.294
544.196
544.104
544.013
543.922
543.829
543.735
543.64
543.544
543.446
543.349
543.25
543.151
543.051
542.951
542.851
542.75
542.649
542.547
542.446
542.344
542.242
542.14
542.038
541.936
541.834
541.731
541.629
541.526
541.423
541.321
541.218
541.115
541.013
540.91