/*--------------------------------*- C++ -*----------------------------------*\
  =========                 |
  \\      /  F ield         | OpenFOAM: The Open Source CFD Toolbox
   \\    /   O peration     | Website:  https://openfoam.org
    \\  /    A nd           | Version:  6
     \\/     M anipulation  |
\*---------------------------------------------------------------------------*/
FoamFile
{
    version     2.0;
    format      ascii;
    class       volVectorField;
    location    "1200";
    object      U;
}
// * * * * * * * * * * * * * * * * * * * * * * * * * * * * * * * * * * * * * //

dimensions      [0 1 -1 0 0 0 0];

internalField   nonuniform List<vector> 
4800
(
(-4.42067e-05 0 3.60144e-05)
(2.86852e-06 0 -7.7164e-05)
(6.98582e-05 0 -3.70781e-05)
(3.36941e-05 0 -0.000135869)
(0.000158813 0 -7.21202e-05)
(0.000226133 0 -7.31885e-05)
(0.000279192 0 -6.88711e-05)
(0.000317231 0 -4.3962e-05)
(0.000343753 0 -3.69259e-05)
(0.000374671 0 -1.36805e-05)
(0.000410464 0 -2.67225e-05)
(0.000449774 0 -4.46908e-05)
(0.000492935 0 -3.78402e-05)
(0.000526266 0 -6.8726e-05)
(0.000556143 0 -7.32911e-05)
(0.000588217 0 -4.97348e-05)
(0.00062406 0 -3.89513e-05)
(0.000651789 0 -1.70882e-05)
(0.000652996 0 -8.408e-06)
(0.000655568 0 -1.42952e-05)
(0.000672097 0 -1.41334e-05)
(0.000695216 0 -2.34372e-05)
(0.000708363 0 -1.45494e-05)
(0.000725076 0 -2.2725e-05)
(0.000743649 0 -3.56029e-05)
(0.000771008 0 -1.4543e-05)
(0.000810627 0 -4.07706e-05)
(0.000844246 0 -5.37929e-05)
(0.000859211 0 -1.87094e-05)
(0.000872011 0 -3.24242e-05)
(0.000889356 0 -4.46984e-05)
(0.000917332 0 -3.93622e-05)
(0.000938939 0 -4.30476e-05)
(0.000937046 0 -4.29893e-05)
(0.00094623 0 -2.35476e-05)
(0.000975693 0 -4.13408e-06)
(0.00101009 0 -7.98025e-05)
(0.00103587 0 -9.55908e-05)
(0.00104787 0 -7.59189e-05)
(0.00105577 0 -1.59481e-05)
(0.00106732 0 -2.88063e-05)
(0.00109534 0 -3.21844e-05)
(0.00113999 0 0.000122855)
(0.00114564 0 -6.43068e-05)
(0.00114901 0 -5.99009e-05)
(0.00116376 0 -6.45124e-05)
(0.00118197 0 -6.13044e-05)
(0.00119751 0 -4.98966e-05)
(0.00121782 0 -5.27455e-05)
(0.00125382 0 -4.81864e-05)
(0.0012708 0 -3.06947e-05)
(0.00126658 0 -2.81281e-05)
(0.00126178 0 -1.51525e-05)
(0.00125673 0 -9.3596e-06)
(0.00124755 0 -5.96827e-06)
(0.0012341 0 5.30705e-06)
(0.00122314 0 -7.89696e-06)
(0.00121568 0 4.2617e-06)
(0.00120555 0 -2.16869e-05)
(0.00119101 0 -7.42918e-06)
(0.00117032 0 -1.7618e-05)
(0.00114266 0 -2.23721e-05)
(0.00110491 0 1.33446e-05)
(0.00105959 0 -3.88726e-05)
(0.00100747 0 4.26496e-05)
(0.000951327 0 -5.21209e-05)
(0.00089947 0 6.80115e-06)
(0.000832733 0 -2.32167e-05)
(0.000750267 0 -3.00658e-06)
(0.000667176 0 -0.000121823)
(0.000603645 0 -7.04884e-05)
(0.000539203 0 2.21733e-05)
(0.000416177 0 -0.000157563)
(0.000274318 0 -0.000140574)
(0.000164919 0 -0.000229663)
(0.000160731 0 -6.26852e-05)
(9.57464e-05 0 3.85828e-06)
(6.6409e-05 0 -3.44653e-05)
(1.54633e-05 0 -2.19721e-06)
(-1.007e-05 0 -2.19907e-05)
(2.64932e-08 0 -5.26074e-05)
(-3.60983e-13 0 -3.23023e-14)
(-7.13367e-13 0 -1.0003e-14)
(-6.93305e-13 0 -1.0251e-14)
(-6.67066e-13 0 -1.54601e-14)
(-6.2872e-13 0 -2.13626e-14)
(-5.7896e-13 0 -2.67893e-14)
(-5.19556e-13 0 -3.12553e-14)
(-4.52634e-13 0 -3.46082e-14)
(-3.80445e-13 0 -3.68314e-14)
(-3.05197e-13 0 -3.79716e-14)
(-2.28939e-13 0 -3.81121e-14)
(-1.53509e-13 0 -3.73602e-14)
(-8.04968e-14 0 -3.58385e-14)
(-1.12398e-14 0 -3.36782e-14)
(5.31834e-14 0 -3.1013e-14)
(1.11942e-13 0 -2.79746e-14)
(1.64434e-13 0 -2.46864e-14)
(2.10264e-13 0 -2.12589e-14)
(2.49224e-13 0 -1.77874e-14)
(2.8127e-13 0 -1.43509e-14)
(3.06501e-13 0 -1.10118e-14)
(3.25132e-13 0 -7.81714e-15)
(3.37476e-13 0 -4.80033e-15)
(3.43916e-13 0 -1.9837e-15)
(3.44885e-13 0 6.18628e-16)
(3.40838e-13 0 2.99818e-15)
(3.32234e-13 0 5.15047e-15)
(3.19515e-13 0 7.07521e-15)
(3.03099e-13 0 8.77624e-15)
(2.83381e-13 0 1.02621e-14)
(2.60738e-13 0 1.15453e-14)
(2.35535e-13 0 1.26413e-14)
(2.08132e-13 0 1.35661e-14)
(1.78881e-13 0 1.4335e-14)
(1.48124e-13 0 1.49601e-14)
(1.16188e-13 0 1.54486e-14)
(8.33918e-14 0 1.57983e-14)
(5.0067e-14 0 1.59834e-14)
(1.6658e-14 0 1.59e-14)
(-3.85898e-05 0 -9.32971e-06)
(4.89472e-05 0 -4.9797e-05)
(0.00012112 0 4.79647e-05)
(8.00935e-05 0 -0.000122549)
(0.000156596 0 -8.80768e-05)
(0.000228776 0 -3.03178e-05)
(0.000267755 0 -6.2768e-05)
(0.000311606 0 -2.63138e-05)
(0.00034536 0 -6.54561e-05)
(0.000384172 0 -4.40378e-05)
(0.000418582 0 -5.27839e-05)
(0.00046088 0 -6.4074e-05)
(0.000506881 0 -7.9765e-05)
(0.000542152 0 -6.33647e-05)
(0.000556536 0 -5.72383e-05)
(0.000564036 0 -4.21451e-05)
(0.000571218 0 -3.63931e-05)
(0.000592349 0 -1.53829e-05)
(0.000600463 0 -1.06431e-05)
(0.000607447 0 1.3017e-06)
(0.000628794 0 -8.72833e-06)
(0.000665842 0 9.66909e-05)
(0.00068563 0 -0.000127468)
(0.000714225 0 7.06782e-06)
(0.000728554 0 -3.18649e-05)
(0.000748342 0 -6.13686e-05)
(0.000783019 0 8.75078e-07)
(0.000802998 0 -1.39257e-05)
(0.000801765 0 -1.27994e-05)
(0.000809978 0 1.91293e-05)
(0.000838312 0 -3.5056e-05)
(0.000887216 0 -7.11416e-06)
(0.000919146 0 6.37715e-06)
(0.000919875 0 -1.02255e-05)
(0.000927146 0 -1.69736e-06)
(0.000956545 0 -9.42509e-05)
(0.000992319 0 0.000203745)
(0.00103306 0 -7.03048e-06)
(0.00103222 0 -3.76539e-05)
(0.00104019 0 -4.43416e-05)
(0.00105956 0 -3.44107e-05)
(0.00107682 0 -2.50261e-05)
(0.00109385 0 -4.27431e-05)
(0.00110777 0 -5.51575e-05)
(0.00111942 0 -2.40645e-05)
(0.00113836 0 7.15634e-06)
(0.0011609 0 7.15963e-06)
(0.00117699 0 -7.0819e-08)
(0.00119004 0 -1.72677e-05)
(0.00120923 0 -2.74884e-06)
(0.00123114 0 7.48245e-06)
(0.00123945 0 -2.65996e-06)
(0.00124278 0 7.03153e-06)
(0.00124448 0 1.9873e-05)
(0.00124229 0 2.41524e-05)
(0.00123547 0 1.86943e-05)
(0.00122552 0 2.2208e-05)
(0.00121474 0 1.93296e-05)
(0.00120302 0 3.40914e-05)
(0.0011895 0 3.93823e-05)
(0.00117333 0 4.54367e-05)
(0.001147 0 8.91292e-05)
(0.0011153 0 6.73399e-05)
(0.00106393 0 0.000135375)
(0.00102036 0 9.74661e-05)
(0.000987699 0 0.000100094)
(0.000941464 0 0.000135429)
(0.000874519 0 9.78931e-05)
(0.000814276 0 0.000104513)
(0.000738695 0 0.000208076)
(0.000634915 0 0.000195742)
(0.000565958 0 1.31329e-08)
(0.000463367 0 0.000217361)
(0.000468977 0 0.0001213)
(0.000341741 0 0.000216632)
(0.000264514 0 0.000131027)
(0.000237286 0 4.1786e-06)
(0.000118822 0 6.03754e-05)
(4.23376e-05 0 6.76422e-05)
(7.02125e-05 0 3.16328e-05)
(1.00813e-07 0 3.9998e-05)
(-3.71926e-13 0 -1.25661e-15)
(-6.90885e-13 0 -5.45549e-15)
(-6.98343e-13 0 -2.42372e-14)
(-6.77972e-13 0 -4.50759e-14)
(-6.40049e-13 0 -6.4392e-14)
(-5.88853e-13 0 -8.11717e-14)
(-5.27375e-13 0 -9.47591e-14)
(-4.5821e-13 0 -1.04901e-13)
(-3.83808e-13 0 -1.11588e-13)
(-3.06477e-13 0 -1.14967e-13)
(-2.28328e-13 0 -1.15295e-13)
(-1.51235e-13 0 -1.12909e-13)
(-7.68147e-14 0 -1.08192e-13)
(-6.41428e-15 0 -1.01555e-13)
(5.88869e-14 0 -9.34161e-14)
(1.18269e-13 0 -8.41787e-14)
(1.7115e-13 0 -7.4218e-14)
(2.17163e-13 0 -6.38654e-14)
(2.56132e-13 0 -5.34032e-14)
(2.88046e-13 0 -4.30616e-14)
(3.13034e-13 0 -3.30215e-14)
(3.31343e-13 0 -2.34198e-14)
(3.43309e-13 0 -1.43561e-14)
(3.49335e-13 0 -5.90166e-15)
(3.49867e-13 0 1.89438e-15)
(3.4537e-13 0 9.00043e-15)
(3.36311e-13 0 1.54018e-14)
(3.2314e-13 0 2.11014e-14)
(3.06286e-13 0 2.61201e-14)
(2.8615e-13 0 3.04948e-14)
(2.63117e-13 0 3.42737e-14)
(2.37556e-13 0 3.75094e-14)
(2.09826e-13 0 4.02527e-14)
(1.80275e-13 0 4.25465e-14)
(1.49237e-13 0 4.44232e-14)
(1.17026e-13 0 4.59011e-14)
(8.39266e-14 0 4.69819e-14)
(5.01687e-14 0 4.76396e-14)
(1.65746e-14 0 4.77887e-14)
(-8.1227e-05 0 -4.43708e-05)
(6.31692e-05 0 -8.44539e-05)
(7.93822e-05 0 -0.00010103)
(0.00017274 0 -5.40892e-05)
(0.000121481 0 -0.000189953)
(0.000209243 0 -0.00013975)
(0.000237493 0 -0.000142286)
(0.000283548 0 -0.000116394)
(0.000339212 0 -6.92116e-05)
(0.000383961 0 -6.63436e-05)
(0.000416611 0 -9.70338e-05)
(0.000460402 0 -6.08479e-05)
(0.000472936 0 -4.09399e-05)
(0.000471138 0 -4.69248e-05)
(0.000474793 0 -4.37852e-05)
(0.000485533 0 -3.00935e-05)
(0.000491839 0 -8.36668e-05)
(0.000516342 0 3.69399e-05)
(0.000534585 0 -2.93731e-05)
(0.000559755 0 -7.7315e-05)
(0.000599343 0 -3.43474e-05)
(0.000630573 0 -5.6644e-05)
(0.000632311 0 -7.07419e-05)
(0.000633121 0 -7.5404e-05)
(0.000640235 0 -7.49825e-05)
(0.000665377 0 -6.66901e-05)
(0.000709731 0 -0.000103673)
(0.000725648 0 -6.22092e-05)
(0.000729983 0 -5.57738e-05)
(0.000745657 0 -8.85044e-05)
(0.000781491 0 -1.53602e-05)
(0.000834066 0 9.63514e-05)
(0.000842558 0 -6.73415e-05)
(0.00084604 0 -6.92798e-05)
(0.000866138 0 -7.87945e-05)
(0.000900449 0 -2.30444e-05)
(0.000930843 0 1.70172e-05)
(0.0009391 0 -0.000101635)
(0.000953075 0 -0.000131125)
(0.000972093 0 -4.92534e-05)
(0.000978438 0 -3.21077e-05)
(0.000985719 0 -2.518e-05)
(0.000999536 0 -9.27223e-06)
(0.00101769 0 -3.37635e-05)
(0.00103767 0 -7.0458e-05)
(0.0010531 0 -5.09534e-05)
(0.00105998 0 -4.30609e-05)
(0.00107257 0 -3.63784e-05)
(0.00108899 0 -9.45014e-05)
(0.00111302 0 -3.90053e-05)
(0.0011135 0 -2.09543e-05)
(0.00111301 0 -9.72764e-06)
(0.00111746 0 -2.97847e-06)
(0.00113355 0 7.97227e-07)
(0.00115815 0 1.04368e-05)
(0.00116836 0 1.97143e-05)
(0.00116786 0 1.77793e-05)
(0.00116228 0 1.74878e-05)
(0.00114496 0 2.36008e-05)
(0.00112237 0 1.94465e-05)
(0.0011113 0 2.62169e-05)
(0.0010966 0 3.96269e-05)
(0.00106833 0 8.77663e-05)
(0.00103261 0 8.21183e-05)
(0.000972651 0 0.000143346)
(0.000946231 0 0.000148712)
(0.000927549 0 0.00011698)
(0.000881123 0 0.00011373)
(0.000794309 0 0.000184659)
(0.000696755 0 0.000232713)
(0.000638072 0 0.000163506)
(0.00055875 0 0.000218632)
(0.000486014 0 0.000249116)
(0.000444752 0 0.000222398)
(0.000309219 0 0.000311547)
(0.000342149 0 0.00018889)
(0.000239363 0 0.000197518)
(0.000139405 0 0.000112954)
(0.000147893 0 4.64676e-05)
(0.00010258 0 7.09227e-05)
(1.20747e-08 0 6.96105e-05)
(-3.79947e-13 0 8.45202e-14)
(-7.35475e-13 0 1.41952e-14)
(-7.32092e-13 0 -3.51433e-14)
(-7.06817e-13 0 -7.57469e-14)
(-6.64816e-13 0 -1.10084e-13)
(-6.09327e-13 0 -1.38812e-13)
(-5.43286e-13 0 -1.61699e-13)
(-4.69463e-13 0 -1.78594e-13)
(-3.9051e-13 0 -1.89565e-13)
(-3.08904e-13 0 -1.94899e-13)
(-2.26882e-13 0 -1.9506e-13)
(-1.46406e-13 0 -1.90644e-13)
(-6.91434e-14 0 -1.82325e-13)
(3.53609e-15 0 -1.70816e-13)
(7.056e-14 0 -1.56834e-13)
(1.3114e-13 0 -1.41065e-13)
(1.84747e-13 0 -1.24139e-13)
(2.31079e-13 0 -1.0661e-13)
(2.70028e-13 0 -8.89458e-14)
(3.01652e-13 0 -7.15261e-14)
(3.26143e-13 0 -5.46504e-14)
(3.43797e-13 0 -3.85456e-14)
(3.54994e-13 0 -2.33786e-14)
(3.60167e-13 0 -9.26889e-15)
(3.59787e-13 0 3.70257e-15)
(3.54346e-13 0 1.5488e-14)
(3.44335e-13 0 2.60719e-14)
(3.30233e-13 0 3.54713e-14)
(3.12492e-13 0 4.37337e-14)
(2.91535e-13 0 5.09319e-14)
(2.67753e-13 0 5.71534e-14)
(2.41514e-13 0 6.24892e-14)
(2.13169e-13 0 6.7023e-14)
(1.83052e-13 0 7.08232e-14)
(1.51478e-13 0 7.39397e-14)
(1.18747e-13 0 7.6404e-14)
(8.51303e-14 0 7.82314e-14)
(5.08739e-14 0 7.94301e-14)
(1.68072e-14 0 8.00309e-14)
(-3.8951e-07 0 -5.71815e-05)
(3.76915e-05 0 -9.30462e-05)
(4.5204e-05 0 -0.000165523)
(0.000147513 0 -0.00015842)
(0.000178111 0 -0.000176819)
(0.000190119 0 -0.0001908)
(0.000235605 0 -0.000156353)
(0.000259205 0 -0.000151199)
(0.000293648 0 -0.00012444)
(0.0003218 0 -0.000121207)
(0.000356028 0 -0.000103364)
(0.00036649 0 -0.00011478)
(0.000368483 0 -0.000108257)
(0.000372778 0 -0.000102368)
(0.000385541 0 -8.18865e-05)
(0.00039668 0 -7.29696e-05)
(0.000408147 0 -7.94224e-05)
(0.000428617 0 -7.25983e-05)
(0.000442934 0 -7.34629e-05)
(0.000472475 0 -5.29299e-05)
(0.000512741 0 -5.9531e-05)
(0.000519768 0 -7.17476e-05)
(0.000523934 0 -8.09389e-05)
(0.000534966 0 -5.35941e-05)
(0.000547158 0 -5.75179e-05)
(0.000571274 0 -9.61061e-05)
(0.000621704 0 2.52904e-05)
(0.000634663 0 -8.17326e-05)
(0.000650458 0 -0.000101817)
(0.000699132 0 1.42194e-06)
(0.000723994 0 -9.68327e-05)
(0.000744757 0 -0.000102508)
(0.000760627 0 -9.38873e-05)
(0.000775544 0 -8.95178e-05)
(0.000803703 0 -5.57628e-05)
(0.000827202 0 -6.16051e-05)
(0.000848997 0 -7.4231e-05)
(0.000876142 0 -6.675e-05)
(0.000886975 0 -5.66612e-05)
(0.000887443 0 -5.08381e-05)
(0.000890352 0 -6.34595e-05)
(0.00090357 0 -5.40654e-05)
(0.000912455 0 -5.59065e-05)
(0.000932825 0 -5.67547e-05)
(0.000975813 0 -5.64008e-05)
(0.00098749 0 -6.26488e-05)
(0.000979112 0 -5.64461e-05)
(0.00098018 0 -4.90206e-05)
(0.000994474 0 -4.57784e-05)
(0.00102318 0 -5.05365e-05)
(0.00103055 0 -3.79542e-05)
(0.00103112 0 -3.15872e-05)
(0.00103491 0 -1.9507e-05)
(0.00104484 0 -1.8678e-05)
(0.00106401 0 -2.83305e-06)
(0.00106877 0 -2.6834e-06)
(0.00106831 0 3.13326e-05)
(0.0010676 0 4.95758e-05)
(0.00105955 0 5.91482e-05)
(0.00103174 0 4.47785e-05)
(0.0010095 0 0.000110857)
(0.00100659 0 0.000109731)
(0.000995234 0 8.60347e-05)
(0.000942972 0 0.000223768)
(0.000931183 0 6.97436e-05)
(0.000815808 0 0.000312563)
(0.000828235 0 0.000258966)
(0.000836409 0 0.000174213)
(0.00078337 0 0.000163383)
(0.000704025 0 0.000187775)
(0.000632262 0 0.000231054)
(0.000521192 0 0.000303766)
(0.000468576 0 0.000269577)
(0.000395976 0 0.000305749)
(0.000380893 0 0.000274702)
(0.000334743 0 0.000276677)
(0.000223066 0 0.000238509)
(8.58639e-05 0 0.000197084)
(6.08946e-05 0 0.000177741)
(7.41719e-05 0 0.000124191)
(-6.34096e-08 0 0.000108449)
(-4.04233e-13 0 9.71968e-14)
(-8.09661e-13 0 1.11209e-14)
(-7.87467e-13 0 -5.56492e-14)
(-7.5253e-13 0 -1.12911e-13)
(-7.03114e-13 0 -1.61882e-13)
(-6.40468e-13 0 -2.02639e-13)
(-5.67157e-13 0 -2.34779e-13)
(-4.86076e-13 0 -2.58161e-13)
(-4.00113e-13 0 -2.7297e-13)
(-3.11972e-13 0 -2.7969e-13)
(-2.24073e-13 0 -2.79044e-13)
(-1.385e-13 0 -2.71928e-13)
(-5.6987e-14 0 -2.5934e-13)
(1.90766e-14 0 -2.42316e-13)
(8.86381e-14 0 -2.21885e-13)
(1.50963e-13 0 -1.99022e-13)
(2.05605e-13 0 -1.74619e-13)
(2.52357e-13 0 -1.49457e-13)
(2.91217e-13 0 -1.24198e-13)
(3.22341e-13 0 -9.93779e-14)
(3.46015e-13 0 -7.54201e-14)
(3.62615e-13 0 -5.26431e-14)
(3.72586e-13 0 -3.12759e-14)
(3.76416e-13 0 -1.14731e-14)
(3.74624e-13 0 6.67181e-15)
(3.67739e-13 0 2.3116e-14)
(3.56294e-13 0 3.78609e-14)
(3.40802e-13 0 5.09475e-14)
(3.21746e-13 0 6.24518e-14)
(2.9957e-13 0 7.24769e-14)
(2.74675e-13 0 8.11422e-14)
(2.47426e-13 0 8.85698e-14)
(2.1816e-13 0 9.48725e-14)
(1.87192e-13 0 1.00145e-13)
(1.54818e-13 0 1.0446e-13)
(1.21318e-13 0 1.07867e-13)
(8.69527e-14 0 1.10399e-13)
(5.19682e-14 0 1.12078e-13)
(1.71754e-14 0 1.12928e-13)
(3.40696e-05 0 -8.06098e-05)
(2.20606e-05 0 -0.000145859)
(0.000110398 0 -0.000185454)
(0.000118768 0 -0.00022566)
(0.000148373 0 -0.000219864)
(0.000191895 0 -0.000193219)
(0.000189003 0 -0.000187166)
(0.000216063 0 -0.000150498)
(0.000220541 0 -0.000149307)
(0.00023447 0 -0.000152527)
(0.000252762 0 -0.000160372)
(0.000288919 0 -0.000116525)
(0.000304599 0 -7.33945e-05)
(0.00030625 0 -7.12911e-05)
(0.000315462 0 -6.55139e-05)
(0.00031935 0 -9.41488e-05)
(0.000337086 0 -7.65211e-05)
(0.00036721 0 3.26592e-06)
(0.000366643 0 -8.93828e-05)
(0.000379241 0 -0.000108702)
(0.000425274 0 -2.09046e-05)
(0.000432225 0 -9.77638e-05)
(0.000449186 0 -7.90545e-05)
(0.000467525 0 -7.94422e-05)
(0.000483263 0 -0.000119797)
(0.000515131 0 -9.30202e-05)
(0.000540904 0 -0.000110164)
(0.000568153 0 -0.000108001)
(0.000582584 0 -0.000118021)
(0.000626796 0 -5.072e-05)
(0.000655902 0 -0.000200399)
(0.000700664 0 -0.000121093)
(0.000705128 0 -0.000104741)
(0.000715963 0 -9.82568e-05)
(0.000739309 0 -5.19644e-05)
(0.000753432 0 -6.29931e-05)
(0.000770847 0 -7.51367e-05)
(0.000796137 0 -0.000102227)
(0.000805294 0 -0.000166603)
(0.000819772 0 -5.97747e-05)
(0.000820085 0 -0.000104093)
(0.000853363 0 8.80903e-05)
(0.000856922 0 -0.000127629)
(0.000861976 0 -0.000139204)
(0.000876443 0 -9.32573e-05)
(0.000888368 0 -5.12945e-05)
(0.000896809 0 -6.0325e-05)
(0.000911567 0 -6.2385e-05)
(0.000926136 0 -0.000130858)
(0.000938607 0 -3.7599e-05)
(0.000937174 0 -2.42526e-05)
(0.000943776 0 -1.91606e-05)
(0.000959278 0 -2.02971e-05)
(0.000971838 0 -3.81518e-05)
(0.000985397 0 -3.47609e-06)
(0.000984134 0 8.19973e-06)
(0.000979726 0 8.52896e-06)
(0.000975182 0 3.31767e-05)
(0.000966244 0 7.03832e-05)
(0.000947946 0 4.12915e-05)
(0.000924069 0 7.30456e-05)
(0.000904861 0 0.000121336)
(0.000885806 0 0.00016045)
(0.000886359 0 8.78266e-05)
(0.000840835 0 0.000195148)
(0.000814088 0 0.000116728)
(0.000737084 0 0.000276727)
(0.000642812 0 0.000436234)
(0.000639605 0 0.000407764)
(0.000611401 0 0.000378226)
(0.000557792 0 0.000363085)
(0.000497299 0 0.000342919)
(0.000475165 0 0.000290626)
(0.000439937 0 0.000285687)
(0.000357933 0 0.000325101)
(0.000236768 0 0.000369818)
(0.000200712 0 0.000291352)
(0.000121133 0 0.000234951)
(9.86732e-05 0 0.000176235)
(3.31786e-05 0 0.000159514)
(-7.00681e-08 0 0.000141445)
(-4.40923e-13 0 4.77701e-14)
(-8.87431e-13 0 -1.15849e-14)
(-8.55335e-13 0 -8.62325e-14)
(-8.12699e-13 0 -1.58554e-13)
(-7.54544e-13 0 -2.22316e-13)
(-6.82225e-13 0 -2.75373e-13)
(-5.98808e-13 0 -3.16753e-13)
(-5.07654e-13 0 -3.46284e-13)
(-4.12039e-13 0 -3.64327e-13)
(-3.14977e-13 0 -3.71635e-13)
(-2.1912e-13 0 -3.69256e-13)
(-1.26702e-13 0 -3.58448e-13)
(-3.95315e-14 0 -3.40579e-13)
(4.09913e-14 0 -3.17054e-13)
(1.13854e-13 0 -2.89246e-13)
(1.78406e-13 0 -2.58444e-13)
(2.34312e-13 0 -2.25817e-13)
(2.815e-13 0 -1.92385e-13)
(3.20108e-13 0 -1.59005e-13)
(3.5043e-13 0 -1.26372e-13)
(3.72877e-13 0 -9.50249e-14)
(3.87942e-13 0 -6.53628e-14)
(3.96164e-13 0 -3.76625e-14)
(3.98114e-13 0 -1.20971e-14)
(3.94376e-13 0 1.12442e-14)
(3.85535e-13 0 3.23389e-14)
(3.72166e-13 0 5.12175e-14)
(3.54824e-13 0 6.79534e-14)
(3.34022e-13 0 8.2655e-14)
(3.10225e-13 0 9.5457e-14)
(2.83845e-13 0 1.0651e-13)
(2.55245e-13 0 1.15966e-13)
(2.24745e-13 0 1.23969e-13)
(1.92639e-13 0 1.30642e-13)
(1.592e-13 0 1.36085e-13)
(1.24686e-13 0 1.4037e-13)
(8.93416e-14 0 1.43549e-13)
(5.34031e-14 0 1.45658e-13)
(1.76572e-14 0 1.46724e-13)
(-2.33419e-05 0 -9.92246e-05)
(7.75313e-05 0 -0.000180844)
(7.91559e-05 0 -0.000246784)
(0.000124641 0 -0.000238719)
(0.000136477 0 -0.000227296)
(0.00014487 0 -0.000208491)
(0.000140456 0 -0.000195532)
(0.000157165 0 -0.000172103)
(0.000167574 0 -0.00016804)
(0.000192594 0 -0.000163193)
(0.000219201 0 -0.000136998)
(0.000222814 0 -0.000125038)
(0.000230316 0 -0.000107739)
(0.000235772 0 -0.000105224)
(0.000258017 0 -7.78244e-05)
(0.000274356 0 -6.99291e-05)
(0.000276569 0 -8.82629e-05)
(0.000284573 0 -9.79865e-05)
(0.000316395 0 -7.1748e-05)
(0.000316516 0 -0.00013734)
(0.000354925 0 -8.99015e-05)
(0.00036793 0 -0.000114965)
(0.000388529 0 -0.000106618)
(0.000412956 0 -8.12126e-05)
(0.000439714 0 -0.000105198)
(0.000462598 0 -0.000143298)
(0.000487372 0 -0.000104898)
(0.000505457 0 -0.000117053)
(0.000517359 0 -0.000164638)
(0.000549586 0 -0.000172131)
(0.000629929 0 -1.92913e-05)
(0.000625921 0 -0.000183529)
(0.000634066 0 -0.000153104)
(0.000643312 0 -0.000130145)
(0.000657985 0 -0.000116468)
(0.000668076 0 -0.000154348)
(0.000696079 0 -0.000129908)
(0.000726472 0 -8.6425e-05)
(0.000723572 0 -7.95181e-05)
(0.000712881 0 -9.07899e-05)
(0.0007165 0 -8.63277e-05)
(0.000739865 0 -9.36926e-05)
(0.00077605 0 -7.68194e-05)
(0.000783845 0 -7.00763e-05)
(0.000782041 0 -7.33461e-05)
(0.000783869 0 -7.07645e-05)
(0.000795308 0 -6.20625e-05)
(0.000824815 0 -5.9802e-05)
(0.000833953 0 -6.58383e-05)
(0.000829428 0 -6.93256e-05)
(0.000830062 0 -6.75663e-05)
(0.000838523 0 -5.23855e-05)
(0.000855762 0 -2.32715e-05)
(0.000871892 0 -5.56585e-05)
(0.000890871 0 -6.75761e-06)
(0.000890496 0 9.01679e-06)
(0.000888052 0 2.4953e-05)
(0.000883143 0 6.10038e-05)
(0.000875357 0 9.00347e-05)
(0.000869821 0 7.37151e-05)
(0.000855634 0 0.000113407)
(0.000830546 0 0.000141722)
(0.000807038 0 0.000104646)
(0.000722561 0 0.000319954)
(0.000756097 0 0.000177952)
(0.000745088 0 0.000170762)
(0.000713436 0 0.000195836)
(0.000706148 0 5.10644e-05)
(0.000656395 0 0.000239368)
(0.00061901 0 0.000300161)
(0.000556287 0 0.000348825)
(0.000477177 0 0.000386616)
(0.000436652 0 0.000384295)
(0.0003175 0 0.000422518)
(0.000268866 0 0.000407854)
(0.000185437 0 0.000425613)
(0.000184316 0 0.000367933)
(0.000133092 0 0.000282403)
(9.69595e-05 0 0.000200739)
(0.000125283 0 0.000149429)
(6.68941e-09 0 0.000177622)
(-4.86566e-13 0 7.78233e-14)
(-9.42783e-13 0 -1.91774e-14)
(-9.33691e-13 0 -1.19546e-13)
(-8.88306e-13 0 -2.12985e-13)
(-8.19933e-13 0 -2.93929e-13)
(-7.34905e-13 0 -3.60169e-13)
(-6.38068e-13 0 -4.10852e-13)
(-5.3365e-13 0 -4.46057e-13)
(-4.25464e-13 0 -4.66477e-13)
(-3.16901e-13 0 -4.73249e-13)
(-2.10886e-13 0 -4.6784e-13)
(-1.09823e-13 0 -4.51948e-13)
(-1.5594e-14 0 -4.27389e-13)
(7.04097e-14 0 -3.95996e-13)
(1.47249e-13 0 -3.59538e-13)
(2.14393e-13 0 -3.19655e-13)
(2.71664e-13 0 -2.77815e-13)
(3.19169e-13 0 -2.35284e-13)
(3.57229e-13 0 -1.93115e-13)
(3.86322e-13 0 -1.52149e-13)
(4.07024e-13 0 -1.13026e-13)
(4.19978e-13 0 -7.62073e-14)
(4.25852e-13 0 -4.19982e-14)
(4.25323e-13 0 -1.05727e-14)
(4.1906e-13 0 1.80003e-14)
(4.07713e-13 0 4.37328e-14)
(3.91909e-13 0 6.66971e-14)
(3.7224e-13 0 8.70095e-14)
(3.4925e-13 0 1.04819e-13)
(3.23425e-13 0 1.20299e-13)
(2.95183e-13 0 1.33635e-13)
(2.64885e-13 0 1.45012e-13)
(2.32836e-13 0 1.54609e-13)
(1.99308e-13 0 1.6258e-13)
(1.64546e-13 0 1.69056e-13)
(1.28782e-13 0 1.74136e-13)
(9.22412e-14 0 1.77894e-13)
(5.51428e-14 0 1.80383e-13)
(1.82409e-14 0 1.81639e-13)
(5.83908e-05 0 -0.000124375)
(2.8403e-05 0 -0.000229847)
(7.51756e-05 0 -0.000265976)
(9.3718e-05 0 -0.000252225)
(7.62833e-05 0 -0.000233893)
(6.45615e-05 0 -0.000227149)
(0.000106777 0 -0.000206515)
(0.000135305 0 -0.000178596)
(0.000140153 0 -0.00017896)
(0.000155314 0 -0.000179389)
(0.000153904 0 -0.000179199)
(0.000177874 0 -0.000142529)
(0.000193582 0 -0.000108659)
(0.000199831 0 -9.98393e-05)
(0.000206053 0 -0.000102709)
(0.000213806 0 -0.000103622)
(0.000227856 0 -9.41617e-05)
(0.000236018 0 -9.62959e-05)
(0.000249909 0 -0.000113255)
(0.000267883 0 -0.000134377)
(0.00029838 0 -0.000117135)
(0.000317035 0 -0.000111899)
(0.000340012 0 -0.000110945)
(0.000340146 0 -0.000157801)
(0.000376166 0 -0.000151262)
(0.000416236 0 -0.000160227)
(0.00042388 0 -0.00015919)
(0.000450793 0 -0.000114434)
(0.00046058 0 -0.000190872)
(0.000509443 0 -0.000160359)
(0.00053478 0 -0.000150329)
(0.000552679 0 -0.000120663)
(0.000555811 0 -0.00012724)
(0.000563962 0 -0.000128115)
(0.000586446 0 -0.000114447)
(0.000611171 0 -8.72646e-05)
(0.000611435 0 -8.97455e-05)
(0.000607825 0 -0.00010642)
(0.000608445 0 -0.000115)
(0.000616359 0 -0.00010732)
(0.000623172 0 -0.000129333)
(0.000644067 0 -8.3841e-05)
(0.00065027 0 -9.98581e-05)
(0.000650938 0 -0.00012951)
(0.000667277 0 -9.34715e-05)
(0.000678894 0 -6.7794e-05)
(0.000681362 0 -0.000107507)
(0.000698208 0 -0.000107833)
(0.000712128 0 -9.77247e-05)
(0.000722812 0 -5.795e-05)
(0.000733595 0 -4.00363e-05)
(0.000740859 0 -5.06938e-05)
(0.000753079 0 -7.70261e-05)
(0.000776207 0 -7.81713e-05)
(0.000787287 0 -5.21949e-06)
(0.000786622 0 1.0124e-05)
(0.00078779 0 1.3812e-05)
(0.000788926 0 5.0973e-05)
(0.000785716 0 6.82339e-05)
(0.000774293 0 7.3914e-05)
(0.000762513 0 0.000132142)
(0.000750721 0 0.000168735)
(0.000730292 0 0.000139564)
(0.000691473 0 0.000156933)
(0.000607606 0 0.000289591)
(0.000562524 0 0.000374983)
(0.000539803 0 0.000399246)
(0.000511216 0 0.000399347)
(0.000484314 0 0.000431596)
(0.00046897 0 0.000443759)
(0.000438291 0 0.000454405)
(0.000399521 0 0.000462031)
(0.000336917 0 0.000475944)
(0.000344817 0 0.000409359)
(0.000230023 0 0.000461772)
(0.000293522 0 0.000409297)
(0.000360905 0 0.000338953)
(0.000225948 0 0.000334904)
(0.000165409 0 0.000239188)
(6.63965e-05 0 0.000231988)
(-6.07392e-09 0 0.000228499)
(-5.47872e-13 0 1.19758e-13)
(-1.08392e-12 0 -2.36231e-14)
(-1.04845e-12 0 -1.6006e-13)
(-9.86828e-13 0 -2.80147e-13)
(-9.01728e-13 0 -3.80741e-13)
(-7.99149e-13 0 -4.60982e-13)
(-6.84696e-13 0 -5.20835e-13)
(-5.63278e-13 0 -5.6095e-13)
(-4.3923e-13 0 -5.8253e-13)
(-3.1634e-13 0 -5.87228e-13)
(-1.97819e-13 0 -5.77043e-13)
(-8.62502e-14 0 -5.54216e-13)
(1.64207e-14 0 -5.21105e-13)
(1.08842e-13 0 -4.80054e-13)
(1.90195e-13 0 -4.33295e-13)
(2.60129e-13 0 -3.82865e-13)
(3.18683e-13 0 -3.30557e-13)
(3.662e-13 0 -2.77889e-13)
(4.03243e-13 0 -2.26104e-13)
(4.30519e-13 0 -1.76172e-13)
(4.48819e-13 0 -1.28812e-13)
(4.58969e-13 0 -8.45218e-14)
(4.61799e-13 0 -4.36084e-14)
(4.58113e-13 0 -6.22477e-15)
(4.48682e-13 0 2.75995e-14)
(4.34231e-13 0 5.79275e-14)
(4.15443e-13 0 8.48881e-14)
(3.92946e-13 0 1.08655e-13)
(3.67312e-13 0 1.2943e-13)
(3.3904e-13 0 1.47433e-13)
(3.08558e-13 0 1.62894e-13)
(2.76219e-13 0 1.76039e-13)
(2.42313e-13 0 1.87084e-13)
(2.07086e-13 0 1.96219e-13)
(1.70756e-13 0 2.03608e-13)
(1.33524e-13 0 2.09382e-13)
(9.55888e-14 0 2.13639e-13)
(5.71482e-14 0 2.16453e-13)
(1.89134e-14 0 2.17872e-13)
(6.01298e-06 0 -0.000161818)
(4.60454e-05 0 -0.000238972)
(5.59602e-05 0 -0.000271128)
(2.55591e-05 0 -0.000257136)
(2.86247e-05 0 -0.000228805)
(1.37069e-05 0 -0.000225908)
(5.21502e-05 0 -0.000226446)
(5.67811e-05 0 -0.000230748)
(0.000110221 0 -0.000197629)
(0.00013669 0 -0.000183057)
(0.000123839 0 -0.000175798)
(0.000150219 0 -0.000146376)
(0.000162665 0 -0.000126867)
(0.000166395 0 -0.00011441)
(0.000178523 0 -9.19974e-05)
(0.000172026 0 -9.96286e-05)
(0.000173947 0 -0.0001042)
(0.000182024 0 -0.000116818)
(0.00020331 0 -0.00012253)
(0.000211966 0 -0.00015774)
(0.000242548 0 -0.000146099)
(0.000252101 0 -0.000157863)
(0.000295172 0 -0.000118873)
(0.000283658 0 -0.000197216)
(0.000336162 0 -0.000148246)
(0.000372216 0 -0.000126414)
(0.000370833 0 -0.000179557)
(0.000375315 0 -0.000208755)
(0.000424829 0 -0.000155303)
(0.000446446 0 -0.000177042)
(0.000445451 0 -0.000179936)
(0.000449488 0 -0.000184108)
(0.000457334 0 -0.0001968)
(0.000479317 0 -0.000162426)
(0.000491564 0 -0.000122479)
(0.000493091 0 -0.000123819)
(0.000499535 0 -0.000119564)
(0.000508157 0 -0.000106217)
(0.000515661 0 -9.4565e-05)
(0.000523306 0 -9.07474e-05)
(0.00052827 0 -8.95828e-05)
(0.000530312 0 -9.84429e-05)
(0.000537731 0 -9.46973e-05)
(0.000542694 0 -0.000107652)
(0.000557971 0 -9.00555e-05)
(0.000568029 0 -9.75133e-05)
(0.000581986 0 -9.64518e-05)
(0.000604444 0 -6.50351e-05)
(0.000609187 0 -0.000117386)
(0.00061662 0 -0.000114728)
(0.000629305 0 -7.69488e-05)
(0.000643021 0 -9.15715e-05)
(0.000678882 0 -7.30371e-05)
(0.000688943 0 -3.95556e-05)
(0.000686953 0 -2.86248e-05)
(0.000692294 0 -4.48575e-06)
(0.000697076 0 1.67401e-05)
(0.000701001 0 6.72196e-05)
(0.000698083 0 8.98898e-05)
(0.00069216 0 6.2134e-05)
(0.000659002 0 0.000167727)
(0.000641965 0 0.000194383)
(0.000605839 0 0.000243872)
(0.000588436 0 0.000231902)
(0.000554984 0 0.000229154)
(0.000585651 0 0.000135863)
(0.000546714 0 0.000264588)
(0.000512143 0 0.000324532)
(0.000449647 0 0.000408776)
(0.000426054 0 0.000434293)
(0.000431148 0 0.00043109)
(0.00037301 0 0.000478088)
(0.000319095 0 0.000491228)
(0.000343246 0 0.000444158)
(0.000271968 0 0.000481753)
(0.000294915 0 0.000458799)
(0.000131985 0 0.00048208)
(8.36278e-05 0 0.000394526)
(7.52357e-05 0 0.000320129)
(0.00013706 0 0.000285628)
(7.50806e-09 0 0.000297564)
(-6.37123e-13 0 1.87099e-13)
(-1.22172e-12 0 -3.5215e-14)
(-1.18958e-12 0 -2.17029e-13)
(-1.1088e-12 0 -3.67003e-13)
(-1.00077e-12 0 -4.88346e-13)
(-8.74999e-13 0 -5.82629e-13)
(-7.38036e-13 0 -6.50989e-13)
(-5.95346e-13 0 -6.94789e-13)
(-4.51742e-13 0 -7.15837e-13)
(-3.11414e-13 0 -7.16409e-13)
(-1.77874e-13 0 -6.99163e-13)
(-5.38845e-14 0 -6.67014e-13)
(5.85687e-14 0 -6.22975e-13)
(1.58219e-13 0 -5.70005e-13)
(2.44437e-13 0 -5.10879e-13)
(3.17131e-13 0 -4.48085e-13)
(3.7664e-13 0 -3.83769e-13)
(4.23621e-13 0 -3.1971e-13)
(4.58946e-13 0 -2.57326e-13)
(4.83613e-13 0 -1.97693e-13)
(4.98675e-13 0 -1.41579e-13)
(5.05182e-13 0 -8.94825e-14)
(5.04149e-13 0 -4.16813e-14)
(4.96531e-13 0 1.72451e-15)
(4.83212e-13 0 4.07711e-14)
(4.65001e-13 0 7.55947e-14)
(4.42636e-13 0 1.064e-13)
(4.16781e-13 0 1.33433e-13)
(3.88028e-13 0 1.56964e-13)
(3.56889e-13 0 1.77276e-13)
(3.2379e-13 0 1.94649e-13)
(2.89075e-13 0 2.09359e-13)
(2.53016e-13 0 2.21664e-13)
(2.15832e-13 0 2.31795e-13)
(1.77709e-13 0 2.39953e-13)
(1.38814e-13 0 2.46301e-13)
(9.93121e-14 0 2.50965e-13)
(5.93751e-14 0 2.5404e-13)
(1.96599e-14 0 2.5559e-13)
(8.1451e-06 0 -0.000169144)
(4.53462e-07 0 -0.000237639)
(-6.89861e-05 0 -0.000250207)
(-6.36927e-05 0 -0.000238703)
(-2.90412e-05 0 -0.000228135)
(-7.53976e-05 0 -0.000223157)
(-8.02964e-05 0 -0.000244847)
(-2.43484e-05 0 -0.00025742)
(-2.69037e-05 0 -0.000250958)
(7.9147e-05 0 -0.000218631)
(0.000102598 0 -0.000174876)
(0.000138223 0 -0.000143651)
(0.000141702 0 -0.000126441)
(0.000131933 0 -0.000111263)
(0.00012703 0 -9.99411e-05)
(0.000126403 0 -0.000102566)
(0.000128227 0 -0.000112524)
(0.000148979 0 -0.000119507)
(0.000151119 0 -0.000153552)
(0.000183171 0 -0.00015797)
(0.000196592 0 -0.00016806)
(0.000222599 0 -0.000155237)
(0.000216769 0 -0.000185683)
(0.000294093 0 -0.00011485)
(0.000227583 0 -0.000258359)
(0.000283281 0 -0.000208411)
(0.000325247 0 -0.000162486)
(0.000349545 0 -0.000163405)
(0.000325116 0 -0.00023936)
(0.000364994 0 -0.000198015)
(0.000375735 0 -0.000173757)
(0.000386179 0 -0.000151033)
(0.000396215 0 -0.000135403)
(0.000391916 0 -0.000141151)
(0.000391298 0 -0.000144123)
(0.000397422 0 -0.00013574)
(0.000402358 0 -0.000124305)
(0.000405482 0 -0.000117761)
(0.000408355 0 -0.000119702)
(0.000412218 0 -0.000126752)
(0.00041866 0 -0.000127159)
(0.000428857 0 -0.0001186)
(0.000441248 0 -0.000110953)
(0.000444626 0 -0.000138297)
(0.000471654 0 -8.94702e-05)
(0.00048445 0 -0.000131855)
(0.000505118 0 -0.000124151)
(0.000513505 0 -0.00013107)
(0.000536165 0 -6.96089e-05)
(0.000545546 0 -7.5132e-05)
(0.00055343 0 -8.84893e-05)
(0.000566141 0 -0.000106106)
(0.000581856 0 -8.29841e-05)
(0.00058538 0 -5.90749e-05)
(0.000595058 0 -4.9813e-05)
(0.000611773 0 7.74788e-06)
(0.000606264 0 1.10177e-05)
(0.000594887 0 7.41603e-05)
(0.000600928 0 8.79618e-05)
(0.00060396 0 7.02486e-05)
(0.000587278 0 0.000103396)
(0.000575456 0 0.00010276)
(0.000558537 0 0.000151959)
(0.000543953 0 0.000163738)
(0.000496272 0 0.000267968)
(0.000412787 0 0.000358195)
(0.000396607 0 0.00039678)
(0.000396391 0 0.000421526)
(0.000390746 0 0.000427634)
(0.00035725 0 0.00045705)