0 	-3.29661e-12 	0 	-4.11743e-11
0.010101 	6.16494e-11 	0 	-1.60574e-11
0.020202 	5.17225e-11 	0 	2.82273e-12
0.030303 	2.7558e-12 	0 	1.60257e-13
0.040404 	1.63697e-13 	0 	3.47533e-15
0.0505051 	1.0019e-14 	0 	-5.99392e-15
0.0606061 	8.68684e-16 	0 	-6.59717e-15
0.0707071 	-1.43627e-15 	0 	-6.55088e-15
