/*--------------------------------*- C++ -*----------------------------------*\
  =========                 |
  \\      /  F ield         | OpenFOAM: The Open Source CFD Toolbox
   \\    /   O peration     | Website:  https://openfoam.org
    \\  /    A nd           | Version:  6
     \\/     M anipulation  |
\*---------------------------------------------------------------------------*/
FoamFile
{
    version     2.0;
    format      ascii;
    class       surfaceScalarField;
    location    "9200";
    object      phi;
}
// * * * * * * * * * * * * * * * * * * * * * * * * * * * * * * * * * * * * * //

dimensions      [0 3 -1 0 0 0 0];

internalField   nonuniform List<scalar> 
9440
(
3.34767e-13
-3.34768e-13
6.60838e-13
-3.26083e-13
9.78511e-13
-3.17685e-13
1.27843e-12
-2.99929e-13
1.55638e-12
-2.7796e-13
1.81e-12
-2.53636e-13
2.0376e-12
-2.27603e-13
2.2384e-12
-2.00812e-13
2.41249e-12
-1.74098e-13
2.56052e-12
-1.48042e-13
2.68348e-12
-1.22965e-13
2.78259e-12
-9.91178e-14
2.85956e-12
-7.69848e-14
2.9156e-12
-5.60385e-14
2.95237e-12
-3.67833e-14
2.97132e-12
-1.8951e-14
2.97097e-12
3.42111e-16
2.9574e-12
1.35594e-14
2.9312e-12
2.6191e-14
2.89375e-12
3.74481e-14
2.84322e-12
5.05147e-14
2.78568e-12
5.7539e-14
2.72123e-12
6.44421e-14
2.65064e-12
7.05758e-14
2.57591e-12
7.47294e-14
2.49723e-12
7.866e-14
2.41629e-12
8.09395e-14
2.33463e-12
8.16551e-14
2.25264e-12
8.19736e-14
2.17099e-12
8.16481e-14
2.09046e-12
8.05204e-14
2.01163e-12
7.88176e-14
1.93484e-12
7.67891e-14
1.86049e-12
7.43343e-14
1.78886e-12
7.16183e-14
1.71985e-12
6.90075e-14
1.65363e-12
6.62119e-14
1.58997e-12
6.36417e-14
1.52899e-12
6.09733e-14
1.47054e-12
5.84392e-14
1.4144e-12
5.61394e-14
1.36042e-12
5.3966e-14
1.30848e-12
5.19362e-14
1.25849e-12
4.99791e-14
1.21005e-12
4.84262e-14
1.1632e-12
4.68443e-14
1.1174e-12
4.57981e-14
1.07303e-12
4.43648e-14
1.02974e-12
4.3279e-14
9.87542e-13
4.21916e-14
9.4634e-13
4.11952e-14
9.05879e-13
4.04569e-14
8.66153e-13
3.97211e-14
8.27219e-13
3.89303e-14
7.88941e-13
3.8274e-14
7.51422e-13
3.75149e-14
7.14536e-13
3.68828e-14
6.78384e-13
3.61486e-14
6.42702e-13
3.56816e-14
6.0769e-13
3.50094e-14
5.73376e-13
3.43132e-14
5.39746e-13
3.36287e-14
5.06749e-13
3.29985e-14
4.74397e-13
3.23526e-14
4.42676e-13
3.17216e-14
4.11677e-13
3.10017e-14
3.81324e-13
3.03561e-14
3.51622e-13
2.9706e-14
3.22539e-13
2.90856e-14
2.9431e-13
2.82303e-14
2.6694e-13
2.73747e-14
2.40561e-13
2.63833e-14
2.15607e-13
2.49585e-14
1.93092e-13
2.25174e-14
1.76353e-13
1.67434e-14
1.76257e-13
1.00342e-16
2.28702e-13
-5.24415e-14
1.2354e-13
1.05165e-13
-2.97262e-18
1.23549e-13
9.06606e-22
-3.97027e-23
9.01058e-22
-5.16988e-26
8.98525e-22
2.42984e-24
8.93665e-22
5.16988e-24
8.86066e-22
7.75482e-24
8.75881e-22
1.03915e-23
8.63215e-22
1.28213e-23
8.48325e-22
1.51994e-23
8.31161e-22
1.72674e-23
8.12136e-22
1.91803e-23
7.9125e-22
2.08346e-23
7.68813e-22
2.22822e-23
7.44928e-22
2.36263e-23
7.20112e-22
2.46603e-23
6.93953e-22
2.54875e-23
6.67018e-22
2.61596e-23
6.39462e-22
2.67283e-23
6.11338e-22
2.70385e-23
5.82749e-22
2.71936e-23
5.53746e-22
2.71419e-23
5.24743e-22
2.70385e-23
4.95585e-22
2.678e-23
4.66633e-22
2.65215e-23
4.37682e-22
2.62113e-23
4.08989e-22
2.56426e-23
3.80348e-22
2.50739e-23
3.52172e-22
2.45052e-23
3.24358e-22
2.39365e-23
2.96803e-22
2.32128e-23
2.69609e-22
2.25407e-23
2.42984e-22
2.17652e-23
2.16618e-22
2.11448e-23
1.9082e-22
2.04727e-23
1.65333e-22
1.9904e-23
1.40259e-22
1.9387e-23
1.1565e-22
1.88701e-23
9.14035e-23
1.84048e-23
6.74152e-23
1.79912e-23
4.37889e-23
1.74742e-23
2.10414e-23
1.67504e-23
1.48893e-23
3.42085e-13
-6.76867e-13
6.76216e-13
-6.60236e-13
9.96688e-13
-6.38177e-13
1.29961e-12
-6.02869e-13
1.58023e-12
-5.58598e-13
1.83542e-12
-5.08842e-13
2.06367e-12
-4.55865e-13
2.26441e-12
-4.01577e-13
2.4379e-12
-3.47601e-13
2.58486e-12
-2.95021e-13
2.70656e-12
-2.44681e-13
2.80441e-12
-1.96978e-13
2.87998e-12
-1.52569e-13
2.93449e-12
-1.10567e-13
2.97019e-12
-7.24895e-14
2.98717e-12
-3.5949e-14
2.98509e-12
2.41402e-15
2.97064e-12
2.799e-14
2.94318e-12
5.36392e-14
2.90354e-12
7.70725e-14
2.85208e-12
1.01959e-13
2.79303e-12
1.16582e-13
2.72722e-12
1.30234e-13
2.65519e-12
1.42587e-13
2.57938e-12
1.50532e-13
2.49945e-12
1.58573e-13
2.4175e-12
1.62872e-13
2.33498e-12
1.64162e-13
2.25217e-12
1.64762e-13
2.16988e-12
1.63928e-13
2.08885e-12
1.61531e-13
2.00962e-12
1.5803e-13
1.9325e-12
1.53891e-13
1.85799e-12
1.48828e-13
1.78616e-12
1.43437e-13
1.71717e-12
1.37981e-13
1.65092e-12
1.32449e-13
1.58743e-12
1.27115e-13
1.52651e-12
1.21874e-13
1.46821e-12
1.16719e-13
1.41214e-12
1.12202e-13
1.35843e-12
1.07657e-13
1.30671e-12
1.03642e-13
1.25679e-12
9.98915e-14
1.20851e-12
9.66836e-14
1.16186e-12
9.34863e-14
1.11628e-12
9.13665e-14
1.07194e-12
8.86995e-14
1.02889e-12
8.63078e-14
9.86755e-13
8.43229e-14
9.45641e-13
8.23015e-14
9.05232e-13
8.08574e-14
8.6553e-13
7.94167e-14
8.26691e-13
7.7766e-14
7.88418e-13
7.65414e-14
7.50876e-13
7.50526e-14
7.14007e-13
7.37483e-14
6.77796e-13
7.23591e-14
6.42146e-13
7.13311e-14
6.07147e-13
7.00078e-14
5.72829e-13
6.86328e-14
5.39259e-13
6.7199e-14
5.0629e-13
6.59682e-14
4.73918e-13
6.47266e-14
4.42235e-13
6.34072e-14
4.11239e-13
6.20012e-14
3.80775e-13
6.08243e-14
3.51022e-13
5.94642e-14
3.22012e-13
5.81015e-14
2.93697e-13
5.65505e-14
2.66104e-13
5.49721e-14
2.39391e-13
5.31017e-14
2.136e-13
5.0757e-14
1.88736e-13
4.73901e-14
1.63964e-13
4.15218e-14
1.32003e-13
3.20676e-14
6.62888e-14
1.32788e-14
3.72382e-14
1.34225e-13
-1.6734e-18
1.60794e-13
9.06607e-22
-1.45588e-22
9.0354e-22
-4.65289e-25
9.01265e-22
5.11818e-24
8.9625e-22
1.065e-23
8.88702e-22
1.59749e-23
8.78311e-22
2.11965e-23
8.65593e-22
2.60562e-23
8.50445e-22
3.0554e-23
8.33023e-22
3.46382e-23
8.13894e-22
3.83605e-23
7.92698e-22
4.15658e-23
7.70157e-22
4.44093e-23
7.46014e-22
4.67874e-23
7.20888e-22
4.8752e-23
6.94677e-22
5.03029e-23
6.67587e-22
5.14403e-23
6.39773e-22
5.21641e-23
6.11493e-22
5.25777e-23
5.82749e-22
5.26811e-23
5.53642e-22
5.24743e-23
5.24484e-22
5.2009e-23
4.95326e-22
5.13369e-23
4.66323e-22
5.05097e-23
4.37165e-22
4.93206e-23
4.0842e-22
4.82867e-23
3.79831e-22
4.68391e-23
3.51603e-22
4.54949e-23
3.23583e-22
4.39957e-23
2.96079e-22
4.24964e-23
2.68885e-22
4.08937e-23
2.42364e-22
3.93428e-23
2.15946e-22
3.78952e-23
1.90252e-22
3.64993e-23
1.64764e-22
3.50518e-23
1.39742e-22
3.3811e-23
1.15185e-22
3.28804e-23
9.09899e-23
3.18465e-23
6.68982e-23
3.10193e-23
4.30651e-23
3.02955e-23
1.9232e-23
2.97268e-23
2.93649e-23
3.53642e-13
-1.03052e-12
7.00399e-13
-1.00701e-12
1.03252e-12
-9.70319e-13
1.34415e-12
-9.14508e-13
1.63068e-12
-8.45149e-13
1.88944e-12
-7.67616e-13
2.11916e-12
-6.85603e-13
2.31969e-12
-6.02124e-13
2.49171e-12
-5.19635e-13
2.63656e-12
-4.39889e-13
2.7555e-12
-3.63637e-13
2.85047e-12
-2.91952e-13
2.92292e-12
-2.25041e-13
2.97435e-12
-1.62004e-13
3.0074e-12
-1.0555e-13
3.01969e-12
-4.82574e-14
3.01478e-12
7.31704e-15
2.99772e-12
4.50376e-14
2.96765e-12
8.36991e-14
2.92334e-12
1.21371e-13
2.86977e-12
1.55516e-13
2.80785e-12
1.78491e-13
2.73907e-12
1.99008e-13
2.66425e-12
2.17392e-13
2.58615e-12
2.28624e-13
2.50353e-12
2.41178e-13
2.41971e-12
2.4668e-13
2.33532e-12
2.48538e-13
2.25092e-12
2.49155e-13
2.16735e-12
2.47488e-13
2.08528e-12
2.43584e-13
2.0052e-12
2.38096e-13
1.92751e-12
2.31573e-13
1.8527e-12
2.23615e-13
1.78077e-12
2.15359e-13
1.71165e-12
2.07081e-13
1.64548e-12
1.98605e-13
1.58203e-12
1.90547e-13
1.52147e-12
1.82426e-13
1.46354e-12
1.7464e-13
1.40785e-12
1.67879e-13
1.35439e-12
1.61097e-13
1.30303e-12
1.54991e-13
1.25342e-12
1.49494e-13
1.20552e-12
1.4457e-13
1.15922e-12
1.39771e-13
1.11387e-12
1.36705e-13
1.06978e-12
1.32784e-13
1.02685e-12
1.29226e-13
9.84856e-13
1.26312e-13
9.43895e-13
1.23255e-13
9.03659e-13
1.21086e-13
8.64002e-13
1.19067e-13
8.25144e-13
1.16621e-13
7.86872e-13
1.14808e-13
7.4942e-13
1.125e-13
7.12588e-13
1.10582e-13
6.76434e-13
1.08509e-13
6.40789e-13
1.06975e-13
6.05787e-13
1.05011e-13
5.71507e-13
1.02914e-13
5.37807e-13
1.00899e-13
5.04781e-13
9.89984e-14
4.72454e-13
9.70555e-14
4.40754e-13
9.51085e-14
4.0965e-13
9.311e-14
3.7928e-13
9.11958e-14
3.4948e-13
8.92665e-14
3.20367e-13
8.72193e-14
2.91957e-13
8.49645e-14
2.64186e-13
8.27486e-14
2.3701e-13
8.02817e-14
2.10095e-13
7.76771e-14
1.8302e-13
7.4472e-14
1.53376e-13
7.11714e-14
1.16397e-13
6.90533e-14
5.65809e-14
7.31036e-14
3.29856e-14
1.57825e-13
-1.50271e-18
1.93786e-13
9.06607e-22
-2.64702e-22
9.09123e-22
-8.27181e-25
9.06745e-22
7.80652e-24
9.01679e-22
1.62334e-23
8.93872e-22
2.43501e-23
8.83222e-22
3.2105e-23
8.70091e-22
3.95496e-23
8.54478e-22
4.62187e-23
8.36693e-22
5.23709e-23
8.17048e-22
5.79543e-23
7.95593e-22
6.2814e-23
7.72483e-22
6.69499e-23
7.47978e-22
7.05689e-23
7.22439e-22
7.3464e-23
6.95762e-22
7.56353e-23
6.68362e-22
7.73931e-23
6.40134e-22
7.84271e-23
6.11597e-22
7.89958e-23
5.82542e-22
7.89441e-23
5.53229e-22
7.85305e-23
5.23812e-22
7.78584e-23
4.94499e-22
7.6721e-23
4.65082e-22
7.52734e-23
4.36079e-22
7.37742e-23
4.06973e-22
7.17579e-23
3.78435e-22
6.97417e-23
3.50104e-22
6.75186e-23
3.22135e-22
6.51405e-23
2.94528e-22
6.26589e-23
2.67386e-22
6.03842e-23
2.40916e-22
5.80577e-23
2.1455e-22
5.5783e-23
1.88804e-22
5.36116e-23
1.63523e-22
5.16471e-23
1.3876e-22
4.98376e-23
1.14151e-22
4.81316e-23
9.0111e-23
4.67874e-23
6.62262e-23
4.55466e-23
4.24964e-23
4.46678e-23
1.88701e-23
4.40991e-23
4.37889e-23
3.7532e-13
-1.40585e-12
7.40632e-13
-1.37235e-12
1.08907e-12
-1.31878e-12
1.41335e-12
-1.23881e-12
1.70833e-12
-1.14014e-12
1.97164e-12
-1.03094e-12
2.20273e-12
-9.16711e-13
2.40227e-12
-8.01672e-13
2.57169e-12
-6.89078e-13
2.71277e-12
-5.8098e-13
2.8276e-12
-4.78481e-13
2.91829e-12
-3.82654e-13
2.98578e-12
-2.92541e-13
3.0331e-12
-2.09339e-13
3.06221e-12
-1.34673e-13
3.0669e-12
-5.29604e-14
3.05973e-12
1.44758e-14
3.03735e-12
6.74059e-14
3.00418e-12
1.16864e-13
2.9527e-12
1.72837e-13
2.89622e-12
2.11992e-13
2.82965e-12
2.4505e-13
2.7567e-12
2.71946e-13
2.67788e-12
2.96197e-13
2.59582e-12
3.10672e-13
2.50965e-12
3.27337e-13
2.42279e-12
3.33524e-13
2.33559e-12
3.35724e-13
2.24882e-12
3.35915e-13
2.16328e-12
3.33017e-13
2.07978e-12
3.27075e-13
1.99842e-12
3.19441e-13
1.91984e-12
3.10133e-13
1.84462e-12
2.98825e-13
1.77231e-12
2.87653e-13
1.70321e-12
2.76172e-13
1.63715e-12
2.64643e-13
1.57406e-12
2.53625e-13
1.51386e-12
2.42619e-13
1.45626e-12
2.3222e-13
1.40117e-12
2.22963e-13
1.3483e-12
2.13955e-13
1.29752e-12
2.05758e-13
1.24845e-12
1.98548e-13
1.20091e-12
1.92105e-13
1.15522e-12
1.85446e-13
1.11045e-12
1.8147e-13
1.06656e-12
1.76667e-13
1.02394e-12
1.71834e-13
9.82198e-13
1.68046e-13
9.41421e-13
1.64027e-13
9.01314e-13
1.61186e-13
8.61773e-13
1.58603e-13
8.23017e-13
1.5537e-13
7.84905e-13
1.52915e-13
7.47451e-13
1.4995e-13
7.10593e-13
1.47435e-13
6.74394e-13
1.44708e-13
6.38788e-13
1.42579e-13
6.03818e-13
1.39979e-13
5.69491e-13
1.37241e-13
5.35813e-13
1.34578e-13
5.02828e-13
1.31985e-13
4.70489e-13
1.29395e-13
4.3881e-13
1.26791e-13
4.07689e-13
1.24234e-13
3.77184e-13
1.21704e-13
3.47362e-13
1.19091e-13
3.18242e-13
1.16343e-13
2.89697e-13
1.13512e-13
2.6171e-13
1.10739e-13
2.34234e-13
1.07762e-13
2.07063e-13
1.04854e-13
1.79385e-13
1.02153e-13
1.50349e-13
1.00212e-13
1.19758e-13
9.96472e-14
8.90853e-14
1.0378e-13
3.72968e-14
2.09621e-13
-1.26846e-18
2.31089e-13
9.13224e-22
-3.17643e-22
9.17757e-22
-9.82277e-25
9.15224e-22
1.05466e-23
9.09795e-22
2.1972e-23
9.01575e-22
3.29321e-23
8.90615e-22
4.34787e-23
8.76812e-22
5.33015e-23
8.6063e-22
6.24521e-23
8.42328e-22
7.07239e-23
8.21907e-22
7.80652e-23
7.99729e-22
8.46309e-23
7.76051e-22
9.03178e-23
7.50873e-22
9.4919e-23
7.2461e-22
9.8693e-23
6.9752e-22
1.01588e-22
6.69448e-22
1.03604e-22
6.40703e-22
1.05e-22
6.11545e-22
1.05569e-22
5.82128e-22
1.05569e-22
5.52505e-22
1.05e-22
5.22726e-22
1.03966e-22
4.93051e-22
1.02415e-22
4.63531e-22
1.00451e-22
4.34166e-22
9.81243e-23
4.04905e-22
9.54877e-23
3.76212e-22
9.26442e-23
3.47778e-22
8.96457e-23
3.19654e-22
8.64921e-23
2.92202e-22
8.33385e-23
2.65163e-22
8.01848e-23
2.38538e-22
7.70829e-23
2.1243e-22
7.3981e-23
1.86839e-22
7.10341e-23
1.61766e-22
6.83458e-23
1.37054e-22
6.58643e-23
1.12858e-22
6.37446e-23
8.88702e-23
6.17801e-23
6.53473e-23
6.03325e-23
4.19277e-23
5.91951e-23
1.85599e-23
5.83679e-23
5.80577e-23
4.05864e-13
-1.81173e-12
7.98282e-13
-1.76478e-12
1.16976e-12
-1.69028e-12
1.51146e-12
-1.58052e-12
1.81726e-12
-1.44596e-12
2.08563e-12
-1.29933e-12
2.3175e-12
-1.1486e-12
2.51465e-12
-9.98838e-13
2.6796e-12
-8.5404e-13
2.81518e-12
-7.16586e-13
2.92401e-12
-5.8732e-13
3.0084e-12
-4.67063e-13
3.06972e-12
-3.53871e-13
3.11169e-12
-2.5132e-13
3.13308e-12
-1.56076e-13
3.13055e-12
-5.04422e-14
3.11976e-12
2.52493e-14
3.09109e-12
9.60644e-14
3.05067e-12
1.57267e-13
2.99321e-12
2.30287e-13
2.93114e-12
2.74057e-13
2.85847e-12
3.17702e-13
2.7796e-12
3.50812e-13
2.6958e-12
3.79987e-13
2.608e-12
3.98461e-13
2.51723e-12
4.18094e-13
2.4263e-12
4.24442e-13
2.33538e-12
4.26631e-13
2.24532e-12
4.25956e-13
2.15739e-12
4.20941e-13
2.07177e-12
4.12676e-13
1.98886e-12
4.02343e-13
1.90928e-12
3.89696e-13
1.83337e-12
3.74727e-13
1.7607e-12
3.60302e-13
1.6917e-12
3.4516e-13
1.62581e-12
3.30523e-13
1.56319e-12
3.16234e-13
1.50365e-12
3.02144e-13
1.44672e-12
2.89135e-13
1.39232e-12
2.77351e-13
1.34025e-12
2.66013e-13
1.29018e-12
2.55815e-13
1.24181e-12
2.46905e-13
1.19501e-12
2.38904e-13
1.1498e-12
2.30645e-13
1.10603e-12
2.2523e-13
1.06243e-12
2.20258e-13
1.02009e-12
2.14167e-13
9.7869e-13
2.09435e-13
9.38173e-13
2.04538e-13
8.98303e-13
2.0105e-13
8.59024e-13
1.97877e-13
8.20414e-13
1.93977e-13
7.82245e-13
1.9108e-13
7.44877e-13
1.87318e-13
7.08036e-13
1.84271e-13
6.71861e-13
1.80881e-13
6.36175e-13
1.78264e-13
6.01303e-13
1.74851e-13
5.6692e-13
1.71623e-13
5.33292e-13
1.68208e-13
5.00261e-13
1.65018e-13
4.67844e-13
1.61814e-13
4.36164e-13
1.58473e-13
4.04976e-13
1.55424e-13
3.74453e-13
1.5223e-13
3.44634e-13
1.48913e-13
3.15405e-13
1.45576e-13
2.8673e-13
1.42192e-13
2.58697e-13
1.38777e-13
2.31217e-13
1.35247e-13
2.04262e-13
1.31812e-13
1.77815e-13
1.28603e-13
1.51173e-13
1.26858e-13
1.2563e-13
1.25195e-13
9.91424e-14
1.30272e-13
4.04801e-14
2.68287e-13
-9.99722e-19
2.71574e-13
9.33077e-22
-4.3676e-22
9.29234e-22
-1.34417e-24
9.26597e-22
1.34934e-23
9.20859e-22
2.7969e-23
9.1207e-22
4.20828e-23
9.0049e-22
5.54211e-23
8.85962e-22
6.78805e-23
8.68902e-22
7.9461e-23
8.4967e-22
8.99042e-23
8.28525e-22
9.921e-23
8.05364e-22
1.07327e-22
7.80703e-22
1.14254e-22
7.54699e-22
1.19993e-22
7.27557e-22
1.24491e-22
6.99588e-22
1.28161e-22
6.7074e-22
1.30643e-22
6.41272e-22
1.32142e-22
6.11545e-22
1.32866e-22
5.8156e-22
1.32659e-22
5.51368e-22
1.31832e-22
5.21227e-22
1.30384e-22
4.91035e-22
1.28316e-22
4.61205e-22
1.2568e-22
4.31478e-22
1.22681e-22
4.02165e-22
1.19321e-22
3.73162e-22
1.15702e-22
3.44624e-22
1.11876e-22
3.16552e-22
1.07947e-22
2.88996e-22
1.03966e-22
2.62009e-22
9.99855e-23
2.35488e-22
9.60047e-23
2.09432e-22
9.21272e-23
1.84151e-22
8.86117e-23
1.59232e-22
8.51479e-23
1.34934e-22
8.2046e-23
1.10946e-22
7.93059e-23
8.74227e-23
7.69795e-23
6.42099e-23
7.51183e-23
4.10488e-23
7.36708e-23
1.82497e-23
7.27402e-23
7.24817e-23
4.48091e-13
-2.25983e-12
8.78421e-13
-2.19513e-12
1.28101e-12
-2.09289e-12
1.6447e-12
-1.94422e-12
1.96336e-12
-1.76464e-12
2.23632e-12
-1.57231e-12
2.46701e-12
-1.37931e-12
2.65929e-12
-1.19114e-12
2.81701e-12
-1.01177e-12
2.94449e-12
-8.4408e-13
3.04527e-12
-6.88123e-13
3.12077e-12
-5.42583e-13
3.1753e-12
-4.08411e-13
3.21112e-12
-2.87159e-13
3.21761e-12
-1.62572e-13
3.21336e-12
-4.62052e-14
3.19454e-12
4.40528e-14
3.16024e-12
1.30353e-13
3.10694e-12
2.10562e-13
3.04554e-12
2.91672e-13
2.97443e-12
3.45157e-13
2.89427e-12
3.9785e-13
2.80769e-12
4.37384e-13
2.71769e-12
4.69976e-13
2.62217e-12
4.93963e-13
2.52585e-12
5.14408e-13
2.42965e-12
5.20632e-13
2.33414e-12
5.22133e-13
2.24011e-12
5.19973e-13
2.14896e-12
5.12076e-13
2.06085e-12
5.00774e-13
1.97606e-12
4.87118e-13
1.89531e-12
4.70434e-13
1.81863e-12
4.51393e-13
1.74581e-12
4.33108e-13
1.67683e-12
4.14131e-13
1.61133e-12
3.96008e-13
1.54937e-12
3.7818e-13
1.49068e-12
3.60824e-13
1.43461e-12
3.45198e-13
1.38122e-12
3.3073e-13
1.3301e-12
3.17114e-13
1.2812e-12
3.04711e-13
1.23363e-12
2.94461e-13
1.18802e-12
2.84501e-13
1.14302e-12
2.75635e-13
1.10054e-12
2.67703e-13
1.0574e-12
2.63393e-13
1.01532e-12
2.56232e-13
9.74446e-13
2.50308e-13
9.34094e-13
2.44885e-13
8.9459e-13
2.40546e-13
8.55464e-13
2.37e-13
8.17014e-13
2.32423e-13
7.78983e-13
2.29108e-13
7.41659e-13
2.2464e-13
7.04895e-13
2.21034e-13
6.68685e-13
2.17087e-13
6.33029e-13
2.13917e-13
5.98023e-13
2.09856e-13
5.63681e-13
2.05966e-13
5.30084e-13
2.01802e-13
4.97086e-13
1.98018e-13
4.64708e-13
1.94194e-13
4.33007e-13
1.90175e-13
4.01794e-13
1.86638e-13
3.71236e-13
1.82788e-13
3.41346e-13
1.78803e-13
3.12023e-13
1.74902e-13
2.83274e-13
1.70944e-13
2.55178e-13
1.66876e-13
2.27765e-13
1.62661e-13
2.01296e-13
1.58284e-13
1.75953e-13
1.5395e-13
1.51514e-13
1.513e-13
1.31225e-13
1.45487e-13
1.11465e-13
1.50035e-13
3.02138e-14
3.49543e-13
-7.5761e-19
3.0179e-13
9.39695e-22
-4.89702e-22
9.44072e-22
-1.44757e-24
9.41125e-22
1.6647e-23
9.34869e-22
3.44314e-23
9.25408e-22
5.16988e-23
9.12949e-22
6.80873e-23
8.97491e-22
8.32868e-23
8.79396e-22
9.72971e-23
8.58924e-22
1.09963e-22
8.36642e-22
1.21234e-22
8.12343e-22
1.31005e-22
7.8639e-22
1.39173e-22
7.59248e-22
1.45997e-22
7.31124e-22
1.51426e-22
7.0207e-22
1.55562e-22
6.72239e-22
1.58353e-22
6.42047e-22
1.60008e-22
6.1139e-22
1.60628e-22
5.80681e-22
1.60318e-22
5.49972e-22
1.59181e-22
5.19108e-22
1.57164e-22
4.8845e-22
1.54579e-22
4.58206e-22
1.51322e-22
4.28169e-22
1.476e-22
3.98546e-22
1.43516e-22
3.69336e-22
1.39121e-22
3.40695e-22
1.3452e-22
3.12519e-22
1.29609e-22
2.85015e-22
1.24749e-22
2.5808e-22
1.19941e-22
2.31662e-22
1.15133e-22
2.05865e-22
1.10584e-22
1.80739e-22
1.06189e-22
1.56182e-22
1.02157e-22
1.32142e-22
9.84345e-23
1.08619e-22
9.50741e-23
8.55615e-23
9.21272e-23
6.27623e-23
8.98008e-23
4.017e-23
8.80947e-23
1.79395e-23
8.71125e-23
8.66989e-23
5.05907e-13
-2.76575e-12
9.89068e-13
-2.67832e-12
1.43211e-12
-2.53595e-12
1.82251e-12
-2.33464e-12
2.15479e-12
-2.09695e-12
2.42937e-12
-1.84691e-12
2.65465e-12
-1.60461e-12
2.83829e-12
-1.37479e-12
2.98503e-12
-1.15854e-12
3.10103e-12
-9.60092e-13
3.19021e-12
-7.77332e-13
3.25589e-12
-6.08283e-13
3.30292e-12
-4.55455e-13
3.3253e-12
-3.09554e-13
3.32205e-12
-1.59328e-13
3.31379e-12
-3.79587e-14
3.28331e-12
7.45072e-14
3.24323e-12
1.70427e-13
3.17442e-12
2.79361e-13
3.10884e-12
3.57233e-13
3.02549e-12
4.28491e-13
2.93707e-12
4.86267e-13
2.84065e-12
5.3379e-13
2.74306e-12
5.67556e-13
2.63761e-12
5.99404e-13
2.53469e-12
6.17311e-13
2.43214e-12
6.23167e-13
2.33098e-12
6.23288e-13
2.23233e-12
6.18608e-13
2.13724e-12
6.07155e-13
2.04623e-12
5.91775e-13
1.95938e-12
5.73955e-13
1.87749e-12
5.52312e-13
1.80006e-12
5.28815e-13
1.72705e-12
5.06106e-13
1.65832e-12
4.82838e-13
1.59348e-12
4.60839e-13
1.53236e-12
4.3929e-13
1.47473e-12
4.18437e-13
1.41988e-12
4.00033e-13
1.36788e-12
3.82724e-13
1.31808e-12
3.66905e-13
1.27033e-12
3.52447e-13
1.22385e-12
3.4093e-13
1.17956e-12
3.28785e-13
1.13509e-12
3.20096e-13
1.09372e-12
3.09063e-13
1.05174e-12
3.05359e-13
1.01004e-12
2.9793e-13
9.69666e-13
2.90675e-13
9.29558e-13
2.84985e-13
8.9038e-13
2.79719e-13
8.51498e-13
2.75876e-13
8.13127e-13
2.70789e-13
7.75132e-13
2.67098e-13
7.37755e-13
2.62011e-13
7.01079e-13
2.57707e-13
6.64856e-13
2.53308e-13
6.29308e-13
2.49464e-13
5.94161e-13
2.45002e-13
5.59848e-13
2.4028e-13
5.26157e-13
2.35491e-13
4.93131e-13
2.31043e-13
4.60839e-13
2.26489e-13
4.2908e-13
2.21932e-13
3.97826e-13
2.17892e-13
3.67401e-13
2.13216e-13
3.37496e-13
2.08709e-13
3.0806e-13
2.0434e-13
2.79195e-13
1.99808e-13
2.50956e-13
1.95115e-13
2.2343e-13
1.90188e-13
1.97018e-13
1.84698e-13
1.72421e-13
1.78548e-13
1.51485e-13
1.72237e-13
1.3277e-13
1.64206e-13
7.2957e-14
2.09849e-13
1.32269e-14
4.09274e-13
-1.39545e-19
3.15018e-13
9.66164e-22
-6.35289e-22
9.62166e-22
-1.86116e-24
9.58909e-22
1.99557e-23
9.52188e-22
4.15141e-23
9.41745e-22
6.21936e-23
9.28148e-22
8.16841e-23
9.11501e-22
9.98821e-23
8.92063e-22
1.16477e-22
8.70246e-22
1.3147e-22
8.46309e-22
1.44602e-22
8.20563e-22
1.55924e-22
7.93215e-22
1.65436e-22
7.64677e-22
1.73243e-22
7.3526e-22
1.7955e-22
7.04861e-22
1.84048e-22
6.73945e-22
1.87201e-22
6.42616e-22
1.88856e-22
6.1108e-22
1.89424e-22
5.79543e-22
1.88752e-22
5.48007e-22
1.8715e-22
5.16471e-22
1.84513e-22
4.85245e-22
1.81308e-22
4.54484e-22
1.77379e-22
4.24085e-22
1.72984e-22
3.941e-22
1.68073e-22
3.64683e-22
1.62851e-22
3.35835e-22
1.57319e-22
3.07711e-22
1.51736e-22
2.80207e-22
1.45946e-22
2.53272e-22
1.40207e-22
2.27061e-22
1.34675e-22
2.01522e-22
1.29195e-22
1.76706e-22
1.24025e-22
1.52408e-22
1.19166e-22
1.28833e-22
1.1472e-22
1.05672e-22
1.10687e-22
8.31834e-23
1.0743e-22
6.10563e-23
1.04793e-22
3.9136e-23
1.02829e-22
1.76293e-23
1.01588e-22
1.01071e-22
5.83262e-13
-3.34903e-12
1.14048e-12
-3.23555e-12
1.64091e-12
-3.0364e-12
2.05661e-12
-2.75036e-12
2.40166e-12
-2.44201e-12
2.67216e-12
-2.11743e-12
2.88428e-12
-1.81675e-12
3.05351e-12
-1.54404e-12
3.18367e-12
-1.28872e-12
3.28339e-12
-1.05984e-12
3.35826e-12
-8.52215e-13
3.41401e-12
-6.64058e-13
3.4492e-12
-4.90659e-13
3.45443e-12
-3.14806e-13
3.45032e-12
-1.55235e-13
3.42881e-12
-1.64676e-14
3.39013e-12
1.13177e-13
3.33388e-12
2.26665e-13
3.25817e-12
3.55057e-13
3.18035e-12
4.35041e-13
3.08532e-12
5.2351e-13
2.98575e-12
5.85828e-13
2.87868e-12
6.40847e-13
2.76959e-12
6.7664e-13
2.65451e-12
7.14473e-13
2.54307e-12
7.28738e-13
2.43304e-12
7.33184e-13
2.32491e-12
7.31407e-13
2.22093e-12
7.2258e-13
2.12169e-12
7.06382e-13
2.02713e-12
6.86324e-13
1.93813e-12
6.62945e-13
1.85498e-12
6.35446e-13
1.77692e-12
6.06872e-13
1.70414e-12
5.78874e-13
1.63568e-12
5.51284e-13
1.57186e-12
5.24644e-13
1.51217e-12
4.98972e-13
1.45584e-12
4.74757e-13
1.40257e-12
4.53291e-13
1.35216e-12
4.33125e-13
1.30408e-12
4.14967e-13
1.25761e-12
3.98908e-13
1.21286e-12
3.85672e-13
1.16962e-12
3.7202e-13
1.12711e-12
3.62595e-13
1.08525e-12
3.50914e-13
1.04554e-12
3.45062e-13
1.0042e-12
3.39263e-13
9.64186e-13
3.30688e-13
9.24385e-13
3.24779e-13
8.85562e-13
3.18536e-13
8.46953e-13
3.14481e-13
8.08569e-13
3.09172e-13
7.70835e-13
3.04827e-13
7.33312e-13
2.99532e-13
6.96663e-13
2.94353e-13
6.60285e-13
2.89684e-13
6.24871e-13
2.84874e-13
5.89702e-13
2.80169e-13
5.55327e-13
2.74652e-13
5.21746e-13
2.69073e-13
4.88768e-13
2.64021e-13
4.56381e-13
2.58874e-13
4.24558e-13
2.53755e-13
3.93476e-13
2.48976e-13
3.62966e-13
2.43727e-13
3.32993e-13
2.38683e-13
3.03579e-13
2.33755e-13
2.74512e-13
2.28876e-13
2.45967e-13
2.2366e-13
2.18017e-13
2.18138e-13
1.90785e-13
2.11933e-13
1.65094e-13
2.04237e-13
1.44217e-13
1.93115e-13
1.35416e-13
1.73008e-13
4.88537e-14
2.96411e-13
1.45936e-14
4.43534e-13
7.3215e-19
3.29611e-13
9.794e-22
-8.33816e-22
9.84035e-22
-2.48154e-24
9.80519e-22
2.36263e-23
9.72816e-22
4.91139e-23
9.61287e-22
7.3464e-23
9.46295e-22
9.65216e-23
9.28097e-22
1.17873e-22
9.07107e-22
1.3726e-22
8.83377e-22
1.54424e-22
8.57683e-22
1.6952e-22
8.30076e-22
1.82445e-22
8.01073e-22
1.93198e-22
7.70932e-22
2.02039e-22
7.39758e-22
2.0876e-22
7.07963e-22
2.13671e-22
6.756e-22
2.16928e-22
6.43133e-22
2.18634e-22
6.10408e-22
2.18893e-22
5.77889e-22
2.1791e-22
5.45371e-22
2.15687e-22
5.13162e-22
2.12637e-22
4.81367e-22
2.0876e-22
4.5009e-22
2.04107e-22
4.19174e-22
1.98782e-22
3.88878e-22
1.93147e-22
3.59203e-22
1.8715e-22
3.30148e-22
1.80739e-22
3.01869e-22
1.74122e-22
2.74469e-22
1.67556e-22
2.47689e-22
1.60835e-22
2.21633e-22
1.54424e-22
1.96352e-22
1.48065e-22
1.71795e-22
1.42172e-22
1.47962e-22
1.36485e-22
1.24801e-22
1.31367e-22
1.02415e-22
1.26817e-22
8.05467e-23
1.2294e-22
5.91951e-23
1.19838e-22
3.78435e-23
1.1746e-22
1.71123e-23
1.16064e-22
1.15547e-22
6.93277e-13
-4.04231e-12
1.35298e-12
-3.89527e-12
1.91805e-12
-3.60149e-12
2.3665e-12
-3.19883e-12
2.7152e-12
-2.79072e-12
2.975e-12
-2.37725e-12
3.1633e-12
-2.00506e-12
3.30433e-12
-1.68509e-12
3.40912e-12
-1.39353e-12
3.48895e-12
-1.1397e-12
3.54738e-12
-9.10666e-13
3.59135e-12
-7.08044e-13
3.61073e-12
-5.10061e-13
3.60701e-12
-3.11111e-13
3.59595e-12
-1.44183e-13
3.56105e-12
1.84135e-14
3.51234e-12
1.61863e-13
3.43582e-12
3.03177e-13
3.35907e-12
4.31788e-13
3.26002e-12
5.34084e-13
3.1544e-12
6.29121e-13
3.03999e-12
7.00223e-13
2.9208e-12
7.60031e-13
2.79695e-12
8.00472e-13
2.67203e-12
8.39384e-13
2.54996e-12
8.50799e-13
2.43067e-12
8.5246e-13
2.31494e-12
8.47125e-13
2.20483e-12
8.32679e-13
2.1008e-12
8.10407e-13
2.00253e-12
7.84577e-13
1.91161e-12
7.53861e-13
1.82711e-12
7.19929e-13
1.7488e-12
6.85176e-13
1.6763e-12
6.51365e-13
1.6087e-12
6.18869e-13
1.54631e-12
5.87027e-13
1.48838e-12
5.56883e-13
1.43384e-12
5.29292e-13
1.3826e-12
5.04519e-13
1.33416e-12
4.81551e-13
1.28819e-12
4.60931e-13
1.24353e-12
4.43556e-13
1.20058e-12
4.28608e-13
1.15863e-12
4.13969e-13
1.11813e-12
4.03081e-13
1.07622e-12
3.92817e-13
1.03866e-12
3.82613e-13
9.98246e-13
3.79671e-13
9.58286e-13
3.70642e-13
9.19054e-13
3.64006e-13
8.80264e-13
3.57322e-13
8.42012e-13
3.5273e-13
8.03618e-13
3.47561e-13
7.66004e-13
3.42439e-13
7.28338e-13
3.37193e-13
6.91667e-13
3.31024e-13
6.55114e-13
3.26235e-13
6.19893e-13
3.20092e-13
5.84561e-13
3.155e-13
5.50183e-13
3.09029e-13
5.1656e-13
3.02693e-13
4.83575e-13
2.97005e-13
4.51257e-13
2.91192e-13
4.19475e-13
2.85537e-13
3.88526e-13
2.79924e-13
3.58053e-13
2.742e-13
3.28079e-13
2.68656e-13
2.98504e-13
2.63328e-13
2.6938e-13
2.58e-13
2.40533e-13
2.52506e-13
2.1194e-13
2.46729e-13
1.83586e-13
2.40286e-13
1.55091e-13
2.3273e-13
1.2626e-13
2.21943e-13
9.25794e-14
2.06686e-13
2.89625e-14
3.60028e-13
1.56871e-14
4.56807e-13
1.30454e-18
3.45295e-13
1.00587e-21
-1.01911e-21
1.01014e-21
-2.99853e-24
1.00601e-21
2.76589e-23
9.97166e-22
5.75925e-23
9.84345e-22
8.62336e-23
9.67646e-22
1.13065e-22
9.47484e-22
1.37622e-22
9.24271e-22
1.59801e-22
8.98473e-22
1.79498e-22
8.70556e-22
1.96559e-22
8.40881e-22
2.11086e-22
8.09862e-22
2.2308e-22
7.77705e-22
2.32593e-22
7.44669e-22
2.39779e-22
7.1122e-22
2.45001e-22
6.77306e-22
2.48258e-22
6.43391e-22
2.49705e-22
6.09425e-22
2.49602e-22
5.75769e-22
2.48154e-22
5.42372e-22
2.45414e-22
5.09285e-22
2.4164e-22
4.76766e-22
2.37091e-22
4.44713e-22
2.31507e-22
4.13539e-22
2.2551e-22
3.8283e-22
2.18841e-22
3.52793e-22
2.11862e-22
3.23583e-22
2.04572e-22
2.95355e-22
1.97127e-22
2.67748e-22
1.89631e-22
2.41278e-22
1.82187e-22
2.15325e-22
1.74639e-22
1.90355e-22
1.67504e-22
1.66212e-22
1.60576e-22
1.42792e-22
1.54062e-22
1.20303e-22
1.48324e-22
9.85379e-23
1.43154e-22
7.74448e-23
1.38656e-22
5.67653e-23
1.34986e-22
3.64993e-23
1.32349e-22
1.65436e-23
1.30695e-22
1.30178e-22
8.4319e-13
-4.88552e-12
1.62673e-12
-4.67883e-12
2.28492e-12
-4.25969e-12
2.78171e-12
-3.69564e-12
3.11561e-12
-3.12463e-12
3.34366e-12
-2.60532e-12
3.49737e-12
-2.15879e-12
3.59996e-12
-1.7877e-12
3.66882e-12
-1.46241e-12
3.71804e-12
-1.18894e-12
3.75631e-12
-9.48962e-13
3.7819e-12
-7.3365e-13
3.78989e-12
-5.18078e-13
3.78277e-12
-3.04013e-13
3.7566e-12
-1.18035e-13
3.7151e-12
5.98995e-14
3.64342e-12
2.33525e-13
3.56124e-12
3.85344e-13
3.46694e-12
5.26069e-13
3.35281e-12
6.48199e-13
3.23068e-12
7.51241e-13
3.09973e-12
8.31156e-13
2.96533e-12
8.94422e-13
2.82584e-12
9.39953e-13
2.68797e-12
9.77243e-13
2.55383e-12
9.84928e-13
2.42378e-12
9.82502e-13
2.29967e-12
9.71229e-13
2.18298e-12
9.49354e-13
2.07329e-12
9.20086e-13
1.97141e-12
8.86447e-13
1.87866e-12
8.46598e-13
1.79313e-12
8.05455e-13
1.71489e-12
7.63399e-13
1.64279e-12
7.23455e-13
1.57695e-12
6.84702e-13
1.51642e-12
6.47546e-13
1.46081e-12
6.12481e-13
1.40859e-12
5.81504e-13
1.36002e-12
5.53078e-13
1.31413e-12
5.27434e-13
1.27014e-12
5.04909e-13
1.22799e-12
4.85697e-13
1.18706e-12
4.69532e-13
1.1469e-12
4.54119e-13
1.10799e-12
4.41987e-13
1.06813e-12
4.32669e-13
1.03043e-12
4.20307e-13
9.92056e-13
4.18036e-13
9.52214e-13
4.10479e-13
9.13639e-13
4.02575e-13
8.74567e-13
3.96392e-13
8.36831e-13
3.90462e-13
7.98514e-13
3.85873e-13
7.60756e-13
3.80196e-13
7.22818e-13
3.75128e-13
6.86025e-13
3.67813e-13
6.49541e-13
3.62716e-13
6.14085e-13
3.55546e-13
5.78853e-13
3.50727e-13
5.44218e-13
3.43662e-13
5.10599e-13
3.3631e-13
4.77704e-13
3.29898e-13
4.45615e-13
3.23282e-13
4.13856e-13
3.17291e-13
3.82951e-13
3.10828e-13
3.52584e-13
3.04563e-13
3.22657e-13
2.98582e-13
2.93076e-13
2.9291e-13
2.63864e-13
2.87206e-13
2.34706e-13
2.81664e-13
2.05504e-13
2.7593e-13
1.75559e-13
2.70226e-13
1.43454e-13
2.64832e-13
1.06822e-13
2.58571e-13
5.17888e-14
2.61714e-13
1.57795e-14
3.96034e-13
1.19828e-14
4.60599e-13
1.9128e-18
3.57273e-13
1.04557e-21
-1.09852e-21
1.04075e-21
-3.20533e-24
1.03594e-21
3.25185e-23
1.02581e-21
6.75186e-23
1.01118e-21
1.00606e-22
9.92255e-22
1.3147e-22
9.69611e-22
1.59594e-22
9.43968e-22
1.84875e-22
9.15534e-22
2.07002e-22
8.85083e-22
2.25975e-22
8.52875e-22
2.41847e-22
8.19426e-22
2.54875e-22
7.84839e-22
2.6506e-22
7.49943e-22
2.72763e-22
7.14426e-22
2.77984e-22
6.78805e-22
2.81035e-22
6.4334e-22
2.82275e-22
6.07926e-22
2.81603e-22
5.73029e-22
2.79535e-22
5.38598e-22
2.76175e-22
5.04684e-22
2.71625e-22
4.71235e-22
2.66094e-22
4.38716e-22
2.59838e-22
4.06921e-22
2.52807e-22
3.75902e-22
2.45311e-22
3.45555e-22
2.37349e-22
3.16138e-22
2.29232e-22
2.87807e-22
2.20857e-22
2.60303e-22
2.12482e-22
2.3373e-22
2.03952e-22
2.08088e-22
1.95577e-22
1.83427e-22
1.87408e-22
1.59749e-22
1.79705e-22
1.37002e-22
1.72467e-22
1.15185e-22
1.65798e-22
9.40401e-23
1.59749e-22
7.37225e-23
1.54631e-22
5.41286e-23
1.50495e-22
3.4845e-23
1.47342e-22
1.60266e-23
1.45532e-22
1.44912e-22
1.06591e-12
-5.95143e-12
2.05557e-12
-5.6685e-12
2.82885e-12
-5.03297e-12
3.3359e-12
-4.2027e-12
3.62091e-12
-3.40965e-12
3.77595e-12
-2.76037e-12
3.86686e-12
-2.24971e-12
3.92158e-12
-1.84244e-12
3.96005e-12
-1.5009e-12
3.97581e-12
-1.20472e-12
3.98279e-12
-9.55957e-13
3.98526e-12
-7.36142e-13
3.98974e-12
-5.22588e-13
3.97555e-12
-2.89839e-13
3.93893e-12
-8.14345e-14
3.88082e-12
1.17985e-13
3.79871e-12
3.15615e-13
3.70411e-12
4.79919e-13
3.58656e-12
6.43608e-13
3.45703e-12
7.77717e-13
3.31454e-12
8.93711e-13
3.16429e-12
9.81397e-13
3.01223e-12
1.04647e-12
2.85376e-12
1.09842e-12
2.70079e-12
1.1302e-12
2.55306e-12
1.13265e-12
2.41104e-12
1.12452e-12
2.27736e-12
1.1049e-12
2.15346e-12
1.07325e-12