/*--------------------------------*- C++ -*----------------------------------*\
  =========                 |
  \\      /  F ield         | OpenFOAM: The Open Source CFD Toolbox
   \\    /   O peration     | Website:  https://openfoam.org
    \\  /    A nd           | Version:  6
     \\/     M anipulation  |
\*---------------------------------------------------------------------------*/
FoamFile
{
    version     2.0;
    format      ascii;
    class       volVectorField;
    location    "9200";
    object      U;
}
// * * * * * * * * * * * * * * * * * * * * * * * * * * * * * * * * * * * * * //

dimensions      [0 1 -1 0 0 0 0];

internalField   nonuniform List<vector> 
4800
(
(6.86933e-08 0 -6.46491e-08)
(1.99244e-07 0 -6.57587e-08)
(3.26833e-07 0 -6.51799e-08)
(4.50744e-07 0 -6.20991e-08)
(5.66375e-07 0 -5.78269e-08)
(6.7261e-07 0 -5.29161e-08)
(7.68829e-07 0 -4.75725e-08)
(8.54528e-07 0 -4.20201e-08)
(9.2954e-07 0 -3.6447e-08)
(9.94001e-07 0 -3.0994e-08)
(1.04823e-06 0 -2.5729e-08)
(1.09269e-06 0 -2.07161e-08)
(1.12789e-06 0 -1.60557e-08)
(1.15446e-06 0 -1.16932e-08)
(1.17299e-06 0 -7.6789e-09)
(1.18417e-06 0 -4.00338e-09)
(1.18825e-06 0 -1.08735e-10)
(1.18545e-06 0 2.67242e-09)
(1.1776e-06 0 5.21121e-09)
(1.16485e-06 0 7.48609e-09)
(1.14767e-06 0 1.01112e-08)
(1.12621e-06 0 1.1514e-08)
(1.10153e-06 0 1.28921e-08)
(1.07464e-06 0 1.41048e-08)
(1.04565e-06 0 1.49423e-08)
(1.01492e-06 0 1.56968e-08)
(9.82952e-07 0 1.61428e-08)
(9.50392e-07 0 1.62649e-08)
(9.17647e-07 0 1.631e-08)
(8.84905e-07 0 1.62294e-08)
(8.52448e-07 0 1.59881e-08)
(8.20561e-07 0 1.56409e-08)
(7.89429e-07 0 1.52231e-08)
(7.59185e-07 0 1.47318e-08)
(7.29958e-07 0 1.41778e-08)
(7.01805e-07 0 1.3643e-08)
(6.74737e-07 0 1.31002e-08)
(6.48745e-07 0 1.25856e-08)
(6.23806e-07 0 1.20494e-08)
(5.999e-07 0 1.15424e-08)
(5.76968e-07 0 1.10602e-08)
(5.5494e-07 0 1.05964e-08)
(5.33753e-07 0 1.01981e-08)
(5.13351e-07 0 9.79295e-09)
(4.93671e-07 0 9.47696e-09)
(4.74648e-07 0 9.1407e-09)
(4.56155e-07 0 8.91343e-09)
(4.38124e-07 0 8.61588e-09)
(4.20577e-07 0 8.38299e-09)
(4.03487e-07 0 8.15981e-09)
(3.86795e-07 0 7.94393e-09)
(3.70467e-07 0 7.77428e-09)
(3.54446e-07 0 7.59713e-09)
(3.38714e-07 0 7.41419e-09)
(3.23277e-07 0 7.25873e-09)
(3.08113e-07 0 7.08204e-09)
(2.9323e-07 0 6.92413e-09)
(2.78625e-07 0 6.74667e-09)
(2.64274e-07 0 6.60666e-09)
(2.50156e-07 0 6.44217e-09)
(2.3628e-07 0 6.26335e-09)
(2.22685e-07 0 6.08861e-09)
(2.09362e-07 0 5.92629e-09)
(1.96293e-07 0 5.75394e-09)
(1.83476e-07 0 5.5813e-09)
(1.70926e-07 0 5.3954e-09)
(1.58651e-07 0 5.21438e-09)
(1.46646e-07 0 5.02624e-09)
(1.34892e-07 0 4.85775e-09)
(1.23423e-07 0 4.65244e-09)
(1.12304e-07 0 4.44353e-09)
(1.01572e-07 0 4.23068e-09)
(9.13542e-08 0 3.96787e-09)
(8.19811e-08 0 3.58621e-09)
(7.44007e-08 0 3.04103e-09)
(7.0898e-08 0 1.6976e-09)
(7.41769e-08 0 -1.2315e-08)
(6.61587e-08 0 2.23067e-09)
(-3.97347e-12 0 2.37873e-08)
(3.7159e-16 0 -7.97715e-18)
(1.81389e-16 0 -1.03398e-20)
(3.59917e-16 0 4.85969e-19)
(3.58438e-16 0 1.03398e-18)
(3.55946e-16 0 1.55096e-18)
(3.52389e-16 0 2.07829e-18)
(3.47819e-16 0 2.56426e-18)
(3.42308e-16 0 3.03989e-18)
(3.35897e-16 0 3.45348e-18)
(3.2866e-16 0 3.83605e-18)
(3.20677e-16 0 4.16692e-18)
(3.12013e-16 0 4.45644e-18)
(3.02748e-16 0 4.72527e-18)
(2.93008e-16 0 4.93206e-18)
(2.82813e-16 0 5.0975e-18)
(2.72194e-16 0 5.23192e-18)
(2.61296e-16 0 5.34566e-18)
(2.5016e-16 0 5.40769e-18)
(2.38817e-16 0 5.43871e-18)
(2.27299e-16 0 5.42837e-18)
(2.15698e-16 0 5.40769e-18)
(2.04065e-16 0 5.35599e-18)
(1.92444e-16 0 5.3043e-18)
(1.80863e-16 0 5.24226e-18)
(1.69334e-16 0 5.12852e-18)
(1.57867e-16 0 5.01478e-18)
(1.46504e-16 0 4.90105e-18)
(1.35306e-16 0 4.78731e-18)
(1.24232e-16 0 4.64255e-18)
(1.13282e-16 0 4.50813e-18)
(1.02519e-16 0 4.35304e-18)
(9.19205e-17 0 4.22896e-18)
(8.14876e-17 0 4.09454e-18)
(7.12306e-17 0 3.98081e-18)
(6.11183e-17 0 3.87741e-18)
(5.11818e-17 0 3.77401e-18)
(4.14107e-17 0 3.68095e-18)
(3.17637e-17 0 3.59824e-18)
(2.22408e-17 0 3.49484e-18)
(1.29661e-17 0 3.35008e-18)
(4.20828e-18 0 2.97785e-18)
(6.5113e-08 0 -2.0221e-07)
(2.07293e-07 0 -1.95047e-07)
(3.3261e-07 0 -1.88303e-07)
(4.58334e-07 0 -1.77485e-07)
(5.75374e-07 0 -1.6427e-07)
(6.82415e-07 0 -1.49616e-07)
(7.79065e-07 0 -1.34055e-07)
(8.64888e-07 0 -1.18122e-07)
(9.39769e-07 0 -1.02285e-07)
(1.0039e-06 0 -8.68557e-08)
(1.05768e-06 0 -7.20741e-08)
(1.10162e-06 0 -5.80344e-08)
(1.13629e-06 0 -4.49677e-08)
(1.16231e-06 0 -3.2602e-08)
(1.18027e-06 0 -2.1213e-08)
(1.19091e-06 0 -1.05891e-08)
(1.19428e-06 0 8.52117e-10)
(1.19089e-06 0 8.70082e-09)
(1.18257e-06 0 1.61888e-08)
(1.16928e-06 0 2.29385e-08)
(1.15141e-06 0 3.07131e-08)
(1.12938e-06 0 3.49493e-08)
(1.10422e-06 0 3.90494e-08)
(1.07678e-06 0 4.27499e-08)
(1.04725e-06 0 4.52598e-08)
(1.01604e-06 0 4.76057e-08)
(9.83652e-07 0 4.89884e-08)
(9.50711e-07 0 4.94057e-08)
(9.17629e-07 0 4.95994e-08)
(8.84592e-07 0 4.93943e-08)
(8.51903e-07 0 4.86967e-08)
(8.19839e-07 0 4.76667e-08)
(7.88561e-07 0 4.64319e-08)
(7.58214e-07 0 4.49293e-08)
(7.28922e-07 0 4.33155e-08)
(7.0073e-07 0 4.17129e-08)
(6.73652e-07 0 4.00372e-08)
(6.47687e-07 0 3.84462e-08)
(6.22796e-07 0 3.68638e-08)
(5.98936e-07 0 3.53427e-08)
(5.76054e-07 0 3.39863e-08)
(5.54087e-07 0 3.26487e-08)
(5.32981e-07 0 3.14305e-08)
(5.12666e-07 0 3.02684e-08)
(4.93031e-07 0 2.93449e-08)
(4.7406e-07 0 2.84112e-08)
(4.55647e-07 0 2.77748e-08)
(4.37692e-07 0 2.69455e-08)
(4.20191e-07 0 2.62489e-08)
(4.03149e-07 0 2.56364e-08)
(3.86501e-07 0 2.50432e-08)
(3.70198e-07 0 2.46218e-08)
(3.54197e-07 0 2.42062e-08)
(3.38485e-07 0 2.37343e-08)
(3.23056e-07 0 2.33694e-08)
(3.07904e-07 0 2.29295e-08)
(2.93017e-07 0 2.25694e-08)
(2.78405e-07 0 2.21748e-08)
(2.64047e-07 0 2.19091e-08)
(2.49933e-07 0 2.15424e-08)
(2.36065e-07 0 2.11561e-08)
(2.22479e-07 0 2.07594e-08)
(2.09172e-07 0 2.04085e-08)
(1.96111e-07 0 2.00588e-08)
(1.83293e-07 0 1.97117e-08)
(1.70751e-07 0 1.93203e-08)
(1.58464e-07 0 1.89957e-08)
(1.46423e-07 0 1.86484e-08)
(1.34657e-07 0 1.82992e-08)
(1.23191e-07 0 1.78519e-08)
(1.12009e-07 0 1.74112e-08)
(1.01138e-07 0 1.68882e-08)
(9.06071e-08 0 1.62076e-08)
(8.04068e-08 0 1.52421e-08)
(7.02496e-08 0 1.30964e-08)
(6.0706e-08 0 7.77326e-09)
(3.73864e-08 0 -7.78171e-09)
(2.5615e-08 0 5.22208e-08)
(-3.3311e-12 0 5.40987e-08)
(3.79007e-16 0 -3.70288e-17)
(1.81896e-16 0 -1.03398e-19)
(3.60961e-16 0 1.5096e-18)
(3.59503e-16 0 3.16397e-18)
(3.56991e-16 0 4.74595e-18)
(3.53403e-16 0 6.31759e-18)
(3.48781e-16 0 7.7755e-18)
(3.43208e-16 0 9.15069e-18)
(3.36694e-16 0 1.03811e-17)
(3.29383e-16 0 1.15082e-17)
(3.21318e-16 0 1.24801e-17)
(3.12571e-16 0 1.33383e-17)
(3.03234e-16 0 1.40828e-17)
(2.9338e-16 0 1.46825e-17)
(2.83113e-16 0 1.51581e-17)
(2.72453e-16 0 1.552e-17)
(2.61472e-16 0 1.57785e-17)
(2.50253e-16 0 1.59232e-17)
(2.38848e-16 0 1.59749e-17)
(2.27278e-16 0 1.59232e-17)
(2.15625e-16 0 1.58095e-17)
(2.03962e-16 0 1.56234e-17)
(1.9233e-16 0 1.54062e-17)
(1.80698e-16 0 1.51064e-17)
(1.69117e-16 0 1.47859e-17)
(1.5765e-16 0 1.43826e-17)
(1.46287e-16 0 1.4e-17)
(1.35037e-16 0 1.35864e-17)
(1.23932e-16 0 1.31418e-17)
(1.12993e-16 0 1.26869e-17)
(1.0225e-16 0 1.22216e-17)
(9.1662e-17 0 1.1808e-17)
(8.12395e-17 0 1.13944e-17)
(7.10031e-17 0 1.09912e-17)
(6.09012e-17 0 1.06396e-17)
(5.09853e-17 0 1.03501e-17)
(4.1235e-17 0 1.00502e-17)
(3.15776e-17 0 9.80209e-18)
(2.19927e-17 0 9.55394e-18)
(1.24594e-17 0 9.29544e-18)
(3.84639e-18 0 8.85083e-18)
(6.54784e-08 0 -3.41198e-07)
(2.15784e-07 0 -3.33745e-07)
(3.44287e-07 0 -3.22095e-07)
(4.74208e-07 0 -3.03926e-07)
(5.94339e-07 0 -2.81236e-07)
(7.03261e-07 0 -2.55786e-07)
(8.00904e-07 0 -2.28767e-07)
(8.86986e-07 0 -2.01179e-07)
(9.6154e-07 0 -1.73843e-07)
(1.02495e-06 0 -1.47325e-07)
(1.07776e-06 0 -1.21938e-07)
(1.12057e-06 0 -9.7965e-08)
(1.15405e-06 0 -7.56766e-08)
(1.17882e-06 0 -5.45616e-08)
(1.19556e-06 0 -3.55687e-08)
(1.20493e-06 0 -1.69889e-08)
(1.20674e-06 0 2.0541e-09)
(1.20218e-06 0 1.4736e-08)
(1.19276e-06 0 2.76455e-08)
(1.17828e-06 0 3.95198e-08)
(1.15895e-06 0 5.16397e-08)
(1.13572e-06 0 5.90317e-08)
(1.10958e-06 0 6.5846e-08)
(1.08104e-06 0 7.1977e-08)
(1.05041e-06 0 7.58723e-08)
(1.0182e-06 0 7.99002e-08)
(9.84943e-07 0 8.18735e-08)
(9.51226e-07 0 8.24862e-08)
(9.17452e-07 0 8.27131e-08)
(8.83828e-07 0 8.22113e-08)
(8.5068e-07 0 8.0949e-08)
(8.18257e-07 0 7.91234e-08)
(7.86683e-07 0 7.70073e-08)
(7.56145e-07 0 7.44068e-08)
(7.26773e-07 0 7.16718e-08)
(6.98556e-07 0 6.89048e-08)
(6.71467e-07 0 6.61036e-08)
(6.4552e-07 0 6.34421e-08)
(6.20703e-07 0 6.07689e-08)
(5.96981e-07 0 5.81513e-08)
(5.74252e-07 0 5.58932e-08)
(5.52433e-07 0 5.36201e-08)
(5.31447e-07 0 5.16313e-08)
(5.11249e-07 0 4.98001e-08)
(4.91748e-07 0 4.81526e-08)
(4.72925e-07 0 4.65439e-08)
(4.54638e-07 0 4.5504e-08)
(4.36791e-07 0 4.42058e-08)
(4.19354e-07 0 4.30357e-08)
(4.0236e-07 0 4.20508e-08)
(3.85771e-07 0 4.10487e-08)
(3.69528e-07 0 4.03128e-08)
(3.53575e-07 0 3.95988e-08)
(3.37879e-07 0 3.87893e-08)
(3.22448e-07 0 3.81668e-08)
(3.07306e-07 0 3.74269e-08)
(2.92433e-07 0 3.67768e-08)
(2.77854e-07 0 3.60551e-08)
(2.63506e-07 0 3.55258e-08)
(2.49396e-07 0 3.48641e-08)
(2.35528e-07 0 3.41669e-08)
(2.21933e-07 0 3.34659e-08)
(2.08592e-07 0 3.28414e-08)
(1.95514e-07 0 3.22112e-08)
(1.82702e-07 0 3.15556e-08)
(1.7015e-07 0 3.08659e-08)
(1.57849e-07 0 3.02314e-08)
(1.4581e-07 0 2.95489e-08)
(1.34027e-07 0 2.88558e-08)
(1.22516e-07 0 2.80989e-08)
(1.11267e-07 0 2.7333e-08)
(1.00262e-07 0 2.64722e-08)
(8.94079e-08 0 2.55104e-08)
(7.85931e-08 0 2.41654e-08)
(6.71985e-08 0 2.22663e-08)
(5.54141e-08 0 1.98429e-08)
(3.26966e-08 0 1.6758e-08)
(2.01325e-08 0 6.16675e-08)
(-3.32671e-12 0 7.05495e-08)
(3.81503e-16 0 -8.19959e-17)
(1.83013e-16 0 -2.58494e-19)
(3.63174e-16 0 2.58494e-18)
(3.61685e-16 0 5.37667e-18)
(3.5911e-16 0 8.06501e-18)
(3.55419e-16 0 1.06603e-17)
(3.50663e-16 0 1.31212e-17)
(3.44914e-16 0 1.53545e-17)
(3.38234e-16 0 1.74018e-17)
(3.30748e-16 0 1.9263e-17)
(3.22528e-16 0 2.0876e-17)
(3.13615e-16 0 2.22718e-17)
(3.04092e-16 0 2.34713e-17)
(2.94083e-16 0 2.44432e-17)
(2.8364e-16 0 2.51877e-17)
(2.72825e-16 0 2.57667e-17)
(2.61699e-16 0 2.61182e-17)
(2.50346e-16 0 2.63147e-17)
(2.38828e-16 0 2.6325e-17)
(2.27154e-16 0 2.62009e-17)
(2.15408e-16 0 2.59735e-17)
(2.03662e-16 0 2.56116e-17)
(1.91916e-16 0 2.51566e-17)
(1.80232e-16 0 2.4619e-17)
(1.6861e-16 0 2.40089e-17)
(1.57082e-16 0 2.33162e-17)
(1.45708e-16 0 2.26027e-17)
(1.34448e-16 0 2.18272e-17)
(1.23333e-16 0 2.10311e-17)
(1.12383e-16 0 2.02556e-17)
(1.01661e-16 0 1.94801e-17)
(9.10933e-17 0 1.87356e-17)
(8.06708e-17 0 1.80222e-17)
(7.04655e-17 0 1.73398e-17)
(6.04566e-17 0 1.67297e-17)
(5.05821e-17 0 1.62024e-17)
(4.08524e-17 0 1.57268e-17)
(3.12674e-17 0 1.53132e-17)
(2.17445e-17 0 1.49926e-17)
(1.22733e-17 0 1.47652e-17)
(3.77401e-18 0 1.46308e-17)
(6.84311e-08 0 -4.86507e-07)
(2.29196e-07 0 -4.75216e-07)
(3.63381e-07 0 -4.57152e-07)
(4.99196e-07 0 -4.30053e-07)
(6.23706e-07 0 -3.96526e-07)
(7.35223e-07 0 -3.59249e-07)
(8.34047e-07 0 -3.20057e-07)
(9.20209e-07 0 -2.80406e-07)
(9.94043e-07 0 -2.41428e-07)
(1.05619e-06 0 -2.03879e-07)
(1.10742e-06 0 -1.68157e-07)
(1.14851e-06 0 -1.34616e-07)
(1.18018e-06 0 -1.03323e-07)
(1.20313e-06 0 -7.3912e-08)
(1.21811e-06 0 -4.76099e-08)
(1.22551e-06 0 -2.07217e-08)
(1.22516e-06 0 5.01159e-09)
(1.21909e-06 0 2.25125e-08)
(1.2078e-06 0 4.06236e-08)
(1.19164e-06 0 5.84602e-08)
(1.17023e-06 0 7.40054e-08)
(1.14513e-06 0 8.48919e-08)
(1.11753e-06 0 9.42888e-08)
(1.08736e-06 0 1.02833e-07)
(1.05508e-06 0 1.07926e-07)
(1.02132e-06 0 1.13812e-07)
(9.868e-07 0 1.1613e-07)
(9.51914e-07 0 1.1689e-07)
(9.17085e-07 0 1.17083e-07)
(8.82593e-07 0 1.16169e-07)
(8.48767e-07 0 1.14183e-07)
(8.15806e-07 0 1.1153e-07)
(7.83803e-07 0 1.08365e-07)
(7.52992e-07 0 1.04512e-07)
(7.23464e-07 0 1.00596e-07)
(6.95172e-07 0 9.66736e-08)
(6.68112e-07 0 9.26605e-08)
(6.42255e-07 0 8.88339e-08)
(6.17578e-07 0 8.50291e-08)
(5.9402e-07 0 8.13841e-08)
(5.71459e-07 0 7.81986e-08)
(5.49852e-07 0 7.50543e-08)
(5.29121e-07 0 7.21574e-08)
(5.09163e-07 0 6.9592e-08)
(4.89847e-07 0 6.73163e-08)
(4.71194e-07 0 6.51116e-08)
(4.53111e-07 0 6.36738e-08)
(4.35479e-07 0 6.18804e-08)
(4.18152e-07 0 6.02279e-08)
(4.01233e-07 0 5.88869e-08)
(3.84751e-07 0 5.74451e-08)
(3.68565e-07 0 5.64749e-08)
(3.52658e-07 0 5.55566e-08)
(3.37015e-07 0 5.4417e-08)
(3.21611e-07 0 5.35659e-08)
(3.06519e-07 0 5.24921e-08)
(2.91654e-07 0 5.15942e-08)
(2.77057e-07 0 5.06401e-08)
(2.62687e-07 0 4.99236e-08)
(2.48597e-07 0 4.89958e-08)
(2.34742e-07 0 4.80262e-08)
(2.21135e-07 0 4.70885e-08)
(2.07795e-07 0 4.61774e-08)
(1.94729e-07 0 4.52537e-08)
(1.81924e-07 0 4.43303e-08)
(1.69367e-07 0 4.34106e-08)
(1.57041e-07 0 4.25282e-08)
(1.4497e-07 0 4.16243e-08)
(1.33173e-07 0 4.06698e-08)
(1.2164e-07 0 3.96402e-08)
(1.10324e-07 0 3.86387e-08)
(9.92235e-08 0 3.75399e-08)
(8.82809e-08 0 3.63946e-08)
(7.7354e-08 0 3.51276e-08)
(6.60441e-08 0 3.3831e-08)
(5.54019e-08 0 3.26888e-08)
(3.91463e-08 0 3.42575e-08)
(2.08665e-08 0 7.39104e-08)
(-3.1826e-12 0 8.4261e-08)
(3.84185e-16 0 -1.16441e-16)
(1.84746e-16 0 -3.61892e-19)
(3.66596e-16 0 3.67061e-18)
(3.65004e-16 0 7.64108e-18)
(3.62274e-16 0 1.14565e-17)
(3.58438e-16 0 1.51167e-17)
(3.53485e-16 0 1.85702e-17)
(3.47488e-16 0 2.17342e-17)
(3.40592e-16 0 2.4619e-17)
(3.32847e-16 0 2.72039e-17)
(3.24327e-16 0 2.9489e-17)
(3.15156e-16 0 3.14535e-17)
(3.05385e-16 0 3.30976e-17)
(2.95097e-16 0 3.44314e-17)
(2.84426e-16 0 3.54447e-17)
(2.73394e-16 0 3.61995e-17)
(2.6203e-16 0 3.66855e-17)
(2.5045e-16 0 3.69129e-17)
(2.38735e-16 0 3.69026e-17)
(2.26927e-16 0 3.67061e-17)
(2.15046e-16 0 3.63649e-17)
(2.03156e-16 0 3.58273e-17)
(1.91317e-16 0 3.51448e-17)
(1.7954e-16 0 3.43797e-17)
(1.67814e-16 0 3.34491e-17)
(1.56223e-16 0 3.24772e-17)
(1.44798e-16 0 3.14329e-17)
(1.33486e-16 0 3.03265e-17)
(1.22371e-16 0 2.91995e-17)
(1.11473e-16 0 2.81138e-17)
(1.0074e-16 0 2.70281e-17)
(9.01937e-17 0 2.59528e-17)
(7.9854e-17 0 2.49292e-17)
(6.9721e-17 0 2.39986e-17)
(5.97638e-17 0 2.31404e-17)
(4.99824e-17 0 2.23752e-17)
(4.03457e-17 0 2.17135e-17)
(3.08435e-17 0 2.11758e-17)
(2.1455e-17 0 2.07726e-17)
(1.20975e-17 0 2.04934e-17)
(3.71197e-18 0 2.03693e-17)
(7.31602e-08 0 -6.4228e-07)
(2.47895e-07 0 -6.26224e-07)
(3.90763e-07 0 -6.00535e-07)
(5.34754e-07 0 -5.62673e-07)
(6.65122e-07 0 -5.1618e-07)
(7.79815e-07 0 -4.65172e-07)
(8.79789e-07 0 -4.1231e-07)
(9.6564e-07 0 -3.59465e-07)
(1.03811e-06 0 -3.08088e-07)
(1.09825e-06 0 -2.59044e-07)
(1.14718e-06 0 -2.12694e-07)
(1.18577e-06 0 -1.69626e-07)
(1.21502e-06 0 -1.28933e-07)
(1.23551e-06 0 -9.15657e-08)
(1.24797e-06 0 -5.79986e-08)
(1.25272e-06 0 -2.01594e-08)
(1.24987e-06 0 8.41614e-09)
(1.2418e-06 0 3.29371e-08)
(1.22803e-06 0 5.45785e-08)
(1.20928e-06 0 8.12397e-08)
(1.18533e-06 0 9.71295e-08)
(1.15779e-06 0 1.12607e-07)
(1.128e-06 0 1.24675e-07)
(1.09552e-06 0 1.35454e-07)
(1.0611e-06 0 1.41873e-07)
(1.02526e-06 0 1.49215e-07)
(9.8902e-07 0 1.5168e-07)
(9.52579e-07 0 1.52589e-07)
(9.16363e-07 0 1.52453e-07)
(8.80709e-07 0 1.50903e-07)
(8.45979e-07 0 1.48018e-07)
(8.12304e-07 0 1.4443e-07)
(7.79781e-07 0 1.40018e-07)
(7.48634e-07 0 1.34766e-07)
(7.18886e-07 0 1.29654e-07)
(6.90547e-07 0 1.24327e-07)
(6.63537e-07 0 1.19068e-07)
(6.37809e-07 0 1.14031e-07)
(6.13353e-07 0 1.08999e-07)
(5.90064e-07 0 1.04309e-07)
(5.67785e-07 0 1.00097e-07)
(5.46479e-07 0 9.60153e-08)
(5.26044e-07 0 9.23534e-08)
(5.06365e-07 0 8.91468e-08)
(4.87318e-07 0 8.62764e-08)
(4.68948e-07 0 8.32147e-08)
(4.51093e-07 0 8.14953e-08)
(4.33751e-07 0 7.9404e-08)
(4.16614e-07 0 7.72351e-08)
(3.99754e-07 0 7.55511e-08)
(3.83389e-07 0 7.37676e-08)
(3.67321e-07 0 7.25018e-08)
(3.51502e-07 0 7.13495e-08)
(3.35945e-07 0 6.99083e-08)
(3.20564e-07 0 6.88403e-08)
(3.05486e-07 0 6.75115e-08)
(2.90621e-07 0 6.64e-08)
(2.76041e-07 0 6.51745e-08)
(2.61662e-07 0 6.42088e-08)
(2.47574e-07 0 6.30234e-08)
(2.33723e-07 0 6.18077e-08)
(2.20119e-07 0 6.06016e-08)
(2.06779e-07 0 5.94463e-08)
(1.93691e-07 0 5.83062e-08)
(1.80868e-07 0 5.71179e-08)
(1.68291e-07 0 5.59982e-08)
(1.55959e-07 0 5.48461e-08)
(1.43872e-07 0 5.36678e-08)
(1.32061e-07 0 5.24486e-08)
(1.2049e-07 0 5.12013e-08)
(1.09136e-07 0 4.99607e-08)
(9.80324e-08 0 4.8643e-08)
(8.71515e-08 0 4.73423e-08)
(7.64964e-08 0 4.60987e-08)
(6.58513e-08 0 4.52706e-08)
(5.63693e-08 0 4.50584e-08)
(4.27108e-08 0 4.80644e-08)
(2.1801e-08 0 9.46917e-08)
(-3.07466e-12 0 1.00458e-07)
(3.94674e-16 0 -1.50958e-16)
(1.87064e-16 0 -4.65289e-19)
(3.71166e-16 0 4.80799e-18)
(3.69491e-16 0 9.98821e-18)
(3.66586e-16 0 1.5003e-17)
(3.62512e-16 0 1.978e-17)
(3.5729e-16 0 2.42364e-17)
(3.50973e-16 0 2.83826e-17)
(3.43714e-16 0 3.21256e-17)
(3.35639e-16 0 3.5455e-17)
(3.26778e-16 0 3.83915e-17)
(3.17213e-16 0 4.09144e-17)
(3.0708e-16 0 4.29824e-17)
(2.96451e-16 0 4.46367e-17)
(2.85429e-16 0 4.59499e-17)
(2.74066e-16 0 4.68494e-17)
(2.62402e-16 0 4.74285e-17)
(2.50563e-16 0 4.7687e-17)
(2.38621e-16 0 4.76456e-17)
(2.26585e-16 0 4.73664e-17)
(2.14519e-16 0 4.68701e-17)
(2.02452e-16 0 4.61463e-17)
(1.90448e-16 0 4.52261e-17)
(1.78537e-16 0 4.41611e-17)
(1.66729e-16 0 4.29617e-17)
(1.55065e-16 0 4.16692e-17)
(1.43557e-16 0 4.03044e-17)
(1.32235e-16 0 3.88878e-17)
(1.2111e-16 0 3.74609e-17)
(1.10201e-16 0 3.60341e-17)
(9.94995e-17 0 3.46175e-17)
(8.8984e-17 0 3.32216e-17)
(7.87166e-17 0 3.19292e-17)
(6.86767e-17 0 3.06987e-17)
(5.88332e-17 0 2.9582e-17)
(4.91759e-17 0 2.86101e-17)
(3.96737e-17 0 2.77519e-17)
(3.03265e-17 0 2.70902e-17)
(2.10517e-17 0 2.65732e-17)
(1.18597e-17 0 2.62216e-17)
(3.64993e-18 0 2.61079e-17)
(7.98577e-08 0 -8.12536e-07)
(2.73731e-07 0 -7.90185e-07)
(4.2868e-07 0 -7.54839e-07)
(5.83371e-07 0 -7.03332e-07)
(7.2104e-07 0 -6.40745e-07)
(8.39197e-07 0 -5.73207e-07)
(9.39803e-07 0 -5.04666e-07)
(1.02448e-06 0 -4.37224e-07)
(1.09455e-06 0 -3.72522e-07)
(1.1516e-06 0 -3.1158e-07)
(1.19721e-06 0 -2.54553e-07)
(1.23251e-06 0 -2.01737e-07)
(1.25864e-06 0 -1.5171e-07)
(1.2761e-06 0 -1.06897e-07)
(1.28504e-06 0 -6.5429e-08)
(1.28631e-06 0 -1.73677e-08)
(1.28105e-06 0 1.42349e-08)
(1.27031e-06 0 4.6023e-08)
(1.25358e-06 0 7.30943e-08)
(1.23106e-06 0 1.05159e-07)
(1.20407e-06 0 1.23929e-07)
(1.17375e-06 0 1.43244e-07)
(1.14094e-06 0 1.57714e-07)
(1.10542e-06 0 1.70304e-07)
(1.06829e-06 0 1.78586e-07)
(1.02988e-06 0 1.86721e-07)
(9.91391e-07 0 1.89182e-07)
(9.53013e-07 0 1.89923e-07)
(9.15077e-07 0 1.89282e-07)
(8.77992e-07 0 1.86675e-07)
(8.42099e-07 0 1.82804e-07)
(8.07558e-07 0 1.77965e-07)
(7.74423e-07 0 1.72114e-07)
(7.42902e-07 0 1.65274e-07)
(7.12945e-07 0 1.58746e-07)
(6.84593e-07 0 1.51903e-07)
(6.57668e-07 0 1.45369e-07)
(6.32151e-07 0 1.38926e-07)
(6.0798e-07 0 1.32645e-07)
(5.85041e-07 0 1.26907e-07)
(5.63147e-07 0 1.2166e-07)
(5.42217e-07 0 1.16681e-07)
(5.22202e-07 0 1.12171e-07)
(5.02925e-07 0 1.08283e-07)
(4.8427e-07 0 1.04749e-07)
(4.66209e-07 0 1.01197e-07)
(4.48637e-07 0 9.87222e-08)
(4.31549e-07 0 9.67989e-08)
(4.14725e-07 0 9.41263e-08)
(3.9796e-07 0 9.20592e-08)
(3.81713e-07 0 8.99655e-08)
(3.65771e-07 0 8.84091e-08)
(3.50034e-07 0 8.7061e-08)
(3.34574e-07 0 8.53673e-08)
(3.19232e-07 0 8.41185e-08)
(3.04197e-07 0 8.2456e-08)
(2.89342e-07 0 8.11247e-08)
(2.7479e-07 0 7.96554e-08)
(2.60392e-07 0 7.84999e-08)
(2.46302e-07 0 7.69978e-08)
(2.32422e-07 0 7.55863e-08)
(2.18835e-07 0 7.40489e-08)
(2.05489e-07 0 7.26675e-08)
(1.92433e-07 0 7.12371e-08)
(1.79621e-07 0 6.97801e-08)
(1.67025e-07 0 6.84348e-08)
(1.5467e-07 0 6.70614e-08)
(1.42578e-07 0 6.56053e-08)
(1.30737e-07 0 6.41501e-08)
(1.19118e-07 0 6.26845e-08)
(1.07748e-07 0 6.11841e-08)
(9.66493e-08 0 5.96251e-08)
(8.58768e-08 0 5.80415e-08)
(7.55678e-08 0 5.65081e-08)
(6.53741e-08 0 5.5577e-08)
(5.72324e-08 0 5.44416e-08)
(4.69671e-08 0 5.75729e-08)
(2.33779e-08 0 1.18573e-07)
(-2.82637e-12 0 1.15517e-07)
(3.97315e-16 0 -1.85536e-16)
(1.9004e-16 0 -5.58347e-19)
(3.77039e-16 0 6.02808e-18)
(3.75199e-16 0 1.24801e-17)
(3.72056e-16 0 1.87563e-17)
(3.67671e-16 0 2.47017e-17)
(3.62088e-16 0 3.02335e-17)
(3.55378e-16 0 3.53516e-17)
(3.47664e-16 0 3.99735e-17)
(3.39113e-16 0 4.40887e-17)
(3.29797e-16 0 4.76663e-17)
(3.19747e-16 0 5.06855e-17)
(3.09128e-16 0 5.31981e-17)
(2.98075e-16 0 5.51833e-17)
(2.86639e-16 0 5.67446e-17)
(2.74862e-16 0 5.77993e-17)
(2.62857e-16 0 5.843e-17)
(2.50687e-16 0 5.86988e-17)
(2.38414e-16 0 5.85954e-17)
(2.26131e-16 0 5.82025e-17)
(2.13816e-16 0 5.75097e-17)
(2.01512e-16 0 5.65792e-17)
(1.89331e-16 0 5.54004e-17)
(1.77275e-16 0 5.40563e-17)
(1.65343e-16 0 5.25673e-17)
(1.53576e-16 0 5.09647e-17)
(1.42006e-16 0 4.92793e-17)
(1.30643e-16 0 4.75112e-17)
(1.19507e-16 0 4.57431e-17)
(1.08619e-16 0 4.39853e-17)
(9.79485e-17 0 4.22276e-17)
(8.75054e-17 0 4.05422e-17)
(7.73207e-17 0 3.89602e-17)
(6.73842e-17 0 3.74609e-17)
(5.76648e-17 0 3.60961e-17)
(4.81523e-17 0 3.4876e-17)
(3.88361e-17 0 3.38214e-17)
(2.96648e-17 0 3.29838e-17)
(2.05865e-17 0 3.23531e-17)
(1.16219e-17 0 3.19705e-17)
(3.5879e-18 0 3.18361e-17)
(8.89168e-08 0 -1.00249e-06)
(3.0931e-07 0 -9.71821e-07)
(4.80627e-07 0 -9.2365e-07)
(6.48734e-07 0 -8.53666e-07)
(7.94959e-07 0 -7.70436e-07)
(9.16204e-07 0 -6.82431e-07)
(1.01593e-06 0 -5.95654e-07)
(1.09781e-06 0 -5.12259e-07)
(1.16399e-06 0 -4.3333e-07)
(1.21649e-06 0 -3.60155e-07)
(1.2574e-06 0 -2.92921e-07)
(1.28874e-06 0 -2.29421e-07)
(1.31089e-06 0 -1.71825e-07)
(1.32409e-06 0 -1.20531e-07)
(1.32961e-06 0 -6.23933e-08)
(1.32715e-06 0 -1.644e-08)
(1.31864e-06 0 2.33786e-08)
(1.30436e-06 0 6.11937e-08)
(1.28418e-06 0 9.70547e-08)
(1.25729e-06 0 1.31381e-07)
(1.2264e-06 0 1.5475e-07)
(1.19275e-06 0 1.77332e-07)
(1.15625e-06 0 1.9431e-07)
(1.11702e-06 0 2.07993e-07)
(1.07643e-06 0 2.18497e-07)
(1.03483e-06 0 2.26717e-07)
(9.93577e-07 0 2.29028e-07)
(9.52915e-07 0 2.29242e-07)
(9.12904e-07 0 2.27918e-07)
(8.74106e-07 0 2.2398e-07)
(8.36851e-07 0 2.18639e-07)
(8.01285e-07 0 2.12323e-07)
(7.67515e-07 0 2.04641e-07)
(7.35618e-07 0 1.96103e-07)
(7.05487e-07 0 1.87919e-07)
(6.77142e-07 0 1.79466e-07)
(6.50382e-07 0 1.7142e-07)
(6.25168e-07 0 1.63551e-07)
(6.01402e-07 0 1.55906e-07)
(5.78891e-07 0 1.491e-07)
(5.57515e-07 0 1.42755e-07)
(5.3713e-07 0 1.36838e-07)
(5.17641e-07 0 1.3146e-07)
(4.98778e-07 0 1.27135e-07)
(4.80637e-07 0 1.22737e-07)
(4.62882e-07 0 1.19211e-07)
(4.45768e-07 0 1.1545e-07)
(4.28921e-07 0 1.13849e-07)
(4.12553e-07 0 1.10854e-07)
(3.96022e-07 0 1.08302e-07)
(3.79836e-07 0 1.06027e-07)
(3.64022e-07 0 1.04137e-07)
(3.48384e-07 0 1.0265e-07)
(3.33032e-07 0 1.00712e-07)
(3.17683e-07 0 9.93215e-08)
(3.02656e-07 0 9.74096e-08)
(2.87801e-07 0 9.58363e-08)
(2.73265e-07 0 9.41476e-08)
(2.5888e-07 0 9.27563e-08)
(2.44793e-07 0 9.10109e-08)
(2.30885e-07 0 8.93249e-08)
(2.1728e-07 0 8.75409e-08)
(2.03935e-07 0 8.58747e-08)
(1.90851e-07 0 8.42237e-08)
(1.78071e-07 0 8.24647e-08)
(1.6544e-07 0 8.09949e-08)
(1.53127e-07 0 7.92725e-08)
(1.41036e-07 0 7.75585e-08)
(1.29166e-07 0 7.59078e-08)
(1.17514e-07 0 7.42212e-08)
(1.06092e-07 0 7.24776e-08)
(9.49374e-08 0 7.06621e-08)
(8.41509e-08 0 6.87076e-08)
(7.40728e-08 0 6.65902e-08)
(6.42506e-08 0 6.48691e-08)
(5.71321e-08 0 6.11591e-08)
(4.09682e-08 0 7.58545e-08)
(1.96992e-08 0 1.548e-07)
(-2.93825e-12 0 1.24239e-07)
(4.15269e-16 0 -2.25564e-16)
(1.937e-16 0 -6.61745e-19)
(3.84215e-16 0 7.32055e-18)
(3.8222e-16 0 1.51891e-17)
(3.78787e-16 0 2.27785e-17)
(3.73979e-16 0 2.99543e-17)
(3.6793e-16 0 3.66338e-17)
(3.60713e-16 0 4.27549e-17)
(3.52462e-16 0 4.82867e-17)
(3.43311e-16 0 5.3167e-17)
(3.33374e-16 0 5.73857e-17)
(3.22756e-16 0 6.09219e-17)
(3.11578e-16 0 6.3848e-17)
(2.99987e-16 0 6.61951e-17)
(2.88024e-16 0 6.79219e-17)
(2.75761e-16 0 6.91109e-17)
(2.63312e-16 0 6.97727e-17)
(2.50739e-16 0 7.00105e-17)
(2.38125e-16 0 6.98141e-17)
(2.2551e-16 0 6.9266e-17)
(2.12896e-16 0 6.83355e-17)
(2.00343e-16 0 6.71774e-17)
(1.87946e-16 0 6.57402e-17)
(1.75714e-16 0 6.41168e-17)
(1.63637e-16 0 6.23177e-17)
(1.51757e-16 0 6.03945e-17)
(1.40104e-16 0 5.83679e-17)
(1.28709e-16 0 5.6269e-17)
(1.17584e-16 0 5.4139e-17)
(1.06696e-16 0 5.20297e-17)
(9.60667e-17 0 4.99617e-17)
(8.57166e-17 0 4.79558e-17)
(7.56457e-17 0 4.60429e-17)
(6.58229e-17 0 4.42645e-17)
(5.62483e-17 0 4.26308e-17)
(4.69011e-17 0 4.11522e-17)
(3.77711e-17 0 3.99115e-17)
(2.88479e-17 0 3.89189e-17)
(2.00385e-17 0 3.81847e-17)
(1.13531e-17 0 3.77401e-17)
(3.52586e-18 0 3.7554e-17)
(1.0127e-07 0 -1.21919e-06)
(3.562e-07 0 -1.18039e-06)
(5.53945e-07 0 -1.10947e-06)
(7.36151e-07 0 -1.01451e-06)
(8.90998e-07 0 -9.05205e-07)
(1.01456e-06 0 -7.91668e-07)
(1.11051e-06 0 -6.83701e-07)
(1.18676e-06 0 -5.82267e-07)
(1.24678e-06 0 -4.88218e-07)
(1.2925e-06 0 -4.0365e-07)
(1.32777e-06 0 -3.25228e-07)
(1.35399e-06 0 -2.53351e-07)
(1.37105e-06 0 -1.89304e-07)
(1.37985e-06 0 -1.2475e-07)
(1.38146e-06 0 -6.09244e-08)
(1.37535e-06 0 -1.11185e-08)
(1.36292e-06 0 3.94582e-08)
(1.34427e-06 0 7.76701e-08)
(1.31939e-06 0 1.29461e-07)
(1.28813e-06 0 1.57463e-07)
(1.25259e-06 0 1.90837e-07)
(1.21483e-06 0 2.14613e-07)
(1.17342e-06 0 2.35606e-07)
(1.13005e-06 0 2.48718e-07)
(1.08505e-06 0 2.63505e-07)
(1.04005e-06 0 2.6937e-07)
(9.9538e-07 0 2.71491e-07)
(9.51898e-07 0 2.71101e-07)
(9.09461e-07 0 2.68461e-07)
(8.68694e-07 0 2.6293e-07)
(8.29957e-07 0 2.55684e-07)
(7.93215e-07 0 2.47516e-07)
(7.5874e-07 0 2.37694e-07)
(7.26485e-07 0 2.27252e-07)
(6.96271e-07 0 2.17121e-07)
(6.68036e-07 0 2.06855e-07)
(6.41529e-07 0 1.97209e-07)
(6.16771e-07 0 1.87751e-07)
(5.93588e-07 0 1.78678e-07)
(5.71644e-07 0 1.70742e-07)
(5.50903e-07 0 1.63233e-07)
(5.31162e-07 0 1.56491e-07)
(5.12313e-07 0 1.50309e-07)
(4.93996e-07 0 1.45447e-07)
(4.7649e-07 0 1.40183e-07)
(4.59175e-07 0 1.36765e-07)
(4.42665e-07 0 1.3171e-07)
(4.2588e-07 0 1.30581e-07)
(4.10031e-07 0 1.27468e-07)
(3.93935e-07 0 1.24288e-07)
(3.77695e-07 0 1.22089e-07)
(3.62012e-07 0 1.19771e-07)
(3.46478e-07 0 1.18201e-07)
(3.31247e-07 0 1.1607e-07)
(3.15911e-07 0 1.1453e-07)
(3.00918e-07 0 1.12371e-07)
(2.86047e-07 0 1.10522e-07)
(2.71473e-07 0 1.08652e-07)
(2.5708e-07 0 1.07004e-07)
(2.42991e-07 0 1.0512e-07)
(2.29133e-07 0 1.03027e-07)
(2.15485e-07 0 1.00998e-07)
(2.02151e-07 0 9.90924e-08)
(1.89123e-07 0 9.71127e-08)
(1.76282e-07 0 9.52229e-08)
(1.63662e-07 0 9.34484e-08)
(1.51356e-07 0 9.146e-08)
(1.39253e-07 0 8.95534e-08)
(1.27372e-07 0 8.77031e-08)
(1.1567e-07 0 8.5825e-08)
(1.0415e-07 0 8.3865e-08)
(9.28401e-08 0 8.18048e-08)
(8.18223e-08 0 7.95266e-08)
(7.13363e-08 0 7.69035e-08)
(6.22702e-08 0 7.34985e-08)
(5.43607e-08 0 6.76711e-08)
(3.61864e-08 0 9.60913e-08)
(1.54746e-08 0 1.75525e-07)
(-2.68914e-12 0 1.28398e-07)
(4.27574e-16 0 -2.95043e-16)
(1.98107e-16 0 -8.6854e-19)
(3.92911e-16 0 8.71642e-18)
(3.90667e-16 0 1.81256e-17)
(3.86821e-16 0 2.71315e-17)
(3.81516e-16 0 3.56411e-17)
(3.74878e-16 0 4.35511e-17)
(3.67041e-16 0 5.07475e-17)
(3.58097e-16 0 5.71789e-17)
(3.48212e-16 0 6.28244e-17)
(3.37552e-16 0 6.76737e-17)
(3.2623e-16 0 7.17269e-17)
(3.14401e-16 0 7.50563e-17)
(3.02138e-16 0 7.76619e-17)
(2.89544e-16 0 7.95438e-17)
(2.76713e-16 0 8.08259e-17)
(2.63747e-16 0 8.1498e-17)
(2.50708e-16 0 8.16634e-17)
(2.37659e-16 0 8.13325e-17)
(2.24652e-16 0 8.05674e-17)
(2.11707e-16 0 7.943e-17)
(1.98906e-16 0 7.80135e-17)
(1.86291e-16 0 7.62971e-17)
(1.73853e-16 0 7.43532e-17)
(1.6161e-16 0 7.22439e-17)
(1.49616e-16 0 7.00002e-17)
(1.3787e-16 0 6.76117e-17)
(1.26404e-16 0 6.51715e-17)
(1.15268e-16 0 6.27003e-17)
(1.04432e-16 0 6.02084e-17)
(9.38643e-17 0 5.78199e-17)
(8.35969e-17 0 5.54521e-17)
(7.36294e-17 0 5.32394e-17)
(6.39514e-17 0 5.11301e-17)
(5.45526e-17 0 4.92173e-17)
(4.54432e-17 0 4.75009e-17)
(3.65924e-17 0 4.6074e-17)
(2.79484e-17 0 4.49263e-17)
(1.94077e-17 0 4.40577e-17)
(1.09912e-17 0 4.35304e-17)
(3.42246e-18 0 4.33236e-17)
(1.20039e-07 0 -1.47391e-06)
(4.28244e-07 0 -1.41848e-06)
(6.45079e-07 0 -1.32097e-06)
(8.57534e-07 0 -1.1847e-06)
(1.01369e-06 0 -1.0437e-06)
(1.13928e-06 0 -8.96065e-07)
(1.22812e-06 0 -7.62646e-07)
(1.29222e-06 0 -6.46541e-07)
(1.3421e-06 0 -5.37507e-07)
(1.37909e-06 0 -4.39452e-07)
(1.40696e-06 0 -3.52103e-07)
(1.42677e-06 0 -2.73355e-07)
(1.43855e-06 0 -2.00159e-07)
(1.44399e-06 0 -1.23817e-07)
(1.4407e-06 0 -5.96254e-08)
(1.43034e-06 0 1.12931e-09)
(1.41346e-06 0 5.47058e-08)
(1.39013e-06 0 1.06069e-07)
(1.35954e-06 0 1.59837e-07)
(1.32359e-06 0 1.9329e-07)
(1.28305e-06 0 2.31547e-07)
(1.23965e-06 0 2.57482e-07)
(1.19249e-06 0 2.80671e-07)
(1.14398e-06 0 2.95826e-07)
(1.09411e-06 0 3.11237e-07)
(1.04489e-06 0 3.16182e-07)
(9.96381e-07 0 3.17404e-07)
(9.49429e-07 0 3.16085e-07)
(9.04256e-07 0 3.11304e-07)
(8.6133e-07 0 3.03595e-07)
(8.20893e-07 0 2.94364e-07)
(7.82995e-07 0 2.83561e-07)
(7.47839e-07 0 2.71162e-07)
(7.15288e-07 0 2.58547e-07)
(6.85101e-07 0 2.46118e-07)
(6.57039e-07 0 2.34141e-07)
(6.3102e-07 0 2.22419e-07)
(6.06891e-07 0 2.11244e-07)
(5.84434e-07 0 2.0086e-07)
(5.63243e-07 0 1.91617e-07)
(5.43278e-07 0 1.83009e-07)
(5.24388e-07 0 1.75247e-07)
(5.06301e-07 0 1.68566e-07)
(4.88735e-07 0 1.62903e-07)
(4.71809e-07 0 1.5726e-07)
(4.5518e-07 0 1.53253e-07)
(4.38979e-07 0 1.48839e-07)
(4.22893e-07 0 1.45657e-07)
(4.07115e-07 0 1.43998e-07)
(3.91706e-07 0 1.40263e-07)
(3.75513e-07 0 1.37896e-07)
(3.59868e-07 0 1.35293e-07)
(3.4444e-07 0 1.33575e-07)
(3.29243e-07 0 1.31486e-07)
(3.13992e-07 0 1.29582e-07)
(2.98934e-07 0 1.27477e-07)
(2.84111e-07 0 1.25172e-07)
(2.69384e-07 0 1.23323e-07)
(2.55099e-07 0 1.2109e-07)
(2.40935e-07 0 1.19195e-07)
(2.27071e-07 0 1.16882e-07)
(2.1346e-07 0 1.14397e-07)
(2.00073e-07 0 1.12279e-07)
(1.87039e-07 0 1.10138e-07)
(1.74262e-07 0 1.07918e-07)
(1.61642e-07 0 1.05885e-07)
(1.49381e-07 0 1.03669e-07)
(1.37293e-07 0 1.01558e-07)
(1.25376e-07 0 9.95129e-08)
(1.1362e-07 0 9.74807e-08)
(1.02019e-07 0 9.53464e-08)
(9.05104e-08 0 9.3113e-08)
(7.90812e-08 0 9.06503e-08)
(6.76861e-08 0 8.77592e-08)
(5.6895e-08 0 8.39477e-08)
(4.2592e-08 0 7.76514e-08)
(3.17309e-08 0 1.24377e-07)
(4.98651e-09 0 1.79185e-07)
(-2.32227e-12 0 1.33051e-07)
(4.39618e-16 0 -3.72683e-16)
(2.03397e-16 0 -1.09601e-18)
(4.0323e-16 0 1.0257e-17)
(4.00635e-16 0 2.13413e-17)
(3.96302e-16 0 3.19395e-17)
(3.90398e-16 0 4.19174e-17)
(3.83026e-16 0 5.10991e-17)
(3.74351e-16 0 5.94123e-17)
(3.64549e-16 0 6.67845e-17)
(3.53806e-16 0 7.32158e-17)