0.010101 	-7.20414e-09 	-1.5108e-13 	-2.12385e-11
0.020202 	-8.57688e-10 	1.93558e-13 	-1.23819e-11
