/*--------------------------------*- C++ -*----------------------------------*\
  =========                 |
  \\      /  F ield         | OpenFOAM: The Open Source CFD Toolbox
   \\    /   O peration     | Website:  https://openfoam.org
    \\  /    A nd           | Version:  6
     \\/     M anipulation  |
\*---------------------------------------------------------------------------*/
FoamFile
{
    version     2.0;
    format      ascii;
    class       volScalarField;
    location    "4400";
    object      T;
}
// * * * * * * * * * * * * * * * * * * * * * * * * * * * * * * * * * * * * * //

dimensions      [0 0 0 1 0 0 0];

internalField   nonuniform List<scalar> 
4800
(
552.451
552.253
552.055
551.857
551.661
551.466
551.272
551.08
550.891
550.706
550.526
550.354
550.189
550.035
549.891
549.76
549.64
549.532
549.433
549.345
549.264
549.191
549.124
549.061
549.003
548.948
548.895
548.843
548.792
548.74
548.687
548.633
548.576
548.517
548.454
548.387
548.315
548.239
548.158
548.074
547.986
547.895
547.801
547.706
547.607
547.507
547.404
547.3
547.194
547.088
546.981
546.875
546.769
546.665
546.563
546.464
546.367
546.273
546.183
546.096
546.012
545.931
545.854
545.778
545.705
545.634
545.564
545.496
545.429
545.361
545.293
545.224
545.152
545.078
545
544.918
544.833
544.743
544.65
544.552
544.453
544.352
544.253
544.154
544.055
543.956
543.857
543.758
543.659
543.56
543.46
543.361
543.261
543.162
543.062
542.962
542.863
542.763
542.664
542.565
542.465
542.366
542.267
542.168
542.07
541.971
541.873
541.774
541.676
541.578
541.479
541.381
541.283
541.185
541.088
540.99
540.892
540.794
540.697
540.599
552.451
552.252
552.053
551.856
551.659
551.464
551.27
551.078
550.889
550.704
550.524
550.351
550.188
550.034
549.892
549.762
549.643
549.535
549.437
549.349
549.269
549.196
549.129
549.068
549.01
548.954
548.901
548.849
548.797
548.744
548.691
548.636
548.579
548.519
548.455
548.388
548.317
548.241
548.161
548.077
547.989
547.899
547.806
547.71
547.612
547.512
547.409
547.304
547.198
547.091
546.984
546.878
546.772
546.668
546.566
546.467
546.37
546.277
546.187
546.1
546.017
545.936
545.858
545.783
545.709
545.637
545.567
545.497
545.428
545.359
545.29
545.22
545.148
545.073
544.995
544.914
544.829
544.739
544.646
544.549
544.451
544.351
544.253
544.154
544.055
543.957
543.858
543.759
543.659
543.56
543.461
543.361
543.261
543.162
543.062
542.962
542.863
542.763
542.664
542.565
542.465
542.366
542.267
542.168
542.07
541.971
541.873
541.774
541.676
541.578
541.479
541.381
541.283
541.185
541.088
540.99
540.892
540.794
540.697
540.599
552.45
552.251
552.052
551.854
551.658
551.462
551.268
551.076
550.887
550.702
550.522
550.35
550.188
550.037
549.896
549.767
549.65
549.543
549.447
549.36
549.281
549.208
549.142
549.081
549.023
548.967
548.913
548.86
548.808
548.755
548.7
548.644
548.586
548.525
548.46
548.392
548.321
548.245
548.167
548.084
547.998
547.908
547.816
547.721
547.623
547.522
547.419
547.314
547.207
547.1
546.993
546.886
546.78
546.676
546.574
546.475
546.38
546.287
546.198
546.113
546.03
545.949
545.87
545.794
545.719
545.645
545.573
545.501
545.43
545.359
545.288
545.215
545.142
545.067
544.989
544.907
544.822
544.733
544.641
544.546
544.449
544.35
544.252
544.154
544.056
543.957
543.858
543.759
543.66
543.561
543.461
543.361
543.262
543.162
543.062
542.963
542.863
542.763
542.664
542.565
542.465
542.366
542.267
542.168
542.07
541.971
541.872
541.774
541.676
541.577
541.479
541.381
541.283
541.185
541.088
540.99
540.892
540.794
540.697
540.599
552.45
552.25
552.051
551.853
551.656
551.461
551.266
551.074
550.886
550.701
550.523
550.353
550.193
550.043
549.905
549.778
549.663
549.558
549.463
549.377
549.299
549.228
549.162
549.101
549.043
548.987
548.933
548.879
548.825
548.771
548.716
548.658
548.598
548.536
548.47
548.402
548.33
548.256
548.178
548.097
548.012
547.924
547.832
547.738
547.64
547.539
547.435
547.33
547.223
547.115
547.008
546.901
546.795
546.692
546.591
546.493
546.398
546.307
546.219
546.133
546.051
545.97
545.89
545.812
545.736
545.66
545.585
545.511
545.437
545.362
545.288
545.213
545.137
545.06
544.981
544.9
544.815
544.727
544.636
544.543
544.447
544.35
544.252
544.155
544.056
543.958
543.859
543.76
543.661
543.561
543.462
543.362
543.262
543.162
543.062
542.963
542.863
542.763
542.664
542.565
542.465
542.366
542.267
542.168
542.069
541.971
541.872
541.774
541.676
541.577
541.479
541.381
541.283
541.185
541.087
540.99
540.892
540.794
540.697
540.599
552.45
552.25
552.051
551.853
551.655
551.459
551.265
551.073
550.885
550.702
550.526
550.359
550.201
550.054
549.919
549.795
549.682
549.579
549.485
549.401
549.324
549.253
549.188
549.128
549.07
549.014
548.959
548.905
548.85
548.795
548.738
548.679
548.617
548.553
548.487
548.418
548.346
548.273
548.196
548.117
548.033
547.947
547.856
547.761
547.663
547.562
547.458
547.352
547.245
547.138
547.03
546.924
546.819
546.716
546.615
546.519
546.425
546.335
546.248
546.163
546.08
545.999
545.918
545.839
545.761
545.682
545.605
545.527
545.449
545.371
545.292
545.214
545.136
545.056
544.976
544.894
544.81
544.722
544.632
544.54
544.445
544.349
544.253
544.156
544.058
543.959
543.861
543.761
543.662
543.562
543.463
543.363
543.263
543.163
543.063
542.963
542.863
542.763
542.664
542.564
542.465
542.366
542.267
542.168
542.069
541.971
541.872
541.774
541.675
541.577
541.479
541.381
541.283
541.185
541.087
540.99
540.892
540.794
540.696
540.599
552.45
552.25
552.051
551.852
551.655
551.458
551.264
551.073
550.886
550.705
550.531
550.367
550.213
550.07
549.938
549.816
549.706
549.605
549.513
549.43
549.355
549.285
549.221
549.161
549.103
549.047
548.992
548.938
548.883
548.826
548.768
548.707
548.644
548.579
548.511
548.441
548.371
548.298
548.222
548.144
548.062
547.976
547.886
547.792
547.694
547.592
547.488
547.382
547.275
547.168
547.06
546.954
546.85
546.748
546.649
546.553
546.461
546.372
546.286
546.201
546.118
546.036
545.954
545.873
545.793
545.712
545.631
545.549
545.468
545.386
545.303
545.221
545.139
545.057
544.974
544.891
544.806
544.719
544.63
544.538
544.444
544.35
544.254
544.157
544.06
543.961
543.863
543.763
543.664
543.564
543.464
543.364
543.264
543.163
543.063
542.963
542.863
542.764
542.664
542.564
542.465
542.366
542.267
542.168
542.069
541.97
541.872
541.773
541.675
541.577
541.479
541.381
541.283
541.185
541.087
540.99
540.892
540.794
540.696
540.599
552.45
552.25
552.051
551.852
551.655
551.459
551.265
551.074
550.888
550.709
550.539
550.378
550.228
550.089
549.961
549.843
549.736
549.637
549.547
549.466
549.391
549.322
549.259
549.199
549.142
549.087
549.032
548.977
548.922
548.864
548.805
548.743
548.679
548.612
548.544
548.474
548.404
548.332
548.257
548.18
548.099
548.014
547.924
547.829
547.731
547.629
547.525
547.418
547.311
547.204
547.098
546.992
546.889
546.788
546.69
546.596
546.505
546.417
546.331
546.246
546.162
546.079
545.996
545.913
545.831
545.747
545.664
545.579
545.494
545.407
545.321
545.234
545.148
545.063
544.977
544.892
544.805
544.718
544.629
544.538
544.445
544.352
544.256
544.16
544.062
543.964
543.865
543.766
543.666
543.565
543.465
543.365
543.264
543.164
543.064
542.964
542.863
542.764
542.664
542.564
542.465
542.366
542.266
542.167
542.069
541.97
541.872
541.773
541.675
541.577
541.479
541.381
541.283
541.185
541.087
540.989
540.892
540.794
540.696
540.599
552.45
552.25
552.051
551.853
551.656
551.46
551.267
551.078
550.894
550.717
550.55
550.393
550.247
550.113
549.989
549.875
549.77
549.674
549.586
549.505
549.431
549.364
549.301
549.243
549.186
549.131
549.077
549.023
548.968
548.91
548.851
548.788
548.723
548.656
548.587
548.518
548.447
548.376
548.301
548.224
548.143
548.058
547.968
547.873
547.774
547.672
547.567
547.461
547.354
547.247
547.141
547.037
546.934
546.835
546.738
546.645
546.555
546.468
546.382
546.297
546.212
546.128
546.044
545.959
545.875
545.789
545.703
545.615
545.526
545.436
545.346
545.255
545.164
545.075
544.985
544.897
544.808
544.72
544.63
544.539
544.448
544.355
544.26
544.164
544.066
543.968
543.868
543.768
543.668
543.567
543.467
543.366
543.265
543.165
543.064
542.964
542.864
542.764
542.664
542.564
542.464
542.365
542.266
542.167
542.068
541.97
541.871
541.773
541.674
541.576
541.478
541.38
541.282
541.185
541.087
540.989
540.892
540.794
540.696
540.599
552.45
552.251
552.052
551.854
551.658
551.463
551.27
551.082
550.901
550.728
550.564
550.411
550.27
550.139
550.019
549.908
549.806
549.713
549.627
549.548
549.475
549.409
549.348
549.29
549.235
549.182
549.129
549.076
549.021
548.964
548.905
548.843
548.778
548.711
548.642
548.572
548.502
548.429
548.353
548.276
548.194
548.108
548.017
547.922
547.823
547.72
547.615
547.509
547.403
547.296
547.191
547.088
546.986
546.888
546.793
546.701
546.612
546.524
546.438
546.352
546.267
546.182
546.096
546.01
545.924
545.836
545.747
545.657
545.565
545.472
545.378
545.283
545.188
545.093
545
544.908
544.817
544.726
544.636
544.545
544.454
544.361
544.266
544.169
544.071
543.972
543.872
543.772
543.671
543.57
543.469
543.368
543.266
543.165
543.065
542.964
542.864
542.763
542.663
542.564
542.464
542.365
542.266
542.167
542.068
541.969
541.871
541.772
541.674
541.576
541.478
541.38
541.282
541.184
541.087
540.989
540.891
540.794
540.696
540.599
552.451
552.252
552.054
551.857
551.66
551.466
551.275
551.089
550.909
550.74
550.58
550.432
550.295
550.168
550.051
549.943
549.844
549.752
549.668
549.591
549.521
549.457
549.398
549.342
549.289
549.238
549.187
549.135
549.081
549.026
548.968
548.907
548.843
548.776
548.707
548.637
548.566
548.492
548.414
548.335
548.251
548.164
548.072
547.975
547.875
547.772
547.667
547.561
547.455
547.35
547.246
547.144
547.043
546.946
546.852
546.761
546.672
546.585
546.498
546.412
546.326
546.239
546.152
546.065
545.977
545.887
545.796
545.703
545.609
545.513
545.416
545.317
545.218
545.12
545.022
544.926
544.831
544.738
544.646
544.555
544.462
544.369
544.273
544.176
544.077
543.977
543.877
543.775
543.674
543.572
543.471
543.369
543.268
543.166
543.065
542.964
542.864
542.763
542.663
542.563
542.464
542.364
542.265
542.166
542.067
541.969
541.87
541.772
541.674
541.576
541.478
541.38
541.282
541.184
541.087
540.989
540.891
540.794
540.696
540.599
552.451
552.253
552.055
551.859
551.663
551.47
551.281
551.097
550.921
550.754
550.598
550.454
550.321
550.198
550.084
549.979
549.882
549.793
549.712
549.637
549.57
549.508
549.452
549.399
549.348
549.299
549.25
549.2
549.148
549.094
549.038
548.979
548.916
548.851
548.782
548.712
548.639
548.562
548.483
548.4
548.314
548.224
548.13
548.031
547.93
547.827
547.722
547.617
547.512
547.407
547.304
547.203
547.104
547.008
546.915
546.824
546.735
546.648
546.561
546.474
546.387
546.3
546.212
546.123
546.033
545.942
545.849
545.754
545.658
545.56
545.46
545.359
545.256
545.153
545.051
544.951
544.852
544.756
544.662
544.568
544.474
544.379
544.283
544.184
544.084
543.983
543.882
543.78
543.677
543.575
543.473
543.371
543.269
543.167
543.065
542.964
542.863
542.763
542.663
542.563
542.463
542.364
542.264
542.165
542.067
541.968
541.87
541.771
541.673
541.575
541.477
541.379
541.282
541.184
541.086
540.989
540.891
540.794
540.696
540.599
552.451
552.254
552.057
551.861
551.666
551.474
551.286
551.105
550.932
550.77
550.618
550.478
550.348
550.229
550.118
550.016
549.922
549.836
549.757
549.686
549.622
549.564
549.51
549.46
549.412
549.365
549.319
549.271
549.221
549.169
549.115
549.057
548.996
548.932
548.864
548.792
548.718
548.639
548.557
548.471
548.381
548.287
548.19
548.09
547.988
547.884
547.78
547.675
547.571
547.467
547.365
547.265
547.168
547.073
546.98
546.89
546.801
546.713
546.626
546.538
546.451
546.363
546.274
546.184
546.092
546
545.905
545.809
545.711
545.61
545.508
545.405
545.3
545.194
545.088
544.983
544.88
544.779
544.681
544.585
544.488
544.392
544.294
544.194
544.093
543.99
543.888
543.784
543.681
543.578
543.475
543.372
543.269
543.167
543.066
542.964
542.863
542.762
542.662
542.562
542.462
542.363
542.264
542.165
542.066
541.967
541.869
541.771
541.672
541.575
541.477
541.379
541.281
541.184
541.086
540.988
540.891
540.794
540.696
540.599
552.451
552.254
552.059
551.864
551.672
551.481
551.295
551.116
550.948
550.789
550.641
550.505
550.378
550.261
550.154
550.055
549.964
549.882
549.807
549.739
549.679
549.624
549.573
549.526
549.481
549.437
549.393
549.347
549.299
549.249
549.196
549.14
549.08
549.017
548.949
548.876
548.8
548.718
548.633
548.543
548.45
548.353
548.253
548.15
548.047
547.943
547.839
547.735
547.631
547.529
547.428
547.329
547.232
547.138
547.045
546.955
546.866
546.779
546.691
546.604
546.516
546.427
546.337
546.246
546.154
546.06
545.964
545.866
545.766
545.664
545.56
545.455
545.348
545.24
545.131
545.022
544.915
544.809
544.705
544.604
544.502
544.407
544.307
544.205
544.102
543.998
543.894
543.789
543.685
543.581
543.477
543.373
543.27
543.168
543.065
542.964
542.862
542.762
542.661
542.561
542.461
542.362
542.263
542.164
542.065
541.966
541.868
541.77
541.672
541.574
541.476
541.378
541.281
541.183
541.086
540.988
540.891
540.793
540.696
540.599
552.452
552.256
552.061
551.867
551.676
551.488
551.306
551.131
550.966
550.811
550.667
550.534
550.41
550.297
550.193
550.097
550.01
549.932
549.861
549.798
549.741
549.689
549.642
549.598
549.555
549.513
549.471
549.427
549.381
549.332
549.281
549.226
549.168
549.104
549.036
548.962
548.883
548.799
548.71
548.616
548.519
548.419
548.317
548.213
548.109
548.005
547.901
547.797
547.693
547.591
547.491
547.393
547.296
547.203
547.111
547.021
546.932
546.845
546.757
546.67
546.581
546.492
546.402
546.31
546.217
546.122
546.025
545.926
545.824
545.721
545.615
545.508
545.399
545.29
545.179
545.067
544.956
544.845
544.736
544.629
544.525
544.426
544.323
544.218
544.112
544.006
543.9
543.794
543.688
543.583
543.478
543.374
543.27
543.167
543.065
542.963
542.861
542.761
542.66
542.56
542.46
542.361
542.261
542.163
542.064
541.965
541.867
541.769
541.671
541.573
541.475
541.378
541.28
541.183
541.085
540.988
540.891
540.793
540.696
540.599
552.453
552.259
552.065
551.873
551.684
551.498
551.319
551.148
550.986
550.836
550.696
550.566
550.447
550.337
550.237
550.145
550.063
549.988
549.922
549.862
549.808
549.76
549.716
549.674
549.633
549.593
549.552
549.51
549.466
549.418
549.368
549.315
549.257
549.194
549.125
549.05
548.968
548.881
548.787
548.69
548.589
548.486
548.382
548.277
548.173
548.068
547.963
547.859
547.756
547.654
547.554
547.456
547.361
547.267
547.176
547.086
546.998
546.911
546.823
546.735
546.647
546.558
546.467
546.375
546.281
546.185
546.087
545.987
545.884
545.779
545.672
545.564
545.454
545.342
545.229
545.116
545.002
544.887
544.773
544.661
544.552
544.447
544.34
544.232
544.123
544.015
543.907
543.799
543.692
543.585
543.48
543.375
543.27
543.167
543.064
542.962
542.86
542.759
542.659
542.558
542.459
542.359
542.26
542.161
542.063
541.964
541.866
541.768
541.67
541.572
541.475
541.377
541.28
541.182
541.085
540.988
540.89
540.793
540.696
540.599
552.454
552.262
552.071
551.881
551.694
551.511
551.335
551.168
551.011
550.865
550.729
550.604
550.488
550.382
550.286
550.199
550.121
550.05
549.988
549.931
549.881
549.835
549.793
549.753
549.714
549.675
549.636
549.595
549.552
549.506
549.457
549.404
549.346
549.284
549.214
549.137
549.053
548.963
548.866
548.764
548.659
548.554
548.448
548.342
548.237
548.132
548.027
547.923
547.82
547.718
547.617
547.52
547.424
547.331
547.24
547.151
547.063
546.976
546.889
546.801
546.713
546.623
546.532
546.44
546.345
546.249
546.15
546.048
545.944
545.838
545.73
545.621
545.509
545.396
545.281
545.165
545.048
544.93
544.813
544.697
544.583
544.471
544.359
544.246
544.134
544.023
543.913
543.803
543.694
543.587
543.48
543.374
543.27
543.166
543.063
542.96
542.859
542.757
542.657
542.557
542.457
542.358
542.259
542.16
542.061
541.963
541.865
541.767
541.669
541.572
541.474
541.377
541.279
541.182
541.085
540.987
540.89
540.793
540.696
540.599
552.455
552.266
552.077
551.89
551.706
551.527
551.355
551.193
551.041
550.899
550.768
550.646
550.535
550.434
550.342
550.259
550.185
550.118
550.059
550.006
549.959
549.915
549.874
549.836
549.798
549.76
549.722
549.682
549.64
549.594
549.546
549.493
549.436
549.373
549.304
549.226
549.139
549.045
548.945
548.839
548.73
548.622
548.514
548.407
548.302
548.197
548.092
547.988
547.884
547.781
547.68
547.582
547.487
547.394
547.303
547.214
547.127
547.039
546.952
546.865
546.777
546.688
546.597
546.504
546.41
546.312
546.213
546.11
546.005
545.898
545.789
545.679
545.566
545.451
545.335
545.215
545.095
544.973
544.851
544.73
544.612
544.495
544.377
544.26
544.145
544.031
543.918
543.806
543.696
543.587
543.48
543.373
543.268
543.164
543.061
542.958
542.856
542.755
542.655
542.555
542.455
542.356
542.257
542.158
542.06
541.962
541.864
541.766
541.668
541.571
541.473
541.376
541.279
541.181
541.084
540.987
540.89
540.793
540.696
540.599
552.456
552.269
552.083
551.899
551.72
551.546
551.379
551.222
551.075
550.937
550.811
550.694
550.588
550.491
550.403
550.324
550.254
550.191
550.136
550.085
550.04
549.998
549.958
549.92
549.883
549.846
549.808
549.769
549.727
549.683
549.634
549.582
549.525
549.462
549.392
549.312
549.224
549.128
549.024
548.915
548.802
548.69
548.58
548.473
548.368
548.264
548.159
548.053
547.948
547.844
547.743
547.645
547.55
547.457
547.366
547.277
547.189
547.102
547.015
546.928
546.84
546.751
546.661
546.568
546.473
546.375
546.275
546.172
546.066
545.958
545.849
545.738
545.624
545.507
545.387
545.265
545.14
545.014
544.888
544.762
544.639
544.517
544.394
544.273
544.154
544.037
543.922
543.808
543.697
543.587
543.478
543.371
543.266
543.161
543.058
542.955
542.854
542.753
542.652
542.552
542.453
542.354
542.255
542.157
542.059
541.96
541.863
541.765
541.667
541.57
541.473
541.375
541.278
541.181
541.084
540.987
540.89
540.793
540.696
540.599
552.458
552.274
552.091
551.912
551.736
551.568
551.407
551.255
551.112
550.98
550.859
550.747
550.645
550.552
550.469
550.395
550.329
550.269
550.216
550.168
550.124
550.083
550.044
550.007
549.97
549.933
549.895
549.856
549.814
549.77
549.721
549.669
549.612
549.548
549.477
549.397
549.307
549.209
549.104
548.992
548.875
548.759
548.648
548.54
548.436
548.333
548.228
548.12
548.013
547.908
547.806
547.707
547.612
547.519
547.428
547.338
547.25
547.163
547.076
546.989
546.901
546.813
546.722
546.629
546.534
546.436
546.336
546.232
546.126
546.019
545.909
545.797
545.682
545.562
545.439
545.313
545.184
545.054
544.923
544.793
544.664
544.537
544.409
544.284
544.161
544.041
543.924
543.809
543.695
543.584
543.475
543.368
543.262
543.158
543.054
542.952
542.85
542.749
542.649
542.55
542.45
542.352
542.253
542.155
542.057
541.959
541.861
541.764
541.666
541.569
541.472
541.375
541.277
541.18
541.083
540.986
540.889
540.792
540.695
540.598
552.46
552.28
552.101
551.926
551.756
551.592
551.437
551.291
551.154
551.028
550.911
550.804
550.707
550.619
550.54
550.47
550.407
550.35
550.299
550.252
550.209
550.169
550.131
550.093
550.056
550.019
549.981
549.941
549.9
549.855
549.807
549.754
549.696
549.632
549.56
549.478
549.387
549.288
549.181
549.068
548.949
548.831
548.718
548.611
548.507
548.405
548.299
548.188
548.079
547.972
547.869
547.77
547.673
547.58
547.488
547.399
547.31
547.222
547.135
547.048
546.961
546.872
546.781
546.688
546.593
546.495
546.395
546.291
546.186
546.079
545.969
545.856
545.739
545.617
545.49
545.36
545.227
545.092
544.956
544.821
544.688
544.556
544.423
544.293
544.167
544.044
543.924
543.807
543.692
543.58
543.471
543.363
543.257
543.153
543.05
542.947
542.846
542.746
542.646
542.547
542.448
542.349
542.251
542.153
542.055
541.957
541.86
541.763
541.665
541.568
541.471
541.374
541.277
541.18
541.083
540.986
540.889
540.792
540.695
540.598
552.462
552.286
552.112
551.942
551.778
551.62
551.471
551.33
551.199
551.078
550.967
550.865
550.772
550.689
550.614
550.547
550.487
550.432
550.383
550.337
550.295
550.255
550.216
550.179
550.141
550.103
550.065
550.025
549.983
549.938
549.889
549.835
549.776
549.712
549.638
549.555
549.463
549.363
549.256
549.141
549.02
548.902
548.789
548.683
548.58
548.478
548.371
548.257
548.145
548.036
547.932
547.831
547.735
547.641
547.549
547.458
547.369
547.281
547.194
547.106
547.018
546.928
546.837
546.744
546.649
546.551
546.451
546.348
546.243
546.136
546.027
545.913
545.794
545.669
545.54
545.406
545.269
545.129
544.989
544.849
544.71
544.572
544.433
544.299
544.169
544.043
543.921
543.802
543.687
543.574
543.464
543.357
543.251
543.147
543.044
542.942
542.842
542.742
542.642
542.543
542.445
542.346
542.248
542.151
542.053
541.956
541.858
541.761
541.664
541.567
541.47
541.373
541.276
541.179
541.082
540.986
540.889
540.792
540.695
540.598
552.464
552.293
552.125
551.961
551.802
551.65
551.507
551.372
551.247
551.131
551.025
550.928
550.84
550.761
550.69
550.626
550.568
550.516
550.467
550.422
550.38
550.34
550.3
550.262
550.224
550.186
550.147
550.106
550.063
550.017
549.967
549.912
549.853
549.786
549.711
549.626
549.533
549.432
549.324
549.208
549.089
548.972
548.861
548.754
548.652
548.55
548.443
548.325
548.211
548.1
547.994
547.893
547.795
547.7
547.608
547.517
547.427
547.339
547.251
547.163
547.073
546.982
546.89
546.796
546.7
546.603
546.503
546.401
546.298
546.192
546.082
545.967
545.847
545.72
545.589
545.452
545.312
545.168
545.022
544.876
544.731
544.586
544.441
544.302
544.168
544.038
543.914
543.794
543.678
543.565
543.456
543.348
543.243
543.14
543.038
542.937
542.836
542.737
542.638
542.54
542.441
542.344
542.246
542.149
542.051
541.954
541.857
541.76
541.663
541.566
541.469
541.372
541.276
541.179
541.082
540.985
540.889
540.792
540.695
540.598
552.467
552.302
552.139
551.98
551.828
551.683
551.546
551.417
551.298
551.187
551.086
550.993
550.91
550.835
550.767
550.706
550.65
550.599
550.551
550.506
550.463
550.422
550.382
550.343
550.304
550.264
550.224
550.182
550.138
550.091
550.04
549.985
549.924
549.856
549.778
549.691
549.596
549.495
549.386
549.27
549.153
549.038
548.929
548.824
548.723
548.622
548.513
548.393
548.274
548.162
548.055
547.951
547.853
547.757
547.664
547.573
547.483
547.394
547.306
547.216
547.124
547.031
546.937
546.841
546.745
546.648
546.549
546.449
546.347
546.242
546.133
546.018
545.897
545.77
545.638
545.501
545.358
545.211
545.059
544.906
544.753
544.598
544.445
544.3
544.162
544.03
543.903
543.782
543.666
543.554
543.444
543.338
543.234
543.131
543.03
542.93
542.83
542.732
542.633
542.536
542.438
542.341
542.243
542.146
542.049
541.952
541.855
541.759
541.662
541.565
541.468
541.372
541.275
541.178
541.082
540.985
540.888
540.792
540.695
540.598
552.469
552.309
552.153
552.001
551.855
551.716
551.586
551.463
551.35
551.245
551.149
551.061
550.982
550.91
550.845
550.786
550.731
550.68
550.633
550.587
550.544
550.501
550.46
550.419
550.379
550.338
550.296
550.253
550.208
550.16
550.107
550.051
549.989
549.919
549.839
549.749
549.653
549.551
549.442
549.328
549.213
549.1
548.992
548.889
548.79
548.69
548.58
548.456
548.334
548.221
548.112
548.004
547.903
547.807
547.714
547.624
547.535
547.446
547.357
547.264
547.168
547.071
546.975
546.879
546.783
546.685
546.588
546.489
546.387
546.283
546.176
546.062
545.942
545.818
545.689
545.555
545.413
545.263
545.105
544.943
544.777
544.608
544.443
544.292
544.15
544.016
543.888
543.766
543.65
543.538
543.431
543.326
543.223
543.121
543.021
542.922
542.824
542.726
542.629
542.531
542.434
542.338
542.241
542.144
542.047
541.951
541.854
541.757
541.661
541.564
541.467
541.371
541.274
541.178
541.081
540.985
540.888
540.791
540.695
540.598
552.473
552.319
552.168
552.022
551.882
551.75
551.626
551.51
551.403
551.303
551.212
551.129
551.054
550.985
550.922
550.865
550.811
550.76
550.712
550.665
550.62
550.576
550.533
550.49
550.447
550.405
550.361
550.317
550.271
550.221
550.167
550.109
550.046
549.974
549.893
549.803
549.707
549.607
549.5
549.387
549.273
549.16
549.054
548.955
548.857
548.759
548.646
548.517
548.39
548.277
548.168
548.045
547.938
547.844
547.754
547.663
547.576
547.489
547.402
547.308
547.206
547.105
547.008
546.913
546.817
546.717
546.62
546.519
546.409
546.306
546.202
546.092
545.976
545.855
545.735
545.614
545.479
545.333
545.172
544.998
544.812
544.617
544.427
544.274
544.131
543.994
543.866
543.744
543.63
543.52
543.414
543.311
543.21
543.11
543.012
542.914
542.817
542.72
542.624
542.527
542.431
542.334
542.238
542.142
542.045
541.949
541.852
541.756
541.66
541.563
541.467
541.37
541.274
541.177
541.081
540.984
540.888
540.791
540.695
540.598
552.475
552.326
552.181
552.042
551.909
551.784
551.667
551.558
551.456
551.362
551.276
551.197
551.125
551.059
550.998
550.941
550.887
550.836
550.787
550.739
550.692
550.646
550.6
550.554
550.508
550.463
550.418
550.373
550.326
550.274
550.217
550.156
550.091
550.018
549.939
549.854
549.76
549.666
549.568
549.454
549.335
549.219
549.117
549.026
548.923
548.83
548.714
548.575
548.431
548.331
548.232
548.054
547.932
547.848
547.779
547.678
547.593
547.519
547.447
547.363
547.25
547.144
547.051
546.953
546.858
546.745
546.649
546.54
546.392
546.293
546.193
546.087
545.982
545.865
545.757
545.669
545.554
545.431
545.272
545.094
544.877
544.634
544.377
544.245
544.101
543.964
543.836
543.716
543.604
543.497
543.394
543.294
543.196
543.098
543.002
542.906
542.81
542.714
542.619
542.523
542.427
542.331
542.235
542.139
542.043
541.947
541.851
541.755
541.659
541.562
541.466
541.37
541.273
541.177
541.08
540.984
540.888
540.791
540.695
540.598
552.478
552.334
552.195
552.061
551.936
551.817
551.707
551.603
551.508
551.419
551.337
551.263
551.194
551.131
551.071
551.014
550.959
550.906
550.856
550.807
550.758
550.709
550.659
550.609
550.561
550.513
550.466
550.421
550.374
550.319
550.255
550.189
550.123
550.047
549.978
549.907
549.811
549.732
549.662
549.532
549.397
549.27
549.194
549.127
548.984
548.904
548.786
548.628
548.472
548.341
548.237
548.077
547.92
547.824
547.743
547.665
547.605
547.553
547.499
547.417
547.293
547.174
547.102
547.017
546.919
546.786
546.671
546.581
546.417
546.266
546.125
546.034
545.969
545.83
545.705
545.693
545.595
545.56
545.359
545.254
545.006
544.696
544.432
544.229
544.064
543.925
543.797
543.681
543.573
543.471
543.372
543.276
543.18
543.086
542.991
542.897
542.803
542.709
542.614
542.519
542.424
542.329
542.233
542.137
542.042
541.946
541.85
541.754
541.658
541.562
541.465
541.369
541.273
541.176
541.08
540.984
540.887
540.791
540.695
540.598
552.479
552.34
552.206
552.08
551.961
551.849
551.745
551.648
551.557
551.474
551.397
551.328
551.263
551.201
551.141
551.081
551.023
550.967
550.916
550.866
550.815
550.762
550.708
550.656
550.606
550.558
550.51
550.467
550.421
550.358
550.273
550.203
550.146
550.053
550.018
549.979
549.834
549.797
549.792
549.601
549.494
549.404
549.276
549.17
549.045
548.947
548.856
548.703
548.534
548.367
548.216
548.031
547.844
547.739
547.657
547.589
547.592
547.613
547.592
547.51
547.358
547.239
547.188
547.125
547.043
546.864
546.668
546.654
546.426
546.192
546.044
545.882
545.816
545.755
545.728
545.73
545.678
545.664
545.475
545.323
545.063
544.791
544.464
544.138
543.999
543.873
543.746
543.637
543.537
543.442
543.348
543.256
543.164
543.073
542.981
542.889
542.796
542.703
542.609
542.515
542.421
542.326
542.231
542.136
542.04
541.945
541.849
541.753
541.657
541.561
541.465
541.369
541.272
541.176
541.08
540.984
540.887
540.791
540.695
540.598
552.482
552.347
552.218
552.097
551.984
551.879
551.781
551.69
551.605
551.526
551.455
551.39
551.329
551.268
551.207
551.144
551.077
551.015
550.96
550.909
550.857
550.799
550.744
550.694
550.65
550.607
550.558
550.522
550.484
550.391
550.251
550.196
550.186
550.094
550.107
550.074
549.904
549.808
549.798
549.675
549.583
549.52
549.379
549.235
549.076
548.979
548.95
548.83
548.637
548.404
548.158
547.896
547.689
547.547
547.47
547.419
547.529
547.708
547.75
547.693
547.496
547.36
547.31
547.252
547.215
546.972
546.649
546.745
546.493
546.187
545.995
545.803
545.742
545.754
545.763
545.774
545.695
545.621
545.464
545.277
545.041
544.802
544.53
544.111
543.96
543.786
543.678
543.585
543.497
543.41
543.322
543.235
543.148
543.06
542.971
542.881
542.79
542.698
542.605
542.512
542.418
542.324
542.229
542.134
542.039
541.943
541.848
541.752
541.656
541.56
541.464
541.368
541.272
541.176
541.08
540.983
540.887
540.791
540.694
540.598
552.482
552.349
552.226
552.112
552.005
551.906
551.814
551.727
551.647
551.574
551.508
551.448
551.39
551.328
551.273
551.211
551.127
551.047
550.976
550.918
550.863
550.797
550.749
550.724
550.709
550.688
550.616
550.604
550.586
550.486
550.288
550.142
550.132
550.144
550.191
550.16
549.942
549.791
549.776
549.71
549.688
549.633
549.492
549.302
549.056
549
549.051
548.987
548.799
548.491
548.092
547.656
547.537
547.282
547.151
547.134
547.383
547.814
547.877
547.87
547.729
547.564
547.349
547.236
547.177
547.105
546.736
546.766
546.546
546.25
546.115
545.941
545.867
545.842
545.799
545.75
545.648
545.535
545.378
545.188
544.978
544.751
544.508
543.969
543.857
543.721
543.607
543.528
543.455
543.378
543.297
543.214
543.132
543.048
542.962
542.874
542.785
542.694
542.602
542.509
542.416
542.322
542.228
542.133
542.038
541.943
541.847
541.751
541.656
541.56
541.464
541.368
541.272
541.176
541.079
540.983
540.887
540.791
540.694
540.598
552.481
552.351
552.232
552.123
552.022
551.928
551.841
551.759
551.683
551.615
551.554
551.498
551.437
551.36
551.34
551.323
551.214
551.107
550.964
550.862
550.789
550.684
550.667
550.731
550.802
550.828
550.672
550.659
550.692
550.534
550.369
550.175
550.078
550.214
550.38
550.355
549.957
549.643
549.624
549.661
549.843
549.833
549.663
549.386
548.976
548.958
549.035
549.097
549.056
548.586
547.984
547.327
547.528
547.098
546.903
547.207
547.302
547.733
547.795
547.743
547.637
547.542
547.396
547.259
547.083
547.07
546.818
546.703
546.544
546.313
546.206
546.069
545.974
545.897
545.793
545.69
545.559
545.412
545.25
545.072
544.807
544.409
544.177
543.911
543.753
543.64
543.56
543.476
543.417
543.352
543.273
543.194
543.118
543.038
542.955
542.869
542.781
542.691
542.6
542.507
542.414
542.321
542.227
542.132
542.037
541.942
541.847
541.751
541.655
541.56
541.464