/*--------------------------------*- C++ -*----------------------------------*\
  =========                 |
  \\      /  F ield         | OpenFOAM: The Open Source CFD Toolbox
   \\    /   O peration     | Website:  https://openfoam.org
    \\  /    A nd           | Version:  6
     \\/     M anipulation  |
\*---------------------------------------------------------------------------*/
FoamFile
{
    version     2.0;
    format      ascii;
    class       volVectorField;
    location    "4400";
    object      U;
}
// * * * * * * * * * * * * * * * * * * * * * * * * * * * * * * * * * * * * * //

dimensions      [0 1 -1 0 0 0 0];

internalField   nonuniform List<vector> 
4800
(
(-8.62205e-05 0 -5.66649e-05)
(7.33948e-05 0 -3.24252e-05)
(4.19507e-05 0 -4.56551e-05)
(-3.84591e-06 0 -6.8968e-05)
(-2.15125e-05 0 -4.30194e-05)
(-3.16374e-05 0 -2.02009e-05)
(-6.40818e-05 0 6.1124e-06)
(-9.3975e-05 0 2.22422e-05)
(-0.000127873 0 2.00246e-05)
(-0.000202475 0 -4.65153e-05)
(-0.000245653 0 -4.52039e-05)
(-0.000265003 0 2.50288e-05)
(-0.000383368 0 -2.09573e-05)
(-0.000608835 0 -0.000111347)
(-0.000732336 0 -5.27269e-05)
(-0.000811881 0 0.000168168)
(-0.000905324 0 -1.51998e-06)
(-0.000986328 0 5.78184e-05)
(-0.00104827 0 4.80812e-05)
(-0.00108911 0 -4.44816e-05)
(-0.00113498 0 -4.15846e-06)
(-0.00118181 0 -3.30265e-05)
(-0.00119705 0 -4.47816e-05)
(-0.00118789 0 -7.54398e-05)
(-0.00116402 0 -0.000179551)
(-0.00110146 0 -6.95333e-05)
(-0.000899187 0 -0.000166526)
(-0.000727641 0 -0.000213161)
(-0.000638172 0 -0.000209408)
(-0.000588408 0 1.4422e-05)
(-0.000365729 0 -0.000242223)
(-0.000171303 0 -3.18358e-05)
(-3.69979e-05 0 1.76414e-05)
(8.2153e-05 0 -5.48077e-06)
(0.000132823 0 -4.49566e-05)
(0.00018555 0 -7.17387e-05)
(0.000165333 0 -8.57316e-05)
(0.000133748 0 -6.23376e-05)
(8.77264e-05 0 -2.82099e-05)
(-6.53152e-05 0 1.84813e-05)
(-0.000212386 0 3.71969e-05)
(-0.000239218 0 -7.66063e-07)
(-0.000261442 0 -2.12589e-05)
(-0.00027843 0 -2.29881e-05)
(-0.000285173 0 -1.15542e-05)
(-0.00028387 0 -1.27054e-05)
(-0.00027463 0 -3.37449e-05)
(-0.000264108 0 -5.71843e-05)
(-0.000249686 0 -0.000124677)
(-0.00025233 0 -0.000118949)
(-0.000253844 0 -8.35126e-05)
(-0.000295903 0 2.1552e-05)
(-0.000369394 0 7.87157e-05)
(-0.000407913 0 2.08056e-06)
(-0.00042924 0 -2.76262e-05)
(-0.000465638 0 8.47905e-05)
(-0.000517702 0 6.00773e-05)
(-0.000571479 0 2.6207e-05)
(-0.000635824 0 8.43644e-05)
(-0.000691481 0 3.12981e-05)
(-0.000719011 0 2.56758e-05)
(-0.000721486 0 1.18053e-05)
(-0.000656252 0 -4.89773e-05)
(-0.00059463 0 -3.57126e-06)
(-0.000552118 0 -7.81464e-05)
(-0.000457005 0 -2.98625e-05)
(-0.000334226 0 -8.26579e-05)
(-0.000172649 0 -0.000195064)
(0.000104893 0 -0.000117066)
(0.00025793 0 -9.26267e-05)
(0.000425392 0 -9.04078e-05)
(0.000566519 0 -8.53252e-05)
(0.000642681 0 -1.37498e-06)
(0.000712379 0 -5.81624e-05)
(0.000729912 0 -3.91249e-05)
(0.000719718 0 6.0735e-06)
(0.000697471 0 5.35212e-05)
(0.000629527 0 2.53199e-06)
(0.000495439 0 0.000111222)
(0.00022095 0 -5.48129e-05)
(2.6493e-06 0 0.000166269)
(-1.23647e-13 0 3.89506e-13)
(-1.36071e-12 0 1.79183e-13)
(-8.14918e-13 0 8.01803e-14)
(-9.2203e-13 0 2.82656e-14)
(-9.4762e-13 0 -1.16094e-15)
(-9.25741e-13 0 -1.91025e-14)
(-8.7416e-13 0 -3.07877e-14)
(-8.02788e-13 0 -3.88346e-14)
(-7.17567e-13 0 -4.45984e-14)
(-6.22377e-13 0 -4.87859e-14)
(-5.20037e-13 0 -5.17568e-14)
(-4.12833e-13 0 -5.36828e-14)
(-3.02804e-13 0 -5.46381e-14)
(-1.91885e-13 0 -5.4653e-14)
(-8.19564e-14 0 -5.37463e-14)
(2.51503e-14 0 -5.19445e-14)
(1.2768e-13 0 -4.92923e-14)
(2.23995e-13 0 -4.58562e-14)
(3.12617e-13 0 -4.17243e-14)
(3.92268e-13 0 -3.70025e-14)
(4.61899e-13 0 -3.18096e-14)
(5.20706e-13 0 -2.62713e-14)
(5.68141e-13 0 -2.05137e-14)
(6.039e-13 0 -1.46586e-14)
(6.27915e-13 0 -8.81926e-15)
(6.40329e-13 0 -3.09675e-15)
(6.41472e-13 0 2.42133e-15)
(6.31833e-13 0 7.66189e-15)
(6.1203e-13 0 1.25662e-14)
(5.82783e-13 0 1.70888e-14)
(5.4489e-13 0 2.11965e-14)
(4.99206e-13 0 2.48663e-14)
(4.46621e-13 0 2.80839e-14)
(3.88047e-13 0 3.08414e-14)
(3.24409e-13 0 3.31361e-14)
(2.56632e-13 0 3.49687e-14)
(1.85638e-13 0 3.63428e-14)
(1.12338e-13 0 3.72667e-14)
(3.76123e-14 0 3.77632e-14)
(-8.22867e-05 0 1.92219e-05)
(4.5535e-06 0 2.13138e-05)
(-5.42576e-05 0 5.05249e-05)
(-8.09246e-05 0 4.78563e-05)
(-8.12972e-05 0 3.47714e-05)
(-8.84829e-05 0 2.8024e-05)
(-0.000114292 0 1.4184e-05)
(-0.000142128 0 4.89709e-05)
(-0.000164805 0 7.07427e-05)
(-0.000221936 0 0.00012251)
(-0.00039308 0 0.000127059)
(-0.000495182 0 0.000197137)
(-0.000575246 0 0.000233379)
(-0.000709868 0 0.000143796)
(-0.000767888 0 0.000227212)
(-0.00095414 0 8.05924e-05)
(-0.00106922 0 6.37299e-05)
(-0.00113693 0 5.8695e-05)
(-0.00119308 0 4.87549e-05)
(-0.00124366 0 9.39076e-05)
(-0.00128479 0 7.84758e-05)
(-0.00130691 0 0.000101954)
(-0.00130366 0 7.75149e-05)
(-0.00123737 0 -6.6756e-06)
(-0.00120403 0 -5.30051e-05)
(-0.00117967 0 -0.000124648)
(-0.00110323 0 -0.000212028)
(-0.000951068 0 -0.000284706)
(-0.000824552 0 -0.000116329)
(-0.000742589 0 7.69012e-05)
(-0.000401703 0 -0.000636331)
(-0.000408036 0 -0.000198329)
(-0.000259299 0 -0.000230262)
(-0.000174366 0 -0.000287607)
(-0.000149861 0 -0.000258969)
(6.17261e-05 0 -0.00016244)
(-7.21781e-06 0 -7.49479e-05)
(5.63955e-06 0 0.000138171)
(-8.88501e-05 0 0.000169408)
(-0.000166216 0 0.000141804)
(-0.000261776 0 9.69576e-05)
(-0.000303791 0 5.4799e-05)
(-0.000316523 0 4.632e-05)
(-0.000319827 0 3.18052e-05)
(-0.000311728 0 4.51916e-06)
(-0.000299713 0 -3.73415e-06)
(-0.000292702 0 1.01889e-05)
(-0.000299666 0 3.08613e-05)
(-0.00040255 0 8.57416e-05)
(-0.000477206 0 7.18669e-05)
(-0.00048834 0 6.19668e-05)
(-0.00048331 0 4.93122e-05)
(-0.000484601 0 3.38374e-05)
(-0.000533608 0 -2.98618e-06)
(-0.000598803 0 6.49595e-05)
(-0.000685841 0 5.21575e-05)
(-0.000782173 0 4.63911e-05)
(-0.000850807 0 0.000120071)
(-0.000903246 0 4.23976e-05)
(-0.000916382 0 6.00461e-05)
(-0.000925342 0 2.20682e-05)
(-0.000930316 0 2.20352e-06)
(-0.000858328 0 -0.000282401)
(-0.000823808 0 -3.78868e-05)
(-0.000752342 0 -0.000102801)
(-0.000663832 0 -0.000186944)
(-0.000499974 0 -0.000343695)
(-0.000398274 0 -0.000305727)
(-0.000345355 0 -0.000309687)
(-0.000209127 0 -0.000457892)
(0.000178202 0 -0.00025315)
(0.000350886 0 -0.000125458)
(0.000359826 0 -0.000198534)
(0.000502225 0 5.34247e-05)
(0.000496982 0 -8.42054e-05)
(0.000511394 0 -3.9583e-05)
(0.00050634 0 5.73832e-05)
(0.000452123 0 0.000106326)
(0.000391615 0 0.000128618)
(-1.36303e-05 0 0.000219958)
(2.70762e-06 0 0.000340663)
(-2.99115e-13 0 9.20088e-13)
(-1.65735e-12 0 4.33093e-13)
(-9.65835e-13 0 1.941e-13)
(-1.00337e-12 0 6.29622e-14)
(-9.94988e-13 0 -1.42986e-14)
(-9.55368e-13 0 -6.28811e-14)
(-8.93892e-13 0 -9.53123e-14)
(-8.16599e-13 0 -1.18099e-13)
(-7.27518e-13 0 -1.34694e-13)
(-6.29536e-13 0 -1.46915e-13)
(-5.24934e-13 0 -1.55682e-13)
(-4.15714e-13 0 -1.6142e-13)
(-3.03774e-13 0 -1.64295e-13)
(-1.90993e-13 0 -1.64365e-13)
(-7.92479e-14 0 -1.61664e-13)
(2.96042e-14 0 -1.5626e-13)
(1.33768e-13 0 -1.48281e-13)
(2.31563e-13 0 -1.37925e-13)
(3.21471e-13 0 -1.2546e-13)
(4.02183e-13 0 -1.11208e-13)
(4.7263e-13 0 -9.55312e-14)
(5.32002e-13 0 -7.88119e-14)
(5.79753e-13 0 -6.1435e-14)
(6.15594e-13 0 -4.37709e-14)
(6.39477e-13 0 -2.61627e-14)
(6.51569e-13 0 -8.91661e-15)
(6.52231e-13 0 7.70315e-15)
(6.41978e-13 0 2.3477e-14)
(6.21457e-13 0 3.82292e-14)
(5.91413e-13 0 5.18247e-14)
(5.52668e-13 0 6.41653e-14)
(5.06093e-13 0 7.51841e-14)
(4.52596e-13 0 8.48399e-14)
(3.93099e-13 0 9.31113e-14)
(3.28536e-13 0 9.99914e-14)
(2.59839e-13 0 1.05483e-13)
(1.87936e-13 0 1.09596e-13)
(1.13759e-13 0 1.12345e-13)
(3.81088e-14 0 1.13754e-13)
(-7.93114e-05 0 5.60591e-06)
(-6.15107e-05 0 2.1209e-05)
(-7.42688e-05 0 3.51254e-05)
(-8.2152e-05 0 2.08656e-05)
(-8.02324e-05 0 1.59889e-05)
(-8.66827e-05 0 6.9347e-05)
(-0.000110578 0 0.000112771)
(-0.000168867 0 0.000131597)
(-0.000231632 0 0.000126576)
(-0.000273702 0 0.000201172)
(-0.000499648 0 0.000230232)
(-0.000684778 0 0.000176797)
(-0.000681663 0 0.000280525)
(-0.000638044 0 0.000456972)
(-0.000875505 0 0.000225054)
(-0.0010006 0 0.000219667)
(-0.00107195 0 0.000292982)
(-0.00116802 0 0.000188726)
(-0.00122868 0 0.000156559)
(-0.00126695 0 0.000117144)
(-0.00129375 0 6.67474e-05)
(-0.00130718 0 2.66962e-05)
(-0.00130565 0 -3.9537e-05)
(-0.00122774 0 -0.000237024)
(-0.00118954 0 -0.000189616)
(-0.00118295 0 -0.000206726)
(-0.00119143 0 -0.00023137)
(-0.00110945 0 -0.000324398)
(-0.0009275 0 -0.000357771)
(-0.000794714 0 -0.000371483)
(-0.000787461 0 -0.000226124)
(-0.000560792 0 -0.000482464)
(-0.000534639 0 -0.000336351)
(-0.000452152 0 -0.00029343)
(-0.000481744 0 -5.32018e-05)
(-0.000312791 0 0.000296386)
(-0.000313902 0 -2.1955e-05)
(-0.000225598 0 0.00012827)
(-0.000207006 0 0.000245872)
(-0.000249789 0 0.000204756)
(-0.000286049 0 0.000142518)
(-0.000342156 0 4.78877e-05)
(-0.000353366 0 3.76626e-05)
(-0.000352129 0 9.80766e-06)
(-0.000347135 0 -2.6575e-05)
(-0.000342004 0 -2.58969e-05)
(-0.000342461 0 -1.47214e-05)
(-0.00037852 0 6.04289e-05)
(-0.000434855 0 0.000106583)
(-0.000487065 0 9.7033e-05)
(-0.000544287 0 5.41359e-05)
(-0.000589999 0 5.52942e-05)
(-0.000612942 0 0.000103861)
(-0.000674867 0 0.000107614)
(-0.000785636 0 0.000148366)
(-0.000875598 0 0.000176832)
(-0.000928901 0 0.000162391)
(-0.00095606 0 0.000154604)
(-0.000973726 0 0.000131247)
(-0.000957738 0 1.04575e-05)
(-0.000929554 0 1.58185e-05)
(-0.000932429 0 -3.14589e-06)
(-0.000943805 0 -3.85576e-05)
(-0.000842084 0 -0.000366721)
(-0.00084236 0 -9.66867e-05)
(-0.000761049 0 -0.000267814)
(-0.000641961 0 -0.000419118)
(-0.000617058 0 -0.000327449)
(-0.000529735 0 -0.000423521)
(-0.000318894 0 -0.000592582)
(-0.000313343 0 -0.000498038)
(-0.000126512 0 -0.000456631)
(0.00017413 0 -0.000216931)
(0.000271989 0 -0.000134554)
(0.000327441 0 -8.33811e-05)
(0.000352548 0 6.83693e-05)
(0.000321888 0 8.62881e-05)
(0.000291991 0 0.000145707)
(0.000310817 0 0.000221097)
(-0.000165441 0 0.000339918)
(2.65259e-06 0 0.000491806)
(-4.96716e-13 0 8.89626e-13)
(-2.05771e-12 0 4.54492e-13)
(-1.18505e-12 0 2.00571e-13)
(-1.13043e-12 0 4.41617e-14)
(-1.07346e-12 0 -5.5733e-14)
(-1.00676e-12 0 -1.22421e-13)
(-9.29378e-13 0 -1.69083e-13)
(-8.42169e-13 0 -2.03149e-13)
(-7.46382e-13 0 -2.28749e-13)
(-6.43366e-13 0 -2.48082e-13)
(-5.34542e-13 0 -2.62223e-13)
(-4.21446e-13 0 -2.7161e-13)
(-3.05749e-13 0 -2.7636e-13)
(-1.89254e-13 0 -2.76463e-13)
(-7.38512e-14 0 -2.71918e-13)
(3.85336e-14 0 -2.62805e-13)
(1.46014e-13 0 -2.49326e-13)
(2.46815e-13 0 -2.31812e-13)
(3.39334e-13 0 -2.10719e-13)
(4.22197e-13 0 -1.86603e-13)
(4.94295e-13 0 -1.60086e-13)
(5.54803e-13 0 -1.31825e-13)
(6.03182e-13 0 -1.02478e-13)
(6.39172e-13 0 -7.2679e-14)
(6.62769e-13 0 -4.30091e-14)
(6.74195e-13 0 -1.39862e-14)
(6.73866e-13 0 1.39464e-14)
(6.62359e-13 0 4.04225e-14)
(6.40377e-13 0 6.51516e-14)
(6.08719e-13 0 8.79133e-14)
(5.6825e-13 0 1.08549e-13)
(5.1988e-13 0 1.26955e-13)
(4.64548e-13 0 1.43067e-13)
(4.03198e-13 0 1.56857e-13)
(3.36781e-13 0 1.68318e-13)
(2.66237e-13 0 1.77458e-13)
(1.925e-13 0 1.84295e-13)
(1.16496e-13 0 1.88845e-13)
(3.90211e-14 0 1.91118e-13)
(-7.74893e-05 0 5.20359e-05)
(-4.3623e-06 0 7.87753e-05)
(-5.93733e-05 0 4.46697e-05)
(-6.32268e-05 0 1.46312e-05)
(-7.2408e-05 0 2.56865e-05)
(-8.41331e-05 0 5.56442e-05)
(-0.00011903 0 0.000107316)
(-0.000184404 0 0.000173726)
(-0.000280834 0 0.000201824)
(-0.000259714 0 0.000362971)
(-0.000445656 0 0.000417034)
(-0.00056177 0 0.000469537)
(-0.000694974 0 0.000397184)
(-0.000803258 0 0.000366721)
(-0.000905226 0 0.000410486)
(-0.000976242 0 0.000388841)
(-0.00105558 0 0.000260024)
(-0.00112143 0 0.000208567)
(-0.00118025 0 0.00019647)
(-0.00122912 0 9.06816e-05)
(-0.00125556 0 6.83328e-05)
(-0.00126279 0 6.61555e-05)
(-0.00126368 0 2.36498e-05)
(-0.00124438 0 -0.000136367)
(-0.00121348 0 -0.0001933)
(-0.00120229 0 -0.000211563)
(-0.00117211 0 -0.000337117)
(-0.00113263 0 -0.000385609)
(-0.00104154 0 -0.000392776)
(-0.000905535 0 -0.000502463)
(-0.000831144 0 -0.0005231)
(-0.000775011 0 -0.000534337)
(-0.000667688 0 -0.00052925)
(-0.000651997 0 -0.000311885)
(-0.000462145 0 -0.000391099)
(-0.000406273 0 -0.000331251)
(-0.000513857 0 0.000108914)
(-0.000411121 0 0.000152179)
(-0.000395414 0 0.000144528)
(-0.000322051 0 0.000217924)
(-0.000331357 0 0.000131484)
(-0.000328904 0 0.000102729)
(-0.000343704 0 5.40496e-05)
(-0.000353593 0 -4.54501e-06)
(-0.000359397 0 -5.35047e-06)
(-0.000361153 0 -6.48724e-06)
(-0.000385734 0 5.65751e-05)
(-0.000435282 0 0.000134064)
(-0.000471244 0 0.000145721)
(-0.000521952 0 3.99439e-05)
(-0.000548838 0 4.53727e-05)
(-0.000600481 0 0.000213032)
(-0.000701688 0 0.000202149)
(-0.000777352 0 0.000202295)
(-0.000831048 0 0.000238592)
(-0.000878049 0 0.000238603)
(-0.000917245 0 0.000178542)
(-0.000939574 0 0.000127922)
(-0.000951831 0 0.000120646)
(-0.000944707 0 1.70715e-05)
(-0.000898394 0 -4.4435e-05)
(-0.000886352 0 -4.41928e-05)
(-0.000885533 0 -0.000107146)
(-0.000894079 0 -0.000115946)
(-0.000823935 0 -0.000273069)
(-0.000796665 0 -0.000295634)
(-0.000708092 0 -0.000469697)
(-0.000683627 0 -0.000472224)
(-0.000597739 0 -0.000586429)
(-0.000532984 0 -0.000621896)
(-0.000442271 0 -0.000620278)
(-0.000330095 0 -0.000529573)
(-0.000262198 0 -0.000384468)
(3.07993e-05 0 -0.000351138)
(0.000171869 0 -1.19659e-05)
(0.000152432 0 6.61743e-05)
(0.000151572 0 0.000107964)
(6.88799e-05 0 0.000258455)
(0.000205568 0 0.000317991)
(-0.000269767 0 0.000430286)
(2.89416e-06 0 0.000602516)
(-7.13306e-13 0 5.85254e-13)
(-2.317e-12 0 3.0886e-13)
(-1.37617e-12 0 1.09148e-13)
(-1.25968e-12 0 -3.1593e-14)
(-1.16157e-12 0 -1.30834e-13)
(-1.06872e-12 0 -2.02452e-13)
(-9.7462e-13 0 -2.559e-13)
(-8.76265e-13 0 -2.97092e-13)
(-7.72451e-13 0 -3.29461e-13)
(-6.63009e-13 0 -3.54785e-13)
(-5.48462e-13 0 -3.73807e-13)
(-4.29851e-13 0 -3.86672e-13)
(-3.08627e-13 0 -3.93245e-13)
(-1.86552e-13 0 -3.9333e-13)
(-6.55903e-14 0 -3.86813e-13)
(5.21969e-14 0 -3.7375e-13)
(1.64762e-13 0 -3.54406e-13)
(2.70169e-13 0 -3.29261e-13)
(3.66679e-13 0 -2.98979e-13)
(4.52816e-13 0 -2.64377e-13)
(5.27409e-13 0 -2.26371e-13)
(5.8961e-13 0 -1.85921e-13)
(6.38899e-13 0 -1.43986e-13)
(6.75063e-13 0 -1.01481e-13)
(6.98169e-13 0 -5.92426e-14)
(7.08525e-13 0 -1.80072e-14)
(7.0664e-13 0 2.15989e-14)
(6.93183e-13 0 5.90644e-14)
(6.68947e-13 0 9.39891e-14)
(6.34811e-13 0 1.26075e-13)
(5.91709e-13 0 1.55112e-13)
(5.40611e-13 0 1.80968e-13)
(4.82498e-13 0 2.03569e-13)
(4.1835e-13 0 2.22885e-13)
(3.49137e-13 0 2.38919e-13)
(2.75816e-13 0 2.51694e-13)
(1.99323e-13 0 2.61239e-13)
(1.20581e-13 0 2.67584e-13)
(4.0381e-14 0 2.70749e-13)
(-6.14622e-05 0 7.79861e-05)
(-1.20743e-05 0 9.24633e-05)
(-4.6397e-05 0 6.24427e-05)
(-4.94165e-05 0 5.3882e-05)
(-7.48288e-05 0 6.3372e-05)
(-0.000119494 0 9.08942e-05)
(-0.0001647 0 0.000115539)
(-0.000146376 0 0.000252806)
(-0.000230059 0 0.000335528)
(-0.000406288 0 0.000385024)
(-0.000465868 0 0.000512304)
(-0.000594153 0 0.000486972)
(-0.000657147 0 0.000502883)
(-0.000781801 0 0.000484383)
(-0.000868124 0 0.000494002)
(-0.000935478 0 0.000449941)
(-0.00100412 0 0.000355281)
(-0.00108975 0 0.000255897)
(-0.00113874 0 0.000250347)
(-0.00116923 0 0.000193108)
(-0.00117927 0 0.000162957)
(-0.00118344 0 3.51966e-05)
(-0.00117139 0 -3.76918e-05)
(-0.00117004 0 -0.000173714)
(-0.00116972 0 -0.000206542)
(-0.00114929 0 -0.000235077)
(-0.00114841 0 -0.000313964)
(-0.00115626 0 -0.000359937)
(-0.00108004 0 -0.000499852)
(-0.00100229 0 -0.000568126)
(-0.00101036 0 -0.000512138)
(-0.000914502 0 -0.000655117)
(-0.000965481 0 -0.000351418)
(-0.000844414 0 -0.000260066)
(-0.000810249 0 -8.66652e-05)
(-0.000730424 0 3.02461e-05)
(-0.0006325 0 -0.000114775)
(-0.000562 0 5.83449e-05)
(-0.000446524 0 0.000205039)
(-0.000382249 0 0.000150817)
(-0.000315536 0 0.00015884)
(-0.000326703 0 6.47537e-05)
(-0.000309133 0 6.11381e-05)
(-0.000324108 0 1.42217e-05)
(-0.000352513 0 -1.73488e-05)
(-0.000358983 0 3.89209e-06)
(-0.000368225 0 8.54481e-05)
(-0.000407858 0 0.000176309)
(-0.000443562 0 0.000216598)
(-0.000485166 0 0.000212881)
(-0.000556128 0 0.000132846)
(-0.000619618 0 0.000113173)
(-0.00068526 0 0.000225043)
(-0.000756713 0 0.00024884)
(-0.00081339 0 0.000255229)
(-0.000851883 0 0.000247343)
(-0.000866805 0 0.000219183)
(-0.000859358 0 0.000162917)
(-0.000853498 0 0.000153885)
(-0.000864158 0 -7.68974e-06)
(-0.000812138 0 -0.000127571)
(-0.000793712 0 -3.99958e-05)
(-0.000785235 0 -0.000105247)
(-0.000792559 0 -0.000194195)
(-0.000770168 0 -0.000295998)
(-0.000783258 0 -0.000343299)
(-0.000697274 0 -0.000518542)
(-0.000753102 0 -0.000477678)
(-0.000649755 0 -0.000659132)
(-0.000712484 0 -0.000618329)
(-0.000510957 0 -0.000779508)
(-0.000598299 0 -0.00053794)
(-0.00040977 0 -0.000450532)
(-0.000305126 0 -0.000326261)
(-0.00014206 0 -0.000200597)
(1.10099e-05 0 4.50522e-07)
(6.21422e-05 0 8.38917e-05)
(6.80035e-05 0 0.000192978)
(0.000262588 0 0.000264635)
(-0.000305571 0 0.00044754)
(3.2031e-06 0 0.000667384)
(-9.11409e-13 0 1.93963e-13)
(-2.51568e-12 0 8.93986e-14)
(-1.5255e-12 0 -4.1585e-14)
(-1.37041e-12 0 -1.49232e-13)
(-1.24432e-12 0 -2.33956e-13)
(-1.13182e-12 0 -3.01049e-13)
(-1.02402e-12 0 -3.55345e-13)
(-9.15731e-13 0 -4.002e-13)
(-8.04075e-13 0 -4.37511e-13)
(-6.87711e-13 0 -4.68029e-13)
(-5.66429e-13 0 -4.91724e-13)
(-4.40884e-13 0 -5.08139e-13)
(-3.12408e-13 0 -5.16672e-13)
(-1.82821e-13 0 -5.16794e-13)
(-5.4271e-14 0 -5.08198e-13)
(7.09397e-14 0 -4.9088e-13)
(1.90504e-13 0 -4.65168e-13)
(3.02243e-13 0 -4.31708e-13)
(4.04217e-13 0 -3.9142e-13)
(4.94805e-13 0 -3.45428e-13)
(5.72752e-13 0 -2.94988e-13)
(6.37187e-13 0 -2.41412e-13)
(6.87621e-13 0 -1.85997e-13)
(7.23916e-13 0 -1.29971e-13)
(7.46243e-13 0 -7.44434e-14)
(7.55036e-13 0 -2.03839e-14)
(7.50937e-13 0 3.1396e-14)
(7.34749e-13 0 8.02437e-14)
(7.07388e-13 0 1.25658e-13)
(6.69842e-13 0 1.67273e-13)
(6.23143e-13 0 2.04845e-13)
(5.68337e-13 0 2.38225e-13)
(5.06464e-13 0 2.67343e-13)
(4.38549e-13 0 2.92183e-13)
(3.6559e-13 0 3.12771e-13)
(2.88556e-13 0 3.29151e-13)
(2.0839e-13 0 3.41376e-13)
(1.26006e-13 0 3.49495e-13)
(4.21864e-14 0 3.53543e-13)
(-6.17057e-05 0 8.45912e-05)
(-2.38949e-05 0 0.000100894)
(-4.62292e-05 0 7.15692e-05)
(-5.23232e-05 0 6.49937e-05)
(-0.000111902 0 4.69737e-05)
(-0.00015087 0 0.000151212)
(-0.000159299 0 0.000229554)
(-0.000220935 0 0.000276478)
(-0.000313171 0 0.000384915)
(-0.000410665 0 0.000534539)
(-0.000448351 0 0.000647416)
(-0.000545409 0 0.000619789)
(-0.000629988 0 0.000577565)
(-0.000796848 0 0.000484633)
(-0.000816151 0 0.000543822)
(-0.000873702 0 0.000497088)
(-0.000964088 0 0.000368813)
(-0.00101465 0 0.000357252)
(-0.00105194 0 0.000316231)
(-0.00106831 0 0.000198018)
(-0.00107993 0 6.85795e-05)
(-0.00109479 0 5.07272e-05)
(-0.00109874 0 -9.79046e-05)
(-0.00109335 0 -0.000152726)
(-0.00107631 0 -0.00020299)
(-0.00107147 0 -0.000316188)
(-0.00111488 0 -0.00041734)
(-0.00113 0 -0.000442905)
(-0.0011052 0 -0.000522408)
(-0.00109577 0 -0.000600221)
(-0.0010784 0 -0.000661987)
(-0.00110099 0 -0.000652833)
(-0.000984444 0 -0.000737112)
(-0.000937717 0 -0.000557073)
(-0.000962276 0 -0.000277249)
(-0.000902995 0 -0.000243939)
(-0.000849605 0 -7.894e-06)
(-0.000680702 0 -7.50311e-05)
(-0.000547679 0 -4.04248e-06)
(-0.000426533 0 5.53332e-05)
(-0.000313247 0 9.79438e-05)
(-0.000264039 0 7.62464e-05)
(-0.00025306 0 5.68133e-05)
(-0.000258883 0 4.35507e-05)
(-0.000300112 0 2.20926e-05)
(-0.000343199 0 9.38833e-06)
(-0.000354158 0 7.85108e-05)
(-0.000362369 0 0.000217499)
(-0.000408909 0 0.000244249)
(-0.000455201 0 0.000233141)
(-0.00051281 0 0.000236039)
(-0.000577308 0 0.000255619)
(-0.000633763 0 0.000295648)
(-0.000697307 0 0.000307163)
(-0.000744404 0 0.000316852)
(-0.000766885 0 0.000315409)
(-0.000773706 0 0.00023967)
(-0.000736303 0 8.73871e-05)
(-0.000694373 0 5.68209e-05)
(-0.000683556 0 3.25354e-05)
(-0.00067471 0 -3.87686e-05)
(-0.00063834 0 -0.000170755)
(-0.000638688 0 -0.000133574)
(-0.000619515 0 -0.000197304)
(-0.000572267 0 -0.000405086)
(-0.000712908 0 -0.00029584)
(-0.000559604 0 -0.000621257)
(-0.000762604 0 -0.0004827)
(-0.000640772 0 -0.00070995)
(-0.00072907 0 -0.000682627)
(-0.000710187 0 -0.000734399)
(-0.00062657 0 -0.000757862)
(-0.00052873 0 -0.000648879)
(-0.000426288 0 -0.000453084)
(-0.000235358 0 -0.000355942)
(-0.000159449 0 -0.000175409)
(-6.00575e-05 0 -6.63957e-05)
(-3.17989e-05 0 0.00020589)
(0.000233847 0 0.000283282)
(-0.00043214 0 0.000414434)
(3.92965e-06 0 0.000733998)
(-1.1897e-12 0 -1.3662e-15)
(-2.55558e-12 0 -1.22734e-13)
(-1.6148e-12 0 -2.16102e-13)
(-1.45205e-12 0 -2.90299e-13)
(-1.31339e-12 0 -3.55231e-13)
(-1.19011e-12 0 -4.12962e-13)
(-1.07377e-12 0 -4.64729e-13)
(-9.58432e-13 0 -5.11311e-13)
(-8.4028e-13 0 -5.52765e-13)
(-7.17222e-13 0 -5.88442e-13)
(-5.88572e-13 0 -6.17201e-13)
(-4.54799e-13 0 -6.37695e-13)
(-3.17283e-13 0 -6.48643e-13)
(-1.78078e-13 0 -6.4904e-13)
(-3.9676e-14 0 -6.38305e-13)
(9.52275e-14 0 -6.16346e-13)
(2.23934e-13 0 -5.83574e-13)
(3.43917e-13 0 -5.40852e-13)
(4.5296e-13 0 -4.89417e-13)
(5.49249e-13 0 -4.30778e-13)
(6.31425e-13 0 -3.66605e-13)
(6.986e-13 0 -2.98626e-13)
(7.5034e-13 0 -2.28529e-13)
(7.86617e-13 0 -1.57894e-13)
(8.07756e-13 0 -8.81309e-14)
(8.14364e-13 0 -2.04536e-14)
(8.07267e-13 0 4.41394e-14)
(7.87445e-13 0 1.04861e-13)
(7.55977e-13 0 1.61122e-13)
(7.13998e-13 0 2.12509e-13)
(6.62661e-13 0 2.58761e-13)
(6.03109e-13 0 2.99735e-13)
(5.36456e-13 0 3.35385e-13)
(4.63778e-13 0 3.65728e-13)
(3.86105e-13 0 3.90825e-13)
(3.04421e-13 0 4.10759e-13)
(2.19667e-13 0 4.25616e-13)
(1.32748e-13 0 4.35472e-13)
(4.44296e-14 0 4.40385e-13)
(-5.29427e-05 0 0.000109036)
(-2.35267e-06 0 0.000119661)
(-4.8177e-05 0 8.77244e-05)
(-6.0499e-05 0 8.14505e-05)
(-0.000100191 0 0.000122978)
(-7.28862e-05 0 0.000226)
(-0.000215792 0 0.000242855)
(-0.000298208 0 0.000343826)
(-0.000331898 0 0.000505563)
(-0.000524136 0 0.000580515)
(-0.000555813 0 0.000673015)
(-0.000588829 0 0.000681614)
(-0.000644785 0 0.000633099)
(-0.000697344 0 0.000611059)
(-0.000729423 0 0.000600046)
(-0.000774477 0 0.000543784)
(-0.000810311 0 0.000491593)
(-0.000878204 0 0.000426418)
(-0.000898125 0 0.000403683)
(-0.000985136 0 0.000107869)
(-0.000989463 0 0.000117825)
(-0.00101881 0 8.54233e-05)
(-0.00102639 0 -2.07388e-05)
(-0.00101295 0 -0.00011954)
(-0.00101064 0 -0.00017509)
(-0.00106763 0 -0.000244661)
(-0.00114867 0 -0.000119818)
(-0.00110533 0 -0.000431562)
(-0.00110415 0 -0.000570204)
(-0.00118938 0 -0.000544154)
(-0.00122231 0 -0.00059734)
(-0.00125478 0 -0.000599566)
(-0.00128607 0 -0.000536015)
(-0.00127713 0 -0.000345378)
(-0.00118837 0 -0.000352523)
(-0.00116083 0 -0.000131631)
(-0.000991968 0 -0.000186586)
(-0.000798689 0 -0.000239902)
(-0.000638344 0 -8.22741e-05)
(-0.000468946 0 -5.67365e-05)
(-0.000314593 0 -3.32938e-05)
(-0.000206409 0 3.50719e-05)
(-0.000166189 0 6.65747e-05)
(-0.000188126 0 5.73458e-05)
(-0.000205479 0 8.00744e-05)
(-0.00027866 0 6.74513e-05)
(-0.000313303 0 0.000102961)
(-0.000316289 0 0.000225384)
(-0.000336015 0 0.000301295)
(-0.000412108 0 0.000265352)
(-0.00045535 0 0.000288151)
(-0.000527216 0 0.000320389)
(-0.000570112 0 0.000352639)
(-0.00060413 0 0.000357743)
(-0.000637841 0 0.000335896)
(-0.00065308 0 0.000314324)
(-0.000703299 0 7.15939e-05)
(-0.000640469 0 1.84229e-05)
(-0.000584687 0 3.07959e-05)
(-0.000555277 0 -2.7246e-05)
(-0.000547288 0 -3.9028e-05)
(-0.000552659 0 -4.20339e-05)
(-0.000543852 0 -9.55317e-05)
(-0.000522384 0 -0.000135)
(-0.000456329 0 -0.000351031)
(-0.000625476 0 -0.000164142)
(-0.000521058 0 -0.000489507)
(-0.00061773 0 -0.000515305)
(-0.000681548 0 -0.000617638)
(-0.000741329 0 -0.000689476)
(-0.000727075 0 -0.00076367)
(-0.000753489 0 -0.000756013)
(-0.000712615 0 -0.000713696)
(-0.000575725 0 -0.000612185)
(-0.000436917 0 -0.000438441)
(-0.000316083 0 -0.000252967)
(-0.000221651 0 -7.84188e-05)
(-7.56577e-05 0 0.000124576)
(0.000131138 0 0.000296214)
(-0.000420391 0 0.000525805)
(3.75719e-06 0 0.000714866)
(-1.321e-12 0 -6.05741e-13)
(-2.76746e-12 0 -4.14884e-13)
(-1.69307e-12 0 -4.10349e-13)
(-1.50954e-12 0 -4.41256e-13)
(-1.36698e-12 0 -4.84353e-13)
(-1.24132e-12 0 -5.31485e-13)
(-1.12237e-12 0 -5.79929e-13)
(-1.00377e-12 0 -6.28144e-13)
(-8.81206e-13 0 -6.74342e-13)
(-7.52147e-13 0 -7.16258e-13)
(-6.15681e-13 0 -7.51356e-13)
(-4.72326e-13 0 -7.77135e-13)
(-3.23753e-13 0 -7.91423e-13)
(-1.72483e-13 0 -7.92599e-13)
(-2.15768e-14 0 -7.79737e-13)
(1.25671e-13 0 -7.52656e-13)
(2.65998e-13 0 -7.11896e-13)
(3.96399e-13 0 -6.58623e-13)
(5.14291e-13 0 -5.94499e-13)
(6.17617e-13 0 -5.21526e-13)
(7.04904e-13 0 -4.41894e-13)
(7.75263e-13 0 -3.57833e-13)
(8.28353e-13 0 -2.71497e-13)
(8.64314e-13 0 -1.84864e-13)
(8.83683e-13 0 -9.9676e-14)
(8.87307e-13 0 -1.74019e-14)
(8.76252e-13 0 6.07754e-14)
(8.51732e-13 0 1.33948e-13)
(8.15036e-13 0 2.0146e-13)
(7.67481e-13 0 2.62877e-13)
(7.10369e-13 0 3.17947e-13)
(6.44961e-13 0 3.66562e-13)
(5.72456e-13 0 4.08725e-13)
(4.93989e-13 0 4.4451e-13)
(4.10621e-13 0 4.74035e-13)
(3.23347e-13 0 4.97437e-13)
(2.33103e-13 0 5.14851e-13)
(1.40775e-13 0 5.2639e-13)
(4.7099e-14 0 5.32137e-13)
(-3.9568e-05 0 0.000134128)
(-1.51758e-05 0 0.000132926)
(-5.84535e-05 0 0.000105486)
(-4.32676e-05 0 0.000126887)
(-0.00013838 0 0.000118987)
(-0.000151877 0 0.00020741)
(-0.000160677 0 0.000320157)
(-0.000175544 0 0.000501109)
(-0.000357416 0 0.000604418)
(-0.000409768 0 0.000732922)
(-0.000592316 0 0.000705965)
(-0.000606972 0 0.000728617)
(-0.000558799 0 0.000749347)
(-0.000651529 0 0.000637022)
(-0.000652602 0 0.000595897)
(-0.000580041 0 0.00060268)
(-0.00062009 0 0.000492534)
(-0.000635084 0 0.000449587)
(-0.000644319 0 0.000427504)
(-0.000754248 0 0.000256658)
(-0.000849535 0 0.000196342)
(-0.00089919 0 0.000151472)
(-0.000933419 0 -7.71632e-06)
(-0.000959914 0 -0.000166605)
(-0.00100959 0 -0.000160241)
(-0.001045 0 -0.000161632)
(-0.00104197 0 -0.00027702)
(-0.00106785 0 -0.000363082)
(-0.00117703 0 -0.000379755)
(-0.00121722 0 -0.000530983)
(-0.00125408 0 -0.000619651)
(-0.0013143 0 -0.000608576)
(-0.00133017 0 -0.000617217)
(-0.00136679 0 -0.000527107)
(-0.0014227 0 -0.000250608)
(-0.00131817 0 -0.000324903)
(-0.00114475 0 -0.000464853)
(-0.000954701 0 -0.000422796)
(-0.00077088 0 -0.000257984)
(-0.000535953 0 -0.000249684)
(-0.000331337 0 -0.000146765)
(-0.000177387 0 -4.10136e-05)
(-0.00010471 0 3.17022e-05)
(-6.83874e-05 0 0.000122724)
(-0.000126013 0 0.000130393)
(-0.000221529 0 0.000125812)
(-0.000259115 0 0.000145849)
(-0.000288336 0 0.00021285)
(-0.000275784 0 0.00032765)
(-0.000309495 0 0.000353594)
(-0.000410948 0 0.000307687)
(-0.000430337 0 0.000377881)
(-0.000481302 0 0.00038979)
(-0.000537866 0 0.000342835)
(-0.000552023 0 0.000326488)
(-0.000558394 0 0.000290625)
(-0.000533294 0 0.000221609)
(-0.000488273 0 0.000188946)
(-0.00049151 0 5.10536e-05)
(-0.000479057 0 9.95182e-06)
(-0.000430639 0 -0.000205295)
(-0.000451399 0 -7.18581e-05)
(-0.000428949 0 -0.000122809)
(-0.00044093 0 -0.000116105)
(-0.00044915 0 -0.000189305)
(-0.000404794 0 -0.000357114)
(-0.000568449 0 -0.000196499)
(-0.000445632 0 -0.000505355)
(-0.000601847 0 -0.000501481)
(-0.000663105 0 -0.000665508)
(-0.000745789 0 -0.000736965)
(-0.000762715 0 -0.000779081)
(-0.000768204 0 -0.00078111)
(-0.000737019 0 -0.000710681)
(-0.000572411 0 -0.00060431)
(-0.000486699 0 -0.000387533)
(-0.00040042 0 -0.000266875)
(-0.000327243 0 -0.000123875)
(-0.000134829 0 0.000321557)
(-0.000614142 0 0.00041481)
(4.16725e-06 0 0.000660864)
(-1.44502e-12 0 -1.03488e-12)
(-2.44574e-12 0 -6.17487e-13)
(-1.64117e-12 0 -5.6978e-13)
(-1.52605e-12 0 -5.80718e-13)
(-1.40362e-12 0 -6.10161e-13)
(-1.28568e-12 0 -6.49419e-13)
(-1.17043e-12 0 -6.96068e-13)
(-1.05284e-12 0 -7.47678e-13)
(-9.28393e-13 0 -8.00841e-13)
(-7.94236e-13 0 -8.51481e-13)
(-6.4945e-13 0 -8.95359e-13)
(-4.94866e-13 0 -9.28529e-13)
(-3.32746e-13 0 -9.47703e-13)
(-1.66392e-13 0 -9.50506e-13)
(2.67439e-16 0 -9.35615e-13)
(1.63068e-13 0 -9.02792e-13)
(3.17966e-13 0 -8.52799e-13)
(4.61314e-13 0 -7.87244e-13)
(5.90057e-13 0 -7.0837e-13)
(7.01854e-13 0 -6.18836e-13)
(7.95118e-13 0 -5.21493e-13)
(8.68997e-13 0 -4.19197e-13)
(9.23309e-13 0 -3.14653e-13)
(9.58438e-13 0 -2.103e-13)
(9.75218e-13 0 -1.08241e-13)
(9.74816e-13 0 -1.02074e-14)
(9.58617e-13 0 8.24443e-14)
(9.28129e-13 0 1.68709e-13)
(8.84906e-13 0 2.47898e-13)
(8.30485e-13 0 3.19589e-13)
(7.66347e-13 0 3.8358e-13)
(6.93887e-13 0 4.39835e-13)
(6.14403e-13 0 4.88435e-13)
(5.29088e-13 0 5.29543e-13)
(4.39033e-13 0 5.63361e-13)
(3.45237e-13 0 5.90099e-13)
(2.48619e-13 0 6.09956e-13)
(1.50034e-13 0 6.23095e-13)
(5.01766e-14 0 6.29633e-13)
(-5.38993e-05 0 0.000149158)
(-3.45476e-05 0 0.000139418)
(-5.9279e-05 0 0.000128578)
(-6.74638e-05 0 0.000129743)
(-9.20713e-05 0 0.000172643)
(-0.000128969 0 0.000278564)
(-0.000207511 0 0.000387279)
(-0.000253915 0 0.00057298)
(-0.000362876 0 0.000707779)
(-0.000422277 0 0.000788082)
(-0.000480931 0 0.000804339)
(-0.000482171 0 0.000814179)
(-0.000567426 0 0.000723624)
(-0.000594167 0 0.000620327)
(-0.000522028 0 0.000591326)
(-0.000482354 0 0.00053418)
(-0.000449059 0 0.000500934)
(-0.000449357 0 0.000485256)
(-0.000473998 0 0.000462218)
(-0.00055327 0 0.0004093)
(-0.000677883 0 0.000323437)
(-0.000793762 0 0.000171514)
(-0.000882751 0 1.53622e-05)
(-0.000954702 0 -8.24872e-05)
(-0.00100519 0 -0.000131858)
(-0.00103125 0 -0.000156798)
(-0.00104068 0 -0.000217526)
(-0.00105002 0 -0.000329791)
(-0.00112616 0 -0.000344445)
(-0.00121765 0 -0.000384703)
(-0.00128091 0 -0.000500419)
(-0.00133922 0 -0.000564517)
(-0.00139158 0 -0.000546157)
(-0.00140745 0 -0.000528304)
(-0.00144538 0 -0.000288755)
(-0.00137106 0 -0.000319453)
(-0.0012159 0 -0.000592396)
(-0.00100418 0 -0.000725183)
(-0.000942125 0 -0.00046596)
(-0.000676753 0 -0.000545595)
(-0.000374919 0 -0.0005013)
(-0.000226451 0 -0.000142629)
(-6.3999e-05 0 -2.60995e-05)
(2.10366e-05 0 0.000119973)
(1.33999e-05 0 0.000192847)
(-2.04512e-05 0 0.000219846)
(-9.03689e-05 0 0.000231423)
(-0.000157161 0 0.000264587)
(-0.000231285 0 0.000326901)
(-0.000208349 0 0.000411357)
(-0.00031012 0 0.000388211)
(-0.000369649 0 0.000378415)
(-0.000363201 0 0.000412867)
(-0.000332787 0 0.000439863)