/*--------------------------------*- C++ -*----------------------------------*\
  =========                 |
  \\      /  F ield         | OpenFOAM: The Open Source CFD Toolbox
   \\    /   O peration     | Website:  https://openfoam.org
    \\  /    A nd           | Version:  6
     \\/     M anipulation  |
\*---------------------------------------------------------------------------*/
FoamFile
{
    version     2.0;
    format      ascii;
    class       surfaceScalarField;
    location    "2400";
    object      phi;
}
// * * * * * * * * * * * * * * * * * * * * * * * * * * * * * * * * * * * * * //

dimensions      [0 3 -1 0 0 0 0];

internalField   nonuniform List<scalar> 
9440
(
-8.05724e-12
8.05724e-12
1.23011e-10
-1.31069e-10
-1.06911e-10
2.29921e-10
-6.05672e-10
4.98761e-10
-1.37713e-09
7.7146e-10
-2.18899e-09
8.11855e-10
-2.93299e-09
7.43998e-10
-3.56889e-09
6.35903e-10
-3.98299e-09
4.14097e-10
-4.14882e-09
1.65832e-10
-4.26704e-09
1.18223e-10
-4.27437e-09
7.33209e-12
-4.08988e-09
-1.84496e-10
-3.91322e-09
-1.76659e-10
-3.7248e-09
-1.8842e-10
-3.48651e-09
-2.38288e-10
-3.57006e-09
8.3541e-11
-3.15759e-09
-4.12461e-10
-2.76087e-09
-3.96727e-10
-2.61588e-09
-1.44989e-10
-2.06768e-09
-5.48202e-10
-1.74659e-09
-3.21091e-10
-1.17881e-09
-5.6778e-10
-6.1078e-10
-5.68025e-10
2.29752e-10
-8.40532e-10
4.68069e-10
-2.38316e-10
8.93561e-10
-4.25493e-10
1.39867e-09
-5.05112e-10
1.87674e-09
-4.78065e-10
2.33071e-09
-4.53969e-10
2.68146e-09
-3.50748e-10
2.94447e-09
-2.6301e-10
3.06699e-09
-1.22518e-10
3.17508e-09
-1.08096e-10
3.30784e-09
-1.3275e-10
3.44983e-09
-1.41995e-10
3.50188e-09
-5.20397e-11
3.52112e-09
-1.92414e-11
3.56389e-09
-4.2768e-11
3.50844e-09
5.54545e-11
3.52949e-09
-2.1049e-11
3.64531e-09
-1.15816e-10
3.79751e-09
-1.52191e-10
3.97174e-09
-1.74234e-10
4.14176e-09
-1.7002e-10
4.30448e-09
-1.62712e-10
4.47067e-09
-1.66194e-10
4.668e-09
-1.97333e-10
4.7609e-09
-9.29019e-11
4.70059e-09
6.03167e-11
4.60461e-09
9.59728e-11
4.40975e-09
1.94853e-10
4.1782e-09
2.31554e-10
3.90567e-09
2.72525e-10
3.63476e-09
2.70913e-10
3.38298e-09
2.51777e-10
3.17888e-09
2.04093e-10
3.019e-09
1.59882e-10
2.8704e-09
1.48606e-10
2.74705e-09
1.23345e-10
2.63664e-09
1.10419e-10
2.50151e-09
1.35127e-10
2.30754e-09
1.93978e-10
2.14339e-09
1.64147e-10
2.0876e-09
5.57906e-11
2.01283e-09
7.47755e-11
1.88414e-09
1.28691e-10
2.04858e-09
-1.64445e-10
1.90471e-09
1.43872e-10
1.69896e-09
2.05745e-10
1.21299e-09
4.85968e-10
5.07333e-10
7.05653e-10
-4.60596e-10
9.67925e-10
-1.08508e-09
6.24478e-10
-1.5953e-09
5.10215e-10
-1.84466e-09
2.4936e-10
-1.68249e-09
-1.62173e-10
-1.20836e-09
-4.74127e-10
-4.01618e-10
-8.06748e-10
2.53201e-16
-4.01619e-10
-8.41107e-18
1.13599e-18
-6.7911e-18
-1.61997e-18
-5.40496e-18
-1.38589e-18
-4.48644e-18
-9.17548e-19
-3.9226e-18
-5.62674e-19
-3.55843e-18
-3.63048e-19
-3.28205e-18
-2.75848e-19
-3.02763e-18
-2.54656e-19
-2.76157e-18
-2.67017e-19
-2.46978e-18
-2.93277e-19
-2.14925e-18
-3.22282e-19
-1.80306e-18
-3.47922e-19
-1.43751e-18
-3.67e-19
-1.06054e-18
-3.78034e-19
-6.80699e-19
-3.80585e-19
-3.06501e-19
-3.74845e-19
5.40782e-20
-3.6141e-19
3.93987e-19
-3.41152e-19
7.0728e-19
-3.15106e-19
9.89179e-19
-2.84356e-19
1.23615e-18
-2.49973e-19
1.44592e-18
-2.13031e-19
1.61725e-18
-1.74583e-19
1.74977e-18
-1.35557e-19
1.84388e-18
-9.66738e-20
1.90081e-18
-5.84741e-20
1.92246e-18
-2.14474e-20
1.91107e-18
1.38822e-20
1.86882e-18
4.69877e-20
1.79772e-18
7.74483e-20
1.69972e-18
1.05039e-19
1.57689e-18
1.29727e-19
1.43152e-18
1.51584e-19
1.26605e-18
1.70677e-19
1.08302e-18
1.87004e-19
8.84956e-19
2.0049e-19
6.74497e-19
2.11028e-19
4.54503e-19
2.18526e-19
2.28278e-19
2.22882e-19
2.23668e-19
3.63664e-11
-2.83099e-11
-1.81046e-10
8.6343e-11
-4.90216e-10
5.39089e-10
-9.13462e-10
9.22006e-10
-1.67077e-09
1.52877e-09
-2.36219e-09
1.50328e-09
-3.03869e-09
1.4205e-09
-3.35657e-09
9.53787e-10
-3.65685e-09
7.14372e-10
-3.96166e-09
4.70636e-10
-4.12161e-09
2.78181e-10
-4.12305e-09
8.77106e-12
-3.91135e-09
-3.96199e-10
-3.82509e-09
-2.62918e-10
-3.76152e-09
-2.51994e-10
-3.62922e-09
-3.70587e-10
-3.41149e-09
-1.3419e-10
-3.37982e-09
-4.44135e-10
-3.08827e-09
-6.88272e-10
-2.71039e-09
-5.22871e-10
-2.51349e-09
-7.45107e-10
-2.11014e-09
-7.24442e-10
-1.59299e-09
-1.08492e-09
-1.17684e-09
-9.84179e-10
-8.59218e-10
-1.15815e-09
-3.24403e-10
-7.7313e-10
3.35174e-10
-1.08507e-09
9.22515e-10
-1.09245e-09
1.373e-09
-9.2855e-10
1.75752e-09
-8.3849e-10
2.02261e-09
-6.15834e-10
2.19492e-09
-4.35319e-10
2.4169e-09
-3.44491e-10
2.64109e-09
-3.32286e-10
2.83781e-09
-3.29466e-10
2.97568e-09
-2.79861e-10
3.14831e-09
-2.24665e-10
3.29598e-09
-1.66908e-10
3.3576e-09
-1.04379e-10
3.32435e-09
8.87067e-11
3.41591e-09
-1.12598e-10
3.59216e-09
-2.92066e-10
3.76068e-09
-3.20702e-10
3.94561e-09
-3.59164e-10
4.15307e-09
-3.77482e-10
4.314e-09
-3.23639e-10
4.3819e-09
-2.34094e-10
4.45496e-09
-2.704e-10
4.58835e-09
-2.26293e-10
4.50732e-09
1.41342e-10
4.40305e-09
2.00242e-10
4.2088e-09
3.89096e-10
3.97899e-09
4.61367e-10
3.76015e-09
4.91354e-10
3.50014e-09
5.30925e-10
3.31058e-09
4.41337e-10
3.1753e-09
3.39373e-10
3.00938e-09
3.25799e-10
2.83141e-09
3.26582e-10
2.72408e-09
2.30682e-10
2.53873e-09
2.95772e-10
2.35149e-09
3.22367e-10
2.19414e-09
3.51329e-10
2.12998e-09
2.28313e-10
2.09689e-09
8.8881e-11
2.10817e-09
6.34937e-11
2.15391e-09
8.29529e-11
2.1952e-09
-2.05735e-10
2.24091e-09
9.81577e-11
2.12413e-09
3.22513e-10
1.99577e-09
6.14325e-10
1.76793e-09
9.33494e-10
1.58344e-09
1.15241e-09
1.15971e-09
1.0482e-09
7.74052e-10
8.95867e-10
2.70286e-11
9.96379e-10
-6.9838e-10
5.63232e-10
-8.66666e-10
-3.05845e-10
-4.19536e-10
-1.25388e-09
2.54876e-17
-8.21157e-10
-9.44204e-18
1.43642e-19
-6.55941e-18
-4.50219e-18
-4.93807e-18
-3.00561e-18
-4.13226e-18
-1.72113e-18
-3.72299e-18
-9.70376e-19
-3.4712e-18
-6.14195e-19
-3.26086e-18
-4.86763e-19
-3.03999e-18
-4.77324e-19
-2.78783e-18
-5.21882e-19
-2.49879e-18
-5.85385e-19
-2.17489e-18
-6.49062e-19
-1.82213e-18
-7.03027e-19
-1.44855e-18
-7.42295e-19
-1.06309e-18
-7.64693e-19
-6.74959e-19
-7.69738e-19
-2.93066e-19
-7.58001e-19
7.43367e-20
-7.30737e-19
4.20033e-19
-6.89675e-19
7.3803e-19
-6.36846e-19
1.02356e-18
-5.74412e-19
1.27309e-18
-5.04559e-19
1.48437e-18
-4.29416e-19
1.65628e-18
-3.50957e-19
1.78865e-18
-2.70918e-19
1.88208e-18
-1.90841e-19
1.93784e-18
-1.12187e-19
1.95779e-18
-3.63952e-20
1.94418e-18
3.52201e-20
1.89928e-18
1.0165e-19
1.82531e-18
1.62308e-19
1.72441e-18
2.1699e-19
1.59875e-18
2.65714e-19
1.45061e-18
3.08553e-19
1.28238e-18
3.45545e-19
1.0965e-18
3.76698e-19
8.95494e-19
4.0205e-19
6.81994e-19
4.21727e-19
4.5886e-19
4.35958e-19
2.29064e-19
4.45073e-19
4.49677e-19
-3.21196e-10
2.92886e-10
-1.02778e-09
7.92924e-10
-1.66214e-09
1.17345e-09
-2.05819e-09
1.31806e-09
-2.25833e-09
1.7289e-09
-2.66183e-09
1.90678e-09
-2.89306e-09
1.65172e-09
-3.16057e-09
1.22129e-09
-3.41773e-09
9.71532e-10
-3.5183e-09
5.71203e-10
-3.70948e-09
4.6936e-10
-3.78041e-09
7.97023e-11
-3.8177e-09
-3.58909e-10
-3.8863e-09
-1.94323e-10
-3.82837e-09
-3.09916e-10
-3.78138e-09
-4.17587e-10
-3.40827e-09
-5.07292e-10
-3.29024e-09
-5.6217e-10
-3.00346e-09
-9.75051e-10
-2.69561e-09
-8.30724e-10
-2.57662e-09
-8.64092e-10
-2.22458e-09
-1.07649e-09
-1.91212e-09
-1.39738e-09
-1.56725e-09
-1.32906e-09
-1.13814e-09
-1.58726e-09
-5.32756e-10
-1.37851e-09
-1.96347e-10
-1.42148e-09
2.61949e-10
-1.55075e-09
7.95205e-10
-1.4618e-09
1.21626e-09
-1.25955e-09
1.52413e-09
-9.23704e-10
1.78977e-09
-7.00954e-10
1.98909e-09
-5.43809e-10
2.14556e-09
-4.88757e-10
2.27942e-09
-4.63321e-10
2.32323e-09
-3.23663e-10
2.41524e-09
-3.16679e-10
2.58494e-09
-3.36604e-10
2.68342e-09
-2.02851e-10
2.84446e-09
-7.2324e-11
3.05548e-09
-3.23622e-10
3.2386e-09
-4.75182e-10
3.41045e-09
-4.92547e-10
3.54187e-09
-4.90577e-10
3.67965e-09
-5.15266e-10
3.81286e-09
-4.56846e-10
3.90736e-09
-3.28596e-10
3.96231e-09
-3.25346e-10
4.05298e-09
-3.16966e-10
4.06365e-09
1.30667e-10
4.05205e-09
2.11834e-10
3.93881e-09
5.02333e-10
3.77218e-09
6.28e-10
3.53954e-09
7.23984e-10
3.33679e-09
7.33677e-10
3.18167e-09
5.96455e-10
3.05274e-09
4.6831e-10
2.90819e-09
4.70349e-10
2.73835e-09
4.96419e-10
2.57446e-09
3.94577e-10
2.46215e-09
4.08085e-10
2.41724e-09
3.67276e-10
2.37197e-09
3.96604e-10
2.36142e-09
2.3886e-10
2.37319e-09
7.71088e-11
2.42127e-09
1.54138e-11
2.54401e-09
-3.97864e-11
2.4388e-09
-1.00528e-10
2.45531e-09
8.16469e-11
2.42201e-09
3.55814e-10
2.41181e-09
6.24516e-10
2.46992e-09
8.75382e-10
2.44778e-09
1.17454e-09
2.13278e-09
1.36321e-09
1.65453e-09
1.37411e-09
1.3949e-09
1.25601e-09
7.9383e-10
1.1643e-09
1.52968e-10
3.35016e-10
-6.90045e-11
-1.03191e-09
-2.88706e-16
-8.90161e-10
-9.70993e-18
-1.38213e-19
-5.06251e-18
-9.1489e-18
-3.65325e-18
-4.41315e-18
-3.38112e-18
-1.99122e-18
-3.3664e-18
-9.83925e-19
-3.34368e-18
-6.36661e-19
-3.25142e-18
-5.79755e-19
-3.08455e-18
-6.45826e-19
-2.85133e-18
-7.57312e-19
-2.56246e-18
-8.76558e-19
-2.22886e-18
-9.84573e-19
-1.8614e-18
-1.07166e-18
-1.47094e-18
-1.13313e-18
-1.06814e-18
-1.16721e-18
-6.63222e-19
-1.17401e-18
-2.65802e-19
-1.15483e-18
1.15399e-19
-1.11185e-18
4.72862e-19
-1.04782e-18
8.00464e-19
-9.65947e-19
1.09341e-18
-8.69562e-19
1.34824e-18
-7.61973e-19
1.56282e-18
-6.4643e-19
1.73631e-18
-5.26077e-19
1.86873e-18
-4.03807e-19
1.96074e-18
-2.82147e-19
2.01363e-18
-1.63273e-19
2.02941e-18
-4.90949e-20
2.01061e-18
5.87298e-20
1.95994e-18
1.58872e-19
1.87999e-18
2.50425e-19
1.77313e-18
3.32909e-19
1.64159e-18
4.0617e-19
1.4876e-18
4.70245e-19
1.31353e-18
5.25262e-19
1.12186e-18
5.7141e-19
9.15171e-19
6.08952e-19
6.96225e-19
6.38247e-19
4.67975e-19
6.59742e-19
2.33668e-19
6.73938e-19
6.81288e-19
-8.50429e-11
3.77928e-10
-3.56911e-10
1.06479e-09
-9.09291e-10
1.72583e-09
-1.57824e-09
1.98701e-09
-1.93821e-09
2.08887e-09
-2.19841e-09
2.16698e-09
-2.47992e-09
1.93323e-09
-2.73411e-09
1.47548e-09
-3.07796e-09
1.31538e-09
-3.13219e-09
6.25435e-10
-3.3074e-09
6.44569e-10
-3.28474e-09
5.70415e-11
-3.47862e-09
-1.65025e-10
-3.54066e-09
-1.32282e-10
-3.53164e-09
-3.18944e-10
-3.48176e-09
-4.67468e-10
-3.26896e-09
-7.20091e-10
-2.97691e-09
-8.54216e-10
-2.91913e-09
-1.03283e-09
-2.70239e-09
-1.04746e-09
-2.54167e-09
-1.02481e-09
-2.24152e-09
-1.37664e-09
-1.92697e-09
-1.71193e-09
-1.39475e-09
-1.86127e-09
-1.05723e-09
-1.92478e-09
-5.4534e-10
-1.8904e-09
2.26934e-11
-1.98951e-09
3.57437e-10
-1.88549e-09
6.30367e-10
-1.73473e-09
9.22727e-10
-1.55191e-09
1.26054e-09
-1.26152e-09
1.51783e-09
-9.58242e-10
1.65715e-09
-6.83126e-10
1.75475e-09
-5.86352e-10
1.84152e-09
-5.50094e-10
1.90573e-09
-3.87863e-10
2.09427e-09
-5.05222e-10
2.34007e-09
-5.82397e-10
2.40642e-09
-2.69191e-10
2.61758e-09
-2.83482e-10
2.83438e-09
-5.40424e-10
2.97061e-09
-6.11403e-10
3.14105e-09
-6.62984e-10
3.26805e-09
-6.17578e-10
3.3331e-09
-5.80316e-10
3.48353e-09
-6.07275e-10
3.65713e-09
-5.02192e-10
3.67474e-09
-3.42955e-10
3.62982e-09
-2.7205e-10
3.6537e-09
1.06783e-10
3.67776e-09
1.87771e-10
3.59097e-09
5.89126e-10
3.50179e-09
7.17172e-10
3.37117e-09
8.54601e-10
3.26507e-09
8.39783e-10
3.1066e-09
7.5492e-10
2.95901e-09
6.15905e-10
2.82923e-09
6.00125e-10
2.63753e-09
6.88121e-10
2.45884e-09
5.7327e-10
2.44434e-09
4.22586e-10
2.44171e-09
3.69899e-10
2.48421e-09
3.54105e-10
2.53277e-09
1.90298e-10
2.62032e-09
-1.04366e-11
2.69653e-09
-6.07971e-11
2.63927e-09
1.74681e-11
2.5878e-09
-4.90554e-11
2.56454e-09
1.0491e-10
2.51108e-09
4.09269e-10
2.51352e-09
6.22081e-10
2.59086e-09
7.98037e-10
2.62904e-09
1.13637e-09
2.65124e-09
1.341e-09
2.50838e-09
1.51697e-09
2.3494e-09
1.41498e-09
2.10575e-09
1.40796e-09
1.33677e-09
1.10399e-09
4.0843e-10
-1.03564e-10
-1.34971e-15
-4.81729e-10
-7.48759e-18
-8.22665e-16
-3.26698e-19
-1.63088e-17
-1.23107e-18
-3.50694e-18
-2.37348e-18
-8.47144e-19
-3.01874e-18
-3.3815e-19
-3.28668e-18
-3.69216e-19
-3.31749e-18
-5.50275e-19
-3.19603e-18
-7.69184e-19
-2.97058e-18
-9.84917e-19
-2.67048e-18
-1.17862e-18
-2.31595e-18
-1.34043e-18
-1.92287e-18
-1.46512e-18
-1.50502e-18
-1.55036e-18
-1.07493e-18
-1.59585e-18
-6.4405e-19
-1.60289e-18
-2.22815e-19
-1.57394e-18
1.79425e-19
-1.51233e-18
5.54736e-19
-1.42202e-18
8.96849e-19
-1.30756e-18
1.201e-18
-1.17371e-18
1.46378e-18
-1.02513e-18
1.68318e-18
-8.66353e-19
1.85858e-18
-7.01692e-19
1.99039e-18
-5.35137e-19
2.07961e-18
-3.70144e-19
2.12781e-18
-2.09584e-19
2.13723e-18
-5.58421e-20
2.11075e-18
8.90719e-20
2.05149e-18
2.23521e-19
1.96248e-18
3.46312e-19
1.84639e-18
4.56747e-19
1.70566e-18
5.54576e-19
1.54262e-18
6.3988e-19
1.35968e-18
7.12947e-19
1.1594e-18
7.74186e-19
9.44466e-19
8.24084e-19
7.1772e-19
8.63195e-19
4.82171e-19
8.92107e-19
2.41018e-19
9.11373e-19
9.21384e-19
-3.85391e-10
7.63318e-10
-4.71676e-10
1.15108e-09
-7.1306e-10
1.96721e-09
-1.2642e-09
2.53815e-09
-1.75062e-09
2.5753e-09
-2.02866e-09
2.44502e-09
-2.34429e-09
2.24886e-09
-2.4193e-09
1.55049e-09
-2.37979e-09
1.27587e-09
-2.63566e-09
8.8131e-10
-2.66073e-09
6.69635e-10
-2.88053e-09
2.76845e-10
-3.03031e-09
-1.52529e-11
-2.97409e-09
-1.88501e-10
-2.93706e-09
-3.55974e-10
-2.82705e-09
-5.77482e-10
-2.75229e-09
-7.94844e-10
-2.66818e-09
-9.38328e-10
-2.67256e-09
-1.02846e-09
-2.52798e-09
-1.19204e-09
-2.25667e-09
-1.29612e-09
-1.9521e-09
-1.68121e-09
-1.70337e-09
-1.96066e-09
-1.17458e-09
-2.39006e-09
-5.89843e-10
-2.50952e-09
9.01137e-11
-2.57036e-09
5.19197e-10
-2.4186e-09
8.54357e-10
-2.22065e-09
1.06719e-09
-1.94757e-09
1.02318e-09
-1.50789e-09
1.07475e-09
-1.31308e-09
1.35814e-09
-1.24163e-09
1.47836e-09
-8.03349e-10
1.56463e-09
-6.72619e-10
1.66033e-09
-6.45784e-10
1.76331e-09
-4.90843e-10
1.99744e-09
-7.3935e-10
2.14993e-09
-7.3488e-10
2.33327e-09
-4.52532e-10
2.61868e-09
-5.68892e-10
2.80063e-09
-7.2237e-10
2.84382e-09
-6.54588e-10
2.86897e-09
-6.88128e-10
2.93612e-09
-6.84727e-10
3.00526e-09
-6.49451e-10
3.13264e-09
-7.34654e-10
3.19855e-09
-5.6811e-10
3.24229e-09
-3.86693e-10
3.21199e-09
-2.4175e-10
3.23771e-09
8.10574e-11
3.246e-09
1.79486e-10
3.18439e-09
6.50732e-10
3.12885e-09
7.72705e-10
3.06403e-09
9.19422e-10
2.97994e-09
9.23876e-10
2.87306e-09
8.61796e-10
2.72843e-09
7.60539e-10
2.61186e-09
7.1669e-10
2.52996e-09
7.70023e-10
2.51784e-09
5.85391e-10
2.51779e-09
4.22631e-10
2.53781e-09
3.49883e-10
2.59498e-09
2.96934e-10
2.65351e-09
1.31764e-10
2.67062e-09
-2.7551e-11
2.69134e-09
-8.15092e-11
2.6723e-09
3.65095e-11
2.56036e-09
6.28792e-11
2.49765e-09
1.67621e-10
2.42512e-09
4.81807e-10
2.42106e-09
6.26138e-10
2.44955e-09
7.69554e-10
2.47882e-09
1.1071e-09
2.6115e-09
1.20832e-09
2.56613e-09
1.56235e-09
2.3523e-09
1.62881e-09
2.2195e-09
1.54075e-09
2.15981e-09
1.16369e-09
1.85128e-09
2.04967e-10
6.39588e-11
1.30559e-09
5.20959e-17
6.39584e-11
1.18825e-17
2.40443e-17
1.42897e-18
6.94745e-18
-1.86411e-18
2.44755e-18
-3.04939e-18
8.47532e-19
-3.46766e-18
4.81899e-20
-3.5364e-18
-4.83353e-19
-3.41177e-18
-8.96161e-19
-3.16428e-18
-1.23483e-18
-2.83229e-18
-1.51269e-18
-2.44064e-18
-1.73338e-18
-2.00811e-18
-1.89788e-18
-1.55052e-18
-2.00705e-18
-1.08197e-18
-2.06252e-18
-6.15107e-19
-2.06712e-18
-1.61197e-19
-2.02478e-18
2.69729e-19
-1.94027e-18
6.69194e-19
-1.81903e-18
1.03071e-18
-1.66716e-18
1.34958e-18
-1.49105e-18
1.62256e-18
-1.297e-18
1.84784e-18
-1.09089e-18
2.02514e-18
-8.78267e-19
2.15538e-18
-6.64193e-19
2.24017e-18
-4.53098e-19
2.28155e-18
-2.4863e-19
2.28215e-18
-5.37116e-20
2.2452e-18
1.29321e-19
2.17428e-18
2.98635e-19
2.07291e-18
4.52914e-19
1.94422e-18
5.91396e-19
1.79097e-18
7.13846e-19
1.61569e-18
8.20451e-19
1.42092e-18
9.11671e-19
1.2093e-18
9.8812e-19
9.83578e-19
1.05049e-18
7.46632e-19
1.09949e-18
5.01437e-19
1.13583e-18
2.51029e-19
1.1601e-18
1.17269e-18
-2.94543e-10
1.05786e-09
-8.0173e-10
1.65826e-09
-1.2222e-09
2.38768e-09
-1.44218e-09
2.75813e-09
-1.56444e-09
2.69756e-09
-1.49934e-09
2.37992e-09
-1.49222e-09
2.24173e-09
-1.93098e-09
1.98926e-09
-2.14701e-09
1.4919e-09
-2.35859e-09
1.09289e-09
-2.2274e-09
5.38443e-10
-2.30348e-09
3.52925e-10
-2.51256e-09
1.93824e-10
-2.50561e-09
-1.95451e-10
-2.51681e-09
-3.44774e-10
-2.46357e-09
-6.30716e-10
-2.40409e-09
-8.54332e-10
-2.33617e-09
-1.00624e-09
-2.2148e-09
-1.14983e-09
-2.0051e-09
-1.40174e-09
-1.86196e-09
-1.43926e-09
-1.47935e-09
-2.06382e-09
-9.84842e-10
-2.45517e-09
-4.66624e-10
-2.90828e-09
1.67745e-10
-3.14389e-09
5.97296e-10
-2.99991e-09
9.21556e-10
-2.74286e-09
1.09451e-09
-2.3936e-09
1.13766e-09
-1.99072e-09
1.17771e-09
-1.54795e-09
1.09066e-09
-1.22602e-09
1.19492e-09
-1.3459e-09
1.38656e-09
-9.94979e-10
1.49725e-09
-7.83313e-10
1.59872e-09
-7.47248e-10
1.7564e-09
-6.48525e-10
1.9016e-09
-8.84542e-10
1.99896e-09
-8.3224e-10
2.32903e-09
-7.82592e-10
2.48811e-09
-7.27975e-10
2.51135e-09
-7.45608e-10
2.57415e-09
-7.17387e-10
2.58936e-09
-7.03336e-10
2.56114e-09
-6.56507e-10
2.60914e-09
-6.97442e-10
2.60765e-09
-7.33169e-10
2.63454e-09
-5.94994e-10
2.63773e-09
-3.89887e-10
2.57596e-09
-1.79976e-10
2.67742e-09
-2.04085e-11
2.74533e-09
1.1158e-10
2.76828e-09
6.27781e-10
2.69867e-09
8.42316e-10
2.65468e-09
9.63406e-10
2.63115e-09
9.47405e-10
2.60674e-09
8.86206e-10
2.51544e-09
8.51838e-10
2.45003e-09
7.82102e-10
2.4759e-09
7.44148e-10
2.49277e-09
5.68519e-10
2.49541e-09
4.19986e-10
2.52847e-09
3.16823e-10
2.59659e-09
2.28814e-10
2.6432e-09
8.51498e-11
2.60051e-09
1.51446e-11
2.47372e-09
4.52794e-11
2.41722e-09
9.30046e-11
2.28037e-09
1.99736e-10
2.16011e-09
2.8788e-10
2.17875e-09
4.63179e-10
2.20765e-09
5.97241e-10
2.2769e-09
7.00308e-10
2.33865e-09
1.04534e-09
2.33406e-09
1.21293e-09
2.4584e-09
1.438e-09
2.29976e-09
1.78746e-09
1.97503e-09
1.86549e-09
1.36046e-09
1.77826e-09
1.90972e-10
1.37446e-09
-1.76018e-10
1.67258e-09
3.10148e-16
-1.12059e-10
-4.562e-18
5.03795e-18
-3.07034e-18
5.45606e-18
-3.46363e-18
2.84047e-18
-3.84828e-18
1.23125e-18
-3.99911e-18
1.97247e-19
-3.94921e-18
-5.35804e-19
-3.75044e-18
-1.09796e-18
-3.44214e-18
-1.54618e-18
-3.05297e-18
-1.90452e-18
-2.60515e-18
-2.18307e-18
-2.11728e-18
-2.38649e-18
-1.60599e-18
-2.51784e-18
-1.08656e-18
-2.58036e-18
-5.72769e-19
-2.57836e-18
-7.66884e-20
-2.51747e-18
3.90966e-19
-2.40421e-18
8.2107e-19
-2.24577e-18
1.20681e-18
-2.05001e-18
1.54363e-18
-1.82524e-18
1.82866e-18
-1.57963e-18
2.06047e-18
-1.32073e-18
2.23921e-18
-1.05539e-18
2.36648e-18
-7.89779e-19
2.44464e-18
-5.29253e-19
2.47647e-18
-2.78235e-19
2.46518e-18
-4.01838e-20
2.41451e-18
1.82283e-19
2.32856e-18
3.87249e-19
2.21139e-18
5.73433e-19
2.06667e-18
7.40167e-19
1.89757e-18
8.87343e-19
1.70691e-18
1.01531e-18
1.49737e-18
1.12471e-18
1.27166e-18
1.21637e-18
1.03258e-18
1.29116e-18
7.82972e-19
1.34996e-18
5.25706e-19
1.39359e-18
2.63617e-19
1.42271e-18
1.43773e-18
-8.51096e-10
1.90896e-09
-1.35187e-09
2.15904e-09
-1.31533e-09
2.35115e-09
-1.38021e-09
2.823e-09
-1.53397e-09
2.85132e-09
-1.7652e-09
2.61115e-09
-1.9135e-09
2.39003e-09
-1.6623e-09
1.73806e-09
-1.60858e-09
1.43818e-09
-1.84265e-09
1.32696e-09
-2.05125e-09
7.47037e-10
-2.08255e-09
3.84226e-10
-1.99867e-09
1.09944e-10
-2.08566e-09
-1.08462e-10
-2.07464e-09
-3.55789e-10
-2.02713e-09
-6.78223e-10
-1.91526e-09
-9.66202e-10
-1.90946e-09
-1.01205e-09
-1.92445e-09
-1.13484e-09
-1.78e-09
-1.54619e-09
-1.4443e-09
-1.77497e-09
-9.86858e-10
-2.52126e-09
-6.72833e-10
-2.76919e-09
-3.37293e-10
-3.24382e-09
1.06181e-10
-3.58737e-09
5.01134e-10
-3.39486e-09
8.25461e-10
-3.06718e-09
1.02934e-09
-2.59748e-09
1.19114e-09
-2.15253e-09
1.22072e-09
-1.57752e-09
1.17856e-09
-1.18386e-09
1.12026e-09
-1.2876e-09
1.30736e-09
-1.18208e-09
1.43416e-09
-9.10114e-10
1.57649e-09
-8.89577e-10
1.8027e-09
-8.74729e-10
1.86399e-09
-9.45829e-10
1.94535e-09
-9.13597e-10
2.10243e-09
-9.39668e-10
2.27657e-09
-9.02117e-10
2.30172e-09
-7.70757e-10
2.2617e-09
-6.77368e-10
2.25695e-09
-6.98583e-10
2.19713e-09
-5.96679e-10
2.15187e-09
-6.52187e-10
2.04884e-09
-6.30137e-10
2.06172e-09
-6.07872e-10
2.05683e-09
-3.84996e-10
2.06962e-09
-1.92762e-10
2.13467e-09
-8.54646e-11
2.13594e-09
1.10317e-10
2.16621e-09
5.97513e-10
2.29645e-09
7.12074e-10
2.18162e-09
1.07823e-09
2.22152e-09
9.0751e-10
2.26112e-09
8.46601e-10
2.30091e-09
8.12051e-10
2.3167e-09
7.66303e-10
2.36347e-09
6.9738e-10
2.41921e-09
5.1277e-10
2.45066e-09
3.88534e-10
2.47922e-09
2.8826e-10
2.49701e-09
2.11025e-10
2.46587e-09
1.16287e-10
2.40875e-09
7.22592e-11
2.2511e-09
2.0293e-10
2.07281e-09
2.71298e-10
1.96074e-09
3.11814e-10
1.9398e-09
3.08824e-10
1.9538e-09
4.49186e-10
1.958e-09
5.93043e-10
1.88858e-09
7.69733e-10
2.02736e-09
9.06563e-10
2.08986e-09
1.15044e-09
2.11507e-09
1.41279e-09
1.85628e-09
2.04625e-09
1.53174e-09
2.19002e-09
9.55486e-10
2.35452e-09
5.86653e-10
1.74329e-09
5.63995e-10
1.69524e-09
-8.80765e-17
4.51939e-10
-7.78212e-18
-4.61078e-19
-5.68534e-18
3.35962e-18
-5.07232e-18
2.22652e-18
-4.88181e-18
1.03888e-18
-4.73204e-18
4.48993e-20
-4.51136e-18
-7.59599e-19
-4.19866e-18
-1.41411e-18
-3.80048e-18
-1.94772e-18
-3.33152e-18
-2.37648e-18
-2.80857e-18
-2.70835e-18
-2.24863e-18
-2.94769e-18
-1.66851e-18
-3.09797e-18
-1.08456e-18
-3.16321e-18
-5.11879e-19
-3.14894e-18
3.65643e-20
-3.06257e-18
5.49406e-19
-2.91282e-18
1.01683e-18
-2.70899e-18
1.43158e-18
-2.46104e-18
1.78924e-18
-2.17942e-18
2.08756e-18
-1.87453e-18
2.3258e-18
-1.55591e-18
2.50483e-18
-1.23197e-18
2.62701e-18
-9.10008e-19
2.69566e-18
-5.96218e-19
2.71452e-18
-2.95656e-19
2.68765e-18
-1.22133e-20
2.61948e-18
2.51291e-19
2.51474e-18
4.92951e-19
2.37813e-18
7.11633e-19
2.21385e-18
9.06884e-19
2.02554e-18
1.07883e-18
1.81631e-18
1.22805e-18
1.58902e-18
1.35544e-18
1.34646e-18
1.46204e-18
1.09139e-18
1.54895e-18
8.26601e-19
1.61722e-18
5.5482e-19
1.66783e-18
2.78637e-19
1.70151e-18
1.71877e-18
3.25918e-10
1.58304e-09
3.1216e-11
2.45374e-09
-6.91472e-10
3.07383e-09
-9.16364e-10
3.04789e-09
-1.08336e-09
3.01832e-09
-1.15018e-09
2.67796e-09
-1.07114e-09
2.311e-09
-1.26514e-09
1.93206e-09
-1.59241e-09
1.76545e-09
-1.56314e-09
1.29769e-09
-1.69702e-09
8.80917e-10
-1.77876e-09
4.65962e-10
-1.74502e-09
7.62099e-11
-1.7741e-09
-7.93847e-11
-1.77398e-09
-3.55903e-10
-1.69498e-09
-7.57227e-10
-1.72624e-09
-9.34945e-10
-1.68372e-09
-1.05456e-09
-1.55311e-09
-1.26545e-09
-1.38712e-09
-1.71219e-09
-1.05481e-09
-2.10728e-09
-7.87044e-10
-2.78903e-09
-4.58449e-10
-3.09779e-09
-1.63508e-10
-3.53876e-09
1.01209e-10
-3.85208e-09
3.35789e-10
-3.62944e-09
5.83352e-10
-3.31475e-09
8.1778e-10
-2.83191e-09
1.00174e-09
-2.33649e-09
1.11206e-09
-1.68784e-09
1.13493e-09
-1.20673e-09
1.09387e-09
-1.24654e-09
1.1837e-09
-1.2719e-09
1.33904e-09
-1.06546e-09
1.45902e-09
-1.00955e-09
1.61847e-09
-1.03418e-09
1.73673e-09
-1.06409e-09
1.85988e-09
-1.03675e-09
1.84741e-09
-9.27186e-10
1.85098e-09
-9.05695e-10
1.87428e-09
-7.94054e-10
1.86932e-09
-6.72404e-10
1.76712e-09
-5.96384e-10
1.66078e-09
-4.90335e-10
1.6404e-09
-6.31807e-10
1.57769e-09
-5.67421e-10
1.52385e-09
-5.54035e-10
1.55274e-09
-4.13883e-10
1.61245e-09
-2.52466e-10
1.59379e-09
-6.68098e-11
1.53588e-09
1.68227e-10
1.60549e-09
5.2791e-10
1.71548e-09
6.02085e-10
1.7444e-09
1.04932e-09
1.91535e-09
7.36557e-10
2.04759e-09
7.14357e-10
2.15799e-09
7.01655e-10
2.18791e-09
7.36378e-10
2.24219e-09
6.43098e-10
2.33932e-09
4.1563e-10
2.3781e-09
3.49756e-10
2.38777e-09
2.78583e-10
2.33673e-09
2.6206e-10
2.18937e-09
2.6365e-10
2.02466e-09
2.36965e-10
1.96539e-09
2.62198e-10
1.90054e-09
3.36154e-10
1.859e-09
3.53354e-10
1.79345e-09
3.74378e-10
1.69761e-09
5.45039e-10
1.70215e-09
5.88508e-10
1.73094e-09
7.40938e-10
1.7737e-09
8.63814e-10
1.8272e-09
1.09694e-09
1.80362e-09
1.43636e-09
1.88415e-09
1.96573e-09
1.78273e-09
2.29145e-09
1.79601e-09
2.34124e-09
1.16065e-09
2.37865e-09
3.97885e-10
2.458e-09
3.02899e-16
8.49822e-10
-7.60143e-18
3.58633e-19
-6.81787e-18
2.57568e-18
-6.25943e-18
1.66637e-18
-5.87531e-18
6.52405e-19
-5.53639e-18
-2.96815e-19
-5.16587e-18
-1.13309e-18
-4.73227e-18
-1.8507e-18
-4.22923e-18
-2.45345e-18
-3.6634e-18
-2.94458e-18
-3.0479e-18
-3.32564e-18
-2.39891e-18
-3.59776e-18
-1.73375e-18
-3.76319e-18
-1.07029e-18
-3.8259e-18
-4.25514e-19
-3.79229e-18
1.86322e-19
-3.67166e-18
7.53229e-19
-3.47544e-18
1.26479e-18
-3.2158e-18
1.71319e-18
-2.90523e-18
2.09414e-18
-2.55666e-18
2.40618e-18
-2.18297e-18
2.64974e-18
-1.79603e-18
2.82679e-18
-1.40617e-18
2.9408e-18
-1.02193e-18
2.99622e-18
-6.50305e-19
2.99796e-18
-2.96775e-19
2.95115e-18
3.45462e-20
2.86114e-18
3.40804e-19
2.73343e-18
6.20227e-19
2.57338e-18
8.71941e-19
2.3858e-18
1.09582e-18
2.17476e-18
1.29233e-18
1.9437e-18
1.46239e-18
1.69562e-18
1.6072e-18
1.43337e-18
1.72812e-18
1.15967e-18
1.82651e-18
8.77203e-19
1.90367e-18
5.88505e-19
1.96072e-18
2.95893e-19
1.99858e-18
2.01783e-18
-3.02919e-10
1.88596e-09
-3.88145e-10
2.53896e-09
-4.57739e-10
3.14343e-09
-6.39338e-10
3.22949e-09
-8.68904e-10
3.24789e-09
-1.03367e-09
2.84272e-09
-1.28423e-09
2.56155e-09
-1.47365e-09
2.12149e-09
-1.50784e-09
1.79964e-09
-1.37274e-09
1.16259e-09
-1.3431e-09
8.51275e-10
-1.37214e-09
4.95002e-10
-1.51572e-09
2.19793e-10
-1.53234e-09
-6.27708e-11
-1.43785e-09
-4.50394e-10
-1.38986e-09
-8.05214e-10
-1.55259e-09
-7.7222e-10
-1.28851e-09
-1.31864e-09
-1.29919e-09
-1.25477e-09
-1.07805e-09
-1.93333e-09
-7.74774e-10
-2.41055e-09
-5.86585e-10
-2.97722e-09
-2.57978e-10
-3.4264e-09
-2.5055e-11
-3.77168e-09
1.08711e-10
-3.98585e-09
2.87564e-10
-3.8083e-09
4.75547e-10
-3.50273e-09
6.85695e-10
-3.04205e-09
7.26355e-10
-2.37715e-09
8.35474e-10
-1.79696e-09
9.56429e-10
-1.32768e-09
9.73138e-10
-1.26324e-09
9.26145e-10
-1.22491e-09
1.0172e-09
-1.1565e-09
1.15738e-09
-1.14973e-09
1.30369e-09
-1.18048e-09
1.38845e-09
-1.14884e-09
1.47114e-09
-1.11944e-09
1.45815e-09
-9.14192e-10
1.46894e-09
-9.16488e-10
1.47553e-09
-8.00644e-10
1.46513e-09
-6.61998e-10
1.41827e-09
-5.49521e-10
1.38799e-09
-4.60058e-10
1.27814e-09
-5.21955e-10
1.20385e-09
-4.93131e-10
1.1431e-09
-4.9328e-10
1.18307e-09
-4.53856e-10
1.1835e-09
-2.52884e-10
1.14796e-09
-3.12758e-11
1.12485e-09
1.9134e-10
1.2637e-09
3.8907e-10
1.381e-09
4.84785e-10
1.64294e-09
7.87381e-10
1.61508e-09
7.64415e-10
1.76848e-09
5.60952e-10
1.88571e-09
5.84425e-10
1.99977e-09
6.22315e-10
2.12035e-09
5.22518e-10
2.15683e-09
3.79138e-10
2.14397e-09
3.62611e-10
2.07727e-09
3.45276e-10
2.01013e-09
3.292e-10
1.92656e-09
3.47218e-10
1.81018e-09
3.53349e-10
1.75328e-09
3.19095e-10
1.71321e-09
3.76228e-10
1.68109e-09
3.85482e-10
1.59593e-09
4.59533e-10
1.60469e-09
5.36289e-10
1.56458e-09
6.28615e-10
1.53045e-09
7.75072e-10
1.43479e-09
9.59483e-10
1.41135e-09
1.12038e-09
1.32341e-09
1.52431e-09
1.41596e-09
1.87318e-09
1.21734e-09
2.49007e-09
1.02997e-09
2.52861e-09
8.28162e-10
2.58046e-09
7.57606e-10
2.52856e-09
3.25205e-16
1.60743e-09
-7.97385e-18
2.49908e-18
-7.72659e-18
2.32762e-18
-7.27286e-18
1.21119e-18
-6.82405e-18
2.02101e-19
-6.3725e-18
-7.49842e-19
-5.88348e-18
-1.62346e-18
-5.33502e-18
-2.40031e-18
-4.72037e-18
-3.06886e-18
-4.04445e-18
-3.6209e-18
-3.32002e-18
-4.05033e-18
-2.56433e-18
-4.35361e-18
-1.79647e-18
-4.5307e-18
-1.03668e-18
-4.58508e-18
-3.04889e-19
-4.52378e-18
3.82543e-19
-4.35812e-18
1.01288e-18
-4.10288e-18
1.57535e-18
-3.77412e-18
2.06175e-18
-3.38782e-18
2.46784e-18
-2.95986e-18
2.79312e-18
-2.50581e-18
3.03961e-18
-2.04016e-18
3.21103e-18
-1.57539e-18
3.31242e-18
-1.12159e-18
3.34975e-18
-6.86535e-19
3.32928e-18
-2.7602e-19
3.25741e-18
1.05881e-19
3.14056e-18
4.56544e-19
2.98514e-18
7.74553e-19
2.79725e-18
1.05948e-18
2.5823e-18
1.31166e-18
2.34482e-18
1.53206e-18
2.08851e-18
1.72205e-18
1.81654e-18
1.88326e-18
1.53175e-18
2.01744e-18
1.23682e-18
2.1263e-18
9.3426e-19
2.21144e-18
6.26363e-19
2.27422e-18
3.15138e-19
2.31572e-18
2.33666e-18
-3.74647e-10
2.26061e-09
-6.95006e-10
2.85932e-09
-7.52335e-10
3.20075e-09
-7.16006e-10
3.19316e-09
-8.05447e-10
3.33733e-09
-8.66738e-10
2.90402e-09
-8.56637e-10
2.55145e-09
-8.20635e-10
2.08549e-09
-8.06698e-10
1.7857e-09
-9.12831e-10
1.26872e-09
-9.54411e-10
8.92856e-10
-9.64737e-10
5.05328e-10
-9.90518e-10
2.45575e-10
-1.10066e-09
4.73694e-11
-1.11164e-09
-4.39415e-10
-1.18208e-09
-7.3477e-10
-1.27323e-09
-6.81071e-10
-1.19221e-09
-1.39966e-09
-1.06371e-09
-1.38326e-09
-8.39633e-10
-2.15741e-09
-7.12542e-10
-2.53764e-09
-5.3453e-10
-3.15523e-09
-3.07545e-10
-3.65338e-09
-1.82419e-10
-3.89681e-09
-1.23407e-10
-4.04486e-09
-3.4229e-12
-3.92828e-09
1.78898e-10
-3.68505e-09
3.99322e-10
-3.26248e-09
4.37461e-10
-2.41528e-09
5.22832e-10
-1.88233e-09
7.05322e-10
-1.51017e-09
7.7822e-10
-1.33614e-09
7.58153e-10
-1.20484e-09
8.36219e-10
-1.23457e-09
9.61283e-10
-1.27479e-09
1.09947e-09
-1.31867e-09
1.15944e-09
-1.20882e-09
1.18359e-09
-1.14358e-09
1.16574e-09
-8.96342e-10
1.1267e-09
-8.77441e-10
1.12212e-09
-7.96065e-10
1.11985e-09
-6.59724e-10
1.1013e-09
-5.30968e-10
1.04598e-09
-4.04739e-10
9.60285e-10
-4.36262e-10
9.05084e-10
-4.37928e-10
8.60418e-10
-4.48611e-10
8.14864e-10
-4.08299e-10
7.77829e-10
-2.15847e-10
7.57397e-10
-1.08406e-11
8.21042e-10
1.27699e-10
9.53067e-10
2.57048e-10
1.06412e-09
3.73733e-10
1.28874e-09
5.62766e-10
1.42785e-09
6.25307e-10
1.53582e-09
4.52983e-10
1.64835e-09
4.71886e-10
1.76683e-09
5.03838e-10
1.84543e-09
4.43907e-10
1.8269e-09
3.97666e-10
1.79041e-09
3.99094e-10
1.7185e-09
4.17182e-10
1.66895e-09
3.78751e-10
1.62885e-09
3.87315e-10
1.61508e-09
3.67119e-10
1.55347e-09
3.80708e-10
1.53262e-09
3.97082e-10
1.47413e-09
4.4397e-10
1.4298e-09
5.03862e-10
1.46422e-09
5.01879e-10
1.35061e-09
7.42227e-10
1.28696e-09
8.38716e-10
1.28134e-09
9.65101e-10
1.20901e-09
1.19271e-09
1.09914e-09
1.63418e-09
9.91555e-10
1.98076e-09
9.50147e-10
2.53148e-09
7.55598e-10
2.72315e-09
7.37306e-10
2.59875e-09
5.57685e-10
2.70818e-09
3.90972e-16
2.16511e-09
-9.76147e-18
5.38632e-19
-8.8424e-18
1.40769e-18
-8.28142e-18
6.49457e-19
-7.77553e-18
-3.03702e-19
-7.24594e-18
-1.27862e-18
-6.66034e-18
-2.20777e-18
-6.00357e-18
-3.05557e-18
-5.2724e-18
-3.79825e-18
-4.47389e-18
-4.41752e-18
-3.6233e-18
-4.89934e-18
-2.74143e-18
-5.23462e-18
-1.85085e-18
-5.4205e-18
-9.75377e-19
-5.45997e-18
-1.39226e-19
-5.36097e-18
6.37779e-19
-5.13706e-18
1.34164e-18
-4.80709e-18
1.96165e-18
-4.39228e-18
2.48972e-18
-3.91353e-18
2.92188e-18
-3.39064e-18
3.25877e-18
-2.84231e-18
3.50438e-18
-2.2857e-18
3.66483e-18
-1.73558e-18
3.74748e-18
-1.20368e-18
3.76026e-18
-6.98702e-19
3.71119e-18
-2.26637e-19
3.60807e-18
2.08701e-19
3.45857e-18
6.05229e-19
3.27006e-18
9.62207e-19
3.04944e-18
1.27992e-18
2.8027e-18
1.55944e-18
2.53481e-18
1.80238e-18
2.24972e-18
2.01076e-18