/*--------------------------------*- C++ -*----------------------------------*\
  =========                 |
  \\      /  F ield         | OpenFOAM: The Open Source CFD Toolbox
   \\    /   O peration     | Website:  https://openfoam.org
    \\  /    A nd           | Version:  6
     \\/     M anipulation  |
\*---------------------------------------------------------------------------*/
FoamFile
{
    version     2.0;
    format      ascii;
    class       volScalarField;
    location    "2400";
    object      Su;
}
// * * * * * * * * * * * * * * * * * * * * * * * * * * * * * * * * * * * * * //

dimensions      [0 0 -1 0 0 0 0];

internalField   nonuniform List<scalar> 
4800
(
0.217366
0.210927
0.204511
0.198159
0.191978
0.186121
0.18074
0.175931
0.171722
0.168078
0.164928
0.162196
0.159807
0.157688
0.155779
0.154036
0.152422
0.150919
0.149505
0.148154
0.146856
0.145598
0.14437
0.143165
0.141971
0.140776
0.139574
0.138367
0.137149
0.135916
0.134663
0.133386
0.132088
0.13077
0.12944
0.128102
0.126757
0.125409
0.124061
0.122715
0.121377
0.120054
0.118749
0.117459
0.11618
0.114907
0.113632
0.112348
0.111044
0.109703
0.10831
0.106857
0.105334
0.10374
0.102075
0.100347
0.0985632
0.0967285
0.0948458
0.0929166
0.0909401
0.0889118
0.0868254
0.0846743
0.0824492
0.0801292
0.0776829
0.0750769
0.0722572
0.0691536
0.0657027
0.0618505
0.0575771
0.0529244
0.0479672
0.0427932
0.0375261
0.032295
0.0272152
0.022378
0.017894
0.0138941
0.0103089
0.00699458
0.00382673
0.000722831
-0.00236451
-0.00545972
-0.0085739
-0.0117109
-0.0148707
-0.0180517
-0.0212513
-0.0244668
-0.0276955
-0.0309349
-0.0341826
-0.0374367
-0.0406951
-0.0439564
-0.0472189
-0.0504816
-0.0537433
-0.0570031
-0.0602603
-0.0635144
-0.0667648
-0.0700114
-0.0732538
-0.0764921
-0.0797262
-0.0829563
-0.0861826
-0.0894053
-0.0926249
-0.0958417
-0.0990562
-0.102269
-0.10548
-0.10869
0.217347
0.210858
0.204402
0.198061
0.191935
0.18616
0.180867
0.17614
0.17199
0.168373
0.16523
0.162497
0.1601
0.157965
0.156037
0.154276
0.15265
0.151132
0.149697
0.148326
0.147005
0.145721
0.144468
0.143232
0.142004
0.140777
0.13955
0.138315
0.137068
0.135804
0.134521
0.133218
0.131896
0.130561
0.129214
0.127861
0.126504
0.125148
0.123793
0.122442
0.121097
0.119766
0.118452
0.117153
0.115867
0.114587
0.113307
0.112018
0.110713
0.109379
0.107995
0.106553
0.105042
0.103459
0.101806
0.100088
0.0983132
0.0964866
0.0946101
0.0926863
0.0907159
0.088695
0.0866192
0.0844812
0.0822697
0.0799652
0.0775387
0.0749526
0.0721631
0.0691115
0.0657432
0.0620136
0.0578974
0.0533966
0.048537
0.0433723
0.0379933
0.0325433
0.0271771
0.0220517
0.0173916
0.0134572
0.0100157
0.00682524
0.00373893
0.000681606
-0.00238186
-0.00546628
-0.00857667
-0.0117133
-0.0148744
-0.018057
-0.0212584
-0.0244754
-0.0277053
-0.0309456
-0.034194
-0.0374484
-0.040707
-0.0439681
-0.0472305
-0.0504928
-0.0537541
-0.0570134
-0.06027
-0.0635235
-0.0667733
-0.0700192
-0.0732609
-0.0764985
-0.079732
-0.0829614
-0.0861871
-0.0894092
-0.0926282
-0.0958444
-0.0990582
-0.10227
-0.105481
-0.108691
0.217315
0.210762
0.204266
0.19795
0.191936
0.186315
0.181177
0.176575
0.172504
0.168938
0.165818
0.163083
0.160668
0.158501
0.156545
0.154758
0.153107
0.151563
0.150097
0.148687
0.147322
0.145993
0.144692
0.143403
0.142121
0.140839
0.139552
0.138253
0.136943
0.135619
0.134281
0.132929
0.131563
0.130185
0.1288
0.127412
0.126025
0.124645
0.123273
0.121907
0.120547
0.119199
0.117867
0.116549
0.115244
0.11395
0.112662
0.111369
0.110065
0.108741
0.107374
0.105955
0.104467
0.102906
0.101273
0.099572
0.0978127
0.0960009
0.0941381
0.0922262
0.0902706
0.0882696
0.0862166
0.0841005
0.08191
0.0796275
0.0772259
0.0746673
0.0719176
0.0689342
0.0656709
0.0620889
0.0581522
0.0538267
0.0491046
0.0440169
0.0386017
0.0329134
0.0270701
0.0213086
0.0161459
0.0125057
0.00944971
0.00652908
0.00359836
0.000621811
-0.00240355
-0.00547254
-0.00857888
-0.0117168
-0.0148812
-0.0180678
-0.0212728
-0.024493
-0.0277254
-0.0309675
-0.034217
-0.0374721
-0.0407309
-0.0439919
-0.0472537
-0.0505153
-0.0537757
-0.0570339
-0.0602894
-0.0635416
-0.0667902
-0.0700347
-0.0732752
-0.0765115
-0.0797436
-0.0829718
-0.0861961
-0.089417
-0.0926347
-0.0958497
-0.0990623
-0.102273
-0.105483
-0.108691
0.217336
0.21084
0.204414
0.198165
0.192236
0.186743
0.181739
0.177248
0.173257
0.169744
0.166647
0.163918
0.161486
0.159292
0.157306
0.155486
0.153798
0.152211
0.150695
0.149229
0.147807
0.14642
0.145056
0.1437
0.142345
0.140984
0.139613
0.138226
0.136821
0.135404
0.13398
0.132552
0.131119
0.129679
0.128237
0.126799
0.125369
0.123952
0.122551
0.121156
0.119766
0.118389
0.117027
0.115682
0.114351
0.113036
0.111736
0.110437
0.109133
0.107819
0.10647
0.105077
0.103618
0.102087
0.100482
0.0988061
0.0970678
0.0952766
0.0934345
0.0915417
0.0896066
0.0876287
0.0856
0.0835072
0.081339
0.0790789
0.0766997
0.0741705
0.0714661
0.0685513
0.0653865
0.0619354
0.0581575
0.0540156
0.0494732
0.0445109
0.0391145
0.0332427
0.0268514
0.0200032
0.0133603
0.01095
0.00872762
0.00622096
0.00348019
0.000586309
-0.0024068
-0.00546701
-0.00857511
-0.011719
-0.0148906
-0.0180841
-0.021295
-0.02452
-0.0277561
-0.0310008
-0.0342521
-0.037508
-0.040767
-0.0440277
-0.0472888
-0.0505492
-0.0538081
-0.0570648
-0.0603185
-0.0635688
-0.0668154
-0.070058
-0.0732965
-0.0765308
-0.0797609
-0.0829871
-0.0862096
-0.0894286
-0.0926445
-0.0958576
-0.0990685
-0.102277
-0.105485
-0.108692
0.21735
0.210917
0.204605
0.198492
0.192702
0.187347
0.182477
0.178105
0.17421
0.170755
0.167685
0.16496
0.162513
0.160301
0.158288
0.156432
0.154698
0.153053
0.151473
0.149943
0.148453
0.146997
0.145554
0.144113
0.142666
0.141206
0.139727
0.138224
0.136704
0.13517
0.133632
0.132102
0.130581
0.129064
0.127552
0.126051
0.124562
0.123093
0.121647
0.120211
0.118782
0.117366
0.115964
0.11458
0.113217
0.111873
0.110553
0.109246
0.107941
0.106634
0.105301
0.103935
0.102506
0.101007
0.0994327
0.0977864
0.0960761
0.0943118
0.0924981
0.0906332
0.0887231
0.0867681
0.0847608
0.0826875
0.0805366
0.0782938
0.0759381
0.0734402
0.0707796
0.0679295
0.0648533
0.0615161
0.0578784
0.0538935
0.049514
0.0446871
0.0393617
0.0334541
0.0267282
0.0184615
0.00337022
0.00918664
0.00826988
0.00612533
0.00349191
0.000625631
-0.00236805
-0.00543906
-0.00856099
-0.0117187
-0.0149026
-0.0181065
-0.021326
-0.0245575
-0.0277984
-0.0310464
-0.0342997
-0.0375567
-0.0408158
-0.0440758
-0.0473357
-0.0505946
-0.0538515
-0.0571059
-0.0603573
-0.0636051
-0.066849
-0.070089
-0.0733248
-0.0765564
-0.0797839
-0.0830076
-0.0862275
-0.0894439
-0.0926574
-0.0958681
-0.0990766
-0.102283
-0.105489
-0.108693
0.217389
0.211029
0.204816
0.198863
0.193267
0.188099
0.183388
0.179129
0.175308
0.171901
0.16887
0.166158
0.163707
0.161479
0.159435
0.157539
0.155754
0.154047
0.152401
0.150803
0.149237
0.147697
0.146161
0.144615
0.143049
0.141456
0.139839
0.1382
0.136546
0.134887
0.133227
0.131578
0.129953
0.128345
0.126751
0.125175
0.123614
0.122079
0.120573
0.119084
0.117606
0.116144
0.114699
0.113273
0.111869
0.110491
0.109145
0.107823
0.106514
0.105208
0.10389
0.102549
0.101148
0.0996798
0.0981358
0.0965225
0.0948467
0.0931149
0.0913323
0.0894964
0.0876118
0.0856791
0.0836914
0.0816359
0.0795017
0.0772753
0.0749405
0.0724748
0.0698582
0.0670706
0.0640775
0.0608432
0.0573306
0.0534881
0.049267
0.0445996
0.03942
0.0336659
0.0272677
0.0202569
0.0132018
0.0111835
0.00901995
0.00649685
0.00371316
0.000767883
-0.00227706
-0.00538555
-0.00853645
-0.011717
-0.0149189
-0.018137
-0.0213672
-0.0246067
-0.0278534
-0.0311052
-0.0343608
-0.0376186
-0.0408776
-0.0441366
-0.0473949
-0.0506515
-0.0539059
-0.0571574
-0.0604056
-0.0636502
-0.0668909
-0.0701275
-0.0733599
-0.0765882
-0.0798125
-0.0830329
-0.0862496
-0.089463
-0.0926733
-0.0958811
-0.0990866
-0.10229
-0.105493
-0.108695
0.217442
0.211205
0.205155
0.199384
0.193961
0.188942
0.18436
0.180229
0.176511
0.173167
0.170168
0.167467
0.16502
0.16278
0.160708
0.158771
0.156932
0.155161
0.153441
0.151765
0.150113
0.148476
0.14682
0.145135
0.143416
0.141665
0.139891
0.138106
0.136316
0.134528
0.132744
0.130972
0.12923
0.127519
0.125831
0.12417
0.122529
0.120919
0.119341
0.117788
0.116258
0.114747
0.113256
0.111787
0.110341
0.108926
0.107548
0.106207
0.104888
0.103577
0.102265
0.100939
0.0995621
0.0981247
0.0966081
0.0950273
0.0933881
0.0916923
0.0899412
0.0881346
0.0862772
0.0843678
0.0823998
0.0803624
0.0782479
0.0760454
0.0737373
0.0713078
0.0687398
0.0660129
0.0630938
0.0599483
0.0565449
0.0528386
0.0487745
0.044292
0.0393409
0.0339217
0.0281223
0.0222189
0.0168842
0.0132128
0.0101098
0.00710659
0.00407216
0.000985067
-0.00214768
-0.00531493
-0.00850745
-0.0117185
-0.0149432
-0.0181783
-0.0214211
-0.0246697
-0.0279226
-0.0311784
-0.034436
-0.0376945
-0.0409529
-0.0442104
-0.0474664
-0.0507201
-0.0539712
-0.0572192
-0.0604636
-0.0637042
-0.0669408
-0.0701734
-0.0734018
-0.0766261
-0.0798464
-0.0830629
-0.0862759
-0.0894856
-0.0926923
-0.0958965
-0.0990985
-0.102299
-0.105498
-0.108696
0.217585
0.211593
0.205709
0.200079
0.194807
0.189935
0.185486
0.181449
0.177793
0.174506
0.171552
0.168872
0.166426
0.164169
0.162069
0.16009
0.158193
0.156353
0.15456
0.1528
0.151048
0.149288
0.147488
0.145643
0.143749
0.141818
0.139871
0.137925
0.13599
0.134068
0.13216
0.130265
0.128401
0.126577
0.124787
0.12303
0.121306
0.119618
0.117965
0.116343
0.114755
0.113195
0.111659
0.110148
0.10866
0.10721
0.1058
0.104433
0.103097
0.101777
0.100462
0.0991395
0.0977753
0.0963645
0.0948726
0.0933219
0.0917169
0.0900561
0.0883361
0.0865587
0.0847303
0.0828468
0.0809026
0.0788886
0.0767983
0.0746269
0.072359
0.0699758
0.0674594
0.0647906
0.0619411
0.0588829
0.0555812
0.0519996
0.0480947
0.0438288
0.0391712
0.0341506
0.0288701
0.0235763
0.0187266
0.0146574
0.0110775
0.00772399
0.00445927
0.00122282
-0.00200905
-0.00524429
-0.00848489
-0.0117307
-0.0149809
-0.0182345
-0.0214907
-0.0247487
-0.0280078
-0.0312673
-0.0345266
-0.0377851
-0.0410422
-0.0442975
-0.0475504
-0.0508005
-0.0540476
-0.0572911
-0.0605309
-0.0637668
-0.0669987
-0.0702265
-0.0734501
-0.0766698
-0.0798855
-0.0830976
-0.0863062
-0.0895116
-0.0927141
-0.0959142
-0.0991122
-0.102309
-0.105504
-0.108698
0.217666
0.211867
0.206214
0.200799
0.195699
0.190972
0.186638
0.182695
0.179128
0.175918
0.173008
0.170352
0.167904
0.165628
0.163498
0.161474
0.159512
0.157607
0.155732
0.153875
0.152008
0.150105
0.148142
0.146117
0.14403
0.141905
0.139774
0.137658
0.135567
0.133502
0.131465
0.129448
0.127461
0.125518
0.12362
0.121765
0.119953
0.118185
0.11646
0.114771
0.113124
0.111515
0.109937
0.108388
0.106862
0.105376
0.103931
0.102533
0.101174
0.0998387
0.0985132
0.0971834
0.0958234
0.0944279
0.0929569
0.091426
0.0898483
0.0882195
0.0865312
0.0847844
0.082986
0.0811316
0.0792176
0.0772382
0.075185
0.0730516
0.0708276
0.0684943
0.0660347
0.0634305
0.0606547
0.0576792
0.0544731
0.0510075
0.0472531
0.0431846
0.0387868
0.0340887
0.029217
0.0243608
0.0197622
0.0155934
0.0117951
0.00822787
0.00479294
0.00143055
-0.0018924
-0.00519344
-0.00848185
-0.0117626
-0.0150382
-0.0183103
-0.0215796
-0.0248464
-0.0281111
-0.0313735
-0.0346335
-0.0378912
-0.0411461
-0.0443982
-0.0476472
-0.0508928
-0.0541348
-0.0573731
-0.0606075
-0.0638379
-0.0670643
-0.0702866
-0.0735048
-0.0767191
-0.0799297
-0.0831366
-0.0863402
-0.0895408
-0.0927386
-0.0959341
-0.0991276
-0.10232
-0.10551
-0.108701
0.217763
0.212159
0.206713
0.201511
0.196605
0.192046
0.187854
0.184031
0.180555
0.177402
0.174523
0.171881
0.169431
0.167138
0.164975
0.162898
0.160873
0.158899
0.156932
0.154969
0.152966
0.150902
0.14876
0.146536
0.144243
0.141915
0.139592
0.1373
0.135049
0.132836
0.130663
0.128523
0.126419
0.124359
0.122352
0.120399
0.118499
0.11665
0.114853
0.113097
0.11139
0.109731
0.108111
0.106524
0.104963
0.103442
0.101964
0.100532
0.0991445
0.0977864
0.0964414
0.0950949
0.0937289
0.0923343
0.0908806
0.0893668
0.0878105
0.0862078
0.0845491
0.0828351
0.0810703
0.0792516
0.0773746
0.0754363
0.0734278
0.0713406
0.0691649
0.0668855
0.0644866
0.0619498
0.059252
0.0563629
0.0532606
0.0499185
0.0463143
0.0424293
0.0382661
0.0338501
0.0292813
0.0247135
0.0202896
0.0161378
0.0122563
0.00857396
0.00502842
0.0015732
-0.00182302
-0.00518019
-0.00851092
-0.0118231
-0.015122
-0.0184106
-0.0216913
-0.0249656
-0.0282344
-0.0314983
-0.034758
-0.0380135
-0.0412651
-0.0445129
-0.0477568
-0.0509968
-0.054233
-0.0574651
-0.0606932
-0.0639173
-0.0671373
-0.0703533
-0.0735655
-0.0767738
-0.0799785
-0.0831798
-0.0863779
-0.0895731
-0.0927657
-0.0959561
-0.0991446
-0.102332
-0.105518
-0.108703
0.217884
0.21252
0.207297
0.202287
0.197559
0.193159
0.189098
0.185377
0.181982
0.178888
0.176044
0.17342
0.170971
0.168663
0.166468
0.164346
0.162262
0.160215
0.158152
0.156067
0.153914
0.151679
0.149346
0.146913
0.144405
0.141865
0.139342
0.136869
0.134456
0.13209
0.129773
0.127505
0.125283
0.123109
0.120997
0.118948
0.116961
0.115032
0.113162
0.111341
0.109574
0.107863
0.106199
0.104574
0.10298
0.101426
0.0999152
0.0984503
0.0970311
0.0956434
0.0942709
0.0929012
0.0915204
0.0901179
0.0886694
0.0871708
0.0856309
0.0840511
0.0824222
0.080743
0.0790158
0.0772383
0.0754049
0.0735125
0.0715519
0.0695149
0.0673915
0.0651698
0.0628352
0.0603693
0.0577538
0.0549594
0.051965
0.0487484
0.0452954
0.0415945
0.0376457
0.0334637
0.0291252
0.0247561
0.0204848
0.0163908
0.0124928
0.00875725
0.00514759
0.00163105
-0.00181801
-0.00521815
-0.00858253
-0.0119203
-0.015238
-0.0185399
-0.0218294
-0.0251087
-0.0283796
-0.0316433
-0.0349008
-0.0381527
-0.0413996
-0.0446417
-0.0478793
-0.0511126
-0.0543417
-0.0575667
-0.0607876
-0.0640045
-0.0672174
-0.0704265
-0.0736318
-0.0768335
-0.0800318
-0.0832268
-0.0864189
-0.0896082
-0.0927951
-0.09598
-0.099163
-0.102345
-0.105525
-0.108706
0.218015
0.212903
0.207906
0.203095
0.198538
0.194283
0.190345
0.186727
0.183414
0.180373
0.177562
0.174955
0.172509
0.17019
0.16797
0.165809
0.163667
0.161543
0.159382
0.157168
0.154864
0.152455
0.149924
0.147279
0.144556
0.14181
0.139087
0.136424
0.133836
0.131313
0.12884
0.126426
0.124075
0.121786
0.119571
0.117431
0.115359
0.11335
0.111407
0.109523
0.107697
0.105932
0.104222
0.102556
0.100926
0.0993384
0.0977958
0.0962989
0.0948457
0.0934244
0.0920206
0.0906234
0.0892214
0.0878054
0.0863536
0.084867
0.0833436
0.0817852
0.0801887
0.0785467
0.0768593
0.0751242
0.0733354
0.0714906
0.0695801
0.0675942
0.0655252
0.0633613
0.0610908
0.0586981
0.0561657
0.0534695
0.0505873
0.047502
0.0441994
0.0406692
0.0369154
0.0329469
0.0288149
0.0246207
0.0204645
0.0164263
0.0125405
0.00878826
0.00514746
0.00159557
-0.0018871
-0.00531633
-0.00870434
-0.0120603
-0.0153912
-0.018702
-0.0219966
-0.025278
-0.0285484
-0.0318096
-0.0350628
-0.0383093
-0.0415497
-0.0447846
-0.0480146
-0.0512399
-0.0544609
-0.0576776
-0.0608903
-0.0640991
-0.0673042
-0.0705055
-0.0737034
-0.0768978
-0.0800891
-0.0832774
-0.0864629
-0.0896459
-0.0928267
-0.0960055
-0.0991828
-0.102359
-0.105534
-0.108708
0.218139
0.213267
0.208491
0.203882
0.199504
0.195397
0.191586
0.188068
0.184827
0.181837
0.179067
0.176489
0.174055
0.171731
0.169486
0.167285
0.165087
0.162882
0.160619
0.158276
0.155824
0.153245
0.150525
0.14768
0.144755
0.141801
0.138866
0.135992
0.133207
0.130504
0.12787
0.125307
0.122823
0.120415
0.118096
0.115866
0.113713
0.111626
0.109605
0.107655
0.105771
0.103953
0.102197
0.100489
0.0988205
0.0971967
0.0956188
0.094087
0.0925976
0.0911406
0.0897048
0.0882798
0.0868561
0.0854249
0.0839694
0.0824896
0.0809839
0.0794454
0.0778803
0.0762739
0.0746257
0.0729331
0.0711882
0.0693894
0.0675277
0.0655917
0.0635771
0.0614716
0.0592663
0.0569482
0.0544996
0.0519022
0.0491338
0.0461742
0.0430098
0.0396357
0.0360573
0.0322832
0.0283451
0.0243158
0.0202716
0.0162866
0.0124279
0.00868112
0.00503208
0.00146512
-0.00203459
-0.00547984
-0.0088813
-0.0122475
-0.0155852
-0.0188998
-0.0221953
-0.0254752
-0.028742
-0.0319979
-0.0352446
-0.0384835
-0.0417155
-0.0449416
-0.0481624
-0.0513784
-0.0545899
-0.0577974
-0.0610009
-0.0642008
-0.0673971
-0.07059
-0.0737797
-0.0769664
-0.0801501
-0.0833311
-0.0865096
-0.0896859
-0.0928601
-0.0960326
-0.0992037
-0.102374
-0.105543
-0.108711
0.218258
0.213614
0.209052
0.204641
0.200442
0.196493
0.192812
0.189396
0.186235
0.183309
0.180589
0.17804
0.175617
0.173284
0.171015
0.16877
0.166514
0.16423
0.161868
0.159403
0.156809
0.154068
0.15117
0.148135
0.145005
0.141833
0.138674
0.135582
0.132593
0.129704
0.126903
0.124188
0.121565
0.119032
0.116601
0.114274
0.112036
0.109873
0.107779
0.105757
0.103811
0.101938
0.100132
0.0983821
0.0966767
0.0950172
0.0934044
0.0918368
0.0903107
0.0888181
0.0873504
0.0858984
0.0844529
0.0830058
0.081546
0.0800701
0.0785784
0.07706
0.0755218
0.0739479
0.0723354
0.0706819
0.0689784
0.0672227
0.0654059
0.0635178
0.0615551
0.0595076
0.0573678
0.055125
0.0527638
0.0502654
0.0476091
0.0447739
0.0417448
0.0385203
0.0351048
0.0315064
0.027741
0.0238595
0.0199219
0.0159968
0.0121757
0.00844929
0.00480828
0.00124182
-0.00226115
-0.00571077
-0.00911603
-0.0124845
-0.0158226
-0.0191354
-0.0224271
-0.0257015
-0.0289613
-0.0322089
-0.0354463
-0.0386752
-0.0418969
-0.0451123
-0.0483223
-0.0515275
-0.0547284
-0.0579254
-0.0611188
-0.0643088
-0.0674956
-0.0706794
-0.0738604
-0.0770386
-0.0802143
-0.0833876
-0.0865587
-0.0897278
-0.0928952
-0.096061
-0.0992256
-0.102389
-0.105552
-0.108714
0.218369
0.213949
0.209605
0.205395
0.201373
0.197576
0.194023
0.190713
0.187639
0.184784
0.182114
0.179592
0.177178
0.174839
0.172546
0.17026
0.16795
0.165589
0.163131
0.160549
0.157821
0.15493
0.151864
0.14864
0.145301
0.141903
0.138512
0.135199
0.132004
0.128927
0.125953
0.123079
0.120308
0.117644
0.115096
0.112664
0.110337
0.108098
0.105936
0.103847
0.101834
0.0999003
0.0980402
0.0962451
0.0945025
0.0928091
0.0911648
0.0895651
0.0880054
0.08648
0.0849816
0.0835031
0.0820358
0.0805731
0.079107
0.0776332
0.0761502
0.0746504
0.0731344
0.0715885
0.0700077
0.0683874
0.0667195
0.065001
0.0632235
0.0613788
0.0594648
0.0574739
0.055398
0.0532293
0.0509562
0.0485588
0.0460175
0.0433096
0.0404187
0.0373397
0.0340749
0.0306338
0.0270229
0.0232777
0.0194423
0.0155777
0.0118005
0.00810459
0.00448358
0.000929699
-0.00256525
-0.00600916
-0.00940942
-0.0127726
-0.0161044
-0.0194098
-0.022693
-0.0259575
-0.0292065
-0.0324426
-0.0356679
-0.0388843
-0.0420933
-0.0452961
-0.0484936
-0.0516865
-0.0548755
-0.0580609
-0.0612432
-0.0644225
-0.0675991
-0.0707731
-0.0739447
-0.0771141
-0.0802812
-0.0834464
-0.0866098
-0.0897714
-0.0929316
-0.0960905
-0.0992483
-0.102405
-0.105562
-0.108718
0.218476
0.214271
0.21014
0.206131
0.202291
0.198652
0.195232
0.192031
0.189043
0.186252
0.183629
0.181133
0.178727
0.176384
0.174069
0.171747
0.169385
0.16695
0.164402
0.161716
0.158868
0.155838
0.15261
0.149197
0.145646
0.142022
0.138406
0.134864
0.131457
0.128185
0.125033
0.121992
0.119064
0.116261
0.113591
0.111051
0.108626
0.106305
0.104077
0.101931
0.0998606
0.0978705
0.0959573
0.0941157
0.0923323
0.0906024
0.0889242
0.0872918
0.085699
0.0841434
0.0826163
0.0811127
0.0796245
0.0781471
0.076674
0.0751995
0.0737223
0.0722363
0.0707371
0.0692131
0.0676573
0.066063
0.0644225
0.0627325
0.0609872
0.0591787
0.0573072
0.0553677
0.0533511
0.0512535
0.0490684
0.0467739
0.0443475
0.0417641
0.0390091
0.0360762
0.0329607
0.029669
0.026205
0.0225903
0.0188514
0.0150429
0.0113136
0.00765628
0.00406497
0.000533499
-0.00294408
-0.00637363
-0.00976103
-0.0131118
-0.0164311
-0.0197234
-0.0229929
-0.0262433
-0.0294776
-0.0326986
-0.0359088
-0.0391101
-0.0423041
-0.0454922
-0.0486754
-0.0518546
-0.0550303
-0.0582031
-0.0613732
-0.064541
-0.0677067
-0.0708703
-0.0740321
-0.077192
-0.0803503
-0.0835071
-0.0866623
-0.0898163
-0.092969
-0.0961208
-0.0992716
-0.102422
-0.105571
-0.108721
0.218581
0.214585
0.210659
0.206846
0.203183
0.199702
0.196416
0.193326
0.190425
0.187701
0.185123
0.18265
0.180256
0.177913
0.175581
0.173226
0.170815
0.168313
0.165685
0.162907
0.159949
0.156788
0.153407
0.149825
0.146086
0.142248
0.138394
0.134619
0.130995
0.127528
0.124188
0.120961
0.117858
0.114898
0.112096
0.109446
0.106928
0.104522
0.102222
0.100016
0.0978953
0.0958586
0.0938991
0.0920123
0.0901881
0.0884205
0.0867062
0.0850395
0.0834145
0.0818286
0.0802743
0.0787464
0.0772376
0.0757448
0.0742632
0.0727854
0.0713115
0.0698341
0.0683457
0.0668364
0.0652977
0.063721
0.0620971
0.0604216
0.0586942
0.056909
0.0550715
0.0531799
0.0512242
0.0491968
0.0470978
0.044907
0.0425945
0.0401345
0.0375141
0.0347249
0.0317562
0.0286103
0.0252856
0.0217904
0.0181454
0.014396
0.0107199
0.00711003
0.00355799
5.78168e-05
-0.00339433
-0.00680207
-0.0101696
-0.0135015
-0.0168022
-0.0200759
-0.0233267
-0.0265583
-0.0297738
-0.0329762
-0.0361681
-0.0393515
-0.0425282
-0.0456996
-0.0488668
-0.0520307
-0.0551919
-0.0583509
-0.061508
-0.0646635
-0.0678175
-0.0709702
-0.0741217
-0.0772719
-0.080421
-0.083569
-0.086716
-0.089862
-0.0930071
-0.0961516
-0.0992953
-0.102439
-0.105582
-0.108724
0.218684
0.214892
0.211165
0.207541
0.204052
0.200723
0.197567
0.194585
0.191773
0.189117
0.186585
0.184141
0.181761
0.179421
0.177074
0.174687
0.172229
0.169668
0.166972
0.164108
0.161046
0.15777
0.154264
0.150536
0.146625
0.142589
0.138515
0.134508
0.130651
0.126971
0.12343
0.120007
0.116714
0.113584
0.110634
0.107858
0.105245
0.102758
0.100388
0.0981271
0.0959555
0.0938755
0.0918763
0.089949
0.0880878
0.0862861
0.0845389
0.0828391
0.0811847
0.0795696
0.0779894
0.0764379
0.0749088
0.0733992
0.0719042
0.0704167
0.0689371
0.0674566
0.0659686
0.064466
0.0629359
0.0613678
0.0597522
0.0580862
0.0563715
0.0546011
0.0527848
0.0509258
0.0490217
0.0470584
0.0450369
0.0429477
0.0407504
0.0384165
0.0359299
0.033282
0.0304588
0.027455
0.0242618
0.0208823
0.0173301
0.0136392
0.0100207
0.00646842
0.00296656
-0.000493325
-0.00391268
-0.00729208
-0.0106336
-0.0139405
-0.0172167
-0.0204664
-0.0236934
-0.0269015
-0.0300941
-0.0332742
-0.0364445
-0.0396072
-0.0427642
-0.0459168
-0.0490662
-0.0522134
-0.0553588
-0.058503
-0.0616463
-0.0647888
-0.0679307
-0.071072
-0.0742128
-0.0773529
-0.0804926
-0.0836316
-0.0867701
-0.0899081
-0.0930456
-0.0961826
-0.0993192
-0.102456
-0.105592
-0.108728
0.218784
0.215192
0.211658
0.208215
0.204893
0.201713
0.198684
0.19581
0.193086
0.190498
0.188013
0.1856
0.183233
0.180892
0.178527
0.176113
0.173615
0.171001
0.168241
0.165303
0.162165
0.158807
0.155203
0.151357
0.147301
0.143087
0.138794
0.134531
0.130416
0.126501
0.122754
0.119131
0.115642
0.112331
0.109225
0.10631
0.103583
0.101013
0.0985785
0.0962644
0.0940512
0.0919339
0.0899019
0.087941
0.0860487
0.0842172
0.0824416
0.0807134
0.0790332
0.0773932
0.0757889
0.0742143
0.0726639
0.0711352
0.0696222
0.0681199
0.0666279
0.065136
0.0636362
0.0621236
0.0605864
0.059015
0.057395
0.0557244
0.0540087
0.0522432
0.0504395
0.0486047
0.0467431
0.0448393
0.0428863
0.0408834
0.0387929
0.036583
0.0342331
0.0317304
0.0290551
0.0261956
0.0231357
0.0198724
0.016415
0.0127937
0.00922516
0.00573668
0.00229521
-0.00111596
-0.00449604
-0.00784137
-0.0111512
-0.0144274
-0.0176735
-0.0208936
-0.0240916
-0.0272715
-0.0304369
-0.0335909
-0.0367363
-0.0398755
-0.0430103
-0.0461421
-0.0492721
-0.0524011
-0.0555297
-0.0586582
-0.0617869
-0.0649159
-0.0680451
-0.0711747
-0.0743044
-0.0774344
-0.0805644
-0.0836944
-0.0868243
-0.0899542
-0.093084
-0.0962136
-0.0993431
-0.102472
-0.105602
-0.108731
0.218884
0.215486
0.212139
0.208871
0.205708
0.202668
0.199762
0.196992
0.194354
0.191833
0.189397
0.187015
0.184658
0.182314
0.179934
0.177491
0.174954
0.172296
0.169486
0.166497
0.163307
0.159885
0.156206
0.152265
0.148085
0.14371
0.139204
0.134682
0.130292
0.12612
0.122157
0.118334
0.11464
0.11113
0.107848
0.104791
0.101955
0.0993056
0.0968154
0.0944534
0.0922082
0.0900586
0.0879991
0.0860123
0.0840942
0.082238
0.0804392
0.0786891
0.0769871
0.0753262
0.0737006
0.072104
0.0705309
0.0689795
0.0674424
0.0659149
0.064395
0.0628754
0.0613491
0.0598103
0.0582471
0.0566537
0.0550162
0.0533259
0.0515938
0.0498191
0.0480125
0.0461896
0.0443576
0.042507
0.0406245
0.0386994
0.0367069
0.0346163
0.0324013
0.0300415
0.027515
0.0248008
0.0218757
0.0187421
0.0154281
0.0119853
0.00838448
0.00493646
0.00155465
-0.00180449
-0.00514136
-0.00844811
-0.011721
-0.014961
-0.0181712
-0.021356
-0.0245196
-0.0276663
-0.0308
-0.033924
-0.0370413
-0.0401541
-0.0432644
-0.0463735
-0.0494825
-0.0525921
-0.0557028
-0.0588149
-0.0619284
-0.0650433
-0.0681596
-0.0712771
-0.0743958
-0.0775153
-0.0806357
-0.0837566
-0.086878
-0.0899998
-0.0931219
-0.0962442
-0.0993666
-0.102489
-0.105612
-0.108734
0.21898
0.21577
0.212602
0.209502
0.206488
0.203579
0.20079
0.198123
0.195571
0.193113
0.190722
0.188364
0.186019
0.183672
0.181275
0.178803
0.176233
0.173543
0.170702
0.167683
0.164454
0.160984
0.157245
0.153221
0.148928
0.144403
0.139705
0.134946
0.130286
0.125851
0.121655
0.117623
0.11372
0.110006
0.106537
0.10333
0.100378
0.0976418
0.0950958
0.0926955
0.0904276
0.088261
0.0861831
0.0841801
0.0822448
0.0803709
0.0785555
0.0767901
0.0750721
0.0733943
0.0717498
0.0701317
0.068534
0.0669548
0.0653863
0.0638232
0.0622613
0.0606975
0.0591252
0.0575371
0.055924
0.0542819
0.0526048
0.0508763
0.0491101
0.0473102
0.0454838
0.0436594
0.0418466
0.0400382
0.0382205
0.0363676
0.0344672
0.0324909
0.0304094
0.0281953
0.0258245
0.0232717
0.0205045
0.0175305
0.0144616
0.0114177
0.00759555
0.00410466
0.000762191
-0.00255174
-0.00584609
-0.0091114
-0.0123426
-0.0155404
-0.0187084
-0.0218517
-0.0249751
-0.0280834
-0.0311809
-0.0342709
-0.0373567
-0.0404404
-0.043524
-0.0466086
-0.0496952
-0.0527844
-0.0558764
-0.0589713
-0.0620692
-0.0651698
-0.0682729
-0.0713783
-0.0744858
-0.077595
-0.0807057
-0.0838176
-0.0869306
-0.0900445
-0.093159
-0.0962741
-0.0993896
-0.102505
-0.105621
-0.108737
0.219071
0.216041
0.213043
0.210102
0.207238
0.204464
0.20179
0.199218
0.196739
0.19433
0.191971
0.189631
0.187296
0.184947
0.182534
0.180039
0.177448
0.174735
0.171865
0.168815
0.165546
0.162031
0.158239
0.154147
0.149762
0.145117
0.140264
0.135304
0.130397
0.125704
0.121268
0.117025
0.112918
0.109008
0.105363
0.101996
0.0989115
0.096081
0.0934715
0.0910363
0.0887387
0.0865542
0.0844641
0.0824538
0.0805118
0.0786297
0.0768066
0.0750338
0.0733063
0.0716162
0.069955
0.0683147
0.0666893
0.0650754
0.0634655
0.061853
0.0602318
0.058603
0.0569633
0.055303
0.0536177
0.0519017
0.0501549
0.0483661
0.0465461
0.0447041
0.0428451
0.0410008
0.0391941
0.0374194
0.0356628
0.0338788
0.0320657
0.0302015
0.0282518
0.0261922
0.0239886
0.0216075
0.0190167
0.0162158
0.0132296
0.0100365
0.00655554
0.00321372
-7.86677e-05
-0.00335589
-0.00661087
-0.00983232
-0.0130163
-0.016165
-0.0192837
-0.0223786
-0.0254555
-0.0285198
-0.0315762
-0.0346283
-0.0376793
-0.0407314
-0.0437861
-0.0468447
-0.0499077
-0.0529755
-0.0560482
-0.0591257
-0.0622076
-0.0652938
-0.0683837
-0.0714771
-0.0745734
-0.0776724
-0.0807736
-0.0838768
-0.0869816
-0.0900877
-0.0931949
-0.096303
-0.0994118
-0.102521
-0.105631
-0.108741
0.219157
0.216293
0.213453
0.210659
0.207931
0.205281
0.202715
0.20023
0.197815
0.195452
0.193123
0.190802
0.188476
0.186124
0.183702
0.181191
0.178574
0.175822
0.172918
0.169845
0.166558
0.163012
0.159161
0.154997
0.150537
0.145807
0.140845
0.135739
0.130628
0.125687
0.121023
0.116596
0.112317
0.108214
0.10437
0.100828
0.0975917
0.0946406
0.0919399
0.0894589
0.0871392
0.0849431
0.0828467
0.0808328
0.0788904
0.0770105
0.0751905
0.0734202
0.0716916
0.0699947
0.0683189
0.0666551
0.0649969
0.0633407
0.0616783
0.0600019
0.0583032
0.056586
0.0548527
0.0530955
0.0513134
0.0495012
0.0476594
0.0457877
0.0438939
0.0419892
0.040087
0.0382149
0.0364033
0.0346532
0.0329541
0.0312481
0.0295231
0.0277758
0.0259603
0.0240529
0.0220201
0.0198294
0.0174451
0.0148417
0.0120072
0.00886419
0.00556655
0.00229188
-0.000974927
-0.00422549
-0.00744216
-0.010615
-0.013744
-0.0168349
-0.0198955
-0.0229339
-0.0259572
-0.0289716
-0.0319819
-0.0349922
-0.0380053
-0.0410232
-0.0440474
-0.0470787
-0.0501172
-0.0531631
-0.0562162
-0.059276
-0.062342
-0.0654138
-0.0684907
-0.0715722
-0.0746577
-0.0777467
-0.0808388
-0.0839334
-0.0870303
-0.090129
-0.0932291
-0.0963306
-0.0994329
-0.102536
-0.10564
-0.108743
0.219231
0.216513
0.213814
0.211154
0.208548
0.206009
0.203538
0.201129
0.198773
0.196456
0.194153
0.191855
0.18954
0.187185
0.184756
0.182232
0.179597
0.176825
0.173901
0.170788
0.167438
0.163823
0.159914
0.155704
0.151207
0.14644
0.141422
0.136203
0.130904
0.125737
0.120863
0.116281
0.111869
0.107607
0.103597
0.0998939
0.096505
0.0934174
0.0906001
0.0880275
0.085651
0.0834234
0.0813119
0.0792925
0.0773537
0.0754839
0.0736769
0.0719191
0.0701987
0.0685014
0.0668137
0.0651243
0.0634268
0.0617191
0.0599939
0.0582383
0.0564465
0.054622
0.0527721
0.0508981
0.0490004
0.0470703
0.0451131
0.043141
0.0411631
0.039187
0.0372343
0.0353345
0.0335184
0.0317923
0.0301495
0.0285383
0.0269158
0.0252887
0.0236166
0.021861
0.0199926
0.0179755
0.0157815
0.01339
0.0107666
0.00777439
0.00455436
0.00130666
-0.00194987
-0.00517772
-0.00835174
-0.0114665
-0.0145287
-0.0175499
-0.0205416
-0.0235141
-0.0264759
-0.0294339
-0.0323932
-0.0353577
-0.03833
-0.0413119
-0.0443041
-0.0473071
-0.0503207
-0.0533445
-0.0563779
-0.0594201
-0.0624705
-0.0655282
-0.0685924
-0.0716624
-0.0747375
-0.0778169
-0.0809002
-0.0839868
-0.0870761
-0.0901678
-0.0932613
-0.0963565
-0.0994528
-0.10255
-0.105648
-0.108746
0.219289
0.21669
0.214108
0.211561
0.209062
0.206619
0.204232
0.201896
0.1996
0.197326
0.195056
0.192785
0.19048
0.188125
0.185696
0.183169
0.180524
0.177728
0.174775
0.171624
0.168228
0.164539
0.160538
0.156265
0.151748
0.146963
0.1419
0.13659
0.131151
0.125823
0.120798
0.116095
0.111575
0.107202
0.103074
0.0992414
0.0957092
0.0924757
0.0895212
0.08682
0.0843301
0.0820171
0.0798507
0.0778012
0.0758543
0.0739938
0.0722036
0.0704645
0.0687588
0.0670661
0.0653677
0.063648
0.0619008
0.0601269
0.0583291
0.0564797
0.0545825
0.0526388
0.0506573
0.0486519
0.0466379
0.0445969
0.042521
0.0404529
0.0383993
0.0363715
0.0343836
0.0324703
0.0306645
0.0289759
0.0274013
0.0259067
0.0244209
0.0229378
0.0214184
0.0198133
0.0180946
0.0162337
0.0141978
0.0119709
0.00952124
0.00667819
0.00350057
0.000238933
-0.00302999
-0.00623683
-0.0093565
-0.0123958
-0.0153734
-0.0183089
-0.0212183
-0.024114
-0.0270057
-0.0299006
-0.0328038
-0.035719
-0.0386482