/*--------------------------------*- C++ -*----------------------------------*\
  =========                 |
  \\      /  F ield         | OpenFOAM: The Open Source CFD Toolbox
   \\    /   O peration     | Website:  https://openfoam.org
    \\  /    A nd           | Version:  6
     \\/     M anipulation  |
\*---------------------------------------------------------------------------*/
FoamFile
{
    version     2.0;
    format      ascii;
    class       volScalarField;
    location    "2400";
    object      T;
}
// * * * * * * * * * * * * * * * * * * * * * * * * * * * * * * * * * * * * * //

dimensions      [0 0 0 1 0 0 0];

internalField   nonuniform List<scalar> 
4800
(
552.433
552.199
551.967
551.736
551.512
551.3
551.105
550.93
550.778
550.646
550.531
550.432
550.346
550.269
550.2
550.136
550.078
550.023
549.972
549.923
549.876
549.83
549.786
549.742
549.699
549.655
549.612
549.568
549.524
549.479
549.434
549.387
549.34
549.293
549.244
549.196
549.147
549.098
549.049
549
548.952
548.904
548.857
548.81
548.763
548.717
548.671
548.624
548.577
548.528
548.478
548.425
548.37
548.312
548.252
548.189
548.125
548.058
547.99
547.92
547.848
547.775
547.699
547.621
547.54
547.456
547.367
547.273
547.17
547.058
546.933
546.793
546.638
546.469
546.289
546.102
545.911
545.721
545.537
545.362
545.199
545.054
544.924
544.804
544.689
544.576
544.464
544.352
544.239
544.125
544.011
543.895
543.779
543.663
543.546
543.428
543.31
543.192
543.074
542.956
542.838
542.719
542.601
542.483
542.365
542.247
542.129
542.011
541.893
541.776
541.659
541.541
541.424
541.308
541.191
541.074
540.958
540.841
540.725
540.608
552.432
552.197
551.963
551.733
551.511
551.301
551.109
550.938
550.787
550.656
550.542
550.443
550.356
550.279
550.209
550.145
550.086
550.031
549.979
549.929
549.881
549.835
549.789
549.745
549.7
549.655
549.611
549.566
549.521
549.475
549.429
549.381
549.333
549.285
549.236
549.187
549.138
549.089
549.04
548.991
548.942
548.893
548.846
548.799
548.752
548.706
548.659
548.612
548.565
548.517
548.467
548.414
548.36
548.302
548.242
548.18
548.116
548.049
547.981
547.911
547.84
547.767
547.691
547.614
547.534
547.45
547.362
547.268
547.167
547.056
546.934
546.799
546.65
546.486
546.31
546.123
545.928
545.73
545.536
545.35
545.181
545.038
544.913
544.797
544.686
544.575
544.464
544.352
544.239
544.125
544.011
543.895
543.779
543.662
543.545
543.428
543.31
543.192
543.074
542.955
542.837
542.719
542.601
542.482
542.364
542.246
542.128
542.011
541.893
541.776
541.658
541.541
541.424
541.307
541.191
541.074
540.958
540.841
540.725
540.608
552.431
552.193
551.958
551.729
551.511
551.307
551.121
550.954
550.806
550.677
550.564
550.464
550.377
550.298
550.227
550.163
550.103
550.047
549.993
549.942
549.893
549.845
549.797
549.751
549.704
549.658
549.611
549.564
549.516
549.468
549.42
549.371
549.321
549.271
549.221
549.171
549.12
549.07
549.021
548.971
548.922
548.873
548.825
548.777
548.729
548.683
548.636
548.589
548.542
548.494
548.444
548.393
548.339
548.282
548.223
548.161
548.097
548.032
547.964
547.895
547.824
547.751
547.677
547.6
547.521
547.438
547.351
547.258
547.158
547.05
546.932
546.802
546.659
546.502
546.331
546.146
545.95
545.744
545.532
545.323
545.136
545.004
544.893
544.787
544.68
544.572
544.463
544.351
544.239
544.125
544.01
543.895
543.778
543.662
543.544
543.427
543.309
543.191
543.073
542.955
542.836
542.718
542.6
542.482
542.364
542.246
542.128
542.01
541.893
541.775
541.658
541.541
541.424
541.307
541.19
541.074
540.957
540.841
540.725
540.608
552.432
552.196
551.963
551.737
551.522
551.322
551.141
550.978
550.833
550.706
550.594
550.495
550.406
550.327
550.255
550.189
550.128
550.07
550.015
549.962
549.91
549.86
549.811
549.761
549.712
549.663
549.613
549.563
549.512
549.461
549.409
549.357
549.305
549.253
549.201
549.149
549.097
549.045
548.994
548.944
548.893
548.844
548.794
548.745
548.697
548.649
548.602
548.555
548.508
548.46
548.411
548.361
548.308
548.252
548.194
548.133
548.07
548.005
547.939
547.87
547.8
547.728
547.654
547.579
547.5
547.418
547.332
547.24
547.142
547.036
546.921
546.796
546.659
546.509
546.344
546.164
545.968
545.756
545.524
545.275
545.035
544.947
544.867
544.776
544.676
544.571
544.463
544.352
544.239
544.125
544.01
543.894
543.778
543.661
543.543
543.426
543.308
543.19
543.072
542.953
542.835
542.717
542.599
542.48
542.362
542.245
542.127
542.009
541.892
541.775
541.657
541.54
541.424
541.307
541.19
541.074
540.957
540.841
540.724
540.608
552.432
552.199
551.97
551.749
551.539
551.344
551.168
551.009
550.868
550.743
550.631
550.533
550.444
550.364
550.291
550.223
550.16
550.101
550.043
549.988
549.934
549.881
549.829
549.776
549.724
549.671
549.617
549.563
549.508
549.452
549.396
549.341
549.286
549.231
549.176
549.121
549.067
549.014
548.962
548.91
548.858
548.806
548.756
548.705
548.656
548.607
548.559
548.512
548.465
548.417
548.369
548.319
548.268
548.213
548.156
548.096
548.034
547.97
547.905
547.837
547.768
547.697
547.624
547.549
547.471
547.389
547.304
547.213
547.117
547.013
546.902
546.781
546.649
546.504
546.346
546.171
545.977
545.763
545.519
545.219
544.779
544.883
544.85
544.772
544.677
544.573
544.464
544.353
544.239
544.125
544.009
543.893
543.777
543.659
543.542
543.424
543.306
543.188
543.07
542.952
542.833
542.715
542.597
542.479
542.361
542.243
542.126
542.008
541.891
541.774
541.657
541.54
541.423
541.306
541.19
541.073
540.957
540.841
540.724
540.608
552.434
552.203
551.978
551.762
551.559
551.372
551.201
551.046
550.908
550.784
550.674
550.576
550.487
550.406
550.332
550.263
550.199
550.137
550.077
550.019
549.962
549.906
549.851
549.795
549.738
549.68
549.621
549.562
549.502
549.442
549.382
549.322
549.263
549.205
549.147
549.09
549.033
548.977
548.923
548.869
548.815
548.762
548.71
548.658
548.607
548.557
548.508
548.46
548.413
548.365
548.318
548.269
548.218
548.165
548.109
548.051
547.99
547.927
547.862
547.796
547.727
547.657
547.585
547.511
547.433
547.353
547.268
547.178
547.083
546.982
546.874
546.756
546.629
546.49
546.337
546.167
545.98
545.771
545.539
545.285
545.033
544.956
544.877
544.786
544.685
544.578
544.467
544.355
544.24
544.125
544.009
543.892
543.775
543.658
543.54
543.422
543.304
543.186
543.067
542.949
542.831
542.713
542.595
542.477
542.359
542.242
542.124
542.007
541.89
541.772
541.655
541.539
541.422
541.306
541.189
541.073
540.957
540.84
540.724
540.608
552.436
552.21
551.99
551.781
551.584
551.402
551.236
551.086
550.951
550.83
550.721
550.623
550.535
550.453
550.378
550.308
550.241
550.177
550.115
550.054
549.994
549.935
549.875
549.813
549.751
549.688
549.623
549.559
549.494
549.429
549.364
549.3
549.237
549.175
549.113
549.053
548.994
548.935
548.878
548.822
548.766
548.711
548.657
548.604
548.552
548.5
548.45
548.402
548.354
548.306
548.259
548.211
548.161
548.109
548.054
547.996
547.937
547.875
547.812
547.746
547.679
547.61
547.538
547.465
547.388
547.308
547.224
547.136
547.043
546.944
546.838
546.724
546.601
546.466
546.319
546.156
545.977
545.78
545.57
545.356
545.162
545.029
544.917
544.808
544.698
544.586
544.472
544.357
544.241
544.125
544.008
543.891
543.773
543.655
543.537
543.419
543.301
543.183
543.065
542.947
542.829
542.711
542.593
542.475
542.357
542.24
542.122
542.005
541.888
541.771
541.654
541.538
541.421
541.305
541.188
541.072
540.956
540.84
540.724
540.608
552.441
552.224
552.01
551.806
551.615
551.438
551.277
551.131
550.998
550.879
550.772
550.674
550.586
550.504
550.428
550.356
550.287
550.22
550.155
550.091
550.028
549.964
549.899
549.832
549.763
549.693
549.623
549.552
549.482
549.412
549.343
549.274
549.207
549.14
549.076
549.012
548.949
548.888
548.828
548.769
548.712
548.655
548.599
548.545
548.491
548.438
548.387
548.337
548.289
548.241
548.193
548.145
548.096
548.045
547.991
547.934
547.876
547.816
547.754
547.689
547.623
547.555
547.484
547.411
547.335
547.256
547.174
547.088
546.997
546.9
546.796
546.685
546.566
546.436
546.294
546.139
545.971
545.788
545.597
545.405
545.229
545.082
544.952
544.83
544.712
544.594
544.477
544.36
544.242
544.125
544.007
543.889
543.771
543.652
543.534
543.416
543.298
543.18
543.062
542.943
542.826
542.708
542.59
542.472
542.355
542.237
542.12
542.003
541.886
541.769
541.653
541.536
541.42
541.304
541.188
541.072
540.956
540.84
540.724
540.608
552.444
552.234
552.029
551.832
551.647
551.476
551.319
551.176
551.046
550.93
550.824
550.728
550.639
550.557
550.479
550.406
550.335
550.266
550.198
550.13
550.063
549.994
549.922
549.849
549.773
549.696
549.619
549.542
549.466
549.392
549.318
549.245
549.172
549.102
549.033
548.966
548.9
548.836
548.774
548.712
548.653
548.594
548.537
548.481
548.425
548.372
548.319
548.268
548.219
548.171
548.123
548.074
548.025
547.975
547.921
547.866
547.809
547.749
547.688
547.625
547.56
547.492
547.423
547.351
547.277
547.199
547.119
547.034
546.945
546.85
546.75
546.642
546.526
546.4
546.264
546.116
545.957
545.786
545.61
545.433
545.267
545.116
544.978
544.848
544.724
544.602
544.481
544.362
544.242
544.123
544.005
543.886
543.767
543.649
543.53
543.412
543.294
543.176
543.058
542.94
542.822
542.704
542.587
542.469
542.352
542.235
542.118
542.001
541.884
541.768
541.651
541.535
541.419
541.303
541.187
541.071
540.955
540.839
540.724
540.608
552.447
552.244
552.047
551.858
551.68
551.515
551.363
551.224
551.098
550.984
550.879
550.784
550.695
550.611
550.533
550.458
550.384
550.313
550.241
550.17
550.097
550.023
549.945
549.864
549.781
549.697
549.612
549.529
549.448
549.367
549.289
549.211
549.135
549.06
548.987
548.916
548.847
548.78
548.715
548.652
548.59
548.529
548.471
548.413
548.357
548.301
548.248
548.196
548.146
548.096
548.048
547.999
547.949
547.899
547.846
547.791
547.735
547.676
547.616
547.554
547.49
547.424
547.356
547.286
547.213
547.137
547.058
546.976
546.889
546.797
546.699
546.594
546.482
546.36
546.23
546.089
545.938
545.778
545.612
545.446
545.286
545.135
544.994
544.861
544.732
544.607
544.484
544.362
544.241
544.121
544.002
543.882
543.763
543.645
543.526
543.408
543.289
543.171
543.053
542.936
542.818
542.701
542.583
542.466
542.349
542.232
542.115
541.999
541.882
541.766
541.649
541.533
541.417
541.302
541.186
541.07
540.954
540.839
540.723
540.608
552.452
552.257
552.068
551.886
551.715
551.555
551.408
551.273
551.15
551.038
550.935
550.839
550.75
550.667
550.587
550.51
550.435
550.36
550.286
550.21
550.132
550.051
549.966
549.878
549.787
549.695
549.603
549.514
549.426
549.34
549.256
549.174
549.093
549.015
548.938
548.864
548.792
548.722
548.654
548.588
548.524
548.462
548.401
548.342
548.285
548.228
548.174
548.12
548.069
548.019
547.969
547.919
547.869
547.818
547.766
547.711
547.656
547.598
547.539
547.478
547.416
547.351
547.285
547.216
547.145
547.071
546.994
546.914
546.829
546.739
546.645
546.543
546.435
546.318
546.193
546.058
545.915
545.764
545.606
545.448
545.293
545.144
545.003
544.868
544.737
544.609
544.484
544.361
544.239
544.118
543.997
543.878
543.758
543.639
543.521
543.402
543.284
543.166
543.049
542.931
542.814
542.696
542.579
542.462
542.345
542.229
542.112
541.996
541.88
541.764
541.648
541.532
541.416
541.3
541.185
541.069
540.954
540.838
540.723
540.608
552.457
552.271
552.09
551.916
551.75
551.596
551.453
551.322
551.202
551.091
550.99
550.895
550.806
550.722
550.642
550.563
550.486
550.409
550.33
550.25
550.166
550.079
549.987
549.891
549.792
549.693
549.594
549.497
549.404
549.312
549.222
549.135
549.05
548.967
548.886
548.809
548.734
548.661
548.59
548.522
548.456
548.392
548.33
548.269
548.21
548.153
548.097
548.042
547.99
547.938
547.887
547.837
547.786
547.734
547.682
547.628
547.573
547.516
547.458
547.399
547.337
547.275
547.21
547.143
547.073
547.001
546.926
546.848
546.766
546.679
546.587
546.489
546.385
546.273
546.153
546.025
545.889
545.745
545.595
545.443
545.292
545.146
545.005
544.869
544.737
544.608
544.482
544.357
544.234
544.113
543.992
543.872
543.752
543.633
543.515
543.396
543.278
543.161
543.043
542.926
542.809
542.692
542.575
542.458
542.342
542.225
542.109
541.993
541.877
541.761
541.645
541.53
541.414
541.299
541.184
541.068
540.953
540.838
540.723
540.608
552.461
552.284
552.111
551.944
551.785
551.636
551.498
551.371
551.253
551.145
551.044
550.951
550.862
550.778
550.697
550.617
550.537
550.457
550.375
550.29
550.201
550.107
550.009
549.906
549.8
549.692
549.586
549.482
549.381
549.283
549.187
549.094
549.004
548.917
548.833
548.752
548.674
548.598
548.525
548.454
548.386
548.32
548.256
548.194
548.134
548.075
548.018
547.962
547.908
547.855
547.803
547.752
547.7
547.648
547.595
547.542
547.487
547.431
547.374
547.316
547.256
547.195
547.132
547.067
546.999
546.929
546.856
546.779
546.699
546.615
546.526
546.432
546.332
546.225
546.11
545.987
545.858
545.721
545.578
545.432
545.285
545.141
545.001
544.865
544.732
544.603
544.476
544.351
544.228
544.106
543.985
543.865
543.745
543.626
543.508
543.39
543.272
543.154
543.037
542.92
542.803
542.687
542.57
542.454
542.338
542.222
542.106
541.99
541.874
541.759
541.643
541.528
541.413
541.297
541.182
541.067
540.952
540.837
540.722
540.607
552.465
552.297
552.132
551.972
551.819
551.676
551.543
551.419
551.304
551.198
551.099
551.007
550.919
550.834
550.752
550.671
550.589
550.506
550.42
550.331
550.237
550.137
550.032
549.922
549.809
549.694
549.579
549.467
549.358
549.254
549.152
549.054
548.959
548.867
548.779
548.694
548.613
548.535
548.459
548.385
548.315
548.247
548.181
548.118
548.056
547.996
547.937
547.881
547.825
547.771
547.718
547.665
547.613
547.56
547.507
547.454
547.4
547.345
547.289
547.232
547.173
547.113
547.052
546.988
546.922
546.854
546.782
546.708
546.631
546.549
546.464
546.373
546.277
546.174
546.064
545.947
545.823
545.693
545.556
545.415
545.272
545.13
544.992
544.856
544.724
544.595
544.468
544.343
544.219
544.097
543.976
543.856
543.737
543.618
543.5
543.382
543.264
543.147
543.031
542.914
542.798
542.681
542.565
542.449
542.333
542.218
542.102
541.987
541.871
541.756
541.641
541.526
541.411
541.296
541.181
541.066
540.951
540.837
540.722
540.607
552.469
552.309
552.152
551.999
551.853
551.715
551.587
551.466
551.355
551.251
551.155
551.063
550.976
550.891
550.808
550.725
550.641
550.555
550.466
550.372
550.273
550.169
550.057
549.94
549.819
549.696
549.573
549.453
549.337
549.226
549.118
549.013
548.913
548.816
548.724
548.636
548.551
548.47
548.392
548.316
548.243
548.173
548.105
548.04
547.977
547.916
547.856
547.798
547.742
547.686
547.632
547.578
547.525
547.472
547.419
547.366
547.312
547.257
547.202
547.146
547.089
547.03
546.97
546.907
546.843
546.776
546.707
546.634
546.559
546.48
546.398
546.311
546.219
546.121
546.016
545.904
545.786
545.661
545.53
545.394
545.255
545.115
544.978
544.844
544.713
544.584
544.457
544.332
544.209
544.087
543.966
543.846
543.727
543.609
543.491
543.373
543.256
543.14
543.023
542.907
542.791
542.676
542.56
542.444
542.329
542.214
542.098
541.983
541.868
541.753
541.639
541.524
541.409
541.294
541.18
541.065
540.951
540.836
540.722
540.607
552.473
552.321
552.171
552.026
551.886
551.754
551.63
551.514
551.406
551.305
551.21
551.119
551.032
550.947
550.863
550.779
550.693
550.605
550.512
550.415
550.311
550.202
550.084
549.961
549.832
549.7
549.569
549.441
549.317
549.199
549.084
548.974
548.868
548.766
548.669
548.577
548.489
548.405
548.324
548.247
548.172
548.099
548.03
547.963
547.899
547.836
547.775
547.716
547.658
547.602
547.546
547.492
547.438
547.384
547.331
547.277
547.224
547.17
547.115
547.06
547.004
546.946
546.886
546.825
546.762
546.696
546.628
546.558
546.485
546.409
546.329
546.246
546.158
546.065
545.965
545.858
545.745
545.626
545.5
545.369
545.234
545.096
544.96
544.828
544.697
544.569
544.443
544.319
544.196
544.074
543.954
543.835
543.716
543.598
543.481
543.364
543.248
543.132
543.016
542.9
542.785
542.669
542.554
542.439
542.324
542.209
542.095
541.98
541.865
541.751
541.636
541.522
541.407
541.293
541.178
541.064
540.95
540.836
540.721
540.607
552.477
552.332
552.19
552.052
551.919
551.792
551.673
551.561
551.456
551.357
551.264
551.174
551.087
551.002
550.918
550.832
550.745
550.654
550.559
550.458
550.351
550.236
550.113
549.983
549.848
549.709
549.569
549.432
549.301
549.175
549.054
548.937
548.824
548.717
548.615
548.519
548.428
548.341
548.257
548.177
548.1
548.026
547.955
547.887
547.821
547.757
547.694
547.634
547.575
547.518
547.461
547.406
547.351
547.297
547.243
547.19
547.136
547.083
547.029
546.974
546.918
546.861
546.802
546.741
546.679
546.614
546.547
546.479
546.408
546.334
546.258
546.179
546.095
546.005
545.91
545.809
545.702
545.587
545.467
545.34
545.208
545.072
544.939
544.808
544.679
544.552
544.427
544.303
544.181
544.06
543.941
543.822
543.704
543.587
543.47
543.354
543.238
543.123
543.008
542.893
542.778
542.663
542.548
542.434
542.319
542.205
542.091
541.976
541.862
541.748
541.633
541.519
541.405
541.291
541.177
541.063
540.949
540.835
540.721
540.607
552.481
552.343
552.208
552.077
551.95
551.83
551.715
551.607
551.505
551.409
551.317
551.228
551.142
551.057
550.972
550.885
550.796
550.703
550.605
550.501
550.39
550.272
550.144
550.009
549.867
549.721
549.573
549.428
549.288
549.155
549.026
548.902
548.783
548.669
548.562
548.462
548.367
548.277
548.191
548.109
548.03
547.954
547.882
547.812
547.745
547.679
547.616
547.554
547.494
547.436
547.378
547.322
547.267
547.212
547.158
547.104
547.05
546.996
546.942
546.888
546.832
546.776
546.717
546.656
546.594
546.53
546.464
546.397
546.328
546.256
546.183
546.107
546.028
545.943
545.853
545.757
545.654
545.546
545.43
545.307
545.178
545.045
544.913
544.785
544.658
544.532
544.408
544.285
544.164
544.044
543.926
543.808
543.691
543.574
543.459
543.343
543.228
543.114
542.999
542.885
542.771
542.656
542.542
542.428
542.314
542.2
542.086
541.972
541.859
541.745
541.631
541.517
541.403
541.289
541.176
541.062
540.948
540.834
540.721
540.607
552.484
552.354
552.226
552.101
551.981
551.865
551.756
551.651
551.553
551.459
551.369
551.281
551.195
551.11
551.024
550.937
550.846
550.751
550.651
550.545
550.431
550.309
550.179
550.039
549.892
549.739
549.584
549.429
549.28
549.138
549.002
548.87
548.744
548.624
548.511
548.405
548.307
548.213
548.125
548.041
547.961
547.884
547.81
547.739
547.671
547.604
547.54
547.477
547.416
547.357
547.299
547.242
547.185
547.13
547.075
547.02
546.966
546.912
546.858
546.803
546.747
546.69
546.631
546.571
546.508
546.444
546.379
546.312
546.245
546.176
546.105
546.032
545.957
545.877
545.791
545.701
545.604
545.5
545.389
545.271
545.145
545.014
544.885
544.758
544.633
544.509
544.387
544.266
544.146
544.027
543.909
543.792
543.676
543.561
543.446
543.332
543.218
543.104
542.99
542.877
542.763
542.65
542.536
542.423
542.309
542.196
542.082
541.969
541.855
541.742
541.628
541.515
541.401
541.288
541.174
541.061
540.947
540.834
540.72
540.607
552.488
552.365
552.244
552.125
552.01
551.9
551.795
551.694
551.598
551.507
551.419
551.332
551.247
551.162
551.075
550.987
550.895
550.798
550.696
550.588
550.472
550.348
550.215
550.072
549.921
549.762
549.598
549.434
549.275
549.124
548.98
548.842
548.708
548.58
548.461
548.35
548.248
548.151
548.061
547.975
547.894
547.816
547.741
547.669
547.6
547.533
547.467
547.404
547.342
547.282
547.223
547.165
547.108
547.052
546.996
546.94
546.885
546.83
546.775
546.719
546.662
546.604
546.545
546.484
546.421
546.356
546.291
546.225
546.158
546.091
546.023
545.953
545.881
545.805
545.725
545.639
545.548
545.449
545.343
545.23
545.11
544.986
544.855
544.729
544.606
544.484
544.363
544.244
544.125
544.007
543.891
543.775
543.661
543.547
543.433
543.32
543.207
543.094
542.981
542.868
542.755
542.643
542.53
542.417
542.304
542.191
542.078
541.965
541.852
541.739
541.626
541.512
541.399
541.286
541.173
541.06
540.946
540.833
540.72
540.607
552.492
552.375
552.26
552.148
552.039
551.933
551.832
551.735
551.643
551.553
551.467
551.381
551.296
551.211
551.124
551.034
550.941
550.844
550.741
550.631
550.514
550.388
550.253
550.107
549.951
549.787
549.617
549.444
549.275
549.114
548.962
548.816
548.674
548.54
548.414
548.297
548.19
548.091
547.999
547.912
547.829
547.751
547.676
547.603
547.533
547.465
547.399
547.335
547.273
547.212
547.152
547.093
547.035
546.978
546.921
546.865
546.808
546.751
546.694
546.636
546.578
546.518
546.457
546.395
546.331
546.265
546.199
546.133
546.067
546.002
545.936
545.869
545.8
545.728
545.653
545.572
545.486
545.394
545.293
545.186
545.075
544.978
544.826
544.699
544.578
544.457
544.338
544.22
544.102
543.986
543.871
543.757
543.644
543.532
543.419
543.307
543.195
543.083
542.972
542.86
542.748
542.636
542.524
542.411
542.299
542.187
542.074
541.961
541.849
541.736
541.623
541.51
541.397
541.284
541.171
541.059
540.946
540.833
540.72
540.607
552.495
552.385
552.276
552.17
552.066
551.965
551.868
551.775
551.685
551.598
551.512
551.427
551.342
551.257
551.17
551.079
550.985
550.887
550.783
550.672
550.554
550.426
550.289
550.14
549.981
549.813
549.637
549.457
549.279
549.109
548.948
548.794
548.645
548.503
548.371
548.249
548.137
548.035
547.94
547.852
547.768
547.689
547.613
547.54
547.47
547.402
547.335
547.271
547.209
547.147
547.087
547.027
546.969
546.91
546.852
546.793
546.734
546.675
546.616
546.555
546.494
546.432
546.368
546.304
546.238
546.171
546.103
546.036
545.971
545.907
545.843
545.778
545.713
545.645
545.574
545.5
545.42
545.333
545.24
545.138
545.03
544.915
544.788
544.667
544.547
544.428
544.31
544.193
544.078
543.964
543.851
543.738
543.627
543.516
543.405
543.294
543.184
543.073
542.962
542.851
542.74
542.629
542.517
542.406
542.294
542.182
542.07
541.958
541.846
541.733
541.621
541.508
541.396
541.283
541.17
541.057
540.945
540.832
540.719
540.606
552.498
552.394
552.291
552.19
552.091
551.995
551.902
551.812
551.724
551.638
551.554
551.47
551.385
551.3
551.212
551.121
551.026
550.926
550.821
550.71
550.591
550.462
550.322
550.171
550.01
549.838
549.658
549.473
549.288
549.108
548.939
548.779
548.623
548.475
548.335
548.207
548.089
547.982
547.884
547.794
547.71
547.631
547.554
547.481
547.411
547.343
547.277
547.213
547.15
547.088
547.028
546.967
546.907
546.847
546.787
546.726
546.664
546.602
546.539
546.475
546.41
546.345
546.278
546.21
546.141
546.072
546.003
545.935
545.87
545.806
545.745
545.683
545.621
545.557
545.491
545.422
545.349
545.269
545.183
545.088
544.986
544.872
544.752
544.633
544.515
544.397
544.28
544.165
544.052
543.939
543.828
543.718
543.609
543.499
543.39
543.281
543.172
543.062
542.953
542.843
542.732
542.622
542.511
542.4
542.289
542.178
542.066
541.954
541.842
541.73
541.618
541.506
541.394
541.281
541.169
541.056
540.944
540.831
540.719
540.606
552.501
552.402
552.304
552.208
552.113
552.021
551.931
551.844
551.759
551.675
551.591
551.508
551.424
551.338
551.25
551.159
551.063
550.963
550.857
550.744
550.623
550.491
550.35
550.197
550.034
549.861
549.679
549.49
549.298
549.11
548.933
548.767
548.607
548.453
548.307
548.173
548.05
547.938
547.836
547.742
547.656
547.575
547.499
547.425
547.355
547.287
547.222
547.158
547.095
547.034
546.973
546.911
546.85
546.788
546.725
546.662
546.597
546.53
546.463
546.395
546.326
546.256
546.186
546.114
546.042
545.971
545.9
545.831
545.766
545.703
545.644
545.585
545.526
545.467
545.407
545.343
545.275
545.202
545.122
545.036
544.94
544.832
544.715
544.597
544.479
544.362
544.247
544.134
544.023
543.913
543.805
543.697
543.59
543.483
543.375
543.268
543.16
543.052
542.943
542.834
542.725
542.615
542.505
542.395
542.284
542.174
542.062
541.951
541.84
541.728
541.616
541.504
541.392
541.28
541.168
541.056
540.943
540.831
540.719
540.606
552.503
552.409
552.315
552.222
552.132
552.043
551.957
551.872
551.789
551.706
551.624
551.542
551.458
551.373
551.285
551.193
551.097
550.996
550.889
550.775
550.651
550.518
550.372
550.217
550.054
549.88
549.696
549.504
549.307
549.113
548.931
548.76
548.597
548.438
548.288
548.149
548.021
547.904
547.797
547.699
547.608
547.524
547.446
547.371
547.301
547.233
547.168
547.105
547.043
546.982
546.92
546.857
546.794
546.73
546.664
546.597
546.528
546.458
546.386
546.313
546.241
546.167
546.091
546.017
545.942
545.869
545.797
545.728
545.663
545.601
545.544
545.49
545.437
545.383
545.328
545.27
545.207
545.14
545.066
544.985
544.895
544.792
544.677
544.559
544.44
544.324
544.211
544.1
543.992
543.886
543.78
543.675
543.571
543.466
543.36
543.255
543.148
543.042
542.934
542.826
542.718
542.609
542.5
542.39
542.28
542.17
542.059
541.948
541.837
541.726
541.614
541.502
541.391
541.279
541.167
541.055
540.943
540.83
540.718
540.606
552.504
552.413
552.323
552.234
552.146
552.061
551.977
551.895
551.813
551.733
551.652
551.571
551.489
551.404
551.316
551.225
551.129
551.028
550.921
550.806
550.679
550.541
550.391
550.232
550.067
549.892
549.707
549.514
549.316
549.12
548.934
548.759
548.593
548.432
548.28
548.138
548.005
547.882
547.77
547.666
547.569
547.479
547.396
547.318
547.246
547.178
547.113
547.051
546.989
546.928
546.865
546.801
546.735
546.667
546.598
546.527
546.453
546.378
546.302
546.225
546.149
546.074
545.997
545.92
545.845
545.773
545.702
545.634
545.57
545.512
545.458
545.411
545.364
545.317
545.268
545.215
545.156
545.092
545.02
544.942
544.856
544.757
544.643
544.518
544.396
544.28
544.17
544.064
543.96
543.857
543.755
543.653
543.551
543.449
543.346
543.242
543.137
543.032
542.926
542.819
542.711
542.603
542.495
542.386
542.276
542.166
542.056
541.945
541.834
541.723
541.612
541.501
541.389
541.277
541.166
541.054
540.942
540.83
540.718
540.606
552.505
552.416
552.328
552.241
552.156
552.073
551.992
551.913
551.834
551.756
551.678
551.599
551.518
551.435
551.348
551.258
551.162
551.06
550.954
550.838
550.708
550.562
550.404
550.241
550.074
549.898
549.713
549.521
549.326
549.131
548.942
548.763
548.595
548.434
548.279
548.137
548.001
547.876
547.758
547.649
547.544
547.445
547.354
547.27
547.194
547.124
547.058
546.995
546.934
546.872
546.807
546.738
546.667
546.592
546.52
546.441
546.363
546.282
546.202
546.123
546.044
545.976
545.901
545.826
545.754
545.689
545.623
545.562
545.504
545.451
545.403
545.367
545.33
545.294
545.25
545.205
545.147
545.083
545.006
544.925
544.836
544.735
544.614
544.474
544.343
544.229
544.124
544.023
543.925
543.827
543.729
543.631
543.532
543.433
543.332
543.23
543.127
543.023
542.918
542.812
542.705
542.598
542.49
542.382
542.272
542.163
542.053
541.943
541.832
541.721
541.61
541.499
541.388
541.276
541.165
541.053
540.941
540.83
540.718
540.606
552.505
552.416
552.329
552.245
552.163
552.083
552.006
551.93
551.857
551.784
551.71
551.634
551.554
551.47
551.384
551.292
551.195
551.093
550.989
550.875
550.741
550.585
550.418
550.25
550.081
549.909
549.723
549.536
549.344
549.15
548.954
548.77
548.596
548.437
548.274
548.145
548.001
547.883
547.76
547.65
547.535
547.428
547.325
547.233
547.153
547.076
547.006
546.939
546.875
546.811
546.74
546.661
546.58
546.483
546.419
546.32
546.243
546.148
546.075
546.003
545.93
545.864
545.795
545.729
545.666
545.612
545.558
545.522
545.48
545.452
545.419
545.401
545.37
545.353
545.314
545.309
545.256
545.187
545.069
544.957
544.84
544.724
544.588
544.386
544.269
544.168
544.073
543.98
543.888
543.796
543.703
543.609
543.514
543.417
543.319
543.219
543.118
543.015
542.911
542.806
542.7
542.594
542.486
542.378
542.269
542.16
542.051
541.941
541.83
541.72
541.609
541.498
541.387
541.276
541.164
541.053
540.941
540.829
540.718
540.606
552.504
552.415
552.329
552.249
552.173
552.099
552.028
551.96
551.895
551.832
551.764
551.689
551.606
551.518
551.426
551.327
551.224
551.121
551.022
550.922
550.786
550.614
550.439
550.263
550.091
549.938
549.755
549.576
549.379
549.19
548.979
548.785
548.605
548.431
548.268
548.131
548.002
547.895
547.778
547.684
547.563
547.454
547.34
547.244
547.148
547.059
546.98
546.896
546.821
546.753
546.679
546.59
546.512
546.419
546.356
546.26
546.197
546.11
546.065
545.994
545.943
545.869
545.79
545.714
545.627
545.581
545.545
545.506
545.473
545.418
545.372
545.331
545.295
545.272
545.232
545.205
545.149
545.093
545.006
544.922
544.823
544.727
544.605
544.332
544.188
544.099
544.017
543.935
543.852
543.766
543.678
543.588
543.497
543.403
543.307
543.209
543.109
543.008
542.905
542.801
542.696
542.59
542.483
542.375
542.267
542.158
542.049
541.939
541.829
541.718
541.608
541.497
541.386
541.275
541.164
541.052
540.941
540.829
540.717
540.606
552.503
552.412
552.332
552.272
552.212
552.148
552.088
552.029
551.976
551.926
551.865
551.786
551.69
551.583
551.477
551.364
551.246
551.141
551.052
550.988
550.852
550.645
550.48
550.275
550.084
549.945
549.77
549.599
549.409
549.195
548.995
548.801
548.612
548.418
548.231
548.082
547.954
547.859
547.744
547.679
547.599
547.497
547.365
547.257
547.15
547.038
546.937
546.841
546.747
546.694
546.617
546.528
546.448
546.356
546.271
546.176
546.129
546.052
546.018
545.956
545.913
545.837
545.76
545.683
545.625
545.572
545.525
545.467
545.411
545.349
545.292
545.247
545.208
545.176
545.137
545.094
545.043
544.987
544.925
544.862
544.793
544.724
544.618
544.375
544.127
544.031
543.96
543.892
543.818
543.738
543.654
543.569
543.482
543.391
543.298
543.202
543.103
543.003
542.901
542.797
542.692
542.587
542.48
542.373
542.265
542.156
542.047
541.938
541.828
541.717
541.607
541.496
541.385
541.274
541.163
541.052
540.94
540.829
540.717
540.606
552.5
552.41
552.357
552.372
552.346
552.297
552.245
552.185
552.123
552.084
552.025
551.925
551.798
551.656
551.545
551.424
551.29
551.186
551.091
551.012
550.879
550.665
550.46
550.294
550.115
549.983
549.83
549.673
549.473
549.245
549.042
548.828
548.586
548.379
548.182
548.008
547.885
547.792
547.685
547.609
547.554
547.428
547.342
547.218
547.146
547.006
546.929
546.842
546.791
546.709
546.636
546.54
546.473
546.37
546.305
546.223
546.164
546.088
546.035
545.967
545.9
545.82
545.742
545.667
545.596
545.522
545.452
545.377
545.309
545.245
545.189
545.143
545.104
545.071
545.037
545.001
544.964
544.923
544.88
544.835
544.739
544.557
544.408
544.326
544.062
543.979
543.909
543.854
543.79
543.712
543.632
543.553
543.47
543.382
543.291
543.196
543.098
542.999
542.897
542.794
542.69
542.585
542.478
542.371
542.263
542.155
542.046
541.937
541.827
541.717
541.606