/*--------------------------------*- C++ -*----------------------------------*\
  =========                 |
  \\      /  F ield         | OpenFOAM: The Open Source CFD Toolbox
   \\    /   O peration     | Website:  https://openfoam.org
    \\  /    A nd           | Version:  6
     \\/     M anipulation  |
\*---------------------------------------------------------------------------*/
FoamFile
{
    version     2.0;
    format      ascii;
    class       volScalarField;
    location    "2000";
    object      dmdt;
}
// * * * * * * * * * * * * * * * * * * * * * * * * * * * * * * * * * * * * * //

dimensions      [0 0 0 0 0 0 0];

internalField   nonuniform List<scalar> 
4800
(
-0.219141
-0.21625
-0.213382
-0.21055
-0.207764
-0.205035
-0.202373
-0.199784
-0.197277
-0.19486
-0.192536
-0.190301
-0.188145
-0.186056
-0.184016
-0.18201
-0.180025
-0.178046
-0.176062
-0.174061
-0.172038
-0.169998
-0.167946
-0.165898
-0.163871
-0.161883
-0.159947
-0.158087
-0.156326
-0.154678
-0.153143
-0.151709
-0.150358
-0.149085
-0.147875
-0.146715
-0.145591
-0.144487
-0.143388
-0.142279
-0.141144
-0.139969
-0.138745
-0.137466
-0.13612
-0.134694
-0.133176
-0.131551
-0.129797
-0.127895
-0.125833
-0.123594
-0.121181
-0.118613
-0.115914
-0.113104
-0.110202
-0.107229
-0.104202
-0.101136
-0.0980448
-0.0949349
-0.09181
-0.0886688
-0.0855078
-0.0823236
-0.0791132
-0.075872
-0.0725902
-0.0692538
-0.0658517
-0.0623739
-0.0588147
-0.0551676
-0.0514273
-0.0475939
-0.043666
-0.0396415
-0.0355263
-0.0313403
-0.0271153
-0.0229006
-0.0187607
-0.014688
-0.010684
-0.0067483
-0.00287867
0.000928278
0.00467657
0.00837086
0.0120159
0.0156165
0.0191769
0.0227013
0.0261934
0.0296565
0.0330936
0.0365074
0.0399001
0.043274
0.0466308
0.0499722
0.0532996
0.0566145
0.059918
0.0632111
0.066495
0.0697704
0.0730383
0.0762994
0.0795544
0.0828041
0.0860491
0.0892899
0.0925273
0.0957618
0.098994
0.102224
0.105453
0.108681
-0.219139
-0.216242
-0.213365
-0.210521
-0.207723
-0.204985
-0.202317
-0.199727
-0.197226
-0.19482
-0.192507
-0.19028
-0.188129
-0.186042
-0.184004
-0.182
-0.180016
-0.178039
-0.176056
-0.174059
-0.172043
-0.17001
-0.167967
-0.165927
-0.163906
-0.161923
-0.160001
-0.158163
-0.156429
-0.154804
-0.153285
-0.151862
-0.150525
-0.149265
-0.148067
-0.146918
-0.145806
-0.144711
-0.143618
-0.142512
-0.141378
-0.140202
-0.138977
-0.137692
-0.136336
-0.134898
-0.133367
-0.131728
-0.12996
-0.128049
-0.12598
-0.12374
-0.121333
-0.118777
-0.116089
-0.113284
-0.110385
-0.107413
-0.10439
-0.101331
-0.0982464
-0.0951425
-0.092023
-0.0888883
-0.0857356
-0.0825609
-0.0793597
-0.0761235
-0.0728395
-0.0694958
-0.0660817
-0.0625867
-0.0590027
-0.0553219
-0.051543
-0.0476661
-0.0436974
-0.0396429
-0.03551
-0.0313131
-0.0270764
-0.0228502
-0.0187041
-0.0146277
-0.0106221
-0.00668669
-0.00281891
0.000985038
0.0047296
0.00841978
0.0120606
0.0156571
0.0192136
0.0227343
0.026223
0.0296831
0.0331174
0.0365287
0.0399192
0.0432911
0.0466461
0.0499858
0.0533118
0.0566254
0.0599277
0.0632198
0.0665026
0.0697772
0.0730442
0.0763046
0.079559
0.082808
0.0860524
0.0892928
0.0925297
0.0957637
0.0989954
0.102225
0.105454
0.108682
-0.219134
-0.216224
-0.213331
-0.210475
-0.20767
-0.204921
-0.202246
-0.19966
-0.197168
-0.194774
-0.19247
-0.190249
-0.188101
-0.186017
-0.183982
-0.181981
-0.180001
-0.178027
-0.176048
-0.17406
-0.172058
-0.170041
-0.168016
-0.165995
-0.163996
-0.162038
-0.160147
-0.158347
-0.156651
-0.15506
-0.153569
-0.152167
-0.150855
-0.149621
-0.148446
-0.14732
-0.146229
-0.145148
-0.144065
-0.142966
-0.141835
-0.140656
-0.139427
-0.13813
-0.136755
-0.135293
-0.133734
-0.132063
-0.130265
-0.128334
-0.126258
-0.124019
-0.121626
-0.11909
-0.116418
-0.113625
-0.110735
-0.107771
-0.104755
-0.101705
-0.0986316
-0.0955414
-0.0924362
-0.0893158
-0.0861777
-0.083018
-0.0798297
-0.0766
-0.0733119
-0.0699573
-0.066525
-0.0630007
-0.0593714
-0.0556286
-0.051774
-0.0478123
-0.0437527
-0.0396183
-0.035437
-0.0312218
-0.0269801
-0.0227451
-0.0185893
-0.0145058
-0.010497
-0.00656233
-0.00269859
0.00109902
0.00483582
0.00851755
0.0121498
0.0157379
0.0192865
0.0227999
0.0262819
0.0297359
0.0331648
0.0365711
0.0399572
0.043325
0.0466764
0.050013
0.0533361
0.056647
0.0599469
0.0632369
0.0665178
0.0697906
0.0730561
0.076315
0.0795681
0.0828159
0.0860592
0.0892985
0.0925344
0.0957675
0.0989983
0.102227
0.105455
0.108682
-0.219129
-0.21621
-0.213306
-0.210438
-0.207623
-0.204872
-0.202196
-0.199611
-0.197124
-0.194734
-0.192434
-0.190216
-0.188071
-0.185988
-0.183954
-0.181956
-0.179979
-0.178011
-0.176044
-0.174071
-0.172089
-0.170094
-0.168096
-0.166107
-0.164144
-0.162228
-0.160385
-0.158633
-0.156981
-0.155432
-0.15398
-0.152615
-0.151342
-0.150145
-0.149005
-0.14791
-0.146848
-0.145788
-0.144723
-0.143635
-0.142505
-0.141324
-0.140086
-0.138771
-0.137369
-0.135874
-0.134276
-0.132559
-0.130719
-0.128759
-0.126665
-0.124427
-0.122053
-0.119536
-0.116882
-0.114102
-0.111223
-0.108272
-0.105272
-0.102237
-0.099178
-0.0961039
-0.0930174
-0.0899169
-0.0867985
-0.0836565
-0.0804814
-0.0772614
-0.0739728
-0.0706053
-0.0671461
-0.0635775
-0.0598871
-0.0560702
-0.0521236
-0.0480498
-0.043865
-0.0396068
-0.03533
-0.0310751
-0.0268314
-0.0225877
-0.018415
-0.0143192
-0.0103055
-0.00637273
-0.00251599
0.00127115
0.0049955
0.00866397
0.012283
0.0158583
0.0193949
0.0228973
0.0263693
0.0298141
0.0332348
0.0366338
0.0400133
0.0433753
0.0467214
0.0500532
0.053372
0.0566791
0.0599755
0.0632623
0.0665404
0.0698106
0.0730737
0.0763305
0.0795816
0.0828276
0.0860692
0.0893069
0.0925414
0.0957731
0.0990026
0.10223
0.105457
0.108683
-0.219127
-0.216203
-0.213293
-0.210416
-0.207593
-0.204838
-0.202164
-0.199582
-0.197097
-0.194707
-0.192407
-0.19019
-0.188045
-0.185961
-0.183926
-0.18193
-0.179959
-0.178001
-0.176049
-0.174098
-0.172144
-0.170185
-0.168227
-0.16628
-0.164363
-0.162498
-0.160709
-0.159015
-0.157418
-0.155921
-0.154517
-0.153202
-0.151976
-0.150825
-0.149727
-0.148673
-0.147646
-0.146615
-0.145576
-0.144503
-0.143381
-0.142202
-0.140953
-0.139618
-0.138191
-0.136664
-0.135021
-0.133253
-0.131369
-0.129365
-0.127234
-0.12498
-0.122604
-0.120096
-0.117452
-0.114688
-0.111831
-0.108901
-0.105918
-0.1029
-0.099858
-0.0967998
-0.0937294
-0.0906485
-0.0875511
-0.0844274
-0.0812651
-0.0780524
-0.0747574
-0.0713697
-0.0678739
-0.0642524
-0.060496
-0.0566019
-0.052574
-0.0484211
-0.0441593
-0.0398179
-0.0354289
-0.031038
-0.0266905
-0.0223884
-0.0181784
-0.0140624
-0.0100424
-0.00611383
-0.00226856
0.00150269
0.0052089
0.00885856
0.0124591
0.016017
0.0195374
0.0230251
0.0264837
0.0299166
0.0333266
0.036716
0.0400868
0.0434411
0.0467803
0.0501058
0.0534191
0.0567211
0.060013
0.0632957
0.06657
0.0698369
0.0730969
0.0763508
0.0795993
0.0828429
0.0860823
0.089318
0.0925506
0.0957805
0.0990082
0.102234
0.105459
0.108683
-0.219124
-0.216196
-0.213285
-0.210406
-0.207578
-0.204824
-0.202154
-0.199573
-0.197086
-0.194694
-0.192392
-0.190173
-0.188026
-0.18594
-0.183906
-0.181913
-0.17995
-0.178007
-0.176077
-0.174152
-0.172228
-0.170307
-0.168393
-0.1665
-0.164645
-0.162848
-0.161127
-0.159495
-0.157961
-0.156523
-0.155176
-0.153918
-0.152747
-0.151649
-0.150599
-0.149593
-0.148608
-0.147615
-0.146604
-0.145553
-0.14445
-0.143278
-0.142025
-0.140677
-0.139231
-0.137673
-0.135991
-0.134185
-0.132259
-0.130205
-0.128024
-0.12572
-0.123305
-0.120779
-0.118137
-0.115388
-0.112551
-0.109645
-0.106685
-0.103685
-0.100657
-0.0976122
-0.0945554
-0.0914898
-0.0884071
-0.0852942
-0.0821368
-0.0789191
-0.07561
-0.072202
-0.0686727
-0.0649995
-0.0611744
-0.0571961
-0.053078
-0.0488312
-0.0444708
-0.0400236
-0.03552
-0.0309994
-0.0265241
-0.0221286
-0.017865
-0.0137237
-0.00969897
-0.00577982
-0.00195296
0.00179501
0.005476
0.00910042
0.0126769
0.0162123
0.0197123
0.0231816
0.0266237
0.0300418
0.0334386
0.0368162
0.0401766
0.0435215
0.0468522
0.0501702
0.0534767
0.0567726
0.0600589
0.0633366
0.0666064
0.069869
0.0731253
0.0763758
0.0796211
0.0828618
0.0860985
0.0893317
0.0925618
0.0957895
0.0990152
0.102239
0.105462
0.108684
-0.219121
-0.216191
-0.213285
-0.210416
-0.207598
-0.204846
-0.202175
-0.199593
-0.197102
-0.194705
-0.192398
-0.190175
-0.188026
-0.185939
-0.183909
-0.181923
-0.179972
-0.178047
-0.176142
-0.174247
-0.17236
-0.170482
-0.16862
-0.166786
-0.164996
-0.163268
-0.161619
-0.16006
-0.158595
-0.157224
-0.155942
-0.154748
-0.153639
-0.152598
-0.151607
-0.150653
-0.149716
-0.148766
-0.14779
-0.146766
-0.145687
-0.144527
-0.143279
-0.14193
-0.140473
-0.138895
-0.137191
-0.135358
-0.133393
-0.131291
-0.129054
-0.126694
-0.124226
-0.121658
-0.118994
-0.116242
-0.113413
-0.11052
-0.107575
-0.10459
-0.101574
-0.0985372
-0.0954875
-0.0924288
-0.0893489
-0.0862335
-0.0830696
-0.0798377
-0.0765059
-0.073068
-0.0694966
-0.0657657
-0.0618717
-0.0578101
-0.0535888
-0.0492257
-0.0447443
-0.0401664
-0.0355252
-0.0308681
-0.0262678
-0.0217719
-0.0174497
-0.0132851
-0.00926308
-0.00536347
-0.00156563
0.00214911
0.00579612
0.00938785
0.0129339
0.0164418
0.0199172
0.0233644
0.026787
0.0301878
0.0335692
0.0369331
0.0402813
0.0436152
0.0469362
0.0502454
0.053544
0.0568327
0.0601126
0.0633845
0.0666489
0.0699068
0.0731586
0.076405
0.0796466
0.0828839
0.0861175
0.0893477
0.0925751
0.0958002
0.0990233
0.102245
0.105466
0.108686
-0.219131
-0.216217
-0.213326
-0.210469
-0.20766
-0.204913
-0.202241
-0.199655
-0.197159
-0.194754
-0.19244
-0.19021
-0.188056
-0.18597
-0.183943
-0.181965
-0.180029
-0.178125
-0.176246
-0.174387
-0.172542
-0.170711
-0.168905
-0.167135
-0.165415
-0.163763
-0.162192
-0.16071
-0.15932
-0.15802
-0.15681
-0.155684
-0.154637
-0.153659
-0.152731
-0.151835
-0.150947
-0.150045
-0.149108
-0.148118
-0.147071
-0.145932
-0.144701
-0.143363
-0.141911
-0.140333
-0.138625
-0.136778
-0.134784
-0.132638
-0.130344
-0.127922
-0.125394
-0.122771
-0.120065
-0.117282
-0.114441
-0.111544
-0.1086
-0.105618
-0.102605
-0.0995692
-0.0965174
-0.0934528
-0.0903609
-0.0872278
-0.0840392
-0.0807764
-0.0774093
-0.0739241
-0.0702893
-0.0664868
-0.0625151
-0.0583669
-0.0540418
-0.0495573
-0.0449385
-0.0402106
-0.0354182
-0.030619
-0.0258869
-0.0212799
-0.0169006
-0.0127238
-0.00872035
-0.00485716
-0.00110374
0.00256478
0.00616732
0.00971804
0.0132272
0.0167024
0.0201489
0.0235707
0.026971
0.0303522
0.0337162
0.0370647
0.0403992
0.0437209
0.047031
0.0503304
0.05362
0.0569008
0.0601735
0.0634387
0.0666972
0.0699496
0.0731964
0.0764383
0.0796757
0.0829091
0.086139
0.0893659
0.0925902
0.0958123
0.0990326
0.102252
0.105469
0.108687
-0.219145
-0.216257
-0.213383
-0.21054
-0.207742
-0.205006
-0.202343
-0.19976
-0.19726
-0.194848
-0.192526
-0.190288
-0.188129
-0.186043
-0.18402
-0.182052
-0.180131
-0.17825
-0.176401
-0.174576
-0.172771
-0.170991
-0.169246
-0.167547
-0.165906
-0.164334
-0.162843
-0.16144
-0.160126
-0.1589
-0.157761
-0.156707
-0.155728
-0.154815
-0.153952
-0.153113
-0.152278
-0.151425
-0.150534
-0.149585
-0.148573
-0.147466
-0.146267
-0.144958
-0.143526
-0.141969
-0.140277
-0.138432
-0.136424
-0.134246
-0.131906
-0.129426
-0.126835
-0.124149
-0.12138
-0.11854
-0.115659
-0.112735
-0.109773
-0.106776
-0.103748
-0.100698
-0.0976322
-0.0945484
-0.0914267
-0.088255
-0.0850182
-0.0816952
-0.0782625
-0.0747045
-0.0709936
-0.0671143
-0.0630555
-0.0588114
-0.0543803
-0.0497722
-0.0450151
-0.0401375
-0.035176
-0.0302052
-0.0253256
-0.0206012
-0.0161757
-0.0120115
-0.00805547
-0.00425478
-0.000566812
0.00303947
0.00658566
0.0100866
0.0135524
0.0169899
0.0204037
0.0237972
0.0271728
0.0305324
0.0338774
0.0372092
0.0405287
0.0438371
0.0471352
0.0504239
0.0537039
0.0569759
0.0602406
0.0634986
0.0667506
0.069997
0.0732383
0.0764751
0.0797079
0.082937
0.086163
0.0893861
0.0926069
0.0958257
0.0990429
0.102259
0.105474
0.108688
-0.219153
-0.216282
-0.213432
-0.210615
-0.207843
-0.205128
-0.20248
-0.199905
-0.197407
-0.194991
-0.192662
-0.190418
-0.188257
-0.18617
-0.184152
-0.182193
-0.180288
-0.17843
-0.17661
-0.174821
-0.17306
-0.171336
-0.169658
-0.168033
-0.166471
-0.164981
-0.163571
-0.162247
-0.16101
-0.159858
-0.158791
-0.157808
-0.156899
-0.156053
-0.155253
-0.154472
-0.15369
-0.152888
-0.152041
-0.15114
-0.150169
-0.149107
-0.147955
-0.14669
-0.145297
-0.143783
-0.142122
-0.140294
-0.138288
-0.136095
-0.133722
-0.131194
-0.128547
-0.125793
-0.122947
-0.120033
-0.117095
-0.114119
-0.11111
-0.108071
-0.105007
-0.101925
-0.0988287
-0.0957032
-0.0925248
-0.0892852
-0.0859733
-0.0825684
-0.0790439
-0.075386
-0.071579
-0.0676072
-0.0634528
-0.0591066
-0.0545691
-0.0498444
-0.0449464
-0.0399035
-0.0347628
-0.0296026
-0.0245379
-0.0196655
-0.0152178
-0.0111154
-0.00725531
-0.00355496
4.08454e-05
0.00356679
0.00704442
0.0104873
0.0139038
0.0172994
0.0206775
0.0240402
0.0273893
0.0307257
0.0340504
0.0373642
0.0406679
0.0439621
0.0472475
0.0505247
0.0537944
0.057057
0.0603132
0.0635635
0.0668084
0.0700483
0.0732838
0.0765151
0.0797429
0.0829674
0.086189
0.0894081
0.0926251
0.0958403
0.0990541
0.102267
0.105479
0.10869
-0.219165
-0.21632
-0.2135
-0.210715
-0.207973
-0.205285
-0.202657
-0.200097
-0.197608
-0.195193
-0.192859
-0.190612
-0.188448
-0.186363
-0.184349
-0.182401
-0.180511
-0.178675
-0.176884
-0.175134
-0.173425
-0.171762
-0.170153
-0.168603
-0.16712
-0.16571
-0.164379
-0.163132
-0.16197
-0.160892
-0.159896
-0.158983
-0.158142
-0.15736
-0.156619
-0.155895
-0.155167
-0.154417
-0.153621
-0.152772
-0.151846
-0.150839
-0.149746
-0.148532
-0.147195
-0.145736
-0.144116
-0.14232
-0.140331
-0.138142
-0.135751
-0.133195
-0.130502
-0.127685
-0.12476
-0.121766
-0.118761
-0.115707
-0.112622
-0.109514
-0.106389
-0.103254
-0.100098
-0.096896
-0.0936292
-0.0902917
-0.0868744
-0.0833609
-0.0797264
-0.0759529
-0.0720279
-0.0679434
-0.0636827
-0.0592307
-0.0545855
-0.0497467
-0.0447135
-0.0395116
-0.034179
-0.0287756
-0.0234381
-0.0183422
-0.0139408
-0.0100012
-0.00631615
-0.00276685
0.000706757
0.00413482
0.00753342
0.0109116
0.0142745
0.0176252
0.0209653
0.0242957
0.0276168
0.030929
0.0342325
0.0375276
0.0408147
0.0440941
0.0473663
0.0506315
0.0538904
0.0571432
0.0603905
0.0636326
0.06687
0.0701031
0.0733323
0.0765579
0.0797803
0.0829998
0.0862168
0.0894317
0.0926446
0.095856
0.0990661
0.102275
0.105484
0.108692
-0.219183
-0.216374
-0.213587
-0.210836
-0.208129
-0.205471
-0.20287
-0.200331
-0.197858
-0.195456
-0.193126
-0.190878
-0.188715
-0.186633
-0.184627
-0.182691
-0.180821
-0.17901
-0.177251
-0.175544
-0.173889
-0.172289
-0.170749
-0.169272
-0.167864
-0.16653
-0.165275
-0.164101
-0.163011
-0.162001
-0.161073
-0.160225
-0.159447
-0.158726
-0.158041
-0.15737
-0.156694
-0.155995
-0.15525
-0.154452
-0.153582
-0.152638
-0.151606
-0.150451
-0.14918
-0.147774
-0.146202
-0.144447
-0.142489
-0.140317
-0.137928
-0.135367
-0.13265
-0.129786
-0.126796
-0.123728
-0.12064
-0.117482
-0.114295
-0.111093
-0.107882
-0.104664
-0.101412
-0.0980994
-0.0947191
-0.0912645
-0.087725
-0.0840771
-0.0803003
-0.0763869
-0.0723266
-0.0681091
-0.0637287
-0.0591717
-0.0544271
-0.0494846
-0.0443298
-0.0389635
-0.033398
-0.0276587
-0.0218766
-0.0163472
-0.012218
-0.00865199
-0.00526083
-0.00191938
0.00140643
0.00472504
0.00803899
0.0113494
0.0146569
0.0179613
0.0212624
0.0245595
0.0278521
0.0311395
0.0344213
0.0376973
0.0409674
0.0442316
0.04749
0.050743
0.0539907
0.0572333
0.0604714
0.063705
0.0669347
0.0701607
0.0733833
0.0766028
0.0798196
0.083034
0.0862462
0.0894565
0.0926652
0.0958725
0.0990788
0.102284
0.105489
0.108693
-0.219206
-0.216442
-0.213694
-0.210976
-0.208301
-0.205674
-0.203104
-0.200595
-0.198152
-0.195776
-0.193467
-0.191228
-0.18907
-0.186995
-0.185
-0.183083
-0.181238
-0.179458
-0.17774
-0.176079
-0.174478
-0.172938
-0.171465
-0.170058
-0.168721
-0.167459
-0.166273
-0.165167
-0.164143
-0.1632
-0.162336
-0.161547
-0.160826
-0.160157
-0.159522
-0.158899
-0.158272
-0.15762
-0.156925
-0.156179
-0.155368
-0.154483
-0.15351
-0.15242
-0.151209
-0.149854
-0.148332
-0.146621
-0.144697
-0.142554
-0.140194
-0.137646
-0.134917
-0.132024
-0.128989
-0.12586
-0.122672
-0.119397
-0.11609
-0.11277
-0.109447
-0.106109
-0.102725
-0.0992786
-0.0957675
-0.0921808
-0.0884984
-0.0846962
-0.0807625
-0.0766914
-0.0724787
-0.0681211
-0.0636136
-0.0589492
-0.0541104
-0.0490769
-0.0438258
-0.038323
-0.0325159
-0.0263307
-0.01972
-0.0129407
-0.00992733
-0.0071384
-0.00417271
-0.00107227
0.00210153
0.00531306
0.00854514
0.0117898
0.0150428
0.0183016
0.0215639
0.0248278
0.0280918
0.0313542
0.0346142
0.0378709
0.0411239
0.0443727
0.0476174
0.0508578
0.0540941
0.0573264
0.060555
0.06378
0.0670017
0.0702203
0.0734362
0.0766495
0.0798605
0.0830695
0.0862767
0.0894823
0.0926866
0.0958897
0.099092
0.102293
0.105494
0.108695
-0.219229
-0.216509
-0.213802
-0.21112
-0.208478
-0.205885
-0.203349
-0.200877
-0.19847
-0.19613
-0.193856
-0.191648
-0.189511
-0.187455
-0.185484
-0.183595
-0.181784
-0.180044
-0.178372
-0.176762
-0.175218
-0.173739
-0.172329
-0.170989
-0.169718
-0.168521
-0.167399
-0.166355
-0.165391
-0.164507
-0.1637
-0.162962
-0.162288
-0.161666
-0.161076
-0.160498
-0.159916
-0.159309
-0.158661
-0.157966
-0.157209
-0.156377
-0.155458
-0.154423
-0.153258
-0.151946
-0.150464
-0.148792
-0.146915
-0.144819
-0.142491
-0.139951
-0.13722
-0.134312
-0.131242
-0.128045
-0.124745
-0.121353
-0.117919
-0.114464
-0.111003
-0.107517
-0.103982
-0.100393
-0.0967378
-0.0929955
-0.0891439
-0.085168
-0.0810622
-0.0768247
-0.0724587
-0.0679626
-0.0633366
-0.0585738
-0.0536515
-0.0485404
-0.0432072
-0.037588
-0.0315908
-0.0250033
-0.0171415
-0.00350715
-0.00737647
-0.00580312
-0.00323519
-0.000315451
0.00274637
0.00587373
0.00903667
0.0122226
0.0154252
0.0186405
0.0218655
0.0250971
0.0283329
0.0315708
0.0348092
0.0380467
0.0412825
0.044516
0.0477468
0.0509746
0.0541995
0.0574214
0.0606404
0.0638566
0.0670703
0.0702815
0.0734905
0.0766974
0.0799025
0.083106
0.0863081
0.0895089
0.0927086
0.0959074
0.0991055
0.102303
0.1055
0.108697
-0.219251
-0.216573
-0.213907
-0.211263
-0.208658
-0.206102
-0.203605
-0.201173
-0.198808
-0.196511
-0.194283
-0.192124
-0.190035
-0.188022
-0.186093
-0.184249
-0.182485
-0.180798
-0.179182
-0.177631
-0.176148
-0.174732
-0.173385
-0.172108
-0.1709
-0.169763
-0.168698
-0.167708
-0.166797
-0.165964
-0.165205
-0.164512
-0.163881
-0.163298
-0.162747
-0.162208
-0.161663
-0.161098
-0.160492
-0.15984
-0.159126
-0.158336
-0.157457
-0.15646
-0.155327
-0.154044
-0.152594
-0.150956
-0.149115
-0.147043
-0.144729
-0.1422
-0.139468
-0.13654
-0.133427
-0.130157
-0.126754
-0.123246
-0.119674
-0.11607
-0.112451
-0.108805
-0.105115
-0.101373
-0.097558
-0.0936447
-0.0896134
-0.0854546
-0.0811747
-0.0767768
-0.0722601
-0.0676312
-0.0628949
-0.0580425
-0.0530488
-0.047887
-0.042518
-0.0368875
-0.0309174
-0.0245143
-0.0176145
-0.0104172
-0.00804318
-0.0054715
-0.00267227
0.000277743
0.00331058
0.00639108
0.00950345
0.0126406
0.0157985
0.0189739
0.0221636
0.0253643
0.028573
0.031787
0.0350042
0.0382228
0.0414417
0.04466
0.047877
0.0510924
0.0543058
0.0575173
0.0607267
0.0639342
0.0671397
0.0703434
0.0735455
0.076746
0.0799452
0.0831431
0.08634
0.0895359
0.092731
0.0959254
0.0991193
0.102313
0.105506
0.108699
-0.219272
-0.216638
-0.214015
-0.211415
-0.208852
-0.206339
-0.203886
-0.201499
-0.199183
-0.196938
-0.194767
-0.19267
-0.19065
-0.188708
-0.186848
-0.185071
-0.183376
-0.181758
-0.180211
-0.178732
-0.177319
-0.17597
-0.174689
-0.173474
-0.172327
-0.171246
-0.170233
-0.169292
-0.168429
-0.167641
-0.166923
-0.166268
-0.165672
-0.16512
-0.164601
-0.164094
-0.163579
-0.163047
-0.162474
-0.161854
-0.161167
-0.160401
-0.159541
-0.15856
-0.157439
-0.156166
-0.154722
-0.153086
-0.15124
-0.149156
-0.146825
-0.144275
-0.141515
-0.138557
-0.135406
-0.132063
-0.128556
-0.124927
-0.121216
-0.117461
-0.113683
-0.109876
-0.106029
-0.102128
-0.0981437
-0.0940526
-0.0898417
-0.0855107
-0.0810617
-0.0765036
-0.0718447
-0.0670948
-0.0622608
-0.0573339
-0.0522914
-0.0471118
-0.0417607
-0.0362046
-0.0304048
-0.0243915
-0.0183219
-0.012752
-0.00875941
-0.00542087
-0.00230006
0.000758485
0.00380778
0.00686676
0.00994318
0.0130404
0.0161593
0.0192985
0.0224556
0.0256272
0.02881
0.0320009
0.0351975
0.0383978
0.0416001
0.0448034
0.0480068
0.0512098
0.054412
0.0576132
0.0608131
0.0640118
0.0672093
0.0704056
0.0736007
0.0767949
0.0799881
0.0831804
0.0863721
0.0895631
0.0927535
0.0959436
0.0991332
0.102323
0.105512
0.108701
-0.219296
-0.21671
-0.214137
-0.211586
-0.209073
-0.206612
-0.204212
-0.201881
-0.199625
-0.197447
-0.195347
-0.193329
-0.191396
-0.189549
-0.187785
-0.186104
-0.184502
-0.182975
-0.181517
-0.180125
-0.178795
-0.177525
-0.176316
-0.175166
-0.174082
-0.173056
-0.172094
-0.1712
-0.170379
-0.169631
-0.168945
-0.168321
-0.167752
-0.167225
-0.16673
-0.166246
-0.165754
-0.165243
-0.164692
-0.164086
-0.163408
-0.162644
-0.161778
-0.160788
-0.159651
-0.15835
-0.156868
-0.155186
-0.153288
-0.151145
-0.148749
-0.146128
-0.143294
-0.140258
-0.137019
-0.133578
-0.129971
-0.126234
-0.122401
-0.118508
-0.114579
-0.110615
-0.106608
-0.102538
-0.0983831
-0.0941175
-0.0897276
-0.0852196
-0.0806093
-0.0759127
-0.07114
-0.0662946
-0.0613832
-0.0564049
-0.0513402
-0.0461713
-0.0408744
-0.0354384
-0.0298522
-0.0241747
-0.0185641
-0.0133333
-0.0089138
-0.00521716
-0.00191342
0.00121349
0.00427222
0.00731287
0.0103589
0.0134217
0.0165059
0.0196125
0.0227395
0.0258839
0.0290422
0.0322111
0.0353879
0.0385703
0.0417564
0.044945
0.0481352
0.051326
0.0545171
0.0577081
0.0608987
0.0640888
0.0672784
0.0704673
0.0736556
0.0768434
0.0800307
0.0832175
0.0864039
0.0895901
0.0927759
0.0959616
0.0991471
0.102332
0.105518
0.108703
-0.219326
-0.216801
-0.214288
-0.211799
-0.209348
-0.20695
-0.204617
-0.202358
-0.200179
-0.198083
-0.196074
-0.194157
-0.192334
-0.190604
-0.188963
-0.187405
-0.185924
-0.184515
-0.183171
-0.181885
-0.180656
-0.179479
-0.178354
-0.177279
-0.176263
-0.175296
-0.174385
-0.173536
-0.172753
-0.172043
-0.171384
-0.170783
-0.170235
-0.169728
-0.169248
-0.168779
-0.168302
-0.1678
-0.167257
-0.166649
-0.165957
-0.165171
-0.16427
-0.163236
-0.162042
-0.160667
-0.159096
-0.15731
-0.15529
-0.153007
-0.150458
-0.147685
-0.144705
-0.141524
-0.138148
-0.134585
-0.130868
-0.127026
-0.123083
-0.119067
-0.114997
-0.110884
-0.106722
-0.102489
-0.098158
-0.0937095
-0.0891391
-0.0844657
-0.0797142
-0.0749028
-0.0700414
-0.065134
-0.0601806
-0.0551852
-0.0501359
-0.0450164
-0.0398067
-0.0345064
-0.0291096
-0.0236654
-0.0182749
-0.0130752
-0.00842074
-0.00468108
-0.00139664
0.00170141
0.00473053
0.00774043
0.0107545
0.0137849
0.0168377
0.0199145
0.023014
0.0261332
0.0292685
0.0324165
0.0355742
0.0387393
0.0419097
0.045084
0.048261
0.05144
0.0546203
0.0578013
0.0609828
0.0641645
0.0673462
0.0705279
0.0737095
0.0768911
0.0800726
0.083254
0.0864353
0.0896167
0.092798
0.0959793
0.0991607
0.102342
0.105523
0.108705
-0.21937
-0.216929
-0.2145
-0.212095
-0.209727
-0.207415
-0.205171
-0.203005
-0.200922
-0.198931
-0.197037
-0.195245
-0.193555
-0.191965
-0.190469
-0.189059
-0.187727
-0.186464
-0.185259
-0.184103
-0.182994
-0.181927
-0.1809
-0.179912
-0.178972
-0.178071
-0.177217
-0.176415
-0.175672
-0.174996
-0.174364
-0.17378
-0.173248
-0.172753
-0.172285
-0.171824
-0.171352
-0.170849
-0.170296
-0.169666
-0.168941
-0.168106
-0.167143
-0.16603
-0.16474
-0.163247
-0.161536
-0.159583
-0.157366
-0.154849
-0.152039
-0.148993
-0.145745
-0.142317
-0.138726
-0.134998
-0.131149
-0.127191
-0.123139
-0.119009
-0.114808
-0.110546
-0.106225
-0.101826
-0.0973262
-0.092708
-0.087974
-0.0831485
-0.0782673
-0.0733622
-0.0684365
-0.0634945
-0.0585377
-0.0535652
-0.0485687
-0.0435354
-0.0384417
-0.0332911
-0.0280736
-0.0228157
-0.0175315
-0.0121866
-0.00710198
-0.00375565
-0.000736985
0.00222752
0.0051871
0.00815281
0.0111319
0.014131
0.0171547
0.0202043
0.0232786
0.0263744
0.0294881
0.0326162
0.0357556
0.0389039
0.042059
0.0452193
0.0483836
0.051551
0.0547206
0.0578919
0.0610645
0.064238
0.0674122
0.0705869
0.073762
0.0769375
0.0801133
0.0832894
0.0864659
0.0896425
0.0928194
0.0959966
0.0991739
0.102351
0.105529
0.108707
-0.219438
-0.217132
-0.214831
-0.212549
-0.210302
-0.208107
-0.20598
-0.203934
-0.201977
-0.200119
-0.198367
-0.196723
-0.19519
-0.193762
-0.192435
-0.191197
-0.190036
-0.188939
-0.187892
-0.186884
-0.185912
-0.18497
-0.184054
-0.183163
-0.182305
-0.181477
-0.180686
-0.179937
-0.179237
-0.178593
-0.177988
-0.177424
-0.176904
-0.176419
-0.175957
-0.175502
-0.175028
-0.174515
-0.17394
-0.173275
-0.172503
-0.171604
-0.170559
-0.169341
-0.167921
-0.166269
-0.164363
-0.162167
-0.159658
-0.156797
-0.153605
-0.150162
-0.146517
-0.142712
-0.138797
-0.134812
-0.130771
-0.126671
-0.122496
-0.11824
-0.113896
-0.109469
-0.104977
-0.100406
-0.0957375
-0.0909571
-0.0860734
-0.0811162
-0.0761247
-0.0711452
-0.0661851
-0.0612441
-0.0563208
-0.0514111
-0.0465124
-0.04161
-0.0366714
-0.0317074
-0.0266896
-0.0215999
-0.0163942
-0.010819
-0.0021967
-0.00261632
-6.86646e-05
0.00273707
0.0056259
0.00854803
0.0114929
0.014462
0.0174582
0.0204825
0.0235331
0.026607
0.0297004
0.0328095
0.0359314
0.0390634
0.0422036
0.0453502
0.0485021
0.0516581
0.0548174
0.0579793
0.0611432
0.0643088
0.0674757
0.0706436
0.0738125
0.0769821
0.0801525
0.0833236
0.0864952
0.0896674
0.09284
0.0960131
0.0991866
0.10236
0.105534
0.108708
-0.219552
-0.217466
-0.215373
-0.213283
-0.211215
-0.20919
-0.207225
-0.205337
-0.203539
-0.201844
-0.200258
-0.198787
-0.197432
-0.19619
-0.195052
-0.194002
-0.193025
-0.192104
-0.191222
-0.190367
-0.189532
-0.188714
-0.187908
-0.187113
-0.186337
-0.185582
-0.184854
-0.184159
-0.183503
-0.18289
-0.182315
-0.181773
-0.181268
-0.180794
-0.18034
-0.179891
-0.179415
-0.178889
-0.17829
-0.177594
-0.176776
-0.175812
-0.17468
-0.173345
-0.171774
-0.169932
-0.16778
-0.165277
-0.162389
-0.159067
-0.155356
-0.151374
-0.147184
-0.142849
-0.138464
-0.134113
-0.129798
-0.125485
-0.121127
-0.116694
-0.112169
-0.10755
-0.102865
-0.0981108
-0.0932705
-0.0883271
-0.0832943
-0.0782125
-0.0731267
-0.0680941
-0.0631303
-0.0582277
-0.0533783
-0.0485781
-0.043832
-0.0391295
-0.034422
-0.0297134
-0.024979
-0.0201803
-0.0153147
-0.0103759
-0.00568016
-0.00257242
0.000299196
0.0031604
0.00603737
0.00893091
0.0118444
0.0147834
0.0177519
0.020751
0.0237787
0.0268314
0.0299051
0.032996
0.0361008
0.0392171
0.0423427
0.045476
0.0486157
0.0517607
0.0549099
0.0580627
0.0612183
0.0643762
0.0675361
0.0706976
0.0738604
0.0770245
0.0801897
0.0833559
0.086523
0.0896909
0.0928595
0.0960288
0.0991986
0.102369
0.105539
0.10871
-0.219744
-0.218032
-0.216282
-0.214502
-0.212711
-0.210936
-0.209201
-0.207525
-0.20593
-0.204431
-0.203037
-0.201758
-0.200597
-0.19955
-0.198604
-0.197744
-0.196947
-0.19619
-0.195456
-0.19473
-0.194005
-0.193281
-0.192554
-0.191825
-0.191104
-0.190399
-0.189716
-0.189061
-0.18844
-0.187854
-0.187305
-0.186787
-0.186302
-0.185845
-0.185405
-0.184967
-0.184497
-0.183973
-0.183371
-0.182667
-0.181826
-0.180817
-0.179611
-0.178171
-0.17645
-0.17441
-0.171982
-0.16912
-0.165773
-0.161884
-0.15753
-0.152878
-0.148003
-0.14299
-0.137998
-0.133136
-0.128408
-0.123758
-0.119113
-0.114413
-0.109629
-0.104759
-0.0998356
-0.0948728
-0.0898487
-0.0847364
-0.0795541
-0.0743502
-0.0691709
-0.0640793
-0.0591063
-0.0542515
-0.0495106
-0.0448782
-0.040353
-0.0359207
-0.0315198
-0.0271439
-0.0227895
-0.018412
-0.0140263
-0.00969088
-0.00565843
-0.00232033
0.000700586
0.00360243
0.00646606
0.0093262
0.0122019
0.0151052
0.018042
0.0210134
0.0240169
0.0270481
0.0301023
0.0331752
0.0362633
0.0393641
0.0424755
0.0455958
0.0487237
0.051858
0.0549975
0.0581415
0.0612891
0.0644397
0.0675929
0.0707482
0.0739054
0.0770642
0.0802245
0.0833861
0.0865489
0.0897128
0.0928776
0.0960433
0.0992097
0.102377
0.105544
0.108712
-0.220073
-0.218994
-0.21782
-0.216545
-0.21519
-0.213792
-0.212385
-0.210997
-0.209661
-0.208398
-0.20722
-0.206143
-0.205172
-0.204307
-0.203533
-0.202831
-0.202173
-0.201532
-0.200887
-0.200222
-0.199532
-0.19882
-0.198089
-0.197348
-0.19661
-0.195887
-0.195192
-0.194529
-0.193903
-0.193318
-0.192775
-0.19227
-0.191804
-0.19137
-0.190955
-0.190544
-0.190107
-0.18962
-0.189059
-0.188395
-0.18758
-0.186576
-0.185343
-0.183839
-0.182004
-0.179788
-0.177091
-0.173848
-0.169983
-0.165441
-0.160338
-0.154925
-0.149276
-0.14347
-0.137733
-0.132201
-0.126897
-0.121753
-0.116675
-0.111578
-0.106417
-0.101183
-0.0959165
-0.090653
-0.0853817
-0.0800692
-0.0747278
-0.06939
-0.0640996
-0.0589397
-0.0539559
-0.049163
-0.0445597
-0.0401464
-0.0359189
-0.0318416
-0.0278409
-0.0238929
-0.0200178
-0.0161439
-0.0122809
-0.00846941
-0.00486322
-0.00166223
0.00130534
0.00415804
0.00696486
0.00976574
0.0125858
0.0154403
0.0183363
0.0212742
0.02425
0.0272578
0.0302917
0.0333464
0.0364181
0.0395038
0.0426013
0.0457089
0.0488253
0.0519492
0.0550794
0.0582149
0.0613549
0.0644987
0.0676455
0.0707951
0.0739469
0.0771008
0.0802565
0.0834139
0.0865727
0.0897328
0.0928942
0.0960565
0.0992198
0.102384
0.105548
0.108713
-0.220629
-0.220618
-0.2204
-0.219945
-0.219276
-0.218447
-0.217511
-0.216517
-0.215515
-0.214529
-0.213584
-0.212704
-0.2119
-0.211172
-0.210509
-0.209886
-0.20927
-0.208635
-0.207962
-0.207226
-0.206421
-0.20556
-0.20466
-0.203743
-0.202832
-0.20195
-0.201114
-0.200333
-0.19961
-0.19895
-0.198358
-0.19783
-0.197362
-0.196947
-0.196571
-0.196214
-0.195853
-0.195462
-0.19501
-0.194461
-0.193753
-0.192831
-0.191647
-0.190148
-0.188267
-0.185925
-0.182994
-0.179372
-0.174977
-0.169781
-0.163965
-0.157818
-0.151345
-0.144627
-0.138021
-0.131689
-0.125659
-0.119869
-0.114213
-0.108577
-0.102881
-0.0971132
-0.091326
-0.0855918
-0.0799276
-0.074314
-0.0687653
-0.0632727
-0.0578392
-0.0525841
-0.0475666
-0.042837
-0.0384123
-0.0342878
-0.0304475
-0.0268156
-0.0233095
-0.0198884
-0.0165728
-0.0132647
-0.00995577
-0.00666657
-0.00351974
-0.00063179
0.00214483
0.00486604
0.00756632
0.0102743
0.0130137
0.0158007
0.0186423
0.0215375
0.0244799
0.0274611
0.0304731
0.0335092
0.0365643
0.039635
0.042719
0.0458144
0.0489197
0.0520337
0.0551549
0.0582825
0.0614153
0.0645525
0.0676935
0.0708377
0.0739846
0.0771339
0.0802854
0.0834388
0.0865939
0.0897507
0.0929088
0.0960682
0.0992287
0.10239
0.105552
0.108714
-0.221553
-0.223304
-0.224647
-0.225499
-0.225891
-0.22591
-0.225649
-0.225194
-0.224616
-0.223956
-0.22326
-0.222561
-0.221875
-0.221204
-0.220531
-0.219834
-0.21908
-0.218259
-0.21735
-0.216318
-0.215146
-0.213859
-0.212502