/*--------------------------------*- C++ -*----------------------------------*\
  =========                 |
  \\      /  F ield         | OpenFOAM: The Open Source CFD Toolbox
   \\    /   O peration     | Website:  https://openfoam.org
    \\  /    A nd           | Version:  6
     \\/     M anipulation  |
\*---------------------------------------------------------------------------*/
FoamFile
{
    version     2.0;
    format      ascii;
    class       volScalarField;
    location    "2000";
    object      T;
}
// * * * * * * * * * * * * * * * * * * * * * * * * * * * * * * * * * * * * * //

dimensions      [0 0 0 1 0 0 0];

internalField   nonuniform List<scalar> 
4800
(
552.497
552.393
552.289
552.186
552.085
551.986
551.889
551.795
551.705
551.617
551.533
551.452
551.373
551.298
551.224
551.151
551.079
551.007
550.935
550.862
550.789
550.715
550.641
550.566
550.493
550.421
550.351
550.283
550.219
550.16
550.104
550.052
550.003
549.957
549.913
549.871
549.83
549.79
549.75
549.71
549.669
549.626
549.582
549.535
549.487
549.435
549.38
549.321
549.257
549.188
549.114
549.032
548.945
548.852
548.754
548.652
548.547
548.439
548.329
548.218
548.106
547.993
547.88
547.766
547.651
547.536
547.419
547.302
547.183
547.062
546.938
546.812
546.683
546.551
546.415
546.276
546.134
545.988
545.838
545.687
545.533
545.381
545.231
545.083
544.938
544.795
544.654
544.516
544.38
544.246
544.114
543.984
543.855
543.727
543.6
543.474
543.35
543.226
543.103
542.981
542.859
542.738
542.617
542.497
542.377
542.258
542.138
542.02
541.901
541.783
541.665
541.547
541.429
541.312
541.194
541.077
540.96
540.843
540.726
540.609
552.497
552.392
552.288
552.185
552.083
551.984
551.887
551.793
551.703
551.615
551.532
551.451
551.373
551.297
551.223
551.15
551.078
551.007
550.935
550.862
550.789
550.716
550.641
550.567
550.494
550.422
550.353
550.286
550.223
550.164
550.109
550.057
550.009
549.963
549.92
549.878
549.838
549.798
549.759
549.718
549.677
549.635
549.59
549.544
549.494
549.442
549.387
549.327
549.263
549.194
549.119
549.038
548.95
548.858
548.76
548.658
548.553
548.446
548.336
548.225
548.113
548.001
547.887
547.774
547.659
547.544
547.428
547.311
547.192
547.071
546.947
546.82
546.69
546.556
546.419
546.279
546.135
545.988
545.838
545.686
545.532
545.379
545.229
545.081
544.935
544.793
544.652
544.514
544.378
544.245
544.113
543.982
543.853
543.726
543.599
543.474
543.349
543.225
543.102
542.98
542.858
542.737
542.617
542.496
542.377
542.257
542.138
542.019
541.901
541.783
541.665
541.547
541.429
541.312
541.194
541.077
540.96
540.843
540.726
540.609
552.497
552.392
552.287
552.183
552.081
551.982
551.885
551.791
551.701
551.614
551.53
551.45
551.372
551.296
551.222
551.15
551.078
551.006
550.935
550.862
550.79
550.717
550.643
550.57
550.497
550.426
550.358
550.293
550.231
550.173
550.119
550.069
550.021
549.976
549.934
549.893
549.853
549.814
549.775
549.735
549.694
549.651
549.607
549.56
549.51
549.457
549.4
549.339
549.274
549.204
549.129
549.048
548.961
548.869
548.772
548.671
548.566
548.459
548.349
548.239
548.127
548.015
547.902
547.789
547.676
547.561
547.445
547.328
547.209
547.087
546.963
546.835
546.703
546.568
546.428
546.284
546.137
545.987
545.835
545.682
545.529
545.375
545.224
545.076
544.931
544.788
544.648
544.51
544.375
544.241
544.109
543.979
543.851
543.723
543.597
543.472
543.347
543.224
543.101
542.979
542.857
542.736
542.616
542.496
542.376
542.257
542.138
542.019
541.901
541.782
541.664
541.547
541.429
541.311
541.194
541.077
540.96
540.843
540.726
540.609
552.497
552.391
552.286
552.182
552.08
551.98
551.883
551.789
551.699
551.612
551.529
551.448
551.371
551.295
551.221
551.149
551.077
551.006
550.934
550.863
550.791
550.719
550.646
550.574
550.503
550.433
550.366
550.303
550.243
550.187
550.134
550.085
550.039
549.995
549.954
549.914
549.876
549.837
549.799
549.759
549.718
549.675
549.63
549.583
549.532
549.478
549.42
549.357
549.291
549.22
549.144
549.063
548.976
548.885
548.789
548.688
548.584
548.477
548.368
548.258
548.147
548.035
547.924
547.811
547.698
547.584
547.469
547.352
547.233
547.111
546.985
546.856
546.722
546.584
546.44
546.293
546.141
545.986
545.831
545.677
545.523
545.37
545.218
545.069
544.924
544.781
544.641
544.504
544.369
544.236
544.105
543.975
543.847
543.72
543.594
543.469
543.345
543.221
543.099
542.977
542.856
542.735
542.614
542.494
542.375
542.256
542.137
542.018
541.9
541.782
541.664
541.546
541.429
541.311
541.194
541.077
540.96
540.842
540.725
540.608
552.497
552.391
552.285
552.181
552.079
551.979
551.882
551.788
551.698
551.611
551.528
551.447
551.37
551.294
551.22
551.148
551.076
551.005
550.935
550.864
550.793
550.722
550.651
550.58
550.511
550.443
550.378
550.317
550.259
550.205
550.154
550.106
550.062
550.02
549.98
549.942
549.905
549.867
549.83
549.791
549.75
549.707
549.662
549.613
549.562
549.506
549.447
549.383
549.314
549.242
549.164
549.083
548.996
548.905
548.81
548.709
548.606
548.5
548.391
548.282
548.172
548.061
547.949
547.838
547.725
547.612
547.497
547.381
547.261
547.139
547.012
546.88
546.744
546.603
546.457
546.306
546.152
545.994
545.835
545.676
545.518
545.362
545.21
545.06
544.914
544.772
544.632
544.496
544.361
544.229
544.098
543.969
543.841
543.715
543.59
543.465
543.341
543.218
543.096
542.975
542.853
542.733
542.613
542.493
542.374
542.255
542.136
542.017
541.899
541.781
541.663
541.546
541.428
541.311
541.194
541.076
540.959
540.842
540.725
540.608
552.497
552.391
552.285
552.181
552.078
551.978
551.881
551.788
551.698
551.611
551.527
551.447
551.369
551.293
551.22
551.147
551.076
551.006
550.936
550.866
550.796
550.726
550.657
550.588
550.521
550.456
550.393
550.334
550.279
550.226
550.178
550.132
550.09
550.05
550.012
549.975
549.939
549.903
549.867
549.829
549.789
549.746
549.701
549.652
549.599
549.543
549.482
549.416
549.347
549.272
549.193
549.109
549.022
548.93
548.834
548.735
548.632
548.527
548.419
548.31
548.201
548.09
547.979
547.868
547.756
547.644
547.529
547.412
547.292
547.169
547.041
546.907
546.769
546.624
546.475
546.321
546.163
546.002
545.838
545.674
545.512
545.353
545.198
545.048
544.902
544.76
544.621
544.485
544.351
544.22
544.09
543.962
543.835
543.709
543.584
543.46
543.337
543.215
543.093
542.972
542.851
542.731
542.611
542.491
542.372
542.253
542.134
542.016
541.898
541.78
541.662
541.545
541.428
541.31
541.193
541.076
540.959
540.842
540.725
540.608
552.497
552.39
552.285
552.181
552.079
551.979
551.882
551.788
551.698
551.611
551.528
551.447
551.369
551.293
551.22
551.148
551.077
551.007
550.938
550.869
550.801
550.733
550.665
550.599
550.534
550.471
550.411
550.355
550.302
550.252
550.205
550.162
550.122
550.084
550.048
550.014
549.98
549.945
549.91
549.873
549.834
549.791
549.746
549.697
549.644
549.587
549.525
549.459
549.388
549.311
549.23
549.145
549.055
548.962
548.866
548.766
548.663
548.558
548.452
548.343
548.234
548.124
548.013
547.902
547.791
547.678
547.563
547.446
547.325
547.2
547.071
546.935
546.794
546.647
546.494
546.335
546.173
546.007
545.838
545.67
545.503
545.34
545.183
545.032
544.886
544.745
544.607
544.472
544.34
544.21
544.081
543.954
543.828
543.703
543.579
543.455
543.333
543.211
543.089
542.968
542.848
542.728
542.608
542.489
542.37
542.251
542.133
542.015
541.897
541.779
541.662
541.544
541.427
541.31
541.193
541.076
540.959
540.842
540.725
540.608
552.497
552.391
552.287
552.183
552.081
551.981
551.884
551.791
551.7
551.613
551.529
551.448
551.37
551.294
551.221
551.149
551.079
551.01
550.942
550.874
550.807
550.741
550.675
550.611
550.549
550.489
550.432
550.378
550.328
550.281
550.237
550.196
550.158
550.123
550.089
550.056
550.024
549.992
549.958
549.922
549.884
549.842
549.798
549.749
549.697
549.639
549.577
549.51
549.438
549.36
549.277
549.189
549.098
549.003
548.904
548.804
548.7
548.595
548.489
548.381
548.271
548.161
548.051
547.939
547.827
547.714
547.598
547.48
547.358
547.231
547.099
546.961
546.817
546.667
546.51
546.347
546.18
546.008
545.835
545.661
545.489
545.322
545.163
545.012
544.866
544.726
544.59
544.457
544.326
544.198
544.07
543.944
543.819
543.695
543.572
543.449
543.327
543.206
543.085
542.964
542.844
542.725
542.605
542.486
542.368
542.249
542.131
542.013
541.895
541.778
541.66
541.543
541.426
541.309
541.192
541.075
540.958
540.842
540.725
540.608
552.498
552.393
552.289
552.185
552.084
551.985
551.888
551.794
551.704
551.616
551.532
551.451
551.373
551.297
551.224
551.152
551.083
551.014
550.947
550.881
550.816
550.751
550.688
550.626
550.567
550.51
550.456
550.405
550.357
550.313
550.271
550.233
550.198
550.165
550.133
550.103
550.073
550.042
550.009
549.975
549.938
549.898
549.854
549.807
549.755
549.699
549.637
549.57
549.498
549.419
549.334
549.244
549.15
549.053
548.952
548.849
548.745
548.639
548.531
548.423
548.313
548.202
548.091
547.979
547.866
547.751
547.634
547.513
547.388
547.259
547.125
546.984
546.837
546.683
546.522
546.355
546.183
546.006
545.826
545.646
545.469
545.297
545.137
544.986
544.842
544.704
544.571
544.44
544.311
544.184
544.059
543.934
543.81
543.687
543.565
543.443
543.321
543.201
543.08
542.96
542.841
542.721
542.602
542.484
542.365
542.247
542.129
542.011
541.894
541.777
541.659
541.542
541.425
541.308
541.191
541.075
540.958
540.841
540.725
540.608
552.498
552.394
552.29
552.188
552.088
551.989
551.893
551.8
551.709
551.622
551.537
551.456
551.377
551.302
551.228
551.157
551.088
551.021
550.955
550.89
550.826
550.764
550.703
550.644
550.587
550.533
550.482
550.434
550.389
550.347
550.309
550.273
550.24
550.209
550.18
550.152
550.124
550.095
550.064
550.031
549.996
549.957
549.916
549.87
549.819
549.764
549.704
549.638
549.565
549.486
549.4
549.308
549.212
549.112
549.009
548.903
548.797
548.689
548.58
548.47
548.358
548.247
548.134
548.021
547.906
547.788
547.668
547.545
547.417
547.284
547.146
547.002
546.851
546.694
546.529
546.358
546.18
545.997
545.811
545.624
545.44
545.264
545.102
544.953
544.813
544.679
544.549
544.421
544.295
544.17
544.046
543.923
543.8
543.678
543.557
543.436
543.315
543.195
543.075
542.956
542.837
542.718
542.599
542.481
542.363
542.245
542.127
542.01
541.892
541.775
541.658
541.541
541.424
541.308
541.191
541.074
540.958
540.841
540.725
540.608
552.498
552.395
552.293
552.192
552.092
551.995
551.9
551.807
551.716
551.629
551.544
551.463
551.384
551.309
551.236
551.165
551.096
551.03
550.965
550.901
550.839
550.779
550.721
550.665
550.611
550.56
550.511
550.466
550.424
550.385
550.349
550.316
550.285
550.257
550.23
550.204
550.177
550.15
550.121
550.09
550.057
550.02
549.981
549.937
549.888
549.835
549.776
549.711
549.639
549.56
549.473
549.38
549.283
549.181
549.075
548.966
548.857
548.746
548.635
548.522
548.408
548.295
548.18
548.064
547.946
547.825
547.701
547.573
547.441
547.305
547.162
547.014
546.86
546.698
546.53
546.354
546.172
545.983
545.79
545.594
545.4
545.215
545.056
544.913
544.779
544.65
544.524
544.4
544.277
544.154
544.032
543.911
543.79
543.669
543.548
543.428
543.309
543.189
543.07
542.951
542.832
542.714
542.596
542.478
542.36
542.242
542.125
542.008
541.891
541.774
541.657
541.54
541.423
541.307
541.19
541.074
540.957
540.841
540.725
540.608
552.499
552.397
552.296
552.196
552.098
552.002
551.907
551.815
551.726
551.638
551.554
551.472
551.394
551.318
551.246
551.176
551.108
551.042
550.978
550.916
550.856
550.798
550.742
550.689
550.638
550.589
550.544
550.501
550.462
550.425
550.392
550.361
550.333
550.306
550.282
550.257
550.233
550.207
550.18
550.151
550.12
550.086
550.048
550.006
549.96
549.909
549.852
549.788
549.717
549.639
549.552
549.459
549.361
549.257
549.148
549.037
548.925
548.811
548.695
548.579
548.463
548.346
548.228
548.108
547.985
547.86
547.731
547.599
547.462
547.32
547.173
547.02
546.861
546.696
546.524
546.345
546.158
545.963
545.761
545.553
545.343
545.143
544.993
544.864
544.741
544.62
544.499
544.379
544.258
544.138
544.018
543.899
543.779
543.659
543.54
543.421
543.302
543.183
543.064
542.946
542.828
542.71
542.592
542.474
542.357
542.24
542.123
542.006
541.889
541.772
541.655
541.539
541.422
541.306
541.189
541.073
540.957
540.841
540.724
540.608
552.5
552.4
552.3
552.201
552.104
552.009
551.916
551.825
551.736
551.65
551.566
551.485
551.407
551.332
551.259
551.19
551.123
551.058
550.996
550.936
550.878
550.822
550.769
550.717
550.669
550.623
550.58
550.54
550.503
550.469
550.437
550.409
550.383
550.358
550.335
550.313
550.29
550.266
550.241
550.214
550.185
550.153
550.117
550.078
550.034
549.984
549.929
549.867
549.797
549.72
549.634
549.542
549.443
549.338
549.228
549.114
548.999
548.88
548.76
548.64
548.519
548.398
548.275
548.15
548.023
547.893
547.759
547.621
547.479
547.331
547.178
547.02
546.857
546.688
546.512
546.33
546.139
545.94
545.729
545.505
545.265
545.019
544.91
544.809
544.701
544.589
544.474
544.357
544.24
544.122
544.004
543.886
543.768
543.65
543.531
543.413
543.295
543.177
543.059
542.941
542.823
542.706
542.588
542.471
542.354
542.237
542.12
542.003
541.887
541.77
541.654
541.537
541.421
541.305
541.189
541.072
540.956
540.84
540.724
540.608
552.501
552.402
552.304
552.207
552.111
552.017
551.925
551.835
551.748
551.663
551.581
551.5
551.423
551.348
551.277
551.209
551.143
551.08
551.019
550.961
550.905
550.851
550.8
550.751
550.705
550.662
550.621
550.583
550.548
550.516
550.487
550.46
550.436
550.413
550.392
550.371
550.35
550.328
550.304
550.279
550.252
550.221
550.188
550.15
550.108
550.06
550.007
549.946
549.878
549.802
549.717
549.625
549.526
549.421
549.309
549.193
549.074
548.951
548.826
548.701
548.575
548.449
548.321
548.19
548.058
547.922
547.782
547.638
547.489
547.336
547.177
547.014
546.847
546.674
546.496
546.31
546.117
545.913
545.696
545.457
545.171
544.755
544.817
544.761
544.667
544.562
544.45
544.337
544.222
544.107
543.991
543.874
543.757
543.64
543.522
543.405
543.288
543.17
543.053
542.936
542.818
542.701
542.584
542.468
542.351
542.234
542.118
542.001
541.885
541.768
541.652
541.536
541.42
541.304
541.188
541.072
540.956
540.84
540.724
540.608
552.501
552.404
552.308
552.212
552.117
552.025
551.934
551.846
551.76
551.677
551.596
551.518
551.442
551.369
551.299
551.232
551.168
551.107
551.049
550.992
550.939
550.887
550.839
550.792
550.748
550.707
550.669
550.633
550.6
550.569
550.542
550.517
550.494
550.473
550.453
550.433
550.413
550.393
550.371
550.347
550.321
550.293
550.261
550.224
550.183
550.137
550.084
550.024
549.957
549.882
549.798
549.706
549.607
549.501
549.388
549.27
549.146
549.019
548.889
548.759
548.628
548.495
548.361
548.226
548.087
547.945
547.799
547.648
547.493
547.334
547.17
547.002
546.83
546.655
546.474
546.286
546.092
545.888
545.671
545.439
545.189
544.937
544.842
544.749
544.647
544.54
544.43
544.318
544.205
544.092
543.977
543.862
543.746
543.63
543.514
543.397
543.281
543.164
543.047
542.93
542.814
542.697
542.581
542.464
542.348
542.231
542.115
541.999
541.883
541.767
541.651
541.535
541.419
541.303
541.187
541.071
540.955
540.84
540.724
540.608
552.502
552.407
552.312
552.217
552.124
552.033
551.944
551.858
551.774
551.693
551.614
551.538
551.465
551.394
551.327
551.262
551.201
551.142
551.086
551.033
550.981
550.933
550.886
550.842
550.8
550.761
550.725
550.69
550.659
550.631
550.605
550.581
550.559
550.539
550.52
550.502
550.483
550.464
550.443
550.421
550.396
550.368
550.336
550.301
550.26
550.214
550.161
550.102
550.035
549.959
549.874
549.782
549.681
549.574
549.46
549.338
549.211
549.08
548.945
548.809
548.672
548.534
548.394
548.253
548.108
547.96
547.807
547.65
547.489
547.323
547.155
546.982
546.807
546.629
546.446
546.258
546.064
545.863
545.653
545.435
545.215
545.013
544.868
544.747
544.634
544.523
544.412
544.301
544.189
544.077
543.964
543.85
543.736
543.621
543.505
543.389
543.274
543.157
543.041
542.925
542.809
542.693
542.577
542.461
542.345
542.229
542.113
541.997
541.881
541.765
541.649
541.533
541.418
541.302
541.186
541.07
540.955
540.839
540.723
540.608
552.503
552.409
552.316
552.224
552.133
552.043
551.956
551.872
551.79
551.711
551.635
551.562
551.492
551.425
551.361
551.3
551.242
551.187
551.134
551.083
551.035
550.989
550.945
550.904
550.864
550.827
550.792
550.76
550.73
550.703
550.678
550.656
550.635
550.616
550.598
550.58
550.562
550.544
550.524
550.502
550.477
550.449
550.418
550.382
550.341
550.293
550.239
550.178
550.109
550.031
549.944
549.849
549.746
549.636
549.518
549.393
549.262
549.127
548.988
548.846
548.704
548.56
548.415
548.267
548.116
547.961
547.802
547.639
547.472
547.301
547.128
546.953
546.775
546.595
546.411
546.224
546.032
545.835
545.632
545.427
545.223
545.034
544.874
544.739
544.62
544.506
544.395
544.285
544.174
544.063
543.951
543.839
543.725
543.611
543.497
543.382
543.267
543.151
543.036
542.92
542.804
542.689
542.573
542.457
542.341
542.226
542.11
541.994
541.879
541.763
541.648
541.532
541.416
541.301
541.185
541.07
540.954
540.839
540.723
540.608
552.504
552.413
552.322
552.231
552.143
552.056
551.971
551.889
551.81
551.734
551.662
551.592
551.526
551.464
551.404
551.348
551.294
551.243
551.194
551.148
551.103
551.06
551.02
550.981
550.944
550.909
550.876
550.845
550.817
550.791
550.767
550.745
550.725
550.707
550.69
550.673
550.655
550.637
550.617
550.595
550.57
550.542
550.509
550.471
550.428
550.378
550.321
550.256
550.182
550.099
550.006
549.905
549.797
549.681
549.559
549.429
549.295
549.155
549.012
548.866
548.719
548.569
548.418
548.265
548.107
547.946
547.78
547.611
547.438
547.264
547.088
546.91
546.731
546.55
546.367
546.182
545.993
545.801
545.605
545.408
545.213
545.024
544.856
544.72
544.601
544.488
544.379
544.269
544.16
544.05
543.939
543.828
543.715
543.602
543.489
543.374
543.26
543.145
543.03
542.915
542.8
542.684
542.569
542.454
542.338
542.223
542.108
541.992
541.877
541.761
541.646
541.531
541.415
541.3
541.185
541.069
540.954
540.838
540.723
540.608
552.506
552.417
552.33
552.242
552.157
552.073
551.992
551.913
551.838
551.766
551.697
551.632
551.571
551.513
551.459
551.408
551.36
551.314
551.27
551.228
551.188
551.15
551.112
551.076
551.042
551.01
550.979
550.95
550.923
550.898
550.875
550.854
550.835
550.817
550.8
550.783
550.766
550.748
550.728
550.705
550.679
550.649
550.613
550.573
550.526
550.472
550.41
550.339
550.258
550.166
550.064
549.953
549.835
549.71
549.58
549.444
549.305
549.161
549.014
548.864
548.711
548.556
548.4
548.24
548.076
547.909
547.737
547.562
547.385
547.207
547.029
546.85
546.671
546.491
546.31
546.127
545.943
545.756
545.567
545.377
545.186
544.992
544.808
544.687
544.577
544.469
544.362
544.254
544.146
544.037
543.928
543.817
543.706
543.593
543.481
543.367
543.253
543.139
543.025
542.91
542.795
542.68
542.565
542.45
542.335
542.22
542.105
541.99
541.875
541.76
541.645
541.529
541.414
541.299
541.184
541.069
540.953
540.838
540.723
540.608
552.508
552.425
552.342
552.259
552.178
552.099
552.022
551.948
551.877
551.809
551.746
551.686
551.631
551.579
551.531
551.486
551.444
551.404
551.366
551.33
551.294
551.26
551.227
551.195
551.164
551.133
551.105
551.078
551.052
551.029
551.007
550.987
550.968
550.95
550.933
550.917
550.9
550.881
550.861
550.836
550.808
550.776
550.738
550.694
550.642
550.582
550.513
550.433
550.342
550.238
550.122
549.996
549.864
549.725
549.583
549.438
549.291
549.142
548.99
548.836
548.678
548.517
548.354
548.188
548.018
547.845
547.667
547.487
547.307
547.126
546.946
546.768
546.589
546.412
546.234
546.057
545.878
545.699
545.517
545.333
545.144
544.943
544.708
544.646
544.553
544.451
544.346
544.24
544.133
544.025
543.917
543.807
543.696
543.585
543.473
543.36
543.247
543.133
543.019
542.905
542.791
542.677
542.562
542.447
542.333
542.218
542.103
541.988
541.873
541.758
541.643
541.528
541.413
541.298
541.183
541.068
540.953
540.838
540.723
540.608
552.513
552.437
552.362
552.286
552.212
552.139
552.068
551.999
551.934
551.873
551.816
551.762
551.713
551.668
551.627
551.589
551.553
551.52
551.488
551.457
551.426
551.396
551.367
551.338
551.31
551.282
551.256
551.231
551.207
551.185
551.164
551.144
551.126
551.109
551.092
551.076
551.059
551.04
551.018
550.993
550.964
550.929
550.888
550.839
550.782
550.716
550.637
550.547
550.442
550.321
550.186
550.041
549.889
549.731
549.571
549.413
549.256
549.099
548.941
548.78
548.615
548.447
548.277
548.104
547.928
547.748
547.566
547.381
547.197
547.015
546.835
546.657
546.482
546.308
546.137
545.967
545.796
545.626
545.455
545.281
545.105
544.926
544.756
544.643
544.539
544.435
544.331
544.226
544.12
544.014
543.906
543.797
543.688
543.577
543.465
543.353
543.241
543.128
543.014
542.901
542.787
542.673
542.559
542.444
542.33
542.215
542.101
541.986
541.871
541.757
541.642
541.527
541.412
541.297
541.182
541.067
540.952
540.837
540.722
540.607
552.52
552.458
552.395
552.331
552.267
552.203
552.141
552.08
552.022
551.968
551.918
551.872
551.829
551.791
551.757
551.726
551.697
551.669
551.642
551.616
551.589
551.563
551.536
551.509
551.483
551.457
551.432
551.408
551.386
551.364
551.344
551.325
551.308
551.291
551.275
551.26
551.243
551.224
551.202
551.177
551.146
551.11
551.067
551.014
550.952
550.878
550.79
550.686
550.565
550.424
550.266
550.097
549.919
549.737
549.555
549.378
549.206
549.037
548.868
548.697
548.523
548.346
548.167
547.986
547.804
547.618
547.429
547.241
547.053
546.868
546.688
546.512
546.341
546.173
546.01
545.85
545.691
545.532
545.375
545.216
545.058
544.901
544.755
544.634
544.524
544.419
544.315
544.212
544.107
544.002
543.896
543.788
543.679
543.569
543.458
543.347
543.235
543.122
543.01
542.896
542.783
542.669
542.555
542.441
542.327
542.213
542.099
541.984
541.87
541.755
541.641
541.526
541.411
541.296
541.182
541.067
540.952
540.837
540.722
540.607
552.532
552.494
552.452
552.407
552.358
552.308
552.258
552.208
552.16
552.114
552.072
552.033
551.998
551.966
551.938
551.912
551.888
551.864
551.841
551.816
551.791
551.764
551.737
551.71
551.683
551.656
551.63
551.606
551.583
551.561
551.541
551.523
551.506
551.49
551.475
551.461
551.445
551.427
551.407
551.383
551.354
551.318
551.274
551.219
551.153
551.073
550.975
550.858
550.718
550.553
550.368
550.171
549.966
549.755
549.547
549.345
549.153
548.965
548.781
548.595
548.408
548.217
548.026
547.834
547.642
547.449
547.254
547.06
546.868
546.681
546.501
546.327
546.161
546.001
545.849
545.701
545.557
545.414
545.274
545.134
544.994
544.856
544.726
544.61
544.502
544.399
544.297
544.196
544.093
543.99
543.885
543.778
543.67
543.561
543.451
543.341
543.229
543.117
543.005
542.892
542.779
542.666
542.552
542.439
542.325
542.211
542.097
541.983
541.868
541.754
541.639
541.525
541.41
541.296
541.181
541.066
540.952
540.837
540.722
540.607
552.552
552.553
552.547
552.532
552.509
552.48
552.447
552.411
552.375
552.34
552.306
552.274
552.245
552.218
552.194
552.171
552.148
552.124
552.099
552.072
552.042
552.01
551.976
551.942
551.908
551.876
551.844
551.815
551.789
551.764
551.742
551.723
551.706
551.691
551.677
551.664
551.651
551.637
551.621
551.601
551.576
551.543
551.5
551.446
551.378
551.293
551.187
551.056
550.897
550.709
550.499
550.276
550.041
549.797
549.558
549.328
549.109
548.898
548.693
548.488
548.281
548.071
547.861
547.652
547.445
547.241
547.039
546.839
546.642
546.451
546.269
546.098
545.938
545.789
545.65
545.519
545.393
545.269
545.149
545.03
544.91
544.791
544.677
544.573
544.472
544.373
544.275
544.177
544.078
543.977
543.874
543.769
543.662
543.554
543.445
543.335
543.224
543.113
543.001
542.888
542.776
542.663
542.55
542.436
542.323
542.209
542.095
541.981
541.867
541.753
541.638
541.524
541.41
541.295
541.181
541.066
540.951
540.837
540.722
540.607
552.586
552.652
552.703
552.735
552.751
552.753
552.745
552.729
552.709
552.686
552.661
552.636
552.611
552.586
552.561
552.535
552.507
552.477
552.443
552.404
552.361
552.313
552.262
552.211
552.16
552.111
552.066
552.024
551.987
551.955
551.927
551.903
551.884
551.868
551.856
551.846
551.838
551.83
551.82
551.808
551.79
551.764
551.726
551.675
551.609
551.522
551.41
551.267
551.09
550.881
550.647
550.4
550.14
549.867
549.597
549.337
549.09
548.854
548.625
548.396
548.165
547.928
547.689
547.453
547.223
547.001
546.787
546.579
546.375
546.179
545.994
545.824
545.673
545.537
545.417
545.306
545.201
545.099
545.001
544.904
544.807
544.709
544.615
544.527
544.435
544.343
544.25
544.156
544.06
543.962
543.862
543.759
543.654
543.547
543.439
543.329
543.219
543.108
542.997
542.885
542.773
542.66
542.547
542.434
542.321
542.207
542.093
541.98
541.866
541.752
541.637
541.523
541.409
541.295
541.18
541.066
540.951
540.837
540.722
540.607
552.641
552.81
552.951
553.058
553.132
553.18
553.206
553.218
553.217
553.208
553.193
553.174
553.151
553.124
553.093
553.055
553.01
552.961
552.906
552.843
552.772
552.692
552.609
552.523
552.439
552.358
552.284
552.218
552.159
552.109
552.068
552.035
552.01
551.992
551.98
551.974
551.972
551.972
551.972
551.971
551.964
551.947
551.918
551.872
551.808
551.721
551.604
551.451
551.26
551.034
550.785
550.524
550.248
549.956
549.662
549.375
549.104
548.847
548.595
548.345
548.087
547.818
547.54
547.262
546.994
546.742
546.511
546.292
546.076
545.87
545.68
545.511
545.371
545.254
545.158
545.073
544.992
544.913
544.836
544.761
544.687
544.614
544.547
544.482
544.398
544.309
544.221
544.132
544.041
543.947
543.85
543.749
543.646
543.54
543.433
543.324
543.214
543.104
542.993
542.882
542.77
542.658
542.545
542.432
542.319
542.206
542.092
541.978
541.865
541.751
541.637
541.523
541.408
541.294
541.18
541.065
540.951
540.836
540.722
540.607
552.726
553.057
553.336
553.553
553.712
553.823
553.897
553.944
553.969
553.978
553.974
553.959
553.936
553.903
553.856
553.792
553.714
553.626
553.531
553.426
553.307
553.175
553.036
552.893
552.752
552.617
552.492
552.381
552.285
552.205
552.14
552.09
552.053
552.029
552.017
552.014
552.019
552.027
552.037
552.047
552.051
552.045
552.024
551.983
551.918
551.826
551.703
551.543
551.342
551.111
550.859
550.595
550.317
550.025
549.723
549.418
549.141
548.88
548.616
548.351
548.071
547.774
547.455
547.114
546.783
546.485
546.23
545.999
545.763
545.536
545.334
545.166
545.048
544.954
544.893
544.845
544.792
544.732
544.67
544.614
544.566
544.52
544.483
544.46
544.365
544.276
544.191
544.106
544.02
543.931
543.837
543.739
543.638
543.534
543.427
543.319
543.21
543.101
542.99
542.879
542.767
542.655
542.543
542.43
542.318
542.204
542.091
541.977
541.864
541.75
541.636
541.522
541.408
541.294
541.179
541.065
540.951
540.836
540.722
540.607
552.857
553.431
553.913
554.286
554.56
554.755
554.893
554.987
555.046
555.077
555.084
555.073
555.047
555.005
554.932
554.82
554.679
554.525
554.361
554.189
553.997
553.787
553.567
553.341
553.115
552.896
552.693
552.51
552.354
552.227
552.127
552.051
551.997
551.961
551.944
551.942
551.951
551.964
551.978
551.991
551.999
551.997
551.978
551.934
551.858
551.752
551.621
551.453
551.239
551.007
550.762
550.512
550.256
549.993
549.708
549.39
549.15
548.93
548.678
548.412
548.114
547.818
547.485
547.053
546.613
546.239
545.966
545.741
545.461
545.191
544.964
544.788
544.733
544.653
544.645
544.658
544.632
544.586
544.523
544.482
544.462
544.442
544.423
544.428
544.331
544.242
544.16
544.08
543.999
543.915
543.825
543.73
543.63
543.528
543.422
543.315
543.207
543.098
542.987
542.877
542.765
542.654
542.542
542.429
542.316
542.203
542.09
541.977
541.863
541.749
541.636
541.522
541.408
541.293
541.179
541.065
540.951
540.836
540.722
540.607
553.053
553.981
554.744
555.326
555.75
556.056
556.279
556.434
556.539
556.592
556.606
556.592
556.555
556.498
556.386
556.186
555.945
555.689
555.416
555.143
554.855
554.545
554.223
553.894
553.56
553.235
552.925
552.641
552.395
552.197
552.051
551.945
551.868
551.811
551.776
551.763
551.767
551.77
551.768
551.763
551.748
551.725
551.688
551.618
551.508
551.37
551.23
551.054
550.805
550.57
550.324
550.114
549.914
549.728
549.507
549.219
549.052
548.864
548.66
548.353
548.022
547.739
547.41
546.898
546.411
546.031
545.748
545.509
545.209
544.933
544.706
544.503
544.506
544.44
544.456
544.456
544.48
544.453
544.457
544.429
544.408
544.404
544.367
544.412
544.3
544.209
544.13
544.055
543.98
543.899
543.813
543.721
543.624
543.523
543.418
543.312
543.204
543.095
542.985
542.875
542.764
542.652
542.54
542.428
542.315
542.203
542.089
541.976
541.863
541.749
541.635
541.521
541.407
541.293
541.179
541.065
540.951
540.836
540.722
540.607
553.347
554.776
555.906
556.744
557.354
557.812
558.154
558.389
558.552
558.607
558.599
558.558
558.469
558.37
558.194
557.831
557.464
557.091
556.642
556.235
555.847
555.43
555.002
554.577
554.146
553.733
553.322
552.912
552.534
552.221
552.023
551.892
551.789
551.689
551.602
551.537
551.505
551.47
551.404
551.324
551.214
551.121
551.025
550.87
550.705
550.534
550.388
550.218
549.972
549.716
549.5
549.316
549.173
549.073
548.965
548.847
548.815
548.688
548.536
548.152
547.737
547.47
547.169
546.648
546.167
545.87
545.617
545.393
545.108
544.872
544.687
544.479
544.442
544.317
544.33
544.32
544.299
544.354
544.353
544.479
544.471
544.468
544.371
544.377
544.265
544.177
544.102
544.033
543.962
543.886
543.804
543.714
543.619
543.519
543.415
543.309
543.202
543.093
542.984
542.873
542.763
542.651
542.539
542.427
542.315
542.202
542.089
541.976
541.862
541.749
541.635
541.521
541.407
541.293
541.179
541.065
540.951
540.836
540.722
540.607
553.809
555.905
557.468
558.6
559.45
560.156
560.655
560.976
561.198
561.137
561.015
560.894
560.644
560.396
560.104
559.44
559.042
558.603
557.843
557.319
556.869
556.379
555.879
555.419
554.955
554.609
554.233
553.734
553.155
552.595
552.33
552.18
552.048
551.847
551.639
551.398
551.222
551.109
550.883
550.599
550.318
550.064
549.885
549.67
549.466
549.298
549.103
548.862
548.603
548.376
548.114
548.065
548
547.97
547.946
547.983
548.084
548.195
548.194
547.823
547.362
547.014
546.673
546.328
545.785
545.685
545.474
545.307
545.089
544.955
544.816
544.699
544.603
544.468
544.366
544.357
544.313
544.385
544.343
544.535
544.462
544.532
544.334
544.247
544.227
544.145
544.078
544.015
543.949
543.877
543.797
543.709
543.615
543.516
543.413
543.308
543.2
543.092
542.983
542.873
542.762
542.651
542.539
542.427
542.314
542.202
542.089
541.976
541.862
541.749
541.635
541.521
541.407
541.293