0 	1.08887e-20 	0 	-3.62956e-20
0.010101 	-5.56791e-20 	2.03275e-22 	-1.20354e-19
0.020202 	4.75869e-20 	-1.6897e-22 	-1.61085e-19
0.030303 	-8.95503e-21 	-3.04487e-22 	-9.13873e-20
0.040404 	8.61486e-20 	2.02764e-22 	-5.8135e-20
0.0505051 	-4.6533e-20 	6.75881e-23 	4.21107e-20
