/*--------------------------------*- C++ -*----------------------------------*\
  =========                 |
  \\      /  F ield         | OpenFOAM: The Open Source CFD Toolbox
   \\    /   O peration     | Website:  https://openfoam.org
    \\  /    A nd           | Version:  6
     \\/     M anipulation  |
\*---------------------------------------------------------------------------*/
FoamFile
{
    version     2.0;
    format      ascii;
    class       surfaceScalarField;
    location    "1600";
    object      phi;
}
// * * * * * * * * * * * * * * * * * * * * * * * * * * * * * * * * * * * * * //

dimensions      [0 3 -1 0 0 0 0];

internalField   nonuniform List<scalar> 
9440
(
-7.89286e-14
7.89284e-14
-1.54803e-13
7.81346e-14
-2.28823e-13
7.58262e-14
-2.99275e-13
7.21842e-14
-3.64974e-13
6.74162e-14
-4.24947e-13
6.16778e-14
-4.78388e-13
5.51328e-14
-5.247e-13
4.79898e-14
-5.63437e-13
4.03996e-14
-5.94309e-13
3.25138e-14
-6.17237e-13
2.45458e-14
-6.32252e-13
1.66089e-14
-6.39513e-13
8.82669e-15
-6.3957e-13
1.59083e-15
-6.33137e-13
-4.92721e-15
-6.21216e-13
-1.04547e-14
-6.04256e-13
-1.55278e-14
-5.8111e-13
-2.17546e-14
-5.53972e-13
-2.57855e-14
-5.24577e-13
-2.8089e-14
-4.93903e-13
-2.9411e-14
-4.5841e-13
-3.42826e-14
-4.23218e-13
-3.40277e-14
-3.87533e-13
-3.45733e-14
-3.51476e-13
-3.49975e-14
-3.15865e-13
-3.46057e-14
-2.81146e-13
-3.37707e-14
-2.47553e-13
-3.27037e-14
-2.15349e-13
-3.13742e-14
-1.84666e-13
-2.99135e-14
-1.55675e-13
-2.82833e-14
-1.28424e-13
-2.6607e-14
-1.02981e-13
-2.48604e-14
-7.93032e-14
-2.3163e-14
-5.73416e-14
-2.15094e-14
-3.70967e-14
-1.98612e-14
-1.84177e-14
-1.8362e-14
-1.26131e-15
-1.69089e-14
1.45532e-14
-1.56324e-14
2.9095e-14
-1.44292e-14
4.25272e-14
-1.33879e-14
5.49046e-14
-1.24003e-14
6.64062e-14
-1.15935e-14
7.70925e-14
-1.08455e-14
8.7039e-14
-1.01738e-14
9.63898e-14
-9.64454e-15
1.05191e-13
-9.16349e-15
1.13455e-13
-8.69173e-15
1.21303e-13
-8.34059e-15
1.28703e-13
-7.95576e-15
1.35709e-13
-7.62524e-15
1.42289e-13
-7.26386e-15
1.48429e-13
-6.88589e-15
1.54082e-13
-6.4591e-15
1.59175e-13
-5.95824e-15
1.63766e-13
-5.51342e-15
1.6772e-13
-4.93161e-15
1.71022e-13
-4.33549e-15
1.73588e-13
-3.65352e-15
1.75382e-13
-2.93286e-15
1.76359e-13
-2.16487e-15
1.76492e-13
-1.36977e-15
1.75756e-13
-5.44001e-16
1.7412e-13
3.11714e-16
1.71586e-13
1.16702e-15
1.68234e-13
1.94832e-15
1.64064e-13
2.72984e-15
1.59159e-13
3.42941e-15
1.53693e-13
3.95855e-15
1.47819e-13
4.33764e-15
1.41763e-13
4.49241e-15
1.35883e-13
4.29116e-15
1.30881e-13
3.392e-15
1.28325e-13
9.24563e-16
1.32513e-13
-5.83638e-15
1.56346e-13
-2.54952e-14
2.40808e-13
-8.61362e-14
1.0237e-13
1.36753e-13
1.04694e-15
9.96311e-14
3.86803e-21
-3.12506e-20
3.43538e-21
-1.1839e-23
3.39635e-21
3.87224e-23
3.22037e-21
4.94757e-23
3.04335e-21
5.14403e-23
2.88055e-21
5.21641e-23
2.73321e-21
5.29396e-23
2.60071e-21
5.40252e-23
2.4819e-21
5.54211e-23
2.3754e-21
5.71789e-23
2.27935e-21
5.93502e-23
2.19213e-21
6.18835e-23
2.11174e-21
6.45201e-23
2.03642e-21
6.73635e-23
1.96461e-21
7.01036e-23
1.89507e-21
7.26368e-23
1.82678e-21
7.51183e-23
1.75879e-21
7.73414e-23
1.69065e-21
7.93059e-23
1.62184e-21
8.09603e-23
1.55215e-21
8.22011e-23
1.48133e-21
8.32351e-23
1.40957e-21
8.40622e-23
1.33626e-21
8.44758e-23
1.26202e-21
8.47343e-23
1.18664e-21
8.48377e-23
1.11044e-21
8.48377e-23
1.0333e-21
8.46309e-23
9.556e-22
8.4269e-23
8.77173e-22
8.37003e-23
7.98384e-22
8.31834e-23
7.19079e-22
8.26147e-23
6.39514e-22
8.19426e-23
5.59536e-22
8.14256e-23
4.79661e-22
8.08569e-23
3.99735e-22
8.03916e-23
3.19602e-22
7.98746e-23
2.39521e-22
7.94093e-23
1.59542e-22
7.90992e-23
7.94093e-23
7.86856e-23
7.81169e-23
-7.93622e-14
1.60553e-13
-1.57225e-13
1.59602e-13
-2.32943e-13
1.5468e-13
-3.04762e-13
1.47071e-13
-3.71544e-13
1.3724e-13
-4.32379e-13
1.25535e-13
-4.86507e-13
1.12253e-13
-5.33271e-13
9.77182e-14
-5.7221e-13
8.22631e-14
-6.03102e-13
6.62905e-14
-6.25841e-13
5.01232e-14
-6.405e-13
3.40606e-14
-6.4723e-13
1.8291e-14
-6.46641e-13
3.6782e-15
-6.39545e-13
-9.4092e-15
-6.27278e-13
-2.01739e-14
-6.09094e-13
-3.12364e-14
-5.8507e-13
-4.33755e-14
-5.57263e-13
-5.12677e-14
-5.27447e-13
-5.56623e-14
-4.95488e-13
-5.92113e-14
-4.59667e-13
-6.80333e-14
-4.23858e-13
-6.78603e-14
-3.87692e-13
-6.88583e-14
-3.51095e-13
-6.9814e-14
-3.15162e-13
-6.88583e-14
-2.80117e-13
-6.72371e-14
-2.4628e-13
-6.50689e-14
-2.1384e-13
-6.24544e-14
-1.83035e-13
-5.94684e-14
-1.53959e-13
-5.62221e-14
-1.26713e-13
-5.2833e-14
-1.01236e-13
-4.94316e-14
-7.76246e-14
-4.59856e-14
-5.57685e-14
-4.26963e-14
-3.55674e-14
-3.95131e-14
-1.69878e-14
-3.65138e-14
5.99133e-17
-3.36459e-14
1.57589e-14
-3.11435e-14
3.02036e-14
-2.88085e-14
4.34647e-14
-2.67035e-14
5.57653e-14
-2.48792e-14
6.7136e-14
-2.32619e-14
7.77008e-14
-2.18291e-14
8.76192e-14
-2.06305e-14
9.68759e-14
-1.95632e-14
1.05638e-13
-1.86992e-14
1.13907e-13
-1.78539e-14
1.21727e-13
-1.71726e-14
1.29116e-13
-1.64661e-14
1.36102e-13
-1.58466e-14
1.42685e-13
-1.51908e-14
1.48823e-13
-1.44741e-14
1.54515e-13
-1.37096e-14
1.59707e-13
-1.28122e-14
1.64345e-13
-1.19106e-14
1.68385e-13
-1.0829e-14
1.71726e-13
-9.62644e-15
1.74314e-13
-8.28366e-15
1.76173e-13
-6.92136e-15
1.77193e-13
-5.40013e-15
1.7737e-13
-3.8421e-15
1.76626e-13
-2.17403e-15
1.74965e-13
-4.74275e-16
1.72413e-13
1.20394e-15
1.68975e-13
2.80606e-15
1.64718e-13
4.34434e-15
1.59729e-13
5.71914e-15
1.54114e-13
6.82077e-15
1.48021e-13
7.63297e-15
1.41568e-13
8.10218e-15
1.34983e-13
7.9909e-15
1.28477e-13
6.97856e-15
1.21985e-13
4.47029e-15
1.13982e-13
-8.0634e-16
9.64398e-14
-1.09476e-14
3.48379e-14
-2.75437e-14
3.50825e-14
1.33485e-13
8.10166e-16
1.3152e-13
3.86723e-21
-4.53434e-20
3.486e-21
-1.73191e-23
3.40705e-21
5.32497e-24
3.22233e-21
2.18686e-23
3.04413e-21
3.59307e-23
2.88138e-21
4.90622e-23
2.7343e-21
6.19352e-23
2.6021e-21
7.4498e-23
2.48371e-21
8.6854e-23
2.37758e-21
9.87447e-23
2.28183e-21
1.10067e-22
2.19482e-21
1.20665e-22
2.11453e-21
1.30436e-22
2.03916e-21
1.39277e-22
1.96714e-21
1.47186e-22
1.89755e-21
1.54166e-22
1.829e-21
1.60111e-22
1.76076e-21
1.64867e-22
1.69236e-21
1.68745e-22
1.62314e-21
1.71847e-22
1.55319e-21
1.74173e-22
1.48215e-21
1.75569e-22
1.40993e-21
1.76345e-22
1.33652e-21
1.76551e-22
1.26207e-21
1.76189e-22
1.18659e-21
1.75466e-22
1.11023e-21
1.74432e-22
1.03289e-21
1.73036e-22
9.55084e-22
1.71485e-22
8.76656e-22
1.69882e-22
7.97764e-22
1.68073e-22
7.18458e-22
1.66263e-22
6.38894e-22
1.64609e-22
5.59019e-22
1.62851e-22
4.79144e-22
1.61352e-22
3.99166e-22
1.59956e-22
3.19188e-22
1.58819e-22
2.39159e-22
1.57836e-22
1.59077e-22
1.56958e-22
7.89441e-23
1.56389e-22
1.5613e-22
-8.34104e-14
2.4577e-13
-1.63037e-13
2.42354e-13
-2.4034e-13
2.34697e-13
-3.13798e-13
2.2319e-13
-3.82212e-13
2.08295e-13
-4.44504e-13
1.90448e-13
-4.99784e-13
1.70135e-13
-5.4742e-13
1.47924e-13
-5.86956e-13
1.24342e-13
-6.18074e-13
9.99153e-14
-6.40728e-13
7.52459e-14
-6.54975e-13
5.07327e-14
-6.6107e-13
2.67646e-14
-6.59594e-13
4.5274e-15
-6.51577e-13
-1.51549e-14
-6.38625e-13
-3.09086e-14
-6.18408e-13
-4.92967e-14
-5.92733e-13
-6.69618e-14
-5.63797e-13
-7.81803e-14
-5.33237e-13
-8.42695e-14
-4.98574e-13
-9.19964e-14
-4.62054e-13
-1.02754e-13
-4.25057e-13
-1.03137e-13
-3.87883e-13
-1.04394e-13
-3.50248e-13
-1.05892e-13
-3.13629e-13
-1.04011e-13
-2.77955e-13
-1.01537e-13
-2.43631e-13
-9.81097e-14
-2.10863e-13
-9.40313e-14
-1.79829e-13
-8.94109e-14
-1.50633e-13
-8.44192e-14
-1.23293e-13
-7.9276e-14
-9.78609e-14
-7.40673e-14
-7.42958e-14
-6.8856e-14
-5.25734e-14
-6.38277e-14
-3.25682e-14
-5.90309e-14
-1.42035e-14
-5.44928e-14
2.62341e-15
-5.01949e-14
1.81023e-14
-4.64483e-14
3.23059e-14
-4.29459e-14
4.53788e-14
-3.98155e-14
5.73891e-14
-3.70328e-14
6.85586e-14
-3.46812e-14
7.89522e-14
-3.25758e-14
8.86947e-14
-3.08315e-14
9.78125e-14
-2.92426e-14
1.0643e-13
-2.79787e-14
1.1461e-13
-2.67994e-14
1.22353e-13
-2.5779e-14
1.2976e-13
-2.48356e-14
1.36753e-13
-2.39015e-14
1.43385e-13
-2.2979e-14
1.49596e-13
-2.1937e-14
1.55377e-13
-2.08334e-14
1.60626e-13
-1.94916e-14
1.65427e-13
-1.82284e-14
1.69566e-13
-1.65708e-14
1.73029e-13
-1.4773e-14
1.75765e-13
-1.27843e-14
1.77693e-13
-1.06887e-14
1.78792e-13
-8.4135e-15
1.78994e-13
-6.02987e-15
1.7827e-13
-3.50064e-15
1.76625e-13
-9.44311e-16
1.74008e-13
1.64536e-15
1.70443e-13
4.13921e-15
1.66033e-13
6.46876e-15
1.60836e-13
8.57912e-15
1.5494e-13
1.03356e-14
1.48449e-13
1.16996e-14
1.41415e-13
1.26748e-14
1.34009e-13
1.29014e-14
1.25984e-13
1.24752e-14
1.16649e-13
1.12509e-14
1.03603e-13
9.66427e-15
8.02054e-14
9.85574e-15
2.98357e-14
2.0218e-14
2.11912e-14
1.39512e-13
7.72606e-16
1.4984e-13
3.86712e-21
-6.73798e-20
3.50869e-21
-2.56426e-23
3.4236e-21
-1.08568e-24
3.2364e-21
2.17135e-23
3.05721e-21
4.40991e-23
2.89425e-21
6.61228e-23
2.74686e-21
8.75778e-23
2.61441e-21
1.08671e-22
2.49566e-21
1.28833e-22
2.3889e-21
1.4822e-22
2.29238e-21
1.66418e-22
2.20459e-21
1.83221e-22
2.12342e-21
1.98575e-22
2.04707e-21
2.12327e-22
1.97417e-21
2.24373e-22
1.90345e-21
2.34764e-22
1.83381e-21
2.43605e-22
1.76463e-21
2.50791e-22
1.69541e-21
2.56529e-22
1.62546e-21
2.60769e-22
1.55458e-21
2.63871e-22
1.48298e-21
2.65783e-22
1.41014e-21
2.66662e-22
1.33616e-21
2.66662e-22
1.26135e-21
2.65939e-22
1.18561e-21
2.64594e-22
1.10884e-21
2.62578e-22
1.03139e-21
2.60407e-22
9.53481e-22
2.57925e-22
8.74899e-22
2.55237e-22
7.95955e-22
2.52445e-22
7.16804e-22
2.49653e-22
6.37136e-22
2.46862e-22
5.5752e-22
2.44328e-22
4.778e-22
2.41847e-22
3.98081e-22
2.39727e-22
3.18154e-22
2.37763e-22
2.38331e-22
2.36212e-22
1.58509e-22
2.35126e-22
7.86856e-23
2.34351e-22
2.33989e-22
-8.69975e-14
3.34498e-13
-1.70716e-13
3.29127e-13
-2.5176e-13
3.18393e-13
-3.2857e-13
3.02606e-13
-3.99857e-13
2.82166e-13
-4.64576e-13
2.57735e-13
-5.21806e-13
2.29906e-13
-5.70822e-13
1.99457e-13
-6.11139e-13
1.67148e-13
-6.42522e-13
1.33752e-13
-6.64893e-13
1.00032e-13
-6.78285e-13
6.64954e-14
-6.83239e-13
3.40471e-14
-6.80104e-13
3.67404e-15
-6.70455e-13
-2.25812e-14
-6.5619e-13
-4.30031e-14
-6.32625e-13
-7.07537e-14
-6.04455e-13
-9.30865e-14
-5.73615e-13
-1.07041e-13
-5.42236e-13
-1.13738e-13
-5.02856e-13
-1.29536e-13
-4.65579e-13
-1.38268e-13
-4.26794e-13
-1.40238e-13
-3.87894e-13
-1.41691e-13
-3.48874e-13
-1.43392e-13
-3.11187e-13
-1.40266e-13
-2.74614e-13
-1.3676e-13
-2.3959e-13
-1.31876e-13
-2.06277e-13
-1.26182e-13
-1.74919e-13
-1.19698e-13
-1.45492e-13
-1.1287e-13
-1.18079e-13
-1.0581e-13
-9.27107e-14
-9.86551e-14
-6.92752e-14
-9.16125e-14
-4.77549e-14
-8.47664e-14
-2.80337e-14
-7.82752e-14
-1.00094e-14
-7.21404e-14
6.49258e-15
-6.64232e-14
2.158e-14
-6.13667e-14
3.54016e-14
-5.67e-14
4.81252e-14
-5.2575e-14
5.98385e-14
-4.88847e-14
7.06528e-14
-4.57363e-14
8.07485e-14
-4.30171e-14
9.01949e-14
-4.07273e-14
9.91255e-14
-3.87199e-14
1.07581e-13
-3.70841e-14
1.15629e-13
-3.5596e-14
1.23308e-13
-3.43037e-14
1.30658e-13
-3.3128e-14
1.37683e-13
-3.19652e-14
1.44337e-13
-3.0763e-14
1.50673e-13
-2.94964e-14
1.566e-13
-2.80721e-14
1.6206e-13
-2.63528e-14
1.66996e-13
-2.46504e-14
1.71297e-13
-2.24402e-14
1.74965e-13
-2.00903e-14
1.77882e-13
-1.74274e-14
1.79998e-13
-1.46022e-14
1.81217e-13
-1.15077e-14
1.8152e-13
-8.2719e-15
1.80836e-13
-4.82626e-15
1.79141e-13
-1.31997e-15
1.76452e-13
2.20346e-15
1.72767e-13
5.63881e-15
1.68154e-13
8.84624e-15
1.62646e-13
1.18011e-14
1.56328e-13
1.4322e-14
1.49307e-13
1.63452e-14
1.41712e-13
1.78593e-14
1.33536e-13
1.86349e-14
1.24749e-13
1.87893e-14
1.14964e-13
1.85366e-14
1.03445e-13
1.86642e-14
9.00051e-14
2.07555e-14
7.99055e-14
2.77638e-14
1.76648e-14
1.99191e-13
7.60577e-16
1.64694e-13
3.92005e-21
-9.03698e-20
3.5333e-21
-3.45865e-23
3.44645e-21
-4.08421e-24
3.25868e-21
2.60562e-23
3.07928e-21
5.63517e-23
2.91571e-21
8.67506e-23
2.76795e-21
1.16632e-22
2.63457e-21
1.45739e-22
2.51504e-21
1.73811e-22
2.40704e-21
2.00281e-22
2.30923e-21
2.25045e-22
2.21989e-21
2.47896e-22
2.13718e-21
2.68627e-22
2.05916e-21
2.86825e-22
1.98456e-21
3.02955e-22
1.91223e-21
3.16707e-22
1.84099e-21
3.28287e-22
1.77043e-21
3.37748e-22
1.6997e-21
3.45089e-22
1.62846e-21
3.5057e-22
1.55655e-21
3.54447e-22
1.48381e-21
3.56618e-22
1.41008e-21
3.57445e-22
1.33548e-21
3.5729e-22
1.26e-21
3.5605e-22
1.1837e-21
3.54085e-22
1.10666e-21
3.51397e-22
1.02886e-21
3.48088e-22
9.50741e-22
3.44624e-22
8.72107e-22
3.40695e-22
7.93163e-22
3.36973e-22
7.14012e-22
3.33044e-22
6.34603e-22
3.29218e-22
5.5509e-22
3.25599e-22
4.75577e-22
3.22394e-22
3.96116e-22
3.19447e-22
3.16603e-22
3.16862e-22
2.37194e-22
3.14794e-22
1.57733e-22
3.13243e-22
7.83237e-23
3.12209e-22
3.11847e-22
-9.22555e-14
4.28462e-13
-1.81391e-13
4.21278e-13
-2.67602e-13
4.0723e-13
-3.49029e-13
3.86608e-13
-4.24407e-13
3.60105e-13
-4.92496e-13
3.28363e-13
-5.52351e-13
2.92278e-13
-6.03181e-13
2.52779e-13
-6.44563e-13
2.10991e-13
-6.76199e-13
1.67815e-13
-6.98014e-13
1.24239e-13
-7.10193e-13
8.10221e-14
-7.1357e-13
3.97239e-14
-7.0803e-13
3.87196e-16
-6.96699e-13
-3.17098e-14
-6.78751e-13
-5.88078e-14
-6.51648e-13
-9.57697e-14
-6.20641e-13
-1.22067e-13
-5.87298e-13
-1.38428e-13
-5.52682e-13
-1.46462e-13
-5.09435e-13
-1.70963e-13
-4.69919e-13
-1.76042e-13
-4.28791e-13
-1.797e-13
-3.87403e-13
-1.8149e-13
-3.46848e-13
-1.82441e-13
-3.07585e-13
-1.78108e-13
-2.69826e-13
-1.73189e-13
-2.33837e-13
-1.6662e-13
-1.99898e-13
-1.58971e-13
-1.68061e-13
-1.50477e-13
-1.38387e-13
-1.41578e-13
-1.1096e-13
-1.32369e-13
-8.56733e-14
-1.23171e-13
-6.24657e-14
-1.14146e-13
-4.12634e-14
-1.05397e-13
-2.19253e-14
-9.71422e-14
-4.37539e-15
-8.93189e-14
1.16688e-14
-8.21977e-14
2.62903e-14
-7.58195e-14
3.95625e-14
-6.99069e-14
5.17611e-14
-6.48087e-14
6.29849e-14
-6.02477e-14
7.33666e-14
-5.63596e-14
8.30838e-14
-5.30772e-14
9.21981e-14
-5.02832e-14
1.00836e-13
-4.79014e-14
1.09022e-13
-4.5912e-14
1.16925e-13
-4.42407e-14
1.24502e-13
-4.27184e-14
1.3182e-13
-4.13799e-14
1.38901e-13
-4.00717e-14
1.45654e-13
-3.86326e-14
1.52138e-13
-3.71918e-14
1.5822e-13
-3.5452e-14
1.63909e-13
-3.3428e-14
1.69086e-13
-3.12967e-14
1.7369e-13
-2.85919e-14
1.77612e-13
-2.56416e-14
1.80802e-13
-2.23242e-14
1.83104e-13
-1.86843e-14
1.84485e-13
-1.47413e-14
1.84924e-13
-1.06329e-14
1.84296e-13
-6.18468e-15
1.82629e-13
-1.70139e-15
1.79843e-13
2.88231e-15
1.75969e-13
7.3519e-15
1.71047e-13
1.15541e-14
1.65162e-13
1.54227e-14
1.58395e-13
1.87833e-14
1.5074e-13
2.16548e-14
1.4249e-13
2.37239e-14
1.33676e-13
2.50317e-14
1.24523e-13
2.54959e-14
1.15143e-13
2.54454e-14
1.05861e-13
2.54508e-14
9.76431e-14
2.64614e-14
8.85311e-14
3.43524e-14
1.73758e-14
2.6781e-13
7.52057e-16
1.79296e-13
3.86712e-21
-1.14525e-19
3.5638e-21
-4.37372e-23
3.47659e-21
-5.89367e-24
3.28903e-21
3.21049e-23
3.10963e-21
7.08273e-23
2.94559e-21
1.09601e-22
2.79706e-21
1.47962e-22
2.66269e-21
1.85288e-22
2.54156e-21
2.21167e-22
2.43181e-21
2.5503e-22
2.33213e-21
2.86463e-22
2.24057e-21
3.15156e-22
2.15537e-21
3.41005e-22
2.07524e-21
3.64011e-22
1.99837e-21
3.83864e-22
1.92382e-21
4.00872e-22
1.85045e-21
4.15038e-22
1.77771e-21
4.26463e-22
1.70518e-21
4.35356e-22
1.63229e-21
4.41663e-22
1.55877e-21
4.46057e-22
1.48463e-21
4.48487e-22
1.40993e-21
4.49418e-22
1.33429e-21
4.48694e-22
1.25804e-21
4.46833e-22
1.18096e-21
4.43938e-22
1.10336e-21
4.40215e-22
1.02539e-21
4.35976e-22
9.46863e-22
4.31271e-22
8.68333e-22
4.26412e-22
7.89234e-22
4.21293e-22
7.10135e-22
4.1633e-22
6.30984e-22
4.11471e-22
5.51833e-22
4.06921e-22
4.72682e-22
4.02682e-22
3.9348e-22
3.99011e-22
3.14587e-22
3.95858e-22
2.35643e-22
3.93324e-22
1.56699e-22
3.91308e-22
7.79618e-23
3.90067e-22
3.89602e-22
-9.93248e-14
5.2948e-13
-1.95403e-13
5.20334e-13
-2.88138e-13
5.0256e-13
-3.75581e-13
4.76596e-13
-4.56167e-13
4.43218e-13
-5.28579e-13
4.03284e-13
-5.91754e-13
3.5794e-13
-6.44985e-13
3.08471e-13
-6.87643e-13
2.56081e-13
-7.19511e-13
2.02081e-13
-7.40514e-13
1.47603e-13
-7.51261e-13
9.40865e-14
-7.51963e-13
4.26996e-14
-7.43748e-13
-5.60063e-15
-7.31262e-13
-4.20221e-14
-7.06035e-13
-8.19143e-14
-6.75266e-13
-1.24481e-13
-6.40812e-13
-1.54521e-13
-6.05151e-13
-1.72155e-13
-5.63143e-13
-1.86606e-13
-5.18013e-13
-2.14296e-13
-4.74709e-13
-2.17625e-13
-4.30724e-13
-2.2204e-13
-3.86221e-13
-2.24428e-13
-3.4379e-13
-2.23386e-13
-3.02557e-13
-2.17942e-13
-2.63319e-13
-2.1111e-13
-2.26226e-13
-2.02485e-13
-1.91497e-13
-1.92561e-13
-1.59119e-13
-1.8181e-13
-1.2923e-13
-1.70513e-13
-1.01747e-13
-1.58995e-13
-7.66147e-14
-1.4754e-13
-5.37542e-14
-1.36339e-13
-3.29677e-14
-1.25621e-13
-1.42033e-14
-1.15438e-13
2.71603e-15
-1.05874e-13
1.81705e-14
-9.73862e-14
3.20717e-14
-8.95558e-14
4.47374e-14
-8.25088e-14
5.62578e-14
-7.63636e-14
6.69127e-14
-7.10403e-14
7.67187e-14
-6.64008e-14
8.58949e-14
-6.25916e-14
9.45386e-14
-5.93634e-14
1.0281e-13
-5.67104e-14
1.10705e-13
-5.44435e-14
1.18351e-13
-5.26179e-14
1.25854e-13
-5.10493e-14
1.33135e-13
-4.95817e-14
1.40225e-13
-4.81758e-14
1.47164e-13
-4.66781e-14
1.53855e-13
-4.50796e-14
1.60167e-13
-4.30451e-14
1.66173e-13
-4.08019e-14
1.71704e-13
-3.82792e-14
1.76618e-13
-3.50378e-14
1.80915e-13
-3.15493e-14
1.84456e-13
-2.75527e-14
1.87094e-13
-2.3081e-14
1.88705e-13
-1.81832e-14
1.8934e-13
-1.31636e-14
1.88868e-13
-7.67467e-15
1.87149e-13
-2.00725e-15
1.84273e-13
3.67678e-15
1.8017e-13
9.32017e-15
1.74944e-13
1.45941e-14
1.68612e-13
1.95195e-14
1.61196e-13
2.39204e-14
1.52904e-13
2.76249e-14
1.43799e-13
3.04766e-14
1.34183e-13
3.22589e-14
1.24419e-13
3.28391e-14
1.15158e-13
3.22659e-14
1.07432e-13
3.0713e-14
1.02155e-13
2.92549e-14
8.38836e-14
5.01287e-14
5.75969e-15
3.43432e-13
7.40117e-16
1.82315e-13
3.92002e-21
-1.37832e-19
3.6017e-21
-5.27845e-23
3.51454e-21
-6.66915e-24
3.32775e-21
3.98081e-23
3.1484e-21
8.72676e-23
2.98395e-21
1.34934e-22
2.83444e-21
1.82031e-22
2.69847e-21
2.27785e-22
2.57538e-21
2.71522e-22
2.46324e-21
3.12623e-22
2.36083e-21
3.50776e-22
2.26642e-21
3.85518e-22
2.17838e-21
4.16589e-22
2.09515e-21
4.43989e-22
2.01532e-21
4.67719e-22
1.93793e-21
4.8783e-22
1.86188e-21
5.04322e-22
1.78666e-21
5.17505e-22
1.71154e-21
5.27586e-22
1.63668e-21
5.34979e-22
1.5612e-21
5.39529e-22
1.48551e-21
5.42114e-22
1.40921e-21
5.42527e-22
1.33243e-21
5.41235e-22
1.25514e-21
5.38495e-22
1.17723e-21
5.34617e-22
1.09906e-21
5.29809e-22
1.02079e-21
5.24381e-22
9.41952e-22
5.18435e-22
8.63215e-22
5.12335e-22
7.84219e-22
5.05924e-22
7.05378e-22
4.99772e-22
6.26434e-22
4.93827e-22
5.47645e-22
4.88192e-22
4.69011e-22
4.83022e-22
3.90326e-22
4.78369e-22
3.12002e-22
4.74543e-22
2.33627e-22
4.7139e-22
1.55407e-22
4.69167e-22
7.75482e-23
4.67771e-22
4.6715e-22
-1.08285e-13
6.39436e-13
-2.13101e-13
6.28085e-13
-3.14076e-13
6.06089e-13
-4.08991e-13
5.74016e-13
-4.96047e-13
5.32765e-13
-5.73872e-13
4.83581e-13
-6.41237e-13
4.27756e-13
-6.97272e-13
3.66932e-13
-7.41438e-13
3.02642e-13
-7.73391e-13
2.36401e-13
-7.9336e-13
1.69897e-13
-8.02383e-13
1.05398e-13
-7.98904e-13
4.14616e-14
-7.89023e-13
-1.32896e-14
-7.727e-13
-5.62032e-14
-7.39638e-13
-1.12889e-13
-7.04084e-13
-1.58005e-13
-6.64865e-13
-1.91771e-13
-6.2769e-13
-2.07424e-13
-5.73605e-13
-2.38852e-13
-5.2803e-13
-2.58102e-13
-4.79856e-13
-2.64103e-13
-4.32186e-13
-2.6809e-13
-3.84009e-13
-2.71063e-13
-3.39188e-13
-2.66747e-13
-2.95756e-13
-2.59993e-13
-2.54787e-13
-2.50784e-13
-2.1641e-13
-2.39654e-13
-1.8073e-13
-2.27123e-13
-1.47881e-13
-2.1363e-13
-1.17754e-13
-1.99703e-13
-9.03266e-14
-1.85577e-13
-6.54468e-14
-1.71668e-13
-4.30265e-14
-1.58107e-13
-2.28687e-14
-1.45221e-13
-4.77299e-15
-1.33076e-13
1.14065e-14
-1.21693e-13
2.59766e-14
-1.11695e-13
3.91013e-14
-1.02517e-13
5.09068e-14
-9.425e-14
6.16416e-14
-8.71348e-14
7.15209e-14
-8.10537e-14
8.06365e-14
-7.57493e-14
8.91161e-14
-7.1406e-14
9.72136e-14
-6.78928e-14
1.04991e-13
-6.50161e-14
1.12595e-13
-6.26704e-14
1.19978e-13
-6.07236e-14
1.27303e-13
-5.9189e-14
1.3456e-13
-5.77464e-14
1.41743e-13
-5.63585e-14
1.48802e-13
-5.48264e-14
1.55728e-13
-5.31838e-14
1.62357e-13
-5.09385e-14
1.6882e-13
-4.86145e-14
1.74725e-13
-4.56129e-14
1.80197e-13
-4.20219e-14
1.8493e-13
-3.78685e-14
1.88915e-13
-3.32004e-14
1.91937e-13
-2.7839e-14
1.93972e-13
-2.20212e-14
1.94835e-13
-1.5896e-14
1.94445e-13
-9.21813e-15
1.92824e-13
-2.38103e-15
1.89822e-13
4.62957e-15
1.85518e-13
1.15203e-14
1.79918e-13
1.80389e-14
1.73031e-13
2.42078e-14
1.64924e-13
2.97811e-14
1.55699e-13
3.45655e-14
1.45569e-13
3.82858e-14
1.34798e-13
4.06758e-14
1.23795e-13
4.146e-14
1.13649e-13
4.00051e-14
1.05844e-13
3.609e-14
1.02185e-13
3.0468e-14
6.54582e-15
1.43308e-13
3.1684e-15
3.44342e-13
7.27221e-16
1.8279e-13
3.91996e-21
-1.61245e-19
3.64782e-21
-6.18835e-23
3.56101e-21
-6.56575e-24
3.37521e-21
4.89588e-23
3.19607e-21
1.05931e-22
3.0311e-21
1.6311e-22
2.88014e-21
2.19358e-22
2.74231e-21
2.739e-22
2.61648e-21
3.25754e-22
2.50139e-21
3.74403e-22
2.39557e-21
4.19226e-22
2.29755e-21
4.59861e-22
2.20578e-21
4.96153e-22
2.11877e-21
5.27948e-22
2.03548e-21
5.55193e-22
1.95442e-21
5.77993e-22
1.87506e-21
5.96656e-22
1.79674e-21
6.1139e-22
1.71888e-21
6.22505e-22
1.64128e-21
6.3026e-22
1.56373e-21
6.35068e-22
1.48598e-21
6.37188e-22
1.40791e-21
6.37084e-22
1.32974e-21
6.34913e-22
1.25127e-21
6.31139e-22
1.17248e-21
6.26021e-22
1.09364e-21
6.20075e-22
1.0148e-21
6.13354e-22
9.35852e-22
6.06013e-22
8.56856e-22
5.98465e-22
7.78067e-22
5.90866e-22
6.9933e-22
5.83317e-22
6.20799e-22
5.7608e-22
5.42527e-22
5.69462e-22
4.64359e-22
5.63362e-22
3.86448e-22
5.58088e-22
3.089e-22
5.53487e-22
2.31404e-22
5.49765e-22
1.54062e-22
5.46973e-22
7.68761e-23
5.45267e-22
5.44647e-22
-1.19413e-13
7.60496e-13
-2.35027e-13
7.46579e-13
-3.46125e-13
7.19699e-13
-4.50213e-13
6.80567e-13
-5.45264e-13
6.30264e-13
-6.29621e-13
5.70369e-13
-7.02016e-13
5.02556e-13
-7.61423e-13
4.28722e-13
-8.07215e-13
3.5079e-13
-8.39097e-13
2.70602e-13
-8.58495e-13
1.91583e-13
-8.63274e-13
1.12419e-13
-8.56393e-13
3.67834e-14
-8.46153e-13
-2.13726e-14
-8.18142e-13
-8.21114e-14
-7.80337e-13
-1.48644e-13
-7.3831e-13
-1.98035e-13
-6.95236e-13
-2.3291e-13
-6.49167e-13
-2.51621e-13
-5.87664e-13
-2.9855e-13
-5.38471e-13
-3.05561e-13
-4.84939e-13
-3.15972e-13
-4.3211e-13
-3.19329e-13
-3.8082e-13
-3.20839e-13
-3.32561e-13
-3.1357e-13
-2.8666e-13
-3.04542e-13
-2.43707e-13
-2.92464e-13
-2.03924e-13
-2.78251e-13
-1.67355e-13
-2.6259e-13
-1.33934e-13
-2.46038e-13
-1.03681e-13
-2.29033e-13
-7.63909e-14
-2.12037e-13
-5.19717e-14
-1.95353e-13
-3.01291e-14
-1.79307e-13
-1.07313e-14
-1.64074e-13
6.36933e-15
-1.49726e-13
2.16723e-14
-1.36639e-13
3.52005e-14
-1.24965e-13
4.72315e-14
-1.14388e-13
5.80676e-14
-1.05021e-13
6.77521e-14
-9.68545e-14
7.66519e-14
-9.00854e-14
8.49636e-14
-8.42921e-14
9.27285e-14
-7.94991e-14
1.00079e-13
-7.56666e-14
1.07319e-13
-7.27775e-14
1.1449e-13
-7.04551e-14
1.21615e-13
-6.85555e-14
1.28697e-13
-6.70718e-14
1.35936e-13
-6.58793e-14
1.43215e-13
-6.46195e-14
1.50571e-13
-6.32516e-14
1.57741e-13
-6.15115e-14
1.64877e-13
-5.93153e-14
1.71817e-13
-5.68818e-14
1.78242e-13
-5.34474e-14
1.84262e-13
-4.95242e-14
1.89645e-13
-4.48111e-14
1.94194e-13
-3.93807e-14
1.97741e-13
-3.30912e-14
2.00266e-13
-2.63184e-14
2.01485e-13
-1.89516e-14
2.01316e-13
-1.0951e-14
1.99707e-13
-2.72991e-15
1.96649e-13
5.67273e-15
1.92146e-13
1.39534e-14
1.86103e-13
2.19647e-14
1.78575e-13
2.95707e-14
1.69664e-13
3.64868e-14
1.59439e-13
4.25426e-14
1.47993e-13
4.74503e-14
1.35519e-13
5.08375e-14
1.22376e-13
5.22623e-14
1.09553e-13
5.04629e-14
1.00651e-13
4.2607e-14
1.08406e-13
2.03093e-14
-2.42282e-14
2.73528e-13
5.1671e-15
3.12521e-13
7.12715e-16
1.85313e-13
4.13171e-21
-1.83915e-19
3.70308e-21
-7.09825e-23
3.61659e-21
-5.42838e-24
3.43218e-21
6.03325e-23
3.25325e-21
1.27334e-22
3.08735e-21
1.94439e-22
2.93468e-21
2.60459e-22
2.79411e-21
3.241e-22
2.66507e-21
3.84536e-22
2.54622e-21
4.40887e-22
2.4362e-21
4.92534e-22
2.33384e-21
5.39115e-22
2.23758e-21
5.80422e-22
2.14602e-21
6.16198e-22
2.05823e-21
6.46855e-22
1.97314e-21
6.72239e-22
1.8898e-21
6.92764e-22
1.8078e-21
7.0879e-22
1.72658e-21
7.20474e-22
1.64609e-21
7.28436e-22
1.5659e-21
7.32985e-22
1.48588e-21
7.34381e-22
1.40574e-21
7.33347e-22
1.32592e-21
7.30245e-22
1.24615e-21
7.25179e-22
1.16643e-21
7.18717e-22
1.08697e-21
7.11169e-22
1.0074e-21
7.02845e-22
9.28304e-22
6.94056e-22
8.49256e-22
6.85009e-22
7.70519e-22
6.76013e-22
6.92195e-22
6.67173e-22
6.1413e-22
6.58694e-22
5.36427e-22
6.50888e-22
4.59034e-22
6.43753e-22
3.81847e-22
6.37498e-22
3.05178e-22
6.32276e-22
2.28612e-22
6.27985e-22
1.52408e-22
6.24883e-22
7.62557e-23
6.23074e-22
6.22453e-22
-1.32985e-13
8.95098e-13
-2.61793e-13
8.78209e-13
-3.8523e-13
8.45593e-13
-5.00458e-13
7.98209e-13
-6.05164e-13
7.37365e-13
-6.97399e-13
6.64982e-13
-7.75717e-13
5.83231e-13
-8.38993e-13
4.94331e-13
-8.86395e-13
4.00498e-13
-9.19166e-13
3.05648e-13
-9.3587e-13
2.10523e-13
-9.3534e-13
1.1409e-13
-9.28403e-13
3.20008e-14
-9.1095e-13
-3.67172e-14
-8.70193e-13
-1.20804e-13
-8.27982e-13
-1.88846e-13
-7.79048e-13
-2.45016e-13
-7.31916e-13
-2.78147e-13
-6.64826e-13
-3.16877e-13
-6.07779e-13
-3.53827e-13
-5.48015e-13
-3.63621e-13
-4.89264e-13
-3.7309e-13
-4.301e-13
-3.76936e-13
-3.7567e-13
-3.73785e-13
-3.23406e-13
-3.64426e-13
-2.74686e-13
-3.51935e-13
-2.29644e-13
-3.36258e-13
-1.8835e-13
-3.18385e-13
-1.50821e-13
-2.99041e-13
-1.16995e-13
-2.78875e-13
-8.66969e-14
-2.58429e-13
-5.97643e-14
-2.38155e-13
-3.59177e-14
-2.18478e-13
-1.49609e-14
-1.99634e-13
3.38818e-15
-1.81887e-13
1.93966e-14
-1.65294e-13
3.35841e-14
-1.50477e-13
4.57323e-14
-1.36861e-13
5.65166e-14
-1.25015e-13
6.61122e-14
-1.14558e-13
7.46957e-14
-1.05475e-13
8.23943e-14
-9.79143e-14
8.964e-14
-9.17656e-14
9.65573e-14
-8.67393e-14
1.03188e-13
-8.27139e-14
1.09683e-13
-7.9784e-14
1.16292e-13
-7.76685e-14
1.2311e-13
-7.60696e-14
1.30053e-13
-7.48023e-14
1.37169e-13
-7.38707e-14
1.44603e-13
-7.3017e-14
1.52177e-13
-7.18735e-14
1.59739e-13
-7.02071e-14
1.67558e-13
-6.83519e-14
1.75028e-13
-6.56492e-14
1.8224e-13
-6.20352e-14
1.89e-13
-5.77417e-14
1.95165e-13
-5.25025e-14
2.004e-13
-4.62163e-14
2.04729e-13
-3.90923e-14
2.07774e-13
-3.10984e-14
2.09328e-13
-2.2305e-14
2.09547e-13
-1.30303e-14
2.08065e-13
-3.16867e-15
2.0497e-13
6.79499e-15
2.00186e-13
1.67124e-14
1.9367e-13
2.64066e-14
1.85517e-13
3.56012e-14
1.75689e-13
4.41531e-14
1.64343e-13
5.16877e-14
1.51439e-13
5.81206e-14
1.36928e-13
6.30828e-14
1.20655e-13
6.62431e-14
1.01828e-13
6.69697e-14
7.84945e-14
6.36051e-14
4.42043e-14
5.22435e-14
3.23674e-15
3.12128e-13
5.81359e-15
3.0757e-13
6.96145e-16
1.8854e-13
4.13167e-21
-2.05103e-19
3.76864e-21
-7.96679e-23
3.6823e-21
-2.99854e-24
3.49913e-21
7.38259e-23
3.32041e-21
1.51994e-22
3.15332e-21
2.30008e-22
2.99837e-21
3.06315e-22
2.8546e-21
3.79676e-22
2.72142e-21
4.48901e-22
2.59792e-21
5.13111e-22
2.48278e-21
5.71789e-22
2.37515e-21
6.24315e-22
2.27335e-21
6.7043e-22
2.17667e-21
7.10186e-22
2.08362e-21
7.43791e-22
1.99366e-21
7.71398e-22
1.90577e-21
7.93266e-22
1.81949e-21
8.09965e-22
1.73455e-21
8.21856e-22
1.65064e-21
8.29507e-22
1.5673e-21
8.33333e-22
1.48489e-21
8.33953e-22
1.40264e-21
8.31678e-22
1.32085e-21
8.26974e-22
1.23974e-21
8.20512e-22
1.15888e-21
8.12395e-22
1.07859e-21
8.03192e-22
9.98666e-22
7.93215e-22
9.19205e-22
7.8272e-22
8.4026e-22
7.7207e-22
7.6173e-22
7.6142e-22
6.83717e-22
7.51235e-22
6.06375e-22
7.41567e-22
5.29292e-22
7.3252e-22
4.5283e-22
7.24352e-22
3.76574e-22
7.17269e-22
3.00939e-22
7.11375e-22
2.25562e-22
7.06619e-22
1.50547e-22
7.03207e-22
7.56353e-23
7.01191e-22
7.00415e-22
-1.49485e-13
1.04617e-12
-2.9422e-13
1.0257e-12
-4.32596e-13
9.86371e-13
-5.61271e-13
9.29241e-13
-6.77519e-13
8.55953e-13
-7.79052e-13
7.68834e-13
-8.64501e-13
6.70983e-13
-9.31701e-13
5.6381e-13
-9.82095e-13
4.53142e-13
-1.01468e-12
3.40449e-13
-1.0244e-12
2.22435e-13
-1.02485e-12
1.16679e-13
-1.01696e-12
2.62161e-14
-9.77779e-13
-7.38325e-14
-9.3438e-13
-1.62191e-13
-8.80708e-13
-2.40556e-13
-8.32171e-13
-2.91644e-13
-7.62297e-13
-3.46173e-13
-6.88717e-13
-3.88665e-13
-6.26468e-13
-4.14349e-13
-5.57824e-13
-4.30604e-13
-4.9105e-13
-4.38271e-13
-4.26633e-13
-4.3983e-13
-3.67193e-13
-4.31778e-13
-3.1094e-13
-4.19306e-13
-2.59168e-13
-4.02409e-13
-2.11854e-13
-3.82356e-13
-1.69069e-13
-3.60034e-13
-1.30694e-13
-3.36362e-13
-9.65647e-14
-3.12037e-13
-6.64538e-14
-2.8766e-13
-4.00538e-14
-2.63762e-13
-1.7111e-14
-2.40717e-13
2.74274e-15
-2.18875e-13
1.97149e-14
-1.98337e-13
3.44768e-14
-1.79626e-13
4.70923e-14
-1.62754e-13
5.78853e-14
-1.47407e-13
6.69969e-14
-1.33974e-13
7.50244e-14
-1.22527e-13
8.22232e-14
-1.12706e-13
8.86873e-14
-1.04507e-13
9.45877e-14
-9.78858e-14
1.00378e-13
-9.28449e-14
1.0618e-13
-8.89247e-14
1.11964e-13
-8.60643e-14
1.17993e-13
-8.42858e-14
1.24287e-13
-8.30406e-14
1.31043e-13
-8.23245e-14
1.38211e-13
-8.18922e-14
1.45733e-13
-8.14805e-14
1.53536e-13
-8.06997e-14
1.61846e-13
-7.96251e-14
1.7024e-13
-7.7934e-14
1.78402e-13
-7.50814e-14
1.86593e-13
-7.15733e-14
1.94313e-13
-6.6881e-14
2.01428e-13
-6.11108e-14
2.07603e-13
-5.3956e-14
2.12709e-13
-4.58275e-14
2.16491e-13
-3.65785e-14
2.18711e-13
-2.62827e-14
2.1928e-13
-1.54158e-14
2.18055e-13
-3.81639e-15
2.1493e-13
7.98865e-15
2.09882e-13
1.9783e-14
2.02883e-13
3.13786e-14
1.93994e-13
4.24182e-14
1.83267e-13
5.27665e-14
1.70718e-13
6.20873e-14
1.56391e-13
7.02605e-14
1.40121e-13
7.71403e-14
1.213e-13
8.28194e-14
9.82576e-14
8.77508e-14
6.60944e-14
9.34844e-14
7.59791e-15
1.08439e-13
9.91736e-15
3.07495e-13
4.92045e-15
3.10246e-13
6.78241e-16
1.90936e-13
4.13158e-21
-2.265e-19
3.8453e-21
-8.87668e-23
3.75917e-21
4.65279e-25
3.5773e-21
8.99042e-23
3.39837e-21
1.80429e-22
3.22968e-21
2.70281e-22
3.07168e-21
3.57807e-22
2.92377e-21
4.41404e-22
2.78569e-21
5.19883e-22
2.65659e-21
5.9221e-22
2.53536e-21
6.57764e-22
2.42121e-21
7.16028e-22
2.31316e-21
7.669e-22
2.21028e-21
8.10327e-22
2.11128e-21
8.46516e-22
2.01553e-21
8.75881e-22
1.92247e-21
8.98784e-22
1.83143e-21
9.15637e-22
1.7422e-21
9.27321e-22
1.65441e-21
9.34145e-22
1.56792e-21
9.36886e-22
1.48262e-21
9.36058e-22
1.39794e-21
9.32078e-22
1.31444e-21
9.25719e-22
1.23162e-21
9.17395e-22
1.14968e-21
9.07417e-22
1.06861e-21
8.96199e-22
9.88171e-22
8.84308e-22
9.08555e-22
8.72004e-22
8.29611e-22
8.59596e-22
7.51494e-22
8.47498e-22
6.73997e-22
8.35711e-22
5.97276e-22
8.24699e-22
5.21176e-22
8.14514e-22
4.45695e-22
8.05364e-22
3.7068e-22
7.97609e-22
2.96182e-22
7.90888e-22
2.2215e-22
7.8577e-22
1.48479e-22
7.82151e-22
7.49632e-23
7.80083e-22
7.79721e-22