/*--------------------------------*- C++ -*----------------------------------*\
  =========                 |
  \\      /  F ield         | OpenFOAM: The Open Source CFD Toolbox
   \\    /   O peration     | Website:  https://openfoam.org
    \\  /    A nd           | Version:  6
     \\/     M anipulation  |
\*---------------------------------------------------------------------------*/
FoamFile
{
    version     2.0;
    format      ascii;
    class       volVectorField;
    location    "1600";
    object      U;
}
// * * * * * * * * * * * * * * * * * * * * * * * * * * * * * * * * * * * * * //

dimensions      [0 1 -1 0 0 0 0];

internalField   nonuniform List<vector> 
4800
(
(-1.50648e-08 0 1.63131e-08)
(-4.7023e-08 0 1.3607e-08)
(-7.68639e-08 0 1.22442e-08)
(-1.05787e-07 0 1.13453e-08)
(-1.33044e-07 0 1.05e-08)
(-1.58201e-07 0 9.59342e-09)
(-1.80899e-07 0 8.59464e-09)
(-2.00859e-07 0 7.50916e-09)
(-2.17872e-07 0 6.33983e-09)
(-2.31791e-07 0 5.09973e-09)
(-2.42547e-07 0 3.81788e-09)
(-2.50131e-07 0 2.50737e-09)
(-2.54613e-07 0 1.18679e-09)
(-2.56108e-07 0 -7.77853e-11)
(-2.54835e-07 0 -1.24567e-09)
(-2.51067e-07 0 -2.25802e-09)
(-2.45285e-07 0 -3.18749e-09)
(-2.37195e-07 0 -4.38204e-09)
(-2.27071e-07 0 -5.1614e-09)
(-2.15792e-07 0 -5.59755e-09)
(-2.03675e-07 0 -5.8318e-09)
(-1.90308e-07 0 -6.81745e-09)
(-1.76179e-07 0 -6.7372e-09)
(-1.62012e-07 0 -6.8382e-09)
(-1.47665e-07 0 -6.89669e-09)
(-1.33323e-07 0 -6.81512e-09)
(-1.19282e-07 0 -6.63361e-09)
(-1.05637e-07 0 -6.40977e-09)
(-9.24936e-08 0 -6.13498e-09)
(-7.99295e-08 0 -5.83594e-09)
(-6.80074e-08 0 -5.5046e-09)
(-5.67707e-08 0 -5.16659e-09)
(-4.62412e-08 0 -4.8161e-09)
(-3.64291e-08 0 -4.47743e-09)
(-2.73098e-08 0 -4.14848e-09)
(-1.88721e-08 0 -3.82173e-09)
(-1.1094e-08 0 -3.52588e-09)
(-3.94025e-09 0 -3.24113e-09)
(2.66373e-09 0 -2.99084e-09)
(8.72567e-09 0 -2.75719e-09)
(1.43151e-08 0 -2.55599e-09)
(1.94813e-08 0 -2.36622e-09)
(2.42509e-08 0 -2.21199e-09)
(2.86872e-08 0 -2.06978e-09)
(3.28111e-08 0 -1.94347e-09)
(3.66745e-08 0 -1.84547e-09)
(4.03005e-08 0 -1.75689e-09)
(4.3714e-08 0 -1.66975e-09)
(4.69375e-08 0 -1.60675e-09)
(4.99864e-08 0 -1.53701e-09)
(5.28686e-08 0 -1.47753e-09)
(5.55855e-08 0 -1.41165e-09)
(5.81296e-08 0 -1.34218e-09)
(6.04889e-08 0 -1.26266e-09)
(6.26404e-08 0 -1.16829e-09)
(6.45762e-08 0 -1.08382e-09)
(6.62937e-08 0 -9.72456e-10)
(6.77393e-08 0 -8.57935e-10)
(6.89249e-08 0 -7.26373e-10)
(6.97935e-08 0 -5.86748e-10)
(7.03543e-08 0 -4.38368e-10)
(7.05752e-08 0 -2.84466e-10)
(7.04554e-08 0 -1.24922e-10)
(6.998e-08 0 4.01323e-11)
(6.91456e-08 0 2.04823e-10)
(6.79685e-08 0 3.54494e-10)
(6.64645e-08 0 5.0388e-10)
(6.46511e-08 0 6.36735e-10)
(6.25764e-08 0 7.37365e-10)
(6.03107e-08 0 8.06699e-10)
(5.79253e-08 0 8.33042e-10)
(5.55403e-08 0 7.92466e-10)
(5.33741e-08 0 6.22833e-10)
(5.1878e-08 0 1.75447e-10)
(5.22467e-08 0 -1.13938e-09)
(5.79588e-08 0 -5.03855e-09)
(7.78115e-08 0 -1.7446e-08)
(4.08162e-08 0 2.26073e-08)
(7.88764e-10 0 1.94008e-08)
(1.11586e-14 0 -6.25744e-15)
(6.87666e-16 0 -2.3678e-18)
(1.36635e-15 0 7.74448e-18)
(1.32334e-15 0 9.89515e-18)
(1.25274e-15 0 1.02881e-17)
(1.18478e-15 0 1.04328e-17)
(1.12275e-15 0 1.05879e-17)
(1.06678e-15 0 1.0805e-17)
(1.01652e-15 0 1.10842e-17)
(9.71462e-16 0 1.14358e-17)
(9.30951e-16 0 1.187e-17)
(8.94296e-16 0 1.23767e-17)
(8.60775e-16 0 1.2904e-17)
(8.29631e-16 0 1.34727e-17)
(8.00204e-16 0 1.40207e-17)
(7.71935e-16 0 1.45274e-17)
(7.4437e-16 0 1.50237e-17)
(7.17114e-16 0 1.54683e-17)
(6.89889e-16 0 1.58612e-17)
(6.62499e-16 0 1.61921e-17)
(6.34799e-16 0 1.64402e-17)
(6.06696e-16 0 1.6647e-17)
(5.78179e-16 0 1.68124e-17)
(5.49165e-16 0 1.68952e-17)
(5.19656e-16 0 1.69469e-17)
(4.89732e-16 0 1.69675e-17)
(4.59416e-16 0 1.69675e-17)
(4.28748e-16 0 1.69262e-17)
(3.97781e-16 0 1.68538e-17)
(3.66555e-16 0 1.67401e-17)
(3.35112e-16 0 1.66367e-17)
(3.03493e-16 0 1.65229e-17)
(2.71719e-16 0 1.63885e-17)
(2.3981e-16 0 1.62851e-17)
(2.07839e-16 0 1.61714e-17)
(1.75879e-16 0 1.60783e-17)
(1.43867e-16 0 1.59749e-17)
(1.11824e-16 0 1.58819e-17)
(7.98126e-17 0 1.58198e-17)
(4.77904e-17 0 1.57371e-17)
(1.58819e-17 0 1.56234e-17)
(-1.51596e-08 0 4.83228e-08)
(-4.75692e-08 0 4.97284e-08)
(-7.81927e-08 0 4.88804e-08)
(-1.0773e-07 0 4.67118e-08)
(-1.35477e-07 0 4.36735e-08)
(-1.61025e-07 0 3.9969e-08)
(-1.84036e-07 0 3.57327e-08)
(-2.04223e-07 0 3.10992e-08)
(-2.21365e-07 0 2.61862e-08)
(-2.35329e-07 0 2.11184e-08)
(-2.46049e-07 0 1.60151e-08)
(-2.53525e-07 0 1.09691e-08)
(-2.57823e-07 0 6.0456e-09)
(-2.59075e-07 0 1.4983e-09)
(-2.57549e-07 0 -2.5519e-09)
(-2.53558e-07 0 -5.96912e-09)
(-2.47467e-07 0 -9.1074e-09)
(-2.38947e-07 0 -1.29096e-08)
(-2.28548e-07 0 -1.53545e-08)
(-2.17008e-07 0 -1.67232e-08)
(-2.04583e-07 0 -1.75917e-08)
(-1.90865e-07 0 -2.05059e-08)
(-1.76565e-07 0 -2.03622e-08)
(-1.62165e-07 0 -2.0689e-08)
(-1.47611e-07 0 -2.09428e-08)
(-1.33105e-07 0 -2.0705e-08)
(-1.18934e-07 0 -2.02094e-08)
(-1.05173e-07 0 -1.95669e-08)
(-9.19337e-08 0 -1.87817e-08)
(-7.92999e-08 0 -1.78966e-08)
(-6.73377e-08 0 -1.69242e-08)
(-5.60846e-08 0 -1.59122e-08)
(-4.55496e-08 0 -1.48838e-08)
(-3.57453e-08 0 -1.38558e-08)
(-2.66593e-08 0 -1.28677e-08)
(-1.8252e-08 0 -1.1902e-08)
(-1.05036e-08 0 -1.10019e-08)
(-3.39218e-09 0 -1.01384e-08)
(3.16888e-09 0 -9.37992e-09)
(9.1861e-09 0 -8.67197e-09)
(1.47231e-08 0 -8.04191e-09)
(1.98402e-08 0 -7.47862e-09)
(2.45662e-08 0 -6.99191e-09)
(2.89535e-08 0 -6.55437e-09)
(3.30468e-08 0 -6.17802e-09)
(3.68864e-08 0 -5.85685e-09)
(4.04857e-08 0 -5.58611e-09)
(4.38919e-08 0 -5.32099e-09)
(4.7111e-08 0 -5.11267e-09)
(5.01527e-08 0 -4.89205e-09)
(5.30282e-08 0 -4.70035e-09)
(5.57422e-08 0 -4.49497e-09)
(5.82863e-08 0 -4.27433e-09)
(6.06532e-08 0 -4.03368e-09)
(6.28322e-08 0 -3.75294e-09)
(6.47976e-08 0 -3.48058e-09)
(6.65416e-08 0 -3.14668e-09)
(6.80124e-08 0 -2.7849e-09)
(6.9211e-08 0 -2.37831e-09)
(7.00963e-08 0 -1.95876e-09)
(7.06785e-08 0 -1.49803e-09)
(7.09174e-08 0 -1.02391e-09)
(7.08052e-08 0 -5.21089e-10)
(7.03227e-08 0 -5.23505e-12)
(6.94796e-08 0 5.07032e-10)
(6.82826e-08 0 9.89222e-10)
(6.67439e-08 0 1.45905e-09)
(6.48962e-08 0 1.87861e-09)
(6.27749e-08 0 2.21361e-09)
(6.0435e-08 0 2.45636e-09)
(5.7925e-08 0 2.58815e-09)
(5.53153e-08 0 2.53378e-09)
(5.26922e-08 0 2.15795e-09)
(5.00801e-08 0 1.17636e-09)
(4.71374e-08 0 -1.19791e-09)
(4.23633e-08 0 -7.12469e-09)
(2.59427e-08 0 -2.32102e-08)
(1.73269e-08 0 5.50167e-08)
(6.21021e-10 0 4.46999e-08)
(8.22883e-15 0 -1.53153e-14)
(6.9779e-16 0 -5.83162e-18)
(1.37861e-15 0 8.80947e-18)
(1.32588e-15 0 1.42689e-17)
(1.25329e-15 0 1.74742e-17)
(1.1851e-15 0 2.02452e-17)
(1.12314e-15 0 2.29749e-17)
(1.06728e-15 0 2.57046e-17)
(1.01716e-15 0 2.8455e-17)
(9.72258e-16 0 3.11847e-17)
(9.31881e-16 0 3.38834e-17)
(8.9533e-16 0 3.65097e-17)
(8.61871e-16 0 3.89912e-17)
(8.30738e-16 0 4.1328e-17)
(8.01259e-16 0 4.3458e-17)
(7.72938e-16 0 4.53605e-17)
(7.4531e-16 0 4.70459e-17)
(7.17951e-16 0 4.84418e-17)
(6.90623e-16 0 4.96102e-17)
(6.63099e-16 0 5.05614e-17)
(6.35264e-16 0 5.12749e-17)
(6.07068e-16 0 5.17608e-17)
(5.78416e-16 0 5.20814e-17)
(5.49289e-16 0 5.22054e-17)
(5.19718e-16 0 5.21848e-17)
(4.89732e-16 0 5.20607e-17)
(4.59364e-16 0 5.18539e-17)
(4.28624e-16 0 5.15334e-17)
(3.97595e-16 0 5.11508e-17)
(3.66348e-16 0 5.07165e-17)
(3.34884e-16 0 5.02512e-17)
(3.03244e-16 0 4.97756e-17)
(2.7147e-16 0 4.93103e-17)
(2.39583e-16 0 4.88554e-17)
(2.07633e-16 0 4.84418e-17)
(1.75662e-16 0 4.80695e-17)
(1.43671e-16 0 4.77387e-17)
(1.11669e-16 0 4.74492e-17)
(7.96472e-17 0 4.72113e-17)
(4.76042e-17 0 4.70149e-17)
(1.57888e-17 0 4.68494e-17)
(-1.59379e-08 0 8.11016e-08)
(-4.95818e-08 0 7.98263e-08)
(-8.0847e-08 0 7.71841e-08)
(-1.11044e-07 0 7.33536e-08)
(-1.39459e-07 0 6.84427e-08)
(-1.65631e-07 0 6.25855e-08)
(-1.89166e-07 0 5.59338e-08)
(-2.09761e-07 0 4.866e-08)
(-2.27198e-07 0 4.09315e-08)
(-2.41323e-07 0 3.2932e-08)
(-2.52069e-07 0 2.48444e-08)
(-2.59445e-07 0 1.68079e-08)
(-2.63524e-07 0 8.92415e-09)
(-2.64464e-07 0 1.60706e-09)
(-2.62585e-07 0 -4.94314e-09)
(-2.58231e-07 0 -1.02442e-08)
(-2.51596e-07 0 -1.60064e-08)
(-2.42333e-07 0 -2.19641e-08)
(-2.31443e-07 0 -2.58301e-08)
(-2.19439e-07 0 -2.80023e-08)
(-2.06365e-07 0 -3.00614e-08)
(-1.91955e-07 0 -3.41803e-08)
(-1.77295e-07 0 -3.41622e-08)
(-1.62437e-07 0 -3.46202e-08)
(-1.47464e-07 0 -3.50895e-08)
(-1.32633e-07 0 -3.45538e-08)
(-1.18193e-07 0 -3.37283e-08)
(-1.04211e-07 0 -3.26121e-08)
(-9.08083e-08 0 -3.12755e-08)
(-7.80637e-08 0 -2.97545e-08)
(-6.60309e-08 0 -2.81075e-08)
(-5.47351e-08 0 -2.64037e-08)
(-4.4191e-08 0 -2.46832e-08)
(-3.44048e-08 0 -2.29537e-08)
(-2.53549e-08 0 -2.12917e-08)
(-1.70141e-08 0 -1.9696e-08)
(-9.34726e-09 0 -1.81897e-08)
(-2.32494e-09 0 -1.67583e-08)
(4.15165e-09 0 -1.55096e-08)
(1.00732e-08 0 -1.43436e-08)
(1.55252e-08 0 -1.32964e-08)
(2.05497e-08 0 -1.23769e-08)
(2.5173e-08 0 -1.15824e-08)
(2.9488e-08 0 -1.08754e-08)
(3.35116e-08 0 -1.02878e-08)
(3.72898e-08 0 -9.75731e-09)
(4.08302e-08 0 -9.33139e-09)
(4.41902e-08 0 -8.9267e-09)
(4.73766e-08 0 -8.58692e-09)
(5.04061e-08 0 -8.25769e-09)
(5.32867e-08 0 -7.94711e-09)
(5.6012e-08 0 -7.63202e-09)
(5.85802e-08 0 -7.28013e-09)
(6.09798e-08 0 -6.90658e-09)
(6.31874e-08 0 -6.4608e-09)
(6.51976e-08 0 -6.02611e-09)
(6.69937e-08 0 -5.48086e-09)
(6.85077e-08 0 -4.88207e-09)
(6.97643e-08 0 -4.21452e-09)
(7.06902e-08 0 -3.52525e-09)
(7.13025e-08 0 -2.76545e-09)
(7.15633e-08 0 -1.98046e-09)
(7.14587e-08 0 -1.14082e-09)
(7.09844e-08 0 -2.9169e-10)
(7.01313e-08 0 5.6049e-10)
(6.8896e-08 0 1.37763e-09)
(6.73015e-08 0 2.14904e-09)
(6.53816e-08 0 2.8433e-09)
(6.31624e-08 0 3.41323e-09)
(6.06859e-08 0 3.84845e-09)
(5.79798e-08 0 4.13527e-09)
(5.5089e-08 0 4.15844e-09)
(5.19967e-08 0 3.87804e-09)
(4.85194e-08 0 3.13093e-09)
(4.40367e-08 0 1.77656e-09)
(3.69996e-08 0 -2.23126e-10)
(2.17869e-08 0 -1.4304e-09)
(1.13237e-08 0 5.57485e-08)
(5.91572e-10 0 5.48924e-08)
(7.96302e-15 0 -2.25434e-14)
(7.02329e-16 0 -8.59234e-18)
(1.38646e-15 0 8.47859e-19)
(1.332e-15 0 8.71642e-18)
(1.25872e-15 0 1.60059e-17)
(1.19029e-15 0 2.3037e-17)
(1.12822e-15 0 2.99026e-17)
(1.07225e-15 0 3.66338e-17)
(1.02201e-15 0 4.31375e-17)
(9.76911e-16 0 4.9393e-17)
(9.36255e-16 0 5.5297e-17)
(8.99394e-16 0 6.07771e-17)
(8.65603e-16 0 6.58022e-17)
(8.34098e-16 0 7.03207e-17)
(8.04247e-16 0 7.43118e-17)
(7.75523e-16 0 7.7786e-17)
(7.47451e-16 0 8.07432e-17)
(7.19689e-16 0 8.31317e-17)
(6.92009e-16 0 8.50549e-17)
(6.64174e-16 0 8.65231e-17)
(6.36009e-16 0 8.76088e-17)
(6.07513e-16 0 8.82705e-17)
(5.78623e-16 0 8.86014e-17)
(5.49258e-16 0 8.86428e-17)
(5.195e-16 0 8.84256e-17)
(4.89391e-16 0 8.8012e-17)
(4.58889e-16 0 8.7402e-17)
(4.28045e-16 0 8.66885e-17)
(3.96974e-16 0 8.5882e-17)
(3.65676e-16 0 8.50238e-17)
(3.34171e-16 0 8.41036e-17)
(3.02552e-16 0 8.31834e-17)
(2.70788e-16 0 8.22941e-17)
(2.38931e-16 0 8.14359e-17)
(2.07064e-16 0 8.06398e-17)
(1.75176e-16 0 7.99367e-17)
(1.43247e-16 0 7.93163e-17)
(1.11297e-16 0 7.88096e-17)
(7.9368e-17 0 7.84167e-17)
(4.74388e-17 0 7.81479e-17)
(1.57371e-17 0 7.80238e-17)
(-1.66257e-08 0 1.16212e-07)
(-5.18552e-08 0 1.14357e-07)
(-8.46703e-08 0 1.10634e-07)
(-1.16284e-07 0 1.05165e-07)
(-1.45944e-07 0 9.81075e-08)
(-1.73177e-07 0 8.96716e-08)
(-1.97591e-07 0 8.00654e-08)
(-2.18851e-07 0 6.95556e-08)
(-2.3672e-07 0 5.83976e-08)
(-2.51056e-07 0 4.68506e-08)
(-2.61801e-07 0 3.51881e-08)
(-2.68963e-07 0 2.35993e-08)
(-2.72629e-07 0 1.22837e-08)
(-2.73009e-07 0 1.79312e-09)
(-2.70499e-07 0 -7.43577e-09)
(-2.65506e-07 0 -1.48896e-08)
(-2.57915e-07 0 -2.36777e-08)
(-2.47488e-07 0 -3.18187e-08)
(-2.35858e-07 0 -3.70572e-08)
(-2.23151e-07 0 -3.98526e-08)
(-2.08984e-07 0 -4.35873e-08)
(-1.9355e-07 0 -4.83354e-08)
(-1.78347e-07 0 -4.86026e-08)
(-1.62784e-07 0 -4.91339e-08)
(-1.47167e-07 0 -4.98207e-08)
(-1.31881e-07 0 -4.88134e-08)
(-1.17034e-07 0 -4.76174e-08)
(-1.02735e-07 0 -4.59569e-08)
(-8.90831e-08 0 -4.40053e-08)
(-7.61645e-08 0 -4.17862e-08)
(-6.402e-08 0 -3.94266e-08)
(-5.26649e-08 0 -3.69876e-08)
(-4.21193e-08 0 -3.45171e-08)
(-3.23721e-08 0 -3.20687e-08)
(-2.3387e-08 0 -2.96951e-08)
(-1.51432e-08 0 -2.74412e-08)
(-7.60332e-09 0 -2.53108e-08)
(-7.15955e-10 0 -2.33015e-08)
(5.62367e-09 0 -2.15473e-08)
(1.13871e-08 0 -1.99152e-08)
(1.66869e-08 0 -1.84657e-08)
(2.15968e-08 0 -1.71715e-08)
(2.6076e-08 0 -1.60732e-08)
(3.02676e-08 0 -1.51084e-08)
(3.41684e-08 0 -1.43024e-08)
(3.78548e-08 0 -1.3583e-08)
(4.13221e-08 0 -1.30056e-08)
(4.46231e-08 0 -1.24716e-08)
(4.77715e-08 0 -1.20085e-08)
(5.07766e-08 0 -1.15858e-08)
(5.3652e-08 0 -1.11666e-08)
(5.63878e-08 0 -1.07418e-08)
(5.89856e-08 0 -1.02803e-08)
(6.14394e-08 0 -9.77584e-09)
(6.37174e-08 0 -9.16262e-09)
(6.57988e-08 0 -8.56978e-09)
(6.76523e-08 0 -7.79792e-09)
(6.92431e-08 0 -6.96948e-09)
(7.05723e-08 0 -6.03491e-09)
(7.15786e-08 0 -5.05711e-09)
(7.2244e-08 0 -3.979e-09)
(7.25559e-08 0 -2.85589e-09)
(7.24754e-08 0 -1.66193e-09)
(7.20015e-08 0 -4.47714e-10)
(7.11229e-08 0 7.73575e-10)
(6.98492e-08 0 1.9604e-09)
(6.81908e-08 0 3.06854e-09)
(6.61677e-08 0 4.08076e-09)
(6.38031e-08 0 4.93577e-09)
(6.1136e-08 0 5.61211e-09)
(5.82108e-08 0 6.11104e-09)
(5.50555e-08 0 6.30841e-09)
(5.16617e-08 0 6.24541e-09)
(4.79516e-08 0 5.93542e-09)
(4.37098e-08 0 5.58448e-09)
(3.88992e-08 0 5.92316e-09)
(3.35988e-08 0 9.39065e-09)
(9.35156e-09 0 6.75995e-08)
(5.80815e-10 0 6.19303e-08)
(7.98174e-15 0 -3.15505e-14)
(7.07259e-16 0 -1.20458e-17)
(1.39595e-15 0 -1.03398e-18)
(1.34103e-15 0 9.55394e-18)
(1.26759e-15 0 2.00901e-17)
(1.199e-15 0 3.05747e-17)
(1.13673e-15 0 4.0842e-17)
(1.0805e-15 0 5.0882e-17)
(1.02992e-15 0 6.05289e-17)
(9.84417e-16 0 6.97003e-17)
(9.43255e-16 0 7.82927e-17)
(9.05825e-16 0 8.62232e-17)
(8.71414e-16 0 9.34404e-17)
(8.39268e-16 0 9.98304e-17)
(8.08745e-16 0 1.05466e-16)
(7.79359e-16 0 1.10294e-16)
(7.50646e-16 0 1.14378e-16)
(7.22284e-16 0 1.17708e-16)
(6.94025e-16 0 1.20324e-16)
(6.65632e-16 0 1.22268e-16)
(6.37002e-16 0 1.23664e-16)
(6.08071e-16 0 1.2448e-16)
(5.78778e-16 0 1.24822e-16)
(5.49114e-16 0 1.24791e-16)
(5.19097e-16 0 1.24398e-16)
(4.8874e-16 0 1.23736e-16)
(4.58072e-16 0 1.22795e-16)
(4.27104e-16 0 1.21699e-16)
(3.9592e-16 0 1.2051e-16)
(3.6457e-16 0 1.19186e-16)
(3.33054e-16 0 1.17884e-16)
(3.01435e-16 0 1.16539e-16)
(2.69723e-16 0 1.15216e-16)
(2.37939e-16 0 1.13985e-16)
(2.06133e-16 0 1.12848e-16)
(1.74339e-16 0 1.11835e-16)
(1.42544e-16 0 1.10925e-16)
(1.10759e-16 0 1.10201e-16)
(7.89854e-17 0 1.09674e-16)
(4.72113e-17 0 1.09312e-16)
(1.56647e-17 0 1.09167e-16)
(-1.76158e-08 0 1.52904e-07)
(-5.50546e-08 0 1.50428e-07)
(-8.9981e-08 0 1.45481e-07)
(-1.23552e-07 0 1.38195e-07)
(-1.54952e-07 0 1.28795e-07)
(-1.83678e-07 0 1.17544e-07)
(-2.0929e-07 0 1.04743e-07)
(-2.3144e-07 0 9.07368e-08)
(-2.49886e-07 0 7.59007e-08)
(-2.64487e-07 0 6.05718e-08)
(-2.75176e-07 0 4.51066e-08)
(-2.82003e-07 0 2.9734e-08)
(-2.8507e-07 0 1.49109e-08)
(-2.84711e-07 0 1.12148e-09)
(-2.81354e-07 0 -1.07109e-08)
(-2.75208e-07 0 -1.98284e-08)
(-2.66165e-07 0 -3.33182e-08)
(-2.54548e-07 0 -4.30684e-08)
(-2.41796e-07 0 -4.88671e-08)
(-2.2796e-07 0 -5.16034e-08)
(-2.12178e-07 0 -6.04521e-08)
(-1.95806e-07 0 -6.26686e-08)
(-1.79574e-07 0 -6.39145e-08)
(-1.63092e-07 0 -6.45181e-08)
(-1.46648e-07 0 -6.5174e-08)
(-1.30763e-07 0 -6.35982e-08)
(-1.15352e-07 0 -6.19364e-08)
(-1.00628e-07 0 -5.96461e-08)
(-8.66578e-08 0 -5.69807e-08)
(-7.35167e-08 0 -5.39888e-08)
(-6.12281e-08 0 -5.08455e-08)
(-4.98212e-08 0 -4.7596e-08)
(-3.92883e-08 0 -4.43276e-08)
(-2.96041e-08 0 -4.11173e-08)
(-2.07295e-08 0 -3.80012e-08)
(-1.26198e-08 0 -3.50551e-08)
(-5.25895e-09 0 -3.22707e-08)
(1.44617e-09 0 -2.96951e-08)
(7.59847e-09 0 -2.74165e-08)
(1.31657e-08 0 -2.53037e-08)
(1.82365e-08 0 -2.34583e-08)
(2.29599e-08 0 -2.18063e-08)
(2.72461e-08 0 -2.04089e-08)
(3.12775e-08 0 -1.92049e-08)
(3.50351e-08 0 -1.81894e-08)
(3.85937e-08 0 -1.73126e-08)
(4.19583e-08 0 -1.65886e-08)
(4.51673e-08 0 -1.59571e-08)
(4.82683e-08 0 -1.5395e-08)
(5.12481e-08 0 -1.48921e-08)
(5.41275e-08 0 -1.43986e-08)
(5.68944e-08 0 -1.38707e-08)
(5.95411e-08 0 -1.33283e-08)
(6.20571e-08 0 -1.27055e-08)
(6.4409e-08 0 -1.194e-08)
(6.65887e-08 0 -1.1181e-08)
(6.85443e-08 0 -1.02025e-08)
(7.02571e-08 0 -9.13885e-09)
(7.16763e-08 0 -7.94774e-09)
(7.27938e-08 0 -6.6457e-09)
(7.35144e-08 0 -5.25149e-09)
(7.38898e-08 0 -3.77027e-09)
(7.38493e-08 0 -2.19961e-09)
(7.3389e-08 0 -5.9802e-10)
(7.24997e-08 0 1.02484e-09)
(7.11672e-08 0 2.60218e-09)
(6.94098e-08 0 4.07697e-09)
(6.72489e-08 0 5.45866e-09)
(6.47202e-08 0 6.63176e-09)
(6.18365e-08 0 7.60667e-09)
(5.86545e-08 0 8.3214e-09)
(5.52411e-08 0 8.7372e-09)
(5.16487e-08 0 8.85634e-09)
(4.79454e-08 0 8.7871e-09)
(4.42101e-08 0 8.81232e-09)
(4.07959e-08 0 9.51959e-09)
(3.69792e-08 0 1.26559e-08)
(8.58474e-09 0 9.27641e-08)
(5.7237e-10 0 6.99555e-08)
(8.13152e-15 0 -4.09905e-14)
(7.13352e-16 0 -1.56647e-17)
(1.40808e-15 0 -1.99558e-18)
(1.35312e-15 0 1.16322e-17)
(1.27973e-15 0 2.54358e-17)
(1.21104e-15 0 3.92704e-17)
(1.14853e-15 0 5.29189e-17)
(1.09195e-15 0 6.62055e-17)
(1.04085e-15 0 7.89958e-17)
(9.94674e-16 0 9.10623e-17)
(9.52788e-16 0 1.02302e-16)
(9.14541e-16 0 1.1261e-16)
(8.7919e-16 0 1.21926e-16)
(8.46123e-16 0 1.30167e-16)
(8.14721e-16 0 1.37364e-16)
(7.84436e-16 0 1.43516e-16)
(7.54854e-16 0 1.48665e-16)
(7.25634e-16 0 1.52842e-16)
(6.96579e-16 0 1.56089e-16)
(6.67493e-16 0 1.58446e-16)
(6.38211e-16 0 1.60101e-16)
(6.08681e-16 0 1.61021e-16)
(5.78913e-16 0 1.61373e-16)
(5.48845e-16 0 1.61197e-16)
(5.18467e-16 0 1.60576e-16)
(4.87799e-16 0 1.59605e-16)
(4.56862e-16 0 1.58322e-16)
(4.2575e-16 0 1.56813e-16)
(3.94451e-16 0 1.55179e-16)
(3.63039e-16 0 1.53421e-16)
(3.31513e-16 0 1.51653e-16)
(2.99874e-16 0 1.49875e-16)
(2.68224e-16 0 1.48138e-16)
(2.36563e-16 0 1.46504e-16)
(2.04903e-16 0 1.45015e-16)
(1.73232e-16 0 1.43692e-16)
(1.41613e-16 0 1.42544e-16)
(1.10046e-16 0 1.41624e-16)
(7.84684e-17 0 1.4091e-16)
(4.69322e-17 0 1.40455e-16)
(1.55924e-17 0 1.4029e-16)
(-1.89519e-08 0 1.91969e-07)
(-5.9292e-08 0 1.88727e-07)
(-9.68986e-08 0 1.82366e-07)
(-1.3298e-07 0 1.73044e-07)
(-1.66625e-07 0 1.61058e-07)
(-1.97257e-07 0 1.4671e-07)
(-2.24399e-07 0 1.30411e-07)
(-2.47696e-07 0 1.126e-07)
(-2.66876e-07 0 9.37492e-08)
(-2.81782e-07 0 7.43074e-08)
(-2.92381e-07 0 5.47069e-08)
(-2.98741e-07 0 3.52509e-08)
(-3.00933e-07 0 1.68817e-08)
(-2.99667e-07 0 -8.72805e-10)
(-2.954e-07 0 -1.50983e-08)
(-2.8761e-07 0 -2.73679e-08)
(-2.76336e-07 0 -4.37198e-08)
(-2.63506e-07 0 -5.50664e-08)
(-2.49315e-07 0 -6.22876e-08)
(-2.33618e-07 0 -6.61291e-08)
(-2.15979e-07 0 -7.69208e-08)
(-1.98515e-07 0 -7.86511e-08)
(-1.80898e-07 0 -8.02786e-08)
(-1.63231e-07 0 -8.10241e-08)
(-1.45819e-07 0 -8.11038e-08)
(-1.29141e-07 0 -7.9131e-08)
(-1.13048e-07 0 -7.67878e-08)
(-9.78044e-08 0 -7.37525e-08)
(-8.34553e-08 0 -7.02424e-08)
(-7.00497e-08 0 -6.6399e-08)
(-5.76085e-08 0 -6.23659e-08)
(-4.61494e-08 0 -5.82216e-08)
(-3.56347e-08 0 -5.4097e-08)
(-2.60493e-08 0 -5.00543e-08)
(-1.73389e-08 0 -4.61647e-08)
(-9.40569e-09 0 -4.24777e-08)
(-2.30409e-09 0 -3.9008e-08)
(4.16889e-09 0 -3.5887e-08)
(1.00463e-08 0 -3.30469e-08)
(1.53632e-08 0 -3.04599e-08)
(2.01727e-08 0 -2.82118e-08)
(2.46238e-08 0 -2.62353e-08)
(2.87247e-08 0 -2.45343e-08)
(3.25001e-08 0 -2.31181e-08)
(3.60659e-08 0 -2.19144e-08)
(3.94514e-08 0 -2.09063e-08)
(4.26972e-08 0 -2.00558e-08)
(4.57866e-08 0 -1.93616e-08)
(4.88222e-08 0 -1.87413e-08)
(5.17815e-08 0 -1.81797e-08)
(5.46556e-08 0 -1.7638e-08)
(5.74605e-08 0 -1.70504e-08)
(6.01854e-08 0 -1.64439e-08)
(6.2791e-08 0 -1.5689e-08)
(6.52507e-08 0 -1.48358e-08)
(6.75643e-08 0 -1.39164e-08)
(6.96541e-08 0 -1.27078e-08)
(7.15017e-08 0 -1.14311e-08)
(7.30681e-08 0 -9.96708e-09)
(7.43168e-08 0 -8.34481e-09)
(7.51677e-08 0 -6.57571e-09)
(7.56077e-08 0 -4.76487e-09)
(7.56495e-08 0 -2.755e-09)
(7.5208e-08 0 -7.34424e-10)
(7.42878e-08 0 1.31729e-09)
(7.28948e-08 0 3.32408e-09)
(7.10319e-08 0 5.26228e-09)
(6.87196e-08 0 6.99826e-09)
(6.59713e-08 0 8.54019e-09)
(6.28292e-08 0 9.86195e-09)
(5.93498e-08 0 1.08478e-08)
(5.56062e-08 0 1.14656e-08)
(5.17314e-08 0 1.16733e-08)
(4.79294e-08 0 1.15454e-08)
(4.44782e-08 0 1.12341e-08)
(4.20016e-08 0 1.10287e-08)
(3.7151e-08 0 1.73798e-08)
(5.51211e-09 0 1.2144e-07)
(5.62852e-10 0 7.38277e-08)
(8.03605e-15 0 -5.04895e-14)
(7.2094e-16 0 -1.93043e-17)
(1.42325e-15 0 -2.51256e-18)
(1.36846e-15 0 1.43826e-17)
(1.29523e-15 0 3.1619e-17)
(1.22647e-15 0 4.89071e-17)
(1.16368e-15 0 6.59987e-17)
(1.10658e-15 0 8.26147e-17)
(1.05477e-15 0 9.85379e-17)
(1.00772e-15 0 1.13531e-16)
(9.64813e-16 0 1.27448e-16)
(9.2545e-16 0 1.40135e-16)
(8.88961e-16 0 1.51519e-16)
(8.54705e-16 0 1.616e-16)
(8.22094e-16 0 1.70317e-16)
(7.9065e-16 0 1.7774e-16)
(7.59962e-16 0 1.83872e-16)
(7.29708e-16 0 1.88794e-16)
(6.9964e-16 0 1.92588e-16)
(6.69644e-16 0 1.95328e-16)
(6.39576e-16 0 1.97117e-16)
(6.09343e-16 0 1.9812e-16)
(5.78944e-16 0 1.98389e-16)
(5.48328e-16 0 1.97986e-16)
(5.17515e-16 0 1.97065e-16)
(4.86475e-16 0 1.95711e-16)
(4.5526e-16 0 1.94005e-16)
(4.23971e-16 0 1.92071e-16)
(3.92549e-16 0 1.89941e-16)
(3.61033e-16 0 1.87749e-16)
(3.29487e-16 0 1.85444e-16)
(2.97919e-16 0 1.83221e-16)
(2.66363e-16 0 1.8106e-16)
(2.34816e-16 0 1.79023e-16)
(2.03331e-16 0 1.77141e-16)
(1.71867e-16 0 1.75476e-16)
(1.40466e-16 0 1.7408e-16)
(1.09126e-16 0 1.72943e-16)
(7.78067e-17 0 1.72095e-16)
(4.6591e-17 0 1.71568e-16)
(1.55096e-17 0 1.7135e-16)
(-2.06459e-08 0 2.34266e-07)
(-6.46519e-08 0 2.30194e-07)
(-1.05638e-07 0 2.2224e-07)
(-1.44859e-07 0 2.10624e-07)
(-1.81297e-07 0 1.95688e-07)
(-2.14307e-07 0 1.7785e-07)
(-2.43373e-07 0 1.576e-07)
(-2.68067e-07 0 1.35523e-07)
(-2.8811e-07 0 1.12173e-07)
(-3.03347e-07 0 8.81459e-08)
(-3.13815e-07 0 6.38617e-08)
(-3.1947e-07 0 4.00743e-08)
(-3.20622e-07 0 1.74494e-08)
(-3.18324e-07 0 -3.87982e-09)
(-3.12542e-07 0 -1.92897e-08)
(-3.02568e-07 0 -3.83923e-08)
(-2.88797e-07 0 -5.62194e-08)
(-2.74396e-07 0 -6.91114e-08)
(-2.58399e-07 0 -7.65384e-08)
(-2.40172e-07 0 -8.30858e-08)
(-2.20113e-07 0 -9.53054e-08)
(-2.01569e-07 0 -9.60129e-08)
(-1.82194e-07 0 -9.7949e-08)
(-1.63035e-07 0 -9.88952e-08)
(-1.44498e-07 0 -9.79512e-08)
(-1.26852e-07 0 -9.54869e-08)
(-1.09984e-07 0 -9.22843e-08)
(-9.41326e-08 0 -8.83435e-08)
(-7.93402e-08 0 -8.38576e-08)
(-6.56508e-08 0 -7.90151e-08)
(-5.30677e-08 0 -7.39734e-08)
(-4.15704e-08 0 -6.88524e-08)
(-3.11185e-08 0 -6.37841e-08)
(-2.16722e-08 0 -5.8837e-08)
(-1.31794e-08 0 -5.41188e-08)
(-5.49873e-09 0 -4.96641e-08)
(1.31949e-09 0 -4.54673e-08)
(7.4741e-09 0 -4.17828e-08)
(1.29879e-08 0 -3.83855e-08)
(1.80235e-08 0 -3.53161e-08)
(2.24852e-08 0 -3.26758e-08)
(2.6594e-08 0 -3.03985e-08)
(3.04522e-08 0 -2.8394e-08)
(3.39177e-08 0 -2.67896e-08)
(3.72525e-08 0 -2.54331e-08)
(4.04142e-08 0 -2.43297e-08)
(4.35086e-08 0 -2.3404e-08)
(4.65007e-08 0 -2.26559e-08)
(4.94318e-08 0 -2.2033e-08)
(5.23548e-08 0 -2.14519e-08)
(5.5244e-08 0 -2.08931e-08)
(5.80913e-08 0 -2.02882e-08)
(6.08877e-08 0 -1.96378e-08)
(6.36028e-08 0 -1.87877e-08)
(6.62176e-08 0 -1.78696e-08)
(6.8699e-08 0 -1.67727e-08)
(7.09743e-08 0 -1.54039e-08)
(7.30171e-08 0 -1.38716e-08)
(7.47688e-08 0 -1.21385e-08)
(7.61664e-08 0 -1.01892e-08)
(7.71894e-08 0 -8.01628e-09)
(7.77708e-08 0 -5.79094e-09)
(7.78552e-08 0 -3.38526e-09)
(7.74563e-08 0 -8.74218e-10)
(7.65336e-08 0 1.65538e-09)
(7.50819e-08 0 4.22693e-09)
(7.30934e-08 0 6.5176e-09)
(7.0598e-08 0 8.74311e-09)
(6.76006e-08 0 1.07519e-08)
(6.41334e-08 0 1.24503e-08)
(6.02623e-08 0 1.37659e-08)
(5.60832e-08 0 1.46017e-08)
(5.17308e-08 0 1.48764e-08)
(4.75036e-08 0 1.44699e-08)
(4.39728e-08 0 1.33505e-08)
(4.1222e-08 0 1.20158e-08)
(2.1835e-08 0 3.97742e-08)
(3.22236e-09 0 1.51516e-07)
(5.52362e-10 0 7.25022e-08)
(7.97742e-15 0 -5.98402e-14)
(7.30164e-16 0 -2.29336e-17)
(1.44177e-15 0 -2.64698e-18)
(1.38724e-15 0 1.77534e-17)
(1.31426e-15 0 3.86397e-17)
(1.24543e-15 0 5.96087e-17)
(1.18225e-15 0 8.02779e-17)
(1.12449e-15 0 1.00337e-16)
(1.07176e-15 0 1.19455e-16)
(1.02357e-15 0 1.37405e-16)
(9.79392e-16 0 1.54e-16)
(9.38623e-16 0 1.69076e-16)
(9.00665e-16 0 1.82548e-16)
(8.6491e-16 0 1.94387e-16)
(8.30851e-16 0 2.04582e-16)
(7.97981e-16 0 2.13164e-16)
(7.65897e-16 0 2.20196e-16)
(7.34361e-16 0 2.25779e-16)
(7.03124e-16 0 2.30018e-16)
(6.72033e-16 0 2.33048e-16)
(6.41003e-16 0 2.34919e-16)
(6.09942e-16 0 2.3586e-16)
(5.78778e-16 0 2.35922e-16)
(5.47532e-16 0 2.3523e-16)
(5.16202e-16 0 2.33927e-16)
(4.84749e-16 0 2.32128e-16)
(4.53223e-16 0 2.29977e-16)
(4.21686e-16 0 2.27547e-16)
(3.90129e-16 0 2.2489e-16)
(3.58541e-16 0 2.2216e-16)
(3.26985e-16 0 2.19358e-16)
(2.95479e-16 0 2.16618e-16)
(2.64026e-16 0 2.13981e-16)
(2.32665e-16 0 2.11531e-16)
(2.01377e-16 0 2.09277e-16)
(1.70161e-16 0 2.07291e-16)
(1.3907e-16 0 2.05606e-16)
(1.08061e-16 0 2.04231e-16)
(7.70932e-17 0 2.03228e-16)
(4.61877e-17 0 2.02608e-16)
(1.53752e-17 0 2.02359e-16)
(-2.27473e-08 0 2.80607e-07)
(-7.12988e-08 0 2.75589e-07)
(-1.16449e-07 0 2.65814e-07)
(-1.59527e-07 0 2.51563e-07)
(-1.99403e-07 0 2.33238e-07)
(-2.35319e-07 0 2.11402e-07)
(-2.66704e-07 0 1.86649e-07)
(-2.93075e-07 0 1.59698e-07)
(-3.1411e-07 0 1.31269e-07)
(-3.29757e-07 0 1.01964e-07)
(-3.40042e-07 0 7.23684e-08)
(-3.44495e-07 0 4.46482e-08)
(-3.44658e-07 0 1.59349e-08)
(-3.41221e-07 0 -7.54476e-09)
(-3.32847e-07 0 -2.57451e-08)
(-3.19697e-07 0 -5.2449e-08)
(-3.04059e-07 0 -7.06652e-08)
(-2.87167e-07 0 -8.51943e-08)
(-2.68779e-07 0 -9.06197e-08)
(-2.46718e-07 0 -1.08331e-07)
(-2.25508e-07 0 -1.12008e-07)
(-2.04401e-07 0 -1.1598e-07)
(-1.83294e-07 0 -1.17082e-07)
(-1.62273e-07 0 -1.18524e-07)
(-1.42597e-07 0 -1.1585e-07)
(-1.23684e-07 0 -1.12801e-07)
(-1.05952e-07 0 -1.0854e-07)
(-8.94237e-08 0 -1.03479e-07)
(-7.41687e-08 0 -9.78474e-08)
(-6.01881e-08 0 -9.1846e-08)
(-4.74648e-08 0 -8.56671e-08)
(-3.59727e-08 0 -7.94496e-08)
(-2.56385e-08 0 -7.33359e-08)
(-1.63988e-08 0 -6.74191e-08)
(-8.17168e-09 0 -6.18053e-08)
(-8.63715e-10 0 -5.65231e-08)
(5.62022e-09 0 -5.15931e-08)
(1.1362e-08 0 -4.73026e-08)
(1.6465e-08 0 -4.3342e-08)
(2.10604e-08 0 -3.98128e-08)
(2.51542e-08 0 -3.67688e-08)
(2.88488e-08 0 -3.42004e-08)
(3.23005e-08 0 -3.19841e-08)
(3.55464e-08 0 -3.01378e-08)
(3.85313e-08 0 -2.87032e-08)
(4.14608e-08 0 -2.75431e-08)
(4.43329e-08 0 -2.66081e-08)
(4.72279e-08 0 -2.58267e-08)
(5.00301e-08 0 -2.52479e-08)
(5.29083e-08 0 -2.47089e-08)
(5.58123e-08 0 -2.41789e-08)
(5.87393e-08 0 -2.35971e-08)
(6.16433e-08 0 -2.29475e-08)
(6.45089e-08 0 -2.20141e-08)
(6.73195e-08 0 -2.10867e-08)
(7.00031e-08 0 -1.98039e-08)
(7.24898e-08 0 -1.83027e-08)
(7.4775e-08 0 -1.65209e-08)
(7.67653e-08 0 -1.45059e-08)
(7.83871e-08 0 -1.21675e-08)
(7.9604e-08 0 -9.66924e-09)
(8.03489e-08 0 -6.96707e-09)
(8.05665e-08 0 -4.01248e-09)
(8.02087e-08 0 -1.01394e-09)
(7.92807e-08 0 2.10728e-09)
(7.77639e-08 0 5.07169e-09)
(7.56555e-08 0 8.0119e-09)
(7.29448e-08 0 1.07708e-08)
(6.96553e-08 0 1.32684e-08)
(6.58278e-08 0 1.54367e-08)
(6.14937e-08 0 1.71647e-08)
(5.67104e-08 0 1.83249e-08)
(5.1588e-08 0 1.87767e-08)
(4.6412e-08 0 1.81447e-08)
(4.20915e-08 0 1.58172e-08)
(4.17072e-08 0 1.00353e-08)
(9.05233e-09 0 8.02882e-08)
(1.35145e-09 0 1.24165e-07)
(5.40881e-10 0 7.22429e-08)
(7.95318e-15 0 -6.90732e-14)
(7.41252e-16 0 -2.65732e-17)
(1.46393e-15 0 -2.39883e-18)
(1.40975e-15 0 2.18582e-17)
(1.33709e-15 0 4.6653e-17)
(1.26812e-15 0 7.15098e-17)
(1.20441e-15 0 9.59633e-17)
(1.14576e-15 0 1.196e-16)
(1.09184e-15 0 1.42058e-16)
(1.04226e-15 0 1.63058e-16)
(9.96484e-16 0 1.82352e-16)
(9.54008e-16 0 1.99795e-16)
(9.14283e-16 0 2.15315e-16)
(8.76718e-16 0 2.28829e-16)
(8.4085e-16 0 2.4041e-16)
(8.06274e-16 0 2.50046e-16)
(7.72587e-16 0 2.57884e-16)
(7.3952e-16 0 2.64036e-16)
(7.06878e-16 0 2.68596e-16)
(6.74535e-16 0 2.71739e-16)
(6.42399e-16 0 2.73611e-16)
(6.10356e-16 0 2.74314e-16)
(5.78323e-16 0 2.74086e-16)
(5.46332e-16 0 2.73032e-16)
(5.14413e-16 0 2.71264e-16)
(4.82515e-16 0 2.68947e-16)
(4.50679e-16 0 2.66249e-16)
(4.18874e-16 0 2.6324e-16)
(3.87141e-16 0 2.60014e-16)
(3.55512e-16 0 2.56695e-16)
(3.23955e-16 0 2.53376e-16)
(2.92543e-16 0 2.50098e-16)
(2.61265e-16 0 2.46955e-16)
(2.30111e-16 0 2.4407e-16)
(1.99092e-16 0 2.41423e-16)
(1.68176e-16 0 2.39117e-16)
(1.37405e-16 0 2.37153e-16)
(1.06758e-16 0 2.3555e-16)
(7.6204e-17 0 2.34371e-16)
(4.57328e-17 0 2.33668e-16)
(1.52511e-17 0 2.3342e-16)
(-2.53075e-08 0 3.31909e-07)
(-7.94095e-08 0 3.25795e-07)
(-1.29645e-07 0 3.13897e-07)
(-1.77416e-07 0 2.96582e-07)
(-2.21455e-07 0 2.74327e-07)
(-2.60884e-07 0 2.47847e-07)
(-2.95026e-07 0 2.17919e-07)
(-3.23343e-07 0 1.85352e-07)
(-3.45541e-07 0 1.51081e-07)
(-3.61848e-07 0 1.15309e-07)
(-3.7114e-07 0 8.14441e-08)
(-3.74702e-07 0 4.63833e-08)
(-3.74036e-07 0 1.30322e-08)
(-3.6789e-07 0 -1.06378e-08)
(-3.56208e-07 0 -3.96698e-08)
(-3.39837e-07 0 -6.71552e-08)
(-3.22444e-07 0 -8.86366e-08)
(-3.01731e-07 0 -1.03096e-07)
(-2.79498e-07 0 -1.0968e-07)
(-2.54018e-07 0 -1.3262e-07)
(-2.314e-07 0 -1.33062e-07)
(-2.07096e-07 0 -1.37695e-07)
(-1.83712e-07 0 -1.38922e-07)
(-1.60939e-07 0 -1.38813e-07)
(-1.39689e-07 0 -1.35431e-07)
(-1.19469e-07 0 -1.31152e-07)
(-1.00746e-07 0 -1.25609e-07)
(-8.34985e-08 0 -1.192e-07)
(-6.77501e-08 0 -1.12211e-07)
(-5.34956e-08 0 -1.04877e-07)
(-4.06838e-08 0 -9.73963e-08)
(-2.92524e-08 0 -8.99479e-08)
(-1.91059e-08 0 -8.26825e-08)
(-1.01618e-08 0 -7.57129e-08)
(-2.29885e-09 0 -6.91384e-08)
(4.5264e-09 0 -6.29209e-08)
(1.06326e-08 0 -5.73717e-08)
(1.58497e-08 0 -5.23177e-08)
(2.04362e-08 0 -4.78404e-08)
(2.44752e-08 0 -4.38851e-08)
(2.81909e-08 0 -4.04078e-08)
(3.13848e-08 0 -3.75727e-08)
(3.43693e-08 0 -3.51877e-08)
(3.72227e-08 0 -3.32196e-08)
(3.99483e-08 0 -3.1627e-08)
(4.25482e-08 0 -3.04943e-08)
(4.51704e-08 0 -2.96178e-08)
(4.78528e-08 0 -2.89142e-08)
(5.06406e-08 0 -2.8334e-08)
(5.34092e-08 0 -2.79496e-08)
(5.63368e-08 0 -2.75119e-08)
(5.93355e-08 0 -2.70107e-08)
(6.23697e-08 0 -2.63259e-08)
(6.54403e-08 0 -2.55061e-08)
(6.84993e-08 0 -2.45227e-08)
(7.14447e-08 0 -2.30672e-08)
(7.42365e-08 0 -2.1435e-08)
(7.68261e-08 0 -1.94485e-08)
(7.91114e-08 0 -1.71265e-08)
(8.10246e-08 0 -1.44055e-08)
(8.25002e-08 0 -1.14659e-08)
(8.34215e-08 0 -8.25602e-09)
(8.37786e-08 0 -4.77551e-09)
(8.35267e-08 0 -1.14971e-09)
(8.26125e-08 0 2.48662e-09)