/*--------------------------------*- C++ -*----------------------------------*\
  =========                 |
  \\      /  F ield         | OpenFOAM: The Open Source CFD Toolbox
   \\    /   O peration     | Website:  https://openfoam.org
    \\  /    A nd           | Version:  6
     \\/     M anipulation  |
\*---------------------------------------------------------------------------*/
FoamFile
{
    version     2.0;
    format      ascii;
    class       volScalarField;
    location    "4500";
    object      T;
}
// * * * * * * * * * * * * * * * * * * * * * * * * * * * * * * * * * * * * * //

dimensions      [0 0 0 1 0 0 0];

internalField   nonuniform List<scalar> 
4800
(
552.498
552.395
552.29
552.184
552.077
551.968
551.857
551.746
551.634
551.522
551.411
551.304
551.2
551.101
551.008
550.921
550.84
550.765
550.695
550.631
550.571
550.517
550.467
550.42
550.378
550.338
550.301
550.267
550.235
550.204
550.175
550.146
550.118
550.09
550.063
550.035
550.006
549.977
549.947
549.915
549.882
549.848
549.812
549.774
549.734
549.692
549.647
549.6
549.549
549.495
549.438
549.377
549.312
549.243
549.171
549.095
549.015
548.932
548.845
548.756
548.662
548.563
548.46
548.35
548.234
548.109
547.977
547.835
547.686
547.529
547.366
547.198
547.026
546.85
546.671
546.492
546.312
546.134
545.957
545.78
545.605
545.431
545.26
545.096
544.943
544.799
544.662
544.529
544.4
544.272
544.146
544.021
543.898
543.775
543.652
543.53
543.409
543.287
543.166
543.045
542.923
542.802
542.681
542.56
542.438
542.317
542.195
542.074
541.952
541.83
541.709
541.587
541.465
541.343
541.221
541.099
540.977
540.855
540.733
540.611
552.498
552.394
552.289
552.182
552.075
551.966
551.855
551.744
551.632
551.521
551.411
551.303
551.2
551.101
551.008
550.922
550.841
550.766
550.696
550.632
550.573
550.519
550.469
550.423
550.381
550.342
550.306
550.272
550.24
550.21
550.181
550.153
550.125
550.098
550.07
550.043
550.014
549.985
549.956
549.924
549.892
549.858
549.822
549.783
549.743
549.701
549.655
549.607
549.556
549.502
549.444
549.382
549.316
549.247
549.173
549.096
549.015
548.932
548.844
548.754
548.659
548.56
548.456
548.345
548.228
548.104
547.971
547.83
547.681
547.525
547.363
547.196
547.024
546.848
546.671
546.492
546.313
546.134
545.956
545.779
545.601
545.425
545.251
545.086
544.935
544.794
544.659
544.527
544.398
544.271
544.146
544.021
543.897
543.774
543.652
543.53
543.409
543.287
543.166
543.045
542.923
542.802
542.681
542.56
542.438
542.317
542.195
542.074
541.952
541.83
541.709
541.587
541.465
541.343
541.221
541.099
540.977
540.855
540.733
540.611
552.498
552.392
552.287
552.18
552.072
551.962
551.852
551.741
551.63
551.519
551.409
551.302
551.199
551.101
551.009
550.923
550.842
550.768
550.699
550.635
550.577
550.523
550.475
550.43
550.389
550.351
550.315
550.283
550.252
550.222
550.194
550.166
550.139
550.113
550.086
550.059
550.031
550.003
549.973
549.943
549.91
549.876
549.84
549.802
549.761
549.718
549.672
549.623
549.571
549.515
549.456
549.392
549.325
549.253
549.178
549.1
549.018
548.932
548.843
548.751
548.655
548.554
548.448
548.337
548.219
548.094
547.961
547.821
547.673
547.519
547.358
547.191
547.021
546.847
546.67
546.493
546.314
546.136
545.957
545.778
545.597
545.416
545.234
545.062
544.916
544.782
544.652
544.524
544.396
544.27
544.145
544.02
543.897
543.774
543.652
543.53
543.408
543.287
543.166
543.045
542.923
542.802
542.681
542.56
542.438
542.317
542.195
542.074
541.952
541.83
541.709
541.587
541.465
541.343
541.221
541.099
540.977
540.855
540.733
540.611
552.497
552.391
552.284
552.177
552.068
551.959
551.848
551.737
551.627
551.516
551.408
551.302
551.2
551.103
551.011
550.926
550.846
550.772
550.704
550.642
550.584
550.532
550.485
550.441
550.401
550.364
550.33
550.299
550.269
550.24
550.213
550.186
550.161
550.135
550.109
550.082
550.056
550.028
549.999
549.969
549.937
549.903
549.867
549.829
549.788
549.744
549.697
549.647
549.593
549.535
549.473
549.407
549.337
549.263
549.186
549.105
549.021
548.933
548.843
548.748
548.65
548.547
548.439
548.326
548.207
548.081
547.949
547.809
547.663
547.51
547.351
547.187
547.018
546.846
546.672
546.495
546.318
546.14
545.96
545.778
545.593
545.403
545.206
545.011
544.887
544.768
544.644
544.519
544.394
544.268
544.144
544.02
543.896
543.774
543.652
543.53
543.408
543.287
543.166
543.045
542.923
542.802
542.681
542.56
542.438
542.317
542.195
542.074
541.952
541.831
541.709
541.587
541.465
541.343
541.221
541.099
540.977
540.855
540.733
540.611
552.497
552.389
552.282
552.174
552.065
551.955
551.845
551.734
551.624
551.514
551.407
551.302
551.201
551.106
551.015
550.931
550.852
550.78
550.713
550.652
550.596
550.546
550.499
550.457
550.419
550.383
550.351
550.32
550.291
550.264
550.238
550.213
550.188
550.163
550.138
550.113
550.087
550.06
550.032
550.003
549.971
549.938
549.901
549.863
549.822
549.777
549.729
549.677
549.622
549.561
549.496
549.427
549.354
549.277
549.196
549.113
549.026
548.935
548.842
548.744
548.643
548.538
548.428
548.313
548.193
548.067
547.935
547.797
547.652
547.501
547.345
547.183
547.017
546.847
546.674
546.5
546.323
546.145
545.965
545.781
545.593
545.395
545.174
544.887
544.854
544.756
544.639
544.516
544.392
544.267
544.142
544.019
543.896
543.773
543.651
543.53
543.408
543.287
543.166
543.045
542.923
542.802
542.681
542.56
542.438
542.317
542.196
542.074
541.952
541.831
541.709
541.587
541.465
541.343
541.221
541.099
540.977
540.855
540.733
540.611
552.496
552.388
552.28
552.172
552.062
551.953
551.842
551.732
551.622
551.513
551.407
551.304
551.205
551.111
551.022
550.939
550.862
550.791
550.726
550.666
550.613
550.563
550.519
550.478
550.441
550.407
550.376
550.347
550.32
550.294
550.269
550.245
550.221
550.198
550.174
550.15
550.125
550.099
550.072
550.043
550.012
549.979
549.942
549.903
549.862
549.816
549.767
549.713
549.655
549.592
549.524
549.451
549.374
549.293
549.209
549.121
549.031
548.937
548.841
548.74
548.636
548.528
548.417
548.3
548.179
548.053
547.922
547.785
547.642
547.493
547.339
547.18
547.016
546.849
546.679
546.506
546.33
546.152
545.971
545.787
545.599
545.405
545.205
545.009
544.884
544.764
544.641
544.515
544.39
544.265
544.141
544.018
543.895
543.773
543.651
543.529
543.408
543.287
543.166
543.045
542.924
542.802
542.681
542.56
542.439
542.317
542.196
542.074
541.952
541.831
541.709
541.587
541.465
541.343
541.221
541.099
540.977
540.855
540.733
540.611
552.496
552.388
552.279
552.171
552.061
551.951
551.841
551.731
551.621
551.513
551.408
551.307
551.21
551.118
551.031
550.95
550.875
550.806
550.743
550.686
550.633
550.586
550.543
550.504
550.469
550.437
550.407
550.379
550.353
550.329
550.305
550.283
550.26
550.238
550.216
550.193
550.169
550.144
550.118
550.089
550.059
550.025
549.988
549.949
549.906
549.86
549.809
549.753
549.692
549.626
549.554
549.477
549.396
549.311
549.223
549.132
549.037
548.94
548.84
548.736
548.629
548.518
548.404
548.287
548.166
548.04
547.909
547.774
547.633
547.486
547.334
547.178
547.017
546.852
546.684
546.513
546.338
546.16
545.979
545.795
545.608
545.42
545.233
545.058
544.91
544.774
544.643
544.515
544.389
544.263
544.139
544.016
543.894
543.772
543.65
543.529
543.408
543.287
543.166
543.045
542.924
542.803
542.681
542.56
542.439
542.317
542.196
542.074
541.953
541.831
541.709
541.587
541.465
541.343
541.221
541.099
540.977
540.855
540.733
540.611
552.496
552.388
552.279
552.171
552.062
551.952
551.843
551.733
551.625
551.518
551.414
551.314
551.219
551.129
551.044
550.965
550.892
550.826
550.764
550.709
550.659
550.614
550.572
550.535
550.502
550.471
550.442
550.416
550.392
550.369
550.347
550.325
550.304
550.284
550.262
550.24
550.217
550.193
550.168
550.14
550.109
550.076
550.039
549.999
549.955
549.907
549.854
549.796
549.732
549.662
549.586
549.505
549.419
549.33
549.237
549.142
549.043
548.942
548.838
548.731
548.621
548.508
548.392
548.274
548.152
548.026
547.897
547.763
547.623
547.479
547.33
547.176
547.018
546.856
546.69
546.52
546.346
546.169
545.988
545.804
545.618
545.432
545.251
545.08
544.923
544.78
544.644
544.514
544.386
544.261
544.137
544.015
543.893
543.771
543.65
543.529
543.408
543.287
543.166
543.045
542.924
542.803
542.682
542.56
542.439
542.318
542.196
542.074
541.953
541.831
541.709
541.587
541.465
541.344
541.222
541.099
540.977
540.855
540.733
540.611
552.496
552.388
552.28
552.172
552.064
551.955
551.846
551.738
551.631
551.526
551.424
551.325
551.232
551.144
551.061
550.984
550.914
550.849
550.791
550.737
550.689
550.646
550.607
550.571
550.539
550.51
550.483
550.458
550.436
550.414
550.393
550.373
550.354
550.334
550.314
550.293
550.271
550.248
550.222
550.195
550.164
550.13
550.093
550.052
550.007
549.957
549.902
549.84
549.772
549.698
549.617
549.532
549.441
549.348
549.251
549.151
549.048
548.943
548.836
548.725
548.612
548.497
548.379
548.26
548.138
548.013
547.884
547.751
547.614
547.472
547.326
547.174
547.019
546.859
546.694
546.526
546.353
546.176
545.995
545.811
545.625
545.439
545.258
545.085
544.924
544.776
544.639
544.509
544.382
544.258
544.135
544.013
543.891
543.77
543.649
543.528
543.407
543.287
543.166
543.045
542.924
542.803
542.682
542.561
542.439
542.318
542.196
542.075
541.953
541.831
541.709
541.588
541.466
541.344
541.222
541.1
540.977
540.855
540.733
540.611
552.496
552.389
552.282
552.175
552.067
551.959
551.852
551.745
551.639
551.535
551.435
551.339
551.247
551.162
551.082
551.008
550.94
550.878
550.821
550.77
550.724
550.683
550.646
550.612
550.582
550.555
550.529
550.506
550.485
550.465
550.446
550.427
550.409
550.39
550.371
550.35
550.329
550.306
550.281
550.254
550.222
550.188
550.15
550.107
550.061
550.008
549.95
549.885
549.812
549.733
549.648
549.557
549.462
549.364
549.263
549.159
549.052
548.943
548.831
548.717
548.602
548.484
548.365
548.245
548.122
547.998
547.87
547.739
547.604
547.464
547.32
547.171
547.018
546.859
546.697
546.53
546.358
546.181
545.999
545.814
545.627
545.439
545.255
545.077
544.91
544.763
544.628
544.5
544.376
544.253
544.131
544.01
543.889
543.769
543.648
543.528
543.407
543.286
543.166
543.045
542.924
542.803
542.682
542.561
542.439
542.318
542.197
542.075
541.953
541.831
541.71
541.588
541.466
541.344
541.222
541.1
540.978
540.855
540.733
540.611
552.497
552.391
552.285
552.179
552.072
551.966
551.859
551.753
551.648
551.546
551.448
551.355
551.266
551.183
551.106
551.035
550.97
550.911
550.857
550.809
550.765
550.726
550.691
550.659
550.631
550.605
550.582
550.56
550.541
550.522
550.504
550.486
550.469
550.451
550.433
550.413
550.392
550.37
550.345
550.316
550.285
550.249
550.21
550.166
550.117
550.062
550
549.93
549.853
549.768
549.677
549.582
549.482
549.378
549.272
549.164
549.054
548.941
548.825
548.708
548.589
548.47
548.349
548.228
548.105
547.981
547.855
547.725
547.592
547.454
547.312
547.165
547.013
546.857
546.696
546.529
546.358
546.181
545.999
545.813
545.623
545.432
545.241
545.053
544.877
544.736
544.61
544.488
544.368
544.248
544.127
544.007
543.887
543.767
543.647
543.527
543.407
543.286
543.166
543.045
542.924
542.803
542.682
542.561
542.44
542.318
542.197
542.075
541.953
541.832
541.71
541.588
541.466
541.344
541.222
541.1
540.978
540.855
540.733
540.611
552.498
552.394
552.289
552.184
552.079
551.974
551.869
551.765
551.662
551.563
551.467
551.375
551.289
551.209
551.135
551.067
551.005
550.949
550.898
550.852
550.811
550.774
550.741
550.712
550.686
550.662
550.641
550.621
550.603
550.586
550.569
550.552
550.536
550.519
550.501
550.482
550.461
550.439
550.413
550.384
550.352
550.315
550.274
550.228
550.176
550.117
550.05
549.975
549.892
549.802
549.705
549.604
549.499
549.391
549.28
549.168
549.053
548.936
548.817
548.697
548.575
548.454
548.332
548.209
548.086
547.962
547.836
547.707
547.576
547.44
547.299
547.154
547.004
546.849
546.688
546.523
546.352
546.175
545.993
545.806
545.615
545.419
545.22
545.013
544.809
544.695
544.587
544.475
544.359
544.242
544.123
544.005
543.885
543.766
543.646
543.526
543.406
543.286
543.166
543.045
542.924
542.804
542.683
542.561
542.44
542.319
542.197
542.075
541.954
541.832
541.71
541.588
541.466
541.344
541.222
541.1
540.978
540.856
540.733
540.611
552.499
552.397
552.294
552.192
552.088
551.985
551.881
551.779
551.678
551.58
551.487
551.399
551.316
551.239
551.169
551.104
551.045
550.992
550.944
550.902
550.863
550.829
550.799
550.772
550.748
550.727
550.707
550.689
550.673
550.657
550.641
550.626
550.61
550.594
550.577
550.558
550.538
550.515
550.489
550.459
550.425
550.387
550.344
550.294
550.238
550.175
550.102
550.022
549.932
549.835
549.733
549.625
549.515
549.402
549.287
549.17
549.051
548.93
548.807
548.684
548.56
548.436
548.312
548.188
548.064
547.939
547.813
547.684
547.554
547.419
547.28
547.136
546.987
546.833
546.674
546.509
546.338
546.162
545.98
545.794
545.602
545.405
545.198
544.965
544.651
544.648
544.568
544.464
544.352
544.237
544.12
544.002
543.883
543.765
543.645
543.526
543.406
543.286
543.166
543.045
542.925
542.804
542.683
542.562
542.44
542.319
542.197
542.076
541.954
541.832
541.71
541.588
541.466
541.344
541.222
541.1
540.978
540.856
540.733
540.611
552.5
552.4
552.3
552.2
552.099
551.997
551.896
551.795
551.697
551.602
551.511
551.426
551.347
551.274
551.207
551.146
551.091
551.042
550.997
550.958
550.923
550.891
550.864
550.84
550.818
550.799
550.782
550.766
550.751
550.737
550.722
550.708
550.693
550.678
550.661
550.643
550.623
550.599
550.573
550.542
550.506
550.466
550.42
550.367
550.307
550.238
550.159
550.071
549.975
549.871
549.761
549.647
549.531
549.413
549.293
549.172
549.048
548.923
548.797
548.67
548.543
548.416
548.29
548.163
548.037
547.911
547.784
547.655
547.524
547.39
547.252
547.109
546.961
546.808
546.649
546.485
546.315
546.14
545.96
545.775
545.586
545.393
545.194
544.989
544.793
544.679
544.572
544.461
544.348
544.233
544.116
543.999
543.881
543.763
543.645
543.525
543.406
543.286
543.166
543.046
542.925
542.804
542.683
542.562
542.441
542.319
542.198
542.076
541.954
541.832
541.711
541.589
541.467
541.344
541.222
541.1
540.978
540.856
540.733
540.611
552.502
552.405
552.308
552.21
552.112
552.012
551.913
551.816
551.72
551.628
551.541
551.459
551.384
551.315
551.252
551.195
551.144
551.098
551.057
551.021
550.99
550.962
550.937
550.916
550.897
550.881
550.866
550.852
550.839
550.826
550.814
550.8
550.787
550.772
550.756
550.738
550.718
550.694
550.667
550.635
550.598
550.555
550.506
550.449
550.383
550.308
550.223
550.127
550.022
549.91
549.793
549.673
549.55
549.427
549.301
549.175
549.046
548.917
548.787
548.656
548.526
548.395
548.265
548.136
548.006
547.878
547.748
547.618
547.486
547.351
547.213
547.071
546.924
546.771
546.613
546.45
546.282
546.108
545.93
545.749
545.565
545.378
545.191
545.007
544.837
544.7
544.578
544.46
544.344
544.229
544.113
543.996
543.879
543.762
543.644
543.525
543.406
543.286
543.166
543.046
542.925
542.805
542.684
542.562
542.441
542.32
542.198
542.076
541.955
541.833
541.711
541.589
541.467
541.345
541.222
541.1
540.978
540.856
540.733
540.611
552.503
552.41
552.316
552.222
552.126
552.03
551.935
551.84
551.748
551.659
551.576
551.498
551.426
551.361
551.303
551.25
551.203
551.162
551.125
551.093
551.065
551.041
551.02
551.002
550.986
550.972
550.96
550.948
550.937
550.927
550.916
550.904
550.892
550.878
550.863
550.846
550.826
550.802
550.774
550.74
550.701
550.656
550.603
550.541
550.47
550.388
550.295
550.191
550.077
549.956
549.831
549.703
549.574
549.444
549.313
549.18
549.047
548.913
548.778
548.643
548.508
548.373
548.239
548.105
547.971
547.838
547.705
547.573
547.439
547.303
547.164
547.021
546.874
546.722
546.565
546.404
546.237
546.066
545.891
545.714
545.535
545.356
545.178
545.007
544.847
544.705
544.577
544.456
544.34
544.224
544.109
543.993
543.877
543.76
543.643
543.524
543.405
543.286
543.166
543.046
542.926
542.805
542.684
542.563
542.441
542.32
542.198
542.077
541.955
541.833
541.711
541.589
541.467
541.345
541.223
541.1
540.978
540.856
540.733
540.611
552.506
552.416
552.327
552.237
552.145
552.053
551.96
551.869
551.781
551.696
551.616
551.543
551.476
551.415
551.361
551.313
551.271
551.234
551.202
551.174
551.15
551.13
551.112
551.098
551.085
551.074
551.064
551.055
551.047
551.039
551.03
551.02
551.01
550.997
550.983
550.967
550.947
550.923
550.895
550.86
550.819
550.771
550.714
550.648
550.57
550.481
550.379
550.265
550.142
550.012
549.877
549.741
549.604
549.467
549.329
549.192
549.053
548.914
548.774
548.633
548.492
548.351
548.21
548.069
547.93
547.791
547.654
547.517
547.38
547.242
547.102
546.959
546.812
546.661
546.505
546.346
546.182
546.014
545.843
545.67
545.496
545.324
545.155
544.992
544.836
544.694
544.566
544.447
544.332
544.218
544.104
543.99
543.875
543.758
543.641
543.523
543.405
543.286
543.166
543.046
542.926
542.805
542.684
542.563
542.442
542.32
542.199
542.077
541.955
541.833
541.711
541.589
541.467
541.345
541.223
541.1
540.978
540.856
540.734
540.611
552.508
552.425
552.341
552.255
552.168
552.08
551.992
551.905
551.821
551.74
551.665
551.596
551.533
551.478
551.429
551.386
551.349
551.317
551.289
551.265
551.246
551.229
551.216
551.204
551.195
551.187
551.18
551.174
551.168
551.163
551.156
551.149
551.14
551.13
551.117
551.102
551.083
551.06
551.031
550.995
550.952
550.901
550.84
550.769
550.685
550.588
550.478
550.354
550.221
550.08
549.936
549.79
549.644
549.5
549.356
549.212
549.067
548.922
548.775
548.627
548.478
548.329
548.18
548.031
547.883
547.737
547.594
547.452
547.311
547.17
547.028
546.884
546.737
546.587
546.434
546.277
546.116
545.952
545.785
545.616
545.448
545.281
545.118
544.96
544.806
544.665
544.544
544.431
544.321
544.21
544.098
543.986
543.872
543.756
543.64
543.523
543.404
543.286
543.166
543.046
542.926
542.805
542.685
542.563
542.442
542.321
542.199
542.077
541.956
541.834
541.712
541.59
541.467
541.345
541.223
541.101
540.978
540.856
540.734
540.611
552.512
552.435
552.358
552.279
552.197
552.115
552.031
551.949
551.869
551.793
551.722
551.658
551.601
551.551
551.507
551.47
551.438
551.41
551.388
551.369
551.353
551.341
551.331
551.324
551.317
551.312
551.308
551.305
551.302
551.299
551.295
551.291
551.284
551.276
551.265
551.251
551.233
551.21
551.18
551.144
551.099
551.045
550.98
550.903
550.813
550.709
550.59
550.457
550.313
550.162
550.008
549.853
549.699
549.547
549.397
549.246
549.094
548.941
548.786
548.628
548.469
548.309
548.149
547.99
547.832
547.678
547.526
547.377
547.23
547.085
546.94
546.795
546.649
546.501
546.351
546.197
546.04
545.881
545.718
545.555
545.391
545.23
545.07
544.914
544.758
544.613
544.511
544.411
544.307
544.201
544.092
543.981
543.868
543.754
543.638
543.522
543.404
543.285
543.166
543.046
542.926
542.806
542.685
542.564
542.443
542.321
542.199
542.078
541.956
541.834
541.712
541.59
541.468
541.345
541.223
541.101
540.978
540.856
540.734
540.611
552.516
552.448
552.379
552.307
552.233
552.156
552.079
552.002
551.928
551.857
551.791
551.732
551.681
551.636
551.599
551.567
551.54
551.518
551.5
551.486
551.476
551.468
551.462
551.457
551.454
551.452
551.45
551.449
551.449
551.449
551.447
551.445
551.441
551.434
551.425
551.412
551.394
551.371
551.342
551.304
551.257
551.199
551.131
551.049
550.952
550.841
550.714
550.572
550.419
550.259
550.095
549.932
549.77
549.611
549.454
549.297
549.139
548.977
548.811
548.642
548.47
548.296
548.123
547.95
547.78
547.614
547.452
547.294
547.14
546.989
546.841
546.695
546.549
546.403
546.256
546.107
545.955
545.801
545.644
545.487
545.329
545.174
545.02
544.864
544.693
544.514
544.473
544.391
544.295
544.192
544.085
543.976
543.865
543.751
543.636
543.52
543.403
543.285
543.166
543.046
542.926
542.806
542.685
542.564
542.443
542.321
542.2
542.078
541.956
541.834
541.712
541.59
541.468
541.346
541.223
541.101
540.978
540.856
540.734
540.611
552.521
552.462
552.402
552.34
552.274
552.206
552.136
552.066
551.998
551.933
551.874
551.821
551.775
551.737
551.706
551.68
551.659
551.643
551.631
551.622
551.616
551.612
551.61
551.609
551.608
551.609
551.609
551.61
551.612
551.613
551.614
551.613
551.61
551.604
551.595
551.582
551.564
551.541
551.509
551.469
551.419
551.358
551.285
551.198
551.096
550.979
550.845
550.696
550.536
550.368
550.197
550.027
549.859
549.694
549.532
549.369
549.204
549.033
548.856
548.673
548.486
548.297
548.107
547.919
547.734
547.552
547.376
547.207
547.044
546.886
546.733
546.584
546.438
546.294
546.15
546.007
545.862
545.714
545.565
545.415
545.265
545.117
544.973
544.83
544.689
544.562
544.473
544.382
544.286
544.184
544.079
543.971
543.861
543.748
543.634
543.519
543.402
543.284
543.166
543.046
542.926
542.806
542.685
542.564
542.443
542.322
542.2
542.078
541.956
541.834
541.712
541.59
541.468
541.346
541.223
541.101
540.979
540.856
540.734
540.611
552.526
552.478
552.428
552.375
552.319
552.261
552.2
552.139
552.079
552.022
551.97
551.924
551.886
551.855
551.831
551.813
551.799
551.79
551.784
551.781
551.78
551.781
551.783
551.785
551.787
551.79
551.792
551.794
551.796
551.798
551.799
551.798
551.794
551.787
551.776
551.76
551.739
551.712
551.677
551.632
551.577
551.511
551.433
551.341
551.233
551.11
550.972
550.819
550.654
550.483
550.309
550.135
549.963
549.795
549.629
549.462
549.292
549.114
548.925
548.727
548.524
548.318
548.111
547.905
547.701
547.501
547.308
547.123
546.947
546.779
546.619
546.466
546.318
546.176
546.036
545.899
545.761
545.622
545.482
545.342
545.202
545.065
544.932
544.803
544.681
544.57
544.473
544.377
544.279
544.177
544.073
543.966
543.856
543.745
543.632
543.517
543.401
543.284
543.165
543.046
542.926
542.806
542.686
542.565
542.443
542.322
542.2
542.079
541.957
541.835
541.713
541.59
541.468
541.346
541.224
541.101
540.979
540.856
540.734
540.611
552.531
552.492
552.452
552.409
552.364
552.317
552.267
552.217
552.168
552.121
552.079
552.043
552.013
551.992
551.977
551.968
551.963
551.963
551.965
551.97
551.976
551.983
551.99
551.996
552.001
552.005
552.008
552.011
552.012
552.013
552.011
552.006
551.998
551.986
551.969
551.946
551.917
551.881
551.837
551.783
551.72
551.646
551.56
551.461
551.347
551.22
551.078
550.924
550.759
550.59
550.417
550.245
550.075
549.907
549.74
549.573
549.401
549.219
549.019
548.808
548.59
548.367
548.142
547.917
547.693
547.472
547.258
547.053
546.86
546.678
546.506
546.346
546.195
546.052
545.916
545.785
545.656
545.528
545.399
545.27
545.142
545.017
544.895
544.778
544.668
544.566
544.469
544.372
544.273
544.171
544.066
543.96
543.851
543.741
543.629
543.515
543.399
543.282
543.165
543.046
542.926
542.806
542.686
542.565
542.444
542.322
542.201
542.079
541.957
541.835
541.713
541.591
541.468
541.346
541.224
541.101
540.979
540.856
540.734
540.611
552.533
552.5
552.468
552.435
552.401
552.366
552.33
552.294
552.258
552.225
552.196
552.172
552.155
552.146
552.143
552.146
552.154
552.166
552.18
552.195
552.211
552.226
552.241
552.253
552.262
552.269
552.273
552.275
552.275
552.271
552.264
552.252
552.235
552.212
552.183
552.145
552.1
552.047
551.985
551.915
551.836
551.747
551.649
551.539
551.418
551.285
551.141
550.987
550.827
550.665
550.502
550.339
550.178
550.017
549.856
549.694
549.526
549.343
549.136
548.915
548.685
548.449
548.209
547.966
547.721
547.477
547.238
547.009
546.793
546.591
546.404
546.231
546.072
545.927
545.792
545.667
545.547
545.429
545.313
545.198
545.083
544.97
544.859
544.753
544.652
544.557
544.465
544.367
544.267
544.164
544.06
543.954
543.846
543.737
543.625
543.512
543.397
543.281
543.164
543.045
542.926
542.806
542.686
542.565
542.444
542.322
542.201
542.079
541.957
541.835
541.713
541.591
541.469
541.346
541.224
541.101
540.979
540.856
540.734
540.611
552.532
552.499
552.467
552.44
552.416
552.394
552.374
552.355
552.337
552.322
552.311
552.304
552.303
552.31
552.323
552.343
552.367
552.396
552.426
552.457
552.488
552.517
552.543
552.565
552.582
552.594
552.601
552.604
552.601
552.593
552.578
552.555
552.523
552.483
552.433
552.372
552.299
552.217
552.126
552.026
551.92
551.808
551.689
551.563
551.43
551.289
551.14
550.985
550.828
550.676
550.53
550.387
550.244
550.101
549.954
549.804
549.647
549.47
549.263
549.039
548.804
548.561
548.311
548.056
547.793
547.525
547.257
547
546.758
546.533
546.324
546.131
545.957
545.802
545.665
545.543
545.43
545.325
545.222
545.121
545.02
544.92
544.821
544.725
544.634
544.549
544.466
544.366
544.263
544.159
544.054
543.948
543.84
543.732
543.621
543.509
543.395
543.28
543.163
543.045
542.926
542.806
542.686
542.565
542.444
542.323
542.201
542.079
541.957
541.835
541.713
541.591
541.469
541.346
541.224
541.102
540.979
540.856
540.734
540.611
552.525
552.478
552.439
552.41
552.393
552.384
552.381
552.383
552.388
552.395
552.406
552.421
552.442
552.469
552.503
552.544
552.591
552.642
552.695
552.748
552.799
552.848
552.892
552.93
552.961
552.985
553.001
553.008
553.006
552.994
552.97
552.934
552.885
552.823
552.746
552.651
552.539
552.413
552.278
552.134
551.986
551.835
551.683
551.529
551.374
551.218
551.058
550.894
550.735
550.591
550.468
550.355
550.243
550.126
550.002
549.87
549.727
549.567
549.375
549.159
548.929
548.688
548.435
548.175
547.903
547.614
547.314
547.027
546.762
546.515
546.282
546.062
545.86
545.684
545.535
545.411
545.303
545.208
545.12
545.035
544.951
544.866
544.781
544.697
544.617
544.545
544.487
544.371
544.261
544.154
544.047
543.941
543.834
543.727
543.617
543.506
543.393
543.278
543.162
543.044
542.925
542.806
542.686
542.565
542.444
542.323
542.201
542.08
541.958
541.836
541.714
541.591
541.469
541.347
541.224
541.102
540.979
540.857
540.734
540.611
552.506
552.426
552.365
552.327
552.312
552.316
552.334
552.36
552.39
552.425
552.463
552.503
552.548
552.599
552.658
552.725
552.799
552.877
552.957
553.037
553.115
553.19
553.26
553.322
553.376
553.421
553.455
553.476
553.482
553.471
553.442
553.396
553.332
553.25
553.147
553.015
552.854
552.675
552.481
552.279
552.072
551.866
551.665
551.469
551.279
551.093
550.908
550.722
550.545
550.397
550.294
550.217
550.144
550.065
549.968
549.857
549.733
549.596
549.447
549.249
549.035
548.813
548.556
548.302
548.035
547.742
547.398
547.08
546.803
546.55
546.302
546.049
545.802
545.582
545.404
545.267
545.162
545.076
545.004
544.937
544.876
544.813
544.745
544.673
544.602
544.537
544.49
544.372
544.259
544.149
544.041
543.935
543.828
543.721
543.613
543.503
543.39
543.276
543.16
543.043
542.925
542.806
542.686
542.565
542.444
542.323
542.201
542.08
541.958
541.836
541.714
541.592
541.469
541.347
541.224
541.102
540.979
540.857
540.734
540.611
552.471
552.329
552.226
552.169
552.156
552.176
552.219
552.276
552.338
552.402
552.466
552.533
552.601
552.677
552.76
552.853
552.952
553.056
553.163
553.269
553.373
553.476
553.574
553.667
553.753
553.83
553.893
553.941
553.966
553.966
553.943
553.897
553.832
553.749
553.637
553.478
553.276
553.047
552.798
552.534
552.263
551.993
551.731
551.484
551.245
551.013
550.781
550.547
550.326
550.15
550.069
550.007
549.971
549.931
549.846
549.746
549.641
549.547
549.647
549.463
549.274
549.118
548.805
548.548
548.306
548.039
547.589
547.22
546.946
546.72
546.482
546.194
545.864
545.55
545.302
545.131
545.024
544.938
544.886
544.835
544.807
544.772
544.726
544.666
544.595
544.515
544.488
544.375
544.259
544.145
544.036
543.928
543.822
543.716
543.609
543.499
543.388
543.274
543.159
543.043
542.924
542.805
542.686
542.565
542.444
542.323
542.202
542.08
541.958
541.836
541.714
541.592
541.469
541.347
541.224
541.102
540.979
540.857
540.734
540.611
552.413
552.169
552.001
551.921
551.913
551.96
552.043
552.142
552.24
552.332
552.421
552.508
552.591
552.681
552.783
552.895
553.012
553.13
553.249
553.363
553.476
553.591
553.711
553.833
553.952
554.064
554.163
554.243
554.298
554.322
554.319
554.295
554.259
554.212
554.136
554.004
553.81
553.584
553.319
553.028
552.718
552.407
552.101
551.82
551.532
551.242
550.94
550.607
550.292
550.047
550.178
550.072
550.043
550.028
549.877
549.747
549.651
549.561
549.445
549.287
549.126
549.039
548.744
548.491
548.233
547.99
547.527
547.158
546.898
546.71
546.443
546.138
545.771
545.442
545.167
544.938
544.847
544.805
544.783
544.721
544.726
544.704
544.715
544.645
544.619
544.538
544.507
544.387
544.263
544.144
544.031
543.923
543.817
543.711
543.605
543.496
543.386
543.273
543.158
543.042
542.924
542.805
542.685
542.565
542.444
542.323
542.202
542.08
541.958
541.836
541.714
541.592
541.47
541.347
541.225
541.102
540.979
540.857
540.734
540.611
552.329
551.941
551.688
551.588
551.594
551.682
551.831
551.99
552.126
552.24
552.346
552.447
552.529
552.618
552.722
552.846
552.976
553.081
553.183
553.262
553.337
553.423
553.534
553.659
553.786
553.913
554.031
554.131
554.206
554.251
554.274
554.293
554.336
554.388
554.431
554.553
554.616
554.66
554.493
554.266
554.011
553.75
553.469
553.255
552.934
552.583
552.197
551.671
551.131
550.608
550.224
549.882
549.716
549.639
549.441
549.301
549.185
549.082
548.946
548.802
548.659
548.627
548.419
548.235
548.005
547.749
547.357
547.022
546.748
546.552
546.158
545.853
545.515
545.279
545.069
544.81
544.744
544.672
544.684
544.66
544.701
544.639
544.707
544.617
544.673
544.572
544.562
544.413
544.27
544.143
544.027
543.918
543.812
543.707
543.601
543.494
543.384
543.272
543.157
543.041
542.924
542.805
542.685
542.565
542.444
542.323
542.202
542.08
541.958
541.836
541.714
541.592
541.47
541.347
541.225
541.102
540.98
540.857
540.734
540.611
552.258
551.723
551.371
551.27
551.274
551.39
551.638
551.869
552.041
552.151
552.259
552.386
552.467
552.541
552.628
552.841
553.202
553.255
553.315
553.294
553.251
553.225
553.271
553.341
553.411
553.492
553.573
553.637
553.683
553.701
553.719
553.776
553.951
554.171
554.433
554.652
554.838
555.106
555.217
555.325
555.407
555.405
555.315
555.238
554.945
554.496
553.955
553.276
552.599
551.672
550.889
550.137
549.553
549.195
548.832
548.603
548.463
548.245
548.071
548.003
547.89
547.843
547.757
547.742
547.677
547.391
547.052
546.843
546.523
546.195
545.473
545.248
545.038
545.06
545.001
544.91
544.886
544.713
544.788
544.704
544.863
544.661
544.887
544.642
544.879
544.61
544.867
544.442
544.269
544.138
544.022
543.914
543.809
543.704
543.599
543.492
543.382
543.271
543.157
543.041
542.924
542.805
542.685
542.565
542.445
542.323
542.202
542.08
541.959