/*--------------------------------*- C++ -*----------------------------------*\
  =========                 |
  \\      /  F ield         | OpenFOAM: The Open Source CFD Toolbox
   \\    /   O peration     | Website:  https://openfoam.org
    \\  /    A nd           | Version:  6
     \\/     M anipulation  |
\*---------------------------------------------------------------------------*/
FoamFile
{
    version     2.0;
    format      ascii;
    class       volScalarField;
    location    "1250";
    object      T;
}
// * * * * * * * * * * * * * * * * * * * * * * * * * * * * * * * * * * * * * //

dimensions      [0 0 0 1 0 0 0];

internalField   nonuniform List<scalar> 
4800
(
552.46
552.28
552.099
551.918
551.735
551.552
551.37
551.189
551.01
550.833
550.659
550.487
550.318
550.154
549.993
549.837
549.688
549.545
549.411
549.286
549.17
549.062
548.962
548.87
548.783
548.703
548.627
548.554
548.485
548.418
548.354
548.29
548.228
548.166
548.105
548.043
547.982
547.92
547.857
547.795
547.731
547.668
547.604
547.54
547.477
547.413
547.35
547.288
547.226
547.166
547.106
547.047
546.988
546.93
546.873
546.816
546.76
546.704
546.647
546.59
546.532
546.472
546.41
546.346
546.278
546.207
546.132
546.051
545.965
545.874
545.779
545.681
545.58
545.477
545.371
545.264
545.157
545.051
544.945
544.84
544.734
544.626
544.517
544.407
544.297
544.188
544.078
543.969
543.86
543.751
543.643
543.535
543.427
543.32
543.213
543.106
543
542.894
542.788
542.682
542.576
542.471
542.366
542.261
542.157
542.052
541.948
541.844
541.74
541.636
541.532
541.429
541.325
541.222
541.118
541.015
540.911
540.808
540.705
540.602
552.46
552.279
552.097
551.915
551.732
551.548
551.366
551.184
551.005
550.829
550.655
550.483
550.315
550.15
549.989
549.833
549.684
549.542
549.409
549.286
549.171
549.065
548.967
548.876
548.791
548.711
548.636
548.564
548.495
548.429
548.365
548.302
548.24
548.178
548.117
548.055
547.994
547.932
547.87
547.807
547.744
547.68
547.616
547.552
547.488
547.424
547.36
547.297
547.235
547.174
547.113
547.053
546.994
546.936
546.878
546.821
546.764
546.708
546.651
546.593
546.535
546.474
546.412
546.348
546.28
546.209
546.134
546.055
545.971
545.882
545.789
545.692
545.59
545.486
545.38
545.273
545.165
545.058
544.951
544.844
544.736
544.627
544.517
544.408
544.298
544.188
544.078
543.969
543.86
543.751
543.643
543.535
543.427
543.32
543.213
543.106
543
542.893
542.788
542.682
542.576
542.471
542.366
542.261
542.157
542.052
541.948
541.844
541.74
541.636
541.532
541.429
541.325
541.222
541.118
541.015
540.911
540.808
540.705
540.602
552.459
552.276
552.093
551.91
551.726
551.542
551.359
551.178
550.999
550.822
550.648
550.476
550.308
550.143
549.983
549.828
549.68
549.541
549.411
549.29
549.178
549.074
548.979
548.89
548.807
548.729
548.655
548.584
548.516
548.451
548.387
548.324
548.263
548.201
548.141
548.079
548.018
547.956
547.894
547.831
547.768
547.703
547.639
547.574
547.509
547.444
547.38
547.316
547.252
547.19
547.128
547.066
547.006
546.946
546.888
546.83
546.773
546.715
546.658
546.6
546.54
546.48
546.417
546.352
546.284
546.213
546.138
546.06
545.977
545.89
545.799
545.703
545.604
545.501
545.396
545.289
545.18
545.071
544.961
544.851
544.74
544.63
544.519
544.409
544.298
544.188
544.079
543.969
543.86
543.751
543.643
543.535
543.427
543.32
543.213
543.106
543
542.893
542.787
542.682
542.576
542.471
542.366
542.261
542.157
542.052
541.948
541.844
541.74
541.636
541.532
541.429
541.325
541.221
541.118
541.015
540.911
540.808
540.705
540.602
552.458
552.273
552.089
551.904
551.719
551.535
551.352
551.171
550.991
550.814
550.64
550.468
550.3
550.135
549.976
549.824
549.68
549.544
549.418
549.3
549.192
549.092
548.999
548.913
548.832
548.756
548.684
548.614
548.547
548.483
548.42
548.358
548.296
548.235
548.175
548.114
548.053
547.991
547.928
547.865
547.801
547.737
547.671
547.606
547.54
547.474
547.408
547.342
547.277
547.213
547.149
547.086
547.024
546.963
546.904
546.845
546.786
546.728
546.67
546.611
546.551
546.489
546.425
546.359
546.29
546.218
546.143
546.065
545.983
545.897
545.808
545.714
545.616
545.515
545.411
545.303
545.194
545.083
544.971
544.858
544.745
544.633
544.521
544.41
544.299
544.189
544.079
543.969
543.86
543.751
543.643
543.535
543.427
543.32
543.213
543.106
542.999
542.893
542.787
542.682
542.576
542.471
542.366
542.261
542.157
542.052
541.948
541.844
541.74
541.636
541.532
541.428
541.325
541.221
541.118
541.015
540.911
540.808
540.705
540.602
552.457
552.27
552.084
551.897
551.712
551.527
551.344
551.163
550.984
550.807
550.632
550.46
550.292
550.129
549.972
549.824
549.684
549.553
549.431
549.319
549.215
549.118
549.029
548.945
548.867
548.792
548.722
548.654
548.588
548.524
548.461
548.399
548.338
548.278
548.217
548.157
548.096
548.034
547.971
547.908
547.843
547.778
547.712
547.645
547.578
547.511
547.443
547.376
547.31
547.243
547.178
547.113
547.049
546.987
546.926
546.865
546.806
546.747
546.687
546.627
546.565
546.502
546.436
546.369
546.298
546.225
546.15
546.071
545.989
545.904
545.815
545.722
545.626
545.526
545.422
545.315
545.206
545.093
544.979
544.864
544.749
544.635
544.523
544.411
544.3
544.189
544.079
543.969
543.86
543.751
543.643
543.535
543.427
543.319
543.212
543.106
542.999
542.893
542.787
542.681
542.576
542.471
542.366
542.261
542.156
542.052
541.948
541.844
541.74
541.636
541.532
541.428
541.325
541.221
541.118
541.015
540.911
540.808
540.705
540.602
552.456
552.267
552.079
551.892
551.706
551.52
551.337
551.156
550.976
550.799
550.624
550.453
550.287
550.126
549.974
549.829
549.695
549.569
549.453
549.345
549.245
549.153
549.066
548.986
548.91
548.837
548.767
548.7
548.635
548.571
548.509
548.448
548.387
548.327
548.267
548.207
548.146
548.084
548.022
547.958
547.893
547.827
547.76
547.692
547.624
547.555
547.486
547.417
547.349
547.28
547.213
547.146
547.081
547.017
546.954
546.893
546.832
546.771
546.71
546.648
546.584
546.519
546.451
546.382
546.309
546.235
546.158
546.078
545.995
545.909
545.82
545.728
545.632
545.533
545.43
545.323
545.213
545.1
544.985
544.868
544.752
544.638
544.525
544.412
544.301
544.19
544.08
543.97
543.86
543.751
543.643
543.534
543.427
543.319
543.212
543.105
542.999
542.893
542.787
542.681
542.576
542.47
542.365
542.261
542.156
542.052
541.947
541.843
541.739
541.636
541.532
541.428
541.325
541.221
541.118
541.015
540.911
540.808
540.705
540.602
552.455
552.266
552.076
551.888
551.701
551.515
551.331
551.15
550.97
550.793
550.619
550.45
550.286
550.129
549.981
549.843
549.713
549.593
549.482
549.379
549.283
549.194
549.111
549.033
548.959
548.888
548.819
548.752
548.688
548.624
548.562
548.501
548.441
548.381
548.321
548.261
548.201
548.14
548.077
548.013
547.948
547.881
547.813
547.745
547.675
547.605
547.534
547.464
547.394
547.323
547.254
547.186
547.119
547.053
546.989
546.926
546.864
546.801
546.738
546.674
546.608
546.54
546.47
546.397
546.323
546.246
546.167
546.085
546.001
545.914
545.824
545.732
545.636
545.537
545.434
545.327
545.217
545.104
544.988
544.871
544.755
544.64
544.526
544.414
544.302
544.19
544.08
543.97
543.86
543.751
543.642
543.534
543.426
543.319
543.212
543.105
542.998
542.892
542.786
542.681
542.575
542.47
542.365
542.26
542.156
542.051
541.947
541.843
541.739
541.635
541.532
541.428
541.325
541.221
541.118
541.014
540.911
540.808
540.705
540.602
552.455
552.265
552.074
551.885
551.698
551.512
551.328
551.146
550.967
550.79
550.618
550.451
550.292
550.14
549.997
549.864
549.739
549.624
549.518
549.419
549.328
549.242
549.162
549.086
549.013
548.943
548.875
548.809
548.744
548.681
548.619
548.558
548.498
548.438
548.379
548.32
548.26
548.199
548.137
548.072
548.007
547.939
547.871
547.802
547.731
547.659
547.587
547.515
547.443
547.371
547.3
547.23
547.162
547.095
547.03
546.966
546.901
546.837
546.771
546.704
546.636
546.565
546.492
546.416
546.339
546.259
546.177
546.093
546.007
545.918
545.827
545.734
545.637
545.538
545.435
545.329
545.219
545.106
544.991
544.873
544.756
544.641
544.527
544.414
544.302
544.191
544.08
543.97
543.86
543.751
543.642
543.534
543.426
543.318
543.211
543.104
542.998
542.892
542.786
542.68
542.575
542.47
542.365
542.26
542.155
542.051
541.947
541.843
541.739
541.635
541.531
541.428
541.324
541.221
541.118
541.014
540.911
540.808
540.705
540.602
552.455
552.264
552.074
551.885
551.697
551.511
551.327
551.146
550.968
550.792
550.623
550.46
550.305
550.158
550.021
549.892
549.773
549.663
549.561
549.466
549.378
549.296
549.218
549.143
549.071
549.002
548.934
548.868
548.804
548.741
548.678
548.618
548.558
548.498
548.44
548.381
548.321
548.261
548.199
548.134
548.068
548.001
547.932
547.862
547.79
547.717
547.644
547.57
547.496
547.423
547.351
547.28
547.21
547.143
547.076
547.01
546.944
546.877
546.809
546.739
546.667
546.593
546.516
546.438
546.357
546.274
546.189
546.102
546.013
545.923
545.83
545.735
545.638
545.538
545.434
545.328
545.218
545.105
544.99
544.874
544.757
544.642
544.528
544.415
544.302
544.191
544.08
543.97
543.86
543.75
543.642
543.533
543.425
543.318
543.211
543.104
542.997
542.891
542.785
542.68
542.574
542.469
542.364
542.26
542.155
542.051
541.947
541.843
541.739
541.635
541.531
541.428
541.324
541.221
541.118
541.014
540.911
540.808
540.705
540.602
552.455
552.264
552.075
551.886
551.699
551.514
551.331
551.15
550.974
550.802
550.635
550.477
550.326
550.184
550.051
549.928
549.814
549.708
549.61
549.519
549.433
549.353
549.277
549.203
549.133
549.064
548.996
548.93
548.866
548.802
548.741
548.68
548.62
548.561
548.503
548.445
548.385
548.325
548.262
548.198
548.131
548.063
547.994
547.923
547.851
547.777
547.702
547.627
547.552
547.477
547.404
547.332
547.262
547.193
547.125
547.057
546.989
546.92
546.849
546.777
546.702
546.624
546.544
546.461
546.376
546.29
546.202
546.113
546.021
545.928
545.834
545.737
545.638
545.537
545.434
545.327
545.217
545.104
544.989
544.873
544.757
544.642
544.528
544.415
544.303
544.191
544.08
543.969
543.86
543.75
543.641
543.533
543.425
543.317
543.21
543.103
542.997
542.891
542.785
542.679
542.574
542.469
542.364
542.259
542.155
542.05
541.946
541.842
541.738
541.635
541.531
541.427
541.324
541.221
541.117
541.014
540.911
540.808
540.705
540.602
552.455
552.265
552.076
551.889
551.703
551.519
551.338
551.159
550.985
550.817
550.654
550.5
550.354
550.217
550.089
549.97
549.86
549.758
549.664
549.575
549.492
549.414
549.339
549.266
549.196
549.127
549.06
548.994
548.93
548.866
548.805
548.744
548.685
548.627
548.569
548.511
548.451
548.39
548.327
548.262
548.195
548.126
548.056
547.985
547.911
547.836
547.76
547.684
547.608
547.532
547.458
547.385
547.314
547.244
547.174
547.104
547.034
546.963
546.89
546.815
546.737
546.656
546.572
546.486
546.398
546.308
546.217
546.124
546.03
545.935
545.838
545.739
545.639
545.536
545.432
545.324
545.214
545.102
544.988
544.872
544.757
544.642
544.528
544.415
544.303
544.191
544.08
543.969
543.859
543.75
543.641
543.532
543.424
543.317
543.209
543.103
542.996
542.89
542.784
542.679
542.573
542.468
542.363
542.259
542.154
542.05
541.946
541.842
541.738
541.634
541.531
541.427
541.324
541.221
541.117
541.014
540.911
540.808
540.705
540.602
552.455
552.267
552.079
551.893
551.709
551.527
551.348
551.172
551.001
550.837
550.679
550.529
550.388
550.256
550.132
550.018
549.911
549.813
549.721
549.635
549.554
549.477
549.402
549.33
549.261
549.192
549.125
549.059
548.995
548.932
548.871
548.811
548.752
548.695
548.637
548.579
548.519
548.457
548.393
548.327
548.259
548.189
548.118
548.045
547.97
547.894
547.817
547.74
547.664
547.587
547.512
547.438
547.366
547.294
547.223
547.152
547.08
547.006
546.931
546.853
546.773
546.689
546.602
546.512
546.421
546.328
546.233
546.137
546.04
545.942
545.842
545.742
545.64
545.536
545.43
545.323
545.213
545.101
544.987
544.872
544.757
544.642
544.528
544.415
544.303
544.191
544.08
543.969
543.859
543.749
543.64
543.532
543.424
543.316
543.209
543.102
542.995
542.889
542.783
542.678
542.573
542.468
542.363
542.258
542.154
542.049
541.945
541.841
541.738
541.634
541.53
541.427
541.324
541.22
541.117
541.014
540.911
540.808
540.705
540.602
552.456
552.27
552.084
551.9
551.717
551.537
551.361
551.189
551.022
550.862
550.709
550.564
550.428
550.299
550.18
550.069
549.966
549.871
549.781
549.697
549.618
549.541
549.467
549.396
549.326
549.258
549.191
549.126
549.062
548.999
548.938
548.879
548.821
548.764
548.707
548.648
548.588
548.525
548.46
548.392
548.322
548.251
548.178
548.104
548.027
547.95
547.873
547.795
547.718
547.641
547.565
547.49
547.417
547.344
547.271
547.198
547.125
547.049
546.972
546.892
546.809
546.722
546.632
546.539
546.444
546.348
546.25
546.151
546.051
545.95
545.848
545.745
545.641
545.536
545.429
545.321
545.211
545.099
544.986
544.871
544.756
544.642
544.528
544.415
544.303
544.191
544.079
543.969
543.858
543.749
543.64
543.531
543.423
543.315
543.208
543.101
542.995
542.889
542.783
542.677
542.572
542.467
542.362
542.258
542.153
542.049
541.945
541.841
541.737
541.634
541.53
541.427
541.323
541.22
541.117
541.014
540.911
540.808
540.705
540.602
552.458
552.273
552.09
551.908
551.728
551.551
551.378
551.21
551.048
550.892
550.743
550.603
550.471
550.347
550.232
550.125
550.025
549.932
549.844
549.761
549.682
549.606
549.533
549.461
549.392
549.324
549.257
549.193
549.129
549.067
549.007
548.948
548.891
548.834
548.777
548.717
548.656
548.591
548.524
548.455
548.384
548.311
548.237
548.16
548.082
548.004
547.925
547.847
547.769
547.692
547.615
547.54
547.466
547.392
547.318
547.244
547.168
547.091
547.012
546.93
546.844
546.755
546.661
546.566
546.468
546.369
546.268
546.166
546.063
545.959
545.855
545.75
545.644
545.537
545.429
545.32
545.21
545.098
544.985
544.87
544.756
544.642
544.528
544.415
544.303
544.191
544.079
543.968
543.858
543.748
543.639
543.53
543.422
543.315
543.207
543.101
542.994
542.888
542.782
542.677
542.571
542.466
542.362
542.257
542.153
542.049
541.945
541.841
541.737
541.633
541.53
541.426
541.323
541.22
541.117
541.014
540.911
540.808
540.705
540.602
552.459
552.277
552.097
551.918
551.741
551.568
551.398
551.234
551.076
550.925
550.781
550.646
550.518
550.398
550.287
550.182
550.085
549.993
549.907
549.825
549.747
549.672
549.598
549.527
549.458
549.39
549.325
549.26
549.198
549.137
549.077
549.019
548.962
548.905
548.846
548.786
548.722
548.656
548.587
548.516
548.443
548.368
548.292
548.214
548.135
548.054
547.975
547.895
547.816
547.739
547.662
547.587
547.512
547.438
547.363
547.288
547.211
547.132
547.05
546.965
546.877
546.785
546.69
546.592
546.492
546.39
546.286
546.181
546.076
545.969
545.862
545.755
545.647
545.539
545.43
545.32
545.209
545.097
544.984
544.87
544.756
544.642
544.529
544.415
544.303
544.191
544.079
543.968
543.858
543.748
543.639
543.53
543.422
543.314
543.207
543.1
542.993
542.887
542.781
542.676
542.571
542.466
542.361
542.256
542.152
542.048
541.944
541.84
541.737
541.633
541.53
541.426
541.323
541.22
541.117
541.014
540.91
540.807
540.704
540.601
552.461
552.282
552.105
551.929
551.756
551.586
551.421
551.261
551.107
550.961
550.822
550.69
550.567
550.451
550.342
550.24
550.145
550.055
549.971
549.89
549.812
549.737
549.664
549.593
549.524
549.457
549.392
549.329
549.267
549.207
549.148
549.09
549.033
548.975
548.915
548.853
548.787
548.718
548.648
548.575
548.5
548.423
548.344
548.264
548.183
548.101
548.02
547.939
547.86
547.782
547.706
547.63
547.555
547.48
547.405
547.328
547.25
547.17
547.087
547
546.91
546.816
546.719
546.619
546.517
546.412
546.306
546.198
546.089
545.98
545.871
545.762
545.652
545.542
545.432
545.32
545.209
545.096
544.983
544.87
544.756
544.642
544.529
544.416
544.303
544.191
544.079
543.968
543.857
543.747
543.638
543.529
543.421
543.313
543.206
543.099
542.992
542.886
542.781
542.675
542.57
542.465
542.36
542.256
542.152
542.048
541.944
541.84
541.736
541.633
541.529
541.426
541.323
541.22
541.116
541.013
540.91
540.807
540.704
540.601
552.463
552.288
552.114
551.942
551.772
551.606
551.445
551.29
551.141
550.999
550.864
550.737
550.617
550.504
550.399
550.3
550.206
550.118
550.034
549.954
549.877
549.802
549.73
549.659
549.591
549.526
549.462
549.399
549.338
549.278
549.22
549.162
549.104
549.045
548.983
548.918
548.85
548.779
548.706
548.631
548.553
548.474
548.393
548.31
548.227
548.144
548.061
547.98
547.9
547.822
547.745
547.669
547.594
547.519
547.443
547.366
547.287
547.206
547.121
547.034
546.943
546.847
546.749
546.647
546.543
546.435
546.326
546.216
546.104
545.993
545.882
545.77
545.659
545.547
545.435
545.323
545.21
545.097
544.984
544.871
544.757
544.643
544.53
544.416
544.303
544.191
544.079
543.968
543.857
543.747
543.637
543.528
543.42
543.312
543.205
543.098
542.992
542.886
542.78
542.674
542.569
542.464
542.36
542.255
542.151
542.047
541.943
541.839
541.736
541.632
541.529
541.426
541.322
541.219
541.116
541.013
540.91
540.807
540.704
540.601
552.464
552.293
552.123
551.955
551.789
551.627
551.471
551.32
551.175
551.038
550.907
550.784
550.668
550.559
550.456
550.359
550.267
550.18
550.097
550.018
549.942
549.868
549.796
549.727
549.66
549.595
549.532
549.471
549.41
549.351
549.292
549.234
549.175
549.114
549.05
548.983
548.912
548.838
548.762
548.684
548.604
548.522
548.438
548.353
548.267
548.182
548.098
548.016
547.935
547.857
547.78
547.704
547.629
547.554
547.478
547.401
547.322
547.24
547.155
547.067
546.976
546.88
546.78
546.677
546.57
546.46
546.348
546.235
546.121
546.008
545.895
545.782
545.669
545.556
545.442
545.328
545.214
545.1
544.986
544.873
544.759
544.645
544.531
544.417
544.304
544.191
544.079
543.967
543.856
543.746
543.636
543.528
543.419
543.311
543.204
543.097
542.991
542.885
542.779
542.674
542.568
542.464
542.359
542.255
542.15
542.046
541.943
541.839
541.735
541.632
541.529
541.425
541.322
541.219
541.116
541.013
540.91
540.807
540.704
540.601
552.466
552.298
552.132
551.968
551.806
551.649
551.497
551.351
551.211
551.077
550.951
550.832
550.719
550.613
550.513
550.418
550.328
550.242
550.16
550.082
550.007
549.934
549.864
549.796
549.73
549.666
549.604
549.544
549.484
549.425
549.366
549.307
549.246
549.183
549.116
549.045
548.971
548.895
548.816
548.734
548.651
548.566
548.479
548.391
548.304
548.217
548.132
548.048
547.967
547.887
547.81
547.734
547.66
547.586
547.511
547.434
547.355
547.273
547.189
547.101
547.01
546.914
546.814
546.71
546.601
546.488
546.374
546.258
546.142
546.026
545.912
545.797
545.683
545.568
545.452
545.336
545.221
545.106
544.991
544.876
544.761
544.646
544.532
544.419
544.305
544.192
544.079
543.967
543.856
543.745
543.636
543.527
543.418
543.31
543.203
543.096
542.99
542.884
542.778
542.673
542.568
542.463
542.358
542.254
542.15
542.046
541.942
541.839
541.735
541.632
541.528
541.425
541.322
541.219
541.116
541.013
540.91
540.807
540.704
540.601
552.468
552.304
552.141
551.981
551.824
551.671
551.523
551.382
551.246
551.117
550.995
550.879
550.77
550.666
550.569
550.476
550.388
550.303
550.223
550.146
550.072
550.001
549.932
549.865
549.8
549.738
549.677
549.617
549.558
549.499
549.439
549.379
549.317
549.251
549.18
549.106
549.028
548.948
548.866
548.781
548.694
548.606
548.516
548.426
548.337
548.248
548.161
548.076
547.993
547.913
547.835
547.76
547.686
547.613
547.539
547.463
547.386
547.305
547.222
547.136
547.046
546.952
546.852
546.746
546.636
546.521
546.404
546.285
546.167
546.05
545.934
545.818
545.703
545.586
545.468
545.349
545.232
545.115
544.998
544.88
544.763
544.649
544.535
544.42
544.306
544.193
544.08
543.967
543.856
543.745
543.635
543.526
543.417
543.309
543.202
543.095
542.989
542.883
542.777
542.672
542.567
542.462
542.358
542.253
542.149
542.045
541.942
541.838
541.735
541.631
541.528
541.425
541.322
541.219
541.116
541.013
540.91
540.807
540.704
540.601
552.469
552.308
552.149
551.992
551.84
551.692
551.549
551.412
551.281
551.157
551.038
550.926
550.82
550.719
550.624
550.533
550.447
550.364
550.285
550.21
550.137
550.067
550
549.935
549.872
549.811
549.751
549.692
549.633
549.573
549.513
549.45
549.385
549.316
549.242
549.164
549.082
548.999
548.912
548.823
548.733
548.642
548.549
548.457
548.365
548.274
548.185
548.098
548.014
547.933
547.855
547.78
547.708
547.636
547.564
547.49
547.414
547.336
547.256
547.173
547.086
546.994
546.895
546.789
546.677
546.561
546.442
546.322
546.201
546.082
545.965
545.848
545.73
545.611
545.489
545.368
545.246
545.126
545.005
544.885
544.764
544.651
544.538
544.423
544.308
544.194
544.08
543.967
543.855
543.744
543.634
543.525
543.416
543.308
543.201
543.094
542.988
542.882
542.776
542.671
542.566
542.462
542.357
542.253
542.149
542.045
541.941
541.838
541.734
541.631
541.528
541.425
541.321
541.218
541.116
541.013
540.91
540.807
540.704
540.601
552.471
552.312
552.157
552.004
551.856
551.712
551.575
551.442
551.316
551.196
551.081
550.973
550.87
550.772
550.679
550.59
550.505
550.424
550.347
550.273
550.202
550.134
550.069
550.005
549.943
549.883
549.824
549.766
549.707
549.647
549.585
549.52
549.452
549.379
549.301
549.218
549.133
549.045
548.954
548.862
548.767
548.672
548.577
548.481
548.387
548.294
548.203
548.115
548.03
547.948
547.869
547.794
547.723
547.653
547.583
547.511
547.438
547.365
547.289
547.21
547.127
547.038
546.942
546.839
546.728
546.612
546.492
546.371
546.249
546.128
546.009
545.89
545.769
545.645
545.519
545.393
545.267
545.142
545.018
544.891
544.752
544.654
544.543
544.427
544.311
544.196
544.081
543.967
543.855
543.743
543.633
543.523
543.415
543.307
543.2
543.093
542.987
542.881
542.776
542.67
542.565
542.461
542.356
542.252
542.148
542.044
541.941
541.837
541.734
541.631
541.527
541.424
541.321
541.218
541.115
541.013
540.91
540.807
540.704
540.601
552.472
552.317
552.165
552.016
551.872
551.733
551.6
551.472
551.35
551.234
551.124
551.019
550.919
550.824
550.733
550.646
550.563
550.484
550.408
550.336
550.267
550.201
550.137
550.075
550.015
549.956
549.897
549.839
549.779
549.718
549.655
549.588
549.516
549.439
549.356
549.269
549.18
549.088
548.992
548.895
548.796
548.697
548.598
548.499
548.403
548.308
548.215
548.125
548.038
547.955
547.875
547.8
547.729
547.661
547.593
547.526
547.458
547.391
547.321
547.248
547.171
547.088
546.998
546.9
546.792
546.678
546.56
546.439
546.316
546.193
546.07
545.945
545.818
545.688
545.557
545.424
545.293
545.163
545.036
544.911
544.786
544.669
544.551
544.433
544.315
544.198
544.082
543.967
543.854
543.742
543.632
543.522
543.414
543.306
543.199
543.092
542.986
542.88
542.775
542.67
542.565
542.46
542.356
542.252
542.148
542.044
541.94
541.837
541.733
541.63
541.527
541.424
541.321
541.218
541.115
541.012
540.91
540.807
540.704
540.601
552.473
552.321
552.172
552.028
551.888
551.754
551.625
551.502
551.384
551.272
551.165
551.064
550.967
550.875
550.787
550.702
550.621
550.543
550.47
550.399
550.332
550.267
550.205
550.144
550.084
550.026
549.968
549.909
549.849
549.787
549.721
549.652
549.576
549.495
549.407
549.316
549.221
549.124
549.024
548.921
548.818
548.714
548.611
548.51
548.411
548.314
548.219
548.127
548.039
547.953
547.872
547.795
547.723
547.656
547.593
547.532
547.473
547.415
547.353
547.288
547.218
547.144
547.064
546.975
546.874
546.765
546.654
546.536
546.413
546.285
546.154
546.018
545.881
545.742
545.602
545.463
545.325
545.19
545.06
544.934
544.808
544.684
544.562
544.44
544.32
544.201
544.083
543.968
543.854
543.741
543.63
543.521
543.412
543.304
543.197
543.091
542.985
542.879
542.774
542.669
542.564
542.46
542.355
542.251
542.147
542.044
541.94
541.836
541.733
541.63
541.527
541.424
541.321
541.218
541.115
541.012
540.91
540.807
540.704
540.601
552.475
552.327
552.181
552.04
551.904
551.774
551.649
551.531
551.418
551.31
551.207
551.108
551.014
550.925
550.839
550.756
550.677
550.601
550.529
550.461
550.395
550.331
550.269
550.209
550.15
550.092
550.035
549.976
549.915
549.852
549.784
549.711
549.632
549.546
549.454
549.357
549.257
549.155
549.048
548.94
548.831
548.723
548.616
548.512
548.411
548.312
548.215
548.121
548.029
547.941
547.856
547.775
547.702
547.638
547.583
547.533
547.489
547.441
547.387
547.329
547.27
547.207
547.144
547.071
546.98
546.878
546.784
546.674
546.546
546.412
546.266
546.112
545.957
545.804
545.654
545.506
545.362
545.222
545.088
544.957
544.828
544.699
544.572
544.447
544.324
544.203
544.084
543.968
543.853
543.74
543.629
543.519
543.411
543.303
543.196
543.09
542.984
542.878
542.773
542.668
542.563
542.459
542.355
542.251
542.147
542.043
541.94
541.836
541.733
541.63
541.527
541.424
541.321
541.218
541.115
541.012
540.909
540.807
540.704
540.601
552.477
552.331
552.189
552.051
551.92
551.794
551.674
551.56
551.452
551.347
551.248
551.152
551.06
550.973
550.888
550.808
550.731
550.657
550.587
550.519
550.454
550.391
550.33
550.27
550.212
550.155
550.097
550.038
549.977
549.912
549.842
549.766
549.683
549.592
549.495
549.393
549.287
549.178
549.067
548.953
548.839
548.725
548.613
548.506
548.404
548.304
548.205
548.105
548.007
547.913
547.824
547.737
547.664
547.609
547.567
547.537
547.517
547.484
547.431
547.373
547.327
547.277
547.248
547.201
547.122
547.015
546.971
546.87
546.714
546.576
546.406
546.228
546.047
545.874
545.704
545.547
545.4
545.26
545.12
544.983
544.846
544.711
544.58
544.452
544.327
544.205
544.085
543.967
543.852
543.739
543.627
543.518
543.409
543.301
543.195
543.088
542.983
542.877
542.772
542.667
542.563
542.458
542.354
542.25
542.146
542.043
541.939
541.836
541.733
541.629
541.526
541.423
541.32
541.218
541.115
541.012
540.909
540.807
540.704
540.601
552.478
552.335
552.196
552.062
551.935
551.814
551.699
551.59
551.486
551.386
551.289
551.196
551.105
551.018
550.935
550.856
550.78
550.708
550.639
550.573
550.509
550.446
550.385
550.326
550.268
550.211
550.154
550.097
550.035
549.969
549.896
549.815
549.728
549.634
549.533
549.426
549.314
549.197
549.079
548.961
548.842
548.721
548.602
548.493
548.392
548.295
548.193
548.083
547.969
547.866
547.782
547.68
547.611
547.57
547.543
547.552
547.592
547.569
547.494
547.405
547.387
547.341
547.397
547.389
547.327
547.143
547.255
547.15
546.866
546.767
546.56
546.361
546.148
545.944
545.73
545.559
545.418
545.288
545.142
545.002
544.859
544.717
544.582
544.453
544.328
544.205
544.085
543.966
543.851
543.737
543.626
543.516
543.408
543.3
543.193
543.087
542.982
542.876
542.771
542.667
542.562
542.458
542.354
542.25
542.146
542.042
541.939
541.836
541.732
541.629
541.526
541.423
541.32
541.217
541.115
541.012
540.909
540.807
540.704
540.601
552.479
552.338
552.202
552.073
551.95
551.834
551.725
551.622
551.524
551.429
551.335
551.242
551.151
551.062
550.977
550.898
550.823
550.753
550.685
550.62
550.556
550.494
550.434
550.375
550.317
550.263
550.21
550.155
550.094
550.025
549.948
549.862
549.77
549.673
549.568
549.459
549.339
549.212
549.088
548.97
548.852
548.721
548.587
548.477
548.383
548.293
548.187
548.054
547.897
547.781
547.751
547.6
547.55
547.527
547.49
547.561
547.539
547.504
547.565
547.532
547.482
547.414
547.458
547.493
547.477
547.355
547.294
547.158
546.977
546.838
546.639
546.515
546.239
545.996
545.677
545.483
545.374
545.295
545.133
545.008
544.864
544.714
544.577
544.449
544.325
544.203
544.083
543.965
543.849
543.735
543.624
543.514
543.406
543.299
543.192
543.086
542.981
542.876
542.771
542.666
542.562
542.457
542.353
542.249
542.146
542.042
541.939
541.835
541.732
541.629
541.526
541.423
541.32
541.217
541.115
541.012
540.909
540.807
540.704
540.601
552.48
552.341
552.208
552.082
551.965
551.855
551.752
551.656
551.566
551.479
551.392
551.299
551.204
551.109
551.017
550.933
550.858
550.789
550.722
550.658
550.596
550.535
550.475
550.417
550.362
550.315
550.274
550.225
550.164
550.091
550.005
549.912
549.815
549.713
549.602
549.492
549.363
549.224
549.098
548.985
548.878
548.732
548.559
548.464
548.377
548.289
548.187
548.062
547.825
547.717
547.652
547.555
547.49
547.544
547.545
547.519
547.523
547.473
547.547
547.596
547.558
547.531
547.519
547.573
547.558
547.471
547.332
547.222
547.068
546.94
546.784
546.56
546.391
546.015
545.747
545.49
545.323
545.297
545.031
545.006
544.862
544.699
544.565
544.438
544.317
544.198
544.079
543.962
543.847
543.734
543.622
543.513
543.405
543.297
543.191
543.085
542.98
542.875
542.77
542.665
542.561
542.457
542.353
542.249
542.145
542.042
541.938
541.835
541.732
541.629
541.526
541.423
541.32
541.217
541.115
541.012
540.909
540.807
540.704
540.601
552.479
552.34
552.211
552.091
551.979
551.875
551.778
551.691
551.615
551.543
551.472
551.381
551.281
551.177
551.063
550.967
550.885
550.815
550.75
550.687
550.626
550.567
550.51
550.454
550.408
550.382
550.374
550.333
550.264
550.176
550.08
549.983
549.882
549.769
549.636
549.529
549.372
549.227
549.113
548.996
548.814
548.631
548.468
548.403
548.344
548.219
548.164
548.027
547.869
547.718
547.613
547.53
547.442
547.532
547.546
547.525
547.56
547.488
547.535
547.65
547.614
547.621
547.588
547.683
547.618
547.573
547.409
547.381
547.28
547.077
546.945
546.703
546.517
546.073
545.771
545.361
545.218
545.078
544.934
544.896
544.861
544.644
544.553
544.426
544.305
544.19
544.074
543.959
543.844
543.732
543.621
543.511
543.403
543.296
543.19
543.085
542.979
542.874
542.77
542.665
542.561
542.457
542.353
542.249
542.145
542.042
541.938
541.835
541.732
541.629
541.526
541.423
541.32
541.217
541.114
541.012
540.909
540.807
540.704
540.601
552.477
552.339
552.213
552.098
551.991
551.892
551.801
551.719
551.666
551.619
551.593
551.5
551.417
551.309
551.139
551.022
550.911
550.836
550.766
550.705
550.646
550.593
550.543
550.495
550.466
550.488
550.56
550.495
550.393
550.278
550.175
550.096
549.973
549.849
549.665
549.473
549.296
549.154
549.14
549.021
548.753
548.474
548.308
548.394
548.256
548.1
548.145
547.941
547.703
547.615
547.567
547.476
547.345
547.463
547.534
547.481
547.521
547.473
547.606
547.768
547.718
547.668
547.661
547.751
547.745
547.738
547.496
547.551
547.435
547.389
547.143
546.992
546.581
546.072
545.582
544.896
544.834
544.928
544.492
544.956
544.656
544.595
544.567
544.416
544.289
544.179
544.068
543.955
543.842
543.73
543.619
543.51
543.402
543.296
543.19
543.084
542.979
542.874
542.769
542.665
542.561
542.456
542.352
542.249
542.145
542.042
541.938
541.835
541.732
541.629
541.526
541.423
541.32
541.217
541.114
541.012