/*--------------------------------*- C++ -*----------------------------------*\
  =========                 |
  \\      /  F ield         | OpenFOAM: The Open Source CFD Toolbox
   \\    /   O peration     | Website:  https://openfoam.org
    \\  /    A nd           | Version:  6
     \\/     M anipulation  |
\*---------------------------------------------------------------------------*/
FoamFile
{
    version     2.0;
    format      ascii;
    class       volVectorField;
    location    "1250";
    object      U;
}
// * * * * * * * * * * * * * * * * * * * * * * * * * * * * * * * * * * * * * //

dimensions      [0 1 -1 0 0 0 0];

internalField   nonuniform List<vector> 
4800
(
(-0.000117714 0 -6.4593e-05)
(0.000119452 0 -6.13314e-05)
(0.000127606 0 -4.63813e-05)
(0.000143607 0 -4.65776e-05)
(0.000147746 0 -3.62897e-05)
(0.000145021 0 -3.63593e-05)
(0.00014551 0 -3.14561e-05)
(0.000105939 0 -7.79852e-05)
(9.6538e-05 0 -9.48208e-05)
(8.40669e-05 0 -3.54992e-05)
(4.12922e-05 0 -4.32034e-05)
(1.99537e-05 0 2.21455e-05)
(1.11291e-05 0 -2.40638e-05)
(-1.83138e-05 0 2.90186e-05)
(-6.54181e-05 0 9.84981e-06)
(-0.000115721 0 1.43908e-05)
(-0.000171569 0 -1.49334e-05)
(-0.000293911 0 -0.000199166)
(-0.00035299 0 -0.000279821)
(-0.000437076 0 -0.000208315)
(-0.000626079 0 3.75008e-05)
(-0.000730872 0 2.98368e-05)
(-0.000824606 0 5.23925e-05)
(-0.000930762 0 6.20053e-05)
(-0.00103173 0 9.08773e-05)
(-0.00110776 0 -6.13906e-05)
(-0.00116091 0 -1.79115e-05)
(-0.00120922 0 -3.00745e-06)
(-0.00123847 0 -5.69675e-05)
(-0.00126134 0 -4.0019e-05)
(-0.00127668 0 -2.89794e-05)
(-0.00127743 0 -2.91957e-05)
(-0.00125597 0 -2.57909e-05)
(-0.00124718 0 -3.73299e-05)
(-0.00124227 0 -6.14502e-05)
(-0.0012331 0 -4.96136e-05)
(-0.00122819 0 -5.36935e-05)
(-0.00122455 0 -5.52701e-05)
(-0.00121912 0 -4.93811e-05)
(-0.00121295 0 -4.67113e-05)
(-0.00120321 0 -3.75501e-05)
(-0.001189 0 -2.86343e-05)
(-0.00117064 0 -6.41196e-06)
(-0.0011386 0 -2.19607e-05)
(-0.00110044 0 -6.09645e-05)
(-0.00107541 0 -6.0884e-05)
(-0.00106919 0 -6.52513e-05)
(-0.00106036 0 -0.000102761)
(-0.000971818 0 -9.73453e-05)
(-0.000871889 0 -7.9641e-05)
(-0.000804491 0 -0.000106585)
(-0.000758053 0 -0.000120775)
(-0.000674484 0 -6.46628e-05)
(-0.00054292 0 -0.000164764)
(-0.00049117 0 -7.25656e-05)
(-0.00044493 0 -4.362e-05)
(-0.000355371 0 -4.44824e-05)
(-0.000248431 0 -9.0416e-05)
(-0.000171115 0 -6.02855e-05)
(-9.10205e-05 0 -7.85741e-05)
(6.26967e-06 0 -8.91914e-05)
(0.00011397 0 -4.70136e-05)
(0.000175596 0 -8.33339e-05)
(0.000249706 0 -5.59798e-05)
(0.000310978 0 -1.30833e-05)
(0.000294117 0 -0.000234748)
(0.000385129 0 2.07645e-05)
(0.000355709 0 5.44188e-05)
(5.70969e-05 0 7.2795e-05)
(-0.000487805 0 -0.000311987)
(-0.000392635 0 -0.000156014)
(-0.000413383 0 -3.33649e-05)
(-0.000411291 0 -1.21261e-05)
(-0.000446324 0 5.65737e-05)
(-0.000488886 0 -3.63365e-06)
(-0.000531739 0 -4.75096e-05)
(-0.000558718 0 -0.000106375)
(-0.000556235 0 -0.000214572)
(-0.000586686 0 -0.000218036)
(3.05021e-06 0 -0.000299756)
(-6.97941e-13 0 1.89139e-14)
(-2.33778e-12 0 1.86059e-14)
(-1.47847e-12 0 -1.28202e-14)
(-1.43354e-12 0 -3.15339e-14)
(-1.35891e-12 0 -4.27193e-14)
(-1.26553e-12 0 -5.03883e-14)
(-1.15873e-12 0 -5.62511e-14)
(-1.0416e-12 0 -6.0825e-14)
(-9.16657e-13 0 -6.41766e-14)
(-7.86304e-13 0 -6.62633e-14)
(-6.53025e-13 0 -6.70579e-14)
(-5.19321e-13 0 -6.65815e-14)
(-3.87615e-13 0 -6.49105e-14)
(-2.60149e-13 0 -6.21711e-14)
(-1.38923e-13 0 -5.85215e-14)
(-2.56597e-14 0 -5.41317e-14)
(7.82368e-14 0 -4.9172e-14)
(1.71712e-13 0 -4.38079e-14)
(2.5406e-13 0 -3.81956e-14)
(3.2489e-13 0 -3.24751e-14)
(3.84086e-13 0 -2.67648e-14)
(4.31778e-13 0 -2.11602e-14)
(4.68309e-13 0 -1.57385e-14)
(4.942e-13 0 -1.05641e-14)
(5.10091e-13 0 -5.68962e-15)
(5.16682e-13 0 -1.15178e-15)
(5.14703e-13 0 3.02993e-15)
(5.04906e-13 0 6.84951e-15)
(4.88063e-13 0 1.03063e-14)
(4.64943e-13 0 1.33995e-14)
(4.36282e-13 0 1.6128e-14)
(4.02758e-13 0 1.84953e-14)
(3.64982e-13 0 2.05142e-14)
(3.2352e-13 0 2.22078e-14)
(2.78917e-13 0 2.36066e-14)
(2.3171e-13 0 2.47433e-14)
(1.82423e-13 0 2.56469e-14)
(1.31552e-13 0 2.63421e-14)
(7.95285e-14 0 2.68584e-14)
(2.66386e-14 0 2.72765e-14)
(-8.43291e-05 0 -6.79062e-05)
(0.000115004 0 -7.49983e-05)
(9.72156e-05 0 -7.83639e-05)
(0.000122539 0 1.62808e-06)
(0.000121025 0 1.30758e-05)
(9.92824e-05 0 2.24826e-05)
(5.51184e-05 0 4.41649e-05)
(-2.44771e-05 0 6.36344e-05)
(-2.48907e-05 0 5.15313e-05)
(6.82638e-06 0 5.17787e-05)
(-1.21143e-05 0 4.22665e-05)
(-3.39102e-06 0 3.431e-05)
(-3.51765e-05 0 3.75133e-05)
(-8.11019e-05 0 3.94959e-05)
(-0.000130697 0 7.07855e-05)
(-0.000203605 0 0.000132571)
(-0.000378011 0 0.000170716)
(-0.000558735 0 0.000302978)
(-0.000696774 0 0.000286098)
(-0.000774245 0 0.000186259)
(-0.000851153 0 7.95664e-05)
(-0.000949902 0 0.000166834)
(-0.00105069 0 8.32579e-05)
(-0.00110517 0 7.78856e-05)
(-0.00115257 0 0.000133963)
(-0.00119401 0 0.000133981)
(-0.00122347 0 6.29027e-05)
(-0.00125516 0 8.60642e-05)
(-0.00128812 0 8.4551e-05)
(-0.00130398 0 4.14202e-05)
(-0.00130917 0 4.09775e-05)
(-0.00130808 0 2.25539e-05)
(-0.00128251 0 -3.28451e-05)
(-0.00126557 0 1.14588e-05)
(-0.00123987 0 5.5883e-05)
(-0.00121606 0 2.65486e-05)
(-0.00119717 0 4.12162e-05)
(-0.00117079 0 4.63721e-05)
(-0.00114554 0 2.78447e-05)
(-0.00112213 0 1.95353e-05)
(-0.0010984 0 -8.06086e-06)
(-0.001072 0 -4.67019e-05)
(-0.00104721 0 -6.31185e-05)
(-0.00102829 0 -3.72588e-05)
(-0.00100825 0 -4.55662e-06)
(-0.000988534 0 -8.82857e-06)
(-0.00098088 0 -2.19108e-05)
(-0.000976342 0 -8.78519e-05)
(-0.000927763 0 -0.000139385)
(-0.000838564 0 -0.000167655)
(-0.000778879 0 -0.000165136)
(-0.000752814 0 -7.47231e-05)
(-0.0007018 0 -6.07132e-05)
(-0.000624453 0 -0.000159916)
(-0.000568252 0 -7.36732e-05)
(-0.000498307 0 -9.76497e-05)
(-0.000411967 0 -0.000148691)
(-0.000352709 0 -0.000140714)
(-0.000297009 0 -0.000154983)
(-0.000210598 0 -0.000192635)
(-4.95029e-05 0 -0.000236288)
(-1.16246e-05 0 -0.00020558)
(0.000134627 0 -0.000120071)
(0.000170203 0 -9.11096e-05)
(0.00023489 0 -5.31954e-05)
(0.000290826 0 -4.41357e-05)
(0.000348884 0 2.93956e-05)
(0.000445984 0 0.000197494)
(0.000381307 0 0.000268691)
(0.00046239 0 0.000366407)
(0.000416831 0 0.000318421)
(0.000247978 0 0.000180147)
(0.000200666 0 9.25247e-05)
(-0.000270079 0 7.27092e-05)
(-0.000396299 0 4.66534e-05)
(-0.000402866 0 1.28056e-06)
(-0.000384309 0 -7.43253e-05)
(-0.000355392 0 -0.000160444)
(-0.000560514 0 -0.000278833)
(4.01083e-06 0 -0.000431039)
(-1.02006e-12 0 2.70823e-13)
(-2.40635e-12 0 5.98166e-14)
(-1.52853e-12 0 -5.12301e-14)
(-1.46344e-12 0 -1.02112e-13)
(-1.37776e-12 0 -1.31696e-13)
(-1.27906e-12 0 -1.53048e-13)
(-1.16916e-12 0 -1.70131e-13)
(-1.04953e-12 0 -1.8376e-13)
(-9.22096e-13 0 -1.93811e-13)
(-7.89185e-13 0 -2.00042e-13)
(-6.53343e-13 0 -2.02344e-13)
(-5.17174e-13 0 -2.00793e-13)
(-3.83205e-13 0 -1.95643e-13)
(-2.5376e-13 0 -1.8729e-13)
(-1.30884e-13 0 -1.76216e-13)
(-1.63102e-14 0 -1.62931e-13)
(8.85606e-14 0 -1.47946e-13)
(1.82689e-13 0 -1.31756e-13)
(2.65393e-13 0 -1.14824e-13)
(3.36321e-13 0 -9.75599e-14)
(3.95401e-13 0 -8.03139e-14)
(4.42804e-13 0 -6.33752e-14)
(4.78905e-13 0 -4.69849e-14)
(5.04249e-13 0 -3.13432e-14)
(5.19503e-13 0 -1.66066e-14)
(5.25402e-13 0 -2.88076e-15)
(5.22704e-13 0 9.77369e-15)
(5.12183e-13 0 2.13251e-14)
(4.94613e-13 0 3.1753e-14)
(4.70764e-13 0 4.10434e-14)
(4.41378e-13 0 4.91976e-14)
(4.07144e-13 0 5.62453e-14)
(3.68694e-13 0 6.225e-14)
(3.26613e-13 0 6.73011e-14)
(2.81453e-13 0 7.14975e-14)
(2.3375e-13 0 7.49289e-14)
(1.84022e-13 0 7.76636e-14)
(1.32763e-13 0 7.97467e-14)
(8.04629e-14 0 8.12106e-14)
(2.70567e-14 0 8.21074e-14)
(2.66868e-06 0 -0.000136896)
(5.3586e-05 0 -0.000119909)
(3.013e-05 0 -9.65046e-05)
(5.12571e-05 0 9.26123e-06)
(3.25038e-05 0 5.02893e-05)
(2.21084e-06 0 6.78077e-05)
(-2.99781e-05 0 6.08e-05)
(-6.04478e-05 0 5.00853e-05)
(-6.53413e-05 0 3.44749e-06)
(-5.03614e-05 0 1.38588e-06)
(-4.86483e-05 0 1.91749e-05)
(-7.17631e-05 0 1.09958e-05)
(-8.23841e-05 0 0.000128354)
(-0.000155635 0 0.000121472)
(-0.000226799 0 0.000203585)
(-0.000407501 0 0.000239063)
(-0.000514856 0 0.000374139)
(-0.000697948 0 0.000341673)
(-0.000808283 0 0.000328869)
(-0.000926458 0 0.000287377)
(-0.00104033 0 0.000207235)
(-0.00109252 0 0.000191217)
(-0.00110271 0 0.000240954)
(-0.00113159 0 0.000195452)
(-0.00115791 0 0.000160558)
(-0.00116843 0 0.000138207)
(-0.001182 0 6.8208e-05)
(-0.00119636 0 5.36061e-05)
(-0.00120268 0 4.33182e-05)
(-0.0011885 0 3.33339e-06)
(-0.00118229 0 2.91032e-06)
(-0.0011874 0 -1.89864e-05)
(-0.00115829 0 -0.000161179)
(-0.00113569 0 1.87972e-05)
(-0.00109193 0 -0.000113925)
(-0.00105435 0 -0.00010429)
(-0.00102314 0 -5.63965e-05)
(-0.000984789 0 -9.93101e-05)
(-0.00095047 0 -7.57357e-05)
(-0.000921757 0 -7.08588e-05)
(-0.000909104 0 -5.83324e-05)
(-0.000904854 0 -4.40334e-05)
(-0.000896915 0 -3.90994e-05)
(-0.000880021 0 -4.47199e-05)
(-0.000863459 0 -4.92262e-05)
(-0.000855101 0 -5.86542e-05)
(-0.000852497 0 -7.04621e-05)
(-0.000856481 0 -0.000109812)
(-0.000864152 0 -0.000107891)
(-0.000848052 0 -0.000147722)
(-0.000791615 0 -0.00020146)
(-0.000776276 0 -0.000137314)
(-0.000767114 0 -0.000120913)
(-0.000677632 0 -0.000361371)
(-0.000698365 0 -8.10013e-05)
(-0.000599061 0 -0.000211626)
(-0.000512897 0 -0.000281992)
(-0.000456516 0 -0.00021409)
(-0.000377057 0 -0.000234233)
(-0.000329932 0 -0.000188374)
(-0.000232837 0 -0.000241249)
(-0.000147571 0 -0.000231245)
(-3.25909e-05 0 -0.000249367)
(8.57944e-05 0 -0.000148085)
(0.000180964 0 -0.000126483)
(0.000246533 0 -0.000123659)
(0.000330088 0 -1.66695e-05)
(0.00042881 0 8.97128e-05)
(0.000467817 0 0.000239835)
(0.000532753 0 0.000261477)
(0.00053263 0 0.000243252)
(0.000439308 0 0.000242925)
(0.000374412 0 0.000219475)
(0.000252933 0 0.000167937)
(0.000179765 0 0.000208495)
(0.000219275 0 0.000165863)
(0.000181653 0 0.000146507)
(0.000110769 0 -7.53743e-05)
(-0.000293344 0 -0.000294716)
(4.01435e-06 0 -0.000458421)
(-1.03307e-12 0 1.54894e-14)
(-2.76007e-12 0 -7.30825e-14)
(-1.64023e-12 0 -1.50025e-13)
(-1.514e-12 0 -1.9423e-13)
(-1.40984e-12 0 -2.29135e-13)
(-1.30396e-12 0 -2.60212e-13)
(-1.18944e-12 0 -2.87673e-13)
(-1.06528e-12 0 -3.10438e-13)
(-9.3294e-13 0 -3.27412e-13)
(-7.94837e-13 0 -3.37896e-13)
(-6.53775e-13 0 -3.41643e-13)
(-5.1262e-13 0 -3.38797e-13)
(-3.74113e-13 0 -3.2982e-13)
(-2.40722e-13 0 -3.15411e-13)
(-1.14564e-13 0 -2.96405e-13)
(2.61017e-15 0 -2.73687e-13)
(1.09411e-13 0 -2.48134e-13)
(2.04835e-13 0 -2.2059e-13)
(2.88257e-13 0 -1.91839e-13)
(3.594e-13 0 -1.62578e-13)
(4.18271e-13 0 -1.334e-13)
(4.65107e-13 0 -1.04796e-13)
(5.00341e-13 0 -7.71723e-14)
(5.24578e-13 0 -5.08607e-14)
(5.38553e-13 0 -2.61188e-14)
(5.43062e-13 0 -3.12274e-15)
(5.38909e-13 0 1.80252e-14)
(5.26886e-13 0 3.72725e-14)
(5.07781e-13 0 5.45936e-14)
(4.82387e-13 0 6.99842e-14)
(4.51484e-13 0 8.34723e-14)
(4.1581e-13 0 9.51324e-14)
(3.76037e-13 0 1.05087e-13)
(3.32768e-13 0 1.13487e-13)
(2.86545e-13 0 1.2049e-13)
(2.37876e-13 0 1.26224e-13)
(1.87241e-13 0 1.30781e-13)
(1.35099e-13 0 1.34209e-13)
(8.18893e-14 0 1.36517e-13)
(2.75354e-14 0 1.37668e-13)
(-1.63265e-05 0 -0.000153684)
(2.28846e-05 0 -0.000120112)
(1.49275e-05 0 -7.04061e-05)
(2.40457e-05 0 3.72593e-05)
(-1.63168e-05 0 6.62967e-05)
(-2.19973e-05 0 8.80295e-05)
(-3.31938e-05 0 9.19091e-05)
(-7.09824e-05 0 6.1167e-05)
(-6.31258e-05 0 4.08184e-05)
(-6.88989e-05 0 3.60904e-05)
(-0.000122242 0 -4.06585e-06)
(-0.000115371 0 0.000128058)
(-0.000215088 0 0.000102739)
(-0.000275856 0 0.000247794)
(-0.000435989 0 0.000297182)
(-0.000576484 0 0.00040267)
(-0.000674697 0 0.000453661)
(-0.000770722 0 0.00041378)
(-0.000865243 0 0.000348827)
(-0.000969959 0 0.000324303)
(-0.00102354 0 0.000368088)
(-0.00105213 0 0.000338457)
(-0.00109982 0 0.000151192)
(-0.00111775 0 0.000117742)
(-0.00112475 0 0.000174435)
(-0.00112434 0 9.28851e-05)
(-0.00109895 0 3.87958e-05)
(-0.0010825 0 7.73024e-05)
(-0.00106804 0 8.22826e-05)
(-0.00103882 0 -2.03139e-05)
(-0.00100776 0 -2.0574e-05)
(-0.000994464 0 -6.20124e-06)
(-0.000966724 0 -6.10218e-05)
(-0.000922611 0 -0.000120204)
(-0.000903056 0 -4.4405e-05)
(-0.000874452 0 -7.13134e-05)
(-0.000841082 0 -9.22783e-05)
(-0.000820702 0 -4.35637e-05)
(-0.000795534 0 -5.8361e-05)
(-0.000778793 0 -5.67693e-05)
(-0.000769645 0 -6.1522e-05)
(-0.000759935 0 -7.15089e-05)
(-0.000742737 0 -7.55155e-05)
(-0.000732175 0 -6.66724e-05)
(-0.000730786 0 -5.77114e-05)
(-0.000745754 0 -3.21969e-05)
(-0.000765066 0 -4.52478e-05)
(-0.000775295 0 -9.33953e-05)
(-0.000777302 0 -0.000155431)
(-0.000792342 0 -0.000145726)
(-0.000797007 0 -0.000145104)
(-0.000787416 0 -0.000156504)
(-0.000803028 0 -0.000123089)
(-0.000814924 0 -0.000142938)
(-0.000773911 0 -0.000171346)
(-0.000734105 0 -0.000180902)
(-0.000599537 0 -0.000413894)
(-0.000612467 0 -0.000158643)
(-0.000399076 0 -0.0004105)
(-0.00042317 0 -0.000229311)
(-7.42886e-05 0 -0.000455019)
(-9.32247e-05 0 -0.000327951)
(-7.20827e-05 0 -0.000291878)
(-1.28181e-05 0 -0.000301197)
(0.000165442 0 -0.000246771)
(0.000201676 0 -0.000167466)
(0.000269012 0 -8.92189e-05)
(0.000335875 0 -2.0109e-05)
(0.000395543 0 0.000151721)
(0.000495438 0 0.000179252)
(0.000520075 0 0.000281154)
(0.000562106 0 0.000259792)
(0.000551807 0 0.000263616)
(0.000549374 0 0.000205383)
(0.000357875 0 0.000344706)
(0.000461288 0 2.51905e-05)
(0.000213645 0 0.000286198)
(0.000306885 0 -0.000164296)
(-8.42471e-05 0 -0.000220764)
(4.1449e-06 0 -0.000348817)
(-9.36477e-13 0 -6.16358e-13)
(-2.70772e-12 0 -3.21279e-13)
(-1.64952e-12 0 -2.81912e-13)
(-1.54255e-12 0 -2.9616e-13)
(-1.44374e-12 0 -3.30816e-13)
(-1.3376e-12 0 -3.71309e-13)
(-1.21939e-12 0 -4.10167e-13)
(-1.08927e-12 0 -4.43147e-13)
(-9.49554e-13 0 -4.67802e-13)
(-8.03416e-13 0 -4.82892e-13)
(-6.54244e-13 0 -4.88061e-13)
(-5.05351e-13 0 -4.83576e-13)
(-3.59818e-13 0 -4.70158e-13)
(-2.20345e-13 0 -4.48865e-13)
(-8.91601e-14 0 -4.20959e-13)
(3.19603e-14 0 -3.87769e-13)
(1.41657e-13 0 -3.50603e-13)
(2.38984e-13 0 -3.10702e-13)
(3.23406e-13 0 -2.69211e-13)
(3.9476e-13 0 -2.27154e-13)
(4.53183e-13 0 -1.85396e-13)
(4.99031e-13 0 -1.44642e-13)
(5.3284e-13 0 -1.05453e-13)
(5.55303e-13 0 -6.8276e-14)
(5.67241e-13 0 -3.34574e-14)
(5.69545e-13 0 -1.23314e-15)
(5.631e-13 0 2.82708e-14)
(5.48751e-13 0 5.50174e-14)
(5.27324e-13 0 7.90259e-14)
(4.99643e-13 0 1.00348e-13)
(4.66526e-13 0 1.19063e-13)
(4.28758e-13 0 1.35288e-13)
(3.87049e-13 0 1.4918e-13)
(3.42016e-13 0 1.60924e-13)
(2.9419e-13 0 1.70705e-13)
(2.44042e-13 0 1.78688e-13)
(1.92007e-13 0 1.8499e-13)
(1.38499e-13 0 1.89684e-13)
(8.39222e-14 0 1.92798e-13)
(2.8208e-14 0 1.94333e-13)
(-2.39236e-05 0 -0.000158721)
(3.91863e-06 0 -0.000113521)
(-4.44908e-05 0 -4.4846e-05)
(-3.83299e-05 0 5.33045e-05)
(-7.80343e-05 0 7.85259e-05)
(-6.72839e-05 0 0.000109107)
(-7.85435e-05 0 9.80003e-05)
(-8.69789e-05 0 5.13161e-05)
(-7.45734e-05 0 4.36975e-05)
(-0.000108202 0 1.44105e-05)
(-0.000104195 0 0.00014041)
(-0.00023464 0 0.000119569)
(-0.00033392 0 0.000237982)
(-0.000424203 0 0.000388865)
(-0.000596534 0 0.000446704)
(-0.000724381 0 0.000511941)
(-0.000802453 0 0.000523241)
(-0.000822297 0 0.000525266)
(-0.000891347 0 0.000429316)
(-0.000950392 0 0.000359116)
(-0.000981538 0 0.000336977)
(-0.00100553 0 0.000290658)
(-0.00101994 0 0.000219502)
(-0.00102696 0 0.000172576)
(-0.00101876 0 0.000177007)
(-0.000981104 0 0.000105289)
(-0.000917375 0 7.61727e-05)
(-0.00088139 0 5.96019e-05)
(-0.000876337 0 3.65453e-05)
(-0.000873421 0 -1.20185e-05)
(-0.00081437 0 -9.58321e-05)
(-0.00078392 0 -7.47075e-05)
(-0.000770681 0 -7.07937e-05)
(-0.000746385 0 -0.000104593)
(-0.000723881 0 -0.000122688)
(-0.000696012 0 -0.000118851)
(-0.000676797 0 -0.000114761)
(-0.000656209 0 -0.000104118)
(-0.000631625 0 -0.000101762)
(-0.000617785 0 -9.19749e-05)
(-0.00061062 0 -7.96712e-05)
(-0.000608279 0 -6.87541e-05)
(-0.000604113 0 -6.99212e-05)
(-0.000603129 0 -6.195e-05)
(-0.000615616 0 -2.40725e-05)
(-0.000627938 0 -2.62915e-05)
(-0.000640588 0 -4.13193e-05)
(-0.000655514 0 -7.96651e-05)
(-0.000676408 0 -0.000161975)
(-0.000728212 0 -0.000160791)
(-0.000747985 0 -0.000179102)
(-0.000773847 0 -0.000141842)
(-0.000805565 0 -0.000145826)
(-0.000811072 0 -0.000180581)
(-0.000802627 0 -0.000208122)
(-0.00079219 0 -0.00024972)
(-0.000744112 0 -0.000362061)
(-0.000693072 0 -0.00036141)
(-0.000460928 0 -0.000582262)
(-0.000442098 0 -0.000467076)
(-0.000363663 0 -0.000411605)
(-0.000216297 0 -0.000402358)
(-0.000102888 0 -0.000387598)
(8.95389e-05 0 -0.000356893)
(4.81682e-05 0 -0.000321905)
(0.000107477 0 -0.000223887)
(0.000239302 0 -0.000120027)
(0.000288565 0 -5.89749e-05)
(0.000339533 0 4.60757e-05)
(0.000419845 0 9.99071e-05)
(0.000474227 0 0.000266492)
(0.000564324 0 0.000227625)
(0.000600147 0 0.000247058)
(0.000585387 0 0.000299082)
(0.00054028 0 0.000324839)
(0.000551752 0 0.000216925)
(0.000407767 0 0.000238616)
(0.000401396 0 0.000111831)
(-6.59372e-05 0 -6.7652e-05)
(4.35617e-06 0 -0.000228365)
(-8.65365e-13 0 -8.10062e-13)
(-2.56563e-12 0 -4.25935e-13)
(-1.61497e-12 0 -3.60544e-13)
(-1.56291e-12 0 -3.78128e-13)
(-1.48499e-12 0 -4.27013e-13)
(-1.38332e-12 0 -4.84314e-13)
(-1.26127e-12 0 -5.38756e-13)
(-1.12292e-12 0 -5.84371e-13)
(-9.72685e-13 0 -6.17977e-13)
(-8.15096e-13 0 -6.38114e-13)
(-6.54459e-13 0 -6.44513e-13)
(-4.94716e-13 0 -6.37723e-13)
(-3.39402e-13 0 -6.18856e-13)
(-1.91524e-13 0 -5.89438e-13)
(-5.34681e-14 0 -5.51252e-13)
(7.29662e-14 0 -5.06164e-13)
(1.86479e-13 0 -4.55994e-13)
(2.86226e-13 0 -4.02443e-13)
(3.71805e-13 0 -3.47058e-13)
(4.43216e-13 0 -2.9121e-13)
(5.00783e-13 0 -2.36058e-13)
(5.4505e-13 0 -1.82532e-13)
(5.76706e-13 0 -1.31346e-13)
(5.96574e-13 0 -8.30404e-14)
(6.05596e-13 0 -3.80187e-14)
(6.0479e-13 0 3.45596e-15)
(5.95159e-13 0 4.12634e-14)
(5.77641e-13 0 7.54086e-14)
(5.53111e-13 0 1.05979e-13)
(5.22424e-13 0 1.33102e-13)
(4.86424e-13 0 1.56921e-13)
(4.45928e-13 0 1.77602e-13)
(4.01673e-13 0 1.9533e-13)
(3.54293e-13 0 2.10315e-13)
(3.04309e-13 0 2.22773e-13)
(2.52161e-13 0 2.32896e-13)
(1.98237e-13 0 2.40843e-13)
(1.42906e-13 0 2.46718e-13)
(8.65384e-14 0 2.50588e-13)
(2.90711e-14 0 2.5249e-13)
(-4.69486e-05 0 -0.000123606)
(-7.89076e-05 0 -6.99118e-05)
(-6.93558e-05 0 -4.34314e-05)
(-9.97114e-05 0 6.89331e-05)
(-7.33064e-05 0 0.000131321)
(-0.000122649 0 0.000107696)
(-0.000128445 0 7.54098e-05)
(-0.000126137 0 4.89604e-05)
(-0.000141811 0 1.64081e-05)
(-0.000172148 0 4.0011e-05)
(-0.000160995 0 0.000191747)
(-0.000368767 0 0.000205736)
(-0.0004599 0 0.000400696)
(-0.000571287 0 0.000524566)
(-0.0007402 0 0.000532722)
(-0.000791908 0 0.000606351)
(-0.000827285 0 0.000614641)
(-0.00084302 0 0.000591001)
(-0.000871315 0 0.000505651)
(-0.000929907 0 0.0003627)
(-0.000917158 0 0.000342199)
(-0.000884347 0 0.000376426)
(-0.000900888 0 0.000182255)
(-0.000837983 0 0.000217951)
(-0.000825518 0 0.000129958)
(-0.000805255 0 0.000116907)
(-0.000778384 0 -5.84875e-05)
(-0.000708468 0 -4.77543e-05)
(-0.000668542 0 3.32025e-06)
(-0.00065734 0 6.8878e-06)
(-0.00064176 0 -0.000114401)
(-0.000602042 0 -0.000115573)
(-0.000575571 0 -8.22004e-05)
(-0.000548146 0 -0.000142516)
(-0.000544318 0 -9.21573e-05)
(-0.000505489 0 -0.000144701)
(-0.000482588 0 -0.000133302)
(-0.000461433 0 -0.000107551)
(-0.000442405 0 -0.000107406)
(-0.000438189 0 -8.54864e-05)
(-0.000438571 0 -7.54968e-05)
(-0.00044216 0 -6.66955e-05)
(-0.000440482 0 -6.90605e-05)
(-0.000444322 0 -4.50417e-05)
(-0.000463069 0 -1.88821e-05)
(-0.000485277 0 -2.07431e-05)
(-0.000503092 0 -1.22875e-05)
(-0.000509861 0 -1.91174e-05)
(-0.000540056 0 -8.71771e-05)
(-0.000635116 0 -8.84555e-05)
(-0.000674262 0 -7.51289e-05)
(-0.000689033 0 -0.00017957)
(-0.000782137 0 -5.93066e-05)
(-0.00079303 0 -0.000178558)
(-0.000802652 0 -0.000231251)
(-0.000795792 0 -0.000314948)
(-0.000758533 0 -0.000421607)
(-0.000723607 0 -0.00048235)
(-0.000707264 0 -0.00047873)
(-0.000441177 0 -0.000685434)
(-0.000416416 0 -0.000578495)
(-0.000224922 0 -0.000574788)
(-0.000169336 0 -0.000477874)
(-3.85153e-06 0 -0.000450987)
(8.20003e-05 0 -0.000385924)
(-1.15105e-05 0 -0.000363453)
(0.000262312 0 -0.000204862)
(0.00023767 0 -0.000176237)
(0.000303532 0 -6.87048e-05)
(0.000361672 0 -1.40596e-05)
(0.00042518 0 0.000132762)
(0.000510891 0 0.000148239)
(0.000548496 0 0.000222965)
(0.000554846 0 0.000286244)
(0.000538853 0 0.000301498)
(0.000535788 0 0.000242127)
(0.000440154 0 0.000277478)
(0.000428529 0 0.000143178)
(3.0898e-05 0 7.57873e-05)
(4.84575e-06 0 -9.56574e-05)
(-8.82552e-13 0 -3.86774e-13)
(-2.38099e-12 0 -3.14457e-13)
(-1.60157e-12 0 -3.56406e-13)
(-1.60902e-12 0 -4.29061e-13)
(-1.54993e-12 0 -5.14962e-13)
(-1.44934e-12 0 -6.00266e-13)
(-1.31945e-12 0 -6.76187e-13)
(-1.16849e-12 0 -7.37544e-13)
(-1.0033e-12 0 -7.81532e-13)
(-8.29952e-13 0 -8.07017e-13)
(-6.53853e-13 0 -8.14143e-13)
(-4.79694e-13 0 -8.03971e-13)
(-3.11534e-13 0 -7.78188e-13)
(-1.52741e-13 0 -7.38936e-13)
(-5.88595e-15 0 -6.88641e-13)
(1.27218e-13 0 -6.29816e-13)
(2.45378e-13 0 -5.64888e-13)
(3.4792e-13 0 -4.96086e-13)
(4.34639e-13 0 -4.254e-13)
(5.0576e-13 0 -3.54569e-13)
(5.6186e-13 0 -2.85052e-13)
(6.03744e-13 0 -2.18006e-13)
(6.32332e-13 0 -1.54286e-13)
(6.4863e-13 0 -9.45007e-14)
(6.53738e-13 0 -3.90711e-14)
(6.48828e-13 0 1.17483e-14)
(6.35052e-13 0 5.78687e-14)
(6.13467e-13 0 9.93523e-14)
(5.85017e-13 0 1.36367e-13)
(5.50585e-13 0 1.69129e-13)
(5.11026e-13 0 1.97865e-13)
(4.67167e-13 0 2.22802e-13)
(4.19763e-13 0 2.44171e-13)
(3.69458e-13 0 2.62213e-13)
(3.16771e-13 0 2.77174e-13)
(2.62112e-13 0 2.89287e-13)
(2.05829e-13 0 2.98746e-13)
(1.48244e-13 0 3.05702e-13)
(8.96934e-14 0 3.10262e-13)
(3.011e-14 0 3.12498e-13)
(-5.10169e-05 0 -0.00010176)
(-2.62088e-05 0 -7.46754e-05)
(-6.62839e-05 0 -3.85403e-06)
(-0.00010318 0 0.000112003)
(-0.000135687 0 0.000123009)
(-0.000147099 0 0.000121577)
(-0.000145873 0 9.70326e-05)
(-0.000151098 0 7.61724e-05)
(-0.000227314 0 3.82191e-05)
(-0.000271102 0 0.000104915)
(-0.000261312 0 0.000300088)
(-0.000491501 0 0.000350507)
(-0.000573704 0 0.000546361)
(-0.00072044 0 0.000586271)
(-0.000753906 0 0.000655508)
(-0.000798719 0 0.00063458)
(-0.000823748 0 0.000610128)
(-0.000844783 0 0.000573921)
(-0.000846567 0 0.000511164)
(-0.000796059 0 0.000515839)
(-0.00082308 0 0.000352074)
(-0.000802211 0 0.000241167)
(-0.000730008 0 0.000244132)
(-0.000707932 0 2.57607e-06)
(-0.000622118 0 0.000112512)
(-0.000597946 0 2.06414e-05)
(-0.00059571 0 2.44785e-05)
(-0.000597048 0 1.26112e-05)
(-0.000542615 0 -6.46244e-05)
(-0.000506133 0 -9.94139e-05)
(-0.000508571 0 -5.08797e-05)
(-0.000501369 0 -5.58885e-05)
(-0.000450237 0 -0.000189621)
(-0.000452048 0 -0.000109733)
(-0.000421378 0 -0.000150658)
(-0.000382041 0 -0.000176794)
(-0.00034203 0 -0.000154531)
(-0.000278152 0 -0.000158392)
(-0.00023942 0 -0.000121529)
(-0.000221915 0 -9.98697e-05)
(-0.000236096 0 -6.1856e-05)
(-0.00024464 0 -6.13011e-05)
(-0.00024264 0 -5.95953e-05)
(-0.000258895 0 -2.50537e-05)
(-0.000294693 0 -3.14489e-06)
(-0.000321437 0 1.13259e-06)
(-0.000342785 0 2.28098e-05)
(-0.000352666 0 1.42159e-05)
(-0.000368071 0 -0.000113469)
(-0.000473191 0 1.22201e-05)
(-0.000543358 0 5.44264e-06)
(-0.000597752 0 -0.000135259)
(-0.00068606 0 -4.08596e-05)
(-0.000726561 0 -0.000118162)
(-0.000746211 0 -0.000288247)
(-0.000794632 0 -0.000295654)
(-0.000753089 0 -0.000451696)
(-0.000690439 0 -0.000563796)
(-0.000623939 0 -0.000648632)
(-0.000481218 0 -0.000763074)
(-0.000463761 0 -0.000720569)
(-0.000258978 0 -0.00072033)
(-0.000301779 0 -0.000540546)
(-0.00011158 0 -0.000537206)
(-4.99445e-05 0 -0.000494277)
(8.7943e-05 0 -0.000413834)
(0.000162451 0 -0.000311009)
(0.000143491 0 -0.000261005)
(0.000277317 0 -2.95955e-05)
(0.000332785 0 2.06488e-05)
(0.000375752 0 0.000129989)
(0.000418766 0 0.000159933)
(0.000438654 0 0.000224429)
(0.000463972 0 0.000263689)
(0.000455835 0 0.000332255)
(0.000445433 0 0.00032832)
(0.000379255 0 0.000347033)
(0.000429596 0 0.000249074)
(-0.00038181 0 8.60328e-05)
(4.79651e-06 0 7.87069e-05)
(-9.6022e-13 0 -7.11052e-14)
(-2.62967e-12 0 -1.71974e-13)
(-1.72942e-12 0 -3.21453e-13)
(-1.72146e-12 0 -4.66707e-13)
(-1.6562e-12 0 -6.03378e-13)
(-1.54454e-12 0 -7.25408e-13)
(-1.39855e-12 0 -8.27923e-13)
(-1.22826e-12 0 -9.07722e-13)
(-1.04216e-12 0 -9.63129e-13)
(-8.47707e-13 0 -9.93803e-13)
(-6.51413e-13 0 -1.00062e-12)
(-4.58762e-13 0 -9.85395e-13)
(-2.74367e-13 0 -9.5062e-13)
(-1.01976e-13 0 -8.99229e-13)
(5.56513e-14 0 -8.34441e-13)
(1.96719e-13 0 -7.59541e-13)
(3.20209e-13 0 -6.77666e-13)
(4.25714e-13 0 -5.91654e-13)
(5.13322e-13 0 -5.03982e-13)
(5.83564e-13 0 -4.16762e-13)
(6.37345e-13 0 -3.31747e-13)
(6.75816e-13 0 -2.50306e-13)
(7.00212e-13 0 -1.73418e-13)
(7.11788e-13 0 -1.01733e-13)
(7.11845e-13 0 -3.56505e-14)
(7.0173e-13 0 2.46228e-14)
(6.82764e-13 0 7.90599e-14)
(6.56139e-13 0 1.27798e-13)
(6.22887e-13 0 1.71097e-13)
(5.83922e-13 0 2.09276e-13)
(5.40098e-13 0 2.42663e-13)
(4.92233e-13 0 2.71571e-13)
(4.41084e-13 0 2.96297e-13)
(3.87297e-13 0 3.17131e-13)
(3.31383e-13 0 3.34361e-13)
(2.73733e-13 0 3.4826e-13)
(2.14653e-13 0 3.59069e-13)
(1.54422e-13 0 3.66985e-13)
(9.33337e-14 0 3.72155e-13)
(3.13071e-14 0 3.74686e-13)
(-2.23151e-05 0 -9.50161e-05)
(-6.6127e-06 0 -4.66516e-05)
(-9.22857e-05 0 5.57899e-05)
(-0.000125014 0 0.000119087)
(-0.000149274 0 0.000142297)
(-0.000149999 0 0.000150181)
(-0.000161166 0 0.0001263)
(-0.000152992 0 0.000129686)
(-0.000259679 0 0.000139677)
(-0.000374891 0 0.000225587)
(-0.000447563 0 0.000384983)
(-0.000594928 0 0.00048418)
(-0.00067437 0 0.000596662)
(-0.000711685 0 0.000662747)
(-0.000742378 0 0.000672503)
(-0.000778508 0 0.000653286)
(-0.000776856 0 0.000656997)
(-0.000745296 0 0.000647209)
(-0.000761364 0 0.000523131)
(-0.000788267 0 0.000324445)
(-0.000754968 0 0.00018803)
(-0.00062294 0 0.000356855)
(-0.000647679 0 0.000102781)
(-0.000583816 0 0.000173435)
(-0.000563183 0 -1.85255e-05)
(-0.000490919 0 3.2067e-05)
(-0.000458463 0 -5.76831e-05)
(-0.000450215 0 -5.32848e-05)
(-0.000452557 0 -5.32612e-05)
(-0.000452269 0 -7.05834e-05)
(-0.00043686 0 -0.00013532)
(-0.000441122 0 -0.00011865)
(-0.000444247 0 -0.000109458)
(-0.000413091 0 -0.000176644)
(-0.000403824 0 -0.000153267)
(-0.000358956 0 -0.000178078)
(-0.000295821 0 -0.000186878)
(-0.000215344 0 -0.000175429)
(-0.000127447 0 -0.000141941)
(-6.72822e-05 0 -8.71989e-05)
(-5.73135e-05 0 -5.15152e-05)
(-8.45424e-05 0 -3.97474e-05)
(-7.79243e-05 0 -4.79751e-05)
(-7.25699e-05 0 -2.17883e-05)
(-0.000132869 0 1.25336e-05)
(-0.000160779 0 1.95057e-05)
(-0.000164896 0 1.79397e-05)
(-0.000191169 0 3.20943e-05)
(-0.000240714 0 5.22887e-05)
(-0.000283119 0 -2.34186e-05)
(-0.000377231 0 -2.3953e-06)
(-0.000474441 0 6.79339e-05)
(-0.000512224 0 -6.41115e-05)
(-0.000566095 0 -0.000115744)
(-0.000608641 0 -0.000255713)
(-0.000641076 0 -0.000331937)
(-0.000623333 0 -0.000494412)
(-0.000556062 0 -0.000650162)
(-0.00056835 0 -0.000706806)
(-0.000504438 0 -0.000799097)
(-0.000437957 0 -0.00085067)
(-0.000214423 0 -0.000859941)
(-0.000260405 0 -0.00067609)
(-8.17302e-05 0 -0.000624958)
(-0.000138455 0 -0.000553274)
(-1.16712e-05 0 -0.000474607)
(-4.13041e-05 0 -0.000369411)
(0.000149777 0 -0.000198366)
(0.000122583 0 -0.000193535)
(0.000235879 0 -2.27064e-05)
(0.000271963 0 5.63438e-05)
(0.000299115 0 0.000102627)
(0.000314503 0 0.000190607)
(0.000318246 0 0.000280823)
(0.000398424 0 0.000260828)
(0.000467726 0 0.000238073)
(0.000420943 0 0.000284225)
(0.000362977 0 0.000340774)
(9.72098e-05 0 0.000377689)
(5.34595e-06 0 0.00023068)
(-1.17658e-12 0 1.79779e-13)
(-2.69756e-12 0 -4.04991e-14)
(-1.89613e-12 0 -2.90273e-13)
(-1.89094e-12 0 -5.126e-13)
(-1.80863e-12 0 -7.0605e-13)
(-1.67389e-12 0 -8.69665e-13)
(-1.50176e-12 0 -1.00196e-12)
(-1.3037e-12 0 -1.10179e-12)
(-1.08938e-12 0 -1.16882e-12)
(-8.67439e-13 0 -1.20375e-12)
(-6.45445e-13 0 -1.20842e-12)
(-4.29697e-13 0 -1.18566e-12)
(-2.25367e-13 0 -1.13899e-12)
(-3.65613e-14 0 -1.07236e-12)
(1.33802e-13 0 -9.89974e-13)
(2.83993e-13 0 -8.96021e-13)
(4.13265e-13 0 -7.94466e-13)
(5.21604e-13 0 -6.88843e-13)
(6.09532e-13 0 -5.82158e-13)
(6.77995e-13 0 -4.76902e-13)
(7.28316e-13 0 -3.7509e-13)
(7.62073e-13 0 -2.78271e-13)
(7.80906e-13 0 -1.87518e-13)
(7.86397e-13 0 -1.03491e-13)
(7.80093e-13 0 -2.65309e-14)
(7.63538e-13 0 4.32499e-14)
(7.38228e-13 0 1.05928e-13)
(7.05503e-13 0 1.61747e-13)
(6.66495e-13 0 2.11078e-13)
(6.22152e-13 0 2.54361e-13)
(5.73322e-13 0 2.92046e-13)
(5.208e-13 0 3.24553e-13)
(4.65322e-13 0 3.52269e-13)
(4.07522e-13 0 3.75556e-13)
(3.479e-13 0 3.94756e-13)
(2.8682e-13 0 4.10191e-13)
(2.24553e-13 0 4.22151e-13)
(1.6133e-13 0 4.30879e-13)
(9.7395e-14 0 4.36565e-13)
(3.26414e-14 0 4.39346e-13)
(-3.80891e-05 0 -5.47266e-05)
(-4.23998e-05 0 5.68434e-08)
(-0.000100547 0 9.41455e-05)
(-0.000117409 0 0.000150893)
(-0.000169633 0 0.000159885)
(-0.000180651 0 0.000162892)
(-0.000221575 0 0.000116632)
(-0.000242895 0 0.000131804)
(-0.000313449 0 0.000225787)
(-0.000459738 0 0.000352193)
(-0.00062951 0 0.000421659)
(-0.000657405 0 0.000571494)
(-0.000633289 0 0.000686698)
(-0.000691431 0 0.000679858)
(-0.000692292 0 0.000707879)
(-0.000708882 0 0.000698563)
(-0.00075012 0 0.000624662)
(-0.000786213 0 0.000466325)
(-0.000744508 0 0.000378834)
(-0.000662928 0 0.00037442)
(-0.000606802 0 0.000294789)
(-0.000575804 0 0.000172199)
(-0.000499413 0 0.000181027)
(-0.000487383 0 -8.05251e-05)
(-0.000433423 0 4.60025e-05)
(-0.000402117 0 -6.75318e-05)
(-0.000387368 0 -3.34068e-05)
(-0.000380597 0 -5.12002e-05)
(-0.00037935 0 -6.72349e-05)
(-0.000389279 0 -8.98519e-05)
(-0.000406862 0 -7.78168e-05)
(-0.000410078 0 -0.000117893)
(-0.000416027 0 -0.000142881)
(-0.000418157 0 -0.000157248)
(-0.00040481 0 -0.000184579)
(-0.000316697 0 -0.000311785)
(-0.000291443 0 -0.000289206)
(-0.00019481 0 -0.000311221)
(-7.65011e-05 0 -0.000298628)
(1.23887e-05 0 -0.000172091)
(7.13952e-05 0 -1.90273e-05)
(4.35499e-05 0 -3.71204e-06)
(0.000146185 0 -7.11099e-05)
(9.88937e-05 0 1.30659e-05)
(0.000109612 0 4.18955e-05)
(8.12351e-05 0 9.50048e-05)
(5.69522e-05 0 9.24013e-05)
(-8.59285e-06 0 8.20992e-05)
(-9.89922e-05 0 9.92391e-05)
(-0.00017571 0 0.000145629)
(-0.000251004 0 0.000103689)
(-0.000274467 0 0.000127715)