/*--------------------------------*- C++ -*----------------------------------*\
  =========                 |
  \\      /  F ield         | OpenFOAM: The Open Source CFD Toolbox
   \\    /   O peration     | Website:  https://openfoam.org
    \\  /    A nd           | Version:  6
     \\/     M anipulation  |
\*---------------------------------------------------------------------------*/
FoamFile
{
    version     2.0;
    format      ascii;
    class       volScalarField;
    location    "2000";
    object      dmdt;
}
// * * * * * * * * * * * * * * * * * * * * * * * * * * * * * * * * * * * * * //

dimensions      [0 0 0 0 0 0 0];

internalField   nonuniform List<scalar> 
4800
(
-0.219975
-0.218733
-0.217461
-0.216143
-0.214768
-0.213324
-0.211799
-0.210176
-0.20844
-0.206581
-0.204601
-0.20251
-0.200318
-0.198042
-0.195697
-0.1933
-0.190866
-0.188409
-0.185943
-0.183483
-0.181049
-0.178664
-0.176348
-0.174113
-0.171966
-0.169901
-0.167913
-0.165985
-0.164099
-0.162241
-0.160402
-0.158568
-0.156734
-0.154895
-0.153044
-0.151178
-0.149293
-0.147391
-0.145472
-0.143541
-0.141602
-0.139658
-0.137709
-0.135754
-0.133793
-0.131822
-0.129837
-0.127835
-0.125808
-0.123754
-0.121666
-0.119541
-0.117374
-0.115161
-0.112897
-0.110578
-0.108199
-0.105756
-0.103245
-0.100661
-0.0979991
-0.0952564
-0.0924293
-0.0895142
-0.0865078
-0.083407
-0.0802095
-0.0769126
-0.0735136
-0.0700093
-0.0663966
-0.062672
-0.0588301
-0.0548647
-0.0507696
-0.0465409
-0.0421761
-0.0376863
-0.0330879
-0.0284386
-0.0238364
-0.0193416
-0.0149862
-0.0107567
-0.00664337
-0.00263615
0.0012744
0.00509697
0.00883981
0.0125105
0.0161162
0.0196632
0.0231574
0.0266041
0.0300081
0.0333738
0.036705
0.0400051
0.0432773
0.0465245
0.049749
0.0529532
0.0561389
0.0593082
0.0624625
0.0656034
0.0687323
0.0718503
0.0749586
0.0780582
0.0811502
0.0842354
0.0873146
0.0903888
0.0934585
0.0965247
0.0995879
0.102649
0.105708
0.108766
-0.219958
-0.218684
-0.217383
-0.216038
-0.21464
-0.21318
-0.211645
-0.210021
-0.208288
-0.206433
-0.204458
-0.20237
-0.200181
-0.197907
-0.195566
-0.193173
-0.190743
-0.188292
-0.18583
-0.183375
-0.180947
-0.178567
-0.176256
-0.174023
-0.171872
-0.1698
-0.167798
-0.165856
-0.163957
-0.162087
-0.160237
-0.158397
-0.156558
-0.154711
-0.152854
-0.150981
-0.149094
-0.14719
-0.145273
-0.143343
-0.141406
-0.139463
-0.137515
-0.135562
-0.1336
-0.131628
-0.129641
-0.127636
-0.125606
-0.123549
-0.12146
-0.119333
-0.117163
-0.114947
-0.112678
-0.110354
-0.107969
-0.105521
-0.103004
-0.100414
-0.0977464
-0.0949974
-0.0921635
-0.0892414
-0.086228
-0.0831199
-0.0799151
-0.0766114
-0.0732061
-0.069697
-0.0660806
-0.0623546
-0.0585141
-0.0545538
-0.0504698
-0.0462583
-0.0419181
-0.0374597
-0.0329098
-0.0283078
-0.0237183
-0.0192205
-0.0148727
-0.0106529
-0.00654917
-0.00255102
0.00135109
0.00516588
0.00890155
0.0125657
0.0161654
0.019707
0.0231963
0.0266386
0.0300387
0.0334008
0.0367289
0.0400263
0.043296
0.046541
0.0497636
0.0529661
0.0561503
0.0593183
0.0624714
0.0656113
0.0687392
0.0718563
0.0749639
0.0780629
0.0811542
0.0842389
0.0873176
0.0903913
0.0934606
0.0965263
0.0995891
0.10265
0.105709
0.108767
-0.219927
-0.218587
-0.217224
-0.215829
-0.214392
-0.212904
-0.21135
-0.209715
-0.207984
-0.206135
-0.204169
-0.202089
-0.199909
-0.197642
-0.195309
-0.192924
-0.190502
-0.188061
-0.185611
-0.183169
-0.180752
-0.178384
-0.176081
-0.173851
-0.171693
-0.169604
-0.167578
-0.165607
-0.16368
-0.161787
-0.159916
-0.158059
-0.156204
-0.154344
-0.152476
-0.150598
-0.148708
-0.146805
-0.14489
-0.142965
-0.141031
-0.139092
-0.137147
-0.135196
-0.133236
-0.131265
-0.129278
-0.127271
-0.125239
-0.123179
-0.121085
-0.118953
-0.116777
-0.114554
-0.112278
-0.109945
-0.107551
-0.105092
-0.102564
-0.0999627
-0.097284
-0.094524
-0.0916789
-0.0887454
-0.0857208
-0.0826014
-0.079385
-0.0760699
-0.0726533
-0.0691337
-0.065509
-0.0617792
-0.0579404
-0.0539892
-0.0499208
-0.0457362
-0.0414355
-0.0370236
-0.0325322
-0.0279849
-0.0234362
-0.0189677
-0.0146437
-0.0104453
-0.00636125
-0.00238134
0.00150392
0.00530315
0.00902453
0.0126756
0.0162634
0.0197941
0.0232737
0.0267072
0.0300995
0.0334546
0.0367764
0.0400683
0.0433332
0.0465738
0.0497926
0.0529917
0.056173
0.0593383
0.0624891
0.0656269
0.0687529
0.0718684
0.0749745
0.0780721
0.0811623
0.0842458
0.0873235
0.0903963
0.0934647
0.0965296
0.0995917
0.102651
0.10571
0.108767
-0.219879
-0.218453
-0.217014
-0.215554
-0.214063
-0.212532
-0.210947
-0.209291
-0.207551
-0.205703
-0.203745
-0.201677
-0.199509
-0.197256
-0.194934
-0.192562
-0.190153
-0.187723
-0.185286
-0.182861
-0.180464
-0.178114
-0.175822
-0.173591
-0.171422
-0.16931
-0.16725
-0.165242
-0.163276
-0.161346
-0.159441
-0.157556
-0.155681
-0.153807
-0.15193
-0.150048
-0.148157
-0.146256
-0.144347
-0.142431
-0.140507
-0.138576
-0.136636
-0.134689
-0.132732
-0.130762
-0.128776
-0.12677
-0.124737
-0.122674
-0.120575
-0.118437
-0.116254
-0.114022
-0.111736
-0.109393
-0.106987
-0.104515
-0.101972
-0.0993557
-0.0966614
-0.0938857
-0.0910252
-0.0880762
-0.0850365
-0.0819028
-0.0786719
-0.0753429
-0.0719141
-0.0683832
-0.0647486
-0.0610125
-0.0571733
-0.0532324
-0.0491839
-0.045029
-0.0407715
-0.0364119
-0.0319763
-0.0274952
-0.0230106
-0.0185885
-0.0143012
-0.0101353
-0.00608084
-0.00212818
0.00173189
0.00550785
0.00920783
0.0128393
0.0164092
0.0199238
0.0233888
0.0268092
0.0301898
0.0335345
0.036847
0.0401307
0.0433883
0.0466225
0.0498356
0.0530297
0.0562066
0.0593679
0.0625153
0.06565
0.0687733
0.0718863
0.0749902
0.0780859
0.0811742
0.0842561
0.0873324
0.0904037
0.0934709
0.0965346
0.0995954
0.102654
0.105711
0.108768
-0.219832
-0.218309
-0.216776
-0.215233
-0.213672
-0.212086
-0.210459
-0.208773
-0.207014
-0.205161
-0.203208
-0.201151
-0.198999
-0.196762
-0.194457
-0.1921
-0.189703
-0.187287
-0.184869
-0.182466
-0.180094
-0.177762
-0.175476
-0.173238
-0.171053
-0.168914
-0.166816
-0.164763
-0.16275
-0.160773
-0.158828
-0.15691
-0.155013
-0.153124
-0.151239
-0.149352
-0.147462
-0.145569
-0.14367
-0.141765
-0.139852
-0.137932
-0.136001
-0.134061
-0.132108
-0.130141
-0.128156
-0.12615
-0.124116
-0.122049
-0.119944
-0.117798
-0.115607
-0.113366
-0.111069
-0.108712
-0.106293
-0.103805
-0.101247
-0.0986148
-0.0959036
-0.0931108
-0.0902329
-0.0872674
-0.0842111
-0.0810622
-0.0778164
-0.0744711
-0.0710272
-0.0674841
-0.0638394
-0.0600979
-0.0562574
-0.0523229
-0.0482932
-0.0441699
-0.0399584
-0.0356681
-0.0313066
-0.0268945
-0.0224693
-0.0180919
-0.0138496
-0.00972551
-0.00570983
-0.00179315
0.00203352
0.0057786
0.00945012
0.0130556
0.0166017
0.0200949
0.0235405
0.0269436
0.0303086
0.0336396
0.0369399
0.0402127
0.0434608
0.0466866
0.0498922
0.0530797
0.0562507
0.0594069
0.0625497
0.0656804
0.0688001
0.0719099
0.0750109
0.0781039
0.0811899
0.0842697
0.0873439
0.0904135
0.0934789
0.096541
0.0996004
0.102658
0.105713
0.108768
-0.219774
-0.218142
-0.216512
-0.214878
-0.213237
-0.211582
-0.209901
-0.208179
-0.206394
-0.204527
-0.202573
-0.200526
-0.198388
-0.196172
-0.193889
-0.191555
-0.189183
-0.186788
-0.184389
-0.182006
-0.179652
-0.177332
-0.175047
-0.172798
-0.170589
-0.168421
-0.166284
-0.164184
-0.162123
-0.160102
-0.158115
-0.156161
-0.154235
-0.152328
-0.150434
-0.148546
-0.14666
-0.144774
-0.142886
-0.140993
-0.139092
-0.137182
-0.135261
-0.133326
-0.131378
-0.129413
-0.127427
-0.125417
-0.123378
-0.121305
-0.119194
-0.11704
-0.114839
-0.112587
-0.110278
-0.107909
-0.105475
-0.102973
-0.100398
-0.0977486
-0.0950198
-0.0922097
-0.0893138
-0.0863317
-0.083258
-0.0800928
-0.0768321
-0.0734725
-0.0700151
-0.0664599
-0.0628038
-0.0590554
-0.0552163
-0.051288
-0.0472712
-0.0431706
-0.0389932
-0.0347522
-0.0304584
-0.0261302
-0.0217909
-0.0174777
-0.0132913
-0.00921847
-0.00525042
-0.00137822
0.00240698
0.00611358
0.00974965
0.0133226
0.0168393
0.0203057
0.0237273
0.0271089
0.0304548
0.0337687
0.0370539
0.0403134
0.0435497
0.0467651
0.0499616
0.053141
0.0563049
0.0594548
0.0625919
0.0657176
0.0688329
0.0719388
0.0750362
0.0781261
0.0812092
0.0842863
0.0873581
0.0904254
0.0934888
0.096549
0.0996064
0.102662
0.105716
0.108769
-0.21972
-0.21798
-0.216242
-0.214505
-0.21277
-0.211034
-0.209288
-0.20752
-0.205706
-0.203825
-0.201869
-0.199827
-0.197703
-0.195505
-0.193245
-0.190936
-0.188587
-0.186217
-0.183843
-0.18148
-0.179141
-0.176827
-0.174537
-0.172273
-0.170037
-0.167837
-0.16567
-0.163535
-0.161432
-0.159367
-0.15734
-0.15535
-0.153395
-0.151468
-0.149564
-0.147675
-0.14579
-0.143906
-0.142023
-0.140136
-0.138243
-0.13634
-0.134426
-0.132493
-0.130545
-0.128577
-0.126585
-0.124569
-0.122522
-0.120442
-0.118323
-0.11616
-0.11395
-0.111687
-0.109368
-0.106985
-0.104538
-0.102021
-0.0994301
-0.0967634
-0.0940169
-0.0911897
-0.0882764
-0.0852779
-0.0821886
-0.0790078
-0.0757332
-0.0723613
-0.0688925
-0.0653268
-0.0616618
-0.0579046
-0.0540626
-0.0501346
-0.0461255
-0.0420448
-0.0379046
-0.0337176
-0.0294971
-0.0252512
-0.0209957
-0.0167533
-0.0126306
-0.00861707
-0.004705
-0.000885581
0.00285011
0.00651065
0.0101042
0.0136383
0.0171196
0.0205542
0.0239472
0.0273034
0.0306266
0.0339204
0.0371878
0.0404316
0.043654
0.0468572
0.0500429
0.0532128
0.0563683
0.0595108
0.0626415
0.0657613
0.0688714
0.0719727
0.075066
0.0781521
0.0812318
0.0843058
0.0873748
0.0904395
0.0935004
0.0965583
0.0996136
0.102667
0.105719
0.10877
-0.219662
-0.217809
-0.215962
-0.214118
-0.212282
-0.210455
-0.208636
-0.206815
-0.204963
-0.203062
-0.201098
-0.199063
-0.196954
-0.194778
-0.192541
-0.190255
-0.187933
-0.185589
-0.183238
-0.180892
-0.178563
-0.176251
-0.173953
-0.171672
-0.169411
-0.167177
-0.164976
-0.162809
-0.160676
-0.15858
-0.156522
-0.154505
-0.152527
-0.150583
-0.148666
-0.146768
-0.14488
-0.142991
-0.141104
-0.139215
-0.137321
-0.135416
-0.1335
-0.131562
-0.129608
-0.127632
-0.125632
-0.123605
-0.121549
-0.119459
-0.117331
-0.11516
-0.112941
-0.110669
-0.108339
-0.105946
-0.103485
-0.100954
-0.0983483
-0.0956659
-0.0929026
-0.0900585
-0.0871289
-0.0841141
-0.081011
-0.077817
-0.0745306
-0.0711475
-0.0676678
-0.0640919
-0.0604195
-0.0566541
-0.0528111
-0.0488905
-0.0449007
-0.0408478
-0.036744
-0.0326009
-0.028441
-0.024271
-0.0200957
-0.0159249
-0.0118707
-0.00792371
-0.00407571
-0.000317458
0.00336051
0.00696725
0.0105112
0.014
0.0174404
0.0208381
0.0241981
0.0275249
0.030822
0.0340928
0.0373399
0.0405658
0.0437724
0.0469617
0.0501352
0.0532943
0.0564404
0.0595745
0.0626977
0.0658109
0.0689152
0.0720112
0.0750997
0.0781816
0.0812575
0.084328
0.0873938
0.0904555
0.0935136
0.0965689
0.0996217
0.102673
0.105722
0.108771
-0.219606
-0.21764
-0.215683
-0.213732
-0.211797
-0.209882
-0.207985
-0.206104
-0.204212
-0.202284
-0.200306
-0.198267
-0.196164
-0.194
-0.191783
-0.189523
-0.187231
-0.184917
-0.182589
-0.180256
-0.17793
-0.175616
-0.173309
-0.17101
-0.168726
-0.166464
-0.164231
-0.162033
-0.159874
-0.157756
-0.155678
-0.153641
-0.151645
-0.149684
-0.147749
-0.145837
-0.143939
-0.14204
-0.140139
-0.138238
-0.136332
-0.134415
-0.132487
-0.130539
-0.128572
-0.126585
-0.124573
-0.122534
-0.120465
-0.118364
-0.116224
-0.114042
-0.111814
-0.109533
-0.107194
-0.104791
-0.10232
-0.0997765
-0.0971575
-0.0944612
-0.0916827
-0.0888227
-0.0858782
-0.0828474
-0.0797299
-0.0765227
-0.0732246
-0.069832
-0.066344
-0.0627606
-0.0590835
-0.0553151
-0.0514734
-0.0475627
-0.0435957
-0.0395782
-0.0355206
-0.0314265
-0.0273137
-0.023201
-0.0190949
-0.0149939
-0.0110128
-0.0071395
-0.00336418
0.000323972
0.00393554
0.00748041
0.0109675
0.0144046
0.0177983
0.0211543
0.0244772
0.0277709
0.031039
0.034284
0.0375085
0.0407144
0.0439035
0.0470774
0.0502373
0.0533845
0.0565201
0.0596449
0.0627599
0.0658658
0.0689636
0.0720538
0.0751372
0.0782143
0.0812859
0.0843526
0.0874148
0.0904732
0.0935283
0.0965806
0.0996307
0.102679
0.105726
0.108772
-0.219553
-0.217483
-0.215421
-0.213367
-0.211334
-0.209328
-0.207352
-0.2054
-0.203452
-0.201487
-0.199488
-0.197441
-0.195339
-0.193186
-0.190988
-0.188754
-0.18649
-0.184202
-0.181896
-0.179574
-0.177248
-0.17493
-0.172614
-0.1703
-0.167996
-0.165713
-0.16346
-0.161241
-0.159059
-0.15692
-0.154822
-0.152766
-0.15075
-0.14877
-0.146816
-0.144883
-0.142966
-0.141051
-0.139132
-0.137212
-0.135288
-0.133353
-0.131405
-0.129439
-0.127455
-0.125452
-0.123423
-0.121368
-0.119283
-0.117166
-0.115012
-0.112816
-0.110576
-0.108285
-0.105935
-0.103523
-0.101043
-0.0984897
-0.0958591
-0.0931503
-0.090359
-0.0874855
-0.0845271
-0.0814827
-0.0783512
-0.0751317
-0.0718229
-0.0684218
-0.0649261
-0.0613359
-0.0576537
-0.053883
-0.0500406
-0.0461358
-0.0421823
-0.038189
-0.0341655
-0.0301193
-0.026063
-0.0220147
-0.0179807
-0.0139551
-0.0100543
-0.00626397
-0.00257143
0.0010365
0.00457215
0.00804659
0.0114693
0.0148483
0.0181899
0.0214994
0.0247812
0.0280387
0.0312747
0.0344916
0.0376914
0.0408756
0.0440457
0.0472028
0.0503481
0.0534823
0.0566065
0.0597212
0.0628273
0.0659254
0.0690161
0.0721
0.0751778
0.0782499
0.0813169
0.0843793
0.0874376
0.0904925
0.0935442
0.0965934
0.0996405
0.102686
0.10573
0.108774
-0.219506
-0.217343
-0.215188
-0.21304
-0.210906
-0.208804
-0.206745
-0.204721
-0.202713
-0.200701
-0.19867
-0.196605
-0.1945
-0.192353
-0.19017
-0.187954
-0.185713
-0.183448
-0.181162
-0.178852
-0.176527
-0.174203
-0.171879
-0.169555
-0.167238
-0.164941
-0.16267
-0.160433
-0.158232
-0.156073
-0.153956
-0.15188
-0.149843
-0.147839
-0.145863
-0.143908
-0.141965
-0.140028
-0.138086
-0.136143
-0.134195
-0.132237
-0.130265
-0.128277
-0.126269
-0.124244
-0.122194
-0.120118
-0.118012
-0.115875
-0.113702
-0.111489
-0.109234
-0.10693
-0.104569
-0.102145
-0.099656
-0.0970928
-0.0944521
-0.091732
-0.0889289
-0.0860434
-0.0830731
-0.0800172
-0.0768733
-0.0736419
-0.0703234
-0.0669166
-0.0634182
-0.0598256
-0.0561406
-0.05237
-0.0485292
-0.0446295
-0.0406826
-0.0367007
-0.0326966
-0.0286874
-0.0246845
-0.0207019
-0.0167437
-0.0128015
-0.00899094
-0.00529544
-0.00169817
0.00181756
0.00526657
0.00866136
0.012012
0.0153264
0.0186106
0.0218695
0.0251066
0.0283248
0.0315264
0.0347131
0.0378864
0.0410474
0.0441972
0.0473365
0.0504661
0.0535866
0.0566986
0.0598026
0.0628992
0.0659889
0.0690721
0.0721494
0.0752211
0.0782878
0.0813499
0.0844078
0.0874621
0.090513
0.0935612
0.096607
0.0996509
0.102693
0.105735
0.108775
-0.219459
-0.2172
-0.214952
-0.212713
-0.210491
-0.208303
-0.206164
-0.204069
-0.202001
-0.199939
-0.197869
-0.19578
-0.193661
-0.191512
-0.189334
-0.187131
-0.184904
-0.182655
-0.180384
-0.178088
-0.17577
-0.173445
-0.171116
-0.168786
-0.166461
-0.164152
-0.161869
-0.159616
-0.157398
-0.15522
-0.153083
-0.150986
-0.148926
-0.146898
-0.144896
-0.142914
-0.140943
-0.138977
-0.137007
-0.135033
-0.133057
-0.131071
-0.129072
-0.127055
-0.125018
-0.122965
-0.120889
-0.118786
-0.116655
-0.114494
-0.112298
-0.110065
-0.107791
-0.105471
-0.103095
-0.100659
-0.0981579
-0.0955843
-0.0929339
-0.090204
-0.0873913
-0.0844954
-0.0815159
-0.0784534
-0.0753031
-0.0720654
-0.0687401
-0.0653281
-0.0618266
-0.0582332
-0.0545488
-0.0507834
-0.0469483
-0.0430537
-0.0391113
-0.0351364
-0.0311465
-0.0271619
-0.0231956
-0.0192638
-0.0153756
-0.0115231
-0.00781598
-0.00423134
-0.000745467
0.00266356
0.00601372
0.00931899
0.0125897
0.0158334
0.0190555
0.0222598
0.0254492
0.0286257
0.0317909
0.0349457
0.0380911
0.0412277
0.0443561
0.0474767
0.0505899
0.0536959
0.0567952
0.0598881
0.0629748
0.0660557
0.069131
0.0722013
0.0752667
0.0783277
0.0813846
0.0844379
0.0874878
0.0905347
0.0935792
0.0966214
0.0996619
0.102701
0.105739
0.108777
-0.21941
-0.217055
-0.214715
-0.212388
-0.210086
-0.207822
-0.205607
-0.203442
-0.201313
-0.1992
-0.197088
-0.194966
-0.192826
-0.190666
-0.188487
-0.186287
-0.184068
-0.181829
-0.179567
-0.177284
-0.174976
-0.172657
-0.170329
-0.168
-0.165675
-0.163361
-0.161067
-0.1588
-0.156565
-0.154368
-0.15221
-0.15009
-0.148005
-0.14595
-0.143919
-0.141904
-0.139899
-0.1379
-0.135896
-0.133888
-0.131875
-0.129855
-0.127823
-0.125773
-0.123702
-0.121615
-0.119507
-0.117374
-0.115213
-0.113024
-0.110801
-0.108543
-0.106248
-0.103907
-0.101514
-0.0990609
-0.0965463
-0.0939618
-0.0913017
-0.0885624
-0.0857412
-0.0828367
-0.0798488
-0.0767823
-0.07363
-0.0703919
-0.0670674
-0.0636581
-0.060162
-0.0565773
-0.0529009
-0.0491429
-0.0453111
-0.0414168
-0.0374727
-0.0334941
-0.0295038
-0.0255259
-0.0215781
-0.0176829
-0.0138581
-0.0101037
-0.00651958
-0.00306883
0.000284225
0.0035688
0.00680639
0.0100119
0.0131951
0.0163626
0.0195184
0.0226652
0.0258045
0.0289374
0.0320646
0.0351864
0.0383029
0.0414143
0.0445206
0.0476219
0.0507181
0.0538092
0.0568954
0.0599766
0.0630531
0.0661249
0.0691921
0.0722551
0.0753141
0.0783692
0.0814207
0.0844691
0.0875145
0.0905573
0.0935978
0.0966364
0.0996734
0.102709
0.105744
0.108778
-0.21936
-0.216907
-0.214477
-0.21207
-0.209692
-0.207353
-0.205064
-0.202829
-0.200639
-0.198474
-0.196319
-0.194162
-0.191998
-0.189821
-0.187633
-0.185431
-0.183215
-0.180981
-0.178724
-0.176448
-0.174152
-0.171843
-0.169523
-0.167201
-0.16488
-0.162567
-0.160267
-0.157988
-0.155737
-0.153521
-0.151343
-0.149201
-0.147087
-0.145
-0.142932
-0.140878
-0.138834
-0.136794
-0.134752
-0.132703
-0.130648
-0.128585
-0.126512
-0.124425
-0.122315
-0.120189
-0.118043
-0.115875
-0.113681
-0.111461
-0.109209
-0.106922
-0.104601
-0.102236
-0.099822
-0.0973517
-0.0948211
-0.0922237
-0.0895537
-0.0868062
-0.0839798
-0.0810718
-0.0780799
-0.0750101
-0.0718589
-0.0686273
-0.065313
-0.0619159
-0.0584325
-0.0548632
-0.0512009
-0.0474494
-0.0436189
-0.0397207
-0.0357683
-0.0317748
-0.0277628
-0.0237638
-0.0198059
-0.0159223
-0.0121527
-0.00851508
-0.00508831
-0.00180651
0.0013849
0.00452379
0.00763405
0.0107298
0.013819
0.0169059
0.0199925
0.0230796
0.0261674
0.0292557
0.0323441
0.0354321
0.0385192
0.0416048
0.0446887
0.0477702
0.0508491
0.0539251
0.0569979
0.0600673
0.0631333
0.0661958
0.0692548
0.0723104
0.0753626
0.0784117
0.0814578
0.0845011
0.0875419
0.0905805
0.093617
0.0966518
0.0996852
0.102718
0.105749
0.10878
-0.219306
-0.216748
-0.214223
-0.211734
-0.209283
-0.206875
-0.204519
-0.202217
-0.199966
-0.197747
-0.195549
-0.19336
-0.191171
-0.188978
-0.186779
-0.184573
-0.182356
-0.180123
-0.177869
-0.1756
-0.173314
-0.171016
-0.168707
-0.166391
-0.164075
-0.161765
-0.159464
-0.157179
-0.154918
-0.152687
-0.150489
-0.148322
-0.14618
-0.144057
-0.141948
-0.139847
-0.137753
-0.135662
-0.13357
-0.131473
-0.129368
-0.127256
-0.125135
-0.123002
-0.12085
-0.118682
-0.116494
-0.114287
-0.112055
-0.109798
-0.107512
-0.105194
-0.102844
-0.100454
-0.0980176
-0.0955282
-0.0929807
-0.0903685
-0.0876869
-0.0849299
-0.0820978
-0.0791883
-0.0762008
-0.0731379
-0.0699958
-0.066776
-0.0634771
-0.0600975
-0.0566337
-0.0530827
-0.0494375
-0.0456979
-0.0418748
-0.037974
-0.0340095
-0.0299956
-0.0259468
-0.0218899
-0.0178653
-0.0139328
-0.01019
-0.00671365
-0.003508
-0.00044909
0.00254311
0.00551263
0.00848146
0.0114594
0.0144501
0.0174539
0.02047
0.0234968
0.0265327
0.0295761
0.0326256
0.0356797
0.0387372
0.0417971
0.0448583
0.04792
0.0509815
0.0540422
0.0571015
0.0601591
0.0632145
0.0662676
0.0693183
0.0723664
0.0754119
0.0784549
0.0814955
0.0845337
0.0875698
0.090604
0.0936365
0.0966675
0.0996972
0.102726
0.105754
0.108782
-0.219249
-0.216582
-0.213957
-0.211383
-0.208857
-0.206379
-0.203956
-0.201588
-0.199277
-0.197007
-0.194768
-0.192547
-0.190335
-0.188126
-0.185919
-0.183708
-0.181489
-0.17926
-0.177013
-0.174752
-0.172478
-0.170192
-0.167896
-0.165591
-0.163284
-0.160977
-0.158675
-0.156385
-0.154115
-0.15187
-0.149651
-0.147455
-0.145275
-0.143108
-0.14095
-0.138797
-0.136646
-0.134495
-0.132343
-0.130187
-0.128025
-0.125858
-0.123684
-0.1215
-0.119301
-0.117087
-0.114853
-0.112602
-0.110327
-0.10803
-0.105706
-0.103354
-0.100972
-0.0985551
-0.096096
-0.0935872
-0.0910215
-0.0883931
-0.0857023
-0.0829423
-0.0801103
-0.0772009
-0.0742166
-0.0711599
-0.0680307
-0.0648295
-0.0615546
-0.058201
-0.0547622
-0.0512359
-0.0476176
-0.0438974
-0.0400872
-0.0361934
-0.0322195
-0.0281762
-0.024072
-0.01992
-0.0157533
-0.0116534
-0.00783463
-0.00463679
-0.00177423
0.00098245
0.0037317
0.00650998
0.00932745
0.0121838
0.015075
0.0179962
0.0209426
0.02391
0.026895
0.0298943
0.0329054
0.0359261
0.0389544
0.0419888
0.0450276
0.0480697
0.0511139
0.0541594
0.0572053
0.060251
0.0632959
0.0663397
0.069382
0.0724226
0.0754614
0.0784983
0.0815333
0.0845665
0.0875979
0.0906277
0.0936561
0.0966832
0.0997093
0.102735
0.105759
0.108783
-0.219188
-0.216402
-0.213668
-0.210995
-0.208381
-0.205829
-0.203342
-0.200917
-0.198554
-0.196236
-0.193959
-0.191711
-0.189479
-0.187259
-0.185045
-0.182833
-0.180618
-0.178396
-0.176161
-0.173915
-0.171656
-0.169384
-0.167102
-0.16481
-0.162512
-0.160211
-0.15791
-0.155616
-0.153334
-0.151069
-0.148822
-0.146587
-0.144362
-0.142142
-0.139926
-0.13771
-0.135494
-0.133276
-0.131057
-0.128837
-0.126611
-0.124382
-0.122149
-0.11991
-0.117659
-0.115394
-0.113112
-0.110813
-0.108492
-0.106151
-0.103785
-0.101397
-0.0989824
-0.0965373
-0.0940561
-0.0915317
-0.0889546
-0.0863143
-0.0836093
-0.0808385
-0.0780034
-0.0750991
-0.0721243
-0.0690795
-0.0659683
-0.0627929
-0.0595508
-0.0562338
-0.052831
-0.0493379
-0.0457503
-0.0420575
-0.0382696
-0.0343939
-0.0304243
-0.0263612
-0.0221974
-0.0179214
-0.0135238
-0.00903176
-0.00475016
-0.00221792
7.48549e-05
0.00243176
0.00490187
0.00747868
0.0101448
0.0128831
0.0156792
0.0185217
0.021402
0.0243129
0.027249
0.0302059
0.03318
0.0361684
0.0391684
0.0421778
0.0451947
0.0482175
0.0512448
0.0542753
0.057308
0.060342
0.0633766
0.0664112
0.0694452
0.0724784
0.0755106
0.0785414
0.0815709
0.0845991
0.0876258
0.0906513
0.0936757
0.0966989
0.0997213
0.102743
0.105764
0.108785
-0.219122
-0.216209
-0.213356
-0.210572
-0.20786
-0.205224
-0.202669
-0.20019
-0.197782
-0.195424
-0.193115
-0.190844
-0.1886
-0.186373
-0.184159
-0.181953
-0.179748
-0.177539
-0.175322
-0.173095
-0.170854
-0.168599
-0.166332
-0.164054
-0.161766
-0.159471
-0.157173
-0.154874
-0.152576
-0.150283
-0.147996
-0.145714
-0.143432
-0.141149
-0.138864
-0.136575
-0.134283
-0.131989
-0.129695
-0.127401
-0.125106
-0.122809
-0.120512
-0.118212
-0.115906
-0.113588
-0.111255
-0.108906
-0.10654
-0.104155
-0.101747
-0.0993189
-0.096868
-0.0943926
-0.091887
-0.0893438
-0.0867533
-0.0841054
-0.0813985
-0.0786304
-0.0758012
-0.0729086
-0.0699514
-0.0669279
-0.0638398
-0.0606907
-0.0574807
-0.0542037
-0.0508462
-0.0473992
-0.0438565
-0.040206
-0.0364557
-0.0326117
-0.028663
-0.0245996
-0.0203947
-0.0159979
-0.0113175
-0.00614067
0.000141117
0.000445959
0.00187178
0.0037817
0.00597916
0.0083714
0.0109027
0.0135365
0.0162482
0.0190202
0.0218403
0.0246992
0.02759
0.0305072
0.0334463
0.0364039
0.0393767
0.0423621
0.0453579
0.0483621
0.051373
0.054389
0.0574088
0.0604314
0.0634559
0.0664814
0.0695074
0.0725334
0.075559
0.0785839
0.081608
0.0846312
0.0876534
0.0906746
0.093695
0.0967144
0.0997332
0.102751
0.105769
0.108787
-0.21905
-0.215998
-0.213016
-0.210114
-0.207298
-0.204574
-0.201946
-0.199411
-0.196964
-0.194574
-0.192241
-0.189956
-0.187705
-0.18548
-0.183273
-0.181078
-0.178889
-0.1767
-0.174503
-0.172298
-0.170081
-0.167847
-0.165597
-0.163331
-0.16105
-0.15876
-0.15646
-0.15415
-0.151829
-0.1495
-0.147164
-0.144822
-0.14247
-0.140111
-0.137744
-0.135373
-0.132997
-0.130619
-0.128242
-0.125869
-0.123497
-0.121126
-0.118756
-0.116388
-0.114021
-0.111648
-0.109264
-0.106868
-0.104457
-0.102031
-0.0995899
-0.0971307
-0.0946505
-0.0921478
-0.0896193
-0.0870585
-0.0844554
-0.0817995
-0.0790897
-0.0763251
-0.0735053
-0.0706282
-0.0676929
-0.064699
-0.0616458
-0.0585338
-0.0553635
-0.0521306
-0.0488233
-0.0454319
-0.0419495
-0.0383598
-0.0346672
-0.03088
-0.0269817
-0.0229551
-0.0187649
-0.0143469
-0.00959794
-0.0044316
0.000732632
0.00196885
0.00319826
0.00486182
0.00687893
0.00914118
0.0115731
0.0141264
0.01677
0.0194831
0.0222513
0.0250643
0.0279141
0.0307948
0.0337015
0.0366302
0.0395773
0.04254
0.0455157
0.0485021
0.0514971
0.0544992
0.0575066
0.0605183
0.0635329
0.0665497
0.0695679
0.0725869
0.0756062
0.0786253
0.0816442
0.0846626
0.0876803
0.0906974
0.0937138
0.0967296
0.0997448
0.10276
0.105774
0.108788
-0.218974
-0.215773
-0.212652
-0.209626
-0.206705
-0.203895
-0.2012
-0.198611
-0.196125
-0.193709
-0.19136
-0.189067
-0.186817
-0.184599
-0.182404
-0.180225
-0.178057
-0.17589
-0.173717
-0.171537
-0.169344
-0.167133
-0.1649
-0.162645
-0.160369
-0.158076
-0.155766
-0.153436
-0.151082
-0.148705
-0.146307
-0.14389
-0.141455
-0.139006
-0.136546
-0.13408
-0.131611
-0.129139
-0.126671
-0.12421
-0.121755
-0.119306
-0.116859
-0.114418
-0.111982
-0.10955
-0.107116
-0.104678
-0.102232
-0.0997746
-0.097304
-0.0948186
-0.0923163
-0.0897929
-0.0872462
-0.0846719
-0.0820585
-0.0793976
-0.0766881
-0.0739307
-0.0711251
-0.0682683
-0.0653575
-0.0623945
-0.0593818
-0.0563176
-0.0531986
-0.0500183
-0.0467687
-0.0434417
-0.0400312
-0.0365224
-0.0329139
-0.029214
-0.0254078
-0.0214759
-0.0173827
-0.0130527
-0.0083194
-0.00274045
0.00343059
0.00347222
0.00410325
0.00560956
0.00755399
0.00975983
0.0121391
0.014642
0.0172374
0.019905
0.0226308
0.0254045
0.0282183
0.0310663
0.0339433
0.0368453
0.0397686
0.04271
0.0456667
0.0486362
0.0516163
0.054605
0.0576006
0.0606018
0.0636071
0.0666155
0.0696263
0.0726385
0.0756517
0.0786653
0.0816792
0.0846929
0.0877063
0.0907194
0.093732
0.0967443
0.0997561
0.102768
0.105779
0.10879
-0.218902
-0.215557
-0.212294
-0.209142
-0.206122
-0.203235
-0.200478
-0.197841
-0.195319
-0.192881
-0.190517
-0.188219
-0.185971
-0.183761
-0.181579
-0.179416
-0.177266
-0.175123
-0.172975
-0.17082
-0.16865
-0.166458
-0.164238
-0.161989
-0.159711
-0.157408
-0.155077
-0.152712
-0.15031
-0.14787
-0.145397
-0.142893
-0.140363
-0.137813
-0.135248
-0.132674
-0.130098
-0.127521
-0.12495
-0.12239
-0.119844
-0.117314
-0.114793
-0.112283
-0.109783
-0.107295
-0.104812
-0.102332
-0.0998537
-0.09737
-0.0948779
-0.092375
-0.0898598
-0.0873259
-0.084769
-0.0821888
-0.0795716
-0.0769113
-0.0742072
-0.0714607
-0.068673
-0.0658413
-0.0629612
-0.0600335
-0.057063
-0.0540494
-0.0509883
-0.0478713
-0.0446923
-0.0414425
-0.0381195
-0.034713
-0.0312149
-0.0276312
-0.0239531
-0.0201664
-0.016254
-0.0121837
-0.00791024
-0.0034172
0.000969174
0.00259826
0.00413843
0.00594163
0.00798996
0.0102251
0.0126002
0.0150823
0.0176489
0.0202843
0.0229769
0.025718
0.0285009
0.0313198
0.0341702
0.0370479
0.0399491
0.0428707
0.0458097
0.0487634
0.0517294
0.0547055
0.0576901
0.0606813
0.0636777
0.0666783
0.0696819
0.0726877
0.0756951
0.0787035
0.0817125
0.0847218
0.0877312
0.0907404
0.0937495
0.0967583
0.0997669
0.102775
0.105783
0.108791
-0.218842
-0.215376
-0.211995
-0.208734
-0.205617
-0.202653
-0.199836
-0.197156
-0.194601
-0.192143
-0.189765
-0.187456
-0.185203
-0.182994
-0.180818
-0.178669
-0.176536
-0.174412
-0.172287
-0.170153
-0.167999
-0.165817
-0.1636
-0.161348
-0.159061
-0.156734
-0.154366
-0.151948
-0.149477
-0.146954
-0.144388
-0.141784
-0.139148
-0.136487
-0.133806
-0.131114
-0.128419
-0.125727
-0.123046
-0.120381
-0.117736
-0.115116
-0.112519
-0.109944
-0.107388
-0.104853
-0.102329
-0.0998165
-0.097314
-0.0948138
-0.0923102
-0.0898018
-0.0872868
-0.0847557
-0.0821998
-0.0796231
-0.0770101
-0.0743567
-0.0716641
-0.0689337
-0.0661682
-0.0633648
-0.0605184
-0.0576291
-0.0547039
-0.0517447
-0.0487479
-0.0457011
-0.0425999
-0.039444
-0.0362228
-0.0329323
-0.0295662
-0.0261244
-0.0226055
-0.0190063
-0.0153267
-0.0115724
-0.00777496
-0.00403251
-0.000634906
0.00180484
0.00393282
0.00605424
0.00826217
0.0105712
0.0129732
0.0154562
0.0180092
0.020623
0.0232903
0.0260047
0.028761
0.0315545
0.034381
0.0372366
0.0401177
0.0430211
0.0459437
0.0488827
0.0518356
0.0548001
0.0577742
0.0607561
0.0637443
0.0667374
0.0697343
0.0727342
0.0757361
0.0787396
0.0817441
0.0847492
0.0877547
0.0907603
0.093766
0.0967716
0.099777
0.102782
0.105788
0.108793
-0.218806
-0.21526
-0.211794
-0.208452
-0.205258
-0.202225
-0.199352
-0.196628
-0.194039
-0.191557
-0.18916
-0.186833
-0.184566
-0.182347
-0.180166
-0.178012
-0.175882
-0.17377
-0.17166
-0.169539
-0.167392
-0.16521
-0.162985
-0.160717
-0.1584
-0.156029
-0.153597
-0.151098
-0.148531
-0.145903
-0.143223
-0.140502
-0.137747
-0.134963
-0.132157
-0.12934
-0.126524
-0.123718
-0.120928
-0.118158
-0.115416
-0.11271
-0.110037
-0.107396
-0.104789
-0.102215
-0.0996629
-0.0971307
-0.0946174
-0.0921149
-0.0896148
-0.087115
-0.0846139
-0.0821012
-0.0795635
-0.0770037
-0.0744067
-0.0717687
-0.0690929
-0.066381
-0.0636373
-0.0608616
-0.0580503
-0.0552013
-0.0523215
-0.0494158
-0.0464858
-0.0435222
-0.0405069
-0.0374526
-0.0343479
-0.0311849
-0.0279605
-0.0246741
-0.0213292
-0.0179319
-0.0144948
-0.0110391
-0.00761407
-0.00431182
-0.00127848
0.00134889
0.00376163
0.00610531
0.00845526
0.0108442
0.0132842
0.0157786
0.0183266
0.0209258
0.0235732
0.0262654
0.0289988
0.0317699
0.034575
0.0374107
0.0402736
0.0431603
0.0460679
0.0489934
0.0519342
0.0548879
0.0578523
0.0608257
0.0638062
0.0667924
0.0697832
0.0727774
0.0757744
0.0787732
0.0817735
0.0847748
0.0877766
0.0907789
0.0937814
0.096784
0.0997866
0.102789
0.105792
0.108794
-0.218802
-0.215243
-0.21175
-0.208369
-0.205126
-0.202037
-0.199109
-0.196336
-0.193699
-0.191173
-0.188738
-0.186376
-0.184071
-0.181817
-0.17961
-0.177443
-0.175311
-0.173202
-0.171099
-0.168981
-0.166832
-0.164637
-0.162387
-0.160076
-0.157698
-0.155246
-0.152713
-0.150098
-0.147406
-0.144645
-0.14183
-0.138973
-0.136082
-0.133169
-0.130239
-0.127298
-0.124356
-0.121428
-0.118528
-0.115659
-0.11283
-0.110049
-0.107317
-0.104629
-0.101984
-0.0993873
-0.0968227
-0.0942874
-0.0917813
-0.0892923
-0.0868142
-0.0843418
-0.0818719
-0.079395
-0.0768944
-0.0743682
-0.0718012
-0.0691887
-0.0665363
-0.0638476
-0.061127
-0.0583748
-0.0555937
-0.0527819
-0.049946
-0.0470915
-0.044223
-0.0413383
-0.0384157
-0.0354639
-0.0324774
-0.029447
-0.0263718
-0.0232518
-0.0200899
-0.0168951
-0.0136859
-0.0104879
-0.00734647
-0.00432715
-0.00149652
0.00113588
0.00368452
0.00617199
0.00862922
0.0110849
0.0135594
0.0160657
0.0186109
0.0211984
0.0238289
0.0265017
0.0292149
0.0319659
0.0347519
0.0375696
0.0404159
0.0432876
0.0461815
0.0490947
0.0520245
0.0549683
0.057924
0.0608895
0.063863
0.0668429
0.0698281
0.0728172
0.0758095
0.0788042
0.0818006
0.0847983
0.0877968
0.090796
0.0937956
0.0967954
0.0997953
0.102795
0.105795
0.108795
-0.21885
-0.215376
-0.211938
-0.208571