/*--------------------------------*- C++ -*----------------------------------*\
  =========                 |
  \\      /  F ield         | OpenFOAM: The Open Source CFD Toolbox
   \\    /   O peration     | Website:  https://openfoam.org
    \\  /    A nd           | Version:  6
     \\/     M anipulation  |
\*---------------------------------------------------------------------------*/
FoamFile
{
    version     2.0;
    format      ascii;
    class       volVectorField;
    location    "2000";
    object      U;
}
// * * * * * * * * * * * * * * * * * * * * * * * * * * * * * * * * * * * * * //

dimensions      [0 1 -1 0 0 0 0];

internalField   nonuniform List<vector> 
4800
(
(-5.5032e-05 0 -0.000169022)
(0.000452364 0 -0.000188376)
(0.000723174 0 -6.87939e-05)
(0.000871582 0 -0.000111774)
(0.000983019 0 -0.000101597)
(0.00110172 0 -5.22085e-05)
(0.00122664 0 -3.464e-05)
(0.00123169 0 -4.26029e-05)
(0.00119607 0 -5.28498e-05)
(0.00111896 0 -2.5639e-05)
(0.00102532 0 5.14341e-06)
(0.000936132 0 4.50208e-05)
(0.000849759 0 1.06063e-05)
(0.00076394 0 -3.72693e-06)
(0.000693135 0 5.61337e-05)
(0.000633465 0 -4.06684e-05)
(0.000578289 0 3.12862e-05)
(0.000513893 0 1.85047e-06)
(0.000444168 0 -8.92277e-05)
(0.000399978 0 1.9792e-05)
(0.000312742 0 4.85457e-05)
(0.000201317 0 6.67406e-06)
(0.000181397 0 2.91414e-05)
(0.000152962 0 -1.36526e-05)
(0.000159043 0 -3.1143e-05)
(0.000212748 0 -3.85004e-05)
(0.00030579 0 -6.38848e-05)
(0.000431915 0 -5.53507e-05)
(0.00054287 0 -8.04149e-05)
(0.00062454 0 -9.0233e-05)
(0.00070113 0 -5.51057e-05)
(0.000758791 0 -5.46068e-05)
(0.00080869 0 -4.21219e-05)
(0.000868544 0 -5.76412e-05)
(0.000926523 0 -5.26661e-05)
(0.000941009 0 -9.67626e-06)
(0.000941066 0 -4.65326e-06)
(0.000938503 0 -1.58848e-06)
(0.000925753 0 1.69357e-05)
(0.000896876 0 1.78661e-05)
(0.000876501 0 -3.35169e-05)
(0.000876859 0 -4.31162e-05)
(0.000877816 0 -4.7436e-05)
(0.000878742 0 -5.87211e-05)
(0.000883423 0 -5.67753e-05)
(0.00089231 0 -6.19402e-05)
(0.00090459 0 -7.1376e-05)
(0.000925979 0 -2.80631e-05)
(0.000941884 0 -2.84787e-05)
(0.000941804 0 -3.14928e-05)
(0.000943899 0 -2.91771e-05)
(0.000946148 0 -3.49195e-05)
(0.000944999 0 -3.58054e-05)
(0.000943856 0 -3.77843e-05)
(0.000944616 0 -4.09957e-05)
(0.000948857 0 -3.47841e-05)
(0.000950245 0 -2.43513e-05)
(0.000949185 0 -2.37875e-05)
(0.000946704 0 -1.91592e-05)
(0.000940984 0 -2.63058e-05)
(0.000934066 0 -2.19157e-05)
(0.000927326 0 -1.32214e-05)
(0.000919026 0 -1.73457e-05)
(0.00091043 0 -1.41818e-05)
(0.000902826 0 -3.90686e-06)
(0.000893784 0 7.33659e-06)
(0.000883154 0 1.72334e-05)
(0.000871831 0 3.43728e-05)
(0.000860872 0 2.70137e-05)
(0.000847219 0 3.80762e-05)
(0.000830892 0 2.35526e-05)
(0.000813345 0 3.08139e-05)
(0.000795478 0 1.96676e-05)
(0.000772649 0 8.75087e-06)
(0.000737543 0 3.73391e-05)
(0.000692372 0 -1.64774e-05)
(0.000624591 0 6.66007e-05)
(0.000532252 0 4.84646e-05)
(0.00046289 0 -6.37142e-05)
(0.000105992 0 0.000104284)
(-3.01197e-07 0 7.7219e-05)
(-7.02019e-13 0 -1.67346e-13)
(-1.54047e-12 0 -2.37998e-14)
(-1.51919e-12 0 1.81861e-15)
(-1.51538e-12 0 -7.04273e-15)
(-1.48637e-12 0 -2.33537e-14)
(-1.42524e-12 0 -3.90392e-14)
(-1.33541e-12 0 -5.19663e-14)
(-1.22262e-12 0 -6.18451e-14)
(-1.09288e-12 0 -6.8814e-14)
(-9.51724e-13 0 -7.31409e-14)
(-8.04155e-13 0 -7.51228e-14)
(-6.54564e-13 0 -7.5062e-14)
(-5.0674e-13 0 -7.32603e-14)
(-3.63874e-13 0 -7.00149e-14)
(-2.28572e-13 0 -6.56133e-14)
(-1.02881e-13 0 -6.03277e-14)
(1.16767e-14 0 -5.44097e-14)
(1.14056e-13 0 -4.80857e-14)
(2.03636e-13 0 -4.15542e-14)
(2.80166e-13 0 -3.49842e-14)
(3.43702e-13 0 -2.85152e-14)
(3.94553e-13 0 -2.22586e-14)
(4.33222e-13 0 -1.62994e-14)
(4.60363e-13 0 -1.06993e-14)
(4.76732e-13 0 -5.49953e-15)
(4.83148e-13 0 -7.24135e-16)
(4.80469e-13 0 3.61679e-15)
(4.6956e-13 0 7.52433e-15)
(4.51276e-13 0 1.10078e-14)
(4.26448e-13 0 1.40824e-14)
(3.95874e-13 0 1.67672e-14)
(3.60309e-13 0 1.90834e-14)
(3.20468e-13 0 2.10527e-14)
(2.77023e-13 0 2.26963e-14)
(2.30604e-13 0 2.4034e-14)
(1.81804e-13 0 2.50836e-14)
(1.3118e-13 0 2.58615e-14)
(7.92595e-14 0 2.63849e-14)
(2.65191e-14 0 2.66836e-14)
(-0.000465716 0 -0.000522596)
(0.000599371 0 -0.000482853)
(0.000732833 0 -0.000287817)
(0.0008229 0 -0.000246106)
(0.000930947 0 -0.000234684)
(0.00105455 0 -0.000142279)
(0.00113034 0 -8.01154e-05)
(0.00118277 0 8.02158e-05)
(0.00117538 0 0.000138456)
(0.00112041 0 0.00018134)
(0.00102021 0 0.000147434)
(0.000910431 0 0.000133761)
(0.000822618 0 0.000138948)
(0.000740832 0 0.000141369)
(0.000668131 0 0.000109821)
(0.00060546 0 0.000106119)
(0.000552704 0 8.55718e-05)
(0.000499699 0 0.000100306)
(0.000443672 0 0.000137822)
(0.000369432 0 0.000156952)
(0.000252603 0 0.000120553)
(0.000173926 0 9.22138e-05)
(0.000167689 0 9.71296e-05)
(0.000130066 0 -3.9556e-06)
(0.000150504 0 -4.59799e-05)
(0.000227666 0 -8.00425e-05)
(0.000274903 0 -0.000235417)
(0.000417206 0 -0.000125055)
(0.000514732 0 -9.67171e-05)
(0.000590911 0 -0.000157293)
(0.000681419 0 -8.80956e-05)
(0.000765333 0 -8.94785e-05)
(0.000834899 0 -0.000145202)
(0.00089044 0 -6.05013e-05)
(0.000892336 0 -5.2102e-05)
(0.000888407 0 -3.64761e-05)
(0.000883789 0 7.32131e-06)
(0.000877484 0 2.03262e-05)
(0.000862373 0 2.34352e-05)
(0.00083435 0 2.84627e-05)
(0.000810673 0 5.19358e-05)
(0.000808224 0 4.96497e-05)
(0.000808205 0 5.04075e-05)
(0.000809066 0 5.56689e-05)
(0.000812721 0 3.17151e-05)
(0.000812895 0 2.28138e-05)
(0.000809552 0 1.81063e-05)
(0.000807766 0 1.11567e-05)
(0.000808551 0 2.28798e-06)
(0.000810451 0 3.56414e-06)
(0.000815821 0 1.11834e-05)
(0.00082548 0 1.23365e-05)
(0.00083555 0 2.00062e-05)
(0.000836449 0 2.39324e-05)
(0.000834212 0 2.43359e-05)
(0.000829929 0 2.09456e-05)
(0.000827399 0 2.08325e-05)
(0.000827286 0 2.27695e-05)
(0.000828924 0 2.54984e-05)
(0.000828214 0 2.65368e-05)
(0.000823028 0 2.85876e-05)
(0.000812576 0 2.35069e-05)
(0.000800517 0 2.53214e-05)
(0.000790693 0 2.03809e-05)
(0.00078189 0 1.96934e-05)
(0.000769152 0 1.27945e-05)
(0.000752701 0 1.9604e-06)
(0.000740061 0 -3.52914e-06)
(0.000728967 0 -6.1643e-06)
(0.000721449 0 7.90111e-06)
(0.000708898 0 -3.31754e-07)
(0.000696083 0 1.17333e-05)
(0.000682507 0 1.45686e-05)
(0.00066302 0 5.02299e-05)
(0.000635229 0 4.61631e-05)
(0.000601899 0 8.67746e-05)
(0.000554081 0 0.000106929)
(0.000516522 0 8.19137e-05)
(0.000304218 0 0.00036022)
(0.000302425 0 0.000152385)
(-2.12107e-08 0 0.000158151)
(-7.84478e-13 0 -1.57686e-13)
(-1.37106e-12 0 4.58795e-14)
(-1.50218e-12 0 3.94153e-14)
(-1.54031e-12 0 -1.41247e-14)
(-1.51816e-12 0 -7.10402e-14)
(-1.45377e-12 0 -1.20148e-13)
(-1.35821e-12 0 -1.59252e-13)
(-1.23947e-12 0 -1.88708e-13)
(-1.10417e-12 0 -2.09308e-13)
(-9.58033e-13 0 -2.21955e-13)
(-8.06076e-13 0 -2.27563e-13)
(-6.52701e-13 0 -2.27048e-13)
(-5.01692e-13 0 -2.21316e-13)
(-3.56227e-13 0 -2.11265e-13)
(-2.18885e-13 0 -1.97764e-13)
(-9.16771e-14 0 -1.81634e-13)
(2.39187e-14 0 -1.63634e-13)
(1.26911e-13 0 -1.44446e-13)
(2.16738e-13 0 -1.24667e-13)
(2.93205e-13 0 -1.04804e-13)
(3.56428e-13 0 -8.52739e-14)
(4.06768e-13 0 -6.64087e-14)
(4.44782e-13 0 -4.84605e-14)
(4.71163e-13 0 -3.16111e-14)
(4.86707e-13 0 -1.59808e-14)
(4.92265e-13 0 -1.63847e-15)
(4.88718e-13 0 1.13887e-14)
(4.76951e-13 0 2.31068e-14)
(4.57834e-13 0 3.35461e-14)
(4.32208e-13 0 4.27545e-14)
(4.00875e-13 0 5.0791e-14)
(3.64594e-13 0 5.77206e-14)
(3.24081e-13 0 6.36096e-14)
(2.80005e-13 0 6.85224e-14)
(2.32991e-13 0 7.2519e-14)
(1.83631e-13 0 7.56526e-14)
(1.32482e-13 0 7.79695e-14)
(8.00816e-14 0 7.95101e-14)
(2.68178e-14 0 8.0315e-14)
(0.000353468 0 -0.000809669)
(0.00036806 0 -0.000735545)
(0.000452545 0 -0.000510559)
(0.000628636 0 -0.000362073)
(0.000748493 0 -0.000276138)
(0.000852905 0 -0.000182938)
(0.000909124 0 -0.000162932)
(0.00098257 0 -0.000141653)
(0.00104973 0 9.72528e-05)
(0.00102177 0 0.000157676)
(0.000957088 0 0.000204066)
(0.000870286 0 0.000211516)
(0.000778357 0 0.000210392)
(0.00070081 0 0.000173919)
(0.00062728 0 0.000165711)
(0.000564929 0 0.000159953)
(0.000509477 0 0.000137017)
(0.000468167 0 0.000133842)
(0.000426859 0 0.000149268)
(0.000359412 0 0.000195535)
(0.000249408 0 0.000179453)
(0.000187675 0 0.000158361)
(0.000183238 0 5.72544e-05)
(0.000169401 0 -6.23206e-05)
(0.000230212 0 -0.000108391)
(0.000290578 0 -0.000205196)
(0.000341731 0 -0.000305606)
(0.000427673 0 -0.000304152)
(0.000504643 0 -0.00027492)
(0.000591347 0 -0.000233196)
(0.000667835 0 -0.000241937)
(0.000781081 0 -0.000145145)
(0.000823967 0 -6.63047e-05)
(0.000811047 0 -7.01163e-05)
(0.000806211 0 -3.27947e-05)
(0.000806836 0 -3.67273e-06)
(0.000800452 0 4.94421e-06)
(0.000786361 0 3.1814e-05)
(0.000764986 0 7.20505e-05)
(0.000738198 0 6.09528e-05)
(0.000713522 0 3.86465e-06)
(0.000700683 0 -2.75673e-05)
(0.000694882 0 -3.74605e-05)
(0.000697287 0 -4.01697e-05)
(0.000707736 0 -4.49593e-05)
(0.000709623 0 -4.46163e-05)
(0.00070955 0 -3.82869e-05)
(0.000710586 0 -2.93985e-05)
(0.000711522 0 -9.80262e-06)
(0.00071243 0 -2.4678e-05)
(0.000715516 0 -1.6366e-05)
(0.000715278 0 -1.28567e-05)
(0.000714112 0 -1.24562e-05)
(0.000713036 0 -1.10337e-05)
(0.000712043 0 -1.06511e-05)
(0.000710328 0 -9.39111e-06)
(0.000707195 0 -1.07445e-05)
(0.000702044 0 -1.81959e-05)
(0.000695916 0 -7.61546e-06)
(0.000691913 0 6.92041e-08)
(0.000688966 0 4.32303e-06)
(0.000685099 0 1.40541e-05)
(0.000678367 0 1.51124e-05)
(0.000667234 0 2.27834e-05)
(0.000658231 0 3.31421e-05)
(0.000649355 0 3.16027e-05)
(0.000636406 0 3.55795e-05)
(0.000620743 0 4.50814e-05)
(0.000604006 0 2.46909e-05)
(0.000588417 0 4.07386e-05)
(0.000568872 0 2.35273e-05)
(0.000556099 0 3.62386e-05)
(0.000551004 0 3.67854e-05)
(0.000540118 0 6.32704e-05)
(0.000521977 0 4.50782e-05)
(0.000483861 0 0.000115848)
(0.000453632 0 0.00017639)
(0.000442245 0 0.00017786)
(0.000295239 0 0.000339385)
(0.000317759 0 0.000319612)
(2.42848e-07 0 0.000319613)
(-8.88818e-13 0 6.74831e-13)
(-1.34285e-12 0 3.25062e-13)
(-1.57867e-12 0 1.23749e-13)
(-1.62534e-12 0 -1.80968e-14)
(-1.59199e-12 0 -1.26677e-13)
(-1.5133e-12 0 -2.11313e-13)
(-1.40397e-12 0 -2.7636e-13)
(-1.27268e-12 0 -3.24573e-13)
(-1.12612e-12 0 -3.57874e-13)
(-9.6998e-13 0 -3.77903e-13)
(-8.09248e-13 0 -3.86205e-13)
(-6.48316e-13 0 -3.84306e-13)
(-4.90957e-13 0 -3.7373e-13)
(-3.40322e-13 0 -3.5599e-13)
(-1.9894e-13 0 -3.32553e-13)
(-6.87503e-14 0 -3.04806e-13)
(4.88648e-14 0 -2.74029e-13)
(1.53022e-13 0 -2.4137e-13)
(2.43278e-13 0 -2.07828e-13)
(3.19559e-13 0 -1.74246e-13)
(3.82097e-13 0 -1.41317e-13)
(4.31366e-13 0 -1.09584e-13)
(4.6802e-13 0 -7.94602e-14)
(4.92843e-13 0 -5.12363e-14)
(5.06704e-13 0 -2.51024e-14)
(5.10518e-13 0 -1.16256e-15)
(5.05215e-13 0 2.05484e-14)
(4.91718e-13 0 4.00493e-14)
(4.70924e-13 0 5.73991e-14)
(4.43693e-13 0 7.26844e-14)
(4.1084e-13 0 8.60097e-14)
(3.73127e-13 0 9.74878e-14)
(3.3127e-13 0 1.07233e-13)
(2.85933e-13 0 1.15357e-13)
(2.37734e-13 0 1.21959e-13)
(1.87254e-13 0 1.27131e-13)
(1.35038e-13 0 1.30947e-13)
(8.16049e-14 0 1.33463e-13)
(2.7324e-14 0 1.34713e-13)
(-0.000275943 0 -0.00102925)
(0.000330237 0 -0.000795751)
(0.000231517 0 -0.000623874)
(0.000545378 0 -0.000406088)
(0.000607438 0 -0.000376022)
(0.000680152 0 -0.000325462)
(0.0007914 0 -0.00019396)
(0.000879298 0 -0.000261122)
(0.000891703 0 0.000220951)
(0.000872179 0 0.000246435)
(0.000839612 0 0.000280523)
(0.000768531 0 0.000319883)
(0.000689572 0 0.000305317)
(0.00061792 0 0.000272353)
(0.000565596 0 0.000235649)
(0.000514665 0 0.000226643)
(0.000470714 0 0.000175436)
(0.000420143 0 0.000154177)
(0.000366511 0 0.000204482)
(0.000286691 0 0.000277523)
(0.000200833 0 0.000288962)
(0.000189531 0 0.000163453)
(0.000214735 0 3.60975e-05)
(0.000249811 0 -1.65674e-05)
(0.000330253 0 -8.05833e-05)
(0.000338936 0 -0.000262254)
(0.000367315 0 -0.000360325)
(0.000468448 0 -0.000317871)
(0.000492094 0 -0.000330611)
(0.000582112 0 -0.00025753)
(0.000652655 0 -0.00022378)
(0.000692774 0 -0.000185477)
(0.000711148 0 -0.00011544)
(0.000716203 0 -8.877e-05)
(0.000714108 0 -6.31495e-05)
(0.000713699 0 -9.13159e-08)
(0.000704824 0 2.00266e-05)
(0.000678953 0 2.03729e-05)
(0.00064803 0 5.14907e-05)
(0.000641602 0 7.11983e-05)
(0.000648127 0 6.42687e-05)
(0.000648903 0 5.00001e-05)
(0.000641247 0 2.96122e-05)
(0.000634829 0 7.7045e-06)
(0.00063531 0 4.44528e-06)
(0.00063799 0 -4.55125e-06)
(0.000643881 0 -1.30253e-05)
(0.000651515 0 5.11701e-06)
(0.000656595 0 -9.21205e-06)
(0.000664949 0 -1.47708e-05)
(0.000668664 0 -7.09006e-06)
(0.000667107 0 -5.234e-06)
(0.00066732 0 -9.60742e-07)
(0.000667077 0 4.3205e-06)
(0.000664496 0 8.55532e-06)
(0.000659051 0 1.44381e-05)
(0.000653443 0 1.62887e-05)
(0.00064796 0 2.68945e-05)
(0.000640481 0 1.37327e-05)
(0.000627701 0 3.09266e-05)
(0.000614157 0 2.64066e-05)
(0.000602233 0 3.55425e-05)
(0.000593206 0 3.58605e-05)
(0.000580279 0 2.48492e-05)
(0.000562055 0 4.81522e-05)
(0.000550773 0 4.19947e-05)
(0.000541493 0 3.22346e-05)
(0.000527327 0 4.20079e-05)
(0.000514003 0 4.66473e-05)
(0.000504104 0 4.94593e-05)
(0.000485588 0 4.96493e-05)
(0.000466628 0 3.94238e-05)
(0.00044879 0 8.00841e-05)
(0.000449728 0 9.07303e-05)
(0.000443006 0 0.000104038)
(0.000439799 0 8.926e-05)
(0.000368533 0 0.000231074)
(0.000345683 0 0.000300616)
(0.000197554 0 0.000443401)
(0.000124228 0 0.000524574)
(-1.88092e-07 0 0.000501177)
(-9.87687e-13 0 1.0214e-12)
(-1.92152e-12 0 4.55969e-13)
(-1.84478e-12 0 1.48871e-13)
(-1.79023e-12 0 -5.50767e-14)
(-1.71099e-12 0 -2.05929e-13)
(-1.60332e-12 0 -3.21721e-13)
(-1.47147e-12 0 -4.10109e-13)
(-1.32099e-12 0 -4.75178e-13)
(-1.1575e-12 0 -5.19559e-13)
(-9.86364e-13 0 -5.45445e-13)
(-8.12478e-13 0 -5.54933e-13)
(-6.40226e-13 0 -5.50142e-13)
(-4.73377e-13 0 -5.33229e-13)
(-3.15049e-13 0 -5.06348e-13)
(-1.677e-13 0 -4.71599e-13)
(-3.31536e-14 0 -4.30968e-13)
(8.73542e-14 0 -3.86279e-13)
(1.93113e-13 0 -3.39159e-13)
(2.83862e-13 0 -2.91016e-13)
(3.59716e-13 0 -2.43032e-13)
(4.2109e-13 0 -1.96164e-13)
(4.68625e-13 0 -1.51159e-13)
(5.0313e-13 0 -1.08571e-13)
(5.25521e-13 0 -6.87875e-14)
(5.3678e-13 0 -3.20496e-14)
(5.37915e-13 0 1.51952e-15)
(5.2993e-13 0 3.18924e-14)
(5.13802e-13 0 5.91147e-14)
(4.90469e-13 0 8.32859e-14)
(4.60818e-13 0 1.04542e-13)
(4.25678e-13 0 1.23041e-13)
(3.85818e-13 0 1.38952e-13)
(3.4195e-13 0 1.52442e-13)
(2.9473e-13 0 1.63673e-13)
(2.44766e-13 0 1.72791e-13)
(1.92619e-13 0 1.79925e-13)
(1.38814e-13 0 1.85182e-13)
(8.38481e-14 0 1.88642e-13)
(2.80676e-14 0 1.90358e-13)
(0.000179907 0 -0.00118597)
(0.000282766 0 -0.00091854)
(0.000189509 0 -0.00065434)
(0.000407704 0 -0.000564621)
(0.000496911 0 -0.000480177)
(0.000589053 0 -0.000390875)
(0.000679717 0 -0.000334718)
(0.000747642 0 -9.14254e-05)
(0.000740067 0 0.000106153)
(0.000741265 0 0.000197602)
(0.00071951 0 0.000291075)
(0.000688262 0 0.000311292)
(0.000615217 0 0.000328422)
(0.000548158 0 0.000316975)
(0.000523128 0 0.000256319)
(0.000462212 0 0.000255853)
(0.000368871 0 0.000260264)
(0.000283195 0 0.000274502)
(0.000213188 0 0.00032446)
(0.000204556 0 0.000327474)
(0.000170466 0 0.000309507)
(0.000222045 0 0.000132109)
(0.000265755 0 7.15749e-05)
(0.000269838 0 -0.000123461)
(0.000329667 0 -0.00020625)
(0.000421048 0 -0.000262415)
(0.000366416 0 -0.000409258)
(0.000486475 0 -0.000308846)
(0.000446514 0 -0.000392614)
(0.000485241 0 -0.000357205)
(0.000500634 0 -0.000330936)
(0.000521718 0 -0.000298238)
(0.000569445 0 -0.000184085)
(0.000592324 0 -0.000101939)
(0.00058809 0 -9.4191e-05)
(0.000574118 0 -2.92137e-06)
(0.000544377 0 6.49056e-05)
(0.000535364 0 0.000107062)
(0.000542339 0 0.000116062)
(0.000556708 0 4.16012e-05)
(0.000561974 0 2.95893e-05)
(0.00057116 0 1.88651e-05)
(0.000583776 0 5.50816e-06)
(0.000591718 0 -1.87913e-05)
(0.000598035 0 -3.32212e-05)
(0.000610757 0 -8.77872e-06)
(0.000631565 0 -4.50216e-05)
(0.000651739 0 -2.51927e-05)
(0.000655686 0 -2.22305e-05)
(0.000660221 0 -2.09887e-05)
(0.00066148 0 -1.37661e-05)
(0.000659542 0 -1.01277e-05)
(0.000656154 0 -5.5534e-06)
(0.000654033 0 2.22053e-06)
(0.000649613 0 2.78445e-06)
(0.000639539 0 9.74773e-06)
(0.000626835 0 1.01622e-05)
(0.000614377 0 5.36049e-06)
(0.000602837 0 3.20825e-05)
(0.000592884 0 1.96931e-05)
(0.000577942 0 3.88612e-05)
(0.000564386 0 2.77214e-05)
(0.000547178 0 5.7561e-05)
(0.000534749 0 4.89201e-05)
(0.000518393 0 4.37698e-05)
(0.000500587 0 6.18123e-05)
(0.000492455 0 5.67169e-05)
(0.000477226 0 5.28305e-05)
(0.000455964 0 4.57949e-05)
(0.000431413 0 9.72943e-05)
(0.000415396 0 1.98957e-05)
(0.000395473 0 8.3855e-05)
(0.000395669 0 1.86573e-05)
(0.000374832 0 9.9171e-05)
(0.000366917 0 0.000145673)
(0.000363931 0 0.000195474)
(0.000358038 0 0.000248791)
(0.000267284 0 0.000375015)
(0.000453982 0 0.000350463)
(0.000163982 0 0.000584346)
(-2.01727e-07 0 0.000608009)
(-1.09209e-12 0 5.82665e-13)
(-2.21471e-12 0 3.28648e-13)
(-2.08915e-12 0 7.10027e-14)
(-1.97963e-12 0 -1.44989e-13)
(-1.85826e-12 0 -3.19982e-13)
(-1.71736e-12 0 -4.59277e-13)
(-1.55742e-12 0 -5.67049e-13)
(-1.38213e-12 0 -6.46347e-13)
(-1.19639e-12 0 -6.99627e-13)
(-1.00535e-12 0 -7.29284e-13)
(-8.13945e-13 0 -7.37849e-13)
(-6.26612e-13 0 -7.28023e-13)
(-4.47164e-13 0 -7.02629e-13)
(-2.78692e-13 0 -6.64519e-13)
(-1.2356e-13 0 -6.16481e-13)
(1.65703e-14 0 -5.61149e-13)
(1.40674e-13 0 -5.00926e-13)
(2.48285e-13 0 -4.37943e-13)
(3.39405e-13 0 -3.74023e-13)
(4.14411e-13 0 -3.10683e-13)
(4.73971e-13 0 -2.49132e-13)
(5.18959e-13 0 -1.90301e-13)
(5.50391e-13 0 -1.34866e-13)
(5.69365e-13 0 -8.32827e-14)
(5.77011e-13 0 -3.58198e-14)
(5.7446e-13 0 7.40458e-15)
(5.6281e-13 0 4.63921e-14)
(5.43111e-13 0 8.12351e-14)
(5.16351e-13 0 1.1209e-13)
(4.83449e-13 0 1.39158e-13)
(4.4525e-13 0 1.62662e-13)
(4.02528e-13 0 1.82836e-13)
(3.55991e-13 0 1.99909e-13)
(3.06282e-13 0 2.14099e-13)
(2.53987e-13 0 2.25604e-13)
(1.99645e-13 0 2.34594e-13)
(1.43755e-13 0 2.4121e-13)
(8.67808e-14 0 2.45561e-13)
(2.90398e-14 0 2.47718e-13)
(-0.000148281 0 -0.0012978)
(0.000183633 0 -0.000990696)
(9.75586e-06 0 -0.000796065)
(0.000412565 0 -0.000662991)
(0.000343838 0 -0.000657679)
(0.000482724 0 -0.000535695)
(0.00058777 0 -0.000369621)
(0.000654227 0 -0.000169113)
(0.000617562 0 0.000122422)
(0.000574536 0 0.000276709)
(0.000546424 0 0.000395183)
(0.00053346 0 0.000416505)
(0.000501697 0 0.000401051)
(0.000465598 0 0.000354865)
(0.000427649 0 0.000329102)
(0.000388551 0 0.000319432)
(0.000381336 0 0.000259113)
(0.00029506 0 0.000284888)
(0.000207356 0 0.000338425)
(0.000187839 0 0.00033858)
(0.000186353 0 0.000276198)
(0.000263622 0 7.59101e-05)
(0.00029158 0 5.49305e-06)
(0.000324045 0 -0.000127273)
(0.000358693 0 -0.000256227)
(0.000452112 0 -0.000281534)
(0.000429093 0 -0.000363046)
(0.000323964 0 -0.000477505)
(0.000361535 0 -0.000426846)
(0.00038974 0 -0.00035873)
(0.000370236 0 -0.000325948)
(0.000385716 0 -0.000234451)
(0.000394331 0 -0.000141196)
(0.000377948 0 -8.69436e-05)
(0.000385323 0 1.33221e-05)
(0.000391552 0 3.71447e-05)
(0.000390579 0 3.48964e-05)
(0.000400098 0 3.84473e-05)
(0.000434513 0 5.68224e-05)
(0.000484068 0 2.56512e-05)
(0.000517007 0 1.95755e-05)
(0.000536011 0 1.27274e-05)
(0.000552354 0 2.33712e-06)
(0.000569246 0 -2.26188e-05)
(0.000595257 0 -2.01615e-05)
(0.000623821 0 -7.39121e-05)
(0.000651915 0 -4.55425e-05)
(0.000656178 0 -3.11188e-05)
(0.000657477 0 -3.70054e-05)
(0.000662209 0 -1.72185e-05)
(0.000661899 0 -6.48315e-06)
(0.000656836 0 -1.16437e-06)
(0.000645579 0 9.10907e-07)
(0.000635783 0 1.55641e-05)
(0.00062814 0 2.86377e-05)
(0.000616988 0 2.26482e-05)
(0.000603677 0 3.5443e-05)
(0.000590831 0 3.40513e-05)
(0.000577101 0 2.68018e-05)
(0.00055923 0 6.74033e-05)
(0.000549215 0 3.7632e-05)
(0.000528848 0 8.72645e-05)
(0.000515161 0 4.79113e-05)
(0.000496513 0 8.13407e-05)
(0.000479157 0 7.97396e-05)
(0.000463682 0 5.98728e-05)
(0.000443189 0 9.75902e-05)
(0.000433864 0 6.57835e-05)
(0.000414159 0 6.89946e-05)
(0.000391088 0 8.55143e-05)
(0.000360725 0 8.6797e-05)
(0.000343837 0 9.37008e-05)
(0.000349147 0 8.9475e-05)
(0.000351927 0 7.82265e-05)
(0.00035412 0 6.49089e-05)
(0.000300114 0 0.000185084)
(0.000281591 0 0.000264164)
(0.000195885 0 0.000407255)
(0.000103366 0 0.000581412)
(0.000219026 0 0.000632569)
(-2.75731e-07 0 0.000672825)
(-1.16994e-12 0 4.56047e-13)
(-2.43256e-12 0 2.05051e-13)
(-2.31787e-12 0 -4.8326e-14)
(-2.18071e-12 0 -2.75699e-13)
(-2.02493e-12 0 -4.6942e-13)
(-1.85029e-12 0 -6.28083e-13)
(-1.65854e-12 0 -7.52291e-13)
(-1.45356e-12 0 -8.43375e-13)
(-1.24044e-12 0 -9.03168e-13)
(-1.02459e-12 0 -9.34078e-13)
(-8.11218e-13 0 -9.39034e-13)
(-6.05006e-13 0 -9.21367e-13)
(-4.09873e-13 0 -8.84653e-13)
(-2.28902e-13 0 -8.32541e-13)
(-6.43297e-14 0 -7.68596e-13)
(8.24017e-14 0 -6.96168e-13)
(2.1056e-13 0 -6.18291e-13)
(3.20015e-13 0 -5.37625e-13)
(4.11122e-13 0 -4.56421e-13)
(4.84607e-13 0 -3.76516e-13)
(5.41471e-13 0 -2.99357e-13)
(5.82891e-13 0 -2.26028e-13)
(6.10148e-13 0 -1.57293e-13)
(6.24568e-13 0 -9.36417e-14)
(6.27468e-13 0 -3.53379e-14)
(6.20127e-13 0 1.7538e-14)
(6.0376e-13 0 6.50463e-14)
(5.795e-13 0 1.07351e-13)
(5.48393e-13 0 1.4469e-13)
(5.1139e-13 0 1.77344e-13)
(4.69356e-13 0 2.05618e-13)
(4.23065e-13 0 2.29824e-13)
(3.73213e-13 0 2.50262e-13)
(3.20425e-13 0 2.67214e-13)
(2.6526e-13 0 2.80932e-13)
(2.08225e-13 0 2.91636e-13)
(1.49781e-13 0 2.99504e-13)
(9.03555e-14 0 3.04673e-13)
(3.02245e-14 0 3.07234e-13)
(3.54946e-05 0 -0.00139703)
(0.000162696 0 -0.00109714)
(0.000156287 0 -0.000844156)
(0.000280607 0 -0.000775764)
(0.00027412 0 -0.000711571)
(0.00044255 0 -0.00056902)
(0.000391265 0 -0.000541241)
(0.000521689 0 -0.000159743)
(0.000491079 0 0.000146792)
(0.000504939 0 0.000151888)
(0.000507341 0 0.000277681)
(0.000443058 0 0.000411282)
(0.00040987 0 0.000423404)
(0.000365429 0 0.00040858)
(0.000380993 0 0.000344857)
(0.00034061 0 0.000346934)
(0.000283796 0 0.00035488)
(0.000217687 0 0.000375751)
(0.00019511 0 0.000379042)
(0.000165738 0 0.000356865)
(0.000230309 0 0.000212447)
(0.00029157 0 7.99959e-05)
(0.00030959 0 -8.99302e-06)
(0.000367653 0 -0.000116467)
(0.000346785 0 -0.000313562)
(0.000395783 0 -0.000373653)
(0.000426823 0 -0.000366656)
(0.000447552 0 -0.000326027)
(0.000392507 0 -0.000332264)
(0.000344449 0 -0.000303365)
(0.000304661 0 -0.000254466)
(0.000263313 0 -0.000200799)
(0.000233274 0 -0.000118613)
(0.000217193 0 -9.52766e-05)
(0.000228752 0 -1.67168e-05)
(0.000260633 0 1.9749e-05)
(0.000304995 0 2.51184e-05)
(0.00032871 0 3.08558e-05)
(0.000362543 0 1.95328e-05)
(0.000419712 0 -3.56937e-06)
(0.000480547 0 -7.67667e-06)
(0.000523823 0 -2.77225e-05)
(0.000558773 0 -2.62424e-05)
(0.000578843 0 -7.87225e-05)
(0.000606756 0 -6.97648e-05)
(0.000644606 0 -4.89637e-05)
(0.000651221 0 -7.30863e-05)
(0.000650427 0 -5.95421e-05)
(0.000652034 0 -3.84493e-05)
(0.00065183 0 -2.3224e-05)
(0.000648916 0 -8.91404e-06)
(0.000642069 0 2.24599e-06)
(0.000631585 0 8.27052e-06)
(0.000619142 0 1.49181e-05)
(0.000605055 0 4.1588e-05)
(0.000590362 0 2.29632e-05)
(0.00057194 0 4.97524e-05)
(0.00055878 0 4.52798e-05)
(0.000542985 0 5.72018e-05)
(0.00052508 0 5.97552e-05)
(0.000506584 0 6.55531e-05)
(0.000489078 0 8.25747e-05)
(0.000477436 0 5.66746e-05)
(0.000452405 0 0.00011194)
(0.000446452 0 5.82587e-05)
(0.000424475 0 9.50741e-05)
(0.00040772 0 9.54409e-05)
(0.000390213 0 0.000106105)
(0.00037445 0 0.000110578)
(0.000360864 0 0.000114168)
(0.000346993 0 0.000101857)
(0.000325668 0 8.27077e-05)
(0.000311969 0 0.000102763)
(0.000274788 0 0.000151013)
(0.00022762 0 0.000207241)
(0.000166845 0 0.000269802)
(0.000127559 0 0.000348663)
(0.000110921 0 0.000441778)
(5.10262e-05 0 0.000606967)
(0.000112649 0 0.000730768)
(-3.86971e-07 0 0.00075456)
(-1.29035e-12 0 4.10929e-13)
(-2.71847e-12 0 8.39517e-14)
(-2.56936e-12 0 -1.93415e-13)
(-2.40024e-12 0 -4.39807e-13)
(-2.21033e-12 0 -6.53536e-13)
(-2.00016e-12 0 -8.31038e-13)
(-1.77271e-12 0 -9.70431e-13)
(-1.53301e-12 0 -1.07147e-12)
(-1.2871e-12 0 -1.13539e-12)
(-1.04122e-12 0 -1.16464e-12)
(-8.01234e-13 0 -1.16267e-12)
(-5.72231e-13 0 -1.13361e-12)
(-3.58337e-13 0 -1.08195e-12)
(-1.62635e-13 0 -1.01229e-12)
(1.28136e-14 0 -9.29107e-13)
(1.66875e-13 0 -8.36564e-13)
(2.99216e-13 0 -7.38389e-13)
(4.10155e-13 0 -6.37801e-13)
(5.00514e-13 0 -5.37479e-13)
(5.71475e-13 0 -4.39571e-13)
(6.24459e-13 0 -3.45724e-13)
(6.61023e-13 0 -2.57136e-13)
(6.82777e-13 0 -1.74614e-13)
(6.9132e-13 0 -9.86351e-14)
(6.88191e-13 0 -2.94122e-14)
(6.74844e-13 0 3.30529e-14)
(6.52623e-13 0 8.89157e-14)
(6.22755e-13 0 1.38445e-13)
(5.86344e-13 0 1.81983e-13)
(5.44377e-13 0 2.19916e-13)
(4.9773e-13 0 2.52649e-13)
(4.47172e-13 0 2.80584e-13)
(3.93381e-13 0 3.04104e-13)
(3.36952e-13 0 3.23563e-13)
(2.78409e-13 0 3.39277e-13)
(2.18217e-13 0 3.51515e-13)
(1.56791e-13 0 3.60498e-13)
(9.45105e-14 0 3.66392e-13)
(3.16009e-14 0 3.69311e-13)
(-6.12471e-05 0 -0.00146711)
(0.000157034 0 -0.00113689)
(0.000103219 0 -0.000875754)
(0.000212445 0 -0.000811604)
(0.00022378 0 -0.000724085)
(9.6561e-05 0 -0.000689657)
(0.000238135 0 -0.000506556)
(0.000295682 0 -1.98648e-05)
(0.000263554 0 0.000171226)
(0.000242329 0 0.000334993)
(0.000289262 0 0.000423854)
(0.000281941 0 0.000466084)
(0.000299812 0 0.000445548)
(0.000339888 0 0.00038045)
(0.000331961 0 0.000363789)
(0.000287998 0 0.000387159)
(0.000220538 0 0.00041237)
(0.000160586 0 0.000444043)
(0.000152467 0 0.000430933)
(0.000161852 0 0.00032037)
(0.000250743 0 0.000114228)
(0.000285726 0 3.94146e-05)
(0.000314257 0 -8.24225e-05)
(0.000365705 0 -0.000164228)
(0.00032517 0 -0.000343876)
(0.00035188 0 -0.000370354)
(0.00034956 0 -0.000364365)
(0.000365363 0 -0.000310923)
(0.000339989 0 -0.000276848)
(0.000282941 0 -0.000241324)
(0.000221107 0 -0.000219955)
(0.000188648 0 -0.000183843)
(0.000177016 0 -0.000136857)
(0.0001794 0 -0.000104555)
(0.000194127 0 -7.14736e-05)
(0.000230259 0 -4.80604e-05)
(0.000288041 0 1.81083e-05)
(0.000320504 0 -3.99923e-05)
(0.000352976 0 -5.77019e-05)
(0.000410153 0 -5.97944e-05)
(0.000478478 0 -2.54623e-05)
(0.000511871 0 -0.000110864)
(0.000559066 0 -4.39097e-06)
(0.00058098 0 -9.76448e-05)
(0.000612172 0 -8.14055e-05)
(0.000614507 0 -7.60483e-05)
(0.000615614 0 -6.18771e-05)
(0.000614993 0 -4.49325e-05)
(0.000612128 0 -2.66542e-05)
(0.00061405 0 -1.18198e-05)
(0.000613781 0 2.23685e-06)
(0.000609859 0 1.36223e-05)
(0.000603679 0 2.63737e-05)
(0.000594396 0 4.10045e-05)
(0.000580303 0 5.45393e-05)
(0.000562901 0 6.01347e-05)
(0.000543912 0 5.67055e-05)
(0.000522395 0 7.26432e-05)
(0.000505988 0 6.85901e-05)
(0.000488003 0 7.99506e-05)
(0.000464929 0 8.988e-05)
(0.000447577 0 9.73621e-05)
(0.000434467 0 9.81064e-05)
(0.000421581 0 8.29987e-05)
(0.000400534 0 0.00011673)
(0.000395207 0 9.85786e-05)
(0.00038338 0 0.000100167)
(0.000367986 0 9.64031e-05)
(0.000350774 0 9.97355e-05)
(0.000339293 0 0.000113844)
(0.000313756 0 0.000144031)
(0.000300067 0 9.067e-05)
(0.000253491 0 0.000141273)
(0.000242194 0 0.000157386)
(0.00016784 0 0.000241725)
(0.000157306 0 0.000287277)
(6.32308e-05 0 0.000385979)
(3.63312e-05 0 0.000481366)
(-3.08269e-05 0 0.00061223)
(1.30316e-05 0 0.00075518)
(-1.99677e-07 0 0.000781768)
(-1.51366e-12 0 1.87291e-13)
(-3.03629e-12 0 -8.66108e-14)
(-2.8411e-12 0 -3.69179e-13)
(-2.64037e-12 0 -6.3626e-13)
(-2.41588e-12 0 -8.7342e-13)
(-2.16715e-12 0 -1.07176e-12)
(-1.89898e-12 0 -1.22663e-12)
(-1.61852e-12 0 -1.33642e-12)
(-1.3336e-12 0 -1.402e-12)
(-1.05187e-12 0 -1.42616e-12)
(-7.8019e-13 0 -1.41318e-12)
(-5.24283e-13 0 -1.36825e-12)
(-2.88553e-13 0 -1.29707e-12)
(-7.60599e-14 0 -1.20542e-12)
(1.11396e-13 0 -1.09886e-12)
(2.7312e-13 0 -9.82498e-13)
(4.09324e-13 0 -8.60824e-13)
(5.20926e-13 0 -7.37649e-13)
(6.09351e-13 0 -6.16074e-13)
(6.76362e-13 0 -4.98524e-13)
(7.23906e-13 0 -3.86798e-13)
(7.54001e-13 0 -2.8215e-13)
(7.68649e-13 0 -1.85366e-13)
(7.69769e-13 0 -9.6852e-14)
(7.59156e-13 0 -1.67106e-14)
(7.38455e-13 0 5.51856e-14)
(7.09152e-13 0 1.19132e-13)
(6.72567e-13 0 1.7554e-13)
(6.29864e-13 0 2.24889e-13)
(5.82057e-13 0 2.67696e-13)
(5.30024e-13 0 3.04484e-13)
(4.7452e-13 0 3.35763e-13)
(4.16193e-13 0 3.6201e-13)
(3.55598e-13 0 3.83661e-13)
(2.93212e-13 0 4.01099e-13)
(2.29446e-13 0 4.1465e-13)
(1.64658e-13 0 4.24579e-13)
(9.91688e-14 0 4.31087e-13)
(3.31433e-14 0 4.34307e-13)
(-4.37267e-05 0 -0.00150453)
(8.8297e-05 0 -0.00116604)
(8.43159e-05 0 -0.000869792)
(5.57057e-05 0 -0.000829943)
(8.70137e-05 0 -0.00076966)
(8.92605e-05 0 -0.000642763)
(0.000100963 0 -0.000448213)
(0.000170252 0 -0.000133016)
(0.00021333 0 -3.80489e-05)
(0.000287088 0 0.000117231)
(0.000237725 0 0.000349225)
(0.000236174 0 0.000412695)
(0.000270331 0 0.00039371)
(0.000263809 0 0.000396132)
(0.000218972 0 0.00042497)
(0.000219792 0 0.0004324)
(0.000179669 0 0.000458161)
(0.000176172 0 0.000461992)
(0.000166378 0 0.000430178)
(0.000209559 0 0.000232707)
(0.000263406 0 6.92268e-05)
(0.000289547 0 1.13988e-05)
(0.000366962 0 -1.5703e-05)
(0.000293496 0 -0.000261622)
(0.000351722 0 -0.000286931)
(0.000341881 0 -0.000317198)
(0.000290421 0 -0.000335675)
(0.000220013 0 -0.000335578)
(0.00020385 0 -0.000297851)
(0.00021047 0 -0.000223473)
(0.000185275 0 -0.00019635)
(0.000175562 0 -0.000169614)
(0.000175577 0 -0.000140318)
(0.000197357 0 -9.85745e-05)
(0.000206767 0 -0.000127576)
(0.000249217 0 -9.07409e-05)
(0.000300162 0 1.33824e-05)
(0.000340401 0 -6.72459e-05)
(0.000370639 0 -0.000108638)
(0.000416641 0 -9.45146e-05)
(0.000452498 0 -0.000149148)
(0.000483596 0 -0.000130147)
(0.000498155 0 -0.000121505)
(0.000519351 0 -0.000100753)
(0.000545248 0 -9.26082e-05)
(0.000551315 0 -8.54803e-05)
(0.000549545 0 -7.4899e-05)
(0.000549195 0 -4.68763e-05)
(0.00055017 0 -4.72328e-05)
(0.000556813 0 -2.07919e-05)
(0.000557393 0 1.57366e-06)
(0.000555651 0 5.51573e-06)
(0.000552739 0 2.16007e-05)
(0.000548553 0 4.80045e-05)
(0.000541016 0 5.75885e-05)
(0.000528408 0 6.62291e-05)
(0.000512047 0 7.69369e-05)
(0.000492798 0 8.5113e-05)
(0.000473393 0 8.87447e-05)
(0.000451068 0 0.000115529)
(0.000440532 0 7.61935e-05)
(0.000414931 0 0.000110242)
(0.000399885 0 0.000116549)
(0.000390526 0 0.000104258)
(0.00037326 0 0.000116596)
(0.000356681 0 0.000124579)
(0.000331195 0 0.000160946)
(0.000331037 0 0.000134434)
(0.000324146 0 0.000127572)
(0.000301915 0 0.000151306)
(0.000277067 0 0.000150292)
(0.000276468 0 7.84004e-05)
(0.000239484 0 0.000135483)