0 	3.62956e-21 	0 	2.90365e-20
0.010101 	5.75568e-20 	1.01552e-22 	-2.28597e-20
0.020202 	-1.03622e-19 	-3.34534e-23 	-5.41679e-20
0.030303 	2.89097e-20 	2.03105e-22 	-2.79811e-20
0.040404 	-1.90113e-20 	-1.69311e-22 	-5.52144e-20
0.0505051 	-5.02841e-20 	6.74177e-23 	-8.0258e-20
