/*--------------------------------*- C++ -*----------------------------------*\
  =========                 |
  \\      /  F ield         | OpenFOAM: The Open Source CFD Toolbox
   \\    /   O peration     | Website:  https://openfoam.org
    \\  /    A nd           | Version:  6
     \\/     M anipulation  |
\*---------------------------------------------------------------------------*/
FoamFile
{
    version     2.0;
    format      ascii;
    class       volScalarField;
    location    "4650";
    object      Su;
}
// * * * * * * * * * * * * * * * * * * * * * * * * * * * * * * * * * * * * * //

dimensions      [0 0 -1 0 0 0 0];

internalField   nonuniform List<scalar> 
4800
(
0.218595
0.21459
0.21055
0.206457
0.202313
0.198133
0.193927
0.189704
0.185471
0.181241
0.177027
0.172841
0.168694
0.164601
0.160574
0.156631
0.152792
0.149076
0.145497
0.142071
0.138812
0.135733
0.132847
0.130151
0.127642
0.125323
0.123198
0.12126
0.119493
0.117863
0.116332
0.114869
0.113441
0.112025
0.110602
0.109157
0.107678
0.106157
0.104586
0.102959
0.101276
0.09953
0.0977139
0.0958215
0.0938495
0.0917936
0.0896537
0.0874377
0.0851556
0.0828196
0.0804447
0.0780473
0.0756438
0.0732498
0.0708755
0.0685245
0.0661971
0.0638948
0.0616214
0.0593762
0.0571558
0.0549572
0.052769
0.0505842
0.0483975
0.0461938
0.0439658
0.0417159
0.0394392
0.0371274
0.0347755
0.0323781
0.0299188
0.027381
0.02475
0.0220098
0.0191495
0.0161656
0.0130661
0.00986687
0.00659382
0.00331717
9.10113e-05
-0.00309639
-0.00625201
-0.00938096
-0.0124872
-0.015574
-0.0186438
-0.0216986
-0.0247397
-0.0277685
-0.0307855
-0.0337915
-0.0367868
-0.0397717
-0.0427464
-0.0457109
-0.0486654
-0.05161
-0.0545448
-0.0574699
-0.0603854
-0.0632918
-0.0661891
-0.0690777
-0.071958
-0.0748305
-0.0776956
-0.0805539
-0.0834058
-0.0862519
-0.0890929
-0.0919292
-0.0947616
-0.0975905
-0.100417
-0.103241
-0.106063
-0.108885
0.218574
0.214526
0.210445
0.206324
0.202162
0.197965
0.193744
0.189508
0.185268
0.181035
0.176818
0.172631
0.168488
0.164403
0.160389
0.156461
0.152634
0.148925
0.145354
0.141939
0.138695
0.135634
0.132764
0.130091
0.12762
0.125351
0.123284
0.121407
0.119692
0.118103
0.116606
0.115171
0.113767
0.112371
0.110964
0.109532
0.108064
0.106552
0.104992
0.103378
0.101707
0.0999729
0.098165
0.0962774
0.0943061
0.0922456
0.0900963
0.0878658
0.0855661
0.0832111
0.0808158
0.0783982
0.0759749
0.0735613
0.0711671
0.0687971
0.0664543
0.0641414
0.0618592
0.0596039
0.0573725
0.0551609
0.052959
0.0507618
0.048561
0.0463405
0.0440977
0.04183
0.0395283
0.0371894
0.0348104
0.0323812
0.0298906
0.0273271
0.024675
0.0219205
0.0190521
0.0160652
0.0129666
0.00977129
0.0065187
0.00326694
5.31615e-05
-0.00312667
-0.00627697
-0.0094019
-0.012505
-0.0155894
-0.0186572
-0.0217104
-0.0247504
-0.0277782
-0.0307946
-0.0338
-0.0367948
-0.0397792
-0.0427535
-0.0457176
-0.0486718
-0.0516161
-0.0545505
-0.0574753
-0.0603905
-0.0632965
-0.0661935
-0.0690818
-0.0719619
-0.0748341
-0.0776989
-0.0805568
-0.0834084
-0.0862543
-0.0890949
-0.091931
-0.0947631
-0.0975918
-0.100418
-0.103241
-0.106064
-0.108885
0.218533
0.214409
0.210263
0.206092
0.201892
0.197665
0.193418
0.189161
0.184907
0.180668
0.176454
0.172276
0.168144
0.164071
0.160069
0.156155
0.152346
0.148662
0.145117
0.141732
0.138521
0.1355
0.132679
0.130068
0.127676
0.125502
0.123532
0.121745
0.120109
0.118588
0.117152
0.115774
0.114415
0.113057
0.111682
0.110275
0.108828
0.107337
0.105797
0.104203
0.102556
0.100845
0.0990553
0.0971796
0.0952119
0.0931431
0.0909722
0.0887126
0.0863797
0.0839858
0.0815492
0.07909
0.0766251
0.0741718
0.0717393
0.0693346
0.0669635
0.0646284
0.0623276
0.0600539
0.0578041
0.0555714
0.0533467
0.0511274
0.0488986
0.0466459
0.044374
0.0420687
0.0397208
0.0373307
0.0348952
0.0324065
0.0298581
0.0272414
0.0245456
0.0217589
0.0188748
0.015887
0.0127999
0.00963046
0.006408
0.0031798
-1.71275e-05
-0.00318451
-0.00632525
-0.00944262
-0.0125397
-0.0156193
-0.0186834
-0.0217337
-0.0247715
-0.0277975
-0.0308124
-0.0338167
-0.0368106
-0.0397942
-0.0427677
-0.0457311
-0.0486846
-0.0516282
-0.054562
-0.0574861
-0.0604007
-0.0633061
-0.0662024
-0.0690901
-0.0719696
-0.0748411
-0.0777053
-0.0805627
-0.0834137
-0.086259
-0.089099
-0.0919345
-0.094766
-0.0975942
-0.10042
-0.103243
-0.106064
-0.108885
0.218483
0.214264
0.210035
0.205796
0.201547
0.197287
0.193018
0.188747
0.184483
0.180238
0.176023
0.171846
0.167718
0.163653
0.159665
0.155771
0.15199
0.14834
0.144838
0.1415
0.138344
0.135389
0.13265
0.130139
0.127862
0.125812
0.123964
0.122288
0.120752
0.119321
0.11797
0.116668
0.115372
0.114067
0.112737
0.111366
0.109952
0.108489
0.106978
0.105415
0.103802
0.102126
0.100363
0.0985011
0.0965381
0.0944563
0.0922521
0.0899501
0.0875654
0.0851112
0.0826119
0.0800903
0.0775666
0.07506
0.0725784
0.0701312
0.0677224
0.065354
0.0630243
0.0607237
0.0584486
0.0561885
0.053936
0.0516838
0.0494161
0.0471241
0.044808
0.0424471
0.040038
0.0375769
0.0350594
0.0324837
0.0298516
0.0271588
0.0243979
0.0215674
0.0186625
0.0156766
0.0126097
0.0094681
0.00627153
0.00306398
-0.000114248
-0.00326617
-0.00639418
-0.00950107
-0.0125897
-0.0156624
-0.0187212
-0.0217674
-0.024802
-0.0278257
-0.0308387
-0.0338415
-0.036834
-0.0398165
-0.0427889
-0.0457513
-0.0487038
-0.0516464
-0.0545792
-0.0575024
-0.060416
-0.0633204
-0.0662158
-0.0691026
-0.0719811
-0.0748517
-0.077715
-0.0805714
-0.0834216
-0.0862659
-0.0891052
-0.0919398
-0.0947705
-0.0975978
-0.100422
-0.103245
-0.106066
-0.108886
0.218431
0.214113
0.209798
0.205488
0.201184
0.196883
0.192588
0.188299
0.184023
0.179765
0.17554
0.171357
0.167231
0.163176
0.159209
0.155344
0.151599
0.147995
0.14455
0.141283
0.138212
0.135354
0.132729
0.130349
0.128212
0.126302
0.124588
0.123036
0.121616
0.120295
0.119044
0.117832
0.116614
0.115373
0.114099
0.112776
0.111405
0.109983
0.108511
0.106991
0.10542
0.103787
0.10206
0.100217
0.0982621
0.0961599
0.093909
0.0915458
0.0890855
0.086549
0.0839646
0.0813623
0.0787674
0.0761975
0.0736613
0.0711669
0.0687157
0.0663098
0.0639469
0.0616142
0.0593085
0.0570173
0.0547329
0.0524417
0.0501313
0.0477909
0.0454161
0.0429922
0.0405112
0.0379663
0.0353545
0.0326755
0.0299364
0.0271434
0.0242967
0.0213978
0.0184518
0.0154517
0.012388
0.00926637
0.00610342
0.00292392
-0.00023315
-0.00336763
-0.00648061
-0.00957461
-0.0126525
-0.0157166
-0.0187688
-0.0218101
-0.024841
-0.0278619
-0.0308729
-0.0338738
-0.0368649
-0.039846
-0.0428171
-0.0457782
-0.0487295
-0.0516708
-0.0546023
-0.0575242
-0.0604365
-0.0633397
-0.0662338
-0.0691192
-0.0719965
-0.0748659
-0.0777279
-0.0805831
-0.0834321
-0.0862753
-0.0891133
-0.0919468
-0.0947764
-0.0976026
-0.100426
-0.103247
-0.106067
-0.108886
0.218383
0.213972
0.209576
0.205196
0.200836
0.19649
0.192158
0.18784
0.183538
0.17926
0.175018
0.170826
0.166701
0.162661
0.158721
0.154896
0.151201
0.147659
0.144289
0.141112
0.138151
0.135422
0.132942
0.130715
0.128735
0.126975
0.125402
0.123983
0.122688
0.121489
0.120351
0.11924
0.11811
0.116945
0.115737
0.114472
0.113155
0.111782
0.110357
0.108886
0.107366
0.105782
0.104101
0.102286
0.10034
0.0982063
0.0958954
0.0934484
0.0908923
0.0882539
0.0855672
0.0828726
0.0801964
0.0775546
0.0749579
0.0724131
0.0699207
0.0674809
0.0650869
0.0627225
0.0603847
0.0580621
0.0557449
0.0534136
0.0510555
0.0486605
0.0462235
0.0437305
0.0411683
0.038532
0.0358173
0.033025
0.030165
0.0272488
0.0242888
0.0212984
0.0182845
0.0152477
0.0121719
0.00905797
0.00592253
0.00276987
-0.000367685
-0.00348479
-0.00658127
-0.00966021
-0.0127253
-0.0157793
-0.018824
-0.0218598
-0.024887
-0.0279051
-0.030914
-0.0339133
-0.0369029
-0.0398825
-0.0428522
-0.0458119
-0.0487616
-0.0517014
-0.0546314
-0.0575516
-0.0604624
-0.0633638
-0.0662563
-0.0691401
-0.0720158
-0.0748836
-0.0777441
-0.0805978
-0.0834452
-0.0862869
-0.0891235
-0.0919556
-0.0947838
-0.0976086
-0.100431
-0.103251
-0.106069
-0.108887
0.218342
0.213849
0.209376
0.204931
0.200514
0.196115
0.191735
0.187374
0.183036
0.178732
0.174473
0.170274
0.166154
0.162134
0.158229
0.154454
0.150823
0.14736
0.144087
0.141025
0.138198
0.135621
0.133305
0.131246
0.129429
0.127825
0.126397
0.125115
0.123952
0.122878
0.121862
0.120856
0.119826
0.118747
0.117617
0.116421
0.115167
0.113848
0.112472
0.111051
0.109585
0.108052
0.106425
0.104644
0.1027
0.100522
0.0981402
0.0955905
0.0929241
0.0901706
0.0873725
0.0845777
0.0818132
0.0790977
0.0764423
0.0738522
0.0713249
0.0688552
0.066432
0.064043
0.0616803
0.0593309
0.0569801
0.0546064
0.0521995
0.0497506
0.0472488
0.0446825
0.0420353
0.0393038
0.0364836
0.0335762
0.030592
0.0275459
0.0244584
0.0213517
0.0182339
0.0151148
0.0119923
0.0088701
0.0057502
0.00261353
-0.000512675
-0.00361484
-0.00669347
-0.00975474
-0.0128047
-0.0158472
-0.0188837
-0.0219142
-0.0249379
-0.0279539
-0.0309612
-0.0339593
-0.0369476
-0.039926
-0.0428943
-0.0458525
-0.0488005
-0.0517385
-0.0546665
-0.0575848
-0.0604936
-0.063393
-0.0662835
-0.0691654
-0.072039
-0.0749049
-0.0777635
-0.0806153
-0.0834609
-0.0863008
-0.0891357
-0.0919661
-0.0947926
-0.0976158
-0.100436
-0.103255
-0.106072
-0.108888
0.218305
0.213738
0.209191
0.204679
0.2002
0.195745
0.191309
0.186897
0.182515
0.17818
0.173906
0.169708
0.165604
0.161615
0.157758
0.154045
0.150493
0.147127
0.14397
0.141047
0.138373
0.135964
0.133821
0.131936
0.130287
0.12884
0.127557
0.126412
0.125379
0.124431
0.123537
0.12264
0.121714
0.120736
0.11969
0.118572
0.117389
0.116123
0.114796
0.113422
0.111999
0.11051
0.108939
0.107207
0.105255
0.103022
0.100553
0.0978885
0.0951054
0.0922326
0.0893181
0.0864179
0.0835656
0.0807832
0.0780793
0.075455
0.0729029
0.0704116
0.0679697
0.0655675
0.0631859
0.0608158
0.0584357
0.056024
0.0535727
0.051073
0.0485093
0.0458678
0.0431336
0.0403065
0.0373812
0.0343593
0.0312506
0.028073
0.0248526
0.0216137
0.0183692
0.0151401
0.0119408
0.00877654
0.00562471
0.00246478
-0.000668074
-0.00375846
-0.00681577
-0.00985482
-0.0128865
-0.015916
-0.0189443
-0.0219702
-0.0249916
-0.0280065
-0.0310134
-0.034011
-0.0369988
-0.0399762
-0.0429433
-0.0458999
-0.0488461
-0.051782
-0.0547079
-0.0576239
-0.0605303
-0.0634274
-0.0663155
-0.069195
-0.0720663
-0.0749298
-0.0777862
-0.0806358
-0.0834792
-0.0863171
-0.0891499
-0.0919783
-0.0948028
-0.0976241
-0.100443
-0.103259
-0.106074
-0.108889
0.218272
0.213639
0.209023
0.204435
0.199882
0.195359
0.190863
0.186398
0.181973
0.177608
0.173326
0.169145
0.165075
0.161131
0.157332
0.153693
0.150237
0.146987
0.143967
0.141196
0.138692
0.136459
0.134495
0.132783
0.131294
0.129995
0.128853
0.127842
0.126942
0.126117
0.125337
0.124551
0.12373
0.122853
0.121897
0.120856
0.119753
0.11853
0.117249
0.11591
0.114514
0.11306
0.111554
0.109856
0.107865
0.105566
0.103014
0.100245
0.0973506
0.0943603
0.091331
0.0883306
0.0854005
0.0825642
0.0798259
0.0771816
0.0746184
0.0721202
0.0696748
0.0672696
0.0648795
0.062498
0.0600988
0.0576634
0.0551803
0.0526373
0.0500145
0.0472989
0.0444817
0.0415613
0.0385349
0.0354042
0.0321776
0.0288729
0.0255175
0.0221415
0.0187672
0.0154164
0.012103
0.00882633
0.00555966
0.00231296
-0.0008479
-0.00392252
-0.0069477
-0.00995582
-0.0129646
-0.01598
-0.019001
-0.0220242
-0.0250455
-0.0280614
-0.0310694
-0.0340679
-0.037056
-0.0400331
-0.0429992
-0.0459543
-0.0488986
-0.0518323
-0.0547557
-0.0576691
-0.0605727
-0.063467
-0.0663523
-0.069229
-0.0720975
-0.0749584
-0.0778121
-0.0806592
-0.0835002
-0.0863356
-0.0891661
-0.0919921
-0.0948144
-0.0976335
-0.10045
-0.103264
-0.106077
-0.10889
0.218236
0.213533
0.208844
0.204177
0.199544
0.194946
0.190383
0.185864
0.181408
0.177033
0.172762
0.168608
0.164581
0.160697
0.156975
0.153434
0.150093
0.146979
0.144109
0.141506
0.139177
0.137122
0.135331
0.133779
0.132438
0.13128
0.130273
0.129392
0.12862
0.127911
0.127236
0.126556
0.125832
0.125045
0.124183
0.123207
0.122179
0.120986
0.119745
0.118427
0.117043
0.115611
0.114141
0.112422
0.11036
0.107978
0.105329
0.102466
0.0994772
0.096395
0.0932843
0.0902181
0.0872461
0.0843878
0.0816402
0.0789946
0.0764371
0.0739488
0.0715138
0.0691161
0.0667336
0.0643556
0.0619521
0.0595056
0.0569992
0.0544216
0.0517506
0.0489716
0.0460763
0.0430634
0.0399339
0.0366925
0.0333511
0.0299285
0.0264519
0.0229508
0.0194495
0.0159628
0.0124934
0.00902492
0.00554348
0.00210588
-0.00108978
-0.00411938
-0.00708614
-0.0100489
-0.0130299
-0.0160316
-0.0190483
-0.0220724
-0.0250969
-0.0281168
-0.0311283
-0.0341294
-0.037119
-0.0400966
-0.0430622
-0.046016
-0.0489583
-0.0518896
-0.0548101
-0.0577205
-0.0606209
-0.063512
-0.066394
-0.0692675
-0.0721328
-0.0749906
-0.0778413
-0.0806855
-0.0835236
-0.0863563
-0.0891841
-0.0920076
-0.0948274
-0.0976441
-0.100458
-0.10327
-0.106081
-0.108891
0.218197
0.213414
0.208643
0.203892
0.199174
0.1945
0.189875
0.185319
0.180855
0.176491
0.172245
0.16813
0.164161
0.16035
0.156717
0.153288
0.150083
0.147118
0.144415
0.141987
0.139836
0.137955
0.136327
0.134924
0.133721
0.132698
0.13182
0.131065
0.130408
0.129804
0.12922
0.128631
0.127988
0.127279
0.126491
0.125573
0.124591
0.123435
0.122221
0.120904
0.119514
0.118075
0.116585
0.114804
0.112657
0.110185
0.107443
0.104505
0.101439
0.0982972
0.0951531
0.0920708
0.089094
0.086236
0.0834967
0.0808671
0.0783322
0.0758698
0.0734599
0.0710847
0.0687277
0.066367
0.0639729
0.0615284
0.0590138
0.0564152
0.053707
0.0508721
0.0479027
0.0447968
0.0415568
0.0381943
0.0347277
0.0311839
0.0275904
0.023972
0.0203494
0.0167262
0.0130796
0.00936849
0.00555709
0.00169665
-0.00146261
-0.00435542
-0.00721487
-0.0101156
-0.0130679
-0.0160609
-0.0190797
-0.0221107
-0.0251437
-0.0281714
-0.0311895
-0.0341954
-0.037188
-0.040167
-0.0431325
-0.0460852
-0.0490255
-0.051954
-0.0548714
-0.0577783
-0.0606751
-0.0635624
-0.0664407
-0.0693105
-0.0721722
-0.0750265
-0.0778738
-0.0807146
-0.0835496
-0.0863792
-0.089204
-0.0920247
-0.0948417
-0.0976556
-0.100467
-0.103277
-0.106085
-0.108892
0.21815
0.213275
0.208417
0.203582
0.198781
0.194036
0.18937
0.184801
0.180345
0.176004
0.171798
0.167737
0.163842
0.160122
0.1566
0.153297
0.150233
0.147431
0.144903
0.142652
0.140676
0.13896
0.137482
0.136217
0.135144
0.134246
0.13349
0.13285
0.132293
0.131773
0.131262
0.130748
0.130161
0.12951
0.128772
0.127907
0.126949
0.125835
0.124627
0.123298
0.121882
0.120401
0.118841
0.116969
0.114723
0.112156
0.109332
0.106337
0.103222
0.100067
0.0969255
0.0938522
0.0908951
0.088068
0.085367
0.0827784
0.0802851
0.0778642
0.0754947
0.0731575
0.0708398
0.0685085
0.0661376
0.0637087
0.0612006
0.0585925
0.0558563
0.052973
0.0499327
0.0467325
0.0433786
0.0398916
0.0362964
0.0326215
0.0288934
0.0251375
0.0213721
0.0175984
0.0137845
0.00986057
0.00565841
0.000647141
-0.00204373
-0.00458842
-0.00728379
-0.0101215
-0.0130584
-0.016057
-0.0190896
-0.0221366
-0.0251845
-0.0282249
-0.0312529
-0.034266
-0.0372632
-0.0402446
-0.0432107
-0.0461623
-0.0491004
-0.052026
-0.0549398
-0.0578427
-0.0607354
-0.0636184
-0.0664924
-0.069358
-0.0722156
-0.0750659
-0.0779094
-0.0807465
-0.083578
-0.0864042
-0.0892258
-0.0920433
-0.0948572
-0.0976682
-0.100477
-0.103283
-0.106089
-0.108893
0.218094
0.213115
0.208168
0.203258
0.198398
0.193612
0.188927
0.184356
0.179915
0.175612
0.17146
0.16747
0.163657
0.160041
0.156641
0.153478
0.150574
0.147942
0.145587
0.143509
0.141696
0.140132
0.138792
0.137657
0.136705
0.13592
0.135273
0.13473
0.134252
0.133796
0.133338
0.132874
0.13232
0.131706
0.130995
0.130163
0.12922
0.128137
0.126927
0.125577
0.124112
0.122558
0.120893
0.118909
0.116555
0.1139
0.111021
0.107995
0.104864
0.101717
0.0985982
0.0955611
0.0926519
0.0898819
0.0872436
0.0847176
0.0822838
0.0799197
0.0776042
0.0753166
0.0730469
0.0707562
0.0684202
0.0660189
0.0635289
0.0609204
0.058164
0.0552369
0.0521227
0.0488229
0.0453522
0.0417376
0.0380072
0.0341904
0.0303144
0.0264024
0.0224673
0.0185127
0.01454
0.010535
0.00628919
-0.00219145
-0.0026652
-0.00461594
-0.00718736
-0.0100196
-0.0129819
-0.0160125
-0.0190759
-0.0221499
-0.0252203
-0.0282785
-0.0313199
-0.0343424
-0.0373457
-0.0403302
-0.0432972
-0.0462479
-0.0491836
-0.0521058
-0.0550156
-0.0579139
-0.0608018
-0.06368
-0.0665492
-0.06941
-0.072263
-0.0751088
-0.077948
-0.0807811
-0.0836086
-0.0864311
-0.0892492
-0.0920633
-0.0948739
-0.0976817
-0.100487
-0.103291
-0.106093
-0.108895
0.218041
0.212963
0.207933
0.202961
0.198062
0.193258
0.18857
0.18402
0.179617
0.175367
0.171281
0.167372
0.163657
0.160152
0.156884
0.153871
0.15113
0.148666
0.146478
0.14456
0.142898
0.141472
0.140262
0.139247
0.138405
0.137719
0.137162
0.136692
0.136269
0.135856
0.135429
0.134984
0.134448
0.133847
0.133143
0.132326
0.131391
0.130318
0.1291
0.127721
0.126198
0.124557
0.122775
0.120672
0.118218
0.115497
0.112576
0.109524
0.106389
0.103259
0.100178
0.0971997
0.094366
0.0916806
0.0891254
0.0866766
0.0843144
0.0820181
0.0797655
0.0775352
0.0753177
0.0730749
0.0707834
0.0684211
0.0659565
0.0633475
0.0605611
0.0575729
0.0543734
0.0509736
0.0473906
0.0436502
0.0397827
0.0358227
0.0318013
0.0277408
0.0236472
0.0195273
0.0153873
0.0111778
0.00673064
0.00161198
-0.00124281
-0.00395952
-0.00681125
-0.00978458
-0.0128366
-0.0159317
-0.019044
-0.0221557
-0.0252551
-0.0283354
-0.0313929
-0.0344266
-0.0374369
-0.0404251
-0.043393
-0.0463426
-0.0492756
-0.0521938
-0.0550989
-0.0579921
-0.0608745
-0.0637472
-0.0666109
-0.0694663
-0.0723142
-0.0751551
-0.0779896
-0.0808182
-0.0836415
-0.08646
-0.0892741
-0.0920845
-0.0948917
-0.0976961
-0.100498
-0.103299
-0.106098
-0.108896
0.217999
0.212844
0.207754
0.20274
0.197821
0.19302
0.188353
0.183838
0.179486
0.175301
0.171296
0.167481
0.163871
0.160492
0.157366
0.154504
0.151921
0.149615
0.147584
0.145816
0.14429
0.142989
0.141896
0.140992
0.140251
0.139649
0.139157
0.138735
0.138341
0.137949
0.137535
0.13709
0.136554
0.13595
0.135239
0.134429
0.133494
0.132429
0.131203
0.129797
0.128213
0.12648
0.124574
0.122354
0.119803
0.117011
0.114043
0.110968
0.107833
0.104727
0.1017
0.0988005
0.0960612
0.0934732
0.0910096
0.0886449
0.0863594
0.0841334
0.081944
0.0797712
0.0776046
0.0754108
0.0731644
0.0708343
0.0683772
0.0657446
0.0629072
0.0598474
0.0565606
0.053056
0.049355
0.0454886
0.0414926
0.037404
0.0332579
0.0290811
0.0248806
0.0206615
0.016423
0.0121567
0.00787221
0.00365728
9.72487e-05
-0.0031519
-0.00631995
-0.0094839
-0.0126583
-0.015837
-0.0190092
-0.0221649
-0.025297
-0.0284014
-0.0314762
-0.0345217
-0.0375392
-0.0405309
-0.0434994
-0.0464472
-0.0493768
-0.0522904
-0.05519
-0.0580772
-0.0609534
-0.0638198
-0.0666774
-0.069527
-0.0723691
-0.0752046
-0.078034
-0.0808577
-0.0836764
-0.0864905
-0.0893005
-0.092107
-0.0949104
-0.0977112
-0.10051
-0.103307
-0.106103
-0.108898
0.217979
0.212782
0.207658
0.202632
0.197711
0.192926
0.1883
0.183834
0.179539
0.175431
0.171517
0.167808
0.164323
0.161079
0.158096
0.155386
0.152956
0.150801
0.148916
0.147283
0.14588
0.144694
0.143709
0.142906
0.142253
0.141716
0.141267
0.140869
0.140486
0.140099
0.139687
0.139233
0.138692
0.138084
0.137375
0.136575
0.135649
0.134598
0.133377
0.131956
0.130318
0.128488
0.126453
0.124114
0.121453
0.118569
0.115535
0.112421
0.109284
0.106213
0.103254
0.100443
0.0977987
0.0953004
0.0929173
0.0906249
0.0884051
0.0862382
0.0841002
0.0819745
0.0798488
0.0776935
0.075476
0.0731505
0.0706648
0.0679744
0.0650559
0.0618983
0.0585032
0.0548825
0.0510613
0.0470741
0.0429603
0.0387604
0.0345134
0.0302478
0.0259783
0.0217202
0.0174714
0.0132253
0.00900636
0.00490739
0.00108273
-0.00247017
-0.00587722
-0.00921078
-0.012503
-0.0157643
-0.0189955
-0.0221941
-0.0253576
-0.0284848
-0.0315757
-0.0346318
-0.0376555
-0.0406497
-0.0436177
-0.0465627
-0.0494878
-0.0523958
-0.0552889
-0.0581693
-0.0610385
-0.0638979
-0.0667486
-0.0695916
-0.0724275
-0.075257
-0.0780808
-0.0808993
-0.083713
-0.0865225
-0.0893282
-0.0921305
-0.09493
-0.097727
-0.100522
-0.103316
-0.106108
-0.1089
0.21797
0.212756
0.207621
0.202601
0.197707
0.192958
0.188386
0.183994
0.179784
0.175773
0.171965
0.168376
0.165025
0.161926
0.159092
0.15653
0.154244
0.152231
0.150481
0.148971
0.147683
0.146604
0.14572
0.145007
0.144427
0.143941
0.143519
0.143132
0.142753
0.142365
0.141954
0.141496
0.140962
0.140364
0.139677
0.1389
0.138009
0.137002
0.135827
0.134422
0.132748
0.130818
0.128653
0.126183
0.123374
0.120354
0.117213
0.114033
0.110874
0.107832
0.104934
0.102201
0.0996342
0.0972022
0.0948745
0.0926293
0.0904498
0.0883152
0.0862039
0.0841012
0.0819919
0.0798439
0.0776124
0.0752391
0.0726719
0.0698749
0.0668303
0.0635348
0.059997
0.0562349
0.05228
0.0481716
0.0439514
0.0396618
0.0353438
0.0310248
0.0267174
0.0224297
0.0181597
0.0139095
0.00970185
0.00559382
0.00166678
-0.0020432
-0.00559858
-0.00905032
-0.0124302
-0.0157549
-0.0190318
-0.0222637
-0.0254514
-0.0285959
-0.0316987
-0.0347621
-0.0377892
-0.0407838
-0.0437494
-0.0466901
-0.0496093
-0.0525103
-0.0553958
-0.0582683
-0.0611295
-0.063981
-0.0668242
-0.0696599
-0.0724889
-0.0753121
-0.0781298
-0.0809427
-0.0837512
-0.0865558
-0.0893568
-0.0921548
-0.0949502
-0.0977433
-0.100535
-0.103324
-0.106113
-0.108901
0.21798
0.212784
0.207666
0.20267
0.197825
0.193144
0.188639
0.184328
0.180224
0.176331
0.172652
0.169201
0.165992
0.163038
0.160348
0.15793
0.155783
0.153906
0.152283
0.150891
0.149714
0.148739
0.147948
0.147315
0.146797
0.146354
0.145956
0.145582
0.145212
0.144836
0.144442
0.144003
0.143506
0.142952
0.142325
0.141614
0.140814
0.139909
0.138832
0.137488
0.135805
0.133772
0.131464
0.128835
0.125816
0.122592
0.11929
0.116002
0.1128
0.109764
0.106894
0.104197
0.101668
0.099258
0.0969419
0.0947007
0.0925178
0.0903721
0.0882457
0.0861229
0.0839813
0.0817788
0.0794581
0.0769565
0.074228
0.071249
0.0680091
0.0645164
0.0607903
0.0568592
0.0527556
0.0485234
0.0442088
0.0398562
0.0354994
0.0311579
0.026841
0.022551
0.0182869
0.0140537
0.00986978
0.00576859
0.00181958
-0.00194753
-0.00556679
-0.00907369
-0.0124957
-0.0158507
-0.019149
-0.022396
-0.0255944
-0.0287461
-0.0318532
-0.0349182
-0.0379444
-0.0409357
-0.0438963
-0.0468303
-0.0497417
-0.0526341
-0.0555106
-0.0583739
-0.061226
-0.0640688
-0.0669036
-0.0697314
-0.0725531
-0.0753693
-0.0781807
-0.0809876
-0.0837906
-0.08659
-0.0893863
-0.0921798
-0.0949709
-0.0977599
-0.100547
-0.103333
-0.106119
-0.108903
0.218001
0.212845
0.207762
0.202801
0.19801
0.193413
0.189012
0.184814
0.180835
0.177077
0.173541
0.170241
0.167184
0.164381
0.161838
0.159562
0.157552
0.155807
0.15431
0.153036
0.151971
0.1511
0.150401
0.149844
0.149388
0.148994
0.148635
0.148292
0.147958
0.147628
0.147289
0.146918
0.146512
0.146061
0.145553
0.144981
0.144353
0.143621
0.142706
0.141495
0.139839
0.137703
0.135229
0.132421
0.129134
0.125622
0.122077
0.118617
0.115322
0.112231
0.109333
0.106617
0.104065
0.101611
0.0992421
0.0969393
0.0946855
0.0924635
0.0902564
0.0880434
0.0857875
0.0834344
0.0809169
0.0781743
0.0751711
0.0719088
0.0683957
0.0646399
0.060665
0.0565104
0.0522205
0.0478494
0.0434485
0.0390566
0.0346959
0.0303776
0.0261038
0.0218725
0.0176804
0.0135279
0.00942646
0.00539204
0.00149248
-0.00224562
-0.00584686
-0.00933954
-0.012748
-0.0160899
-0.0193762
-0.0226129
-0.0258027
-0.0289471
-0.0320475
-0.0351058
-0.0381248
-0.0411081
-0.0440597
-0.0469841
-0.0498852
-0.052767
-0.0556329
-0.0584856
-0.0613276
-0.0641607
-0.0669864
-0.0698056
-0.0726194
-0.0754283
-0.0782329
-0.0810336
-0.0838308
-0.0866249
-0.0894162
-0.0922051
-0.0949918
-0.0977768
-0.10056
-0.103343
-0.106124
-0.108905
0.218021
0.212909
0.207872
0.202958
0.198224
0.193712
0.189431
0.185373
0.181541
0.177936
0.174561
0.171423
0.168527
0.165882
0.163494
0.161365
0.159498
0.157891
0.156521
0.155371
0.154424
0.153663
0.153066
0.152597
0.152223
0.151902
0.151614
0.151345
0.151098
0.150872
0.150654
0.150431
0.150193
0.149929
0.149629
0.149298
0.148934
0.148468
0.147799
0.146796
0.1452
0.142957
0.140295
0.137304
0.133698
0.129789
0.125915
0.122216
0.118757
0.115542
0.112546
0.109741
0.107087
0.104503
0.101992
0.0995321
0.0971108
0.0947179
0.0923298
0.0899123
0.0874124
0.0847664
0.0819053
0.078777
0.0753843
0.0717194
0.0678035
0.0636702
0.0593567
0.0549256
0.0504226
0.0459048
0.0414262
0.037018
0.0326924
0.0284519
0.0242905
0.0201999
0.0161696
0.0121917
0.0082693
0.00439868
0.000631646
-0.00298877
-0.00648786
-0.00989225
-0.0132251
-0.0165034
-0.0197377
-0.0229328
-0.0260901
-0.0292089
-0.0322888
-0.0353298
-0.0383336
-0.0413028
-0.0442408
-0.0471517
-0.0500397
-0.0529087
-0.0557621
-0.0586029
-0.0614335
-0.064256
-0.0670717
-0.0698819
-0.0726872
-0.0754884
-0.0782859
-0.0810802
-0.0838715
-0.0866601
-0.0894464
-0.0922306
-0.0950129
-0.0977937
-0.100573
-0.103352
-0.106129
-0.108907
0.218006
0.212872
0.207846
0.202987
0.198335
0.193922
0.189763
0.185852
0.182182
0.178749
0.175552
0.172593
0.169875
0.167404
0.165183
0.163214
0.161497
0.160037
0.158812
0.157802
0.156994
0.156366
0.155897
0.155552
0.155298
0.155098
0.154936
0.154814
0.154736
0.154703
0.154705
0.154732
0.154769
0.154804
0.154829
0.15485
0.154848
0.154749
0.154424
0.153705
0.152187
0.149842
0.146994
0.143855
0.139923
0.135503
0.131212
0.127199
0.123509
0.120106
0.116946
0.113972
0.111119
0.108298
0.105526
0.102782
0.100064
0.0973683
0.0946492
0.0918538
0.0889235
0.0857933
0.0824029
0.0787315
0.0747705
0.0705496
0.0661097
0.0615032
0.0567768
0.0520125
0.0472579
0.0425734
0.0380167
0.0336096
0.0293593
0.0252562
0.0212819
0.0174159
0.0136445
0.00994945
0.00632482
0.00274376
-0.000792595
-0.00420137
-0.0075134
-0.010755
-0.0139484
-0.01711
-0.0202492
-0.0233685
-0.0264664
-0.0295389
-0.0325823
-0.0355939
-0.0385732
-0.041521
-0.0444399
-0.0473332
-0.0502048
-0.0530583
-0.0558973
-0.0587246
-0.0615428
-0.0643537
-0.0671589
-0.0699593
-0.0727558
-0.075549
-0.0783393
-0.0811269
-0.0839121
-0.0866952
-0.0894764
-0.0922558
-0.0950338
-0.0978104
-0.100586
-0.103361
-0.106135
-0.108909
0.217956
0.21273
0.207634
0.202752
0.198142
0.193813
0.189766
0.186
0.1825
0.179253
0.176251
0.173489
0.170968
0.168691
0.166659
0.164874
0.163337
0.162051
0.160996
0.160161
0.159528
0.159079
0.158789
0.158625
0.158555
0.158554
0.158614
0.158743
0.158946
0.159223
0.15957
0.159976
0.160421
0.160887
0.161362
0.16184
0.162299
0.162657
0.162773
0.162437
0.160984
0.158509
0.155558
0.152437
0.14826
0.143202
0.138389
0.133991
0.130021
0.126395
0.123026
0.119819
0.116666
0.113491
0.110305
0.107118
0.10394
0.100761
0.0974901
0.0940735
0.0904615
0.0866048
0.0824638
0.07803
0.0733344
0.0684328
0.0633775
0.058221
0.053027
0.0478984
0.0428691
0.037995
0.0333476
0.0289478
0.0247931
0.0208652
0.0171295
0.0135477
0.0101154
0.00680264
0.00359895
0.00044574
-0.00274854
-0.00585538
-0.00890596
-0.0119197
-0.0149162
-0.0179116
-0.0209141
-0.0239239
-0.0269353
-0.0299401
-0.0329303
-0.0358994
-0.038844
-0.0417626
-0.0446564
-0.0475276
-0.0503792
-0.0532147
-0.0560373
-0.0588496
-0.0616542
-0.0644527
-0.0672467
-0.070037
-0.0728244
-0.0756093
-0.0783922
-0.0811731
-0.0839522
-0.0867298
-0.0895059
-0.0922806
-0.0950542
-0.0978268
-0.100599
-0.10337
-0.10614
-0.10891
0.217834
0.212379
0.207094
0.20208
0.1974
0.193079
0.189103
0.185451
0.182103
0.179036
0.176233
0.173689
0.171393
0.169342
0.167536
0.165976
0.164662
0.163596
0.162768
0.162166
0.161777
0.161581
0.161551
0.161653
0.161869
0.162187
0.162597
0.163109
0.163729
0.164459
0.165297
0.166231
0.167234
0.168268
0.169312
0.170336
0.17131
0.172188
0.172844
0.172956
0.171515
0.168898
0.166071
0.163306
0.15902
0.153139
0.147721
0.142915
0.138668
0.134851
0.131283
0.127825
0.124295
0.120652
0.116868
0.113039
0.109206
0.10532
0.10123
0.0969151
0.0923251
0.0874356
0.0822404
0.0768094
0.0712423
0.0656201
0.0599684
0.0542803
0.0486301
0.0431632
0.03787
0.0327958
0.0280048
0.0235574
0.0194461
0.0156638
0.0121473
0.0088473
0.00578987
0.00292644
0.000236903
-0.00236568
-0.00509363
-0.00784024
-0.0105916
-0.0133391
-0.0160987
-0.0188895
-0.0217212
-0.0245922
-0.0274929
-0.0304101
-0.033331
-0.0362449
-0.0391446
-0.0420262
-0.0448886
-0.0477329
-0.0505612
-0.053376
-0.0561802
-0.0589762
-0.0617662
-0.0645517
-0.0673339
-0.0701138
-0.0728919
-0.0756686
-0.0784439
-0.0812181
-0.0839913
-0.0867633
-0.0895345
-0.0923047
-0.095074
-0.0978426
-0.100611
-0.103378
-0.106145
-0.108912
0.217595
0.211682
0.205994
0.200649
0.195724
0.191273
0.187277
0.183689
0.18047
0.177581
0.174985
0.17266
0.170597
0.168792
0.167247
0.165965
0.164952
0.164194
0.163686
0.163419
0.163376
0.163542
0.16389
0.164393
0.165041
0.165827
0.166739
0.167786
0.168973
0.170309
0.171792
0.173409
0.175116
0.176839
0.178549
0.180138
0.1816
0.182971
0.184234
0.184817
0.183336
0.180673
0.178264
0.176256
0.171999
0.165199
0.159189
0.154035
0.149572
0.145689
0.142007
0.138399
0.134467
0.130201
0.125564
0.120884
0.116268
0.111528
0.106399
0.100976
0.0951031
0.0887771
0.0820666
0.0753351
0.0688683
0.0627134
0.0567514
0.0507143
0.0447101
0.0390631
0.0335565
0.028309
0.0232218
0.0185169
0.0142415
0.0104362
0.00698885
0.00385867
0.00114988
-0.00122264
-0.0033628
-0.00538223
-0.00749514
-0.00993847
-0.012438
-0.0149285
-0.0174392
-0.0200054
-0.0226445
-0.025356
-0.0281274
-0.0309409
-0.0337787
-0.0366257
-0.0394711
-0.0423081
-0.0451334
-0.0479464
-0.0507479
-0.0535397
-0.0563239
-0.0591024
-0.061877
-0.0646489
-0.0674193
-0.0701886
-0.0729574
-0.0757257
-0.0784938
-0.0812614
-0.0840286
-0.0867954
-0.0895617
-0.0923275
-0.0950928
-0.0978577
-0.100622
-0.103386
-0.10615
-0.108914
0.217163
0.210414
0.203969
0.19799
0.192583
0.187809
0.18365
0.180029
0.176874
0.174128
0.171729
0.169644
0.167858
0.16636
0.165151
0.164234
0.163608
0.163261
0.163193
0.163394
0.163857
0.16455
0.165446
0.166524
0.167773
0.16919
0.170766
0.172502
0.174403
0.176484
0.178748
0.181187
0.183728
0.186208
0.188602
0.190684
0.192497
0.194224
0.195984
0.196911
0.195492
0.193098
0.191338
0.190267
0.186268
0.178688
0.172295
0.166907
0.162282
0.158509
0.154828
0.151376
0.147097
0.142039
0.136312
0.130787
0.125536
0.120034
0.113736
0.107304
0.0999156
0.0915976
0.0824383
0.0739591
0.0667781
0.0607198
0.0553809
0.0494257
0.0430808
0.0376801
0.0319552
0.0267277
0.0210365
0.0156213
0.0107039
0.00638208
0.00266023
-0.000550482
-0.00297238
-0.00464459
-0.00631356
-0.00795398
-0.0092616
-0.0118501
-0.0142916
-0.0165864
-0.0188645
-0.0212065
-0.0236468
-0.0261893
-0.0288205
-0.0315193
-0.0342635
-0.0370342
-0.0398172
-0.042603
-0.0453861
-0.0481639
-0.0509358
-0.0537027
-0.0564655
-0.0592257
-0.0619845
-0.0647428
-0.0675012
-0.0702601
-0.0730197