/*--------------------------------*- C++ -*----------------------------------*\
  =========                 |
  \\      /  F ield         | OpenFOAM: The Open Source CFD Toolbox
   \\    /   O peration     | Website:  https://openfoam.org
    \\  /    A nd           | Version:  6
     \\/     M anipulation  |
\*---------------------------------------------------------------------------*/
FoamFile
{
    version     2.0;
    format      ascii;
    class       volScalarField;
    location    "4650";
    object      T;
}
// * * * * * * * * * * * * * * * * * * * * * * * * * * * * * * * * * * * * * //

dimensions      [0 0 0 1 0 0 0];

internalField   nonuniform List<scalar> 
4800
(
552.478
552.332
552.186
552.037
551.887
551.736
551.583
551.43
551.276
551.123
550.97
550.818
550.668
550.52
550.374
550.231
550.091
549.957
549.827
549.702
549.584
549.473
549.368
549.27
549.179
549.095
549.018
548.948
548.884
548.825
548.769
548.716
548.664
548.613
548.561
548.509
548.455
548.4
548.343
548.284
548.223
548.16
548.094
548.025
547.954
547.879
547.802
547.721
547.638
547.554
547.468
547.381
547.293
547.207
547.12
547.035
546.951
546.867
546.785
546.703
546.623
546.543
546.464
546.384
546.305
546.225
546.144
546.063
545.98
545.896
545.811
545.724
545.635
545.543
545.448
545.348
545.244
545.136
545.024
544.908
544.789
544.67
544.553
544.438
544.323
544.21
544.097
543.985
543.874
543.763
543.653
543.543
543.434
543.325
543.216
543.108
543
542.892
542.785
542.678
542.572
542.466
542.36
542.255
542.15
542.045
541.94
541.836
541.732
541.629
541.525
541.422
541.319
541.216
541.113
541.011
540.908
540.806
540.703
540.601
552.477
552.33
552.182
552.033
551.882
551.73
551.576
551.423
551.269
551.116
550.963
550.811
550.661
550.512
550.367
550.224
550.086
549.951
549.822
549.698
549.58
549.469
549.365
549.268
549.178
549.096
549.021
548.953
548.891
548.833
548.779
548.727
548.676
548.625
548.574
548.523
548.469
548.414
548.358
548.299
548.239
548.176
548.11
548.042
547.97
547.896
547.818
547.737
547.653
547.568
547.481
547.393
547.305
547.218
547.131
547.045
546.96
546.876
546.793
546.712
546.631
546.55
546.471
546.391
546.311
546.231
546.149
546.067
545.983
545.899
545.812
545.724
545.634
545.541
545.445
545.345
545.241
545.133
545.02
544.904
544.786
544.668
544.552
544.437
544.322
544.209
544.096
543.985
543.873
543.763
543.652
543.543
543.433
543.324
543.216
543.107
543
542.892
542.785
542.678
542.572
542.466
542.36
542.254
542.149
542.045
541.94
541.836
541.732
541.629
541.525
541.422
541.319
541.216
541.113
541.011
540.908
540.806
540.703
540.601
552.475
552.326
552.176
552.024
551.872
551.719
551.565
551.41
551.256
551.102
550.949
550.798
550.648
550.5
550.355
550.213
550.075
549.942
549.813
549.69
549.574
549.464
549.362
549.267
549.18
549.102
549.03
548.965
548.906
548.851
548.799
548.749
548.7
548.65
548.601
548.549
548.497
548.443
548.387
548.329
548.27
548.207
548.143
548.075
548.003
547.928
547.849
547.767
547.683
547.596
547.508
547.418
547.329
547.24
547.152
547.065
546.979
546.894
546.81
546.728
546.646
546.565
546.485
546.404
546.323
546.242
546.159
546.076
545.99
545.904
545.815
545.725
545.633
545.538
545.44
545.339
545.234
545.126
545.014
544.899
544.782
544.665
544.549
544.435
544.321
544.208
544.095
543.984
543.872
543.762
543.652
543.542
543.433
543.324
543.215
543.107
542.999
542.892
542.784
542.678
542.571
542.465
542.36
542.254
542.149
542.044
541.94
541.836
541.732
541.628
541.525
541.422
541.319
541.216
541.113
541.011
540.908
540.806
540.703
540.601
552.474
552.321
552.167
552.014
551.859
551.705
551.55
551.395
551.241
551.087
550.934
550.782
550.633
550.485
550.341
550.199
550.062
549.93
549.803
549.682
549.567
549.46
549.361
549.27
549.187
549.113
549.046
548.985
548.929
548.878
548.829
548.781
548.734
548.687
548.639
548.589
548.538
548.485
548.43
548.373
548.315
548.254
548.19
548.122
548.051
547.976
547.896
547.812
547.726
547.637
547.546
547.455
547.363
547.272
547.182
547.093
547.006
546.92
546.836
546.752
546.67
546.588
546.506
546.424
546.342
546.259
546.175
546.089
546.002
545.913
545.821
545.728
545.633
545.535
545.435
545.332
545.227
545.119
545.007
544.893
544.777
544.661
544.546
544.432
544.318
544.205
544.093
543.982
543.871
543.761
543.651
543.541
543.432
543.323
543.214
543.106
542.998
542.891
542.784
542.677
542.571
542.465
542.359
542.254
542.149
542.044
541.94
541.835
541.732
541.628
541.525
541.421
541.319
541.216
541.113
541.011
540.908
540.806
540.703
540.601
552.472
552.315
552.159
552.002
551.846
551.69
551.535
551.379
551.224
551.07
550.916
550.765
550.615
550.468
550.324
550.184
550.048
549.917
549.792
549.674
549.563
549.459
549.364
549.277
549.2
549.131
549.069
549.012
548.961
548.913
548.867
548.824
548.779
548.734
548.688
548.64
548.59
548.539
548.485
548.43
548.373
548.314
548.251
548.185
548.114
548.037
547.956
547.87
547.781
547.689
547.595
547.501
547.407
547.313
547.221
547.131
547.042
546.955
546.869
546.785
546.701
546.618
546.535
546.452
546.368
546.283
546.197
546.109
546.019
545.927
545.832
545.735
545.636
545.534
545.431
545.326
545.219
545.11
544.999
544.886
544.771
544.656
544.542
544.428
544.315
544.203
544.091
543.98
543.869
543.759
543.649
543.54
543.43
543.322
543.213
543.105
542.997
542.89
542.783
542.676
542.57
542.464
542.358
542.253
542.148
542.043
541.939
541.835
541.731
541.628
541.524
541.421
541.318
541.215
541.113
541.01
540.908
540.806
540.703
540.601
552.47
552.31
552.151
551.992
551.834
551.676
551.519
551.362
551.206
551.051
550.897
550.745
550.596
550.449
550.306
550.168
550.034
549.905
549.783
549.668
549.56
549.461
549.371
549.291
549.219
549.155
549.098
549.047
549
548.956
548.915
548.875
548.834
548.791
548.747
548.702
548.654
548.604
548.552
548.499
548.444
548.386
548.325
548.26
548.189
548.112
548.028
547.939
547.846
547.751
547.653
547.555
547.458
547.363
547.268
547.176
547.086
546.997
546.91
546.825
546.74
546.656
546.572
546.487
546.402
546.315
546.226
546.136
546.043
545.947
545.849
545.748
545.644
545.538
545.431
545.322
545.213
545.103
544.991
544.879
544.765
544.65
544.537
544.424
544.311
544.2
544.089
543.978
543.867
543.757
543.647
543.538
543.429
543.32
543.212
543.104
542.996
542.889
542.782
542.675
542.569
542.463
542.357
542.252
542.147
542.043
541.938
541.834
541.731
541.627
541.524
541.421
541.318
541.215
541.113
541.01
540.908
540.805
540.703
540.601
552.468
552.306
552.143
551.982
551.822
551.663
551.504
551.346
551.188
551.032
550.878
550.725
550.576
550.43
550.289
550.152
550.02
549.894
549.776
549.665
549.562
549.469
549.385
549.31
549.244
549.186
549.134
549.088
549.045
549.006
548.97
548.933
548.896
548.857
548.816
548.772
548.727
548.679
548.629
548.577
548.524
548.469
548.41
548.345
548.275
548.196
548.109
548.017
547.92
547.82
547.719
547.617
547.517
547.419
547.322
547.228
547.137
547.047
546.959
546.873
546.787
546.702
546.617
546.53
546.443
546.354
546.264
546.171
546.075
545.976
545.873
545.768
545.66
545.549
545.437
545.324
545.211
545.098
544.985
544.872
544.759
544.645
544.531
544.419
544.307
544.196
544.086
543.975
543.865
543.755
543.646
543.536
543.427
543.318
543.21
543.102
542.994
542.887
542.78
542.674
542.567
542.462
542.356
542.251
542.146
542.042
541.937
541.833
541.73
541.626
541.523
541.42
541.317
541.215
541.112
541.01
540.908
540.805
540.703
540.601
552.467
552.302
552.137
551.973
551.811
551.649
551.488
551.328
551.169
551.012
550.857
550.705
550.556
550.411
550.271
550.137
550.008
549.886
549.771
549.665
549.568
549.481
549.403
549.335
549.275
549.223
549.176
549.135
549.097
549.063
549.03
548.998
548.964
548.929
548.891
548.85
548.807
548.761
548.713
548.663
548.612
548.558
548.501
548.438
548.367
548.286
548.197
548.1
547.999
547.895
547.789
547.684
547.581
547.48
547.382
547.286
547.194
547.104
547.015
546.928
546.842
546.756
546.669
546.582
546.493
546.402
546.309
546.214
546.114
546.012
545.906
545.796
545.684
545.568
545.451
545.334
545.216
545.099
544.983
544.868
544.754
544.639
544.526
544.414
544.303
544.193
544.083
543.973
543.863
543.753
543.644
543.534
543.425
543.317
543.208
543.1
542.993
542.885
542.779
542.672
542.566
542.46
542.355
542.25
542.145
542.041
541.936
541.833
541.729
541.626
541.523
541.42
541.317
541.214
541.112
541.01
540.907
540.805
540.703
540.601
552.466
552.298
552.131
551.964
551.799
551.635
551.472
551.31
551.15
550.991
550.836
550.684
550.537
550.394
550.256
550.124
549.999
549.881
549.771
549.671
549.58
549.499
549.428
549.366
549.312
549.265
549.223
549.186
549.154
549.124
549.096
549.067
549.037
549.005
548.971
548.933
548.893
548.848
548.802
548.753
548.703
548.65
548.595
548.534
548.462
548.378
548.286
548.185
548.08
547.972
547.862
547.753
547.647
547.544
547.445
547.349
547.256
547.166
547.077
546.99
546.903
546.817
546.73
546.641
546.551
546.459
546.364
546.266
546.163
546.058
545.948
545.834
545.717
545.597
545.476
545.353
545.231
545.109
544.989
544.87
544.752
544.634
544.519
544.408
544.298
544.189
544.08
543.97
543.861
543.751
543.642
543.532
543.423
543.315
543.206
543.098
542.991
542.883
542.777
542.67
542.564
542.459
542.353
542.248
542.144
542.039
541.935
541.832
541.728
541.625
541.522
541.419
541.316
541.214
541.111
541.009
540.907
540.805
540.703
540.601
552.465
552.294
552.124
551.955
551.787
551.62
551.455
551.291
551.129
550.971
550.816
550.665
550.519
550.378
550.243
550.115
549.994
549.881
549.776
549.682
549.598
549.523
549.458
549.402
549.353
549.311
549.275
549.243
549.215
549.189
549.164
549.14
549.113
549.085
549.053
549.018
548.981
548.937
548.892
548.845
548.794
548.743
548.689
548.627
548.552
548.466
548.37
548.266
548.157
548.046
547.933
547.822
547.714
547.61
547.511
547.415
547.322
547.232
547.144
547.057
546.97
546.884
546.797
546.708
546.617
546.524
546.427
546.326
546.221
546.112
545.999
545.881
545.76
545.636
545.51
545.383
545.256
545.129
545.003
544.877
544.751
544.626
544.511
544.401
544.293
544.186
544.077
543.969
543.859
543.75
543.64
543.53
543.421
543.312
543.204
543.096
542.988
542.881
542.774
542.668
542.562
542.457
542.352
542.247
542.142
542.038
541.934
541.83
541.727
541.624
541.521
541.418
541.316
541.213
541.111
541.009
540.907
540.805
540.703
540.601
552.463
552.29
552.117
551.945
551.773
551.604
551.436
551.271
551.109
550.951
550.797
550.648
550.504
550.366
550.234
550.109
549.993
549.886
549.788
549.7
549.621
549.553
549.494
549.443
549.4
549.363
549.331
549.303
549.279
549.257
549.236
549.215
549.191
549.166
549.137
549.104
549.068
549.026
548.982
548.934
548.884
548.832
548.778
548.713
548.635
548.546
548.446
548.34
548.228
548.115
548.001
547.889
547.781
547.677
547.578
547.483
547.391
547.301
547.214
547.128
547.043
546.957
546.87
546.782
546.69
546.596
546.498
546.395
546.288
546.175
546.057
545.935
545.81
545.681
545.551
545.42
545.288
545.157
545.024
544.89
544.752
544.612
544.497
544.392
544.288
544.183
544.076
543.968
543.858
543.748
543.638
543.528
543.419
543.31
543.201
543.093
542.986
542.879
542.772
542.666
542.56
542.455
542.35
542.245
542.14
542.036
541.933
541.829
541.726
541.623
541.52
541.417
541.315
541.213
541.11
541.008
540.906
540.805
540.703
540.601
552.461
552.285
552.109
551.933
551.759
551.587
551.418
551.252
551.091
550.933
550.781
550.633
550.492
550.357
550.23
550.11
549.999
549.897
549.805
549.724
549.652
549.59
549.536
549.49
549.451
549.419
549.391
549.368
549.348
549.329
549.31
549.291
549.27
549.247
549.22
549.188
549.154
549.113
549.069
549.021
548.97
548.916
548.859
548.791
548.71
548.617
548.515
548.406
548.293
548.179
548.065
547.953
547.846
547.744
547.646
547.552
547.462
547.374
547.288
547.203
547.119
547.035
546.949
546.861
546.77
546.675
546.576
546.471
546.361
546.245
546.123
545.997
545.867
545.733
545.598
545.462
545.325
545.188
545.05
544.907
544.755
544.574
544.476
544.384
544.286
544.183
544.076
543.968
543.858
543.747
543.637
543.526
543.417
543.307
543.199
543.091
542.983
542.876
542.769
542.663
542.558
542.452
542.347
542.243
542.139
542.035
541.931
541.828
541.725
541.622
541.519
541.416
541.314
541.212
541.11
541.008
540.906
540.804
540.703
540.601
552.459
552.279
552.1
551.922
551.745
551.572
551.402
551.236
551.075
550.919
550.769
550.624
550.486
550.354
550.231
550.116
550.011
549.915
549.83
549.755
549.689
549.632
549.584
549.542
549.508
549.479
549.456
549.436
549.419
549.402
549.385
549.369
549.348
549.326
549.3
549.27
549.236
549.197
549.153
549.104
549.051
548.994
548.934
548.862
548.776
548.68
548.576
548.466
548.352
548.238
548.125
548.015
547.91
547.809
547.714
547.622
547.534
547.448
547.364
547.281
547.199
547.116
547.031
546.944
546.854
546.759
546.66
546.553
546.44
546.321
546.195
546.064
545.928
545.79
545.649
545.508
545.365
545.221
545.077
544.932
544.784
544.457
544.454
544.383
544.289
544.187
544.079
543.969
543.858
543.747
543.635
543.524
543.414
543.305
543.196
543.087
542.98
542.873
542.766
542.66
542.555
542.45
542.345
542.241
542.137
542.033
541.929
541.826
541.723
541.62
541.518
541.415
541.313
541.211
541.109
541.007
540.906
540.804
540.702
540.601
552.458
552.273
552.091
551.911
551.733
551.559
551.389
551.224
551.064
550.91
550.762
550.62
550.486
550.358
550.24
550.131
550.031
549.942
549.862
549.793
549.733
549.681
549.637
549.6
549.569
549.545
549.524
549.507
549.492
549.477
549.461
549.445
549.426
549.404
549.378
549.349
549.315
549.276
549.232
549.182
549.127
549.067
549.002
548.926
548.837
548.738
548.632
548.521
548.408
548.294
548.183
548.075
547.972
547.875
547.782
547.693
547.608
547.524
547.443
547.362
547.281
547.2
547.117
547.031
546.942
546.847
546.746
546.638
546.522
546.398
546.268
546.133
545.993
545.849
545.703
545.556
545.407
545.258
545.108
544.955
544.794
544.609
544.505
544.406
544.303
544.195
544.084
543.972
543.859
543.747
543.634
543.522
543.412
543.302
543.192
543.084
542.976
542.869
542.763
542.657
542.552
542.447
542.342
542.238
542.134
542.031
541.927
541.824
541.722
541.619
541.517
541.414
541.312
541.21
541.109
541.007
540.905
540.804
540.702
540.601
552.456
552.269
552.085
551.903
551.724
551.55
551.381
551.217
551.06
550.908
550.763
550.624
550.493
550.371
550.257
550.154
550.06
549.976
549.903
549.838
549.783
549.736
549.696
549.663
549.636
549.615
549.597
549.581
549.567
549.553
549.538
549.522
549.502
549.48
549.455
549.425
549.391
549.353
549.308
549.258
549.2
549.137
549.068
548.987
548.895
548.793
548.686
548.574
548.46
548.348
548.238
548.133
548.033
547.94
547.85
547.765
547.682
547.601
547.522
547.443
547.364
547.285
547.203
547.119
547.029
546.934
546.831
546.72
546.601
546.474
546.339
546.199
546.054
545.906
545.756
545.604
545.452
545.299
545.145
544.99
544.835
544.682
544.553
544.436
544.321
544.206
544.091
543.976
543.861
543.746
543.633
543.52
543.409
543.298
543.189
543.08
542.972
542.866
542.759
542.654
542.548
542.444
542.339
542.236
542.132
542.029
541.925
541.823
541.72
541.618
541.515
541.413
541.311
541.21
541.108
541.006
540.905
540.803
540.702
540.601
552.455
552.267
552.081
551.899
551.72
551.547
551.379
551.217
551.061
550.912
550.771
550.636
550.51
550.392
550.284
550.185
550.097
550.019
549.951
549.892
549.841
549.798
549.762
549.733
549.709
549.69
549.673
549.659
549.645
549.631
549.616
549.6
549.58
549.558
549.533
549.504
549.47
549.432
549.388
549.337
549.277
549.211
549.137
549.052
548.955
548.85
548.74
548.627
548.513
548.402
548.294
548.192
548.097
548.006
547.92
547.836
547.756
547.677
547.6
547.523
547.445
547.367
547.287
547.202
547.112
547.014
546.908
546.794
546.67
546.539
546.4
546.256
546.107
545.954
545.801
545.646
545.491
545.337
545.183
545.029
544.876
544.727
544.589
544.46
544.337
544.216
544.096
543.978
543.861
543.745
543.63
543.517
543.405
543.294
543.184
543.076
542.968
542.861
542.755
542.65
542.545
542.44
542.336
542.233
542.129
542.026
541.923
541.821
541.718
541.616
541.514
541.412
541.31
541.209
541.107
541.006
540.904
540.803
540.702
540.601
552.455
552.266
552.08
551.898
551.72
551.548
551.382
551.223
551.07
550.925
550.787
550.657
550.535
550.423
550.32
550.227
550.144
550.071
550.008
549.953
549.906
549.867
549.835
549.809
549.788
549.77
549.755
549.741
549.728
549.714
549.699
549.682
549.663
549.641
549.617
549.589
549.557
549.52
549.478
549.427
549.366
549.296
549.218
549.128
549.026
548.916
548.802
548.686
548.571
548.461
548.356
548.256
548.163
548.075
547.991
547.909
547.83
547.753
547.676
547.6
547.523
547.445
547.364
547.278
547.184
547.083
546.972
546.852
546.724
546.587
546.444
546.295
546.142
545.986
545.83
545.673
545.517
545.362
545.207
545.053
544.901
544.752
544.61
544.475
544.347
544.221
544.099
543.978
543.86
543.743
543.627
543.513
543.4
543.289
543.18
543.071
542.963
542.857
542.751
542.646
542.541
542.437
542.333
542.23
542.127
542.024
541.921
541.819
541.717
541.615
541.513
541.411
541.309
541.208
541.107
541.005
540.904
540.803
540.702
540.601
552.455
552.267
552.081
551.9
551.724
551.555
551.391
551.235
551.086
550.945
550.811
550.686
550.57
550.463
550.365
550.278
550.2
550.132
550.073
550.022
549.98
549.944
549.916
549.893
549.874
549.858
549.844
549.83
549.817
549.804
549.789
549.774
549.756
549.736
549.714
549.688
549.659
549.627
549.588
549.54
549.479
549.405
549.321
549.225
549.115
548.998
548.878
548.758
548.642
548.531
548.427
548.329
548.238
548.15
548.066
547.985
547.905
547.827
547.75
547.673
547.595
547.515
547.43
547.339
547.24
547.132
547.014
546.887
546.752
546.609
546.46
546.307
546.15
545.993
545.835
545.678
545.521
545.366
545.211
545.058
544.907
544.758
544.615
544.479
544.348
544.22
544.096
543.975
543.855
543.738
543.622
543.507
543.395
543.284
543.174
543.065
542.958
542.852
542.746
542.641
542.537
542.433
542.33
542.226
542.124
542.021
541.919
541.817
541.715
541.613
541.511
541.41
541.308
541.207
541.106
541.005
540.904
540.802
540.701
540.6
552.456
552.269
552.085
551.905
551.731
551.564
551.404
551.252
551.108
550.972
550.843
550.724
550.613
550.511
550.419
550.337
550.264
550.2
550.146
550.1
550.061
550.03
550.005
549.985
549.968
549.954
549.941
549.929
549.917
549.905
549.893
549.88
549.866
549.85
549.832
549.811
549.789
549.763
549.73
549.686
549.626
549.549
549.459
549.357
549.237
549.109
548.98
548.854
548.734
548.622
548.516
548.418
548.325
548.236
548.15
548.066
547.985
547.904
547.823
547.743
547.661
547.575
547.483
547.383
547.274
547.155
547.027
546.891
546.746
546.596
546.44
546.281
546.122
545.963
545.805
545.649
545.494
545.341
545.189
545.039
544.89
544.744
544.603
544.468
544.337
544.211
544.087
543.966
543.847
543.73
543.614
543.5
543.388
543.277
543.167
543.059
542.952
542.846
542.741
542.636
542.532
542.429
542.326
542.223
542.121
542.018
541.916
541.815
541.713
541.611
541.51
541.408
541.307
541.206
541.105
541.004
540.903
540.802
540.701
540.6
552.457
552.271
552.088
551.91
551.738
551.575
551.419
551.272
551.133
551.002
550.88
550.766
550.661
550.565
550.479
550.402
550.334
550.276
550.226
550.184
550.15
550.123
550.101
550.084
550.071
550.06
550.049
550.04
550.031
550.023
550.016
550.008
550
549.991
549.98
549.969
549.956
549.94
549.916
549.88
549.822
549.741
549.644
549.535
549.404
549.261
549.12
548.986
548.86
548.743
548.634
548.532
548.436
548.342
548.251
548.161
548.073
547.986
547.899
547.811
547.72
547.623
547.519
547.405
547.281
547.148
547.005
546.855
546.698
546.538
546.374
546.211
546.048
545.889
545.732
545.578
545.428
545.28
545.134
544.99
544.848
544.708
544.572
544.441
544.314
544.191
544.07
543.951
543.834
543.718
543.604
543.491
543.379
543.269
543.16
543.052
542.946
542.84
542.735
542.631
542.528
542.425
542.322
542.22
542.118
542.016
541.914
541.812
541.711
541.61
541.508
541.407
541.306
541.205
541.104
541.003
540.903
540.802
540.701
540.6
552.456
552.27
552.087
551.911
551.742
551.582
551.431
551.289
551.156
551.031
550.915
550.808
550.709
550.62
550.539
550.468
550.406
550.353
550.309
550.272
550.243
550.22
550.204
550.191
550.182
550.176
550.17
550.166
550.164
550.163
550.163
550.165
550.167
550.168
550.17
550.171
550.172
550.168
550.157
550.131
550.077
549.991
549.888
549.774
549.631
549.47
549.314
549.168
549.033
548.91
548.795
548.687
548.583
548.481
548.38
548.281
548.182
548.084
547.984
547.882
547.775
547.661
547.537
547.403
547.259
547.105
546.944
546.777
546.605
546.432
546.26
546.09
545.925
545.765
545.611
545.463
545.319
545.179
545.042
544.909
544.778
544.648
544.52
544.397
544.277
544.159
544.044
543.929
543.815
543.702
543.59
543.479
543.368
543.259
543.151
543.044
542.938
542.833
542.729
542.626
542.523
542.42
542.318
542.216
542.114
542.013
541.911
541.81
541.709
541.608
541.507
541.406
541.305
541.204
541.103
541.003
540.902
540.801
540.701
540.6
552.454
552.264
552.079
551.902
551.734
551.577
551.43
551.293
551.166
551.049
550.94
550.84
550.748
550.666
550.592
550.527
550.472
550.425
550.387
550.357
550.334
550.318
550.308
550.302
550.3
550.301
550.303
550.308
550.316
550.327
550.34
550.355
550.372
550.389
550.407
550.425
550.442
550.455
550.46
550.448
550.396
550.306
550.199
550.085
549.933
549.75
549.575
549.415
549.271
549.139
549.017
548.9
548.786
548.671
548.555
548.44
548.324
548.208
548.089
547.964
547.832
547.691
547.54
547.378
547.208
547.03
546.846
546.659
546.471
546.285
546.103
545.926
545.757
545.598
545.447
545.305
545.169
545.039
544.915
544.795
544.679
544.565
544.449
544.337
544.226
544.117
544.008
543.9
543.791
543.682
543.573
543.464
543.356
543.248
543.141
543.035
542.931
542.826
542.723
542.62
542.518
542.416
542.314
542.213
542.111
542.01
541.909
541.808
541.707
541.606
541.505
541.405
541.304
541.203
541.103
541.002
540.902
540.801
540.701
540.6
552.45
552.251
552.059
551.877
551.706
551.549
551.405
551.272
551.151
551.039
550.938
550.845
550.762
550.688
550.623
550.566
550.519
550.48
550.451
550.429
550.415
550.408
550.408
550.412
550.42
550.432
550.447
550.466
550.489
550.516
550.547
550.582
550.619
550.657
550.695
550.732
550.768
550.8
550.824
550.828
550.776
550.681
550.579
550.478
550.322
550.109
549.913
549.738
549.584
549.446
549.317
549.192
549.064
548.932
548.795
548.656
548.517
548.376
548.227
548.07
547.902
547.724
547.534
547.336
547.134
546.93
546.726
546.52
546.315
546.117
545.926
545.742
545.568
545.406
545.256
545.118
544.99
544.871
544.76
544.656
544.559
544.464
544.365
544.265
544.165
544.066
543.966
543.864
543.762
543.658
543.553
543.447
543.341
543.235
543.13
543.026
542.922
542.819
542.716
542.614
542.513
542.411
542.31
542.209
542.108
542.007
541.906
541.806
541.705
541.605
541.504
541.403
541.303
541.202
541.102
541.002
540.901
540.801
540.701
540.6
552.441
552.226
552.019
551.824
551.645
551.483
551.337
551.207
551.09
550.985
550.891
550.807
550.732
550.667
550.611
550.564
550.528
550.501
550.483
550.473
550.472
550.478
550.491
550.51
550.534
550.563
550.597
550.635
550.679
550.728
550.782
550.841
550.903
550.966
551.028
551.086
551.139
551.189
551.234
551.255
551.202
551.105
551.018
550.944
550.789
550.544
550.326
550.14
549.978
549.838
549.705
549.575
549.433
549.279
549.112
548.943
548.776
548.604
548.418
548.221
548.007
547.776
547.53
547.285
547.05
546.828
546.614
546.396
546.179
545.975
545.776
545.586
545.401
545.229
545.072
544.933
544.807
544.693
544.594
544.508
544.43
544.356
544.279
544.19
544.099
544.008
543.917
543.824
543.728
543.63
543.53
543.428
543.325
543.222
543.118
543.016
542.913
542.811
542.71
542.608
542.507
542.407
542.306
542.205
542.105
542.005
541.904
541.804
541.703
541.603
541.503
541.402
541.302
541.202
541.101
541.001
540.901
540.801
540.7
540.6
552.425
552.179
551.945
551.727
551.53
551.356
551.205
551.073
550.958
550.858
550.771
550.696
550.631
550.577
550.533
550.5
550.478
550.466
550.464
550.471
550.488
550.514
550.547
550.586
550.632
550.684
550.741
550.805
550.874
550.95
551.032
551.121
551.213
551.303
551.389
551.465
551.53
551.592
551.655
551.688
551.637
551.55
551.485
551.444
551.299
551.027
550.797
550.602
550.436
550.3
550.168
550.043
549.889
549.707
549.502
549.304
549.114
548.914
548.687
548.455
548.189
547.885
547.548
547.239
546.979
546.761
546.571
546.358
546.128
545.933
545.726
545.537
545.331
545.132
544.952
544.791
544.654
544.537
544.449
544.39
544.328
544.266
544.217
544.122
544.032
543.949
543.866
543.781
543.692
543.6
543.504
543.407
543.307
543.207
543.106
543.005
542.904
542.803
542.703
542.602
542.502
542.402
542.302
542.202
542.102
542.002
541.902
541.802
541.702
541.601
541.501
541.401
541.301
541.201
541.101
541.001
540.9
540.8
540.7
540.6
552.399
552.102
551.822
551.566
551.339
551.144
550.979
550.841
550.725
550.628
550.547
550.48
550.427
550.386
550.358
550.343
550.342
550.352
550.373
550.405
550.448
550.499
550.559
550.626
550.699
550.779
550.865
550.958
551.057
551.163
551.276
551.397
551.521
551.636
551.741
551.829
551.9
551.966
552.033
552.065
552.018
551.961
551.915
551.898
551.777
551.483
551.276
551.068
550.899
550.777
550.649
550.562
550.405
550.193
549.954
549.747
549.55
549.338
549.064
548.837
548.514
548.116
547.601
547.211
546.937
546.76
546.702
546.515
546.234
546.101
545.856
545.721
545.468
545.212
544.984
544.75
544.58
544.455
544.379
544.386
544.329
544.224
544.23
544.064
543.968
543.889
543.814
543.736
543.654
543.568
543.478
543.385
543.289
543.191
543.093
542.994
542.895
542.795
542.696
542.597
542.497
542.398
542.298
542.199
542.099
542
541.9
541.8
541.7
541.6
541.5
541.4
541.3
541.2
541.1
541
540.9
540.8
540.7
540.6
552.359
551.986
551.637
551.323
551.049
550.82
550.633
550.482
550.36
550.264
550.188
550.129
550.088
550.065
550.059
550.07
550.098
550.139
550.194
550.26
550.336
550.422
550.515
550.615
550.72
550.831
550.947
551.069
551.198
551.336
551.483
551.635
551.782
551.91
552.02
552.11
552.183
552.24
552.286
552.297
552.251
552.24
552.169
552.189
552.147
552.013
551.885
551.655
551.464
551.214
551.048
550.998
550.908
550.711
550.445
550.231
550.008
549.774
549.472
549.205
548.738
548.352
547.792
547.303
547.031
546.893
546.955
546.754
546.481
546.357
546.044
545.796
545.508
545.323
545.085
544.737
544.634
544.577
544.488
544.766
544.67
544.29
544.162
543.963
543.899
543.832
543.764
543.692
543.617
543.536
543.451
543.362
543.27
543.176
543.08
542.983
542.886
542.788
542.69
542.591
542.493
542.394
542.295
542.196
542.097
541.997
541.898
541.798
541.699
541.599
541.499
541.399
541.299
541.2
541.1
541
540.9
540.8
540.7
540.6
552.302
551.819
551.37
550.973
550.637
550.363
550.145
549.974
549.843
549.743
549.671
549.623
549.598
549.598
549.624
549.672
549.741
549.825
549.922
550.031
550.15
550.277
550.41
550.546
550.682
550.818
550.957
551.101
551.255
551.427
551.613
551.79
551.939
552.042
552.129
552.207
552.281
552.305
552.306
552.286
552.312
552.361
552.428
552.359
552.35
552.322
552.318
552.198
551.944
551.59
551.388
551.323
551.299
551.204
550.979
550.765
550.481
550.176
549.878
549.609
548.898
548.61
548.115
547.695
547.442
547.304
547.393
547.127
546.93
546.666
545.983
545.718
545.406
545.397
545.115
544.804
544.598
544.539
544.448
544.432
544.304
544.231
544.107
543.937
543.85
543.786
543.717
543.65
543.58
543.505
543.424
543.34
543.251
543.16
543.067
542.973
542.877
542.781
542.684
542.586
542.488
542.39
542.292
542.193
542.094
541.995
541.896
541.797
541.697
541.598
541.498
541.398
541.299
541.199
541.099
540.999
540.899
540.8
540.7
540.6
552.221
551.585
551.002
550.498
550.083
549.758
549.508
549.319
549.176
549.072
549.006
548.972
548.972
549.004
549.073
549.171
549.291
549.425
549.573
549.732
549.902
550.078
550.253
550.423
550.58
550.726
550.864
551.005
551.169
551.382
551.629
551.823
551.935
551.934
551.946
551.968
552.057
552.127
552.186
552.168
552.272
552.408
552.483
552.345
552.232
552.249
552.347
552.361
552.123
551.764
551.592
551.5
551.496
551.539
551.381
551.244
550.904
550.468
550.192
549.957
549.266
549.125
548.629
548.451
547.98
547.973
547.916
547.364
547.093
546.548
546.158
545.799
545.437
545.194
544.801
544.523
544.383
544.314
544.253
544.221
544.189
544.164
544.087
543.931
543.822
543.733
543.67
543.608
543.544
543.475
543.399
543.318
543.234
543.146
543.056
542.964
542.87
542.775
542.679
542.582
542.485
542.387
542.289
542.191
542.093
541.994
541.895
541.796
541.696
541.597
541.497
541.398
541.298
541.199
541.099
540.999
540.899
540.799
540.7
540.6
552.111
551.271
550.519
549.886
549.387
549.018
548.755
548.561
548.414
548.312
548.257
548.245
548.273
548.349
548.474
548.632
548.805
548.991
549.188
549.405
549.636
549.86
550.069
550.262
550.413
550.536
550.62
550.711
550.867
551.149
551.512
551.674
551.696
551.589
551.502
551.465
551.538
551.668
551.84
551.867
551.888
552.006
552.091
551.999
551.829
551.828
552.031
552.1
551.983
551.799
551.638
551.474
551.446
551.61
551.461
551.324
550.929
550.612
550.694
550.221
549.735
549.357
549.087
548.853
548.234
547.958
547.703
547.203
546.82
546.277
545.796
545.396
545.039
544.765
544.487
544.305
544.204
544.147
544.126
544.109
544.122
544.092
543.995
543.811
543.764
543.693
543.622
543.567
543.511
543.447
543.374
543.297
543.217
543.133
543.046
542.956
542.864
542.77
542.675
542.579
542.482
542.385
542.287
542.189
542.091
541.993
541.894
541.795
541.696
541.596
541.497
541.397
541.298
541.198
541.099
540.999
540.899
540.799
540.7
540.6
551.962
550.878
549.931
549.153
548.579
548.202
547.977
547.831
547.713
547.619
547.565
547.57
547.631
547.776
547.987
548.213
548.416
548.629
548.858
549.15
549.456
549.667
549.846
550.044
550.127
550.183
550.146
550.161
550.319
550.733
551.08
551.176
551.166
551.012
550.973
550.919
550.901
551.048
551.253
551.486
551.39
551.265
551.215
551.408
551.42
551.266
551.42
551.618
551.776
552.045
551.914
551.503
551.402
551.511
551.052
550.972
550.753
550.532
550.276
549.86
549.378
548.98
548.677
548.31
547.828
547.467
547.117
546.672
546.242
545.762
545.338
544.955
544.645
544.413
544.211
544.085
544.018
543.999
543.986
544.015
544.034
544.012
543.956
543.815
543.72
543.649
543.592
543.527
543.48
543.424
543.352
543.277
543.203
543.123
543.038
542.95
542.859
542.766
542.672
542.576
542.48
542.383
542.286
542.188
542.09
541.992
541.893
541.794
541.695
541.596
541.496
541.397
541.298
541.198
541.098
540.999
540.899
540.799
540.7
540.6
551.756
550.42
549.281
548.348
547.727
547.413
547.336
547.346