/*--------------------------------*- C++ -*----------------------------------*\
  =========                 |
  \\      /  F ield         | OpenFOAM: The Open Source CFD Toolbox
   \\    /   O peration     | Website:  https://openfoam.org
    \\  /    A nd           | Version:  6
     \\/     M anipulation  |
\*---------------------------------------------------------------------------*/
FoamFile
{
    version     2.0;
    format      ascii;
    class       volScalarField;
    location    "4000";
    object      dmdt;
}
// * * * * * * * * * * * * * * * * * * * * * * * * * * * * * * * * * * * * * //

dimensions      [0 0 0 0 0 0 0];

internalField   nonuniform List<scalar> 
4800
(
-0.21883
-0.215352
-0.21198
-0.20874
-0.205632
-0.202658
-0.199832
-0.197166
-0.19466
-0.192319
-0.190125
-0.188032
-0.186099
-0.184323
-0.182676
-0.181126
-0.179653
-0.178254
-0.176928
-0.175667
-0.17446
-0.173304
-0.172195
-0.171133
-0.170121
-0.169163
-0.16826
-0.167408
-0.166599
-0.165826
-0.165084
-0.164373
-0.163692
-0.163041
-0.16242
-0.16183
-0.161268
-0.160731
-0.160217
-0.159723
-0.159248
-0.158792
-0.158352
-0.157929
-0.157522
-0.15713
-0.156749
-0.156377
-0.156012
-0.155649
-0.155283
-0.154908
-0.154517
-0.154098
-0.15364
-0.153125
-0.152533
-0.151839
-0.151011
-0.150013
-0.148796
-0.147301
-0.145461
-0.143201
-0.140437
-0.137082
-0.133065
-0.128337
-0.122877
-0.116709
-0.109906
-0.102617
-0.0950654
-0.0874411
-0.0798844
-0.0725014
-0.0653769
-0.0585541
-0.0520332
-0.0457919
-0.0397946
-0.0339961
-0.0283689
-0.0229125
-0.017647
-0.0126379
-0.0079143
-0.00342608
0.000864932
0.00499032
0.00897686
0.0128473
0.0166211
0.0203146
0.0239416
0.0275139
0.0310412
0.0345315
0.0379918
0.0414275
0.0448434
0.0482432
0.0516302
0.055007
0.0583757
0.0617382
0.0650958
0.0684498
0.0718012
0.0751506
0.0784988
0.0818461
0.085193
0.0885397
0.0918864
0.0952332
0.0985801
0.101927
0.105274
0.108622
-0.218818
-0.215308
-0.211888
-0.208579
-0.2054
-0.202357
-0.199456
-0.196712
-0.194144
-0.191737
-0.189545
-0.187424
-0.185445
-0.183637
-0.181981
-0.180437
-0.17897
-0.177584
-0.176274
-0.175032
-0.173846
-0.172708
-0.171615
-0.170571
-0.169577
-0.168634
-0.167749
-0.166916
-0.166127
-0.165374
-0.164652
-0.163958
-0.163292
-0.162656
-0.162049
-0.161475
-0.160927
-0.160403
-0.159901
-0.159419
-0.158955
-0.158509
-0.15808
-0.157667
-0.15727
-0.156886
-0.156513
-0.156149
-0.15579
-0.155432
-0.15507
-0.154698
-0.154308
-0.153889
-0.153429
-0.152911
-0.152314
-0.151614
-0.150776
-0.149766
-0.148534
-0.147022
-0.145163
-0.142883
-0.140102
-0.136732
-0.13271
-0.127981
-0.122526
-0.116398
-0.109644
-0.10237
-0.0947837
-0.0870998
-0.0794928
-0.0720818
-0.0649429
-0.0581127
-0.0515949
-0.0453718
-0.0394092
-0.0336598
-0.0280837
-0.0226763
-0.0174628
-0.0124912
-0.00779376
-0.00332557
0.000949268
0.00506117
0.0090363
0.0128971
0.0166627
0.0203494
0.0239707
0.0275383
0.0310617
0.0345489
0.0380065
0.0414402
0.0448543
0.0482527
0.0516385
0.0550143
0.0583821
0.0617439
0.0651009
0.0684543
0.0718052
0.0751541
0.0785019
0.0818489
0.0851954
0.0885417
0.0918881
0.0952346
0.0985812
0.101928
0.105275
0.108622
-0.218779
-0.215185
-0.211658
-0.208219
-0.204901
-0.201726
-0.198696
-0.195822
-0.193132
-0.190607
-0.188376
-0.18622
-0.184187
-0.182334
-0.180662
-0.179122
-0.177665
-0.1763
-0.175027
-0.17382
-0.172669
-0.171566
-0.170504
-0.169493
-0.168535
-0.167621
-0.166767
-0.165972
-0.16522
-0.164505
-0.163818
-0.163156
-0.16252
-0.161911
-0.161329
-0.160783
-0.160264
-0.159767
-0.15929
-0.158831
-0.158389
-0.157963
-0.157552
-0.157157
-0.156778
-0.15641
-0.156053
-0.155703
-0.155356
-0.155009
-0.154655
-0.154288
-0.1539
-0.15348
-0.153018
-0.152492
-0.151884
-0.151167
-0.150307
-0.149272
-0.14801
-0.146462
-0.144568
-0.142251
-0.139435
-0.136037
-0.131986
-0.127248
-0.1218
-0.115678
-0.108941
-0.101692
-0.0941078
-0.0864
-0.0787623
-0.0713229
-0.0641601
-0.0573195
-0.0508168
-0.0446313
-0.0387249
-0.0330491
-0.027564
-0.0222495
-0.0171197
-0.0122089
-0.00755868
-0.00312826
0.00111533
0.00520082
0.00915349
0.0129952
0.0167447
0.0204178
0.0240279
0.0275862
0.031102
0.034583
0.0380356
0.0414651
0.0448758
0.0482714
0.0516549
0.0550287
0.0583949
0.0617552
0.0651109
0.0684633
0.0718131
0.0751612
0.0785081
0.0818543
0.0852001
0.0885457
0.0918914
0.0952373
0.0985833
0.101929
0.105276
0.108622
-0.218726
-0.21501
-0.211333
-0.20772
-0.204208
-0.200838
-0.197624
-0.194577
-0.191719
-0.189038
-0.186686
-0.184477
-0.182387
-0.18049
-0.178803
-0.177264
-0.175816
-0.174468
-0.173243
-0.172088
-0.170991
-0.169938
-0.168914
-0.167952
-0.167042
-0.166177
-0.165375
-0.164633
-0.163933
-0.163269
-0.16263
-0.162013
-0.161417
-0.160847
-0.160304
-0.159796
-0.159315
-0.158856
-0.158414
-0.157988
-0.157576
-0.157178
-0.156793
-0.156423
-0.156067
-0.155723
-0.155386
-0.155054
-0.154725
-0.154392
-0.154049
-0.153688
-0.153303
-0.152882
-0.152414
-0.151879
-0.151256
-0.150517
-0.149626
-0.148552
-0.147244
-0.145643
-0.143691
-0.141323
-0.138463
-0.135029
-0.130953
-0.126203
-0.120753
-0.114633
-0.107909
-0.100693
-0.0931426
-0.0854494
-0.0777936
-0.0703181
-0.063126
-0.0562796
-0.049799
-0.0436583
-0.0378236
-0.032241
-0.0268601
-0.0216524
-0.0166278
-0.0118024
-0.00721682
-0.0028393
0.00135939
0.00540629
0.0093258
0.0131392
0.0168648
0.020518
0.0241116
0.0276564
0.0311611
0.034633
0.0380782
0.0415017
0.0449075
0.048299
0.0516791
0.05505
0.0584138
0.061772
0.0651259
0.0684766
0.0718249
0.0751717
0.0785173
0.0818624
0.0852071
0.0885517
0.0918964
0.0952413
0.0985864
0.101932
0.105277
0.108623
-0.218661
-0.214794
-0.210938
-0.20713
-0.203403
-0.199803
-0.196356
-0.193091
-0.190022
-0.187161
-0.184614
-0.182306
-0.18016
-0.178222
-0.17651
-0.174963
-0.173527
-0.172202
-0.171015
-0.169916
-0.16888
-0.16789
-0.166916
-0.166022
-0.165173
-0.16437
-0.163629
-0.162949
-0.162317
-0.161716
-0.161136
-0.160573
-0.160029
-0.159507
-0.159012
-0.15855
-0.158114
-0.157698
-0.157299
-0.156914
-0.15654
-0.156176
-0.155823
-0.155483
-0.155156
-0.154839
-0.154526
-0.154216
-0.153909
-0.153592
-0.15326
-0.152907
-0.152524
-0.152102
-0.151623
-0.151072
-0.150428
-0.149657
-0.148732
-0.14761
-0.146245
-0.144585
-0.142566
-0.140125
-0.137195
-0.133698
-0.12958
-0.124811
-0.11937
-0.113287
-0.106629
-0.0994968
-0.0920006
-0.0843095
-0.0766313
-0.0691366
-0.0619357
-0.0550904
-0.048629
-0.042533
-0.0367715
-0.0312937
-0.0260329
-0.0209483
-0.0160306
-0.0112895
-0.00677746
-0.00246469
0.00167678
0.00567345
0.00954942
0.0133257
0.01702
0.0206471
0.0242193
0.0277466
0.031237
0.0346974
0.0381332
0.041549
0.0449485
0.0483349
0.0517106
0.0550779
0.0584385
0.061794
0.0651455
0.0684941
0.0718405
0.0751855
0.0785295
0.0818731
0.0852163
0.0885596
0.091903
0.0952466
0.0985905
0.101935
0.105279
0.108623
-0.218586
-0.214554
-0.21051
-0.2065
-0.202553
-0.198715
-0.195017
-0.191503
-0.188201
-0.185141
-0.182364
-0.179881
-0.177647
-0.175656
-0.173902
-0.172339
-0.170903
-0.169598
-0.168447
-0.1674
-0.166423
-0.165498
-0.164595
-0.16378
-0.163006
-0.162277
-0.161604
-0.160992
-0.160431
-0.159899
-0.159385
-0.158885
-0.158399
-0.157934
-0.157495
-0.157083
-0.156696
-0.156328
-0.155976
-0.155636
-0.155305
-0.154981
-0.154665
-0.154359
-0.154064
-0.153777
-0.15349
-0.153206
-0.15292
-0.152621
-0.152298
-0.151954
-0.151572
-0.151144
-0.15065
-0.150077
-0.149404
-0.148592
-0.147624
-0.146446
-0.145016
-0.143284
-0.14119
-0.138673
-0.135692
-0.132145
-0.127984
-0.123173
-0.117703
-0.111621
-0.104984
-0.0978956
-0.0904827
-0.0828922
-0.0752827
-0.0678235
-0.0606459
-0.0538238
-0.0473942
-0.0413502
-0.0356524
-0.0302611
-0.0251111
-0.0201445
-0.0153313
-0.0106768
-0.00624622
-0.00200944
0.00206255
0.00599727
0.00981937
0.0135498
0.0172058
0.0208013
0.0243478
0.0278541
0.0313276
0.0347744
0.0381991
0.0416059
0.044998
0.0483783
0.0517489
0.0551119
0.0584688
0.061821
0.0651696
0.0685156
0.0718597
0.0752025
0.0785446
0.0818862
0.0852278
0.0885694
0.0919112
0.0952532
0.0985956
0.101938
0.105281
0.108624
-0.218494
-0.214293
-0.210084
-0.205891
-0.20174
-0.197671
-0.19372
-0.189929
-0.186352
-0.183055
-0.180052
-0.177361
-0.174981
-0.172904
-0.171088
-0.169506
-0.168067
-0.166775
-0.165648
-0.164641
-0.163712
-0.162845
-0.162023
-0.161294
-0.160609
-0.159966
-0.159367
-0.15883
-0.158341
-0.15788
-0.157435
-0.157001
-0.156579
-0.156175
-0.155795
-0.155439
-0.155103
-0.154786
-0.15448
-0.154187
-0.153901
-0.15362
-0.153345
-0.153075
-0.152815
-0.15256
-0.152297
-0.152041
-0.151774
-0.151491
-0.151175
-0.150835
-0.150451
-0.150013
-0.149503
-0.148901
-0.148198
-0.147341
-0.146318
-0.145077
-0.14357
-0.141754
-0.13957
-0.136952
-0.13388
-0.130271
-0.126075
-0.121255
-0.115799
-0.109745
-0.103146
-0.096113
-0.0887764
-0.0812845
-0.0737842
-0.0664191
-0.0593115
-0.0525414
-0.0461521
-0.0401486
-0.0344998
-0.0291745
-0.0241132
-0.0192472
-0.0145301
-0.00996472
-0.0056248
-0.00147708
0.00251156
0.00637163
0.0101292
0.0138054
0.0174166
0.0209757
0.0244928
0.0279755
0.0314302
0.0348617
0.0382742
0.041671
0.045055
0.0484284
0.0517933
0.0551514
0.0585041
0.0618526
0.0651979
0.0685409
0.0718823
0.0752226
0.0785624
0.0819018
0.0852413
0.0885809
0.0919208
0.095261
0.0986016
0.101942
0.105284
0.108625
-0.218415
-0.21406
-0.209703
-0.20535
-0.201014
-0.196727
-0.192525
-0.188455
-0.184569
-0.180973
-0.177718
-0.174811
-0.172258
-0.170056
-0.168157
-0.166544
-0.165096
-0.163822
-0.162713
-0.16174
-0.160854
-0.160043
-0.159301
-0.158652
-0.158056
-0.157504
-0.156985
-0.156527
-0.156112
-0.155721
-0.155345
-0.154977
-0.15462
-0.154277
-0.153956
-0.153658
-0.153377
-0.15311
-0.152853
-0.152605
-0.152363
-0.152124
-0.151889
-0.151657
-0.151431
-0.151206
-0.150967
-0.150737
-0.150488
-0.150215
-0.149905
-0.149564
-0.149168
-0.148716
-0.148183
-0.147548
-0.146806
-0.145903
-0.144821
-0.14351
-0.14193
-0.140035
-0.137769
-0.135071
-0.131916
-0.128237
-0.123995
-0.119153
-0.113713
-0.107718
-0.101207
-0.0942639
-0.0870268
-0.0796514
-0.0722784
-0.0650279
-0.0580099
-0.0513041
-0.0449542
-0.0389766
-0.0333486
-0.0280479
-0.0230334
-0.0182453
-0.0136176
-0.009146
-0.00491073
-0.000870032
0.00301778
0.00678858
0.0104705
0.0140844
0.0176453
0.0211643
0.0246495
0.0281069
0.0315415
0.034957
0.0383566
0.0417429
0.0451182
0.0484843
0.0518431
0.0551959
0.058544
0.0618884
0.0652301
0.0685698
0.0719081
0.0752456
0.0785827
0.0819197
0.0852568
0.0885941
0.0919319
0.09527
0.0986085
0.101947
0.105287
0.108626
-0.218358
-0.213891
-0.209416
-0.204925
-0.200423
-0.195934
-0.191492
-0.187145
-0.182947
-0.179011
-0.175451
-0.172297
-0.169555
-0.167207
-0.165201
-0.163528
-0.162061
-0.160812
-0.159719
-0.158782
-0.157935
-0.157179
-0.156511
-0.155934
-0.155422
-0.154958
-0.154527
-0.154146
-0.153803
-0.153479
-0.153167
-0.152864
-0.152569
-0.152287
-0.152023
-0.15178
-0.151551
-0.151334
-0.151125
-0.150922
-0.150721
-0.150523
-0.150326
-0.150129
-0.149933
-0.149737
-0.14952
-0.149309
-0.149073
-0.148804
-0.148495
-0.148147
-0.14773
-0.147261
-0.146696
-0.146021
-0.145234
-0.144279
-0.14314
-0.141759
-0.140108
-0.138134
-0.135782
-0.133005
-0.129765
-0.126
-0.121686
-0.116814
-0.111394
-0.105467
-0.099089
-0.092321
-0.0852509
-0.0780177
-0.0707913
-0.0636931
-0.0567993
-0.0501684
-0.0438454
-0.0378625
-0.0322117
-0.0268842
-0.0218649
-0.0171209
-0.0125735
-0.00820401
-0.00409735
-0.00019113
0.00357239
0.00723679
0.0108317
0.0143764
0.0178831
0.0213599
0.0248122
0.0282439
0.0316582
0.0350576
0.0384442
0.0418199
0.0451864
0.0485452
0.0518976
0.0552449
0.0585881
0.0619282
0.0652659
0.068602
0.071937
0.0752714
0.0786055
0.0819397
0.0852741
0.088609
0.0919443
0.09528
0.0986163
0.101953
0.10529
0.108627
-0.218324
-0.213788
-0.20923
-0.204633
-0.199986
-0.195298
-0.190595
-0.185935
-0.181398
-0.177113
-0.173238
-0.169828
-0.16689
-0.164392
-0.162279
-0.160526
-0.159023
-0.157786
-0.156713
-0.155821
-0.155021
-0.154323
-0.15372
-0.15321
-0.152773
-0.15239
-0.152045
-0.151738
-0.151463
-0.151201
-0.150949
-0.150705
-0.150469
-0.150244
-0.150034
-0.14984
-0.14966
-0.149489
-0.149325
-0.149164
-0.149001
-0.14884
-0.148678
-0.148513
-0.148343
-0.14817
-0.147974
-0.147772
-0.14754
-0.147272
-0.146956
-0.146592
-0.146153
-0.145654
-0.145055
-0.144335
-0.143496
-0.142478
-0.141265
-0.139806
-0.138074
-0.136021
-0.13359
-0.130744
-0.127446
-0.123641
-0.119293
-0.114397
-0.108977
-0.103075
-0.09675
-0.090095
-0.0832331
-0.0762691
-0.0692973
-0.0624115
-0.0556846
-0.0491606
-0.0428737
-0.036864
-0.0311454
-0.025727
-0.0206239
-0.0158509
-0.0113562
-0.00710651
-0.0031747
0.000552692
0.00416024
0.00769917
0.0111972
0.0146683
0.0181196
0.0215544
0.0249747
0.0283819
0.0317769
0.035161
0.0385353
0.0419008
0.0452587
0.0486102
0.0519563
0.0552979
0.0586361
0.0619716
0.0653051
0.0686373
0.0719686
0.0752996
0.0786306
0.0819617
0.0852933
0.0886253
0.0919579
0.0952911
0.0986248
0.101959
0.105293
0.108628
-0.218318
-0.213755
-0.209137
-0.20444
-0.199643
-0.194739
-0.189754
-0.184763
-0.179873
-0.175243
-0.171057
-0.167389
-0.164255
-0.161611
-0.159404
-0.157577
-0.156048
-0.154809
-0.15376
-0.152907
-0.15216
-0.15152
-0.150977
-0.150532
-0.150163
-0.149852
-0.149583
-0.149344
-0.149128
-0.148923
-0.148725
-0.148533
-0.14835
-0.148177
-0.148017
-0.147869
-0.147733
-0.147604
-0.147479
-0.147355
-0.147227
-0.147098
-0.146965
-0.146826
-0.146679
-0.146521
-0.14634
-0.146141
-0.145906
-0.145628
-0.145299
-0.144909
-0.144442
-0.143905
-0.143263
-0.142496
-0.141605
-0.140531
-0.139252
-0.13773
-0.135923
-0.133791
-0.131295
-0.128397
-0.12506
-0.121232
-0.116881
-0.112001
-0.106612
-0.100775
-0.0945718
-0.0880962
-0.0814445
-0.0747146
-0.0679874
-0.0613231
-0.0547678
-0.0483539
-0.0421019
-0.0360472
-0.030218
-0.0246315
-0.0193278
-0.0143783
-0.0098556
-0.00579383
-0.00213533
0.00134147
0.0047535
0.00814954
0.0115455
0.0149439
0.0183427
0.0217392
0.025131
0.0285164
0.0318944
0.035265
0.0386281
0.0419842
0.0453341
0.0486786
0.0520184
0.0553544
0.0586875
0.0620182
0.0653473
0.0686754
0.0720029
0.0753303
0.0786578
0.0819856
0.085314
0.0886431
0.0919728
0.0953031
0.0986341
0.101966
0.105297
0.108629
-0.218316
-0.213737
-0.209075
-0.204275
-0.199302
-0.194154
-0.188868
-0.183542
-0.178309
-0.173347
-0.168866
-0.164958
-0.161636
-0.158856
-0.156575
-0.154702
-0.153155
-0.151906
-0.15089
-0.150074
-0.149387
-0.148804
-0.148319
-0.147932
-0.147623
-0.147377
-0.147174
-0.146993
-0.146828
-0.146672
-0.14652
-0.146374
-0.146236
-0.146109
-0.145994
-0.145888
-0.145792
-0.145701
-0.145612
-0.145517
-0.145418
-0.145315
-0.145203
-0.145084
-0.144952
-0.144804
-0.144629
-0.144425
-0.144179
-0.143885
-0.143533
-0.143112
-0.14261
-0.142031
-0.141332
-0.140505
-0.139542
-0.138405
-0.137059
-0.135477
-0.133611
-0.131414
-0.128852
-0.125907
-0.122548
-0.118734
-0.114434
-0.109629
-0.104337
-0.0986279
-0.0925761
-0.0862873
-0.079861
-0.0733734
-0.0668849
-0.0604377
-0.0540598
-0.0477681
-0.0415684
-0.0354784
-0.0295159
-0.0236862
-0.0180201
-0.0126216
-0.0078218
-0.00417761
-0.000999547
0.00212265
0.00530209
0.00854954
0.0118496
0.0151846
0.0185401
0.021906
0.0252754
0.0286436
0.0320082
0.0353676
0.0387213
0.0420693
0.045412
0.0487499
0.0520837
0.0554142
0.058742
0.0620679
0.0653924
0.0687162
0.0720396
0.0753631
0.0786869
0.0820113
0.0853363
0.0886621
0.0919887
0.095316
0.098644
0.101973
0.105302
0.108631
-0.218297
-0.213665
-0.208918
-0.203979
-0.198793
-0.193371
-0.187768
-0.182116
-0.176583
-0.171344
-0.166612
-0.162515
-0.15905
-0.15615
-0.153783
-0.151883
-0.150345
-0.149108
-0.148126
-0.147352
-0.14672
-0.146193
-0.145764
-0.145432
-0.145175
-0.144984
-0.144834
-0.144702
-0.144581
-0.144464
-0.144352
-0.144246
-0.144148
-0.144062
-0.143985
-0.143919
-0.143858
-0.1438
-0.143739
-0.143669
-0.14359
-0.143506
-0.143408
-0.143301
-0.143178
-0.143033
-0.142854
-0.142638
-0.142373
-0.142051
-0.141663
-0.141204
-0.140662
-0.140042
-0.139298
-0.138411
-0.137374
-0.136169
-0.134753
-0.133094
-0.131156
-0.128897
-0.126287
-0.123314
-0.119949
-0.116138
-0.111874
-0.107159
-0.101998
-0.0964634
-0.090636
-0.0845994
-0.0784388
-0.0722167
-0.0659795
-0.0597573
-0.0535661
-0.0474132
-0.0412968
-0.0352127
-0.029149
-0.0230627
-0.0168725
-0.0105209
-0.00452905
-0.0021948
0.000108005
0.00277645
0.00572471
0.00884911
0.0120796
0.0153726
0.0187011
0.0220483
0.0254038
0.0287612
0.0321166
0.035468
0.0388145
0.0421557
0.045492
0.0488239
0.0521519
0.0554769
0.0587995
0.0621204
0.0654402
0.0687594
0.0720786
0.075398
0.0787179
0.0820385
0.08536
0.0886823
0.0920056
0.0953297
0.0986546
0.10198
0.105306
0.108632
-0.21824
-0.213476
-0.208555
-0.203412
-0.197983
-0.192276
-0.186363
-0.180389
-0.174568
-0.169108
-0.16421
-0.15999
-0.156447
-0.1535
-0.151094
-0.149171
-0.147635
-0.14642
-0.145479
-0.144752
-0.144173
-0.1437
-0.143323
-0.143039
-0.142828
-0.142681
-0.142572
-0.14248
-0.142394
-0.142311
-0.142233
-0.142162
-0.1421
-0.142049
-0.142008
-0.141976
-0.141946
-0.141915
-0.141878
-0.141826
-0.141762
-0.141687
-0.141593
-0.141489
-0.141367
-0.141217
-0.141026
-0.140789
-0.140502
-0.140149
-0.139724
-0.139216
-0.138618
-0.137933
-0.137134
-0.136187
-0.135083
-0.133814
-0.132341
-0.130622
-0.128633
-0.12633
-0.12368
-0.120673
-0.117304
-0.113528
-0.109329
-0.10472
-0.0997217
-0.0944002
-0.0888246
-0.0830604
-0.0771782
-0.0712298
-0.0652513
-0.0592626
-0.0532727
-0.0472863
-0.0412969
-0.0352837
-0.0292189
-0.0230187
-0.0164255
-0.00865547
0.00211623
-0.000283282
0.000766545
0.00308309
0.00591649
0.00899801
0.0122107
0.0154954
0.0188192
0.0221629
0.0255149
0.0288685
0.0322196
0.0355663
0.0389076
0.0422435
0.0455742
0.0489005
0.052223
0.0555425
0.0588598
0.0621756
0.0654905
0.068805
0.0721196
0.0754347
0.0787505
0.0820671
0.0853848
0.0887036
0.0920234
0.0953441
0.0986657
0.101988
0.105311
0.108634
-0.218103
-0.21307
-0.207876
-0.202462
-0.196764
-0.190762
-0.184556
-0.178294
-0.172239
-0.166639
-0.161658
-0.157382
-0.153802
-0.150842
-0.148442
-0.146535
-0.14503
-0.143854
-0.142958
-0.142277
-0.141747
-0.141325
-0.140997
-0.140756
-0.140582
-0.140469
-0.140391
-0.14033
-0.140274
-0.140222
-0.140174
-0.140134
-0.140103
-0.140083
-0.140073
-0.14007
-0.140067
-0.140059
-0.140042
-0.140004
-0.139949
-0.139875
-0.139778
-0.139666
-0.139534
-0.13937
-0.139154
-0.138885
-0.138562
-0.138173
-0.137712
-0.137162
-0.13651
-0.135759
-0.134897
-0.133886
-0.132719
-0.131391
-0.129868
-0.128096
-0.126057
-0.123726
-0.121066
-0.118058
-0.114714
-0.111
-0.1069
-0.102427
-0.0976118
-0.0925102
-0.0871877
-0.0816982
-0.0760964
-0.0704229
-0.0647026
-0.0589487
-0.053168
-0.0473629
-0.0415318
-0.0356602
-0.0297307
-0.0237079
-0.017511
-0.0110558
-0.00473462
-0.0023019
7.8651e-05
0.00281047
0.00581011
0.00897519
0.0122367
0.0155521
0.0188956
0.0222515
0.0256105
0.0289671
0.0323185
0.0356634
0.0390015
0.0423332
0.0456591
0.0489801
0.0522972
0.0556112
0.058923
0.0622334
0.0655432
0.0688527
0.0721626
0.0754731
0.0787845
0.0820971
0.0854108
0.0887257
0.0920419
0.0953591
0.0986772
0.101996
0.105316
0.108635
-0.217885
-0.212433
-0.206854
-0.201091
-0.195085
-0.188761
-0.18227
-0.175836
-0.169661
-0.164
-0.158998
-0.154724
-0.151153
-0.148221
-0.145855
-0.14398
-0.142517
-0.1414
-0.140557
-0.13992
-0.139439
-0.139062
-0.138779
-0.138576
-0.138435
-0.138348
-0.138291
-0.138254
-0.138225
-0.138201
-0.138181
-0.13817
-0.138168
-0.138176
-0.138191
-0.138211
-0.13823
-0.13824
-0.138236
-0.138208
-0.138157
-0.138079
-0.137976
-0.137852
-0.137703
-0.137519
-0.137273
-0.136963
-0.136594
-0.136161
-0.135654
-0.135054
-0.134349
-0.133538
-0.132615
-0.131543
-0.130313
-0.128925
-0.12736
-0.125553
-0.123478
-0.121132
-0.118488
-0.1155
-0.112186
-0.108549
-0.104576
-0.100268
-0.0956562
-0.0907895
-0.0857301
-0.080521
-0.0752022
-0.0698044
-0.0643418
-0.0588224
-0.0532522
-0.0476361
-0.0419788
-0.0362812
-0.0305472
-0.0247856
-0.0190269
-0.0133717
-0.00816225
-0.00434902
-0.00102656
0.00221653
0.00549477
0.00882037
0.0121797
0.015557
0.0189403
0.0223216
0.0256961
0.0290613
0.0324165
0.0357619
0.039098
0.0424261
0.0457474
0.0490632
0.0523746
0.0556829
0.058989
0.0622938
0.0655981
0.0689024
0.0722072
0.075513
0.0788199
0.0821281
0.0854377
0.0887487
0.092061
0.0953745
0.0986891
0.102005
0.105321
0.108637
-0.217622
-0.211655
-0.205599
-0.199403
-0.193052
-0.186477
-0.179754
-0.173161
-0.166911
-0.161231
-0.156261
-0.152042
-0.14852
-0.145646
-0.143341
-0.141517
-0.140106
-0.139051
-0.138274
-0.137685
-0.137246
-0.136908
-0.136667
-0.136498
-0.136385
-0.136317
-0.136276
-0.136255
-0.13625
-0.136252
-0.13626
-0.136277
-0.136301
-0.136333
-0.136371
-0.136409
-0.136442
-0.136463
-0.136467
-0.136444
-0.136393
-0.136308
-0.136197
-0.136058
-0.135891
-0.135681
-0.135398
-0.135046
-0.134626
-0.13414
-0.13358
-0.132927
-0.132166
-0.131299
-0.130319
-0.129192
-0.127905
-0.126461
-0.124851
-0.123018
-0.120923
-0.118572
-0.11596
-0.113033
-0.109784
-0.106234
-0.102389
-0.0982565
-0.0938617
-0.0892455
-0.0844595
-0.079536
-0.0745014
-0.0693737
-0.064163
-0.0588768
-0.0535151
-0.0480873
-0.0426025
-0.0370745
-0.0315251
-0.0259854
-0.0205149
-0.0152141
-0.0102525
-0.00596207
-0.00210259
0.00154462
0.00509613
0.00860184
0.0120798
0.0155356
0.0189704
0.0223849
0.0257801
0.0291571
0.032518
0.0358647
0.0391992
0.0425238
0.0458402
0.0491504
0.0524558
0.0557579
0.0590579
0.0623567
0.0656552
0.0689539
0.0722535
0.0755542
0.0788563
0.08216
0.0854653
0.0887722
0.0920806
0.0953904
0.0987013
0.102013
0.105326
0.108639
-0.217315
-0.210764
-0.204196
-0.197559
-0.190838
-0.183983
-0.177043
-0.170302
-0.164018
-0.15837
-0.153472
-0.14935
-0.145917
-0.143129
-0.140906
-0.139161
-0.13782
-0.136812
-0.136085
-0.135546
-0.135145
-0.134847
-0.134643
-0.134505
-0.134419
-0.134366
-0.13434
-0.134336
-0.134351
-0.134376
-0.134409
-0.134452
-0.134501
-0.134557
-0.134615
-0.134668
-0.134712
-0.134741
-0.134748
-0.134726
-0.134672
-0.134582
-0.134461
-0.134306
-0.134118
-0.133877
-0.133558
-0.133162
-0.132691
-0.132146
-0.131529
-0.130821
-0.130006
-0.129085
-0.128051
-0.126874
-0.125537
-0.124045
-0.122395
-0.12054
-0.118436
-0.116087
-0.113502
-0.110648
-0.107497
-0.104074
-0.100377
-0.0964298
-0.0922618
-0.0879024
-0.0833887
-0.0787446
-0.0739868
-0.0691237
-0.0641623
-0.059101
-0.0539452
-0.0486969
-0.0433708
-0.0379878
-0.0325765
-0.0271746
-0.021841
-0.0166546
-0.0117087
-0.00718173
-0.00300213
0.000936023
0.00471503
0.00838679
0.0119817
0.0155179
0.0190067
0.0224563
0.0258729
0.0292621
0.0326283
0.0359757
0.0393079
0.042628
0.0459388
0.0492425
0.0525412
0.0558365
0.0591297
0.062422
0.0657142
0.069007
0.072301
0.0755964
0.0788936
0.0821926
0.0854934
0.0887961
0.0921005
0.0954065
0.0987137
0.102022
0.105331
0.108641
-0.217009
-0.209865
-0.202765
-0.195685
-0.188604
-0.181468
-0.174321
-0.167446
-0.161127
-0.155517
-0.150697
-0.146675
-0.14335
-0.140665
-0.138529
-0.136872
-0.135622
-0.134685
-0.134008
-0.133508
-0.133141
-0.132883
-0.132704
-0.132591
-0.132522
-0.132486
-0.132476
-0.132489
-0.132521
-0.132567
-0.132626
-0.132693
-0.132767
-0.132846
-0.132923
-0.132991
-0.133045
-0.13308
-0.133091
-0.13307
-0.133014
-0.132921
-0.132793
-0.132622
-0.13241
-0.132138
-0.131785
-0.131348
-0.130829
-0.130229
-0.129553
-0.12879
-0.127923
-0.126952
-0.125867
-0.124645
-0.123268
-0.121736
-0.120051
-0.118182
-0.116087
-0.113755
-0.111196
-0.108413
-0.105362
-0.102071
-0.0985458
-0.0948076
-0.0908778
-0.0867758
-0.082528
-0.0781534
-0.0736582
-0.069045
-0.064313
-0.0594623
-0.0544911
-0.0494047
-0.0442184
-0.0389554
-0.033637
-0.0282932
-0.0229822
-0.0177795
-0.0127671
-0.0080768
-0.00368406
0.000463492
0.00441997
0.00822976
0.0119262
0.0155338
0.0190707
0.022551
0.0259858
0.029384
0.032753
0.0360988
0.0394266
0.0427405
0.0460441
0.0493401
0.052631
0.0559185
0.0592043
0.0624895
0.065775
0.0690615
0.0723495
0.0756395
0.0789315
0.0822256
0.0855219
0.0888203
0.0921206
0.0954227
0.0987261
0.102031
0.105336
0.108642
-0.216699
-0.208968
-0.20136
-0.193873
-0.186477
-0.179109
-0.17178
-0.16476
-0.15837
-0.152772
-0.148035
-0.144126
-0.140902
-0.138299
-0.136249
-0.134671
-0.133493
-0.132627
-0.132004
-0.131548
-0.131219
-0.130994
-0.130838
-0.130743
-0.130689
-0.130668
-0.130674
-0.130704
-0.130754
-0.130822
-0.130904
-0.130996
-0.131095
-0.131198
-0.131295
-0.13138
-0.131449
-0.131494
-0.131511
-0.131496
-0.131441
-0.13135
-0.131217
-0.131035
-0.130802
-0.130502
-0.130119
-0.129648
-0.129088
-0.128441
-0.127716
-0.126902
-0.125988
-0.124969
-0.123836
-0.122572
-0.12116
-0.119598
-0.117884
-0.116
-0.113916
-0.111619
-0.109101
-0.106386
-0.103446
-0.100298
-0.0969501
-0.0934225
-0.0897281
-0.0858764
-0.0818768
-0.0777487
-0.0734971
-0.0691144
-0.0645973
-0.0599406
-0.0551376
-0.0501891
-0.045104
-0.0399042
-0.0346106
-0.0292569
-0.0239009
-0.0186211
-0.013512
-0.0086857
-0.00413501
0.000166758
0.0042566
0.00817217
0.0119471
0.0156094
0.0191822
0.0226838
0.0261292
0.0295305
0.0328973
0.0362376
0.0395577
0.0428628
0.046157
0.0494437
0.0527253
0.0560041
0.0592815
0.0625589
0.0658372
0.069117
0.0723988
0.075683
0.0789696
0.0822588
0.0855505
0.0888445
0.0921407
0.0954388
0.0987386
0.10204
0.105342
0.108644
-0.216385
-0.208068
-0.199979
-0.192148
-0.184521
-0.176992
-0.169527
-0.16237
-0.155887
-0.150244
-0.145491
-0.141631
-0.138536
-0.13604
-0.134082
-0.132579
-0.13146
-0.130652
-0.130074
-0.129657
-0.129364
-0.129166
-0.129029
-0.12895
-0.12891
-0.128901
-0.128924
-0.128972
-0.129044
-0.129133
-0.12924
-0.129357
-0.129483
-0.12961
-0.129732
-0.129841
-0.129929
-0.129992
-0.130022
-0.13002
-0.129976
-0.129891
-0.129761
-0.129575
-0.12933
-0.129013
-0.128612
-0.128118
-0.12753
-0.126847
-0.126084
-0.125231
-0.124277
-0.123217
-0.122042
-0.12074
-0.119296
-0.11771
-0.115973
-0.114075
-0.112003
-0.109746
-0.107288
-0.104648
-0.101821
-0.0988158
-0.0956423
-0.0923108
-0.0888305
-0.0852058
-0.0814414
-0.0775396
-0.073497
-0.0693082
-0.0649743
-0.0604775
-0.0558125
-0.0509724
-0.0459564
-0.0407738
-0.0354481
-0.0300263
-0.0245742
-0.0191895
-0.0139734
-0.00902143
-0.00434366
7.30219e-05
0.00425768
0.0082455
0.0120714
0.0157665
0.0193577
0.0228669
0.0263121
0.0297077
0.0330656
0.0363949
0.039703
0.0429959
0.0462781
0.0495532
0.0528241
0.0560928
0.0593609
0.0626298
0.0659003
0.069173
0.0724483
0.0757265
0.0790077
0.0822918
0.0855788
0.0888685
0.0921606
0.0954548
0.0987508
0.102048
0.105347
0.108646
-0.216085
-0.20722
-0.19869
-0.190534
-0.182704
-0.175057
-0.167515
-0.160258
-0.153666
-0.147957
-0.143184
-0.139309
-0.136238
-0.133806
-0.131933
-0.130517
-0.129466
-0.128716
-0.128188
-0.12781
-0.127555
-0.127381
-0.127261
-0.127196
-0.12717
-0.127175
-0.127215
-0.127283
-0.127378
-0.127492
-0.127625
-0.12777
-0.127925
-0.128082
-0.128237
-0.128378
-0.128495
-0.128585
-0.128639
-0.12866
-0.128638
-0.128572
-0.128455
-0.128279
-0.128038
-0.127721
-0.127316
-0.126817
-0.126218
-0.125521
-0.124738
-0.12386
-0.122878
-0.121787
-0.12058
-0.119248
-0.117779
-0.116174
-0.114423
-0.112514
-0.110445
-0.108215
-0.105817
-0.103258
-0.100541
-0.0976664
-0.0946505
-0.0914916
-0.0881895
-0.0847474
-0.0811623
-0.0774335
-0.0735681
-0.0695573
-0.0653781
-0.0610122
-0.0564524
-0.0516876
-0.0467137
-0.0415295
-0.0361567
-0.0306409
-0.0250587
-0.0195228
-0.0141618
-0.00907836
-0.00429183
0.00020742
0.00444991
0.00847444
0.01232
0.0160218
0.01961
0.0231096
0.0265409
0.0299202
0.0332606
0.0365723
0.0398633
0.04314
0.0464071
0.0496684
0.0529267
0.056184
0.0594419
0.0627016
0.0659638
0.069229
0.0724976
0.0757697
0.0790453
0.0823244
0.0856067
0.088892
0.09218
0.0954704
0.0987628
0.102057
0.105352
0.108647
-0.215796
-0.206418
-0.197489
-0.189037
-0.181007
-0.173253
-0.165684
-0.158393
-0.151682
-0.145844
-0.140985
-0.137089
-0.134051
-0.131672
-0.129852
-0.128494
-0.1275
-0.126799
-0.126319
-0.125985
-0.125768
-0.125617
-0.125516
-0.125465
-0.125451
-0.12547
-0.12553
-0.125621
-0.125739
-0.125879
-0.126042
-0.12622
-0.126412
-0.126612
-0.126811
-0.126994
-0.127154
-0.127285
-0.127379
-0.127437
-0.127453
-0.127422
-0.127337
-0.12719
-0.126973
-0.126678
-0.126293
-0.125812
-0.125228
-0.124542
-0.123762
-0.122881
-0.121892
-0.120788
-0.119563
-0.11821
-0.116723
-0.115101
-0.113338
-0.111427
-0.109372
-0.107167
-0.104819
-0.10233
-0.0997021
-0.0969279
-0.0940149
-0.0909661
-0.0877757
-0.0844521
-0.0810023
-0.0774239
-0.0737024
-0.0698174
-0.0657519
-0.0614863
-0.0570016
-0.0522854
-0.0473296
-0.0421271
-0.0366935
-0.0310592
-0.0253129
-0.0195948
-0.014057
-0.00882795
-0.00394852
0.00059861
0.00485771
0.00887874
0.0127083
0.0163867
0.0199474
0.0234176
0.0268193
0.0301699
0.0334832
0.0367698
0.0400381
0.0432943
0.0465431
0.0497882
0.0530321
0.0562768
0.0595236
0.0627734
0.0660269
0.0692844
0.0725461
0.075812
0.079082
0.082356
0.0856337
0.0889147
0.0921988
0.0954854
0.0987743
0.102065
0.105357
0.108649
-0.21552
-0.205626
-0.196284
-0.187537
-0.179321
-0.171484
-0.163908
-0.15662
-0.149854
-0.14391
-0.13894
-0.134951
-0.131866
-0.129506
-0.127742
-0.126444
-0.125513
-0.124858
-0.124422
-0.124141
-0.123976
-0.123854
-0.123774
-0.123731
-0.123729
-0.123766
-0.12385
-0.123968
-0.124108
-0.124271
-0.124466
-0.124685
-0.124932
-0.125192
-0.125454
-0.125696
-0.125915
-0.126104
-0.126258
-0.126377
-0.126453
-0.126479
-0.126448
-0.126352
-0.126185
-0.125937
-0.1256
-0.125166
-0.124628
-0.123985
-0.123239
-0.122386
-0.121418
-0.120329
-0.119111
-0.117756
-0.116261
-0.114627
-0.112856
-0.110951
-0.108913
-0.106729
-0.104413
-0.101963
-0.0993718
-0.096647
-0.0937761
-0.0907578
-0.0876044
-0.08433
-0.080948
-0.0774522
-0.0738135
-0.0700163
-0.0660438
-0.0618581
-0.0574274
-0.0527339
-0.0477657
-0.0425281
-0.0370315
-0.0313071
-0.0254053
-0.019432
-0.0136219
-0.00821265
-0.00326488
0.00128088
0.00550365
0.00947296
0.0132455
0.0168668
0.0203728
0.0237921
0.0271472
0.0304559
0.0337319
0.0369858
0.0402254
0.0434568
0.0466843
0.0499109
0.0531389
0.0563699
0.0596048
0.0628443
0.0660887
0.0693383
0.0725931
0.0758528
0.0791173
0.0823863
0.0856595
0.0889364
0.0922167
0.0954997
0.0987852
0.102073
0.105361
0.108651
-0.215264
-0.204843
-0.19503
-0.185947
-0.177532
-0.169609
-0.162058
-0.154864
-0.148144
-0.142125
-0.137025
-0.132917
-0.12975
-0.127353
-0.125595
-0.124336
-0.123454
-0.122848
-0.122454
-0.122232
-0.122137
-0.12207
-0.122009
-0.121971
-0.121982
-0.122052
-0.122175
-0.122317
-0.122463
-0.122633
-0.122855
-0.123132
-0.123463
-0.123818
-0.124165