/*--------------------------------*- C++ -*----------------------------------*\
  =========                 |
  \\      /  F ield         | OpenFOAM: The Open Source CFD Toolbox
   \\    /   O peration     | Website:  https://openfoam.org
    \\  /    A nd           | Version:  6
     \\/     M anipulation  |
\*---------------------------------------------------------------------------*/
FoamFile
{
    version     2.0;
    format      ascii;
    class       surfaceScalarField;
    location    "4000";
    object      phi;
}
// * * * * * * * * * * * * * * * * * * * * * * * * * * * * * * * * * * * * * //

dimensions      [0 3 -1 0 0 0 0];

internalField   nonuniform List<scalar> 
9440
(
-3.33951e-10
3.33951e-10
-4.39145e-10
1.05193e-10
-2.17522e-10
-2.21624e-10
1.71253e-10
-3.88776e-10
4.52854e-10
-2.81602e-10
7.76397e-10
-3.23544e-10
1.17691e-09
-4.00516e-10
1.86497e-09
-6.88061e-10
2.05739e-09
-1.92422e-10
3.61572e-09
-1.55833e-09
2.93609e-09
6.79636e-10
3.47417e-09
-5.38086e-10
4.41888e-09
-9.44712e-10
5.28109e-09
-8.62213e-10
5.97335e-09
-6.92257e-10
6.32154e-09
-3.48194e-10
6.64833e-09
-3.26785e-10
6.9541e-09
-3.05777e-10
7.30631e-09
-3.52211e-10
7.5124e-09
-2.06093e-10
7.75025e-09
-2.3785e-10
7.93518e-09
-1.84925e-10
8.09385e-09
-1.58678e-10
8.1142e-09
-2.03512e-11
8.24513e-09
-1.30926e-10
8.45721e-09
-2.1208e-10
8.69946e-09
-2.42248e-10
8.91351e-09
-2.14054e-10
9.02952e-09
-1.16008e-10
9.0689e-09
-3.93841e-11
9.1067e-09
-3.78064e-11
9.13721e-09
-3.05103e-11
9.1344e-09
2.81134e-12
9.14159e-09
-7.18727e-12
9.20513e-09
-6.35455e-11
9.24835e-09
-4.32194e-11
9.32961e-09
-8.12588e-11
9.3959e-09
-6.62916e-11
9.41428e-09
-1.83798e-11
9.41276e-09
1.5144e-12
9.38847e-09
2.42951e-11
9.33917e-09
4.93009e-11
9.29043e-09
4.87379e-11
9.23935e-09
5.1074e-11
9.16487e-09
7.44799e-11
9.11385e-09
5.10164e-11
9.04347e-09
7.03845e-11
8.9726e-09
7.08644e-11
8.91952e-09
5.3081e-11
8.86264e-09
5.68846e-11
8.80085e-09
6.17813e-11
8.7053e-09
9.55535e-11
8.64754e-09
5.77545e-11
8.5351e-09
1.12441e-10
8.35444e-09
1.80659e-10
8.22373e-09
1.30713e-10
7.91447e-09
3.09264e-10
7.69719e-09
2.17279e-10
7.42287e-09
2.74318e-10
7.23992e-09
1.82951e-10
6.99934e-09
2.40571e-10
6.67274e-09
3.26602e-10
6.42718e-09
2.45561e-10
6.08611e-09
3.41067e-10
5.75334e-09
3.32772e-10
5.28168e-09
4.71659e-10
4.78758e-09
4.94102e-10
4.34603e-09
4.41548e-10
3.75991e-09
5.86125e-10
3.17605e-09
5.83855e-10
2.43655e-09
7.39497e-10
1.93413e-09
5.02422e-10
1.69089e-09
2.43244e-10
1.58276e-09
1.08123e-10
1.46567e-09
1.1709e-10
1.33751e-09
1.2816e-10
1.32725e-09
1.02613e-11
1.35657e-09
-2.93155e-11
1.38917e-09
-3.26017e-11
1.38683e-09
2.33993e-12
1.36285e-09
2.39768e-11
1.14755e-09
2.153e-10
9.2333e-10
2.24222e-10
5.76375e-10
3.46955e-10
-1.06895e-16
5.76376e-10
4.16092e-18
2.09175e-18
3.10743e-18
1.05349e-18
2.50986e-18
5.97756e-19
2.13827e-18
3.71785e-19
1.89298e-18
2.45452e-19
1.72679e-18
1.66316e-19
1.61501e-18
1.11864e-19
1.54345e-18
7.15935e-20
1.50308e-18
4.03586e-20
1.48741e-18
1.56043e-20
1.49122e-18
-3.90885e-21
1.50985e-18
-1.87527e-20
1.53888e-18
-2.91887e-20
1.57409e-18
-3.53729e-20
1.61138e-18
-3.74709e-20
1.64691e-18
-3.57161e-20
1.67715e-18
-3.04311e-20
1.69898e-18
-2.20239e-20
1.70976e-18
-1.09701e-20
1.70735e-18
2.2109e-21
1.69018e-18
1.69829e-20
1.65717e-18
3.28166e-20
1.60776e-18
4.921e-20
1.54187e-18
6.57035e-20
1.45978e-18
8.18899e-20
1.36217e-18
9.74188e-20
1.24998e-18
1.11997e-19
1.1244e-18
1.25388e-19
9.868e-19
1.37403e-19
8.38706e-19
1.47899e-19
6.81742e-19
1.5677e-19
5.1761e-19
1.63937e-19
3.48068e-19
1.69347e-19
1.74916e-19
1.72958e-19
1.74722e-19
-1.61911e-10
4.9586e-10
-5.94235e-11
2.70293e-12
1.4295e-10
-4.24e-10
3.89399e-10
-6.35227e-10
7.46785e-10
-6.38989e-10
1.02286e-09
-5.99618e-10
1.31496e-09
-6.92623e-10
1.72573e-09
-1.09884e-09
2.16524e-09
-6.31929e-10
3.23284e-09
-2.62593e-09
3.38081e-09
5.31656e-10
3.59531e-09
-7.52586e-10
4.17528e-09
-1.52468e-09
4.96616e-09
-1.65309e-09
5.60532e-09
-1.33142e-09
5.87677e-09
-6.19646e-10
6.22784e-09
-6.77852e-10
6.56137e-09
-6.39312e-10
6.82383e-09
-6.14674e-10
7.1626e-09
-5.44866e-10
7.33607e-09
-4.11319e-10
7.44639e-09
-2.95249e-10
7.48736e-09
-1.99654e-10
7.67447e-09
-2.07464e-10
7.80855e-09
-2.65005e-10
8.11804e-09
-5.21571e-10
8.3726e-09
-4.96809e-10
8.48166e-09
-3.23113e-10
8.56591e-09
-2.0026e-10
8.62057e-09
-9.40531e-11
8.64406e-09
-6.1295e-11
8.64719e-09
-3.36414e-11
8.72502e-09
-7.50187e-11
8.76705e-09
-4.92171e-11
8.9692e-09
-2.65699e-10
9.0314e-09
-1.05424e-10
8.99385e-09
-4.37087e-11
8.92767e-09
-1.18282e-13
8.88224e-09
2.70527e-11
8.84745e-09
3.62996e-11
8.81842e-09
5.33233e-11
8.80716e-09
6.05598e-11
8.8127e-09
4.32024e-11
8.8149e-09
4.88742e-11
8.79965e-09
8.97205e-11
8.75102e-09
9.96516e-11
8.68843e-09
1.32966e-10
8.59997e-09
1.59331e-10
8.55901e-09
9.40326e-11
8.44764e-09
1.68253e-10
8.36573e-09
1.43698e-10
8.24786e-09
2.13418e-10
8.10338e-09
2.02228e-10
8.06875e-09
1.47075e-10
7.88796e-09
3.6145e-10
7.66279e-09
3.55879e-10
7.68993e-09
2.82127e-10
7.34123e-09
5.65971e-10
7.27579e-09
3.3976e-10
7.11784e-09
3.40904e-10
6.77828e-09
5.80126e-10
6.60357e-09
5.01311e-10
6.21302e-09
6.36111e-10
5.9551e-09
5.98991e-10
5.58887e-09
6.98995e-10
5.06991e-09
9.90623e-10
4.89879e-09
6.65225e-10
4.16124e-09
1.17909e-09
3.75176e-09
9.95608e-10
3.56951e-09
7.66105e-10
2.9775e-09
1.3315e-09
2.37299e-09
1.10693e-09
1.81666e-09
7.99574e-10
1.4623e-09
4.62481e-10
1.20457e-09
3.74823e-10
1.12191e-09
2.10823e-10
1.08327e-09
4.8894e-11
1.0922e-09
-3.82422e-11
1.04707e-09
1.25252e-11
1.09026e-09
-4.08518e-11
1.07671e-09
3.75352e-11
1.01424e-09
2.77763e-10
7.08889e-10
5.29575e-10
4.19643e-10
6.36202e-10
-1.11127e-16
9.96019e-10
3.12352e-18
2.58678e-18
2.65245e-18
1.52471e-18
2.28443e-18
9.66105e-19
2.01194e-18
6.44585e-19
1.81385e-18
4.43786e-19
1.67234e-18
3.07988e-19
1.57474e-18
2.09551e-19
1.51222e-18
1.3412e-19
1.47832e-18
7.41785e-20
1.4679e-18
2.58885e-20
1.47638e-18
-1.25826e-20
1.49941e-18
-4.20222e-20
1.5327e-18
-6.27495e-20
1.57199e-18
-7.49612e-20
1.61313e-18
-7.89304e-20
1.6522e-18
-7.51039e-20
1.68556e-18
-6.41295e-20
1.71004e-18
-4.68414e-20
1.72294e-18
-2.4216e-20
1.72213e-18
2.68177e-21
1.70601e-18
3.27544e-20
1.67356e-18
6.49232e-20
1.62426e-18
9.8169e-20
1.55805e-18
1.31563e-19
1.47531e-18
1.64286e-19
1.37675e-18
1.95636e-19
1.26337e-18
2.2503e-19
1.13641e-18
2.51998e-19
9.97297e-19
2.76172e-19
8.47577e-19
2.97271e-19
6.8891e-19
3.15089e-19
5.2302e-19
3.29479e-19
3.51679e-19
3.40341e-19
1.7668e-19
3.47608e-19
3.51249e-19
-1.75557e-10
6.71416e-10
-2.73044e-11
-1.45552e-10
3.2479e-11
-4.83785e-10
1.27582e-10
-7.30332e-10
4.80119e-10
-9.91528e-10
8.06724e-10
-9.26224e-10
1.13267e-09
-1.01857e-09
1.37775e-09
-1.34391e-09
1.95918e-09
-1.21336e-09
2.45609e-09
-3.12284e-09
3.41754e-09
-4.29796e-10
3.83541e-09
-1.17046e-09
4.31472e-09
-2.004e-09
4.92669e-09
-2.26506e-09
5.17103e-09
-1.57576e-09
5.50675e-09
-9.55368e-10
5.96319e-09
-1.1343e-09
6.61829e-09
-1.29441e-09
6.74002e-09
-7.36412e-10
6.8702e-09
-6.75048e-10
6.95886e-09
-4.99974e-10
7.02464e-09
-3.61034e-10
7.23122e-09
-4.0623e-10
7.57544e-09
-5.51685e-10
7.61341e-09
-3.02977e-10
7.68674e-09
-5.949e-10
7.77954e-09
-5.8962e-10
7.82281e-09
-3.66376e-10
7.92722e-09
-3.04672e-10
8.02253e-09
-1.8937e-10
8.06735e-09
-1.06108e-10
8.09409e-09
-6.03832e-11
8.11052e-09
-9.14511e-11
8.16661e-09
-1.05312e-10
8.27551e-09
-3.746e-10
8.31226e-09
-1.42174e-10
8.32295e-09
-5.43976e-11
8.3255e-09
-2.67177e-12
8.31476e-09
3.77899e-11
8.27797e-09
7.30869e-11
8.23179e-09
9.95086e-11
8.20163e-09
9.07134e-11
8.17926e-09
6.55704e-11
8.17043e-09
5.77076e-11
8.17592e-09
8.42294e-11
8.16939e-09
1.06173e-10
8.12783e-09
1.74525e-10
8.12606e-09
1.61098e-10
8.06597e-09
1.54129e-10
8.01523e-09
2.18991e-10
7.86234e-09
2.96588e-10
7.84841e-09
2.27349e-10
7.6618e-09
3.88836e-10
7.55581e-09
2.5306e-10
7.39654e-09
5.20722e-10
7.17359e-09
5.78829e-10
6.97147e-09
4.84244e-10
6.69625e-09
8.41193e-10
6.79398e-09
2.42023e-10
6.54221e-09
5.92681e-10
6.29546e-09
8.26869e-10
6.14707e-09
6.49703e-10
5.86769e-09
9.15486e-10
5.59151e-09
8.75175e-10
5.12828e-09
1.16223e-09
4.774e-09
1.3449e-09
4.31559e-09
1.12364e-09
3.80739e-09
1.68729e-09
3.55624e-09
1.24675e-09
3.04557e-09
1.27678e-09
2.61522e-09
1.76185e-09
2.08293e-09
1.63922e-09
1.54035e-09
1.34216e-09
1.14472e-09
8.58109e-10
9.45992e-10
5.73553e-10
8.53316e-10
3.03498e-10
7.56203e-10
1.46008e-10
7.19924e-10
-1.96356e-12
7.31766e-10
6.83908e-13
8.05722e-10
-1.14808e-10
7.60729e-10
8.25276e-11
7.26034e-10
3.12459e-10
5.91511e-10
6.64098e-10
3.87408e-10
8.40305e-10
-1.36586e-16
1.38343e-09
2.06235e-18
1.89302e-18
2.09462e-18
1.49258e-18
1.96344e-18
1.09766e-18
1.81114e-18
7.97266e-19
1.67805e-18
5.77196e-19
1.57391e-18
4.12398e-19
1.49931e-18
2.84347e-19
1.45228e-18
1.81288e-19
1.43003e-18
9.64853e-20
1.42943e-18
2.64932e-20
1.44694e-18
-3.01536e-20
1.47868e-18
-7.3881e-20
1.52049e-18
-1.04716e-19
1.56802e-18
-1.22695e-19
1.61696e-18
-1.28101e-19
1.66317e-18
-1.21563e-19
1.70285e-18
-1.04074e-19
1.73266e-18
-7.69342e-20
1.74984e-18
-4.16764e-20
1.7522e-18
3.24151e-23
1.73818e-18
4.64825e-20
1.70681e-18
9.60039e-20
1.65765e-18
1.4703e-19
1.59077e-18
1.98143e-19
1.50666e-18
2.48103e-19
1.40614e-18
2.95856e-19
1.29034e-18
3.40536e-19
1.16059e-18
3.8145e-19
1.0184e-18
4.18063e-19
8.65395e-19
4.49971e-19
7.033e-19
4.76883e-19
5.33881e-19
4.98596e-19
3.58946e-19
5.14973e-19
1.80321e-19
5.25931e-19
5.31421e-19
-3.49975e-11
7.06412e-10
8.50775e-11
-2.65629e-10
9.18809e-11
-4.9059e-10
1.84361e-11
-6.56889e-10
1.11672e-10
-1.08477e-09
3.38803e-10
-1.15336e-09
7.51397e-10
-1.43117e-09
1.07311e-09
-1.66562e-09
1.73155e-09
-1.8718e-09
1.69241e-09
-3.08371e-09
3.15986e-09
-1.89725e-09
3.72833e-09
-1.73893e-09
4.16757e-09
-2.44324e-09
4.51712e-09
-2.61461e-09
4.78623e-09
-1.84487e-09
5.27125e-09
-1.44039e-09
5.61687e-09
-1.47992e-09
6.03724e-09
-1.71478e-09
6.38873e-09
-1.08791e-09
6.54727e-09
-8.33586e-10
6.65316e-09
-6.0587e-10
6.55766e-09
-2.65532e-10
6.96623e-09
-8.14801e-10
6.94445e-09
-5.29912e-10
7.20025e-09
-5.58777e-10
7.39501e-09
-7.89658e-10
7.49583e-09
-6.90441e-10
7.56182e-09
-4.32365e-10
7.55934e-09
-3.022e-10
7.55273e-09
-1.82761e-10
7.56355e-09
-1.16922e-10
7.60853e-09
-1.05364e-10
7.67802e-09
-1.60947e-10
7.85846e-09
-2.85755e-10
7.85469e-09
-3.70834e-10
7.89121e-09
-1.78687e-10
7.90683e-09
-7.00228e-11
7.88621e-09
1.79418e-11
7.86388e-09
6.01274e-11
7.85182e-09
8.51437e-11
7.85138e-09
9.99458e-11
7.87914e-09
6.29558e-11
7.90629e-09
3.84171e-11
7.90721e-09
5.67808e-11
7.90215e-09
8.92958e-11
7.86327e-09
1.45044e-10
7.80032e-09
2.37476e-10
7.87774e-09
8.3682e-11
7.70054e-09
3.31329e-10
7.61527e-09
3.04254e-10
7.48447e-09
4.27392e-10
7.26894e-09
4.42873e-10
7.30937e-09
3.48407e-10
7.0414e-09
5.21034e-10
7.01019e-09
5.51927e-10
6.98195e-09
6.0707e-10
6.66521e-09
8.00977e-10
6.66648e-09
8.39929e-10
6.32778e-09
5.80716e-10
6.03731e-09
8.83151e-10
5.87906e-09
9.85124e-10
5.40376e-09
1.125e-09
5.30116e-09
1.01809e-09
5.12644e-09
1.04989e-09
4.82714e-09
1.46153e-09
4.64219e-09
1.52984e-09
4.09075e-09
1.67508e-09
3.79397e-09
1.98407e-09
3.36189e-09
1.67883e-09
2.69542e-09
1.94326e-09
2.16236e-09
2.29491e-09
1.63715e-09
2.16442e-09
1.32442e-09
1.65489e-09
1.03926e-09
1.14327e-09
7.8569e-10
8.27119e-10
5.40909e-10
5.48279e-10
3.94212e-10
2.92705e-10
3.81557e-10
1.06915e-11
4.40265e-10
-5.80237e-11
4.76523e-10
-1.51066e-10
5.3686e-10
2.21909e-11
4.69232e-10
3.80088e-10
3.62759e-10
7.70571e-10
8.91304e-11
1.11393e-09
-1.56252e-16
1.47256e-09
1.66276e-18
1.84637e-18
1.70047e-18
1.45506e-18
1.66355e-18
1.13504e-18
1.59107e-18
8.70236e-19
1.51325e-18
6.55466e-19
1.44585e-18
4.80208e-19
1.39625e-18
3.34309e-19
1.36747e-18
2.10369e-19
1.36004e-18
1.0415e-19
1.37278e-18
1.3914e-20
1.40321e-18
-6.0497e-20
1.44785e-18
-1.18504e-19
1.50251e-18
-1.5943e-19
1.56261e-18
-1.82915e-19
1.6235e-18
-1.89145e-19
1.68066e-18
-1.78922e-19
1.72999e-18
-1.53627e-19
1.76792e-18
-1.15113e-19
1.79155e-18
-6.55623e-20
1.79865e-18
-7.33813e-21
1.7877e-18
5.71561e-20
1.75783e-18
1.25594e-19
1.70876e-18
1.95815e-19
1.64073e-18
2.65887e-19
1.55441e-18
3.34135e-19
1.45082e-18
3.99157e-19
1.33125e-18
4.59815e-19
1.1972e-18
5.15211e-19
1.0503e-18
5.64664e-19
8.92307e-19
6.07672e-19
7.25012e-19
6.43881e-19
5.50259e-19
6.73053e-19
3.69903e-19
6.95032e-19
1.85811e-19
7.09726e-19
7.17085e-19
1.40768e-10
5.65643e-10
8.01899e-11
-2.05052e-10
4.23875e-11
-4.52789e-10
-1.20966e-11
-6.02407e-10
-2.77814e-11
-1.06908e-09
2.35341e-11
-1.20467e-09
3.29575e-10
-1.73721e-09
5.63429e-10
-1.89948e-09
1.11553e-09
-2.42391e-09
1.05471e-09
-3.02288e-09
2.33911e-09
-3.18166e-09
3.36182e-09
-2.76164e-09
3.81032e-09
-2.89175e-09
4.05033e-09
-2.85461e-09
4.51871e-09
-2.31326e-09
5.04538e-09
-1.96706e-09
5.42149e-09
-1.85604e-09
5.52642e-09
-1.8197e-09
5.78395e-09
-1.34544e-09
5.9433e-09
-9.9294e-10
6.10788e-09
-7.70458e-10
6.23626e-09
-3.93908e-10
6.51663e-09
-1.09518e-09
6.65337e-09
-6.66645e-10
6.80771e-09
-7.1312e-10
6.79339e-09
-7.75344e-10
6.82624e-09
-7.23288e-10
7.01102e-09
-6.17153e-10
7.11232e-09
-4.03499e-10
7.16474e-09
-2.35185e-10
7.23598e-09
-1.88157e-10
7.35221e-09
-2.21594e-10
7.45222e-09
-2.60959e-10
7.46263e-09
-2.96173e-10
7.37431e-09
-2.8251e-10
7.40485e-09
-2.09231e-10
7.48406e-09
-1.49237e-10
7.55011e-09
-4.81024e-11
7.5893e-09
2.09321e-11
7.59208e-09
8.23638e-11
7.57081e-09
1.2121e-10
7.5423e-09
9.14692e-11
7.4891e-09
9.16197e-11
7.49027e-09
5.5606e-11
7.47674e-09
1.02828e-10
7.39793e-09
2.23849e-10
7.44651e-09
1.88899e-10
7.34248e-09
1.87703e-10
7.23494e-09
4.38875e-10
7.05179e-09
4.87399e-10
6.99391e-09
4.8527e-10
6.93373e-09
5.03056e-10
6.78733e-09
4.94804e-10
6.57703e-09
7.31332e-10
6.48385e-09
6.45105e-10
6.33747e-09
7.5345e-10
6.19422e-09
9.44231e-10
6.32875e-09
7.05396e-10
5.8733e-09
1.03617e-09
5.55462e-09
1.20183e-09
5.35307e-09
1.18667e-09
5.22388e-09
1.25419e-09
4.94655e-09
1.29542e-09
4.46044e-09
1.536e-09
4.04352e-09
1.87845e-09
3.69925e-09
1.87412e-09
3.34925e-09
2.02508e-09
3.27134e-09
2.06198e-09
3.00623e-09
1.94394e-09
2.59742e-09
2.35207e-09
2.44709e-09
2.44523e-09
2.20154e-09
2.40997e-09
1.60888e-09
2.24755e-09
9.89217e-10
1.76294e-09
5.75198e-10
1.24114e-09
3.22018e-10
8.0146e-10
1.54283e-10
4.6044e-10
7.01065e-11
9.48683e-11
8.48157e-11
-7.27327e-11
6.61938e-11
-1.32444e-10
2.37664e-10
-1.49279e-10
2.72334e-10
3.45419e-10
2.69584e-10
7.73321e-10
1.1429e-10
1.26923e-09
-1.70855e-16
1.58685e-09
1.27227e-18
1.49523e-18
1.38122e-18
1.34636e-18
1.39919e-18
1.11762e-18
1.3763e-18
8.9372e-19
1.33799e-18
6.94354e-19
1.29996e-18
5.18813e-19
1.27231e-18
3.62486e-19
1.26125e-18
2.21918e-19
1.26981e-18
9.60263e-20
1.29837e-18
-1.4296e-20
1.34521e-18
-1.07062e-19
1.40692e-18
-1.80047e-19
1.47902e-18
-2.31446e-19
1.55639e-18
-2.60275e-19
1.63372e-18
-2.6655e-19
1.70595e-18
-2.5128e-19
1.7685e-18
-2.16344e-19
1.81747e-18
-1.64285e-19
1.84977e-18
-9.80895e-20
1.86314e-18
-2.09544e-20
1.85614e-18
6.39045e-20
1.82805e-18
1.53415e-19
1.77883e-18
2.44762e-19
1.70898e-18
3.35463e-19
1.61944e-18
4.234e-19
1.51148e-18
5.0683e-19
1.38665e-18
5.8436e-19
1.24665e-18
6.5492e-19
1.09331e-18
7.17713e-19
9.28516e-19
7.72175e-19
7.54184e-19
8.17921e-19
5.72238e-19
8.54704e-19
3.84597e-19
8.82377e-19
1.9317e-19
9.00859e-19
9.10108e-19
3.72316e-10
1.93326e-10
1.13369e-10
5.3893e-11
-2.29546e-11
-3.16467e-10
-8.56619e-11
-5.39701e-10
-2.34637e-10
-9.20109e-10
-1.49217e-10
-1.29009e-09
-7.20523e-11
-1.81438e-09
4.09598e-10
-2.38113e-09
1.06564e-09
-3.07995e-09
1.34636e-09
-3.3036e-09
1.86338e-09
-3.69867e-09
2.8742e-09
-3.77246e-09
3.53787e-09
-3.55542e-09
3.8168e-09
-3.13354e-09
4.28138e-09
-2.77784e-09
4.4416e-09
-2.12729e-09
4.59605e-09
-2.01048e-09
4.88424e-09
-2.1079e-09
5.16477e-09
-1.62597e-09
5.42642e-09
-1.2546e-09
5.69211e-09
-1.03615e-09
6.16449e-09
-8.66283e-10
6.29436e-09
-1.22505e-09
6.3183e-09
-6.90584e-10
6.31798e-09
-7.12805e-10
6.28785e-09
-7.45212e-10
6.37272e-09
-8.08159e-10
6.46952e-09
-7.13957e-10
6.57322e-09
-5.07202e-10
6.70085e-09
-3.62819e-10
6.80551e-09
-2.92815e-10
6.85326e-09
-2.69345e-10
6.86344e-09
-2.71143e-10
6.86473e-09
-2.97464e-10
6.84809e-09
-2.65865e-10
6.87217e-09
-2.33315e-10
6.91324e-09
-1.90311e-10
6.95461e-09
-8.94686e-11
7.0146e-09
-3.90595e-11
7.0657e-09
3.12617e-11
7.06364e-09
1.23264e-10
7.02778e-09
1.27328e-10
6.98384e-09
1.35562e-10
6.91205e-09
1.27401e-10
6.85503e-09
1.59839e-10
6.74562e-09
3.33264e-10
6.73164e-09
2.02874e-10
6.57978e-09
3.39559e-10
6.61956e-09
3.991e-10
6.43187e-09
6.75088e-10
6.53168e-09
3.85454e-10
6.37496e-09
6.59779e-10
6.08613e-09
7.8363e-10
6.02373e-09
7.93736e-10
5.7701e-09
8.9873e-10
5.70572e-09
8.17824e-10
5.47238e-09
1.17757e-09
5.35617e-09
8.21604e-10
5.04958e-09
1.34276e-09
4.94906e-09
1.30235e-09
4.82991e-09
1.30582e-09
4.69073e-09
1.39337e-09
4.27183e-09
1.71433e-09
4.37192e-09
1.4359e-09
4.16104e-09
2.08933e-09
3.79128e-09
2.24388e-09
3.39644e-09
2.41992e-09
2.9425e-09
2.51592e-09
2.41282e-09
2.47363e-09
1.98982e-09
2.77507e-09
1.63731e-09
2.79774e-09
1.29594e-09
2.75135e-09
1.15603e-09
2.38746e-09
8.32999e-10
2.08597e-09
4.36364e-10
1.63777e-09
1.15227e-10
1.1226e-09
-7.40194e-11
6.49686e-10
-2.01997e-10
2.22846e-10
-1.53651e-10
-1.21078e-10
-6.58477e-11
-2.20246e-10
-9.7713e-12
-2.05355e-10
1.11463e-10
2.24185e-10
1.99068e-10
6.85716e-10
1.02201e-10
1.3661e-09
-1.54405e-16
1.68905e-09
1.1242e-18
1.52833e-18
1.15322e-18
1.31764e-18
1.17567e-18
1.09578e-18
1.17693e-18
8.93106e-19
1.16245e-18
7.09505e-19
1.14363e-18
5.38319e-19
1.13174e-18
3.75052e-19
1.13536e-18
2.18963e-19
1.15948e-18
7.25284e-20
1.20561e-18
-5.98573e-20
1.27222e-18
-1.73202e-19
1.35552e-18
-2.62982e-19
1.45019e-18
-3.25859e-19
1.55011e-18
-3.60043e-19
1.64899e-18
-3.65378e-19
1.74089e-18
-3.43208e-19
1.82056e-18
-2.96106e-19
1.88367e-18
-2.27537e-19
1.92691e-18
-1.41512e-19
1.948e-18
-4.22619e-20
1.94565e-18
6.60262e-20
1.9194e-18
1.79418e-19
1.86954e-18
2.9437e-19
1.79692e-18
4.07813e-19
1.70287e-18
5.17183e-19
1.58901e-18
6.20409e-19
1.45721e-18
7.15882e-19
1.30945e-18
8.02398e-19
1.14777e-18
8.79098e-19
9.74262e-19
9.45397e-19
7.90967e-19
1.00092e-18
5.99911e-19
1.04547e-18
4.03079e-19
1.07892e-18
2.02419e-19
1.10123e-18
1.11238e-18
6.12995e-11
1.32026e-10
6.80792e-11
4.71116e-11
-1.62547e-11
-2.32135e-10
-9.54706e-11
-4.60487e-10
-1.57233e-10
-8.58348e-10
-8.66531e-11
-1.36068e-09
-2.16375e-11
-1.8794e-09
2.44448e-10
-2.64722e-09
9.02396e-10
-3.7379e-09
1.62846e-09
-4.02967e-09
2.14982e-09
-4.22003e-09
2.65933e-09
-4.28197e-09
3.22066e-09
-4.11675e-09
3.56477e-09
-3.47766e-09
3.93898e-09
-3.15205e-09
4.08583e-09
-2.27414e-09
4.29753e-09
-2.22218e-09
4.37392e-09
-2.18429e-09
4.55531e-09
-1.80735e-09
4.74904e-09
-1.44833e-09
5.01246e-09
-1.29957e-09
5.28261e-09
-1.13643e-09
5.4539e-09
-1.39634e-09
5.69267e-09
-9.2935e-10
5.78284e-09
-8.02984e-10
5.74147e-09
-7.03841e-10
5.87999e-09
-9.46678e-10
5.89826e-09
-7.32233e-10
5.95813e-09
-5.67071e-10
6.02961e-09
-4.34303e-10
6.08062e-09
-3.43825e-10
6.11154e-09
-3.00263e-10
6.16669e-09
-3.26298e-10
6.21394e-09
-3.44706e-10
6.24629e-09
-2.98218e-10
6.21875e-09
-2.05776e-10
6.17752e-09
-1.49087e-10
6.15819e-09
-7.0132e-11
6.16884e-09
-4.97112e-11
6.1882e-09
1.19012e-11
6.19891e-09
1.12549e-10
6.18286e-09
1.43377e-10
6.14922e-09
1.69198e-10
6.13633e-09
1.40293e-10
6.06622e-09
2.29948e-10
5.99575e-09
4.03737e-10
6.06947e-09
1.29154e-10
5.92392e-09
4.85099e-10
5.78461e-09
5.38418e-10
5.75139e-09
7.08307e-10
5.58974e-09
5.47097e-10
5.50784e-09
7.41682e-10
5.47882e-09
8.12648e-10
5.38902e-09
8.83539e-10
5.21105e-09
1.0767e-09
5.20345e-09
8.25423e-10
5.01978e-09
1.36124e-09
4.59784e-09
1.24355e-09
4.61731e-09
1.32329e-09
4.29176e-09
1.6279e-09
4.08493e-09
1.51264e-09
3.74099e-09
1.73731e-09
3.40971e-09
2.04561e-09
3.02545e-09
1.82017e-09
2.8663e-09
2.24847e-09
2.7204e-09
2.38979e-09
2.56735e-09
2.57296e-09
2.3868e-09
2.69647e-09
2.02126e-09
2.83917e-09
1.55653e-09
3.23981e-09
1.15356e-09
3.2007e-09
8.82748e-10
3.02216e-09
5.95161e-10
2.67504e-09
3.35958e-10
2.34517e-09
7.73165e-11
1.89642e-09
-1.41867e-10
1.34178e-09
-3.06614e-10
8.14434e-10
-3.96576e-10
3.12808e-10
-3.60553e-10
-1.57101e-10
-2.85871e-10
-2.94928e-10
-1.9818e-10
-2.93046e-10
3.53313e-11
-9.32591e-12
1.86081e-10
5.34967e-10
7.49771e-11
1.4772e-09
-9.19337e-17
1.76403e-09
9.14292e-19
1.6784e-18
9.32092e-19
1.30016e-18
9.73284e-19
1.05515e-18
9.9333e-19
8.73677e-19
9.91266e-19
7.12236e-19
9.80362e-19
5.49937e-19
9.75656e-19
3.80507e-19
9.88927e-19
2.06464e-19
1.0271e-18
3.51295e-20
1.09226e-18
-1.24279e-19
1.18244e-18
-2.62706e-19
1.29265e-18
-3.72618e-19
1.41601e-18
-4.4877e-19
1.54477e-18
-4.88484e-19
1.67116e-18
-4.91562e-19
1.78799e-18
-4.59945e-19
1.88913e-18
-3.97237e-19
1.96969e-18
-3.0817e-19
2.02616e-18
-1.981e-19
2.05629e-18
-7.25634e-20
2.05904e-18
6.30769e-20
2.03435e-18
2.03883e-19
1.98298e-18
3.45504e-19
1.90629e-18
4.84251e-19
1.80609e-18
6.17119e-19
1.68448e-18
7.41749e-19
1.54373e-18
8.56367e-19
1.38614e-18
9.597e-19
1.21407e-18
1.05089e-18
1.02979e-18
1.12939e-18
8.35511e-19
1.19492e-18
6.3336e-19
1.24733e-18
4.25387e-19
1.2866e-18
2.13574e-19
1.31275e-18
1.32581e-18
-3.56006e-11
1.67625e-10
-5.66087e-11
6.81179e-11
-1.97976e-11
-2.68948e-10
-7.0778e-11
-4.09508e-10
-3.86794e-11
-8.90448e-10
-1.01001e-10
-1.29836e-09
7.90479e-11
-2.05945e-09
2.59934e-10
-2.8281e-09
5.21612e-10
-3.99958e-09
1.32189e-09
-4.82995e-09
2.001e-09
-4.89915e-09
2.40361e-09
-4.68459e-09
2.62556e-09
-4.3387e-09
2.9584e-09
-3.8105e-09
3.40661e-09
-3.60025e-09
3.63955e-09
-2.50709e-09
3.82629e-09
-2.40892e-09
3.81344e-09
-2.17144e-09
4.00217e-09
-1.99608e-09
4.15577e-09
-1.60194e-09
4.36358e-09
-1.50738e-09
4.71258e-09
-1.48543e-09
4.73958e-09
-1.42334e-09
4.91157e-09
-1.10135e-09
5.04443e-09
-9.35845e-10
5.09789e-09
-7.57299e-10
5.11995e-09
-9.68741e-10
5.17247e-09
-7.84753e-10
5.19371e-09
-5.88311e-10
5.2555e-09
-4.96091e-10
5.30708e-09
-3.95405e-10
5.36443e-09
-3.57615e-10
5.37018e-09
-3.32051e-10
5.36874e-09
-3.43269e-10
5.41167e-09
-3.41152e-10
5.42114e-09
-2.1524e-10
5.4059e-09
-1.33854e-10
5.39089e-09
-5.51229e-11
5.34539e-09
-4.2081e-12
5.30594e-09
5.1353e-11
5.30239e-09
1.16092e-10
5.29748e-09
1.48287e-10
5.27881e-09
1.87869e-10
5.23976e-09
1.79337e-10
5.2429e-09
2.26806e-10
5.18575e-09
4.60894e-10
5.26627e-09
4.86315e-11
5.12119e-09
6.30176e-10
5.00441e-09
6.55195e-10
5.043e-09
6.69719e-10
4.9286e-09
6.61499e-10
4.73281e-09
9.37465e-10
4.83818e-09
7.07277e-10
4.62441e-09
1.09731e-09
4.60597e-09
1.09513e-09
4.38687e-09
1.04452e-09
4.27719e-09
1.47093e-09
4.15509e-09
1.36564e-09
3.68227e-09
1.79611e-09
3.69447e-09
1.61569e-09
3.46792e-09
1.73918e-09
3.21756e-09
1.98767e-09
3.11099e-09
2.15218e-09
2.85483e-09
2.07633e-09
2.7116e-09
2.39171e-09
2.66462e-09
2.43677e-09
2.47854e-09
2.75904e-09
2.18896e-09
2.98605e-09
1.84018e-09
3.18795e-09
1.60187e-09
3.47812e-09
1.12627e-09
3.6763e-09
6.95899e-10
3.45254e-09
3.81813e-10
2.98913e-09
1.886e-10
2.53839e-09
-4.8977e-11
2.13399e-09
-3.32838e-10
1.62564e-09
-4.89821e-10
9.71417e-10
-5.74745e-10
3.97733e-10
-4.96784e-10
-2.35062e-10
-4.05614e-10
-3.86098e-10
-2.67756e-10
-4.30904e-10
-8.24432e-11
-1.94638e-10
1.0813e-10
3.44394e-10
2.81087e-11
1.55722e-09
-5.39727e-18
1.79214e-09
5.36826e-19
1.68881e-18
6.87784e-19
1.1495e-18
7.92008e-19
9.51322e-19
8.31888e-19
8.34266e-19
8.28967e-19
7.15697e-19
8.10931e-19
5.68589e-19
8.01613e-19
3.90519e-19
8.17592e-19
1.91253e-19
8.67691e-19
-1.41438e-20
9.53835e-19
-2.09574e-19
1.07253e-18
-3.80571e-19
1.2165e-18
-5.15831e-19
1.3763e-18
-6.07927e-19
1.5417e-18
-6.53375e-19
1.70278e-18
-6.5227e-19
1.8507e-18
-6.07628e-19
1.97819e-18
-5.24605e-19
2.07976e-18
-4.09709e-19
2.15169e-18
-2.70081e-19
2.19193e-18
-1.12913e-19
2.19985e-18
5.50036e-20
2.17597e-18
2.27566e-19
2.12173e-18
3.99533e-19
2.03916e-18
5.66585e-19
1.93072e-18
7.25306e-19
1.7991e-18
8.73112e-19
1.64706e-18
1.00815e-18
1.47733e-18
1.12915e-18
1.29258e-18
1.23537e-18
1.09532e-18
1.32637e-18
8.87923e-19
1.40203e-18
6.7263e-19
1.46234e-18
4.51536e-19
1.50741e-18
2.26637e-19
1.53736e-18
1.55231e-18
-9.8602e-12
1.77484e-10
4.83675e-11
9.88841e-12
9.20214e-11
-3.12603e-10
9.14909e-11
-4.08979e-10
1.19338e-10
-9.18297e-10
2.4099e-10
-1.42001e-09
5.40701e-10
-2.35916e-09
9.05626e-10
-3.19303e-09
1.15125e-09
-4.2452e-09
1.58504e-09
-5.26374e-09
1.88976e-09
-5.20388e-09
2.20579e-09
-5.00061e-09
2.4523e-09
-4.58521e-09
2.6422e-09
-4.0004e-09
2.75099e-09
-3.70904e-09
3.09362e-09
-2.84972e-09
3.59659e-09
-2.91189e-09
3.55563e-09
-2.13049e-09
3.66869e-09
-2.10913e-09
3.6548e-09
-1.58805e-09
3.76911e-09
-1.6217e-09
3.85403e-09
-1.57036e-09
3.90003e-09
-1.46934e-09
4.10656e-09
-1.30787e-09
4.27182e-09
-1.10111e-09
4.42509e-09
-9.10571e-10
4.33864e-09
-8.82292e-10
4.35987e-09
-8.05984e-10
4.35305e-09
-5.81485e-10
4.38927e-09
-5.32316e-10
4.41847e-09
-4.246e-10
4.44954e-09
-3.88695e-10
4.46714e-09
-3.4965e-10
4.46383e-09
-3.39952e-10
4.44593e-09
-3.23258e-10
4.43944e-09
-2.08751e-10
4.44606e-09
-1.40469e-10
4.44976e-09
-5.88276e-11
4.44747e-09
-1.91986e-12
4.40852e-09
9.02998e-11
4.43442e-09
9.01933e-11
4.44976e-09
1.32952e-10
4.4565e-09
1.81123e-10
4.40633e-09
2.29508e-10
4.42073e-09
2.12402e-10
4.38686e-09
4.94769e-10
4.21464e-09
2.2085e-10
4.27504e-09
5.69772e-10
4.24677e-09
6.83467e-10
4.13967e-09
7.76816e-10
4.09648e-09
7.0469e-10
3.90001e-09
1.13393e-09
3.9393e-09
6.67981e-10
3.76451e-09
1.27211e-09
3.56334e-09
1.2963e-09
3.55716e-09
1.0507e-09
3.56099e-09
1.4671e-09
3.49148e-09
1.43515e-09
3.56758e-09
1.72001e-09
3.53531e-09
1.64797e-09
3.22305e-09
2.05145e-09
2.94436e-09
2.26636e-09
2.83912e-09
2.25742e-09
2.52348e-09
2.39196e-09
2.18342e-09
2.73177e-09
1.7053e-09
2.91488e-09
1.463e-09
3.00134e-09
1.29083e-09
3.15822e-09
1.10947e-09
3.36931e-09
1.12655e-09
3.46104e-09
1.31688e-09
3.48596e-09
1.26715e-09
3.50226e-09
6.95783e-10
3.5605e-09
1.55794e-10
3.07838e-09
-1.36281e-10
2.42607e-09
-3.08071e-10
1.79743e-09
-5.07928e-10
1.17127e-09
-6.58525e-10
5.4833e-10
-6.82069e-10
-2.11517e-10
-6.04304e-10
-4.63862e-10
-5.00245e-10
-5.34963e-10
-3.34179e-10
-3.60704e-10
-1.17635e-10
1.27851e-10
8.31042e-13
1.43876e-09
8.9879e-17
1.79297e-09
-1.73239e-21
2.88726e-19
4.90279e-19
6.57705e-19
6.75036e-19
7.66711e-19
7.1332e-19
7.96193e-19
6.81859e-19
7.47449e-19
6.32861e-19
6.17974e-19
6.02347e-19
4.2153e-19
6.12196e-19
1.82021e-19
6.7226e-19
-7.34681e-20
7.82839e-19
-3.19313e-19
9.37266e-19
-5.34107e-19
1.1244e-18
-7.02087e-19
1.33085e-18
-8.1357e-19
1.5428e-18
-8.64645e-19
1.74742e-18
-8.56345e-19
1.93372e-18
-7.93535e-19
2.09309e-18
-6.83712e-19
2.21939e-18
-5.35866e-19
2.30886e-18
-3.59514e-19
2.35985e-18
-1.6394e-19
2.37241e-18
4.23359e-20
2.34794e-18
2.51882e-19
2.28878e-18
4.58505e-19
2.19788e-18
6.5727e-19
2.07853e-18
8.44424e-19
1.93414e-18
1.01726e-18
1.76807e-18
1.17396e-18
1.58354e-18
1.31341e-18
1.38359e-18
1.43505e-18
1.17097e-18
1.53871e-18
9.48234e-19
1.62448e-18
7.17698e-19
1.69259e-18
4.81489e-19
1.74333e-18
2.41584e-19
1.77698e-18
1.79375e-18
-2.23556e-11
1.99839e-10
1.80113e-10
-1.92582e-10
3.06375e-10
-4.38867e-10
5.36676e-10
-6.39282e-10
6.49192e-10
-1.03081e-09
8.56129e-10
-1.62695e-09
1.0418e-09
-2.54483e-09
1.22347e-09
-3.3747e-09
1.38923e-09
-4.41097e-09
1.51013e-09
-5.38464e-09
1.81035e-09
-5.5041e-09
2.13707e-09
-5.32733e-09
2.28789e-09
-4.73604e-09
2.40508e-09
-4.11758e-09
2.44274e-09
-3.74671e-09
2.56923e-09
-2.9762e-09
2.6262e-09
-2.96886e-09
2.66083e-09
-2.16512e-09
2.95552e-09
-2.40381e-09
3.01232e-09
-1.64485e-09
3.13069e-09
-1.74006e-09
3.17615e-09
-1.61582e-09
3.24634e-09
-1.53953e-09
3.3032e-09
-1.36474e-09
3.39071e-09
-1.18862e-09
3.48887e-09
-1.00873e-09
3.51429e-09
-9.07716e-10
3.51042e-09
-8.02119e-10
3.52977e-09
-6.00831e-10
3.52465e-09
-5.27196e-10
3.55104e-09
-4.50992e-10
3.55136e-09
-3.8902e-10
3.55732e-09
-3.55606e-10
3.51625e-09
-2.98888e-10
3.46063e-09
-2.67637e-10
3.46194e-09
-2.1006e-10
3.48311e-09
-1.61638e-10
3.51906e-09
-9.47808e-11
3.55372e-09
-3.65813e-11
3.56779e-09
7.62277e-11
3.58469e-09
7.32912e-11
3.58004e-09
1.37603e-10
3.5549e-09
2.06266e-10
3.53036e-09
2.54042e-10
3.47603e-09
2.66732e-10
3.50134e-09
4.69458e-10
3.32897e-09
3.93221e-10
3.28158e-09
6.1716e-10
3.29471e-09
6.70336e-10
3.27999e-09
7.91542e-10
3.14056e-09
8.44115e-10
3.28339e-09
9.91101e-10
3.03762e-09
9.13754e-10
3.13162e-09
1.17811e-09
3.05773e-09
1.37019e-09
2.93298e-09
1.17544e-09
2.66541e-09
1.73468e-09
2.42545e-09
1.67511e-09
2.26159e-09
1.88387e-09
1.95271e-09
1.95684e-09
1.91452e-09
2.08964e-09
1.86423e-09
2.31665e-09
1.6907e-09
2.43095e-09
1.50741e-09
2.57525e-09
1.38252e-09
2.85666e-09
1.20226e-09
3.09515e-09
8.97138e-10
3.30646e-09
6.1028e-10
3.44508e-09
4.07548e-10
3.57204e-09
8.19775e-11
3.78661e-09
-3.45321e-10
3.91326e-09
-6.51906e-10
3.80885e-09
-5.19824e-10
3.42842e-09
-4.47726e-10
3.00628e-09
-5.45527e-10
2.52387e-09
-5.98809e-10
1.85072e-09
-6.63015e-10
1.23548e-09
-7.45485e-10
6.308e-10
-8.18536e-10
-1.38465e-10
-7.90469e-10
-4.91929e-10
-7.23073e-10
-6.02359e-10
-5.7161e-10
-5.12167e-10
-3.89687e-10
-5.40724e-11
9.13184e-11
9.57751e-10
1.71007e-16
1.88429e-09
3.67885e-19
3.09718e-19
5.99863e-19
4.25796e-19
7.04532e-19
6.61893e-19
6.64576e-19
8.36048e-19
5.52384e-19
8.59616e-19
4.36417e-19
7.34009e-19
3.62838e-19
4.95295e-19
3.56706e-19
1.88488e-19
4.26415e-19
-1.42666e-19
5.68045e-19
-4.60255e-19
7.69287e-19
-7.34517e-19
1.01292e-18
-9.44812e-19
1.27977e-18
-1.07953e-18
1.5511e-18
-1.13516e-18
1.81023e-18
-1.11478e-18
2.04355e-18
-1.0263e-18
2.24094e-18
-8.80699e-19
2.39574e-18
-6.90406e-19
2.50443e-18
-4.68067e-19
2.56612e-18
-2.25589e-19
2.58195e-18
2.64596e-20
2.55456e-18
2.79166e-19
2.48754e-18
5.25369e-19
2.38503e-18
7.59592e-19
2.25137e-18
9.77876e-19
2.09083e-18
1.17756e-18
1.90752e-18
1.35703e-18
1.70519e-18
1.51549e-18
1.48725e-18
1.65273e-18
1.25674e-18
1.76896e-18
1.01634e-18
1.8646e-18
7.68439e-19
1.94022e-18
5.15138e-19
1.99636e-18
2.58352e-19
2.03349e-18
2.05197e-18
2.88179e-10
-8.83413e-11
5.45715e-10
-4.50119e-10
7.05051e-10
-5.98205e-10
1.00926e-09
-9.43494e-10
1.27922e-09
-1.30077e-09
1.41765e-09
-1.76538e-09
1.4809e-09
-2.60808e-09
1.51171e-09
-3.40552e-09
1.46885e-09
-4.36812e-09
1.57332e-09
-5.48911e-09
1.80158e-09
-5.73235e-09
1.97024e-09
-5.496e-09
2.05303e-09