/*--------------------------------*- C++ -*----------------------------------*\
  =========                 |
  \\      /  F ield         | OpenFOAM: The Open Source CFD Toolbox
   \\    /   O peration     | Website:  https://openfoam.org
    \\  /    A nd           | Version:  6
     \\/     M anipulation  |
\*---------------------------------------------------------------------------*/
FoamFile
{
    version     2.0;
    format      ascii;
    class       volScalarField;
    location    "4000";
    object      T;
}
// * * * * * * * * * * * * * * * * * * * * * * * * * * * * * * * * * * * * * //

dimensions      [0 0 0 1 0 0 0];

internalField   nonuniform List<scalar> 
4800
(
552.486
552.36
552.238
552.12
552.007
551.9
551.797
551.7
551.609
551.525
551.445
551.369
551.299
551.235
551.175
551.119
551.065
551.014
550.966
550.921
550.877
550.835
550.795
550.756
550.72
550.685
550.652
550.621
550.592
550.564
550.537
550.511
550.486
550.463
550.44
550.419
550.399
550.379
550.36
550.343
550.325
550.309
550.293
550.277
550.263
550.248
550.235
550.221
550.208
550.195
550.181
550.168
550.154
550.138
550.122
550.103
550.082
550.057
550.027
549.99
549.946
549.892
549.825
549.744
549.643
549.522
549.376
549.205
549.007
548.783
548.537
548.273
547.999
547.722
547.448
547.18
546.922
546.674
546.438
546.211
545.994
545.783
545.579
545.381
545.19
545.009
544.837
544.674
544.519
544.369
544.225
544.084
543.947
543.813
543.682
543.552
543.424
543.298
543.172
543.048
542.924
542.8
542.678
542.555
542.433
542.311
542.189
542.068
541.946
541.825
541.703
541.582
541.46
541.339
541.218
541.096
540.975
540.853
540.732
540.611
552.486
552.358
552.234
552.114
551.999
551.889
551.783
551.684
551.591
551.503
551.424
551.347
551.275
551.21
551.15
551.094
551.04
550.99
550.943
550.898
550.855
550.813
550.774
550.736
550.7
550.666
550.634
550.603
550.575
550.547
550.521
550.496
550.472
550.449
550.427
550.406
550.386
550.367
550.349
550.331
550.315
550.298
550.283
550.268
550.254
550.24
550.226
550.213
550.2
550.187
550.174
550.16
550.146
550.131
550.114
550.095
550.074
550.048
550.018
549.981
549.937
549.882
549.815
549.732
549.631
549.509
549.363
549.192
548.994
548.772
548.527
548.264
547.988
547.71
547.434
547.165
546.906
546.658
546.422
546.196
545.98
545.771
545.569
545.373
545.184
545.003
544.833
544.671
544.516
544.367
544.222
544.082
543.946
543.812
543.681
543.551
543.424
543.297
543.172
543.047
542.923
542.8
542.677
542.555
542.433
542.311
542.189
542.067
541.946
541.824
541.703
541.582
541.46
541.339
541.218
541.096
540.975
540.853
540.732
540.611
552.484
552.354
552.226
552.101
551.981
551.866
551.756
551.652
551.554
551.462
551.382
551.303
551.23
551.162
551.102
551.046
550.993
550.944
550.897
550.854
550.812
550.772
550.733
550.697
550.662
550.629
550.598
550.569
550.542
550.516
550.491
550.467
550.444
550.422
550.401
550.381
550.362
550.344
550.327
550.31
550.294
550.279
550.264
550.249
550.236
550.222
550.209
550.197
550.184
550.172
550.159
550.145
550.131
550.116
550.099
550.08
550.058
550.032
550.001
549.964
549.918
549.862
549.793
549.709
549.607
549.484
549.337
549.165
548.968
548.746
548.502
548.239
547.964
547.684
547.407
547.138
546.878
546.63
546.394
546.169
545.955
545.749
545.55
545.357
545.171
544.993
544.824
544.664
544.51
544.362
544.218
544.079
543.943
543.81
543.679
543.55
543.422
543.296
543.171
543.046
542.923
542.799
542.677
542.554
542.432
542.31
542.189
542.067
541.946
541.824
541.703
541.581
541.46
541.339
541.217
541.096
540.975
540.853
540.732
540.611
552.482
552.348
552.214
552.083
551.956
551.834
551.717
551.607
551.503
551.406
551.32
551.24
551.164
551.096
551.034
550.979
550.926
550.877
550.833
550.791
550.751
550.713
550.676
550.641
550.608
550.577
550.547
550.521
550.495
550.471
550.448
550.426
550.404
550.383
550.364
550.345
550.328
550.311
550.295
550.28
550.265
550.25
550.236
550.223
550.21
550.197
550.185
550.173
550.161
550.149
550.137
550.124
550.11
550.094
550.077
550.058
550.035
550.009
549.976
549.937
549.89
549.832
549.761
549.675
549.572
549.447
549.3
549.127
548.93
548.708
548.464
548.203
547.929
547.65
547.372
547.101
546.84
546.592
546.357
546.134
545.922
545.72
545.525
545.336
545.153
544.978
544.812
544.653
544.501
544.354
544.212
544.074
543.938
543.806
543.676
543.547
543.42
543.294
543.169
543.045
542.921
542.798
542.676
542.554
542.432
542.31
542.188
542.067
541.945
541.824
541.702
541.581
541.46
541.339
541.217
541.096
540.975
540.853
540.732
540.611
552.48
552.34
552.2
552.062
551.927
551.796
551.671
551.553
551.441
551.338
551.245
551.161
551.084
551.013
550.951
550.895
550.843
550.795
550.752
550.712
550.675
550.639
550.603
550.571
550.54
550.511
550.484
550.46
550.437
550.415
550.394
550.373
550.354
550.335
550.317
550.3
550.284
550.269
550.255
550.241
550.227
550.214
550.201
550.189
550.177
550.165
550.154
550.143
550.132
550.12
550.108
550.095
550.081
550.066
550.049
550.029
550.005
549.977
549.944
549.903
549.854
549.794
549.72
549.632
549.526
549.399
549.25
549.077
548.88
548.659
548.418
548.159
547.887
547.609
547.33
547.058
546.797
546.549
546.314
546.093
545.884
545.685
545.495
545.31
545.132
544.96
544.796
544.64
544.489
544.344
544.204
544.067
543.933
543.801
543.672
543.544
543.417
543.292
543.167
543.043
542.92
542.797
542.675
542.553
542.431
542.309
542.187
542.066
541.945
541.823
541.702
541.581
541.46
541.338
541.217
541.096
540.974
540.853
540.732
540.611
552.477
552.331
552.184
552.039
551.896
551.757
551.623
551.495
551.375
551.264
551.164
551.074
550.993
550.92
550.857
550.8
550.748
550.701
550.659
550.621
550.585
550.552
550.519
550.49
550.462
550.435
550.411
550.389
550.368
550.349
550.33
550.312
550.295
550.278
550.262
550.247
550.233
550.219
550.207
550.194
550.182
550.171
550.159
550.148
550.137
550.127
550.116
550.106
550.096
550.085
550.073
550.061
550.047
550.031
550.013
549.993
549.968
549.939
549.904
549.861
549.809
549.746
549.671
549.579
549.471
549.343
549.192
549.018
548.819
548.599
548.358
548.101
547.832
547.557
547.281
547.011
546.75
546.503
546.269
546.05
545.844
545.648
545.461
545.281
545.106
544.938
544.777
544.623
544.475
544.333
544.194
544.059
543.926
543.796
543.667
543.54
543.414
543.289
543.165
543.041
542.918
542.796
542.673
542.551
542.43
542.308
542.187
542.065
541.944
541.823
541.701
541.58
541.459
541.338
541.217
541.096
540.974
540.853
540.732
540.611
552.474
552.322
552.169
552.017
551.867
551.719
551.576
551.438
551.308
551.189
551.08
550.982
550.896
550.821
550.755
550.697
550.645
550.598
550.557
550.521
550.487
550.456
550.426
550.4
550.375
550.351
550.33
550.31
550.292
550.276
550.26
550.244
550.229
550.214
550.2
550.187
550.175
550.163
550.152
550.142
550.131
550.121
550.111
550.101
550.092
550.083
550.073
550.064
550.054
550.044
550.032
550.02
550.006
549.99
549.972
549.95
549.925
549.893
549.856
549.811
549.757
549.691
549.612
549.517
549.406
549.275
549.123
548.948
548.75
548.531
548.291
548.036
547.77
547.499
547.227
546.96
546.702
546.456
546.224
546.007
545.802
545.608
545.425
545.248
545.077
544.912
544.754
544.604
544.459
544.319
544.183
544.049
543.918
543.789
543.662
543.535
543.41
543.286
543.162
543.039
542.916
542.794
542.672
542.55
542.428
542.307
542.186
542.064
541.943
541.822
541.701
541.58
541.459
541.338
541.216
541.095
540.974
540.853
540.732
540.611
552.471
552.313
552.155
551.997
551.84
551.685
551.533
551.385
551.244
551.113
550.995
550.89
550.797
550.717
550.648
550.59
550.537
550.491
550.451
550.416
550.384
550.354
550.327
550.304
550.282
550.262
550.243
550.227
550.212
550.197
550.184
550.17
550.157
550.145
550.133
550.123
550.112
550.103
550.093
550.084
550.076
550.067
550.058
550.05
550.042
550.034
550.025
550.017
550.008
549.998
549.986
549.974
549.96
549.943
549.924
549.901
549.874
549.841
549.802
549.755
549.697
549.629
549.547
549.449
549.334
549.201
549.047
548.872
548.675
548.457
548.221
547.969
547.707
547.439
547.172
546.909
546.654
546.411
546.181
545.964
545.76
545.568
545.386
545.212
545.044
544.882
544.728
544.582
544.441
544.304
544.17
544.039
543.91
543.783
543.656
543.531
543.406
543.282
543.159
543.036
542.914
542.792
542.67
542.548
542.427
542.306
542.184
542.063
541.942
541.821
541.7
541.579
541.458
541.337
541.216
541.095
540.974
540.853
540.732
540.611
552.469
552.307
552.145
551.982
551.819
551.656
551.495
551.337
551.185
551.042
550.913
550.799
550.699
550.614
550.541
550.481
550.427
550.382
550.342
550.308
550.278
550.25
550.226
550.205
550.187
550.17
550.154
550.14
550.128
550.116
550.105
550.094
550.083
550.073
550.063
550.054
550.046
550.038
550.031
550.023
550.016
550.009
550.002
549.995
549.987
549.98
549.972
549.965
549.956
549.947
549.935
549.923
549.908
549.891
549.87
549.846
549.817
549.782
549.741
549.691
549.631
549.56
549.474
549.374
549.256
549.12
548.963
548.787
548.59
548.375
548.144
547.899
547.642
547.38
547.118
546.861
546.61
546.37
546.141
545.924
545.719
545.525
545.343
545.171
545.006
544.848
544.699
544.557
544.421
544.288
544.157
544.029
543.902
543.775
543.65
543.526
543.402
543.279
543.156
543.033
542.911
542.789
542.668
542.546
542.425
542.304
542.183
542.062
541.941
541.82
541.699
541.578
541.457
541.336
541.216
541.095
540.974
540.853
540.732
540.611
552.468
552.303
552.138
551.972
551.803
551.633
551.463
551.294
551.129
550.974
550.833
550.709
550.603
550.512
550.435
550.372
550.317
550.272
550.233
550.201
550.172
550.147
550.125
550.106
550.09
550.077
550.064
550.053
550.043
550.033
550.024
550.015
550.007
549.999
549.991
549.984
549.978
549.971
549.965
549.96
549.954
549.948
549.942
549.936
549.93
549.924
549.916
549.909
549.901
549.891
549.879
549.866
549.85
549.832
549.811
549.784
549.754
549.717
549.673
549.62
549.557
549.483
549.395
549.292
549.172
549.034
548.877
548.699
548.503
548.289
548.059
547.818
547.569
547.317
547.064
546.814
546.57
546.333
546.105
545.887
545.68
545.483
545.298
545.125
544.962
544.808
544.665
544.53
544.399
544.271
544.144
544.018
543.893
543.768
543.644
543.521
543.398
543.275
543.152
543.03
542.909
542.787
542.666
542.545
542.423
542.303
542.182
542.061
541.94
541.819
541.698
541.578
541.457
541.336
541.215
541.094
540.973
540.852
540.731
540.61
552.468
552.302
552.135
551.965
551.791
551.613
551.432
551.251
551.074
550.906
550.754
550.621
550.507
550.411
550.331
550.265
550.209
550.164
550.126
550.095
550.068
550.045
550.025
550.009
549.996
549.985
549.975
549.966
549.958
549.951
549.944
549.937
549.93
549.924
549.918
549.913
549.908
549.903
549.899
549.894
549.889
549.885
549.88
549.875
549.869
549.864
549.857
549.85
549.841
549.831
549.819
549.805
549.788
549.769
549.746
549.718
549.685
549.646
549.6
549.545
549.479
549.402
549.312
549.207
549.086
548.947
548.789
548.612
548.417
548.205
547.98
547.745
547.504
547.26
547.016
546.774
546.537
546.304
546.077
545.858
545.646
545.444
545.251
545.072
544.908
544.76
544.628
544.502
544.378
544.255
544.131
544.008
543.885
543.762
543.639
543.516
543.393
543.271
543.149
543.027
542.906
542.785
542.663
542.543
542.422
542.301
542.18
542.059
541.939
541.818
541.697
541.577
541.456
541.335
541.214
541.094
540.973
540.852
540.731
540.61
552.468
552.302
552.133
551.959
551.778
551.592
551.4
551.207
551.017
550.837
550.675
550.533
550.412
550.311
550.229
550.161
550.104
550.059
550.022
549.993
549.968
549.947
549.929
549.915
549.904
549.895
549.887
549.881
549.875
549.869
549.864
549.858
549.853
549.849
549.845
549.841
549.837
549.834
549.831
549.827
549.824
549.82
549.816
549.812
549.807
549.801
549.795
549.788
549.779
549.768
549.755
549.74
549.722
549.701
549.676
549.646
549.611
549.569
549.521
549.463
549.396
549.316
549.223
549.116
548.995
548.856
548.7
548.526
548.334
548.127
547.908
547.68
547.447
547.211
546.976
546.742
546.511
546.283
546.058
545.837
545.621
545.409
545.204
545.008
544.834
544.702
544.586
544.473
544.358
544.24
544.12
543.999
543.878
543.756
543.633
543.511
543.389
543.267
543.146
543.024
542.903
542.782
542.661
542.54
542.42
542.299
542.178
542.058
541.937
541.817
541.696
541.576
541.455
541.335
541.214
541.093
540.973
540.852
540.731
540.61
552.467
552.299
552.127
551.948
551.76
551.563
551.36
551.155
550.954
550.764
550.593
550.444
550.318
550.213
550.127
550.058
550.003
549.958
549.922
549.894
549.871
549.852
549.836
549.824
549.815
549.808
549.803
549.798
549.793
549.789
549.785
549.781
549.778
549.775
549.772
549.769
549.767
549.765
549.763
549.76
549.757
549.754
549.751
549.747
549.743
549.737
549.731
549.723
549.713
549.702
549.688
549.671
549.651
549.629
549.602
549.57
549.532
549.488
549.437
549.377
549.307
549.225
549.13
549.022
548.9
548.762
548.608
548.437
548.249
548.049
547.837
547.618
547.395
547.169
546.943
546.717
546.493
546.27
546.048
545.827
545.607
545.387
545.162
544.932
544.715
544.63
544.546
544.449
544.343
544.229
544.112
543.993
543.872
543.75
543.629
543.507
543.385
543.264
543.142
543.021
542.9
542.779
542.659
542.538
542.418
542.297
542.177
542.056
541.936
541.816
541.695
541.575
541.454
541.334
541.213
541.093
540.972
540.852
540.731
540.61
552.465
552.292
552.114
551.927
551.73
551.523
551.309
551.092
550.881
550.683
550.506
550.352
550.224
550.117
550.03
549.96
549.904
549.86
549.826
549.8
549.779
549.761
549.748
549.737
549.73
549.724
549.721
549.717
549.714
549.711
549.708
549.706
549.703
549.702
549.7
549.699
549.698
549.697
549.695
549.694
549.691
549.688
549.685
549.681
549.677
549.671
549.664
549.656
549.645
549.633
549.617
549.599
549.577
549.552
549.523
549.489
549.449
549.403
549.349
549.287
549.215
549.132
549.035
548.926
548.804
548.667
548.515
548.348
548.167
547.974
547.772
547.563
547.349
547.133
546.917
546.699
546.482
546.265
546.048
545.83
545.61
545.385
545.146
544.864
544.46
544.561
544.522
544.438
544.336
544.224
544.107
543.988
543.868
543.746
543.625
543.503
543.382
543.26
543.139
543.018
542.897
542.777
542.656
542.536
542.415
542.295
542.175
542.055
541.934
541.814
541.694
541.574
541.453
541.333
541.213
541.092
540.972
540.851
540.731
540.61
552.46
552.277
552.089
551.892
551.686
551.468
551.243
551.016
550.797
550.594
550.413
550.258
550.128
550.021
549.934
549.864
549.81
549.767
549.735
549.71
549.691
549.675
549.663
549.655
549.648
549.644
549.641
549.639
549.637
549.635
549.634
549.632
549.631
549.63
549.63
549.63
549.63
549.629
549.629
549.627
549.625
549.623
549.619
549.615
549.61
549.604
549.597
549.587
549.575
549.561
549.544
549.524
549.501
549.473
549.442
549.406
549.363
549.315
549.26
549.196
549.122
549.037
548.941
548.832
548.71
548.576
548.427
548.265
548.09
547.905
547.712
547.513
547.31
547.104
546.897
546.688
546.478
546.268
546.056
545.843
545.628
545.41
545.185
544.951
544.722
544.634
544.547
544.448
544.339
544.225
544.106
543.986
543.865
543.743
543.621
543.499
543.378
543.257
543.136
543.015
542.894
542.774
542.653
542.533
542.413
542.293
542.173
542.053
541.933
541.813
541.693
541.573
541.452
541.332
541.212
541.092
540.971
540.851
540.731
540.61
552.452
552.254
552.052
551.843
551.625
551.395
551.16
550.927
550.703
550.498
550.316
550.161
550.032
549.926
549.84
549.772
549.719
549.678
549.647
549.624
549.607
549.593
549.583
549.576
549.57
549.567
549.565
549.564
549.563
549.562
549.561
549.561
549.561
549.561
549.562
549.562
549.563
549.563
549.563
549.562
549.56
549.558
549.554
549.549
549.544
549.537
549.528
549.517
549.504
549.488
549.47
549.448
549.422
549.393
549.359
549.321
549.276
549.226
549.169
549.103
549.028
548.943
548.847
548.739
548.619
548.487
548.343
548.186
548.019
547.843
547.659
547.47
547.277
547.082
546.884
546.683
546.481
546.278
546.072
545.866
545.658
545.449
545.24
545.035
544.846
544.708
544.587
544.47
544.351
544.23
544.108
543.986
543.863
543.741
543.618
543.496
543.374
543.253
543.132
543.011
542.891
542.771
542.651
542.531
542.411
542.291
542.171
542.051
541.931
541.811
541.691
541.572
541.451
541.331
541.211
541.091
540.971
540.851
540.73
540.61
552.442
552.226
552.006
551.781
551.551
551.312
551.069
550.83
550.603
550.397
550.217
550.064
549.936
549.832
549.748
549.682
549.631
549.593
549.565
549.543
549.527
549.515
549.506
549.5
549.496
549.494
549.492
549.491
549.491
549.491
549.492
549.492
549.493
549.494
549.496
549.497
549.498
549.499
549.499
549.498
549.497
549.493
549.489
549.484
549.478
549.471
549.46
549.448
549.432
549.415
549.394
549.371
549.343
549.312
549.276
549.235
549.189
549.136
549.078
549.011
548.935
548.85
548.755
548.649
548.531
548.403
548.263
548.113
547.954
547.787
547.613
547.435
547.252
547.066
546.877
546.685
546.491
546.294
546.095
545.895
545.693
545.492
545.294
545.102
544.922
544.766
544.626
544.494
544.365
544.238
544.112
543.987
543.862
543.738
543.615
543.493
543.371
543.249
543.128
543.008
542.888
542.768
542.648
542.528
542.408
542.289
542.169
542.049
541.93
541.81
541.69
541.57
541.45
541.331
541.211
541.091
540.97
540.85
540.73
540.61
552.431
552.193
551.955
551.714
551.471
551.222
550.97
550.726
550.498
550.293
550.116
549.966
549.842
549.741
549.66
549.597
549.548
549.512
549.485
549.466
549.451
549.44
549.433
549.428
549.425
549.423
549.422
549.422
549.422
549.423
549.425
549.426
549.428
549.43
549.432
549.434
549.436
549.437
549.437
549.436
549.434
549.431
549.426
549.421
549.414
549.405
549.394
549.379
549.362
549.342
549.32
549.294
549.265
549.231
549.194
549.151
549.103
549.049
548.989
548.922
548.845
548.76
548.666
548.563
548.449
548.324
548.19
548.047
547.896
547.738
547.574
547.406
547.233
547.057
546.877
546.693
546.506
546.316
546.123
545.928
545.731
545.536
545.342
545.154
544.975
544.811
544.659
544.516
544.379
544.246
544.116
543.987
543.861
543.736
543.612
543.489
543.367
543.245
543.124
543.004
542.884
542.764
542.645
542.525
542.406
542.286
542.167
542.047
541.928
541.808
541.689
541.569
541.449
541.33
541.21
541.09
540.97
540.85
540.73
540.61
552.42
552.161
551.903
551.646
551.389
551.131
550.871
550.622
550.393
550.19
550.015
549.869
549.749
549.651
549.574
549.514
549.468
549.434
549.41
549.392
549.378
549.369
549.363
549.358
549.356
549.355
549.354
549.355
549.356
549.358
549.36
549.362
549.365
549.368
549.371
549.373
549.375
549.376
549.377
549.376
549.374
549.371
549.366
549.36
549.352
549.342
549.329
549.314
549.295
549.273
549.248
549.221
549.189
549.154
549.115
549.07
549.021
548.965
548.904
548.836
548.76
548.675
548.583
548.482
548.371
548.252
548.124
547.988
547.846
547.697
547.543
547.384
547.221
547.054
546.882
546.706
546.526
546.342
546.154
545.963
545.77
545.576
545.383
545.195
545.013
544.843
544.684
544.533
544.39
544.252
544.118
543.987
543.858
543.732
543.608
543.484
543.362
543.241
543.12
543
542.88
542.761
542.641
542.522
542.403
542.284
542.165
542.045
541.926
541.807
541.687
541.568
541.448
541.329
541.209
541.089
540.97
540.85
540.73
540.61
552.409
552.128
551.852
551.581
551.312
551.045
550.779
550.525
550.293
550.09
549.918
549.777
549.66
549.565
549.491
549.434
549.391
549.36
549.337
549.321
549.309
549.301
549.295
549.291
549.289
549.289
549.289
549.29
549.292
549.294
549.297
549.301
549.304
549.308
549.312
549.315
549.317
549.319
549.32
549.319
549.317
549.314
549.309
549.302
549.294
549.283
549.269
549.252
549.232
549.208
549.182
549.152
549.119
549.082
549.041
548.995
548.944
548.887
548.825
548.757
548.681
548.598
548.507
548.408
548.302
548.187
548.066
547.938
547.804
547.664
547.519
547.37
547.215
547.056
546.893
546.724
546.55
546.37
546.186
545.997
545.805
545.611
545.417
545.225
545.04
544.865
544.7
544.544
544.396
544.254
544.117
543.984
543.854
543.727
543.602
543.479
543.357
543.236
543.115
542.996
542.876
542.757
542.638
542.519
542.4
542.281
542.162
542.043
541.924
541.805
541.686
541.567
541.447
541.328
541.208
541.089
540.969
540.849
540.73
540.61
552.397
552.096
551.802
551.518
551.241
550.968
550.698
550.438
550.203
549.998
549.826
549.686
549.574
549.483
549.412
549.358
549.317
549.288
549.267
549.252
549.241
549.234
549.229
549.226
549.225
549.225
549.225
549.227
549.23
549.233
549.237
549.241
549.246
549.251
549.255
549.259
549.262
549.265
549.266
549.266
549.264
549.261
549.256
549.249
549.241
549.229
549.214
549.197
549.175
549.15
549.123
549.092
549.057
549.019
548.976
548.929
548.877
548.819
548.756
548.687
548.612
548.53
548.441
548.345
548.243
548.134
548.019
547.898
547.772
547.64
547.504
547.362
547.215
547.063
546.906
546.743
546.574
546.398
546.217
546.029
545.835
545.639
545.441
545.246
545.057
544.877
544.708
544.547
544.396
544.251
544.112
543.978
543.848
543.721
543.596
543.473
543.351
543.23
543.11
542.991
542.872
542.753
542.634
542.516
542.397
542.279
542.16
542.041
541.923
541.804
541.685
541.566
541.446
541.327
541.208
541.088
540.969
540.849
540.729
540.61
552.387
552.065
551.755
551.46
551.176
550.898
550.625
550.362
550.122
549.915
549.742
549.602
549.491
549.402
549.334
549.283
549.245
549.218
549.199
549.185
549.176
549.169
549.165
549.163
549.162
549.162
549.164
549.166
549.169
549.174
549.179
549.184
549.189
549.195
549.201
549.206
549.21
549.214
549.216
549.216
549.215
549.213
549.209
549.202
549.194
549.182
549.168
549.149
549.128
549.102
549.074
549.042
549.007
548.967
548.923
548.875
548.822
548.763
548.7
548.631
548.556
548.475
548.388
548.295
548.196
548.092
547.983
547.868
547.748
547.623
547.493
547.358
547.218
547.073
546.921
546.763
546.597
546.424
546.244
546.056
545.861
545.661
545.459
545.258
545.064
544.879
544.706
544.542
544.389
544.243
544.103
543.969
543.839
543.712
543.587
543.465
543.344
543.224
543.104
542.985
542.867
542.749
542.631
542.512
542.394
542.276
542.158
542.039
541.921
541.802
541.683
541.564
541.445
541.326
541.207
541.088
540.968
540.849
540.729
540.61
552.376
552.036
551.712
551.405
551.114
550.833
550.558
550.294
550.05
549.839
549.663
549.521
549.411
549.325
549.259
549.21
549.174
549.148
549.131
549.119
549.111
549.105
549.102
549.1
549.099
549.1
549.102
549.106
549.11
549.115
549.121
549.128
549.135
549.142
549.149
549.156
549.162
549.166
549.17
549.172
549.173
549.171
549.168
549.163
549.155
549.144
549.131
549.113
549.092
549.067
549.039
549.007
548.971
548.931
548.886
548.837
548.783
548.725
548.661
548.591
548.517
548.437
548.351
548.261
548.166
548.065
547.96
547.849
547.733
547.613
547.488
547.358
547.223
547.082
546.935
546.78
546.617
546.446
546.266
546.078
545.881
545.676
545.468
545.261
545.06
544.87
544.693
544.528
544.374
544.228
544.089
543.956
543.827
543.701
543.577
543.456
543.336
543.216
543.098
542.98
542.862
542.744
542.627
542.509
542.391
542.273
542.155
542.037
541.919
541.801
541.682
541.563
541.444
541.325
541.206
541.087
540.968
540.848
540.729
540.61
552.366
552.007
551.668
551.351
551.053
550.769
550.494
550.23
549.984
549.769
549.588
549.444
549.332
549.246
549.182
549.135
549.101
549.078
549.062
549.052
549.046
549.041
549.039
549.037
549.037
549.038
549.042
549.046
549.051
549.057
549.064
549.072
549.081
549.091
549.1
549.109
549.117
549.124
549.129
549.134
549.136
549.137
549.136
549.133
549.127
549.118
549.105
549.09
549.07
549.047
549.02
548.989
548.954
548.914
548.87
548.821
548.767
548.707
548.643
548.574
548.5
548.421
548.337
548.248
548.154
548.055
547.951
547.842
547.727
547.608
547.486
547.359
547.227
547.089
546.945
546.794
546.633
546.463
546.282
546.092
545.893
545.685
545.471
545.255
545.044
544.848
544.668
544.504
544.35
544.206
544.07
543.938
543.811
543.687
543.565
543.445
543.327
543.209
543.091
542.974
542.857
542.74
542.623
542.506
542.388
542.271
542.153
542.035
541.917
541.799
541.681
541.562
541.443
541.325
541.206
541.087
540.967
540.848
540.729
540.61
552.357
551.979
551.623
551.294
550.988
550.701
550.427
550.166
549.922
549.704
549.519
549.37
549.255
549.168
549.104
549.059
549.027
549.005
548.99
548.982
548.979
548.977
548.975
548.973
548.974
548.976
548.981
548.986
548.991
548.997
549.006
549.016
549.028
549.041
549.053
549.065
549.076
549.086
549.095
549.103
549.109
549.112
549.114
549.113
549.11
549.104
549.094
549.082
549.065
549.045
549.021
548.992
548.959
548.921
548.879
548.83
548.776
548.716
548.651
548.582
548.509
548.43
548.347
548.258
548.163
548.064
547.958
547.847
547.731
547.611
547.486
547.359
547.227
547.092
546.951
546.803
546.644
546.474
546.292
546.1
545.898
545.686
545.465
545.237
545.013
544.808
544.629
544.467
544.318
544.178
544.045
543.917
543.793
543.671
543.552
543.434
543.317
543.2
543.084
542.968
542.852
542.735
542.619
542.502
542.385
542.268
542.151
542.033
541.916
541.798
541.679
541.561
541.443
541.324
541.205
541.086
540.967
540.848
540.729
540.61
552.344
551.942
551.567
551.225
550.913
550.624
550.352
550.096
549.857
549.64
549.452
549.298
549.178
549.088
549.023
548.978
548.947
548.926
548.914
548.908
548.909
548.911
548.91
548.909
548.91
548.916
548.923
548.927
548.931
548.935
548.944
548.958
548.976
548.993
549.01
549.025
549.04
549.055
549.069
549.081
549.092
549.099
549.104
549.106
549.106
549.103
549.099
549.09
549.079
549.064
549.044
549.02
548.991
548.958
548.917
548.87
548.815
548.754
548.688
548.618
548.544
548.467
548.387
548.297
548.198
548.095
547.985
547.87
547.748
547.618
547.485
547.352
547.216
547.083
546.947
546.805
546.652
546.487
546.303
546.108
545.9
545.683
545.456
545.214
544.961
544.742
544.571
544.417
544.276
544.142
544.015
543.891
543.771
543.653
543.537
543.421
543.306
543.192
543.077
542.962
542.847
542.731
542.615
542.499
542.383
542.266
542.149
542.032
541.914
541.796
541.678
541.56
541.442
541.323
541.204
541.086
540.967
540.848
540.729
540.61
552.326
551.893
551.497
551.143
550.826
550.536
550.265
550.014
549.781
549.568
549.38
549.223
549.1
549.007
548.938
548.891
548.86
548.841
548.829
548.826
548.834
548.846
548.848
548.847
548.853
548.865
548.875
548.876
548.871
548.872
548.883
548.905
548.93
548.953
548.972
548.991
549.013
549.035
549.056
549.076
549.092
549.103
549.111
549.115
549.118
549.12
549.121
549.12
549.116
549.109
549.098
549.081
549.06
549.033
548.995
548.947
548.891
548.828
548.758
548.684
548.609
548.532
548.467
548.375
548.268
548.158
548.041
547.918
547.786
547.631
547.469
547.322
547.169
547.033
546.901
546.772
546.634
546.494
546.338
546.159
545.923
545.684
545.444
545.174
544.82
544.629
544.494
544.356
544.225
544.1
543.98
543.863
543.748
543.634
543.521
543.409
543.296
543.183
543.07
542.956
542.842
542.727
542.612
542.496
542.38
542.264
542.147
542.03
541.913
541.795
541.677
541.559
541.441
541.323
541.204
541.085
540.966
540.848
540.729
540.61
552.306
551.837
551.416
551.047
550.725
550.433
550.163
549.917
549.692
549.488
549.301
549.141
549.016
548.924
548.851
548.797
548.765
548.747
548.737
548.736
548.754
548.789
548.796
548.795
548.811
548.84
548.851
548.835
548.813
548.812
548.837
548.875
548.908
548.926
548.941
548.965
548.998
549.032
549.065
549.096
549.118
549.133
549.145
549.152
549.155
549.161
549.168
549.177
549.187
549.191
549.191
549.187
549.177
549.159
549.123
549.076
549.022
548.958
548.879
548.79
548.7
548.605
548.539
548.452
548.363
548.225
548.125
548.001
547.871
547.694
547.515
547.343
547.203
547.055
546.92
546.79
546.632
546.471
546.286
546.098
545.887
545.663
545.429
545.044
544.607
544.532
544.419
544.288
544.169
544.054
543.943
543.832
543.723
543.614
543.505
543.396
543.285
543.175
543.063
542.95
542.837
542.723
542.609
542.494
542.378
542.262
542.146
542.029
541.912
541.794
541.676
541.559
541.44
541.322
541.204
541.085
540.966
540.847
540.728
540.609
552.281
551.772
551.321
550.934
550.604
550.311
550.038
549.796
549.584
549.396
549.215
549.051
548.924
548.836
548.768
548.695
548.661
548.643
548.631
548.632
548.655
548.689
548.692
548.679
548.702
548.753
548.772
548.741
548.711
548.727
548.786
548.845
548.877
548.877
548.888
548.922
548.966
548.991
549.024
549.073
549.103
549.12
549.145
549.149
549.146
549.148
549.167
549.197
549.223
549.229
549.23
549.243
549.251
549.228
549.189
549.192
549.163
549.127
549.047
548.939
548.784
548.626
548.572
548.494
548.384
548.264
548.15
547.994
547.843
547.674
547.515
547.355
547.206
547.06
546.916
546.764
546.595
546.414
546.226
546.038
545.844
545.637
545.35
544.908
544.562
544.487
544.324
544.21
544.106
544.005
543.904
543.801
543.698
543.594
543.489
543.383
543.276
543.167
543.057
542.945
542.833
542.72
542.606
542.491
542.376
542.26
542.144
542.028
541.911
541.793
541.676
541.558
541.44
541.322
541.203
541.085
540.966
540.847
540.728
540.609
552.253
551.701
551.224
550.82
550.475
550.18
549.904
549.68
549.495
549.33
549.157
548.977
548.834
548.707
548.599
548.52
548.48
548.46
548.46
548.472
548.494
548.513
548.512
548.496
548.544
548.59
548.62
548.638
548.624
548.619
548.623
548.665
548.684
548.715
548.744
548.775
548.8
548.822
548.852
548.914
548.989
549.06
549.095
549.102
549.095
549.072
549.141
549.229
549.271
549.252
549.2
549.228
549.237
549.244
549.239
549.223
549.16
549.111
549.016
548.914
548.776
548.64
548.54
548.439
548.336
548.209
548.079
547.932
547.784
547.624
547.47
547.318
547.169
547.016
546.861
546.698
546.522
546.345
546.169
545.996
545.8
545.57
545.082
544.718
544.45
544.381
544.252
544.131
544.041
543.956
543.866
543.77
543.673
543.575
543.475
543.372
543.268
543.16
543.052
542.941
542.83
542.717
542.604
542.489
542.375
542.259
542.143
542.027
541.91
541.793
541.675
541.557
541.439
541.321
541.203
541.084
540.966
540.847
540.728
540.609
552.221
551.645
551.163
550.763
550.374
550.055
549.753
549.613
549.496
549.31
549.113
548.937
548.761
548.577
548.418
548.306
548.253
548.23
548.246
548.299
548.324
548.324
548.334
548.354
548.445
548.438
548.504
548.56
548.564
548.6
548.592
548.636
548.53
548.539
548.583
548.598
548.591
548.566
548.59
548.727
548.85
548.998
549.087
549.004
549.012
548.955
549.004
549.096
549.135
549.197
549.184
549.212
549.207
549.238
549.245
549.19
549.115
549.044
548.955
548.85
548.743
548.635
548.518
548.395
548.269
548.136
548
547.858
547.719
547.577
547.433
547.284
547.134
546.983
546.83
546.663
546.475
546.291
546.132
545.945
545.691
545.419
545.069
544.769
544.519
544.309
544.174
544.082
543.981
543.912
543.835
543.741
543.648
543.558
543.463
543.364
543.261
543.156
543.048
542.938
542.827
542.715
542.602
542.488
542.373
542.258
542.142
542.026
541.909
541.792
541.675
541.557
541.439
541.321
541.203