/*--------------------------------*- C++ -*----------------------------------*\
  =========                 |
  \\      /  F ield         | OpenFOAM: The Open Source CFD Toolbox
   \\    /   O peration     | Website:  https://openfoam.org
    \\  /    A nd           | Version:  6
     \\/     M anipulation  |
\*---------------------------------------------------------------------------*/
FoamFile
{
    version     2.0;
    format      ascii;
    class       volVectorField;
    location    "900";
    object      U;
}
// * * * * * * * * * * * * * * * * * * * * * * * * * * * * * * * * * * * * * //

dimensions      [0 1 -1 0 0 0 0];

internalField   nonuniform List<vector> 
5964
(
(0.00130027 0 -0.00449732)
(-0.00515147 0 0.0034491)
(-0.00713519 0 -0.000221559)
(-0.00829027 0 0.000552835)
(-0.00902833 0 -0.000198676)
(-0.00911689 0 -0.00059142)
(-0.00914456 0 -0.000468029)
(-0.00909824 0 0.000290849)
(-0.00746046 0 -0.00203654)
(-0.00664317 0 -0.000324642)
(-0.00555228 0 -0.00099543)
(-0.00529525 0 -0.000176742)
(-0.00464133 0 -0.000554783)
(-0.00432979 0 -0.000351085)
(-0.00414221 0 -0.000370126)
(-0.00412172 0 -0.000123721)
(-0.00393337 0 -0.000314235)
(-0.00363109 0 -0.000533156)
(-0.00327124 0 -0.000276106)
(-0.00248213 0 -0.000887422)
(-0.00154793 0 -0.000963309)
(-1.10619e-05 0 -0.00107334)
(2.7497e-09 0 1.16267e-09)
(4.90628e-09 0 5.52834e-10)
(3.97519e-09 0 3.19834e-10)
(3.40761e-09 0 2.11787e-10)
(3.01802e-09 0 1.52959e-10)
(2.72968e-09 0 1.16895e-10)
(2.50552e-09 0 9.28245e-11)
(2.32532e-09 0 7.5723e-11)
(2.17697e-09 0 6.29878e-11)
(2.05273e-09 0 5.3161e-11)
(1.94731e-09 0 4.53774e-11)
(1.85692e-09 0 3.90996e-11)
(1.77872e-09 0 3.3979e-11)
(1.71049e-09 0 2.97795e-11)
(1.65043e-09 0 2.63334e-11)
(1.59708e-09 0 2.35153e-11)
(1.5492e-09 0 2.12266e-11)
(1.50574e-09 0 1.93868e-11)
(1.46581e-09 0 1.7928e-11)
(1.42866e-09 0 1.67918e-11)
(1.39365e-09 0 1.59271e-11)
(1.36026e-09 0 1.52896e-11)
(1.32803e-09 0 1.48402e-11)
(1.2966e-09 0 1.45451e-11)
(1.26568e-09 0 1.43747e-11)
(1.23501e-09 0 1.43033e-11)
(1.20442e-09 0 1.43092e-11)
(1.17375e-09 0 1.43736e-11)
(1.1429e-09 0 1.44808e-11)
(1.11179e-09 0 1.46175e-11)
(1.08037e-09 0 1.47731e-11)
(1.04861e-09 0 1.49386e-11)
(1.01649e-09 0 1.5107e-11)
(9.84006e-10 0 1.52729e-11)
(9.51179e-10 0 1.54321e-11)
(9.18021e-10 0 1.55814e-11)
(8.84556e-10 0 1.57189e-11)
(8.5081e-10 0 1.58432e-11)
(8.16812e-10 0 1.59535e-11)
(7.82593e-10 0 1.60496e-11)
(7.48182e-10 0 1.61317e-11)
(7.13609e-10 0 1.62003e-11)
(6.78902e-10 0 1.62562e-11)
(6.44087e-10 0 1.63001e-11)
(6.0919e-10 0 1.63331e-11)
(5.74231e-10 0 1.63563e-11)
(5.39231e-10 0 1.63706e-11)
(5.04209e-10 0 1.63772e-11)
(4.69178e-10 0 1.63771e-11)
(4.34154e-10 0 1.63713e-11)
(3.99146e-10 0 1.63608e-11)
(3.64165e-10 0 1.63462e-11)
(3.29217e-10 0 1.63282e-11)
(2.94311e-10 0 1.63074e-11)
(2.59452e-10 0 1.62841e-11)
(2.24645e-10 0 1.62585e-11)
(1.89894e-10 0 1.62306e-11)
(1.55205e-10 0 1.62007e-11)
(1.20581e-10 0 1.61689e-11)
(8.60261e-11 0 1.61366e-11)
(5.15674e-11 0 1.6079e-11)
(1.71847e-11 0 1.60659e-11)
(-0.0026693 0 0.00492749)
(-0.0047613 0 0.00377804)
(-0.00635947 0 0.00119819)
(-0.00716124 0 0.00181212)
(-0.00783521 0 0.000950305)
(-0.00772402 0 6.87073e-05)
(-0.00742364 0 -0.000545796)
(-0.00742516 0 -0.000253676)
(-0.0056267 0 -0.00285774)
(-0.00518722 0 -0.000742396)
(-0.0033747 0 -0.0024898)
(-0.00389924 0 0.000821341)
(-0.00232093 0 -0.000943723)
(-0.00234401 0 -0.000265261)
(-0.00230709 0 -0.000260226)
(-0.00259292 0 -0.000132154)
(-0.00274454 0 -9.8264e-05)
(-0.00275993 0 -0.000292444)
(-0.00228169 0 -0.00102357)
(-0.00181828 0 -0.00118179)
(-0.00116451 0 -0.00161827)
(-1.69487e-05 0 -0.00199379)
(2.18382e-09 0 2.32016e-09)
(4.11871e-09 0 1.32725e-09)
(3.6577e-09 0 8.49614e-10)
(3.25314e-09 0 5.92044e-10)
(2.93081e-09 0 4.38815e-10)
(2.67484e-09 0 3.40097e-10)
(2.46828e-09 0 2.72301e-10)
(2.29854e-09 0 2.23287e-10)
(2.15687e-09 0 1.86366e-10)
(2.03715e-09 0 1.57648e-10)
(1.93495e-09 0 1.34773e-10)
(1.84697e-09 0 1.16248e-10)
(1.77063e-09 0 1.01097e-10)
(1.7039e-09 0 8.86484e-11)
(1.64508e-09 0 7.84226e-11)
(1.59277e-09 0 7.00567e-11)
(1.54576e-09 0 6.32631e-11)
(1.50303e-09 0 5.78048e-11)
(1.46373e-09 0 5.34808e-11)
(1.4271e-09 0 5.01174e-11)
(1.39254e-09 0 4.75628e-11)
(1.35951e-09 0 4.56845e-11)
(1.32759e-09 0 4.43661e-11)
(1.2964e-09 0 4.35062e-11)
(1.26567e-09 0 4.30166e-11)
(1.23516e-09 0 4.28211e-11)
(1.20468e-09 0 4.28542e-11)
(1.1741e-09 0 4.30603e-11)
(1.14331e-09 0 4.33923e-11)
(1.11225e-09 0 4.38111e-11)
(1.08085e-09 0 4.42843e-11)
(1.04909e-09 0 4.47859e-11)
(1.01697e-09 0 4.5295e-11)
(9.84484e-10 0 4.57953e-11)
(9.51642e-10 0 4.62745e-11)
(9.18465e-10 0 4.67237e-11)
(8.84979e-10 0 4.71365e-11)
(8.51211e-10 0 4.7509e-11)
(8.1719e-10 0 4.78394e-11)
(7.82948e-10 0 4.81269e-11)
(7.48516e-10 0 4.83723e-11)
(7.13923e-10 0 4.85771e-11)
(6.79198e-10 0 4.87434e-11)
(6.44367e-10 0 4.8874e-11)
(6.09455e-10 0 4.89718e-11)
(5.74483e-10 0 4.904e-11)
(5.39473e-10 0 4.90819e-11)
(5.04442e-10 0 4.91007e-11)
(4.69405e-10 0 4.90994e-11)
(4.34375e-10 0 4.90811e-11)
(3.99364e-10 0 4.90486e-11)
(3.6438e-10 0 4.90041e-11)
(3.29432e-10 0 4.89499e-11)
(2.94525e-10 0 4.88873e-11)
(2.59664e-10 0 4.88177e-11)
(2.24854e-10 0 4.87418e-11)
(1.90097e-10 0 4.86601e-11)
(1.55398e-10 0 4.85726e-11)
(1.20759e-10 0 4.84791e-11)
(8.61863e-11 0 4.83813e-11)
(5.16597e-11 0 4.82559e-11)
(1.72009e-11 0 4.82224e-11)
(-0.00312318 0 0.00609416)
(-0.00408116 0 0.004779)
(-0.00445571 0 0.00400181)
(-0.00638415 0 0.00218496)
(-0.00649943 0 0.00211629)
(-0.00662238 0 -0.00131603)
(-0.00634142 0 -0.00131946)
(-0.00644204 0 0.000617722)
(-0.00392444 0 -0.00430702)
(-0.0042404 0 -0.00174245)
(-0.0024875 0 -0.00281468)
(-0.00352256 0 0.00126322)
(-0.000454088 0 -0.00166733)
(-0.00022347 0 -0.000240708)
(-4.8444e-05 0 0.000630629)
(-0.000853536 0 0.00023794)
(-0.00128185 0 -1.99721e-05)
(-0.00142022 0 -0.000219895)
(-0.00152857 0 -0.000591049)
(-0.000946754 0 -0.00152065)
(-0.000871422 0 -0.00199636)
(-1.15508e-05 0 -0.00270689)
(1.82419e-09 0 2.31205e-09)
(3.53284e-09 0 1.649e-09)
(3.29043e-09 0 1.1861e-09)
(3.02645e-09 0 8.80713e-10)
(2.7853e-09 0 6.76866e-10)
(2.57663e-09 0 5.36211e-10)
(2.3987e-09 0 4.35347e-10)
(2.24711e-09 0 3.60286e-10)
(2.11752e-09 0 3.02586e-10)
(2.0062e-09 0 2.57045e-10)
(1.91013e-09 0 2.20381e-10)
(1.8268e-09 0 1.90463e-10)
(1.75414e-09 0 1.65864e-10)
(1.69039e-09 0 1.45584e-10)
(1.63404e-09 0 1.28894e-10)
(1.58381e-09 0 1.1523e-10)
(1.53856e-09 0 1.04137e-10)
(1.49733e-09 0 9.52345e-11)
(1.4593e-09 0 8.81956e-11)
(1.42375e-09 0 8.27359e-11)
(1.39008e-09 0 7.86059e-11)
(1.3578e-09 0 7.55867e-11)
(1.32649e-09 0 7.34864e-11)
(1.29581e-09 0 7.21372e-11)
(1.26547e-09 0 7.13935e-11)
(1.23527e-09 0 7.11294e-11)
(1.20504e-09 0 7.12368e-11)
(1.17463e-09 0 7.1624e-11)
(1.14397e-09 0 7.22135e-11)
(1.11299e-09 0 7.2941e-11)
(1.08164e-09 0 7.37534e-11)
(1.0499e-09 0 7.46079e-11)
(1.01778e-09 0 7.54706e-11)
(9.85269e-10 0 7.63148e-11)
(9.52396e-10 0 7.71208e-11)
(9.19179e-10 0 7.7874e-11)
(8.85647e-10 0 7.85646e-11)
(8.5183e-10 0 7.91865e-11)
(8.1776e-10 0 7.97366e-11)
(7.83469e-10 0 8.02143e-11)
(7.4899e-10 0 8.0621e-11)
(7.14352e-10 0 8.09595e-11)
(6.79585e-10 0 8.12336e-11)
(6.44717e-10 0 8.1448e-11)
(6.0977e-10 0 8.16076e-11)
(5.7477e-10 0 8.1718e-11)
(5.39734e-10 0 8.17845e-11)
(5.0468e-10 0 8.18126e-11)
(4.69625e-10 0 8.18076e-11)
(4.3458e-10 0 8.17744e-11)
(3.99557e-10 0 8.17177e-11)
(3.64565e-10 0 8.16417e-11)
(3.2961e-10 0 8.15497e-11)
(2.94697e-10 0 8.14448e-11)
(2.59832e-10 0 8.13292e-11)
(2.25017e-10 0 8.12047e-11)
(1.90253e-10 0 8.10725e-11)
(1.55542e-10 0 8.09325e-11)
(1.20885e-10 0 8.07835e-11)
(8.62829e-11 0 8.06264e-11)
(5.1728e-11 0 8.04716e-11)
(1.72303e-11 0 8.04321e-11)
(-0.00032938 0 0.00851972)
(-0.00152686 0 0.00686438)
(-0.00522191 0 0.00393928)
(-0.00415873 0 0.00421597)
(-0.00586705 0 0.000532677)
(-0.00558921 0 0.000465926)
(-0.00570796 0 -0.000437203)
(-0.00437973 0 -0.00344928)
(-0.00316773 0 -0.00408305)
(-0.00313505 0 -0.00292984)
(-0.00147777 0 -0.00340877)
(0.000951755 0 -0.00382349)
(0.00039182 0 -0.00273298)
(0.00174583 0 -0.00135893)
(0.00204207 0 3.33865e-06)
(0.00163717 0 0.000492178)
(0.00107747 0 0.00109641)
(0.000763961 0 0.000780368)
(-0.000728486 0 -0.000557461)
(-0.000291071 0 -0.00136936)
(-0.000158198 0 -0.00214207)
(-9.52676e-06 0 -0.0030478)
(1.56245e-09 0 2.30591e-09)
(3.06841e-09 0 1.79528e-09)
(2.94197e-09 0 1.38449e-09)
(2.77968e-09 0 1.08045e-09)
(2.61127e-09 0 8.59652e-10)
(2.45142e-09 0 6.9759e-10)
(2.30597e-09 0 5.75922e-10)
(2.17637e-09 0 4.82209e-10)
(2.06211e-09 0 4.08277e-10)
(1.96188e-09 0 3.48777e-10)
(1.87412e-09 0 3.00179e-10)
(1.79727e-09 0 2.60108e-10)
(1.72982e-09 0 2.26925e-10)
(1.67037e-09 0 1.99446e-10)
(1.61764e-09 0 1.76776e-10)
(1.57047e-09 0 1.58205e-10)
(1.52784e-09 0 1.43139e-10)
(1.48884e-09 0 1.31073e-10)
(1.45269e-09 0 1.21564e-10)
(1.41874e-09 0 1.14222e-10)
(1.38641e-09 0 1.08705e-10)
(1.35524e-09 0 1.0471e-10)
(1.32484e-09 0 1.01971e-10)
(1.2949e-09 0 1.00258e-10)
(1.26516e-09 0 9.93683e-11)
(1.23542e-09 0 9.91283e-11)
(1.20554e-09 0 9.93889e-11)
(1.17539e-09 0 1.00024e-10)
(1.14491e-09 0 1.00926e-10)
(1.11404e-09 0 1.02007e-10)
(1.08276e-09 0 1.03195e-10)
(1.05105e-09 0 1.04432e-10)
(1.01891e-09 0 1.05671e-10)
(9.86373e-10 0 1.06876e-10)
(9.53448e-10 0 1.08021e-10)
(9.20168e-10 0 1.09086e-10)
(8.86564e-10 0 1.10059e-10)
(8.5267e-10 0 1.10933e-10)
(8.18522e-10 0 1.11703e-10)
(7.84155e-10 0 1.1237e-10)
(7.49601e-10 0 1.12935e-10)
(7.14893e-10 0 1.13404e-10)
(6.80062e-10 0 1.13782e-10)
(6.45134e-10 0 1.14076e-10)
(6.10134e-10 0 1.14293e-10)
(5.75086e-10 0 1.1444e-10)
(5.40009e-10 0 1.14527e-10)
(5.04921e-10 0 1.1456e-10)
(4.69836e-10 0 1.14547e-10)
(4.34767e-10 0 1.14495e-10)
(3.99724e-10 0 1.14411e-10)
(3.64717e-10 0 1.143e-10)
(3.2975e-10 0 1.14168e-10)
(2.94829e-10 0 1.14019e-10)
(2.59957e-10 0 1.13857e-10)
(2.25135e-10 0 1.13685e-10)
(1.90365e-10 0 1.13504e-10)
(1.55644e-10 0 1.13315e-10)
(1.20974e-10 0 1.13118e-10)
(8.63513e-11 0 1.12913e-10)
(5.17709e-11 0 1.12721e-10)
(1.72451e-11 0 1.12684e-10)
(-0.00431559 0 0.00857735)
(-0.00163482 0 0.00785212)
(-0.00261419 0 0.00600147)
(-0.00443986 0 0.00271427)
(-0.00376792 0 0.00243067)
(-0.00438448 0 -0.00040497)
(-0.00390069 0 -0.000951355)
(-0.00268036 0 -0.00370848)
(-0.00274973 0 -0.0043567)
(-0.00106297 0 -0.00525925)
(-5.3268e-05 0 -0.00499199)
(0.00013819 0 -0.00408263)
(0.00151195 0 -0.00256343)
(0.0019173 0 -0.00197658)
(0.00221256 0 0.000868435)
(0.0020817 0 0.00156075)
(0.00214693 0 0.00106104)
(0.00175638 0 0.000419396)
(0.00114948 0 0.000653198)
(0.000151171 0 -0.00125648)
(0.000237944 0 -0.0018939)
(-5.42901e-06 0 -0.00312942)
(1.34627e-09 0 2.29938e-09)
(2.67439e-09 0 1.85428e-09)
(2.62479e-09 0 1.4894e-09)
(2.53827e-09 0 1.20731e-09)
(2.4297e-09 0 9.91037e-10)
(2.31353e-09 0 8.2366e-10)
(2.1993e-09 0 6.92091e-10)
(2.09216e-09 0 5.86887e-10)
(1.99437e-09 0 5.01405e-10)
(1.90658e-09 0 4.31032e-10)
(1.82853e-09 0 3.7257e-10)
(1.75949e-09 0 3.23778e-10)
(1.69848e-09 0 2.83039e-10)
(1.64446e-09 0 2.49138e-10)
(1.59636e-09 0 2.21107e-10)
(1.55316e-09 0 1.98142e-10)
(1.51392e-09 0 1.79543e-10)
(1.47783e-09 0 1.64697e-10)
(1.44416e-09 0 1.53055e-10)
(1.4123e-09 0 1.44129e-10)
(1.38172e-09 0 1.37486e-10)
(1.352e-09 0 1.32745e-10)
(1.32279e-09 0 1.2957e-10)
(1.29381e-09 0 1.27667e-10)
(1.26483e-09 0 1.26782e-10)
(1.23569e-09 0 1.26695e-10)
(1.20626e-09 0 1.27218e-10)
(1.17644e-09 0 1.28193e-10)
(1.14619e-09 0 1.29484e-10)
(1.11546e-09 0 1.30982e-10)
(1.08425e-09 0 1.32596e-10)
(1.05256e-09 0 1.34254e-10)
(1.0204e-09 0 1.35899e-10)
(9.87811e-10 0 1.37488e-10)
(9.5481e-10 0 1.38988e-10)
(9.21438e-10 0 1.40376e-10)
(8.87732e-10 0 1.41639e-10)
(8.53731e-10 0 1.42767e-10)
(8.19475e-10 0 1.43757e-10)
(7.85002e-10 0 1.4461e-10)
(7.50346e-10 0 1.4533e-10)
(7.15543e-10 0 1.45924e-10)
(6.80622e-10 0 1.464e-10)
(6.45613e-10 0 1.46766e-10)
(6.1054e-10 0 1.47034e-10)
(5.75428e-10 0 1.47212e-10)
(5.40294e-10 0 1.47312e-10)
(5.05158e-10 0 1.47344e-10)
(4.70033e-10 0 1.47317e-10)
(4.34931e-10 0 1.47241e-10)
(3.99861e-10 0 1.47124e-10)
(3.64833e-10 0 1.46974e-10)
(3.29851e-10 0 1.46798e-10)
(2.94918e-10 0 1.46603e-10)
(2.60038e-10 0 1.46392e-10)
(2.2521e-10 0 1.46171e-10)
(1.90433e-10 0 1.45942e-10)
(1.55707e-10 0 1.45707e-10)
(1.21027e-10 0 1.45465e-10)
(8.63928e-11 0 1.45219e-10)
(5.17956e-11 0 1.44994e-10)
(1.72526e-11 0 1.44957e-10)
(-0.00132152 0 0.0101185)
(-0.00245466 0 0.00838022)
(-0.00167973 0 0.00673423)
(-0.00223565 0 0.00426585)
(-0.00246789 0 0.00245013)
(-0.00266046 0 0.00142965)
(-0.00175394 0 -0.00300169)
(-0.00214835 0 -0.00356959)
(-0.000390924 0 -0.00561951)
(-0.00030106 0 -0.00597087)
(0.00101036 0 -0.00565496)
(0.00136938 0 -0.00493635)
(0.00180411 0 -0.00345178)
(0.00174499 0 -0.0027022)
(0.0021124 0 0.000266492)
(0.00259867 0 0.000720373)
(0.00177368 0 0.00217216)
(0.000842027 0 0.00230843)
(0.00118035 0 0.000937478)
(0.000637572 0 -0.00104435)
(0.000316827 0 -0.00181186)
(-3.72218e-06 0 -0.00294293)
(1.14589e-09 0 2.29272e-09)
(2.31442e-09 0 1.84337e-09)
(2.3398e-09 0 1.52189e-09)
(2.31615e-09 0 1.27659e-09)
(2.25476e-09 0 1.07966e-09)
(2.17389e-09 0 9.18433e-10)
(2.08639e-09 0 7.85238e-10)
(1.9997e-09 0 6.74357e-10)
(1.91785e-09 0 5.81363e-10)
(1.84273e-09 0 5.02913e-10)
(1.77502e-09 0 4.36545e-10)
(1.71463e-09 0 3.80439e-10)
(1.66101e-09 0 3.33206e-10)
(1.61335e-09 0 2.93723e-10)
(1.57077e-09 0 2.61033e-10)
(1.53235e-09 0 2.3428e-10)
(1.49725e-09 0 2.12685e-10)
(1.4647e-09 0 1.95535e-10)
(1.43404e-09 0 1.82184e-10)
(1.40472e-09 0 1.7205e-10)
(1.37627e-09 0 1.64615e-10)
(1.34831e-09 0 1.5942e-10)
(1.32054e-09 0 1.56063e-10)
(1.29271e-09 0 1.54192e-10)
(1.26465e-09 0 1.53502e-10)
(1.23621e-09 0 1.53732e-10)
(1.2073e-09 0 1.54656e-10)
(1.17787e-09 0 1.56085e-10)
(1.14787e-09 0 1.57862e-10)
(1.1173e-09 0 1.59854e-10)
(1.08616e-09 0 1.61957e-10)
(1.05448e-09 0 1.64086e-10)
(1.02228e-09 0 1.66175e-10)
(9.89603e-10 0 1.68175e-10)
(9.56495e-10 0 1.70049e-10)
(9.22997e-10 0 1.71773e-10)
(8.89156e-10 0 1.73332e-10)
(8.55015e-10 0 1.74716e-10)
(8.20618e-10 0 1.75925e-10)
(7.86007e-10 0 1.76961e-10)
(7.5122e-10 0 1.77831e-10)
(7.16294e-10 0 1.78543e-10)
(6.81259e-10 0 1.79108e-10)
(6.46147e-10 0 1.79538e-10)
(6.10982e-10 0 1.79847e-10)
(5.75787e-10 0 1.80048e-10)
(5.40583e-10 0 1.80152e-10)
(5.05386e-10 0 1.80174e-10)
(4.7021e-10 0 1.80125e-10)
(4.35066e-10 0 1.80017e-10)
(3.99964e-10 0 1.79861e-10)
(3.6491e-10 0 1.79666e-10)
(3.29909e-10 0 1.79442e-10)
(2.94963e-10 0 1.79195e-10)
(2.60074e-10 0 1.78933e-10)
(2.2524e-10 0 1.78662e-10)
(1.9046e-10 0 1.78385e-10)
(1.5573e-10 0 1.78104e-10)
(1.21047e-10 0 1.77819e-10)
(8.64077e-11 0 1.77534e-10)
(5.18061e-11 0 1.77277e-10)
(1.7257e-11 0 1.77241e-10)
(-0.000200901 0 0.0110117)
(-0.00112597 0 0.00918914)
(-0.00105981 0 0.00697272)
(-0.00154638 0 0.00462796)
(-0.00145751 0 0.00219026)
(-0.00130285 0 0.000711882)
(-0.00136744 0 -0.00187533)
(-0.000283557 0 -0.00415631)
(0.00143066 0 -0.00597922)
(0.00148505 0 -0.00662417)
(0.00160184 0 -0.0062428)
(0.00164644 0 -0.00530804)
(0.00194421 0 -0.00369599)
(0.00199505 0 -0.00274199)
(0.00197813 0 0.000558845)
(0.002279 0 0.00105597)
(0.00187448 0 0.00195867)
(0.00193942 0 0.00159088)
(0.00179517 0 0.00102234)
(0.00121368 0 -0.000160117)
(0.0002163 0 -0.00157203)
(-9.89767e-07 0 -0.00270476)
(9.261e-10 0 2.28566e-09)
(1.95688e-09 0 1.72072e-09)
(2.09748e-09 0 1.48778e-09)
(2.12706e-09 0 1.30358e-09)
(2.09684e-09 0 1.13709e-09)
(2.04004e-09 0 9.88723e-10)
(1.9727e-09 0 8.58906e-10)
(1.90298e-09 0 7.46223e-10)
(1.83537e-09 0 6.48637e-10)
(1.77235e-09 0 5.64261e-10)
(1.71508e-09 0 4.91575e-10)
(1.66382e-09 0 4.29368e-10)
(1.61828e-09 0 3.76617e-10)
(1.57778e-09 0 3.32389e-10)
(1.54152e-09 0 2.95785e-10)
(1.50863e-09 0 2.65924e-10)
(1.47832e-09 0 2.41952e-10)
(1.44989e-09 0 2.23063e-10)
(1.42274e-09 0 2.0851e-10)
(1.39637e-09 0 1.9762e-10)
(1.37038e-09 0 1.89791e-10)
(1.34444e-09 0 1.84493e-10)
(1.31832e-09 0 1.81259e-10)
(1.29181e-09 0 1.79685e-10)
(1.26478e-09 0 1.7942e-10)
(1.23713e-09 0 1.80161e-10)
(1.20881e-09 0 1.81652e-10)
(1.17978e-09 0 1.83674e-10)
(1.15005e-09 0 1.86049e-10)
(1.11962e-09 0 1.88628e-10)
(1.08854e-09 0 1.91293e-10)
(1.05684e-09 0 1.93949e-10)
(1.02456e-09 0 1.96526e-10)
(9.91773e-10 0 1.98968e-10)
(9.58518e-10 0 2.01238e-10)
(9.24856e-10 0 2.03311e-10)
(8.90839e-10 0 2.05171e-10)
(8.5652e-10 0 2.06814e-10)
(8.21947e-10 0 2.08239e-10)
(7.87165e-10 0 2.09452e-10)
(7.52216e-10 0 2.10463e-10)
(7.17138e-10 0 2.11283e-10)
(6.81965e-10 0 2.11928e-10)
(6.46727e-10 0 2.12411e-10)
(6.1145e-10 0 2.1275e-10)
(5.76156e-10 0 2.12961e-10)
(5.40867e-10 0 2.13059e-10)
(5.05597e-10 0 2.1306e-10)
(4.7036e-10 0 2.1298e-10)
(4.35167e-10 0 2.12831e-10)
(4.00025e-10 0 2.12627e-10)
(3.64942e-10 0 2.1238e-10)
(3.29919e-10 0 2.121e-10)
(2.94959e-10 0 2.11797e-10)
(2.60062e-10 0 2.11479e-10)
(2.25225e-10 0 2.11154e-10)
(1.90444e-10 0 2.10827e-10)
(1.55717e-10 0 2.105e-10)
(1.21036e-10 0 2.10173e-10)
(8.63996e-11 0 2.09848e-10)
(5.18019e-11 0 2.09559e-10)
(1.7256e-11 0 2.09527e-10)
(-0.00204306 0 0.0113083)
(0.000175811 0 0.00935475)
(-0.00186716 0 0.00677681)
(-0.000116047 0 0.00506758)
(-0.000877095 0 0.00245322)
(0.000148336 0 -0.000746312)
(0.000911986 0 -0.00244266)
(0.000912212 0 -0.00468327)
(0.00126498 0 -0.00670835)
(0.00162897 0 -0.00711081)
(0.00189365 0 -0.0066057)
(0.0016123 0 -0.00551868)
(0.00178209 0 -0.00380892)
(0.000543858 0 -0.00325406)
(0.00250749 0 -0.00125997)
(0.00153074 0 0.00178886)
(0.0013798 0 0.00223391)
(0.00155006 0 0.00188715)
(0.00146551 0 0.00126551)
(0.000725606 0 0.000163559)
(0.000401304 0 -0.00133102)
(8.94555e-06 0 -0.00239195)
(6.14119e-10 0 1.93927e-09)
(1.57094e-09 0 1.30705e-09)
(1.95213e-09 0 1.41104e-09)
(1.99033e-09 0 1.31515e-09)
(1.96217e-09 0 1.17875e-09)
(1.91538e-09 0 1.04283e-09)
(1.86106e-09 0 9.17631e-10)
(1.80436e-09 0 8.04923e-10)
(1.74884e-09 0 7.04389e-10)
(1.69689e-09 0 6.15413e-10)
(1.64982e-09 0 5.37463e-10)
(1.60799e-09 0 4.70044e-10)
(1.57111e-09 0 4.1259e-10)
(1.53849e-09 0 3.64402e-10)
(1.50929e-09 0 3.24652e-10)
(1.48263e-09 0 2.92427e-10)
(1.45774e-09 0 2.66783e-10)
(1.43395e-09 0 2.46805e-10)
(1.41074e-09 0 2.31639e-10)
(1.38767e-09 0 2.20518e-10)
(1.36442e-09 0 2.12758e-10)
(1.34074e-09 0 2.07762e-10)
(1.31643e-09 0 2.05006e-10)
(1.29136e-09 0 2.04035e-10)
(1.26545e-09 0 2.04458e-10)
(1.23864e-09 0 2.05935e-10)
(1.21092e-09 0 2.0818e-10)
(1.18231e-09 0 2.10953e-10)
(1.15283e-09 0 2.14055e-10)
(1.12253e-09 0 2.17325e-10)
(1.09146e-09 0 2.20633e-10)
(1.05969e-09 0 2.2388e-10)
(1.0273e-09 0 2.26989e-10)
(9.94344e-10 0 2.29907e-10)
(9.60896e-10 0 2.32594e-10)
(9.27023e-10 0 2.35028e-10)
(8.92786e-10 0 2.37197e-10)
(8.58246e-10 0 2.39097e-10)
(8.23457e-10 0 2.40733e-10)
(7.88468e-10 0 2.42115e-10)
(7.53325e-10 0 2.43256e-10)
(7.18066e-10 0 2.44172e-10)
(6.82728e-10 0 2.44882e-10)
(6.47341e-10 0 2.45404e-10)
(6.11932e-10 0 2.45759e-10)
(5.76523e-10 0 2.45966e-10)
(5.41134e-10 0 2.46045e-10)
(5.0578e-10 0 2.46013e-10)
(4.70473e-10 0 2.45888e-10)
(4.35223e-10 0 2.45688e-10)
(4.00038e-10 0 2.45426e-10)
(3.64922e-10 0 2.45117e-10)
(3.29876e-10 0 2.44774e-10)
(2.94902e-10 0 2.44408e-10)
(2.59999e-10 0 2.44029e-10)
(2.25162e-10 0 2.43645e-10)
(1.90386e-10 0 2.43265e-10)
(1.55667e-10 0 2.4289e-10)
(1.20997e-10 0 2.42519e-10)
(8.63702e-11 0 2.42156e-10)
(5.17803e-11 0 2.41834e-10)
(1.72469e-11 0 2.41802e-10)
(-0.000951383 0 0.0115373)
(0.000714468 0 0.00973219)
(-0.000989526 0 0.00718709)
(0.000191689 0 0.00497455)
(-0.000208028 0 0.0018279)
(0.00112102 0 -0.000972088)
(0.00120521 0 -0.00289471)
(0.00241765 0 -0.00477513)
(0.00306549 0 -0.0065647)
(0.00243971 0 -0.00711874)
(0.00221829 0 -0.00668743)
(0.00216852 0 -0.00521614)
(0.00068713 0 -0.0036009)
(0.00142084 0 -0.00224605)
(0.00161065 0 0.000146106)
(0.00155218 0 0.00134612)
(0.00111964 0 0.00224063)
(0.00118809 0 0.00203129)
(0.000387532 0 0.00150443)
(0.000592227 0 0.000555264)
(5.05945e-05 0 -0.00140093)
(0.000278644 0 -0.00220919)
(9.77919e-09 0 1.58533e-06)
(1.13224e-09 0 1.62979e-09)
(2.10746e-09 0 1.51013e-09)
(1.91168e-09 0 1.36239e-09)
(1.84378e-09 0 1.22004e-09)
(1.79726e-09 0 1.08763e-09)
(1.75146e-09 0 9.65472e-10)
(1.70466e-09 0 8.5301e-10)
(1.65913e-09 0 7.5006e-10)
(1.61713e-09 0 6.56941e-10)
(1.57994e-09 0 5.74153e-10)
(1.54779e-09 0 5.02016e-10)
(1.52018e-09 0 4.40466e-10)
(1.49619e-09 0 3.8904e-10)
(1.4748e-09 0 3.46944e-10)
(1.45506e-09 0 3.13179e-10)
(1.43617e-09 0 2.86664e-10)
(1.4175e-09 0 2.66341e-10)
(1.3986e-09 0 2.51235e-10)
(1.37913e-09 0 2.40477e-10)
(1.35884e-09 0 2.33309e-10)
(1.33756e-09 0 2.29071e-10)
(1.31519e-09 0 2.27189e-10)
(1.29164e-09 0 2.27166e-10)
(1.26688e-09 0 2.2857e-10)
(1.24093e-09 0 2.31033e-10)
(1.21382e-09 0 2.34243e-10)
(1.18559e-09 0 2.3794e-10)
(1.15632e-09 0 2.41911e-10)
(1.12609e-09 0 2.45983e-10)
(1.09499e-09 0 2.50022e-10)
(1.0631e-09 0 2.53925e-10)
(1.03052e-09 0 2.57616e-10)
(9.97343e-10 0 2.61041e-10)
(9.63644e-10 0 2.64166e-10)
(9.29504e-10 0 2.66972e-10)
(8.94997e-10 0 2.69451e-10)
(8.60189e-10 0 2.71605e-10)
(8.25141e-10 0 2.73443e-10)
(7.89907e-10 0 2.74982e-10)
(7.54534e-10 0 2.76238e-10)
(7.19064e-10 0 2.77234e-10)
(6.83534e-10 0 2.77993e-10)
(6.47975e-10 0 2.78537e-10)
(6.12415e-10 0 2.78891e-10)
(5.76874e-10 0 2.79078e-10)
(5.41372e-10 0 2.79121e-10)
(5.05923e-10 0 2.79041e-10)
(4.70538e-10 0 2.78858e-10)
(4.35226e-10 0 2.78593e-10)
(3.99993e-10 0 2.78261e-10)
(3.64841e-10 0 2.7788e-10)
(3.29773e-10 0 2.77464e-10)
(2.94786e-10 0 2.77026e-10)
(2.59879e-10 0 2.76578e-10)
(2.25046e-10 0 2.7613e-10)
(1.90282e-10 0 2.75691e-10)
(1.55579e-10 0 2.75265e-10)
(1.20927e-10 0 2.74851e-10)
(8.63174e-11 0 2.74452e-10)
(5.17413e-11 0 2.74099e-10)
(1.72306e-11 0 2.74053e-10)
(-0.00085946 0 0.0114253)
(0.00122086 0 0.00978993)
(0.000430764 0 0.00727799)
(0.000274111 0 0.0049799)
(0.00124306 0 0.000459706)
(0.00173125 0 -0.00136988)
(0.00224641 0 -0.00330444)
(0.00253593 0 -0.00554878)
(0.00255734 0 -0.00711848)
(0.00256177 0 -0.00711075)
(0.00198909 0 -0.00612371)
(0.000523588 0 -0.00454622)
(0.00102736 0 -0.0027138)
(0.000211632 0 -0.00186175)
(0.000125729 0 0.000188645)
(5.91073e-05 0 0.00163767)
(0.000627019 0 0.00236567)
(9.42505e-05 0 0.00225151)
(-6.91932e-05 0 0.00155277)
(0.000415688 0 0.000788365)
(-0.000297461 0 -0.0015386)
(-0.000653995 0 -0.00187009)
(-1.26588e-06 0 0.000161131)
(8.4253e-10 0 2.27564e-09)
(1.70314e-09 0 1.63387e-09)
(1.72036e-09 0 1.40488e-09)
(1.70652e-09 0 1.25267e-09)
(1.67847e-09 0 1.12351e-09)
(1.64266e-09 0 1.00487e-09)
(1.6038e-09 0 8.92809e-10)
(1.56627e-09 0 7.87154e-10)
(1.53311e-09 0 6.89444e-10)
(1.50561e-09 0 6.01532e-10)
(1.4836e-09 0 5.24729e-10)
(1.46605e-09 0 4.59489e-10)
(1.45159e-09 0 4.05516e-10)
(1.43886e-09 0 3.61949e-10)
(1.42674e-09 0 3.2759e-10)
(1.41439e-09 0 3.01131e-10)
(1.40124e-09 0 2.81317e-10)
(1.38695e-09 0 2.67027e-10)
(1.37128e-09 0 2.57295e-10)
(1.3541e-09 0 2.51296e-10)
(1.33534e-09 0 2.48317e-10)
(1.31496e-09 0 2.47744e-10)
(1.29296e-09 0 2.49043e-10)
(1.26936e-09 0 2.51751e-10)
(1.24424e-09 0 2.55473e-10)
(1.21768e-09 0 2.59876e-10)
(1.18977e-09 0 2.64683e-10)
(1.16065e-09 0 2.69672e-10)
(1.13041e-09 0 2.74664e-10)
(1.09919e-09 0 2.79524e-10)
(1.06711e-09 0 2.8415e-10)
(1.03427e-09 0 2.88469e-10)
(1.00079e-09 0 2.92432e-10)
(9.66774e-10 0 2.96012e-10)
(9.32305e-10 0 2.99195e-10)
(8.97469e-10 0 3.01982e-10)
(8.62342e-10 0 3.04382e-10)
(8.26988e-10 0 3.0641e-10)
(7.91466e-10 0 3.08088e-10)
(7.55827e-10 0 3.09442e-10)
(7.20114e-10 0 3.10498e-10)
(6.84366e-10 0 3.11285e-10)
(6.48613e-10 0 3.1183e-10)
(6.12881e-10 0 3.12163e-10)
(5.77193e-10 0 3.1231e-10)
(5.41565e-10 0 3.12298e-10)
(5.06011e-10 0 3.12152e-10)
(4.70541e-10 0 3.11895e-10)
(4.35162e-10 0 3.11549e-10)
(3.99878e-10 0 3.11134e-10)
(3.64691e-10 0 3.10668e-10)
(3.296e-10 0 3.10168e-10)
(2.94603e-10 0 3.09649e-10)
(2.59696e-10 0 3.09123e-10)
(2.24873e-10 0 3.08604e-10)
(1.90127e-10 0 3.081e-10)
(1.55447e-10 0 3.07619e-10)
(1.20821e-10 0 3.0716e-10)
(8.62369e-11 0 3.06727e-10)
(5.16874e-11 0 3.06342e-10)
(1.72108e-11 0 3.06269e-10)
(-0.000635939 0 0.0110478)
(0.00132292 0 0.00953581)
(0.000910246 0 0.00709657)
(0.000684759 0 0.00515425)
(0.00212579 0 -7.58239e-05)
(0.0023996 0 -0.0017854)
(0.00281166 0 -0.00360801)
(0.0030523 0 -0.0056403)
(0.00319026 0 -0.00673245)
(0.00285988 0 -0.00631861)
(0.00120891 0 -0.00516802)
(0.000548139 0 -0.00365867)
(-0.000531783 0 -0.00252634)
(-0.000477366 0 -0.00146239)
(-0.000510935 0 0.000237846)
(-0.000335835 0 0.00165941)
(-0.000593326 0 0.00225265)
(-0.000368102 0 0.00217354)
(-0.000226176 0 0.0014685)
(-8.55618e-06 0 0.000769185)
(-0.00102935 0 -0.00111498)
(-0.000654274 0 -0.00160587)
(6.98579e-05 0 -0.000240705)
(5.36939e-10 0 1.7936e-09)
(1.29695e-09 0 1.39852e-09)
(1.55618e-09 0 1.37992e-09)
(1.58173e-09 0 1.26511e-09)
(1.56647e-09 0 1.15025e-09)
(1.53649e-09 0 1.03857e-09)
(1.50171e-09 0 9.27037e-10)
(1.46953e-09 0 8.17307e-10)
(1.44408e-09 0 7.13373e-10)
(1.42642e-09 0 6.19188e-10)
(1.41546e-09 0 5.37316e-10)
(1.40918e-09 0 4.68646e-10)
(1.40544e-09 0 4.12884e-10)
(1.40238e-09 0 3.68896e-10)
(1.39861e-09 0 3.3509e-10)
(1.39329e-09 0 3.09785e-10)
(1.38598e-09 0 2.91458e-10)
(1.37648e-09 0 2.78831e-10)
(1.36473e-09 0 2.70848e-10)
(1.35074e-09 0 2.66636e-10)
(1.33453e-09 0 2.65454e-10)
(1.31614e-09 0 2.66657e-10)
(1.29565e-09 0 2.69681e-10)
(1.27316e-09 0 2.74039e-10)
(1.2488e-09 0 2.79311e-10)
(1.2227e-09 0 2.85147e-10)
(1.19502e-09 0 2.9126e-10)
(1.16593e-09 0 2.97422e-10)
(1.13559e-09 0 3.03454e-10)
(1.10415e-09 0 3.09224e-10)
(1.07176e-09 0 3.14636e-10)
(1.03858e-09 0 3.19625e-10)
(1.00471e-09 0 3.24152e-10)
(9.70296e-10 0 3.28197e-10)
(9.35425e-10 0 3.31759e-10)
(9.00196e-10 0 3.34846e-10)
(8.6469e-10 0 3.37476e-10)
(8.2898e-10 0 3.39675e-10)
(7.93127e-10 0 3.41472e-10)
(7.57185e-10 0 3.42899e-10)
(7.21197e-10 0 3.4399e-10)
(6.85202e-10 0 3.4478e-10)
(6.49232e-10 0 3.45302e-10)
(6.13311e-10 0 3.4559e-10)
(5.7746e-10 0 3.45674e-10)
(5.41696e-10 0 3.45587e-10)
(5.06028e-10 0 3.45354e-10)
(4.70467e-10 0 3.45005e-10)
(4.35018e-10 0 3.44561e-10)
(3.99681e-10 0 3.44047e-10)
(3.64459e-10 0 3.43482e-10)
(3.29348e-10 0 3.42885e-10)
(2.94345e-10 0 3.42273e-10)
(2.59443e-10 0 3.4166e-10)
(2.24635e-10 0 3.4106e-10)
(1.89913e-10 0 3.40485e-10)
(1.55264e-10 0 3.39943e-10)
(1.20672e-10 0 3.39439e-10)
(8.61231e-11 0 3.38971e-10)
(5.16211e-11 0 3.38542e-10)
(1.71923e-11 0 3.38448e-10)
(-0.000946137 0 0.0104675)
(0.00104452 0 0.00907175)
(0.00173768 0 0.00646253)
(0.000906537 0 0.00507332)
(0.00271158 0 -0.000520377)
(0.00277519 0 -0.00218187)
(0.00321904 0 -0.0037752)
(0.00312547 0 -0.00574769)
(0.00274908 0 -0.00611167)
(0.00138418 0 -0.00562627)
(0.000156232 0 -0.00413294)
(-0.000665357 0 -0.00309775)
(-0.000799052 0 -0.0020027)
(-0.00156556 0 -0.000555005)
(-0.00121312 0 0.000715474)
(-0.00129022 0 0.00137798)
(-0.00115515 0 0.00189855)
(-0.000383768 0 0.00197995)
(-0.000370516 0 0.00127784)
(-0.000320573 0 0.000737633)
(-0.000215784 0 -0.000974241)
(-0.000255333 0 -0.00179522)
(0.00070312 0 -0.00169974)
(1.03402e-06 0 4.35155e-05)
(8.44129e-10 0 1.72421e-09)
(1.59721e-09 0 1.43986e-09)
(1.49281e-09 0 1.27776e-09)
(1.46737e-09 0 1.17432e-09)
(1.43444e-09 0 1.07221e-09)
(1.39728e-09 0 9.59721e-10)
(1.3668e-09 0 8.4238e-10)
(1.34818e-09 0 7.28749e-10)
(1.34133e-09 0 6.26046e-10)
(1.3432e-09 0 5.3833e-10)
(1.35007e-09 0 4.66493e-10)
(1.3587e-09 0 4.09934e-10)
(1.3665e-09 0 3.66928e-10)
(1.37184e-09 0 3.35149e-10)
(1.37394e-09 0 3.12331e-10)
(1.37262e-09 0 2.96615e-10)
(1.36797e-09 0 2.8657e-10)
(1.36015e-09 0 2.81098e-10)
(1.34931e-09 0 2.79323e-10)
(1.3356e-09 0 2.80498e-10)
(1.31915e-09 0 2.83968e-10)
(1.30009e-09 0 2.89145e-10)
(1.2786e-09 0 2.95517e-10)
(1.25486e-09 0 3.02645e-10)
(1.22909e-09 0 3.10166e-10)
(1.2015e-09 0 3.17786e-10)
(1.17231e-09 0 3.25276e-10)
(1.14172e-09 0 3.32466e-10)
(1.10993e-09 0 3.3923e-10)
(1.07712e-09 0 3.45485e-10)
(1.04347e-09 0 3.51178e-10)
(1.00912e-09 0 3.56285e-10)
(9.74211e-10 0 3.60799e-10)
(9.38857e-10 0 3.6473e-10)
(9.03163e-10 0 3.681e-10)
(8.67218e-10 0 3.7094e-10)
(8.31097e-10 0 3.73283e-10)
(7.94867e-10 0 3.75171e-10)
(7.58582e-10 0 3.76642e-10)
(7.22287e-10 0 3.77739e-10)
(6.86019e-10 0 3.78502e-10)
(6.4981e-10 0 3.78972e-10)
(6.13682e-10 0 3.79187e-10)
(5.77655e-10 0 3.79183e-10)
(5.41743e-10 0 3.78994e-10)
(5.05956e-10 0 3.78653e-10)
(4.70299e-10 0 3.78189e-10)
(4.34777e-10 0 3.77629e-10)
(3.99389e-10 0 3.76998e-10)
(3.64133e-10 0 3.76319e-10)
(3.29006e-10 0 3.75611e-10)
(2.94e-10 0 3.74893e-10)
(2.5911e-10 0 3.74182e-10)
(2.24325e-10 0 3.73493e-10)
(1.89635e-10 0 3.72838e-10)
(1.55027e-10 0 3.7223e-10)
(1.20481e-10 0 3.71677e-10)
(8.59847e-11 0 3.71171e-10)
(5.15401e-11 0 3.70685e-10)
(1.71665e-11 0 3.70584e-10)
(0.00018778 0 0.00993357)
(0.000714144 0 0.00859311)
(0.00164431 0 0.00627387)
(0.00137643 0 0.00440594)
(0.00316065 0 -0.000937437)
(0.0030947 0 -0.00229962)
(0.0034023 0 -0.00392671)
(0.00289238 0 -0.0053716)
(0.00248627 0 -0.0053022)
(0.000762493 0 -0.00435553)
(-0.00043844 0 -0.00325597)
(-0.00094871 0 -0.00255639)
(-0.00186384 0 -0.000880708)
(-0.00164371 0 -0.00054377)
(-0.00180199 0 0.000196119)
(-0.00148721 0 0.000961378)
(-0.000622605 0 0.00175532)
(-0.000526614 0 0.00149538)
(-9.71882e-05 0 0.00124465)
(1.9629e-05 0 0.000821758)
(1.33496e-05 0 -0.000666266)
(-3.78036e-05 0 -0.00135783)
(-0.00105154 0 -0.00134989)
(0.000116368 0 0.000752003)
(5.13612e-10 0 1.75333e-09)
(1.14599e-09 0 1.39869e-09)
(1.33432e-09 0 1.23918e-09)
(1.37474e-09 0 1.19739e-09)
(1.33599e-09 0 1.11503e-09)
(1.28684e-09 0 9.96677e-10)
(1.25359e-09 0 8.64158e-10)
(1.24191e-09 0 7.34491e-10)
(1.24856e-09 0 6.19734e-10)
(1.26652e-09 0 5.25405e-10)
(1.28942e-09 0 4.50935e-10)
(1.31267e-09 0 3.95099e-10)
(1.33278e-09 0 3.55124e-10)
(1.34789e-09 0 3.27363e-10)
(1.35757e-09 0 3.08665e-10)
(1.36217e-09 0 2.9681e-10)
(1.36222e-09 0 2.90308e-10)
(1.35818e-09 0 2.88114e-10)
(1.35039e-09 0 2.89424e-10)
(1.33907e-09 0 2.93529e-10)
(1.32442e-09 0 2.99775e-10)
(1.30665e-09 0 3.07553e-10)
(1.28599e-09 0 3.16323e-10)
(1.2627e-09 0 3.25626e-10)
(1.23707e-09 0 3.35087e-10)
(1.20938e-09 0 3.44413e-10)