/*--------------------------------*- C++ -*----------------------------------*\
  =========                 |
  \\      /  F ield         | OpenFOAM: The Open Source CFD Toolbox
   \\    /   O peration     | Website:  https://openfoam.org
    \\  /    A nd           | Version:  6
     \\/     M anipulation  |
\*---------------------------------------------------------------------------*/
FoamFile
{
    version     2.0;
    format      ascii;
    class       volScalarField;
    location    "120";
    object      dmdt;
}
// * * * * * * * * * * * * * * * * * * * * * * * * * * * * * * * * * * * * * //

dimensions      [0 0 0 0 0 0 0];

internalField   nonuniform List<scalar> 
54000
(
24.0489
24.0505
24.0555
24.064
24.0759
24.091
24.1093
24.1306
24.1548
24.1817
24.2112
24.2429
24.2768
24.3126
24.3501
24.3891
24.4295
24.4709
24.5132
24.5562
24.5998
24.6437
24.6878
24.7319
24.7759
24.8198
24.8632
24.9062
24.9487
24.9905
25.0316
25.072
25.1115
25.1501
25.1878
25.2246
25.2603
25.2951
25.3289
25.3616
25.3934
25.4241
25.4538
25.4825
25.5102
25.5369
25.5626
25.5874
25.6113
25.6343
25.6563
25.6775
25.6979
25.7174
25.7361
25.7541
25.7713
25.7878
25.8036
25.8187
25.8331
25.8469
25.8601
25.8727
25.8847
25.8962
25.9072
25.9176
25.9276
25.937
25.9461
25.9547
25.9628
25.9706
25.978
25.985
25.9917
25.998
26.004
26.0097
26.015
26.0201
26.0249
26.0295
26.0338
26.0378
26.0417
26.0453
26.0486
26.0518
26.0548
26.0576
26.0603
26.0627
26.065
26.0672
26.0692
26.0711
26.0728
26.0744
26.0759
26.0773
26.0786
26.0798
26.0809
26.0819
26.0828
26.0837
26.0844
26.0851
26.0858
26.0863
26.0868
26.0873
26.0877
26.088
26.0883
26.0886
26.0887
26.0889
24.0482
24.0498
24.0548
24.0633
24.0752
24.0903
24.1086
24.1299
24.1542
24.1811
24.2105
24.2423
24.2762
24.312
24.3495
24.3885
24.4289
24.4703
24.5126
24.5557
24.5992
24.6432
24.6873
24.7314
24.7755
24.8193
24.8628
24.9058
24.9483
24.9901
25.0313
25.0716
25.1111
25.1498
25.1875
25.2242
25.26
25.2948
25.3286
25.3614
25.3931
25.4238
25.4536
25.4823
25.51
25.5367
25.5624
25.5872
25.6111
25.6341
25.6562
25.6774
25.6977
25.7173
25.736
25.754
25.7712
25.7877
25.8034
25.8186
25.833
25.8468
25.86
25.8726
25.8846
25.8961
25.9071
25.9175
25.9275
25.937
25.946
25.9546
25.9628
25.9705
25.9779
25.9849
25.9916
25.9979
26.0039
26.0096
26.015
26.0201
26.0249
26.0294
26.0337
26.0378
26.0416
26.0452
26.0486
26.0518
26.0548
26.0576
26.0602
26.0627
26.065
26.0671
26.0691
26.071
26.0728
26.0744
26.0759
26.0773
26.0786
26.0798
26.0809
26.0819
26.0828
26.0836
26.0844
26.0851
26.0857
26.0863
26.0868
26.0873
26.0877
26.088
26.0883
26.0885
26.0887
26.0888
24.048
24.0495
24.0546
24.0631
24.0749
24.0901
24.1084
24.1297
24.1539
24.1809
24.2103
24.2421
24.276
24.3118
24.3493
24.3883
24.4287
24.4701
24.5125
24.5555
24.5991
24.643
24.6871
24.7313
24.7753
24.8192
24.8626
24.9057
24.9482
24.99
25.0311
25.0715
25.111
25.1497
25.1874
25.2241
25.2599
25.2947
25.3285
25.3613
25.393
25.4238
25.4535
25.4822
25.5099
25.5366
25.5624
25.5872
25.6111
25.634
25.6561
25.6773
25.6977
25.7172
25.736
25.7539
25.7711
25.7876
25.8034
25.8185
25.833
25.8468
25.86
25.8726
25.8846
25.8961
25.907
25.9175
25.9274
25.9369
25.946
25.9546
25.9627
25.9705
25.9779
25.9849
25.9916
25.9979
26.0039
26.0096
26.015
26.0201
26.0249
26.0294
26.0337
26.0378
26.0416
26.0452
26.0486
26.0518
26.0548
26.0576
26.0602
26.0627
26.065
26.0671
26.0691
26.071
26.0727
26.0744
26.0759
26.0773
26.0786
26.0797
26.0808
26.0818
26.0828
26.0836
26.0844
26.0851
26.0857
26.0863
26.0868
26.0872
26.0876
26.088
26.0883
26.0885
26.0887
26.0888
24.0482
24.0498
24.0548
24.0633
24.0752
24.0903
24.1086
24.1299
24.1542
24.1811
24.2105
24.2423
24.2762
24.312
24.3495
24.3885
24.4289
24.4703
24.5126
24.5557
24.5992
24.6432
24.6873
24.7314
24.7755
24.8193
24.8628
24.9058
24.9483
24.9901
25.0313
25.0716
25.1111
25.1498
25.1875
25.2242
25.26
25.2948
25.3286
25.3614
25.3931
25.4238
25.4536
25.4823
25.51
25.5367
25.5624
25.5872
25.6111
25.6341
25.6562
25.6774
25.6977
25.7173
25.736
25.754
25.7712
25.7877
25.8034
25.8186
25.833
25.8468
25.86
25.8726
25.8846
25.8961
25.9071
25.9175
25.9275
25.937
25.946
25.9546
25.9628
25.9705
25.9779
25.9849
25.9916
25.9979
26.0039
26.0096
26.015
26.0201
26.0249
26.0294
26.0337
26.0378
26.0416
26.0452
26.0486
26.0518
26.0548
26.0576
26.0602
26.0627
26.065
26.0671
26.0691
26.071
26.0728
26.0744
26.0759
26.0773
26.0786
26.0798
26.0809
26.0819
26.0828
26.0836
26.0844
26.0851
26.0857
26.0863
26.0868
26.0873
26.0877
26.088
26.0883
26.0885
26.0887
26.0888
24.049
24.0505
24.0555
24.064
24.0759
24.091
24.1093
24.1306
24.1548
24.1817
24.2112
24.2429
24.2768
24.3126
24.3501
24.3891
24.4295
24.4709
24.5132
24.5562
24.5998
24.6437
24.6878
24.7319
24.7759
24.8198
24.8632
24.9062
24.9487
24.9905
25.0316
25.072
25.1115
25.1501
25.1878
25.2246
25.2603
25.2951
25.3289
25.3616
25.3934
25.4241
25.4538
25.4825
25.5102
25.5369
25.5626
25.5874
25.6113
25.6343
25.6563
25.6775
25.6979
25.7174
25.7361
25.7541
25.7713
25.7878
25.8036
25.8187
25.8331
25.8469
25.8601
25.8727
25.8847
25.8962
25.9072
25.9176
25.9276
25.937
25.9461
25.9547
25.9628
25.9706
25.978
25.985
25.9917
25.998
26.004
26.0097
26.015
26.0201
26.0249
26.0295
26.0338
26.0378
26.0416
26.0452
26.0486
26.0518
26.0548
26.0576
26.0602
26.0627
26.065
26.0672
26.0692
26.0711
26.0728
26.0744
26.0759
26.0773
26.0786
26.0798
26.0809
26.0819
26.0828
26.0837
26.0844
26.0851
26.0858
26.0863
26.0868
26.0873
26.0877
26.088
26.0883
26.0886
26.0887
26.0889
24.0392
24.0408
24.0459
24.0545
24.0666
24.0819
24.1004
24.1221
24.1466
24.1738
24.2036
24.2357
24.27
24.3062
24.3441
24.3835
24.4242
24.466
24.5087
24.5521
24.596
24.6402
24.6846
24.7291
24.7734
24.8175
24.8612
24.9044
24.9471
24.9891
25.0304
25.0709
25.1106
25.1494
25.1872
25.2241
25.26
25.2948
25.3287
25.3615
25.3933
25.4241
25.4538
25.4826
25.5103
25.537
25.5628
25.5876
25.6115
25.6345
25.6566
25.6778
25.6981
25.7177
25.7364
25.7544
25.7716
25.7881
25.8038
25.8189
25.8334
25.8472
25.8604
25.873
25.885
25.8965
25.9074
25.9178
25.9278
25.9373
25.9463
25.9549
25.963
25.9708
25.9782
25.9852
25.9919
25.9982
26.0042
26.0098
26.0152
26.0203
26.0251
26.0296
26.0339
26.038
26.0418
26.0454
26.0488
26.0519
26.0549
26.0577
26.0603
26.0628
26.0651
26.0673
26.0693
26.0711
26.0729
26.0745
26.076
26.0774
26.0787
26.0798
26.0809
26.0819
26.0829
26.0837
26.0845
26.0852
26.0858
26.0864
26.0869
26.0873
26.0877
26.088
26.0883
26.0886
26.0888
26.0889
24.0385
24.0401
24.0452
24.0538
24.0658
24.0812
24.0998
24.1214
24.1459
24.1731
24.2029
24.2351
24.2693
24.3055
24.3435
24.3829
24.4236
24.4654
24.5081
24.5515
24.5955
24.6397
24.6841
24.7286
24.7729
24.817
24.8608
24.904
24.9467
24.9888
25.0301
25.0706
25.1103
25.149
25.1869
25.2238
25.2597
25.2945
25.3284
25.3612
25.393
25.4238
25.4536
25.4823
25.5101
25.5368
25.5626
25.5874
25.6113
25.6343
25.6564
25.6776
25.698
25.7175
25.7363
25.7542
25.7715
25.7879
25.8037
25.8188
25.8333
25.8471
25.8603
25.8729
25.8849
25.8964
25.9073
25.9178
25.9277
25.9372
25.9462
25.9548
25.963
25.9707
25.9781
25.9851
25.9918
25.9981
26.0041
26.0098
26.0151
26.0202
26.025
26.0296
26.0339
26.0379
26.0417
26.0453
26.0487
26.0519
26.0549
26.0577
26.0603
26.0628
26.0651
26.0672
26.0692
26.0711
26.0728
26.0744
26.0759
26.0773
26.0786
26.0798
26.0809
26.0819
26.0828
26.0837
26.0844
26.0851
26.0858
26.0863
26.0868
26.0873
26.0877
26.088
26.0883
26.0885
26.0887
26.0889
24.0383
24.0398
24.045
24.0536
24.0656
24.081
24.0995
24.1211
24.1457
24.1729
24.2027
24.2349
24.2691
24.3053
24.3433
24.3827
24.4234
24.4652
24.5079
24.5514
24.5953
24.6395
24.684
24.7284
24.7728
24.8169
24.8606
24.9039
24.9466
24.9886
25.0299
25.0705
25.1101
25.1489
25.1868
25.2237
25.2596
25.2944
25.3283
25.3612
25.393
25.4237
25.4535
25.4823
25.51
25.5368
25.5625
25.5874
25.6113
25.6343
25.6563
25.6776
25.6979
25.7175
25.7362
25.7542
25.7714
25.7879
25.8037
25.8188
25.8332
25.847
25.8602
25.8728
25.8849
25.8963
25.9073
25.9177
25.9277
25.9372
25.9462
25.9548
25.9629
25.9707
25.9781
25.9851
25.9918
25.9981
26.0041
26.0097
26.0151
26.0202
26.025
26.0296
26.0338
26.0379
26.0417
26.0453
26.0487
26.0519
26.0549
26.0577
26.0603
26.0627
26.0651
26.0672
26.0692
26.0711
26.0728
26.0744
26.0759
26.0773
26.0786
26.0798
26.0809
26.0819
26.0828
26.0836
26.0844
26.0851
26.0857
26.0863
26.0868
26.0873
26.0877
26.088
26.0883
26.0885
26.0887
26.0888
24.0385
24.0401
24.0452
24.0538
24.0658
24.0812
24.0998
24.1214
24.1459
24.1731
24.2029
24.2351
24.2693
24.3055
24.3435
24.3829
24.4236
24.4654
24.5081
24.5515
24.5955
24.6397
24.6841
24.7286
24.7729
24.817
24.8608
24.904
24.9467
24.9888
25.0301
25.0706
25.1103
25.149
25.1869
25.2238
25.2597
25.2945
25.3284
25.3612
25.393
25.4238
25.4536
25.4823
25.5101
25.5368
25.5626
25.5874
25.6113
25.6343
25.6564
25.6776
25.698
25.7175
25.7363
25.7542
25.7715
25.7879
25.8037
25.8188
25.8333
25.8471
25.8603
25.8729
25.8849
25.8964
25.9073
25.9178
25.9277
25.9372
25.9462
25.9548
25.963
25.9707
25.9781
25.9851
25.9918
25.9981
26.0041
26.0098
26.0151
26.0202
26.025
26.0296
26.0339
26.0379
26.0417
26.0453
26.0487
26.0519
26.0549
26.0577
26.0603
26.0628
26.0651
26.0672
26.0692
26.0711
26.0728
26.0744
26.0759
26.0773
26.0786
26.0798
26.0809
26.0819
26.0828
26.0837
26.0844
26.0851
26.0858
26.0863
26.0868
26.0873
26.0877
26.088
26.0883
26.0885
26.0887
26.0889
24.0392
24.0408
24.0459
24.0545
24.0666
24.0819
24.1005
24.1221
24.1466
24.1738
24.2036
24.2357
24.27
24.3062
24.3441
24.3835
24.4242
24.466
24.5087
24.5521
24.596
24.6402
24.6846
24.7291
24.7734
24.8175
24.8612
24.9044
24.9471
24.9891
25.0304
25.0709
25.1106
25.1494
25.1872
25.2241
25.26
25.2948
25.3287
25.3615
25.3933
25.4241
25.4538
25.4826
25.5103
25.537
25.5628
25.5876
25.6115
25.6345
25.6566
25.6778
25.6981
25.7177
25.7364
25.7544
25.7716
25.7881
25.8038
25.8189
25.8334
25.8472
25.8604
25.873
25.885
25.8965
25.9074
25.9178
25.9278
25.9373
25.9463
25.9549
25.963
25.9708
25.9782
25.9852
25.9918
25.9982
26.0041
26.0098
26.0152
26.0203
26.0251
26.0296
26.0339
26.038
26.0418
26.0454
26.0487
26.0519
26.0549
26.0577
26.0603
26.0628
26.0651
26.0673
26.0693
26.0711
26.0729
26.0745
26.076
26.0774
26.0787
26.0798
26.0809
26.0819
26.0829
26.0837
26.0845
26.0852
26.0858
26.0864
26.0869
26.0873
26.0877
26.088
26.0883
26.0886
26.0888
26.0889
24.0227
24.0243
24.0296
24.0384
24.0508
24.0665
24.0855
24.1077
24.1327
24.1606
24.191
24.2238
24.2588
24.2957
24.3343
24.3745
24.4159
24.4584
24.5018
24.5458
24.5903
24.6352
24.6802
24.7252
24.77
24.8145
24.8587
24.9024
24.9454
24.9878
25.0294
25.0702
25.1101
25.1491
25.1871
25.2241
25.2602
25.2952
25.3292
25.3621
25.394
25.4248
25.4546
25.4834
25.5112
25.538
25.5638
25.5886
25.6125
25.6355
25.6576
25.6788
25.6991
25.7187
25.7374
25.7554
25.7725
25.789
25.8048
25.8198
25.8343
25.848
25.8612
25.8738
25.8858
25.8972
25.9082
25.9186
25.9285
25.9379
25.947
25.9555
25.9637
25.9714
25.9788
25.9858
25.9924
25.9987
26.0047
26.0103
26.0157
26.0207
26.0255
26.0301
26.0343
26.0384
26.0422
26.0457
26.0491
26.0523
26.0553
26.0581
26.0607
26.0631
26.0654
26.0675
26.0695
26.0714
26.0731
26.0747
26.0762
26.0776
26.0789
26.08
26.0811
26.0821
26.083
26.0839
26.0846
26.0853
26.0859
26.0865
26.087
26.0874
26.0878
26.0882
26.0885
26.0887
26.0889
26.089
24.022
24.0236
24.0289
24.0377
24.0501
24.0658
24.0848
24.107
24.1321
24.1599
24.1904
24.2232
24.2582
24.2951
24.3337
24.3739
24.4153
24.4578
24.5012
24.5453
24.5898
24.6347
24.6797
24.7247
24.7695
24.8141
24.8583
24.9019
24.945
24.9874
25.029
25.0698
25.1097
25.1487
25.1868
25.2238
25.2599
25.2949
25.3289
25.3618
25.3937
25.4246
25.4544
25.4832
25.511
25.5378
25.5636
25.5884
25.6123
25.6353
25.6574
25.6786
25.699
25.7185
25.7373
25.7552
25.7724
25.7889
25.8046
25.8197
25.8341
25.8479
25.8611
25.8737
25.8857
25.8971
25.9081
25.9185
25.9284
25.9379
25.9469
25.9554
25.9636
25.9713
25.9787
25.9857
25.9923
25.9986
26.0046
26.0103
26.0156
26.0207
26.0255
26.03
26.0343
26.0383
26.0421
26.0457
26.0491
26.0522
26.0552
26.058
26.0606
26.0631
26.0654
26.0675
26.0695
26.0714
26.0731
26.0747
26.0762
26.0776
26.0788
26.08
26.0811
26.0821
26.083
26.0838
26.0846
26.0853
26.0859
26.0865
26.087
26.0874
26.0878
26.0881
26.0884
26.0887
26.0888
26.089
24.0217
24.0234
24.0286
24.0375
24.0498
24.0656
24.0846
24.1067
24.1318
24.1597
24.1902
24.223
24.258
24.2949
24.3335
24.3737
24.4151
24.4576
24.501
24.5451
24.5896
24.6345
24.6795
24.7245
24.7694
24.814
24.8581
24.9018
24.9449
24.9873
25.0289
25.0697
25.1096
25.1486
25.1867
25.2237
25.2598
25.2948
25.3288
25.3618
25.3937
25.4245
25.4543
25.4831
25.5109
25.5377
25.5635
25.5884
25.6123
25.6353
25.6574
25.6786
25.6989
25.7185
25.7372
25.7552
25.7724
25.7888
25.8046
25.8197
25.8341
25.8479
25.8611
25.8736
25.8856
25.8971
25.908
25.9185
25.9284
25.9378
25.9468
25.9554
25.9636
25.9713
25.9787
25.9857
25.9923
25.9986
26.0046
26.0102
26.0156
26.0207
26.0255
26.03
26.0343
26.0383
26.0421
26.0457
26.0491
26.0522
26.0552
26.058
26.0606
26.0631
26.0653
26.0675
26.0695
26.0713
26.0731
26.0747
26.0762
26.0775
26.0788
26.08
26.0811
26.0821
26.083
26.0838
26.0846
26.0853
26.0859
26.0865
26.087
26.0874
26.0878
26.0881
26.0884
26.0886
26.0888
26.089
24.022
24.0236
24.0289
24.0377
24.0501
24.0658
24.0848
24.107
24.1321
24.1599
24.1904
24.2232
24.2582
24.2951
24.3337
24.3739
24.4153
24.4578
24.5012
24.5453
24.5898
24.6347
24.6797
24.7247
24.7695
24.8141
24.8583
24.9019
24.945
24.9874
25.029
25.0698
25.1097
25.1487
25.1868
25.2238
25.2599
25.2949
25.3289
25.3618
25.3937
25.4246
25.4544
25.4832
25.511
25.5378
25.5636
25.5884
25.6123
25.6353
25.6574
25.6786
25.699
25.7185
25.7373
25.7552
25.7724
25.7889
25.8046
25.8197
25.8341
25.8479
25.8611
25.8737
25.8857
25.8971
25.9081
25.9185
25.9284
25.9379
25.9469
25.9554
25.9636
25.9713
25.9787
25.9857
25.9923
25.9986
26.0046
26.0103
26.0156
26.0207
26.0255
26.03
26.0343
26.0383
26.0421
26.0457
26.0491
26.0522
26.0552
26.058
26.0606
26.0631
26.0654
26.0675
26.0695
26.0714
26.0731
26.0747
26.0762
26.0776
26.0788
26.08
26.0811
26.0821
26.083
26.0838
26.0846
26.0853
26.0859
26.0865
26.087
26.0874
26.0878
26.0881
26.0884
26.0887
26.0888
26.089
24.0227
24.0243
24.0296
24.0384
24.0508
24.0665
24.0855
24.1077
24.1327
24.1606
24.191
24.2238
24.2588
24.2957
24.3343
24.3745
24.4159
24.4584
24.5018
24.5458
24.5903
24.6352
24.6802
24.7252
24.77
24.8145
24.8587
24.9024
24.9454
24.9878
25.0294
25.0702
25.1101
25.1491
25.1871
25.2241
25.2602
25.2952
25.3292
25.3621
25.394
25.4248
25.4546
25.4834
25.5112
25.538
25.5638
25.5886
25.6125
25.6355
25.6576
25.6788
25.6991
25.7187
25.7374
25.7554
25.7725
25.789
25.8048
25.8198
25.8343
25.848
25.8612
25.8738
25.8858
25.8972
25.9082
25.9186
25.9285
25.9379
25.9469
25.9555
25.9637
25.9714
25.9788
25.9858
25.9924
25.9987
26.0047
26.0103
26.0157
26.0207
26.0255
26.0301
26.0343
26.0384
26.0422
26.0457
26.0491
26.0523
26.0553
26.058
26.0607
26.0631
26.0654
26.0675
26.0695
26.0714
26.0731
26.0747
26.0762
26.0776
26.0789
26.08
26.0811
26.0821
26.083
26.0839
26.0846
26.0853
26.0859
26.0865
26.087
26.0874
26.0878
26.0882
26.0885
26.0887
26.0889
26.089
23.9997
24.0014
24.0069
24.0161
24.0289
24.0452
24.0649
24.0878
24.1137
24.1424
24.1738
24.2076
24.2436
24.2815
24.3212
24.3624
24.4048
24.4483
24.4926
24.5376
24.583
24.6287
24.6745
24.7203
24.7658
24.811
24.8558
24.9
24.9436
24.9864
25.0285
25.0696
25.1099
25.1492
25.1875
25.2248
25.261
25.2962
25.3303
25.3634
25.3954
25.4263
25.4562
25.4851
25.5129
25.5397
25.5655
25.5904
25.6143
25.6373
25.6593
25.6805
25.7009
25.7204
25.7391
25.757
25.7741
25.7906
25.8063
25.8213
25.8357
25.8494
25.8626
25.8751
25.8871
25.8985
25.9094
25.9198
25.9296
25.9391
25.948
25.9566
25.9647
25.9724
25.9797
25.9867
25.9933
25.9996
26.0055
26.0111
26.0165
26.0215
26.0263
26.0308
26.035
26.039
26.0428
26.0464
26.0497
26.0529
26.0558
26.0586
26.0612
26.0636
26.0659
26.068
26.07
26.0718
26.0735
26.0751
26.0766
26.078
26.0792
26.0804
26.0815
26.0824
26.0833
26.0842
26.0849
26.0856
26.0862
26.0868
26.0873
26.0877
26.0881
26.0884
26.0887
26.0889
26.0891
26.0892
23.9989
24.0007
24.0062
24.0154
24.0282
24.0445
24.0642
24.0871
24.113
24.1418
24.1731
24.2069
24.2429
24.2809
24.3206
24.3618
24.4042
24.4477
24.4921
24.5371
24.5825
24.6282
24.6741
24.7198
24.7654
24.8106
24.8554
24.8996
24.9432
24.986
25.0281
25.0693
25.1095
25.1488
25.1872
25.2245
25.2607
25.2959
25.3301
25.3631
25.3952
25.4261
25.456
25.4849
25.5127
25.5395
25.5653
25.5902
25.6141
25.6371
25.6592
25.6804
25.7007
25.7202
25.7389
25.7568
25.774
25.7904
25.8062
25.8212
25.8356
25.8493
25.8625
25.875
25.887
25.8984
25.9093
25.9197
25.9296
25.939
25.948
25.9565
25.9646
25.9723
25.9797
25.9866
25.9932
25.9995
26.0054
26.0111
26.0164
26.0214
26.0262
26.0307
26.035
26.039
26.0428
26.0463
26.0497
26.0528
26.0558
26.0585
26.0611
26.0636
26.0658
26.068
26.0699
26.0718
26.0735
26.0751
26.0766
26.0779
26.0792
26.0804
26.0814
26.0824
26.0833
26.0841
26.0849
26.0856
26.0862
26.0867
26.0872
26.0877
26.088
26.0884
26.0887
26.0889
26.0891
26.0892
23.9987
24.0004
24.0059
24.0151
24.0279
24.0443
24.0639
24.0868
24.1128
24.1415
24.1729
24.2067
24.2427
24.2807
24.3204
24.3616
24.404
24.4475
24.4919
24.5369
24.5823
24.6281
24.6739
24.7197
24.7652
24.8104
24.8552
24.8995
24.9431
24.9859
25.028
25.0691
25.1094
25.1487
25.1871
25.2244
25.2606
25.2958
25.33
25.3631
25.3951
25.426
25.4559
25.4848
25.5126
25.5394
25.5653
25.5901
25.614
25.637
25.6591
25.6803
25.7007
25.7202
25.7389
25.7568
25.774
25.7904
25.8061
25.8212
25.8356
25.8493
25.8624
25.875
25.8869
25.8984
25.9093
25.9196
25.9295
25.939
25.9479
25.9565
25.9646
25.9723
25.9796
25.9866
25.9932
25.9995
26.0054
26.0111
26.0164
26.0214
26.0262
26.0307
26.035
26.039
26.0427
26.0463
26.0497
26.0528
26.0558
26.0585
26.0611
26.0636
26.0658
26.068
26.0699
26.0718
26.0735
26.0751
26.0766
26.0779
26.0792
26.0803
26.0814
26.0824
26.0833
26.0841
26.0849
26.0856
26.0862
26.0867
26.0872
26.0876
26.088
26.0884
26.0886
26.0889
26.0891
26.0892
23.9989
24.0007
24.0062
24.0154
24.0282
24.0445
24.0642
24.0871
24.113
24.1418
24.1731
24.2069
24.2429
24.2809
24.3206
24.3618
24.4042
24.4477
24.4921
24.5371
24.5825
24.6282
24.6741
24.7198
24.7654
24.8106
24.8554
24.8996
24.9432
24.986
25.0281
25.0693
25.1095
25.1488
25.1872
25.2245
25.2607
25.2959
25.3301
25.3631
25.3952
25.4261
25.456
25.4849
25.5127
25.5395
25.5653
25.5902
25.6141
25.6371
25.6592
25.6804
25.7007
25.7202
25.7389
25.7568
25.774
25.7904
25.8062
25.8212
25.8356
25.8493
25.8625
25.875
25.887
25.8984
25.9093
25.9197
25.9296
25.939
25.948
25.9565
25.9646
25.9723
25.9797
25.9866
25.9932
25.9995
26.0054
26.0111
26.0164
26.0214
26.0262
26.0307
26.035
26.039
26.0428
26.0463
26.0497
26.0528
26.0558
26.0585
26.0611
26.0636
26.0658
26.068
26.0699
26.0718
26.0735
26.0751
26.0766
26.0779
26.0792
26.0804
26.0814
26.0824
26.0833
26.0841
26.0849
26.0856
26.0862
26.0867
26.0872
26.0877
26.088
26.0884
26.0887
26.0889
26.0891
26.0892
23.9997
24.0014
24.0069
24.0161
24.0289
24.0452
24.0649
24.0878
24.1137
24.1424
24.1738
24.2076
24.2436
24.2815
24.3212
24.3624
24.4048
24.4483
24.4926
24.5376
24.583
24.6287
24.6745
24.7203
24.7658
24.811
24.8558
24.9
24.9436
24.9864
25.0285
25.0696
25.1099
25.1492
25.1875
25.2248
25.261
25.2962
25.3303
25.3634
25.3954
25.4263
25.4562
25.4851
25.5129
25.5397
25.5655
25.5904
25.6143
25.6373
25.6593
25.6805
25.7009
25.7204
25.7391
25.757
25.7741
25.7906
25.8063
25.8213
25.8357
25.8494
25.8626
25.8751
25.8871
25.8985
25.9094
25.9198
25.9296
25.9391
25.948
25.9566
25.9647
25.9724
25.9797
25.9867
25.9933
25.9996
26.0055
26.0111
26.0165
26.0215
26.0263
26.0308
26.035
26.039
26.0428
26.0464
26.0497
26.0529
26.0558
26.0586
26.0612
26.0636
26.0659
26.068
26.07
26.0718
26.0735
26.0751
26.0766
26.078
26.0792
26.0804
26.0815
26.0824
26.0833
26.0842
26.0849
26.0856
26.0862
26.0868
26.0873
26.0877
26.0881
26.0884
26.0887
26.0889
26.0891
26.0892
23.9705
23.9723
23.9781
23.9878
24.0012
24.0182
24.0388
24.0627
24.0896
24.1196
24.1522
24.1873
24.2246
24.2638
24.3049
24.3474
24.3911
24.4359
24.4815
24.5277
24.5742
24.621
24.6679
24.7146
24.761
24.8071
24.8526
24.8975
24.9417
24.9852
25.0277
25.0694
25.1101
25.1497
25.1884
25.2259
25.2624
25.2979
25.3322
25.3654
25.3975
25.4286
25.4585
25.4874
25.5153
25.5422
25.568
25.5929
25.6167
25.6397
25.6618
25.6829
25.7032
25.7227
25.7413
25.7592
25.7763
25.7927
25.8084
25.8234
25.8377
25.8514
25.8645
25.8769
25.8888
25.9002
25.911
25.9214
25.9312
25.9406
25.9495
25.958
25.9661
25.9737
25.981
25.9879
25.9945
26.0007
26.0066
26.0122
26.0175
26.0225
26.0273
26.0317
26.036
26.0399
26.0437
26.0472
26.0505
26.0537
26.0566
26.0593
26.0619
26.0643
26.0666
26.0687
26.0706
26.0724
26.0741
26.0757
26.0771
26.0785
26.0797
26.0809
26.0819
26.0829
26.0838
26.0846
26.0853
26.086
26.0866
26.0871
26.0876
26.088
26.0884
26.0887
26.089
26.0893
26.0894
26.0896
23.9697
23.9716
23.9774
23.987
24.0005
24.0175
24.0381
24.0619
24.089
24.1189
24.1515
24.1866
24.2239
24.2632
24.3042
24.3467
24.3905
24.4353
24.4809
24.5271
24.5737
24.6205
24.6674
24.7141
24.7606
24.8066
24.8522
24.8971
24.9413
24.9848
25.0274
25.069
25.1097
25.1494
25.1881
25.2256
25.2622
25.2976
25.3319
25.3651
25.3973
25.4283
25.4583
25.4872
25.5151
25.5419
25.5678
25.5927
25.6166
25.6395
25.6616
25.6828
25.7031
25.7225
25.7412
25.7591
25.7762
25.7926
25.8083
25.8233
25.8376
25.8513
25.8644
25.8768
25.8888
25.9001
25.911
25.9213
25.9311
25.9405
25.9494
25.9579
25.966
25.9737
25.981
25.9879
25.9944
26.0007
26.0066
26.0122
26.0175
26.0225
26.0272
26.0317
26.0359
26.0399
26.0436
26.0472
26.0505
26.0536
26.0565
26.0593
26.0619
26.0643
26.0665
26.0686
26.0706
26.0724
26.0741
26.0757
26.0771
26.0785
26.0797
26.0808
26.0819
26.0829
26.0837
26.0846
26.0853
26.086
26.0866
26.0871
26.0876
26.088
26.0884
26.0887
26.089
26.0892
26.0894
26.0895
23.9695
23.9714
23.9771
23.9868
24.0002
24.0173
24.0378
24.0617
24.0887
24.1186
24.1513
24.1864
24.2237
24.263
24.304
24.3465
24.3903
24.4351
24.4807
24.5269
24.5735
24.6204
24.6672
24.7139
24.7604
24.8065
24.852
24.897
24.9412
24.9846
25.0272
25.0689
25.1096
25.1493
25.1879
25.2255
25.2621
25.2975
25.3318
25.365
25.3972
25.4282
25.4582
25.4871
25.515
25.5419
25.5677
25.5926
25.6165
25.6395
25.6615
25.6827
25.703
25.7225
25.7412
25.759
25.7762
25.7925
25.8082
25.8232
25.8375
25.8512
25.8643
25.8768
25.8887
25.9001
25.9109
25.9213
25.9311
25.9405
25.9494
25.9579
25.966
25.9736
25.9809
25.9879
25.9944
26.0007
26.0066
26.0122
26.0175
26.0225
26.0272
26.0317
26.0359
26.0399
26.0436
26.0472
26.0505
26.0536
26.0565
26.0593
26.0619
26.0643
26.0665
26.0686
26.0706
26.0724
26.0741
26.0756
26.0771
26.0784
26.0797
26.0808
26.0819
26.0829
26.0837
26.0845
26.0853
26.0859
26.0865
26.0871
26.0876
26.088
26.0884
26.0887
26.089
26.0892
26.0894
26.0895
23.9697
23.9716
23.9774
23.987
24.0005
24.0175
24.0381
24.0619
24.089
24.1189
24.1515
24.1866
24.2239
24.2632
24.3042
24.3467
24.3905
24.4353
24.4809
24.5271
24.5737
24.6205
24.6674
24.7141
24.7606
24.8066
24.8522
24.8971
24.9413
24.9848
25.0274
25.069
25.1097
25.1494
25.1881
25.2256
25.2622
25.2976
25.3319
25.3651
25.3973
25.4283
25.4583
25.4872
25.5151
25.5419
25.5678
25.5927
25.6166
25.6395
25.6616
25.6828
25.7031
25.7225
25.7412
25.7591
25.7762
25.7926
25.8083
25.8233
25.8376
25.8513
25.8643
25.8768
25.8888
25.9001
25.911
25.9213
25.9311
25.9405
25.9494
25.9579
25.966
25.9737
25.981
25.9879
25.9944
26.0007
26.0066
26.0122
26.0175
26.0225
26.0272
26.0317
26.0359
26.0399
26.0436
26.0472
26.0505
26.0536
26.0565
26.0593
26.0619
26.0643
26.0665
26.0686
26.0706
26.0724
26.0741
26.0757
26.0771
26.0785
26.0797
26.0808
26.0819
26.0829
26.0837
26.0846
26.0853
26.086
26.0866
26.0871
26.0876
26.088
26.0884
26.0887
26.089
26.0892
26.0894
26.0895
23.9705
23.9723
23.9781
23.9878
24.0012
24.0182
24.0388
24.0627
24.0897
24.1196
24.1522
24.1873
24.2246
24.2638
24.3049
24.3474
24.3911
24.4359
24.4815
24.5277
24.5743
24.621
24.6679
24.7146
24.761
24.8071
24.8526
24.8975
24.9417
24.9852
25.0277
25.0694
25.1101
25.1497
25.1884
25.2259
25.2624
25.2979
25.3322
25.3654
25.3975
25.4286
25.4585
25.4874
25.5153
25.5422
25.568
25.5929
25.6167
25.6397
25.6618
25.6829
25.7032
25.7227
25.7413
25.7592
25.7763
25.7927
25.8084
25.8234
25.8377
25.8514
25.8645
25.8769
25.8888
25.9002
25.911
25.9214
25.9312
25.9406
25.9495
25.958
25.9661
25.9737
25.981
25.9879
25.9945
26.0007
26.0066
26.0122
26.0175
26.0225
26.0273
26.0317
26.036
26.0399
26.0437
26.0472
26.0505
26.0537
26.0566
26.0593
26.0619
26.0643
26.0666
26.0687
26.0706
26.0724
26.0741
26.0757
26.0771
26.0785
26.0797
26.0809
26.0819
26.0829
26.0838
26.0846
26.0853
26.086
26.0866
26.0871
26.0876
26.088
26.0884
26.0887
26.089
26.0893
26.0894
26.0896
23.9353
23.9373
23.9435
23.9537
23.9679
23.9858
24.0075
24.0326
24.0609
24.0923
24.1264
24.1631
24.202
24.2429
24.2856
24.3297
24.3751
24.4214
24.4685
24.5162
24.5641
24.6122
24.6603
24.7082
24.7557
24.8027
24.8492
24.895
24.9399
24.9841
25.0273
25.0695
25.1106
25.1507
25.1898
25.2277
25.2645
25.3001
25.3347
25.368
25.4003
25.4315
25.4615
25.4905
25.5184
25.5453
25.5711
25.596
25.6199
25.6428
25.6648
25.686
25.7062
25.7256
25.7442
25.762
25.7791
25.7954
25.811
25.8259
25.8402
25.8538
25.8668
25.8792
25.8911
25.9024
25.9131
25.9234
25.9332
25.9425
25.9513
25.9598
25.9678
25.9754
25.9826
25.9895
25.996
26.0022
26.0081
26.0136
26.0189
26.0238
26.0285
26.0329
26.0371
26.0411
26.0448
26.0483
26.0516
26.0547
26.0576
26.0603
26.0628
26.0652
26.0674
26.0695
26.0714
26.0732
26.0749
26.0764
26.0778
26.0792
26.0804
26.0815
26.0825
26.0835
26.0843
26.0851
26.0858
26.0865
26.0871
26.0876
26.0881
26.0885
26.0889
26.0892
26.0895
26.0897
26.0899
26.09
23.9345
23.9366
23.9427
23.953
23.9671
23.9851
24.0067
24.0318
24.0602
24.0916
24.1257
24.1624
24.2013
24.2423
24.2849
24.3291
24.3745
24.4208
24.468
24.5156
24.5636
24.6117
24.6598
24.7077
24.7552
24.8023
24.8488
24.8946
24.9395
24.9837
25.0269
25.0691
25.1103
25.1504
25.1895
25.2274
25.2642
25.2998
25.3344
25.3678
25.4001
25.4312
25.4613
25.4903
25.5182
25.5451
25.5709
25.5958
25.6197
25.6426
25.6647
25.6858
25.7061
25.7255
25.7441
25.7619
25.779
25.7953
25.8109
25.8258
25.8401
25.8537
25.8667
25.8791
25.891
25.9023
25.913
25.9233
25.9331
25.9424
25.9513
25.9597
25.9677
25.9753
25.9826
25.9894
25.996
26.0021
26.008
26.0135
26.0188
26.0238
26.0285
26.0329
26.0371
26.041
26.0447
26.0482
26.0515
26.0546
26.0575
26.0602
26.0628
26.0651
26.0674
26.0694
26.0714
26.0732
26.0748
26.0764
26.0778
26.0791
26.0803
26.0815
26.0825
26.0834
26.0843
26.0851
26.0858
26.0865
26.087
26.0876
26.088
26.0885
26.0888
26.0891
26.0894
26.0896
26.0898
26.09
23.9343
23.9363
23.9425
23.9527
23.9669
23.9849
24.0065
24.0316
24.06
24.0913
24.1255
24.1622
24.2011
24.242
24.2847
24.3289
24.3743
24.4206
24.4678
24.5154
24.5634
24.6115
24.6596
24.7075
24.7551
24.8022
24.8486
24.8944
24.9394
24.9835
25.0268
25.069
25.1102
25.1503
25.1893
25.2273
25.2641
25.2998
25.3343
25.3677
25.4
25.4312
25.4612
25.4902
25.5181
25.545
25.5709
25.5957
25.6196
25.6426
25.6646
25.6857
25.706
25.7254
25.744
25.7619
25.7789
25.7952
25.8108
25.8258
25.84
25.8537
25.8667
25.8791
25.8909
25.9022
25.913
25.9233
25.9331
25.9424
25.9512
25.9597
25.9677
25.9753
25.9825
25.9894
25.9959
26.0021
26.008
26.0135
26.0188
26.0237
26.0284
26.0329
26.0371
26.041
26.0447
26.0482
26.0515
26.0546
26.0575
26.0602
26.0627
26.0651
26.0673
26.0694
26.0713
26.0731
26.0748
26.0763
26.0778
26.0791
26.0803
26.0814
26.0825
26.0834
26.0843
26.0851
26.0858
26.0864
26.087
26.0876
26.088
26.0885
26.0888
26.0891
26.0894
26.0896
26.0898
26.0899
23.9345
23.9366
23.9427
23.953
23.9671
23.9851
24.0067
24.0318
24.0602
24.0916
24.1257
24.1624
24.2013
24.2423
24.2849
24.3291
24.3745
24.4208
24.468
24.5156
24.5636
24.6117
24.6598
24.7077
24.7552
24.8023
24.8488
24.8946
24.9395
24.9837
25.0269
25.0691
25.1103
25.1504
25.1895
25.2274
25.2642
25.2998
25.3344
25.3678
25.4001
25.4312
25.4613
25.4903
25.5182
25.5451
25.5709
25.5958
25.6197
25.6426
25.6647
25.6858
25.7061
25.7255
25.7441
25.7619
25.779
25.7953
25.8109
25.8258
25.8401
25.8537
25.8667
25.8791
25.891
25.9023
25.913
25.9233
25.9331
25.9424
25.9513
25.9597
25.9677
25.9753
25.9826
25.9894
25.996
26.0021
26.008
26.0135
26.0188
26.0238
26.0285
26.0329
26.0371
26.041
26.0447
26.0482
26.0515
26.0546
26.0575
26.0602
26.0628
26.0651
26.0674
26.0694
26.0714
26.0732
26.0748
26.0764
26.0778
26.0791
26.0803
26.0815
26.0825
26.0834
26.0843
26.0851
26.0858
26.0865
26.087
26.0876
26.088
26.0885
26.0888
26.0891
26.0894
26.0896
26.0898
26.09
23.9353
23.9373
23.9435
23.9537
23.9679
23.9858
24.0075
24.0326
24.0609
24.0923
24.1264
24.1631
24.202
24.2429
24.2856
24.3297
24.3751
24.4214
24.4685
24.5162
24.5641
24.6122
24.6603
24.7082
24.7557
24.8027
24.8492
24.895
24.9399
24.9841
25.0273
25.0695
25.1106
25.1507
25.1898
25.2277
25.2645
25.3001
25.3347
25.368
25.4003
25.4315
25.4615
25.4905
25.5184
25.5453
25.5711
25.596
25.6199
25.6428
25.6648
25.686
25.7062
25.7256
25.7442
25.762
25.7791
25.7954
25.811
25.8259
25.8402
25.8538
25.8668
25.8792
25.8911
25.9024
25.9131
25.9234
25.9332
25.9425
25.9513
25.9598
25.9678
25.9754
25.9826
25.9895
25.996
26.0022
26.0081
26.0136
26.0189
26.0238
26.0285
26.0329
26.0371
26.0411
26.0448
26.0483
26.0516
26.0547
26.0575
26.0603
26.0628
26.0652
26.0674
26.0695
26.0714
26.0732
26.0749
26.0764
26.0778
26.0791
26.0804
26.0815
26.0825
26.0835
26.0843
26.0851
26.0858
26.0865
26.0871
26.0876
26.0881
26.0885
26.0889
26.0892
26.0894
26.0897
26.0899
26.09
23.8943
23.8966
23.9032
23.9141
23.9291
23.9482
23.9711
23.9977
24.0276
24.0607
24.0967
24.1352
24.1761
24.2189
24.2635
24.3096
24.3569
24.405
24.4539
24.5033
24.5529
24.6025
24.652
24.7012
24.75
24.7982
24.8457
24.8924
24.9383
24.9832
25.0271
25.0699
25.1117
25.1523
25.1917
25.23
25.2671
25.303
25.3378
25.3714
25.4038
25.4351
25.4652
25.4942
25.5222
25.5491
25.5749
25.5998
25.6236
25.6465
25.6685
25.6896
25.7098
25.7291
25.7476
25.7654
25.7824
25.7986
25.8141
25.8289
25.8431
25.8567
25.8696
25.8819
25.8937
25.9049
25.9156
25.9258
25.9355
25.9447
25.9535
25.9619
25.9698
25.9774
25.9845
25.9913
25.9978
26.0039
26.0097
26.0152
26.0204
26.0253
26.03
26.0344
26.0385
26.0424
26.0461
26.0495
26.0528
26.0558
26.0587
26.0614
26.0639
26.0662
26.0684
26.0704
26.0723
26.0741
26.0757
26.0772
26.0786
26.0799
26.0811
26.0822
26.0832
26.0842
26.085
26.0858
26.0865
26.0871
26.0877