/*--------------------------------*- C++ -*----------------------------------*\
  =========                 |
  \\      /  F ield         | OpenFOAM: The Open Source CFD Toolbox
   \\    /   O peration     | Website:  https://openfoam.org
    \\  /    A nd           | Version:  6
     \\/     M anipulation  |
\*---------------------------------------------------------------------------*/
FoamFile
{
    version     2.0;
    format      ascii;
    class       volVectorField;
    location    "120";
    object      U;
}
// * * * * * * * * * * * * * * * * * * * * * * * * * * * * * * * * * * * * * //

dimensions      [0 1 -1 0 0 0 0];

internalField   nonuniform List<vector> 
54000
(
(5.25811e-20 4.20648e-20 1.28439e-27)
(8.76351e-20 4.18019e-28 -4.30823e-20)
(2.27851e-19 4.1802e-28 8.56261e-28)
(3.15486e-19 4.18019e-28 -4.30823e-20)
(3.68067e-19 4.20648e-20 8.56261e-28)
(5.25811e-19 -4.20648e-20 -2.15412e-20)
(7.01081e-19 -4.20648e-20 -2.15412e-20)
(8.58824e-19 -4.20648e-20 -6.46235e-20)
(8.76351e-19 4.20648e-20 -6.46235e-20)
(8.2377e-19 -8.41297e-20 -8.61646e-20)
(9.46459e-19 -2.19799e-44 -4.30823e-20)
(1.1042e-18 -3.81293e-33 -4.30823e-20)
(1.06915e-18 4.18019e-28 -6.46235e-20)
(1.03409e-18 -2.58452e-33 -2.15412e-20)
(1.12173e-18 -4.20648e-20 8.5626e-28)
(1.22689e-18 -8.41297e-20 -4.30823e-20)
(1.31453e-18 -4.20648e-20 -2.15412e-20)
(1.41969e-18 -5.23706e-33 -4.30823e-20)
(1.40216e-18 -5.16905e-33 -4.30823e-20)
(1.34958e-18 -4.20648e-20 -4.30823e-20)
(1.33205e-18 -4.20648e-20 -4.30823e-20)
(1.31453e-18 -4.20648e-20 -6.46235e-20)
(1.34958e-18 5.37724e-33 -8.61646e-20)
(1.41969e-18 -4.18025e-28 -2.14071e-28)
(1.47227e-18 -4.18019e-28 -2.15412e-20)
(1.4898e-18 4.1281e-44 2.64744e-33)
(1.47227e-18 -4.18014e-28 -2.12728e-36)
(1.52485e-18 1.39796e-43 -6.42196e-28)
(1.52485e-18 4.20648e-20 2.15412e-20)
(1.52485e-18 -4.15407e-36 4.30823e-20)
(1.64754e-18 4.20648e-20 4.30823e-20)
(1.64754e-18 -8.41297e-20 -2.15412e-20)
(1.45474e-18 4.1801e-28 -2.15412e-20)
(1.38463e-18 4.20648e-20 2.15412e-20)
(1.36711e-18 4.20648e-20 -4.30823e-20)
(1.33205e-18 4.1801e-28 -6.42201e-28)
(1.34958e-18 8.41297e-20 -4.30823e-20)
(1.38463e-18 8.41297e-20 -2.15412e-20)
(1.33205e-18 4.20648e-20 -4.30823e-20)
(1.26195e-18 -4.20648e-20 -2.15412e-20)
(1.19184e-18 4.20648e-20 -4.30823e-20)
(1.08668e-18 4.20648e-20 2.15412e-20)
(1.05162e-18 4.20648e-20 -6.422e-28)
(9.81513e-19 4.20648e-20 -4.28126e-28)
(9.63986e-19 4.20648e-20 4.30823e-20)
(9.81513e-19 4.20648e-20 -2.15412e-20)
(9.63986e-19 5.4411e-34 -2.15412e-20)
(9.46459e-19 4.20648e-20 -2.15412e-20)
(9.46459e-19 4.20648e-20 -2.15412e-20)
(8.93878e-19 4.20648e-20 -4.30823e-20)
(8.58824e-19 4.20648e-20 -4.30823e-20)
(8.58824e-19 -4.20648e-20 2.14065e-28)
(8.58824e-19 -4.20648e-20 2.15412e-20)
(9.28932e-19 -4.20648e-20 4.30823e-20)
(9.63986e-19 -5.23706e-33 4.30823e-20)
(8.93878e-19 4.20648e-20 4.30823e-20)
(9.28932e-19 4.20648e-20 4.30823e-20)
(9.63986e-19 -4.18029e-28 2.15412e-20)
(8.76351e-19 4.18024e-28 -2.15412e-20)
(8.41297e-19 4.20648e-20 -4.30823e-20)
(8.06243e-19 -4.20648e-20 -2.15412e-20)
(7.01081e-19 -4.20648e-20 4.30823e-20)
(7.36135e-19 -1.22466e-32 1.07706e-19)
(7.36135e-19 -2.53053e-32 -6.42196e-28)
(6.83554e-19 -4.18036e-28 2.15412e-20)
(7.18608e-19 -7.34964e-33 -9.50199e-38)
(6.13446e-19 -7.6217e-33 -4.30823e-20)
(4.73229e-19 -4.20648e-20 2.15412e-20)
(4.55702e-19 -8.36046e-28 2.15412e-20)
(5.60865e-19 -4.20648e-20 2.15412e-20)
(5.60865e-19 4.18014e-28 -2.14068e-28)
(4.38175e-19 4.18019e-28 -2.12727e-36)
(3.68067e-19 4.20648e-20 -6.42193e-28)
(4.38175e-19 8.41297e-20 4.30823e-20)
(4.55702e-19 4.20648e-20 -2.15412e-20)
(3.5054e-19 -4.18019e-28 -2.15412e-20)
(3.33013e-19 -4.20648e-20 -6.42194e-28)
(3.5054e-19 1.36028e-34 -4.28128e-28)
(2.10324e-19 4.20648e-20 2.15412e-20)
(5.2581e-20 6.38597e-35 4.30823e-20)
(5.2581e-20 -4.20648e-20 7.34571e-33)
(1.40216e-19 3.47286e-33 2.15412e-20)
(2.10324e-19 4.20648e-20 -2.15412e-20)
(2.10324e-19 2.72055e-34 2.17478e-36)
(2.27851e-19 4.20648e-20 -4.28128e-28)
(2.97959e-19 4.20648e-20 -4.28132e-28)
(2.80432e-19 4.80251e-34 -4.30823e-20)
(2.45378e-19 2.72055e-34 -8.56261e-28)
(2.80432e-19 8.36041e-28 -8.5626e-28)
(2.45378e-19 -4.20648e-20 -1.07033e-27)
(1.92797e-19 4.1802e-28 2.15412e-20)
(1.57743e-19 -2.04041e-33 -6.46235e-20)
(1.22689e-19 2.72055e-34 -2.15412e-20)
(1.22689e-19 4.20648e-20 -2.14065e-28)
(1.22689e-19 1.40182e-34 2.15412e-20)
(1.22689e-19 4.20648e-20 -2.14065e-28)
(1.40216e-19 4.20648e-20 4.30823e-20)
(1.7527e-19 1.40182e-34 -4.28131e-28)
(1.05162e-19 -3.4687e-33 -2.15412e-20)
(-2.26427e-27 4.20648e-20 -4.28131e-28)
(8.76351e-20 4.20648e-20 -4.30823e-20)
(5.25811e-20 -2.4485e-33 -6.46235e-20)
(3.5054e-20 -4.20648e-20 -4.30823e-20)
(1.05162e-19 -8.41297e-20 -4.30823e-20)
(3.5054e-20 -4.18023e-28 2.14066e-28)
(1.7527e-20 -4.18019e-28 8.15948e-34)
(7.01081e-20 4.20648e-20 1.08773e-33)
(8.76351e-20 -1.70034e-33 -1.50077e-44)
(1.05162e-19 4.20648e-20 -2.15412e-20)
(3.5054e-20 4.20648e-20 -6.46235e-20)
(-5.25811e-20 4.20648e-20 -4.30823e-20)
(-5.25811e-20 4.20648e-20 -2.15412e-20)
(-1.7527e-20 -4.18016e-28 -2.15412e-20)
(1.7527e-20 4.20648e-20 2.15412e-20)
(-7.01081e-20 8.41297e-20 -4.30823e-20)
(-1.57743e-19 -4.20648e-20 -2.15412e-20)
(-1.22689e-19 -4.20648e-20 -2.15412e-20)
(-8.76351e-20 -4.20648e-20 -4.30823e-20)
(-5.25811e-20 -2.45265e-33 2.15412e-20)
(-5.22524e-28 4.20648e-20 6.46235e-20)
(3.5054e-20 -1.35432e-33 -4.30823e-20)
(8.76351e-20 4.1802e-28 -6.46235e-20)
(2.27851e-19 -4.20648e-20 -2.15412e-20)
(3.33013e-19 4.18019e-28 -4.30823e-20)
(3.68067e-19 8.41297e-20 -6.46235e-20)
(4.90756e-19 4.18019e-28 -2.15412e-20)
(7.18608e-19 -5.4558e-34 1.07033e-27)
(9.11405e-19 -4.20648e-20 -6.46235e-20)
(8.2377e-19 -2.08423e-42 -8.61646e-20)
(7.88716e-19 -8.41297e-20 -6.46235e-20)
(9.9904e-19 4.20648e-20 -4.30823e-20)
(1.1042e-18 4.20648e-20 -4.30823e-20)
(1.08668e-18 -8.36037e-28 -4.30823e-20)
(1.03409e-18 4.20648e-20 -4.30823e-20)
(1.08668e-18 -4.7724e-34 2.15412e-20)
(1.22689e-18 -4.20648e-20 -4.30823e-20)
(1.33205e-18 -4.20648e-20 -4.30823e-20)
(1.41969e-18 -5.10103e-33 -2.15412e-20)
(1.40216e-18 -4.20648e-20 -4.30823e-20)
(1.34958e-18 -4.20648e-20 -4.30823e-20)
(1.33205e-18 -4.20648e-20 -4.30823e-20)
(1.31453e-18 -1.68259e-19 -2.15412e-20)
(1.34958e-18 4.20648e-20 -6.46235e-20)
(1.40216e-18 1.26195e-19 -2.15412e-20)
(1.45474e-18 8.41297e-20 2.14068e-28)
(1.4898e-18 4.20648e-20 -2.15412e-20)
(1.47227e-18 4.20648e-20 -2.14071e-28)
(1.54238e-18 -4.20648e-20 4.30823e-20)
(1.52485e-18 -4.20648e-20 -7.74677e-33)
(1.54238e-18 4.18019e-28 6.46235e-20)
(1.63001e-18 4.1802e-28 -2.1406e-28)
(1.63001e-18 -1.26195e-19 -4.30823e-20)
(1.50732e-18 -9.52608e-33 -6.46235e-20)
(1.41969e-18 8.41297e-20 -8.56266e-28)
(1.34958e-18 -8.36048e-28 -2.15412e-20)
(1.34958e-18 -4.20648e-20 -8.56261e-28)
(1.38463e-18 4.20648e-20 -6.46235e-20)
(1.34958e-18 8.41297e-20 -4.30823e-20)
(1.297e-18 4.20648e-20 -6.46235e-20)
(1.26195e-18 -4.20648e-20 -4.30823e-20)
(1.20936e-18 4.20648e-20 -2.15412e-20)
(1.06915e-18 8.3604e-28 -4.30823e-20)
(1.05162e-18 4.20648e-20 2.15412e-20)
(9.63986e-19 4.20648e-20 -2.15412e-20)
(9.28932e-19 4.20648e-20 -1.07033e-27)
(9.63986e-19 8.41297e-20 -4.28135e-28)
(9.81513e-19 -8.36038e-28 -1.07033e-27)
(9.46459e-19 4.18028e-28 -6.46235e-20)
(9.28932e-19 8.41297e-20 -4.30823e-20)
(8.93878e-19 6.20338e-34 -6.46235e-20)
(8.06243e-19 8.41297e-20 -4.30823e-20)
(7.88716e-19 -4.20648e-20 -2.14062e-28)
(8.41297e-19 -4.18007e-28 8.61646e-20)
(9.81513e-19 -8.41297e-20 4.30823e-20)
(9.9904e-19 -8.41297e-20 2.15412e-20)
(9.11405e-19 -4.20648e-20 -6.42201e-28)
(9.11405e-19 -4.20648e-20 -2.14068e-28)
(9.28932e-19 -4.20648e-20 2.15412e-20)
(8.93878e-19 2.04041e-34 -6.42198e-28)
(8.2377e-19 4.20648e-20 -4.30823e-20)
(7.71189e-19 4.20648e-20 2.15412e-20)
(7.18608e-19 -4.20648e-20 2.15412e-20)
(7.53662e-19 4.20648e-20 8.61646e-20)
(7.53662e-19 4.20648e-20 -2.15412e-20)
(6.83554e-19 4.20648e-20 -4.28127e-28)
(7.18608e-19 4.20648e-20 3.21707e-36)
(6.13446e-19 4.20648e-20 -4.30823e-20)
(4.90756e-19 4.20648e-20 2.15412e-20)
(4.55702e-19 6.75984e-34 -2.15412e-20)
(5.43338e-19 -8.41297e-20 4.30823e-20)
(5.60865e-19 -4.20648e-20 -4.28128e-28)
(4.73229e-19 4.18025e-28 2.15412e-20)
(4.38175e-19 4.20648e-20 -2.15412e-20)
(4.20648e-19 1.26195e-19 -2.14065e-28)
(4.03121e-19 -2.77925e-33 -4.30823e-20)
(3.33013e-19 -4.18015e-28 2.15412e-20)
(3.5054e-19 -4.20648e-20 2.15412e-20)
(3.68067e-19 -4.1801e-28 2.15412e-20)
(1.92797e-19 4.18019e-28 -2.15412e-20)
(1.7527e-20 4.20648e-20 4.30823e-20)
(5.2581e-20 4.20648e-20 2.15412e-20)
(1.57743e-19 8.41297e-20 4.30823e-20)
(1.92797e-19 4.20648e-20 -2.14067e-28)
(1.92797e-19 4.20648e-20 2.14065e-28)
(2.45378e-19 4.20648e-20 -2.14063e-28)
(2.97959e-19 -3.26932e-33 -8.61646e-20)
(2.45378e-19 8.88333e-34 -4.30823e-20)
(2.27851e-19 -8.41297e-20 -8.5626e-28)
(2.80432e-19 -1.26195e-19 -4.30823e-20)
(2.62905e-19 -1.26195e-19 -1.28439e-27)
(1.7527e-19 -8.41297e-20 -2.15412e-20)
(1.05162e-19 -4.20648e-20 -6.46235e-20)
(1.22689e-19 -4.20648e-20 -2.15412e-20)
(1.22689e-19 -4.18014e-28 -2.15412e-20)
(1.40216e-19 4.20648e-20 -2.14066e-28)
(1.57743e-19 4.20648e-20 -4.30823e-20)
(1.40216e-19 4.20648e-20 -2.14065e-28)
(1.40216e-19 4.18022e-28 -2.15412e-20)
(8.76351e-20 -4.84405e-34 -2.15412e-20)
(1.7527e-20 8.41297e-20 -6.42197e-28)
(5.25811e-20 4.20648e-20 -6.46235e-20)
(-1.7527e-20 4.20648e-20 -6.46235e-20)
(-1.7527e-20 -4.20648e-20 -6.46235e-20)
(1.05162e-19 -8.41297e-20 -2.15412e-20)
(7.01081e-20 -8.41297e-20 2.14066e-28)
(5.25811e-20 -4.20648e-20 1.09844e-33)
(7.01081e-20 4.20648e-20 4.25455e-36)
(8.76351e-20 8.41297e-20 2.68768e-34)
(1.22689e-19 4.20648e-20 -4.30823e-20)
(5.25811e-20 8.36039e-28 -4.30823e-20)
(-5.25811e-20 4.20648e-20 -6.46235e-20)
(-1.05162e-19 4.20648e-20 -2.15412e-20)
(-3.5054e-20 -1.28811e-33 -2.15412e-20)
(5.25811e-20 4.20648e-20 -6.42195e-28)
(-1.05162e-19 8.41297e-20 -6.46235e-20)
(-2.10324e-19 -2.45605e-33 -6.42197e-28)
(-1.22689e-19 -4.20648e-20 2.15412e-20)
(-7.01081e-20 -4.20648e-20 7.9678e-34)
(-1.7527e-20 -8.41297e-20 2.15412e-20)
(1.7527e-20 4.20648e-20 6.46235e-20)
(3.5054e-20 -4.20648e-20 -2.15412e-20)
(8.76351e-20 -4.1802e-28 -4.30823e-20)
(2.62905e-19 -4.20648e-20 -4.30823e-20)
(3.68067e-19 -4.1802e-28 -4.30823e-20)
(3.5054e-19 4.20648e-20 -2.15412e-20)
(4.73229e-19 4.1802e-28 -4.30823e-20)
(7.18608e-19 4.20648e-20 8.56261e-28)
(8.76351e-19 -4.76096e-34 -8.61646e-20)
(8.2377e-19 -4.20648e-20 -8.61646e-20)
(8.41297e-19 4.20648e-20 -6.46235e-20)
(1.01657e-18 8.41297e-20 -4.30823e-20)
(1.08668e-18 1.26195e-19 -4.30823e-20)
(1.08668e-18 -1.67208e-27 -2.15412e-20)
(1.05162e-18 -4.20648e-20 -4.30823e-20)
(1.08668e-18 4.20648e-20 6.42196e-28)
(1.22689e-18 7.00268e-33 -4.30823e-20)
(1.31453e-18 8.36044e-28 -4.30823e-20)
(1.38463e-18 4.18024e-28 -2.15412e-20)
(1.40216e-18 1.00002e-32 1.07033e-27)
(1.34958e-18 4.20648e-20 -4.30823e-20)
(1.24442e-18 5.18151e-33 -4.30823e-20)
(1.33205e-18 -1.26195e-19 6.42199e-28)
(1.4898e-18 4.20648e-20 -6.46235e-20)
(1.43722e-18 1.26195e-19 -2.15412e-20)
(1.43722e-18 1.26195e-19 -4.30823e-20)
(1.4898e-18 4.18031e-28 -6.46235e-20)
(1.43722e-18 4.20648e-20 -2.14073e-28)
(1.4898e-18 -8.41297e-20 4.30823e-20)
(1.52485e-18 -8.41297e-20 2.15412e-20)
(1.52485e-18 4.18019e-28 4.30823e-20)
(1.61249e-18 -8.41297e-20 2.15412e-20)
(1.64754e-18 -4.20648e-20 -6.46235e-20)
(1.52485e-18 -4.1801e-28 -6.46235e-20)
(1.40216e-18 -4.15407e-36 -4.30823e-20)
(1.31453e-18 -1.25405e-27 -4.30823e-20)
(1.34958e-18 -4.20648e-20 -4.28131e-28)
(1.40216e-18 -4.20648e-20 -6.46235e-20)
(1.33205e-18 -4.20648e-20 -4.30823e-20)
(1.26195e-18 3.35915e-34 -4.30823e-20)
(1.27947e-18 8.41297e-20 -2.15412e-20)
(1.20936e-18 -4.20648e-20 -4.30823e-20)
(1.08668e-18 -8.77836e-33 -8.56261e-28)
(1.06915e-18 8.41297e-20 2.15412e-20)
(9.81513e-19 8.41297e-20 -8.56265e-28)
(9.63986e-19 4.20648e-20 -1.2844e-27)
(9.46459e-19 -8.36039e-28 -2.15412e-20)
(9.46459e-19 -4.20648e-20 -2.15412e-20)
(9.81513e-19 -4.20648e-20 -4.30823e-20)
(9.28932e-19 -4.20648e-20 -4.30823e-20)
(8.93878e-19 -8.41297e-20 -2.15412e-20)
(8.41297e-19 4.20648e-20 -2.15412e-20)
(8.06243e-19 -4.20648e-20 2.15412e-20)
(8.41297e-19 4.20648e-20 6.46235e-20)
(9.28932e-19 -8.36052e-28 8.61646e-20)
(9.81513e-19 -8.41297e-20 -4.28131e-28)
(8.93878e-19 -8.41297e-20 -4.28128e-28)
(9.28932e-19 -4.20648e-20 2.15412e-20)
(9.81513e-19 4.20648e-20 4.30823e-20)
(9.11405e-19 4.20648e-20 -6.42194e-28)
(8.58824e-19 4.34873e-33 -6.42194e-28)
(7.53662e-19 8.41297e-20 -6.42196e-28)
(7.18608e-19 1.32668e-32 4.30823e-20)
(8.2377e-19 4.20648e-20 6.46235e-20)
(7.71189e-19 4.20648e-20 -6.46235e-20)
(6.83554e-19 4.20648e-20 -2.15412e-20)
(6.83554e-19 1.26195e-19 -2.15412e-20)
(6.13446e-19 8.41297e-20 -4.30823e-20)
(5.08284e-19 8.36046e-28 -4.28131e-28)
(4.20648e-19 1.67208e-27 -4.30823e-20)
(5.25811e-19 1.25406e-27 4.30823e-20)
(5.95919e-19 -4.20648e-20 2.15412e-20)
(4.90757e-19 4.18025e-28 2.14063e-28)
(4.55702e-19 8.36045e-28 -2.15412e-20)
(4.20648e-19 4.20648e-20 -4.30823e-20)
(3.85594e-19 -4.20648e-20 -4.30823e-20)
(3.33013e-19 -4.89284e-33 -2.15412e-20)
(2.97959e-19 4.20648e-20 -8.56261e-28)
(3.5054e-19 -4.1801e-28 2.15412e-20)
(2.45378e-19 -4.20648e-20 -4.28129e-28)
(7.01081e-20 5.38293e-33 -2.15412e-20)
(7.01081e-20 4.18027e-28 -4.8537e-43)
(1.22689e-19 1.26195e-19 -6.42194e-28)
(1.7527e-19 4.20648e-20 -4.28128e-28)
(2.10324e-19 1.26195e-19 -2.15412e-20)
(1.92797e-19 4.20648e-20 -2.14067e-28)
(2.62905e-19 -4.20648e-20 -2.15412e-20)
(2.45378e-19 4.18015e-28 -2.15412e-20)
(2.10324e-19 -1.26195e-19 2.15412e-20)
(2.97959e-19 -1.26195e-19 -2.15412e-20)
(2.80432e-19 -8.41297e-20 4.30823e-20)
(1.92797e-19 -8.41297e-20 -2.15412e-20)
(1.22689e-19 -4.20648e-20 -4.30823e-20)
(1.40216e-19 -4.89096e-33 -4.30823e-20)
(1.7527e-19 -4.20648e-20 -4.30823e-20)
(1.40216e-19 8.41297e-20 -4.30823e-20)
(1.22689e-19 4.20648e-20 -6.46235e-20)
(1.57743e-19 -2.64008e-33 -2.15412e-20)
(1.57743e-19 4.20648e-20 -4.30823e-20)
(8.76351e-20 -3.60473e-33 -6.42196e-28)
(-2.7868e-27 -4.20648e-20 -4.30823e-20)
(5.25811e-20 -4.20648e-20 -2.15412e-20)
(-2.7868e-27 4.20648e-20 -2.15412e-20)
(-3.5054e-20 4.20648e-20 -6.46235e-20)
(8.76351e-20 -8.36034e-28 -2.15412e-20)
(7.01081e-20 -8.41297e-20 2.15412e-20)
(8.76351e-20 -8.41297e-20 -4.2813e-28)
(1.40216e-19 -4.20648e-20 -2.15412e-20)
(8.76351e-20 4.20648e-20 -2.14066e-28)
(5.25811e-20 -4.20648e-20 -2.15412e-20)
(5.25811e-20 -8.41297e-20 -4.30823e-20)
(-1.7527e-20 -4.20648e-20 -6.46235e-20)
(-8.76351e-20 8.36033e-28 -4.30823e-20)
(-3.5054e-20 8.41297e-20 -2.14064e-28)
(5.25811e-20 -4.20648e-20 -4.2813e-28)
(-7.01081e-20 4.18017e-28 -6.46235e-20)
(-2.45378e-19 -4.18017e-28 -2.15412e-20)
(-1.57743e-19 4.20648e-20 -8.18076e-34)
(-8.76351e-20 -4.18016e-28 -2.15412e-20)
(-1.7527e-20 1.56161e-33 4.30823e-20)
(5.25811e-20 -2.72055e-34 6.46235e-20)
(3.5054e-20 -4.18018e-28 -2.15412e-20)
(7.01081e-20 4.20648e-20 -4.30823e-20)
(2.62905e-19 4.20648e-20 -2.15412e-20)
(3.85594e-19 -4.20648e-20 -4.30823e-20)
(3.33013e-19 -4.20648e-20 -6.46235e-20)
(4.73229e-19 -4.20648e-20 -4.30823e-20)
(7.36135e-19 4.1802e-28 6.42196e-28)
(8.76351e-19 -4.20648e-20 -6.46235e-20)
(8.41297e-19 -4.20648e-20 -4.30823e-20)
(8.41297e-19 4.20648e-20 -8.61646e-20)
(1.03409e-18 8.41297e-20 -6.46235e-20)
(1.08668e-18 8.41297e-20 -4.30823e-20)
(9.81513e-19 -8.41297e-20 -6.46235e-20)
(1.05162e-18 -1.26195e-19 8.5626e-28)
(1.12173e-18 -2.07027e-33 4.30823e-20)
(1.20936e-18 -4.20648e-20 -2.15412e-20)
(1.33205e-18 -4.82898e-33 -2.15412e-20)
(1.40216e-18 8.41297e-20 -2.15412e-20)
(1.41969e-18 8.41297e-20 -2.15412e-20)
(1.33205e-18 4.20648e-20 -2.15412e-20)
(1.22689e-18 4.20648e-20 -2.15412e-20)
(1.33205e-18 4.20648e-20 4.30823e-20)
(1.4898e-18 4.20648e-20 2.15412e-20)
(1.4898e-18 -1.01979e-32 -2.14065e-28)
(1.41969e-18 4.20648e-20 -4.30823e-20)
(1.43722e-18 4.18019e-28 -2.15412e-20)
(1.41969e-18 4.18008e-28 -2.15412e-20)
(1.47227e-18 -4.20648e-20 4.30823e-20)
(1.5599e-18 4.18024e-28 2.15412e-20)
(1.50732e-18 4.20648e-20 4.30823e-20)
(1.59496e-18 -4.20648e-20 2.15412e-20)
(1.70012e-18 8.36029e-28 -4.30823e-20)
(1.52485e-18 -9.52193e-34 -4.30823e-20)
(1.38463e-18 -4.20648e-20 -4.30823e-20)
(1.33205e-18 -1.14398e-32 -2.15412e-20)
(1.33205e-18 4.20648e-20 4.30823e-20)
(1.36711e-18 -4.20648e-20 -4.30823e-20)
(1.36711e-18 -4.20648e-20 -8.56257e-28)
(1.33205e-18 -8.20319e-34 -4.30823e-20)
(1.24442e-18 4.20648e-20 -4.30823e-20)
(1.19184e-18 -4.06635e-34 -4.28135e-28)
(1.13926e-18 4.20648e-20 2.15412e-20)
(1.1042e-18 8.41297e-20 -4.28126e-28)
(9.63986e-19 4.20648e-20 -4.28126e-28)
(8.93878e-19 4.20648e-20 2.15412e-20)
(9.11405e-19 -4.20648e-20 -4.28139e-28)
(9.63986e-19 -8.41297e-20 -6.42192e-28)
(9.63986e-19 -4.18028e-28 -6.46235e-20)
(9.11405e-19 -8.41297e-20 -2.15412e-20)
(9.11405e-19 -4.20648e-20 2.14065e-28)
(8.41297e-19 4.18012e-28 2.15412e-20)
(8.41297e-19 4.18013e-28 4.30823e-20)
(8.76351e-19 -1.89758e-32 4.30823e-20)
(8.93878e-19 -4.18038e-28 4.30823e-20)
(9.63986e-19 5.44526e-33 4.30823e-20)
(9.28932e-19 -4.18019e-28 -6.42196e-28)
(9.81513e-19 -5.17564e-33 2.15412e-20)
(9.81513e-19 4.20648e-20 -8.56264e-28)
(8.58824e-19 8.41297e-20 -8.56259e-28)
(8.41297e-19 4.18014e-28 -4.28128e-28)
(7.71189e-19 -8.41297e-20 2.15412e-20)
(7.01081e-19 4.20648e-20 2.15412e-20)
(7.71189e-19 4.20648e-20 8.61646e-20)
(7.36135e-19 4.20648e-20 -2.15412e-20)
(7.18608e-19 4.20648e-20 -6.422e-28)
(7.36135e-19 8.41297e-20 -2.15412e-20)
(5.43338e-19 4.18025e-28 -6.42199e-28)
(4.55702e-19 -4.20648e-20 4.30823e-20)
(4.73229e-19 1.25405e-27 -2.15412e-20)
(5.43338e-19 8.41297e-20 2.15412e-20)
(5.60865e-19 -4.18025e-28 2.14065e-28)
(4.90757e-19 4.18014e-28 2.15412e-20)
(4.55702e-19 -8.41297e-20 -4.28133e-28)
(4.03121e-19 4.18023e-28 -2.15412e-20)
(4.03121e-19 -4.20648e-20 -4.30823e-20)
(3.68067e-19 -5.57713e-33 -6.42192e-28)
(2.97959e-19 8.41297e-20 2.15412e-20)
(3.15486e-19 4.20648e-20 6.46235e-20)
(2.10324e-19 -4.20648e-20 2.12727e-36)
(3.5054e-20 -4.20648e-20 4.30823e-20)
(1.22689e-19 -4.20648e-20 -4.28134e-28)
(1.7527e-19 4.20648e-20 -2.15412e-20)
(2.10324e-19 8.41297e-20 -2.14067e-28)
(2.27851e-19 8.41297e-20 -4.25696e-36)
(1.22689e-19 4.18013e-28 -2.15412e-20)
(2.45378e-19 8.41297e-20 -7.50386e-45)
(2.27851e-19 8.36036e-28 -4.30823e-20)
(1.92797e-19 -4.20648e-20 6.46235e-20)
(2.97959e-19 -4.20648e-20 -4.30823e-20)
(2.62905e-19 4.20648e-20 2.15412e-20)
(1.92797e-19 -4.20648e-20 -4.30823e-20)
(1.57743e-19 -9.17771e-33 -4.30823e-20)
(1.05162e-19 4.20648e-20 -4.30823e-20)
(1.40216e-19 -4.18029e-28 -2.15412e-20)
(1.92797e-19 4.20648e-20 -4.30823e-20)
(1.22689e-19 4.20648e-20 -8.61646e-20)
(1.7527e-19 4.18011e-28 -2.14065e-28)
(1.57743e-19 4.18013e-28 -4.30823e-20)
(-2.0901e-27 -6.58903e-33 -2.15412e-20)
(-3.5054e-20 -8.41297e-20 -4.28127e-28)
(1.22689e-19 1.2327e-44 -4.28133e-28)
(7.01081e-20 -4.18024e-28 -2.15412e-20)
(-1.7527e-20 4.20648e-20 -2.15412e-20)
(5.25811e-20 -4.20648e-20 -2.15412e-20)
(1.7527e-20 -2.78857e-33 -2.15412e-20)
(7.01081e-20 -4.18019e-28 -4.28129e-28)
(1.22689e-19 -4.20648e-20 -4.30823e-20)
(1.05162e-19 -4.20648e-20 -2.15412e-20)
(8.76351e-20 -4.20648e-20 -2.15412e-20)
(5.25811e-20 8.36038e-28 -2.15412e-20)
(-8.70874e-28 -4.20648e-20 -6.46235e-20)
(-3.5054e-20 4.20648e-20 -4.30823e-20)
(-7.01081e-20 8.41297e-20 -4.30823e-20)
(1.7527e-20 -4.20648e-20 2.15412e-20)
(-5.25811e-20 -8.41297e-20 -6.46235e-20)
(-1.92797e-19 4.20648e-20 -2.15412e-20)
(-1.57743e-19 4.20648e-20 -2.14066e-28)
(-1.05162e-19 -8.80025e-34 -2.15412e-20)
(-6.96699e-28 8.41297e-20 4.30823e-20)
(1.7527e-20 4.20648e-20 4.30823e-20)
(5.25811e-20 4.1802e-28 1.71252e-27)
(1.05162e-19 4.20648e-20 -4.30823e-20)
(2.10324e-19 4.20648e-20 -2.15412e-20)
(2.97959e-19 -4.20648e-20 -2.15412e-20)
(3.5054e-19 -4.20648e-20 -4.30823e-20)
(4.90756e-19 1.99887e-34 -6.46235e-20)
(6.66027e-19 1.99887e-34 -2.15412e-20)
(8.41297e-19 -4.20648e-20 -6.46235e-20)
(8.93878e-19 -4.20648e-20 -6.46235e-20)
(8.93878e-19 -4.18022e-28 -6.46235e-20)
(1.03409e-18 4.20648e-20 -6.46235e-20)
(1.03409e-18 -4.18021e-28 -4.30823e-20)
(9.63986e-19 -8.41297e-20 1.49846e-27)
(1.06915e-18 -4.20648e-20 8.5626e-28)
(1.12173e-18 2.07027e-33 2.15412e-20)
(1.22689e-18 -6.69936e-33 6.42202e-28)
(1.38463e-18 -4.82482e-33 8.56264e-28)
(1.43722e-18 8.41297e-20 -2.15412e-20)
(1.41969e-18 4.20648e-20 -2.15412e-20)
(1.33205e-18 4.18019e-28 -2.15412e-20)
(1.24442e-18 4.20648e-20 -2.15412e-20)
(1.33205e-18 4.20648e-20 2.14063e-28)
(1.45474e-18 4.20648e-20 4.28133e-28)
(1.47227e-18 -5.03302e-33 2.61863e-33)
(1.43722e-18 -1.11543e-32 -4.30823e-20)
(1.45474e-18 4.20648e-20 -4.30823e-20)
(1.41969e-18 4.18019e-28 -2.14065e-28)
(1.47227e-18 2.67901e-34 4.30823e-20)
(1.5599e-18 -5.37309e-33 -4.28128e-28)
(1.50732e-18 4.20648e-20 2.15412e-20)
(1.61249e-18 4.18009e-28 4.30823e-20)
(1.70012e-18 -9.65796e-33 -4.30823e-20)
(1.50732e-18 -1.03381e-32 -4.30823e-20)
(1.38463e-18 -1.10224e-32 -2.15412e-20)
(1.34958e-18 -4.20648e-20 -2.15412e-20)
(1.297e-18 4.20648e-20 2.15412e-20)
(1.34958e-18 -4.20648e-20 -2.15412e-20)
(1.40216e-18 -1.40182e-34 -6.42196e-28)
(1.33205e-18 8.63775e-33 -2.15412e-20)
(1.26195e-18 -4.20648e-20 -2.15412e-20)
(1.20936e-18 4.20648e-20 -4.28135e-28)
(1.15678e-18 -8.36039e-28 4.30823e-20)
(1.08668e-18 8.29768e-33 -4.28126e-28)
(9.46459e-19 -4.20648e-20 -2.14057e-28)
(9.11405e-19 -4.1802e-28 4.30823e-20)
(8.93878e-19 -8.84595e-33 -4.28122e-28)
(9.46459e-19 -4.20648e-20 6.46235e-20)
(9.63986e-19 -4.1802e-28 -4.30823e-20)
(9.28932e-19 -2.72055e-34 -6.42192e-28)
(9.46459e-19 -2.04041e-34 -2.15412e-20)
(8.76351e-19 -7.14145e-33 -2.15412e-20)
(8.06243e-19 4.20648e-20 4.30823e-20)
(8.2377e-19 -4.18032e-28 6.46235e-20)
(9.11405e-19 -4.20648e-20 8.61646e-20)
(9.63986e-19 1.08822e-32 4.30823e-20)
(9.11405e-19 -4.18019e-28 2.15412e-20)
(9.81513e-19 -4.20648e-20 4.30823e-20)
(1.01657e-18 -4.20648e-20 2.15412e-20)
(8.76351e-19 4.20648e-20 -2.14065e-28)
(7.88716e-19 -1.38707e-32 -4.28119e-28)
(7.71189e-19 -8.41297e-20 6.46235e-20)
(7.36135e-19 4.20648e-20 4.30823e-20)
(7.88716e-19 4.20648e-20 6.46235e-20)
(7.71189e-19 4.20648e-20 -2.15412e-20)
(7.18608e-19 4.20648e-20 2.15412e-20)
(6.83554e-19 -8.29768e-33 -4.30823e-20)
(5.60865e-19 -4.20648e-20 -8.56257e-28)
(5.08284e-19 4.20648e-20 -2.14055e-28)
(4.73229e-19 4.18019e-28 -2.14059e-28)
(5.08284e-19 4.20648e-20 4.30823e-20)
(5.43338e-19 -5.30507e-33 2.15412e-20)
(4.55702e-19 -4.76096e-33 2.15412e-20)
(4.38175e-19 -8.41297e-20 2.15412e-20)
(4.20648e-19 -8.30814e-36 -2.15412e-20)
(4.20648e-19 -4.20648e-20 2.14067e-28)
(4.55702e-19 3.80877e-33 -2.15412e-20)
(3.5054e-19 4.20648e-20 -6.42196e-28)
(2.80432e-19 4.20648e-20 -2.15412e-20)
(1.7527e-19 -4.20648e-20 7.72498e-33)
(7.01081e-20 -5.57713e-33 4.30823e-20)
(1.40216e-19 4.20648e-20 -2.14062e-28)
(1.7527e-19 -6.80138e-34 -2.15412e-20)
(2.10324e-19 4.20648e-20 -2.15412e-20)
(1.92797e-19 -2.72055e-33 1.35779e-33)
(1.7527e-19 -4.20648e-20 2.15412e-20)
(2.80432e-19 8.41297e-20 -2.14065e-28)
(1.92797e-19 4.18022e-28 -6.46235e-20)
(1.92797e-19 -4.89699e-33 2.15412e-20)
(3.33013e-19 -4.20648e-20 -6.42195e-28)
(2.62905e-19 4.20648e-20 2.15412e-20)
(1.7527e-19 -4.20648e-20 -2.15412e-20)
(1.7527e-19 4.15407e-36 -6.46235e-20)
(1.05162e-19 -5.20191e-43 -4.30823e-20)
(1.40216e-19 -4.18022e-28 -4.28129e-28)
(2.10324e-19 1.89608e-33 -6.42195e-28)
(1.57743e-19 1.90854e-33 -4.30823e-20)
(1.57743e-19 4.18018e-28 -2.15412e-20)
(1.40216e-19 -4.20648e-20 -4.30823e-20)
(1.7527e-20 -2.24998e-43 -2.15412e-20)
(-1.7527e-20 -4.18019e-28 2.15412e-20)
(8.76351e-20 4.20648e-20 -2.15412e-20)
(3.5054e-20 -4.1802e-28 -4.28129e-28)
(-3.5054e-20 -2.99261e-33 -2.15412e-20)
(5.25811e-20 -4.20648e-20 -2.15412e-20)
(7.01081e-20 -4.08083e-34 2.15412e-20)
(7.01081e-20 4.20648e-20 -2.15412e-20)
(1.05162e-19 -1.08822e-33 -4.30823e-20)
(7.01081e-20 4.18017e-28 -2.15412e-20)
(1.05162e-19 -4.15407e-36 -2.15412e-20)
(8.76351e-20 4.20648e-20 -2.15412e-20)
(-1.04505e-27 8.16165e-34 -2.15412e-20)
(-3.5054e-20 4.20648e-20 -4.30823e-20)
(-5.25811e-20 3.47824e-45 -4.30823e-20)
(-1.7527e-20 8.36039e-28 -6.42195e-28)
(-3.5054e-20 -8.41297e-20 -4.30823e-20)
(-1.57743e-19 8.41297e-20 -6.46235e-20)
(-1.7527e-19 1.36443e-33 -2.14065e-28)
(-8.76351e-20 4.18018e-28 -2.15412e-20)
(1.7527e-20 -1.15623e-33 2.15412e-20)
(5.25811e-20 4.20648e-20 4.30823e-20)
(1.79437e-20 1.72781e-33 -1.07706e-19)
(1.07662e-19 -4.30649e-20 -1.50788e-19)
(2.33268e-19 -4.30649e-20 -1.07706e-19)
(3.05043e-19 4.30649e-20 -1.9387e-19)
(3.76818e-19 -4.30649e-20 -8.61646e-20)
(5.20368e-19 -4.30649e-20 -6.46235e-20)
(6.81861e-19 -4.30649e-20 -6.46235e-20)
(8.07467e-19 -4.30649e-20 -1.29247e-19)
(8.25411e-19 4.27959e-28 -2.15412e-19)
(8.43355e-19 -4.27958e-28 -1.9387e-19)
(1.00485e-18 3.69043e-33 -1.50788e-19)
(1.07662e-18 -4.27961e-28 -1.50788e-19)
(1.07662e-18 4.30649e-20 -1.72329e-19)
(1.09457e-18 2.63996e-42 -1.29247e-19)
(1.11251e-18 4.30649e-20 -8.61646e-20)
(1.20223e-18 -4.30649e-20 -1.07706e-19)
(1.29195e-18 -1.28389e-27 -4.30823e-20)
(1.38167e-18 -8.55925e-28 -8.61646e-20)
(1.41755e-18 -5.0873e-33 -8.61646e-20)
(1.34578e-18 -4.30649e-20 -4.30823e-20)
(1.274e-18 -4.30649e-20 -4.30823e-20)
(1.23812e-18 4.30649e-20 -6.46235e-20)
(1.41755e-18 4.25283e-36 -8.61646e-20)
(1.48933e-18 -4.30649e-20 -2.15412e-20)
(1.4355e-18 4.30649e-20 4.28133e-28)
(1.52522e-18 -4.30649e-20 -4.30823e-20)
(1.52522e-18 -4.30649e-20 -4.25455e-36)
(1.54316e-18 8.61298e-20 2.15412e-20)
(1.5611e-18 4.27942e-28 -8.56266e-28)
(1.5611e-18 4.30649e-20 -1.28439e-27)
(1.54316e-18 -4.30649e-20 4.30823e-20)
(1.52522e-18 -8.61298e-20 -2.15412e-20)
(1.50727e-18 -8.61298e-20 -2.15412e-20)
(1.38167e-18 -8.61298e-20 -1.92658e-27)
(1.32784e-18 4.30649e-20 2.15412e-20)
(1.30989e-18 -1.75431e-42 4.30823e-20)
(1.30989e-18 -1.5895e-44 6.46235e-20)
(1.34578e-18 4.30649e-20 -2.15412e-20)
(1.30989e-18 9.19126e-33 2.15412e-20)
(1.274e-18 -6.26677e-34 2.15412e-20)
(1.20223e-18 -4.27976e-28 -6.46235e-20)
(1.09457e-18 -4.25282e-36 4.30823e-20)
(1.02279e-18 8.61298e-20 2.15412e-20)
(1.02279e-18 -8.49921e-33 -2.14065e-27)
(9.51017e-19 -4.30649e-20 4.30823e-20)
(9.1513e-19 4.30649e-20 -1.71252e-27)
(9.33073e-19 -8.08142e-33 4.30823e-20)
(9.33073e-19 -1.47617e-32 -2.15412e-20)
(9.1513e-19 4.27942e-28 -2.15412e-20)
(8.61298e-19 -1.5323e-32 -2.14069e-28)
(8.97186e-19 2.08892e-34 4.30823e-20)
(9.33073e-19 -4.30649e-20 8.61646e-20)
(9.1513e-19 4.27958e-28 4.30823e-20)
(9.33073e-19 -4.30649e-20 6.46235e-20)
(9.68961e-19 -6.12751e-33 4.30823e-20)
(8.97186e-19 -4.2798e-28 4.30823e-20)
(8.79242e-19 -4.30649e-20 8.61646e-20)
(8.97186e-19 4.27948e-28 4.30823e-20)
(8.25411e-19 -4.53025e-33 -1.07032e-27)
(8.43355e-19 -1.78255e-32 4.30823e-20)
(8.79242e-19 -1.33649e-32 2.15412e-20)
(8.43355e-19 -4.30649e-20 6.46235e-20)
(7.17749e-19 -8.42958e-33 1.29247e-19)
(6.63918e-19 -1.81083e-32 4.30823e-20)
(7.17749e-19 -8.61298e-20 8.61646e-20)
(6.63918e-19 -4.30649e-20 4.30823e-20)
(6.2803e-19 -4.25283e-36 2.15412e-20)
(5.38312e-19 -4.30649e-20 2.15412e-20)
(4.8448e-19 -4.30649e-20 8.61646e-20)
(5.20368e-19 -4.30649e-20 6.46235e-20)
(5.20368e-19 4.59563e-33 2.15412e-20)
(4.66537e-19 4.25283e-36 -2.14062e-28)
(4.12706e-19 -4.30649e-20 -1.07033e-27)
(3.94762e-19 -4.27963e-28 4.30823e-20)
(4.12706e-19 -4.27958e-28 -4.30823e-20)
(4.12706e-19 4.30649e-20 -2.15412e-20)
(3.58874e-19 4.30649e-20 -4.2813e-28)
(3.40931e-19 4.17785e-33 4.30823e-20)
(2.33268e-19 -4.87416e-33 -4.28131e-28)
(3.58874e-20 5.00916e-33 2.15412e-20)
(3.58874e-20 -4.27971e-28 4.9281e-33)
(1.07662e-19 3.34228e-33 4.30823e-20)
(1.4355e-19 4.30649e-20 -2.14065e-28)
(2.15325e-19 4.30649e-20 2.15412e-20)
(2.15325e-19 8.55915e-28 6.46235e-20)
(2.51212e-19 -1.29195e-19 2.15412e-20)
(3.05043e-19 5.57046e-34 -1.07033e-27)
(3.05043e-19 2.08467e-33 4.30823e-20)
(3.05043e-19 -4.30649e-20 -1.49846e-27)
(2.69156e-19 -4.30649e-20 -6.46235e-20)
(8.97186e-20 -4.30649e-20 2.15412e-20)
(8.97186e-20 -4.25283e-36 -8.56263e-28)
(1.79437e-19 -4.27954e-28 -8.56261e-28)
(1.61493e-19 -4.30649e-20 8.61646e-20)
(1.25606e-19 -4.30649e-20 2.15412e-20)
(1.61493e-19 -1.29195e-19 -6.42196e-28)
(1.4355e-19 -4.30649e-20 2.15412e-20)
(8.97186e-20 -4.30649e-20 -6.42197e-28)
(8.97186e-20 -2.50671e-33 -4.30823e-20)
(-3.58874e-20 4.27956e-28 -2.15412e-20)
(-2.3181e-27 8.49921e-33 -2.15412e-20)
(3.58874e-20 2.23244e-33 -6.46235e-20)
(7.17749e-20 -4.30649e-20 -2.15412e-20)
(1.61493e-19 -4.30649e-20 -6.46235e-20)
(7.17749e-20 -4.27959e-28 -2.15412e-20)
(1.79437e-20 -4.27956e-28 2.15412e-20)
(7.17749e-20 4.30649e-20 -2.15412e-20)
(5.38312e-20 4.30649e-20 -4.30823e-20)
(3.58874e-20 4.30649e-20 -6.46235e-20)
(1.79437e-20 4.30649e-20 -1.29247e-19)
(-3.56631e-28 4.27954e-28 -1.07706e-19)
(-1.79437e-20 -3.48154e-34 -8.61646e-20)
(1.79437e-20 4.27958e-28 -6.46235e-20)
(-3.58874e-20 1.60151e-33 -2.15412e-20)
(-1.4355e-19 4.30649e-20 -6.46235e-20)
(-1.25606e-19 -2.92875e-33 -2.15412e-20)
(-1.25606e-19 4.30649e-20 -2.15412e-20)
(-5.38312e-20 -4.27958e-28 1.08681e-33)
(5.38312e-20 -1.09824e-41 4.30823e-20)
(5.38312e-20 4.25283e-36 6.46235e-20)
(-1.60484e-27 4.27959e-28 -1.50788e-19)
(8.97186e-20 -8.61298e-20 -1.50788e-19)
(2.69156e-19 -8.61298e-20 -1.07706e-19)
(2.87099e-19 4.30649e-20 -2.15412e-19)
(3.40931e-19 4.30649e-20 -1.07706e-19)
(5.38312e-19 -4.30649e-20 -4.30823e-20)
(6.63918e-19 -4.30649e-20 4.06724e-27)
(7.89524e-19 -4.30649e-20 -1.29247e-19)
(8.25411e-19 4.27957e-28 -2.58494e-19)
(8.61298e-19 -4.30649e-20 -1.72329e-19)
(9.86904e-19 4.30649e-20 -1.72329e-19)
(1.07662e-18 8.61298e-20 -1.29247e-19)
(1.11251e-18 8.61298e-20 -1.50788e-19)
(1.09457e-18 4.30649e-20 -1.9387e-19)
(1.07662e-18 4.30649e-20 -6.46235e-20)
(1.16634e-18 -4.30649e-20 -6.46235e-20)
(1.30989e-18 -1.28388e-27 -6.46235e-20)
(1.39961e-18 4.30649e-20 -4.30823e-20)
(1.38167e-18 4.30649e-20 -6.46235e-20)
(1.30989e-18 4.27958e-28 -6.46235e-20)
(1.30989e-18 -4.30649e-20 -4.30823e-20)
(1.29195e-18 1.07176e-32 -6.46235e-20)
(1.38167e-18 4.27969e-28 -6.46235e-20)
(1.48933e-18 4.30649e-20 2.14065e-28)
(1.4355e-18 4.30649e-20 6.42199e-28)
(1.48933e-18 -4.30649e-20 -4.30823e-20)
(1.59699e-18 -4.30649e-20 4.30823e-20)
(1.54316e-18 8.61298e-20 4.30823e-20)
(1.50727e-18 -4.30649e-20 -4.28136e-28)
(1.50727e-18 1.28387e-27 2.15412e-20)