/*--------------------------------*- C++ -*----------------------------------*\
  =========                 |
  \\      /  F ield         | OpenFOAM: The Open Source CFD Toolbox
   \\    /   O peration     | Website:  https://openfoam.org
    \\  /    A nd           | Version:  6
     \\/     M anipulation  |
\*---------------------------------------------------------------------------*/
FoamFile
{
    version     2.0;
    format      ascii;
    class       volScalarField;
    location    "750";
    object      T;
}
// * * * * * * * * * * * * * * * * * * * * * * * * * * * * * * * * * * * * * //

dimensions      [0 0 0 1 0 0 0];

internalField   nonuniform List<scalar> 
5964
(
310.448
309.401
308.538
307.895
307.427
307.078
306.799
306.56
306.337
306.111
305.88
305.645
305.404
305.159
304.913
304.669
304.427
304.184
303.933
303.668
303.395
303.403
303.414
303.421
303.423
303.42
303.414
303.407
303.398
303.389
303.379
303.37
303.362
303.354
303.347
303.34
303.334
303.328
303.323
303.318
303.314
303.309
303.305
303.301
303.296
303.292
303.287
303.282
303.277
303.272
303.266
303.26
303.254
303.247
303.24
303.233
303.225
303.216
303.208
303.199
303.19
303.18
303.17
303.16
303.149
303.139
303.128
303.116
303.105
303.093
303.082
303.069
303.057
303.045
303.032
303.02
303.007
302.994
302.981
302.967
302.953
302.94
302.929
302.922
310.442
309.423
308.596
307.967
307.504
307.157
306.878
306.642
306.42
306.19
305.958
305.719
305.472
305.218
304.963
304.709
304.458
304.206
303.945
303.668
303.376
303.399
303.416
303.425
303.427
303.423
303.417
303.408
303.399
303.389
303.38
303.37
303.362
303.354
303.347
303.34
303.334
303.328
303.323
303.318
303.313
303.309
303.305
303.3
303.296
303.292
303.287
303.282
303.277
303.272
303.266
303.26
303.254
303.247
303.24
303.233
303.225
303.217
303.208
303.199
303.19
303.18
303.17
303.16
303.15
303.139
303.128
303.117
303.105
303.093
303.082
303.07
303.057
303.045
303.033
303.02
303.007
302.994
302.981
302.967
302.953
302.94
302.929
302.922
310.473
309.502
308.702
308.083
307.623
307.284
307.01
306.781
306.559
306.325
306.092
305.849
305.592
305.326
305.056
304.787
304.518
304.249
303.974
303.675
303.301
303.396
303.425
303.434
303.434
303.429
303.421
303.412
303.401
303.391
303.38
303.371
303.362
303.353
303.346
303.339
303.333
303.327
303.322
303.317
303.313
303.308
303.304
303.3
303.296
303.292
303.287
303.282
303.277
303.272
303.267
303.261
303.254
303.248
303.24
303.233
303.225
303.217
303.208
303.199
303.19
303.181
303.171
303.16
303.15
303.139
303.128
303.117
303.105
303.094
303.082
303.07
303.058
303.045
303.033
303.02
303.007
302.994
302.981
302.967
302.954
302.94
302.929
302.923
310.507
309.588
308.813
308.208
307.76
307.436
307.171
306.949
306.725
306.49
306.255
306.006
305.742
305.464
305.178
304.891
304.602
304.313
304.026
303.745
303.491
303.452
303.447
303.447
303.445
303.438
303.428
303.416
303.404
303.392
303.381
303.371
303.361
303.353
303.345
303.338
303.332
303.326
303.321
303.316
303.312
303.308
303.304
303.3
303.296
303.291
303.287
303.282
303.278
303.272
303.267
303.261
303.255
303.248
303.241
303.234
303.226
303.218
303.209
303.2
303.191
303.181
303.171
303.161
303.15
303.14
303.129
303.117
303.106
303.094
303.082
303.07
303.058
303.046
303.033
303.02
303.008
302.995
302.981
302.968
302.954
302.941
302.93
302.924
310.534
309.66
308.919
308.34
307.915
307.606
307.349
307.126
306.897
306.661
306.419
306.165
305.893
305.607
305.309
305.002
304.691
304.382
304.077
303.788
303.549
303.471
303.458
303.458
303.455
303.447
303.436
303.422
303.408
303.394
303.382
303.37
303.36
303.351
303.343
303.336
303.33
303.325
303.32
303.315
303.311
303.307
303.303
303.299
303.295
303.291
303.287
303.282
303.278
303.273
303.267
303.261
303.255
303.249
303.242
303.234
303.227
303.218
303.21
303.201
303.192
303.182
303.172
303.162
303.151
303.14
303.129
303.118
303.106
303.095
303.083
303.071
303.058
303.046
303.033
303.021
303.008
302.995
302.982
302.969
302.955
302.942
302.931
302.925
310.561
309.737
309.037
308.489
308.085
307.782
307.524
307.287
307.044
306.796
306.544
306.285
306.01
305.72
305.416
305.101
304.778
304.453
304.13
303.796
303.46
303.426
303.447
303.463
303.466
303.458
303.444
303.428
303.411
303.396
303.382
303.37
303.359
303.35
303.341
303.334
303.328
303.323
303.318
303.314
303.31
303.306
303.302
303.298
303.295
303.291
303.287
303.283
303.278
303.273
303.268
303.262
303.256
303.249
303.243
303.235
303.227
303.219
303.211
303.202
303.193
303.183
303.173
303.163
303.152
303.141
303.13
303.119
303.107
303.095
303.084
303.071
303.059
303.047
303.034
303.021
303.008
302.996
302.982
302.969
302.956
302.943
302.932
302.926
310.597
309.831
309.171
308.649
308.254
307.948
307.681
307.422
307.159
306.895
306.629
306.361
306.084
305.796
305.494
305.179
304.854
304.529
304.207
303.827
303.102
303.323
303.429
303.47
303.478
303.469
303.452
303.433
303.414
303.397
303.382
303.368
303.357
303.347
303.339
303.332
303.326
303.32
303.316
303.312
303.308
303.304
303.301
303.298
303.294
303.291
303.287
303.283
303.278
303.274
303.268
303.263
303.257
303.251
303.244
303.236
303.229
303.221
303.212
303.203
303.194
303.184
303.174
303.164
303.153
303.142
303.131
303.12
303.108
303.096
303.084
303.072
303.06
303.047
303.035
303.022
303.009
302.996
302.983
302.97
302.956
302.943
302.932
302.924
310.628
309.917
309.299
308.804
308.415
308.099
307.81
307.524
307.237
306.952
306.671
306.395
306.119
305.835
305.538
305.228
304.911
304.601
304.327
304.174
302.94
303.323
303.454
303.495
303.498
303.483
303.461
303.438
303.416
303.397
303.38
303.366
303.354
303.344
303.335
303.328
303.322
303.317
303.313
303.309
303.306
303.303
303.3
303.297
303.294
303.29
303.287
303.283
303.279
303.274
303.269
303.264
303.258
303.252
303.245
303.238
303.23
303.222
303.213
303.205
303.195
303.186
303.176
303.165
303.155
303.144
303.132
303.121
303.109
303.097
303.085
303.073
303.061
303.048
303.035
303.022
303.01
302.996
302.983
302.97
302.956
302.942
302.93
302.922
310.654
309.994
309.419
308.944
308.554
308.222
307.907
307.594
307.282
306.975
306.68
306.396
306.121
305.845
305.556
305.257
304.949
304.644
304.354
304.064
303.583
303.537
303.544
303.541
303.523
303.497
303.469
303.442
303.417
303.396
303.378
303.363
303.35
303.34
303.331
303.324
303.319
303.314
303.31
303.307
303.304
303.301
303.299
303.296
303.293
303.29
303.287
303.284
303.28
303.275
303.27
303.265
303.259
303.253
303.247
303.239
303.232
303.224
303.215
303.206
303.197
303.187
303.177
303.167
303.156
303.145
303.134
303.122
303.11
303.099
303.086
303.074
303.061
303.049
303.036
303.023
303.01
302.997
302.984
302.97
302.956
302.942
302.928
302.92
310.678
310.064
309.519
309.055
308.662
308.311
307.973
307.635
307.3
306.976
306.665
306.371
306.094
305.822
305.544
305.258
304.966
304.676
304.396
304.123
303.835
303.698
303.631
303.586
303.546
303.509
303.474
303.443
303.416
303.393
303.374
303.358
303.345
303.335
303.326
303.32
303.314
303.31
303.307
303.304
303.301
303.299
303.297
303.295
303.293
303.29
303.287
303.284
303.28
303.276
303.272
303.267
303.261
303.255
303.248
303.241
303.234
303.226
303.217
303.208
303.199
303.189
303.179
303.169
303.158
303.147
303.135
303.124
303.112
303.1
303.088
303.075
303.063
303.05
303.037
303.024
303.011
302.998
302.984
302.971
302.957
302.942
302.929
302.92
310.7
310.123
309.6
309.14
308.736
308.364
308.001
307.644
307.294
306.956
306.635
306.332
306.052
305.787
305.521
305.249
304.973
304.699
304.434
304.181
303.945
303.787
303.687
303.616
303.561
303.514
303.474
303.44
303.411
303.387
303.368
303.352
303.339
303.329
303.321
303.314
303.309
303.306
303.303
303.301
303.299
303.297
303.296
303.294
303.292
303.29
303.288
303.285
303.282
303.278
303.273
303.268
303.263
303.257
303.251
303.244
303.236
303.228
303.219
303.21
303.201
303.191
303.181
303.171
303.16
303.149
303.137
303.125
303.113
303.101
303.089
303.076
303.064
303.051
303.038
303.025
303.012
302.998
302.985
302.971
302.957
302.943
302.93
302.921
310.717
310.167
309.658
309.197
308.777
308.379
307.99
307.611
307.25
306.905
306.579
306.276
305.995
305.735
305.48
305.225
304.965
304.706
304.452
304.204
303.973
303.814
303.704
303.625
303.563
303.512
303.47
303.434
303.404
303.38
303.36
303.344
303.331
303.321
303.314
303.308
303.304
303.301
303.299
303.297
303.296
303.295
303.294
303.293
303.292
303.29
303.288
303.286
303.283
303.279
303.275
303.271
303.265
303.259
303.253
303.246
303.239
303.231
303.222
303.213
303.204
303.194
303.183
303.173
303.162
303.151
303.139
303.127
303.115
303.103
303.09
303.078
303.065
303.052
303.039
303.026
303.012
302.999
302.985
302.972
302.958
302.943
302.929
302.919
310.725
310.189
309.683
309.214
308.771
308.337
307.917
307.523
307.16
306.82
306.496
306.196
305.923
305.675
305.435
305.195
304.951
304.704
304.452
304.196
303.921
303.788
303.687
303.612
303.552
303.502
303.46
303.424
303.394
303.37
303.35
303.335
303.323
303.313
303.306
303.301
303.298
303.296
303.294
303.294
303.293
303.293
303.293
303.293
303.292
303.291
303.289
303.287
303.285
303.281
303.278
303.273
303.268
303.262
303.256
303.249
303.241
303.233
303.225
303.216
303.206
303.196
303.186
303.175
303.164
303.153
303.141
303.129
303.117
303.105
303.092
303.079
303.066
303.053
303.04
303.027
303.013
303
302.986
302.972
302.958
302.943
302.927
302.915
310.725
310.186
309.669
309.179
308.701
308.225
307.771
307.364
307.01
306.69
306.386
306.101
305.842
305.609
305.384
305.162
304.936
304.701
304.455
304.198
303.94
303.723
303.641
303.582
303.532
303.486
303.445
303.411
303.382
303.358
303.339
303.324
303.313
303.304
303.298
303.294
303.291
303.29
303.29
303.29
303.29
303.291
303.292
303.292
303.292
303.292
303.291
303.289
303.287
303.284
303.28
303.276
303.271
303.265
303.259
303.252
303.245
303.237
303.228
303.219
303.209
303.199
303.189
303.178
303.167
303.155
303.144
303.132
303.119
303.107
303.094
303.081
303.068
303.055
303.041
303.028
303.014
303
302.987
302.973
302.958
302.943
302.926
302.912
310.72
310.164
309.617
309.077
308.549
308.025
307.542
307.132
306.802
306.517
306.245
305.985
305.748
305.534
305.33
305.128
304.921
304.702
304.466
304.21
303.921
303.536
303.572
303.547
303.509
303.468
303.429
303.396
303.368
303.345
303.327
303.313
303.302
303.294
303.289
303.286
303.284
303.284
303.284
303.286
303.287
303.289
303.291
303.292
303.293
303.293
303.292
303.291
303.289
303.287
303.283
303.279
303.274
303.269
303.263
303.256
303.248
303.24
303.232
303.223
303.213
303.203
303.192
303.181
303.17
303.158
303.146
303.134
303.122
303.109
303.096
303.083
303.07
303.056
303.043
303.029
303.015
303.001
302.987
302.973
302.959
302.942
302.922
302.904
310.707
310.12
309.527
308.916
308.322
307.75
307.247
306.847
306.55
306.304
306.072
305.848
305.641
305.451
305.27
305.09
304.904
304.705
304.488
304.248
303.982
303.691
303.561
303.528
303.491
303.451
303.412
303.38
303.353
303.331
303.314
303.301
303.29
303.284
303.279
303.277
303.277
303.278
303.279
303.282
303.284
303.287
303.29
303.292
303.293
303.294
303.294
303.294
303.292
303.29
303.287
303.283
303.279
303.273
303.267
303.26
303.253
303.244
303.236
303.226
303.217
303.206
303.196
303.185
303.173
303.161
303.149
303.137
303.124
303.111
303.098
303.085
303.071
303.058
303.044
303.03
303.016
303.002
302.988
302.974
302.959
302.942
302.919
302.897
310.689
310.058
309.404
308.71
308.045
307.434
306.924
306.54
306.271
306.063
305.875
305.693
305.521
305.359
305.204
305.047
304.883
304.706
304.511
304.294
304.05
303.778
303.468
303.516
303.483
303.437
303.396
303.363
303.338
303.318
303.301
303.288
303.279
303.273
303.269
303.268
303.269
303.271
303.274
303.278
303.282
303.285
303.289
303.292
303.295
303.296
303.297
303.297
303.296
303.294
303.291
303.288
303.283
303.278
303.272
303.265
303.257
303.249
303.24
303.231
303.221
303.21
303.2
303.188
303.177
303.165
303.152
303.14
303.127
303.114
303.1
303.087
303.073
303.06
303.046
303.032
303.018
303.003
302.989
302.975
302.961
302.946
302.927
302.911
310.664
309.976
309.249
308.468
307.733
307.101
306.602
306.248
306.007
305.827
305.673
305.527
305.392
305.259
305.129
304.996
304.854
304.701
304.531
304.342
304.129
303.897
303.666
303.587
303.492
303.428
303.377
303.347
303.325
303.306
303.289
303.276
303.267
303.261
303.259
303.259
303.261
303.265
303.269
303.274
303.279
303.284
303.289
303.293
303.296
303.299
303.3
303.301
303.3
303.299
303.296
303.293
303.288
303.283
303.277
303.27
303.262
303.254
303.245
303.236
303.225
303.215
303.204
303.192
303.18
303.168
303.156
303.143
303.13
303.116
303.103
303.089
303.075
303.061
303.047
303.033
303.019
303.004
302.99
302.976
302.962
302.949
302.936
302.926
310.635
309.883
309.09
308.261
307.487
306.841
306.355
306.021
305.795
305.633
305.499
305.38
305.27
305.162
305.054
304.942
304.822
304.692
304.548
304.388
304.21
304.015
303.821
303.673
303.482
303.413
303.349
303.33
303.316
303.299
303.28
303.265
303.255
303.25
303.249
303.25
303.254
303.258
303.264
303.27
303.277
303.283
303.289
303.295
303.299
303.302
303.304
303.305
303.305
303.304
303.302
303.298
303.294
303.289
303.283
303.276
303.268
303.26
303.25
303.241
303.23
303.22
303.208
303.197
303.184
303.172
303.159
303.146
303.133
303.119
303.106
303.092
303.078
303.063
303.049
303.035
303.02
303.006
302.991
302.977
302.963
302.951
302.94
302.932
310.602
309.787
308.939
308.078
307.289
306.65
306.18
305.866
305.656
305.511
305.396
305.295
305.203
305.112
305.021
304.926
304.825
304.715
304.595
304.461
304.31
304.136
303.939
303.688
303.368
303.4
303.29
303.319
303.319
303.302
303.275
303.255
303.243
303.239
303.239
303.242
303.246
303.252
303.259
303.267
303.275
303.283
303.29
303.297
303.302
303.306
303.309
303.311
303.311
303.31
303.308
303.305
303.301
303.295
303.289
303.282
303.274
303.266
303.256
303.246
303.236
303.225
303.213
303.201
303.189
303.176
303.163
303.15
303.136
303.122
303.108
303.094
303.08
303.065
303.051
303.036
303.022
303.007
302.992
302.978
302.963
302.95
302.94
302.933
310.574
309.705
308.809
307.923
307.13
306.508
306.066
305.775
305.586
305.458
305.361
305.279
305.203
305.129
305.053
304.974
304.89
304.798
304.696
304.581
304.449
304.291
304.117
303.918
303.674
303.516
303.125
303.345
303.35
303.326
303.275
303.243
303.23
303.227
303.229
303.233
303.239
303.246
303.255
303.264
303.274
303.283
303.292
303.3
303.306
303.311
303.315
303.317
303.318
303.317
303.315
303.312
303.308
303.303
303.296
303.289
303.281
303.272
303.263
303.252
303.242
303.23
303.218
303.206
303.193
303.18
303.167
303.154
303.14
303.126
303.111
303.097
303.082
303.068
303.053
303.038
303.023
303.008
302.993
302.978
302.964
302.95
302.939
302.932
310.537
309.596
308.642
307.749
306.994
306.413
306.003
305.736
305.569
305.462
305.385
305.323
305.266
305.21
305.152
305.091
305.026
304.951
304.867
304.77
304.653
304.513
304.364
304.204
304.029
303.834
303.589
303.57
303.421
303.388
303.271
303.224
303.214
303.215
303.22
303.225
303.232
303.24
303.251
303.262
303.274
303.285
303.295
303.304
303.312
303.318
303.322
303.325
303.326
303.325
303.323
303.32
303.316
303.311
303.304
303.297
303.288
303.279
303.27
303.259
303.248
303.236
303.224
303.211
303.199
303.185
303.172
303.158
303.143
303.129
303.115
303.1
303.085
303.07
303.055
303.04
303.025
303.009
302.994
302.979
302.964
302.949
302.937
302.929
310.519
309.555
308.6
307.7
306.936
306.365
305.979
305.737
305.592
305.506
305.451
305.409
305.372
305.337
305.3
305.26
305.216
305.159
305.096
305.018
304.921
304.806
304.68
304.543
304.4
304.218
304.04
303.907
303.731
303.536
303.226
303.185
303.194
303.205
303.212
303.217
303.224
303.234
303.246
303.26
303.274
303.287
303.299
303.31
303.319
303.326
303.33
303.334
303.335
303.335
303.333
303.33
303.325
303.319
303.313
303.305
303.297
303.287
303.277
303.266
303.255
303.243
303.23
303.217
303.204
303.19
303.176
303.162
303.147
303.133
303.118
303.103
303.088
303.073
303.057
303.042
303.026
303.011
302.995
302.979
302.964
302.948
302.933
302.921
310.502
309.51
308.544
307.654
306.905
306.349
305.985
305.766
305.643
305.579
305.544
305.521
305.505
305.491
305.474
305.456
305.435
305.397
305.357
305.303
305.229
305.141
305.038
304.921
304.795
304.628
304.463
304.284
304.066
303.796
303.447
303.118
303.18
303.202
303.207
303.208
303.213
303.225
303.24
303.257
303.275
303.291
303.305
303.318
303.327
303.335
303.34
303.344
303.345
303.345
303.343
303.34
303.335
303.329
303.322
303.314
303.305
303.296
303.285
303.274
303.262
303.25
303.237
303.223
303.21
303.195
303.181
303.166
303.152
303.137
303.121
303.106
303.091
303.075
303.059
303.044
303.028
303.012
302.996
302.98
302.963
302.946
302.926
302.908
310.482
309.457
308.477
307.602
306.883
306.355
306.015
305.817
305.714
305.669
305.651
305.646
305.648
305.653
305.654
305.658
305.66
305.641
305.627
305.595
305.546
305.487
305.408
305.312
305.199
305.052
304.891
304.694
304.462
304.184
303.905
303.572
303.218
303.218
303.205
303.195
303.197
303.211
303.232
303.255
303.277
303.297
303.313
303.327
303.338
303.346
303.352
303.356
303.357
303.357
303.355
303.351
303.346
303.34
303.332
303.324
303.315
303.305
303.294
303.282
303.27
303.257
303.243
303.23
303.216
303.201
303.186
303.171
303.156
303.141
303.125
303.109
303.094
303.078
303.062
303.046
303.03
303.013
302.997
302.981
302.963
302.944
302.92
302.899
310.465
309.411
308.418
307.555
306.874
306.383
306.067
305.888
305.8
305.769
305.763
305.772
305.789
305.81
305.828
305.85
305.869
305.873
305.881
305.872
305.85
305.817
305.765
305.692
305.599
305.475
305.324
305.134
304.902
304.631
304.348
303.972
303.565
303.247
303.197
303.17
303.168
303.191
303.222
303.253
303.281
303.304
303.324
303.339
303.351
303.36
303.366
303.369
303.371
303.37
303.367
303.364
303.358
303.351
303.344
303.335
303.325
303.314
303.303
303.291
303.278
303.265
303.251
303.236
303.222
303.207
303.192
303.176
303.161
303.145
303.129
303.113
303.097
303.081
303.064
303.048
303.032
303.015
302.999
302.982
302.965
302.947
302.926
302.909
310.454
309.384
308.394
307.548
306.892
306.433
306.141
305.975
305.896
305.873
305.875
305.893
305.921
305.952
305.983
306.016
306.052
306.077
306.103
306.116
306.12
306.114
306.09
306.044
305.977
305.88
305.751
305.581
305.363
305.108
304.813
304.427
304.033
303.632
303.16
303.119
303.115
303.16
303.21
303.253
303.288
303.315
303.337
303.354
303.367
303.376
303.382
303.385
303.386
303.385
303.382
303.377
303.371
303.364
303.356
303.346
303.336
303.325
303.313
303.3
303.287
303.273
303.258
303.244
303.229
303.213
303.197
303.182
303.165
303.149
303.133
303.117
303.1
303.084
303.067
303.05
303.034
303.017
303
302.983
302.967
302.95
302.935
302.923
310.455
309.393
308.414
307.59
306.961
306.519
306.237
306.077
306.003
305.982
305.987
306.009
306.041
306.077
306.115
306.157
306.202
306.243
306.283
306.319
306.346
306.364
306.369
306.352
306.316
306.248
306.151
306.008
305.823
305.591
305.299
304.93
304.545
304.114
303.605
303.04
303.018
303.123
303.203
303.259
303.299
303.33
303.354
303.372
303.385
303.394
303.4
303.403
303.403
303.401
303.397
303.392
303.386
303.378
303.369
303.359
303.348
303.336
303.323
303.31
303.296
303.281
303.266
303.251
303.235
303.22
303.203
303.187
303.17
303.154
303.137
303.12
303.103
303.087
303.07
303.053
303.036
303.019
303.002
302.985
302.968
302.953
302.939
302.931
310.459
309.413
308.474
307.684
307.067
306.63
306.351
306.193
306.119
306.097
306.101
306.122
306.153
306.189
306.229
306.273
306.323
306.374
306.425
306.478
306.523
306.565
306.594
306.606
306.601
306.567
306.506
306.4
306.253
306.049
305.78
305.444
305.064
304.611
304.074
303.459
302.819
303.108
303.216
303.276
303.318
303.35
303.375
303.394
303.407
303.416
303.421
303.422
303.422
303.419
303.415
303.409
303.401
303.392
303.383
303.372
303.36
303.347
303.334
303.32
303.306
303.29
303.275
303.259
303.243
303.226
303.21
303.193
303.176
303.159
303.141
303.124
303.107
303.09
303.072
303.055
303.038
303.02
303.003
302.986
302.969
302.954
302.941
302.933
310.473
309.459
308.549
307.784
307.189
306.762
306.486
306.326
306.247
306.22
306.22
306.237
306.264
306.296
306.333
306.375
306.424
306.478
306.536
306.598
306.658
306.717
306.768
306.807
306.827
306.829
306.802
306.739
306.628
306.462
306.232
305.935
305.571
305.126
304.603
304.039
303.545
303.259
303.269
303.307
303.343
303.375
303.4
303.419
303.432
303.44
303.444
303.445
303.443
303.439
303.434
303.426
303.418
303.408
303.398
303.386
303.373
303.36
303.346
303.331
303.316
303.3
303.284
303.267
303.25
303.233
303.216
303.199
303.181
303.164
303.146
303.128
303.111
303.093
303.075
303.058
303.04
303.022
303.005
302.987
302.97
302.954
302.941
302.933
310.491
309.513
308.64
307.908
307.327
306.903
306.627
306.466
306.383
306.352
306.348
306.36
306.381
306.406
306.436
306.472
306.516
306.568
306.626
306.69
306.759
306.828
306.896
306.956
307.003
307.033
307.039
307.014
306.944
306.819
306.632
306.371
306.031
305.608
305.108
304.552
303.951
303.151
303.3
303.341
303.373
303.404
303.429
303.448
303.46
303.467
303.47
303.469
303.466
303.461
303.454
303.446
303.436
303.425
303.413
303.401
303.387
303.373
303.358
303.342
303.326
303.31
303.293
303.276
303.258
303.241
303.223
303.205
303.187
303.169
303.15
303.132
303.114
303.096
303.078
303.06
303.042
303.024
303.006
302.988
302.97
302.953
302.939
302.93
310.521
309.598
308.762
308.044
307.466
307.047
306.775
306.612
306.526
306.492
306.483
306.491
306.505
306.525
306.547
306.574
306.608
306.652
306.706
306.767
306.838
306.913
306.99
307.065
307.133
307.187
307.221
307.229
307.197
307.111
306.965
306.741
306.431
306.031
305.551
305.011
304.441
303.905
303.445
303.389
303.408
303.438
303.463
303.481
303.491
303.497
303.498
303.496
303.491
303.484
303.476
303.466
303.455
303.443
303.43
303.416
303.402
303.387
303.371
303.354
303.337
303.32
303.303
303.285
303.266
303.248
303.23
303.211
303.192
303.174
303.155
303.137
303.118
303.099
303.081
303.063
303.044
303.026
303.008
302.989
302.971
302.952
302.936
302.927
310.551
309.683
308.884
308.175
307.603
307.193
306.925
306.762
306.675
306.637
306.626
306.628
306.637
306.65
306.666
306.686
306.712
306.747
306.79
306.844
306.908
306.981
307.062
307.146
307.228
307.302
307.36
307.393
307.395
307.346
307.236
307.048
306.771
306.404
305.953
305.425
304.811
304.087
303.234
303.385
303.44
303.477
303.502
303.518
303.526
303.529
303.528
303.524
303.518
303.509
303.499
303.488
303.475
303.462
303.447
303.433
303.417
303.401
303.384
303.367
303.349
303.331
303.312
303.294
303.275
303.256
303.237
303.217
303.198
303.179
303.16
303.141
303.122
303.103
303.084
303.065
303.047
303.028
303.009
302.99
302.971
302.952
302.935
302.924
310.575
309.75
308.98
308.294
307.741
307.341
307.074
306.913
306.826
306.785
306.77
306.769
306.774
306.783
306.793
306.806
306.825
306.851
306.885
306.929
306.986
307.053
307.13
307.214
307.303
307.389
307.465
307.521
307.548
307.532
307.455
307.302
307.06
306.728
306.31
305.798
305.189
304.507
303.853
303.496
303.5
303.53
303.55
303.56
303.564
303.564
303.561
303.554
303.546
303.535
303.523
303.51
303.496
303.481
303.466
303.45
303.433
303.416
303.398
303.379
303.361
303.342
303.322
303.303
303.283
303.264
303.244
303.224
303.204
303.184
303.165
303.145
303.126
303.106
303.087
303.068
303.049
303.03
303.011
302.992
302.972
302.952
302.935
302.924
310.591
309.797
309.056
308.4
307.872
307.484
307.222
307.063
306.977
306.933
306.915
306.911
306.914
306.92
306.926
306.934
306.945
306.963
306.989
307.025
307.072
307.132
307.202
307.282
307.371
307.462
307.549
307.622
307.669
307.679
307.633
307.513
307.311
307.02
306.633
306.146
305.57
304.921
304.21
303.298
303.546
303.594
303.604
303.605
303.604
303.6
303.594
303.586
303.575
303.563
303.549
303.534
303.518
303.502
303.485
303.467
303.449
303.431
303.412
303.393
303.373
303.353
303.333
303.313
303.292
303.272
303.251
303.231
303.21
303.19
303.17
303.15
303.13
303.11
303.09
303.07
303.051
303.032
303.012
302.993
302.973
302.954
302.937
302.926
310.604
309.833
309.12
308.496
307.992
307.619
307.365
307.209
307.122
307.078
307.058
307.053
307.056
307.06
307.062
307.066
307.073
307.084
307.102
307.129
307.168
307.22
307.283
307.357
307.442
307.532
307.624
307.707
307.77
307.8
307.781
307.693
307.528
307.268
306.905
306.442
305.897
305.286
304.637
304.013
303.772
303.691
303.662
303.649
303.642
303.636
303.628
303.618
303.605
303.591
303.575
303.558
303.541
303.523
303.504
303.485
303.466
303.446
303.426
303.406
303.385
303.364
303.343
303.322
303.301
303.28
303.259
303.237
303.216
303.195
303.175
303.154
303.133
303.113
303.093
303.073
303.053
303.034
303.014
302.994
302.975
302.956
302.939
302.928
310.615
309.868
309.181
308.586
308.104
307.744
307.499
307.346
307.26
307.216
307.197
307.193
307.197
307.2
307.201
307.202
307.205
307.211
307.222
307.242
307.273
307.317
307.373
307.441
307.521
307.609
307.7
307.787
307.859
307.905
307.906
307.846
307.708
307.474
307.137
306.707
306.19
305.6
304.957
304.32
303.839
303.734
303.699
303.684
303.676
303.669
303.661
303.649
303.636
303.62
303.602
303.583
303.564
303.544
303.524
303.504
303.483
303.462
303.441
303.42
303.398
303.376
303.354
303.332
303.31
303.288
303.266
303.244
303.223
303.201
303.18
303.158
303.137
303.117
303.096
303.076
303.055
303.035
303.015
302.996
302.976
302.957
302.938
302.913
310.627
309.905
309.245
308.674
308.209
307.861
307.624
307.476
307.392
307.349
307.332
307.33
307.335
307.338
307.339
307.339
307.339
307.342
307.348
307.362
307.386
307.423
307.472
307.534
307.609
307.692
307.781
307.868
307.945
308
308.016
307.977
307.863
307.656
307.354
306.955
306.452
305.857
305.192
304.464
303.554
303.705
303.71
303.704
303.702
303.698
303.692
303.681
303.666
303.649
303.629
303.609
303.588
303.566
303.545
303.523
303.501
303.479
303.456
303.434
303.411
303.388
303.365
303.342
303.319
303.296
303.274
303.251
303.229
303.207
303.185
303.163
303.141
303.12
303.099
303.078
303.058
303.037
303.017
302.997
302.977
302.957
302.928
302.842
310.64
309.944
309.309
308.758
308.307
307.969
307.74
307.597
307.515
307.476
307.463
307.464
307.47
307.474
307.475
307.475
307.475
307.475
307.479
307.488
307.506
307.536
307.579
307.636
307.705
307.784
307.869
307.953
308.031
308.091
308.118
308.097
308.008
307.834
307.567
307.196
306.709
306.119
305.45
304.735
304.072
303.797
303.721
303.713
303.72
303.725
303.722
303.712
303.697
303.678
303.657
303.634
303.612
303.588
303.565
303.542
303.518
303.495
303.471
303.448
303.424
303.4
303.376
303.352
303.328
303.305
303.281
303.258
303.235
303.212
303.19
303.167
303.145
303.123
303.102
303.081
303.06
303.039
303.018
302.998
302.978
302.959
302.941
302.915
310.653
309.984
309.371
308.834
308.394
308.067
307.846
307.708
307.631
307.597
307.591
307.594
307.602
307.608
307.61
307.611
307.611
307.611
307.612
307.617
307.631
307.656
307.694
307.745
307.809
307.882
307.963
308.044
308.121
308.183
308.217
308.209
308.141
307.997
307.764
307.422
306.955
306.373
305.701
304.97
304.25
303.689
303.66
303.698
303.732
303.749
303.752
303.743
303.727
303.707
303.684
303.66
303.635
303.61
303.586
303.561
303.536
303.511
303.486
303.462
303.437
303.412
303.387
303.362
303.337
303.313
303.289
303.265
303.241
303.218
303.194
303.172
303.149
303.127
303.105
303.083
303.062
303.041
303.02
302.999
302.979
302.96
302.944
302.933
310.665
310.018
309.422
308.898
308.47
308.154
307.942
307.811
307.741
307.714
307.714
307.721
307.731
307.739
307.743
307.745
307.746
307.747
307.747
307.75
307.761
307.782
307.815
307.861
307.919
307.987
308.063
308.14
308.214
308.275
308.314
308.318
308.27
308.153
307.948
307.632
307.193
306.635
305.964
305.186
304.274
303.103
303.528
303.678
303.748
303.778
303.785
303.776
303.759
303.736
303.711
303.685
303.659
303.632
303.606
303.58
303.554
303.528
303.502
303.476
303.45
303.424
303.398
303.372
303.347
303.321
303.296
303.271
303.247
303.223
303.199
303.176
303.153
303.13
303.108
303.086
303.064
303.042
303.021
303
302.98
302.961
302.945
302.935
310.676
310.047
309.464
308.952
308.536
308.231
308.028
307.906
307.845
307.827
307.832
307.844
307.858
307.867
307.874
307.879
307.882
307.883
307.883
307.885
307.894
307.912
307.941
307.983
308.036
308.098
308.168
308.24
308.31
308.371
308.412
308.425
308.392
308.297
308.118
307.834
307.437
306.926
306.292
305.542
304.714
303.957
303.644
303.72
303.79
303.82
303.823
303.811
303.79
303.765
303.738
303.71
303.682
303.654
303.626
303.598
303.571
303.544
303.516
303.489
303.462
303.435
303.409
303.382
303.355
303.329
303.304
303.278
303.253
303.228
303.204
303.18
303.156
303.133
303.11
303.088
303.066
303.044
303.023
303.001
302.98
302.96
302.944
302.934
310.683
310.066
309.494
308.993
308.59
308.298
308.107
307.996
307.945
307.936
307.947
307.964
307.981
307.994
308.005
308.011
308.016
308.019
308.02
308.022
308.03
308.046
308.072
308.109
308.158
308.214
308.278
308.344
308.41
308.468
308.512
308.53
308.511
308.434
308.281
308.034
307.688
307.234
306.656
305.963
305.19
304.374
303.417
303.765
303.86
303.878
303.869
303.848
303.822
303.794
303.764
303.734
303.704
303.675
303.645
303.617
303.588
303.56
303.531
303.503
303.475
303.447
303.419
303.392
303.364
303.337
303.311
303.285
303.259
303.233
303.209
303.184
303.16
303.136
303.113
303.09
303.068
303.046
303.024
303.002
302.98
302.959
302.942
302.931
310.69
310.084
309.519
309.026
308.637
308.36
308.181
308.081
308.042
308.04
308.058
308.08
308.102
308.12
308.134
308.143
308.15
308.155
308.158
308.161
308.168
308.183
308.207
308.24
308.283
308.334
308.391
308.452
308.512
308.568
308.612
308.636
308.626
308.566
308.439
308.23
307.932
307.53
307.006
306.366
305.623
304.747
304.094
304.043
303.996
303.956
303.921
303.887
303.853
303.821
303.788
303.757
303.725
303.695
303.664
303.634
303.605
303.575
303.546
303.516
303.487
303.458
303.429
303.401
303.373
303.345
303.318
303.291
303.264
303.238
303.213
303.188
303.163
303.139
303.116
303.092
303.07
303.047
303.025
303.003
302.98
302.958
302.939
302.928
310.695
310.099
309.542
309.06
308.684
308.419
308.252
308.165
308.135
308.141
308.165
308.192
308.22
308.243
308.262
308.274
308.284
308.29
308.296
308.3
308.308
308.323
308.345
308.375
308.413
308.458