/*--------------------------------*- C++ -*----------------------------------*\
  =========                 |
  \\      /  F ield         | OpenFOAM: The Open Source CFD Toolbox
   \\    /   O peration     | Website:  https://openfoam.org
    \\  /    A nd           | Version:  6
     \\/     M anipulation  |
\*---------------------------------------------------------------------------*/
FoamFile
{
    version     2.0;
    format      ascii;
    class       volVectorField;
    location    "750";
    object      U;
}
// * * * * * * * * * * * * * * * * * * * * * * * * * * * * * * * * * * * * * //

dimensions      [0 1 -1 0 0 0 0];

internalField   nonuniform List<vector> 
5964
(
(0.00316308 0 -0.0034343)
(-0.00457734 0 0.00267318)
(-0.00555762 0 -0.000378878)
(-0.00633341 0 -4.90653e-05)
(-0.00667215 0 -0.000322011)
(-0.00668847 0 -0.000531832)
(-0.00613204 0 -0.000824226)
(-0.00541604 0 -0.000484384)
(-0.00481866 0 -0.000639878)
(-0.00466431 0 -0.000359266)
(-0.00425936 0 -0.000520753)
(-0.00392175 0 -0.000426781)
(-0.00369595 0 -0.000307019)
(-0.00330144 0 -0.00042069)
(-0.00281731 0 -0.000491861)
(-0.00230855 0 -0.000559231)
(-0.00170212 0 -0.000628525)
(-0.000971684 0 -0.000564313)
(-0.000257981 0 -0.000435372)
(1.40827e-05 0 -9.10764e-05)
(4.08167e-09 0 2.06456e-06)
(3.00657e-09 0 1.14602e-09)
(5.42122e-09 0 5.52695e-10)
(4.48099e-09 0 3.27887e-10)
(3.89055e-09 0 2.23945e-10)
(3.47216e-09 0 1.66762e-10)
(3.15328e-09 0 1.30914e-10)
(2.89908e-09 0 1.06342e-10)
(2.69035e-09 0 8.84758e-11)
(2.51525e-09 0 7.49616e-11)
(2.36591e-09 0 6.44563e-11)
(2.23676e-09 0 5.61282e-11)
(2.12373e-09 0 4.94295e-11)
(2.02372e-09 0 4.39824e-11)
(1.93436e-09 0 3.95166e-11)
(1.85373e-09 0 3.58328e-11)
(1.78034e-09 0 3.27801e-11)
(1.71295e-09 0 3.02416e-11)
(1.65056e-09 0 2.81252e-11)
(1.59233e-09 0 2.63567e-11)
(1.5376e-09 0 2.48759e-11)
(1.4858e-09 0 2.36334e-11)
(1.43645e-09 0 2.25883e-11)
(1.38917e-09 0 2.17064e-11)
(1.34364e-09 0 2.09593e-11)
(1.2996e-09 0 2.03233e-11)
(1.25684e-09 0 1.97785e-11)
(1.21516e-09 0 1.93084e-11)
(1.17443e-09 0 1.88993e-11)
(1.13452e-09 0 1.85397e-11)
(1.09534e-09 0 1.82202e-11)
(1.05682e-09 0 1.79331e-11)
(1.01888e-09 0 1.76721e-11)
(9.81472e-10 0 1.7432e-11)
(9.44562e-10 0 1.72088e-11)
(9.08113e-10 0 1.69992e-11)
(8.72097e-10 0 1.68006e-11)
(8.36493e-10 0 1.6611e-11)
(8.01282e-10 0 1.64289e-11)
(7.66449e-10 0 1.62532e-11)
(7.3198e-10 0 1.6083e-11)
(6.97863e-10 0 1.5918e-11)
(6.64088e-10 0 1.57576e-11)
(6.30645e-10 0 1.56017e-11)
(5.97524e-10 0 1.54504e-11)
(5.64716e-10 0 1.53036e-11)
(5.3221e-10 0 1.51614e-11)
(4.99997e-10 0 1.50242e-11)
(4.68066e-10 0 1.4892e-11)
(4.36406e-10 0 1.47653e-11)
(4.05006e-10 0 1.46442e-11)
(3.73855e-10 0 1.45291e-11)
(3.42939e-10 0 1.44202e-11)
(3.12245e-10 0 1.43178e-11)
(2.8176e-10 0 1.42222e-11)
(2.51471e-10 0 1.41337e-11)
(2.21361e-10 0 1.40522e-11)
(1.91417e-10 0 1.39775e-11)
(1.61626e-10 0 1.39085e-11)
(1.31978e-10 0 1.38436e-11)
(1.02466e-10 0 1.37808e-11)
(7.30883e-11 0 1.37192e-11)
(4.38259e-11 0 1.36728e-11)
(1.46098e-11 0 1.36762e-11)
(-0.00270445 0 0.00398696)
(-0.00382182 0 0.00283445)
(-0.00476886 0 0.00127676)
(-0.00496287 0 0.00126341)
(-0.00514919 0 0.000143248)
(-0.00523025 0 -0.000258027)
(-0.00522148 0 -0.000328385)
(-0.00404099 0 -0.00135128)
(-0.00328864 0 -0.00141644)
(-0.00348505 0 0.000105623)
(-0.00288431 0 -0.000455854)
(-0.00257739 0 -0.000640715)
(-0.00256931 0 -0.000607148)
(-0.00261964 0 -0.000603788)
(-0.00235945 0 -0.000917011)
(-0.00211302 0 -0.00107803)
(-0.00184409 0 -0.00122818)
(-0.000872894 0 -0.00184677)
(-0.000595165 0 -0.00143314)
(1.19427e-05 0 0.000376361)
(8.90322e-09 0 4.24814e-06)
(2.44977e-09 0 2.29162e-09)
(4.65404e-09 0 1.33339e-09)
(4.17272e-09 0 8.7686e-10)
(3.73951e-09 0 6.30297e-10)
(3.38503e-09 0 4.8118e-10)
(3.09676e-09 0 3.82544e-10)
(2.85944e-09 0 3.129e-10)
(2.66109e-09 0 2.6141e-10)
(2.49289e-09 0 2.22082e-10)
(2.3484e-09 0 1.91325e-10)
(2.22282e-09 0 1.66845e-10)
(2.11248e-09 0 1.47099e-10)
(2.01456e-09 0 1.31011e-10)
(1.92683e-09 0 1.17803e-10)
(1.84752e-09 0 1.06895e-10)
(1.7752e-09 0 9.78495e-11)
(1.70868e-09 0 9.03235e-11)
(1.647e-09 0 8.40463e-11)
(1.58937e-09 0 7.87999e-11)
(1.53512e-09 0 7.44064e-11)
(1.48372e-09 0 7.07196e-11)
(1.43471e-09 0 6.76181e-11)
(1.38771e-09 0 6.50008e-11)
(1.34242e-09 0 6.27833e-11)
(1.29857e-09 0 6.08952e-11)
(1.25596e-09 0 5.92774e-11)
(1.21442e-09 0 5.78809e-11)
(1.17379e-09 0 5.66647e-11)
(1.13397e-09 0 5.55949e-11)
(1.09487e-09 0 5.46436e-11)
(1.0564e-09 0 5.37879e-11)
(1.01851e-09 0 5.3009e-11)
(9.81152e-10 0 5.22918e-11)
(9.44277e-10 0 5.16241e-11)
(9.07857e-10 0 5.09963e-11)
(8.71866e-10 0 5.04008e-11)
(8.36284e-10 0 4.98317e-11)
(8.01091e-10 0 4.92847e-11)
(7.66275e-10 0 4.87565e-11)
(7.31821e-10 0 4.82447e-11)
(6.97719e-10 0 4.77478e-11)
(6.63958e-10 0 4.72648e-11)
(6.30528e-10 0 4.67954e-11)
(5.9742e-10 0 4.63394e-11)
(5.64625e-10 0 4.5897e-11)
(5.32132e-10 0 4.54688e-11)
(4.99932e-10 0 4.50554e-11)
(4.68014e-10 0 4.46574e-11)
(4.36368e-10 0 4.42758e-11)
(4.04982e-10 0 4.39113e-11)
(3.73844e-10 0 4.3565e-11)
(3.42943e-10 0 4.32375e-11)
(3.12264e-10 0 4.29298e-11)
(2.81795e-10 0 4.26427e-11)
(2.51521e-10 0 4.23767e-11)
(2.21427e-10 0 4.21321e-11)
(1.91499e-10 0 4.1908e-11)
(1.61724e-10 0 4.17022e-11)
(1.32088e-10 0 4.15106e-11)
(1.02577e-10 0 4.13294e-11)
(7.3177e-11 0 4.11589e-11)
(4.38642e-11 0 4.10325e-11)
(1.4613e-11 0 4.10364e-11)
(-0.00226479 0 0.00481973)
(-0.00211839 0 0.00412759)
(-0.00292451 0 0.00294205)
(-0.00406026 0 0.00113276)
(-0.00432096 0 0.000370142)
(-0.0042554 0 -0.000374358)
(-0.00428164 0 -6.02597e-05)
(-0.00348272 0 -0.00170805)
(-0.000714262 0 -0.0030861)
(-0.00250093 0 6.58846e-05)
(-0.00123313 0 -0.000211647)
(-0.000850003 0 -0.000386625)
(-0.000918389 0 -0.000200302)
(-0.00148832 0 -0.000100751)
(-0.00175379 0 -0.00019355)
(-0.0014101 0 -0.00122653)
(-0.00170536 0 -0.00154184)
(-0.00144382 0 -0.00205939)
(-0.000692413 0 -0.00217085)
(0.000513202 0 0.00087852)
(1.08388e-07 0 1.00307e-05)
(2.10815e-09 0 2.28772e-09)
(4.09444e-09 0 1.67233e-09)
(3.82171e-09 0 1.24083e-09)
(3.51966e-09 0 9.50667e-10)
(3.24008e-09 0 7.50968e-10)
(2.99578e-09 0 6.08486e-10)
(2.78583e-09 0 5.03332e-10)
(2.60554e-09 0 4.23517e-10)
(2.44987e-09 0 3.61556e-10)
(2.31444e-09 0 3.12583e-10)
(2.19559e-09 0 2.73321e-10)
(2.09041e-09 0 2.41488e-10)
(1.99651e-09 0 2.15454e-10)
(1.91198e-09 0 1.94019e-10)
(1.83524e-09 0 1.76282e-10)
(1.765e-09 0 1.6155e-10)
(1.70019e-09 0 1.4928e-10)
(1.63992e-09 0 1.39038e-10)
(1.58345e-09 0 1.30474e-10)
(1.53017e-09 0 1.23301e-10)
(1.47957e-09 0 1.17279e-10)
(1.43123e-09 0 1.12213e-10)
(1.38478e-09 0 1.07937e-10)
(1.33994e-09 0 1.04313e-10)
(1.29647e-09 0 1.01226e-10)
(1.25416e-09 0 9.85804e-11)
(1.21287e-09 0 9.62946e-11)
(1.17245e-09 0 9.4302e-11)
(1.13281e-09 0 9.25474e-11)
(1.09384e-09 0 9.09849e-11)
(1.05549e-09 0 8.95772e-11)
(1.01769e-09 0 8.82937e-11)
(9.80402e-10 0 8.71098e-11)
(9.43588e-10 0 8.60058e-11)
(9.07219e-10 0 8.49659e-11)
(8.71271e-10 0 8.39779e-11)
(8.35725e-10 0 8.30325e-11)
(8.00564e-10 0 8.21224e-11)
(7.65775e-10 0 8.12426e-11)
(7.31346e-10 0 8.03894e-11)
(6.97267e-10 0 7.95604e-11)
(6.63528e-10 0 7.87541e-11)
(6.3012e-10 0 7.797e-11)
(5.97033e-10 0 7.7208e-11)
(5.64259e-10 0 7.64687e-11)
(5.31788e-10 0 7.57529e-11)
(4.99611e-10 0 7.50618e-11)
(4.67717e-10 0 7.43966e-11)
(4.36095e-10 0 7.37587e-11)
(4.04734e-10 0 7.31496e-11)
(3.73623e-10 0 7.25709e-11)
(3.42748e-10 0 7.2024e-11)
(3.12097e-10 0 7.15102e-11)
(2.81656e-10 0 7.1031e-11)
(2.51411e-10 0 7.05871e-11)
(2.21347e-10 0 7.01792e-11)
(1.91448e-10 0 6.98062e-11)
(1.617e-10 0 6.94657e-11)
(1.32087e-10 0 6.91534e-11)
(1.02591e-10 0 6.88663e-11)
(7.31921e-11 0 6.86087e-11)
(4.38705e-11 0 6.84169e-11)
(1.46135e-11 0 6.84056e-11)
(-0.00153088 0 0.00617043)
(-0.00141115 0 0.00485341)
(-0.00227128 0 0.00376604)
(-0.00402068 0 0.0021225)
(-0.00446281 0 0.00146667)
(-0.00384331 0 -0.00262444)
(-0.00390764 0 0.000557308)
(-0.00263818 0 -0.00284814)
(-0.00136692 0 -0.00210723)
(-0.00126934 0 -0.000590011)
(-0.00016677 0 -0.00043891)
(0.00066995 0 -0.000199121)
(0.000755398 0 0.000166469)
(4.43946e-05 0 0.000601078)
(-0.000468062 0 0.000412445)
(-0.000385493 0 -0.000770366)
(-0.00050356 0 -0.00177652)
(-0.00109979 0 -0.00243669)
(-0.000759524 0 -0.00263095)
(0.000980871 0 -0.000262627)
(7.1625e-06 0 0.000415074)
(1.8697e-09 0 2.28761e-09)
(3.67227e-09 0 1.84971e-09)
(3.49609e-09 0 1.48068e-09)
(3.28038e-09 0 1.1916e-09)
(3.06448e-09 0 9.70538e-10)
(2.86492e-09 0 8.01683e-10)
(2.68639e-09 0 6.71549e-10)
(2.52854e-09 0 5.6998e-10)
(2.38924e-09 0 4.89649e-10)
(2.26602e-09 0 4.25331e-10)
(2.15648e-09 0 3.73283e-10)
(2.05851e-09 0 3.30792e-10)
(1.97031e-09 0 2.95858e-10)
(1.89034e-09 0 2.66984e-10)
(1.8173e-09 0 2.43022e-10)
(1.75008e-09 0 2.23078e-10)
(1.68775e-09 0 2.06443e-10)
(1.62953e-09 0 1.92544e-10)
(1.57476e-09 0 1.80913e-10)
(1.5229e-09 0 1.71166e-10)
(1.47347e-09 0 1.62983e-10)
(1.42609e-09 0 1.56096e-10)
(1.38044e-09 0 1.50282e-10)
(1.33627e-09 0 1.45353e-10)
(1.29334e-09 0 1.41152e-10)
(1.25149e-09 0 1.37548e-10)
(1.21056e-09 0 1.34432e-10)
(1.17045e-09 0 1.31712e-10)
(1.13104e-09 0 1.29313e-10)
(1.09228e-09 0 1.27173e-10)
(1.05408e-09 0 1.25241e-10)
(1.01642e-09 0 1.23476e-10)
(9.79235e-10 0 1.21843e-10)
(9.42507e-10 0 1.20318e-10)
(9.06209e-10 0 1.18877e-10)
(8.70319e-10 0 1.17506e-10)
(8.34822e-10 0 1.16192e-10)
(7.99703e-10 0 1.14925e-10)
(7.64952e-10 0 1.13698e-10)
(7.30557e-10 0 1.12506e-10)
(6.96509e-10 0 1.11348e-10)
(6.628e-10 0 1.1022e-10)
(6.29421e-10 0 1.09122e-10)
(5.96365e-10 0 1.08055e-10)
(5.63621e-10 0 1.07019e-10)
(5.31181e-10 0 1.06015e-10)
(4.99036e-10 0 1.05046e-10)
(4.67175e-10 0 1.04113e-10)
(4.35588e-10 0 1.03218e-10)
(4.04264e-10 0 1.02364e-10)
(3.7319e-10 0 1.01552e-10)
(3.42355e-10 0 1.00785e-10)
(3.11744e-10 0 1.00065e-10)
(2.81345e-10 0 9.93926e-11)
(2.51142e-10 0 9.87706e-11)
(2.2112e-10 0 9.81992e-11)
(1.91264e-10 0 9.7678e-11)
(1.61557e-10 0 9.72051e-11)
(1.31982e-10 0 9.6777e-11)
(1.02518e-10 0 9.63924e-11)
(7.31447e-11 0 9.60585e-11)
(4.38412e-11 0 9.58066e-11)
(1.46024e-11 0 9.57667e-11)
(-0.00118764 0 0.00737057)
(-0.0016004 0 0.00545139)
(-0.00258131 0 0.00419852)
(-0.00402818 0 0.00275374)
(-0.00416811 0 0.00157644)
(-0.00322283 0 -0.0030838)
(-0.00323118 0 -0.00234782)
(-0.0018654 0 -0.00411636)
(0.000341602 0 -0.00393254)
(0.00107287 0 -0.00287379)
(0.00159878 0 -0.00218406)
(0.00238634 0 -0.000940979)
(0.00263239 0 0.000151359)
(0.00236333 0 0.000696667)
(0.00186161 0 0.000961637)
(0.000922861 0 0.000367652)
(-9.51556e-05 0 -0.000970255)
(-0.000924661 0 -0.00249588)
(-0.000679715 0 -0.00281199)
(-0.000473571 0 -0.00172428)
(7.00969e-06 0 0.00167724)
(1.69432e-09 0 2.28874e-09)
(3.33811e-09 0 1.96676e-09)
(3.20477e-09 0 1.65028e-09)
(3.04158e-09 0 1.37271e-09)
(2.87484e-09 0 1.14417e-09)
(2.71587e-09 0 9.60806e-10)
(2.56902e-09 0 8.14629e-10)
(2.43542e-09 0 6.97746e-10)
(2.31466e-09 0 6.0364e-10)
(2.20571e-09 0 5.27266e-10)
(2.10729e-09 0 4.64815e-10)
(2.01812e-09 0 4.13419e-10)
(1.93696e-09 0 3.70903e-10)
(1.86269e-09 0 3.35597e-10)
(1.79429e-09 0 3.06197e-10)
(1.7309e-09 0 2.81666e-10)
(1.67174e-09 0 2.61169e-10)
(1.61614e-09 0 2.44023e-10)
(1.56356e-09 0 2.29666e-10)
(1.5135e-09 0 2.17629e-10)
(1.46558e-09 0 2.07519e-10)
(1.41945e-09 0 1.9901e-10)
(1.37484e-09 0 1.91823e-10)
(1.33151e-09 0 1.85729e-10)
(1.28929e-09 0 1.80531e-10)
(1.24801e-09 0 1.76067e-10)
(1.20756e-09 0 1.72202e-10)
(1.16782e-09 0 1.68823e-10)
(1.12873e-09 0 1.65835e-10)
(1.09021e-09 0 1.63164e-10)
(1.05222e-09 0 1.60745e-10)
(1.01472e-09 0 1.58527e-10)
(9.77668e-10 0 1.56471e-10)
(9.41048e-10 0 1.54543e-10)
(9.04836e-10 0 1.52718e-10)
(8.69019e-10 0 1.50976e-10)
(8.33582e-10 0 1.49302e-10)
(7.98515e-10 0 1.47684e-10)
(7.63809e-10 0 1.46115e-10)
(7.29456e-10 0 1.44589e-10)
(6.95447e-10 0 1.43103e-10)
(6.61775e-10 0 1.41654e-10)
(6.28434e-10 0 1.40244e-10)
(5.95414e-10 0 1.38871e-10)
(5.62709e-10 0 1.37537e-10)
(5.30309e-10 0 1.36245e-10)
(4.98205e-10 0 1.34997e-10)
(4.66387e-10 0 1.33794e-10)
(4.34846e-10 0 1.32641e-10)
(4.03569e-10 0 1.3154e-10)
(3.72545e-10 0 1.30494e-10)
(3.41761e-10 0 1.29505e-10)
(3.11204e-10 0 1.28576e-10)
(2.80859e-10 0 1.27711e-10)
(2.50712e-10 0 1.2691e-10)
(2.20748e-10 0 1.26175e-10)
(1.90949e-10 0 1.25506e-10)
(1.61298e-10 0 1.24903e-10)
(1.31776e-10 0 1.24362e-10)
(1.02363e-10 0 1.23885e-10)
(7.30382e-11 0 1.23479e-10)
(4.37787e-11 0 1.23173e-10)
(1.45813e-11 0 1.23099e-10)
(-0.0016839 0 0.00809954)
(-0.00137734 0 0.00625196)
(-0.00293232 0 0.00480324)
(-0.00302279 0 0.00370517)
(-0.00351648 0 0.00100944)
(-0.002188 0 -0.00235177)
(-0.00186956 0 -0.00415172)
(-0.00110822 0 -0.00502117)
(-0.000634181 0 -0.00462431)
(0.000839794 0 -0.00389608)
(0.00141217 0 -0.00282289)
(0.00227086 0 -0.00145978)
(0.00282498 0 -0.000128092)
(0.0028159 0 0.000621119)
(0.00235991 0 0.00109775)
(0.00157936 0 0.00128471)
(0.000797156 0 3.58161e-05)
(-0.000417413 0 -0.00191802)
(-0.000217559 0 -0.00287337)
(-0.000775307 0 -0.0016333)
(8.60646e-06 0 0.00176884)
(1.56719e-09 0 2.27126e-09)
(3.07391e-09 0 2.07927e-09)
(2.93914e-09 0 1.78564e-09)
(2.80609e-09 0 1.51064e-09)
(2.67869e-09 0 1.27802e-09)
(2.55644e-09 0 1.0872e-09)
(2.44026e-09 0 9.3192e-10)
(2.33121e-09 0 8.05457e-10)
(2.22986e-09 0 7.02007e-10)
(2.13627e-09 0 6.16923e-10)
(2.0501e-09 0 5.46587e-10)
(1.97079e-09 0 4.88195e-10)
(1.89764e-09 0 4.39565e-10)
(1.82993e-09 0 3.98974e-10)
(1.76695e-09 0 3.65046e-10)
(1.70805e-09 0 3.36662e-10)
(1.65263e-09 0 3.12905e-10)
(1.60015e-09 0 2.9301e-10)
(1.55016e-09 0 2.7634e-10)
(1.50227e-09 0 2.62358e-10)
(1.45614e-09 0 2.50614e-10)
(1.4115e-09 0 2.40726e-10)
(1.36812e-09 0 2.32374e-10)
(1.32581e-09 0 2.25287e-10)
(1.28442e-09 0 2.19237e-10)
(1.24383e-09 0 2.14035e-10)
(1.20393e-09 0 2.09522e-10)
(1.16464e-09 0 2.05567e-10)
(1.12591e-09 0 2.02061e-10)
(1.08769e-09 0 1.98914e-10)
(1.04994e-09 0 1.96054e-10)
(1.01262e-09 0 1.93423e-10)
(9.75725e-10 0 1.90973e-10)
(9.39228e-10 0 1.88667e-10)
(9.03117e-10 0 1.86476e-10)
(8.67381e-10 0 1.84378e-10)
(8.32014e-10 0 1.82354e-10)
(7.97006e-10 0 1.80394e-10)
(7.62352e-10 0 1.78489e-10)
(7.28046e-10 0 1.76632e-10)
(6.94082e-10 0 1.7482e-10)
(6.60454e-10 0 1.73052e-10)
(6.27156e-10 0 1.71328e-10)
(5.94181e-10 0 1.69649e-10)
(5.61522e-10 0 1.68017e-10)
(5.2917e-10 0 1.66434e-10)
(4.97117e-10 0 1.64905e-10)
(4.65352e-10 0 1.63431e-10)
(4.33867e-10 0 1.62017e-10)
(4.02648e-10 0 1.60667e-10)
(3.71686e-10 0 1.59384e-10)
(3.40966e-10 0 1.58172e-10)
(3.10475e-10 0 1.57033e-10)
(2.80199e-10 0 1.55972e-10)
(2.50123e-10 0 1.54991e-10)
(2.2023e-10 0 1.54092e-10)
(1.90503e-10 0 1.53276e-10)
(1.60924e-10 0 1.52543e-10)
(1.31473e-10 0 1.51893e-10)
(1.02129e-10 0 1.51324e-10)
(7.28734e-11 0 1.50847e-10)
(4.36848e-11 0 1.5049e-10)
(1.45524e-11 0 1.50387e-10)
(-0.000782676 0 0.00893585)
(-0.000945893 0 0.00707847)
(-0.0011344 0 0.00605726)
(-0.00198368 0 0.00412449)
(-0.00293251 0 0.000856262)
(-0.00198135 0 -0.00181943)
(-0.000370893 0 -0.00494066)
(-0.000231968 0 -0.00567405)
(0.000280332 0 -0.00538362)
(0.000770357 0 -0.00467699)
(0.00161917 0 -0.00325032)
(0.00149367 0 -0.00288432)
(0.00272021 0 -0.000194973)
(0.00265149 0 0.000981708)
(0.00225238 0 0.00159487)
(0.00218119 0 0.00130562)
(0.00174442 0 0.000779954)
(-0.00011304 0 -0.00103396)
(8.33874e-05 0 -0.0026354)
(-0.00116179 0 -0.00156083)
(-6.69823e-06 0 0.000227768)
(1.51871e-09 0 2.81114e-09)
(2.88206e-09 0 2.28096e-09)
(2.67134e-09 0 1.90435e-09)
(2.56582e-09 0 1.61119e-09)
(2.47828e-09 0 1.37505e-09)
(2.39194e-09 0 1.18229e-09)
(2.30546e-09 0 1.02385e-09)
(2.22042e-09 0 8.92908e-10)
(2.1384e-09 0 7.84194e-10)
(2.06044e-09 0 6.93575e-10)
(1.987e-09 0 6.17813e-10)
(1.91812e-09 0 5.54341e-10)
(1.85361e-09 0 5.01107e-10)
(1.79308e-09 0 4.56441e-10)
(1.73609e-09 0 4.18967e-10)
(1.68221e-09 0 3.8754e-10)
(1.63098e-09 0 3.61193e-10)
(1.58201e-09 0 3.39111e-10)
(1.53496e-09 0 3.20602e-10)
(1.48951e-09 0 3.05076e-10)
(1.44542e-09 0 2.92034e-10)
(1.40247e-09 0 2.81053e-10)
(1.36048e-09 0 2.71775e-10)
(1.31932e-09 0 2.63897e-10)
(1.27887e-09 0 2.57165e-10)
(1.23904e-09 0 2.51367e-10)
(1.19976e-09 0 2.46324e-10)
(1.16098e-09 0 2.41891e-10)
(1.12266e-09 0 2.37947e-10)
(1.08476e-09 0 2.34391e-10)
(1.04727e-09 0 2.31145e-10)
(1.01016e-09 0 2.28143e-10)
(9.73433e-10 0 2.25334e-10)
(9.37069e-10 0 2.22677e-10)
(9.01066e-10 0 2.20141e-10)
(8.65419e-10 0 2.17702e-10)
(8.30125e-10 0 2.15343e-10)
(7.95182e-10 0 2.13049e-10)
(7.60584e-10 0 2.10813e-10)
(7.26331e-10 0 2.08629e-10)
(6.92417e-10 0 2.06494e-10)
(6.58838e-10 0 2.04408e-10)
(6.25589e-10 0 2.0237e-10)
(5.92665e-10 0 2.00383e-10)
(5.60059e-10 0 1.98451e-10)
(5.27763e-10 0 1.96576e-10)
(4.95769e-10 0 1.94762e-10)
(4.64068e-10 0 1.93014e-10)
(4.32648e-10 0 1.91337e-10)
(4.015e-10 0 1.89735e-10)
(3.70611e-10 0 1.88212e-10)
(3.39968e-10 0 1.86773e-10)
(3.09557e-10 0 1.85423e-10)
(2.79364e-10 0 1.84164e-10)
(2.49373e-10 0 1.83002e-10)
(2.19566e-10 0 1.81938e-10)
(1.89928e-10 0 1.80974e-10)
(1.60437e-10 0 1.80112e-10)
(1.31075e-10 0 1.79352e-10)
(1.0182e-10 0 1.78694e-10)
(7.26549e-11 0 1.78144e-10)
(4.3559e-11 0 1.77732e-10)
(1.45129e-11 0 1.77612e-10)
(-0.00130873 0 0.00940318)
(-0.000882345 0 0.00762796)
(-0.00066109 0 0.00611775)
(-0.00196596 0 0.00370301)
(-0.00111787 0 0.00199469)
(-0.000781353 0 -0.00265706)
(0.000445399 0 -0.00516162)
(0.000142968 0 -0.00617313)
(0.000509734 0 -0.00585623)
(0.0009072 0 -0.00493457)
(0.00109561 0 -0.00378815)
(0.00150513 0 -0.0030265)
(0.00205351 0 0.000219144)
(0.00235889 0 0.00101328)
(0.00180157 0 0.00223309)
(0.00149991 0 0.00231381)
(0.0012698 0 0.00175298)
(2.87247e-05 0 -0.000420656)
(-0.000391616 0 -0.00236732)
(-0.000362866 0 -0.000617509)
(6.70511e-10 0 2.078e-09)
(1.68079e-09 0 3.00661e-09)
(2.2216e-09 0 2.34629e-09)
(2.31056e-09 0 1.94925e-09)
(2.31e-09 0 1.66143e-09)
(2.2771e-09 0 1.43386e-09)
(2.22784e-09 0 1.2472e-09)
(2.16962e-09 0 1.09158e-09)
(2.10715e-09 0 9.608e-10)
(2.04354e-09 0 8.50443e-10)
(1.98077e-09 0 7.57131e-10)
(1.91998e-09 0 6.78189e-10)
(1.86172e-09 0 6.11437e-10)
(1.80615e-09 0 5.55061e-10)
(1.75317e-09 0 5.07526e-10)
(1.70258e-09 0 4.67515e-10)
(1.65408e-09 0 4.33891e-10)
(1.60739e-09 0 4.05675e-10)
(1.56224e-09 0 3.82016e-10)
(1.51838e-09 0 3.62186e-10)
(1.4756e-09 0 3.45557e-10)
(1.43373e-09 0 3.31593e-10)
(1.39262e-09 0 3.19837e-10)
(1.35215e-09 0 3.09901e-10)
(1.31223e-09 0 3.01459e-10)
(1.2728e-09 0 2.94236e-10)
(1.23379e-09 0 2.87999e-10)
(1.19518e-09 0 2.8256e-10)
(1.15694e-09 0 2.77758e-10)
(1.11905e-09 0 2.73465e-10)
(1.08149e-09 0 2.69574e-10)
(1.04427e-09 0 2.66e-10)
(1.00738e-09 0 2.62675e-10)
(9.70822e-10 0 2.59545e-10)
(9.34595e-10 0 2.56567e-10)
(8.98702e-10 0 2.53709e-10)
(8.63146e-10 0 2.50947e-10)
(8.27928e-10 0 2.48263e-10)
(7.9305e-10 0 2.45645e-10)
(7.58511e-10 0 2.43085e-10)
(7.24312e-10 0 2.40577e-10)
(6.90451e-10 0 2.38121e-10)
(6.56926e-10 0 2.35716e-10)
(6.23732e-10 0 2.33364e-10)
(5.90864e-10 0 2.31068e-10)
(5.58318e-10 0 2.28832e-10)
(5.26086e-10 0 2.26661e-10)
(4.9416e-10 0 2.2456e-10)
(4.62531e-10 0 2.22535e-10)
(4.31188e-10 0 2.2059e-10)
(4.00121e-10 0 2.18732e-10)
(3.69317e-10 0 2.16966e-10)
(3.38764e-10 0 2.15298e-10)
(3.08447e-10 0 2.13732e-10)
(2.78351e-10 0 2.12274e-10)
(2.4846e-10 0 2.10927e-10)
(2.18757e-10 0 2.09696e-10)
(1.89223e-10 0 2.08584e-10)
(1.5984e-10 0 2.07593e-10)
(1.30586e-10 0 2.06723e-10)
(1.01441e-10 0 2.05974e-10)
(7.23861e-11 0 2.05349e-10)
(4.33991e-11 0 2.04886e-10)
(1.44595e-11 0 2.04753e-10)
(-0.00109906 0 0.00985236)
(-0.00027219 0 0.0081785)
(-0.000435985 0 0.00617133)
(-0.000644791 0 0.00387889)
(-0.000133929 0 0.00133032)
(0.000590294 0 -0.00274094)
(0.000299083 0 -0.00548045)
(0.000667967 0 -0.00642802)
(0.000779344 0 -0.00610347)
(0.000958056 0 -0.00499061)
(0.000384544 0 -0.00402453)
(0.00118108 0 -0.0032668)
(0.00168733 0 -0.00060097)
(0.00220389 0 -8.7892e-05)
(0.00217798 0 0.00171894)
(0.00157902 0 0.0022296)
(0.00153805 0 0.00194995)
(6.25042e-05 0 0.000192538)
(-0.000544459 0 -0.00189755)
(-5.03548e-05 0 -0.00235812)
(7.21344e-10 0 2.33475e-09)
(1.59643e-09 0 2.46462e-09)
(1.88864e-09 0 2.17866e-09)
(2.02884e-09 0 1.89774e-09)
(2.083e-09 0 1.65854e-09)
(2.09063e-09 0 1.45667e-09)
(2.07185e-09 0 1.28481e-09)
(2.03774e-09 0 1.13747e-09)
(1.99505e-09 0 1.01074e-09)
(1.94807e-09 0 9.01694e-10)
(1.89947e-09 0 8.08027e-10)
(1.85084e-09 0 7.27808e-10)
(1.80305e-09 0 6.59361e-10)
(1.75649e-09 0 6.01188e-10)
(1.71125e-09 0 5.51937e-10)
(1.66727e-09 0 5.10384e-10)
(1.62441e-09 0 4.75427e-10)
(1.5825e-09 0 4.46085e-10)
(1.54137e-09 0 4.21493e-10)
(1.50089e-09 0 4.00896e-10)
(1.46094e-09 0 3.83637e-10)
(1.42141e-09 0 3.69155e-10)
(1.38223e-09 0 3.56967e-10)
(1.34336e-09 0 3.46666e-10)
(1.30474e-09 0 3.37905e-10)
(1.26637e-09 0 3.30395e-10)
(1.22822e-09 0 3.23893e-10)
(1.1903e-09 0 3.18198e-10)
(1.1526e-09 0 3.13146e-10)
(1.11515e-09 0 3.086e-10)
(1.07794e-09 0 3.04452e-10)
(1.04099e-09 0 3.00613e-10)
(1.00432e-09 0 2.97015e-10)
(9.67925e-10 0 2.93603e-10)
(9.31831e-10 0 2.90335e-10)
(8.96046e-10 0 2.87178e-10)
(8.60577e-10 0 2.84111e-10)
(8.25432e-10 0 2.81116e-10)
(7.90618e-10 0 2.78182e-10)
(7.56137e-10 0 2.75303e-10)
(7.21993e-10 0 2.72475e-10)
(6.88187e-10 0 2.69698e-10)
(6.54717e-10 0 2.66974e-10)
(6.21581e-10 0 2.64306e-10)
(5.88776e-10 0 2.61697e-10)
(5.56296e-10 0 2.59155e-10)
(5.24135e-10 0 2.56684e-10)
(4.92285e-10 0 2.54292e-10)
(4.60737e-10 0 2.51984e-10)
(4.29482e-10 0 2.49767e-10)
(3.98507e-10 0 2.47649e-10)
(3.67801e-10 0 2.45636e-10)
(3.37351e-10 0 2.43734e-10)
(3.07142e-10 0 2.41949e-10)
(2.77158e-10 0 2.40287e-10)
(2.47383e-10 0 2.38754e-10)
(2.178e-10 0 2.37354e-10)
(1.8839e-10 0 2.3609e-10)
(1.59132e-10 0 2.34968e-10)
(1.30006e-10 0 2.33987e-10)
(1.00991e-10 0 2.33146e-10)
(7.20645e-11 0 2.32447e-10)
(4.32044e-11 0 2.31935e-10)
(1.43939e-11 0 2.31785e-10)
(-0.00084394 0 0.00987877)
(1.38824e-05 0 0.00818023)
(-0.000116215 0 0.00611569)
(-0.00022982 0 0.00371966)
(0.000340418 0 0.000712297)
(0.000772406 0 -0.0027125)
(0.00240263 0 -0.00525414)
(0.00159428 0 -0.00643245)
(0.00145555 0 -0.00607846)
(0.00102022 0 -0.00499058)
(0.00011609 0 -0.00396171)
(0.000202619 0 -0.00320083)
(0.0015597 0 -0.0022316)
(0.000937846 0 0.00165467)
(0.000517337 0 0.0026701)
(0.000727314 0 0.00259228)
(0.000549421 0 0.00242895)
(-0.000172677 0 0.000566799)
(0.000159889 0 -0.00127759)
(-1.63827e-05 0 -0.00221099)
(7.09872e-10 0 2.28323e-09)
(1.50648e-09 0 2.18776e-09)
(1.69003e-09 0 2.00636e-09)
(1.8234e-09 0 1.80947e-09)
(1.89732e-09 0 1.62285e-09)
(1.92769e-09 0 1.45314e-09)
(1.92955e-09 0 1.30091e-09)
(1.91357e-09 0 1.16529e-09)
(1.88688e-09 0 1.04515e-09)
(1.85415e-09 0 9.39427e-10)
(1.8183e-09 0 8.47083e-10)
(1.78106e-09 0 7.67048e-10)
(1.74339e-09 0 6.9821e-10)
(1.70575e-09 0 6.39421e-10)
(1.66829e-09 0 5.89524e-10)
(1.63105e-09 0 5.47392e-10)
(1.59396e-09 0 5.11962e-10)
(1.55696e-09 0 4.82255e-10)
(1.51999e-09 0 4.57394e-10)
(1.48299e-09 0 4.36605e-10)
(1.44594e-09 0 4.19214e-10)
(1.40881e-09 0 4.04639e-10)
(1.37162e-09 0 3.92382e-10)
(1.33437e-09 0 3.82022e-10)
(1.29707e-09 0 3.73201e-10)
(1.25976e-09 0 3.65621e-10)
(1.22247e-09 0 3.59034e-10)
(1.18523e-09 0 3.53233e-10)
(1.14808e-09 0 3.48052e-10)
(1.11105e-09 0 3.43353e-10)
(1.07417e-09 0 3.39028e-10)
(1.03748e-09 0 3.3499e-10)
(1.00101e-09 0 3.3117e-10)
(9.64775e-10 0 3.27515e-10)
(9.28804e-10 0 3.23987e-10)
(8.93115e-10 0 3.20555e-10)
(8.57725e-10 0 3.17199e-10)
(8.22647e-10 0 3.13904e-10)
(7.87891e-10 0 3.10662e-10)
(7.53466e-10 0 3.07468e-10)
(7.19375e-10 0 3.04322e-10)
(6.85624e-10 0 3.01224e-10)
(6.52211e-10 0 2.98179e-10)
(6.19136e-10 0 2.95191e-10)
(5.86397e-10 0 2.92267e-10)
(5.53989e-10 0 2.89413e-10)
(5.21906e-10 0 2.86638e-10)
(4.90141e-10 0 2.83948e-10)
(4.58684e-10 0 2.81353e-10)
(4.27526e-10 0 2.78859e-10)
(3.96655e-10 0 2.76475e-10)
(3.6606e-10 0 2.74209e-10)
(3.35726e-10 0 2.72068e-10)
(3.05638e-10 0 2.70059e-10)
(2.75782e-10 0 2.6819e-10)
(2.4614e-10 0 2.66466e-10)
(2.16694e-10 0 2.64893e-10)
(1.87424e-10 0 2.63476e-10)
(1.58311e-10 0 2.6222e-10)
(1.29333e-10 0 2.61125e-10)
(1.00467e-10 0 2.60192e-10)
(7.16885e-11 0 2.59422e-10)
(4.29777e-11 0 2.58859e-10)
(1.43186e-11 0 2.58687e-10)
(-0.000593327 0 0.00988222)
(0.000285021 0 0.00808119)
(0.000144732 0 0.00595986)
(0.000468505 0 0.00345916)
(0.000516966 0 0.000601358)
(0.0015991 0 -0.00254949)
(0.00229204 0 -0.00582077)
(0.00276803 0 -0.0063035)
(0.00274507 0 -0.00566056)
(0.00126766 0 -0.00490115)
(0.00159543 0 -0.00384144)
(2.31122e-05 0 -0.00267725)
(0.000699939 0 -0.00108078)
(0.00120095 0 0.000911575)
(0.0013834 0 0.0020494)
(0.000458369 0 0.00267296)
(0.000823447 0 0.00249903)
(9.00996e-05 0 0.00108161)
(0.000175399 0 -0.00121327)
(-2.27315e-06 0 -0.00226943)
(6.14825e-10 0 2.29059e-09)
(1.3403e-09 0 1.98765e-09)
(1.53583e-09 0 1.84816e-09)
(1.67075e-09 0 1.71241e-09)
(1.75028e-09 0 1.57247e-09)
(1.79007e-09 0 1.43436e-09)
(1.80311e-09 0 1.30254e-09)
(1.79894e-09 0 1.17957e-09)
(1.78415e-09 0 1.06693e-09)
(1.76309e-09 0 9.65427e-10)
(1.73844e-09 0 8.75321e-10)
(1.71174e-09 0 7.96428e-10)
(1.68378e-09 0 7.28193e-10)
(1.6549e-09 0 6.69792e-10)
(1.62522e-09 0 6.20231e-10)
(1.59475e-09 0 5.7845e-10)
(1.56349e-09 0 5.43401e-10)
(1.53146e-09 0 5.14098e-10)
(1.49867e-09 0 4.89647e-10)
(1.46518e-09 0 4.6926e-10)
(1.43104e-09 0 4.52249e-10)
(1.39632e-09 0 4.3802e-10)
(1.3611e-09 0 4.26069e-10)
(1.32545e-09 0 4.15966e-10)
(1.28945e-09 0 4.07352e-10)
(1.25317e-09 0 3.99924e-10)
(1.21671e-09 0 3.93436e-10)
(1.18012e-09 0 3.87681e-10)
(1.14347e-09 0 3.82494e-10)
(1.10683e-09 0 3.77743e-10)
(1.07026e-09 0 3.73321e-10)
(1.0338e-09 0 3.69146e-10)
(9.97504e-10 0 3.65154e-10)
(9.61404e-10 0 3.61295e-10)
(9.25536e-10 0 3.57535e-10)
(8.89928e-10 0 3.53849e-10)
(8.54603e-10 0 3.50219e-10)
(8.19581e-10 0 3.46634e-10)
(7.84876e-10 0 3.4309e-10)
(7.50499e-10 0 3.39585e-10)
(7.16459e-10 0 3.3612e-10)
(6.8276e-10 0 3.327e-10)
(6.49404e-10 0 3.2933e-10)
(6.16393e-10 0 3.26018e-10)
(5.83724e-10 0 3.22773e-10)
(5.51393e-10 0 3.19602e-10)
(5.19394e-10 0 3.16516e-10)
(4.87721e-10 0 3.13522e-10)
(4.56364e-10 0 3.10632e-10)
(4.25314e-10 0 3.07855e-10)
(3.94559e-10 0 3.05199e-10)
(3.64086e-10 0 3.02674e-10)
(3.33882e-10 0 3.00288e-10)
(3.03932e-10 0 2.9805e-10)
(2.74219e-10 0 2.95968e-10)
(2.44726e-10 0 2.94049e-10)
(2.15434e-10 0 2.92299e-10)
(1.86324e-10 0 2.90725e-10)
(1.57374e-10 0 2.89331e-10)
(1.28562e-10 0 2.88121e-10)
(9.9865e-11 0 2.87094e-10)
(7.12591e-11 0 2.86253e-10)
(4.27213e-11 0 2.85636e-10)
(1.42334e-11 0 2.85443e-10)
(-0.000458438 0 0.00981862)
(0.000632157 0 0.00788088)
(0.000398372 0 0.00568105)
(0.000900099 0 0.00336795)
(0.00172187 0 -0.00195622)
(0.00250951 0 -0.00408829)
(0.00347285 0 -0.0064373)
(0.0035098 0 -0.00637086)
(0.00326417 0 -0.00534457)
(0.00162922 0 -0.00429309)
(0.00146613 0 -0.00296055)
(0.00140697 0 -0.00199901)
(0.000365096 0 -0.00138213)
(2.6312e-05 0 0.00147478)
(0.000193485 0 0.00239305)
(6.69668e-05 0 0.00280506)
(4.93291e-06 0 0.00270789)
(9.69003e-05 0 0.000797259)
(3.75902e-06 0 -0.0015044)
(0.000109133 0 -0.00222387)
(4.23917e-10 0 1.79751e-09)
(1.10051e-09 0 1.64905e-09)
(1.43485e-09 0 1.68739e-09)
(1.56705e-09 0 1.61947e-09)
(1.63837e-09 0 1.52076e-09)
(1.6761e-09 0 1.41027e-09)
(1.69193e-09 0 1.29654e-09)
(1.69374e-09 0 1.18488e-09)
(1.68701e-09 0 1.07901e-09)
(1.67524e-09 0 9.8146e-10)
(1.66045e-09 0 8.93727e-10)
(1.6436e-09 0 8.1644e-10)
(1.62505e-09 0 7.49517e-10)
(1.60483e-09 0 6.92361e-10)
(1.58289e-09 0 6.44056e-10)
(1.5592e-09 0 6.03539e-10)
(1.53376e-09 0 5.69731e-10)
(1.50667e-09 0 5.41611e-10)
(1.47803e-09 0 5.18263e-10)
(1.44799e-09 0 4.98881e-10)
(1.4167e-09 0 4.8277e-10)
(1.38432e-09 0 4.69333e-10)
(1.35099e-09 0 4.58066e-10)
(1.31687e-09 0 4.4854e-10)
(1.2821e-09 0 4.404e-10)
(1.24679e-09 0 4.33348e-10)
(1.21108e-09 0 4.27141e-10)
(1.17508e-09 0 4.21582e-10)
(1.13888e-09 0 4.16512e-10)
(1.10259e-09 0 4.11805e-10)
(1.06627e-09 0 4.07363e-10)
(1.03e-09 0 4.03111e-10)
(9.9384e-10 0 3.98992e-10)
(9.57843e-10 0 3.94965e-10)
(9.2205e-10 0 3.90999e-10)
(8.865e-10 0 3.87077e-10)
(8.51223e-10 0 3.83184e-10)
(8.16241e-10 0 3.79317e-10)
(7.81575e-10 0 3.75474e-10)
(7.47238e-10 0 3.71657e-10)
(7.13242e-10 0 3.67872e-10)
(6.79592e-10 0 3.64125e-10)
(6.46293e-10 0 3.60426e-10)
(6.13346e-10 0 3.56785e-10)
(5.8075e-10 0 3.53211e-10)
(5.485e-10 0 3.49716e-10)
(5.16593e-10 0 3.46311e-10)
(4.85019e-10 0 3.43007e-10)
(4.53772e-10 0 3.39814e-10)
(4.2284e-10 0 3.36745e-10)
(3.92212e-10 0 3.3381e-10)
(3.61876e-10 0 3.31019e-10)
(3.31816e-10 0 3.28381e-10)
(3.02018e-10 0 3.25908e-10)
(2.72465e-10 0 3.23607e-10)
(2.43138e-10 0 3.21487e-10)
(2.14019e-10 0 3.19555e-10)
(1.85086e-10 0 3.17819e-10)
(1.56319e-10 0 3.16285e-10)
(1.27694e-10 0 3.14957e-10)
(9.91862e-11 0 3.13834e-10)
(7.07749e-11 0 3.12916e-10)
(4.24328e-11 0 3.1225e-10)
(1.41374e-11 0 3.12033e-10)
(-0.000414756 0 0.0095941)
(0.000471302 0 0.00757864)
(0.000574557 0 0.00543755)
(0.00123023 0 0.00236258)
(0.0025576 0 -0.00205284)
(0.00355068 0 -0.00508378)
(0.00429324 0 -0.0067724)
(0.00411743 0 -0.00640308)
(0.00403928 0 -0.00495008)
(0.00380893 0 -0.00247452)
(0.00088523 0 -0.00198086)
(0.000513797 0 -0.00128913)
(1.77993e-07 0 -0.000767682)
(5.2346e-05 0 0.00162127)
(-5.46981e-05 0 0.00232057)
(-9.00849e-05 0 0.00281036)
(-4.55444e-05 0 0.00274225)
(6.66156e-05 0 1.3871e-05)
(-7.6915e-05 0 -0.00159456)
(0.000402122 0 -0.00192709)
(1.25066e-06 0 5.15521e-05)
(7.63729e-10 0 1.82515e-09)
(1.51125e-09 0 1.62098e-09)
(1.51688e-09 0 1.55412e-09)
(1.55603e-09 0 1.47973e-09)
(1.58143e-09 0 1.3893e-09)
(1.59312e-09 0 1.28893e-09)
(1.5961e-09 0 1.18528e-09)
(1.59434e-09 0 1.0839e-09)
(1.59011e-09 0 9.88945e-10)
(1.58432e-09 0 9.03005e-10)
(1.57701e-09 0 8.27369e-10)
(1.56782e-09 0 7.62259e-10)
(1.55631e-09 0 7.07135e-10)
(1.54216e-09 0 6.61005e-10)
(1.52522e-09 0 6.22691e-10)
(1.50555e-09 0 5.91008e-10)
(1.48329e-09 0 5.64872e-10)
(1.45867e-09 0 5.43329e-10)
(1.43194e-09 0 5.2556e-10)
(1.40337e-09 0 5.10872e-10)
(1.37319e-09 0 4.98672e-10)
(1.34163e-09 0 4.88465e-10)
(1.30892e-09 0 4.79833e-10)
(1.27525e-09 0 4.72429e-10)
(1.2408e-09 0 4.6597e-10)
(1.20575e-09 0 4.60223e-10)
(1.17024e-09 0 4.55003e-10)