/*--------------------------------*- C++ -*----------------------------------*\
  =========                 |
  \\      /  F ield         | OpenFOAM: The Open Source CFD Toolbox
   \\    /   O peration     | Website:  https://openfoam.org
    \\  /    A nd           | Version:  6
     \\/     M anipulation  |
\*---------------------------------------------------------------------------*/
FoamFile
{
    version     2.0;
    format      ascii;
    class       volScalarField;
    location    "870";
    object      p;
}
// * * * * * * * * * * * * * * * * * * * * * * * * * * * * * * * * * * * * * //

dimensions      [1 -1 -2 0 0 0 0];

internalField   nonuniform List<scalar> 
5964
(
103801
103801
103801
103801
103801
103801
103801
103801
103801
103801
103801
103801
103801
103801
103801
103801
103801
103801
103801
103801
103801
103801
103801
103797
103793
103790
103787
103784
103782
103780
103778
103776
103775
103773
103771
103770
103768
103767
103765
103764
103763
103762
103760
103759
103758
103757
103756
103755
103754
103753
103752
103751
103750
103749
103748
103747
103747
103746
103745
103744
103744
103743
103742
103742
103741
103741
103740
103740
103739
103739
103738
103738
103738
103737
103737
103737
103737
103736
103736
103736
103736
103736
103736
103736
103741
103741
103741
103741
103741
103741
103741
103741
103741
103741
103741
103741
103741
103741
103741
103741
103741
103741
103741
103741
103741
103741
103741
103737
103734
103731
103728
103726
103723
103721
103719
103718
103716
103714
103713
103711
103710
103708
103707
103706
103704
103703
103702
103701
103699
103698
103697
103696
103695
103694
103693
103692
103691
103690
103690
103689
103688
103687
103686
103686
103685
103684
103684
103683
103682
103682
103681
103681
103680
103680
103680
103679
103679
103679
103678
103678
103678
103678
103677
103677
103677
103677
103677
103677
103681
103680
103680
103680
103680
103680
103680
103680
103680
103680
103680
103681
103681
103681
103681
103681
103681
103681
103681
103681
103681
103681
103681
103677
103674
103672
103669
103667
103664
103662
103661
103659
103657
103655
103654
103652
103651
103649
103648
103647
103646
103644
103643
103642
103641
103640
103639
103637
103636
103635
103634
103634
103633
103632
103631
103630
103629
103628
103628
103627
103626
103626
103625
103624
103624
103623
103623
103622
103622
103621
103621
103621
103620
103620
103620
103619
103619
103619
103619
103619
103619
103618
103618
103618
103620
103620
103620
103620
103620
103620
103620
103620
103620
103620
103620
103620
103620
103620
103620
103620
103620
103620
103620
103620
103620
103620
103620
103617
103615
103612
103610
103608
103605
103603
103602
103600
103598
103597
103595
103594
103592
103591
103589
103588
103587
103586
103584
103583
103582
103581
103580
103579
103578
103577
103576
103575
103574
103573
103572
103571
103570
103570
103569
103568
103568
103567
103566
103566
103565
103565
103564
103564
103563
103563
103562
103562
103562
103561
103561
103561
103560
103560
103560
103560
103560
103560
103560
103560
103560
103560
103560
103560
103559
103559
103559
103560
103560
103560
103560
103560
103560
103560
103560
103560
103560
103560
103560
103560
103560
103560
103560
103557
103555
103553
103550
103548
103546
103544
103543
103541
103539
103538
103536
103535
103533
103532
103531
103529
103528
103527
103526
103524
103523
103522
103521
103520
103519
103518
103517
103516
103515
103514
103513
103513
103512
103511
103510
103510
103509
103508
103508
103507
103506
103506
103505
103505
103504
103504
103504
103503
103503
103502
103502
103502
103502
103502
103501
103501
103501
103501
103501
103501
103499
103499
103499
103499
103499
103499
103499
103499
103499
103499
103499
103499
103499
103499
103499
103499
103499
103499
103499
103499
103499
103499
103499
103497
103495
103493
103491
103489
103487
103485
103484
103482
103480
103479
103477
103476
103474
103473
103472
103471
103469
103468
103467
103466
103465
103463
103462
103461
103460
103459
103458
103457
103456
103456
103455
103454
103453
103452
103451
103451
103450
103449
103449
103448
103448
103447
103447
103446
103446
103445
103445
103444
103444
103444
103443
103443
103443
103443
103443
103442
103442
103442
103442
103442
103439
103439
103439
103439
103439
103439
103439
103439
103439
103439
103439
103439
103439
103439
103439
103439
103439
103439
103439
103439
103439
103439
103439
103437
103435
103433
103431
103429
103428
103426
103424
103423
103421
103420
103418
103417
103416
103414
103413
103412
103410
103409
103408
103407
103406
103405
103404
103403
103401
103400
103399
103399
103398
103397
103396
103395
103394
103393
103393
103392
103391
103391
103390
103389
103389
103388
103388
103387
103387
103386
103386
103386
103385
103385
103385
103384
103384
103384
103384
103384
103384
103383
103383
103383
103378
103378
103378
103378
103378
103378
103378
103378
103378
103378
103378
103378
103378
103378
103378
103378
103378
103378
103378
103378
103378
103378
103378
103377
103375
103373
103372
103370
103368
103367
103365
103364
103362
103361
103359
103358
103357
103355
103354
103353
103352
103350
103349
103348
103347
103346
103345
103344
103343
103342
103341
103340
103339
103338
103337
103336
103335
103335
103334
103333
103332
103332
103331
103331
103330
103329
103329
103328
103328
103328
103327
103327
103326
103326
103326
103326
103325
103325
103325
103325
103325
103325
103325
103325
103318
103318
103318
103318
103318
103318
103318
103318
103318
103318
103318
103318
103318
103318
103318
103318
103318
103318
103318
103318
103318
103318
103318
103317
103315
103314
103312
103310
103309
103307
103306
103305
103303
103302
103300
103299
103298
103296
103295
103294
103293
103292
103290
103289
103288
103287
103286
103285
103284
103283
103282
103281
103280
103279
103278
103277
103277
103276
103275
103274
103274
103273
103272
103272
103271
103271
103270
103270
103269
103269
103268
103268
103268
103267
103267
103267
103267
103266
103266
103266
103266
103266
103266
103266
103257
103257
103257
103257
103257
103257
103257
103257
103257
103257
103257
103257
103257
103257
103257
103258
103258
103258
103257
103258
103258
103258
103258
103257
103255
103254
103252
103251
103250
103248
103247
103245
103244
103243
103241
103240
103239
103238
103236
103235
103234
103233
103232
103230
103229
103228
103227
103226
103225
103224
103223
103222
103221
103220
103219
103219
103218
103217
103216
103215
103215
103214
103213
103213
103212
103212
103211
103211
103210
103210
103209
103209
103209
103208
103208
103208
103208
103207
103207
103207
103207
103207
103207
103207
103197
103197
103197
103197
103197
103197
103197
103197
103197
103197
103197
103197
103197
103197
103197
103197
103197
103197
103197
103197
103197
103197
103197
103197
103196
103194
103193
103191
103190
103189
103187
103186
103185
103184
103182
103181
103180
103179
103177
103176
103175
103174
103173
103172
103170
103169
103168
103167
103166
103165
103164
103163
103162
103161
103160
103160
103159
103158
103157
103157
103156
103155
103155
103154
103153
103153
103152
103152
103151
103151
103151
103150
103150
103150
103149
103149
103149
103149
103148
103148
103148
103148
103148
103148
103137
103137
103137
103137
103136
103137
103137
103137
103137
103137
103137
103137
103137
103137
103137
103137
103137
103137
103137
103137
103137
103137
103137
103137
103136
103134
103133
103132
103131
103129
103128
103127
103126
103124
103123
103122
103121
103120
103118
103117
103116
103115
103114
103113
103112
103110
103109
103108
103107
103106
103105
103104
103103
103102
103102
103101
103100
103099
103098
103098
103097
103096
103096
103095
103094
103094
103093
103093
103092
103092
103092
103091
103091
103091
103090
103090
103090
103090
103089
103089
103089
103089
103089
103089
103076
103076
103076
103076
103076
103076
103076
103076
103076
103076
103076
103076
103076
103076
103076
103076
103076
103076
103076
103076
103076
103076
103076
103076
103076
103075
103073
103072
103071
103070
103069
103068
103067
103065
103064
103063
103062
103061
103060
103058
103057
103056
103055
103054
103053
103051
103050
103049
103048
103047
103046
103045
103044
103043
103043
103042
103041
103040
103039
103039
103038
103037
103037
103036
103036
103035
103034
103034
103034
103033
103033
103032
103032
103032
103031
103031
103031
103031
103031
103030
103030
103030
103030
103030
103016
103016
103016
103016
103016
103016
103016
103016
103016
103016
103016
103016
103016
103016
103016
103016
103016
103016
103016
103016
103016
103016
103016
103016
103016
103015
103014
103013
103012
103010
103009
103008
103007
103006
103005
103004
103003
103002
103001
102999
102998
102997
102996
102995
102994
102993
102991
102990
102989
102988
102987
102986
102985
102985
102984
102983
102982
102981
102980
102980
102979
102978
102978
102977
102977
102976
102975
102975
102975
102974
102974
102973
102973
102973
102972
102972
102972
102972
102972
102971
102971
102971
102971
102971
102955
102955
102955
102955
102955
102955
102955
102955
102955
102955
102955
102955
102955
102955
102955
102955
102955
102955
102955
102955
102955
102955
102955
102955
102955
102955
102954
102953
102952
102951
102950
102949
102948
102947
102946
102945
102944
102943
102942
102941
102939
102938
102937
102936
102935
102934
102933
102931
102930
102929
102928
102927
102926
102926
102925
102924
102923
102922
102921
102921
102920
102919
102919
102918
102918
102917
102916
102916
102916
102915
102915
102914
102914
102914
102913
102913
102913
102913
102913
102912
102912
102912
102912
102912
102895
102895
102895
102895
102895
102895
102895
102895
102895
102895
102895
102895
102895
102895
102895
102895
102895
102895
102895
102895
102895
102895
102895
102895
102895
102895
102895
102893
102892
102892
102891
102890
102889
102888
102887
102886
102885
102884
102883
102882
102880
102879
102878
102877
102876
102875
102874
102872
102871
102870
102869
102868
102867
102867
102866
102865
102864
102863
102862
102862
102861
102860
102860
102859
102859
102858
102857
102857
102857
102856
102856
102855
102855
102855
102854
102854
102854
102854
102854
102853
102853
102853
102853
102853
102835
102835
102835
102835
102835
102835
102835
102835
102835
102835
102834
102834
102834
102834
102834
102834
102835
102834
102834
102834
102834
102834
102834
102834
102834
102834
102834
102833
102833
102832
102832
102831
102830
102829
102828
102827
102826
102825
102824
102823
102821
102820
102819
102818
102817
102816
102815
102813
102812
102811
102810
102809
102808
102807
102807
102806
102805
102804
102803
102803
102802
102801
102801
102800
102799
102799
102798
102798
102797
102797
102797
102796
102796
102796
102795
102795
102795
102795
102795
102794
102794
102794
102794
102794
102774
102774
102774
102774
102774
102774
102774
102774
102774
102774
102774
102774
102774
102774
102774
102774
102774
102774
102774
102774
102774
102774
102774
102774
102774
102774
102774
102774
102773
102773
102772
102772
102771
102771
102770
102768
102767
102766
102765
102764
102763
102761
102760
102759
102758
102757
102756
102754
102753
102752
102751
102750
102749
102748
102748
102747
102746
102745
102744
102744
102743
102742
102742
102741
102740
102740
102739
102739
102738
102738
102738
102737
102737
102737
102736
102736
102736
102736
102735
102735
102735
102735
102735
102735
102714
102714
102714
102714
102714
102714
102714
102714
102714
102714
102714
102714
102714
102714
102714
102714
102714
102714
102714
102714
102714
102714
102714
102714
102714
102714
102714
102714
102714
102714
102713
102713
102713
102712
102711
102710
102708
102707
102706
102705
102704
102702
102701
102700
102699
102698
102697
102695
102694
102693
102692
102691
102690
102689
102688
102688
102687
102686
102685
102684
102684
102683
102682
102682
102681
102681
102680
102680
102679
102679
102678
102678
102678
102677
102677
102677
102677
102677
102676
102676
102676
102676
102676
102676
102654
102654
102654
102654
102654
102653
102653
102653
102653
102653
102653
102653
102653
102653
102653
102653
102653
102653
102653
102653
102653
102653
102653
102653
102653
102653
102653
102653
102653
102653
102653
102653
102653
102653
102652
102651
102649
102648
102647
102646
102645
102644
102642
102641
102640
102639
102638
102636
102635
102634
102633
102632
102631
102630
102629
102628
102628
102627
102626
102625
102625
102624
102623
102623
102622
102622
102621
102621
102620
102620
102619
102619
102619
102618
102618
102618
102618
102617
102617
102617
102617
102617
102617
102617
102593
102593
102593
102593
102593
102593
102593
102593
102593
102593
102593
102593
102593
102593
102593
102593
102593
102593
102593
102593
102593
102593
102593
102593
102593
102593
102593
102593
102593
102593
102593
102593
102593
102593
102592
102592
102591
102589
102588
102587
102586
102585
102583
102582
102581
102580
102578
102577
102576
102575
102574
102573
102572
102571
102570
102569
102568
102568
102567
102566
102565
102565
102564
102564
102563
102562
102562
102561
102561
102561
102560
102560
102560
102559
102559
102559
102559
102558
102558
102558
102558
102558
102558
102558
102533
102533
102533
102533
102533
102533
102533
102533
102532
102532
102532
102532
102532
102532
102532
102532
102532
102532
102532
102532
102532
102532
102532
102532
102532
102532
102532
102532
102532
102532
102532
102532
102532
102532
102532
102532
102532
102530
102529
102528
102527
102526
102524
102523
102522
102521
102519
102518
102517
102516
102515
102514
102513
102512
102511
102510
102509
102508
102508
102507
102506
102506
102505
102504
102504
102503
102503
102502
102502
102501
102501
102501
102500
102500
102500
102500
102499
102499
102499
102499
102499
102499
102499
102499
102472
102472
102472
102472
102472
102472
102472
102472
102472
102472
102472
102472
102472
102472
102472
102472
102472
102472
102472
102472
102472
102472
102472
102472
102472
102472
102472
102472
102472
102472
102472
102472
102472
102472
102472
102472
102472
102471
102471
102470
102468
102467
102465
102464
102463
102461
102460
102459
102458
102457
102456
102455
102454
102453
102452
102451
102450
102449
102448
102448
102447
102446
102446
102445
102445
102444
102444
102443
102443
102442
102442
102441
102441
102441
102441
102440
102440
102440
102440
102440
102440
102440
102439
102439
102412
102412
102412
102412
102412
102412
102412
102412
102411
102411
102411
102411
102411
102411
102411
102411
102411
102411
102411
102411
102411
102411
102411
102411
102411
102411
102411
102411
102411
102411
102411
102411
102411
102411
102411
102411
102411
102411
102411
102411
102409
102408
102406
102405
102404
102402
102401
102400
102399
102398
102396
102395
102394
102393
102392
102392
102391
102390
102389
102388
102388
102387
102386
102386
102385
102385
102384
102384
102383
102383
102383
102382
102382
102382
102381
102381
102381
102381
102381
102380
102380
102380
102380
102380
102351
102351
102351
102351
102351
102351
102351
102351
102351
102351
102351
102351
102351
102351
102351
102351
102351
102351
102351
102351
102351
102351
102351
102351
102351
102351
102351
102351
102351
102351
102351
102351
102351
102351
102351
102351
102351
102351
102351
102351
102350
102349
102347
102346
102345
102343
102342
102341
102339
102338
102337
102336
102335
102334
102333
102332
102331
102331
102330
102329
102328
102328
102327
102327
102326
102325
102325
102325
102324
102324
102323
102323
102323
102322
102322
102322
102322
102322
102321
102321
102321
102321
102321
102321
102291
102291
102291
102291
102291
102291
102291
102291
102290
102290
102290
102290
102290
102290
102290
102290
102290
102290
102290
102290
102290
102290
102290
102290
102290
102290
102290
102290
102290
102290
102290
102290
102290
102290
102290
102290
102291
102291
102291
102291
102290
102290
102288
102287
102285
102284
102283
102281
102280
102279
102278
102277
102276
102275
102274
102273
102272
102271
102271
102270
102269
102268
102268
102267
102267
102266
102266
102265
102265
102264
102264
102264
102263
102263
102263
102263
102262
102262
102262
102262
102262
102262
102262
102262
102230
102230
102230
102230
102230
102230
102230
102230
102230
102230
102230
102230
102230
102230
102230
102230
102230
102230
102230
102230
102230
102230
102230
102230
102230
102230
102230
102230
102230
102230
102230
102230
102230
102230
102230
102230
102230
102230
102230
102230
102230
102230
102229
102228
102226
102225
102223
102222
102221
102220
102218
102217
102216
102215
102214
102214
102213
102212
102211
102210
102210
102209
102208
102208
102207
102207
102206
102206
102206
102205
102205
102204
102204
102204
102204
102203
102203
102203
102203
102203
102203
102203
102203
102203
102170
102170
102170
102170
102170
102170
102170
102170
102169
102169
102169
102169
102169
102169
102169
102169
102169
102169
102169
102169
102169
102169
102169
102169
102169
102169
102169
102169
102169
102169
102169
102169
102169
102169
102169
102169
102170
102170
102170
102170
102170
102170
102169
102168
102167
102165
102164
102163
102161
102160
102159
102158
102157
102156
102155
102154
102153
102153
102152
102151
102150
102150
102149
102149
102148
102148
102147
102147
102146
102146
102145
102145
102145
102145
102144
102144
102144
102144
102144
102143
102143
102143
102143
102143
102110
102110
102109
102109
102109
102109
102109
102109
102109
102109
102109
102109
102109
102109
102109
102109
102109
102109
102109
102109
102109
102109
102109
102109
102109
102109
102109
102109
102109
102109
102109
102109
102109
102109
102109
102109
102109
102109
102109
102109
102109
102109
102109
102109
102108
102106
102105
102103
102102
102101
102100
102099
102097
102096
102096
102095
102094
102093
102092
102092
102091
102090
102090
102089
102089
102088
102088
102087
102087
102086
102086
102086
102085
102085
102085
102085
102085
102084
102084
102084
102084
102084
102084
102084
102049
102049
102049
102049
102049
102049
102049
102049
102049
102049
102049
102049
102049
102049
102049
102049
102049
102049
102048
102048
102048
102048
102048
102048
102048
102048
102048
102048
102048
102048
102048
102048
102048
102048
102048
102049
102049
102049
102049
102049
102049
102049
102049
102049
102048
102047
102045
102044
102042
102041
102040
102039
102038
102037
102036
102035
102034
102034
102033
102032
102031
102031
102030
102030
102029
102029
102028
102028
102027
102027
102027
102026
102026
102026
102026
102025
102025
102025
102025
102025
102025
102025
102025
102025
101989
101988
101988
101988
101988
101988
101988
101988
101988
101988
101988
101988
101988
101988
101988
101988
101988
101988
101988
101988
101988
101988
101988
101988
101988
101988
101988
101988
101988
101988
101988
101988
101988
101988
101988
101988
101988
101988
101988
101988
101988
101988
101989
101989
101989
101987
101986
101984
101983
101982
101981
101979
101978
101977
101977
101976
101975
101974
101973
101973
101972
101971
101971
101970
101970
101969
101969
101968
101968
101968
101967
101967
101967
101966
101966
101966
101966
101966
101966
101965
101965
101965
101965
101965
101928
101928
101928
101928
101928
101928
101928
101928
101928
101928
101928
101928
101928
101928
101928
101928
101928
101928
101928
101928
101928
101928
101928
101928
101928
101928
101928
101928
101928
101927
101927
101927
101927
101928
101928
101928
101928
101928
101928
101928
101928
101928
101928
101928
101928
101928
101926
101925
101923
101922
101921
101920
101919
101918
101917
101916
101915
101915
101914
101913
101912
101912
101911
101911
101910
101910
101909
101909
101909
101908
101908
101908
101907
101907
101907
101907
101906
101906
101906
101906
101906
101906
101906
101906
101868
101867
101867
101867
101867
101867
101867
101867
101867
101867
101867
101867
101867
101867
101867
101867
101867
101867
101867
101867
101867
101867
101867
101867
101867
101867
101867
101867
101867
101867
101867
101867
101867
101867
101867
101867
101867
101867
101867
101867
101867
101868
101868
101868
101868
101868
101866
101865
101864
101862
101861
101860
101859
101858
101857
101856
101856
101855
101854
101854
101853
101852
101852
101851
101851
101850
101850
101849
101849
101849
101848
101848
101848
101848
101847
101847
101847
101847
101847
101847
101847
101847
101846
101846
101807
101807
101807
101807
101807
101807
101807
101807
101807
101807
101807
101807
101807
101807
101807
101807
101807
101807
101807
101807
101807
101807
101807
101807
101807
101807
101807
101807
101807
101807
101807
101807
101807
101807
101807
101807
101807
101807
101807
101807
101807
101807
101807
101807
101807
101807
101806
101805
101804
101803
101801
101800
101799
101799
101798
101797
101796
101795
101795
101794
101793
101793
101792
101792
101791
101791
101790
101790
101790
101789
101789
101789
101788
101788
101788
101788
101788
101787
101787
101787
101787
101787
101787
101787
101747
101747
101746
101746
101746
101746
101746
101746
101746
101746
101746
101746
101746
101746
101746
101746
101746
101746
101746
101746
101746
101746
101746
101746
101746
101746
101746
101746
101746
101746
101746
101746
101746
101746
101746
101746
101746
101746
101746
101746
101747
101747
101747
101747
101747
101746
101746
101745
101744
101743
101742
101741
101740
101739
101738
101737
101736
101736
101735
101734
101734
101733
101733
101732
101732
101731
101731
101730
101730
101730
101730
101729
101729
101729
101729
101728
101728
101728
101728
101728
101728
101728
101728
101728
101686
101686
101686
101686
101686
101686
101686
101686
101686
101686
101686
101686
101686
101686
101686
101686
101686
101686
101686
101686
101686
101686
101686
101686
101686
101686
101686
101686
101686
101686
101686
101686
101686
101686
101686
101686
101686
101686
101686
101686
101686
101686
101686
101686
101686
101686
101686
101685
101684
101683
101682
101681
101680
101679
101678
101677
101677
101676
101675
101675
101674
101674
101673
101673
101672
101672
101671
101671
101671
101670
101670
101670
101669
101669
101669
101669
101669
101669
101668
101668
101668
101668
101668
101668
101626
101626
101626
101626
101626
101626
101626
101626
101626
101626
101626
101626
101625
101625
101625
101625
101625
101625
101625
101625
101625
101625
101625
101625
101625
101625
101625
101625
101625
101625
101625
101625
101625
101625
101625
101625
101625
101625
101626
101626
101626
101626
101626
101626
101626
101626
101626
101625
101624
101623
101622
101621
101620
101619
101618
101618
101617
101616
101616
101615
101614
101614
101613
101613
101613
101612
101612
101611
101611
101611
101610
101610
101610
101610
101610
101609
101609
101609
101609
101609
101609
101609
101609
101609
101565
101565
101565
101565
101565
101565
101565
101565
101565
101565
101565
101565
101565
101565
101565
101565
101565
101565
101565
101565
101565
101565
101565
101565
101565
101565
101565
101565
101565
101565
101565
101565
101565
101565
101565
101565
101565
101565
101565
101565
101565
101565
101565
101565
101565
101565
101565
101565
101564
101563
101562
101561
101560
101559
101559
101558
101557
101557
101556
101555
101555
101554
101554
101553
101553
101553
101552
101552
101551
101551
101551
101551
101550
101550
101550
101550
101550
101550
101549
101549
101549
101549
101549
101549
101505
101505
101505
101505
101505
101505
101505
101505
101505
101505
101505
101505
101505
101505
101505
101505
101505
101505
101505
101505
101505
101505
101505
101505
101505
101505
101505
101505
101505
101505
101505
101505
101505
101505
101505
101505
101505
101505
101505
101505
101505
101505
101505
101505
101505
101505
101505
101505
101504
101503
101502
101501
101500
101500
101499
101498
101497
101497
101496
101496
101495
101495
101494
101494
101493
101493
101493
101492
101492
101492
101491
101491
101491
101491
101490
101490
101490
101490
101490
101490
101490
101490
101490
101490
101444
101444
101444
101444
101444
101444
101444
101444
101444
101444
101444
101444
101444
101444
101444
101444
101444
101444
101444
101444
101444
101444
101444
101444
101444
101444
101444
101444
101444
101444
101444
101444
101444
101444
101444
101444
101444
101444
101444
101444
101444
101444
101444
101444
101445
101445
101445
101445
101444
101443
101442
101441
101440
101440
101439
101438
101438
101437
101436
101436
101435
101435
101434
101434
101434
101433
101433
101433
101432
101432
101432
101432
101431
101431
101431
101431
101431
101431
101430
101430
101430
101430
101430
101430
101384
101384
101384
101384
101384
101384
101384
101384
101384
101384
101384
101384
101384
101384
101384
101384
101384
101384
101384
101384
101384
101384
101384
101384
101384
101384
101384
101384
101384
101384
101384
101384
101384
101384
101384
101384
101384
101384
101384
101384
101384
101384
101384
101384
101384
101384
101384
101384
101384
101383
101382
101381
101380
101380
101379
101378
101378
101377
101377
101376
101376
101375
101375
101374
101374
101374
101373
101373
101373
101372
101372
101372
101372
101372
101371
101371
101371
101371
101371
101371
101371
101371
101371
101371
101323
101323
101323
101323
101323
101323
101323
101323
101323
101323
101323
101323
101323
101323
101323
101323
101323
101323
101323
101323
101323
101323
101323
101323
101323
101323
101323
101323
101323
101323
101323
101323
101323
101323
101323
101323
101323
101323
101323
101323
101323
101324
101324
101324
101324
101324
101324
101324
101324
101323
101322
101321
101320
101320
101319
101318
101318
101317
101317
101316
101316
101315
101315
101315
101314
101314
101314
101313
101313
101313
101312
101312
101312
101312
101312
101312
101312
101311
101311
101311
101311
101311
101311
101311
101263
101263
101263
101263
101263
101263
101263
101263
101263
101263
101263
101263
101263
101263
101263
101263
101263
101263
101263
101263
101263
101263
101263
101263
101263
101263
101263
101263
101263
101263
101263
101263
101263
101263
101263
101263
101263
101263
101263
101263
101263
101263
101263
101263
101263
101263
101264
101264
101264
101263
101262
101261
101260
101260
101259
101258
101258
101257
101257
101256
101256
101256
101255
101255
101254
101254
101254
101254
101253
101253
101253
101253
101252
101252
101252
101252
101252
101252
101252
101252
101252
101252
101252
101252
101203
101203
101203
101203
101203
101203
101203
101203
101203
101203
101203
101203
101203
101203
101203
101203
101203
101203
101203
101203
101203
101203
101203
101203
101203
101203
101203
101203
101203
101203
101203
101203
101203
101203
101203
101203
101203
101203
101203
101203
101203
101203
101203
101203
101203
101203
101203
101203
101203
101203
101202
101201
101200
101200
101199
101199
101198
101197
101197
101197
101196
101196
101195
101195
101195
101194
101194
101194
101194
101193
101193
101193
101193
101193
101193
101192
101192
101192
101192
101192
101192
101192
101192
101192
101142
101142
101142
101142
101142
101142
101142
101142
101142
101142
101142
101142
101142
101142
101142
101142
101142
101142
101142
101142
101142
101142
101142
101142
101142
101142
101142
101142
101142
101142
101142
101142
101142
101142
101142
101142
101142
101142
101142
101142
101142
101142
101142
101142
101143
101143
101143
101143
101143
101143
101142
101141
101140
101140
101139
101139
101138
101138
101137
101137
101136
101136
101136
101135
101135
101135
101134
101134
101134
101134
101133
101133
101133
101133
101133
101133
101133
101133
101133
101133
101133
101133
101133
101132
101082
101082
101082
101082
101082
101082
101082
101082
101082
101082
101082
101082
101082
101082
101082
101082
101082
101082
101082
101082
101082
101082
101082
101082
101082
101082
101082
101082
101082
101082
101082
101082
101082
101082
101082
101082
101082
101082
101082
101082
101082
101082
101082
101082
101082
101082
101082
101082
101082
101082
101082
101081
101080
101080
101079
101079
101078
101078
101077
101077
101076
101076
101076
101075
101075
101075
101075
101074
101074
101074
101074
101074
101074
101073
101073
101073
101073
101073
101073
101073
101073
101073
101073
101073
101021
101021
101021
101021
101021
101021
101021
101021
101021
101021
101021
101021
101021
101021
101021
101021
101021
101021
101021
101021
101021
101021
101021
101021
101021
101021
101021
101021
101021
101021
101021
101021
101021
101021
101021
101021
101021
101021
101021
101021
101021
101022
101022
101022
101022
101022
101022
101022
101022
101022
101021
101021
101020
101020
101019
101019
101018
101018
101017
101017
101016
101016
101016
101016
101015
101015
101015
101015
101014
101014
101014
101014
101014
101014
101014
101014
101013
101013
101013
101013
101013
101013
101013
101013
100961
100961
100961
100961
100961
100961
100961
100961
100961
100961
100961
100961
100961
100961
100961
100961
100961
100961
100961
100961
100961
100961
100961
100961
100961
100961
100961
100961
100961
100961
100961
100961
100961
100961
100961
100961
100961
100961
100961
100961
100961
100961
100961
100961
100961
100961
100961
100961
100961
100961
100961
100960
100960
100959
100959
100958
100958
100958
100957
100957
100957
100956
100956
100956
100955
100955
100955
100955
100955
100955
100954
100954
100954
100954
100954
100954
100954
100954
100954
100954
100954
100954
100954
100954
100901
100901
100900
100900
100900
100900
100900
100900
100900
100900
100900
100900
100900
100900
100900
100900
100900
100900
100900
100900
100900
100900
100900
100900
100900
100901
100901
100901
100901
100901
100901
100901
100901
100901
100901
100901
100901
100901
100901
100901
100901
100901
100901
100901
100901
100901
100901
100901
100901
100901
100901
100900
100900
100899
100899
100898
100898
100898
100897
100897
100897
100896
100896
100896
100896
100895
100895
100895
100895
100895
100895
100895
100894
100894
100894
100894
100894
100894
100894
100894
100894
100894
100894
100894
100840
100840
100840
100840
100840
100840
100840
100840
100840
100840
100840
100840
100840
100840
100840
100840
100840
100840
100840
100840
100840
100840
100840
100840
100840
100840
100840
100840
100840
100840
100840
100840
100840
100840
100840
100840
100840
100840
100840
100840
100840
100840
100841
100841
100841
100841
100841
100841
100841
100841
100840
100840
100840
100839
100839
100838
100838
100838
100837
100837
100837
100836
100836
100836
100836
100836
100835
100835
100835
100835
100835