/*--------------------------------*- C++ -*----------------------------------*\
  =========                 |
  \\      /  F ield         | OpenFOAM: The Open Source CFD Toolbox
   \\    /   O peration     | Website:  https://openfoam.org
    \\  /    A nd           | Version:  6
     \\/     M anipulation  |
\*---------------------------------------------------------------------------*/
FoamFile
{
    version     2.0;
    format      ascii;
    class       volScalarField;
    location    "870";
    object      T;
}
// * * * * * * * * * * * * * * * * * * * * * * * * * * * * * * * * * * * * * //

dimensions      [0 0 0 1 0 0 0];

internalField   nonuniform List<scalar> 
5964
(
310.486
309.506
308.687
308.064
307.599
307.248
306.969
306.732
306.517
306.31
306.101
305.89
305.677
305.462
305.249
305.041
304.842
304.655
304.48
304.316
304.161
304.021
303.898
303.795
303.712
303.647
303.595
303.553
303.52
303.492
303.469
303.451
303.434
303.421
303.409
303.398
303.389
303.38
303.372
303.365
303.358
303.351
303.345
303.339
303.333
303.327
303.321
303.315
303.309
303.303
303.297
303.29
303.283
303.276
303.268
303.261
303.253
303.244
303.235
303.226
303.216
303.207
303.196
303.186
303.175
303.163
303.152
303.139
303.127
303.115
303.102
303.088
303.075
303.061
303.047
303.033
303.019
303.005
302.99
302.975
302.962
302.949
302.939
302.934
310.477
309.52
308.734
308.126
307.669
307.32
307.046
306.814
306.603
306.399
306.188
305.977
305.759
305.536
305.311
305.09
304.876
304.673
304.482
304.306
304.145
304.002
303.879
303.778
303.698
303.636
303.586
303.546
303.514
303.488
303.466
303.448
303.432
303.419
303.407
303.396
303.387
303.379
303.371
303.364
303.357
303.351
303.344
303.338
303.333
303.327
303.321
303.315
303.309
303.303
303.297
303.29
303.283
303.276
303.269
303.261
303.253
303.244
303.236
303.226
303.217
303.207
303.197
303.186
303.175
303.164
303.152
303.14
303.127
303.115
303.102
303.089
303.075
303.062
303.048
303.033
303.019
303.005
302.99
302.976
302.962
302.949
302.939
302.934
310.502
309.585
308.825
308.231
307.782
307.442
307.178
306.953
306.748
306.55
306.338
306.128
305.901
305.663
305.418
305.174
304.934
304.703
304.486
304.287
304.112
303.962
303.839
303.743
303.67
303.614
303.569
303.533
303.504
303.479
303.459
303.442
303.427
303.414
303.403
303.393
303.384
303.376
303.369
303.362
303.355
303.349
303.343
303.337
303.332
303.326
303.32
303.314
303.309
303.303
303.296
303.29
303.283
303.276
303.269
303.261
303.253
303.245
303.236
303.227
303.217
303.208
303.197
303.187
303.176
303.164
303.152
303.14
303.128
303.115
303.102
303.089
303.076
303.062
303.048
303.034
303.02
303.005
302.99
302.976
302.962
302.949
302.939
302.933
310.532
309.66
308.927
308.351
307.919
307.596
307.346
307.132
306.936
306.742
306.53
306.313
306.072
305.815
305.546
305.272
305.001
304.738
304.486
304.255
304.056
303.893
303.774
303.69
303.629
303.582
303.544
303.514
303.489
303.467
303.449
303.434
303.42
303.408
303.398
303.389
303.38
303.372
303.365
303.359
303.352
303.346
303.341
303.335
303.33
303.325
303.319
303.314
303.308
303.302
303.296
303.29
303.284
303.277
303.27
303.262
303.254
303.246
303.237
303.228
303.219
303.209
303.198
303.188
303.177
303.165
303.153
303.141
303.129
303.116
303.103
303.09
303.076
303.063
303.049
303.034
303.02
303.005
302.991
302.976
302.962
302.949
302.939
302.933
310.561
309.738
309.043
308.496
308.087
307.783
307.549
307.347
307.158
306.962
306.746
306.512
306.252
305.971
305.674
305.37
305.065
304.766
304.476
304.206
303.97
303.78
303.678
303.618
303.576
303.542
303.514
303.491
303.47
303.452
303.437
303.423
303.411
303.401
303.391
303.382
303.374
303.367
303.361
303.354
303.349
303.343
303.338
303.333
303.328
303.323
303.318
303.313
303.308
303.302
303.296
303.29
303.284
303.277
303.27
303.263
303.255
303.247
303.238
303.229
303.22
303.21
303.2
303.189
303.178
303.167
303.155
303.143
303.13
303.117
303.104
303.091
303.077
303.063
303.049
303.035
303.021
303.006
302.991
302.977
302.962
302.949
302.939
302.933
310.594
309.829
309.176
308.661
308.279
307.994
307.773
307.58
307.394
307.193
306.969
306.715
306.429
306.12
305.793
305.457
305.117
304.781
304.455
304.141
303.846
303.585
303.545
303.531
303.516
303.499
303.481
303.465
303.449
303.435
303.423
303.411
303.401
303.392
303.383
303.375
303.368
303.361
303.355
303.349
303.344
303.339
303.334
303.33
303.325
303.321
303.316
303.312
303.307
303.302
303.296
303.291
303.285
303.278
303.272
303.264
303.257
303.249
303.24
303.231
303.222
303.212
303.201
303.191
303.18
303.168
303.156
303.144
303.132
303.119
303.106
303.092
303.078
303.065
303.05
303.036
303.021
303.007
302.992
302.977
302.963
302.95
302.939
302.933
310.625
309.918
309.314
308.837
308.481
308.212
307.998
307.805
307.616
307.402
307.16
306.886
306.581
306.249
305.897
305.535
305.168
304.803
304.446
304.09
303.699
303.188
303.389
303.448
303.461
303.457
303.449
303.438
303.428
303.417
303.407
303.398
303.389
303.381
303.374
303.366
303.36
303.354
303.348
303.343
303.338
303.334
303.33
303.326
303.322
303.318
303.314
303.31
303.306
303.301
303.296
303.291
303.286
303.279
303.273
303.266
303.258
303.251
303.242
303.233
303.224
303.214
303.204
303.193
303.182
303.17
303.158
303.146
303.133
303.12
303.107
303.094
303.08
303.066
303.052
303.037
303.022
303.008
302.993
302.978
302.963
302.95
302.939
302.933
310.658
310.007
309.448
309.009
308.677
308.419
308.204
308.002
307.792
307.553
307.291
307.002
306.685
306.342
305.975
305.594
305.209
304.83
304.461
304.094
303.707
303.232
303.363
303.408
303.421
303.421
303.418
303.412
303.406
303.399
303.392
303.384
303.377
303.37
303.363
303.357
303.351
303.346
303.341
303.336
303.332
303.328
303.325
303.322
303.318
303.315
303.312
303.309
303.305
303.301
303.297
303.292
303.287
303.281
303.275
303.268
303.261
303.253
303.244
303.236
303.226
303.216
303.206
303.195
303.184
303.173
303.161
303.148
303.136
303.122
303.109
303.095
303.081
303.067
303.053
303.038
303.023
303.009
302.994
302.978
302.964
302.95
302.939
302.932
310.686
310.093
309.584
309.177
308.864
308.61
308.383
308.157
307.914
307.649
307.365
307.062
306.737
306.388
306.016
305.633
305.249
304.871
304.503
304.149
303.807
303.49
303.419
303.398
303.393
303.391
303.389
303.387
303.384
303.38
303.376
303.37
303.365
303.359
303.352
303.347
303.341
303.336
303.332
303.328
303.325
303.322
303.319
303.317
303.314
303.312
303.309
303.307
303.304
303.301
303.297
303.293
303.288
303.283
303.277
303.27
303.263
303.255
303.247
303.239
303.229
303.219
303.209
303.198
303.187
303.175
303.163
303.151
303.138
303.125
303.111
303.097
303.083
303.069
303.054
303.04
303.025
303.01
302.994
302.979
302.964
302.95
302.938
302.931
310.716
310.178
309.714
309.335
309.031
308.764
308.509
308.246
307.968
307.674
307.37
307.056
306.729
306.382
306.018
305.649
305.281
304.917
304.564
304.225
303.905
303.621
303.43
303.377
303.363
303.36
303.361
303.363
303.363
303.363
303.36
303.357
303.352
303.347
303.341
303.336
303.331
303.326
303.322
303.319
303.316
303.314
303.312
303.311
303.31
303.308
303.307
303.305
303.303
303.3
303.297
303.294
303.289
303.284
303.279
303.273
303.266
303.259
303.251
303.242
303.233
303.223
303.213
303.202
303.19
303.179
303.166
303.154
303.141
303.127
303.114
303.1
303.085
303.071
303.056
303.041
303.026
303.011
302.995
302.98
302.965
302.95
302.938
302.931
310.746
310.26
309.833
309.47
309.162
308.869
308.573
308.267
307.947
307.621
307.296
306.977
306.656
306.326
305.984
305.639
305.295
304.955
304.623
304.3
303.985
303.673
303.318
303.325
303.323
303.327
303.333
303.339
303.343
303.346
303.346
303.343
303.339
303.334
303.329
303.324
303.319
303.315
303.312
303.309
303.307
303.306
303.305
303.305
303.304
303.304
303.303
303.303
303.302
303.3
303.298
303.295
303.291
303.287
303.282
303.276
303.27
303.262
303.254
303.246
303.237
303.227
303.216
303.205
303.194
303.182
303.17
303.157
303.144
303.13
303.116
303.102
303.088
303.073
303.058
303.043
303.028
303.012
302.996
302.981
302.965
302.951
302.938
302.924
310.771
310.33
309.928
309.571
309.243
308.911
308.566
308.208
307.846
307.493
307.154
306.833
306.526
306.221
305.911
305.599
305.287
304.977
304.669
304.365
304.061
303.753
303.439
303.281
303.28
303.291
303.302
303.314
303.324
303.33
303.332
303.331
303.327
303.322
303.316
303.311
303.306
303.302
303.3
303.298
303.297
303.296
303.297
303.297
303.298
303.299
303.3
303.301
303.3
303.3
303.298
303.296
303.293
303.29
303.285
303.28
303.273
303.266
303.259
303.25
303.241
303.231
303.221
303.21
303.198
303.186
303.174
303.161
303.147
303.134
303.119
303.105
303.09
303.075
303.06
303.045
303.029
303.013
302.998
302.982
302.966
302.952
302.934
302.793
310.79
310.382
309.995
309.632
309.271
308.891
308.491
308.081
307.682
307.309
306.967
306.654
306.367
306.092
305.817
305.54
305.261
304.983
304.705
304.427
304.142
303.842
303.513
303.098
303.226
303.253
303.27
303.288
303.304
303.315
303.32
303.32
303.316
303.31
303.303
303.297
303.293
303.289
303.287
303.285
303.285
303.286
303.287
303.289
303.292
303.294
303.296
303.298
303.299
303.3
303.299
303.298
303.296
303.293
303.289
303.284
303.278
303.271
303.264
303.255
303.246
303.236
303.226
303.214
303.203
303.191
303.178
303.165
303.151
303.137
303.123
303.108
303.093
303.078
303.063
303.047
303.031
303.015
302.999
302.983
302.967
302.953
302.941
302.927
310.802
310.411
310.026
309.639
309.237
308.806
308.351
307.896
307.469
307.089
306.757
306.464
306.202
305.954
305.71
305.466
305.221
304.975
304.729
304.48
304.222
303.947
303.655
303.359
303.26
303.223
303.232
303.26
303.285
303.302
303.31
303.311
303.306
303.298
303.29
303.283
303.277
303.274
303.272
303.271
303.272
303.274
303.277
303.281
303.284
303.288
303.292
303.296
303.298
303.3
303.301
303.301
303.299
303.297
303.293
303.289
303.283
303.277
303.269
303.261
303.252
303.242
303.231
303.22
303.208
303.195
303.183
303.169
303.155
303.141
303.127
303.112
303.096
303.081
303.065
303.049
303.033
303.017
303
302.984
302.967
302.953
302.941
302.934
310.807
310.417
310.017
309.595
309.142
308.659
308.162
307.681
307.245
306.867
306.547
306.274
306.034
305.811
305.595
305.38
305.165
304.95
304.736
304.518
304.288
304.042
303.777
303.497
303.237
303.149
303.174
303.227
303.269
303.292
303.304
303.304
303.296
303.285
303.274
303.266
303.261
303.257
303.256
303.256
303.258
303.261
303.265
303.271
303.276
303.282
303.288
303.293
303.297
303.3
303.302
303.303
303.303
303.301
303.298
303.294
303.289
303.283
303.275
303.267
303.258
303.248
303.237
303.226
303.213
303.201
303.188
303.174
303.16
303.145
303.131
303.115
303.1
303.084
303.068
303.052
303.035
303.018
303.002
302.985
302.968
302.953
302.941
302.935
310.799
310.387
309.957
309.488
308.98
308.448
307.92
307.428
306.999
306.638
306.337
306.085
305.867
305.667
305.475
305.287
305.1
304.914
304.729
304.54
304.341
304.125
303.889
303.63
303.343
302.971
303.084
303.196
303.261
303.288
303.302
303.302
303.289
303.27
303.256
303.247
303.242
303.239
303.238
303.239
303.242
303.246
303.252
303.259
303.267
303.275
303.283
303.29
303.296
303.301
303.305
303.307
303.307
303.306
303.304
303.3
303.295
303.289
303.282
303.274
303.264
303.254
303.243
303.232
303.22
303.207
303.193
303.179
303.165
303.15
303.135
303.119
303.104
303.087
303.071
303.054
303.038
303.02
303.003
302.986
302.969
302.954
302.942
302.935
310.777
310.322
309.839
309.314
308.75
308.179
307.633
307.147
306.737
306.4
306.125
305.895
305.699
305.521
305.352
305.187
305.024
304.865
304.707
304.547
304.378
304.196
303.997
303.78
303.543
303.261
302.993
303.199
303.277
303.288
303.309
303.308
303.284
303.251
303.232
303.225
303.222
303.22
303.22
303.221
303.224
303.229
303.237
303.247
303.257
303.268
303.278
303.287
303.295
303.302
303.307
303.31
303.312
303.312
303.31
303.307
303.303
303.297
303.29
303.281
303.272
303.262
303.251
303.239
303.226
303.213
303.199
303.185
303.17
303.155
303.14
303.124
303.107
303.091
303.074
303.057
303.04
303.023
303.005
302.987
302.97
302.954
302.942
302.934
310.748
310.23
309.674
309.086
308.468
307.863
307.312
306.839
306.455
306.149
305.902
305.699
305.525
305.369
305.224
305.083
304.946
304.812
304.682
304.551
304.416
304.271
304.116
303.947
303.767
303.563
303.364
303.307
303.346
303.275
303.329
303.333
303.284
303.218
303.199
303.199
303.202
303.202
303.201
303.201
303.204
303.211
303.221
303.233
303.246
303.259
303.272
303.284
303.295
303.303
303.31
303.315
303.318
303.319
303.318
303.315
303.311
303.305
303.298
303.29
303.28
303.27
303.258
303.246
303.233
303.22
303.206
303.191
303.176
303.16
303.145
303.128
303.112
303.095
303.078
303.06
303.043
303.025
303.007
302.989
302.971
302.955
302.94
302.927
310.704
310.1
309.46
308.802
308.143
307.521
306.975
306.522
306.164
305.888
305.675
305.506
305.364
305.237
305.12
305.007
304.9
304.797
304.697
304.598
304.493
304.381
304.262
304.135
304.005
303.86
303.724
303.624
303.499
303.15
303.391
303.401
303.299
303.144
303.147
303.174
303.187
303.188
303.184
303.18
303.182
303.19
303.202
303.217
303.233
303.25
303.266
303.281
303.294
303.305
303.314
303.32
303.325
303.326
303.326
303.324
303.32
303.314
303.307
303.299
303.289
303.278
303.267
303.254
303.241
303.227
303.213
303.198
303.182
303.166
303.15
303.133
303.116
303.099
303.081
303.064
303.046
303.028
303.009
302.991
302.972
302.954
302.931
302.905
310.648
309.938
309.211
308.483
307.788
307.17
306.648
306.233
305.916
305.681
305.505
305.37
305.259
305.163
305.076
304.995
304.919
304.848
304.78
304.71
304.632
304.548
304.46
304.366
304.272
304.165
304.058
303.952
303.83
303.672
303.652
303.563
303.356
302.932
303.075
303.161
303.186
303.183
303.169
303.159
303.158
303.166
303.181
303.199
303.22
303.24
303.26
303.278
303.294
303.308
303.319
303.327
303.332
303.335
303.335
303.334
303.33
303.324
303.317
303.309
303.299
303.288
303.276
303.263
303.249
303.235
303.22
303.205
303.189
303.172
303.156
303.138
303.121
303.103
303.085
303.067
303.049
303.03
303.011
302.992
302.973
302.952
302.92
302.871
310.58
309.73
308.899
308.133
307.44
306.853
306.372
306.007
305.739
305.547
305.41
305.309
305.229
305.162
305.103
305.051
305.004
304.962
304.922
304.878
304.822
304.765
304.705
304.638
304.568
304.487
304.397
304.297
304.19
304.067
303.96
303.819
303.588
303.251
303.053
303.204
303.212
303.191
303.155
303.133
303.129
303.139
303.157
303.18
303.205
303.23
303.254
303.276
303.295
303.311
303.324
303.334
303.341
303.345
303.346
303.345
303.341
303.336
303.328
303.32
303.309
303.298
303.286
303.272
303.258
303.244
303.228
303.212
303.196
303.179
303.162
303.144
303.126
303.108
303.089
303.071
303.052
303.033
303.014
302.994
302.975
302.955
302.932
302.905
310.523
309.558
308.63
307.822
307.136
306.584
306.157
305.846
305.63
305.484
305.385
305.315
305.262
305.22
305.187
305.16
305.136
305.116
305.1
305.076
305.041
305.007
304.971
304.925
304.876
304.815
304.743
304.656
304.56
304.444
304.31
304.157
303.95
303.752
303.575
303.365
303.256
303.211
303.133
303.096
303.091
303.107
303.132
303.161
303.191
303.221
303.249
303.275
303.297
303.316
303.331
303.343
303.351
303.356
303.358
303.357
303.353
303.348
303.34
303.331
303.321
303.309
303.296
303.282
303.268
303.253
303.237
303.22
303.203
303.186
303.168
303.15
303.131
303.113
303.094
303.075
303.055
303.036
303.016
302.996
302.977
302.958
302.94
302.926
310.474
309.415
308.4
307.547
306.876
306.369
306
305.746
305.581
305.477
305.41
305.368
305.34
305.321
305.309
305.3
305.295
305.292
305.291
305.285
305.268
305.252
305.236
305.209
305.179
305.138
305.085
305.015
304.93
304.824
304.693
304.544
304.353
304.179
303.927
303.653
303.204
303.247
303.075
303.034
303.042
303.07
303.105
303.142
303.178
303.213
303.245
303.275
303.301
303.323
303.34
303.353
303.363
303.368
303.371
303.37
303.367
303.361
303.353
303.344
303.333
303.321
303.307
303.293
303.278
303.262
303.246
303.228
303.211
303.193
303.174
303.156
303.137
303.118
303.098
303.079
303.059
303.039
303.019
302.999
302.978
302.958
302.94
302.927
310.401
309.232
308.173
307.306
306.653
306.199
305.896
305.699
305.58
305.509
305.472
305.455
305.447
305.446
305.45
305.455
305.461
305.47
305.48
305.488
305.486
305.485
305.485
305.475
305.465
305.442
305.41
305.361
305.292
305.207
305.093
304.957
304.782
304.598
304.328
304.054
303.726
303.433
302.904
302.936
302.981
303.031
303.08
303.126
303.168
303.207
303.244
303.278
303.307
303.331
303.351
303.366
303.376
303.383
303.385
303.385
303.381
303.375
303.367
303.357
303.346
303.333
303.319
303.304
303.289
303.272
303.255
303.237
303.219
303.2
303.181
303.162
303.143
303.123
303.103
303.083
303.062
303.042
303.021
303.001
302.979
302.957
302.935
302.918
310.289
308.961
307.88
307.082
306.506
306.106
305.85
305.698
305.613
305.573
305.561
305.563
305.571
305.582
305.596
305.611
305.625
305.641
305.656
305.674
305.685
305.696
305.708
305.714
305.721
305.716
305.707
305.68
305.635
305.577
305.49
305.373
305.222
305.037
304.782
304.507
304.183
303.803
303.316
302.841
302.923
302.998
303.063
303.116
303.162
303.206
303.246
303.283
303.316
303.343
303.364
303.381
303.392
303.399
303.402
303.401
303.397
303.391
303.382
303.372
303.36
303.347
303.332
303.316
303.3
303.283
303.265
303.246
303.228
303.208
303.189
303.169
303.149
303.128
303.108
303.087
303.066
303.045
303.024
303.003
302.981
302.957
302.932
302.912
310.276
308.922
307.796
306.965
306.409
306.057
305.847
305.73
305.675
305.661
305.666
305.683
305.703
305.723
305.743
305.763
305.781
305.799
305.818
305.84
305.86
305.879
305.901
305.919
305.94
305.953
305.963
305.962
305.945
305.915
305.862
305.772
305.649
305.478
305.251
304.983
304.659
304.273
303.819
303.351
302.885
302.983
303.063
303.115
303.162
303.208
303.253
303.293
303.329
303.358
303.381
303.398
303.41
303.417
303.42
303.419
303.415
303.408
303.399
303.388
303.375
303.361
303.345
303.329
303.312
303.294
303.275
303.256
303.236
303.216
303.196
303.176
303.155
303.134
303.113
303.091
303.07
303.048
303.027
303.005
302.983
302.961
302.937
302.913
310.265
308.886
307.744
306.916
306.38
306.058
305.877
305.79
305.761
305.764
305.785
305.813
305.84
305.866
305.889
305.911
305.93
305.948
305.966
305.99
306.014
306.037
306.065
306.091
306.123
306.151
306.18
306.2
306.212
306.209
306.191
306.133
306.042
305.9
305.707
305.458
305.147
304.774
304.341
303.877
303.404
302.993
303.091
303.124
303.165
303.215
303.264
303.309
303.347
303.378
303.402
303.419
303.431
303.438
303.44
303.439
303.434
303.426
303.416
303.404
303.391
303.375
303.359
303.342
303.324
303.305
303.286
303.266
303.246
303.225
303.204
303.183
303.161
303.14
303.118
303.096
303.074
303.052
303.029
303.007
302.986
302.964
302.938
302.79
310.216
308.793
307.682
306.899
306.391
306.091
305.937
305.874
305.864
305.882
305.915
305.95
305.982
306.01
306.035
306.056
306.075
306.092
306.109
306.129
306.153
306.176
306.205
306.236
306.274
306.313
306.356
306.394
306.432
306.454
306.465
306.442
306.387
306.282
306.124
305.904
305.618
305.267
304.853
304.394
303.917
303.462
303.18
303.127
303.165
303.225
303.282
303.331
303.371
303.403
303.427
303.444
303.455
303.461
303.463
303.46
303.454
303.446
303.435
303.422
303.407
303.391
303.374
303.356
303.337
303.317
303.297
303.276
303.255
303.234
303.212
303.19
303.168
303.145
303.123
303.1
303.078
303.055
303.032
303.01
302.987
302.966
302.944
302.92
310.222
308.805
307.7
306.929
306.438
306.158
306.023
305.978
305.984
306.014
306.054
306.094
306.129
306.158
306.181
306.201
306.217
306.232
306.246
306.264
306.284
306.306
306.332
306.363
306.402
306.446
306.498
306.55
306.604
306.65
306.685
306.695
306.676
306.61
306.492
306.309
306.059
305.736
305.343
304.886
304.369
303.771
303.06
303.051
303.151
303.239
303.309
303.363
303.404
303.435
303.458
303.474
303.483
303.487
303.487
303.483
303.476
303.466
303.454
303.44
303.424
303.407
303.389
303.37
303.35
303.329
303.308
303.287
303.265
303.243
303.22
303.197
303.175
303.151
303.128
303.105
303.082
303.058
303.035
303.011
302.988
302.963
302.933
302.902
310.257
308.879
307.773
306.994
306.513
306.252
306.132
306.1
306.119
306.158
306.204
306.247
306.283
306.31
306.331
306.347
306.36
306.371
306.382
306.395
306.41
306.429
306.452
306.48
306.517
306.561
306.615
306.674
306.739
306.802
306.859
306.896
306.909
306.883
306.807
306.667
306.461
306.177
305.819
305.381
304.855
304.246
303.603
302.891
303.153
303.274
303.353
303.407
303.447
303.475
303.495
303.507
303.514
303.516
303.514
303.509
303.5
303.488
303.475
303.459
303.442
303.424
303.405
303.385
303.364
303.342
303.32
303.298
303.275
303.252
303.229
303.205
303.181
303.158
303.134
303.11
303.086
303.062
303.038
303.013
302.988
302.958
302.914
302.86
310.256
308.901
307.833
307.083
306.622
306.372
306.262
306.24
306.266
306.312
306.362
306.407
306.443
306.468
306.486
306.498
306.507
306.513
306.519
306.527
306.536
306.55
306.568
306.593
306.626
306.667
306.718
306.779
306.848
306.921
306.994
307.055
307.095
307.104
307.069
306.975
306.816
306.58
306.265
305.862
305.365
304.79
304.174
303.565
303.292
303.352
303.421
303.468
303.501
303.523
303.537
303.546
303.549
303.548
303.544
303.536
303.525
303.512
303.497
303.48
303.461
303.442
303.421
303.4
303.378
303.355
303.332
303.309
303.285
303.261
303.237
303.213
303.188
303.164
303.139
303.115
303.09
303.065
303.04
303.015
302.989
302.958
302.913
302.858
310.281
308.964
307.916
307.189
306.746
306.507
306.408
306.394
306.424
306.474
306.527
306.572
306.607
306.63
306.644
306.652
306.656
306.657
306.659
306.661
306.665
306.673
306.686
306.705
306.732
306.769
306.816
306.874
306.942
307.019
307.101
307.179
307.243
307.279
307.282
307.233
307.121
306.935
306.665
306.303
305.847
305.308
304.695
304.007
303.138
303.429
303.512
303.546
303.566
303.578
303.586
303.589
303.588
303.583
303.575
303.565
303.552
303.536
303.519
303.501
303.481
303.46
303.438
303.415
303.392
303.369
303.344
303.32
303.296
303.271
303.246
303.221
303.196
303.17
303.145
303.12
303.094
303.069
303.043
303.018
302.992
302.963
302.929
302.895
310.321
309.056
308.036
307.324
306.891
306.662
306.569
306.558
306.59
306.641
306.694
306.74
306.772
306.791
306.802
306.806
306.806
306.803
306.8
306.797
306.796
306.799
306.806
306.82
306.841
306.871
306.912
306.965
307.029
307.105
307.19
307.279
307.36
307.422
307.453
307.443
307.374
307.233
307.005
306.684
306.265
305.756
305.168
304.523
303.891
303.703
303.65
303.639
303.639
303.64
303.639
303.635
303.629
303.62
303.609
303.595
303.579
303.562
303.543
303.522
303.501
303.478
303.455
303.431
303.407
303.382
303.357
303.332
303.306
303.28
303.255
303.229
303.203
303.177
303.151
303.125
303.098
303.072
303.047
303.02
302.994
302.967
302.941
302.92
310.358
309.152
308.172
307.483
307.057
306.831
306.736
306.725
306.759
306.81
306.863
306.907
306.935
306.952
306.959
306.959
306.956
306.949
306.942
306.935
306.93
306.928
306.93
306.937
306.952
306.976
307.011
307.057
307.116
307.188
307.271
307.363
307.455
307.536
307.593
307.613
307.582
307.481
307.295
307.016
306.637
306.159
305.592
304.955
304.318
303.849
303.754
303.727
303.714
303.704
303.695
303.685
303.673
303.66
303.644
303.627
303.608
303.588
303.567
303.545
303.521
303.497
303.472
303.447
303.422
303.396
303.37
303.343
303.317
303.29
303.263
303.237
303.21
303.183
303.156
303.129
303.103
303.076
303.05
303.023
302.996
302.97
302.945
302.925
310.391
309.249
308.312
307.644
307.225
306.999
306.904
306.893
306.925
306.976
307.029
307.07
307.095
307.109
307.113
307.11
307.104
307.094
307.084
307.074
307.065
307.059
307.056
307.059
307.068
307.086
307.114
307.153
307.206
307.272
307.352
307.443
307.54
307.632
307.709
307.753
307.754
307.689
307.544
307.307
306.963
306.504
305.941
305.288
304.564
303.668
303.807
303.807
303.788
303.77
303.753
303.736
303.719
303.7
303.681
303.66
303.638
303.616
303.592
303.567
303.542
303.516
303.49
303.463
303.437
303.409
303.382
303.355
303.327
303.3
303.272
303.245
303.217
303.189
303.162
303.134
303.107
303.08
303.053
303.025
302.998
302.97
302.939
302.903
310.42
309.331
308.433
307.786
307.38
307.162
307.071
307.058
307.089
307.139
307.191
307.228
307.25
307.261
307.262
307.257
307.249
307.237
307.225
307.212
307.2
307.191
307.185
307.183
307.187
307.199
307.221
307.253
307.299
307.36
307.435
307.522
307.619
307.718
307.807
307.872
307.898
307.868
307.761
307.561
307.249
306.816
306.275
305.634
304.915
304.171
304
303.91
303.864
303.835
303.811
303.788
303.766
303.743
303.719
303.694
303.669
303.643
303.617
303.59
303.563
303.536
303.508
303.48
303.451
303.423
303.395
303.366
303.338
303.309
303.281
303.253
303.224
303.196
303.168
303.139
303.111
303.083
303.055
303.028
302.999
302.968
302.924
302.846
310.444
309.404
308.547
307.928
307.538
307.325
307.235
307.22
307.249
307.296
307.345
307.379
307.399
307.407
307.407
307.4
307.39
307.377
307.362
307.348
307.334
307.323
307.314
307.309
307.309
307.316
307.332
307.358
307.398
307.451
307.521
307.604
307.699
307.799
307.896
307.976
308.021
308.018
307.941
307.772
307.494
307.099
306.59
305.975
305.286
304.598
304.129
303.985
303.929
303.895
303.868
303.841
303.814
303.786
303.758
303.729
303.701
303.672
303.643
303.614
303.584
303.555
303.525
303.496
303.466
303.437
303.407
303.378
303.348
303.319
303.29
303.26
303.231
303.202
303.173
303.144
303.115
303.087
303.058
303.03
303.001
302.971
302.936
302.896
310.471
309.477
308.658
308.066
307.69
307.483
307.394
307.378
307.405
307.448
307.492
307.522
307.54
307.547
307.546
307.539
307.527
307.513
307.497
307.482
307.467
307.454
307.443
307.436
307.433
307.436
307.447
307.468
307.501
307.548
307.612
307.69
307.781
307.88
307.98
308.069
308.131
308.149
308.103
307.972
307.734
307.375
306.892
306.288
305.582
304.812
304.021
304.008
303.979
303.951
303.923
303.894
303.862
303.83
303.797
303.765
303.732
303.7
303.669
303.637
303.606
303.574
303.543
303.512
303.481
303.45
303.42
303.389
303.359
303.328
303.298
303.268
303.238
303.208
303.179
303.149
303.119
303.09
303.061
303.032
303.002
302.971
302.938
302.91
310.489
309.537
308.76
308.197
307.837
307.636
307.547
307.531
307.554
307.592
307.632
307.659
307.675
307.681
307.68
307.672
307.66
307.645
307.629
307.613
307.598
307.584
307.572
307.563
307.558
307.558
307.565
307.58
307.608
307.65
307.708
307.781
307.868
307.964
308.063
308.157
308.231
308.267
308.247
308.146
307.942
307.623
307.183
306.612
305.907
305.067
304.169
304.088
304.036
304.007
303.979
303.947
303.912
303.875
303.837
303.801
303.765
303.729
303.694
303.66
303.627
303.593
303.561
303.528
303.496
303.464
303.432
303.4
303.369
303.338
303.307
303.276
303.245
303.214
303.184
303.154
303.123
303.093
303.064
303.034
303.004
302.972
302.938
302.909
310.512
309.605
308.864
308.326
307.979
307.783
307.695
307.677
307.697
307.731
307.764
307.788
307.803
307.809
307.807
307.8
307.788
307.774
307.758
307.742
307.727
307.713
307.701
307.691
307.684
307.681
307.685
307.696
307.719
307.756
307.808
307.876
307.959
308.051
308.148
308.243
308.325
308.374
308.375
308.303
308.137
307.863
307.467
306.931
306.249
305.448
304.65
304.125
304.067
304.057
304.035
304.002
303.962
303.92
303.878
303.837
303.797
303.758
303.72
303.683
303.647
303.612
303.578
303.544
303.51
303.477
303.444
303.411
303.379
303.347
303.315
303.283
303.252
303.22
303.189
303.158
303.127
303.097
303.066
303.037
303.007
302.977
302.947
302.925
310.537
309.674
308.968
308.452
308.117
307.924
307.837
307.816
307.832
307.862
307.89
307.911
307.925
307.931
307.93
307.923
307.913
307.899
307.884
307.869
307.854
307.84
307.827
307.817
307.809
307.804
307.806
307.814
307.833
307.866
307.913
307.977
308.054
308.142
308.236
308.33
308.415
308.475
308.493
308.447
308.315
308.08
307.723
307.221
306.56
305.754
304.838
303.732
304.051
304.114
304.1
304.061
304.015
303.966
303.919
303.873
303.828
303.786
303.745
303.706
303.668
303.631
303.594
303.559
303.524
303.489
303.455
303.422
303.388
303.355
303.323
303.29
303.258
303.226
303.194
303.163
303.131
303.1
303.069
303.039
303.01
302.982
302.958
302.942
310.562
309.744
309.07
308.574
308.249
308.06
307.972
307.949
307.961
307.986
308.01
308.028
308.041
308.047
308.047
308.042
308.032
308.02
308.007
307.993
307.979
307.965
307.953
307.942
307.933
307.928
307.927
307.934
307.95
307.979
308.022
308.081
308.153
308.236
308.326
308.418
308.503
308.57
308.601
308.577
308.474
308.274
307.959
307.498
306.872
306.083
305.139
304.229
304.273
304.24
304.187
304.128
304.069
304.013
303.959
303.908
303.86
303.814
303.77
303.728
303.688
303.648
303.611
303.573
303.537
303.502
303.466
303.432
303.398
303.364
303.33
303.297
303.264
303.232
303.199
303.167
303.135
303.103
303.072
303.041
303.012
302.986
302.964
302.951
310.585
309.81
309.168
308.692
308.376
308.19
308.101
308.075
308.083
308.103
308.123
308.14
308.152
308.158
308.159
308.155
308.148
308.138
308.126
308.114
308.101
308.089
308.077
308.066
308.057
308.051
308.05
308.055
308.069
308.095
308.135
308.189
308.256
308.334
308.42
308.508
308.592
308.662
308.703
308.694
308.614
308.444
308.162
307.737
307.158
306.443
305.648
304.95
304.58
304.394
304.28
304.196
304.123
304.058
303.998
303.942
303.89
303.84
303.793
303.749
303.706
303.666
303.626
303.588
303.55
303.513
303.477
303.442
303.407
303.372
303.338
303.304
303.27
303.237
303.204
303.171
303.138
303.106
303.074
303.043
303.013
302.987
302.966
302.954
310.607
309.871
309.26
308.804
308.497
308.314
308.225
308.196
308.199
308.215
308.231
308.246
308.257
308.264
308.266
308.264
308.259
308.252
308.242
308.232
308.221
308.21
308.2
308.19
308.181
308.175
308.173
308.177
308.19
308.214
308.251
308.3
308.361
308.434
308.515
308.599
308.681
308.752
308.798
308.8
308.737
308.587
308.326
307.929
307.389
306.721
305.979
305.277
304.729
304.489
304.352
304.253
304.172
304.1
304.035
303.974
303.918
303.865
303.816
303.769
303.724
303.682
303.641
303.601
303.562
303.524
303.487
303.451
303.415
303.38
303.345
303.31
303.276
303.242
303.208
303.175
303.142
303.109
303.076
303.044
303.014
302.987
302.966
302.954
310.63
309.936
309.353
308.914
308.615
308.434
308.343
308.31
308.309
308.321
308.334
308.347
308.358
308.365
308.369
308.369
308.367
308.362
308.356
308.348
308.339
308.33
308.321
308.312