/*--------------------------------*- C++ -*----------------------------------*\
  =========                 |
  \\      /  F ield         | OpenFOAM: The Open Source CFD Toolbox
   \\    /   O peration     | Website:  https://openfoam.org
    \\  /    A nd           | Version:  6
     \\/     M anipulation  |
\*---------------------------------------------------------------------------*/
FoamFile
{
    version     2.0;
    format      ascii;
    class       volScalarField;
    location    "2700";
    object      dmdt;
}
// * * * * * * * * * * * * * * * * * * * * * * * * * * * * * * * * * * * * * //

dimensions      [0 0 0 0 0 0 0];

internalField   nonuniform List<scalar> 
4800
(
-0.22012
-0.219197
-0.218306
-0.217439
-0.216594
-0.215761
-0.214935
-0.214105
-0.21327
-0.212433
-0.2116
-0.210764
-0.209918
-0.20906
-0.208192
-0.207317
-0.206439
-0.205557
-0.204674
-0.20379
-0.202906
-0.20202
-0.201128
-0.200227
-0.199316
-0.198391
-0.197451
-0.196489
-0.195502
-0.194486
-0.193439
-0.192361
-0.191255
-0.190123
-0.188967
-0.187788
-0.186588
-0.18537
-0.184137
-0.182892
-0.181637
-0.180371
-0.179095
-0.17781
-0.176514
-0.175209
-0.173891
-0.172559
-0.171209
-0.169839
-0.168442
-0.167015
-0.165553
-0.16405
-0.162503
-0.16091
-0.159267
-0.157576
-0.155835
-0.154043
-0.152198
-0.150292
-0.148319
-0.14627
-0.144132
-0.141895
-0.139542
-0.13705
-0.134385
-0.131488
-0.128282
-0.124663
-0.120506
-0.115648
-0.109911
-0.103092
-0.094951
-0.0852994
-0.0739685
-0.0608657
-0.0460154
-0.0295012
-0.0107462
-0.0123564
-0.0118503
-0.0102867
-0.00792279
-0.00497876
-0.00162334
0.00201571
0.00584036
0.00977495
0.0137614
0.0177562
0.0217284
0.0256571
0.0295301
0.0333416
0.0370907
0.0407797
0.0444127
0.0479954
0.0515332
0.0550321
0.0584972
0.0619335
0.0653453
0.0687363
0.0721099
0.0754687
0.0788154
0.0821518
0.0854798
0.0888009
0.0921163
0.0954273
0.0987348
0.10204
0.105343
0.108645
-0.2201
-0.219136
-0.218201
-0.217283
-0.216392
-0.21552
-0.214661
-0.213806
-0.212949
-0.212088
-0.211231
-0.21038
-0.209518
-0.208646
-0.207765
-0.20688
-0.205994
-0.205107
-0.204219
-0.20333
-0.202439
-0.201547
-0.20065
-0.199745
-0.198832
-0.197908
-0.196971
-0.196015
-0.195033
-0.194022
-0.192979
-0.191901
-0.190792
-0.189655
-0.188493
-0.187307
-0.186098
-0.18487
-0.183627
-0.182372
-0.181107
-0.179835
-0.178553
-0.177262
-0.17596
-0.174646
-0.173321
-0.171981
-0.170624
-0.169249
-0.167849
-0.166421
-0.164956
-0.163449
-0.161896
-0.160295
-0.158644
-0.15694
-0.155184
-0.153379
-0.151523
-0.149608
-0.14763
-0.145575
-0.143434
-0.141189
-0.138827
-0.136326
-0.133656
-0.130756
-0.127554
-0.123948
-0.119806
-0.11498
-0.109287
-0.102542
-0.0945362
-0.0850136
-0.0738377
-0.0609667
-0.0464165
-0.030309
-0.0115142
-0.0134758
-0.0127326
-0.0108763
-0.00828052
-0.00517564
-0.00171517
0.00198975
0.00585387
0.00981055
0.0138079
0.0178065
0.0217781
0.025704
0.0295729
0.0333799
0.0371245
0.0408092
0.0444384
0.0480176
0.0515525
0.0550488
0.0585117
0.0619461
0.0653562
0.0687457
0.072118
0.0754758
0.0788215
0.082157
0.0854842
0.0888046
0.0921194
0.0954297
0.0987366
0.102041
0.105343
0.108645
-0.220061
-0.219006
-0.217978
-0.216968
-0.215987
-0.215037
-0.214122
-0.213219
-0.212321
-0.21142
-0.21052
-0.209632
-0.208741
-0.207842
-0.206936
-0.206027
-0.205119
-0.204212
-0.203307
-0.202403
-0.201501
-0.2006
-0.199696
-0.198787
-0.19787
-0.196945
-0.19601
-0.195061
-0.194084
-0.193076
-0.192033
-0.190953
-0.189836
-0.18869
-0.187517
-0.186318
-0.185095
-0.183851
-0.18259
-0.181317
-0.180037
-0.178751
-0.177458
-0.176157
-0.174846
-0.173524
-0.172188
-0.170837
-0.169469
-0.168082
-0.166672
-0.165236
-0.163765
-0.16225
-0.160687
-0.159075
-0.157408
-0.155685
-0.153905
-0.152074
-0.150194
-0.148258
-0.146265
-0.144196
-0.142043
-0.139789
-0.137411
-0.134888
-0.132205
-0.129298
-0.126098
-0.122508
-0.1184
-0.113626
-0.108012
-0.101381
-0.0935626
-0.0843623
-0.0736757
-0.061456
-0.0477506
-0.0326999
-0.0140572
-0.0161794
-0.0145494
-0.0119946
-0.00892718
-0.00551735
-0.00186406
0.0019597
0.00589412
0.00988942
0.013905
0.017909
0.0218785
0.0257978
0.0296581
0.0334559
0.0371914
0.0408676
0.0444892
0.0480617
0.0515907
0.0550818
0.0585403
0.0619709
0.0653777
0.0687645
0.0721342
0.0754898
0.0788336
0.0821674
0.085493
0.088812
0.0921255
0.0954346
0.0987403
0.102044
0.105345
0.108645
-0.220006
-0.218821
-0.217649
-0.21651
-0.215408
-0.214345
-0.213344
-0.212368
-0.211407
-0.210454
-0.209505
-0.208572
-0.207639
-0.206704
-0.205763
-0.20482
-0.203879
-0.202942
-0.202011
-0.201084
-0.200162
-0.199244
-0.198325
-0.197402
-0.196473
-0.195539
-0.194599
-0.193646
-0.192671
-0.191662
-0.190616
-0.189529
-0.188403
-0.187244
-0.186056
-0.184842
-0.183601
-0.182339
-0.181057
-0.179762
-0.178461
-0.177157
-0.175849
-0.174536
-0.173218
-0.17189
-0.170548
-0.16919
-0.167814
-0.166416
-0.164994
-0.163544
-0.162061
-0.160532
-0.158955
-0.157326
-0.15564
-0.153894
-0.152087
-0.150224
-0.148312
-0.146342
-0.144323
-0.142232
-0.140056
-0.137785
-0.135389
-0.132841
-0.130138
-0.12721
-0.124
-0.120417
-0.116333
-0.111616
-0.106096
-0.0995988
-0.0920057
-0.0831775
-0.0730187
-0.0616021
-0.0493607
-0.0370426
-0.026201
-0.0210319
-0.0171083
-0.0134178
-0.00970398
-0.0059022
-0.00200725
0.00196343
0.00598333
0.0100241
0.0140594
0.018067
0.0220304
0.0259385
0.0297853
0.0335689
0.0372907
0.0409542
0.0445645
0.0481269
0.0516472
0.0551308
0.0585828
0.0620077
0.0654097
0.0687922
0.0721583
0.0755107
0.0788515
0.0821828
0.0855061
0.088823
0.0921345
0.0954418
0.0987459
0.102047
0.105347
0.108646
-0.219918
-0.218562
-0.217217
-0.215911
-0.214667
-0.213474
-0.212363
-0.211287
-0.210254
-0.209242
-0.208237
-0.207247
-0.206264
-0.205283
-0.204302
-0.203322
-0.202344
-0.201372
-0.200406
-0.199448
-0.198497
-0.197553
-0.196608
-0.195661
-0.194711
-0.193758
-0.192801
-0.191834
-0.190848
-0.189831
-0.188774
-0.187677
-0.18654
-0.185368
-0.184161
-0.182926
-0.181664
-0.180382
-0.179079
-0.177763
-0.176443
-0.175121
-0.1738
-0.172477
-0.171153
-0.169819
-0.168471
-0.167109
-0.16573
-0.164326
-0.162896
-0.161434
-0.159938
-0.158394
-0.156799
-0.155149
-0.153439
-0.151666
-0.14983
-0.147935
-0.145987
-0.143982
-0.141931
-0.139809
-0.137605
-0.135307
-0.13289
-0.130317
-0.127589
-0.124636
-0.121399
-0.117807
-0.11373
-0.109063
-0.103657
-0.0973484
-0.0900364
-0.081625
-0.0721298
-0.0617414
-0.0508666
-0.0402099
-0.0310821
-0.0244764
-0.0192452
-0.0146627
-0.0103693
-0.00619568
-0.00206639
0.00204693
0.00614809
0.0102294
0.0142787
0.0182838
0.022235
0.0261258
0.0299533
0.0337175
0.037421
0.0410678
0.0446631
0.0482124
0.0517213
0.055195
0.0586385
0.0620561
0.0654517
0.0688287
0.07219
0.0755381
0.0788752
0.0822031
0.0855234
0.0888374
0.0921464
0.0954514
0.0987531
0.102053
0.10535
0.108647
-0.219809
-0.218234
-0.216676
-0.215183
-0.213779
-0.212452
-0.211229
-0.210045
-0.208923
-0.207834
-0.206762
-0.20571
-0.20467
-0.203638
-0.20261
-0.201587
-0.200569
-0.199557
-0.198552
-0.197556
-0.196567
-0.195587
-0.194609
-0.193631
-0.192653
-0.191674
-0.190692
-0.189701
-0.18869
-0.187653
-0.186579
-0.185461
-0.184308
-0.18312
-0.181893
-0.180636
-0.179353
-0.178048
-0.176722
-0.175385
-0.174042
-0.172704
-0.171368
-0.170035
-0.168705
-0.167366
-0.166012
-0.164647
-0.163264
-0.161856
-0.160421
-0.158951
-0.157441
-0.155884
-0.154273
-0.1526
-0.150864
-0.149065
-0.147198
-0.14527
-0.143287
-0.141247
-0.139164
-0.137013
-0.134784
-0.132459
-0.130019
-0.127431
-0.12468
-0.121717
-0.118455
-0.114839
-0.110736
-0.106048
-0.100673
-0.094505
-0.0874777
-0.0795007
-0.0706311
-0.0610743
-0.0511967
-0.0416781
-0.0332969
-0.0263722
-0.0205478
-0.0154299
-0.0107337
-0.00628139
-0.00197076
0.00225233
0.0064126
0.0105183
0.0145691
0.0185617
0.0224922
0.0263585
0.0301605
0.0339
0.0375805
0.0412066
0.0447836
0.0483169
0.0518118
0.0552736
0.0587067
0.0621153
0.0655032
0.0688734
0.0722288
0.0755717
0.0789042
0.082228
0.0855446
0.0888552
0.0921611
0.0954631
0.0987621
0.102059
0.105354
0.108648
-0.219678
-0.217862
-0.216086
-0.214383
-0.212787
-0.211299
-0.209943
-0.208644
-0.207435
-0.206258
-0.205112
-0.203991
-0.202891
-0.201805
-0.200726
-0.199656
-0.198593
-0.19754
-0.196492
-0.195454
-0.194425
-0.193403
-0.192386
-0.191372
-0.190359
-0.189348
-0.188335
-0.187311
-0.186265
-0.1852
-0.184102
-0.182956
-0.181779
-0.18057
-0.179321
-0.178034
-0.176726
-0.175396
-0.174044
-0.17268
-0.171305
-0.169941
-0.168586
-0.167239
-0.165901
-0.164557
-0.163199
-0.161829
-0.160444
-0.159032
-0.157591
-0.156115
-0.154592
-0.15302
-0.151395
-0.149704
-0.147942
-0.146114
-0.14422
-0.142259
-0.140239
-0.138168
-0.136054
-0.133879
-0.13163
-0.129293
-0.126842
-0.124244
-0.12148
-0.11852
-0.115262
-0.111645
-0.107566
-0.102908
-0.0975895
-0.091524
-0.0846722
-0.0769989
-0.0686077
-0.0596972
-0.0506204
-0.0418605
-0.0339148
-0.0269999
-0.0209724
-0.0156075
-0.0106976
-0.00608742
-0.00167327
0.00260837
0.00679307
0.0108989
0.0149338
0.0189006
0.0228004
0.0266343
0.0304044
0.0341139
0.0377671
0.0413688
0.0449243
0.0484389
0.0519177
0.0553655
0.0587865
0.0621848
0.0655636
0.068926
0.0722745
0.0756113
0.0789384
0.0822573
0.0855695
0.0888762
0.0921783
0.0954769
0.0987727
0.102066
0.105359
0.10865
-0.219544
-0.217454
-0.215418
-0.213492
-0.211702
-0.210052
-0.208553
-0.207136
-0.205822
-0.204548
-0.203317
-0.202123
-0.200955
-0.19981
-0.198678
-0.197558
-0.196447
-0.195349
-0.194258
-0.193178
-0.192106
-0.19104
-0.189979
-0.188925
-0.187874
-0.186824
-0.185775
-0.184711
-0.183624
-0.182525
-0.181392
-0.180212
-0.179001
-0.177761
-0.176482
-0.175159
-0.173816
-0.172451
-0.171067
-0.169672
-0.168265
-0.16687
-0.165491
-0.164125
-0.162775
-0.161423
-0.160061
-0.158687
-0.157296
-0.155878
-0.154431
-0.152947
-0.151413
-0.149827
-0.148189
-0.146481
-0.144698
-0.142843
-0.140922
-0.138929
-0.136874
-0.134773
-0.132627
-0.130433
-0.128169
-0.125829
-0.123386
-0.120797
-0.11804
-0.115095
-0.111847
-0.108217
-0.104121
-0.0994599
-0.0941577
-0.0881727
-0.0815124
-0.0741587
-0.066193
-0.0578069
-0.0493088
-0.0410684
-0.0333744
-0.0265912
-0.0205865
-0.0151895
-0.0102343
-0.00558804
-0.00115545
0.00312599
0.00729451
0.0113722
0.0153711
0.0192977
0.0231561
0.0269495
0.0306815
0.0343561
0.0379779
0.0415519
0.0450832
0.0485768
0.0520374
0.0554695
0.058877
0.0622636
0.0656322
0.0689857
0.0723265
0.0756564
0.0789774
0.0822908
0.085598
0.0889001
0.0921981
0.0954927
0.0987847
0.102075
0.105364
0.108652
-0.219392
-0.21702
-0.214726
-0.212559
-0.210555
-0.208724
-0.207066
-0.205526
-0.204095
-0.20272
-0.201393
-0.200123
-0.198882
-0.197674
-0.196485
-0.195312
-0.194152
-0.193005
-0.191869
-0.190744
-0.189627
-0.188515
-0.187409
-0.186311
-0.185218
-0.184126
-0.183032
-0.181923
-0.180793
-0.179651
-0.178477
-0.177259
-0.176008
-0.174728
-0.173409
-0.172048
-0.170663
-0.169258
-0.167839
-0.166405
-0.164962
-0.163532
-0.162125
-0.160738
-0.15937
-0.158006
-0.156636
-0.155258
-0.15386
-0.152432
-0.150976
-0.14948
-0.147935
-0.146336
-0.144685
-0.142961
-0.141161
-0.139281
-0.137332
-0.135312
-0.133228
-0.131098
-0.128922
-0.12671
-0.124436
-0.122096
-0.11967
-0.117105
-0.114371
-0.111451
-0.108223
-0.104608
-0.100506
-0.0958317
-0.0905283
-0.0845892
-0.0780313
-0.0708811
-0.0632311
-0.0552277
-0.0471304
-0.0392631
-0.0318176
-0.0252823
-0.0194754
-0.0142208
-0.00936638
-0.00479545
-0.000425544
0.00379815
0.00791017
0.0119315
0.0158746
0.019747
0.0235538
0.0272993
0.0309875
0.0346228
0.0382098
0.0417534
0.0452581
0.0487287
0.0521694
0.0555844
0.0589771
0.0623508
0.0657083
0.069052
0.0723842
0.0757065
0.0790207
0.082328
0.0856297
0.0889268
0.09222
0.0955103
0.0987982
0.102084
0.105369
0.108653
-0.219239
-0.216557
-0.213973
-0.211554
-0.209335
-0.207318
-0.205495
-0.203822
-0.202267
-0.200787
-0.199359
-0.198005
-0.196687
-0.195413
-0.194163
-0.192932
-0.191721
-0.190524
-0.189339
-0.188167
-0.187002
-0.185843
-0.18469
-0.183545
-0.182405
-0.181267
-0.180126
-0.17897
-0.177796
-0.176606
-0.175386
-0.174128
-0.172834
-0.171508
-0.170145
-0.168743
-0.167315
-0.165867
-0.164408
-0.162932
-0.16145
-0.159981
-0.158543
-0.157131
-0.15574
-0.154357
-0.152974
-0.151586
-0.150179
-0.148742
-0.147274
-0.145766
-0.144208
-0.142596
-0.140931
-0.139193
-0.137375
-0.135474
-0.133496
-0.131448
-0.129341
-0.127185
-0.124985
-0.122752
-0.120468
-0.11813
-0.115721
-0.113194
-0.110504
-0.107634
-0.104448
-0.10087
-0.0967819
-0.0921079
-0.0868037
-0.0808564
-0.0742922
-0.0671586
-0.059589
-0.051756
-0.043905
-0.0363628
-0.0292748
-0.0231556
-0.017728
-0.0127766
-0.00815092
-0.00375154
0.000485917
0.00460222
0.0086228
0.0125633
0.0164335
0.0202396
0.0239862
0.0276775
0.0313174
0.0349099
0.0384594
0.0419702
0.0454465
0.0488926
0.0523121
0.0557087
0.0590855
0.0624455
0.0657909
0.0691242
0.072447
0.0757612
0.079068
0.0823687
0.0856644
0.0889559
0.0922441
0.0955295
0.0988129
0.102095
0.105375
0.108656
-0.219074
-0.216076
-0.213194
-0.210505
-0.208053
-0.205838
-0.203842
-0.202025
-0.200341
-0.19875
-0.197225
-0.195779
-0.194381
-0.193037
-0.191723
-0.190431
-0.189165
-0.187916
-0.186681
-0.185458
-0.184244
-0.183037
-0.181838
-0.180644
-0.179455
-0.178266
-0.177075
-0.175873
-0.174656
-0.173418
-0.172153
-0.170852
-0.169514
-0.168141
-0.166732
-0.165289
-0.163817
-0.162326
-0.160824
-0.159306
-0.157785
-0.156275
-0.154801
-0.153359
-0.151942
-0.150534
-0.149131
-0.147724
-0.1463
-0.144847
-0.143365
-0.141842
-0.14027
-0.138644
-0.136965
-0.135213
-0.133382
-0.131465
-0.129464
-0.127391
-0.125262
-0.123084
-0.120868
-0.118617
-0.116323
-0.11399
-0.111601
-0.10912
-0.106488
-0.10366
-0.100521
-0.0969917
-0.0929269
-0.0882486
-0.0829388
-0.0769769
-0.0703618
-0.0631381
-0.0554395
-0.0474833
-0.0395944
-0.0322525
-0.0257181
-0.0202821
-0.015454
-0.0109634
-0.00667507
-0.002522
0.00153106
0.00550361
0.00940723
0.013249
0.0170337
0.0207647
0.0244449
0.0280776
0.0316658
0.0352131
0.0387231
0.0421995
0.0456461
0.0490664
0.0524637
0.055841
0.0592012
0.0625465
0.0658793
0.0692014
0.0725144
0.0758198
0.0791188
0.0824124
0.0857016
0.0889873
0.0922699
0.0955503
0.0988288
0.102106
0.105382
0.108658
-0.218904
-0.215578
-0.212401
-0.209439
-0.206732
-0.204297
-0.202114
-0.200137
-0.198317
-0.19661
-0.19499
-0.193449
-0.191973
-0.190555
-0.189174
-0.187821
-0.186495
-0.185194
-0.183906
-0.18263
-0.181366
-0.180112
-0.178866
-0.177624
-0.176386
-0.175146
-0.173905
-0.172656
-0.171396
-0.170115
-0.168806
-0.167463
-0.166081
-0.164663
-0.163212
-0.161727
-0.160214
-0.15868
-0.157133
-0.155576
-0.154019
-0.152474
-0.15096
-0.149481
-0.14803
-0.146594
-0.145165
-0.143736
-0.14229
-0.14082
-0.139321
-0.137782
-0.136196
-0.134555
-0.132859
-0.131089
-0.129241
-0.127304
-0.125285
-0.123195
-0.12105
-0.118857
-0.116631
-0.114368
-0.11207
-0.109747
-0.107385
-0.104947
-0.10238
-0.0995963
-0.096509
-0.0930201
-0.0889714
-0.0842798
-0.0789417
-0.072956
-0.0662857
-0.05892
-0.0509267
-0.0424778
-0.0339787
-0.0264671
-0.0210461
-0.0167766
-0.0128229
-0.00893341
-0.00505587
-0.00119127
0.00265037
0.00646054
0.0102339
0.0139674
0.0176596
0.0213106
0.024921
0.0284924
0.0320272
0.0355278
0.0389972
0.0424384
0.0458544
0.0492482
0.0526225
0.0559799
0.0593227
0.062653
0.0659725
0.0692829
0.0725856
0.0758818
0.0791725
0.0824587
0.0857411
0.0890205
0.0922974
0.0955722
0.0988456
0.102118
0.105389
0.10866
-0.218723
-0.215046
-0.21154
-0.208292
-0.205339
-0.202686
-0.200311
-0.198169
-0.196202
-0.19437
-0.19265
-0.191017
-0.189463
-0.187972
-0.186524
-0.185109
-0.183724
-0.182369
-0.181027
-0.179699
-0.178385
-0.177084
-0.175792
-0.174503
-0.173215
-0.171927
-0.170638
-0.169344
-0.168041
-0.16672
-0.165371
-0.163986
-0.162564
-0.161106
-0.159615
-0.158092
-0.156541
-0.154968
-0.153381
-0.151787
-0.150196
-0.148621
-0.147072
-0.145554
-0.144064
-0.142593
-0.141129
-0.139666
-0.138189
-0.136694
-0.135173
-0.133615
-0.132013
-0.130357
-0.128645
-0.126861
-0.125001
-0.123052
-0.12102
-0.118919
-0.11676
-0.114556
-0.11232
-0.110047
-0.107749
-0.105437
-0.103108
-0.100721
-0.098215
-0.0954742
-0.0924266
-0.0889823
-0.0849881
-0.0803132
-0.0749235
-0.0688703
-0.0620912
-0.0545488
-0.046198
-0.0369559
-0.0269182
-0.0176993
-0.0152337
-0.0129599
-0.0101338
-0.00690064
-0.00343627
0.000146041
0.00378061
0.00743
0.0110729
0.0146971
0.0182959
0.0218659
0.0254057
0.0289155
0.0323963
0.0358498
0.0392783
0.0426838
0.0460689
0.0494359
0.0527869
0.0561239
0.059449
0.0627637
0.0660696
0.069368
0.07266
0.0759466
0.0792288
0.0825072
0.0857825
0.0890554
0.0923261
0.0955953
0.0988632
0.10213
0.105397
0.108663
-0.21854
-0.214507
-0.210673
-0.207121
-0.203896
-0.201008
-0.198431
-0.196117
-0.194002
-0.192041
-0.190212
-0.188488
-0.186854
-0.185293
-0.18378
-0.182304
-0.180861
-0.17945
-0.178056
-0.176677
-0.175314
-0.173967
-0.172631
-0.171296
-0.169963
-0.168629
-0.167294
-0.165957
-0.164612
-0.16325
-0.161863
-0.160441
-0.158983
-0.15749
-0.155965
-0.154408
-0.152823
-0.151216
-0.149596
-0.147972
-0.146351
-0.144747
-0.143168
-0.141616
-0.140089
-0.138583
-0.137088
-0.135591
-0.134083
-0.13256
-0.131011
-0.12943
-0.127807
-0.126132
-0.124398
-0.122595
-0.120716
-0.118755
-0.116713
-0.114602
-0.112431
-0.110213
-0.107964
-0.105681
-0.103382
-0.101083
-0.098786
-0.0964469
-0.0939902
-0.0912983
-0.0882881
-0.0848606
-0.0809037
-0.0762947
-0.0709214
-0.0648658
-0.0580743
-0.0504283
-0.041884
-0.0321108
-0.0191612
-0.000933674
-0.0092652
-0.00972403
-0.00787795
-0.0051253
-0.00196172
0.00140276
0.00486628
0.00837498
0.0118987
0.0154202
0.0189294
0.0224208
0.0258916
0.0293407
0.0327684
0.0361754
0.0395632
0.0429333
0.0462875
0.0496276
0.0529551
0.0562717
0.0595788
0.0628777
0.0661697
0.0694558
0.0727368
0.0760137
0.079287
0.0825574
0.0858254
0.0890915
0.092356
0.0956192
0.0988815
0.102143
0.105404
0.108665
-0.21835
-0.213943
-0.209759
-0.205892
-0.202386
-0.199257
-0.196476
-0.193987
-0.191722
-0.189631
-0.187687
-0.185869
-0.184156
-0.182524
-0.180948
-0.179414
-0.177914
-0.176448
-0.175004
-0.173575
-0.172166
-0.170772
-0.169392
-0.168013
-0.166638
-0.165265
-0.16389
-0.162511
-0.161124
-0.159723
-0.158299
-0.156842
-0.155354
-0.153831
-0.152276
-0.15069
-0.149074
-0.147439
-0.145792
-0.144143
-0.142498
-0.140872
-0.139268
-0.137688
-0.136129
-0.13459
-0.133066
-0.131537
-0.13
-0.128449
-0.126873
-0.125267
-0.123618
-0.121918
-0.120158
-0.118334
-0.116434
-0.114451
-0.112388
-0.11026
-0.108075
-0.105844
-0.10358
-0.10129
-0.0989898
-0.096706
-0.0944421
-0.092151
-0.089738
-0.0870916
-0.0841208
-0.0807262
-0.0768179
-0.0723163
-0.0670921
-0.0611212
-0.0543959
-0.046935
-0.0387766
-0.0299654
-0.0207501
-0.0120603
-0.0104332
-0.00883714
-0.00656743
-0.00379731
-0.000723333
0.0025258
0.00587272
0.00927136
0.012694
0.0161236
0.0195502
0.0229677
0.0263726
0.0297634
0.0331395
0.0365012
0.0398492
0.0431844
0.0465081
0.0498215
0.0531256
0.0564217
0.0597108
0.062994
0.0662719
0.0695455
0.0728155
0.0760823
0.0793467
0.0826089
0.0858694
0.0891285
0.0923866
0.0956438
0.0989004
0.102156
0.105412
0.108668
-0.218154
-0.213361
-0.208811
-0.204617
-0.200823
-0.197448
-0.194455
-0.191785
-0.189371
-0.18715
-0.18509
-0.183171
-0.181373
-0.179671
-0.178034
-0.176443
-0.17489
-0.173371
-0.171878
-0.170403
-0.168948
-0.167508
-0.166082
-0.16466
-0.163246
-0.16184
-0.160432
-0.159018
-0.157592
-0.156153
-0.154693
-0.153204
-0.151688
-0.150138
-0.148558
-0.14695
-0.145313
-0.143657
-0.141991
-0.140323
-0.13866
-0.137014
-0.135389
-0.133785
-0.1322
-0.130633
-0.129081
-0.127525
-0.12596
-0.124382
-0.12278
-0.121145
-0.119467
-0.117737
-0.115945
-0.114089
-0.112162
-0.110155
-0.108066
-0.10591
-0.103704
-0.101457
-0.0991793
-0.0968833
-0.0945877
-0.0923252
-0.0901012
-0.0878523
-0.0854715
-0.0828663
-0.0799419
-0.076599
-0.0727507
-0.0683249
-0.063266
-0.0575726
-0.0511843
-0.0441344
-0.0366161
-0.028935
-0.0216381
-0.0153969
-0.0116249
-0.00867166
-0.00579959
-0.00281257
0.000302642
0.00351554
0.00679356
0.0101114
0.0134512
0.016801
0.0201529
0.0235018
0.0268448
0.03018
0.0335066
0.0368245
0.0401338
0.0434351
0.0467289
0.050016
0.053297
0.0565728
0.0598441
0.0631113
0.0663753
0.0696364
0.0728952
0.076152
0.0794072
0.0826612
0.0859141
0.0891662
0.0924177
0.0956688
0.0989195
0.10217
0.10542
0.10867
-0.217952
-0.212761
-0.207841
-0.203315
-0.199225
-0.195591
-0.192378
-0.189521
-0.186951
-0.184602
-0.18243
-0.18041
-0.178521
-0.17674
-0.175039
-0.173393
-0.171789
-0.170219
-0.168678
-0.167159
-0.165661
-0.16418
-0.162713
-0.161252
-0.1598
-0.158358
-0.156917
-0.155471
-0.154013
-0.152541
-0.15105
-0.149531
-0.147989
-0.146416
-0.144816
-0.143192
-0.141539
-0.13987
-0.138194
-0.136515
-0.134843
-0.133183
-0.131543
-0.129923
-0.128319
-0.126729
-0.125154
-0.123572
-0.121983
-0.120378
-0.118747
-0.117081
-0.115369
-0.113602
-0.111773
-0.109878
-0.107912
-0.105871
-0.103748
-0.10156
-0.0993225
-0.0970522
-0.0947578
-0.0924548
-0.0901631
-0.0879287
-0.0857506
-0.0835368
-0.0811883
-0.0786186
-0.0757387
-0.0724718
-0.0687319
-0.0644367
-0.059552
-0.0541071
-0.0480872
-0.0415665
-0.0347584
-0.0280061
-0.0217327
-0.0163185
-0.0120457
-0.00846729
-0.00518536
-0.00199209
0.00119714
0.00440845
0.00764478
0.0109014
0.0141722
0.0174517
0.0207358
0.0240212
0.0273058
0.0305882
0.0338675
0.0371433
0.0404152
0.0436835
0.0469482
0.0502095
0.053468
0.0567238
0.0599773
0.0632289
0.0664789
0.0697276
0.0729752
0.076222
0.0794681
0.0827138
0.0859591
0.0892042
0.0924491
0.095694
0.0989388
0.102184
0.105428
0.108673
-0.217745
-0.212147
-0.206846
-0.201977
-0.197588
-0.193687
-0.190249
-0.187202
-0.184471
-0.181987
-0.179705
-0.17759
-0.175615
-0.173753
-0.171983
-0.170279
-0.168624
-0.167006
-0.16542
-0.163859
-0.162318
-0.160795
-0.159287
-0.15779
-0.156305
-0.15483
-0.153357
-0.151879
-0.150393
-0.148892
-0.147375
-0.145832
-0.144269
-0.142677
-0.141063
-0.139427
-0.137767
-0.136094
-0.134414
-0.132735
-0.13106
-0.129398
-0.127751
-0.126121
-0.124505
-0.1229
-0.121304
-0.119701
-0.118087
-0.116454
-0.114792
-0.113089
-0.111336
-0.109524
-0.107646
-0.105698
-0.103678
-0.101584
-0.0994104
-0.0971756
-0.0948976
-0.0925961
-0.0902839
-0.0879779
-0.0856948
-0.0834878
-0.081352
-0.0791696
-0.0768575
-0.0743468
-0.0715248
-0.0683456
-0.0647486
-0.060651
-0.0560041
-0.0508419
-0.0451884
-0.0391465
-0.0329262
-0.0268452
-0.0211499
-0.0161427
-0.0118074
-0.00799828
-0.00451196
-0.00119509
0.00204373
0.00525224
0.00845315
0.0116562
0.0148648
0.0180796
0.0213003
0.0245257
0.0277549
0.0309869
0.0342208
0.0374559
0.0406918
0.0439281
0.0471645
0.0504008
0.0536371
0.0568733
0.0601095
0.0633457
0.0665819
0.0698183
0.0730549
0.0762917
0.0795288
0.0827662
0.086004
0.089242
0.0924804
0.0957191
0.098958
0.102197
0.105436
0.108676
-0.21754
-0.211546
-0.205874
-0.200658
-0.195955
-0.191772
-0.188094
-0.184853
-0.181959
-0.179335
-0.176937
-0.174727
-0.172667
-0.170729
-0.16889
-0.167127
-0.165419
-0.163751
-0.162118
-0.160512
-0.158929
-0.157366
-0.155819
-0.154288
-0.152771
-0.151265
-0.149762
-0.148259
-0.146749
-0.145225
-0.143688
-0.142128
-0.140549
-0.138945
-0.137322
-0.135681
-0.134022
-0.132354
-0.13068
-0.129009
-0.127343
-0.125687
-0.124044
-0.122412
-0.120789
-0.119174
-0.117561
-0.115937
-0.114296
-0.11263
-0.110928
-0.109178
-0.10737
-0.105497
-0.103551
-0.101529
-0.0994299
-0.097258
-0.0950105
-0.0927086
-0.0903748
-0.08803
-0.0856962
-0.0833928
-0.0811339
-0.0789586
-0.0768569
-0.0747152
-0.0724449
-0.0700057
-0.0672761
-0.0642263
-0.0607973
-0.0569307
-0.0525673
-0.0477277
-0.0424542
-0.0368543
-0.0310908
-0.0254384
-0.0200762
-0.0153215
-0.0110612
-0.00722277
-0.00368463
-0.000335069
0.00290611
0.00608981
0.00924631
0.012393
0.0155394
0.0186909
0.0218498
0.0250169
0.0281924
0.0313755
0.0345654
0.0377613
0.0409622
0.0441675
0.0473764
0.0505885
0.0538032
0.0570204
0.0602396
0.0634607
0.0666835
0.0699078
0.0731335
0.0763606
0.0795888
0.082818
0.0860483
0.0892794
0.0925113
0.0957439
0.098977
0.102211
0.105444
0.108678
-0.217359
-0.211012
-0.204992
-0.199414
-0.194369
-0.189889
-0.185959
-0.182511
-0.17945
-0.176682
-0.17416
-0.171849
-0.169698
-0.167686
-0.16578
-0.163957
-0.162196
-0.160479
-0.158799
-0.157148
-0.155523
-0.153919
-0.152335
-0.15077
-0.149223
-0.147689
-0.146162
-0.144637
-0.14311
-0.14157
-0.140019
-0.138449
-0.136862
-0.135256
-0.133632
-0.131996
-0.130348
-0.128694
-0.127038
-0.125386
-0.12374
-0.1221
-0.120469
-0.118843
-0.117219
-0.115594
-0.113962
-0.112312
-0.110634
-0.108921
-0.107161
-0.105342
-0.103454
-0.101493
-0.0994494
-0.0973213
-0.0951108
-0.0928255
-0.0904726
-0.0880758
-0.0856659
-0.0832649
-0.0809011
-0.0786025
-0.0763742
-0.0742399
-0.0721774
-0.0700826
-0.0678829
-0.0655429
-0.0629308
-0.060057
-0.0568415
-0.0532331
-0.0491812
-0.04467
-0.0397517
-0.0344998
-0.0290408
-0.0236646
-0.0185629
-0.0140078
-0.00988848
-0.00614306
-0.00266672
0.00063339
0.00382464
0.00695252
0.010047
0.0131275
0.0162066
0.0192919
0.022388
0.0254968
0.0286189
0.0317539
0.0349008
0.0380583
0.0412253
0.0444004
0.0475827
0.0507712
0.0539651
0.0571638
0.0603665
0.063573
0.0667827
0.0699952
0.0732104
0.0764279
0.0796474
0.0828688
0.0860917
0.0893161
0.0925416
0.0957682
0.0989956
0.102224
0.105452
0.108681
-0.217191
-0.210502
-0.204134
-0.198211
-0.192831
-0.188048
-0.183857
-0.180188
-0.176948
-0.174032
-0.171387
-0.168976
-0.166732
-0.164642
-0.16267
-0.160789
-0.15898
-0.157222
-0.155501
-0.15381
-0.152144
-0.150503
-0.148883
-0.147285
-0.145708
-0.144147
-0.142599
-0.141059
-0.139518
-0.137971
-0.136416
-0.134846
-0.133263
-0.131665
-0.130054
-0.128435
-0.12681
-0.125183
-0.123558
-0.121937
-0.120322
-0.118707
-0.117094
-0.115476
-0.113848
-0.112207
-0.110545
-0.108852
-0.107117
-0.10533
-0.103481
-0.101557
-0.0995509
-0.0974583
-0.0952723
-0.0929921
-0.0906225
-0.0881785
-0.085678
-0.083152
-0.0806414
-0.0781728
-0.0757757
-0.073482
-0.0712897
-0.0692098
-0.0672184
-0.0651912
-0.0630878
-0.0608892
-0.0584302
-0.0557585
-0.0527983
-0.0494692
-0.0457528
-0.041586
-0.037015
-0.0320916
-0.0269063
-0.021675
-0.0166845
-0.0122278
-0.00830793
-0.00476552
-0.0014505
0.00172702
0.00481894
0.00785872
0.0108702
0.0138711
0.0168742
0.0198881
0.0229181
0.0259669
0.029035
0.0321218
0.0352261
0.038346
0.0414798
0.0446257
0.0477822
0.0509479
0.0541217
0.0573024
0.0604893
0.0636816
0.0668786
0.0700799
0.0732849
0.0764931
0.0797042
0.0829179
0.0861337
0.0893515
0.092571
0.0957918
0.0990137
0.102236
0.10546
0.108684
-0.217007
-0.209956
-0.203248
-0.197019
-0.191341
-0.186262
-0.1818
-0.177907
-0.174483
-0.171413
-0.168641
-0.166124
-0.163789
-0.161625
-0.159594
-0.157666
-0.155821
-0.154031
-0.152281
-0.150561
-0.148865
-0.147189
-0.145536
-0.143906
-0.142297
-0.140709
-0.13914
-0.137587
-0.13604
-0.134492
-0.132943
-0.131385
-0.129819
-0.128244
-0.126662
-0.125075
-0.123489
-0.121904
-0.120322
-0.118746
-0.117169
-0.115587
-0.113992
-0.112378
-0.110736
-0.10906
-0.107342
-0.105572
-0.103738
-0.101831
-0.0998415
-0.0977583
-0.0955747
-0.0932902
-0.0908989
-0.0884036
-0.0858137
-0.0831563
-0.0804592
-0.0777659
-0.0751317
-0.0725898
-0.0701696
-0.0678822
-0.0657369
-0.0637343
-0.0618521
-0.05994
-0.0579715
-0.0559541
-0.0537102
-0.0512811
-0.0486026
-0.0455793
-0.0422104
-0.0384127
-0.0342051
-0.0295878
-0.0246263
-0.019448
-0.0143903
-0.00983674
-0.00627785
-0.00310231
-5.2992e-05
0.00293874
0.00589069
0.0088144
0.011723
0.01463
0.0175469
0.0204825
0.0234419
0.0264278
0.0294404
0.0324786
0.0355403
0.0386231
0.0417244
0.0448419
0.0479734
0.0511172
0.0542716
0.0574352
0.0606069
0.0637856
0.0669706
0.070161
0.0733562
0.0765555
0.0797586
0.0829649
0.086174
0.0893855
0.0925991
0.0958144
0.099031
0.102249
0.105467
0.108686
-0.216809
-0.209374
-0.202314
-0.195779
-0.189823
-0.184481
-0.179775
-0.175677
-0.172079
-0.168852
-0.165952
-0.163325
-0.1609
-0.158667
-0.15659
-0.154635
-0.152774
-0.150977
-0.149222
-0.147494
-0.145783
-0.144085
-0.142404
-0.140739
-0.139096
-0.137474
-0.135876
-0.134305
-0.132754
-0.13121
-0.129674
-0.12814
-0.126605
-0.12507
-0.123535
-0.122002
-0.120472
-0.118945
-0.117423
-0.115901
-0.114371
-0.11282
-0.111238
-0.109612
-0.107929
-0.10618
-0.104357
-0.10245
-0.100449
-0.0983457
-0.0961375
-0.0938152
-0.0913753
-0.0888207
-0.0861472
-0.0833606
-0.0804786
-0.0775469
-0.0746074
-0.0717148
-0.0689377
-0.0663211
-0.0638896
-0.0616393
-0.0595726
-0.0576874
-0.0559603
-0.0542327
-0.0524723
-0.050689
-0.0487074
-0.0465792
-0.044211
-0.0415324
-0.0385275
-0.0351169
-0.0312983
-0.0270291
-0.0223066
-0.0171288
-0.0116642
-0.0063164
-0.00374277
-0.00122056
0.00146773
0.00423725
0.00702673
0.00981552
0.012605
0.0154048
0.0182254
0.0210751
0.0239589
0.0268787
0.0298341
0.032823
0.0358421
0.0388881
0.0419576
0.0450476
0.0481551
0.0512778
0.0544137
0.057561
0.0607183
0.0638841
0.0670576
0.0702377
0.0734237
0.0766147
0.0798101
0.0830095
0.0862122
0.0894177
0.0926257
0.0958357
0.0990473
0.10226
0.105474
0.108688
-0.216612
-0.208786
-0.201358
-0.194503
-0.188279
-0.182699
-0.177763
-0.173457
-0.1697
-0.16634
-0.16333
-0.160604
-0.158099
-0.155809
-0.153706
-0.151754
-0.149918
-0.148156
-0.146437
-0.144738
-0.143044
-0.141344
-0.139643
-0.13794
-0.136247
-0.134572
-0.132925
-0.131317
-0.129746
-0.1282
-0.126682
-0.125182
-0.123694
-0.122218
-0.120752
-0.119294
-0.117843
-0.116397
-0.11495
-0.113493
-0.11201
-0.110481
-0.108888
-0.107214
-0.105438
-0.103548
-0.101537
-0.0993992
-0.0971281
-0.0947206
-0.0921827
-0.0895135
-0.0867158
-0.0837978
-0.0807544
-0.0775981
-0.0743545
-0.0710939
-0.0678817
-0.0647858
-0.0618784
-0.0592155
-0.0567957
-0.0546333
-0.0527056
-0.0509993
-0.0494938
-0.0480255
-0.046552
-0.045084
-0.0434347
-0.0416656
-0.0396553
-0.0373649
-0.034754
-0.0317698
-0.0283842
-0.0245458
-0.0201858
-0.0151231
-0.00894455
0.000133576
-0.000974703
0.000621159
0.00299097
0.00557322
0.0082066
0.0108524
0.0135106
0.0161915
0.0189062
0.021663
0.0244664
0.0273172
0.0302138
0.0331526
0.0361293
0.0391391
0.0421778
0.0452411
0.0483257
0.0514284
0.0545468
0.0576787
0.0608224
0.0639762
0.0671389
0.0703094
0.0734867
0.0766699
0.0798582
0.0830511
0.0862478
0.0894478
0.0926506
0.0958557
0.0990626
0.102271
0.10548
0.10869
-0.216399
-0.208138
-0.20031
-0.193128
-0.186657
-0.180888
-0.175797
-0.171336
-0.167438
-0.163961
-0.160842
-0.15802
-0.155446
-0.153121
-0.151024
-0.149123
-0.147369
-0.145709
-0.14409
-0.142478
-0.140848
-0.139178
-0.137471
-0.135724
-0.133954
-0.13218
-0.130432