/*--------------------------------*- C++ -*----------------------------------*\
  =========                 |
  \\      /  F ield         | OpenFOAM: The Open Source CFD Toolbox
   \\    /   O peration     | Website:  https://openfoam.org
    \\  /    A nd           | Version:  6
     \\/     M anipulation  |
\*---------------------------------------------------------------------------*/
FoamFile
{
    version     2.0;
    format      ascii;
    class       surfaceScalarField;
    location    "2700";
    object      phi;
}
// * * * * * * * * * * * * * * * * * * * * * * * * * * * * * * * * * * * * * //

dimensions      [0 3 -1 0 0 0 0];

internalField   nonuniform List<scalar> 
9440
(
-7.4447e-11
7.4447e-11
9.4107e-10
-1.01552e-09
1.86648e-09
-9.2541e-10
3.13526e-09
-1.26878e-09
4.10178e-09
-9.6652e-10
5.03603e-09
-9.34247e-10
5.73676e-09
-7.00731e-10
6.07855e-09
-3.41791e-10
6.23977e-09
-1.61217e-10
6.84513e-09
-6.05362e-10
7.39953e-09
-5.54396e-10
7.56221e-09
-1.62681e-10
7.74981e-09
-1.87601e-10
7.85385e-09
-1.04042e-10
7.95564e-09
-1.01783e-10
7.99891e-09
-4.32741e-11
7.99566e-09
3.25673e-12
8.00958e-09
-1.39265e-11
8.03264e-09
-2.30559e-11
8.09752e-09
-6.48775e-11
8.23849e-09
-1.40973e-10
8.34454e-09
-1.06047e-10
8.37069e-09
-2.61501e-11
8.36806e-09
2.62621e-12
8.35926e-09
8.80223e-12
8.29726e-09
6.20043e-11
8.20768e-09
8.95805e-11
8.04976e-09
1.5792e-10
7.87488e-09
1.7488e-10
7.68764e-09
1.8724e-10
7.49632e-09
1.91319e-10
7.34027e-09
1.56055e-10
7.2538e-09
8.6467e-11
7.21686e-09
3.69423e-11
7.20346e-09
1.34e-11
7.1864e-09
1.70644e-11
7.19783e-09
-1.14291e-11
7.22805e-09
-3.02205e-11
7.27504e-09
-4.69872e-11
7.35831e-09
-8.3275e-11
7.42141e-09
-6.30943e-11
7.4583e-09
-3.68882e-11
7.4964e-09
-3.81004e-11
7.54917e-09
-5.27687e-11
7.61066e-09
-6.14897e-11
7.73583e-09
-1.25174e-10
7.78745e-09
-5.16156e-11
7.8724e-09
-8.49499e-11
7.95512e-09
-8.27183e-11
7.97954e-09
-2.44197e-11
7.97578e-09
3.75834e-12
7.94821e-09
2.75698e-11
7.91346e-09
3.47593e-11
7.87895e-09
3.45102e-11
7.86071e-09
1.82333e-11
7.81118e-09
4.95404e-11
7.76547e-09
4.57042e-11
7.77995e-09
-1.44734e-11
7.77219e-09
7.75713e-12
7.77656e-09
-4.36898e-12
7.73502e-09
4.15365e-11
7.69785e-09
3.71689e-11
7.5934e-09
1.04454e-10
7.50878e-09
8.46206e-11
7.3411e-09
1.67678e-10
7.23352e-09
1.07578e-10
7.09594e-09
1.37583e-10
7.01304e-09
8.28964e-11
6.87809e-09
1.34947e-10
6.7189e-09
1.59197e-10
6.45251e-09
2.66382e-10
6.09613e-09
3.56386e-10
5.78742e-09
3.08706e-10
5.17242e-09
6.14994e-10
4.80896e-09
3.63466e-10
4.1376e-09
6.71357e-10
3.38155e-09
7.5605e-10
2.94758e-09
4.33969e-10
2.1946e-09
7.5297e-10
1.59944e-09
5.95163e-10
9.36581e-10
6.62856e-10
1.28358e-15
9.36577e-10
-6.15119e-18
1.0972e-17
-9.57006e-18
3.41887e-18
-1.08738e-17
1.30179e-18
-1.1307e-17
4.3098e-19
-1.12676e-17
-4.16555e-20
-1.0913e-17
-3.56774e-19
-1.0327e-17
-5.88091e-19
-9.56807e-18
-7.60972e-19
-8.68342e-18
-8.86605e-19
-7.71347e-18
-9.7181e-19
-6.69353e-18
-1.02172e-18
-5.65431e-18
-1.04091e-18
-4.62226e-18
-1.03364e-18
-3.61974e-18
-1.00402e-18
-2.66514e-18
-9.55995e-19
-1.77314e-18
-8.93287e-19
-9.54924e-19
-8.194e-19
-2.1845e-19
-7.37551e-19
4.31212e-19
-6.50635e-19
9.91539e-19
-5.61196e-19
1.46218e-18
-4.71412e-19
1.84461e-18
-3.83097e-19
2.14174e-18
-2.97717e-19
2.35765e-18
-2.16409e-19
2.49724e-18
-1.4002e-19
2.566e-18
-6.91356e-20
2.5698e-18
-4.12577e-21
2.51467e-18
5.48204e-20
2.40673e-18
1.07655e-19
2.25201e-18
1.54437e-19
2.05643e-18
1.95301e-19
1.82572e-18
2.30428e-19
1.56541e-18
2.60024e-19
1.28083e-18
2.84299e-19
9.77097e-19
3.03447e-19
6.5917e-19
3.1764e-19
3.31879e-19
3.27002e-19
3.3159e-19
1.61568e-11
5.8291e-11
1.61728e-09
-2.61664e-09
2.21764e-09
-1.52577e-09
3.21398e-09
-2.26511e-09
4.31123e-09
-2.06377e-09
5.06484e-09
-1.68786e-09
5.45949e-09
-1.09538e-09
5.78303e-09
-6.65326e-10
6.14791e-09
-5.26094e-10
6.41723e-09
-8.74686e-10
6.95933e-09
-1.09649e-09
7.19835e-09
-4.01704e-10
7.26329e-09
-2.52542e-10
7.29524e-09
-1.35987e-10
7.38356e-09
-1.90103e-10
7.56706e-09
-2.26774e-10
7.76559e-09
-1.95269e-10
7.96854e-09
-2.16874e-10
8.13213e-09
-1.8665e-10
8.23396e-09
-1.66703e-10
8.23812e-09
-1.4513e-10
8.20442e-09
-7.23492e-11
8.16928e-09
8.99086e-12
8.12794e-09
4.39671e-11
8.1027e-09
3.4042e-11
8.07863e-09
8.60753e-11
8.05395e-09
1.14258e-10
7.97941e-09
2.32461e-10
7.91285e-09
2.41441e-10
7.86323e-09
2.36867e-10
7.77482e-09
2.7973e-10
7.68298e-09
2.4789e-10
7.6354e-09
1.34054e-10
7.60332e-09
6.9024e-11
7.5479e-09
6.88158e-11
7.49602e-09
6.89454e-11
7.46034e-09
2.42582e-11
7.45527e-09
-2.51476e-11
7.47987e-09
-7.15906e-11
7.50015e-09
-1.03549e-10
7.54762e-09
-1.10564e-10
7.58548e-09
-7.47473e-11
7.62188e-09
-7.45024e-11
7.64267e-09
-7.35549e-11
7.68128e-09
-1.00095e-10
7.66208e-09
-1.05977e-10
7.69668e-09
-8.62114e-11
7.72465e-09
-1.12913e-10
7.75241e-09
-1.1048e-10
7.80531e-09
-7.73219e-11
7.87112e-09
-6.20495e-11
7.88714e-09
1.15514e-11
7.84993e-09
7.197e-11
7.80007e-09
8.43718e-11
7.73736e-09
8.09451e-11
7.65996e-09
1.26948e-10
7.61269e-09
9.29762e-11
7.52139e-09
7.68199e-11
7.49285e-09
3.63057e-11
7.5244e-09
-3.59237e-11
7.49025e-09
7.56935e-11
7.47906e-09
4.83548e-11
7.41975e-09
1.63761e-10
7.32219e-09
1.82182e-10
7.22178e-09
2.68094e-10
7.0253e-09
3.04054e-10
6.93293e-09
2.29951e-10
6.87281e-09
1.43015e-10
6.73986e-09
2.67898e-10
6.53309e-09
3.65961e-10
6.30815e-09
4.91325e-10
6.05831e-09
6.0622e-10
5.53535e-09
8.31667e-10
5.24494e-09
9.05402e-10
4.56778e-09
1.04062e-09
4.29643e-09
9.4271e-10
3.80976e-09
1.24271e-09
2.72331e-09
1.52041e-09
1.95621e-09
1.52007e-09
1.05522e-09
1.49615e-09
2.216e-10
1.49648e-09
9.77388e-16
1.15817e-09
-1.27518e-17
1.83545e-18
-1.16872e-17
2.35235e-18
-1.17445e-17
1.35524e-18
-1.17794e-17
4.619e-19
-1.15824e-17
-2.4258e-19
-1.11439e-17
-7.98988e-19
-1.04997e-17
-1.2359e-18
-9.6937e-18
-1.57042e-18
-8.76862e-18
-1.81499e-18
-7.76339e-18
-1.9802e-18
-6.71271e-18
-2.07539e-18
-5.64704e-18
-2.1094e-18
-4.59265e-18
-2.09068e-18
-3.57171e-18
-2.02743e-18
-2.60243e-18
-1.92755e-18
-1.69925e-18
-1.79855e-18
-8.73075e-19
-1.64748e-18
-1.31535e-19
-1.48081e-18
5.20652e-19
-1.30436e-18
1.08132e-18
-1.12323e-18
1.5505e-18
-9.41785e-19
1.92999e-18
-7.63634e-19
2.22305e-18
-5.91686e-19
2.43404e-18
-4.28188e-19
2.56812e-18
-2.74794e-19
2.63101e-18
-1.32639e-19
2.62874e-18
-2.41842e-21
2.5675e-18
1.15527e-19
2.45351e-18
2.21139e-19
2.29287e-18
3.14569e-19
2.09156e-18
3.96114e-19
1.85532e-18
4.66162e-19
1.58969e-18
5.25144e-19
1.29998e-18
5.73495e-19
9.91289e-19
6.11623e-19
6.68532e-19
6.3988e-19
3.36468e-19
6.58548e-19
6.6783e-19
2.93442e-10
-2.3515e-10
1.334e-09
-3.65719e-09
2.45443e-09
-2.64621e-09
3.18153e-09
-2.99221e-09
3.78564e-09
-2.66789e-09
4.67379e-09
-2.57601e-09
5.02476e-09
-1.44634e-09
5.50112e-09
-1.14169e-09
6.06449e-09
-1.08946e-09
6.13445e-09
-9.44652e-10
5.96331e-09
-9.25344e-10
6.00187e-09
-4.40267e-10
6.054e-09
-3.0467e-10
6.12434e-09
-2.06319e-10
6.24774e-09
-3.13502e-10
6.37704e-09
-3.5608e-10
6.51396e-09
-3.32182e-10
6.60397e-09
-3.06882e-10
6.68063e-09
-2.63313e-10
6.75734e-09
-2.43414e-10
6.8285e-09
-2.16287e-10
6.90189e-09
-1.45742e-10
6.98994e-09
-7.90587e-11
7.08211e-09
-4.82003e-11
7.16667e-09
-5.0514e-11
7.30165e-09
-4.89083e-11
7.41495e-09
9.61921e-13
7.483e-09
1.64416e-10
7.46451e-09
2.59926e-10
7.40196e-09
2.9942e-10
7.33863e-09
3.43065e-10
7.28291e-09
3.03605e-10
7.22803e-09
1.88933e-10
7.16171e-09
1.35347e-10
7.10138e-09
1.29146e-10
7.0537e-09
1.16633e-10
7.00389e-09
7.40674e-11
6.95871e-09
2.00351e-11
6.95255e-09
-6.54295e-11
6.96931e-09
-1.20306e-10
7.00053e-09
-1.41785e-10
7.04645e-09
-1.20666e-10
7.06389e-09
-9.19444e-11
7.07248e-09
-8.21352e-11
7.0355e-09
-6.31188e-11
6.97282e-09
-4.32926e-11
6.92467e-09
-3.80622e-11
6.85201e-09
-4.02524e-11
6.80705e-09
-6.55214e-11
6.80634e-09
-7.6602e-11
6.83703e-09
-9.27378e-11
6.86342e-09
-1.48365e-11
6.85606e-09
7.93256e-11
6.84436e-09
9.60708e-11
6.80976e-09
1.15554e-10
6.77333e-09
1.63373e-10
6.69461e-09
1.71703e-10
6.59244e-09
1.78991e-10
6.52714e-09
1.01608e-10
6.48508e-09
6.13779e-12
6.4506e-09
1.10166e-10
6.47538e-09
2.35776e-11
6.44319e-09
1.9595e-10
6.37497e-09
2.50409e-10
6.35391e-09
2.89151e-10
6.25297e-09
4.04995e-10
6.08075e-09
4.02164e-10
6.04201e-09
1.81754e-10
5.94459e-09
3.65321e-10
5.80672e-09
5.03826e-10
5.72443e-09
5.73617e-10
5.45367e-09
8.76973e-10
5.22235e-09
1.06299e-09
4.85563e-09
1.27212e-09
4.413e-09
1.48324e-09
4.07031e-09
1.2854e-09
3.51535e-09
1.79767e-09
3.0562e-09
1.97956e-09
2.73447e-09
1.84179e-09
1.98328e-09
2.24733e-09
8.07029e-10
2.67273e-09
9.41235e-16
1.9652e-09
-1.22742e-17
1.09668e-17
-1.26847e-17
2.76129e-18
-1.26379e-17
1.30507e-18
-1.24837e-17
3.04225e-19
-1.21385e-17
-5.91226e-19
-1.15804e-17
-1.3603e-18
-1.0834e-17
-1.98547e-18
-9.93828e-18
-2.46916e-18
-8.93383e-18
-2.82234e-18
-7.85858e-18
-3.05819e-18
-6.74671e-18
-3.18986e-18
-5.62833e-18
-3.23024e-18
-4.52941e-18
-3.19191e-18
-3.47182e-18
-3.08716e-18
-2.47343e-18
-2.92793e-18
-1.54818e-18
-2.72562e-18
-7.06406e-19
-2.49092e-18
4.49143e-20
-2.23365e-18
7.01779e-19
-1.9626e-18
1.26277e-18
-1.68546e-18
1.72865e-18
-1.40876e-18
2.10193e-18
-1.13789e-18
2.38655e-18
-8.77145e-19
2.58743e-18
-6.29817e-19
2.71028e-18
-3.9829e-19
2.76123e-18
-1.84166e-19
2.74669e-18
1.16068e-20
2.67312e-18
1.88615e-19
2.54694e-18
3.46859e-19
2.37442e-18
4.86645e-19
2.1616e-18
6.08487e-19
1.9143e-18
7.13026e-19
1.63804e-18
8.00961e-19
1.33811e-18
8.72983e-19
1.01955e-18
9.29737e-19
6.872e-19
9.71779e-19
3.45749e-19
9.99549e-19
1.01336e-18
1.52978e-09
-1.76493e-09
1.33555e-09
-3.46296e-09
2.67378e-09
-3.98444e-09
3.3168e-09
-3.63523e-09
3.45222e-09
-2.80331e-09
4.01791e-09
-3.14169e-09
4.52824e-09
-1.95668e-09
4.93399e-09
-1.54744e-09
5.00978e-09
-1.16524e-09
4.93632e-09
-8.71194e-10
4.86539e-09
-8.54414e-10
4.91516e-09
-4.90036e-10
4.99351e-09
-3.83017e-10
5.1001e-09
-3.12907e-10
5.10241e-09
-3.1581e-10
5.05896e-09
-3.1263e-10
5.06943e-09
-3.4265e-10
5.11006e-09
-3.47515e-10
5.19107e-09
-3.44319e-10
5.28992e-09
-3.42268e-10
5.39215e-09
-3.18513e-10
5.47899e-09
-2.3258e-10
5.60063e-09
-2.00705e-10
5.73802e-09
-1.85587e-10
5.88942e-09
-2.01907e-10
6.02451e-09
-1.84006e-10
6.1288e-09
-1.03325e-10
6.24713e-09
4.60906e-11
6.29583e-09
2.11223e-10
6.2961e-09
2.99152e-10
6.32308e-09
3.1609e-10
6.29651e-09
3.30173e-10
6.24808e-09
2.37363e-10
6.19901e-09
1.84418e-10
6.20195e-09
1.26205e-10
6.19204e-09
1.26547e-10
6.21026e-09
5.58547e-11
6.15974e-09
7.05528e-11
6.09633e-09
-2.01379e-12
6.05683e-09
-8.08101e-11
5.97745e-09
-6.23986e-11
5.94309e-09
-8.63039e-11
5.93595e-09
-8.4811e-11
5.95771e-09
-1.03886e-10
5.95461e-09
-6.00236e-11
5.94577e-09
-3.44455e-11
5.94995e-09
-4.22453e-11
5.93302e-09
-2.33186e-11
5.8813e-09
-1.37971e-11
5.81476e-09
-1.00661e-11
5.7228e-09
-7.75602e-13
5.72064e-09
-1.26772e-11
5.67932e-09
1.20655e-10
5.66017e-09
1.15222e-10
5.63354e-09
1.42185e-10
5.60991e-09
1.87003e-10
5.57038e-09
2.11227e-10
5.52792e-09
2.21453e-10
5.47869e-09
1.50836e-10
5.36453e-09
1.20301e-10
5.31321e-09
1.61486e-10
5.27281e-09
6.39818e-11
5.22633e-09
2.42429e-10
5.15999e-09
3.16749e-10
5.16048e-09
2.88662e-10
5.16223e-09
4.03244e-10
5.07101e-09
4.93378e-10
5.04471e-09
2.0806e-10
4.82461e-09
5.85412e-10
4.86391e-09
4.64524e-10
4.76661e-09
6.70917e-10
4.57943e-09
1.06416e-09
4.44428e-09
1.19814e-09
4.16351e-09
1.55288e-09
3.78865e-09
1.8581e-09
3.25423e-09
1.81982e-09
2.86334e-09
2.18856e-09
2.57389e-09
2.26901e-09
1.56873e-09
2.84694e-09
5.52431e-10
3.26363e-09
2.95819e-10
2.92934e-09
8.61205e-16
2.26101e-09
-1.79319e-17
-1.63699e-17
-1.41415e-17
-1.03068e-18
-1.36388e-17
7.99064e-19
-1.3379e-17
4.09915e-20
-1.29072e-17
-1.06632e-18
-1.22052e-17
-2.06553e-18
-1.13175e-17
-2.87628e-18
-1.02915e-17
-3.49822e-18
-9.16968e-18
-3.94696e-18
-7.99026e-18
-4.2403e-18
-6.78709e-18
-4.39559e-18
-5.58999e-18
-4.42974e-18
-4.42466e-18
-4.35949e-18
-3.3126e-18
-4.20132e-18
-2.27112e-18
-3.97136e-18
-1.31348e-18
-3.68505e-18
-4.49133e-19
-3.35692e-18
3.15964e-19
-3.00027e-18
9.78921e-19
-2.62694e-18
1.53947e-18
-2.24727e-18
1.99952e-18
-1.86994e-18
2.36268e-18
-1.50206e-18
2.63387e-18
-1.14924e-18
2.81896e-18
-8.15696e-19
2.9244e-18
-5.04427e-19
2.957e-18
-2.17381e-19
2.92369e-18
4.43688e-20
2.83136e-18
2.8045e-19
2.68672e-18
4.91029e-19
2.49626e-18
6.76661e-19
2.26614e-18
8.38164e-19
2.00223e-18
9.76501e-19
1.71006e-18
1.0927e-18
1.39486e-18
1.18775e-18
1.06159e-18
1.26257e-18
7.1497e-19
1.31795e-18
3.59557e-19
1.35452e-18
1.37269e-18
1.00453e-09
-2.76946e-09
2.15676e-09
-4.61519e-09
2.50633e-09
-4.334e-09
3.02537e-09
-4.15426e-09
3.31124e-09
-3.08918e-09
3.40276e-09
-3.23321e-09
3.28116e-09
-1.83508e-09
3.669e-09
-1.93528e-09
3.96422e-09
-1.46046e-09
3.95077e-09
-8.57747e-10
3.79966e-09
-7.03296e-10
3.80835e-09
-4.98729e-10
3.85907e-09
-4.33735e-10
3.91638e-09
-3.70215e-10
3.96332e-09
-3.62747e-10
3.99374e-09
-3.43056e-10
4.01982e-09
-3.6873e-10
4.06303e-09
-3.90715e-10
4.1266e-09
-4.07889e-10
4.17877e-09
-3.94441e-10
4.27272e-09
-4.12464e-10
4.34668e-09
-3.06534e-10
4.42736e-09
-2.81387e-10
4.52211e-09
-2.80333e-10
4.5843e-09
-2.64098e-10
4.61703e-09
-2.16737e-10
4.67537e-09
-1.61662e-10
4.75483e-09
-3.33658e-11
4.85535e-09
1.10697e-10
4.9316e-09
2.22901e-10
5.02491e-09
2.2279e-10
5.13248e-09
2.22595e-10
5.15567e-09
2.14175e-10
5.10561e-09
2.34482e-10
5.07248e-09
1.59334e-10
5.03816e-09
1.60871e-10
5.03902e-09
5.49973e-11
5.05383e-09
5.57442e-11
5.03372e-09
1.80971e-11
5.01616e-09
-6.32481e-11
5.04303e-09
-8.92671e-11
5.08075e-09
-1.24022e-10
5.12874e-09
-1.32799e-10
5.1651e-09
-1.40249e-10
5.17264e-09
-6.75607e-11
5.19014e-09
-5.19438e-11
5.20699e-09
-5.90908e-11
5.22492e-09
-4.1248e-11
5.20746e-09
3.66613e-12
5.19807e-09
-6.76169e-13
5.14388e-09
5.3417e-11
5.05901e-09
7.21913e-11
5.03149e-09
1.48176e-10
4.96758e-09
1.79133e-10
4.90197e-09
2.07795e-10
4.86123e-09
2.27753e-10
4.81801e-09
2.54439e-10
4.77133e-09
2.68142e-10
4.70537e-09
2.16794e-10
4.61633e-09
2.0934e-10
4.53991e-09
2.37909e-10
4.4573e-09
1.46591e-10
4.36603e-09
3.33698e-10
4.3393e-09
3.43483e-10
4.24168e-09
3.86279e-10
4.23644e-09
4.08482e-10
4.23275e-09
4.97061e-10
4.0012e-09
4.39616e-10
3.99976e-09
5.86844e-10
3.75607e-09
7.08218e-10
3.66699e-09
7.59996e-10
3.60995e-09
1.1212e-09
3.62986e-09
1.17823e-09
3.69553e-09
1.48721e-09
3.6592e-09
1.89443e-09
3.24765e-09
2.23136e-09
2.93452e-09
2.50169e-09
2.32423e-09
2.87929e-09
1.97645e-09
3.19472e-09
1.84401e-09
3.39607e-09
1.25511e-09
3.51824e-09
9.64116e-16
3.51612e-09
-2.59386e-18
2.70413e-17
-1.23119e-17
8.68571e-18
-1.43967e-17
2.8806e-18
-1.4486e-17
1.26901e-19
-1.39061e-17
-1.64953e-18
-1.30157e-17
-2.95925e-18
-1.19393e-17
-3.95574e-18
-1.07402e-17
-4.70033e-18
-9.46302e-18
-5.22698e-18
-8.14554e-18
-5.56048e-18
-6.82125e-18
-5.72243e-18
-5.51974e-18
-5.73365e-18
-4.26649e-18
-5.61498e-18
-3.08263e-18
-5.38728e-18
-1.98481e-18
-5.07111e-18
-9.85353e-19
-4.68631e-18
-9.24746e-20
-4.25146e-18
6.89286e-19
-3.78356e-18
1.3586e-18
-3.29767e-18
1.9168e-18
-2.80678e-18
2.36739e-18
-2.32172e-18
2.7155e-18
-1.85124e-18
2.96742e-18
-1.40212e-18
3.13023e-18
-9.79364e-19
3.21145e-18
-5.86403e-19
3.21875e-18
-2.25354e-19
3.15978e-18
1.02756e-19
3.04194e-18
3.97757e-19
2.87236e-18
6.60125e-19
2.65776e-18
8.90796e-19
2.40448e-18
1.091e-18
2.11843e-18
1.26212e-18
1.80511e-18
1.40558e-18
1.46969e-18
1.52274e-18
1.11697e-18
1.61485e-18
7.51536e-19
1.68295e-18
3.77732e-19
1.72788e-18
1.75021e-18
1.31984e-09
-4.0893e-09
1.15447e-09
-4.44983e-09
1.68855e-09
-4.86808e-09
2.15819e-09
-4.6239e-09
2.78881e-09
-3.71979e-09
3.16713e-09
-3.61153e-09
3.24884e-09
-1.91679e-09
3.41321e-09
-2.09964e-09
3.11071e-09
-1.15797e-09
3.07099e-09
-8.18017e-10
3.04403e-09
-6.76337e-10
3.11521e-09
-5.69908e-10
3.14652e-09
-4.65043e-10
3.17094e-09
-3.94637e-10
3.20297e-09
-3.94779e-10
3.23827e-09
-3.78349e-10
3.25827e-09
-3.88737e-10
3.24138e-09
-3.73816e-10
3.25085e-09
-4.17359e-10
3.25633e-09
-3.9992e-10
3.25235e-09
-4.08486e-10
3.28247e-09
-3.36649e-10
3.32076e-09
-3.1968e-10
3.354e-09
-3.13569e-10
3.4054e-09
-3.15499e-10
3.42654e-09
-2.37882e-10
3.43947e-09
-1.74584e-10
3.45418e-09
-4.80793e-11
3.57671e-09
-1.18345e-11
3.72558e-09
7.4033e-11
3.72421e-09
2.24165e-10
3.81543e-09
1.31376e-10
3.88418e-09
1.45422e-10
3.92715e-09
1.9152e-10
3.96522e-09
1.21263e-10
4.08124e-09
4.48472e-11
4.09881e-09
3.74315e-11
4.13479e-09
1.97671e-11
4.23243e-09
-7.95403e-11
4.31114e-09
-1.41961e-10
4.49908e-09
-2.77204e-10
4.59713e-09
-2.22074e-10
4.67145e-09
-2.07117e-10
4.73803e-09
-2.0682e-10
4.77216e-09
-1.01696e-10
4.78047e-09
-6.0254e-11
4.79932e-09
-7.79381e-11
4.81437e-09
-5.62896e-11
4.80169e-09
1.63482e-11
4.77412e-09
2.68941e-11
4.75521e-09
7.23236e-11
4.67311e-09
1.5429e-10
4.66146e-09
1.59836e-10
4.62786e-09
2.12728e-10
4.52924e-09
3.06422e-10
4.44838e-09
3.08606e-10
4.40523e-09
2.97591e-10
4.3478e-09
3.25577e-10
4.24602e-09
3.18572e-10
4.15888e-09
2.96478e-10
4.087e-09
3.09787e-10
4.0014e-09
2.32196e-10
3.92953e-09
4.05569e-10
3.85633e-09
4.16678e-10
3.76342e-09
4.79192e-10
3.63598e-09
5.35916e-10
3.57312e-09
5.59926e-10
3.40096e-09
6.11769e-10
3.40956e-09
5.78247e-10
3.12681e-09
9.90964e-10
2.92968e-09
9.57131e-10
2.70241e-09
1.34846e-09
2.27931e-09
1.60132e-09
1.94494e-09
1.82158e-09
1.65186e-09
2.1875e-09
1.887e-09
1.99622e-09
1.83618e-09
2.55251e-09
1.59878e-09
3.11669e-09
1.44067e-09
3.35283e-09
1.08625e-09
3.75048e-09
4.89978e-10
4.1145e-09
8.77508e-16
4.0061e-09
-2.09464e-17
1.12661e-17
-1.8116e-17
5.85373e-18
-1.71499e-17
1.91118e-18
-1.62621e-17
-7.64347e-19
-1.52155e-17
-2.6994e-18
-1.40119e-17
-4.16614e-18
-1.26838e-17
-5.28695e-18
-1.12668e-17
-6.12027e-18
-9.79652e-18
-6.70016e-18
-8.30749e-18
-7.05223e-18
-6.83247e-18
-7.20001e-18
-5.40107e-18
-7.16747e-18
-4.03879e-18
-6.97953e-18
-2.76647e-18
-6.66172e-18
-1.60001e-18
-6.23953e-18
-5.50508e-19
-5.73762e-18
3.75427e-19
-5.17908e-18
1.17518e-18
-4.58487e-18
1.84949e-18
-3.97344e-18
2.40186e-18
-3.36049e-18
2.83787e-18
-2.75897e-18
3.16462e-18
-2.17911e-18
3.39018e-18
-1.62871e-18
3.52319e-18
-1.1133e-18
3.5725e-18
-6.36534e-19
3.54686e-18
-2.00448e-19
3.45478e-18
1.94202e-19
3.30431e-18
5.47656e-19
3.10303e-18
8.60891e-19
2.85796e-18
1.13538e-18
2.5756e-18
1.37291e-18
2.26188e-18
1.5754e-18
1.92228e-18
1.74475e-18
1.56179e-18
1.88279e-18
1.18508e-18
1.99113e-18
7.96467e-19
2.07113e-18
4.00054e-19
2.12386e-18
2.15004e-18
4.50856e-10
-4.54015e-09
1.65588e-09
-5.65485e-09
2.06065e-09
-5.27284e-09
2.12101e-09
-4.68426e-09
2.33891e-09
-3.93769e-09
2.201e-09
-3.47362e-09
2.28901e-09
-2.00481e-09
2.40799e-09
-2.21862e-09
2.26115e-09
-1.01112e-09
2.38692e-09
-9.43782e-10
2.42826e-09
-7.17675e-10
2.49926e-09
-6.40915e-10
2.55141e-09
-5.17188e-10
2.59568e-09
-4.38908e-10
2.61527e-09
-4.14371e-10
2.62813e-09
-3.91202e-10
2.64251e-09
-4.03121e-10
2.61654e-09
-3.47842e-10
2.58333e-09
-3.84153e-10
2.54629e-09
-3.62874e-10
2.48831e-09
-3.50504e-10
2.49264e-09
-3.40979e-10
2.52671e-09
-3.53747e-10
2.52326e-09
-3.10122e-10
2.53057e-09
-3.22808e-10
2.57252e-09
-2.79832e-10
2.56195e-09
-1.64015e-10
2.60385e-09
-8.99796e-11
2.7288e-09
-1.36781e-10
2.79869e-09
4.13988e-12
2.90752e-09
1.15344e-10
3.04239e-09
-3.5007e-12
3.20747e-09
-1.96494e-11
3.36174e-09
3.72485e-11
3.42015e-09
6.2859e-11
3.58597e-09
-1.2098e-10
3.71142e-09
-8.80096e-11
3.84376e-09
-1.12573e-10
3.96817e-09
-2.03955e-10
3.9819e-09
-1.55686e-10
4.02036e-09
-3.15667e-10
4.09922e-09
-3.00923e-10
4.17919e-09
-2.87088e-10
4.25022e-09
-2.77857e-10
4.30171e-09
-1.5318e-10
4.33791e-09
-9.64552e-11
4.36148e-09
-1.015e-10
4.3819e-09
-7.67071e-11
4.39328e-09
4.96577e-12
4.36804e-09
5.21333e-11
4.33345e-09
1.06915e-10
4.28645e-09
2.01296e-10
4.19994e-09
2.46347e-10
4.1654e-09
2.47271e-10
4.10537e-09
3.66454e-10
4.00266e-09
4.11311e-10
3.92367e-09
3.76581e-10
3.87305e-09
3.76197e-10
3.7791e-09
4.12524e-10
3.67832e-09
3.97256e-10
3.64495e-09
3.43157e-10
3.52543e-09
3.51717e-10
3.50912e-09
4.21882e-10
3.42529e-09
5.00514e-10
3.37501e-09
5.2947e-10
3.28944e-09
6.21484e-10
3.07963e-09
7.6973e-10
2.93734e-09
7.54057e-10
2.74383e-09
7.7176e-10
2.74456e-09
9.9023e-10
2.58223e-09
1.11946e-09
2.65704e-09
1.27364e-09
2.56875e-09
1.68962e-09
2.3369e-09
2.05343e-09
2.36481e-09
2.15959e-09
2.01157e-09
2.34945e-09
1.27645e-09
3.28762e-09
9.50637e-10
3.44251e-09
5.43644e-10
3.75982e-09
1.8195e-10
4.11217e-09
7.23076e-11
4.22414e-09
8.48575e-16
4.0784e-09
-2.63568e-17
1.26179e-18
-2.20574e-17
1.5528e-18
-1.98247e-17
-3.24818e-19
-1.81966e-17
-2.39587e-18
-1.66819e-17
-4.21746e-18
-1.51324e-17
-5.71892e-18
-1.3517e-17
-6.90548e-18
-1.18467e-17
-7.7936e-18
-1.01486e-17
-8.40122e-18
-8.45527e-18
-8.7483e-18
-6.79994e-18
-8.85796e-18
-5.21312e-18
-8.75675e-18
-3.72098e-18
-8.47399e-18
-2.34428e-18
-8.04058e-18
-1.0981e-18
-7.48772e-18
8.03368e-21
-6.8456e-18
9.69636e-19
-6.14239e-18
1.78661e-18
-5.40343e-18
2.46244e-18
-4.65075e-18
3.00339e-18
-3.90282e-18
3.41772e-18
-3.17458e-18
3.71502e-18
-2.47759e-18
3.90558e-18
-1.82035e-18
3.99996e-18
-1.20866e-18
4.00859e-18
-6.46046e-19
3.94151e-18
-1.34166e-19
3.80823e-18
3.26788e-19
3.61754e-18
7.3773e-19
3.37752e-18
1.10037e-18
3.09549e-18
1.41691e-18
2.77808e-18
1.68986e-18
2.43124e-18
1.9218e-18
2.06031e-18
2.11524e-18
1.67013e-18
2.27254e-18
1.26508e-18
2.39574e-18
8.49198e-19
2.48658e-18
4.26236e-19
2.54639e-18
2.57606e-18
9.16032e-10
-5.45618e-09
8.48828e-10
-5.58765e-09
1.21684e-09
-5.64085e-09
1.54423e-09
-5.01166e-09
1.82205e-09
-4.2155e-09
1.80816e-09
-3.45973e-09
2.07521e-09
-2.27185e-09
1.86313e-09
-2.00654e-09
1.90948e-09
-1.05747e-09
1.94138e-09
-9.75686e-10
2.05158e-09
-8.27871e-10
2.05675e-09
-6.46088e-10
2.11444e-09
-5.74874e-10
2.15131e-09
-4.75776e-10
2.15703e-09
-4.20088e-10
2.13895e-09
-3.73123e-10
2.12392e-09
-3.88088e-10
2.12863e-09
-3.5255e-10
2.0976e-09
-3.53119e-10
2.07869e-09
-3.43967e-10
2.05596e-09
-3.27775e-10
2.0561e-09
-3.41112e-10
2.07429e-09
-3.71942e-10
2.10038e-09
-3.36213e-10
2.09259e-09
-3.15018e-10
2.12344e-09
-3.10673e-10
2.16755e-09
-2.0813e-10
2.23193e-09
-1.54353e-10
2.3424e-09
-2.47256e-10
2.42442e-09
-7.78778e-11
2.54837e-09
-8.60851e-12
2.68436e-09
-1.39482e-10
2.82041e-09
-1.557e-10
2.92585e-09
-6.81878e-11
3.03832e-09
-4.96158e-11
3.09621e-09
-1.78865e-10
3.19231e-09
-1.84109e-10
3.29415e-09
-2.14409e-10
3.34178e-09
-2.51588e-10
3.42126e-09
-2.35166e-10
3.47464e-09
-3.69038e-10
3.54407e-09
-3.70355e-10
3.60479e-09
-3.47811e-10
3.66532e-09
-3.38386e-10
3.73052e-09
-2.18376e-10
3.80565e-09
-1.71579e-10
3.82782e-09
-1.23673e-10
3.80699e-09
-5.5872e-11
3.78998e-09
2.19708e-11
3.79576e-09
4.63572e-11
3.75528e-09
1.47402e-10
3.71364e-09
2.42935e-10
3.67286e-09
2.87127e-10
3.61906e-09
3.01074e-10
3.5671e-09
4.18412e-10
3.51631e-09
4.62103e-10
3.42503e-09
4.67858e-10
3.37387e-09
4.2736e-10
3.27406e-09
5.12337e-10
3.17328e-09
4.9804e-10
3.12308e-09
3.93353e-10
3.02684e-09
4.47957e-10
3.02704e-09
4.21681e-10
2.95984e-09
5.67717e-10
2.90148e-09
5.87829e-10
2.84967e-09
6.73289e-10
2.73831e-09
8.81091e-10
2.61676e-09
8.75603e-10
2.67708e-09
7.11435e-10
2.59151e-09
1.07581e-09
2.37683e-09
1.33414e-09
2.03684e-09
1.61363e-09
1.76859e-09
1.95786e-09
1.61748e-09
2.20453e-09
1.41787e-09
2.35919e-09
9.64504e-10
2.80282e-09
1.01039e-09
3.24174e-09
7.94184e-10
3.65871e-09
4.59749e-10
4.09425e-09
1.97794e-10
4.37413e-09
5.62885e-11
4.36565e-09
8.47263e-16
4.13469e-09
-2.60643e-17
8.31939e-19
-2.39339e-17
-5.79162e-19
-2.1895e-17
-2.36699e-18
-2.00177e-17
-4.27656e-18
-1.8183e-17
-6.05549e-18
-1.63187e-17
-7.58649e-18
-1.44051e-17
-8.82235e-18
-1.24544e-17
-9.74744e-18
-1.04957e-17
-1.03629e-17
-8.56493e-18
-1.06819e-17
-6.69873e-18
-1.07268e-17
-4.93036e-18
-1.05277e-17
-3.28757e-18
-1.01192e-17
-1.79141e-18
-9.53898e-18
-4.55978e-19
-8.82523e-18
7.11242e-19
-8.01473e-18
1.70859e-18
-7.1415e-18
2.53929e-18
-6.23576e-18
3.21037e-18
-5.32335e-18
3.73163e-18
-4.4255e-18
4.11471e-18
-3.55898e-18
4.37226e-18
-2.73637e-18
4.51727e-18
-1.96649e-18
4.56258e-18
-1.255e-18
4.52047e-18
-6.04878e-19
4.40247e-18
-1.7014e-20
4.21917e-18
5.0933e-19
3.98018e-18
9.76064e-19
3.69406e-18
1.3859e-18
3.36844e-18
1.74201e-18
3.01002e-18
2.0478e-18
2.62469e-18
2.30668e-18
2.21761e-18
2.52188e-18
1.79334e-18
2.69637e-18
1.35592e-18
2.83273e-18
9.09003e-19
2.93307e-18
4.55911e-19
2.99905e-18
3.03176e-18
3.37112e-10
-5.79329e-09
1.18394e-09
-6.43448e-09
1.43946e-09
-5.89636e-09
1.54376e-09
-5.11596e-09
1.50728e-09
-4.17902e-09
1.45037e-09
-3.40282e-09
1.65709e-09
-2.47857e-09
1.48209e-09
-1.83155e-09
1.58543e-09
-1.16081e-09
1.50614e-09
-8.96394e-10
1.70501e-09
-1.02673e-09
1.69204e-09
-6.33118e-10
1.75708e-09
-6.39914e-10
1.76584e-09
-4.84531e-10
1.77711e-09
-4.31357e-10
1.79513e-09
-3.91148e-10
1.75525e-09
-3.48203e-10
1.76025e-09
-3.57553e-10
1.76447e-09
-3.57339e-10
1.74075e-09
-3.20246e-10
1.739e-09
-3.26018e-10
1.73646e-09
-3.38578e-10
1.73866e-09
-3.74134e-10
1.77541e-09
-3.72968e-10
1.81455e-09
-3.54154e-10
1.82414e-09
-3.20267e-10
1.85076e-09
-2.3475e-10
1.93062e-09
-2.34212e-10
1.98872e-09
-3.05351e-10
2.08684e-09
-1.75992e-10
2.23418e-09
-1.55947e-10
2.29643e-09
-2.01733e-10
2.32987e-09
-1.89138e-10
2.40312e-09
-1.41438e-10
2.47773e-09
-1.24224e-10
2.51955e-09
-2.20684e-10
2.58427e-09
-2.48827e-10
2.66698e-09
-2.97122e-10
2.67648e-09
-2.61087e-10
2.74455e-09
-3.03229e-10
2.77254e-09
-3.97032e-10
2.85301e-09
-4.50827e-10
2.92142e-09
-4.16217e-10
2.99949e-09
-4.16451e-10
3.07987e-09
-2.98758e-10
3.13133e-09
-2.23031e-10
3.15437e-09
-1.46717e-10
3.12473e-09
-2.62317e-11
3.08901e-09
5.76989e-11
3.03878e-09
9.65871e-11
2.98283e-09
2.03354e-10
2.96329e-09
2.62471e-10
2.93942e-09
3.11002e-10
2.9137e-09
3.26793e-10
2.88462e-09
4.47494e-10
2.85928e-09
4.87444e-10
2.79898e-09
5.28163e-10
2.70923e-09
5.17101e-10
2.67747e-09
5.44105e-10
2.6372e-09
5.38303e-10
2.54612e-09
4.84441e-10
2.49693e-09
4.97149e-10
2.48068e-09
4.37922e-10
2.45893e-09
5.89466e-10
2.42741e-09
6.19354e-10
2.41803e-09
6.82668e-10
2.43664e-09
8.62482e-10
2.43308e-09
8.79158e-10
2.29518e-09
8.49329e-10
2.03128e-09
1.33971e-09
1.83216e-09
1.53326e-09
1.53637e-09
1.90942e-09
1.25243e-09
2.2418e-09
9.76474e-10
2.48048e-09
6.36984e-10
2.69868e-09
4.99609e-10
2.94019e-09
4.53795e-10
3.28755e-09
5.29551e-10
3.58295e-09
4.40946e-10
4.18285e-09
1.86992e-10
4.62808e-09
1.09362e-11
4.5417e-09
8.92643e-16
4.14562e-09
-2.74736e-17
-1.12886e-18
-2.57204e-17
-2.33391e-18
-2.38036e-17
-4.28704e-18
-2.1796e-17
-6.28756e-18
-1.97137e-17
-8.14122e-18
-1.75545e-17
-9.74904e-18
-1.53301e-17
-1.105e-17
-1.30698e-17
-1.20109e-17
-1.08146e-17
-1.26211e-17
-8.60991e-18
-1.28895e-17
-6.49955e-18
-1.284e-17
-4.52188e-18
-1.25079e-17
-2.70738e-18
-1.19361e-17
-1.07766e-18
-1.1171e-17
3.54522e-19
-1.02596e-17
1.58447e-18
-9.24667e-18
2.61433e-18
-8.17319e-18
3.45171e-18
-7.07483e-18
4.10821e-18
-5.98142e-18
4.59815e-18
-4.9169e-18
4.93733e-18
-3.89953e-18
5.14214e-18
-2.94243e-18
5.22877e-18
-2.05428e-18
5.2127e-18
-1.24e-18
5.10833e-18
-5.01499e-19
4.92881e-18
1.61609e-19
4.68591e-18
7.51431e-19
4.39001e-18
1.27125e-18
4.05018e-18
1.7251e-18
3.67424e-18
2.1174e-18
3.2689e-18
2.45264e-18
2.83989e-18
2.73522e-18
2.3921e-18
2.96924e-18
1.92969e-18
3.15835e-18
1.45627e-18
3.30572e-18
9.74979e-19
3.41394e-18
4.88621e-19
3.48498e-18
3.52017e-18
5.72005e-10
-6.3653e-09
6.41605e-10
-6.50408e-09
9.32855e-10
-6.18761e-09
1.09966e-09
-5.28276e-09
1.20317e-09
-4.28253e-09
1.24412e-09
-3.44377e-09
1.28625e-09
-2.5207e-09
1.23968e-09
-1.78497e-09
1.35962e-09
-1.28076e-09
1.34428e-09
-8.81051e-10
1.36362e-09
-1.04607e-09
1.36155e-09
-6.31053e-10
1.44759e-09
-7.25947e-10
1.43943e-09
-4.76378e-10
1.41655e-09
-4.08474e-10
1.44966e-09
-4.24252e-10
1.45887e-09
-3.57419e-10
1.44729e-09
-3.45966e-10
1.43555e-09
-3.45602e-10
1.42968e-09
-3.14369e-10
1.43642e-09
-3.32761e-10
1.44371e-09
-3.45866e-10
1.45068e-09
-3.81103e-10
1.47083e-09
-3.93116e-10
1.49378e-09
-3.77109e-10
1.50913e-09
-3.35613e-10
1.57511e-09
-3.00731e-10
1.64078e-09
-2.99873e-10
1.62332e-09
-2.87897e-10
1.71724e-09
-2.69912e-10
1.77979e-09
-2.18488e-10
1.77164e-09
-1.93584e-10
1.7778e-09
-1.95302e-10
1.82803e-09
-1.91658e-10
1.90923e-09
-2.05428e-10
1.93431e-09
-2.4576e-10
1.97864e-09
-2.93161e-10
2.01034e-09
-3.2882e-10
2.00908e-09
-2.59827e-10
2.05977e-09
-3.53913e-10
2.08552e-09
-4.22781e-10
2.19563e-09
-5.60938e-10
2.27931e-09
-4.99892e-10
2.28169e-09
-4.18833e-10
2.30368e-09
-3.20748e-10
2.33405e-09
-2.53396e-10
2.37101e-09
-1.8367e-10
2.41365e-09
-6.88787e-11
2.4129e-09
5.84565e-11
2.39679e-09
1.12697e-10
2.4131e-09
1.87049e-10
2.40034e-09
2.7523e-10
2.39279e-09
3.18548e-10
2.37407e-09
3.45516e-10
2.33833e-09
4.83241e-10
2.26879e-09
5.56978e-10
2.18692e-09
6.10037e-10
2.07812e-09
6.25907e-10
2.02766e-09
5.94563e-10
2.02653e-09
5.3943e-10
1.97949e-09
5.31477e-10
1.94596e-09
5.30682e-10
1.85628e-09
5.27604e-10
1.8454e-09
6.00344e-10
1.84882e-09
6.15935e-10
1.86874e-09
6.62746e-10
1.97958e-09
7.51637e-10
1.93366e-09
9.25081e-10
1.92612e-09
8.5687e-10
1.80758e-09
1.45824e-09
1.65084e-09
1.69e-09
1.37848e-09
2.18178e-09
1.14567e-09
2.47461e-09
8.76463e-10
2.74969e-09
5.11042e-10
3.0641e-09
1.9177e-10
3.25946e-09
-1.002e-10
3.57952e-09
-3.99589e-10
3.88233e-09
-5.2883e-10
4.31209e-09
-6.16614e-10
4.71586e-09
-4.79514e-10
4.4046e-09
9.39679e-16
3.6661e-09
-2.86765e-17
1.85195e-18
-2.7672e-17
-3.33997e-18
-2.58031e-17
-6.15925e-18
-2.36491e-17
-8.44508e-18
-2.13212e-17
-1.04725e-17
-1.88554e-17
-1.22182e-17
-1.62909e-17
-1.36178e-17
-1.36801e-17
-1.4625e-17
-1.1083e-17
-1.52213e-17
-8.5604e-18
-1.5415e-17
-6.16753e-18
-1.52357e-17
-3.95009e-18
-1.4728e-17
-1.94228e-18
-1.39465e-17
-1.6621e-19
-1.29495e-17
1.36743e-18
-1.17955e-17
2.65794e-18
-1.05393e-17
3.7127e-18
-9.22987e-18
4.54511e-18
-7.90901e-18
5.17273e-18
-6.61067e-18
5.61552e-18
-5.3612e-18
5.89442e-18
-4.17983e-18
6.03029e-18
-3.0796e-18
6.04305e-18
-2.06824e-18
5.95119e-18
-1.14924e-18
5.77144e-18
-3.22762e-19
5.51863e-18
4.13481e-19
5.20573e-18
1.06349e-18
4.84386e-18
1.63237e-18
4.44247e-18
2.12583e-18
4.00948e-18
2.5498e-18
3.55148e-18
2.91012e-18
3.0739e-18
3.21233e-18
2.58121e-18
3.46149e-18
2.07706e-18
3.66206e-18
1.56449e-18
3.81787e-18
1.04602e-18
3.932e-18
5.23808e-19
4.00677e-18
4.04377e-18
3.24976e-10
-6.69027e-09
5.81581e-10
-6.76068e-09
5.06818e-10
-6.11285e-09
6.67277e-10