/*--------------------------------*- C++ -*----------------------------------*\
  =========                 |
  \\      /  F ield         | OpenFOAM: The Open Source CFD Toolbox
   \\    /   O peration     | Website:  https://openfoam.org
    \\  /    A nd           | Version:  6
     \\/     M anipulation  |
\*---------------------------------------------------------------------------*/
FoamFile
{
    version     2.0;
    format      ascii;
    class       volScalarField;
    location    "2700";
    object      T;
}
// * * * * * * * * * * * * * * * * * * * * * * * * * * * * * * * * * * * * * //

dimensions      [0 0 0 1 0 0 0];

internalField   nonuniform List<scalar> 
4800
(
552.533
552.499
552.467
552.436
552.405
552.375
552.345
552.315
552.284
552.254
552.224
552.194
552.163
552.132
552.1
552.069
552.037
552.005
551.973
551.941
551.909
551.876
551.844
551.811
551.778
551.745
551.711
551.676
551.64
551.603
551.565
551.526
551.486
551.445
551.403
551.36
551.317
551.273
551.228
551.183
551.137
551.091
551.045
550.998
550.952
550.904
550.856
550.808
550.759
550.709
550.659
550.607
550.554
550.5
550.444
550.386
550.326
550.265
550.202
550.137
550.07
550.001
549.929
549.855
549.777
549.696
549.611
549.521
549.424
549.319
549.203
549.071
548.921
548.744
548.536
548.289
547.994
547.643
547.232
546.757
546.219
545.62
544.972
544.998
544.979
544.923
544.837
544.73
544.608
544.477
544.338
544.195
544.051
543.906
543.762
543.62
543.479
543.341
543.205
543.071
542.939
542.809
542.681
542.554
542.429
542.304
542.18
542.057
541.935
541.813
541.692
541.571
541.45
541.33
541.209
541.089
540.969
540.849
540.73
540.61
552.532
552.497
552.463
552.43
552.398
552.366
552.335
552.304
552.273
552.242
552.21
552.18
552.148
552.117
552.085
552.053
552.021
551.988
551.956
551.924
551.892
551.859
551.827
551.794
551.761
551.727
551.693
551.659
551.623
551.586
551.549
551.509
551.469
551.428
551.386
551.343
551.299
551.255
551.209
551.164
551.118
551.072
551.025
550.979
550.931
550.884
550.836
550.787
550.738
550.688
550.637
550.586
550.532
550.478
550.421
550.363
550.304
550.242
550.178
550.113
550.045
549.976
549.904
549.83
549.752
549.671
549.585
549.494
549.398
549.292
549.176
549.045
548.895
548.72
548.514
548.269
547.978
547.633
547.228
546.761
546.233
545.649
545.004
545.039
545.011
544.944
544.85
544.737
544.612
544.478
544.337
544.194
544.049
543.904
543.76
543.618
543.478
543.339
543.204
543.07
542.938
542.809
542.68
542.554
542.428
542.303
542.18
542.057
541.935
541.813
541.691
541.57
541.45
541.329
541.209
541.089
540.969
540.849
540.73
540.61
552.531
552.493
552.455
552.419
552.383
552.349
552.315
552.283
552.25
552.217
552.185
552.153
552.12
552.088
552.055
552.022
551.989
551.956
551.923
551.89
551.858
551.825
551.792
551.759
551.726
551.692
551.658
551.624
551.589
551.552
551.514
551.475
551.435
551.393
551.35
551.307
551.263
551.218
551.172
551.126
551.079
551.033
550.986
550.939
550.891
550.843
550.795
550.746
550.696
550.646
550.595
550.543
550.489
550.434
550.378
550.319
550.259
550.196
550.132
550.065
549.997
549.927
549.855
549.78
549.702
549.62
549.534
549.442
549.345
549.239
549.123
548.993
548.844
548.671
548.467
548.227
547.943
547.609
547.222
546.779
546.282
545.736
545.113
545.137
545.077
544.985
544.873
544.75
544.617
544.479
544.336
544.191
544.046
543.9
543.757
543.614
543.474
543.337
543.201
543.068
542.937
542.807
542.679
542.552
542.427
542.303
542.179
542.056
541.934
541.812
541.691
541.57
541.449
541.329
541.209
541.089
540.969
540.849
540.73
540.61
552.529
552.486
552.443
552.402
552.362
552.323
552.287
552.252
552.217
552.182
552.148
552.114
552.08
552.046
552.012
551.978
551.944
551.91
551.876
551.842
551.809
551.776
551.742
551.709
551.675
551.641
551.607
551.573
551.537
551.501
551.463
551.423
551.383
551.341
551.298
551.253
551.209
551.163
551.116
551.069
551.022
550.975
550.927
550.88
550.832
550.784
550.735
550.686
550.636
550.585
550.534
550.481
550.427
550.372
550.315
550.256
550.195
550.131
550.066
549.998
549.929
549.858
549.784
549.708
549.63
549.547
549.46
549.368
549.27
549.164
549.047
548.917
548.769
548.598
548.398
548.162
547.887
547.566
547.198
546.784
546.34
545.893
545.5
545.313
545.17
545.036
544.902
544.764
544.622
544.479
544.333
544.186
544.04
543.895
543.751
543.609
543.47
543.333
543.198
543.065
542.934
542.805
542.677
542.551
542.425
542.301
542.178
542.055
541.933
541.812
541.69
541.57
541.449
541.329
541.209
541.089
540.969
540.849
540.729
540.61
552.526
552.476
552.428
552.38
552.335
552.292
552.252
552.213
552.175
552.138
552.102
552.066
552.03
551.995
551.959
551.924
551.888
551.853
551.818
551.783
551.749
551.714
551.68
551.646
551.611
551.577
551.542
551.507
551.471
551.434
551.396
551.356
551.315
551.273
551.229
551.184
551.138
551.092
551.044
550.997
550.949
550.901
550.853
550.805
550.757
550.709
550.66
550.61
550.56
550.51
550.458
550.405
550.35
550.294
550.237
550.177
550.115
550.051
549.984
549.915
549.845
549.772
549.698
549.621
549.541
549.457
549.37
549.276
549.178
549.07
548.953
548.823
548.675
548.506
548.309
548.081
547.815
547.51
547.166
546.789
546.394
546.008
545.677
545.438
545.248
545.081
544.926
544.774
544.625
544.476
544.327
544.179
544.032
543.887
543.744
543.603
543.464
543.327
543.193
543.061
542.93
542.802
542.674
542.548
542.423
542.299
542.176
542.054
541.932
541.811
541.69
541.569
541.448
541.328
541.208
541.088
540.969
540.849
540.729
540.61
552.522
552.465
552.408
552.354
552.303
552.255
552.21
552.167
552.127
552.087
552.048
552.01
551.973
551.935
551.898
551.861
551.824
551.787
551.751
551.714
551.679
551.643
551.608
551.572
551.537
551.501
551.466
551.43
551.393
551.355
551.316
551.276
551.234
551.191
551.147
551.101
551.054
551.007
550.959
550.911
550.862
550.813
550.765
550.716
550.668
550.62
550.571
550.521
550.471
550.42
550.368
550.315
550.26
550.203
550.145
550.084
550.021
549.956
549.889
549.819
549.747
549.673
549.597
549.519
549.438
549.354
549.266
549.172
549.072
548.965
548.846
548.715
548.566
548.396
548.201
547.977
547.723
547.433
547.111
546.765
546.406
546.061
545.758
545.506
545.295
545.109
544.939
544.778
544.621
544.468
544.317
544.168
544.022
543.877
543.734
543.594
543.456
543.321
543.187
543.056
542.926
542.798
542.671
542.545
542.421
542.297
542.174
542.052
541.931
541.809
541.688
541.568
541.448
541.328
541.208
541.088
540.968
540.849
540.729
540.61
552.517
552.451
552.387
552.325
552.267
552.213
552.164
552.117
552.073
552.03
551.989
551.948
551.908
551.869
551.829
551.791
551.752
551.714
551.676
551.638
551.601
551.564
551.527
551.49
551.453
551.417
551.38
551.343
551.305
551.266
551.227
551.185
551.142
551.098
551.053
551.007
550.959
550.911
550.862
550.812
550.763
550.713
550.664
550.615
550.567
550.518
550.469
550.419
550.369
550.318
550.265
550.212
550.157
550.1
550.041
549.979
549.915
549.849
549.781
549.709
549.636
549.561
549.484
549.406
549.324
549.239
549.15
549.056
548.956
548.849
548.73
548.599
548.451
548.282
548.089
547.869
547.621
547.342
547.038
546.715
546.386
546.068
545.78
545.529
545.31
545.116
544.938
544.771
544.61
544.455
544.304
544.155
544.008
543.865
543.723
543.584
543.447
543.313
543.18
543.05
542.921
542.793
542.667
542.542
542.418
542.295
542.172
542.05
541.929
541.808
541.687
541.567
541.447
541.327
541.207
541.087
540.968
540.848
540.729
540.61
552.512
552.436
552.362
552.293
552.228
552.168
552.113
552.062
552.014
551.968
551.923
551.88
551.838
551.796
551.755
551.715
551.674
551.634
551.595
551.556
551.517
551.478
551.44
551.401
551.363
551.325
551.287
551.249
551.209
551.169
551.128
551.085
551.042
550.997
550.95
550.902
550.854
550.804
550.754
550.703
550.652
550.602
550.552
550.502
550.453
550.404
550.355
550.305
550.255
550.203
550.151
550.097
550.041
549.984
549.924
549.862
549.798
549.731
549.661
549.589
549.514
549.438
549.36
549.281
549.199
549.114
549.025
548.931
548.831
548.724
548.607
548.475
548.326
548.157
547.965
547.748
547.506
547.239
546.95
546.646
546.338
546.039
545.761
545.514
545.297
545.101
544.921
544.753
544.592
544.437
544.285
544.138
543.993
543.85
543.71
543.573
543.437
543.304
543.173
543.043
542.915
542.788
542.663
542.538
542.415
542.292
542.17
542.048
541.927
541.806
541.686
541.566
541.446
541.326
541.206
541.087
540.967
540.848
540.729
540.61
552.507
552.42
552.337
552.259
552.186
552.12
552.059
552.004
551.952
551.902
551.854
551.808
551.763
551.719
551.676
551.633
551.591
551.549
551.508
551.467
551.427
551.387
551.346
551.307
551.267
551.227
551.188
551.147
551.106
551.065
551.022
550.978
550.933
550.887
550.839
550.789
550.739
550.688
550.637
550.585
550.532
550.481
550.43
550.379
550.33
550.28
550.231
550.181
550.13
550.078
550.025
549.971
549.915
549.857
549.797
549.735
549.67
549.601
549.531
549.458
549.382
549.305
549.226
549.146
549.063
548.978
548.89
548.797
548.698
548.592
548.475
548.344
548.195
548.026
547.833
547.618
547.38
547.121
546.843
546.553
546.259
545.974
545.704
545.467
545.256
545.066
544.89
544.724
544.565
544.412
544.263
544.117
543.974
543.834
543.696
543.56
543.426
543.294
543.164
543.036
542.909
542.783
542.658
542.534
542.411
542.289
542.167
542.046
541.925
541.804
541.684
541.564
541.445
541.325
541.206
541.086
540.967
540.848
540.729
540.61
552.501
552.404
552.31
552.222
552.142
552.069
552.002
551.942
551.885
551.832
551.78
551.731
551.683
551.637
551.591
551.547
551.503
551.459
551.416
551.374
551.332
551.29
551.248
551.206
551.165
551.124
551.082
551.04
550.998
550.955
550.91
550.865
550.818
550.77
550.72
550.67
550.618
550.565
550.512
550.459
550.405
550.352
550.3
550.248
550.198
550.148
550.098
550.047
549.996
549.944
549.891
549.836
549.78
549.721
549.661
549.598
549.532
549.463
549.392
549.317
549.241
549.163
549.083
549.002
548.919
548.834
548.747
548.655
548.558
548.454
548.338
548.208
548.06
547.891
547.698
547.482
547.244
546.986
546.711
546.427
546.142
545.869
545.612
545.39
545.193
545.013
544.846
544.686
544.532
544.383
544.237
544.094
543.954
543.816
543.68
543.546
543.414
543.284
543.155
543.028
542.902
542.777
542.653
542.53
542.407
542.285
542.164
542.043
541.923
541.802
541.683
541.563
541.443
541.324
541.205
541.086
540.966
540.847
540.728
540.609
552.495
552.386
552.282
552.184
552.095
552.015
551.942
551.877
551.816
551.758
551.703
551.65
551.599
551.551
551.503
551.456
551.41
551.365
551.32
551.276
551.232
551.188
551.144
551.101
551.058
551.015
550.972
550.928
550.884
550.839
550.793
550.746
550.697
550.648
550.597
550.544
550.491
550.437
550.382
550.327
550.272
550.217
550.164
550.112
550.06
550.009
549.958
549.907
549.856
549.803
549.749
549.694
549.637
549.578
549.517
549.454
549.387
549.318
549.245
549.17
549.093
549.014
548.934
548.852
548.769
548.684
548.598
548.508
548.412
548.31
548.196
548.068
547.92
547.751
547.558
547.342
547.102
546.84
546.561
546.272
545.986
545.72
545.483
545.286
545.111
544.948
544.792
544.641
544.494
544.35
544.209
544.07
543.932
543.797
543.664
543.532
543.402
543.273
543.146
543.02
542.895
542.771
542.647
542.525
542.403
542.282
542.161
542.04
541.92
541.8
541.681
541.561
541.442
541.323
541.204
541.085
540.966
540.847
540.728
540.609
552.489
552.368
552.253
552.146
552.047
551.959
551.88
551.808
551.742
551.68
551.621
551.566
551.512
551.461
551.41
551.361
551.313
551.266
551.219
551.173
551.127
551.082
551.037
550.992
550.947
550.902
550.857
550.811
550.766
550.719
550.672
550.623
550.573
550.522
550.469
550.415
550.36
550.305
550.248
550.192
550.136
550.08
550.025
549.971
549.918
549.866
549.814
549.763
549.71
549.657
549.603
549.547
549.489
549.43
549.368
549.304
549.237
549.167
549.094
549.018
548.94
548.861
548.78
548.698
548.615
548.53
548.445
548.356
548.263
548.162
548.05
547.924
547.777
547.607
547.413
547.196
546.954
546.687
546.397
546.09
545.782
545.51
545.313
545.159
545.015
544.874
544.733
544.593
544.454
544.316
544.179
544.044
543.91
543.777
543.646
543.517
543.389
543.262
543.136
543.011
542.887
542.764
542.642
542.52
542.399
542.278
542.157
542.037
541.918
541.798
541.679
541.56
541.44
541.322
541.203
541.084
540.965
540.847
540.728
540.609
552.482
552.349
552.222
552.104
551.997
551.901
551.814
551.737
551.665
551.599
551.537
551.477
551.421
551.367
551.314
551.263
551.213
551.164
551.115
551.067
551.019
550.972
550.925
550.878
550.832
550.785
550.738
550.691
550.644
550.596
550.547
550.497
550.445
550.392
550.338
550.283
550.227
550.17
550.112
550.055
549.997
549.94
549.884
549.829
549.775
549.721
549.668
549.615
549.562
549.507
549.452
549.396
549.338
549.278
549.216
549.151
549.083
549.013
548.939
548.863
548.785
548.705
548.624
548.541
548.458
548.374
548.29
548.203
548.112
548.013
547.902
547.777
547.632
547.463
547.267
547.048
546.802
546.528
546.225
545.89
545.526
545.192
545.103
545.02
544.918
544.8
544.675
544.545
544.413
544.281
544.148
544.017
543.887
543.757
543.629
543.501
543.375
543.25
543.126
543.002
542.879
542.757
542.636
542.515
542.394
542.274
542.154
542.034
541.915
541.796
541.677
541.558
541.439
541.32
541.202
541.083
540.965
540.846
540.728
540.609
552.476
552.329
552.19
552.061
551.944
551.84
551.746
551.662
551.586
551.514
551.448
551.386
551.326
551.27
551.215
551.161
551.109
551.058
551.007
550.957
550.908
550.859
550.81
550.762
550.714
550.665
550.617
550.568
550.52
550.47
550.42
550.368
550.315
550.261
550.206
550.15
550.092
550.034
549.975
549.916
549.857
549.799
549.742
549.686
549.63
549.576
549.522
549.467
549.413
549.357
549.301
549.244
549.185
549.124
549.061
548.996
548.928
548.857
548.783
548.706
548.628
548.547
548.466
548.383
548.3
548.216
548.133
548.048
547.959
547.861
547.752
547.628
547.484
547.317
547.122
546.903
546.656
546.379
546.069
545.715
545.267
544.612
544.886
544.903
544.836
544.736
544.621
544.499
544.374
544.246
544.119
543.991
543.864
543.737
543.611
543.486
543.362
543.238
543.115
542.993
542.871
542.75
542.63
542.509
542.389
542.27
542.15
542.031
541.912
541.793
541.675
541.556
541.437
541.319
541.201
541.082
540.964
540.846
540.727
540.609
552.469
552.309
552.157
552.017
551.89
551.776
551.675
551.585
551.503
551.427
551.357
551.291
551.228
551.169
551.112
551.056
551.002
550.949
550.897
550.845
550.794
550.743
550.693
550.643
550.593
550.543
550.493
550.443
550.393
550.342
550.291
550.238
550.184
550.129
550.072
550.015
549.956
549.897
549.837
549.777
549.718
549.659
549.601
549.543
549.487
549.431
549.376
549.32
549.265
549.208
549.151
549.093
549.033
548.972
548.908
548.842
548.773
548.701
548.626
548.549
548.47
548.389
548.307
548.224
548.14
548.057
547.975
547.892
547.805
547.709
547.601
547.478
547.336
547.173
546.983
546.767
546.523
546.252
545.956
545.637
545.303
544.988
544.929
544.871
544.788
544.688
544.576
544.458
544.337
544.214
544.09
543.965
543.841
543.717
543.594
543.471
543.348
543.226
543.105
542.984
542.863
542.743
542.623
542.504
542.385
542.265
542.147
542.028
541.909
541.791
541.672
541.554
541.436
541.318
541.199
541.081
540.963
540.845
540.727
540.609
552.462
552.288
552.123
551.971
551.833
551.711
551.602
551.505
551.418
551.337
551.262
551.193
551.128
551.066
551.006
550.949
550.892
550.837
550.783
550.73
550.677
550.625
550.573
550.521
550.47
550.419
550.368
550.317
550.265
550.213
550.16
550.106
550.051
549.995
549.937
549.879
549.82
549.76
549.699
549.639
549.579
549.519
549.46
549.402
549.344
549.288
549.231
549.175
549.118
549.061
549.003
548.943
548.883
548.82
548.755
548.688
548.618
548.545
548.469
548.391
548.311
548.229
548.147
548.064
547.98
547.898
547.818
547.736
547.65
547.556
547.449
547.328
547.189
547.028
546.845
546.638
546.406
546.151
545.878
545.599
545.335
545.109
544.972
544.865
544.76
544.652
544.539
544.423
544.304
544.183
544.062
543.941
543.819
543.698
543.576
543.456
543.335
543.215
543.095
542.975
542.855
542.736
542.617
542.498
542.38
542.261
542.143
542.025
541.906
541.788
541.67
541.552
541.434
541.316
541.198
541.08
540.963
540.845
540.727
540.609
552.454
552.266
552.088
551.923
551.775
551.643
551.527
551.423
551.33
551.245
551.166
551.093
551.024
550.96
550.898
550.838
550.78
550.723
550.667
550.612
550.558
550.504
550.451
550.398
550.345
550.293
550.241
550.188
550.135
550.082
550.028
549.973
549.917
549.86
549.802
549.743
549.683
549.622
549.562
549.501
549.44
549.38
549.32
549.262
549.204
549.146
549.089
549.031
548.974
548.916
548.857
548.796
548.734
548.67
548.604
548.535
548.464
548.389
548.312
548.233
548.152
548.07
547.986
547.903
547.82
547.739
547.66
547.58
547.495
547.401
547.297
547.179
547.043
546.887
546.71
546.513
546.294
546.058
545.811
545.566
545.338
545.142
544.987
544.857
544.738
544.622
544.507
544.39
544.273
544.155
544.036
543.917
543.798
543.679
543.56
543.441
543.322
543.203
543.084
542.966
542.847
542.729
542.611
542.493
542.375
542.257
542.139
542.021
541.903
541.786
541.668
541.55
541.433
541.315
541.197
541.08
540.962
540.844
540.727
540.609
552.447
552.244
552.052
551.875
551.716
551.574
551.45
551.339
551.24
551.15
551.067
550.99
550.919
550.851
550.787
550.725
550.665
550.606
550.549
550.492
550.436
550.381
550.326
550.272
550.218
550.165
550.111
550.058
550.004
549.949
549.894
549.839
549.782
549.724
549.666
549.606
549.546
549.485
549.425
549.364
549.303
549.243
549.183
549.124
549.065
549.007
548.949
548.891
548.833
548.773
548.713
548.651
548.588
548.522
548.454
548.383
548.31
548.234
548.155
548.074
547.991
547.908
547.824
547.74
547.658
547.578
547.5
547.421
547.337
547.246
547.144
547.029
546.898
546.75
546.581
546.394
546.189
545.97
545.744
545.524
545.317
545.136
544.978
544.84
544.714
544.593
544.476
544.36
544.243
544.127
544.011
543.894
543.778
543.661
543.543
543.426
543.309
543.192
543.074
542.957
542.84
542.722
542.605
542.487
542.37
542.253
542.135
542.018
541.901
541.783
541.666
541.548
541.431
541.314
541.196
541.079
540.961
540.844
540.726
540.609
552.439
552.222
552.016
551.827
551.657
551.505
551.371
551.254
551.149
551.054
550.967
550.887
550.812
550.742
550.675
550.611
550.549
550.488
550.429
550.371
550.314
550.257
550.201
550.145
550.09
550.036
549.981
549.927
549.872
549.817
549.761
549.704
549.647
549.589
549.53
549.471
549.41
549.35
549.289
549.229
549.168
549.108
549.049
548.989
548.931
548.872
548.814
548.755
548.695
548.635
548.573
548.509
548.444
548.376
548.305
548.232
548.156
548.077
547.995
547.912
547.827
547.742
547.657
547.574
547.492
547.413
547.337
547.26
547.177
547.089
546.99
546.879
546.755
546.615
546.457
546.281
546.09
545.887
545.678
545.473
545.278
545.106
544.951
544.812
544.684
544.562
544.445
544.329
544.215
544.101
543.986
543.872
543.758
543.643
543.528
543.412
543.296
543.181
543.064
542.948
542.832
542.715
542.599
542.482
542.365
542.249
542.132
542.015
541.898
541.781
541.664
541.547
541.429
541.312
541.195
541.078
540.96
540.843
540.726
540.609
552.433
552.203
551.984
551.782
551.599
551.437
551.294
551.169
551.058
550.957
550.866
550.782
550.704
550.631
550.562
550.496
550.432
550.37
550.309
550.249
550.19
550.132
550.074
550.018
549.962
549.906
549.851
549.795
549.74
549.684
549.628
549.571
549.513
549.455
549.396
549.337
549.277
549.217
549.157
549.097
549.038
548.978
548.919
548.86
548.801
548.742
548.683
548.623
548.562
548.5
548.436
548.37
548.302
548.23
548.156
548.079
547.999
547.916
547.83
547.743
547.656
547.569
547.483
547.4
547.319
547.242
547.167
547.091
547.012
546.927
546.832
546.728
546.612
546.481
546.334
546.17
545.992
545.801
545.603
545.408
545.223
545.058
544.909
544.773
544.647
544.527
544.411
544.298
544.186
544.074
543.962
543.85
543.738
543.625
543.512
543.398
543.284
543.17
543.055
542.94
542.824
542.709
542.593
542.477
542.361
542.244
542.128
542.012
541.895
541.778
541.661
541.545
541.428
541.311
541.194
541.077
540.96
540.843
540.726
540.609
552.427
552.184
551.953
551.739
551.543
551.37
551.218
551.085
550.967
550.861
550.765
550.678
550.597
550.521
550.449
550.381
550.315
550.252
550.189
550.128
550.068
550.008
549.949
549.891
549.834
549.778
549.721
549.666
549.61
549.554
549.497
549.44
549.383
549.325
549.267
549.208
549.149
549.09
549.031
548.972
548.914
548.855
548.797
548.738
548.679
548.619
548.559
548.498
548.435
548.37
548.302
548.233
548.16
548.084
548.004
547.921
547.835
547.747
547.656
547.564
547.473
547.384
547.297
547.214
547.135
547.059
546.987
546.914
546.838
546.758
546.669
546.572
546.465
546.344
546.209
546.058
545.892
545.714
545.526
545.336
545.155
544.993
544.851
544.723
544.603
544.487
544.375
544.265
544.156
544.047
543.938
543.829
543.719
543.608
543.497
543.385
543.272
543.159
543.046
542.932
542.817
542.702
542.587
542.472
542.356
542.241
542.125
542.008
541.892
541.776
541.659
541.543
541.426
541.31
541.193
541.076
540.959
540.842
540.725
540.608
552.42
552.164
551.921
551.695
551.489
551.305
551.143
551.002
550.878
550.766
550.666
550.575
550.49
550.411
550.338
550.268
550.201
550.136
550.073
550.01
549.949
549.888
549.828
549.769
549.711
549.653
549.596
549.54
549.484
549.428
549.371
549.315
549.258
549.201
549.144
549.086
549.029
548.971
548.914
548.857
548.8
548.742
548.684
548.626
548.566
548.505
548.443
548.378
548.312
548.242
548.17
548.094
548.015
547.932
547.845
547.754
547.66
547.564
547.466
547.368
547.273
547.181
547.093
547.011
546.933
546.861
546.792
546.723
546.652
546.579
546.498
546.41
546.313
546.203
546.081
545.943
545.791
545.623
545.443
545.255
545.072
544.906
544.777
544.662
544.552
544.443
544.336
544.23
544.125
544.019
543.914
543.807
543.7
543.592
543.482
543.372
543.261
543.149
543.037
542.924
542.81
542.696
542.582
542.467
542.352
542.237
542.121
542.006
541.89
541.774
541.657
541.541
541.425
541.308
541.192
541.075
540.959
540.842
540.725
540.608
552.413
552.143
551.887
551.65
551.434
551.24
551.07
550.921
550.791
550.674
550.568
550.473
550.385
550.304
550.229
550.158
550.091
550.025
549.962
549.899
549.837
549.776
549.715
549.654
549.595
549.536
549.478
549.421
549.365
549.309
549.253
549.197
549.142
549.086
549.03
548.975
548.919
548.864
548.809
548.754
548.698
548.642
548.584
548.525
548.464
548.401
548.334
548.265
548.192
548.116
548.035
547.951
547.862
547.769
547.672
547.571
547.466
547.36
547.253
547.148
547.048
546.953
546.865
546.784
546.709
546.641
546.579
546.516
546.453
546.388
546.316
546.239
546.154
546.057
545.948
545.824
545.685
545.53
545.359
545.171
544.973
544.779
544.685
544.594
544.497
544.396
544.295
544.194
544.093
543.991
543.889
543.786
543.681
543.575
543.468
543.36
543.25
543.14
543.028
542.916
542.804
542.69
542.577
542.462
542.348
542.233
542.118
542.003
541.887
541.771
541.656
541.54
541.423
541.307
541.191
541.074
540.958
540.841
540.725
540.608
552.406
552.122
551.852
551.604
551.378
551.176
550.997
550.841
550.704
550.582
550.473
550.374
550.284
550.201
550.124
550.054
549.987
549.923
549.861
549.8
549.738
549.677
549.615
549.553
549.492
549.431
549.371
549.313
549.256
549.2
549.145
549.09
549.036
548.983
548.93
548.877
548.824
548.772
548.719
548.666
548.613
548.557
548.499
548.438
548.373
548.305
548.231
548.154
548.071
547.983
547.891
547.794
547.692
547.586
547.476
547.361
547.243
547.125
547.009
546.897
546.792
546.695
546.608
546.53
546.46
546.399
546.345
546.291
546.238
546.185
546.126
546.061
545.989
545.906
545.811
545.703
545.58
545.44
545.282
545.098
544.874
544.541
544.585
544.527
544.441
544.348
544.252
544.156
544.06
543.963
543.864
543.764
543.663
543.559
543.454
543.348
543.24
543.131
543.02
542.909
542.797
542.685
542.572
542.458
542.344
542.23
542.115
542
541.885
541.769
541.654
541.538
541.422
541.306
541.19
541.074
540.957
540.841
540.725
540.608
552.398
552.098
551.814
551.554
551.319
551.11
550.925
550.764
550.622
550.496
550.383
550.281
550.188
550.103
550.027
549.959
549.895
549.835
549.776
549.718
549.659
549.599
549.537
549.473
549.409
549.345
549.281
549.22
549.16
549.103
549.048
548.995
548.943
548.893
548.843
548.794
548.745
548.696
548.647
548.597
548.544
548.489
548.428
548.363
548.292
548.214
548.129
548.038
547.94
547.836
547.727
547.613
547.494
547.372
547.245
547.115
546.982
546.851
546.725
546.606
546.498
546.403
546.319
546.248
546.186
546.134
546.09
546.05
546.01
545.971
545.927
545.879
545.821
545.755
545.676
545.586
545.481
545.359
545.22
545.059
544.874
544.678
544.577
544.483
544.391
544.299
544.208
544.118
544.027
543.934
543.84
543.743
543.645
543.544
543.441
543.336
543.23
543.122
543.013
542.903
542.792
542.68
542.567
542.454
542.341
542.227
542.112
541.998
541.883
541.768
541.652
541.537
541.421
541.305
541.189
541.073
540.957
540.841
540.724
540.608
552.386
552.066
551.768
551.497
551.255
551.04
550.851
550.687
550.543
550.416
550.301
550.197
550.102
550.017
549.943
549.878
549.82
549.767
549.715
549.663
549.609
549.552
549.491
549.425
549.356
549.285
549.215
549.146
549.082
549.022
548.966
548.913
548.863
548.815
548.769
548.725
548.681
548.638
548.593
548.546
548.494
548.436
548.37
548.296
548.213
548.121
548.018
547.907
547.788
547.662
547.531
547.396
547.258
547.117
546.972
546.826
546.678
546.533
546.398
546.274
546.167
546.076
546.001
545.94
545.892
545.853
545.823
545.798
545.775
545.753
545.728
545.699
545.66
545.612
545.552
545.481
545.397
545.296
545.179
545.042
544.883
544.71
544.554
544.434
544.336
544.247
544.163
544.078
543.993
543.906
543.816
543.723
543.628
543.529
543.429
543.326
543.221
543.114
543.006
542.897
542.786
542.675
542.563
542.451
542.338
542.224
542.11
541.996
541.881
541.766
541.651
541.535
541.42
541.304
541.188
541.072
540.956
540.84
540.724
540.608
552.375
552.033
551.716
551.434
551.184
550.965
550.775
550.611
550.469
550.345
550.234
550.13
550.035
549.951
549.88
549.821
549.772
549.729
549.687
549.645
549.6
549.549
549.491
549.423
549.347
549.266
549.182
549.101
549.026
548.958
548.897
548.841
548.791
548.744
548.702
548.664
548.629
548.594
548.557
548.513
548.461
548.397
548.32
548.231
548.129
548.013
547.884
547.746
547.6
547.448
547.293
547.136
546.977
546.817
546.655
546.493
546.33
546.173
546.03
545.905
545.802
545.722
545.661
545.617
545.587
545.566
545.553
545.546
545.543
545.541
545.538
545.534
545.519
545.491
545.452
545.4
545.336
545.258
545.164
545.047
544.9
544.717
544.489
544.358
544.269
544.191
544.115
544.039
543.96
543.878
543.793
543.704
543.612
543.516
543.418
543.316
543.213
543.107
543
542.892
542.782
542.671
542.56
542.448
542.335
542.222
542.108
541.994
541.879
541.765
541.65
541.534
541.419
541.303
541.188
541.072
540.956
540.84
540.724
540.608
552.361
551.995
551.661
551.367
551.11
550.887
550.697
550.536
550.402
550.29
550.193
550.099
550.006
549.923
549.854
549.801
549.76
549.729
549.701
549.676
549.647
549.609
549.557
549.487
549.4
549.302
549.2
549.098
549.001
548.917
548.844
548.78
548.722
548.672
548.632
548.603
548.582
548.561
548.534
548.495
548.439
548.365
548.27
548.157
548.024
547.872
547.708
547.535
547.358
547.18
547.005
546.831
546.656
546.483
546.307
546.128
545.948
545.778
545.632
545.513
545.422
545.359
545.318
545.297
545.295
545.294
545.299
545.313
545.333
545.361
545.383
545.408
545.412
545.402
545.386
545.353
545.305
545.245
545.178
545.07
544.923
544.747
544.321
544.237
544.187
544.131
544.068
544.001
543.929
543.853
543.772
543.687
543.597
543.504
543.408
543.308
543.206
543.101
542.995
542.887
542.778
542.668
542.557
542.445
542.332
542.219
542.106
541.992
541.878
541.763
541.648
541.533
541.418
541.303
541.187
541.071
540.956
540.84
540.724
540.608
552.353
551.97
551.619
551.314
551.05
550.824
550.631
550.472
550.348
550.265
550.209
550.136
550.046
549.961
549.893
549.84
549.797
549.773
549.762
549.766
549.769
549.752
549.711
549.627
549.523
549.409
549.281
549.153
549.026
548.912
548.816
548.732
548.655
548.591
548.547
548.532
548.536
548.533
548.514
548.473
548.404
548.318
548.199
548.056
547.876
547.67
547.458
547.244
547.036
546.847
546.672
546.5
546.32
546.139
545.954
545.755
545.554
545.371
545.235
545.133
545.047
544.999
544.98
545
545.056
545.079
545.094
545.136
545.195
545.281
545.303
545.35
545.347
545.333
545.367
545.379
545.312
545.25
545.303
545.104
544.852
544.763
544.542
544.087
544.107
544.077
544.026
543.966
543.901
543.83
543.753
543.672
543.585
543.494
543.399
543.301
543.2
543.096
542.99
542.883
542.775
542.665
542.554
542.443
542.331
542.218
542.104
541.991
541.877
541.762
541.648
541.533
541.417
541.302
541.187
541.071
540.955
540.84
540.724
540.608
552.361
551.973
551.604
551.286
551.017
550.792
550.593
550.43
550.316
550.288
550.333
550.292
550.186
550.091
550.028
549.968
549.877
549.844
549.846
549.906
549.964
549.973
549.933
549.784
549.671
549.577
549.429
549.285
549.124
548.962
548.831
548.722
548.602
548.504
548.452
548.456
548.488
548.478
548.423
548.363
548.255
548.187
548.053
547.879
547.631
547.376
547.096
546.824
546.588
546.441
546.329
546.193
545.983
545.775
545.613
545.386
545.171
545.009
544.921
544.851
544.641
544.532
544.599
544.736
544.981
545.108
545.032
545.081
545.232
545.382
545.293
545.415
545.324
545.131
545.427
545.874
545.36
545.079
545.235
545.238
544.927
544.747
544.521
544.114
544.08
544.042
543.991
543.936
543.877
543.811
543.738
543.66
543.575
543.486
543.393
543.295
543.195
543.092
542.987
542.88
542.772
542.663
542.552
542.441
542.329
542.216
542.103
541.99
541.876
541.761
541.647
541.532
541.417
541.302
541.186
541.071
540.955
540.839
540.724
540.608
552.392
552.021
551.634
551.299
551.023
550.803
550.572
550.404
550.289
550.363
550.458
550.377
550.261
550.125
550.087
550.077
549.921
549.931
550.034
550.141
550.181
550.137
550.055
549.821
549.586
549.461
549.394
549.314
549.263
549.028
548.91
548.837
548.631
548.479
548.425
548.361
548.276
548.091
547.932
547.901
547.861
547.977
547.931
547.544
547.465
547.128
546.682
546.357
546.144
546.174
546.262
546.183
545.761
545.363
545.329
545.183
545.097
544.993
544.886
544.827
544.608
544.48
544.479
544.551
544.817
544.914
544.93
545.051
545.143
545.312
545.283
545.338
545.296
545.228
545.399
545.64
545.385
545.161
545.208
545.205
544.953
544.752
544.481
544.113
544.061
544.005
543.959
543.911
543.857
543.796
543.727
543.651
543.569
543.481
543.388
543.292
543.192
543.089
542.985
542.878
542.77
542.661
542.551
542.44
542.328
542.216
542.103
541.989
541.875
541.761
541.646
541.532
541.417