/*--------------------------------*- C++ -*----------------------------------*\
  =========                 |
  \\      /  F ield         | OpenFOAM: The Open Source CFD Toolbox
   \\    /   O peration     | Website:  https://openfoam.org
    \\  /    A nd           | Version:  6
     \\/     M anipulation  |
\*---------------------------------------------------------------------------*/
FoamFile
{
    version     2.0;
    format      ascii;
    class       volVectorField;
    location    "2700";
    object      U;
}
// * * * * * * * * * * * * * * * * * * * * * * * * * * * * * * * * * * * * * //

dimensions      [0 1 -1 0 0 0 0];

internalField   nonuniform List<vector> 
4800
(
(-0.000655664 0 -0.000202537)
(0.000459345 0 -0.000239143)
(0.000611046 0 -0.000246895)
(0.000944069 0 -0.000268091)
(0.00138749 0 -0.000199945)
(0.00178089 0 -0.000446069)
(0.0021872 0 -0.000168499)
(0.00250838 0 0.000113888)
(0.00255456 0 -0.000332568)
(0.00259778 0 -0.000334411)
(0.00279342 0 -0.000148245)
(0.00308498 0 -0.000149538)
(0.00311063 0 -0.000204252)
(0.00311375 0 -0.000213855)
(0.00314768 0 -0.000244886)
(0.0032055 0 -0.000255254)
(0.00320761 0 -0.000252394)
(0.00319947 0 -0.000207286)
(0.00320327 0 -0.000181361)
(0.00322072 0 -0.000176905)
(0.0032663 0 -0.000198927)
(0.00333043 0 -0.000145291)
(0.00335048 0 -7.28728e-05)
(0.00334912 0 -6.42963e-05)
(0.00334732 0 -5.96152e-05)
(0.0033351 0 -7.53748e-05)
(0.00330576 0 -6.6567e-05)
(0.00326116 0 -2.11222e-05)
(0.00319464 0 -5.16873e-06)
(0.0031057 0 -3.97514e-05)
(0.00301902 0 -0.00016498)
(0.00296105 0 -0.000244529)
(0.00291943 0 -0.000217878)
(0.00289329 0 -0.000170189)
(0.00288521 0 -0.000165606)
(0.00287841 0 -0.000146252)
(0.00287743 0 -0.000125761)
(0.00288574 0 -0.000111959)
(0.00290872 0 -0.000120967)
(0.00293732 0 -0.000149385)
(0.00296557 0 -0.000127253)
(0.00298355 0 -9.11519e-05)
(0.00299535 0 -5.10713e-05)
(0.00301072 0 -6.52196e-05)
(0.00303534 0 -2.23967e-05)
(0.00306573 0 -8.76171e-05)
(0.00310272 0 -2.96987e-05)
(0.00312959 0 -0.000102651)
(0.00315849 0 -0.000141061)
(0.0031913 0 -0.000104496)
(0.00319413 0 -8.72075e-05)
(0.00318796 0 -7.87456e-05)
(0.003174 0 -6.92936e-05)
(0.00315681 0 -5.38958e-05)
(0.00314482 0 -3.70608e-05)
(0.00313632 0 -3.64316e-05)
(0.0031191 0 -4.23776e-05)
(0.00310505 0 -3.46578e-05)
(0.00310798 0 -3.28397e-05)
(0.00311053 0 -4.93932e-05)
(0.00310598 0 -4.08927e-05)
(0.00308831 0 -6.09198e-05)
(0.00305916 0 -3.23643e-05)
(0.00301779 0 -5.71776e-05)
(0.00296402 0 -2.39537e-06)
(0.00290183 0 -6.41498e-05)
(0.0028539 0 -2.5861e-05)
(0.00281725 0 -9.55779e-05)
(0.00278049 0 -5.70624e-05)
(0.00272448 0 -7.68225e-05)
(0.00264534 0 -2.60301e-05)
(0.00252688 0 5.79839e-05)
(0.00238428 0 -0.000152872)
(0.00221281 0 0.000282086)
(0.00201943 0 -0.000218079)
(0.00180029 0 0.000281863)
(0.00160042 0 -4.10341e-05)
(0.00132557 0 -0.000154245)
(0.00110597 0 0.000272492)
(0.000827523 0 -0.00021318)
(0.000343571 0 -0.000634792)
(1.10152e-06 0 4.79272e-05)
(-2.20005e-12 0 2.1776e-12)
(-3.05764e-12 0 6.83765e-13)
(-4.0888e-12 0 2.60355e-13)
(-4.43619e-12 0 8.61955e-14)
(-4.51494e-12 0 -8.33108e-15)
(-4.43613e-12 0 -7.13546e-14)
(-4.24796e-12 0 -1.17618e-13)
(-3.97898e-12 0 -1.52194e-13)
(-3.6503e-12 0 -1.77321e-13)
(-3.27938e-12 0 -1.94362e-13)
(-2.8814e-12 0 -2.04345e-13)
(-2.46957e-12 0 -2.08181e-13)
(-2.05531e-12 0 -2.06728e-13)
(-1.6484e-12 0 -2.00805e-13)
(-1.25697e-12 0 -1.91199e-13)
(-8.87655e-13 0 -1.78657e-13)
(-5.45613e-13 0 -1.6388e-13)
(-2.34675e-13 0 -1.4751e-13)
(4.25524e-14 0 -1.30127e-13)
(2.8455e-13 0 -1.12239e-13)
(4.90744e-13 0 -9.42824e-14)
(6.61358e-13 0 -7.66195e-14)
(7.97269e-13 0 -5.95434e-14)
(8.99878e-13 0 -4.32819e-14)
(9.70978e-13 0 -2.8004e-14)
(1.01265e-12 0 -1.38271e-14)
(1.02716e-12 0 -8.25155e-16)
(1.01689e-12 0 1.09641e-14)
(9.84279e-13 0 2.1531e-14)
(9.31747e-13 0 3.08874e-14)
(8.61687e-13 0 3.90602e-14)
(7.7643e-13 0 4.60856e-14)
(6.78227e-13 0 5.20049e-14)
(5.69249e-13 0 5.68598e-14)
(4.51586e-13 0 6.06895e-14)
(3.27253e-13 0 6.35279e-14)
(1.9821e-13 0 6.54003e-14)
(6.63759e-14 0 6.6318e-14)
(-0.00101668 0 0.000324932)
(0.000689606 0 -0.000738862)
(0.000886539 0 -0.000569062)
(0.000954242 0 -0.000846466)
(0.00141591 0 -0.000731531)
(0.00186736 0 -0.000521004)
(0.0021281 0 -0.000476084)
(0.00227373 0 -0.000389392)
(0.00247066 0 -6.89972e-05)
(0.00256469 0 -0.000593468)
(0.00276286 0 -0.000665803)
(0.00290235 0 -5.46451e-05)
(0.00289941 0 2.62953e-05)
(0.00290684 0 0.000100292)
(0.0029334 0 0.000144655)
(0.00298971 0 0.000184703)
(0.00307294 0 0.000183646)
(0.00314941 0 0.000136175)
(0.00321457 0 0.000124509)
(0.00328 0 8.17156e-05)
(0.00329969 0 4.09737e-05)
(0.003292 0 3.12123e-05)
(0.0032768 0 4.08137e-05)
(0.00326134 0 5.86626e-05)
(0.00324231 0 5.71949e-05)
(0.00323035 0 0.000115467)
(0.00322581 0 0.000127384)
(0.0032119 0 0.000126755)
(0.00317747 0 0.000117378)
(0.00314542 0 0.000156122)
(0.00312038 0 0.000262784)
(0.00309109 0 0.000294588)
(0.00306218 0 0.0002089)
(0.00304786 0 0.000133063)
(0.00303495 0 0.000127477)
(0.00301144 0 0.000130211)
(0.00298636 0 9.36304e-05)
(0.00298073 0 6.93353e-05)
(0.00298379 0 6.50742e-05)
(0.00299373 0 5.27277e-05)
(0.00300585 0 4.78176e-05)
(0.00302225 0 3.66308e-05)
(0.00304012 0 3.56474e-06)
(0.0030536 0 5.95117e-06)
(0.00306388 0 -3.38095e-05)
(0.00307057 0 -3.51328e-05)
(0.00307326 0 -1.82613e-05)
(0.00307915 0 -5.26907e-07)
(0.00309191 0 3.7874e-05)
(0.0031094 0 6.31873e-05)
(0.00313731 0 7.15686e-05)
(0.00315681 0 8.04924e-05)
(0.00315261 0 8.04187e-05)
(0.00313319 0 8.22921e-05)
(0.00310598 0 5.9451e-05)
(0.0030785 0 7.83445e-05)
(0.00304967 0 7.49105e-05)
(0.00302503 0 1.67264e-05)
(0.00300207 0 4.3436e-05)
(0.00300095 0 5.53712e-05)
(0.00300286 0 6.65616e-05)
(0.0029964 0 7.43711e-05)
(0.00298193 0 0.000102628)
(0.00294885 0 0.000127022)
(0.0028988 0 0.000154836)
(0.00284673 0 0.000148571)
(0.00278696 0 0.00015415)
(0.00273657 0 0.000148925)
(0.00271043 0 0.000125718)
(0.00266687 0 0.000152013)
(0.00257879 0 0.000209883)
(0.00247308 0 0.00019523)
(0.00232815 0 0.000314397)
(0.00217815 0 0.000237024)
(0.00195693 0 0.000430875)
(0.00179308 0 0.000229213)
(0.00156506 0 0.000504166)
(0.00144437 0 0.000258223)
(0.00104838 0 0.000536638)
(0.000553221 0 0.000705505)
(6.62339e-05 0 0.000702471)
(-7.27302e-08 0 0.00045911)
(-2.74435e-12 0 2.56652e-12)
(-4.68888e-12 0 1.15424e-12)
(-4.68638e-12 0 5.31403e-13)
(-4.70481e-12 0 1.78575e-13)
(-4.67237e-12 0 -5.68467e-14)
(-4.54526e-12 0 -2.31152e-13)
(-4.32867e-12 0 -3.64798e-13)
(-4.03864e-12 0 -4.66277e-13)
(-3.69247e-12 0 -5.4032e-13)
(-3.3064e-12 0 -5.90402e-13)
(-2.89522e-12 0 -6.19423e-13)
(-2.47195e-12 0 -6.3006e-13)
(-2.04794e-12 0 -6.24864e-13)
(-1.63287e-12 0 -6.06292e-13)
(-1.23483e-12 0 -5.7671e-13)
(-8.60336e-13 0 -5.38368e-13)
(-5.14466e-13 0 -4.93376e-13)
(-2.00922e-13 0 -4.43672e-13)
(7.78234e-14 0 -3.90999e-13)
(3.20395e-13 0 -3.36886e-13)
(5.26364e-13 0 -2.82639e-13)
(6.96097e-13 0 -2.29346e-13)
(8.30607e-13 0 -1.77881e-13)
(9.31418e-13 0 -1.2892e-13)
(1.00043e-12 0 -8.29628e-14)
(1.03983e-12 0 -4.03548e-14)
(1.05195e-12 0 -1.30884e-15)
(1.03925e-12 0 3.40694e-14)
(1.0042e-12 0 6.57588e-14)
(9.49276e-13 0 9.38012e-14)
(8.76885e-13 0 1.18283e-13)
(7.89374e-13 0 1.39318e-13)
(6.89001e-13 0 1.57034e-13)
(5.77934e-13 0 1.71559e-13)
(4.58254e-13 0 1.83014e-13)
(3.31964e-13 0 1.91504e-13)
(2.01e-13 0 1.9711e-13)
(6.72936e-14 0 1.99884e-13)
(-0.00104369 0 0.000134181)
(0.000465671 0 -0.00130059)
(0.00111291 0 -0.000856666)
(0.000974095 0 -0.00114297)
(0.00135042 0 -0.00105198)
(0.00172524 0 -0.000821426)
(0.00197661 0 -0.000543981)
(0.00208816 0 -0.000472629)
(0.00221307 0 -0.000628822)
(0.00248926 0 -0.000254146)
(0.00247372 0 -0.000187152)
(0.00239055 0 -0.000205256)
(0.00239927 0 -0.000196686)
(0.0024461 0 -0.0001813)
(0.00250304 0 -0.000252199)
(0.00255931 0 -0.000258287)
(0.00259378 0 -0.000222719)
(0.0026206 0 -0.000222067)
(0.00265545 0 -0.000200559)
(0.00268731 0 -0.000146363)
(0.00271356 0 -0.00011025)
(0.00274552 0 -6.80249e-05)
(0.00278401 0 -2.63312e-05)
(0.00281858 0 -9.42084e-06)
(0.0028463 0 -1.06089e-05)
(0.00288313 0 -3.1393e-05)
(0.00294104 0 -3.11263e-05)
(0.00299309 0 6.85281e-05)
(0.00299469 0 0.000100634)
(0.0029795 0 0.000114334)
(0.00294738 0 0.000105283)
(0.00291889 0 5.9382e-05)
(0.00290115 0 2.5233e-05)
(0.00288113 0 2.23054e-05)
(0.00285181 0 2.38418e-05)
(0.00282559 0 9.32073e-06)
(0.00281097 0 -2.46071e-05)
(0.00279406 0 -5.97602e-05)
(0.00277845 0 -9.7893e-05)
(0.00277974 0 -0.000111963)
(0.00279191 0 -0.000119922)
(0.00281436 0 -8.29217e-05)
(0.00282501 0 -5.28461e-05)
(0.00282691 0 -5.28949e-05)
(0.00282476 0 -5.01292e-05)
(0.00280935 0 -4.91375e-05)
(0.00277895 0 -5.50969e-05)
(0.00274884 0 -7.84132e-05)
(0.00272773 0 -9.91188e-05)
(0.00272131 0 -0.000102478)
(0.00272538 0 -0.000101465)
(0.00274233 0 -6.21317e-05)
(0.00274691 0 -1.26694e-05)
(0.00274319 0 -6.01752e-06)
(0.00273281 0 1.22179e-05)
(0.00271346 0 3.61955e-05)
(0.00268509 0 9.58689e-06)
(0.00265739 0 3.32148e-05)
(0.00262302 0 -2.40407e-05)
(0.00258792 0 -8.9262e-05)
(0.00258545 0 -3.48574e-06)
(0.00258249 0 -3.60209e-05)
(0.00258372 0 1.97581e-05)
(0.00256944 0 1.22526e-05)
(0.00254125 0 4.10086e-05)
(0.00251504 0 8.95584e-05)
(0.00248241 0 4.10872e-05)
(0.0024108 0 2.13852e-06)
(0.00237087 0 0.000106785)
(0.00235104 0 0.00014087)
(0.00230735 0 0.00016783)
(0.00223696 0 0.000254726)
(0.00213655 0 0.000361625)
(0.00201651 0 0.000409344)
(0.0018727 0 0.000448606)
(0.00166397 0 0.000515573)
(0.00153958 0 0.000488953)
(0.00123831 0 0.000798823)
(0.00128676 0 0.000253386)
(0.00106047 0 0.000418185)
(0.00047173 0 0.000769498)
(7.63002e-07 0 0.000674967)
(-3.39441e-12 0 2.81271e-12)
(-4.72241e-12 0 1.02271e-12)
(-5.06455e-12 0 5.3206e-13)
(-5.02433e-12 0 1.53225e-13)
(-4.92444e-12 0 -1.6676e-13)
(-4.74378e-12 0 -4.31857e-13)
(-4.48284e-12 0 -6.44273e-13)
(-4.15442e-12 0 -8.07916e-13)
(-3.77442e-12 0 -9.27466e-13)
(-3.35848e-12 0 -1.00768e-12)
(-2.92106e-12 0 -1.05305e-12)
(-2.47501e-12 0 -1.06793e-12)
(-2.03155e-12 0 -1.05652e-12)
(-1.60025e-12 0 -1.02292e-12)
(-1.18905e-12 0 -9.71097e-13)
(-8.04322e-13 0 -9.04835e-13)
(-4.50917e-13 0 -8.27681e-13)
(-1.32298e-13 0 -7.42892e-13)
(1.49339e-13 0 -6.53392e-13)
(3.9291e-13 0 -5.61738e-13)
(5.98284e-13 0 -4.70109e-13)
(7.66116e-13 0 -3.80304e-13)
(8.97696e-13 0 -2.93766e-13)
(9.94796e-13 0 -2.11601e-13)
(1.05954e-12 0 -1.34617e-13)
(1.0943e-12 0 -6.33609e-14)
(1.10158e-12 0 1.83768e-15)
(1.08396e-12 0 6.08284e-14)
(1.04401e-12 0 1.136e-13)
(9.84271e-13 0 1.60243e-13)
(9.07204e-13 0 2.0092e-13)
(8.1518e-13 0 2.35838e-13)
(7.10468e-13 0 2.65221e-13)
(5.95229e-13 0 2.89296e-13)
(4.71531e-13 0 3.08272e-13)
(3.41349e-13 0 3.22332e-13)
(2.0659e-13 0 3.3162e-13)
(6.91498e-14 0 3.36237e-13)
(-9.62161e-05 0 -0.000721425)
(0.000415052 0 -0.001514)
(0.00102401 0 -0.00137893)
(0.0011573 0 -0.00129043)
(0.00144894 0 -0.00108975)
(0.00141942 0 -0.00123548)
(0.00176575 0 -0.00064723)
(0.00184878 0 -0.00054448)
(0.00200552 0 -0.000354635)
(0.00201833 0 -0.00039885)
(0.00196658 0 -0.000471201)
(0.00195824 0 -0.000188179)
(0.00197182 0 -9.29894e-05)
(0.00201643 0 -3.84235e-05)
(0.00205208 0 -4.15124e-05)
(0.00204044 0 -6.07554e-05)
(0.00202119 0 -9.67534e-05)
(0.00202941 0 -9.8033e-05)
(0.00205754 0 -0.000111491)
(0.00209569 0 -0.000135941)
(0.00213528 0 -0.000126265)
(0.00217592 0 -9.66607e-05)
(0.00221748 0 -7.74295e-05)
(0.0022665 0 -6.77606e-05)
(0.00232461 0 -6.41061e-05)
(0.00238795 0 -4.21849e-05)
(0.00243816 0 7.27014e-06)
(0.00247996 0 5.86352e-05)
(0.0025194 0 0.000113644)
(0.00252453 0 0.000133382)
(0.00252258 0 0.00015437)
(0.00252255 0 0.000139076)
(0.00251335 0 9.26901e-05)
(0.00249139 0 6.56485e-05)
(0.00247703 0 5.23461e-05)
(0.00247878 0 4.61825e-05)
(0.00247789 0 4.32667e-05)
(0.00247251 0 3.35787e-05)
(0.00245163 0 8.13452e-06)
(0.0024226 0 -7.36121e-06)
(0.00240878 0 -1.11025e-05)
(0.0023927 0 -2.17967e-05)
(0.00237233 0 -1.54698e-05)
(0.00237257 0 -1.12302e-05)
(0.00238325 0 4.6124e-07)
(0.00238363 0 1.02543e-05)
(0.00237872 0 1.27264e-05)
(0.00237521 0 2.97155e-05)
(0.00236656 0 2.71185e-05)
(0.00234402 0 2.60212e-05)
(0.00230736 0 1.90582e-05)
(0.00227678 0 5.5099e-05)
(0.00227607 0 6.12281e-05)
(0.0022713 0 6.21409e-05)
(0.00225761 0 7.44565e-05)
(0.00224091 0 9.859e-05)
(0.00222727 0 0.00012185)
(0.00221771 0 0.000111994)
(0.00220246 0 0.000107215)
(0.00217289 0 0.000102457)
(0.00213269 0 0.000119691)
(0.0020986 0 7.74807e-05)
(0.00209199 0 0.000145462)
(0.00208058 0 0.000169134)
(0.00205695 0 0.000124317)
(0.00204524 0 0.000173123)
(0.00203963 0 0.00021321)
(0.00200564 0 6.30247e-05)
(0.0019714 0 0.000143563)
(0.00193114 0 0.000249759)
(0.00191479 0 0.000200269)
(0.00186371 0 0.000366668)
(0.0017978 0 0.000402902)
(0.00168808 0 0.000595544)
(0.00159914 0 0.000706979)
(0.00154084 0 0.000642934)
(0.001182 0 0.000989805)
(0.00116573 0 0.000844467)
(0.000786744 0 0.00112783)
(0.000426491 0 0.00122504)
(0.000146544 0 0.00121041)
(-1.03902e-06 0 0.0008459)
(-3.35445e-12 0 -1.32093e-12)
(-6.4146e-12 0 3.46158e-13)
(-5.55605e-12 0 4.2083e-13)
(-5.40355e-12 0 6.90441e-14)
(-5.25724e-12 0 -3.31508e-13)
(-5.02249e-12 0 -6.85167e-13)
(-4.7045e-12 0 -9.7235e-13)
(-4.32175e-12 0 -1.19348e-12)
(-3.89223e-12 0 -1.35386e-12)
(-3.43199e-12 0 -1.4597e-12)
(-2.95547e-12 0 -1.51709e-12)
(-2.47542e-12 0 -1.532e-12)
(-2.00293e-12 0 -1.51028e-12)
(-1.54745e-12 0 -1.4577e-12)
(-1.11674e-12 0 -1.37986e-12)
(-7.1692e-13 0 -1.28213e-12)
(-3.52523e-13 0 -1.16957e-12)
(-2.66338e-14 0 -1.04678e-12)
(2.58977e-13 0 -9.17909e-13)
(5.03678e-13 0 -7.86546e-13)
(7.07798e-13 0 -6.55739e-13)
(8.72439e-13 0 -5.2799e-13)
(9.9931e-13 0 -4.05277e-13)
(1.09057e-12 0 -2.89103e-13)
(1.14867e-12 0 -1.80543e-13)
(1.17628e-12 0 -8.03094e-14)
(1.17614e-12 0 1.11951e-14)
(1.15101e-12 0 9.38132e-14)
(1.10362e-12 0 1.67578e-13)
(1.0366e-12 0 2.32661e-13)
(9.5248e-13 0 2.8933e-13)
(8.53675e-13 0 3.37906e-13)
(7.42459e-13 0 3.78731e-13)
(6.20985e-13 0 4.12146e-13)
(4.9129e-13 0 4.38462e-13)
(3.55312e-13 0 4.57947e-13)
(2.14906e-13 0 4.70814e-13)
(7.19115e-14 0 4.7721e-13)
(-0.000895846 0 -0.00100446)
(0.000897892 0 -0.00160365)
(0.000980657 0 -0.00160676)
(0.000973404 0 -0.00158141)
(0.00145232 0 -0.00112199)
(0.00112901 0 -0.00138021)
(0.0013488 0 -0.0010793)
(0.00142126 0 -0.000871103)
(0.00154455 0 -0.000553976)
(0.00160662 0 -0.000348962)
(0.00157666 0 -0.000286724)
(0.00151918 0 -0.000210946)
(0.00152321 0 -0.000196163)
(0.00155842 0 -0.000173366)
(0.00158647 0 -0.000169164)
(0.00159719 0 -0.000164668)
(0.00160575 0 -0.00016369)
(0.00161901 0 -0.000161773)
(0.00164126 0 -0.000141619)
(0.00166808 0 -0.000118776)
(0.00169349 0 -0.000111221)
(0.00172314 0 -8.34209e-05)
(0.00175247 0 -7.98816e-05)
(0.00178717 0 -7.57939e-05)
(0.00182538 0 -9.07653e-05)
(0.00185015 0 -7.93588e-05)
(0.00186082 0 -5.05394e-05)
(0.0018789 0 -3.83202e-06)
(0.00191329 0 5.52686e-05)
(0.00195985 0 9.82389e-05)
(0.00200111 0 9.42591e-05)
(0.00202382 0 0.000130882)
(0.00205101 0 9.15612e-05)
(0.00205692 0 6.82797e-05)
(0.00204254 0 6.52192e-05)
(0.00202783 0 8.59654e-05)
(0.00201134 0 2.96213e-05)
(0.00201606 0 3.26556e-05)
(0.00203125 0 -2.14096e-05)
(0.00203556 0 -4.90504e-05)
(0.00203017 0 -3.12641e-05)
(0.00202858 0 -3.56438e-05)
(0.00203477 0 -4.93448e-05)
(0.00205115 0 -6.21587e-05)
(0.00207606 0 -3.46256e-05)
(0.00207767 0 -2.65959e-05)
(0.00207667 0 -3.52598e-05)
(0.0020845 0 -3.53428e-05)
(0.0020893 0 -2.29101e-05)
(0.00208324 0 -1.61634e-05)
(0.00206806 0 4.1485e-06)
(0.00204213 0 -2.68469e-05)
(0.00200489 0 8.16923e-05)
(0.00197911 0 6.84925e-05)
(0.0019719 0 3.6385e-05)
(0.00195903 0 4.08064e-05)
(0.00193924 0 5.39401e-05)
(0.00191756 0 6.88224e-05)
(0.00189456 0 2.68647e-05)
(0.00186614 0 2.11916e-05)
(0.00183123 0 4.21515e-05)
(0.00178924 0 4.62531e-05)
(0.00175791 0 0.000100542)
(0.0017345 0 0.000144563)
(0.00171358 0 0.000177573)
(0.00169454 0 0.000207951)
(0.00168202 0 0.000228849)
(0.00166625 0 0.000118992)
(0.00158113 0 0.000387803)
(0.00157127 0 0.00016258)
(0.001466 0 0.000408973)
(0.00145257 0 0.000471047)
(0.00144873 0 0.000400124)
(0.00147186 0 0.000377748)
(0.00141406 0 0.000603868)
(0.00140818 0 0.000633893)
(0.00129926 0 0.000721592)
(0.00105724 0 0.000958557)
(0.00081973 0 0.00118396)
(0.000585098 0 0.00141835)
(0.00103366 0 0.00109404)
(4.44643e-06 0 0.0010746)
(-4.16359e-12 0 2.13398e-12)
(-2.98125e-12 0 1.53096e-12)
(-5.34173e-12 0 7.35929e-13)
(-5.77654e-12 0 3.35784e-14)
(-5.67843e-12 0 -5.43169e-13)
(-5.38435e-12 0 -1.00496e-12)
(-4.99094e-12 0 -1.36641e-12)
(-4.53585e-12 0 -1.63971e-12)
(-4.04064e-12 0 -1.83479e-12)
(-3.52171e-12 0 -1.96016e-12)
(-2.99336e-12 0 -2.0236e-12)
(-2.4682e-12 0 -2.03268e-12)
(-1.95725e-12 0 -1.99489e-12)
(-1.46982e-12 0 -1.91772e-12)
(-1.01349e-12 0 -1.80849e-12)
(-5.94033e-13 0 -1.67427e-12)
(-2.15566e-13 0 -1.52168e-12)
(1.19362e-13 0 -1.35677e-12)
(4.09576e-13 0 -1.18492e-12)
(6.5508e-13 0 -1.01081e-12)
(8.56839e-13 0 -8.38331e-13)
(1.01658e-12 0 -6.7066e-13)
(1.13658e-12 0 -5.10272e-13)
(1.21953e-12 0 -3.59012e-13)
(1.26834e-12 0 -2.18166e-13)
(1.28604e-12 0 -8.8547e-14)
(1.27571e-12 0 2.9425e-14)
(1.24034e-12 0 1.35641e-13)
(1.18286e-12 0 2.30231e-13)
(1.10602e-12 0 3.13492e-13)
(1.01245e-12 0 3.85833e-13)
(9.04582e-13 0 4.47724e-13)
(7.84708e-13 0 4.99654e-13)
(6.5496e-13 0 5.42097e-13)
(5.17332e-13 0 5.75483e-13)
(3.73702e-13 0 6.00182e-13)
(2.25853e-13 0 6.16481e-13)
(7.55463e-14 0 6.2458e-13)
(0.000393463 0 -0.0015672)
(0.0003769 0 -0.00194197)
(0.000544862 0 -0.0019188)
(0.000706955 0 -0.00178318)
(0.0011153 0 -0.00140762)
(0.000931676 0 -0.00145814)
(0.00154587 0 -0.000492045)
(0.00131217 0 -0.000567113)
(0.0012285 0 -0.000513641)
(0.00126382 0 -0.000293505)
(0.00124012 0 -0.000232466)
(0.00123385 0 -0.000176151)
(0.00125022 0 -0.000155789)
(0.00126886 0 -0.000135924)
(0.00127307 0 -0.000140256)
(0.00128749 0 -0.000135587)
(0.00130345 0 -0.000148838)
(0.00130302 0 -0.000156003)
(0.00129505 0 -0.000173104)
(0.00129765 0 -0.000182827)
(0.00130816 0 -0.000196234)
(0.001316 0 -0.000143307)
(0.00131878 0 -0.000138161)
(0.00133147 0 -0.000155461)
(0.001355 0 -0.000130217)
(0.0013706 0 -0.000111067)
(0.00138656 0 -0.000105927)
(0.00140058 0 -2.45863e-05)
(0.00140958 0 2.89432e-05)
(0.00144988 0 4.55685e-05)
(0.00151386 0 5.48359e-05)
(0.00151961 0 7.01321e-05)
(0.00153648 0 8.3054e-05)
(0.00158919 0 8.75958e-05)
(0.00162086 0 7.72697e-06)
(0.00161981 0 4.07892e-05)
(0.00163189 0 9.26521e-06)
(0.00166163 0 3.57754e-05)
(0.0017154 0 1.7273e-05)
(0.0017926 0 -6.57094e-05)
(0.00182516 0 -7.53105e-05)
(0.00182558 0 -6.50576e-05)
(0.00184108 0 -5.9835e-05)
(0.0018783 0 -6.54067e-05)
(0.00191481 0 -3.10335e-05)
(0.00191354 0 -2.11843e-05)
(0.00191271 0 -1.69414e-05)
(0.00192127 0 -6.24908e-06)
(0.00192521 0 1.51499e-05)
(0.00191659 0 9.20637e-06)
(0.00189944 0 5.02294e-05)
(0.00188067 0 9.60569e-05)
(0.00185367 0 6.57482e-05)
(0.00181267 0 0.0001381)
(0.00180549 0 0.000143025)
(0.00179617 0 0.000125522)
(0.00176691 0 0.000120091)
(0.00173301 0 8.66027e-05)
(0.00171139 0 7.26589e-05)
(0.00168749 0 7.20873e-05)
(0.00165114 0 7.36138e-05)
(0.00161139 0 9.84031e-06)
(0.00158005 0 0.00011489)
(0.00155632 0 9.32184e-05)
(0.00152104 0 0.000137232)
(0.00148384 0 0.000132715)
(0.00144745 0 0.000186887)
(0.00139478 0 0.000243294)
(0.00135999 0 6.73638e-05)
(0.00127023 0 0.000365147)
(0.00126718 0 0.000227378)
(0.0010898 0 0.000520499)
(0.00102863 0 0.000676166)
(0.000814188 0 0.00102756)
(0.0007904 0 0.0010675)
(0.000494699 0 0.00127226)
(0.000839538 0 0.0010964)
(0.000659665 0 0.00124369)
(0.000705771 0 0.00129926)
(0.000377429 0 0.00152503)
(0.000419156 0 0.00160501)
(-2.28325e-06 0 0.00143994)
(-3.95784e-12 0 7.6616e-12)
(-7.8124e-12 0 2.90792e-12)
(-7.05315e-12 0 9.58362e-13)
(-6.68237e-12 0 -1.27489e-13)
(-6.2955e-12 0 -8.69786e-13)
(-5.84546e-12 0 -1.42508e-12)
(-5.33905e-12 0 -1.84854e-12)
(-4.79007e-12 0 -2.16412e-12)
(-4.21267e-12 0 -2.38543e-12)
(-3.6208e-12 0 -2.52254e-12)
(-3.02799e-12 0 -2.58449e-12)
(-2.44671e-12 0 -2.58023e-12)
(-1.88797e-12 0 -2.5189e-12)
(-1.36105e-12 0 -2.4098e-12)
(-8.73295e-13 0 -2.26213e-12)
(-4.30103e-13 0 -2.08479e-12)
(-3.50162e-14 0 -1.88611e-12)
(3.10121e-13 0 -1.67369e-12)
(6.04933e-13 0 -1.45422e-12)
(8.5027e-13 0 -1.23345e-12)
(1.04795e-12 0 -1.01614e-12)
(1.2005e-12 0 -8.06071e-13)
(1.31096e-12 0 -6.06166e-13)
(1.38267e-12 0 -4.18533e-13)
(1.41914e-12 0 -2.44588e-13)
(1.42387e-12 0 -8.51603e-14)
(1.40033e-12 0 5.93916e-14)
(1.35182e-12 0 1.89083e-13)
(1.28147e-12 0 3.04203e-13)
(1.1922e-12 0 4.05236e-13)
(1.08671e-12 0 4.92782e-13)
(9.67497e-13 0 5.67503e-13)
(8.36832e-13 0 6.30065e-13)
(6.96814e-13 0 6.81105e-13)
(5.49375e-13 0 7.21194e-13)
(3.96309e-13 0 7.50817e-13)
(2.39304e-13 0 7.70349e-13)
(8.00107e-14 0 7.8005e-13)
(-0.000792667 0 -0.00173564)
(0.000769519 0 -0.00200784)
(0.000724568 0 -0.00199465)
(0.000813943 0 -0.00183069)
(0.000906199 0 -0.00155266)
(0.000765061 0 -0.00138588)
(0.00119204 0 -0.000769362)
(0.000651965 0 -0.00103064)
(0.00104987 0 -0.000345715)
(0.000989771 0 -0.000314029)
(0.00096429 0 -0.000281754)
(0.000978415 0 -0.00026205)
(0.00101567 0 -0.000199348)
(0.0010344 0 -0.000166676)
(0.00104018 0 -0.000164896)
(0.00105201 0 -0.000148932)
(0.00105536 0 -0.000144076)
(0.00105655 0 -0.000136617)
(0.00104422 0 -0.000161892)
(0.00103454 0 -0.000135615)
(0.00101843 0 -0.000131971)
(0.00100014 0 -0.000123384)
(0.00100068 0 -0.000115317)
(0.00101418 0 -8.46371e-05)
(0.00101783 0 -0.00010938)
(0.00102096 0 -7.59829e-05)
(0.00103465 0 -4.58425e-05)
(0.00106039 0 -2.02227e-05)
(0.00108059 0 -2.99183e-05)
(0.00111923 0 4.50372e-05)
(0.00118272 0 0.000125372)
(0.00122981 0 -9.53119e-06)
(0.0012623 0 1.34163e-05)
(0.00131702 0 4.52595e-05)
(0.00139037 0 4.97164e-05)
(0.00142072 0 -4.73353e-05)
(0.00145311 0 -2.49659e-06)
(0.00149672 0 -6.87863e-05)
(0.00154176 0 -0.00010267)
(0.00160153 0 -3.11414e-05)
(0.00161717 0 -0.000137303)
(0.00162696 0 -0.000127161)
(0.0016481 0 -0.000119984)
(0.00167937 0 -0.000112466)
(0.0017104 0 -5.16123e-05)
(0.00172792 0 -2.80737e-05)
(0.00173625 0 -4.49434e-05)
(0.00174677 0 -3.49023e-05)
(0.00175632 0 -1.18804e-06)
(0.00175379 0 5.46496e-06)
(0.00173943 0 3.69543e-06)
(0.0017185 0 5.26928e-05)
(0.00169444 0 9.8419e-05)
(0.00166658 0 0.000102572)
(0.00163605 0 0.000178102)
(0.00161195 0 0.000191204)
(0.00158201 0 0.000187857)
(0.00155072 0 0.000217831)
(0.00153257 0 0.000209157)
(0.00150262 0 0.000202367)
(0.00145451 0 0.00021979)
(0.00142032 0 0.00018006)
(0.00140316 0 0.000198304)
(0.00138728 0 0.0002122)
(0.00136158 0 0.00020933)
(0.00131648 0 0.000269356)
(0.00128597 0 0.000269537)
(0.00122338 0 0.000301802)
(0.0011075 0 0.000403753)
(0.00109546 0 0.00046103)
(0.00107744 0 0.000482222)
(0.00103709 0 0.000452325)
(0.00100853 0 0.000513504)
(0.00107192 0 0.00040605)
(0.000791653 0 0.000733851)
(0.00110683 0 0.000518057)
(0.000467216 0 0.00121445)
(0.000498164 0 0.00133017)
(0.000367011 0 0.0014459)
(0.000166342 0 0.00157513)
(-3.55028e-05 0 0.00170615)
(-6.82853e-07 0 0.00171958)
(-5.0793e-12 0 2.50559e-12)
(-9.68274e-12 0 1.48132e-12)
(-8.37638e-12 0 3.17274e-13)
(-7.60423e-12 0 -6.32045e-13)
(-6.97568e-12 0 -1.38338e-12)
(-6.36284e-12 0 -1.97702e-12)
(-5.72979e-12 0 -2.43849e-12)
(-5.07271e-12 0 -2.78277e-12)
(-4.39907e-12 0 -3.02028e-12)
(-3.72077e-12 0 -3.1601e-12)
(-3.05104e-12 0 -3.21159e-12)
(-2.40261e-12 0 -3.18485e-12)
(-1.78682e-12 0 -3.0907e-12)
(-1.21305e-12 0 -2.94046e-12)
(-6.88475e-13 0 -2.74545e-12)
(-2.18012e-13 0 -2.51664e-12)
(1.95534e-13 0 -2.26429e-12)
(5.51249e-13 0 -1.99766e-12)
(8.49809e-13 0 -1.72484e-12)
(1.09316e-12 0 -1.45266e-12)
(1.28422e-12 0 -1.18671e-12)
(1.42655e-12 0 -9.31342e-13)
(1.52412e-12 0 -6.89813e-13)
(1.58111e-12 0 -4.64393e-13)
(1.60171e-12 0 -2.56516e-13)
(1.59002e-12 0 -6.69226e-14)
(1.54995e-12 0 1.04198e-13)
(1.48515e-12 0 2.57077e-13)
(1.39901e-12 0 3.92251e-13)
(1.2946e-12 0 5.10459e-13)
(1.17472e-12 0 6.12554e-13)
(1.04186e-12 0 6.99438e-13)
(8.9831e-13 0 7.71998e-13)
(7.46089e-13 0 8.31065e-13)
(5.87043e-13 0 8.77373e-13)
(4.22856e-13 0 9.11542e-13)
(2.55087e-13 0 9.3405e-13)
(8.52472e-14 0 9.45221e-13)
(0.000291315 0 -0.00209995)
(0.000329538 0 -0.00230381)
(0.000325989 0 -0.00223473)
(0.000564385 0 -0.00198542)
(0.000664764 0 -0.00164717)
(0.000703409 0 -0.0013507)
(0.000919419 0 -0.000878484)
(0.000624274 0 -0.000802055)
(0.000894394 0 -0.000288075)
(0.000792022 0 -0.000386478)
(0.000790909 0 -0.000290721)
(0.000817736 0 -0.000251657)
(0.000836589 0 -0.000219257)
(0.000855653 0 -0.000186768)
(0.000866006 0 -0.000167512)
(0.000866558 0 -0.000165081)
(0.000855261 0 -0.00017624)
(0.000851567 0 -0.000136705)
(0.000847 0 -0.000138522)
(0.000839524 0 -0.000143463)
(0.000826668 0 -0.000138917)
(0.000822177 0 -0.000149678)
(0.000823384 0 -0.000172444)
(0.000842138 0 -0.000146434)
(0.000843482 0 -0.000132248)
(0.000842679 0 -0.000135504)
(0.000856472 0 -8.0584e-05)
(0.000881133 0 -4.89795e-05)
(0.000915382 0 -6.24993e-05)
(0.000963291 0 -5.88723e-05)
(0.00102096 0 1.28642e-05)
(0.00108039 0 2.19084e-05)
(0.00112053 0 -3.54767e-05)
(0.0011535 0 -2.70638e-05)
(0.00119569 0 4.45285e-07)
(0.00122772 0 -5.54377e-05)
(0.00125831 0 -6.73743e-05)
(0.0012991 0 -2.32848e-05)
(0.00133157 0 -7.01844e-05)
(0.00135853 0 -9.68425e-05)
(0.00137347 0 -0.000127034)
(0.00139527 0 -0.000120701)
(0.0014245 0 -0.000110057)
(0.00145121 0 -0.000112591)
(0.00147782 0 -9.19732e-05)
(0.00151058 0 -6.39382e-05)
(0.00153115 0 -4.06908e-05)
(0.00152964 0 -2.46737e-05)
(0.00152279 0 1.3237e-05)
(0.00151326 0 3.96359e-05)
(0.00150358 0 5.43587e-05)
(0.00149354 0 6.66887e-05)
(0.00148008 0 6.20194e-05)
(0.0014595 0 5.57038e-05)
(0.00143516 0 8.75766e-05)
(0.00141529 0 9.38413e-05)
(0.00139418 0 8.0584e-05)
(0.00135992 0 9.72032e-05)
(0.001324 0 0.000151244)
(0.00129101 0 0.000156697)
(0.00125895 0 0.000117891)
(0.00122773 0 0.000162117)
(0.00120873 0 0.000179047)
(0.00119458 0 0.000213703)
(0.00117069 0 0.000226178)
(0.00115324 0 0.000230937)
(0.00111302 0 0.000354695)
(0.00108034 0 0.000290967)
(0.00103035 0 0.000239825)
(0.00106423 0 0.000299276)
(0.0010383 0 0.000423656)
(0.000888416 0 0.00058525)
(0.000751794 0 0.000759678)
(0.00058887 0 0.000928162)
(0.000729991 0 0.000866283)
(0.000419111 0 0.00112181)
(0.000329647 0 0.00130526)
(0.000449997 0 0.0014159)
(0.000241695 0 0.00156627)
(0.000203683 0 0.00164928)
(5.70554e-05 0 0.00169714)
(-7.31749e-08 0 0.00168206)
(-5.20155e-12 0 4.18747e-13)
(-9.99957e-12 0 1.94725e-13)
(-9.16572e-12 0 -5.38367e-13)
(-8.38249e-12 0 -1.33449e-12)
(-7.6401e-12 0 -2.0546e-12)
(-6.90032e-12 0 -2.66109e-12)
(-6.14465e-12 0 -3.14557e-12)
(-5.37185e-12 0 -3.50821e-12)
(-4.59e-12 0 -3.75282e-12)
(-3.81212e-12 0 -3.88603e-12)
(-3.05273e-12 0 -3.91696e-12)
(-2.32582e-12 0 -3.85688e-12)
(-1.64359e-12 0 -3.71863e-12)
(-1.0158e-12 0 -3.51591e-12)
(-4.49478e-13 0 -3.26259e-12)
(5.10528e-14 0 -2.97207e-12)
(4.83967e-13 0 -2.65678e-12)
(8.49577e-13 0 -2.32784e-12)
(1.14993e-12 0 -1.99482e-12)
(1.3884e-12 0 -1.66566e-12)
(1.56927e-12 0 -1.34671e-12)
(1.69739e-12 0 -1.04279e-12)
(1.77791e-12 0 -7.57369e-13)
(1.81597e-12 0 -4.92732e-13)
(1.81661e-12 0 -2.50185e-13)
(1.78459e-12 0 -3.02359e-14)
(1.72433e-12 0 1.67224e-13)
(1.63987e-12 0 3.42759e-13)
(1.53485e-12 0 4.97252e-13)
(1.4125e-12 0 6.31784e-13)
(1.27569e-12 0 7.47532e-13)
(1.12694e-12 0 8.45695e-13)
(9.68458e-13 0 9.27425e-13)
(8.02189e-13 0 9.93782e-13)
(6.29852e-13 0 1.04569e-12)
(4.52985e-13 0 1.08393e-12)
(2.72983e-13 0 1.10909e-12)
(9.11821e-14 0 1.12156e-12)
(-0.0006564 0 -0.00221072)
(0.000633668 0 -0.00239681)
(0.000422052 0 -0.00231221)
(0.0006386 0 -0.00200346)
(0.00060014 0 -0.00166494)
(0.00054393 0 -0.00137407)
(0.00069047 0 -0.000960548)
(0.000580063 0 -0.000701976)
(0.000668493 0 -0.000445926)
(0.000635545 0 -0.000417262)
(0.000622725 0 -0.000361535)
(0.000687266 0 -0.000269485)
(0.000691744 0 -0.000233017)
(0.000704021 0 -0.000202213)
(0.000714286 0 -0.000172444)
(0.000721978 0 -0.000131301)
(0.000712083 0 -0.000140429)
(0.000703007 0 -0.000148002)
(0.000705662 0 -0.000143364)
(0.000705342 0 -0.000139878)
(0.000696578 0 -0.000131215)
(0.000695275 0 -0.000131982)
(0.000699989 0 -0.000143142)
(0.000711071 0 -0.000140974)
(0.000717988 0 -0.000135903)
(0.00072779 0 -0.00013432)
(0.00074524 0 -8.1833e-05)
(0.000763925 0 -6.66725e-05)
(0.000795762 0 -0.000141277)
(0.000864845 0 4.43527e-06)
(0.00090122 0 -2.9684e-06)
(0.00090596 0 -9.61238e-05)
(0.000922413 0 -7.63847e-05)
(0.000945355 0 -3.08297e-05)
(0.00097676 0 -4.68479e-05)
(0.00101208 0 -9.3648e-05)
(0.0010403 0 -8.0478e-05)
(0.00104562 0 -0.000137635)
(0.00106679 0 -0.000140069)
(0.00109371 0 -0.00010359)
(0.00109586 0 -0.00016164)
(0.00111259 0 -0.00016824)
(0.00115401 0 -0.000178186)
(0.00120075 0 -0.000185263)
(0.00122941 0 -9.99036e-05)
(0.00123935 0 -8.14535e-05)
(0.00125482 0 -6.24705e-05)
(0.00125989 0 -2.394e-05)
(0.00125143 0 1.36428e-05)
(0.00122997 0 4.57935e-05)
(0.00119706 0 0.000131615)
(0.00118624 0 0.000180953)
(0.00118067 0 0.000210403)
(0.00117258 0 0.000230259)
(0.00116073 0 0.000262261)
(0.00114809 0 0.000282388)
(0.00113038 0 0.000289907)
(0.00110836 0 0.000222464)
(0.00106421 0 0.000232524)
(0.0010374 0 0.000199223)
(0.00102822 0 0.000151642)
(0.00101409 0 0.000167145)
(0.000999466 0 0.000132429)
(0.000981874 0 0.000225187)
(0.000977094 0 0.000230992)
(0.00096297 0 0.000283143)
(0.000971605 0 0.000326601)
(0.000958697 0 0.000365136)
(0.000995394 0 0.000291603)
(0.00083623 0 0.000609096)
(0.000786347 0 0.000687629)
(0.000675476 0 0.000780506)
(0.000572434 0 0.000870761)
(0.000434176 0 0.000987569)
(0.000283872 0 0.0011009)
(0.000264334 0 0.00117448)
(0.000154942 0 0.0013339)
(0.000144645 0 0.00151316)
(0.000266371 0 0.00174462)
(0.000171608 0 0.00182473)
(0.000118299 0 0.00175516)
(-2.02893e-06 0 0.00162904)
(-4.92528e-12 0 -5.93942e-14)
(-1.06387e-11 0 -5.82623e-13)
(-9.90476e-12 0 -1.33082e-12)
(-9.11989e-12 0 -2.11283e-12)
(-8.3019e-12 0 -2.83935e-12)
(-7.4536e-12 0 -3.46711e-12)
(-6.57676e-12 0 -3.97446e-12)
(-5.67997e-12 0 -4.35166e-12)
(-4.77689e-12 0 -4.5968e-12)
(-3.88491e-12 0 -4.71426e-12)
(-3.02189e-12 0 -4.71336e-12)