/*--------------------------------*- C++ -*----------------------------------*\
  =========                 |
  \\      /  F ield         | OpenFOAM: The Open Source CFD Toolbox
   \\    /   O peration     | Website:  https://openfoam.org
    \\  /    A nd           | Version:  6
     \\/     M anipulation  |
\*---------------------------------------------------------------------------*/
FoamFile
{
    version     2.0;
    format      ascii;
    class       surfaceScalarField;
    location    "2900";
    object      phi;
}
// * * * * * * * * * * * * * * * * * * * * * * * * * * * * * * * * * * * * * //

dimensions      [0 3 -1 0 0 0 0];

internalField   nonuniform List<scalar> 
9440
(
-1.92639e-14
1.92642e-14
-3.43731e-14
2.00367e-14
-5.07748e-14
2.03447e-14
-6.74305e-14
2.04384e-14
-8.40919e-14
2.04068e-14
-1.00683e-13
2.03144e-14
-1.17139e-13
2.01511e-14
-1.33432e-13
1.99599e-14
-1.49485e-13
1.96815e-14
-1.65158e-13
1.92589e-14
-1.80407e-13
1.87889e-14
-1.95088e-13
1.81663e-14
-2.08997e-13
1.73328e-14
-2.22392e-13
1.67586e-14
-2.35204e-13
1.61056e-14
-2.47765e-13
1.57811e-14
-2.59756e-13
1.51319e-14
-2.69352e-13
1.26527e-14
-2.78115e-13
1.17326e-14
-2.86892e-13
1.16531e-14
-2.95716e-13
1.16036e-14
-3.00533e-13
7.49242e-15
-3.05973e-13
8.00936e-15
-3.10393e-13
6.88089e-15
-3.13493e-13
5.44806e-15
-3.15674e-13
4.4103e-15
-3.16972e-13
3.40494e-15
-3.17333e-13
2.34101e-15
-3.16776e-13
1.29893e-15
-3.1526e-13
2.086e-16
-3.12785e-13
-8.872e-16
-3.09377e-13
-1.95255e-15
-3.0507e-13
-2.99253e-15
-2.99805e-13
-4.09058e-15
-2.93612e-13
-5.16266e-15
-2.86501e-13
-6.22412e-15
-2.78439e-13
-7.32302e-15
-2.69501e-13
-8.34675e-15
-2.59638e-13
-9.4219e-15
-2.48925e-13
-1.04214e-14
-2.37348e-13
-1.14348e-14
-2.24978e-13
-1.23791e-14
-2.11869e-13
-1.32691e-14
-1.98037e-13
-1.41413e-14
-1.8366e-13
-1.4838e-14
-1.68705e-13
-1.55639e-14
-1.53301e-13
-1.61635e-14
-1.37608e-13
-1.66018e-14
-1.21671e-13
-1.699e-14
-1.05625e-13
-1.72459e-14
-8.96233e-14
-1.73428e-14
-7.37479e-14
-1.73585e-14
-5.81798e-14
-1.71899e-14
-4.30498e-14
-1.68879e-14
-2.84871e-14
-1.64546e-14
-1.4565e-14
-1.59432e-14
-1.42508e-15
-1.52893e-14
1.08598e-14
-1.4559e-14
2.21418e-14
-1.36738e-14
3.24529e-14
-1.28219e-14
4.16926e-14
-1.1861e-14
4.98706e-14
-1.09067e-14
5.69549e-14
-9.91898e-15
6.29778e-14
-8.95475e-15
6.79431e-14
-7.99129e-15
7.19805e-14
-7.15133e-15
7.51029e-14
-6.32439e-15
7.74393e-14
-5.61396e-15
7.91605e-14
-5.07248e-15
8.04952e-14
-4.75659e-15
8.16266e-14
-4.61209e-15
8.29648e-14
-4.87784e-15
8.51414e-14
-5.76488e-15
8.97414e-14
-8.23444e-15
1.00888e-13
-1.48192e-14
1.31151e-13
-3.39687e-14
2.20308e-13
-9.28878e-14
9.68802e-14
1.19673e-13
2.33403e-15
9.07774e-14
4.87093e-21
-1.3025e-20
4.85152e-21
-1.95938e-23
4.76942e-21
7.90991e-23
4.39424e-21
8.83015e-23
4.02491e-21
7.73931e-23
3.69595e-21
6.37446e-23
3.41e-21
5.05614e-23
3.16521e-21
3.8619e-23
2.95841e-21
2.82792e-23
2.78563e-21
1.96455e-23
2.64248e-21
1.28213e-23
2.52419e-21
7.59972e-24
2.42576e-21
3.92911e-24
2.34216e-21
1.24077e-24
2.26937e-21
-2.58495e-25
2.20335e-21
-1.29247e-24
2.14142e-21
-1.75776e-24
2.08077e-21
-1.80946e-24
2.01967e-21
-1.91286e-24
1.95664e-21
-1.96455e-24
1.89088e-21
-2.01625e-24
1.82156e-21
-2.11965e-24
1.74845e-21
-2.27475e-24
1.67142e-21
-2.63664e-24
1.59015e-21
-3.05023e-24
1.505e-21
-3.56722e-24
1.41587e-21
-4.1876e-24
1.32297e-21
-4.91139e-24
1.22681e-21
-5.63517e-24
1.12734e-21
-6.56575e-24
1.02519e-21
-7.49633e-24
9.20497e-22
-8.4269e-24
8.13584e-22
-9.40918e-24
7.05016e-22
-1.03915e-23
5.94846e-22
-1.16322e-23
4.83797e-22
-1.28213e-23
3.72542e-22
-1.43723e-23
2.6232e-22
-1.6647e-23
1.5551e-22
-2.14033e-23
5.98155e-23
-3.31389e-23
-6.94832e-23
-1.80086e-14
4.22046e-14
-3.4138e-14
4.40303e-14
-5.12304e-14
4.42783e-14
-6.82459e-14
4.41483e-14
-8.50837e-14
4.38899e-14
-1.01794e-13
4.3619e-14
-1.18376e-13
4.32725e-14
-1.3474e-13
4.27959e-14
-1.50788e-13
4.21222e-14
-1.66503e-13
4.12832e-14
-1.81741e-13
4.02374e-14
-1.96375e-13
3.8906e-14
-2.10248e-13
3.71957e-14
-2.23569e-13
3.59466e-14
-2.36362e-13
3.4634e-14
-2.49289e-13
3.43001e-14
-2.60829e-13
3.2113e-14
-2.70368e-13
2.74738e-14
-2.79239e-13
2.57187e-14
-2.88298e-13
2.56526e-14
-2.96554e-13
2.46163e-14
-3.01748e-13
1.72556e-14
-3.07099e-13
1.77291e-14
-3.11564e-13
1.55112e-14
-3.1456e-13
1.23993e-14
-3.16788e-13
1.03722e-14
-3.18069e-13
8.20015e-15
-3.18429e-13
5.98611e-15
-3.17827e-13
3.74662e-15
-3.16294e-13
1.48348e-15
-3.13833e-13
-7.80592e-16
-3.10471e-13
-2.99679e-15
-3.06093e-13
-5.30295e-15
-3.00853e-13
-7.51829e-15
-2.94732e-13
-9.73487e-15
-2.87547e-13
-1.21222e-14
-2.7949e-13
-1.43574e-14
-2.70547e-13
-1.65332e-14
-2.60658e-13
-1.8819e-14
-2.49887e-13
-2.09718e-14
-2.38291e-13
-2.30775e-14
-2.25864e-13
-2.51235e-14
-2.12702e-13
-2.70191e-14
-1.98865e-13
-2.88314e-14
-1.84309e-13
-3.0519e-14
-1.69263e-13
-3.19991e-14
-1.53761e-13
-3.33166e-14
-1.37938e-13
-3.43351e-14
-1.21866e-13
-3.52331e-14
-1.05695e-13
-3.58429e-14
-8.95543e-14
-3.61635e-14
-7.35988e-14
-3.62397e-14
-5.79124e-14
-3.6045e-14
-4.26337e-14
-3.55722e-14
-2.79479e-14
-3.47811e-14
-1.38955e-14
-3.38588e-14
-6.44436e-16
-3.26239e-14
1.16959e-14
-3.11969e-14
2.30452e-14
-2.95267e-14
3.34062e-14
-2.78866e-14
4.2687e-14
-2.60379e-14
5.08921e-14
-2.41926e-14
5.79639e-14
-2.22455e-14
6.3901e-14
-2.03149e-14
6.88502e-14
-1.85188e-14
7.27802e-14
-1.68124e-14
7.577e-14
-1.51819e-14
7.79816e-14
-1.38262e-14
7.9582e-14
-1.27925e-14
8.06741e-14
-1.20782e-14
8.14268e-14
-1.16935e-14
8.20391e-14
-1.19098e-14
8.28225e-14
-1.30471e-14
8.36485e-14
-1.56248e-14
8.311e-14
-2.0904e-14
7.34255e-14
-3.09535e-14
2.17192e-14
-4.78909e-14
2.59127e-14
1.08745e-13
1.80539e-15
1.09577e-13
4.96347e-21
-1.74201e-20
4.95026e-21
-2.678e-23
4.77862e-21
-1.24594e-23
4.38328e-21
-1.23043e-23
4.01131e-21
-1.75776e-23
3.68271e-21
-2.36781e-23
3.39801e-21
-2.93649e-23
3.15492e-21
-3.42246e-23
2.94978e-21
-3.83088e-23
2.77881e-21
-4.14624e-23
2.63731e-21
-4.37889e-23
2.52047e-21
-4.55983e-23
2.42312e-21
-4.71493e-23
2.34056e-21
-4.84418e-23
2.26839e-21
-4.98893e-23
2.20294e-21
-5.15954e-23
2.14126e-21
-5.35083e-23
2.08067e-21
-5.58864e-23
2.01967e-21
-5.8523e-23
1.95654e-21
-6.15733e-23
1.89083e-21
-6.49337e-23
1.82145e-21
-6.87594e-23
1.74804e-21
-7.27402e-23
1.67096e-21
-7.69278e-23
1.58969e-21
-8.12705e-23
1.50438e-21
-8.57683e-23
1.4151e-21
-9.03695e-23
1.32225e-21
-9.48673e-23
1.22588e-21
-9.92617e-23
1.12636e-21
-1.03604e-22
1.02426e-21
-1.07792e-22
9.19515e-22
-1.11824e-22
8.12602e-22
-1.1565e-22
7.03879e-22
-1.19217e-22
5.93657e-22
-1.22526e-22
4.82246e-22
-1.25835e-22
3.70267e-22
-1.2904e-22
2.57563e-22
-1.32711e-22
1.43774e-22
-1.37415e-22
2.34196e-23
-1.43516e-22
-1.47548e-22
-1.94502e-14
6.55977e-14
-3.48377e-14
6.62429e-14
-5.11205e-14
6.6479e-14
-6.76551e-14
6.64895e-14
-8.43118e-14
6.63128e-14
-1.0095e-13
6.59845e-14
-1.17572e-13
6.55691e-14
-1.34063e-13
6.49066e-14
-1.50355e-13
6.39679e-14
-1.6632e-13
6.27258e-14
-1.81869e-13
6.11851e-14
-1.96742e-13
5.90877e-14
-2.11041e-13
5.6701e-14
-2.24654e-13
5.46604e-14
-2.37887e-13
5.28528e-14
-2.5162e-13
5.28963e-14
-2.62609e-13
4.78345e-14
-2.72156e-13
4.16185e-14
-2.81493e-13
3.95073e-14
-2.91248e-13
3.97066e-14
-2.98195e-13
3.57056e-14
-3.04025e-13
2.70648e-14
-3.09398e-13
2.69089e-14
-3.13843e-13
2.35882e-14
-3.16724e-13
1.87285e-14
-3.19032e-13
1.59426e-14
-3.2033e-13
1.25624e-14
-3.20673e-13
9.19919e-15
-3.20078e-13
5.8171e-15
-3.18572e-13
2.43522e-15
-3.16138e-13
-9.67339e-16
-3.12744e-13
-4.3603e-15
-3.084e-13
-7.83072e-15
-3.03128e-13
-1.11964e-14
-2.9696e-13
-1.4537e-14
-2.89819e-13
-1.81223e-14
-2.81739e-13
-2.15272e-14
-2.72751e-13
-2.48419e-14
-2.62792e-13
-2.83292e-14
-2.5196e-13
-3.15884e-14
-2.40282e-13
-3.47721e-14
-2.27816e-13
-3.78432e-14
-2.1447e-13
-4.0851e-14
-2.00453e-13
-4.3565e-14
-1.85764e-13
-4.61557e-14
-1.70572e-13
-4.83721e-14
-1.54867e-13
-5.04282e-14
-1.38786e-13
-5.20522e-14
-1.22484e-13
-5.33974e-14
-1.06053e-13
-5.43558e-14
-8.96509e-14
-5.48655e-14
-7.33657e-14
-5.50395e-14
-5.74221e-14
-5.47167e-14
-4.19182e-14
-5.40061e-14
-2.69915e-14
-5.28409e-14
-1.26649e-14
-5.15172e-14
7.84523e-16
-4.95976e-14
1.32918e-14
-4.74134e-14
2.48238e-14
-4.49473e-14
3.52567e-14
-4.23849e-14
4.46227e-14
-3.96327e-14
5.27865e-14
-3.67469e-14
5.97966e-14
-3.37994e-14
6.57555e-14
-3.09609e-14
7.05372e-14
-2.81267e-14
7.42601e-14
-2.5493e-14
7.70862e-14
-2.30874e-14
7.90589e-14
-2.09884e-14
8.03167e-14
-1.93465e-14
8.09684e-14
-1.81251e-14
8.11238e-14
-1.7331e-14
8.09706e-14
-1.73159e-14
8.02346e-14
-1.79399e-14
7.83005e-14
-1.9381e-14
7.27749e-14
-2.11211e-14
5.7247e-14
-2.12027e-14
1.50939e-14
-1.15542e-14
1.39876e-14
1.04015e-13
1.72085e-15
1.17163e-13
4.9767e-21
-2.56273e-20
4.96458e-21
-3.95496e-23
4.77873e-21
-4.18243e-23
4.37806e-21
-4.75112e-23
4.00521e-21
-5.38184e-23
3.67708e-21
-5.97638e-23
3.3931e-21
-6.47786e-23
3.15089e-21
-6.88111e-23
2.94668e-21
-7.17579e-23
2.77638e-21
-7.41361e-23
2.63555e-21
-7.59455e-23
2.51897e-21
-7.74448e-23
2.42183e-21
-7.90475e-23
2.33906e-21
-8.09086e-23
2.26668e-21
-8.32351e-23
2.20113e-21
-8.59751e-23
2.13888e-21
-8.9594e-23
2.07803e-21
-9.37816e-23
2.01661e-21
-9.86413e-23
1.95313e-21
-1.04121e-22
1.88701e-21
-1.10015e-22
1.81742e-21
-1.16426e-22
1.7439e-21
-1.2325e-22
1.66661e-21
-1.30333e-22
1.58524e-21
-1.37674e-22
1.49978e-21
-1.45119e-22
1.4106e-21
-1.52563e-22
1.31785e-21
-1.59904e-22
1.22149e-21
-1.67194e-22
1.12217e-21
-1.74277e-22
1.02028e-21
-1.80997e-22
9.15689e-22
-1.87305e-22
8.09034e-22
-1.93198e-22
7.00519e-22
-1.9873e-22
5.90349e-22
-2.03797e-22
4.78989e-22
-2.08605e-22
3.66596e-22
-2.12999e-22
2.5291e-22
-2.17187e-22
1.37726e-22
-2.21271e-22
1.9387e-23
-2.2489e-22
-2.26234e-22
-1.89899e-14
8.83626e-14
-3.46503e-14
8.8566e-14
-5.10482e-14
8.8667e-14
-6.76378e-14
8.87638e-14
-8.4354e-14
8.86748e-14
-1.01189e-13
8.84264e-14
-1.18009e-13
8.7948e-14
-1.34741e-13
8.71421e-14
-1.51313e-13
8.59796e-14
-1.67626e-13
8.44067e-14
-1.83449e-13
8.22917e-14
-1.98606e-13
7.9442e-14
-2.13455e-13
7.6648e-14
-2.27131e-13
7.33318e-14
-2.40851e-13
7.14564e-14
-2.55493e-13
7.23008e-14
-2.65568e-13
6.25445e-14
-2.75105e-13
5.56563e-14
-2.8498e-13
5.37424e-14
-2.96099e-13
5.50361e-14
-3.00464e-13
4.41259e-14
-3.07636e-13
3.81329e-14
-3.12906e-13
3.59098e-14
-3.17249e-13
3.14872e-14
-3.20102e-13
2.49598e-14
-3.22458e-13
2.1496e-14
-3.23733e-13
1.6842e-14
-3.241e-13
1.23753e-14
-3.23502e-13
7.82938e-15
-3.22035e-13
3.37729e-15
-3.19575e-13
-1.22454e-15
-3.16152e-13
-5.7921e-15
-3.11833e-13
-1.03721e-14
-3.06547e-13
-1.49247e-14
-3.00394e-13
-1.93463e-14
-2.93234e-13
-2.41628e-14
-2.85158e-13
-2.87069e-14
-2.76105e-13
-3.32261e-14
-2.66126e-13
-3.78653e-14
-2.55217e-13
-4.2284e-14
-2.43364e-13
-4.66388e-14
-2.30687e-13
-5.07625e-14
-2.17245e-13
-5.47641e-14
-2.03001e-13
-5.85072e-14
-1.88097e-13
-6.19848e-14
-1.72542e-13
-6.50827e-14
-1.56526e-13
-6.7821e-14
-1.40121e-13
-7.00554e-14
-1.23456e-13
-7.18831e-14
-1.06615e-13
-7.32324e-14
-8.97836e-14
-7.39459e-14
-7.31476e-14
-7.41344e-14
-5.67543e-14
-7.37774e-14
-4.08187e-14
-7.28125e-14
-2.54586e-14
-7.12688e-14
-1.08545e-14
-6.93816e-14
2.87734e-15
-6.67743e-14
1.56879e-14
-6.38532e-14
2.74523e-14
-6.05181e-14
3.80685e-14
-5.69755e-14
4.74825e-14
-5.31858e-14
5.57402e-14
-4.9302e-14
6.27493e-14
-4.52536e-14
6.85319e-14
-4.13309e-14
7.31651e-14
-3.74839e-14
7.66737e-14
-3.38518e-14
7.91864e-14
-3.05694e-14
8.07642e-14
-2.76469e-14
8.1534e-14
-2.53005e-14
8.16502e-14
-2.35181e-14
8.12216e-14
-2.22643e-14
8.02973e-14
-2.18324e-14
7.88457e-14
-2.19951e-14
7.64159e-14
-2.25175e-14
7.22983e-14
-2.26214e-14
6.6156e-14
-2.07158e-14
6.26302e-14
-1.3716e-14
1.17112e-14
1.49224e-13
1.69479e-15
1.22611e-13
4.97669e-21
-3.4417e-20
4.96231e-21
-5.34049e-23
4.77304e-21
-6.31759e-23
4.3717e-21
-7.36191e-23
3.99926e-21
-8.22011e-23
3.67206e-21
-8.89736e-23
3.38906e-21
-9.42469e-23
3.14789e-21
-9.79175e-23
2.94435e-21
-1.00709e-22
2.77462e-21
-1.02726e-22
2.63395e-21
-1.04328e-22
2.51737e-21
-1.05983e-22
2.41992e-21
-1.07947e-22
2.33684e-21
-1.10377e-22
2.26394e-21
-1.13582e-22
2.19751e-21
-1.17925e-22
2.13464e-21
-1.23043e-22
2.07312e-21
-1.28988e-22
2.01119e-21
-1.35864e-22
1.94729e-21
-1.43671e-22
1.8806e-21
-1.5215e-22
1.8106e-21
-1.613e-22
1.73677e-21
-1.70865e-22
1.65927e-21
-1.80739e-22
1.57774e-21
-1.90924e-22
1.49234e-21
-2.01212e-22
1.40326e-21
-2.11551e-22
1.31056e-21
-2.21788e-22
1.21446e-21
-2.31714e-22
1.11545e-21
-2.41278e-22
1.01392e-21
-2.50377e-22
9.09847e-22
-2.59063e-22
8.03503e-22
-2.67128e-22
6.95452e-22
-2.74469e-22
5.85592e-22
-2.81293e-22
4.74647e-22
-2.87238e-22
3.62357e-22
-2.92615e-22
2.48775e-22
-2.97371e-22
1.34055e-22
-3.01197e-22
1.80429e-23
-3.03886e-22
-3.04713e-22
-1.86853e-14
1.10778e-13
-3.44121e-14
1.1088e-13
-5.1045e-14
1.11032e-13
-6.77754e-14
1.1112e-13
-8.4722e-14
1.11209e-13
-1.0179e-13
1.11044e-13
-1.18897e-13
1.10552e-13
-1.35988e-13
1.0968e-13
-1.52939e-13
1.08313e-13
-1.69605e-13
1.06384e-13
-1.85747e-13
1.03666e-13
-2.01402e-13
1.00239e-13
-2.16805e-13
9.70965e-14
-2.30567e-13
9.20414e-14
-2.4556e-13
9.12812e-14
-2.59626e-13
9.10793e-14
-2.69566e-13
7.70712e-14
-2.79661e-13
7.02052e-14
-2.90294e-13
6.86906e-14
-3.01241e-13
7.01517e-14
-3.0472e-13
5.16208e-14
-3.12373e-13
4.96418e-14
-3.1766e-13
4.48893e-14
-3.21611e-13
3.89593e-14
-3.2471e-13
3.14015e-14
-3.27007e-13
2.69525e-14
-3.28281e-13
2.10888e-14
-3.28602e-13
1.54786e-14
-3.28068e-13
9.88036e-15
-3.26556e-13
4.24904e-15
-3.24095e-13
-1.50755e-15
-3.20757e-13
-7.15632e-15
-3.16478e-13
-1.28939e-14
-3.11203e-13
-1.8655e-14
-3.05051e-13
-2.41732e-14
-2.97848e-13
-3.02598e-14
-2.89758e-13
-3.59137e-14
-2.80602e-13
-4.17192e-14
-2.7051e-13
-4.75207e-14
-2.59512e-13
-5.3069e-14
-2.47549e-13
-5.86175e-14
-2.34685e-13
-6.38661e-14
-2.20987e-13
-6.89288e-14
-2.06423e-13
-7.37632e-14
-1.91156e-13
-7.81694e-14
-1.75252e-13
-8.21253e-14
-1.58808e-13
-8.563e-14
-1.41903e-13
-8.85449e-14
-1.24716e-13
-9.08706e-14
-1.07369e-13
-9.25924e-14
-8.99482e-14
-9.35931e-14
-7.27548e-14
-9.376e-14
-5.57767e-14
-9.33941e-14
-3.93059e-14
-9.21215e-14
-2.34645e-14
-9.01466e-14
-8.35512e-15
-8.77167e-14
5.82273e-15
-8.43593e-14
1.89974e-14
-8.06195e-14
3.10644e-14
-7.63488e-14
4.18775e-14
-7.17236e-14
5.14241e-14
-6.68271e-14
5.97088e-14
-6.18352e-14
6.66372e-14
-5.65768e-14
7.23241e-14
-5.15576e-14
7.67487e-14
-4.65788e-14
7.99092e-14
-4.18112e-14
8.19963e-14
-3.75718e-14
8.3126e-14
-3.38018e-14
8.33715e-14
-3.06741e-14
8.27702e-14
-2.81355e-14
8.16975e-14
-2.64978e-14
8.01072e-14
-2.56235e-14
7.82891e-14
-2.56261e-14
7.63399e-14
-2.60741e-14
7.45605e-14
-2.6397e-14
7.38645e-14
-2.56161e-14
7.19026e-14
-1.73777e-14
1.12131e-14
2.04268e-13
1.6731e-15
1.27643e-13
4.96345e-21
-4.30215e-20
4.95249e-21
-6.695e-23
4.7626e-21
-8.21494e-23
4.36317e-21
-9.64183e-23
3.99244e-21
-1.0743e-22
3.66679e-21
-1.15392e-22
3.38544e-21
-1.20923e-22
3.14504e-21
-1.24749e-22
2.94233e-21
-1.27179e-22
2.77302e-21
-1.28885e-22
2.63235e-21
-1.30539e-22
2.51546e-21
-1.32349e-22
2.41749e-21
-1.34675e-22
2.33358e-21
-1.37881e-22
2.25955e-21
-1.42223e-22
2.19234e-21
-1.47703e-22
2.12875e-21
-1.54424e-22
2.06625e-21
-1.62386e-22
2.00348e-21
-1.71485e-22
1.93876e-21
-1.81618e-22
1.8715e-21
-1.92578e-22
1.80098e-21
-2.04365e-22
1.72695e-21
-2.16773e-22
1.64909e-21
-2.29543e-22
1.5674e-21
-2.42674e-22
1.48205e-21
-2.55909e-22
1.39302e-21
-2.69092e-22
1.30053e-21
-2.82069e-22
1.20489e-21
-2.94838e-22
1.10641e-21
-3.06936e-22
1.00523e-21
-3.18413e-22
9.01782e-22
-3.2927e-22
7.9611e-22
-3.39403e-22
6.8868e-22
-3.48657e-22
5.79595e-22
-3.57032e-22
4.69218e-22
-3.64321e-22
3.57601e-22
-3.7068e-22
2.45001e-22
-3.75799e-22
1.31418e-22
-3.79676e-22
1.71123e-23
-3.82106e-22
-3.8283e-22
-1.85465e-14
1.33019e-13
-3.42308e-14
1.33072e-13
-5.08577e-14
1.33326e-13
-6.77664e-14
1.3359e-13
-8.49058e-14
1.33873e-13
-1.02258e-13
1.33878e-13
-1.1974e-13
1.33475e-13
-1.37317e-13
1.32639e-13
-1.5479e-13
1.31109e-13
-1.71884e-13
1.28727e-13
-1.8848e-13
1.25433e-13
-2.05221e-13
1.22063e-13
-2.20314e-13
1.17179e-13
-2.35078e-13
1.1169e-13
-2.5268e-13
1.13658e-13
-2.63627e-13
1.06686e-13
-2.74428e-13
9.2407e-14
-2.8545e-13
8.56292e-14
-2.9781e-13
8.53159e-14
-3.05441e-13
8.19024e-14
-3.10929e-13
6.10796e-14
-3.18133e-13
6.06565e-14
-3.23595e-13
5.39994e-14
-3.27071e-13
4.59137e-14
-3.3056e-13
3.81927e-14
-3.32685e-13
3.21989e-14
-3.33961e-13
2.53019e-14
-3.34317e-13
1.85844e-14
-3.3375e-13
1.18662e-14
-3.32212e-13
5.06395e-15
-3.29822e-13
-1.74373e-15
-3.26476e-13
-8.55672e-15
-3.22189e-13
-1.54412e-14
-3.16983e-13
-2.23372e-14
-3.10793e-13
-2.9051e-14
-3.03649e-13
-3.63109e-14
-2.95551e-13
-4.31338e-14
-2.86315e-13
-5.03023e-14
-2.76159e-13
-5.72449e-14
-2.64998e-13
-6.40198e-14
-2.52857e-13
-7.07716e-14
-2.39718e-13
-7.72432e-14
-2.25694e-13
-8.34153e-14
-2.10817e-13
-8.9322e-14
-1.95163e-13
-9.47296e-14
-1.78743e-13
-9.96701e-14
-1.61791e-13
-1.03927e-13
-1.44313e-13
-1.07587e-13
-1.26442e-13
-1.10519e-13
-1.08378e-13
-1.12646e-13
-9.03146e-14
-1.13854e-13
-7.22868e-14
-1.14194e-13
-5.45854e-14
-1.13702e-13
-3.74349e-14
-1.12076e-13
-2.08665e-14
-1.09713e-13
-5.15127e-15
-1.06618e-13
9.5856e-15
-1.02464e-13
2.32328e-14
-9.78139e-14
3.56938e-14
-9.25274e-14
4.68112e-14
-8.67266e-14
5.64836e-14
-8.05425e-14
6.48602e-14
-7.44108e-14
7.17981e-14
-6.78585e-14
7.72537e-14
-6.14959e-14
8.13806e-14
-5.53222e-14
8.41823e-14
-4.9354e-14
8.58217e-14
-4.40665e-14
8.6357e-14
-3.92985e-14
8.58364e-14
-3.52189e-14
8.45408e-14
-3.19962e-14
8.25582e-14
-2.97541e-14
8.01909e-14
-2.85703e-14
7.78138e-14
-2.86295e-14
7.60975e-14
-2.97958e-14
7.60725e-14
-3.18602e-14
7.88194e-14
-3.38883e-14
6.97107e-14
-1.38263e-14
-1.79515e-15
2.702e-13
1.64742e-15
1.19749e-13
4.96345e-21
-5.12817e-20
4.93734e-21
-8.0495e-23
4.74828e-21
-9.96753e-23
4.35216e-21
-1.17356e-22
3.98453e-21
-1.30229e-22
3.66131e-21
-1.39277e-22
3.38157e-21
-1.4517e-22
3.14261e-21
-1.48841e-22
2.94063e-21
-1.51219e-22
2.77137e-21
-1.52718e-22
2.63054e-21
-1.54166e-22
2.51313e-21
-1.56079e-22
2.41428e-21
-1.5887e-22
2.32929e-21
-1.62955e-22
2.25407e-21
-1.68331e-22
2.18572e-21
-1.75156e-22
2.12074e-21
-1.83634e-22
2.05715e-21
-1.93509e-22
1.9933e-21
-2.04934e-22
1.9278e-21
-2.17445e-22
1.85971e-21
-2.31094e-22
1.78857e-21
-2.45621e-22
1.71418e-21
-2.60872e-22
1.63596e-21
-2.76744e-22
1.55422e-21
-2.92719e-22
1.46881e-21
-3.08849e-22
1.3801e-21
-3.24927e-22
1.28787e-21
-3.40798e-22
1.19279e-21
-3.56101e-22
1.09493e-21
-3.70887e-22
9.94426e-22
-3.84898e-22
8.91649e-22
-3.98029e-22
7.86856e-22
-4.1023e-22
6.80304e-22
-4.21242e-22
5.72306e-22
-4.31168e-22
4.62859e-22
-4.39647e-22
3.52482e-22
-4.46833e-22
2.41071e-22
-4.5252e-22
1.2904e-22
-4.56707e-22
1.64402e-23
-4.58982e-22
-4.59499e-22
-1.83049e-14
1.54973e-13
-3.39041e-14
1.55089e-13
-5.04989e-14
1.55506e-13
-6.75185e-14
1.56093e-13
-8.4868e-14
1.56671e-13
-1.02591e-13
1.57011e-13
-1.20597e-13
1.56843e-13
-1.38739e-13
1.56089e-13
-1.56783e-13
1.54398e-13
-1.74414e-13
1.51533e-13
-1.92256e-13
1.48371e-13
-2.09521e-13
1.44342e-13
-2.24319e-13
1.36892e-13
-2.41926e-13
1.34115e-13
-2.60554e-13
1.36997e-13
-2.69003e-13
1.19729e-13
-2.80611e-13
1.08485e-13
-2.92497e-13
1.01853e-13
-3.08345e-13
1.05366e-13
-3.0887e-13
8.6487e-14
-3.18871e-13
7.49926e-14
-3.25206e-13
7.0747e-14
-3.30743e-13
6.31339e-14
-3.33692e-13
5.22907e-14
-3.37469e-13
4.5226e-14
-3.39541e-13
3.73484e-14
-3.40819e-13
2.94763e-14
-3.41121e-13
2.15968e-14
-3.40524e-13
1.37849e-14
-3.39069e-13
5.93371e-15
-3.36665e-13
-2.0229e-15
-3.33371e-13
-9.931e-15
-3.29142e-13
-1.79561e-14
-3.23931e-13
-2.60423e-14
-3.17832e-13
-3.38571e-14
-3.10675e-13
-4.23894e-14
-3.02525e-13
-5.04207e-14
-2.93322e-13
-5.88608e-14
-2.83024e-13
-6.71192e-14
-2.71693e-13
-7.51463e-14
-2.59335e-13
-8.31415e-14
-2.45869e-13
-9.09425e-14
-2.31511e-13
-9.82298e-14
-2.16259e-13
-1.05246e-13
-2.00048e-13
-1.11835e-13
-1.83074e-13
-1.17753e-13
-1.65387e-13
-1.22938e-13
-1.47168e-13
-1.27346e-13
-1.28494e-13
-1.30944e-13
-1.09619e-13
-1.33481e-13
-9.06222e-14
-1.35015e-13
-7.17168e-14
-1.35467e-13
-5.31386e-14
-1.34847e-13
-3.51043e-14
-1.32872e-13
-1.76368e-14
-1.30132e-13
-1.18357e-15
-1.26208e-13
1.43337e-14
-1.213e-13
2.85492e-14
-1.15526e-13
4.14814e-14
-1.09124e-13
5.29146e-14
-1.01986e-13
6.29402e-14
-9.45555e-14
7.13516e-14
-8.69576e-14
7.81251e-14
-7.89108e-14
8.34661e-14
-7.1255e-14
8.7231e-14
-6.36354e-14
8.95968e-14
-5.6389e-14
9.06202e-14
-4.98739e-14
9.04272e-14
-4.3999e-14
8.90952e-14
-3.88759e-14
8.6762e-14
-3.47455e-14
8.36666e-14
-3.18215e-14
8.01345e-14
-3.02752e-14
7.65721e-14
-3.03667e-14
7.40795e-14
-3.26586e-14
7.40184e-14
-3.72038e-14
7.8292e-14
-4.36032e-14
-3.30198e-15
6.22939e-14
-6.63053e-15
2.68034e-13
1.61872e-15
1.0712e-13
4.96344e-21
-5.91976e-20
4.91811e-21
-9.37816e-23
4.73059e-21
-1.1596e-22
4.33929e-21
-1.36175e-22
3.97548e-21
-1.50754e-22
3.65536e-21
-1.60473e-22
3.3779e-21
-1.66574e-22
3.14029e-21
-1.69986e-22
2.93908e-21
-1.72002e-22
2.76992e-21
-1.73449e-22
2.62863e-21
-1.74742e-22
2.51034e-21
-1.76862e-22
2.4102e-21
-1.8017e-22
2.32386e-21
-1.84978e-22
2.24724e-21
-1.91441e-22
2.17714e-21
-1.99712e-22
2.11086e-21
-2.10052e-22
2.04572e-21
-2.2215e-22
1.98084e-21
-2.35695e-22
1.91415e-21
-2.50946e-22
1.84508e-21
-2.67334e-22
1.77332e-21
-2.84757e-22
1.69836e-21
-3.02955e-22
1.61998e-21
-3.21618e-22
1.53809e-21
-3.40798e-22
1.45279e-21
-3.59927e-22
1.36428e-21
-3.789e-22
1.27251e-21
-3.9746e-22
1.17801e-21
-4.15607e-22
1.08092e-21
-4.32926e-22
9.81243e-22
-4.49314e-22
8.79552e-22
-4.6472e-22
7.75792e-22
-4.78938e-22
6.7043e-22
-4.91759e-22
5.63827e-22
-5.03029e-22
4.55725e-22
-5.13007e-22
3.46796e-22
-5.2102e-22
2.36936e-22
-5.27431e-22
1.26714e-22
-5.31722e-22
1.59749e-23
-5.34204e-22
-5.34514e-22
-1.80035e-14
1.76578e-13
-3.33609e-14
1.76756e-13
-4.98462e-14
1.77487e-13
-6.69451e-14
1.78586e-13
-8.45348e-14
1.79619e-13
-1.02662e-13
1.80457e-13
-1.21307e-13
1.8076e-13
-1.40162e-13
1.80164e-13
-1.58868e-13
1.78265e-13
-1.778e-13
1.75557e-13
-1.96978e-13
1.7256e-13
-2.13608e-13
1.659e-13
-2.30061e-13
1.58182e-13
-2.52723e-13
1.61513e-13
-2.65834e-13
1.54736e-13
-2.76617e-13
1.35025e-13
-2.88526e-13
1.24792e-13
-3.03135e-13
1.2073e-13
-3.16386e-13
1.22751e-13
-3.1585e-13
8.99437e-14
-3.27783e-13
9.07736e-14
-3.33672e-13
8.03288e-14
-3.384e-13
7.13996e-14
-3.42031e-13
5.92906e-14
-3.4544e-13
5.18368e-14
-3.47526e-13
4.24628e-14
-3.48682e-13
3.34796e-14
-3.49023e-13
2.45993e-14
-3.48466e-13
1.57035e-14
-3.46967e-13
6.71665e-15
-3.44673e-13
-2.23001e-15
-3.41399e-13
-1.13189e-14
-3.37222e-13
-2.04471e-14
-3.32089e-13
-2.96993e-14
-3.26005e-13
-3.86711e-14
-3.19006e-13
-4.83269e-14
-3.1077e-13
-5.78056e-14
-3.0151e-13
-6.74879e-14
-2.91154e-13
-7.70554e-14
-2.79637e-13
-8.64611e-14
-2.67086e-13
-9.57044e-14
-2.53388e-13
-1.04868e-13
-2.3854e-13
-1.13525e-13
-2.22716e-13
-1.21733e-13
-2.06026e-13
-1.29399e-13
-1.88322e-13
-1.36549e-13
-1.69801e-13
-1.42761e-13
-1.50693e-13
-1.47968e-13
-1.31159e-13
-1.522e-13
-1.1118e-13
-1.55386e-13
-9.10707e-14
-1.57255e-13
-7.10134e-14
-1.57852e-13
-5.13957e-14
-1.56988e-13
-3.21993e-14
-1.5478e-13
-1.37156e-14
-1.51516e-13
3.66169e-15
-1.46669e-13
1.99663e-14
-1.40867e-13
3.49747e-14
-1.33967e-13
4.84954e-14
-1.26247e-13
6.04186e-14
-1.17669e-13
7.07143e-14
-1.08765e-13
7.92326e-14
-9.95392e-14
8.59482e-14
-8.98334e-14
9.09621e-14
-8.06056e-14
9.43392e-14
-7.14798e-14
9.62391e-14
-6.28781e-14
9.65715e-14
-5.49078e-14
9.54848e-14
-4.77165e-14
9.31601e-14
-4.14567e-14
8.9714e-14
-3.62892e-14
8.52496e-14
-3.24293e-14
7.99991e-14
-3.01712e-14
7.43063e-14
-2.98809e-14
6.91747e-14
-3.27899e-14
6.81232e-14
-4.14632e-14
8.32109e-14
-6.4038e-14
-3.61023e-14
1.76232e-13
-2.99229e-15
2.29531e-13
1.58522e-15
9.82418e-14
4.91049e-21
-6.67428e-20
4.89598e-21
-1.0681e-22
4.71038e-21
-1.31573e-22
4.32481e-21
-1.53597e-22
3.96576e-21
-1.69055e-22
3.64921e-21
-1.7893e-22
3.37448e-21
-1.8472e-22
3.13827e-21
-1.87925e-22
2.93773e-21
-1.89476e-22
2.76857e-21
-1.90407e-22
2.62651e-21
-1.91751e-22
2.50703e-21
-1.93922e-22
2.40544e-21
-1.97593e-22
2.3174e-21
-2.03331e-22
2.23897e-21
-2.11086e-22
2.16685e-21
-2.20961e-22
2.09876e-21
-2.33058e-22
2.03218e-21
-2.47379e-22
1.96554e-21
-2.63612e-22
1.89776e-21
-2.81397e-22
1.82771e-21
-3.00732e-22
1.75512e-21
-3.21101e-22
1.67964e-21
-3.42246e-22
1.60085e-21
-3.64166e-22
1.51891e-21
-3.86293e-22
1.43376e-21
-4.08524e-22
1.34567e-21
-4.30496e-22
1.25437e-21
-4.52158e-22
1.16074e-21
-4.72889e-22
1.06443e-21
-4.92793e-22
9.65889e-22
-5.11715e-22
8.65334e-22
-5.29241e-22
7.62971e-22
-5.45422e-22
6.5916e-22
-5.60001e-22
5.53849e-22
-5.72874e-22
4.4766e-22
-5.83834e-22
3.40437e-22
-5.92933e-22
2.32645e-22
-5.99809e-22
1.24284e-22
-6.04566e-22
1.5613e-23
-6.06996e-22
-6.06996e-22
-1.75072e-14
1.97627e-13
-3.25408e-14
1.97975e-13
-4.87954e-14
1.9913e-13
-6.5855e-14
2.00935e-13
-8.37487e-14
2.02769e-13
-1.02315e-13
2.04241e-13
-1.21684e-13
2.05303e-13
-1.41408e-13
2.05008e-13
-1.61386e-13
2.033e-13
-1.82107e-13
2.0127e-13
-2.01504e-13
1.96876e-13
-2.18002e-13
1.87231e-13
-2.40302e-13
1.85225e-13
-2.62691e-13
1.88546e-13
-2.71177e-13
1.67761e-13
-2.85914e-13
1.5419e-13
-2.99298e-13
1.42485e-13
-3.17301e-13
1.42916e-13
-3.17823e-13
1.27325e-13
-3.29323e-13
1.05357e-13
-3.36865e-13
1.02086e-13
-3.43546e-13
9.06306e-14
-3.46981e-13
7.8301e-14
-3.51771e-13
6.73847e-14
-3.5457e-13
5.77749e-14
-3.56594e-13
4.74529e-14
-3.57753e-13
3.74294e-14
-3.58022e-13
2.74791e-14
-3.57434e-13
1.75454e-14
-3.56024e-13
7.54543e-15
-3.53723e-13
-2.48434e-15
-3.50593e-13
-1.25988e-14
-3.4649e-13
-2.28989e-14
-3.41476e-13
-3.32637e-14
-3.35524e-13
-4.33752e-14
-3.28536e-13
-5.42748e-14
-3.20253e-13
-6.52577e-14
-3.11087e-13
-7.60314e-14
-3.0066e-13
-8.70687e-14
-2.88967e-13
-9.79527e-14
-2.76082e-13
-1.08604e-13
-2.62116e-13
-1.19061e-13
-2.46854e-13
-1.29222e-13
-2.30402e-13
-1.38833e-13
-2.12919e-13
-1.4774e-13
-1.94511e-13
-1.56025e-13
-1.75122e-13
-1.63428e-13
-1.54884e-13
-1.69688e-13
-1.34146e-13
-1.74624e-13
-1.13034e-13
-1.78383e-13
-9.1622e-14
-1.80751e-13
-7.03291e-14
-1.81426e-13
-4.9376e-14
-1.80412e-13
-2.8715e-14
-1.78103e-13
-9.08153e-15
-1.73993e-13
9.52989e-15
-1.68301e-13
2.68794e-14
-1.61411e-13
4.28159e-14
-1.53269e-13
5.69985e-14
-1.43955e-13
6.95285e-14
-1.33884e-13
8.00813e-14
-1.23153e-13
8.86062e-14
-1.12046e-13
9.53461e-14
-1.00692e-13
1.00043e-13
-8.95546e-14
1.02996e-13
-7.88082e-14
1.0423e-13
-6.86054e-14
1.03751e-13
-5.9032e-14
1.01761e-13
-5.04349e-14
9.82873e-14
-4.27854e-14
9.35624e-14
-3.64525e-14
8.75589e-14
-3.13951e-14
8.02606e-14
-2.79123e-14
7.15173e-14
-2.62406e-14
6.06131e-14
-2.70418e-14
4.58555e-14
-3.19066e-14
2.05934e-14
-4.40148e-14
-1.62338e-14
2.0779e-13
-2.04871e-15
2.10058e-13
1.54823e-15
9.04345e-14
4.89724e-21
-7.38378e-20
4.87127e-21
-1.19838e-22
4.68841e-21
-1.45894e-22
4.30925e-21
-1.69055e-22
3.95584e-21
-1.84772e-22
3.64347e-21
-1.94491e-22
3.37128e-21
-1.99712e-22
3.13667e-21
-2.02142e-22
2.93675e-21
-2.02814e-22
2.76728e-21
-2.03331e-22
2.62433e-21
-2.0421e-22
2.50331e-21
-2.06485e-22
2.39975e-21
-2.10879e-22
2.30959e-21
-2.17445e-22
2.2291e-21
-2.26492e-22
2.15481e-21
-2.3828e-22
2.08444e-21
-2.52497e-22
2.01594e-21
-2.69092e-22
1.9477e-21
-2.87807e-22
1.87848e-21
-3.08538e-22
1.80734e-21
-3.30821e-22
1.73398e-21
-3.5424e-22
1.65777e-21
-3.78745e-22
1.57873e-21
-4.03768e-22
1.49673e-21
-4.291e-22
1.41179e-21
-4.54381e-22
1.32401e-21
-4.79403e-22
1.23364e-21
-5.03856e-22
1.14079e-21
-5.27483e-22
1.04556e-21
-5.50023e-22
9.48363e-22
-5.7122e-22
8.49101e-22
-5.91021e-22
7.4834e-22
-6.09063e-22
6.46287e-22
-6.25297e-22
5.42889e-22
-6.39669e-22
4.38561e-22
-6.51818e-22
3.33509e-22
-6.61589e-22
2.27888e-22
-6.69034e-22
1.21802e-22
-6.73997e-22
1.5613e-23
-6.76582e-22
-6.76427e-22
-1.67317e-14
2.17834e-13
-3.11254e-14
2.18418e-13
-4.69993e-14
2.20274e-13
-6.40076e-14
2.23117e-13
-8.21598e-14
2.26059e-13
-1.01304e-13
2.28488e-13
-1.21801e-13
2.30858e-13
-1.42049e-13
2.30263e-13
-1.64485e-13
2.30687e-13
-1.86698e-13
2.28363e-13
-2.03949e-13
2.18934e-13
-2.27296e-13
2.15303e-13
-2.55913e-13
2.1848e-13
-2.65637e-13
2.02812e-13
-2.81714e-13
1.88278e-13
-2.95145e-13
1.71951e-13
-3.18179e-13
1.69733e-13
-3.23402e-13
1.52232e-13
-3.27304e-13
1.35191e-13
-3.42067e-13
1.23947e-13
-3.48335e-13
1.12041e-13
-3.53761e-13
9.95969e-14
-3.57795e-13
8.57244e-14
-3.6224e-13
7.50613e-14
-3.64891e-13
6.34941e-14
-3.66823e-13
5.22879e-14
-3.67866e-13
4.11999e-14
-3.68051e-13
3.02156e-14
-3.67463e-13
1.93309e-14
-3.66044e-13
8.3133e-15
-3.6387e-13
-2.6574e-15
-3.6077e-13
-1.38881e-14
-3.56883e-13
-2.51717e-14
-3.52024e-13
-3.6704e-14
-3.46297e-13
-4.7884e-14
-3.39254e-13
-6.02998e-14
-3.31143e-13
-7.2554e-14
-3.2184e-13
-8.47232e-14
-3.11477e-13
-9.70301e-14
-2.99741e-13
-1.09492e-13
-2.86615e-13
-1.21738e-13
-2.72184e-13
-1.33711e-13
-2.56539e-13
-1.45293e-13
-2.39484e-13
-1.56519e-13
-2.21128e-13
-1.66935e-13
-2.01748e-13
-1.7645e-13
-1.8127e-13
-1.85154e-13
-1.59982e-13
-1.92425e-13
-1.37861e-13
-1.98389e-13
-1.15213e-13
-2.02873e-13
-9.23506e-14
-2.05649e-13
-6.95242e-14
-2.06478e-13
-4.67724e-14
-2.05578e-13
-2.46569e-14
-2.02815e-13
-3.61251e-15
-1.97814e-13
1.65005e-14
-1.91364e-13
3.51056e-14
-1.83139e-13
5.2081e-14
-1.73529e-13
6.7129e-14
-1.62447e-13
8.02034e-14
-1.50556e-13
9.11622e-14
-1.37858e-13
9.99085e-14
-1.24678e-13
1.06468e-13
-1.11276e-13
1.10885e-13
-9.81243e-14
1.13283e-13
-8.5481e-14
1.1375e-13
-7.34619e-14
1.12376e-13
-6.21541e-14
1.09302e-13
-5.19585e-14
1.04691e-13
-4.28642e-14
9.85677e-14
-3.51037e-14
9.10449e-14
-2.87248e-14
8.1942e-14
-2.37303e-14
7.06567e-14
-1.99407e-14
5.55152e-14
-1.69345e-14
3.18075e-14
-1.3279e-14
-1.76126e-14
2.87448e-16
-9.05626e-15
1.94091e-13
-3.76571e-15
1.99608e-13
1.50786e-15
8.10536e-14
4.88399e-21
-8.00856e-20
4.84521e-21
-1.32349e-22
4.6652e-21
-1.59129e-22
4.29358e-21
-1.82497e-22
3.94612e-21
-1.97748e-22
3.63825e-21
-2.06485e-22
3.36885e-21
-2.10673e-22
3.136e-21
-2.11707e-22
2.93628e-21
-2.115e-22
2.76635e-21
-2.11138e-22
2.62206e-21
-2.1181e-22
2.49896e-21
-2.1424e-22
2.39319e-21
-2.19048e-22
2.30049e-21
-2.26648e-22
2.21726e-21
-2.37297e-22
2.14059e-21
-2.50946e-22
2.06785e-21
-2.67386e-22
1.99723e-21
-2.86566e-22
1.92702e-21
-3.08228e-22