/*--------------------------------*- C++ -*----------------------------------*\
  =========                 |
  \\      /  F ield         | OpenFOAM: The Open Source CFD Toolbox
   \\    /   O peration     | Website:  https://openfoam.org
    \\  /    A nd           | Version:  6
     \\/     M anipulation  |
\*---------------------------------------------------------------------------*/
FoamFile
{
    version     2.0;
    format      ascii;
    class       surfaceScalarField;
    location    "2800";
    object      phi;
}
// * * * * * * * * * * * * * * * * * * * * * * * * * * * * * * * * * * * * * //

dimensions      [0 3 -1 0 0 0 0];

internalField   nonuniform List<scalar> 
9440
(
2.06349e-10
-2.06349e-10
3.67577e-10
-1.6123e-10
4.31334e-10
-6.37577e-11
4.37174e-10
-5.84135e-12
3.96211e-10
4.09624e-11
2.57329e-10
1.38881e-10
1.00204e-10
1.57124e-10
-1.53279e-10
2.53481e-10
-3.5994e-10
2.0666e-10
-6.11662e-10
2.51721e-10
-8.88085e-10
2.76422e-10
-1.26146e-09
3.73374e-10
-1.61766e-09
3.56195e-10
-1.88228e-09
2.64627e-10
-2.0828e-09
2.00513e-10
-2.20505e-09
1.22256e-10
-2.29362e-09
8.8562e-11
-2.30734e-09
1.37175e-11
-2.31371e-09
6.37635e-12
-2.28761e-09
-2.6106e-11
-1.94158e-09
-3.46032e-10
-1.66138e-09
-2.80197e-10
-1.65406e-09
-7.32454e-12
-6.35436e-10
-1.01862e-09
-2.59914e-10
-3.75523e-10
-2.09118e-10
-5.07968e-11
-4.64406e-11
-1.62678e-10
4.77781e-10
-5.24222e-10
7.65312e-10
-2.87532e-10
9.11513e-10
-1.46201e-10
1.53596e-09
-6.24446e-10
1.32629e-09
2.09673e-10
1.47645e-09
-1.50161e-10
1.57619e-09
-9.97474e-11
1.69621e-09
-1.2002e-10
1.7944e-09
-9.81873e-11
1.8171e-09
-2.27037e-11
1.80687e-09
1.02379e-11
1.74233e-09
6.45386e-11
1.70819e-09
3.4141e-11
1.72793e-09
-1.97413e-11
1.80947e-09
-8.15393e-11
1.98889e-09
-1.79428e-10
2.19704e-09
-2.08146e-10
2.4202e-09
-2.23156e-10
2.70999e-09
-2.89795e-10
2.98246e-09
-2.72466e-10
3.12846e-09
-1.46002e-10
3.30176e-09
-1.73299e-10
3.50736e-09
-2.05606e-10
3.70451e-09
-1.97149e-10
3.86227e-09
-1.57761e-10
4.00536e-09
-1.43085e-10
4.11625e-09
-1.10891e-10
4.21978e-09
-1.03532e-10
4.30691e-09
-8.71236e-11
4.34971e-09
-4.28042e-11
4.31695e-09
3.27571e-11
4.2569e-09
6.00575e-11
4.16294e-09
9.39521e-11
4.00022e-09
1.62722e-10
3.87406e-09
1.26161e-10
3.71293e-09
1.61128e-10
3.56425e-09
1.48684e-10
3.46788e-09
9.6371e-11
3.36104e-09
1.06838e-10
3.2661e-09
9.49381e-11
3.16617e-09
9.99312e-11
3.08128e-09
8.48825e-11
2.94293e-09
1.38356e-10
2.85286e-09
9.00628e-11
2.68164e-09
1.71216e-10
2.50664e-09
1.75004e-10
2.29325e-09
2.13385e-10
2.07767e-09
2.15585e-10
1.65079e-09
4.26879e-10
1.36655e-09
2.84238e-10
8.07626e-10
5.5892e-10
8.01865e-10
5.75889e-12
8.33878e-11
7.18476e-10
-1.16969e-18
8.33867e-11
-3.37227e-18
2.19985e-18
-2.97226e-18
-4.01605e-19
-3.23428e-18
2.60061e-19
-3.47834e-18
2.41963e-19
-3.59145e-18
1.10917e-19
-3.57451e-18
-1.92364e-20
-3.44809e-18
-1.28796e-19
-3.23315e-18
-2.17408e-19
-2.94812e-18
-2.87579e-19
-2.60922e-18
-3.41537e-19
-2.231e-18
-3.8097e-19
-1.82665e-18
-4.072e-19
-1.40823e-18
-4.21372e-19
-9.86708e-19
-4.24578e-19
-5.71916e-19
-4.17933e-19
-1.72519e-19
-4.02598e-19
2.04044e-19
-3.79789e-19
5.51591e-19
-3.50756e-19
8.65203e-19
-3.16752e-19
1.1412e-18
-2.79008e-19
1.37705e-18
-2.38695e-19
1.57134e-18
-1.969e-19
1.72357e-18
-1.54601e-19
1.83411e-18
-1.12652e-19
1.90403e-18
-7.1777e-20
1.93496e-18
-3.25699e-20
1.92903e-18
4.50137e-21
1.88867e-18
3.90847e-20
1.81661e-18
7.0929e-20
1.71571e-18
9.98706e-20
1.58894e-18
1.25817e-19
1.43931e-18
1.48733e-19
1.26984e-18
1.68624e-19
1.0835e-18
1.85523e-19
8.83237e-19
1.99479e-19
6.71918e-19
2.10549e-19
4.52383e-19
2.18778e-19
2.2745e-19
2.24186e-19
2.26707e-19
1.29807e-10
-3.36157e-10
1.48794e-10
-1.8022e-10
4.20523e-11
4.29819e-11
-1.16006e-10
1.52215e-10
-3.08113e-10
2.33068e-10
-4.50091e-10
2.80856e-10
-6.16344e-10
3.23375e-10
-7.22183e-10
3.59318e-10
-9.47566e-10
4.32042e-10
-1.26925e-09
5.73407e-10
-1.66102e-09
6.68191e-10
-1.88103e-09
5.93377e-10
-2.12557e-09
6.00735e-10
-2.28296e-09
4.22011e-10
-2.4362e-09
3.53753e-10
-2.57164e-09
2.57692e-10
-2.61704e-09
1.33967e-10
-2.48506e-09
-1.18269e-10
-2.47927e-09
5.83244e-13
-2.35907e-09
-1.46308e-10
-2.11868e-09
-5.86418e-10
-2.00663e-09
-3.92252e-10
-1.4158e-09
-5.98152e-10
-9.96399e-10
-1.43802e-09
-6.79034e-10
-6.92889e-10
-3.7539e-10
-3.54442e-10
1.07574e-11
-5.48826e-10
4.12094e-10
-9.2556e-10
7.3605e-10
-6.11488e-10
9.55285e-10
-3.65437e-10
1.28188e-09
-9.5104e-10
1.35174e-09
1.39808e-10
1.54944e-09
-3.47864e-10
1.65076e-09
-2.01064e-10
1.66993e-09
-1.39188e-10
1.71878e-09
-1.47038e-10
1.75435e-09
-5.82733e-11
1.7568e-09
7.78721e-12
1.70991e-09
1.11429e-10
1.67036e-09
7.36862e-11
1.6881e-09
-3.74766e-11
1.76823e-09
-1.61675e-10
1.88317e-09
-2.94363e-10
2.05054e-09
-3.75516e-10
2.26007e-09
-4.32688e-10
2.43138e-09
-4.61102e-10
2.69954e-09
-5.40626e-10
2.94728e-09
-3.9374e-10
3.08611e-09
-3.12126e-10
3.25749e-09
-3.7699e-10
3.46732e-09
-4.06978e-10
3.66836e-09
-3.58796e-10
3.81864e-09
-2.93366e-10
3.86673e-09
-1.58982e-10
3.95218e-09
-1.88984e-10
4.00162e-09
-1.36567e-10
4.03755e-09
-7.87344e-11
4.05414e-09
1.61724e-11
4.04869e-09
6.55057e-11
3.97135e-09
1.71293e-10
3.88644e-09
2.47633e-10
3.74844e-09
2.64159e-10
3.64136e-09
2.6821e-10
3.50294e-09
2.87096e-10
3.36581e-09
2.33504e-10
3.27603e-09
1.96617e-10
3.15601e-09
2.1496e-10
3.0687e-09
1.87237e-10
2.97532e-09
1.78261e-10
2.87711e-09
2.36566e-10
2.73467e-09
2.32496e-10
2.63777e-09
2.68116e-10
2.39863e-09
4.14138e-10
2.24381e-09
3.68199e-10
1.96411e-09
4.95287e-10
1.86385e-09
5.27139e-10
1.52504e-09
6.23046e-10
1.33906e-09
7.44888e-10
4.17245e-10
9.27574e-10
1.0973e-10
1.02599e-09
9.64135e-16
1.93114e-10
6.93754e-19
8.22739e-18
-2.31445e-18
2.6045e-18
-3.2549e-18
1.1968e-18
-3.61069e-18
5.93772e-19
-3.72178e-18
2.17874e-19
-3.68405e-18
-6.12472e-20
-3.5367e-18
-2.80571e-19
-3.30332e-18
-4.55382e-19
-3.00208e-18
-5.93578e-19
-2.64865e-18
-6.99879e-19
-2.25723e-18
-7.77488e-19
-1.84082e-18
-8.28863e-19
-1.41144e-18
-8.56158e-19
-9.80062e-19
-8.61481e-19
-5.56581e-19
-8.47022e-19
-1.4971e-19
-8.15101e-19
2.33078e-19
-7.68161e-19
5.85594e-19
-7.08729e-19
9.02947e-19
-6.39352e-19
1.18151e-18
-5.62527e-19
1.41885e-18
-4.80636e-19
1.61364e-18
-3.95886e-19
1.76552e-18
-3.10257e-19
1.87499e-18
-2.25473e-19
1.94323e-18
-1.42989e-19
1.97204e-18
-6.39879e-20
1.96361e-18
1.06056e-20
1.92052e-18
8.01006e-20
1.84555e-18
1.44013e-19
1.74165e-18
2.02035e-19
1.61185e-18
2.54e-19
1.4592e-18
2.99853e-19
1.28674e-18
3.3962e-19
1.09746e-18
3.73383e-19
8.94306e-19
4.01252e-19
6.80147e-19
4.2335e-19
4.57792e-19
4.39793e-19
2.29971e-19
4.50677e-19
4.56094e-19
-3.40955e-11
-3.02063e-10
-1.1592e-10
-9.83974e-11
-2.98463e-10
2.25523e-10
-3.97553e-10
2.51302e-10
-5.81232e-10
4.16746e-10
-6.47787e-10
3.47409e-10
-1.00639e-09
6.81976e-10
-1.25774e-09
6.10666e-10
-1.62443e-09
7.98734e-10
-1.87075e-09
8.19718e-10
-2.12252e-09
9.19959e-10
-2.30628e-09
7.77137e-10
-2.40529e-09
6.99749e-10
-2.55136e-09
5.6808e-10
-2.62354e-09
4.25935e-10
-2.68299e-09
3.17142e-10
-2.70214e-09
1.53108e-10
-2.52791e-09
-2.92502e-10
-2.5077e-09
-1.96257e-11
-2.39713e-09
-2.56874e-10
-2.14987e-09
-8.33677e-10
-1.75314e-09
-7.88988e-10
-1.31821e-09
-1.03308e-09
-1.26387e-09
-1.49237e-09
-8.30905e-10
-1.12586e-09
-2.94537e-10
-8.90811e-10
2.18057e-10
-1.06142e-09
4.73231e-10
-1.18073e-09
8.0225e-10
-9.40508e-10
1.10742e-09
-6.70612e-10
1.02904e-09
-8.72658e-10
1.60472e-09
-4.35869e-10
1.70639e-09
-4.49533e-10
1.83568e-09
-3.30362e-10
1.81513e-09
-1.18635e-10
1.77889e-09
-1.10793e-10
1.71338e-09
7.23179e-12
1.69944e-09
2.17334e-11
1.63856e-09
1.72304e-10
1.62172e-09
9.05239e-11
1.61813e-09
-3.388e-11
1.65098e-09
-1.94529e-10
1.72738e-09
-3.70766e-10
1.81942e-09
-4.67556e-10
2.10316e-09
-7.16427e-10
2.33212e-09
-6.90062e-10
2.50364e-09
-7.12144e-10
2.7133e-09
-6.03395e-10
2.87117e-09
-4.69999e-10
3.04882e-09
-5.54635e-10
3.20803e-09
-5.66194e-10
3.33727e-09
-4.8803e-10
3.40261e-09
-3.58705e-10
3.47063e-09
-2.27006e-10
3.54607e-09
-2.64426e-10
3.6022e-09
-1.92692e-10
3.61535e-09
-9.18895e-11
3.63102e-09
5.03705e-13
3.65032e-09
4.62075e-11
3.63321e-09
1.88403e-10
3.58791e-09
2.92927e-10
3.51727e-09
3.34801e-10
3.42978e-09
3.55699e-10
3.3423e-09
3.74577e-10
3.25979e-09
3.16013e-10
3.15244e-09
3.0397e-10
3.0854e-09
2.81995e-10
3.00356e-09
2.69078e-10
2.86929e-09
3.12529e-10
2.81584e-09
2.9001e-10
2.60472e-09
4.43616e-10
2.54975e-09
3.23086e-10
2.2748e-09
6.89082e-10
2.15948e-09
4.8352e-10
1.88499e-09
7.69776e-10
1.59665e-09
8.15472e-10
1.32128e-09
8.98419e-10
1.04795e-09
1.01822e-09
8.64699e-10
1.11082e-09
7.73552e-10
1.11713e-09
8.76802e-16
9.66663e-10
-4.38232e-18
2.13069e-18
-3.72128e-18
1.94195e-18
-3.85717e-18
1.32947e-18
-3.98589e-18
7.18994e-19
-4.00025e-18
2.28596e-19
-3.90324e-18
-1.62007e-19
-3.71152e-18
-4.76135e-19
-3.44152e-18
-7.2933e-19
-3.10838e-18
-9.3077e-19
-2.72626e-18
-1.08615e-18
-2.3086e-18
-1.19941e-18
-1.86811e-18
-1.27371e-18
-1.41676e-18
-1.31197e-18
-9.65603e-19
-1.31718e-18
-5.2466e-19
-1.29257e-18
-1.02771e-19
-1.24163e-18
2.9251e-19
-1.16808e-18
6.54972e-19
-1.07578e-18
9.79772e-19
-9.68637e-19
1.2634e-18
-8.50469e-19
1.5036e-18
-7.24919e-19
1.69927e-18
-5.95346e-19
1.8503e-18
-4.64757e-19
1.95747e-18
-3.35757e-19
2.02224e-18
-2.10528e-19
2.04663e-18
-9.08347e-20
2.03311e-18
2.19581e-20
1.98443e-18
1.26845e-19
1.90357e-18
2.23138e-19
1.79362e-18
3.10411e-19
1.65771e-18
3.88454e-19
1.49897e-18
4.57222e-19
1.3205e-18
5.16789e-19
1.12533e-18
5.67305e-19
9.16404e-19
6.08967e-19
6.96589e-19
6.4198e-19
4.68676e-19
6.66538e-19
2.35388e-19
6.82807e-19
6.90913e-19
-4.45273e-11
-2.57537e-10
-2.51086e-10
1.08159e-10
-3.69992e-10
3.44428e-10
-4.72398e-10
3.53706e-10
-6.84349e-10
6.28695e-10
-8.74643e-10
5.37701e-10
-1.22618e-09
1.03351e-09
-1.63702e-09
1.02151e-09
-1.9186e-09
1.08031e-09
-2.17166e-09
1.07278e-09
-2.33918e-09
1.08748e-09
-2.55434e-09
9.92292e-10
-2.67653e-09
8.21934e-10
-2.78627e-09
6.77818e-10
-2.79493e-09
4.34593e-10
-2.78413e-09
3.06344e-10
-2.77877e-09
1.47751e-10
-2.6226e-09
-4.48671e-10
-2.35129e-09
-2.90941e-10
-2.14061e-09
-4.67553e-10
-1.98007e-09
-9.94221e-10
-1.52916e-09
-1.2399e-09
-1.04801e-09
-1.51423e-09
-8.25112e-10
-1.71527e-09
-3.66548e-10
-1.58442e-09
1.34176e-10
-1.39154e-09
4.42935e-10
-1.37018e-09
6.24424e-10
-1.36222e-09
9.36578e-10
-1.25266e-09
1.3646e-09
-1.09863e-09
1.32759e-09
-8.35651e-10
1.646e-09
-7.54283e-10
1.7434e-09
-5.46929e-10
1.92962e-09
-5.16587e-10
1.9256e-09
-1.14615e-10
1.86619e-09
-5.13794e-11
1.75218e-09
1.21245e-10
1.6577e-09
1.16212e-10
1.56229e-09
2.67715e-10
1.51521e-09
1.37605e-10
1.52945e-09
-4.81191e-11
1.53811e-09
-2.03195e-10
1.65335e-09
-4.86002e-10
1.74404e-09
-5.58249e-10
1.89244e-09
-8.64829e-10
2.09403e-09
-8.91654e-10
2.25122e-09
-8.69329e-10
2.48849e-09
-8.40666e-10
2.72587e-09
-7.0738e-10
2.86764e-09
-6.96408e-10
2.95183e-09
-6.50382e-10
2.95702e-09
-4.93212e-10
2.95697e-09
-3.5866e-10
3.0522e-09
-3.22231e-10
3.06936e-09
-2.8159e-10
3.07124e-09
-1.94574e-10
3.06747e-09
-8.81186e-11
3.08678e-09
-1.88027e-11
3.11236e-09
2.06247e-11
3.12734e-09
1.73423e-10
3.1392e-09
2.81069e-10
3.13497e-09
3.39023e-10
3.09957e-09
3.91102e-10
3.0715e-09
4.02646e-10
3.02607e-09
3.61443e-10
2.95077e-09
3.79271e-10
2.88761e-09
3.45153e-10
2.81747e-09
3.39215e-10
2.69682e-09
4.3318e-10
2.64242e-09
3.44401e-10
2.54873e-09
5.37306e-10
2.34406e-09
5.27758e-10
2.17787e-09
8.5527e-10
2.12543e-09
5.35961e-10
1.87525e-09
1.01995e-09
1.59818e-09
1.09254e-09
1.40638e-09
1.09021e-09
1.37171e-09
1.05289e-09
1.20903e-09
1.2735e-09
7.28967e-10
1.59719e-09
8.66616e-16
1.69563e-09
-3.79968e-18
5.32161e-18
-4.3329e-18
2.47366e-18
-4.46686e-18
1.46024e-18
-4.47558e-18
7.24232e-19
-4.39021e-18
1.39596e-19
-4.21725e-18
-3.38678e-19
-3.96471e-18
-7.32455e-19
-3.64296e-18
-1.05492e-18
-3.26376e-18
-1.31387e-18
-2.83953e-18
-1.51432e-18
-2.3829e-18
-1.66003e-18
-1.90637e-18
-1.75429e-18
-1.42197e-18
-1.80046e-18
-9.40994e-19
-1.8023e-18
-4.73721e-19
-1.76404e-18
-2.92199e-20
-1.69038e-18
3.84808e-19
-1.58639e-18
7.62118e-19
-1.45739e-18
1.09794e-18
-1.30874e-18
1.38895e-18
-1.14569e-18
1.63317e-18
-9.73213e-19
1.82986e-18
-7.95893e-19
1.9793e-18
-6.17797e-19
2.0827e-18
-4.4243e-19
2.14193e-18
-2.72704e-19
2.15942e-18
-1.10944e-19
2.13799e-18
4.10734e-20
2.08072e-18
1.8207e-19
1.99085e-18
3.11195e-19
1.87166e-18
4.27955e-19
1.72647e-18
5.32145e-19
1.55854e-18
6.23772e-19
1.37102e-18
7.02999e-19
1.16699e-18
7.70086e-19
9.49417e-19
8.25339e-19
7.21148e-19
8.69077e-19
4.84945e-19
9.01589e-19
2.43494e-19
9.2312e-19
9.33841e-19
-1.4721e-10
-1.10328e-10
-4.00177e-10
3.61125e-10
-5.38355e-10
4.82604e-10
-7.39676e-10
5.55026e-10
-1.03098e-09
9.19993e-10
-1.40301e-09
9.09729e-10
-1.51918e-09
1.14968e-09
-1.83439e-09
1.33671e-09
-2.06627e-09
1.31219e-09
-2.29842e-09
1.30493e-09
-2.48138e-09
1.27043e-09
-2.61098e-09
1.12189e-09
-2.67211e-09
8.83061e-10
-2.76156e-09
7.67263e-10
-2.75323e-09
4.26263e-10
-2.69122e-09
2.44334e-10
-2.55067e-09
7.20384e-12
-2.61481e-09
-3.84539e-10
-2.15422e-09
-7.51525e-10
-1.8373e-09
-7.84476e-10
-1.6206e-09
-1.21092e-09
-1.19005e-09
-1.67046e-09
-7.75191e-10
-1.92908e-09
-3.39988e-10
-2.15047e-09
1.27624e-10
-2.05203e-09
5.13146e-10
-1.77706e-09
7.45154e-10
-1.60219e-09
9.24431e-10
-1.5415e-09
1.06326e-09
-1.39149e-09
1.3037e-09
-1.33907e-09
1.54703e-09
-1.07899e-09
1.71292e-09
-9.20169e-10
1.78353e-09
-6.17541e-10
1.90278e-09
-6.35836e-10
1.95945e-09
-1.71288e-10
1.87321e-09
3.48662e-11
1.76049e-09
2.33959e-10
1.62659e-09
2.50114e-10
1.51488e-09
3.79426e-10
1.457e-09
1.95479e-10
1.48008e-09
-7.11973e-11
1.47481e-09
-1.97924e-10
1.53428e-09
-5.45467e-10
1.7052e-09
-7.29171e-10
1.69292e-09
-8.52545e-10
1.96176e-09
-1.1605e-09
2.15452e-09
-1.06208e-09
2.30638e-09
-9.92525e-10
2.44984e-09
-8.50847e-10
2.47156e-09
-7.18127e-10
2.52729e-09
-7.06112e-10
2.59744e-09
-5.6336e-10
2.61931e-09
-3.80528e-10
2.62315e-09
-3.26071e-10
2.6169e-09
-2.75337e-10
2.60032e-09
-1.77993e-10
2.59432e-09
-8.21214e-11
2.6185e-09
-4.29807e-11
2.61077e-09
2.83531e-11
2.60999e-09
1.74205e-10
2.65281e-09
2.38248e-10
2.67351e-09
3.1832e-10
2.67895e-09
3.85659e-10
2.67884e-09
4.02761e-10
2.64919e-09
3.91089e-10
2.61202e-09
4.16439e-10
2.56939e-09
3.87782e-10
2.50786e-09
4.00744e-10
2.40876e-09
5.32281e-10
2.33488e-09
4.18275e-10
2.26746e-09
6.04732e-10
2.11064e-09
6.84575e-10
2.09338e-09
8.72523e-10
1.70146e-09
9.2788e-10
1.54972e-09
1.17168e-09
1.34488e-09
1.29738e-09
1.30173e-09
1.13336e-09
9.47147e-10
1.40747e-09
5.91653e-10
1.62899e-09
3.93808e-10
1.79503e-09
8.42006e-16
2.08943e-09
-5.64382e-18
4.4511e-18
-5.34542e-18
2.17371e-18
-5.20208e-18
1.31368e-18
-5.05951e-18
5.78189e-19
-4.86784e-18
-5.56894e-20
-4.61094e-18
-5.99297e-19
-4.28718e-18
-1.06001e-18
-3.9019e-18
-1.44401e-18
-3.46421e-18
-1.75539e-18
-2.98523e-18
-1.99714e-18
-2.47715e-18
-2.17194e-18
-1.95255e-18
-2.28271e-18
-1.42381e-18
-2.33301e-18
-9.02732e-19
-2.32721e-18
-4.00057e-19
-2.27057e-18
7.47661e-20
-2.1691e-18
5.1381e-19
-2.02939e-18
9.1077e-19
-1.85837e-18
1.26099e-18
-1.66303e-18
1.56142e-18
-1.45021e-18
1.81049e-18
-1.22634e-18
2.00795e-18
-9.973e-19
2.15467e-18
-7.68268e-19
2.25243e-18
-5.43672e-19
2.30369e-18
-3.27142e-19
2.31144e-18
-1.21536e-19
2.27899e-18
7.10074e-20
2.20985e-18
2.48994e-19
2.10761e-18
4.11478e-19
1.97585e-18
5.57967e-19
1.8181e-18
6.88323e-19
1.63776e-18
8.0267e-19
1.43811e-18
9.01317e-19
1.22225e-18
9.84679e-19
9.93155e-19
1.05322e-18
7.53661e-19
1.1074e-18
5.06475e-19
1.14762e-18
2.54215e-19
1.17424e-18
1.18749e-18
-3.18425e-10
2.08096e-10
-4.25812e-10
4.6851e-10
-6.13159e-10
6.69949e-10
-7.41973e-10
6.83838e-10
-8.95963e-10
1.07398e-09
-1.3654e-09
1.37917e-09
-1.74935e-09
1.53363e-09
-2.06326e-09
1.65062e-09
-2.27936e-09
1.52828e-09
-2.40405e-09
1.42962e-09
-2.4968e-09
1.36318e-09
-2.57227e-09
1.19736e-09
-2.54873e-09
8.59515e-10
-2.53546e-09
7.53995e-10
-2.53956e-09
4.30362e-10
-2.44184e-09
1.46608e-10
-2.37473e-09
-5.99027e-11
-2.37271e-09
-3.86565e-10
-2.01562e-09
-1.10862e-09
-1.69139e-09
-1.1087e-09
-1.2168e-09
-1.68551e-09
-7.74495e-10
-2.11277e-09
-4.55078e-10
-2.2485e-09
-3.62066e-10
-2.24349e-09
-1.07627e-10
-2.30647e-09
3.65789e-10
-2.25047e-09
7.14591e-10
-1.95099e-09
1.08279e-09
-1.9097e-09
1.29038e-09
-1.59909e-09
1.44359e-09
-1.49228e-09
1.70768e-09
-1.34307e-09
1.84884e-09
-1.06133e-09
1.96152e-09
-7.30219e-10
1.98562e-09
-6.59935e-10
2.03412e-09
-2.19791e-10
1.9629e-09
1.06089e-10
1.82258e-09
3.74269e-10
1.60061e-09
4.72084e-10
1.4723e-09
5.0774e-10
1.48012e-09
1.87656e-10
1.41307e-09
-4.14253e-12
1.4879e-09
-2.7276e-10
1.45657e-09
-5.14128e-10
1.65212e-09
-9.24727e-10
1.74622e-09
-9.46641e-10
1.69866e-09
-1.11295e-09
1.76466e-09
-1.12808e-09
1.95399e-09
-1.18186e-09
2.14912e-09
-1.04598e-09
2.23867e-09
-8.07672e-10
2.25349e-09
-7.20941e-10
2.27399e-09
-5.83851e-10
2.29107e-09
-3.97616e-10
2.29547e-09
-3.30462e-10
2.27939e-09
-2.59261e-10
2.26071e-09
-1.59313e-10
2.25552e-09
-7.69378e-11
2.2342e-09
-2.16565e-11
2.18276e-09
7.97903e-11
2.17927e-09
1.77696e-10
2.19495e-09
2.22572e-10
2.21878e-09
2.94482e-10
2.24633e-09
3.58115e-10
2.28055e-09
3.68536e-10
2.27476e-09
3.96881e-10
2.26228e-09
4.28917e-10
2.23096e-09
4.19097e-10
2.1669e-09
4.64807e-10
2.14829e-09
5.50883e-10
2.04819e-09
5.1838e-10
1.99952e-09
6.53401e-10
1.87934e-09
8.04749e-10
1.90832e-09
8.43543e-10
1.84546e-09
9.90737e-10
1.74464e-09
1.2725e-09
1.62071e-09
1.4213e-09
1.22021e-09
1.53386e-09
7.78464e-10
1.84922e-09
5.03873e-10
1.90358e-09
2.94722e-10
2.00418e-09
7.82484e-16
2.38415e-09
-6.68936e-18
3.34176e-18
-6.20456e-18
1.68733e-18
-5.93679e-18
1.04273e-18
-5.69269e-18
3.3062e-19
-5.41082e-18
-3.41166e-19
-5.0716e-18
-9.42246e-19
-4.67119e-18
-1.46423e-18
-4.21328e-18
-1.90577e-18
-3.70596e-18
-2.26656e-18
-3.16003e-18
-2.54689e-18
-2.58793e-18
-2.74781e-18
-2.00284e-18
-2.8715e-18
-1.41802e-18
-2.92148e-18
-8.46089e-19
-2.90275e-18
-2.98584e-19
-2.82166e-18
2.14476e-19
-2.68575e-18
6.8483e-19
-2.50338e-18
1.1061e-18
-2.28335e-18
1.47381e-18
-2.03455e-18
1.78529e-18
-1.76561e-18
2.03954e-18
-1.48456e-18
2.23698e-18
-1.19872e-18
2.37927e-18
-9.14421e-19
2.46896e-18
-6.37034e-19
2.5093e-18
-3.70882e-19
2.50398e-18
-1.19304e-19
2.45698e-18
1.15272e-19
2.37233e-18
3.31221e-19
2.2541e-18
5.27592e-19
2.10621e-18
7.03983e-19
1.93245e-18
8.60412e-19
1.73641e-18
9.97202e-19
1.52147e-18
1.11488e-18
1.29079e-18
1.21407e-18
1.04733e-18
1.29544e-18
7.9389e-19
1.35965e-18
5.33095e-19
1.40727e-18
2.67465e-19
1.43874e-18
1.4544e-18
-2.6582e-10
4.73915e-10
-4.35902e-10
6.38589e-10
-6.56792e-10
8.90838e-10
-1.12724e-09
1.15428e-09
-1.42192e-09
1.36867e-09
-1.64517e-09
1.60241e-09
-1.81144e-09
1.6999e-09
-1.98069e-09
1.81987e-09
-2.21127e-09
1.75886e-09
-2.33789e-09
1.55624e-09
-2.41194e-09
1.43723e-09
-2.44747e-09
1.23289e-09
-2.29384e-09
7.05878e-10
-2.24911e-09
7.09268e-10
-2.31985e-09
5.01103e-10
-2.21165e-09
3.84055e-11
-2.12292e-09
-1.48632e-10
-2.02844e-09
-4.81045e-10
-1.80002e-09
-1.33704e-09
-1.42344e-09
-1.48528e-09
-9.94869e-10
-2.11408e-09
-8.3548e-10
-2.27216e-09
-5.46447e-10
-2.53753e-09
-1.99362e-10
-2.59057e-09
1.45754e-10
-2.65159e-09
5.30115e-10
-2.63484e-09
8.52892e-10
-2.27377e-09
1.21384e-09
-2.27065e-09
1.50579e-09
-1.89104e-09
1.69226e-09
-1.67875e-09
1.81648e-09
-1.46729e-09
1.92834e-09
-1.17319e-09
1.93122e-09
-7.33102e-10
2.09536e-09
-8.2407e-10
2.04322e-09
-1.67653e-10
1.96381e-09
1.85504e-10
1.80582e-09
5.32259e-10
1.5723e-09
7.05604e-10
1.43391e-09
6.46126e-10
1.39555e-09
2.2602e-10
1.36884e-09
2.25642e-11
1.40906e-09
-3.12981e-10
1.43968e-09
-5.44752e-10
1.46175e-09
-9.46796e-10
1.66943e-09
-1.15431e-09
1.85033e-09
-1.29385e-09
1.8998e-09
-1.17755e-09
1.89214e-09
-1.1742e-09
1.92979e-09
-1.08362e-09
1.99629e-09
-8.7417e-10
2.0307e-09
-7.55356e-10
2.04181e-09
-5.9496e-10
2.07044e-09
-4.26247e-10
2.06634e-09
-3.26362e-10
2.05152e-09
-2.44434e-10
2.03348e-09
-1.41281e-10
2.00443e-09
-4.78811e-11
1.97098e-09
1.17906e-11
1.93136e-09
1.19408e-10
1.93959e-09
1.69464e-10
1.94206e-09
2.20107e-10
1.94788e-09
2.88654e-10
1.96909e-09
3.36912e-10
1.9648e-09
3.72824e-10
1.98751e-09
3.74172e-10
1.99442e-09
4.22e-10
1.97066e-09
4.42859e-10
1.94098e-09
4.94482e-10
1.90863e-09
5.83235e-10
1.80229e-09
6.2472e-10
1.76454e-09
6.91142e-10
1.64758e-09
9.21708e-10
1.42434e-09
1.06678e-09
1.38358e-09
1.03149e-09
1.272e-09
1.38409e-09
1.11923e-09
1.57407e-09
9.34615e-10
1.71847e-09
9.31872e-10
1.85196e-09
8.20638e-10
2.01481e-09
4.51235e-10
2.37358e-09
6.35997e-16
2.83538e-09
-6.8953e-18
3.89684e-18
-6.84831e-18
1.63879e-18
-6.64813e-18
8.39543e-19
-6.3638e-18
4.2907e-20
-6.01133e-18
-6.97212e-19
-5.59357e-18
-1.36373e-18
-5.11273e-18
-1.94892e-18
-4.57407e-18
-2.44835e-18
-3.98629e-18
-2.85827e-18
-3.36096e-18
-3.17612e-18
-2.71162e-18
-3.401e-18
-2.05283e-18
-3.53404e-18
-1.39928e-18
-3.57867e-18
-7.65001e-19
-3.54057e-18
-1.62674e-19
-3.42745e-18
3.9685e-19
-3.24868e-18
9.04857e-19
-3.01477e-18
1.3549e-18
-2.73682e-18
1.74276e-18
-2.42595e-18
2.06633e-18
-2.09285e-18
2.32539e-18
-1.74743e-18
2.52128e-18
-1.39851e-18
2.65666e-18
-1.05371e-18
2.73511e-18
-7.19289e-19
2.76087e-18
-4.00241e-19
2.73856e-18
-1.00295e-19
2.67292e-18
1.77936e-19
2.5687e-18
4.32812e-19
2.43049e-18
6.63502e-19
2.26264e-18
8.69812e-19
2.06924e-18
1.05203e-18
1.85408e-18
1.21077e-18
1.62066e-18
1.34686e-18
1.37216e-18
1.46123e-18
1.11154e-18
1.55482e-18
8.41502e-19
1.6285e-18
5.64568e-19
1.68304e-18
2.8312e-19
1.71906e-18
1.73695e-18
-2.90421e-10
7.64334e-10
-4.6889e-10
8.17057e-10
-6.10755e-10
1.0327e-09
-8.52074e-10
1.3956e-09
-1.17668e-09
1.69327e-09
-1.56776e-09
1.99349e-09
-1.86963e-09
2.00178e-09
-2.01505e-09
1.96529e-09
-2.11977e-09
1.86357e-09
-2.2123e-09
1.64877e-09
-2.31897e-09
1.5439e-09
-2.32685e-09
1.24076e-09
-2.22369e-09
6.02718e-10
-1.98573e-09
4.71303e-10
-1.97813e-09
4.93506e-10
-2.00182e-09
6.20921e-11
-1.86327e-09
-2.87181e-10
-1.77078e-09
-5.73535e-10
-1.52974e-09
-1.57809e-09
-1.34188e-09
-1.67314e-09
-1.1498e-09
-2.30616e-09
-8.34914e-10
-2.58705e-09
-4.57433e-10
-2.91502e-09
-2.57111e-11
-3.0223e-09
4.03436e-10
-3.08074e-09
7.89397e-10
-3.0208e-09
1.14615e-09
-2.63053e-09
1.41199e-09
-2.53649e-09
1.82699e-09
-2.30604e-09
2.06935e-09
-1.92112e-09
2.08269e-09
-1.48063e-09
2.1879e-09
-1.27841e-09
2.00198e-09
-5.47184e-10
2.0636e-09
-8.85689e-10
2.05344e-09
-1.57489e-10
1.90635e-09
3.32588e-10
1.77925e-09
6.5936e-10
1.63545e-09
8.49405e-10
1.47363e-09
8.07947e-10
1.28295e-09
4.167e-10
1.36547e-09
-5.99539e-11
1.35183e-09
-2.99343e-10
1.38174e-09
-5.74659e-10
1.48673e-09
-1.05179e-09
1.51589e-09
-1.18348e-09
1.51538e-09
-1.29334e-09
1.56099e-09
-1.22317e-09
1.63061e-09
-1.24382e-09
1.68731e-09
-1.14032e-09
1.75388e-09
-9.40736e-10
1.82106e-09
-8.22535e-10
1.8249e-09
-5.988e-10
1.86879e-09
-4.70136e-10
1.87129e-09
-3.28862e-10
1.86259e-09
-2.35738e-10
1.86346e-09
-1.42144e-10
1.84093e-09
-2.53526e-11
1.82489e-09
2.78228e-11
1.80323e-09
1.41075e-10
1.79526e-09
1.77429e-10
1.77695e-09
2.38421e-10
1.7605e-09
3.05101e-10
1.76678e-09
3.30629e-10
1.75317e-09
3.86429e-10
1.78019e-09
3.47153e-10
1.75704e-09
4.45154e-10
1.71386e-09
4.86039e-10
1.71992e-09
4.88417e-10
1.68882e-09
6.14333e-10
1.60178e-09
7.11756e-10
1.47471e-09
8.18214e-10
1.43216e-09
9.64262e-10
1.4478e-09
1.05113e-09
1.38663e-09
1.09267e-09
1.13856e-09
1.63215e-09
9.62243e-10
1.75039e-09
8.69098e-10
1.81161e-09
6.8136e-10
2.03969e-09
4.41103e-10
2.25506e-09
3.54252e-10
2.46043e-09
4.64384e-16
3.18963e-09
-7.5105e-18
5.21956e-18
-7.64669e-18
1.77347e-18
-7.44401e-18
6.34154e-19
-7.10325e-18
-3.01e-19
-6.67736e-18
-1.12656e-18
-6.17875e-18
-1.86602e-18
-5.61217e-18
-2.51936e-18
-4.98399e-18
-3.08052e-18
-4.30414e-18
-3.54218e-18
-3.58583e-18
-3.89849e-18
-2.84466e-18
-4.14618e-18
-2.09746e-18
-4.28516e-18
-1.36118e-18
-4.31873e-18
-6.5188e-19
-4.2535e-18
1.60932e-20
-4.09892e-18
6.30753e-19
-3.86672e-18
1.18281e-18
-3.57012e-18
1.66577e-18
-3.22304e-18
2.07586e-18
-2.83933e-18
2.41176e-18
-2.43216e-18
2.6743e-18
-2.01356e-18
2.86609e-18
-1.59406e-18
2.99107e-18
-1.18255e-18
3.05416e-18
-7.8623e-19
3.06082e-18
-4.10633e-19
3.01679e-18
-5.97614e-20
2.9278e-18
2.63739e-19
2.79939e-18
5.58377e-19
2.6368e-18
8.236e-19
2.44485e-18
1.05957e-18
2.22798e-18
1.26699e-18
1.99018e-18
1.44689e-18
1.73503e-18
1.6005e-18
1.46575e-18
1.72913e-18
1.18522e-18
1.83407e-18
8.96045e-19
1.91647e-18
6.00579e-19
1.97735e-18
3.01019e-19
2.01748e-18
2.03741e-18
-2.36097e-10
1.00043e-09
-4.4703e-10
1.02799e-09
-7.77279e-10
1.36295e-09
-1.15556e-09
1.77388e-09
-1.44381e-09
1.98151e-09
-1.66313e-09
2.21281e-09
-1.78894e-09
2.12758e-09
-1.93507e-09
2.11142e-09
-2.03624e-09
1.96474e-09
-2.05348e-09
1.66601e-09
-2.08814e-09
1.57856e-09
-1.99821e-09
1.15083e-09
-2.15564e-09
7.60145e-10
-2.03421e-09
3.49873e-10
-1.86237e-09
3.21661e-10
-1.81056e-09
1.02784e-11
-1.61319e-09
-4.84551e-10
-1.41046e-09
-7.76267e-10
-1.29599e-09
-1.69256e-09
-1.21275e-09
-1.75637e-09
-9.01557e-10
-2.61736e-09
-5.7955e-10
-2.90905e-09
-2.95609e-10
-3.19896e-09
7.9387e-12
-3.32584e-09
2.71325e-10
-3.34412e-09
5.19922e-10
-3.2694e-09
1.0624e-09
-3.17301e-09
1.5126e-09
-2.98668e-09
1.7689e-09
-2.56234e-09
2.13598e-09
-2.2882e-09
2.21752e-09
-1.56217e-09
2.30708e-09
-1.36797e-09
2.15207e-09
-3.92179e-10
2.0124e-09
-7.46019e-10
1.91147e-09
-5.6558e-11
1.81267e-09
4.31385e-10
1.67728e-09
7.94757e-10
1.58756e-09
9.39119e-10
1.49485e-09
9.0066e-10
1.32024e-09
5.91312e-10
1.33926e-09
-7.89775e-11
1.33596e-09
-2.96037e-10
1.36252e-09
-6.01224e-10
1.38539e-09
-1.07466e-09
1.48904e-09
-1.28712e-09
1.56973e-09
-1.37403e-09
1.58012e-09
-1.23355e-09
1.58275e-09
-1.24645e-09
1.55594e-09
-1.11351e-09
1.53694e-09
-9.21735e-10
1.59774e-09
-8.83339e-10
1.64715e-09
-6.48207e-10
1.65996e-09
-4.82951e-10
1.68602e-09
-3.54915e-10
1.68232e-09
-2.32045e-10
1.66776e-09
-1.2758e-10
1.65451e-09
-1.21064e-11
1.65152e-09
3.08088e-11
1.64437e-09
1.48226e-10
1.62452e-09
1.97277e-10
1.60567e-09
2.57273e-10
1.58873e-09
3.22044e-10
1.57456e-09
3.44797e-10
1.56634e-09
3.94647e-10
1.59656e-09
3.16928e-10
1.56601e-09
4.7571e-10
1.52291e-09
5.29136e-10
1.46194e-09
5.49386e-10
1.40073e-09
6.75542e-10
1.30624e-09
8.06244e-10
1.31143e-09
8.13021e-10
1.3606e-09
9.15093e-10
1.29276e-09
1.11898e-09
1.03692e-09
1.3485e-09
1.01721e-09
1.65186e-09
8.77991e-10
1.88961e-09
5.90167e-10
2.09943e-09
3.39261e-10
2.2906e-09
1.75387e-10
2.41894e-09
1.75159e-10
2.46066e-09
3.21408e-16
3.36479e-09
-9.12154e-18
5.64694e-18
-8.78514e-18
1.43568e-18
-8.37842e-18
2.2506e-19
-7.92818e-18
-7.54074e-19
-7.41641e-18
-1.64152e-18
-6.83209e-18
-2.45385e-18
-6.17332e-18
-3.18191e-18
-5.44565e-18
-3.81216e-18
-4.66045e-18
-4.33148e-18
-3.83352e-18
-4.72959e-18
-2.98364e-18
-5.00024e-18
-2.13103e-18
-5.14188e-18
-1.29594e-18
-5.15782e-18
-4.97301e-19
-5.05598e-18
2.48293e-19
-4.84819e-18
9.27353e-19
-4.54929e-18
1.52989e-18
-4.17601e-18
2.04948e-18
-3.74584e-18
2.48302e-18
-3.27602e-18
2.83036e-18
-2.78271e-18
3.0938e-18
-2.28036e-18
3.27759e-18
-1.78141e-18
3.38739e-18
-1.29609e-18
3.42975e-18
-8.3242e-19
3.41169e-18
-3.96362e-19
3.34029e-18
8.0064e-21
3.22244e-18
3.78223e-19
3.06462e-18
7.13163e-19
2.87277e-18
1.01276e-18
2.65227e-18
1.27773e-18
2.40788e-18
1.50934e-18
2.14379e-18
1.70919e-18
1.86366e-18
1.87904e-18
1.57069e-18
2.02068e-18
1.26763e-18
2.13582e-18
9.56921e-19
2.22596e-18
6.40711e-19
2.29239e-18
3.20948e-19
2.33611e-18
2.3578e-18
-1.99818e-10
1.20025e-09
-3.58146e-10
1.18631e-09
-5.57534e-10
1.56234e-09
-9.21853e-10
2.1382e-09
-1.21622e-09
2.27587e-09
-1.42017e-09
2.41676e-09
-1.65106e-09
2.35847e-09
-1.73477e-09
2.19513e-09
-1.81265e-09
2.04262e-09
-1.82832e-09
1.68168e-09
-1.81902e-09
1.56925e-09
-1.76532e-09
1.09714e-09
-1.79237e-09
7.87192e-10
-1.8668e-09
4.24304e-10
-1.7687e-09
2.23555e-10
-1.66201e-09
-9.64081e-11
-1.38789e-09
-7.58674e-10
-1.1407e-09
-1.02346e-09
-1.18177e-09
-1.65149e-09
-1.0835e-09
-1.85465e-09
-8.15808e-10
-2.88505e-09
-4.97277e-10
-3.22758e-09
-2.54929e-10
-3.44131e-09
1.45934e-10
-3.72671e-09
5.03739e-10
-3.70193e-09
8.38257e-10
-3.60391e-09
1.12403e-09
-3.45879e-09
1.47728e-09
-3.33993e-09
1.83358e-09
-2.91863e-09
2.13428e-09
-2.5889e-09
2.13954e-09
-1.56742e-09
2.31389e-09
-1.54233e-09
2.19119e-09
-2.69473e-10
1.9059e-09
-4.60732e-10
1.76708e-09
8.22601e-11
1.62895e-09
5.6952e-10
1.51122e-09
9.12483e-10
1.48577e-09
9.64571e-10
1.44724e-09
9.39183e-10
1.34769e-09
6.90863e-10
1.33977e-09
-7.10573e-11
1.35728e-09
-3.13544e-10
1.41441e-09
-6.58355e-10
1.43513e-09
-1.09537e-09
1.42021e-09
-1.2722e-09
1.39572e-09
-1.34954e-09
1.37102e-09
-1.20886e-09
1.34352e-09
-1.21894e-09
1.33675e-09
-1.10674e-09
1.35537e-09
-9.40355e-10
1.36589e-09
-8.93861e-10
1.45833e-09
-7.40647e-10
1.43859e-09
-4.6321e-10
1.45955e-09
-3.75877e-10
1.4537e-09
-2.26196e-10
1.4297e-09
-1.03572e-10
1.42475e-09
-7.16276e-12
1.42665e-09
2.891e-11
1.42225e-09
1.52621e-10
1.41876e-09
2.00766e-10
1.40701e-09
2.69027e-10
1.39518e-09
3.33874e-10
1.38083e-09
3.59143e-10
1.37492e-09
4.00553e-10
1.34784e-09
3.44009e-10
1.321e-09
5.02554e-10
1.31263e-09
5.37502e-10
1.277e-09
5.85015e-10
1.25687e-09
6.95675e-10
1.25112e-09
8.11985e-10
1.29159e-09
7.72557e-10
1.14798e-09
1.0587e-09
1.0276e-09
1.23935e-09
9.43324e-10
1.43277e-09
9.26635e-10
1.66855e-09
9.11822e-10
1.90442e-09
8.53627e-10
2.15763e-09
7.87863e-10
2.35636e-09
7.2137e-10
2.48543e-09
3.71529e-10
2.8105e-09
2.00259e-16
3.73632e-09
-1.13015e-17
1.32771e-18
-9.99491e-18
1.27906e-19
-9.35684e-18
-4.15035e-19
-8.81502e-18
-1.29836e-18
-8.22842e-18
-2.23097e-18
-7.56015e-18
-3.12533e-18
-6.80357e-18
-3.94201e-18
-5.96497e-18
-4.65454e-18
-5.05856e-18
-5.24187e-18
-4.10418e-18
-5.68811e-18
-3.12527e-18
-5.98336e-18
-2.14697e-18
-6.1244e-18
-1.1941e-18
-6.11484e-18
-2.89516e-19
-5.96458e-18
5.4719e-19
-5.68877e-18
1.30064e-18
-5.30645e-18
1.96006e-18
-4.83896e-18
2.5193e-18
-4.30839e-18
2.97634e-18
-3.7362e-18
3.33271e-18
-3.14216e-18
3.59275e-18
-2.54357e-18
3.76292e-18
-1.95492e-18
3.85106e-18
-1.38779e-18
3.86581e-18
-8.50903e-19
3.81606e-18
-3.50395e-19
3.71051e-18
1.09851e-19
3.55738e-18
5.27849e-19
3.36421e-18
9.03128e-19
3.13774e-18
1.23637e-18
2.88388e-18
1.52908e-18
2.60772e-18
1.7833e-18
2.31364e-18
2.00137e-18
2.00531e-18
2.18571e-18
1.68582e-18
2.33869e-18
1.35777e-18