/*--------------------------------*- C++ -*----------------------------------*\
  =========                 |
  \\      /  F ield         | OpenFOAM: The Open Source CFD Toolbox
   \\    /   O peration     | Website:  https://openfoam.org
    \\  /    A nd           | Version:  6
     \\/     M anipulation  |
\*---------------------------------------------------------------------------*/
FoamFile
{
    version     2.0;
    format      ascii;
    class       volVectorField;
    location    "2800";
    object      U;
}
// * * * * * * * * * * * * * * * * * * * * * * * * * * * * * * * * * * * * * //

dimensions      [0 1 -1 0 0 0 0];

internalField   nonuniform List<vector> 
4800
(
(-0.000106645 0 -0.000104934)
(0.000128684 0 -0.000103533)
(0.000155993 0 -9.08445e-05)
(0.000184009 0 -0.000126564)
(0.000175676 0 -0.000136438)
(0.000141656 0 -0.000175759)
(0.000100215 0 -0.000197526)
(-4.47844e-05 0 -8.13959e-06)
(-0.000118987 0 3.49285e-05)
(-0.00020842 0 -6.8707e-06)
(-0.000297003 0 -6.90351e-07)
(-0.000423903 0 0.000110332)
(-0.000586568 0 5.61955e-05)
(-0.000709913 0 6.05551e-05)
(-0.000807611 0 -3.06796e-05)
(-0.000870611 0 -2.56516e-05)
(-0.000906735 0 -3.55781e-05)
(-0.000918521 0 -1.31976e-05)
(-0.000917887 0 7.39597e-06)
(-0.000918915 0 5.68755e-06)
(-0.000907005 0 -9.29624e-05)
(-0.00083343 0 -0.000184)
(-0.000678279 0 -8.04602e-05)
(-0.000379051 0 -0.000319886)
(-0.000202541 0 -0.000126846)
(-0.00010912 0 -2.37425e-05)
(-6.35753e-05 0 -4.02871e-05)
(0.000109736 0 -0.000105292)
(0.000231956 0 -7.5895e-05)
(0.000348965 0 -6.09174e-05)
(0.000451811 0 -0.000138328)
(0.000598357 0 -9.02526e-05)
(0.000612431 0 -6.33748e-05)
(0.000607877 0 -5.68712e-05)
(0.000630966 0 -5.43854e-05)
(0.000695347 0 -5.25316e-05)
(0.000746236 0 -4.54792e-05)
(0.000736765 0 -4.16817e-05)
(0.000708859 0 -2.68606e-05)
(0.000688267 0 -1.56057e-05)
(0.000689473 0 -1.61496e-05)
(0.000707707 0 -3.36681e-05)
(0.000753502 0 -6.17781e-05)
(0.000833415 0 -4.33388e-05)
(0.00092771 0 -4.12677e-05)
(0.00102088 0 -8.82948e-05)
(0.00113585 0 -8.20014e-05)
(0.0012739 0 -1.77317e-05)
(0.00136344 0 -5.33399e-05)
(0.00138484 0 -8.7155e-05)
(0.00142174 0 -8.76598e-05)
(0.0014931 0 -7.72708e-05)
(0.00157385 0 -6.13328e-05)
(0.00163321 0 -2.07951e-05)
(0.00166697 0 2.02817e-06)
(0.00169935 0 9.74372e-06)
(0.00173792 0 1.12368e-05)
(0.0017392 0 6.31868e-06)
(0.0017224 0 1.64109e-05)
(0.00168742 0 1.17122e-05)
(0.00163748 0 4.13687e-05)
(0.00157398 0 -3.32133e-06)
(0.00150768 0 3.27787e-05)
(0.0014482 0 1.11573e-05)
(0.00139717 0 -5.60721e-06)
(0.00136041 0 4.62239e-05)
(0.00132772 0 -9.86144e-06)
(0.00128716 0 1.99505e-05)
(0.00124579 0 7.0718e-06)
(0.00120589 0 2.05944e-06)
(0.00116035 0 1.20943e-05)
(0.00110964 0 1.48701e-05)
(0.00105004 0 -1.51834e-05)
(0.000965612 0 7.42842e-05)
(0.000886724 0 -6.49418e-05)
(0.00077887 0 0.000200864)
(0.000633481 0 -0.000163721)
(0.000580727 0 0.000143633)
(-0.000258597 0 4.07054e-06)
(7.39823e-05 0 9.63128e-05)
(7.7056e-13 0 4.84403e-12)
(-2.76074e-12 0 4.03457e-13)
(-1.26891e-12 0 -8.03074e-14)
(-1.24132e-12 0 5.20223e-14)
(-1.34253e-12 0 4.8399e-14)
(-1.41397e-12 0 2.21867e-14)
(-1.43325e-12 0 -3.84671e-15)
(-1.40454e-12 0 -2.57591e-14)
(-1.33625e-12 0 -4.34815e-14)
(-1.23625e-12 0 -5.75159e-14)
(-1.11147e-12 0 -6.83075e-14)
(-9.68043e-13 0 -7.6194e-14)
(-8.11528e-13 0 -8.14399e-14)
(-6.46975e-13 0 -8.42743e-14)
(-4.78988e-13 0 -8.49156e-14)
(-3.11725e-13 0 -8.35865e-14)
(-1.48887e-13 0 -8.05196e-14)
(6.30508e-15 0 -7.59579e-14)
(1.51127e-13 0 -7.01511e-14)
(2.83359e-13 0 -6.33504e-14)
(4.0128e-13 0 -5.58016e-14)
(5.0365e-13 0 -4.7739e-14)
(5.89679e-13 0 -3.93801e-14)
(6.58982e-13 0 -3.09202e-14)
(7.11537e-13 0 -2.25303e-14)
(7.47628e-13 0 -1.43554e-14)
(7.67798e-13 0 -6.51398e-15)
(7.72798e-13 0 9.00273e-16)
(7.6354e-13 0 7.81694e-15)
(7.41057e-13 0 1.41858e-14)
(7.06463e-13 0 1.99741e-14)
(6.60929e-13 0 2.51635e-14)
(6.0565e-13 0 2.97467e-14)
(5.41831e-13 0 3.37248e-14)
(4.70669e-13 0 3.71045e-14)
(3.93348e-13 0 3.98959e-14)
(3.11031e-13 0 4.21098e-14)
(2.2486e-13 0 4.37556e-14)
(1.35967e-13 0 4.48372e-14)
(4.54899e-14 0 4.53415e-14)
(-3.24505e-05 0 -0.000125066)
(6.63064e-05 0 -7.76794e-05)
(2.02012e-05 0 -1.87837e-05)
(5.44945e-05 0 8.11178e-05)
(-0.000102181 0 0.000118049)
(-0.000171392 0 0.000162482)
(-0.00021795 0 0.00017423)
(-0.000214652 0 0.000129868)
(-0.000357645 0 0.000117942)
(-0.000460756 0 0.000228672)
(-0.000599729 0 0.000233743)
(-0.000720016 0 0.000200916)
(-0.00080224 0 0.0002011)
(-0.000885795 0 0.00014034)
(-0.000949063 0 0.000190739)
(-0.00101858 0 0.000126222)
(-0.00103444 0 0.000116246)
(-0.00103995 0 2.09939e-05)
(-0.00100987 0 -4.06431e-05)
(-0.000953454 0 -3.48221e-05)
(-0.00089009 0 -0.000103086)
(-0.000862908 0 -4.25425e-06)
(-0.000811063 0 -3.79967e-05)
(-0.000327957 0 -0.000683241)
(-0.000342032 0 -0.00024684)
(-0.000255508 0 -3.11982e-05)
(-0.000110263 0 -0.000112413)
(0.000140572 0 -0.000332284)
(0.000221725 0 -0.000130542)
(0.000346563 0 -4.23315e-05)
(0.00039857 0 -0.00037676)
(0.000556278 0 0.000266074)
(0.000619292 0 -9.87996e-05)
(0.000637122 0 -4.61446e-05)
(0.000657662 0 -6.48389e-05)
(0.000687439 0 -4.56132e-05)
(0.000709738 0 1.80607e-05)
(0.000707182 0 3.73583e-05)
(0.000697205 0 5.34147e-05)
(0.000681243 0 2.94581e-05)
(0.000677948 0 1.5709e-06)
(0.000690563 0 -4.28646e-05)
(0.000727247 0 -0.000115238)
(0.000788845 0 -0.000156833)
(0.000867713 0 -0.000160476)
(0.000956063 0 -0.000161976)
(0.00105151 0 -0.000151026)
(0.00115406 0 -0.000127392)
(0.00123625 0 -0.000128645)
(0.00127964 0 -0.000122088)
(0.0013291 0 -8.95481e-05)
(0.00140905 0 -6.06014e-05)
(0.00149732 0 -7.2458e-05)
(0.00155481 0 -8.06353e-05)
(0.00156699 0 -6.54635e-05)
(0.0015807 0 -6.50843e-05)
(0.00161024 0 -4.28609e-05)
(0.00162535 0 2.16129e-05)
(0.00162311 0 3.1279e-05)
(0.00160958 0 5.41204e-05)
(0.00157509 0 8.98354e-05)
(0.00152678 0 9.48576e-05)
(0.00147345 0 9.8521e-05)
(0.00142229 0 0.000107061)
(0.00137046 0 8.96347e-05)
(0.0013188 0 6.24378e-05)
(0.00127825 0 8.29638e-05)
(0.00124537 0 4.88946e-05)
(0.00120906 0 5.50144e-05)
(0.00117026 0 0.000107362)
(0.00113049 0 6.07525e-05)
(0.00107343 0 0.000121289)
(0.00101709 0 0.000117281)
(0.000952804 0 6.1815e-05)
(0.000848966 0 0.000176035)
(0.000777119 0 0.000105548)
(0.0006504 0 0.000184472)
(0.00052351 0 0.000212673)
(0.000402949 0 0.000171165)
(-8.55535e-05 0 0.000304005)
(1.05711e-05 0 5.79027e-05)
(-2.46529e-12 0 2.09086e-12)
(-1.6221e-12 0 4.40576e-13)
(-1.11388e-12 0 2.91369e-13)
(-1.37312e-12 0 1.67145e-13)
(-1.46649e-12 0 6.57573e-14)
(-1.48114e-12 0 -1.60969e-14)
(-1.44414e-12 0 -8.18733e-14)
(-1.368e-12 0 -1.34558e-13)
(-1.26108e-12 0 -1.76232e-13)
(-1.13015e-12 0 -2.08283e-13)
(-9.81176e-13 0 -2.31692e-13)
(-8.19608e-13 0 -2.47212e-13)
(-6.50451e-13 0 -2.55506e-13)
(-4.783e-13 0 -2.57212e-13)
(-3.07329e-13 0 -2.52991e-13)
(-1.41258e-13 0 -2.4354e-13)
(1.66736e-14 0 -2.2959e-13)
(1.63734e-13 0 -2.11897e-13)
(2.97708e-13 0 -1.91221e-13)
(4.16891e-13 0 -1.68307e-13)
(5.20072e-13 0 -1.43866e-13)
(6.06498e-13 0 -1.18557e-13)
(6.75832e-13 0 -9.29715e-14)
(7.28102e-13 0 -6.7625e-14)
(7.63644e-13 0 -4.29533e-14)
(7.83054e-13 0 -1.93116e-14)
(7.87129e-13 0 3.02139e-15)
(7.76826e-13 0 2.38371e-14)
(7.53214e-13 0 4.29885e-14)
(7.17441e-13 0 6.03811e-14)
(6.70701e-13 0 7.59635e-14)
(6.14211e-13 0 8.97173e-14)
(5.49189e-13 0 1.01649e-13)
(4.7684e-13 0 1.11781e-13)
(3.98354e-13 0 1.20146e-13)
(3.14891e-13 0 1.2678e-13)
(2.27588e-13 0 1.31714e-13)
(1.37552e-13 0 1.34973e-13)
(4.59942e-14 0 1.3656e-13)
(-2.94014e-05 0 -0.000135644)
(-7.42736e-05 0 -6.63946e-05)
(-4.47564e-05 0 7.45933e-05)
(-0.000132077 0 0.000101882)
(-0.000199383 0 0.000110635)
(-0.000238572 0 0.000167203)
(-0.000340954 0 0.000194921)
(-0.000439736 0 0.000210893)
(-0.000577822 0 0.000227395)
(-0.00071959 0 0.000233931)
(-0.000808806 0 0.000314142)
(-0.000904068 0 0.000255043)
(-0.000930876 0 0.000282331)
(-0.000990044 0 0.000195103)
(-0.00104654 0 0.000102932)
(-0.00107025 0 9.17778e-05)
(-0.00107376 0 1.57089e-05)
(-0.00105796 0 -7.54071e-05)
(-0.00106136 0 6.26697e-05)
(-0.0010018 0 -4.22587e-05)
(-0.000851999 0 -0.000356971)
(-0.000797578 0 -0.000230647)
(-0.000691526 0 -0.000351657)
(-0.00048203 0 -0.00047722)
(-0.000337966 0 -0.000323247)
(-0.000265914 0 -0.000206903)
(-7.19117e-05 0 -0.000306648)
(0.000200558 0 -0.000415587)
(0.000254585 0 -0.000323305)
(0.000388902 0 -0.000206142)
(0.000370801 0 -0.000382299)
(0.000575985 0 -3.60127e-05)
(0.000633583 0 -0.000127692)
(0.000712476 0 -0.000108218)
(0.000747956 0 -4.64057e-05)
(0.000730498 0 -4.90094e-05)
(0.000698264 0 -3.75946e-05)
(0.000678776 0 -1.35627e-05)
(0.000670521 0 4.93569e-05)
(0.00065864 0 3.44877e-05)
(0.000648207 0 -3.09952e-05)
(0.000648072 0 -8.58049e-05)
(0.000675537 0 -0.000131293)
(0.000729862 0 -0.000174649)
(0.000785489 0 -0.000229172)
(0.000873653 0 -0.000272519)
(0.000973366 0 -0.000309704)
(0.00107997 0 -0.000130964)
(0.00114654 0 -7.98078e-05)
(0.00119562 0 -0.00018255)
(0.00125447 0 -0.000271636)
(0.00132541 0 -0.000246739)
(0.00136162 0 -0.000153723)
(0.00138584 0 -4.97772e-05)
(0.00140628 0 -0.000137222)
(0.00144473 0 -8.28788e-05)
(0.00144891 0 -3.12796e-05)
(0.00144826 0 -9.82264e-06)
(0.00145438 0 1.87476e-05)
(0.00145932 0 7.83768e-05)
(0.00144975 0 9.29853e-05)
(0.00142271 0 0.000112053)
(0.0013894 0 0.000113015)
(0.00135038 0 0.000126847)
(0.00131257 0 0.000101505)
(0.00127814 0 8.33918e-05)
(0.00124036 0 9.46089e-05)
(0.00120623 0 9.87207e-05)
(0.00117514 0 7.6572e-05)
(0.00113718 0 8.52307e-05)
(0.00108945 0 0.000124107)
(0.00103531 0 0.000109894)
(0.000965777 0 0.000200917)
(0.000901109 0 0.000188029)
(0.000831209 0 0.000186386)
(0.000713365 0 0.000288762)
(0.000587659 0 0.000311927)
(0.000446608 0 0.000342332)
(0.000321392 0 0.00044147)
(9.04001e-05 0 0.000462839)
(6.52792e-06 0 0.000237699)
(-1.42276e-12 0 2.07583e-12)
(-2.92358e-12 0 9.0929e-13)
(-1.51569e-12 0 5.05254e-13)
(-1.56861e-12 0 2.62553e-13)
(-1.59723e-12 0 8.9294e-14)
(-1.58067e-12 0 -4.46508e-14)
(-1.52294e-12 0 -1.51341e-13)
(-1.43061e-12 0 -2.36942e-13)
(-1.30998e-12 0 -3.0487e-13)
(-1.16693e-12 0 -3.57206e-13)
(-1.00697e-12 0 -3.9538e-13)
(-8.35342e-13 0 -4.20515e-13)
(-6.56974e-13 0 -4.33625e-13)
(-4.76473e-13 0 -4.35732e-13)
(-2.98053e-13 0 -4.27919e-13)
(-1.25486e-13 0 -4.11347e-13)
(3.79478e-14 0 -3.87249e-13)
(1.89496e-13 0 -3.56902e-13)
(3.26949e-13 0 -3.21598e-13)
(4.48634e-13 0 -2.82599e-13)
(5.534e-13 0 -2.41111e-13)
(6.40574e-13 0 -1.98247e-13)
(7.09914e-13 0 -1.55003e-13)
(7.61555e-13 0 -1.12246e-13)
(7.95942e-13 0 -7.07035e-14)
(8.13773e-13 0 -3.09645e-14)
(8.15947e-13 0 6.51274e-15)
(8.03507e-13 0 4.13892e-14)
(7.77601e-13 0 7.34302e-14)
(7.39438e-13 0 1.02489e-13)
(6.90265e-13 0 1.28491e-13)
(6.31335e-13 0 1.51415e-13)
(5.63894e-13 0 1.71282e-13)
(4.89167e-13 0 1.88138e-13)
(4.08347e-13 0 2.02044e-13)
(3.22599e-13 0 2.13066e-13)
(2.33053e-13 0 2.21266e-13)
(1.40813e-13 0 2.26697e-13)
(4.70775e-14 0 2.29401e-13)
(-1.48652e-05 0 -0.000103353)
(-0.000121805 0 4.77192e-05)
(-8.27214e-05 0 0.000157239)
(-0.000221357 0 0.000126292)
(-0.000118954 0 0.000271978)
(-0.00038395 0 0.000161873)
(-0.000381309 0 0.000383819)
(-0.000611907 0 0.000316176)
(-0.00069276 0 0.000415527)
(-0.00083343 0 0.000398198)
(-0.000907132 0 0.000422294)
(-0.000979283 0 0.000382906)
(-0.00104829 0 0.0002808)
(-0.00109474 0 0.000235717)
(-0.00111612 0 0.000204423)
(-0.00112875 0 0.000130821)
(-0.00113684 0 5.43527e-05)
(-0.00104955 0 -0.000208131)
(-0.000986403 0 -4.79088e-05)
(-0.000923302 0 -0.00012626)
(-0.000807431 0 -0.000341531)
(-0.000679913 0 -0.000447036)
(-0.000603831 0 -0.000489599)
(-0.000361092 0 -0.000624283)
(-0.000150506 0 -0.000528179)
(-7.11233e-05 0 -0.000485777)
(9.67273e-05 0 -0.000492558)
(0.000198331 0 -0.000481097)
(0.000324267 0 -0.000465445)
(0.000472283 0 -0.00034678)
(0.000556408 0 -0.00026299)
(0.000569832 0 -0.000303118)
(0.000652363 0 -0.000236168)
(0.000747468 0 -0.000132949)
(0.00078445 0 -3.03231e-05)
(0.000768677 0 -3.51829e-05)
(0.000728421 0 2.94092e-05)
(0.000678572 0 1.78094e-05)
(0.000643848 0 8.20542e-05)
(0.000615429 0 3.25188e-05)
(0.000609324 0 -4.80083e-06)
(0.000609666 0 -8.34809e-05)
(0.000626992 0 -0.000170377)
(0.00069207 0 -0.000193896)
(0.00072116 0 -0.00031431)
(0.000831585 0 -0.000246993)
(0.000919954 0 -0.000310213)
(0.00097423 0 -0.000403275)
(0.00104679 0 -0.00030978)
(0.00109628 0 -0.000289055)
(0.00117135 0 -0.000210647)
(0.0011909 0 -0.000168847)
(0.00118379 0 -0.000157536)
(0.0011905 0 -0.00015373)
(0.00122628 0 -9.63798e-05)
(0.00123713 0 -5.96051e-05)
(0.00122864 0 -3.71222e-05)
(0.00122664 0 7.06213e-06)
(0.0012368 0 1.23669e-05)
(0.00125744 0 7.14342e-05)
(0.00125632 0 0.000144778)
(0.00125502 0 0.000154223)
(0.00124918 0 0.000164665)
(0.00123328 0 0.000167794)
(0.00121308 0 0.000146427)
(0.00118889 0 0.000158866)
(0.0011613 0 0.00012489)
(0.00112809 0 0.000113865)
(0.00109349 0 0.000160789)
(0.00106577 0 0.000118935)
(0.00101791 0 0.000208196)
(0.000997975 0 0.000114461)
(0.000863764 0 0.000373787)
(0.000850319 0 0.000183637)
(0.000761911 0 0.000347543)
(0.000738936 0 0.000288005)
(0.000595761 0 0.00034971)
(0.000516828 0 0.000357727)
(0.000532811 0 0.000383659)
(0.000185481 0 0.000526177)
(5.01968e-06 0 0.000465872)
(-9.45852e-13 0 1.49314e-12)
(-2.92128e-12 0 8.83121e-13)
(-1.75995e-12 0 5.57941e-13)
(-1.78849e-12 0 2.88645e-13)
(-1.77316e-12 0 7.36385e-14)
(-1.72146e-12 0 -1.00137e-13)
(-1.63639e-12 0 -2.41718e-13)
(-1.52153e-12 0 -3.5685e-13)
(-1.38134e-12 0 -4.48928e-13)
(-1.22066e-12 0 -5.20095e-13)
(-1.04449e-12 0 -5.71889e-13)
(-8.57854e-13 0 -6.056e-13)
(-6.65668e-13 0 -6.22486e-13)
(-4.72593e-13 0 -6.23897e-13)
(-2.82943e-13 0 -6.11323e-13)
(-1.00588e-13 0 -5.86402e-13)
(7.11177e-14 0 -5.50895e-13)
(2.29385e-13 0 -5.06635e-13)
(3.72011e-13 0 -4.55475e-13)
(4.97378e-13 0 -3.99231e-13)
(6.04424e-13 0 -3.39627e-13)
(6.92606e-13 0 -2.78248e-13)
(7.61832e-13 0 -2.16511e-13)
(8.12401e-13 0 -1.55637e-13)
(8.44926e-13 0 -9.66465e-14)
(8.6027e-13 0 -4.03558e-14)
(8.59483e-13 0 1.26063e-14)
(8.43743e-13 0 6.1783e-14)
(8.14314e-13 0 1.06866e-13)
(7.72501e-13 0 1.47673e-13)
(7.19627e-13 0 1.8412e-13)
(6.57002e-13 0 2.16199e-13)
(5.85911e-13 0 2.43958e-13)
(5.07602e-13 0 2.67478e-13)
(4.23282e-13 0 2.86861e-13)
(3.34113e-13 0 3.02211e-13)
(2.41219e-13 0 3.13626e-13)
(1.45688e-13 0 3.21185e-13)
(4.86987e-14 0 3.24951e-13)
(-6.52901e-05 0 -6.42406e-05)
(-0.00013012 0 0.000120052)
(-0.000203512 0 0.00016481)
(-0.000242834 0 0.000220264)
(-0.000280799 0 0.000269666)
(-0.000537412 0 0.000240011)
(-0.000564441 0 0.000435164)
(-0.000659631 0 0.000515566)
(-0.000783081 0 0.000494933)
(-0.00088371 0 0.000490462)
(-0.000970601 0 0.000446576)
(-0.00102236 0 0.000406215)
(-0.00106217 0 0.000359159)
(-0.00108394 0 0.00031691)
(-0.00110343 0 0.000171137)
(-0.00109653 0 0.000128671)
(-0.00111507 0 5.53769e-05)
(-0.00104483 0 -0.000226595)
(-0.000908467 0 -0.000228695)
(-0.000817235 0 -0.000258659)
(-0.000682232 0 -0.000459174)
(-0.000567496 0 -0.000541709)
(-0.000391149 0 -0.000689489)
(-0.000267801 0 -0.000740058)
(9.12551e-05 0 -0.000736337)
(0.000127014 0 -0.000657832)
(0.000233241 0 -0.000593641)
(0.000312227 0 -0.000556651)
(0.000412144 0 -0.000507814)
(0.00045999 0 -0.0005039)
(0.000572783 0 -0.000405262)
(0.000635528 0 -0.000357945)
(0.000716382 0 -0.000227605)
(0.000724581 0 -0.00026502)
(0.000780234 0 -5.39004e-05)
(0.000780212 0 -1.06636e-05)
(0.000739009 0 6.69706e-05)
(0.000669835 0 7.46111e-05)
(0.000625404 0 0.000120274)
(0.000596912 0 6.79935e-05)
(0.000582299 0 -3.02989e-05)
(0.000594005 0 -8.291e-05)
(0.000605817 0 -0.000205807)
(0.000676852 0 -0.000212192)
(0.000673766 0 -0.000397732)
(0.000712848 0 -0.000451804)
(0.000837915 0 -0.000317951)
(0.000909092 0 -0.000287963)
(0.00094361 0 -0.000304618)
(0.000980345 0 -0.000282921)
(0.000999716 0 -0.000294357)
(0.00103075 0 -0.000214244)
(0.0010486 0 -0.000128694)
(0.00104981 0 -0.000106446)
(0.00104728 0 -0.000104685)
(0.00104487 0 -8.72973e-05)
(0.00104173 0 -4.0937e-05)
(0.0010415 0 -2.79191e-05)
(0.00104753 0 2.37115e-07)
(0.00104586 0 6.59879e-05)
(0.00105021 0 8.19701e-05)
(0.00106771 0 0.000116929)
(0.00107245 0 0.000149426)
(0.0010711 0 0.000147792)
(0.00106576 0 0.000134492)
(0.00105141 0 0.000147744)
(0.00103175 0 0.000146452)
(0.0010104 0 0.000146382)
(0.000981564 0 0.000187176)
(0.000949192 0 0.000164885)
(0.000918171 0 0.000220727)
(0.000881491 0 0.000278367)
(0.000847446 0 0.000264543)
(0.000803651 0 0.000287323)
(0.000632909 0 0.000537528)
(0.000556952 0 0.000595087)
(0.000560547 0 0.000517244)
(0.000488136 0 0.00054229)
(0.000272058 0 0.000661657)
(-0.000110433 0 0.000683562)
(4.72411e-06 0 0.000719773)
(-1.03846e-12 0 1.95728e-12)
(-3.47981e-12 0 9.29472e-13)
(-2.1095e-12 0 5.54784e-13)
(-2.05232e-12 0 2.60484e-13)
(-1.98547e-12 0 1.67813e-14)
(-1.89572e-12 0 -1.87595e-13)
(-1.77962e-12 0 -3.58492e-13)
(-1.63782e-12 0 -4.99787e-13)
(-1.47322e-12 0 -6.13852e-13)
(-1.28989e-12 0 -7.02293e-13)
(-1.09248e-12 0 -7.66394e-13)
(-8.8594e-13 0 -8.074e-13)
(-6.75272e-13 0 -8.26694e-13)
(-4.65309e-13 0 -8.25904e-13)
(-2.60558e-13 0 -8.06923e-13)
(-6.50582e-14 0 -7.71895e-13)
(1.17715e-13 0 -7.23156e-13)
(2.84916e-13 0 -6.63152e-13)
(4.34352e-13 0 -5.94355e-13)
(5.64483e-13 0 -5.1918e-13)
(6.74383e-13 0 -4.39911e-13)
(7.63689e-13 0 -3.58638e-13)
(8.32525e-13 0 -2.77213e-13)
(8.8142e-13 0 -1.9722e-13)
(9.11223e-13 0 -1.19969e-13)
(9.23026e-13 0 -4.64961e-14)
(9.18086e-13 0 2.24162e-14)
(8.97768e-13 0 8.62127e-14)
(8.63491e-13 0 1.44535e-13)
(8.16691e-13 0 1.97185e-13)
(7.5879e-13 0 2.44094e-13)
(6.91173e-13 0 2.85288e-13)
(6.15174e-13 0 3.20863e-13)
(5.3207e-13 0 3.50953e-13)
(4.4308e-13 0 3.75712e-13)
(3.49363e-13 0 3.95294e-13)
(2.52027e-13 0 4.09843e-13)
(1.52138e-13 0 4.19473e-13)
(5.08431e-14 0 4.24267e-13)
(-0.000207765 0 2.25255e-05)
(-0.000115223 0 0.000180851)
(-0.000204773 0 0.000242392)
(-0.000341966 0 0.000219038)
(-0.000242033 0 0.000456946)
(-0.000415974 0 0.000551297)
(-0.000672312 0 0.000523788)
(-0.000764912 0 0.000569033)
(-0.000874319 0 0.000532012)
(-0.000952014 0 0.000512715)
(-0.00098099 0 0.000528746)
(-0.00100692 0 0.000478132)
(-0.00103108 0 0.000353509)
(-0.00103138 0 0.000287446)
(-0.00101276 0 0.000148505)
(-0.000984842 0 7.05435e-05)
(-0.000983277 0 -1.65359e-05)
(-0.000994633 0 -9.96427e-05)
(-0.000821751 0 -0.000412665)
(-0.000746394 0 -0.000362509)
(-0.000630345 0 -0.000504281)
(-0.000342528 0 -0.000814081)
(-0.000242313 0 -0.000864876)
(-0.000131735 0 -0.000881893)
(-0.000130914 0 -0.00083321)
(0.000146361 0 -0.0008143)
(0.000164506 0 -0.000756681)
(0.000362602 0 -0.000677496)
(0.00049085 0 -0.000585602)
(0.000504954 0 -0.000587019)
(0.000619217 0 -0.000486836)
(0.000715895 0 -0.000368943)
(0.000778362 0 -0.000224528)
(0.000778286 0 -0.000248684)
(0.000806051 0 -8.23112e-05)
(0.00081144 0 3.67868e-05)
(0.000775635 0 0.000116146)
(0.000690986 0 0.00012549)
(0.000601353 0 0.000195433)
(0.000585648 0 9.1614e-05)
(0.000572434 0 -4.76319e-05)
(0.000588426 0 -6.05804e-05)
(0.000588583 0 -0.000221347)
(0.000563947 0 -0.000404835)
(0.000734605 0 -0.000273004)
(0.000669661 0 -0.000493791)
(0.000671039 0 -0.000562913)
(0.000729467 0 -0.000539229)
(0.000830607 0 -0.000397926)
(0.000889542 0 -0.000291573)
(0.000897844 0 -0.00026706)
(0.000904305 0 -0.000229901)
(0.000917849 0 -0.000166458)
(0.000918763 0 -0.000144167)
(0.000916091 0 -0.000124774)
(0.000913299 0 -6.79994e-05)
(0.000906126 0 -2.08664e-05)
(0.000898953 0 -8.81939e-07)
(0.00088397 0 2.92966e-05)
(0.000870365 0 7.65534e-05)
(0.000873313 0 0.000103362)
(0.000884905 0 0.00013536)
(0.000896179 0 0.000158817)
(0.000904197 0 0.000175512)
(0.00090842 0 0.000170071)
(0.000905792 0 0.000174814)
(0.000899109 0 0.000161771)
(0.000882302 0 0.000176299)
(0.000856443 0 0.000230735)
(0.000852759 0 0.00014638)
(0.000800814 0 0.000247182)
(0.00078863 0 0.000264247)
(0.000731185 0 0.000381591)
(0.000767739 0 0.000282577)
(0.000728857 0 0.000352951)
(0.000665325 0 0.000454265)
(0.000633672 0 0.000492263)
(0.000349014 0 0.000679177)
(0.000338314 0 0.000730747)
(-0.000330876 0 0.000764498)
(5.12622e-06 0 0.000910187)
(-1.29904e-12 0 1.55896e-12)
(-3.84784e-12 0 7.72207e-13)
(-2.42827e-12 0 4.71283e-13)
(-2.32589e-12 0 1.81762e-13)
(-2.2207e-12 0 -7.93714e-14)
(-2.09644e-12 0 -3.08308e-13)
(-1.94856e-12 0 -5.04847e-13)
(-1.77689e-12 0 -6.69957e-13)
(-1.58385e-12 0 -8.0439e-13)
(-1.3732e-12 0 -9.08805e-13)
(-1.14959e-12 0 -9.8395e-13)
(-9.18154e-13 0 -1.03084e-12)
(-6.84172e-13 0 -1.0509e-12)
(-4.52821e-13 0 -1.04599e-12)
(-2.28935e-13 0 -1.01845e-12)
(-1.68217e-14 0 -9.70969e-13)
(1.79861e-13 0 -9.06553e-13)
(3.58187e-13 0 -8.28343e-13)
(5.15983e-13 0 -7.39518e-13)
(6.51821e-13 0 -6.43164e-13)
(7.64966e-13 0 -5.42182e-13)
(8.55304e-13 0 -4.39203e-13)
(9.2325e-13 0 -3.36538e-13)
(9.69645e-13 0 -2.36141e-13)
(9.9565e-13 0 -1.39605e-13)
(1.00266e-12 0 -4.8168e-14)
(9.92192e-13 0 3.7256e-14)
(9.65862e-13 0 1.16043e-13)
(9.25286e-13 0 1.87814e-13)
(8.7206e-13 0 2.5239e-13)
(8.07731e-13 0 3.09747e-13)
(7.33772e-13 0 3.59974e-13)
(6.51575e-13 0 4.03238e-13)
(5.62451e-13 0 4.39749e-13)
(4.67623e-13 0 4.69733e-13)
(3.68244e-13 0 4.9341e-13)
(2.65397e-13 0 5.10978e-13)
(1.60112e-13 0 5.22597e-13)
(5.34929e-14 0 5.28378e-13)
(-0.000145813 0 0.000161906)
(-0.000147221 0 0.000220783)
(-0.000222866 0 0.000316557)
(-0.000334448 0 0.000383993)
(-0.000500514 0 0.000454936)
(-0.00063286 0 0.000540296)
(-0.000709903 0 0.000652644)
(-0.000745181 0 0.000721286)
(-0.000851231 0 0.000660323)
(-0.000915948 0 0.00061528)
(-0.000955643 0 0.000576517)
(-0.000982466 0 0.000492433)
(-0.000946156 0 0.00035743)
(-0.000916514 0 0.00029803)
(-0.000920005 0 0.000158712)
(-0.000894394 0 3.15865e-05)
(-0.000878607 0 -3.57586e-05)
(-0.00087096 0 -0.000161255)
(-0.00073155 0 -0.000478872)
(-0.000665127 0 -0.000542682)
(-0.000427315 0 -0.00080368)
(-0.000432964 0 -0.000853155)
(-0.000214181 0 -0.000976883)
(-0.000238121 0 -0.0010048)
(7.23708e-05 0 -0.000995546)
(5.92932e-05 0 -0.000952283)
(0.000352242 0 -0.000839881)
(0.000341707 0 -0.00083372)
(0.000521221 0 -0.000728927)
(0.000640221 0 -0.000629825)
(0.00068438 0 -0.000569308)
(0.000761512 0 -0.000423283)
(0.000750012 0 -0.000360454)
(0.00079175 0 -0.000256478)
(0.000828502 0 -0.000100923)
(0.000817683 0 4.88893e-05)
(0.00077421 0 0.000176691)
(0.000684201 0 0.000244059)
(0.000588705 0 0.000208753)
(0.000548152 0 5.56458e-05)
(0.00057071 0 5.66927e-05)
(0.000539376 0 -0.00016014)
(0.000569516 0 -0.000217753)
(0.000584871 0 -0.000343294)
(0.000586005 0 -0.000480768)
(0.000708995 0 -0.000435398)
(0.00077785 0 -0.000369105)
(0.000756472 0 -0.000395573)
(0.000750903 0 -0.000408827)
(0.000789596 0 -0.000337733)
(0.000803567 0 -0.000305239)
(0.000817964 0 -0.000240079)
(0.000829049 0 -0.000157803)
(0.000827679 0 -0.000129328)
(0.000826176 0 -8.56395e-05)
(0.000821918 0 -4.67903e-05)
(0.000810967 0 -2.4832e-05)
(0.000794493 0 2.93321e-06)
(0.000778518 0 4.54947e-05)
(0.000774064 0 6.79421e-05)
(0.000776675 0 7.92598e-05)
(0.000778194 0 0.000105087)
(0.00078166 0 0.000132465)
(0.00078831 0 0.000138067)
(0.000786852 0 0.00016068)
(0.000793214 0 0.00016842)
(0.000795186 0 0.000163387)
(0.000781666 0 0.000176384)
(0.000760998 0 0.000196834)
(0.000732403 0 0.000256504)
(0.000724584 0 0.000264327)
(0.000666545 0 0.000351343)
(0.000683736 0 0.000342969)
(0.000492461 0 0.000596401)
(0.000523391 0 0.00059299)
(0.000495047 0 0.000632187)
(0.000421383 0 0.000682945)
(0.000312576 0 0.000739241)
(0.000507872 0 0.000727355)
(-0.000199834 0 0.000890054)
(5.45724e-06 0 0.00104228)
(-1.42996e-12 0 1.44806e-12)
(-4.00564e-12 0 6.65224e-13)
(-2.69928e-12 0 3.76454e-13)
(-2.60238e-12 0 7.47052e-14)
(-2.47502e-12 0 -2.07676e-13)
(-2.32093e-12 0 -4.61196e-13)
(-2.14126e-12 0 -6.82629e-13)
(-1.93736e-12 0 -8.70825e-13)
(-1.71207e-12 0 -1.02497e-12)
(-1.46945e-12 0 -1.1446e-12)
(-1.21452e-12 0 -1.22976e-12)
(-9.52889e-13 0 -1.28111e-12)
(-6.90421e-13 0 -1.30003e-12)
(-4.32856e-13 0 -1.28866e-12)
(-1.85535e-13 0 -1.24982e-12)
(4.68351e-14 0 -1.18689e-12)
(2.60341e-13 0 -1.10363e-12)
(4.51951e-13 0 -1.00403e-12)
(6.19532e-13 0 -8.921e-13)
(7.61819e-13 0 -7.71691e-13)
(8.78344e-13 0 -6.46399e-13)
(9.69333e-13 0 -5.19446e-13)
(1.03559e-12 0 -3.93625e-13)
(1.07835e-12 0 -2.71265e-13)
(1.0992e-12 0 -1.54224e-13)
(1.09989e-12 0 -4.39198e-14)
(1.0823e-12 0 5.86416e-14)
(1.04833e-12 0 1.52807e-13)
(9.99838e-13 0 2.38219e-13)
(9.38624e-13 0 3.14759e-13)
(8.66375e-13 0 3.82488e-13)
(7.84664e-13 0 4.41594e-13)
(6.94948e-13 0 4.92347e-13)
(5.98564e-13 0 5.35059e-13)
(4.96741e-13 0 5.70052e-13)
(3.90609e-13 0 5.97631e-13)
(2.81214e-13 0 6.18062e-13)
(1.69538e-13 0 6.31559e-13)
(5.6624e-14 0 6.3827e-13)
(-0.000122795 0 0.000232516)
(-0.000157278 0 0.00028528)
(-0.000246672 0 0.000396724)
(-0.000235782 0 0.000562405)
(-0.000441311 0 0.000666375)
(-0.000539187 0 0.00076121)
(-0.000718167 0 0.000745863)
(-0.000806441 0 0.00072604)
(-0.000801978 0 0.000749019)
(-0.000869135 0 0.000663047)
(-0.000919976 0 0.000579977)
(-0.000959856 0 0.000451356)
(-0.000957991 0 0.000135007)
(-0.000829546 0 0.000264999)
(-0.000791123 0 0.000275675)
(-0.00080976 0 -4.18789e-06)
(-0.000780036 0 -9.03072e-05)
(-0.000749296 0 -0.000233487)
(-0.000628859 0 -0.000562328)
(-0.000596342 0 -0.000656311)
(-0.000422022 0 -0.000900864)
(-0.000520245 0 -0.000926984)
(-0.000161331 0 -0.00109097)
(-0.000192216 0 -0.00112549)
(0.000215689 0 -0.001115)
(0.000110001 0 -0.00108857)
(0.000504663 0 -0.00094039)
(0.000354095 0 -0.000996162)
(0.000686204 0 -0.000792513)
(0.000781279 0 -0.000688725)
(0.00083072 0 -0.000580717)
(0.000828926 0 -0.000511153)
(0.00087429 0 -0.00022457)
(0.000737178 0 -0.000402361)
(0.000831104 0 -3.81848e-05)
(0.000813758 0 8.3583e-05)
(0.000748965 0 0.000240191)
(0.000686506 0 0.000299593)
(0.000626815 0 0.000277535)
(0.000543248 0 0.000113676)
(0.000523511 0 -3.17465e-05)
(0.000533182 0 -0.000113604)
(0.000560947 0 -0.000218443)
(0.000542858 0 -0.000399365)
(0.000624476 0 -0.000437224)
(0.000593161 0 -0.000542889)
(0.000628215 0 -0.000529447)
(0.000624101 0 -0.000534486)
(0.000659219 0 -0.000474067)
(0.00069766 0 -0.000380636)
(0.000719173 0 -0.000304203)
(0.000736002 0 -0.00023344)
(0.000738984 0 -0.000176156)
(0.000748177 0 -0.000128668)
(0.000749346 0 -0.000101997)
(0.000747918 0 -6.00005e-05)
(0.000740938 0 -2.00727e-05)
(0.000731319 0 -6.34563e-06)
(0.000725238 0 4.82188e-05)
(0.000720925 0 6.76646e-05)
(0.000714048 0 9.31843e-05)
(0.000706366 0 0.000122685)
(0.000705634 0 0.000134296)
(0.000704747 0 0.000157494)
(0.000703275 0 0.000147303)
(0.000699914 0 0.000176568)
(0.000695678 0 0.000195839)
(0.000685997 0 0.00020869)
(0.000673384 0 0.000225222)
(0.000662876 0 0.00024028)
(0.000629318 0 0.000291688)
(0.00055746 0 0.000400603)
(0.000540313 0 0.000441379)
(0.000696775 0 0.000270455)
(0.000450431 0 0.000630553)
(0.000417113 0 0.000683336)
(0.000373672 0 0.000712819)
(0.00030195 0 0.000774793)
(0.000348506 0 0.000858807)
(-0.000329465 0 0.000972087)
(5.62559e-06 0 0.00119739)
(-1.60466e-12 0 1.82498e-12)
(-4.27322e-12 0 6.82452e-13)
(-3.01814e-12 0 2.94739e-13)
(-2.90945e-12 0 -5.1619e-14)
(-2.75611e-12 0 -3.64755e-13)
(-2.57117e-12 0 -6.45951e-13)
(-2.35818e-12 0 -8.93656e-13)
(-2.11923e-12 0 -1.10577e-12)
(-1.85762e-12 0 -1.28009e-12)
(-1.57799e-12 0 -1.41492e-12)
(-1.2861e-12 0 -1.50944e-12)
(-9.88424e-13 0 -1.56384e-12)
(-6.91726e-13 0 -1.57948e-12)
(-4.02611e-13 0 -1.55881e-12)
(-1.27157e-13 0 -1.50527e-12)
(1.29369e-13 0 -1.42308e-12)
(3.62712e-13 0 -1.31698e-12)
(5.69716e-13 0 -1.19197e-12)
(7.48326e-13 0 -1.05305e-12)
(8.97523e-13 0 -9.05002e-13)
(1.01721e-12 0 -7.52198e-13)
(1.10808e-12 0 -5.98515e-13)
(1.17143e-12 0 -4.47252e-13)
(1.20905e-12 0 -3.01104e-13)
(1.223e-12 0 -1.62175e-13)
(1.21552e-12 0 -3.20113e-14)
(1.18892e-12 0 8.83348e-14)
(1.14544e-12 0 1.98238e-13)
(1.08724e-12 0 2.9742e-13)
(1.01633e-12 0 3.85877e-13)
(9.34566e-13 0 4.63803e-13)
(8.43631e-13 0 5.31531e-13)
(7.45041e-13 0 5.89472e-13)
(6.40156e-13 0 6.38073e-13)
(5.30195e-13 0 6.77777e-13)
(4.16254e-13 0 7.08995e-13)
(2.99325e-13 0 7.32079e-13)
(1.8032e-13 0 7.47307e-13)
(6.02037e-14 0 7.54873e-13)
(-8.29763e-05 0 0.000348965)
(-0.000107015 0 0.000373436)
(-0.00026175 0 0.000493678)
(-0.000362902 0 0.000632665)
(-0.000566014 0 0.000722155)
(-0.000626427 0 0.00081222)
(-0.000715705 0 0.000809346)
(-0.000713452 0 0.000832113)
(-0.000793299 0 0.000754274)
(-0.000856582 0 0.000638024)
(-0.000817789 0 0.00062456)
(-0.000810079 0 0.000557486)
(-0.000880711 0 0.000326283)
(-0.000862825 0 6.26126e-05)
(-0.000773743 0 8.52305e-05)
(-0.000734737 0 5.08704e-05)
(-0.000689213 0 -0.000147847)
(-0.0006451 0 -0.000249032)
(-0.000418246 0 -0.000700743)
(-0.000624669 0 -0.000684739)
(-0.00037148 0 -0.00101621)
(-0.00031793 0 -0.00113364)
(-0.000106271 0 -0.00118786)
(-7.46288e-05 0 -0.00123779)
(8.67533e-05 0 -0.00127037)
(0.000168808 0 -0.00123827)
(0.000215274 0 -0.00122118)
(0.000595649 0 -0.00105061)
(0.000627847 0 -0.000998552)
(0.000756659 0 -0.000852891)
(0.000897117 0 -0.000611758)
(0.00089134 0 -0.000515852)
(0.000936188 0 -0.000204096)
(0.000771207 0 -0.000334624)
(0.000776777 0 -0.0001077)
(0.000761818 0 0.000189638)
(0.000718658 0 0.000280349)
(0.000645705 0 0.000373585)
(0.00062421 0 0.00035804)
(0.000563328 0 0.000205476)
(0.000520799 0 -3.48951e-05)
(0.00052599 0 -0.000122252)
(0.00055544 0 -0.000235923)
(0.000518047 0 -0.000445315)
(0.000576863 0 -0.0005144)
(0.000613244 0 -0.000512549)
(0.000645375 0 -0.00046672)
(0.000620792 0 -0.000469607)
(0.000617506 0 -0.000428795)
(0.000631654 0 -0.000360678)
(0.000618739 0 -0.000345068)
(0.000654026 0 -0.000251479)
(0.000659718 0 -0.000204711)
(0.000671565 0 -0.000130566)
(0.000676585 0 -8.99929e-05)
(0.000672539 0 -6.36945e-05)
(0.000662911 0 -6.92676e-06)
(0.000659626 0 2.34238e-05)
(0.000659891 0 6.10838e-05)
(0.000654848 0 7.81594e-05)
(0.000640975 0 0.000106563)
(0.000635809 0 0.000121707)
(0.000634365 0 0.000132168)
(0.00062765 0 0.000160512)
(0.000629404 0 0.00014453)
(0.00062486 0 0.000170316)
(0.000614556 0 0.000193493)
(0.000609182 0 0.000196156)
(0.000565608 0 0.000286595)