0 	1.45182e-20 	0 	-3.2666e-20
0.010101 	-7.46311e-21 	2.70863e-22 	-4.23917e-20
0.020202 	5.14131e-21 	-1.6897e-22 	-5.15814e-20
0.030303 	-2.68512e-20 	-1.6897e-22 	-1.87318e-20
0.040404 	2.52656e-20 	3.3794e-23 	-9.98652e-20
0.0505051 	-7.20544e-20 	1.01212e-22 	-1.66623e-20
