/*--------------------------------*- C++ -*----------------------------------*\
  =========                 |
  \\      /  F ield         | OpenFOAM: The Open Source CFD Toolbox
   \\    /   O peration     | Website:  https://openfoam.org
    \\  /    A nd           | Version:  6
     \\/     M anipulation  |
\*---------------------------------------------------------------------------*/
FoamFile
{
    version     2.0;
    format      ascii;
    class       surfaceScalarField;
    location    "3400";
    object      phi;
}
// * * * * * * * * * * * * * * * * * * * * * * * * * * * * * * * * * * * * * //

dimensions      [0 3 -1 0 0 0 0];

internalField   nonuniform List<scalar> 
9440
(
2.68036e-10
-2.68036e-10
4.5897e-10
-1.90938e-10
5.44058e-10
-8.50904e-11
5.18874e-10
2.51826e-11
4.46858e-10
7.20144e-11
3.3414e-10
1.12716e-10
2.08445e-10
1.25695e-10
1.61235e-10
4.72088e-11
2.32457e-11
1.37989e-10
-2.82689e-10
3.05935e-10
-7.80592e-10
4.97903e-10
-1.28851e-09
5.07917e-10
-1.75005e-09
4.61537e-10
-2.3088e-09
5.58755e-10
-2.76375e-09
4.54952e-10
-2.92823e-09
1.64477e-10
-3.1587e-09
2.30475e-10
-3.26e-09
1.01295e-10
-3.33491e-09
7.49065e-11
-3.37052e-09
3.56151e-11
-3.36918e-09
-1.34713e-12
-3.35198e-09
-1.71949e-11
-3.30709e-09
-4.48921e-11
-3.18574e-09
-1.21357e-10
-3.09436e-09
-9.13782e-11
-3.02613e-09
-6.8233e-11
-2.83791e-09
-1.8822e-10
-2.6218e-09
-2.16115e-10
-2.32814e-09
-2.9366e-10
-2.24835e-09
-7.97904e-11
-2.1154e-09
-1.32952e-10
-1.89489e-09
-2.20507e-10
-1.86211e-09
-3.27806e-11
-1.84156e-09
-2.05449e-11
-1.8247e-09
-1.68586e-11
-1.8662e-09
4.15073e-11
-1.88445e-09
1.82506e-11
-1.85122e-09
-3.32248e-11
-1.81102e-09
-4.0204e-11
-1.74432e-09
-6.66987e-11
-1.65855e-09
-8.57653e-11
-1.52051e-09
-1.38043e-10
-1.44723e-09
-7.3277e-11
-1.39035e-09
-5.68722e-11
-1.35008e-09
-4.02708e-11
-1.3014e-09
-4.86757e-11
-1.26161e-09
-3.97938e-11
-1.23729e-09
-2.43148e-11
-1.18692e-09
-5.03659e-11
-1.13051e-09
-5.64073e-11
-8.42296e-10
-2.88217e-10
-7.2873e-10
-1.13564e-10
-4.66257e-10
-2.62472e-10
-2.47824e-10
-2.18432e-10
9.5875e-11
-3.43699e-10
3.16015e-10
-2.2014e-10
5.95883e-10
-2.79869e-10
8.50513e-10
-2.54631e-10
8.58901e-10
-8.38956e-12
1.15009e-09
-2.91194e-10
1.15445e-09
-4.35329e-12
1.15635e-09
-1.90446e-12
1.24857e-09
-9.22193e-11
1.18718e-09
6.13859e-11
1.33498e-09
-1.47794e-10
1.26053e-09
7.44426e-11
1.24108e-09
1.94554e-11
1.3075e-09
-6.64209e-11
1.39334e-09
-8.58447e-11
1.47212e-09
-7.87709e-11
1.45613e-09
1.59819e-11
1.43184e-09
2.4297e-11
1.29682e-09
1.3502e-10
9.3962e-10
3.57198e-10
3.50449e-10
5.89172e-10
-4.11972e-10
7.62423e-10
-8.69551e-10
4.5758e-10
-1.18313e-09
3.13576e-10
-1.4837e-09
3.00575e-10
-1.13057e-09
-3.53132e-10
-3.89048e-10
-7.41516e-10
-2.49032e-14
-3.89005e-10
-1.14921e-18
1.69643e-22
-5.37234e-19
-6.11972e-19
-6.55756e-20
-4.65997e-19
2.63092e-19
-3.29348e-19
4.91554e-19
-2.30144e-19
6.56568e-19
-1.66171e-19
7.84144e-19
-1.28578e-19
8.90564e-19
-1.0793e-19
9.85016e-19
-9.68405e-20
1.07196e-18
-9.0307e-20
1.15291e-18
-8.52428e-20
1.22772e-18
-7.98963e-20
1.29544e-18
-7.33898e-20
1.35492e-18
-6.54055e-20
1.40505e-18
-5.59715e-20
1.44495e-18
-4.53152e-20
1.47392e-18
-3.37757e-20
1.49145e-18
-2.17319e-20
1.49716e-18
-9.52804e-21
1.49089e-18
2.57212e-21
1.47271e-18
1.43812e-20
1.44298e-18
2.57618e-20
1.40226e-18
3.66173e-20
1.35124e-18
4.69006e-20
1.29079e-18
5.66047e-20
1.22185e-18
6.57322e-20
1.14542e-18
7.42625e-20
1.0624e-18
8.21448e-20
9.73539e-19
8.93142e-20
8.79469e-19
9.57148e-20
7.80709e-19
1.01311e-19
6.77737e-19
1.06089e-19
5.71028e-19
1.10055e-19
4.6109e-19
1.13231e-19
3.48475e-19
1.1566e-19
2.3377e-19
1.17419e-19
1.17522e-19
1.18656e-19
1.19738e-19
2.3104e-10
-4.99079e-10
3.28002e-10
-2.87904e-10
4.11308e-10
-1.68399e-10
3.94737e-10
4.17509e-11
3.3346e-10
1.33289e-10
2.23166e-10
2.23008e-10
4.86452e-11
3.00215e-10
-2.23968e-10
3.19821e-10
-5.97111e-10
5.11133e-10
-9.93096e-10
7.01919e-10
-1.44001e-09
9.4482e-10
-1.90144e-09
9.69346e-10
-2.27403e-09
8.34123e-10
-2.4116e-09
6.96329e-10
-2.64792e-09
6.91269e-10
-2.9908e-09
5.0736e-10
-3.13734e-09
3.77015e-10
-3.275e-09
2.38953e-10
-3.36372e-09
1.63625e-10
-3.41822e-09
9.01127e-11
-3.44707e-09
2.75035e-11
-3.45955e-09
-4.72228e-12
-3.37243e-09
-1.32019e-10
-3.31833e-09
-1.7546e-10
-3.2683e-09
-1.41403e-10
-3.18612e-09
-1.50418e-10
-3.09877e-09
-2.75568e-10
-2.95831e-09
-3.56582e-10
-2.83532e-09
-4.16645e-10
-2.62747e-09
-2.87637e-10
-2.44793e-09
-3.12498e-10
-2.40026e-09
-2.68166e-10
-2.31133e-09
-1.21712e-10
-2.2142e-09
-1.17669e-10
-2.18932e-09
-4.17309e-11
-2.15359e-09
5.77614e-12
-2.09797e-09
-3.7359e-11
-2.05495e-09
-7.62423e-11
-2.02182e-09
-7.33315e-11
-1.99938e-09
-8.91407e-11
-1.99374e-09
-9.14012e-11
-1.91442e-09
-2.17362e-10
-1.88475e-09
-1.02945e-10
-1.87653e-09
-6.50895e-11
-1.81735e-09
-9.94421e-11
-1.74869e-09
-1.17339e-10
-1.66513e-09
-1.2335e-10
-1.58297e-09
-1.06466e-10
-1.52186e-09
-1.11476e-10
-1.36648e-09
-2.11782e-10
-1.01996e-09
-6.34736e-10
-8.80419e-10
-2.53102e-10
-6.03004e-10
-5.39887e-10
-2.96139e-10
-5.25297e-10
9.08881e-11
-7.30727e-10
2.99354e-10
-4.28607e-10
6.23761e-10
-6.04277e-10
8.13346e-10
-4.44218e-10
1.09965e-09
-2.947e-10
1.15011e-09
-3.41654e-10
1.18376e-09
-3.79998e-11
1.27952e-09
-9.76646e-11
1.35743e-09
-1.70133e-10
1.27099e-09
1.4783e-10
1.48099e-09
-3.57796e-10
1.54018e-09
1.52531e-11
1.47776e-09
8.18683e-11
1.53532e-09
-1.23978e-10
1.59987e-09
-1.50389e-10
1.59651e-09
-7.54114e-11
1.58736e-09
2.51316e-11
1.51368e-09
9.79723e-11
1.40547e-09
2.43229e-10
1.31941e-09
4.43259e-10
1.268e-09
6.40586e-10
1.27291e-09
7.57517e-10
9.76834e-10
7.53655e-10
7.07477e-10
5.82935e-10
2.67445e-10
7.40608e-10
-1.12806e-11
-7.44102e-11
-3.18824e-11
-7.20936e-10
2.24574e-17
-4.20958e-10
-1.16282e-18
-7.77406e-19
-3.93935e-19
-1.39281e-18
7.00038e-20
-9.33189e-19
3.62393e-19
-6.22608e-19
5.55526e-19
-4.24358e-19
6.94161e-19
-3.06717e-19
8.04792e-19
-2.42197e-19
9.01653e-19
-2.09099e-19
9.91549e-19
-1.92473e-19
1.07702e-18
-1.82868e-19
1.15826e-18
-1.74713e-19
1.23423e-18
-1.64964e-19
1.30343e-18
-1.52196e-19
1.36435e-18
-1.36033e-19
1.41571e-18
-1.1676e-19
1.45649e-18
-9.50268e-20
1.48597e-18
-7.16219e-20
1.50365e-18
-4.73107e-20
1.50926e-18
-2.27258e-20
1.5027e-18
1.66952e-21
1.48409e-18
2.55622e-20
1.45384e-18
4.87546e-20
1.41254e-18
7.11314e-20
1.36094e-18
9.26162e-20
1.29991e-18
1.1312e-19
1.23038e-18
1.32501e-19
1.1533e-18
1.50564e-19
1.06957e-18
1.671e-19
9.79939e-19
1.8193e-19
8.85065e-19
1.94944e-19
7.85488e-19
2.06107e-19
6.81703e-19
2.15453e-19
5.74204e-19
2.23071e-19
4.63519e-19
2.29088e-19
3.50234e-19
2.33659e-19
2.35007e-19
2.36949e-19
1.18605e-19
2.39111e-19
2.40224e-19
1.35112e-10
-6.34193e-10
1.74166e-10
-3.2696e-10
2.10372e-10
-2.04608e-10
1.94035e-10
5.80865e-11
7.88405e-11
2.48482e-10
-8.4378e-11
3.86226e-10
-2.28004e-10
4.4384e-10
-4.29904e-10
5.21722e-10
-7.88713e-10
8.69941e-10
-1.31416e-09
1.22737e-09
-1.73235e-09
1.36301e-09
-2.05575e-09
1.29275e-09
-2.28341e-09
1.06178e-09
-2.3832e-09
7.96121e-10
-2.62012e-09
9.28184e-10
-2.90431e-09
7.91544e-10
-3.03641e-09
5.09123e-10
-3.16385e-09
3.66384e-10
-3.26842e-09
2.68201e-10
-3.33936e-09
1.61052e-10
-3.43823e-09
1.26365e-10
-3.44763e-09
4.67343e-12
-3.41104e-09
-1.68605e-10
-3.48304e-09
-1.03465e-10
-3.45333e-09
-1.71112e-10
-3.38027e-09
-2.23482e-10
-3.33181e-09
-3.24028e-10
-3.25021e-09
-4.38182e-10
-3.21727e-09
-4.49585e-10
-3.03872e-09
-4.66185e-10
-2.97716e-09
-3.74055e-10
-2.87709e-09
-3.68237e-10
-2.76511e-09
-2.33682e-10
-2.69092e-09
-1.91861e-10
-2.66487e-09
-6.77728e-11
-2.69013e-09
3.10434e-11
-2.63999e-09
-8.74945e-11
-2.61853e-09
-9.77028e-11
-2.62071e-09
-7.11492e-11
-2.6281e-09
-8.17453e-11
-2.59888e-09
-1.20616e-10
-2.45148e-09
-3.6476e-10
-2.4375e-09
-1.16923e-10
-2.35125e-09
-1.51333e-10
-2.2297e-09
-2.20992e-10
-2.08788e-09
-2.59153e-10
-1.89068e-09
-3.20552e-10
-1.78121e-09
-2.15931e-10
-1.64966e-09
-2.43025e-10
-1.36674e-09
-4.94702e-10
-1.2236e-09
-7.77872e-10
-1.00109e-09
-4.75615e-10
-7.80482e-10
-7.6049e-10
-4.64944e-10
-8.40835e-10
-2.03834e-10
-9.91838e-10
1.18134e-10
-7.50577e-10
4.64123e-10
-9.50268e-10
6.27854e-10
-6.07951e-10
8.19951e-10
-4.86798e-10
8.84234e-10
-4.05939e-10
1.09019e-09
-2.43959e-10
1.20622e-09
-2.13698e-10
1.25011e-09
-2.14024e-10
1.38046e-09
1.7477e-11
1.33301e-09
-3.10338e-10
1.4755e-09
-1.27245e-10
1.528e-09
2.93723e-11
1.56499e-09
-1.60976e-10
1.57077e-09
-1.56169e-10
1.56997e-09
-7.46102e-11
1.56047e-09
3.46336e-11
1.52103e-09
1.37412e-10
1.52228e-09
2.41975e-10
1.56423e-09
4.01304e-10
1.64095e-09
5.63867e-10
1.56086e-09
8.37606e-10
1.36521e-09
9.49301e-10
1.17749e-09
7.7066e-10
9.96823e-10
9.21278e-10
8.67105e-10
5.53242e-11
4.5965e-10
-3.13448e-10
1.13579e-15
3.87077e-11
-4.55345e-19
-4.5851e-19
6.64286e-20
-1.91508e-18
3.81338e-19
-1.24971e-18
5.61231e-19
-8.03711e-19
6.73167e-19
-5.37408e-19
7.58681e-19
-3.93493e-19
8.3789e-19
-3.23074e-19
9.1828e-19
-2.91852e-19
1.00115e-18
-2.78604e-19
1.08518e-18
-2.71131e-19
1.16801e-18
-2.6282e-19
1.24699e-18
-2.5035e-19
1.31959e-18
-2.32348e-19
1.38362e-18
-2.08659e-19
1.43744e-18
-1.79896e-19
1.4799e-18
-1.4709e-19
1.51028e-18
-1.1145e-19
1.52824e-18
-7.41669e-20
1.53366e-18
-3.6263e-20
1.52659e-18
1.48041e-21
1.50728e-18
3.85083e-20
1.47622e-18
7.4432e-20
1.43402e-18
1.08972e-19
1.38145e-18
1.4192e-19
1.31929e-18
1.73095e-19
1.24845e-18
2.02299e-19
1.16984e-18
2.29305e-19
1.0844e-18
2.53878e-19
9.92954e-19
2.75824e-19
8.96228e-19
2.95026e-19
7.94834e-19
3.11469e-19
6.8932e-19
3.2523e-19
5.80221e-19
3.36461e-19
4.6809e-19
3.45362e-19
3.53524e-19
3.52162e-19
2.37168e-19
3.57083e-19
1.19718e-19
3.60317e-19
3.61975e-19
9.13975e-12
-6.43335e-10
6.64904e-11
-3.84312e-10
4.94531e-11
-1.87572e-10
-4.49402e-11
1.52479e-10
-1.80853e-10
3.84394e-10
-3.66537e-10
5.7191e-10
-7.00309e-10
7.77611e-10
-9.92487e-10
8.139e-10
-1.05424e-09
9.31689e-10
-1.42279e-09
1.59592e-09
-1.73829e-09
1.67851e-09
-2.1231e-09
1.67756e-09
-2.44638e-09
1.38506e-09
-2.72799e-09
1.07773e-09
-2.77119e-09
9.71388e-10
-2.76989e-09
7.90236e-10
-2.96386e-09
7.03095e-10
-3.06956e-09
4.72086e-10
-3.15324e-09
3.51871e-10
-3.22053e-09
2.28346e-10
-3.33492e-09
2.40753e-10
-3.35782e-09
2.75725e-11
-3.41472e-09
-1.11712e-10
-3.48882e-09
-2.9359e-11
-3.51503e-09
-1.4491e-10
-3.50314e-09
-2.3537e-10
-3.44689e-09
-3.80276e-10
-3.45839e-09
-4.26685e-10
-3.43876e-09
-4.69211e-10
-3.36647e-09
-5.38471e-10
-3.28874e-09
-4.51785e-10
-3.22611e-09
-4.30869e-10
-3.16599e-09
-2.93801e-10
-3.12084e-09
-2.37003e-10
-3.0774e-09
-1.11205e-10
-3.0016e-09
-4.47542e-11
-2.96791e-09
-1.21179e-10
-2.92923e-09
-1.36382e-10
-2.92418e-09
-7.61916e-11
-2.88212e-09
-1.23805e-10
-2.76106e-09
-2.41673e-10
-2.68093e-09
-4.44878e-10
-2.62512e-09
-1.72737e-10
-2.56026e-09
-2.16187e-10
-2.42549e-09
-3.55758e-10
-2.24121e-09
-4.43427e-10
-2.06855e-09
-4.93214e-10
-1.86586e-09
-4.18614e-10
-1.62374e-09
-4.8515e-10
-1.43458e-09
-6.83859e-10
-1.46506e-09
-7.47388e-10
-1.16952e-09
-7.71155e-10
-9.99052e-10
-9.30958e-10
-7.71029e-10
-1.06886e-09
-6.63815e-10
-1.09905e-09
-3.47465e-10
-1.06693e-09
-1.1155e-10
-1.18618e-09
1.64997e-10
-8.845e-10
4.27806e-10
-7.49609e-10
5.45394e-10
-5.23529e-10
6.93388e-10
-3.91956e-10
7.99946e-10
-3.20257e-10
8.58321e-10
-2.72401e-10
1.0696e-09
-1.93802e-10
9.99434e-10
-2.40178e-10
1.04682e-09
-1.74633e-10
1.19239e-09
-1.16197e-10
1.24649e-09
-2.15079e-10
1.22787e-09
-1.37561e-10
1.23107e-09
-7.78125e-11
1.24366e-09
2.20469e-11
1.3102e-09
7.08628e-11
1.39587e-09
1.56305e-10
1.50005e-09
2.9712e-10
1.52284e-09
5.41073e-10
1.5702e-09
7.90243e-10
1.54756e-09
9.71935e-10
1.42281e-09
8.95413e-10
1.36819e-09
9.75889e-10
9.72446e-10
4.51055e-10
5.2733e-10
1.31669e-10
6.21163e-16
5.66039e-10
4.39052e-19
9.17067e-19
7.32458e-19
-2.20784e-18
8.2803e-19
-1.34664e-18
8.28036e-19
-8.05564e-19
8.17082e-19
-5.28037e-19
8.291e-19
-4.06731e-19
8.69112e-19
-3.64239e-19
9.31528e-19
-3.55716e-19
1.00863e-18
-3.57724e-19
1.09349e-18
-3.58752e-19
1.18048e-18
-3.53494e-19
1.265e-18
-3.39793e-19
1.34328e-18
-3.17117e-19
1.41239e-18
-2.85923e-19
1.47025e-18
-2.47323e-19
1.51554e-18
-2.02808e-19
1.54756e-18
-1.54038e-19
1.56614e-18
-1.02675e-19
1.5714e-18
-5.02189e-20
1.56362e-18
2.09869e-21
1.54321e-18
5.33465e-20
1.51076e-18
1.02846e-19
1.46697e-18
1.50113e-19
1.41262e-18
1.94806e-19
1.3485e-18
2.36681e-19
1.27545e-18
2.75542e-19
1.19441e-18
3.11199e-19
1.10634e-18
3.43464e-19
1.01216e-18
3.72188e-19
9.12672e-19
3.97293e-19
8.08595e-19
4.18805e-19
7.00551e-19
4.36846e-19
5.89122e-19
4.51621e-19
4.7489e-19
4.63391e-19
3.58446e-19
4.72436e-19
2.40402e-19
4.79024e-19
1.21377e-19
4.83373e-19
4.85618e-19
-4.34582e-12
-6.3899e-10
-2.23278e-11
-3.66331e-10
-1.29723e-10
-8.01773e-11
-2.08064e-10
2.30819e-10
-2.85249e-10
4.6158e-10
-3.52499e-10
6.39159e-10
-5.9398e-10
1.01909e-09
-1.2891e-09
1.50902e-09
-1.87012e-09
1.5127e-09
-1.85979e-09
1.5856e-09
-1.96959e-09
1.7883e-09
-2.0266e-09
1.73457e-09
-2.2123e-09
1.57076e-09
-2.43526e-09
1.30069e-09
-2.57404e-09
1.11017e-09
-2.74372e-09
9.59917e-10
-2.84799e-09
8.07358e-10
-2.87546e-09
4.99557e-10
-3.00239e-09
4.78799e-10
-3.11548e-09
3.41436e-10
-3.22506e-09
3.50335e-10
-3.29637e-09
9.88839e-11
-3.42741e-09
1.93285e-11
-3.43675e-09
-2.0027e-11
-3.43854e-09
-1.43121e-10
-3.42512e-09
-2.48783e-10
-3.47299e-09
-3.32415e-10
-3.51552e-09
-3.84146e-10
-3.51296e-09
-4.71771e-10
-3.53878e-09
-5.12657e-10
-3.45625e-09
-5.34304e-10
-3.3935e-09
-4.93623e-10
-3.32138e-09
-3.65921e-10
-3.30212e-09
-2.56255e-10
-3.22639e-09
-1.86932e-10
-3.09026e-09
-1.80882e-10
-3.08947e-09
-1.21965e-10
-3.03502e-09
-1.90828e-10
-2.99065e-09
-1.20554e-10
-2.9382e-09
-1.76244e-10
-2.89278e-09
-2.8709e-10
-2.87883e-09
-4.58824e-10
-2.74049e-09
-3.11075e-10
-2.59193e-09
-3.64741e-10
-2.4196e-09
-5.2808e-10
-2.21378e-09
-6.49251e-10
-2.01237e-09
-6.94613e-10
-1.82718e-09
-6.03804e-10
-1.60309e-09
-7.09243e-10
-1.47483e-09
-8.12118e-10
-1.34067e-09
-8.81547e-10
-1.18148e-09
-9.30341e-10
-1.08649e-09
-1.02595e-09
-9.75139e-10
-1.18021e-09
-8.65464e-10
-1.20873e-09
-6.6323e-10
-1.26916e-09
-5.43683e-10
-1.30573e-09
-3.20777e-10
-1.10741e-09
-1.47159e-10
-9.23228e-10
1.21299e-10
-7.91989e-10
3.65238e-10
-6.35897e-10
4.98858e-10
-4.53879e-10
5.62283e-10
-3.35829e-10
6.58884e-10
-2.90406e-10
7.0989e-10
-2.91187e-10
8.06241e-10
-2.70988e-10
8.81328e-10
-1.91289e-10
8.80442e-10
-2.14197e-10
9.03515e-10
-1.60639e-10
9.33581e-10
-1.07883e-10
9.94694e-10
-3.90709e-11
1.06489e-09
6.65979e-13
1.14057e-09
8.06179e-11
1.23016e-09
2.07522e-10
1.34035e-09
4.3088e-10
1.41661e-09
7.13982e-10
1.48848e-09
9.00065e-10
1.42126e-09
9.62634e-10
1.38998e-09
1.00717e-09
1.06385e-09
7.77182e-10
5.8262e-10
6.12894e-10
8.3023e-16
1.14866e-09
1.45214e-18
6.22286e-18
1.59423e-18
-2.3502e-18
1.36975e-18
-1.12472e-18
1.10597e-18
-5.45051e-19
9.38388e-19
-3.63133e-19
8.71592e-19
-3.42053e-19
8.77634e-19
-3.72117e-19
9.2952e-19
-4.09458e-19
1.0076e-18
-4.37887e-19
1.09875e-18
-4.52254e-19
1.19418e-18
-4.51656e-19
1.28767e-18
-4.36745e-19
1.37447e-18
-4.08696e-19
1.45099e-18
-3.68988e-19
1.51476e-18
-3.1942e-19
1.56431e-18
-2.62006e-19
1.59892e-18
-1.98886e-19
1.6186e-18
-1.32205e-19
1.62372e-18
-6.39736e-20
1.61487e-18
4.06966e-21
1.59271e-18
7.05403e-20
1.55802e-18
1.34413e-19
1.51167e-18
1.94967e-19
1.4545e-18
2.51734e-19
1.38736e-18
3.04429e-19
1.31111e-18
3.52889e-19
1.22668e-18
3.97006e-19
1.13507e-18
4.367e-19
1.03726e-18
4.71916e-19
9.34183e-19
5.0266e-19
8.26636e-19
5.29023e-19
7.15326e-19
5.51184e-19
6.00892e-19
5.694e-19
4.83935e-19
5.83979e-19
3.65034e-19
5.9524e-19
2.44751e-19
6.0348e-19
1.23622e-19
6.08934e-19
6.11744e-19
-4.2505e-11
-5.96485e-10
-1.02625e-10
-3.0621e-10
-2.47757e-10
6.49549e-11
-3.6805e-10
3.51112e-10
-5.84521e-10
6.78051e-10
-7.71183e-10
8.25821e-10
-9.41335e-10
1.18924e-09
-1.02336e-09
1.59104e-09
-1.66257e-09
2.15191e-09
-1.98402e-09
1.90705e-09
-2.06258e-09
1.86686e-09
-2.14247e-09
1.81446e-09
-2.1662e-09
1.59449e-09
-2.30532e-09
1.43981e-09
-2.4104e-09
1.21525e-09
-2.53376e-09
1.08327e-09
-2.69038e-09
9.63979e-10
-2.71844e-09
5.27611e-10
-2.82011e-09
5.80475e-10
-2.9891e-09
5.10419e-10
-3.0562e-09
4.17443e-10
-3.11591e-09
1.58592e-10
-3.22063e-09
1.24048e-10
-3.25326e-09
1.25959e-11
-3.26641e-09
-1.29968e-10
-3.37212e-09
-1.43073e-10
-3.46103e-09
-2.43503e-10
-3.48096e-09
-3.64213e-10
-3.47285e-09
-4.7988e-10
-3.52088e-09
-4.64634e-10
-3.54083e-09
-5.14353e-10
-3.48732e-09
-5.47129e-10
-3.38742e-09
-4.65818e-10
-3.32801e-09
-3.15663e-10
-3.25124e-09
-2.63698e-10
-3.20013e-09
-2.31993e-10
-3.15267e-09
-1.69417e-10
-3.05634e-09
-2.87146e-10
-2.96528e-09
-2.11612e-10
-2.8574e-09
-2.84118e-10
-2.76438e-09
-3.80102e-10
-2.73244e-09
-4.90759e-10
-2.61926e-09
-4.24255e-10
-2.45495e-09
-5.2905e-10
-2.29778e-09
-6.85245e-10
-2.14759e-09
-7.99437e-10
-1.9018e-09
-9.40397e-10
-1.69475e-09
-8.10853e-10
-1.46476e-09
-9.39229e-10
-1.37349e-09
-9.03392e-10
-1.25994e-09
-9.95099e-10
-1.15443e-09
-1.03585e-09
-1.11733e-09
-1.06305e-09
-1.06181e-09
-1.23573e-09
-9.80444e-10
-1.2901e-09
-8.97655e-10
-1.35195e-09
-8.53472e-10
-1.34992e-09
-7.36877e-10
-1.224e-09
-5.82394e-10
-1.07771e-09
-3.23684e-10
-1.0507e-09
-4.16143e-11
-9.17968e-10
2.10308e-10
-7.05803e-10
3.6878e-10
-4.94304e-10
4.45165e-10
-3.66794e-10
4.91992e-10
-3.38018e-10
5.34032e-10
-3.13034e-10
6.187e-10
-2.75962e-10
6.41338e-10
-2.36842e-10
6.6403e-10
-1.83337e-10
6.9662e-10
-1.40479e-10
7.67755e-10
-1.10211e-10
8.22353e-10
-5.39374e-11
8.98228e-10
4.73686e-12
9.4559e-10
1.60155e-10
1.09234e-09
2.84123e-10
1.20919e-09
5.97134e-10
1.3029e-09
8.0635e-10
1.27745e-09
9.88079e-10
1.17973e-09
1.10488e-09
9.25194e-10
1.03172e-09
6.64201e-10
8.73884e-10
4.29353e-15
1.81285e-09
2.36553e-18
3.05238e-15
2.82016e-18
-2.80639e-18
1.95001e-18
-2.5932e-19
1.2882e-18
1.12279e-19
9.59468e-19
-3.86197e-20
8.41527e-19
-2.28017e-19
8.40294e-19
-3.74626e-19
9.01091e-19
-4.73968e-19
9.93232e-19
-5.3375e-19
1.09935e-18
-5.61829e-19
1.20909e-18
-5.64362e-19
1.31572e-18
-5.45956e-19
1.41418e-18
-5.10052e-19
1.50055e-18
-4.59443e-19
1.57218e-18
-3.96745e-19
1.62742e-18
-3.24545e-19
1.6656e-18
-2.4545e-19
1.68683e-18
-1.62047e-19
1.69176e-18
-7.68041e-20
1.68134e-18
8.05724e-21
1.65658e-18
9.06924e-20
1.61858e-18
1.697e-19
1.56843e-18
2.4411e-19
1.50719e-18
3.1332e-19
1.43582e-18
3.77021e-19
1.35523e-18
4.35104e-19
1.26637e-18
4.87576e-19
1.17028e-18
5.34495e-19
1.06801e-18
5.75951e-19
9.60546e-19
6.12071e-19
8.48797e-19
6.4304e-19
7.33543e-19
6.69113e-19
6.15471e-19
6.90604e-19
4.95196e-19
7.07864e-19
3.73274e-19
7.21244e-19
2.50204e-19
7.3106e-19
1.26432e-19
7.37558e-19
7.40885e-19
-4.89927e-12
-5.91586e-10
-1.3442e-10
-1.76689e-10
-3.3468e-10
2.65216e-10
-6.0477e-10
6.21202e-10
-1.04611e-09
1.11939e-09
-1.62155e-09
1.40126e-09
-2.01195e-09
1.57965e-09
-1.99668e-09
1.57578e-09
-1.77373e-09
1.92896e-09
-1.88605e-09
2.01938e-09
-1.99572e-09
1.97652e-09
-2.04969e-09
1.86843e-09
-2.12654e-09
1.67134e-09
-2.19851e-09
1.51178e-09
-2.27018e-09
1.28692e-09
-2.30247e-09
1.11556e-09
-2.32873e-09
9.90244e-10
-2.49696e-09
6.95839e-10
-2.53659e-09
6.20101e-10
-2.5681e-09
5.41929e-10
-2.61437e-09
4.63719e-10
-2.80665e-09
3.50868e-10
-2.9478e-09
2.65196e-10
-2.99334e-09
5.81382e-11
-3.08264e-09
-4.06693e-11
-3.21917e-09
-6.53579e-12
-3.25399e-09
-2.08687e-10
-3.25134e-09
-3.66862e-10
-3.35541e-09
-3.75813e-10
-3.44866e-09
-3.71385e-10
-3.43229e-09
-5.3072e-10
-3.40329e-09
-5.7613e-10
-3.4104e-09
-4.5871e-10
-3.33049e-09
-3.95575e-10
-3.25265e-09
-3.41531e-10
-3.19672e-09
-2.87923e-10
-3.06574e-09
-3.00388e-10
-2.96671e-09
-3.86172e-10
-2.86994e-09
-3.08377e-10
-2.77101e-09
-3.83043e-10
-2.69233e-09
-4.58777e-10
-2.67829e-09
-5.04794e-10
-2.54329e-09
-5.59252e-10
-2.37186e-09
-7.00475e-10
-2.20991e-09
-8.47196e-10
-2.1135e-09
-8.95845e-10
-1.82919e-09
-1.2247e-09
-1.6841e-09
-9.55943e-10
-1.42202e-09
-1.20131e-09
-1.27722e-09
-1.0482e-09
-1.12136e-09
-1.15096e-09
-1.04516e-09
-1.11204e-09
-1.08502e-09
-1.02319e-09
-1.08866e-09
-1.23209e-09
-1.06677e-09
-1.31199e-09
-1.03141e-09
-1.38731e-09
-9.7757e-10
-1.40376e-09
-8.48896e-10
-1.35268e-09
-6.83781e-10
-1.24283e-09
-5.73091e-10
-1.16139e-09
-4.78592e-10
-1.01247e-09
-2.78054e-10
-9.06343e-10
-1.57917e-11
-7.56569e-10
1.76684e-10
-5.59273e-10
2.66538e-10
-4.27877e-10
3.17358e-10
-3.63858e-10
3.63619e-10
-3.22229e-10
4.06244e-10
-2.79473e-10
4.49149e-10
-2.26248e-10
4.96814e-10
-1.8815e-10
5.60164e-10
-1.73566e-10
6.24851e-10
-1.1863e-10
6.71396e-10
-4.18118e-11
7.88903e-10
4.2644e-11
8.30584e-10
2.42439e-10
9.93131e-10
4.34584e-10
1.0354e-09
7.64075e-10
1.0711e-09
9.52384e-10
9.50937e-10
1.22504e-09
8.18373e-10
1.16428e-09
6.74745e-10
1.01751e-09
4.90578e-11
2.43854e-09
2.30794e-17
4.90594e-11
6.23642e-18
1.32162e-17
2.32221e-18
3.65197e-18
1.13753e-18
1.29149e-18
7.70071e-19
3.23021e-19
6.94918e-19
-1.58853e-19
7.40952e-19
-4.26876e-19
8.41308e-19
-5.80758e-19
9.65154e-19
-6.64214e-19
1.09681e-18
-6.99662e-19
1.2275e-18
-6.99991e-19
1.35162e-18
-6.73353e-19
1.46479e-18
-6.2529e-19
1.56325e-18
-5.59914e-19
1.64438e-18
-4.80717e-19
1.70652e-18
-3.90902e-19
1.74901e-18
-2.9354e-19
1.77207e-18
-1.916e-19
1.77662e-18
-8.79114e-20
1.76397e-18
1.49251e-20
1.73559e-18
1.14674e-19
1.69299e-18
2.09582e-19
1.63764e-18
2.98425e-19
1.57089e-18
3.80472e-19
1.4939e-18
4.55396e-19
1.4077e-18
5.23163e-19
1.31329e-18
5.83914e-19
1.21174e-18
6.37876e-19
1.10413e-18
6.85315e-19
9.91515e-19
7.26513e-19
8.7487e-19
7.61787e-19
7.55034e-19
7.91488e-19
6.32731e-19
8.16001e-19
5.08576e-19
8.35724e-19
3.8309e-19
8.51042e-19
2.56701e-19
8.62288e-19
1.2976e-19
8.69719e-19
8.7349e-19
-1.11672e-10
-4.79913e-10
-1.21083e-10
-1.67277e-10
-2.7881e-10
4.22944e-10
-6.02066e-10
9.44459e-10
-6.9506e-10
1.21238e-09
-7.40288e-10
1.44649e-09
-1.14006e-09
1.97942e-09
-1.60287e-09
2.03859e-09
-1.73863e-09
2.06472e-09
-1.81582e-09
2.09657e-09
-1.9575e-09
2.11819e-09
-2.02302e-09
1.93396e-09
-2.06496e-09
1.71328e-09
-2.11299e-09
1.55981e-09
-2.1118e-09
1.28573e-09
-2.11147e-09
1.11523e-09
-2.09725e-09
9.76027e-10
-2.20804e-09
8.0663e-10
-2.2914e-09
7.03457e-10
-2.35596e-09
6.06489e-10
-2.38464e-09
4.92399e-10
-2.53089e-09
4.97116e-10
-2.67297e-09
4.07278e-10
-2.73702e-09
1.22187e-10
-2.80008e-09
2.23953e-11
-2.91846e-09
1.11843e-10
-3.00218e-09
-1.2497e-10
-3.03406e-09
-3.34985e-10
-3.17162e-09
-2.38254e-10
-3.2126e-09
-3.304e-10
-3.20766e-09
-5.35663e-10
-3.26435e-09
-5.19446e-10
-3.29387e-09
-4.29192e-10
-3.24673e-09
-4.42708e-10
-3.17214e-09
-4.16121e-10
-3.05974e-09
-4.00319e-10
-2.94375e-09
-4.16379e-10
-2.88486e-09
-4.45056e-10
-2.78171e-09
-4.11522e-10
-2.70589e-09
-4.58864e-10
-2.65149e-09
-5.13167e-10
-2.61209e-09
-5.44198e-10
-2.54638e-09
-6.24956e-10
-2.29035e-09
-9.56498e-10
-2.14465e-09
-9.9289e-10
-1.99259e-09
-1.0479e-09
-1.77191e-09
-1.44538e-09
-1.6124e-09
-1.11545e-09
-1.4018e-09
-1.4119e-09
-1.21773e-09
-1.23226e-09
-1.07047e-09
-1.29823e-09
-1.01917e-09
-1.16334e-09
-1.02291e-09
-1.01945e-09
-1.08391e-09
-1.17109e-09
-1.09338e-09
-1.30251e-09
-1.07257e-09
-1.40812e-09
-1.03076e-09
-1.44557e-09
-9.39762e-10
-1.44367e-09
-8.38059e-10
-1.34453e-09
-7.36379e-10
-1.26307e-09
-5.83594e-10
-1.16525e-09
-4.65321e-10
-1.02462e-09
-3.27329e-10
-8.94562e-10
-1.48894e-10
-7.37711e-10
1.38901e-11
-5.90664e-10
1.15282e-10
-4.65254e-10
1.58466e-10
-3.65417e-10
1.84675e-10
-3.05685e-10
2.3333e-10
-2.74907e-10
2.96446e-10
-2.5127e-10
3.49756e-10
-2.26879e-10
4.16602e-10
-1.85478e-10
4.76207e-10
-1.0142e-10
5.80726e-10
-6.18771e-11
6.48257e-10
1.74906e-10
6.56734e-10
4.26106e-10
6.22288e-10
7.98521e-10
6.53482e-10
9.21188e-10
6.66859e-10
1.21166e-09
5.97613e-10
1.23353e-09
2.45311e-10
1.36981e-09
1.62433e-10
2.52141e-09
1.32486e-15
2.11489e-10
-1.05344e-18
4.12211e-18
-3.73982e-20
2.63241e-18
1.69249e-19
1.07931e-18
2.88197e-19
1.97851e-19
4.26895e-19
-3.0445e-19
5.8707e-19
-5.947e-19
7.57852e-19
-7.59914e-19
9.29706e-19
-8.45396e-19
1.09648e-18
-8.75919e-19
1.25413e-18
-8.65936e-19
1.39969e-18
-8.24751e-19
1.53017e-18
-7.58994e-19
1.64245e-18
-6.73813e-19
1.73419e-18
-5.73587e-19
1.80388e-18
-4.62244e-19
1.85095e-18
-3.43396e-19
1.87576e-18
-2.20402e-19
1.87946e-18
-9.63764e-20
1.86372e-18
2.58356e-20
1.8305e-18
1.43744e-19
1.78183e-18
2.55341e-19
1.71969e-18
3.59193e-19
1.64582e-18
4.54458e-19
1.56167e-18
5.40803e-19
1.46845e-18
6.18285e-19
1.36725e-18
6.87202e-19
1.25918e-18
7.47978e-19
1.14532e-18
8.01081e-19
1.02679e-18
8.46986e-19
9.04571e-19
8.86169e-19
7.79547e-19
9.19109e-19
6.52454e-19
9.46281e-19
5.23894e-19
9.68147e-19
3.94336e-19
9.85131e-19
2.64132e-19
9.9759e-19
1.3353e-19
1.0058e-18
1.00992e-18
-7.11949e-11
-4.08717e-10
-1.81802e-10
-5.66679e-11
-2.24788e-10
4.65931e-10
-3.19173e-10
1.03885e-09
-6.80266e-10
1.57348e-09
-9.37969e-10
1.70419e-09
-1.14505e-09
2.1865e-09
-1.38456e-09
2.2781e-09
-1.59828e-09
2.27844e-09
-1.71636e-09
2.21465e-09
-1.82062e-09
2.22245e-09
-1.85597e-09
1.96931e-09
-1.88602e-09
1.74333e-09
-1.87496e-09
1.54875e-09
-1.89979e-09
1.31057e-09
-1.91717e-09
1.13261e-09
-1.94607e-09
1.00492e-09
-1.9979e-09
8.58454e-10
-2.08681e-09
7.92368e-10
-2.13189e-09
6.51573e-10
-2.22049e-09
5.80993e-10
-2.31475e-09
5.91377e-10
-2.36063e-09
4.5316e-10
-2.45299e-09
2.14546e-10
-2.56666e-09
1.36067e-10
-2.64417e-09
1.89346e-10
-2.72117e-09
-4.79704e-11
-2.78279e-09
-2.73367e-10
-2.78558e-09
-2.35463e-10
-2.81902e-09
-2.9696e-10
-2.87607e-09
-4.78615e-10
-2.94039e-09
-4.55129e-10
-2.93294e-09
-4.36649e-10
-2.90056e-09
-4.75088e-10
-2.83834e-09
-4.78345e-10
-2.77517e-09
-4.63484e-10
-2.70777e-09
-4.83777e-10
-2.67892e-09
-4.73908e-10
-2.63216e-09
-4.58281e-10
-2.59006e-09
-5.00963e-10
-2.56323e-09
-5.39993e-10
-2.47496e-09
-6.32457e-10
-2.24808e-09
-8.5183e-10
-2.13465e-09
-1.06993e-09
-2.03589e-09
-1.09164e-09
-1.83403e-09
-1.24976e-09
-1.83242e-09
-1.44699e-09
-1.59255e-09
-1.35531e-09
-1.48084e-09
-1.52361e-09
-1.23558e-09
-1.47752e-09
-1.06479e-09
-1.46901e-09
-1.00005e-09
-1.22808e-09
-9.46636e-10
-1.07286e-09
-9.81429e-10
-1.1363e-09
-1.04539e-09
-1.23855e-09
-1.07875e-09
-1.37475e-09
-1.07122e-09
-1.4531e-09
-1.04713e-09
-1.46776e-09
-9.81091e-10
-1.41056e-09
-8.95291e-10
-1.34887e-09
-7.84758e-10
-1.27579e-09
-6.38912e-10
-1.17046e-09
-4.84466e-10
-1.04901e-09
-3.27217e-10
-8.94961e-10
-2.33995e-10
-6.83888e-10
-1.72918e-10
-5.26333e-10
-1.01754e-10
-4.36583e-10
-4.12788e-11
-3.66162e-10
8.38426e-12
-3.24571e-10
6.6193e-11
-3.0908e-10
1.14455e-10
-2.75141e-10
1.65496e-10
-2.36519e-10
2.44005e-10
-1.79929e-10
2.91176e-10
-1.09049e-10
3.38366e-10
1.27717e-10
2.98623e-10
4.65849e-10
4.1071e-10
6.86434e-10
3.82194e-10
9.49703e-10
3.48389e-10
1.24547e-09
2.23153e-10
1.35876e-09
2.5267e-10
1.34029e-09
3.49401e-10
2.42467e-09
3.52817e-16
5.60885e-10
-3.52749e-18
-9.41593e-19
-1.58963e-18
6.91008e-19
-7.12027e-19
1.97414e-19
-2.14104e-19
-3.04799e-19
1.36645e-19
-6.60602e-19
4.21856e-19
-8.86257e-19
6.7237e-19
-1.01789e-18
8.99183e-19
-1.0818e-18
1.10647e-18
-1.09441e-18
1.29532e-18
-1.06601e-18
1.46544e-18
-1.00408e-18
1.61535e-18
-9.14945e-19
1.74267e-18
-8.04409e-19
1.84554e-18
-6.77807e-19
1.92273e-18
-5.40024e-19
1.97394e-18
-3.95452e-19
1.99979e-18
-2.47985e-19
2.00167e-18
-1.01045e-19
1.98163e-18
4.23698e-20
1.94209e-18
1.79678e-19
1.88568e-18
3.08782e-19
1.81495e-18
4.28165e-19
1.73216e-18
5.36935e-19
1.63915e-18
6.34794e-19
1.53737e-18
7.21911e-19
1.42803e-18
7.98767e-19
1.31228e-18
8.66007e-19
1.19123e-18
9.24335e-19
1.06597e-18
9.74449e-19
9.37511e-19
1.01702e-18
8.06719e-19
1.05268e-18
6.74321e-19
1.08203e-18
5.40877e-19
1.10561e-18
4.06796e-19
1.1239e-18
2.72339e-19
1.13729e-18
1.37652e-19
1.14607e-18
1.15043e-18
-1.06735e-10
-3.01982e-10
-3.85294e-10
2.21894e-10
-6.941e-10
7.74739e-10
-7.48323e-10
1.09307e-09
-8.56008e-10
1.68117e-09
-1.19842e-09
2.04661e-09
-1.37304e-09
2.36112e-09
-1.52891e-09
2.43398e-09
-1.64396e-09
2.39349e-09
-1.68093e-09
2.25163e-09
-1.7127e-09
2.25422e-09
-1.76408e-09
2.02069e-09
-1.81144e-09
1.79068e-09
-1.80138e-09
1.53869e-09
-1.82943e-09
1.33862e-09
-1.83365e-09
1.13683e-09
-1.84695e-09
1.01823e-09
-1.86926e-09
8.8076e-10
-1.91232e-09
8.35429e-10
-2.00501e-09
7.44262e-10
-2.07835e-09
6.54328e-10
-2.13376e-09
6.46783e-10
-2.2043e-09
5.23704e-10
-2.27405e-09
2.84293e-10
-2.35628e-09
2.18298e-10
-2.35602e-09
1.89082e-10
-2.40103e-09
-2.954e-12
-2.46126e-09
-2.13143e-10
-2.49701e-09
-1.99714e-10
-2.55945e-09
-2.34517e-10
-2.54374e-09
-4.94333e-10
-2.55162e-09
-4.47252e-10
-2.5699e-09
-4.18372e-10
-2.52763e-09
-5.17355e-10
-2.49137e-09
-5.14605e-10
-2.50223e-09
-4.52624e-10
-2.42762e-09
-5.58393e-10
-2.34936e-09
-5.52169e-10
-2.32471e-09
-4.82931e-10
-2.28386e-09
-5.4181e-10
-2.22566e-09
-5.98188e-10
-2.1154e-09
-7.42719e-10
-1.92329e-09
-1.04393e-09
-1.87452e-09
-1.1187e-09
-1.7211e-09
-1.24506e-09
-1.58239e-09
-1.38846e-09
-1.62748e-09
-1.4019e-09
-1.45908e-09
-1.5237e-09
-1.41515e-09
-1.56754e-09
-1.25494e-09
-1.63773e-09
-1.15442e-09
-1.56953e-09
-1.02112e-09
-1.36138e-09
-8.44677e-10
-1.24929e-09
-8.32612e-10
-1.14836e-09
-8.94114e-10
-1.17704e-09
-9.73029e-10
-1.29583e-09
-1.02143e-09
-1.40469e-09
-1.0413e-09
-1.44788e-09
-1.00303e-09
-1.44884e-09
-9.67134e-10
-1.38476e-09
-9.01328e-10
-1.34159e-09
-8.03721e-10
-1.26807e-09
-6.98922e-10
-1.15381e-09
-5.86896e-10
-1.00699e-09
-4.45337e-10
-8.25447e-10
-3.2675e-10
-6.44919e-10
-2.59799e-10
-5.03534e-10
-2.12978e-10
-4.12982e-10
-1.71721e-10
-3.65827e-10
-1.35781e-10
-3.45018e-10
-1.08965e-10
-3.01956e-10
-7.42174e-11
-2.71265e-10
-3.541e-11
-2.18735e-10
-2.37853e-11
-1.20672e-10
2.02648e-11
8.36674e-11
5.96136e-11
4.265e-10
1.52712e-10
5.93335e-10
2.32611e-10
8.69802e-10
1.62321e-10
1.31576e-09
1.78268e-10
1.34281e-09
2.28825e-10
1.28973e-09
3.30481e-10
2.32301e-09
-2.42581e-16
8.91365e-10
-3.09752e-18
-3.74564e-19
-2.08245e-18
-3.26238e-19
-1.21406e-18
-6.72749e-19
-5.69907e-19
-9.50445e-19
-8.90097e-20
-1.14309e-18
2.90227e-19
-1.2675e-18
6.08457e-19
-1.33903e-18
8.86574e-19
-1.3659e-18
1.13486e-18
-1.35198e-18
1.35725e-18
-1.29973e-18
1.55458e-18
-1.21247e-18
1.72588e-18
-1.09509e-18
1.86928e-18
-9.53785e-19
1.98332e-18
-7.95104e-19
2.0673e-18
-6.25276e-19
2.12141e-18
-4.49869e-19
2.14673e-18
-2.7361e-19
2.14509e-18
-1.00399e-19
2.11894e-18
6.65973e-20
2.0712e-18
2.24831e-19
2.00507e-18