/*--------------------------------*- C++ -*----------------------------------*\
  =========                 |
  \\      /  F ield         | OpenFOAM: The Open Source CFD Toolbox
   \\    /   O peration     | Website:  https://openfoam.org
    \\  /    A nd           | Version:  6
     \\/     M anipulation  |
\*---------------------------------------------------------------------------*/
FoamFile
{
    version     2.0;
    format      ascii;
    class       volScalarField;
    location    "3400";
    object      Su;
}
// * * * * * * * * * * * * * * * * * * * * * * * * * * * * * * * * * * * * * //

dimensions      [0 0 -1 0 0 0 0];

internalField   nonuniform List<scalar> 
4800
(
0.218956
0.215674
0.212358
0.209
0.205606
0.202192
0.198782
0.195402
0.192077
0.188831
0.185698
0.182728
0.179964
0.177432
0.175139
0.173084
0.171246
0.169599
0.168115
0.166767
0.165531
0.164383
0.163305
0.162278
0.161288
0.16032
0.159365
0.158412
0.157449
0.156466
0.155454
0.15441
0.153324
0.152195
0.151021
0.149802
0.14854
0.147237
0.145894
0.14451
0.143085
0.141617
0.140103
0.138538
0.136923
0.135255
0.133534
0.131758
0.129928
0.128047
0.126118
0.124134
0.122091
0.119989
0.117823
0.115585
0.113265
0.110857
0.10835
0.105743
0.103032
0.100214
0.0972949
0.094276
0.0911608
0.0879467
0.0846258
0.0812046
0.0776791
0.0740332
0.0702454
0.066295
0.06216
0.0578146
0.0532456
0.0484713
0.0435563
0.0385789
0.0336086
0.0287438
0.0240489
0.019513
0.0151238
0.0109216
0.00691774
0.00309363
-0.000583476
-0.00414701
-0.0076256
-0.0110416
-0.0144115
-0.0177472
-0.0210574
-0.0243481
-0.027624
-0.0308884
-0.0341441
-0.037393
-0.0406369
-0.0438771
-0.0471147
-0.0503505
-0.0535853
-0.0568197
-0.0600542
-0.063289
-0.0665245
-0.0697608
-0.0729981
-0.0762365
-0.0794761
-0.0827167
-0.0859584
-0.0892011
-0.0924447
-0.0956892
-0.0989343
-0.10218
-0.105426
-0.108672
0.218942
0.215632
0.212292
0.208919
0.205514
0.202092
0.198673
0.195283
0.19195
0.188708
0.185597
0.18266
0.179936
0.17745
0.175197
0.173168
0.171346
0.169712
0.168236
0.166894
0.165662
0.164517
0.163442
0.162418
0.161428
0.160462
0.159507
0.158552
0.157588
0.156604
0.155593
0.154547
0.153462
0.152335
0.151165
0.149951
0.148696
0.1474
0.146062
0.144682
0.143261
0.141798
0.140287
0.138726
0.137117
0.135457
0.133742
0.131971
0.130144
0.128263
0.12633
0.124332
0.122274
0.120153
0.117965
0.1157
0.113354
0.11092
0.10839
0.10576
0.103026
0.100191
0.0972577
0.0942238
0.091095
0.0878729
0.0845445
0.081112
0.0775748
0.0739186
0.0701274
0.0661847
0.0620745
0.0577837
0.0533061
0.0486477
0.0438285
0.0388936
0.0339076
0.0289543
0.0241109
0.0194315
0.0149596
0.0107382
0.00675038
0.002956
-0.000690325
-0.00422752
-0.00768557
-0.0110863
-0.0144451
-0.0177728
-0.0210771
-0.0243635
-0.0276363
-0.0308983
-0.0341522
-0.0373997
-0.0406425
-0.0438818
-0.0471187
-0.050354
-0.0535883
-0.0568223
-0.0600564
-0.0632909
-0.0665262
-0.0697623
-0.0729994
-0.0762376
-0.079477
-0.0827175
-0.0859591
-0.0892017
-0.0924452
-0.0956895
-0.0989346
-0.10218
-0.105426
-0.108672
0.218917
0.215559
0.21218
0.208776
0.205348
0.201909
0.198483
0.195097
0.19178
0.188565
0.185496
0.182617
0.179957
0.177529
0.175328
0.173339
0.17155
0.169939
0.168481
0.167151
0.165927
0.164789
0.16372
0.162698
0.161712
0.160749
0.159798
0.158845
0.157881
0.156897
0.155887
0.154843
0.153761
0.152639
0.151475
0.150269
0.149025
0.14774
0.146413
0.145046
0.143638
0.14219
0.140691
0.139144
0.137551
0.135906
0.134205
0.132441
0.130616
0.128732
0.126781
0.124753
0.122659
0.120494
0.118253
0.115932
0.113531
0.11104
0.108456
0.105776
0.103001
0.100132
0.0971641
0.0941006
0.0909388
0.0876845
0.0843353
0.0808818
0.0773219
0.0736488
0.0698538
0.0659253
0.0618534
0.0576284
0.0532386
0.0486732
0.0439341
0.0390487
0.0340641
0.0290381
0.0240364
0.0191665
0.0145695
0.0103382
0.00640372
0.00268114
-0.000898427
-0.00438189
-0.0077996
-0.011171
-0.0145087
-0.0178213
-0.0211147
-0.0243931
-0.0276598
-0.0309174
-0.0341678
-0.0374127
-0.0406534
-0.043891
-0.0471266
-0.0503607
-0.0535942
-0.0568274
-0.0600609
-0.0632948
-0.0665296
-0.0697652
-0.073002
-0.0762399
-0.0794789
-0.0827191
-0.0859605
-0.0892028
-0.0924461
-0.0956903
-0.0989351
-0.102181
-0.105426
-0.108672
0.218887
0.215474
0.212047
0.208602
0.205146
0.201691
0.198257
0.194874
0.191586
0.18843
0.185434
0.18263
0.18004
0.177675
0.175533
0.173601
0.171855
0.170276
0.168842
0.16753
0.166319
0.165194
0.164133
0.163119
0.162142
0.161187
0.160243
0.159297
0.158338
0.157361
0.156355
0.155318
0.154243
0.153131
0.151979
0.15079
0.149564
0.148299
0.146992
0.145648
0.144265
0.14284
0.141361
0.139838
0.138267
0.136642
0.134954
0.133196
0.131371
0.129472
0.127488
0.125416
0.123268
0.121034
0.118712
0.116304
0.113816
0.111238
0.108575
0.105823
0.102981
0.10005
0.0970241
0.0939082
0.090696
0.0873907
0.0839984
0.0805087
0.0769161
0.0732189
0.0694149
0.0654976
0.0614583
0.057285
0.0529612
0.0484718
0.0438063
0.0389654
0.0339716
0.0288489
0.0236671
0.0185877
0.0138408
0.00966096
0.00586191
0.00227638
-0.00119293
-0.00459535
-0.00795559
-0.0112866
-0.0145959
-0.0178881
-0.0211667
-0.0244342
-0.0276928
-0.0309442
-0.0341898
-0.037431
-0.0406688
-0.0439041
-0.0471378
-0.0503704
-0.0536026
-0.0568347
-0.0600673
-0.0633004
-0.0665345
-0.0697695
-0.0730057
-0.0762431
-0.0794817
-0.0827215
-0.0859625
-0.0892045
-0.0924475
-0.0956914
-0.098936
-0.102181
-0.105427
-0.108673
0.218858
0.21539
0.211911
0.208425
0.204943
0.20148
0.198055
0.194686
0.19142
0.18832
0.185413
0.182705
0.180207
0.17792
0.175842
0.173961
0.172259
0.170718
0.169312
0.168022
0.166829
0.16572
0.164673
0.163673
0.162711
0.16177
0.160839
0.159905
0.15896
0.157995
0.157003
0.155981
0.154922
0.153827
0.152696
0.151532
0.150331
0.149094
0.147818
0.146506
0.145155
0.14376
0.142313
0.140822
0.139282
0.137681
0.136007
0.134253
0.13242
0.130497
0.128474
0.126351
0.12413
0.12181
0.11939
0.116876
0.114271
0.111577
0.108803
0.105951
0.103021
0.100007
0.0969023
0.0937092
0.090427
0.087058
0.0836039
0.0800579
0.0764193
0.0726892
0.0688662
0.0649443
0.0609151
0.0567676
0.0524873
0.0480531
0.0434412
0.0386306
0.0336146
0.0283886
0.022998
0.0176073
0.0125724
0.00862417
0.00512549
0.00177073
-0.00154269
-0.00484277
-0.00813521
-0.0114202
-0.0146974
-0.0179667
-0.0212285
-0.0244836
-0.0277326
-0.0309767
-0.0342167
-0.0374534
-0.0406877
-0.0439202
-0.0471516
-0.0503824
-0.0536131
-0.0568439
-0.0600753
-0.0633075
-0.0665407
-0.0697749
-0.0730105
-0.0762472
-0.0794853
-0.0827246
-0.085965
-0.0892067
-0.0924493
-0.0956928
-0.098937
-0.102182
-0.105427
-0.108673
0.218833
0.215315
0.211789
0.208263
0.204749
0.201269
0.197854
0.194538
0.191342
0.18831
0.185479
0.182859
0.180449
0.178243
0.176235
0.174412
0.172757
0.171256
0.169881
0.168616
0.167446
0.166357
0.165329
0.16435
0.163406
0.162483
0.161571
0.160658
0.159735
0.158792
0.157824
0.156826
0.155793
0.154725
0.153624
0.152492
0.151326
0.150127
0.14889
0.14762
0.146311
0.144957
0.143551
0.142101
0.140594
0.139018
0.13736
0.135608
0.133764
0.131811
0.129744
0.127559
0.125257
0.122843
0.120315
0.117682
0.114947
0.112118
0.10921
0.10623
0.103179
0.100054
0.0968507
0.0935635
0.0901914
0.0867373
0.0832041
0.0795895
0.0758926
0.0721152
0.0682568
0.0643119
0.0602723
0.0561281
0.0518652
0.0474616
0.0428818
0.0380891
0.0330485
0.0277203
0.0220776
0.0161387
0.0102356
0.00715537
0.00426374
0.00124
-0.001893
-0.00508845
-0.00831556
-0.011557
-0.0148034
-0.0180503
-0.0212952
-0.0245373
-0.0277764
-0.0310127
-0.0342465
-0.0374785
-0.0407089
-0.0439384
-0.0471673
-0.0503961
-0.053625
-0.0568544
-0.0600846
-0.0633157
-0.0665479
-0.0697813
-0.073016
-0.0762521
-0.0794895
-0.0827282
-0.0859681
-0.0892092
-0.0924514
-0.0956945
-0.0989383
-0.102183
-0.105428
-0.108673
0.218814
0.215256
0.211693
0.208134
0.204594
0.201099
0.197691
0.19442
0.191314
0.188381
0.185639
0.183102
0.180773
0.178643
0.176704
0.174941
0.173338
0.171876
0.170534
0.1693
0.168157
0.16709
0.166084
0.165129
0.164209
0.16331
0.162426
0.161544
0.16065
0.159737
0.158804
0.157841
0.156842
0.155812
0.154752
0.153661
0.152541
0.151389
0.150199
0.148977
0.147717
0.146411
0.145056
0.143653
0.142185
0.140636
0.138999
0.137245
0.135389
0.133405
0.131294
0.129044
0.126657
0.124145
0.121507
0.11875
0.115881
0.112912
0.109857
0.106724
0.103517
0.100244
0.0969086
0.0935052
0.0900266
0.0864717
0.082844
0.0791451
0.0753762
0.0715379
0.0676288
0.0636445
0.0595772
0.0554187
0.0511523
0.0467552
0.0421927
0.0374202
0.0323878
0.0270183
0.0211646
0.0143783
0.00253017
0.00550052
0.00354818
0.000833497
-0.00216827
-0.00529289
-0.0084744
-0.0116831
-0.0149048
-0.0181322
-0.0213618
-0.0245917
-0.0278211
-0.0310496
-0.0342774
-0.0375044
-0.040731
-0.0439574
-0.0471838
-0.0504105
-0.0536378
-0.0568657
-0.0600946
-0.0633246
-0.0665558
-0.0697883
-0.0730222
-0.0762575
-0.0794942
-0.0827323
-0.0859716
-0.0892121
-0.0924538
-0.0956964
-0.0989397
-0.102184
-0.105428
-0.108673
0.218796
0.215209
0.21163
0.208063
0.204536
0.201079
0.197716
0.194479
0.191417
0.18855
0.185885
0.183426
0.181172
0.179114
0.177241
0.175535
0.17398
0.172559
0.171252
0.170047
0.168932
0.167891
0.166914
0.165989
0.165099
0.164231
0.163382
0.162537
0.16168
0.16081
0.159922
0.159004
0.158051
0.157071
0.156062
0.155025
0.153958
0.15286
0.151725
0.150558
0.149353
0.148105
0.146811
0.145464
0.144039
0.142522
0.140906
0.139153
0.137287
0.135272
0.133115
0.130799
0.12833
0.125724
0.122979
0.1201
0.117095
0.113977
0.110761
0.107459
0.104083
0.100643
0.097143
0.0935876
0.0899745
0.0862996
0.0825617
0.0787632
0.0749066
0.0709923
0.0670173
0.0629776
0.0588671
0.054677
0.0503928
0.0459881
0.0414349
0.0366984
0.0317388
0.0264948
0.0208955
0.0148828
0.00857999
0.0062242
0.00360391
0.000726381
-0.00230978
-0.00543169
-0.00859902
-0.0117907
-0.0149956
-0.0182079
-0.0214245
-0.0246435
-0.0278639
-0.0310852
-0.0343072
-0.0375297
-0.0407526
-0.0439761
-0.0472002
-0.050425
-0.0536506
-0.0568772
-0.0601049
-0.0633339
-0.0665641
-0.0697957
-0.0730288
-0.0762633
-0.0794993
-0.0827366
-0.0859754
-0.0892153
-0.0924564
-0.0956984
-0.0989413
-0.102185
-0.105429
-0.108673
0.218784
0.215174
0.211582
0.208024
0.204514
0.201083
0.197765
0.194594
0.191598
0.1888
0.186208
0.183823
0.181641
0.179649
0.177835
0.17618
0.174669
0.173285
0.172013
0.170841
0.169755
0.168744
0.167799
0.166909
0.166054
0.165224
0.164417
0.163617
0.162807
0.161988
0.161154
0.16029
0.159397
0.158479
0.157532
0.156557
0.155553
0.154517
0.153445
0.152342
0.151203
0.150025
0.148803
0.147517
0.146137
0.144657
0.14306
0.141314
0.139439
0.137399
0.135199
0.132822
0.13028
0.127588
0.124741
0.121742
0.1186
0.115327
0.11194
0.108458
0.104896
0.101268
0.0975855
0.0938544
0.0900774
0.0862548
0.0823876
0.0784753
0.0745174
0.0705121
0.0664562
0.0623456
0.0581761
0.0539391
0.0496237
0.0452102
0.0406794
0.0360043
0.0311559
0.0261178
0.0209171
0.0156663
0.0107786
0.00715939
0.00393353
0.000788473
-0.00235726
-0.00551816
-0.00869332
-0.0118795
-0.015074
-0.0182749
-0.0214806
-0.02469
-0.0279025
-0.0311174
-0.0343342
-0.0375525
-0.0407723
-0.0439932
-0.0472153
-0.0504385
-0.0536628
-0.0568882
-0.0601149
-0.0633429
-0.0665723
-0.0698032
-0.0730355
-0.0762692
-0.0795045
-0.0827412
-0.0859793
-0.0892186
-0.0924591
-0.0957007
-0.098943
-0.102186
-0.10543
-0.108673
0.218774
0.215143
0.211533
0.207976
0.204496
0.201109
0.197848
0.194748
0.191829
0.189108
0.18659
0.184277
0.182159
0.180228
0.178466
0.176858
0.175388
0.174041
0.172804
0.171664
0.170611
0.169633
0.168723
0.16787
0.167056
0.166271
0.165511
0.164761
0.164006
0.163244
0.162472
0.161673
0.160849
0.160002
0.159128
0.158225
0.157295
0.156332
0.155334
0.154306
0.153244
0.152147
0.151003
0.14978
0.148456
0.147018
0.145442
0.143715
0.141833
0.139777
0.137538
0.135109
0.132507
0.129737
0.126795
0.123682
0.120406
0.116978
0.113417
0.109745
0.105982
0.102146
0.0982539
0.0943212
0.0903587
0.0863717
0.082359
0.0783177
0.0742439
0.0701343
0.065984
0.0617888
0.0575454
0.0532489
0.0488942
0.0444705
0.0399617
0.0353544
0.0306336
0.025808
0.0209351
0.0161351
0.0116417
0.00772446
0.00419161
0.000856284
-0.0023855
-0.00558639
-0.00877231
-0.0119556
-0.0151416
-0.0183324
-0.0215285
-0.0247295
-0.027935
-0.0311442
-0.0343565
-0.0375715
-0.0407887
-0.0440076
-0.0472282
-0.0504502
-0.0536735
-0.0568982
-0.0601241
-0.0633514
-0.0665802
-0.0698103
-0.073042
-0.0762751
-0.0795097
-0.0827458
-0.0859833
-0.089222
-0.0924619
-0.0957029
-0.0989448
-0.102187
-0.10543
-0.108674
0.218769
0.215136
0.211532
0.207985
0.204529
0.201193
0.197999
0.194972
0.192128
0.189477
0.187026
0.184777
0.18272
0.180844
0.17913
0.177564
0.17613
0.174819
0.173616
0.17251
0.171491
0.170549
0.169677
0.168864
0.168094
0.167358
0.166648
0.165953
0.165257
0.164559
0.163856
0.163128
0.162379
0.161612
0.16082
0.159999
0.159155
0.158277
0.157362
0.156419
0.155442
0.154431
0.153368
0.152216
0.150956
0.149566
0.148022
0.146322
0.144446
0.142382
0.140118
0.137653
0.134999
0.132157
0.12913
0.125913
0.122508
0.118928
0.115193
0.111326
0.107351
0.10329
0.0991687
0.0950119
0.0908392
0.0866636
0.082487
0.0783038
0.0741058
0.069884
0.0656311
0.0613421
0.057015
0.0526503
0.0482473
0.0438007
0.0393
0.034742
0.0301317
0.0254801
0.0208296
0.0162676
0.0119152
0.00791051
0.00425112
0.000828306
-0.00245595
-0.00566941
-0.00885229
-0.012026
-0.0152006
-0.0183806
-0.0215672
-0.0247604
-0.0279597
-0.0311641
-0.0343729
-0.0375853
-0.0408006
-0.0440183
-0.047238
-0.0504593
-0.0536822
-0.0569064
-0.060132
-0.0633589
-0.0665872
-0.0698169
-0.073048
-0.0762806
-0.0795147
-0.0827502
-0.0859871
-0.0892253
-0.0924647
-0.0957052
-0.0989465
-0.102189
-0.105431
-0.108674
0.218766
0.215136
0.211559
0.208052
0.204638
0.201351
0.198216
0.195253
0.192474
0.189889
0.187504
0.185312
0.183309
0.181479
0.179807
0.178279
0.176884
0.175608
0.174441
0.17337
0.172388
0.171485
0.170653
0.169883
0.169159
0.168474
0.167817
0.167179
0.166547
0.165917
0.165286
0.164635
0.163967
0.163286
0.162583
0.161853
0.161102
0.160318
0.159493
0.158642
0.157756
0.156834
0.155856
0.154785
0.153596
0.152262
0.150767
0.1491
0.147238
0.145173
0.142897
0.140409
0.137715
0.134817
0.131716
0.128404
0.124879
0.121153
0.117248
0.11319
0.109001
0.104709
0.100349
0.0959564
0.0915584
0.0871752
0.0828132
0.0784697
0.0741357
0.0697966
0.0654369
0.0610493
0.0566346
0.0521949
0.0477352
0.0432581
0.0387557
0.0342254
0.0296749
0.0251153
0.0205743
0.0161114
0.011792
0.00774435
0.00406307
0.000651347
-0.00260505
-0.00578773
-0.00894333
-0.0120949
-0.0152523
-0.0184191
-0.0215957
-0.0247815
-0.0279753
-0.0311759
-0.0343821
-0.0375928
-0.0408071
-0.0440243
-0.0472438
-0.0504652
-0.0536881
-0.0569125
-0.0601381
-0.0633649
-0.0665931
-0.0698226
-0.0730534
-0.0762857
-0.0795194
-0.0827544
-0.0859908
-0.0892285
-0.0924674
-0.0957074
-0.0989482
-0.10219
-0.105432
-0.108674
0.218777
0.215161
0.211601
0.208134
0.204778
0.201551
0.198478
0.195577
0.192858
0.19033
0.187999
0.185863
0.183912
0.182127
0.180496
0.179008
0.17765
0.176411
0.175281
0.174248
0.173305
0.172442
0.171652
0.170925
0.170249
0.169616
0.169014
0.168435
0.167869
0.167309
0.166752
0.166181
0.165599
0.165008
0.164399
0.163764
0.16311
0.162425
0.161698
0.160943
0.16015
0.159321
0.158432
0.157449
0.156337
0.155072
0.15363
0.151992
0.150146
0.148094
0.145825
0.143329
0.140608
0.137672
0.134514
0.131117
0.127481
0.123615
0.119543
0.115296
0.110898
0.106381
0.101786
0.0971601
0.0925369
0.0879399
0.0833805
0.0788611
0.0743723
0.0698983
0.0654216
0.0609318
0.0564264
0.0519081
0.0473857
0.0428625
0.0383342
0.0337996
0.0292611
0.0247225
0.0201886
0.0157068
0.0113279
0.00719499
0.00358408
0.000298979
-0.0028438
-0.00594407
-0.00904477
-0.0121607
-0.015295
-0.0184465
-0.0216129
-0.0247917
-0.027981
-0.0311787
-0.0343833
-0.0375933
-0.0408075
-0.0440251
-0.0472452
-0.0504673
-0.0536909
-0.0569158
-0.060142
-0.0633692
-0.0665976
-0.0698272
-0.073058
-0.07629
-0.0795235
-0.0827582
-0.0859942
-0.0892315
-0.0924699
-0.0957094
-0.0989498
-0.102191
-0.105433
-0.108674
0.218795
0.215221
0.2117
0.208268
0.204956
0.201787
0.198775
0.195935
0.193276
0.190808
0.188534
0.186446
0.184535
0.18279
0.181198
0.179748
0.17843
0.17723
0.176138
0.175145
0.174243
0.173423
0.172677
0.171996
0.17137
0.170789
0.170243
0.169724
0.169223
0.168734
0.168251
0.167763
0.167267
0.166765
0.166249
0.165713
0.165156
0.164572
0.163947
0.163289
0.162592
0.161855
0.161059
0.160166
0.159137
0.157941
0.156548
0.154944
0.153132
0.15111
0.148856
0.146356
0.143619
0.140661
0.137456
0.133987
0.130253
0.126256
0.122022
0.117592
0.112997
0.108274
0.103463
0.0986207
0.0937833
0.0889808
0.0842257
0.0795213
0.0748601
0.070229
0.0656148
0.061008
0.0564042
0.0518056
0.047215
0.0426343
0.0380628
0.0334961
0.028921
0.0243267
0.0197108
0.0151017
0.0105145
0.00609687
0.00274615
-0.000227395
-0.0031507
-0.00611832
-0.00914271
-0.0122149
-0.0153237
-0.0184598
-0.0216169
-0.02479
-0.027976
-0.031172
-0.034376
-0.0375863
-0.0408015
-0.0440202
-0.0472417
-0.0504652
-0.0536901
-0.0569163
-0.0601434
-0.0633715
-0.0666004
-0.0698304
-0.0730614
-0.0762935
-0.0795269
-0.0827614
-0.0859972
-0.0892342
-0.0924722
-0.0957113
-0.0989513
-0.102192
-0.105433
-0.108675
0.218826
0.21531
0.211841
0.208456
0.205189
0.202069
0.19911
0.196323
0.193716
0.191296
0.189067
0.187026
0.185165
0.183466
0.18192
0.180514
0.179237
0.17808
0.177032
0.176083
0.175225
0.17445
0.173749
0.173114
0.172537
0.172009
0.171517
0.171057
0.17062
0.170201
0.16979
0.169381
0.168969
0.168552
0.168126
0.167684
0.167221
0.166735
0.16621
0.165648
0.165046
0.164401
0.163697
0.162891
0.161941
0.160806
0.159463
0.157907
0.156138
0.154143
0.1519
0.149401
0.14666
0.14369
0.140455
0.136932
0.133104
0.128968
0.124573
0.119977
0.115219
0.110329
0.105341
0.100314
0.0952865
0.0902948
0.0853539
0.0804669
0.0756256
0.0708213
0.0660519
0.0613128
0.0565991
0.0519093
0.0472399
0.0425896
0.0379538
0.0333222
0.0286779
0.0239995
0.0192739
0.0144674
0.00943141
0.00389927
0.00148731
-0.000847696
-0.00344911
-0.00626174
-0.00921
-0.0122433
-0.0153311
-0.0184557
-0.0216061
-0.0247757
-0.02796
-0.0311557
-0.0343604
-0.037572
-0.0407888
-0.0440096
-0.0472332
-0.0504587
-0.0536856
-0.0569135
-0.0601422
-0.0633715
-0.0666014
-0.0698321
-0.0730636
-0.0762961
-0.0795295
-0.082764
-0.0859997
-0.0892364
-0.0924742
-0.095713
-0.0989526
-0.102193
-0.105434
-0.108675
0.218853
0.215394
0.211984
0.20866
0.205455
0.202393
0.19949
0.196757
0.194203
0.191838
0.189662
0.187667
0.185847
0.18419
0.182689
0.18133
0.180101
0.178991
0.177991
0.17709
0.176279
0.17555
0.174896
0.174309
0.17378
0.173303
0.172864
0.17246
0.172082
0.171727
0.171383
0.171046
0.170711
0.170372
0.170026
0.169669
0.169294
0.168896
0.168462
0.167992
0.16748
0.166923
0.166303
0.165572
0.164685
0.163607
0.162319
0.160814
0.159082
0.157107
0.154875
0.152378
0.14962
0.146625
0.143353
0.139763
0.135834
0.131581
0.127058
0.122339
0.117465
0.112459
0.107344
0.102181
0.0970063
0.0918556
0.0867508
0.0816948
0.076683
0.0717107
0.0667805
0.0618936
0.0570505
0.0522475
0.0474794
0.0427417
0.0380273
0.0333232
0.0286098
0.0238681
0.0190821
0.0141617
0.00865565
-0.000958031
0.000109385
-0.00125266
-0.00357966
-0.00630107
-0.00921352
-0.0122306
-0.0153105
-0.018431
-0.0215796
-0.0247487
-0.0279334
-0.0311302
-0.0343367
-0.0375505
-0.0407699
-0.0439934
-0.0472197
-0.050448
-0.0536774
-0.0569076
-0.0601382
-0.0633692
-0.0666005
-0.0698323
-0.0730645
-0.0762975
-0.0795313
-0.0827659
-0.0860016
-0.0892383
-0.0924759
-0.0957144
-0.0989538
-0.102194
-0.105434
-0.108675
0.21889
0.215503
0.21216
0.208899
0.205757
0.20276
0.19992
0.197247
0.194747
0.192432
0.190306
0.188365
0.1866
0.184998
0.18355
0.182244
0.181069
0.180015
0.179068
0.178216
0.177454
0.176774
0.176169
0.175628
0.175145
0.174712
0.174322
0.173968
0.173643
0.173342
0.173055
0.172777
0.172504
0.17223
0.171952
0.171665
0.171363
0.17104
0.170684
0.170294
0.169863
0.169381
0.168824
0.168147
0.167312
0.166288
0.16505
0.163584
0.161875
0.159908
0.157672
0.155148
0.152345
0.149288
0.145946
0.142259
0.138225
0.133877
0.129274
0.124502
0.119591
0.114549
0.109384
0.104151
0.0988848
0.0936224
0.0883872
0.0831857
0.0780243
0.0729005
0.0678205
0.062789
0.0578099
0.0528796
0.0479941
0.0431554
0.0383608
0.033599
0.0288502
0.024107
0.0193581
0.0145311
0.00945699
0.00403802
0.00161809
-0.000740943
-0.00336007
-0.00618203
-0.00913446
-0.0121697
-0.0152589
-0.018385
-0.0215374
-0.0247095
-0.0278969
-0.0310965
-0.0343057
-0.0375226
-0.0407453
-0.0439721
-0.0472018
-0.0504332
-0.0536657
-0.0568986
-0.0601316
-0.0633647
-0.0665977
-0.0698308
-0.0730641
-0.0762978
-0.0795321
-0.0827671
-0.0860029
-0.0892396
-0.0924772
-0.0957155
-0.0989547
-0.102194
-0.105435
-0.108675
0.218933
0.215635
0.212387
0.20922
0.206162
0.203235
0.200458
0.197847
0.195411
0.19316
0.191094
0.18921
0.187502
0.18596
0.184574
0.18333
0.182218
0.181224
0.180331
0.179532
0.178821
0.17819
0.177628
0.177127
0.176684
0.176289
0.175939
0.175625
0.17534
0.175077
0.17483
0.174593
0.174364
0.174136
0.173906
0.173669
0.173419
0.173151
0.172855
0.172526
0.172155
0.171723
0.171206
0.170569
0.169775
0.16879
0.167584
0.166137
0.164432
0.162453
0.160182
0.157599
0.154715
0.151552
0.148095
0.144283
0.140135
0.13571
0.131083
0.126344
0.121484
0.116481
0.11134
0.106107
0.100813
0.0954925
0.0901756
0.0848785
0.0796064
0.0743591
0.0691518
0.0639926
0.0588891
0.0538424
0.0488531
0.0439302
0.0390718
0.0342738
0.0295133
0.0247868
0.0201021
0.0154435
0.0108281
0.00647353
0.00303091
-1.4099e-05
-0.00297637
-0.00596066
-0.00899142
-0.0120669
-0.0151789
-0.0183189
-0.0214805
-0.0246592
-0.0278517
-0.0310556
-0.0342687
-0.0374894
-0.0407158
-0.0439464
-0.0471798
-0.0504148
-0.0536507
-0.0568867
-0.0601225
-0.0633579
-0.0665929
-0.0698277
-0.0730623
-0.076297
-0.079532
-0.0827675
-0.0860036
-0.0892404
-0.092478
-0.0957164
-0.0989554
-0.102195
-0.105435
-0.108675
0.219003
0.215841
0.212722
0.209675
0.206722
0.203887
0.201191
0.198652
0.196285
0.194103
0.192108
0.190298
0.188661
0.187192
0.185878
0.184703
0.18366
0.182729
0.181893
0.181145
0.180476
0.17988
0.179349
0.178877
0.178458
0.178087
0.177758
0.177463
0.177197
0.176952
0.176723
0.176505
0.176295
0.176087
0.175879
0.175666
0.175443
0.175205
0.174942
0.174647
0.174306
0.1739
0.173405
0.172788
0.172011
0.171039
0.169838
0.168384
0.166658
0.164636
0.162298
0.15962
0.156614
0.1533
0.149682
0.145718
0.141448
0.136961
0.132368
0.127723
0.122974
0.118074
0.113021
0.107851
0.102604
0.0973036
0.0919767
0.0866427
0.0813126
0.0759902
0.0706909
0.0654279
0.060219
0.0550762
0.0500103
0.0450339
0.0401419
0.0353285
0.0305654
0.0258617
0.0212208
0.0166303
0.0121345
0.0078652
0.00401405
0.000595068
-0.0025993
-0.00571253
-0.00881557
-0.0119346
-0.015075
-0.0182347
-0.0214103
-0.0245991
-0.0277991
-0.0310088
-0.0342269
-0.0374519
-0.0406825
-0.0439171
-0.0471545
-0.0503934
-0.0536329
-0.0568722
-0.0601111
-0.0633491
-0.0665864
-0.069823
-0.0730592
-0.0762951
-0.079531
-0.0827671
-0.0860037
-0.0892408
-0.0924785
-0.0957169
-0.0989558
-0.102195
-0.105435
-0.108675
0.219112
0.21616
0.213232
0.210353
0.207546
0.204838
0.202253
0.199813
0.197533
0.195434
0.193521
0.191796
0.190246
0.188862
0.187629
0.186532
0.18556
0.184689
0.183898
0.183181
0.182531
0.181946
0.181419
0.180946
0.180523
0.180145
0.179806
0.179501
0.179224
0.178968
0.178728
0.1785
0.178278
0.17806
0.177843
0.177625
0.177399
0.177161
0.176901
0.176609
0.176271
0.175866
0.175369
0.174745
0.173961
0.172978
0.171759
0.170273
0.168492
0.166392
0.163949
0.161139
0.15797
0.154465
0.150645
0.146507
0.142122
0.137608
0.13308
0.128553
0.123954
0.119208
0.114299
0.109248
0.104095
0.098871
0.0935998
0.0882903
0.0829529
0.0775993
0.0722501
0.0669251
0.0616484
0.0564434
0.0513281
0.0463153
0.0414118
0.0365957
0.0318288
0.0271235
0.0224587
0.0178055
0.0131845
0.0086818
0.00453187
0.000947909
-0.00232606
-0.00548688
-0.00862772
-0.0117801
-0.0149494
-0.0181329
-0.0213271
-0.0245299
-0.0277401
-0.0309574
-0.0341814
-0.0374114
-0.0406464
-0.0438853
-0.0471267
-0.0503696
-0.0536128
-0.0568557
-0.0600977
-0.0633386
-0.0665784
-0.0698171
-0.0730549
-0.0762921
-0.0795291
-0.082766
-0.0860031
-0.0892406
-0.0924785
-0.095717
-0.098956
-0.102195
-0.105435
-0.108675
0.219281
0.216653
0.214021
0.211401
0.208814
0.206294
0.203866
0.201559
0.199394
0.197399
0.19559
0.193966
0.192515
0.191226
0.190077
0.189055
0.188145
0.187312
0.186532
0.185805
0.18513
0.184506
0.183931
0.183406
0.182927
0.182491
0.182095
0.181733
0.181401
0.181092
0.180802
0.180524
0.180256
0.179994
0.179738
0.179483
0.179225
0.178958
0.178672
0.178355
0.177993
0.177565
0.177043
0.176393
0.17558
0.174562
0.173298
0.171755
0.169896
0.167691
0.165113
0.162139
0.158775
0.155048
0.151014
0.146726
0.142256
0.137721
0.133233
0.128804
0.124339
0.119753
0.11502
0.110145
0.105145
0.100038
0.0948429
0.0895858
0.0842869
0.078957
0.0736125
0.0682766
0.06298
0.0577515
0.0526144
0.0475893
0.0426764
0.0378392
0.0330555
0.028304
0.0235328
0.018701
0.0138097
0.00893553
0.00441507
0.000935438
-0.00219959
-0.00529472
-0.00842754
-0.0116004
-0.0147992
-0.0180116
-0.0212299
-0.0244512
-0.027675
-0.0309022
-0.0341334
-0.037369
-0.0406087
-0.0438519
-0.0470974
-0.0503442
-0.0535912
-0.0568376
-0.0600829
-0.0633267
-0.066569
-0.0698099
-0.0730495
-0.0762883
-0.0795264
-0.0827642
-0.0860019
-0.0892399
-0.0924782
-0.0957169
-0.098956
-0.102196
-0.105435
-0.108675
0.219546
0.217431
0.215265
0.213052
0.210809
0.20857
0.206369
0.204244
0.202229
0.200366
0.198678
0.197171
0.195833
0.194643
0.193569
0.192605
0.191727
0.19088
0.19005
0.189243
0.188462
0.187713
0.187004
0.186339
0.18572
0.185145
0.184614
0.184123
0.183669
0.183247
0.182852
0.182478
0.182123
0.181783
0.181455
0.181135
0.180817
0.180495
0.180159
0.179796
0.179391
0.178922
0.17836
0.177669
0.17681
0.175738
0.174409
0.172783
0.170823
0.168494
0.165762
0.162609
0.159042
0.155097
0.150856
0.146436
0.141901
0.137329
0.132819
0.128413
0.124033
0.119593
0.115035
0.110338
0.1055
0.100532
0.0954533
0.0902812
0.0850412
0.0797627
0.0744693
0.0691814
0.0639209
0.0587121
0.0535793
0.0485486
0.0436365
0.0388178
0.034039
0.0292349
0.0243493
0.0193302
0.0141084
0.00859734
0.00308552
0.000448207
-0.00218994
-0.00509794
-0.0081911
-0.0113824
-0.0146175
-0.0178669
-0.0211168
-0.0243624
-0.027604
-0.0308436
-0.0340836
-0.0373256
-0.0405704
-0.0438179
-0.0470674
-0.0503179
-0.0535686
-0.0568185
-0.060067
-0.0633138
-0.0665587
-0.0698018
-0.0730433
-0.0762836
-0.079523
-0.0827617
-0.0860002
-0.0892387
-0.0924774
-0.0957164
-0.0989557
-0.102195
-0.105435
-0.108675
0.219962
0.218653
0.217218
0.215637
0.213919
0.212104
0.210233
0.208366
0.206551
0.20485
0.203303
0.201926
0.200701
0.199597
0.198575
0.197634
0.196725
0.195782
0.194803
0.193804
0.192795
0.191791
0.190812
0.189873
0.188983
0.188144
0.187358
0.186628
0.185953
0.185331
0.184757
0.184227
0.183735
0.183276
0.182844
0.182431
0.182031
0.181633
0.181228
0.180803
0.180342
0.179822
0.179211
0.17847
0.177556
0.176423
0.175023
0.173308
0.171236
0.16877
0.165882
0.162555
0.158791
0.154645
0.150225
0.145701
0.141111
0.136471
0.13187
0.12741
0.123065
0.118735
0.114339
0.109813
0.105124
0.100277
0.0952883
0.0901804
0.0849904
0.079761
0.0745237
0.0693016
0.0641109
0.0589663
0.0538822
0.0488842
0.0440066
0.0392379
0.0344976
0.0297023
0.024793
0.0197078
0.0142388
0.00781911
-0.00125065
-0.000314695
-0.00207569
-0.00479625
-0.00788109
-0.0111133
-0.0143997
-0.0176972
-0.020987
-0.0242633
-0.0275272
-0.0307823
-0.0340328
-0.0372822
-0.0405324
-0.0437842
-0.0470375
-0.0502916
-0.0535457
-0.0567989
-0.0600505
-0.0633002
-0.0665476
-0.069793
-0.0730364
-0.0762783
-0.0795189
-0.0827587
-0.0859981
-0.0892372
-0.0924763
-0.0957156
-0.0989552
-0.102195
-0.105435
-0.108675
0.220598
0.220519
0.220201
0.219581
0.218655
0.217463
0.216068
0.214557
0.213011
0.211512
0.210123
0.208879
0.207754
0.206716
0.205705
0.204729
0.203699
0.202544
0.201282
0.199939
0.198531
0.197091
0.195655
0.194251
0.1929
0.191615
0.190404
0.189275
0.188236
0.187288
0.18643
0.185656
0.184959
0.184328
0.183748
0.183207
0.182692
0.182195
0.181703
0.181201
0.180673
0.180093
0.179426
0.178628
0.177652
0.176451
0.174978
0.173179
0.171
0.1684
0.165355
0.161866
0.157935
0.153617
0.149057
0.144482
0.139899
0.135222
0.130538
0.126015
0.121683
0.117412
0.113102
0.108666
0.104059
0.099279
0.0943299
0.0892228
0.0840185
0.0787874
0.0735716
0.068397
0.0632649
0.0581819
0.0531565
0.0482047
0.0433732
0.0386903
0.0340686
0.0294017
0.0246285
0.0197527
0.014683
0.00932575
0.00400533
0.0013837
-0.0012976
-0.00428976
-0.00749209
-0.0108026
-0.0141541
-0.0175073
-0.0208431
-0.0241552
-0.0274454
-0.0307188
-0.0339817
-0.0372394
-0.0404953
-0.0437515
-0.0470084
-0.0502659
-0.0535231
-0.0567794
-0.0600339
-0.0632863
-0.0665362
-0.0697837
-0.073029
-0.0762725
-0.0795144
-0.0827553
-0.0859954
-0.0892352
-0.0924748
-0.0957145
-0.0989544
-0.102195
-0.105435
-0.108675
0.221527
0.223248
0.224569
0.225357
0.225583
0.225287
0.224564
0.223547
0.222355
0.22111
0.2199
0.21879
0.217752
0.216757
0.215711
0.21462
0.213354
0.211854
0.210154
0.208288
0.206283
0.20419
0.202063
0.19995
0.197891
0.195917
0.194047
0.192302
0.190701
0.189251
0.187955
0.186809
0.185802
0.184913
0.184117
0.183388
0.182706
0.182055
0.181423
0.180799
0.180163
0.17949
0.178732
0.177837
0.176747
0.17543
0.173858
0.171975
0.169706
0.167004
0.16385
0.160269
0.156243
0.151827
0.147216
0.142687
0.138229
0.133643
0.128978
0.124447
0.120153
0.115962
0.111704
0.107243
0.102571
0.0977545
0.0927704
0.0875575
0.0822161
0.0768643
0.0715705
0.0663711
0.061236
0.0561594
0.0511432
0.0461938
0.0414002
0.0368352
0.0323842
0.0279539
0.02346
0.0189891
0.0145268
0.0100577
0.0058314
0.00247063
-0.000659439
-0.00384513
-0.0071363
-0.0105051
-0.0139088
-0.017312
-0.0206926
-0.024042
-0.0273606
-0.0306544
-0.0339312
-0.0371979
-0.04046
-0.0437205
-0.0469808
-0.0502413
-0.0535015
-0.0567605
-0.0600176
-0.0632725
-0.0665247
-0.0697743
-0.0730214
-0.0762663
-0.0795096
-0.0827515
-0.0859924
-0.0892329
-0.0924731
-0.0957132
-0.0989534
-0.102194
-0.105434
-0.108675
0.222803
0.227004
0.230597
0.233345
0.23518
0.23613
0.236336
0.235991
0.235272
0.234355
0.233365
0.232406
0.231467
0.230513
0.22941
0.228126
0.226524
0.22456
0.222287
0.219747
0.21697
0.214018
0.210961
0.207868
0.204807
0.201853
0.199039
0.196408
0.193994
0.191807
0.189855
0.188141