/*--------------------------------*- C++ -*----------------------------------*\
  =========                 |
  \\      /  F ield         | OpenFOAM: The Open Source CFD Toolbox
   \\    /   O peration     | Website:  https://openfoam.org
    \\  /    A nd           | Version:  6
     \\/     M anipulation  |
\*---------------------------------------------------------------------------*/
FoamFile
{
    version     2.0;
    format      ascii;
    class       volScalarField;
    location    "3400";
    object      T;
}
// * * * * * * * * * * * * * * * * * * * * * * * * * * * * * * * * * * * * * //

dimensions      [0 0 0 1 0 0 0];

internalField   nonuniform List<scalar> 
4800
(
552.491
552.372
552.251
552.13
552.007
551.883
551.759
551.636
551.516
551.398
551.284
551.177
551.077
550.985
550.902
550.827
550.76
550.701
550.647
550.598
550.553
550.512
550.472
550.435
550.399
550.364
550.33
550.295
550.26
550.224
550.188
550.15
550.11
550.069
550.027
549.983
549.937
549.89
549.841
549.791
549.739
549.686
549.631
549.574
549.516
549.455
549.393
549.328
549.262
549.194
549.124
549.052
548.978
548.902
548.823
548.742
548.658
548.571
548.48
548.385
548.287
548.185
548.079
547.969
547.856
547.74
547.619
547.495
547.367
547.235
547.098
546.954
546.804
546.647
546.481
546.308
546.13
545.949
545.769
545.592
545.422
545.258
545.099
544.946
544.801
544.662
544.529
544.4
544.273
544.15
544.027
543.906
543.786
543.667
543.548
543.43
543.312
543.194
543.076
542.959
542.841
542.724
542.607
542.489
542.372
542.255
542.137
542.02
541.903
541.785
541.668
541.55
541.433
541.315
541.197
541.08
540.962
540.844
540.727
540.609
552.49
552.37
552.249
552.127
552.003
551.879
551.755
551.632
551.511
551.394
551.281
551.174
551.076
550.985
550.904
550.83
550.764
550.705
550.651
550.603
550.558
550.516
550.477
550.44
550.404
550.369
550.335
550.3
550.265
550.229
550.193
550.155
550.115
550.075
550.032
549.988
549.943
549.896
549.847
549.797
549.746
549.692
549.638
549.581
549.523
549.463
549.4
549.336
549.27
549.202
549.132
549.059
548.985
548.908
548.828
548.746
548.661
548.573
548.481
548.386
548.287
548.184
548.077
547.967
547.854
547.737
547.616
547.492
547.364
547.231
547.093
546.95
546.801
546.646
546.483
546.314
546.14
545.961
545.78
545.6
545.424
545.255
545.093
544.94
544.795
544.657
544.525
544.397
544.271
544.148
544.026
543.905
543.786
543.666
543.548
543.429
543.311
543.194
543.076
542.959
542.841
542.724
542.607
542.489
542.372
542.255
542.137
542.02
541.903
541.785
541.668
541.55
541.433
541.315
541.197
541.08
540.962
540.844
540.727
540.609
552.489
552.368
552.245
552.121
551.997
551.872
551.748
551.625
551.505
551.388
551.277
551.173
551.076
550.988
550.908
550.836
550.771
550.713
550.66
550.612
550.567
550.526
550.487
550.45
550.415
550.38
550.345
550.311
550.276
550.24
550.203
550.165
550.126
550.086
550.043
550
549.954
549.908
549.86
549.81
549.759
549.707
549.652
549.596
549.539
549.479
549.417
549.353
549.287
549.219
549.148
549.074
548.999
548.92
548.839
548.755
548.668
548.577
548.484
548.386
548.286
548.182
548.074
547.963
547.848
547.73
547.609
547.483
547.354
547.221
547.084
546.941
546.793
546.64
546.481
546.315
546.143
545.966
545.785
545.603
545.422
545.245
545.079
544.925
544.782
544.647
544.517
544.391
544.267
544.145
544.024
543.904
543.784
543.665
543.547
543.429
543.311
543.193
543.076
542.958
542.841
542.724
542.606
542.489
542.372
542.255
542.137
542.02
541.902
541.785
541.668
541.55
541.433
541.315
541.197
541.08
540.962
540.844
540.727
540.609
552.488
552.364
552.24
552.115
551.99
551.865
551.74
551.617
551.498
551.384
551.275
551.173
551.079
550.994
550.916
550.846
550.782
550.725
550.673
550.626
550.582
550.541
550.502
550.466
550.43
550.396
550.361
550.327
550.292
550.257
550.22
550.183
550.144
550.103
550.062
550.018
549.974
549.928
549.881
549.832
549.782
549.73
549.677
549.621
549.565
549.506
549.444
549.381
549.314
549.246
549.174
549.099
549.021
548.94
548.855
548.768
548.678
548.584
548.488
548.388
548.285
548.179
548.069
547.956
547.839
547.72
547.597
547.47
547.34
547.206
547.068
546.926
546.779
546.628
546.471
546.308
546.139
545.963
545.782
545.596
545.408
545.224
545.052
544.9
544.763
544.633
544.507
544.383
544.261
544.141
544.021
543.901
543.782
543.664
543.546
543.428
543.31
543.193
543.075
542.958
542.84
542.723
542.606
542.489
542.372
542.254
542.137
542.02
541.902
541.785
541.667
541.55
541.432
541.315
541.197
541.08
540.962
540.844
540.727
540.609
552.487
552.361
552.235
552.109
551.982
551.857
551.733
551.61
551.492
551.38
551.274
551.176
551.085
551.002
550.927
550.859
550.797
550.741
550.69
550.643
550.6
550.56
550.522
550.486
550.451
550.417
550.383
550.349
550.315
550.28
550.244
550.207
550.168
550.129
550.088
550.045
550.002
549.957
549.911
549.863
549.814
549.764
549.711
549.657
549.601
549.543
549.483
549.419
549.353
549.283
549.209
549.132
549.052
548.968
548.88
548.789
548.694
548.597
548.496
548.393
548.286
548.177
548.065
547.949
547.83
547.708
547.582
547.454
547.322
547.186
547.048
546.905
546.759
546.609
546.454
546.293
546.126
545.951
545.769
545.58
545.384
545.189
545.006
544.863
544.736
544.614
544.494
544.374
544.255
544.136
544.017
543.898
543.78
543.662
543.544
543.427
543.309
543.192
543.074
542.957
542.84
542.723
542.606
542.488
542.371
542.254
542.137
542.02
541.902
541.785
541.667
541.55
541.432
541.315
541.197
541.08
540.962
540.844
540.727
540.609
552.486
552.359
552.231
552.103
551.975
551.849
551.725
551.605
551.489
551.379
551.277
551.182
551.094
551.014
550.941
550.875
550.815
550.761
550.711
550.665
550.623
550.583
550.546
550.51
550.476
550.443
550.409
550.376
550.343
550.309
550.274
550.237
550.2
550.161
550.121
550.08
550.038
549.995
549.95
549.904
549.856
549.807
549.756
549.704
549.649
549.592
549.532
549.468
549.401
549.331
549.256
549.176
549.093
549.005
548.914
548.818
548.719
548.616
548.511
548.403
548.292
548.179
548.063
547.943
547.821
547.696
547.568
547.437
547.303
547.166
547.026
546.883
546.736
546.586
546.431
546.271
546.105
545.931
545.749
545.555
545.351
545.135
544.921
544.81
544.705
544.595
544.481
544.365
544.248
544.131
544.013
543.895
543.778
543.66
543.543
543.425
543.308
543.191
543.074
542.957
542.839
542.722
542.605
542.488
542.371
542.254
542.137
542.019
541.902
541.785
541.667
541.55
541.432
541.315
541.197
541.08
540.962
540.844
540.727
540.609
552.486
552.356
552.227
552.098
551.97
551.843
551.719
551.601
551.488
551.382
551.282
551.19
551.106
551.029
550.958
550.894
550.836
550.783
550.734
550.69
550.648
550.61
550.573
550.538
550.505
550.472
550.44
550.408
550.376
550.343
550.309
550.274
550.238
550.201
550.162
550.123
550.082
550.04
549.997
549.953
549.907
549.86
549.811
549.76
549.707
549.651
549.591
549.528
549.46
549.388
549.312
549.23
549.144
549.053
548.957
548.857
548.753
548.645
548.534
548.421
548.304
548.186
548.065
547.941
547.815
547.686
547.555
547.421
547.284
547.145
547.003
546.858
546.711
546.56
546.405
546.246
546.08
545.907
545.725
545.53
545.318
545.071
544.733
544.749
544.679
544.58
544.471
544.358
544.243
544.126
544.009
543.892
543.775
543.658
543.541
543.424
543.307
543.19
543.073
542.956
542.839
542.722
542.605
542.488
542.371
542.253
542.136
542.019
541.902
541.784
541.667
541.55
541.432
541.315
541.197
541.079
540.962
540.844
540.727
540.609
552.485
552.355
552.225
552.096
551.968
551.842
551.72
551.603
551.492
551.388
551.291
551.202
551.12
551.046
550.978
550.916
550.859
550.808
550.76
550.717
550.676
550.639
550.603
550.57
550.537
550.506
550.475
550.444
550.413
550.382
550.35
550.316
550.282
550.246
550.21
550.172
550.133
550.094
550.053
550.01
549.967
549.921
549.874
549.826
549.774
549.719
549.66
549.597
549.529
549.456
549.378
549.294
549.204
549.11
549.01
548.906
548.797
548.684
548.567
548.447
548.325
548.2
548.073
547.944
547.813
547.68
547.544
547.407
547.267
547.125
546.981
546.834
546.685
546.533
546.378
546.218
546.053
545.881
545.701
545.511
545.308
545.09
544.865
544.776
544.681
544.576
544.466
544.353
544.238
544.122
544.006
543.89
543.773
543.656
543.539
543.423
543.306
543.189
543.072
542.955
542.838
542.721
542.604
542.487
542.37
542.253
542.136
542.019
541.902
541.784
541.667
541.549
541.432
541.314
541.197
541.079
540.962
540.844
540.726
540.609
552.484
552.354
552.223
552.094
551.967
551.842
551.722
551.607
551.498
551.397
551.303
551.216
551.137
551.065
550.999
550.939
550.884
550.834
550.788
550.746
550.706
550.67
550.635
550.603
550.572
550.542
550.513
550.484
550.454
550.425
550.394
550.363
550.331
550.297
550.263
550.228
550.191
550.154
550.115
550.075
550.034
549.991
549.947
549.9
549.85
549.796
549.739
549.675
549.607
549.533
549.453
549.367
549.275
549.177
549.074
548.965
548.852
548.733
548.61
548.484
548.355
548.223
548.089
547.954
547.817
547.678
547.538
547.396
547.253
547.107
546.96
546.811
546.66
546.506
546.35
546.19
546.025
545.856
545.68
545.497
545.309
545.118
544.941
544.81
544.693
544.579
544.465
544.35
544.235
544.119
544.003
543.887
543.771
543.655
543.538
543.422
543.305
543.188
543.071
542.955
542.838
542.721
542.604
542.487
542.37
542.253
542.136
542.018
541.901
541.784
541.667
541.549
541.432
541.314
541.197
541.079
540.962
540.844
540.726
540.609
552.484
552.352
552.221
552.092
551.966
551.843
551.725
551.613
551.507
551.408
551.317
551.233
551.156
551.086
551.022
550.964
550.91
550.862
550.817
550.775
550.737
550.702
550.669
550.638
550.608
550.58
550.552
550.525
550.498
550.47
550.442
550.413
550.383
550.353
550.321
550.288
550.255
550.22
550.183
550.146
550.108
550.068
550.027
549.982
549.934
549.882
549.825
549.762
549.694
549.62
549.538
549.45
549.356
549.255
549.149
549.036
548.917
548.793
548.664
548.53
548.394
548.255
548.114
547.971
547.827
547.683
547.537
547.39
547.243
547.094
546.943
546.791
546.637
546.481
546.323
546.163
545.999
545.832
545.661
545.486
545.309
545.135
544.972
544.83
544.702
544.581
544.463
544.347
544.232
544.116
544.001
543.885
543.769
543.653
543.537
543.421
543.304
543.187
543.071
542.954
542.837
542.72
542.603
542.487
542.37
542.252
542.135
542.018
541.901
541.784
541.666
541.549
541.432
541.314
541.197
541.079
540.962
540.844
540.726
540.609
552.484
552.352
552.221
552.093
551.967
551.846
551.731
551.621
551.518
551.422
551.333
551.251
551.176
551.108
551.046
550.989
550.937
550.89
550.846
550.806
550.769
550.735
550.703
550.674
550.646
550.619
550.594
550.568
550.543
550.518
550.492
550.466
550.439
550.411
550.382
550.353
550.322
550.29
550.257
550.223
550.187
550.151
550.112
550.071
550.025
549.974
549.919
549.857
549.789
549.714
549.632
549.542
549.446
549.343
549.233
549.117
548.993
548.863
548.728
548.588
548.444
548.296
548.147
547.996
547.845
547.693
547.542
547.39
547.238
547.085
546.93
546.775
546.618
546.459
546.3
546.138
545.975
545.81
545.643
545.474
545.305
545.14
544.982
544.837
544.704
544.58
544.461
544.344
544.229
544.114
543.999
543.883
543.768
543.652
543.536
543.42
543.303
543.187
543.07
542.954
542.837
542.72
542.603
542.486
542.369
542.252
542.135
542.018
541.901
541.784
541.666
541.549
541.432
541.314
541.197
541.079
540.962
540.844
540.726
540.609
552.484
552.352
552.222
552.095
551.971
551.852
551.738
551.631
551.53
551.436
551.35
551.27
551.198
551.131
551.071
551.015
550.965
550.919
550.876
550.837
550.802
550.769
550.739
550.711
550.685
550.66
550.636
550.613
550.59
550.567
550.544
550.521
550.496
550.472
550.446
550.42
550.393
550.364
550.334
550.304
550.271
550.238
550.203
550.164
550.121
550.072
550.018
549.958
549.89
549.815
549.733
549.642
549.545
549.44
549.327
549.207
549.079
548.944
548.802
548.655
548.503
548.348
548.189
548.03
547.871
547.712
547.553
547.396
547.239
547.081
546.923
546.764
546.604
546.443
546.281
546.119
545.955
545.791
545.626
545.461
545.296
545.134
544.978
544.831
544.697
544.574
544.455
544.34
544.226
544.111
543.997
543.882
543.767
543.651
543.535
543.419
543.303
543.187
543.07
542.953
542.837
542.72
542.603
542.486
542.369
542.252
542.135
542.018
541.901
541.783
541.666
541.549
541.431
541.314
541.197
541.079
540.962
540.844
540.726
540.609
552.484
552.353
552.224
552.098
551.976
551.859
551.748
551.643
551.544
551.452
551.368
551.29
551.22
551.155
551.096
551.042
550.993
550.948
550.907
550.869
550.835
550.804
550.775
550.749
550.724
550.701
550.679
550.659
550.638
550.618
550.598
550.577
550.556
550.534
550.512
550.489
550.465
550.441
550.414
550.387
550.358
550.328
550.296
550.26
550.22
550.174
550.122
550.062
549.995
549.921
549.839
549.748
549.649
549.543
549.428
549.305
549.173
549.033
548.886
548.732
548.572
548.408
548.242
548.074
547.906
547.739
547.574
547.41
547.247
547.085
546.923
546.76
546.596
546.432
546.268
546.104
545.94
545.776
545.611
545.447
545.282
545.12
544.961
544.811
544.68
544.561
544.447
544.334
544.222
544.109
543.995
543.881
543.766
543.651
543.535
543.419
543.303
543.187
543.07
542.953
542.837
542.72
542.603
542.486
542.369
542.252
542.135
542.018
541.9
541.783
541.666
541.549
541.431
541.314
541.196
541.079
540.961
540.844
540.726
540.609
552.485
552.355
552.228
552.103
551.983
551.868
551.759
551.656
551.559
551.47
551.387
551.312
551.242
551.179
551.121
551.069
551.021
550.978
550.938
550.902
550.869
550.839
550.812
550.788
550.765
550.744
550.724
550.705
550.687
550.669
550.652
550.634
550.616
550.598
550.579
550.56
550.54
550.519
550.496
550.472
550.447
550.42
550.391
550.359
550.321
550.278
550.227
550.169
550.104
550.03
549.948
549.858
549.758
549.651
549.535
549.409
549.274
549.129
548.975
548.815
548.648
548.477
548.302
548.127
547.951
547.777
547.605
547.434
547.265
547.097
546.929
546.762
546.595
546.429
546.262
546.096
545.93
545.765
545.599
545.432
545.265
545.098
544.931
544.771
544.649
544.542
544.436
544.328
544.218
544.107
543.994
543.881
543.766
543.651
543.535
543.42
543.303
543.187
543.07
542.954
542.837
542.72
542.603
542.486
542.369
542.252
542.135
542.018
541.9
541.783
541.666
541.549
541.431
541.314
541.196
541.079
540.961
540.844
540.726
540.609
552.486
552.358
552.233
552.11
551.991
551.878
551.771
551.67
551.575
551.488
551.407
551.333
551.265
551.204
551.148
551.097
551.05
551.008
550.97
550.936
550.905
550.877
550.851
550.828
550.808
550.788
550.771
550.754
550.738
550.723
550.708
550.693
550.678
550.663
550.647
550.631
550.615
550.597
550.578
550.558
550.536
550.512
550.487
550.457
550.423
550.382
550.333
550.277
550.212
550.14
550.059
549.968
549.869
549.761
549.643
549.516
549.377
549.227
549.068
548.901
548.728
548.551
548.37
548.188
548.006
547.825
547.645
547.468
547.292
547.118
546.945
546.773
546.602
546.432
546.263
546.094
545.926
545.758
545.59
545.42
545.249
545.075
544.892
544.691
544.604
544.519
544.425
544.323
544.216
544.106
543.994
543.881
543.766
543.651
543.536
543.42
543.304
543.187
543.071
542.954
542.837
542.72
542.603
542.486
542.369
542.252
542.135
542.017
541.9
541.783
541.666
541.548
541.431
541.314
541.196
541.079
540.961
540.844
540.726
540.609
552.487
552.362
552.238
552.117
552.001
551.89
551.785
551.686
551.593
551.507
551.429
551.356
551.29
551.23
551.176
551.127
551.082
551.042
551.005
550.973
550.943
550.917
550.893
550.872
550.853
550.835
550.82
550.805
550.791
550.778
550.766
550.754
550.741
550.729
550.716
550.703
550.69
550.675
550.66
550.642
550.624
550.604
550.581
550.555
550.522
550.483
550.436
550.382
550.319
550.247
550.166
550.076
549.976
549.867
549.748
549.618
549.476
549.321
549.157
548.986
548.81
548.628
548.443
548.255
548.068
547.881
547.696
547.512
547.331
547.15
546.971
546.794
546.619
546.444
546.272
546.1
545.929
545.758
545.587
545.416
545.242
545.063
544.867
544.499
544.554
544.504
544.42
544.321
544.216
544.106
543.995
543.882
543.767
543.652
543.537
543.421
543.305
543.188
543.071
542.955
542.838
542.72
542.603
542.486
542.369
542.252
542.135
542.017
541.9
541.783
541.666
541.548
541.431
541.314
541.196
541.079
540.961
540.844
540.726
540.609
552.488
552.366
552.244
552.126
552.012
551.904
551.801
551.704
551.613
551.529
551.452
551.382
551.318
551.26
551.207
551.16
551.117
551.079
551.045
551.014
550.986
550.962
550.94
550.92
550.903
550.887
550.873
550.86
550.848
550.837
550.827
550.816
550.806
550.796
550.786
550.776
550.765
550.753
550.74
550.726
550.71
550.693
550.672
550.648
550.617
550.58
550.535
550.482
550.42
550.348
550.267
550.176
550.074
549.963
549.842
549.708
549.562
549.404
549.237
549.064
548.886
548.704
548.516
548.327
548.136
547.945
547.755
547.566
547.379
547.193
547.009
546.827
546.646
546.467
546.29
546.115
545.941
545.768
545.596
545.424
545.252
545.077
544.893
544.696
544.609
544.523
544.428
544.326
544.219
544.109
543.997
543.883
543.769
543.654
543.538
543.422
543.306
543.189
543.072
542.955
542.838
542.721
542.604
542.487
542.369
542.252
542.135
542.018
541.9
541.783
541.666
541.548
541.431
541.314
541.196
541.079
540.961
540.844
540.726
540.609
552.49
552.37
552.253
552.138
552.027
551.921
551.82
551.726
551.638
551.556
551.481
551.413
551.351
551.295
551.245
551.2
551.159
551.123
551.091
551.062
551.036
551.013
550.993
550.975
550.959
550.944
550.931
550.92
550.91
550.9
550.891
550.882
550.874
550.866
550.857
550.849
550.839
550.83
550.819
550.807
550.793
550.777
550.759
550.735
550.706
550.671
550.627
550.574
550.512
550.44
550.358
550.264
550.16
550.045
549.919
549.781
549.631
549.47
549.303
549.131
548.955
548.773
548.587
548.397
548.205
548.012
547.82
547.627
547.436
547.246
547.057
546.87
546.685
546.502
546.321
546.143
545.967
545.793
545.62
545.449
545.279
545.11
544.943
544.785
544.66
544.549
544.442
544.334
544.224
544.112
544
543.886
543.771
543.656
543.54
543.424
543.307
543.19
543.073
542.956
542.839
542.722
542.604
542.487
542.37
542.252
542.135
542.018
541.9
541.783
541.666
541.548
541.431
541.314
541.196
541.079
540.961
540.844
540.726
540.609
552.492
552.378
552.265
552.155
552.048
551.945
551.847
551.755
551.67
551.591
551.518
551.453
551.393
551.34
551.293
551.25
551.212
551.178
551.148
551.121
551.097
551.075
551.056
551.038
551.023
551.01
550.998
550.987
550.977
550.968
550.96
550.952
550.944
550.936
550.929
550.921
550.913
550.904
550.894
550.884
550.871
550.856
550.838
550.816
550.787
550.752
550.708
550.655
550.593
550.519
550.434
550.337
550.228
550.108
549.977
549.833
549.678
549.515
549.349
549.181
549.008
548.831
548.648
548.46
548.27
548.078
547.885
547.691
547.498
547.305
547.113
546.922
546.733
546.546
546.363
546.182
546.005
545.831
545.658
545.488
545.319
545.153
544.99
544.835
544.695
544.571
544.456
544.343
544.23
544.117
544.003
543.889
543.774
543.658
543.542
543.425
543.309
543.192
543.075
542.957
542.84
542.722
542.605
542.487
542.37
542.253
542.135
542.018
541.9
541.783
541.666
541.548
541.431
541.314
541.196
541.079
540.961
540.844
540.726
540.609
552.497
552.39
552.284
552.18
552.078
551.98
551.886
551.798
551.716
551.639
551.57
551.508
551.452
551.401
551.357
551.317
551.282
551.25
551.221
551.195
551.172
551.15
551.131
551.114
551.098
551.084
551.072
551.061
551.051
551.041
551.032
551.024
551.016
551.008
551
550.992
550.983
550.975
550.965
550.954
550.942
550.927
550.909
550.886
550.858
550.822
550.778
550.724
550.659
550.583
550.494
550.392
550.277
550.15
550.011
549.861
549.702
549.539
549.374
549.21
549.044
548.872
548.694
548.51
548.324
548.134
547.943
547.75
547.557
547.363
547.169
546.976
546.784
546.596
546.41
546.229
546.051
545.876
545.704
545.533
545.364
545.195
545.028
544.865
544.714
544.584
544.466
544.351
544.237
544.123
544.008
543.892
543.777
543.66
543.544
543.427
543.31
543.193
543.076
542.958
542.841
542.723
542.606
542.488
542.37
542.253
542.135
542.018
541.901
541.783
541.666
541.548
541.431
541.314
541.196
541.079
540.961
540.844
540.726
540.609
552.503
552.408
552.313
552.218
552.125
552.034
551.946
551.862
551.784
551.712
551.646
551.587
551.535
551.488
551.447
551.409
551.376
551.346
551.318
551.291
551.266
551.244
551.223
551.203
551.186
551.17
551.155
551.142
551.129
551.118
551.107
551.097
551.087
551.078
551.068
551.059
551.049
551.04
551.029
551.017
551.004
550.989
550.97
550.946
550.916
550.879
550.833
550.777
550.71
550.63
550.536
550.428
550.306
550.171
550.025
549.869
549.707
549.543
549.38
549.219
549.057
548.891
548.72
548.543
548.361
548.176
547.988
547.797
547.605
547.411
547.218
547.024
546.832
546.643
546.456
546.274
546.096
545.921
545.748
545.576
545.403
545.228
545.05
544.873
544.71
544.583
544.47
544.358
544.244
544.129
544.013
543.897
543.78
543.663
543.546
543.429
543.312
543.195
543.077
542.96
542.842
542.724
542.606
542.489
542.371
542.253
542.136
542.018
541.901
541.783
541.666
541.548
541.431
541.314
541.196
541.079
540.961
540.844
540.726
540.609
552.512
552.436
552.358
552.279
552.198
552.117
552.037
551.961
551.888
551.82
551.759
551.705
551.656
551.613
551.574
551.539
551.507
551.477
551.446
551.417
551.388
551.361
551.335
551.31
551.287
551.266
551.246
551.228
551.211
551.196
551.181
551.168
551.154
551.142
551.13
551.118
551.107
551.095
551.083
551.069
551.055
551.037
551.017
550.992
550.961
550.922
550.873
550.814
550.743
550.658
550.559
550.445
550.316
550.173
550.019
549.859
549.694
549.528
549.365
549.205
549.046
548.885
548.72
548.549
548.374
548.194
548.009
547.822
547.632
547.44
547.248
547.056
546.866
546.677
546.491
546.308
546.13
545.956
545.783
545.608
545.431
545.25
545.06
544.861
544.661
544.565
544.47
544.365
544.253
544.137
544.02
543.902
543.784
543.667
543.549
543.431
543.314
543.196
543.079
542.961
542.843
542.725
542.607
542.489
542.372
542.254
542.136
542.019
541.901
541.783
541.666
541.549
541.431
541.314
541.196
541.079
540.961
540.844
540.726
540.609
552.528
552.481
552.43
552.373
552.311
552.246
552.178
552.111
552.046
551.984
551.928
551.879
551.834
551.794
551.757
551.723
551.69
551.656
551.62
551.584
551.547
551.51
551.474
551.439
551.406
551.375
551.346
551.319
551.294
551.271
551.25
551.231
551.213
551.196
551.18
551.165
551.15
551.136
551.121
551.105
551.088
551.069
551.047
551.02
550.987
550.946
550.895
550.833
550.757
550.668
550.563
550.443
550.306
550.156
549.996
549.832
549.666
549.498
549.331
549.169
549.011
548.854
548.695
548.53
548.36
548.184
548.003
547.818
547.63
547.44
547.25
547.06
546.872
546.685
546.501
546.32
546.143
545.97
545.798
545.624
545.447
545.262
545.064
544.831
544.493
544.537
544.474
544.376
544.264
544.147
544.028
543.908
543.789
543.67
543.552
543.434
543.316
543.198
543.08
542.962
542.844
542.726
542.608
542.49
542.372
542.254
542.137
542.019
541.901
541.784
541.666
541.549
541.431
541.314
541.196
541.079
540.961
540.844
540.726
540.609
552.551
552.549
552.538
552.516
552.483
552.441
552.391
552.337
552.281
552.227
552.177
552.132
552.092
552.054
552.018
551.982
551.945
551.903
551.857
551.808
551.757
551.704
551.651
551.6
551.55
551.503
551.458
551.417
551.378
551.343
551.312
551.283
551.257
551.234
551.213
551.193
551.174
551.155
551.137
551.119
551.1
551.078
551.054
551.025
550.989
550.945
550.892
550.826
550.747
550.653
550.543
550.417
550.275
550.118
549.953
549.788
549.622
549.452
549.283
549.119
548.962
548.807
548.651
548.489
548.322
548.149
547.969
547.784
547.595
547.405
547.216
547.028
546.841
546.657
546.474
546.295
546.119
545.949
545.782
545.612
545.439
545.263
545.079
544.885
544.692
544.598
544.501
544.394
544.278
544.158
544.037
543.915
543.794
543.674
543.555
543.436
543.318
543.199
543.081
542.963
542.845
542.727
542.609
542.491
542.373
542.255
542.137
542.019
541.902
541.784
541.666
541.549
541.431
541.314
541.196
541.079
540.961
540.844
540.726
540.609
552.584
552.647
552.696
552.725
552.734
552.724
552.699
552.663
552.62
552.576
552.532
552.493
552.455
552.42
552.382
552.343
552.297
552.243
552.182
552.114
552.041
551.965
551.887
551.81
551.735
551.662
551.594
551.529
551.47
551.417
551.369
551.327
551.29
551.257
551.227
551.2
551.175
551.151
551.127
551.104
551.08
551.055
551.027
550.994
550.954
550.906
550.848
550.78
550.698
550.6
550.486
550.357
550.212
550.052
549.885
549.722
549.561
549.395
549.226
549.063
548.907
548.756
548.601
548.439
548.269
548.095
547.914
547.725
547.531
547.337
547.145
546.955
546.769
546.584
546.402
546.222
546.048
545.882
545.72
545.559
545.396
545.234
545.072
544.91
544.758
544.637
544.524
544.409
544.29
544.169
544.045
543.922
543.8
543.678
543.558
543.438
543.319
543.201
543.083
542.964
542.846
542.728
542.61
542.492
542.373
542.255
542.137
542.02
541.902
541.784
541.666
541.549
541.431
541.314
541.196
541.079
540.961
540.844
540.726
540.609
552.63
552.782
552.912
553.013
553.08
553.116
553.124
553.113
553.088
553.055
553.02
552.986
552.953
552.92
552.88
552.835
552.777
552.707
552.625
552.533
552.433
552.326
552.216
552.103
551.992
551.884
551.781
551.685
551.596
551.516
551.444
551.38
551.325
551.277
551.234
551.195
551.158
551.123
551.089
551.056
551.023
550.99
550.954
550.912
550.861
550.803
550.738
550.666
550.582
550.483
550.368
550.24
550.097
549.939
549.778
549.624
549.477
549.324
549.165
549.007
548.859
548.716
548.563
548.395
548.217
548.041
547.86
547.663
547.457
547.25
547.047
546.852
546.66
546.47
546.282
546.099
545.924
545.762
545.605
545.451
545.295
545.146
545.004
544.871
544.747
544.634
544.525
544.413
544.297
544.176
544.053
543.929
543.805
543.682
543.561
543.441
543.321
543.202
543.084
542.965
542.847
542.729
542.61
542.492
542.374
542.256
542.138
542.02
541.902
541.784
541.667
541.549
541.432
541.314
541.196
541.079
540.961
540.844
540.726
540.609
552.687
552.95
553.185
553.378
553.522
553.619
553.673
553.695
553.693
553.678
553.655
553.63
553.605
553.577
553.538
553.486
553.416
553.327
553.224
553.109
552.981
552.841
552.693
552.538
552.381
552.227
552.079
551.94
551.812
551.694
551.587
551.492
551.408
551.334
551.269
551.209
551.151
551.094
551.038
550.983
550.929
550.877
550.82
550.757
550.681
550.598
550.517
550.441
550.356
550.257
550.145
550.024
549.892
549.744
549.599
549.469
549.35
549.223
549.084
548.945
548.82
548.7
548.547
548.361
548.164
547.997
547.832
547.624
547.399
547.166
546.94
546.738
546.533
546.327
546.127
545.937
545.757
545.599
545.438
545.284
545.128
544.986
544.86
544.754
544.669
544.586
544.498
544.4
544.293
544.178
544.057
543.934
543.809
543.686
543.564
543.443
543.323
543.204
543.085
542.966
542.848
542.73
542.611
542.493
542.374
542.256
542.138
542.02
541.902
541.785
541.667
541.549
541.432
541.314
541.197
541.079
540.961
540.844
540.726
540.609
552.747
553.131
553.486
553.789
554.029
554.202
554.316
554.383
554.415
554.425
554.422
554.414
554.407
554.397
554.371
554.316
554.238
554.133
554.018
553.891
553.747
553.584
553.405
553.211
553.006
552.8
552.598
552.407
552.228
552.061
551.906
551.764
551.635
551.518
551.413
551.313
551.217
551.119
551.02
550.919
550.818
550.72
550.62
550.51
550.379
550.24
550.125
550.036
549.947
549.848
549.743
549.634
549.524
549.399
549.293
549.21
549.134
549.036
548.924
548.828
548.759
548.7
548.54
548.348
548.12
547.973
547.828
547.632
547.414
547.157
546.893
546.696
546.456
546.207
545.973
545.762
545.569
545.422
545.238
545.08
544.909
544.76
544.635
544.553
544.528
544.501
544.445
544.37
544.279
544.174
544.058
543.937
543.813
543.689
543.566
543.445
543.324
543.205
543.086
542.967
542.849
542.73
542.612
542.493
542.375
542.257
542.139
542.021
541.903
541.785
541.667
541.549
541.432
541.314
541.197
541.079
540.961
540.844
540.726
540.609
552.786
553.264
553.73
554.152
554.503
554.77
554.96
555.089
555.173
555.222
555.252
555.279
555.312
555.349
555.361
555.323
555.251
555.139
555.035
554.934
554.807
554.652
554.479
554.28
554.043
553.787
553.525
553.274
553.034
552.803
552.585
552.378
552.178
551.987
551.808
551.64
551.482
551.313
551.132
550.937
550.734
550.542
550.357
550.158
549.923
549.676
549.48
549.349
549.233
549.127
549.025
548.928
548.865
548.773
548.745
548.737
548.724
548.672
548.622
548.543
548.558
548.58
548.467
548.315
548.088
548
547.896
547.744
547.537
547.256
546.995
546.83
546.517
546.164
545.878
545.705
545.45
545.221
545.036
544.896
544.679
544.502
544.346
544.277
544.336
544.416
544.379
544.328
544.257
544.164
544.056
543.938
543.816
543.692
543.569
543.447
543.326
543.206
543.087
542.968
542.849
542.731
542.612
542.494
542.375
542.257
542.139
542.021
541.903
541.785
541.667
541.55
541.432
541.314
541.197
541.079
540.962
540.844
540.726
540.609
552.751
553.22
553.751
554.279
554.748
555.127
555.415
555.631
555.793
555.905
555.993
556.088
556.19
556.312
556.402
556.434
556.425
556.319
556.277
556.279
556.221
556.14
556.073
555.975
555.764
555.489
555.162
554.833
554.501
554.18
553.888
553.604
553.313
552.995
552.666
552.369
552.128
551.862
551.542
551.153
550.726
550.351
550.024
549.689
549.294
548.856
548.48
548.241
548.056
547.91
547.8
547.738
547.747
547.759
547.809
547.894
547.999
547.898
547.951
547.912
548.077
548.13
548.191
548.212
548.095
548.099
548.045
547.997
547.781
547.491
547.316
547.32
546.882
546.46
546.136
545.68
545.314
545.076
544.863
544.653
544.408
544.248
544.085
543.981
544.13
544.325
544.312
544.285
544.232
544.153
544.052
543.938
543.817
543.694
543.57
543.448
543.327
543.207
543.087
542.969
542.85
542.731
542.613
542.494
542.376
542.257
542.139
542.021
541.903
541.785
541.667
541.55
541.432
541.314
541.197
541.079
540.962
540.844
540.726
540.609
552.512
552.76
553.267
553.869
554.447
554.948
555.368
555.71
555.987
556.17
556.347
556.573
556.767
556.983
557.135
557.393
557.674
557.573
557.692
557.916
557.968
558.055
558.32
558.598
558.523
558.344
557.941
557.475
556.96
556.487
556.116
555.749
555.408
554.9
554.227
553.655
553.344
553.023
552.474
551.664
550.797
550.102
549.433
548.848
548.297
547.644
547.146
546.766
546.456
546.188
546.034
545.972
545.974
546.082
546.323
546.517
546.794
546.624
546.876
546.969
547.299
547.378
547.618
547.815
547.981
548.263
548.272
548.341
548.205
548.036
548.035
548.041
547.722
547.322
546.88
545.969
545.525
544.912
544.279
544.15
544.114
544.214
543.892
544.126
544.025
544.281
544.264
544.251
544.212
544.143
544.049
543.938
543.818
543.695
543.572
543.449
543.328
543.207
543.088
542.969
542.85
542.732
542.613
542.494
542.376
542.258
542.139
542.021
541.903
541.785
541.668
541.55
541.432
541.315
541.197
541.079
540.962
540.844
540.727