/*--------------------------------*- C++ -*----------------------------------*\
  =========                 |
  \\      /  F ield         | OpenFOAM: The Open Source CFD Toolbox
   \\    /   O peration     | Website:  https://openfoam.org
    \\  /    A nd           | Version:  6
     \\/     M anipulation  |
\*---------------------------------------------------------------------------*/
FoamFile
{
    version     2.0;
    format      ascii;
    class       volVectorField;
    location    "3400";
    object      U;
}
// * * * * * * * * * * * * * * * * * * * * * * * * * * * * * * * * * * * * * //

dimensions      [0 1 -1 0 0 0 0];

internalField   nonuniform List<vector> 
4800
(
(4.63407e-05 0 -7.49709e-05)
(0.000115899 0 -8.47958e-05)
(0.000174822 0 -4.4312e-05)
(0.000216532 0 -3.70695e-06)
(0.000205873 0 1.23075e-05)
(0.000173019 0 3.27574e-05)
(0.000120192 0 2.80179e-05)
(6.795e-05 0 1.54205e-05)
(1.37078e-05 0 3.70045e-05)
(-5.44644e-05 0 7.16385e-05)
(-0.000177357 0 0.000101501)
(-0.000243079 0 -3.29501e-06)
(-0.000600974 0 0.000135899)
(-0.000904109 0 8.38755e-05)
(-0.00107482 0 2.0275e-05)
(-0.00116366 0 1.11006e-05)
(-0.00123967 0 -5.99577e-05)
(-0.00129167 0 -1.1506e-05)
(-0.00132466 0 -3.33376e-05)
(-0.00134237 0 -4.44056e-05)
(-0.00135051 0 -1.7801e-05)
(-0.00135328 0 -2.12499e-05)
(-0.00132675 0 7.15921e-06)
(-0.00129937 0 -3.45849e-05)
(-0.00127979 0 -8.87515e-05)
(-0.00122168 0 -5.36076e-05)
(-0.0011426 0 -5.02605e-05)
(-0.00110674 0 -7.18833e-05)
(-0.00110245 0 -0.000111824)
(-0.00105077 0 -3.19023e-05)
(-0.000913264 0 -1.15918e-05)
(-0.000823178 0 -9.29094e-05)
(-0.000776209 0 -5.13857e-05)
(-0.00074601 0 -1.99732e-05)
(-0.000732156 0 -3.93659e-05)
(-0.000745717 0 -2.95635e-05)
(-0.000759577 0 -3.27949e-05)
(-0.000747631 0 -8.72844e-05)
(-0.000731319 0 -9.07476e-05)
(-0.000730367 0 -9.0555e-05)
(-0.000710714 0 -9.42842e-05)
(-0.000645043 0 -3.93503e-05)
(-0.000593205 0 -1.73402e-05)
(-0.000563576 0 -3.54946e-05)
(-0.000551025 0 -6.7771e-05)
(-0.000546223 0 -0.000102311)
(-0.000515027 0 -0.000134254)
(-0.000497595 0 -9.96468e-05)
(-0.000499714 0 -5.42956e-05)
(-0.000475202 0 -4.11513e-05)
(-0.00038218 0 -0.00015031)
(-0.000311167 0 -8.74511e-05)
(-0.000228644 0 -7.2023e-05)
(-0.000132322 0 -5.08577e-05)
(-4.03167e-05 0 -4.2223e-05)
(8.70228e-05 0 -2.74036e-05)
(0.000179338 0 -3.52149e-05)
(0.000279764 0 -5.33216e-05)
(0.00035991 0 7.55674e-05)
(0.000389415 0 -0.000192491)
(0.000463171 0 -2.81041e-05)
(0.000467997 0 0.000107777)
(0.000497479 0 2.30794e-05)
(0.000490155 0 -1.57582e-07)
(0.000494889 0 -1.06534e-05)
(0.000516357 0 -5.14213e-05)
(0.000516371 0 -4.44028e-05)
(0.000513181 0 -2.62646e-05)
(0.000525422 0 -2.66681e-05)
(0.000572213 0 -6.30122e-05)
(0.000600593 0 -1.59406e-07)
(0.000583817 0 1.70992e-05)
(0.000555952 0 1.2508e-05)
(0.000495484 0 5.79034e-05)
(0.000401929 0 6.44006e-05)
(3.62087e-05 0 9.10285e-05)
(-0.000478509 0 -0.000354397)
(-0.000406856 0 -0.000309937)
(-0.000524211 0 -0.000137516)
(-0.000530012 0 -0.000336764)
(-0.000685949 0 -0.00029976)
(7.29465e-06 0 -0.000196875)
(-4.49934e-13 0 -8.98107e-15)
(-1.59206e-12 0 -1.22365e-13)
(-1.20578e-13 0 -9.31826e-14)
(3.94687e-14 0 -6.58635e-14)
(1.50812e-13 0 -4.60287e-14)
(2.29624e-13 0 -3.32343e-14)
(2.88142e-13 0 -2.57156e-14)
(3.34942e-13 0 -2.1586e-14)
(3.75116e-13 0 -1.93681e-14)
(4.11395e-13 0 -1.80614e-14)
(4.44974e-13 0 -1.70486e-14)
(4.76126e-13 0 -1.59793e-14)
(5.04633e-13 0 -1.4678e-14)
(5.30072e-13 0 -1.30811e-14)
(5.51994e-13 0 -1.11943e-14)
(5.70001e-13 0 -9.06303e-15)
(5.83775e-13 0 -6.75513e-15)
(5.93074e-13 0 -4.34638e-15)
(5.97722e-13 0 -1.90561e-15)
(5.9761e-13 0 5.14424e-16)
(5.9272e-13 0 2.87624e-15)
(5.83139e-13 0 5.15237e-15)
(5.69048e-13 0 7.32346e-15)
(5.50699e-13 0 9.38012e-15)
(5.28405e-13 0 1.13209e-14)
(5.02528e-13 0 1.31464e-14)
(4.73455e-13 0 1.48525e-14)
(4.41564e-13 0 1.6429e-14)
(4.07187e-13 0 1.78628e-14)
(3.70602e-13 0 1.9143e-14)
(3.32036e-13 0 2.02622e-14)
(2.91689e-13 0 2.12178e-14)
(2.49753e-13 0 2.2011e-14)
(2.06424e-13 0 2.26462e-14)
(1.61913e-13 0 2.3132e-14)
(1.16449e-13 0 2.34838e-14)
(7.02585e-14 0 2.37311e-14)
(2.35044e-14 0 2.39477e-14)
(4.33917e-05 0 -0.000194148)
(0.000110086 0 -0.000116908)
(0.000137008 0 -7.4842e-05)
(0.00016339 0 -1.38215e-05)
(0.000155797 0 2.0223e-05)
(0.000132879 0 3.91849e-05)
(6.11324e-05 0 6.88104e-05)
(3.9591e-06 0 6.99615e-05)
(-0.000187956 0 0.000121583)
(-0.000367859 0 0.000143026)
(-0.000411687 0 0.000207785)
(-0.000584803 0 0.000257065)
(-0.000889604 0 -7.80633e-06)
(-0.000927836 0 0.000123553)
(-0.00102016 0 0.00025574)
(-0.00117061 0 5.14583e-05)
(-0.00122656 0 0.000204028)
(-0.0012961 0 7.00304e-05)
(-0.00133383 0 8.26124e-05)
(-0.00135865 0 6.57445e-05)
(-0.00137604 0 1.79518e-05)
(-0.00138173 0 4.1803e-06)
(-0.00137517 0 -6.27437e-05)
(-0.00134988 0 -0.000110469)
(-0.00131955 0 -3.72044e-05)
(-0.00127808 0 -1.82608e-05)
(-0.00123974 0 -0.000123843)
(-0.00121259 0 -0.000128326)
(-0.0011879 0 -0.000148954)
(-0.00114755 0 -2.03485e-05)
(-0.00107222 0 -9.64369e-05)
(-0.000996747 0 -0.000109927)
(-0.000931713 0 -7.16144e-07)
(-0.000894274 0 -1.60218e-05)
(-0.000880982 0 -9.42107e-07)
(-0.000873549 0 3.88072e-05)
(-0.000860555 0 2.54813e-05)
(-0.000835613 0 2.33032e-05)
(-0.000819322 0 2.11543e-05)
(-0.000814623 0 4.67631e-07)
(-0.00080728 0 3.05758e-06)
(-0.000783506 0 -8.14765e-05)
(-0.00076268 0 -5.48851e-05)
(-0.000759914 0 -2.82213e-05)
(-0.00074987 0 -1.82942e-06)
(-0.000711498 0 2.0454e-05)
(-0.000679166 0 5.50868e-05)
(-0.000666658 0 1.1928e-05)
(-0.000633862 0 -7.8876e-05)
(-0.000558896 0 -7.90781e-05)
(-0.000468654 0 -0.000120774)
(-0.000384864 0 -3.36159e-05)
(-0.000275486 0 -0.000131687)
(-0.000198623 0 -0.000121306)
(-7.69559e-06 0 -0.000220859)
(6.99133e-05 0 -0.000113788)
(0.000174482 0 -0.000155194)
(0.000275633 0 -0.000153874)
(0.00038081 0 -8.23882e-05)
(0.000446643 0 -0.000123271)
(0.000500584 0 1.36106e-05)
(0.000493161 0 -6.08721e-05)
(0.000509109 0 -9.22033e-05)
(0.000543475 0 1.41685e-05)
(0.00054452 0 -0.000124259)
(0.000588469 0 4.73393e-05)
(0.000624032 0 -1.70742e-05)
(0.0006095 0 -5.11686e-05)
(0.000612928 0 -6.42365e-05)
(0.000640668 0 -4.51693e-05)
(0.000645398 0 -2.02149e-06)
(0.000632993 0 -6.11125e-06)
(0.00058528 0 7.09612e-05)
(0.000558806 0 0.000160811)
(0.000567529 0 0.000252553)
(0.000441376 0 0.000294737)
(0.000463963 0 0.000374582)
(0.000390379 0 0.000323549)
(0.000161335 0 0.00022757)
(4.26927e-05 0 -4.92226e-05)
(-0.00046181 0 -0.000339341)
(7.1921e-06 0 -0.000139253)
(-4.10325e-13 0 -1.80953e-13)
(-1.58163e-12 0 -4.00967e-13)
(-6.47801e-14 0 -2.79844e-13)
(8.64821e-14 0 -1.90394e-13)
(1.8358e-13 0 -1.309e-13)
(2.49937e-13 0 -9.45776e-14)
(2.99791e-13 0 -7.4155e-14)
(3.41289e-13 0 -6.34058e-14)
(3.7864e-13 0 -5.78626e-14)
(4.13715e-13 0 -5.4635e-14)
(4.47056e-13 0 -5.19911e-14)
(4.78497e-13 0 -4.89721e-14)
(5.07531e-13 0 -4.51172e-14)
(5.33555e-13 0 -4.02877e-14)
(5.56012e-13 0 -3.45464e-14)
(5.7444e-13 0 -2.80684e-14)
(5.88491e-13 0 -2.10795e-14)
(5.97924e-13 0 -1.38085e-14)
(6.02583e-13 0 -6.45076e-15)
(6.02392e-13 0 8.48329e-16)
(5.97358e-13 0 7.98869e-15)
(5.87586e-13 0 1.49033e-14)
(5.73276e-13 0 2.15497e-14)
(5.54697e-13 0 2.79034e-14)
(5.32172e-13 0 3.39449e-14)
(5.06059e-13 0 3.96466e-14)
(4.76737e-13 0 4.49653e-14)
(4.44574e-13 0 4.98489e-14)
(4.09901e-13 0 5.42488e-14)
(3.73001e-13 0 5.81318e-14)
(3.34111e-13 0 6.14836e-14)
(2.93438e-13 0 6.43085e-14)
(2.51181e-13 0 6.66251e-14)
(2.07545e-13 0 6.84637e-14)
(1.62751e-13 0 6.98638e-14)
(1.17048e-13 0 7.08737e-14)
(7.07223e-14 0 7.15533e-14)
(2.3721e-14 0 7.19925e-14)
(-9.15192e-06 0 -0.000246115)
(8.91785e-05 0 -0.000135175)
(-4.75144e-06 0 -0.000137233)
(0.000113648 0 3.24811e-06)
(0.000100776 0 7.4464e-05)
(-2.72985e-06 0 0.000133488)
(-6.63065e-05 0 0.000160298)
(-7.44736e-05 0 0.000168521)
(-0.000245341 0 0.000270755)
(-0.000458408 0 0.000384675)
(-0.000549238 0 0.000492722)
(-0.000807137 0 0.000442322)
(-0.000813884 0 0.000550792)
(-0.000969301 0 0.000232246)
(-0.00105097 0 0.000142652)
(-0.00110276 0 0.000297036)
(-0.00120801 0 6.74962e-05)
(-0.00124467 0 9.15329e-05)
(-0.0012849 0 4.08953e-05)
(-0.00132803 0 1.39671e-05)
(-0.00136517 0 -1.28534e-05)
(-0.00137144 0 -1.07198e-05)
(-0.00137093 0 -2.04421e-05)
(-0.00138741 0 -2.86365e-05)
(-0.00138358 0 -7.63226e-05)
(-0.00136137 0 -9.78811e-05)
(-0.00135495 0 -0.000113548)
(-0.00132928 0 -0.000194133)
(-0.00128584 0 -0.000204608)
(-0.00125444 0 -0.000170839)
(-0.00123119 0 -0.000147356)
(-0.00118288 0 -0.000133159)
(-0.0011206 0 -9.74493e-05)
(-0.00108922 0 -8.09499e-05)
(-0.00108386 0 -4.77202e-05)
(-0.00107955 0 -8.39935e-05)
(-0.00106133 0 -9.90853e-05)
(-0.00105023 0 -8.04828e-05)
(-0.00104927 0 -7.16003e-05)
(-0.00105237 0 -6.48548e-05)
(-0.00104625 0 -5.64631e-05)
(-0.00101929 0 -7.15201e-05)
(-0.000985087 0 -4.41586e-05)
(-0.00095349 0 -3.20586e-05)
(-0.000910695 0 -4.49769e-05)
(-0.000868473 0 -7.06718e-05)
(-0.000821021 0 -0.000121409)
(-0.000759226 0 -6.47558e-05)
(-0.000685569 0 1.34217e-05)
(-0.000626057 0 -7.01952e-05)
(-0.000470387 0 -0.000363822)
(-0.000460208 0 -0.000121248)
(-0.000335508 0 -0.000258008)
(-0.000281321 0 -0.000254987)
(-6.79621e-05 0 -0.000352566)
(-3.92126e-05 0 -0.000199198)
(0.000104831 0 -0.000307877)
(0.000225449 0 -0.000193652)
(0.000281641 0 -0.000158156)
(0.000338613 0 -0.000138569)
(0.000415586 0 -5.25091e-05)
(0.000459556 0 -7.16696e-05)
(0.000488392 0 -6.99952e-05)
(0.000540266 0 0.000112195)
(0.000520312 0 -0.000202936)
(0.000565532 0 -2.66535e-05)
(0.000597661 0 0.00010614)
(0.000608982 0 -6.267e-05)
(0.000623546 0 -8.19124e-05)
(0.000636123 0 -2.3284e-05)
(0.000630909 0 1.45447e-05)
(0.000617315 0 6.19647e-05)
(0.000609843 0 9.76161e-05)
(0.000615495 0 0.000153064)
(0.000661704 0 0.00022213)
(0.00063782 0 0.000369263)
(0.000568282 0 0.000412032)
(0.000586089 0 0.000286027)
(0.000260238 0 0.000407672)
(0.000440159 0 1.68933e-05)
(-9.00973e-05 0 -0.000180779)
(7.50459e-06 0 -6.85432e-05)
(-3.37262e-13 0 -2.93075e-13)
(-1.36781e-12 0 -6.61579e-13)
(8.95571e-14 0 -4.36581e-13)
(1.88514e-13 0 -2.85264e-13)
(2.46875e-13 0 -1.92353e-13)
(2.8637e-13 0 -1.40042e-13)
(3.19314e-13 0 -1.13054e-13)
(3.51234e-13 0 -1.0019e-13)
(3.83887e-13 0 -9.42153e-14)
(4.17267e-13 0 -9.07998e-14)
(4.50637e-13 0 -8.75065e-14)
(4.83e-13 0 -8.30629e-14)
(5.13317e-13 0 -7.69089e-14)
(5.40643e-13 0 -6.89385e-14)
(5.64213e-13 0 -5.93312e-14)
(5.83468e-13 0 -4.84233e-14)
(5.98035e-13 0 -3.66144e-14)
(6.07703e-13 0 -2.42955e-14)
(6.12379e-13 0 -1.17977e-14)
(6.1205e-13 0 6.29987e-16)
(6.06775e-13 0 1.28141e-14)
(5.967e-13 0 2.46373e-14)
(5.82048e-13 0 3.60207e-14)
(5.63095e-13 0 4.69073e-14)
(5.40149e-13 0 5.72429e-14)
(5.13548e-13 0 6.69598e-14)
(4.83657e-13 0 7.59738e-14)
(4.50847e-13 0 8.41956e-14)
(4.1547e-13 0 9.15507e-14)
(3.77836e-13 0 9.7994e-14)
(3.38212e-13 0 1.03515e-13)
(2.96831e-13 0 1.08137e-13)
(2.53908e-13 0 1.11906e-13)
(2.09662e-13 0 1.1489e-13)
(1.64323e-13 0 1.17164e-13)
(1.18139e-13 0 1.18806e-13)
(7.13774e-14 0 1.19886e-13)
(2.39437e-14 0 1.2044e-13)
(-2.74953e-05 0 -0.0002619)
(4.79236e-06 0 -0.000152052)
(1.56057e-05 0 -7.37236e-05)
(1.52598e-05 0 5.56275e-05)
(-2.99605e-05 0 0.000129735)
(-8.47058e-05 0 0.000181635)
(-0.000204118 0 0.000213675)
(-0.000334575 0 0.000223509)
(-0.000409455 0 0.000433567)
(-0.00047514 0 0.000636634)
(-0.000645903 0 0.000643077)
(-0.000705106 0 0.000678959)
(-0.000916009 0 0.000466479)
(-0.000947078 0 0.000481038)
(-0.00102722 0 0.000393076)
(-0.00110686 0 0.000269658)
(-0.00115296 0 0.000274244)
(-0.00121056 0 0.000166729)
(-0.0012395 0 0.000156851)
(-0.00128536 0 0.000103568)
(-0.001304 0 0.000115272)
(-0.00131357 0 2.18186e-05)
(-0.00134604 0 -0.000112512)
(-0.00139137 0 -3.90228e-05)
(-0.0014048 0 -7.53265e-05)
(-0.00140044 0 -0.000106134)
(-0.00138571 0 -0.000129156)
(-0.0013849 0 -0.000151126)
(-0.00138568 0 -0.000180591)
(-0.00134873 0 -0.00027447)
(-0.00133342 0 -0.000164597)
(-0.0012974 0 -0.000148583)
(-0.00127412 0 -7.71445e-05)
(-0.00125935 0 -7.33591e-05)
(-0.00125373 0 -2.63508e-05)
(-0.00123058 0 7.38249e-05)
(-0.00120071 0 6.72001e-06)
(-0.00118358 0 -1.06049e-05)
(-0.00117603 0 1.50724e-06)
(-0.00117232 0 -1.78105e-05)
(-0.00116469 0 -9.88259e-05)
(-0.00111888 0 -0.000283653)
(-0.00110557 0 -5.98756e-05)
(-0.00105848 0 -8.889e-05)
(-0.00100917 0 -0.000146315)
(-0.000953297 0 -0.000167142)
(-0.000877832 0 -0.000177299)
(-0.00079601 0 -0.000127403)
(-0.000702364 0 -0.000186611)
(-0.000619339 0 -0.000275618)
(-0.000580815 0 -0.000254177)
(-0.000523514 0 -0.000260275)
(-0.00043574 0 -0.000349674)
(-0.000357341 0 -0.000399478)
(-0.00026546 0 -0.000415704)
(-0.000214049 0 -0.000395665)
(-0.000104353 0 -0.000455442)
(-2.0996e-05 0 -0.000308747)
(0.000141209 0 -0.000250766)
(0.000201144 0 -0.000179613)
(0.000247343 0 -0.000140628)
(0.000302373 0 -0.000101574)
(0.000332069 0 -0.000104738)
(0.000382139 0 -8.3491e-05)
(0.000416551 0 -5.75109e-05)
(0.00042222 0 -7.97524e-05)
(0.000434979 0 -9.51668e-05)
(0.00047677 0 -6.20981e-05)
(0.000507506 0 -3.46224e-05)
(0.000496775 0 -3.05006e-05)
(0.000492256 0 7.86401e-06)
(0.000502275 0 3.78482e-05)
(0.000540373 0 7.00733e-05)
(0.000585709 0 0.00015038)
(0.000614679 0 0.00024793)
(0.000618256 0 0.000359311)
(0.000616811 0 0.000382616)
(0.000630762 0 0.000344857)
(0.000476761 0 0.000419953)
(0.00051914 0 0.00020755)
(-6.71557e-06 0 -9.26887e-07)
(8.24697e-06 0 0.000143857)
(-3.63383e-13 0 -1.49641e-14)
(-1.07013e-12 0 -8.24586e-13)
(3.12098e-13 0 -5.19271e-13)
(3.3121e-13 0 -3.21855e-13)
(3.29017e-13 0 -2.13089e-13)
(3.29236e-13 0 -1.60045e-13)
(3.39642e-13 0 -1.37463e-13)
(3.60128e-13 0 -1.29514e-13)
(3.88031e-13 0 -1.27266e-13)
(4.20423e-13 0 -1.25977e-13)
(4.54793e-13 0 -1.23263e-13)
(4.89095e-13 0 -1.18029e-13)
(5.21655e-13 0 -1.09893e-13)
(5.51133e-13 0 -9.89163e-14)
(5.76527e-13 0 -8.54438e-14)
(5.97157e-13 0 -6.99796e-14)
(6.12619e-13 0 -5.30976e-14)
(6.2274e-13 0 -3.53683e-14)
(6.27509e-13 0 -1.72964e-14)
(6.27004e-13 0 7.1582e-16)
(6.21365e-13 0 1.8371e-14)
(6.10793e-13 0 3.54557e-14)
(5.95546e-13 0 5.18171e-14)
(5.75919e-13 0 6.73453e-14)
(5.52224e-13 0 8.19552e-14)
(5.2479e-13 0 9.55682e-14)
(4.93973e-13 0 1.08101e-13)
(4.60151e-13 0 1.19469e-13)
(4.23699e-13 0 1.29602e-13)
(3.84965e-13 0 1.38464e-13)
(3.44253e-13 0 1.46055e-13)
(3.01829e-13 0 1.52415e-13)
(2.57935e-13 0 1.57616e-13)
(2.12802e-13 0 1.61751e-13)
(1.66667e-13 0 1.6492e-13)
(1.1977e-13 0 1.67221e-13)
(7.23558e-14 0 1.68738e-13)
(2.42754e-14 0 1.69519e-13)
(-5.85477e-05 0 -0.000256742)
(1.45441e-05 0 -0.000144857)
(-4.02113e-05 0 -4.75709e-05)
(-8.84365e-05 0 5.95348e-05)
(-5.81593e-05 0 0.000162759)
(-0.000134059 0 0.000247853)
(-0.000176163 0 0.000389611)
(-0.000227667 0 0.000501658)
(-0.000787782 0 0.000350102)
(-0.000724915 0 0.000619396)
(-0.00076099 0 0.000684835)
(-0.000799686 0 0.000650008)
(-0.000822172 0 0.000616153)
(-0.000941452 0 0.000454374)
(-0.00100942 0 0.000418066)
(-0.00107716 0 0.000335917)
(-0.00111326 0 0.000284423)
(-0.00113436 0 0.000234025)
(-0.00118625 0 0.000114601)
(-0.00122788 0 6.35742e-05)
(-0.00124776 0 8.68321e-05)
(-0.0012963 0 6.29815e-06)
(-0.00135491 0 5.11287e-06)
(-0.00137283 0 -6.25091e-06)
(-0.00137037 0 -3.97944e-05)
(-0.00136819 0 -5.67631e-05)
(-0.00138308 0 -0.000159836)
(-0.00139992 0 -0.000176245)
(-0.0014109 0 -0.000187623)
(-0.00141756 0 -0.000187314)
(-0.00139165 0 -0.000236291)
(-0.00135793 0 -0.000208946)
(-0.00134772 0 -0.000156752)
(-0.00134213 0 -0.000131162)
(-0.00131167 0 -5.82549e-05)
(-0.00126834 0 -6.72476e-05)
(-0.00124746 0 -6.85403e-05)
(-0.00122611 0 -7.6357e-05)
(-0.00120044 0 -4.27264e-05)
(-0.00118239 0 -5.79735e-05)
(-0.00117807 0 -6.79922e-05)
(-0.00117323 0 -9.43275e-05)
(-0.00111608 0 -8.61248e-05)
(-0.00106281 0 -0.000101151)
(-0.00102274 0 -0.000164972)
(-0.000960239 0 -0.000232055)
(-0.000854836 0 -0.000242761)
(-0.000766375 0 -0.000199819)
(-0.000692576 0 -0.000226965)
(-0.000617395 0 -0.000309439)
(-0.000557982 0 -0.000330682)
(-0.000498196 0 -0.000362787)
(-0.000457272 0 -0.000401904)
(-0.000405064 0 -0.000460253)
(-0.000365181 0 -0.000467419)
(-0.000317143 0 -0.000485618)
(-0.000244732 0 -0.000505724)
(-0.000218325 0 -0.000422645)
(-9.71572e-05 0 -0.000393014)
(-1.66792e-05 0 -0.000281928)
(0.00012607 0 -0.00020887)
(0.000176298 0 -0.00016223)
(0.000216779 0 -0.000123166)
(0.000247128 0 -9.65304e-05)
(0.00026502 0 -0.000125467)
(0.000307241 0 -9.02502e-05)
(0.000341019 0 -2.79787e-05)
(0.000344777 0 -9.17556e-05)
(0.000364784 0 -6.4996e-05)
(0.000368239 0 -3.43598e-05)
(0.000379885 0 4.92637e-06)
(0.000407893 0 2.29953e-05)
(0.000438351 0 7.43131e-05)
(0.000475994 0 0.000108479)
(0.000500831 0 0.000205224)
(0.0005649 0 0.000252877)
(0.000580964 0 0.000381296)
(0.000600008 0 0.00036291)
(0.000538838 0 0.000392011)
(0.000552129 0 0.000246871)
(2.3071e-05 0 0.000148269)
(9.1909e-06 0 0.000364325)
(-5.17924e-13 0 9.6789e-13)
(-7.03426e-13 0 -9.11611e-13)
(5.92792e-13 0 -4.94272e-13)
(4.95134e-13 0 -2.70123e-13)
(4.08865e-13 0 -1.78234e-13)
(3.61996e-13 0 -1.49757e-13)
(3.49845e-13 0 -1.47271e-13)
(3.61431e-13 0 -1.53035e-13)
(3.87424e-13 0 -1.59122e-13)
(4.21269e-13 0 -1.62201e-13)
(4.58585e-13 0 -1.6103e-13)
(4.9637e-13 0 -1.55307e-13)
(5.32429e-13 0 -1.45163e-13)
(5.65092e-13 0 -1.30982e-13)
(5.9315e-13 0 -1.13349e-13)
(6.15814e-13 0 -9.29628e-14)
(6.32646e-13 0 -7.05849e-14)
(6.43504e-13 0 -4.69761e-14)
(6.48463e-13 0 -2.28385e-14)
(6.47717e-13 0 1.23367e-15)
(6.41515e-13 0 2.47774e-14)
(6.30146e-13 0 4.74518e-14)
(6.13938e-13 0 6.90162e-14)
(5.93233e-13 0 8.93081e-14)
(5.68371e-13 0 1.08222e-13)
(5.39694e-13 0 1.25686e-13)
(5.07558e-13 0 1.41641e-13)
(4.72349e-13 0 1.56033e-13)
(4.34465e-13 0 1.68821e-13)
(3.94289e-13 0 1.79991e-13)
(3.52164e-13 0 1.89565e-13)
(3.08392e-13 0 1.97606e-13)
(2.63244e-13 0 2.04204e-13)
(2.16965e-13 0 2.09474e-13)
(1.69794e-13 0 2.13535e-13)
(1.21957e-13 0 2.16501e-13)
(7.36745e-14 0 2.18461e-13)
(2.47243e-14 0 2.19472e-13)
(-8.96726e-05 0 -0.000230873)
(-6.72485e-06 0 -0.000129359)
(-9.26872e-05 0 -4.36296e-06)
(-0.000145248 0 0.000126524)
(-0.000108191 0 0.000225065)
(-0.000281994 0 0.000313857)
(-0.00038422 0 0.000458154)
(-0.000358365 0 0.000660828)
(-0.000436824 0 0.000806337)
(-0.000812393 0 0.00065596)
(-0.000812271 0 0.000723575)
(-0.000836908 0 0.000699077)
(-0.00085659 0 0.00061831)
(-0.000885047 0 0.000564542)
(-0.000957235 0 0.00047506)
(-0.000989538 0 0.0004436)
(-0.0010298 0 0.000365776)
(-0.00109735 0 0.00011576)
(-0.00111518 0 0.000211065)
(-0.00114987 0 0.000170001)
(-0.00116436 0 0.000150814)
(-0.00123106 0 5.63313e-05)
(-0.00127704 0 1.97855e-05)
(-0.00128504 0 -7.46108e-06)
(-0.00128692 0 -4.6424e-05)
(-0.00134489 0 -0.000132413)
(-0.00137854 0 -0.000133469)
(-0.00138211 0 -0.000159866)
(-0.00138117 0 -0.000173462)
(-0.00140871 0 -0.000181489)
(-0.00141821 0 -0.000189281)
(-0.0013959 0 -0.000209443)
(-0.00137529 0 -0.000160987)
(-0.00135704 0 -6.33828e-05)
(-0.00131816 0 -6.65778e-05)
(-0.00129426 0 -8.71925e-05)
(-0.00127713 0 -3.76151e-05)
(-0.00123739 0 -8.6402e-05)
(-0.00119829 0 -6.70251e-05)
(-0.00116754 0 -0.00010139)
(-0.00114268 0 -0.000167474)
(-0.00110349 0 -0.000213816)
(-0.0010596 0 -0.000128942)
(-0.00101358 0 -0.000180658)
(-0.000980914 0 -0.000259635)
(-0.000933153 0 -0.000285376)
(-0.000815401 0 -0.000313621)
(-0.000724288 0 -0.000299267)
(-0.000630977 0 -0.000348197)
(-0.000579913 0 -0.000346561)
(-0.000509574 0 -0.000386979)
(-0.000487641 0 -0.000384354)
(-0.000455676 0 -0.00042543)
(-0.000425791 0 -0.000487072)
(-0.000417269 0 -0.000504659)
(-0.000380989 0 -0.000534564)
(-0.000351027 0 -0.000531049)
(-0.000338894 0 -0.00044353)
(-0.000310658 0 -0.000364582)
(-0.000174407 0 -0.000375341)
(-8.41611e-05 0 -0.00033658)
(5.70294e-05 0 -0.000231298)
(0.000144221 0 -0.00014887)
(0.00015657 0 -0.000130588)
(0.00018431 0 -0.000118841)
(0.000208882 0 -0.000112143)
(0.000226576 0 -0.000107283)
(0.000254235 0 -8.38467e-05)
(0.000267499 0 -6.27126e-05)
(0.000271314 0 -4.86402e-05)
(0.000285462 0 -2.74517e-05)
(0.00031331 0 -1.13953e-05)
(0.000342513 0 8.9521e-06)
(0.000364842 0 7.72946e-05)
(0.000397248 0 0.000160043)
(0.000435399 0 0.000277559)
(0.000546584 0 0.000289049)
(0.000519793 0 0.000405921)
(0.000500237 0 0.000406324)
(0.000474515 0 0.000375808)
(-1.54178e-05 0 0.000286553)
(1.05529e-05 0 0.000657104)
(-4.11916e-13 0 6.40568e-12)
(-4.23218e-13 0 -1.09766e-12)
(9.54026e-13 0 -2.76806e-13)
(6.47627e-13 0 -8.65534e-14)
(4.49527e-13 0 -8.03505e-14)
(3.60199e-13 0 -1.14014e-13)
(3.36364e-13 0 -1.49349e-13)
(3.48277e-13 0 -1.76685e-13)
(3.78865e-13 0 -1.94327e-13)
(4.18516e-13 0 -2.02817e-13)
(4.61687e-13 0 -2.03203e-13)
(5.04962e-13 0 -1.9654e-13)
(5.4598e-13 0 -1.83749e-13)
(5.82947e-13 0 -1.65686e-13)
(6.14546e-13 0 -1.43233e-13)
(6.39921e-13 0 -1.1731e-13)
(6.58606e-13 0 -8.88674e-14)
(6.70487e-13 0 -5.88505e-14)
(6.75718e-13 0 -2.81555e-14)
(6.7462e-13 0 2.42538e-15)
(6.67583e-13 0 3.22465e-14)
(6.55032e-13 0 6.08226e-14)
(6.37402e-13 0 8.78155e-14)
(6.15125e-13 0 1.13011e-13)
(5.88602e-13 0 1.3629e-13)
(5.58209e-13 0 1.57598e-13)
(5.2432e-13 0 1.76916e-13)
(4.87331e-13 0 1.94239e-13)
(4.47657e-13 0 2.09573e-13)
(4.0571e-13 0 2.22946e-13)
(3.61868e-13 0 2.34413e-13)
(3.16468e-13 0 2.44059e-13)
(2.69803e-13 0 2.52001e-13)
(2.22133e-13 0 2.58369e-13)
(1.73694e-13 0 2.63297e-13)
(1.24696e-13 0 2.66908e-13)
(7.53273e-14 0 2.69298e-13)
(2.52865e-14 0 2.70526e-13)
(3.92682e-05 0 -0.000235482)
(-4.65486e-05 0 -8.93202e-05)
(-0.000105263 0 6.48348e-05)
(-0.000227008 0 0.000198734)
(-0.000144699 0 0.000364121)
(-0.000602376 0 0.000345889)
(-0.000784185 0 0.000428431)
(-0.00084881 0 0.000487231)
(-0.000634915 0 0.000813397)
(-0.000732954 0 0.000800507)
(-0.000800156 0 0.000754917)
(-0.00078136 0 0.000777645)
(-0.000842649 0 0.000670113)
(-0.000864855 0 0.00059662)
(-0.000901718 0 0.000503911)
(-0.000915639 0 0.000433047)
(-0.000918872 0 0.00040269)
(-0.000983014 0 0.000268933)
(-0.00100663 0 0.000258372)
(-0.0010073 0 0.00024633)
(-0.00102182 0 0.000193802)
(-0.00111667 0 6.17996e-05)
(-0.00114699 0 6.77442e-05)
(-0.00114759 0 4.4048e-05)
(-0.00120967 0 -7.16109e-05)
(-0.00127884 0 -2.79543e-05)
(-0.00128968 0 -6.21212e-05)
(-0.00128227 0 -0.000106847)
(-0.00132987 0 -0.000220554)
(-0.00137414 0 -0.000217929)
(-0.00137426 0 -0.000218341)
(-0.00136614 0 -0.000210683)
(-0.00137057 0 -0.000198964)
(-0.001345 0 -0.000169757)
(-0.00131438 0 -0.000141111)
(-0.00129653 0 -0.000100704)
(-0.00125746 0 -9.66899e-05)
(-0.00120157 0 -0.000135402)
(-0.00115923 0 -9.46738e-05)
(-0.00112921 0 -0.000120167)
(-0.00111934 0 -0.000141673)
(-0.00109532 0 -0.000185758)
(-0.00103048 0 -0.000213412)
(-0.000980882 0 -0.000256637)
(-0.000949439 0 -0.000306732)
(-0.000891382 0 -0.000364237)
(-0.00076435 0 -0.000419741)
(-0.000712046 0 -0.00033737)
(-0.000606782 0 -0.000389292)
(-0.000559463 0 -0.000369179)
(-0.000470191 0 -0.000416579)
(-0.000410724 0 -0.000443445)
(-0.000442778 0 -0.000417454)
(-0.000421334 0 -0.000501257)
(-0.000437742 0 -0.000524304)
(-0.000428982 0 -0.000545066)
(-0.000411686 0 -0.000556612)
(-0.000378747 0 -0.000526194)
(-0.000327333 0 -0.000474484)
(-0.000280711 0 -0.000409784)
(-0.000221551 0 -0.000341746)
(-0.000133632 0 -0.000314741)
(-4.88836e-05 0 -0.000267779)
(4.12086e-05 0 -0.000183515)
(9.51036e-05 0 -0.00015567)
(0.000114678 0 -0.000140045)
(0.000140618 0 -0.000117857)
(0.000157522 0 -0.000101902)
(0.000173642 0 -8.05699e-05)
(0.000188901 0 -6.12723e-05)
(0.000205535 0 -5.64462e-05)
(0.000234955 0 -2.02085e-05)
(0.000255084 0 -4.41264e-06)
(0.000272625 0 5.06668e-05)
(0.00032982 0 6.15254e-05)
(0.000342428 0 0.000230484)
(0.000417112 0 0.000291621)
(0.000503096 0 0.000314543)
(0.0004033 0 0.00045108)
(0.000414789 0 0.000426636)
(3.0154e-05 0 0.000389043)
(4.64877e-05 0 0.000763365)
(-4.69775e-12 0 3.12919e-09)
(-2.0661e-12 0 2.4558e-12)
(1.60426e-12 0 6.78531e-13)
(6.9193e-13 0 2.80755e-13)
(3.81516e-13 0 5.68802e-14)
(2.92998e-13 0 -7.73739e-14)
(2.87174e-13 0 -1.603e-13)
(3.16452e-13 0 -2.10945e-13)
(3.61292e-13 0 -2.39593e-13)
(4.12393e-13 0 -2.52298e-13)
(4.64862e-13 0 -2.52871e-13)
(5.15824e-13 0 -2.43862e-13)
(5.63283e-13 0 -2.27068e-13)
(6.05608e-13 0 -2.03871e-13)
(6.41526e-13 0 -1.75492e-13)
(6.70179e-13 0 -1.43089e-13)
(6.91105e-13 0 -1.07798e-13)
(7.04216e-13 0 -7.07294e-14)
(7.09739e-13 0 -3.29431e-14)
(7.08119e-13 0 4.59647e-15)
(6.99912e-13 0 4.10732e-14)
(6.85715e-13 0 7.58564e-14)
(6.66126e-13 0 1.08507e-13)
(6.41707e-13 0 1.38758e-13)
(6.12959e-13 0 1.66483e-13)
(5.8032e-13 0 1.91653e-13)
(5.44198e-13 0 2.14298e-13)
(5.05006e-13 0 2.34474e-13)
(4.63172e-13 0 2.52253e-13)
(4.19128e-13 0 2.67717e-13)
(3.73277e-13 0 2.80965e-13)
(3.25981e-13 0 2.9212e-13)
(2.77553e-13 0 3.01321e-13)
(2.28261e-13 0 3.08718e-13)
(1.78333e-13 0 3.14457e-13)
(1.27958e-13 0 3.1867e-13)
(7.72922e-14 0 3.21455e-13)
(2.59519e-14 0 3.22875e-13)
(-6.31918e-05 0 -0.000192356)
(-4.83727e-05 0 -7.00846e-05)
(-8.30304e-05 0 0.000136283)
(-0.000198528 0 0.00032544)
(-0.000181055 0 0.000477982)
(-0.000349193 0 0.000647316)
(-0.000330282 0 0.000819854)
(-0.000546866 0 0.000844447)
(-0.000680824 0 0.000826072)
(-0.000719852 0 0.000838388)
(-0.000734309 0 0.000832652)
(-0.00080469 0 0.000738564)
(-0.000822044 0 0.000674717)
(-0.000835689 0 0.000606073)
(-0.000858846 0 0.000497223)
(-0.000846894 0 0.000428791)
(-0.000835197 0 0.00038414)
(-0.000863915 0 0.000309032)
(-0.000897821 0 0.000251868)
(-0.000907867 0 0.000197896)
(-0.000950074 0 0.000149823)
(-0.000993914 0 0.000214091)
(-0.00102005 0 0.000178284)
(-0.00104703 0 3.40599e-05)
(-0.0011016 0 4.68097e-05)
(-0.0011474 0 5.68913e-05)
(-0.00116391 0 -6.66969e-05)
(-0.00117905 0 -0.000168511)
(-0.00124618 0 -7.94433e-05)
(-0.00126939 0 -7.4835e-05)
(-0.00126222 0 -0.000207495)
(-0.00128026 0 -0.000259169)
(-0.00131066 0 -0.00017466)
(-0.00130951 0 -0.000164499)
(-0.00127979 0 -0.00014734)
(-0.00124042 0 -0.000119123)
(-0.00120382 0 -0.000120028)
(-0.00116086 0 -0.000165001)
(-0.00112037 0 -0.000139617)
(-0.00109118 0 -0.000164171)
(-0.00108385 0 -0.000191745)
(-0.00108595 0 -0.000208351)
(-0.0010219 0 -0.000248186)
(-0.00095662 0 -0.000287158)
(-0.000905386 0 -0.000362126)
(-0.000873842 0 -0.000369382)
(-0.000700108 0 -0.000582048)
(-0.000715197 0 -0.00044371)
(-0.000547513 0 -0.000566163)
(-0.000571015 0 -0.000444404)
(-0.000441424 0 -0.000482031)
(-0.000397092 0 -0.000444171)
(-0.000427404 0 -0.000403707)
(-0.000400108 0 -0.000484935)
(-0.000444146 0 -0.000529606)
(-0.000434019 0 -0.00056369)
(-0.00042954 0 -0.000574917)
(-0.000393697 0 -0.000580316)
(-0.000371157 0 -0.000541404)
(-0.000332514 0 -0.00049854)
(-0.000294785 0 -0.000426781)
(-0.000204902 0 -0.000371195)
(-0.000138825 0 -0.000310045)
(-9.97603e-05 0 -0.000243041)
(-2.89507e-05 0 -0.00018832)
(3.57089e-05 0 -0.000152552)
(7.17044e-05 0 -0.00012968)
(6.84268e-05 0 -0.00011764)
(8.62088e-05 0 -9.76658e-05)
(0.000103917 0 -8.31131e-05)
(0.000124818 0 -7.54634e-05)
(0.000149878 0 -5.78825e-05)
(0.000173018 0 -9.35446e-06)
(0.000199191 0 -5.62817e-06)
(0.000213117 0 0.000116762)
(0.000310621 0 0.000134502)
(0.000250364 0 0.000328948)
(0.000368949 0 0.000345814)
(0.000315843 0 0.000463592)
(0.000349276 0 0.000467792)
(-1.17327e-05 0 0.000464491)
(-1.9939e-05 0 0.000903101)
(8.63855e-06 0 3.21174e-05)
(-2.40642e-12 0 3.13832e-12)
(-9.55049e-13 0 1.25688e-12)
(2.63709e-14 0 4.74161e-13)
(9.14888e-14 0 1.04174e-13)
(1.43019e-13 0 -9.26606e-14)
(2.02793e-13 0 -2.04315e-13)
(2.68984e-13 0 -2.68134e-13)
(3.37512e-13 0 -3.01922e-13)
(4.05238e-13 0 -3.15116e-13)
(4.70123e-13 0 -3.13185e-13)
(5.30764e-13 0 -2.99621e-13)
(5.85971e-13 0 -2.76857e-13)
(6.34523e-13 0 -2.46745e-13)
(6.75328e-13 0 -2.10861e-13)
(7.07615e-13 0 -1.70629e-13)
(7.30966e-13 0 -1.27387e-13)
(7.45342e-13 0 -8.24003e-14)
(7.51044e-13 0 -3.68576e-14)
(7.48636e-13 0 8.15215e-15)
(7.38843e-13 0 5.16836e-14)
(7.22465e-13 0 9.29846e-14)
(7.00304e-13 0 1.31524e-13)
(6.73101e-13 0 1.66986e-13)
(6.41497e-13 0 1.9924e-13)
(6.06024e-13 0 2.2829e-13)
(5.67141e-13 0 2.54223e-13)
(5.25286e-13 0 2.77171e-13)
(4.809e-13 0 2.97279e-13)
(4.34423e-13 0 3.147e-13)
(3.86272e-13 0 3.29591e-13)
(3.36824e-13 0 3.42119e-13)
(2.864e-13 0 3.52456e-13)
(2.3527e-13 0 3.60774e-13)
(1.83646e-13 0 3.67235e-13)
(1.31694e-13 0 3.71976e-13)
(7.95325e-14 0 3.75103e-13)
(2.6706e-14 0 3.76682e-13)
(-2.87022e-05 0 -0.000173951)
(-7.91074e-05 0 -5.33136e-05)
(-0.000144687 0 0.000195559)
(-0.000106347 0 0.000442241)
(-5.96539e-05 0 0.000566799)
(-0.000453395 0 0.000649495)
(-0.000367561 0 0.000863809)
(-0.000505851 0 0.000891427)
(-0.000598297 0 0.000891344)
(-0.000685928 0 0.000862659)
(-0.000695771 0 0.000863806)
(-0.000734842 0 0.000793926)
(-0.000764862 0 0.000699059)
(-0.000747736 0 0.00065122)
(-0.000771093 0 0.000540579)
(-0.000759242 0 0.000477716)
(-0.000771964 0 0.000397362)
(-0.000787111 0 0.000339052)
(-0.000807803 0 0.000305105)
(-0.000840342 0 0.000257193)
(-0.000872484 0 0.000231227)
(-0.000907973 0 0.000203216)
(-0.000930822 0 0.000148197)
(-0.000954812 0 3.28706e-05)
(-0.000988121 0 -3.08128e-05)
(-0.00103464 0 5.23406e-05)
(-0.00107499 0 -1.65019e-05)
(-0.00109977 0 -0.000104356)
(-0.00111295 0 -9.65486e-05)
(-0.00110894 0 -0.000155326)
(-0.00113318 0 -0.00018128)
(-0.00117472 0 -0.000144295)
(-0.00117806 0 -0.000162912)
(-0.00116077 0 -0.000184386)
(-0.00114604 0 -0.000186497)
(-0.00112591 0 -0.000210032)
(-0.0010974 0 -0.000225615)
(-0.00107673 0 -0.000195424)
(-0.00105627 0 -0.000196474)
(-0.00104303 0 -0.000218015)
(-0.00104057 0 -0.000232712)
(-0.00103582 0 -0.00023214)
(-0.00097052 0 -0.000262881)
(-0.000845178 0 -0.000470863)
(-0.000835965 0 -0.000402506)
(-0.00080479 0 -0.000435265)
(-0.000698129 0 -0.000585686)
(-0.000729357 0 -0.000461429)
(-0.00057774 0 -0.00060745)
(-0.000573938 0 -0.000563006)
(-0.000452644 0 -0.000571632)
(-0.000378238 0 -0.000493637)
(-0.000413955 0 -0.000411775)
(-0.000362146 0 -0.000460893)
(-0.000401891 0 -0.000519489)
(-0.000434981 0 -0.000564139)
(-0.000433573 0 -0.00058068)
(-0.000423377 0 -0.00057966)
(-0.000414401 0 -0.000552592)
(-0.000378805 0 -0.000535303)
(-0.000341714 0 -0.000504864)