0 	0 	0 	0
0.010101 	-3.31636e-22 	-1.75459e-27 	-1.2152e-23
0.020202 	2.72459e-26 	-5.76869e-28 	-3.76479e-26
