/*--------------------------------*- C++ -*----------------------------------*\
  =========                 |
  \\      /  F ield         | OpenFOAM: The Open Source CFD Toolbox
   \\    /   O peration     | Website:  https://openfoam.org
    \\  /    A nd           | Version:  6
     \\/     M anipulation  |
\*---------------------------------------------------------------------------*/
FoamFile
{
    version     2.0;
    format      ascii;
    class       surfaceScalarField;
    location    "2550";
    object      phi;
}
// * * * * * * * * * * * * * * * * * * * * * * * * * * * * * * * * * * * * * //

dimensions      [0 3 -1 0 0 0 0];

internalField   nonuniform List<scalar> 
9440
(
9.39705e-11
-9.39705e-11
1.57833e-10
-6.38605e-11
-7.26229e-11
2.30457e-10
-9.57148e-11
2.3093e-11
-4.72658e-10
3.76944e-10
-1.51015e-09
1.0375e-09
-2.08828e-09
5.78126e-10
-2.67716e-09
5.8888e-10
-2.99162e-09
3.14468e-10
-3.25799e-09
2.6637e-10
-3.42823e-09
1.70235e-10
-3.52132e-09
9.30973e-11
-3.5628e-09
4.14833e-11
-3.55533e-09
-7.46932e-12
-3.44646e-09
-1.08877e-10
-3.38439e-09
-6.20609e-11
-3.03803e-09
-3.46358e-10
-2.2342e-09
-8.03838e-10
-2.26589e-09
3.16976e-11
-1.7176e-09
-5.48287e-10
-1.49405e-09
-2.23552e-10
-1.1193e-09
-3.74751e-10
-5.53171e-10
-5.66126e-10
4.08693e-10
-9.61862e-10
5.72458e-10
-1.63764e-10
8.47862e-10
-2.75404e-10
1.1938e-09
-3.45939e-10
1.21119e-09
-1.73872e-11
1.56627e-09
-3.55083e-10
1.87698e-09
-3.10707e-10
2.1457e-09
-2.6872e-10
2.49445e-09
-3.48752e-10
2.88978e-09
-3.9533e-10
2.94057e-09
-5.07866e-11
3.14096e-09
-2.00391e-10
3.44868e-09
-3.0772e-10
3.62241e-09
-1.73725e-10
3.6637e-09
-4.12909e-11
3.8033e-09
-1.39602e-10
3.91116e-09
-1.0786e-10
3.94785e-09
-3.66924e-11
3.99672e-09
-4.88612e-11
4.08615e-09
-8.94335e-11
4.11859e-09
-3.2442e-11
4.13226e-09
-1.36738e-11
4.13377e-09
-1.50965e-12
4.11649e-09
1.72803e-11
4.08749e-09
2.90036e-11
4.05105e-09
3.6439e-11
4.02672e-09
2.43302e-11
3.98664e-09
4.0078e-11
3.96139e-09
2.52565e-11
3.92991e-09
3.14774e-11
3.88945e-09
4.04616e-11
3.85683e-09
3.26188e-11
3.83365e-09
2.31773e-11
3.79962e-09
3.4027e-11
3.77154e-09
2.80806e-11
3.73153e-09
4.00098e-11
3.68972e-09
4.18082e-11
3.60819e-09
8.15351e-11
3.54271e-09
6.54803e-11
3.43616e-09
1.06555e-10
3.31705e-09
1.1911e-10
3.20091e-09
1.1614e-10
3.05791e-09
1.42992e-10
2.86039e-09
1.97528e-10
2.792e-09
6.83843e-11
2.4277e-09
3.64308e-10
2.01914e-09
4.08555e-10
1.09291e-09
9.26238e-10
-1.01095e-10
1.194e-09
-6.65127e-10
5.64033e-10
-1.21503e-09
5.49905e-10
-1.39255e-09
1.77518e-10
-1.07486e-09
-3.17684e-10
-7.54816e-10
-3.20044e-10
-4.07812e-10
-3.47003e-10
1.87209e-10
-5.95019e-10
-7.6764e-16
1.87211e-10
-8.3506e-18
6.74544e-19
-5.82104e-18
-2.52956e-18
-4.51338e-18
-1.3057e-18
-4.04734e-18
-4.63669e-19
-3.93058e-18
-1.14154e-19
-3.88773e-18
-3.99958e-20
-3.80384e-18
-8.08287e-20
-3.64398e-18
-1.56578e-19
-3.40676e-18
-2.33757e-19
-3.10282e-18
-3.00298e-19
-2.74624e-18
-3.52835e-19
-2.35123e-18
-3.91191e-19
-1.93119e-18
-4.16224e-19
-1.49834e-18
-4.29071e-19
-1.06369e-18
-4.30919e-19
-6.37043e-19
-4.22971e-19
-2.26982e-19
-4.06445e-19
1.59155e-19
-3.82583e-19
5.15266e-19
-3.52641e-19
8.3649e-19
-3.17873e-19
1.11918e-18
-2.79496e-19
1.36084e-18
-2.38669e-19
1.56007e-18
-1.96461e-19
1.71643e-18
-1.53831e-19
1.83033e-18
-1.11618e-19
1.90291e-18
-7.05315e-20
1.9359e-18
-3.11513e-20
1.93148e-18
6.06299e-21
1.8922e-18
4.07657e-20
1.82083e-18
7.27109e-20
1.72031e-18
1.01738e-19
1.59367e-18
1.27757e-19
1.44396e-18
1.50733e-19
1.27424e-18
1.70674e-19
1.08751e-18
1.87616e-19
8.86735e-19
2.0161e-19
6.7481e-19
2.12718e-19
4.54565e-19
2.21004e-19
2.28754e-19
2.26545e-19
2.29474e-19
1.24214e-10
-2.18183e-10
-2.77862e-10
3.38218e-10
-1.11296e-09
1.06556e-09
-1.86642e-09
7.76549e-10
-2.04286e-09
5.53393e-10
-2.22582e-09
1.22045e-09
-2.42218e-09
7.74494e-10
-2.73557e-09
9.02269e-10
-3.08247e-09
6.61368e-10
-3.16334e-09
3.4724e-10
-3.51781e-09
5.24709e-10
-3.59603e-09
1.71326e-10
-3.67717e-09
1.2262e-10
-3.72298e-09
3.83458e-11
-3.67686e-09
-1.54999e-10
-3.6019e-09
-1.37016e-10
-3.36914e-09
-5.79115e-10
-3.00618e-09
-1.1668e-09
-2.6202e-09
-3.54275e-10
-2.33938e-09
-8.29107e-10
-1.75807e-09
-8.04861e-10
-1.39339e-09
-7.39435e-10
-6.30697e-10
-1.32881e-09
-7.43471e-11
-1.51821e-09
2.82955e-10
-5.21065e-10
5.99517e-10
-5.91964e-10
9.17392e-10
-6.63812e-10
1.14882e-09
-2.48813e-10
1.36072e-09
-5.66987e-10
1.81347e-09
-7.63451e-10
2.0755e-09
-5.30752e-10
2.41204e-09
-6.85286e-10
2.7067e-09
-6.89992e-10
2.94228e-09
-2.8637e-10
3.12254e-09
-3.80643e-10
3.27429e-09
-4.59478e-10
3.42145e-09
-3.20879e-10
3.56809e-09
-1.87928e-10
3.65845e-09
-2.29968e-10
3.81567e-09
-2.65082e-10
3.96297e-09
-1.83985e-10
4.04775e-09
-1.3364e-10
3.98069e-09
-2.23808e-11
3.91474e-09
3.3515e-11
3.8467e-09
5.43654e-11
3.79529e-09
4.98916e-11
3.73359e-09
7.89809e-11
3.68924e-09
7.33578e-11
3.67875e-09
4.69242e-11
3.68098e-09
2.21053e-11
3.66247e-09
5.85857e-11
3.66691e-09
2.08161e-11
3.64243e-09
5.59535e-11
3.58694e-09
9.59554e-11
3.52859e-09
9.09702e-11
3.47787e-09
7.39e-11
3.41776e-09
9.41329e-11
3.37159e-09
7.42547e-11
3.33687e-09
7.47227e-11
3.3031e-09
7.55773e-11
3.23245e-09
1.52186e-10
3.18004e-09
1.17896e-10
3.07056e-09
2.16035e-10
2.99789e-09
1.91781e-10
2.82451e-09
2.8952e-10
2.86938e-09
9.81252e-11
2.54833e-09
5.1858e-10
2.60898e-09
7.73967e-12
2.13115e-09
8.4214e-10
2.06432e-09
4.75381e-10
1.94956e-09
1.041e-09
1.97509e-09
1.16847e-09
1.39632e-09
1.14281e-09
9.00081e-10
1.04615e-09
3.63741e-10
7.1386e-10
-1.41395e-10
1.87453e-10
1.49399e-10
-6.10835e-10
5.02132e-10
-6.99734e-10
3.96423e-10
-4.89307e-10
-5.99883e-16
5.83637e-10
-8.66083e-18
3.36789e-18
-4.59769e-18
-6.59046e-18
-3.67141e-18
-2.22789e-18
-3.69779e-18
-4.32687e-19
-3.85642e-18
4.94742e-20
-3.92856e-18
3.75759e-20
-3.87959e-18
-1.23993e-19
-3.72116e-18
-3.08852e-19
-3.4733e-18
-4.75191e-19
-3.15536e-18
-6.11605e-19
-2.78459e-18
-7.16868e-19
-2.37627e-18
-7.92765e-19
-1.94404e-18
-8.41751e-19
-1.50019e-18
-8.66305e-19
-1.05574e-18
-8.68844e-19
-6.20517e-19
-8.51776e-19
-2.03119e-19
-8.17547e-19
1.89096e-19
-7.68664e-19
5.50034e-19
-7.07663e-19
8.74866e-19
-6.37073e-19
1.16001e-18
-5.59352e-19
1.40305e-18
-4.76826e-19
1.6027e-18
-3.91643e-19
1.75864e-18
-3.05726e-19
1.87141e-18
-2.20753e-19
1.94229e-18
-1.38139e-19
1.97311e-18
-5.9041e-20
1.96619e-18
1.56311e-20
1.92414e-18
8.51958e-20
1.84986e-18
1.49173e-19
1.74633e-18
2.07254e-19
1.61664e-18
2.59274e-19
1.4639e-18
3.05175e-19
1.29118e-18
3.44985e-19
1.1015e-18
3.78785e-19
8.97843e-19
4.06689e-19
6.83097e-19
4.28825e-19
4.60106e-19
4.45314e-19
2.31683e-19
4.56261e-19
4.61721e-19
-5.90781e-10
3.72599e-10
-9.42689e-10
6.90128e-10
-1.35471e-09
1.47758e-09
-1.85251e-09
1.27435e-09
-2.49419e-09
1.19507e-09
-2.56218e-09
1.28844e-09
-2.85994e-09
1.07226e-09
-2.98512e-09
1.02745e-09
-3.0032e-09
6.7945e-10
-3.36268e-09
7.06728e-10
-3.51757e-09
6.79597e-10
-3.62848e-09
2.82233e-10
-3.69921e-09
1.93356e-10
-3.75311e-09
9.22511e-11
-3.62725e-09
-2.80859e-10
-3.41983e-09
-3.44436e-10
-3.24409e-09
-7.54859e-10
-3.25744e-09
-1.15344e-09
-2.62746e-09
-9.84256e-10
-2.47195e-09
-9.84617e-10
-1.86052e-09
-1.41629e-09
-1.40328e-09
-1.19668e-09
-8.4804e-10
-1.88405e-09
-7.72847e-10
-1.5934e-09
-9.58252e-11
-1.19809e-09
2.60494e-10
-9.48282e-10
4.62618e-10
-8.65935e-10
9.36523e-10
-7.22717e-10
1.12933e-09
-7.59789e-10
1.47495e-09
-1.10907e-09
1.94676e-09
-1.00256e-09
2.097e-09
-8.35532e-10
2.37976e-09
-9.7275e-10
2.66225e-09
-5.68852e-10
2.69286e-09
-4.11255e-10
2.70195e-09
-4.68571e-10
2.86734e-09
-4.86269e-10
3.08295e-09
-4.03539e-10
3.24445e-09
-3.91465e-10
3.3288e-09
-3.49432e-10
3.38437e-09
-2.39552e-10
3.5e-09
-2.49276e-10
3.51618e-09
-3.85619e-11
3.51094e-09
3.876e-11
3.51688e-09
4.84195e-11
3.45707e-09
1.09702e-10
3.39117e-09
1.44881e-10
3.36803e-09
9.65057e-11
3.33625e-09
7.86944e-11
3.27758e-09
8.0777e-11
3.22355e-09
1.12619e-10
3.19111e-09
5.32543e-11
3.14048e-09
1.06585e-10
3.0727e-09
1.63733e-10
3.00395e-09
1.5972e-10
2.94086e-09
1.36989e-10
2.90491e-09
1.30082e-10
2.87234e-09
1.0683e-10
2.82998e-09
1.17081e-10
2.76686e-09
1.38694e-10
2.74026e-09
1.78789e-10
2.66374e-09
1.94417e-10
2.63551e-09
2.44265e-10
2.58425e-09
2.43042e-10
2.53063e-09
3.43144e-10
2.42785e-09
2.00908e-10
2.29946e-09
6.46965e-10
2.08539e-09
2.21819e-10
2.40313e-09
5.24392e-10
2.15236e-09
7.26153e-10
2.16641e-09
1.02696e-09
2.13946e-09
1.19541e-09
1.88771e-09
1.39456e-09
1.53521e-09
1.39866e-09
1.30223e-09
9.46841e-10
8.26409e-10
6.63274e-10
5.60985e-10
-3.4541e-10
2.54151e-10
-3.92898e-10
5.91733e-11
-2.94328e-10
-4.42679e-13
6.43254e-10
-6.43064e-18
-4.4217e-13
-2.34999e-19
-1.27839e-17
-1.87598e-18
-5.8373e-19
-3.21553e-18
9.10577e-19
-3.86832e-18
7.06363e-19
-4.09013e-18
2.6389e-19
-4.06445e-18
-1.44824e-19
-3.8875e-18
-4.80628e-19
-3.60971e-18
-7.47556e-19
-3.26062e-18
-9.55089e-19
-2.86049e-18
-1.1113e-18
-2.42525e-18
-1.22227e-18
-1.96859e-18
-1.2927e-18
-1.50273e-18
-1.3265e-18
-1.03867e-18
-1.32729e-18
-5.86289e-19
-1.29861e-18
-1.54236e-19
-1.24415e-18
2.50096e-19
-1.16767e-18
6.20624e-19
-1.07304e-18
9.52588e-19
-9.64132e-19
1.24253e-18
-8.44687e-19
1.48823e-18
-7.18262e-19
1.68862e-18
-5.88122e-19
1.84361e-18
-4.57186e-19
1.95403e-18
-3.27983e-19
2.02139e-18
-2.02637e-19
2.04779e-18
-8.28706e-20
2.03575e-18
2.99772e-20
1.98812e-18
1.34915e-19
1.90794e-18
2.31258e-19
1.79835e-18
3.18582e-19
1.66254e-18
3.96675e-19
1.50371e-18
4.65491e-19
1.32498e-18
5.251e-19
1.12941e-18
5.75656e-19
9.19979e-19
6.17352e-19
6.99586e-19
6.50399e-19
4.71053e-19
6.74992e-19
2.37143e-19
6.91293e-19
6.99411e-19
-6.10493e-10
9.83093e-10
-1.46429e-09
1.54393e-09
-1.63567e-09
1.64897e-09
-1.94792e-09
1.5866e-09
-2.21684e-09
1.46399e-09
-2.50268e-09
1.57428e-09
-2.81008e-09
1.37965e-09
-2.98256e-09
1.19994e-09
-3.10789e-09
8.04774e-10
-3.33068e-09
9.29519e-10
-3.40284e-09
7.51762e-10
-3.50411e-09
3.83504e-10
-3.49784e-09
1.87091e-10
-3.4684e-09
6.28112e-11
-3.31717e-09
-4.32089e-10
-3.16239e-09
-4.99215e-10
-3.09891e-09
-8.18336e-10
-3.04564e-09
-1.20671e-09
-2.63034e-09
-1.39955e-09
-2.34732e-09
-1.26764e-09
-1.97111e-09
-1.79248e-09
-1.48226e-09
-1.68553e-09
-1.1279e-09
-2.23841e-09
-8.78078e-10
-1.84323e-09
-3.46923e-10
-1.72924e-09
7.91381e-11
-1.37434e-09
3.51755e-10
-1.13855e-09
5.89909e-10
-9.6087e-10
9.7905e-10
-1.14893e-09
1.23262e-09
-1.36264e-09
1.77632e-09
-1.54627e-09
2.05795e-09
-1.11716e-09
1.91786e-09
-8.32656e-10
1.89035e-09
-5.41343e-10
1.9371e-09
-4.58004e-10
1.99184e-09
-5.23311e-10
2.11498e-09
-6.09404e-10
2.21536e-09
-5.03922e-10
2.32016e-09
-4.96268e-10
2.41666e-09
-4.45929e-10
2.55949e-09
-3.8238e-10
2.73911e-09
-4.28896e-10
2.79212e-09
-9.15763e-11
2.85968e-09
-2.87935e-11
2.94684e-09
-3.87457e-11
2.95597e-09
1.00567e-10
2.97926e-09
1.21594e-10
3.00705e-09
6.87203e-11
2.92247e-09
1.6327e-10
2.84996e-09
1.5329e-10
2.80719e-09
1.5539e-10
2.71221e-09
1.48229e-10
2.613e-09
2.05792e-10
2.60532e-09
1.71413e-10
2.61343e-09
1.51614e-10
2.67276e-09
7.76585e-11
2.76155e-09
4.12957e-11
2.81022e-09
5.81544e-11
2.79854e-09
1.28769e-10
2.75851e-09
1.7872e-10
2.72126e-09
2.16036e-10
2.62779e-09
2.87892e-10
2.59445e-09
2.77603e-10
2.50761e-09
3.29882e-10
2.49286e-09
3.57899e-10
2.32319e-09
3.7058e-10
2.41465e-09
5.555e-10
2.17791e-09
4.5856e-10
2.28035e-09
4.21952e-10
2.09096e-09
9.15546e-10
2.08361e-09
1.03432e-09
2.05408e-09
1.22494e-09
1.87768e-09
1.57096e-09
1.67664e-09
1.5997e-09
1.4137e-09
1.20978e-09
1.12681e-09
9.50171e-10
6.43101e-10
1.383e-10
2.97072e-10
-4.68668e-11
-5.53245e-10
5.55992e-10
-3.88333e-10
4.78343e-10
4.20761e-19
-3.88774e-10
1.04944e-17
3.27543e-17
-3.81437e-19
1.0294e-17
-3.41964e-18
3.95201e-18
-4.31079e-18
1.60123e-18
-4.49885e-18
4.56078e-19
-4.40025e-18
-2.38913e-19
-4.15443e-18
-7.21622e-19
-3.81724e-18
-1.07966e-18
-3.41683e-18
-1.35023e-18
-2.97146e-18
-1.55127e-18
-2.49568e-18
-1.69261e-18
-2.0024e-18
-1.78053e-18
-1.50351e-18
-1.81996e-18
-1.01e-18
-1.81539e-18
-5.3182e-19
-1.77143e-18
-7.77571e-20
-1.69291e-18
3.44721e-19
-1.58496e-18
7.29535e-19
-1.45284e-18
1.07203e-18
-1.30184e-18
1.36896e-18
-1.13711e-18
1.61837e-18
-9.63505e-19
1.81955e-18
-7.85479e-19
1.97282e-18
-6.06984e-19
2.07937e-18
-4.31419e-19
2.14115e-18
-2.61612e-19
2.16063e-18
-9.98302e-20
2.14069e-18
5.21896e-20
2.08446e-18
1.93188e-19
1.99526e-18
3.22325e-19
1.87644e-18
4.39106e-19
1.73136e-18
5.43324e-19
1.56332e-18
6.34982e-19
1.37553e-18
7.14241e-19
1.1711e-18
7.81358e-19
9.53026e-19
8.3664e-19
7.2418e-19
8.80403e-19
4.87354e-19
9.12938e-19
2.45261e-19
9.34486e-19
9.45213e-19
-3.35369e-10
1.31846e-09
-1.01063e-09
2.21919e-09
-1.54433e-09
2.18267e-09
-1.92449e-09
1.96677e-09
-2.1718e-09
1.7113e-09
-2.40821e-09
1.81069e-09
-2.65738e-09
1.62883e-09
-2.79898e-09
1.34154e-09
-3.01327e-09
1.01907e-09
-3.08102e-09
9.97268e-10
-3.07804e-09
7.48782e-10
-3.13949e-09
4.44956e-10
-3.14828e-09
1.95881e-10
-3.11724e-09
3.17707e-11
-3.03448e-09
-5.14844e-10
-2.87036e-09
-6.63336e-10
-2.81124e-09
-8.77456e-10
-2.7012e-09
-1.31675e-09
-2.53243e-09
-1.56832e-09
-2.42939e-09
-1.37068e-09
-2.09891e-09
-2.12296e-09
-1.57751e-09
-2.20692e-09
-1.42637e-09
-2.38956e-09
-1.0344e-09
-2.23519e-09
-4.8035e-10
-2.28329e-09
-1.14533e-10
-1.74016e-09
1.75128e-10
-1.42821e-09
6.32248e-10
-1.41799e-09
1.13616e-09
-1.65284e-09
1.37292e-09
-1.59939e-09
1.42264e-09
-1.59598e-09
1.44792e-09
-1.14244e-09
1.36322e-09
-7.47954e-10
1.36163e-09
-5.39755e-10
1.39199e-09
-4.8837e-10
1.48085e-09
-6.12164e-10
1.54516e-09
-6.73712e-10
1.62548e-09
-5.84242e-10
1.71227e-09
-5.83063e-10
1.82763e-09
-5.6128e-10
2.04449e-09
-5.9924e-10
2.09978e-09
-4.84196e-10
2.24199e-09
-2.3378e-10
2.33083e-09
-1.17635e-10
2.50453e-09
-2.12448e-10
2.4811e-09
1.24001e-10
2.50685e-09
9.58455e-11
2.66924e-09
-9.36709e-11
2.51864e-09
3.13862e-10
2.52709e-09
1.44847e-10
2.56648e-09
1.15993e-10
2.60117e-09
1.13544e-10
2.62792e-09
1.79035e-10
2.72495e-09
7.43906e-11
2.83528e-09
4.12763e-11
2.86952e-09
4.3419e-11
2.86578e-09
4.50435e-11
2.85483e-09
6.91039e-11
2.85418e-09
1.29414e-10
2.81172e-09
2.21186e-10
2.78822e-09
2.39529e-10
2.69721e-09
3.78912e-10
2.62407e-09
3.50743e-10
2.51247e-09
4.4148e-10
2.403e-09
4.67369e-10
2.25455e-09
5.19036e-10
2.30163e-09
5.08419e-10
2.21845e-09
5.41736e-10
2.06064e-09
5.7977e-10
2.02475e-09
9.51429e-10
1.97178e-09
1.08729e-09
1.92402e-09
1.2727e-09
1.93308e-09
1.5619e-09
1.83662e-09
1.69617e-09
1.43424e-09
1.61215e-09
8.24734e-10
1.55968e-09
-1.02906e-10
1.06594e-09
-6.72814e-10
5.23043e-10
-8.28782e-10
7.11961e-10
-1.34742e-09
9.96977e-10
-3.80659e-16
-1.73619e-09
-1.14547e-17
3.00795e-18
-6.72293e-18
5.56371e-18
-5.77024e-18
3.00213e-18
-5.45594e-18
1.29022e-18
-5.19384e-18
1.97705e-19
-4.88296e-18
-5.45677e-19
-4.51246e-18
-1.08767e-18
-4.08782e-18
-1.49958e-18
-3.61787e-18
-1.81525e-18
-3.11279e-18
-2.05128e-18
-2.58361e-18
-2.21663e-18
-2.04182e-18
-2.31711e-18
-1.49894e-18
-2.35761e-18
-9.66033e-19
-2.34307e-18
-4.53307e-19
-2.27894e-18
3.01954e-20
-2.17125e-18
4.76841e-19
-2.02654e-18
8.80536e-19
-1.85161e-18
1.23676e-18
-1.65336e-18
1.54256e-18
-1.43847e-18
1.7964e-18
-1.21323e-18
1.99805e-18
-9.83352e-19
2.14838e-18
-7.53889e-19
2.24918e-18
-5.29127e-19
2.30294e-18
-3.12588e-19
2.31265e-18
-1.07049e-19
2.28169e-18
8.54038e-20
2.2136e-18
2.63307e-19
2.11204e-18
4.25729e-19
1.98066e-18
5.72179e-19
1.82302e-18
7.02516e-19
1.64258e-18
8.1686e-19
1.44265e-18
9.15512e-19
1.22639e-18
9.98883e-19
9.96789e-19
1.06743e-18
7.56715e-19
1.12162e-18
5.08902e-19
1.16186e-18
2.55988e-19
1.18849e-18
1.20174e-18
-3.15555e-10
1.63402e-09
-6.27287e-10
2.53092e-09
-1.05334e-09
2.60873e-09
-1.4523e-09
2.36573e-09
-1.88428e-09
2.14328e-09
-2.21222e-09
2.13863e-09
-2.33762e-09
1.75422e-09
-2.59997e-09
1.6039e-09
-2.77529e-09
1.1944e-09
-2.69261e-09
9.1459e-10
-2.71958e-09
7.7575e-10
-2.67456e-09
3.99937e-10
-2.65403e-09
1.75358e-10
-2.61032e-09
-1.19395e-11
-2.64306e-09
-4.82106e-10
-2.5422e-09
-7.64193e-10
-2.43076e-09
-9.88899e-10
-2.49577e-09
-1.25173e-09
-2.18473e-09
-1.87935e-09
-2.25781e-09
-1.2976e-09
-1.93524e-09
-2.44553e-09
-1.59838e-09
-2.54378e-09
-1.19332e-09
-2.79462e-09
-7.31305e-10
-2.6972e-09
-3.76698e-10
-2.6379e-09
9.52808e-11
-2.21214e-09
3.95965e-10
-1.72889e-09
7.65898e-10
-1.78792e-09
9.36506e-10
-1.82345e-09
1.20716e-09
-1.87004e-09
1.43077e-09
-1.8196e-09
1.44805e-09
-1.15973e-09
1.17188e-09
-4.71774e-10
1.01255e-09
-3.8043e-10
1.04136e-09
-5.17181e-10
1.21642e-09
-7.87224e-10
1.30502e-09
-7.62305e-10
1.41529e-09
-6.94515e-10
1.51234e-09
-6.80112e-10
1.66688e-09
-7.15823e-10
1.87673e-09
-8.09083e-10
1.87161e-09
-4.79076e-10
1.94294e-09
-3.05113e-10
2.056e-09
-2.30702e-10
2.12589e-09
-2.82332e-10
2.17773e-09
7.21646e-11
2.32457e-09
-5.09946e-11
2.32125e-09
-9.03565e-11
2.37715e-09
2.57958e-10
2.51124e-09
1.0759e-11
2.62438e-09
2.85287e-12
2.68169e-09
5.62327e-11
2.80777e-09
5.29576e-11
2.89677e-09
-1.46048e-11
2.94135e-09
-3.30209e-12
2.96723e-09
1.75345e-11
2.96917e-09
4.31027e-11
2.92312e-09
1.15157e-10
2.87204e-09
1.80492e-10
2.80323e-09
2.89996e-10
2.75344e-09
2.89321e-10
2.65163e-09
4.80717e-10
2.58856e-09
4.13817e-10
2.51567e-09
5.14368e-10
2.38455e-09
5.98497e-10
2.23997e-09
6.63612e-10
2.19052e-09
5.57873e-10
2.06959e-09
6.62665e-10
1.91087e-09
7.38489e-10
1.91212e-09
9.50186e-10
1.86536e-09
1.13405e-09
1.78384e-09
1.35422e-09
1.73644e-09
1.6093e-09
1.52136e-09
1.91125e-09
1.23979e-09
1.89372e-09
9.55022e-10
1.84445e-09
5.00531e-10
1.52043e-09
-2.78976e-10
1.30255e-09
-6.3374e-10
1.06673e-09
-4.23696e-10
7.86934e-10
-1.98041e-16
-2.15988e-09
-1.30945e-17
-3.43155e-18
-9.28417e-18
1.75468e-18
-7.48192e-18
1.20219e-18
-6.54846e-18
3.59557e-19
-5.93722e-18
-4.10301e-19
-5.42496e-18
-1.05432e-18
-4.92437e-18
-1.58428e-18
-4.40349e-18
-2.0162e-18
-3.8539e-18
-2.36033e-18
-3.27814e-18
-2.62236e-18
-2.6841e-18
-2.80586e-18
-2.08232e-18
-2.91398e-18
-1.4844e-18
-2.95057e-18
-9.01901e-19
-2.92057e-18
-3.45619e-19
-2.83021e-18
1.74911e-19
-2.68679e-18
6.51763e-19
-2.49847e-18
1.07879e-18
-2.27385e-18
1.45166e-18
-2.02164e-18
1.7678e-18
-1.75027e-18
2.02627e-18
-1.46764e-18
2.22751e-18
-1.18087e-18
2.37314e-18
-8.96137e-19
2.46572e-18
-6.18645e-19
2.50847e-18
-3.5259e-19
2.50511e-18
-1.01207e-19
2.45959e-18
1.33147e-19
2.37602e-18
3.48889e-19
2.25849e-18
5.45088e-19
2.11099e-18
7.21349e-19
1.93736e-18
8.77686e-19
1.74123e-18
1.01441e-18
1.52602e-18
1.13205e-18
1.29494e-18
1.23121e-18
1.05098e-18
1.31258e-18
7.96954e-19
1.37678e-18
5.35528e-19
1.42439e-18
2.69238e-19
1.45585e-18
1.4715e-18
-9.19004e-10
2.55302e-09
-1.27935e-09
2.89127e-09
-1.48472e-09
2.8141e-09
-1.72462e-09
2.60563e-09
-2.00276e-09
2.42143e-09
-2.21682e-09
2.35269e-09
-2.23049e-09
1.7679e-09
-2.2731e-09
1.6465e-09
-2.36043e-09
1.28173e-09
-2.39402e-09
9.48183e-10
-2.37908e-09
7.60817e-10
-2.35114e-09
3.71994e-10
-2.31898e-09
1.43195e-10
-2.29685e-09
-3.40659e-11
-2.14359e-09
-6.35361e-10
-2.51315e-09
-3.94633e-10
-1.98658e-09
-1.51546e-09
-2.39772e-09
-8.40597e-10
-2.28999e-09
-1.98708e-09
-1.96706e-09
-1.62052e-09
-1.77003e-09
-2.64256e-09
-1.5291e-09
-2.78471e-09
-1.32816e-09
-2.99556e-09
-8.66263e-10
-3.15909e-09
-2.85079e-10
-3.21908e-09
1.38575e-10
-2.63579e-09
3.71092e-10
-1.96141e-09
6.13951e-10
-2.03078e-09
9.46004e-10
-2.1555e-09
1.18633e-09
-2.11036e-09
1.17629e-09
-1.80956e-09
9.68779e-10
-9.52215e-10
8.25119e-10
-3.28113e-10
7.96132e-10
-3.51443e-10
8.49989e-10
-5.71038e-10
1.09789e-09
-1.03513e-09
1.23883e-09
-9.03244e-10
1.37944e-09
-8.35123e-10
1.49271e-09
-7.9338e-10
1.67327e-09
-8.96388e-10
1.72935e-09
-8.65166e-10
1.83019e-09
-5.79914e-10
1.93587e-09
-4.10796e-10
2.03825e-09
-3.33076e-10
2.10026e-09
-3.44344e-10
2.27135e-09
-9.89204e-11
2.26416e-09
-4.38136e-11
2.32e-09
-1.46195e-10
2.56804e-09
9.92081e-12
2.5649e-09
1.38971e-11
2.65492e-09
-8.71667e-11
2.73761e-09
-2.64586e-11
2.87213e-09
-8.15601e-11
2.91158e-09
-5.40531e-11
2.88155e-09
2.67289e-11
2.82215e-09
7.69251e-11
2.90193e-09
-3.66759e-11
2.84754e-09
1.69551e-10
2.7811e-09
2.46933e-10
2.71771e-09
3.53383e-10
2.6119e-09
3.95131e-10
2.55023e-09
5.42389e-10
2.41576e-09
5.48286e-10
2.32571e-09
6.04425e-10
2.19542e-09
7.28782e-10
2.07855e-09
7.80487e-10
1.92294e-09
7.13486e-10
1.85207e-09
7.33533e-10
1.75995e-09
8.30607e-10
1.76237e-09
9.47774e-10
1.78874e-09
1.10768e-09
1.74844e-09
1.39451e-09
1.62241e-09
1.73534e-09
1.49858e-09
2.03508e-09
1.31937e-09
2.07293e-09
1.07996e-09
2.08387e-09
7.17534e-10
1.88286e-09
2.59186e-10
1.7609e-09
-1.16522e-10
1.44244e-09
-3.67353e-11
7.07148e-10
-5.82007e-17
-2.19662e-09
-1.19456e-17
-3.92305e-18
-9.83641e-18
-3.53373e-19
-8.32427e-18
-3.08218e-19
-7.31831e-18
-6.44198e-19
-6.58124e-18
-1.14473e-18
-5.95492e-18
-1.67758e-18
-5.35629e-18
-2.17949e-18
-4.74762e-18
-2.62112e-18
-4.11594e-18
-2.98798e-18
-3.46163e-18
-3.27242e-18
-2.79222e-18
-3.47084e-18
-2.11891e-18
-3.58274e-18
-1.45441e-18
-3.61041e-18
-8.11538e-19
-3.55872e-18
-2.02203e-19
-3.43478e-18
3.63236e-19
-3.24747e-18
8.76384e-19
-3.0069e-18
1.331e-18
-2.72385e-18
1.72302e-18
-2.4092e-18
2.05043e-18
-2.07345e-18
2.31305e-18
-1.7263e-18
2.51224e-18
-1.37642e-18
2.65064e-18
-1.0312e-18
2.73178e-18
-6.96771e-19
2.75986e-18
-3.77955e-19
2.73946e-18
-7.83643e-20
2.67533e-18
1.99478e-19
2.57222e-18
4.53989e-19
2.43475e-18
6.84366e-19
2.26733e-18
8.90424e-19
2.07409e-18
1.07245e-18
1.85886e-18
1.23105e-18
1.62519e-18
1.36704e-18
1.3763e-18
1.48133e-18
1.11518e-18
1.57487e-18
8.4456e-19
1.64852e-18
5.66996e-19
1.70303e-18
2.84887e-19
1.73903e-18
1.75691e-18
-1.4099e-10
2.69402e-09
-4.26517e-10
3.1768e-09
-9.82761e-10
3.37035e-09
-1.22835e-09
2.85122e-09
-1.34279e-09
2.53588e-09
-1.26393e-09
2.27383e-09
-1.19071e-09
1.69469e-09
-1.60262e-09
2.05841e-09
-1.84179e-09
1.5209e-09
-2.0472e-09
1.15359e-09
-1.97848e-09
6.92093e-10
-2.04019e-09
4.33711e-10
-2.00908e-09
1.1209e-10
-2.03777e-09
-5.38371e-12
-1.9488e-09
-7.24322e-10
-1.92298e-09
-4.20459e-10
-1.90491e-09
-1.53353e-09
-1.84574e-09
-8.99765e-10
-1.8215e-09
-2.01132e-09
-1.568e-09
-1.87403e-09
-1.58522e-09
-2.62533e-09
-1.3398e-09
-3.03013e-09
-1.04408e-09
-3.29128e-09
-7.02046e-10
-3.50112e-09
-3.94642e-10
-3.52648e-09
1.23355e-10
-3.15378e-09
4.81237e-10
-2.31929e-09
8.24683e-10
-2.37422e-09
1.02427e-09
-2.35509e-09
1.10162e-09
-2.18771e-09
1.10614e-09
-1.81408e-09
8.17746e-10
-6.63821e-10
6.87664e-10
-1.9803e-10
7.15604e-10
-3.79382e-10
7.78897e-10
-6.34331e-10
9.5507e-10
-1.2113e-09
1.20983e-09
-1.158e-09
1.42038e-09
-1.04568e-09
1.5641e-09
-9.37096e-10
1.64474e-09
-9.77028e-10
1.70107e-09
-9.21496e-10
1.81813e-09
-6.9697e-10
1.93866e-09
-5.31333e-10
2.03493e-09
-4.29343e-10
2.07545e-09
-3.84863e-10
2.2939e-09
-3.17375e-10
2.32555e-09
-7.54625e-11
2.40743e-09
-2.28074e-10
2.57284e-09
-1.55486e-10
2.66242e-09
-7.56848e-11
2.68613e-09
-1.10875e-10
2.70738e-09
-4.77088e-11
2.70017e-09
-7.43557e-11
2.67656e-09
-3.04442e-11
2.65814e-09
4.51502e-11
2.61083e-09
1.24243e-10
2.58588e-09
-1.17328e-11
2.5355e-09
2.19931e-10
2.48141e-09
3.01024e-10
2.43208e-09
4.0271e-10
2.34192e-09
4.85295e-10
2.27861e-09
6.05704e-10
2.17929e-09
6.476e-10
2.12439e-09
6.5933e-10
2.03027e-09
8.22905e-10
1.87915e-09
9.31605e-10
1.75605e-09
8.36585e-10
1.6625e-09
8.27085e-10
1.57338e-09
9.19728e-10
1.48532e-09
1.03583e-09
1.34983e-09
1.24318e-09
1.30307e-09
1.44127e-09
1.28174e-09
1.75667e-09
1.30412e-09
2.0127e-09
1.24694e-09
2.13011e-09
1.14028e-09
2.19054e-09
9.08734e-10
2.1144e-09
6.06824e-10
2.06281e-09
7.44188e-10
1.30507e-09
5.57092e-10
8.94244e-10
5.86024e-17
-1.63953e-09
-1.15326e-17
-6.54484e-18
-9.79104e-18
-2.09408e-18
-8.66001e-18
-1.43811e-18
-7.81886e-18
-1.48378e-18
-7.11409e-18
-1.84749e-18
-6.45683e-18
-2.33241e-18
-5.79792e-18
-2.83556e-18
-5.11447e-18
-3.30139e-18
-4.40038e-18
-3.69855e-18
-3.66005e-18
-4.00897e-18
-2.90411e-18
-4.22277e-18
-2.14658e-18
-4.33609e-18
-1.40273e-18
-4.34995e-18
-6.87599e-19
-4.26945e-18
-1.48888e-20
-4.10302e-18
6.03807e-19
-3.86167e-18
1.15943e-18
-3.55805e-18
1.64565e-18
-3.20566e-18
2.05877e-18
-2.81806e-18
2.39758e-18
-2.40817e-18
2.66294e-18
-1.98783e-18
2.85746e-18
-1.56738e-18
2.98506e-18
-1.15555e-18
3.05059e-18
-7.5934e-19
3.05945e-18
-3.84139e-19
3.0173e-18
-3.38087e-20
2.92984e-18
2.8911e-19
2.8026e-18
5.83197e-19
2.64081e-18
8.47937e-19
2.44935e-18
1.08351e-18
2.23269e-18
1.29061e-18
1.99485e-18
1.47027e-18
1.73949e-18
1.6237e-18
1.46984e-18
1.7522e-18
1.18883e-18
1.85703e-18
8.99078e-19
1.93937e-18
6.02988e-19
2.00019e-18
3.02773e-19
2.04029e-18
2.0602e-18
-6.66628e-10
3.36064e-09
-8.33938e-10
3.34411e-09
-9.16582e-10
3.45299e-09
-1.11064e-09
3.04528e-09
-1.40004e-09
2.82528e-09
-1.73823e-09
2.61202e-09
-2.10372e-09
2.06018e-09
-1.88076e-09
1.83545e-09
-1.75805e-09
1.39819e-09
-1.6939e-09
1.08945e-09
-1.68645e-09
6.84648e-10
-1.7299e-09
4.77155e-10
-1.72258e-09
1.04775e-10
-1.60842e-09
-1.19543e-10
-1.77747e-09
-5.55272e-10
-1.41465e-09
-7.83273e-10
-1.74979e-09
-1.19839e-09
-1.40323e-09
-1.24632e-09
-1.62891e-09
-1.78563e-09
-1.20243e-09
-2.30052e-09
-1.1629e-09
-2.66485e-09
-1.03368e-09
-3.15936e-09
-8.71321e-10
-3.45363e-09
-6.19855e-10
-3.75258e-09
-3.18629e-10
-3.82771e-09
-5.95016e-12
-3.46646e-09
3.12912e-10
-2.63815e-09
6.43606e-10
-2.70492e-09
8.66179e-10
-2.57766e-09
9.26841e-10
-2.24837e-09
7.72959e-10
-1.66019e-09
5.54703e-10
-4.45565e-10
6.14679e-10
-2.58006e-10
7.43934e-10
-5.08636e-10
9.99572e-10
-8.89968e-10
1.08065e-09
-1.29238e-09
1.21926e-09
-1.29661e-09
1.40722e-09
-1.23364e-09
1.56036e-09
-1.09024e-09
1.56822e-09
-9.84879e-10
1.635e-09
-9.88276e-10
1.71268e-09
-7.74659e-10
1.77884e-09
-5.97492e-10
1.89189e-09
-5.42392e-10
1.98296e-09
-4.75927e-10
2.0207e-09
-3.55117e-10
2.16348e-09
-2.18247e-10
2.21785e-09
-2.82442e-10
2.28733e-09
-2.24964e-10
2.34961e-09
-1.3797e-10
2.34192e-09
-1.03179e-10
2.34102e-09
-4.68104e-11
2.29719e-09
-3.05251e-11
2.31433e-09
-4.75907e-11
2.31472e-09
4.4766e-11
2.29348e-09
1.45484e-10
2.18322e-09
9.85226e-11
2.14491e-09
2.58244e-10
2.06648e-09
3.79455e-10
2.03343e-09
4.35753e-10
2.01581e-09
5.02917e-10
1.99575e-09
6.25767e-10
1.93924e-09
7.04107e-10
1.8266e-09
7.71977e-10
1.69846e-09
9.51043e-10
1.5885e-09
1.04156e-09
1.51332e-09
9.11766e-10
1.39851e-09
9.41901e-10
1.24614e-09
1.0721e-09
1.15538e-09
1.12659e-09
1.20293e-09
1.19563e-09
1.2612e-09
1.383e-09
1.23491e-09
1.78295e-09
1.24805e-09
1.99956e-09
1.19662e-09
2.18155e-09
1.14647e-09
2.24069e-09
1.12958e-09
2.13128e-09
1.13207e-09
2.06033e-09
1.20621e-09
1.23093e-09
8.97808e-10
1.20265e-09
1.54223e-16
-7.41719e-10
-9.38571e-18
-5.79082e-18
-9.13489e-18
-2.34439e-18
-8.70546e-18
-1.86697e-18
-8.18253e-18
-2.00572e-18
-7.59901e-18
-2.42959e-18
-6.95998e-18
-2.9696e-18
-6.26375e-18
-3.52954e-18
-5.51164e-18
-4.05084e-18
-4.7108e-18
-4.49638e-18
-3.87385e-18
-4.84259e-18
-3.01744e-18
-5.07559e-18
-2.16044e-18
-5.1893e-18
-1.32222e-18
-5.18421e-18
-5.21177e-19
-5.06642e-18
2.26466e-19
-4.8465e-18
9.07427e-19
-4.53842e-18
1.51182e-18
-4.15823e-18
2.03325e-18
-3.72293e-18
2.46866e-18
-3.24941e-18
2.81792e-18
-2.75354e-18
3.08338e-18
-2.2496e-18
3.26929e-18
-1.74985e-18
3.38127e-18
-1.26435e-18
3.42579e-18
-8.00975e-19
3.40978e-18
-3.65506e-19
3.34022e-18
3.81144e-20
3.22393e-18
4.07538e-19
3.06734e-18
7.41722e-19
2.87639e-18
1.04065e-18
2.65646e-18
1.30505e-18
2.41234e-18
1.5362e-18
2.14828e-18
1.73569e-18
1.86799e-18
1.90526e-18
1.57467e-18
2.0467e-18
1.27116e-18
2.16168e-18
9.59902e-19
2.25171e-18
6.43086e-19
2.31806e-18
3.22681e-19
2.36172e-18
2.38338e-18
-4.81932e-11
3.40884e-09
-4.19906e-10
3.71582e-09
-6.74614e-10
3.7077e-09
-9.54631e-10
3.32529e-09
-1.08589e-09
2.95654e-09
-1.0344e-09
2.56053e-09
-9.44908e-10
1.97069e-09
-1.02049e-09
1.91103e-09
-1.27993e-09
1.65763e-09
-1.36009e-09
1.16961e-09
-1.4053e-09
7.29859e-10
-1.3564e-09
4.28256e-10
-1.41086e-09
1.59238e-10
-1.3345e-09
-1.9591e-10
-1.26046e-09
-6.29309e-10
-1.19428e-09
-8.49452e-10
-1.26239e-09
-1.13028e-09
-9.94557e-10
-1.51414e-09
-9.85445e-10
-1.79474e-09
-1.00399e-09
-2.28197e-09
-9.39567e-10
-2.72928e-09
-7.78839e-10
-3.32009e-09
-6.76738e-10
-3.55573e-09
-5.17074e-10
-3.91225e-09
-3.09081e-10
-4.0357e-09
-9.41233e-12
-3.76613e-09
4.12763e-10
-3.06032e-09
6.58858e-10
-2.95101e-09
7.66346e-10
-2.68514e-09
7.01145e-10
-2.18317e-09
4.27386e-10
-1.38643e-09
3.4726e-10
-3.65437e-10
5.20917e-10
-4.31663e-10
7.39056e-10
-7.26775e-10
1.0017e-09
-1.15261e-09
1.11104e-09
-1.40172e-09
1.18775e-09
-1.37332e-09
1.28792e-09
-1.33381e-09
1.39225e-09
-1.19457e-09
1.37917e-09
-9.71804e-10
1.3691e-09
-9.78203e-10
1.4319e-09
-8.37458e-10
1.48717e-09
-6.52763e-10
1.51839e-09
-5.73611e-10
1.58926e-09
-5.468e-10
1.68295e-09
-4.48805e-10
1.82381e-09
-3.59109e-10
1.84872e-09
-3.07355e-10
1.85787e-09
-2.34109e-10
1.88904e-09
-1.69142e-10
1.90841e-09
-1.22552e-10
1.9383e-09
-7.67012e-11
1.90719e-09
5.92181e-13
1.87455e-09
-1.49541e-11
1.87445e-09
4.48675e-11
1.81191e-09
2.08025e-10
1.78318e-09
1.27252e-10
1.74563e-09
2.95786e-10
1.72011e-09
4.04983e-10
1.71113e-09
4.44733e-10
1.68281e-09
5.31233e-10
1.64183e-09
6.66747e-10
1.59165e-09
7.54285e-10
1.48604e-09
8.77591e-10
1.40973e-09
1.02735e-09
1.37542e-09
1.07587e-09
1.27842e-09
1.00877e-09
1.12958e-09
1.09074e-09
1.00799e-09
1.19369e-09
9.37455e-10
1.19713e-09
9.0274e-10
1.23034e-09
9.34959e-10
1.35078e-09
1.11829e-09
1.59963e-09
1.08069e-09
2.03716e-09
1.04278e-09
2.21946e-09
1.06205e-09
2.22142e-09
1.10135e-09
2.09198e-09
1.12824e-09
2.03344e-09
9.53191e-10
1.40597e-09
7.61678e-10
1.39416e-09
1.99064e-16
1.99582e-11
-7.50892e-18
-1.34799e-18
-8.65727e-18
-1.19583e-18
-8.844e-18
-1.6801e-18
-8.60634e-18
-2.24286e-18
-8.13903e-18
-2.89597e-18
-7.51992e-18
-3.58736e-18
-6.78504e-18
-4.26264e-18
-5.95718e-18
-4.87652e-18
-5.057e-18
-5.39399e-18
-4.10685e-18
-5.78983e-18
-3.13115e-18
-6.04811e-18
-2.15535e-18
-6.16168e-18
-1.20443e-18
-6.13154e-18
-3.01265e-19
-5.96583e-18
5.34549e-19
-5.67847e-18
1.28762e-18
-5.28758e-18
1.94712e-18
-4.81381e-18
2.50678e-18
-4.2787e-18
2.96453e-18
-3.70334e-18
3.32186e-18
-3.10718e-18
3.58313e-18
-2.50736e-18
3.75479e-18
-1.91821e-18
3.84465e-18
-1.35116e-18
3.86126e-18
-8.14784e-19
3.8134e-18
-3.15091e-19
3.70964e-18
1.44181e-19
3.55811e-18
5.61163e-19
3.36626e-18
9.3547e-19
3.14079e-18
1.26784e-18
2.8876e-18
1.55981e-18
2.61183e-18
1.81342e-18
2.31786e-18
2.03099e-18