/*--------------------------------*- C++ -*----------------------------------*\
  =========                 |
  \\      /  F ield         | OpenFOAM: The Open Source CFD Toolbox
   \\    /   O peration     | Website:  https://openfoam.org
    \\  /    A nd           | Version:  6
     \\/     M anipulation  |
\*---------------------------------------------------------------------------*/
FoamFile
{
    version     2.0;
    format      ascii;
    class       volScalarField;
    location    "2550";
    object      T;
}
// * * * * * * * * * * * * * * * * * * * * * * * * * * * * * * * * * * * * * //

dimensions      [0 0 0 1 0 0 0];

internalField   nonuniform List<scalar> 
4800
(
552.429
552.187
551.948
551.716
551.496
551.29
551.101
550.933
550.784
550.654
550.54
550.44
550.352
550.274
550.204
550.141
550.083
550.029
549.977
549.928
549.88
549.833
549.787
549.741
549.695
549.648
549.601
549.552
549.504
549.455
549.406
549.357
549.307
549.257
549.206
549.155
549.104
549.052
549.001
548.95
548.899
548.848
548.797
548.745
548.694
548.642
548.589
548.537
548.484
548.431
548.378
548.324
548.27
548.215
548.16
548.103
548.046
547.987
547.925
547.862
547.795
547.724
547.649
547.569
547.483
547.39
547.289
547.178
547.056
546.921
546.771
546.607
546.43
546.245
546.054
545.861
545.667
545.474
545.283
545.1
544.936
544.804
544.691
544.588
544.487
544.387
544.285
544.182
544.077
543.97
543.863
543.754
543.644
543.534
543.423
543.312
543.201
543.089
542.977
542.865
542.753
542.64
542.528
542.415
542.302
542.19
542.077
541.964
541.851
541.738
541.625
541.512
541.399
541.286
541.173
541.059
540.946
540.833
540.72
540.607
552.427
552.182
551.94
551.706
551.486
551.284
551.1
550.935
550.789
550.66
550.547
550.447
550.36
550.282
550.212
550.148
550.089
550.035
549.983
549.932
549.884
549.836
549.789
549.742
549.695
549.647
549.599
549.55
549.501
549.451
549.401
549.351
549.3
549.249
549.197
549.145
549.094
549.042
548.99
548.939
548.888
548.836
548.785
548.734
548.682
548.63
548.578
548.526
548.473
548.42
548.367
548.313
548.259
548.205
548.149
548.093
548.035
547.976
547.915
547.851
547.785
547.714
547.64
547.56
547.474
547.381
547.28
547.17
547.05
546.917
546.772
546.614
546.444
546.261
546.071
545.876
545.677
545.477
545.276
545.08
544.906
544.783
544.681
544.585
544.487
544.388
544.287
544.183
544.078
543.971
543.863
543.754
543.645
543.534
543.423
543.312
543.201
543.089
542.977
542.865
542.752
542.64
542.528
542.415
542.302
542.19
542.077
541.964
541.851
541.738
541.625
541.512
541.399
541.286
541.173
541.059
540.946
540.833
540.72
540.607
552.424
552.176
551.933
551.701
551.484
551.284
551.104
550.942
550.799
550.672
550.561
550.462
550.375
550.297
550.227
550.163
550.104
550.048
549.994
549.943
549.893
549.844
549.795
549.746
549.696
549.647
549.596
549.546
549.495
549.443
549.391
549.339
549.287
549.234
549.181
549.127
549.074
549.021
548.969
548.917
548.865
548.814
548.763
548.711
548.66
548.608
548.556
548.504
548.452
548.399
548.346
548.292
548.238
548.184
548.129
548.073
548.015
547.956
547.895
547.832
547.766
547.696
547.621
547.542
547.456
547.364
547.265
547.156
547.038
546.91
546.769
546.617
546.452
546.275
546.088
545.892
545.689
545.479
545.26
545.035
544.824
544.743
544.667
544.582
544.489
544.391
544.29
544.186
544.08
543.973
543.865
543.755
543.645
543.535
543.424
543.312
543.201
543.089
542.977
542.864
542.752
542.64
542.527
542.415
542.302
542.189
542.076
541.964
541.851
541.738
541.625
541.512
541.399
541.286
541.172
541.059
540.946
540.833
540.72
540.607
552.424
552.174
551.932
551.703
551.489
551.293
551.116
550.958
550.817
550.693
550.583
550.486
550.399
550.322
550.252
550.187
550.126
550.069
550.013
549.96
549.907
549.855
549.804
549.752
549.699
549.647
549.594
549.541
549.487
549.433
549.378
549.324
549.268
549.212
549.157
549.101
549.046
548.992
548.938
548.885
548.833
548.781
548.73
548.679
548.628
548.576
548.525
548.473
548.421
548.368
548.316
548.262
548.209
548.155
548.1
548.044
547.988
547.929
547.869
547.806
547.74
547.67
547.596
547.517
547.433
547.342
547.243
547.136
547.021
546.896
546.76
546.612
546.453
546.281
546.098
545.904
545.699
545.483
545.249
544.973
544.612
544.697
544.661
544.587
544.496
544.398
544.296
544.191
544.084
543.976
543.866
543.757
543.646
543.535
543.424
543.312
543.2
543.088
542.976
542.864
542.752
542.639
542.527
542.414
542.301
542.189
542.076
541.963
541.85
541.737
541.624
541.511
541.398
541.285
541.172
541.059
540.946
540.833
540.72
540.607
552.425
552.178
551.939
551.712
551.502
551.31
551.137
550.982
550.844
550.722
550.614
550.518
550.432
550.354
550.284
550.218
550.156
550.096
550.038
549.982
549.927
549.872
549.816
549.761
549.705
549.649
549.592
549.535
549.478
549.42
549.362
549.304
549.245
549.186
549.127
549.069
549.012
548.956
548.901
548.847
548.793
548.741
548.69
548.639
548.588
548.537
548.485
548.434
548.382
548.33
548.278
548.225
548.172
548.119
548.064
548.009
547.953
547.895
547.835
547.773
547.707
547.638
547.565
547.487
547.403
547.313
547.216
547.111
546.998
546.876
546.744
546.601
546.447
546.282
546.103
545.913
545.711
545.499
545.28
545.056
544.855
544.774
544.695
544.607
544.51
544.408
544.303
544.196
544.088
543.979
543.869
543.758
543.647
543.536
543.424
543.312
543.2
543.088
542.976
542.863
542.751
542.638
542.526
542.413
542.301
542.188
542.075
541.963
541.85
541.737
541.624
541.511
541.398
541.285
541.172
541.059
540.946
540.833
540.72
540.607
552.427
552.185
551.951
551.729
551.523
551.335
551.165
551.014
550.879
550.759
550.653
550.558
550.472
550.394
550.323
550.255
550.191
550.129
550.069
550.01
549.951
549.892
549.833
549.773
549.713
549.653
549.592
549.53
549.468
549.406
549.344
549.282
549.219
549.157
549.094
549.033
548.974
548.915
548.859
548.803
548.749
548.696
548.644
548.592
548.541
548.49
548.439
548.387
548.336
548.285
548.233
548.181
548.128
548.075
548.022
547.967
547.911
547.853
547.794
547.732
547.667
547.599
547.527
547.449
547.366
547.278
547.182
547.079
546.968
546.85
546.722
546.584
546.436
546.276
546.104
545.921
545.728
545.528
545.328
545.137
544.973
544.848
544.74
544.635
544.529
544.422
544.313
544.204
544.093
543.982
543.871
543.76
543.648
543.536
543.424
543.312
543.2
543.087
542.975
542.863
542.75
542.638
542.525
542.412
542.3
542.187
542.075
541.962
541.849
541.736
541.623
541.511
541.398
541.285
541.172
541.059
540.946
540.833
540.72
540.607
552.429
552.192
551.964
551.748
551.548
551.365
551.201
551.053
550.921
550.803
550.698
550.604
550.518
550.44
550.367
550.298
550.232
550.168
550.105
550.042
549.98
549.917
549.853
549.788
549.723
549.657
549.591
549.524
549.458
549.391
549.324
549.257
549.19
549.124
549.058
548.994
548.932
548.871
548.812
548.755
548.699
548.645
548.592
548.54
548.488
548.437
548.386
548.335
548.284
548.233
548.181
548.129
548.077
548.024
547.971
547.916
547.861
547.804
547.745
547.684
547.62
547.553
547.481
547.405
547.323
547.236
547.142
547.041
546.933
546.818
546.694
546.561
546.418
546.265
546.101
545.927
545.745
545.559
545.375
545.2
545.045
544.905
544.781
544.663
544.549
544.436
544.323
544.211
544.099
543.986
543.874
543.761
543.649
543.536
543.424
543.311
543.199
543.086
542.974
542.861
542.749
542.636
542.524
542.411
542.299
542.186
542.074
541.961
541.848
541.736
541.623
541.51
541.397
541.284
541.171
541.058
540.945
540.832
540.719
540.606
552.434
552.205
551.983
551.774
551.58
551.403
551.243
551.098
550.968
550.852
550.749
550.655
550.569
550.49
550.416
550.346
550.278
550.211
550.145
550.079
550.013
549.945
549.876
549.806
549.735
549.663
549.591
549.518
549.446
549.373
549.301
549.23
549.159
549.089
549.019
548.952
548.886
548.823
548.762
548.703
548.645
548.59
548.536
548.482
548.43
548.378
548.327
548.276
548.225
548.174
548.122
548.071
548.019
547.966
547.913
547.859
547.803
547.747
547.689
547.629
547.566
547.499
547.429
547.354
547.274
547.188
547.096
546.998
546.892
546.78
546.66
546.532
546.395
546.249
546.094
545.93
545.759
545.585
545.413
545.248
545.093
544.948
544.814
544.689
544.568
544.45
544.333
544.218
544.104
543.989
543.876
543.762
543.649
543.536
543.423
543.31
543.198
543.085
542.973
542.86
542.748
542.635
542.523
542.41
542.298
542.185
542.073
541.96
541.847
541.735
541.622
541.509
541.396
541.284
541.171
541.058
540.945
540.832
540.719
540.606
552.438
552.217
552.004
551.802
551.614
551.442
551.286
551.145
551.019
550.905
550.803
550.71
550.624
550.545
550.47
550.397
550.327
550.258
550.189
550.119
550.049
549.976
549.902
549.825
549.747
549.669
549.59
549.511
549.432
549.354
549.276
549.2
549.125
549.051
548.978
548.907
548.838
548.772
548.709
548.647
548.587
548.53
548.474
548.419
548.366
548.314
548.262
548.21
548.159
548.108
548.057
548.005
547.953
547.901
547.848
547.794
547.739
547.684
547.626
547.567
547.504
547.439
547.37
547.297
547.219
547.135
547.045
546.949
546.847
546.738
546.622
546.499
546.368
546.229
546.082
545.927
545.766
545.603
545.44
545.28
545.125
544.977
544.839
544.709
544.583
544.461
544.342
544.224
544.108
543.992
543.877
543.763
543.649
543.535
543.422
543.309
543.196
543.083
542.971
542.858
542.746
542.633
542.521
542.409
542.296
542.184
542.071
541.959
541.846
541.734
541.621
541.508
541.396
541.283
541.17
541.058
540.945
540.832
540.719
540.606
552.443
552.232
552.027
551.833
551.652
551.485
551.334
551.197
551.073
550.962
550.861
550.768
550.682
550.602
550.526
550.452
550.379
550.307
550.235
550.162
550.086
550.009
549.928
549.845
549.76
549.674
549.588
549.502
549.417
549.332
549.249
549.168
549.088
549.01
548.933
548.859
548.787
548.717
548.651
548.587
548.525
548.465
548.408
548.352
548.297
548.244
548.191
548.139
548.088
548.036
547.985
547.934
547.882
547.83
547.777
547.724
547.669
547.614
547.557
547.499
547.438
547.374
547.306
547.235
547.159
547.077
546.99
546.897
546.798
546.692
546.58
546.462
546.337
546.205
546.065
545.918
545.766
545.611
545.454
545.298
545.145
544.997
544.857
544.723
544.595
544.47
544.348
544.229
544.111
543.994
543.878
543.763
543.648
543.534
543.421
543.307
543.194
543.081
542.969
542.856
542.744
542.631
542.519
542.407
542.294
542.182
542.07
541.957
541.845
541.733
541.62
541.508
541.395
541.282
541.17
541.057
540.944
540.832
540.719
540.606
552.448
552.247
552.051
551.865
551.69
551.529
551.383
551.249
551.129
551.02
550.921
550.829
550.743
550.662
550.584
550.508
550.433
550.358
550.283
550.205
550.125
550.042
549.956
549.866
549.774
549.68
549.585
549.492
549.399
549.308
549.219
549.133
549.048
548.966
548.886
548.808
548.732
548.66
548.59
548.523
548.459
548.397
548.338
548.28
548.224
548.17
548.117
548.064
548.012
547.96
547.909
547.857
547.806
547.754
547.701
547.648
547.594
547.54
547.483
547.426
547.366
547.303
547.237
547.168
547.094
547.015
546.931
546.841
546.745
546.644
546.536
546.422
546.302
546.176
546.043
545.904
545.759
545.61
545.459
545.306
545.155
545.008
544.868
544.733
544.603
544.476
544.353
544.231
544.112
543.994
543.877
543.762
543.647
543.532
543.418
543.305
543.192
543.079
542.966
542.854
542.741
542.629
542.517
542.405
542.293
542.18
542.068
541.956
541.844
541.731
541.619
541.507
541.394
541.282
541.169
541.057
540.944
540.832
540.719
540.606
552.454
552.262
552.076
551.897
551.73
551.575
551.434
551.305
551.188
551.081
550.982
550.89
550.804
550.722
550.643
550.565
550.488
550.41
550.331
550.249
550.165
550.076
549.983
549.886
549.786
549.684
549.582
549.48
549.38
549.282
549.187
549.096
549.007
548.92
548.836
548.754
548.675
548.6
548.527
548.457
548.39
548.326
548.265
548.206
548.149
548.093
548.039
547.985
547.933
547.881
547.829
547.778
547.726
547.674
547.622
547.569
547.515
547.461
547.406
547.349
547.29
547.229
547.165
547.097
547.025
546.949
546.868
546.782
546.69
546.592
546.489
546.38
546.265
546.144
546.017
545.884
545.745
545.602
545.455
545.306
545.158
545.012
544.872
544.737
544.606
544.479
544.354
544.232
544.111
543.993
543.875
543.759
543.644
543.529
543.415
543.302
543.189
543.076
542.963
542.851
542.739
542.627
542.515
542.403
542.29
542.178
542.066
541.954
541.842
541.73
541.618
541.506
541.393
541.281
541.169
541.056
540.944
540.831
540.719
540.606
552.458
552.276
552.099
551.929
551.769
551.621
551.485
551.36
551.245
551.14
551.043
550.952
550.866
550.783
550.703
550.623
550.543
550.462
550.379
550.294
550.204
550.11
550.01
549.906
549.798
549.688
549.577
549.468
549.36
549.256
549.155
549.058
548.964
548.873
548.785
548.699
548.617
548.538
548.462
548.389
548.32
548.254
548.191
548.13
548.071
548.014
547.959
547.905
547.852
547.799
547.747
547.696
547.644
547.592
547.54
547.488
547.434
547.38
547.325
547.269
547.211
547.151
547.088
547.023
546.954
546.88
546.802
546.719
546.631
546.538
546.438
546.334
546.224
546.108
545.986
545.859
545.726
545.587
545.445
545.3
545.154
545.011
544.872
544.737
544.606
544.478
544.353
544.23
544.109
543.99
543.872
543.756
543.64
543.526
543.412
543.298
543.185
543.072
542.96
542.848
542.736
542.624
542.512
542.4
542.288
542.176
542.064
541.953
541.841
541.729
541.617
541.504
541.392
541.28
541.168
541.056
540.943
540.831
540.719
540.606
552.463
552.29
552.122
551.96
551.808
551.666
551.535
551.414
551.303
551.2
551.104
551.013
550.927
550.844
550.762
550.681
550.599
550.515
550.429
550.338
550.244
550.143
550.037
549.926
549.81
549.691
549.573
549.456
549.342
549.231
549.124
549.021
548.921
548.825
548.732
548.643
548.557
548.475
548.396
548.321
548.249
548.18
548.115
548.053
547.993
547.935
547.878
547.823
547.769
547.716
547.664
547.612
547.561
547.509
547.457
547.405
547.352
547.298
547.243
547.188
547.13
547.071
547.01
546.946
546.879
546.808
546.733
546.654
546.569
546.48
546.385
546.285
546.18
546.069
545.952
545.83
545.701
545.568
545.43
545.288
545.146
545.005
544.867
544.733
544.602
544.474
544.349
544.226
544.105
543.985
543.867
543.751
543.635
543.521
543.407
543.294
543.181
543.068
542.956
542.844
542.732
542.621
542.509
542.397
542.286
542.174
542.062
541.951
541.839
541.727
541.615
541.503
541.391
541.279
541.167
541.055
540.943
540.831
540.718
540.606
552.468
552.304
552.144
551.991
551.846
551.71
551.584
551.468
551.359
551.259
551.164
551.074
550.988
550.904
550.822
550.739
550.655
550.568
550.478
550.384
550.284
550.177
550.064
549.945
549.821
549.695
549.569
549.445
549.324
549.207
549.094
548.985
548.879
548.777
548.68
548.587
548.497
548.412
548.33
548.252
548.178
548.107
548.04
547.975
547.914
547.855
547.797
547.741
547.687
547.633
547.581
547.528
547.477
547.425
547.373
547.321
547.268
547.215
547.161
547.106
547.049
546.991
546.931
546.868
546.803
546.734
546.662
546.585
546.505
546.419
546.329
546.233
546.132
546.026
545.914
545.796
545.673
545.544
545.411
545.274
545.134
544.994
544.858
544.725
544.594
544.467
544.342
544.219
544.098
543.979
543.861
543.745
543.629
543.515
543.401
543.288
543.176
543.064
542.952
542.84
542.728
542.617
542.506
542.394
542.283
542.172
542.06
541.949
541.837
541.725
541.614
541.502
541.39
541.278
541.166
541.054
540.942
540.83
540.718
540.606
552.472
552.318
552.167
552.022
551.883
551.754
551.633
551.52
551.415
551.317
551.224
551.135
551.049
550.964
550.881
550.797
550.71
550.621
550.528
550.429
550.324
550.212
550.092
549.965
549.834
549.7
549.566
549.436
549.309
549.185
549.065
548.949
548.837
548.73
548.627
548.53
548.437
548.349
548.265
548.185
548.108
548.035
547.965
547.899
547.836
547.775
547.716
547.659
547.604
547.55
547.497
547.445
547.393
547.341
547.29
547.238
547.185
547.132
547.078
547.024
546.968
546.91
546.851
546.789
546.725
546.659
546.589
546.515
546.438
546.356
546.269
546.178
546.081
545.98
545.873
545.76
545.641
545.517
545.388
545.254
545.118
544.98
544.846
544.714
544.584
544.457
544.333
544.21
544.089
543.971
543.853
543.737
543.622
543.508
543.395
543.282
543.17
543.058
542.947
542.835
542.724
542.613
542.502
542.391
542.28
542.169
542.058
541.946
541.835
541.724
541.612
541.501
541.389
541.277
541.166
541.054
540.942
540.83
540.718
540.606
552.477
552.332
552.189
552.051
551.92
551.796
551.681
551.572
551.47
551.374
551.282
551.194
551.108
551.024
550.94
550.854
550.766
550.674
550.578
550.475
550.366
550.248
550.121
549.987
549.848
549.706
549.565
549.428
549.294
549.165
549.038
548.915
548.797
548.683
548.576
548.474
548.378
548.287
548.2
548.118
548.039
547.964
547.892
547.824
547.759
547.697
547.637
547.579
547.523
547.469
547.415
547.362
547.31
547.258
547.206
547.154
547.102
547.049
546.996
546.942
546.886
546.829
546.771
546.71
546.647
546.582
546.514
546.443
546.368
546.29
546.207
546.12
546.027
545.93
545.828
545.72
545.606
545.486
545.361
545.232
545.099
544.963
544.83
544.699
544.571
544.445
544.321
544.199
544.079
543.961
543.844
543.728
543.614
543.5
543.387
543.275
543.164
543.052
542.941
542.83
542.72
542.609
542.498
542.388
542.277
542.166
542.055
541.944
541.833
541.722
541.611
541.499
541.388
541.276
541.165
541.053
540.941
540.83
540.718
540.606
552.481
552.345
552.211
552.081
551.956
551.838
551.727
551.622
551.523
551.429
551.339
551.252
551.167
551.083
550.998
550.911
550.821
550.727
550.628
550.522
550.408
550.285
550.152
550.011
549.864
549.714
549.566
549.421
549.281
549.146
549.013
548.883
548.758
548.638
548.525
548.419
548.32
548.226
548.137
548.052
547.972
547.895
547.822
547.752
547.686
547.622
547.561
547.501
547.444
547.389
547.334
547.281
547.228
547.176
547.125
547.073
547.02
546.968
546.915
546.861
546.806
546.749
546.691
546.632
546.57
546.506
546.439
546.37
546.298
546.222
546.143
546.059
545.971
545.878
545.78
545.676
545.567
545.452
545.331
545.206
545.075
544.942
544.811
544.682
544.555
544.43
544.307
544.186
544.066
543.949
543.833
543.718
543.604
543.491
543.379
543.268
543.157
543.046
542.935
542.825
542.715
542.605
542.494
542.384
542.274
542.163
542.053
541.942
541.831
541.72
541.609
541.498
541.387
541.275
541.164
541.052
540.941
540.829
540.717
540.606
552.486
552.357
552.231
552.109
551.991
551.879
551.772
551.671
551.575
551.483
551.395
551.31
551.225
551.141
551.055
550.967
550.876
550.78
550.678
550.569
550.451
550.323
550.185
550.038
549.882
549.724
549.567
549.415
549.268
549.127
548.989
548.853
548.721
548.596
548.478
548.367
548.264
548.167
548.075
547.988
547.906
547.828
547.753
547.682
547.615
547.549
547.487
547.426
547.368
547.312
547.257
547.203
547.15
547.097
547.045
546.993
546.941
546.888
546.835
546.782
546.727
546.671
546.614
546.555
546.494
546.431
546.366
546.298
546.228
546.154
546.078
545.998
545.913
545.824
545.731
545.632
545.527
545.416
545.299
545.177
545.048
544.915
544.787
544.661
544.536
544.413
544.291
544.17
544.052
543.935
543.82
543.706
543.593
543.481
543.37
543.259
543.149
543.039
542.929
542.819
542.71
542.6
542.49
542.38
542.27
542.16
542.05
541.939
541.829
541.718
541.607
541.496
541.385
541.274
541.163
541.052
540.94
540.829
540.717
540.606
552.49
552.369
552.251
552.135
552.024
551.917
551.815
551.718
551.625
551.536
551.449
551.365
551.281
551.197
551.111
551.022
550.93
550.832
550.728
550.615
550.493
550.36
550.216
550.061
549.899
549.733
549.568
549.408
549.256
549.109
548.966
548.824
548.686
548.555
548.432
548.317
548.21
548.11
548.016
547.928
547.844
547.764
547.688
547.616
547.547
547.48
547.416
547.355
547.295
547.238
547.182
547.128
547.074
547.021
546.969
546.917
546.865
546.812
546.759
546.705
546.651
546.596
546.539
546.481
546.421
546.359
546.295
546.228
546.159
546.088
546.014
545.936
545.855
545.77
545.68
545.584
545.484
545.377
545.264
545.144
545.016
544.879
544.758
544.638
544.515
544.393
544.272
544.153
544.035
543.92
543.806
543.693
543.581
543.47
543.36
543.25
543.141
543.032
542.923
542.814
542.704
542.595
542.486
542.376
542.267
542.157
542.047
541.937
541.827
541.716
541.606
541.495
541.384
541.273
541.162
541.051
540.94
540.828
540.717
540.606
552.493
552.381
552.269
552.161
552.055
551.954
551.856
551.763
551.673
551.586
551.501
551.418
551.334
551.25
551.164
551.075
550.981
550.882
550.776
550.66
550.534
550.397
550.247
550.087
549.917
549.743
549.57
549.402
549.243
549.091
548.943
548.796
548.653
548.517
548.389
548.27
548.159
548.056
547.959
547.869
547.784
547.703
547.626
547.552
547.482
547.415
547.35
547.287
547.227
547.168
547.112
547.057
547.003
546.949
546.897
546.844
546.792
546.74
546.687
546.633
546.579
546.524
546.468
546.41
546.351
546.291
546.227
546.162
546.094
546.024
545.951
545.876
545.797
545.715
545.628
545.537
545.44
545.338
545.229
545.111
544.98
544.833
544.726
544.612
544.492
544.371
544.251
544.133
544.017
543.902
543.79
543.678
543.568
543.458
543.349
543.241
543.132
543.024
542.916
542.807
542.699
542.59
542.482
542.373
542.263
542.154
542.044
541.935
541.825
541.714
541.604
541.494
541.383
541.272
541.161
541.05
540.939
540.828
540.717
540.606
552.497
552.392
552.287
552.185
552.085
551.989
551.895
551.805
551.718
551.633
551.55
551.467
551.384
551.3
551.214
551.124
551.03
550.93
550.822
550.704
550.575
550.433
550.279
550.114
549.94
549.76
549.578
549.399
549.23
549.072
548.92
548.77
548.623
548.483
548.351
548.227
548.112
548.006
547.907
547.814
547.727
547.645
547.567
547.493
547.421
547.353
547.287
547.224
547.163
547.104
547.046
546.991
546.936
546.883
546.83
546.777
546.725
546.672
546.619
546.566
546.512
546.457
546.402
546.345
546.286
546.226
546.164
546.099
546.032
545.963
545.891
545.817
545.741
545.661
545.578
545.49
545.397
545.298
545.193
545.08
544.958
544.827
544.708
544.588
544.467
544.346
544.227
544.111
543.996
543.883
543.772
543.663
543.554
543.446
543.338
543.231
543.123
543.016
542.909
542.801
542.693
542.585
542.477
542.369
542.26
542.151
542.042
541.932
541.823
541.713
541.602
541.492
541.382
541.271
541.16
541.05
540.939
540.828
540.717
540.606
552.5
552.401
552.303
552.207
552.112
552.02
551.931
551.844
551.759
551.676
551.594
551.512
551.43
551.346
551.26
551.17
551.076
550.974
550.865
550.745
550.613
550.468
550.31
550.14
549.96
549.773
549.582
549.394
549.217
549.053
548.899
548.747
548.598
548.454
548.318
548.19
548.071
547.961
547.858
547.763
547.674
547.591
547.512
547.436
547.365
547.296
547.23
547.166
547.105
547.045
546.988
546.931
546.877
546.823
546.769
546.717
546.664
546.611
546.559
546.506
546.452
546.397
546.342
546.285
546.227
546.167
546.105
546.041
545.974
545.906
545.835
545.762
545.687
545.61
545.529
545.444
545.354
545.259
545.158
545.051
544.935
544.81
544.686
544.563
544.44
544.319
544.201
544.086
543.973
543.862
543.753
543.645
543.539
543.432
543.326
543.22
543.114
543.008
542.901
542.795
542.688
542.58
542.473
542.365
542.257
542.148
542.039
541.93
541.82
541.711
541.601
541.491
541.381
541.27
541.16
541.049
540.938
540.827
540.716
540.605
552.503
552.41
552.318
552.226
552.136
552.048
551.962
551.878
551.795
551.714
551.633
551.552
551.471
551.387
551.301
551.211
551.116
551.015
550.905
550.784
550.649
550.499
550.337
550.163
549.979
549.787
549.589
549.392
549.207
549.036
548.878
548.725
548.574
548.428
548.29
548.159
548.036
547.922
547.816
547.717
547.626
547.54
547.46
547.384
547.312
547.243
547.177
547.114
547.053
546.994
546.937
546.881
546.826
546.771
546.718
546.664
546.612
546.559
546.507
546.454
546.4
546.345
546.29
546.233
546.174
546.114
546.052
545.987
545.921
545.853
545.783
545.71
545.637
545.561
545.483
545.401
545.314
545.222
545.123
545.019
544.907
544.786
544.66
544.534
544.41
544.289
544.172
544.058
543.948
543.84
543.733
543.627
543.522
543.418
543.314
543.209
543.104
542.999
542.894
542.788
542.682
542.576
542.468
542.361
542.253
542.145
542.037
541.928
541.819
541.709
541.599
541.49
541.379
541.269
541.159
541.048
540.938
540.827
540.716
540.605
552.506
552.417
552.33
552.242
552.156
552.072
551.989
551.907
551.826
551.747
551.666
551.586
551.504
551.421
551.335
551.245
551.15
551.048
550.938
550.814
550.676
550.524
550.357
550.18
549.994
549.798
549.595
549.391
549.196
549.018
548.857
548.705
548.555
548.409
548.269
548.136
548.01
547.891
547.781
547.678
547.583
547.495
547.412
547.335
547.263
547.195
547.13
547.067
547.008
546.951
546.895
546.84
546.785
546.731
546.677
546.623
546.57
546.518
546.466
546.412
546.359
546.303
546.247
546.188
546.127
546.066
546.003
545.939
545.873
545.805
545.737
545.664
545.592
545.517
545.441
545.362
545.278
545.189
545.093
544.99
544.88
544.761
544.637
544.503
544.375
544.254
544.139
544.028
543.92
543.815
543.711
543.608
543.506
543.404
543.301
543.198
543.095
542.991
542.887
542.782
542.677
542.571
542.464
542.357
542.25
542.142
542.034
541.926
541.817
541.708
541.598
541.488
541.378
541.268
541.158
541.048
540.937
540.827
540.716
540.605
552.508
552.423
552.339
552.255
552.172
552.091
552.011
551.931
551.852
551.773
551.692
551.612
551.529
551.445
551.358
551.268
551.173
551.072
550.962
550.837
550.696
550.537
550.365
550.186
549.999
549.802
549.598
549.391
549.191
549.007
548.841
548.688
548.54
548.396
548.258
548.124
547.995
547.872
547.757
547.649
547.55
547.458
547.372
547.293
547.22
547.151
547.087
547.026
546.97
546.917
546.865
546.813
546.759
546.704
546.653
546.595
546.546
546.491
546.442
546.385
546.334
546.271
546.214
546.149
546.081
546.022
545.961
545.897
545.835
545.77
545.712
545.631
545.562
545.481
545.405
545.327
545.246
545.162
545.069
544.966
544.857
544.741
544.628
544.472
544.335
544.214
544.101
543.993
543.89
543.788
543.688
543.588
543.489
543.389
543.289
543.188
543.086
542.983
542.88
542.776
542.672
542.566
542.461
542.354
542.247
542.14
542.032
541.924
541.815
541.706
541.597
541.487
541.378
541.268
541.157
541.047
540.937
540.826
540.716
540.605
552.509
552.427
552.345
552.264
552.185
552.107
552.029
551.952
551.873
551.793
551.711
551.627
551.542
551.456
551.368
551.277
551.183
551.083
550.973
550.848
550.703
550.54
550.364
550.184
549.998
549.802
549.599
549.393
549.192
549.002
548.831
548.687
548.542
548.405
548.272
548.14
548.008
547.879
547.757
547.645
547.54
547.444
547.354
547.27
547.192
547.122
547.058
546.998
546.945
546.898
546.854
546.805
546.753
546.704
546.674
546.595
546.558
546.489
546.455
546.38
546.349
546.258
546.208
546.123
546.029
545.989
545.949
545.879
545.83
545.77
545.759
545.626
545.561
545.449
545.363
545.287
545.216
545.154
545.07
544.958
544.851
544.726
544.584
544.426
544.283
544.164
544.057
543.955
543.857
543.76
543.664
543.568
543.472
543.375
543.277
543.177
543.077
542.976
542.874
542.771
542.667
542.562
542.457
542.351
542.245
542.137
542.03
541.922
541.813
541.705
541.596
541.486
541.377
541.267
541.157
541.047
540.937
540.826
540.716
540.605
552.509
552.428
552.348
552.27
552.194
552.121
552.047
551.971
551.892
551.808
551.721
551.63
551.539
551.449
551.358
551.267
551.173
551.076
550.969
550.844
550.7
550.532
550.354
550.184
550.018
549.825
549.621
549.415
549.221
549.028
548.859
548.763
548.625
548.497
548.374
548.245
548.11
547.966
547.84
547.72
547.608
547.506
547.412
547.315
547.227
547.146
547.083
547.017
546.969
546.93
546.893
546.838
546.79
546.741
546.686
546.627
546.573
546.51
546.448
546.379
546.319
546.272
546.211
546.131
546.041
545.976
545.964
545.916
545.86
545.798
545.721
545.61
545.489
545.344
545.23
545.231
545.279
545.234
545.074
544.946
544.932
544.732
544.546
544.338
544.209
544.104
544.007
543.914
543.823
543.732
543.64
543.548
543.455
543.361
543.265
543.168
543.069
542.969
542.868
542.766
542.663
542.559
542.454
542.348
542.242
542.135
542.028
541.92
541.812
541.704
541.595
541.485
541.376
541.266
541.156
541.046
540.936
540.826
540.716
540.605
552.509
552.427
552.348
552.274
552.206
552.139
552.07
551.994
551.911
551.818
551.717
551.611
551.509
551.417
551.325
551.233
551.142
551.053
550.965
550.845
550.713
550.535
550.35
550.221
550.146
549.966
549.75
549.532
549.369
549.166
548.96
548.785
548.632
548.493
548.361
548.23
548.089
547.952
547.831
547.715
547.602
547.497
547.406
547.308
547.202
547.123
547.053
547.005
546.958
546.922
546.869
546.796
546.761
546.718
546.699
546.665
546.61
546.526
546.427
546.368
546.315
546.304
546.248
546.141
545.994
545.966
546
545.966
545.907
545.801
545.711
545.567
545.464
545.36
545.267
545.213
545.186
545.155
545.075
544.948
544.863
544.73
544.571
544.272
544.125
544.035
543.952
543.87
543.788
543.703
543.617
543.529
543.44
543.348
543.255
543.16
543.062
542.964
542.863
542.762
542.659
542.556
542.451
542.346
542.24
542.134
542.027
541.919
541.811
541.703
541.594
541.485
541.375
541.266
541.156
541.046
540.936
540.826
540.715
540.605
552.507
552.423
552.345
552.281
552.236
552.177
552.103
552.017
551.92
551.809
551.689
551.559
551.446
551.375
551.286
551.194
551.112
551.05
551.041
550.946
550.888
550.649
550.407
550.353
550.182
549.941
549.754
549.548
549.371
549.165
548.973
548.767
548.593
548.436
548.292
548.153
548.018
547.903
547.809
547.706
547.591
547.488
547.394
547.282
547.157
547.062
547.023
546.983
546.949
546.874
546.822
546.716
546.641
546.638
546.638
546.62
546.591
546.467
546.342
546.316
546.281
546.275
546.237
546.114
546.001
545.969
545.964
545.916
545.854
545.744
545.645
545.528
545.448
545.361
545.281
545.209
545.147
545.085
545.012
544.91
544.814
544.709
544.534
544.239
544.059
543.967
543.896
543.828
543.755
543.676
543.594
543.511
543.426
543.338
543.246
543.153
543.057
542.959
542.86
542.759
542.657
542.554
542.449
542.345
542.239
542.133
542.026
541.918
541.81
541.702
541.593
541.484
541.375
541.265
541.156
541.046
540.936
540.826
540.715
540.605
552.503
552.415
552.344
552.328
552.356
552.275
552.151
552.004
551.871
551.753
551.637
551.497
551.403
551.461
551.345
551.233
551.154
551.109
551.021
550.923
550.847
550.642
550.37
550.187
550.045
549.85
549.722
549.569
549.421
549.175
548.926
548.669
548.508
548.321
548.187
548.005
547.901
547.78
547.746
547.666
547.566
547.471
547.366
547.208
547.095
546.962
546.951
546.969
546.908
546.854
546.768
546.665
546.616
546.589
546.588
546.549
546.527
546.44
546.361
546.319
546.276
546.239
546.195
546.107
546.03
545.972
545.916
545.843
545.772
545.674
545.579
545.486
545.411
545.337
545.265
545.192
545.12
545.046
544.97
544.881
544.758
544.478
544.309
544.18
543.986
543.916
543.845
543.79
543.727
543.65
543.572
543.496
543.415
543.329
543.24
543.148
543.053
542.956
542.857
542.757
542.655
542.552
542.448
542.343
542.238
542.132
542.025
541.917
541.81
541.701
541.593
541.484