/*--------------------------------*- C++ -*----------------------------------*\
  =========                 |
  \\      /  F ield         | OpenFOAM: The Open Source CFD Toolbox
   \\    /   O peration     | Website:  https://openfoam.org
    \\  /    A nd           | Version:  6
     \\/     M anipulation  |
\*---------------------------------------------------------------------------*/
FoamFile
{
    version     2.0;
    format      ascii;
    class       volVectorField;
    location    "2550";
    object      U;
}
// * * * * * * * * * * * * * * * * * * * * * * * * * * * * * * * * * * * * * //

dimensions      [0 1 -1 0 0 0 0];

internalField   nonuniform List<vector> 
4800
(
(-8.69047e-05 0 -6.97818e-05)
(5.55764e-05 0 -5.9243e-05)
(3.25491e-05 0 -0.000311948)
(3.30795e-06 0 -0.000662686)
(0.000112593 0 -0.000259014)
(-0.000508886 0 -0.000137618)
(-0.000822774 0 9.63984e-05)
(-0.00102335 0 -7.67042e-05)
(-0.0011496 0 -0.000164626)
(-0.00125746 0 0.000123773)
(-0.00134635 0 -0.000163136)
(-0.0014057 0 -4.5748e-06)
(-0.00141793 0 -1.91699e-05)
(-0.00140774 0 -2.57716e-05)
(-0.00141989 0 -6.85754e-05)
(-0.00143326 0 -7.5429e-05)
(-0.00125 0 -0.00015001)
(-0.00102715 0 -0.000309112)
(-0.000923904 0 -0.000121685)
(-0.000778602 0 -0.000305299)
(-0.000644707 0 -0.00020093)
(-0.000523009 0 -0.000136302)
(-0.000376456 0 -0.000197976)
(4.62124e-05 0 -0.000422901)
(0.000157169 0 -0.00016395)
(0.000253524 0 -0.000159689)
(0.000402833 0 -0.000160595)
(0.000536397 0 -9.9489e-06)
(0.000573963 0 -8.26914e-05)
(0.000660222 0 -0.00011382)
(0.00079214 0 -9.93878e-05)
(0.000914111 0 -7.74976e-06)
(0.00102889 0 -0.000223739)
(0.00123076 0 -4.3595e-05)
(0.00137368 0 5.26254e-05)
(0.00136941 0 -0.000121732)
(0.00140422 0 -0.000104535)
(0.00149383 0 4.84448e-05)
(0.00154917 0 -5.32319e-05)
(0.00154947 0 -4.64626e-05)
(0.00156298 0 -3.32294e-05)
(0.00158426 0 -7.18306e-05)
(0.00161418 0 -0.00011788)
(0.00165438 0 -3.82006e-05)
(0.00165698 0 -7.80198e-06)
(0.00165496 0 1.20033e-05)
(0.00165158 0 3.35869e-05)
(0.00164251 0 5.08875e-05)
(0.00162641 0 5.18089e-05)
(0.00161194 0 3.05448e-05)
(0.00160369 0 1.78343e-05)
(0.00159328 0 1.15262e-05)
(0.00157918 0 9.59658e-06)
(0.00156365 0 1.40814e-05)
(0.00154686 0 1.94018e-05)
(0.00153307 0 1.79043e-05)
(0.00152455 0 8.47461e-06)
(0.00151541 0 1.23301e-05)
(0.00150157 0 1.49559e-05)
(0.00148362 0 1.17987e-05)
(0.00146121 0 1.85983e-05)
(0.00143084 0 2.93809e-05)
(0.00139415 0 1.73026e-05)
(0.00134971 0 3.52762e-05)
(0.00129919 0 6.17599e-06)
(0.00124554 0 6.67958e-05)
(0.00118593 0 -2.18591e-05)
(0.00112006 0 0.000132064)
(0.00106516 0 -7.15205e-05)
(0.000943226 0 0.000231696)
(0.000821229 0 -5.00214e-05)
(0.000381433 0 0.000106365)
(-0.000635024 0 -0.000655961)
(-0.000379318 0 -0.000542427)
(-0.000449349 0 -0.000253928)
(-0.000431505 0 -0.000143091)
(-0.000289091 0 -0.000243462)
(-0.000196394 0 -0.000226349)
(-0.000478549 0 -0.000269572)
(5.78292e-06 0 -1.65017e-05)
(-3.03382e-12 0 5.05823e-14)
(-4.02897e-12 0 -5.05888e-13)
(-2.06689e-12 0 -2.61133e-13)
(-1.71216e-12 0 -9.27332e-14)
(-1.59559e-12 0 -2.28309e-14)
(-1.56366e-12 0 -7.99916e-15)
(-1.53831e-12 0 -1.61657e-14)
(-1.48956e-12 0 -3.13157e-14)
(-1.41015e-12 0 -4.67514e-14)
(-1.30192e-12 0 -6.00596e-14)
(-1.16981e-12 0 -7.05669e-14)
(-1.01949e-12 0 -7.82382e-14)
(-8.56485e-13 0 -8.32449e-14)
(-6.85906e-13 0 -8.58142e-14)
(-5.12405e-13 0 -8.61838e-14)
(-3.40146e-13 0 -8.45942e-14)
(-1.72805e-13 0 -8.1289e-14)
(-1.35654e-14 0 -7.65165e-14)
(1.34884e-13 0 -7.05283e-14)
(2.70351e-13 0 -6.35746e-14)
(3.91134e-13 0 -5.58993e-14)
(4.96004e-13 0 -4.77339e-14)
(5.84182e-13 0 -3.92922e-14)
(6.55299e-13 0 -3.07663e-14)
(7.09351e-13 0 -2.23237e-14)
(7.46647e-13 0 -1.41063e-14)
(7.67762e-13 0 -6.23026e-15)
(7.73476e-13 0 1.2126e-15)
(7.64737e-13 0 8.15315e-15)
(7.42606e-13 0 1.45422e-14)
(7.08227e-13 0 2.03476e-14)
(6.62795e-13 0 2.55514e-14)
(6.07525e-13 0 3.01467e-14)
(5.43639e-13 0 3.41349e-14)
(4.72349e-13 0 3.75231e-14)
(3.94849e-13 0 4.03219e-14)
(3.12309e-13 0 4.25435e-14)
(2.25875e-13 0 4.42009e-14)
(1.36664e-13 0 4.53091e-14)
(4.57509e-14 0 4.58947e-14)
(-0.000123331 0 -9.3723e-05)
(0.000179465 0 1.47533e-05)
(-0.000342816 0 0.00036853)
(-0.00064663 0 0.000322733)
(-0.000714995 0 8.8852e-06)
(-0.000682002 0 0.000603306)
(-0.00103828 0 0.000180884)
(-0.00106751 0 0.000341689)
(-0.00112187 0 0.000327406)
(-0.00125434 0 9.54832e-05)
(-0.00135667 0 0.000243353)
(-0.00143478 0 6.62939e-05)
(-0.00146223 0 4.13593e-05)
(-0.00147693 0 -3.50185e-06)
(-0.0014787 0 -3.39693e-05)
(-0.00149032 0 6.23316e-06)
(-0.00141104 0 -0.00033904)
(-0.00122902 0 -0.000436164)
(-0.00117177 0 0.000100694)
(-0.000961169 0 -0.000294935)
(-0.000793084 0 -4.30295e-05)
(-0.000621512 0 -0.000163326)
(-0.000494636 0 -0.000297674)
(1.38446e-05 0 -0.000545245)
(-3.99251e-05 0 7.82663e-06)
(0.000120229 0 -0.000148427)
(0.000328195 0 -0.000167357)
(0.000483438 0 4.05349e-05)
(0.000493005 0 -0.000207045)
(0.000615526 0 -0.000103547)
(0.000769486 0 -9.90862e-05)
(0.000854316 0 -0.000338339)
(0.00102982 0 -0.000214579)
(0.00117291 0 -9.87187e-05)
(0.00122278 0 -0.000280309)
(0.00128735 0 -0.000226422)
(0.00134074 0 -8.32375e-05)
(0.00139053 0 -6.08931e-05)
(0.00144787 0 -0.000128829)
(0.00150785 0 -0.000105595)
(0.00155817 0 -3.67994e-05)
(0.0016064 0 8.47698e-06)
(0.00161257 0 2.85867e-05)
(0.0015881 0 2.33148e-05)
(0.00154439 0 8.15777e-06)
(0.00152438 0 -9.60688e-06)
(0.00150917 0 -1.62025e-05)
(0.0014848 0 -1.63353e-05)
(0.00146745 0 -1.30052e-05)
(0.00146963 0 -1.17717e-05)
(0.0014717 0 1.0872e-05)
(0.00146738 0 1.41848e-05)
(0.00146028 0 2.14657e-05)
(0.00144756 0 2.16938e-05)
(0.00142306 0 2.52154e-05)
(0.00139219 0 2.32435e-05)
(0.00137378 0 2.3121e-05)
(0.00135995 0 6.43521e-06)
(0.00134244 0 1.19709e-05)
(0.00132464 0 8.31529e-06)
(0.00130781 0 2.76116e-05)
(0.0012815 0 9.54976e-06)
(0.00124836 0 5.16253e-05)
(0.00121207 0 4.57678e-05)
(0.00116585 0 6.13873e-05)
(0.00112751 0 5.69072e-05)
(0.00108788 0 0.000138261)
(0.00103966 0 -5.21852e-05)
(0.000967503 0 0.000299377)
(0.000992561 0 -7.25291e-05)
(0.000896103 0 0.000403615)
(0.000732417 0 0.000492361)
(0.000689755 0 0.00059832)
(0.000483729 0 0.000638364)
(0.000387032 0 0.000410429)
(-0.000129779 0 -0.000122435)
(-5.8352e-05 0 -0.000161296)
(0.000346816 0 -0.000182796)
(-0.00026136 0 -0.000220987)
(6.08685e-06 0 0.00012691)
(-3.43823e-12 0 -2.81016e-16)
(-3.84694e-12 0 -1.82402e-12)
(-1.65382e-12 0 -7.0672e-13)
(-1.47383e-12 0 -1.79271e-13)
(-1.51084e-12 0 -1.2936e-14)
(-1.557e-12 0 -4.8397e-16)
(-1.56163e-12 0 -4.09644e-14)
(-1.52015e-12 0 -9.30862e-14)
(-1.43889e-12 0 -1.4179e-13)
(-1.32573e-12 0 -1.82381e-13)
(-1.18799e-12 0 -2.1394e-13)
(-1.03217e-12 0 -2.36791e-13)
(-8.64061e-13 0 -2.51595e-13)
(-6.88845e-13 0 -2.59075e-13)
(-5.11185e-13 0 -2.59953e-13)
(-3.35251e-13 0 -2.54949e-13)
(-1.64727e-13 0 -2.44798e-13)
(-2.8047e-15 0 -2.30249e-13)
(1.47826e-13 0 -2.12061e-13)
(2.8498e-13 0 -1.90989e-13)
(4.06974e-13 0 -1.6777e-13)
(5.12611e-13 0 -1.43099e-13)
(6.0115e-13 0 -1.17621e-13)
(6.72268e-13 0 -9.19115e-14)
(7.26011e-13 0 -6.64743e-14)
(7.62741e-13 0 -4.1734e-14)
(7.83081e-13 0 -1.80385e-14)
(7.8786e-13 0 4.33882e-15)
(7.78066e-13 0 2.51923e-14)
(7.548e-13 0 4.43767e-14)
(7.19237e-13 0 6.17984e-14)
(6.72594e-13 0 7.74061e-14)
(6.16109e-13 0 9.11816e-14)
(5.51016e-13 0 1.03132e-13)
(4.78536e-13 0 1.1328e-13)
(3.99869e-13 0 1.2166e-13)
(3.16188e-13 0 1.28308e-13)
(2.28641e-13 0 1.33264e-13)
(1.38358e-13 0 1.36561e-13)
(4.63365e-14 0 1.38239e-13)
(-0.000326573 0 7.34413e-05)
(-0.000311712 0 0.000315872)
(-0.000316373 0 0.000599324)
(-0.000734313 0 0.000514422)
(-0.000877584 0 0.000541169)
(-0.00100664 0 0.000479281)
(-0.00111882 0 0.000337965)
(-0.00111444 0 0.000346003)
(-0.00117033 0 0.000217069)
(-0.00129982 0 0.00018036)
(-0.00136941 0 0.000227854)
(-0.00143081 0 0.000102021)
(-0.0014808 0 7.47582e-05)
(-0.00150217 0 4.65047e-05)
(-0.00145407 0 -8.22534e-05)
(-0.00142054 0 -9.86803e-05)
(-0.00141318 0 -0.000204022)
(-0.00129112 0 -0.000594463)
(-0.00116225 0 -0.000376338)
(-0.0010364 0 -0.000284159)
(-0.000804769 0 -0.000513188)
(-0.00077637 0 -0.000406203)
(-0.00043144 0 -0.000749586)
(-0.00023997 0 -0.000640119)
(-0.000247852 0 -0.00039662)
(2.30579e-05 0 -0.000320013)
(0.000135356 0 -0.000351471)
(0.000340945 0 -0.000247967)
(0.000452283 0 -0.000211739)
(0.000425105 0 -0.000484768)
(0.000690908 0 -0.000349612)
(0.000881062 0 -0.000293183)
(0.000903948 0 -0.000513285)
(0.00103838 0 -0.000224753)
(0.00107291 0 -9.32733e-05)
(0.00107498 0 -0.000148173)
(0.00109898 0 -0.000181293)
(0.00118204 0 -0.000151099)
(0.00129108 0 -9.1677e-05)
(0.00133534 0 -8.27763e-05)
(0.00134571 0 -8.8204e-05)
(0.00136397 0 -9.53533e-05)
(0.00140991 0 -3.94438e-05)
(0.00141287 0 -5.3296e-06)
(0.00140089 0 2.86742e-05)
(0.00138456 0 5.94409e-05)
(0.00136972 0 7.07094e-05)
(0.00135306 0 5.93127e-05)
(0.00133987 0 4.02644e-05)
(0.00132808 0 1.62057e-05)
(0.00131097 0 2.72316e-05)
(0.00128567 0 -2.91946e-06)
(0.00125977 0 1.74683e-05)
(0.00123511 0 4.49187e-05)
(0.00121464 0 3.14848e-05)
(0.00119165 0 2.78893e-05)
(0.0011677 0 5.58998e-05)
(0.00115334 0 5.64975e-05)
(0.00114161 0 5.05998e-05)
(0.00112324 0 5.82575e-05)
(0.00109903 0 0.000102017)
(0.001079 0 7.18515e-05)
(0.00105562 0 0.000109991)
(0.00103917 0 8.52683e-05)
(0.00101676 0 0.000148883)
(0.00101223 0 -1.66049e-05)
(0.000966269 0 0.000276112)
(0.000946191 0 -0.000101295)
(0.000912654 0 0.000278478)
(0.000913862 0 0.000299724)
(0.000874218 0 0.000413104)
(0.000848427 0 0.00052436)
(0.00080806 0 0.000536417)
(0.000725467 0 0.000491159)
(0.000614691 0 0.000319886)
(0.000265246 0 0.000342728)
(0.000317854 0 -0.000183534)
(0.000338138 0 -0.000237476)
(-0.000572714 0 -0.000157965)
(6.57723e-06 0 0.000518108)
(-2.78997e-12 0 2.68168e-12)
(-2.91615e-12 0 -3.76196e-12)
(-4.22203e-13 0 -5.62322e-13)
(-1.0183e-12 0 9.55779e-14)
(-1.41677e-12 0 1.51167e-13)
(-1.59169e-12 0 6.02932e-14)
(-1.63092e-12 0 -5.37634e-14)
(-1.59039e-12 0 -1.57896e-13)
(-1.49944e-12 0 -2.44549e-13)
(-1.37407e-12 0 -3.13339e-13)
(-1.22422e-12 0 -3.65633e-13)
(-1.05715e-12 0 -4.03006e-13)
(-8.78769e-13 0 -4.2689e-13)
(-6.94264e-13 0 -4.38562e-13)
(-5.08279e-13 0 -4.39226e-13)
(-3.24992e-13 0 -4.30078e-13)
(-1.48105e-13 0 -4.12339e-13)
(1.91721e-14 0 -3.87266e-13)
(1.74144e-13 0 -3.56141e-13)
(3.14642e-13 0 -3.20241e-13)
(4.39024e-13 0 -2.80808e-13)
(5.46153e-13 0 -2.39018e-13)
(6.3537e-13 0 -1.95953e-13)
(7.06446e-13 0 -1.52582e-13)
(7.59528e-13 0 -1.09747e-13)
(7.95083e-13 0 -6.81552e-14)
(8.13834e-13 0 -2.83823e-14)
(8.16707e-13 0 9.12167e-15)
(8.04774e-13 0 4.40221e-14)
(7.79212e-13 0 7.60861e-14)
(7.41257e-13 0 1.05167e-13)
(6.92178e-13 0 1.3119e-13)
(6.33251e-13 0 1.54133e-13)
(5.65738e-13 0 1.74017e-13)
(4.90877e-13 0 1.90888e-13)
(4.09877e-13 0 2.04808e-13)
(3.23913e-13 0 2.15845e-13)
(2.34128e-13 0 2.24061e-13)
(1.41639e-13 0 2.29511e-13)
(4.74286e-14 0 2.32227e-13)
(2.04569e-05 0 0.000342199)
(-0.000611751 0 0.000406121)
(-0.000520801 0 0.000641545)
(-0.000688516 0 0.000640428)
(-0.000873597 0 0.000558034)
(-0.00096452 0 0.00061156)
(-0.00104997 0 0.000574634)
(-0.00112078 0 0.000458655)
(-0.00123286 0 0.000269075)
(-0.00129043 0 0.000349808)
(-0.00133801 0 0.000283398)
(-0.00139318 0 7.5863e-05)
(-0.00141535 0 5.01728e-05)
(-0.00141586 0 5.78951e-07)
(-0.00132821 0 -0.000170199)
(-0.00128815 0 -0.000178284)
(-0.00127228 0 -0.000316431)
(-0.00127876 0 -0.00033873)
(-0.00109824 0 -0.000571882)
(-0.00100653 0 -0.000494541)
(-0.000820029 0 -0.000679131)
(-0.000824798 0 -0.000635866)
(-0.000490527 0 -0.000896526)
(-0.000392514 0 -0.000743288)
(-0.000207716 0 -0.000638394)
(-0.000142038 0 -0.000508286)
(0.000101586 0 -0.000401308)
(0.00026272 0 -0.000328091)
(0.000249595 0 -0.000427627)
(0.000371608 0 -0.000569081)
(0.000612483 0 -0.000489028)
(0.000785376 0 -0.00035566)
(0.000811649 0 -0.000286632)
(0.000768732 0 -0.000254896)
(0.000763305 0 -0.000224823)
(0.000781425 0 -0.000230923)
(0.000831956 0 -0.000234036)
(0.000899045 0 -0.000167112)
(0.000912217 0 -0.000169695)
(0.000936771 0 -0.00016436)
(0.000995443 0 -0.000123272)
(0.00105477 0 -0.000124913)
(0.00112632 0 7.34311e-06)
(0.00116481 0 2.96425e-05)
(0.00116872 0 1.02595e-05)
(0.00117819 0 3.36675e-05)
(0.00119139 0 4.54388e-05)
(0.00119293 0 2.19243e-05)
(0.00118947 0 4.61439e-05)
(0.00117216 0 5.56798e-05)
(0.00113813 0 6.51674e-05)
(0.00109411 0 4.677e-05)
(0.00105725 0 7.12939e-05)
(0.00104463 0 8.61457e-05)
(0.00104923 0 0.000100324)
(0.00107943 0 5.55899e-05)
(0.0011073 0 3.32874e-05)
(0.001116 0 2.74007e-05)
(0.00111987 0 4.21148e-05)
(0.00111459 0 5.53244e-05)
(0.00110021 0 5.66897e-05)
(0.00106857 0 0.000119518)
(0.00103926 0 0.000100578)
(0.00101717 0 0.00011217)
(0.000999512 0 0.000115014)
(0.000956268 0 0.000134478)
(0.000938336 0 0.000174911)
(0.000924807 0 0.00019253)
(0.000922485 0 0.000125215)
(0.000845509 0 0.000356625)
(0.000830094 0 0.000418936)
(0.000850442 0 0.000474806)
(0.000774216 0 0.000598813)
(0.00071158 0 0.000611462)
(0.00068088 0 0.000437064)
(0.00041132 0 0.000425719)
(0.000425711 0 4.10375e-05)
(0.000268509 0 -5.16072e-05)
(-0.000478981 0 6.93959e-05)
(-0.00029907 0 8.88557e-05)
(-3.65047e-07 0 2.9266e-07)
(-1.43584e-12 0 4.37605e-12)
(2.20379e-12 0 1.94203e-12)
(-7.60219e-13 0 9.72514e-13)
(-1.54608e-12 0 4.61518e-13)
(-1.76193e-12 0 1.43994e-13)
(-1.77982e-12 0 -7.67474e-14)
(-1.71094e-12 0 -2.4045e-13)
(-1.59433e-12 0 -3.65443e-13)
(-1.44681e-12 0 -4.61064e-13)
(-1.27766e-12 0 -5.32514e-13)
(-1.09343e-12 0 -5.82974e-13)
(-8.99617e-13 0 -6.14646e-13)
(-7.01182e-13 0 -6.29292e-13)
(-5.02702e-13 0 -6.28536e-13)
(-3.08364e-13 0 -6.14008e-13)
(-1.21915e-13 0 -5.87412e-13)
(5.33928e-14 0 -5.50526e-13)
(2.14851e-13 0 -5.05177e-13)
(3.60314e-13 0 -4.53194e-13)
(4.88198e-13 0 -3.96359e-13)
(5.97466e-13 0 -3.36353e-13)
(6.87585e-13 0 -2.7472e-13)
(7.58474e-13 0 -2.12834e-13)
(8.10438e-13 0 -1.5188e-13)
(8.44106e-13 0 -9.28499e-14)
(8.60357e-13 0 -3.65402e-14)
(8.60264e-13 0 1.64334e-14)
(8.45031e-13 0 6.56206e-14)
(8.15945e-13 0 1.10716e-13)
(7.7434e-13 0 1.51538e-13)
(7.2156e-13 0 1.88e-13)
(6.58936e-13 0 2.20095e-13)
(5.87771e-13 0 2.47868e-13)
(5.09328e-13 0 2.71403e-13)
(4.24826e-13 0 2.90798e-13)
(3.35441e-13 0 3.0616e-13)
(2.42307e-13 0 3.17586e-13)
(1.46523e-13 0 3.25156e-13)
(4.90522e-14 0 3.28925e-13)
(-0.00018463 0 0.00039995)
(-0.000192592 0 0.000782422)
(-0.000507317 0 0.00075983)
(-0.000725811 0 0.000658005)
(-0.000872589 0 0.000578304)
(-0.000890168 0 0.00069121)
(-0.00102925 0 0.000574394)
(-0.00107829 0 0.000532646)
(-0.00119134 0 0.000369264)
(-0.00121849 0 0.000383422)
(-0.00123356 0 0.00031058)
(-0.00123911 0 0.000226072)
(-0.00127163 0 8.31117e-05)
(-0.00127814 0 2.00941e-05)
(-0.00120972 0 -0.000248274)
(-0.00117349 0 -0.000250251)
(-0.00114761 0 -0.000351472)
(-0.00108409 0 -0.000511538)
(-0.00105773 0 -0.000490736)
(-0.00100566 0 -0.000584099)
(-0.000861322 0 -0.000765393)
(-0.000834369 0 -0.000799639)
(-0.000530913 0 -0.00100117)
(-0.000594966 0 -0.000779216)
(-0.000212659 0 -0.000798574)
(-0.000133778 0 -0.000629195)
(-2.71958e-05 0 -0.000550588)
(0.000205037 0 -0.000513423)
(0.000221181 0 -0.00061801)
(0.00065476 0 -0.00044979)
(0.000492026 0 -0.000661697)
(0.000562872 0 -0.0005678)
(0.000605857 0 -0.000394528)
(0.000553362 0 -0.000212442)
(0.000548521 0 -0.000178325)
(0.000570771 0 -0.000214161)
(0.000621515 0 -0.000242947)
(0.000654462 0 -0.000211666)
(0.000659432 0 -0.000230584)
(0.000699245 0 -0.00020481)
(0.000767409 0 -0.000167502)
(0.000833891 0 -0.000225325)
(0.000902716 0 -8.65075e-05)
(0.000921979 0 -2.93908e-05)
(0.000950256 0 -4.04864e-05)
(0.00100858 0 1.64469e-05)
(0.00100973 0 5.44036e-05)
(0.00102111 0 4.15775e-05)
(0.00105097 0 4.16226e-05)
(0.00103024 0 7.52201e-05)
(0.00101228 0 8.96868e-05)
(0.00102203 0 8.8196e-05)
(0.00104501 0 9.16323e-05)
(0.00107073 0 4.63031e-05)
(0.00110245 0 2.24049e-05)
(0.00114997 0 2.25528e-05)
(0.00115659 0 2.19093e-05)
(0.00114314 0 3.93142e-05)
(0.00113772 0 7.21273e-05)
(0.0011348 0 8.77373e-05)
(0.00112272 0 0.000112076)
(0.001101 0 0.000111471)
(0.00106543 0 0.000134805)
(0.00102873 0 0.000165237)
(0.000996839 0 0.000181315)
(0.000940976 0 0.000162449)
(0.000879365 0 0.000269049)
(0.000894885 0 0.000203464)
(0.000885458 0 0.000185081)
(0.000802505 0 0.000374201)
(0.000792276 0 0.000425934)
(0.00079593 0 0.000500819)
(0.000749815 0 0.000625492)
(0.000762525 0 0.00060406)
(0.000739973 0 0.000510698)
(0.000489962 0 0.00048923)
(0.000280651 0 0.000293456)
(-0.00037469 0 4.56455e-05)
(-0.000484694 0 0.00021788)
(-0.000568194 0 0.000187054)
(4.46711e-07 0 -0.000319145)
(-3.26913e-12 0 6.57977e-12)
(-4.27729e-12 0 3.17154e-12)
(-2.49862e-12 0 1.39083e-12)
(-2.24522e-12 0 5.7829e-13)
(-2.12996e-12 0 1.30757e-13)
(-2.01536e-12 0 -1.56918e-13)
(-1.87909e-12 0 -3.61859e-13)
(-1.72006e-12 0 -5.15848e-13)
(-1.54114e-12 0 -6.33096e-13)
(-1.34613e-12 0 -7.20512e-13)
(-1.13928e-12 0 -7.81847e-13)
(-9.25087e-13 0 -8.19529e-13)
(-7.08154e-13 0 -8.35514e-13)
(-4.92995e-13 0 -8.31693e-13)
(-2.83868e-13 0 -8.10073e-13)
(-8.46224e-14 0 -7.72833e-13)
(1.01407e-13 0 -7.22299e-13)
(2.71475e-13 0 -6.60891e-13)
(4.2346e-13 0 -5.91041e-13)
(5.55865e-13 0 -5.15116e-13)
(6.67792e-13 0 -4.35346e-13)
(7.58889e-13 0 -3.53766e-13)
(8.29286e-13 0 -2.72175e-13)
(8.79512e-13 0 -1.92109e-13)
(9.10423e-13 0 -1.1484e-13)
(9.23118e-13 0 -4.13759e-14)
(9.18868e-13 0 2.75187e-14)
(8.99058e-13 0 9.12991e-14)
(8.65129e-13 0 1.49611e-13)
(8.1854e-13 0 2.02257e-13)
(7.60735e-13 0 2.49168e-13)
(6.93119e-13 0 2.90368e-13)
(6.17046e-13 0 3.25951e-13)
(5.33807e-13 0 3.56048e-13)
(4.44635e-13 0 3.80815e-13)
(3.50701e-13 0 4.00405e-13)
(2.53123e-13 0 4.1496e-13)
(1.52978e-13 0 4.24595e-13)
(5.11976e-14 0 4.2939e-13)
(-0.000288849 0 0.000594667)
(-7.42769e-05 0 0.000969382)
(-0.000366512 0 0.000964335)
(-0.000499644 0 0.000904057)
(-0.000690287 0 0.000832417)
(-0.000845317 0 0.000753123)
(-0.000876477 0 0.000738964)
(-0.00102388 0 0.000529602)
(-0.00109188 0 0.000409452)
(-0.00109499 0 0.000402243)
(-0.00109152 0 0.000259932)
(-0.00107334 0 0.000124228)
(-0.00106016 0 9.63247e-05)
(-0.00106333 0 4.99706e-05)
(-0.00105972 0 -0.000145194)
(-0.00104373 0 -0.000303451)
(-0.0010228 0 -0.000416502)
(-0.000919744 0 -0.000631059)
(-0.000788308 0 -0.000806121)
(-0.00105415 0 -0.000529533)
(-0.00073284 0 -0.000961658)
(-0.000777119 0 -0.000944345)
(-0.000622217 0 -0.00104757)
(-0.0003736 0 -0.00108448)
(-0.000156462 0 -0.00100026)
(-9.01378e-05 0 -0.000798138)
(0.000122349 0 -0.000642104)
(0.000144991 0 -0.00066216)
(0.000432835 0 -0.00065242)
(0.00038075 0 -0.000778637)
(0.000489102 0 -0.000695443)
(0.000674463 0 -0.000356557)
(0.000570751 0 -0.000174756)
(0.000399761 0 -0.000175374)
(0.000398523 0 -0.000201056)
(0.000442983 0 -0.000256608)
(0.000514823 0 -0.000272265)
(0.000549626 0 -0.000255099)
(0.000582674 0 -0.000236371)
(0.000634484 0 -0.000216336)
(0.000680028 0 -0.000295434)
(0.000775092 0 -0.00014753)
(0.000788821 0 -7.37555e-05)
(0.000796685 0 -5.24864e-05)
(0.000836416 0 -0.000110781)
(0.000891761 0 0.000110307)
(0.000926458 0 2.91209e-05)
(0.000963212 0 -8.04444e-05)
(0.000980993 0 0.000293086)
(0.00102956 0 1.56229e-05)
(0.00102861 0 3.97205e-06)
(0.00104689 0 4.11924e-06)
(0.0010869 0 4.49674e-05)
(0.00113408 0 -3.26943e-06)
(0.00117475 0 -7.21018e-07)
(0.00118698 0 1.30023e-05)
(0.00118692 0 2.15417e-06)
(0.00118028 0 5.34804e-06)
(0.00116359 0 3.04597e-05)
(0.00113585 0 9.69203e-05)
(0.00111341 0 8.59318e-05)
(0.00107664 0 0.000188379)
(0.00105135 0 0.000146873)
(0.00101183 0 0.000186435)
(0.000982215 0 0.00019454)
(0.000912362 0 0.000261254)
(0.000852934 0 0.000175553)
(0.000829516 0 0.000242455)
(0.000801874 0 0.000287715)
(0.000760359 0 0.000381363)
(0.000749701 0 0.00044289)
(0.000747741 0 0.000516915)
(0.000722926 0 0.000639902)
(0.000623228 0 0.00074802)
(0.000595976 0 0.00072479)
(0.000474984 0 0.000648864)
(0.000349844 0 0.000458161)
(9.27641e-05 0 0.000418771)
(-0.000367186 0 0.000410812)
(-0.000591213 0 0.000415779)
(4.23972e-06 0 -0.000750375)
(-3.85692e-12 0 -1.35993e-13)
(-5.41647e-12 0 1.46369e-12)
(-3.3532e-12 0 8.40865e-13)
(-2.80605e-12 0 3.29956e-13)
(-2.49714e-12 0 -4.25192e-14)
(-2.27244e-12 0 -3.19999e-13)
(-2.06987e-12 0 -5.34391e-13)
(-1.86557e-12 0 -7.03156e-13)
(-1.65148e-12 0 -8.35116e-13)
(-1.42641e-12 0 -9.3473e-13)
(-1.19245e-12 0 -1.0045e-12)
(-9.53284e-13 0 -1.04622e-12)
(-7.13345e-13 0 -1.06164e-12)
(-4.77261e-13 0 -1.05273e-12)
(-2.49504e-13 0 -1.02183e-12)
(-3.41415e-14 0 -9.71609e-13)
(1.65335e-13 0 -9.05001e-13)
(3.4611e-13 0 -8.25093e-13)
(5.06089e-13 0 -7.35e-13)
(6.43892e-13 0 -6.37748e-13)
(7.58815e-13 0 -5.36174e-13)
(8.50756e-13 0 -4.32844e-13)
(9.20131e-13 0 -3.30005e-13)
(9.67773e-13 0 -2.29554e-13)
(9.94839e-13 0 -1.33036e-13)
(1.00272e-12 0 -4.16513e-14)
(9.92939e-13 0 4.37102e-14)
(9.67123e-13 0 1.22439e-13)
(9.26903e-13 0 1.94163e-13)
(8.73898e-13 0 2.58706e-13)
(8.09671e-13 0 3.16041e-13)
(7.35719e-13 0 3.66255e-13)
(6.5345e-13 0 4.09512e-13)
(5.64192e-13 0 4.4602e-13)
(4.69183e-13 0 4.76003e-13)
(3.69586e-13 0 4.9968e-13)
(2.66496e-13 0 5.17249e-13)
(1.60953e-13 0 5.28868e-13)
(5.38476e-14 0 5.34648e-13)
(-0.000417858 0 0.000830867)
(-0.000475271 0 0.00103614)
(-0.000547359 0 0.00103963)
(-0.000584184 0 0.000955608)
(-0.000889858 0 0.000761325)
(-0.000715137 0 0.000890566)
(-0.00101467 0 0.000498875)
(-0.000859767 0 0.000647136)
(-0.000903645 0 0.00055528)
(-0.000996255 0 0.000319398)
(-0.000943341 0 0.000347035)
(-0.000955108 0 0.000175274)
(-0.00093813 0 8.83508e-06)
(-0.000911431 0 -7.99852e-05)
(-0.000895332 0 -0.000181991)
(-0.000925868 0 -0.00035523)
(-0.000936277 0 -0.000429778)
(-0.000928732 0 -0.000504711)
(-0.000543405 0 -0.000963793)
(-0.00101134 0 -0.000600457)
(-0.000679915 0 -0.00102326)
(-0.000637863 0 -0.00109696)
(-0.000610161 0 -0.00114005)
(-0.000532856 0 -0.00117249)
(-8.27762e-05 0 -0.00120401)
(-3.54758e-05 0 -0.000984469)
(7.28694e-05 0 -0.000754763)
(0.000194721 0 -0.000770579)
(0.000258576 0 -0.00085054)
(0.000461355 0 -0.00078785)
(0.000471473 0 -0.000716301)
(0.000451658 0 -0.000478374)
(0.000362201 0 -0.000165313)
(0.000311926 0 -0.000139687)
(0.000338962 0 -0.000193137)
(0.000362063 0 -0.000321932)
(0.000483511 0 -0.000289361)
(0.000532709 0 -0.000269452)
(0.000572436 0 -0.000274178)
(0.000611086 0 -0.000331699)
(0.000675979 0 -0.000345212)
(0.000731979 0 -0.000189831)
(0.000753273 0 -0.00014432)
(0.000789197 0 -0.000125289)
(0.000832419 0 -0.000102401)
(0.000878205 0 1.53441e-05)
(0.000951333 0 -8.17423e-05)
(0.000993134 0 -9.72601e-06)
(0.000993023 0 1.64999e-05)
(0.00101016 0 2.18899e-05)
(0.0010422 0 -3.67666e-05)
(0.00108619 0 -7.71645e-06)
(0.00112482 0 -1.91599e-05)
(0.00115503 0 -5.87837e-06)
(0.0011638 0 9.60862e-06)
(0.00114865 0 1.3281e-05)
(0.00113723 0 5.49953e-05)
(0.0011465 0 6.96179e-05)
(0.00113624 0 8.57413e-05)
(0.00110346 0 0.000121091)
(0.00106301 0 0.000132678)
(0.00102452 0 0.000186584)
(0.000998623 0 0.000162456)
(0.000952658 0 0.000221806)
(0.000900298 0 0.000291491)
(0.000863018 0 0.000289569)
(0.000794758 0 0.000292483)
(0.000731066 0 0.000294436)
(0.000717108 0 0.000313068)
(0.000703909 0 0.000374264)
(0.000705633 0 0.000440137)
(0.000709194 0 0.000513751)
(0.000718659 0 0.000612792)
(0.000584653 0 0.000785338)
(0.000594072 0 0.000770412)
(0.000504878 0 0.000754326)
(0.00039872 0 0.000652098)
(0.0001842 0 0.000545939)
(9.21387e-05 0 0.000445315)
(-0.000592538 0 0.000373476)
(5.94003e-06 0 -0.000766624)
(-3.97866e-12 0 -1.45279e-12)
(-5.42098e-12 0 2.80265e-13)
(-3.63213e-12 0 1.78796e-13)
(-3.12848e-12 0 -5.69277e-14)
(-2.77991e-12 0 -3.11007e-13)
(-2.50723e-12 0 -5.4638e-13)
(-2.26224e-12 0 -7.52755e-13)
(-2.02078e-12 0 -9.27465e-13)
(-1.77271e-12 0 -1.06966e-12)
(-1.51551e-12 0 -1.17896e-12)
(-1.25077e-12 0 -1.25534e-12)
(-9.82226e-13 0 -1.29934e-12)
(-7.14664e-13 0 -1.31219e-12)
(-4.5319e-13 0 -1.29586e-12)
(-2.02748e-13 0 -1.253e-12)
(3.22066e-14 0 -1.18685e-12)
(2.47924e-13 0 -1.10107e-12)
(4.41477e-13 0 -9.9954e-13)
(6.10805e-13 0 -8.86168e-13)
(7.54691e-13 0 -7.64744e-13)
(8.72696e-13 0 -6.3879e-13)
(9.65058e-13 0 -5.11457e-13)
(1.03258e-12 0 -3.85467e-13)
(1.07648e-12 0 -2.63083e-13)
(1.09833e-12 0 -1.46109e-13)
(1.09986e-12 0 -3.59142e-14)
(1.08296e-12 0 6.6525e-14)
(1.04951e-12 0 1.60576e-13)
(1.0014e-12 0 2.45891e-13)
(9.40417e-13 0 3.22355e-13)
(8.68284e-13 0 3.90027e-13)
(7.86591e-13 0 4.49092e-13)
(6.96811e-13 0 4.99817e-13)
(6.00298e-13 0 5.4251e-13)
(4.98296e-13 0 5.7749e-13)
(3.91948e-13 0 6.05059e-13)
(2.82311e-13 0 6.25484e-13)
(1.70377e-13 0 6.38976e-13)
(5.69774e-14 0 6.45683e-13)
(-7.27235e-05 0 0.00104848)
(-0.0001425 0 0.00124559)
(-0.000173265 0 0.00128029)
(-0.000683542 0 0.00105942)
(-0.000435477 0 0.001111)
(-0.000589998 0 0.0009761)
(-0.000451127 0 0.00100789)
(-0.000518861 0 0.000867093)
(-0.000768491 0 0.000538671)
(-0.00077362 0 0.00045263)
(-0.000803788 0 0.000315109)
(-0.00082328 0 0.000153609)
(-0.000804532 0 0.000110112)
(-0.000795879 0 3.07401e-05)
(-0.000727033 0 -0.000407439)
(-0.000883269 0 7.36422e-05)
(-0.000618558 0 -0.000723266)
(-0.000995257 0 -0.000155353)
(-0.000354428 0 -0.00098964)
(-0.000777062 0 -0.000805264)
(-0.000617132 0 -0.00104601)
(-0.000572723 0 -0.00115821)
(-0.000480945 0 -0.0012817)
(-0.00036226 0 -0.0013453)
(-0.000182145 0 -0.00135254)
(-6.9923e-05 0 -0.00117246)
(0.000127336 0 -0.000850266)
(0.000205035 0 -0.000875777)
(0.000410681 0 -0.000877496)
(0.000416608 0 -0.000863078)
(0.000431436 0 -0.000746447)
(0.00043766 0 -0.000302431)
(0.000280197 0 -9.16623e-05)
(0.000273832 0 -0.000133505)
(0.000345818 0 -0.000236458)
(0.000265566 0 -0.000506505)
(0.000475204 0 -0.000430818)
(0.000535771 0 -0.00039152)
(0.000592195 0 -0.000360795)
(0.000618879 0 -0.000403298)
(0.000685082 0 -0.000350687)
(0.00071496 0 -0.000267718)
(0.000746362 0 -0.000184622)
(0.000790836 0 -0.000140524)
(0.000839277 0 -0.000174967)
(0.000893396 0 -0.00011669)
(0.000942123 0 8.1085e-05)
(0.000965582 0 -6.82824e-05)
(0.000989192 0 -6.68013e-05)
(0.00102881 0 -4.61877e-05)
(0.0010758 0 -5.23018e-05)
(0.00108717 0 -1.17229e-05)
(0.00107409 0 -5.24505e-05)
(0.00106365 0 -4.53833e-05)
(0.0010659 0 1.30725e-06)
(0.00105754 0 2.64924e-05)
(0.00101926 0 -0.00010213)
(0.0010119 0 8.7883e-05)
(0.00100691 0 0.000120054)
(0.000989332 0 0.00014677)
(0.000958557 0 0.00016555)
(0.000921849 0 0.000231073)
(0.000891298 0 0.000260418)
(0.000866765 0 0.000236372)
(0.000827845 0 0.000278651)
(0.000785148 0 0.000325246)
(0.000739186 0 0.000302364)
(0.000650246 0 0.000312912)
(0.000629552 0 0.000345957)
(0.000621094 0 0.000385029)
(0.000590397 0 0.000480342)
(0.000501981 0 0.00064465)
(0.000518271 0 0.000748198)
(0.000535195 0 0.000818148)
(0.000509118 0 0.000859765)
(0.000492431 0 0.000858503)
(0.000472843 0 0.000811925)
(0.000185345 0 0.000769048)
(0.000326094 0 0.000555498)
(-1.65149e-05 0 0.000212601)
(5.11589e-06 0 -0.000612736)
(-3.3913e-12 0 -2.07434e-12)
(-5.38926e-12 0 -4.89488e-13)
(-3.6902e-12 0 -3.49265e-13)
(-3.29573e-12 0 -4.25595e-13)
(-2.98658e-12 0 -5.98444e-13)
(-2.71418e-12 0 -8.01999e-13)
(-2.45095e-12 0 -1.00301e-12)
(-2.18248e-12 0 -1.1845e-12)
(-1.90297e-12 0 -1.33731e-12)
(-1.61209e-12 0 -1.45628e-12)
(-1.31283e-12 0 -1.53872e-12)
(-1.01014e-12 0 -1.58377e-12)
(-7.09862e-13 0 -1.59207e-12)
(-4.18065e-13 0 -1.56563e-12)
(-1.40498e-13 0 -1.50756e-12)
(1.17784e-13 0 -1.42183e-12)
(3.52648e-13 0 -1.31299e-12)
(5.61016e-13 0 -1.1859e-12)
(7.40885e-13 0 -1.04545e-12)
(8.9127e-13 0 -8.96325e-13)
(1.0121e-12 0 -7.42826e-13)
(1.10408e-12 0 -5.88759e-13)
(1.1685e-12 0 -4.37349e-13)
(1.20713e-12 0 -2.91222e-13)
(1.22201e-12 0 -1.52419e-13)
(1.21535e-12 0 -2.24346e-14)
(1.18943e-12 0 9.77177e-14)
(1.14649e-12 0 2.07437e-13)
(1.08868e-12 0 3.06461e-13)
(1.01803e-12 0 3.94787e-13)
(9.36409e-13 0 4.72612e-13)
(8.45509e-13 0 5.40262e-13)
(7.46868e-13 0 5.98146e-13)
(6.41865e-13 0 6.46706e-13)
(5.31732e-13 0 6.86381e-13)
(4.17581e-13 0 7.17577e-13)
(3.00413e-13 0 7.40645e-13)
(1.81152e-13 0 7.55863e-13)
(6.05546e-14 0 7.63422e-13)
(-0.000277088 0 0.00117231)
(-0.000308972 0 0.00130273)
(-0.000435285 0 0.00133692)
(-0.000331806 0 0.0012769)
(-0.000497718 0 0.00109476)
(-0.000553859 0 0.000959912)
(-0.000956462 0 0.000460508)
(-0.000868559 0 0.000466224)
(-0.000700446 0 0.000497593)
(-0.000626093 0 0.000469681)
(-0.00070664 0 0.000229194)
(-0.00068289 0 0.000192412)
(-0.000687494 0 1.60943e-05)
(-0.000678364 0 1.63762e-05)
(-0.000666027 0 -0.000172536)
(-0.000649195 0 -0.00028943)
(-0.000588825 0 -0.000451849)
(-0.000652404 0 -0.000465838)
(-0.000642858 0 -0.000634545)
(-0.000511699 0 -0.000891446)
(-0.000493245 0 -0.0010784)
(-0.000409702 0 -0.0012414)
(-0.0004094 0 -0.00135712)
(-0.000264663 0 -0.00145094)
(-0.000193879 0 -0.00148194)
(-5.67271e-05 0 -0.00134826)
(5.19299e-05 0 -0.000975594)
(0.000134858 0 -0.00100179)
(0.000309217 0 -0.000992922)
(0.000391134 0 -0.000892805)
(0.000312767 0 -0.000714583)
(0.000290409 0 -0.000230334)
(0.000234976 0 -8.56953e-05)
(0.00026927 0 -0.000180091)
(0.000383725 0 -0.000300255)
(0.000391824 0 -0.000498346)
(0.000474756 0 -0.000516788)
(0.0005328 0 -0.000461441)
(0.000588659 0 -0.000401974)
(0.000632268 0 -0.000390022)
(0.000640012 0 -0.000377982)
(0.000675036 0 -0.000295292)
(0.000692643 0 -0.00025402)
(0.00072625 0 -0.000209185)
(0.000783573 0 -0.000122647)
(0.000810016 0 -0.000113116)
(0.000834513 0 -0.000119944)
(0.000859187 0 -0.000190592)
(0.000912571 0 -0.000109115)
(0.000938991 0 -3.46424e-05)
(0.000940505 0 -2.0763e-05)
(0.000939613 0 -2.3017e-05)
(0.000929889 0 -2.64418e-05)
(0.000915272 0 1.84755e-05)
(0.000922102 0 2.9447e-05)
(0.000928027 0 5.45658e-05)
(0.000907092 0 6.13469e-05)
(0.000859383 0 9.27415e-05)
(0.000832053 0 0.00013277)
(0.000821485 0 0.000175328)
(0.000809936 0 0.000210493)
(0.000802752 0 0.000234023)
(0.000792902 0 0.000241588)
(0.000764412 0 0.000270239)
(0.000703091 0 0.000366844)
(0.000651339 0 0.000418985)
(0.000637986 0 0.00035366)
(0.000581362 0 0.000346622)
(0.000499497 0 0.000409092)
(0.00046954 0 0.000445464)
(0.000461637 0 0.000483071)
(0.000528864 0 0.000508069)
(0.000474357 0 0.000700769)