0 	-2.89493e-11 	-8.14134e-27 	7.22637e-11
0.010101 	-5.32348e-11 	-1.90147e-28 	-2.81949e-12
0.020202 	-2.57975e-12 	-4.84634e-30 	-1.55668e-13
