0 	457.769
0.010101 	465.153
0.020202 	465.465
