/*--------------------------------*- C++ -*----------------------------------*\
  =========                 |
  \\      /  F ield         | OpenFOAM: The Open Source CFD Toolbox
   \\    /   O peration     | Website:  https://openfoam.org
    \\  /    A nd           | Version:  6
     \\/     M anipulation  |
\*---------------------------------------------------------------------------*/
FoamFile
{
    version     2.0;
    format      ascii;
    class       volScalarField;
    location    "1800";
    object      dmdt;
}
// * * * * * * * * * * * * * * * * * * * * * * * * * * * * * * * * * * * * * //

dimensions      [0 0 0 0 0 0 0];

internalField   nonuniform List<scalar> 
4800
(
-0.219384
-0.216976
-0.214581
-0.212202
-0.209841
-0.207507
-0.205218
-0.203004
-0.2009
-0.19893
-0.197098
-0.1954
-0.193829
-0.192373
-0.191021
-0.189758
-0.188573
-0.187453
-0.186385
-0.185359
-0.184363
-0.183389
-0.182426
-0.181471
-0.180521
-0.179569
-0.178607
-0.177631
-0.176639
-0.175627
-0.174589
-0.173521
-0.17242
-0.17128
-0.170096
-0.168864
-0.167575
-0.166221
-0.164797
-0.163299
-0.161724
-0.160069
-0.158323
-0.156483
-0.154547
-0.152501
-0.150328
-0.148009
-0.145529
-0.142874
-0.140038
-0.137012
-0.133788
-0.130361
-0.126743
-0.12296
-0.11905
-0.11507
-0.111071
-0.107088
-0.10314
-0.0992414
-0.0953919
-0.0915774
-0.0877776
-0.0839764
-0.0801463
-0.0762589
-0.0723004
-0.0682556
-0.0641143
-0.059876
-0.0555454
-0.0511338
-0.0466571
-0.0421325
-0.0375802
-0.0330235
-0.0284832
-0.0239813
-0.0195581
-0.0152658
-0.0111025
-0.00706604
-0.00314858
0.000660584
0.0043732
0.00800105
0.0115552
0.0150453
0.0184801
0.0218665
0.0252109
0.0285182
0.0317928
0.0350383
0.0382578
0.041454
0.0446292
0.0477853
0.0509242
0.0540475
0.0571566
0.0602528
0.0633372
0.066411
0.0694753
0.0725308
0.0755785
0.0786193
0.0816538
0.0846828
0.087707
0.090727
0.0937434
0.0967568
0.0997679
0.102777
0.105785
0.108792
-0.219386
-0.216977
-0.214578
-0.212195
-0.209835
-0.20751
-0.205242
-0.203056
-0.200981
-0.199038
-0.197227
-0.195544
-0.193983
-0.192534
-0.191186
-0.189925
-0.188741
-0.187621
-0.186553
-0.185526
-0.184528
-0.183549
-0.182582
-0.181625
-0.180671
-0.179714
-0.178746
-0.177766
-0.17677
-0.175753
-0.174711
-0.173641
-0.172538
-0.171395
-0.170209
-0.168974
-0.167681
-0.166323
-0.164896
-0.163393
-0.161814
-0.160151
-0.158401
-0.156556
-0.154608
-0.15255
-0.150364
-0.148037
-0.145553
-0.142896
-0.140055
-0.137024
-0.133797
-0.130369
-0.126749
-0.122972
-0.119084
-0.115129
-0.111146
-0.107169
-0.103225
-0.099326
-0.0954683
-0.0916445
-0.0878376
-0.0840281
-0.0801926
-0.0763059
-0.0723487
-0.0683026
-0.0641547
-0.059903
-0.0555554
-0.0511268
-0.0466345
-0.0420961
-0.0375301
-0.0329539
-0.0283876
-0.0238618
-0.0194222
-0.0151252
-0.0109653
-0.00693746
-0.0030316
0.000764818
0.00446482
0.00808096
0.0116246
0.0151057
0.0185326
0.0219125
0.0252513
0.0285539
0.0318245
0.0350666
0.0382831
0.0414767
0.0446496
0.0478038
0.0509409
0.0540626
0.0571702
0.0602651
0.0633483
0.0664211
0.0694843
0.0725389
0.0755858
0.0786257
0.0816594
0.0846877
0.0877112
0.0907306
0.0937464
0.0967593
0.0997698
0.102778
0.105786
0.108792
-0.219392
-0.216996
-0.214609
-0.212236
-0.20989
-0.207588
-0.205352
-0.203209
-0.201179
-0.199271
-0.197484
-0.195822
-0.194276
-0.192836
-0.191493
-0.190235
-0.189052
-0.187931
-0.186861
-0.185832
-0.184832
-0.18385
-0.182878
-0.181915
-0.180954
-0.179989
-0.17901
-0.178021
-0.177015
-0.175989
-0.174939
-0.173862
-0.172752
-0.171604
-0.170413
-0.16917
-0.167869
-0.166505
-0.165072
-0.163563
-0.161972
-0.160294
-0.158528
-0.156667
-0.154701
-0.152621
-0.150417
-0.148076
-0.145582
-0.142919
-0.140072
-0.137033
-0.133801
-0.130377
-0.126775
-0.123022
-0.119159
-0.115229
-0.111264
-0.107294
-0.103347
-0.0994337
-0.0955524
-0.0917007
-0.0878682
-0.0840336
-0.0801785
-0.0762827
-0.0723228
-0.0682785
-0.0641313
-0.0598752
-0.0555162
-0.0510671
-0.0465465
-0.0419754
-0.0373745
-0.0327618
-0.0281599
-0.0236028
-0.0191388
-0.014836
-0.0106856
-0.0066773
-0.00279649
0.000973175
0.00464719
0.00823953
0.0117622
0.0152252
0.0186367
0.0220035
0.0253313
0.0286246
0.0318873
0.0351226
0.0383333
0.0415218
0.0446903
0.0478405
0.0509741
0.0540926
0.0571974
0.0602896
0.0633705
0.066441
0.0695022
0.072555
0.0756001
0.0786384
0.0816707
0.0846976
0.0877197
0.0907378
0.0937524
0.0967641
0.0997735
0.102781
0.105787
0.108793
-0.2194
-0.217022
-0.214656
-0.212312
-0.210004
-0.207747
-0.205561
-0.203467
-0.201481
-0.19961
-0.197853
-0.196214
-0.194685
-0.193256
-0.191918
-0.190664
-0.189484
-0.188364
-0.187293
-0.186261
-0.185255
-0.184265
-0.183287
-0.182316
-0.181345
-0.18037
-0.179377
-0.178375
-0.177354
-0.176313
-0.17525
-0.17416
-0.173038
-0.171879
-0.170673
-0.169415
-0.168098
-0.166719
-0.165269
-0.163745
-0.16214
-0.160445
-0.158658
-0.156774
-0.154783
-0.152675
-0.150445
-0.148084
-0.145574
-0.142901
-0.140051
-0.137009
-0.133778
-0.130366
-0.126791
-0.12308
-0.119259
-0.115347
-0.111376
-0.107394
-0.103434
-0.0995011
-0.0955911
-0.0917018
-0.0878321
-0.0839651
-0.0800813
-0.076164
-0.0721909
-0.0681405
-0.0639925
-0.059736
-0.0553706
-0.0509034
-0.046352
-0.0417382
-0.0370842
-0.0324204
-0.0277784
-0.0231859
-0.018689
-0.0143832
-0.0102532
-0.00628024
-0.00244163
0.00128478
0.00491805
0.00847392
0.0119649
0.0154009
0.0187897
0.0221374
0.0254491
0.0287289
0.03198
0.0352055
0.0384076
0.0415887
0.0447506
0.047895
0.0510234
0.0541372
0.0572377
0.0603261
0.0634035
0.0664708
0.069529
0.0725789
0.0756215
0.0786574
0.0816874
0.0847122
0.0877324
0.0907486
0.0937614
0.0967714
0.0997791
0.102785
0.10579
0.108794
-0.219423
-0.21709
-0.214771
-0.212473
-0.210208
-0.207997
-0.205865
-0.203825
-0.201887
-0.200052
-0.198323
-0.196703
-0.195189
-0.193772
-0.192445
-0.191199
-0.190024
-0.188905
-0.187834
-0.186798
-0.185784
-0.184785
-0.183796
-0.182814
-0.181833
-0.180842
-0.17983
-0.17881
-0.177769
-0.176708
-0.175622
-0.17451
-0.173366
-0.172184
-0.170956
-0.169675
-0.168335
-0.166931
-0.165457
-0.16391
-0.162281
-0.160564
-0.158752
-0.156838
-0.154816
-0.152678
-0.150417
-0.148028
-0.145497
-0.14281
-0.139954
-0.136919
-0.1337
-0.130309
-0.126764
-0.123079
-0.119264
-0.115343
-0.111373
-0.107399
-0.103436
-0.0994887
-0.0955556
-0.0916352
-0.0877257
-0.0838195
-0.079902
-0.0759556
-0.0719578
-0.067889
-0.0637306
-0.0594673
-0.0550919
-0.0506062
-0.046021
-0.0413564
-0.0366402
-0.0319125
-0.0272136
-0.0225773
-0.0180429
-0.0137434
-0.00965351
-0.00573955
-0.00196613
0.00169701
0.00527303
0.00877919
0.012228
0.0156287
0.018988
0.0223112
0.0256023
0.0288646
0.032101
0.0353138
0.038505
0.0416764
0.0448298
0.0479667
0.0510883
0.054196
0.057291
0.0603743
0.063447
0.06651
0.0695643
0.0726106
0.0756497
0.0786825
0.0817095
0.0847315
0.087749
0.0907628
0.0937732
0.0967809
0.0997864
0.10279
0.105793
0.108795
-0.219454
-0.21718
-0.214913
-0.212668
-0.210465
-0.20832
-0.206246
-0.204256
-0.202362
-0.200567
-0.198872
-0.197279
-0.195785
-0.194382
-0.193066
-0.191828
-0.190659
-0.189543
-0.188471
-0.18743
-0.186409
-0.1854
-0.1844
-0.183404
-0.182404
-0.18139
-0.180355
-0.179308
-0.178238
-0.177146
-0.17603
-0.174888
-0.173713
-0.172499
-0.171237
-0.169922
-0.168548
-0.167109
-0.165601
-0.16402
-0.162359
-0.160611
-0.158767
-0.15682
-0.154763
-0.152591
-0.150297
-0.147879
-0.145328
-0.142628
-0.139768
-0.136738
-0.133536
-0.130168
-0.126638
-0.122956
-0.119145
-0.115244
-0.111298
-0.107331
-0.103359
-0.0993931
-0.0954368
-0.0914901
-0.0875496
-0.0836097
-0.0796584
-0.0756787
-0.0716482
-0.0675494
-0.0633654
-0.0590809
-0.054686
-0.0501757
-0.0455531
-0.0408322
-0.0360341
-0.0312036
-0.0264133
-0.0217269
-0.0171567
-0.0128833
-0.00886791
-0.00504922
-0.00137206
0.00220362
0.00570443
0.00914768
0.0125446
0.0159025
0.0192267
0.0225207
0.0257874
0.0290293
0.0322481
0.0354458
0.0386239
0.0417839
0.044927
0.0480547
0.0511681
0.0542684
0.0573565
0.0604337
0.0635006
0.0665584
0.0696078
0.0726496
0.0756846
0.0787134
0.0817368
0.0847553
0.0877696
0.0907803
0.0937878
0.0967927
0.0997955
0.102797
0.105797
0.108796
-0.219489
-0.217289
-0.2151
-0.212933
-0.210801
-0.20872
-0.206708
-0.204776
-0.202931
-0.201175
-0.199512
-0.197941
-0.196462
-0.195074
-0.193771
-0.192543
-0.19138
-0.190266
-0.189193
-0.188148
-0.187119
-0.186099
-0.185084
-0.184066
-0.183041
-0.181996
-0.180932
-0.17985
-0.178745
-0.177616
-0.176462
-0.175278
-0.174056
-0.172791
-0.171476
-0.170109
-0.168685
-0.167199
-0.16565
-0.164028
-0.162326
-0.160541
-0.158661
-0.156679
-0.154586
-0.152381
-0.150055
-0.147608
-0.145037
-0.142327
-0.139462
-0.136435
-0.133242
-0.129881
-0.126362
-0.122703
-0.118933
-0.115077
-0.111156
-0.107189
-0.103206
-0.0992248
-0.0952516
-0.0912841
-0.0873187
-0.0833506
-0.0793667
-0.0753489
-0.0712793
-0.067143
-0.0629229
-0.058603
-0.0541754
-0.0496311
-0.0449685
-0.0401948
-0.0353233
-0.0303882
-0.0254556
-0.0206331
-0.0159684
-0.0117545
-0.00787591
-0.00420848
-0.00066851
0.0027922
0.00619978
0.00956826
0.0129052
0.0162148
0.0194995
0.022761
0.0260007
0.0292196
0.0324189
0.0355996
0.0387628
0.0419096
0.045041
0.0481582
0.051262
0.0543536
0.0574339
0.0605037
0.063564
0.0666156
0.0696592
0.0726957
0.0757258
0.07875
0.081769
0.0847835
0.087794
0.090801
0.093805
0.0968066
0.0998062
0.102804
0.105801
0.108797
-0.219531
-0.217413
-0.215306
-0.213221
-0.211171
-0.209166
-0.207219
-0.205342
-0.203544
-0.201827
-0.200198
-0.198655
-0.197203
-0.195836
-0.194547
-0.193329
-0.19217
-0.191059
-0.189985
-0.188932
-0.187891
-0.186855
-0.185819
-0.184777
-0.183723
-0.182647
-0.181549
-0.180426
-0.179277
-0.178101
-0.176895
-0.175651
-0.174363
-0.173026
-0.171637
-0.1702
-0.168711
-0.167167
-0.165563
-0.163893
-0.162146
-0.160318
-0.158399
-0.156381
-0.154255
-0.152019
-0.149667
-0.147192
-0.144601
-0.14188
-0.139011
-0.135989
-0.132812
-0.129482
-0.126003
-0.122384
-0.118643
-0.114804
-0.110891
-0.106932
-0.102955
-0.0989784
-0.0950035
-0.0910267
-0.0870452
-0.0830526
-0.0790366
-0.0749812
-0.0708701
-0.0666891
-0.0624252
-0.058062
-0.0535911
-0.0490065
-0.0442966
-0.0394524
-0.0344792
-0.0294052
-0.0242761
-0.019207
-0.0143236
-0.0102798
-0.00666339
-0.00323173
0.000122032
0.00344077
0.00674041
0.010026
0.0132982
0.0165563
0.0197994
0.0230267
0.0262377
0.0294323
0.0326105
0.0357729
0.0389199
0.0420522
0.0451707
0.048276
0.0513692
0.054451
0.0575223
0.0605838
0.0636365
0.066681
0.0697182
0.0727486
0.0757729
0.0787919
0.081806
0.0848158
0.0878219
0.0908247
0.0938248
0.0968225
0.0998184
0.102813
0.105806
0.108799
-0.219579
-0.217557
-0.215543
-0.213544
-0.211574
-0.209646
-0.20777
-0.205955
-0.204209
-0.202535
-0.20094
-0.199425
-0.197996
-0.196649
-0.195378
-0.19417
-0.193016
-0.191907
-0.190827
-0.189763
-0.188708
-0.187654
-0.186596
-0.185527
-0.184438
-0.183323
-0.18218
-0.181007
-0.179801
-0.178563
-0.177288
-0.175969
-0.174598
-0.173174
-0.171699
-0.170177
-0.168608
-0.16699
-0.16532
-0.163592
-0.161793
-0.15992
-0.157961
-0.155909
-0.153753
-0.15149
-0.149116
-0.146621
-0.144011
-0.141275
-0.138396
-0.135376
-0.132216
-0.128908
-0.125456
-0.12187
-0.118168
-0.114373
-0.1105
-0.106573
-0.102617
-0.0986565
-0.0946908
-0.090713
-0.086719
-0.0827034
-0.0786568
-0.0745657
-0.0704163
-0.066195
-0.0618908
-0.0574878
-0.0529758
-0.048345
-0.0435743
-0.0386426
-0.0335401
-0.0282649
-0.022831
-0.0173102
-0.011833
-0.00836795
-0.00525701
-0.00216884
0.000954956
0.00411503
0.00730106
0.0105023
0.0137099
0.0169171
0.020119
0.0233121
0.0264942
0.0296639
0.0328204
0.0359635
0.0390933
0.0422102
0.0453146
0.0484072
0.0514886
0.0545596
0.057621
0.0606734
0.0637176
0.0667542
0.0697841
0.0728077
0.0758257
0.0788388
0.0818473
0.0848519
0.0878531
0.0908512
0.0938469
0.0968404
0.0998321
0.102823
0.105812
0.108801
-0.219627
-0.217702
-0.215783
-0.213877
-0.211993
-0.210143
-0.208339
-0.206588
-0.204896
-0.203268
-0.201714
-0.200234
-0.198833
-0.197506
-0.196249
-0.195051
-0.193902
-0.19279
-0.191702
-0.190626
-0.189555
-0.188482
-0.187399
-0.186297
-0.185167
-0.184003
-0.182804
-0.18157
-0.1803
-0.17899
-0.177635
-0.176225
-0.174757
-0.173231
-0.171656
-0.170033
-0.168369
-0.166665
-0.164916
-0.163119
-0.161263
-0.159339
-0.157338
-0.15525
-0.153064
-0.150777
-0.148386
-0.145878
-0.143255
-0.140518
-0.137648
-0.134642
-0.131501
-0.128215
-0.124792
-0.121246
-0.117589
-0.113839
-0.11001
-0.106121
-0.102195
-0.0982545
-0.0943001
-0.0903245
-0.0863231
-0.0822893
-0.0782147
-0.0740895
-0.0699043
-0.0656506
-0.0613175
-0.056885
-0.0523411
-0.0476636
-0.042828
-0.0378092
-0.0325763
-0.0270847
-0.0212567
-0.0149444
-0.00557622
-0.00609248
-0.0038193
-0.00113377
0.00175857
0.00476959
0.00785216
0.0109775
0.0141267
0.0172874
0.020451
0.0236117
0.0267659
0.0299111
0.0330458
0.0361693
0.0392814
0.042382
0.0454716
0.0485505
0.0516193
0.0546787
0.0577292
0.0607716
0.0638066
0.0668346
0.0698565
0.0728726
0.0758837
0.0788902
0.0818927
0.0848916
0.0878873
0.0908804
0.0938711
0.0968599
0.0998472
0.102833
0.105818
0.108803
-0.219675
-0.217846
-0.216023
-0.21421
-0.212414
-0.210645
-0.208915
-0.207227
-0.205589
-0.204011
-0.202502
-0.20106
-0.199689
-0.198387
-0.197146
-0.195955
-0.194805
-0.193688
-0.192592
-0.191503
-0.190414
-0.189317
-0.188202
-0.187058
-0.185881
-0.184666
-0.18341
-0.182109
-0.180763
-0.179369
-0.177921
-0.176409
-0.174833
-0.1732
-0.171514
-0.169784
-0.168018
-0.166219
-0.164383
-0.162508
-0.160583
-0.158601
-0.156552
-0.154423
-0.152207
-0.149896
-0.147486
-0.144967
-0.142334
-0.139593
-0.136731
-0.133743
-0.130632
-0.127389
-0.124016
-0.120519
-0.116913
-0.113212
-0.109429
-0.105581
-0.101687
-0.0977675
-0.0938236
-0.0898494
-0.0858396
-0.0817873
-0.0776865
-0.0735308
-0.0693142
-0.0650307
-0.0606752
-0.0562263
-0.0516645
-0.0469596
-0.042085
-0.0370088
-0.0316902
-0.026075
-0.0200947
-0.0135962
-0.00362166
-0.00485065
-0.00278595
-0.000298173
0.00245008
0.00535857
0.00836588
0.0114334
0.0145364
0.0176586
0.0207892
0.023921
0.0270493
0.0301711
0.0332845
0.0363884
0.0394824
0.0425663
0.0456403
0.0487048
0.0517603
0.0548072
0.0578462
0.0608779
0.0639028
0.0669216
0.0699348
0.0729429
0.0759464
0.0789459
0.0819418
0.0849345
0.0879244
0.0909119
0.0938973
0.0968811
0.0998634
0.102845
0.105825
0.108805
-0.219723
-0.217988
-0.216257
-0.214536
-0.212829
-0.211142
-0.209483
-0.20786
-0.206281
-0.204757
-0.203292
-0.201886
-0.200543
-0.199263
-0.198034
-0.196855
-0.195708
-0.194587
-0.193481
-0.192378
-0.19127
-0.190148
-0.188995
-0.187807
-0.186577
-0.185302
-0.183977
-0.182602
-0.181174
-0.17969
-0.17814
-0.176521
-0.174835
-0.173088
-0.171291
-0.169455
-0.167586
-0.16569
-0.163763
-0.161803
-0.159803
-0.157753
-0.155647
-0.153471
-0.151215
-0.148874
-0.146442
-0.143913
-0.141283
-0.138555
-0.135715
-0.132751
-0.129666
-0.126456
-0.123125
-0.11968
-0.116129
-0.112481
-0.10875
-0.104949
-0.101088
-0.0971896
-0.0932549
-0.0892799
-0.08526
-0.0811896
-0.0770635
-0.0728784
-0.0686333
-0.0643229
-0.0599489
-0.0554924
-0.0509279
-0.0462243
-0.0413496
-0.0362648
-0.030928
-0.025291
-0.0193023
-0.0128696
-0.00316708
-0.00425132
-0.00216821
0.000283831
0.00298755
0.00585434
0.0088244
0.0118585
0.0149311
0.0180251
0.0211294
0.0242366
0.0273418
0.0304418
0.0335346
0.0366192
0.0396949
0.0427617
0.0458197
0.0488692
0.0519105
0.0549443
0.0579711
0.0609913
0.0640056
0.0670144
0.0700184
0.0730179
0.0760134
0.0790053
0.0819942
0.0849802
0.0879639
0.0909455
0.0939253
0.0969036
0.0998808
0.102857
0.105833
0.108808
-0.219768
-0.218123
-0.216481
-0.214847
-0.213223
-0.211616
-0.21003
-0.208473
-0.206954
-0.205482
-0.20406
-0.202689
-0.201375
-0.200117
-0.198902
-0.197733
-0.196587
-0.195462
-0.194346
-0.193229
-0.192099
-0.190945
-0.189755
-0.188522
-0.187239
-0.1859
-0.184504
-0.183049
-0.181533
-0.179951
-0.178296
-0.176564
-0.174764
-0.172906
-0.171001
-0.169059
-0.16709
-0.165098
-0.163082
-0.161038
-0.158958
-0.156836
-0.154667
-0.152438
-0.150137
-0.147761
-0.145299
-0.142747
-0.140104
-0.137378
-0.134559
-0.13163
-0.128583
-0.12542
-0.122143
-0.118755
-0.115259
-0.111667
-0.107987
-0.10423
-0.100403
-0.0965266
-0.0926017
-0.0886248
-0.0845912
-0.0804982
-0.0763436
-0.0721266
-0.0678509
-0.063517
-0.0591301
-0.0546774
-0.0501331
-0.0454611
-0.040626
-0.0355878
-0.0303087
-0.02475
-0.0188681
-0.012603
-0.00311868
-0.0041137
-0.00191231
0.000620699
0.00336784
0.00625215
0.00922362
0.0122495
0.015308
0.0183847
0.0214698
0.024557
0.0276419
0.0307217
0.0337949
0.0368604
0.0399178
0.0429672
0.0460086
0.0490424
0.0520691
0.0550891
0.0581029
0.0611111
0.0641141
0.0671125
0.0701066
0.073097
0.076084
0.079068
0.0820494
0.0850285
0.0880055
0.0909809
0.0939547
0.0969274
0.099899
0.10287
0.10584
0.10881
-0.219811
-0.218251
-0.216693
-0.215139
-0.213592
-0.212058
-0.210541
-0.209046
-0.207584
-0.206162
-0.204783
-0.203452
-0.202167
-0.20093
-0.199729
-0.198569
-0.197424
-0.196295
-0.195169
-0.194035
-0.19288
-0.191694
-0.190463
-0.189182
-0.187844
-0.186442
-0.184974
-0.183438
-0.181832
-0.18015
-0.178387
-0.176546
-0.174635
-0.172665
-0.17065
-0.168605
-0.166538
-0.164455
-0.162354
-0.160227
-0.15807
-0.155877
-0.153641
-0.151355
-0.149006
-0.146591
-0.144105
-0.141548
-0.138909
-0.136178
-0.133357
-0.130444
-0.127434
-0.124318
-0.121091
-0.117755
-0.114315
-0.110779
-0.107151
-0.103438
-0.0996425
-0.0957866
-0.0918688
-0.0878863
-0.083835
-0.0797151
-0.0755287
-0.07128
-0.066977
-0.0626275
-0.0582425
-0.0538095
-0.049302
-0.0446849
-0.0399268
-0.0349953
-0.0298616
-0.0244939
-0.0188438
-0.0128666
-0.0036245
-0.00446414
-0.00198118
0.000749827
0.00361669
0.00656787
0.00957293
0.0126117
0.0156702
0.0187389
0.021811
0.0248821
0.0279492
0.0310103
0.0340645
0.0371111
0.0401502
0.0431817
0.0462061
0.0492237
0.0522351
0.0552406
0.0582409
0.0612365
0.0642277
0.067215
0.0701989
0.0731797
0.0761578
0.0791335
0.0821071
0.0850788
0.088049
0.0910178
0.0939854
0.0969521
0.0999181
0.102883
0.105848
0.108813
-0.219851
-0.21837
-0.216889
-0.215409
-0.213933
-0.212466
-0.21101
-0.209575
-0.208167
-0.20679
-0.205453
-0.204155
-0.202898
-0.201683
-0.200501
-0.199347
-0.198205
-0.197073
-0.195935
-0.194784
-0.193607
-0.19239
-0.19112
-0.189791
-0.188395
-0.186927
-0.185384
-0.183765
-0.182067
-0.180286
-0.178417
-0.176467
-0.174445
-0.172367
-0.170249
-0.168104
-0.165941
-0.163767
-0.161582
-0.159379
-0.15715
-0.154888
-0.152587
-0.150243
-0.147844
-0.145388
-0.14287
-0.14029
-0.137642
-0.134918
-0.132114
-0.129223
-0.12624
-0.123162
-0.119984
-0.116703
-0.11332
-0.109838
-0.106258
-0.102586
-0.0988235
-0.0949848
-0.0910683
-0.0870741
-0.0830004
-0.0788507
-0.0746343
-0.0703605
-0.0660403
-0.0616859
-0.0573123
-0.0529074
-0.0484459
-0.0438951
-0.0392278
-0.034416
-0.0294402
-0.0242935
-0.0190167
-0.0137264
-0.00883713
-0.00540111
-0.00229199
0.000749343
0.00378685
0.00683461
0.00989279
0.0129578
0.0160256
0.0190926
0.0221559
0.0252136
0.0282645
0.0313077
0.0343432
0.0373709
0.0403912
0.0434044
0.0464112
0.049412
0.0524074
0.055398
0.0583842
0.0613665
0.0643454
0.0673213
0.0702945
0.0732653
0.0762341
0.0792012
0.0821666
0.0851308
0.0880938
0.0910558
0.0940171
0.0969777
0.0999377
0.102897
0.105857
0.108816
-0.219888
-0.21848
-0.217069
-0.215656
-0.214243
-0.212834
-0.211434
-0.210052
-0.208692
-0.207358
-0.206059
-0.204795
-0.203566
-0.202372
-0.201204
-0.200057
-0.198918
-0.197782
-0.196636
-0.195469
-0.194268
-0.193019
-0.191712
-0.190336
-0.188884
-0.187351
-0.185735
-0.184034
-0.182246
-0.180367
-0.178397
-0.176343
-0.174218
-0.172041
-0.169825
-0.167582
-0.165322
-0.163052
-0.160776
-0.158493
-0.156195
-0.153872
-0.151515
-0.149118
-0.146674
-0.144181
-0.141636
-0.139036
-0.136378
-0.133655
-0.130861
-0.127992
-0.125039
-0.121996
-0.118861
-0.115628
-0.112295
-0.10886
-0.105324
-0.101686
-0.0979511
-0.0941235
-0.0902046
-0.0861953
-0.0820989
-0.0779229
-0.0736805
-0.0693871
-0.0650598
-0.0607094
-0.0563496
-0.0519725
-0.0475583
-0.0430779
-0.0385065
-0.0338225
-0.0290214
-0.024118
-0.0191767
-0.0143321
-0.00987474
-0.00601524
-0.00253216
0.000758195
0.00395229
0.00709572
0.0102098
0.0133046
0.0163848
0.0194525
0.0225087
0.0255541
0.0285892
0.0316146
0.0346311
0.0376394
0.0406404
0.0436347
0.0466231
0.0496064
0.0525852
0.0555602
0.0585317
0.0615003
0.0644664
0.0674304
0.0703925
0.0733531
0.0763124
0.0792705
0.0822276
0.085184
0.0881397
0.0910948
0.0940495
0.0970037
0.0999578
0.102912
0.105865
0.108819
-0.219919
-0.218574
-0.217224
-0.215869
-0.214512
-0.213155
-0.211807
-0.210472
-0.209155
-0.207861
-0.206597
-0.205363
-0.204159
-0.202984
-0.201829
-0.200691
-0.199557
-0.19842
-0.197267
-0.196085
-0.194863
-0.193585
-0.19224
-0.190818
-0.189311
-0.187715
-0.186027
-0.184245
-0.182371
-0.180403
-0.178344
-0.176202
-0.173988
-0.171717
-0.169405
-0.167067
-0.164714
-0.162354
-0.159988
-0.157619
-0.155242
-0.152851
-0.150436
-0.147991
-0.145509
-0.142987
-0.140421
-0.137804
-0.135135
-0.132409
-0.129623
-0.126771
-0.123845
-0.120836
-0.117738
-0.114548
-0.111259
-0.107865
-0.104364
-0.100749
-0.0970313
-0.0932068
-0.0892792
-0.0852508
-0.0811313
-0.0769349
-0.0726775
-0.0683774
-0.0640537
-0.0597127
-0.0553634
-0.0510057
-0.0466312
-0.0422178
-0.0377408
-0.0331816
-0.0285427
-0.0238482
-0.0191594
-0.0145994
-0.0100223
-0.00627345
-0.002584
0.000866922
0.0041736
0.00739083
0.0105501
0.0136694
0.0167593
0.0198263
0.0228744
0.0259066
0.0289252
0.0319319
0.0349285
0.0379165
0.0408972
0.0438716
0.046841
0.049806
0.0527675
0.0557262
0.0586825
0.061637
0.0645899
0.0675416
0.0704924
0.0734424
0.0763918
0.0793408
0.0822895
0.0852379
0.0881861
0.0911342
0.0940822
0.0970302
0.099978
0.102926
0.105874
0.108822
-0.219944
-0.218649
-0.217348
-0.216043
-0.214733
-0.213424
-0.212121
-0.210828
-0.209551
-0.208294
-0.207062
-0.205856
-0.204676
-0.203518
-0.202377
-0.201249
-0.200121
-0.198986
-0.197827
-0.196633
-0.195392
-0.194085
-0.192705
-0.191239
-0.189679
-0.18802
-0.18626
-0.184402
-0.182447
-0.180398
-0.178258
-0.176035
-0.173743
-0.171395
-0.169004
-0.166582
-0.164142
-0.161697
-0.159248
-0.156798
-0.154345
-0.151885
-0.149409
-0.146913
-0.144391
-0.141837
-0.139248
-0.136613
-0.133934
-0.131206
-0.128424
-0.125584
-0.122679
-0.1197
-0.116638
-0.113485
-0.110231
-0.106869
-0.103392
-0.0997903
-0.0960732
-0.0922394
-0.0882932
-0.0842426
-0.0801019
-0.0758907
-0.0716273
-0.0673306
-0.0630179
-0.058691
-0.0543553
-0.050015
-0.0456698
-0.0413104
-0.0369169
-0.0324765
-0.027991
-0.0234739
-0.0189721
-0.0145483
-0.0102608
-0.00617526
-0.00240744
0.00112187
0.00448921
0.00774853
0.0109339
0.0140665
0.0171593
0.0202211
0.023258
0.0262746
0.0292744
0.0322607
0.0352358
0.038202
0.0411611
0.0441146
0.0470638
0.0500097
0.0529532
0.055895
0.0588356
0.0617754
0.0647148
0.067654
0.0705931
0.0735324
0.0764719
0.0794116
0.0823517
0.0852921
0.0882328
0.0911738
0.0941151
0.0970566
0.0999984
0.10294
0.105882
0.108824
-0.219963
-0.218704
-0.217441
-0.216175
-0.214905
-0.213637
-0.212373
-0.211118
-0.209876
-0.208653
-0.207453
-0.206274
-0.205115
-0.203975
-0.20285
-0.201734
-0.200614
-0.199482
-0.198321
-0.197117
-0.195858
-0.194528
-0.193115
-0.191606
-0.189994
-0.188275
-0.186448
-0.184521
-0.182495
-0.180373
-0.178164
-0.175875
-0.173518
-0.171105
-0.168647
-0.166156
-0.163643
-0.161123
-0.158598
-0.156073
-0.153548
-0.151017
-0.148477
-0.145924
-0.143356
-0.140766
-0.138153
-0.135501
-0.132809
-0.13008
-0.127304
-0.124477
-0.121587
-0.118629
-0.115594
-0.112469
-0.109242
-0.1059
-0.10243
-0.0988258
-0.0950917
-0.0912314
-0.0872532
-0.0831726
-0.0790102
-0.0747898
-0.0705307
-0.0662461
-0.061947
-0.0576343
-0.0533114
-0.0489855
-0.0446628
-0.0403463
-0.0360236
-0.0316816
-0.0273181
-0.0229325
-0.0185502
-0.0141989
-0.00989757
-0.00578169
-0.00199653
0.00154233
0.00491801
0.00818471
0.0113744
0.0145062
0.0175927
0.0206428
0.0236636
0.0266606
0.0296387
0.0326017
0.0355531
0.0384956
0.0414315
0.0443626
0.0472905
0.0502164
0.0531411
0.0560654
0.0589898
0.0619146
0.0648401
0.0677665
0.0706939
0.0736223
0.0765518
0.0794822
0.0824137
0.085346
0.0882792
0.0912132
0.0941478
0.0970829
0.100019
0.102955
0.105891
0.108827
-0.219974
-0.21874
-0.217504
-0.216266
-0.215027
-0.213792
-0.212563
-0.211342
-0.210134
-0.208942
-0.207768
-0.206612
-0.205476
-0.204356
-0.203249
-0.202147
-0.201038
-0.199913
-0.198753
-0.197543
-0.19627
-0.194918
-0.193475
-0.191929
-0.190272
-0.188499
-0.186611
-0.184617
-0.182526
-0.180344
-0.178079
-0.175737
-0.173328
-0.170862
-0.168349
-0.1658
-0.163228
-0.160644
-0.158055
-0.155464
-0.152873
-0.150282
-0.147685
-0.145079
-0.142461
-0.139828
-0.137179
-0.134506
-0.131797
-0.129065
-0.126289
-0.123468
-0.120589
-0.117645
-0.114624
-0.111512
-0.108293
-0.104954
-0.101477
-0.0978556
-0.0940904
-0.0901898
-0.0861683
-0.0820504
-0.0778633
-0.073636
-0.0693866
-0.0651196
-0.0608363
-0.0565379
-0.0522264
-0.0479113
-0.0436045
-0.039318
-0.0350483
-0.0307772
-0.0265063
-0.0222279
-0.0179461
-0.0136414
-0.00928276
-0.00505885
-0.00133572
0.00213106
0.0054611
0.00870253
0.0118763
0.0149941
0.0180646
0.0210957
0.0240944
0.027067
0.0300191
0.0329555
0.0358802
0.0387966
0.0417073
0.0446145
0.0475199
0.0504247
0.0533299
0.0562361
0.0591438
0.0620533
0.0649648
0.0678783
0.0707938
0.0737113
0.0766307
0.0795519
0.0824748
0.0853992
0.0883249
0.0912519
0.0941799
0.0971088
0.100038
0.102969
0.105899
0.10883
-0.21998
-0.218758
-0.217537
-0.216318
-0.215102
-0.213892
-0.212691
-0.2115
-0.210321
-0.209157
-0.20801
-0.206879
-0.205764
-0.204665
-0.203575
-0.20249
-0.201395
-0.200278
-0.199123
-0.197913
-0.196632
-0.195262
-0.19379
-0.192205
-0.190504
-0.188687
-0.186761
-0.184729
-0.182593
-0.180358
-0.178044
-0.175662
-0.173214
-0.170705
-0.168147
-0.165554
-0.162936
-0.160304
-0.157666
-0.155027
-0.152386
-0.149743
-0.147093
-0.144432
-0.141762
-0.139081
-0.136389
-0.133686
-0.130952
-0.1282
-0.125417
-0.122591
-0.119705
-0.116758
-0.113733
-0.110613
-0.107384
-0.104026
-0.100521
-0.0968625
-0.093053
-0.0891033
-0.0850327
-0.080874
-0.076661
-0.0724274
-0.0681925
-0.0639495
-0.0596839
-0.055399
-0.0510989
-0.046796
-0.0425076
-0.0382471
-0.0340164
-0.029793
-0.0255819
-0.0213619
-0.0171177
-0.0128087
-0.00833294
-0.0038145
-0.000405563
0.00286386
0.0060986
0.00929291
0.012438
0.0155319
0.0185782
0.0215827
0.0245527
0.0274951
0.0304163
0.0333219
0.0362165
0.039104
0.0419873
0.0448689
0.0477504
0.0506331
0.053518
0.0564056
0.0592963
0.0621903
0.0650876
0.0679881
0.0708918
0.0737985
0.076708
0.0796201
0.0825345
0.085451
0.0883695
0.0912896
0.0942112
0.097134
0.100058
0.102982
0.105907
0.108833
-0.21998
-0.21876
-0.217542
-0.216331
-0.21513
-0.213939
-0.21276
-0.211592
-0.210439
-0.209302
-0.208179
-0.207071
-0.205977
-0.204897
-0.203828
-0.202763
-0.201686
-0.200583
-0.199439
-0.198231
-0.19694
-0.195546
-0.194037
-0.192408
-0.190663
-0.188811
-0.186865
-0.184822
-0.182674
-0.180423
-0.178084
-0.17567
-0.173191
-0.170652
-0.168065
-0.165443
-0.162797
-0.160139
-0.157478
-0.154811
-0.152138
-0.149455
-0.14676
-0.144051
-0.141328
-0.138593
-0.13585
-0.133102
-0.130333
-0.127542
-0.124725
-0.121867
-0.11895
-0.115971
-0.112908
-0.109751
-0.106481
-0.10308
-0.0995268
-0.0958132
-0.0919429
-0.087935
-0.0838163
-0.079621
-0.0753896
-0.071158
-0.0669413
-0.062725
-0.0584812
-0.0542176
-0.049943
-0.0456669
-0.0414052
-0.03717
-0.0329719
-0.0287896
-0.0246233
-0.0204519
-0.0162439
-0.0119037
-0.00716936
-0.000867891
0.000700085
0.0036466
0.00678536
0.00993895
0.0130553
0.0161207
0.0191355
0.0221059
0.0250398
0.0279454
0.03083
0.0337
0.0365607
0.0394162
0.0422697
0.0451238
0.0479801
0.0508398
0.0537038
0.0565724
0.0594459
0.0623242
0.0652073
0.068095
0.070987
0.073883
0.0767828
0.0796859
0.0825921
0.0855011
0.0884124
0.091326
0.0942413
0.0971582
0.100076
0.102995
0.105915
0.108835
-0.219975
-0.218744
-0.217519
-0.216307
-0.21511
-0.213931
-0.212769
-0.211625
-0.210497
-0.209382
-0.208281
-0.207195
-0.206122
-0.205061
-0.204009
-0.202963
-0.201908
-0.200826
-0.199694
-0.198482
-0.197169
-0.19574
-0.194189
-0.192519
-0.190738
-0.188864
-0.186908
-0.184862
-0.182716
-0.180472
-0.178139
-0.175726
-0.173247
-0.170706
-0.168114
-0.165486
-0.162835
-0.160174
-0.157507
-0.154835
-0.152152
-0.149453
-0.14673
-0.143982
-0.141209
-0.138416
-0.135611
-0.132801
-0.129976
-0.127129
-0.124245
-0.121313
-0.11832
-0.115269
-0.112132
-0.1089
-0.105553
-0.102076
-0.0984474
-0.0946606
-0.0907196
-0.0866445
-0.0824752
-0.0782524
-0.0740177
-0.0697959
-0.065599
-0.0614141
-0.0572073
-0.0529872
-0.0487653
-0.0445455
-0.0403352
-0.0361475
-0.0319936
-0.0278543
-0.0237182
-0.0195695
-0.0154014
-0.0111799
-0.00680502
-0.00238276
0.00100891
0.00426173
0.0074718
0.010632
0.0137299
0.0167639
0.0197397
0.0226671
0.0255564
0.0284175
0.0312591
0.0340882
0.0369106
0.0397309
0.0425522
0.0453769
0.0482068
0.0510427
0.0538852
0.0567346
0.0595908
0.0624536
0.0653227
0.0681977
0.0710783
0.0739639
0.0768542
0.0797487
0.082647
0.0855487
0.0884533
0.0913605
0.0942699
0.0971812
0.100094
0.103008
0.105923
0.108838
-0.219961
-0.218707
-0.217464
-0.21624
-0.215039
-0.213863
-0.212712
-0.211586
-0.210479
-0.209389
-0.208311
-0.207241
-0.206181
-0.205134
-0.204102
-0.203083
-0.202059
-0.200999
-0.199868
-0.198637
-0.197291
-0.195821
-0.19423
-0.192528
-0.190735
-0.188866
-0.186926
-0.184904
-0.182782
-0.180564
-0.178259
-0.17588
-0.173433
-0.17092
-0.16835
-0.165738
-0.163098
-0.160443
-0.157779
-0.15511
-0.152431
-0.149732
-0.147
-0.144226
-0.14141
-0.138563
-0.135697
-0.132821
-0.129925
-0.126996
-0.124011
-0.120959
-0.117831
-0.114639
-0.11137
-0.10801
-0.104541
-0.100952
-0.0972194
-0.0933361
-0.0893159
-0.0851827
-0.0809776
-0.0767424
-0.0725163
-0.0683045
-0.0641229
-0.059969
-0.0558072
-0.0516491
-0.0475149
-0.04341
-0.0393102
-0.0352343
-0.031173
-0.027107
-0.0230034
-0.0188778
-0.0147294
-0.0105892
-0.00642134
-0.00229146
0.00147513
0.0049293
0.00822427
0.0114007
0.0144773
0.0174701
0.0203952
0.023268
0.0261023
0.0289101
0.0317013
0.0344837
0.0372634
0.040045
0.0428316
0.0456255
0.0484278
0.0512393
0.0540601
0.0568902
0.0597293
0.0625768
0.0654322
0.068295
0.0711646
0.0740403
0.0769216
0.0798079
0.0826986
0.0855934
0.0884917
0.0913929
0.0942968
0.0972027
0.10011
0.10302
0.10593
0.10884
-0.21994
-0.218645
-0.21737
-0.216122
-0.214909
-0.213732
-0.212589
-0.211477
-0.210388
-0.209317
-0.208259
-0.207209
-0.206168
-0.205139
-0.204129
-0.203138
-0.202142
-0.201091
-0.199942
-0.198676
-0.197289