/*--------------------------------*- C++ -*----------------------------------*\
  =========                 |
  \\      /  F ield         | OpenFOAM: The Open Source CFD Toolbox
   \\    /   O peration     | Website:  https://openfoam.org
    \\  /    A nd           | Version:  6
     \\/     M anipulation  |
\*---------------------------------------------------------------------------*/
FoamFile
{
    version     2.0;
    format      ascii;
    class       surfaceScalarField;
    location    "1800";
    object      phi;
}
// * * * * * * * * * * * * * * * * * * * * * * * * * * * * * * * * * * * * * //

dimensions      [0 3 -1 0 0 0 0];

internalField   nonuniform List<scalar> 
9440
(
-7.64315e-11
7.64315e-11
-1.00895e-10
2.44635e-11
-5.48635e-11
-4.60307e-11
-5.65577e-11
1.69447e-12
-1.97029e-10
1.40472e-10
-4.46475e-10
2.49445e-10
-9.66098e-10
5.19623e-10
-1.48537e-09
5.19273e-10
-1.94885e-09
4.63476e-10
-2.25946e-09
3.10615e-10
-2.53623e-09
2.76775e-10
-2.74186e-09
2.05623e-10
-2.88168e-09
1.3982e-10
-2.99515e-09
1.13472e-10
-3.03709e-09
4.19431e-11
-3.06479e-09
2.77021e-11
-3.0338e-09
-3.09866e-11
-2.99355e-09
-4.02568e-11
-2.93058e-09
-6.29676e-11
-2.8333e-09
-9.72818e-11
-2.65434e-09
-1.78951e-10
-2.4676e-09
-1.86748e-10
-2.39936e-09
-6.82372e-11
-2.34424e-09
-5.51153e-11
-2.07874e-09
-2.65503e-10
-1.8085e-09
-2.70247e-10
-1.70527e-09
-1.0323e-10
-1.56968e-09
-1.35591e-10
-1.36973e-09
-1.99944e-10
-1.14144e-09
-2.2829e-10
-1.07617e-09
-6.52677e-11
-9.0617e-10
-1.70003e-10
-7.07378e-10
-1.98791e-10
-6.41644e-10
-6.57332e-11
-4.63768e-10
-1.77874e-10
-2.6881e-10
-1.94957e-10
-9.6086e-11
-1.72723e-10
-7.48169e-11
-2.12674e-11
1.21158e-10
-1.95974e-10
6.97097e-11
5.14498e-11
2.36405e-10
-1.66694e-10
3.85186e-10
-1.48781e-10
3.12144e-10
7.30425e-11
4.66248e-10
-1.54105e-10
6.21611e-10
-1.55364e-10
8.81029e-10
-2.59419e-10
9.97848e-10
-1.16819e-10
1.07801e-09
-8.01632e-11
1.0946e-09
-1.65905e-11
1.06759e-09
2.70078e-11
1.10156e-09
-3.3965e-11
1.11168e-09
-1.01171e-11
1.05776e-09
5.39188e-11
9.25764e-10
1.31995e-10
7.61517e-10
1.64248e-10
4.72555e-10
2.88961e-10
7.2872e-11
3.99684e-10
-2.14406e-10
2.87278e-10
-3.86643e-10
1.72237e-10
-4.82499e-10
9.58563e-11
-5.7411e-10
9.16112e-11
-5.29323e-10
-4.4788e-11
-4.2445e-10
-1.04873e-10
-3.07273e-10
-1.17178e-10
-2.47445e-10
-5.98283e-11
-1.66346e-11
-2.30812e-10
3.92897e-11
-5.59253e-11
8.21245e-11
-4.28357e-11
1.4256e-10
-6.04357e-11
1.6605e-10
-2.34899e-11
1.85973e-10
-1.99233e-11
2.23443e-10
-3.74692e-11
2.18257e-10
5.1875e-12
2.21662e-10
-3.40375e-12
1.97465e-10
2.41986e-11
1.67534e-10
2.9932e-11
1.23016e-10
4.45186e-11
1.60459e-10
-3.74423e-11
1.62117e-10
-1.65759e-12
6.12943e-16
1.62115e-10
-1.14377e-18
5.77981e-19
-1.14801e-18
4.24343e-21
-1.11919e-18
-2.94655e-20
-1.07957e-18
-4.00195e-20
-1.02922e-18
-5.02437e-20
-9.63727e-19
-6.48114e-20
-8.79601e-19
-8.28427e-20
-7.74746e-19
-1.03061e-19
-6.48744e-19
-1.23851e-19
-5.02669e-19
-1.43781e-19
-3.38771e-19
-1.61677e-19
-1.6015e-19
-1.76637e-19
2.9411e-20
-1.87999e-19
2.2566e-19
-1.95284e-19
4.24131e-19
-1.98182e-19
6.2036e-19
-1.96571e-19
8.10053e-19
-1.90527e-19
9.89204e-19
-1.80317e-19
1.15416e-18
-1.6635e-19
1.30169e-18
-1.4913e-19
1.42914e-18
-1.29217e-19
1.53445e-18
-1.07187e-19
1.61619e-18
-8.3621e-20
1.6736e-18
-5.9087e-20
1.70645e-18
-3.41368e-20
1.71503e-18
-9.29297e-21
1.69995e-18
1.49713e-20
1.66213e-18
3.82511e-20
1.60269e-18
6.0226e-20
1.52297e-18
8.06606e-20
1.4245e-18
9.93953e-20
1.30898e-18
1.16328e-19
1.17825e-18
1.31399e-19
1.03425e-18
1.44575e-19
8.7893e-19
1.55844e-19
7.14274e-19
1.65206e-19
5.42212e-19
1.72674e-19
3.64627e-19
1.78273e-19
1.83332e-19
1.82051e-19
1.84133e-19
-9.89765e-11
1.75408e-10
-2.60731e-10
1.86219e-10
-4.21086e-10
1.14325e-10
-5.71975e-10
1.52584e-10
-7.68353e-10
3.36851e-10
-1.11535e-09
5.96446e-10
-1.35575e-09
7.60024e-10
-1.85392e-09
1.01744e-09
-2.14811e-09
7.57663e-10
-2.20302e-09
3.65532e-10
-2.3717e-09
4.45451e-10
-2.55021e-09
3.84132e-10
-2.63242e-09
2.22029e-10
-2.67541e-09
1.56462e-10
-2.68977e-09
5.63124e-11
-2.69571e-09
3.3643e-11
-2.65825e-09
-6.84493e-11
-2.5587e-09
-1.39803e-10
-2.45112e-09
-1.7055e-10
-2.34009e-09
-2.08305e-10
-2.25301e-09
-2.6603e-10
-2.21549e-09
-2.24274e-10
-2.13631e-09
-1.47411e-10
-1.97501e-09
-2.16418e-10
-1.85154e-09
-3.88975e-10
-1.60514e-09
-5.16653e-10
-1.50414e-09
-2.04222e-10
-1.28675e-09
-3.52981e-10
-1.14111e-09
-3.45584e-10
-9.86593e-10
-3.8281e-10
-7.93443e-10
-2.58417e-10
-6.1171e-10
-3.51735e-10
-4.69099e-10
-3.41401e-10
-3.4116e-10
-1.93669e-10
-1.95536e-10
-3.23496e-10
5.69228e-12
-3.96182e-10
1.45486e-10
-3.12513e-10
2.21396e-10
-9.71751e-11
2.67258e-10
-2.41833e-10
3.47915e-10
-2.92064e-11
4.27601e-10
-2.46379e-10
5.32285e-10
-2.53464e-10
7.38712e-10
-1.33385e-10
7.24174e-10
-1.39567e-10
8.91773e-10
-3.22964e-10
1.01404e-09
-3.81691e-10
1.09138e-09
-1.94157e-10
1.14963e-09
-1.38414e-10
1.24739e-09
-1.14351e-10
1.22393e-09
5.04732e-11
1.16687e-09
2.30992e-11
1.19812e-09
-4.13673e-11
1.13114e-09
1.20895e-10
9.24682e-10
3.38455e-10
5.81277e-10
5.07654e-10
2.9883e-10
5.71409e-10
1.29916e-10
5.68598e-10
-2.88091e-11
4.46003e-10
-1.91891e-10
3.35319e-10
-3.09115e-10
2.1308e-10
-2.81068e-10
6.35636e-11
-2.16005e-10
-1.09852e-10
-1.21661e-10
-1.99219e-10
6.38131e-11
-3.02654e-10
1.93518e-10
-1.89534e-10
3.95716e-10
-4.33012e-10
5.15715e-10
-1.75926e-10
6.17992e-10
-1.45113e-10
6.76052e-10
-1.18496e-10
6.64215e-10
-1.16521e-11
5.96073e-10
4.82204e-11
4.93864e-10
6.47416e-11
4.12038e-10
8.70153e-11
3.68289e-10
4.0347e-11
3.61728e-10
3.07619e-11
3.63295e-10
2.83665e-11
3.87398e-10
2.04165e-11
3.47621e-10
2.33381e-12
2.33265e-10
1.12698e-10
4.29932e-16
3.95379e-10
-1.29803e-18
6.61025e-19
-1.18559e-18
-1.08522e-19
-1.13209e-18
-8.3343e-20
-1.09073e-18
-8.10161e-20
-1.0437e-18
-9.60359e-20
-9.81759e-19
-1.24662e-19
-8.9982e-19
-1.61982e-19
-7.95535e-19
-2.04079e-19
-6.68675e-19
-2.47248e-19
-5.20565e-19
-2.88544e-19
-3.53731e-19
-3.25639e-19
-1.71511e-19
-3.56712e-19
2.21259e-20
-3.80367e-19
2.22762e-19
-3.9559e-19
4.25743e-19
-4.01754e-19
6.26403e-19
-3.98641e-19
8.20264e-19
-3.86456e-19
1.00317e-18
-3.6577e-19
1.17138e-18
-3.37414e-19
1.32161e-18
-3.02391e-19
1.45117e-18
-2.61808e-19
1.55801e-18
-2.16841e-19
1.64072e-18
-1.68706e-19
1.69855e-18
-1.18633e-19
1.7313e-18
-6.78252e-20
1.73929e-18
-1.74074e-20
1.72323e-18
3.16365e-20
1.6841e-18
7.85104e-20
1.62312e-18
1.22621e-19
1.54171e-18
1.6356e-19
1.44144e-18
2.0106e-19
1.32405e-18
2.34953e-19
1.19143e-18
2.65132e-19
1.04551e-18
2.9153e-19
8.88292e-19
3.1411e-19
7.21743e-19
3.32867e-19
5.47811e-19
3.47814e-19
3.68405e-19
3.58986e-19
1.85414e-19
3.66419e-19
3.7012e-19
-7.13087e-11
2.46717e-10
-1.12115e-10
2.27026e-10
-2.85754e-10
2.87964e-10
-5.75692e-10
4.42523e-10
-8.33732e-10
5.94891e-10
-1.20262e-09
9.6533e-10
-1.55795e-09
1.11536e-09
-1.65736e-09
1.11685e-09
-1.80842e-09
9.08727e-10
-2.00305e-09
5.60162e-10
-2.12763e-09
5.70028e-10
-2.1936e-09
4.501e-10
-2.27797e-09
3.064e-10
-2.27697e-09
1.55464e-10
-2.32525e-09
1.04592e-10
-2.36656e-09
7.49623e-11
-2.33523e-09
-9.97779e-11
-2.32705e-09
-1.47984e-10
-2.2627e-09
-2.34901e-10
-2.12601e-09
-3.44999e-10
-1.9148e-09
-4.77235e-10
-1.77905e-09
-3.60025e-10
-1.68025e-09
-2.46204e-10
-1.57789e-09
-3.18778e-10
-1.53014e-09
-4.36728e-10
-1.23578e-09
-8.11011e-10
-1.24233e-09
-1.97674e-10
-1.05859e-09
-5.36723e-10
-8.83663e-10
-5.20509e-10
-7.27176e-10
-5.39296e-10
-5.03089e-10
-4.82504e-10
-3.61343e-10
-4.9348e-10
-2.02123e-10
-5.0062e-10
7.51797e-11
-4.7097e-10
3.10958e-10
-5.59273e-10
4.53567e-10
-5.38789e-10
6.21368e-10
-4.80312e-10
8.17473e-10
-2.93278e-10
9.32119e-10
-3.56477e-10
1.0865e-09
-1.83584e-10
9.98549e-10
-1.58428e-10
9.63161e-10
-2.18076e-10
1.12276e-09
-2.92981e-10
1.15416e-09
-1.70966e-10
1.20204e-09
-3.70844e-10
1.28167e-09
-4.61328e-10
1.36682e-09
-2.79301e-10
1.43085e-09
-2.02443e-10
1.48699e-09
-1.70497e-10
1.49065e-09
4.68124e-11
1.36367e-09
1.50077e-10
1.27443e-09
4.78798e-11
1.15969e-09
2.35635e-10
9.73644e-10
5.245e-10
7.36142e-10
7.45157e-10
4.02469e-10
9.05083e-10
1.94424e-10
7.76643e-10
1.61016e-10
4.79411e-10
1.09463e-10
3.86872e-10
6.58968e-11
2.56645e-10
6.87137e-11
6.07459e-11
7.26888e-11
-1.13829e-10
9.99216e-11
-2.26452e-10
2.19902e-10
-4.22635e-10
3.62421e-10
-3.32055e-10
4.22016e-10
-4.92608e-10
5.93844e-10
-3.47754e-10
7.02276e-10
-2.53545e-10
8.21359e-10
-2.3758e-10
8.79341e-10
-6.96335e-11
8.33895e-10
9.3667e-11
7.57375e-10
1.41263e-10
6.54801e-10
1.89591e-10
5.70203e-10
1.24946e-10
4.969e-10
1.04066e-10
4.8128e-10
4.39866e-11
4.99972e-10
1.72508e-12
4.18622e-10
8.36832e-11
2.66389e-10
2.6493e-10
3.48548e-16
6.61766e-10
-1.2017e-18
1.23937e-18
-1.15959e-18
-1.50916e-19
-1.12897e-18
-1.14457e-19
-1.10498e-18
-1.05158e-19
-1.07175e-18
-1.28982e-19
-1.01908e-18
-1.76604e-19
-9.41917e-19
-2.37991e-19
-8.38705e-19
-3.05834e-19
-7.09971e-19
-3.74346e-19
-5.57659e-19
-4.39194e-19
-3.84804e-19
-4.97018e-19
-1.95166e-19
-5.45192e-19
6.90258e-21
-5.81704e-19
2.16598e-19
-6.05097e-19
4.28855e-19
-6.14464e-19
6.38587e-19
-6.09492e-19
8.40951e-19
-5.90487e-19
1.03153e-18
-5.58327e-19
1.2064e-18
-5.14331e-19
1.36219e-18
-4.60118e-19
1.49614e-18
-3.97493e-19
1.60615e-18
-3.28355e-19
1.6908e-18
-2.54628e-19
1.74935e-18
-1.78203e-19
1.78172e-18
-1.00881e-19
1.78834e-18
-2.43156e-20
1.7701e-18
5.00516e-20
1.72821e-18
1.21045e-19
1.66406e-18
1.87777e-19
1.57921e-18
2.49629e-19
1.47533e-18
3.06195e-19
1.35423e-18
3.57231e-19
1.21783e-18
4.02593e-19
1.0681e-18
4.42206e-19
9.07049e-19
4.76044e-19
7.3669e-19
5.04117e-19
5.58983e-19
5.26466e-19
3.75838e-19
5.43147e-19
1.89114e-19
5.54216e-19
5.5971e-19
-2.45402e-10
4.92119e-10
-5.15807e-10
4.97432e-10
-7.58272e-10
5.3043e-10
-9.23563e-10
6.07815e-10
-1.06322e-09
7.34544e-10
-1.16785e-09
1.06996e-09
-1.41314e-09
1.36065e-09
-1.57158e-09
1.27529e-09
-1.70853e-09
1.04568e-09
-1.84415e-09
6.95785e-10
-1.89462e-09
6.20497e-10
-1.89756e-09
4.53046e-10
-1.90019e-09
3.09024e-10
-2.01987e-09
2.75153e-10
-2.10594e-09
1.9066e-10
-2.1512e-09
1.2022e-10
-2.10996e-09
-1.41018e-10
-2.115e-09
-1.42936e-10
-2.04696e-09
-3.0294e-10
-1.91748e-09
-4.7448e-10
-1.8267e-09
-5.68011e-10
-1.67166e-09
-5.15071e-10
-1.52357e-09
-3.94292e-10
-1.40861e-09
-4.33732e-10
-1.34234e-09
-5.03001e-10
-1.13399e-09
-1.01937e-09
-9.85315e-10
-3.46343e-10
-8.20459e-10
-7.01579e-10
-7.05359e-10
-6.35609e-10
-5.52379e-10
-6.92275e-10
-3.18314e-10
-7.16568e-10
-6.22271e-11
-7.49567e-10
2.21709e-10
-7.84555e-10
4.90468e-10
-7.39728e-10
6.50357e-10
-7.19161e-10
7.80905e-10
-6.69336e-10
9.52424e-10
-6.51829e-10
1.1423e-09
-4.83153e-10
1.16919e-09
-3.83368e-10
1.37517e-09
-3.89557e-10
1.44098e-09
-2.24243e-10
1.38537e-09
-1.62464e-10
1.41371e-09
-3.21314e-10
1.53597e-09
-2.93232e-10
1.50824e-09
-3.43113e-10
1.46891e-09
-4.21996e-10
1.55944e-09
-3.69834e-10
1.62659e-09
-2.6959e-10
1.60819e-09
-1.52101e-10
1.66198e-09
-6.97538e-12
1.60534e-09
2.06714e-10
1.38225e-09
2.70975e-10
1.22865e-09
3.89232e-10
1.01261e-09
7.40543e-10
8.63648e-10
8.94117e-10
8.75873e-10
8.92858e-10
9.72458e-10
6.80059e-10
7.97014e-10
6.54855e-10
4.69082e-10
7.14803e-10
3.14754e-10
4.10972e-10
2.93033e-10
8.24658e-11
2.80054e-10
-1.00851e-10
2.25949e-10
-1.72348e-10
2.01715e-10
-3.98402e-10
3.71885e-10
-5.02226e-10
4.18803e-10
-5.39527e-10
5.32093e-10
-4.61045e-10
6.47745e-10
-3.69198e-10
7.85493e-10
-3.75328e-10
8.64358e-10
-1.48499e-10
8.9374e-10
6.42856e-11
8.6724e-10
1.67763e-10
8.2095e-10
2.35881e-10
7.03717e-10
2.42181e-10
6.58651e-10
1.49133e-10
5.88458e-10
1.1418e-10
4.97633e-10
9.25493e-11
4.39402e-10
1.41913e-10
3.93699e-10
3.10632e-10
2.43883e-16
1.05546e-09
-1.22713e-18
1.32364e-18
-1.12232e-18
-2.56179e-19
-1.11888e-18
-1.18688e-19
-1.12804e-18
-9.67973e-20
-1.11887e-18
-1.38881e-19
-1.08046e-18
-2.15591e-19
-1.00976e-18
-3.09075e-19
-9.07217e-19
-4.08556e-19
-7.74819e-19
-5.06682e-19
-6.15483e-19
-5.98225e-19
-4.32978e-19
-6.79126e-19
-2.31678e-19
-7.46107e-19
-1.64904e-20
-7.96597e-19
2.07231e-19
-8.2872e-19
4.33827e-19
-8.41311e-19
6.57593e-19
-8.33979e-19
8.73111e-19
-8.07166e-19
1.07552e-18
-7.62127e-19
1.26061e-18
-7.00776e-19
1.42482e-18
-6.25481e-19
1.56528e-18
-5.38871e-19
1.67987e-18
-4.43676e-19
1.76722e-18
-3.42607e-19
1.82668e-18
-2.38254e-19
1.85828e-18
-1.33028e-19
1.8627e-18
-2.91079e-20
1.8411e-18
7.16132e-20
1.79494e-18
1.67583e-19
1.72591e-18
2.57617e-19
1.63577e-18
3.40884e-19
1.52636e-18
4.16854e-19
1.39959e-18
4.85221e-19
1.25744e-18
5.45836e-19
1.10193e-18
5.98649e-19
9.35122e-19
6.43678e-19
7.59039e-19
6.80979e-19
5.75664e-19
7.10639e-19
3.86907e-19
7.32755e-19
1.94607e-19
7.47418e-19
7.54692e-19
-1.833e-10
6.7542e-10
-2.79814e-10
5.93949e-10
-3.2456e-10
5.75177e-10
-5.07618e-10
7.90874e-10
-8.67134e-10
1.09406e-09
-1.0954e-09
1.29823e-09
-1.11163e-09
1.37688e-09
-1.14746e-09
1.31112e-09
-1.20591e-09
1.10413e-09
-1.44233e-09
9.32207e-10
-1.61853e-09
7.96689e-10
-1.78857e-09
6.23087e-10
-1.83922e-09
3.5968e-10
-1.87419e-09
3.10126e-10
-1.91721e-09
2.33679e-10
-1.94491e-09
1.47921e-10
-1.9261e-09
-1.5983e-10
-1.88774e-09
-1.81295e-10
-1.86972e-09
-3.2096e-10
-1.79472e-09
-5.49476e-10
-1.76808e-09
-5.94654e-10
-1.68944e-09
-5.93708e-10
-1.51879e-09
-5.64941e-10
-1.36731e-09
-5.85208e-10
-1.09529e-09
-7.75017e-10
-1.08026e-09
-1.0344e-09
-8.12277e-10
-6.14323e-10
-6.55182e-10
-8.58674e-10
-4.47334e-10
-8.43456e-10
-2.33658e-10
-9.0595e-10
-4.11157e-11
-9.09109e-10
1.34231e-10
-9.24912e-10
3.62864e-10
-1.01319e-09
6.97579e-10
-1.07444e-09
8.65092e-10
-8.86672e-10
1.09197e-09
-8.96215e-10
1.28562e-09
-8.45475e-10
1.45243e-09
-6.49964e-10
1.49275e-09
-4.23681e-10
1.69289e-09
-5.89697e-10
1.73143e-09
-2.6278e-10
1.81666e-09
-2.47696e-10
1.81096e-09
-3.15613e-10
1.79442e-09
-2.76694e-10
1.81463e-09
-3.63321e-10
1.73454e-09
-3.41908e-10
1.73176e-09
-3.67051e-10
1.7658e-09
-3.03633e-10
1.70148e-09
-8.77832e-11
1.67184e-09
2.26701e-11
1.6263e-09
2.5225e-10
1.51252e-09
3.84762e-10
1.31165e-09
5.90094e-10
1.18585e-09
8.66351e-10
1.22003e-09
8.59929e-10
1.26603e-09
8.4686e-10
9.57505e-10
9.88588e-10
5.04377e-10
1.10798e-09
3.36363e-10
8.82817e-10
3.2393e-10
4.23405e-10
3.37548e-10
6.88461e-11
3.27705e-10
-9.10084e-11
3.2791e-10
-1.72554e-10
2.79463e-10
-3.49956e-10
3.03592e-10
-5.26355e-10
3.39228e-10
-5.75163e-10
4.34526e-10
-5.56344e-10
5.4091e-10
-4.75582e-10
6.46222e-10
-4.8064e-10
7.35404e-10
-2.37681e-10
8.25711e-10
-2.60213e-11
8.45869e-10
1.47605e-10
8.33245e-10
2.48506e-10
7.6433e-10
3.11097e-10
6.94183e-10
2.1928e-10
5.8198e-10
2.26383e-10
5.47784e-10
1.26744e-10
5.71041e-10
1.18655e-10
5.08111e-10
3.73561e-10
1.0129e-16
1.56357e-09
-8.61321e-19
2.0258e-18
-9.84018e-19
-1.34125e-19
-1.0962e-18
-7.55669e-21
-1.16937e-18
-2.49857e-20
-1.19514e-18
-1.1468e-19
-1.17395e-18
-2.38516e-19
-1.10924e-18
-3.75496e-19
-1.00534e-18
-5.14074e-19
-8.66362e-19
-6.47014e-19
-6.96384e-19
-7.69119e-19
-4.9996e-19
-8.7608e-19
-2.82169e-19
-9.64129e-19
-4.86129e-20
-1.03014e-18
1.94639e-19
-1.07178e-18
4.41159e-19
-1.08764e-18
6.84405e-19
-1.07729e-18
9.18151e-19
-1.04136e-18
1.13687e-18
-9.81593e-19
1.33591e-18
-9.00604e-19
1.51143e-18
-8.01654e-19
1.66047e-18
-6.88347e-19
1.78094e-18
-5.64395e-19
1.87157e-18
-4.3342e-19
1.9319e-18
-2.98814e-19
1.9622e-18
-1.63655e-19
1.96343e-18
-3.067e-20
1.93707e-18
9.78039e-20
1.88498e-18
2.19857e-19
1.80918e-18
3.34031e-19
1.71174e-18
4.39311e-19
1.59473e-18
5.35065e-19
1.46021e-18
6.20965e-19
1.31025e-18
6.96892e-19
1.14696e-18
7.62864e-19
9.72423e-19
8.18977e-19
7.88699e-19
8.65372e-19
5.9778e-19
9.02209e-19
4.0157e-19
9.29646e-19
2.01881e-19
9.47822e-19
9.56836e-19
-3.6524e-11
7.11944e-10
-2.6326e-10
8.20686e-10
-6.15755e-10
9.27672e-10
-8.95554e-10
1.07067e-09
-9.14534e-10
1.11304e-09
-9.55764e-10
1.33946e-09
-1.08075e-09
1.50187e-09
-1.28587e-09
1.51624e-09
-1.40282e-09
1.22108e-09
-1.47769e-09
1.00708e-09
-1.55256e-09
8.71555e-10
-1.5667e-09
6.37227e-10
-1.64626e-09
4.39242e-10
-1.69507e-09
3.58936e-10
-1.74954e-09
2.8815e-10
-1.75627e-09
1.54652e-10
-1.77307e-09
-1.43036e-10
-1.72489e-09
-2.29471e-10
-1.67667e-09
-3.69174e-10
-1.64703e-09
-5.79114e-10
-1.62683e-09
-6.14853e-10
-1.52814e-09
-6.92394e-10
-1.33889e-09
-7.5419e-10
-1.14459e-09
-7.79513e-10
-8.63325e-10
-1.05628e-09
-8.8877e-10
-1.00895e-09
-5.66369e-10
-9.36723e-10
-4.17851e-10
-1.00719e-09
-3.15512e-10
-9.45794e-10
-2.22789e-10
-9.98673e-10
-9.03573e-12
-1.12286e-09
2.72016e-10
-1.20596e-09
5.99771e-10
-1.34094e-09
1.06788e-09
-1.54255e-09
1.32181e-09
-1.14061e-09
1.59946e-09
-1.17387e-09
1.846e-09
-1.09201e-09
1.90294e-09
-7.06899e-10
2.0316e-09
-5.52343e-10
2.0523e-09
-6.1039e-10
2.12735e-09
-3.3783e-10
2.16935e-09
-2.89702e-10
2.14757e-09
-2.93832e-10
2.08646e-09
-2.15582e-10
2.07065e-09
-3.47506e-10
1.94812e-09
-2.1938e-10
1.88092e-09
-2.99855e-10
1.86669e-09
-2.89402e-10
1.84873e-09
-6.98161e-11
1.76957e-09
1.01829e-10
1.72056e-09
3.01255e-10
1.63074e-09
4.74586e-10
1.55689e-09
6.63942e-10
1.57241e-09
8.50827e-10
1.42396e-09
1.00838e-09
1.07057e-09
1.20025e-09
6.407e-10
1.41846e-09
4.54103e-10
1.29458e-09
4.07065e-10
9.29854e-10
3.7374e-10
4.56729e-10
3.33928e-10
1.08658e-10
2.74917e-10
-3.19983e-11
2.60086e-10
-1.57724e-10
2.40303e-10
-3.30173e-10
2.49341e-10
-5.35393e-10
2.85099e-10
-6.10921e-10
3.69213e-10
-6.40459e-10
4.94001e-10
-6.0037e-10
5.48331e-10
-5.3497e-10
6.32189e-10
-3.2154e-10
6.89119e-10
-8.29514e-11
7.5445e-10
8.22753e-11
7.64462e-10
2.38495e-10
7.4724e-10
3.28318e-10
6.57659e-10
3.08861e-10
5.37291e-10
3.4675e-10
2.6399e-10
4.00045e-10
3.80236e-11
3.4462e-10
1.32736e-10
2.78849e-10
-7.39672e-17
1.69631e-09
-3.75775e-19
4.51839e-18
-8.56635e-19
3.46021e-19
-1.11285e-18
2.47544e-19
-1.25832e-18
1.18841e-19
-1.31865e-18
-5.64237e-20
-1.31093e-18
-2.48714e-19
-1.24782e-18
-4.41223e-19
-1.13828e-18
-6.26242e-19
-9.88467e-19
-7.99209e-19
-8.03344e-19
-9.56083e-19
-5.88009e-19
-1.09264e-18
-3.48177e-19
-1.20462e-18
-9.02568e-20
-1.28818e-18
1.78778e-19
-1.34042e-18
4.51513e-19
-1.35962e-18
7.2033e-19
-1.34535e-18
9.77923e-19
-1.29855e-18
1.21786e-18
-1.22156e-18
1.43486e-18
-1.11788e-18
1.62473e-18
-9.91844e-19
1.78443e-18
-8.48228e-19
1.91192e-18
-6.91911e-19
2.00618e-18
-5.27606e-19
2.06706e-18
-3.59649e-19
2.09519e-18
-1.9188e-19
2.0919e-18
-2.76136e-20
2.05912e-18
1.30374e-19
1.99915e-18
2.79853e-19
1.91446e-18
4.19142e-19
1.8075e-18
5.47092e-19
1.68063e-18
6.63025e-19
1.53614e-18
7.66637e-19
1.37623e-18
8.57891e-19
1.20307e-18
9.36917e-19
1.01882e-18
1.00394e-18
8.25536e-19
1.05922e-18
6.25217e-19
1.10303e-18
4.19746e-19
1.13562e-18
2.10895e-19
1.15719e-18
1.16788e-18
-1.19927e-10
8.31872e-10
-1.96965e-10
8.97726e-10
-2.54051e-10
9.84759e-10
-3.18321e-10
1.13495e-09
-5.58152e-10
1.35287e-09
-6.60761e-10
1.44207e-09
-6.54883e-10
1.49599e-09
-6.71735e-10
1.5331e-09
-7.62644e-10
1.31199e-09
-8.7571e-10
1.12015e-09
-8.84368e-10
8.80214e-10
-1.18993e-09
9.4279e-10
-1.40728e-09
6.56587e-10
-1.48469e-09
4.36345e-10
-1.49623e-09
2.99696e-10
-1.45988e-09
1.18299e-10
-1.52439e-09
-7.85186e-11
-1.49116e-09
-2.62708e-10
-1.38911e-09
-4.71216e-10
-1.35048e-09
-6.17741e-10
-1.23768e-09
-7.27653e-10
-1.09507e-09
-8.35008e-10
-9.60198e-10
-8.89057e-10
-7.94615e-10
-9.45094e-10
-7.55095e-10
-1.0958e-09
-7.23195e-10
-1.04085e-09
-5.4827e-10
-1.11165e-09
-4.02618e-10
-1.15284e-09
-2.11114e-10
-1.1373e-09
-3.14315e-11
-1.17835e-09
2.63103e-10
-1.4174e-09
6.43178e-10
-1.58604e-09
9.43184e-10
-1.64095e-09
1.30669e-09
-1.90605e-09
1.64924e-09
-1.48315e-09
1.92357e-09
-1.4482e-09
2.05708e-09
-1.22552e-09
2.19864e-09
-8.48461e-10
2.40278e-09
-7.56486e-10
2.3175e-09
-5.25102e-10
2.38032e-09
-4.00653e-10
2.39812e-09
-3.075e-10
2.3892e-09
-2.84916e-10
2.29883e-09
-1.25211e-10
2.20514e-09
-2.53813e-10
2.12655e-09
-1.40783e-10
1.97064e-09
-1.4395e-10
1.92894e-09
-2.47697e-10
1.92889e-09
-6.97661e-11
1.87701e-09
1.53708e-10
1.78405e-09
3.94209e-10
1.67414e-09
5.84496e-10
1.48283e-09
8.55251e-10
1.19442e-09
1.13924e-09
8.86329e-10
1.31647e-09
7.27539e-10
1.35904e-09
7.34541e-10
1.41146e-09
7.90594e-10
1.23852e-09
7.09506e-10
1.01094e-09
5.05916e-10
6.60319e-10
3.78195e-10
2.36378e-10
2.86343e-10
5.98526e-11
2.4843e-10
-1.19811e-10
2.12349e-10
-2.94093e-10
2.13562e-10
-5.36606e-10
2.90034e-10
-6.87393e-10
3.53366e-10
-7.03791e-10
4.19586e-10
-6.66591e-10
4.70827e-10
-5.8621e-10
5.65779e-10
-4.16492e-10
5.77307e-10
-9.44789e-11
6.20886e-10
3.86964e-11
6.56638e-10
2.02742e-10
6.12058e-10
3.72898e-10
6.3421e-10
2.8671e-10
5.93407e-10
3.87552e-10
5.51632e-10
4.4182e-10
3.36424e-10
5.59828e-10
2.07839e-10
4.07433e-10
-2.80669e-16
1.90415e-09
-9.32962e-19
3.9754e-18
-9.54269e-19
3.66703e-19
-1.24076e-18
5.33126e-19
-1.43283e-18
3.09311e-19
-1.51073e-18
1.93181e-20
-1.50344e-18
-2.58691e-19
-1.43284e-18
-5.14789e-19
-1.31125e-18
-7.50939e-19
-1.14534e-18
-9.68022e-19
-9.39905e-19
-1.16389e-18
-6.99986e-19
-1.33423e-18
-4.31737e-19
-1.47382e-18
-1.42495e-19
-1.57767e-18
1.5958e-19
-1.64197e-18
4.65783e-19
-1.66458e-18
7.67126e-19
-1.64512e-18
1.05492e-18
-1.585e-18
1.32154e-18
-1.48737e-18
1.56089e-18
-1.35689e-18
1.76835e-18
-1.19925e-18
1.94074e-18
-1.02063e-18
2.07622e-18
-8.27324e-19
2.17414e-18
-6.25347e-19
2.23483e-18
-4.20141e-19
2.25945e-18
-2.16427e-19
2.24989e-18
-1.81573e-20
2.2086e-18
1.71459e-19
2.13844e-18
3.49921e-19
2.04241e-18
5.154e-19
1.92343e-18
6.66697e-19
1.78424e-18
8.03163e-19
1.62739e-18
9.24588e-19
1.45525e-18
1.03108e-18
1.2701e-18
1.12295e-18
1.0741e-18
1.2006e-18
8.69347e-19
1.26446e-18
6.57804e-19
1.31495e-18
4.41313e-19
1.35244e-18
2.21587e-19
1.37722e-18
1.3895e-18
-1.17256e-10
9.49129e-10
-2.56253e-10
1.03672e-09
-3.59123e-10
1.08763e-09
-3.87886e-10
1.16371e-09
-3.52048e-10
1.31704e-09
-4.23476e-10
1.5135e-09
-5.35227e-10
1.60774e-09
-5.96044e-10
1.59391e-09
-7.11075e-10
1.42702e-09
-9.26524e-10
1.3356e-09
-9.76735e-10
9.30424e-10
-9.77254e-10
9.43308e-10
-1.055e-09
7.34336e-10
-1.15367e-09
5.35018e-10
-1.2049e-09
3.50924e-10
-1.21019e-09
1.23592e-10
-1.25914e-09
-2.95724e-11
-1.21241e-09
-3.09434e-10
-1.11698e-09
-5.66648e-10
-1.06624e-09
-6.6848e-10
-9.8271e-10
-8.11184e-10
-9.32179e-10
-8.85538e-10
-9.01081e-10
-9.20154e-10
-7.43225e-10
-1.10295e-09
-5.73929e-10
-1.26509e-09
-3.56329e-10
-1.25845e-09
-2.1709e-10
-1.25088e-09
-2.06778e-11
-1.34925e-09
2.39955e-10
-1.39793e-09
4.8635e-10
-1.42475e-09
7.55216e-10
-1.68626e-09
1.08114e-09
-1.91196e-09
1.3823e-09
-1.94211e-09
1.47568e-09
-1.99943e-09
1.76226e-09
-1.76973e-09
1.96255e-09
-1.64849e-09
2.09773e-09
-1.3607e-09
2.2656e-09
-1.01633e-09
2.41992e-09
-9.1081e-10
2.44134e-09
-5.46518e-10
2.46225e-09
-4.21561e-10
2.46657e-09
-3.11819e-10
2.4193e-09
-2.37644e-10
2.35672e-09
-6.26323e-11
2.21994e-09
-1.17031e-10
2.19361e-09
-1.14455e-10
1.9824e-09
6.72669e-11
1.90435e-09
-1.69656e-10
1.94601e-09
-1.11423e-10
1.86805e-09
2.31674e-10
1.79027e-09
4.71985e-10
1.69331e-09
6.81454e-10
1.5685e-09
9.80063e-10
1.51871e-09
1.18903e-09
1.49595e-09
1.33923e-09
1.32891e-09
1.52607e-09
1.12369e-09
1.61668e-09
8.45125e-10
1.51709e-09
5.98089e-10
1.25798e-09
4.30118e-10
8.28289e-10
3.50702e-10
3.15794e-10
3.30565e-10
7.99895e-11
2.79692e-10
-6.89377e-11
2.83608e-10
-2.98009e-10
3.22637e-10
-5.75635e-10
3.80846e-10
-7.45601e-10
4.35336e-10
-7.58281e-10
4.83533e-10
-7.14787e-10
4.87894e-10
-5.90571e-10
4.97862e-10
-4.2646e-10
4.9104e-10
-8.76565e-11
4.74975e-10
5.47606e-11
4.39314e-10
2.38403e-10
5.45729e-10
2.66482e-10
5.87377e-10
2.45062e-10
5.48647e-10
4.26281e-10
5.26928e-10
4.63539e-10
5.90974e-10
4.95782e-10
4.66452e-10
5.31956e-10
-5.03113e-16
2.3706e-09
5.89864e-19
6.73006e-18
-7.87022e-19
1.74315e-18
-1.46378e-18
1.20944e-18
-1.7221e-18
5.66452e-19
-1.78866e-18
8.4099e-20
-1.75954e-18
-2.90179e-19
-1.66899e-18
-6.08093e-19
-1.52833e-18
-8.94692e-19
-1.34121e-18
-1.15816e-18
-1.11025e-18
-1.39742e-18
-8.39577e-19
-1.60681e-18
-5.3559e-19
-1.77901e-18
-2.06797e-19
-1.90698e-18
1.36971e-19
-1.98543e-18
4.85245e-19
-2.01156e-18
8.27251e-19
-1.98509e-18
1.15254e-18
-1.90818e-18
1.45202e-18
-1.7852e-18
1.71854e-18
-1.62237e-18
1.94697e-18
-1.42712e-18
2.13405e-18
-1.20743e-18
2.2782e-18
-9.71311e-19
2.37934e-18
-7.26289e-19
2.43854e-18
-4.79097e-19
2.45772e-18
-2.35442e-19
2.4395e-18
3.50049e-23
2.38706e-18
2.2371e-19
2.30392e-18
4.3288e-19
2.19371e-18
6.25671e-19
2.0599e-18
8.00941e-19
1.90567e-18
9.58179e-19
1.73388e-18
1.09737e-18
1.54712e-18
1.21885e-18
1.34774e-18
1.32318e-18
1.13796e-18
1.41101e-18
9.19838e-19
1.48299e-18
6.95293e-19
1.53974e-18
4.66095e-19
1.58179e-18
2.33868e-19
1.60954e-18
1.62329e-18
1.14393e-11
9.37691e-10
2.87772e-11
1.01939e-09
-3.78354e-11
1.15424e-09
-1.52652e-10
1.27853e-09
-1.91445e-10
1.35583e-09
-1.60234e-10
1.48229e-09
-1.65272e-10
1.61278e-09
-1.61168e-10
1.58981e-09
-2.56575e-10
1.52243e-09
-3.6022e-10
1.43924e-09
-6.05191e-10
1.1754e-09
-7.81785e-10
1.1199e-09
-8.82916e-10
8.35467e-10
-9.14529e-10
5.6663e-10
-8.62166e-10
2.98561e-10
-9.18225e-10
1.79651e-10
-8.98445e-10
-4.93523e-11
-8.79618e-10
-3.28261e-10
-8.22922e-10
-6.23344e-10
-8.12514e-10
-6.78888e-10
-7.52353e-10
-8.71344e-10
-7.10363e-10
-9.27528e-10
-6.11117e-10
-1.0194e-09
-4.73482e-10
-1.24058e-09
-3.76866e-10
-1.36171e-09
-1.25687e-10
-1.50963e-09
1.29818e-10
-1.50639e-09
2.45869e-10
-1.4653e-09
3.58454e-10
-1.51051e-09
5.60212e-10
-1.6265e-09
8.29058e-10
-1.9551e-09
1.07877e-09
-2.16167e-09
1.33309e-09
-2.19642e-09
1.46707e-09
-2.13342e-09
1.67079e-09
-1.97345e-09
1.89457e-09
-1.87227e-09
2.01334e-09
-1.47948e-09
2.11496e-09
-1.11794e-09
2.29622e-09
-1.09207e-09
2.31505e-09
-5.65358e-10
2.34976e-09
-4.56271e-10
2.39925e-09
-3.61306e-10
2.35012e-09
-1.88513e-10
2.33383e-09
-4.63336e-11
2.24104e-09
-2.42458e-11
2.17121e-09
-4.46213e-11
2.06438e-09
1.74102e-10
1.96055e-09
-6.58282e-11
1.90314e-09
-5.4015e-11
1.64712e-09
4.877e-10
1.39743e-09
7.2167e-10
1.29673e-09
7.82155e-10
1.23561e-09
1.04119e-09
1.13265e-09
1.29198e-09
9.77338e-10
1.49455e-09
7.72386e-10
1.73102e-09
6.9304e-10
1.69603e-09
6.32373e-10
1.57775e-09
5.43104e-10
1.34725e-09
4.16256e-10
9.55137e-10
3.65935e-10
3.66115e-10
3.9643e-10
4.94949e-11
4.08712e-10
-8.12197e-11
4.22921e-10
-3.12217e-10
4.36221e-10
-5.88934e-10
4.78561e-10
-7.87941e-10
5.17459e-10
-7.97178e-10
5.55197e-10
-7.52524e-10
5.61772e-10
-5.97146e-10
5.11101e-10
-3.7579e-10
4.90573e-10
-6.71285e-11
4.33499e-10
1.11834e-10
4.21675e-10
2.50226e-10
5.71376e-10
1.1678e-10
5.45981e-10
2.70456e-10
5.34992e-10
4.3727e-10
4.95205e-10
5.03327e-10
4.67241e-10
5.23746e-10
5.25406e-10
4.73793e-10
5.47234e-13
2.89546e-09
7.48652e-18
5.48021e-13
-1.31987e-18
1.05494e-17
-2.10598e-18
1.99586e-18
-2.20387e-18
6.64136e-19
-2.16293e-18
4.23702e-20
-2.07745e-18
-3.77093e-19
-1.95559e-18
-7.31904e-19
-1.7918e-18
-1.06109e-18
-1.58046e-18
-1.3723e-18
-1.31964e-18
-1.6608e-18
-1.01178e-18
-1.91673e-18
-6.63563e-19
-2.12869e-18
-2.8525e-19
-2.28627e-18
1.10847e-19
-2.38187e-18
5.11713e-19
-2.41168e-18
9.04164e-19
-2.37568e-18
1.27552e-18
-2.27717e-18
1.61484e-18
-2.12235e-18
1.91379e-18
-1.91966e-18
2.16665e-18
-1.67887e-18
2.37017e-18
-1.41029e-18
2.52322e-18
-1.12401e-18
2.62654e-18
-8.2936e-19
2.6822e-18
-5.34521e-19
2.6932e-18
-2.46271e-19
2.66318e-18
3.00517e-20
2.59623e-18
2.90457e-19
2.49671e-18
5.32141e-19
2.36898e-18
7.53312e-19
2.21713e-18
9.53037e-19
2.04486e-18
1.13108e-18
1.85537e-18
1.28775e-18
1.65145e-18
1.42373e-18
1.43557e-18
1.5399e-18
1.20994e-18
1.63724e-18
9.76589e-19
1.7167e-18
7.3734e-19
1.77914e-18
4.9385e-19
1.82528e-18
2.47614e-19
1.85568e-18
1.87072e-18
2.22693e-11
9.15422e-10
4.87965e-11
9.9286e-10
5.90406e-11
1.144e-09
3.95408e-11
1.29803e-09
2.17551e-11
1.37362e-09
8.28905e-12
1.49575e-09
4.32267e-11
1.57784e-09
8.86482e-11
1.54439e-09
3.01796e-11
1.58089e-09
-8.67621e-11
1.55619e-09
-2.18383e-10
1.30702e-09
-2.7381e-10
1.17533e-09
-4.05983e-10
9.67639e-10
-6.03188e-10
7.63836e-10
-6.55535e-10
3.50907e-10
-5.78448e-10
1.02564e-10
-5.04956e-10
-1.22844e-10
-4.99379e-10
-3.33839e-10
-5.35719e-10
-5.87005e-10
-4.84789e-10
-7.29818e-10
-4.90891e-10
-8.65242e-10
-3.70099e-10
-1.04832e-09
-1.22349e-10
-1.26715e-09
3.26168e-11
-1.39555e-09
1.11398e-10
-1.44049e-09
5.83829e-11
-1.45661e-09
1.11609e-10
-1.55961e-09
3.13789e-10
-1.66748e-09
5.24199e-10
-1.72092e-09
7.74797e-10
-1.8771e-09
9.89903e-10
-2.17021e-09
1.16077e-09
-2.33254e-09
1.28171e-09
-2.31736e-09
1.38976e-09
-2.24147e-09
1.46255e-09
-2.04624e-09
1.48981e-09
-1.89953e-09
1.55662e-09
-1.54628e-09
1.69408e-09
-1.2554e-09
1.74416e-09
-1.14216e-09
1.82787e-09
-6.49061e-10
1.96618e-09
-5.94584e-10
2.00872e-09
-4.03847e-10
2.02258e-09
-2.0237e-10
2.01839e-09
-4.21433e-11
1.99295e-09
1.19885e-12
1.91874e-09
2.95903e-11
1.95405e-09
1.38794e-10
1.84588e-09
4.2347e-11
1.76633e-09
2.55269e-11
1.64889e-09
6.05148e-10
1.54478e-09
8.25775e-10
1.49848e-09
8.28453e-10
1.22883e-09
1.31084e-09
9.93254e-10
1.52755e-09
7.86552e-10
1.70125e-09
6.79856e-10
1.83772e-09
6.06491e-10
1.76939e-09
5.57226e-10
1.62702e-09
4.9678e-10
1.40769e-09
4.03201e-10
1.04872e-09
4.13124e-10
3.56193e-10
4.5739e-10
5.22927e-12
4.87868e-10
-1.11697e-10
5.33876e-10
-3.58224e-10
5.94724e-10
-6.49782e-10
6.30037e-10
-8.23253e-10
6.47065e-10
-8.14205e-10
6.50181e-10
-7.55639e-10
6.13117e-10
-5.60082e-10
6.41366e-10
-4.04039e-10
5.93033e-10
-1.87962e-11
5.42564e-10
1.62302e-10
5.92968e-10
1.9982e-10
5.62438e-10
1.47309e-10
4.92799e-10
3.40093e-10
4.75399e-10
4.5467e-10
4.02876e-10
5.7585e-10
2.94446e-10
6.32178e-10
-3.4303e-10
1.11127e-09
-4.67799e-13
2.5529e-09
-1.77973e-17
8.13879e-14
-5.4512e-18
1.00438e-18
-3.43692e-18
-1.85469e-20
-2.82525e-18
5.32542e-20
-2.5824e-18
-2.00125e-19
-2.43226e-18
-5.27329e-19
-2.28477e-18
-8.79983e-19
-2.10301e-18
-1.2444e-18
-1.86896e-18
-1.60842e-18
-1.57556e-18
-1.95639e-18
-1.22374e-18
-2.27046e-18
-8.21144e-19
-2.53274e-18
-3.80849e-19
-2.72783e-18
8.10331e-20
-2.84483e-18
5.47718e-19
-2.8786e-18
1.00267e-18
-2.82955e-18
1.43034e-18
-2.70284e-18
1.81754e-18
-2.50739e-18
2.15457e-18
-2.25478e-18
2.43523e-18
-1.95804e-18
2.65645e-18
-1.63049e-18
2.81787e-18
-1.28483e-18
2.92138e-18
-9.32532e-19
2.97045e-18
-5.83362e-19
2.96952e-18
-2.45204e-19
2.92358e-18
7.59601e-20
2.83791e-18
3.75889e-19
2.71788e-18
6.51833e-19
2.5687e-18
9.02267e-19
2.39518e-18
1.12665e-18
2.20153e-18
1.32521e-18