/*--------------------------------*- C++ -*----------------------------------*\
  =========                 |
  \\      /  F ield         | OpenFOAM: The Open Source CFD Toolbox
   \\    /   O peration     | Website:  https://openfoam.org
    \\  /    A nd           | Version:  6
     \\/     M anipulation  |
\*---------------------------------------------------------------------------*/
FoamFile
{
    version     2.0;
    format      ascii;
    class       volScalarField;
    location    "1800";
    object      T;
}
// * * * * * * * * * * * * * * * * * * * * * * * * * * * * * * * * * * * * * //

dimensions      [0 0 0 1 0 0 0];

internalField   nonuniform List<scalar> 
4800
(
552.506
552.419
552.332
552.246
552.16
552.076
551.992
551.912
551.836
551.764
551.698
551.636
551.58
551.527
551.478
551.432
551.389
551.348
551.31
551.272
551.236
551.201
551.166
551.131
551.097
551.062
551.027
550.992
550.956
550.919
550.882
550.843
550.803
550.762
550.719
550.674
550.627
550.578
550.527
550.472
550.415
550.355
550.292
550.225
550.155
550.081
550.002
549.918
549.828
549.732
549.629
549.519
549.402
549.278
549.147
549.009
548.868
548.723
548.578
548.434
548.291
548.149
548.01
547.871
547.733
547.595
547.457
547.316
547.172
547.025
546.875
546.721
546.564
546.404
546.242
546.078
545.913
545.748
545.583
545.42
545.259
545.104
544.953
544.806
544.664
544.526
544.391
544.26
544.131
544.004
543.88
543.757
543.636
543.516
543.397
543.279
543.163
543.047
542.931
542.817
542.703
542.59
542.477
542.365
542.253
542.142
542.03
541.92
541.809
541.699
541.589
541.479
541.369
541.26
541.15
541.041
540.932
540.823
540.714
540.605
552.506
552.419
552.332
552.246
552.16
552.076
551.993
551.914
551.839
551.768
551.703
551.642
551.585
551.533
551.484
551.438
551.395
551.354
551.316
551.278
551.242
551.207
551.172
551.137
551.102
551.068
551.033
550.997
550.961
550.924
550.886
550.847
550.807
550.766
550.723
550.678
550.631
550.582
550.53
550.476
550.418
550.358
550.295
550.228
550.157
550.082
550.003
549.919
549.829
549.732
549.629
549.519
549.402
549.278
549.147
549.01
548.869
548.725
548.581
548.437
548.294
548.152
548.012
547.874
547.736
547.597
547.458
547.317
547.174
547.027
546.877
546.722
546.565
546.404
546.241
546.077
545.911
545.745
545.579
545.415
545.255
545.099
544.948
544.802
544.66
544.522
544.388
544.257
544.128
544.002
543.878
543.755
543.634
543.514
543.396
543.278
543.162
543.046
542.931
542.816
542.703
542.589
542.477
542.364
542.253
542.141
542.03
541.919
541.809
541.699
541.589
541.479
541.369
541.26
541.15
541.041
540.932
540.823
540.714
540.605
552.507
552.42
552.333
552.247
552.162
552.078
551.997
551.92
551.846
551.777
551.712
551.652
551.596
551.544
551.495
551.449
551.406
551.366
551.327
551.29
551.253
551.218
551.182
551.147
551.113
551.078
551.042
551.006
550.97
550.933
550.894
550.855
550.815
550.773
550.73
550.685
550.638
550.589
550.537
550.482
550.424
550.363
550.299
550.232
550.16
550.085
550.005
549.92
549.83
549.733
549.63
549.52
549.402
549.278
549.148
549.012
548.872
548.729
548.585
548.441
548.298
548.156
548.015
547.876
547.737
547.598
547.458
547.316
547.173
547.026
546.876
546.721
546.563
546.402
546.238
546.072
545.905
545.738
545.571
545.406
545.244
545.088
544.938
544.792
544.651
544.515
544.381
544.251
544.123
543.998
543.874
543.752
543.631
543.512
543.394
543.276
543.16
543.044
542.929
542.815
542.701
542.588
542.476
542.364
542.252
542.14
542.029
541.919
541.808
541.698
541.588
541.478
541.369
541.259
541.15
541.041
540.932
540.823
540.713
540.604
552.507
552.421
552.335
552.25
552.166
552.084
552.005
551.929
551.857
551.789
551.725
551.666
551.611
551.559
551.51
551.465
551.422
551.381
551.342
551.305
551.269
551.233
551.197
551.162
551.127
551.091
551.055
551.019
550.982
550.944
550.906
550.866
550.825
550.783
550.74
550.694
550.646
550.596
550.544
550.488
550.43
550.369
550.304
550.236
550.163
550.087
550.006
549.92
549.829
549.733
549.629
549.519
549.402
549.278
549.148
549.014
548.875
548.733
548.589
548.445
548.301
548.159
548.017
547.876
547.735
547.595
547.454
547.312
547.168
547.021
546.871
546.716
546.558
546.396
546.231
546.064
545.895
545.726
545.557
545.391
545.228
545.072
544.922
544.778
544.639
544.503
544.372
544.243
544.116
543.991
543.869
543.747
543.627
543.508
543.39
543.273
543.157
543.042
542.927
542.813
542.7
542.587
542.474
542.362
542.251
542.139
542.028
541.918
541.807
541.697
541.588
541.478
541.368
541.259
541.15
541.04
540.931
540.822
540.713
540.604
552.508
552.423
552.339
552.256
552.173
552.093
552.016
551.942
551.872
551.805
551.742
551.684
551.629
551.577
551.529
551.484
551.442
551.401
551.362
551.325
551.288
551.252
551.216
551.18
551.144
551.109
551.072
551.035
550.997
550.959
550.919
550.879
550.837
550.795
550.75
550.704
550.655
550.604
550.551
550.494
550.435
550.373
550.307
550.238
550.165
550.087
550.005
549.918
549.827
549.729
549.626
549.516
549.399
549.276
549.147
549.014
548.875
548.733
548.589
548.445
548.301
548.158
548.015
547.873
547.731
547.59
547.448
547.305
547.16
547.012
546.861
546.707
546.548
546.385
546.219
546.05
545.879
545.707
545.537
545.369
545.204
545.048
544.9
544.758
544.621
544.488
544.359
544.232
544.107
543.983
543.861
543.741
543.621
543.503
543.386
543.269
543.154
543.039
542.924
542.81
542.697
542.585
542.472
542.36
542.249
542.138
542.027
541.917
541.806
541.696
541.587
541.477
541.368
541.258
541.149
541.04
540.931
540.822
540.713
540.604
552.509
552.426
552.344
552.263
552.183
552.105
552.03
551.958
551.889
551.824
551.762
551.705
551.65
551.6
551.552
551.507
551.465
551.424
551.385
551.347
551.31
551.274
551.238
551.201
551.165
551.128
551.091
551.053
551.014
550.974
550.934
550.893
550.85
550.806
550.76
550.712
550.663
550.61
550.556
550.498
550.438
550.375
550.308
550.237
550.163
550.084
550.001
549.913
549.821
549.723
549.619
549.509
549.393
549.271
549.143
549.009
548.871
548.73
548.586
548.443
548.298
548.155
548.011
547.868
547.725
547.582
547.439
547.295
547.148
547
546.848
546.693
546.533
546.37
546.202
546.031
545.857
545.682
545.508
545.338
545.172
545.017
544.872
544.733
544.6
544.47
544.343
544.218
544.095
543.973
543.853
543.733
543.615
543.497
543.38
543.265
543.149
543.035
542.921
542.807
542.694
542.582
542.47
542.358
542.247
542.136
542.026
541.915
541.805
541.695
541.586
541.476
541.367
541.258
541.149
541.04
540.931
540.822
540.713
540.604
552.51
552.43
552.351
552.272
552.195
552.12
552.047
551.976
551.91
551.846
551.786
551.729
551.675
551.625
551.577
551.533
551.491
551.45
551.411
551.373
551.336
551.299
551.262
551.225
551.188
551.15
551.112
551.073
551.032
550.991
550.95
550.907
550.862
550.816
550.769
550.719
550.668
550.614
550.558
550.499
550.437
550.372
550.304
550.232
550.156
550.076
549.992
549.903
549.81
549.712
549.608
549.498
549.382
549.26
549.133
549
548.863
548.723
548.581
548.437
548.293
548.149
548.004
547.861
547.717
547.573
547.428
547.283
547.135
546.985
546.832
546.675
546.515
546.35
546.181
546.008
545.831
545.652
545.473
545.298
545.129
544.976
544.836
544.703
544.574
544.449
544.325
544.203
544.082
543.962
543.843
543.725
543.607
543.49
543.374
543.259
543.144
543.03
542.917
542.803
542.691
542.579
542.467
542.356
542.245
542.134
542.024
541.914
541.804
541.694
541.585
541.475
541.366
541.257
541.148
541.039
540.93
540.822
540.713
540.604
552.512
552.435
552.358
552.283
552.208
552.136
552.065
551.997
551.932
551.87
551.81
551.755
551.702
551.652
551.606
551.561
551.519
551.479
551.44
551.402
551.364
551.327
551.289
551.251
551.213
551.174
551.134
551.093
551.052
551.009
550.965
550.92
550.874
550.825
550.775
550.722
550.668
550.612
550.554
550.494
550.43
550.364
550.295
550.221
550.144
550.063
549.978
549.888
549.794
549.695
549.591
549.482
549.367
549.246
549.12
548.988
548.853
548.714
548.572
548.428
548.284
548.14
547.995
547.851
547.707
547.562
547.416
547.269
547.12
546.969
546.814
546.656
546.493
546.327
546.156
545.981
545.8
545.616
545.43
545.247
545.07
544.923
544.792
544.667
544.546
544.425
544.306
544.186
544.068
543.95
543.832
543.715
543.598
543.483
543.367
543.253
543.139
543.025
542.912
542.799
542.687
542.575
542.464
542.353
542.242
542.132
542.022
541.912
541.802
541.693
541.583
541.474
541.365
541.256
541.147
541.039
540.93
540.821
540.713
540.604
552.513
552.44
552.367
552.294
552.223
552.153
552.085
552.019
551.956
551.895
551.837
551.782
551.731
551.682
551.636
551.592
551.55
551.51
551.471
551.432
551.394
551.356
551.317
551.278
551.239
551.198
551.157
551.114
551.071
551.026
550.98
550.932
550.882
550.83
550.777
550.722
550.665
550.606
550.545
550.483
550.418
550.35
550.279
550.204
550.126
550.044
549.958
549.867
549.773
549.674
549.569
549.46
549.345
549.225
549.1
548.97
548.836
548.698
548.557
548.415
548.272
548.128
547.984
547.84
547.695
547.549
547.403
547.254
547.104
546.951
546.795
546.635
546.471
546.303
546.13
545.951
545.766
545.575
545.378
545.178
544.979
544.853
544.741
544.629
544.515
544.401
544.285
544.169
544.053
543.936
543.82
543.705
543.589
543.474
543.36
543.246
543.132
543.019
542.907
542.794
542.683
542.571
542.46
542.35
542.239
542.129
542.019
541.91
541.8
541.691
541.582
541.473
541.364
541.255
541.147
541.038
540.929
540.821
540.713
540.604
552.515
552.445
552.376
552.307
552.238
552.171
552.106
552.042
551.981
551.922
551.865
551.812
551.761
551.713
551.667
551.624
551.582
551.542
551.502
551.463
551.425
551.386
551.346
551.306
551.265
551.223
551.18
551.135
551.089
551.041
550.992
550.941
550.888
550.832
550.775
550.716
550.656
550.594
550.531
550.466
550.398
550.329
550.256
550.18
550.101
550.018
549.931
549.84
549.745
549.646
549.542
549.433
549.319
549.2
549.076
548.947
548.815
548.679
548.54
548.399
548.256
548.113
547.97
547.826
547.681
547.534
547.387
547.237
547.085
546.931
546.774
546.613
546.448
546.279
546.103
545.921
545.731
545.532
545.321
545.092
544.816
544.771
544.688
544.591
544.486
544.377
544.265
544.152
544.038
543.923
543.808
543.694
543.579
543.465
543.352
543.238
543.125
543.013
542.901
542.789
542.678
542.567
542.456
542.346
542.236
542.126
542.017
541.907
541.798
541.689
541.58
541.471
541.363
541.254
541.146
541.037
540.929
540.821
540.712
540.604
552.517
552.45
552.384
552.319
552.253
552.189
552.127
552.065
552.006
551.949
551.894
551.842
551.792
551.745
551.7
551.657
551.615
551.574
551.535
551.495
551.456
551.416
551.375
551.334
551.291
551.247
551.202
551.154
551.106
551.055
551.002
550.948
550.89
550.831
550.77
550.707
550.643
550.578
550.511
550.443
550.374
550.302
550.227
550.15
550.07
549.986
549.899
549.807
549.712
549.613
549.509
549.4
549.288
549.17
549.048
548.921
548.79
548.656
548.519
548.379
548.238
548.096
547.953
547.808
547.663
547.516
547.367
547.217
547.064
546.908
546.75
546.589
546.424
546.253
546.076
545.892
545.699
545.496
545.279
545.043
544.777
544.726
544.651
544.561
544.461
544.356
544.247
544.135
544.023
543.91
543.796
543.682
543.569
543.456
543.343
543.23
543.118
543.006
542.895
542.784
542.673
542.562
542.452
542.342
542.232
542.123
542.014
541.905
541.796
541.687
541.578
541.47
541.361
541.253
541.145
541.036
540.928
540.82
540.712
540.604
552.519
552.456
552.393
552.33
552.269
552.207
552.147
552.088
552.031
551.976
551.923
551.872
551.823
551.777
551.732
551.689
551.648
551.607
551.567
551.527
551.487
551.446
551.404
551.361
551.316
551.27
551.222
551.172
551.12
551.067
551.01
550.952
550.891
550.827
550.762
550.695
550.628
550.559
550.489
550.418
550.345
550.271
550.195
550.116
550.034
549.949
549.861
549.769
549.674
549.575
549.472
549.364
549.252
549.136
549.015
548.89
548.762
548.629
548.494
548.356
548.216
548.075
547.932
547.788
547.642
547.494
547.345
547.193
547.039
546.883
546.724
546.562
546.397
546.226
546.05
545.865
545.672
545.467
545.25
545.017
544.763
544.704
544.629
544.54
544.442
544.338
544.23
544.12
544.008
543.896
543.784
543.671
543.558
543.446
543.334
543.222
543.11
542.999
542.888
542.778
542.667
542.557
542.448
542.338
542.229
542.12
542.011
541.902
541.793
541.685
541.576
541.468
541.36
541.252
541.144
541.036
540.928
540.82
540.712
540.604
552.52
552.46
552.401
552.342
552.283
552.225
552.167
552.111
552.055
552.002
551.951
551.901
551.853
551.808
551.763
551.721
551.68
551.639
551.598
551.558
551.517
551.475
551.432
551.387
551.34
551.292
551.241
551.188
551.133
551.076
551.016
550.953
550.888
550.821
550.751
550.681
550.61
550.537
550.464
550.39
550.315
550.238
550.159
550.078
549.995
549.909
549.819
549.727
549.631
549.532
549.43
549.324
549.213
549.098
548.98
548.857
548.73
548.6
548.466
548.33
548.191
548.051
547.908
547.764
547.618
547.469
547.319
547.166
547.011
546.853
546.694
546.533
546.368
546.199
546.023
545.841
545.649
545.448
545.234
545.007
544.761
544.699
544.619
544.527
544.428
544.323
544.215
544.106
543.995
543.883
543.771
543.659
543.548
543.436
543.324
543.213
543.102
542.992
542.881
542.771
542.662
542.552
542.443
542.334
542.225
542.116
542.007
541.899
541.791
541.683
541.574
541.466
541.358
541.25
541.143
541.035
540.927
540.819
540.712
540.604
552.522
552.465
552.409
552.352
552.296
552.241
552.186
552.131
552.078
552.027
551.977
551.928
551.882
551.837
551.793
551.751
551.71
551.669
551.628
551.587
551.545
551.502
551.457
551.411
551.362
551.312
551.258
551.203
551.144
551.083
551.019
550.953
550.883
550.812
550.739
550.664
550.59
550.514
550.438
550.361
550.282
550.203
550.122
550.039
549.954
549.866
549.776
549.683
549.588
549.489
549.386
549.281
549.172
549.058
548.941
548.82
548.696
548.568
548.436
548.301
548.164
548.024
547.882
547.737
547.59
547.441
547.289
547.135
546.979
546.821
546.662
546.501
546.338
546.171
545.998
545.819
545.633
545.438
545.233
545.017
544.781
544.712
544.622
544.523
544.419
544.312
544.203
544.093
543.982
543.87
543.759
543.648
543.536
543.425
543.315
543.204
543.094
542.984
542.874
542.765
542.656
542.547
542.438
542.329
542.221
542.112
542.004
541.896
541.788
541.68
541.572
541.465
541.357
541.249
541.142
541.034
540.926
540.819
540.711
540.604
552.523
552.469
552.416
552.362
552.309
552.255
552.203
552.151
552.099
552.05
552.001
551.954
551.908
551.864
551.821
551.78
551.738
551.697
551.656
551.614
551.571
551.527
551.481
551.433
551.382
551.329
551.273
551.214
551.153
551.088
551.02
550.95
550.876
550.801
550.724
550.646
550.568
550.489
550.41
550.33
550.249
550.167
550.084
549.999
549.912
549.823
549.731
549.638
549.542
549.443
549.341
549.236
549.128
549.017
548.901
548.782
548.66
548.533
548.404
548.27
548.134
547.995
547.853
547.708
547.56
547.41
547.257
547.102
546.945
546.787
546.628
546.469
546.307
546.142
545.973
545.798
545.618
545.431
545.24
545.048
544.871
544.746
544.633
544.523
544.413
544.302
544.191
544.08
543.969
543.858
543.746
543.636
543.525
543.415
543.304
543.195
543.085
542.976
542.867
542.758
542.649
542.541
542.433
542.324
542.216
542.109
542.001
541.893
541.785
541.678
541.57
541.463
541.355
541.248
541.14
541.033
540.926
540.818
540.711
540.604
552.524
552.473
552.422
552.371
552.32
552.269
552.218
552.168
552.119
552.07
552.023
551.977
551.933
551.889
551.847
551.805
551.764
551.723
551.681
551.639
551.595
551.55
551.503
551.453
551.4
551.344
551.286
551.224
551.159
551.091
551.02
550.945
550.868
550.789
550.709
550.627
550.545
550.463
550.381
550.298
550.214
550.13
550.045
549.958
549.869
549.779
549.686
549.592
549.496
549.397
549.296
549.192
549.085
548.974
548.861
548.743
548.622
548.498
548.37
548.238
548.102
547.963
547.821
547.676
547.527
547.376
547.222
547.066
546.909
546.752
546.594
546.435
546.275
546.112
545.946
545.777
545.602
545.425
545.245
545.07
544.908
544.768
544.642
544.522
544.407
544.293
544.18
544.067
543.956
543.845
543.734
543.623
543.513
543.403
543.294
543.185
543.076
542.968
542.859
542.751
542.643
542.535
542.427
542.32
542.212
542.105
541.997
541.89
541.782
541.675
541.568
541.461
541.354
541.246
541.139
541.032
540.925
540.818
540.711
540.604
552.526
552.477
552.428
552.379
552.33
552.28
552.231
552.183
552.135
552.088
552.043
551.998
551.954
551.912
551.87
551.828
551.787
551.746
551.704
551.661
551.617
551.571
551.522
551.47
551.416
551.358
551.296
551.232
551.164
551.092
551.018
550.94
550.86
550.777
550.693
550.609
550.523
550.438
550.352
550.266
550.18
550.093
550.006
549.917
549.827
549.735
549.642
549.547
549.451
549.352
549.251
549.147
549.041
548.932
548.82
548.704
548.585
548.462
548.335
548.204
548.069
547.93
547.788
547.642
547.492
547.34
547.186
547.03
546.873
546.715
546.558
546.4
546.241
546.081
545.919
545.753
545.585
545.415
545.245
545.08
544.925
544.778
544.644
544.519
544.399
544.282
544.167
544.054
543.942
543.831
543.72
543.61
543.501
543.392
543.283
543.175
543.067
542.959
542.851
542.744
542.636
542.529
542.422
542.315
542.208
542.101
541.994
541.887
541.78
541.673
541.566
541.459
541.352
541.245
541.138
541.031
540.924
540.817
540.71
540.603
552.527
552.48
552.432
552.385
552.338
552.29
552.243
552.196
552.15
552.104
552.059
552.016
551.973
551.931
551.889
551.849
551.808
551.766
551.724
551.681
551.636
551.589
551.539
551.485
551.429
551.369
551.305
551.237
551.167
551.092
551.015
550.934
550.851
550.766
550.679
550.591
550.503
550.414
550.325
550.236
550.147
550.058
549.968
549.878
549.786
549.694
549.6
549.504
549.407
549.308
549.207
549.104
548.999
548.891
548.78
548.666
548.548
548.426
548.3
548.169
548.034
547.895
547.752
547.605
547.455
547.302
547.148
546.992
546.835
546.678
546.521
546.364
546.206
546.048
545.889
545.728
545.565
545.401
545.238
545.078
544.922
544.774
544.637
544.509
544.387
544.269
544.153
544.04
543.928
543.817
543.707
543.597
543.488
543.38
543.272
543.165
543.057
542.95
542.843
542.736
542.63
542.523
542.416
542.31
542.203
542.096
541.99
541.883
541.777
541.67
541.563
541.457
541.35
541.243
541.137
541.03
540.923
540.817
540.71
540.603
552.527
552.482
552.436
552.39
552.344
552.298
552.252
552.206
552.161
552.117
552.074
552.031
551.989
551.947
551.907
551.866
551.826
551.784
551.742
551.699
551.653
551.605
551.553
551.499
551.44
551.378
551.312
551.242
551.168
551.091
551.011
550.928
550.843
550.755
550.666
550.576
550.485
550.393
550.302
550.21
550.118
550.027
549.935
549.842
549.749
549.655
549.56
549.464
549.366
549.267
549.167
549.064
548.959
548.852
548.742
548.629
548.512
548.39
548.265
548.134
547.998
547.858
547.714
547.566
547.415
547.262
547.108
546.952
546.796
546.64
546.483
546.326
546.17
546.013
545.856
545.699
545.541
545.382
545.223
545.065
544.909
544.76
544.622
544.494
544.372
544.253
544.137
544.024
543.912
543.801
543.692
543.583
543.475
543.368
543.261
543.154
543.047
542.941
542.835
542.729
542.623
542.517
542.411
542.305
542.198
542.092
541.986
541.88
541.774
541.667
541.561
541.455
541.348
541.242
541.136
541.029
540.923
540.816
540.71
540.603
552.528
552.483
552.438
552.393
552.348
552.303
552.259
552.215
552.171
552.128
552.085
552.043
552.002
551.961
551.921
551.881
551.841
551.8
551.758
551.714
551.668
551.619
551.567
551.51
551.45
551.386
551.318
551.245
551.169
551.09
551.008
550.923
550.836
550.746
550.655
550.563
550.47
550.376
550.282
550.188
550.094
550
549.906
549.811
549.716
549.621
549.525
549.428
549.33
549.231
549.13
549.028
548.923
548.816
548.707
548.594
548.477
548.356
548.23
548.099
547.962
547.821
547.675
547.525
547.374
547.22
547.066
546.912
546.756
546.6
546.444
546.287
546.131
545.976
545.821
545.666
545.511
545.356
545.201
545.045
544.887
544.733
544.598
544.473
544.352
544.234
544.119
544.006
543.895
543.785
543.676
543.568
543.461
543.355
543.249
543.143
543.037
542.932
542.827
542.721
542.616
542.511
542.405
542.3
542.194
542.088
541.983
541.877
541.771
541.665
541.559
541.453
541.347
541.241
541.134
541.028
540.922
540.816
540.709
540.603
552.528
552.484
552.439
552.395
552.351
552.307
552.263
552.22
552.178
552.135
552.094
552.053
552.012
551.972
551.933
551.893
551.854
551.813
551.771
551.727
551.681
551.631
551.578
551.52
551.459
551.393
551.323
551.249
551.172
551.091
551.007
550.92
550.832
550.741
550.648
550.554
550.459
550.364
550.268
550.172
550.076
549.981
549.884
549.788
549.691
549.594
549.496
549.398
549.299
549.199
549.098
548.996
548.891
548.784
548.674
548.561
548.444
548.322
548.195
548.063
547.924
547.781
547.634
547.483
547.33
547.176
547.023
546.869
546.714
546.559
546.403
546.247
546.092
545.937
545.784
545.63
545.478
545.325
545.171
545.014
544.852
544.688
544.565
544.446
544.329
544.213
544.099
543.987
543.876
543.767
543.66
543.553
543.447
543.342
543.237
543.132
543.027
542.923
542.818
542.714
542.609
542.504
542.4
542.295
542.19
542.084
541.979
541.874
541.768
541.662
541.557
541.451
541.345
541.239
541.133
541.027
540.921
540.815
540.709
540.603
552.528
552.484
552.439
552.395
552.352
552.309
552.266
552.224
552.182
552.141
552.1
552.06
552.02
551.981
551.942
551.903
551.864
551.824
551.783
551.739
551.692
551.642
551.587
551.528
551.464
551.397
551.327
551.253
551.175
551.093
551.008
550.921
550.831
550.739
550.645
550.55
550.454
550.358
550.261
550.164
550.067
549.97
549.872
549.774
549.676
549.576
549.477
549.377
549.277
549.175
549.073
548.97
548.864
548.756
548.644
548.53
548.411
548.288
548.159
548.024
547.884
547.739
547.589
547.437
547.284
547.13
546.977
546.825
546.671
546.516
546.361
546.206
546.052
545.898
545.746
545.594
545.443
545.292
545.139
544.982
544.81
544.601
544.525
544.418
544.304
544.19
544.077
543.965
543.856
543.748
543.642
543.537
543.432
543.328
543.224
543.121
543.017
542.914
542.81
542.706
542.602
542.498
542.394
542.29
542.185
542.08
541.976
541.871
541.765
541.66
541.555
541.449
541.344
541.238
541.132
541.026
540.921
540.815
540.709
540.603
552.528
552.483
552.439
552.395
552.351
552.308
552.266
552.225
552.184
552.143
552.103
552.064
552.025
551.987
551.948
551.911
551.872
551.833
551.792
551.748
551.7
551.649
551.592
551.532
551.467
551.399
551.328
551.254
551.176
551.095
551.01
550.923
550.833
550.741
550.647
550.552
550.456
550.359
550.262
550.165
550.068
549.97
549.871
549.772
549.671
549.57
549.468
549.366
549.264
549.161
549.056
548.949
548.841
548.73
548.616
548.499
548.378
548.251
548.12
547.982
547.839
547.692
547.54
547.387
547.234
547.081
546.929
546.777
546.624
546.471
546.318
546.165
546.013
545.861
545.71
545.56
545.41
545.26
545.109
544.956
544.797
544.637
544.513
544.395
544.279
544.164
544.052
543.942
543.834
543.728
543.623
543.519
543.416
543.314
543.211
543.109
543.007
542.904
542.802
542.699
542.596
542.492
542.389
542.285
542.181
542.077
541.972
541.868
541.763
541.658
541.553
541.447
541.342
541.237
541.131
541.026
540.92
540.814
540.709
540.603
552.527
552.482
552.437
552.392
552.349
552.306
552.264
552.223
552.183
552.144
552.104
552.066
552.027
551.989
551.952
551.915
551.878
551.839
551.798
551.754
551.705
551.651
551.594
551.532
551.467
551.399
551.329
551.256
551.179
551.098
551.015
550.929
550.84
550.749
550.656
550.561
550.465
550.369
550.272
550.175
550.078
549.98
549.881
549.78
549.678
549.575
549.471
549.367
549.262
549.156
549.048
548.937
548.823
548.707
548.589
548.467
548.341
548.21
548.075
547.934
547.788
547.638
547.486
547.333
547.179
547.027
546.875
546.724
546.573
546.422
546.272
546.123
545.975
545.827
545.681
545.533
545.385
545.235
545.085
544.935
544.783
544.633
544.497
544.371
544.252
544.136
544.025
543.916
543.81
543.706
543.603
543.502
543.4
543.299
543.199
543.098
542.997
542.895
542.794
542.692
542.589
542.487
542.384
542.281
542.177
542.073
541.969
541.865
541.76
541.656
541.551
541.446
541.341
541.236
541.13
541.025
540.919
540.814
540.708
540.603
552.526
552.479
552.433
552.388
552.344
552.301
552.26
552.219
552.18
552.141
552.102
552.064
552.027
551.989
551.953
551.917
551.881
551.843
551.801
551.755
551.705
551.65
551.591
551.53
551.465
551.399
551.33
551.258
551.183
551.105
551.023
550.94
550.854
550.765
550.674
550.581
550.486
550.389
550.291
550.193
550.094
549.996
549.897
549.796
549.693
549.589
549.484
549.379
549.272
549.162
549.049
548.933
548.812
548.688
548.561
548.432
548.3
548.164
548.023
547.878
547.729
547.578
547.425
547.272
547.121
546.967
546.813
546.663
546.512
546.362
546.215
546.073
545.932
545.794
545.656
545.517
545.372
545.225
545.074
544.922
544.771
544.618
544.469
544.341
544.22
544.104
543.994
543.888
543.785
543.683
543.583
543.483
543.384
543.285
543.186
543.086
542.987
542.887
542.786
542.685
542.583
542.481
542.379
542.276
542.173
542.07
541.966
541.862
541.758
541.654
541.549
541.444
541.339
541.234
541.129
541.024
540.919
540.813
540.708
540.603
552.525
552.476
552.428
552.381
552.337
552.293
552.252
552.212
552.173
552.135
552.097
552.06
552.024
551.988
551.953
551.918
551.883
551.844
551.801
551.752
551.7
551.645
551.587
551.526
551.464
551.4
551.334
551.265
551.192
551.117
551.039
550.959
550.878
550.794
550.708
550.618
550.524
550.425
550.322
550.217
550.112
550.01
549.91
549.809
549.706
549.603
549.501
549.398
549.291
549.179
549.061
548.938
548.809
548.674
548.536
548.397
548.256
548.114
547.966
547.814
547.663
547.511
547.358
547.211
547.067
546.907
546.742
546.588
546.435
546.279
546.129
545.993
545.862
545.75
545.632
545.518
545.379
545.244
545.091
544.931
544.769
544.603
544.421
544.304
544.181
544.067
543.96
543.857
543.757
543.658
543.561
543.464
543.367
543.271
543.173
543.076
542.977
542.878
542.779
542.679
542.578
542.477
542.375
542.273
542.17
542.067
541.964
541.86
541.756
541.652
541.548
541.443
541.338
541.233
541.129
541.023
540.918
540.813
540.708
540.603
552.524
552.471
552.421
552.372
552.326
552.282
552.24
552.199
552.16
552.123
552.086
552.052
552.018
551.986
551.954
551.922
551.888
551.848
551.8
551.747
551.692
551.637
551.581
551.524
551.465
551.406
551.345
551.281
551.211
551.138
551.064
550.988
550.914
550.84
550.762
550.68
550.589
550.487
550.375
550.253
550.13
550.016
549.912
549.809
549.704
549.606
549.511
549.416
549.312
549.199
549.078
548.951
548.818
548.676
548.526
548.373
548.222
548.077
547.914
547.751
547.599
547.448
547.293
547.159
547.044
546.859
546.66
546.506
546.347
546.162
545.996
545.847
545.711
545.683
545.602
545.575
545.435
545.343
545.173
544.99
544.799
544.608
544.43
544.27
544.133
544.022
543.92
543.823
543.727
543.633
543.539
543.445
543.351
543.257
543.161
543.065
542.968
542.871
542.772
542.673
542.573
542.472
542.371
542.269
542.167
542.064
541.961
541.858
541.754
541.65
541.546
541.442
541.337
541.233
541.128
541.023
540.918
540.813
540.708
540.603
552.521
552.465
552.411
552.361
552.312
552.266
552.221
552.178
552.138
552.101
552.069
552.04
552.014
551.986
551.959
551.931
551.902
551.864
551.803
551.738
551.676
551.621
551.573
551.523
551.472
551.421
551.37
551.314
551.246
551.175
551.101
551.026
550.959
550.897
550.836
550.769
550.686
550.584
550.467
550.324
550.166
550.019
549.903
549.785
549.669
549.582
549.506
549.427
549.326
549.204
549.075
548.953
548.832
548.697
548.552
548.388
548.225
548.097
547.902
547.721
547.574
547.413
547.272
547.159
547.024
546.833
546.624
546.411
546.179
546.012
545.858
545.573
545.451
545.6
545.616
545.826
545.672
545.694
545.356
545.138
544.866
544.567
544.378
544.179
544.059
543.97
543.877
543.786
543.696
543.606
543.516
543.426
543.335
543.243
543.15
543.056
542.96
542.864
542.766
542.668
542.568
542.468
542.367
542.266
542.164
542.062
541.959
541.856
541.753
541.649
541.545
541.441
541.336
541.232
541.127
541.022
540.918
540.813
540.708
540.603
552.518
552.457
552.4
552.346
552.294
552.242
552.19
552.142
552.099
552.066
552.045
552.032
552.018
551.997
551.971
551.948
551.935
551.914
551.818
551.722
551.642
551.592
551.562
551.526
551.486
551.449
551.418
551.381
551.312
551.244
551.166
551.076
551.005
550.949
550.904
550.86
550.784
550.698
550.615
550.471
550.269
550.066
549.938
549.736
549.587
549.538
549.493
549.398
549.299
549.167
548.984
548.88
548.778
548.687
548.599
548.471
548.339
548.153
547.927
547.784
547.626
547.449
547.32
547.217
547.024
546.78
546.58
546.416
546.106
545.944
545.831
545.586
545.498
545.58
545.581
545.686
545.573
545.498
545.295
545.089
544.846
544.599
544.37
544.048
543.995
543.919
543.831
543.748
543.664
543.58
543.494
543.408
543.32
543.231
543.14
543.048
542.953
542.858
542.761
542.663
542.565
542.465
542.365
542.264
542.162
542.06
541.958
541.855
541.751
541.648
541.544
541.44
541.336
541.231
541.127
541.022
540.917
540.812
540.707
540.602
552.515
552.448
552.387
552.33
552.269
552.205
552.142
552.081
552.032
552.015
552.031
552.041
552.049
552.027
551.99
551.961
551.984
552.052
551.854
551.694
551.577
551.551
551.575
551.553
551.528
551.493
551.484
551.493
551.413
551.367
551.292
551.179
551.075
550.976
550.918
550.87
550.802
550.769
550.749
550.683
550.53
550.266
550.103
549.712
549.489
549.471
549.436
549.309
549.252
549.113
548.745
548.643
548.53
548.559
548.629
548.651
548.671
548.347
548.006
547.915
547.643
547.397
547.284
547.106
546.885
546.757
546.511
546.377
546.178
545.973
545.859
545.726
545.667
545.628
545.561
545.547
545.449
545.353
545.213
545.049
544.85
544.607
544.283
544.024
543.964
543.859
543.782
543.709
543.634
543.554
543.473
543.391
543.307
543.221
543.132
543.041
542.948
542.853
542.757
542.66
542.562
542.462
542.362
542.262
542.16
542.059
541.956
541.854
541.75
541.647
541.543
541.439
541.335
541.231
541.126
541.022
540.917
540.812
540.707
540.602
552.51
552.437
552.374
552.311
552.231
552.147
552.068
551.986
551.928
551.98
552.111
552.082
552.101
552.075
552.023
551.949
551.982
552.325
551.859
551.629
551.456
551.577
551.736
551.698
551.71
551.56
551.495
551.605
551.481
551.564
551.592
551.322
551.207
551.038
550.791
550.71
550.643
550.687
550.762
550.865
550.782
550.471
550.569
549.934
549.628
549.423
549.37
549.379
549.161
548.992
548.589
548.394
548.306
548.385
548.52
548.522
548.559
548.261
547.97
547.801
547.54
547.315
547.155
546.99
546.809
546.698
546.514
546.351
546.206
546.047
545.933
545.833
545.747
545.665
545.562
545.469
545.363
545.264
545.153
545.001
544.798
544.368
544.075
543.972
543.911
543.827
543.733
543.674
543.608
543.53
543.452
543.376
543.296
543.213
543.126
543.036
542.944
542.85
542.755
542.658
542.56
542.461
542.361
542.26
542.159
542.058
541.955
541.853
541.75
541.646
541.543
541.439
541.335