/*--------------------------------*- C++ -*----------------------------------*\
  =========                 |
  \\      /  F ield         | OpenFOAM: The Open Source CFD Toolbox
   \\    /   O peration     | Website:  https://openfoam.org
    \\  /    A nd           | Version:  6
     \\/     M anipulation  |
\*---------------------------------------------------------------------------*/
FoamFile
{
    version     2.0;
    format      ascii;
    class       surfaceScalarField;
    location    "800";
    object      phi;
}
// * * * * * * * * * * * * * * * * * * * * * * * * * * * * * * * * * * * * * //

dimensions      [0 3 -1 0 0 0 0];

internalField   nonuniform List<scalar> 
9440
(
1.58906e-11
-1.58906e-11
1.33811e-10
-1.17919e-10
2.07762e-10
-7.39508e-11
2.55387e-10
-4.76237e-11
2.8028e-10
-2.48931e-11
2.91101e-10
-1.08202e-11
3.08893e-10
-1.77925e-11
3.26518e-10
-1.76254e-11
3.25394e-10
1.12416e-12
3.10949e-10
1.44435e-11
2.732e-10
3.77487e-11
2.23788e-10
4.94108e-11
1.79323e-10
4.44635e-11
1.60515e-10
1.88071e-11
1.56532e-10
3.98099e-12
1.33944e-10
2.25866e-11
1.29999e-10
3.94392e-12
1.27416e-10
2.58203e-12
1.53435e-10
-2.60196e-11
1.52534e-10
9.00796e-13
1.68431e-10
-1.58971e-11
1.82805e-10
-1.43732e-11
2.25809e-10
-4.30041e-11
2.57262e-10
-3.14521e-11
3.40909e-10
-8.3646e-11
4.09089e-10
-6.81791e-11
3.6263e-10
4.64591e-11
4.51168e-10
-8.85379e-11
6.1049e-10
-1.59321e-10
6.67451e-10
-5.69611e-11
7.94131e-10
-1.2668e-10
8.82062e-10
-8.79305e-11
9.21476e-10
-3.94137e-11
9.61367e-10
-3.98905e-11
1.05367e-09
-9.23059e-11
1.00012e-09
5.35558e-11
1.14207e-09
-1.41953e-10
1.22079e-09
-7.87079e-11
1.2799e-09
-5.91113e-11
1.43321e-09
-1.53305e-10
1.43326e-09
-5.21467e-14
1.51377e-09
-8.05005e-11
1.67693e-09
-1.63165e-10
1.76159e-09
-8.46511e-11
1.82399e-09
-6.23959e-11
1.93967e-09
-1.15678e-10
2.02647e-09
-8.67973e-11
2.0667e-09
-4.02269e-11
2.12569e-09
-5.89947e-11
2.17322e-09
-4.75257e-11
2.32818e-09
-1.5496e-10
2.27508e-09
5.30936e-11
2.37177e-09
-9.66907e-11
2.43511e-09
-6.33416e-11
2.50031e-09
-6.52014e-11
2.54092e-09
-4.06073e-11
2.53354e-09
7.3773e-12
2.60334e-09
-6.97995e-11
2.64747e-09
-4.41351e-11
2.6311e-09
1.63757e-11
2.62287e-09
8.22523e-12
2.57625e-09
4.66217e-11
2.57859e-09
-2.33901e-12
2.46928e-09
1.09308e-10
2.44523e-09
2.40505e-11
2.29055e-09
1.54678e-10
2.2465e-09
4.40499e-11
2.05276e-09
1.93741e-10
2.03492e-09
1.78456e-11
1.80257e-09
2.32341e-10
1.78466e-09
1.79141e-11
1.53613e-09
2.48524e-10
1.48527e-09
5.08649e-11
1.26143e-09
2.2384e-10
1.16784e-09
9.3592e-11
8.9744e-10
2.70396e-10
6.17865e-10
2.79575e-10
1.08808e-10
5.09056e-10
-3.60739e-11
1.44882e-10
-3.93262e-11
3.25469e-12
-1.66777e-14
-3.92984e-11
-8.57905e-19
-8.81192e-19
-6.90248e-19
-1.67658e-19
-6.48727e-19
-3.82359e-20
-6.17644e-19
-3.23935e-20
-5.70162e-19
-4.95731e-20
-5.03464e-19
-6.83857e-20
-4.20533e-19
-8.42587e-20
-3.25438e-19
-9.62794e-20
-2.2223e-19
-1.04379e-19
-1.14685e-19
-1.08748e-19
-6.20173e-21
-1.09713e-19
1.00241e-19
-1.07671e-19
2.02115e-19
-1.03055e-19
2.97368e-19
-9.63176e-20
3.84399e-19
-8.79307e-20
4.61976e-19
-7.83489e-20
5.2921e-19
-6.79742e-20
5.85551e-19
-5.71506e-20
6.30765e-19
-4.61693e-20
6.64881e-19
-3.52648e-20
6.8818e-19
-2.4608e-20
7.01181e-19
-1.43203e-20
7.04578e-19
-4.50188e-21
6.99132e-19
4.74352e-21
6.85578e-19
1.33148e-20
6.64579e-19
2.11299e-20
6.36755e-19
2.81472e-20
6.02729e-19
3.43672e-20
5.6315e-19
3.98233e-20
5.18697e-19
4.45648e-20
4.70054e-19
4.86465e-20
4.17892e-19
5.21261e-20
3.62852e-19
5.5063e-20
3.05528e-19
5.75194e-20
2.46457e-19
5.95551e-20
1.86096e-19
6.12235e-20
1.24805e-19
6.25689e-20
6.28002e-20
6.36564e-20
6.47054e-20
1.27381e-10
-1.43271e-10
1.346e-10
-1.25136e-10
1.58836e-10
-9.81856e-11
1.61759e-10
-5.05457e-11
1.67063e-10
-3.01969e-11
1.89871e-10
-3.3629e-11
1.98405e-10
-2.63266e-11
2.00802e-10
-2.00233e-11
2.11571e-10
-9.64665e-12
2.13882e-10
1.21311e-11
2.09126e-10
4.25023e-11
1.83149e-10
7.53863e-11
1.24719e-10
1.02891e-10
6.04182e-11
8.31053e-11
2.48982e-11
3.9499e-11
1.98664e-11
2.76166e-11
4.17627e-11
-1.79537e-11
5.46511e-11
-1.03073e-11
8.88278e-11
-6.01967e-11
6.67459e-11
2.29827e-11
8.86157e-11
-3.77665e-11
1.01369e-10
-2.71259e-11
1.21419e-10
-6.30533e-11
1.62932e-10
-7.29633e-11
2.40207e-10
-1.6092e-10
2.98788e-10
-1.2676e-10
3.4508e-10
1.68184e-13
3.90938e-10
-1.34396e-10
5.05093e-10
-2.73475e-10
6.00087e-10
-1.51955e-10
6.83496e-10
-2.10089e-10
7.3608e-10
-1.40513e-10
8.0996e-10
-1.13292e-10
8.73743e-10
-1.03672e-10
9.45153e-10
-1.63714e-10
9.33794e-10
6.49186e-11
1.05032e-09
-2.58476e-10
1.09923e-09
-1.2761e-10
1.201e-09
-1.60877e-10
1.24159e-09
-1.93892e-10
1.35256e-09
-1.11015e-10
1.43829e-09
-1.66227e-10
1.50897e-09
-2.33837e-10
1.55199e-09
-1.2766e-10
1.60855e-09
-1.18952e-10
1.73714e-09
-2.44265e-10
1.79798e-09
-1.47636e-10
1.88066e-09
-1.22906e-10
2.00624e-09
-1.84574e-10
2.14105e-09
-1.82333e-10
2.22992e-09
-2.43831e-10
2.28636e-09
-3.3585e-12
2.2449e-09
-5.52301e-11
2.36951e-09
-1.87952e-10
2.40239e-09
-9.80864e-11
2.45282e-09
-9.10405e-11
2.50174e-09
-4.15461e-11
2.54509e-09
-1.13149e-10
2.5714e-09
-7.04433e-11
2.56608e-09
2.16996e-11
2.55066e-09
2.36383e-11
2.52612e-09
7.11667e-11
2.44928e-09
7.45002e-11
2.42168e-09
1.36913e-10
2.28847e-09
1.57262e-10
2.2505e-09
1.92639e-10
2.10367e-09
1.90886e-10
2.03816e-09
2.59251e-10
1.84248e-09
2.13523e-10
1.79529e-09
2.79524e-10
1.6353e-09
1.779e-10
1.56205e-09
3.21778e-10
1.36061e-09
2.52299e-10
1.2762e-09
3.08249e-10
1.08371e-09
2.86083e-10
9.97485e-10
3.5662e-10
7.34081e-10
5.4298e-10
7.83964e-10
4.59174e-10
6.68715e-10
2.60127e-10
3.29069e-10
3.42883e-10
1.56296e-16
2.89721e-10
-1.43579e-19
1.04865e-18
-5.6e-19
2.39527e-19
-6.42611e-19
4.08699e-20
-6.34824e-19
-4.19963e-20
-5.88975e-19
-9.7153e-20
-5.19337e-19
-1.39892e-19
-4.32554e-19
-1.72996e-19
-3.33537e-19
-1.97303e-19
-2.26599e-19
-2.13386e-19
-1.15649e-19
-2.21848e-19
-4.1603e-21
-2.23403e-19
1.04857e-19
-2.18877e-19
2.08852e-19
-2.0918e-19
3.05755e-19
-1.95272e-19
3.93981e-19
-1.78117e-19
4.72351e-19
-1.58623e-19
5.40033e-19
-1.37588e-19
5.96532e-19
-1.15679e-19
6.41669e-19
-9.34197e-20
6.75537e-19
-7.12201e-20
6.98468e-19
-4.9417e-20
7.10999e-19
-2.8327e-20
7.13823e-19
-8.26473e-21
7.07704e-19
1.04835e-20
6.93393e-19
2.77004e-20
6.71596e-19
4.32712e-20
6.42975e-19
5.71807e-20
6.08185e-19
6.94898e-20
5.67892e-19
8.03029e-20
5.22779e-19
8.97438e-20
4.73534e-19
9.79433e-20
4.20829e-19
1.0503e-19
3.65308e-19
1.11123e-19
3.07564e-19
1.16323e-19
2.48125e-19
1.20699e-19
1.87442e-19
1.24285e-19
1.25892e-19
1.27078e-19
6.38492e-20
1.29039e-19
1.30047e-19
5.75375e-11
-2.00807e-10
7.07615e-11
-1.3836e-10
6.80181e-11
-9.54418e-11
5.12699e-11
-3.37972e-11
3.05681e-11
-9.49523e-12
-1.24495e-11
9.38829e-12
-5.89999e-11
2.02232e-11
-8.13811e-11
2.35716e-12
-9.33445e-11
2.31572e-12
-1.12495e-10
3.12803e-11
-1.12743e-10
4.27487e-11
-1.04327e-10
6.69688e-11
-1.08752e-10
1.07315e-10
-1.05987e-10
8.03392e-11
-1.06193e-10
3.97039e-11
-1.00746e-10
2.2168e-11
-9.42525e-11
-2.44479e-11
-7.97495e-11
-2.4811e-11
-5.45403e-11
-8.54062e-11
1.60371e-11
-4.75948e-11
3.21235e-11
-5.38528e-11
4.59907e-11
-4.09927e-11
7.59193e-11
-9.29814e-11
1.25721e-10
-1.22765e-10
1.74513e-10
-2.09711e-10
2.23975e-10
-1.76221e-10
3.40169e-10
-1.16026e-10
3.93939e-10
-1.88165e-10
4.32226e-10
-3.11762e-10
5.41377e-10
-2.61105e-10
5.82663e-10
-2.51374e-10
6.07812e-10
-1.65662e-10
6.45175e-10
-1.50653e-10
7.45302e-10
-2.03797e-10
8.03647e-10
-2.22056e-10
9.16102e-10
-4.75336e-11
9.68418e-10
-3.10789e-10
9.88659e-10
-1.47847e-10
1.13561e-09
-3.0782e-10
1.14128e-09
-1.99559e-10
1.18365e-09
-1.53381e-10
1.22633e-09
-2.08898e-10
1.28624e-09
-2.9374e-10
1.3089e-09
-1.50316e-10
1.38334e-09
-1.93394e-10
1.53833e-09
-3.99253e-10
1.65232e-09
-2.61623e-10
1.73668e-09
-2.07267e-10
1.84624e-09
-2.94133e-10
2.00455e-09
-3.40637e-10
1.98123e-09
-2.20516e-10
2.09003e-09
-1.12159e-10
2.14061e-09
-1.05812e-10
2.13521e-09
-1.82556e-10
2.23112e-09
-1.93999e-10
2.28887e-09
-1.48791e-10
2.35526e-09
-1.07934e-10
2.35038e-09
-1.08272e-10
2.36473e-09
-8.47901e-11
2.35984e-09
2.65927e-11
2.34856e-09
3.49139e-11
2.35277e-09
6.69626e-11
2.2978e-09
1.29462e-10
2.26023e-09
1.74488e-10
2.18429e-09
2.33206e-10
2.09304e-09
2.83885e-10
1.98382e-09
3.001e-10
1.90294e-09
3.40128e-10
1.78412e-09
3.32351e-10
1.67534e-09
3.88297e-10
1.52666e-09
3.26583e-10
1.44331e-09
4.05119e-10
1.26567e-09
4.29937e-10
1.16896e-09
4.04956e-10
9.61991e-10
4.93054e-10
8.01608e-10
5.17002e-10
7.64134e-10
5.80453e-10
6.38399e-10
5.84911e-10
3.1713e-10
5.81406e-10
1.09445e-10
5.50591e-10
7.40861e-16
3.99176e-10
-9.51751e-19
-3.12583e-19
-7.57804e-19
4.46264e-20
-7.25242e-19
6.77062e-21
-6.8998e-19
-7.83578e-20
-6.31714e-19
-1.56437e-19
-5.52441e-19
-2.20336e-19
-4.56861e-19
-2.6998e-19
-3.4962e-19
-3.06194e-19
-2.35062e-19
-3.29867e-19
-1.17204e-19
-3.4195e-19
3.65622e-22
-3.43539e-19
1.14554e-19
-3.35898e-19
2.2276e-19
-3.20399e-19
3.2291e-19
-2.98484e-19
4.13475e-19
-2.71614e-19
4.93385e-19
-2.41184e-19
5.61943e-19
-2.08435e-19
6.18791e-19
-1.7442e-19
6.63869e-19
-1.40004e-19
6.9734e-19
-1.05878e-19
7.19558e-19
-7.26037e-20
7.31062e-19
-4.06523e-20
7.32571e-19
-1.04388e-20
7.24921e-19
1.76839e-20
7.08964e-19
4.34569e-20
6.85506e-19
6.67427e-20
6.55285e-19
8.75296e-20
6.18998e-19
1.05911e-19
5.77333e-19
1.22051e-19
5.30978e-19
1.3615e-19
4.8062e-19
1.4842e-19
4.26923e-19
1.5906e-19
3.70508e-19
1.68242e-19
3.11941e-19
1.76093e-19
2.51711e-19
1.82687e-19
1.90235e-19
1.88048e-19
1.27854e-19
1.92147e-19
6.48572e-20
1.94924e-19
1.96301e-19
1.06908e-12
-2.01876e-10
-2.94071e-11
-1.07883e-10
-7.94144e-11
-4.54346e-11
-1.47122e-10
3.39099e-11
-1.6497e-10
8.35261e-12
-1.54177e-10
-1.40503e-12
-1.46655e-10
1.27003e-11
-1.48589e-10
4.29037e-12
-1.55766e-10
9.49187e-12
-1.58557e-10
3.40704e-11
-1.79846e-10
6.40372e-11
-2.03017e-10
9.01391e-11
-2.25658e-10
1.29955e-10
-2.3823e-10
9.29111e-11
-2.5954e-10
6.10128e-11
-2.48352e-10
1.09793e-11
-2.36897e-10
-3.59037e-11
-1.86535e-10
-7.51732e-11
-1.75416e-10
-9.65255e-11
-1.11426e-10
-1.11585e-10
-6.184e-11
-1.03439e-10
-7.0023e-12
-9.58304e-11
3.54078e-11
-1.35391e-10
8.3366e-11
-1.70723e-10
1.09781e-10
-2.36126e-10
1.70655e-10
-2.37094e-10
2.74214e-10
-2.19585e-10
3.67762e-10
-2.81712e-10
3.5484e-10
-2.9884e-10
4.1069e-10
-3.16955e-10
4.31724e-10
-2.72407e-10
5.05863e-10
-2.398e-10
5.23281e-10
-1.6807e-10
5.9575e-10
-2.76265e-10
6.47598e-10
-2.73902e-10
7.8326e-10
-1.83193e-10
7.58423e-10
-2.85948e-10
8.09463e-10
-1.98883e-10
8.41527e-10
-3.39879e-10
8.82585e-10
-2.40611e-10
9.36425e-10
-2.07216e-10
9.93277e-10
-2.65745e-10
9.97472e-10
-2.97931e-10
1.10581e-09
-2.58654e-10
1.21173e-09
-2.99309e-10
1.30216e-09
-4.89678e-10
1.39251e-09
-3.51968e-10
1.52469e-09
-3.39452e-10
1.62788e-09
-3.97323e-10
1.72785e-09
-4.40604e-10
1.83461e-09
-3.27276e-10
1.92358e-09
-2.01129e-10
1.99017e-09
-1.72407e-10
1.96564e-09
-1.5803e-10
1.98593e-09
-2.1429e-10
2.01588e-09
-1.78739e-10
2.0468e-09
-1.38857e-10
2.08282e-09
-1.44292e-10
2.10839e-09
-1.10356e-10
2.13571e-09
-7.25292e-13
2.13217e-09
3.84494e-11
2.13399e-09
6.51441e-11
2.11013e-09
1.53322e-10
2.06666e-09
2.1796e-10
2.05209e-09
2.47773e-10
1.95838e-09
3.77598e-10
1.90415e-09
3.54328e-10
1.76778e-09
4.76491e-10
1.63397e-09
4.66165e-10
1.52563e-09
4.96637e-10
1.40562e-09
4.46593e-10
1.32141e-09
4.89321e-10
1.22875e-09
5.22593e-10
1.12074e-09
5.12964e-10
9.96665e-10
6.17128e-10
9.04156e-10
6.09509e-10
7.72257e-10
7.12347e-10
6.10346e-10
7.46814e-10
4.33085e-10
7.58658e-10
2.99337e-10
6.84339e-10
3.93205e-16
6.98514e-10
-5.93694e-19
8.0072e-19
-7.94826e-19
2.4606e-19
-8.10204e-19
2.15005e-20
-7.68059e-19
-1.21243e-19
-6.95613e-19
-2.29669e-19
-6.02085e-19
-3.14854e-19
-4.93075e-19
-3.80308e-19
-3.73293e-19
-4.27665e-19
-2.47144e-19
-4.58117e-19
-1.18793e-19
-4.72885e-19
8.00676e-21
-4.73418e-19
1.30053e-19
-4.6143e-19
2.44675e-19
-4.38797e-19
3.49779e-19
-4.07474e-19
4.43905e-19
-3.69443e-19
5.26134e-19
-3.26635e-19
5.95958e-19
-2.80815e-19
6.53208e-19
-2.33511e-19
6.97994e-19
-1.85986e-19
7.30615e-19
-1.39234e-19
7.51509e-19
-9.40193e-20
7.61275e-19
-5.09283e-20
7.60694e-19
-1.04298e-20
7.50694e-19
2.71045e-20
7.3225e-19
6.14119e-20
7.06293e-19
9.23623e-20
6.73666e-19
1.19967e-19
6.35138e-19
1.44366e-19
5.91432e-19
1.65785e-19
5.43248e-19
1.84502e-19
4.9126e-19
2.008e-19
4.36104e-19
2.1494e-19
3.78359e-19
2.27135e-19
3.18535e-19
2.37538e-19
2.57071e-19
2.46234e-19
1.94334e-19
2.53245e-19
1.30631e-19
2.58545e-19
6.62338e-20
2.62085e-19
2.63819e-19
-7.32769e-11
-1.28599e-10
-1.44615e-10
-3.65459e-11
-1.89153e-10
-8.97718e-13
-1.94012e-10
3.87689e-11
-1.97553e-10
1.18927e-11
-1.88862e-10
-1.00968e-11
-1.86429e-10
1.02664e-11
-2.04183e-10
2.20441e-11
-2.25852e-10
3.11599e-11
-2.5079e-10
5.90083e-11
-3.05308e-10
1.18555e-10
-3.68332e-10
1.53163e-10
-4.07794e-10
1.69416e-10
-4.17841e-10
1.02959e-10
-3.91645e-10
3.48163e-11
-3.3034e-10
-5.03259e-11
-2.6025e-10
-1.05994e-10
-2.11629e-10
-1.23795e-10
-1.61635e-10
-1.46521e-10
-9.30781e-11
-1.80142e-10
-5.8936e-11
-1.37581e-10
-9.99285e-12
-1.44774e-10
3.32541e-11
-1.78638e-10
6.17549e-11
-1.99223e-10
8.66758e-11
-2.61047e-10
1.35966e-10
-2.86384e-10
1.84305e-10
-2.67924e-10
2.14699e-10
-3.12106e-10
2.55136e-10
-3.39277e-10
2.79582e-10
-3.41401e-10
3.02949e-10
-2.95773e-10
3.4209e-10
-2.7894e-10
3.91285e-10
-2.17264e-10
4.10832e-10
-2.95811e-10
4.5085e-10
-3.13917e-10
5.45807e-10
-2.78147e-10
5.66752e-10
-3.0689e-10
6.49802e-10
-2.81928e-10
6.37311e-10
-3.27383e-10
6.0054e-10
-2.03835e-10
6.67185e-10
-2.73856e-10
7.22457e-10
-3.21012e-10
7.59193e-10
-3.34663e-10
8.42751e-10
-3.4221e-10
9.59805e-10
-4.1636e-10
1.07296e-09
-6.02828e-10
1.2254e-09
-5.04409e-10
1.35322e-09
-4.67268e-10
1.51772e-09
-5.61826e-10
1.63481e-09
-5.57698e-10
1.64735e-09
-3.39812e-10
1.72104e-09
-2.74816e-10
1.78604e-09
-2.3741e-10
1.8228e-09
-1.94788e-10
1.84156e-09
-2.33056e-10
1.86245e-09
-1.99628e-10
1.87451e-09
-1.50911e-10
1.92819e-09
-1.97971e-10
1.90847e-09
-9.06436e-11
1.93024e-09
-2.24887e-11
1.93224e-09
3.64453e-11
1.92792e-09
6.94652e-11
1.9146e-09
1.66647e-10
1.90098e-09
2.31581e-10
1.86173e-09
2.87013e-10
1.83333e-09
4.06002e-10
1.78006e-09
4.07599e-10
1.71146e-09
5.4509e-10
1.58811e-09
5.89509e-10
1.58598e-09
4.98769e-10
1.35028e-09
6.8229e-10
1.2147e-09
6.24899e-10
1.12326e-09
6.14023e-10
9.04024e-10
7.32201e-10
7.24865e-10
7.96285e-10
5.93109e-10
7.41263e-10
4.78264e-10
8.27191e-10
3.6036e-10
8.64717e-10
2.51281e-10
8.67732e-10
8.06757e-11
8.54942e-10
7.12587e-16
7.79188e-10
-1.14743e-18
1.24033e-19
-1.01855e-18
1.17387e-19
-9.52874e-19
-4.49197e-20
-8.76486e-19
-1.9852e-19
-7.80798e-19
-3.26308e-19
-6.67539e-19
-4.29218e-19
-5.40431e-19
-5.08795e-19
-4.03746e-19
-5.66038e-19
-2.61911e-19
-6.01963e-19
-1.19326e-19
-6.17913e-19
1.99944e-20
-6.15682e-19
1.52686e-19
-5.97492e-19
2.75999e-19
-5.65809e-19
3.87809e-19
-5.23184e-19
4.86713e-19
-4.72182e-19
5.71955e-19
-4.15305e-19
6.43262e-19
-3.54876e-19
7.00733e-19
-2.9294e-19
7.44745e-19
-2.31189e-19
7.7583e-19
-1.70937e-19
7.946e-19
-1.13151e-19
8.01774e-19
-5.85118e-20
7.98228e-19
-7.50491e-21
7.85001e-19
3.95272e-20
7.632e-19
8.23683e-20
7.33898e-19
1.20939e-19
6.98064e-19
1.55304e-19
6.56557e-19
1.8566e-19
6.10149e-19
2.12298e-19
5.59546e-19
2.3556e-19
5.054e-19
2.55794e-19
4.483e-19
2.73315e-19
3.88762e-19
2.88378e-19
3.27231e-19
3.01168e-19
2.64082e-19
3.1179e-19
1.99634e-19
3.20288e-19
1.34171e-19
3.26656e-19
6.79678e-20
3.30871e-19
3.32914e-19
-7.00507e-11
-5.85487e-11
-1.44191e-10
3.75933e-11
-2.04311e-10
5.92208e-11
-2.08085e-10
4.2542e-11
-2.10007e-10
1.38133e-11
-2.07438e-10
-1.26664e-11
-2.11755e-10
1.45826e-11
-2.47017e-10
5.73052e-11
-3.11083e-10
9.52258e-11
-4.08749e-10
1.56675e-10
-4.90598e-10
2.00403e-10
-5.48115e-10
2.10681e-10
-5.53523e-10
1.74824e-10
-4.86127e-10
3.55622e-11
-4.05704e-10
-4.56058e-11
-3.42842e-10
-1.13189e-10
-2.95926e-10
-1.5291e-10
-2.53551e-10
-1.6617e-10
-2.10799e-10
-1.89273e-10
-1.79714e-10
-2.11227e-10
-1.56026e-10
-1.61269e-10
-1.24161e-10
-1.7664e-10
-1.19581e-10
-1.83218e-10
-1.14623e-10
-2.04182e-10
-1.17114e-10
-2.58556e-10
-9.083e-11
-3.12668e-10
1.82134e-12
-3.60575e-10
7.50317e-11
-3.85316e-10
1.305e-10
-3.94745e-10
1.74747e-10
-3.85647e-10
1.98099e-10
-3.19124e-10
1.90293e-10
-2.71134e-10
2.68388e-10
-2.95357e-10
2.87028e-10
-3.1445e-10
3.12022e-10
-3.38909e-10
3.487e-10
-3.14822e-10
3.66753e-10
-3.24939e-10
3.99376e-10
-3.14547e-10
4.44031e-10
-3.72033e-10
5.08829e-10
-2.68628e-10
5.19237e-10
-2.8426e-10
4.98736e-10
-3.00507e-10
5.16027e-10
-3.5195e-10
6.07087e-10
-4.33267e-10
7.84624e-10
-5.93895e-10
9.35484e-10
-7.53687e-10
1.14051e-09
-7.09439e-10
1.2545e-09
-5.81255e-10
1.30573e-09
-6.13056e-10
1.3812e-09
-6.33161e-10
1.47726e-09
-4.35867e-10
1.59357e-09
-3.91126e-10
1.66538e-09
-3.09222e-10
1.71961e-09
-2.49015e-10
1.7193e-09
-2.32751e-10
1.73666e-09
-2.16987e-10
1.74776e-09
-1.62009e-10
1.75217e-09
-2.0238e-10
1.7692e-09
-1.0767e-10
1.77115e-09
-2.44405e-11
1.78553e-09
2.20709e-11
1.77685e-09
7.81445e-11
1.76589e-09
1.77605e-10
1.75291e-09
2.44556e-10
1.70608e-09
3.33846e-10
1.67768e-09
4.34401e-10
1.58354e-09
5.01734e-10
1.56429e-09
5.64335e-10
1.50924e-09
6.44557e-10
1.39445e-09
6.13555e-10
1.23211e-09
8.44631e-10
1.07521e-09
7.81802e-10
9.50069e-10
7.39157e-10
7.71858e-10
9.10409e-10
6.45527e-10
9.22611e-10
4.98926e-10
8.87861e-10
3.76802e-10
9.49312e-10
3.03626e-10
9.37891e-10
2.84659e-10
8.86696e-10
1.81051e-10
9.58548e-10
1.27674e-15
9.60235e-10
-1.15321e-18
7.17826e-19
-1.18012e-18
1.44192e-19
-1.10647e-18
-1.20025e-19
-1.00427e-18
-3.02226e-19
-8.83708e-19
-4.48351e-19
-7.47117e-19
-5.67251e-19
-5.97674e-19
-6.59753e-19
-4.3967e-19
-7.25631e-19
-2.77862e-19
-7.6539e-19
-1.17095e-19
-7.80461e-19
3.81845e-20
-7.73077e-19
1.8437e-19
-7.46119e-19
3.18624e-19
-7.02808e-19
4.38811e-19
-6.46434e-19
5.43591e-19
-5.80227e-19
6.32383e-19
-5.07289e-19
7.05198e-19
-4.30505e-19
7.62485e-19
-3.52431e-19
8.04997e-19
-2.75193e-19
8.33617e-19
-2.00437e-19
8.49239e-19
-1.29326e-19
8.5278e-19
-6.26239e-20
8.4526e-19
-8.00762e-22
8.27842e-19
5.58744e-20
8.01771e-19
1.07282e-19
7.68263e-19
1.53436e-19
7.2842e-19
1.94485e-19
6.83195e-19
2.30696e-19
6.33411e-19
2.62428e-19
5.7978e-19
2.90086e-19
5.22921e-19
3.14077e-19
4.63363e-19
3.34769e-19
4.01551e-19
3.5247e-19
3.37854e-19
3.67405e-19
2.7258e-19
3.79723e-19
2.06002e-19
3.89503e-19
1.38386e-19
3.96779e-19
7.00113e-20
4.01559e-19
4.03859e-19
-9.86091e-11
4.00595e-11
-1.44781e-10
8.37635e-11
-1.69265e-10
8.37036e-11
-1.73783e-10
4.70586e-11
-1.85979e-10
2.60083e-11
-2.06797e-10
8.15034e-12
-2.32753e-10
4.05383e-11
-2.89821e-10
1.14373e-10
-3.78111e-10
1.83515e-10
-4.59941e-10
2.38505e-10
-5.39157e-10
2.7962e-10
-5.91632e-10
2.63156e-10
-5.95597e-10
1.7879e-10
-5.76138e-10
1.6103e-11
-5.47335e-10
-7.44085e-11
-5.58806e-10
-1.01718e-10
-5.71886e-10
-1.39829e-10
-5.65531e-10
-1.72525e-10
-5.60637e-10
-1.94168e-10
-5.43179e-10
-2.28685e-10
-5.14995e-10
-1.89454e-10
-4.89673e-10
-2.01963e-10
-4.51211e-10
-2.21681e-10
-4.2688e-10
-2.28513e-10
-3.74564e-10
-3.10872e-10
-3.64405e-10
-3.22827e-10
-3.34082e-10
-3.90898e-10
-3.06988e-10
-4.1241e-10
-2.59468e-10
-4.42264e-10
-1.91193e-10
-4.53921e-10
-8.20286e-11
-4.28288e-10
4.2722e-11
-3.95883e-10
1.24597e-10
-3.7723e-10
1.7486e-10
-3.64711e-10
2.14941e-10
-3.78987e-10
2.56527e-10
-3.56406e-10
2.73599e-10
-3.42008e-10
3.07386e-10
-3.48331e-10
2.7192e-10
-3.36563e-10
2.89601e-10
-2.86305e-10
2.61433e-10
-2.56089e-10
2.63025e-10
-3.02095e-10
3.40317e-10
-4.29239e-10
5.21104e-10
-6.14052e-10
7.2188e-10
-7.9467e-10
8.53589e-10
-8.85395e-10
9.80437e-10
-8.36286e-10
1.16909e-09
-7.69907e-10
1.23945e-09
-6.8341e-10
1.31168e-09
-7.05398e-10
1.41595e-09
-5.40127e-10
1.55106e-09
-5.26238e-10
1.56062e-09
-3.18778e-10
1.59474e-09
-2.83136e-10
1.62625e-09
-2.64258e-10
1.62159e-09
-2.12328e-10
1.64421e-09
-1.84626e-10
1.61803e-09
-1.76197e-10
1.60671e-09
-9.63525e-11
1.59591e-09
-1.36341e-11
1.61008e-09
7.89222e-12
1.58596e-09
1.0227e-10
1.58899e-09
1.74576e-10
1.5559e-09
2.77644e-10
1.52705e-09
3.62695e-10
1.55349e-09
4.07959e-10
1.49093e-09
5.64291e-10
1.39455e-09
6.60721e-10
1.23883e-09
8.00278e-10
1.07155e-09
7.80832e-10
1.05746e-09
8.5872e-10
8.55032e-10
9.84223e-10
7.22527e-10
8.7166e-10
6.62912e-10
9.70023e-10
5.50137e-10
1.03538e-09
4.01932e-10
1.03606e-09
2.45514e-10
1.10573e-09
6.73789e-11
1.11602e-09
-5.08012e-11
1.00487e-09
-4.43716e-11
9.52115e-10
1.61782e-15
9.15858e-10
-1.72596e-18
-2.85277e-19
-1.44377e-18
-1.386e-19
-1.28867e-18
-2.77427e-19
-1.1504e-18
-4.42811e-19
-1.00261e-18
-5.98375e-19
-8.39619e-19
-7.32235e-19
-6.63552e-19
-8.37625e-19
-4.79429e-19
-9.11354e-19
-2.92933e-19
-9.53145e-19
-1.09711e-19
-9.64705e-19
6.51424e-20
-9.48999e-19
2.27681e-19
-9.09848e-19
3.74997e-19
-8.51488e-19
5.05018e-19
-7.78163e-19
6.16529e-19
-6.93908e-19
7.09167e-19
-6.02471e-19
7.83272e-19
-5.07279e-19
8.39722e-19
-4.11357e-19
8.79754e-19
-3.17232e-19
9.04728e-19
-2.26851e-19
9.15941e-19
-1.41567e-19
9.14604e-19
-6.22069e-20
9.01936e-19
1.08017e-20
8.7925e-19
7.72996e-20
8.47925e-19
1.37306e-19
8.09312e-19
1.9097e-19
7.64631e-19
2.38556e-19
7.14927e-19
2.80428e-19
6.61069e-19
3.1702e-19
6.03771e-19
3.48808e-19
5.43614e-19
3.76262e-19
4.81063e-19
3.99816e-19
4.16486e-19
4.19836e-19
3.50172e-19
4.36609e-19
2.82361e-19
4.50341e-19
2.13278e-19
4.61164e-19
1.43166e-19
4.69162e-19
7.23103e-20
4.74387e-19
4.76886e-19
-8.45289e-11
1.24587e-10
-1.31773e-10
1.31006e-10
-1.38468e-10
9.03971e-11
-1.13102e-10
2.16908e-11
-1.26111e-10
3.90165e-11
-1.37801e-10
1.984e-11
-2.28554e-10
1.31291e-10
-3.49391e-10
2.3521e-10
-4.96141e-10
3.30264e-10
-5.84134e-10
3.26497e-10
-6.17682e-10
3.13167e-10
-6.22918e-10
2.68393e-10
-6.38996e-10
1.94867e-10
-6.91375e-10
6.84826e-11
-6.88118e-10
-7.7665e-11
-7.20368e-10
-6.94684e-11
-7.27509e-10
-1.32688e-10
-7.2285e-10
-1.77184e-10
-6.92747e-10
-2.24272e-10
-6.32109e-10
-2.89323e-10
-6.06124e-10
-2.1544e-10
-5.75021e-10
-2.33066e-10
-5.30992e-10
-2.6571e-10
-4.8813e-10
-2.71376e-10
-4.69247e-10
-3.29755e-10
-4.31138e-10
-3.60936e-10
-4.05972e-10
-4.16063e-10
-3.98246e-10
-4.20136e-10
-3.56829e-10
-4.83681e-10
-3.55361e-10
-4.55387e-10
-3.39805e-10
-4.43842e-10
-2.86126e-10
-4.49561e-10
-1.97654e-10
-4.65701e-10
-1.17152e-10
-4.45211e-10
-1.95236e-11
-4.76613e-10
8.01032e-11
-4.56031e-10
1.64453e-10
-4.26356e-10
2.26452e-10
-4.10328e-10
2.27744e-10
-3.37851e-10
2.12924e-10
-2.71483e-10
1.73083e-10
-2.16245e-10
1.72092e-10
-3.01101e-10
2.68991e-10
-5.26135e-10
4.80605e-10
-8.25665e-10
6.30481e-10
-9.44545e-10
7.79884e-10
-1.0348e-09
8.87712e-10
-9.44114e-10
1.02205e-09
-9.04239e-10
1.06665e-09
-7.28011e-10
1.10634e-09
-7.45083e-10
1.17985e-09
-6.1364e-10
1.2442e-09
-5.90581e-10
1.32466e-09
-3.99239e-10
1.37923e-09
-3.37698e-10
1.43326e-09
-3.18293e-10
1.43163e-09
-2.1069e-10
1.44022e-09
-1.93214e-10
1.42827e-09
-1.64248e-10
1.40398e-09
-7.20629e-11
1.43251e-09
-4.21623e-11
1.43791e-09
2.48748e-12
1.41561e-09
1.24578e-10
1.41594e-09
1.74245e-10
1.39682e-09
2.96757e-10
1.39273e-09
3.66792e-10
1.31716e-09
4.83526e-10
1.2998e-09
5.81648e-10
1.23441e-09
7.26113e-10
1.22924e-09
8.05448e-10
1.11222e-09
8.97845e-10
1.02845e-09
9.42495e-10
8.85729e-10
1.12694e-09
7.08924e-10
1.04846e-09
5.76384e-10
1.10256e-09
4.65877e-10
1.14589e-09
3.30046e-10
1.17189e-09
1.46196e-10
1.28957e-09
-1.53092e-10
1.41531e-09
-3.77403e-10
1.22918e-09
-2.73306e-10
8.48014e-10
1.59008e-15
6.42546e-10
-1.57851e-18
1.06084e-18
-1.58226e-18
-1.36092e-19
-1.45405e-18
-4.08588e-19
-1.30596e-18
-5.93915e-19
-1.13647e-18
-7.70875e-19
-9.4501e-19
-9.26374e-19
-7.37281e-19
-1.04767e-18
-5.2122e-19
-1.12936e-18
-3.04493e-19
-1.17121e-18
-9.40054e-20
-1.17592e-18
1.04293e-19
-1.14775e-18
2.86041e-19
-1.09192e-18
4.48322e-19
-1.01403e-18
5.89273e-19
-9.19556e-19
7.07965e-19
-8.1356e-19
8.0436e-19
-7.00529e-19
8.79194e-19
-5.84417e-19
9.33847e-19
-4.68649e-19
9.70134e-19
-3.56063e-19
9.90012e-19
-2.48841e-19
9.95301e-19
-1.48478e-19
9.87612e-19
-5.58353e-20
9.68433e-19
2.87271e-20
9.39256e-19
1.05194e-19
9.0159e-19
1.73764e-19
8.56899e-19
2.34766e-19
8.06502e-19
2.8862e-19
7.51519e-19
3.35814e-19
6.92856e-19
3.76887e-19
6.31225e-19
4.12399e-19
5.67167e-19
4.429e-19
5.01084e-19
4.689e-19
4.3326e-19
4.90841e-19
3.63903e-19
5.09082e-19
2.93184e-19
5.23901e-19
2.21275e-19
5.35497e-19
1.48392e-19
5.44014e-19
7.48087e-20
5.49551e-19
5.52189e-19
-3.93839e-11
1.6397e-10
-8.88592e-11
1.80479e-10
-1.16354e-10
1.1789e-10
-1.01068e-10
6.40406e-12
-8.07719e-11
1.87196e-11
-9.64397e-11
3.5507e-11
-1.72857e-10
2.07707e-10
-2.71183e-10
3.33535e-10
-3.86613e-10
4.45694e-10
-5.09829e-10
4.49713e-10
-6.0312e-10
4.06458e-10
-6.5735e-10
3.22623e-10
-7.09023e-10
2.4654e-10
-7.15394e-10
7.48537e-11
-7.83304e-10
-9.75483e-12
-8.07761e-10
-4.50115e-11
-7.91804e-10
-1.48645e-10
-7.74454e-10
-1.94533e-10
-7.24772e-10
-2.73954e-10
-6.65879e-10
-3.48216e-10
-6.31767e-10
-2.49553e-10
-5.82752e-10
-2.82082e-10
-5.41211e-10
-3.07252e-10
-5.09063e-10
-3.03524e-10
-5.07948e-10
-3.30871e-10
-4.76341e-10
-3.92543e-10
-4.57155e-10
-4.3525e-10
-4.30683e-10
-4.46607e-10
-3.97292e-10
-5.17071e-10
-3.9743e-10
-4.55248e-10
-3.70036e-10
-4.71234e-10
-3.38503e-10
-4.81092e-10
-2.94071e-10
-5.10131e-10
-2.55835e-10
-4.83445e-10
-1.87812e-10
-5.44633e-10
-1.37484e-10
-5.06357e-10
-4.13475e-11
-5.2249e-10
9.62259e-11
-5.47899e-10
1.51247e-10
-3.92871e-10
1.57395e-10
-2.77628e-10
1.41988e-10
-2.00836e-10
1.94222e-10
-3.53333e-10
3.32635e-10
-6.64546e-10
5.36147e-10
-1.02918e-09
6.75643e-10
-1.08404e-09
7.18908e-10
-1.07806e-09
7.36105e-10
-9.6131e-10
8.17318e-10
-9.8545e-10
9.00082e-10
-8.10772e-10
9.1088e-10
-7.55878e-10
1.01217e-09
-7.14931e-10
1.05052e-09
-6.28917e-10
1.10008e-09
-4.48805e-10
1.16006e-09
-3.97666e-10
1.1898e-09
-3.48033e-10
1.21767e-09
-2.38553e-10
1.22964e-09
-2.05188e-10
1.23265e-09
-1.67256e-10
1.25917e-09
-9.85788e-11
1.25861e-09
-4.16093e-11
1.25737e-09
3.73487e-12
1.27188e-09
1.10067e-10
1.23704e-09
2.0908e-10
1.18711e-09
3.46685e-10
1.22592e-09
3.27987e-10
1.18102e-09
5.28426e-10
1.10256e-09
6.60102e-10
9.3615e-10
8.92522e-10
9.10213e-10
8.31383e-10
8.36064e-10
9.71992e-10
7.59261e-10
1.0193e-09
6.90121e-10
1.19608e-09
5.9037e-10
1.14821e-09
4.29563e-10
1.26336e-09
2.4455e-10
1.3309e-09
8.27576e-11
1.33368e-09
-8.27299e-12
1.3806e-09
-1.45812e-10
1.55284e-09
-7.64105e-10
1.84747e-09
-5.63513e-10
6.47418e-10
7.8008e-16
7.90281e-11
-2.77471e-18
-4.29272e-18
-1.85463e-18
-1.05793e-18
-1.63938e-18
-6.27147e-19
-1.48292e-18
-7.53835e-19
-1.29197e-18
-9.65469e-19
-1.0663e-18
-1.15538e-18
-8.18976e-19
-1.29789e-18
-5.6307e-19
-1.38783e-18
-3.09199e-19
-1.42703e-18
-6.58394e-20
-1.42041e-18
1.60124e-19
-1.37436e-18
3.63937e-19
-1.29605e-18
5.42792e-19
-1.19286e-18
6.9527e-19
-1.07187e-18
8.20996e-19
-9.39399e-19
9.20471e-19
-8.00835e-19
9.94963e-19
-6.60688e-19
1.04643e-18
-5.22696e-19
1.07736e-18
-3.89883e-19
1.09037e-18
-2.64539e-19
1.08794e-18
-1.48205e-19
1.07217e-18
-4.17149e-20
1.0449e-18
5.46813e-20
1.00783e-18
1.41149e-19
9.62592e-19
2.18108e-19
9.10752e-19
2.86114e-19
8.53697e-19
3.45789e-19
7.92592e-19
3.97793e-19
7.28368e-19
4.42798e-19
6.61727e-19
4.81478e-19
5.93167e-19
5.14481e-19
5.23024e-19
5.42408e-19
4.51501e-19
5.65789e-19
3.78722e-19
5.85071e-19
3.04781e-19
6.0061e-19
2.29792e-19
6.12683e-19
1.53929e-19
6.21496e-19
7.74463e-20
6.27202e-19
6.29914e-19
-1.55382e-11
1.79507e-10
-4.2354e-11
2.07294e-10
-5.12711e-11
1.26806e-10
-6.01301e-11
1.52621e-11
-3.91283e-11
-2.28297e-12
-1.07573e-10
1.03951e-10
-2.08945e-10
3.09079e-10
-3.03564e-10
4.28153e-10
-3.71482e-10
5.13612e-10
-4.5464e-10
5.3287e-10
-5.5941e-10
5.11227e-10
-6.68615e-10
4.31828e-10
-7.61707e-10
3.39632e-10
-7.69268e-10
8.24156e-11
-8.36324e-10
5.73013e-11
-8.20313e-10
-6.10228e-11
-8.0244e-10
-1.66518e-10
-7.50916e-10
-2.46057e-10
-7.25404e-10
-2.99465e-10
-6.69694e-10
-4.03926e-10
-6.19178e-10
-3.00069e-10
-5.63602e-10
-3.37659e-10
-5.24859e-10
-3.45995e-10
-4.95481e-10
-3.32903e-10
-4.89055e-10
-3.37298e-10
-4.70946e-10
-4.10652e-10
-4.48687e-10
-4.57509e-10
-4.092e-10
-4.86094e-10
-3.8807e-10
-5.382e-10
-3.7651e-10
-4.66807e-10
-3.54871e-10
-4.92871e-10
-3.218e-10
-5.1416e-10
-2.83508e-10
-5.48421e-10
-2.19677e-10
-5.47273e-10
-1.4835e-10
-6.15959e-10
-5.5972e-11
-5.98733e-10
4.73693e-11
-6.2583e-10
1.0562e-10
-6.06148e-10
1.29363e-10
-4.16613e-10
1.57123e-10
-3.05386e-10
2.19549e-10
-2.63261e-10
3.25275e-10
-4.59057e-10
4.41781e-10
-7.81051e-10
5.38689e-10
-1.12608e-09
6.40728e-10
-1.18608e-09
6.87481e-10
-1.12481e-09
6.60693e-10
-9.3452e-10
5.97416e-10
-9.2217e-10
6.74453e-10
-8.87807e-10
7.35555e-10
-8.16977e-10
7.97178e-10
-7.7655e-10
8.50507e-10
-6.82243e-10
8.97893e-10
-4.96186e-10
9.63168e-10
-4.62938e-10
1.00401e-09
-3.88875e-10
1.05407e-09
-2.88612e-10
1.0699e-09
-2.21007e-10
1.09817e-09
-1.95532e-10
1.15315e-09
-1.53559e-10
1.13217e-09
-2.06239e-11
1.11677e-09
1.91379e-11
1.0949e-09
1.31937e-10
1.01043e-09
2.93542e-10
1.08534e-09
2.71776e-10
9.80605e-10
4.32723e-10
1.06041e-09
4.48621e-10
9.57567e-10
7.62943e-10
1.04289e-09
8.072e-10
9.73747e-10
9.00522e-10
7.59972e-10
1.18576e-09
5.69982e-10
1.20928e-09
5.10463e-10
1.25559e-09
3.29623e-10
1.32905e-09
2.84147e-10
1.30884e-09
2.59493e-10
1.35555e-09
1.08774e-10
1.4844e-09
-9.33161e-11
1.58269e-09
-3.66521e-10
1.82605e-09
-2.57072e-10
1.73802e-09
-7.90155e-11
4.69358e-10
9.12574e-18
1.0992e-14
4.60308e-19
4.37348e-18
-1.42385e-18
8.24288e-19
-1.76607e-18
-2.87708e-19
-1.69456e-18
-8.28546e-19
-1.48188e-18
-1.18187e-18
-1.20881e-18
-1.43205e-18
-9.08921e-19
-1.60092e-18
-6.02264e-19
-1.69747e-18
-3.02578e-19
-1.72933e-18
-1.97928e-20
-1.70505e-18
2.38436e-19
-1.63396e-18
4.67126e-19
-1.52576e-18
6.6378e-19
-1.39008e-18
8.27739e-19
-1.23591e-18
9.5956e-19
-1.07113e-18
1.06062e-18
-9.02182e-19
1.13295e-18
-7.34209e-19
1.17925e-18
-5.71206e-19
1.2027e-18
-4.16227e-19
1.20671e-18
-2.71487e-19
1.19443e-18
-1.38411e-19
1.16857e-18
-1.76882e-20
1.13137e-18
9.06162e-20
1.08478e-18
1.86903e-19
1.0306e-18
2.71861e-19
9.70428e-19
3.46321e-19
9.057e-19
4.11163e-19
8.37598e-19
4.67262e-19
7.67048e-19
5.15469e-19
6.9473e-19
5.56603e-19
6.21094e-19
5.91432e-19
5.46405e-19
6.20664e-19
4.70783e-19
6.44929e-19