/*--------------------------------*- C++ -*----------------------------------*\
  =========                 |
  \\      /  F ield         | OpenFOAM: The Open Source CFD Toolbox
   \\    /   O peration     | Website:  https://openfoam.org
    \\  /    A nd           | Version:  6
     \\/     M anipulation  |
\*---------------------------------------------------------------------------*/
FoamFile
{
    version     2.0;
    format      ascii;
    class       volScalarField;
    location    "800";
    object      Su;
}
// * * * * * * * * * * * * * * * * * * * * * * * * * * * * * * * * * * * * * //

dimensions      [0 0 -1 0 0 0 0];

internalField   nonuniform List<scalar> 
4800
(
0.219268
0.216622
0.213975
0.211323
0.208667
0.206009
0.203353
0.200701
0.198056
0.195419
0.192794
0.190184
0.187595
0.185033
0.182502
0.180004
0.177538
0.175105
0.1727
0.170322
0.167966
0.165631
0.163315
0.161016
0.158733
0.156462
0.154197
0.15194
0.149694
0.147453
0.145213
0.142971
0.140726
0.138478
0.136232
0.133987
0.131748
0.129521
0.127303
0.125099
0.122907
0.120731
0.118579
0.116449
0.114343
0.112262
0.110208
0.108175
0.106162
0.104167
0.102186
0.10021
0.0982331
0.0962558
0.0942717
0.0922736
0.0902536
0.088205
0.0861194
0.0839831
0.081784
0.0795101
0.0771489
0.0746855
0.072106
0.0693972
0.0665473
0.0635464
0.0603881
0.0570673
0.0535829
0.0499369
0.0461345
0.0421892
0.038115
0.033933
0.0296679
0.0253617
0.0210788
0.0168771
0.0127833
0.00881454
0.00498041
0.00127213
-0.00232298
-0.00581932
-0.00923131
-0.0125721
-0.0158531
-0.019084
-0.0222729
-0.0254263
-0.0285497
-0.0316475
-0.0347233
-0.0377803
-0.0408208
-0.0438471
-0.0468608
-0.0498635
-0.0528566
-0.0558411
-0.058818
-0.0617881
-0.0647523
-0.0677113
-0.0706655
-0.0736155
-0.0765619
-0.079505
-0.0824453
-0.0853831
-0.0883187
-0.0912525
-0.0941847
-0.0971157
-0.100046
-0.102975
-0.105903
-0.108831
0.219266
0.216612
0.213954
0.211292
0.208628
0.205964
0.203303
0.200646
0.197998
0.19536
0.192735
0.190127
0.187539
0.184978
0.182447
0.179951
0.177488
0.175057
0.172655
0.170277
0.167922
0.165586
0.163267
0.160965
0.158678
0.156401
0.154132
0.15187
0.149613
0.147362
0.14511
0.142856
0.1406
0.138343
0.136087
0.133833
0.131583
0.129344
0.127113
0.124895
0.122691
0.120503
0.118337
0.116194
0.114077
0.111988
0.109928
0.107892
0.105877
0.103882
0.1019
0.0999237
0.097945
0.095964
0.093978
0.0919788
0.0899596
0.0879114
0.0858263
0.0836923
0.0814964
0.0792271
0.0768702
0.074413
0.0718397
0.0691383
0.0662956
0.0633025
0.0601493
0.056835
0.0533564
0.0497175
0.0459209
0.0419816
0.0379155
0.0337472
0.0295057
0.0252342
0.0209762
0.0167668
0.0126511
0.00867254
0.00484583
0.00115105
-0.00242877
-0.00591012
-0.00930843
-0.0126373
-0.0159082
-0.0191306
-0.0223125
-0.0254601
-0.0285788
-0.0316726
-0.0347452
-0.0377994
-0.0408376
-0.0438618
-0.0468738
-0.0498751
-0.0528668
-0.0558502
-0.0588261
-0.0617954
-0.0647588
-0.067717
-0.0706705
-0.07362
-0.0765659
-0.0795085
-0.0824484
-0.0853857
-0.088321
-0.0912544
-0.0941863
-0.097117
-0.100047
-0.102975
-0.105904
-0.108832
0.219257
0.216588
0.213914
0.211239
0.208563
0.205889
0.203219
0.200554
0.197899
0.195256
0.192628
0.19002
0.187435
0.184878
0.182353
0.179861
0.177401
0.174973
0.172574
0.170199
0.167846
0.165508
0.163186
0.160878
0.158581
0.156294
0.154014
0.151739
0.149464
0.147191
0.144918
0.142641
0.140363
0.138086
0.13581
0.133539
0.131268
0.129004
0.126748
0.124505
0.122275
0.120061
0.11787
0.115706
0.11357
0.111465
0.109394
0.107349
0.105326
0.103325
0.101337
0.0993576
0.0973776
0.0953918
0.093401
0.0913999
0.0893802
0.0873318
0.0852479
0.0831184
0.080929
0.0786687
0.0763232
0.0738785
0.07132
0.0686333
0.0658053
0.0628269
0.0596881
0.0563857
0.0529169
0.049288
0.0455022
0.0415726
0.0375166
0.0333594
0.0291385
0.0248848
0.0206312
0.0164285
0.0123297
0.00837124
0.0045706
0.000907077
-0.00264011
-0.00609042
-0.00946095
-0.0127659
-0.0160166
-0.0192224
-0.0223905
-0.0255269
-0.0286362
-0.0317223
-0.0347884
-0.0378371
-0.0408707
-0.043891
-0.0468997
-0.049898
-0.0528872
-0.0558683
-0.0588422
-0.0618097
-0.0647715
-0.0677283
-0.0706806
-0.073629
-0.0765738
-0.0795155
-0.0824544
-0.085391
-0.0883255
-0.0912583
-0.0941895
-0.0971195
-0.100049
-0.102977
-0.105904
-0.108832
0.219247
0.216557
0.213867
0.211177
0.208491
0.20581
0.203135
0.200465
0.197803
0.195153
0.192519
0.189906
0.18732
0.184764
0.182241
0.179753
0.177298
0.174874
0.172477
0.170103
0.167749
0.165409
0.163082
0.160764
0.158453
0.156149
0.153851
0.151555
0.149255
0.146953
0.14465
0.142344
0.140036
0.137727
0.135421
0.133118
0.130814
0.128516
0.126224
0.123944
0.121679
0.119431
0.117206
0.115012
0.11285
0.11072
0.108629
0.106568
0.104531
0.102517
0.100522
0.0985379
0.0965539
0.0945637
0.092566
0.0905595
0.0885367
0.0864887
0.0844086
0.082286
0.0801063
0.0778579
0.0755282
0.0731015
0.0705639
0.0679003
0.0650954
0.0621392
0.0590197
0.0557352
0.0522829
0.0486679
0.0448972
0.040981
0.0369378
0.0327935
0.0285818
0.0243347
0.0200945
0.015912
0.0118351
0.0079048
0.00414973
0.000539027
-0.00295522
-0.00635685
-0.00968492
-0.012954
-0.016175
-0.0193564
-0.0225045
-0.0256245
-0.0287203
-0.0317951
-0.0348519
-0.0378927
-0.0409196
-0.0439342
-0.0469378
-0.0499319
-0.0529173
-0.0558951
-0.058866
-0.061831
-0.0647905
-0.0677452
-0.0706956
-0.0736422
-0.0765855
-0.0795258
-0.0824635
-0.0853989
-0.0883323
-0.091264
-0.0941942
-0.0971233
-0.100051
-0.102979
-0.105906
-0.108832
0.219237
0.216531
0.213827
0.211129
0.208438
0.205751
0.203069
0.200391
0.197719
0.195059
0.192416
0.189796
0.187206
0.18465
0.182132
0.17965
0.1772
0.174779
0.172382
0.170007
0.167649
0.165302
0.162965
0.160633
0.158304
0.155979
0.153655
0.151329
0.148999
0.146665
0.144325
0.141983
0.139637
0.137288
0.13494
0.132595
0.13025
0.12791
0.125575
0.12325
0.120938
0.118646
0.116378
0.114144
0.111945
0.109784
0.107666
0.105582
0.103525
0.101493
0.0994845
0.0974885
0.0954972
0.0935032
0.0915012
0.0894906
0.0874652
0.0854171
0.0833409
0.0812248
0.0790559
0.0768216
0.0745099
0.0721049
0.0695915
0.0669558
0.0641802
0.0612548
0.0581652
0.0549076
0.0514783
0.0478767
0.0441181
0.040211
0.0361716
0.0320282
0.0278158
0.0235691
0.0193351
0.0151688
0.0111287
0.00725604
0.00357627
4.70847e-05
-0.00336962
-0.00670301
-0.0099736
-0.0131954
-0.016378
-0.0195281
-0.0226509
-0.02575
-0.0288287
-0.0318894
-0.0349342
-0.037965
-0.0409832
-0.0439904
-0.0469877
-0.0499762
-0.0529567
-0.0559302
-0.0588974
-0.0618589
-0.0648154
-0.0677673
-0.0707153
-0.0736597
-0.076601
-0.0795394
-0.0824754
-0.0854092
-0.0883411
-0.0912715
-0.0942004
-0.0971283
-0.100055
-0.102982
-0.105907
-0.108833
0.219233
0.216518
0.213808
0.211106
0.208411
0.205719
0.203029
0.200342
0.197659
0.194986
0.192333
0.189706
0.187115
0.184562
0.182047
0.179566
0.177116
0.174693
0.172293
0.169913
0.167547
0.165191
0.162841
0.160492
0.158143
0.155792
0.15344
0.151083
0.148718
0.146346
0.143966
0.14158
0.13919
0.136795
0.134398
0.132003
0.129608
0.127217
0.124831
0.122457
0.120092
0.117744
0.115423
0.113137
0.110893
0.108691
0.106537
0.104421
0.102332
0.100273
0.0982452
0.0962351
0.0942348
0.0922347
0.0902284
0.0882143
0.0861874
0.0841394
0.0820678
0.0799597
0.0778025
0.0755843
0.0732924
0.070911
0.0684246
0.0658188
0.0630755
0.0601833
0.0571287
0.0539009
0.0505012
0.0469243
0.0431836
0.039294
0.0352667
0.0311247
0.026901
0.0226347
0.0183812
0.014211
0.0102002
0.00640757
0.0028445
-0.000564334
-0.00387374
-0.0071179
-0.0103166
-0.0134811
-0.016618
-0.0197316
-0.0228248
-0.0258998
-0.0289585
-0.0320026
-0.0350334
-0.0380523
-0.0410604
-0.0440588
-0.0470484
-0.0500302
-0.0530048
-0.0559731
-0.0589357
-0.0618931
-0.0648459
-0.0677945
-0.0707395
-0.0736812
-0.0766199
-0.0795561
-0.08249
-0.0854218
-0.088352
-0.0912807
-0.0942081
-0.0971344
-0.10006
-0.102985
-0.105909
-0.108833
0.219232
0.216518
0.21381
0.211109
0.208413
0.205718
0.203021
0.200324
0.197631
0.19495
0.192291
0.189662
0.187068
0.184513
0.181994
0.179508
0.177051
0.174623
0.172218
0.169833
0.16746
0.165096
0.162734
0.16037
0.158001
0.155625
0.153239
0.150843
0.148436
0.146018
0.143592
0.141159
0.138718
0.136271
0.133819
0.131368
0.128918
0.126471
0.124027
0.121591
0.119165
0.116754
0.114371
0.112027
0.109727
0.107472
0.105267
0.103106
0.100981
0.0988877
0.096832
0.0948004
0.0927865
0.0907762
0.0887648
0.0867485
0.0847212
0.0826756
0.0806089
0.0785094
0.0763648
0.0741643
0.0718935
0.0695376
0.0670808
0.0645087
0.0618037
0.0589478
0.0559283
0.052735
0.0493729
0.0458331
0.0421195
0.0382551
0.0342457
0.0301043
0.0258574
0.0215381
0.0172075
0.012972
0.00897022
0.00532318
0.0019514
-0.00128161
-0.00444909
-0.00758388
-0.0106991
-0.0137993
-0.016886
-0.0199597
-0.0230207
-0.0260694
-0.0291063
-0.0321321
-0.0351474
-0.038153
-0.0411496
-0.0441381
-0.047119
-0.0500931
-0.053061
-0.0560233
-0.0589805
-0.0619331
-0.0648816
-0.0678264
-0.0707678
-0.0737063
-0.0766422
-0.0795757
-0.0825071
-0.0854367
-0.0883648
-0.0912915
-0.0942171
-0.0971417
-0.100066
-0.102989
-0.105912
-0.108834
0.219236
0.21653
0.213829
0.211135
0.208443
0.205748
0.203048
0.200344
0.197644
0.194958
0.192297
0.189668
0.187073
0.184514
0.18199
0.1795
0.177041
0.174611
0.172204
0.169817
0.16744
0.165068
0.162695
0.160316
0.157926
0.155522
0.153103
0.150665
0.148211
0.145739
0.143252
0.140754
0.138249
0.135738
0.133223
0.130709
0.128198
0.12569
0.123186
0.120685
0.118192
0.115711
0.113256
0.11084
0.108471
0.10615
0.103882
0.101663
0.0994889
0.097352
0.0952586
0.0931974
0.0911649
0.089143
0.0871256
0.0851084
0.083082
0.0810416
0.0789826
0.076894
0.0747645
0.0725837
0.0703354
0.0680071
0.0655817
0.0630444
0.0603786
0.0575667
0.0545948
0.0514519
0.0481343
0.0446402
0.0409653
0.0371288
0.0331383
0.0290007
0.0247279
0.0203332
0.0158574
0.0114258
0.00730596
0.00395787
0.000913275
-0.00207019
-0.00506266
-0.00807478
-0.0111015
-0.0141357
-0.0171714
-0.0202047
-0.0232329
-0.0262544
-0.0292686
-0.0322751
-0.0352738
-0.0382651
-0.0412494
-0.0442269
-0.0471983
-0.050164
-0.0531244
-0.05608
-0.0590312
-0.0619784
-0.0649221
-0.0678625
-0.0708
-0.0737349
-0.0766675
-0.079598
-0.0825266
-0.0854537
-0.0883794
-0.0913038
-0.0942273
-0.0971499
-0.100072
-0.102993
-0.105914
-0.108835
0.219245
0.216553
0.213864
0.21118
0.208495
0.205806
0.203108
0.200406
0.197709
0.195025
0.192364
0.189735
0.187139
0.18458
0.182055
0.179564
0.177106
0.174677
0.172272
0.169883
0.167503
0.165125
0.162742
0.160348
0.157936
0.155504
0.15305
0.150571
0.148066
0.145536
0.142984
0.140416
0.137834
0.135244
0.132651
0.130059
0.127473
0.124895
0.122323
0.119754
0.11719
0.114634
0.112099
0.1096
0.10715
0.10475
0.102405
0.100114
0.0978803
0.0956933
0.0935557
0.0914609
0.0894029
0.087364
0.0853378
0.0833188
0.0812949
0.079261
0.0772121
0.0751365
0.0730231
0.070863
0.068639
0.0663383
0.0639456
0.0614489
0.0588261
0.0560591
0.0531331
0.0500433
0.0467776
0.0433381
0.0397173
0.0359267
0.0319698
0.0278501
0.0235689
0.0191099
0.0144332
0.00955362
0.00480561
0.00228446
-0.00019131
-0.0028549
-0.00566161
-0.00855602
-0.0115013
-0.014475
-0.0174636
-0.0204587
-0.0234553
-0.0264503
-0.0294418
-0.0324286
-0.0354104
-0.0383869
-0.041358
-0.0443241
-0.0472853
-0.0502418
-0.0531941
-0.0561424
-0.0590871
-0.0620285
-0.0649669
-0.0679025
-0.0708357
-0.0737666
-0.0766955
-0.0796227
-0.0825483
-0.0854725
-0.0883955
-0.0913175
-0.0942386
-0.097159
-0.100079
-0.102998
-0.105917
-0.108836
0.219255
0.216583
0.213912
0.211241
0.208567
0.205885
0.203194
0.200501
0.197814
0.195141
0.192489
0.189865
0.187273
0.184717
0.182196
0.179709
0.177256
0.174831
0.172427
0.170038
0.167656
0.165274
0.162883
0.160475
0.158043
0.155585
0.153096
0.150574
0.148018
0.145427
0.142805
0.140158
0.137492
0.134814
0.132131
0.12945
0.126777
0.124114
0.12146
0.118812
0.11617
0.113533
0.11091
0.108314
0.105769
0.103281
0.100855
0.0984845
0.0961798
0.0939359
0.0917487
0.089615
0.0875273
0.0854676
0.0834304
0.0814077
0.0793862
0.0773585
0.0753195
0.0732589
0.0711624
0.0690226
0.066824
0.0645523
0.0621953
0.0597385
0.057167
0.0544544
0.0515871
0.0485554
0.0453449
0.0419636
0.0384059
0.0346785
0.0307873
0.0267249
0.0224784
0.0180117
0.0132086
0.0075728
3.71545e-05
0.000563714
-0.00111216
-0.00350098
-0.00617748
-0.00899102
-0.0118771
-0.0148038
-0.0177532
-0.0207151
-0.023683
-0.026653
-0.0296226
-0.0325902
-0.035555
-0.0385163
-0.0414741
-0.0444282
-0.0473786
-0.0503256
-0.0532694
-0.05621
-0.0591477
-0.0620828
-0.0650155
-0.0679459
-0.0708744
-0.073801
-0.076726
-0.0796496
-0.0825718
-0.085493
-0.0884131
-0.0913324
-0.094251
-0.097169
-0.100086
-0.103004
-0.10592
-0.108837
0.219267
0.216618
0.213967
0.211314
0.208656
0.205987
0.20331
0.200632
0.197961
0.195304
0.192669
0.190061
0.187482
0.184935
0.18242
0.179941
0.177493
0.175071
0.17267
0.170282
0.1679
0.165517
0.16312
0.160702
0.158254
0.155772
0.153251
0.150686
0.148074
0.145417
0.142721
0.139989
0.137229
0.13445
0.131662
0.128876
0.126102
0.123343
0.120599
0.117864
0.115135
0.112408
0.109688
0.10699
0.10434
0.101753
0.0992382
0.0967924
0.0944147
0.0921066
0.0898646
0.0876858
0.0855633
0.0834791
0.0814272
0.0793985
0.0773777
0.0753542
0.0733231
0.0712769
0.0691987
0.067081
0.06491
0.0626684
0.0603502
0.0579327
0.055411
0.0527481
0.0499393
0.0469797
0.0438468
0.040543
0.0370656
0.0334187
0.0296077
0.025636
0.0215041
0.0172022
0.0127071
0.00800866
0.00339
0.00101633
-0.00132275
-0.00386341
-0.00656064
-0.00935781
-0.0122168
-0.0151139
-0.0180344
-0.0209692
-0.0239122
-0.0268594
-0.0298084
-0.0327574
-0.0357054
-0.0386517
-0.041596
-0.0445378
-0.0474773
-0.0504144
-0.0533492
-0.0562817
-0.0592122
-0.0621406
-0.0650673
-0.0679923
-0.0709157
-0.0738378
-0.0767586
-0.0796783
-0.082597
-0.0855149
-0.088432
-0.0913484
-0.0942642
-0.0971796
-0.100095
-0.103009
-0.105924
-0.108838
0.219278
0.216652
0.214026
0.211395
0.208756
0.206107
0.203452
0.200799
0.198155
0.195525
0.192913
0.190323
0.187761
0.185227
0.182723
0.180251
0.177807
0.175388
0.172988
0.170601
0.168221
0.165838
0.163439
0.161014
0.158553
0.156053
0.153503
0.150897
0.148231
0.145508
0.142732
0.139911
0.137048
0.134155
0.131245
0.128337
0.125443
0.122574
0.11973
0.1169
0.114076
0.111253
0.108435
0.105639
0.102887
0.100198
0.0975852
0.0950539
0.0926006
0.0902252
0.0879248
0.085696
0.0835325
0.0814197
0.0793478
0.0773091
0.0752869
0.0732674
0.071244
0.0692108
0.0671507
0.0650548
0.0629092
0.0606996
0.0584199
0.0560483
0.0535795
0.0509816
0.0482386
0.0453479
0.0422869
0.0390609
0.0356663
0.0321098
0.0284071
0.024572
0.0206151
0.0165442
0.0124
0.00828918
0.00446738
0.00143254
-0.00133532
-0.00407329
-0.00684802
-0.00966701
-0.0125224
-0.0154045
-0.0183053
-0.0212187
-0.0241403
-0.0270672
-0.029997
-0.0329284
-0.0358601
-0.0387916
-0.0417222
-0.0446518
-0.0475802
-0.0505071
-0.0534327
-0.0563569
-0.0592798
-0.0622014
-0.0651218
-0.068041
-0.0709593
-0.0738766
-0.076793
-0.0797087
-0.0826236
-0.085538
-0.0884518
-0.0913652
-0.0942782
-0.0971909
-0.100103
-0.103015
-0.105928
-0.10884
0.21929
0.21669
0.214089
0.211484
0.208869
0.206248
0.203627
0.201009
0.198398
0.195797
0.193212
0.190646
0.188104
0.185587
0.183095
0.180629
0.178189
0.175771
0.173369
0.170981
0.168602
0.166218
0.163817
0.161387
0.158918
0.156403
0.15383
0.151189
0.148476
0.145693
0.14284
0.139918
0.13694
0.133921
0.13088
0.127836
0.124809
0.121814
0.118855
0.11592
0.112993
0.11007
0.107156
0.104266
0.101421
0.0986359
0.0959232
0.0932984
0.0907633
0.0883153
0.0859517
0.083668
0.0814576
0.0793109
0.0772151
0.0751609
0.0731328
0.0711158
0.0690999
0.0670776
0.0650343
0.0629587
0.0608386
0.0586635
0.0564223
0.0540973
0.0516771
0.0491401
0.0464669
0.0436518
0.040674
0.037538
0.0342448
0.030808
0.0272386
0.023545
0.0197568
0.015909
0.0120535
0.00828768
0.00475428
0.00157754
-0.00138196
-0.00425057
-0.0070953
-0.00994395
-0.0128053
-0.0156803
-0.0185671
-0.0214633
-0.0243666
-0.027275
-0.030187
-0.0331015
-0.0360175
-0.0389344
-0.0418517
-0.044769
-0.0476861
-0.0506028
-0.0535191
-0.0564348
-0.0593499
-0.0622644
-0.0651783
-0.0680917
-0.0710045
-0.0739169
-0.0768288
-0.0797402
-0.0826513
-0.0855621
-0.0884725
-0.0913828
-0.0942928
-0.0972026
-0.100112
-0.103022
-0.105931
-0.108841
0.219305
0.216733
0.214162
0.211588
0.209008
0.206421
0.203834
0.201252
0.198677
0.196111
0.193556
0.191016
0.188495
0.185996
0.183518
0.18106
0.178622
0.176202
0.173798
0.171407
0.169025
0.166637
0.164233
0.161801
0.159326
0.156801
0.154211
0.151541
0.148788
0.145949
0.143018
0.139993
0.13689
0.133734
0.130553
0.127367
0.124198
0.121065
0.117977
0.114925
0.11189
0.108863
0.105851
0.102868
0.0999309
0.0970553
0.0942536
0.0915397
0.0889223
0.0864
0.083969
0.0816255
0.0793637
0.0771756
0.0750506
0.0729759
0.0709369
0.0689191
0.0669091
0.0648954
0.0628667
0.0608101
0.058716
0.056574
0.0543741
0.0520978
0.0497318
0.047255
0.044651
0.0419114
0.0390218
0.0359865
0.0328047
0.0294831
0.0260435
0.0225053
0.0188931
0.0152456
0.011611
0.0080608
0.00467969
0.00150028
-0.00152399
-0.00445602
-0.00734284
-0.0102122
-0.0130785
-0.015948
-0.0188232
-0.0217043
-0.0245909
-0.0274822
-0.0303773
-0.0332756
-0.0361764
-0.039079
-0.041983
-0.0448881
-0.0477941
-0.0507005
-0.0536074
-0.0565145
-0.0594217
-0.062329
-0.0652364
-0.0681438
-0.0710511
-0.0739583
-0.0768656
-0.0797727
-0.0826798
-0.0855869
-0.0884939
-0.0914008
-0.0943078
-0.0972147
-0.100122
-0.103028
-0.105935
-0.108842
0.219322
0.216784
0.214247
0.211707
0.209163
0.206615
0.204066
0.201523
0.198986
0.196456
0.193937
0.191428
0.188933
0.18645
0.183983
0.181528
0.179086
0.176657
0.174246
0.171845
0.169447
0.167043
0.164623
0.162176
0.159685
0.15714
0.154518
0.151808
0.149011
0.146118
0.143124
0.140027
0.136833
0.133559
0.130239
0.126909
0.123597
0.120323
0.1171
0.113924
0.110776
0.107646
0.104536
0.101461
0.0984366
0.0954766
0.0925934
0.0897976
0.0870977
0.0844977
0.0819976
0.0795923
0.0772765
0.0750419
0.072881
0.0707798
0.068723
0.0666978
0.0646902
0.0626834
0.0606659
0.0586259
0.0565557
0.0544457
0.0522845
0.0500522
0.0477359
0.0453204
0.0427913
0.0401332
0.0373353
0.0343968
0.0313248
0.0281282
0.0248266
0.0214413
0.017993
0.0145168
0.0110568
0.00766478
0.0043982
0.00126259
-0.00176293
-0.00471104
-0.00761196
-0.0104877
-0.0133522
-0.0162138
-0.0190766
-0.0219429
-0.0248134
-0.0276882
-0.0305672
-0.0334498
-0.0363356
-0.0392242
-0.0421152
-0.0450083
-0.0479031
-0.0507993
-0.0536967
-0.0565952
-0.0594946
-0.0623947
-0.0652954
-0.0681967
-0.0710984
-0.0740005
-0.076903
-0.0798058
-0.0827089
-0.0856121
-0.0885156
-0.0914193
-0.094323
-0.097227
-0.100131
-0.103035
-0.105939
-0.108843
0.219341
0.216843
0.214344
0.211842
0.209336
0.206828
0.20432
0.201816
0.199316
0.196821
0.194333
0.191851
0.189377
0.18691
0.18445
0.181995
0.179547
0.177106
0.174674
0.172244
0.169812
0.167372
0.164921
0.162447
0.15993
0.157353
0.154692
0.151936
0.149085
0.146133
0.143076
0.139914
0.136652
0.133296
0.129869
0.126414
0.122972
0.119569
0.116219
0.112921
0.109662
0.10643
0.103227
0.100067
0.0969609
0.0939193
0.0909568
0.0880856
0.085313
0.082641
0.0800689
0.0775946
0.0752174
0.0729309
0.0707265
0.0685911
0.0665114
0.0644741
0.062463
0.0604592
0.0584493
0.0564222
0.0543697
0.0522845
0.0501589
0.0479754
0.0457117
0.0433563
0.0408993
0.0383234
0.0356216
0.0327882
0.0298281
0.0267525
0.0235804
0.0203324
0.0170301
0.013706
0.0103956
0.00713966
0.00398062
0.000909589
-0.0020839
-0.00501757
-0.00791036
-0.0107782
-0.0136327
-0.0164816
-0.0193299
-0.0221804
-0.0250345
-0.027893
-0.0307558
-0.033623
-0.0364942
-0.0393691
-0.0422473
-0.0451284
-0.0480122
-0.0508983
-0.0537864
-0.0566763
-0.0595678
-0.0624607
-0.0653547
-0.0682499
-0.0711461
-0.074043
-0.0769408
-0.0798392
-0.0827381
-0.0856376
-0.0885375
-0.0914378
-0.0943385
-0.0972394
-0.10014
-0.103042
-0.105943
-0.108845
0.219365
0.216913
0.214458
0.211997
0.20953
0.20706
0.20459
0.202123
0.199657
0.197194
0.194733
0.192272
0.189812
0.187351
0.18489
0.182429
0.179967
0.177504
0.175036
0.172563
0.170085
0.167597
0.165097
0.162577
0.160017
0.15739
0.154677
0.15187
0.14896
0.145948
0.142833
0.139611
0.136288
0.132872
0.129373
0.125826
0.122282
0.118776
0.115321
0.11192
0.108561
0.105235
0.101945
0.0987022
0.0955172
0.092399
0.0893618
0.0864173
0.0835706
0.080827
0.0781879
0.0756507
0.0732119
0.0708684
0.0686162
0.0664415
0.0643304
0.0622686
0.0602445
0.0582364
0.0562309
0.054215
0.0521786
0.0501142
0.048018
0.0458768
0.0436655
0.0413716
0.0389841
0.0364905
0.033884
0.0311571
0.0283104
0.0253551
0.0223102
0.0191955
0.016031
0.012843
0.0096601
0.00652367
0.00347022
0.00047412
-0.00246911
-0.00536912
-0.00823766
-0.0110857
-0.0139221
-0.0167535
-0.0195843
-0.0224173
-0.0252542
-0.0280959
-0.0309426
-0.0337945
-0.0366512
-0.0395126
-0.0423782
-0.0452476
-0.0481205
-0.0509966
-0.0538755
-0.0567569
-0.0596406
-0.0625264
-0.0654139
-0.068303
-0.0711936
-0.0740854
-0.0769784
-0.0798724
-0.0827673
-0.085663
-0.0885594
-0.0914564
-0.0943538
-0.0972517
-0.10015
-0.103049
-0.105947
-0.108846
0.219393
0.216993
0.214585
0.212167
0.209739
0.207307
0.204873
0.202438
0.200001
0.197562
0.195119
0.192672
0.190218
0.187756
0.185288
0.182811
0.180322
0.177823
0.175308
0.172777
0.170234
0.167685
0.165124
0.162534
0.1599
0.157204
0.154431
0.151564
0.148595
0.145525
0.142357
0.139086
0.135717
0.132255
0.12871
0.125111
0.121508
0.117936
0.114404
0.110921
0.10748
0.104074
0.100704
0.0973826
0.0941213
0.0909302
0.0878236
0.0848105
0.0818945
0.0790791
0.076366
0.0737567
0.0712537
0.0688523
0.0665445
0.064322
0.0621796
0.0600976
0.0580582
0.0560404
0.0540338
0.0520241
0.0499998
0.0479521
0.0458813
0.0437751
0.0416101
0.0393772
0.0370563
0.0346408
0.0321278
0.0295082
0.0267765
0.0239415
0.0210209
0.0180352
0.0150032
0.011944
0.00887982
0.00585053
0.00289822
-1.86268e-05
-0.00290159
-0.00575599
-0.00858912
-0.0114083
-0.01422
-0.0170291
-0.0198393
-0.022653
-0.0254717
-0.0282961
-0.0311267
-0.0339632
-0.0368057
-0.0396537
-0.0425069
-0.0453649
-0.0482272
-0.0510935
-0.0539633
-0.0568364
-0.0597125
-0.0625912
-0.0654722
-0.0683554
-0.0712405
-0.0741273
-0.0770156
-0.0799053
-0.0827962
-0.0856881
-0.088581
-0.0914747
-0.094369
-0.097264
-0.100159
-0.103055
-0.105951
-0.108847
0.219422
0.217078
0.214722
0.212348
0.209961
0.207566
0.205165
0.202756
0.200342
0.197922
0.195492
0.193048
0.190592
0.188123
0.185639
0.183137
0.180612
0.178062
0.175485
0.17288
0.170253
0.167615
0.164965
0.162284
0.159558
0.156776
0.153929
0.150998
0.147974
0.14485
0.141641
0.138337
0.134945
0.13146
0.1279
0.124285
0.120653
0.117043
0.113462
0.109915
0.106404
0.102928
0.099493
0.0961083
0.0927829
0.0895275
0.0863563
0.0832773
0.0802935
0.0774094
0.0746282
0.0719503
0.0693795
0.066918
0.064559
0.0622894
0.0601019
0.0579839
0.0559176
0.0538836
0.0518688
0.0498596
0.0478446
0.0458111
0.0437634
0.0416862
0.0395618
0.0373844
0.0351298
0.0327893
0.0303617
0.0278453
0.0252284
0.0225133
0.0197135
0.0168521
0.0139478
0.0110149
0.00807063
0.00514382
0.00228722
-0.000548975
-0.00336615
-0.00616759
-0.00895785
-0.0117417
-0.0145235
-0.0173066
-0.0200937
-0.0228865
-0.025686
-0.0284927
-0.0313068
-0.0341282
-0.0369566
-0.0397915
-0.0426325
-0.0454793
-0.0483313
-0.051188
-0.0540491
-0.0569141
-0.0597827
-0.0626545
-0.0655293
-0.0684066
-0.0712864
-0.0741682
-0.077052
-0.0799374
-0.0828244
-0.0857126
-0.0886021
-0.0914926
-0.0943839
-0.0972759
-0.100169
-0.103062
-0.105955
-0.108849
0.219453
0.217168
0.214865
0.21254
0.210196
0.207837
0.205464
0.203078
0.20068
0.198267
0.195839
0.193395
0.190933
0.188452
0.185946
0.183409
0.180835
0.178222
0.175564
0.172869
0.170142
0.167396
0.164633
0.161839
0.159002
0.156113
0.153179
0.150178
0.147102
0.143931
0.140699
0.137383
0.133986
0.130499
0.126942
0.123332
0.119693
0.116065
0.11246
0.108886
0.105339
0.10182
0.0983359
0.0948973
0.0915147
0.0882009
0.0849695
0.0818275
0.0787787
0.0758272
0.0729768
0.0702294
0.06759
0.0650599
0.0626366
0.060315
0.0580862
0.055934
0.0538382
0.0517833
0.0497566
0.0477436
0.0457319
0.0437055
0.0416749
0.0396192
0.0375308
0.0354025
0.0332096
0.0309461
0.0285949
0.0261641
0.0236501
0.0210555
0.0183825
0.0156467
0.0128666
0.0100578
0.00723647
0.00441547
0.001653
-0.00110134
-0.00384942
-0.00659336
-0.00933596
-0.0120801
-0.0148285
-0.017583
-0.0203452
-0.0231158
-0.0258955
-0.0286842
-0.0314819
-0.0342882
-0.0371027
-0.0399248
-0.0427541
-0.04559
-0.0484319
-0.0512794
-0.054132
-0.0569892
-0.0598506
-0.0627158
-0.0655844
-0.0684562
-0.0713307
-0.0742078
-0.0770871
-0.0799685
-0.0828516
-0.0857364
-0.0886225
-0.0915099
-0.0943982
-0.0972875
-0.100177
-0.103068
-0.105959
-0.10885
0.219487
0.217267
0.215021
0.212746
0.210443
0.208116
0.205768
0.2034
0.201012
0.198603
0.196175
0.193726
0.191253
0.188752
0.186214
0.183629
0.180993
0.1783
0.175549
0.172745
0.169904
0.167038
0.164151
0.161231
0.158274
0.155278
0.152257
0.149185
0.146069
0.142869
0.139611
0.136283
0.132881
0.129409
0.125881
0.122302
0.11869
0.115072
0.111466
0.107879
0.104312
0.100764
0.097243
0.0937598
0.0903274
0.0869628
0.0836768
0.0804738
0.0773598
0.0743404
0.071421
0.0686064
0.0659044
0.0633146
0.0608313
0.0584523
0.0561706
0.0539738
0.0518437
0.0497648
0.0477204
0.0456957
0.0436804
0.0416574
0.0396365
0.0375964
0.0355332
0.033442
0.0312965
0.0291007
0.0268303
0.0244893
0.0220738
0.0195858
0.0170286
0.0144155
0.0117602
0.00907562
0.00637924
0.00367263
0.00100807
-0.00166245
-0.0043393
-0.00702302
-0.0097151
-0.012417
-0.0151299
-0.0178543
-0.0205905
-0.0233386
-0.0260982
-0.028869
-0.0316504
-0.0344419
-0.0372429
-0.0400527
-0.0428706
-0.045696
-0.0485283
-0.051367
-0.0542114
-0.0570611
-0.0599156
-0.0627745
-0.0656373
-0.0685036
-0.0713732
-0.0742457
-0.0771208
-0.0799982
-0.0828777
-0.0857591
-0.088642
-0.0915264
-0.0944119
-0.0972985
-0.100186
-0.103074
-0.105962
-0.108851
0.21952
0.217364
0.215175
0.212947
0.210681
0.208383
0.206058
0.203707
0.20133
0.198926
0.196497
0.19404
0.191551
0.189023
0.186443
0.183802
0.181091
0.178308
0.17545
0.172527
0.169559
0.166561
0.163543
0.160504
0.157442
0.154358
0.151263
0.148133
0.144976
0.141757
0.138472
0.135133
0.131743
0.1283
0.124806
0.121267
0.117695
0.114107
0.110517
0.106934
0.103358
0.09979
0.0962396
0.0927195
0.0892449
0.0858338
0.0824945
0.0792328
0.0760562
0.072972
0.0699847
0.0671001
0.0643289
0.0616721
0.0591264
0.0566932
0.0543639
0.0521235
0.0499549
0.0478458
0.0457789
0.0437365
0.0417117
0.0396886
0.0376669
0.0356352
0.0335869
0.0315192
0.0294143
0.0272713
0.0250706
0.0228114
0.0204888
0.0181047
0.0156604
0.0131649
0.0106284
0.00806572
0.00549752
0.00292003
0.00036563
-0.00221984
-0.00482459
-0.00744657
-0.0100867
-0.0127453
-0.015422
-0.0181161
-0.0208264
-0.023552
-0.0262918
-0.0290451
-0.0318108
-0.034588
-0.037376
-0.0401739
-0.042981
-0.0457965
-0.0486197
-0.0514499
-0.0542866
-0.0571292
-0.0599772
-0.06283
-0.0656873
-0.0685485
-0.0714134
-0.0742815
-0.0771526
-0.0800263
-0.0829024
-0.0857805
-0.0886604
-0.091542
-0.0944249
-0.0973089
-0.100194
-0.10308
-0.105966
-0.108852
0.219548
0.217446
0.215308
0.213121
0.210888
0.208618
0.206315
0.203983
0.201618
0.199222
0.196794
0.194329
0.191823
0.189263
0.186635
0.183932
0.181142
0.178261
0.175293
0.172251
0.169153
0.16602
0.162876
0.15973
0.156579
0.153421
0.150263
0.147088
0.143887
0.14064
0.137345
0.13402
0.13066
0.127258
0.123813
0.12032
0.116785
0.113224
0.109651
0.106076
0.102501
0.0989243
0.0953562
0.091808
0.0882936
0.0848328
0.0814374
0.0781163
0.0748773
0.0717276
0.0686729
0.0657226
0.0628895
0.0601715
0.0575658
0.0550752
0.0526931
0.0504052
0.0481957
0.0460528
0.0439589
0.0418913
0.039847
0.0378148
0.0357847
0.0337505
0.0317061
0.0296457
0.027567
0.0254608
0.0233142
0.0211243
0.0188831
0.0165957
0.0142609
0.0118856
0.00947403
0.00703899
0.00460214
0.00216571
-0.000252502
-0.00276216
-0.00529534
-0.00785424
-0.0104418
-0.0130575
-0.015699
-0.0183636
-0.021049
-0.0237531
-0.0264742
-0.0292107
-0.0319614
-0.0347252
-0.0375009
-0.0402876
-0.0430844
-0.0458905
-0.0487051
-0.0515275
-0.054357
-0.0571929
-0.0600347
-0.0628819
-0.065734
-0.0685904
-0.0714509
-0.074315
-0.0771823
-0.0800525
-0.0829253
-0.0858004
-0.0886776
-0.0915564
-0.0944368
-0.0973185
-0.100201
-0.103085
-0.105969
-0.108853
0.219568
0.217508
0.215404
0.213244
0.211038
0.208794
0.206515
0.204201
0.201852
0.199468
0.197046
0.194578
0.192055
0.189464
0.186791
0.184025
0.181156
0.17818
0.175106
0.171951
0.168738
0.165497
0.162248
0.158998
0.155759
0.152546
0.149347
0.146141
0.142923
0.139677
0.136392
0.133087
0.129758
0.126392
0.122981
0.11952
0.11601
0.112468
0.10891
0.105345
0.101773
0.0981952
0.0946187
0.0910504
0.0875003
0.0839899
0.0805364
0.0771514
0.0738461
0.07063
0.0675105
0.0644967
0.0616015
0.058824
0.0561638
0.0536214
0.0511896
0.0488561
0.0466042
0.0444228
0.0422953
0.0401959
0.0381204
0.0360616
0.0340091
0.0319549
0.0298962
0.0278237
0.0257416
0.0236442
0.0215272
0.0193879
0.0172129
0.0150139
0.0127858
0.0105344
0.00826045
0.00596899
0.00367448
0.0013952
-0.000535099
-0.00328904
-0.00574489
-0.008236
-0.0107711
-0.0133459
-0.0159547
-0.0185924
-0.0212549
-0.0239392
-0.0266429
-0.0293639
-0.0321007
-0.0348519
-0.0376163
-0.0403926
-0.04318
-0.0459774
-0.048784
-0.0515991
-0.0544218
-0.0572516
-0.0600877
-0.0629297
-0.0657769
-0.068629
-0.0714854
-0.0743457
-0.0772095
-0.0800765
-0.0829463
-0.0858186
-0.0886932
-0.0915696
-0.0944478
-0.0973273
-0.100208
-0.103089
-0.105972
-0.108854
0.219576
0.217532
0.21544
0.213291
0.211101
0.208877
0.206619
0.204326
0.201998
0.199632
0.197224
0.194763
0.192233
0.18962
0.18691
0.18409
0.18115
0.178089
0.174918
0.17166
0.168344
0.165012
0.161697
0.158399
0.155113
0.151864
0.148653
0.145455
0.142249
0.139016
0.135747
0.132451
0.129128
0.125769
0.122352
0.118883
0.11537
0.111832
0.108285
0.104732
0.101174
0.097607
0.0940352
0.0904593
0.0868861
0.0833353
0.0798257
0.0763739
0.0729974
0.0697112
0.0665267
0.0634531
0.0605019
0.0576719
0.0549628
0.0523726
0.0498934
0.0475159
0.045222
0.0429985
0.0408301
0.0386913
0.0365726
0.0344683
0.0323708
0.0302701
0.0281643
0.0260475
0.0239238
0.0217961
0.0196695
0.0175455
0.015411
0.0132847
0.0111619
0.00904817
0.00693798
0.00483251
0.00271048
0.000539117
-0.00165028
-0.00387115
-0.00616715
-0.00857803
-0.0110632
-0.0136024
-0.0161834
-0.018798
-0.0214407
-0.0241077
-0.0267959
-0.0295031
-0.0322274
-0.0349672
-0.0377212
-0.040488
-0.0432667
-0.0460562
-0.0488556
-0.051664
-0.0544806
-0.0573047