/*--------------------------------*- C++ -*----------------------------------*\
  =========                 |
  \\      /  F ield         | OpenFOAM: The Open Source CFD Toolbox
   \\    /   O peration     | Website:  https://openfoam.org
    \\  /    A nd           | Version:  6
     \\/     M anipulation  |
\*---------------------------------------------------------------------------*/
FoamFile
{
    version     2.0;
    format      ascii;
    class       volScalarField;
    location    "800";
    object      T;
}
// * * * * * * * * * * * * * * * * * * * * * * * * * * * * * * * * * * * * * //

dimensions      [0 0 0 1 0 0 0];

internalField   nonuniform List<scalar> 
4800
(
552.502
552.406
552.31
552.214
552.118
552.021
551.925
551.829
551.733
551.637
551.542
551.447
551.353
551.26
551.169
551.078
550.989
550.9
550.813
550.727
550.641
550.557
550.473
550.389
550.307
550.224
550.142
550.06
549.979
549.898
549.816
549.735
549.654
549.572
549.491
549.409
549.328
549.247
549.167
549.087
549.007
548.928
548.85
548.773
548.697
548.621
548.547
548.473
548.4
548.328
548.256
548.184
548.112
548.041
547.969
547.896
547.823
547.749
547.673
547.596
547.516
547.433
547.348
547.258
547.165
547.067
546.963
546.855
546.74
546.62
546.493
546.361
546.223
546.08
545.932
545.781
545.626
545.47
545.314
545.162
545.014
544.87
544.731
544.596
544.466
544.339
544.215
544.094
543.975
543.858
543.742
543.628
543.515
543.402
543.291
543.18
543.07
542.96
542.851
542.742
542.633
542.525
542.417
542.309
542.202
542.094
541.987
541.88
541.773
541.667
541.56
541.453
541.347
541.241
541.134
541.028
540.922
540.815
540.709
540.603
552.502
552.406
552.309
552.213
552.116
552.02
551.923
551.827
551.731
551.635
551.54
551.445
551.351
551.258
551.167
551.076
550.987
550.899
550.812
550.725
550.64
550.555
550.471
550.388
550.305
550.222
550.14
550.058
549.976
549.894
549.813
549.731
549.649
549.567
549.485
549.404
549.322
549.241
549.16
549.079
548.999
548.92
548.842
548.764
548.687
548.611
548.537
548.463
548.39
548.317
548.245
548.174
548.102
548.03
547.958
547.886
547.812
547.738
547.663
547.585
547.505
547.423
547.338
547.249
547.155
547.057
546.954
546.846
546.731
546.611
546.485
546.353
546.215
546.072
545.925
545.774
545.62
545.465
545.311
545.158
545.009
544.865
544.726
544.592
544.462
544.336
544.212
544.092
543.973
543.856
543.741
543.627
543.514
543.401
543.29
543.179
543.069
542.959
542.85
542.741
542.633
542.525
542.417
542.309
542.201
542.094
541.987
541.88
541.773
541.667
541.56
541.453
541.347
541.241
541.134
541.028
540.922
540.815
540.709
540.603
552.502
552.405
552.308
552.211
552.114
552.017
551.92
551.823
551.727
551.631
551.536
551.441
551.348
551.255
551.163
551.073
550.984
550.896
550.809
550.722
550.637
550.552
550.468
550.384
550.301
550.218
550.136
550.053
549.97
549.888
549.806
549.723
549.64
549.558
549.475
549.393
549.311
549.228
549.147
549.065
548.984
548.904
548.825
548.746
548.669
548.592
548.517
548.443
548.37
548.297
548.225
548.153
548.081
548.009
547.937
547.865
547.791
547.717
547.642
547.564
547.485
547.403
547.318
547.229
547.136
547.039
546.936
546.828
546.715
546.595
546.469
546.337
546.2
546.058
545.911
545.76
545.607
545.452
545.298
545.146
544.997
544.854
544.716
544.583
544.454
544.329
544.207
544.087
543.969
543.853
543.738
543.624
543.511
543.4
543.288
543.178
543.068
542.958
542.849
542.74
542.632
542.524
542.416
542.308
542.201
542.094
541.987
541.88
541.773
541.666
541.56
541.453
541.347
541.24
541.134
541.028
540.922
540.815
540.709
540.603
552.501
552.404
552.306
552.209
552.111
552.014
551.917
551.82
551.724
551.627
551.532
551.437
551.343
551.251
551.159
551.069
550.98
550.892
550.805
550.719
550.634
550.549
550.464
550.38
550.296
550.213
550.13
550.046
549.963
549.879
549.796
549.712
549.629
549.545
549.461
549.378
549.294
549.211
549.128
549.045
548.963
548.881
548.801
548.721
548.643
548.565
548.49
548.415
548.341
548.268
548.195
548.124
548.052
547.979
547.907
547.834
547.761
547.687
547.611
547.534
547.455
547.374
547.289
547.201
547.109
547.012
546.911
546.803
546.69
546.571
546.446
546.315
546.178
546.036
545.89
545.739
545.587
545.432
545.279
545.127
544.979
544.837
544.7
544.57
544.443
544.319
544.199
544.08
543.963
543.848
543.734
543.621
543.508
543.397
543.286
543.176
543.066
542.957
542.848
542.739
542.631
542.523
542.415
542.308
542.2
542.093
541.986
541.879
541.773
541.666
541.559
541.453
541.347
541.24
541.134
541.028
540.922
540.815
540.709
540.603
552.501
552.403
552.305
552.207
552.109
552.012
551.915
551.817
551.721
551.624
551.528
551.433
551.339
551.247
551.155
551.065
550.976
550.889
550.802
550.716
550.63
550.545
550.46
550.376
550.291
550.207
550.122
550.038
549.954
549.869
549.784
549.699
549.614
549.529
549.444
549.359
549.274
549.189
549.104
549.02
548.936
548.853
548.771
548.69
548.61
548.531
548.455
548.379
548.304
548.231
548.158
548.085
548.013
547.941
547.868
547.795
547.722
547.648
547.572
547.496
547.417
547.336
547.252
547.165
547.074
546.978
546.878
546.771
546.659
546.541
546.417
546.286
546.15
546.008
545.862
545.711
545.559
545.405
545.251
545.1
544.954
544.813
544.68
544.552
544.428
544.307
544.188
544.071
543.956
543.842
543.729
543.616
543.504
543.393
543.283
543.173
543.064
542.955
542.846
542.738
542.629
542.522
542.414
542.307
542.199
542.092
541.985
541.879
541.772
541.665
541.559
541.453
541.346
541.24
541.134
541.028
540.921
540.815
540.709
540.603
552.501
552.402
552.304
552.206
552.108
552.011
551.913
551.816
551.718
551.621
551.525
551.43
551.336
551.243
551.152
551.062
550.973
550.885
550.798
550.712
550.626
550.541
550.456
550.37
550.285
550.2
550.115
550.029
549.943
549.857
549.771
549.685
549.598
549.511
549.424
549.337
549.25
549.164
549.077
548.991
548.905
548.82
548.736
548.653
548.572
548.492
548.414
548.337
548.261
548.186
548.113
548.04
547.967
547.895
547.822
547.749
547.676
547.601
547.526
547.45
547.372
547.291
547.208
547.122
547.031
546.937
546.837
546.733
546.622
546.505
546.381
546.252
546.116
545.975
545.829
545.679
545.526
545.371
545.217
545.065
544.92
544.782
544.653
544.53
544.409
544.292
544.176
544.061
543.947
543.834
543.722
543.611
543.5
543.389
543.279
543.17
543.061
542.952
542.844
542.736
542.628
542.52
542.413
542.305
542.198
542.091
541.985
541.878
541.771
541.665
541.558
541.452
541.346
541.24
541.133
541.027
540.921
540.815
540.709
540.603
552.501
552.402
552.304
552.206
552.108
552.011
551.913
551.815
551.717
551.62
551.524
551.428
551.334
551.242
551.15
551.06
550.971
550.883
550.796
550.709
550.623
550.537
550.452
550.366
550.28
550.194
550.107
550.021
549.933
549.846
549.758
549.669
549.581
549.492
549.403
549.314
549.225
549.137
549.048
548.96
548.872
548.784
548.698
548.613
548.529
548.448
548.368
548.289
548.212
548.136
548.062
547.988
547.915
547.842
547.769
547.696
547.622
547.548
547.473
547.397
547.319
547.24
547.157
547.072
546.983
546.889
546.791
546.688
546.578
546.462
546.341
546.212
546.077
545.937
545.792
545.642
545.488
545.331
545.174
545.02
544.875
544.743
544.621
544.504
544.389
544.275
544.162
544.05
543.938
543.826
543.715
543.605
543.494
543.385
543.275
543.166
543.058
542.949
542.841
542.733
542.626
542.518
542.411
542.304
542.197
542.09
541.984
541.877
541.77
541.664
541.558
541.452
541.345
541.239
541.133
541.027
540.921
540.815
540.709
540.603
552.501
552.403
552.305
552.207
552.109
552.012
551.914
551.816
551.718
551.62
551.524
551.429
551.334
551.242
551.15
551.06
550.971
550.882
550.795
550.709
550.622
550.536
550.45
550.364
550.277
550.19
550.102
550.014
549.925
549.835
549.745
549.655
549.564
549.473
549.381
549.29
549.199
549.108
549.017
548.927
548.836
548.746
548.657
548.57
548.484
548.4
548.317
548.237
548.158
548.081
548.005
547.93
547.856
547.783
547.71
547.637
547.563
547.489
547.414
547.339
547.261
547.182
547.101
547.016
546.928
546.836
546.74
546.638
546.53
546.416
546.296
546.169
546.036
545.896
545.752
545.602
545.447
545.287
545.125
544.964
544.815
544.694
544.583
544.475
544.366
544.257
544.147
544.037
543.927
543.817
543.707
543.598
543.489
543.379
543.271
543.162
543.054
542.946
542.838
542.731
542.623
542.516
542.409
542.302
542.196
542.089
541.982
541.876
541.77
541.663
541.557
541.451
541.345
541.239
541.133
541.027
540.921
540.815
540.709
540.603
552.501
552.404
552.306
552.209
552.111
552.014
551.916
551.818
551.72
551.623
551.526
551.431
551.337
551.244
551.152
551.062
550.973
550.885
550.798
550.711
550.625
550.538
550.452
550.365
550.278
550.19
550.101
550.011
549.92
549.828
549.736
549.642
549.549
549.455
549.361
549.267
549.173
549.079
548.986
548.893
548.8
548.707
548.615
548.525
548.436
548.349
548.264
548.181
548.1
548.02
547.943
547.867
547.792
547.718
547.645
547.572
547.498
547.424
547.35
547.275
547.198
547.12
547.039
546.956
546.869
546.778
546.683
546.583
546.477
546.365
546.246
546.122
545.99
545.853
545.709
545.56
545.405
545.243
545.073
544.896
544.724
544.633
544.543
544.446
544.345
544.24
544.133
544.025
543.917
543.808
543.699
543.591
543.482
543.374
543.266
543.158
543.05
542.943
542.835
542.728
542.621
542.514
542.407
542.3
542.194
542.087
541.981
541.875
541.769
541.662
541.556
541.45
541.344
541.238
541.132
541.026
540.921
540.815
540.709
540.603
552.502
552.405
552.308
552.211
552.114
552.017
551.919
551.821
551.724
551.627
551.531
551.436
551.342
551.249
551.158
551.067
550.978
550.89
550.803
550.717
550.63
550.544
550.457
550.37
550.282
550.193
550.102
550.011
549.918
549.824
549.729
549.633
549.536
549.439
549.342
549.245
549.148
549.051
548.955
548.859
548.763
548.667
548.572
548.478
548.386
548.296
548.208
548.122
548.038
547.957
547.877
547.8
547.724
547.65
547.576
547.502
547.429
547.355
547.282
547.207
547.131
547.053
546.973
546.891
546.806
546.716
546.623
546.525
546.421
546.311
546.194
546.072
545.943
545.808
545.666
545.519
545.365
545.203
545.029
544.828
544.552
544.57
544.51
544.423
544.326
544.224
544.119
544.013
543.906
543.799
543.691
543.583
543.476
543.368
543.261
543.153
543.046
542.939
542.832
542.725
542.618
542.511
542.405
542.298
542.192
542.086
541.98
541.874
541.767
541.661
541.555
541.449
541.344
541.238
541.132
541.026
540.92
540.814
540.709
540.603
552.502
552.406
552.31
552.214
552.117
552.02
551.923
551.826
551.729
551.633
551.537
551.443
551.349
551.257
551.166
551.076
550.987
550.899
550.812
550.725
550.639
550.553
550.466
550.378
550.289
550.199
550.108
550.015
549.92
549.824
549.726
549.627
549.527
549.426
549.325
549.224
549.123
549.023
548.924
548.825
548.726
548.627
548.528
548.43
548.334
548.24
548.149
548.06
547.974
547.89
547.809
547.73
547.653
547.577
547.503
547.429
547.356
547.283
547.209
547.135
547.06
546.983
546.904
546.823
546.739
546.651
546.56
546.463
546.361
546.254
546.14
546.02
545.894
545.762
545.624
545.48
545.33
545.174
545.011
544.84
544.673
544.587
544.502
544.41
544.312
544.211
544.107
544.002
543.896
543.79
543.683
543.576
543.469
543.362
543.255
543.148
543.041
542.935
542.828
542.722
542.615
542.509
542.403
542.296
542.19
542.084
541.978
541.872
541.766
541.66
541.555
541.449
541.343
541.237
541.131
541.026
540.92
540.814
540.709
540.603
552.502
552.407
552.312
552.217
552.121
552.025
551.928
551.832
551.736
551.641
551.546
551.452
551.359
551.267
551.177
551.087
550.998
550.911
550.824
550.737
550.651
550.564
550.477
550.389
550.3
550.209
550.117
550.023
549.926
549.827
549.726
549.624
549.52
549.415
549.31
549.204
549.099
548.995
548.892
548.79
548.687
548.585
548.483
548.381
548.281
548.184
548.089
547.997
547.908
547.822
547.739
547.658
547.579
547.503
547.428
547.354
547.28
547.207
547.134
547.06
546.985
546.909
546.831
546.751
546.669
546.583
546.493
546.399
546.299
546.195
546.084
545.967
545.843
545.714
545.58
545.441
545.298
545.15
545
544.851
544.712
544.602
544.502
544.402
544.302
544.199
544.096
543.991
543.886
543.78
543.675
543.568
543.462
543.356
543.249
543.143
543.037
542.931
542.824
542.718
542.612
542.506
542.4
542.294
542.188
542.082
541.977
541.871
541.765
541.659
541.554
541.448
541.342
541.237
541.131
541.025
540.92
540.814
540.708
540.603
552.503
552.409
552.314
552.22
552.125
552.03
551.935
551.84
551.745
551.651
551.557
551.464
551.372
551.281
551.19
551.101
551.012
550.925
550.837
550.751
550.665
550.578
550.491
550.403
550.313
550.222
550.129
550.033
549.935
549.834
549.73
549.624
549.516
549.407
549.297
549.186
549.076
548.968
548.86
548.754
548.648
548.542
548.436
548.331
548.228
548.127
548.029
547.934
547.842
547.753
547.667
547.584
547.504
547.426
547.35
547.276
547.202
547.129
547.056
546.983
546.909
546.833
546.756
546.678
546.596
546.512
546.424
546.332
546.235
546.133
546.025
545.911
545.792
545.667
545.538
545.404
545.266
545.127
544.987
544.851
544.722
544.607
544.5
544.396
544.293
544.189
544.086
543.981
543.877
543.772
543.666
543.561
543.455
543.35
543.244
543.138
543.032
542.926
542.821
542.715
542.609
542.503
542.398
542.292
542.186
542.081
541.975
541.869
541.764
541.658
541.553
541.447
541.341
541.236
541.13
541.025
540.919
540.814
540.708
540.603
552.503
552.41
552.317
552.224
552.13
552.036
551.942
551.849
551.755
551.662
551.57
551.477
551.386
551.295
551.205
551.116
551.028
550.94
550.853
550.766
550.68
550.593
550.506
550.418
550.328
550.237
550.143
550.046
549.946
549.843
549.737
549.627
549.515
549.4
549.285
549.169
549.054
548.941
548.829
548.718
548.608
548.498
548.389
548.281
548.174
548.07
547.968
547.87
547.775
547.683
547.595
547.51
547.428
547.349
547.272
547.197
547.123
547.049
546.977
546.904
546.83
546.755
546.679
546.602
546.522
546.439
546.354
546.264
546.169
546.07
545.965
545.855
545.74
545.619
545.494
545.366
545.235
545.103
544.971
544.842
544.72
544.604
544.495
544.388
544.284
544.18
544.076
543.972
543.867
543.763
543.658
543.553
543.448
543.343
543.238
543.133
543.027
542.922
542.817
542.711
542.606
542.5
542.395
542.29
542.184
542.079
541.973
541.868
541.762
541.657
541.552
541.446
541.341
541.235
541.13
541.024
540.919
540.814
540.708
540.603
552.504
552.412
552.32
552.228
552.136
552.043
551.951
551.858
551.766
551.675
551.583
551.492
551.402
551.312
551.222
551.133
551.045
550.957
550.869
550.782
550.695
550.608
550.52
550.432
550.341
550.249
550.154
550.056
549.954
549.849
549.741
549.628
549.512
549.394
549.273
549.153
549.032
548.914
548.797
548.682
548.568
548.454
548.341
548.23
548.12
548.013
547.908
547.807
547.709
547.614
547.524
547.437
547.353
547.272
547.193
547.117
547.042
546.969
546.896
546.823
546.75
546.676
546.601
546.525
546.446
546.365
546.281
546.194
546.102
546.005
545.904
545.797
545.686
545.57
545.45
545.328
545.203
545.076
544.951
544.828
544.709
544.596
544.486
544.379
544.274
544.17
544.066
543.962
543.858
543.754
543.65
543.546
543.441
543.337
543.232
543.127
543.023
542.918
542.813
542.708
542.603
542.498
542.392
542.287
542.182
542.077
541.972
541.866
541.761
541.656
541.55
541.445
541.34
541.235
541.129
541.024
540.919
540.813
540.708
540.603
552.505
552.414
552.323
552.233
552.142
552.051
551.96
551.869
551.778
551.688
551.598
551.508
551.418
551.328
551.239
551.15
551.061
550.973
550.885
550.797
550.708
550.62
550.531
550.441
550.35
550.257
550.16
550.06
549.957
549.85
549.739
549.624
549.506
549.384
549.26
549.135
549.01
548.886
548.765
548.645
548.527
548.41
548.294
548.179
548.066
547.956
547.849
547.745
547.644
547.547
547.454
547.364
547.278
547.195
547.115
547.038
546.962
546.888
546.815
546.743
546.67
546.596
546.522
546.446
546.369
546.29
546.208
546.122
546.033
545.94
545.842
545.739
545.632
545.52
545.405
545.287
545.168
545.047
544.927
544.809
544.694
544.583
544.474
544.368
544.263
544.159
544.056
543.952
543.849
543.746
543.642
543.538
543.435
543.331
543.226
543.122
543.018
542.913
542.809
542.704
542.599
542.495
542.39
542.285
542.18
542.075
541.97
541.865
541.76
541.655
541.549
541.444
541.339
541.234
541.129
541.023
540.918
540.813
540.708
540.603
552.506
552.417
552.328
552.238
552.149
552.059
551.97
551.88
551.791
551.701
551.612
551.523
551.434
551.344
551.255
551.166
551.077
550.987
550.898
550.808
550.718
550.628
550.537
550.446
550.353
550.258
550.16
550.058
549.952
549.843
549.73
549.613
549.493
549.369
549.242
549.113
548.985
548.858
548.732
548.609
548.487
548.367
548.247
548.13
548.014
547.901
547.791
547.684
547.581
547.481
547.386
547.294
547.205
547.12
547.039
546.96
546.883
546.808
546.735
546.662
546.589
546.516
546.442
546.367
546.291
546.214
546.134
546.05
545.964
545.873
545.779
545.68
545.577
545.47
545.359
545.246
545.131
545.016
544.9
544.787
544.676
544.567
544.46
544.355
544.251
544.148
544.045
543.942
543.84
543.737
543.634
543.531
543.428
543.324
543.221
543.117
543.013
542.909
542.805
542.701
542.596
542.492
542.387
542.282
542.178
542.073
541.968
541.863
541.758
541.653
541.548
541.443
541.338
541.233
541.128
541.023
540.918
540.813
540.708
540.603
552.507
552.42
552.332
552.244
552.156
552.068
551.98
551.892
551.803
551.715
551.626
551.537
551.448
551.359
551.27
551.18
551.09
550.999
550.908
550.816
550.724
550.631
550.538
550.444
550.349
550.251
550.151
550.047
549.939
549.828
549.713
549.594
549.472
549.346
549.218
549.087
548.957
548.827
548.699
548.573
548.448
548.324
548.202
548.082
547.964
547.848
547.735
547.626
547.52
547.418
547.32
547.225
547.134
547.047
546.963
546.883
546.805
546.73
546.656
546.582
546.51
546.437
546.363
546.289
546.214
546.138
546.059
545.978
545.894
545.806
545.715
545.62
545.521
545.418
545.312
545.204
545.094
544.983
544.872
544.762
544.655
544.549
544.445
544.341
544.238
544.136
544.034
543.932
543.83
543.728
543.626
543.524
543.421
543.318
543.215
543.112
543.008
542.905
542.801
542.697
542.593
542.489
542.384
542.28
542.176
542.071
541.966
541.862
541.757
541.652
541.547
541.442
541.338
541.233
541.128
541.023
540.918
540.813
540.708
540.603
552.508
552.423
552.337
552.251
552.164
552.078
551.991
551.903
551.816
551.728
551.64
551.551
551.462
551.372
551.282
551.192
551.1
551.008
550.914
550.82
550.724
550.629
550.533
550.435
550.336
550.236
550.132
550.026
549.916
549.803
549.687
549.567
549.444
549.318
549.189
549.057
548.926
548.795
548.665
548.536
548.409
548.283
548.158
548.036
547.915
547.797
547.682
547.57
547.462
547.357
547.257
547.159
547.066
546.977
546.891
546.809
546.73
546.653
546.578
546.504
546.431
546.358
546.285
546.211
546.137
546.062
545.985
545.906
545.824
545.739
545.651
545.56
545.465
545.366
545.265
545.161
545.056
544.949
544.843
544.737
544.633
544.53
544.428
544.326
544.225
544.124
544.023
543.922
543.821
543.72
543.618
543.517
543.415
543.312
543.21
543.107
543.004
542.901
542.797
542.694
542.59
542.486
542.382
542.278
542.173
542.069
541.965
541.86
541.756
541.651
541.546
541.442
541.337
541.232
541.127
541.022
540.917
540.812
540.707
540.602
552.509
552.426
552.342
552.258
552.173
552.087
552.001
551.915
551.828
551.74
551.652
551.564
551.474
551.384
551.293
551.201
551.108
551.013
550.917
550.819
550.72
550.621
550.521
550.419
550.316
550.212
550.105
549.996
549.885
549.77
549.653
549.532
549.409
549.283
549.154
549.023
548.891
548.759
548.629
548.499
548.37
548.243
548.116
547.992
547.869
547.749
547.632
547.518
547.407
547.3
547.197
547.097
547.001
546.91
546.822
546.738
546.657
546.579
546.503
546.428
546.355
546.282
546.209
546.135
546.061
545.987
545.911
545.834
545.754
545.672
545.587
545.499
545.408
545.314
545.217
545.117
545.017
544.915
544.812
544.71
544.61
544.51
544.41
544.311
544.211
544.112
544.012
543.912
543.812
543.712
543.611
543.51
543.408
543.306
543.204
543.102
542.999
542.897
542.794
542.69
542.587
542.483
542.379
542.276
542.171
542.067
541.963
541.859
541.754
541.65
541.545
541.441
541.336
541.231
541.127
541.022
540.917
540.812
540.707
540.602
552.51
552.429
552.348
552.265
552.182
552.097
552.012
551.926
551.84
551.752
551.664
551.576
551.486
551.395
551.303
551.209
551.114
551.016
550.916
550.815
550.712
550.608
550.503
550.397
550.29
550.181
550.072
549.96
549.847
549.731
549.613
549.493
549.369
549.243
549.115
548.986
548.855
548.723
548.593
548.463
548.333
548.205
548.077
547.951
547.826
547.704
547.585
547.469
547.356
547.246
547.14
547.038
546.94
546.846
546.756
546.67
546.587
546.508
546.43
546.355
546.281
546.207
546.134
546.061
545.988
545.914
545.839
545.763
545.685
545.605
545.523
545.438
545.35
545.26
545.168
545.073
544.976
544.879
544.781
544.683
544.587
544.49
544.393
544.295
544.198
544.1
544.001
543.902
543.803
543.704
543.604
543.503
543.402
543.301
543.199
543.097
542.995
542.893
542.79
542.687
542.584
542.481
542.377
542.273
542.17
542.066
541.962
541.857
541.753
541.649
541.544
541.44
541.335
541.231
541.126
541.021
540.917
540.812
540.707
540.602
552.511
552.433
552.354
552.273
552.19
552.107
552.023
551.938
551.851
551.764
551.676
551.587
551.497
551.405
551.312
551.216
551.117
551.016
550.913
550.807
550.699
550.59
550.481
550.371
550.26
550.148
550.036
549.922
549.808
549.691
549.572
549.451
549.328
549.203
549.076
548.948
548.819
548.688
548.558
548.428
548.299
548.169
548.04
547.913
547.787
547.663
547.542
547.424
547.308
547.197
547.088
546.984
546.883
546.787
546.694
546.606
546.522
546.44
546.362
546.285
546.21
546.136
546.063
545.989
545.916
545.842
545.768
545.693
545.617
545.539
545.459
545.377
545.293
545.206
545.118
545.027
544.935
544.842
544.749
544.656
544.563
544.469
544.375
544.28
544.184
544.088
543.991
543.893
543.795
543.696
543.596
543.497
543.396
543.296
543.195
543.093
542.991
542.889
542.787
542.684
542.581
542.478
542.375
542.271
542.168
542.064
541.96
541.856
541.752
541.648
541.543
541.439
541.335
541.23
541.126
541.021
540.916
540.812
540.707
540.602
552.512
552.436
552.358
552.279
552.198
552.116
552.032
551.947
551.862
551.775
551.687
551.597
551.507
551.414
551.318
551.22
551.119
551.015
550.907
550.797
550.684
550.571
550.457
550.343
550.229
550.114
550
549.885
549.768
549.651
549.531
549.411
549.289
549.165
549.04
548.914
548.786
548.656
548.527
548.397
548.268
548.138
548.008
547.88
547.752
547.627
547.504
547.383
547.266
547.151
547.041
546.934
546.831
546.732
546.638
546.548
546.461
546.378
546.298
546.22
546.144
546.069
545.995
545.922
545.848
545.774
545.7
545.625
545.55
545.473
545.395
545.316
545.235
545.152
545.067
544.981
544.893
544.805
544.717
544.628
544.541
544.45
544.358
544.265
544.171
544.076
543.981
543.884
543.787
543.689
543.59
543.491
543.391
543.291
543.19
543.089
542.987
542.886
542.784
542.681
542.579
542.476
542.373
542.27
542.166
542.062
541.959
541.855
541.751
541.647
541.543
541.438
541.334
541.23
541.125
541.021
540.916
540.812
540.707
540.602
552.513
552.438
552.362
552.283
552.203
552.122
552.039
551.955
551.87
551.784
551.696
551.606
551.515
551.421
551.324
551.224
551.12
551.012
550.9
550.786
550.67
550.552
550.434
550.316
550.199
550.083
549.967
549.85
549.734
549.616
549.497
549.377
549.256
549.134
549.01
548.885
548.757
548.629
548.5
548.371
548.241
548.111
547.982
547.852
547.724
547.596
547.471
547.348
547.228
547.112
546.999
546.889
546.784
546.684
546.587
546.495
546.407
546.322
546.24
546.161
546.084
546.008
545.933
545.858
545.783
545.709
545.634
545.559
545.483
545.407
545.33
545.253
545.174
545.094
545.013
544.932
544.849
544.766
544.683
544.601
544.521
544.431
544.342
544.251
544.159
544.066
543.971
543.876
543.779
543.682
543.584
543.485
543.386
543.286
543.186
543.085
542.984
542.883
542.781
542.679
542.576
542.474
542.371
542.268
542.165
542.061
541.957
541.854
541.75
541.646
541.542
541.438
541.333
541.229
541.125
541.02
540.916
540.811
540.707
540.602
552.513
552.439
552.363
552.285
552.206
552.125
552.043
551.96
551.875
551.79
551.702
551.613
551.521
551.427
551.328
551.226
551.12
551.009
550.894
550.776
550.655
550.535
550.415
550.295
550.176
550.058
549.942
549.826
549.71
549.592
549.474
549.354
549.233
549.111
548.987
548.861
548.734
548.606
548.477
548.348
548.219
548.09
547.96
547.831
547.701
547.573
547.445
547.32
547.198
547.079
546.963
546.852
546.745
546.642
546.544
546.45
546.36
546.274
546.19
546.11
546.031
545.953
545.877
545.8
545.724
545.648
545.571
545.494
545.417
545.34
545.263
545.186
545.108
545.031
544.954
544.878
544.801
544.725
544.648
544.569
544.485
544.41
544.326
544.239
544.149
544.057
543.963
543.868
543.772
543.676
543.578
543.48
543.381
543.282
543.182
543.082
542.981
542.88
542.778
542.676
542.574
542.472
542.369
542.266
542.163
542.06
541.956
541.853
541.749
541.645
541.541
541.437
541.333
541.229
541.124
541.02
540.916
540.811
540.707
540.602
552.513
552.438
552.362
552.284
552.205
552.124
552.043
551.96
551.877
551.792
551.706
551.617
551.525
551.43
551.331
551.227
551.119
551.005
550.888
550.767
550.645
550.523
550.402
550.284
550.165
550.049
549.934
549.819
549.703
549.586
549.467
549.347
549.224
549.1
548.972
548.843
548.714
548.585
548.456
548.328
548.2
548.072
547.944
547.815
547.686
547.557
547.428
547.301
547.176
547.054
546.936
546.823
546.713
546.609
546.509
546.414
546.322
546.235
546.15
546.068
545.988
545.908
545.829
545.75
545.671
545.592
545.512
545.432
545.351
545.271
545.192
545.113
545.036
544.961
544.887
544.816
544.748
544.681
544.614
544.544
544.471
544.396
544.315
544.229
544.14
544.049
543.956
543.862
543.766
543.67
543.573
543.476
543.377
543.278
543.179
543.079
542.978
542.877
542.776
542.674
542.572
542.47
542.368
542.265
542.162
542.059
541.955
541.852
541.748
541.644
541.541
541.437
541.332
541.228
541.124
541.02
540.915
540.811
540.707
540.602
552.512
552.436
552.359
552.281
552.201
552.121
552.04
551.957
551.875
551.791
551.705
551.617
551.526
551.431
551.331
551.227
551.117
551.003
550.885
550.764
550.642
550.522
550.405
550.29
550.176
550.064
549.952
549.84
549.724
549.605
549.484
549.36
549.232
549.099
548.963
548.828
548.694
548.562
548.434
548.307
548.182
548.058
547.932
547.806
547.679
547.552
547.424
547.295
547.168
547.044
546.923
546.806
546.694
546.588
546.486
546.39
546.297
546.208
546.123
546.039
545.957
545.875
545.792
545.709
545.625
545.541
545.456
545.37
545.285
545.2
545.116
545.034
544.955
544.88
544.809
544.745
544.685
544.632
544.579
544.523
544.46
544.387
544.307
544.222
544.133
544.042
543.95
543.856
543.761
543.666
543.569
543.472
543.374
543.275
543.176
543.076
542.976
542.875
542.774
542.672
542.571
542.469
542.366
542.264
542.161
542.058
541.955
541.851
541.748
541.644
541.54
541.436
541.332
541.228
541.124
541.02
540.915
540.811
540.707
540.602
552.512
552.436
552.358
552.279
552.198
552.117
552.035
551.953
551.872
551.79
551.706
551.618
551.527
551.431
551.332
551.227
551.117
551.004
550.892
550.776
550.661
550.549
550.441
550.333
550.222
550.115
550.008
549.898
549.78
549.656
549.527
549.394
549.255
549.109
548.958
548.813
548.672
548.536
548.409
548.286
548.167
548.048
547.927
547.807
547.686
547.564
547.44
547.312
547.183
547.055
546.929
546.806
546.69
546.581
546.479
546.382
546.29
546.201
546.115
546.028
545.943
545.856
545.767
545.676
545.583
545.493
545.404
545.312
545.219
545.129
545.039
544.952
544.866
544.793
544.726
544.667
544.615
544.58
544.545
544.508
544.458
544.386
544.304
544.218
544.129
544.038
543.945
543.852
543.757
543.662
543.566
543.468
543.371
543.272
543.173
543.074
542.974
542.873
542.772
542.671
542.569
542.467
542.365
542.263
542.16
542.057
541.954
541.851
541.747
541.643
541.54
541.436
541.332
541.228
541.124
541.019
540.915
540.811
540.707
540.602
552.514
552.44
552.362
552.281
552.198
552.116
552.035
551.956
551.877
551.8
551.72
551.632
551.538
551.44
551.342
551.24
551.126
551.02
550.924
550.824
550.729
550.635
550.543
550.445
550.331
550.219
550.111
549.998
549.873
549.735
549.591
549.446
549.287
549.122
548.953
548.805
548.662
548.518
548.393
548.272
548.165
548.053
547.936
547.828
547.72
547.611
547.495
547.367
547.237
547.1
546.963
546.831
546.706
546.593
546.494
546.401
546.319
546.23
546.144
546.047
545.952
545.85
545.742
545.639
545.532
545.444
545.363
545.263
545.156
545.064
544.965
544.867
544.76
544.717
544.668
544.598
544.545
544.533
544.516
544.507
544.478
544.393
544.306
544.216
544.126
544.034
543.942
543.848
543.754
543.659
543.563
543.466
543.368
543.27
543.171
543.072
542.972
542.872
542.771
542.67
542.568
542.466
542.364
542.262
542.159
542.056
541.953
541.85
541.747
541.643
541.539
541.436
541.332
541.228
541.123
541.019
540.915
540.811
540.707
540.602
552.522
552.456
552.379
552.293
552.202
552.121
552.05
551.986
551.913
551.843
551.776
551.683
551.583
551.477
551.384
551.296
551.17
551.089
551.046
550.965
550.922
550.846
550.754
550.671
550.521
550.364
550.213
550.08
549.937
549.777
549.615
549.467
549.282
549.102
548.92
548.813
548.692
548.521
548.403
548.265
548.174
548.059
547.931
547.864
547.806
547.714
547.611
547.473
547.338
547.166
546.99
546.864
546.745
546.616
546.533
546.455
546.422
546.327
546.237
546.092
545.983
545.842
545.665
545.549
545.432
545.408
545.391
545.242
545.056
545.006
544.863
544.728
544.587
544.776
544.708
544.619
544.532
544.491
544.513
544.503
544.481
544.404
544.309
544.215
544.123
544.032
543.939
543.846
543.752
543.656
543.561
543.464
543.366
543.268
543.17
543.071
542.971
542.871
542.77
542.669
542.567
542.466
542.364
542.261
542.159
542.056
541.953
541.85
541.746
541.643
541.539
541.435
541.331
541.227
541.123
541.019
540.915
540.811
540.707
540.602
552.545
552.497
552.418
552.314
552.199
552.132
552.113
552.096
552.002
551.921
551.87
551.746
551.655
551.52
551.461
551.45
551.275
551.288
551.396
551.23
551.367
551.276
551.009
550.937
550.735
550.539
550.16
549.932
549.789
549.626
549.466
549.314
549.11
548.901
548.777
548.719
548.673
548.568
548.422
548.247
548.101
547.97
547.797
547.896
548.045
547.888
547.786
547.612
547.436
547.137
546.812
546.844
546.807
546.592
546.53
546.47
546.646
546.525
546.432
546.074
546.014
545.899
545.536
545.23
545.16
545.714
545.594
545.151
544.801
545.057
544.706
544.14
544.552
545.778
544.708
544.479
545.069
544.411
544.501
544.5
544.479
544.434
544.31
544.213
544.121
544.029
543.937
543.844
543.75
543.655
543.559
543.463
543.365
543.267
543.169
543.07
542.97
542.87
542.769
542.668
542.567
542.465
542.363
542.261
542.158
542.056
541.953
541.85
541.746
541.643
541.539
541.435
541.331
541.227
541.123
541.019
540.915
540.811