0.010101 	8.36657e-09 	1.05988e-13 	3.71264e-11
0.020202 	9.06168e-10 	-2.06751e-13 	1.32765e-11
