0 	-3.62956e-21 	0 	-5.8073e-20
0.010101 	2.47817e-20 	3.04828e-22 	-9.995e-20
0.020202 	3.95884e-20 	-2.70523e-22 	-6.34497e-20
0.030303 	-8.65093e-20 	-2.70693e-22 	-8.62453e-20
0.040404 	1.06698e-19 	3.04487e-22 	-5.8135e-20
0.0505051 	-2.11811e-20 	-3.40652e-25 	-2.08869e-20
