/*--------------------------------*- C++ -*----------------------------------*\
  =========                 |
  \\      /  F ield         | OpenFOAM: The Open Source CFD Toolbox
   \\    /   O peration     | Website:  https://openfoam.org
    \\  /    A nd           | Version:  6
     \\/     M anipulation  |
\*---------------------------------------------------------------------------*/
FoamFile
{
    version     2.0;
    format      ascii;
    class       surfaceScalarField;
    location    "300";
    object      phi;
}
// * * * * * * * * * * * * * * * * * * * * * * * * * * * * * * * * * * * * * //

dimensions      [0 3 -1 0 0 0 0];

internalField   nonuniform List<scalar> 
9440
(
7.07006e-11
-7.07006e-11
1.31772e-09
-1.24702e-09
2.02345e-09
-7.05722e-10
2.48783e-09
-4.64376e-10
2.95105e-09
-4.63218e-10
2.91744e-09
3.36113e-11
3.08516e-09
-1.67718e-10
3.23373e-09
-1.48571e-10
3.23908e-09
-5.34416e-12
3.21774e-09
2.13389e-11
3.2145e-09
3.2483e-12
3.19544e-09
1.90583e-11
3.20125e-09
-5.80425e-12
3.22042e-09
-1.91745e-11
3.23917e-09
-1.87443e-11
3.22607e-09
1.31025e-11
3.20286e-09
2.32088e-11
3.20034e-09
2.51453e-12
3.22199e-09
-2.16446e-11
3.30038e-09
-7.83913e-11
3.39439e-09
-9.40037e-11
3.48021e-09
-8.58174e-11
3.52599e-09
-4.57838e-11
3.54657e-09
-2.05828e-11
3.55026e-09
-3.68871e-12
3.54379e-09
6.48073e-12
3.55977e-09
-1.59825e-11
3.5933e-09
-3.3533e-11
3.6448e-09
-5.14936e-11
3.68806e-09
-4.32574e-11
3.6993e-09
-1.12423e-11
3.7486e-09
-4.92926e-11
3.71417e-09
3.44244e-11
3.76507e-09
-5.08994e-11
3.80155e-09
-3.64767e-11
3.82139e-09
-1.98378e-11
3.83607e-09
-1.46789e-11
3.85071e-09
-1.46405e-11
3.87468e-09
-2.39693e-11
3.907e-09
-3.23237e-11
3.94496e-09
-3.7957e-11
3.99039e-09
-4.54316e-11
4.01501e-09
-2.46251e-11
4.01999e-09
-4.98383e-12
4.01212e-09
7.86924e-12
3.99681e-09
1.53006e-11
3.98562e-09
1.1187e-11
3.96645e-09
1.91709e-11
3.93551e-09
3.09316e-11
3.89497e-09
4.0539e-11
3.84944e-09
4.55237e-11
3.81856e-09
3.08779e-11
3.81425e-09
4.30233e-12
3.81635e-09
-2.10324e-12
3.82082e-09
-4.47474e-12
3.85334e-09
-3.25178e-11
3.87583e-09
-2.24939e-11
3.88595e-09
-1.01242e-11
3.89585e-09
-9.90313e-12
3.90287e-09
-7.01756e-12
3.9227e-09
-1.9824e-11
3.92278e-09
-8.05931e-14
3.92084e-09
1.93242e-12
3.91024e-09
1.0604e-11
3.89041e-09
1.9834e-11
3.86767e-09
2.2739e-11
3.84407e-09
2.36013e-11
3.79949e-09
4.45812e-11
3.78673e-09
1.27649e-11
3.69545e-09
9.12822e-11
3.68053e-09
1.49257e-11
3.53852e-09
1.42007e-10
3.42108e-09
1.17439e-10
3.21975e-09
2.01333e-10
2.93579e-09
2.83965e-10
2.63886e-09
2.96923e-10
1.78794e-09
8.50923e-10
9.46683e-10
8.41255e-10
3.14924e-10
6.31761e-10
-2.57353e-14
3.14966e-10
-1.20393e-18
-1.97731e-15
2.71483e-18
-3.90739e-18
2.66457e-18
5.05146e-20
2.02616e-18
6.42398e-19
1.45617e-18
5.69263e-19
1.04199e-18
4.13021e-19
7.59586e-19
2.82132e-19
5.74031e-19
1.86117e-19
4.57515e-19
1.17682e-19
3.89962e-19
6.92298e-20
3.5698e-19
3.51904e-20
3.48074e-19
1.17099e-20
3.55448e-19
-3.90187e-21
3.73236e-19
-1.3579e-20
3.97e-19
-1.87563e-20
4.23397e-19
-2.05318e-20
4.4994e-19
-1.9768e-20
4.74817e-19
-1.71569e-20
4.96744e-19
-1.326e-20
5.14838e-19
-8.53202e-21
5.2852e-19
-3.33804e-21
5.37437e-19
2.03341e-21
5.4139e-19
7.36082e-21
5.40293e-19
1.24821e-20
5.34134e-19
1.7288e-20
5.22965e-19
2.17155e-20
5.06899e-19
2.57392e-20
4.86119e-19
2.93604e-20
4.60878e-19
3.25978e-20
4.31499e-19
3.54766e-20
3.98362e-19
3.80238e-20
3.61886e-19
4.02631e-20
3.22513e-19
4.22144e-20
2.80681e-19
4.38926e-20
2.36818e-19
4.53097e-20
1.91322e-19
4.64747e-20
1.44568e-19
4.73956e-20
9.68969e-20
4.808e-20
4.8618e-20
4.85392e-20
4.87999e-20
1.03242e-09
-1.10312e-09
1.16627e-09
-1.38085e-09
1.7697e-09
-1.30915e-09
2.37404e-09
-1.0687e-09
2.51528e-09
-6.04453e-10
2.62084e-09
-7.19461e-11
2.63021e-09
-1.77085e-10
2.73376e-09
-2.52117e-10
2.86619e-09
-1.37774e-10
2.88011e-09
7.42611e-12
2.8343e-09
4.90593e-11
2.76761e-09
8.57485e-11
2.72024e-09
4.15723e-11
2.70631e-09
-5.24568e-12
2.71993e-09
-3.23586e-11
2.7243e-09
8.73211e-12
2.70994e-09
3.75675e-11
2.66446e-09
4.80032e-11
2.60998e-09
3.28296e-11
2.57444e-09
-4.28509e-11
2.56534e-09
-8.48947e-11
2.57632e-09
-9.67991e-11
2.61603e-09
-8.54923e-11
2.66586e-09
-7.04052e-11
2.71132e-09
-4.91454e-11
2.76189e-09
-4.40929e-11
2.78983e-09
-4.39175e-11
2.79791e-09
-4.16089e-11
2.79136e-09
-4.49438e-11
2.7915e-09
-4.33888e-11
2.82477e-09
-4.45087e-11
2.83326e-09
-5.7789e-11
2.90357e-09
-3.58814e-11
2.9246e-09
-7.19295e-11
2.96406e-09
-7.59344e-11
3.00416e-09
-5.99373e-11
3.03975e-09
-5.02712e-11
3.07314e-09
-4.80275e-11
3.10707e-09
-5.79068e-11
3.14356e-09
-6.88099e-11
3.18693e-09
-8.13324e-11
3.2391e-09
-9.76035e-11
3.28654e-09
-7.20768e-11
3.32193e-09
-4.03749e-11
3.34153e-09
-1.17359e-11
3.36653e-09
-9.7092e-12
3.37443e-09
3.27937e-12
3.38419e-09
9.40746e-12
3.40387e-09
1.12394e-11
3.42867e-09
1.57395e-11
3.45323e-09
2.09537e-11
3.46251e-09
2.15942e-11
3.44805e-09
1.87571e-11
3.43885e-09
7.09025e-12
3.43344e-09
9.29828e-13
3.41889e-09
-1.7977e-11
3.40251e-09
-6.1156e-12
3.40388e-09
-1.14974e-11
3.39469e-09
-7.12639e-13
3.38509e-09
2.58124e-12
3.3849e-09
-1.96294e-11
3.38726e-09
-2.44601e-12
3.37787e-09
1.13322e-11
3.36703e-09
2.14405e-11
3.35439e-09
3.2476e-11
3.34215e-09
3.49844e-11
3.31999e-09
4.57699e-11
3.29748e-09
6.70918e-11
3.25815e-09
5.20935e-11
3.20824e-09
1.41199e-10
3.14515e-09
7.80176e-11
3.09082e-09
1.9634e-10
2.98458e-09
2.23676e-10
2.76924e-09
4.16676e-10
2.6275e-09
4.25708e-10
2.18438e-09
7.40043e-10
2.21855e-09
8.16752e-10
1.64075e-09
1.41905e-09
1.34994e-09
9.22542e-10
7.23569e-15
1.66483e-09
1.83134e-17
4.36558e-15
6.67319e-18
7.733e-18
3.25715e-18
3.45662e-18
1.95329e-18
1.94331e-18
1.29992e-18
1.22253e-18
9.11096e-19
8.0268e-19
6.6357e-19
5.31162e-19
5.05596e-19
3.46366e-19
4.09063e-19
2.17381e-19
3.55923e-19
1.26531e-19
3.335e-19
6.28696e-20
3.32462e-19
1.9202e-20
3.45771e-19
-9.45077e-21
3.68058e-19
-2.66969e-20
3.95225e-19
-3.52568e-20
4.24161e-19
-3.72478e-20
4.52551e-19
-3.43649e-20
4.78714e-19
-2.79921e-20
5.01471e-19
-1.9271e-20
5.20032e-19
-9.1369e-21
5.33892e-19
1.65362e-21
5.42764e-19
1.25087e-20
5.46512e-19
2.29874e-20
5.45099e-19
3.27896e-20
5.38561e-19
4.17438e-20
5.26988e-19
4.97887e-20
5.10521e-19
5.69441e-20
4.89356e-19
6.32821e-20
4.63757e-19
6.88965e-20
4.34046e-19
7.38799e-20
4.00601e-19
7.83101e-20
3.63838e-19
8.22424e-20
3.24191e-19
8.57129e-20
2.82098e-19
8.8741e-20
2.37983e-19
9.13355e-20
1.92243e-19
9.34998e-20
1.45253e-19
9.52345e-20
9.73561e-20
9.65406e-20
4.88786e-20
9.74194e-20
9.78731e-20
8.54422e-10
-1.95754e-09
1.3779e-09
-1.90433e-09
1.54801e-09
-1.47925e-09
1.80555e-09
-1.32625e-09
1.97648e-09
-7.75375e-10
2.10086e-09
-1.96326e-10
2.08249e-09
-1.58706e-10
1.96714e-09
-1.36766e-10
1.8515e-09
-2.21338e-11
1.82519e-09
3.37435e-11
1.82944e-09
4.48094e-11
1.84976e-09
6.54283e-11
1.83638e-09
5.49556e-11
1.79747e-09
3.36733e-11
1.75932e-09
5.79094e-12
1.75754e-09
1.05102e-11
1.76838e-09
2.67315e-11
1.78474e-09
3.16435e-11
1.80991e-09
7.6634e-12
1.79709e-09
-3.0036e-11
1.78389e-09
-7.16904e-11
1.78083e-09
-9.37397e-11
1.80368e-09
-1.0834e-10
1.84088e-09
-1.07601e-10
1.86873e-09
-7.69964e-11
1.89968e-09
-7.50399e-11
1.9259e-09
-7.01275e-11
1.94831e-09
-6.40187e-11
1.97185e-09
-6.84852e-11
1.99544e-09
-6.69725e-11
2.01059e-09
-5.96614e-11
2.01313e-09
-6.0321e-11
2.03515e-09
-5.79052e-11
2.03408e-09
-7.08563e-11
2.03986e-09
-8.17131e-11
2.06288e-09
-8.29579e-11
2.10186e-09
-8.92496e-11
2.1497e-09
-9.58706e-11
2.19355e-09
-1.01764e-10
2.23077e-09
-1.06029e-10
2.25484e-09
-1.05408e-10
2.2582e-09
-1.00966e-10
2.28396e-09
-9.78354e-11
2.31639e-09
-7.28171e-11
2.34845e-09
-4.38017e-11
2.39686e-09
-5.81202e-11
2.42871e-09
-2.85733e-11
2.44205e-09
-3.94404e-12
2.46181e-09
-8.5228e-12
2.44065e-09
3.68888e-11
2.42848e-09
3.31223e-11
2.43515e-09
1.49139e-11
2.43433e-09
1.95765e-11
2.44338e-09
-1.96279e-12
2.45708e-09
-1.27718e-11
2.47563e-09
-3.65318e-11
2.45217e-09
1.73391e-11
2.48194e-09
-4.1269e-11
2.47147e-09
9.75353e-12
2.46511e-09
8.94259e-12
2.4404e-09
5.0803e-12
2.42575e-09
1.22127e-11
2.4257e-09
1.1379e-11
2.4217e-09
2.54416e-11
2.42535e-09
2.88323e-11
2.41982e-09
4.05133e-11
2.41646e-09
4.9136e-11
2.41248e-09
7.10794e-11
2.3781e-09
8.64707e-11
2.37099e-09
1.48313e-10
2.2642e-09
1.84813e-10
2.18146e-09
2.79076e-10
2.12425e-09
2.80893e-10
2.05387e-09
4.87058e-10
1.955e-09
5.2457e-10
1.91657e-09
7.78482e-10
1.65174e-09
1.08158e-09
1.4104e-09
1.66041e-09
5.44338e-10
1.78863e-09
2.83618e-15
2.20918e-09
2.39343e-18
5.75507e-15
2.39797e-18
7.72717e-18
1.74481e-18
4.10923e-18
1.23289e-18
2.45414e-18
8.80076e-19
1.57531e-18
6.39578e-19
1.04392e-18
4.78774e-19
6.9335e-19
3.76611e-19
4.50576e-19
3.18213e-19
2.78561e-19
2.92261e-19
1.5608e-19
2.89832e-19
6.9781e-20
3.0381e-19
1.06584e-20
3.28525e-19
-2.77178e-20
3.59498e-19
-5.01536e-20
3.93233e-19
-6.03698e-20
4.27044e-19
-6.13228e-20
4.58924e-19
-5.54107e-20
4.87436e-19
-4.46105e-20
5.11606e-19
-3.05595e-20
5.30822e-19
-1.46045e-20
5.44747e-19
2.1688e-21
5.53243e-19
1.89128e-20
5.56314e-19
3.49974e-20
5.54053e-19
4.99948e-20
5.46606e-19
6.36587e-20
5.34144e-19
7.58989e-20
5.16858e-19
8.67466e-20
4.94971e-19
9.63104e-20
4.6874e-19
1.04736e-19
4.38476e-19
1.12171e-19
4.04533e-19
1.18744e-19
3.67308e-19
1.24549e-19
3.27219e-19
1.29654e-19
2.84693e-19
1.34096e-19
2.40147e-19
1.37896e-19
1.93978e-19
1.41063e-19
1.46559e-19
1.43601e-19
9.8235e-20
1.45514e-19
4.93322e-20
1.46804e-19
1.47473e-19
4.79864e-10
-2.4374e-09
8.74075e-10
-2.29853e-09
1.11242e-09
-1.7176e-09
1.32854e-09
-1.54236e-09
1.30763e-09
-7.54459e-10
1.37961e-09
-2.68304e-10
1.35864e-09
-1.37732e-10
1.28231e-09
-6.04348e-11
1.2539e-09
6.27796e-12
1.24889e-09
3.87595e-11
1.24612e-09
4.75821e-11
1.26026e-09
5.12847e-11
1.2707e-09
4.45227e-11
1.2774e-09
2.69686e-11
1.26316e-09
2.00362e-11
1.24675e-09
2.69223e-11
1.23449e-09
3.89903e-11
1.23868e-09
2.74598e-11
1.23861e-09
7.73482e-12
1.22738e-09
-1.88103e-11
1.23231e-09
-7.66193e-11
1.25128e-09
-1.12703e-10
1.29859e-09
-1.55654e-10
1.32601e-09
-1.35014e-10
1.33888e-09
-8.98704e-11
1.32876e-09
-6.4917e-11
1.32095e-09
-6.23075e-11
1.3289e-09
-7.19746e-11
1.34085e-09
-8.04291e-11
1.3577e-09
-8.38199e-11
1.3719e-09
-7.38626e-11
1.36954e-09
-5.79594e-11
1.36133e-09
-4.96944e-11
1.34634e-09
-5.58658e-11
1.32307e-09
-5.8442e-11
1.3134e-09
-7.32836e-11
1.32023e-09
-9.60878e-11
1.33012e-09
-1.05755e-10
1.33936e-09
-1.11008e-10
1.36054e-09
-1.27209e-10
1.38654e-09
-1.31416e-10
1.40355e-09
-1.17973e-10
1.42305e-09
-1.17341e-10
1.45169e-09
-1.01462e-10
1.47536e-09
-6.74751e-11
1.50057e-09
-8.33425e-11
1.50614e-09
-3.41401e-11
1.559e-09
-5.68165e-11
1.59237e-09
-4.18921e-11
1.61437e-09
1.48813e-11
1.68021e-09
-3.27289e-11
1.753e-09
-5.78775e-11
1.78779e-09
-1.52232e-11
1.79939e-09
-1.35649e-11
1.79518e-09
-8.55861e-12
1.78012e-09
-2.14797e-11
1.7581e-09
3.93586e-11
1.75862e-09
-4.17955e-11
1.7402e-09
2.81767e-11
1.70191e-09
4.72323e-11
1.66595e-09
4.10402e-11
1.63741e-09
4.0755e-11
1.61663e-09
3.21639e-11
1.58346e-09
5.86177e-11
1.55158e-09
6.07187e-11
1.51217e-09
7.99219e-11
1.47628e-09
8.50274e-11
1.4415e-09
1.05864e-10
1.36925e-09
1.58722e-10
1.3724e-09
1.45169e-10
1.30267e-09
2.54544e-10
1.24561e-09
3.3614e-10
1.01042e-09
5.16081e-10
1.37535e-09
1.22128e-10
1.3891e-09
5.10817e-10
1.21526e-09
9.52319e-10
9.39715e-10
1.35712e-09
8.24124e-10
1.77599e-09
3.43703e-10
2.26905e-09
-1.2789e-15
2.55289e-09
-6.39546e-18
3.98839e-15
-1.21883e-18
2.54862e-18
9.07508e-20
2.80007e-18
3.54599e-19
2.19017e-18
3.4868e-19
1.58159e-18
2.8901e-19
1.10456e-18
2.35999e-19
7.47963e-19
2.04596e-19
4.84218e-19
1.95732e-19
2.90336e-19
2.05963e-19
1.49476e-19
2.3071e-19
4.94226e-20
2.65433e-19
-1.88899e-20
3.06089e-19
-6.23924e-20
3.49282e-19
-8.65464e-20
3.9228e-19
-9.57502e-20
4.32956e-19
-9.35926e-20
4.69724e-19
-8.303e-20
5.01487e-19
-6.6518e-20
5.27561e-19
-4.61007e-20
5.47595e-19
-2.34628e-20
5.61491e-19
3.65254e-23
5.69328e-19
2.33343e-20
5.71311e-19
4.56373e-20
5.67717e-19
6.63969e-20
5.58846e-19
8.52876e-20
5.44992e-19
1.02179e-19
5.26422e-19
1.17096e-19
5.03396e-19
1.30175e-19
4.76176e-19
1.41613e-19
4.45048e-19
1.51618e-19
4.10339e-19
1.6038e-19
3.72413e-19
1.68052e-19
3.31661e-19
1.74746e-19
2.88493e-19
1.80537e-19
2.43314e-19
1.85467e-19
1.96517e-19
1.89565e-19
1.48472e-19
1.92843e-19
9.95249e-20
1.95312e-19
5.0001e-20
1.96979e-19
1.97848e-19
4.50054e-10
-2.88745e-09
7.53289e-10
-2.60176e-09
1.20939e-09
-2.17369e-09
1.16239e-09
-1.49535e-09
9.79383e-10
-5.71453e-10
9.61965e-10
-2.50883e-10
9.31311e-10
-1.07075e-10
8.90981e-10
-2.01008e-11
8.94492e-10
2.76922e-12
9.0324e-10
3.0014e-11
9.00534e-10
5.02903e-11
9.0232e-10
4.95012e-11
9.04394e-10
4.24508e-11
9.01704e-10
2.96605e-11
8.83082e-10
3.86591e-11
8.53399e-10
5.66074e-11
8.26814e-10
6.5577e-11
8.17862e-10
3.6413e-11
8.08064e-10
1.75347e-11
7.95284e-10
-6.02909e-12
7.93977e-10
-7.53111e-11
8.05995e-10
-1.24719e-10
8.37681e-10
-1.87339e-10
8.54932e-10
-1.52263e-10
8.38061e-10
-7.2998e-11
7.91814e-10
-1.86677e-11
7.45982e-10
-1.64738e-11
7.37012e-10
-6.30033e-11
7.39897e-10
-8.33132e-11
7.58055e-10
-1.01976e-10
7.69728e-10
-8.55341e-11
7.83173e-10
-7.14034e-11
7.86445e-10
-5.29651e-11
7.67448e-10
-3.68686e-11
7.48022e-10
-3.90151e-11
7.39253e-10
-6.45152e-11
7.193e-10
-7.61352e-11
7.21254e-10
-1.0771e-10
7.24611e-10
-1.14366e-10
7.28396e-10
-1.30996e-10
7.73389e-10
-1.76411e-10
7.93088e-10
-1.37675e-10
8.19884e-10
-1.4414e-10
8.66953e-10
-1.48536e-10
9.21655e-10
-1.22182e-10
9.83285e-10
-1.44977e-10
1.03431e-09
-8.51662e-11
1.13475e-09
-1.5727e-10
1.18862e-09
-9.57628e-11
1.24499e-09
-4.14902e-11
1.31926e-09
-1.07007e-10
1.39776e-09
-1.36381e-10
1.40214e-09
-1.96068e-11
1.39619e-09
-7.61856e-12
1.39575e-09
-8.12662e-12
1.35661e-09
1.76589e-11
1.35306e-09
4.291e-11
1.2811e-09
3.01651e-11
1.25118e-09
5.80925e-11
1.20626e-09
9.21552e-11
1.15592e-09
9.13849e-11
1.09396e-09
1.02721e-10
1.02986e-09
9.62635e-11
9.81602e-10
1.06879e-10
9.17765e-10
1.24559e-10
8.5481e-10
1.42881e-10
8.08906e-10
1.30934e-10
7.94286e-10
1.20486e-10
8.01077e-10
1.51934e-10
8.20851e-10
1.25397e-10
8.79704e-10
1.95692e-10
8.43019e-10
3.72826e-10
8.93024e-10
4.66077e-10
1.05748e-09
-4.23302e-11
9.36958e-10
6.31344e-10
7.82112e-10
1.10717e-09
7.51182e-10
1.38805e-09
6.29139e-10
1.89803e-09
4.28489e-10
2.4697e-09
-2.47873e-16
2.98137e-09
-1.01835e-18
3.70819e-15
-9.66523e-19
2.49694e-18
-5.18165e-19
2.35188e-18
-2.53258e-19
1.92567e-18
-1.28349e-19
1.45751e-18
-6.75901e-20
1.04516e-18
-2.77449e-20
7.10051e-19
1.07132e-20
4.48285e-19
5.48723e-20
2.49292e-19
1.05909e-19
1.02156e-19
1.62397e-19
-2.7375e-21
2.21931e-19
-7.349e-20
2.81935e-19
-1.1688e-19
3.40078e-19
-1.38607e-19
3.94438e-19
-1.43482e-19
4.43519e-19
-1.35552e-19
4.86236e-19
-1.18203e-19
5.21904e-19
-9.42635e-20
5.50198e-19
-6.60927e-20
5.71095e-19
-3.56376e-20
5.84789e-19
-4.4697e-21
5.91631e-19
2.61811e-20
5.92071e-19
5.53929e-20
5.86608e-19
8.25194e-20
5.75737e-19
1.07164e-19
5.59909e-19
1.29153e-19
5.39502e-19
1.48502e-19
5.14834e-19
1.65369e-19
4.8618e-19
1.79999e-19
4.5381e-19
1.92667e-19
4.18012e-19
2.0364e-19
3.79107e-19
2.13145e-19
3.37451e-19
2.21356e-19
2.93423e-19
2.28401e-19
2.47411e-19
2.34362e-19
1.99795e-19
2.39293e-19
1.50941e-19
2.43227e-19
1.01192e-19
2.46185e-19
5.08698e-20
2.48182e-19
2.49229e-19
2.16806e-10
-3.10426e-09
4.48401e-10
-2.83336e-09
6.41093e-10
-2.36638e-09
7.76318e-10
-1.63057e-09
7.89933e-10
-5.85064e-10
7.37239e-10
-1.98186e-10
7.73215e-10
-1.43048e-10
7.16883e-10
3.62343e-11
6.73641e-10
4.60138e-11
6.50028e-10
5.36295e-11
6.43035e-10
5.7285e-11
6.3222e-10
6.0318e-11
6.15071e-10
5.96025e-11
5.81755e-10
6.29781e-11
5.32002e-10
8.8414e-11
4.77136e-10
1.11475e-10
4.43347e-10
9.93679e-11
4.27539e-10
5.22234e-11
4.21715e-10
2.33603e-11
4.24814e-10
-9.12645e-12
4.08876e-10
-5.93722e-11
3.99473e-10
-1.15314e-10
3.80698e-10
-1.68562e-10
3.89566e-10
-1.6113e-10
4.04093e-10
-8.75228e-11
3.99651e-10
-1.42249e-11
3.69959e-10
1.32197e-11
3.33206e-10
-2.62495e-11
3.03084e-10
-5.31897e-11
2.70009e-10
-6.89008e-11
2.54699e-10
-7.02226e-11
2.53856e-10
-7.05598e-11
2.66181e-10
-6.52899e-11
2.92322e-10
-6.30089e-11
3.2284e-10
-6.95328e-11
3.4472e-10
-8.63959e-11
3.67184e-10
-9.85992e-11
3.91647e-10
-1.32174e-10
4.3055e-10
-1.5327e-10
4.69557e-10
-1.70006e-10
5.22403e-10
-2.2926e-10
5.75737e-10
-1.91013e-10
6.32716e-10
-2.01123e-10
6.95314e-10
-2.11137e-10
7.85326e-10
-2.12198e-10
8.59176e-10
-2.18832e-10
9.24374e-10
-1.50369e-10
1.06879e-09
-3.01694e-10
1.12175e-09
-1.48726e-10
1.13193e-09
-5.16756e-11
1.2582e-09
-2.33284e-10
1.32531e-09
-2.03486e-10
1.31202e-09
-6.32404e-12
1.29472e-09
9.67898e-12
1.30046e-09
-1.38698e-11
1.26335e-09
5.47636e-11
1.22872e-09
7.75443e-11
1.17228e-09
8.66055e-11
1.12457e-09
1.05809e-10
1.08331e-09
1.33416e-10
1.02199e-09
1.52705e-10
9.46367e-10
1.78346e-10
8.82954e-10
1.5968e-10
8.17877e-10
1.7196e-10
7.50402e-10
1.92036e-10
6.96049e-10
1.97237e-10
6.57678e-10
1.69307e-10
6.53417e-10
1.24748e-10
6.54907e-10
1.50445e-10
6.35131e-10
1.45174e-10
6.9162e-10
1.39204e-10
7.00401e-10
3.64046e-10
1.15972e-09
6.75342e-12
8.76488e-10
2.40905e-10
8.27797e-10
6.80034e-10
8.37276e-10
1.09769e-09
7.47099e-10
1.47823e-09
5.56e-10
2.08913e-09
2.81201e-10
2.7445e-09
-3.82026e-15
3.26258e-09
-7.70523e-19
4.29843e-18
-1.11058e-18
2.837e-18
-9.43339e-19
2.185e-18
-7.20484e-19
1.70363e-18
-5.40694e-19
1.27897e-18
-4.02699e-19
9.08893e-19
-2.8951e-19
5.9911e-19
-1.8828e-19
3.49833e-19
-9.22647e-20
1.56553e-19
1.01577e-21
1.26199e-20
9.16446e-20
-8.91603e-20
1.78541e-19
-1.55746e-19
2.60208e-19
-1.93527e-19
3.35203e-19
-2.0824e-19
4.02368e-19
-2.04962e-19
4.60868e-19
-1.88093e-19
5.10176e-19
-1.61367e-19
5.50075e-19
-1.27905e-19
5.80654e-19
-9.03005e-20
6.02262e-19
-5.0687e-20
6.15439e-19
-1.07808e-20
6.20842e-19
2.80803e-20
6.19197e-19
6.48953e-20
6.11252e-19
9.89592e-20
5.97726e-19
1.29831e-19
5.79258e-19
1.5731e-19
5.56369e-19
1.81403e-19
5.29463e-19
2.0229e-19
4.98849e-19
2.20262e-19
4.64783e-19
2.35668e-19
4.27516e-19
2.48858e-19
3.87319e-19
2.60145e-19
3.44496e-19
2.69786e-19
2.99384e-19
2.77974e-19
2.52342e-19
2.84847e-19
2.03729e-19
2.90497e-19
1.53899e-19
2.94987e-19
1.03189e-19
2.98355e-19
5.19169e-20
3.00628e-19
3.01826e-19
1.4831e-10
-3.25256e-09
5.14073e-10
-3.19911e-09
6.67941e-10
-2.52024e-09
6.76704e-10
-1.63933e-09
7.04357e-10
-6.12715e-10
7.24915e-10
-2.18742e-10
6.30903e-10
-4.90328e-11
5.81838e-10
8.53016e-11
5.26308e-10
1.01546e-10
4.74342e-10
1.05597e-10
4.25808e-10
1.05822e-10
3.96322e-10
8.98063e-11
3.57607e-10
9.83187e-11
2.97562e-10
1.23026e-10
2.3953e-10
1.46447e-10
2.12949e-10
1.38058e-10
2.01924e-10
1.10395e-10
1.86902e-10
6.72472e-11
1.74781e-10
3.54837e-11
1.65598e-10
5.81233e-14
1.08538e-10
-2.31123e-12
4.32917e-11
-5.00659e-11
-4.47954e-11
-8.04734e-11
-1.13496e-10
-9.24278e-11
-1.30446e-10
-7.05717e-11
-1.00293e-10
-4.43769e-11
-5.06461e-11
-3.64258e-11
-1.89317e-11
-5.7963e-11
6.41293e-12
-7.85335e-11
2.65186e-11
-8.90057e-11
5.21375e-11
-9.58409e-11
6.64385e-11
-8.48605e-11
9.18134e-11
-9.06645e-11
1.15973e-10
-8.71684e-11
1.53029e-10
-1.06589e-10
1.93689e-10
-1.27056e-10
2.42661e-10
-1.47572e-10
2.90927e-10
-1.8044e-10
3.50253e-10
-2.12598e-10
4.15859e-10
-2.35614e-10
4.62363e-10
-2.75766e-10
5.40033e-10
-2.68685e-10
6.082e-10
-2.69293e-10
6.74866e-10
-2.77806e-10
7.57218e-10
-2.94554e-10
8.6573e-10
-3.27348e-10
9.2097e-10
-2.05613e-10
1.0765e-09
-4.57226e-10
1.20268e-09
-2.7491e-10
1.09438e-09
5.66131e-11
1.27613e-09
-4.15034e-10
1.34223e-09
-2.69585e-10
1.34079e-09
-4.89194e-12
1.32708e-09
2.33911e-11
1.32858e-09
-1.53716e-11
1.29162e-09
9.17213e-11
1.24908e-09
1.20087e-10
1.20578e-09
1.29903e-10
1.14895e-09
1.62648e-10
1.08533e-09
1.97034e-10
1.02365e-09
2.14388e-10
9.51344e-10
2.50656e-10
8.78354e-10
2.32673e-10
8.22207e-10
2.2811e-10
7.64526e-10
2.49719e-10
7.05569e-10
2.56196e-10
6.69207e-10
2.0567e-10
6.3899e-10
1.54966e-10
6.03051e-10
1.86385e-10
6.0754e-10
1.40685e-10
6.16802e-10
1.29941e-10
7.80882e-10
1.99966e-10
7.89093e-10
-1.45749e-12
6.45842e-10
3.84156e-10
7.05081e-10
6.20794e-10
7.45578e-10
1.05719e-09
4.93542e-10
1.73027e-09
3.09094e-10
2.27357e-09
1.44516e-10
2.90908e-09
-1.31319e-16
3.40709e-09
-2.23039e-18
3.20242e-18
-1.76135e-18
2.36807e-18
-1.42359e-18
1.84785e-18
-1.14409e-18
1.42515e-18
-9.10677e-19
1.04701e-18
-7.12481e-19
7.12567e-19
-5.38787e-19
4.27742e-19
-3.8156e-19
1.95404e-19
-2.36197e-19
1.44125e-20
-1.00764e-19
-1.19233e-19
2.50591e-20
-2.11068e-19
1.4076e-19
-2.67218e-19
2.45495e-19
-2.93795e-19
3.38482e-19
-2.96587e-19
4.19236e-19
-2.80909e-19
4.87594e-19
-2.5149e-19
5.43638e-19
-2.12383e-19
5.87679e-19
-1.6696e-19
6.20267e-19
-1.17985e-19
6.42169e-19
-6.77069e-20
6.54301e-19
-1.79105e-20
6.57657e-19
3.00279e-20
6.53261e-19
7.50921e-20
6.42124e-19
1.16576e-19
6.25205e-19
1.54039e-19
6.03352e-19
1.87285e-19
5.77256e-19
2.16332e-19
5.47436e-19
2.41386e-19
5.14255e-19
2.62789e-19
4.77973e-19
2.8096e-19
4.38804e-19
2.96339e-19
3.96959e-19
3.09336e-19
3.52684e-19
3.20298e-19
3.06257e-19
3.29502e-19
2.57992e-19
3.37153e-19
2.08219e-19
3.43395e-19
1.57267e-19
3.48327e-19
1.05462e-19
3.52014e-19
5.31144e-20
3.545e-19
3.55815e-19
8.81359e-11
-3.3407e-09
2.83259e-10
-3.39423e-09
4.86884e-10
-2.72387e-09
6.25567e-10
-1.77801e-09
5.51117e-10
-5.38262e-10
6.05143e-10
-2.72765e-10
5.36184e-10
1.99278e-11
4.86456e-10
1.35033e-10
3.99536e-10
1.88469e-10
3.21933e-10
1.83203e-10
2.53399e-10
1.74358e-10
1.91411e-10
1.51797e-10
1.29243e-10
1.60488e-10
6.80952e-11
1.84176e-10
2.49341e-11
1.89611e-10
1.90324e-11
1.43962e-10
2.24644e-11
1.06965e-10
1.53874e-11
7.43263e-11
4.93371e-14
5.08237e-11
-2.44782e-11
2.45876e-11
-6.10795e-11
3.42918e-11
-7.69292e-11
-3.42145e-11
-1.10038e-10
-4.73632e-11
-1.36057e-10
-6.64077e-11
-1.46265e-10
-6.03624e-11
-1.35932e-10
-5.47083e-11
-1.13026e-10
-5.93314e-11
-9.90613e-11
-7.19268e-11
-8.53434e-11
-9.22508e-11
-7.14796e-11
-1.02869e-10
-5.81359e-11
-1.09184e-10
-3.45758e-11
-1.0842e-10
4.06935e-12
-1.2931e-10
4.98064e-11
-1.32906e-10
1.02623e-10
-1.59406e-10
1.51985e-10
-1.7642e-10
2.05587e-10
-2.01175e-10
2.50597e-10
-2.25452e-10
3.08884e-10
-2.70887e-10
3.77813e-10
-3.04544e-10
4.28889e-10
-3.26844e-10
5.1656e-10
-3.56359e-10
6.01968e-10
-3.54704e-10
6.91536e-10
-3.67377e-10
7.59678e-10
-3.62699e-10
8.87588e-10
-4.55262e-10
9.25682e-10
-2.43711e-10
1.12539e-09
-6.56936e-10
1.22134e-09
-3.70861e-10
1.19427e-09
8.36731e-11
1.3618e-09
-5.82563e-10
1.35138e-09
-2.59172e-10
1.37767e-09
-3.11828e-11
1.40756e-09
-6.49448e-12
1.36223e-09
2.99557e-11
1.34654e-09
1.07412e-10
1.31171e-09
1.54921e-10
1.25562e-09
1.85993e-10
1.18076e-09
2.37513e-10
1.10423e-09
2.73569e-10
1.03204e-09
2.86577e-10
9.70139e-10
3.12563e-10
9.10782e-10
2.92032e-10
8.50664e-10
2.8823e-10
7.87149e-10
3.13234e-10
7.42075e-10
3.01271e-10
6.99896e-10
2.4785e-10
6.13614e-10
2.41247e-10
5.91883e-10
2.08116e-10
5.75076e-10
1.57492e-10
5.91838e-10
1.13177e-10
6.76818e-10
1.14985e-10
5.81213e-10
9.41459e-11
6.43021e-10
3.22347e-10
6.77795e-10
5.8602e-10
6.02333e-10
1.13265e-09
5.53604e-10
1.779e-09
3.31121e-10
2.49606e-09
1.49853e-10
3.09034e-09
8.88868e-17
3.55695e-09
-3.0632e-18
1.216e-18
-2.28029e-18
1.58551e-18
-1.84513e-18
1.41323e-18
-1.52116e-18
1.10203e-18
-1.24487e-18
7.71902e-19
-9.97307e-19
4.6653e-19
-7.71125e-19
2.03462e-19
-5.62552e-19
-1.08322e-20
-3.69843e-19
-1.75557e-19
-1.92599e-19
-2.93439e-19
-3.10911e-20
-3.69273e-19
1.14182e-19
-4.08923e-19
2.42704e-19
-4.18561e-19
3.5416e-19
-4.04202e-19
4.48655e-19
-3.71484e-19
5.26701e-19
-3.25497e-19
5.89062e-19
-2.70628e-19
6.36653e-19
-2.10492e-19
6.70546e-19
-1.47987e-19
6.91965e-19
-8.54016e-20
7.02239e-19
-2.45131e-20
7.02722e-19
3.3347e-20
6.94744e-19
8.72264e-20
6.79588e-19
1.36488e-19
6.5845e-19
1.80759e-19
6.32399e-19
2.19894e-19
6.0231e-19
2.53956e-19
5.68838e-19
2.83196e-19
5.32426e-19
3.08013e-19
4.93352e-19
3.289e-19
4.518e-19
3.46386e-19
4.07922e-19
3.60978e-19
3.61888e-19
3.73126e-19
3.13908e-19
3.83197e-19
2.64234e-19
3.91473e-19
2.1315e-19
3.98162e-19
1.60954e-19
4.0341e-19
1.07948e-19
4.07315e-19
5.44299e-20
4.09944e-19
4.1134e-19
5.0782e-11
-3.39148e-09
1.51155e-10
-3.49461e-09
2.23066e-10
-2.79578e-09
3.98051e-10
-1.953e-09
5.3011e-10
-6.70319e-10
5.01515e-10
-2.44168e-10
4.53836e-10
6.76087e-11
3.82032e-10
2.06839e-10
3.01693e-10
2.6881e-10
2.23265e-10
2.61633e-10
1.62054e-10
2.35571e-10
1.06191e-10
2.07662e-10
5.5474e-11
2.11208e-10
1.5773e-11
2.2388e-10
-4.27654e-12
2.09663e-10
-1.00443e-11
1.49732e-10
-1.27279e-11
1.09651e-10
-2.26671e-11
8.42677e-11
-4.29743e-11
7.1133e-11
-6.75464e-11
4.91618e-11
-8.73972e-11
5.41445e-11
-1.18493e-10
-3.11712e-12
-1.35132e-10
-3.07225e-11
-1.53634e-10
-4.7904e-11
-1.57801e-10
-5.61945e-11
-1.50364e-10
-6.21443e-11
-1.34645e-10
-7.50497e-11
-1.21937e-10
-8.46342e-11
-9.84496e-11
-1.15738e-10
-8.31252e-11
-1.18193e-10
-6.53609e-11
-1.26948e-10
-3.81696e-11
-1.35612e-10
-3.40206e-12
-1.64078e-10
4.38598e-11
-1.80168e-10
9.0992e-11
-2.06539e-10
1.35467e-10
-2.20896e-10
1.85004e-10
-2.50713e-10
2.35562e-10
-2.76012e-10
2.8528e-10
-3.20605e-10
3.46257e-10
-3.65524e-10
4.16311e-10
-3.969e-10
4.92732e-10
-4.32782e-10
5.87945e-10
-4.49921e-10
6.87413e-10
-4.66848e-10
7.78106e-10
-4.53395e-10
9.29786e-10
-6.06946e-10
9.29729e-10
-2.43657e-10
1.14378e-09
-8.70992e-10
1.22369e-09
-4.50767e-10
1.38136e-09
-7.4006e-11
1.40831e-09
-6.09513e-10
1.40254e-09
-2.534e-10
1.41874e-09
-4.73883e-11
1.50745e-09
-9.52047e-11
1.44525e-09
9.21574e-11
1.41365e-09
1.39012e-10
1.37147e-09
1.97108e-10
1.30698e-09
2.50481e-10
1.21995e-09
3.24552e-10
1.13664e-09
3.56884e-10
1.0551e-09
3.68119e-10
9.94629e-10
3.73033e-10
9.28791e-10
3.57871e-10
8.496e-10
3.67422e-10
7.9113e-10
3.71704e-10
7.40414e-10
3.51986e-10
6.74595e-10
3.13667e-10
6.36671e-10
2.79169e-10
6.2013e-10
2.24655e-10
5.6742e-10
2.102e-10
5.58434e-10
1.22161e-10
5.64375e-10
1.09042e-10
5.8458e-10
7.39389e-11
6.38163e-10
2.68762e-10
6.60818e-10
5.63364e-10
6.23224e-10
1.17024e-09
5.7807e-10
1.82415e-09
3.58449e-10
2.71568e-09
1.77957e-10
3.27084e-09
5.83397e-16
3.7349e-09
-2.69236e-18
1.27296e-18
-2.45131e-18
1.34482e-18
-2.15517e-18
1.11702e-18
-1.85022e-18
7.97127e-19
-1.54987e-18
4.71835e-19
-1.26037e-18
1.7753e-19
-9.85419e-19
-7.07305e-20
-7.27276e-19
-2.67808e-19
-4.87726e-19
-4.13488e-19
-2.68433e-19
-5.10783e-19
-7.07409e-20
-5.6476e-19
1.04545e-19
-5.81701e-19
2.57062e-19
-5.68315e-19
3.86878e-19
-5.31155e-19
4.94642e-19
-4.76334e-19
5.8157e-19
-4.09371e-19
6.49198e-19
-3.35021e-19
6.99158e-19
-2.57152e-19
7.33131e-19
-1.78767e-19
7.52854e-19
-1.02137e-19
7.60099e-19
-2.89381e-20
7.56601e-19
3.96358e-20
7.44006e-19
1.02789e-19
7.23858e-19
1.60041e-19
6.97585e-19
2.1116e-19
6.66461e-19
2.5612e-19
6.3155e-19
2.95078e-19
5.93655e-19
3.2836e-19
5.53313e-19
3.56436e-19
5.10838e-19
3.79878e-19
4.66393e-19
3.99303e-19
4.20069e-19
4.15318e-19
3.71958e-19
4.28472e-19
3.22184e-19
4.39229e-19
2.70924e-19
4.47957e-19
2.18398e-19
4.54933e-19
1.64859e-19
4.60358e-19
1.10577e-19
4.6437e-19
5.58262e-20
4.67064e-19
4.685e-19
1.02138e-10
-3.49361e-09
2.97762e-10
-3.69023e-09
4.5654e-10
-2.95455e-09
5.10487e-10
-2.00694e-09
5.13378e-10
-6.73208e-10
4.4532e-10
-1.76108e-10
3.768e-10
1.36131e-10
3.47924e-10
2.35717e-10
2.83838e-10
3.32898e-10
2.04244e-10
3.4123e-10
1.35107e-10
3.0471e-10
7.28352e-11
2.69937e-10
2.26751e-11
2.61371e-10
-5.90664e-12
2.52464e-10
-1.32683e-11
2.17027e-10
-9.83029e-12
1.46296e-10
-6.54648e-12
1.06369e-10
-1.73323e-11
9.50558e-11
-5.02434e-11
1.04046e-10
-8.32194e-11
8.21399e-11
-1.01222e-10
7.21495e-11
-1.37829e-10
3.34916e-11
-1.56584e-10
-1.19658e-11
-1.71354e-10
-3.31328e-11
-1.72569e-10
-5.49784e-11
-1.67422e-10
-6.72903e-11
-1.53559e-10
-8.89117e-11
-1.31049e-10
-1.07144e-10
-1.07383e-10
-1.39403e-10
-9.24787e-11
-1.33097e-10
-7.82344e-11
-1.41193e-10
-5.18626e-11
-1.61984e-10
-1.49142e-11
-2.01027e-10
2.89303e-11
-2.24014e-10
6.54478e-11
-2.43058e-10
1.10518e-10
-2.65967e-10
1.57964e-10
-2.9816e-10
2.12924e-10
-3.30974e-10
2.67734e-10
-3.75418e-10
3.21524e-10
-4.19316e-10
3.92901e-10
-4.6828e-10
4.65173e-10
-5.05057e-10
5.63151e-10
-5.47901e-10
6.74208e-10
-5.77907e-10
7.73707e-10
-5.52896e-10
9.41674e-10
-7.74916e-10
1.042e-09
-3.43988e-10
1.12409e-09
-9.53081e-10
1.30009e-09
-6.26772e-10
1.44621e-09
-2.20122e-10
1.49571e-09
-6.59017e-10
1.50608e-09
-2.63768e-10
1.53618e-09
-7.74902e-11
1.5528e-09
-1.11822e-10
1.52348e-09
1.21473e-10
1.48796e-09
1.74536e-10
1.4398e-09
2.4527e-10
1.36474e-09
3.25549e-10
1.27286e-09
4.16438e-10
1.1779e-09
4.51848e-10
1.08149e-09
4.64528e-10
9.86756e-10
4.67766e-10
9.07399e-10
4.37228e-10
8.37026e-10
4.37794e-10
7.71257e-10
4.37472e-10
7.2302e-10
4.0022e-10
6.66955e-10
3.6973e-10
6.2529e-10
3.20832e-10
5.6535e-10
2.84592e-10
5.17029e-10
2.58518e-10
4.9874e-10
1.40447e-10
5.09247e-10
9.85338e-11
5.4559e-10
3.75942e-11
5.76028e-10
2.38322e-10
5.75512e-10
5.63879e-10
5.29459e-10
1.2163e-09
4.63032e-10
1.89058e-09
2.82343e-10
2.89636e-09
1.54154e-10
3.39902e-09
1.11611e-15
3.88906e-09
-2.61915e-18
2.02986e-18
-2.67787e-18
1.40359e-18
-2.47392e-18
9.11867e-19
-2.17445e-18
4.96344e-19
-1.84373e-18
1.39887e-19
-1.50863e-18
-1.58687e-19
-1.1825e-18
-3.97897e-19
-8.72955e-19
-5.78068e-19
-5.85022e-19
-7.01602e-19
-3.2241e-19
-7.73127e-19
-8.76816e-20
-7.98911e-19
1.1793e-19
-7.86345e-19
2.94222e-19
-7.43211e-19
4.41699e-19
-6.76993e-19
5.61605e-19
-5.94506e-19
6.5592e-19
-5.01779e-19
7.27067e-19
-4.03947e-19
7.77543e-19
-3.05122e-19
8.09761e-19
-2.08388e-19
8.26052e-19
-1.15934e-19
8.28673e-19
-2.92434e-20
8.19754e-19
5.07386e-20
8.01258e-19
1.2348e-19
7.74978e-19
1.88757e-19
7.42545e-19
2.4657e-19
7.05419e-19
2.97086e-19
6.64832e-19
3.40616e-19
6.21731e-19
3.77605e-19
5.76755e-19
4.08619e-19
5.30264e-19
4.34318e-19
4.82408e-19
4.55408e-19
4.33223e-19
4.7259e-19
3.82715e-19
4.86513e-19
3.30912e-19
4.97734e-19
2.779e-19
5.0671e-19
2.23823e-19
5.13793e-19
1.68872e-19
5.19242e-19
1.1327e-19
5.2324e-19
5.72624e-20
5.25914e-19
5.27344e-19
1.5911e-10
-3.65272e-09
2.08712e-10
-3.73983e-09
2.38893e-10
-2.98473e-09
3.44087e-10
-2.11213e-09
4.32367e-10
-7.61487e-10
3.98242e-10
-1.41981e-10
3.32503e-10
2.01873e-10
2.92541e-10
2.75681e-10
2.37281e-10
3.88161e-10
1.73002e-10
4.05512e-10
1.10829e-10