/*--------------------------------*- C++ -*----------------------------------*\
  =========                 |
  \\      /  F ield         | OpenFOAM: The Open Source CFD Toolbox
   \\    /   O peration     | Website:  https://openfoam.org
    \\  /    A nd           | Version:  6
     \\/     M anipulation  |
\*---------------------------------------------------------------------------*/
FoamFile
{
    version     2.0;
    format      ascii;
    class       volScalarField;
    location    "300";
    object      Su;
}
// * * * * * * * * * * * * * * * * * * * * * * * * * * * * * * * * * * * * * //

dimensions      [0 0 -1 0 0 0 0];

internalField   nonuniform List<scalar> 
4800
(
0.220089
0.219086
0.218069
0.217012
0.215902
0.214724
0.213476
0.212161
0.210779
0.209328
0.207812
0.206235
0.204601
0.202914
0.201179
0.199396
0.197569
0.1957
0.193796
0.191862
0.189901
0.187914
0.185901
0.183863
0.181798
0.179709
0.177596
0.175463
0.173311
0.171142
0.168954
0.166752
0.164536
0.162308
0.160073
0.157832
0.155587
0.153341
0.151099
0.148864
0.146638
0.144423
0.142222
0.140032
0.137855
0.135692
0.133542
0.131406
0.129282
0.127167
0.125059
0.122953
0.120845
0.118728
0.116596
0.114439
0.112249
0.110014
0.107725
0.10537
0.102941
0.100426
0.0978146
0.0950949
0.0922551
0.0892824
0.086162
0.082876
0.0794028
0.0757141
0.0717757
0.067544
0.062963
0.0579688
0.0524835
0.0464263
0.0397088
0.0323081
0.0243313
0.0159461
0.00367225
0.00531036
0.00312736
0.000779317
-0.00172235
-0.00435494
-0.00709392
-0.00991709
-0.0128059
-0.0157457
-0.0187248
-0.0217344
-0.0247676
-0.0278191
-0.0308849
-0.0339619
-0.0370478
-0.0401406
-0.043239
-0.0463419
-0.0494485
-0.052558
-0.0556699
-0.0587839
-0.0618996
-0.0650168
-0.0681351
-0.0712546
-0.0743749
-0.0774961
-0.0806179
-0.0837404
-0.0868634
-0.0899868
-0.0931106
-0.0962347
-0.099359
-0.102484
-0.105608
-0.108733
0.220085
0.21906
0.218012
0.216929
0.215794
0.214596
0.213327
0.211991
0.210592
0.209126
0.207595
0.206003
0.204354
0.202653
0.200903
0.199108
0.197268
0.195387
0.193467
0.191515
0.189535
0.18753
0.185502
0.18345
0.181375
0.179276
0.177153
0.175008
0.172842
0.170659
0.16846
0.166246
0.164021
0.161783
0.159538
0.157287
0.155035
0.152782
0.150534
0.148293
0.146062
0.143845
0.141642
0.139455
0.137282
0.135125
0.132984
0.130857
0.128744
0.126641
0.124545
0.12245
0.120352
0.118242
0.116115
0.11396
0.11177
0.109533
0.10724
0.10488
0.102442
0.0999171
0.0972944
0.0945627
0.0917104
0.088725
0.0855922
0.0822949
0.0788114
0.0751168
0.0711751
0.0669501
0.0623874
0.0574273
0.0519998
0.0460282
0.0394584
0.0322473
0.024419
0.0160715
0.00371821
0.00545357
0.00328495
0.0009255
-0.00159872
-0.00425577
-0.00701686
-0.00985845
-0.012762
-0.0157132
-0.0187012
-0.0217175
-0.0247557
-0.0278111
-0.0308798
-0.033959
-0.0370464
-0.0401404
-0.0432397
-0.0463432
-0.0494501
-0.0525599
-0.055672
-0.058786
-0.0619017
-0.0650188
-0.068137
-0.0712564
-0.0743766
-0.0774976
-0.0806193
-0.0837416
-0.0868644
-0.0899877
-0.0931114
-0.0962353
-0.0993595
-0.102484
-0.105609
-0.108733
0.220064
0.218998
0.217905
0.216773
0.215596
0.214361
0.213057
0.211684
0.210247
0.208749
0.207191
0.205575
0.203902
0.202176
0.200401
0.198581
0.196718
0.194814
0.192873
0.190897
0.18889
0.186858
0.184804
0.182728
0.180629
0.178507
0.176361
0.174193
0.172006
0.169801
0.167581
0.165346
0.163099
0.16084
0.158573
0.156303
0.154032
0.151764
0.149502
0.147249
0.145009
0.142783
0.140576
0.138388
0.136221
0.134072
0.131943
0.129831
0.127735
0.12565
0.123571
0.121495
0.119415
0.117321
0.115205
0.113059
0.110874
0.108637
0.10634
0.103972
0.101521
0.0989792
0.096337
0.0935842
0.0907093
0.0877008
0.0845454
0.0812282
0.077729
0.0740257
0.070084
0.0658699
0.06134
0.0564486
0.051128
0.0453092
0.038923
0.0319293
0.0243048
0.0161392
0.00381639
0.00577611
0.00362585
0.00122897
-0.00134952
-0.00405972
-0.00686643
-0.00974487
-0.0126773
-0.0156508
-0.0186559
-0.0216852
-0.0247333
-0.0277961
-0.0308704
-0.0339537
-0.0370442
-0.0401405
-0.0432414
-0.046346
-0.0494536
-0.0525638
-0.0556761
-0.0587903
-0.0619059
-0.0650228
-0.0681409
-0.07126
-0.07438
-0.0775007
-0.0806221
-0.0837441
-0.0868666
-0.0899896
-0.0931129
-0.0962366
-0.0993605
-0.102485
-0.105609
-0.108733
0.220031
0.218904
0.217754
0.216568
0.215338
0.214052
0.212703
0.211288
0.209812
0.208276
0.206682
0.205032
0.203327
0.20157
0.199763
0.19791
0.196014
0.194078
0.192104
0.190095
0.188055
0.185989
0.1839
0.181791
0.179659
0.177503
0.175323
0.173122
0.170902
0.168667
0.166418
0.164154
0.161878
0.159591
0.157296
0.154998
0.1527
0.150408
0.148123
0.145851
0.143596
0.141361
0.139147
0.136959
0.134795
0.132655
0.13054
0.128446
0.126373
0.124315
0.122264
0.120216
0.118164
0.116094
0.113998
0.111866
0.109689
0.107455
0.105157
0.102781
0.100318
0.0977575
0.0950924
0.0923133
0.0894096
0.0863712
0.083187
0.0798451
0.0763289
0.0726191
0.0686899
0.0645058
0.0600274
0.0552277
0.0500545
0.0444105
0.0382437
0.0315339
0.0242553
0.0164222
0.00408102
0.0063962
0.00420596
0.00170683
-0.000975579
-0.00377403
-0.00665103
-0.009584
-0.0125582
-0.0155636
-0.0185928
-0.0216405
-0.0247025
-0.0277758
-0.030858
-0.0339472
-0.037042
-0.0401414
-0.0432445
-0.0463506
-0.0494593
-0.0525701
-0.0556827
-0.0587968
-0.0619123
-0.0650291
-0.0681468
-0.0712655
-0.0743851
-0.0775054
-0.0806263
-0.0837478
-0.0868699
-0.0899924
-0.0931153
-0.0962385
-0.099362
-0.102486
-0.10561
-0.108733
0.219996
0.218799
0.217587
0.216343
0.215054
0.213712
0.212313
0.210852
0.209331
0.207751
0.206115
0.204424
0.202678
0.200881
0.199035
0.197143
0.195207
0.193231
0.191218
0.189169
0.187088
0.18498
0.182848
0.180697
0.178525
0.176328
0.174108
0.171866
0.169607
0.167334
0.165048
0.16275
0.160441
0.158122
0.155795
0.153466
0.151138
0.148816
0.146505
0.14421
0.141936
0.139688
0.137466
0.135275
0.133115
0.130985
0.128887
0.126815
0.124771
0.122744
0.120724
0.11871
0.116693
0.114655
0.112585
0.110476
0.108316
0.106092
0.103798
0.10142
0.0989491
0.096375
0.0936899
0.0908874
0.0879582
0.0848937
0.0816854
0.0783259
0.0748037
0.071101
0.0672011
0.0630725
0.0586804
0.0539869
0.0489581
0.0435167
0.0376322
0.0312902
0.0244829
0.0171994
0.00501908
0.00753609
0.00508781
0.00236118
-0.000492034
-0.0034161
-0.00638594
-0.0093881
-0.0124143
-0.0154588
-0.0185176
-0.0215877
-0.0246666
-0.0277527
-0.0308444
-0.0339407
-0.0370408
-0.0401439
-0.0432497
-0.0463576
-0.0494674
-0.0525788
-0.0556917
-0.0588059
-0.0619212
-0.0650375
-0.0681548
-0.071273
-0.0743919
-0.0775116
-0.0806319
-0.0837529
-0.0868743
-0.0899962
-0.0931185
-0.0962411
-0.099364
-0.102487
-0.10561
-0.108734
0.219956
0.218685
0.217402
0.216096
0.214754
0.21336
0.211909
0.210399
0.208828
0.2072
0.205515
0.203776
0.201984
0.200142
0.198251
0.196314
0.194334
0.192315
0.190257
0.188164
0.186037
0.18388
0.181699
0.179498
0.17728
0.175041
0.172778
0.170493
0.16819
0.165873
0.163544
0.161205
0.158857
0.156502
0.154141
0.151779
0.149418
0.147065
0.144725
0.142404
0.140108
0.137843
0.13561
0.133412
0.131253
0.129131
0.127049
0.124997
0.122985
0.120992
0.119006
0.117033
0.11506
0.113062
0.111029
0.108953
0.106819
0.104617
0.102336
0.0999665
0.0974967
0.094918
0.0922228
0.0894064
0.0864616
0.0833812
0.0801589
0.0767901
0.0732677
0.0695774
0.0657091
0.0616436
0.0573487
0.0527812
0.0479097
0.0427043
0.0371326
0.0312049
0.0250019
0.0187578
0.0131088
0.00945312
0.00624147
0.00313609
5.66932e-05
-0.00301794
-0.0060941
-0.00917382
-0.0122576
-0.0153455
-0.018437
-0.0215318
-0.0246295
-0.0277296
-0.0308319
-0.0339361
-0.0370419
-0.0401491
-0.0432577
-0.0463675
-0.0494785
-0.0525905
-0.0557036
-0.0588176
-0.0619325
-0.0650483
-0.068165
-0.0712824
-0.0744006
-0.0775195
-0.080639
-0.0837592
-0.0868798
-0.0900009
-0.0931225
-0.0962443
-0.0993665
-0.102489
-0.105611
-0.108734
0.219918
0.218572
0.21722
0.215851
0.214451
0.213004
0.2115
0.209937
0.208314
0.206633
0.204897
0.203107
0.201265
0.199374
0.197436
0.195453
0.193428
0.191363
0.189259
0.187119
0.184943
0.182734
0.180498
0.178243
0.175971
0.173682
0.171375
0.169046
0.1667
0.164339
0.161966
0.159583
0.157191
0.154793
0.152391
0.149988
0.14759
0.145199
0.142824
0.140471
0.138146
0.135857
0.133607
0.131398
0.129234
0.127117
0.125048
0.123015
0.121038
0.119087
0.117134
0.115211
0.11329
0.111341
0.109355
0.107322
0.105227
0.103056
0.100799
0.0984465
0.0959873
0.0934138
0.0907185
0.0878983
0.0849481
0.0818614
0.0786335
0.0752623
0.0717446
0.068072
0.0642383
0.060233
0.056019
0.0515784
0.0468872
0.0419238
0.0366614
0.0311366
0.0254838
0.0199633
0.0150226
0.0109198
0.00728353
0.00388015
0.000596073
-0.00262275
-0.0058033
-0.00896023
-0.0121019
-0.0152336
-0.0183584
-0.0214785
-0.0245953
-0.0277099
-0.030823
-0.0339352
-0.0370468
-0.0401581
-0.0432695
-0.0463811
-0.0494931
-0.0526055
-0.0557185
-0.0588322
-0.0619465
-0.0650616
-0.0681774
-0.0712939
-0.0744111
-0.077529
-0.0806476
-0.0837667
-0.0868864
-0.0900066
-0.0931272
-0.0962482
-0.0993695
-0.102491
-0.105613
-0.108735
0.219878
0.218454
0.217031
0.215599
0.214141
0.212638
0.211082
0.209467
0.207792
0.206058
0.204269
0.202427
0.200535
0.198594
0.196609
0.194579
0.192508
0.190397
0.188245
0.186056
0.183831
0.181572
0.179287
0.176979
0.174653
0.172311
0.16995
0.167571
0.165174
0.162762
0.160338
0.157905
0.155463
0.153016
0.150566
0.148116
0.145671
0.143236
0.140818
0.138424
0.136063
0.133742
0.131468
0.129243
0.127071
0.124954
0.122899
0.120882
0.118942
0.11704
0.115128
0.113259
0.111396
0.109506
0.107577
0.105597
0.103549
0.10142
0.0991969
0.0968697
0.094429
0.0918688
0.0891821
0.0863664
0.0834184
0.0803332
0.0771078
0.0737416
0.0702348
0.0665845
0.062788
0.058839
0.0547137
0.0504078
0.0458992
0.0411656
0.0362008
0.0310443
0.0258206
0.0207483
0.0161002
0.0119157
0.00808929
0.00450172
0.00106704
-0.002269
-0.00553961
-0.00876562
-0.0119604
-0.0151329
-0.018289
-0.0214331
-0.0245683
-0.0276967
-0.0308202
-0.0339399
-0.0370569
-0.040172
-0.0432859
-0.0463989
-0.0495116
-0.0526241
-0.0557369
-0.0588499
-0.0619634
-0.0650775
-0.0681922
-0.0713075
-0.0744236
-0.0775403
-0.0806576
-0.0837756
-0.0868941
-0.0900132
-0.0931328
-0.0962527
-0.099373
-0.102493
-0.105614
-0.108735
0.219839
0.218337
0.216839
0.215339
0.213823
0.212264
0.210653
0.208986
0.20726
0.205475
0.203635
0.201743
0.199801
0.197813
0.19578
0.193704
0.191586
0.189426
0.187226
0.184987
0.182712
0.180402
0.178064
0.175702
0.173321
0.170921
0.168504
0.166069
0.163617
0.16115
0.158671
0.156181
0.153683
0.151181
0.148676
0.146172
0.143673
0.141186
0.138717
0.136276
0.133871
0.131512
0.129207
0.126961
0.124778
0.122659
0.120618
0.118616
0.116715
0.114863
0.113004
0.111196
0.109396
0.10757
0.105709
0.10379
0.101798
0.0997187
0.0975383
0.0952448
0.0928301
0.0902892
0.087617
0.0848118
0.0818718
0.0787943
0.0755781
0.0722255
0.0687378
0.065115
0.0613577
0.0574679
0.0534369
0.0492619
0.0449236
0.0404064
0.0357078
0.030863
0.0259714
0.0211993
0.0167202
0.0125522
0.00865521
0.0049693
0.00143798
-0.00198231
-0.0053226
-0.00860481
-0.0118443
-0.0150519
-0.0182355
-0.0214009
-0.0245524
-0.0276931
-0.0308257
-0.0339521
-0.0370737
-0.040192
-0.0433077
-0.0464217
-0.0495346
-0.0526468
-0.0557588
-0.0588709
-0.0619832
-0.065096
-0.0682093
-0.0713232
-0.0744379
-0.0775531
-0.0806691
-0.0837857
-0.086903
-0.0900208
-0.0931391
-0.0962578
-0.0993769
-0.102496
-0.105616
-0.108736
0.2198
0.218221
0.216648
0.215077
0.213495
0.211875
0.210209
0.208488
0.206712
0.204879
0.20299
0.201048
0.199058
0.197022
0.194942
0.192818
0.190652
0.188444
0.186195
0.183905
0.181578
0.179216
0.176823
0.174405
0.171966
0.169507
0.16703
0.164536
0.162025
0.1595
0.156961
0.154411
0.151853
0.149289
0.146724
0.14416
0.141603
0.139058
0.136534
0.13404
0.131586
0.129183
0.126841
0.124569
0.122372
0.12025
0.118225
0.116242
0.114377
0.112577
0.11078
0.10904
0.107308
0.105552
0.103765
0.101915
0.0999872
0.097965
0.0958343
0.0935815
0.0911992
0.0886827
0.0860293
0.0832397
0.080313
0.0772486
0.0740479
0.0707136
0.0672488
0.0636579
0.0599452
0.0561185
0.0521776
0.0481226
0.043938
0.0396129
0.0351446
0.0305631
0.0259374
0.0213922
0.0170393
0.0129198
0.00901192
0.00528356
0.00169854
-0.00177545
-0.00516426
-0.00848801
-0.0117619
-0.0149974
-0.0182033
-0.0213861
-0.0245509
-0.0277017
-0.0308417
-0.0339733
-0.0370985
-0.0402188
-0.0433356
-0.0464499
-0.0495624
-0.0526739
-0.0557847
-0.0588954
-0.0620061
-0.0651173
-0.0682289
-0.0713411
-0.074454
-0.0775677
-0.0806821
-0.0837971
-0.0869129
-0.0900292
-0.0931461
-0.0962635
-0.0993813
-0.102499
-0.105618
-0.108736
0.219759
0.218095
0.216437
0.214789
0.213139
0.211459
0.209736
0.207962
0.206136
0.204254
0.202317
0.200328
0.198291
0.196208
0.194079
0.191906
0.189691
0.187435
0.185136
0.182796
0.180418
0.178002
0.175554
0.173079
0.17058
0.168061
0.165522
0.162966
0.160394
0.157807
0.155207
0.152595
0.149973
0.147347
0.144718
0.142091
0.139472
0.136868
0.134285
0.131734
0.129227
0.126777
0.124396
0.122093
0.11988
0.117753
0.115745
0.113789
0.111957
0.110211
0.108481
0.106811
0.105153
0.103474
0.101767
0.099992
0.0981323
0.0961726
0.0940967
0.0918906
0.0895463
0.0870605
0.084431
0.0816606
0.0787513
0.0757038
0.0725224
0.0692106
0.0657739
0.0622196
0.0585551
0.0547913
0.050934
0.0469873
0.0429409
0.0387844
0.0345156
0.0301608
0.0257595
0.021385
0.01714
0.0130816
0.00919408
0.00545837
0.00185089
-0.00165173
-0.00506991
-0.00842089
-0.0117186
-0.0149741
-0.0181961
-0.0213917
-0.0245664
-0.0277245
-0.0308697
-0.0340048
-0.0371321
-0.0402534
-0.0433703
-0.046484
-0.0495955
-0.0527055
-0.0558146
-0.0589234
-0.0620322
-0.0651413
-0.0682509
-0.0713611
-0.0744721
-0.0775839
-0.0806964
-0.0838097
-0.0869238
-0.0900385
-0.0931539
-0.0962698
-0.0993861
-0.102503
-0.10562
-0.108737
0.219713
0.217958
0.21621
0.214476
0.21275
0.211005
0.209221
0.207392
0.205515
0.203586
0.201602
0.199566
0.197482
0.195351
0.193175
0.190954
0.18869
0.186385
0.184038
0.181649
0.179219
0.176751
0.174248
0.171715
0.169156
0.166576
0.163975
0.161356
0.158721
0.156073
0.153412
0.150738
0.148054
0.145364
0.142672
0.139982
0.1373
0.134634
0.131991
0.129383
0.126823
0.124325
0.121903
0.11957
0.117339
0.115208
0.113213
0.111296
0.109495
0.107802
0.106144
0.104542
0.102957
0.101354
0.0997312
0.0980377
0.0962511
0.0943585
0.0923416
0.0901862
0.0878847
0.0854334
0.082833
0.0800865
0.077198
0.0741708
0.0710112
0.0677249
0.0643188
0.0608029
0.0571859
0.0534791
0.0496973
0.0458492
0.0419277
0.037921
0.0338247
0.0296543
0.0254371
0.0212223
0.017074
0.0130825
0.00923253
0.00551149
0.00190343
-0.00160851
-0.00504006
-0.00840544
-0.0117168
-0.0149843
-0.0182164
-0.02142
-0.0246007
-0.0277631
-0.030911
-0.0340476
-0.0371753
-0.0402963
-0.0434122
-0.0465243
-0.0496339
-0.0527417
-0.0558486
-0.058955
-0.0620614
-0.0651681
-0.0682753
-0.0713832
-0.074492
-0.0776016
-0.0807121
-0.0838235
-0.0869357
-0.0900487
-0.0931624
-0.0962766
-0.0993914
-0.102507
-0.105622
-0.108738
0.21966
0.217799
0.215948
0.214118
0.212309
0.210494
0.208646
0.206758
0.204829
0.202852
0.200822
0.198741
0.196612
0.194436
0.192214
0.189946
0.187635
0.185283
0.18289
0.180453
0.177974
0.175454
0.172896
0.170306
0.167688
0.165047
0.162385
0.159705
0.15701
0.154303
0.151583
0.14885
0.146105
0.143355
0.140602
0.13785
0.135108
0.132383
0.129683
0.127021
0.124409
0.121865
0.119405
0.117045
0.114797
0.112666
0.110675
0.108804
0.107038
0.105388
0.103799
0.102265
0.100752
0.0992211
0.0976772
0.0960669
0.0943582
0.0925372
0.0905839
0.0884829
0.0862286
0.0838167
0.0812492
0.0785309
0.0756673
0.0726631
0.0695273
0.0662709
0.0629003
0.0594246
0.0558551
0.0522029
0.0484857
0.0447205
0.040907
0.0370282
0.0330782
0.0290618
0.0250013
0.0209275
0.0168761
0.0129556
0.0091532
0.00546065
0.001867
-0.00163991
-0.00507206
-0.00844097
-0.011757
-0.0150291
-0.0182653
-0.0214719
-0.0246547
-0.0278181
-0.0309662
-0.0341021
-0.0372286
-0.0403477
-0.0434613
-0.0465709
-0.0496777
-0.0527827
-0.0558866
-0.0589901
-0.0620936
-0.0651975
-0.068302
-0.0714073
-0.0745136
-0.0776208
-0.0807291
-0.0838383
-0.0869485
-0.0900596
-0.0931714
-0.0962839
-0.099397
-0.102511
-0.105624
-0.108738
0.219596
0.217611
0.215644
0.213707
0.2118
0.209907
0.207989
0.20604
0.204057
0.202032
0.199956
0.197831
0.195659
0.19344
0.191176
0.188866
0.186512
0.184116
0.181679
0.179197
0.17667
0.174101
0.171491
0.168846
0.166172
0.163473
0.160754
0.158017
0.155266
0.152503
0.149726
0.146939
0.144139
0.141334
0.138525
0.135719
0.132923
0.130145
0.127395
0.124684
0.122028
0.119444
0.116951
0.114569
0.112312
0.110187
0.108201
0.106362
0.10464
0.103032
0.1015
0.100025
0.0985769
0.0971167
0.0956411
0.0941068
0.0924738
0.0907242
0.0888393
0.0867976
0.0845925
0.0822225
0.079691
0.0770055
0.0741713
0.0711969
0.0680931
0.064868
0.061529
0.0580897
0.054566
0.050971
0.0473181
0.0436226
0.0398937
0.0361167
0.0322883
0.0284065
0.0244829
0.0205344
0.0165759
0.0127273
0.00897774
0.00532205
0.00175282
-0.00173868
-0.00516155
-0.00852505
-0.0118379
-0.015108
-0.0183426
-0.0215476
-0.0247286
-0.0278899
-0.0310355
-0.0341686
-0.0372918
-0.0404076
-0.0435177
-0.0466237
-0.0497269
-0.0528283
-0.0559286
-0.0590286
-0.0621288
-0.0652294
-0.0683309
-0.0714333
-0.0745368
-0.0776414
-0.0807472
-0.0838542
-0.0869622
-0.0900712
-0.093181
-0.0962917
-0.099403
-0.102515
-0.105627
-0.108739
0.219514
0.217376
0.215274
0.213216
0.211201
0.20922
0.207226
0.205213
0.203173
0.201098
0.198978
0.196811
0.194598
0.19234
0.190038
0.18769
0.185299
0.182865
0.180388
0.177867
0.175298
0.172684
0.170027
0.167333
0.164607
0.161856
0.159085
0.156295
0.153491
0.150676
0.147851
0.145016
0.14217
0.139318
0.136464
0.133612
0.130773
0.127953
0.125164
0.122417
0.119727
0.117114
0.114598
0.112202
0.109945
0.107836
0.10587
0.104055
0.102369
0.100798
0.0993106
0.0978829
0.0964844
0.0950828
0.0936655
0.0921942
0.0906281
0.0889429
0.0871228
0.0851424
0.0829932
0.0806726
0.0781826
0.0755326
0.0727328
0.0697892
0.0667152
0.0635229
0.0602206
0.056821
0.0533396
0.0497904
0.0461889
0.0425511
0.0388926
0.0352008
0.031472
0.0277037
0.0239004
0.0200661
0.0161969
0.0124188
0.00872393
0.00510966
0.00157129
-0.00189744
-0.00530346
-0.00865429
-0.0119573
-0.0152196
-0.0184474
-0.0216465
-0.0248219
-0.027978
-0.0311185
-0.0342465
-0.0373649
-0.0404758
-0.0435811
-0.0466825
-0.0497811
-0.0528781
-0.0559743
-0.0590703
-0.0621666
-0.0652636
-0.0683617
-0.0714609
-0.0745614
-0.0776632
-0.0807664
-0.0838709
-0.0869765
-0.0900833
-0.0931911
-0.0962998
-0.0994092
-0.102519
-0.10563
-0.10874
0.219417
0.217094
0.214829
0.212629
0.210493
0.208411
0.206334
0.204249
0.202148
0.200022
0.197858
0.19565
0.1934
0.191108
0.188774
0.186396
0.183975
0.18151
0.179
0.176445
0.173842
0.171191
0.168495
0.165759
0.16299
0.160194
0.157377
0.154541
0.151693
0.148835
0.145969
0.143096
0.140215
0.137329
0.134441
0.131558
0.128689
0.125844
0.123032
0.120266
0.117559
0.114932
0.112409
0.110016
0.107772
0.105686
0.10375
0.101957
0.100298
0.0987547
0.0972979
0.0959049
0.0945391
0.0931772
0.0918025
0.0903761
0.0888618
0.0872322
0.0854691
0.0835462
0.0814522
0.079184
0.076743
0.0741336
0.0713703
0.0684605
0.0654161
0.0622507
0.058978
0.0556137
0.0521701
0.0486603
0.0451039
0.0415171
0.0379174
0.0342971
0.0306533
0.0269831
0.0232827
0.0195462
0.0157586
0.0120468
0.00840577
0.00483484
0.0013313
-0.0021094
-0.00549272
-0.00882497
-0.0121126
-0.0153617
-0.0185782
-0.0217673
-0.0249337
-0.0280816
-0.0312144
-0.0343354
-0.0374471
-0.0405517
-0.043651
-0.0467467
-0.04984
-0.0529319
-0.0560233
-0.0591147
-0.0622068
-0.0652999
-0.0683942
-0.07149
-0.0745872
-0.077686
-0.0807864
-0.0838882
-0.0869915
-0.090096
-0.0932016
-0.0963082
-0.0994156
-0.102524
-0.105632
-0.108741
0.219301
0.216756
0.214294
0.211929
0.209653
0.207456
0.205285
0.203121
0.200956
0.198775
0.196566
0.194321
0.192037
0.189716
0.187357
0.184956
0.182514
0.180027
0.177494
0.174915
0.172287
0.169609
0.166884
0.164116
0.161314
0.158484
0.155631
0.152761
0.14988
0.146989
0.144094
0.141195
0.138292
0.135387
0.132483
0.129586
0.126707
0.123856
0.121042
0.118278
0.115578
0.112962
0.110454
0.108083
0.10587
0.103819
0.101919
0.100156
0.0985166
0.0969848
0.0955376
0.0941579
0.0928069
0.0914642
0.0901111
0.0887084
0.0872246
0.0856343
0.0839143
0.0820401
0.0799938
0.0777726
0.0753799
0.0728196
0.070101
0.0672283
0.0642143
0.0610752
0.0578255
0.0544825
0.0510637
0.0475871
0.0440737
0.0405365
0.0369872
0.0334243
0.0298485
0.0262579
0.022643
0.0189898
0.0152747
0.0116233
0.00803335
0.00450602
0.00103979
-0.00236892
-0.00572478
-0.00903339
-0.0123006
-0.0155319
-0.0187329
-0.0219083
-0.0250625
-0.0281994
-0.0313223
-0.0344342
-0.0375376
-0.0406345
-0.0437267
-0.0468158
-0.0499029
-0.0529891
-0.0560751
-0.0591616
-0.062249
-0.0653378
-0.0684281
-0.0715202
-0.074614
-0.0777096
-0.0808071
-0.0839062
-0.0870068
-0.0901089
-0.0932123
-0.0963168
-0.0994222
-0.102528
-0.105635
-0.108742
0.219168
0.216364
0.213673
0.21111
0.208671
0.20634
0.20406
0.201808
0.199571
0.197333
0.195078
0.192795
0.190481
0.188135
0.185756
0.18334
0.180885
0.178387
0.175844
0.173253
0.170612
0.16792
0.165179
0.162394
0.159572
0.156721
0.153847
0.150957
0.148056
0.145148
0.142237
0.139327
0.136419
0.133514
0.130613
0.127725
0.124859
0.122026
0.119237
0.116504
0.11384
0.111263
0.108797
0.106474
0.104311
0.102306
0.100442
0.0987062
0.0970819
0.0955535
0.094101
0.0927094
0.0913504
0.0900031
0.0886478
0.0872462
0.0857715
0.0841994
0.0825045
0.080665
0.0786548
0.0764713
0.0741169
0.0715965
0.0689208
0.0660962
0.06313
0.0600322
0.0568117
0.0534892
0.0500875
0.0466273
0.0431331
0.0396281
0.0361203
0.0326045
0.0290819
0.0255505
0.0219989
0.0184096
0.014754
0.011155
0.00761243
0.00412834
0.000701418
-0.00267176
-0.00599581
-0.00927614
-0.0125183
-0.0157276
-0.0189091
-0.0220674
-0.0252064
-0.0283298
-0.0314406
-0.0345417
-0.0376352
-0.0407232
-0.0438073
-0.0468889
-0.0499691
-0.053049
-0.0561291
-0.0592103
-0.0622928
-0.065377
-0.0684631
-0.0715512
-0.0746415
-0.0777338
-0.0808281
-0.0839244
-0.0870225
-0.0901221
-0.0932232
-0.0963256
-0.0994289
-0.102533
-0.105638
-0.108743
0.219016
0.215918
0.212962
0.210169
0.207537
0.205044
0.202639
0.200284
0.197967
0.195667
0.193366
0.191047
0.188706
0.186339
0.183947
0.181523
0.179064
0.176565
0.174023
0.171434
0.168795
0.166103
0.16336
0.160573
0.157747
0.154892
0.152016
0.149124
0.146222
0.143316
0.140409
0.137508
0.134615
0.131732
0.12886
0.126005
0.123179
0.120395
0.117661
0.11499
0.112393
0.109887
0.107497
0.105249
0.103154
0.101201
0.0993714
0.0976531
0.0960336
0.0944994
0.0930326
0.0916162
0.090228
0.0888507
0.0874667
0.086042
0.0845532
0.0829752
0.08128
0.0794497
0.0774632
0.0753137
0.0729949
0.0705097
0.0678678
0.0650798
0.0621521
0.0590937
0.0559116
0.0526159
0.0492286
0.0457806
0.0422973
0.038806
0.0353222
0.031838
0.0283514
0.02486
0.0213516
0.0178075
0.014197
0.0106422
0.00714381
0.00370328
0.000318367
-0.00301525
-0.00630284
-0.00955015
-0.0127628
-0.0159459
-0.0191043
-0.0222422
-0.0253633
-0.0284709
-0.0315677
-0.0346563
-0.0377386
-0.0408166
-0.0438916
-0.046965
-0.0500378
-0.0531108
-0.0561848
-0.0592602
-0.0623375
-0.0654169
-0.0684986
-0.0715827
-0.0746693
-0.0777582
-0.0808494
-0.0839428
-0.0870382
-0.0901354
-0.0932341
-0.0963343
-0.0994356
-0.102538
-0.105641
-0.108744
0.218846
0.215418
0.212158
0.209098
0.206238
0.203554
0.201
0.198526
0.196119
0.19375
0.191399
0.189046
0.186682
0.184303
0.181904
0.179482
0.177029
0.174541
0.172012
0.169437
0.166813
0.164137
0.161409
0.158636
0.155825
0.152984
0.150125
0.147254
0.144375
0.141497
0.138623
0.135756
0.132902
0.130067
0.127251
0.12446
0.121705
0.118999
0.116353
0.113778
0.111284
0.108887
0.106604
0.104458
0.102446
0.100553
0.0987609
0.097057
0.095432
0.0938767
0.0923772
0.0909178
0.0894802
0.0880495
0.0866099
0.085136
0.0836054
0.0819966
0.0802861
0.0784532
0.0764737
0.0743387
0.0720428
0.0695838
0.0669686
0.0642075
0.0613061
0.0582706
0.0551118
0.0518418
0.0484729
0.0450305
0.0415466
0.0380552
0.0345789
0.03111
0.0276428
0.0241759
0.0206935
0.0171755
0.0135949
0.0100776
0.00662254
0.00322838
-0.000109741
-0.00339818
-0.00664365
-0.00985264
-0.013031
-0.0161838
-0.0193155
-0.0224301
-0.0255307
-0.0286204
-0.0317015
-0.0347762
-0.0378463
-0.0409133
-0.0439786
-0.0470432
-0.050108
-0.0531739
-0.0562413
-0.0593108
-0.0623826
-0.0654571
-0.0685343
-0.0716143
-0.0746971
-0.0777826
-0.0808706
-0.0839611
-0.0870538
-0.0901485
-0.093245
-0.0963429
-0.0994422
-0.102542
-0.105643
-0.108745
0.218655
0.214854
0.211248
0.207881
0.204759
0.201856
0.199129
0.196518
0.194007
0.191564
0.189161
0.186775
0.184392
0.182006
0.179611
0.177198
0.174761
0.172293
0.169789
0.167241
0.164646
0.162
0.159304
0.156565
0.153789
0.150986
0.148167
0.145342
0.142515
0.139694
0.13688
0.13408
0.131297
0.128539
0.12581
0.123116
0.120468
0.117876
0.115351
0.112904
0.110548
0.108293
0.106152
0.104127
0.102208
0.100377
0.0986188
0.0969245
0.0952853
0.0936942
0.0921452
0.0906262
0.0891228
0.0876219
0.0861101
0.0845676
0.0829752
0.0813129
0.0795593
0.0776966
0.0757037
0.0735686
0.0712836
0.0688423
0.0662431
0.0634936
0.0606014
0.0575717
0.054416
0.0511509
0.0477876
0.0443428
0.0408471
0.0373414
0.0338569
0.0303907
0.026928
0.0234645
0.019988
0.0164841
0.0129258
0.00944479
0.00603732
0.00269705
-0.00058565
-0.00382055
-0.00701647
-0.0101808
-0.0133197
-0.0164379
-0.0195395
-0.022628
-0.0257059
-0.0287759
-0.0318399
-0.0348996
-0.0379565
-0.0410118
-0.0440668
-0.0471221
-0.0501787
-0.0532371
-0.0562978
-0.0593612
-0.0624276
-0.065497
-0.0685697
-0.0716455
-0.0747245
-0.0778065
-0.0808914
-0.083979
-0.0870691
-0.0901613
-0.0932555
-0.0963514
-0.0994486
-0.102547
-0.105646
-0.108746
0.21843
0.2142
0.210207
0.206503
0.203087
0.199935
0.197012
0.194246
0.191622
0.189099
0.186644
0.184228
0.181832
0.179447
0.177062
0.174667
0.172253
0.169814
0.167343
0.164833
0.162279
0.159679
0.157033
0.154347
0.151628
0.148888
0.146139
0.14339
0.140646
0.137914
0.135196
0.132496
0.12982
0.127174
0.124566
0.122003
0.119495
0.117052
0.114684
0.112399
0.110208
0.108118
0.106134
0.104248
0.102436
0.100675
0.0989535
0.09727
0.0956185
0.0939902
0.0923759
0.0907702
0.0891734
0.0875788
0.0859746
0.0843439
0.0826714
0.08094
0.0791289
0.0772207
0.0751966
0.0730406
0.0707417
0.0682935
0.0656903
0.0629333
0.0600287
0.0569811
0.0538002
0.050503
0.0471091
0.0436425
0.0401266
0.0365964
0.0330875
0.029608
0.0261423
0.0226806
0.0192036
0.0157006
0.0121567
0.00871738
0.00537028
0.00209906
-0.00111378
-0.00428287
-0.00741943
-0.0105316
-0.0136252
-0.0167045
-0.0197727
-0.0228325
-0.0258859
-0.0289347
-0.0319804
-0.0350242
-0.0380673
-0.0411105
-0.0441547
-0.0472006
-0.0502488
-0.0532996
-0.0563536
-0.0594108
-0.0624716
-0.0655361
-0.0686042
-0.0716759
-0.0747512
-0.0778298
-0.0809116
-0.0839963
-0.0870838
-0.0901736
-0.0932656
-0.0963595
-0.0994548
-0.102551
-0.105649
-0.108746
0.218169
0.21345
0.209028
0.204949
0.201208
0.197782
0.19464
0.191705
0.188958
0.186354
0.18385
0.181409
0.179009
0.176633
0.174266
0.171895
0.169511
0.167107
0.164677
0.162214
0.159714
0.157175
0.154599
0.151991
0.149357
0.146708
0.144058
0.141418
0.138793
0.136187
0.1336
0.131033
0.128495
0.125995
0.123544
0.121148
0.118816
0.116556
0.114374
0.112278
0.110277
0.108376
0.106572
0.104838
0.10314
0.101457
0.0997789
0.0981001
0.0964125
0.094718
0.0930185
0.0913159
0.0896135
0.0879095
0.086196
0.084463
0.082698
0.0808834
0.0789986
0.0770265
0.074952
0.0727585
0.0704302
0.0679553
0.0653229
0.062527
0.0595746
0.0564729
0.0532311
0.0498722
0.0464157
0.0428875
0.0393209
0.0357488
0.0322045
0.0286979
0.0252127
0.0217381
0.0182586
0.014761
0.0112368
0.00785826
0.00459818
0.00142233
-0.00169854
-0.00478482
-0.00784961
-0.0109008
-0.013943
-0.0169791
-0.020011
-0.02304
-0.0260673
-0.0290938
-0.0321205
-0.0351479
-0.0381768
-0.0412076
-0.044241
-0.0472774
-0.0503171
-0.0533604
-0.0564076
-0.0594588
-0.0625142
-0.0655737
-0.0686374
-0.0717051
-0.0747767
-0.077852
-0.0809308
-0.0840128
-0.0870977
-0.0901853
-0.0932752
-0.0963671
-0.0994606
-0.102555
-0.105651
-0.108747
0.217872
0.2126
0.207699
0.203208
0.199114
0.195393
0.192011
0.188897
0.186024
0.183341
0.180794
0.178339
0.175944
0.173585
0.171244
0.168903
0.166555
0.164192
0.16181
0.159407
0.156978
0.154523
0.152044
0.149543
0.147027
0.144504
0.141987
0.139489
0.137016
0.134567
0.132141
0.129738
0.127367
0.125042
0.122776
0.120577
0.118452
0.116404
0.114437
0.112557
0.110767
0.109072
0.10746
0.105891
0.104326
0.102739
0.101113
0.0994346
0.0977009
0.0959181
0.0940999
0.0922673
0.0904327
0.0886015
0.0867668
0.0849201
0.0830498
0.0811358
0.0791606
0.0771069
0.0749583
0.0726943
0.0702964
0.0677514
0.0650496
0.0621836
0.0591552
0.0559716
0.0526327
0.0491658
0.0456107
0.0419906
0.0383427
0.034708
0.0311226
0.0275911
0.0240879
0.0205973
0.0171066
0.0136059
0.0101025
0.006823
0.00369734
0.000657598
-0.00234086
-0.00532308
-0.0083018
-0.0112826
-0.0142674
-0.0172564
-0.0202494
-0.0232462
-0.0262464
-0.0292501
-0.0322574
-0.0352682
-0.0382829
-0.0413014
-0.0443241
-0.047351
-0.0503824
-0.0534183
-0.056459
-0.0595043
-0.0625545
-0.0656093
-0.0686687
-0.0717325
-0.0748006
-0.0778728
-0.0809487
-0.0840281
-0.0871107
-0.0901961
-0.0932841
-0.0963741
-0.0994659
-0.102559
-0.105653
-0.108748
0.217547
0.211659
0.206226
0.201284
0.196805
0.19277
0.189135
0.185838
0.182841
0.18009
0.177513
0.175056
0.172676
0.170342
0.16803
0.165722
0.163412
0.161099
0.158783
0.156464
0.154138
0.151805
0.149463
0.147112
0.144754
0.142394
0.140043
0.137713
0.135415
0.133145
0.130897
0.128674
0.126484
0.124349
0.122287
0.12031
0.118419
0.116614
0.114894
0.113255
0.111697
0.110221
0.108805
0.107409
0.105994
0.104523
0.102953
0.101254
0.0994331
0.0975205
0.0955644
0.0935918
0.0916176
0.0896554
0.0876946
0.0857269
0.0837368
0.0817018
0.0796045
0.0774318
0.0751643
0.07278
0.0702607
0.0675883
0.0647527
0.0617489
0.0585776
0.0552595
0.0518011
0.0482101
0.0445343
0.0408134
0.0370814
0.0333824
0.0297573
0.0262124
0.0227091
0.0192146
0.0157071
0.0121769
0.00866789
0.00556736
0.00265591
-0.000192069
-0.00303248
-0.00588824
-0.00876692
-0.0116688
-0.0145911
-0.0175302
-0.0204828
-0.0234465
-0.0264194
-0.0294003
-0.0323883
-0.0353829
-0.0383835
-0.0413901
-0.0444023
-0.0474202
-0.0504436
-0.0534725
-0.0565069
-0.0595467
-0.0625919
-0.0656422
-0.0686976
-0.0717578
-0.0748226
-0.0778919
-0.0809651
-0.0840421
-0.0871225
-0.0902059
-0.093292
-0.0963804
-0.0994706
-0.102562