0.010101 	9.83314e-11 	-5.07536e-15 	1.56055e-12
0.020202 	3.25337e-12 	-9.21803e-16 	6.32909e-14
