/*--------------------------------*- C++ -*----------------------------------*\
  =========                 |
  \\      /  F ield         | OpenFOAM: The Open Source CFD Toolbox
   \\    /   O peration     | Website:  https://openfoam.org
    \\  /    A nd           | Version:  6
     \\/     M anipulation  |
\*---------------------------------------------------------------------------*/
FoamFile
{
    version     2.0;
    format      ascii;
    class       volScalarField;
    location    "510";
    object      dmdt;
}
// * * * * * * * * * * * * * * * * * * * * * * * * * * * * * * * * * * * * * //

dimensions      [0 0 0 0 0 0 0];

internalField   nonuniform List<scalar> 
5964
(
-0.360318
-0.315696
-0.275947
-0.242668
-0.215777
-0.194232
-0.176915
-0.162898
-0.151277
-0.14118
-0.131898
-0.122846
-0.113449
-0.10347
-0.0928881
-0.0822892
-0.0742248
-0.0715147
-0.0712716
-0.0714617
-0.071434
-0.0710673
-0.0703962
-0.0694851
-0.0683921
-0.0671637
-0.0658359
-0.0644368
-0.0629893
-0.0615116
-0.060019
-0.0585239
-0.0570363
-0.0555642
-0.0541135
-0.0526887
-0.0512926
-0.0499271
-0.0485925
-0.0472889
-0.0460151
-0.0447698
-0.043551
-0.0423568
-0.0411849
-0.0400331
-0.0388989
-0.0377803
-0.0366751
-0.0355814
-0.0344974
-0.0334213
-0.0323518
-0.0312876
-0.0302273
-0.0291701
-0.028115
-0.0270612
-0.0260082
-0.0249553
-0.0239021
-0.0228482
-0.0217933
-0.0207371
-0.0196794
-0.0186201
-0.0175591
-0.0164962
-0.0154313
-0.0143646
-0.0132959
-0.0122254
-0.0111532
-0.0100795
-0.00900416
-0.00792689
-0.00684683
-0.00576285
-0.00467436
-0.00358361
-0.00250203
-0.00146847
-0.000586288
-4.7655e-05
-0.359584
-0.314461
-0.275068
-0.24209
-0.215218
-0.193758
-0.176783
-0.163298
-0.152279
-0.142612
-0.133605
-0.124692
-0.115226
-0.104988
-0.0934799
-0.0806476
-0.0685162
-0.069317
-0.070872
-0.0716477
-0.0717354
-0.0713411
-0.0706125
-0.069647
-0.0685096
-0.0672463
-0.0658913
-0.0644713
-0.0630076
-0.0615176
-0.0600159
-0.0585142
-0.0570221
-0.055547
-0.0540948
-0.0526693
-0.0512734
-0.0499085
-0.048575
-0.0472726
-0.0460003
-0.0447565
-0.0435393
-0.0423467
-0.0411762
-0.0400257
-0.0388929
-0.0377754
-0.0366713
-0.0355786
-0.0344954
-0.0334202
-0.0323513
-0.0312876
-0.0302279
-0.029171
-0.0281163
-0.0270628
-0.02601
-0.0249573
-0.0239042
-0.0228504
-0.0217956
-0.0207394
-0.0196817
-0.0186224
-0.0175613
-0.0164983
-0.0154335
-0.0143666
-0.0132979
-0.0122274
-0.0111552
-0.0100814
-0.00900613
-0.00792906
-0.00684951
-0.00576647
-0.00467916
-0.00358827
-0.0025008
-0.00144837
-0.000530919
4.31365e-05
-0.359619
-0.314113
-0.274284
-0.241086
-0.214296
-0.193408
-0.177289
-0.164734
-0.154578
-0.145485
-0.136892
-0.12824
-0.118658
-0.108078
-0.0954389
-0.0788353
-0.025259
-0.0664302
-0.0711389
-0.0724351
-0.0724666
-0.0719175
-0.0710449
-0.0699643
-0.068738
-0.0674062
-0.0659982
-0.0645371
-0.0630417
-0.0615277
-0.0600082
-0.0584936
-0.0569927
-0.0555121
-0.0540568
-0.0526302
-0.0512347
-0.0498712
-0.0485399
-0.0472402
-0.0459709
-0.0447302
-0.0435161
-0.0423265
-0.041159
-0.0400112
-0.038881
-0.0377659
-0.0366639
-0.0355731
-0.0344916
-0.0334179
-0.0323504
-0.0312878
-0.0302291
-0.0291731
-0.028119
-0.0270661
-0.0260138
-0.0249614
-0.0239086
-0.022855
-0.0218002
-0.0207441
-0.0196864
-0.018627
-0.0175658
-0.0165028
-0.0154377
-0.0143708
-0.0133019
-0.0122313
-0.011159
-0.0100852
-0.00901003
-0.00793331
-0.00685471
-0.00577378
-0.00469021
-0.00360403
-0.00251778
-0.00145126
-0.000489342
0.000145724
-0.359569
-0.313705
-0.273237
-0.239778
-0.213402
-0.193429
-0.178481
-0.167118
-0.158058
-0.149736
-0.141795
-0.133543
-0.123799
-0.113164
-0.100846
-0.0868844
-0.0661852
-0.0734996
-0.0743964
-0.0743381
-0.0737207
-0.072793
-0.0716728
-0.070418
-0.069063
-0.067633
-0.0661488
-0.0646283
-0.0630871
-0.0615383
-0.0599929
-0.0584598
-0.0569464
-0.0554579
-0.0539984
-0.0525706
-0.0511759
-0.0498148
-0.048487
-0.0471915
-0.0459267
-0.0446908
-0.0434815
-0.0422965
-0.0411334
-0.0399898
-0.0388634
-0.0377518
-0.0366531
-0.0355651
-0.0344862
-0.0334148
-0.0323492
-0.0312884
-0.0302311
-0.0291764
-0.0281233
-0.0270713
-0.0260196
-0.0249677
-0.0239153
-0.0228619
-0.0218073
-0.0207512
-0.0196935
-0.018634
-0.0175727
-0.0165094
-0.0154442
-0.014377
-0.013308
-0.0122372
-0.0111648
-0.0100909
-0.0090158
-0.00793947
-0.00686206
-0.00578415
-0.00470714
-0.00363266
-0.00255995
-0.00148737
-0.000451631
0.000324603
-0.359454
-0.313293
-0.272229
-0.238709
-0.213192
-0.194504
-0.181078
-0.171196
-0.163378
-0.155886
-0.148447
-0.140371
-0.130359
-0.1197
-0.107745
-0.0955668
-0.0847903
-0.0810222
-0.0784985
-0.0767517
-0.0752716
-0.0738612
-0.0724388
-0.0709745
-0.0694632
-0.0679119
-0.0663322
-0.0647367
-0.0631372
-0.061544
-0.0599658
-0.0584094
-0.0568803
-0.0553824
-0.0539182
-0.0524894
-0.0510964
-0.0497389
-0.0484161
-0.0471264
-0.0458679
-0.0446384
-0.0434356
-0.0422568
-0.0410997
-0.0399617
-0.0388404
-0.0377336
-0.0366391
-0.035555
-0.0344795
-0.033411
-0.0323481
-0.0312895
-0.0302341
-0.029181
-0.0281293
-0.0270783
-0.0260275
-0.0249763
-0.0239244
-0.0228713
-0.0218169
-0.0207608
-0.0197031
-0.0186435
-0.0175819
-0.0165183
-0.0154528
-0.0143853
-0.013316
-0.012245
-0.0111724
-0.0100985
-0.00902338
-0.00794734
-0.00687098
-0.00579598
-0.00472587
-0.00366413
-0.00260254
-0.00149393
-0.000265579
0.000867499
-0.360107
-0.314684
-0.273242
-0.239378
-0.214629
-0.197468
-0.185669
-0.177196
-0.170433
-0.163797
-0.156606
-0.148515
-0.138187
-0.127255
-0.11519
-0.103293
-0.0929191
-0.0865927
-0.0819524
-0.0789701
-0.0768003
-0.0749751
-0.073271
-0.0715946
-0.0699145
-0.0682263
-0.0665358
-0.064852
-0.0631835
-0.061538
-0.0599213
-0.0583379
-0.0567911
-0.0552829
-0.0538141
-0.052385
-0.050995
-0.0496428
-0.0483268
-0.0470448
-0.0457945
-0.0445733
-0.0433787
-0.0422079
-0.0410583
-0.0399273
-0.0388125
-0.0377115
-0.0366224
-0.035543
-0.0344717
-0.033407
-0.0323473
-0.0312915
-0.0302384
-0.0291873
-0.0281372
-0.0270876
-0.0260378
-0.0249874
-0.023936
-0.0228833
-0.0218291
-0.0207731
-0.0197152
-0.0186554
-0.0175935
-0.0165296
-0.0154637
-0.0143958
-0.0133261
-0.0122548
-0.011182
-0.0101079
-0.00903272
-0.00795678
-0.00688099
-0.00580785
-0.00474263
-0.00369072
-0.0026379
-0.00149368
-6.89746e-05
0.00145031
-0.358182
-0.311045
-0.271447
-0.240395
-0.21777
-0.202393
-0.192022
-0.184732
-0.178695
-0.172905
-0.165894
-0.157639
-0.146899
-0.135175
-0.12222
-0.109402
-0.0978762
-0.0897153
-0.0840102
-0.0805342
-0.0780811
-0.0760304
-0.0741184
-0.0722493
-0.0703966
-0.0685598
-0.0667458
-0.0649624
-0.0632162
-0.061512
-0.0598527
-0.05824
-0.0566746
-0.0551561
-0.0536837
-0.0522559
-0.0508707
-0.0495258
-0.0482187
-0.0469465
-0.0457066
-0.0444958
-0.0433113
-0.0421502
-0.0410097
-0.0398871
-0.0387801
-0.0376862
-0.0366034
-0.0355297
-0.0344635
-0.0334031
-0.0323472
-0.0312946
-0.0302444
-0.0291955
-0.0281474
-0.0270993
-0.0260507
-0.0250012
-0.0239504
-0.0228981
-0.021844
-0.020788
-0.01973
-0.0186699
-0.0176076
-0.0165433
-0.0154768
-0.0144085
-0.0133383
-0.0122666
-0.0111934
-0.0101191
-0.0090438
-0.00796776
-0.00689196
-0.00581933
-0.00475679
-0.00371563
-0.00270079
-0.00167626
-0.000557184
0.000487355
-0.358891
-0.312566
-0.273489
-0.243683
-0.222682
-0.208852
-0.199682
-0.193494
-0.187842
-0.182878
-0.175951
-0.167225
-0.155897
-0.143027
-0.128766
-0.114171
-0.100252
-0.0896415
-0.0841925
-0.0812779
-0.0790785
-0.0770242
-0.0749783
-0.0729298
-0.0708966
-0.0688978
-0.0669476
-0.0650547
-0.0632238
-0.0614563
-0.059752
-0.0581093
-0.0565258
-0.0549985
-0.0535244
-0.0521002
-0.0507222
-0.0493872
-0.0480915
-0.0468318
-0.0456044
-0.0444062
-0.0432338
-0.0420842
-0.0409545
-0.0398419
-0.038744
-0.0376584
-0.0365829
-0.0355158
-0.0344553
-0.0333999
-0.0323483
-0.0312995
-0.0302524
-0.0292061
-0.0281601
-0.0271137
-0.0260664
-0.0250179
-0.0239678
-0.0229158
-0.0218619
-0.0208059
-0.0197476
-0.0186871
-0.0176244
-0.0165594
-0.0154924
-0.0144234
-0.0133526
-0.0122803
-0.0112068
-0.0101322
-0.00905659
-0.00798027
-0.00690395
-0.00583045
-0.00476737
-0.00373052
-0.00274359
-0.00182673
-0.000987479
-0.000310633
-0.360192
-0.315768
-0.277609
-0.248814
-0.229107
-0.216528
-0.208375
-0.202997
-0.197436
-0.193038
-0.185909
-0.176475
-0.16451
-0.150605
-0.134987
-0.118108
-0.100326
-0.0839335
-0.082253
-0.081487
-0.080031
-0.0780813
-0.0758996
-0.0736457
-0.071406
-0.0692252
-0.0671248
-0.0651134
-0.0631926
-0.0613598
-0.0596104
-0.0579389
-0.0563394
-0.0548061
-0.0533334
-0.0519159
-0.0505485
-0.0492265
-0.0479453
-0.0467006
-0.0454885
-0.0443051
-0.043147
-0.0420109
-0.0408936
-0.0397925
-0.038705
-0.0376287
-0.0365616
-0.0355018
-0.0344478
-0.033398
-0.0323513
-0.0313065
-0.0302629
-0.0292195
-0.0281758
-0.0271312
-0.0260853
-0.0250378
-0.0239883
-0.0229368
-0.021883
-0.0208268
-0.0197682
-0.0187072
-0.0176438
-0.0165781
-0.0155103
-0.0144405
-0.013369
-0.012296
-0.0112219
-0.0101469
-0.009071
-0.00799426
-0.00691712
-0.00584181
-0.00477544
-0.00373499
-0.00275185
-0.00186409
-0.00103831
0.000147347
-0.360912
-0.318207
-0.282082
-0.255083
-0.236653
-0.225011
-0.217521
-0.2126
-0.207157
-0.202785
-0.195357
-0.185412
-0.172866
-0.158027
-0.14118
-0.122269
-0.0995399
-0.0320784
-0.079657
-0.0824093
-0.0815068
-0.0794193
-0.0769505
-0.0744054
-0.071911
-0.0695213
-0.0672564
-0.0651198
-0.063107
-0.0612095
-0.0594176
-0.0577208
-0.0561096
-0.0545746
-0.0531077
-0.0517012
-0.0503484
-0.0490432
-0.0477799
-0.0465535
-0.0453594
-0.0441935
-0.0430518
-0.0419311
-0.040828
-0.0397398
-0.038664
-0.0375981
-0.0365403
-0.0354887
-0.0344418
-0.0333982
-0.0323567
-0.0313164
-0.0302765
-0.0292361
-0.0281949
-0.0271522
-0.0261077
-0.0250612
-0.0240124
-0.0229611
-0.0219073
-0.0208509
-0.0197919
-0.0187303
-0.0176661
-0.0165996
-0.0155308
-0.01446
-0.0133875
-0.0123137
-0.0112389
-0.0101632
-0.00908689
-0.00800965
-0.00693157
-0.00585412
-0.00478319
-0.00373454
-0.00273841
-0.00180479
-0.000447919
0.00604323
-0.36171
-0.320865
-0.286917
-0.26169
-0.244478
-0.233577
-0.22653
-0.221932
-0.21653
-0.211564
-0.203606
-0.193086
-0.180076
-0.164802
-0.147557
-0.128889
-0.109172
-0.0836278
-0.0884231
-0.086656
-0.0841133
-0.081171
-0.0781387
-0.0751822
-0.0723778
-0.0697539
-0.0673145
-0.0650507
-0.0629484
-0.0609912
-0.0591626
-0.057447
-0.0558304
-0.0543
-0.0528447
-0.0514547
-0.0501213
-0.0488372
-0.0475958
-0.0463911
-0.0452181
-0.0440722
-0.0429494
-0.041846
-0.0407589
-0.0396851
-0.0386221
-0.0375678
-0.0365201
-0.0354774
-0.0344381
-0.0334012
-0.0323653
-0.0313298
-0.0302937
-0.0292566
-0.0282178
-0.0271771
-0.0261341
-0.0250885
-0.0240403
-0.0229892
-0.0219353
-0.0208786
-0.0198189
-0.0187565
-0.0176914
-0.0166238
-0.0155538
-0.0144819
-0.0134082
-0.0123333
-0.0112575
-0.0101811
-0.00910407
-0.00802625
-0.0069473
-0.00586789
-0.00479236
-0.00373412
-0.00272364
-0.00181068
-0.000992434
0.000181727
-0.363269
-0.325135
-0.2931
-0.269225
-0.252906
-0.242376
-0.235482
-0.230886
-0.225291
-0.219383
-0.210668
-0.19945
-0.185882
-0.170316
-0.153253
-0.135515
-0.118351
-0.103915
-0.0970909
-0.0916557
-0.0871483
-0.0830769
-0.0793313
-0.0758909
-0.072745
-0.0698769
-0.0672637
-0.0648791
-0.0626962
-0.0606891
-0.0588339
-0.0571092
-0.0554961
-0.0539784
-0.0525421
-0.051175
-0.0498669
-0.048609
-0.0473937
-0.0462145
-0.0450659
-0.0439429
-0.0428412
-0.0417572
-0.0406877
-0.0396297
-0.0385808
-0.0375389
-0.0365021
-0.0354689
-0.0344379
-0.0334079
-0.032378
-0.0313473
-0.0303153
-0.0292814
-0.0282452
-0.0272064
-0.0261647
-0.0251201
-0.0240723
-0.0230213
-0.0219672
-0.0209098
-0.0198494
-0.018786
-0.0177198
-0.0166509
-0.0155796
-0.0145062
-0.0134311
-0.0123548
-0.0112778
-0.0102003
-0.00912238
-0.00804385
-0.00696414
-0.00588316
-0.00480332
-0.00373394
-0.00269927
-0.00175053
-0.000973612
-0.000453628
-0.364505
-0.328827
-0.298976
-0.276651
-0.261143
-0.250892
-0.244127
-0.239113
-0.232991
-0.225753
-0.215984
-0.203974
-0.189945
-0.174213
-0.157434
-0.140574
-0.125005
-0.1121
-0.103406
-0.0958868
-0.0898629
-0.0847657
-0.0803264
-0.0764091
-0.0729318
-0.0698336
-0.0670632
-0.0645751
-0.0623286
-0.0602875
-0.0584202
-0.0566994
-0.0551015
-0.0536067
-0.0521981
-0.0508616
-0.0495853
-0.0483592
-0.0471749
-0.0460253
-0.0449045
-0.0438072
-0.0427291
-0.0416664
-0.0406161
-0.0395752
-0.0385415
-0.0375129
-0.0364877
-0.0354645
-0.034442
-0.0334193
-0.0323955
-0.0313699
-0.0303419
-0.0293113
-0.0282776
-0.0272406
-0.0262002
-0.0251563
-0.0241087
-0.0230577
-0.0220031
-0.020945
-0.0198837
-0.0188191
-0.0177514
-0.016681
-0.0156081
-0.014533
-0.0134563
-0.0123783
-0.0112997
-0.0102207
-0.00914165
-0.00806222
-0.0069818
-0.00589959
-0.00481554
-0.00373273
-0.00266347
-0.00164636
-0.000780283
-0.000246228
-0.365481
-0.331964
-0.30437
-0.283699
-0.269095
-0.259134
-0.25231
-0.246291
-0.238976
-0.2301
-0.219214
-0.206496
-0.192122
-0.17633
-0.159753
-0.143513
-0.128916
-0.116652
-0.107415
-0.0988281
-0.0918127
-0.0859397
-0.0809322
-0.0766112
-0.0728531
-0.0695648
-0.066671
-0.0641087
-0.061824
-0.0597712
-0.0579111
-0.0562107
-0.0546422
-0.0531824
-0.0518119
-0.0505147
-0.0492776
-0.0480894
-0.0469413
-0.0458255
-0.0447359
-0.0436672
-0.042615
-0.0415757
-0.040546
-0.0395235
-0.0385059
-0.0374913
-0.0364783
-0.0354655
-0.0344518
-0.0334365
-0.0324189
-0.0313983
-0.0303744
-0.0293469
-0.0283156
-0.0272802
-0.0262409
-0.0251975
-0.0241501
-0.0230987
-0.0220434
-0.0209844
-0.0199218
-0.0188558
-0.0177865
-0.0167144
-0.0156396
-0.0145626
-0.0134838
-0.0124038
-0.0113232
-0.0102424
-0.0091618
-0.00808121
-0.00700003
-0.00591683
-0.00482876
-0.00373091
-0.00261935
-0.00151323
-0.000515651
0.000125252
-0.366847
-0.335819
-0.31016
-0.290744
-0.276762
-0.266704
-0.259094
-0.251402
-0.242516
-0.232334
-0.220631
-0.207395
-0.192765
-0.176985
-0.160741
-0.145088
-0.130988
-0.11891
-0.109509
-0.100401
-0.0928001
-0.0864133
-0.0810043
-0.0763913
-0.0724329
-0.0690161
-0.0660484
-0.0634525
-0.0611635
-0.0591273
-0.0572981
-0.0556381
-0.0541156
-0.0527047
-0.051384
-0.0501357
-0.0489457
-0.0478021
-0.0466954
-0.0456178
-0.044563
-0.0435257
-0.0425017
-0.0414873
-0.0404798
-0.0394766
-0.0384759
-0.0374759
-0.0364754
-0.0354732
-0.0344686
-0.0334607
-0.0324492
-0.0314335
-0.0304135
-0.0293889
-0.0283597
-0.0273258
-0.0262873
-0.0252442
-0.0241965
-0.0231446
-0.0220884
-0.0210281
-0.019964
-0.0188963
-0.0178252
-0.016751
-0.0156741
-0.0145948
-0.0135137
-0.0124314
-0.0113484
-0.0102654
-0.00918284
-0.00810075
-0.00701869
-0.0059348
-0.00484388
-0.0037336
-0.00258466
-0.00139753
-0.000278413
0.000465438
-0.368267
-0.339798
-0.315969
-0.297472
-0.283618
-0.273151
-0.264314
-0.254975
-0.244577
-0.232855
-0.219877
-0.206072
-0.191373
-0.175811
-0.160031
-0.144959
-0.131287
-0.119371
-0.109979
-0.100658
-0.0927604
-0.0860876
-0.0804482
-0.0756716
-0.0716114
-0.0681437
-0.065164
-0.0625846
-0.0603324
-0.0583463
-0.0565757
-0.0549787
-0.0535211
-0.0521745
-0.0509161
-0.0497272
-0.0485926
-0.0475003
-0.0464406
-0.0454056
-0.044389
-0.0433858
-0.0423919
-0.0414042
-0.0404199
-0.0394369
-0.0384536
-0.0374686
-0.0364807
-0.0354893
-0.0344935
-0.033493
-0.0324874
-0.0314764
-0.03046
-0.0294381
-0.0284108
-0.027378
-0.0263399
-0.0252967
-0.0242486
-0.0231957
-0.0221382
-0.0210765
-0.0200106
-0.0189409
-0.0178676
-0.0167911
-0.0157117
-0.0146299
-0.0135461
-0.0124611
-0.0113755
-0.0102898
-0.00920487
-0.0081209
-0.00703772
-0.00595347
-0.00486178
-0.00374611
-0.00257821
-0.00134823
-0.000165229
0.000631248
-0.369615
-0.343494
-0.321244
-0.303466
-0.289387
-0.278041
-0.267262
-0.255701
-0.243257
-0.230167
-0.21652
-0.202412
-0.187904
-0.172968
-0.157873
-0.143378
-0.130048
-0.118304
-0.109027
-0.099678
-0.0916864
-0.084916
-0.0792075
-0.0744008
-0.0703476
-0.0669169
-0.0639963
-0.0614909
-0.0593219
-0.0574236
-0.0557421
-0.0542332
-0.0528606
-0.0515948
-0.050412
-0.0492931
-0.0482227
-0.0471886
-0.0461811
-0.0451928
-0.0442177
-0.043251
-0.0422891
-0.0413292
-0.0403691
-0.0394069
-0.0384413
-0.0374714
-0.0364962
-0.0355153
-0.0345282
-0.0335347
-0.0325347
-0.0315281
-0.0305149
-0.0294952
-0.0284693
-0.0274372
-0.0263993
-0.0253556
-0.0243066
-0.0232524
-0.0221933
-0.0211296
-0.0200616
-0.0189896
-0.0179139
-0.0168347
-0.0157526
-0.0146679
-0.0135812
-0.0124932
-0.0114044
-0.0103158
-0.00922808
-0.00814179
-0.0070571
-0.00597249
-0.00488162
-0.00376697
-0.00259759
-0.00136001
-0.000163135
0.000645624
-0.370754
-0.346605
-0.32566
-0.308351
-0.29371
-0.280784
-0.267775
-0.25392
-0.239519
-0.22513
-0.21118
-0.197581
-0.18373
-0.16943
-0.154948
-0.140898
-0.127686
-0.115965
-0.106799
-0.0975252
-0.0895866
-0.0828777
-0.077252
-0.0725501
-0.0686186
-0.0653198
-0.0625355
-0.0601666
-0.0581308
-0.0563606
-0.0548006
-0.0534057
-0.0521391
-0.050971
-0.0498774
-0.0488393
-0.0478415
-0.0468722
-0.0459222
-0.0449845
-0.0440537
-0.0431256
-0.0421971
-0.041266
-0.0403305
-0.0393893
-0.0384415
-0.0374865
-0.0365237
-0.0355529
-0.0345741
-0.0335872
-0.0325922
-0.0315894
-0.0305789
-0.029561
-0.028536
-0.0275041
-0.0264657
-0.0254212
-0.0243708
-0.0233149
-0.0222538
-0.0211879
-0.0201174
-0.0190427
-0.0179641
-0.0168821
-0.0157969
-0.014709
-0.0136191
-0.0125277
-0.0114356
-0.0103436
-0.00925268
-0.00816364
-0.00707695
-0.00599171
-0.00490261
-0.00379414
-0.00263812
-0.00142277
-0.000252644
0.000537942
-0.371689
-0.349129
-0.329075
-0.311777
-0.296165
-0.280948
-0.265069
-0.248471
-0.232118
-0.216768
-0.202744
-0.189887
-0.177255
-0.164126
-0.15051
-0.137041
-0.124069
-0.112403
-0.103357
-0.0942262
-0.0864596
-0.0799589
-0.0745667
-0.0701085
-0.0664186
-0.0633515
-0.0607847
-0.0586171
-0.0567662
-0.0551652
-0.0537595
-0.0525047
-0.051365
-0.0503113
-0.0493202
-0.0483733
-0.0474562
-0.0465579
-0.04567
-0.0447863
-0.0439021
-0.0430142
-0.0421201
-0.0412183
-0.0403076
-0.0393872
-0.0384568
-0.0375162
-0.0365652
-0.035604
-0.0346327
-0.0336517
-0.0326611
-0.0316614
-0.030653
-0.0296362
-0.0286114
-0.0275792
-0.0265399
-0.0254939
-0.0244416
-0.0233835
-0.02232
-0.0212513
-0.020178
-0.0191002
-0.0180185
-0.0169332
-0.0158446
-0.0147533
-0.0136598
-0.0125648
-0.011469
-0.0103733
-0.00927889
-0.00818666
-0.00709745
-0.00601112
-0.00492443
-0.00382671
-0.00269841
-0.00153511
-0.000430443
0.000322339
-0.372452
-0.351092
-0.331466
-0.313467
-0.296232
-0.278356
-0.259286
-0.239925
-0.221962
-0.206243
-0.192849
-0.181137
-0.169884
-0.158073
-0.145288
-0.132202
-0.119393
-0.107716
-0.0987177
-0.0897612
-0.0822802
-0.0761433
-0.0711467
-0.0670806
-0.0637586
-0.0610265
-0.0587597
-0.0568587
-0.0552441
-0.0538526
-0.0526328
-0.0515434
-0.0505505
-0.0496269
-0.0487506
-0.0479046
-0.0470756
-0.0462537
-0.0454318
-0.0446047
-0.0437689
-0.0429221
-0.0420628
-0.0411902
-0.0403039
-0.0394038
-0.03849
-0.0375629
-0.0366229
-0.0356703
-0.0347057
-0.0337296
-0.0327425
-0.0317451
-0.0307379
-0.0297214
-0.0286963
-0.027663
-0.026622
-0.025574
-0.0245193
-0.0234585
-0.022392
-0.0213202
-0.0202435
-0.0191624
-0.0180771
-0.0169881
-0.0158959
-0.0148008
-0.0137035
-0.0126045
-0.0115048
-0.0104052
-0.00930684
-0.00821096
-0.00711862
-0.00603056
-0.00494634
-0.00386275
-0.00277397
-0.00168492
-0.000650473
0.000147035
-0.372889
-0.352149
-0.332318
-0.312957
-0.293526
-0.272589
-0.250271
-0.228489
-0.209414
-0.193866
-0.18145
-0.170986
-0.160993
-0.150545
-0.138829
-0.12631
-0.113697
-0.101921
-0.0928118
-0.0840395
-0.0769864
-0.0714073
-0.0669972
-0.0634872
-0.060666
-0.0583738
-0.0564889
-0.054918
-0.0535888
-0.0524446
-0.0514404
-0.0505393
-0.0497114
-0.048932
-0.0481816
-0.0474447
-0.0467099
-0.0459689
-0.0452158
-0.0444471
-0.0436606
-0.042855
-0.0420301
-0.041186
-0.0403232
-0.0394422
-0.038544
-0.0376292
-0.0366988
-0.0357536
-0.0347945
-0.0338222
-0.0328376
-0.0318415
-0.0308345
-0.0298175
-0.0287911
-0.0277559
-0.0267127
-0.0256619
-0.0246042
-0.0235401
-0.0224701
-0.0213946
-0.0203142
-0.0192291
-0.01814
-0.017047
-0.0159508
-0.0148516
-0.0137502
-0.012647
-0.011543
-0.0104392
-0.00933658
-0.0082365
-0.0071402
-0.00604914
-0.00496552
-0.00389322
-0.00283734
-0.00178822
-0.000635486
0.000828211
-0.373075
-0.352421
-0.331911
-0.310758
-0.288107
-0.264039
-0.238891
-0.215535
-0.196131
-0.181126
-0.169835
-0.160499
-0.151592
-0.142325
-0.131641
-0.119712
-0.107213
-0.0950673
-0.0854338
-0.0768553
-0.0704692
-0.065726
-0.06214
-0.0593686
-0.0571843
-0.0554345
-0.0540101
-0.0528294
-0.0518313
-0.0509692
-0.0502067
-0.0495142
-0.0488667
-0.0482437
-0.0476281
-0.0470071
-0.0463712
-0.045714
-0.0450315
-0.0443218
-0.0435842
-0.0428192
-0.0420275
-0.0412105
-0.0403695
-0.039506
-0.0386216
-0.0377175
-0.0367952
-0.0358558
-0.0349007
-0.0339309
-0.0329474
-0.0319514
-0.0309436
-0.0299249
-0.0288963
-0.0278585
-0.0268121
-0.0257579
-0.0246964
-0.0236284
-0.0225543
-0.0214747
-0.02039
-0.0193006
-0.0182071
-0.0171098
-0.0160092
-0.0149057
-0.0137998
-0.0126923
-0.0115838
-0.0104753
-0.00936804
-0.00826311
-0.00716181
-0.00606595
-0.00497939
-0.00391055
-0.0028673
-0.00178503
-0.000146941
0.0034346
-0.372997
-0.35195
-0.330354
-0.307054
-0.280931
-0.253926
-0.2269
-0.202611
-0.183238
-0.168955
-0.158763
-0.150295
-0.142159
-0.133883
-0.124138
-0.112781
-0.100228
-0.087176
-0.076015
-0.0678015
-0.0625779
-0.0590992
-0.0566318
-0.0547892
-0.0533691
-0.0522556
-0.0513647
-0.050631
-0.0500065
-0.0494578
-0.0489602
-0.0484933
-0.0480391
-0.0475817
-0.0471078
-0.0466073
-0.046073
-0.0455008
-0.044889
-0.0442375
-0.0435476
-0.0428212
-0.0420606
-0.0412684
-0.040447
-0.0395987
-0.0387258
-0.0378303
-0.036914
-0.0359786
-0.0350258
-0.0340568
-0.033073
-0.0320756
-0.0310658
-0.0300444
-0.0290125
-0.027971
-0.0269206
-0.0258621
-0.0247962
-0.0237236
-0.0226448
-0.0215605
-0.020471
-0.0193769
-0.0182786
-0.0171766
-0.0160712
-0.014963
-0.0138525
-0.0127402
-0.011627
-0.0105136
-0.00940114
-0.00829066
-0.00718327
-0.00608075
-0.00498783
-0.00391662
-0.00288986
-0.00191854
-0.000880562
0.000488381
-0.372603
-0.350465
-0.327195
-0.301717
-0.272651
-0.242927
-0.21448
-0.190336
-0.171736
-0.158369
-0.149008
-0.141258
-0.133637
-0.126132
-0.117121
-0.106229
-0.0933917
-0.0784551
-0.0629475
-0.0561769
-0.0532023
-0.0516235
-0.0505968
-0.0498423
-0.0492777
-0.0488759
-0.0485871
-0.048357
-0.0481487
-0.0479435
-0.0477313
-0.0475043
-0.0472533
-0.0469683
-0.0466403
-0.0462624
-0.0458303
-0.0453425
-0.0447996
-0.044204
-0.0435589
-0.042868
-0.0421354
-0.0413648
-0.0405598
-0.0397238
-0.0388596
-0.03797
-0.0370574
-0.0361238
-0.0351711
-0.0342011
-0.0332153
-0.032215
-0.0312017
-0.0301763
-0.02914
-0.0280937
-0.0270384
-0.0259748
-0.0249037
-0.0238258
-0.0227417
-0.0216519
-0.0205571
-0.0194578
-0.0183543
-0.0172472
-0.0161368
-0.0150236
-0.0139081
-0.0127909
-0.0116725
-0.0105539
-0.00943585
-0.00831918
-0.00720474
-0.00609411
-0.00499206
-0.00391162
-0.00288014
-0.00193799
-0.00111879
-0.000479446
-0.371981
-0.348332
-0.322956
-0.294963
-0.263109
-0.231225
-0.202221
-0.17936
-0.162775
-0.151027
-0.142454
-0.135201
-0.127962
-0.120574
-0.111991
-0.1015
-0.0883937
-0.0703805
-0.0287247
-0.0412489
-0.042594
-0.0436415
-0.0442711
-0.0446437
-0.0449419
-0.0453033
-0.045691
-0.0460314
-0.046288
-0.046458
-0.0465515
-0.0465768
-0.0465363
-0.0464277
-0.046247
-0.0459912
-0.0456594
-0.0452529
-0.0447752
-0.0442313
-0.0436265
-0.0429668
-0.0422577
-0.0415046
-0.0407121
-0.0398846
-0.0390258
-0.038139
-0.0372271
-0.0362927
-0.0353379
-0.0343647
-0.033375
-0.0323702
-0.0313518
-0.030321
-0.0292791
-0.028227
-0.0271657
-0.0260961
-0.0250189
-0.0239349
-0.0228448
-0.0217491
-0.0206485
-0.0195433
-0.0184342
-0.0173215
-0.0162057
-0.0150872
-0.0139665
-0.012844
-0.0117204
-0.0105962
-0.00947219
-0.00834887
-0.00722681
-0.00610728
-0.00499455
-0.00389993
-0.00284406
-0.00185163
-0.000955294
-0.000297737
-0.371058
-0.345265
-0.317112
-0.285895
-0.251421
-0.218997
-0.191905
-0.17164
-0.15745
-0.147393
-0.139688
-0.133025
-0.126305
-0.119003
-0.110605
-0.100574
-0.0880313
-0.0711214
-0.0462855
-0.0124884
-0.032139
-0.0359272
-0.0380234
-0.0393026
-0.0403111
-0.0414807
-0.0426581
-0.0436656
-0.0444498
-0.0450322
-0.0454523
-0.0457414
-0.0459168
-0.0459859
-0.0459511
-0.045814
-0.0455776
-0.0452469
-0.0448284
-0.0443298
-0.0437593
-0.0431247
-0.0424336
-0.0416926
-0.0409078
-0.0400844
-0.039227
-0.0383394
-0.037425
-0.0364868
-0.0355273
-0.0345486
-0.0335529
-0.0325416
-0.0315165
-0.0304789
-0.0294299
-0.0283708
-0.0273025
-0.0262258
-0.0251418
-0.024051
-0.0229541
-0.0218519
-0.0207448
-0.0196334
-0.0185182
-0.0173996
-0.016278
-0.0151539
-0.0140276
-0.0128996
-0.0117704
-0.0106405
-0.00951028
-0.00838011
-0.00725028
-0.00612179
-0.00499811
-0.00388658
-0.00279144
-0.0016888
-0.000534121
0.000469879
-0.370032
-0.342171
-0.311754
-0.278289
-0.242995
-0.211065
-0.186023
-0.168058
-0.15587
-0.147507
-0.141156
-0.135521
-0.129666
-0.122929
-0.114936
-0.105544
-0.0937688
-0.0786879
-0.061064
-0.0380488
-0.0122882
-0.029581
-0.0322753
-0.0338612
-0.0351317
-0.0372508
-0.0394464
-0.0412709
-0.0426629
-0.0436993
-0.0444678
-0.0450311
-0.0454258
-0.0456711
-0.0457774
-0.0457522
-0.0456033
-0.0453397
-0.0449717
-0.0445101
-0.0439658
-0.0433488
-0.0426687
-0.0419336
-0.0411507
-0.0403263
-0.0394656
-0.038573
-0.0376525
-0.0367073
-0.0357401
-0.0347534
-0.0337493
-0.0327297
-0.0316961
-0.03065
-0.0295926
-0.0285252
-0.0274487
-0.0263641
-0.0252722
-0.0241738
-0.0230696
-0.0219601
-0.0208461
-0.0197279
-0.0186061
-0.0174812
-0.0163534
-0.0152233
-0.0140912
-0.0129575
-0.0118225
-0.0106867
-0.00955022
-0.00841323
-0.00727587
-0.006139
-0.00500558
-0.00387981
-0.00275221
-0.00155487
-0.00016203
0.00119086
-0.368582
-0.337627
-0.30425
-0.269281
-0.235072
-0.205512
-0.182884
-0.167351
-0.157486
-0.151163
-0.146492
-0.142339
-0.137871
-0.132213
-0.125185
-0.116643
-0.105819
-0.0927122
-0.0780091
-0.0615289
-0.0437689
-0.0140822
-0.0273481
-0.0282964
-0.0286544
-0.0323636
-0.0360563
-0.038898
-0.0409758
-0.042502
-0.0436374
-0.0444829
-0.0450971
-0.0455134
-0.045752
-0.0458279
-0.0457549
-0.0455467
-0.0452178
-0.0447824
-0.0442542
-0.0436458
-0.0429684
-0.0422317
-0.0414442
-0.0406128
-0.0397436
-0.0388415
-0.0379108
-0.0369549
-0.035977
-0.0349795
-0.0339647
-0.0329344
-0.0318905
-0.0308343
-0.0297671
-0.0286901
-0.0276043
-0.0265107
-0.0254101
-0.0243033
-0.0231909
-0.0220737
-0.020952
-0.0198266
-0.0186978
-0.017566
-0.0164318
-0.0152954
-0.0141572
-0.0130175
-0.0118766
-0.0107348
-0.00959207
-0.00844845
-0.00730398
-0.00615959
-0.00501873
-0.00388833
-0.00277111
-0.00163987
-0.000446674
0.000593102
-0.36718
-0.33363
-0.298514
-0.26306
-0.229625
-0.201882
-0.181785
-0.168906
-0.161462
-0.157244
-0.154418
-0.151884
-0.149197
-0.144978
-0.139363
-0.132297
-0.122912
-0.111583
-0.098431
-0.0833005
-0.0665859
-0.04645
-0.0143741
-0.0229843
-0.0186735
-0.0267421
-0.0327277
-0.0366975
-0.0394709
-0.0414977
-0.0430104
-0.0441411
-0.0449696
-0.0455458
-0.0459024
-0.0460637
-0.0460506
-0.0458826
-0.0455784
-0.0451561
-0.0446321
-0.0440215
-0.0433373
-0.0425906
-0.0417909
-0.0409461
-0.0400626
-0.039146
-0.0382006
-0.0372303
-0.0362383
-0.035227
-0.0341989
-0.0331559
-0.0320996
-0.0310316
-0.029953
-0.0288652
-0.027769
-0.0266653
-0.0255552
-0.0244391
-0.0233179
-0.0221922
-0.0210624
-0.0199292
-0.0187929
-0.017654
-0.0165128
-0.0153698
-0.0142253
-0.0130794
-0.0119325
-0.0107846
-0.00963579
-0.00848579
-0.00733462
-0.00618314
-0.00503515
-0.00390034
-0.00279512
-0.00173349
-0.000719868
0.00012721
-0.365959
-0.330209
-0.293699
-0.258164
-0.226046
-0.200193
-0.182594
-0.172251
-0.166976
-0.164735
-0.163699
-0.162642
-0.161796
-0.159297
-0.155237
-0.150005
-0.142288
-0.132598
-0.120748
-0.106201
-0.0891235
-0.0696369
-0.0476181
-0.0204909
0.00201434
-0.0221113
-0.0303052
-0.0349161
-0.0382412
-0.0407547
-0.0426492
-0.0440603
-0.0450884
-0.0458043
-0.0462568
-0.0464817
-0.0465079
-0.0463609
-0.0460643
-0.0456395
-0.045106
-0.044481
-0.0437792
-0.0430132
-0.0421931
-0.0413276
-0.0404237
-0.0394871
-0.0385225
-0.0375337
-0.036524
-0.0354959
-0.0344519
-0.0333938
-0.0323232
-0.0312416
-0.0301502
-0.0290501
-0.0279423
-0.0268277
-0.025707
-0.024581
-0.0234502
-0.0223154
-0.0211769
-0.0200354
-0.0188912
-0.0177447
-0.0165964
-0.0154465
-0.0142953
-0.0131431
-0.01199
-0.0108361
-0.00968128
-0.0085252
-0.0073677
-0.00620938
-0.00505343
-0.00390889
-0.00279213
-0.00170535
-0.000533568
0.000947504
-0.364618
-0.326432
-0.28847
-0.253178
-0.223143
-0.200388
-0.18517
-0.176857
-0.17332
-0.172633
-0.173234
-0.173558
-0.174131
-0.173533
-0.171042
-0.167593
-0.161687
-0.153576
-0.143184
-0.129838
-0.113852
-0.0961018
-0.0769424
-0.0571703
-0.0427008
-0.0307178
-0.0299349
-0.0335118
-0.0372925
-0.0403476
-0.0426391
-0.0443116
-0.0455068
-0.0463274
-0.0468429
-0.0471019
-0.0471415
-0.0469929
-0.0466838
-0.0462391
-0.0456807
-0.0450279
-0.0442969
-0.0435012
-0.042652
-0.0417582
-0.0408273
-0.039865
-0.0388762
-0.0378647
-0.0368337
-0.0357858
-0.0347231
-0.0336476
-0.0325607
-0.0314638
-0.030358
-0.0292444
-0.0281239
-0.0269972
-0.0258652
-0.0247284
-0.0235874
-0.0224429
-0.0212952
-0.0201449
-0.0189924
-0.017838
-0.0166821
-0.015525
-0.014367
-0.0132083
-0.012049
-0.0108891
-0.00972841
-0.00856658
-0.00740325
-0.00623855
-0.00507426
-0.00391539
-0.00276478
-0.00155494
0.000217004
0.00388465
-0.363977
-0.324909
-0.286785
-0.251934
-0.222939
-0.201673
-0.188618
-0.182127
-0.179923
-0.180242
-0.182148
-0.183836
-0.185478
-0.186366
-0.185551
-0.183552
-0.17959
-0.173007
-0.16424
-0.152507
-0.138165
-0.121718
-0.102796
-0.080994
-0.0577751
-0.0179966
-0.0242553
-0.031096
-0.0365499
-0.0404224
-0.0431169
-0.0449897
-0.0462846
-0.0471524
-0.0476848
-0.0479406
-0.0479628
-0.0477866
-0.0474429
-0.046959
-0.0463591
-0.0456641
-0.0448914
-0.0440554
-0.0431677
-0.0422378
-0.0412729
-0.0402792
-0.0392612
-0.0382227
-0.0371667
-0.0360957
-0.0350117
-0.0339165
-0.0328113
-0.0316974
-0.0305758
-0.0294474
-0.028313
-0.0271734
-0.0260291
-0.0248808
-0.023729
-0.0225742
-0.0214169
-0.0202574
-0.0190961
-0.0179334
-0.0167697
-0.0156052
-0.0144401
-0.0132748
-0.0121092
-0.0109433
-0.00977699
-0.00860982
-0.0074413
-0.00627101
-0.00509884
-0.00392474
-0.002747
-0.00154854
-0.000221618
0.00137525
-0.363356
-0.323457
-0.285443
-0.251487
-0.223865
-0.204518
-0.193142
-0.187798
-0.186442
-0.187427
-0.19004
-0.192825
-0.195378
-0.197284
-0.197867
-0.197142
-0.19486
-0.189949
-0.182907
-0.173091
-0.160461
-0.145027
-0.126327
-0.103952
-0.0786084