/*--------------------------------*- C++ -*----------------------------------*\
  =========                 |
  \\      /  F ield         | OpenFOAM: The Open Source CFD Toolbox
   \\    /   O peration     | Website:  https://openfoam.org
    \\  /    A nd           | Version:  6
     \\/     M anipulation  |
\*---------------------------------------------------------------------------*/
FoamFile
{
    version     2.0;
    format      ascii;
    class       volScalarField;
    location    "510";
    object      p;
}
// * * * * * * * * * * * * * * * * * * * * * * * * * * * * * * * * * * * * * //

dimensions      [1 -1 -2 0 0 0 0];

internalField   nonuniform List<scalar> 
5964
(
103786
103786
103786
103786
103786
103786
103786
103786
103786
103786
103786
103786
103787
103787
103787
103787
103787
103783
103779
103775
103772
103769
103766
103764
103761
103759
103757
103755
103753
103751
103749
103748
103746
103744
103743
103742
103740
103739
103738
103737
103735
103734
103733
103732
103731
103730
103730
103729
103728
103727
103726
103726
103725
103724
103724
103723
103723
103722
103722
103721
103721
103720
103720
103720
103719
103719
103719
103718
103718
103718
103717
103717
103717
103717
103717
103717
103716
103716
103716
103716
103716
103716
103716
103716
103726
103726
103726
103726
103726
103726
103726
103726
103726
103726
103726
103726
103726
103726
103726
103726
103726
103724
103720
103717
103713
103710
103708
103705
103703
103700
103698
103696
103694
103692
103691
103689
103687
103686
103684
103683
103682
103680
103679
103678
103677
103676
103675
103674
103673
103672
103671
103670
103669
103669
103668
103667
103666
103666
103665
103665
103664
103664
103663
103663
103662
103662
103661
103661
103661
103660
103660
103660
103659
103659
103659
103659
103658
103658
103658
103658
103658
103658
103658
103658
103657
103657
103657
103657
103666
103666
103666
103666
103666
103666
103666
103666
103666
103666
103666
103666
103666
103666
103666
103666
103666
103666
103661
103658
103654
103651
103649
103646
103644
103641
103639
103637
103635
103634
103632
103630
103629
103627
103626
103624
103623
103622
103620
103619
103618
103617
103616
103615
103614
103613
103612
103611
103611
103610
103609
103608
103608
103607
103606
103606
103605
103605
103604
103604
103603
103603
103603
103602
103602
103602
103601
103601
103601
103600
103600
103600
103600
103600
103599
103599
103599
103599
103599
103599
103599
103599
103599
103599
103605
103605
103605
103605
103605
103605
103605
103605
103605
103605
103605
103605
103605
103605
103605
103605
103605
103605
103602
103598
103595
103592
103590
103587
103585
103583
103580
103578
103577
103575
103573
103571
103570
103568
103567
103565
103564
103563
103562
103560
103559
103558
103557
103556
103555
103554
103553
103553
103552
103551
103550
103550
103549
103548
103548
103547
103547
103546
103546
103545
103545
103544
103544
103544
103543
103543
103543
103542
103542
103542
103541
103541
103541
103541
103541
103541
103540
103540
103540
103540
103540
103540
103540
103540
103545
103545
103545
103545
103545
103545
103545
103545
103545
103545
103545
103545
103545
103545
103545
103545
103545
103545
103542
103539
103536
103533
103530
103528
103526
103524
103521
103519
103518
103516
103514
103512
103511
103509
103508
103507
103505
103504
103503
103502
103501
103499
103498
103497
103497
103496
103495
103494
103493
103492
103492
103491
103490
103490
103489
103488
103488
103487
103487
103486
103486
103486
103485
103485
103484
103484
103484
103484
103483
103483
103483
103483
103482
103482
103482
103482
103482
103482
103482
103481
103481
103481
103481
103481
103484
103484
103484
103484
103484
103484
103484
103484
103484
103484
103484
103484
103484
103484
103484
103484
103484
103484
103482
103479
103476
103474
103471
103469
103466
103464
103462
103460
103459
103457
103455
103453
103452
103450
103449
103448
103446
103445
103444
103443
103442
103441
103440
103439
103438
103437
103436
103435
103434
103434
103433
103432
103432
103431
103430
103430
103429
103429
103428
103428
103427
103427
103426
103426
103426
103425
103425
103425
103425
103424
103424
103424
103424
103423
103423
103423
103423
103423
103423
103423
103423
103423
103423
103423
103424
103424
103424
103424
103424
103424
103424
103424
103424
103424
103424
103424
103424
103424
103424
103424
103424
103424
103421
103419
103416
103414
103412
103409
103407
103405
103403
103401
103399
103398
103396
103394
103393
103391
103390
103389
103387
103386
103385
103384
103383
103382
103381
103380
103379
103378
103377
103376
103376
103375
103374
103373
103373
103372
103372
103371
103370
103370
103369
103369
103369
103368
103368
103367
103367
103367
103366
103366
103366
103366
103365
103365
103365
103365
103365
103364
103364
103364
103364
103364
103364
103364
103364
103364
103363
103363
103363
103363
103363
103363
103363
103363
103363
103363
103363
103363
103363
103363
103363
103363
103363
103363
103361
103359
103357
103354
103352
103350
103348
103346
103344
103342
103340
103339
103337
103335
103334
103332
103331
103330
103329
103327
103326
103325
103324
103323
103322
103321
103320
103319
103318
103317
103317
103316
103315
103315
103314
103313
103313
103312
103312
103311
103311
103310
103310
103309
103309
103309
103308
103308
103308
103307
103307
103307
103307
103306
103306
103306
103306
103306
103306
103305
103305
103305
103305
103305
103305
103305
103303
103303
103303
103303
103303
103303
103303
103303
103303
103303
103303
103303
103303
103303
103303
103303
103303
103303
103302
103299
103297
103295
103293
103290
103288
103286
103285
103283
103281
103279
103278
103276
103275
103273
103272
103271
103269
103268
103267
103266
103265
103264
103263
103262
103261
103260
103259
103259
103258
103257
103256
103256
103255
103254
103254
103253
103253
103252
103252
103251
103251
103251
103250
103250
103249
103249
103249
103249
103248
103248
103248
103248
103247
103247
103247
103247
103247
103247
103247
103247
103247
103246
103246
103246
103242
103242
103242
103242
103242
103242
103242
103242
103242
103242
103242
103242
103242
103243
103243
103243
103243
103243
103242
103240
103237
103235
103233
103231
103229
103227
103225
103223
103222
103220
103219
103217
103216
103214
103213
103212
103210
103209
103208
103207
103206
103205
103204
103203
103202
103201
103200
103200
103199
103198
103198
103197
103196
103196
103195
103195
103194
103193
103193
103193
103192
103192
103191
103191
103191
103190
103190
103190
103190
103189
103189
103189
103189
103188
103188
103188
103188
103188
103188
103188
103188
103188
103188
103188
103182
103182
103182
103182
103182
103182
103182
103182
103182
103182
103182
103182
103182
103182
103182
103182
103182
103182
103182
103180
103177
103175
103173
103171
103169
103167
103166
103164
103162
103161
103159
103158
103156
103155
103154
103153
103151
103150
103149
103148
103147
103146
103145
103144
103143
103142
103142
103141
103140
103139
103139
103138
103137
103137
103136
103136
103135
103135
103134
103134
103133
103133
103133
103132
103132
103132
103131
103131
103131
103130
103130
103130
103130
103130
103130
103129
103129
103129
103129
103129
103129
103129
103129
103129
103122
103122
103121
103121
103121
103121
103121
103121
103121
103121
103122
103122
103122
103122
103122
103122
103122
103122
103122
103119
103117
103115
103113
103111
103110
103108
103106
103105
103103
103101
103100
103099
103097
103096
103095
103093
103092
103091
103090
103089
103088
103087
103086
103085
103084
103083
103083
103082
103081
103080
103080
103079
103078
103078
103077
103077
103076
103076
103075
103075
103074
103074
103074
103073
103073
103073
103072
103072
103072
103072
103071
103071
103071
103071
103071
103071
103071
103070
103070
103070
103070
103070
103070
103070
103061
103061
103061
103061
103061
103061
103061
103061
103061
103061
103061
103061
103061
103061
103061
103061
103061
103061
103061
103059
103057
103055
103053
103052
103050
103048
103047
103045
103044
103042
103041
103039
103038
103037
103035
103034
103033
103032
103031
103030
103029
103028
103027
103026
103025
103024
103024
103023
103022
103021
103021
103020
103020
103019
103018
103018
103017
103017
103016
103016
103016
103015
103015
103014
103014
103014
103014
103013
103013
103013
103013
103012
103012
103012
103012
103012
103012
103012
103012
103011
103011
103011
103011
103011
103001
103001
103001
103001
103001
103001
103001
103001
103001
103001
103001
103001
103001
103001
103001
103001
103001
103001
103001
102999
102997
102995
102994
102992
102990
102989
102987
102986
102984
102983
102981
102980
102979
102977
102976
102975
102974
102973
102972
102971
102970
102969
102968
102967
102966
102965
102965
102964
102963
102962
102962
102961
102961
102960
102959
102959
102958
102958
102958
102957
102957
102956
102956
102956
102955
102955
102955
102954
102954
102954
102954
102954
102953
102953
102953
102953
102953
102953
102953
102953
102953
102953
102953
102952
102940
102940
102940
102940
102940
102940
102940
102940
102940
102940
102940
102940
102940
102940
102940
102940
102940
102940
102940
102939
102937
102935
102934
102932
102930
102929
102927
102926
102925
102923
102922
102921
102919
102918
102917
102916
102915
102914
102913
102912
102911
102910
102909
102908
102907
102906
102906
102905
102904
102903
102903
102902
102902
102901
102900
102900
102899
102899
102899
102898
102898
102897
102897
102897
102896
102896
102896
102896
102895
102895
102895
102895
102895
102894
102894
102894
102894
102894
102894
102894
102894
102894
102894
102894
102880
102880
102880
102880
102880
102880
102880
102880
102880
102880
102880
102880
102880
102880
102880
102880
102880
102880
102880
102878
102877
102875
102874
102872
102871
102869
102868
102866
102865
102864
102862
102861
102860
102859
102858
102856
102855
102854
102853
102852
102851
102850
102850
102849
102848
102847
102846
102846
102845
102844
102844
102843
102843
102842
102841
102841
102841
102840
102840
102839
102839
102838
102838
102838
102838
102837
102837
102837
102836
102836
102836
102836
102836
102836
102835
102835
102835
102835
102835
102835
102835
102835
102835
102835
102819
102819
102819
102819
102819
102819
102819
102819
102819
102819
102819
102819
102819
102819
102819
102819
102819
102819
102819
102818
102817
102815
102814
102812
102811
102809
102808
102807
102805
102804
102803
102802
102800
102799
102798
102797
102796
102795
102794
102793
102792
102791
102790
102790
102789
102788
102787
102787
102786
102785
102785
102784
102784
102783
102782
102782
102782
102781
102781
102780
102780
102780
102779
102779
102779
102778
102778
102778
102778
102777
102777
102777
102777
102777
102777
102776
102776
102776
102776
102776
102776
102776
102776
102776
102759
102759
102759
102759
102759
102759
102759
102759
102759
102759
102759
102759
102759
102759
102759
102759
102759
102759
102759
102758
102756
102755
102754
102752
102751
102750
102748
102747
102746
102745
102743
102742
102741
102740
102739
102738
102737
102736
102735
102734
102733
102732
102731
102730
102730
102729
102728
102727
102727
102726
102726
102725
102724
102724
102723
102723
102723
102722
102722
102721
102721
102721
102720
102720
102720
102719
102719
102719
102719
102718
102718
102718
102718
102718
102718
102718
102717
102717
102717
102717
102717
102717
102717
102717
102699
102699
102699
102699
102699
102699
102699
102699
102699
102699
102699
102699
102699
102699
102699
102699
102699
102699
102699
102697
102696
102695
102694
102692
102691
102690
102689
102687
102686
102685
102684
102683
102682
102680
102679
102678
102677
102676
102675
102675
102674
102673
102672
102671
102670
102670
102669
102668
102668
102667
102667
102666
102665
102665
102664
102664
102663
102663
102663
102662
102662
102662
102661
102661
102661
102660
102660
102660
102660
102660
102659
102659
102659
102659
102659
102659
102659
102659
102658
102658
102658
102658
102658
102658
102638
102638
102638
102638
102638
102638
102638
102638
102638
102638
102638
102638
102638
102638
102638
102638
102638
102638
102638
102637
102636
102635
102633
102632
102631
102630
102629
102628
102626
102625
102624
102623
102622
102621
102620
102619
102618
102617
102616
102615
102614
102614
102613
102612
102611
102611
102610
102609
102609
102608
102607
102607
102606
102606
102605
102605
102604
102604
102604
102603
102603
102603
102602
102602
102602
102601
102601
102601
102601
102601
102600
102600
102600
102600
102600
102600
102600
102600
102600
102600
102599
102599
102599
102599
102578
102578
102578
102578
102578
102578
102578
102578
102578
102578
102578
102578
102578
102578
102578
102578
102578
102578
102578
102577
102576
102575
102573
102572
102571
102570
102569
102568
102567
102566
102565
102564
102563
102562
102561
102560
102559
102558
102557
102556
102555
102554
102553
102553
102552
102551
102551
102550
102549
102549
102548
102548
102547
102547
102546
102546
102545
102545
102545
102544
102544
102544
102543
102543
102543
102543
102542
102542
102542
102542
102542
102541
102541
102541
102541
102541
102541
102541
102541
102541
102541
102541
102541
102541
102518
102518
102518
102518
102518
102518
102518
102517
102517
102517
102517
102517
102517
102517
102517
102517
102517
102517
102517
102516
102515
102514
102513
102512
102511
102510
102509
102508
102507
102506
102505
102504
102503
102502
102501
102500
102499
102498
102497
102497
102496
102495
102494
102493
102493
102492
102491
102491
102490
102490
102489
102489
102488
102488
102487
102487
102486
102486
102486
102485
102485
102485
102484
102484
102484
102484
102483
102483
102483
102483
102483
102482
102482
102482
102482
102482
102482
102482
102482
102482
102482
102482
102482
102482
102457
102457
102457
102457
102457
102457
102457
102457
102457
102457
102457
102457
102457
102457
102457
102457
102457
102457
102457
102456
102455
102454
102453
102452
102451
102450
102450
102449
102447
102446
102445
102444
102443
102443
102442
102441
102440
102439
102438
102437
102436
102436
102435
102434
102433
102433
102432
102432
102431
102430
102430
102429
102429
102428
102428
102428
102427
102427
102426
102426
102426
102426
102425
102425
102425
102425
102424
102424
102424
102424
102424
102423
102423
102423
102423
102423
102423
102423
102423
102423
102423
102423
102423
102423
102397
102397
102397
102397
102397
102397
102397
102397
102397
102396
102396
102396
102396
102396
102396
102396
102396
102396
102396
102396
102395
102394
102393
102392
102392
102391
102390
102389
102388
102387
102386
102385
102384
102383
102382
102381
102380
102379
102379
102378
102377
102376
102375
102375
102374
102373
102373
102372
102372
102371
102371
102370
102370
102369
102369
102368
102368
102368
102367
102367
102367
102366
102366
102366
102366
102366
102365
102365
102365
102365
102365
102365
102364
102364
102364
102364
102364
102364
102364
102364
102364
102364
102364
102364
102336
102336
102336
102336
102336
102336
102336
102336
102336
102336
102336
102336
102336
102336
102336
102336
102336
102336
102336
102336
102335
102334
102333
102333
102332
102331
102330
102329
102328
102327
102326
102325
102324
102323
102323
102322
102321
102320
102319
102318
102318
102317
102316
102315
102315
102314
102314
102313
102312
102312
102311
102311
102311
102310
102310
102309
102309
102309
102308
102308
102308
102307
102307
102307
102307
102306
102306
102306
102306
102306
102306
102306
102305
102305
102305
102305
102305
102305
102305
102305
102305
102305
102305
102305
102276
102276
102276
102276
102276
102276
102276
102276
102276
102276
102276
102276
102275
102276
102276
102275
102275
102275
102275
102275
102274
102274
102273
102273
102272
102271
102270
102269
102268
102268
102267
102266
102265
102264
102263
102262
102261
102260
102260
102259
102258
102257
102257
102256
102255
102255
102254
102254
102253
102253
102252
102252
102251
102251
102250
102250
102250
102249
102249
102249
102249
102248
102248
102248
102248
102247
102247
102247
102247
102247
102247
102247
102246
102246
102246
102246
102246
102246
102246
102246
102246
102246
102246
102246
102216
102215
102216
102216
102216
102216
102215
102215
102215
102215
102215
102215
102215
102215
102215
102215
102215
102215
102215
102215
102215
102214
102213
102213
102212
102211
102211
102210
102209
102208
102207
102206
102205
102204
102203
102203
102202
102201
102200
102199
102199
102198
102197
102197
102196
102195
102195
102194
102194
102193
102193
102192
102192
102192
102191
102191
102191
102190
102190
102190
102189
102189
102189
102189
102189
102188
102188
102188
102188
102188
102188
102188
102187
102187
102187
102187
102187
102187
102187
102187
102187
102187
102187
102187
102155
102155
102155
102155
102155
102155
102155
102155
102155
102155
102155
102155
102155
102155
102155
102155
102155
102155
102155
102155
102155
102154
102154
102153
102153
102152
102151
102150
102149
102148
102147
102146
102146
102145
102144
102143
102142
102141
102141
102140
102139
102138
102138
102137
102137
102136
102136
102135
102135
102134
102134
102133
102133
102132
102132
102132
102131
102131
102131
102131
102130
102130
102130
102130
102129
102129
102129
102129
102129
102129
102129
102129
102128
102128
102128
102128
102128
102128
102128
102128
102128
102128
102128
102128
102095
102095
102095
102095
102095
102095
102094
102094
102094
102094
102094
102094
102094
102094
102094
102094
102094
102094
102094
102094
102094
102094
102094
102093
102093
102092
102091
102091
102090
102089
102088
102087
102086
102085
102084
102083
102083
102082
102081
102080
102080
102079
102078
102078
102077
102077
102076
102076
102075
102075
102074
102074
102074
102073
102073
102072
102072
102072
102072
102071
102071
102071
102071
102071
102070
102070
102070
102070
102070
102070
102070
102070
102069
102069
102069
102069
102069
102069
102069
102069
102069
102069
102069
102069
102034
102034
102034
102034
102034
102034
102034
102034
102034
102034
102034
102034
102034
102034
102034
102034
102034
102034
102034
102034
102034
102034
102034
102034
102034
102033
102032
102031
102030
102029
102028
102027
102026
102025
102025
102024
102023
102022
102021
102021
102020
102019
102019
102018
102018
102017
102017
102016
102016
102015
102015
102015
102014
102014
102014
102013
102013
102013
102012
102012
102012
102012
102012
102011
102011
102011
102011
102011
102011
102011
102011
102011
102010
102010
102010
102010
102010
102010
102010
102010
102010
102010
102010
102010
101974
101974
101974
101974
101974
101973
101973
101973
101973
101973
101973
101973
101973
101973
101973
101973
101973
101973
101973
101973
101973
101973
101973
101973
101973
101973
101972
101971
101970
101969
101968
101967
101967
101966
101965
101964
101963
101963
101962
101961
101961
101960
101959
101959
101958
101958
101957
101957
101956
101956
101956
101955
101955
101955
101954
101954
101954
101953
101953
101953
101953
101953
101952
101952
101952
101952
101952
101952
101952
101952
101952
101952
101951
101951
101951
101951
101951
101951
101951
101951
101951
101951
101951
101951
101913
101913
101913
101913
101913
101913
101913
101913
101913
101913
101913
101913
101912
101913
101913
101913
101913
101913
101913
101913
101913
101913
101913
101913
101913
101913
101913
101912
101911
101910
101909
101908
101907
101906
101905
101904
101904
101903
101902
101902
101901
101900
101900
101899
101899
101898
101898
101897
101897
101897
101896
101896
101896
101895
101895
101895
101894
101894
101894
101894
101894
101893
101893
101893
101893
101893
101893
101893
101893
101893
101893
101892
101892
101892
101892
101892
101892
101892
101892
101892
101892
101892
101892
101892
101853
101853
101853
101853
101852
101852
101852
101852
101852
101852
101852
101852
101852
101852
101852
101852
101852
101852
101852
101852
101852
101852
101852
101853
101853
101853
101852
101852
101851
101850
101849
101848
101847
101846
101845
101845
101844
101843
101843
101842
101841
101841
101840
101840
101839
101839
101838
101838
101838
101837
101837
101837
101836
101836
101836
101835
101835
101835
101835
101835
101834
101834
101834
101834
101834
101834
101834
101834
101834
101834
101833
101833
101833
101833
101833
101833
101833
101833
101833
101833
101833
101833
101833
101833
101792
101792
101792
101792
101792
101792
101792
101792
101792
101792
101792
101792
101792
101792
101792
101792
101792
101792
101792
101792
101792
101792
101792
101792
101792
101792
101792
101792
101791
101790
101789
101788
101787
101786
101786
101785
101784
101784
101783
101782
101782
101781
101781
101780
101780
101779
101779
101778
101778
101778
101777
101777
101777
101777
101776
101776
101776
101776
101776
101775
101775
101775
101775
101775
101775
101775
101775
101775
101775
101774
101774
101774
101774
101774
101774
101774
101774
101774
101774
101774
101774
101774
101774
101774
101732
101732
101732
101731
101731
101731
101731
101731
101731
101731
101731
101731
101731
101731
101731
101731
101731
101731
101731
101731
101731
101731
101732
101732
101732
101732
101732
101732
101732
101730
101729
101728
101727
101727
101726
101725
101724
101724
101723
101723
101722
101722
101721
101721
101720
101720
101719
101719
101719
101718
101718
101718
101717
101717
101717
101717
101717
101716
101716
101716
101716
101716
101716
101716
101716
101716
101715
101715
101715
101715
101715
101715
101715
101715
101715
101715
101715
101715
101715
101715
101715
101715
101715
101715
101671
101671
101671
101671
101671
101671
101671
101671
101671
101671
101671
101671
101671
101671
101671
101671
101671
101671
101671
101671
101671
101671
101671
101671
101671
101671
101671
101671
101671
101670
101669
101668
101668
101667
101666
101665
101665
101664
101663
101663
101662
101662
101661
101661
101661
101660
101660
101659
101659
101659
101659
101658
101658
101658
101658
101657
101657
101657
101657
101657
101657
101657
101657
101657
101656
101656
101656
101656
101656
101656
101656
101656
101656
101656
101656
101656
101656
101656
101656
101656
101656
101656
101656
101656
101611
101611
101611
101611
101610
101610
101610
101610
101610
101610
101610
101610
101610
101610
101610
101610
101610
101610
101610
101610
101610
101611
101611
101611
101611
101611
101611
101611
101611
101610
101609
101609
101608
101607
101606
101606
101605
101604
101604
101603
101603
101602
101602
101601
101601
101601
101600
101600
101600
101599
101599
101599
101599
101598
101598
101598
101598
101598
101598
101598
101598
101597
101597
101597
101597
101597
101597
101597
101597
101597
101597
101597
101597
101597
101597
101597
101597
101597
101597
101597
101597
101597
101597
101597
101550
101550
101550
101550
101550
101550
101550
101550
101550
101550
101550
101550
101550
101550
101550
101550
101550
101550
101550
101550
101550
101550
101550
101550
101550
101550
101550
101550
101550
101550
101549
101549
101548
101547
101546
101546
101545
101544
101544
101543
101543
101543
101542
101542
101541
101541
101541
101540
101540
101540
101540
101539
101539
101539
101539
101539
101539
101539
101538
101538
101538
101538
101538
101538
101538
101538
101538
101538
101538
101538
101538
101538
101538
101538
101538
101538
101538
101538
101538
101538
101538
101538
101538
101538
101490
101490
101490
101490
101490
101490
101489
101489
101489
101489
101489
101489
101489
101490
101490
101490
101490
101490
101490
101490
101490
101490
101490
101490
101490
101490
101490
101490
101490
101490
101489
101488
101488
101487
101486
101486
101485
101485
101484
101484
101483
101483
101482
101482
101482
101481
101481
101481
101481
101480
101480
101480
101480
101480
101479
101479
101479
101479
101479
101479
101479
101479
101479
101479
101479
101479
101479
101479
101479
101479
101479
101479
101479
101479
101479
101479
101479
101479
101479
101479
101479
101480
101480
101480
101429
101429
101429
101429
101429
101429
101429
101429
101429
101429
101429
101429
101429
101429
101429
101429
101429
101429
101429
101429
101429
101429
101429
101429
101429
101429
101429
101429
101429
101429
101429
101428
101428
101427
101426
101426
101425
101425
101424
101424
101423
101423
101423
101422
101422
101422
101421
101421
101421
101421
101421
101420
101420
101420
101420
101420
101420
101420
101420
101420
101420
101420
101420
101420
101420
101420
101420
101420
101420
101420
101420
101420
101420
101420
101420
101420
101420
101420
101420
101421
101421
101421
101421
101421
101369
101369
101369
101369
101369
101369
101369
101369
101369
101369
101369
101369
101369
101369
101369
101369
101369
101369
101369
101369
101369
101369
101369
101369
101369
101369
101369
101369
101369
101369
101369
101368
101368
101367
101366
101366
101365
101365
101364
101364
101364
101363
101363
101363
101362
101362
101362
101362
101361
101361
101361
101361
101361
101361
101361
101361
101361
101360
101360
101360
101360
101360
101360
101360
101360
101361
101361
101361
101361
101361
101361
101361
101361
101361
101361
101361
101361
101361
101361
101362
101362
101362
101362
101362
101308
101308
101308
101308
101308
101308
101308
101308
101308
101308
101308
101308
101308
101308
101308
101308
101308
101308
101308
101308
101308
101308
101308
101308
101308
101309
101309
101309
101309
101308
101309
101308
101308
101307
101306
101306
101305
101305
101305
101304
101304
101303
101303
101303
101303
101302
101302
101302
101302
101302
101302
101301
101301
101301
101301
101301
101301
101301
101301
101301
101301
101301
101301
101301
101301
101301
101301
101301
101302
101302
101302
101302
101302
101302
101302
101302
101302
101302
101303
101303
101303
101303
101303
101303
101248
101248
101248
101248
101248
101248
101248
101248
101248
101248
101248
101248
101248
101248
101248
101248
101248
101248
101248
101248
101248
101248
101248
101248
101248
101248
101248
101248
101248
101248
101248
101248
101248
101247
101246
101246
101245
101245
101245
101244
101244
101244
101243
101243
101243
101243
101242
101242
101242
101242
101242
101242
101242
101242
101242
101242
101242
101242
101242
101242
101242
101242
101242
101242
101242
101242
101242
101242
101242
101243
101243
101243
101243
101243
101243
101243
101243
101243
101244
101244
101244
101244
101244
101244
101188
101188
101188
101188
101188
101187
101187
101187
101187
101187
101187
101187
101187
101187
101187
101187
101187
101187
101187
101187
101187
101188
101188
101188
101188
101188
101188
101188
101188
101188
101188
101188
101188
101187
101186
101186
101185
101185
101185
101184
101184
101184
101184
101183
101183
101183
101183
101183
101183
101182
101182
101182
101182
101182
101182
101182
101182
101182
101182
101182
101182
101183
101183
101183
101183
101183
101183
101183
101183
101183
101184
101184
101184
101184
101184
101184
101184
101185
101185
101185
101185
101185
101185
101185
101127
101127
101127
101127
101127
101127
101127
101127
101127
101127
101127
101127
101127
101127
101127
101127
101127
101127
101127
101127
101127
101127
101127
101127
101127
101127
101127
101127
101128
101128
101128
101128
101127
101127
101126
101126
101125
101125
101125
101124
101124
101124
101124
101123
101123
101123
101123
101123
101123
101123
101123
101123
101123
101123
101123
101123
101123
101123
101123
101123
101123
101123
101123
101123
101124
101124
101124
101124
101124
101124
101124
101125
101125
101125
101125
101125
101125
101126
101126
101126
101126
101126
101126
101126
101067
101067
101067
101067
101067
101067
101067
101067
101067
101067
101067
101067
101067
101067
101067
101067
101067
101067
101067
101067
101067
101067
101067
101067
101067
101067
101067
101067
101067
101067
101068
101067
101067
101066
101066
101066
101065
101065
101065
101064
101064
101064
101064
101064
101064
101063
101063
101063
101063
101063
101063
101063
101063
101063
101063
101063
101063
101064
101064
101064
101064
101064
101064
101064
101064
101064
101065
101065
101065
101065
101065
101066
101066
101066
101066
101066
101067
101067
101067
101067
101067
101067
101067
101067
101006
101006
101006
101006
101006
101006
101006
101006
101006
101006
101006
101006
101006
101006
101006
101006
101006
101006
101006
101006
101006
101006
101006
101006
101006
101006
101007
101007
101007
101007
101007
101007
101007
101006
101006
101006
101005
101005
101005
101004
101004
101004
101004
101004
101004
101004
101004
101004
101004
101004
101004
101004
101004
101004
101004
101004
101004
101004
101004
101004
101004
101005
101005
101005
101005
101005
101005
101006
101006
101006
101006
101006
101007
101007
101007
101007
101008
101008
101008
101008
101008
101008
101008
101008
100946
100946
100946
100946
100946
100946
100946
100946
100946
100946
100946
100946
100946
100946
100946
100946
100946
100946
100946
100946
100946
100946
100946
100946
100946
100946
100946
100946
100946
100947
100947
100947
100946
100946
100946
100945
100945
100945
100945
100944
100944
100944
100944
100944
100944
100944
100944
100944
100944
100944
100944
100944
100944
100944
100944
100944
100945
100945
100945
100945
100945
100945
100945
100946
100946
100946
100946
100946
100947
100947
100947
100947
100948
100948
100948
100948
100949
100949
100949
100949
100949
100949
100950
100950
100886
100886
100886
100886
100886
100885
100885
100885
100885
100885
100885
100885
100885
100885
100885
100885
100885
100885
100885
100885
100885
100885
100885
100885
100886
100886
100886
100886
100886
100886
100886
100886
100886
100886
100885
100885
100885
100885
100885
100884
100884
100884
100884
100884
100884
100884
100884
100884
100884
100884
100884
100884
100885
100885
100885
100885
100885
100885
100885
100886
100886
100886
100886
100886
100887
100887
100887
100887
100887
100888
100888
100888
100889
100889
100889
100889
100890
100890
100890
100890
100891
100891
100891
100891
100825
100825
100825
100825
100825
100825
100825
100825
100825
100825
100825
100825
100825
100825
100825
100825
100825
100825
100825
100825
100825
100825
100825
100825
100825
100825
100825
100826
100826
100826
100826
100826
100826
100825
100825
100825
100825
100825
100824
100824
100824
100824
100824
100824
100824
100824
100824
100824
100824
100825
100825
100825
100825
100825
100825
100826
100826
100826
100826
100826
100826
100827
100827
100827
100827
100827
100828
100828
100828
100829
100829