/*--------------------------------*- C++ -*----------------------------------*\
  =========                 |
  \\      /  F ield         | OpenFOAM: The Open Source CFD Toolbox
   \\    /   O peration     | Website:  https://openfoam.org
    \\  /    A nd           | Version:  6
     \\/     M anipulation  |
\*---------------------------------------------------------------------------*/
FoamFile
{
    version     2.0;
    format      ascii;
    class       volScalarField;
    location    "510";
    object      T;
}
// * * * * * * * * * * * * * * * * * * * * * * * * * * * * * * * * * * * * * //

dimensions      [0 0 0 1 0 0 0];

internalField   nonuniform List<scalar> 
5964
(
310.512
309.573
308.737
308.037
307.471
307.017
306.653
306.358
306.113
305.901
305.706
305.515
305.318
305.108
304.885
304.662
304.476
304.42
304.415
304.419
304.418
304.411
304.397
304.378
304.355
304.329
304.302
304.272
304.242
304.211
304.18
304.149
304.118
304.087
304.057
304.028
303.998
303.97
303.942
303.915
303.889
303.863
303.837
303.812
303.788
303.764
303.74
303.717
303.694
303.671
303.649
303.626
303.604
303.582
303.56
303.538
303.516
303.494
303.472
303.45
303.428
303.406
303.384
303.362
303.34
303.318
303.296
303.274
303.251
303.229
303.207
303.185
303.162
303.14
303.118
303.095
303.073
303.05
303.027
303.005
302.982
302.961
302.943
302.932
310.497
309.548
308.719
308.025
307.459
307.007
306.65
306.366
306.134
305.931
305.742
305.554
305.355
305.139
304.897
304.627
304.357
304.374
304.406
304.423
304.425
304.416
304.401
304.381
304.357
304.331
304.303
304.273
304.243
304.212
304.18
304.149
304.118
304.087
304.057
304.027
303.998
303.97
303.942
303.915
303.888
303.862
303.837
303.812
303.788
303.764
303.74
303.717
303.694
303.671
303.649
303.626
303.604
303.582
303.56
303.538
303.516
303.494
303.472
303.45
303.428
303.406
303.384
303.362
303.34
303.318
303.296
303.274
303.251
303.229
303.207
303.185
303.162
303.14
303.118
303.095
303.073
303.05
303.027
303.005
302.982
302.96
302.942
302.93
310.498
309.54
308.702
308.003
307.44
307
306.661
306.397
306.183
305.992
305.811
305.629
305.427
305.205
304.938
304.589
303.985
304.314
304.412
304.439
304.44
304.428
304.41
304.388
304.362
304.334
304.305
304.274
304.243
304.212
304.18
304.149
304.117
304.086
304.056
304.026
303.997
303.969
303.941
303.914
303.888
303.862
303.836
303.812
303.787
303.763
303.74
303.717
303.694
303.671
303.648
303.626
303.604
303.582
303.56
303.538
303.516
303.494
303.472
303.45
303.428
303.406
303.384
303.362
303.34
303.318
303.296
303.274
303.252
303.229
303.207
303.185
303.162
303.14
303.118
303.095
303.073
303.05
303.028
303.005
302.983
302.96
302.941
302.928
310.497
309.532
308.68
307.976
307.421
307.001
306.686
306.447
306.256
306.081
305.914
305.741
305.535
305.312
305.052
304.758
304.432
304.461
304.48
304.479
304.466
304.447
304.423
304.397
304.369
304.339
304.308
304.276
304.244
304.212
304.18
304.148
304.116
304.085
304.055
304.025
303.996
303.968
303.94
303.913
303.887
303.861
303.836
303.811
303.787
303.763
303.74
303.716
303.693
303.671
303.648
303.626
303.604
303.582
303.56
303.538
303.516
303.494
303.472
303.45
303.428
303.406
303.384
303.362
303.34
303.318
303.296
303.274
303.252
303.229
303.207
303.185
303.163
303.14
303.118
303.095
303.073
303.05
303.028
303.006
302.983
302.961
302.94
302.924
310.494
309.523
308.659
307.954
307.417
307.024
306.741
306.533
306.369
306.211
306.054
305.884
305.673
305.449
305.197
304.941
304.714
304.618
304.566
304.529
304.498
304.469
304.439
304.409
304.377
304.345
304.312
304.279
304.245
304.212
304.179
304.147
304.115
304.084
304.053
304.023
303.994
303.966
303.939
303.912
303.885
303.86
303.835
303.81
303.786
303.762
303.739
303.716
303.693
303.671
303.648
303.626
303.604
303.582
303.56
303.538
303.516
303.494
303.472
303.45
303.428
303.406
303.384
303.362
303.34
303.318
303.296
303.274
303.252
303.23
303.207
303.185
303.163
303.14
303.118
303.096
303.073
303.051
303.028
303.006
302.984
302.961
302.936
302.914
310.509
309.554
308.681
307.968
307.447
307.086
306.838
306.659
306.517
306.377
306.226
306.056
305.838
305.608
305.354
305.104
304.885
304.734
304.638
304.575
304.53
304.492
304.457
304.422
304.387
304.351
304.316
304.281
304.246
304.212
304.178
304.145
304.113
304.082
304.051
304.021
303.992
303.964
303.937
303.91
303.884
303.858
303.834
303.809
303.785
303.762
303.738
303.716
303.693
303.67
303.648
303.626
303.604
303.582
303.56
303.538
303.516
303.494
303.472
303.45
303.429
303.407
303.385
303.363
303.341
303.319
303.296
303.274
303.252
303.23
303.208
303.185
303.163
303.141
303.118
303.096
303.073
303.051
303.029
303.007
302.985
302.961
302.932
302.904
310.468
309.477
308.644
307.99
307.513
307.19
306.971
306.818
306.691
306.569
306.421
306.248
306.022
305.775
305.502
305.232
304.99
304.799
304.681
304.608
304.557
304.514
304.474
304.435
304.397
304.358
304.321
304.283
304.247
304.211
304.177
304.143
304.111
304.079
304.048
304.019
303.99
303.962
303.934
303.908
303.882
303.857
303.832
303.808
303.784
303.761
303.738
303.715
303.692
303.67
303.648
303.626
303.604
303.582
303.56
303.538
303.516
303.494
303.473
303.451
303.429
303.407
303.385
303.363
303.341
303.319
303.297
303.275
303.252
303.23
303.208
303.185
303.163
303.141
303.118
303.096
303.074
303.051
303.029
303.007
302.986
302.965
302.942
302.921
310.482
309.507
308.685
308.058
307.617
307.325
307.132
307.002
306.883
306.779
306.633
306.449
306.211
305.94
305.64
305.333
305.04
304.798
304.684
304.624
304.578
304.535
304.492
304.449
304.407
304.365
304.325
304.285
304.247
304.21
304.175
304.141
304.108
304.076
304.045
304.015
303.987
303.959
303.932
303.906
303.88
303.855
303.831
303.807
303.783
303.76
303.737
303.714
303.692
303.67
303.648
303.626
303.604
303.582
303.56
303.538
303.517
303.495
303.473
303.451
303.429
303.407
303.385
303.363
303.341
303.319
303.297
303.275
303.253
303.23
303.208
303.186
303.163
303.141
303.119
303.096
303.074
303.051
303.029
303.008
302.987
302.968
302.95
302.935
310.509
309.574
308.772
308.166
307.752
307.487
307.315
307.202
307.085
306.992
306.842
306.643
306.392
306.099
305.77
305.415
305.041
304.679
304.644
304.628
304.598
304.557
304.511
304.464
304.418
304.372
304.328
304.287
304.247
304.208
304.172
304.137
304.104
304.072
304.041
304.011
303.983
303.955
303.929
303.903
303.878
303.853
303.829
303.805
303.782
303.759
303.736
303.714
303.692
303.669
303.648
303.626
303.604
303.582
303.56
303.539
303.517
303.495
303.473
303.451
303.43
303.408
303.386
303.364
303.342
303.32
303.297
303.275
303.253
303.231
303.208
303.186
303.164
303.141
303.119
303.096
303.074
303.052
303.029
303.008
302.987
302.969
302.95
302.922
310.525
309.626
308.866
308.298
307.91
307.665
307.508
307.404
307.289
307.197
307.041
306.831
306.567
306.255
305.901
305.503
305.025
304.274
304.59
304.647
304.628
304.585
304.533
304.48
304.428
304.378
304.331
304.287
304.245
304.205
304.168
304.132
304.099
304.067
304.036
304.007
303.979
303.952
303.925
303.9
303.875
303.851
303.827
303.803
303.78
303.758
303.735
303.713
303.691
303.669
303.647
303.626
303.604
303.582
303.561
303.539
303.517
303.496
303.474
303.452
303.43
303.408
303.386
303.364
303.342
303.32
303.298
303.276
303.253
303.231
303.209
303.186
303.164
303.142
303.119
303.097
303.074
303.052
303.03
303.008
302.987
302.967
302.936
302.827
310.542
309.682
308.968
308.437
308.075
307.845
307.697
307.6
307.486
307.382
307.214
306.993
306.719
306.397
306.035
305.642
305.227
304.81
304.772
304.736
304.683
304.621
304.558
304.496
304.438
304.383
304.332
304.285
304.241
304.201
304.163
304.127
304.093
304.061
304.031
304.002
303.974
303.947
303.921
303.896
303.872
303.848
303.825
303.802
303.779
303.757
303.734
303.713
303.691
303.669
303.647
303.626
303.604
303.583
303.561
303.539
303.518
303.496
303.474
303.453
303.431
303.409
303.387
303.365
303.343
303.321
303.298
303.276
303.254
303.232
303.209
303.187
303.164
303.142
303.12
303.097
303.075
303.052
303.03
303.008
302.987
302.968
302.949
302.922
310.574
309.772
309.098
308.595
308.252
308.03
307.885
307.788
307.67
307.546
307.362
307.126
306.841
306.513
306.154
305.781
305.42
305.117
304.953
304.84
304.746
304.661
304.583
304.511
304.446
304.386
304.331
304.282
304.236
304.194
304.156
304.12
304.086
304.054
304.025
303.996
303.969
303.943
303.917
303.893
303.869
303.845
303.822
303.8
303.778
303.755
303.734
303.712
303.69
303.669
303.647
303.626
303.604
303.583
303.561
303.54
303.518
303.497
303.475
303.453
303.431
303.409
303.388
303.365
303.343
303.321
303.299
303.277
303.254
303.232
303.21
303.187
303.165
303.142
303.12
303.098
303.075
303.053
303.03
303.008
302.986
302.967
302.95
302.939
310.601
309.851
309.222
308.752
308.425
308.21
308.067
307.961
307.832
307.68
307.474
307.221
306.926
306.595
306.242
305.888
305.56
305.289
305.085
304.928
304.802
304.696
304.604
304.522
304.45
304.385
304.327
304.275
304.229
304.186
304.147
304.111
304.078
304.047
304.017
303.99
303.963
303.937
303.913
303.889
303.865
303.843
303.82
303.798
303.776
303.754
303.733
303.711
303.69
303.669
303.647
303.626
303.605
303.583
303.562
303.541
303.519
303.497
303.476
303.454
303.432
303.41
303.388
303.366
303.344
303.322
303.3
303.277
303.255
303.233
303.21
303.188
303.165
303.143
303.12
303.098
303.075
303.053
303.03
303.008
302.986
302.964
302.947
302.936
310.621
309.916
309.335
308.9
308.593
308.383
308.239
308.112
307.958
307.771
307.542
307.274
306.972
306.64
306.291
305.95
305.643
305.385
305.168
304.989
304.843
304.721
304.616
304.526
304.448
304.379
304.319
304.266
304.218
304.175
304.136
304.101
304.068
304.038
304.009
303.982
303.957
303.932
303.908
303.885
303.862
303.84
303.818
303.796
303.775
303.753
303.732
303.711
303.69
303.669
303.648
303.626
303.605
303.584
303.563
303.541
303.52
303.498
303.477
303.455
303.433
303.411
303.389
303.367
303.345
303.323
303.3
303.278
303.256
303.233
303.211
303.188
303.166
303.143
303.121
303.098
303.076
303.053
303.031
303.008
302.985
302.962
302.941
302.928
310.65
309.997
309.457
309.048
308.754
308.542
308.381
308.219
308.032
307.818
307.572
307.293
306.986
306.654
306.312
305.983
305.686
305.432
305.212
305.022
304.864
304.731
304.618
304.522
304.439
304.368
304.306
304.252
304.204
304.162
304.124
304.089
304.057
304.028
304
303.974
303.95
303.926
303.903
303.88
303.858
303.837
303.815
303.794
303.773
303.752
303.731
303.711
303.69
303.669
303.648
303.627
303.606
303.585
303.563
303.542
303.521
303.499
303.478
303.456
303.434
303.412
303.39
303.368
303.346
303.324
303.301
303.279
303.256
303.234
303.211
303.189
303.166
303.144
303.121
303.099
303.076
303.054
303.031
303.008
302.984
302.959
302.937
302.922
310.679
310.08
309.579
309.189
308.898
308.677
308.491
308.294
308.075
307.829
307.556
307.265
306.956
306.629
306.297
305.98
305.692
305.442
305.222
305.027
304.863
304.724
304.606
304.507
304.422
304.35
304.288
304.234
304.187
304.146
304.109
304.075
304.045
304.017
303.991
303.966
303.942
303.919
303.897
303.876
303.855
303.834
303.813
303.792
303.772
303.751
303.731
303.71
303.69
303.669
303.648
303.628
303.607
303.586
303.564
303.543
303.522
303.5
303.479
303.457
303.435
303.413
303.391
303.369
303.347
303.324
303.302
303.28
303.257
303.235
303.212
303.19
303.167
303.144
303.122
303.099
303.077
303.054
303.031
303.008
302.984
302.958
302.934
302.918
310.708
310.158
309.69
309.315
309.019
308.78
308.553
308.309
308.047
307.772
307.485
307.188
306.883
306.569
306.252
305.947
305.666
305.419
305.202
305.007
304.84
304.699
304.58
304.48
304.396
304.324
304.263
304.211
304.166
304.126
304.091
304.06
304.031
304.005
303.98
303.957
303.935
303.913
303.892
303.871
303.851
303.831
303.811
303.791
303.771
303.751
303.731
303.711
303.69
303.67
303.649
303.628
303.608
303.587
303.566
303.544
303.523
303.501
303.48
303.458
303.436
303.414
303.392
303.37
303.348
303.325
303.303
303.281
303.258
303.235
303.213
303.19
303.168
303.145
303.122
303.1
303.077
303.054
303.032
303.008
302.984
302.958
302.934
302.918
310.732
310.224
309.783
309.418
309.11
308.837
308.563
308.271
307.968
307.665
307.372
307.086
306.795
306.495
306.19
305.895
305.617
305.37
305.155
304.962
304.797
304.657
304.54
304.442
304.36
304.291
304.233
304.184
304.141
304.104
304.072
304.043
304.016
303.992
303.969
303.947
303.927
303.906
303.887
303.867
303.848
303.828
303.809
303.79
303.77
303.75
303.731
303.711
303.691
303.671
303.65
303.63
303.609
303.588
303.567
303.546
303.524
303.503
303.481
303.459
303.438
303.416
303.393
303.371
303.349
303.327
303.304
303.282
303.259
303.236
303.214
303.191
303.168
303.145
303.123
303.1
303.077
303.055
303.032
303.009
302.985
302.96
302.936
302.92
310.751
310.277
309.854
309.49
309.161
308.84
308.506
308.156
307.812
307.489
307.194
306.924
306.659
306.383
306.097
305.813
305.541
305.295
305.084
304.893
304.732
304.596
304.484
304.391
304.314
304.25
304.196
304.151
304.113
304.079
304.05
304.024
304
303.978
303.957
303.938
303.919
303.9
303.881
303.863
303.845
303.826
303.807
303.789
303.77
303.75
303.731
303.711
303.692
303.672
303.651
303.631
303.61
303.589
303.568
303.547
303.526
303.504
303.483
303.461
303.439
303.417
303.395
303.373
303.35
303.328
303.305
303.283
303.26
303.237
303.214
303.192
303.169
303.146
303.123
303.1
303.078
303.055
303.033
303.01
302.986
302.962
302.94
302.924
310.767
310.318
309.904
309.525
309.162
308.785
308.383
307.976
307.598
307.267
306.986
306.74
306.503
306.255
305.987
305.711
305.442
305.197
304.987
304.8
304.644
304.517
304.412
304.328
304.258
304.201
304.154
304.115
304.081
304.052
304.026
304.004
303.983
303.964
303.946
303.928
303.911
303.894
303.876
303.859
303.842
303.824
303.806
303.788
303.77
303.751
303.732
303.712
303.693
303.673
303.653
303.633
303.612
303.591
303.57
303.549
303.528
303.506
303.484
303.463
303.441
303.419
303.396
303.374
303.352
303.329
303.306
303.284
303.261
303.238
303.215
303.193
303.17
303.147
303.124
303.101
303.078
303.056
303.033
303.01
302.988
302.965
302.943
302.927
310.777
310.34
309.922
309.514
309.105
308.664
308.193
307.735
307.333
307.007
306.746
306.526
306.316
306.097
305.85
305.587
305.322
305.075
304.864
304.681
304.534
304.418
304.326
304.253
304.194
304.146
304.107
304.074
304.046
304.023
304.002
303.983
303.966
303.949
303.934
303.918
303.903
303.888
303.872
303.856
303.839
303.823
303.806
303.788
303.77
303.752
303.733
303.714
303.694
303.675
303.655
303.634
303.614
303.593
303.572
303.551
303.53
303.508
303.486
303.464
303.442
303.42
303.398
303.376
303.353
303.33
303.308
303.285
303.262
303.239
303.216
303.193
303.17
303.147
303.124
303.102
303.079
303.056
303.033
303.011
302.989
302.967
302.942
302.913
310.78
310.345
309.913
309.467
308.99
308.483
307.954
307.462
307.054
306.739
306.502
306.305
306.118
305.924
305.699
305.448
305.186
304.93
304.71
304.531
304.398
304.299
304.225
304.167
304.121
304.085
304.055
304.031
304.01
303.992
303.976
303.961
303.948
303.935
303.922
303.909
303.896
303.882
303.868
303.853
303.838
303.822
303.805
303.788
303.771
303.753
303.734
303.716
303.696
303.677
303.657
303.637
303.616
303.596
303.575
303.553
303.532
303.51
303.488
303.466
303.444
303.422
303.4
303.377
303.355
303.332
303.309
303.286
303.263
303.24
303.217
303.194
303.171
303.148
303.125
303.102
303.079
303.056
303.034
303.011
302.99
302.967
302.933
302.87
310.779
310.335
309.88
309.389
308.839
308.27
307.702
307.191
306.784
306.483
306.269
306.091
305.92
305.746
305.541
305.303
305.039
304.764
304.514
304.343
304.234
304.161
304.11
304.071
304.042
304.019
304
303.985
303.972
303.96
303.95
303.94
303.931
303.921
303.911
303.901
303.89
303.878
303.865
303.852
303.837
303.822
303.806
303.79
303.773
303.755
303.737
303.718
303.699
303.679
303.66
303.639
303.619
303.598
303.577
303.556
303.534
303.513
303.491
303.469
303.446
303.424
303.402
303.379
303.356
303.334
303.311
303.288
303.265
303.242
303.219
303.195
303.172
303.149
303.126
303.103
303.08
303.057
303.034
303.012
302.99
302.97
302.947
302.919
310.771
310.304
309.814
309.277
308.664
308.038
307.44
306.933
306.542
306.261
306.065
305.901
305.741
305.584
305.394
305.165
304.895
304.581
304.242
304.1
304.038
304.005
303.984
303.968
303.956
303.948
303.942
303.937
303.933
303.929
303.924
303.92
303.914
303.908
303.902
303.894
303.885
303.875
303.863
303.851
303.837
303.823
303.808
303.792
303.775
303.757
303.739
303.721
303.702
303.682
303.663
303.642
303.622
303.601
303.58
303.559
303.537
303.515
303.493
303.471
303.449
303.426
303.404
303.381
303.358
303.335
303.312
303.289
303.266
303.243
303.22
303.196
303.173
303.15
303.127
303.103
303.08
303.057
303.034
303.012
302.99
302.97
302.953
302.939
310.757
310.259
309.724
309.134
308.463
307.792
307.182
306.702
306.354
306.107
305.927
305.775
305.622
305.467
305.286
305.066
304.79
304.411
303.8
303.789
303.817
303.839
303.852
303.86
303.866
303.873
303.881
303.889
303.894
303.898
303.9
303.9
303.899
303.897
303.893
303.888
303.881
303.873
303.863
303.851
303.839
303.825
303.81
303.795
303.778
303.761
303.743
303.724
303.705
303.686
303.666
303.646
303.625
303.604
303.583
303.562
303.54
303.518
303.496
303.474
303.451
303.429
303.406
303.383
303.36
303.337
303.314
303.291
303.268
303.244
303.221
303.197
303.174
303.151
303.127
303.104
303.081
303.057
303.034
303.011
302.989
302.969
302.95
302.936
310.738
310.195
309.602
308.944
308.218
307.536
306.966
306.54
306.242
306.031
305.869
305.729
305.588
305.434
305.257
305.046
304.782
304.426
303.937
303.448
303.599
303.678
303.722
303.748
303.769
303.793
303.818
303.839
303.856
303.868
303.877
303.883
303.887
303.888
303.887
303.884
303.879
303.873
303.864
303.853
303.842
303.828
303.814
303.798
303.782
303.765
303.747
303.729
303.71
303.69
303.67
303.65
303.629
303.608
303.586
303.565
303.543
303.521
303.499
303.476
303.454
303.431
303.408
303.385
303.362
303.339
303.316
303.292
303.269
303.246
303.222
303.199
303.175
303.152
303.128
303.105
303.081
303.058
303.034
303.011
302.988
302.965
302.942
302.922
310.716
310.13
309.489
308.785
308.041
307.37
306.843
306.465
306.21
306.034
305.901
305.782
305.659
305.517
305.349
305.151
304.903
304.586
304.215
303.787
303.444
303.546
303.602
303.635
303.661
303.705
303.751
303.789
303.818
303.84
303.856
303.868
303.876
303.881
303.884
303.883
303.88
303.874
303.867
303.857
303.846
303.833
303.819
303.804
303.787
303.77
303.752
303.733
303.714
303.695
303.674
303.654
303.633
303.612
303.59
303.568
303.546
303.524
303.502
303.479
303.456
303.433
303.41
303.387
303.364
303.341
303.318
303.294
303.271
303.247
303.223
303.2
303.176
303.153
303.129
303.105
303.082
303.058
303.034
303.011
302.987
302.962
302.935
302.909
310.686
310.034
309.332
308.595
307.875
307.253
306.777
306.451
306.244
306.111
306.013
305.926
305.832
305.713
305.565
305.385
305.157
304.881
304.572
304.225
303.866
303.463
303.5
303.519
303.526
303.603
303.68
303.739
303.783
303.815
303.839
303.857
303.869
303.878
303.883
303.885
303.883
303.879
303.872
303.863
303.852
303.839
303.825
303.81
303.793
303.776
303.758
303.739
303.72
303.7
303.679
303.659
303.637
303.616
303.594
303.572
303.55
303.528
303.505
303.482
303.459
303.436
303.413
303.39
303.366
303.343
303.319
303.296
303.272
303.249
303.225
303.201
303.177
303.154
303.13
303.106
303.082
303.058
303.035
303.011
302.988
302.964
302.94
302.919
310.656
309.95
309.211
308.464
307.761
307.177
306.755
306.484
306.328
306.24
306.18
306.127
306.07
305.981
305.863
305.715
305.517
305.279
305.002
304.683
304.33
303.936
303.418
303.409
303.319
303.486
303.61
303.693
303.752
303.794
303.826
303.849
303.867
303.879
303.886
303.89
303.889
303.886
303.879
303.871
303.86
303.847
303.833
303.817
303.801
303.783
303.765
303.745
303.726
303.705
303.685
303.664
303.642
303.621
303.599
303.576
303.554
303.531
303.508
303.485
303.462
303.439
303.416
303.392
303.369
303.345
303.321
303.298
303.274
303.25
303.226
303.202
303.179
303.155
303.131
303.107
303.083
303.059
303.035
303.011
302.988
302.966
302.944
302.927
310.631
309.879
309.111
308.362
307.686
307.142
306.772
306.555
306.444
306.397
306.376
306.353
306.336
306.283
306.198
306.087
305.925
305.721
305.471
305.164
304.804
304.394
303.932
303.378
302.883
303.389
303.559
303.656
303.726
303.779
303.818
303.848
303.869
303.884
303.894
303.898
303.899
303.896
303.89
303.881
303.87
303.857
303.842
303.826
303.809
303.791
303.772
303.753
303.732
303.712
303.691
303.669
303.648
303.626
303.603
303.581
303.558
303.535
303.512
303.489
303.465
303.442
303.418
303.395
303.371
303.347
303.323
303.3
303.276
303.252
303.228
303.204
303.18
303.156
303.132
303.108
303.083
303.059
303.035
303.011
302.988
302.965
302.94
302.91
310.603
309.799
309
308.258
307.625
307.146
306.826
306.652
306.578
306.564
306.576
306.583
306.595
306.582
306.53
306.458
306.333
306.162
305.943
305.662
305.325
304.952
304.548
304.131
303.893
303.566
303.551
303.627
303.706
303.77
303.818
303.853
303.878
303.895
303.906
303.911
303.912
303.909
303.902
303.893
303.882
303.868
303.853
303.836
303.818
303.8
303.78
303.76
303.74
303.719
303.697
303.675
303.653
303.631
303.608
303.585
303.562
303.539
303.516
303.492
303.469
303.445
303.421
303.397
303.374
303.35
303.326
303.302
303.277
303.253
303.229
303.205
303.181
303.157
303.133
303.108
303.084
303.06
303.036
303.012
302.987
302.962
302.925
302.861
310.589
309.766
308.963
308.23
307.62
307.173
306.899
306.763
306.717
306.724
306.764
306.799
306.834
306.852
306.835
306.793
306.71
306.571
306.386
306.139
305.837
305.491
305.092
304.632
304.142
303.408
303.433
303.577
303.691
303.772
303.828
303.867
303.894
303.912
303.923
303.929
303.929
303.925
303.918
303.908
303.896
303.881
303.865
303.848
303.829
303.81
303.79
303.769
303.748
303.726
303.704
303.682
303.659
303.636
303.613
303.59
303.567
303.543
303.52
303.496
303.472
303.448
303.424
303.4
303.376
303.352
303.328
303.303
303.279
303.255
303.231
303.206
303.182
303.158
303.134
303.109
303.085
303.061
303.036
303.012
302.987
302.962
302.934
302.901
310.575
309.735
308.934
308.219
307.639
307.233
306.994
306.882
306.854
306.875
306.93
306.988
307.042
307.082
307.094
307.079
307.031
306.927
306.779
306.572
306.306
305.982
305.588
305.117
304.583
303.937
303.188
303.538
303.698
303.793
303.853
303.893
303.919
303.936
303.947
303.951
303.95
303.945
303.937
303.926
303.912
303.896
303.879
303.861
303.841
303.821
303.8
303.778
303.756
303.734
303.712
303.689
303.666
303.642
303.619
303.595
303.572
303.548
303.524
303.5
303.476
303.451
303.427
303.403
303.379
303.354
303.33
303.306
303.281
303.257
303.232
303.208
303.183
303.159
303.135
303.11
303.086
303.061
303.037
303.012
302.987
302.96
302.934
302.913
310.577
309.743
308.954
308.259
307.708
307.327
307.104
307.004
306.986
307.016
307.078
307.149
307.218
307.271
307.305
307.315
307.295
307.23
307.118
306.954
306.727
306.433
306.063
305.614
305.091
304.495
303.892
303.665
303.76
303.845
303.898
303.931
303.953
303.968
303.975
303.978
303.975
303.969
303.959
303.946
303.93
303.913
303.895
303.875
303.854
303.833
303.811
303.788
303.766
303.743
303.719
303.696
303.672
303.649
303.625
303.601
303.576
303.552
303.528
303.504
303.479
303.455
303.43
303.406
303.381
303.357
303.332
303.308
303.283
303.258
303.234
303.209
303.185
303.16
303.136
303.111
303.087
303.062
303.037
303.012
302.986
302.959
302.931
302.911
310.584
309.766
308.996
308.322
307.793
307.429
307.218
307.126
307.112
307.147
307.211
307.286
307.364
307.426
307.476
307.505
307.511
307.48
307.404
307.281
307.094
306.836
306.5
306.082
305.581
304.999
304.341
303.508
303.836
303.929
303.964
303.983
303.996
304.005
304.01
304.009
304.004
303.996
303.983
303.968
303.951
303.932
303.912
303.89
303.868
303.846
303.823
303.799
303.775
303.752
303.728
303.703
303.679
303.655
303.631
303.606
303.582
303.557
303.532
303.508
303.483
303.458
303.434
303.409
303.384
303.359
303.334
303.31
303.285
303.26
303.235
303.211
303.186
303.161
303.137
303.112
303.088
303.063
303.038
303.013
302.987
302.96
302.932
302.913
310.587
309.779
309.03
308.381
307.876
307.532
307.331
307.246
307.235
307.271
307.334
307.409
307.487
307.556
307.615
307.66
307.684
307.683
307.642
307.554
307.407
307.188
306.887
306.499
306.026
305.476
304.874
304.274
304.136
304.075
304.05
304.044
304.046
304.048
304.049
304.045
304.037
304.025
304.01
303.993
303.973
303.952
303.93
303.907
303.883
303.859
303.835
303.81
303.786
303.761
303.736
303.711
303.686
303.661
303.637
303.612
303.587
303.562
303.537
303.512
303.487
303.462
303.437
303.412
303.387
303.362
303.337
303.312
303.287
303.262
303.237
303.212
303.187
303.163
303.138
303.113
303.088
303.064
303.039
303.015
302.99
302.964
302.94
302.923
310.592
309.795
309.059
308.436
307.959
307.635
307.446
307.367
307.357
307.394
307.455
307.526
307.6
307.669
307.733
307.789
307.83
307.849
307.839
307.785
307.674
307.491
307.225
306.874
306.436
305.921
305.345
304.774
304.381
304.204
304.131
304.105
304.098
304.095
304.091
304.084
304.073
304.058
304.04
304.02
303.997
303.974
303.95
303.925
303.899
303.874
303.848
303.822
303.796
303.771
303.745
303.719
303.694
303.668
303.643
303.617
303.592
303.567
303.541
303.516
303.491
303.465
303.44
303.415
303.389
303.364
303.339
303.314
303.289
303.264
303.239
303.214
303.189
303.164
303.139
303.114
303.089
303.065
303.04
303.016
302.992
302.968
302.947
302.933
310.601
309.824
309.114
308.513
308.054
307.744
307.564
307.491
307.481
307.517
307.576
307.642
307.71
307.776
307.841
307.901
307.953
307.99
308.002
307.976
307.897
307.752
307.527
307.212
306.8
306.294
305.711
305.09
304.452
304.265
304.184
304.157
304.149
304.144
304.137
304.126
304.112
304.093
304.072
304.048
304.023
303.997
303.97
303.943
303.916
303.888
303.861
303.834
303.807
303.78
303.754
303.728
303.701
303.675
303.649
303.623
303.597
303.571
303.546
303.52
303.494
303.469
303.443
303.418
303.392
303.367
303.341
303.316
303.291
303.265
303.24
303.215
303.19
303.165
303.14
303.115
303.09
303.065
303.041
303.016
302.992
302.969
302.948
302.935
310.613
309.862
309.18
308.603
308.16
307.861
307.689
307.618
307.61
307.644
307.7
307.762
307.824
307.885
307.945
308.006
308.064
308.113
308.142
308.141
308.093
307.985
307.8
307.521
307.139
306.651
306.064
305.401
304.738
304.255
304.202
304.201
304.201
304.196
304.187
304.172
304.153
304.131
304.105
304.078
304.05
304.021
303.991
303.962
303.933
303.904
303.875
303.846
303.818
303.791
303.763
303.736
303.709
303.682
303.655
303.629
303.603
303.576
303.55
303.524
303.498
303.472
303.446
303.421
303.395
303.369
303.344
303.318
303.292
303.267
303.242
303.216
303.191
303.166
303.141
303.116
303.091
303.066
303.041
303.016
302.992
302.967
302.945
302.929
310.627
309.906
309.252
308.698
308.271
307.983
307.816
307.747
307.741
307.774
307.827
307.884
307.941
307.997
308.052
308.109
308.168
308.224
308.267
308.286
308.265
308.19
308.04
307.797
307.446
306.98
306.404
305.719
304.92
303.869
304.185
304.25
304.259
304.254
304.24
304.221
304.198
304.17
304.141
304.11
304.078
304.045
304.013
303.981
303.95
303.919
303.889
303.859
303.829
303.801
303.772
303.744
303.716
303.689
303.662
303.635
303.608
303.581
303.555
303.528
303.502
303.476
303.45
303.423
303.397
303.372
303.346
303.32
303.294
303.269
303.243
303.218
303.192
303.167
303.142
303.116
303.091
303.066
303.041
303.016
302.991
302.966
302.942
302.925
310.642
309.951
309.323
308.79
308.379
308.101
307.94
307.875
307.873
307.907
307.956
308.009
308.061
308.112
308.162
308.215
308.272
308.33
308.383
308.417
308.419
308.37
308.252
308.043
307.725
307.285
306.721
306.041
305.271
304.494
304.392
304.35
304.332
304.318
304.299
304.274
304.245
304.212
304.177
304.142
304.106
304.07
304.035
304.001
303.967
303.934
303.902
303.871
303.841
303.811
303.781
303.752
303.724
303.696
303.668
303.64
303.613
303.586
303.559
303.532
303.506
303.479
303.453
303.426
303.4
303.374
303.348
303.322
303.296
303.27
303.244
303.219
303.193
303.168
303.142
303.117
303.092
303.067
303.041
303.016
302.991
302.966
302.943
302.927
310.657
309.994
309.389
308.873
308.478
308.213
308.062
308.003
308.005
308.039
308.085
308.135
308.183
308.229
308.276
308.324
308.378
308.436
308.494
308.54
308.559
308.534
308.445
308.271
307.992
307.585
307.043
306.38
305.634
304.938
304.545
304.431
304.404
304.386
304.363
304.331
304.295
304.255
304.215
304.174
304.134
304.095
304.057
304.02
303.984
303.95
303.916
303.883
303.852
303.821
303.79
303.76
303.731
303.702
303.674
303.646
303.618
303.591
303.563
303.536
303.509
303.482
303.456
303.429
303.403
303.376
303.35
303.324
303.298
303.272
303.246
303.22
303.194
303.169
303.143
303.118
303.092
303.067
303.041
303.016
302.991
302.967
302.945
302.928
310.67
310.03
309.445
308.949
308.572
308.322
308.183
308.129
308.134
308.169
308.214
308.261
308.307
308.349
308.391
308.436
308.487
308.544
308.605
308.659
308.691
308.686
308.624
308.484
308.24
307.864
307.341
306.678
305.898
305.096
304.442
304.44
304.468
304.462
304.433
304.393
304.347
304.3
304.253
304.207
304.162
304.119
304.078
304.039
304.001
303.964
303.929
303.895
303.862
303.83
303.799
303.768
303.738
303.709
303.68
303.652
303.623
303.595
303.568
303.54
303.513
303.486
303.459
303.432
303.405
303.379
303.352
303.326
303.299
303.273
303.247
303.221
303.195
303.169
303.144
303.118
303.092
303.067
303.041
303.016
302.991
302.967
302.941
302.912
310.68
310.059
309.493
309.019
308.663
308.429
308.301
308.253
308.261
308.296
308.34
308.386
308.429
308.469
308.508
308.551
308.599
308.655
308.717
308.776
308.818
308.828
308.79
308.679
308.469
308.13
307.642
306.996
306.185
305.155
303.773
304.427
304.565
304.561
304.516
304.459
304.401
304.344
304.29
304.238
304.189
304.143
304.099
304.057
304.017
303.979
303.942
303.907
303.872
303.839
303.807
303.776
303.745
303.715
303.686
303.657
303.628
303.6
303.572
303.544
303.516
303.489
303.462
303.435
303.408
303.381
303.354
303.327
303.301
303.274
303.248
303.222
303.196
303.17
303.144
303.118
303.093
303.067
303.041
303.016
302.991
302.965
302.93
302.876
310.688
310.083
309.536
309.084
308.75
308.533
308.416
308.374
308.383
308.42
308.464
308.508
308.549
308.588
308.625
308.666
308.713
308.768
308.83
308.893
308.942
308.964