/*--------------------------------*- C++ -*----------------------------------*\
  =========                 |
  \\      /  F ield         | OpenFOAM: The Open Source CFD Toolbox
   \\    /   O peration     | Website:  https://openfoam.org
    \\  /    A nd           | Version:  6
     \\/     M anipulation  |
\*---------------------------------------------------------------------------*/
FoamFile
{
    version     2.0;
    format      ascii;
    class       volVectorField;
    location    "510";
    object      U;
}
// * * * * * * * * * * * * * * * * * * * * * * * * * * * * * * * * * * * * * //

dimensions      [0 1 -1 0 0 0 0];

internalField   nonuniform List<vector> 
5964
(
(0.00138469 0 -0.00274647)
(-0.00178281 0 -0.000875305)
(-0.00203435 0 -0.00149972)
(-0.00253632 0 -0.000284745)
(-0.00262835 0 -0.00102876)
(-0.00269135 0 -0.00122412)
(-0.00253057 0 -0.00126916)
(-0.00308725 0 -0.000191904)
(-0.00340379 0 0.00018519)
(-0.00344254 0 0.000143711)
(-0.00297291 0 -0.000376558)
(-0.00237133 0 -0.000388649)
(-0.00187708 0 0.000337994)
(-0.00110097 0 0.000575539)
(-0.000700106 0 -0.000369687)
(-8.89409e-07 0 8.29838e-05)
(2.37041e-09 0 1.15262e-09)
(4.53385e-09 0 1.9322e-10)
(4.19815e-09 0 1.21402e-10)
(3.93263e-09 0 1.27269e-10)
(3.66492e-09 0 1.23425e-10)
(3.41318e-09 0 1.123e-10)
(3.18662e-09 0 9.98291e-11)
(2.98546e-09 0 8.84889e-11)
(2.80668e-09 0 7.88598e-11)
(2.64673e-09 0 7.08363e-11)
(2.50248e-09 0 6.41423e-11)
(2.37139e-09 0 5.85075e-11)
(2.25144e-09 0 5.37114e-11)
(2.141e-09 0 4.95847e-11)
(2.0388e-09 0 4.59996e-11)
(1.94379e-09 0 4.28592e-11)
(1.85509e-09 0 4.00888e-11)
(1.77198e-09 0 3.76299e-11)
(1.69384e-09 0 3.54358e-11)
(1.62015e-09 0 3.34687e-11)
(1.55047e-09 0 3.16971e-11)
(1.48439e-09 0 3.00951e-11)
(1.42159e-09 0 2.86405e-11)
(1.36176e-09 0 2.73147e-11)
(1.30465e-09 0 2.61015e-11)
(1.25003e-09 0 2.49871e-11)
(1.19771e-09 0 2.39598e-11)
(1.1475e-09 0 2.30092e-11)
(1.09925e-09 0 2.21264e-11)
(1.05283e-09 0 2.13038e-11)
(1.00811e-09 0 2.05347e-11)
(9.64984e-10 0 1.98134e-11)
(9.23353e-10 0 1.91349e-11)
(8.83131e-10 0 1.84949e-11)
(8.44239e-10 0 1.78897e-11)
(8.06606e-10 0 1.7316e-11)
(7.70167e-10 0 1.67712e-11)
(7.34863e-10 0 1.62528e-11)
(7.00639e-10 0 1.57588e-11)
(6.67445e-10 0 1.52875e-11)
(6.35235e-10 0 1.48373e-11)
(6.03964e-10 0 1.4407e-11)
(5.73591e-10 0 1.39956e-11)
(5.44077e-10 0 1.3602e-11)
(5.15386e-10 0 1.32256e-11)
(4.8748e-10 0 1.28657e-11)
(4.60325e-10 0 1.25217e-11)
(4.33889e-10 0 1.21932e-11)
(4.08138e-10 0 1.18798e-11)
(3.8304e-10 0 1.15814e-11)
(3.58566e-10 0 1.12975e-11)
(3.34682e-10 0 1.10281e-11)
(3.1136e-10 0 1.07731e-11)
(2.88568e-10 0 1.05322e-11)
(2.66276e-10 0 1.03055e-11)
(2.44456e-10 0 1.00929e-11)
(2.23076e-10 0 9.89428e-12)
(2.02107e-10 0 9.70961e-12)
(1.8152e-10 0 9.53877e-12)
(1.61284e-10 0 9.38156e-12)
(1.41373e-10 0 9.23761e-12)
(1.21757e-10 0 9.10622e-12)
(1.02411e-10 0 8.98618e-12)
(8.33136e-11 0 8.87531e-12)
(6.44482e-11 0 8.77021e-12)
(4.58051e-11 0 8.66805e-12)
(2.73724e-11 0 8.57397e-12)
(9.10321e-12 0 8.51541e-12)
(-0.00204905 0 0.00229721)
(-0.00236356 0 0.00126905)
(-0.00210711 0 0.00151662)
(-0.0022947 0 0.000781962)
(-0.00292408 0 0.000294634)
(-0.00335417 0 0.0014536)
(-0.00382583 0 0.000941515)
(-0.00389563 0 0.000632012)
(-0.00372948 0 -0.000448914)
(-0.00331141 0 -0.000751232)
(-0.0026792 0 -0.0012117)
(-0.00186435 0 -0.00162107)
(-0.00164668 0 -0.000802364)
(-0.000496124 0 -0.00153432)
(-0.00048107 0 -0.000694781)
(2.91779e-06 0 -0.000599636)
(1.46969e-09 0 2.02682e-09)
(3.56715e-09 0 -2.00224e-10)
(4.13606e-09 0 2.95754e-10)
(3.93443e-09 0 3.9014e-10)
(3.65098e-09 0 3.7649e-10)
(3.3913e-09 0 3.37923e-10)
(3.16465e-09 0 2.98348e-10)
(2.96625e-09 0 2.63831e-10)
(2.79063e-09 0 2.35047e-10)
(2.63348e-09 0 2.11227e-10)
(2.49151e-09 0 1.91391e-10)
(2.36222e-09 0 1.74687e-10)
(2.24369e-09 0 1.60454e-10)
(2.1344e-09 0 1.48193e-10)
(2.03313e-09 0 1.37529e-10)
(1.93888e-09 0 1.2818e-10)
(1.85081e-09 0 1.19926e-10)
(1.76823e-09 0 1.12596e-10)
(1.69054e-09 0 1.06052e-10)
(1.61724e-09 0 1.00183e-10)
(1.54789e-09 0 9.48958e-11)
(1.48209e-09 0 9.0113e-11)
(1.41954e-09 0 8.57691e-11)
(1.35992e-09 0 8.18084e-11)
(1.303e-09 0 7.81833e-11)
(1.24854e-09 0 7.48527e-11)
(1.19636e-09 0 7.17812e-11)
(1.14628e-09 0 6.89383e-11)
(1.09814e-09 0 6.62976e-11)
(1.05182e-09 0 6.38363e-11)
(1.00719e-09 0 6.15345e-11)
(9.6414e-10 0 5.93752e-11)
(9.2258e-10 0 5.73435e-11)
(8.82422e-10 0 5.54267e-11)
(8.43589e-10 0 5.36138e-11)
(8.06009e-10 0 5.18952e-11)
(7.69619e-10 0 5.02626e-11)
(7.34361e-10 0 4.87091e-11)
(7.0018e-10 0 4.72286e-11)
(6.67026e-10 0 4.58159e-11)
(6.34853e-10 0 4.44666e-11)
(6.03618e-10 0 4.31768e-11)
(5.7328e-10 0 4.19433e-11)
(5.43799e-10 0 4.07635e-11)
(5.15139e-10 0 3.9635e-11)
(4.87263e-10 0 3.85559e-11)
(4.60139e-10 0 3.75246e-11)
(4.33732e-10 0 3.65398e-11)
(4.0801e-10 0 3.56005e-11)
(3.82941e-10 0 3.47058e-11)
(3.58494e-10 0 3.38551e-11)
(3.34638e-10 0 3.30477e-11)
(3.11343e-10 0 3.22834e-11)
(2.88579e-10 0 3.15617e-11)
(2.66315e-10 0 3.08825e-11)
(2.44521e-10 0 3.02455e-11)
(2.23168e-10 0 2.96506e-11)
(2.02226e-10 0 2.90976e-11)
(1.81665e-10 0 2.8586e-11)
(1.61456e-10 0 2.81153e-11)
(1.41569e-10 0 2.76845e-11)
(1.21978e-10 0 2.72919e-11)
(1.02653e-10 0 2.69345e-11)
(8.35686e-11 0 2.66071e-11)
(6.47012e-11 0 2.63015e-11)
(4.60296e-11 0 2.60108e-11)
(2.75309e-11 0 2.57483e-11)
(9.16075e-12 0 2.56042e-11)
(-0.00157981 0 0.00287764)
(-0.00136948 0 0.00226387)
(-0.00243578 0 0.00135179)
(-0.00285593 0 0.000452479)
(-0.00323036 0 0.00113187)
(-0.00382371 0 0.000512124)
(-0.00404746 0 0.000945024)
(-0.00394474 0 0.000564456)
(-0.00329932 0 -0.00018336)
(-0.00289968 0 0.000301672)
(-0.00299913 0 -0.000518596)
(-0.00227281 0 -0.0016056)
(-0.00149783 0 -0.00086748)
(-0.000722804 0 -0.00170497)
(-0.000607367 0 -0.00106046)
(0.000381154 0 -0.00101101)
(7.2949e-09 0 4.72148e-07)
(2.64969e-09 0 7.50851e-10)
(4.7505e-09 0 8.22542e-10)
(4.00802e-09 0 7.47608e-10)
(3.61617e-09 0 6.51207e-10)
(3.34046e-09 0 5.64242e-10)
(3.11792e-09 0 4.92269e-10)
(2.92704e-09 0 4.34003e-10)
(2.7584e-09 0 3.86757e-10)
(2.60693e-09 0 3.48017e-10)
(2.46941e-09 0 3.15796e-10)
(2.34362e-09 0 2.88615e-10)
(2.22785e-09 0 2.65393e-10)
(2.12078e-09 0 2.45334e-10)
(2.02131e-09 0 2.27848e-10)
(1.92855e-09 0 2.12488e-10)
(1.84173e-09 0 1.98908e-10)
(1.76021e-09 0 1.86833e-10)
(1.68342e-09 0 1.76043e-10)
(1.61088e-09 0 1.66357e-10)
(1.54219e-09 0 1.57626e-10)
(1.47697e-09 0 1.49723e-10)
(1.41491e-09 0 1.42541e-10)
(1.35573e-09 0 1.35989e-10)
(1.29919e-09 0 1.29989e-10)
(1.24507e-09 0 1.24474e-10)
(1.19318e-09 0 1.19386e-10)
(1.14335e-09 0 1.14675e-10)
(1.09545e-09 0 1.10296e-10)
(1.04933e-09 0 1.06213e-10)
(1.00488e-09 0 1.02394e-10)
(9.61991e-10 0 9.8809e-11)
(9.20577e-10 0 9.54351e-11)
(8.80551e-10 0 9.22508e-11)
(8.41838e-10 0 8.9238e-11)
(8.04368e-10 0 8.63812e-11)
(7.68079e-10 0 8.36668e-11)
(7.32913e-10 0 8.10832e-11)
(6.98818e-10 0 7.86204e-11)
(6.65745e-10 0 7.627e-11)
(6.33649e-10 0 7.40246e-11)
(6.02486e-10 0 7.18779e-11)
(5.72216e-10 0 6.98248e-11)
(5.428e-10 0 6.78606e-11)
(5.14203e-10 0 6.59818e-11)
(4.86389e-10 0 6.4185e-11)
(4.59324e-10 0 6.24678e-11)
(4.32975e-10 0 6.0828e-11)
(4.0731e-10 0 5.92637e-11)
(3.82297e-10 0 5.77738e-11)
(3.57905e-10 0 5.6357e-11)
(3.34104e-10 0 5.50125e-11)
(3.10864e-10 0 5.37397e-11)
(2.88153e-10 0 5.2538e-11)
(2.65943e-10 0 5.14071e-11)
(2.44203e-10 0 5.03467e-11)
(2.22903e-10 0 4.93563e-11)
(2.02013e-10 0 4.84358e-11)
(1.81504e-10 0 4.75845e-11)
(1.61347e-10 0 4.68015e-11)
(1.4151e-10 0 4.60855e-11)
(1.21966e-10 0 4.54345e-11)
(1.02685e-10 0 4.4845e-11)
(8.36353e-11 0 4.43113e-11)
(6.47881e-11 0 4.38234e-11)
(4.61156e-11 0 4.33708e-11)
(2.75978e-11 0 4.29655e-11)
(9.18789e-12 0 4.27771e-11)
(-0.00108554 0 0.00376167)
(-0.00127455 0 0.00277093)
(-0.00310639 0 0.000906057)
(-0.00291853 0 0.00205888)
(-0.00424736 0 0.00092133)
(-0.00460936 0 0.00144225)
(-0.00513785 0 0.000667273)
(-0.00527614 0 -0.00028767)
(-0.00480876 0 -0.00215221)
(-0.0040333 0 -0.000486041)
(-0.00352368 0 -0.0011638)
(-0.00184362 0 -0.00339906)
(-0.00208893 0 -0.00163135)
(-0.000551716 0 -0.00248809)
(-0.00119195 0 -0.00123448)
(0.000959732 0 -0.00127307)
(6.70309e-06 0 0.000203441)
(2.15896e-09 0 2.27568e-09)
(4.13156e-09 0 1.47751e-09)
(3.77361e-09 0 1.12364e-09)
(3.47946e-09 0 9.17496e-10)
(3.243e-09 0 7.77321e-10)
(3.04344e-09 0 6.74111e-10)
(2.86835e-09 0 5.94477e-10)
(2.71114e-09 0 5.30989e-10)
(2.56814e-09 0 4.79081e-10)
(2.43705e-09 0 4.35782e-10)
(2.31623e-09 0 3.9908e-10)
(2.2044e-09 0 3.6757e-10)
(2.10049e-09 0 3.40235e-10)
(2.00363e-09 0 3.16323e-10)
(1.91302e-09 0 2.95259e-10)
(1.82802e-09 0 2.76594e-10)
(1.74804e-09 0 2.59968e-10)
(1.67257e-09 0 2.45091e-10)
(1.60117e-09 0 2.31721e-10)
(1.53346e-09 0 2.19655e-10)
(1.46909e-09 0 2.08725e-10)
(1.40777e-09 0 1.98784e-10)
(1.34924e-09 0 1.89709e-10)
(1.29326e-09 0 1.81392e-10)
(1.23964e-09 0 1.73743e-10)
(1.18819e-09 0 1.66681e-10)
(1.13875e-09 0 1.60138e-10)
(1.09119e-09 0 1.54053e-10)
(1.04537e-09 0 1.48376e-10)
(1.00119e-09 0 1.43062e-10)
(9.58551e-10 0 1.38073e-10)
(9.17356e-10 0 1.33374e-10)
(8.77529e-10 0 1.28938e-10)
(8.38995e-10 0 1.24738e-10)
(8.01689e-10 0 1.20754e-10)
(7.65551e-10 0 1.16968e-10)
(7.30524e-10 0 1.13362e-10)
(6.96559e-10 0 1.09925e-10)
(6.63607e-10 0 1.06642e-10)
(6.31624e-10 0 1.03506e-10)
(6.00569e-10 0 1.00507e-10)
(5.70401e-10 0 9.76378e-11)
(5.41083e-10 0 9.48924e-11)
(5.12581e-10 0 9.22657e-11)
(4.84858e-10 0 8.97534e-11)
(4.57881e-10 0 8.73519e-11)
(4.31619e-10 0 8.50583e-11)
(4.06038e-10 0 8.28702e-11)
(3.81109e-10 0 8.07857e-11)
(3.568e-10 0 7.88035e-11)
(3.33081e-10 0 7.69222e-11)
(3.09921e-10 0 7.51411e-11)
(2.87291e-10 0 7.34596e-11)
(2.65161e-10 0 7.18771e-11)
(2.43501e-10 0 7.03933e-11)
(2.2228e-10 0 6.90077e-11)
(2.01469e-10 0 6.77199e-11)
(1.81039e-10 0 6.65294e-11)
(1.60958e-10 0 6.5435e-11)
(1.41197e-10 0 6.44354e-11)
(1.21725e-10 0 6.35287e-11)
(1.02512e-10 0 6.27122e-11)
(8.35232e-11 0 6.19817e-11)
(6.47234e-11 0 6.13276e-11)
(4.60813e-11 0 6.07321e-11)
(2.75885e-11 0 6.01866e-11)
(9.19037e-12 0 5.99783e-11)
(-0.00198259 0 0.0045279)
(-0.00136498 0 0.00356326)
(-0.00418303 0 0.0017938)
(-0.00425014 0 0.00245909)
(-0.00501606 0 0.00262494)
(-0.00581928 0 0.00179827)
(-0.00613959 0 0.00145146)
(-0.00625986 0 0.00105439)
(-0.00509394 0 -0.00315208)
(-0.00452803 0 -0.00110605)
(-0.00360536 0 -0.00202365)
(-0.00236487 0 -0.00383329)
(-0.00323076 0 -0.00153677)
(-0.000507928 0 -0.00286029)
(-0.00186124 0 -0.000968189)
(-0.0015997 0 -0.000632988)
(5.73334e-06 0 0.00148563)
(1.8726e-09 0 2.29522e-09)
(3.67048e-09 0 1.74173e-09)
(3.48355e-09 0 1.3697e-09)
(3.29232e-09 0 1.12574e-09)
(3.11326e-09 0 9.5787e-10)
(2.94758e-09 0 8.35201e-10)
(2.79402e-09 0 7.40735e-10)
(2.65144e-09 0 6.65024e-10)
(2.51893e-09 0 6.02564e-10)
(2.39571e-09 0 5.49958e-10)
(2.28098e-09 0 5.04976e-10)
(2.174e-09 0 4.66073e-10)
(2.07405e-09 0 4.32127e-10)
(1.98046e-09 0 4.02297e-10)
(1.8926e-09 0 3.75926e-10)
(1.80992e-09 0 3.52493e-10)
(1.73192e-09 0 3.31575e-10)
(1.65816e-09 0 3.12824e-10)
(1.58823e-09 0 2.95946e-10)
(1.5218e-09 0 2.80697e-10)
(1.45854e-09 0 2.66867e-10)
(1.39819e-09 0 2.54277e-10)
(1.34051e-09 0 2.42772e-10)
(1.28528e-09 0 2.32219e-10)
(1.23231e-09 0 2.22505e-10)
(1.18143e-09 0 2.13529e-10)
(1.13251e-09 0 2.05205e-10)
(1.0854e-09 0 1.9746e-10)
(1.03998e-09 0 1.90227e-10)
(9.96162e-10 0 1.83453e-10)
(9.53841e-10 0 1.77087e-10)
(9.12936e-10 0 1.71088e-10)
(8.7337e-10 0 1.65421e-10)
(8.35074e-10 0 1.60053e-10)
(7.97985e-10 0 1.54958e-10)
(7.62046e-10 0 1.50113e-10)
(7.27204e-10 0 1.45498e-10)
(6.9341e-10 0 1.41094e-10)
(6.60617e-10 0 1.36889e-10)
(6.28785e-10 0 1.32869e-10)
(5.97872e-10 0 1.29024e-10)
(5.67839e-10 0 1.25344e-10)
(5.38652e-10 0 1.21821e-10)
(5.10274e-10 0 1.18451e-10)
(4.82671e-10 0 1.15226e-10)
(4.55812e-10 0 1.12142e-10)
(4.29665e-10 0 1.09197e-10)
(4.04197e-10 0 1.06387e-10)
(3.79378e-10 0 1.03709e-10)
(3.55179e-10 0 1.01162e-10)
(3.31568e-10 0 9.87448e-11)
(3.08516e-10 0 9.64561e-11)
(2.85993e-10 0 9.42952e-11)
(2.6397e-10 0 9.22615e-11)
(2.42416e-10 0 9.03547e-11)
(2.21301e-10 0 8.85744e-11)
(2.00595e-10 0 8.69201e-11)
(1.80268e-10 0 8.53912e-11)
(1.60291e-10 0 8.39867e-11)
(1.40631e-10 0 8.27053e-11)
(1.21258e-10 0 8.15458e-11)
(1.0214e-10 0 8.05069e-11)
(8.32415e-11 0 7.95871e-11)
(6.45233e-11 0 7.87791e-11)
(4.59492e-11 0 7.80565e-11)
(2.75142e-11 0 7.73695e-11)
(9.1671e-12 0 7.71601e-11)
(5.49857e-05 0 0.00576563)
(0.00289704 0 0.00618647)
(-0.00156577 0 0.00529232)
(-0.0044533 0 0.00338111)
(-0.00583733 0 0.00206927)
(-0.00608019 0 0.00187573)
(-0.00600067 0 0.00074538)
(-0.00578044 0 -0.000369759)
(-0.00545334 0 -0.00220977)
(-0.00472538 0 -0.00351194)
(-0.00429142 0 -0.00337372)
(-0.00147109 0 -0.00525752)
(-0.00417658 0 -0.00173932)
(-0.000840619 0 -0.00350415)
(-0.000637084 0 -0.00237419)
(-0.000622342 0 -0.00165838)
(-4.28856e-06 0 -0.00114303)
(1.64584e-09 0 2.32291e-09)
(3.26598e-09 0 1.84686e-09)
(3.19766e-09 0 1.50336e-09)
(3.09473e-09 0 1.26715e-09)
(2.97192e-09 0 1.09872e-09)
(2.84118e-09 0 9.71505e-10)
(2.71013e-09 0 8.70505e-10)
(2.58295e-09 0 7.87403e-10)
(2.46163e-09 0 7.17379e-10)
(2.34693e-09 0 6.57428e-10)
(2.23896e-09 0 6.05525e-10)
(2.13747e-09 0 5.60215e-10)
(2.04206e-09 0 5.20403e-10)
(1.95227e-09 0 4.85232e-10)
(1.86764e-09 0 4.54013e-10)
(1.78773e-09 0 4.26186e-10)
(1.7121e-09 0 4.01284e-10)
(1.64039e-09 0 3.78915e-10)
(1.57224e-09 0 3.58748e-10)
(1.50736e-09 0 3.405e-10)
(1.44545e-09 0 3.23928e-10)
(1.38629e-09 0 3.08824e-10)
(1.32964e-09 0 2.95005e-10)
(1.27531e-09 0 2.82318e-10)
(1.22314e-09 0 2.70625e-10)
(1.17298e-09 0 2.5981e-10)
(1.12467e-09 0 2.49772e-10)
(1.07812e-09 0 2.40421e-10)
(1.03319e-09 0 2.31682e-10)
(9.89815e-10 0 2.23489e-10)
(9.4789e-10 0 2.15783e-10)
(9.0734e-10 0 2.08516e-10)
(8.68096e-10 0 2.01645e-10)
(8.30092e-10 0 1.95132e-10)
(7.93271e-10 0 1.88946e-10)
(7.57577e-10 0 1.83059e-10)
(7.22962e-10 0 1.77448e-10)
(6.89379e-10 0 1.72092e-10)
(6.56785e-10 0 1.66975e-10)
(6.25138e-10 0 1.6208e-10)
(5.94401e-10 0 1.57396e-10)
(5.64536e-10 0 1.52912e-10)
(5.35509e-10 0 1.48618e-10)
(5.07286e-10 0 1.44508e-10)
(4.79833e-10 0 1.40574e-10)
(4.5312e-10 0 1.36812e-10)
(4.27114e-10 0 1.33217e-10)
(4.01787e-10 0 1.29787e-10)
(3.77106e-10 0 1.26517e-10)
(3.53043e-10 0 1.23407e-10)
(3.29567e-10 0 1.20455e-10)
(3.06649e-10 0 1.17659e-10)
(2.8426e-10 0 1.15019e-10)
(2.62369e-10 0 1.12535e-10)
(2.40948e-10 0 1.10206e-10)
(2.19965e-10 0 1.08031e-10)
(1.99391e-10 0 1.06011e-10)
(1.79195e-10 0 1.04145e-10)
(1.59347e-10 0 1.02432e-10)
(1.39815e-10 0 1.0087e-10)
(1.20569e-10 0 9.94605e-11)
(1.01574e-10 0 9.82019e-11)
(8.27985e-11 0 9.70958e-11)
(6.42029e-11 0 9.61389e-11)
(4.57445e-11 0 9.53028e-11)
(2.73766e-11 0 9.45155e-11)
(9.10483e-12 0 9.42625e-11)
(-0.00256539 0 0.00572311)
(-0.00519344 0 0.00428044)
(-0.00417713 0 0.00491928)
(-0.00466877 0 0.00457023)
(-0.00546851 0 0.00404399)
(-0.00559157 0 0.00293797)
(-0.00585147 0 0.00076543)
(-0.00568071 0 -0.000382129)
(-0.00586817 0 -0.00248941)
(-0.00534331 0 -0.00375526)
(-0.00564977 0 -0.00350584)
(-0.00043633 0 -0.00657181)
(-0.00355029 0 -0.00329264)
(-0.00089534 0 -0.0038461)
(-0.000900467 0 -0.00240895)
(-0.000373045 0 -0.00172484)
(-2.71297e-06 0 -0.000734612)
(1.43633e-09 0 2.31798e-09)
(2.90562e-09 0 1.83624e-09)
(2.94238e-09 0 1.54309e-09)
(2.91475e-09 0 1.34916e-09)
(2.83767e-09 0 1.20339e-09)
(2.73515e-09 0 1.0848e-09)
(2.62291e-09 0 9.84556e-10)
(2.50936e-09 0 8.98291e-10)
(2.39856e-09 0 8.23344e-10)
(2.2923e-09 0 7.57826e-10)
(2.19129e-09 0 7.0028e-10)
(2.09562e-09 0 6.4953e-10)
(2.00515e-09 0 6.04605e-10)
(1.91958e-09 0 5.64697e-10)
(1.83857e-09 0 5.29125e-10)
(1.76178e-09 0 4.97314e-10)
(1.68887e-09 0 4.68772e-10)
(1.61951e-09 0 4.43078e-10)
(1.55341e-09 0 4.19871e-10)
(1.49031e-09 0 3.98837e-10)
(1.42997e-09 0 3.79707e-10)
(1.37218e-09 0 3.62247e-10)
(1.31673e-09 0 3.46252e-10)
(1.26347e-09 0 3.31548e-10)
(1.21223e-09 0 3.1798e-10)
(1.16288e-09 0 3.05416e-10)
(1.11531e-09 0 2.9374e-10)
(1.0694e-09 0 2.82851e-10)
(1.02506e-09 0 2.72663e-10)
(9.82193e-10 0 2.631e-10)
(9.40731e-10 0 2.54098e-10)
(9.00598e-10 0 2.456e-10)
(8.61732e-10 0 2.37556e-10)
(8.24072e-10 0 2.29926e-10)
(7.87565e-10 0 2.22673e-10)
(7.52161e-10 0 2.15765e-10)
(7.17814e-10 0 2.09176e-10)
(6.8448e-10 0 2.02883e-10)
(6.52119e-10 0 1.96866e-10)
(6.20692e-10 0 1.91108e-10)
(5.90163e-10 0 1.85594e-10)
(5.60497e-10 0 1.80313e-10)
(5.31661e-10 0 1.75255e-10)
(5.03621e-10 0 1.7041e-10)
(4.76346e-10 0 1.65772e-10)
(4.49806e-10 0 1.61335e-10)
(4.23971e-10 0 1.57094e-10)
(3.9881e-10 0 1.53046e-10)
(3.74293e-10 0 1.49186e-10)
(3.50392e-10 0 1.45514e-10)
(3.27078e-10 0 1.42028e-10)
(3.04321e-10 0 1.38726e-10)
(2.82091e-10 0 1.35608e-10)
(2.6036e-10 0 1.32673e-10)
(2.39098e-10 0 1.29922e-10)
(2.18274e-10 0 1.27354e-10)
(1.97858e-10 0 1.24969e-10)
(1.7782e-10 0 1.22766e-10)
(1.58128e-10 0 1.20745e-10)
(1.38752e-10 0 1.18906e-10)
(1.19658e-10 0 1.17247e-10)
(1.00816e-10 0 1.1577e-10)
(8.21915e-11 0 1.14478e-10)
(6.3749e-11 0 1.1337e-10)
(4.5441e-11 0 1.12431e-10)
(2.71876e-11 0 1.11612e-10)
(9.03092e-12 0 1.11239e-10)
(-0.00232194 0 0.00768303)
(-0.00241611 0 0.00728312)
(-0.00361546 0 0.00645726)
(-0.00477677 0 0.00569984)
(-0.00507308 0 0.00422963)
(-0.00576204 0 0.00099131)
(-0.00533758 0 0.000865085)
(-0.00516233 0 -0.00254792)
(-0.00603454 0 -0.00109907)
(-0.00433116 0 -0.00522399)
(-0.00498968 0 -0.00497126)
(-0.000942078 0 -0.00686786)
(-0.000708264 0 -0.00567847)
(-0.00182779 0 -0.00390735)
(-0.000697323 0 -0.00284839)
(-0.000236952 0 -0.00220349)
(-1.36143e-06 0 -0.00125096)
(1.19606e-09 0 2.31305e-09)
(2.54347e-09 0 1.66083e-09)
(2.74355e-09 0 1.49605e-09)
(2.77823e-09 0 1.389e-09)
(2.72584e-09 0 1.28425e-09)
(2.63771e-09 0 1.18199e-09)
(2.53693e-09 0 1.08634e-09)
(2.43343e-09 0 9.99248e-10)
(2.33154e-09 0 9.21033e-10)
(2.23312e-09 0 8.5123e-10)
(2.13896e-09 0 7.89075e-10)
(2.04925e-09 0 7.33734e-10)
(1.96397e-09 0 6.84405e-10)
(1.88291e-09 0 6.40358e-10)
(1.80583e-09 0 6.0094e-10)
(1.73246e-09 0 5.65577e-10)
(1.66253e-09 0 5.33764e-10)
(1.59577e-09 0 5.05063e-10)
(1.53196e-09 0 4.79089e-10)
(1.47086e-09 0 4.55507e-10)
(1.41227e-09 0 4.34025e-10)
(1.35601e-09 0 4.14387e-10)
(1.30192e-09 0 3.96372e-10)
(1.24985e-09 0 3.79786e-10)
(1.19966e-09 0 3.64459e-10)
(1.15124e-09 0 3.50247e-10)
(1.10449e-09 0 3.3702e-10)
(1.05931e-09 0 3.24669e-10)
(1.01562e-09 0 3.13098e-10)
(9.73343e-10 0 3.02224e-10)
(9.32405e-10 0 2.91974e-10)
(8.92745e-10 0 2.82287e-10)
(8.54308e-10 0 2.73109e-10)
(8.17039e-10 0 2.64393e-10)
(7.80891e-10 0 2.56099e-10)
(7.45817e-10 0 2.48194e-10)
(7.11775e-10 0 2.40647e-10)
(6.78726e-10 0 2.33433e-10)
(6.46632e-10 0 2.26531e-10)
(6.15458e-10 0 2.19922e-10)
(5.85168e-10 0 2.13589e-10)
(5.5573e-10 0 2.07521e-10)
(5.27113e-10 0 2.01705e-10)
(4.99285e-10 0 1.96132e-10)
(4.72215e-10 0 1.90795e-10)
(4.45876e-10 0 1.85687e-10)
(4.20236e-10 0 1.80803e-10)
(3.95268e-10 0 1.76139e-10)
(3.70942e-10 0 1.71691e-10)
(3.4723e-10 0 1.67459e-10)
(3.24103e-10 0 1.6344e-10)
(3.01532e-10 0 1.59632e-10)
(2.79488e-10 0 1.56036e-10)
(2.57943e-10 0 1.52652e-10)
(2.36866e-10 0 1.49479e-10)
(2.16227e-10 0 1.46517e-10)
(1.95997e-10 0 1.43767e-10)
(1.76143e-10 0 1.41229e-10)
(1.56636e-10 0 1.38902e-10)
(1.37442e-10 0 1.36786e-10)
(1.1853e-10 0 1.34881e-10)
(9.98662e-11 0 1.33187e-10)
(8.14172e-11 0 1.31709e-10)
(6.31462e-11 0 1.30452e-10)
(4.50045e-11 0 1.29415e-10)
(2.69302e-11 0 1.28581e-10)
(8.95079e-12 0 1.28074e-10)
(-0.00337839 0 0.0101696)
(0.00119341 0 0.00934283)
(-0.00306797 0 0.00741689)
(-0.00479822 0 0.00555077)
(-0.00472848 0 0.00410003)
(-0.00507909 0 0.00204593)
(-0.00467768 0 0.0016821)
(-0.00355977 0 -0.00391306)
(-0.0056624 0 -0.000956819)
(-0.00260562 0 -0.00634585)
(-0.00352817 0 -0.00633457)
(-0.00417606 0 -0.00568555)
(-0.000590337 0 -0.00627552)
(-0.00106713 0 -0.00483548)
(-0.000549938 0 -0.003076)
(-0.000241188 0 -0.00229054)
(9.06728e-06 0 -0.00154366)
(8.21549e-10 0 2.03104e-09)
(2.14289e-09 0 1.05792e-09)
(2.6896e-09 0 1.39848e-09)
(2.71805e-09 0 1.42689e-09)
(2.64544e-09 0 1.36292e-09)
(2.55145e-09 0 1.27339e-09)
(2.45341e-09 0 1.18062e-09)
(2.35617e-09 0 1.09243e-09)
(2.26152e-09 0 1.01135e-09)
(2.17026e-09 0 9.37935e-10)
(2.08274e-09 0 8.719e-10)
(1.99904e-09 0 8.12671e-10)
(1.9191e-09 0 7.5958e-10)
(1.84276e-09 0 7.11965e-10)
(1.76984e-09 0 6.69203e-10)
(1.70013e-09 0 6.30728e-10)
(1.63341e-09 0 5.96031e-10)
(1.56948e-09 0 5.64659e-10)
(1.50814e-09 0 5.36213e-10)
(1.44922e-09 0 5.10339e-10)
(1.39254e-09 0 4.86728e-10)
(1.33796e-09 0 4.65108e-10)
(1.28535e-09 0 4.45242e-10)
(1.23458e-09 0 4.26921e-10)
(1.18554e-09 0 4.09965e-10)
(1.13814e-09 0 3.94216e-10)
(1.0923e-09 0 3.79536e-10)
(1.04792e-09 0 3.65807e-10)
(1.00495e-09 0 3.52925e-10)
(9.63315e-10 0 3.40802e-10)
(9.22956e-10 0 3.29359e-10)
(8.8382e-10 0 3.1853e-10)
(8.45858e-10 0 3.08257e-10)
(8.09022e-10 0 2.9849e-10)
(7.73272e-10 0 2.89187e-10)
(7.38565e-10 0 2.8031e-10)
(7.04864e-10 0 2.71827e-10)
(6.72133e-10 0 2.63712e-10)
(6.40338e-10 0 2.5594e-10)
(6.09445e-10 0 2.48493e-10)
(5.79424e-10 0 2.41354e-10)
(5.50243e-10 0 2.34507e-10)
(5.21872e-10 0 2.27942e-10)
(4.94282e-10 0 2.21648e-10)
(4.67445e-10 0 2.15617e-10)
(4.41331e-10 0 2.09842e-10)
(4.15913e-10 0 2.04319e-10)
(3.91163e-10 0 1.99042e-10)
(3.67053e-10 0 1.94009e-10)
(3.43555e-10 0 1.89217e-10)
(3.20641e-10 0 1.84666e-10)
(2.98283e-10 0 1.80354e-10)
(2.76451e-10 0 1.7628e-10)
(2.55117e-10 0 1.72446e-10)
(2.34252e-10 0 1.68851e-10)
(2.13826e-10 0 1.65496e-10)
(1.93808e-10 0 1.62382e-10)
(1.74167e-10 0 1.59509e-10)
(1.54871e-10 0 1.56876e-10)
(1.35889e-10 0 1.54485e-10)
(1.17186e-10 0 1.52335e-10)
(9.87299e-11 0 1.50427e-10)
(8.04847e-11 0 1.48767e-10)
(6.24123e-11 0 1.47366e-10)
(4.44636e-11 0 1.46237e-10)
(2.66231e-11 0 1.4533e-10)
(8.86651e-12 0 1.44757e-10)
(-0.0014599 0 0.0113871)
(-0.00106083 0 0.010114)
(-0.00259445 0 0.00834546)
(-0.00411962 0 0.00627296)
(-0.00287042 0 0.00551653)
(-0.00346864 0 0.00356577)
(-0.00380551 0 0.00121175)
(-0.00356498 0 -0.00248593)
(-0.00450428 0 0.000485119)
(1.62886e-06 0 -0.00687968)
(-0.00241074 0 -0.00697259)
(-0.000970783 0 -0.00751976)
(-0.00106261 0 -0.00682964)
(-0.000366422 0 -0.00558529)
(-0.000110066 0 -0.00323872)
(-0.000491979 0 -0.00196853)
(0.000422408 0 -0.00165721)
(8.20404e-09 0 5.7974e-07)
(1.67744e-09 0 1.43887e-09)
(3.09035e-09 0 1.57482e-09)
(2.7465e-09 0 1.5458e-09)
(2.58386e-09 0 1.46402e-09)
(2.46882e-09 0 1.36764e-09)
(2.36929e-09 0 1.27092e-09)
(2.2767e-09 0 1.17938e-09)
(2.18858e-09 0 1.09498e-09)
(2.10418e-09 0 1.01819e-09)
(2.02322e-09 0 9.48777e-10)
(1.94557e-09 0 8.8624e-10)
(1.87109e-09 0 8.29965e-10)
(1.79964e-09 0 7.79325e-10)
(1.73106e-09 0 7.33715e-10)
(1.66519e-09 0 6.92572e-10)
(1.60186e-09 0 6.55385e-10)
(1.54092e-09 0 6.21693e-10)
(1.48222e-09 0 5.91083e-10)
(1.42561e-09 0 5.63188e-10)
(1.37097e-09 0 5.37687e-10)
(1.31819e-09 0 5.14293e-10)
(1.26716e-09 0 4.92758e-10)
(1.21779e-09 0 4.72862e-10)
(1.16999e-09 0 4.54414e-10)
(1.12369e-09 0 4.37248e-10)
(1.07882e-09 0 4.2122e-10)
(1.03531e-09 0 4.06203e-10)
(9.93109e-10 0 3.9209e-10)
(9.52167e-10 0 3.78785e-10)
(9.12434e-10 0 3.66208e-10)
(8.73864e-10 0 3.54288e-10)
(8.36417e-10 0 3.42964e-10)
(8.00053e-10 0 3.32184e-10)
(7.64735e-10 0 3.21902e-10)
(7.30429e-10 0 3.12081e-10)
(6.971e-10 0 3.02686e-10)
(6.64717e-10 0 2.93689e-10)
(6.3325e-10 0 2.85066e-10)
(6.02668e-10 0 2.76796e-10)
(5.72942e-10 0 2.68862e-10)
(5.44043e-10 0 2.61248e-10)
(5.15945e-10 0 2.53942e-10)
(4.88619e-10 0 2.46934e-10)
(4.62039e-10 0 2.40215e-10)
(4.36176e-10 0 2.33778e-10)
(4.11005e-10 0 2.27619e-10)
(3.86499e-10 0 2.21732e-10)
(3.6263e-10 0 2.16115e-10)
(3.39371e-10 0 2.10766e-10)
(3.16695e-10 0 2.05684e-10)
(2.94574e-10 0 2.00867e-10)
(2.7298e-10 0 1.96316e-10)
(2.51884e-10 0 1.92032e-10)
(2.31258e-10 0 1.88015e-10)
(2.1107e-10 0 1.84267e-10)
(1.91292e-10 0 1.80788e-10)
(1.71891e-10 0 1.77579e-10)
(1.52836e-10 0 1.74642e-10)
(1.34093e-10 0 1.71976e-10)
(1.1563e-10 0 1.69582e-10)
(9.74117e-11 0 1.67462e-10)
(7.94042e-11 0 1.65623e-10)
(6.15735e-11 0 1.64077e-10)
(4.38835e-11 0 1.62848e-10)
(2.62861e-11 0 1.61847e-10)
(8.75182e-12 0 1.61257e-10)
(-0.0011261 0 0.011398)
(-0.00276932 0 0.0101658)
(-0.00237671 0 0.00918511)
(-0.00409609 0 0.00657654)
(-0.00284658 0 0.0046788)
(-0.00425845 0 0.000449506)
(-0.00348012 0 0.000312451)
(-0.00257415 0 -0.00384882)
(-0.00554566 0 -0.0010854)
(0.000122129 0 -0.00701706)
(-0.00163608 0 -0.00734779)
(-0.00145919 0 -0.00757821)
(0.000275375 0 -0.00720945)
(-0.000223823 0 -0.00595683)
(0.00031844 0 -0.0034381)
(-0.000624342 0 -0.00153627)
(-0.000853369 0 -0.00117989)
(2.39485e-06 0 0.000244422)
(1.44329e-09 0 2.29053e-09)
(2.7903e-09 0 1.8953e-09)
(2.61592e-09 0 1.71078e-09)
(2.48062e-09 0 1.57787e-09)
(2.37272e-09 0 1.4622e-09)
(2.27918e-09 0 1.35672e-09)
(2.19338e-09 0 1.2601e-09)
(2.11244e-09 0 1.17198e-09)
(2.03511e-09 0 1.09201e-09)
(1.96083e-09 0 1.01966e-09)
(1.88934e-09 0 9.54342e-10)
(1.82044e-09 0 8.9543e-10)
(1.75401e-09 0 8.4229e-10)
(1.68992e-09 0 7.94319e-10)
(1.62803e-09 0 7.50956e-10)
(1.56824e-09 0 7.11681e-10)
(1.51042e-09 0 6.76028e-10)
(1.45446e-09 0 6.43573e-10)
(1.40029e-09 0 6.13941e-10)
(1.34779e-09 0 5.86799e-10)
(1.2969e-09 0 5.6185e-10)
(1.24753e-09 0 5.38837e-10)
(1.19963e-09 0 5.17533e-10)
(1.15313e-09 0 4.97739e-10)
(1.10798e-09 0 4.79284e-10)
(1.06414e-09 0 4.62017e-10)
(1.02155e-09 0 4.45808e-10)
(9.80166e-10 0 4.30546e-10)
(9.3996e-10 0 4.16132e-10)
(9.00891e-10 0 4.02482e-10)
(8.62924e-10 0 3.89524e-10)
(8.26026e-10 0 3.77194e-10)
(7.90165e-10 0 3.6544e-10)
(7.5531e-10 0 3.54215e-10)
(7.21433e-10 0 3.43479e-10)
(6.88505e-10 0 3.33197e-10)
(6.56497e-10 0 3.2334e-10)
(6.25384e-10 0 3.13884e-10)
(5.95137e-10 0 3.04806e-10)
(5.65732e-10 0 2.9609e-10)
(5.37141e-10 0 2.87719e-10)
(5.0934e-10 0 2.79682e-10)
(4.82302e-10 0 2.71967e-10)
(4.56003e-10 0 2.64566e-10)
(4.30416e-10 0 2.57472e-10)
(4.05516e-10 0 2.5068e-10)
(3.81276e-10 0 2.44186e-10)
(3.57672e-10 0 2.37988e-10)
(3.34677e-10 0 2.32082e-10)
(3.12264e-10 0 2.26469e-10)
(2.90406e-10 0 2.21148e-10)
(2.69075e-10 0 2.1612e-10)
(2.48243e-10 0 2.11385e-10)
(2.27881e-10 0 2.06946e-10)
(2.07959e-10 0 2.02803e-10)
(1.88448e-10 0 1.98959e-10)
(1.69315e-10 0 1.95415e-10)
(1.50529e-10 0 1.92172e-10)
(1.32056e-10 0 1.89232e-10)
(1.13862e-10 0 1.86595e-10)
(9.59129e-11 0 1.84264e-10)
(7.81751e-11 0 1.82244e-10)
(6.06187e-11 0 1.80547e-10)
(4.32204e-11 0 1.79195e-10)
(2.5901e-11 0 1.78153e-10)
(8.62182e-12 0 1.77528e-10)
(-0.000859596 0 0.0120123)
(-0.000157517 0 0.0110644)
(-0.00201754 0 0.0100809)
(-0.00163477 0 0.00770008)
(-0.00215401 0 0.00510651)
(-0.00239323 0 0.00334604)
(-0.00287012 0 0.00168449)
(-0.000932619 0 -0.004593)
(-0.00500497 0 -0.00355209)
(0.0013548 0 -0.00695227)
(0.00103676 0 -0.00780032)
(0.000544725 0 -0.0078808)
(0.000698035 0 -0.00722872)
(0.000129897 0 -0.00607213)
(0.000401858 0 -0.00362798)
(-8.9096e-05 0 -0.00140854)
(-0.000694314 0 -0.00112018)
(-1.28096e-05 0 -0.000190631)
(1.30176e-09 0 2.30921e-09)
(2.54902e-09 0 2.03029e-09)
(2.45158e-09 0 1.83032e-09)
(2.3536e-09 0 1.67659e-09)
(2.26421e-09 0 1.54789e-09)
(2.18239e-09 0 1.43481e-09)
(2.1059e-09 0 1.33343e-09)
(2.0332e-09 0 1.24192e-09)
(1.96341e-09 0 1.15919e-09)
(1.89604e-09 0 1.08441e-09)
(1.83085e-09 0 1.01687e-09)
(1.76766e-09 0 9.55861e-10)
(1.70636e-09 0 9.00743e-10)
(1.64685e-09 0 8.509e-10)
(1.58905e-09 0 8.05764e-10)
(1.53289e-09 0 7.6481e-10)
(1.47828e-09 0 7.27563e-10)
(1.42517e-09 0 6.93592e-10)
(1.37349e-09 0 6.62513e-10)
(1.32321e-09 0 6.33986e-10)
(1.27427e-09 0 6.07709e-10)
(1.22662e-09 0 5.83417e-10)
(1.18025e-09 0 5.60878e-10)
(1.1351e-09 0 5.3989e-10)
(1.09115e-09 0 5.20277e-10)
(1.04836e-09 0 5.01886e-10)
(1.00672e-09 0 4.84584e-10)
(9.66196e-10 0 4.68258e-10)
(9.26757e-10 0 4.52808e-10)
(8.88382e-10 0 4.38149e-10)
(8.51046e-10 0 4.24208e-10)
(8.14724e-10 0 4.10921e-10)
(7.79392e-10 0 3.98234e-10)
(7.45027e-10 0 3.861e-10)
(7.11604e-10 0 3.74479e-10)
(6.791e-10 0 3.63336e-10)
(6.47492e-10 0 3.52641e-10)
(6.16756e-10 0 3.4237e-10)
(5.86868e-10 0 3.32501e-10)
(5.57806e-10 0 3.23016e-10)
(5.29546e-10 0 3.13899e-10)
(5.02065e-10 0 3.05139e-10)
(4.75338e-10 0 2.96725e-10)
(4.49342e-10 0 2.88648e-10)
(4.24053e-10 0 2.80902e-10)
(3.99447e-10 0 2.73481e-10)
(3.75498e-10 0 2.66383e-10)
(3.52183e-10 0 2.59604e-10)
(3.29475e-10 0 2.53143e-10)
(3.07349e-10 0 2.46999e-10)
(2.85778e-10 0 2.41174e-10)
(2.64735e-10 0 2.35667e-10)
(2.44192e-10 0 2.30481e-10)
(2.24121e-10 0 2.25618e-10)
(2.04493e-10 0 2.2108e-10)
(1.85276e-10 0 2.16869e-10)
(1.66439e-10 0 2.12989e-10)
(1.47951e-10 0 2.0944e-10)
(1.29777e-10 0 2.06225e-10)
(1.11883e-10 0 2.03346e-10)
(9.42336e-11 0 2.00804e-10)
(7.67949e-11 0 1.98603e-10)
(5.95345e-11 0 1.96753e-10)
(4.24277e-11 0 1.9527e-10)
(2.54342e-11 0 1.94181e-10)
(8.47889e-12 0 1.93546e-10)
(-0.000619653 0 0.0129827)
(-0.000992079 0 0.0116853)
(-0.000757711 0 0.0106632)
(-0.00118951 0 0.00776579)
(-0.00137069 0 0.00530294)
(-0.00194831 0 0.00326027)
(-0.00226033 0 0.00213731)
(-0.000388121 0 -0.00386129)
(-0.00225126 0 -0.00503)
(0.00317382 0 -0.00635158)
(0.00186282 0 -0.008008)
(0.00152957 0 -0.00791268)
(0.00174646 0 -0.00714184)
(0.000212402 0 -0.00610724)
(0.00103327 0 -0.00338704)
(-0.000383792 0 -0.0011005)
(0.000910963 0 -0.000912631)
(-7.73287e-06 0 -0.00121994)
(1.18783e-09 0 2.31808e-09)
(2.34585e-09 0 2.09629e-09)
(2.28824e-09 0 1.90942e-09)
(2.21938e-09 0 1.7535e-09)
(2.14927e-09 0 1.61999e-09)
(2.08104e-09 0 1.50277e-09)
(2.01518e-09 0 1.39822e-09)
(1.95147e-09 0 1.30424e-09)
(1.88961e-09 0 1.21946e-09)
(1.82938e-09 0 1.14289e-09)
(1.77062e-09 0 1.0737e-09)
(1.71323e-09 0 1.01116e-09)
(1.65714e-09 0 9.54597e-10)
(1.6023e-09 0 9.03374e-10)
(1.54865e-09 0 8.56919e-10)
(1.49618e-09 0 8.14698e-10)
(1.44484e-09 0 7.76229e-10)
(1.39462e-09 0 7.41076e-10)
(1.3455e-09 0 7.08849e-10)
(1.29746e-09 0 6.792e-10)
(1.2505e-09 0 6.51826e-10)
(1.20462e-09 0 6.26458e-10)
(1.15979e-09 0 6.02862e-10)
(1.11601e-09 0 5.80834e-10)
(1.07329e-09 0 5.60196e-10)
(1.03159e-09 0 5.40797e-10)
(9.90925e-10 0 5.22503e-10)
(9.51273e-10 0 5.052e-10)
(9.12623e-10 0 4.8879e-10)