/*--------------------------------*- C++ -*----------------------------------*\
  =========                 |
  \\      /  F ield         | OpenFOAM: The Open Source CFD Toolbox
   \\    /   O peration     | Website:  https://openfoam.org
    \\  /    A nd           | Version:  6
     \\/     M anipulation  |
\*---------------------------------------------------------------------------*/
FoamFile
{
    version     2.0;
    format      ascii;
    class       surfaceScalarField;
    location    "3100";
    object      phi;
}
// * * * * * * * * * * * * * * * * * * * * * * * * * * * * * * * * * * * * * //

dimensions      [0 3 -1 0 0 0 0];

internalField   nonuniform List<scalar> 
9440
(
2.50937e-10
-2.50937e-10
4.39104e-10
-1.88166e-10
5.58213e-10
-1.19108e-10
5.19299e-10
3.89147e-11
4.02849e-10
1.16452e-10
2.10952e-10
1.91897e-10
-5.76731e-11
2.68626e-10
-3.8811e-10
3.30438e-10
-6.97849e-10
3.0974e-10
-9.45696e-10
2.47847e-10
-1.29888e-09
3.53189e-10
-1.62344e-09
3.24556e-10
-1.86789e-09
2.44454e-10
-2.14738e-09
2.79482e-10
-2.34393e-09
1.96559e-10
-2.54435e-09
2.00412e-10
-2.77023e-09
2.25883e-10
-2.92618e-09
1.55949e-10
-3.14191e-09
2.15728e-10
-3.31826e-09
1.76351e-10
-3.44488e-09
1.26626e-10
-3.54696e-09
1.02074e-10
-3.60544e-09
5.84828e-11
-3.64309e-09
3.7646e-11
-3.65094e-09
7.85382e-12
-3.62209e-09
-2.88527e-11
-3.59663e-09
-2.54611e-11
-3.5774e-09
-1.92318e-11
-3.56409e-09
-1.33028e-11
-3.5572e-09
-6.8917e-12
-3.56543e-09
8.23008e-12
-3.58822e-09
2.27955e-11
-3.61624e-09
2.80184e-11
-3.65908e-09
4.28422e-11
-3.72103e-09
6.19471e-11
-3.7941e-09
7.30676e-11
-3.86386e-09
6.97664e-11
-3.92448e-09
6.0616e-11
-3.98058e-09
5.61003e-11
-3.92026e-09
-6.0315e-11
-3.80252e-09
-1.17734e-10
-3.6458e-09
-1.56721e-10
-3.48922e-09
-1.56585e-10
-3.15521e-09
-3.34012e-10
-2.87483e-09
-2.80379e-10
-2.63193e-09
-2.429e-10
-2.34714e-09
-2.84783e-10
-2.02546e-09
-3.21685e-10
-1.74608e-09
-2.79375e-10
-1.5283e-09
-2.1778e-10
-1.03774e-09
-4.90559e-10
-2.90104e-10
-7.47637e-10
-4.1638e-10
1.26276e-10
-1.01608e-10
-3.14772e-10
1.85683e-10
-2.87291e-10
4.72866e-10
-2.87182e-10
7.63649e-10
-2.90782e-10
9.82325e-10
-2.18676e-10
1.21834e-09
-2.36018e-10
1.33932e-09
-1.20971e-10
1.45611e-09
-1.16797e-10
1.54645e-09
-9.03366e-11
1.55475e-09
-8.29844e-12
1.53403e-09
2.07215e-11
1.56579e-09
-3.17563e-11
1.66309e-09
-9.73043e-11
1.8165e-09
-1.53404e-10
1.88262e-09
-6.61269e-11
1.88337e-09
-7.45598e-13
1.81648e-09
6.6892e-11
1.67081e-09
1.45667e-10
1.4729e-09
1.97916e-10
1.29567e-09
1.77232e-10
1.08727e-09
2.08399e-10
7.84978e-10
3.02288e-10
1.56222e-10
6.28757e-10
-5.29864e-10
6.86086e-10
-8.94952e-10
3.65088e-10
-1.14899e-09
2.54042e-10
-9.35723e-10
-2.13271e-10
-4.02926e-10
-5.32798e-10
1.15649e-14
-4.02946e-10
-9.01853e-19
-2.25847e-19
-5.57952e-19
-3.43901e-19
-2.9957e-19
-2.62103e-19
-9.5877e-20
-2.03106e-19
7.42415e-20
-1.68536e-19
2.26364e-19
-1.50504e-19
3.69528e-19
-1.41386e-19
5.08194e-19
-1.36521e-19
6.43776e-19
-1.33001e-19
7.75875e-19
-1.29126e-19
9.03124e-19
-1.23954e-19
1.02373e-18
-1.17026e-19
1.13579e-18
-1.08203e-19
1.23748e-18
-9.75566e-20
1.3272e-18
-8.53044e-20
1.40362e-18
-7.17492e-20
1.46568e-18
-5.72315e-20
1.51266e-18
-4.20951e-20
1.54414e-18
-2.66666e-20
1.56006e-18
-1.12485e-20
1.56059e-18
3.88962e-21
1.54618e-18
1.85167e-20
1.51744e-18
3.24474e-20
1.47515e-18
4.55427e-20
1.42021e-18
5.77069e-20
1.35358e-18
6.88835e-20
1.27627e-18
7.90545e-20
1.18931e-18
8.82272e-20
1.09375e-18
9.64214e-20
9.90605e-19
1.03656e-19
8.80832e-19
1.09949e-19
7.65333e-19
1.15321e-19
6.4496e-19
1.19802e-19
5.20541e-19
1.23425e-19
3.92911e-19
1.26219e-19
2.6293e-19
1.28198e-19
1.31546e-19
1.29317e-19
1.29315e-19
2.17772e-10
-4.68707e-10
4.19886e-10
-3.90278e-10
5.39992e-10
-2.39213e-10
4.76709e-10
1.02199e-10
3.46527e-10
2.46636e-10
1.54997e-10
3.83429e-10
-9.15377e-11
5.15162e-10
-3.14653e-10
5.53555e-10
-5.28728e-10
5.23816e-10
-8.04068e-10
5.23188e-10
-1.18941e-09
7.38533e-10
-1.61716e-09
7.52305e-10
-1.89381e-09
5.21101e-10
-2.03291e-09
4.18584e-10
-2.35158e-09
5.15231e-10
-2.54239e-09
3.91223e-10
-2.68844e-09
3.71926e-10
-2.90047e-09
3.67985e-10
-3.0036e-09
3.18849e-10
-3.10294e-09
2.75699e-10
-3.21721e-09
2.40896e-10
-3.26523e-09
1.50089e-10
-3.30191e-09
9.51579e-11
-3.34851e-09
8.42509e-11
-3.35992e-09
1.92623e-11
-3.38168e-09
-7.08802e-12
-3.42875e-09
2.16059e-11
-3.46095e-09
1.2968e-11
-3.47779e-09
3.54072e-12
-3.50344e-09
1.87562e-11
-3.53359e-09
3.83866e-11
-3.56658e-09
5.57782e-11
-3.59527e-09
5.67133e-11
-3.61787e-09
6.54494e-11
-3.66015e-09
1.04226e-10
-3.70839e-09
1.21305e-10
-3.73582e-09
9.71965e-11
-3.76597e-09
9.07701e-11
-3.79664e-09
8.67691e-11
-3.64642e-09
-2.1053e-10
-3.58534e-09
-1.78813e-10
-3.52454e-09
-2.17521e-10
-3.33531e-09
-3.45813e-10
-3.16655e-09
-5.02771e-10
-2.8869e-09
-5.60022e-10
-2.65252e-09
-4.77286e-10
-2.26959e-09
-6.67712e-10
-2.04688e-09
-5.4439e-10
-1.7099e-09
-6.16361e-10
-1.40156e-09
-5.26111e-10
-1.05338e-09
-8.38745e-10
-8.00589e-10
-1.00043e-09
-3.56924e-10
-3.17388e-10
-3.1451e-11
-6.40245e-10
2.53012e-10
-5.71753e-10
4.94634e-10
-5.28804e-10
8.14827e-10
-6.10974e-10
9.87882e-10
-3.9173e-10
1.26588e-09
-5.14018e-10
1.38505e-09
-2.40136e-10
1.46538e-09
-1.97127e-10
1.50401e-09
-1.28962e-10
1.50034e-09
-4.63403e-12
1.46939e-09
5.1675e-11
1.49873e-09
-6.10979e-11
1.5657e-09
-1.64268e-10
1.66164e-09
-2.49344e-10
1.73485e-09
-1.39332e-10
1.69628e-09
3.78184e-11
1.63039e-09
1.32787e-10
1.49845e-09
2.77603e-10
1.37523e-09
3.21144e-10
1.18983e-09
3.62634e-10
1.11537e-09
2.82856e-10
9.39882e-10
4.77777e-10
9.23396e-10
6.45243e-10
9.10797e-10
6.98685e-10
7.09016e-10
5.66868e-10
2.68335e-10
6.94723e-10
-1.753e-10
2.30365e-10
-2.09172e-10
-4.98916e-10
8.67048e-17
-6.12087e-10
-8.18016e-19
-3.34594e-19
-4.7957e-19
-6.74548e-19
-2.42602e-19
-4.96608e-19
-6.20598e-20
-3.82219e-19
9.23114e-20
-3.20807e-19
2.35483e-19
-2.90639e-19
3.74393e-19
-2.76391e-19
5.11713e-19
-2.69193e-19
6.47651e-19
-2.63634e-19
7.81047e-19
-2.56627e-19
9.10052e-19
-2.4652e-19
1.03255e-18
-2.32571e-19
1.14643e-18
-2.14639e-19
1.24973e-18
-1.92981e-19
1.34076e-18
-1.68109e-19
1.41814e-18
-1.40676e-19
1.48082e-18
-1.11384e-19
1.52809e-18
-8.09368e-20
1.55956e-18
-4.99976e-20
1.57519e-18
-1.91773e-20
1.57522e-18
1.09853e-20
1.56011e-18
4.00423e-20
1.53053e-18
6.76453e-20
1.48732e-18
9.35434e-20
1.43139e-18
1.17572e-19
1.36375e-18
1.3964e-19
1.28544e-18
1.59709e-19
1.1975e-18
1.77775e-19
1.10099e-18
1.93855e-19
9.96898e-19
2.07976e-19
8.86204e-19
2.20186e-19
7.69814e-19
2.30553e-19
6.48582e-19
2.39165e-19
5.23336e-19
2.46119e-19
3.94889e-19
2.51507e-19
2.64049e-19
2.55414e-19
1.31544e-19
2.57914e-19
2.59143e-19
2.8048e-10
-7.49187e-10
3.23582e-10
-4.33378e-10
3.07851e-10
-2.2348e-10
2.46356e-10
1.63696e-10
1.5321e-10
3.39782e-10
2.06608e-11
5.1598e-10
-1.73398e-10
7.09222e-10
-4.77752e-10
8.5791e-10
-9.2808e-10
9.74145e-10
-1.39366e-09
9.88768e-10
-1.62276e-09
9.67636e-10
-1.69625e-09
8.25789e-10
-1.8473e-09
6.72153e-10
-2.02141e-09
5.92699e-10
-2.21013e-09
7.03953e-10
-2.4243e-09
6.05388e-10
-2.55521e-09
5.02835e-10
-2.64678e-09
4.59559e-10
-2.76321e-09
4.35272e-10
-2.83669e-09
3.49185e-10
-2.89208e-09
2.96283e-10
-2.92938e-09
1.87388e-10
-2.97991e-09
1.45684e-10
-3.03184e-09
1.36188e-10
-3.0969e-09
8.43178e-11
-3.1925e-09
8.85146e-11
-3.27264e-09
1.01745e-10
-3.33756e-09
7.78873e-11
-3.37892e-09
4.49058e-11
-3.40553e-09
4.53589e-11
-3.42294e-09
5.57985e-11
-3.43054e-09
6.33849e-11
-3.45355e-09
7.97245e-11
-3.46616e-09
7.80616e-11
-3.49358e-09
1.31644e-10
-3.51266e-09
1.40382e-10
-3.49314e-09
7.76801e-11
-3.42975e-09
2.73847e-11
-3.35478e-09
1.17968e-11
-3.2974e-09
-2.67907e-10
-3.25062e-09
-2.25591e-10
-3.23167e-09
-2.36475e-10
-3.18889e-09
-3.88587e-10
-3.07528e-09
-6.16384e-10
-2.84663e-09
-7.88673e-10
-2.55912e-09
-7.64798e-10
-2.19061e-09
-1.03622e-09
-2.02325e-09
-7.11752e-10
-1.64652e-09
-9.93091e-10
-1.18821e-09
-9.84419e-10
-9.3579e-10
-1.09116e-09
-7.6483e-10
-1.17138e-09
-1.39782e-10
-9.42436e-10
9.04974e-11
-8.70524e-10
3.05816e-10
-7.87071e-10
5.35562e-10
-7.58549e-10
9.04136e-10
-9.79547e-10
1.13464e-09
-6.22233e-10
1.39725e-09
-7.76628e-10
1.53091e-09
-3.73791e-10
1.62745e-09
-2.93668e-10
1.6517e-09
-1.53216e-10
1.5938e-09
5.32667e-11
1.54948e-09
9.59956e-11
1.49704e-09
-8.64769e-12
1.48629e-09
-1.53524e-10
1.43574e-09
-1.98786e-10
1.46085e-09
-1.64442e-10
1.38362e-09
1.1505e-10
1.30265e-09
2.13754e-10
1.23178e-09
3.48473e-10
1.15009e-09
4.02835e-10
1.10566e-09
4.07063e-10
1.0646e-09
3.23915e-10
1.0641e-09
4.78276e-10
1.10899e-09
6.00359e-10
1.14102e-09
6.6665e-10
1.00559e-09
7.02295e-10
8.97572e-10
8.02743e-10
6.96605e-10
4.31323e-10
1.6696e-10
3.0713e-11
-3.57864e-16
-4.45134e-10
-7.14811e-19
-1.65e-18
-3.00982e-19
-1.08795e-18
-1.2757e-19
-6.68795e-19
-1.65613e-23
-5.08424e-19
1.22884e-19
-4.41878e-19
2.4973e-19
-4.14983e-19
3.81592e-19
-4.05047e-19
5.17272e-19
-4.0101e-19
6.54658e-19
-3.96534e-19
7.91154e-19
-3.88078e-19
9.24001e-19
-3.73824e-19
1.05049e-18
-3.53079e-19
1.16809e-18
-3.25896e-19
1.2746e-18
-2.92835e-19
1.36819e-18
-2.54779e-19
1.44743e-18
-2.128e-19
1.51126e-18
-1.68028e-19
1.55902e-18
-1.21574e-19
1.59038e-18
-7.44711e-20
1.60536e-18
-2.76463e-20
1.60427e-18
1.80972e-20
1.58771e-18
6.20952e-20
1.55643e-18
1.03831e-19
1.51135e-18
1.42929e-19
1.45346e-18
1.79133e-19
1.38382e-18
2.12292e-19
1.30351e-18
2.42345e-19
1.21358e-18
2.69305e-19
1.11511e-18
2.93226e-19
1.00911e-18
3.14189e-19
8.96571e-19
3.3229e-19
7.78426e-19
3.47649e-19
6.55536e-19
3.60402e-19
5.28724e-19
3.70703e-19
3.98796e-19
3.78708e-19
2.66549e-19
3.84563e-19
1.32773e-19
3.884e-19
3.90334e-19
1.10083e-10
-8.59268e-10
2.38186e-10
-5.6148e-10
2.05916e-10
-1.91208e-10
1.44759e-10
2.24854e-10
3.41217e-11
4.50422e-10
-8.79148e-11
6.38018e-10
-2.45759e-10
8.67067e-10
-4.06614e-10
1.01876e-09
-6.01323e-10
1.16886e-09
-9.39593e-10
1.32704e-09
-1.27405e-09
1.30209e-09
-1.58891e-09
1.14065e-09
-1.74705e-09
8.3029e-10
-1.94335e-09
7.89005e-10
-2.08649e-09
8.47094e-10
-2.23345e-09
7.52339e-10
-2.40713e-09
6.76515e-10
-2.47461e-09
5.27038e-10
-2.52069e-09
4.8136e-10
-2.60315e-09
4.31644e-10
-2.59499e-09
2.88119e-10
-2.68353e-09
2.75925e-10
-2.77177e-09
2.33926e-10
-2.83736e-09
2.01776e-10
-2.92892e-09
1.75883e-10
-3.00796e-09
1.67549e-10
-3.09001e-09
1.83796e-10
-3.14733e-09
1.35207e-10
-3.19041e-09
8.79903e-11
-3.23123e-09
8.61804e-11
-3.2482e-09
7.27641e-11
-3.24515e-09
6.03375e-11
-3.24733e-09
8.19038e-11
-3.2132e-09
4.39364e-11
-3.20453e-09
1.22973e-10
-3.17406e-09
1.09918e-10
-3.1841e-09
8.77216e-11
-3.15731e-09
5.94201e-13
-3.11382e-09
-3.1693e-11
-3.21246e-09
-1.69263e-10
-3.11789e-09
-3.20164e-10
-3.00127e-09
-3.53088e-10
-2.94897e-09
-4.40888e-10
-2.80097e-09
-7.64388e-10
-2.71674e-09
-8.72902e-10
-2.51757e-09
-9.63965e-10
-2.35753e-09
-1.19625e-09
-1.97109e-09
-1.0982e-09
-1.71052e-09
-1.25366e-09
-1.40361e-09
-1.29133e-09
-1.06414e-09
-1.43063e-09
-8.15242e-10
-1.42028e-09
-2.84201e-10
-1.47348e-09
1.20359e-11
-1.16676e-09
3.38365e-10
-1.1134e-09
6.27227e-10
-1.04741e-09
8.69481e-10
-1.2218e-09
1.18431e-09
-9.37057e-10
1.38252e-09
-9.74845e-10
1.4421e-09
-4.33367e-10
1.51926e-09
-3.70825e-10
1.54658e-09
-1.80536e-10
1.55598e-09
4.3871e-11
1.56266e-09
8.93191e-11
1.44787e-09
1.06134e-10
1.33167e-09
-3.7314e-11
1.21892e-09
-8.6044e-11
1.16769e-09
-1.13208e-10
1.0448e-09
2.37944e-10
9.35601e-10
3.22951e-10
9.2276e-10
3.61315e-10
9.69027e-10
3.56568e-10
1.04461e-09
3.31482e-10
1.02947e-09
3.3905e-10
1.04495e-09
4.62799e-10
1.07813e-09
5.67175e-10
1.08408e-09
6.60702e-10
9.92656e-10
7.93724e-10
9.24366e-10
8.71036e-10
8.2162e-10
5.34073e-10
5.90435e-10
2.61897e-10
6.09488e-17
1.453e-10
5.89772e-19
7.38866e-19
1.18792e-19
-6.17251e-19
3.34274e-20
-5.82801e-19
6.71463e-20
-5.40932e-19
1.50149e-19
-5.23151e-19
2.59666e-19
-5.22152e-19
3.85628e-19
-5.27971e-19
5.21748e-19
-5.33415e-19
6.63114e-19
-5.33537e-19
8.05408e-19
-5.25438e-19
9.44746e-19
-5.07739e-19
1.07767e-18
-4.80167e-19
1.20115e-18
-4.43225e-19
1.31266e-18
-3.97948e-19
1.41017e-18
-3.45724e-19
1.4922e-18
-2.88133e-19
1.55772e-18
-2.26805e-19
1.60613e-18
-1.63308e-19
1.63721e-18
-9.90791e-20
1.6511e-18
-3.53858e-20
1.64827e-18
2.66858e-20
1.62945e-18
8.62406e-20
1.59553e-18
1.42583e-19
1.54755e-18
1.95211e-19
1.48661e-18
2.43791e-19
1.41387e-18
2.88132e-19
1.33046e-18
3.28171e-19
1.23751e-18
3.6395e-19
1.13607e-18
3.95584e-19
1.02721e-18
4.23229e-19
9.1193e-19
4.4706e-19
7.91179e-19
4.67262e-19
6.65837e-19
4.84036e-19
5.36729e-19
4.97594e-19
4.04651e-19
5.08149e-19
2.70387e-19
5.15899e-19
1.34706e-19
5.21005e-19
5.23579e-19
1.17761e-10
-9.77028e-10
1.3785e-10
-5.81567e-10
5.60076e-11
-1.09364e-10
1.2444e-11
2.68419e-10
-6.35923e-11
5.26459e-10
-2.17958e-10
7.92385e-10
-3.61578e-10
1.01069e-09
-5.1926e-10
1.17645e-09
-7.22645e-10
1.37224e-09
-9.31792e-10
1.53619e-09
-1.17711e-09
1.54741e-09
-1.44288e-09
1.40642e-09
-1.69271e-09
1.08012e-09
-1.83812e-09
9.34416e-10
-1.96735e-09
9.76326e-10
-2.07671e-09
8.61699e-10
-2.16976e-09
7.69562e-10
-2.24812e-09
6.05394e-10
-2.21912e-09
4.52361e-10
-2.389e-09
6.01526e-10
-2.42282e-09
3.21941e-10
-2.51054e-09
3.63646e-10
-2.62368e-09
3.47064e-10
-2.6895e-09
2.67589e-10
-2.77782e-09
2.64205e-10
-2.84477e-09
2.34497e-10
-2.90948e-09
2.48511e-10
-2.97888e-09
2.04605e-10
-3.03751e-09
1.46619e-10
-3.07699e-09
1.25665e-10
-3.08917e-09
8.49452e-11
-3.08581e-09
5.69748e-11
-3.07468e-09
7.07796e-11
-3.02925e-09
-1.49051e-12
-2.94507e-09
3.87873e-11
-2.88619e-09
5.10377e-11
-2.86473e-09
6.62694e-11
-2.83787e-09
-2.62724e-11
-2.80815e-09
-6.141e-11
-2.82446e-09
-1.52946e-10
-2.80682e-09
-3.37809e-10
-2.7502e-09
-4.09707e-10
-2.73371e-09
-4.57375e-10
-2.69371e-09
-8.04385e-10
-2.6349e-09
-9.31718e-10
-2.54365e-09
-1.05521e-09
-2.37049e-09
-1.36941e-09
-2.04544e-09
-1.42325e-09
-1.80597e-09
-1.49313e-09
-1.47515e-09
-1.62215e-09
-1.21024e-09
-1.69554e-09
-8.9437e-10
-1.73615e-09
-5.82004e-10
-1.78584e-09
-2.08499e-10
-1.54026e-09
1.60364e-10
-1.48226e-09
5.8024e-10
-1.46729e-09
7.69516e-10
-1.41107e-09
1.00293e-09
-1.17047e-09
1.12193e-09
-1.09384e-09
1.17177e-09
-4.83204e-10
1.21587e-09
-4.14923e-10
1.22731e-09
-1.91977e-10
1.24451e-09
2.66693e-11
1.24121e-09
9.26227e-11
1.20042e-09
1.46921e-10
1.10015e-09
6.29587e-11
9.56103e-10
5.80064e-11
7.48193e-10
9.47021e-11
6.68506e-10
3.17632e-10
6.59136e-10
3.32323e-10
7.3027e-10
2.90182e-10
8.34149e-10
2.5269e-10
8.79885e-10
2.85746e-10
8.69968e-10
3.48966e-10
9.194e-10
4.13367e-10
9.57221e-10
5.29354e-10
9.37285e-10
6.80637e-10
8.76597e-10
8.5441e-10
8.22726e-10
9.24905e-10
6.50963e-10
7.05837e-10
4.81443e-10
4.31417e-10
2.15564e-16
6.26742e-10
3.35813e-19
1.18156e-18
1.53885e-19
-4.35257e-19
7.59218e-20
-5.04423e-19
8.55339e-20
-5.49494e-19
1.51474e-19
-5.87477e-19
2.53847e-19
-6.22281e-19
3.80184e-19
-6.5136e-19
5.21626e-19
-6.71184e-19
6.71214e-19
-6.78758e-19
8.23108e-19
-6.72368e-19
9.72317e-19
-6.51503e-19
1.11461e-18
-6.16629e-19
1.24643e-18
-5.68942e-19
1.36488e-18
-5.10142e-19
1.46776e-18
-4.42262e-19
1.55353e-18
-3.67502e-19
1.62122e-18
-2.88075e-19
1.67036e-18
-2.06079e-19
1.7009e-18
-1.23411e-19
1.71317e-18
-4.17158e-20
1.70783e-18
3.76196e-20
1.68579e-18
1.13466e-19
1.64816e-18
1.84956e-19
1.59613e-18
2.51478e-19
1.53096e-18
3.12644e-19
1.45391e-18
3.68251e-19
1.36624e-18
4.18257e-19
1.26914e-18
4.62753e-19
1.16372e-18
5.01937e-19
1.05104e-18
5.36062e-19
9.32132e-19
5.65405e-19
8.07953e-19
5.90245e-19
6.79395e-19
6.1086e-19
5.47284e-19
6.27528e-19
4.124e-19
6.40515e-19
2.75493e-19
6.50061e-19
1.3728e-19
6.56356e-19
6.59527e-19
1.47906e-11
-9.91818e-10
-1.46893e-11
-5.52085e-10
-4.97232e-11
-7.43288e-11
-5.01516e-11
2.68849e-10
-1.4659e-10
6.22899e-10
-2.5258e-10
8.98376e-10
-3.87533e-10
1.14564e-09
-5.98202e-10
1.38712e-09
-8.0786e-10
1.5819e-09
-9.942e-10
1.72253e-09
-1.15433e-09
1.70753e-09
-1.2608e-09
1.51289e-09
-1.51374e-09
1.33307e-09
-1.66101e-09
1.08168e-09
-1.74354e-09
1.05886e-09
-1.76812e-09
8.86279e-10
-1.8747e-09
8.76137e-10
-2.024e-09
7.54694e-10
-2.03455e-09
4.62919e-10
-2.15285e-09
7.19816e-10
-2.32687e-09
4.95967e-10
-2.3778e-09
4.14569e-10
-2.5087e-09
4.77965e-10
-2.57033e-09
3.29225e-10
-2.65757e-09
3.51443e-10
-2.73273e-09
3.09655e-10
-2.80849e-09
3.24276e-10
-2.87519e-09
2.71301e-10
-2.90859e-09
1.80017e-10
-2.92756e-09
1.44632e-10
-2.95825e-09
1.15638e-10
-2.9732e-09
7.19223e-11
-2.96309e-09
6.06799e-11
-2.92728e-09
-3.73066e-11
-2.8047e-09
-8.37887e-11
-2.69067e-09
-6.29869e-11
-2.60452e-09
-1.98803e-11
-2.59481e-09
-3.59889e-11
-2.59055e-09
-6.56609e-11
-2.63378e-09
-1.09724e-10
-2.60304e-09
-3.68544e-10
-2.50733e-09
-5.05418e-10
-2.50203e-09
-4.62674e-10
-2.51859e-09
-7.87822e-10
-2.46742e-09
-9.8289e-10
-2.31778e-09
-1.20484e-09
-2.25271e-09
-1.43449e-09
-2.08282e-09
-1.59314e-09
-1.80506e-09
-1.77089e-09
-1.44198e-09
-1.98523e-09
-1.06853e-09
-2.06898e-09
-9.32128e-10
-1.87255e-09
-7.91011e-10
-1.92696e-09
-3.56148e-10
-1.97513e-09
-2.30683e-11
-1.81534e-09
2.33645e-10
-1.724e-09
3.47469e-10
-1.5249e-09
4.62212e-10
-1.28521e-09
5.75053e-10
-1.20669e-09
6.69955e-10
-5.78105e-10
7.10681e-10
-4.55647e-10
7.58499e-10
-2.39795e-10
7.91631e-10
-6.46143e-12
8.05833e-10
7.84209e-11
7.44046e-10
2.08708e-10
6.38087e-10
1.68918e-10
4.90161e-10
2.05933e-10
3.59041e-10
2.25823e-10
4.01804e-10
2.74869e-10
4.83443e-10
2.50684e-10
5.70037e-10
2.03588e-10
6.06973e-10
2.15755e-10
6.38673e-10
2.54047e-10
6.90495e-10
2.97144e-10
7.02723e-10
4.01139e-10
7.30651e-10
5.01426e-10
7.32847e-10
6.78441e-10
7.09829e-10
8.77427e-10
6.8225e-10
9.52483e-10
6.06137e-10
7.8195e-10
4.281e-10
6.09454e-10
2.34087e-16
1.05484e-09
2.60464e-19
2.26496e-18
8.53729e-20
-2.5993e-19
3.14726e-20
-4.50161e-19
4.81467e-20
-5.65199e-19
1.16945e-19
-6.54749e-19
2.24769e-19
-7.27908e-19
3.60359e-19
-7.84054e-19
5.14052e-19
-8.21213e-19
6.77604e-19
-8.37901e-19
8.43973e-19
-8.33705e-19
1.00719e-18
-8.0921e-19
1.1623e-18
-7.65862e-19
1.30523e-18
-7.05759e-19
1.43276e-18
-6.31453e-19
1.54252e-18
-5.45783e-19
1.63295e-18
-4.51698e-19
1.70321e-18
-3.521e-19
1.75302e-18
-2.49702e-19
1.7826e-18
-1.46925e-19
1.79251e-18
-4.58296e-20
1.78367e-18
5.18884e-20
1.75728e-18
1.44877e-19
1.71468e-18
2.32118e-19
1.6573e-18
3.12918e-19
1.58656e-18
3.86868e-19
1.50392e-18
4.53796e-19
1.41074e-18
5.13715e-19
1.30832e-18
5.66794e-19
1.19784e-18
6.1333e-19
1.08038e-18
6.53691e-19
9.56971e-19
6.88279e-19
8.28568e-19
7.17488e-19
6.96063e-19
7.41693e-19
5.60271e-19
7.6125e-19
4.21946e-19
7.76485e-19
2.81788e-19
7.87681e-19
1.40452e-19
7.95059e-19
7.98769e-19
9.70029e-12
-1.00152e-09
-3.33525e-11
-5.09031e-10
-8.53365e-11
-2.23434e-11
-1.78319e-10
3.61833e-10
-2.28397e-10
6.72978e-10
-2.73527e-10
9.43507e-10
-4.01498e-10
1.27361e-09
-5.51765e-10
1.53739e-09
-7.53894e-10
1.78403e-09
-9.6659e-10
1.93522e-09
-1.15274e-09
1.89368e-09
-1.22402e-09
1.58417e-09
-1.33416e-09
1.44321e-09
-1.48761e-09
1.23514e-09
-1.59527e-09
1.16652e-09
-1.67024e-09
9.61247e-10
-1.66483e-09
8.70723e-10
-1.77305e-09
8.62917e-10
-1.93558e-09
6.25451e-10
-2.03345e-09
8.17682e-10
-2.16539e-09
6.27903e-10
-2.29316e-09
5.42339e-10
-2.38888e-09
5.73687e-10
-2.48563e-09
4.25981e-10
-2.57854e-09
4.44347e-10
-2.63212e-09
3.6324e-10
-2.70192e-09
3.94071e-10
-2.7534e-09
3.22781e-10
-2.77566e-09
2.02275e-10
-2.82497e-09
1.93946e-10
-2.85642e-09
1.47091e-10
-2.87556e-09
9.10629e-11
-2.81763e-09
2.74374e-12
-2.8302e-09
-2.47299e-11
-2.74862e-09
-1.6537e-10
-2.66311e-09
-1.48496e-10
-2.53071e-09
-1.52281e-10
-2.49828e-09
-6.84178e-11
-2.42778e-09
-1.36159e-10
-2.39475e-09
-1.42747e-10
-2.31861e-09
-4.44688e-10
-2.28599e-09
-5.38034e-10
-2.26376e-09
-4.8491e-10
-2.37295e-09
-6.78623e-10
-2.30044e-09
-1.0554e-09
-2.13278e-09
-1.37251e-09
-1.98863e-09
-1.57864e-09
-1.82228e-09
-1.75949e-09
-1.62725e-09
-1.96591e-09
-1.50908e-09
-2.1034e-09
-1.4835e-09
-2.09457e-09
-1.09655e-09
-2.2595e-09
-7.73034e-10
-2.25047e-09
-5.94065e-10
-2.15409e-09
-3.24288e-10
-2.08512e-09
-1.28443e-10
-1.91984e-09
2.85978e-11
-1.68194e-09
1.8707e-10
-1.44369e-09
1.93084e-10
-1.2127e-09
3.17747e-10
-7.02767e-10
2.98481e-10
-4.3638e-10
3.1306e-10
-2.54374e-10
3.94942e-10
-8.83421e-11
3.7314e-10
1.00223e-10
3.48641e-10
2.33208e-10
2.63128e-10
2.54432e-10
1.78496e-10
2.90566e-10
1.48119e-10
2.562e-10
2.15662e-10
2.07327e-10
2.8036e-10
1.85987e-10
2.99577e-10
1.84371e-10
3.28383e-10
1.8695e-10
3.63244e-10
2.19185e-10
3.57165e-10
3.03224e-10
3.43609e-10
4.14695e-10
3.50323e-10
4.94712e-10
3.5263e-10
6.76133e-10
4.26303e-10
8.03754e-10
4.56735e-10
9.22049e-10
4.45247e-10
7.93438e-10
3.66917e-10
6.87783e-10
2.13684e-16
1.42176e-09
-1.95524e-19
2.57993e-18
-1.042e-19
-3.5103e-19
-8.29507e-20
-4.71056e-19
-4.08208e-20
-6.06323e-19
4.40018e-20
-7.38082e-19
1.68622e-19
-8.50338e-19
3.23201e-19
-9.35788e-19
4.97364e-19
-9.91793e-19
6.818e-19
-1.018e-18
8.68467e-19
-1.01537e-18
1.05054e-18
-9.85787e-19
1.2224e-18
-9.31853e-19
1.37954e-18
-8.56765e-19
1.51843e-18
-7.64116e-19
1.63661e-18
-6.57724e-19
1.73255e-18
-5.41445e-19
1.80561e-18
-4.18991e-19
1.8558e-18
-2.93783e-19
1.88369e-18
-1.6883e-19
1.89023e-18
-4.66472e-20
1.87666e-18
7.07607e-20
1.84452e-18
1.81849e-19
1.79548e-18
2.8549e-19
1.73125e-18
3.8095e-19
1.65349e-18
4.67848e-19
1.56383e-18
5.46088e-19
1.46382e-18
6.15788e-19
1.35486e-18
6.77235e-19
1.2382e-18
7.30848e-19
1.11497e-18
7.7713e-19
9.8618e-19
8.16622e-19
8.52774e-19
8.49851e-19
7.1562e-19
8.77314e-19
5.75506e-19
8.9946e-19
4.33142e-19
9.16689e-19
2.89167e-19
9.29335e-19
1.44162e-19
9.37658e-19
9.41834e-19
-2.27759e-11
-9.78741e-10
-4.16633e-11
-4.90142e-10
-4.05166e-11
-2.34887e-11
-7.58391e-11
3.97156e-10
-2.05105e-10
8.02245e-10
-3.24396e-10
1.0628e-09
-4.01908e-10
1.35113e-09
-5.22586e-10
1.65806e-09
-7.154e-10
1.97684e-09
-8.94693e-10
2.11452e-09
-9.98341e-10
1.99733e-09
-1.08092e-09
1.66675e-09
-1.13199e-09
1.49428e-09
-1.23225e-09
1.3354e-09
-1.29558e-09
1.22985e-09
-1.42296e-09
1.08862e-09
-1.59178e-09
1.03954e-09
-1.73274e-09
1.00387e-09
-1.85689e-09
7.496e-10
-1.965e-09
9.25797e-10
-2.10493e-09
7.67827e-10
-2.22445e-09
6.61861e-10
-2.30972e-09
6.58962e-10
-2.41876e-09
5.35016e-10
-2.46668e-09
4.92269e-10
-2.52321e-09
4.19771e-10
-2.57773e-09
4.48591e-10
-2.62133e-09
3.66377e-10
-2.6585e-09
2.39442e-10
-2.70552e-09
2.40972e-10
-2.73033e-09
1.71903e-10
-2.73501e-09
9.57384e-11
-2.69117e-09
-4.10956e-11
-2.65455e-09
-6.13491e-11
-2.63174e-09
-1.88177e-10
-2.59461e-09
-1.85625e-10
-2.52641e-09
-2.20481e-10
-2.41172e-09
-1.83108e-10
-2.31961e-09
-2.2826e-10
-2.2468e-09
-2.15564e-10
-2.15907e-09
-5.32414e-10
-2.11874e-09
-5.78362e-10
-1.97768e-09
-6.25974e-10
-2.01374e-09
-6.42559e-10
-1.9757e-09
-1.09344e-09
-1.98498e-09
-1.36323e-09
-1.97179e-09
-1.59183e-09
-1.86137e-09
-1.86991e-09
-1.72693e-09
-2.10036e-09
-1.56784e-09
-2.26249e-09
-1.29449e-09
-2.36792e-09
-1.14345e-09
-2.41053e-09
-1.04297e-09
-2.35096e-09
-8.54442e-10
-2.34263e-09
-6.71919e-10
-2.26764e-09
-5.88309e-10
-2.00345e-09
-5.37962e-10
-1.73228e-09
-4.25067e-10
-1.55658e-09
-4.06438e-10
-1.23133e-09
-2.60935e-10
-8.48269e-10
-2.06666e-10
-4.90649e-10
-2.43514e-10
-2.17525e-10
-3.50952e-10
1.90968e-11
-4.39972e-10
1.89244e-10
-4.20142e-10
2.13379e-10
-3.58927e-10
1.93217e-10
-2.50629e-10
1.82269e-10
-1.38379e-10
1.43951e-10
-4.49516e-11
1.13899e-10
2.18141e-11
1.19221e-10
8.25357e-11
1.2365e-10
1.52871e-10
1.16614e-10
1.20412e-10
2.51645e-10
1.13842e-10
3.09793e-10
1.61329e-10
3.67208e-10
1.92072e-10
4.63968e-10
2.20262e-10
6.47943e-10
2.89546e-10
7.3447e-10
3.45848e-10
8.65746e-10
4.01594e-10
7.37691e-10
3.23368e-10
7.66008e-10
1.69647e-16
1.74513e-09
-3.36048e-19
3.11464e-18
-2.23587e-19
-4.63294e-19
-2.1762e-19
-4.76635e-19
-1.72015e-19
-6.50743e-19
-6.81068e-20
-8.40477e-19
8.31722e-20
-9.99488e-19
2.67196e-19
-1.11707e-18
4.71158e-19
-1.19235e-18
6.84425e-19
-1.22715e-18
8.98054e-19
-1.22423e-18
1.10447e-18
-1.18693e-18
1.29749e-18
-1.11918e-18
1.47218e-18
-1.02546e-18
1.62483e-18
-9.10599e-19
1.75289e-18
-7.79603e-19
1.85501e-18
-6.37413e-19
1.93082e-18
-4.88696e-19
1.98075e-18
-3.37677e-19
2.00587e-18
-1.88024e-19
2.00763e-18
-4.27373e-20
1.98775e-18
9.58749e-20
1.94816e-18
2.26121e-19
1.89094e-18
3.46833e-19
1.81814e-18
4.57303e-19
1.73173e-18
5.57238e-19
1.63353e-18
6.46673e-19
1.52527e-18
7.25891e-19
1.40847e-18
7.95348e-19
1.28449e-18
8.55626e-19
1.15446e-18
9.07389e-19
1.01941e-18
9.51331e-19
8.80237e-19
9.88135e-19
7.37767e-19
1.01843e-18
5.92735e-19
1.04279e-18
4.45788e-19
1.06169e-18
2.97489e-19
1.07553e-18
1.48338e-19
1.08463e-18
1.08918e-18
-2.19927e-11
-9.56747e-10
-3.25939e-11
-4.79539e-10
-5.53902e-11
-6.913e-13
-1.59472e-10
5.01239e-10
-2.40246e-10
8.83021e-10
-3.12201e-10
1.13475e-09
-4.10425e-10
1.44935e-09
-5.46671e-10
1.79431e-09
-6.8276e-10
2.11293e-09
-7.6435e-10
2.19611e-09
-8.54746e-10
2.08773e-09
-9.22358e-10
1.73436e-09
-9.53755e-10
1.52568e-09
-1.02821e-09
1.40985e-09
-1.15224e-09
1.35387e-09
-1.27467e-09
1.21106e-09
-1.42577e-09
1.19064e-09
-1.59866e-09
1.17676e-09
-1.78596e-09
9.36902e-10
-1.88114e-09
1.02097e-09
-1.98479e-09
8.71479e-10
-2.10016e-09
7.77231e-10
-2.18501e-09
7.43808e-10
-2.27978e-09
6.29785e-10
-2.33989e-09
5.52381e-10
-2.39719e-09
4.77072e-10
-2.42504e-09
4.76437e-10
-2.45086e-09
3.92204e-10
-2.49661e-09
2.85193e-10
-2.50342e-09
2.47781e-10
-2.50531e-09
1.73794e-10
-2.48894e-09
7.93631e-11
-2.48772e-09
-4.23109e-11
-2.45127e-09
-9.77966e-11
-2.46598e-09
-1.73467e-10
-2.42472e-09
-2.26889e-10
-2.4014e-09
-2.43798e-10
-2.35036e-09
-2.34147e-10
-2.2773e-09
-3.01319e-10
-2.06678e-09
-4.26087e-10
-1.96797e-09
-6.3122e-10
-1.88984e-09
-6.56495e-10
-1.77856e-09
-7.37244e-10
-1.7621e-09
-6.59023e-10
-1.71206e-09
-1.14349e-09
-1.75026e-09
-1.32502e-09
-1.80005e-09
-1.54204e-09
-1.77718e-09
-1.89278e-09
-1.67597e-09
-2.20156e-09
-1.54122e-09
-2.39724e-09
-1.41439e-09
-2.49474e-09
-1.263e-09
-2.56193e-09
-1.10506e-09
-2.5089e-09
-1.01795e-09
-2.42974e-09
-9.87459e-10
-2.29813e-09
-9.05487e-10
-2.08542e-09
-7.97082e-10
-1.84069e-09
-7.91423e-10
-1.56224e-09
-8.28055e-10
-1.1947e-09
-7.65628e-10
-9.10696e-10
-7.11268e-10
-5.45008e-10
-6.78413e-10
-2.5038e-10
-6.94957e-10
3.56421e-11
-6.52278e-10
1.46565e-10
-5.97605e-10
1.58707e-10
-5.2642e-10
1.22032e-10
-4.40246e-10
9.60957e-11
-3.49495e-10
5.32005e-11
-2.6507e-10
2.94742e-11
-1.84497e-10
3.86493e-11
-9.27071e-11
3.18598e-11
-5.16391e-12
2.90709e-11
3.94611e-11
2.0702e-10
1.76657e-10
1.72597e-10
2.57273e-10
2.86591e-10
2.46137e-10
4.75104e-10
2.64429e-10
6.29651e-10
2.84566e-10
7.14332e-10
3.78645e-10
7.71666e-10
3.82215e-10
7.34121e-10
3.2622e-10
8.22002e-10
1.07291e-16
2.07134e-09
1.08955e-19
6.00739e-18
-2.3632e-19
-1.17767e-19
-3.91154e-19
-3.21383e-19
-3.61207e-19
-6.79295e-19
-2.27041e-19
-9.72976e-19
-3.44099e-20
-1.18999e-18
1.91918e-19
-1.34078e-18
4.36354e-19
-1.43363e-18
6.87346e-19
-1.47439e-18
9.35359e-19
-1.46789e-18
1.17222e-18
-1.41895e-18
1.39121e-18
-1.33292e-18
1.58704e-18
-1.21567e-18
1.75582e-18
-1.07353e-18
1.89508e-18
-9.12924e-19
2.00372e-18
-7.40114e-19
2.08184e-18
-5.60893e-19
2.13041e-18
-3.804e-19
2.15116e-18
-2.03011e-19
2.14625e-18
-3.2242e-20
2.118e-18
1.29305e-19
2.06887e-18
2.79854e-19
2.00141e-18
4.18287e-19
1.91808e-18
5.44029e-19
1.82117e-18
6.56956e-19
1.71275e-18
7.5731e-19
1.59472e-18
8.45602e-19
1.46875e-18
9.22517e-19
1.33625e-18
9.88856e-19
1.1984e-18
1.04548e-18
1.05621e-18
1.09327e-18
9.10533e-19
1.13307e-18
7.62121e-19
1.16568e-18
6.11634e-19
1.19177e-18
4.59633e-19
1.21195e-18
3.06586e-19
1.2267e-18
1.52892e-19
1.23636e-18
1.24119e-18
9.0193e-12
-9.65766e-10
-1.79207e-11
-4.52598e-10
-5.31524e-11
3.45415e-11
-1.62537e-10
6.10625e-10
-2.22422e-10
9.42906e-10
-2.87868e-10
1.2002e-09
-4.29446e-10
1.59093e-09
-6.27941e-10
1.99281e-09
-7.59744e-10
2.24474e-09
-8.48428e-10
2.28479e-09
-8.37931e-10
2.07723e-09
-8.86913e-10
1.78334e-09
-9.38975e-10
1.57774e-09
-1.00772e-09
1.4786e-09
-1.09786e-09
1.44401e-09
-1.2316e-09
1.3448e-09
-1.38895e-09
1.34799e-09
-1.53605e-09
1.32387e-09
-1.67022e-09
1.07106e-09
-1.75689e-09
1.10765e-09
-1.87428e-09
9.88868e-10
-1.98728e-09
8.9023e-10
-2.03589e-09
7.92416e-10
-2.10115e-09
6.95043e-10
-2.15536e-09
6.0659e-10
-2.19951e-09
5.21229e-10
-2.17692e-09
4.53844e-10
-2.20172e-09
4.17006e-10
-2.19336e-09
2.76831e-10
-2.16948e-09
2.23896e-10
-2.15734e-09
1.61658e-10
-2.16172e-09
8.37436e-11
-2.16681e-09
-3.72186e-11
-2.16842e-09
-9.61884e-11
-2.18323e-09
-1.58658e-10
-2.19207e-09
-2.18047e-10
-2.17444e-09
-2.61429e-10
-2.10477e-09
-3.03815e-10
-2.02847e-09
-3.77615e-10
-1.93247e-09
-5.22093e-10
-1.85843e-09
-7.05252e-10
-1.72421e-09
-7.90719e-10
-1.68483e-09
-7.76618e-10
-1.6025e-09
-7.41356e-10
-1.57263e-09
-1.17336e-09
-1.61117e-09
-1.28648e-09
-1.60754e-09
-1.54567e-09
-1.58062e-09
-1.91969e-09
-1.54345e-09
-2.23874e-09
-1.42516e-09
-2.51553e-09
-1.27083e-09
-2.64907e-09
-1.1604e-09
-2.67236e-09
-1.10934e-09
-2.55996e-09
-1.08851e-09
-2.45056e-09
-1.0618e-09
-2.32484e-09
-9.8869e-10
-2.15854e-09
-9.55769e-10
-1.87361e-09
-9.93196e-10
-1.52481e-09
-1.04385e-09
-1.14404e-09
-1.0745e-09
-8.80046e-10
-1.03607e-09
-5.83431e-10
-9.7495e-10
-3.11503e-10
-9.29456e-10
-9.8505e-12
-8.71829e-10
8.89383e-11
-7.5248e-10
3.93589e-11
-6.50519e-10
2.00724e-11
-5.80234e-10
2.5811e-11
-5.16352e-10
-1.06809e-11
-4.32322e-10
-5.45561e-11
-3.30843e-10
-6.28294e-11
-2.33044e-10
-6.59392e-11
-1.05143e-10
-9.88302e-11
3.4041e-11
6.7836e-11
1.78456e-10
2.81823e-11
2.18909e-10
2.46138e-10
2.69911e-10
4.24101e-10
2.84354e-10
6.15207e-10
3.07938e-10
6.90747e-10
3.57002e-10
7.22601e-10
3.59006e-10
7.32116e-10
6.22279e-10
5.58728e-10
8.25897e-13
2.6928e-09
4.75041e-18
8.25851e-13
-4.39356e-19
5.07239e-18
-7.48514e-19
-1.19764e-20
-6.54386e-19
-7.72451e-19
-4.44037e-19
-1.18198e-18
-1.85195e-19
-1.44702e-18
9.90695e-20
-1.62274e-18
3.95594e-19
-1.72738e-18
6.93847e-19
-1.76934e-18
9.84293e-19
-1.75449e-18
1.25826e-18
-1.68866e-18
1.50845e-18
-1.57846e-18
1.72919e-18
-1.43137e-18
1.91643e-18
-1.25547e-18
2.06789e-18
-1.05894e-18
2.18294e-18
-8.49656e-19
2.26233e-18
-6.34767e-19
2.3078e-18
-4.20426e-19
2.32193e-18
-2.11759e-19
2.30779e-18
-1.27885e-20
2.26854e-18
1.73616e-19
2.20731e-18
3.45657e-19
2.12715e-18
5.02386e-19
2.03101e-18
6.43495e-19
1.92152e-18
7.69159e-19
1.80104e-18
8.79926e-19
1.67164e-18
9.76611e-19