/*--------------------------------*- C++ -*----------------------------------*\
  =========                 |
  \\      /  F ield         | OpenFOAM: The Open Source CFD Toolbox
   \\    /   O peration     | Website:  https://openfoam.org
    \\  /    A nd           | Version:  6
     \\/     M anipulation  |
\*---------------------------------------------------------------------------*/
FoamFile
{
    version     2.0;
    format      ascii;
    class       volScalarField;
    location    "3100";
    object      T;
}
// * * * * * * * * * * * * * * * * * * * * * * * * * * * * * * * * * * * * * //

dimensions      [0 0 0 1 0 0 0];

internalField   nonuniform List<scalar> 
4800
(
552.494
552.383
552.269
552.153
552.035
551.914
551.792
551.669
551.548
551.43
551.316
551.207
551.106
551.012
550.925
550.846
550.774
550.709
550.65
550.596
550.548
550.503
550.463
550.425
550.39
550.357
550.326
550.295
550.266
550.237
550.208
550.179
550.15
550.12
550.09
550.059
550.028
549.996
549.963
549.93
549.895
549.86
549.824
549.786
549.746
549.705
549.661
549.615
549.567
549.515
549.461
549.403
549.341
549.276
549.206
549.132
549.054
548.971
548.883
548.789
548.69
548.585
548.473
548.356
548.234
548.107
547.974
547.837
547.694
547.544
547.389
547.228
547.061
546.889
546.711
546.529
546.342
546.155
545.97
545.789
545.613
545.443
545.277
545.114
544.955
544.8
544.65
544.504
544.361
544.222
544.085
543.951
543.82
543.69
543.562
543.436
543.311
543.187
543.064
542.943
542.822
542.702
542.582
542.464
542.346
542.228
542.111
541.994
541.877
541.761
541.645
541.529
541.414
541.298
541.183
541.068
540.952
540.837
540.722
540.607
552.494
552.382
552.268
552.152
552.033
551.912
551.791
551.669
551.548
551.43
551.317
551.209
551.108
551.014
550.928
550.85
550.778
550.713
550.654
550.601
550.553
550.509
550.468
550.431
550.396
550.363
550.331
550.301
550.272
550.243
550.214
550.186
550.157
550.128
550.098
550.068
550.037
550.005
549.973
549.94
549.906
549.871
549.834
549.797
549.757
549.716
549.672
549.626
549.577
549.525
549.47
549.412
549.349
549.283
549.212
549.137
549.058
548.974
548.885
548.79
548.689
548.583
548.471
548.353
548.229
548.101
547.967
547.829
547.685
547.536
547.381
547.22
547.054
546.884
546.708
546.529
546.347
546.163
545.978
545.796
545.617
545.444
545.275
545.111
544.952
544.798
544.648
544.502
544.359
544.22
544.084
543.95
543.819
543.689
543.561
543.435
543.31
543.187
543.064
542.942
542.822
542.702
542.582
542.464
542.345
542.228
542.111
541.994
541.877
541.761
541.645
541.529
541.414
541.298
541.183
541.068
540.952
540.837
540.722
540.607
552.494
552.38
552.265
552.149
552.03
551.91
551.789
551.668
551.548
551.431
551.318
551.212
551.112
551.02
550.934
550.856
550.786
550.721
550.663
550.61
550.562
550.518
550.478
550.441
550.406
550.373
550.342
550.312
550.283
550.255
550.227
550.199
550.171
550.142
550.113
550.084
550.054
550.023
549.991
549.959
549.926
549.891
549.855
549.818
549.778
549.737
549.693
549.647
549.597
549.545
549.489
549.429
549.365
549.297
549.224
549.147
549.066
548.979
548.888
548.791
548.688
548.58
548.466
548.346
548.22
548.09
547.955
547.815
547.67
547.52
547.365
547.206
547.042
546.873
546.701
546.525
546.346
546.165
545.982
545.8
545.619
545.442
545.271
545.106
544.947
544.792
544.643
544.497
544.355
544.217
544.081
543.948
543.817
543.687
543.56
543.434
543.309
543.186
543.063
542.942
542.821
542.701
542.582
542.463
542.345
542.228
542.11
541.994
541.877
541.761
541.645
541.529
541.413
541.298
541.183
541.068
540.952
540.837
540.722
540.607
552.493
552.378
552.263
552.145
552.027
551.907
551.787
551.667
551.549
551.433
551.322
551.217
551.119
551.027
550.943
550.866
550.796
550.733
550.675
550.623
550.575
550.532
550.492
550.455
550.421
550.389
550.358
550.329
550.3
550.273
550.245
550.218
550.191
550.164
550.136
550.107
550.078
550.048
550.018
549.987
549.954
549.92
549.885
549.848
549.809
549.768
549.724
549.677
549.627
549.573
549.515
549.453
549.387
549.316
549.241
549.161
549.076
548.986
548.891
548.791
548.685
548.573
548.457
548.335
548.207
548.074
547.937
547.795
547.649
547.499
547.344
547.186
547.024
546.858
546.688
546.514
546.338
546.158
545.977
545.795
545.614
545.436
545.263
545.097
544.938
544.784
544.635
544.49
544.35
544.212
544.077
543.944
543.814
543.685
543.558
543.432
543.308
543.184
543.062
542.941
542.82
542.701
542.581
542.463
542.345
542.227
542.11
541.993
541.877
541.761
541.645
541.529
541.413
541.298
541.183
541.068
540.952
540.837
540.722
540.607
552.492
552.376
552.26
552.142
552.023
551.904
551.784
551.666
551.55
551.436
551.327
551.224
551.127
551.037
550.955
550.879
550.81
550.748
550.691
550.639
550.592
550.549
550.51
550.473
550.439
550.408
550.378
550.35
550.322
550.295
550.269
550.243
550.217
550.191
550.164
550.137
550.11
550.081
550.052
550.022
549.99
549.958
549.923
549.887
549.849
549.808
549.764
549.716
549.665
549.61
549.55
549.485
549.416
549.341
549.262
549.178
549.088
548.994
548.894
548.789
548.679
548.564
548.444
548.319
548.189
548.054
547.915
547.771
547.624
547.474
547.32
547.163
547.002
546.837
546.669
546.497
546.323
546.145
545.965
545.783
545.602
545.423
545.25
545.084
544.925
544.772
544.625
544.481
544.342
544.205
544.071
543.94
543.81
543.682
543.555
543.43
543.306
543.183
543.061
542.94
542.819
542.7
542.581
542.462
542.344
542.227
542.11
541.993
541.877
541.761
541.645
541.529
541.413
541.298
541.183
541.067
540.952
540.837
540.722
540.607
552.492
552.374
552.257
552.138
552.02
551.901
551.783
551.666
551.551
551.44
551.333
551.232
551.137
551.05
550.968
550.894
550.826
550.765
550.708
550.657
550.611
550.569
550.53
550.494
550.461
550.431
550.402
550.374
550.348
550.322
550.298
550.273
550.248
550.224
550.199
550.173
550.147
550.12
550.092
550.063
550.033
550.002
549.968
549.933
549.896
549.855
549.811
549.763
549.711
549.654
549.591
549.523
549.45
549.371
549.287
549.197
549.102
549.002
548.896
548.786
548.672
548.552
548.429
548.301
548.168
548.031
547.89
547.746
547.598
547.448
547.295
547.138
546.978
546.814
546.647
546.476
546.302
546.125
545.946
545.765
545.584
545.405
545.231
545.065
544.908
544.757
544.612
544.47
544.333
544.197
544.065
543.934
543.805
543.678
543.552
543.427
543.304
543.181
543.059
542.938
542.818
542.699
542.58
542.462
542.344
542.227
542.109
541.993
541.876
541.76
541.644
541.529
541.413
541.298
541.183
541.067
540.952
540.837
540.722
540.607
552.491
552.373
552.254
552.136
552.017
551.899
551.782
551.666
551.553
551.444
551.34
551.241
551.149
551.063
550.984
550.911
550.844
550.783
550.728
550.678
550.632
550.591
550.553
550.518
550.486
550.456
550.429
550.402
550.377
550.353
550.33
550.307
550.284
550.261
550.237
550.213
550.189
550.163
550.137
550.11
550.082
550.052
550.019
549.985
549.948
549.908
549.865
549.816
549.763
549.704
549.639
549.567
549.49
549.406
549.316
549.22
549.119
549.012
548.901
548.785
548.665
548.541
548.414
548.282
548.147
548.008
547.866
547.721
547.573
547.423
547.269
547.113
546.952
546.789
546.622
546.451
546.278
546.102
545.923
545.741
545.56
545.38
545.205
545.041
544.887
544.739
544.596
544.458
544.322
544.189
544.057
543.928
543.8
543.673
543.548
543.424
543.301
543.179
543.057
542.937
542.817
542.698
542.579
542.461
542.343
542.226
542.109
541.992
541.876
541.76
541.644
541.529
541.413
541.298
541.183
541.067
540.952
540.837
540.722
540.607
552.49
552.371
552.252
552.134
552.015
551.898
551.782
551.668
551.556
551.449
551.348
551.252
551.162
551.078
551
550.929
550.863
550.804
550.749
550.7
550.655
550.615
550.578
550.544
550.513
550.485
550.458
550.434
550.41
550.387
550.365
550.344
550.323
550.301
550.28
550.258
550.235
550.211
550.187
550.161
550.135
550.106
550.075
550.042
550.006
549.967
549.923
549.874
549.819
549.758
549.691
549.616
549.534
549.445
549.349
549.247
549.139
549.026
548.908
548.786
548.661
548.532
548.4
548.265
548.128
547.987
547.844
547.699
547.55
547.4
547.246
547.089
546.929
546.766
546.599
546.428
546.255
546.078
545.898
545.715
545.531
545.348
545.172
545.011
544.861
544.718
544.579
544.443
544.31
544.179
544.049
543.921
543.794
543.669
543.544
543.421
543.298
543.176
543.056
542.935
542.816
542.697
542.578
542.46
542.343
542.225
542.109
541.992
541.876
541.76
541.644
541.528
541.413
541.298
541.182
541.067
540.952
540.837
540.722
540.607
552.49
552.37
552.251
552.132
552.013
551.896
551.781
551.669
551.56
551.455
551.356
551.263
551.175
551.093
551.018
550.948
550.883
550.825
550.772
550.723
550.68
550.641
550.605
550.573
550.543
550.516
550.491
550.467
550.445
550.424
550.404
550.384
550.364
550.345
550.325
550.304
550.283
550.262
550.239
550.215
550.191
550.163
550.134
550.101
550.066
550.027
549.983
549.934
549.879
549.816
549.746
549.668
549.582
549.488
549.387
549.278
549.164
549.044
548.92
548.793
548.662
548.529
548.393
548.255
548.115
547.973
547.828
547.682
547.533
547.381
547.227
547.07
546.91
546.746
546.579
546.408
546.234
546.055
545.873
545.687
545.498
545.309
545.125
544.971
544.83
544.694
544.561
544.429
544.298
544.169
544.041
543.914
543.789
543.664
543.54
543.417
543.295
543.174
543.053
542.934
542.814
542.695
542.577
542.459
542.342
542.225
542.108
541.992
541.876
541.76
541.644
541.528
541.413
541.298
541.182
541.067
540.952
540.837
540.722
540.607
552.49
552.369
552.249
552.13
552.012
551.895
551.781
551.67
551.563
551.461
551.365
551.274
551.189
551.109
551.035
550.967
550.904
550.847
550.796
550.749
550.707
550.669
550.634
550.603
550.575
550.549
550.525
550.503
550.482
550.463
550.444
550.426
550.408
550.39
550.372
550.353
550.334
550.314
550.293
550.271
550.248
550.222
550.194
550.162
550.128
550.089
550.046
549.996
549.94
549.876
549.804
549.723
549.633
549.535
549.428
549.315
549.195
549.069
548.939
548.806
548.671
548.533
548.394
548.253
548.11
547.966
547.82
547.672
547.521
547.369
547.214
547.056
546.895
546.73
546.563
546.391
546.215
546.035
545.851
545.66
545.464
545.259
545.052
544.922
544.798
544.671
544.543
544.414
544.286
544.159
544.033
543.907
543.783
543.659
543.536
543.414
543.292
543.172
543.051
542.932
542.813
542.694
542.576
542.459
542.341
542.224
542.108
541.991
541.875
541.759
541.644
541.528
541.413
541.297
541.182
541.067
540.952
540.837
540.722
540.607
552.489
552.368
552.248
552.128
552.01
551.894
551.781
551.672
551.567
551.468
551.374
551.285
551.203
551.125
551.054
550.987
550.927
550.871
550.821
550.776
550.735
550.699
550.666
550.636
550.609
550.584
550.562
550.541
550.521
550.503
550.485
550.469
550.452
550.436
550.419
550.402
550.385
550.367
550.348
550.327
550.305
550.281
550.253
550.223
550.189
550.151
550.107
550.057
550.001
549.936
549.862
549.779
549.686
549.584
549.473
549.355
549.23
549.099
548.965
548.827
548.687
548.546
548.403
548.259
548.114
547.968
547.82
547.67
547.518
547.364
547.207
547.047
546.885
546.719
546.55
546.376
546.199
546.018
545.831
545.637
545.432
545.204
544.904
544.87
544.77
544.652
544.527
544.401
544.275
544.15
544.025
543.901
543.777
543.654
543.532
543.411
543.29
543.169
543.049
542.93
542.811
542.693
542.575
542.458
542.341
542.224
542.107
541.991
541.875
541.759
541.643
541.528
541.413
541.297
541.182
541.067
540.952
540.837
540.722
540.607
552.489
552.367
552.246
552.126
552.009
551.893
551.782
551.674
551.572
551.475
551.384
551.298
551.218
551.143
551.074
551.009
550.951
550.897
550.849
550.805
550.766
550.731
550.699
550.671
550.645
550.622
550.6
550.58
550.562
550.545
550.528
550.513
550.497
550.482
550.467
550.452
550.436
550.419
550.401
550.382
550.361
550.338
550.312
550.282
550.249
550.21
550.166
550.116
550.059
549.993
549.918
549.833
549.737
549.632
549.518
549.397
549.268
549.134
548.996
548.855
548.711
548.566
548.42
548.274
548.127
547.978
547.828
547.675
547.521
547.365
547.206
547.044
546.88
546.711
546.54
546.365
546.187
546.004
545.817
545.624
545.424
545.218
545.015
544.887
544.765
544.641
544.516
544.39
544.266
544.141
544.018
543.894
543.772
543.65
543.528
543.407
543.287
543.167
543.047
542.929
542.81
542.692
542.574
542.457
542.34
542.223
542.107
541.991
541.875
541.759
541.643
541.528
541.412
541.297
541.182
541.067
540.952
540.837
540.722
540.607
552.489
552.366
552.244
552.124
552.007
551.893
551.783
551.678
551.578
551.484
551.396
551.313
551.235
551.163
551.096
551.034
550.977
550.926
550.879
550.837
550.8
550.766
550.736
550.708
550.684
550.661
550.641
550.622
550.604
550.588
550.572
550.557
550.543
550.529
550.515
550.501
550.486
550.47
550.454
550.436
550.416
550.393
550.367
550.338
550.305
550.266
550.222
550.171
550.113
550.046
549.97
549.883
549.786
549.679
549.563
549.439
549.308
549.172
549.031
548.887
548.741
548.593
548.445
548.296
548.146
547.994
547.841
547.686
547.53
547.37
547.209
547.044
546.877
546.706
546.532
546.356
546.176
545.993
545.806
545.616
545.423
545.232
545.052
544.901
544.764
544.633
544.506
544.381
544.257
544.134
544.011
543.889
543.767
543.646
543.525
543.404
543.284
543.165
543.046
542.927
542.809
542.691
542.573
542.456
542.339
542.223
542.106
541.99
541.874
541.759
541.643
541.528
541.412
541.297
541.182
541.067
540.952
540.837
540.722
540.607
552.488
552.365
552.243
552.123
552.007
551.894
551.786
551.684
551.587
551.497
551.411
551.331
551.256
551.186
551.121
551.062
551.007
550.958
550.913
550.873
550.837
550.805
550.776
550.75
550.726
550.704
550.684
550.666
550.649
550.633
550.618
550.604
550.59
550.577
550.563
550.55
550.536
550.521
550.505
550.487
550.468
550.445
550.42
550.391
550.357
550.318
550.273
550.221
550.162
550.094
550.016
549.927
549.829
549.721
549.604
549.479
549.347
549.209
549.067
548.921
548.773
548.623
548.473
548.322
548.169
548.014
547.858
547.7
547.54
547.377
547.212
547.044
546.874
546.701
546.525
546.347
546.166
545.982
545.796
545.608
545.42
545.236
545.061
544.903
544.759
544.625
544.496
544.372
544.248
544.126
544.005
543.884
543.763
543.642
543.522
543.402
543.282
543.163
543.044
542.926
542.808
542.69
542.573
542.455
542.339
542.222
542.106
541.99
541.874
541.758
541.643
541.528
541.412
541.297
541.182
541.067
540.952
540.837
540.722
540.607
552.488
552.365
552.243
552.124
552.009
551.898
551.793
551.694
551.6
551.513
551.43
551.353
551.281
551.213
551.151
551.094
551.042
550.995
550.952
550.914
550.88
550.849
550.821
550.796
550.773
550.752
550.733
550.715
550.699
550.683
550.668
550.654
550.641
550.627
550.614
550.601
550.587
550.572
550.556
550.539
550.519
550.496
550.471
550.441
550.407
550.367
550.32
550.267
550.206
550.136
550.056
549.966
549.866
549.757
549.639
549.513
549.38
549.242
549.099
548.952
548.803
548.652
548.5
548.346
548.19
548.033
547.873
547.712
547.548
547.382
547.214
547.043
546.869
546.694
546.516
546.336
546.155
545.971
545.785
545.598
545.411
545.229
545.054
544.892
544.746
544.612
544.485
544.362
544.24
544.12
544
543.879
543.759
543.639
543.519
543.4
543.28
543.161
543.043
542.925
542.807
542.689
542.572
542.455
542.338
542.222
542.106
541.99
541.874
541.758
541.643
541.527
541.412
541.297
541.182
541.067
540.952
540.837
540.722
540.607
552.488
552.366
552.245
552.128
552.014
551.906
551.804
551.708
551.618
551.534
551.454
551.38
551.31
551.246
551.187
551.132
551.083
551.038
550.998
550.962
550.929
550.9
550.873
550.849
550.827
550.807
550.789
550.771
550.755
550.739
550.724
550.71
550.697
550.683
550.67
550.656
550.642
550.627
550.61
550.592
550.572
550.548
550.522
550.491
550.455
550.413
550.365
550.309
550.246
550.173
550.091
549.999
549.897
549.787
549.667
549.54
549.407
549.268
549.125
548.978
548.828
548.675
548.521
548.365
548.206
548.046
547.883
547.718
547.551
547.382
547.21
547.036
546.861
546.684
546.505
546.324
546.142
545.957
545.771
545.583
545.396
545.211
545.032
544.867
544.724
544.594
544.471
544.351
544.232
544.114
543.995
543.876
543.756
543.637
543.517
543.398
543.279
543.16
543.042
542.924
542.806
542.688
542.571
542.454
542.338
542.222
542.105
541.989
541.874
541.758
541.643
541.527
541.412
541.297
541.182
541.067
540.952
540.837
540.722
540.607
552.489
552.369
552.25
552.135
552.024
551.919
551.821
551.728
551.641
551.56
551.484
551.413
551.346
551.285
551.229
551.178
551.131
551.089
551.051
551.018
550.987
550.96
550.935
550.912
550.891
550.872
550.854
550.837
550.821
550.806
550.791
550.776
550.762
550.748
550.734
550.72
550.705
550.689
550.672
550.652
550.631
550.606
550.577
550.545
550.507
550.463
550.412
550.353
550.286
550.211
550.125
550.03
549.925
549.811
549.689
549.56
549.425
549.285
549.14
548.992
548.841
548.687
548.531
548.372
548.211
548.048
547.882
547.714
547.544
547.372
547.198
547.023
546.847
546.669
546.49
546.309
546.126
545.941
545.753
545.563
545.371
545.18
544.992
544.822
544.688
544.57
544.455
544.34
544.225
544.109
543.991
543.873
543.754
543.635
543.516
543.397
543.278
543.159
543.041
542.923
542.805
542.688
542.571
542.454
542.338
542.221
542.105
541.989
541.874
541.758
541.643
541.527
541.412
541.297
541.182
541.067
540.952
540.837
540.722
540.607
552.491
552.373
552.257
552.145
552.039
551.938
551.843
551.754
551.671
551.593
551.52
551.453
551.39
551.332
551.28
551.232
551.189
551.15
551.115
551.084
551.056
551.031
551.008
550.987
550.968
550.95
550.933
550.917
550.901
550.886
550.871
550.857
550.842
550.828
550.814
550.798
550.783
550.766
550.747
550.726
550.703
550.676
550.645
550.61
550.569
550.522
550.467
550.405
550.333
550.253
550.163
550.063
549.953
549.834
549.708
549.574
549.435
549.291
549.144
548.994
548.841
548.684
548.526
548.364
548.2
548.034
547.865
547.695
547.523
547.349
547.175
547
546.825
546.648
546.469
546.289
546.106
545.921
545.732
545.539
545.34
545.136
544.928
544.741
544.64
544.542
544.439
544.331
544.219
544.104
543.988
543.871
543.753
543.634
543.515
543.396
543.277
543.159
543.04
542.922
542.805
542.688
542.571
542.454
542.337
542.221
542.105
541.989
541.874
541.758
541.643
541.527
541.412
541.297
541.182
541.067
540.952
540.837
540.722
540.607
552.493
552.379
552.268
552.16
552.058
551.962
551.871
551.786
551.707
551.633
551.564
551.5
551.442
551.388
551.339
551.296
551.256
551.221
551.19
551.163
551.138
551.116
551.095
551.077
551.06
551.044
551.029
551.015
551
550.986
550.972
550.957
550.943
550.929
550.914
550.899
550.882
550.864
550.845
550.822
550.797
550.768
550.735
550.697
550.652
550.601
550.542
550.474
550.397
550.311
550.214
550.106
549.987
549.861
549.726
549.584
549.437
549.287
549.135
548.981
548.824
548.664
548.501
548.336
548.169
548
547.829
547.657
547.485
547.312
547.139
546.965
546.791
546.615
546.439
546.26
546.08
545.895
545.707
545.513
545.311
545.094
544.835
544.573
544.588
544.522
544.428
544.324
544.215
544.102
543.987
543.87
543.752
543.633
543.515
543.396
543.277
543.158
543.04
542.922
542.805
542.687
542.57
542.454
542.337
542.221
542.105
541.989
541.873
541.758
541.643
541.527
541.412
541.297
541.182
541.067
540.952
540.837
540.722
540.607
552.496
552.388
552.283
552.181
552.084
551.992
551.906
551.825
551.751
551.681
551.616
551.556
551.502
551.453
551.408
551.369
551.334
551.304
551.277
551.253
551.233
551.214
551.198
551.183
551.17
551.157
551.145
551.133
551.121
551.108
551.096
551.084
551.071
551.058
551.044
551.03
551.014
550.995
550.975
550.952
550.925
550.894
550.859
550.817
550.769
550.713
550.649
550.574
550.49
550.395
550.288
550.169
550.039
549.899
549.75
549.595
549.436
549.275
549.115
548.954
548.791
548.626
548.458
548.288
548.117
547.945
547.773
547.6
547.428
547.256
547.084
546.913
546.741
546.568
546.394
546.219
546.042
545.862
545.677
545.488
545.293
545.094
544.89
544.714
544.62
544.527
544.427
544.322
544.213
544.1
543.986
543.869
543.752
543.634
543.515
543.396
543.277
543.159
543.04
542.922
542.805
542.687
542.57
542.454
542.337
542.221
542.105
541.989
541.874
541.758
541.643
541.527
541.412
541.297
541.182
541.067
540.952
540.837
540.722
540.607
552.5
552.4
552.303
552.208
552.117
552.031
551.95
551.874
551.804
551.738
551.677
551.622
551.571
551.527
551.487
551.452
551.422
551.396
551.374
551.355
551.339
551.326
551.315
551.305
551.296
551.289
551.281
551.273
551.266
551.257
551.249
551.24
551.231
551.222
551.211
551.199
551.185
551.169
551.15
551.127
551.1
551.068
551.031
550.986
550.934
550.873
550.802
550.721
550.627
550.52
550.4
550.265
550.118
549.96
549.791
549.616
549.438
549.261
549.086
548.915
548.743
548.57
548.396
548.22
548.044
547.868
547.693
547.519
547.347
547.176
547.006
546.838
546.669
546.5
546.33
546.16
545.989
545.816
545.639
545.459
545.277
545.096
544.922
544.769
544.646
544.536
544.429
544.321
544.212
544.1
543.985
543.869
543.752
543.634
543.515
543.397
543.278
543.159
543.041
542.923
542.805
542.688
542.571
542.454
542.337
542.221
542.105
541.989
541.874
541.758
541.643
541.527
541.412
541.297
541.182
541.067
540.952
540.837
540.722
540.607
552.505
552.416
552.328
552.242
552.159
552.08
552.005
551.934
551.868
551.806
551.749
551.697
551.65
551.609
551.573
551.542
551.517
551.495
551.478
551.465
551.455
551.448
551.443
551.439
551.437
551.436
551.436
551.435
551.434
551.433
551.431
551.429
551.427
551.424
551.42
551.414
551.406
551.394
551.379
551.359
551.333
551.302
551.264
551.218
551.163
551.097
551.019
550.929
550.823
550.702
550.565
550.41
550.24
550.056
549.859
549.655
549.453
549.254
549.06
548.872
548.687
548.503
548.318
548.134
547.951
547.77
547.59
547.413
547.24
547.069
546.902
546.737
546.573
546.408
546.244
546.079
545.917
545.754
545.588
545.42
545.25
545.085
544.927
544.782
544.653
544.537
544.427
544.319
544.209
544.098
543.984
543.869
543.752
543.635
543.516
543.397
543.278
543.16
543.041
542.923
542.805
542.688
542.571
542.454
542.337
542.221
542.105
541.989
541.874
541.758
541.643
541.528
541.412
541.297
541.182
541.067
540.952
540.837
540.722
540.607
552.513
552.437
552.362
552.288
552.215
552.144
552.075
552.01
551.948
551.889
551.835
551.785
551.74
551.701
551.667
551.639
551.617
551.599
551.586
551.578
551.574
551.574
551.576
551.581
551.587
551.595
551.604
551.613
551.622
551.631
551.639
551.648
551.656
551.664
551.671
551.676
551.677
551.675
551.667
551.653
551.632
551.604
551.568
551.521
551.465
551.395
551.312
551.211
551.093
550.954
550.795
550.615
550.418
550.2
549.966
549.728
549.495
549.27
549.051
548.84
548.635
548.433
548.233
548.036
547.842
547.652
547.465
547.284
547.108
546.937
546.772
546.61
546.45
546.291
546.131
545.973
545.819
545.669
545.517
545.362
545.207
545.054
544.907
544.766
544.637
544.524
544.417
544.312
544.204
544.095
543.983
543.868
543.752
543.635
543.517
543.398
543.279
543.161
543.042
542.924
542.806
542.688
542.571
542.454
542.338
542.221
542.105
541.99
541.874
541.758
541.643
541.528
541.412
541.297
541.182
541.067
540.952
540.837
540.722
540.607
552.522
552.465
552.408
552.349
552.289
552.228
552.167
552.107
552.049
551.992
551.938
551.889
551.844
551.805
551.772
551.745
551.723
551.708
551.698
551.694
551.695
551.7
551.71
551.723
551.74
551.758
551.778
551.799
551.821
551.843
551.865
551.888
551.911
551.934
551.956
551.976
551.992
552.003
552.007
552.003
551.991
551.97
551.939
551.896
551.84
551.769
551.682
551.573
551.44
551.282
551.097
550.889
550.659
550.402
550.126
549.848
549.584
549.328
549.079
548.837
548.605
548.378
548.155
547.939
547.728
547.524
547.327
547.138
546.958
546.786
546.621
546.462
546.305
546.149
545.994
545.841
545.695
545.557
545.42
545.279
545.136
544.996
544.86
544.725
544.596
544.497
544.4
544.3
544.197
544.09
543.979
543.867
543.752
543.635
543.518
543.399
543.28
543.161
543.043
542.924
542.806
542.689
542.572
542.455
542.338
542.222
542.106
541.99
541.874
541.759
541.643
541.528
541.413
541.297
541.182
541.067
540.952
540.837
540.722
540.607
552.534
552.5
552.465
552.426
552.383
552.336
552.285
552.232
552.177
552.122
552.069
552.018
551.972
551.931
551.897
551.868
551.846
551.831
551.823
551.821
551.825
551.834
551.849
551.869
551.894
551.923
551.954
551.988
552.022
552.058
552.095
552.133
552.173
552.213
552.253
552.291
552.325
552.354
552.374
552.385
552.385
552.375
552.354
552.318
552.267
552.201
552.114
552
551.855
551.677
551.466
551.231
550.969
550.67
550.352
550.039
549.743
549.456
549.173
548.897
548.627
548.366
548.111
547.866
547.63
547.404
547.19
546.99
546.802
546.625
546.461
546.302
546.145
545.989
545.836
545.685
545.543
545.415
545.293
545.168
545.039
544.914
544.794
544.669
544.517
544.463
544.38
544.287
544.187
544.083
543.975
543.864
543.751
543.635
543.518
543.4
543.281
543.162
543.044
542.925
542.807
542.689
542.572
542.455
542.338
542.222
542.106
541.99
541.874
541.759
541.643
541.528
541.413
541.298
541.183
541.067
540.952
540.837
540.722
540.607
552.546
552.538
552.527
552.513
552.492
552.464
552.427
552.384
552.336
552.285
552.234
552.185
552.139
552.099
552.065
552.037
552.017
552.004
551.997
551.996
552
552.008
552.022
552.043
552.07
552.102
552.139
552.179
552.22
552.263
552.309
552.357
552.409
552.463
552.519
552.574
552.626
552.672
552.711
552.739
552.756
552.762
552.755
552.734
552.695
552.642
552.568
552.457
552.306
552.114
551.885
551.632
551.346
551.012
550.664
550.328
550.009
549.69
549.373
549.063
548.754
548.446
548.147
547.86
547.587
547.326
547.083
546.864
546.662
546.475
546.308
546.147
545.984
545.822
545.665
545.512
545.369
545.245
545.136
545.03
544.918
544.814
544.719
544.628
544.544
544.453
544.366
544.274
544.177
544.075
543.97
543.861
543.749
543.634
543.518
543.4
543.282
543.163
543.045
542.926
542.808
542.69
542.573
542.456
542.339
542.222
542.106
541.99
541.875
541.759
541.644
541.528
541.413
541.298
541.183
541.068
540.953
540.838
540.723
540.608
552.553
552.561
552.573
552.585
552.591
552.588
552.573
552.547
552.513
552.476
552.438
552.402
552.369
552.34
552.318
552.303
552.296
552.297
552.302
552.306
552.308
552.307
552.307
552.314
552.327
552.346
552.371
552.398
552.428
552.459
552.493
552.531
552.577
552.629
552.686
552.747
552.807
552.865
552.919
552.966
553.002
553.027
553.04
553.04
553.025
552.996
552.95
552.866
552.732
552.544
552.316
552.069
551.78
551.435
551.085
550.756
550.434
550.08
549.727
549.393
549.044
548.687
548.328
547.981
547.66
547.343
547.05
546.813
546.591
546.375
546.196
546.021
545.83
545.647
545.48
545.324
545.18
545.055
544.954
544.867
544.779
544.701
544.634
544.572
544.508
544.436
544.353
544.262
544.167
544.067
543.964
543.857
543.746
543.633
543.518
543.401
543.283
543.164
543.045
542.927
542.809
542.691
542.573
542.456
542.339
542.223
542.107
541.991
541.875
541.759
541.644
541.529
541.413
541.298
541.183
541.068
540.953
540.838
540.723
540.608
552.541
552.533
552.546
552.577
552.613
552.642
552.66
552.666
552.666
552.665
552.667
552.672
552.681
552.694
552.713
552.742
552.785
552.836
552.882
552.909
552.914
552.896
552.865
552.832
552.801
552.771
552.745
552.721
552.699
552.675
552.652
552.636
552.631
552.642
552.666
552.702
552.744
552.792
552.85
552.909
552.961
553.006
553.043
553.073
553.097
553.108
553.113
553.097
553.032
552.878
552.678
552.473
552.223
551.919
551.624
551.351
551.079
550.674
550.294
549.947
549.561
549.146
548.713
548.29
547.878
547.467
547.134
546.86
546.578
546.315
546.084
545.876
545.644
545.46
545.274
545.108
544.976
544.849
544.741
544.69
544.63
544.582
544.543
544.51
544.473
544.427
544.343
544.252
544.157
544.059
543.958
543.852
543.744
543.632
543.517
543.401
543.283
543.165
543.046
542.928
542.809
542.691
542.574
542.457
542.34
542.223
542.107
541.991
541.875
541.76
541.644
541.529
541.414
541.298
541.183
541.068
540.953
540.838
540.723
540.608
552.483
552.383
552.351
552.377
552.435
552.503
552.566
552.627
552.693
552.773
552.867
552.97
553.078
553.19
553.307
553.441
553.601
553.775
553.929
554.016
554.046
554.02
553.942
553.844
553.726
553.591
553.451
553.309
553.164
553.01
552.849
552.691
552.55
552.438
552.357
552.308
552.281
552.277
552.314
552.368
552.424
552.476
552.533
552.597
552.677
552.746
552.85
552.969
553.047
552.932
552.787
552.686
552.55
552.382
552.159
551.984
551.824
551.465
551.1
550.724
550.317
549.889
549.455
548.917
548.373
547.874
547.408
547.013
546.616
546.234
545.912
545.624
545.388
545.198
545.011
544.847
544.737
544.646
544.561
544.532
544.485
544.47
544.453
544.453
544.447
544.454
544.341
544.243
544.147
544.051
543.951
543.848
543.741
543.63
543.517
543.401
543.284
543.165
543.047
542.928
542.81
542.692
542.574
542.457
542.34
542.224
542.108
541.992
541.876
541.76
541.645
541.529
541.414
541.299
541.183
541.068
540.953
540.838
540.723
540.608
552.328
551.985
551.818
551.798
551.865
551.973
552.101
552.247
552.427
552.658
552.926
553.221
553.516
553.816
554.105
554.43
554.804
555.215
555.581
555.769
555.881
555.914
555.801
555.657
555.431
555.131
554.799
554.448
554.089
553.691
553.269
552.829
552.407
552.024
551.699
551.452
551.265
551.131
551.104
551.1
551.11
551.135
551.186
551.274
551.432
551.591
551.875
552.208
552.462
552.508
552.534
552.618
552.632
552.721
552.653
552.669
552.612
552.414
552.141
551.854
551.482
551.118
550.736
549.912
549.298
548.643
547.91
547.241
546.644
546.071
545.634
545.298
545.065
544.872
544.741
544.603
544.458
544.473
544.446
544.461
544.483
544.477
544.426
544.405
544.408
544.434
544.322
544.228
544.136
544.043
543.945
543.844
543.738
543.629
543.516
543.401
543.284
543.166
543.047
542.929
542.811
542.693
542.575
542.458
542.341
542.224
542.108
541.992
541.876
541.761
541.645
541.53
541.414
541.299
541.184
541.069
540.953
540.838
540.723
540.608
551.986
551.145
550.727
550.612
550.66
550.805
551.017
551.299
551.658
552.154
552.697
553.296
553.883
554.485
554.994
555.582
556.228
556.979
557.663
557.932
558.289
558.563
558.45
558.492
558.252
557.774
557.185
556.547
555.918
555.154
554.338
553.449
552.54
551.646
550.802
550.102
549.607
549.213
549.024
548.936
548.862
548.811
548.813
548.923
549.164
549.53
549.925
550.341
550.796
551.143
551.408
551.842
552.243
552.704
553.009
553.431
553.449
553.394
553.341
553.291
553.044
552.941
552.622
551.277
550.7
549.735
548.575
547.259
546.423
545.716
545.399
545.055
544.816
544.64
544.544
544.458
544.446
544.441
544.458
544.433
544.48
544.454
544.423
544.364
544.348
544.349
544.285
544.209
544.125
544.036
543.941
543.841
543.736
543.628
543.516
543.401
543.284
543.166
543.048
542.929
542.811
542.693
542.575
542.458
542.341
542.225
542.108
541.992
541.877
541.761
541.645