/*--------------------------------*- C++ -*----------------------------------*\
  =========                 |
  \\      /  F ield         | OpenFOAM: The Open Source CFD Toolbox
   \\    /   O peration     | Website:  https://openfoam.org
    \\  /    A nd           | Version:  6
     \\/     M anipulation  |
\*---------------------------------------------------------------------------*/
FoamFile
{
    version     2.0;
    format      ascii;
    class       volVectorField;
    location    "3100";
    object      U;
}
// * * * * * * * * * * * * * * * * * * * * * * * * * * * * * * * * * * * * * //

dimensions      [0 1 -1 0 0 0 0];

internalField   nonuniform List<vector> 
4800
(
(2.35537e-05 0 -4.79238e-05)
(0.000122607 0 -6.83579e-05)
(0.000182874 0 -3.45076e-05)
(0.000198787 0 -4.24994e-05)
(0.000186296 0 2.32185e-07)
(0.000145329 0 3.80519e-05)
(6.3672e-05 0 3.68222e-05)
(-6.79763e-05 0 6.01835e-05)
(-0.000227749 0 -1.17032e-05)
(-0.000358171 0 -0.000137145)
(-0.000409186 0 -0.000299141)
(-0.000506632 0 -0.000252822)
(-0.000698317 0 6.56781e-05)
(-0.000795504 0 0.00011444)
(-0.000899247 0 -8.05382e-05)
(-0.000985165 0 4.07794e-05)
(-0.00106418 0 3.46607e-05)
(-0.00113976 0 -5.02564e-05)
(-0.00122368 0 7.51445e-05)
(-0.00129793 0 2.22103e-05)
(-0.00135518 0 4.52557e-06)
(-0.00140138 0 6.12901e-06)
(-0.00143434 0 -1.07598e-05)
(-0.00145336 0 -1.01509e-05)
(-0.00145971 0 -1.91628e-05)
(-0.00145681 0 -2.2603e-05)
(-0.00144226 0 -3.47868e-05)
(-0.00143322 0 -2.67693e-05)
(-0.0014283 0 -1.21738e-05)
(-0.00142551 0 -1.8001e-05)
(-0.00142562 0 -1.72737e-05)
(-0.00142727 0 -2.36051e-05)
(-0.00143534 0 -3.47413e-05)
(-0.00145828 0 -3.45255e-05)
(-0.00148081 0 -3.03561e-05)
(-0.0014983 0 -3.23569e-05)
(-0.00152404 0 -7.05079e-05)
(-0.00156611 0 -9.68955e-05)
(-0.0015903 0 -9.7809e-05)
(-0.00157999 0 -0.000135497)
(-0.00152846 0 -0.000164912)
(-0.00151079 0 -0.000141137)
(-0.00148813 0 -5.39492e-05)
(-0.0013587 0 -0.000124881)
(-0.00121903 0 -0.000175144)
(-0.00109695 0 -0.000116808)
(-0.00096628 0 -0.000161815)
(-0.00087662 0 -0.00016573)
(-0.000815018 0 -0.0001897)
(-0.000728979 0 -0.00016078)
(-0.000514528 0 -0.000256464)
(-0.00015455 0 -0.000389997)
(-0.000229736 0 2.20053e-05)
(-8.39887e-05 0 -9.39735e-05)
(2.74086e-05 0 -9.00427e-05)
(0.000125011 0 -0.00010063)
(0.000236417 0 -6.53574e-05)
(0.000338149 0 -3.20482e-06)
(0.000429068 0 -2.57294e-05)
(0.000501915 0 -1.76816e-05)
(0.000543253 0 7.77952e-06)
(0.000572726 0 1.54135e-05)
(0.000622571 0 2.30297e-05)
(0.000628577 0 1.20567e-05)
(0.000618206 0 -6.98286e-06)
(0.000627586 0 -2.84664e-05)
(0.000681564 0 -4.85185e-05)
(0.000762054 0 -3.08043e-05)
(0.000765909 0 -1.31638e-05)
(0.000745568 0 2.25092e-05)
(0.000696683 0 1.51345e-05)
(0.000615523 0 5.62512e-05)
(0.000538719 0 1.55319e-05)
(0.000470832 0 9.80523e-05)
(0.000424242 0 -3.03834e-06)
(0.000340102 0 0.000109356)
(-0.000108548 0 0.000128453)
(-0.000391785 0 -0.000162929)
(-0.000337904 0 -0.000249189)
(-0.000518159 0 -0.000249266)
(-0.000708124 0 -0.000298344)
(5.52123e-06 0 -0.000287)
(-3.991e-13 0 -4.92204e-14)
(-1.61949e-12 0 -6.87693e-14)
(-1.71512e-13 0 -5.24119e-14)
(-7.90978e-14 0 -4.06159e-14)
(-4.37059e-15 0 -3.37052e-14)
(6.00418e-14 0 -3.01009e-14)
(1.19179e-13 0 -2.82772e-14)
(1.75544e-13 0 -2.73042e-14)
(2.30394e-13 0 -2.66003e-14)
(2.8393e-13 0 -2.58253e-14)
(3.358e-13 0 -2.47908e-14)
(3.85371e-13 0 -2.34052e-14)
(4.31904e-13 0 -2.16405e-14)
(4.74654e-13 0 -1.95113e-14)
(5.12937e-13 0 -1.70609e-14)
(5.46165e-13 0 -1.43498e-14)
(5.7386e-13 0 -1.14463e-14)
(5.95667e-13 0 -8.41901e-15)
(6.1136e-13 0 -5.33331e-15)
(6.2084e-13 0 -2.24971e-15)
(6.24129e-13 0 7.77923e-16)
(6.21353e-13 0 3.70333e-15)
(6.12723e-13 0 6.48948e-15)
(5.98518e-13 0 9.10854e-15)
(5.79073e-13 0 1.15414e-14)
(5.54758e-13 0 1.37767e-14)
(5.25969e-13 0 1.58109e-14)
(4.93115e-13 0 1.76454e-14)
(4.56613e-13 0 1.92843e-14)
(4.16872e-13 0 2.07312e-14)
(3.74287e-13 0 2.19898e-14)
(3.29233e-13 0 2.30642e-14)
(2.82058e-13 0 2.39604e-14)
(2.331e-13 0 2.4685e-14)
(1.8269e-13 0 2.52439e-14)
(1.31168e-13 0 2.56396e-14)
(7.88952e-14 0 2.58633e-14)
(2.63093e-14 0 2.58629e-14)
(-4.79071e-05 0 -0.000194937)
(0.00014317 0 -0.000131721)
(0.000184884 0 -7.51701e-05)
(0.000209271 0 1.97828e-05)
(0.000180712 0 6.15004e-05)
(0.00012338 0 0.000106266)
(3.12539e-05 0 0.000155451)
(-7.06284e-05 0 0.00017051)
(-0.000161943 0 0.000201713)
(-0.000274114 0 0.000268262)
(-0.000371871 0 0.000469394)
(-0.00051702 0 0.000398576)
(-0.000711166 0 2.22827e-05)
(-0.000778194 0 5.77692e-05)
(-0.000885003 0 0.00017841)
(-0.000977211 0 0.000105709)
(-0.00104935 0 0.00014168)
(-0.00112012 0 0.000128725)
(-0.00117418 0 8.36072e-05)
(-0.00122151 0 0.000115572)
(-0.00126932 0 8.0491e-05)
(-0.0012964 0 6.44347e-05)
(-0.00131647 0 4.93403e-05)
(-0.00133117 0 3.11201e-05)
(-0.00133608 0 2.21645e-05)
(-0.0013442 0 -4.27719e-06)
(-0.00136531 0 5.39059e-06)
(-0.00137889 0 -3.6405e-07)
(-0.0013877 0 -8.60594e-06)
(-0.00139737 0 5.03993e-06)
(-0.00140758 0 1.70573e-05)
(-0.00141657 0 3.13004e-05)
(-0.00142648 0 3.94995e-05)
(-0.00144287 0 4.98545e-05)
(-0.00146104 0 6.9716e-05)
(-0.00147393 0 7.82206e-05)
(-0.00148742 0 0.000104027)
(-0.00151205 0 0.000117949)
(-0.00152482 0 0.000116552)
(-0.00148211 0 8.31174e-05)
(-0.00144028 0 3.90599e-05)
(-0.0014255 0 -2.65316e-05)
(-0.00141161 0 -0.000101579)
(-0.00138015 0 -0.000195566)
(-0.00127484 0 -0.000143708)
(-0.00112449 0 -0.000124884)
(-0.000986463 0 -9.28952e-05)
(-0.000858893 0 -0.000139653)
(-0.000758089 0 -5.39881e-05)
(-0.000657384 0 -2.72861e-05)
(-0.000499529 0 -0.000236166)
(-0.000275066 0 -0.000300115)
(-0.00032886 0 8.90048e-05)
(-6.50108e-05 0 -0.00018043)
(5.08036e-05 0 -0.000194487)
(0.000164183 0 -0.000196437)
(0.000266643 0 -0.000174264)
(0.000347366 0 -0.000142801)
(0.000423702 0 -0.00015294)
(0.000511216 0 -0.000112961)
(0.000571031 0 -0.000144837)
(0.000601865 0 -9.84323e-05)
(0.000599379 0 -3.30629e-05)
(0.000591107 0 -1.34658e-05)
(0.000587689 0 -3.201e-05)
(0.000599746 0 -7.62921e-05)
(0.000640152 0 -0.000105567)
(0.000692257 0 -3.77278e-05)
(0.000693349 0 -4.65589e-06)
(0.000670287 0 2.21649e-05)
(0.0006178 0 8.33995e-05)
(0.000565869 0 7.9093e-05)
(0.00050738 0 9.61229e-05)
(0.000468809 0 4.67988e-05)
(0.000419637 0 0.000155977)
(0.000436171 0 0.000203617)
(0.000334151 0 0.000237059)
(0.000307292 0 0.000241886)
(0.000302819 0 0.000277814)
(1.39929e-05 0 9.80442e-06)
(-0.000679858 0 -0.000225261)
(5.81047e-06 0 -0.000249508)
(-4.24965e-13 0 -1.21759e-13)
(-1.59849e-12 0 -2.03693e-13)
(-1.44432e-13 0 -1.51745e-13)
(-6.09306e-14 0 -1.17067e-13)
(6.05152e-15 0 -9.78694e-14)
(6.55582e-14 0 -8.82286e-14)
(1.21975e-13 0 -8.35555e-14)
(1.77221e-13 0 -8.11428e-14)
(2.31873e-13 0 -7.93271e-14)
(2.8574e-13 0 -7.71507e-14)
(3.3822e-13 0 -7.40948e-14)
(3.88521e-13 0 -6.99195e-14)
(4.35797e-13 0 -6.45683e-14)
(4.79233e-13 0 -5.81075e-14)
(5.18098e-13 0 -5.06827e-14)
(5.51779e-13 0 -4.2485e-14)
(5.79791e-13 0 -3.37232e-14)
(6.0178e-13 0 -2.46064e-14)
(6.1753e-13 0 -1.53328e-14)
(6.26952e-13 0 -6.08516e-15)
(6.30082e-13 0 2.97499e-15)
(6.27064e-13 0 1.17118e-14)
(6.18128e-13 0 2.00185e-14)
(6.0357e-13 0 2.78172e-14)
(5.83741e-13 0 3.50558e-14)
(5.59027e-13 0 4.17047e-14)
(5.29837e-13 0 4.77526e-14)
(4.96589e-13 0 5.32005e-14)
(4.59698e-13 0 5.80552e-14)
(4.19577e-13 0 6.23265e-14)
(3.76621e-13 0 6.6027e-14)
(3.31204e-13 0 6.91749e-14)
(2.83679e-13 0 7.17935e-14)
(2.34384e-13 0 7.39088e-14)
(1.83645e-13 0 7.55453e-14)
(1.31788e-13 0 7.67223e-14)
(7.91186e-14 0 7.74461e-14)
(2.63088e-14 0 7.76915e-14)
(8.76095e-05 0 -0.000263695)
(0.000150811 0 -0.000175075)
(-8.98427e-06 0 -0.00017283)
(0.000148119 0 6.74063e-06)
(0.000105029 0 0.000104594)
(4.95459e-05 0 0.000172712)
(-1.06857e-05 0 0.000235671)
(-0.000102618 0 0.000276269)
(-0.000253754 0 0.000271293)
(-0.000462077 0 0.000226045)
(-0.00064407 0 0.000197595)
(-0.00068824 0 0.000183239)
(-0.000691017 0 0.00023786)
(-0.000779148 0 0.000152726)
(-0.000858035 0 0.000219567)
(-0.000944672 0 0.00017339)
(-0.0010026 0 0.00014354)
(-0.00103975 0 0.000188372)
(-0.00108568 0 0.000156771)
(-0.00112551 0 8.62233e-05)
(-0.00114389 0 9.86967e-05)
(-0.00116293 0 4.40224e-05)
(-0.00118326 0 1.41751e-05)
(-0.00119938 0 4.00215e-05)
(-0.00121668 0 8.92676e-06)
(-0.00125421 0 1.38602e-05)
(-0.00129672 0 2.14767e-05)
(-0.00132505 0 1.27029e-05)
(-0.00134356 0 1.52242e-05)
(-0.00135823 0 1.98453e-05)
(-0.00136795 0 2.09359e-05)
(-0.00137133 0 2.23363e-05)
(-0.00137169 0 2.24668e-05)
(-0.00137731 0 2.34173e-05)
(-0.00139975 0 2.99551e-05)
(-0.00140893 0 2.30864e-05)
(-0.00139528 0 -1.14863e-05)
(-0.00138162 0 -1.42114e-05)
(-0.00138452 0 -1.70481e-05)
(-0.00135735 0 -0.000254743)
(-0.00131538 0 -0.000167227)
(-0.00129556 0 -0.000134399)
(-0.0012855 0 -0.000169864)
(-0.00128154 0 -0.000198282)
(-0.00122928 0 -0.000290554)
(-0.00110793 0 -0.000300426)
(-0.000934186 0 -0.00043044)
(-0.000852597 0 -0.000271256)
(-0.0006839 0 -0.000383862)
(-0.000629684 0 -0.000335367)
(-0.000485986 0 -0.00039987)
(-0.000203499 0 -0.000443022)
(-0.000250631 0 -0.000314437)
(-5.72791e-06 0 -0.000338928)
(6.63795e-05 0 -0.000278895)
(0.000193565 0 -0.000250741)
(0.000250586 0 -0.000342063)
(0.000440811 0 -0.000203855)
(0.000473007 0 -0.000292382)
(0.000575667 0 -0.000140976)
(0.00063499 0 -6.62755e-05)
(0.000668231 0 -2.45841e-05)
(0.00065746 0 2.88004e-06)
(0.000622005 0 2.57978e-05)
(0.000599283 0 -4.09126e-05)
(0.00059728 0 -6.26643e-05)
(0.000588712 0 -8.69139e-05)
(0.000577961 0 -6.48063e-05)
(0.00057566 0 1.80925e-05)
(0.000550257 0 4.89212e-05)
(0.000493689 0 0.000108448)
(0.000466522 0 0.000147626)
(0.000452702 0 0.000164935)
(0.000452882 0 0.000110927)
(0.000426975 0 0.000199283)
(0.000434347 0 0.000261807)
(0.000444692 0 0.00031627)
(0.000453828 0 0.000275523)
(0.000339653 0 0.000313603)
(0.000422272 0 0.000134012)
(-0.000364347 0 -6.95603e-05)
(5.72136e-06 0 -0.000165328)
(-2.75769e-13 0 -4.07095e-13)
(-1.55709e-12 0 -3.525e-13)
(-8.57084e-14 0 -2.33081e-13)
(-2.55159e-14 0 -1.78129e-13)
(2.45743e-14 0 -1.52537e-13)
(7.45221e-14 0 -1.41124e-13)
(1.26264e-13 0 -1.36288e-13)
(1.79773e-13 0 -1.34041e-13)
(2.34386e-13 0 -1.32034e-13)
(2.89162e-13 0 -1.28941e-13)
(3.43031e-13 0 -1.24069e-13)
(3.94897e-13 0 -1.1713e-13)
(4.43716e-13 0 -1.08107e-13)
(4.88539e-13 0 -9.71631e-14)
(5.28559e-13 0 -8.45777e-14)
(5.63124e-13 0 -7.06951e-14)
(5.91738e-13 0 -5.58826e-14)
(6.14058e-13 0 -4.05022e-14)
(6.29881e-13 0 -2.48937e-14)
(6.39148e-13 0 -9.36471e-15)
(6.41926e-13 0 5.81651e-15)
(6.38396e-13 0 2.04275e-14)
(6.28828e-13 0 3.42953e-14)
(6.13556e-13 0 4.72945e-14)
(5.9296e-13 0 5.9341e-14)
(5.67454e-13 0 7.03864e-14)
(5.37465e-13 0 8.04108e-14)
(5.03418e-13 0 8.9416e-14)
(4.65739e-13 0 9.74162e-14)
(4.24843e-13 0 1.04433e-13)
(3.81136e-13 0 1.10495e-13)
(3.34999e-13 0 1.1564e-13)
(2.86792e-13 0 1.19913e-13)
(2.36852e-13 0 1.23364e-13)
(1.85504e-13 0 1.26043e-13)
(1.33069e-13 0 1.27995e-13)
(7.98645e-14 0 1.29263e-13)
(2.65547e-14 0 1.29895e-13)
(-2.15254e-05 0 -0.000341254)
(7.71015e-05 0 -0.00022419)
(5.05844e-05 0 -7.6214e-05)
(0.000101187 0 5.29935e-05)
(4.01984e-05 0 0.000157949)
(-4.07262e-06 0 0.000225253)
(-3.94387e-05 0 0.000312796)
(-0.000133982 0 0.000370573)
(-0.000163581 0 0.00043794)
(-0.000304296 0 0.000479337)
(-0.000447824 0 0.000504822)
(-0.000574106 0 0.000447066)
(-0.000683141 0 0.000330168)
(-0.000751892 0 0.000292546)
(-0.000813462 0 0.000304638)
(-0.000865782 0 0.000284398)
(-0.000909441 0 0.000223287)
(-0.000958034 0 0.000123486)
(-0.000999001 0 0.000144509)
(-0.00102229 0 0.000155688)
(-0.00103509 0 0.000123072)
(-0.00106038 0 9.13535e-05)
(-0.00108946 0 0.0001078)
(-0.00111972 0 7.27856e-05)
(-0.00115045 0 5.85444e-05)
(-0.00118598 0 5.48468e-05)
(-0.00122097 0 5.23345e-05)
(-0.00124661 0 4.99899e-05)
(-0.00126805 0 2.65741e-05)
(-0.00128736 0 1.44283e-05)
(-0.00129849 0 1.81738e-05)
(-0.00130198 0 2.01181e-05)
(-0.00129516 0 3.38336e-05)
(-0.00128687 0 3.65577e-05)
(-0.00128819 0 6.44449e-05)
(-0.00129131 0 7.29926e-05)
(-0.00127373 0 6.39908e-05)
(-0.00126281 0 2.0381e-05)
(-0.00126032 0 2.3914e-05)
(-0.0012762 0 1.82418e-05)
(-0.00126228 0 -4.79593e-05)
(-0.00122283 0 -8.35276e-05)
(-0.00119659 0 -0.000161132)
(-0.00114768 0 -0.0002856)
(-0.00112592 0 -0.000313628)
(-0.00109497 0 -0.00035486)
(-0.000954868 0 -0.000487187)
(-0.000877366 0 -0.000361904)
(-0.000711558 0 -0.000473568)
(-0.000635542 0 -0.000482113)
(-0.00059038 0 -0.000448645)
(-0.000380403 0 -0.000537326)
(-9.96277e-05 0 -0.000533922)
(-0.00014145 0 -0.000404206)
(9.34729e-05 0 -0.000371325)
(0.000232829 0 -0.000345292)
(0.000226018 0 -0.000472276)
(0.000458331 0 -0.00033073)
(0.000473778 0 -0.000367548)
(0.000578886 0 -0.000160661)
(0.000580294 0 -0.000163016)
(0.000618155 0 -9.91243e-05)
(0.000632315 0 3.71339e-05)
(0.000622329 0 5.5409e-05)
(0.000600516 0 5.25251e-05)
(0.000563813 0 -4.9313e-05)
(0.000528969 0 -7.62558e-05)
(0.000488998 0 -8.22541e-05)
(0.000435166 0 8.32988e-05)
(0.000383797 0 0.000123273)
(0.000367079 0 0.000154471)
(0.000373023 0 0.00016151)
(0.000400535 0 0.000131466)
(0.000420631 0 0.000119737)
(0.000416125 0 0.000179074)
(0.000416459 0 0.000236621)
(0.000449902 0 0.000262002)
(0.000423274 0 0.00030735)
(0.000348134 0 0.000345948)
(0.000398104 0 0.000241638)
(-0.000103914 0 0.00013977)
(6.26787e-06 0 -5.10321e-05)
(-2.10586e-13 0 -1.888e-13)
(-1.2236e-12 0 -3.4104e-13)
(3.0443e-14 0 -2.50319e-13)
(2.01151e-14 0 -2.09871e-13)
(4.34593e-14 0 -1.93006e-13)
(8.19621e-14 0 -1.87427e-13)
(1.29059e-13 0 -1.86604e-13)
(1.81475e-13 0 -1.86885e-13)
(2.36972e-13 0 -1.86014e-13)
(2.93705e-13 0 -1.82703e-13)
(3.50031e-13 0 -1.76313e-13)
(4.04483e-13 0 -1.66649e-13)
(4.55764e-13 0 -1.53824e-13)
(5.02763e-13 0 -1.38157e-13)
(5.44567e-13 0 -1.20101e-13)
(5.80474e-13 0 -1.00187e-13)
(6.09983e-13 0 -7.89667e-14)
(6.32769e-13 0 -5.69765e-14)
(6.48667e-13 0 -3.47101e-14)
(6.57662e-13 0 -1.26064e-14)
(6.59874e-13 0 8.95661e-15)
(6.55543e-13 0 2.96672e-14)
(6.44995e-13 0 4.92829e-14)
(6.28616e-13 0 6.7628e-14)
(6.06833e-13 0 8.45847e-14)
(5.80097e-13 0 1.00085e-13)
(5.48867e-13 0 1.14103e-13)
(5.13594e-13 0 1.26651e-13)
(4.74715e-13 0 1.37762e-13)
(4.32656e-13 0 1.47484e-13)
(3.87828e-13 0 1.5587e-13)
(3.40622e-13 0 1.62982e-13)
(2.91403e-13 0 1.68888e-13)
(2.40513e-13 0 1.73659e-13)
(1.88276e-13 0 1.77371e-13)
(1.35007e-13 0 1.80092e-13)
(8.10186e-14 0 1.81881e-13)
(2.69413e-14 0 1.82783e-13)
(-1.79296e-06 0 -0.000378173)
(5.48564e-05 0 -0.000238619)
(3.29058e-05 0 -6.12073e-05)
(2.28853e-05 0 0.00010417)
(-6.25496e-07 0 0.000190515)
(-3.95607e-05 0 0.00028285)
(-0.000117301 0 0.000366304)
(-0.000121536 0 0.000445667)
(-0.000276738 0 0.000493655)
(-0.000311993 0 0.00057649)
(-0.00041773 0 0.000567886)
(-0.000507169 0 0.000520783)
(-0.000668853 0 0.000353573)
(-0.000714751 0 0.000342022)
(-0.00075303 0 0.000351473)
(-0.000815583 0 0.000272395)
(-0.000848481 0 0.000241258)
(-0.000860461 0 0.000232424)
(-0.000874664 0 0.000234237)
(-0.000906244 0 0.00021537)
(-0.000945045 0 0.000119616)
(-0.000984112 0 0.000141594)
(-0.00103676 0 7.97569e-05)
(-0.00106756 0 9.39325e-05)
(-0.00109789 0 7.86244e-05)
(-0.00112165 0 7.36108e-05)
(-0.00114473 0 0.000105199)
(-0.00117822 0 7.11679e-05)
(-0.00120814 0 4.30106e-05)
(-0.00122481 0 4.77738e-05)
(-0.00123182 0 4.18022e-05)
(-0.00123733 0 3.42968e-05)
(-0.00124056 0 3.04998e-05)
(-0.00121801 0 -8.82454e-06)
(-0.00118752 0 4.67869e-05)
(-0.00117162 0 3.97631e-05)
(-0.00115737 0 3.37626e-05)
(-0.00113812 0 -1.3636e-05)
(-0.00113118 0 -4.32325e-05)
(-0.00113338 0 -0.000108079)
(-0.00112479 0 -0.000176164)
(-0.00111638 0 -0.000178273)
(-0.00111937 0 -0.000183258)
(-0.00107805 0 -0.000321185)
(-0.00106511 0 -0.000347715)
(-0.00106707 0 -0.000363801)
(-0.000987513 0 -0.000471379)
(-0.000836214 0 -0.000552241)
(-0.000755834 0 -0.000549313)
(-0.000655385 0 -0.000604958)
(-0.000528362 0 -0.000671168)
(-0.000529705 0 -0.000564339)
(-0.000138575 0 -0.000668224)
(-0.000179299 0 -0.000543548)
(-2.1209e-05 0 -0.000532972)
(0.000164114 0 -0.000529107)
(0.000242962 0 -0.000529172)
(0.00038854 0 -0.000413888)
(0.000379552 0 -0.000402141)
(0.000489078 0 -0.000225841)
(0.000480352 0 -0.000167735)
(0.00048637 0 -5.97417e-05)
(0.000504208 0 2.64125e-06)
(0.000503406 0 2.4377e-05)
(0.000481072 0 2.04458e-05)
(0.000465435 0 -1.51595e-05)
(0.000444172 0 -1.22283e-05)
(0.000354762 0 5.74657e-06)
(0.000259403 0 0.000131892)
(0.00025526 0 0.000146435)
(0.000275863 0 0.000142683)
(0.000310974 0 0.000122538)
(0.000343906 0 0.000121663)
(0.000353053 0 0.000152054)
(0.000353969 0 0.000191402)
(0.00037499 0 0.000214998)
(0.000390943 0 0.000264172)
(0.000372791 0 0.000331111)
(0.000313485 0 0.0003643)
(0.000370702 0 0.000256318)
(-0.000122562 0 0.000125531)
(6.45259e-06 0 0.000180425)
(-2.08017e-13 0 3.78907e-13)
(-1.27042e-12 0 -2.10501e-13)
(4.59606e-14 0 -2.17445e-13)
(3.22912e-14 0 -2.18085e-13)
(4.74016e-14 0 -2.22126e-13)
(8.10635e-14 0 -2.28887e-13)
(1.26806e-13 0 -2.35866e-13)
(1.80362e-13 0 -2.4092e-13)
(2.38568e-13 0 -2.42459e-13)
(2.98864e-13 0 -2.39561e-13)
(3.59085e-13 0 -2.31848e-13)
(4.17386e-13 0 -2.19359e-13)
(4.72208e-13 0 -2.02433e-13)
(5.22263e-13 0 -1.81618e-13)
(5.66529e-13 0 -1.57597e-13)
(6.04258e-13 0 -1.31127e-13)
(6.34948e-13 0 -1.02976e-13)
(6.58314e-13 0 -7.38774e-14)
(6.74252e-13 0 -4.44979e-14)
(6.82815e-13 0 -1.54203e-14)
(6.842e-13 0 1.28611e-14)
(6.78723e-13 0 3.99413e-14)
(6.66789e-13 0 6.55079e-14)
(6.48857e-13 0 8.93378e-14)
(6.25417e-13 0 1.11287e-13)
(5.96973e-13 0 1.31277e-13)
(5.64031e-13 0 1.49286e-13)
(5.27077e-13 0 1.65341e-13)
(4.86571e-13 0 1.79504e-13)
(4.42951e-13 0 1.91858e-13)
(3.96634e-13 0 2.02493e-13)
(3.48017e-13 0 2.11501e-13)
(2.9747e-13 0 2.18979e-13)
(2.45336e-13 0 2.25024e-13)
(1.91937e-13 0 2.29733e-13)
(1.37579e-13 0 2.33192e-13)
(8.25547e-14 0 2.35472e-13)
(2.74561e-14 0 2.36621e-13)
(-2.82749e-05 0 -0.000396316)
(-3.03776e-07 0 -0.000217537)
(-9.88489e-06 0 -3.01952e-05)
(-2.67183e-05 0 0.000108689)
(-1.46298e-05 0 0.000230486)
(-0.000107322 0 0.000333609)
(-5.90338e-05 0 0.000440901)
(-0.000192972 0 0.00049054)
(-0.000274975 0 0.000588147)
(-0.000374375 0 0.00064733)
(-0.000421872 0 0.000640906)
(-0.000474669 0 0.000577977)
(-0.000554614 0 0.000494944)
(-0.000661398 0 0.000397398)
(-0.000671949 0 0.000416114)
(-0.000695273 0 0.000407853)
(-0.000717941 0 0.000390343)
(-0.000771499 0 0.000284489)
(-0.000828229 0 0.000133486)
(-0.000836281 0 0.000269576)
(-0.000902172 0 0.000144264)
(-0.000942971 0 0.000148437)
(-0.000982704 0 0.000190734)
(-0.0010237 0 0.000116733)
(-0.00104199 0 0.000137005)
(-0.00106707 0 0.00013578)
(-0.00110567 0 0.00010928)
(-0.00113848 0 8.95556e-05)
(-0.00115674 0 7.00482e-05)
(-0.00116586 0 5.88495e-05)
(-0.00117599 0 3.25403e-05)
(-0.00118745 0 1.17985e-05)
(-0.00119429 0 2.69462e-05)
(-0.00118181 0 6.11495e-06)
(-0.00113492 0 -2.39772e-05)
(-0.00109892 0 -1.55637e-05)
(-0.00106362 0 1.2097e-05)
(-0.00103813 0 -8.86445e-06)
(-0.00103775 0 -2.46583e-05)
(-0.00105693 0 -5.24924e-05)
(-0.00104421 0 -0.000107155)
(-0.00101464 0 -0.000141689)
(-0.00101953 0 -0.000184677)
(-0.00100811 0 -0.000355439)
(-0.00099475 0 -0.00042474)
(-0.000973833 0 -0.000471884)
(-0.000901622 0 -0.000565476)
(-0.000863965 0 -0.000555065)
(-0.0007723 0 -0.00062693)
(-0.000659194 0 -0.000707328)
(-0.000472619 0 -0.000800253)
(-0.000335521 0 -0.000802285)
(-0.000439381 0 -0.000703625)
(-0.000138717 0 -0.000738031)
(-0.000106418 0 -0.000681871)
(5.37177e-05 0 -0.000669633)
(0.00011144 0 -0.00060885)
(0.000189961 0 -0.00053073)
(0.000105343 0 -0.000512996)
(0.000350765 0 -0.000207906)
(0.000243105 0 -0.000192977)
(0.000277028 0 -0.000125451)
(0.000331569 0 -2.02181e-05)
(0.000336577 0 1.869e-05)
(0.000313884 0 9.33888e-05)
(0.000300763 0 8.56699e-05)
(0.000250787 0 9.31857e-05)
(0.000149103 0 8.47678e-05)
(0.000134799 0 0.00011637)
(0.000169453 0 0.000119871)
(0.000214867 0 9.14598e-05)
(0.000241548 0 8.58055e-05)
(0.000244813 0 0.000122169)
(0.000256279 0 0.000139624)
(0.00028757 0 0.000157564)
(0.000286025 0 0.000227604)
(0.000292358 0 0.000288751)
(0.000305703 0 0.000344065)
(0.000259683 0 0.000375432)
(0.00032559 0 0.000296944)
(-0.000133887 0 0.000203098)
(6.39459e-06 0 0.000323935)
(-2.20473e-13 0 6.78946e-13)
(-1.29812e-12 0 -1.39037e-13)
(2.33685e-14 0 -1.90917e-13)
(1.5924e-14 0 -2.22939e-13)
(3.30184e-14 0 -2.48446e-13)
(6.83424e-14 0 -2.70038e-13)
(1.17026e-13 0 -2.87083e-13)
(1.74882e-13 0 -2.98479e-13)
(2.38331e-13 0 -3.03332e-13)
(3.04315e-13 0 -3.01214e-13)
(3.70233e-13 0 -2.92143e-13)
(4.33898e-13 0 -2.76498e-13)
(4.93506e-13 0 -2.5494e-13)
(5.47599e-13 0 -2.28319e-13)
(5.95057e-13 0 -1.97609e-13)
(6.35096e-13 0 -1.6384e-13)
(6.67233e-13 0 -1.28035e-13)
(6.91247e-13 0 -9.11562e-14)
(7.07124e-13 0 -5.40671e-14)
(7.15021e-13 0 -1.75091e-14)
(7.15236e-13 0 1.79016e-14)
(7.0819e-13 0 5.16687e-14)
(6.94391e-13 0 8.3415e-14)
(6.74395e-13 0 1.12879e-13)
(6.48772e-13 0 1.39902e-13)
(6.18096e-13 0 1.64409e-13)
(5.82931e-13 0 1.86394e-13)
(5.43813e-13 0 2.0591e-13)
(5.01233e-13 0 2.23053e-13)
(4.55645e-13 0 2.37951e-13)
(4.07471e-13 0 2.50737e-13)
(3.57108e-13 0 2.61546e-13)
(3.04926e-13 0 2.70511e-13)
(2.51267e-13 0 2.77756e-13)
(1.96443e-13 0 2.834e-13)
(1.40747e-13 0 2.87548e-13)
(8.44481e-14 0 2.90283e-13)
(2.80904e-14 0 2.91659e-13)
(-3.61636e-05 0 -0.000399025)
(1.20671e-05 0 -0.000204027)
(-3.39162e-05 0 -1.16313e-05)
(-4.15557e-05 0 0.000124902)
(-0.00011193 0 0.000263613)
(-3.72961e-05 0 0.000402843)
(-0.000151291 0 0.000480321)
(-0.000151378 0 0.000579338)
(-0.000248691 0 0.000673623)
(-0.000365272 0 0.000730987)
(-0.000402819 0 0.000725446)
(-0.000501636 0 0.000610415)
(-0.000488532 0 0.00056517)
(-0.000586556 0 0.00046102)
(-0.00059612 0 0.000443025)
(-0.000670774 0 0.000332824)
(-0.000670713 0 0.000361488)
(-0.000681508 0 0.000380714)
(-0.000762849 0 0.000289297)
(-0.000787442 0 0.000340269)
(-0.000843014 0 0.000283817)
(-0.000901789 0 0.000210378)
(-0.000937983 0 0.000215827)
(-0.000979486 0 0.000158771)
(-0.00100508 0 0.000157837)
(-0.00104271 0 0.000116342)
(-0.00106937 0 0.00013963)
(-0.00108618 0 0.000123981)
(-0.00109969 0 8.80059e-05)
(-0.00112199 0 6.51756e-05)
(-0.00113981 0 5.92576e-05)
(-0.00114627 0 4.19483e-05)
(-0.00114683 0 2.78509e-05)
(-0.00113631 0 -3.50491e-05)
(-0.00110575 0 -4.56568e-05)
(-0.00108062 0 -3.92041e-05)
(-0.00104858 0 -3.69108e-05)
(-0.00100949 0 -3.2498e-05)
(-0.000991303 0 -2.38048e-05)
(-0.000991462 0 -1.61758e-05)
(-0.000957254 0 -0.000175966)
(-0.00089592 0 -0.000267854)
(-0.00091703 0 -0.000174275)
(-0.000946506 0 -0.000267922)
(-0.000946533 0 -0.000367093)
(-0.000884292 0 -0.000519581)
(-0.000821647 0 -0.000629824)
(-0.000751732 0 -0.000718063)
(-0.000696514 0 -0.000771619)
(-0.000603898 0 -0.000839009)
(-0.000652588 0 -0.00078589)
(-0.000543832 0 -0.000820896)
(-0.00030738 0 -0.000878639)
(-0.000284624 0 -0.000843036)
(-0.000189706 0 -0.000821661)
(-7.8364e-05 0 -0.000756999)
(-4.15161e-05 0 -0.000658608)
(5.57449e-05 0 -0.000561681)
(9.75295e-06 0 -0.000500342)
(0.000203296 0 -0.000254125)
(6.84395e-05 0 -0.000181945)
(0.000122564 0 -8.6138e-05)
(0.000167172 0 1.50662e-05)
(0.000160101 0 2.34416e-05)
(0.000164511 0 6.60599e-05)
(0.000147021 0 7.41891e-05)
(8.18514e-05 0 0.000118108)
(3.65782e-05 0 0.000116935)
(6.23226e-05 0 0.000107607)
(0.000100891 0 9.34611e-05)
(0.000121317 0 8.75102e-05)
(0.000117504 0 9.95448e-05)
(0.000139858 0 9.11859e-05)
(0.000149402 0 0.00012171)
(0.000116284 0 0.000197939)
(0.000150813 0 0.000236481)
(0.000122861 0 0.000313545)
(0.000163131 0 0.000363037)
(0.0001803 0 0.000375324)
(0.000260222 0 0.000315351)
(-0.000209163 0 0.00025827)
(6.39703e-06 0 0.000477827)
(-2.94076e-13 0 9.4274e-13)
(-1.42411e-12 0 -1.22192e-13)
(-3.74299e-14 0 -1.84244e-13)
(-2.47539e-14 0 -2.34305e-13)
(6.36729e-16 0 -2.78567e-13)
(4.25247e-14 0 -3.15649e-13)
(9.83646e-14 0 -3.43969e-13)
(1.64113e-13 0 -3.62601e-13)
(2.35833e-13 0 -3.7118e-13)
(3.10054e-13 0 -3.69816e-13)
(3.83801e-13 0 -3.58999e-13)
(4.54588e-13 0 -3.39543e-13)
(5.20388e-13 0 -3.12505e-13)
(5.79594e-13 0 -2.79114e-13)
(6.31009e-13 0 -2.40701e-13)
(6.73832e-13 0 -1.98629e-13)
(7.07632e-13 0 -1.54218e-13)
(7.32282e-13 0 -1.08697e-13)
(7.47899e-13 0 -6.3151e-14)
(7.54783e-13 0 -1.84954e-14)
(7.53377e-13 0 2.45298e-14)
(7.44236e-13 0 6.53453e-14)
(7.27999e-13 0 1.03522e-13)
(7.05345e-13 0 1.38773e-13)
(6.76947e-13 0 1.70943e-13)
(6.43465e-13 0 1.99977e-13)
(6.05531e-13 0 2.259e-13)
(5.63736e-13 0 2.48806e-13)
(5.18613e-13 0 2.68835e-13)
(4.70635e-13 0 2.86164e-13)
(4.2023e-13 0 3.0098e-13)
(3.67791e-13 0 3.13468e-13)
(3.13679e-13 0 3.23801e-13)
(2.58225e-13 0 3.32142e-13)
(2.0173e-13 0 3.38635e-13)
(1.44462e-13 0 3.43403e-13)
(8.66658e-14 0 3.46543e-13)
(2.88325e-14 0 3.48121e-13)
(-4.49059e-05 0 -0.000389892)
(-1.8048e-06 0 -0.000192653)
(-2.36194e-05 0 -1.02822e-05)
(-4.44028e-05 0 0.000150787)
(1.45775e-05 0 0.000307303)
(-0.000131233 0 0.000400074)
(-0.000165891 0 0.000522634)
(-0.000122107 0 0.000654846)
(-0.000267613 0 0.000746403)
(-0.000321914 0 0.000807951)
(-0.000368029 0 0.000784458)
(-0.000427404 0 0.000668629)
(-0.000441873 0 0.000589001)
(-0.000473706 0 0.000521964)
(-0.000504467 0 0.000472795)
(-0.000529219 0 0.000438086)
(-0.000613938 0 0.000368133)
(-0.000653117 0 0.000353031)
(-0.000744135 0 0.000277915)
(-0.000746264 0 0.000370688)
(-0.000823417 0 0.000266635)
(-0.000870093 0 0.000241464)
(-0.000906481 0 0.000242489)
(-0.000949689 0 0.000177277)
(-0.000971517 0 0.00019002)
(-0.00100216 0 0.000169802)
(-0.0010182 0 0.000180361)
(-0.00103043 0 0.000148613)
(-0.00105437 0 7.95018e-05)
(-0.00107732 0 8.70773e-05)
(-0.00108945 0 5.70463e-05)
(-0.00109154 0 3.2908e-05)
(-0.00108864 0 -3.76943e-05)
(-0.00107986 0 -2.30342e-06)
(-0.00105452 0 -8.93074e-05)
(-0.00104375 0 -6.92968e-05)
(-0.00103697 0 -6.14493e-05)
(-0.00100361 0 -1.28871e-05)
(-0.000952895 0 -5.87448e-05)
(-0.000934493 0 -9.1861e-05)
(-0.000909483 0 -0.000197424)
(-0.00085048 0 -0.000194257)
(-0.000812416 0 -0.000223562)
(-0.000826819 0 -0.000262035)
(-0.000798629 0 -0.000446864)
(-0.000780394 0 -0.000551973)
(-0.000790681 0 -0.000622905)
(-0.000778524 0 -0.000711043)
(-0.000707139 0 -0.000822895)
(-0.000668454 0 -0.000866022)
(-0.00058812 0 -0.00091832)
(-0.000454032 0 -0.000966912)
(-0.00043153 0 -0.000928204)
(-0.000393028 0 -0.000914569)
(-0.000310333 0 -0.000889863)
(-0.000219321 0 -0.0007953)
(-0.000254581 0 -0.000675228)
(-0.000218949 0 -0.000610675)
(-0.000190272 0 -0.000489354)
(-8.11842e-05 0 -0.000351611)
(-0.000143023 0 -0.000212295)
(-6.85097e-06 0 -8.28143e-05)
(-0.000124553 0 -3.87735e-05)
(-0.000175347 0 7.09051e-05)
(-0.000153317 0 0.000110725)
(-0.000146984 0 0.000103335)
(-0.000141465 0 8.98432e-05)
(-8.36436e-05 0 7.26805e-05)
(-3.68203e-05 0 5.73646e-05)
(-2.26806e-06 0 5.98255e-05)
(2.22565e-05 0 6.61022e-05)
(4.73734e-05 0 5.66285e-05)
(5.43701e-05 0 8.47471e-05)
(4.95565e-05 0 0.000136864)
(3.1843e-05 0 0.000180745)
(8.95905e-05 0 0.000189658)
(7.4085e-05 0 0.000257654)
(0.000110405 0 0.00029867)
(9.32838e-05 0 0.00034373)
(0.000282269 0 0.000300759)
(-0.000312567 0 0.000277682)
(6.88296e-06 0 0.000636903)
(-4.50451e-13 0 1.06403e-12)
(-1.47318e-12 0 -1.62865e-13)
(-8.82412e-14 0 -1.89538e-13)
(-7.79265e-14 0 -2.51413e-13)
(-4.80229e-14 0 -3.15712e-13)
(3.01321e-15 0 -3.69965e-13)
(7.00736e-14 0 -4.10572e-13)
(1.47671e-13 0 -4.36828e-13)
(2.31117e-13 0 -4.4903e-13)
(3.16496e-13 0 -4.47921e-13)
(4.00505e-13 0 -4.34543e-13)
(4.80393e-13 0 -4.10207e-13)
(5.53935e-13 0 -3.76445e-13)
(6.19402e-13 0 -3.34943e-13)
(6.75543e-13 0 -2.87465e-13)
(7.21579e-13 0 -2.35772e-13)
(7.57165e-13 0 -1.81537e-13)
(7.82314e-13 0 -1.26292e-13)
(7.97326e-13 0 -7.13708e-14)
(8.02702e-13 0 -1.78769e-14)
(7.99077e-13 0 3.33271e-14)
(7.87182e-13 0 8.15941e-14)
(7.6782e-13 0 1.26465e-13)
(7.41816e-13 0 1.67651e-13)
(7.09975e-13 0 2.05017e-13)
(6.73053e-13 0 2.38552e-13)
(6.3176e-13 0 2.68336e-13)
(5.86748e-13 0 2.94517e-13)
(5.38592e-13 0 3.17295e-13)
(4.8779e-13 0 3.36904e-13)
(4.34774e-13 0 3.53591e-13)
(3.79929e-13 0 3.67597e-13)
(3.23601e-13 0 3.79149e-13)
(2.661e-13 0 3.88449e-13)
(2.07704e-13 0 3.95675e-13)
(1.48655e-13 0 4.00973e-13)
(8.91656e-14 0 4.04457e-13)
(2.96677e-14 0 4.06203e-13)
(-3.3018e-05 0 -0.000388568)
(-1.19626e-05 0 -0.000190361)
(-1.62641e-05 0 7.37577e-07)
(-7.29443e-05 0 0.000198346)
(-4.08422e-05 0 0.000336334)
(-0.000147784 0 0.000420015)
(-0.000105819 0 0.000563285)
(-0.000187103 0 0.000694136)
(-0.000268084 0 0.000822088)
(-0.000275762 0 0.000877498)
(-0.000297994 0 0.000838017)
(-0.000382874 0 0.000685805)
(-0.00037071 0 0.000612694)
(-0.000395357 0 0.000560579)
(-0.000413137 0 0.000533775)
(-0.000504997 0 0.000459938)
(-0.000539774 0 0.000460313)
(-0.000575484 0 0.000450886)
(-0.000704798 0 0.000331284)
(-0.000732812 0 0.000359343)
(-0.000771217 0 0.000346434)
(-0.000825371 0 0.000298188)
(-0.000857098 0 0.000290865)
(-0.000890114 0 0.000254905)
(-0.000923589 0 0.000207607)
(-0.000951236 0 0.000165875)
(-0.000959075 0 0.000179823)
(-0.000974039 0 0.000139007)
(-0.000993228 0 9.91096e-05)
(-0.000999969 0 9.88061e-05)
(-0.00100383 0 7.40918e-05)
(-0.00100369 0 2.97458e-05)
(-0.000990755 0 -9.45806e-06)
(-0.000987265 0 -2.67805e-05)
(-0.00098936 0 -7.25623e-05)
(-0.000985464 0 -0.000104132)
(-0.000956824 0 -0.000136815)
(-0.000941396 0 -0.000100387)
(-0.000930816 0 -0.000102833)
(-0.000927216 0 -9.11213e-05)
(-0.000858218 0 -0.000221968)
(-0.000776233 0 -0.000230607)
(-0.00072875 0 -0.000254773)
(-0.000745864 0 -0.000251747)
(-0.000691949 0 -0.000451369)
(-0.000677005 0 -0.000558764)
(-0.000699665 0 -0.000653222)
(-0.000728038 0 -0.000760243)
(-0.000698316 0 -0.000856494)
(-0.000632056 0 -0.000938382)
(-0.000594968 0 -0.000965373)
(-0.000546791 0 -0.000980582)
(-0.000459908 0 -0.000983863)
(-0.00040857 0 -0.000963073)
(-0.000398843 0 -0.000905638)
(-0.00041315 0 -0.000804392)
(-0.000330015 0 -0.000719467)
(-0.000322007 0 -0.000616515)
(-0.000348029 0 -0.000478183)
(-0.000317263 0 -0.000357519)
(-0.00028723 0 -0.0002063)
(-0.000238595 0 -0.000114116)
(-0.000293964 0 3.55442e-06)
(-0.000250238 0 7.31224e-05)
(-0.000246288 0 8.9298e-05)