/*--------------------------------*- C++ -*----------------------------------*\
  =========                 |
  \\      /  F ield         | OpenFOAM: The Open Source CFD Toolbox
   \\    /   O peration     | Website:  https://openfoam.org
    \\  /    A nd           | Version:  6
     \\/     M anipulation  |
\*---------------------------------------------------------------------------*/
FoamFile
{
    version     2.0;
    format      ascii;
    class       volScalarField;
    location    "270";
    object      p;
}
// * * * * * * * * * * * * * * * * * * * * * * * * * * * * * * * * * * * * * //

dimensions      [1 -1 -2 0 0 0 0];

internalField   nonuniform List<scalar> 
5964
(
103775
103775
103775
103775
103775
103775
103775
103775
103775
103775
103775
103775
103775
103775
103770
103766
103763
103760
103757
103755
103753
103751
103749
103747
103746
103744
103743
103742
103741
103739
103738
103737
103737
103736
103735
103734
103733
103733
103732
103732
103731
103730
103730
103730
103729
103729
103728
103728
103728
103727
103727
103727
103727
103726
103726
103726
103726
103726
103725
103725
103725
103725
103725
103725
103725
103725
103724
103724
103724
103724
103724
103724
103724
103724
103724
103724
103724
103724
103724
103724
103724
103724
103724
103724
103714
103714
103714
103714
103714
103714
103714
103714
103714
103714
103714
103714
103714
103714
103710
103707
103704
103701
103698
103696
103694
103692
103690
103689
103687
103686
103684
103683
103682
103681
103680
103679
103678
103677
103676
103675
103675
103674
103673
103673
103672
103672
103671
103671
103670
103670
103670
103669
103669
103669
103668
103668
103668
103668
103667
103667
103667
103667
103667
103667
103666
103666
103666
103666
103666
103666
103666
103666
103666
103666
103666
103665
103665
103665
103665
103665
103665
103665
103665
103665
103665
103665
103665
103665
103654
103654
103654
103654
103654
103654
103654
103654
103654
103654
103654
103654
103654
103654
103650
103647
103644
103642
103639
103637
103635
103633
103631
103630
103628
103627
103625
103624
103623
103622
103621
103620
103619
103618
103617
103617
103616
103615
103615
103614
103614
103613
103613
103612
103612
103611
103611
103611
103610
103610
103610
103610
103609
103609
103609
103609
103608
103608
103608
103608
103608
103608
103608
103607
103607
103607
103607
103607
103607
103607
103607
103607
103607
103607
103607
103607
103607
103607
103607
103607
103607
103607
103607
103607
103593
103593
103593
103593
103593
103593
103593
103593
103593
103593
103593
103593
103593
103593
103590
103588
103585
103582
103580
103578
103576
103574
103572
103571
103569
103568
103567
103565
103564
103563
103562
103561
103560
103560
103559
103558
103557
103557
103556
103555
103555
103554
103554
103553
103553
103553
103552
103552
103552
103551
103551
103551
103551
103550
103550
103550
103550
103550
103549
103549
103549
103549
103549
103549
103549
103549
103549
103548
103548
103548
103548
103548
103548
103548
103548
103548
103548
103548
103548
103548
103548
103548
103548
103548
103533
103533
103533
103533
103533
103533
103533
103533
103533
103533
103533
103533
103533
103533
103530
103528
103525
103523
103521
103519
103517
103515
103513
103512
103510
103509
103508
103507
103505
103504
103503
103502
103502
103501
103500
103499
103499
103498
103497
103497
103496
103496
103495
103495
103494
103494
103494
103493
103493
103493
103492
103492
103492
103492
103491
103491
103491
103491
103491
103491
103490
103490
103490
103490
103490
103490
103490
103490
103490
103490
103490
103490
103489
103489
103489
103489
103489
103489
103489
103489
103489
103489
103489
103489
103472
103472
103472
103472
103472
103472
103472
103472
103472
103472
103472
103472
103472
103472
103470
103468
103465
103463
103461
103459
103458
103456
103454
103453
103451
103450
103449
103448
103446
103445
103444
103444
103443
103442
103441
103440
103440
103439
103438
103438
103437
103437
103436
103436
103436
103435
103435
103435
103434
103434
103434
103433
103433
103433
103433
103433
103432
103432
103432
103432
103432
103432
103432
103431
103431
103431
103431
103431
103431
103431
103431
103431
103431
103431
103431
103431
103431
103431
103431
103431
103431
103431
103431
103431
103412
103412
103412
103412
103412
103412
103412
103412
103412
103412
103412
103412
103412
103412
103410
103408
103406
103404
103402
103400
103398
103397
103395
103394
103392
103391
103390
103389
103387
103386
103385
103385
103384
103383
103382
103382
103381
103380
103380
103379
103379
103378
103378
103377
103377
103376
103376
103376
103376
103375
103375
103375
103374
103374
103374
103374
103374
103374
103373
103373
103373
103373
103373
103373
103373
103373
103373
103372
103372
103372
103372
103372
103372
103372
103372
103372
103372
103372
103372
103372
103372
103372
103372
103372
103352
103352
103352
103352
103352
103352
103352
103352
103352
103352
103352
103352
103352
103352
103350
103348
103346
103344
103342
103340
103339
103337
103336
103334
103333
103332
103331
103329
103328
103327
103326
103326
103325
103324
103323
103323
103322
103321
103321
103320
103320
103319
103319
103318
103318
103318
103317
103317
103317
103316
103316
103316
103316
103316
103315
103315
103315
103315
103315
103315
103314
103314
103314
103314
103314
103314
103314
103314
103314
103314
103314
103314
103314
103313
103313
103313
103313
103313
103313
103313
103313
103313
103313
103313
103291
103291
103291
103291
103291
103291
103291
103291
103291
103291
103291
103291
103291
103291
103289
103288
103286
103284
103282
103281
103279
103278
103276
103275
103274
103272
103271
103270
103269
103268
103267
103267
103266
103265
103264
103264
103263
103262
103262
103261
103261
103260
103260
103260
103259
103259
103259
103258
103258
103258
103257
103257
103257
103257
103257
103256
103256
103256
103256
103256
103256
103256
103256
103255
103255
103255
103255
103255
103255
103255
103255
103255
103255
103255
103255
103255
103255
103255
103255
103255
103255
103255
103255
103255
103231
103231
103231
103231
103231
103231
103231
103231
103231
103231
103231
103231
103231
103231
103229
103227
103226
103224
103223
103221
103220
103218
103217
103216
103214
103213
103212
103211
103210
103209
103208
103208
103207
103206
103205
103205
103204
103204
103203
103202
103202
103202
103201
103201
103200
103200
103200
103199
103199
103199
103199
103198
103198
103198
103198
103198
103198
103197
103197
103197
103197
103197
103197
103197
103197
103197
103196
103196
103196
103196
103196
103196
103196
103196
103196
103196
103196
103196
103196
103196
103196
103196
103196
103196
103170
103170
103170
103170
103170
103170
103170
103170
103170
103170
103170
103170
103170
103170
103169
103167
103166
103164
103163
103161
103160
103159
103157
103156
103155
103154
103153
103152
103151
103150
103149
103148
103148
103147
103146
103146
103145
103145
103144
103144
103143
103143
103142
103142
103142
103141
103141
103141
103140
103140
103140
103140
103139
103139
103139
103139
103139
103139
103139
103138
103138
103138
103138
103138
103138
103138
103138
103138
103138
103138
103138
103138
103137
103137
103137
103137
103137
103137
103137
103137
103137
103137
103137
103137
103110
103110
103110
103110
103110
103110
103110
103110
103110
103110
103110
103110
103110
103110
103108
103107
103106
103104
103103
103102
103100
103099
103098
103097
103096
103094
103093
103093
103092
103091
103090
103089
103089
103088
103087
103087
103086
103086
103085
103085
103084
103084
103083
103083
103083
103082
103082
103082
103082
103081
103081
103081
103081
103081
103080
103080
103080
103080
103080
103080
103080
103079
103079
103079
103079
103079
103079
103079
103079
103079
103079
103079
103079
103079
103079
103079
103079
103079
103079
103079
103079
103079
103079
103079
103050
103050
103050
103050
103050
103049
103049
103049
103049
103049
103049
103049
103049
103049
103048
103047
103046
103044
103043
103042
103040
103039
103038
103037
103036
103035
103034
103033
103032
103032
103031
103030
103029
103029
103028
103028
103027
103027
103026
103026
103025
103025
103024
103024
103024
103023
103023
103023
103023
103022
103022
103022
103022
103022
103022
103021
103021
103021
103021
103021
103021
103021
103021
103021
103021
103020
103020
103020
103020
103020
103020
103020
103020
103020
103020
103020
103020
103020
103020
103020
103020
103020
103020
103020
102989
102989
102989
102989
102989
102989
102989
102989
102989
102989
102989
102989
102989
102989
102989
102987
102986
102984
102983
102982
102981
102980
102978
102977
102976
102976
102975
102974
102973
102972
102972
102971
102970
102970
102969
102968
102968
102967
102967
102967
102966
102966
102966
102965
102965
102965
102964
102964
102964
102964
102963
102963
102963
102963
102963
102963
102963
102962
102962
102962
102962
102962
102962
102962
102962
102962
102962
102962
102962
102962
102962
102961
102961
102961
102961
102961
102961
102961
102961
102961
102961
102961
102961
102961
102929
102929
102929
102929
102929
102929
102929
102929
102929
102929
102929
102929
102929
102929
102929
102927
102926
102924
102923
102922
102921
102920
102919
102918
102917
102916
102915
102914
102914
102913
102912
102912
102911
102910
102910
102909
102909
102908
102908
102908
102907
102907
102907
102906
102906
102906
102905
102905
102905
102905
102905
102904
102904
102904
102904
102904
102904
102904
102904
102903
102903
102903
102903
102903
102903
102903
102903
102903
102903
102903
102903
102903
102903
102903
102903
102903
102903
102903
102903
102903
102903
102903
102903
102903
102868
102868
102868
102868
102868
102868
102868
102868
102868
102868
102868
102868
102868
102869
102868
102866
102865
102864
102863
102862
102861
102860
102859
102858
102857
102856
102856
102855
102854
102854
102853
102852
102852
102851
102851
102850
102850
102849
102849
102849
102848
102848
102848
102847
102847
102847
102847
102846
102846
102846
102846
102846
102845
102845
102845
102845
102845
102845
102845
102845
102845
102845
102844
102844
102844
102844
102844
102844
102844
102844
102844
102844
102844
102844
102844
102844
102844
102844
102844
102844
102844
102844
102844
102844
102808
102808
102808
102808
102808
102808
102808
102808
102808
102808
102808
102808
102808
102808
102807
102806
102805
102804
102803
102802
102801
102800
102799
102798
102798
102797
102796
102795
102795
102794
102794
102793
102792
102792
102791
102791
102791
102790
102790
102789
102789
102789
102789
102788
102788
102788
102788
102787
102787
102787
102787
102787
102787
102787
102786
102786
102786
102786
102786
102786
102786
102786
102786
102786
102786
102786
102786
102786
102785
102785
102785
102785
102785
102785
102785
102785
102785
102785
102785
102785
102785
102785
102785
102785
102747
102747
102747
102747
102747
102747
102747
102747
102747
102747
102747
102747
102747
102747
102746
102746
102745
102744
102743
102742
102741
102740
102740
102739
102738
102737
102737
102736
102735
102735
102734
102734
102733
102733
102732
102732
102731
102731
102731
102730
102730
102730
102730
102729
102729
102729
102729
102729
102728
102728
102728
102728
102728
102728
102728
102727
102727
102727
102727
102727
102727
102727
102727
102727
102727
102727
102727
102727
102727
102727
102727
102727
102727
102727
102727
102727
102727
102727
102727
102727
102727
102727
102727
102727
102687
102687
102687
102687
102687
102687
102687
102687
102687
102687
102687
102687
102687
102687
102686
102685
102684
102684
102683
102682
102681
102680
102680
102679
102678
102678
102677
102676
102676
102675
102675
102674
102674
102673
102673
102673
102672
102672
102672
102671
102671
102671
102671
102670
102670
102670
102670
102670
102669
102669
102669
102669
102669
102669
102669
102669
102669
102669
102668
102668
102668
102668
102668
102668
102668
102668
102668
102668
102668
102668
102668
102668
102668
102668
102668
102668
102668
102668
102668
102668
102668
102668
102668
102668
102626
102626
102626
102626
102626
102626
102626
102626
102626
102626
102626
102626
102626
102626
102626
102625
102624
102623
102623
102622
102621
102621
102620
102619
102619
102618
102617
102617
102616
102616
102615
102615
102614
102614
102614
102613
102613
102613
102612
102612
102612
102612
102611
102611
102611
102611
102611
102611
102610
102610
102610
102610
102610
102610
102610
102610
102610
102610
102610
102610
102610
102610
102609
102609
102609
102609
102609
102609
102609
102609
102609
102609
102609
102609
102609
102609
102609
102609
102609
102609
102609
102609
102609
102609
102566
102566
102566
102566
102566
102566
102566
102566
102566
102566
102566
102566
102566
102566
102565
102565
102564
102563
102563
102562
102561
102561
102560
102559
102559
102558
102558
102557
102557
102556
102556
102555
102555
102555
102554
102554
102554
102553
102553
102553
102553
102553
102552
102552
102552
102552
102552
102552
102552
102551
102551
102551
102551
102551
102551
102551
102551
102551
102551
102551
102551
102551
102551
102551
102551
102551
102551
102551
102551
102551
102551
102551
102551
102551
102551
102551
102551
102551
102551
102551
102551
102551
102551
102551
102505
102505
102505
102505
102505
102505
102505
102505
102505
102505
102506
102506
102506
102506
102505
102504
102504
102503
102503
102502
102501
102501
102500
102500
102499
102499
102498
102498
102497
102497
102496
102496
102496
102495
102495
102495
102495
102494
102494
102494
102494
102493
102493
102493
102493
102493
102493
102493
102493
102493
102492
102492
102492
102492
102492
102492
102492
102492
102492
102492
102492
102492
102492
102492
102492
102492
102492
102492
102492
102492
102492
102492
102492
102492
102492
102492
102492
102492
102492
102492
102492
102492
102492
102492
102445
102445
102445
102445
102445
102445
102445
102445
102445
102445
102445
102445
102445
102445
102445
102444
102444
102443
102442
102442
102441
102441
102440
102440
102439
102439
102438
102438
102438
102437
102437
102437
102436
102436
102436
102435
102435
102435
102435
102435
102435
102434
102434
102434
102434
102434
102434
102434
102434
102434
102434
102434
102433
102433
102433
102433
102433
102433
102433
102433
102433
102433
102433
102433
102433
102433
102433
102433
102433
102433
102433
102433
102433
102433
102433
102433
102433
102433
102433
102433
102433
102433
102433
102433
102385
102385
102384
102384
102384
102384
102384
102384
102385
102385
102385
102385
102385
102385
102384
102384
102383
102383
102382
102382
102381
102381
102380
102380
102379
102379
102379
102378
102378
102378
102377
102377
102377
102377
102376
102376
102376
102376
102376
102375
102375
102375
102375
102375
102375
102375
102375
102375
102375
102375
102375
102375
102375
102375
102375
102375
102374
102374
102374
102374
102374
102374
102374
102374
102374
102374
102374
102374
102374
102374
102374
102374
102374
102374
102374
102374
102374
102374
102374
102374
102374
102374
102374
102374
102324
102324
102324
102324
102324
102324
102324
102324
102324
102324
102324
102324
102324
102324
102324
102324
102323
102323
102322
102322
102321
102321
102320
102320
102320
102319
102319
102319
102318
102318
102318
102318
102317
102317
102317
102317
102317
102317
102316
102316
102316
102316
102316
102316
102316
102316
102316
102316
102316
102316
102316
102316
102316
102316
102316
102316
102316
102316
102316
102316
102316
102316
102316
102316
102316
102316
102316
102316
102316
102316
102316
102316
102316
102316
102316
102316
102316
102316
102316
102316
102316
102316
102316
102316
102264
102264
102264
102264
102264
102264
102264
102264
102264
102264
102264
102264
102264
102264
102264
102263
102263
102262
102262
102262
102261
102261
102260
102260
102260
102259
102259
102259
102259
102258
102258
102258
102258
102258
102258
102257
102257
102257
102257
102257
102257
102257
102257
102257
102257
102257
102257
102257
102257
102257
102257
102257
102257
102257
102257
102257
102257
102257
102257
102257
102257
102257
102257
102257
102257
102257
102257
102257
102257
102257
102257
102257
102257
102257
102257
102257
102257
102257
102257
102257
102257
102257
102257
102257
102203
102203
102203
102203
102203
102203
102203
102203
102203
102203
102203
102203
102203
102203
102203
102203
102203
102202
102202
102201
102201
102201
102201
102200
102200
102200
102199
102199
102199
102199
102199
102199
102198
102198
102198
102198
102198
102198
102198
102198
102198
102198
102198
102198
102198
102198
102198
102198
102198
102198
102198
102198
102198
102198
102198
102198
102198
102198
102198
102198
102198
102198
102198
102198
102198
102198
102198
102198
102198
102198
102198
102198
102198
102198
102198
102198
102198
102198
102198
102198
102198
102198
102198
102198
102143
102143
102143
102143
102143
102143
102143
102143
102143
102143
102143
102143
102143
102143
102143
102143
102142
102142
102142
102141
102141
102141
102141
102140
102140
102140
102140
102140
102139
102139
102139
102139
102139
102139
102139
102139
102139
102139
102139
102139
102139
102139
102139
102139
102139
102139
102139
102139
102139
102139
102139
102139
102139
102139
102139
102139
102139
102139
102139
102139
102139
102139
102139
102139
102139
102139
102140
102140
102140
102140
102140
102140
102140
102140
102140
102140
102140
102140
102140
102140
102140
102140
102140
102140
102083
102083
102083
102082
102083
102082
102082
102083
102083
102083
102083
102083
102083
102083
102083
102082
102082
102082
102081
102081
102081
102081
102081
102080
102080
102080
102080
102080
102080
102080
102080
102079
102079
102079
102079
102079
102079
102079
102079
102079
102079
102079
102080
102080
102080
102080
102080
102080
102080
102080
102080
102080
102080
102080
102080
102080
102080
102080
102080
102080
102081
102081
102081
102081
102081
102081
102081
102081
102081
102081
102081
102081
102081
102081
102081
102081
102081
102081
102081
102081
102081
102081
102081
102081
102022
102022
102022
102022
102022
102022
102022
102022
102022
102022
102022
102022
102022
102022
102022
102022
102022
102021
102021
102021
102021
102021
102021
102020
102020
102020
102020
102020
102020
102020
102020
102020
102020
102020
102020
102020
102020
102020
102020
102020
102020
102020
102020
102020
102021
102021
102021
102021
102021
102021
102021
102021
102021
102021
102021
102021
102022
102022
102022
102022
102022
102022
102022
102022
102022
102022
102022
102022
102022
102022
102022
102022
102022
102022
102022
102022
102022
102022
102022
102022
102022
102022
102022
102022
101962
101962
101962
101962
101962
101962
101962
101962
101962
101962
101962
101962
101962
101962
101962
101962
101961
101961
101961
101961
101961
101961
101961
101960
101960
101960
101960
101960
101960
101960
101960
101960
101960
101960
101960
101961
101961
101961
101961
101961
101961
101961
101961
101961
101961
101962
101962
101962
101962
101962
101962
101962
101962
101962
101963
101963
101963
101963
101963
101963
101963
101963
101963
101963
101963
101963
101963
101963
101963
101963
101963
101963
101964
101964
101964
101964
101964
101964
101964
101964
101964
101964
101964
101964
101902
101902
101902
101902
101901
101901
101901
101901
101901
101901
101901
101901
101901
101901
101901
101901
101901
101901
101901
101901
101901
101901
101900
101900
101900
101900
101900
101900
101901
101901
101901
101901
101901
101901
101901
101901
101901
101901
101902
101902
101902
101902
101902
101902
101902
101903
101903
101903
101903
101903
101903
101903
101903
101904
101904
101904
101904
101904
101904
101904
101904
101904
101904
101904
101904
101905
101905
101905
101905
101905
101905
101905
101905
101905
101905
101905
101905
101905
101905
101905
101905
101905
101905
101905
101841
101841
101841
101841
101841
101841
101841
101841
101841
101841
101841
101841
101841
101841
101841
101841
101841
101841
101841
101841
101840
101840
101840
101840
101840
101841
101841
101841
101841
101841
101841
101841
101841
101841
101842
101842
101842
101842
101842
101842
101843
101843
101843
101843
101843
101844
101844
101844
101844
101844
101844
101844
101845
101845
101845
101845
101845
101845
101845
101845
101845
101846
101846
101846
101846
101846
101846
101846
101846
101846
101846
101846
101846
101846
101846
101846
101846
101846
101846
101846
101846
101846
101846
101846
101781
101781
101781
101781
101781
101781
101781
101781
101780
101780
101780
101780
101780
101780
101780
101780
101780
101780
101780
101780
101780
101780
101780
101780
101781
101781
101781
101781
101781
101781
101781
101782
101782
101782
101782
101782
101783
101783
101783
101783
101783
101784
101784
101784
101784
101784
101785
101785
101785
101785
101785
101786
101786
101786
101786
101786
101786
101786
101786
101787
101787
101787
101787
101787
101787
101787
101787
101787
101787
101787
101787
101787
101787
101787
101788
101788
101788
101788
101788
101788
101788
101788
101788
101788
101720
101720
101720
101720
101720
101720
101720
101720
101720
101720
101720
101720
101720
101720
101720
101720
101720
101720
101720
101720
101720
101720
101720
101720
101721
101721
101721
101721
101721
101721
101722
101722
101722
101722
101723
101723
101723
101723
101724
101724
101724
101724
101725
101725
101725
101725
101726
101726
101726
101726
101726
101727
101727
101727
101727
101727
101727
101728
101728
101728
101728
101728
101728
101728
101728
101728
101728
101728
101729
101729
101729
101729
101729
101729
101729
101729
101729
101729
101729
101729
101729
101729
101729
101729
101660
101660
101660
101660
101660
101660
101660
101660
101660
101660
101660
101660
101660
101660
101660
101660
101660
101660
101660
101660
101660
101660
101660
101660
101661
101661
101661
101661
101661
101662
101662
101662
101663
101663
101663
101663
101664
101664
101664
101665
101665
101665
101666
101666
101666
101666
101667
101667
101667
101667
101668
101668
101668
101668
101668
101668
101669
101669
101669
101669
101669
101669
101669
101669
101670
101670
101670
101670
101670
101670
101670
101670
101670
101670
101670
101670
101670
101670
101670
101670
101670
101670
101670
101670
101600
101600
101600
101600
101600
101599
101599
101599
101599
101599
101599
101599
101599
101599
101599
101599
101599
101599
101599
101600
101600
101600
101600
101600
101601
101601
101601
101601
101602
101602
101602
101603
101603
101603
101604
101604
101604
101605
101605
101605
101606
101606
101606
101607
101607
101607
101608
101608
101608
101608
101609
101609
101609
101609
101609
101610
101610
101610
101610
101610
101610
101611
101611
101611
101611
101611
101611
101611
101611
101611
101611
101611
101611
101611
101611
101612
101612
101612
101612
101612
101612
101612
101612
101612
101539
101539
101539
101539
101539
101539
101539
101539
101539
101539
101539
101539
101539
101539
101539
101539
101539
101539
101539
101539
101539
101540
101540
101540
101540
101541
101541
101541
101542
101542
101543
101543
101543
101544
101544
101545
101545
101545
101546
101546
101547
101547
101547
101548
101548
101548
101549
101549
101549
101550
101550
101550
101550
101550
101551
101551
101551
101551
101551
101552
101552
101552
101552
101552
101552
101552
101552
101552
101552
101553
101553
101553
101553
101553
101553
101553
101553
101553
101553
101553
101553
101553
101553
101553
101479
101479
101479
101479
101479
101479
101479
101478
101478
101478
101478
101478
101478
101479
101479
101478
101478
101479
101479
101479
101479
101479
101480
101480
101480
101481
101481
101482
101482
101482
101483
101483
101484
101484
101485
101485
101486
101486
101487
101487
101487
101488
101488
101489
101489
101489
101490
101490
101490
101491
101491
101491
101491
101492
101492
101492
101492
101492
101493
101493
101493
101493
101493
101493
101493
101494
101494
101494
101494
101494
101494
101494
101494
101494
101494
101494
101494
101494
101494
101494
101494
101494
101494
101494
101418
101418
101418
101418
101418
101418
101418
101418
101418
101418
101418
101418
101418
101418
101418
101418
101418
101418
101418
101419
101419
101419
101420
101420
101420
101421
101421
101422
101422
101423
101423
101424
101424
101425
101425
101426
101426
101427
101427
101428
101428
101429
101429
101430
101430
101430
101431
101431
101431
101432
101432
101432
101433
101433
101433
101433
101434
101434
101434
101434
101434
101434
101435
101435
101435
101435
101435
101435
101435
101435
101435
101435
101435
101435
101435
101436
101436
101436
101436
101436
101436
101436
101436
101436
101358
101358
101358
101358
101358
101358
101358
101358
101357
101357
101357
101357
101357
101357
101357
101357
101357
101358
101358
101358
101359
101359
101359
101360
101360
101361
101361
101362
101362
101363
101364
101364
101365
101365
101366
101366
101367
101368
101368
101369
101369
101370
101370
101371
101371
101371
101372
101372
101373
101373
101373
101374
101374
101374
101374
101375
101375
101375
101375
101375
101376
101376
101376
101376
101376
101376
101376
101376
101376
101377
101377
101377
101377
101377
101377
101377
101377
101377
101377
101377
101377
101377
101377
101377
101297
101297
101297
101297
101297
101297
101297
101297
101297
101297
101297
101297
101297
101297
101297
101297
101297
101297
101297
101298
101298
101299
101299
101300
101300
101301
101301
101302
101303
101303
101304
101304
101305
101306
101306
101307
101308
101308
101309
101309
101310
101311
101311
101312
101312
101312
101313
101313
101314
101314
101314
101315
101315
101315
101316
101316
101316
101316
101316
101317
101317
101317
101317
101317
101317
101317
101318
101318
101318
101318
101318
101318
101318
101318
101318
101318
101318
101318
101318
101318
101318
101318
101318
101318
101237
101237
101237
101237
101237
101237
101237
101236
101236
101236
101236
101236
101236
101237
101236
101236
101236
101236
101237
101237
101238
101238
101239
101239
101240
101241
101241
101242
101243
101243
101244
101245
101246
101246
101247
101248
101248
101249
101250
101250
101251
101251
101252
101253
101253
101254
101254
101254
101255
101255
101256
101256
101256
101257
101257
101257
101257
101258
101258
101258
101258
101258
101258
101259
101259
101259
101259
101259
101259
101259
101259
101259
101259
101259
101260
101260
101260
101260
101260
101260
101260
101260
101260
101260
101176
101176
101176
101176
101176
101176
101176
101176
101176
101176
101176
101176
101176
101176
101176
101176
101176
101176
101176
101177
101177
101178
101179
101179
101180
101181
101181
101182
101183
101184
101184
101185
101186
101187
101187
101188
101189
101190
101190
101191
101192
101192
101193
101194
101194
101195
101195
101196
101196
101196
101197
101197
101197
101198
101198
101198
101199
101199
101199
101199
101199
101200
101200
101200
101200
101200
101200
101200
101200
101201
101201
101201
101201
101201
101201
101201
101201
101201
101201
101201
101201
101201
101201
101201
101116
101116
101116
101116
101116
101116
101115
101115
101115
101115
101115
101115
101115
101116
101116
101116
101116
101116
101116
101116
101117
101118
101118
101119
101120
101120
101121
101122
101123
101124
101125
101126
101126
101127
101128
101129
101130
101130
101131
101132
101133
101133
101134
101135
101135
101136
101136
101137
101137
101138
101138
101138
101139
101139
101139
101140
101140
101140
101140
101141
101141
101141
101141
101141
101141
101142
101142
101142
101142
101142
101142
101142
101142
101142
101142
101142
101142
101142
101142
101142
101142
101142
101142
101142
101055
101055
101055
101055
101055
101055
101055
101055
101055
101055
101055
101055
101055
101055
101055
101055
101055
101056
101055
101056
101056
101057
101058
101059
101059
101060
101061
101062
101063
101064
101065
101066
101067
101068
101069
101070
101070
101071
101072
101073
101074
101074
101075
101076
101076
101077
101077
101078
101078
101079
101079
101080
101080
101080
101081
101081
101081
101081
101082
101082
101082
101082
101082
101083
101083
101083
101083
101083
101083
101083
101083
101083
101083
101084
101084
101084
101084
101084
101084
101084
101084
101084
101084
101084
100995
100995
100995
100995
100995
100994
100994
100994
100994
100994
100994
100994
100995
100995
100995
100995
100995
100995
100995
100995
100996
100997
100997
100998
100999
101000
101001
101002
101003
101004
101005
101006
101007
101008
101009
101010
101011
101012
101013
101014
101015
101015
101016
101017
101017
101018
101019
101019
101020
101020
101021
101021
101021
101022
101022
101022
101023
101023
101023
101023
101023
101024
101024
101024
101024
101024
101024
101024
101025
101025
101025
101025
101025
101025
101025
101025
101025
101025
101025
101025
101025
101025
101025
101025
100934
100934
100934
100934
100934
100934
100934
100934
100934
100934
100934
100934
100934
100934
100934
100934
100935
100935
100935
100935
100935
100936
100937
100938
100939
100940
100941
100942
100943
100944
100945
100947
100948
100949
100950
100951
100952
100953
100954
100955
100956
100956
100957
100958
100959
100959
100960
100960
100961
100961
100962
100962
100963
100963
100963
100964
100964
100964
100964
100965
100965
100965
100965
100965
100965
100966
100966
100966
100966
100966
100966
100966
100966
100966
100966
100966
100966
100966
100966
100967
100967
100967
100967
100967
100874
100874
100874
100874
100874
100874
100874
100874
100874
100874
100874
100874
100874
100874
100874
100874
100874
100874
100874
100874
100874
100875
100877
100878
100879
100880
100881
100882
100883
100885
100886
100887
100888
100889
100890
100892
100893
100894
100895
100896
100897
100897
100898
100899
100900
100900
100901
100902
100902
100903
100903
100904
100904
100904
100905
100905
100905
100906
100906
100906
100906
100906
100907
100907
100907
100907
100907
100907
100907
100907
100907
100908
100908
100908
100908
100908
100908
100908
100908
100908
100908
100908
100908
100908
100813
100813
100813
100813
100813
100813
100813
100813
100813
100813
100813
100813
100813
100813
100813
100813
100814
100814
100814
100814
100814
100815
100816
100817
100818
100820
100821
100822
100823
100825
100826
100827
100829
100830
100831
100832
100833
100835
100836
100837
100838
100839
100839
100840
100841
100842
100842
100843
100844
100844
100845
100845
100845
100846
100846
100846
100847
100847
100847
100847
100848
100848
100848
100848
100848
100848
100849
100849
100849
100849
100849