/*--------------------------------*- C++ -*----------------------------------*\
  =========                 |
  \\      /  F ield         | OpenFOAM: The Open Source CFD Toolbox
   \\    /   O peration     | Website:  https://openfoam.org
    \\  /    A nd           | Version:  6
     \\/     M anipulation  |
\*---------------------------------------------------------------------------*/
FoamFile
{
    version     2.0;
    format      ascii;
    class       volScalarField;
    location    "270";
    object      T;
}
// * * * * * * * * * * * * * * * * * * * * * * * * * * * * * * * * * * * * * //

dimensions      [0 0 0 1 0 0 0];

internalField   nonuniform List<scalar> 
5964
(
310.385
309.229
308.266
307.503
306.896
306.395
305.959
305.568
305.203
304.853
304.51
304.166
303.802
303.82
303.83
303.836
303.839
303.839
303.838
303.837
303.834
303.831
303.826
303.822
303.816
303.81
303.802
303.794
303.785
303.776
303.765
303.754
303.742
303.729
303.716
303.702
303.687
303.672
303.656
303.64
303.623
303.606
303.589
303.572
303.554
303.536
303.518
303.5
303.482
303.464
303.445
303.427
303.409
303.391
303.374
303.356
303.338
303.321
303.303
303.286
303.269
303.253
303.236
303.219
303.203
303.187
303.171
303.155
303.14
303.124
303.109
303.093
303.078
303.063
303.048
303.033
303.018
303.003
302.987
302.971
302.956
302.942
302.931
302.925
310.397
309.28
308.347
307.594
306.988
306.482
306.042
305.645
305.269
304.908
304.551
304.193
303.816
303.829
303.836
303.84
303.842
303.842
303.84
303.838
303.835
303.832
303.827
303.823
303.817
303.81
303.803
303.795
303.786
303.776
303.766
303.755
303.742
303.73
303.716
303.702
303.687
303.672
303.656
303.64
303.623
303.606
303.589
303.572
303.554
303.536
303.518
303.5
303.482
303.464
303.445
303.427
303.409
303.391
303.374
303.356
303.338
303.321
303.303
303.286
303.269
303.253
303.236
303.219
303.203
303.187
303.171
303.155
303.14
303.124
303.109
303.093
303.078
303.063
303.048
303.033
303.018
303.003
302.987
302.972
302.956
302.943
302.932
302.925
310.431
309.372
308.473
307.735
307.131
306.622
306.174
305.765
305.374
304.995
304.618
304.237
303.839
303.844
303.847
303.848
303.847
303.846
303.844
303.841
303.838
303.834
303.83
303.825
303.819
303.812
303.805
303.796
303.787
303.778
303.767
303.755
303.743
303.73
303.717
303.703
303.688
303.672
303.657
303.64
303.624
303.607
303.589
303.572
303.554
303.536
303.518
303.5
303.482
303.464
303.446
303.427
303.409
303.391
303.374
303.356
303.338
303.321
303.304
303.286
303.269
303.253
303.236
303.219
303.203
303.187
303.171
303.155
303.14
303.124
303.109
303.093
303.078
303.063
303.048
303.033
303.018
303.003
302.988
302.972
302.957
302.944
302.932
302.922
310.469
309.474
308.614
307.895
307.296
306.783
306.324
305.9
305.494
305.095
304.695
304.289
303.868
303.864
303.861
303.858
303.855
303.852
303.849
303.845
303.842
303.838
303.833
303.828
303.822
303.815
303.807
303.799
303.789
303.779
303.769
303.757
303.745
303.732
303.718
303.703
303.689
303.673
303.657
303.641
303.624
303.607
303.59
303.572
303.554
303.536
303.518
303.5
303.482
303.464
303.446
303.428
303.409
303.391
303.374
303.356
303.338
303.321
303.304
303.286
303.269
303.253
303.236
303.219
303.203
303.187
303.171
303.155
303.14
303.124
303.109
303.093
303.078
303.063
303.048
303.033
303.018
303.003
302.988
302.973
302.958
302.944
302.927
302.901
310.506
309.568
308.742
308.041
307.451
306.937
306.47
306.035
305.614
305.197
304.772
304.34
303.897
303.885
303.876
303.869
303.864
303.859
303.855
303.851
303.847
303.842
303.837
303.832
303.825
303.818
303.81
303.802
303.792
303.782
303.771
303.759
303.746
303.733
303.719
303.705
303.69
303.674
303.658
303.641
303.625
303.607
303.59
303.572
303.555
303.537
303.518
303.5
303.482
303.464
303.446
303.428
303.41
303.392
303.374
303.356
303.338
303.321
303.304
303.286
303.269
303.253
303.236
303.22
303.203
303.187
303.171
303.155
303.14
303.124
303.109
303.093
303.078
303.063
303.048
303.033
303.018
303.003
302.988
302.974
302.959
302.944
302.915
302.845
310.537
309.648
308.852
308.168
307.586
307.071
306.598
306.15
305.713
305.278
304.836
304.385
303.924
303.904
303.89
303.88
303.873
303.867
303.862
303.857
303.853
303.848
303.843
303.837
303.83
303.822
303.814
303.805
303.795
303.785
303.773
303.761
303.748
303.735
303.721
303.706
303.691
303.675
303.659
303.642
303.625
303.608
303.591
303.573
303.555
303.537
303.519
303.501
303.482
303.464
303.446
303.428
303.41
303.392
303.374
303.356
303.338
303.321
303.304
303.286
303.269
303.253
303.236
303.22
303.203
303.187
303.171
303.155
303.14
303.124
303.109
303.093
303.078
303.063
303.048
303.033
303.018
303.004
302.989
302.974
302.961
302.947
302.931
302.906
310.555
309.704
308.938
308.269
307.691
307.175
306.7
306.245
305.798
305.347
304.887
304.419
303.945
303.92
303.903
303.891
303.882
303.875
303.87
303.865
303.86
303.855
303.849
303.843
303.836
303.828
303.819
303.81
303.799
303.788
303.776
303.764
303.751
303.737
303.723
303.708
303.692
303.676
303.66
303.643
303.626
303.609
303.591
303.573
303.555
303.537
303.519
303.501
303.483
303.464
303.446
303.428
303.41
303.392
303.374
303.356
303.338
303.321
303.304
303.287
303.27
303.253
303.236
303.22
303.203
303.187
303.171
303.155
303.14
303.124
303.109
303.093
303.078
303.063
303.048
303.033
303.019
303.004
302.989
302.975
302.962
302.95
302.94
302.931
310.576
309.758
309.009
308.348
307.769
307.246
306.76
306.298
305.845
305.39
304.922
304.444
303.96
303.932
303.912
303.899
303.89
303.883
303.878
303.873
303.868
303.863
303.857
303.85
303.842
303.834
303.825
303.815
303.804
303.792
303.78
303.767
303.754
303.74
303.725
303.71
303.694
303.678
303.661
303.644
303.627
303.609
303.592
303.574
303.556
303.538
303.519
303.501
303.483
303.464
303.446
303.428
303.41
303.392
303.374
303.356
303.339
303.321
303.304
303.287
303.27
303.253
303.236
303.22
303.203
303.187
303.171
303.155
303.14
303.124
303.109
303.093
303.078
303.063
303.048
303.033
303.019
303.004
302.99
302.975
302.962
302.951
302.942
302.936
310.587
309.789
309.056
308.397
307.807
307.27
306.776
306.31
305.857
305.402
304.935
304.454
303.966
303.937
303.918
303.905
303.897
303.892
303.887
303.882
303.878
303.872
303.866
303.858
303.85
303.841
303.831
303.821
303.809
303.797
303.784
303.771
303.757
303.742
303.727
303.712
303.696
303.679
303.663
303.645
303.628
303.61
303.593
303.574
303.556
303.538
303.52
303.501
303.483
303.465
303.446
303.428
303.41
303.392
303.374
303.356
303.339
303.321
303.304
303.287
303.27
303.253
303.236
303.22
303.203
303.187
303.171
303.155
303.14
303.124
303.109
303.093
303.078
303.063
303.048
303.034
303.019
303.004
302.99
302.976
302.963
302.951
302.941
302.935
310.593
309.805
309.076
308.414
307.811
307.261
306.758
306.291
305.843
305.394
304.93
304.451
303.964
303.936
303.918
303.909
303.904
303.9
303.897
303.893
303.888
303.883
303.876
303.868
303.859
303.849
303.839
303.827
303.815
303.803
303.789
303.775
303.761
303.746
303.73
303.714
303.698
303.681
303.664
303.647
303.629
303.611
303.593
303.575
303.557
303.539
303.52
303.502
303.483
303.465
303.447
303.428
303.41
303.392
303.374
303.356
303.339
303.321
303.304
303.287
303.27
303.253
303.236
303.22
303.203
303.187
303.171
303.155
303.14
303.124
303.109
303.094
303.078
303.063
303.048
303.034
303.019
303.004
302.99
302.976
302.962
302.95
302.937
302.927
310.598
309.814
309.08
308.404
307.782
307.217
306.709
306.243
305.804
305.364
304.908
304.436
303.953
303.926
303.913
303.91
303.909
303.909
303.908
303.905
303.901
303.895
303.888
303.879
303.869
303.859
303.847
303.835
303.822
303.809
303.794
303.78
303.765
303.749
303.733
303.717
303.7
303.683
303.666
303.648
303.63
303.612
303.594
303.576
303.558
303.539
303.521
303.502
303.484
303.465
303.447
303.429
303.41
303.392
303.374
303.357
303.339
303.321
303.304
303.287
303.27
303.253
303.236
303.22
303.203
303.187
303.171
303.155
303.14
303.124
303.109
303.094
303.078
303.063
303.048
303.034
303.019
303.004
302.99
302.976
302.962
302.946
302.928
302.909
310.598
309.81
309.061
308.363
307.721
307.149
306.64
306.177
305.745
305.319
304.875
304.412
303.934
303.904
303.902
303.909
303.916
303.921
303.922
303.92
303.916
303.909
303.901
303.892
303.881
303.869
303.857
303.843
303.83
303.815
303.8
303.785
303.769
303.753
303.736
303.72
303.703
303.685
303.668
303.65
303.632
303.613
303.595
303.577
303.558
303.54
303.521
303.503
303.484
303.466
303.447
303.429
303.411
303.393
303.375
303.357
303.339
303.321
303.304
303.287
303.27
303.253
303.236
303.22
303.204
303.187
303.171
303.156
303.14
303.124
303.109
303.094
303.078
303.063
303.049
303.034
303.019
303.004
302.99
302.976
302.961
302.943
302.919
302.891
310.594
309.794
309.024
308.3
307.639
307.062
306.558
306.106
305.686
305.273
304.842
304.387
303.906
303.858
303.883
303.909
303.927
303.936
303.94
303.938
303.933
303.926
303.917
303.906
303.894
303.881
303.867
303.853
303.838
303.822
303.806
303.79
303.774
303.757
303.74
303.723
303.705
303.687
303.669
303.651
303.633
303.615
303.596
303.578
303.559
303.54
303.522
303.503
303.484
303.466
303.447
303.429
303.411
303.393
303.375
303.357
303.339
303.322
303.304
303.287
303.27
303.253
303.236
303.22
303.204
303.187
303.171
303.156
303.14
303.124
303.109
303.094
303.079
303.063
303.049
303.034
303.019
303.004
302.99
302.976
302.961
302.945
302.926
302.907
310.582
309.757
308.966
308.225
307.554
306.973
306.475
306.038
305.636
305.24
304.824
304.373
303.876
303.747
303.862
303.918
303.946
303.959
303.962
303.96
303.954
303.945
303.934
303.922
303.908
303.893
303.878
303.862
303.846
303.83
303.813
303.796
303.779
303.761
303.744
303.726
303.708
303.69
303.671
303.653
303.635
303.616
303.597
303.579
303.56
303.541
303.522
303.504
303.485
303.466
303.448
303.429
303.411
303.393
303.375
303.357
303.339
303.322
303.304
303.287
303.27
303.253
303.237
303.22
303.204
303.188
303.172
303.156
303.14
303.124
303.109
303.094
303.079
303.064
303.049
303.034
303.019
303.004
302.99
302.976
302.962
302.948
302.934
302.924
310.569
309.72
308.909
308.158
307.492
306.927
306.445
306.016
305.617
305.228
304.826
304.382
303.887
303.767
303.89
303.95
303.978
303.99
303.991
303.987
303.978
303.967
303.954
303.939
303.923
303.907
303.89
303.873
303.855
303.838
303.82
303.802
303.784
303.766
303.747
303.729
303.711
303.692
303.673
303.655
303.636
303.617
303.598
303.579
303.561
303.542
303.523
303.504
303.485
303.467
303.448
303.43
303.411
303.393
303.375
303.357
303.34
303.322
303.305
303.287
303.27
303.253
303.237
303.22
303.204
303.188
303.172
303.156
303.14
303.124
303.109
303.094
303.079
303.064
303.049
303.034
303.019
303.004
302.99
302.976
302.962
302.949
302.939
302.932
310.558
309.689
308.863
308.11
307.456
306.908
306.445
306.036
305.644
305.248
304.842
304.404
303.932
303.918
303.969
304.007
304.025
304.03
304.027
304.018
304.006
303.991
303.975
303.958
303.94
303.922
303.903
303.884
303.865
303.846
303.827
303.808
303.789
303.77
303.751
303.733
303.714
303.695
303.676
303.657
303.638
303.619
303.599
303.58
303.561
303.542
303.523
303.505
303.486
303.467
303.448
303.43
303.412
303.393
303.375
303.357
303.34
303.322
303.305
303.287
303.27
303.254
303.237
303.22
303.204
303.188
303.172
303.156
303.14
303.125
303.109
303.094
303.079
303.064
303.049
303.034
303.019
303.004
302.99
302.976
302.962
302.95
302.94
302.934
310.549
309.664
308.832
308.093
307.463
306.946
306.511
306.12
305.737
305.34
304.914
304.445
303.939
303.996
304.049
304.075
304.083
304.078
304.068
304.053
304.036
304.018
303.999
303.978
303.958
303.937
303.916
303.896
303.875
303.855
303.835
303.815
303.795
303.775
303.755
303.736
303.716
303.697
303.678
303.658
303.639
303.62
303.601
303.581
303.562
303.543
303.524
303.505
303.486
303.468
303.449
303.43
303.412
303.394
303.376
303.358
303.34
303.322
303.305
303.288
303.271
303.254
303.237
303.22
303.204
303.188
303.172
303.156
303.14
303.125
303.109
303.094
303.079
303.064
303.049
303.034
303.019
303.005
302.99
302.976
302.962
302.949
302.94
302.934
310.545
309.657
308.837
308.12
307.523
307.042
306.637
306.267
305.892
305.488
305.036
304.51
303.802
304.053
304.133
304.152
304.147
304.132
304.113
304.092
304.07
304.047
304.023
304
303.976
303.953
303.93
303.908
303.885
303.864
303.842
303.821
303.8
303.78
303.759
303.739
303.719
303.7
303.68
303.66
303.641
303.621
303.602
303.582
303.563
303.544
303.525
303.506
303.487
303.468
303.449
303.431
303.412
303.394
303.376
303.358
303.34
303.323
303.305
303.288
303.271
303.254
303.237
303.221
303.204
303.188
303.172
303.156
303.14
303.125
303.109
303.094
303.079
303.064
303.049
303.034
303.019
303.004
302.99
302.976
302.961
302.949
302.938
302.932
310.547
309.664
308.858
308.171
307.617
307.181
306.807
306.461
306.098
305.695
305.238
304.725
304.208
304.23
304.251
304.241
304.218
304.19
304.161
304.133
304.104
304.077
304.049
304.022
303.995
303.969
303.944
303.919
303.896
303.872
303.85
303.827
303.806
303.784
303.763
303.743
303.722
303.702
303.682
303.662
303.642
303.623
303.603
303.583
303.564
303.545
303.525
303.506
303.487
303.468
303.45
303.431
303.413
303.394
303.376
303.358
303.34
303.323
303.305
303.288
303.271
303.254
303.237
303.221
303.204
303.188
303.172
303.156
303.14
303.125
303.109
303.094
303.079
303.064
303.049
303.034
303.019
303.004
302.99
302.975
302.961
302.947
302.936
302.93
310.548
309.681
308.907
308.261
307.751
307.356
307.011
306.691
306.34
305.94
305.477
304.929
304.153
304.366
304.373
304.335
304.291
304.249
304.211
304.175
304.14
304.107
304.075
304.044
304.014
303.986
303.958
303.931
303.906
303.881
303.857
303.834
303.811
303.789
303.767
303.746
303.725
303.705
303.684
303.664
303.644
303.624
303.604
303.584
303.565
303.545
303.526
303.507
303.488
303.469
303.45
303.432
303.413
303.395
303.376
303.358
303.341
303.323
303.306
303.288
303.271
303.254
303.237
303.221
303.204
303.188
303.172
303.156
303.141
303.125
303.109
303.094
303.079
303.064
303.049
303.034
303.019
303.004
302.99
302.975
302.96
302.946
302.934
302.927
310.562
309.721
308.979
308.375
307.907
307.552
307.237
306.943
306.607
306.212
305.757
305.265
304.809
304.633
304.516
304.43
304.363
304.308
304.26
304.217
304.176
304.138
304.101
304.066
304.033
304.002
303.971
303.943
303.915
303.889
303.864
303.84
303.816
303.793
303.771
303.749
303.728
303.707
303.686
303.666
303.645
303.625
303.605
303.586
303.566
303.546
303.527
303.508
303.488
303.469
303.451
303.432
303.413
303.395
303.377
303.359
303.341
303.323
303.306
303.288
303.271
303.254
303.238
303.221
303.205
303.188
303.172
303.156
303.141
303.125
303.11
303.094
303.079
303.064
303.049
303.034
303.019
303.004
302.989
302.974
302.959
302.945
302.932
302.925
310.579
309.774
309.077
308.518
308.085
307.754
307.47
307.201
306.877
306.487
306.038
305.565
305.134
304.819
304.628
304.51
304.428
304.364
304.308
304.258
304.211
304.168
304.126
304.088
304.051
304.017
303.984
303.954
303.925
303.897
303.871
303.845
303.821
303.798
303.775
303.752
303.731
303.709
303.688
303.667
303.647
303.627
303.607
303.587
303.567
303.547
303.528
303.508
303.489
303.47
303.451
303.432
303.414
303.395
303.377
303.359
303.341
303.324
303.306
303.289
303.272
303.255
303.238
303.221
303.205
303.189
303.172
303.157
303.141
303.125
303.11
303.094
303.079
303.064
303.049
303.034
303.019
303.004
302.989
302.974
302.959
302.944
302.931
302.923
310.607
309.855
309.201
308.676
308.275
307.972
307.715
307.447
307.128
306.739
306.284
305.786
305.294
304.886
304.68
304.565
304.484
304.416
304.354
304.298
304.245
304.196
304.151
304.108
304.068
304.031
303.996
303.964
303.933
303.904
303.877
303.851
303.826
303.801
303.778
303.755
303.733
303.711
303.69
303.669
303.648
303.628
303.608
303.588
303.568
303.548
303.528
303.509
303.49
303.471
303.452
303.433
303.414
303.396
303.378
303.36
303.342
303.324
303.306
303.289
303.272
303.255
303.238
303.221
303.205
303.189
303.173
303.157
303.141
303.125
303.11
303.094
303.079
303.064
303.049
303.034
303.019
303.004
302.989
302.974
302.958
302.942
302.929
302.921
310.629
309.926
309.319
308.829
308.457
308.175
307.93
307.665
307.351
306.964
306.498
305.954
305.352
304.774
304.661
304.598
304.533
304.465
304.399
304.336
304.278
304.223
304.173
304.126
304.083
304.044
304.007
303.973
303.941
303.911
303.882
303.855
303.83
303.805
303.781
303.758
303.736
303.714
303.692
303.671
303.65
303.629
303.609
303.589
303.569
303.549
303.529
303.51
303.49
303.471
303.452
303.433
303.415
303.396
303.378
303.36
303.342
303.324
303.307
303.289
303.272
303.255
303.238
303.222
303.205
303.189
303.173
303.157
303.141
303.125
303.11
303.095
303.079
303.064
303.049
303.034
303.019
303.004
302.989
302.973
302.957
302.942
302.928
302.92
310.651
309.996
309.435
308.984
308.637
308.372
308.126
307.854
307.534
307.142
306.67
306.101
305.377
304.261
304.61
304.641
304.59
304.518
304.444
304.373
304.308
304.248
304.193
304.143
304.097
304.055
304.016
303.98
303.947
303.916
303.887
303.859
303.833
303.808
303.784
303.76
303.738
303.716
303.694
303.672
303.651
303.631
303.61
303.59
303.57
303.55
303.53
303.511
303.491
303.472
303.453
303.434
303.415
303.397
303.378
303.36
303.342
303.325
303.307
303.29
303.272
303.255
303.239
303.222
303.205
303.189
303.173
303.157
303.141
303.126
303.11
303.095
303.079
303.064
303.049
303.034
303.019
303.004
302.989
302.973
302.957
302.942
302.929
302.921
310.676
310.069
309.552
309.135
308.807
308.55
308.294
308.008
307.673
307.272
306.806
306.266
305.647
304.973
304.856
304.765
304.67
304.576
304.488
304.407
304.334
304.269
304.21
304.156
304.108
304.064
304.024
303.987
303.952
303.921
303.891
303.863
303.836
303.811
303.786
303.763
303.74
303.717
303.695
303.674
303.653
303.632
303.611
303.591
303.571
303.551
303.531
303.511
303.492
303.473
303.454
303.435
303.416
303.397
303.379
303.361
303.343
303.325
303.307
303.29
303.273
303.256
303.239
303.222
303.206
303.189
303.173
303.157
303.141
303.126
303.11
303.095
303.079
303.064
303.049
303.034
303.019
303.004
302.989
302.974
302.958
302.944
302.931
302.924
310.703
310.146
309.668
309.278
308.959
308.692
308.412
308.105
307.753
307.347
306.89
306.385
305.849
305.35
305.081
304.897
304.753
304.633
304.528
304.437
304.356
304.285
304.222
304.166
304.116
304.07
304.029
303.991
303.956
303.924
303.894
303.865
303.839
303.813
303.788
303.765
303.742
303.719
303.697
303.675
303.654
303.633
303.613
303.592
303.572
303.552
303.532
303.512
303.493
303.473
303.454
303.435
303.417
303.398
303.38
303.361
303.343
303.325
303.308
303.29
303.273
303.256
303.239
303.223
303.206
303.19
303.173
303.157
303.142
303.126
303.11
303.095
303.08
303.064
303.049
303.034
303.019
303.004
302.989
302.975
302.96
302.946
302.934
302.927
310.728
310.215
309.768
309.396
309.081
308.798
308.495
308.161
307.786
307.368
306.914
306.435
305.959
305.534
305.228
304.998
304.821
304.679
304.56
304.459
304.372
304.297
304.231
304.173
304.121
304.074
304.032
303.994
303.959
303.926
303.896
303.867
303.84
303.815
303.79
303.766
303.743
303.721
303.699
303.677
303.656
303.635
303.614
303.593
303.573
303.553
303.533
303.513
303.494
303.474
303.455
303.436
303.417
303.399
303.38
303.362
303.344
303.326
303.308
303.291
303.274
303.256
303.24
303.223
303.206
303.19
303.174
303.158
303.142
303.126
303.111
303.095
303.08
303.065
303.049
303.034
303.02
303.005
302.99
302.975
302.961
302.948
302.935
302.924
310.751
310.28
309.862
309.492
309.165
308.848
308.507
308.136
307.737
307.311
306.866
306.415
305.984
305.607
305.302
305.057
304.863
304.707
304.579
304.471
304.38
304.302
304.234
304.174
304.122
304.075
304.033
303.995
303.96
303.927
303.897
303.869
303.842
303.816
303.792
303.768
303.745
303.722
303.7
303.678
303.657
303.636
303.615
303.595
303.574
303.554
303.534
303.514
303.495
303.475
303.456
303.437
303.418
303.399
303.381
303.362
303.344
303.326
303.309
303.291
303.274
303.257
303.24
303.223
303.207
303.19
303.174
303.158
303.142
303.126
303.111
303.095
303.08
303.065
303.05
303.035
303.02
303.005
302.99
302.976
302.962
302.947
302.929
302.905
310.771
310.33
309.924
309.552
309.203
308.846
308.461
308.054
307.633
307.205
306.775
306.357
305.963
305.615
305.321
305.075
304.877
304.715
304.582
304.472
304.379
304.299
304.231
304.172
304.119
304.073
304.031
303.994
303.959
303.927
303.897
303.869
303.843
303.817
303.793
303.769
303.746
303.724
303.702
303.68
303.658
303.637
303.616
303.596
303.575
303.555
303.535
303.515
303.495
303.476
303.457
303.438
303.419
303.4
303.381
303.363
303.345
303.327
303.309
303.292
303.274
303.257
303.24
303.223
303.207
303.19
303.174
303.158
303.142
303.126
303.111
303.095
303.08
303.065
303.05
303.035
303.02
303.005
302.99
302.976
302.962
302.945
302.918
302.87
310.783
310.363
309.962
309.573
309.176
308.765
308.333
307.89
307.453
307.032
306.624
306.235
305.881
305.569
305.294
305.057
304.862
304.701
304.569
304.459
304.367
304.289
304.222
304.164
304.113
304.068
304.027
303.991
303.957
303.926
303.897
303.869
303.843
303.818
303.794
303.77
303.747
303.725
303.703
303.681
303.66
303.639
303.618
303.597
303.577
303.556
303.536
303.516
303.497
303.477
303.458
303.438
303.419
303.401
303.382
303.364
303.346
303.328
303.31
303.292
303.275
303.258
303.241
303.224
303.207
303.191
303.174
303.158
303.142
303.127
303.111
303.096
303.08
303.065
303.05
303.035
303.02
303.005
302.99
302.976
302.962
302.948
302.93
302.906
310.788
310.36
309.932
309.512
309.064
308.6
308.128
307.674
307.247
306.846
306.464
306.098
305.769
305.484
305.228
305.005
304.82
304.666
304.539
304.434
304.346
304.271
304.207
304.152
304.103
304.06
304.021
303.986
303.954
303.924
303.896
303.869
303.843
303.819
303.795
303.772
303.749
303.727
303.705
303.683
303.662
303.64
303.619
303.599
303.578
303.558
303.538
303.518
303.498
303.478
303.459
303.439
303.42
303.401
303.383
303.364
303.346
303.328
303.31
303.293
303.275
303.258
303.241
303.224
303.208
303.191
303.175
303.159
303.143
303.127
303.111
303.096
303.08
303.065
303.05
303.035
303.02
303.005
302.99
302.976
302.962
302.949
302.937
302.926
310.784
310.343
309.878
309.389
308.875
308.355
307.856
307.4
306.992
306.617
306.267
305.933
305.631
305.367
305.131
304.925
304.753
304.611
304.494
304.396
304.314
304.245
304.186
304.135
304.09
304.05
304.014
303.981
303.95
303.921
303.894
303.868
303.843
303.819
303.796
303.773
303.75
303.728
303.706
303.685
303.663
303.642
303.621
303.6
303.58
303.559
303.539
303.519
303.499
303.479
303.46
303.44
303.421
303.402
303.384
303.365
303.347
303.329
303.311
303.293
303.276
303.259
303.241
303.225
303.208
303.191
303.175
303.159
303.143
303.127
303.111
303.096
303.081
303.065
303.05
303.035
303.02
303.005
302.99
302.976
302.962
302.949
302.936
302.925
310.77
310.292
309.767
309.191
308.615
308.053
307.543
307.105
306.731
306.394
306.073
305.76
305.472
305.223
305.004
304.817
304.663
304.537
304.433
304.347
304.275
304.213
304.161
304.115
304.074
304.038
304.005
303.974
303.945
303.918
303.892
303.867
303.843
303.82
303.797
303.774
303.752
303.73
303.708
303.687
303.665
303.644
303.623
303.602
303.581
303.561
303.541
303.52
303.5
303.481
303.461
303.442
303.422
303.403
303.385
303.366
303.348
303.329
303.312
303.294
303.276
303.259
303.242
303.225
303.208
303.192
303.175
303.159
303.143
303.127
303.112
303.096
303.081
303.065
303.05
303.035
303.02
303.005
302.99
302.976
302.962
302.947
302.929
302.904
310.744
310.214
309.626
308.959
308.317
307.727
307.219
306.806
306.465
306.163
305.867
305.567
305.288
305.048
304.847
304.683
304.553
304.447
304.361
304.289
304.228
304.176
304.131
304.092
304.057
304.024
303.995
303.967
303.94
303.915
303.891
303.867
303.844
303.821
303.798
303.776
303.754
303.732
303.71
303.689
303.667
303.646
303.625
303.604
303.583
303.563
303.542
303.522
303.502
303.482
303.462
303.443
303.423
303.404
303.385
303.367
303.348
303.33
303.312
303.294
303.277
303.26
303.242
303.225
303.209
303.192
303.176
303.159
303.143
303.128
303.112
303.096
303.081
303.065
303.05
303.035
303.02
303.005
302.991
302.976
302.961
302.944
302.915
302.862
310.717
310.127
309.474
308.732
308.023
307.405
306.904
306.518
306.208
305.938
305.661
305.363
305.076
304.833
304.655
304.523
304.424
304.344
304.278
304.223
304.176
304.136
304.1
304.067
304.038
304.011
303.985
303.96
303.936
303.912
303.889
303.867
303.844
303.822
303.8
303.778
303.756
303.734
303.713
303.691
303.67
303.648
303.627
303.606
303.585
303.565
303.544
303.524
303.503
303.483
303.464
303.444
303.425
303.405
303.386
303.368
303.349
303.331
303.313
303.295
303.277
303.26
303.243
303.226
303.209
303.192
303.176
303.16
303.144
303.128
303.112
303.096
303.081
303.066
303.05
303.035
303.02
303.005
302.991
302.976
302.962
302.946
302.92
302.876
310.69
310.039
309.321
308.529
307.788
307.159
306.655
306.273
305.975
305.721
305.459
305.153
304.833
304.555
304.419
304.339
304.28
304.231
304.189
304.153
304.122
304.093
304.067
304.043
304.02
303.997
303.975
303.953
303.932
303.91
303.889
303.867
303.846
303.824
303.802
303.781
303.759
303.737
303.716
303.694
303.672
303.651
303.63
303.609
303.588
303.567
303.546
303.525
303.505
303.485
303.465
303.445
303.426
303.407
303.387
303.369
303.35
303.332
303.314
303.296
303.278
303.261
303.243
303.226
303.209
303.193
303.176
303.16
303.144
303.128
303.112
303.097
303.081
303.066
303.051
303.035
303.02
303.005
302.991
302.976
302.962
302.945
302.914
302.851
310.66
309.947
309.165
308.326
307.564
306.951
306.482
306.12
305.825
305.559
305.283
304.949
304.549
304.147
304.133
304.14
304.131
304.115
304.098
304.083
304.067
304.052
304.036
304.02
304.003
303.985
303.967
303.949
303.929
303.909
303.889
303.869
303.848
303.827
303.805
303.784
303.762
303.74
303.719
303.697
303.675
303.654
303.632
303.611
303.59
303.569
303.548
303.527
303.507
303.487
303.467
303.447
303.427
303.408
303.389
303.37
303.351
303.333
303.314
303.296
303.279
303.261
303.244
303.227
303.21
303.193
303.177
303.16
303.144
303.128
303.112
303.097
303.081
303.066
303.051
303.035
303.02
303.005
302.991
302.976
302.962
302.947
302.929
302.903
310.632
309.868
309.049
308.191
307.419
306.823
306.386
306.048
305.764
305.491
305.193
304.815
304.252
303.382
303.837
303.955
303.989
304.001
304.008
304.013
304.015
304.013
304.008
304
303.989
303.976
303.962
303.946
303.928
303.91
303.891
303.871
303.851
303.83
303.809
303.787
303.766
303.744
303.722
303.701
303.679
303.657
303.635
303.614
303.593
303.571
303.55
303.529
303.509
303.488
303.468
303.448
303.428
303.409
303.39
303.371
303.352
303.333
303.315
303.297
303.279
303.262
303.244
303.227
303.21
303.194
303.177
303.161
303.144
303.128
303.113
303.097
303.081
303.066
303.051
303.036
303.021
303.006
302.991
302.976
302.962
302.949
302.936
302.926
310.601
309.779
308.922
308.075
307.341
306.786
306.387
306.086
305.823
305.554
305.251
304.887
304.427
303.905
303.849
303.842
303.861
303.89
303.92
303.946
303.966
303.979
303.984
303.984
303.979
303.971
303.959
303.946
303.93
303.913
303.895
303.875
303.855
303.835
303.814
303.792
303.77
303.748
303.727
303.704
303.682
303.661
303.639
303.617
303.595
303.574
303.553
303.532
303.511
303.49
303.47
303.45
303.43
303.41
303.391
303.372
303.353
303.334
303.316
303.298
303.28
303.262
303.245
303.228
303.211
303.194
303.177
303.161
303.145
303.129
303.113
303.097
303.082
303.066
303.051
303.036
303.021
303.006
302.991
302.976
302.962
302.949
302.938
302.931
310.577
309.717
308.846
308.021
307.33
306.828
306.484
306.232
306.01
305.768
305.483
305.142
304.744
304.298
303.814
303.682
303.707
303.769
303.829
303.881
303.922
303.95
303.967
303.975
303.975
303.97
303.961
303.949
303.934
303.918
303.9
303.881
303.861
303.841
303.819
303.798
303.776
303.753
303.731
303.709
303.687
303.664
303.642
303.62
303.598
303.577
303.555
303.534
303.513
303.492
303.472
303.451
303.431
303.412
303.392
303.373
303.354
303.335
303.317
303.299
303.281
303.263
303.245
303.228
303.211
303.194
303.178
303.161
303.145
303.129
303.113
303.097
303.082
303.066
303.051
303.036
303.021
303.006
302.991
302.976
302.962
302.949
302.938
302.932
310.556
309.662
308.783
307.99
307.363
306.929
306.646
306.449
306.282
306.083
305.836
305.533
305.176
304.737
304.17
303.312
303.486
303.635
303.737
303.82
303.884
303.93
303.958
303.972
303.977
303.974
303.967
303.956
303.942
303.926
303.908
303.889
303.869
303.848
303.826
303.804
303.782
303.759
303.736
303.714
303.691
303.668
303.646
303.624
303.602
303.58
303.558
303.536
303.515
303.494
303.474
303.453
303.433
303.413
303.393
303.374
303.355
303.336
303.318
303.299
303.281
303.264
303.246
303.229
303.212
303.195
303.178
303.162
303.145
303.129
303.113
303.097
303.082
303.066
303.051
303.036
303.021
303.006
302.991
302.977
302.962
302.949
302.937
302.931
310.54
309.625
308.753
308.003
307.437
307.072
306.849
306.709
306.6
306.461
306.264
306.012
305.685
305.249
304.697
304.017
303.253
303.532
303.655
303.765
303.856
303.92
303.959
303.979
303.987
303.985
303.978
303.967
303.953
303.937
303.918
303.899
303.878
303.856
303.834
303.811
303.788
303.765
303.742
303.719
303.696
303.673
303.65
303.627
303.605
303.583
303.561
303.539
303.518
303.496
303.476
303.455
303.435
303.415
303.395
303.375
303.356
303.337
303.319
303.3
303.282
303.264
303.247
303.229
303.212
303.195
303.178
303.162
303.145
303.129
303.113
303.098
303.082
303.066
303.051
303.036
303.021
303.006
302.991
302.976
302.962
302.948
302.935
302.928
310.533
309.613
308.759
308.049
307.546
307.238
307.071
306.988
306.924
306.857
306.714
306.51
306.213
305.795
305.269
304.669
304.129
303.587
303.588
303.721
303.843
303.926
303.974
303.997
304.005
304.003
303.996
303.983
303.968
303.95
303.931
303.91
303.888
303.866
303.843
303.819
303.796
303.772
303.748
303.725
303.701
303.678
303.654
303.631
303.609
303.586
303.564
303.542
303.52
303.499
303.478
303.457
303.436
303.416
303.396
303.377
303.357
303.338
303.32
303.301
303.283
303.265
303.247
303.23
303.212
303.195
303.179
303.162
303.146
303.129
303.113
303.098
303.082
303.066
303.051
303.036
303.021
303.006
302.991
302.976
302.961
302.946
302.932
302.923
310.529
309.612
308.785
308.13
307.684
307.424
307.304
307.267
307.239
307.23
307.144
306.979
306.72
306.328
305.814
305.159
304.319
303.161
303.417