/*--------------------------------*- C++ -*----------------------------------*\
  =========                 |
  \\      /  F ield         | OpenFOAM: The Open Source CFD Toolbox
   \\    /   O peration     | Website:  https://openfoam.org
    \\  /    A nd           | Version:  6
     \\/     M anipulation  |
\*---------------------------------------------------------------------------*/
FoamFile
{
    version     2.0;
    format      ascii;
    class       volScalarField;
    location    "2800";
    object      T;
}
// * * * * * * * * * * * * * * * * * * * * * * * * * * * * * * * * * * * * * //

dimensions      [0 0 0 1 0 0 0];

internalField   nonuniform List<scalar> 
4800
(
552.513
552.44
552.369
552.3
552.234
552.171
552.111
552.052
551.994
551.938
551.884
551.832
551.782
551.733
551.686
551.64
551.595
551.55
551.506
551.462
551.418
551.374
551.331
551.287
551.243
551.199
551.154
551.109
551.064
551.019
550.973
550.926
550.88
550.833
550.786
550.739
550.693
550.646
550.599
550.552
550.506
550.459
550.412
550.365
550.317
550.27
550.222
550.174
550.127
550.08
550.033
549.986
549.939
549.893
549.846
549.8
549.753
549.706
549.659
549.611
549.561
549.51
549.458
549.403
549.344
549.282
549.215
549.141
549.059
548.965
548.856
548.728
548.576
548.394
548.176
547.915
547.607
547.247
546.838
546.385
545.895
545.381
544.853
544.749
544.637
544.522
544.407
544.292
544.177
544.063
543.948
543.834
543.719
543.605
543.491
543.377
543.263
543.149
543.034
542.92
542.806
542.691
542.576
542.462
542.347
542.232
542.117
542.001
541.886
541.77
541.654
541.539
541.423
541.306
541.19
541.074
540.958
540.841
540.725
540.608
552.512
552.437
552.364
552.294
552.225
552.16
552.097
552.036
551.978
551.921
551.866
551.814
551.763
551.715
551.667
551.621
551.576
551.532
551.488
551.444
551.4
551.357
551.314
551.27
551.227
551.182
551.138
551.093
551.048
551.002
550.956
550.91
550.863
550.816
550.77
550.723
550.676
550.629
550.582
550.535
550.488
550.442
550.395
550.347
550.3
550.252
550.205
550.157
550.109
550.062
550.015
549.967
549.921
549.874
549.827
549.78
549.733
549.686
549.638
549.59
549.54
549.489
549.436
549.381
549.322
549.26
549.193
549.119
549.036
548.942
548.833
548.705
548.554
548.373
548.156
547.896
547.591
547.236
546.829
546.379
545.894
545.388
544.863
544.761
544.643
544.525
544.409
544.293
544.178
544.063
543.948
543.833
543.719
543.605
543.491
543.376
543.262
543.148
543.034
542.92
542.805
542.691
542.576
542.461
542.346
542.231
542.116
542.001
541.885
541.77
541.654
541.538
541.422
541.306
541.19
541.074
540.958
540.841
540.725
540.608
552.51
552.431
552.354
552.279
552.206
552.135
552.068
552.005
551.944
551.885
551.83
551.777
551.726
551.677
551.63
551.585
551.54
551.496
551.453
551.409
551.366
551.323
551.28
551.237
551.194
551.15
551.105
551.06
551.015
550.969
550.923
550.877
550.83
550.783
550.736
550.689
550.642
550.594
550.547
550.5
550.454
550.407
550.36
550.312
550.265
550.217
550.169
550.121
550.073
550.026
549.978
549.93
549.883
549.835
549.788
549.74
549.693
549.645
549.597
549.548
549.498
549.447
549.393
549.338
549.279
549.216
549.148
549.073
548.99
548.895
548.786
548.659
548.508
548.328
548.113
547.858
547.556
547.206
546.806
546.363
545.892
545.415
544.985
544.794
544.655
544.531
544.412
544.294
544.178
544.063
543.948
543.833
543.718
543.604
543.489
543.375
543.261
543.147
543.033
542.918
542.804
542.69
542.575
542.46
542.345
542.231
542.115
542
541.885
541.769
541.654
541.538
541.422
541.306
541.19
541.074
540.957
540.841
540.725
540.608
552.507
552.422
552.337
552.255
552.175
552.098
552.025
551.957
551.894
551.832
551.775
551.721
551.671
551.622
551.576
551.532
551.488
551.445
551.402
551.36
551.317
551.275
551.232
551.19
551.146
551.103
551.058
551.013
550.968
550.922
550.876
550.829
550.782
550.735
550.687
550.64
550.592
550.545
550.497
550.45
550.403
550.356
550.309
550.261
550.213
550.165
550.117
550.069
550.02
549.972
549.924
549.875
549.827
549.779
549.731
549.683
549.635
549.586
549.537
549.488
549.437
549.385
549.331
549.274
549.215
549.151
549.082
549.006
548.922
548.826
548.717
548.59
548.44
548.262
548.049
547.798
547.502
547.16
546.772
546.343
545.883
545.398
544.875
544.782
544.658
544.535
544.414
544.296
544.179
544.063
543.947
543.831
543.717
543.602
543.488
543.373
543.259
543.145
543.031
542.917
542.802
542.688
542.574
542.459
542.344
542.229
542.114
541.999
541.884
541.768
541.653
541.537
541.421
541.305
541.189
541.073
540.957
540.841
540.725
540.608
552.503
552.408
552.314
552.221
552.133
552.048
551.969
551.896
551.827
551.763
551.704
551.649
551.599
551.551
551.506
551.463
551.421
551.379
551.338
551.296
551.254
551.213
551.171
551.129
551.086
551.042
550.998
550.953
550.907
550.861
550.815
550.768
550.721
550.673
550.625
550.577
550.529
550.481
550.433
550.386
550.338
550.291
550.243
550.195
550.147
550.099
550.05
550.001
549.952
549.903
549.854
549.805
549.756
549.707
549.658
549.609
549.56
549.511
549.461
549.411
549.359
549.306
549.251
549.194
549.133
549.068
548.997
548.92
548.834
548.738
548.627
548.5
548.351
548.174
547.966
547.72
547.43
547.097
546.72
546.305
545.86
545.408
544.999
544.808
544.666
544.539
544.417
544.297
544.179
544.062
543.945
543.83
543.714
543.6
543.485
543.371
543.257
543.143
543.028
542.914
542.8
542.686
542.572
542.457
542.342
542.228
542.113
541.998
541.883
541.767
541.652
541.536
541.421
541.305
541.189
541.073
540.957
540.841
540.724
540.608
552.497
552.391
552.284
552.18
552.081
551.987
551.9
551.82
551.747
551.68
551.618
551.563
551.512
551.465
551.421
551.38
551.34
551.3
551.26
551.22
551.179
551.139
551.098
551.056
551.013
550.97
550.926
550.881
550.835
550.789
550.742
550.695
550.647
550.599
550.551
550.503
550.454
550.406
550.358
550.309
550.261
550.213
550.165
550.117
550.068
550.019
549.97
549.921
549.871
549.821
549.772
549.722
549.672
549.622
549.572
549.522
549.472
549.422
549.371
549.32
549.267
549.213
549.157
549.098
549.035
548.969
548.897
548.818
548.731
548.633
548.521
548.392
548.244
548.069
547.863
547.623
547.342
547.019
546.655
546.252
545.822
545.374
544.913
544.791
544.664
544.54
544.418
544.298
544.179
544.061
543.943
543.827
543.712
543.597
543.482
543.368
543.253
543.139
543.025
542.911
542.797
542.683
542.569
542.455
542.34
542.226
542.111
541.996
541.881
541.766
541.651
541.535
541.42
541.304
541.188
541.072
540.956
540.84
540.724
540.608
552.49
552.369
552.249
552.132
552.02
551.916
551.82
551.733
551.655
551.584
551.52
551.463
551.412
551.365
551.323
551.284
551.246
551.208
551.17
551.132
551.093
551.053
551.013
550.972
550.93
550.887
550.843
550.798
550.752
550.706
550.659
550.611
550.564
550.515
550.467
550.418
550.369
550.32
550.272
550.223
550.175
550.126
550.077
550.028
549.979
549.93
549.88
549.83
549.779
549.729
549.678
549.628
549.577
549.526
549.475
549.424
549.373
549.321
549.269
549.217
549.163
549.107
549.05
548.99
548.925
548.857
548.783
548.703
548.613
548.513
548.4
548.27
548.122
547.949
547.747
547.512
547.24
546.928
546.578
546.193
545.78
545.343
544.885
544.78
544.663
544.542
544.419
544.298
544.177
544.058
543.941
543.824
543.708
543.593
543.478
543.363
543.249
543.135
543.022
542.908
542.794
542.68
542.566
542.452
542.338
542.223
542.109
541.994
541.879
541.764
541.649
541.534
541.419
541.303
541.187
541.072
540.956
540.84
540.724
540.608
552.481
552.344
552.208
552.077
551.952
551.836
551.73
551.636
551.552
551.477
551.41
551.352
551.301
551.255
551.214
551.177
551.141
551.105
551.07
551.033
550.996
550.958
550.919
550.879
550.837
550.795
550.751
550.706
550.66
550.614
550.566
550.519
550.471
550.422
550.373
550.324
550.275
550.226
550.177
550.128
550.079
550.03
549.981
549.931
549.881
549.831
549.781
549.73
549.679
549.627
549.576
549.524
549.472
549.42
549.368
549.316
549.264
549.211
549.158
549.104
549.048
548.992
548.933
548.871
548.805
548.735
548.659
548.577
548.485
548.383
548.268
548.137
547.988
547.815
547.616
547.386
547.123
546.824
546.49
546.123
545.731
545.318
544.88
544.784
544.668
544.545
544.42
544.297
544.175
544.055
543.936
543.819
543.703
543.588
543.473
543.359
543.245
543.131
543.017
542.904
542.79
542.676
542.563
542.449
542.335
542.221
542.106
541.992
541.877
541.763
541.648
541.533
541.417
541.302
541.187
541.071
540.955
540.84
540.724
540.608
552.472
552.317
552.164
552.017
551.878
551.75
551.634
551.531
551.44
551.362
551.292
551.233
551.181
551.135
551.096
551.06
551.027
550.993
550.96
550.926
550.89
550.854
550.816
550.777
550.736
550.693
550.65
550.605
550.559
550.513
550.466
550.418
550.369
550.321
550.271
550.222
550.172
550.123
550.074
550.025
549.976
549.926
549.877
549.826
549.776
549.725
549.674
549.622
549.57
549.518
549.466
549.413
549.36
549.307
549.254
549.2
549.147
549.093
549.038
548.983
548.926
548.868
548.808
548.745
548.678
548.606
548.528
548.443
548.349
548.244
548.127
547.994
547.844
547.674
547.478
547.255
547
546.713
546.397
546.054
545.691
545.313
544.912
544.807
544.68
544.55
544.421
544.295
544.171
544.05
543.931
543.813
543.697
543.582
543.467
543.353
543.239
543.126
543.012
542.899
542.786
542.672
542.559
542.445
542.332
542.218
542.104
541.989
541.875
541.761
541.646
541.531
541.416
541.301
541.186
541.07
540.955
540.839
540.723
540.608
552.462
552.288
552.118
551.954
551.801
551.66
551.533
551.42
551.323
551.24
551.167
551.106
551.054
551.008
550.97
550.936
550.904
550.873
550.842
550.809
550.776
550.741
550.705
550.666
550.626
550.584
550.54
550.496
550.45
550.404
550.357
550.309
550.261
550.212
550.162
550.113
550.063
550.014
549.964
549.915
549.866
549.816
549.766
549.715
549.664
549.613
549.561
549.509
549.456
549.403
549.349
549.296
549.242
549.187
549.133
549.078
549.023
548.968
548.912
548.856
548.798
548.739
548.677
548.613
548.544
548.471
548.391
548.305
548.209
548.102
547.983
547.848
547.696
547.525
547.333
547.116
546.872
546.599
546.301
545.984
545.658
545.334
545.042
544.854
544.697
544.554
544.419
544.29
544.165
544.043
543.923
543.806
543.689
543.574
543.46
543.346
543.233
543.119
543.006
542.893
542.781
542.668
542.554
542.441
542.328
542.214
542.101
541.987
541.873
541.758
541.644
541.529
541.414
541.3
541.184
541.069
540.954
540.839
540.723
540.608
552.452
552.258
552.069
551.888
551.719
551.565
551.427
551.305
551.201
551.113
551.037
550.974
550.921
550.875
550.839
550.805
550.775
550.746
550.717
550.686
550.654
550.621
550.585
550.548
550.508
550.467
550.424
550.38
550.335
550.288
550.241
550.194
550.145
550.096
550.047
549.997
549.948
549.898
549.849
549.799
549.75
549.699
549.649
549.598
549.547
549.495
549.442
549.389
549.336
549.282
549.227
549.173
549.118
549.062
549.006
548.951
548.895
548.838
548.781
548.723
548.665
548.604
548.542
548.476
548.407
548.333
548.252
548.164
548.066
547.958
547.836
547.7
547.547
547.375
547.185
546.973
546.738
546.48
546.2
545.906
545.61
545.325
545.071
544.869
544.7
544.55
544.412
544.281
544.155
544.033
543.914
543.797
543.681
543.566
543.452
543.338
543.225
543.113
543
542.887
542.775
542.662
542.55
542.437
542.324
542.211
542.097
541.984
541.87
541.756
541.642
541.527
541.413
541.298
541.183
541.068
540.953
540.838
540.723
540.608
552.442
552.228
552.019
551.822
551.637
551.469
551.319
551.189
551.077
550.983
550.904
550.838
550.784
550.738
550.702
550.67
550.641
550.613
550.585
550.556
550.526
550.494
550.459
550.422
550.383
550.343
550.3
550.257
550.212
550.166
550.119
550.072
550.023
549.974
549.925
549.876
549.826
549.777
549.728
549.678
549.628
549.578
549.527
549.476
549.424
549.372
549.319
549.265
549.211
549.156
549.101
549.045
548.989
548.932
548.875
548.818
548.761
548.703
548.645
548.586
548.527
548.465
548.402
548.336
548.266
548.191
548.11
548.021
547.922
547.813
547.69
547.553
547.399
547.227
547.037
546.828
546.6
546.353
546.087
545.812
545.539
545.282
545.048
544.852
544.684
544.535
544.397
544.267
544.142
544.021
543.902
543.786
543.67
543.556
543.443
543.33
543.217
543.105
542.993
542.881
542.769
542.657
542.544
542.432
542.319
542.207
542.094
541.98
541.867
541.753
541.639
541.525
541.411
541.297
541.182
541.067
540.952
540.838
540.723
540.608
552.431
552.197
551.97
551.755
551.555
551.373
551.212
551.072
550.952
550.852
550.769
550.7
550.645
550.599
550.563
550.531
550.503
550.476
550.449
550.421
550.392
550.36
550.326
550.29
550.252
550.212
550.171
550.128
550.084
550.038
549.991
549.944
549.896
549.847
549.798
549.749
549.7
549.651
549.602
549.552
549.502
549.452
549.401
549.35
549.298
549.245
549.192
549.137
549.082
549.027
548.97
548.913
548.856
548.798
548.74
548.682
548.623
548.564
548.505
548.445
548.385
548.323
548.26
548.193
548.123
548.048
547.967
547.878
547.779
547.669
547.546
547.407
547.253
547.082
546.892
546.684
546.458
546.216
545.959
545.696
545.439
545.2
544.986
544.807
544.651
544.509
544.375
544.248
544.126
544.006
543.889
543.773
543.658
543.545
543.432
543.32
543.208
543.097
542.985
542.874
542.762
542.651
542.539
542.427
542.315
542.202
542.09
541.977
541.864
541.75
541.637
541.523
541.409
541.295
541.181
541.066
540.952
540.837
540.722
540.607
552.422
552.168
551.923
551.69
551.475
551.28
551.107
550.957
550.829
550.722
550.634
550.562
550.504
550.458
550.421
550.389
550.362
550.335
550.309
550.281
550.252
550.221
550.188
550.153
550.116
550.077
550.036
549.993
549.95
549.904
549.858
549.812
549.764
549.716
549.667
549.619
549.57
549.521
549.472
549.422
549.373
549.322
549.272
549.22
549.168
549.115
549.061
549.006
548.95
548.894
548.836
548.778
548.72
548.661
548.601
548.542
548.482
548.422
548.362
548.301
548.24
548.178
548.114
548.048
547.978
547.903
547.822
547.734
547.635
547.525
547.402
547.264
547.11
546.938
546.749
546.542
546.318
546.077
545.823
545.56
545.302
545.073
544.891
544.74
544.603
544.473
544.348
544.225
544.106
543.988
543.873
543.758
543.645
543.533
543.421
543.31
543.199
543.088
542.977
542.866
542.755
542.644
542.533
542.421
542.31
542.198
542.086
541.973
541.86
541.747
541.634
541.521
541.407
541.293
541.179
541.065
540.951
540.836
540.722
540.607
552.413
552.142
551.879
551.631
551.401
551.192
551.007
550.847
550.71
550.596
550.502
550.426
550.364
550.316
550.278
550.246
550.218
550.191
550.165
550.138
550.109
550.078
550.046
550.011
549.974
549.936
549.896
549.854
549.811
549.767
549.721
549.675
549.628
549.581
549.533
549.484
549.436
549.387
549.338
549.289
549.24
549.189
549.139
549.087
549.035
548.981
548.927
548.872
548.815
548.757
548.699
548.64
548.58
548.52
548.46
548.399
548.338
548.277
548.216
548.154
548.092
548.03
547.966
547.9
547.831
547.757
547.677
547.589
547.491
547.382
547.26
547.123
546.97
546.798
546.609
546.403
546.18
545.941
545.685
545.415
545.135
544.878
544.765
544.66
544.549
544.433
544.316
544.2
544.084
543.969
543.855
543.743
543.631
543.52
543.409
543.298
543.188
543.078
542.968
542.858
542.748
542.637
542.527
542.416
542.305
542.193
542.081
541.969
541.857
541.744
541.632
541.518
541.405
541.291
541.178
541.064
540.95
540.836
540.721
540.607
552.406
552.119
551.841
551.577
551.333
551.111
550.913
550.743
550.598
550.475
550.374
550.292
550.227
550.175
550.135
550.102
550.073
550.046
550.019
549.992
549.963
549.932
549.9
549.865
549.829
549.791
549.752
549.711
549.668
549.625
549.581
549.535
549.489
549.442
549.395
549.347
549.299
549.251
549.202
549.153
549.104
549.054
549.003
548.951
548.899
548.845
548.79
548.734
548.677
548.618
548.559
548.499
548.438
548.377
548.316
548.254
548.192
548.13
548.067
548.005
547.943
547.881
547.818
547.752
547.684
547.611
547.532
547.445
547.348
547.24
547.119
546.984
546.832
546.662
546.475
546.271
546.051
545.815
545.563
545.289
544.965
544.528
544.631
544.588
544.499
544.395
544.285
544.173
544.06
543.948
543.837
543.726
543.615
543.505
543.396
543.287
543.177
543.068
542.959
542.85
542.74
542.63
542.52
542.41
542.299
542.188
542.077
541.965
541.853
541.741
541.629
541.516
541.403
541.29
541.176
541.063
540.949
540.835
540.721
540.607
552.399
552.1
551.808
551.529
551.271
551.036
550.826
550.644
550.489
550.359
550.252
550.164
550.093
550.037
549.994
549.958
549.928
549.9
549.872
549.844
549.814
549.783
549.751
549.717
549.681
549.643
549.604
549.564
549.522
549.48
549.436
549.392
549.347
549.301
549.254
549.207
549.159
549.111
549.063
549.014
548.965
548.915
548.864
548.812
548.759
548.705
548.65
548.593
548.535
548.476
548.416
548.354
548.293
548.231
548.168
548.106
548.044
547.981
547.917
547.855
547.793
547.731
547.669
547.604
547.536
547.465
547.387
547.302
547.206
547.1
546.98
546.847
546.697
546.53
546.346
546.146
545.932
545.706
545.469
545.222
544.97
544.731
544.644
544.561
544.466
544.363
544.255
544.146
544.036
543.926
543.817
543.708
543.599
543.491
543.382
543.274
543.166
543.058
542.949
542.841
542.732
542.623
542.514
542.404
542.294
542.183
542.073
541.961
541.85
541.738
541.626
541.513
541.401
541.288
541.175
541.061
540.948
540.834
540.721
540.607
552.394
552.083
551.78
551.489
551.217
550.969
550.747
550.554
550.388
550.249
550.134
550.04
549.964
549.903
549.855
549.817
549.784
549.754
549.724
549.695
549.664
549.633
549.6
549.566
549.531
549.494
549.455
549.416
549.375
549.333
549.29
549.247
549.202
549.157
549.111
549.064
549.017
548.97
548.922
548.873
548.824
548.774
548.723
548.67
548.617
548.563
548.507
548.449
548.391
548.33
548.269
548.207
548.144
548.082
548.019
547.956
547.894
547.83
547.767
547.704
547.642
547.581
547.519
547.456
547.389
547.319
547.244
547.16
547.066
546.961
546.844
546.712
546.565
546.401
546.221
546.028
545.824
545.611
545.393
545.176
544.968
544.784
544.655
544.545
544.44
544.334
544.227
544.12
544.012
543.904
543.797
543.689
543.582
543.475
543.368
543.261
543.154
543.047
542.94
542.832
542.724
542.616
542.507
542.398
542.288
542.178
542.068
541.957
541.846
541.735
541.623
541.511
541.399
541.286
541.173
541.06
540.947
540.834
540.72
540.607
552.388
552.068
551.754
551.454
551.171
550.911
550.679
550.475
550.298
550.149
550.025
549.923
549.841
549.775
549.721
549.678
549.642
549.608
549.577
549.546
549.514
549.482
549.449
549.415
549.38
549.343
549.305
549.266
549.226
549.185
549.143
549.1
549.056
549.011
548.966
548.92
548.873
548.826
548.778
548.729
548.68
548.629
548.578
548.526
548.472
548.417
548.36
548.302
548.242
548.182
548.119
548.057
547.993
547.93
547.867
547.805
547.742
547.679
547.616
547.553
547.491
547.431
547.37
547.308
547.243
547.175
547.101
547.02
546.928
546.825
546.71
546.581
546.437
546.278
546.104
545.918
545.724
545.525
545.326
545.13
544.947
544.782
544.644
544.525
544.414
544.306
544.2
544.093
543.987
543.882
543.776
543.67
543.565
543.459
543.354
543.248
543.142
543.036
542.93
542.823
542.716
542.608
542.5
542.392
542.283
542.173
542.064
541.953
541.843
541.732
541.62
541.509
541.397
541.284
541.172
541.059
540.946
540.833
540.72
540.607
552.384
552.054
551.733
551.424
551.133
550.863
550.62
550.404
550.217
550.058
549.924
549.814
549.724
549.651
549.592
549.543
549.503
549.465
549.431
549.398
549.365
549.332
549.298
549.264
549.229
549.193
549.155
549.117
549.077
549.036
548.995
548.952
548.909
548.865
548.82
548.774
548.727
548.68
548.631
548.583
548.533
548.482
548.43
548.377
548.323
548.267
548.21
548.151
548.091
548.029
547.967
547.904
547.841
547.777
547.715
547.652
547.59
547.527
547.465
547.403
547.342
547.282
547.222
547.161
547.098
547.032
546.96
546.881
546.791
546.691
546.579
546.453
546.313
546.159
545.992
545.814
545.63
545.444
545.259
545.077
544.906
544.75
544.615
544.495
544.384
544.276
544.171
544.066
543.962
543.858
543.754
543.651
543.547
543.443
543.339
543.234
543.13
543.025
542.919
542.814
542.707
542.601
542.493
542.385
542.277
542.168
542.059
541.949
541.839
541.728
541.617
541.506
541.394
541.282
541.17
541.058
540.945
540.832
540.719
540.606
552.381
552.045
551.718
551.404
551.106
550.827
550.573
550.345
550.146
549.976
549.832
549.712
549.614
549.534
549.469
549.413
549.368
549.326
549.289
549.253
549.218
549.183
549.149
549.114
549.08
549.043
549.006
548.968
548.928
548.888
548.847
548.804
548.761
548.717
548.672
548.626
548.579
548.531
548.483
548.433
548.383
548.332
548.279
548.225
548.17
548.114
548.056
547.997
547.936
547.875
547.812
547.749
547.687
547.624
547.562
547.5
547.439
547.377
547.316
547.255
547.195
547.136
547.078
547.018
546.956
546.891
546.821
546.744
546.657
546.559
546.45
546.328
546.193
546.045
545.884
545.715
545.539
545.362
545.187
545.013
544.849
544.697
544.57
544.456
544.348
544.244
544.141
544.038
543.936
543.835
543.733
543.631
543.529
543.426
543.324
543.221
543.117
543.014
542.909
542.804
542.699
542.593
542.486
542.379
542.272
542.163
542.055
541.945
541.836
541.725
541.615
541.504
541.392
541.281
541.169
541.057
540.944
540.832
540.719
540.606
552.38
552.043
551.714
551.396
551.092
550.805
550.539
550.3
550.088
549.906
549.75
549.62
549.512
549.424
549.352
549.289
549.238
549.192
549.151
549.112
549.074
549.038
549.003
548.968
548.932
548.896
548.858
548.82
548.781
548.74
548.699
548.657
548.613
548.569
548.524
548.477
548.43
548.381
548.332
548.281
548.23
548.178
548.124
548.07
548.014
547.957
547.899
547.84
547.779
547.718
547.657
547.595
547.534
547.473
547.412
547.351
547.291
547.231
547.171
547.112
547.054
546.995
546.937
546.878
546.817
546.753
546.684
546.608
546.524
546.428
546.323
546.205
546.075
545.932
545.779
545.618
545.45
545.28
545.111
544.943
544.778
544.616
544.509
544.408
544.308
544.209
544.109
544.009
543.91
543.81
543.71
543.611
543.51
543.41
543.309
543.207
543.105
543.003
542.899
542.795
542.691
542.586
542.48
542.373
542.266
542.159
542.05
541.942
541.832
541.722
541.612
541.501
541.39
541.279
541.167
541.055
540.943
540.831
540.719
540.606
552.382
552.048
551.718
551.396
551.087
550.794
550.52
550.268
550.043
549.847
549.679
549.538
549.42
549.322
549.241
549.172
549.114
549.064
549.017
548.975
548.935
548.897
548.862
548.825
548.789
548.752
548.714
548.675
548.636
548.595
548.553
548.51
548.466
548.421
548.374
548.327
548.278
548.228
548.177
548.126
548.073
548.02
547.965
547.91
547.854
547.796
547.739
547.68
547.621
547.562
547.502
547.443
547.384
547.325
547.267
547.208
547.15
547.092
547.034
546.976
546.918
546.861
546.803
546.744
546.682
546.618
546.55
546.475
546.392
546.3
546.198
546.084
545.959
545.823
545.677
545.522
545.36
545.196
545.031
544.868
544.705
544.479
544.438
544.358
544.266
544.171
544.075
543.979
543.882
543.785
543.688
543.59
543.492
543.393
543.294
543.194
543.093
542.992
542.89
542.787
542.683
542.579
542.474
542.368
542.261
542.154
542.046
541.938
541.829
541.719
541.61
541.499
541.388
541.277
541.166
541.054
540.942
540.83
540.718
540.606
552.385
552.054
551.726
551.404
551.093
550.793
550.511
550.249
550.011
549.802
549.62
549.466
549.336
549.228
549.138
549.062
548.997
548.942
548.891
548.845
548.802
548.763
548.727
548.688
548.651
548.614
548.575
548.536
548.495
548.453
548.41
548.366
548.32
548.273
548.225
548.175
548.124
548.072
548.019
547.966
547.911
547.857
547.801
547.745
547.689
547.633
547.576
547.52
547.463
547.407
547.351
547.295
547.24
547.185
547.13
547.075
547.02
546.964
546.907
546.851
546.793
546.735
546.677
546.617
546.554
546.488
546.419
546.345
546.263
546.174
546.074
545.965
545.846
545.715
545.575
545.426
545.271
545.112
544.952
544.796
544.647
544.501
544.407
544.317
544.225
544.133
544.04
543.947
543.854
543.76
543.665
543.57
543.474
543.377
543.279
543.181
543.082
542.981
542.88
542.778
542.676
542.572
542.468
542.362
542.256
542.15
542.042
541.934
541.826
541.717
541.607
541.497
541.387
541.276
541.165
541.053
540.942
540.83
540.718
540.606
552.39
552.068
551.745
551.424
551.108
550.803
550.513
550.242
549.994
549.77
549.575
549.407
549.264
549.144
549.045
548.961
548.89
548.828
548.773
548.723
548.679
548.638
548.601
548.561
548.524
548.486
548.446
548.405
548.362
548.318
548.273
548.226
548.177
548.127
548.075
548.022
547.968
547.912
547.857
547.801
547.744
547.688
547.631
547.576
547.52
547.466
547.412
547.359
547.307
547.256
547.205
547.155
547.105
547.056
547.006
546.956
546.904
546.851
546.796
546.74
546.682
546.623
546.562
546.5
546.434
546.366
546.294
546.218
546.135
546.048
545.95
545.845
545.73
545.605
545.471
545.328
545.179
545.028
544.877
544.732
544.597
544.474
544.372
544.275
544.182
544.092
544.003
543.914
543.825
543.734
543.642
543.55
543.456
543.361
543.265
543.169
543.071
542.972
542.872
542.771
542.669
542.566
542.462
542.357
542.252
542.146
542.039
541.931
541.823
541.714
541.605
541.495
541.385
541.274
541.164
541.052
540.941
540.829
540.718
540.606
552.397
552.087
551.771
551.451
551.131
550.82
550.524
550.246
549.988
549.751
549.541
549.359
549.204
549.073
548.963
548.87
548.793
548.725
548.666
548.614
548.568
548.526
548.489
548.45
548.413
548.374
548.333
548.289
548.242
548.193
548.143
548.091
548.037
547.981
547.925
547.867
547.809
547.75
547.691
547.632
547.573
547.514
547.457
547.402
547.349
547.298
547.249
547.202
547.155
547.11
547.066
547.024
546.982
546.941
546.898
546.854
546.807
546.757
546.705
546.649
546.59
546.528
546.464
546.396
546.325
546.251
546.174
546.094
546.009
545.919
545.822
545.719
545.608
545.489
545.362
545.228
545.09
544.949
544.811
544.68
544.557
544.442
544.338
544.233
544.137
544.049
543.965
543.88
543.795
543.708
543.62
543.53
543.439
543.346
543.252
543.157
543.06
542.962
542.863
542.763
542.662
542.56
542.457
542.353
542.248
542.142
542.036
541.928
541.821
541.712
541.603
541.494
541.384
541.273
541.163
541.052
540.94
540.829
540.717
540.606
552.405
552.109
551.801
551.482
551.159
550.841
550.537
550.254
549.99
549.744
549.521
549.324
549.155
549.013
548.893
548.793
548.709
548.636
548.573
548.52
548.475
548.435
548.398
548.363
548.328
548.291
548.247
548.196
548.14
548.082
548.022
547.961
547.898
547.836
547.773
547.711
547.649
547.587
547.526
547.464
547.402
547.341
547.284
547.23
547.18
547.135
547.093
547.052
547.011
546.973
546.936
546.903
546.872
546.84
546.807
546.771
546.731
546.686
546.636
546.582
546.524
546.458
546.387
546.309
546.227
546.142
546.057
545.971
545.881
545.786
545.686
545.582
545.473
545.358
545.24
545.124
545.011
544.89
544.777
544.672
544.567
544.442
544.331
544.202
544.094
544.005
543.924
543.846
543.765
543.683
543.598
543.511
543.422
543.332
543.24
543.146
543.051
542.954
542.856
542.757
542.656
542.555
542.452
542.349
542.244
542.139
542.033
541.926
541.818
541.71
541.601
541.492
541.382
541.272
541.162
541.051
540.94
540.829
540.717
540.606
552.414
552.134
551.835
551.518
551.192
550.869
550.558
550.267
549.995
549.74
549.504
549.295
549.114
548.962
548.836
548.729
548.64
548.564
548.501
548.449
548.407
548.373
548.342
548.314
548.286
548.252
548.203
548.137
548.06
547.981
547.903
547.827
547.753
547.685
547.621
547.56
547.5
547.438
547.376
547.312
547.246
547.18
547.119
547.067
547.024
546.991
546.96
546.925
546.885
546.847
546.815
546.789
546.768
546.746
546.722
546.7
546.672
546.637
546.596
546.551
546.498
546.423
546.337
546.236
546.128
546.03
545.942
545.849
545.748
545.643
545.534
545.42
545.31
545.201
545.096
545.023
545.022
544.91
544.806
544.758
544.718
544.509
544.392
544.198
544.058
543.962
543.885
543.811
543.736
543.658
543.577
543.493
543.407
543.319
543.229
543.136
543.042
542.947
542.85
542.751
542.651
542.55
542.448
542.345
542.241
542.136
542.03
541.924
541.816
541.708
541.6
541.491
541.381
541.271
541.161
541.05
540.939
540.828
540.717
540.606
552.418
552.148
551.859
551.552
551.231
550.911
550.597
550.295
550.005
549.737
549.487
549.269
549.078
548.919
548.788
548.677
548.588
548.512
548.454
548.414
548.38
548.354
548.332
548.318
548.31
548.284
548.216
548.108
547.991
547.876
547.764
547.666
547.587
547.527
547.482
547.438
547.388
547.33
547.268
547.202
547.128
547.05
546.978
546.931
546.914
546.914
546.9
546.854
546.793
546.74
546.705
546.674
546.649
546.622
546.614
546.636
546.623
546.608
546.602
546.574
546.522
546.43
546.31
546.124
545.958
545.903
545.866
545.772
545.618
545.466
545.328
545.196
545.07
544.983
544.885
544.921
545.425
545.091
544.723
544.889
545.15
544.598
544.609
544.212
544.028
543.921
543.847
543.779
543.709
543.635
543.557
543.477
543.394
543.308
543.219
543.128
543.035
542.941
542.844
542.747
542.647
542.547
542.445
542.342
542.239
542.134
542.028
541.922
541.815
541.707
541.599
541.49
541.38
541.27
541.16
541.05
540.939
540.828
540.717
540.606
552.409
552.133
551.861
551.591
551.301
550.996
550.673
550.349
550.019
549.756
549.492
549.269
549.068
548.9
548.765
548.647
548.577
548.502
548.457
548.448
548.425
548.412
548.399
548.409
548.444
548.417
548.28
548.072
547.908
547.761
547.577
547.464
547.417
547.414
547.432
547.412
547.363
547.3
547.219
547.147
547.058
546.974
546.904
546.929
547.019
547.067
547.003
546.84
546.71
546.668
546.661
546.558
546.451
546.392
546.474
546.707
546.61
546.583
546.71
546.593
546.485
546.542
546.293
545.599
545.428
546.049
546.174
545.907
545.464
544.891
544.795
544.915
544.498
544.518
544.409
544.663
545.567
544.904
544.12
545.213
545.247
544.462
544.588
544.208
543.97
543.875
543.811
543.75
543.684
543.613
543.54
543.463
543.383
543.298
543.211
543.122
543.03
542.936
542.84
542.743
542.644
542.544
542.443
542.34
542.237
542.132
542.027
541.92
541.814
541.706
541.598
541.489
541.38
541.27
541.16
541.049
540.939
540.828
540.717
540.606
552.368
552.058
551.845
551.742
551.558
551.227
550.814
550.402
549.948
549.629
549.411
549.182
549.009
548.825
548.652
548.528
548.582
548.507
548.443
548.475
548.453
548.455
548.493
548.522
548.593
548.556
548.416
548.122
547.782
547.532
547.293
547.154
547.309
547.476
547.585
547.481
547.304
547.216
547.078
547.019
546.944
546.931
546.935
546.994
547.24
547.298
547.106
546.643
546.431
546.661
546.828
546.383
545.955
545.954
546.248
546.655
546.589
546.573
546.749
546.359
546.329
546.644
546.581
545.753
545.413
545.766
545.977
545.819
545.54
545.183
544.969
544.887
544.68
544.569
544.463
544.596
544.969
544.768
544.416
544.84
545.043
544.622
544.55
544.178
543.941
543.833
543.781
543.727
543.661
543.593
543.525
543.452
543.374
543.292
543.206
543.117
543.026
542.933
542.837
542.74
542.642
542.542
542.441
542.339
542.235
542.131
542.026
541.92
541.813
541.705
541.597
541.488
541.379
541.269
541.159
541.049
540.938
540.828
540.717
540.606