0.010101 	-4.10806e-10 	4.2141e-13 	-3.94947e-12
0.020202 	-1.58784e-11 	4.00033e-14 	-2.29943e-13
