0 	1.08887e-20 	0 	-4.35547e-20
0.010101 	4.08222e-20 	3.38622e-22 	-9.40047e-20
0.020202 	-4.25482e-21 	-1.688e-22 	-8.12935e-20
0.030303 	-6.65546e-20 	-2.02935e-22 	-9.54533e-20
0.040404 	5.31294e-20 	1.01382e-22 	-1.4168e-20
0.0505051 	2.89459e-20 	1.69311e-22 	8.48424e-20
