0 	9.13288e-29 	0 	-2.17774e-20
0.010101 	5.51635e-20 	-6.75881e-23 	-3.14696e-20
0.020202 	-5.98649e-21 	-1.6897e-22 	-8.96371e-20
0.030303 	-4.00397e-20 	1.70323e-25 	-6.68593e-20
0.040404 	5.93299e-20 	1.6897e-22 	-4.29633e-20
0.0505051 	1.67161e-20 	3.36237e-23 	1.26294e-20
