0 	7.25912e-21 	0 	-5.08138e-20
0.010101 	-7.41298e-21 	2.3724e-22 	-6.69625e-20
0.020202 	-2.95978e-20 	-3.34534e-23 	-8.47245e-20
0.030303 	-8.06923e-20 	-6.74177e-23 	4.8244e-20
0.040404 	7.44499e-20 	2.36729e-22 	-1.26818e-20
0.0505051 	8.50002e-21 	1.35176e-22 	4.23954e-20
