0.030303 	7.27419e-27 	6.99429e-27 	-1.59965e-26
0.040404 	-4.60072e-27 	1.12945e-26 	3.89981e-27
