/*--------------------------------*- C++ -*----------------------------------*\
  =========                 |
  \\      /  F ield         | OpenFOAM: The Open Source CFD Toolbox
   \\    /   O peration     | Website:  https://openfoam.org
    \\  /    A nd           | Version:  6
     \\/     M anipulation  |
\*---------------------------------------------------------------------------*/
FoamFile
{
    version     2.0;
    format      ascii;
    class       volScalarField;
    location    "2200";
    object      dmdt;
}
// * * * * * * * * * * * * * * * * * * * * * * * * * * * * * * * * * * * * * //

dimensions      [0 0 0 0 0 0 0];

internalField   nonuniform List<scalar> 
4800
(
-0.218646
-0.214761
-0.210896
-0.20707
-0.203312
-0.199655
-0.196133
-0.192773
-0.189595
-0.186618
-0.183862
-0.181326
-0.179001
-0.176872
-0.174918
-0.173119
-0.171457
-0.169911
-0.168461
-0.167088
-0.165775
-0.164508
-0.163272
-0.16206
-0.160868
-0.159699
-0.158553
-0.157426
-0.156315
-0.155213
-0.154115
-0.153015
-0.151906
-0.150781
-0.149633
-0.148454
-0.147242
-0.145995
-0.144712
-0.14339
-0.142028
-0.140623
-0.139169
-0.137657
-0.136077
-0.134418
-0.132682
-0.13087
-0.128981
-0.127016
-0.124985
-0.1229
-0.120773
-0.11862
-0.116449
-0.114261
-0.112055
-0.109824
-0.10756
-0.105255
-0.1029
-0.100474
-0.0979575
-0.0953551
-0.092652
-0.0898186
-0.0868348
-0.0836831
-0.0803408
-0.0767887
-0.0730185
-0.0690256
-0.0648146
-0.0604019
-0.0558169
-0.0510989
-0.0462988
-0.0414885
-0.0367245
-0.0320102
-0.0273293
-0.0227409
-0.0183393
-0.0140876
-0.00997049
-0.00597393
-0.00208434
0.00171156
0.00542603
0.00907064
0.0126557
0.0161904
0.0196823
0.0231381
0.0265632
0.0299624
0.0333395
0.0366976
0.0400395
0.0433673
0.0466831
0.0499884
0.0532845
0.0565728
0.0598542
0.0631296
0.0663999
0.0696657
0.0729277
0.0761864
0.0794422
0.0826956
0.0859469
0.0891966
0.0924448
0.0956918
0.098938
0.102183
0.105428
0.108673
-0.21864
-0.214743
-0.210865
-0.207024
-0.203247
-0.199573
-0.196039
-0.192683
-0.189529
-0.186585
-0.183854
-0.181338
-0.179027
-0.176906
-0.17496
-0.173167
-0.171509
-0.169968
-0.168523
-0.167156
-0.16585
-0.16459
-0.163364
-0.162164
-0.160987
-0.159833
-0.158699
-0.157584
-0.156483
-0.155392
-0.154305
-0.153215
-0.152115
-0.150999
-0.149858
-0.148686
-0.147482
-0.146243
-0.144967
-0.143653
-0.1423
-0.1409
-0.139449
-0.137934
-0.136346
-0.134679
-0.132936
-0.131116
-0.129215
-0.127238
-0.125192
-0.123088
-0.120941
-0.118763
-0.116563
-0.114346
-0.112109
-0.109847
-0.107551
-0.105211
-0.102818
-0.100364
-0.0978292
-0.0952038
-0.092477
-0.0896214
-0.0866195
-0.0834539
-0.0801055
-0.0765544
-0.07279
-0.0688078
-0.0646071
-0.0602042
-0.0556262
-0.0509036
-0.0460918
-0.0412617
-0.0364725
-0.0317569
-0.0271174
-0.0225669
-0.0181842
-0.0139456
-0.00984038
-0.0058558
-0.0019783
0.00180574
0.00550894
0.00914316
0.0127189
0.0162451
0.0197297
0.0231791
0.0265988
0.0299932
0.0333661
0.0367207
0.0400595
0.0433847
0.0466982
0.0500015
0.053296
0.0565828
0.0598629
0.0631372
0.0664065
0.0696715
0.0729327
0.0761906
0.0794459
0.0826987
0.0859496
0.0891988
0.0924466
0.0956933
0.0989391
0.102184
0.105429
0.108673
-0.218627
-0.214706
-0.21081
-0.206956
-0.203177
-0.199511
-0.195989
-0.192646
-0.189515
-0.186605
-0.183908
-0.181417
-0.179125
-0.177018
-0.175081
-0.173298
-0.17165
-0.170118
-0.168683
-0.167326
-0.166032
-0.164785
-0.163575
-0.162395
-0.161242
-0.160112
-0.159002
-0.15791
-0.156831
-0.15576
-0.154693
-0.15362
-0.152536
-0.151435
-0.150306
-0.149147
-0.147956
-0.146732
-0.145468
-0.144166
-0.142821
-0.141428
-0.139981
-0.138463
-0.136868
-0.135188
-0.133431
-0.131595
-0.129673
-0.12767
-0.125594
-0.123455
-0.121267
-0.119042
-0.11679
-0.114516
-0.112218
-0.109893
-0.107532
-0.105128
-0.10267
-0.100157
-0.0975748
-0.0948997
-0.0921243
-0.0892275
-0.0861941
-0.0830073
-0.0796506
-0.0761012
-0.0723459
-0.0683777
-0.0641962
-0.0598134
-0.0552577
-0.0505626
-0.0457544
-0.0408758
-0.0360287
-0.0313208
-0.0267448
-0.0222382
-0.0178806
-0.0136635
-0.00958063
-0.00561988
-0.00176682
0.00199321
0.00567372
0.00928709
0.012844
0.0163537
0.0198238
0.0232605
0.0266692
0.0300542
0.033419
0.0367665
0.0400993
0.0434193
0.0467283
0.0500277
0.0533188
0.0566027
0.0598802
0.0631523
0.0664197
0.0696829
0.0729426
0.0761992
0.0794532
0.082705
0.0859549
0.0892032
0.0924502
0.0956962
0.0989413
0.102186
0.10543
0.108674
-0.218619
-0.214681
-0.210762
-0.206891
-0.203112
-0.199471
-0.195994
-0.192697
-0.1896
-0.186718
-0.184047
-0.181581
-0.179312
-0.177226
-0.175306
-0.173538
-0.171905
-0.170387
-0.168965
-0.167622
-0.166343
-0.165114
-0.163925
-0.162768
-0.161642
-0.160542
-0.159462
-0.1584
-0.15735
-0.156308
-0.155268
-0.154218
-0.153156
-0.152073
-0.150962
-0.149819
-0.148642
-0.147435
-0.146186
-0.144896
-0.143564
-0.142178
-0.140732
-0.139211
-0.137604
-0.135906
-0.134132
-0.132276
-0.130322
-0.128281
-0.126161
-0.12397
-0.121724
-0.119435
-0.117111
-0.114758
-0.112374
-0.109959
-0.107508
-0.105016
-0.102473
-0.0998745
-0.0972154
-0.0944673
-0.0916243
-0.088674
-0.0855981
-0.0823811
-0.0790085
-0.0754541
-0.0717046
-0.0677523
-0.0635959
-0.0592431
-0.0547178
-0.0500485
-0.0452651
-0.0404202
-0.035589
-0.0308601
-0.026275
-0.0217745
-0.0174336
-0.013242
-0.00919138
-0.00526696
-0.00145156
0.00227167
0.00591769
0.00949968
0.0130286
0.0165137
0.0199622
0.0233803
0.0267729
0.030144
0.0334969
0.0368341
0.040158
0.0434704
0.0467728
0.0500665
0.0533526
0.0566321
0.0599059
0.0631747
0.0664391
0.0696998
0.0729572
0.0762119
0.0794641
0.0827143
0.0859628
0.0892098
0.0924556
0.0957005
0.0989446
0.102188
0.105431
0.108674
-0.218615
-0.21467
-0.210751
-0.206889
-0.203125
-0.199507
-0.196067
-0.192818
-0.189766
-0.186921
-0.184283
-0.181849
-0.179606
-0.177545
-0.175649
-0.173901
-0.172288
-0.170788
-0.169383
-0.168058
-0.166797
-0.165588
-0.164423
-0.163293
-0.162196
-0.161128
-0.160082
-0.159053
-0.158037
-0.157028
-0.156019
-0.154997
-0.15396
-0.152901
-0.15181
-0.150685
-0.149526
-0.148336
-0.147102
-0.145823
-0.144504
-0.143123
-0.141676
-0.140152
-0.138527
-0.136811
-0.135021
-0.133133
-0.131129
-0.129033
-0.126851
-0.124593
-0.122276
-0.119909
-0.117501
-0.115055
-0.112573
-0.110052
-0.107493
-0.104892
-0.102246
-0.0995469
-0.0967889
-0.0939546
-0.0910342
-0.0880159
-0.0848831
-0.0816197
-0.0782145
-0.0746429
-0.070892
-0.0669547
-0.0628263
-0.0585078
-0.0540174
-0.049387
-0.0446593
-0.0398724
-0.0350673
-0.0303092
-0.0256844
-0.0211672
-0.0168373
-0.0126771
-0.00867115
-0.00479801
-0.00103531
0.00263721
0.00623649
0.00977654
0.0132685
0.0167213
0.0201418
0.0235358
0.0269076
0.0302607
0.0335981
0.0369221
0.0402345
0.043537
0.0468308
0.0501171
0.0533967
0.0566706
0.0599395
0.063204
0.0664647
0.069722
0.0729765
0.0762285
0.0794784
0.0827265
0.0859731
0.0892184
0.0924627
0.0957061
0.0989489
0.102191
0.105433
0.108675
-0.218601
-0.214646
-0.210753
-0.206947
-0.203242
-0.199667
-0.19626
-0.193044
-0.190031
-0.187224
-0.184623
-0.182224
-0.180015
-0.177983
-0.176114
-0.174392
-0.172802
-0.171326
-0.16994
-0.168635
-0.167396
-0.16621
-0.165071
-0.163969
-0.162904
-0.161869
-0.160858
-0.159866
-0.158887
-0.157914
-0.156938
-0.155947
-0.154939
-0.153906
-0.15284
-0.151737
-0.150598
-0.149425
-0.148205
-0.146939
-0.145632
-0.144256
-0.142808
-0.141273
-0.139623
-0.137889
-0.136069
-0.134126
-0.132056
-0.12989
-0.127629
-0.125292
-0.122893
-0.120442
-0.117945
-0.115401
-0.11281
-0.110174
-0.107497
-0.104778
-0.102015
-0.0992025
-0.096333
-0.0933984
-0.0903877
-0.0872884
-0.0840856
-0.0807647
-0.0773159
-0.0737183
-0.0699591
-0.0660287
-0.0619213
-0.0576377
-0.0531933
-0.0486136
-0.0439315
-0.0391761
-0.0343776
-0.0295975
-0.024936
-0.0203928
-0.0160761
-0.0119603
-0.00801747
-0.00421504
-0.000522905
0.00308362
0.00662351
0.0101113
0.0135578
0.0169714
0.0203582
0.0237231
0.02707
0.0304017
0.0337206
0.0370286
0.0403273
0.0436179
0.0469013
0.0501786
0.0534505
0.0567176
0.0599805
0.0632398
0.0664959
0.0697492
0.0730001
0.0762489
0.079496
0.0827415
0.0859858
0.089229
0.0924714
0.095713
0.0989541
0.102195
0.105435
0.108675
-0.218632
-0.214712
-0.210821
-0.207028
-0.203373
-0.199867
-0.196521
-0.193355
-0.190388
-0.187627
-0.185068
-0.182707
-0.180535
-0.178539
-0.1767
-0.175008
-0.173444
-0.171994
-0.170628
-0.169348
-0.168134
-0.166974
-0.165864
-0.164793
-0.163759
-0.162759
-0.161784
-0.160828
-0.159887
-0.15895
-0.158008
-0.157051
-0.156074
-0.15507
-0.154031
-0.152953
-0.151836
-0.150679
-0.149478
-0.148229
-0.146931
-0.145559
-0.144105
-0.142552
-0.140882
-0.139112
-0.137233
-0.135217
-0.133071
-0.130821
-0.128474
-0.126051
-0.123569
-0.121031
-0.118443
-0.115799
-0.113095
-0.110339
-0.107537
-0.104694
-0.101805
-0.0988697
-0.0958807
-0.092833
-0.0897212
-0.0865322
-0.0832496
-0.0798607
-0.0763596
-0.0727263
-0.0689456
-0.0650103
-0.060917
-0.056661
-0.0522497
-0.0477041
-0.0430475
-0.0383037
-0.0334959
-0.0286906
-0.0239936
-0.0194193
-0.0151276
-0.0110805
-0.007229
-0.0035232
7.71337e-05
0.00360119
0.00706921
0.0104952
0.013889
0.0172575
0.0206057
0.0239377
0.0272562
0.0305636
0.0338615
0.0371515
0.0404345
0.0437114
0.0469831
0.0502501
0.0535131
0.0567723
0.0600284
0.0632816
0.0665324
0.0697809
0.0730277
0.0762728
0.0795165
0.0827591
0.0860007
0.0892415
0.0924816
0.0957212
0.0989603
0.102199
0.105438
0.108676
-0.218657
-0.214799
-0.210975
-0.207225
-0.203597
-0.200128
-0.196839
-0.193736
-0.190827
-0.18812
-0.185609
-0.183292
-0.18116
-0.179201
-0.177397
-0.175736
-0.174201
-0.172775
-0.171433
-0.170181
-0.168993
-0.167862
-0.166782
-0.165743
-0.164742
-0.163775
-0.162836
-0.161915
-0.16101
-0.160107
-0.159198
-0.158275
-0.157331
-0.156358
-0.155349
-0.154301
-0.153211
-0.152078
-0.150897
-0.149663
-0.148371
-0.146997
-0.145527
-0.143945
-0.142242
-0.140421
-0.138473
-0.13638
-0.134154
-0.131818
-0.129388
-0.126883
-0.124316
-0.121693
-0.119016
-0.116274
-0.113463
-0.110589
-0.107659
-0.104681
-0.101662
-0.0985957
-0.09548
-0.0923114
-0.0890871
-0.0857975
-0.0824273
-0.0789629
-0.0753993
-0.0717241
-0.0679219
-0.0639808
-0.0598886
-0.0556368
-0.0512359
-0.0467005
-0.0420423
-0.03728
-0.0324333
-0.0275773
-0.0228246
-0.018204
-0.0139615
-0.0100272
-0.0063099
-0.00273449
0.000750092
0.00417536
0.00756042
0.0109169
0.0142523
0.0175714
0.0208778
0.024174
0.0274618
0.0307427
0.0340178
0.037288
0.0405539
0.0438159
0.0470746
0.0503303
0.0535833
0.0568339
0.0600823
0.0633288
0.0665735
0.0698169
0.0730589
0.0762998
0.0795398
0.082779
0.0860176
0.0892556
0.0924931
0.0957304
0.0989673
0.102204
0.105441
0.108677
-0.218684
-0.214888
-0.211141
-0.207474
-0.203919
-0.200508
-0.197265
-0.19421
-0.191352
-0.188694
-0.186231
-0.18396
-0.181871
-0.17995
-0.178181
-0.176552
-0.175045
-0.173645
-0.172331
-0.171104
-0.169944
-0.168842
-0.167793
-0.166787
-0.165817
-0.164884
-0.163977
-0.16309
-0.162217
-0.161347
-0.16047
-0.15958
-0.15867
-0.157732
-0.156756
-0.155742
-0.154683
-0.153576
-0.152415
-0.151196
-0.149907
-0.148524
-0.147031
-0.145415
-0.143669
-0.141788
-0.139769
-0.137603
-0.135302
-0.132892
-0.130391
-0.127811
-0.125166
-0.122465
-0.119708
-0.116873
-0.113961
-0.110973
-0.107917
-0.104803
-0.101641
-0.0984355
-0.095185
-0.091889
-0.0885423
-0.0851385
-0.0816668
-0.078118
-0.0744836
-0.0707505
-0.0669035
-0.0629308
-0.0588234
-0.0545723
-0.0501768
-0.0456368
-0.0409549
-0.0361455
-0.0312231
-0.0262649
-0.0213938
-0.0166726
-0.0125365
-0.00879678
-0.00527776
-0.00187327
0.00147205
0.00478534
0.00807993
0.0113625
0.0146365
0.0179041
0.0211669
0.0244257
0.0276815
0.0309348
0.034186
0.0374353
0.0406831
0.0439294
0.0471742
0.0504178
0.0536601
0.0569013
0.0601414
0.0633806
0.0666189
0.0698564
0.0730933
0.0763296
0.0795655
0.082801
0.0860362
0.0892712
0.0925059
0.0957406
0.0989751
0.10221
0.105444
0.108678
-0.218711
-0.214972
-0.211294
-0.20771
-0.204242
-0.200912
-0.197739
-0.194744
-0.191943
-0.189339
-0.186926
-0.184698
-0.182648
-0.180761
-0.179024
-0.177422
-0.175941
-0.174565
-0.173277
-0.172076
-0.170944
-0.16987
-0.168851
-0.167877
-0.166938
-0.166036
-0.165162
-0.164305
-0.163463
-0.162625
-0.161782
-0.160926
-0.160051
-0.159149
-0.15821
-0.157232
-0.156207
-0.155128
-0.15399
-0.152786
-0.151498
-0.150103
-0.148591
-0.146944
-0.145157
-0.143226
-0.141149
-0.138923
-0.136561
-0.134091
-0.131532
-0.12889
-0.126181
-0.12341
-0.12057
-0.117639
-0.114618
-0.11151
-0.108326
-0.105073
-0.101762
-0.0984069
-0.0950178
-0.0915902
-0.0881195
-0.084599
-0.081021
-0.0773784
-0.073664
-0.0698652
-0.0659653
-0.0619506
-0.0578147
-0.0535475
-0.0491378
-0.0445743
-0.0398482
-0.0349618
-0.0299156
-0.0247677
-0.0196366
-0.0146499
-0.0107955
-0.00741128
-0.00417819
-0.000983646
0.00220735
0.00540387
0.00860707
0.0118159
0.0150291
0.0182457
0.021465
0.0246865
0.0279101
0.0311355
0.0343623
0.0375905
0.0408196
0.0440496
0.0472801
0.050511
0.0537422
0.0569735
0.0602049
0.0634363
0.0666677
0.0698991
0.0731305
0.0763619
0.0795934
0.0828249
0.0860564
0.0892881
0.0925198
0.0957516
0.0989835
0.102215
0.105447
0.108679
-0.218748
-0.215084
-0.211479
-0.207965
-0.204571
-0.201321
-0.198231
-0.195311
-0.192571
-0.190018
-0.187652
-0.185468
-0.183456
-0.181602
-0.179893
-0.178317
-0.176858
-0.175504
-0.174241
-0.173063
-0.171955
-0.170908
-0.169918
-0.168972
-0.168064
-0.167192
-0.166347
-0.165521
-0.16471
-0.163904
-0.163095
-0.162274
-0.161436
-0.160571
-0.159672
-0.158732
-0.157744
-0.156697
-0.155585
-0.154395
-0.153112
-0.151716
-0.150192
-0.148521
-0.146702
-0.144739
-0.142624
-0.14036
-0.137957
-0.135446
-0.132841
-0.130149
-0.127382
-0.12454
-0.121618
-0.118589
-0.115459
-0.112232
-0.108917
-0.105528
-0.102079
-0.0985806
-0.0950378
-0.091459
-0.087848
-0.0842027
-0.0805172
-0.0767797
-0.0729793
-0.0691033
-0.0651388
-0.061077
-0.056905
-0.0526081
-0.0481715
-0.0435762
-0.0388004
-0.0338227
-0.0286056
-0.0231506
-0.0174758
-0.0116277
-0.00870373
-0.00597093
-0.00310844
-0.000135101
0.00290949
0.00599949
0.00911972
0.012261
0.0154177
0.0185861
0.021764
0.0249497
0.0281421
0.0313401
0.034543
0.0377501
0.0409607
0.0441743
0.0473904
0.0506085
0.0538283
0.0570495
0.0602718
0.0634952
0.0667194
0.0699443
0.0731699
0.0763962
0.0796229
0.0828502
0.0860779
0.0893061
0.0925346
0.0957634
0.0989925
0.102222
0.105451
0.108681
-0.218798
-0.215231
-0.211722
-0.208299
-0.204986
-0.201806
-0.198779
-0.195921
-0.19324
-0.19074
-0.188419
-0.186271
-0.184289
-0.182462
-0.180775
-0.179217
-0.177776
-0.17644
-0.175197
-0.174039
-0.172954
-0.171932
-0.170966
-0.170047
-0.169167
-0.168323
-0.167507
-0.16671
-0.16593
-0.165157
-0.164382
-0.163597
-0.162796
-0.161971
-0.161112
-0.160213
-0.159263
-0.158252
-0.157165
-0.155993
-0.154725
-0.153334
-0.151805
-0.150124
-0.148297
-0.146327
-0.144201
-0.141925
-0.139508
-0.136976
-0.134337
-0.131601
-0.128775
-0.125861
-0.122855
-0.119731
-0.116495
-0.113152
-0.109713
-0.106188
-0.102593
-0.0989438
-0.0952563
-0.0915395
-0.0877947
-0.0840205
-0.0802134
-0.0763681
-0.0724732
-0.0685165
-0.0644828
-0.0603638
-0.0561464
-0.0518126
-0.0473441
-0.0427189
-0.0379095
-0.032885
-0.0275749
-0.021843
-0.0152363
-0.00445212
-0.00657435
-0.00478449
-0.00223706
0.000585278
0.0035307
0.00654326
0.00959844
0.0126836
0.0157912
0.0189166
0.0220567
0.0252092
0.0283722
0.0315443
0.0347244
0.0379112
0.0411038
0.0443014
0.0475032
0.0507085
0.053917
0.057128
0.0603412
0.0635563
0.0667732
0.0699915
0.0732112
0.076432
0.0796539
0.0828768
0.0861005
0.089325
0.0925501
0.0957758
0.0990019
0.102228
0.105455
0.108682
-0.218848
-0.215381
-0.211964
-0.208629
-0.2054
-0.202299
-0.199342
-0.196543
-0.193912
-0.191457
-0.189177
-0.187063
-0.185109
-0.183305
-0.18164
-0.1801
-0.178674
-0.177353
-0.176127
-0.174987
-0.173923
-0.172924
-0.171981
-0.171087
-0.170233
-0.169415
-0.168626
-0.167859
-0.167109
-0.166367
-0.165627
-0.164879
-0.164116
-0.16333
-0.162513
-0.161656
-0.160746
-0.159769
-0.158714
-0.157568
-0.15632
-0.154943
-0.153424
-0.151757
-0.149951
-0.147993
-0.145877
-0.143609
-0.141197
-0.138657
-0.135999
-0.133227
-0.130347
-0.127361
-0.124271
-0.121058
-0.117723
-0.114271
-0.110712
-0.107056
-0.103319
-0.0995229
-0.0956865
-0.0918236
-0.0879402
-0.0840372
-0.0801117
-0.0761556
-0.0721593
-0.0681154
-0.0640105
-0.0598323
-0.0555662
-0.0511937
-0.0466955
-0.0420506
-0.0372358
-0.0322269
-0.0269846
-0.0214613
-0.0156561
-0.00995577
-0.00712964
-0.00449244
-0.00173739
0.00111917
0.0040446
0.00701916
0.0100314
0.0130738
0.0161413
0.0192299
0.0223367
0.0254593
0.0285957
0.031744
0.0349028
0.0380705
0.0412461
0.0444285
0.0476165
0.0508096
0.0540068
0.0572078
0.060412
0.0636189
0.0668284
0.07004
0.0732536
0.076469
0.0796859
0.0829043
0.0861239
0.0893445
0.0925662
0.0957886
0.0990117
0.102235
0.105459
0.108683
-0.218897
-0.215522
-0.212192
-0.208944
-0.205802
-0.20278
-0.199891
-0.197151
-0.194572
-0.192162
-0.18992
-0.18784
-0.185917
-0.184135
-0.182481
-0.180954
-0.179541
-0.178233
-0.177024
-0.175902
-0.174859
-0.17388
-0.172961
-0.17209
-0.171262
-0.170469
-0.169707
-0.168969
-0.168249
-0.16754
-0.166834
-0.166123
-0.165398
-0.164652
-0.163876
-0.163059
-0.162188
-0.161249
-0.160229
-0.159114
-0.157893
-0.156545
-0.155056
-0.15342
-0.151645
-0.149714
-0.14763
-0.145387
-0.142992
-0.140454
-0.137785
-0.134984
-0.132053
-0.129001
-0.125836
-0.122545
-0.119121
-0.115572
-0.111899
-0.108117
-0.104247
-0.100311
-0.0963317
-0.0923248
-0.0883004
-0.084264
-0.080214
-0.0761439
-0.0720463
-0.0679149
-0.0637371
-0.0594949
-0.0551734
-0.0507564
-0.0462267
-0.0415666
-0.0367589
-0.0317934
-0.0266677
-0.0214191
-0.0161907
-0.011381
-0.00765823
-0.00444698
-0.00143063
0.0015231
0.00446947
0.00743128
0.0104167
0.0134276
0.016463
0.0195209
0.0225992
0.0256957
0.0288084
0.0319354
0.035075
0.0382254
0.0413853
0.0445534
0.0477286
0.05091
0.0540966
0.0572879
0.0604832
0.0636821
0.0668843
0.0700893
0.0732968
0.0765066
0.0797186
0.0829323
0.0861477
0.0893645
0.0925826
0.0958017
0.0990217
0.102242
0.105463
0.108685
-0.218946
-0.21567
-0.212436
-0.209274
-0.206204
-0.203247
-0.20042
-0.197738
-0.195211
-0.192843
-0.190636
-0.188585
-0.186682
-0.184918
-0.183284
-0.181774
-0.180375
-0.179084
-0.177894
-0.176793
-0.175773
-0.174818
-0.173923
-0.173077
-0.172275
-0.171509
-0.170775
-0.170067
-0.169378
-0.168701
-0.16803
-0.167356
-0.166669
-0.165961
-0.165224
-0.164446
-0.163614
-0.162712
-0.161729
-0.160651
-0.159466
-0.158152
-0.156695
-0.155098
-0.153359
-0.151463
-0.149413
-0.147202
-0.144835
-0.142312
-0.139636
-0.136807
-0.133828
-0.130719
-0.127494
-0.124146
-0.120656
-0.117021
-0.11324
-0.109336
-0.105331
-0.101255
-0.0971327
-0.0929837
-0.0888223
-0.0846564
-0.0804864
-0.0763065
-0.0721106
-0.0678927
-0.0636404
-0.0593345
-0.0549581
-0.0504939
-0.0459272
-0.0412454
-0.0364403
-0.0315137
-0.0264879
-0.0214281
-0.0164734
-0.011843
-0.00780348
-0.00430635
-0.00113326
0.00188436
0.00484446
0.00779582
0.01076
0.0137454
0.0167543
0.0197865
0.0228407
0.0259149
0.0290071
0.0321155
0.0352382
0.0383732
0.0415191
0.0446744
0.0478378
0.0510083
0.054185
0.0573671
0.060554
0.0637451
0.0669401
0.0701386
0.0733402
0.0765445
0.0797514
0.0829606
0.0861718
0.0893848
0.0925992
0.095815
0.0990318
0.102249
0.105468
0.108686
-0.21899
-0.215802
-0.212657
-0.209574
-0.206576
-0.203683
-0.200916
-0.198289
-0.19581
-0.193483
-0.191309
-0.189285
-0.187406
-0.185663
-0.184049
-0.182558
-0.181184
-0.179919
-0.178756
-0.177685
-0.176695
-0.175773
-0.174908
-0.174093
-0.173321
-0.172587
-0.171885
-0.17121
-0.170554
-0.169912
-0.169276
-0.168638
-0.167989
-0.167319
-0.166618
-0.165876
-0.165079
-0.164214
-0.163267
-0.162223
-0.161068
-0.159785
-0.158363
-0.156803
-0.155093
-0.15323
-0.151214
-0.149039
-0.1467
-0.144186
-0.141492
-0.138629
-0.135606
-0.132452
-0.12919
-0.125806
-0.122264
-0.118549
-0.114669
-0.11065
-0.106516
-0.1023
-0.0980312
-0.0937378
-0.0894413
-0.0851507
-0.0808661
-0.0765834
-0.0722969
-0.0679965
-0.0636704
-0.0593001
-0.0548661
-0.050353
-0.0457464
-0.0410369
-0.0362221
-0.0313085
-0.0263234
-0.0213285
-0.0164311
-0.011744
-0.00748424
-0.00389886
-0.000722229
0.0022718
0.00520428
0.0081292
0.0110683
0.0140295
0.0170152
0.0200255
0.0230591
0.0261144
0.0291894
0.0322819
0.0353901
0.0385119
0.0416455
0.0447895
0.0479424
0.0511031
0.0542707
0.0574443
0.0606233
0.0638071
0.0669953
0.0701875
0.0733832
0.0765822
0.0797842
0.0829888
0.0861958
0.0894049
0.0926158
0.0958283
0.0990419
0.102257
0.105472
0.108688
-0.219029
-0.215921
-0.212854
-0.209846
-0.206918
-0.204089
-0.201378
-0.198797
-0.19636
-0.194073
-0.191936
-0.189944
-0.188093
-0.186377
-0.184792
-0.183334
-0.181996
-0.180772
-0.179653
-0.17863
-0.177685
-0.176805
-0.175983
-0.17521
-0.17448
-0.173788
-0.173126
-0.172491
-0.171874
-0.17127
-0.170673
-0.170074
-0.169463
-0.168828
-0.168162
-0.167451
-0.166683
-0.165845
-0.164925
-0.163905
-0.162773
-0.161514
-0.160117
-0.158578
-0.156891
-0.155054
-0.153063
-0.150914
-0.148588
-0.146065
-0.143338
-0.140425
-0.137352
-0.13416
-0.130873
-0.127461
-0.123873
-0.120084
-0.116104
-0.111962
-0.107692
-0.103334
-0.0989216
-0.0944897
-0.090063
-0.085654
-0.0812642
-0.0768905
-0.0725242
-0.0681511
-0.0637578
-0.0593254
-0.0548334
-0.0502686
-0.0456189
-0.040876
-0.0360371
-0.0311052
-0.0260979
-0.0210517
-0.016056
-0.0111514
-0.00651003
-0.00308594
-0.000130104
0.00271562
0.00556335
0.0084391
0.0113458
0.0142822
0.0172467
0.0202378
0.0232539
0.0262932
0.0293536
0.0324329
0.035529
0.0386396
0.041763
0.0448973
0.0480411
0.0511933
0.0543527
0.0575186
0.0606904
0.0638673
0.0670491
0.0702353
0.0734254
0.0766193
0.0798165
0.0830167
0.0862196
0.0894249
0.0926323
0.0958414
0.0990519
0.102264
0.105476
0.108689
-0.219065
-0.216028
-0.213028
-0.210087
-0.20722
-0.204449
-0.201791
-0.199263
-0.196873
-0.194627
-0.192525
-0.190567
-0.188751
-0.187076
-0.185536
-0.184129
-0.182848
-0.181686
-0.180635
-0.179679
-0.178799
-0.177985
-0.177228
-0.17652
-0.175854
-0.175222
-0.174619
-0.174038
-0.173472
-0.172917
-0.172364
-0.171806
-0.171231
-0.17063
-0.16999
-0.169302
-0.168553
-0.167733
-0.166826
-0.165819
-0.164696
-0.163445
-0.162056
-0.160523
-0.158842
-0.157008
-0.15502
-0.15287
-0.150531
-0.147968
-0.145178
-0.142187
-0.139049
-0.135815
-0.132505
-0.129069
-0.125429
-0.121549
-0.117448
-0.113169
-0.108755
-0.10425
-0.0996949
-0.0951276
-0.0905758
-0.086057
-0.0815734
-0.0771207
-0.0726867
-0.0682534
-0.0638023
-0.0593143
-0.0547699
-0.0501548
-0.0454598
-0.0406773
-0.0358035
-0.0308367
-0.0257826
-0.0206491
-0.0154777
-0.010162
-0.00426679
-0.00173947
0.000622123
0.00318578
0.00590644
0.00872107
0.0115932
0.0145054
0.0174504
0.0204244
0.0234253
0.0264509
0.0294992
0.0325676
0.0356537
0.0387554
0.0418703
0.0449967
0.0481329
0.0512778
0.0544301
0.0575893
0.0607544
0.0639252
0.067101
0.0702815
0.0734664
0.0766553
0.0798479
0.0830438
0.0862428
0.0894444
0.0926483
0.0958542
0.0990617
0.10227
0.10548
0.10869
-0.219097
-0.216121
-0.21318
-0.210294
-0.207482
-0.204764
-0.202158
-0.19968
-0.197338
-0.195137
-0.193082
-0.191174
-0.189414
-0.187799
-0.186326
-0.184994
-0.183797
-0.182727
-0.181772
-0.180914
-0.180134
-0.179419
-0.178762
-0.178151
-0.17758
-0.177038
-0.176519
-0.176014
-0.175518
-0.175024
-0.174526
-0.174015
-0.173479
-0.172907
-0.172291
-0.171617
-0.170877
-0.17006
-0.169151
-0.168138
-0.167006
-0.165742
-0.164335
-0.16278
-0.161073
-0.159211
-0.157191
-0.155005
-0.152615
-0.149974
-0.147078
-0.143973
-0.140735
-0.137434
-0.134083
-0.130598
-0.126873
-0.122864
-0.118606
-0.114159
-0.109579
-0.104917
-0.100218
-0.0955181
-0.0908478
-0.086227
-0.0816624
-0.0771446
-0.0726563
-0.0681753
-0.0636764
-0.05914
-0.054549
-0.0498887
-0.0451514
-0.0403308
-0.0354243
-0.0304322
-0.0253492
-0.0201766
-0.0149488
-0.00953532
0.000915674
-8.16919e-05
0.00128032
0.00356433
0.00619052
0.00896325
0.0118097
0.0147019
0.0176294
0.0205878
0.0235749
0.0265885
0.0296263
0.0326856
0.0357639
0.0388583
0.0419666
0.0450867
0.0482169
0.0513557
0.0545022
0.0576554
0.0608148
0.06398
0.0671504
0.0703257
0.0735056
0.0766899
0.0798781
0.08307
0.0862651
0.0894632
0.0926638
0.0958666
0.0990712
0.102277
0.105484
0.108692
-0.219126
-0.216206
-0.213319
-0.210487
-0.207729
-0.205066
-0.202514
-0.200088
-0.1978
-0.195656
-0.193663
-0.191823
-0.190137
-0.188605
-0.187227
-0.186001
-0.184921
-0.183976
-0.183154
-0.182433
-0.181795
-0.181225
-0.180712
-0.180243
-0.179808
-0.179396
-0.178997
-0.178601
-0.178201
-0.17779
-0.177364
-0.176911
-0.17642
-0.175881
-0.175286
-0.174622
-0.173881
-0.173053
-0.172125
-0.171085
-0.169918
-0.168614
-0.16716
-0.165551
-0.163782
-0.16185
-0.159753
-0.157487
-0.155003
-0.152229
-0.149163
-0.14588
-0.142486
-0.139078
-0.13563
-0.132011
-0.128124
-0.123929
-0.119466
-0.114813
-0.11004
-0.105204
-0.100349
-0.095514
-0.0907257
-0.0860045
-0.0813634
-0.0767917
-0.0722638
-0.0677518
-0.0632217
-0.0586501
-0.0540213
-0.0493222
-0.0445467
-0.0396928
-0.034766
-0.0297801
-0.0247385
-0.0196469
-0.0145185
-0.0092732
-0.00357207
-0.00113779
0.00117046
0.00369649
0.00638359
0.00916414
0.012001
0.0148779
0.017789
0.020732
0.0237055
0.0267077
0.029736
0.0327876
0.0358594
0.0389483
0.0420516
0.0451669
0.0482924
0.0514265
0.0545682
0.0577165
0.060871
0.0640312
0.0671968
0.0703674
0.0735428
0.0767227
0.0799069
0.0830949
0.0862864
0.0894811
0.0926786
0.0958784
0.0990802
0.102283
0.105488
0.108693
-0.21916
-0.216307
-0.213484
-0.210713
-0.208016
-0.205413
-0.202923
-0.200561
-0.19834
-0.196268
-0.194355
-0.192604
-0.191016
-0.189596
-0.188343
-0.187255
-0.186323
-0.185538
-0.184888
-0.184349
-0.1839
-0.183522
-0.183202
-0.182925
-0.182677
-0.182442
-0.182208
-0.181963
-0.181696
-0.181401
-0.181073
-0.180699
-0.180268
-0.179771
-0.179201
-0.178547
-0.177799
-0.176951
-0.17599
-0.174905
-0.173685
-0.172318
-0.17079
-0.169093
-0.167227
-0.165185
-0.162973
-0.160585
-0.15795
-0.154968
-0.151654
-0.148114
-0.144489
-0.140875
-0.137181
-0.133261
-0.129076
-0.12461
-0.1199
-0.115008
-0.110008
-0.104959
-0.0999101
-0.0949083
-0.0899909
-0.0851822
-0.0804815
-0.0758679
-0.0713114
-0.0667828
-0.0622393
-0.0576473
-0.0529891
-0.0482565
-0.0434473
-0.03857
-0.0336437
-0.0287048
-0.0237941
-0.0189333
-0.0141393
-0.00946784
-0.00510533
-0.00184418
0.00100971
0.00377784
0.006553
0.00935413
0.0121841
0.0150443
0.0179367
0.0208622
0.0238207
0.0268109
0.0298299
0.0328745
0.0359409
0.0390255
0.0421252
0.0452372
0.0483592
0.0514898
0.0546277
0.0577722
0.0609225
0.0640785
0.0672398
0.0704062
0.0735775
0.0767535
0.0799338
0.0831183
0.0863065
0.089498
0.0926925
0.0958895
0.0990887
0.102289
0.105491
0.108694
-0.219213
-0.216465
-0.213739
-0.21106
-0.208451
-0.205932
-0.203525
-0.201248
-0.199116
-0.197142
-0.195333
-0.193695
-0.192231
-0.19095
-0.189846
-0.188918
-0.188157
-0.187559
-0.18711
-0.186786
-0.18656
-0.186414
-0.186331
-0.186292
-0.186279
-0.186271
-0.18625
-0.186202
-0.186113
-0.185974
-0.185781
-0.185517
-0.185173
-0.184739
-0.18421
-0.183576
-0.182829
-0.18196
-0.180964
-0.179831
-0.178551
-0.177114
-0.175501
-0.173705
-0.171723
-0.169549
-0.167195
-0.164643
-0.16179
-0.158512
-0.154838
-0.150891
-0.146881
-0.142898
-0.138793
-0.1344
-0.129745
-0.124879
-0.119842
-0.114657
-0.10937
-0.104048
-0.098751
-0.0935365
-0.0884546
-0.0835418
-0.0787916
-0.0741606
-0.0695934
-0.0650536
-0.0605014
-0.0558939
-0.0512078
-0.0464468
-0.0416179
-0.0367399
-0.0318496
-0.0270039
-0.0222884
-0.0177503
-0.0133682
-0.00917047
-0.00528075
-0.00192105
0.00110163
0.00396824
0.00677601
0.00957202
0.0123802
0.0152138
0.0180805
0.0209838
0.0239245
0.026901
0.02991
0.0329476
0.0360092
0.0390905
0.0421877
0.0452974
0.0484173
0.0515455
0.0546806
0.057822
0.0609691
0.0641215
0.0672791
0.0704419
0.0736095
0.0767819
0.0799588
0.0831399
0.086325
0.0895136
0.0927054
0.0958998
0.0990965
0.102295
0.105495
0.108695
-0.219315
-0.216764
-0.214222
-0.211706
-0.209242
-0.206856
-0.204576
-0.202424
-0.200418
-0.198573
-0.196898
-0.1954
-0.194086
-0.192961
-0.192017
-0.191253
-0.190668
-0.190258
-0.19001
-0.1899
-0.189902
-0.189996
-0.190163
-0.190382
-0.19063
-0.190878
-0.191105
-0.191293
-0.191423
-0.191485
-0.191465
-0.191353
-0.191134
-0.190799
-0.190343
-0.189756
-0.189031
-0.188165
-0.187154
-0.185991
-0.184672
-0.183193
-0.181525
-0.179659
-0.177589
-0.175306
-0.17281
-0.170065
-0.166933
-0.163259
-0.159067
-0.154526
-0.149974
-0.145473
-0.140805
-0.135718
-0.130355
-0.1249
-0.119405
-0.11381
-0.108123
-0.102418
-0.0967745
-0.0912722
-0.0859754
-0.0809351
-0.076138
-0.0715
-0.0669323
-0.062376
-0.0577921
-0.0531451
-0.0484122
-0.043616
-0.0387823
-0.0339379
-0.0291408
-0.0244619
-0.0199954
-0.0158047
-0.0118543
-0.00811733
-0.00461125
-0.00143011
0.00151928
0.00433859
0.00709877
0.00984506
0.0126054
0.0153963
0.0182271
0.0211016
0.0240203
0.0269806
0.0299785
0.0330087
0.0360657
0.0391443
0.0422397
0.0453482
0.0484668
0.0515935
0.0547268
0.0578659
0.0610104
0.0641599
0.0673145
0.070474
0.0736384
0.0768076
0.0799815
0.0831596
0.0863419
0.0895278
0.0927171
0.0959092
0.0991036
0.1023
0.105498
0.108696
-0.219515
-0.217348
-0.215154
-0.212943
-0.21074
-0.208581
-0.206503
-0.20454
-0.202715
-0.201045
-0.199543
-0.198218
-0.19707
-0.196109
-0.195318
-0.1947
-0.194259
-0.193993
-0.193892
-0.193935
-0.194104
-0.19438
-0.194745
-0.195177
-0.19565
-0.196131
-0.196595
-0.197019
-0.197383
-0.197667
-0.197856
-0.19793
-0.197877
-0.197686
-0.197348
-0.196855
-0.196202
-0.195386
-0.194414
-0.193282
-0.19199
-0.190549
-0.188919
-0.187081
-0.18502
-0.182716
-0.180144
-0.177233
-0.173794
-0.169626
-0.16478
-0.159496
-0.15428
-0.149155
-0.143781
-0.137737
-0.131412
-0.125141
-0.118956
-0.112742
-0.106463
-0.100194
-0.0940482
-0.0881422
-0.0825619
-0.0773578
-0.0724959
-0.0678418
-0.0632543
-0.0586472
-0.0539766
-0.0492121
-0.0443638
-0.0394932
-0.0346585
-0.0298929
-0.0252624
-0.0208362
-0.0167017
-0.0129265
-0.00947896
-0.00628215
-0.00327832
-0.000458396
0.00224489
0.0048961
0.0075323
0.0101822
0.0128661
0.0155966
0.0183802
0.0212187
0.0241107
0.0270521
0.0300372
0.0330593
0.0361116
0.0391877
0.042282
0.0453899
0.0485081
0.051634
0.0547663
0.0579039
0.0610464
0.0641937
0.0673457
0.0705025
0.0736642
0.0768306
0.0800016
0.0831772
0.0863569
0.0895405
0.0927275
0.0959175
0.0991099
0.102304
0.1055
0.108697
-0.2199
-0.21847
-0.216928
-0.215268
-0.21352
-0.211737
-0.20998
-0.208302
-0.206737
-0.205305
-0.204022
-0.202903
-0.201942
-0.201141
-0.200486
-0.199965
-0.199588