/*--------------------------------*- C++ -*----------------------------------*\
  =========                 |
  \\      /  F ield         | OpenFOAM: The Open Source CFD Toolbox
   \\    /   O peration     | Website:  https://openfoam.org
    \\  /    A nd           | Version:  6
     \\/     M anipulation  |
\*---------------------------------------------------------------------------*/
FoamFile
{
    version     2.0;
    format      ascii;
    class       surfaceScalarField;
    location    "2200";
    object      phi;
}
// * * * * * * * * * * * * * * * * * * * * * * * * * * * * * * * * * * * * * //

dimensions      [0 3 -1 0 0 0 0];

internalField   nonuniform List<scalar> 
9440
(
1.39113e-11
-1.39113e-11
1.07936e-11
3.12123e-12
-3.63191e-11
4.71155e-11
-7.91686e-11
4.28518e-11
-1.38417e-10
5.92499e-11
-2.20604e-10
8.21886e-11
-2.88862e-10
6.82592e-11
-4.55988e-10
1.67127e-10
-8.06821e-10
3.50833e-10
-1.1553e-09
3.48476e-10
-1.28074e-09
1.25441e-10
-1.49277e-09
2.12034e-10
-1.54532e-09
5.25411e-11
-1.54471e-09
-6.08981e-13
-1.59432e-09
4.96077e-11
-1.56652e-09
-2.77977e-11
-1.53618e-09
-3.03338e-11
-1.49251e-09
-4.36747e-11
-1.40864e-09
-8.3866e-11
-1.43622e-09
2.75809e-11
-1.40919e-09
-2.70314e-11
-1.4244e-09
1.5215e-11
-1.56646e-09
1.42065e-10
-1.83777e-09
2.71314e-10
-2.1606e-09
3.22828e-10
-2.36157e-09
2.00976e-10
-2.47751e-09
1.15948e-10
-2.58628e-09
1.08763e-10
-2.65044e-09
6.41663e-11
-2.72721e-09
7.67759e-11
-2.75753e-09
3.03143e-11
-2.781e-09
2.34736e-11
-2.73808e-09
-4.29215e-11
-2.65757e-09
-8.05062e-11
-2.60274e-09
-5.48268e-11
-2.64108e-09
3.83421e-11
-2.63787e-09
-3.20151e-12
-2.61893e-09
-1.89407e-11
-2.62942e-09
1.04879e-11
-2.5949e-09
-3.45192e-11
-2.55047e-09
-4.44211e-11
-2.43244e-09
-1.18032e-10
-2.17997e-09
-2.52475e-10
-1.91959e-09
-2.60376e-10
-1.67069e-09
-2.48903e-10
-1.59194e-09
-7.87508e-11
-1.46007e-09
-1.31876e-10
-1.29897e-09
-1.61102e-10
-1.23135e-09
-6.76204e-11
-1.16095e-09
-7.04071e-11
-1.11212e-09
-4.8833e-11
-1.07801e-09
-3.41136e-11
-9.78385e-10
-9.96301e-11
-8.17209e-10
-1.61179e-10
-5.5087e-10
-2.66342e-10
-3.13482e-10
-2.3739e-10
-5.96499e-13
-3.12889e-10
3.08349e-10
-3.08949e-10
6.26286e-10
-3.17941e-10
8.62806e-10
-2.36523e-10
1.46523e-09
-6.02426e-10
1.44613e-09
1.90986e-11
1.51774e-09
-7.1614e-11
1.82197e-09
-3.04232e-10
2.02159e-09
-1.99619e-10
2.11246e-09
-9.08699e-11
2.19636e-09
-8.39035e-11
2.25779e-09
-6.14246e-11
2.18703e-09
7.07584e-11
2.06735e-09
1.19685e-10
1.93463e-09
1.32719e-10
1.72403e-09
2.10607e-10
1.54596e-09
1.78074e-10
1.29354e-09
2.52422e-10
1.11539e-09
1.78151e-10
9.1385e-10
2.01541e-10
6.71673e-10
2.42181e-10
6.63489e-10
8.18723e-12
8.45123e-10
-1.8163e-10
7.90208e-10
5.4917e-11
8.50472e-15
7.90197e-10
8.3077e-19
2.46957e-18
2.04263e-19
6.26507e-19
3.09032e-20
1.73298e-19
2.79481e-20
4.89378e-21
9.61585e-20
-6.63605e-20
1.97656e-19
-1.00359e-19
3.15878e-19
-1.17661e-19
4.42294e-19
-1.26029e-19
5.72086e-19
-1.29233e-19
7.01634e-19
-1.28857e-19
8.27911e-19
-1.25597e-19
9.48384e-19
-1.19787e-19
1.06085e-18
-1.1169e-19
1.16343e-18
-1.01597e-19
1.25461e-18
-8.98266e-20
1.33315e-18
-7.67251e-20
1.39804e-18
-6.26815e-20
1.44845e-18
-4.81121e-20
1.48378e-18
-3.34025e-20
1.5038e-18
-1.8843e-20
1.50878e-18
-4.61314e-21
1.49938e-18
9.17954e-21
1.47653e-18
2.24451e-20
1.44113e-18
3.50771e-20
1.39404e-18
4.69504e-20
1.33601e-18
5.79426e-20
1.26784e-18
6.796e-20
1.19043e-18
7.69502e-20
1.10478e-18
8.49025e-20
1.01196e-18
9.18389e-20
9.13027e-19
9.78105e-20
8.08954e-19
1.02899e-19
7.00629e-19
1.07207e-19
5.88845e-19
1.10835e-19
4.74299e-19
1.13846e-19
3.57597e-19
1.16258e-19
2.39279e-19
1.18049e-19
1.19883e-19
1.19198e-19
1.19712e-19
1.69867e-11
-3.08942e-11
2.01656e-11
-5.28983e-14
-6.84092e-11
1.35694e-10
-2.59126e-10
2.33571e-10
-5.33432e-10
3.33558e-10
-8.88139e-10
4.36897e-10
-1.17676e-09
3.56881e-10
-1.31891e-09
3.09274e-10
-1.40768e-09
4.39605e-10
-1.54883e-09
4.89628e-10
-1.77314e-09
3.49752e-10
-1.76103e-09
1.99919e-10
-1.90658e-09
1.98086e-10
-1.93492e-09
2.77349e-11
-1.94225e-09
5.6938e-11
-2.00711e-09
3.70594e-11
-1.99926e-09
-3.81809e-11
-1.9701e-09
-7.28352e-11
-1.95427e-09
-9.96876e-11
-1.89007e-09
-3.66194e-11
-1.90531e-09
-1.17855e-11
-1.94739e-09
5.73034e-11
-1.998e-09
1.92682e-10
-2.14948e-09
4.22797e-10
-2.2801e-09
4.53457e-10
-2.46537e-09
3.8625e-10
-2.68059e-09
3.31174e-10
-2.76846e-09
1.96637e-10
-2.85519e-09
1.50899e-10
-2.86746e-09
8.90486e-11
-2.87588e-09
3.87418e-11
-2.84497e-09
-7.43416e-12
-2.81444e-09
-7.34462e-11
-2.71397e-09
-1.80973e-10
-2.64634e-09
-1.22457e-10
-2.61091e-09
2.91721e-12
-2.62241e-09
8.29827e-12
-2.55206e-09
-8.92868e-11
-2.52758e-09
-1.3984e-11
-2.43189e-09
-1.30207e-10
-2.25239e-09
-2.23922e-10
-2.13347e-09
-2.36958e-10
-1.90832e-09
-4.77626e-10
-1.77831e-09
-3.90389e-10
-1.60277e-09
-4.24445e-10
-1.48989e-09
-1.9164e-10
-1.36979e-09
-2.51983e-10
-1.19504e-09
-3.35855e-10
-1.11832e-09
-1.44346e-10
-1.07437e-09
-1.14362e-10
-1.00636e-09
-1.16847e-10
-9.58557e-10
-8.19257e-11
-9.02112e-10
-1.5608e-10
-7.67073e-10
-2.96223e-10
-5.74623e-10
-4.58798e-10
-3.07173e-10
-5.04845e-10
8.76609e-12
-6.28835e-10
3.24657e-10
-6.24847e-10
6.3601e-10
-6.29299e-10
9.05871e-10
-5.06391e-10
1.14365e-09
-8.40211e-10
1.46629e-09
-3.03542e-10
1.55069e-09
-1.56019e-10
1.89081e-09
-6.44352e-10
2.00348e-09
-3.12293e-10
2.0993e-09
-1.86687e-10
2.12503e-09
-1.09631e-10
2.13844e-09
-7.48298e-11
2.06663e-09
1.42568e-10
1.97179e-09
2.14535e-10
1.84733e-09
2.57183e-10
1.73395e-09
3.2399e-10
1.47507e-09
4.36963e-10
1.31175e-09
4.15749e-10
1.05635e-09
4.3355e-10
6.13246e-10
6.44652e-10
4.35725e-10
4.19706e-10
4.45559e-10
-1.64081e-12
4.76678e-10
-2.1274e-10
3.15424e-10
2.1619e-10
-2.22494e-15
1.10566e-09
-5.62233e-19
1.5206e-18
-2.56603e-19
3.26892e-19
-1.42717e-19
6.32842e-20
-4.62704e-20
-8.94663e-20
6.12703e-20
-1.72606e-19
1.8044e-19
-2.18561e-19
3.0751e-19
-2.43895e-19
4.39091e-19
-2.56813e-19
5.72461e-19
-2.61619e-19
7.04894e-19
-2.6003e-19
8.33722e-19
-2.52896e-19
9.56481e-19
-2.40716e-19
1.07094e-18
-2.23949e-19
1.1752e-18
-2.03179e-19
1.26771e-18
-1.79163e-19
1.34719e-18
-1.52766e-19
1.41261e-18
-1.2483e-19
1.46316e-18
-9.60565e-20
1.49834e-18
-6.69569e-20
1.51803e-18
-3.78954e-20
1.52257e-18
-9.18558e-21
1.51265e-18
1.88267e-20
1.48916e-18
4.57537e-20
1.45301e-18
7.122e-20
1.40503e-18
9.49283e-20
1.34603e-18
1.1669e-19
1.27683e-18
1.36414e-19
1.19838e-18
1.54086e-19
1.11171e-18
1.69746e-19
1.01793e-18
1.83486e-19
9.18115e-19
1.95446e-19
8.13262e-19
2.05787e-19
7.04256e-19
2.14655e-19
5.91857e-19
2.22144e-19
4.76711e-19
2.28294e-19
3.59387e-19
2.33115e-19
2.40428e-19
2.36628e-19
1.20396e-19
2.38897e-19
2.40032e-19
-1.09391e-10
7.84996e-11
-1.75218e-10
6.5777e-11
-2.21992e-10
1.82469e-10
-4.32652e-10
4.44233e-10
-5.81401e-10
4.82308e-10
-8.94457e-10
7.49953e-10
-1.33325e-09
7.95675e-10
-1.67814e-09
6.54161e-10
-1.78209e-09
5.43561e-10
-1.71234e-09
4.19871e-10
-1.85652e-09
4.9393e-10
-1.93306e-09
2.76462e-10
-2.00777e-09
2.72797e-10
-2.2103e-09
2.30261e-10
-2.21293e-09
5.95697e-11
-2.31972e-09
1.43855e-10
-2.34903e-09
-8.86903e-12
-2.35521e-09
-6.66608e-11
-2.38397e-09
-7.09178e-11
-2.33596e-09
-8.46306e-11
-2.3209e-09
-2.68403e-11
-2.36588e-09
1.02289e-10
-2.36931e-09
1.96123e-10
-2.39474e-09
4.48232e-10
-2.46398e-09
5.22698e-10
-2.56048e-09
4.82762e-10
-2.6402e-09
4.10897e-10
-2.73435e-09
2.9079e-10
-2.80987e-09
2.26419e-10
-2.85502e-09
1.34207e-10
-2.81161e-09
-4.67131e-12
-2.77376e-09
-4.52778e-11
-2.75542e-09
-9.17864e-11
-2.64813e-09
-2.88264e-10
-2.56888e-09
-2.01705e-10
-2.44249e-09
-1.2347e-10
-2.40398e-09
-3.02036e-11
-2.29339e-09
-1.9988e-10
-2.21139e-09
-9.59761e-11
-2.16356e-09
-1.78043e-10
-2.06611e-09
-3.21374e-10
-1.9429e-09
-3.60166e-10
-1.68499e-09
-7.35537e-10
-1.4934e-09
-5.81978e-10
-1.31192e-09
-6.05926e-10
-1.21301e-09
-2.90552e-10
-1.15317e-09
-3.11832e-10
-9.7705e-10
-5.11974e-10
-8.6581e-10
-2.55588e-10
-7.79347e-10
-2.00828e-10
-7.41445e-10
-1.54752e-10
-7.0257e-10
-1.20805e-10
-6.69833e-10
-1.88822e-10
-5.80447e-10
-3.85613e-10
-4.56756e-10
-5.82494e-10
-2.06771e-10
-7.54836e-10
5.11051e-11
-8.86717e-10
3.45139e-10
-9.18887e-10
5.91706e-10
-8.75872e-10
8.46398e-10
-7.61087e-10
9.09476e-10
-9.03294e-10
1.30677e-09
-7.00836e-10
1.51906e-09
-3.68315e-10
1.71702e-09
-8.42309e-10
1.77146e-09
-3.6674e-10
1.83354e-09
-2.48763e-10
1.86432e-09
-1.40413e-10
1.88949e-09
-9.999e-11
1.88296e-09
1.49092e-10
1.83283e-09
2.6467e-10
1.74941e-09
3.406e-10
1.61359e-09
4.59815e-10
1.41482e-09
6.35735e-10
1.20568e-09
6.24892e-10
1.01676e-09
6.22477e-10
9.54583e-10
7.06828e-10
5.37603e-10
8.3669e-10
-3.11207e-10
8.47173e-10
-6.83406e-10
1.59458e-10
-7.39729e-11
-3.93251e-10
-2.28594e-15
1.03169e-09
-8.57018e-19
1.63783e-18
-5.18891e-19
-9.82584e-21
-2.94231e-19
-1.59001e-19
-1.28234e-19
-2.54072e-19
1.64471e-20
-3.16551e-19
1.55651e-19
-3.57322e-19
2.94592e-19
-3.82472e-19
4.34285e-19
-3.96005e-19
5.7405e-19
-4.0036e-19
7.12028e-19
-3.96467e-19
8.45902e-19
-3.84823e-19
9.73248e-19
-3.65843e-19
1.09171e-18
-3.40105e-19
1.19922e-18
-3.08466e-19
1.2941e-18
-2.72016e-19
1.37513e-18
-2.31954e-19
1.44139e-18
-1.89425e-19
1.49226e-18
-1.45421e-19
1.5274e-18
-1.00751e-19
1.54674e-18
-5.60925e-20
1.55058e-18
-1.20755e-20
1.53958e-18
3.06548e-20
1.51462e-18
7.14583e-20
1.47671e-18
1.09777e-19
1.42679e-18
1.45216e-19
1.36575e-18
1.77575e-19
1.2945e-18
2.06821e-19
1.21404e-18
2.33036e-19
1.12545e-18
2.56366e-19
1.02989e-18
2.76971e-19
9.28456e-19
2.95015e-19
8.2213e-19
3.10645e-19
7.11746e-19
3.23993e-19
5.98007e-19
3.35164e-19
4.81531e-19
3.44245e-19
3.629e-19
3.5132e-19
2.42698e-19
3.56493e-19
1.21531e-19
3.59894e-19
3.61619e-19
-6.36929e-11
1.42194e-10
-2.29973e-10
2.32057e-10
-4.83253e-10
4.3575e-10
-8.57321e-10
8.183e-10
-1.07538e-09
7.0037e-10
-1.13349e-09
8.08056e-10
-1.24102e-09
9.0321e-10
-1.48909e-09
9.02227e-10
-1.69864e-09
7.53114e-10
-1.81287e-09
5.34104e-10
-1.94821e-09
6.29263e-10
-2.14094e-09
4.69199e-10
-2.18481e-09
3.16665e-10
-2.3196e-09
3.65053e-10
-2.49062e-09
2.30593e-10
-2.55515e-09
2.08383e-10
-2.61536e-09
5.13497e-11
-2.6512e-09
-3.08227e-11
-2.6999e-09
-2.22153e-11
-2.68627e-09
-9.82481e-11
-2.67939e-09
-3.372e-11
-2.66774e-09
9.0641e-11
-2.6538e-09
1.82191e-10
-2.67848e-09
4.72917e-10
-2.68041e-09
5.24634e-10
-2.68656e-09
4.88923e-10
-2.72961e-09
4.53948e-10
-2.77103e-09
3.32212e-10
-2.80999e-09
2.65385e-10
-2.85857e-09
1.82793e-10
-2.75735e-09
-1.05894e-10
-2.77809e-09
-2.45383e-11
-2.72579e-09
-1.44082e-10
-2.70286e-09
-3.11192e-10
-2.5851e-09
-3.1946e-10
-2.48129e-09
-2.27285e-10
-2.40018e-09
-1.1131e-10
-2.26706e-09
-3.32996e-10
-2.10102e-09
-2.62018e-10
-2.10243e-09
-1.76636e-10
-1.92924e-09
-4.94561e-10
-1.71576e-09
-5.7364e-10
-1.67997e-09
-7.71331e-10
-1.34427e-09
-9.17686e-10
-1.21344e-09
-7.36754e-10
-1.15659e-09
-3.47401e-10
-1.02296e-09
-4.4546e-10
-7.50343e-10
-7.84596e-10
-6.21086e-10
-3.84846e-10
-4.5301e-10
-3.68905e-10
-3.97717e-10
-2.10047e-10
-3.79645e-10
-1.38879e-10
-3.68982e-10
-1.99488e-10
-3.32211e-10
-4.22388e-10
-2.48777e-10
-6.65932e-10
-1.10855e-10
-8.92764e-10
4.95075e-11
-1.04709e-09
2.44567e-10
-1.11395e-09
4.73904e-10
-1.10521e-09
7.43047e-10
-1.03024e-09
8.08091e-10
-9.68341e-10
1.02253e-09
-9.15276e-10
1.3603e-09
-7.0609e-10
1.2887e-09
-7.70711e-10
1.40885e-09
-4.86881e-10
1.49686e-09
-3.36773e-10
1.54066e-09
-1.8422e-10
1.65621e-09
-2.15542e-10
1.67132e-09
1.3399e-10
1.65566e-09
2.8033e-10
1.5851e-09
4.11153e-10
1.45743e-09
5.87486e-10
1.30161e-09
7.91563e-10
1.13551e-09
7.90984e-10
9.89945e-10
7.68048e-10
7.45631e-10
9.51146e-10
3.31059e-10
1.25127e-09
6.70275e-11
1.11121e-09
-2.37694e-10
4.64189e-10
-2.25128e-11
-6.08428e-10
-1.50707e-15
1.00918e-09
-1.15621e-18
9.272e-19
-6.66801e-19
-4.98607e-19
-3.88105e-19
-4.36202e-19
-1.89571e-19
-4.51792e-19
-2.32249e-20
-4.82582e-19
1.30959e-19
-5.1124e-19
2.8106e-19
-5.32181e-19
4.2993e-19
-5.44244e-19
5.77942e-19
-5.47038e-19
7.23672e-19
-5.4017e-19
8.64882e-19
-5.23527e-19
9.98985e-19
-4.97332e-19
1.12335e-18
-4.622e-19
1.23567e-18
-4.19134e-19
1.33417e-18
-3.69444e-19
1.41765e-18
-3.14624e-19
1.48539e-18
-2.562e-19
1.53693e-18
-1.95612e-19
1.57206e-18
-1.34147e-19
1.59076e-18
-7.2918e-20
1.59331e-18
-1.29158e-20
1.58038e-18
4.49484e-20
1.55294e-18
9.98479e-20
1.51215e-18
1.51117e-19
1.45915e-18
1.98328e-19
1.395e-18
2.41313e-19
1.32072e-18
2.80116e-19
1.23737e-18
3.1491e-19
1.14606e-18
3.45909e-19
1.04794e-18
3.73316e-19
9.44087e-19
3.97307e-19
8.35478e-19
4.18041e-19
7.22916e-19
4.35672e-19
6.07088e-19
4.50357e-19
4.88607e-19
4.62251e-19
3.68073e-19
4.71515e-19
2.46098e-19
4.78315e-19
1.23256e-19
4.82809e-19
4.85097e-19
4.22565e-11
9.99379e-11
-1.22772e-10
3.97084e-10
-4.89198e-10
8.02175e-10
-9.2272e-10
1.25182e-09
-1.35401e-09
1.13166e-09
-1.50861e-09
9.62654e-10
-1.54303e-09
9.37636e-10
-1.57419e-09
9.33384e-10
-1.73759e-09
9.16513e-10
-1.91466e-09
7.11178e-10
-2.01403e-09
7.28635e-10
-2.1539e-09
6.09065e-10
-2.35759e-09
5.20359e-10
-2.39622e-09
4.03687e-10
-2.58724e-09
4.2161e-10
-2.68437e-09
3.05521e-10
-2.77418e-09
1.4116e-10
-2.83694e-09
3.19438e-11
-2.93598e-09
7.68308e-11
-2.94935e-09
-8.48739e-11
-2.97167e-09
-1.13994e-11
-2.96318e-09
8.21568e-11
-2.91401e-09
1.33032e-10
-2.87444e-09
4.33347e-10
-2.8562e-09
5.06398e-10
-2.82777e-09
4.60498e-10
-2.838e-09
4.64186e-10
-2.9027e-09
3.96919e-10
-2.92176e-09
2.84443e-10
-2.91664e-09
1.77684e-10
-2.88066e-09
-1.41872e-10
-2.84311e-09
-6.20891e-11
-2.80155e-09
-1.85639e-10
-2.82489e-09
-2.87858e-10
-2.75867e-09
-3.85673e-10
-2.63401e-09
-3.51942e-10
-2.5579e-09
-1.87427e-10
-2.4499e-09
-4.40995e-10
-2.27208e-09
-4.39832e-10
-2.189e-09
-2.59724e-10
-2.01833e-09
-6.6523e-10
-1.93896e-09
-6.53006e-10
-1.88051e-09
-8.29783e-10
-1.40368e-09
-1.39451e-09
-1.33505e-09
-8.05394e-10
-1.15889e-09
-5.23557e-10
-7.18266e-10
-8.86083e-10
-4.95479e-10
-1.00738e-09
-4.04001e-10
-4.76323e-10
-2.34266e-10
-5.38639e-10
-1.51618e-10
-2.92696e-10
-1.40211e-10
-1.50289e-10
-1.39394e-10
-2.00309e-10
-1.63944e-10
-3.97842e-10
-1.43284e-10
-6.86597e-10
-5.25308e-11
-9.83523e-10
9.45957e-11
-1.19422e-09
2.3197e-10
-1.25133e-09
3.63381e-10
-1.23663e-09
5.32517e-10
-1.19937e-09
7.12136e-10
-1.14796e-09
8.20235e-10
-1.02338e-09
1.05292e-09
-9.3878e-10
1.08315e-09
-8.00934e-10
1.19593e-09
-5.99661e-10
1.25847e-09
-3.99318e-10
1.33301e-09
-2.58761e-10
1.36542e-09
-2.47949e-10
1.36769e-09
1.3171e-10
1.33834e-09
3.09688e-10
1.28587e-09
4.63622e-10
1.23402e-09
6.39335e-10
1.13558e-09
8.89999e-10
9.91191e-10
9.35371e-10
7.44706e-10
1.01453e-09
5.1114e-10
1.18471e-09
4.93693e-10
1.26871e-09
4.6073e-10
1.14418e-09
3.19214e-10
6.0571e-10
4.93426e-11
-3.38552e-10
-1.00113e-15
1.05853e-09
-7.81648e-19
1.5403e-18
-6.03205e-19
-6.76596e-19
-4.0255e-19
-6.35841e-19
-2.19261e-19
-6.34497e-19
-5.08239e-20
-6.50783e-19
1.10363e-19
-6.72028e-19
2.68996e-19
-6.90199e-19
4.27136e-19
-7.01539e-19
5.84809e-19
-7.0327e-19
7.40316e-19
-6.93648e-19
8.91077e-19
-6.71871e-19
1.03412e-18
-6.37928e-19
1.16642e-18
-5.92484e-19
1.28536e-18
-5.36737e-19
1.38899e-18
-4.72303e-19
1.47608e-18
-4.01094e-19
1.54598e-18
-3.25155e-19
1.5984e-18
-2.46508e-19
1.63329e-18
-1.67006e-19
1.65076e-18
-8.82416e-20
1.65118e-18
-1.15398e-20
1.63528e-18
6.1985e-20
1.60421e-18
1.31397e-19
1.55936e-18
1.95973e-19
1.50213e-18
2.55263e-19
1.4338e-18
3.09111e-19
1.35551e-18
3.57601e-19
1.26837e-18
4.00971e-19
1.17347e-18
4.39507e-19
1.07193e-18
4.73489e-19
9.64821e-19
5.03156e-19
8.53109e-19
5.28728e-19
7.37601e-19
5.50417e-19
6.18981e-19
5.68439e-19
4.97871e-19
5.83015e-19
3.74874e-19
5.94367e-19
2.50592e-19
6.02711e-19
1.25544e-19
6.08227e-19
6.1103e-19
-5.93335e-10
6.93272e-10
-7.51221e-10
5.54967e-10
-5.82639e-10
6.33591e-10
-4.61356e-10
1.13053e-09
-7.52016e-10
1.42232e-09
-1.13715e-09
1.34778e-09
-1.39185e-09
1.19234e-09
-1.57046e-09
1.112e-09
-1.73237e-09
1.07842e-09
-1.93508e-09
9.1389e-10
-2.03591e-09
8.29465e-10
-2.18631e-09
7.59472e-10
-2.33998e-09
6.74032e-10
-2.45966e-09
5.23366e-10
-2.59939e-09
5.61348e-10
-2.75315e-09
4.5928e-10
-2.87652e-09
2.64536e-10
-2.84039e-09
-4.18705e-12
-3.01836e-09
2.54804e-10
-3.09768e-09
-5.54664e-12
-3.13413e-09
2.50523e-11
-3.17006e-09
1.18091e-10
-3.15175e-09
1.14728e-10
-3.07265e-09
3.54251e-10
-3.03531e-09
4.69069e-10
-2.98882e-09
4.14013e-10
-2.94483e-09
4.20196e-10
-2.94079e-09
3.92878e-10
-2.9221e-09
2.6576e-10
-2.87357e-09
1.29155e-10
-2.94174e-09
-7.36994e-11
-2.87872e-09
-1.25106e-10
-2.83871e-09
-2.25649e-10
-2.81918e-09
-3.0738e-10
-2.80749e-09
-3.97369e-10
-2.72711e-09
-4.32317e-10
-2.55877e-09
-3.55771e-10
-2.49338e-09
-5.0639e-10
-2.45618e-09
-4.77024e-10
-2.28733e-09
-4.28582e-10
-2.16315e-09
-7.8941e-10
-1.97778e-09
-8.38378e-10
-1.76234e-09
-1.04522e-09
-1.72213e-09
-1.43473e-09
-1.50852e-09
-1.019e-09
-9.78094e-10
-1.05398e-09
-5.09246e-10
-1.35493e-09
-3.87407e-10
-1.12922e-09
-2.22324e-10
-6.41406e-10
-1.43554e-10
-6.17409e-10
-8.13539e-11
-3.54898e-10
-9.30776e-11
-1.38567e-10
-1.10129e-10
-1.8326e-10
-1.3381e-10
-3.74165e-10
-1.14258e-10
-7.06154e-10
-5.46139e-11
-1.04317e-09
1.37765e-11
-1.26261e-09
1.37214e-10
-1.37477e-09
2.67209e-10
-1.36663e-09
4.06497e-10
-1.33866e-09
5.52789e-10
-1.29426e-09
6.52332e-10
-1.12292e-09
7.87984e-10
-1.07443e-09
8.83718e-10
-8.96669e-10
9.52498e-10
-6.68443e-10
9.91985e-10
-4.38807e-10
1.07669e-09
-3.43469e-10
1.0641e-09
-2.35364e-10
1.06481e-09
1.30998e-10
1.0644e-09
3.10105e-10
1.0793e-09
4.48721e-10
9.99194e-10
7.19434e-10
9.21062e-10
9.6813e-10
8.48909e-10
1.00752e-09
7.44921e-10
1.11852e-09
6.43362e-10
1.28627e-09
6.65152e-10
1.24692e-09
5.92712e-10
1.21662e-09
5.20025e-10
6.78398e-10
1.79398e-10
2.07647e-12
-5.92787e-16
1.23793e-09
-6.97717e-19
1.98402e-18
-5.61303e-19
-8.12629e-19
-4.00108e-19
-7.96165e-19
-2.34493e-19
-7.99401e-19
-7.10536e-20
-8.1384e-19
9.24024e-20
-8.34792e-19
2.57655e-19
-8.54804e-19
4.25406e-19
-8.68567e-19
5.94431e-19
-8.71291e-19
7.62094e-19
-8.59901e-19
9.2502e-19
-8.32963e-19
1.07956e-18
-7.90386e-19
1.22217e-18
-7.33103e-19
1.34979e-18
-6.62757e-19
1.4602e-18
-5.81499e-19
1.55202e-18
-4.9184e-19
1.62463e-18
-3.96472e-19
1.6779e-18
-2.98075e-19
1.71205e-18
-1.99104e-19
1.72746e-18
-1.01634e-19
1.7247e-18
-7.29831e-21
1.70469e-18
8.26301e-20
1.66879e-18
1.67152e-19
1.61865e-18
2.45516e-19
1.55598e-18
3.17254e-19
1.48229e-18
3.82201e-19
1.39888e-18
4.40462e-19
1.3069e-18
4.92336e-19
1.20745e-18
5.38209e-19
1.10159e-18
5.78473e-19
9.90393e-19
6.13487e-19
8.74798e-19
6.43573e-19
7.55623e-19
6.69029e-19
6.33557e-19
6.90141e-19
5.09223e-19
7.07194e-19
3.83218e-19
7.20467e-19
2.56108e-19
7.30218e-19
1.28347e-19
7.36654e-19
7.39912e-19
8.59853e-11
6.07285e-10
-5.04396e-10
1.14535e-09
-1.12023e-09
1.24942e-09
-1.17865e-09
1.18895e-09
-1.01612e-09
1.25978e-09
-1.0158e-09
1.34747e-09
-1.26288e-09
1.43942e-09
-1.49398e-09
1.34309e-09
-1.69222e-09
1.27666e-09
-1.83068e-09
1.05236e-09
-2.0111e-09
1.00988e-09
-2.16327e-09
9.11648e-10
-2.28746e-09
7.98224e-10
-2.41505e-09
6.50957e-10
-2.52461e-09
6.70904e-10
-2.65281e-09
5.87485e-10
-2.82944e-09
4.41173e-10
-2.79237e-09
-4.12591e-11
-3.00162e-09
4.64058e-10
-3.09175e-09
8.45883e-11
-3.14012e-09
7.34283e-11
-3.18923e-09
1.67208e-10
-3.18922e-09
1.14721e-10
-3.09711e-09
2.62138e-10
-3.03164e-09
4.036e-10
-2.98801e-09
3.70393e-10
-2.91772e-09
3.49906e-10
-2.86511e-09
3.40278e-10
-2.79393e-09
1.94581e-10
-2.71592e-09
5.11463e-11
-2.7221e-09
-6.75188e-11
-2.70483e-09
-1.42371e-10
-2.66594e-09
-2.64532e-10
-2.63508e-09
-3.38242e-10
-2.64515e-09
-3.87296e-10
-2.63334e-09
-4.44124e-10
-2.56917e-09
-4.19943e-10
-2.60545e-09
-4.70113e-10
-2.48915e-09
-5.93324e-10
-2.25664e-09
-6.61095e-10
-2.12687e-09
-9.19181e-10
-1.88641e-09
-1.07884e-09
-1.61843e-09
-1.3132e-09
-1.54097e-09
-1.51218e-09
-1.10868e-09
-1.4513e-09
-7.53088e-10
-1.40957e-09
-5.50746e-10
-1.55727e-09
-3.6035e-10
-1.31962e-09
-2.23095e-10
-7.78662e-10
-2.42633e-10
-5.97872e-10
-2.4004e-10
-3.57491e-10
-2.24712e-10
-1.53897e-10
-2.24205e-10
-1.83769e-10
-2.42216e-10
-3.56157e-10
-2.033e-10
-7.45073e-10
-1.82901e-10
-1.06357e-09
-2.13768e-10
-1.23175e-09
-1.7348e-10
-1.41506e-09
-2.19423e-11
-1.51817e-09
1.30622e-10
-1.49123e-09
2.40768e-10
-1.4044e-09
3.90179e-10
-1.27233e-09
4.43821e-10
-1.12807e-09
5.4677e-10
-9.99619e-10
6.33676e-10
-7.55351e-10
7.23428e-10
-5.28561e-10
7.3579e-10
-3.55833e-10
7.31694e-10
-2.3127e-10
7.54994e-10
1.07697e-10
7.37754e-10
3.27343e-10
6.28703e-10
5.57771e-10
5.62967e-10
7.85169e-10
6.2218e-10
9.08916e-10
6.07632e-10
1.02207e-09
5.39197e-10
1.18695e-09
5.31821e-10
1.29365e-09
5.83833e-10
1.19491e-09
5.82414e-10
1.21804e-09
5.36389e-10
7.24423e-10
2.77351e-10
2.61115e-10
-1.22482e-16
1.51528e-09
-6.07935e-19
2.92421e-18
-5.4373e-19
-8.76422e-19
-4.02292e-19
-9.36752e-19
-2.47926e-19
-9.5281e-19
-9.10484e-20
-9.70392e-19
7.24589e-20
-9.9742e-19
2.43891e-19
-1.02584e-18
4.22682e-19
-1.04702e-18
6.0582e-19
-1.05391e-18
7.89032e-19
-1.04222e-18
9.67597e-19
-1.01011e-18
1.13684e-18
-9.57707e-19
1.29251e-18
-8.86554e-19
1.43105e-18
-7.99102e-19
1.54985e-18
-6.98347e-19
1.64739e-18
-5.87628e-19
1.72302e-18
-4.7042e-19
1.77687e-18
-3.50124e-19
1.80952e-18
-2.29832e-19
1.8218e-18
-1.12108e-19
1.81463e-18
1.09592e-21
1.78921e-18
1.08364e-19
1.74715e-18
2.08667e-19
1.69039e-18
3.01272e-19
1.62093e-18
3.85728e-19
1.54055e-18
4.61889e-19
1.45076e-18
5.29895e-19
1.35278e-18
5.90119e-19
1.24771e-18
6.43062e-19
1.13661e-18
6.89264e-19
1.02048e-18
7.29235e-19
9.00253e-19
7.63436e-19
7.76735e-19
7.92277e-19
6.50611e-19
8.16138e-19
5.22496e-19
8.35377e-19
3.92969e-19
8.50331e-19
2.62545e-19
8.61301e-19
1.31604e-19
8.68526e-19
8.72166e-19
-1.11147e-10
7.18429e-10
-1.70419e-10
1.20461e-09
-5.16875e-10
1.59588e-09
-9.80433e-10
1.65251e-09
-1.34585e-09
1.6252e-09
-1.49558e-09
1.49721e-09
-1.43289e-09
1.37673e-09
-1.53631e-09
1.44651e-09
-1.6322e-09
1.37256e-09
-1.74297e-09
1.16313e-09
-1.87147e-09
1.13838e-09
-2.0145e-09
1.05468e-09
-2.14411e-09
9.2783e-10
-2.2287e-09
7.35551e-10
-2.30916e-09
7.51368e-10
-2.40981e-09
6.8814e-10
-2.54335e-09
5.74719e-10
-2.7505e-09
1.65893e-10
-2.7437e-09
4.57256e-10
-2.85381e-09
1.94709e-10
-2.92721e-09
1.46828e-10
-2.97963e-09
2.19625e-10
-3.0118e-09
1.46896e-10
-2.92351e-09
1.73849e-10
-2.84055e-09
3.20641e-10
-2.76328e-09
2.93128e-10
-2.66732e-09
2.53952e-10
-2.57695e-09
2.49911e-10
-2.50994e-09
1.27571e-10
-2.46745e-09
8.65876e-12
-2.45208e-09
-8.28805e-11
-2.42089e-09
-1.73563e-10
-2.41547e-09
-2.69948e-10
-2.38268e-09
-3.71025e-10
-2.39167e-09
-3.78308e-10
-2.40941e-09
-4.26381e-10
-2.34087e-09
-4.88475e-10
-2.26758e-09
-5.43406e-10
-2.2129e-09
-6.4801e-10
-2.08803e-09
-7.85961e-10
-1.92947e-09
-1.07774e-09
-1.70957e-09
-1.29874e-09
-1.52817e-09
-1.4946e-09
-1.43049e-09
-1.60985e-09
-1.15353e-09
-1.72826e-09
-8.47255e-10
-1.71585e-09
-6.60356e-10
-1.74417e-09
-5.13251e-10
-1.46672e-09
-3.73763e-10
-9.18152e-10
-4.5113e-10
-5.20507e-10
-4.61366e-10
-3.47257e-10
-4.38903e-10
-1.76362e-10
-4.65896e-10
-1.56778e-10
-5.04807e-10
-3.17248e-10
-4.56222e-10
-7.93659e-10
-4.83406e-10
-1.03639e-09
-4.70484e-10
-1.24467e-09
-4.45492e-10
-1.44006e-09
-4.10595e-10
-1.55306e-09
-2.75339e-10
-1.62649e-09
-7.5673e-11
-1.60407e-09
4.69616e-11
-1.39497e-09
1.26685e-10
-1.2078e-09
1.88616e-10
-1.06155e-09
3.036e-10
-8.70337e-10
4.09589e-10
-6.34551e-10
4.73202e-10
-4.19448e-10
4.18036e-10
-1.76105e-10
4.65868e-10
5.98642e-11
5.31597e-10
2.61613e-10
5.85045e-10
5.04322e-10
6.83026e-10
6.87188e-10
6.23319e-10
9.68623e-10
4.98628e-10
1.14676e-09
4.43102e-10
1.24248e-09
4.61947e-10
1.2748e-09
5.02162e-10
1.15469e-09
4.99652e-10
1.22055e-09
4.73326e-10
7.50749e-10
3.12587e-10
4.21853e-10
2.66797e-16
1.82787e-09
-7.98187e-19
4.11218e-18
-6.02988e-19
-1.07115e-18
-4.1735e-19
-1.12157e-18
-2.64556e-19
-1.10438e-18
-1.17269e-19
-1.11777e-18
4.40361e-20
-1.15793e-18
2.22715e-19
-1.20424e-18
4.15797e-19
-1.24025e-18
6.17505e-19
-1.25569e-18
8.21139e-19
-1.24544e-18
1.02e-18
-1.20787e-18
1.208e-18
-1.1439e-18
1.37997e-18
-1.05618e-18
1.53181e-18
-9.48361e-19
1.66057e-18
-8.24661e-19
1.76459e-18
-6.89506e-19
1.84332e-18
-5.47328e-19
1.89716e-18
-4.0234e-19
1.92725e-18
-2.58307e-19
1.935e-18
-1.18319e-19
1.9219e-18
1.53292e-20
1.88952e-18
1.41072e-19
1.83976e-18
2.57882e-19
1.77485e-18
3.65108e-19
1.69709e-18
4.62401e-19
1.60856e-18
5.49706e-19
1.51098e-18
6.27254e-19
1.40572e-18
6.95523e-19
1.29391e-18
7.55153e-19
1.17658e-18
8.06847e-19
1.05468e-18
8.51292e-19
9.29095e-19
8.89112e-19
8.00596e-19
9.20862e-19
6.69849e-19
9.47036e-19
5.37449e-19
9.68081e-19
4.03939e-19
9.84404e-19
2.6977e-19
9.96356e-19
1.35244e-19
1.00421e-18
1.00815e-18
-1.50503e-10
8.6893e-10
-2.04775e-10
1.25888e-09
-2.7454e-10
1.66564e-09
-4.64644e-10
1.84261e-09
-6.87942e-10
1.8485e-09
-1.00714e-09
1.8164e-09
-1.2483e-09
1.61789e-09
-1.40163e-09
1.59983e-09
-1.52374e-09
1.49467e-09
-1.70728e-09
1.34667e-09
-1.81113e-09
1.24224e-09
-1.87959e-09
1.12314e-09
-1.94212e-09
9.90359e-10
-2.04498e-09
8.38419e-10
-2.05821e-09
7.64598e-10
-2.05814e-09
6.88067e-10
-2.09613e-09
6.12717e-10
-2.29818e-09
3.67946e-10
-2.30495e-09
4.64034e-10
-2.40645e-09
2.9621e-10
-2.46721e-09
2.07586e-10
-2.50336e-09
2.55775e-10
-2.52823e-09
1.71772e-10
-2.49394e-09
1.39557e-10
-2.43005e-09
2.56756e-10
-2.34739e-09
2.1047e-10
-2.2464e-09
1.52969e-10
-2.16015e-09
1.63657e-10
-2.106e-09
7.34287e-11
-2.08312e-09
-1.42221e-11
-2.08947e-09
-7.65235e-11
-2.1158e-09
-1.47228e-10
-2.1172e-09
-2.68543e-10
-2.0913e-09
-3.96925e-10
-2.06338e-09
-4.06227e-10
-2.03234e-09
-4.57419e-10
-1.97614e-09
-5.44673e-10
-1.93901e-09
-5.80525e-10
-1.92783e-09
-6.59193e-10
-1.8418e-09
-8.71991e-10
-1.72839e-09
-1.19115e-09
-1.64391e-09
-1.38321e-09
-1.58289e-09
-1.55562e-09
-1.50497e-09
-1.68777e-09
-1.42298e-09
-1.81024e-09
-1.28133e-09
-1.8575e-09
-1.17425e-09
-1.85126e-09
-1.059e-09
-1.58198e-09
-8.99299e-10
-1.07785e-09
-8.5102e-10
-5.68789e-10
-8.04693e-10
-3.93587e-10
-8.64303e-10
-1.16754e-10
-8.7621e-10
-1.44872e-10
-8.65179e-10
-3.2828e-10
-7.37582e-10
-9.21257e-10
-6.79909e-10
-1.09406e-09
-5.64763e-10
-1.35982e-09
-5.13623e-10
-1.49119e-09
-4.76334e-10
-1.59035e-09
-4.08424e-10
-1.6944e-09
-2.71789e-10
-1.74071e-09
-1.52869e-10
-1.51389e-09
-4.03771e-11
-1.32029e-09
3.22831e-12
-1.10516e-09
5.50343e-11
-9.22145e-10
8.87054e-11
-6.68224e-10
1.1787e-10
-4.48614e-10
1.379e-10
-1.96135e-10
1.91969e-10
5.79549e-12
1.88474e-10
2.65109e-10
2.03754e-10
4.89044e-10
2.10168e-10
6.80774e-10
1.98892e-10
9.79899e-10
2.40699e-10
1.10495e-09
2.88095e-10
1.19508e-09
3.32394e-10
1.2305e-09
3.79169e-10
1.10792e-09
4.1909e-10
1.18062e-09
4.40057e-10
7.29781e-10
4.15966e-10
4.45942e-10
4.36833e-16
2.24383e-09
-1.37468e-18
3.99936e-18
-6.52398e-19
-1.79296e-18
-3.99232e-19
-1.37397e-18
-2.77054e-19
-1.22496e-18
-1.56848e-19
-1.23807e-18
-2.27883e-21
-1.31259e-18
1.86711e-19
-1.39358e-18
4.00355e-19
-1.45459e-18
6.27756e-19
-1.48365e-18
8.58701e-19
-1.47631e-18
1.08397e-18
-1.43231e-18
1.29572e-18
-1.35415e-18
1.48778e-18
-1.24615e-18
1.65551e-18
-1.11367e-18
1.79573e-18
-9.62534e-19
1.90677e-18
-7.98584e-19
1.98831e-18
-6.27427e-19
2.0412e-18
-4.54207e-19
2.06723e-18
-2.83417e-19
2.06865e-18
-1.18694e-19
2.04764e-18
3.73094e-20
2.00633e-18
1.8287e-19
1.94698e-18
3.16988e-19
1.87214e-18
4.39168e-19
1.78439e-18
5.4927e-19
1.68611e-18
6.47443e-19
1.57925e-18
7.34101e-19
1.46535e-18
8.09892e-19
1.34561e-18
8.75631e-19
1.22102e-18
9.32208e-19
1.0925e-18
9.80504e-19
9.60845e-19
1.02133e-18
8.2677e-19
1.0554e-18
6.90895e-19
1.08336e-18
5.53772e-19
1.10575e-18
4.15891e-19
1.12306e-18
2.77623e-19
1.13571e-18
1.39182e-19
1.144e-18
1.14814e-18
-2.75724e-10
1.14465e-09
-4.74441e-10
1.4576e-09
-5.66712e-10
1.75791e-09
-5.46644e-10
1.82254e-09
-5.87771e-10
1.88962e-09
-7.55873e-10
1.98451e-09
-1.03252e-09
1.89454e-09
-1.20071e-09
1.76802e-09
-1.31681e-09
1.61077e-09
-1.37882e-09
1.40868e-09
-1.44793e-09
1.31135e-09
-1.58405e-09
1.25927e-09
-1.63515e-09
1.04146e-09
-1.72085e-09
9.24127e-10
-1.75968e-09
8.03423e-10
-1.78188e-09
7.10274e-10
-1.8224e-09
6.53244e-10
-1.9433e-09
4.88853e-10
-1.988e-09
5.08734e-10
-2.00445e-09
3.12664e-10
-2.05001e-09
2.53146e-10
-2.07564e-09
2.81406e-10
-2.07602e-09
1.72149e-10
-2.06138e-09
1.24924e-10
-2.00009e-09
1.95465e-10
-1.93132e-09
1.41702e-10
-1.85782e-09
7.94692e-11
-1.80837e-09
1.14212e-10
-1.77498e-09
4.00417e-11
-1.73662e-09
-5.25795e-11
-1.7148e-09
-9.83381e-11
-1.72041e-09
-1.41611e-10
-1.74377e-09
-2.45183e-10
-1.77382e-09
-3.66873e-10
-1.75637e-09
-4.23671e-10
-1.7288e-09
-4.8498e-10
-1.69328e-09
-5.80199e-10
-1.64443e-09
-6.29368e-10
-1.59241e-09
-7.11203e-10
-1.52822e-09
-9.36179e-10
-1.54591e-09
-1.17345e-09
-1.64351e-09
-1.28561e-09
-1.58619e-09
-1.61294e-09
-1.5695e-09
-1.70445e-09
-1.5735e-09
-1.80624e-09
-1.55681e-09
-1.87419e-09
-1.51648e-09
-1.89158e-09
-1.39511e-09
-1.70335e-09
-1.31607e-09
-1.1569e-09
-1.13379e-09
-7.51071e-10
-1.06563e-09
-4.61745e-10
-1.00078e-09
-1.8161e-10
-9.60873e-10
-1.84782e-10
-9.05292e-10
-3.83862e-10
-8.38649e-10
-9.87901e-10
-8.00097e-10
-1.13261e-09
-7.84716e-10
-1.3752e-09
-7.47718e-10
-1.52819e-09
-6.74848e-10
-1.66323e-09
-6.64109e-10
-1.70514e-09
-7.24314e-10
-1.6805e-09
-6.42833e-10
-1.59537e-09
-4.43141e-10
-1.51999e-09
-2.34918e-10
-1.31338e-09
-1.46387e-10
-1.01068e-09
-1.00547e-10
-7.14065e-10
-1.24595e-10
-4.24566e-10
-9.9313e-11
-2.21417e-10
-4.10405e-11
-5.2476e-11
2.07213e-11
2.03348e-10
3.75101e-11
4.72256e-10
-1.78239e-11
7.3611e-10
3.69449e-11
9.25131e-10
1.07545e-10
1.03435e-09
1.60507e-10
1.14212e-09
2.129e-10
1.1781e-09
2.45044e-10
1.07577e-09
3.16174e-10
1.10949e-09
4.79785e-10
5.66168e-10
5.48746e-10
3.7698e-10
4.10047e-16
2.79258e-09
-8.87838e-19
6.80073e-18
-2.32561e-19
-2.44777e-18
-2.49373e-19
-1.35617e-18
-2.89345e-19
-1.18362e-18
-2.31013e-19
-1.29469e-18
-8.32704e-20
-1.45897e-18
1.25702e-19
-1.60199e-18
3.71294e-19
-1.70044e-18
6.35102e-19
-1.74783e-18
9.02699e-19
-1.74375e-18
1.16213e-18
-1.69098e-18
1.40373e-18
-1.59456e-18
1.62026e-18
-1.46111e-18
1.80665e-18
-1.29822e-18
1.95968e-18
-1.11378e-18
2.07793e-18
-9.15453e-19
2.16153e-18
-7.10299e-19
2.21199e-18
-5.04543e-19
2.23195e-18
-3.03447e-19
2.22465e-18
-1.11175e-19
2.1932e-18
6.93004e-20
2.14044e-18
2.36129e-19
2.06916e-18
3.88379e-19
1.98224e-18
5.25784e-19