/*--------------------------------*- C++ -*----------------------------------*\
  =========                 |
  \\      /  F ield         | OpenFOAM: The Open Source CFD Toolbox
   \\    /   O peration     | Website:  https://openfoam.org
    \\  /    A nd           | Version:  6
     \\/     M anipulation  |
\*---------------------------------------------------------------------------*/
FoamFile
{
    version     2.0;
    format      ascii;
    class       volScalarField;
    location    "2200";
    object      T;
}
// * * * * * * * * * * * * * * * * * * * * * * * * * * * * * * * * * * * * * //

dimensions      [0 0 0 1 0 0 0];

internalField   nonuniform List<scalar> 
4800
(
552.479
552.339
552.198
552.06
551.923
551.791
551.663
551.541
551.426
551.318
551.218
551.126
551.042
550.965
550.894
550.828
550.768
550.712
550.66
550.61
550.562
550.516
550.471
550.427
550.384
550.342
550.3
550.259
550.219
550.179
550.139
550.099
550.059
550.018
549.977
549.934
549.89
549.845
549.798
549.75
549.701
549.65
549.597
549.542
549.485
549.425
549.362
549.296
549.228
549.156
549.083
549.007
548.93
548.852
548.773
548.694
548.614
548.533
548.451
548.367
548.282
548.194
548.103
548.008
547.91
547.807
547.699
547.585
547.464
547.335
547.198
547.053
546.901
546.741
546.574
546.403
546.229
546.055
545.882
545.711
545.541
545.375
545.215
545.061
544.912
544.767
544.626
544.488
544.353
544.221
544.091
543.963
543.836
543.711
543.587
543.463
543.341
543.219
543.098
542.977
542.857
542.737
542.618
542.498
542.379
542.261
542.142
542.023
541.905
541.787
541.669
541.551
541.433
541.315
541.197
541.08
540.962
540.844
540.727
540.609
552.479
552.338
552.197
552.058
551.921
551.788
551.66
551.538
551.424
551.317
551.218
551.127
551.043
550.966
550.895
550.83
550.77
550.714
550.662
550.612
550.565
550.519
550.475
550.431
550.388
550.347
550.305
550.265
550.225
550.186
550.146
550.107
550.067
550.026
549.985
549.942
549.899
549.854
549.807
549.76
549.711
549.66
549.607
549.552
549.495
549.434
549.371
549.305
549.236
549.165
549.09
549.014
548.936
548.857
548.777
548.697
548.616
548.534
548.451
548.366
548.279
548.19
548.098
548.003
547.904
547.8
547.691
547.577
547.455
547.326
547.19
547.045
546.893
546.733
546.567
546.396
546.222
546.046
545.873
545.702
545.533
545.369
545.21
545.056
544.907
544.762
544.622
544.484
544.35
544.218
544.089
543.961
543.834
543.709
543.585
543.462
543.34
543.218
543.097
542.977
542.856
542.737
542.617
542.498
542.379
542.26
542.142
542.023
541.905
541.787
541.669
541.551
541.433
541.315
541.197
541.08
540.962
540.844
540.726
540.609
552.479
552.337
552.195
552.056
551.919
551.786
551.658
551.537
551.423
551.318
551.22
551.129
551.046
550.97
550.9
550.835
550.775
550.72
550.668
550.618
550.571
550.526
550.482
550.439
550.398
550.357
550.316
550.277
550.238
550.199
550.16
550.121
550.082
550.042
550.001
549.959
549.916
549.871
549.826
549.778
549.73
549.679
549.627
549.572
549.514
549.453
549.389
549.323
549.253
549.18
549.105
549.027
548.948
548.867
548.786
548.703
548.62
548.535
548.45
548.363
548.274
548.182
548.089
547.992
547.891
547.786
547.676
547.56
547.439
547.31
547.174
547.03
546.878
546.719
546.554
546.384
546.209
546.032
545.857
545.686
545.52
545.357
545.199
545.046
544.897
544.754
544.614
544.478
544.344
544.213
544.084
543.957
543.831
543.706
543.583
543.46
543.338
543.217
543.096
542.975
542.855
542.736
542.616
542.497
542.378
542.26
542.141
542.023
541.905
541.787
541.669
541.551
541.433
541.315
541.197
541.079
540.962
540.844
540.726
540.609
552.479
552.336
552.194
552.053
551.916
551.784
551.658
551.538
551.426
551.322
551.225
551.135
551.053
550.977
550.908
550.844
550.784
550.729
550.678
550.629
550.583
550.538
550.495
550.453
550.412
550.372
550.333
550.295
550.256
550.219
550.181
550.143
550.104
550.065
550.025
549.983
549.941
549.897
549.852
549.805
549.757
549.706
549.654
549.599
549.54
549.479
549.415
549.347
549.276
549.202
549.125
549.046
548.964
548.881
548.797
548.712
548.625
548.538
548.449
548.359
548.266
548.172
548.076
547.976
547.873
547.766
547.654
547.538
547.415
547.286
547.15
547.007
546.856
546.699
546.534
546.365
546.192
546.016
545.841
545.669
545.503
545.34
545.182
545.03
544.883
544.741
544.603
544.468
544.335
544.205
544.077
543.951
543.826
543.702
543.579
543.457
543.335
543.214
543.094
542.973
542.854
542.734
542.615
542.496
542.377
542.259
542.14
542.022
541.904
541.786
541.668
541.55
541.432
541.315
541.197
541.079
540.962
540.844
540.726
540.609
552.478
552.335
552.193
552.053
551.917
551.785
551.661
551.543
551.432
551.329
551.233
551.145
551.064
550.989
550.92
550.857
550.798
550.744
550.693
550.645
550.599
550.555
550.513
550.472
550.432
550.393
550.356
550.318
550.281
550.245
550.208
550.171
550.134
550.095
550.056
550.015
549.973
549.93
549.885
549.838
549.791
549.741
549.688
549.633
549.574
549.512
549.447
549.378
549.306
549.23
549.15
549.069
548.984
548.899
548.811
548.723
548.633
548.541
548.448
548.354
548.258
548.16
548.06
547.957
547.852
547.742
547.628
547.51
547.387
547.257
547.121
546.978
546.829
546.672
546.509
546.341
546.17
545.996
545.822
545.649
545.482
545.318
545.161
545.01
544.865
544.724
544.588
544.454
544.324
544.195
544.069
543.944
543.819
543.696
543.574
543.453
543.331
543.211
543.091
542.971
542.852
542.732
542.613
542.495
542.376
542.258
542.14
542.021
541.903
541.785
541.668
541.55
541.432
541.314
541.197
541.079
540.961
540.844
540.726
540.609
552.478
552.334
552.193
552.055
551.921
551.791
551.668
551.551
551.442
551.34
551.246
551.159
551.078
551.005
550.937
550.874
550.817
550.763
550.713
550.666
550.621
550.578
550.536
550.496
550.458
550.42
550.384
550.348
550.312
550.277
550.241
550.205
550.169
550.131
550.093
550.053
550.011
549.969
549.925
549.879
549.831
549.782
549.729
549.673
549.614
549.551
549.485
549.414
549.339
549.261
549.179
549.094
549.007
548.918
548.827
548.735
548.641
548.546
548.449
548.35
548.25
548.148
548.044
547.937
547.828
547.716
547.6
547.479
547.354
547.224
547.087
546.945
546.796
546.64
546.479
546.313
546.143
545.971
545.797
545.623
545.454
545.29
545.133
544.984
544.841
544.703
544.569
544.438
544.31
544.183
544.058
543.934
543.812
543.69
543.568
543.447
543.327
543.207
543.087
542.968
542.849
542.73
542.612
542.493
542.375
542.257
542.138
542.02
541.903
541.785
541.667
541.549
541.432
541.314
541.196
541.079
540.961
540.844
540.726
540.609
552.479
552.337
552.196
552.058
551.926
551.798
551.677
551.562
551.455
551.354
551.262
551.176
551.097
551.025
550.958
550.897
550.84
550.787
550.738
550.691
550.647
550.605
550.565
550.526
550.489
550.452
550.417
550.382
550.348
550.314
550.28
550.245
550.21
550.174
550.136
550.097
550.056
550.014
549.971
549.926
549.878
549.829
549.776
549.72
549.659
549.595
549.527
549.454
549.376
549.294
549.209
549.121
549.031
548.939
548.846
548.75
548.652
548.552
548.45
548.347
548.242
548.136
548.027
547.917
547.804
547.688
547.569
547.446
547.319
547.188
547.05
546.908
546.759
546.605
546.445
546.28
546.111
545.939
545.765
545.591
545.42
545.255
545.099
544.952
544.812
544.678
544.547
544.419
544.294
544.169
544.046
543.924
543.803
543.682
543.561
543.442
543.322
543.203
543.084
542.965
542.846
542.728
542.609
542.491
542.373
542.255
542.137
542.019
541.902
541.784
541.666
541.549
541.431
541.314
541.196
541.079
540.961
540.844
540.726
540.609
552.48
552.34
552.201
552.065
551.934
551.808
551.689
551.576
551.471
551.372
551.281
551.197
551.12
551.049
550.983
550.923
550.867
550.816
550.767
550.722
550.679
550.637
550.598
550.561
550.524
550.489
550.455
550.422
550.389
550.356
550.323
550.29
550.256
550.22
550.184
550.146
550.106
550.065
550.022
549.977
549.931
549.881
549.827
549.77
549.708
549.642
549.572
549.496
549.415
549.33
549.242
549.151
549.058
548.963
548.866
548.767
548.665
548.561
548.455
548.347
548.237
548.126
548.013
547.898
547.781
547.662
547.539
547.414
547.285
547.151
547.013
546.87
546.722
546.568
546.408
546.244
546.075
545.902
545.726
545.55
545.378
545.211
545.057
544.914
544.779
544.649
544.523
544.399
544.276
544.154
544.033
543.913
543.793
543.673
543.554
543.435
543.316
543.198
543.079
542.961
542.843
542.725
542.607
542.489
542.371
542.253
542.136
542.018
541.9
541.783
541.665
541.548
541.43
541.313
541.196
541.078
540.961
540.843
540.726
540.609
552.481
552.343
552.207
552.074
551.945
551.822
551.704
551.593
551.49
551.393
551.304
551.221
551.146
551.076
551.012
550.953
550.898
550.847
550.8
550.755
550.713
550.673
550.635
550.598
550.563
550.529
550.497
550.464
550.433
550.401
550.369
550.337
550.304
550.27
550.235
550.198
550.159
550.119
550.077
550.033
549.986
549.936
549.882
549.823
549.76
549.692
549.619
549.54
549.457
549.369
549.279
549.185
549.089
548.991
548.891
548.789
548.683
548.575
548.464
548.351
548.236
548.12
548.002
547.883
547.761
547.638
547.512
547.383
547.251
547.116
546.976
546.832
546.683
546.529
546.37
546.205
546.035
545.861
545.683
545.503
545.326
545.155
545.005
544.869
544.742
544.618
544.497
544.376
544.257
544.138
544.019
543.901
543.782
543.664
543.546
543.428
543.31
543.192
543.075
542.957
542.839
542.722
542.604
542.486
542.369
542.251
542.134
542.017
541.899
541.782
541.664
541.547
541.43
541.312
541.195
541.078
540.961
540.843
540.726
540.609
552.482
552.346
552.213
552.083
551.957
551.836
551.721
551.613
551.511
551.416
551.329
551.248
551.174
551.105
551.042
550.984
550.93
550.881
550.834
550.79
550.749
550.71
550.673
550.638
550.604
550.571
550.539
550.508
550.478
550.447
550.417
550.386
550.354
550.321
550.287
550.252
550.215
550.176
550.134
550.091
550.044
549.993
549.938
549.879
549.814
549.744
549.669
549.588
549.502
549.413
549.32
549.224
549.126
549.026
548.923
548.816
548.707
548.594
548.479
548.361
548.241
548.119
547.996
547.872
547.746
547.618
547.488
547.356
547.222
547.084
546.942
546.797
546.647
546.492
546.332
546.167
545.995
545.818
545.635
545.449
545.263
545.082
544.942
544.819
544.702
544.586
544.47
544.354
544.238
544.121
544.005
543.888
543.772
543.655
543.538
543.421
543.304
543.187
543.07
542.952
542.835
542.718
542.601
542.484
542.367
542.249
542.132
542.015
541.898
541.781
541.663
541.546
541.429
541.312
541.195
541.077
540.96
540.843
540.726
540.609
552.483
552.35
552.22
552.092
551.969
551.851
551.739
551.633
551.534
551.441
551.355
551.276
551.203
551.136
551.074
551.017
550.964
550.915
550.869
550.826
550.786
550.748
550.712
550.678
550.645
550.613
550.582
550.552
550.523
550.494
550.464
550.435
550.404
550.373
550.34
550.306
550.27
550.232
550.192
550.149
550.102
550.052
549.996
549.936
549.87
549.799
549.722
549.64
549.553
549.462
549.367
549.27
549.17
549.067
548.961
548.851
548.737
548.62
548.5
548.377
548.252
548.125
547.997
547.867
547.736
547.604
547.47
547.335
547.197
547.056
546.912
546.765
546.614
546.458
546.297
546.13
545.957
545.777
545.588
545.39
545.184
544.972
544.866
544.767
544.663
544.555
544.445
544.333
544.219
544.105
543.991
543.876
543.761
543.645
543.529
543.413
543.297
543.181
543.064
542.948
542.831
542.715
542.598
542.481
542.364
542.247
542.13
542.013
541.896
541.779
541.662
541.545
541.428
541.311
541.194
541.077
540.96
540.843
540.726
540.609
552.485
552.356
552.228
552.104
551.984
551.869
551.759
551.655
551.558
551.467
551.383
551.305
551.233
551.167
551.106
551.049
550.997
550.949
550.903
550.861
550.822
550.785
550.75
550.717
550.685
550.654
550.624
550.596
550.567
550.539
550.511
550.483
550.454
550.424
550.393
550.36
550.325
550.289
550.249
550.207
550.161
550.11
550.055
549.994
549.928
549.856
549.779
549.697
549.609
549.517
549.422
549.322
549.22
549.114
549.005
548.892
548.775
548.654
548.529
548.401
548.271
548.138
548.005
547.87
547.734
547.597
547.459
547.32
547.178
547.035
546.889
546.739
546.586
546.429
546.267
546.099
545.925
545.743
545.55
545.343
545.103
544.762
544.789
544.724
544.632
544.529
544.422
544.313
544.202
544.09
543.977
543.864
543.75
543.636
543.521
543.406
543.291
543.175
543.059
542.943
542.827
542.711
542.595
542.478
542.362
542.245
542.128
542.012
541.895
541.778
541.661
541.544
541.427
541.311
541.194
541.077
540.96
540.843
540.726
540.609
552.487
552.361
552.237
552.116
551.999
551.887
551.779
551.678
551.582
551.493
551.411
551.334
551.263
551.198
551.137
551.081
551.03
550.982
550.937
550.896
550.857
550.821
550.787
550.754
550.723
550.694
550.665
550.637
550.61
550.583
550.556
550.529
550.502
550.473
550.443
550.412
550.379
550.344
550.306
550.264
550.219
550.169
550.114
550.053
549.988
549.917
549.84
549.758
549.67
549.578
549.482
549.381
549.277
549.169
549.057
548.94
548.819
548.694
548.565
548.432
548.297
548.159
548.02
547.88
547.739
547.598
547.455
547.312
547.167
547.02
546.871
546.72
546.565
546.407
546.243
546.075
545.901
545.719
545.529
545.329
545.118
544.912
544.809
544.713
544.613
544.51
544.403
544.296
544.186
544.076
543.965
543.853
543.74
543.627
543.513
543.399
543.284
543.169
543.054
542.939
542.823
542.707
542.591
542.475
542.359
542.243
542.126
542.01
541.893
541.777
541.66
541.543
541.427
541.31
541.193
541.076
540.959
540.842
540.725
540.608
552.489
552.366
552.245
552.128
552.014
551.904
551.799
551.7
551.606
551.519
551.438
551.362
551.292
551.228
551.168
551.112
551.061
551.014
550.97
550.929
550.891
550.856
550.823
550.791
550.761
550.732
550.705
550.678
550.652
550.626
550.6
550.575
550.548
550.521
550.493
550.463
550.432
550.398
550.361
550.32
550.276
550.227
550.173
550.114
550.049
549.979
549.904
549.822
549.735
549.643
549.547
549.445
549.339
549.228
549.113
548.994
548.87
548.741
548.608
548.471
548.33
548.188
548.043
547.898
547.752
547.606
547.459
547.311
547.163
547.013
546.861
546.707
546.551
546.391
546.226
546.057
545.883
545.703
545.517
545.327
545.138
544.963
544.828
544.712
544.602
544.495
544.388
544.281
544.172
544.063
543.953
543.842
543.73
543.618
543.505
543.392
543.278
543.164
543.049
542.934
542.819
542.704
542.588
542.472
542.356
542.24
542.124
542.008
541.892
541.775
541.659
541.542
541.426
541.309
541.192
541.076
540.959
540.842
540.725
540.608
552.49
552.372
552.254
552.14
552.028
551.921
551.818
551.721
551.63
551.544
551.464
551.389
551.32
551.256
551.197
551.142
551.092
551.045
551.002
550.962
550.925
550.89
550.858
550.827
550.798
550.77
550.744
550.718
550.693
550.668
550.644
550.62
550.595
550.569
550.542
550.514
550.484
550.451
550.415
550.376
550.333
550.285
550.233
550.175
550.111
550.043
549.968
549.888
549.802
549.711
549.614
549.511
549.403
549.29
549.173
549.052
548.925
548.793
548.656
548.515
548.369
548.222
548.072
547.922
547.771
547.62
547.468
547.317
547.165
547.012
546.858
546.701
546.543
546.381
546.215
546.046
545.871
545.693
545.511
545.327
545.148
544.98
544.833
544.706
544.591
544.482
544.374
544.267
544.16
544.052
543.942
543.832
543.722
543.61
543.498
543.385
543.272
543.158
543.044
542.93
542.815
542.7
542.585
542.47
542.354
542.238
542.122
542.006
541.89
541.774
541.658
541.541
541.425
541.308
541.192
541.075
540.958
540.842
540.725
540.608
552.492
552.376
552.262
552.15
552.042
551.937
551.836
551.741
551.651
551.567
551.488
551.415
551.347
551.283
551.225
551.171
551.121
551.075
551.033
550.994
550.959
550.925
550.894
550.864
550.836
550.81
550.784
550.76
550.736
550.713
550.69
550.667
550.643
550.619
550.593
550.566
550.537
550.506
550.472
550.434
550.392
550.345
550.293
550.237
550.175
550.107
550.034
549.955
549.87
549.779
549.681
549.577
549.467
549.353
549.235
549.112
548.983
548.849
548.708
548.562
548.412
548.259
548.104
547.948
547.793
547.637
547.482
547.326
547.171
547.015
546.858
546.7
546.539
546.376
546.209
546.038
545.863
545.685
545.505
545.324
545.146
544.976
544.822
544.691
544.576
544.468
544.361
544.255
544.149
544.041
543.933
543.824
543.714
543.603
543.491
543.379
543.267
543.153
543.04
542.926
542.811
542.697
542.582
542.467
542.351
542.236
542.12
542.005
541.889
541.773
541.657
541.54
541.424
541.308
541.191
541.075
540.958
540.842
540.725
540.608
552.493
552.381
552.269
552.16
552.054
551.952
551.853
551.76
551.671
551.588
551.511
551.439
551.372
551.309
551.252
551.199
551.151
551.106
551.066
551.029
550.995
550.963
550.933
550.905
550.879
550.854
550.83
550.807
550.785
550.763
550.741
550.719
550.697
550.674
550.65
550.624
550.596
550.566
550.532
550.495
550.454
550.408
550.358
550.302
550.24
550.174
550.101
550.023
549.939
549.847
549.748
549.642
549.531
549.415
549.295
549.172
549.041
548.904
548.759
548.609
548.454
548.296
548.136
547.975
547.815
547.655
547.496
547.337
547.179
547.02
546.861
546.7
546.538
546.372
546.204
546.032
545.856
545.678
545.496
545.313
545.132
544.954
544.786
544.662
544.555
544.451
544.348
544.244
544.139
544.032
543.925
543.816
543.707
543.596
543.485
543.374
543.261
543.149
543.035
542.922
542.808
542.693
542.579
542.464
542.349
542.234
542.118
542.003
541.887
541.771
541.655
541.539
541.423
541.307
541.191
541.074
540.958
540.841
540.725
540.608
552.495
552.385
552.276
552.169
552.065
551.965
551.868
551.777
551.69
551.609
551.533
551.462
551.396
551.335
551.279
551.228
551.182
551.14
551.102
551.067
551.036
551.006
550.979
550.953
550.929
550.907
550.885
550.864
550.843
550.823
550.803
550.783
550.762
550.74
550.717
550.692
550.665
550.635
550.602
550.565
550.525
550.479
550.429
550.373
550.312
550.245
550.173
550.095
550.01
549.916
549.815
549.706
549.592
549.475
549.355
549.23
549.098
548.957
548.808
548.652
548.492
548.329
548.163
547.998
547.833
547.669
547.506
547.345
547.184
547.023
546.862
546.699
546.535
546.367
546.197
546.024
545.847
545.667
545.484
545.298
545.111
544.918
544.704
544.612
544.527
544.434
544.336
544.234
544.13
544.024
543.917
543.809
543.7
543.591
543.48
543.369
543.257
543.144
543.032
542.918
542.804
542.69
542.576
542.461
542.347
542.232
542.116
542.001
541.886
541.77
541.654
541.538
541.422
541.306
541.19
541.074
540.957
540.841
540.725
540.608
552.496
552.388
552.281
552.177
552.075
551.976
551.882
551.792
551.707
551.627
551.553
551.484
551.42
551.362
551.308
551.26
551.217
551.178
551.144
551.113
551.085
551.059
551.035
551.013
550.993
550.973
550.954
550.936
550.918
550.9
550.882
550.864
550.845
550.824
550.802
550.777
550.75
550.72
550.687
550.651
550.609
550.563
550.512
550.456
550.393
550.326
550.252
550.173
550.086
549.99
549.884
549.771
549.654
549.534
549.412
549.285
549.15
549.004
548.849
548.688
548.521
548.352
548.182
548.011
547.842
547.674
547.509
547.345
547.182
547.02
546.857
546.692
546.526
546.357
546.185
546.011
545.833
545.652
545.468
545.281
545.092
544.896
544.496
544.552
544.503
544.42
544.325
544.225
544.122
544.017
543.911
543.803
543.695
543.586
543.476
543.365
543.253
543.141
543.028
542.915
542.801
542.688
542.573
542.459
542.344
542.23
542.115
542
541.884
541.769
541.653
541.537
541.421
541.306
541.189
541.073
540.957
540.841
540.724
540.608
552.497
552.391
552.287
552.184
552.084
551.988
551.895
551.807
551.724
551.647
551.575
551.508
551.447
551.391
551.342
551.297
551.258
551.224
551.194
551.168
551.145
551.125
551.106
551.09
551.074
551.059
551.045
551.031
551.016
551.002
550.986
550.97
550.952
550.933
550.911
550.887
550.86
550.83
550.796
550.759
550.716
550.669
550.616
550.557
550.493
550.423
550.346
550.264
550.174
550.073
549.961
549.841
549.718
549.594
549.468
549.337
549.195
549.043
548.88
548.711
548.538
548.362
548.186
548.01
547.836
547.665
547.497
547.331
547.167
547.004
546.839
546.674
546.506
546.336
546.163
545.987
545.808
545.628
545.446
545.261
545.076
544.885
544.679
544.59
544.507
544.415
544.318
544.217
544.115
544.01
543.905
543.798
543.69
543.581
543.472
543.361
543.25
543.137
543.025
542.912
542.799
542.685
542.571
542.457
542.342
542.228
542.113
541.998
541.883
541.768
541.652
541.536
541.421
541.305
541.189
541.073
540.957
540.841
540.724
540.608
552.498
552.395
552.293
552.193
552.095
552.001
551.911
551.825
551.745
551.67
551.6
551.537
551.48
551.428
551.383
551.343
551.31
551.281
551.258
551.238
551.222
551.209
551.197
551.187
551.178
551.17
551.162
551.153
551.143
551.133
551.121
551.108
551.092
551.074
551.054
551.03
551.003
550.972
550.937
550.898
550.854
550.804
550.749
550.687
550.619
550.545
550.465
550.378
550.282
550.173
550.053
549.924
549.792
549.66
549.526
549.383
549.23
549.067
548.896
548.718
548.536
548.353
548.169
547.987
547.809
547.635
547.464
547.297
547.132
546.967
546.803
546.636
546.468
546.296
546.122
545.945
545.767
545.588
545.411
545.235
545.061
544.892
544.734
544.616
544.513
544.412
544.312
544.211
544.108
544.004
543.899
543.793
543.686
543.578
543.468
543.358
543.247
543.135
543.022
542.909
542.796
542.683
542.569
542.455
542.341
542.226
542.111
541.997
541.882
541.766
541.651
541.536
541.42
541.304
541.188
541.072
540.956
540.84
540.724
540.608
552.5
552.401
552.303
552.206
552.112
552.021
551.934
551.851
551.774
551.703
551.637
551.578
551.525
551.479
551.439
551.405
551.377
551.356
551.339
551.327
551.319
551.314
551.311
551.309
551.309
551.309
551.308
551.306
551.303
551.299
551.292
551.282
551.27
551.255
551.235
551.213
551.186
551.154
551.118
551.077
551.031
550.979
550.921
550.856
550.784
550.705
550.62
550.527
550.423
550.304
550.17
550.026
549.88
549.735
549.586
549.426
549.256
549.078
548.894
548.705
548.513
548.319
548.127
547.937
547.753
547.574
547.402
547.234
547.068
546.904
546.739
546.572
546.402
546.229
546.054
545.878
545.701
545.526
545.355
545.191
545.033
544.881
544.74
544.619
544.509
544.406
544.304
544.203
544.101
543.998
543.894
543.789
543.682
543.574
543.465
543.355
543.244
543.132
543.02
542.907
542.794
542.681
542.567
542.453
542.339
542.225
542.11
541.995
541.88
541.765
541.65
541.535
541.419
541.304
541.188
541.072
540.956
540.84
540.724
540.608
552.504
552.412
552.321
552.23
552.141
552.055
551.973
551.895
551.823
551.756
551.696
551.642
551.594
551.553
551.519
551.491
551.47
551.455
551.446
551.442
551.441
551.444
551.45
551.458
551.466
551.475
551.483
551.49
551.495
551.497
551.497
551.493
551.485
551.473
551.457
551.436
551.41
551.378
551.342
551.3
551.253
551.2
551.139
551.072
550.997
550.915
550.825
550.725
550.612
550.478
550.326
550.161
549.995
549.831
549.661
549.476
549.28
549.08
548.88
548.676
548.469
548.261
548.056
547.856
547.663
547.48
547.306
547.137
546.971
546.806
546.64
546.471
546.299
546.125
545.95
545.775
545.602
545.433
545.272
545.12
544.978
544.843
544.716
544.601
544.494
544.392
544.292
544.193
544.093
543.991
543.889
543.785
543.679
543.571
543.463
543.353
543.242
543.13
543.018
542.905
542.792
542.679
542.565
542.451
542.337
542.223
542.109
541.994
541.879
541.764
541.649
541.534
541.419
541.303
541.187
541.072
540.956
540.84
540.724
540.608
552.512
552.434
552.356
552.277
552.198
552.12
552.045
551.975
551.909
551.849
551.795
551.747
551.705
551.671
551.642
551.619
551.603
551.593
551.589
551.59
551.595
551.604
551.617
551.631
551.648
551.665
551.681
551.696
551.709
551.719
551.725
551.728
551.726
551.72
551.708
551.69
551.667
551.638
551.603
551.562
551.516
551.465
551.406
551.34
551.266
551.183
551.091
550.986
550.862
550.711
550.535
550.344
550.154
549.968
549.773
549.552
549.321
549.092
548.866
548.639
548.411
548.182
547.959
547.744
547.541
547.352
547.175
547.006
546.839
546.671
546.501
546.328
546.152
545.975
545.8
545.628
545.461
545.301
545.152
545.016
544.891
544.776
544.667
544.565
544.468
544.372
544.276
544.18
544.083
543.984
543.883
543.78
543.675
543.569
543.461
543.351
543.24
543.129
543.017
542.904
542.791
542.677
542.564
542.45
542.336
542.222
542.108
541.993
541.878
541.764
541.649
541.533
541.418
541.303
541.187
541.071
540.956
540.84
540.724
540.608
552.526
552.476
552.422
552.363
552.301
552.238
552.175
552.115
552.058
552.007
551.961
551.921
551.886
551.857
551.833
551.814
551.8
551.792
551.788
551.788
551.793
551.802
551.815
551.831
551.849
551.869
551.888
551.908
551.926
551.942
551.955
551.965
551.969
551.969
551.962
551.95
551.932
551.908
551.879
551.844
551.803
551.759
551.709
551.651
551.585
551.508
551.419
551.313
551.18
551.011
550.812
550.593
550.381
550.174
549.951
549.688
549.41
549.138
548.875
548.615
548.356
548.098
547.848
547.612
547.396
547.201
547.021
546.848
546.676
546.503
546.325
546.141
545.955
545.772
545.596
545.428
545.27
545.123
544.989
544.869
544.766
544.675
544.595
544.516
544.433
544.346
544.257
544.166
544.072
543.976
543.877
543.776
543.672
543.566
543.459
543.349
543.239
543.128
543.015
542.903
542.79
542.676
542.563
542.449
542.335
542.221
542.107
541.992
541.878
541.763
541.648
541.533
541.418
541.302
541.187
541.071
540.955
540.84
540.724
540.608
552.553
552.553
552.543
552.519
552.485
552.443
552.398
552.353
552.31
552.269
552.233
552.202
552.175
552.152
552.132
552.115
552.098
552.085
552.073
552.064
552.058
552.056
552.057
552.061
552.068
552.078
552.09
552.104
552.119
552.135
552.149
552.162
552.17
552.174
552.174
552.169
552.159
552.143
552.124
552.1
552.073
552.044
552.011
551.972
551.924
551.864
551.789
551.692
551.555
551.373
551.156
550.921
550.695
550.476
550.226
549.912
549.577
549.252
548.94
548.637
548.335
548.038
547.751
547.489
547.26
547.062
546.88
546.698
546.509
546.32
546.127
545.922
545.713
545.517
545.337
545.176
545.03
544.901
544.786
544.687
544.608
544.547
544.503
544.462
544.394
544.317
544.236
544.15
544.061
543.968
543.871
543.772
543.669
543.564
543.457
543.348
543.238
543.127
543.014
542.902
542.789
542.675
542.562
542.448
542.334
542.22
542.106
541.991
541.877
541.762
541.647
541.532
541.417
541.302
541.187
541.071
540.955
540.84
540.724
540.608
552.601
552.692
552.757
552.791
552.799
552.789
552.767
552.741
552.712
552.684
552.659
552.638
552.619
552.603
552.587
552.568
552.545
552.518
552.487
552.455
552.425
552.395
552.365
552.338
552.313
552.293
552.276
552.264
552.257
552.256
552.259
552.263
552.266
552.269
552.271
552.272
552.27
552.267
552.262
552.257
552.253
552.248
552.244
552.236
552.22
552.189
552.141
552.067
551.942
551.762
551.548
551.319
551.1
550.884
550.613
550.246
549.851
549.473
549.106
548.748
548.396
548.05
547.719
547.427
547.197
547.011
546.83
546.624
546.387
546.167
545.95
545.695
545.44
545.221
545.034
544.883
544.759
544.654
544.561
544.483
544.43
544.398
544.395
544.428
544.358
544.29
544.215
544.134
544.049
543.959
543.865
543.767
543.666
543.562
543.456
543.347
543.237
543.126
543.014
542.901
542.788
542.674
542.561
542.447
542.333
542.219
542.105
541.991
541.876
541.762
541.647
541.532
541.417
541.302
541.186
541.071
540.955
540.839
540.724
540.608
552.69
552.942
553.13
553.251
553.319
553.348
553.354
553.345
553.329
553.309
553.292
553.278
553.269
553.26
553.249
553.228
553.193
553.141
553.075
553.005
552.934
552.859
552.778
552.695
552.611
552.53
552.452
552.379
552.318
552.271
552.236
552.207
552.185
552.169
552.161
552.158
552.162
552.17
552.183
552.202
552.227
552.256
552.291
552.327
552.356
552.371
552.363
552.327
552.244
552.103
551.933
551.749
551.559
551.371
551.096
550.682
550.242
549.834
549.411
548.993
548.594
548.203
547.823
547.509
547.321
547.193
547.01
546.752
546.393
546.123
545.877
545.501
545.154
544.912
544.708
544.576
544.49
544.417
544.353
544.293
544.258
544.242
544.262
544.308
544.322
544.266
544.195
544.119
544.037
543.951
543.859
543.763
543.664
543.56
543.454
543.346
543.236
543.125
543.013
542.9
542.787
542.674
542.56
542.447
542.333
542.219
542.105
541.99
541.876
541.761
541.647
541.532
541.417
541.302
541.186
541.071
540.955
540.839
540.724
540.608
552.856
553.39
553.777
554.021
554.16
554.231
554.259
554.255
554.235
554.207
554.185
554.168
554.162
554.16
554.154
554.134
554.08
553.986
553.867
553.744
553.618
553.488
553.344
553.184
553.011
552.839
552.664
552.482
552.313
552.172
552.056
551.955
551.867
551.797
551.748
551.721
551.715
551.726
551.751
551.79
551.846
551.908
551.983
552.073
552.166
552.247
552.298
552.327
552.329
552.279
552.197
552.103
551.969
551.839
551.603
551.174
550.746
550.354
549.882
549.436
548.999
548.552
548.147
547.856
547.708
547.637
547.37
547.007
546.482
546.091
545.704
545.302
544.888
544.586
544.399
544.338
544.303
544.244
544.227
544.166
544.143
544.118
544.154
544.252
544.365
544.261
544.18
544.104
544.026
543.943
543.854
543.76
543.661
543.559
543.454
543.346
543.236
543.125
543.013
542.9
542.787
542.674
542.56
542.446
542.332
542.218
542.104
541.99
541.876
541.761
541.647
541.532
541.417
541.301
541.186
541.071
540.955
540.839
540.724
540.608
553.182
554.214
554.894
555.288
555.497
555.596
555.635
555.6
555.538
555.467
555.404
555.342
555.317
555.303
555.3
555.289
555.224
555.064
554.878
554.691
554.495
554.317
554.122
553.878
553.589
553.315
553.021
552.665
552.314
552.02
551.767
551.54
551.331
551.15
551.004
550.901
550.845
550.826
550.84
550.874
550.946
551.013
551.117
551.266
551.433
551.606
551.73
551.84
551.979
552.048
552.094
552.152
552.189
552.132
552.006
551.7
551.386
551.027
550.544
550.099
549.738
549.242
548.837
548.577
548.505
548.377
547.924
547.432
546.703
546.055
545.485
545.047
544.654
544.349
544.175
544.321
544.357
544.306
544.334
544.286
544.145
544.108
544.14
544.237
544.354
544.239
544.159
544.088
544.015
543.935
543.849
543.757
543.659
543.558
543.453
543.345
543.236
543.125
543.013
542.9
542.787
542.673
542.56
542.446
542.332
542.218
542.104
541.99
541.876
541.761
541.646
541.532
541.417
541.301
541.186
541.071
540.955
540.839
540.724
540.608
553.871
555.748
556.804
557.327
557.58
557.688
557.748
557.593
557.43
557.274
557.097
556.851
556.741
556.629
556.588
556.621
556.682
556.372
556.167
555.922
555.586
555.386
555.158
554.831
554.394
554.056
553.672
553.063
552.439
551.937
551.488
551.121
550.779
550.424
550.086
549.801
549.601
549.472
549.402
549.365
549.421
549.404
549.488
549.668
549.878
550.07
550.331
550.557
550.853
551.18
551.46
551.651
551.819
551.832
551.971
551.965
551.862
551.696
551.379
550.989
550.714
550.255
549.932
549.471
549.299
549.052
548.445
547.881
547.093
545.931
545.424
545.072
544.748
544.566
544.411
544.362
544.309
544.27
544.26
544.244
544.221
544.21
544.251
544.298
544.293
544.2
544.134
544.072
544.005
543.929
543.845
543.754
543.658
543.557
543.452
543.345
543.236
543.125
543.013
542.9
542.787
542.673
542.56
542.446
542.332
542.218
542.104
541.99
541.876
541.761