/*--------------------------------*- C++ -*----------------------------------*\
  =========                 |
  \\      /  F ield         | OpenFOAM: The Open Source CFD Toolbox
   \\    /   O peration     | Website:  https://openfoam.org
    \\  /    A nd           | Version:  6
     \\/     M anipulation  |
\*---------------------------------------------------------------------------*/
FoamFile
{
    version     2.0;
    format      ascii;
    class       volVectorField;
    location    "2200";
    object      U;
}
// * * * * * * * * * * * * * * * * * * * * * * * * * * * * * * * * * * * * * //

dimensions      [0 1 -1 0 0 0 0];

internalField   nonuniform List<vector> 
4800
(
(6.26894e-06 0 -8.27721e-06)
(2.5712e-08 0 -1.87503e-05)
(-4.02761e-06 0 -1.32979e-05)
(-1.53148e-05 0 -5.71113e-05)
(-4.602e-05 0 -0.000114512)
(-7.55334e-05 0 -6.14021e-05)
(-5.45011e-05 0 7.4896e-06)
(-6.43926e-05 0 -3.04139e-05)
(-0.000248375 0 -7.26416e-05)
(-0.000415919 0 -3.55199e-06)
(-0.000505933 0 -4.19595e-05)
(-0.000575841 0 -1.23545e-05)
(-0.000608922 0 -5.92716e-05)
(-0.000622829 0 -6.90989e-06)
(-0.000630283 0 -4.77725e-05)
(-0.00063264 0 -4.12343e-05)
(-0.000616248 0 -5.77324e-05)
(-0.000610394 0 -5.67426e-05)
(-0.000612481 0 -3.90004e-05)
(-0.000589644 0 3.92101e-05)
(-0.000561606 0 -4.02079e-05)
(-0.000552114 0 -1.93457e-05)
(-0.000601842 0 1.01677e-05)
(-0.000725658 0 5.55357e-05)
(-0.000826088 0 0.000120057)
(-0.000920841 0 2.07658e-05)
(-0.000982614 0 -5.50397e-05)
(-0.00102198 0 -4.34385e-06)
(-0.00105288 0 -3.74609e-05)
(-0.00108299 0 3.728e-05)
(-0.00110605 0 1.80012e-05)
(-0.00111598 0 8.2712e-06)
(-0.00109974 0 -1.46662e-05)
(-0.00106979 0 -1.96357e-05)
(-0.00106253 0 -1.47705e-05)
(-0.00106596 0 -1.25421e-05)
(-0.00105692 0 2.5564e-06)
(-0.00104857 0 6.42969e-06)
(-0.00104607 0 3.06418e-06)
(-0.00104683 0 -1.94125e-05)
(-0.00105569 0 -2.71858e-05)
(-0.00101622 0 -6.94333e-05)
(-0.000889285 0 -8.46621e-05)
(-0.000793855 0 -7.4562e-05)
(-0.000728556 0 -8.2235e-05)
(-0.000681445 0 -5.89762e-05)
(-0.000613435 0 -3.37412e-05)
(-0.000544542 0 -3.3337e-05)
(-0.000505264 0 -1.68254e-05)
(-0.00048502 0 -2.2424e-05)
(-0.000474432 0 -1.25357e-05)
(-0.000455334 0 -2.25177e-05)
(-0.000410571 0 -9.30692e-06)
(-0.000339387 0 -4.3686e-05)
(-0.000253052 0 -4.96109e-05)
(-0.000176168 0 -9.36662e-06)
(-5.5096e-05 0 -2.35427e-05)
(6.64063e-05 0 -4.35932e-05)
(0.000183501 0 -5.04282e-05)
(0.0002989 0 -4.76645e-05)
(0.000411388 0 -0.000201029)
(0.000598306 0 0.000122782)
(0.000664928 0 -3.67776e-05)
(0.000668048 0 -8.53049e-05)
(0.000724748 0 -8.81767e-05)
(0.000839485 0 -7.8878e-05)
(0.000896234 0 -3.03573e-05)
(0.000892001 0 -2.47688e-05)
(0.000887387 0 2.77058e-06)
(0.000862969 0 6.57225e-06)
(0.00081274 0 1.89263e-05)
(0.000739841 0 9.59497e-05)
(0.00066983 0 -9.03884e-06)
(0.000578581 0 0.000107207)
(0.000484732 0 5.79035e-05)
(0.000384268 0 -8.61742e-05)
(0.000274742 0 -0.000145765)
(0.000247425 0 -0.000108291)
(0.000321791 0 -0.000111451)
(6.29396e-06 0 -0.000237306)
(1.27118e-05 0 0.000118183)
(-3.54967e-13 0 4.96743e-13)
(-1.10484e-12 0 1.25358e-13)
(4.7005e-14 0 3.46989e-14)
(1.17491e-14 0 1.00419e-15)
(2.48048e-14 0 -1.32583e-14)
(5.86646e-14 0 -2.00675e-14)
(1.026e-13 0 -2.35323e-14)
(1.51634e-13 0 -2.52058e-14)
(2.02876e-13 0 -2.58465e-14)
(2.54744e-13 0 -2.57715e-14)
(3.05909e-13 0 -2.51195e-14)
(3.55259e-13 0 -2.39573e-14)
(4.01847e-13 0 -2.2338e-14)
(4.44857e-13 0 -2.03195e-14)
(4.83608e-13 0 -1.79653e-14)
(5.1755e-13 0 -1.5345e-14)
(5.46238e-13 0 -1.25363e-14)
(5.693e-13 0 -9.62241e-15)
(5.86447e-13 0 -6.6805e-15)
(5.97516e-13 0 -3.7686e-15)
(6.02515e-13 0 -9.22627e-16)
(6.01632e-13 0 1.83591e-15)
(5.95182e-13 0 4.48902e-15)
(5.83532e-13 0 7.01543e-15)
(5.67034e-13 0 9.39009e-15)
(5.46009e-13 0 1.15885e-14)
(5.2077e-13 0 1.3592e-14)
(4.91654e-13 0 1.539e-14)
(4.59041e-13 0 1.69805e-14)
(4.23347e-13 0 1.83678e-14)
(3.84997e-13 0 1.95621e-14)
(3.44396e-13 0 2.05798e-14)
(3.01917e-13 0 2.14414e-14)
(2.57895e-13 0 2.2167e-14)
(2.12629e-13 0 2.27693e-14)
(1.66379e-13 0 2.32516e-14)
(1.19375e-13 0 2.36097e-14)
(7.18323e-14 0 2.38397e-14)
(2.39766e-14 0 2.39423e-14)
(1.00327e-05 0 -1.19297e-05)
(1.53496e-06 0 1.76787e-05)
(2.69068e-06 0 4.362e-05)
(-3.33786e-05 0 7.05635e-05)
(-0.000164953 0 0.000115588)
(-0.000263209 0 9.54829e-05)
(-0.000417111 0 -2.79728e-05)
(-0.000452864 0 1.31055e-05)
(-0.000474653 0 0.000205356)
(-0.000587458 0 0.000148658)
(-0.000669446 0 4.0561e-06)
(-0.000684786 0 0.000140722)
(-0.000732333 0 6.23694e-05)
(-0.000757269 0 -3.75094e-06)
(-0.000768645 0 9.7233e-05)
(-0.00079684 0 1.15412e-05)
(-0.000803647 0 1.16277e-05)
(-0.000801227 0 -1.68544e-05)
(-0.000776814 0 -6.30125e-05)
(-0.000760505 0 -7.52406e-06)
(-0.000761409 0 -2.21832e-06)
(-0.000769645 0 -2.50449e-05)
(-0.000786352 0 4.13665e-05)
(-0.000828859 0 0.000128701)
(-0.000886105 0 0.000129778)
(-0.000952154 0 0.000122348)
(-0.00103196 0 0.00011843)
(-0.00109872 0 8.10812e-05)
(-0.00113105 0 7.01934e-05)
(-0.00114496 0 2.36167e-05)
(-0.00115252 0 2.59407e-06)
(-0.00115673 0 1.04618e-05)
(-0.0011305 0 -2.94967e-05)
(-0.0010911 0 -4.96749e-05)
(-0.00107898 0 -3.31043e-05)
(-0.00107823 0 3.35939e-05)
(-0.00105667 0 -2.1107e-05)
(-0.00103134 0 -1.48675e-05)
(-0.00101332 0 2.93915e-06)
(-0.000995453 0 -2.44372e-05)
(-0.000978207 0 -4.19708e-05)
(-0.000926293 0 -5.60863e-05)
(-0.000821044 0 -0.000128371)
(-0.000730207 0 -0.000147195)
(-0.000677089 0 -0.000121672)
(-0.00066128 0 8.54069e-06)
(-0.000587355 0 -8.30811e-05)
(-0.000507031 0 -0.000107723)
(-0.000470924 0 -4.02782e-05)
(-0.000442586 0 -4.2588e-05)
(-0.000426647 0 -4.42039e-05)
(-0.000415584 0 -3.33858e-05)
(-0.000378264 0 -8.71582e-05)
(-0.000330528 0 -9.96044e-05)
(-0.000229018 0 -0.000175763)
(-0.000188692 0 -0.000169441)
(-5.71224e-05 0 -0.000223131)
(7.86903e-05 0 -0.000204044)
(0.000173681 0 -0.000210793)
(0.000320855 0 -0.000158745)
(0.000364454 0 -0.000318009)
(0.000543189 0 -4.63627e-05)
(0.000619129 0 -2.67256e-05)
(0.000649601 0 -0.000184893)
(0.000748435 0 -0.000158883)
(0.000858042 0 -6.58212e-05)
(0.000860614 0 -5.74745e-05)
(0.000845609 0 -4.47401e-05)
(0.000833324 0 4.4517e-05)
(0.000815352 0 7.78273e-05)
(0.000778577 0 7.2036e-05)
(0.000726161 0 5.62385e-05)
(0.000657881 0 8.76487e-05)
(0.000567391 0 5.35236e-05)
(0.000496677 0 3.89789e-05)
(0.000336606 0 0.000201663)
(0.0001177 0 0.000285454)
(0.000279509 0 4.70152e-05)
(0.000180984 0 -4.21977e-05)
(-0.00025732 0 0.000119095)
(1.25944e-05 0 0.000305393)
(-5.91247e-13 0 8.03748e-13)
(-1.4686e-12 0 1.90661e-13)
(-7.98617e-14 0 4.73033e-14)
(-3.77957e-14 0 -1.69231e-14)
(3.00187e-15 0 -4.77981e-14)
(4.83427e-14 0 -6.37857e-14)
(9.75886e-14 0 -7.23112e-14)
(1.4932e-13 0 -7.65684e-14)
(2.0231e-13 0 -7.81702e-14)
(2.55471e-13 0 -7.77775e-14)
(3.07723e-13 0 -7.56987e-14)
(3.58041e-13 0 -7.21005e-14)
(4.05485e-13 0 -6.71278e-14)
(4.4923e-13 0 -6.09553e-14)
(4.88582e-13 0 -5.37979e-14)
(5.22979e-13 0 -4.58981e-14)
(5.51961e-13 0 -3.75023e-14)
(5.75155e-13 0 -2.88337e-14)
(5.923e-13 0 -2.00719e-14)
(6.03274e-13 0 -1.13477e-14)
(6.0812e-13 0 -2.75974e-15)
(6.07044e-13 0 5.60126e-15)
(6.00362e-13 0 1.36398e-14)
(5.88433e-13 0 2.12594e-14)
(5.71607e-13 0 2.83758e-14)
(5.50211e-13 0 3.49265e-14)
(5.24571e-13 0 4.08748e-14)
(4.95042e-13 0 4.62072e-14)
(4.62019e-13 0 5.09297e-14)
(4.25929e-13 0 5.5065e-14)
(3.87209e-13 0 5.86513e-14)
(3.46275e-13 0 6.17373e-14)
(3.03504e-13 0 6.43724e-14)
(2.59223e-13 0 6.65958e-14)
(2.13713e-13 0 6.84282e-14)
(1.6722e-13 0 6.98746e-14)
(1.19963e-13 0 7.09353e-14)
(7.21649e-14 0 7.16191e-14)
(2.40792e-14 0 7.19487e-14)
(-1.11967e-05 0 1.0335e-05)
(-9.03379e-05 0 -1.34343e-05)
(-6.87137e-05 0 6.76028e-05)
(-8.23601e-05 0 0.000151782)
(-0.000216007 0 0.000235245)
(-0.000266795 0 0.000294917)
(-0.000461836 0 0.000269774)
(-0.000605737 0 0.000166131)
(-0.000629256 0 0.000103328)
(-0.000638609 0 0.000181284)
(-0.000696769 0 0.000191606)
(-0.000768362 0 -1.13743e-05)
(-0.000794809 0 0.00011266)
(-0.000840064 0 2.58674e-05)
(-0.000873204 0 -2.24894e-05)
(-0.000913595 0 3.44851e-05)
(-0.000936329 0 -2.33603e-05)
(-0.000944665 0 -1.91325e-05)
(-0.000948228 0 -1.85262e-05)
(-0.000937788 0 -2.35827e-05)
(-0.000935645 0 7.1088e-06)
(-0.000942717 0 6.15154e-05)
(-0.00094275 0 7.9337e-05)
(-0.000945009 0 0.0001716)
(-0.000970732 0 0.000195003)
(-0.000996479 0 0.00015037)
(-0.00103179 0 0.000108862)
(-0.00108429 0 7.73076e-05)
(-0.00111923 0 6.63256e-05)
(-0.00113296 0 4.44619e-05)
(-0.00113399 0 2.19902e-05)
(-0.00113298 0 -2.97073e-05)
(-0.00111811 0 -4.94938e-05)
(-0.00106179 0 -9.85884e-05)
(-0.00103299 0 -5.51686e-05)
(-0.00101947 0 -6.3733e-06)
(-0.000997055 0 2.85317e-05)
(-0.000946229 0 -7.29612e-05)
(-0.000902763 0 -1.42521e-05)
(-0.000873541 0 -5.78508e-05)
(-0.000857701 0 -9.98594e-05)
(-0.000847119 0 -8.14345e-05)
(-0.000757089 0 -0.000230388)
(-0.000642616 0 -0.000194784)
(-0.00053543 0 -0.00021466)
(-0.000534093 0 -0.000121968)
(-0.000514225 0 -0.000102435)
(-0.000410684 0 -0.00018714)
(-0.000374695 0 -9.41774e-05)
(-0.000329068 0 -6.23452e-05)
(-0.000302398 0 -6.66013e-05)
(-0.000301253 0 -5.97503e-05)
(-0.000293214 0 -9.01099e-05)
(-0.000242096 0 -0.000185685)
(-0.000183957 0 -0.000228709)
(-0.000119913 0 -0.00028536)
(-3.07029e-05 0 -0.000332182)
(7.78721e-05 0 -0.000339404)
(0.000175779 0 -0.000325357)
(0.000305262 0 -0.000269088)
(0.00031132 0 -0.000372867)
(0.000462716 0 -0.000211237)
(0.000566991 0 -0.000105617)
(0.00057706 0 -0.000363025)
(0.000734188 0 -0.000103385)
(0.000738852 0 -5.6244e-05)
(0.000736486 0 -1.54864e-05)
(0.00074271 0 -1.83567e-05)
(0.000759403 0 6.04378e-05)
(0.000752291 0 9.76156e-05)
(0.000726599 0 0.000135759)
(0.000685009 0 0.000180313)
(0.000614186 0 0.000235009)
(0.000524131 0 0.000211889)
(0.000431625 0 0.000228555)
(0.000336969 0 0.000261675)
(0.000402915 0 0.000123107)
(0.00019404 0 0.00017869)
(-0.000441405 0 -2.03656e-05)
(-0.000587977 0 -8.8891e-06)
(1.29405e-05 0 0.000458556)
(-7.73543e-13 0 6.33314e-13)
(-1.56997e-12 0 6.34127e-14)
(-1.6262e-13 0 -1.91437e-14)
(-8.44899e-14 0 -6.8708e-14)
(-2.23548e-14 0 -9.78318e-14)
(3.44206e-14 0 -1.15177e-13)
(9.00475e-14 0 -1.25273e-13)
(1.45775e-13 0 -1.30563e-13)
(2.01667e-13 0 -1.32396e-13)
(2.57216e-13 0 -1.31299e-13)
(3.11586e-13 0 -1.27544e-13)
(3.6383e-13 0 -1.21312e-13)
(4.12992e-13 0 -1.12811e-13)
(4.58187e-13 0 -1.02329e-13)
(4.98665e-13 0 -9.02357e-14)
(5.33846e-13 0 -7.69439e-14)
(5.63302e-13 0 -6.28511e-14)
(5.8673e-13 0 -4.82955e-14)
(6.03933e-13 0 -3.35416e-14)
(6.14828e-13 0 -1.87976e-14)
(6.19464e-13 0 -4.25222e-15)
(6.18032e-13 0 9.89631e-15)
(6.1084e-13 0 2.34424e-14)
(5.98268e-13 0 3.61993e-14)
(5.80701e-13 0 4.80289e-14)
(5.58508e-13 0 5.88529e-14)
(5.32051e-13 0 6.86469e-14)
(5.01708e-13 0 7.74245e-14)
(4.67899e-13 0 8.52223e-14)
(4.31069e-13 0 9.20915e-14)
(3.9167e-13 0 9.80922e-14)
(3.50117e-13 0 1.03287e-13)
(3.06775e-13 0 1.0773e-13)
(2.6195e-13 0 1.11462e-13)
(2.15908e-13 0 1.14508e-13)
(1.68886e-13 0 1.16887e-13)
(1.2112e-13 0 1.18624e-13)
(7.28457e-14 0 1.19758e-13)
(2.43062e-14 0 1.2033e-13)
(1.2679e-06 0 4.45041e-05)
(-4.9178e-05 0 8.52987e-05)
(-0.000155055 0 0.000124035)
(-0.000196636 0 0.000238133)
(-0.000457653 0 0.000145424)
(-0.000419219 0 0.000295514)
(-0.000435991 0 0.000408302)
(-0.000538611 0 0.000400451)
(-0.000648104 0 0.000269893)
(-0.000702169 0 0.000129439)
(-0.000760207 0 0.000144637)
(-0.000817465 0 0.000149461)
(-0.000860696 0 6.58402e-05)
(-0.000899108 0 0.000154007)
(-0.000972766 0 1.95458e-05)
(-0.00100367 0 5.70868e-05)
(-0.00103172 0 5.43724e-06)
(-0.00105479 0 -3.7446e-05)
(-0.00107131 0 -3.31717e-05)
(-0.00107588 0 -4.60103e-05)
(-0.00107563 0 -1.94479e-05)
(-0.00106966 0 6.2873e-05)
(-0.00106508 0 0.000104382)
(-0.00106634 0 0.00017964)
(-0.00107127 0 0.000206304)
(-0.00107072 0 0.000208399)
(-0.00107511 0 0.000184089)
(-0.00110669 0 0.000121301)
(-0.00112484 0 0.00010339)
(-0.00113228 0 6.96248e-05)
(-0.00111656 0 1.63536e-05)
(-0.00111161 0 9.587e-06)
(-0.00112118 0 -1.65065e-05)
(-0.00108249 0 -0.000140177)
(-0.00103913 0 -8.51126e-05)
(-0.00102696 0 -5.89745e-05)
(-0.00102484 0 -4.32663e-05)
(-0.000940209 0 -6.46676e-05)
(-0.000871448 0 -4.91155e-05)
(-0.00084087 0 -7.91322e-05)
(-0.000821845 0 -0.000138391)
(-0.000804444 0 -0.000204576)
(-0.00072271 0 -0.000334507)
(-0.00063157 0 -0.000195497)
(-0.000486579 0 -0.000258182)
(-0.000498009 0 -0.000126794)
(-0.000461707 0 -0.000128733)
(-0.000344671 0 -0.000204045)
(-0.000281272 0 -0.000125861)
(-0.000202238 0 -0.000101068)
(-0.000165824 0 -6.8331e-05)
(-0.000162912 0 -5.02734e-05)
(-0.000167109 0 -7.8967e-05)
(-0.000141403 0 -0.000182093)
(-0.000101798 0 -0.000272434)
(-5.19137e-05 0 -0.000351498)
(-1.38088e-05 0 -0.000407324)
(3.50119e-05 0 -0.000442909)
(0.000142137 0 -0.000423642)
(0.000245124 0 -0.000382767)
(0.000320794 0 -0.00034997)
(0.000336998 0 -0.000371458)
(0.000474255 0 -0.00022974)
(0.000510784 0 -0.00030707)
(0.000587283 0 -0.000163626)
(0.000584908 0 -0.0001323)
(0.000600228 0 -0.000100956)
(0.000633226 0 -5.42528e-05)
(0.000672849 0 5.25889e-05)
(0.000671019 0 9.65413e-05)
(0.000659797 0 0.000112119)
(0.000623753 0 0.000184982)
(0.000556408 0 0.000282398)
(0.000483313 0 0.000299655)
(0.000435969 0 0.000275098)
(0.000363392 0 0.000320137)
(0.000170258 0 0.000445592)
(0.000170834 0 0.000335515)
(-8.34134e-05 0 -1.14175e-05)
(-0.000556265 0 -0.00031721)
(1.26979e-05 0 0.000470133)
(-7.87276e-13 0 5.08292e-13)
(-1.6561e-12 0 -1.01688e-13)
(-2.10976e-13 0 -1.19041e-13)
(-1.15532e-13 0 -1.41173e-13)
(-4.25562e-14 0 -1.59827e-13)
(2.1548e-14 0 -1.73713e-13)
(8.24028e-14 0 -1.82931e-13)
(1.42198e-13 0 -1.8805e-13)
(2.01574e-13 0 -1.8948e-13)
(2.60323e-13 0 -1.87328e-13)
(3.17711e-13 0 -1.8167e-13)
(3.72774e-13 0 -1.72635e-13)
(4.24468e-13 0 -1.60461e-13)
(4.71805e-13 0 -1.4552e-13)
(5.13967e-13 0 -1.28292e-13)
(5.50364e-13 0 -1.09316e-13)
(5.80609e-13 0 -8.9125e-14)
(6.04465e-13 0 -6.82067e-14)
(6.21798e-13 0 -4.69795e-14)
(6.32563e-13 0 -2.58021e-14)
(6.36814e-13 0 -4.99826e-15)
(6.34738e-13 0 1.51206e-14)
(6.26665e-13 0 3.42612e-14)
(6.13019e-13 0 5.21787e-14)
(5.9426e-13 0 6.87088e-14)
(5.70829e-13 0 8.37775e-14)
(5.43143e-13 0 9.73873e-14)
(5.11617e-13 0 1.09589e-13)
(4.76686e-13 0 1.20455e-13)
(4.38799e-13 0 1.30057e-13)
(3.98404e-13 0 1.38464e-13)
(3.55913e-13 0 1.45737e-13)
(3.11679e-13 0 1.51933e-13)
(2.66001e-13 0 1.57104e-13)
(2.19139e-13 0 1.61299e-13)
(1.71336e-13 0 1.64567e-13)
(1.22834e-13 0 1.66962e-13)
(7.38709e-14 0 1.68541e-13)
(2.46512e-14 0 1.69343e-13)
(1.22507e-05 0 8.45048e-05)
(4.09491e-05 0 0.000151503)
(-0.000163198 0 0.000255146)
(-0.00023168 0 0.000370126)
(-0.000484378 0 0.00033945)
(-0.000568013 0 0.000302397)
(-0.000592709 0 0.000291667)
(-0.000631172 0 0.000302374)
(-0.000673395 0 0.000308413)
(-0.000738381 0 0.000221863)
(-0.000768651 0 0.000284205)
(-0.000845401 0 0.000222101)
(-0.000892746 0 0.000170882)
(-0.000947528 0 0.000138939)
(-0.0010065 0 0.000161143)
(-0.00104998 0 0.000105068)
(-0.00108445 0 4.26294e-05)
(-0.00112121 0 5.51422e-06)
(-0.00114883 0 8.44585e-06)
(-0.00116973 0 -3.64144e-05)
(-0.00118445 0 -1.52689e-05)
(-0.00118685 0 6.0535e-06)
(-0.00118356 0 4.39119e-05)
(-0.00116623 0 0.00020792)
(-0.00114172 0 0.000231986)
(-0.00113085 0 0.000206081)
(-0.00112828 0 0.000203238)
(-0.00115277 0 0.000154978)
(-0.00117119 0 0.000106729)
(-0.00117744 0 6.70312e-05)
(-0.00115686 0 -0.000143082)
(-0.00114095 0 -2.21024e-05)
(-0.00113586 0 -8.29878e-05)
(-0.00113692 0 -0.000120695)
(-0.00109623 0 -0.000197668)
(-0.00108256 0 -0.000150778)
(-0.00108386 0 -1.17323e-05)
(-0.00101097 0 -0.000139402)
(-0.000940467 0 -0.000167446)
(-0.000894631 0 -7.20972e-05)
(-0.000821559 0 -0.00023591)
(-0.000804494 0 -0.000214184)
(-0.000807519 0 -0.000240022)
(-0.000614393 0 -0.000529789)
(-0.000538616 0 -0.000364788)
(-0.00051946 0 -0.000163295)
(-0.000412578 0 -0.000208767)
(-0.000165011 0 -0.00036831)
(-0.000251233 0 -0.000135727)
(-8.27692e-05 0 -0.000171568)
(-9.05646e-05 0 -8.33925e-05)
(-5.52663e-05 0 -5.83657e-05)
(-6.51739e-05 0 -7.8358e-05)
(-6.06906e-05 0 -0.000160395)
(-6.08978e-05 0 -0.000278814)
(-2.22629e-05 0 -0.000384431)
(-1.45368e-05 0 -0.000465634)
(7.86193e-05 0 -0.000484209)
(0.000115651 0 -0.000475425)
(0.000171052 0 -0.000471078)
(0.000239771 0 -0.000443217)
(0.000308872 0 -0.00038163)
(0.000364566 0 -0.000333367)
(0.000425186 0 -0.000299884)
(0.000470343 0 -0.00023339)
(0.000489617 0 -0.000157794)
(0.000515933 0 -6.33499e-05)
(0.000530629 0 -0.00015429)
(0.000559299 0 4.11381e-05)
(0.00054887 0 0.00012823)
(0.00052533 0 0.000213871)
(0.000509724 0 0.000266925)
(0.000479589 0 0.000326708)
(0.000442379 0 0.000340457)
(0.00036333 0 0.000364592)
(0.000252252 0 0.000449138)
(0.000140831 0 0.000510575)
(0.000178096 0 0.0004696)
(0.000277311 0 0.000322412)
(-0.000411397 0 -0.000116577)
(1.17623e-05 0 0.000436152)
(-5.82306e-13 0 4.85395e-13)
(-1.56935e-12 0 -2.35041e-13)
(-2.01147e-13 0 -2.14409e-13)
(-1.24359e-13 0 -2.17259e-13)
(-5.4014e-14 0 -2.26674e-13)
(1.19091e-14 0 -2.36654e-13)
(7.58713e-14 0 -2.44476e-13)
(1.39226e-13 0 -2.49157e-13)
(2.02389e-13 0 -2.50062e-13)
(2.65025e-13 0 -2.46764e-13)
(3.26279e-13 0 -2.39079e-13)
(3.85039e-13 0 -2.27052e-13)
(4.40107e-13 0 -2.10937e-13)
(4.90356e-13 0 -1.91174e-13)
(5.34869e-13 0 -1.68349e-13)
(5.73013e-13 0 -1.43144e-13)
(6.04411e-13 0 -1.16271e-13)
(6.28876e-13 0 -8.8424e-14)
(6.46337e-13 0 -6.02305e-14)
(6.56809e-13 0 -3.22319e-14)
(6.60387e-13 0 -4.89113e-15)
(6.57291e-13 0 2.13867e-14)
(6.47898e-13 0 4.62489e-14)
(6.32715e-13 0 6.94179e-14)
(6.123e-13 0 9.07182e-14)
(5.87187e-13 0 1.10085e-13)
(5.57863e-13 0 1.27543e-13)
(5.24776e-13 0 1.43176e-13)
(4.88367e-13 0 1.57083e-13)
(4.49078e-13 0 1.69361e-13)
(4.07349e-13 0 1.80093e-13)
(3.63586e-13 0 1.89354e-13)
(3.18142e-13 0 1.97218e-13)
(2.71316e-13 0 2.03759e-13)
(2.2337e-13 0 2.09053e-13)
(1.74549e-13 0 2.13176e-13)
(1.25093e-13 0 2.16205e-13)
(7.52272e-14 0 2.18207e-13)
(2.51087e-14 0 2.19225e-13)
(-0.00023402 0 0.000114052)
(-0.000323398 0 0.000123726)
(-0.00031817 0 0.000300144)
(-0.000139901 0 0.000576095)
(-0.000180701 0 0.000612468)
(-0.000398683 0 0.000502883)
(-0.000530313 0 0.000454964)
(-0.000597924 0 0.000437363)
(-0.000662812 0 0.000413634)
(-0.000729444 0 0.000358371)
(-0.000800909 0 0.000293529)
(-0.000857304 0 0.000258743)
(-0.000892277 0 0.000251901)
(-0.000954088 0 0.000170863)
(-0.00101245 0 0.000199004)
(-0.00107468 0 0.000151195)
(-0.00111711 0 6.66738e-05)
(-0.00114003 0 3.3023e-05)
(-0.00116854 0 6.42515e-05)
(-0.00120895 0 -1.84728e-05)
(-0.00124462 0 1.08864e-05)
(-0.0012649 0 4.67702e-05)
(-0.00126874 0 4.88419e-05)
(-0.00124398 0 0.000138602)
(-0.00121357 0 0.000177382)
(-0.00119783 0 0.000161664)
(-0.00118777 0 0.000166208)
(-0.00118449 0 0.000160922)
(-0.00117913 0 0.000122684)
(-0.0011732 0 8.02521e-05)
(-0.00116806 0 4.43667e-06)
(-0.00115235 0 -4.53251e-05)
(-0.00114372 0 -7.39604e-05)
(-0.00114495 0 -0.000102059)
(-0.00112726 0 -0.000134792)
(-0.00108782 0 -0.000124511)
(-0.0010752 0 -0.000106182)
(-0.00105768 0 -0.00022057)
(-0.001021 0 -0.000198496)
(-0.00096553 0 -0.000115725)
(-0.000869894 0 -0.000315709)
(-0.000840968 0 -0.000307149)
(-0.000796614 0 -0.000387374)
(-0.000643547 0 -0.000552303)
(-0.000682269 0 -0.000221369)
(-0.000540536 0 -0.000238563)
(-0.000255786 0 -0.000493412)
(-0.000127529 0 -0.000406036)
(-0.00019663 0 -0.000212235)
(-2.98973e-05 0 -0.000247381)
(-5.06242e-05 0 -0.000134247)
(-4.19055e-05 0 -4.98828e-05)
(-3.64109e-05 0 -7.37543e-05)
(-5.22204e-05 0 -0.00014562)
(-4.49752e-05 0 -0.000270206)
(-1.8613e-05 0 -0.000397825)
(-2.81472e-05 0 -0.000488987)
(4.68098e-05 0 -0.000514775)
(6.51138e-05 0 -0.000528427)
(0.000151129 0 -0.000508625)
(0.000151931 0 -0.000498514)
(0.000257935 0 -0.000435648)
(0.000257557 0 -0.000423603)
(0.000341302 0 -0.000327333)
(0.000380202 0 -0.000251179)
(0.000389789 0 -0.000160037)
(0.000397769 0 -0.000145962)
(0.000429229 0 -6.91848e-05)
(0.000441984 0 5.43524e-05)
(0.000426833 0 0.000115544)
(0.00042719 0 0.000152595)
(0.000439685 0 0.000232058)
(0.000379905 0 0.000372874)
(0.00036682 0 0.000386602)
(0.000320937 0 0.000411683)
(0.000280538 0 0.000471717)
(0.000250016 0 0.000509215)
(0.000184327 0 0.000519893)
(0.000388795 0 0.000314357)
(-0.000319289 0 -6.856e-05)
(1.11482e-05 0 0.000449253)
(-3.94778e-13 0 6.93947e-13)
(-1.5461e-12 0 -2.97846e-13)
(-1.92279e-13 0 -2.86402e-13)
(-1.26917e-13 0 -2.86781e-13)
(-6.11064e-14 0 -2.92925e-13)
(4.27115e-15 0 -3.01364e-13)
(7.00113e-14 0 -3.09e-13)
(1.36612e-13 0 -3.14021e-13)
(2.03967e-13 0 -3.14912e-13)
(2.71305e-13 0 -3.1071e-13)
(3.37423e-13 0 -3.00967e-13)
(4.00916e-13 0 -2.85663e-13)
(4.60346e-13 0 -2.65117e-13)
(5.14392e-13 0 -2.39899e-13)
(5.61998e-13 0 -2.10761e-13)
(6.02442e-13 0 -1.78587e-13)
(6.35329e-13 0 -1.44325e-13)
(6.60505e-13 0 -1.08916e-13)
(6.7799e-13 0 -7.3222e-14)
(6.87902e-13 0 -3.7975e-14)
(6.90432e-13 0 -3.76763e-15)
(6.85878e-13 0 2.8923e-14)
(6.74696e-13 0 5.97097e-14)
(6.57489e-13 0 8.82977e-14)
(6.34927e-13 0 1.14503e-13)
(6.07654e-13 0 1.38262e-13)
(5.76235e-13 0 1.59613e-13)
(5.41157e-13 0 1.78661e-13)
(5.0287e-13 0 1.95543e-13)
(4.61808e-13 0 2.10392e-13)
(4.18397e-13 0 2.23329e-13)
(3.73038e-13 0 2.3446e-13)
(3.26084e-13 0 2.43889e-13)
(2.77836e-13 0 2.51716e-13)
(2.28556e-13 0 2.58042e-13)
(1.78488e-13 0 2.62967e-13)
(1.27865e-13 0 2.66586e-13)
(7.6891e-14 0 2.68976e-13)
(2.56694e-14 0 2.70188e-13)
(-1.99196e-05 0 0.000266294)
(4.63517e-05 0 0.000373004)
(-0.000419993 0 0.000360551)
(-0.000511339 0 0.000401505)
(-0.000434997 0 0.000514413)
(-0.000361705 0 0.000579344)
(-0.000452092 0 0.000557834)
(-0.00057643 0 0.000494029)
(-0.000617732 0 0.00047964)
(-0.000708884 0 0.000398257)
(-0.000781231 0 0.000365418)
(-0.000834227 0 0.000333251)
(-0.000875556 0 0.000282362)
(-0.000928282 0 0.000235464)
(-0.000990869 0 0.000226667)
(-0.00104049 0 0.000193303)
(-0.00106588 0 0.000135133)
(-0.00108755 0 -3.53912e-05)
(-0.00115402 0 0.000114321)
(-0.00121164 0 -3.67e-07)
(-0.00124732 0 9.27301e-06)
(-0.00127116 0 5.33967e-05)
(-0.0012778 0 4.38795e-05)
(-0.00125271 0 0.000138104)
(-0.00121724 0 0.000191487)
(-0.00120011 0 0.000159846)
(-0.00117784 0 0.000158367)
(-0.00115338 0 0.00014565)
(-0.00113155 0 8.27337e-05)
(-0.00111312 0 1.88345e-05)
(-0.00109891 0 -2.98934e-05)
(-0.00108402 0 -4.41284e-05)
(-0.00106867 0 -0.000100841)
(-0.00106357 0 -0.000133319)
(-0.00106666 0 -0.000154274)
(-0.0010431 0 -0.000221639)
(-0.00103981 0 -0.000188239)
(-0.00105297 0 -0.00017143)
(-0.001033 0 -0.00018208)
(-0.000947093 0 -0.000226393)
(-0.000872158 0 -0.000304708)
(-0.000809484 0 -0.000374575)
(-0.00074758 0 -0.000471496)
(-0.000604098 0 -0.000597993)
(-0.000500441 0 -0.000526812)
(-0.000400434 0 -0.000522165)
(-0.000274866 0 -0.000535836)
(-0.000127563 0 -0.000482496)
(-0.000168637 0 -0.000292991)
(-7.31479e-05 0 -0.000246607)
(-9.19681e-05 0 -0.000149072)
(-0.000108345 0 -4.92809e-05)
(-8.3721e-05 0 -6.59496e-05)
(-7.63446e-05 0 -0.000137417)
(-8.87535e-05 0 -0.000267546)
(-7.81542e-05 0 -0.000401973)
(-5.4453e-05 0 -0.00048612)
(-0.00012214 0 -0.000541884)
(-2.45042e-05 0 -0.000575223)
(3.828e-05 0 -0.00055227)
(7.1195e-06 0 -0.000550149)
(0.000139523 0 -0.00049029)
(0.000157842 0 -0.00045558)
(0.000196534 0 -0.000403392)
(0.000255683 0 -0.000292793)
(0.000258516 0 -0.00019665)
(0.000273323 0 -0.000148186)
(0.000301954 0 -0.000123497)
(0.000320889 0 4.35657e-05)
(0.000306199 0 0.000128576)
(0.000289092 0 0.000217686)
(0.000226939 0 0.000373181)
(0.000251818 0 0.000417704)
(0.000272959 0 0.000420339)
(0.000217106 0 0.000476667)
(0.000194402 0 0.000533812)
(0.000260844 0 0.000493272)
(0.000146158 0 0.000508098)
(0.000389236 0 0.000268895)
(-0.000281442 0 6.07892e-05)
(1.15999e-05 0 0.000533868)
(-4.05706e-13 0 9.6453e-13)
(-1.5256e-12 0 -3.37811e-13)
(-1.89202e-13 0 -3.46585e-13)
(-1.30041e-13 0 -3.50443e-13)
(-6.77922e-14 0 -3.56847e-13)
(-3.71648e-15 0 -3.66441e-13)
(6.327e-14 0 -3.76129e-13)
(1.33315e-13 0 -3.83117e-13)
(2.05701e-13 0 -3.85039e-13)
(2.7897e-13 0 -3.80424e-13)
(3.51326e-13 0 -3.68615e-13)
(4.20888e-13 0 -3.49619e-13)
(4.85872e-13 0 -3.23931e-13)
(5.44713e-13 0 -2.92372e-13)
(5.96181e-13 0 -2.55969e-13)
(6.39448e-13 0 -2.15894e-13)
(6.74082e-13 0 -1.73378e-13)
(6.99979e-13 0 -1.2964e-13)
(7.17278e-13 0 -8.57873e-14)
(7.26263e-13 0 -4.27484e-14)
(7.27285e-13 0 -1.24048e-15)
(7.20768e-13 0 3.81988e-14)
(7.07273e-13 0 7.51637e-14)
(6.87509e-13 0 1.09357e-13)
(6.62264e-13 0 1.40596e-13)
(6.32296e-13 0 1.68818e-13)
(5.98262e-13 0 1.94072e-13)
(5.60707e-13 0 2.16491e-13)
(5.20098e-13 0 2.36254e-13)
(4.76864e-13 0 2.53547e-13)
(4.31417e-13 0 2.68545e-13)
(3.84146e-13 0 2.81402e-13)
(3.35398e-13 0 2.92261e-13)
(2.85469e-13 0 3.01256e-13)
(2.34621e-13 0 3.08514e-13)
(1.83093e-13 0 3.1416e-13)
(1.31103e-13 0 3.18304e-13)
(7.88298e-14 0 3.21036e-13)
(2.63209e-14 0 3.22416e-13)
(-6.53844e-05 0 0.000278015)
(-0.000108747 0 0.000447381)
(-2.17042e-05 0 0.000557333)
(-0.000340044 0 0.000580261)
(-0.000490084 0 0.000541973)
(-0.000605501 0 0.000475006)
(-0.000574942 0 0.000517134)
(-0.000586541 0 0.000536497)
(-0.000602209 0 0.000517578)
(-0.000692757 0 0.00043461)
(-0.000720216 0 0.000458941)
(-0.000774172 0 0.000416015)
(-0.000817031 0 0.000362854)
(-0.000883275 0 0.000281083)
(-0.000914373 0 0.00029862)
(-0.000940831 0 0.000274452)
(-0.000962458 0 0.000207018)
(-0.00100349 0 -6.8213e-05)
(-0.00104831 0 0.000223765)
(-0.00111222 0 5.54129e-05)
(-0.00115506 0 2.77862e-05)
(-0.001185 0 7.56609e-05)
(-0.00119476 0 4.80472e-05)
(-0.00118644 0 8.53862e-05)
(-0.00115276 0 0.000148262)
(-0.0011181 0 0.000144597)
(-0.00108568 0 0.000120598)
(-0.00104862 0 0.000116141)
(-0.00101693 0 6.0415e-05)
(-0.000996617 0 1.02405e-05)
(-0.000985627 0 -4.57067e-05)
(-0.000975229 0 -9.51689e-05)
(-0.000962838 0 -0.000131515)
(-0.00095559 0 -0.000146989)
(-0.00095868 0 -0.00015353)
(-0.000963293 0 -0.000139658)
(-0.000949174 0 -0.000162362)
(-0.000935014 0 -0.000207554)
(-0.000908961 0 -0.000280227)
(-0.000871054 0 -0.000298616)
(-0.000785326 0 -0.000424357)
(-0.000732342 0 -0.000479099)
(-0.000665211 0 -0.000580353)
(-0.00059236 0 -0.000618567)
(-0.000461721 0 -0.000679469)
(-0.00046425 0 -0.000657254)
(-0.000277526 0 -0.000712034)
(-0.000244646 0 -0.000559224)
(-0.000205449 0 -0.000363268)
(-0.000156965 0 -0.000233353)
(-0.000185351 0 -0.000144139)
(-0.000201139 0 -9.17063e-05)
(-0.000171725 0 -7.12024e-05)
(-0.000175951 0 -0.00012458)
(-0.00017617 0 -0.000286725)
(-0.000210683 0 -0.000410827)
(-0.000170931 0 -0.000498163)
(-0.000233686 0 -0.000552213)
(-0.000122665 0 -0.00059909)
(-0.000193101 0 -0.000610582)
(-8.44366e-05 0 -0.000588841)
(-3.16933e-05 0 -0.000548198)
(5.65584e-05 0 -0.000472485)
(4.83943e-05 0 -0.00043406)
(0.000122305 0 -0.00034437)
(0.000119959 0 -0.000256665)
(0.000170535 0 -0.00013516)
(0.000192983 0 -6.83269e-05)
(0.000188015 0 4.45323e-05)
(0.000190962 0 0.000115695)
(0.000229551 0 0.000176126)
(0.000290166 0 0.000214799)
(0.000294416 0 0.000323574)
(0.000217414 0 0.000424721)
(0.000176109 0 0.000488921)
(0.000168443 0 0.000523879)
(0.000231266 0 0.000476196)
(0.000105738 0 0.000485632)
(0.000358926 0 0.000282042)
(-0.000282489 0 0.000138596)
(1.22937e-05 0 0.000671283)
(-5.4134e-13 0 1.37081e-12)
(-1.57515e-12 0 -3.89516e-13)
(-2.04064e-13 0 -4.11665e-13)
(-1.36379e-13 0 -4.11439e-13)
(-7.63623e-14 0 -4.17633e-13)
(-1.46452e-14 0 -4.31069e-13)
(5.33502e-14 0 -4.46017e-13)
(1.27702e-13 0 -4.57453e-13)
(2.0666e-13 0 -4.61918e-13)
(2.87729e-13 0 -4.57531e-13)
(3.68229e-13 0 -4.43598e-13)
(4.456e-13 0 -4.20322e-13)
(5.17593e-13 0 -3.88546e-13)
(5.82355e-13 0 -3.49493e-13)
(6.38476e-13 0 -3.04602e-13)
(6.85033e-13 0 -2.55427e-13)
(7.21582e-13 0 -2.0355e-13)
(7.48097e-13 0 -1.50493e-13)
(7.64882e-13 0 -9.76277e-14)
(7.72449e-13 0 -4.60855e-14)
(7.7138e-13 0 3.28502e-15)
(7.62283e-13 0 4.98872e-14)
(7.45855e-13 0 9.33099e-14)
(7.22921e-13 0 1.33276e-13)
(6.94388e-13 0 1.69626e-13)
(6.6113e-13 0 2.02319e-13)
(6.23908e-13 0 2.3143e-13)
(5.8334e-13 0 2.57129e-13)
(5.39927e-13 0 2.79643e-13)
(4.94098e-13 0 2.99222e-13)
(4.46252e-13 0 3.16105e-13)
(3.96755e-13 0 3.3051e-13)
(3.45938e-13 0 3.42628e-13)
(2.94089e-13 0 3.52635e-13)
(2.4146e-13 0 3.60692e-13)
(1.88278e-13 0 3.66947e-13)
(1.34742e-13 0 3.71531e-13)
(8.10028e-14 0 3.74547e-13)
(2.70488e-14 0 3.76063e-13)
(-2.98268e-05 0 0.00030483)
(-0.000190175 0 0.000509726)
(2.16879e-05 0 0.000672093)
(-0.000170688 0 0.00069626)
(-0.000250988 0 0.000711954)
(-0.000299649 0 0.00071552)
(-0.000501812 0 0.000628596)
(-0.000516079 0 0.000634316)
(-0.000579533 0 0.000570269)
(-0.000655206 0 0.000480973)
(-0.000713689 0 0.000434008)
(-0.000735172 0 0.000406849)
(-0.000757578 0 0.000361315)
(-0.000816124 0 0.000281517)
(-0.00081965 0 0.000293159)
(-0.000814215 0 0.000284587)
(-0.0008285 0 0.000246714)
(-0.000887409 0 0.000148476)
(-0.000914773 0 0.0001666)
(-0.000941261 0 0.0001275)
(-0.000977404 0 9.91109e-05)
(-0.000996278 0 0.000100502)
(-0.000999548 0 7.84756e-05)
(-0.000998764 0 4.87805e-05)
(-0.000992297 0 0.000102127)
(-0.000951714 0 8.15327e-05)
(-0.000915264 0 7.71796e-05)
(-0.000880332 0 7.75291e-05)
(-0.000848956 0 3.71508e-05)
(-0.000834087 0 -7.92539e-08)
(-0.000832519 0 -1.3891e-05)
(-0.000846321 0 -4.61686e-05)
(-0.000849038 0 -8.63411e-05)
(-0.000837311 0 -0.000158773)
(-0.000835841 0 -0.000160345)
(-0.000819086 0 -0.000194173)
(-0.000797178 0 -0.000219412)
(-0.000788928 0 -0.00023626)
(-0.000781605 0 -0.000276321)
(-0.000755961 0 -0.0003521)
(-0.000704405 0 -0.000463999)
(-0.000653256 0 -0.000588146)
(-0.000658644 0 -0.000617891)
(-0.00061966 0 -0.000673386)
(-0.000559473 0 -0.00072546)
(-0.000552717 0 -0.000735647)
(-0.000521599 0 -0.00073767)
(-0.000463821 0 -0.000637569)
(-0.000423869 0 -0.000410691)
(-0.000349777 0 -0.00022753)
(-0.000295937 0 -0.000147476)
(-0.000359887 0 -5.81265e-05)
(-0.00032966 0 -5.75062e-05)
(-0.000343588 0 -0.000128504)
(-0.000280442 0 -0.000364694)
(-0.00029899 0 -0.000436989)
(-0.000265976 0 -0.000529809)
(-0.000174883 0 -0.000602764)
(-0.000235701 0 -0.000628281)
(-0.000187066 0 -0.000657488)
(-0.000196527 0 -0.000643568)