/*--------------------------------*- C++ -*----------------------------------*\
  =========                 |
  \\      /  F ield         | OpenFOAM: The Open Source CFD Toolbox
   \\    /   O peration     | Website:  https://openfoam.org
    \\  /    A nd           | Version:  6
     \\/     M anipulation  |
\*---------------------------------------------------------------------------*/
FoamFile
{
    version     2.0;
    format      ascii;
    class       surfaceScalarField;
    location    "240";
    object      phi;
}
// * * * * * * * * * * * * * * * * * * * * * * * * * * * * * * * * * * * * * //

dimensions      [0 3 -1 0 0 0 0];

internalField   nonuniform List<scalar> 
11773
(
-1.42696e-08
1.42696e-08
-4.90828e-08
3.4828e-08
-7.03963e-08
2.13255e-08
-7.82322e-08
7.84712e-09
-6.73481e-08
-1.08727e-08
-5.92438e-08
-8.09264e-09
-3.68016e-08
-2.24306e-08
-2.22346e-09
-3.45666e-08
2.96208e-09
-5.17398e-09
6.46279e-09
-3.4891e-09
1.38234e-10
6.33613e-09
-6.95364e-12
1.56796e-10
1.13828e-13
4.87092e-14
9.03085e-14
2.35199e-14
7.62999e-14
1.40245e-14
6.66598e-14
9.65699e-15
5.94045e-14
7.27178e-15
5.3627e-14
5.79345e-15
4.88487e-14
4.79358e-15
4.47887e-14
4.07456e-15
4.1269e-14
3.53354e-15
3.81701e-14
3.11188e-15
3.54085e-14
2.7738e-15
3.29234e-14
2.49636e-15
3.06695e-14
2.26421e-15
2.86121e-14
2.06673e-15
2.67241e-14
1.89638e-15
2.49839e-14
1.74766e-15
2.33741e-14
1.61644e-15
2.18802e-14
1.49962e-15
2.04905e-14
1.39478e-15
1.91947e-14
1.30003e-15
1.79845e-14
1.21388e-15
1.68525e-14
1.13512e-15
1.57924e-14
1.06277e-15
1.47985e-14
9.96033e-16
1.38661e-14
9.34258e-16
1.29906e-14
8.76891e-16
1.21683e-14
8.23475e-16
1.13956e-14
7.73619e-16
1.06694e-14
7.26994e-16
9.98664e-15
6.83318e-16
9.34475e-15
6.42345e-16
8.74125e-15
6.03866e-16
8.17385e-15
5.67693e-16
7.64043e-15
5.33664e-16
7.13901e-15
5.01635e-16
6.66773e-15
4.71476e-16
6.22485e-15
4.43072e-16
5.80873e-15
4.16317e-16
5.41783e-15
3.91118e-16
5.05068e-15
3.67386e-16
4.70589e-15
3.45041e-16
4.38217e-15
3.2401e-16
4.07826e-15
3.04223e-16
3.79299e-15
2.85617e-16
3.52524e-15
2.68132e-16
3.27395e-15
2.51711e-16
3.0381e-15
2.36302e-16
2.81673e-15
2.21854e-16
2.60892e-15
2.08322e-16
2.41382e-15
1.95659e-16
2.23057e-15
1.83826e-16
2.05841e-15
1.72781e-16
1.89657e-15
1.62487e-16
1.74434e-15
1.5291e-16
1.60103e-15
1.44014e-16
1.46599e-15
1.35769e-16
1.33861e-15
1.28144e-16
1.21828e-15
1.2111e-16
1.10445e-15
1.14642e-16
9.96574e-16
1.08712e-16
8.94133e-16
1.03298e-16
7.96635e-16
9.83746e-17
7.03612e-16
9.39199e-17
6.14615e-16
8.99117e-17
5.29217e-16
8.6329e-17
4.47012e-16
8.31517e-17
3.67608e-16
8.03629e-17
2.90623e-16
7.79562e-17
2.15683e-16
7.59216e-17
1.42819e-16
7.38531e-17
7.16599e-17
7.21547e-17
7.26598e-17
-4.99214e-08
6.4206e-08
-6.00374e-08
4.49678e-08
-6.05414e-08
2.18502e-08
-6.89798e-08
1.63061e-08
-6.75335e-08
-1.22983e-08
-5.04913e-08
-2.5114e-08
-4.07385e-08
-3.21629e-08
-3.62776e-08
-3.9007e-08
-1.0871e-08
-3.05599e-08
4.13095e-09
-1.84703e-08
-1.44023e-09
1.19281e-08
-5.40886e-12
-1.26182e-09
9.17297e-14
4.86159e-14
8.19928e-14
3.3272e-14
7.24849e-14
2.35616e-14
6.45831e-14
1.75883e-14
5.81221e-14
1.37612e-14
5.27631e-14
1.11796e-14
4.82301e-14
9.35237e-15
4.43254e-14
8.00373e-15
4.09096e-14
6.97231e-15
3.78835e-14
6.1595e-15
3.51745e-14
5.50263e-15
3.27287e-14
4.96035e-15
3.05048e-14
4.50453e-15
2.84709e-14
4.11542e-15
2.66016e-14
3.77884e-15
2.48766e-14
3.48432e-15
2.32792e-14
3.22402e-15
2.17957e-14
2.99194e-15
2.04147e-14
2.78343e-15
1.91264e-14
2.59481e-15
1.79226e-14
2.42317e-15
1.67962e-14
2.26617e-15
1.57409e-14
2.12188e-15
1.47513e-14
1.98876e-15
1.38226e-14
1.86549e-15
1.29506e-14
1.75099e-15
1.21313e-14
1.64437e-15
1.13614e-14
1.54485e-15
1.06377e-14
1.45177e-15
9.95725e-15
1.36457e-15
9.31747e-15
1.28277e-15
8.71591e-15
1.20595e-15
8.1503e-15
1.13374e-15
7.61854e-15
1.06581e-15
7.11866e-15
1.00187e-15
6.64882e-15
9.41668e-16
6.20728e-15
8.84971e-16
5.79242e-15
8.31568e-16
5.40268e-15
7.81271e-16
5.03663e-15
7.33904e-16
4.69288e-15
6.89308e-16
4.37013e-15
6.47334e-16
4.06713e-15
6.07846e-16
3.78273e-15
5.70714e-16
3.51579e-15
5.3582e-16
3.26526e-15
5.03052e-16
3.03013e-15
4.72303e-16
2.80945e-15
4.43474e-16
2.60229e-15
4.16471e-16
2.4078e-15
3.91207e-16
2.22513e-15
3.67596e-16
2.05352e-15
3.45559e-16
1.8922e-15
3.25022e-16
1.74046e-15
3.05914e-16
1.59763e-15
2.88167e-16
1.46304e-15
2.71717e-16
1.33609e-15
2.56506e-16
1.21618e-15
2.42476e-16
1.10275e-15
2.29573e-16
9.95249e-16
2.17746e-16
8.93172e-16
2.06947e-16
7.96022e-16
1.97131e-16
7.03329e-16
1.88253e-16
6.14639e-16
1.8027e-16
5.29519e-16
1.73143e-16
4.47559e-16
1.66831e-16
3.68371e-16
1.6129e-16
2.91607e-16
1.56476e-16
2.16958e-16
1.52341e-16
1.43857e-16
1.48735e-16
7.21039e-17
1.45696e-16
1.45556e-16
-3.17664e-08
9.5984e-08
-5.31957e-08
6.64176e-08
-5.98382e-08
2.85107e-08
-5.4778e-08
1.12636e-08
-5.79e-08
-9.15859e-09
-4.52759e-08
-3.77203e-08
-4.20531e-08
-3.53679e-08
-3.01554e-08
-5.08868e-08
-9.18166e-09
-5.15157e-08
-1.87919e-09
-2.57549e-08
2.39554e-09
7.67132e-09
-5.06279e-12
1.15314e-09
7.82764e-14
4.85379e-14
7.3483e-14
3.80777e-14
6.72555e-14
2.98143e-14
6.12373e-14
2.36317e-14
5.5869e-14
1.91539e-14
5.11713e-14
1.59007e-14
4.70578e-14
1.34883e-14
4.34308e-14
1.16519e-14
4.02064e-14
1.02167e-14
3.73165e-14
9.06792e-15
3.47077e-14
8.12866e-15
3.23373e-14
7.34641e-15
3.01717e-14
6.68442e-15
2.81836e-14
6.11632e-15
2.6351e-14
5.62284e-15
2.46558e-14
5.18959e-15
2.3083e-14
4.80563e-15
2.16201e-14
4.46253e-15
2.02564e-14
4.15369e-15
1.89829e-14
3.87389e-15
1.77919e-14
3.61895e-15
1.66765e-14
3.38549e-15
1.5631e-14
3.17075e-15
1.465e-14
2.97245e-15
1.3729e-14
2.78871e-15
1.28638e-14
2.61795e-15
1.20507e-14
2.45885e-15
1.12864e-14
2.31028e-15
1.05678e-14
2.17128e-15
9.89198e-15
2.04103e-15
9.2565e-15
1.9188e-15
8.6589e-15
1.80399e-15
8.09696e-15
1.69604e-15
7.56861e-15
1.59447e-15
7.07191e-15
1.49886e-15
6.60504e-15
1.40882e-15
6.16629e-15
1.32402e-15
5.75404e-15
1.24414e-15
5.36677e-15
1.1689e-15
5.00303e-15
1.09803e-15
4.66146e-15
1.03131e-15
4.34077e-15
9.68512e-16
4.03973e-15
9.09428e-16
3.75717e-15
8.53871e-16
3.49197e-15
8.0166e-16
3.2431e-15
7.52629e-16
3.00953e-15
7.06619e-16
2.79033e-15
6.63483e-16
2.58458e-15
6.23079e-16
2.39142e-15
5.85276e-16
2.21003e-15
5.49948e-16
2.03962e-15
5.16976e-16
1.87945e-15
4.86248e-16
1.72881e-15
4.57658e-16
1.58702e-15
4.31105e-16
1.45343e-15
4.06494e-16
1.32743e-15
3.83736e-16
1.20842e-15
3.62745e-16
1.09586e-15
3.43441e-16
9.89189e-16
3.2575e-16
8.87908e-16
3.09599e-16
7.91519e-16
2.9492e-16
6.9955e-16
2.8165e-16
6.11547e-16
2.69728e-16
5.27073e-16
2.59095e-16
4.45711e-16
2.49691e-16
3.67069e-16
2.41449e-16
2.90789e-16
2.34289e-16
2.16539e-16
2.28136e-16
1.43858e-16
2.22971e-16
7.20627e-17
2.19052e-16
2.18394e-16
-2.41202e-08
1.20115e-07
-3.58454e-08
7.81629e-08
-4.84198e-08
4.11026e-08
-4.81161e-08
1.09772e-08
-4.47356e-08
-1.25219e-08
-3.87646e-08
-4.3674e-08
-3.69049e-08
-3.72101e-08
-3.16607e-08
-5.61135e-08
-2.60443e-08
-5.71146e-08
-8.54358e-09
-4.32382e-08
4.91041e-09
-5.76517e-09
-3.30431e-12
6.0807e-09
6.91002e-14
4.17265e-14
6.62365e-14
4.09536e-14
6.18376e-14
3.42382e-14
5.7317e-14
2.81773e-14
5.30241e-14
2.34707e-14
4.90644e-14
1.98833e-14
4.54561e-14
1.71183e-14
4.21811e-14
1.49475e-14
3.92075e-14
1.32096e-14
3.65012e-14
1.17922e-14
3.40298e-14
1.06167e-14
3.17647e-14
9.62674e-15
2.96812e-14
8.78168e-15
2.77583e-14
8.05152e-15
2.59784e-14
7.41378e-15
2.43263e-14
6.85139e-15
2.27892e-14
6.35117e-15
2.13562e-14
5.90285e-15
2.0018e-14
5.49828e-15
1.87662e-14
5.13099e-15
1.7594e-14
4.79574e-15
1.6495e-14
4.48826e-15
1.54638e-14
4.20507e-15
1.44956e-14
3.94327e-15
1.35859e-14
3.70047e-15
1.27309e-14
3.47463e-15
1.1927e-14
3.26406e-15
1.1171e-14
3.0673e-15
1.046e-14
2.88312e-15
9.79119e-15
2.71045e-15
9.16213e-15
2.54836e-15
8.57048e-15
2.39604e-15
8.01406e-15
2.25278e-15
7.49085e-15
2.11796e-15
6.99895e-15
1.99102e-15
6.53657e-15
1.87146e-15
6.10203e-15
1.75883e-15
5.69374e-15
1.65273e-15
5.3102e-15
1.55277e-15
4.94999e-15
1.45862e-15
4.61175e-15
1.36998e-15
4.2942e-15
1.28653e-15
3.99613e-15
1.20802e-15
3.71639e-15
1.1342e-15
3.45386e-15
1.06482e-15
3.20752e-15
9.99661e-16
2.97636e-15
9.38521e-16
2.75944e-15
8.812e-16
2.55586e-15
8.2751e-16
2.36476e-15
7.77277e-16
2.18532e-15
7.30333e-16
2.01677e-15
6.86521e-16
1.85838e-15
6.45692e-16
1.70942e-15
6.07704e-16
1.56923e-15
5.72424e-16
1.43718e-15
5.39725e-16
1.31264e-15
5.09489e-16
1.19504e-15
4.81603e-16
1.08381e-15
4.5596e-16
9.78423e-16
4.32461e-16
8.78368e-16
4.11012e-16
7.83152e-16
3.91524e-16
6.92305e-16
3.73913e-16
6.05373e-16
3.58102e-16
5.21919e-16
3.44015e-16
4.41521e-16
3.31576e-16
3.6378e-16
3.20694e-16
2.88323e-16
3.11266e-16
2.14795e-16
3.03196e-16
1.42817e-16
2.96491e-16
7.1566e-17
2.91853e-16
2.90741e-16
-1.67638e-08
1.3689e-07
-2.9438e-08
9.0857e-08
-3.97584e-08
5.14404e-08
-4.49022e-08
1.6138e-08
-4.14707e-08
-1.59362e-08
-4.3871e-08
-4.12565e-08
-3.40499e-08
-4.70141e-08
-2.86413e-08
-6.15049e-08
-2.34203e-08
-6.23183e-08
-1.17008e-08
-5.49405e-08
-6.01445e-09
-1.14353e-08
1.01678e-13
7.33638e-11
6.84144e-14
7.5541e-14
6.03413e-14
4.90386e-14
5.65222e-14
3.80818e-14
5.31932e-14
3.15308e-14
4.9884e-14
2.68036e-14
4.66467e-14
2.31431e-14
4.356e-14
2.02264e-14
4.06648e-14
1.78629e-14
3.79724e-14
1.59208e-14
3.54781e-14
1.43042e-14
3.31693e-14
1.29417e-14
3.1031e-14
1.17798e-14
2.90482e-14
1.0778e-14
2.72062e-14
9.90544e-15
2.54922e-14
9.13843e-15
2.38946e-14
8.45846e-15
2.24029e-14
7.85102e-15
2.10083e-14
7.30461e-15
1.97026e-14
6.81002e-15
1.84789e-14
6.35983e-15
1.7331e-14
5.94801e-15
1.62533e-14
5.5696e-15
1.52409e-14
5.22051e-15
1.42892e-14
4.89734e-15
1.33944e-14
4.59725e-15
1.25527e-14
4.31785e-15
1.17609e-14
4.05709e-15
1.10159e-14
3.81326e-15
1.03149e-14
3.58485e-15
9.65536e-15
3.37058e-15
9.03481e-15
3.16934e-15
8.45103e-15
2.98016e-15
7.90193e-15
2.80216e-15
7.38555e-15
2.63459e-15
6.90003e-15
2.47677e-15
6.44364e-15
2.32809e-15
6.01473e-15
2.188e-15
5.61173e-15
2.056e-15
5.23318e-15
1.93164e-15
4.87768e-15
1.81449e-15
4.54389e-15
1.70417e-15
4.23056e-15
1.60033e-15
3.93648e-15
1.50262e-15
3.66052e-15
1.41073e-15
3.40159e-15
1.32438e-15
3.15865e-15
1.24329e-15
2.93072e-15
1.16719e-15
2.71687e-15
1.09585e-15
2.51621e-15
1.02903e-15
2.32788e-15
9.66507e-16
2.15108e-15
9.08085e-16
1.98505e-15
8.53562e-16
1.82904e-15
8.02752e-16
1.68236e-15
7.55481e-16
1.54434e-15
7.11581e-16
1.41436e-15
6.70896e-16
1.2918e-15
6.33277e-16
1.17608e-15
5.98584e-16
1.06666e-15
5.66685e-16
9.62997e-16
5.37457e-16
8.64596e-16
5.10783e-16
7.70965e-16
4.86555e-16
6.81638e-16
4.6467e-16
5.96162e-16
4.45033e-16
5.14102e-16
4.27554e-16
4.35038e-16
4.12139e-16
3.58565e-16
3.98684e-16
2.84297e-16
3.87068e-16
2.11856e-16
3.77184e-16
1.4086e-16
3.69043e-16
7.05895e-17
3.63687e-16
3.62123e-16
-1.87807e-08
1.55682e-07
-3.38462e-08
1.05942e-07
-3.96876e-08
5.72993e-08
-4.46726e-08
2.11401e-08
-3.11308e-08
-2.94611e-08
-2.95669e-08
-4.28034e-08
-1.98106e-08
-5.67533e-08
-1.96151e-08
-6.16833e-08
-1.77066e-08
-6.42096e-08
-2.01439e-08
-5.24863e-08
-7.84181e-11
-3.14876e-08
1.8384e-14
4.84343e-14
4.51159e-14
4.88091e-14
5.07168e-14
4.34609e-14
5.07742e-14
3.80494e-14
4.90498e-14
3.32793e-14
4.66786e-14
2.9198e-14
4.40949e-14
2.57489e-14
4.1494e-14
2.28483e-14
3.89688e-14
2.04079e-14
3.65619e-14
1.83461e-14
3.42904e-14
1.65929e-14
3.21574e-14
1.50904e-14
3.01595e-14
1.3792e-14
2.82899e-14
1.26605e-14
2.65405e-14
1.16665e-14
2.49027e-14
1.07865e-14
2.33686e-14
1.00017e-14
2.19304e-14
9.29709e-15
2.05811e-14
8.66067e-15
1.93144e-14
8.08259e-15
1.81243e-14
7.55482e-15
1.70057e-14
7.07079e-15
1.59537e-14
6.62504e-15
1.49639e-14
6.21305e-15
1.40325e-14
5.83103e-15
1.31558e-14
5.47579e-15
1.23305e-14
5.14461e-15
1.15535e-14
4.83521e-15
1.0822e-14
4.54562e-15
1.01333e-14
4.27413e-15
9.48513e-15
4.01927e-15
8.87509e-15
3.77975e-15
8.30106e-15
3.55447e-15
7.76103e-15
3.34241e-15
7.25312e-15
3.1427e-15
6.77553e-15
2.95454e-15
6.32658e-15
2.77724e-15
5.90467e-15
2.61013e-15
5.50827e-15
2.45265e-15
5.13594e-15
2.30426e-15
4.78632e-15
2.16446e-15
4.4581e-15
2.03279e-15
4.15004e-15
1.90884e-15
3.86096e-15
1.79221e-15
3.58974e-15
1.68253e-15
3.3353e-15
1.57945e-15
3.09663e-15
1.48264e-15
2.87276e-15
1.39181e-15
2.66276e-15
1.30665e-15
2.46576e-15
1.22688e-15
2.28092e-15
1.15226e-15
2.10743e-15
1.08253e-15
1.94455e-15
1.01746e-15
1.79154e-15
9.56822e-16
1.64772e-15
9.00411e-16
1.51243e-15
8.48026e-16
1.38505e-15
7.99481e-16
1.26497e-15
7.54597e-16
1.15162e-15
7.13209e-16
1.04447e-15
6.75159e-16
9.42976e-16
6.403e-16
8.46653e-16
6.08494e-16
7.55016e-16
5.79611e-16
6.67601e-16
5.53532e-16
5.83964e-16
5.30145e-16
5.03671e-16
5.09344e-16
4.26307e-16
4.91023e-16
3.51466e-16
4.75064e-16
2.78749e-16
4.61338e-16
2.07757e-16
4.49743e-16
1.38068e-16
4.40309e-16
6.92151e-17
4.34124e-16
4.32142e-16
-9.79384e-09
1.65487e-07
-2.38684e-08
1.20036e-07
-3.46683e-08
6.81167e-08
-4.33364e-08
2.98255e-08
-3.40415e-08
-3.8739e-08
-3.73447e-08
-3.94831e-08
-2.3484e-08
-7.0597e-08
-9.93272e-09
-7.52177e-08
-9.93303e-09
-6.41923e-08
-8.95048e-09
-5.34519e-08
2.26549e-11
-4.04471e-08
1.87539e-14
2.76933e-11
4.04261e-14
2.71483e-14
4.59698e-14
3.79421e-14
4.65919e-14
3.74522e-14
4.54738e-14
3.44213e-14
4.36585e-14
3.10362e-14
4.15568e-14
2.78722e-14
3.93601e-14
2.50654e-14
3.71672e-14
2.26199e-14
3.50311e-14
2.05002e-14
3.29794e-14
1.86612e-14
3.10255e-14
1.70596e-14
2.9174e-14
1.56574e-14
2.74248e-14
1.44222e-14
2.57752e-14
1.33273e-14
2.4221e-14
1.23506e-14
2.27572e-14
1.14741e-14
2.13787e-14
1.06831e-14
2.00806e-14
9.96526e-15
1.8858e-14
9.31074e-15
1.77063e-14
8.71119e-15
1.66212e-14
8.15975e-15
1.55988e-14
7.65066e-15
1.46353e-14
7.17912e-15
1.37274e-14
6.74107e-15
1.28717e-14
6.33305e-15
1.20655e-14
5.95216e-15
1.13058e-14
5.59586e-15
1.05901e-14
5.26202e-15
9.91606e-15
4.94875e-15
9.28127e-15
4.65444e-15
8.68364e-15
4.37766e-15
8.12115e-15
4.11716e-15
7.59188e-15
3.87183e-15
7.09403e-15
3.64069e-15
6.62587e-15
3.42284e-15
6.18579e-15
3.21748e-15
5.77222e-15
3.02389e-15
5.38369e-15
2.84141e-15
5.0188e-15
2.66942e-15
4.67621e-15
2.50737e-15
4.35465e-15
2.35474e-15
4.0529e-15
2.21103e-15
3.7698e-15
2.07581e-15
3.50426e-15
1.94864e-15
3.25521e-15
1.82912e-15
3.02166e-15
1.71688e-15
2.80266e-15
1.61156e-15
2.59728e-15
1.51282e-15
2.40468e-15
1.42035e-15
2.22402e-15
1.33384e-15
2.05451e-15
1.25301e-15
1.89542e-15
1.17758e-15
1.74601e-15
1.1073e-15
1.60563e-15
1.04192e-15
1.47361e-15
9.81212e-16
1.34935e-15
9.24959e-16
1.23225e-15
8.72954e-16
1.12175e-15
8.25005e-16
1.01732e-15
7.80929e-16
9.1844e-16
7.40556e-16
8.24615e-16
7.03726e-16
7.35375e-16
6.70292e-16
6.50263e-16
6.40114e-16
5.68841e-16
6.13065e-16
4.90683e-16
5.89024e-16
4.15377e-16
5.67872e-16
3.42519e-16
5.49484e-16
2.71708e-16
5.33728e-16
2.02531e-16
5.20512e-16
1.34547e-16
5.09894e-16
6.74734e-17
5.02806e-16
5.00434e-16
-1.10488e-08
1.76547e-07
-2.18572e-08
1.30864e-07
-3.072e-08
7.69964e-08
-3.74074e-08
3.653e-08
-2.40195e-08
-5.21097e-08
-2.51688e-09
-6.09687e-08
-1.14094e-09
-7.19559e-08
7.12535e-10
-7.70544e-08
-1.76559e-10
-6.32864e-08
-3.08011e-10
-5.33036e-08
-4.25915e-12
-4.07375e-08
7.07976e-14
2.83298e-11
4.9925e-14
4.83045e-14
4.55497e-14
4.23298e-14
4.39386e-14
3.90871e-14
4.25096e-14
3.58737e-14
4.08888e-14
3.26794e-14
3.91008e-14
2.96814e-14
3.72214e-14
2.69647e-14
3.53144e-14
2.45456e-14
3.34247e-14
2.24073e-14
3.15813e-14
2.05205e-14
2.98022e-14
1.88534e-14
2.80971e-14
1.73757e-14
2.6471e-14
1.60603e-14
2.4925e-14
1.48838e-14
2.34586e-14
1.38264e-14
2.20697e-14
1.28712e-14
2.07555e-14
1.20044e-14
1.95129e-14
1.1214e-14
1.83385e-14
1.04903e-14
1.72289e-14
9.82505e-15
1.6181e-14
9.21126e-15
1.51915e-14
8.6431e-15
1.42574e-14
8.11559e-15
1.33758e-14
7.62455e-15
1.2544e-14
7.16636e-15
1.17593e-14
6.73796e-15
1.10193e-14
6.33669e-15
1.03216e-14
5.96026e-15
9.66411e-15
5.60667e-15
9.04466e-15
5.27417e-15
8.46125e-15
4.96125e-15
7.912e-15
4.66653e-15
7.39511e-15
4.38881e-15
6.90884e-15
4.12703e-15
6.45157e-15
3.88019e-15
6.02171e-15
3.64743e-15
5.61779e-15
3.42795e-15
5.23838e-15
3.22101e-15
4.8821e-15
3.02593e-15
4.54767e-15
2.8421e-15
4.23384e-15
2.66893e-15
3.93941e-15
2.50588e-15
3.66327e-15
2.35244e-15
3.40433e-15
2.20814e-15
3.16155e-15
2.07252e-15
2.93396e-15
1.94515e-15
2.72062e-15
1.82565e-15
2.52064e-15
1.71362e-15
2.33315e-15
1.60871e-15
2.15736e-15
1.51056e-15
1.99249e-15
1.41886e-15
1.8378e-15
1.3333e-15
1.6926e-15
1.25359e-15
1.55622e-15
1.17944e-15
1.42802e-15
1.1106e-15
1.3074e-15
1.04682e-15
1.19377e-15
9.87858e-16
1.08659e-15
9.33504e-16
9.8533e-16
8.83548e-16
8.89486e-16
8.37798e-16
7.98572e-16
7.96072e-16
7.12126e-16
7.58203e-16
6.297e-16
7.24035e-16
5.50864e-16
6.93425e-16
4.752e-16
6.66237e-16
4.02303e-16
6.4234e-16
3.31775e-16
6.21602e-16
2.63217e-16
6.03892e-16
1.96219e-16
5.89131e-16
1.30347e-16
5.77397e-16
6.5389e-17
5.69401e-16
5.66657e-16
-1.50911e-08
1.91649e-07
-1.75227e-08
1.33316e-07
-2.13955e-08
8.08859e-08
-2.46954e-08
3.98466e-08
-1.63745e-08
-6.04136e-08
-1.24288e-09
-7.60834e-08
6.81083e-09
-7.99928e-08
6.35801e-09
-7.65847e-08
5.81093e-09
-6.27227e-08
1.92672e-09
-4.94027e-08
-6.19015e-12
-3.87911e-08
4.44071e-14
2.70641e-11
4.46822e-14
4.82553e-14
4.271e-14
4.43134e-14
4.11253e-14
4.06953e-14
3.97133e-14
3.73088e-14
3.8265e-14
3.41496e-14
3.67241e-14
3.12429e-14
3.51059e-14
2.86023e-14
3.34453e-14
2.62243e-14
3.17762e-14
2.40931e-14
3.01255e-14
2.21866e-14
2.85124e-14
2.04806e-14
2.69497e-14
1.89511e-14
2.54453e-14
1.7576e-14
2.40038e-14
1.63354e-14
2.26271e-14
1.52119e-14
2.13156e-14
1.41905e-14
2.00685e-14
1.32581e-14
1.88843e-14
1.24039e-14
1.77612e-14
1.16183e-14
1.66968e-14
1.08934e-14
1.56889e-14
1.02224e-14
1.47351e-14
9.59956e-15
1.3833e-14
9.01982e-15
1.29802e-14
8.47896e-15
1.21744e-14
7.97334e-15
1.14135e-14
7.49979e-15
1.06953e-14
7.05558e-15
1.00176e-14
6.63833e-15
9.37861e-15
6.24597e-15
8.77627e-15
5.87666e-15
8.20879e-15
5.5288e-15
7.6744e-15
5.20094e-15
7.17141e-15
4.8918e-15
6.69818e-15
4.60024e-15
6.25318e-15
4.32521e-15
5.83489e-15
4.06577e-15
5.44188e-15
3.82105e-15
5.07278e-15
3.59025e-15
4.72627e-15
3.37265e-15
4.40109e-15
3.16755e-15
4.09602e-15
2.97433e-15
3.80993e-15
2.79238e-15
3.54169e-15
2.62116e-15
3.29025e-15
2.46012e-15
3.05461e-15
2.30877e-15
2.8338e-15
2.16665e-15
2.62691e-15
2.03329e-15
2.43305e-15
1.90829e-15
2.2514e-15
1.79123e-15
2.08116e-15
1.68174e-15
1.92156e-15
1.57945e-15
1.7719e-15
1.48402e-15
1.63149e-15
1.39511e-15
1.49966e-15
1.31242e-15
1.37581e-15
1.23566e-15
1.25933e-15
1.16455e-15
1.14966e-15
1.09883e-15
1.04626e-15
1.03825e-15
9.4861e-16
9.82578e-16
8.56225e-16
9.31605e-16
7.68628e-16
8.85127e-16
6.85366e-16
8.42957e-16
6.06002e-16
8.04923e-16
5.30115e-16
7.70864e-16
4.57298e-16
7.40632e-16
3.87153e-16
7.14085e-16
3.19294e-16
6.91082e-16
2.5333e-16
6.71493e-16
1.88868e-16
6.55244e-16
1.25495e-16
6.42432e-16
6.29781e-17
6.33586e-16
6.30487e-16
-3.66479e-09
1.95325e-07
-1.26648e-08
1.42335e-07
-1.49689e-08
8.32062e-08
-1.31708e-08
3.80646e-08
-7.76651e-09
-6.5801e-08
5.6756e-09
-8.95086e-08
1.22961e-08
-8.65966e-08
1.40592e-08
-7.83311e-08
1.47756e-08
-6.34225e-08
1.14875e-08
-4.60979e-08
-9.75168e-13
-2.72892e-08
4.1088e-14
3.0982e-11
4.1226e-14
4.8398e-14
3.95408e-14
4.60099e-14
3.81605e-14
4.20987e-14
3.69484e-14
3.85437e-14
3.57218e-14
3.53978e-14
3.44145e-14
3.25705e-14
3.30265e-14
3.00091e-14
3.15824e-14
2.7686e-14
3.01104e-14
2.55813e-14
2.86354e-14
2.36763e-14
2.71771e-14
2.19523e-14
2.57497e-14
2.03905e-14
2.43633e-14
1.89732e-14
2.30245e-14
1.76838e-14
2.17373e-14
1.65075e-14
2.05039e-14
1.5431e-14
1.93253e-14
1.44429e-14
1.82014e-14
1.3533e-14
1.71315e-14
1.26926e-14
1.61144e-14
1.19141e-14
1.51487e-14
1.11911e-14
1.42327e-14
1.05179e-14
1.33647e-14
9.88964e-15
1.25428e-14
9.30221e-15
1.17652e-14
8.75194e-15
1.103e-14
8.23567e-15
1.03354e-14
7.75063e-15
9.6796e-15
7.29443e-15
9.06076e-15
6.86492e-15
8.47719e-15
6.46024e-15
7.9272e-15
6.07872e-15
7.40918e-15
5.71886e-15
6.92154e-15
5.37933e-15
6.46275e-15
5.05893e-15
6.03134e-15
4.75655e-15
5.62588e-15
4.4712e-15
5.245e-15
4.20195e-15
4.88738e-15
3.94796e-15
4.55175e-15
3.70844e-15
4.23688e-15
3.48265e-15
3.94161e-15
3.26991e-15
3.66481e-15
3.06957e-15
3.4054e-15
2.88102e-15
3.16236e-15
2.70369e-15
2.93469e-15
2.53704e-15
2.72147e-15
2.38055e-15
2.52179e-15
2.23372e-15
2.3348e-15
2.0961e-15
2.15967e-15
1.96724e-15
1.99564e-15
1.84672e-15
1.84196e-15
1.73414e-15
1.69793e-15
1.62911e-15
1.56287e-15
1.53129e-15
1.43615e-15
1.44032e-15
1.31715e-15
1.35588e-15
1.20531e-15
1.27767e-15
1.10007e-15
1.20539e-15
1.0009e-15
1.13878e-15
9.07297e-16
1.07759e-15
8.18784e-16
1.02157e-15
7.34901e-16
9.70498e-16
6.55204e-16
9.24176e-16
5.79269e-16
8.82412e-16
5.06687e-16
8.45031e-16
4.3706e-16
8.1187e-16
3.70003e-16
7.82776e-16
3.0514e-16
7.57599e-16
2.42102e-16
7.36202e-16
1.80521e-16
7.18511e-16
1.20021e-16
7.04628e-16
6.02547e-17
6.95055e-16
6.91612e-16
-4.81955e-09
2.00154e-07
-7.80278e-09
1.45339e-07
-7.65241e-09
8.30725e-08
-1.07653e-13
3.04281e-08
3.68142e-09
-6.9466e-08
1.2695e-08
-9.85054e-08
1.89408e-08
-9.28257e-08
2.00418e-08
-7.94155e-08
1.71914e-08
-6.05553e-08
1.19139e-08
-4.08038e-08
-3.51286e-12
-1.53584e-08
5.31117e-14
3.23302e-11
3.91393e-14
6.26123e-14
3.61163e-14
4.9044e-14
3.50489e-14
4.31887e-14
3.4196e-14
3.94189e-14
3.32489e-14
3.63661e-14
3.21747e-14
3.36644e-14
3.09956e-14
3.12065e-14
2.97429e-14
2.89556e-14
2.84459e-14
2.68937e-14
2.71295e-14
2.50069e-14
2.58134e-14
2.32812e-14
2.45126e-14
2.17027e-14
2.32384e-14
2.02575e-14
2.19987e-14
1.89324e-14
2.0799e-14
1.77148e-14
1.96431e-14
1.65936e-14
1.85332e-14
1.55585e-14
1.74702e-14
1.46007e-14
1.64547e-14
1.37121e-14
1.54862e-14
1.28857e-14
1.45643e-14
1.21156e-14
1.36878e-14
1.13963e-14
1.28555e-14
1.07234e-14
1.20663e-14
1.00926e-14
1.13185e-14
9.50046e-15
1.06107e-14
8.94391e-15
9.94135e-15
8.4202e-15
9.30891e-15
7.92693e-15
8.71182e-15
7.46195e-15
8.14852e-15
7.02339e-15
7.6175e-15
6.60953e-15
7.11726e-15
6.21888e-15
6.64633e-15
5.85004e-15
6.20329e-15
5.50178e-15
5.78673e-15
5.17295e-15
5.39532e-15
4.86251e-15
5.02774e-15
4.5695e-15
4.68272e-15
4.29301e-15
4.35904e-15
4.03223e-15
4.05552e-15
3.78636e-15
3.77103e-15
3.55467e-15
3.50447e-15
3.33648e-15
3.2548e-15
3.13112e-15
3.02101e-15
2.93799e-15
2.80215e-15
2.75649e-15
2.5973e-15
2.58606e-15
2.40559e-15
2.42618e-15
2.22617e-15
2.27633e-15
2.05826e-15
2.13604e-15
1.90108e-15
2.00484e-15
1.75393e-15
1.88231e-15
1.61611e-15
1.76801e-15
1.48697e-15
1.66157e-15
1.36588e-15
1.5626e-15
1.25226e-15
1.47075e-15
1.14554e-15
1.38569e-15
1.04518e-15
1.3071e-15
9.50681e-16
1.23468e-15
8.61544e-16
1.16816e-15
7.77306e-16
1.10728e-15
6.97521e-16
1.0518e-15
6.2176e-16
1.00149e-15
5.49613e-16
9.56147e-16
4.8068e-16
9.15581e-16
4.14578e-16
8.79617e-16
3.50935e-16
8.48089e-16
2.89389e-16
8.20836e-16
2.29595e-16
7.97705e-16
1.71221e-16
7.78607e-16
1.1395e-16
7.63633e-16
5.72288e-17
7.53517e-16
7.49732e-16
-2.35512e-09
2.02521e-07
-1.07949e-08
1.53798e-07
-6.39726e-09
7.86935e-08
9.58277e-09
1.44639e-08
1.4422e-08
-7.42892e-08
1.6125e-08
-1.00192e-07
2.22121e-08
-9.88963e-08
2.57863e-08
-8.29728e-08
2.27063e-08
-5.74586e-08
1.73918e-08
-3.54725e-08
-3.72511e-11
2.08423e-09
1.2564e-14
4.86221e-14
2.72345e-14
4.79418e-14
3.0986e-14
4.53146e-14
3.175e-14
4.24477e-14
3.15264e-14
3.96646e-14
3.08871e-14
3.70261e-14
3.00265e-14
3.45443e-14
2.90286e-14
3.22221e-14
2.79413e-14
3.00592e-14
2.67975e-14
2.80524e-14
2.56222e-14
2.61956e-14
2.4435e-14
2.44805e-14
2.3251e-14
2.28974e-14
2.2082e-14
2.14361e-14
2.09366e-14
2.0086e-14
1.98215e-14
1.88371e-14
1.87411e-14
1.768e-14
1.76989e-14
1.6606e-14
1.66967e-14
1.56071e-14
1.57358e-14
1.46764e-14
1.48167e-14
1.38076e-14
1.39393e-14
1.29951e-14
1.31034e-14
1.22339e-14
1.23083e-14
1.15197e-14
1.15529e-14
1.08487e-14
1.08363e-14
1.02175e-14
1.01573e-14
9.6231e-15
9.51469e-15
9.06285e-15
8.90706e-15
8.5344e-15
8.3331e-15
8.03565e-15
7.79145e-15
7.56471e-15
7.28073e-15
7.11989e-15
6.79958e-15
6.69966e-15
6.34664e-15
6.30263e-15
5.92058e-15
5.92753e-15
5.52008e-15
5.57318e-15
5.14388e-15
5.23852e-15
4.79071e-15
4.92254e-15
4.45938e-15
4.62431e-15
4.14869e-15
4.34296e-15
3.85751e-15
4.07767e-15
3.58476e-15
3.82766e-15
3.32936e-15
3.59219e-15
3.0903e-15
3.37059e-15
2.86662e-15
3.16217e-15
2.65737e-15
2.96632e-15
2.46166e-15
2.78243e-15
2.27864e-15
2.60994e-15
2.1075e-15
2.44829e-15
1.94746e-15
2.29697e-15
1.79778e-15
2.15548e-15
1.65775e-15
2.02335e-15
1.52672e-15
1.90013e-15
1.40404e-15
1.7854e-15
1.2891e-15
1.67874e-15
1.18135e-15
1.57977e-15
1.08022e-15
1.48814e-15
9.85194e-16
1.40349e-15
8.95786e-16
1.32551e-15
8.1152e-16
1.25389e-15
7.31946e-16
1.18837e-15
6.56633e-16
1.12866e-15
5.85168e-16
1.07454e-15
5.17154e-16
1.02578e-15
4.52207e-16
9.82181e-16
3.89957e-16
9.43549e-16
3.30046e-16
9.09707e-16
2.7213e-16
8.80481e-16
2.15885e-16
8.55697e-16
1.61021e-16
8.35233e-16
1.0728e-16
8.19146e-16
5.39018e-17
8.08675e-16
8.04544e-16
-1.46819e-08
2.17215e-07
-1.16009e-08
1.50733e-07
-7.40504e-09
7.45166e-08
1.20077e-08
-4.9317e-09
1.43917e-08
-7.66569e-08
1.19805e-08
-9.77645e-08
1.37243e-08
-1.00623e-07
1.77873e-08
-8.70188e-08
2.10054e-08
-6.06598e-08
1.92473e-08
-3.36975e-08
1.07989e-10
2.12369e-08
1.20307e-14
1.13093e-10
2.49465e-14
3.50372e-14
2.84829e-14
4.18024e-14
2.93193e-14
4.16349e-14
2.9222e-14
3.97839e-14
2.87195e-14
3.7549e-14
2.79982e-14
3.52845e-14
2.71394e-14
3.30982e-14
2.61884e-14
3.1026e-14
2.51757e-14
2.90794e-14
2.41244e-14
2.72597e-14
2.30527e-14
2.55636e-14
2.19753e-14
2.39849e-14
2.09037e-14
2.25165e-14
1.9847e-14
2.11503e-14
1.88123e-14
1.98783e-14
1.78049e-14
1.8693e-14
1.68285e-14
1.75868e-14
1.58862e-14
1.65533e-14
1.49795e-14
1.5586e-14
1.41098e-14
1.46796e-14
1.32776e-14
1.3829e-14
1.24829e-14
1.30298e-14
1.17256e-14
1.22778e-14
1.10052e-14
1.15696e-14
1.03209e-14
1.09019e-14
9.67188e-15
1.02721e-14
9.05711e-15
9.67737e-15
8.47552e-15
9.11562e-15
7.92593e-15
8.58477e-15
7.40716e-15
8.08296e-15
6.91797e-15
7.60854e-15
6.45712e-15
7.15999e-15
6.02336e-15
6.7359e-15
5.61544e-15
6.335e-15
5.23215e-15
5.95611e-15
4.87226e-15
5.59812e-15
4.53458e-15
5.26001e-15
4.21796e-15
4.94082e-15
3.92127e-15
4.63964e-15
3.64341e-15
4.35561e-15
3.38331e-15
4.08793e-15
3.13997e-15
3.83582e-15
2.91238e-15
3.59854e-15
2.69961e-15
3.3754e-15
2.50075e-15
3.16573e-15
2.31493e-15
2.96889e-15
2.14133e-15
2.78427e-15
1.97914e-15
2.61129e-15
1.82762e-15
2.44938e-15
1.68604e-15
2.29802e-15
1.55373e-15
2.15669e-15
1.43004e-15
2.02493e-15
1.31435e-15
1.90225e-15
1.20607e-15
1.78824e-15
1.10465e-15
1.68247e-15
1.00957e-15
1.58456e-15
9.20312e-16
1.49414e-15
8.36411e-16
1.41086e-15
7.57409e-16
1.33439e-15
6.82875e-16
1.26444e-15
6.12394e-16
1.20073e-15
5.45571e-16
1.14299e-15
4.82025e-16
1.09099e-15
4.21389e-16
1.04451e-15
3.63308e-16
1.00335e-15
3.07441e-16
9.67321e-16
2.5346e-16
9.36231e-16
2.01062e-16
9.09882e-16
1.49981e-16
8.88117e-16
9.99925e-17
8.70948e-16
5.02712e-17
8.60217e-16
8.55748e-16
-1.44298e-08
2.31655e-07
-1.34317e-08
1.49753e-07
-5.7304e-09
6.6833e-08
8.3814e-09
-1.90261e-08
7.73646e-09
-7.59951e-08
4.19993e-09
-9.42113e-08
-3.60363e-09
-9.28029e-08
7.1071e-09
-9.77125e-08
9.77936e-09
-6.33149e-08
5.10418e-09
-2.90054e-08
6.26519e-09
2.00893e-08
-4.41932e-14
6.38343e-09
3.08994e-14
4.82065e-14
2.83502e-14
4.4363e-14
2.77086e-14
4.22994e-14
2.72735e-14
4.02408e-14
2.6744e-14
3.80987e-14
2.60901e-14
3.59569e-14
2.53304e-14
3.38748e-14
2.44887e-14
3.1883e-14
2.35868e-14
2.9995e-14
2.26433e-14
2.82153e-14
2.16744e-14
2.65433e-14
2.06934e-14
2.49754e-14
1.97113e-14
2.35067e-14
1.87372e-14
2.21313e-14
1.77783e-14
2.08431e-14
1.68404e-14
1.96358e-14
1.59277e-14
1.85036e-14
1.50435e-14
1.74406e-14
1.41903e-14
1.64418e-14
1.33695e-14
1.55022e-14
1.25823e-14
1.46175e-14
1.18292e-14
1.37837e-14
1.11103e-14
1.29971e-14
1.04255e-14
1.22545e-14
9.77431e-15
1.1553e-14
9.15617e-15
1.08898e-14
8.57028e-15
1.02627e-14
8.01577e-15
9.6695e-15
7.49164e-15
9.10819e-15
6.99686e-15
8.57702e-15
6.53031e-15
8.07436e-15
6.09088e-15
7.59872e-15
5.67741e-15
7.14872e-15
5.28874e-15
6.72309e-15
4.92372e-15
6.32063e-15
4.58119e-15
5.94024e-15
4.26003e-15
5.58086e-15
3.95912e-15
5.24152e-15
3.67739e-15
4.92128e-15
3.41377e-15
4.61924e-15
3.16724e-15
4.33458e-15
2.93681e-15
4.06647e-15
2.72152e-15
3.81415e-15
2.52047e-15
3.57689e-15
2.33276e-15
3.35397e-15
2.15755e-15
3.14472e-15
1.99405e-15
2.94849e-15
1.84147e-15
2.76466e-15
1.6991e-15
2.59263e-15
1.56623e-15
2.43185e-15
1.4422e-15
2.28176e-15
1.32639e-15
2.14185e-15
1.2182e-15
2.01162e-15
1.11706e-15
1.89062e-15
1.02244e-15
1.77839e-15
9.33841e-16
1.67453e-15
8.50768e-16
1.57863e-15
7.7277e-16
1.49033e-15
6.9941e-16
1.40927e-15
6.30277e-16
1.33515e-15
5.64974e-16
1.26764e-15
5.03124e-16
1.20649e-15
4.44367e-16
1.15144e-15
3.88352e-16
1.10225e-15
3.34745e-16
1.05872e-15
2.83222e-16
1.02063e-15
2.33471e-16
9.8779e-16
1.85203e-16
9.59979e-16
1.38154e-16
9.37011e-16
9.20907e-17
9.18866e-16
4.63432e-17
9.07828e-16
9.03045e-16
-1.24984e-08
2.44164e-07
-1.44104e-08
1.51684e-07
-1.20625e-08
6.45027e-08
-1.27421e-08
-1.83292e-08
-7.47482e-09
-8.12455e-08
-2.19668e-09
-9.94727e-08
5.702e-09
-1.00684e-07
5.12206e-09
-9.71156e-08
-5.28107e-10
-5.76476e-08
-2.00343e-09
-2.75129e-08
3.01961e-09
1.50801e-08
-5.11843e-12
9.41649e-09
2.7531e-14
4.83877e-14
2.6554e-14
4.53509e-14
2.5918e-14
4.29579e-14
2.54087e-14
4.07719e-14
2.48777e-14
3.86497e-14
2.42747e-14
3.65781e-14
2.35929e-14
3.45731e-14
2.28412e-14
3.26495e-14
2.20333e-14
3.08161e-14
2.11837e-14
2.90766e-14
2.03057e-14
2.74315e-14
1.94113e-14
2.58786e-14
1.85108e-14
2.44147e-14
1.76131e-14
2.30355e-14
1.67252e-14
2.17363e-14
1.5853e-14
2.05124e-14
1.50011e-14
1.93589e-14
1.41732e-14
1.82712e-14
1.33719e-14
1.72451e-14
1.25993e-14
1.62762e-14
1.18567e-14
1.5361e-14
1.11451e-14
1.44958e-14
1.04648e-14
1.36774e-14
9.81598e-15
1.2903e-14
9.1985e-15
1.21699e-14
8.61196e-15
1.14757e-14
8.05578e-15
1.08181e-14
7.52925e-15
1.01951e-14
7.03154e-15
9.60495e-15
6.56174e-15
9.04587e-15
6.11886e-15
8.51631e-15
5.70188e-15
8.01482e-15
5.30973e-15
7.54005e-15
4.94133e-15
7.09075e-15
4.59559e-15
6.66573e-15
4.27143e-15
6.26387e-15
3.96777e-15
5.88411e-15
3.68353e-15
5.52545e-15
3.41769e-15
5.18694e-15
3.16921e-15
4.86766e-15
2.93711e-15
4.56673e-15