0 	3.2666e-20 	0 	-1.08887e-20
0.010101 	6.78984e-20 	1.35346e-22 	-7.62856e-20
0.020202 	6.17497e-20 	-2.02764e-22 	-1.02485e-19
0.030303 	-1.88586e-20 	-2.02764e-22 	-2.95329e-20
0.040404 	4.41891e-20 	3.72245e-22 	-8.12617e-20
0.0505051 	-3.38312e-20 	3.36237e-23 	2.12445e-20
