/*--------------------------------*- C++ -*----------------------------------*\
  =========                 |
  \\      /  F ield         | OpenFOAM: The Open Source CFD Toolbox
   \\    /   O peration     | Website:  https://openfoam.org
    \\  /    A nd           | Version:  6
     \\/     M anipulation  |
\*---------------------------------------------------------------------------*/
FoamFile
{
    version     2.0;
    format      ascii;
    class       surfaceScalarField;
    location    "4200";
    object      phi;
}
// * * * * * * * * * * * * * * * * * * * * * * * * * * * * * * * * * * * * * //

dimensions      [0 3 -1 0 0 0 0];

internalField   nonuniform List<scalar> 
9440
(
1.74859e-10
-1.74859e-10
2.7897e-10
-1.04112e-10
3.23901e-10
-4.49315e-11
3.19155e-10
4.74548e-12
3.14509e-10
4.64539e-12
2.47892e-10
6.66162e-11
1.65353e-10
8.25384e-11
3.21251e-11
1.33228e-10
-1.50371e-10
1.82496e-10
-3.80441e-10
2.3007e-10
-8.11738e-10
4.31297e-10
-1.39565e-09
5.83913e-10
-1.80593e-09
4.10278e-10
-2.04715e-09
2.41221e-10
-2.29798e-09
2.50827e-10
-2.50803e-09
2.10058e-10
-2.67425e-09
1.66216e-10
-2.92701e-09
2.5276e-10
-3.05719e-09
1.30185e-10
-3.19261e-09
1.35416e-10
-3.3521e-09
1.59494e-10
-3.41893e-09
6.6827e-11
-3.47266e-09
5.37307e-11
-3.506e-09
3.33442e-11
-3.48122e-09
-2.47818e-11
-3.45084e-09
-3.03815e-11
-3.3723e-09
-7.85317e-11
-3.10274e-09
-2.69565e-10
-2.98118e-09
-1.21557e-10
-2.77993e-09
-2.01252e-10
-2.47791e-09
-3.02018e-10
-2.25414e-09
-2.23765e-10
-1.93899e-09
-3.15146e-10
-1.72903e-09
-2.09961e-10
-1.5078e-09
-2.21236e-10
-1.21927e-09
-2.88528e-10
-9.66776e-10
-2.52491e-10
-8.89815e-10
-7.69597e-11
-7.90068e-10
-9.97469e-11
-3.94902e-10
-3.95165e-10
-3.23043e-10
-7.18587e-11
-1.85017e-10
-1.38025e-10
-2.14072e-10
2.90559e-11
-3.72708e-10
1.58637e-10
-5.21746e-10
1.4904e-10
-9.17787e-10
3.96042e-10
-1.23498e-09
3.17196e-10
-1.36544e-09
1.30465e-10
-1.42904e-09
6.35947e-11
-1.48652e-09
5.74819e-11
-1.53414e-09
4.76231e-11
-1.53977e-09
5.63744e-12
-1.5034e-09
-3.63681e-11
-1.41458e-09
-8.88268e-11
-1.30519e-09
-1.09383e-10
-1.19112e-09
-1.14076e-10
-1.09294e-09
-9.81815e-11
-9.76952e-10
-1.1599e-10
-7.44836e-10
-2.32119e-10
-5.23101e-10
-2.2174e-10
-3.92761e-10
-1.30345e-10
-1.94958e-10
-1.97809e-10
-2.23619e-11
-1.72603e-10
2.12321e-10
-2.34689e-10
3.8906e-10
-1.76747e-10
5.88538e-10
-1.99484e-10
7.16552e-10
-1.28021e-10
8.4291e-10
-1.26364e-10
9.51792e-10
-1.08888e-10
9.95308e-10
-4.35204e-11
1.01474e-09
-1.94397e-11
1.06857e-09
-5.38301e-11
1.10288e-09
-3.43154e-11
1.07227e-09
3.0613e-11
1.02459e-09
4.76752e-11
9.47481e-10
7.71071e-11
8.32805e-10
1.14675e-10
7.21414e-10
1.11391e-10
5.95473e-10
1.25941e-10
4.50637e-10
1.44837e-10
2.20798e-10
2.29839e-10
1.11797e-10
1.08996e-10
3.14523e-14
1.11744e-10
1.44132e-18
7.01947e-19
1.32615e-18
1.15174e-19
1.23314e-18
8.4497e-20
1.15502e-18
7.91334e-20
1.07709e-18
8.03065e-20
9.98387e-19
8.00002e-20
9.22874e-19
7.59806e-20
8.54985e-19
6.81617e-20
7.97706e-19
5.76772e-20
7.52408e-19
4.59341e-20
7.19113e-19
3.41848e-20
6.96853e-19
2.33726e-20
6.8401e-19
1.41181e-20
6.78606e-19
6.76283e-21
6.7852e-19
1.42787e-21
6.81651e-19
-1.92955e-21
6.8602e-19
-3.46351e-21
6.89843e-19
-3.39614e-21
6.91587e-19
-1.98714e-21
6.8999e-19
4.89901e-22
6.84077e-19
3.7688e-21
6.73149e-19
7.60811e-21
6.56773e-19
1.18026e-20
6.34757e-19
1.61859e-20
6.07122e-19
2.06298e-20
5.74075e-19
2.50358e-20
5.35973e-19
2.93277e-20
4.93291e-19
3.34428e-20
4.46596e-19
3.73277e-20
3.96508e-19
4.09334e-20
3.4366e-19
4.42161e-20
2.88668e-19
4.71365e-20
2.3209e-19
4.96584e-20
1.74418e-19
5.17405e-20
1.16096e-19
5.33125e-20
5.76343e-20
5.41978e-20
5.3841e-20
1.36539e-10
-3.11399e-10
2.15482e-10
-1.83056e-10
2.2646e-10
-5.59105e-11
2.17262e-10
1.39425e-11
1.55773e-10
6.61336e-11
6.04412e-11
1.61948e-10
-9.20355e-11
2.35014e-10
-2.41823e-10
2.83014e-10
-5.3324e-10
4.73913e-10
-9.30193e-10
6.27022e-10
-1.33182e-09
8.32922e-10
-1.61469e-09
8.66785e-10
-1.88499e-09
6.80572e-10
-2.12687e-09
4.83102e-10
-2.31226e-09
4.36224e-10
-2.65112e-09
5.48915e-10
-2.86194e-09
3.77035e-10
-3.01687e-09
4.07694e-10
-3.26116e-09
3.74478e-10
-3.361e-09
2.35257e-10
-3.44316e-09
2.41652e-10
-3.51713e-09
1.40801e-10
-3.54248e-09
7.90779e-11
-3.55426e-09
4.51306e-11
-3.5453e-09
-3.3742e-11
-3.47805e-09
-9.7623e-11
-3.33272e-09
-2.23862e-10
-3.18808e-09
-4.14209e-10
-3.07894e-09
-2.30694e-10
-2.99717e-09
-2.83012e-10
-2.79363e-09
-5.0556e-10
-2.53198e-09
-4.85411e-10
-2.30268e-09
-5.44451e-10
-2.12971e-09
-3.82929e-10
-1.80791e-09
-5.43033e-10
-1.60207e-09
-4.94365e-10
-1.45992e-09
-3.94643e-10
-1.18929e-09
-3.47587e-10
-7.85448e-10
-5.03589e-10
-6.19418e-10
-5.61194e-10
-6.00853e-10
-9.04219e-11
-6.04834e-10
-1.34042e-10
-5.89934e-10
1.41577e-11
-7.07429e-10
2.76135e-10
-9.14337e-10
3.55951e-10
-1.13668e-09
6.18393e-10
-1.36596e-09
5.46478e-10
-1.55132e-09
3.15824e-10
-1.66497e-09
1.77251e-10
-1.68839e-09
8.09065e-11
-1.6118e-09
-2.89675e-11
-1.54566e-09
-6.05021e-11
-1.4762e-09
-1.05827e-10
-1.39958e-09
-1.65452e-10
-1.29671e-09
-2.12249e-10
-1.20992e-09
-2.00871e-10
-1.08585e-09
-2.22264e-10
-9.60095e-10
-2.41746e-10
-7.74213e-10
-4.18008e-10
-5.92357e-10
-4.03605e-10
-4.37098e-10
-2.85614e-10
-2.17508e-10
-4.1741e-10
2.17576e-12
-3.92299e-10
1.90465e-10
-4.22991e-10
3.54331e-10
-3.40624e-10
5.5952e-10
-4.04685e-10
6.83618e-10
-2.5213e-10
8.25227e-10
-2.67984e-10
8.64958e-10
-1.48628e-10
9.16934e-10
-9.55034e-11
9.4914e-10
-5.16521e-11
9.68901e-10
-7.35957e-11
1.00611e-09
-7.15334e-11
9.98641e-10
3.80838e-11
9.45511e-10
1.00803e-10
8.92441e-10
1.30176e-10
8.05955e-10
2.01161e-10
7.24852e-10
1.92493e-10
6.35209e-10
2.15583e-10
5.04817e-10
2.75228e-10
4.67567e-10
2.67096e-10
4.33264e-10
1.43328e-10
-1.60924e-16
5.45098e-10
1.38187e-18
1.53202e-18
1.2919e-18
2.23583e-19
1.22578e-18
1.55328e-19
1.15559e-18
1.49727e-19
1.07684e-18
1.59089e-19
9.94367e-19
1.62784e-19
9.15056e-19
1.55803e-19
8.445e-19
1.39442e-19
7.85963e-19
1.17201e-19
7.40659e-19
9.25011e-20
7.08301e-19
6.80552e-20
6.87598e-19
4.57564e-20
6.76655e-19
2.67782e-20
6.73271e-19
1.17169e-20
6.75163e-19
7.35317e-22
6.80117e-19
-6.31242e-21
6.86087e-19
-9.77505e-21
6.91252e-19
-1.01203e-20
6.94064e-19
-7.8714e-21
6.93269e-19
-3.55661e-21
6.87917e-19
2.33204e-21
6.77344e-19
9.36665e-21
6.61157e-19
1.71967e-20
6.39201e-19
2.55469e-20
6.11528e-19
3.42044e-20
5.78367e-19
4.29998e-20
5.40088e-19
5.17879e-20
4.97176e-19
6.04307e-20
4.50202e-19
6.87856e-20
3.9979e-19
7.67028e-20
3.46581e-19
8.40276e-20
2.9119e-19
9.06075e-20
2.34172e-19
9.62993e-20
1.7599e-19
1.00975e-19
1.16982e-19
1.04521e-19
5.72775e-20
1.06844e-19
1.07935e-19
1.83328e-11
-3.29733e-10
6.91361e-11
-2.3386e-10
1.14837e-10
-1.01612e-10
1.12199e-10
1.65802e-11
4.73743e-11
1.30958e-10
-3.61765e-11
2.45498e-10
-2.09788e-10
4.08626e-10
-4.63982e-10
5.37208e-10
-7.566e-10
7.6653e-10
-1.13301e-09
1.00344e-09
-1.52307e-09
1.22298e-09
-1.76806e-09
1.11178e-09
-1.99149e-09
9.03995e-10
-2.2069e-09
6.98513e-10
-2.44933e-09
6.78657e-10
-2.60117e-09
7.0076e-10
-2.82939e-09
6.05255e-10
-3.02831e-09
6.0661e-10
-3.18215e-09
5.28323e-10
-3.32343e-09
3.76531e-10
-3.41976e-09
3.37985e-10
-3.47591e-09
1.96957e-10
-3.50222e-09
1.05392e-10
-3.51189e-09
5.48026e-11
-3.52595e-09
-1.96804e-11
-3.44545e-09
-1.78124e-10
-3.40144e-09
-2.67873e-10
-3.38304e-09
-4.32606e-10
-3.16463e-09
-4.491e-10
-3.04004e-09
-4.076e-10
-2.86395e-09
-6.8165e-10
-2.7122e-09
-6.3716e-10
-2.62132e-09
-6.35336e-10
-2.44115e-09
-5.63096e-10
-2.15835e-09
-8.25829e-10
-1.99473e-09
-6.5799e-10
-1.81385e-09
-5.75521e-10
-1.4799e-09
-6.81533e-10
-1.29954e-09
-6.83944e-10
-1.4364e-09
-4.24336e-10
-1.30733e-09
-2.19495e-10
-1.32267e-09
-1.18695e-10
-1.32895e-09
2.04407e-11
-1.40312e-09
3.50304e-10
-1.49364e-09
4.46477e-10
-1.49015e-09
6.14897e-10
-1.55584e-09
6.12172e-10
-1.62579e-09
3.85777e-10
-1.63189e-09
1.83351e-10
-1.64342e-09
9.24421e-11
-1.53476e-09
-1.37626e-10
-1.5543e-09
-4.09631e-11
-1.43273e-09
-2.27391e-10
-1.42077e-09
-1.7741e-10
-1.27413e-09
-3.58899e-10
-1.1965e-09
-2.78495e-10
-1.04812e-09
-3.70649e-10
-9.2322e-10
-3.66654e-10
-7.8281e-10
-5.58425e-10
-6.30109e-10
-5.56314e-10
-4.09917e-10
-5.05814e-10
-2.09642e-10
-6.17695e-10
-8.89612e-12
-5.93054e-10
2.14619e-10
-6.46516e-10
4.08517e-10
-5.34532e-10
6.2866e-10
-6.24837e-10
7.37261e-10
-3.6074e-10
8.76057e-10
-4.06787e-10
9.20316e-10
-1.92894e-10
9.31364e-10
-1.06556e-10
9.34759e-10
-5.50515e-11
9.0307e-10
-4.19103e-11
8.82651e-10
-5.11164e-11
8.63442e-10
5.72912e-11
8.08936e-10
1.55308e-10
7.45521e-10
1.93591e-10
7.12357e-10
2.34324e-10
6.65984e-10
2.38867e-10
6.03609e-10
2.77957e-10
5.80072e-10
2.98759e-10
4.79332e-10
3.67815e-10
3.45161e-10
2.77455e-10
-1.21507e-15
8.90239e-10
1.19539e-18
2.53222e-18
1.22446e-18
1.95244e-19
1.22096e-18
1.6039e-19
1.16571e-18
2.05279e-19
1.08091e-18
2.437e-19
9.87386e-19
2.56042e-19
8.98695e-19
2.44162e-19
8.22259e-19
2.1549e-19
7.61264e-19
1.77771e-19
7.16213e-19
1.37099e-19
6.86002e-19
9.77718e-20
6.6862e-19
6.25626e-20
6.61594e-19
3.30712e-20
6.62289e-19
1.00252e-20
6.68115e-19
-6.47584e-21
6.76655e-19
-1.6769e-20
6.85742e-19
-2.14703e-20
6.93501e-19
-2.1351e-20
6.98379e-19
-1.72452e-20
6.99158e-19
-9.97951e-21
6.94951e-19
-3.21395e-22
6.85174e-19
1.10603e-20
6.69507e-19
2.36111e-20
6.47858e-19
3.68884e-20
6.20324e-19
5.05451e-20
5.87155e-19
6.4305e-20
5.48731e-19
7.79381e-20
5.05531e-19
9.12358e-20
4.58119e-19
1.03995e-19
4.07115e-19
1.16007e-19
3.53161e-19
1.2706e-19
2.96882e-19
1.36945e-19
2.38848e-19
1.45465e-19
1.79536e-19
1.52445e-19
1.19305e-19
1.57743e-19
5.83689e-20
1.61255e-19
1.6294e-19
2.33722e-11
-3.53105e-10
2.92738e-11
-2.39761e-10
3.12832e-11
-1.03622e-10
5.77087e-12
4.20927e-11
-5.31069e-11
1.89836e-10
-2.42668e-10
4.35059e-10
-3.48116e-10
5.14075e-10
-6.06501e-10
7.95592e-10
-1.01818e-09
1.17821e-09
-1.40617e-09
1.39143e-09
-1.76918e-09
1.58598e-09
-2.05921e-09
1.40181e-09
-2.13811e-09
9.82902e-10
-2.29354e-09
8.53937e-10
-2.60948e-09
9.946e-10
-2.73454e-09
8.25816e-10
-2.84781e-09
7.18535e-10
-3.06913e-09
8.27922e-10
-3.13925e-09
5.98445e-10
-3.20804e-09
4.45326e-10
-3.3208e-09
4.50743e-10
-3.36164e-09
2.37804e-10
-3.40303e-09
1.46782e-10
-3.42403e-09
7.57985e-11
-3.41608e-09
-2.7626e-11
-3.3713e-09
-2.22906e-10
-3.33232e-09
-3.06846e-10
-3.31216e-09
-4.52772e-10
-3.25257e-09
-5.08683e-10
-3.12075e-09
-5.39424e-10
-2.96718e-09
-8.35217e-10
-2.9029e-09
-7.01438e-10
-2.83505e-09
-7.03189e-10
-2.62352e-09
-7.74619e-10
-2.38892e-09
-1.06044e-09
-2.27911e-09
-7.67797e-10
-2.10219e-09
-7.52433e-10
-1.98131e-09
-8.02416e-10
-1.92892e-09
-7.3633e-10
-1.92163e-09
-4.31625e-10
-1.81559e-09
-3.25539e-10
-1.81553e-09
-1.18754e-10
-1.86019e-09
6.51011e-11
-1.8585e-09
3.4862e-10
-1.87333e-09
4.61315e-10
-1.81515e-09
5.56719e-10
-1.80026e-09
5.97279e-10
-1.7431e-09
3.2862e-10
-1.64918e-09
8.94346e-11
-1.66728e-09
1.10541e-10
-1.53361e-09
-2.71295e-10
-1.48896e-09
-8.56121e-11
-1.36593e-09
-3.50424e-10
-1.29031e-09
-2.5303e-10
-1.19329e-09
-4.55919e-10
-1.09766e-09
-3.74125e-10
-9.85584e-10
-4.82732e-10
-8.5266e-10
-4.99583e-10
-7.05239e-10
-7.05852e-10
-5.31884e-10
-7.29675e-10
-2.78124e-10
-7.59582e-10
-1.15548e-10
-7.80278e-10
5.97113e-11
-7.68321e-10
2.53166e-10
-8.39979e-10
4.78575e-10
-7.59949e-10
6.61202e-10
-8.07471e-10
8.54339e-10
-5.53884e-10
9.82699e-10
-5.35154e-10
1.07742e-09
-2.87624e-10
1.07021e-09
-9.93503e-11
1.02594e-09
-1.0776e-11
9.39294e-10
4.47302e-11
8.39299e-10
4.88778e-11
7.67535e-10
1.29054e-10
6.9404e-10
2.28803e-10
6.29455e-10
2.58176e-10
5.76727e-10
2.87052e-10
5.14083e-10
3.01511e-10
4.6298e-10
3.29064e-10
3.99935e-10
3.61814e-10
4.53696e-10
3.14065e-10
4.53246e-10
2.77903e-10
2.22432e-17
1.34348e-09
7.80198e-19
2.43255e-18
1.19041e-18
-2.16253e-19
1.26661e-18
8.40078e-20
1.20487e-18
2.66814e-19
1.09358e-18
3.54415e-19
9.75506e-19
3.7321e-19
8.70023e-19
3.48357e-19
7.84539e-19
2.99305e-19
7.20592e-19
2.39693e-19
6.76886e-19
1.78442e-19
6.50793e-19
1.21159e-19
6.39129e-19
7.11707e-20
6.38548e-19
3.02228e-20
6.45788e-19
-1.04724e-21
6.57822e-19
-2.27793e-20
6.71953e-19
-3.56397e-20
6.85861e-19
-4.06245e-20
6.97607e-19
-3.88996e-20
7.05645e-19
-3.16844e-20
7.08816e-19
-2.01709e-20
7.06333e-19
-5.46046e-21
6.97725e-19
1.14803e-20
6.82784e-19
2.9843e-20
6.61515e-19
4.89775e-20
6.34084e-19
6.83739e-20
6.00788e-19
8.76368e-20
5.62028e-19
1.06454e-19
5.1829e-19
1.24567e-19
4.70131e-19
1.41741e-19
4.18168e-19
1.5775e-19
3.63045e-19
1.72367e-19
3.05401e-19
1.85364e-19
2.45828e-19
1.96521e-19
1.84834e-19
2.05641e-19
1.22816e-19
2.12558e-19
6.00539e-20
2.17147e-19
2.19335e-19
2.84366e-11
-3.81542e-10
6.10113e-11
-2.72335e-10
6.81078e-11
-1.10717e-10
-5.76559e-11
1.67857e-10
-1.3813e-10
2.70311e-10
-3.24197e-10
6.21126e-10
-5.59425e-10
7.49304e-10
-7.92079e-10
1.02825e-09
-1.04e-09
1.42613e-09
-1.42676e-09
1.77819e-09
-1.65922e-09
1.81844e-09
-1.94794e-09
1.69053e-09
-2.23135e-09
1.26632e-09
-2.3405e-09
9.63088e-10
-2.51812e-09
1.17221e-09
-2.68775e-09
9.95452e-10
-2.80693e-09
8.37712e-10
-2.89695e-09
9.17943e-10
-2.99498e-09
6.96476e-10
-3.08923e-09
5.39574e-10
-3.16323e-09
5.24744e-10
-3.20152e-09
2.76102e-10
-3.23366e-09
1.78921e-10
-3.24974e-09
9.18787e-11
-3.20245e-09
-7.49152e-11
-3.25977e-09
-1.65583e-10
-3.27246e-09
-2.9416e-10
-3.24807e-09
-4.77158e-10
-3.22762e-09
-5.29137e-10
-3.09207e-09
-6.74978e-10
-3.0789e-09
-8.48384e-10
-2.98438e-09
-7.95956e-10
-2.88599e-09
-8.01581e-10
-2.74969e-09
-9.10915e-10
-2.79214e-09
-1.01799e-09
-2.71089e-09
-8.49045e-10
-2.5682e-09
-8.95118e-10
-2.48394e-09
-8.86681e-10
-2.3896e-09
-8.3067e-10
-2.41456e-09
-4.06663e-10
-2.30426e-09
-4.35835e-10
-2.30807e-09
-1.14937e-10
-2.35417e-09
1.11199e-10
-2.32414e-09
3.18596e-10
-2.27707e-09
4.14243e-10
-2.19419e-09
4.73836e-10
-2.06355e-09
4.6665e-10
-1.89896e-09
1.64027e-10
-1.70546e-09
-1.04068e-10
-1.52359e-09
-7.13213e-11
-1.62935e-09
-1.65534e-10
-1.35213e-09
-3.62838e-10
-1.30959e-09
-3.9296e-10
-1.18556e-09
-3.77058e-10
-1.14751e-09
-4.93978e-10
-1.03693e-09
-4.84706e-10
-9.46806e-10
-5.72859e-10
-7.9483e-10
-6.51563e-10
-6.78679e-10
-8.22009e-10
-5.71034e-10
-8.37326e-10
-4.58329e-10
-8.72293e-10
-3.56781e-10
-8.81833e-10
-2.27778e-10
-8.97331e-10
-9.43099e-11
-9.73454e-10
1.40398e-10
-9.94663e-10
3.6093e-10
-1.02801e-09
7.11812e-10
-9.04771e-10
9.38114e-10
-7.6146e-10
1.04848e-09
-3.97995e-10
1.14214e-09
-1.93012e-10
1.21105e-09
-7.96842e-11
1.17529e-09
8.04849e-11
1.01716e-09
2.07013e-10
8.33007e-10
3.13205e-10
7.04143e-10
3.57666e-10
5.8844e-10
3.73879e-10
4.77054e-10
3.98437e-10
4.0305e-10
3.75512e-10
3.4958e-10
3.82528e-10
2.4644e-10
4.64951e-10
9.11009e-11
4.69407e-10
1.28316e-10
2.40688e-10
4.58685e-16
1.4718e-09
1.28305e-18
4.26519e-18
1.4914e-18
-4.25258e-19
1.45014e-18
1.24513e-19
1.2932e-18
4.23188e-19
1.11264e-18
5.34043e-19
9.50654e-19
5.33787e-19
8.20971e-19
4.7601e-19
7.24927e-19
3.92648e-19
6.59342e-19
3.01922e-19
6.19602e-19
2.14188e-19
6.00805e-19
1.35339e-19
5.98181e-19
6.85738e-20
6.07278e-19
1.53343e-20
6.24056e-19
-2.41471e-20
6.44961e-19
-5.0478e-20
6.66969e-19
-6.48374e-20
6.87586e-19
-6.87495e-20
7.04822e-19
-6.38979e-20
7.17158e-19
-5.19865e-20
7.23527e-19
-3.46492e-20
7.23274e-19
-1.33846e-20
7.16088e-19
1.04919e-20
7.01919e-19
3.58778e-20
6.80911e-19
6.18865e-20
6.53347e-19
8.78304e-20
6.19606e-19
1.13191e-19
5.80141e-19
1.37584e-19
5.35464e-19
1.60719e-19
4.86141e-19
1.82363e-19
4.32786e-19
2.02308e-19
3.76042e-19
2.2035e-19
3.16558e-19
2.36281e-19
2.54948e-19
2.49891e-19
1.91751e-19
2.60984e-19
1.27405e-19
2.69384e-19
6.22423e-20
2.74958e-19
2.77619e-19
1.95193e-11
-4.01061e-10
1.16653e-11
-2.6448e-10
7.5203e-11
-1.74254e-10
5.09688e-11
1.92092e-10
-1.90072e-10
5.11352e-10
-2.17445e-10
6.485e-10
-4.98268e-10
1.03013e-09
-8.46289e-10
1.37627e-09
-1.13884e-09
1.71868e-09
-1.38537e-09
2.02471e-09
-1.57705e-09
2.01012e-09
-1.69454e-09
1.80802e-09
-2.05387e-09
1.62565e-09
-2.35337e-09
1.26259e-09
-2.46408e-09
1.28292e-09
-2.59109e-09
1.12246e-09
-2.71155e-09
9.58173e-10
-2.74252e-09
9.48922e-10
-2.78694e-09
7.40889e-10
-2.84266e-09
5.953e-10
-2.86774e-09
5.49825e-10
-2.93553e-09
3.43886e-10
-3.00884e-09
2.52231e-10
-3.05089e-09
1.33929e-10
-3.05047e-09
-7.53342e-11
-3.1218e-09
-9.42498e-11
-3.17788e-09
-2.38076e-10
-3.10241e-09
-5.5263e-10
-3.08299e-09
-5.4856e-10
-3.08929e-09
-6.68677e-10
-3.14076e-09
-7.96911e-10
-3.05887e-09
-8.77845e-10
-3.00901e-09
-8.51443e-10
-2.96808e-09
-9.5185e-10
-2.9917e-09
-9.94358e-10
-2.925e-09
-9.1575e-10
-2.89604e-09
-9.24073e-10
-2.91707e-09
-8.65653e-10
-2.97427e-09
-7.73463e-10
-2.88921e-09
-4.91723e-10
-2.84285e-09
-4.82192e-10
-2.86448e-09
-9.33128e-11
-2.75358e-09
3.01129e-13
-2.82235e-09
3.8737e-10
-2.58148e-09
1.73376e-10
-2.39938e-09
2.91734e-10
-2.13734e-09
2.04618e-10
-1.996e-09
2.26825e-11
-1.89422e-09
-2.05848e-10
-1.4955e-09
-4.70036e-10
-1.64099e-09
-2.0044e-11
-1.35992e-09
-6.43912e-10
-1.29624e-09
-4.56638e-10
-1.15888e-09
-5.14423e-10
-1.15599e-09
-4.96868e-10
-1.0515e-09
-5.892e-10
-9.73719e-10
-6.50642e-10
-8.8344e-10
-7.41846e-10
-8.41913e-10
-8.6354e-10
-7.65297e-10
-9.13947e-10
-6.9218e-10
-9.45415e-10
-6.03809e-10
-9.70208e-10
-5.1488e-10
-9.86265e-10
-4.09705e-10
-1.07863e-09
-2.88256e-10
-1.11612e-09
-1.50881e-10
-1.16539e-09
1.39607e-10
-1.19526e-09
5.52026e-10
-1.17388e-09
8.99088e-10
-7.45058e-10
1.02683e-09
-3.20757e-10
1.15324e-09
-2.06087e-10
1.18987e-09
4.38453e-11
1.21365e-09
1.83233e-10
1.07355e-09
4.53308e-10
9.07774e-10
5.23443e-10
7.16522e-10
5.65131e-10
5.84963e-10
5.29995e-10
4.52143e-10
5.08331e-10
3.89113e-10
4.45555e-10
4.21013e-10
4.33047e-10
3.76045e-10
5.14373e-10
2.24751e-10
3.91981e-10
4.93727e-16
1.69655e-09
2.13605e-18
1.39363e-17
2.0418e-18
-3.31254e-19
1.7495e-18
4.16051e-19
1.40477e-18
7.67328e-19
1.11256e-18
8.25204e-19
8.92877e-19
7.51888e-19
7.37609e-19
6.2898e-19
6.342e-19
4.92946e-19
5.71608e-19
3.60562e-19
5.40753e-19
2.40228e-19
5.3404e-19
1.36379e-19
5.44941e-19
5.11773e-20
5.67796e-19
-1.47636e-20
5.97725e-19
-6.19621e-20
6.30602e-19
-9.17564e-20
6.63056e-19
-1.06046e-19
6.92438e-19
-1.07061e-19
7.16734e-19
-9.71483e-20
7.34495e-19
-7.86133e-20
7.44791e-19
-5.36155e-20
7.4715e-19
-2.41095e-20
7.41473e-19
8.2033e-21
7.27927e-19
4.19028e-20
7.06855e-19
7.58555e-20
6.78707e-19
1.09195e-19
6.43998e-19
1.41288e-19
6.03276e-19
1.71689e-19
5.57108e-19
2.00099e-19
5.06086e-19
2.2631e-19
4.50828e-19
2.50165e-19
3.91973e-19
2.71519e-19
3.30169e-19
2.90219e-19
2.66041e-19
3.06099e-19
2.00152e-19
3.18991e-19
1.32979e-19
3.28733e-19
6.49034e-20
3.35197e-19
3.383e-19
1.04606e-11
-4.1152e-10
-1.6993e-11
-2.37025e-10
-1.86912e-10
-4.3342e-12
-3.0965e-10
3.14832e-10
-4.87922e-10
6.89625e-10
-4.08715e-10
5.69295e-10
-7.51519e-10
1.37293e-09
-1.08154e-09
1.70629e-09
-1.42009e-09
2.05723e-09
-1.64173e-09
2.24636e-09
-1.83657e-09
2.20496e-09
-1.90337e-09
1.87483e-09
-2.04959e-09
1.77187e-09
-2.2839e-09
1.4969e-09
-2.35467e-09
1.35369e-09
-2.44444e-09
1.21224e-09
-2.47409e-09
9.87818e-10
-2.51923e-09
9.94061e-10
-2.57503e-09
7.96692e-10
-2.59127e-09
6.11538e-10
-2.57604e-09
5.34592e-10
-2.6368e-09
4.04652e-10
-2.68011e-09
2.9554e-10
-2.69328e-09
1.47096e-10
-2.75412e-09
-1.44912e-11
-2.85113e-09
2.76388e-12
-2.91002e-09
-1.79194e-10
-2.9717e-09
-4.90946e-10
-2.99564e-09
-5.24618e-10
-3.05866e-09
-6.05655e-10
-3.04077e-09
-8.14806e-10
-3.02219e-09
-8.96429e-10
-3.07748e-09
-7.96148e-10
-3.07169e-09
-9.57635e-10
-3.09091e-09
-9.75139e-10
-3.1345e-09
-8.72158e-10
-3.13363e-09
-9.24945e-10
-3.20115e-09
-7.9813e-10
-3.32894e-09
-6.45675e-10
-3.26041e-09
-5.60254e-10
-3.35615e-09
-3.86446e-10
-3.29185e-09
-1.57611e-10
-3.12074e-09
-1.70804e-10
-3.01917e-09
2.85801e-10
-2.85955e-09
1.37582e-11
-2.55794e-09
-9.8737e-12
-2.25182e-09
-1.015e-10
-2.06095e-09
-1.68192e-10
-1.95585e-09
-3.10947e-10
-1.60736e-09
-8.18523e-10
-1.69449e-09
6.70796e-11
-1.51095e-09
-8.27449e-10
-1.39877e-09
-5.68823e-10
-1.21103e-09
-7.02164e-10
-1.22037e-09
-4.87532e-10
-1.09691e-09
-7.1266e-10
-1.00441e-09
-7.43144e-10
-9.30099e-10
-8.16164e-10
-8.3448e-10
-9.59163e-10
-7.5937e-10
-9.89062e-10
-6.96694e-10
-1.00809e-09
-6.29028e-10
-1.03788e-09
-5.83485e-10
-1.03181e-09
-5.20238e-10
-1.14188e-09
-4.41053e-10
-1.1953e-09
-3.06428e-10
-1.30001e-09
-1.42282e-10
-1.35941e-09
7.70798e-11
-1.39324e-09
5.42754e-10
-1.21073e-09
9.22203e-10
-7.00207e-10
1.01137e-09
-2.95257e-10
1.12654e-09
-7.13202e-11
1.23873e-09
7.10405e-11
1.20557e-09
4.86469e-10
1.12159e-09
6.07421e-10
9.75575e-10
7.11144e-10
7.96594e-10
7.08974e-10
6.13444e-10
6.9148e-10
5.2032e-10
5.38677e-10
5.17583e-10
4.3578e-10
5.54586e-10
4.77367e-10
5.49364e-10
3.97201e-10
5.95016e-15
2.2459e-09
1.34288e-18
5.52622e-15
2.7896e-18
-1.77806e-18
2.1014e-18
1.1035e-18
1.46334e-18
1.40485e-18
1.03934e-18
1.24823e-18
7.6997e-19
1.01974e-18
6.01575e-19
7.95186e-19
5.01816e-19
5.89747e-19
4.51274e-19
4.07324e-19
4.36904e-19
2.49907e-19
4.48839e-19
1.18777e-19
4.79e-19
1.43679e-20
5.20598e-19
-6.39097e-20
5.67931e-19
-1.17607e-19
6.16312e-19
-1.49038e-19
6.62042e-19
-1.61046e-19
7.0235e-19
-1.56758e-19
7.35269e-19
-1.39353e-19
7.59493e-19
-1.11865e-19
7.74297e-19
-7.70729e-20
7.79463e-19
-3.74358e-20
7.75173e-19
4.93573e-21
7.6188e-19
4.83025e-20
7.40195e-19
9.12949e-20
7.108e-19
1.32886e-19
6.744e-19
1.72348e-19
6.31685e-19
2.092e-19
5.83319e-19
2.43154e-19
5.29941e-19
2.74052e-19
4.72181e-19
3.01815e-19
4.10673e-19
3.26386e-19
3.4605e-19
3.47702e-19
2.78932e-19
3.65673e-19
2.09894e-19
3.80186e-19
1.39442e-19
3.91122e-19
6.80064e-20
3.98375e-19
4.01883e-19
-7.94582e-11
-3.32061e-10
-6.66079e-11
-2.49874e-10
-1.52241e-10
8.13004e-11
-2.00405e-10
3.62997e-10
-2.37268e-10
7.26489e-10
-5.68952e-10
9.0098e-10
-8.03437e-10
1.60742e-09
-1.02023e-09
1.92308e-09
-1.3199e-09
2.3569e-09
-1.53688e-09
2.46334e-09
-1.73066e-09
2.39874e-09
-1.86707e-09
2.01123e-09
-1.92975e-09
1.83455e-09
-2.0913e-09
1.65845e-09
-2.17796e-09
1.44035e-09
-2.2689e-09
1.30318e-09
-2.27753e-09
9.96451e-10
-2.23779e-09
9.54322e-10
-2.3094e-09
8.68304e-10
-2.33241e-09
6.34551e-10
-2.2949e-09
4.97073e-10
-2.3435e-09
4.53256e-10
-2.3716e-09
3.23636e-10
-2.39318e-09
1.68683e-10
-2.44182e-09
3.41483e-11
-2.49648e-09
5.74227e-11
-2.55243e-09
-1.23243e-10
-2.63365e-09
-4.09731e-10
-2.74915e-09
-4.09119e-10
-2.83772e-09
-5.17086e-10
-2.92747e-09
-7.25047e-10
-3.02219e-09
-8.0171e-10
-3.08295e-09
-7.35387e-10
-3.11553e-09
-9.25055e-10
-3.16671e-09
-9.23963e-10
-3.23575e-09
-8.03115e-10
-3.30257e-09
-8.58127e-10
-3.39339e-09
-7.0731e-10
-3.48153e-09
-5.57526e-10
-3.50612e-09
-5.35663e-10
-3.53304e-09
-3.59532e-10
-3.46201e-09
-2.28632e-10
-3.47066e-09
-1.62155e-10
-3.14829e-09
-3.65641e-11
-2.94226e-09
-1.92275e-10
-2.70044e-09
-2.5169e-10
-2.51016e-09
-2.91783e-10
-2.26333e-09
-4.15021e-10
-1.87615e-09
-6.98122e-10
-1.80741e-09
-8.87265e-10
-1.97502e-09
2.34681e-10
-1.61633e-09
-1.18613e-09
-1.5036e-09
-6.81556e-10
-1.32621e-09
-8.79565e-10
-1.2445e-09
-5.69243e-10
-1.04977e-09
-9.07391e-10
-8.97491e-10
-8.95426e-10
-7.8059e-10
-9.33068e-10
-7.3263e-10
-1.00713e-09
-7.03418e-10
-1.01828e-09
-6.51263e-10
-1.06025e-09
-6.06786e-10
-1.08236e-09
-5.81242e-10
-1.05736e-09
-5.21019e-10
-1.20211e-09
-4.32642e-10
-1.28368e-09
-3.15013e-10
-1.41764e-09
-2.08185e-10
-1.46624e-09
-9.27024e-11
-1.50873e-09
1.19571e-10
-1.42301e-09
5.43365e-10
-1.124e-09
9.11442e-10
-6.63335e-10
1.0366e-09
-1.96479e-10
1.07338e-09
3.42627e-11
1.16328e-09
3.96567e-10
1.17366e-09
5.97038e-10
1.16102e-09
7.23774e-10
1.06625e-09
8.03741e-10
9.22818e-10
8.34909e-10
7.54141e-10
7.07351e-10
6.10734e-10
5.79184e-10
4.80767e-10
6.07331e-10
3.7487e-10
5.03096e-10
9.76835e-11
2.52309e-09
1.93499e-17
9.76886e-11
5.46422e-18
1.17936e-17
2.40336e-18
4.16427e-18
1.30744e-18
2.50074e-18
8.10877e-19
1.74439e-18
5.45417e-19
1.28425e-18
3.96136e-19
9.42895e-19
3.19393e-19
6.64228e-19
2.93856e-19
4.29902e-19
3.05774e-19
2.34219e-19
3.4443e-19
7.54052e-20
4.00723e-19
-4.7692e-20
4.66901e-19
-1.36877e-19
5.365e-19
-1.94883e-19
6.04305e-19
-2.25223e-19
6.6633e-19
-2.31913e-19
7.19755e-19
-2.19189e-19
7.62756e-19
-1.91239e-19
7.94286e-19
-1.5197e-19
8.13934e-19
-1.0487e-19
8.21835e-19
-5.29534e-20
8.1854e-19
1.25534e-21
8.04872e-19
5.57175e-20
7.81785e-19
1.08862e-19
7.50262e-19
1.59542e-19
7.11252e-19
2.06977e-19
6.65639e-19
2.50687e-19
6.14218e-19
2.90426e-19
5.57704e-19
3.26116e-19
4.96753e-19
3.57777e-19
4.31989e-19
3.8547e-19
3.64021e-19
4.09248e-19
2.93445e-19
4.29126e-19
2.2083e-19
4.45079e-19
1.46696e-19
4.57051e-19
7.15144e-20
4.64988e-19
4.68857e-19
-1.15031e-10
-2.1703e-10
-3.07466e-10
-5.74375e-11
-5.4408e-10
3.17916e-10
-5.68843e-10
3.8776e-10
-3.32967e-10
4.90613e-10
-6.27198e-10
1.19521e-09
-8.7474e-10
1.85496e-09
-1.17117e-09
2.21951e-09
-1.3455e-09
2.53123e-09
-1.46688e-09
2.58472e-09
-1.52578e-09
2.45765e-09
-1.71989e-09
2.20534e-09
-1.82679e-09
1.94145e-09
-1.91667e-09
1.74833e-09
-1.9656e-09
1.48928e-09
-1.98987e-09
1.32746e-09
-2.05395e-09
1.06052e-09
-2.00815e-09
9.08524e-10
-2.00548e-09
8.65637e-10
-2.08221e-09
7.11284e-10
-2.05876e-09
4.73626e-10
-2.06876e-09
4.63254e-10
-2.12412e-09
3.78991e-10
-2.14733e-09
1.91896e-10
-2.21969e-09
1.0651e-10
-2.23402e-09
7.17547e-11
-2.297e-09
-6.0267e-11
-2.34768e-09
-3.59051e-10
-2.47894e-09
-2.77861e-10
-2.58247e-09
-4.13552e-10
-2.70932e-09
-5.982e-10
-2.85014e-09
-6.60883e-10
-2.94159e-09
-6.43945e-10
-3.03925e-09
-8.27387e-10
-3.14903e-09
-8.14182e-10
-3.23644e-09
-7.15706e-10
-3.36164e-09
-7.32929e-10
-3.44669e-09
-6.22258e-10
-3.51495e-09
-4.89266e-10
-3.5402e-09
-5.10406e-10
-3.51757e-09
-3.82163e-10
-3.48564e-09
-2.60555e-10
-3.49173e-09
-1.56064e-10
-3.2811e-09
-2.47196e-10
-2.94703e-09
-5.26342e-10
-2.6383e-09
-5.60427e-10
-2.45779e-09
-4.7229e-10
-2.24099e-09
-6.3182e-10
-1.99104e-09
-9.48077e-10
-2.28179e-09
-5.96517e-10
-1.80335e-09
-2.43753e-10
-1.69679e-09
-1.2927e-09
-1.51074e-09
-8.67609e-10
-1.36923e-09
-1.02107e-09
-1.13689e-09
-8.01592e-10
-8.56506e-10
-1.18778e-09
-6.54637e-10
-1.0973e-09
-5.26008e-10
-1.0617e-09
-5.18951e-10
-1.01419e-09
-5.12763e-10
-1.02447e-09
-5.14792e-10
-1.05822e-09
-5.37303e-10
-1.05985e-09
-5.22208e-10
-1.07245e-09
-4.4284e-10
-1.28148e-09
-3.57642e-10
-1.36888e-09
-2.57306e-10
-1.51798e-09
-1.45917e-10
-1.57763e-09
-5.63695e-11
-1.59828e-09
6.98649e-11
-1.54924e-09
2.63807e-10
-1.31795e-09
6.20735e-10
-1.02026e-09
8.5858e-10
-4.34326e-10
8.76377e-10
1.64625e-11
1.00378e-09
2.69163e-10
1.09745e-09
5.03362e-10
1.14426e-09
6.76964e-10
1.0862e-09
8.61794e-10
1.01438e-09
9.06725e-10
8.4682e-10
8.74906e-10
6.31008e-10
7.94993e-10
4.55754e-10
7.82582e-10
2.57489e-10
7.01359e-10
2.84778e-10
2.4958e-09
8.87524e-16
3.82464e-10
5.17181e-19
4.58611e-18
7.40636e-19
3.94075e-18
5.5184e-19
2.68893e-18
3.5074e-19
1.94494e-18
2.04058e-19
1.43025e-18
1.17469e-19
1.0285e-18
8.50676e-20
6.9522e-19
9.81725e-20
4.14953e-19
1.4696e-19
1.83029e-19
2.21333e-19
-2.11443e-21
3.11537e-19
-1.42032e-19
4.08895e-19
-2.39442e-19
5.0616e-19
-2.98348e-19
5.97615e-19
-3.23713e-19
6.79054e-19
-3.21007e-19
7.47706e-19
-2.95812e-19
8.02025e-19
-2.53513e-19
8.41385e-19
-1.99031e-19
8.65851e-19
-1.36658e-19
8.76043e-19
-6.99987e-20
8.73002e-19
-1.98333e-21
8.58017e-19
6.50917e-20
8.32465e-19
1.29513e-19
7.97697e-19
1.90079e-19
7.54963e-19
2.46021e-19
7.05378e-19
2.96915e-19
6.49907e-19
3.42604e-19
5.89365e-19
3.83122e-19
5.24446e-19
4.18623e-19
4.55766e-19
4.49307e-19
3.83899e-19
4.75368e-19
3.09398e-19
4.96952e-19
2.32803e-19
5.14148e-19
1.54632e-19
5.26991e-19
7.53838e-20
5.35494e-19
5.39673e-19
-1.56143e-10
-6.08863e-11
-2.2445e-10
1.087e-11
-3.14392e-10
4.07858e-10
-6.84556e-10
7.57925e-10
-8.26881e-10
6.32939e-10
-1.00664e-09
1.37497e-09
-9.74605e-10
1.82292e-09
-1.09581e-09
2.34071e-09
-1.35614e-09
2.79156e-09
-1.53783e-09
2.76641e-09
-1.61096e-09
2.53077e-09
-1.64688e-09
2.24126e-09
-1.70579e-09
2.00036e-09
-1.73556e-09
1.7781e-09
-1.77879e-09
1.53251e-09
-1.79299e-09
1.34166e-09
-1.8549e-09
1.12243e-09
-1.86529e-09
9.18911e-10
-1.8199e-09
8.20249e-10
-1.8525e-09
7.43887e-10
-1.90378e-09
5.24902e-10
-1.85531e-09
4.14781e-10
-1.89591e-09
4.19597e-10
-1.94623e-09
2.4221e-10
-1.98104e-09
1.41329e-10
-2.02701e-09
1.17718e-10
-2.07058e-09
-1.66935e-11
-2.17552e-09
-2.54108e-10
-2.23945e-09
-2.13936e-10
-2.29174e-09
-3.61261e-10
-2.38821e-09
-5.01725e-10
-2.56902e-09
-4.80076e-10
-2.74028e-09
-4.72679e-10
-2.81462e-09
-7.53049e-10
-2.93013e-09
-6.98672e-10
-3.02961e-09
-6.16222e-10
-3.15935e-09
-6.03187e-10
-3.28907e-09
-4.92543e-10
-3.38229e-09
-3.96039e-10
-3.461e-09
-4.31702e-10
-3.42312e-09
-4.20041e-10
-3.30929e-09
-3.7438e-10
-3.1461e-09
-3.19249e-10
-2.93131e-09
-4.61987e-10
-2.77473e-09
-6.8292e-10
-2.69106e-09
-6.44103e-10
-2.47354e-09
-6.8981e-10
-2.20018e-09
-9.05182e-10
-2.09264e-09
-1.05561e-09
-2.01358e-09
-6.75579e-10
-1.45906e-09
-7.98275e-10
-1.70112e-09
-1.05064e-09
-1.47832e-09
-1.09041e-09
-1.36834e-09
-1.13105e-09
-9.89537e-10
-1.1804e-09
-7.01796e-10
-1.47552e-09
-4.74789e-10
-1.32431e-09
-3.03158e-10
-1.23334e-09
-1.73006e-10
-1.14434e-09
-1.76135e-10
-1.02134e-09
-2.75194e-10
-9.59167e-10
-3.61018e-10
-9.74025e-10
-3.68906e-10
-1.06456e-09
-3.31042e-10
-1.31934e-09
-2.69177e-10
-1.43074e-09
-1.94296e-10
-1.59286e-09
-1.20827e-10
-1.6511e-09
-2.93482e-11
-1.68976e-09
1.01871e-10
-1.68046e-09
2.65759e-10
-1.48184e-09
4.03558e-10
-1.15807e-09
6.57483e-10
-6.88254e-10
7.19835e-10
-4.58942e-11
8.20813e-10
1.6818e-10
9.4166e-10
3.8251e-10
1.05071e-09
5.67908e-10
1.02186e-09
8.90642e-10
1.00566e-09
9.22923e-10
8.07762e-10
1.0728e-09
5.75061e-10
1.02769e-09
3.91208e-10
9.66434e-10
2.31365e-10
8.61202e-10
3.71118e-10
2.35605e-09
3.3545e-16
7.53582e-10
-1.83716e-18
4.88591e-19
-5.10277e-19
2.61405e-18
-1.91389e-19
2.36948e-18
-1.63959e-19
1.91672e-18
-1.97689e-19
1.46317e-18
-2.1581e-19
1.04585e-18
-1.95199e-19
6.73794e-19
-1.33752e-19
3.52617e-19
-3.81825e-20
8.64025e-20
8.14154e-20
-1.23121e-19
2.14127e-19
-2.76894e-19
3.49989e-19
-3.78439e-19
4.80794e-19
-4.33304e-19
6.00321e-19
-4.48312e-19
7.04248e-19
-4.30785e-19
7.90005e-19
-3.8796e-19
8.56507e-19
-3.2662e-19
9.03758e-19
-2.52819e-19
9.32511e-19
-1.71716e-19
9.44059e-19
-8.7524e-20
9.40077e-19
-3.5453e-21
9.22438e-19
7.77333e-20
8.93032e-19
1.54542e-19
8.53639e-19
2.25719e-19
8.05856e-19