/*--------------------------------*- C++ -*----------------------------------*\
  =========                 |
  \\      /  F ield         | OpenFOAM: The Open Source CFD Toolbox
   \\    /   O peration     | Website:  https://openfoam.org
    \\  /    A nd           | Version:  6
     \\/     M anipulation  |
\*---------------------------------------------------------------------------*/
FoamFile
{
    version     2.0;
    format      ascii;
    class       volVectorField;
    location    "2100";
    object      U;
}
// * * * * * * * * * * * * * * * * * * * * * * * * * * * * * * * * * * * * * //

dimensions      [0 1 -1 0 0 0 0];

internalField   nonuniform List<vector> 
4800
(
(-1.17982e-09 0 2.45097e-09)
(-6.12341e-09 0 -1.96687e-10)
(-9.88699e-09 0 -1.20074e-09)
(-1.35734e-08 0 -1.51078e-09)
(-1.69223e-08 0 -1.57851e-09)
(-1.98557e-08 0 -1.54522e-09)
(-2.23126e-08 0 -1.4631e-09)
(-2.42624e-08 0 -1.35921e-09)
(-2.56939e-08 0 -1.25206e-09)
(-2.66026e-08 0 -1.16533e-09)
(-2.6999e-08 0 -1.09379e-09)
(-2.69111e-08 0 -1.05144e-09)
(-2.63693e-08 0 -1.05148e-09)
(-2.544e-08 0 -1.0197e-09)
(-2.42233e-08 0 -1.00477e-09)
(-2.27827e-08 0 -9.1615e-10)
(-2.13883e-08 0 -8.60165e-10)
(-1.95273e-08 0 -1.17369e-09)
(-1.72844e-08 0 -1.18157e-09)
(-1.52748e-08 0 -9.872e-10)
(-1.34986e-08 0 -7.36359e-10)
(-1.13081e-08 0 -1.3482e-09)
(-8.99927e-09 0 -9.9247e-10)
(-7.0321e-09 0 -9.5035e-10)
(-5.05132e-09 0 -9.59016e-10)
(-3.06666e-09 0 -9.13554e-10)
(-1.20184e-09 0 -8.47954e-10)
(5.84011e-10 0 -7.96686e-10)
(2.30427e-09 0 -7.54873e-10)
(3.98037e-09 0 -7.27848e-10)
(5.62101e-09 0 -7.00313e-10)
(7.23269e-09 0 -6.83698e-10)
(8.82957e-09 0 -6.72496e-10)
(1.04253e-08 0 -6.78014e-10)
(1.20493e-08 0 -6.9365e-10)
(1.37055e-08 0 -7.02674e-10)
(1.54019e-08 0 -7.37053e-10)
(1.71524e-08 0 -7.65442e-10)
(1.89955e-08 0 -8.10049e-10)
(2.09079e-08 0 -8.58388e-10)
(2.29225e-08 0 -9.15062e-10)
(2.50469e-08 0 -9.66061e-10)
(2.7262e-08 0 -1.02355e-09)
(2.95904e-08 0 -1.0814e-09)
(3.20119e-08 0 -1.12566e-09)
(3.453e-08 0 -1.17969e-09)
(3.7132e-08 0 -1.2259e-09)
(3.98021e-08 0 -1.25028e-09)
(4.25188e-08 0 -1.27855e-09)
(4.52616e-08 0 -1.28544e-09)
(4.80021e-08 0 -1.28117e-09)
(5.07105e-08 0 -1.26013e-09)
(5.33523e-08 0 -1.21933e-09)
(5.58853e-08 0 -1.1559e-09)
(5.82675e-08 0 -1.07195e-09)
(6.04669e-08 0 -9.80464e-10)
(6.24641e-08 0 -8.63393e-10)
(6.41949e-08 0 -7.31064e-10)
(6.56529e-08 0 -5.76932e-10)
(6.67765e-08 0 -4.14952e-10)
(6.75743e-08 0 -2.45347e-10)
(6.80091e-08 0 -6.39998e-11)
(6.80735e-08 0 1.20044e-10)
(6.7762e-08 0 3.05106e-10)
(6.70714e-08 0 4.91236e-10)
(6.6021e-08 0 6.56902e-10)
(6.46302e-08 0 8.22655e-10)
(6.29203e-08 0 9.66752e-10)
(6.09403e-08 0 1.08171e-09)
(5.87631e-08 0 1.15832e-09)
(5.64679e-08 0 1.19055e-09)
(5.41743e-08 0 1.15804e-09)
(5.20931e-08 0 1.00078e-09)
(5.06718e-08 0 5.55593e-10)
(5.11175e-08 0 -7.31295e-10)
(5.68461e-08 0 -4.55407e-09)
(7.60292e-08 0 -1.69592e-08)
(4.19475e-08 0 2.11281e-08)
(-2.69622e-10 0 1.99939e-08)
(1.03995e-14 0 -7.16952e-15)
(3.30384e-16 0 -4.80799e-18)
(6.65622e-16 0 -5.66619e-18)
(6.83603e-16 0 -4.3427e-18)
(7.07064e-16 0 -2.50222e-18)
(7.27454e-16 0 -6.20386e-19)
(7.4378e-16 0 1.18907e-18)
(7.56012e-16 0 2.92615e-18)
(7.64336e-16 0 4.58051e-18)
(7.68885e-16 0 6.1108e-18)
(7.69795e-16 0 7.57904e-18)
(7.67313e-16 0 8.89219e-18)
(7.61534e-16 0 1.01123e-17)
(7.52621e-16 0 1.12083e-17)
(7.40771e-16 0 1.21906e-17)
(7.26161e-16 0 1.30695e-17)
(7.09018e-16 0 1.38036e-17)
(6.89579e-16 0 1.44446e-17)
(6.68104e-16 0 1.49513e-17)
(6.44787e-16 0 1.53856e-17)
(6.199e-16 0 1.57475e-17)
(5.93647e-16 0 1.59956e-17)
(5.66205e-16 0 1.62024e-17)
(5.37874e-16 0 1.63678e-17)
(5.08747e-16 0 1.64609e-17)
(4.78989e-16 0 1.65126e-17)
(4.48818e-16 0 1.65333e-17)
(4.18285e-16 0 1.65333e-17)
(3.87503e-16 0 1.64816e-17)
(3.56546e-16 0 1.64506e-17)
(3.25485e-16 0 1.63782e-17)
(2.94414e-16 0 1.63161e-17)
(2.63343e-16 0 1.62644e-17)
(2.32252e-16 0 1.61817e-17)
(2.01201e-16 0 1.613e-17)
(1.70213e-16 0 1.60783e-17)
(1.39256e-16 0 1.60163e-17)
(1.08392e-16 0 1.60059e-17)
(7.75585e-17 0 1.59749e-17)
(4.6653e-17 0 1.59853e-17)
(1.55924e-17 0 1.61093e-17)
(-1.13095e-09 0 6.00771e-09)
(-6.13335e-09 0 7.97242e-09)
(-1.02523e-08 0 8.32329e-09)
(-1.41811e-08 0 7.92891e-09)
(-1.76861e-08 0 7.20347e-09)
(-2.07168e-08 0 6.2897e-09)
(-2.32354e-08 0 5.25901e-09)
(-2.52124e-08 0 4.17441e-09)
(-2.66254e-08 0 3.06704e-09)
(-2.74843e-08 0 1.98071e-09)
(-2.78145e-08 0 9.45232e-10)
(-2.76401e-08 0 -2.76629e-11)
(-2.69897e-08 0 -9.54455e-10)
(-2.59474e-08 0 -1.56743e-09)
(-2.46388e-08 0 -2.04286e-09)
(-2.31692e-08 0 -2.13009e-09)
(-2.16833e-08 0 -2.28715e-09)
(-1.96373e-08 0 -3.42913e-09)
(-1.7375e-08 0 -3.5411e-09)
(-1.53583e-08 0 -3.00673e-09)
(-1.35259e-08 0 -2.41842e-09)
(-1.12326e-08 0 -4.20104e-09)
(-8.98524e-09 0 -3.23593e-09)
(-6.98919e-09 0 -3.12965e-09)
(-4.98675e-09 0 -3.2349e-09)
(-2.99843e-09 0 -3.10595e-09)
(-1.14273e-09 0 -2.95249e-09)
(6.43993e-10 0 -2.83211e-09)
(2.36763e-09 0 -2.73865e-09)
(4.03893e-09 0 -2.669e-09)
(5.66496e-09 0 -2.60198e-09)
(7.25813e-09 0 -2.5514e-09)
(8.84299e-09 0 -2.53314e-09)
(1.04252e-08 0 -2.53051e-09)
(1.20208e-08 0 -2.56477e-09)
(1.36615e-08 0 -2.59994e-09)
(1.53518e-08 0 -2.67783e-09)
(1.7087e-08 0 -2.74243e-09)
(1.89226e-08 0 -2.86184e-09)
(2.08299e-08 0 -2.98293e-09)
(2.28319e-08 0 -3.11524e-09)
(2.49479e-08 0 -3.25856e-09)
(2.71645e-08 0 -3.39961e-09)
(2.94882e-08 0 -3.54189e-09)
(3.1921e-08 0 -3.66851e-09)
(3.44618e-08 0 -3.78923e-09)
(3.70773e-08 0 -3.90476e-09)
(3.97736e-08 0 -3.96045e-09)
(4.25217e-08 0 -4.01504e-09)
(4.52934e-08 0 -4.00947e-09)
(4.8059e-08 0 -3.96839e-09)
(5.07918e-08 0 -3.88388e-09)
(5.34598e-08 0 -3.73903e-09)
(5.60288e-08 0 -3.53566e-09)
(5.84559e-08 0 -3.26217e-09)
(6.07004e-08 0 -2.96781e-09)
(6.27387e-08 0 -2.59532e-09)
(6.45002e-08 0 -2.17151e-09)
(6.5979e-08 0 -1.68906e-09)
(6.71255e-08 0 -1.19058e-09)
(6.79439e-08 0 -6.51353e-10)
(6.83957e-08 0 -9.13342e-11)
(6.8471e-08 0 4.94824e-10)
(6.81497e-08 0 1.08261e-09)
(6.74447e-08 0 1.66352e-09)
(6.63719e-08 0 2.20081e-09)
(6.49404e-08 0 2.73093e-09)
(6.31861e-08 0 3.191e-09)
(6.11548e-08 0 3.56949e-09)
(5.89052e-08 0 3.83709e-09)
(5.64851e-08 0 3.99526e-09)
(5.39637e-08 0 3.96324e-09)
(5.14361e-08 0 3.61236e-09)
(4.89262e-08 0 2.65711e-09)
(4.6091e-08 0 3.2616e-10)
(4.15359e-08 0 -5.51263e-09)
(2.53466e-08 0 -2.15859e-08)
(1.68962e-08 0 5.59523e-08)
(-2.01619e-10 0 4.62433e-08)
(8.01679e-15 0 -2.03846e-14)
(3.2952e-16 0 -1.36898e-17)
(6.66077e-16 0 -1.14358e-17)
(6.86756e-16 0 -6.57609e-18)
(7.10776e-16 0 -1.08567e-18)
(7.31135e-16 0 4.38406e-18)
(7.47327e-16 0 9.62632e-18)
(7.59404e-16 0 1.46204e-17)
(7.6751e-16 0 1.9325e-17)
(7.71873e-16 0 2.36574e-17)
(7.72597e-16 0 2.76899e-17)
(7.69847e-16 0 3.13708e-17)
(7.63839e-16 0 3.46796e-17)
(7.54709e-16 0 3.76057e-17)
(7.42622e-16 0 4.017e-17)
(7.27774e-16 0 4.24137e-17)
(7.10393e-16 0 4.42852e-17)
(6.90727e-16 0 4.58465e-17)
(6.69044e-16 0 4.7139e-17)
(6.45573e-16 0 4.81626e-17)
(6.2051e-16 0 4.89794e-17)
(5.94112e-16 0 4.95585e-17)
(5.66588e-16 0 4.99824e-17)
(5.38133e-16 0 5.02512e-17)
(5.08902e-16 0 5.0396e-17)
(4.79062e-16 0 5.04373e-17)
(4.48828e-16 0 5.0396e-17)
(4.18243e-16 0 5.02926e-17)
(3.8741e-16 0 5.01271e-17)
(3.56422e-16 0 4.99307e-17)
(3.25341e-16 0 4.97136e-17)
(2.9428e-16 0 4.94964e-17)
(2.63199e-16 0 4.92586e-17)
(2.32128e-16 0 4.90415e-17)
(2.01108e-16 0 4.8845e-17)
(1.70099e-16 0 4.86382e-17)
(1.39173e-16 0 4.84728e-17)
(1.0835e-16 0 4.83384e-17)
(7.75378e-17 0 4.82246e-17)
(4.67771e-17 0 4.81936e-17)
(1.57164e-17 0 4.8297e-17)
(-1.53082e-09 0 9.33962e-09)
(-6.97421e-09 0 9.10391e-09)
(-1.09076e-08 0 8.51652e-09)
(-1.47375e-08 0 7.71002e-09)
(-1.82304e-08 0 6.72787e-09)
(-2.12826e-08 0 5.60861e-09)
(-2.38204e-08 0 4.40099e-09)
(-2.58031e-08 0 3.14916e-09)
(-2.72188e-08 0 1.87214e-09)
(-2.80677e-08 0 6.24679e-10)
(-2.83673e-08 0 -5.70223e-10)
(-2.81446e-08 0 -1.72885e-09)
(-2.74376e-08 0 -2.83952e-09)
(-2.63544e-08 0 -3.54758e-09)
(-2.50216e-08 0 -4.06024e-09)
(-2.3589e-08 0 -3.76147e-09)
(-2.19997e-08 0 -4.52237e-09)
(-1.97142e-08 0 -5.98337e-09)
(-1.74909e-08 0 -5.95521e-09)
(-1.55223e-08 0 -4.96231e-09)
(-1.35366e-08 0 -4.59099e-09)
(-1.10353e-08 0 -6.817e-09)
(-8.8898e-09 0 -5.46185e-09)
(-6.85371e-09 0 -5.2244e-09)
(-4.80273e-09 0 -5.46944e-09)
(-2.82454e-09 0 -5.13947e-09)
(-9.88055e-10 0 -4.90615e-09)
(7.84574e-10 0 -4.69955e-09)
(2.48897e-09 0 -4.53508e-09)
(4.12998e-09 0 -4.39215e-09)
(5.72275e-09 0 -4.27221e-09)
(7.29091e-09 0 -4.18837e-09)
(8.85111e-09 0 -4.16293e-09)
(1.04081e-08 0 -4.14679e-09)
(1.19832e-08 0 -4.19321e-09)
(1.35931e-08 0 -4.26704e-09)
(1.52463e-08 0 -4.38206e-09)
(1.69498e-08 0 -4.49535e-09)
(1.87738e-08 0 -4.71129e-09)
(2.06665e-08 0 -4.9108e-09)
(2.26658e-08 0 -5.12366e-09)
(2.47715e-08 0 -5.36409e-09)
(2.69738e-08 0 -5.61661e-09)
(2.93149e-08 0 -5.84787e-09)
(3.17623e-08 0 -6.09032e-09)
(3.43232e-08 0 -6.27999e-09)
(3.69605e-08 0 -6.47855e-09)
(3.96913e-08 0 -6.5927e-09)
(4.24798e-08 0 -6.67547e-09)
(4.53035e-08 0 -6.68515e-09)
(4.81394e-08 0 -6.61344e-09)
(5.09479e-08 0 -6.48111e-09)
(5.36928e-08 0 -6.23704e-09)
(5.63333e-08 0 -5.90874e-09)
(5.88297e-08 0 -5.45571e-09)
(6.11531e-08 0 -4.97229e-09)
(6.32679e-08 0 -4.34138e-09)
(6.50947e-08 0 -3.62521e-09)
(6.66434e-08 0 -2.8184e-09)
(6.784e-08 0 -1.98577e-09)
(6.86944e-08 0 -1.07588e-09)
(6.91611e-08 0 -1.35983e-10)
(6.92319e-08 0 8.47853e-10)
(6.89097e-08 0 1.83256e-09)
(6.81855e-08 0 2.80213e-09)
(6.70592e-08 0 3.7232e-09)
(6.55595e-08 0 4.59865e-09)
(6.37259e-08 0 5.3696e-09)
(6.15885e-08 0 6.00656e-09)
(5.9193e-08 0 6.48971e-09)
(5.65682e-08 0 6.82451e-09)
(5.37652e-08 0 6.88545e-09)
(5.07658e-08 0 6.63705e-09)
(4.73932e-08 0 5.91169e-09)
(4.30319e-08 0 4.59565e-09)
(3.61842e-08 0 2.61239e-09)
(2.11348e-08 0 1.35989e-09)
(1.09189e-08 0 5.81193e-08)
(-1.92618e-10 0 5.76255e-08)
(7.65915e-15 0 -3.30954e-14)
(3.32623e-16 0 -2.22512e-17)
(6.72725e-16 0 -1.35554e-17)
(6.93953e-16 0 -4.37372e-18)
(7.18003e-16 0 4.85969e-18)
(7.38145e-16 0 1.38553e-17)
(7.54017e-16 0 2.24476e-17)
(7.65711e-16 0 3.05747e-17)
(7.73373e-16 0 3.81744e-17)
(7.7726e-16 0 4.51744e-17)
(7.77529e-16 0 5.15334e-17)
(7.74293e-16 0 5.73236e-17)
(7.67768e-16 0 6.24418e-17)
(7.58121e-16 0 6.69396e-17)
(7.45548e-16 0 7.08273e-17)
(7.30287e-16 0 7.41567e-17)
(7.12471e-16 0 7.69381e-17)
(6.92423e-16 0 7.92026e-17)
(6.7042e-16 0 8.1043e-17)
(6.46638e-16 0 8.24699e-17)
(6.21295e-16 0 8.35246e-17)
(5.9464e-16 0 8.42794e-17)
(5.66898e-16 0 8.47653e-17)
(5.38277e-16 0 8.50032e-17)
(5.08933e-16 0 8.50652e-17)
(4.79e-16 0 8.50032e-17)
(4.48673e-16 0 8.4817e-17)
(4.18026e-16 0 8.45275e-17)
(3.87131e-16 0 8.42173e-17)
(3.56122e-16 0 8.38244e-17)
(3.25051e-16 0 8.34108e-17)
(2.93939e-16 0 8.29869e-17)
(2.62878e-16 0 8.2563e-17)
(2.31838e-16 0 8.21494e-17)
(2.00808e-16 0 8.17668e-17)
(1.69862e-16 0 8.13946e-17)
(1.38956e-16 0 8.10844e-17)
(1.08144e-16 0 8.08259e-17)
(7.74034e-17 0 8.05777e-17)
(4.66943e-17 0 8.04226e-17)
(1.56854e-17 0 8.03399e-17)
(-1.59503e-09 0 1.41399e-08)
(-7.38327e-09 0 1.37648e-08)
(-1.16563e-08 0 1.29805e-08)
(-1.57591e-08 0 1.18555e-08)
(-1.94517e-08 0 1.04395e-08)
(-2.26554e-08 0 8.80032e-09)
(-2.53019e-08 0 7.00002e-09)
(-2.73336e-08 0 5.11366e-09)
(-2.87428e-08 0 3.20476e-09)
(-2.95426e-08 0 1.32068e-09)
(-2.97484e-08 0 -4.87624e-10)
(-2.94053e-08 0 -2.25756e-09)
(-2.85636e-08 0 -3.84453e-09)
(-2.73353e-08 0 -4.9783e-09)
(-2.58666e-08 0 -5.63917e-09)
(-2.44089e-08 0 -5.12897e-09)
(-2.25516e-08 0 -6.83257e-09)
(-1.98901e-08 0 -8.59982e-09)
(-1.77315e-08 0 -8.37403e-09)
(-1.58341e-08 0 -6.75468e-09)
(-1.35092e-08 0 -7.12383e-09)
(-1.0753e-08 0 -9.2323e-09)
(-8.75485e-09 0 -7.70511e-09)
(-6.64268e-09 0 -7.33221e-09)
(-4.52111e-09 0 -7.78136e-09)
(-2.58109e-09 0 -7.13837e-09)
(-7.51466e-10 0 -6.85285e-09)
(9.95097e-10 0 -6.55363e-09)
(2.67089e-09 0 -6.31648e-09)
(4.27404e-09 0 -6.09267e-09)
(5.82762e-09 0 -5.93432e-09)
(7.35915e-09 0 -5.82284e-09)
(8.87262e-09 0 -5.77437e-09)
(1.03811e-08 0 -5.75822e-09)
(1.19138e-08 0 -5.81208e-09)
(1.34777e-08 0 -5.9208e-09)
(1.50858e-08 0 -6.07957e-09)
(1.6757e-08 0 -6.25098e-09)
(1.8552e-08 0 -6.55722e-09)
(2.04012e-08 0 -6.84157e-09)
(2.23756e-08 0 -7.15967e-09)
(2.45002e-08 0 -7.48563e-09)
(2.6687e-08 0 -7.85714e-09)
(2.90347e-08 0 -8.19698e-09)
(3.14918e-08 0 -8.54574e-09)
(3.40901e-08 0 -8.83186e-09)
(3.67786e-08 0 -9.11307e-09)
(3.95621e-08 0 -9.29457e-09)
(4.24206e-08 0 -9.41493e-09)
(4.53257e-08 0 -9.45189e-09)
(4.82545e-08 0 -9.36371e-09)
(5.11597e-08 0 -9.17625e-09)
(5.40122e-08 0 -8.85035e-09)
(5.67801e-08 0 -8.39293e-09)
(5.9405e-08 0 -7.75878e-09)
(6.18431e-08 0 -7.07655e-09)
(6.40511e-08 0 -6.17507e-09)
(6.59811e-08 0 -5.16688e-09)
(6.76235e-08 0 -4.02729e-09)
(6.89079e-08 0 -2.83529e-09)
(6.98133e-08 0 -1.53561e-09)
(7.03338e-08 0 -1.86928e-10)
(7.04252e-08 0 1.21583e-09)
(7.00918e-08 0 2.62557e-09)
(6.93253e-08 0 4.01792e-09)
(6.81384e-08 0 5.35885e-09)
(6.6555e-08 0 6.60249e-09)
(6.46017e-08 0 7.72646e-09)
(6.23017e-08 0 8.67096e-09)
(5.96999e-08 0 9.41727e-09)
(5.68471e-08 0 9.97623e-09)
(5.3772e-08 0 1.02191e-08)
(5.04687e-08 0 1.0195e-08)
(4.68575e-08 0 9.91148e-09)
(4.2721e-08 0 9.59668e-09)
(3.80273e-08 0 9.93938e-09)
(3.27428e-08 0 1.34013e-08)
(9.16683e-09 0 7.05257e-08)
(-1.90969e-10 0 6.58965e-08)
(7.50196e-15 0 -4.64001e-14)
(3.382e-16 0 -3.12261e-17)
(6.83954e-16 0 -1.78051e-17)
(7.05182e-16 0 -4.35304e-18)
(7.28994e-16 0 8.81981e-18)
(7.48723e-16 0 2.15481e-17)
(7.64056e-16 0 3.36663e-17)
(7.7513e-16 0 4.50607e-17)
(7.8211e-16 0 5.56796e-17)
(7.85243e-16 0 6.54507e-17)
(7.84746e-16 0 7.43015e-17)
(7.80745e-16 0 8.22424e-17)
(7.73466e-16 0 8.93045e-17)
(7.63105e-16 0 9.54463e-17)
(7.49829e-16 0 1.00771e-16)
(7.33885e-16 0 1.0529e-16)
(7.15449e-16 0 1.09043e-16)
(6.94821e-16 0 1.12135e-16)
(6.72312e-16 0 1.14554e-16)
(6.48075e-16 0 1.16426e-16)
(6.2234e-16 0 1.17801e-16)
(5.95353e-16 0 1.18721e-16)
(5.67301e-16 0 1.1929e-16)
(5.38422e-16 0 1.19579e-16)
(5.08902e-16 0 1.19569e-16)
(4.78834e-16 0 1.19414e-16)
(4.48363e-16 0 1.19083e-16)
(4.17644e-16 0 1.18607e-16)
(3.86707e-16 0 1.1808e-16)
(3.55626e-16 0 1.17501e-16)
(3.24513e-16 0 1.1686e-16)
(2.93432e-16 0 1.16219e-16)
(2.62371e-16 0 1.15578e-16)
(2.31321e-16 0 1.14926e-16)
(2.00333e-16 0 1.14327e-16)
(1.69417e-16 0 1.13789e-16)
(1.38604e-16 0 1.13293e-16)
(1.07854e-16 0 1.129e-16)
(7.71449e-17 0 1.12528e-16)
(4.65186e-17 0 1.12238e-16)
(1.5613e-17 0 1.12042e-16)
(-1.72066e-09 0 1.90792e-08)
(-8.01046e-09 0 1.85852e-08)
(-1.27497e-08 0 1.75473e-08)
(-1.72668e-08 0 1.60168e-08)
(-2.12847e-08 0 1.40928e-08)
(-2.47254e-08 0 1.18485e-08)
(-2.75136e-08 0 9.37926e-09)
(-2.96061e-08 0 6.79246e-09)
(-3.09936e-08 0 4.19635e-09)
(-3.16928e-08 0 1.64647e-09)
(-3.17343e-08 0 -7.94051e-10)
(-3.12073e-08 0 -3.20089e-09)
(-3.0143e-08 0 -5.06918e-09)
(-2.87268e-08 0 -6.79433e-09)
(-2.7111e-08 0 -7.25632e-09)
(-2.53677e-08 0 -5.98617e-09)
(-2.30351e-08 0 -1.02331e-08)
(-2.02585e-08 0 -1.16239e-08)
(-1.80687e-08 0 -1.03705e-08)
(-1.61374e-08 0 -7.57224e-09)
(-1.32205e-08 0 -1.20809e-08)
(-1.05878e-08 0 -1.09057e-08)
(-8.48736e-09 0 -1.00455e-08)
(-6.3146e-09 0 -9.58873e-09)
(-4.12422e-09 0 -1.00755e-08)
(-2.25079e-09 0 -9.11922e-09)
(-4.08741e-10 0 -8.78172e-09)
(1.3039e-09 0 -8.37923e-09)
(2.93071e-09 0 -8.05363e-09)
(4.48352e-09 0 -7.75233e-09)
(5.99325e-09 0 -7.5529e-09)
(7.45889e-09 0 -7.39643e-09)
(8.89842e-09 0 -7.32418e-09)
(1.03418e-08 0 -7.3173e-09)
(1.18097e-08 0 -7.37672e-09)
(1.33242e-08 0 -7.52633e-09)
(1.48677e-08 0 -7.72176e-09)
(1.64898e-08 0 -7.98186e-09)
(1.825e-08 0 -8.36713e-09)
(2.0067e-08 0 -8.73425e-09)
(2.19833e-08 0 -9.17221e-09)
(2.40985e-08 0 -9.60819e-09)
(2.62714e-08 0 -1.00931e-08)
(2.86342e-08 0 -1.05698e-08)
(3.11254e-08 0 -1.10302e-08)
(3.37662e-08 0 -1.14403e-08)
(3.6518e-08 0 -1.18042e-08)
(3.93722e-08 0 -1.20751e-08)
(4.23333e-08 0 -1.22523e-08)
(4.53519e-08 0 -1.23228e-08)
(4.84132e-08 0 -1.22442e-08)
(5.14658e-08 0 -1.19936e-08)
(5.44702e-08 0 -1.16095e-08)
(5.73908e-08 0 -1.10244e-08)
(6.01646e-08 0 -1.02061e-08)
(6.27689e-08 0 -9.31524e-09)
(6.51298e-08 0 -8.14135e-09)
(6.72137e-08 0 -6.83191e-09)
(6.89717e-08 0 -5.36192e-09)
(7.03803e-08 0 -3.75994e-09)
(7.13443e-08 0 -2.06719e-09)
(7.19179e-08 0 -2.87176e-10)
(7.20291e-08 0 1.56895e-09)
(7.16861e-08 0 3.42336e-09)
(7.08911e-08 0 5.27302e-09)
(6.9626e-08 0 7.05826e-09)
(6.79151e-08 0 8.70108e-09)
(6.57958e-08 0 1.0224e-08)
(6.33097e-08 0 1.15099e-08)
(6.04715e-08 0 1.25716e-08)
(5.73442e-08 0 1.33531e-08)
(5.40028e-08 0 1.38198e-08)
(5.04939e-08 0 1.39804e-08)
(4.68843e-08 0 1.39393e-08)
(4.32564e-08 0 1.40029e-08)
(3.99624e-08 0 1.47506e-08)
(3.62449e-08 0 1.79669e-08)
(8.53179e-09 0 9.62643e-08)
(-1.89036e-10 0 7.52609e-08)
(7.44693e-15 0 -5.9696e-14)
(3.4607e-16 0 -4.0232e-17)
(6.99598e-16 0 -2.21891e-17)
(7.20557e-16 0 -4.37372e-18)
(7.43894e-16 0 1.28937e-17)
(7.62991e-16 0 2.94787e-17)
(7.77529e-16 0 4.52261e-17)
(7.87724e-16 0 5.99809e-17)
(7.93752e-16 0 7.36708e-17)
(7.95872e-16 0 8.62336e-17)
(7.94331e-16 0 9.76177e-17)
(7.89296e-16 0 1.07792e-16)
(7.80972e-16 0 1.16808e-16)
(7.69609e-16 0 1.24615e-16)
(7.55392e-16 0 1.31336e-16)
(7.38548e-16 0 1.37012e-16)
(7.19316e-16 0 1.41706e-16)
(6.97934e-16 0 1.45522e-16)
(6.74711e-16 0 1.4852e-16)
(6.49875e-16 0 1.50785e-16)
(6.23601e-16 0 1.52418e-16)
(5.96149e-16 0 1.53494e-16)
(5.67756e-16 0 1.54114e-16)
(5.38567e-16 0 1.54393e-16)
(5.08778e-16 0 1.543e-16)
(4.78514e-16 0 1.54e-16)
(4.47877e-16 0 1.53473e-16)
(4.17033e-16 0 1.5277e-16)
(3.86014e-16 0 1.51953e-16)
(3.54902e-16 0 1.51095e-16)
(3.23779e-16 0 1.50206e-16)
(2.92657e-16 0 1.49306e-16)
(2.61596e-16 0 1.48345e-16)
(2.30597e-16 0 1.47455e-16)
(1.99661e-16 0 1.46618e-16)
(1.68807e-16 0 1.45832e-16)
(1.38056e-16 0 1.45129e-16)
(1.07378e-16 0 1.44529e-16)
(7.6752e-17 0 1.44012e-16)
(4.6198e-17 0 1.43599e-16)
(1.54683e-17 0 1.43309e-16)
(-1.94518e-09 0 2.44177e-08)
(-8.9339e-09 0 2.36848e-08)
(-1.4215e-08 0 2.22939e-08)
(-1.92361e-08 0 2.02742e-08)
(-2.36674e-08 0 1.77732e-08)
(-2.73986e-08 0 1.48518e-08)
(-3.03556e-08 0 1.16643e-08)
(-3.25211e-08 0 8.33717e-09)
(-3.3878e-08 0 4.99823e-09)
(-3.44323e-08 0 1.73418e-09)
(-3.42677e-08 0 -1.40809e-09)
(-3.35011e-08 0 -4.4179e-09)
(-3.2055e-08 0 -6.37733e-09)
(-3.04334e-08 0 -9.18616e-09)
(-2.89001e-08 0 -9.03218e-09)
(-2.66099e-08 0 -8.37137e-09)
(-2.33918e-08 0 -1.31108e-08)
(-2.08161e-08 0 -1.41603e-08)
(-1.85603e-08 0 -1.27601e-08)
(-1.61715e-08 0 -9.87039e-09)
(-1.27893e-08 0 -1.53998e-08)
(-1.03906e-08 0 -1.31343e-08)
(-8.09688e-09 0 -1.23939e-08)
(-5.82699e-09 0 -1.20392e-08)
(-3.63487e-09 0 -1.213e-08)
(-1.79781e-09 0 -1.11537e-08)
(2.60885e-11 0 -1.06691e-08)
(1.69526e-09 0 -1.01578e-08)
(3.26643e-09 0 -9.72517e-09)
(4.76365e-09 0 -9.36521e-09)
(6.20071e-09 0 -9.10174e-09)
(7.58363e-09 0 -8.89446e-09)
(8.95575e-09 0 -8.80676e-09)
(1.03142e-08 0 -8.79744e-09)
(1.16926e-08 0 -8.8792e-09)
(1.31473e-08 0 -9.05624e-09)
(1.458e-08 0 -9.28407e-09)
(1.61476e-08 0 -9.67413e-09)
(1.7828e-08 0 -1.01195e-08)
(1.96071e-08 0 -1.05883e-08)
(2.14892e-08 0 -1.11495e-08)
(2.35609e-08 0 -1.17279e-08)
(2.57774e-08 0 -1.23262e-08)
(2.81147e-08 0 -1.29615e-08)
(3.06316e-08 0 -1.35504e-08)
(3.33115e-08 0 -1.41029e-08)
(3.61494e-08 0 -1.45668e-08)
(3.90824e-08 0 -1.49571e-08)
(4.21664e-08 0 -1.52151e-08)
(4.53412e-08 0 -1.53344e-08)
(4.8558e-08 0 -1.5274e-08)
(5.17933e-08 0 -1.4994e-08)
(5.50093e-08 0 -1.45548e-08)
(5.81361e-08 0 -1.38133e-08)
(6.11184e-08 0 -1.28605e-08)
(6.39345e-08 0 -1.17525e-08)
(6.64952e-08 0 -1.0268e-08)
(6.87634e-08 0 -8.66245e-09)
(7.06914e-08 0 -6.82905e-09)
(7.22427e-08 0 -4.81475e-09)
(7.33355e-08 0 -2.65449e-09)
(7.39608e-08 0 -4.65272e-10)
(7.41343e-08 0 1.91847e-09)
(7.37804e-08 0 4.25205e-09)
(7.29146e-08 0 6.58472e-09)
(7.15516e-08 0 8.85247e-09)
(6.97065e-08 0 1.09919e-08)
(6.74063e-08 0 1.29007e-08)
(6.46683e-08 0 1.45723e-08)
(6.15479e-08 0 1.59909e-08)
(5.81071e-08 0 1.70472e-08)
(5.44166e-08 0 1.77175e-08)
(5.06159e-08 0 1.79669e-08)
(4.6911e-08 0 1.7864e-08)
(4.35741e-08 0 1.75819e-08)
(4.12572e-08 0 1.73788e-08)
(3.67264e-08 0 2.37158e-08)
(5.61985e-09 0 1.25513e-07)
(-1.87085e-10 0 8.04165e-08)
(7.35969e-15 0 -7.27422e-14)
(3.56298e-16 0 -4.92069e-17)
(7.19823e-16 0 -2.64491e-17)
(7.40254e-16 0 -4.11522e-18)
(7.62847e-16 0 1.74432e-17)
(7.81065e-16 0 3.8009e-17)
(7.94559e-16 0 5.74684e-17)
(8.03575e-16 0 7.56974e-17)
(8.08362e-16 0 9.25512e-17)
(8.09179e-16 0 1.07978e-16)
(8.06305e-16 0 1.21895e-16)
(7.99935e-16 0 1.34293e-16)
(7.90288e-16 0 1.45232e-16)
(7.77643e-16 0 1.54745e-16)
(7.62237e-16 0 1.62841e-16)
(7.44266e-16 0 1.69613e-16)
(7.23969e-16 0 1.75207e-16)
(7.01646e-16 0 1.79674e-16)
(6.77575e-16 0 1.83148e-16)
(6.51963e-16 0 1.85743e-16)
(6.25038e-16 0 1.87553e-16)
(5.97059e-16 0 1.88732e-16)
(5.68211e-16 0 1.89342e-16)
(5.38619e-16 0 1.89497e-16)
(5.08499e-16 0 1.8928e-16)
(4.77986e-16 0 1.88752e-16)
(4.47143e-16 0 1.87956e-16)
(4.16124e-16 0 1.86953e-16)
(3.85011e-16 0 1.85816e-16)
(3.53878e-16 0 1.84637e-16)
(3.22735e-16 0 1.83396e-16)
(2.91581e-16 0 1.82114e-16)
(2.60521e-16 0 1.80873e-16)
(2.29594e-16 0 1.79653e-16)
(1.98741e-16 0 1.78506e-16)
(1.67949e-16 0 1.7742e-16)
(1.37291e-16 0 1.76458e-16)
(1.06727e-16 0 1.7561e-16)
(7.62144e-17 0 1.74918e-16)
(4.58155e-17 0 1.7437e-16)
(1.53235e-17 0 1.73966e-16)
(-2.24128e-09 0 3.04927e-08)
(-1.01406e-08 0 2.9515e-08)
(-1.61376e-08 0 2.76974e-08)
(-2.17852e-08 0 2.51037e-08)
(-2.67167e-08 0 2.18868e-08)
(-3.08119e-08 0 1.81633e-08)
(-3.40007e-08 0 1.41139e-08)
(-3.62285e-08 0 9.92026e-09)
(-3.74898e-08 0 5.71461e-09)
(-3.78325e-08 0 1.62683e-09)
(-3.75116e-08 0 -2.51638e-09)
(-3.62346e-08 0 -5.3568e-09)
(-3.44164e-08 0 -8.90272e-09)
(-3.27188e-08 0 -1.1394e-08)
(-3.09266e-08 0 -9.38303e-09)
(-2.78775e-08 0 -1.2894e-08)
(-2.38971e-08 0 -1.64884e-08)
(-2.15131e-08 0 -1.71134e-08)
(-1.92173e-08 0 -1.43451e-08)
(-1.60435e-08 0 -1.30806e-08)
(-1.2003e-08 0 -1.90468e-08)
(-1.01549e-08 0 -1.53135e-08)
(-7.57729e-09 0 -1.4755e-08)
(-5.15177e-09 0 -1.47114e-08)
(-3.01547e-09 0 -1.40984e-08)
(-1.19395e-09 0 -1.31692e-08)
(5.77583e-10 0 -1.25008e-08)
(2.1912e-09 0 -1.18764e-08)
(3.69764e-09 0 -1.1334e-08)
(5.10183e-09 0 -1.08882e-08)
(6.4382e-09 0 -1.05515e-08)
(7.73275e-09 0 -1.03088e-08)
(9.00329e-09 0 -1.01958e-08)
(1.02631e-08 0 -1.01777e-08)
(1.15316e-08 0 -1.02895e-08)
(1.28927e-08 0 -1.05005e-08)
(1.42424e-08 0 -1.07599e-08)
(1.57184e-08 0 -1.12796e-08)
(1.72886e-08 0 -1.18151e-08)
(1.90609e-08 0 -1.23935e-08)
(2.08705e-08 0 -1.30881e-08)
(2.28799e-08 0 -1.3838e-08)
(2.51345e-08 0 -1.45512e-08)
(2.74347e-08 0 -1.536e-08)
(2.9994e-08 0 -1.6112e-08)
(3.2718e-08 0 -1.68334e-08)
(3.56547e-08 0 -1.74366e-08)
(3.8733e-08 0 -1.79524e-08)
(4.19485e-08 0 -1.83341e-08)
(4.53007e-08 0 -1.85221e-08)
(4.8727e-08 0 -1.84953e-08)
(5.21902e-08 0 -1.82201e-08)
(5.56374e-08 0 -1.77198e-08)
(5.90111e-08 0 -1.68466e-08)
(6.22695e-08 0 -1.57642e-08)
(6.53495e-08 0 -1.43925e-08)
(6.81639e-08 0 -1.26575e-08)
(7.06762e-08 0 -1.06881e-08)
(7.28223e-08 0 -8.47836e-09)
(7.45338e-08 0 -6.02957e-09)
(7.57937e-08 0 -3.36366e-09)
(7.65422e-08 0 -6.62253e-10)
(7.67248e-08 0 2.20633e-09)
(7.63741e-08 0 5.10258e-09)
(7.5463e-08 0 7.96998e-09)
(7.39934e-08 0 1.08544e-08)
(7.19727e-08 0 1.33794e-08)
(6.94458e-08 0 1.57966e-08)
(6.64256e-08 0 1.79556e-08)
(6.29447e-08 0 1.97542e-08)
(5.9078e-08 0 2.11404e-08)
(5.49298e-08 0 2.2024e-08)
(5.0642e-08 0 2.23247e-08)
(4.6511e-08 0 2.19328e-08)
(4.30916e-08 0 2.08307e-08)
(4.04485e-08 0 1.95023e-08)
(2.18868e-08 0 4.6689e-08)
(2.99826e-09 0 1.57862e-07)
(-1.84094e-10 0 8.00592e-08)
(7.2186e-15 0 -8.53647e-14)
(3.68849e-16 0 -5.79957e-17)
(7.4468e-16 0 -3.04402e-17)
(7.64439e-16 0 -3.42246e-18)
(7.86018e-16 0 2.2582e-17)
(8.03037e-16 0 4.73458e-17)
(8.15238e-16 0 7.07033e-17)
(8.22817e-16 0 9.24995e-17)
(8.26033e-16 0 1.12631e-16)
(8.25206e-16 0 1.30963e-16)
(8.20636e-16 0 1.47455e-16)
(8.12633e-16 0 1.62096e-16)
(8.01414e-16 0 1.74938e-16)
(7.87197e-16 0 1.86074e-16)
(7.7026e-16 0 1.95494e-16)
(7.50925e-16 0 2.03321e-16)
(7.29377e-16 0 2.09711e-16)
(7.05875e-16 0 2.14767e-16)
(6.8077e-16 0 2.18634e-16)
(6.54269e-16 0 2.21457e-16)
(6.26579e-16 0 2.23401e-16)
(5.97928e-16 0 2.24569e-16)
(5.68511e-16 0 2.25066e-16)
(5.38495e-16 0 2.24993e-16)
(5.08023e-16 0 2.24549e-16)
(4.7719e-16 0 2.2369e-16)
(4.46099e-16 0 2.22563e-16)
(4.14893e-16 0 2.21188e-16)
(3.83688e-16 0 2.19689e-16)
(3.52472e-16 0 2.18066e-16)
(3.21256e-16 0 2.1637e-16)
(2.90144e-16 0 2.14653e-16)
(2.59135e-16 0 2.13009e-16)
(2.28219e-16 0 2.11396e-16)
(1.97438e-16 0 2.09856e-16)
(1.6677e-16 0 2.08429e-16)
(1.36247e-16 0 2.07147e-16)
(1.05858e-16 0 2.0603e-16)
(7.55216e-17 0 2.0511e-16)
(4.52675e-17 0 2.04396e-16)
(1.50857e-17 0 2.03869e-16)
(-2.63843e-09 0 3.75262e-08)
(-1.17063e-08 0 3.62653e-08)
(-1.8602e-08 0 3.39313e-08)
(-2.50386e-08 0 3.06364e-08)
(-3.06078e-08 0 2.6531e-08)
(-3.51373e-08 0 2.1841e-08)
(-3.85777e-08 0 1.67455e-08)
(-4.08479e-08 0 1.15117e-08)
(-4.19336e-08 0 6.31967e-09)
(-4.22296e-08 0 8.74543e-10)
(-4.13884e-08 0 -3.21488e-09)
(-3.94578e-08 0 -7.13853e-09)
(-3.74044e-08 0 -1.19488e-08)
(-3.58408e-08 0 -1.3006e-08)
(-3.29737e-08 0 -1.0511e-08)
(-2.86963e-08 0 -1.85486e-08)
(-2.50037e-08 0 -1.98474e-08)
(-2.22195e-08 0 -2.00511e-08)
(-1.98111e-08 0 -1.38554e-08)
(-1.48401e-08 0 -2.26065e-08)
(-1.19744e-08 0 -1.90224e-08)
(-9.39569e-09 0 -1.84422e-08)
(-6.91357e-09 0 -1.70059e-08)
(-4.20553e-09 0 -1.77336e-08)
(-2.33089e-09 0 -1.59268e-08)
(-4.02779e-10 0 -1.51544e-08)
(1.28068e-09 0 -1.42861e-08)
(2.82206e-09 0 -1.35122e-08)
(4.22196e-09 0 -1.28498e-08)
(5.52539e-09 0 -1.23079e-08)
(6.75355e-09 0 -1.18997e-08)
(7.91898e-09 0 -1.16141e-08)
(9.06886e-09 0 -1.14706e-08)
(1.02093e-08 0 -1.14514e-08)
(1.13641e-08 0 -1.15888e-08)
(1.2564e-08 0 -1.18229e-08)
(1.38375e-08 0 -1.21479e-08)
(1.51968e-08 0 -1.2783e-08)
(1.66736e-08 0 -1.34229e-08)
(1.83263e-08 0 -1.41402e-08)
(2.01007e-08 0 -1.49632e-08)
(2.20349e-08 0 -1.58989e-08)
(2.42172e-08 0 -1.68125e-08)
(2.66308e-08 0 -1.77401e-08)
(2.91651e-08 0 -1.87241e-08)
(3.19667e-08 0 -1.96404e-08)
(3.49867e-08 0 -2.04415e-08)
(3.82539e-08 0 -2.10871e-08)
(4.16046e-08 0 -2.16261e-08)
(4.51644e-08 0 -2.19269e-08)
(4.88449e-08 0 -2.19654e-08)
(5.25998e-08 0 -2.17151e-08)
(5.63471e-08 0 -2.11735e-08)
(6.00391e-08 0 -2.01589e-08)
(6.36271e-08 0 -1.89777e-08)
(6.70246e-08 0 -1.73118e-08)
(7.01356e-08 0 -1.53242e-08)
(7.2946e-08 0 -1.29778e-08)
(7.53588e-08 0 -1.03572e-08)
(7.73043e-08 0 -7.39271e-09)
(7.8747e-08 0 -4.2837e-09)
(7.96283e-08 0 -9.96561e-10)
(7.99006e-08 0 2.53048e-09)
(7.95397e-08 0 5.98157e-09)
(7.85604e-08 0 9.51371e-09)
(7.69651e-08 0 1.28312e-08)
(7.47704e-08 0 1.604e-08)
(7.19717e-08 0 1.90044e-08)
(6.86059e-08 0 2.16653e-08)
(6.47235e-08 0 2.39334e-08)
(6.03629e-08 0 2.57232e-08)
(5.55872e-08 0 2.6915e-08)
(5.0509e-08 0 2.73731e-08)
(4.54215e-08 0 2.67351e-08)
(4.12071e-08 0 2.44321e-08)
(4.09633e-08 0 1.8631e-08)
(9.15501e-09 0 8.66686e-08)
(1.05675e-09 0 1.33943e-07)
(-1.80563e-10 0 8.06839e-08)
(7.07522e-15 0 -9.74808e-14)
(3.83891e-16 0 -6.66087e-17)
(7.74386e-16 0 -3.40075e-17)
(7.93277e-16 0 -2.10931e-18)
(8.13615e-16 0 2.85481e-17)
(8.29187e-16 0 5.77269e-17)
(8.39712e-16 0 8.51583e-17)
(8.45492e-16 0 1.10677e-16)
(8.46826e-16 0 1.34138e-16)
(8.44014e-16 0 1.55458e-16)
(8.37448e-16 0 1.74587e-16)
(8.27439e-16 0 1.91513e-16)
(8.14256e-16 0 2.06268e-16)
(7.98178e-16 0 2.18913e-16)
(7.79473e-16 0 2.29574e-16)
(7.58463e-16 0 2.38373e-16)
(7.35415e-16 0 2.45466e-16)
(7.10579e-16 0 2.50987e-16)
(6.84265e-16 0 2.55165e-16)
(6.5673e-16 0 2.58111e-16)
(6.2814e-16 0 2.60055e-16)
(5.98713e-16 0 2.61079e-16)
(5.68635e-16 0 2.61348e-16)
(5.38091e-16 0 2.60976e-16)
(5.07186e-16 0 2.60138e-16)
(4.76001e-16 0 2.58856e-16)
(4.44661e-16 0 2.57253e-16)
(4.1327e-16 0 2.55433e-16)
(3.81889e-16 0 2.53427e-16)
(3.50559e-16 0 2.51266e-16)
(3.19323e-16 0 2.49043e-16)
(2.88221e-16 0 2.46851e-16)
(2.57264e-16 0 2.44649e-16)
(2.26441e-16 0 2.42571e-16)
(1.95763e-16 0 2.40565e-16)
(1.6524e-16 0 2.38724e-16)
(1.34913e-16 0 2.3706e-16)
(1.047e-16 0 2.35633e-16)
(7.45807e-17 0 2.34444e-16)
(4.45644e-17 0 2.33534e-16)
(1.47859e-17 0 2.32913e-16)
(-3.14731e-09 0 4.57839e-08)
(-1.36996e-08 0 4.41699e-08)
(-2.17545e-08 0 4.11852e-08)
(-2.91691e-08 0 3.70164e-08)
(-3.55204e-08 0 3.18115e-08)
(-4.05857e-08 0 2.58975e-08)
(-4.4248e-08 0 1.96079e-08)
(-4.65021e-08 0 1.30467e-08)
(-4.7651e-08 0 6.25461e-09)
(-4.74707e-08 0 4.9623e-10)
(-4.58357e-08 0 -4.48284e-09)
(-4.33929e-08 0 -1.01501e-08)
(-4.16908e-08 0 -1.54594e-08)
(-3.89036e-08 0 -1.23966e-08)
(-3.46968e-08 0 -1.72274e-08)
(-2.97972e-08 0 -2.23082e-08)
(-2.68225e-08 0 -2.45048e-08)
(-2.27746e-08 0 -2.22189e-08)
(-1.93123e-08 0 -1.59758e-08)
(-1.36146e-08 0 -2.8552e-08)
(-1.19053e-08 0 -2.12173e-08)
(-8.44185e-09 0 -2.12007e-08)
(-5.80876e-09 0 -2.01108e-08)
(-3.23634e-09 0 -1.97767e-08)
(-1.36948e-09 0 -1.80678e-08)
(5.35117e-10 0 -1.70295e-08)
(2.13819e-09 0 -1.59807e-08)
(3.56523e-09 0 -1.50326e-08)
(4.85524e-09 0 -1.4242e-08)
(6.02885e-09 0 -1.36043e-08)
(7.11811e-09 0 -1.31098e-08)
(8.14297e-09 0 -1.27712e-08)
(9.14056e-09 0 -1.26029e-08)
(1.01267e-08 0 -1.25872e-08)
(1.11376e-08 0 -1.27475e-08)
(1.21413e-08 0 -1.29582e-08)
(1.33681e-08 0 -1.34982e-08)
(1.45644e-08 0 -1.41238e-08)
(1.59077e-08 0 -1.49261e-08)
(1.74027e-08 0 -1.58234e-08)
(1.92007e-08 0 -1.67596e-08)
(2.10337e-08 0 -1.7895e-08)
(2.31444e-08 0 -1.90533e-08)
(2.55516e-08 0 -2.02129e-08)
(2.8199e-08 0 -2.13352e-08)
(3.1035e-08 0 -2.25229e-08)
(3.4155e-08 0 -2.35772e-08)
(3.7543e-08 0 -2.4444e-08)
(4.11973e-08 0 -2.50817e-08)
(4.49479e-08 0 -2.55901e-08)
(4.89258e-08 0 -2.57385e-08)
(5.29981e-08 0 -2.55387e-08)
(5.70918e-08 0 -2.49019e-08)
(6.11785e-08 0 -2.3911e-08)
(6.51755e-08 0 -2.25581e-08)
(6.89608e-08 0 -2.05821e-08)
(7.2471e-08 0 -1.83145e-08)
(7.56518e-08 0 -1.5606e-08)
(7.83922e-08 0 -1.25222e-08)
(8.06297e-08 0 -9.02562e-09)
(8.23009e-08 0 -5.33215e-09)
(8.33132e-08 0 -1.41153e-09)
(8.36681e-08 0 2.75e-09)
(8.3339e-08 0 6.91698e-09)
(8.22956e-08 0 1.10343e-08)
(8.05668e-08 0 1.50864e-08)
(7.8151e-08 0 1.89305e-08)