0.010101 	8.37245e-09 	1.05845e-13 	3.71921e-11
0.020202 	9.06417e-10 	-2.06822e-13 	1.32815e-11
