0 	-14.8785
0.010101 	-7.46081
0.020202 	-7.29841
0.030303 	-8.57335
0.040404 	-9.54982
0.0505051 	-9.60103
0.0606061 	-9.60397
0.0707071 	-9.60416
0.0808081 	-9.60417
0.0909091 	-9.60417
