0 	-3.62956e-21 	0 	1.45182e-20
0.010101 	2.72443e-20 	3.38622e-22 	-3.63978e-20
0.020202 	6.43362e-20 	-2.36558e-22 	-4.73162e-20
0.030303 	-6.31325e-20 	-3.36237e-23 	-5.50131e-20
0.040404 	7.10389e-20 	2.36729e-22 	-6.01219e-20
0.0505051 	-3.37361e-20 	1.35176e-22 	4.64924e-20
