/*--------------------------------*- C++ -*----------------------------------*\
  =========                 |
  \\      /  F ield         | OpenFOAM: The Open Source CFD Toolbox
   \\    /   O peration     | Website:  https://openfoam.org
    \\  /    A nd           | Version:  6
     \\/     M anipulation  |
\*---------------------------------------------------------------------------*/
FoamFile
{
    version     2.0;
    format      ascii;
    class       volVectorField;
    location    "8100";
    object      U;
}
// * * * * * * * * * * * * * * * * * * * * * * * * * * * * * * * * * * * * * //

dimensions      [0 1 -1 0 0 0 0];

internalField   nonuniform List<vector> 
4800
(
(3.43179e-08 0 -3.22129e-08)
(9.90682e-08 0 -3.48003e-08)
(1.64148e-07 0 -3.54948e-08)
(2.28184e-07 0 -3.49277e-08)
(2.90184e-07 0 -3.38195e-08)
(3.49976e-07 0 -3.24157e-08)
(4.07331e-07 0 -3.07996e-08)
(4.62065e-07 0 -2.90885e-08)
(5.1408e-07 0 -2.73206e-08)
(5.63337e-07 0 -2.55744e-08)
(6.09841e-07 0 -2.38409e-08)
(6.53606e-07 0 -2.21654e-08)
(6.94674e-07 0 -2.05897e-08)
(7.33076e-07 0 -1.90328e-08)
(7.68779e-07 0 -1.74968e-08)
(8.01691e-07 0 -1.59239e-08)
(8.31681e-07 0 -1.43064e-08)
(8.58955e-07 0 -1.30987e-08)
(8.8365e-07 0 -1.16771e-08)
(9.05373e-07 0 -1.00128e-08)
(9.23836e-07 0 -8.11697e-09)
(9.39278e-07 0 -7.18835e-09)
(9.51997e-07 0 -5.44957e-09)
(9.61609e-07 0 -3.79259e-09)
(9.67983e-07 0 -2.33889e-09)
(9.71423e-07 0 -8.01359e-10)
(9.71916e-07 0 5.95671e-10)
(9.69857e-07 0 1.88596e-09)
(9.651e-07 0 3.2011e-09)
(9.57919e-07 0 4.36935e-09)
(9.48568e-07 0 5.40421e-09)
(9.37228e-07 0 6.348e-09)
(9.24124e-07 0 7.17158e-09)
(9.095e-07 0 7.85805e-09)
(8.9358e-07 0 8.44179e-09)
(8.76529e-07 0 8.96449e-09)
(8.58532e-07 0 9.37544e-09)
(8.39749e-07 0 9.72672e-09)
(8.20339e-07 0 9.98545e-09)
(8.00438e-07 0 1.01886e-08)
(7.80134e-07 0 1.03467e-08)
(7.59518e-07 0 1.04597e-08)
(7.38667e-07 0 1.05564e-08)
(7.17639e-07 0 1.05887e-08)
(6.96485e-07 0 1.06714e-08)
(6.75223e-07 0 1.06868e-08)
(6.53812e-07 0 1.07528e-08)
(6.32325e-07 0 1.06986e-08)
(6.10836e-07 0 1.07044e-08)
(5.8933e-07 0 1.06841e-08)
(5.67822e-07 0 1.06471e-08)
(5.46325e-07 0 1.06392e-08)
(5.2483e-07 0 1.05871e-08)
(5.03382e-07 0 1.05193e-08)
(4.82001e-07 0 1.04633e-08)
(4.60707e-07 0 1.03572e-08)
(4.39539e-07 0 1.02756e-08)
(4.18511e-07 0 1.01455e-08)
(3.97635e-07 0 1.00501e-08)
(3.76923e-07 0 9.90125e-09)
(3.56412e-07 0 9.73956e-09)
(3.36144e-07 0 9.57702e-09)
(3.16128e-07 0 9.40735e-09)
(2.96366e-07 0 9.22855e-09)
(2.7687e-07 0 9.03957e-09)
(2.57664e-07 0 8.8366e-09)
(2.38767e-07 0 8.6287e-09)
(2.20181e-07 0 8.41822e-09)
(2.01889e-07 0 8.22347e-09)
(1.83934e-07 0 7.98677e-09)
(1.66382e-07 0 7.74638e-09)
(1.49274e-07 0 7.49603e-09)
(1.32738e-07 0 7.19419e-09)
(1.17128e-07 0 6.72051e-09)
(1.03465e-07 0 6.01147e-09)
(9.40288e-08 0 4.56297e-09)
(9.2102e-08 0 -1.02652e-08)
(7.51209e-08 0 6.49315e-09)
(1.11489e-11 0 2.73887e-08)
(4.70629e-16 0 4.92158e-17)
(2.59979e-16 0 3.20533e-19)
(5.13224e-16 0 1.05466e-18)
(5.1037e-16 0 1.8198e-18)
(5.06028e-16 0 2.54358e-18)
(5.00258e-16 0 3.25702e-18)
(4.93144e-16 0 3.90843e-18)
(4.84728e-16 0 4.51847e-18)
(4.75153e-16 0 5.11818e-18)
(4.64534e-16 0 5.64551e-18)
(4.52943e-16 0 6.10046e-18)
(4.40474e-16 0 6.50371e-18)
(4.2726e-16 0 6.87594e-18)
(4.13373e-16 0 7.19647e-18)
(3.98918e-16 0 7.44463e-18)
(3.84008e-16 0 7.65142e-18)
(3.68695e-16 0 7.79618e-18)
(3.53123e-16 0 7.92026e-18)
(3.37314e-16 0 7.98229e-18)
(3.2138e-16 0 8.04433e-18)
(3.05364e-16 0 8.05467e-18)
(2.89275e-16 0 8.02365e-18)
(2.73197e-16 0 7.97195e-18)
(2.5716e-16 0 7.89958e-18)
(2.41206e-16 0 7.81686e-18)
(2.25345e-16 0 7.7238e-18)
(2.09649e-16 0 7.6204e-18)
(1.94129e-16 0 7.49633e-18)
(1.78733e-16 0 7.37225e-18)
(1.63461e-16 0 7.21715e-18)
(1.48386e-16 0 7.08273e-18)
(1.33486e-16 0 6.92764e-18)
(1.18773e-16 0 6.79322e-18)
(1.04245e-16 0 6.64846e-18)
(8.98525e-17 0 6.52439e-18)
(7.5625e-17 0 6.42099e-18)
(6.15216e-17 0 6.29691e-18)
(4.75319e-17 0 6.19352e-18)
(3.36559e-17 0 6.07978e-18)
(1.99144e-17 0 5.96604e-18)
(6.54507e-18 0 5.69721e-18)
(3.36639e-08 0 -9.98019e-08)
(1.0111e-07 0 -9.62761e-08)
(1.65351e-07 0 -9.40706e-08)
(2.29756e-07 0 -9.14278e-08)
(2.92019e-07 0 -8.8442e-08)
(3.52006e-07 0 -8.51278e-08)
(4.09506e-07 0 -8.15394e-08)
(4.64338e-07 0 -7.78082e-08)
(5.16414e-07 0 -7.39829e-08)
(5.65692e-07 0 -7.01459e-08)
(6.12187e-07 0 -6.63401e-08)
(6.55972e-07 0 -6.25638e-08)
(6.97081e-07 0 -5.88793e-08)
(7.35525e-07 0 -5.50189e-08)
(7.7127e-07 0 -5.10843e-08)
(8.04224e-07 0 -4.67647e-08)
(8.34292e-07 0 -4.22867e-08)
(8.61695e-07 0 -3.90312e-08)
(8.86527e-07 0 -3.49079e-08)
(9.08278e-07 0 -3.00027e-08)
(9.26815e-07 0 -2.44817e-08)
(9.42326e-07 0 -2.1716e-08)
(9.55074e-07 0 -1.66079e-08)
(9.64609e-07 0 -1.16518e-08)
(9.70931e-07 0 -7.40393e-09)
(9.74298e-07 0 -2.80715e-09)
(9.74667e-07 0 1.35198e-09)
(9.7245e-07 0 5.20294e-09)
(9.67497e-07 0 9.11844e-09)
(9.60117e-07 0 1.25977e-08)
(9.50557e-07 0 1.56928e-08)
(9.39003e-07 0 1.85105e-08)
(9.25682e-07 0 2.09936e-08)
(9.10848e-07 0 2.30575e-08)
(8.94721e-07 0 2.48654e-08)
(8.77475e-07 0 2.64219e-08)
(8.59314e-07 0 2.77008e-08)
(8.40394e-07 0 2.87824e-08)
(8.20864e-07 0 2.96004e-08)
(8.00855e-07 0 3.02545e-08)
(7.8045e-07 0 3.08271e-08)
(7.59761e-07 0 3.11897e-08)
(7.3887e-07 0 3.1525e-08)
(7.17802e-07 0 3.17277e-08)
(6.96591e-07 0 3.1991e-08)
(6.75311e-07 0 3.21349e-08)
(6.53906e-07 0 3.24021e-08)
(6.32411e-07 0 3.23398e-08)
(6.109e-07 0 3.23933e-08)
(5.8939e-07 0 3.24272e-08)
(5.67873e-07 0 3.24081e-08)
(5.46354e-07 0 3.24861e-08)
(5.2484e-07 0 3.24597e-08)
(5.03366e-07 0 3.23599e-08)
(4.8196e-07 0 3.23086e-08)
(4.60646e-07 0 3.21183e-08)
(4.39448e-07 0 3.19939e-08)
(4.18395e-07 0 3.17715e-08)
(3.9749e-07 0 3.16435e-08)
(3.76757e-07 0 3.13522e-08)
(3.56228e-07 0 3.10316e-08)
(3.35954e-07 0 3.06904e-08)
(3.15934e-07 0 3.03544e-08)
(2.96165e-07 0 2.99975e-08)
(2.76662e-07 0 2.96237e-08)
(2.57459e-07 0 2.92006e-08)
(2.38541e-07 0 2.88191e-08)
(2.19909e-07 0 2.84068e-08)
(2.01602e-07 0 2.79869e-08)
(1.83645e-07 0 2.74675e-08)
(1.66025e-07 0 2.69474e-08)
(1.4877e-07 0 2.63316e-08)
(1.31906e-07 0 2.55638e-08)
(1.15411e-07 0 2.44537e-08)
(9.8966e-08 0 2.22229e-08)
(8.2966e-08 0 1.66628e-08)
(5.32916e-08 0 8.16246e-10)
(3.39939e-08 0 6.45528e-08)
(1.08664e-11 0 6.38535e-08)
(4.73633e-16 0 1.44153e-16)
(2.60777e-16 0 9.09899e-19)
(5.14734e-16 0 3.17431e-18)
(5.11849e-16 0 5.46973e-18)
(5.07465e-16 0 7.68244e-18)
(5.01623e-16 0 9.81243e-18)
(4.94406e-16 0 1.1808e-17)
(4.85938e-16 0 1.36795e-17)
(4.7628e-16 0 1.54476e-17)
(4.65517e-16 0 1.70296e-17)
(4.53802e-16 0 1.84254e-17)
(4.41249e-16 0 1.96766e-17)
(4.27942e-16 0 2.07622e-17)
(4.13932e-16 0 2.16618e-17)
(3.99363e-16 0 2.24269e-17)
(3.8436e-16 0 2.30163e-17)
(3.68974e-16 0 2.34713e-17)
(3.5331e-16 0 2.38021e-17)
(3.37438e-16 0 2.39986e-17)
(3.21442e-16 0 2.4133e-17)
(3.05343e-16 0 2.41227e-17)
(2.89203e-16 0 2.40399e-17)
(2.73083e-16 0 2.38435e-17)
(2.57015e-16 0 2.35953e-17)
(2.4102e-16 0 2.32851e-17)
(2.25148e-16 0 2.29646e-17)
(2.09421e-16 0 2.26027e-17)
(1.9387e-16 0 2.21788e-17)
(1.78454e-16 0 2.17238e-17)
(1.63172e-16 0 2.12275e-17)
(1.48096e-16 0 2.07726e-17)
(1.33207e-16 0 2.02969e-17)
(1.18504e-16 0 1.9842e-17)
(1.03977e-16 0 1.9387e-17)
(8.96147e-17 0 1.89528e-17)
(7.53872e-17 0 1.85805e-17)
(6.12837e-17 0 1.8198e-17)
(4.73147e-17 0 1.78878e-17)
(3.34284e-17 0 1.76086e-17)
(1.95421e-17 0 1.73398e-17)
(6.29691e-18 0 1.69675e-17)
(3.35935e-08 0 -1.67872e-07)
(1.02482e-07 0 -1.66172e-07)
(1.67904e-07 0 -1.63443e-07)
(2.33585e-07 0 -1.59203e-07)
(2.96765e-07 0 -1.53896e-07)
(3.57388e-07 0 -1.47782e-07)
(4.15314e-07 0 -1.41108e-07)
(4.70364e-07 0 -1.34132e-07)
(5.22494e-07 0 -1.27047e-07)
(5.71738e-07 0 -1.1996e-07)
(6.18151e-07 0 -1.1297e-07)
(6.61812e-07 0 -1.06174e-07)
(7.02813e-07 0 -9.95702e-08)
(7.41201e-07 0 -9.27788e-08)
(7.76878e-07 0 -8.60258e-08)
(8.09795e-07 0 -7.82734e-08)
(8.39887e-07 0 -7.12746e-08)
(8.67486e-07 0 -6.56169e-08)
(8.92468e-07 0 -5.83454e-08)
(9.14224e-07 0 -5.00227e-08)
(9.32857e-07 0 -4.14342e-08)
(9.48561e-07 0 -3.61317e-08)
(9.61383e-07 0 -2.76646e-08)
(9.70753e-07 0 -1.93294e-08)
(9.76944e-07 0 -1.23148e-08)
(9.80127e-07 0 -4.39076e-09)
(9.80213e-07 0 2.45524e-09)
(9.77652e-07 0 9.00481e-09)
(9.72299e-07 0 1.55602e-08)
(9.64508e-07 0 2.13702e-08)
(9.54517e-07 0 2.65821e-08)
(9.42491e-07 0 3.1251e-08)
(9.28705e-07 0 3.53878e-08)
(9.13467e-07 0 3.87727e-08)
(8.9696e-07 0 4.17969e-08)
(8.79336e-07 0 4.43267e-08)
(8.60819e-07 0 4.64058e-08)
(8.4159e-07 0 4.81592e-08)
(8.21812e-07 0 4.94489e-08)
(8.01619e-07 0 5.04723e-08)
(7.81066e-07 0 5.14116e-08)
(7.60239e-07 0 5.19563e-08)
(7.39217e-07 0 5.24579e-08)
(7.18055e-07 0 5.28186e-08)
(6.9679e-07 0 5.3126e-08)
(6.75487e-07 0 5.33413e-08)
(6.54049e-07 0 5.37849e-08)
(6.32504e-07 0 5.37085e-08)
(6.10929e-07 0 5.37434e-08)
(5.89369e-07 0 5.37847e-08)
(5.67819e-07 0 5.3711e-08)
(5.46276e-07 0 5.37993e-08)
(5.24729e-07 0 5.37325e-08)
(5.032e-07 0 5.35224e-08)
(4.81728e-07 0 5.33975e-08)
(4.60357e-07 0 5.30495e-08)
(4.39112e-07 0 5.27637e-08)
(4.18035e-07 0 5.23297e-08)
(3.97091e-07 0 5.20285e-08)
(3.76319e-07 0 5.14819e-08)
(3.55751e-07 0 5.0878e-08)
(3.35431e-07 0 5.02398e-08)
(3.15355e-07 0 4.96269e-08)
(2.95543e-07 0 4.89577e-08)
(2.76016e-07 0 4.82431e-08)
(2.56781e-07 0 4.74785e-08)
(2.37834e-07 0 4.67458e-08)
(2.19197e-07 0 4.59497e-08)
(2.00869e-07 0 4.51313e-08)
(1.82866e-07 0 4.42405e-08)
(1.65181e-07 0 4.33376e-08)
(1.47784e-07 0 4.23401e-08)
(1.30593e-07 0 4.12198e-08)
(1.13463e-07 0 3.97522e-08)
(9.57842e-08 0 3.764e-08)
(7.75588e-08 0 3.5027e-08)
(4.85374e-08 0 3.20037e-08)
(2.92789e-08 0 7.88381e-08)
(1.09814e-11 0 8.63789e-08)
(4.84711e-16 0 2.32889e-16)
(2.62353e-16 0 1.37519e-18)
(5.17805e-16 0 5.3043e-18)
(5.14879e-16 0 9.15069e-18)
(5.1036e-16 0 1.29144e-17)
(5.04373e-16 0 1.64816e-17)
(4.97022e-16 0 1.98627e-17)
(4.88378e-16 0 2.3037e-17)
(4.78503e-16 0 2.59528e-17)
(4.67523e-16 0 2.85894e-17)
(4.55601e-16 0 3.09779e-17)
(4.42821e-16 0 3.30665e-17)
(4.29255e-16 0 3.48553e-17)
(4.15038e-16 0 3.63236e-17)
(4.00262e-16 0 3.75643e-17)
(3.85042e-16 0 3.85466e-17)
(3.69481e-16 0 3.93014e-17)
(3.53661e-16 0 3.97977e-17)
(3.37645e-16 0 4.01183e-17)
(3.21473e-16 0 4.02734e-17)
(3.05271e-16 0 4.02217e-17)
(2.89017e-16 0 4.00045e-17)
(2.72763e-16 0 3.96633e-17)
(2.56612e-16 0 3.92394e-17)
(2.40565e-16 0 3.865e-17)
(2.24652e-16 0 3.804e-17)
(2.08863e-16 0 3.73369e-17)
(1.9325e-16 0 3.65821e-17)
(1.77792e-16 0 3.57342e-17)
(1.6251e-16 0 3.48967e-17)
(1.47445e-16 0 3.40592e-17)
(1.32576e-16 0 3.32423e-17)
(1.17873e-16 0 3.23945e-17)
(1.03346e-16 0 3.16086e-17)
(8.9046e-17 0 3.08435e-17)
(7.48599e-17 0 3.01404e-17)
(6.08185e-17 0 2.952e-17)
(4.69425e-17 0 2.89927e-17)
(3.30872e-17 0 2.85481e-17)
(1.9263e-17 0 2.81965e-17)
(6.18318e-18 0 2.79794e-17)
(3.44439e-08 0 -2.36413e-07)
(1.0553e-07 0 -2.33992e-07)
(1.7234e-07 0 -2.29784e-07)
(2.39473e-07 0 -2.23497e-07)
(3.03794e-07 0 -2.15702e-07)
(3.65211e-07 0 -2.06814e-07)
(4.23614e-07 0 -1.97189e-07)
(4.7889e-07 0 -1.87221e-07)
(5.31061e-07 0 -1.77171e-07)
(5.80205e-07 0 -1.67221e-07)
(6.26465e-07 0 -1.57489e-07)
(6.69983e-07 0 -1.48097e-07)
(7.10873e-07 0 -1.3892e-07)
(7.49195e-07 0 -1.29631e-07)
(7.84836e-07 0 -1.20244e-07)
(8.17851e-07 0 -1.09193e-07)
(8.48081e-07 0 -1.00333e-07)
(8.76026e-07 0 -9.20478e-08)
(9.01242e-07 0 -8.19293e-08)
(9.23149e-07 0 -6.96729e-08)
(9.41874e-07 0 -5.88895e-08)
(9.5793e-07 0 -5.03243e-08)
(9.70844e-07 0 -3.8585e-08)
(9.80014e-07 0 -2.68127e-08)
(9.86023e-07 0 -1.70699e-08)
(9.88919e-07 0 -5.55457e-09)
(9.88596e-07 0 3.91653e-09)
(9.85495e-07 0 1.33083e-08)
(9.79551e-07 0 2.25323e-08)
(9.7113e-07 0 3.06897e-08)
(9.60475e-07 0 3.80201e-08)
(9.47754e-07 0 4.46226e-08)
(9.3327e-07 0 5.03107e-08)
(9.17387e-07 0 5.50002e-08)
(9.00264e-07 0 5.92467e-08)
(8.82072e-07 0 6.27214e-08)
(8.63056e-07 0 6.55673e-08)
(8.43386e-07 0 6.79375e-08)
(8.23237e-07 0 6.96564e-08)
(8.02711e-07 0 7.10529e-08)
(7.81874e-07 0 7.22836e-08)
(7.60875e-07 0 7.3012e-08)
(7.39736e-07 0 7.36561e-08)
(7.18453e-07 0 7.41696e-08)
(6.97058e-07 0 7.45313e-08)
(6.75687e-07 0 7.47959e-08)
(6.54254e-07 0 7.545e-08)
(6.32686e-07 0 7.53585e-08)
(6.11028e-07 0 7.5357e-08)
(5.89412e-07 0 7.54504e-08)
(5.67826e-07 0 7.53058e-08)
(5.46206e-07 0 7.54789e-08)
(5.24584e-07 0 7.5437e-08)
(5.0299e-07 0 7.51227e-08)
(4.81447e-07 0 7.4977e-08)
(4.60032e-07 0 7.4464e-08)
(4.38704e-07 0 7.40706e-08)
(4.17528e-07 0 7.35003e-08)
(3.96492e-07 0 7.30858e-08)
(3.75678e-07 0 7.23146e-08)
(3.55056e-07 0 7.14873e-08)
(3.34667e-07 0 7.06177e-08)
(3.14547e-07 0 6.97253e-08)
(2.94712e-07 0 6.87619e-08)
(2.75163e-07 0 6.77586e-08)
(2.55888e-07 0 6.67367e-08)
(2.36893e-07 0 6.57023e-08)
(2.18211e-07 0 6.46303e-08)
(1.99857e-07 0 6.34917e-08)
(1.81821e-07 0 6.22796e-08)
(1.64056e-07 0 6.10878e-08)
(1.46572e-07 0 5.9802e-08)
(1.29302e-07 0 5.84601e-08)
(1.12086e-07 0 5.70522e-08)
(9.45509e-08 0 5.5639e-08)
(7.75825e-08 0 5.44746e-08)
(5.55588e-08 0 5.62166e-08)
(2.98758e-08 0 9.78515e-08)
(1.1437e-11 0 1.06468e-07)
(4.86068e-16 0 3.13714e-16)
(2.64763e-16 0 1.83014e-18)
(5.2252e-16 0 7.43429e-18)
(5.19459e-16 0 1.29247e-17)
(5.14786e-16 0 1.82497e-17)
(5.08561e-16 0 2.33265e-17)
(5.00951e-16 0 2.81448e-17)
(4.92038e-16 0 3.25909e-17)
(4.81843e-16 0 3.67165e-17)
(4.70552e-16 0 4.04388e-17)
(4.58289e-16 0 4.37682e-17)
(4.45127e-16 0 4.66737e-17)
(4.31209e-16 0 4.91862e-17)
(4.16661e-16 0 5.12542e-17)
(4.01586e-16 0 5.29499e-17)
(3.86087e-16 0 5.42941e-17)
(3.70246e-16 0 5.53177e-17)
(3.54147e-16 0 5.59898e-17)
(3.37893e-16 0 5.63827e-17)
(3.21525e-16 0 5.65275e-17)
(3.05085e-16 0 5.64034e-17)
(2.88645e-16 0 5.60415e-17)
(2.72308e-16 0 5.55659e-17)
(2.56012e-16 0 5.48834e-17)
(2.3982e-16 0 5.40459e-17)
(2.23814e-16 0 5.30947e-17)
(2.07943e-16 0 5.204e-17)
(1.92278e-16 0 5.09233e-17)
(1.768e-16 0 4.97239e-17)
(1.61497e-16 0 4.85245e-17)
(1.46411e-16 0 4.73044e-17)
(1.31532e-16 0 4.6105e-17)
(1.16881e-16 0 4.49056e-17)
(1.02426e-16 0 4.37682e-17)
(8.81568e-17 0 4.26929e-17)
(7.40844e-17 0 4.16692e-17)
(6.01567e-17 0 4.08007e-17)
(4.63428e-17 0 4.00459e-17)
(3.26116e-17 0 3.94152e-17)
(1.89631e-17 0 3.89499e-17)
(6.07978e-18 0 3.8681e-17)
(3.57263e-08 0 -3.07503e-07)
(1.09715e-07 0 -3.04092e-07)
(1.78592e-07 0 -2.98179e-07)
(2.47678e-07 0 -2.8953e-07)
(3.1351e-07 0 -2.7883e-07)
(3.75914e-07 0 -2.66778e-07)
(4.34885e-07 0 -2.53886e-07)
(4.90379e-07 0 -2.40669e-07)
(5.42508e-07 0 -2.27476e-07)
(5.91469e-07 0 -2.1454e-07)
(6.37478e-07 0 -2.02025e-07)
(6.80706e-07 0 -1.90138e-07)
(7.21485e-07 0 -1.78195e-07)
(7.59638e-07 0 -1.66774e-07)
(7.95186e-07 0 -1.5451e-07)
(8.2855e-07 0 -1.39654e-07)
(8.5898e-07 0 -1.30209e-07)
(8.87451e-07 0 -1.19238e-07)
(9.12909e-07 0 -1.05661e-07)
(9.35254e-07 0 -8.81651e-08)
(9.54026e-07 0 -7.86045e-08)
(9.70685e-07 0 -6.43078e-08)
(9.83482e-07 0 -4.93281e-08)
(9.92494e-07 0 -3.43225e-08)
(9.9832e-07 0 -2.15441e-08)
(1.00078e-06 0 -6.26389e-09)
(9.99897e-07 0 5.84162e-09)
(9.96081e-07 0 1.8383e-08)
(9.89311e-07 0 3.01735e-08)
(9.80013e-07 0 4.0754e-08)
(9.68429e-07 0 5.02721e-08)
(9.54742e-07 0 5.88435e-08)
(9.39326e-07 0 6.59956e-08)
(9.22546e-07 0 7.19596e-08)
(9.04573e-07 0 7.73953e-08)
(8.85623e-07 0 8.16965e-08)
(8.65928e-07 0 8.52767e-08)
(8.45674e-07 0 8.8143e-08)
(8.25051e-07 0 9.02305e-08)
(8.04129e-07 0 9.19719e-08)
(7.82962e-07 0 9.33476e-08)
(7.61696e-07 0 9.42045e-08)
(7.40348e-07 0 9.49618e-08)
(7.18911e-07 0 9.5608e-08)
(6.97413e-07 0 9.6017e-08)
(6.75972e-07 0 9.60907e-08)
(6.54503e-07 0 9.70934e-08)
(6.32939e-07 0 9.71372e-08)
(6.11181e-07 0 9.69707e-08)
(5.89437e-07 0 9.71081e-08)
(5.67799e-07 0 9.6958e-08)
(5.46118e-07 0 9.71561e-08)
(5.24425e-07 0 9.7135e-08)
(5.0277e-07 0 9.67207e-08)
(4.81123e-07 0 9.65445e-08)
(4.59598e-07 0 9.59189e-08)
(4.38158e-07 0 9.54227e-08)
(4.16887e-07 0 9.46934e-08)
(3.95746e-07 0 9.40965e-08)
(3.74844e-07 0 9.31153e-08)
(3.54145e-07 0 9.20616e-08)
(3.33695e-07 0 9.09243e-08)
(3.13508e-07 0 8.97864e-08)
(2.93595e-07 0 8.85612e-08)
(2.73984e-07 0 8.72547e-08)
(2.54667e-07 0 8.59905e-08)
(2.35645e-07 0 8.46284e-08)
(2.1693e-07 0 8.32315e-08)
(1.9855e-07 0 8.17744e-08)
(1.80462e-07 0 8.02863e-08)
(1.6266e-07 0 7.87941e-08)
(1.45166e-07 0 7.72325e-08)
(1.27954e-07 0 7.5678e-08)
(1.1103e-07 0 7.42243e-08)
(9.42e-08 0 7.31851e-08)
(7.85077e-08 0 7.28236e-08)
(5.91085e-08 0 7.5792e-08)
(3.05528e-08 0 1.25802e-07)
(1.14887e-11 0 1.28865e-07)
(4.92694e-16 0 3.92105e-16)
(2.6801e-16 0 2.30577e-18)
(5.2891e-16 0 9.63666e-18)
(5.25694e-16 0 1.68538e-17)
(5.20762e-16 0 2.38021e-17)
(5.14258e-16 0 3.04713e-17)
(5.06276e-16 0 3.67475e-17)
(4.9696e-16 0 4.25378e-17)
(4.86351e-16 0 4.78627e-17)
(4.74585e-16 0 5.26811e-17)
(4.61836e-16 0 5.69617e-17)
(4.48208e-16 0 6.0684e-17)
(4.33815e-16 0 6.3848e-17)
(4.18802e-16 0 6.6526e-17)
(4.03313e-16 0 6.8656e-17)
(3.8741e-16 0 7.03e-17)
(3.71177e-16 0 7.15408e-17)
(3.54716e-16 0 7.23576e-17)
(3.38151e-16 0 7.28126e-17)
(3.21515e-16 0 7.2885e-17)
(3.04816e-16 0 7.26575e-17)
(2.88159e-16 0 7.21922e-17)
(2.71584e-16 0 7.14684e-17)
(2.55103e-16 0 7.04861e-17)
(2.38786e-16 0 6.93591e-17)
(2.22646e-16 0 6.80563e-17)
(2.06681e-16 0 6.66397e-17)
(1.90934e-16 0 6.51198e-17)
(1.75404e-16 0 6.35378e-17)
(1.6009e-16 0 6.19041e-17)
(1.45015e-16 0 6.02705e-17)
(1.30157e-16 0 5.86678e-17)
(1.15547e-16 0 5.71065e-17)
(1.01154e-16 0 5.55865e-17)
(8.69574e-17 0 5.41597e-17)
(7.29884e-17 0 5.28465e-17)
(5.92055e-17 0 5.17091e-17)
(4.5557e-17 0 5.07062e-17)
(3.19809e-17 0 4.991e-17)
(1.85288e-17 0 4.9331e-17)
(5.92468e-18 0 4.90001e-17)
(3.74504e-08 0 -3.81934e-07)
(1.15243e-07 0 -3.77389e-07)
(1.8706e-07 0 -3.69437e-07)
(2.58753e-07 0 -3.57906e-07)
(3.26503e-07 0 -3.43701e-07)
(3.90131e-07 0 -3.27865e-07)
(4.49704e-07 0 -3.1119e-07)
(5.05304e-07 0 -2.94265e-07)
(5.5717e-07 0 -2.77676e-07)
(6.05717e-07 0 -2.61648e-07)
(6.5125e-07 0 -2.46336e-07)
(6.94053e-07 0 -2.31864e-07)
(7.34654e-07 0 -2.17252e-07)
(7.72384e-07 0 -2.04107e-07)
(8.07846e-07 0 -1.88607e-07)
(8.41538e-07 0 -1.71368e-07)
(8.72671e-07 0 -1.60345e-07)
(9.01825e-07 0 -1.46342e-07)
(9.27379e-07 0 -1.29486e-07)
(9.50338e-07 0 -1.08424e-07)
(9.69739e-07 0 -9.73521e-08)
(9.86844e-07 0 -7.86071e-08)
(9.99487e-07 0 -6.00038e-08)
(1.00844e-06 0 -4.18715e-08)
(1.01401e-06 0 -2.53587e-08)
(1.01584e-06 0 -6.41589e-09)
(1.01431e-06 0 8.58145e-09)
(1.00954e-06 0 2.43036e-08)
(1.00169e-06 0 3.88474e-08)
(9.91209e-07 0 5.17968e-08)
(9.78383e-07 0 6.37173e-08)
(9.63467e-07 0 7.41201e-08)
(9.46847e-07 0 8.27579e-08)
(9.28914e-07 0 8.99251e-08)
(9.09851e-07 0 9.64665e-08)
(8.89934e-07 0 1.01485e-07)
(8.69374e-07 0 1.05758e-07)
(8.4838e-07 0 1.08903e-07)
(8.27144e-07 0 1.11291e-07)
(8.05729e-07 0 1.13288e-07)
(7.8417e-07 0 1.1474e-07)
(7.62594e-07 0 1.15654e-07)
(7.41043e-07 0 1.16436e-07)
(7.19457e-07 0 1.17169e-07)
(6.97864e-07 0 1.17542e-07)
(6.76286e-07 0 1.1764e-07)
(6.54767e-07 0 1.18427e-07)
(6.33186e-07 0 1.19151e-07)
(6.11396e-07 0 1.18712e-07)
(5.89482e-07 0 1.18835e-07)
(5.67763e-07 0 1.18708e-07)
(5.46003e-07 0 1.18895e-07)
(5.24212e-07 0 1.18914e-07)
(5.02467e-07 0 1.18444e-07)
(4.80673e-07 0 1.18263e-07)
(4.59028e-07 0 1.17447e-07)
(4.37462e-07 0 1.16861e-07)
(4.16083e-07 0 1.15983e-07)
(3.94801e-07 0 1.15231e-07)
(3.73783e-07 0 1.13981e-07)
(3.52962e-07 0 1.12728e-07)
(3.32435e-07 0 1.11256e-07)
(3.12172e-07 0 1.09876e-07)
(2.92228e-07 0 1.08335e-07)
(2.72569e-07 0 1.06719e-07)
(2.53188e-07 0 1.05167e-07)
(2.34118e-07 0 1.03519e-07)
(2.15375e-07 0 1.0178e-07)
(1.96945e-07 0 1.00024e-07)
(1.78808e-07 0 9.82483e-08)
(1.6099e-07 0 9.64291e-08)
(1.43506e-07 0 9.45669e-08)
(1.2641e-07 0 9.2669e-08)
(1.09825e-07 0 9.08566e-08)
(9.34724e-08 0 8.96246e-08)
(7.92448e-08 0 8.82067e-08)
(6.29299e-08 0 9.14738e-08)
(3.17201e-08 0 1.57086e-07)
(1.15415e-11 0 1.49511e-07)
(5.03639e-16 0 4.70563e-16)
(2.72193e-16 0 2.81241e-18)
(5.37068e-16 0 1.19631e-17)
(5.33635e-16 0 2.09794e-17)
(5.28403e-16 0 2.96854e-17)
(5.21506e-16 0 3.79883e-17)
(5.13038e-16 0 4.57638e-17)
(5.03153e-16 0 5.29913e-17)
(4.91986e-16 0 5.95467e-17)
(4.79651e-16 0 6.54507e-17)
(4.66282e-16 0 7.06929e-17)
(4.52013e-16 0 7.52217e-17)
(4.37041e-16 0 7.90268e-17)
(4.21459e-16 0 8.22218e-17)
(4.05381e-16 0 8.4755e-17)
(3.88971e-16 0 8.66989e-17)
(3.72273e-16 0 8.80844e-17)
(3.55409e-16 0 8.89943e-17)
(3.38431e-16 0 8.94389e-17)
(3.21391e-16 0 8.94286e-17)
(3.04413e-16 0 8.9046e-17)
(2.87456e-16 0 8.83429e-17)
(2.70602e-16 0 8.73296e-17)
(2.53913e-16 0 8.60475e-17)
(2.37391e-16 0 8.45689e-17)
(2.21095e-16 0 8.28835e-17)
(2.05017e-16 0 8.10844e-17)
(1.89166e-16 0 7.91405e-17)
(1.73574e-16 0 7.71036e-17)
(1.5824e-16 0 7.50149e-17)
(1.43175e-16 0 7.29367e-17)
(1.28358e-16 0 7.0879e-17)
(1.13799e-16 0 6.89042e-17)
(9.94892e-17 0 6.6981e-17)
(8.54167e-17 0 6.51922e-17)
(7.16235e-17 0 6.35792e-17)
(5.80164e-17 0 6.21523e-17)
(4.45437e-17 0 6.09219e-17)
(3.12364e-17 0 5.99603e-17)
(1.80636e-17 0 5.92778e-17)
(5.74891e-18 0 5.88953e-17)
(3.97771e-08 0 -4.6064e-07)
(1.22666e-07 0 -4.54585e-07)
(1.9834e-07 0 -4.44018e-07)
(2.73425e-07 0 -4.28755e-07)
(3.43515e-07 0 -4.10207e-07)
(4.08469e-07 0 -3.89794e-07)
(4.68494e-07 0 -3.68675e-07)
(5.23956e-07 0 -3.4759e-07)
(5.75298e-07 0 -3.27277e-07)
(6.23025e-07 0 -3.08101e-07)
(6.67568e-07 0 -2.90229e-07)
(7.10047e-07 0 -2.72512e-07)
(7.49844e-07 0 -2.56962e-07)
(7.87134e-07 0 -2.40797e-07)
(8.23031e-07 0 -2.20913e-07)
(8.56685e-07 0 -2.05622e-07)
(8.89097e-07 0 -1.91276e-07)
(9.18701e-07 0 -1.74308e-07)
(9.44997e-07 0 -1.52438e-07)
(9.68505e-07 0 -1.30799e-07)
(9.89073e-07 0 -1.15964e-07)
(1.00657e-06 0 -9.32174e-08)
(1.01913e-06 0 -7.04493e-08)
(1.02806e-06 0 -4.96789e-08)
(1.03321e-06 0 -2.83764e-08)
(1.03423e-06 0 -6.04351e-09)
(1.03199e-06 0 1.22193e-08)
(1.02594e-06 0 3.1389e-08)
(1.01672e-06 0 4.89392e-08)
(1.00475e-06 0 6.42989e-08)
(9.90347e-07 0 7.8484e-08)
(9.73867e-07 0 9.08181e-08)
(9.55766e-07 0 1.00785e-07)
(9.36402e-07 0 1.0921e-07)
(9.1598e-07 0 1.16677e-07)
(8.94852e-07 0 1.22327e-07)
(8.73247e-07 0 1.27061e-07)
(8.51377e-07 0 1.30446e-07)
(8.29393e-07 0 1.32949e-07)
(8.07381e-07 0 1.35091e-07)
(7.8541e-07 0 1.36458e-07)
(7.63525e-07 0 1.37374e-07)
(7.41738e-07 0 1.38074e-07)
(7.19955e-07 0 1.38925e-07)
(6.98298e-07 0 1.39036e-07)
(6.76572e-07 0 1.39568e-07)
(6.55052e-07 0 1.39523e-07)
(6.33413e-07 0 1.41196e-07)
(6.11712e-07 0 1.40633e-07)
(5.89678e-07 0 1.40563e-07)
(5.67789e-07 0 1.40585e-07)
(5.45936e-07 0 1.40685e-07)
(5.24017e-07 0 1.40821e-07)
(5.02149e-07 0 1.40281e-07)
(4.80155e-07 0 1.40108e-07)
(4.58341e-07 0 1.39153e-07)
(4.36601e-07 0 1.38434e-07)
(4.15075e-07 0 1.37408e-07)
(3.93655e-07 0 1.3647e-07)
(3.72501e-07 0 1.35002e-07)
(3.51539e-07 0 1.3346e-07)
(3.30894e-07 0 1.31738e-07)
(3.1054e-07 0 1.30026e-07)
(2.90494e-07 0 1.28209e-07)
(2.70804e-07 0 1.26236e-07)
(2.51352e-07 0 1.24494e-07)
(2.32279e-07 0 1.22424e-07)
(2.13502e-07 0 1.20362e-07)
(1.95034e-07 0 1.18337e-07)
(1.76855e-07 0 1.16267e-07)
(1.58982e-07 0 1.14135e-07)
(1.41448e-07 0 1.11946e-07)
(1.24349e-07 0 1.09617e-07)
(1.08001e-07 0 1.07147e-07)
(9.20297e-08 0 1.04973e-07)
(7.90736e-08 0 1.00883e-07)
(5.52693e-08 0 1.17193e-07)
(2.75783e-08 0 2.00699e-07)
(1.17162e-11 0 1.63573e-07)
(5.18758e-16 0 5.39844e-16)
(2.77307e-16 0 3.30872e-18)
(5.47077e-16 0 1.43929e-17)
(5.43427e-16 0 2.53634e-17)
(5.37771e-16 0 3.5941e-17)
(5.30347e-16 0 4.59809e-17)
(5.21289e-16 0 5.53901e-17)
(5.10732e-16 0 6.40651e-17)
(4.98821e-16 0 7.19234e-17)
(4.85721e-16 0 7.89234e-17)
(4.71586e-16 0 8.50962e-17)
(4.56573e-16 0 9.03902e-17)
(4.40836e-16 0 9.48466e-17)
(4.2453e-16 0 9.84862e-17)
(4.078e-16 0 1.01381e-16)
(3.9075e-16 0 1.03563e-16)
(3.73482e-16 0 1.05093e-16)
(3.56081e-16 0 1.06003e-16)
(3.38596e-16 0 1.06334e-16)
(3.21112e-16 0 1.06179e-16)
(3.0371e-16 0 1.05569e-16)
(2.86432e-16 0 1.04556e-16)
(2.69309e-16 0 1.03222e-16)
(2.52352e-16 0 1.01578e-16)
(2.35622e-16 0 9.9696e-17)
(2.19162e-16 0 9.7566e-17)
(2.02918e-16 0 9.53222e-17)
(1.86943e-16 0 9.29027e-17)
(1.71278e-16 0 9.03902e-17)
(1.55913e-16 0 8.78259e-17)
(1.40869e-16 0 8.52513e-17)
(1.26114e-16 0 8.27181e-17)
(1.11638e-16 0 8.02882e-17)
(9.74419e-17 0 7.79618e-17)
(8.35349e-17 0 7.58008e-17)
(6.99278e-17 0 7.38259e-17)
(5.65481e-17 0 7.21302e-17)
(4.33649e-17 0 7.06826e-17)
(3.03472e-17 0 6.95452e-17)
(1.74742e-17 0 6.87491e-17)
(5.54211e-18 0 6.83148e-17)
(4.28753e-08 0 -5.45059e-07)
(1.32572e-07 0 -5.36951e-07)
(2.1327e-07 0 -5.22828e-07)
(2.92575e-07 0 -5.02675e-07)
(3.65437e-07 0 -4.78543e-07)
(4.31739e-07 0 -4.52447e-07)
(4.91962e-07 0 -4.25949e-07)
(5.46795e-07 0 -4.00194e-07)
(5.97007e-07 0 -3.75856e-07)
(6.43087e-07 0 -3.53714e-07)
(6.86694e-07 0 -3.3241e-07)
(7.28153e-07 0 -3.12987e-07)
(7.66852e-07 0 -2.95765e-07)
(8.03665e-07 0 -2.76789e-07)
(8.40283e-07 0 -2.54183e-07)
(8.74383e-07 0 -2.40581e-07)
(9.07898e-07 0 -2.22763e-07)
(9.3766e-07 0 -2.03202e-07)
(9.6625e-07 0 -1.73213e-07)
(9.89681e-07 0 -1.59793e-07)
(1.01255e-06 0 -1.32953e-07)
(1.02961e-06 0 -1.08348e-07)
(1.0427e-06 0 -8.10219e-08)
(1.05173e-06 0 -5.73618e-08)
(1.05636e-06 0 -2.96373e-08)
(1.05642e-06 0 -5.84319e-09)
(1.05308e-06 0 1.73005e-08)
(1.04551e-06 0 3.99741e-08)
(1.03458e-06 0 6.05145e-08)
(1.02075e-06 0 7.86017e-08)
(1.00435e-06 0 9.5018e-08)
(9.85889e-07 0 1.09223e-07)
(9.65978e-07 0 1.20485e-07)
(9.44859e-07 0 1.30075e-07)
(9.22805e-07 0 1.38262e-07)
(9.00223e-07 0 1.44428e-07)
(8.77361e-07 0 1.49426e-07)
(8.54494e-07 0 1.5284e-07)
(8.31695e-07 0 1.55331e-07)
(8.09003e-07 0 1.57421e-07)
(7.8657e-07 0 1.58552e-07)
(7.64366e-07 0 1.59394e-07)
(7.42342e-07 0 1.59896e-07)
(7.20385e-07 0 1.60772e-07)
(6.98709e-07 0 1.60619e-07)
(6.76927e-07 0 1.6155e-07)
(6.55375e-07 0 1.60651e-07)
(6.33568e-07 0 1.63242e-07)
(6.12084e-07 0 1.62761e-07)
(5.90003e-07 0 1.62297e-07)
(5.67782e-07 0 1.62675e-07)
(5.45838e-07 0 1.62566e-07)
(5.23783e-07 0 1.62884e-07)
(5.01779e-07 0 1.6234e-07)
(4.79567e-07 0 1.62145e-07)
(4.57567e-07 0 1.61069e-07)
(4.35599e-07 0 1.60158e-07)
(4.13853e-07 0 1.59021e-07)
(3.92264e-07 0 1.57855e-07)
(3.70951e-07 0 1.56248e-07)
(3.49873e-07 0 1.54276e-07)
(3.29065e-07 0 1.52276e-07)
(3.08625e-07 0 1.50284e-07)
(2.88542e-07 0 1.48085e-07)
(2.68721e-07 0 1.45905e-07)
(2.49223e-07 0 1.43749e-07)
(2.30124e-07 0 1.41345e-07)
(2.1132e-07 0 1.39003e-07)
(1.92823e-07 0 1.36695e-07)
(1.74588e-07 0 1.34354e-07)
(1.5662e-07 0 1.31926e-07)
(1.3894e-07 0 1.29415e-07)
(1.21613e-07 0 1.2671e-07)
(1.04869e-07 0 1.23634e-07)
(8.96074e-08 0 1.1975e-07)
(7.55192e-08 0 1.13627e-07)
(4.97543e-08 0 1.45406e-07)
(2.26501e-08 0 2.23655e-07)
(1.21935e-11 0 1.73564e-07)
(5.32517e-16 0 5.85365e-16)
(2.83489e-16 0 3.71197e-18)
(5.59122e-16 0 1.70089e-17)
(5.55173e-16 0 3.00887e-17)
(5.49031e-16 0 4.27032e-17)
(5.40966e-16 0 5.46353e-17)
(5.31102e-16 0 6.57505e-17)
(5.19687e-16 0 7.59352e-17)
(5.06865e-16 0 8.51066e-17)
(4.92824e-16 0 9.32439e-17)
(4.77738e-16 0 1.00337e-16)
(4.61763e-16 0 1.06365e-16)
(4.45147e-16 0 1.1139e-16)
(4.27994e-16 0 1.15474e-16)
(4.10457e-16 0 1.18638e-16)
(3.92683e-16 0 1.20965e-16)
(3.74713e-16 0 1.22536e-16)
(3.56649e-16 0 1.23364e-16)
(3.38606e-16 0 1.2356e-16)
(3.20626e-16 0 1.23178e-16)
(3.02758e-16 0 1.22288e-16)
(2.85077e-16 0 1.20923e-16)
(2.67624e-16 0 1.19186e-16)
(2.50377e-16 0 1.17098e-16)
(2.33399e-16 0 1.1474e-16)
(2.16732e-16 0 1.12135e-16)
(2.00333e-16 0 1.09333e-16)
(1.84244e-16 0 1.06406e-16)
(1.68497e-16 0 1.03356e-16)
(1.53101e-16 0 1.00275e-16)
(1.38077e-16 0 9.71834e-17)
(1.23384e-16 0 9.41435e-17)
(1.09043e-16 0 9.12174e-17)
(9.50017e-17 0 8.84463e-17)
(8.12705e-17 0 8.59027e-17)
(6.79322e-17 0 8.35763e-17)
(5.48524e-17 0 8.16221e-17)
(4.19691e-17 0 7.99367e-17)
(2.93029e-17 0 7.86235e-17)
(1.68124e-17 0 7.7724e-17)
(5.3043e-18 0 7.7238e-17)
(4.70208e-08 0 -6.3715e-07)
(1.45792e-07 0 -6.26257e-07)
(2.33151e-07 0 -6.07068e-07)
(3.17625e-07 0 -5.8032e-07)
(3.93688e-07 0 -5.48852e-07)
(4.61073e-07 0 -5.1555e-07)
(5.20939e-07 0 -4.82521e-07)
(5.74295e-07 0 -4.51379e-07)
(6.22183e-07 0 -4.22954e-07)
(6.66263e-07 0 -3.97018e-07)
(7.08397e-07 0 -3.7287e-07)
(7.47867e-07 0 -3.52864e-07)
(7.84595e-07 0 -3.34939e-07)
(8.22699e-07 0 -3.09477e-07)
(8.58354e-07 0 -2.92376e-07)
(8.94483e-07 0 -2.7478e-07)
(9.27954e-07 0 -2.56502e-07)
(9.59869e-07 0 -2.30363e-07)
(9.89926e-07 0 -2.01205e-07)
(1.01555e-06 0 -1.83735e-07)
(1.03928e-06 0 -1.52561e-07)
(1.05684e-06 0 -1.23448e-07)
(1.07056e-06 0 -9.28781e-08)
(1.07974e-06 0 -6.39281e-08)
(1.08371e-06 0 -3.10574e-08)
(1.08274e-06 0 -3.8255e-09)
(1.07785e-06 0 2.39367e-08)
(1.06845e-06 0 5.05387e-08)
(1.0554e-06 0 7.39988e-08)
(1.03924e-06 0 9.50872e-08)
(1.0204e-06 0 1.14014e-07)
(9.99581e-07 0 1.29573e-07)
(9.77429e-07 0 1.42134e-07)
(9.54138e-07 0 1.52875e-07)
(9.30143e-07 0 1.61472e-07)
(9.05843e-07 0 1.68165e-07)
(8.81566e-07 0 1.72857e-07)
(8.57559e-07 0 1.76207e-07)
(8.3384e-07 0 1.78579e-07)
(8.10429e-07 0 1.8024e-07)
(7.87524e-07 0 1.81034e-07)
(7.65033e-07 0 1.81577e-07)
(7.42785e-07 0 1.82145e-07)
(7.20749e-07 0 1.82471e-07)
(6.99003e-07 0 1.82325e-07)
(6.77314e-07 0 1.83121e-07)
(6.55611e-07 0 1.83002e-07)
(6.34013e-07 0 1.83702e-07)
(6.12341e-07 0 1.85448e-07)
(5.90491e-07 0 1.8437e-07)
(5.67947e-07 0 1.84796e-07)
(5.4581e-07 0 1.8463e-07)
(5.23583e-07 0 1.85057e-07)
(5.0135e-07 0 1.84711e-07)
(4.78957e-07 0 1.84253e-07)
(4.56641e-07 0 1.83365e-07)
(4.34468e-07 0 1.82062e-07)
(4.12381e-07 0 1.80988e-07)
(3.90706e-07 0 1.79222e-07)
(3.6912e-07 0 1.77664e-07)
(3.47884e-07 0 1.75389e-07)
(3.26955e-07 0 1.72876e-07)
(3.06349e-07 0 1.70615e-07)
(2.86171e-07 0 1.68154e-07)
(2.66324e-07 0 1.65556e-07)
(2.46768e-07 0 1.63042e-07)
(2.27675e-07 0 1.60316e-07)
(2.08857e-07 0 1.57671e-07)
(1.90312e-07 0 1.55077e-07)
(1.72033e-07 0 1.52482e-07)
(1.53998e-07 0 1.49809e-07)
(1.36129e-07 0 1.4705e-07)
(1.18404e-07 0 1.44106e-07)
(1.00748e-07 0 1.40743e-07)
(8.36348e-08 0 1.36439e-07)
(6.30917e-08 0 1.29608e-07)
(4.5346e-08 0 1.81818e-07)
(1.35175e-08 0 2.31392e-07)
(1.26495e-11 0 1.84387e-07)
(5.52871e-16 0 6.11199e-16)
(2.90926e-16 0 4.0842e-18)
(5.73453e-16 0 1.9873e-17)
(5.69111e-16 0 3.52793e-17)
(5.62317e-16 0 5.01065e-17)
(5.53394e-16 0 6.40548e-17)
(5.42579e-16 0 7.69898e-17)