/*--------------------------------*- C++ -*----------------------------------*\
  =========                 |
  \\      /  F ield         | OpenFOAM: The Open Source CFD Toolbox
   \\    /   O peration     | Website:  https://openfoam.org
    \\  /    A nd           | Version:  6
     \\/     M anipulation  |
\*---------------------------------------------------------------------------*/
FoamFile
{
    version     2.0;
    format      ascii;
    class       surfaceScalarField;
    location    "9400";
    object      phi;
}
// * * * * * * * * * * * * * * * * * * * * * * * * * * * * * * * * * * * * * //

dimensions      [0 3 -1 0 0 0 0];

internalField   nonuniform List<scalar> 
9440
(
3.82606e-13
-3.82605e-13
7.54003e-13
-3.71404e-13
1.11481e-12
-3.60814e-13
1.45322e-12
-3.38415e-13
1.76387e-12
-3.10651e-13
2.04402e-12
-2.80163e-13
2.29199e-12
-2.47969e-13
2.50721e-12
-2.15229e-13
2.69021e-12
-1.83007e-13
2.84227e-12
-1.52061e-13
2.96502e-12
-1.22765e-13
3.06037e-12
-9.5351e-14
3.13072e-12
-7.0355e-14
3.1779e-12
-4.719e-14
3.20424e-12
-2.63421e-14
3.21138e-12
-7.15041e-15
3.19767e-12
1.37057e-14
3.17196e-12
2.57045e-14
3.13339e-12
3.8566e-14
3.08405e-12
4.93297e-14
3.02223e-12
6.18144e-14
2.95387e-12
6.83537e-14
2.87966e-12
7.42023e-14
2.8003e-12
7.93621e-14
2.71783e-12
8.24669e-14
2.63248e-12
8.53449e-14
2.54568e-12
8.67865e-14
2.45901e-12
8.6666e-14
2.37283e-12
8.61825e-14
2.28761e-12
8.5211e-14
2.20403e-12
8.35724e-14
2.12257e-12
8.14562e-14
2.04344e-12
7.91245e-14
1.96697e-12
7.64685e-14
1.89337e-12
7.35945e-14
1.82238e-12
7.09855e-14
1.7542e-12
6.81842e-14
1.68854e-12
6.56583e-14
1.62543e-12
6.31026e-14
1.56475e-12
6.06817e-14
1.50626e-12
5.84843e-14
1.44981e-12
5.6445e-14
1.39527e-12
5.45386e-14
1.34258e-12
5.26861e-14
1.29136e-12
5.12253e-14
1.24165e-12
4.97067e-14
1.19293e-12
4.87125e-14
1.14561e-12
4.73183e-14
1.09937e-12
4.62426e-14
1.05422e-12
4.51479e-14
1.01012e-12
4.41048e-14
9.66791e-13
4.33238e-14
9.24264e-13
4.25278e-14
8.82596e-13
4.167e-14
8.41652e-13
4.09423e-14
8.01552e-13
4.00993e-14
7.62155e-13
3.93955e-14
7.23581e-13
3.85758e-14
6.85548e-13
3.80333e-14
6.48249e-13
3.72964e-14
6.11696e-13
3.65502e-14
5.75907e-13
3.57892e-14
5.4078e-13
3.51279e-14
5.06328e-13
3.4451e-14
4.72534e-13
3.37943e-14
4.39473e-13
3.30619e-14
4.07063e-13
3.24106e-14
3.75302e-13
3.17626e-14
3.44142e-13
3.11586e-14
3.13821e-13
3.03213e-14
2.84332e-13
2.94912e-14
2.55805e-13
2.85258e-14
2.28667e-13
2.71391e-14
2.03906e-13
2.47609e-14
1.8485e-13
1.90547e-14
1.82341e-13
2.51059e-15
2.31816e-13
-4.94756e-14
1.2561e-13
1.06208e-13
-7.28791e-19
1.25611e-13
8.80138e-22
3.97055e-23
8.81103e-22
2.06795e-25
8.78362e-22
2.74004e-24
8.72831e-22
5.37667e-24
8.64662e-22
8.11671e-24
8.53961e-22
1.07017e-23
8.40622e-22
1.30281e-23
8.25164e-22
1.53028e-23
8.07483e-22
1.74225e-23
7.87993e-22
1.92836e-23
7.66641e-22
2.0938e-23
7.43842e-22
2.24373e-23
7.19699e-22
2.3678e-23
6.94677e-22
2.47637e-23
6.6862e-22
2.55909e-23
6.41634e-22
2.62113e-23
6.14388e-22
2.68834e-23
5.86626e-22
2.72453e-23
5.58605e-22
2.75555e-23
5.3043e-22
2.76072e-23
5.02357e-22
2.76072e-23
4.7444e-22
2.75038e-23
4.46626e-22
2.74521e-23
4.18915e-22
2.7297e-23
3.91773e-22
2.71419e-23
3.64838e-22
2.69868e-23
3.38369e-22
2.67283e-23
3.12209e-22
2.65215e-23
2.86411e-22
2.6263e-23
2.61131e-22
2.61596e-23
2.36212e-22
2.60045e-23
2.11603e-22
2.59528e-23
1.87408e-22
2.57977e-23
1.63627e-22
2.58494e-23
1.39949e-22
2.57977e-23
1.16684e-22
2.59011e-23
9.34714e-23
2.60562e-23
7.03621e-23
2.62113e-23
4.73561e-23
2.63664e-23
2.4195e-23
2.68834e-23
2.80724e-23
3.91773e-13
-7.74386e-13
7.73607e-13
-7.5325e-13
1.13812e-12
-7.2534e-13
1.48022e-12
-6.80519e-13
1.79396e-12
-6.24406e-13
2.07578e-12
-5.61991e-13
2.32412e-12
-4.96322e-13
2.5388e-12
-4.29918e-13
2.7206e-12
-3.6481e-13
2.8709e-12
-3.02379e-13
2.9917e-12
-2.43573e-13
3.0851e-12
-1.88758e-13
3.15343e-12
-1.38701e-13
3.19846e-12
-9.2233e-14
3.22357e-12
-5.14643e-14
3.22682e-12
-1.04024e-14
3.21239e-12
2.81199e-14
3.18515e-12
5.29308e-14
3.14505e-12
7.8654e-14
3.09329e-12
1.01084e-13
3.03028e-12
1.24808e-13
2.96034e-12
1.38291e-13
2.88471e-12
1.49823e-13
2.80387e-12
1.60192e-13
2.72033e-12
1.65994e-13
2.63378e-12
1.71885e-13
2.54604e-12
1.74518e-13
2.45861e-12
1.74087e-13
2.37172e-12
1.7307e-13
2.28596e-12
1.70958e-13
2.202e-12
1.67527e-13
2.12026e-12
1.63199e-13
2.04091e-12
1.58459e-13
1.96436e-12
1.53009e-13
1.89054e-12
1.47407e-13
1.81965e-12
1.41876e-13
1.75149e-12
1.36335e-13
1.68605e-12
1.311e-13
1.62306e-12
1.26084e-13
1.56258e-12
1.21159e-13
1.50412e-12
1.16942e-13
1.44793e-12
1.12631e-13
1.39361e-12
1.08857e-13
1.34097e-12
1.05323e-13
1.28988e-12
1.02313e-13
1.24035e-12
9.92331e-14
1.19184e-12
9.72183e-14
1.14452e-12
9.46306e-14
1.0985e-12
9.22615e-14
1.05341e-12
9.02342e-14
1.00937e-12
8.81444e-14
9.66093e-13
8.66003e-14
9.23576e-13
8.50424e-14
8.8199e-13
8.32547e-14
8.41047e-13
8.1885e-14
8.00923e-13
8.02204e-14
7.61559e-13
7.87583e-14
7.22922e-13
7.72087e-14
6.84928e-13
7.60271e-14
6.47646e-13
7.45767e-14
6.11118e-13
7.30763e-14
5.75374e-13
7.1533e-14
5.40283e-13
7.02181e-14
5.05824e-13
6.89089e-14
4.72075e-13
6.75435e-14
4.39028e-13
6.61096e-14
4.06521e-13
6.49181e-14
3.74707e-13
6.35758e-14
3.43632e-13
6.22317e-14
3.13231e-13
6.07211e-14
2.8353e-13
5.91904e-14
2.54674e-13
5.738e-14
2.26709e-13
5.51047e-14
1.99678e-13
5.17945e-14
1.72723e-13
4.60086e-14
1.38571e-13
3.66626e-14
7.11385e-14
1.79592e-14
3.95167e-14
1.37829e-13
-3.17659e-19
1.65129e-13
8.80138e-22
-1.19114e-22
8.83636e-22
-2.58494e-25
8.80999e-22
5.27328e-24
8.75571e-22
1.0805e-23
8.67299e-22
1.60266e-23
8.56287e-22
2.10931e-23
8.42897e-22
2.60045e-23
8.27336e-22
3.0554e-23
8.09345e-22
3.45348e-23
7.89647e-22
3.84122e-23
7.68141e-22
4.15658e-23
7.45083e-22
4.45127e-23
7.20785e-22
4.70459e-23
6.95556e-22
4.92173e-23
6.69241e-22
5.08716e-23
6.42306e-22
5.22675e-23
6.14802e-22
5.33532e-23
5.86885e-22
5.41803e-23
5.58657e-22
5.46456e-23
5.3043e-22
5.48524e-23
5.02305e-22
5.51109e-23
4.74336e-22
5.51626e-23
4.46419e-22
5.50075e-23
4.18812e-22
5.4749e-23
3.91618e-22
5.45939e-23
3.64528e-22
5.4232e-23
3.38162e-22
5.40252e-23
3.11951e-22
5.37667e-23
2.8636e-22
5.36116e-23
2.60976e-22
5.35083e-23
2.36212e-22
5.34566e-23
2.11448e-22
5.35083e-23
1.87512e-22
5.38184e-23
1.63627e-22
5.40252e-23
1.40052e-22
5.43354e-23
1.16839e-22
5.46973e-23
9.36265e-23
5.50075e-23
7.05172e-23
5.54211e-23
4.78731e-23
5.58864e-23
2.52807e-23
5.64551e-23
5.68687e-23
4.07203e-13
-1.18159e-12
8.04895e-13
-1.15095e-12
1.18376e-12
-1.10422e-12
1.53639e-12
-1.03316e-12
1.85696e-12
-9.44981e-13
2.14238e-12
-8.47425e-13
2.39166e-12
-7.45607e-13
2.60515e-12
-6.43417e-13
2.78423e-12
-5.439e-13
2.93106e-12
-4.49213e-13
3.04771e-12
-3.60229e-13
3.13692e-12
-2.77977e-13
3.20086e-12
-2.02654e-13
3.24154e-12
-1.3292e-13
3.26333e-12
-7.32644e-14
3.25942e-12
-6.50079e-15
3.24296e-12
4.4564e-14
3.21201e-12
8.38779e-14
3.16874e-12
1.21906e-13
3.11182e-12
1.57995e-13
3.04619e-12
1.90433e-13
2.97321e-12
2.11256e-13
2.89448e-12
2.28548e-13
2.81082e-12
2.4384e-13
2.72509e-12
2.51722e-13
2.63597e-12
2.60994e-13
2.54652e-12
2.63959e-13
2.45746e-12
2.63141e-13
2.36918e-12
2.61345e-13
2.28239e-12
2.57738e-13
2.19763e-12
2.52284e-13
2.11526e-12
2.45563e-13
2.03551e-12
2.38195e-13
1.95886e-12
2.29657e-13
1.88511e-12
2.21149e-13
1.81421e-12
2.12771e-13
1.74625e-12
2.0429e-13
1.68088e-12
1.96467e-13
1.61827e-12
1.88689e-13
1.55814e-12
1.81281e-13
1.50009e-12
1.74993e-13
1.44414e-12
1.68575e-13
1.39016e-12
1.62839e-13
1.33779e-12
1.57685e-13
1.28703e-12
1.53073e-13
1.23781e-12
1.48453e-13
1.1895e-12
1.4552e-13
1.14239e-12
1.4174e-13
1.09645e-12
1.38205e-13
1.05146e-12
1.35221e-13
1.00753e-12
1.32067e-13
9.64406e-13
1.29726e-13
9.2191e-13
1.27536e-13
8.80293e-13
1.24872e-13
8.3935e-13
1.22826e-13
7.99311e-13
1.20259e-13
7.5997e-13
1.18098e-13
7.21403e-13
1.15773e-13
6.83426e-13
1.14003e-13
6.46161e-13
1.11842e-13
6.0968e-13
1.09556e-13
5.73826e-13
1.07383e-13
5.38699e-13
1.05348e-13
5.04311e-13
1.03297e-13
4.70565e-13
1.01286e-13
4.37437e-13
9.92386e-14
4.05028e-13
9.733e-14
3.73199e-13
9.54044e-14
3.4203e-13
9.34002e-14
3.11551e-13
9.11995e-14
2.81672e-13
8.90718e-14
2.52367e-13
8.66841e-14
2.23291e-13
8.41818e-14
1.94017e-13
8.10701e-14
1.62162e-13
7.78634e-14
1.23016e-13
7.58087e-14
6.11731e-14
7.98012e-14
3.51676e-14
1.63835e-13
-5.01079e-19
2.00297e-13
8.99991e-22
-1.45584e-22
8.89168e-22
-5.16988e-25
8.86531e-22
7.96161e-24
8.80741e-22
1.62334e-23
8.72365e-22
2.44018e-23
8.61147e-22
3.2105e-23
8.47447e-22
3.93428e-23
8.31317e-22
4.61153e-23
8.1317e-22
5.22675e-23
7.92853e-22
5.8006e-23
7.71088e-22
6.29691e-23
7.47616e-22
6.73118e-23
7.23008e-22
7.10858e-23
6.9721e-22
7.42395e-23
6.70585e-22
7.68244e-23
6.43443e-22
7.88924e-23
6.15578e-22
8.03916e-23
5.8735e-22
8.14773e-23
5.58916e-22
8.20977e-23
5.30636e-22
8.26664e-23
5.02409e-22
8.29766e-23
4.7413e-22
8.28732e-23
4.46264e-22
8.27181e-23
4.18605e-22
8.24079e-23
3.91256e-22
8.2046e-23
3.64321e-22
8.17875e-23
3.37903e-22
8.1529e-23
3.11795e-22
8.11671e-23
2.86205e-22
8.1012e-23
2.60976e-22
8.09086e-23
2.36212e-22
8.10637e-23
2.11758e-22
8.12705e-23
1.87718e-22
8.16841e-23
1.63937e-22
8.2046e-23
1.40414e-22
8.26664e-23
1.17098e-22
8.32351e-23
9.40401e-23
8.39588e-23
7.10341e-23
8.47343e-23
4.84418e-23
8.55098e-23
2.56943e-23
8.61302e-23
8.66472e-23
4.3512e-13
-1.61672e-12
8.56549e-13
-1.57239e-12
1.25604e-12
-1.50372e-12
1.62421e-12
-1.40134e-12
1.95449e-12
-1.27527e-12
2.24438e-12
-1.13732e-12
2.49394e-12
-9.95179e-13
2.70468e-12
-8.54168e-13
2.8791e-12
-7.18329e-13
3.01999e-12
-5.90101e-13
3.13036e-12
-4.70616e-13
3.21327e-12
-3.6089e-13
3.27035e-12
-2.59742e-13
3.30537e-12
-1.67948e-13
3.31955e-12
-8.74518e-14
3.30941e-12
3.62778e-15
3.28852e-12
6.54415e-14
3.25113e-12
1.21263e-13
3.20388e-12
1.69145e-13
3.13915e-12
2.22722e-13
3.06986e-12
2.59712e-13
2.99201e-12
2.89102e-13
2.90891e-12
3.11641e-13
2.82125e-12
3.31489e-13
2.7317e-12
3.41267e-13
2.63919e-12
3.53489e-13
2.54697e-12
3.5617e-13
2.45544e-12
3.5467e-13
2.36516e-12
3.5162e-13
2.27673e-12
3.46156e-13
2.19091e-12
3.381e-13
2.1076e-12
3.28868e-13
2.02727e-12
3.18514e-13
1.95045e-12
3.06477e-13
1.87655e-12
2.95041e-13
1.80588e-12
2.83435e-13
1.73815e-12
2.72019e-13
1.67322e-12
2.61387e-13
1.61102e-12
2.50885e-13
1.55125e-12
2.41042e-13
1.49381e-12
2.32436e-13
1.43842e-12
2.23953e-13
1.38498e-12
2.1628e-13
1.33311e-12
2.09549e-13
1.28265e-12
2.03529e-13
1.23396e-12
1.97147e-13
1.18615e-12
1.9333e-13
1.13919e-12
1.887e-13
1.0935e-12
1.83886e-13
1.04869e-12
1.80028e-13
1.00491e-12
1.75844e-13
9.61875e-13
1.72763e-13
9.19468e-13
1.69939e-13
8.77933e-13
1.66406e-13
8.37145e-13
1.63614e-13
7.97084e-13
1.60318e-13
7.57743e-13
1.57441e-13
7.19142e-13
1.54375e-13
6.81217e-13
1.51926e-13
6.44011e-13
1.49046e-13
6.07499e-13
1.46068e-13
5.71708e-13
1.43174e-13
5.36662e-13
1.40393e-13
5.02276e-13
1.37682e-13
4.68588e-13
1.34975e-13
4.35459e-13
1.32369e-13
4.02961e-13
1.29828e-13
3.71126e-13
1.27241e-13
3.39972e-13
1.24553e-13
3.0936e-13
1.21809e-13
2.79287e-13
1.19146e-13
2.49685e-13
1.16288e-13
2.20344e-13
1.13524e-13
1.90466e-13
1.10948e-13
1.59195e-13
1.09135e-13
1.2634e-13
1.08664e-13
9.33534e-14
1.12789e-13
3.96263e-14
2.17564e-13
1.30709e-19
2.39924e-13
8.93373e-22
-2.91169e-22
8.97698e-22
-7.75482e-25
8.94854e-22
1.07533e-23
8.88857e-22
2.20237e-23
8.80069e-22
3.28804e-23
8.68436e-22
4.33236e-23
8.54219e-22
5.31981e-23
8.3752e-22
6.23487e-23
8.18805e-22
7.07239e-23
7.97816e-22
7.82203e-23
7.7543e-22
8.49928e-23
7.51339e-22
9.06797e-23
7.26161e-22
9.57462e-23
6.99795e-22
9.98304e-23
6.72653e-22
1.03139e-22
6.44942e-22
1.05827e-22
6.16663e-22
1.0774e-22
5.88022e-22
1.09188e-22
5.59484e-22
1.1017e-22
5.30895e-22
1.10842e-22
5.02409e-22
1.11101e-22
4.73923e-22
1.10946e-22
4.45954e-22
1.10791e-22
4.18243e-22
1.10377e-22
3.90998e-22
1.10015e-22
3.64115e-22
1.09601e-22
3.37541e-22
1.09188e-22
3.1164e-22
1.09033e-22
2.86101e-22
1.08981e-22
2.61079e-22
1.09033e-22
2.36419e-22
1.09343e-22
2.12172e-22
1.09808e-22
1.8808e-22
1.10377e-22
1.64506e-22
1.11152e-22
1.40983e-22
1.12083e-22
1.17873e-22
1.13117e-22
9.48156e-23
1.14151e-22
7.17579e-23
1.15133e-22
4.90622e-23
1.16219e-22
2.6263e-23
1.16994e-22
1.1777e-22
4.74803e-13
-2.09153e-12
9.31115e-13
-2.02871e-12
1.3598e-12
-1.93241e-12
1.74934e-12
-1.7909e-12
2.09198e-12
-1.61792e-12
2.38626e-12
-1.4316e-12
2.6346e-12
-1.24353e-12
2.84027e-12
-1.05985e-12
3.00712e-12
-8.85182e-13
3.13934e-12
-7.22333e-13
3.24074e-12
-5.72027e-13
3.31458e-12
-4.34738e-13
3.36291e-12
-3.08069e-13
3.3908e-12
-1.95847e-13
3.39074e-12
-8.73996e-14
3.37745e-12
1.69094e-14
3.34899e-12
9.38945e-14
3.30399e-12
1.6625e-13
3.24823e-12
2.24893e-13
3.17645e-12
2.94497e-13
3.10095e-12
3.35207e-13
3.01659e-12
3.73451e-13
2.92731e-12
4.00916e-13
2.83471e-12
4.24085e-13
2.73963e-12
4.36336e-13
2.64277e-12
4.5034e-13
2.5469e-12
4.52033e-13
2.45213e-12
4.49439e-13
2.35905e-12
4.44689e-13
2.26876e-12
4.36442e-13
2.18132e-12
4.25535e-13
2.09693e-12
4.13253e-13
2.01609e-12
3.99344e-13
1.93879e-12
3.83771e-13
1.86483e-12
3.68992e-13
1.79457e-12
3.53695e-13
1.72716e-12
3.39423e-13
1.66284e-12
3.25703e-13
1.60138e-12
3.12345e-13
1.54232e-12
3.00089e-13
1.48557e-12
2.8919e-13
1.43095e-12
2.78565e-13
1.37813e-12
2.69099e-13
1.32688e-12
2.60799e-13
1.27704e-12
2.53357e-13
1.22873e-12
2.45455e-13
1.18182e-12
2.40239e-13
1.13509e-12
2.3543e-13
1.08957e-12
2.29403e-13
1.04503e-12
2.24567e-13
1.00144e-12
2.19428e-13
9.58583e-13
2.15622e-13
9.16406e-13
2.12115e-13
8.75e-13
2.07813e-13
8.34131e-13
2.04481e-13
7.94172e-13
2.00279e-13
7.54847e-13
1.96763e-13
7.16287e-13
1.92933e-13
6.78304e-13
1.89906e-13
6.41228e-13
1.86124e-13
6.04722e-13
1.82572e-13
5.69019e-13
1.78878e-13
5.3396e-13
1.75451e-13
4.99546e-13
1.72097e-13
4.65896e-13
1.68626e-13
4.32739e-13
1.65523e-13
4.00251e-13
1.62317e-13
3.6845e-13
1.59042e-13
3.37218e-13
1.55788e-13
3.06502e-13
1.52524e-13
2.76391e-13
1.49258e-13
2.46791e-13
1.45889e-13
2.17679e-13
1.42635e-13
1.8902e-13
1.39609e-13
1.6012e-13
1.38035e-13
1.32266e-13
1.36518e-13
1.03436e-13
1.41618e-13
4.29304e-14
2.78071e-13
-2.35133e-19
2.82854e-13
9.13226e-22
-2.51468e-22
9.09175e-22
-7.23783e-25
9.06073e-22
1.37519e-23
8.99766e-22
2.80724e-23
8.9046e-22
4.20311e-23
8.78311e-22
5.53177e-23
8.63318e-22
6.77254e-23
8.45896e-22
7.93576e-23
8.26302e-22
8.99042e-23
8.04588e-22
9.94168e-23
7.81117e-22
1.07689e-22
7.56353e-22
1.1503e-22
7.30245e-22
1.2113e-22
7.03155e-22
1.26145e-22
6.7529e-22
1.30333e-22
6.46907e-22
1.33538e-22
6.18111e-22
1.35968e-22
5.89004e-22
1.37726e-22
5.60156e-22
1.38915e-22
5.31102e-22
1.39483e-22
5.02254e-22
1.3969e-22
4.73768e-22
1.3969e-22
4.45592e-22
1.3938e-22
4.1783e-22
1.38966e-22
3.90584e-22
1.38553e-22
3.63649e-22
1.38139e-22
3.37335e-22
1.37829e-22
3.11589e-22
1.37726e-22
2.86205e-22
1.37726e-22
2.61337e-22
1.38036e-22
2.36884e-22
1.38553e-22
2.12741e-22
1.39328e-22
1.88907e-22
1.40311e-22
1.65384e-22
1.41551e-22
1.42068e-22
1.42792e-22
1.18856e-22
1.44188e-22
9.58496e-23
1.45687e-22
7.28953e-23
1.47031e-22
4.98376e-23
1.48427e-22
2.70385e-23
1.49668e-22
1.5065e-22
5.30067e-13
-2.6216e-12
1.036e-12
-2.53466e-12
1.50389e-12
-2.40029e-12
1.92036e-12
-2.20738e-12
2.27731e-12
-1.97487e-12
2.57425e-12
-1.72854e-12
2.81797e-12
-1.48726e-12
3.01464e-12
-1.25653e-12
3.16989e-12
-1.04043e-12
3.28971e-12
-8.42163e-13
3.37929e-12
-6.61614e-13
3.44052e-12
-4.95973e-13
3.47947e-12
-3.47029e-13
3.49346e-12
-2.09844e-13
3.48248e-12
-7.64314e-14
3.46233e-12
3.70573e-14
3.42368e-12
1.32533e-13
3.37147e-12
2.18451e-13
3.30144e-12
2.94916e-13
3.22416e-12
3.7178e-13
3.13909e-12
4.20262e-13
3.04663e-12
4.65906e-13
2.94945e-12
4.98089e-13
2.85074e-12
5.22793e-13
2.74828e-12
5.3878e-13
2.6462e-12
5.52419e-13
2.54563e-12
5.52589e-13
2.44694e-12
5.48123e-13
2.35057e-12
5.41058e-13
2.25775e-12
5.29256e-13
2.16848e-12
5.14793e-13
2.08284e-12
4.98894e-13
2.00121e-12
4.80964e-13
1.92355e-12
4.6143e-13
1.85e-12
4.42536e-13
1.78e-12
4.23688e-13
1.71325e-12
4.06171e-13
1.64972e-12
3.89227e-13
1.5892e-12
3.72859e-13
1.53101e-12
3.58278e-13
1.47534e-12
3.44849e-13
1.4215e-12
3.32407e-13
1.36976e-12
3.20835e-13
1.31919e-12
3.11366e-13
1.27046e-12
3.02085e-13
1.22222e-12
2.93695e-13
1.17645e-12
2.86009e-13
1.13005e-12
2.81824e-13
1.0847e-12
2.74761e-13
1.0406e-12
2.68664e-13
9.97084e-13
2.62939e-13
9.54522e-13
2.58181e-13
9.12452e-13
2.54181e-13
8.71167e-13
2.49096e-13
8.30423e-13
2.45224e-13
7.90508e-13
2.40194e-13
7.51261e-13
2.36011e-13
7.12699e-13
2.31497e-13
6.74802e-13
2.27805e-13
6.37629e-13
2.23297e-13
6.0119e-13
2.1901e-13
5.65579e-13
2.14492e-13
5.30607e-13
2.10423e-13
4.96295e-13
2.0641e-13
4.6268e-13
2.02237e-13
4.29556e-13
1.98645e-13
3.97077e-13
1.94798e-13
3.65242e-13
1.90875e-13
3.33949e-13
1.8708e-13
3.03188e-13
1.83287e-13
2.73039e-13
1.79407e-13
2.43527e-13
1.754e-13
2.14894e-13
1.71269e-13
1.8735e-13
1.67153e-13
1.60633e-13
1.64751e-13
1.37961e-13
1.5919e-13
1.15956e-13
1.63626e-13
3.2843e-14
3.61183e-13
-4.78316e-19
3.15695e-13
9.19844e-22
-3.97054e-22
9.23702e-22
-1.03398e-24
9.20394e-22
1.68538e-23
9.13724e-22
3.45865e-23
9.03695e-22
5.18022e-23
8.9077e-22
6.8139e-23
8.7495e-22
8.33902e-23
8.56494e-22
9.74522e-23
8.35763e-22
1.10222e-22
8.1286e-22
1.21544e-22
7.88458e-22
1.31625e-22
7.62454e-22
1.40311e-22
7.35312e-22
1.476e-22
7.07291e-22
1.53597e-22
6.78547e-22
1.58457e-22
6.49285e-22
1.62231e-22
6.19869e-22
1.65126e-22
5.90193e-22
1.66987e-22
5.60725e-22
1.68228e-22
5.31308e-22
1.68848e-22
5.02254e-22
1.6921e-22
4.73458e-22
1.69055e-22
4.45127e-22
1.68641e-22
4.17416e-22
1.68228e-22
3.90119e-22
1.67711e-22
3.63443e-22
1.67297e-22
3.37231e-22
1.67039e-22
3.11589e-22
1.67039e-22
2.86515e-22
1.67401e-22
2.61854e-22
1.68021e-22
2.37659e-22
1.689e-22
2.13723e-22
1.70141e-22
1.90096e-22
1.71692e-22
1.66625e-22
1.73346e-22
1.43516e-22
1.75311e-22
1.20355e-22
1.77275e-22
9.71937e-23
1.79136e-22
7.42395e-23
1.80997e-22
5.10784e-23
1.82548e-22
2.80207e-23
1.84048e-22
1.85237e-22
6.06374e-13
-3.22798e-12
1.18236e-12
-3.11065e-12
1.70136e-12
-2.9193e-12
2.15037e-12
-2.6564e-12
2.52147e-12
-2.34598e-12
2.81575e-12
-2.02283e-12
3.04824e-12
-1.71975e-12
3.23005e-12
-1.43835e-12
3.36826e-12
-1.17865e-12
3.47111e-12
-9.45015e-13
3.54477e-12
-7.35285e-13
3.59152e-12
-5.42723e-13
3.61504e-12
-3.70561e-13
3.6153e-12
-2.10108e-13
3.59582e-12
-5.69632e-14
3.56376e-12
6.91133e-14
3.51149e-12
1.84797e-13
3.45168e-12
2.78254e-13
3.3644e-12
3.82189e-13
3.28121e-12
4.54969e-13
3.18329e-12
5.18176e-13
3.08185e-12
5.67335e-13
2.9747e-12
6.05233e-13
2.86867e-12
6.28819e-13
2.75672e-12
6.50726e-13
2.64853e-12
6.60603e-13
2.54243e-12
6.58677e-13
2.43895e-12
6.51599e-13
2.33886e-12
6.41136e-13
2.24298e-12
6.25128e-13
2.15162e-12
6.06155e-13
2.06461e-12
5.85892e-13
1.98234e-12
5.63235e-13
1.90485e-12
5.38916e-13
1.83155e-12
5.1583e-13
1.76211e-12
4.9312e-13
1.69625e-12
4.72035e-13
1.63373e-12
4.51744e-13
1.57434e-12
4.32239e-13
1.51739e-12
4.15225e-13
1.46298e-12
3.99262e-13
1.41038e-12
3.85003e-13
1.3597e-12
3.71506e-13
1.31006e-12
3.61005e-13
1.26248e-12
3.49665e-13
1.21459e-12
3.41583e-13
1.16976e-12
3.30836e-13
1.12438e-12
3.27203e-13
1.07927e-12
3.19867e-13
1.03553e-12
3.12403e-13
9.92162e-13
3.06302e-13
9.49843e-13
3.00499e-13
9.07948e-13
2.96074e-13
8.66714e-13
2.9033e-13
8.25993e-13
2.85945e-13
7.86029e-13
2.80158e-13
7.46908e-13
2.75133e-13
7.0836e-13
2.70043e-13
6.70605e-13
2.65561e-13
6.3335e-13
2.60552e-13
5.97015e-13
2.55344e-13
5.61376e-13
2.5013e-13
5.26441e-13
2.45358e-13
4.92302e-13
2.40549e-13
4.58694e-13
2.35845e-13
4.25588e-13
2.31749e-13
3.93299e-13
2.27086e-13
3.61508e-13
2.22664e-13
3.30147e-13
2.18444e-13
2.99306e-13
2.14129e-13
2.69035e-13
2.09678e-13
2.39408e-13
2.05029e-13
2.1085e-13
1.99828e-13
1.84026e-13
1.93976e-13
1.60785e-13
1.87992e-13
1.39772e-13
1.80204e-13
7.83255e-14
2.25074e-13
1.57442e-14
4.23767e-13
4.59751e-21
3.31438e-13
9.39696e-22
-5.4264e-22
9.4159e-22
-1.44757e-24
9.38126e-22
2.05244e-23
9.3094e-22
4.19794e-23
9.20083e-22
6.24004e-23
9.0597e-22
8.19426e-23
8.89012e-22
1.00192e-22
8.69264e-22
1.16891e-22
8.47136e-22
1.31935e-22
8.22941e-22
1.45429e-22
7.97195e-22
1.57113e-22
7.69795e-22
1.6709e-22
7.41309e-22
1.75517e-22
7.12099e-22
1.82393e-22
6.82269e-22
1.87873e-22
6.52129e-22
1.92164e-22
6.2173e-22
1.95111e-22
5.91434e-22
1.97179e-22
5.61345e-22
1.98523e-22
5.31619e-22
1.99195e-22
5.02099e-22
1.99195e-22
4.73044e-22
1.9904e-22
4.44661e-22
1.98678e-22
4.16951e-22
1.98161e-22
3.89757e-22
1.97696e-22
3.63184e-22
1.97334e-22
3.37283e-22
1.97334e-22
3.11951e-22
1.97644e-22
2.87135e-22
1.98213e-22
2.62785e-22
1.99247e-22
2.389e-22
2.00746e-22
2.15325e-22
2.02608e-22
1.91803e-22
2.04624e-22
1.6859e-22
2.07002e-22
1.45429e-22
2.09432e-22
1.22164e-22
2.11862e-22
9.91066e-23
2.14447e-22
7.57904e-23
2.16721e-22
5.2526e-23
2.18789e-22
2.91581e-23
2.20392e-22
2.21478e-22
7.05817e-13
-3.9338e-12
1.38256e-12
-3.78741e-12
1.98544e-12
-3.52218e-12
2.45441e-12
-3.12537e-12
2.83555e-12
-2.72713e-12
3.11995e-12
-2.30723e-12
3.33112e-12
-1.93093e-12
3.48782e-12
-1.59506e-12
3.60133e-12
-1.29217e-12
3.68141e-12
-1.0251e-12
3.73479e-12
-7.88672e-13
3.76402e-12
-5.7196e-13
3.77343e-12
-3.79977e-13
3.75716e-12
-1.93849e-13
3.72756e-12
-2.73726e-14
3.67979e-12
1.16881e-13
3.6165e-12
2.48076e-13
3.5382e-12
3.56545e-13
3.4414e-12
4.78984e-13
3.34485e-12
5.51516e-13
3.23393e-12
6.29094e-13
3.12084e-12
6.80416e-13
3.00305e-12
7.23014e-13
2.88592e-12
7.45946e-13
2.76479e-12
7.71847e-13
2.64894e-12
7.76449e-13
2.53646e-12
7.71152e-13
2.42714e-12
7.60912e-13
2.32285e-12
7.45425e-13
2.22396e-12
7.24009e-13
2.1302e-12
6.9991e-13
2.04178e-12
6.74302e-13
1.95913e-12
6.45885e-13
1.88181e-12
6.16228e-13
1.80915e-12
5.88483e-13
1.74041e-12
5.61856e-13
1.67582e-12
5.36625e-13
1.61489e-12
5.12668e-13
1.55688e-12
4.90249e-13
1.50146e-12
4.70641e-13
1.44844e-12
4.52278e-13
1.3976e-12
4.35841e-13
1.348e-12
4.21104e-13
1.29987e-12
4.09137e-13
1.2531e-12
3.96427e-13
1.20699e-12
3.8769e-13
1.16146e-12
3.76368e-13
1.11809e-12
3.70576e-13
1.07321e-12
3.64733e-13
1.02968e-12
3.55931e-13
9.86492e-13
3.49497e-13
9.44417e-13
3.42573e-13
9.02744e-13
3.37746e-13
8.61451e-13
3.31623e-13
8.20977e-13
3.2642e-13
7.80882e-13
3.20252e-13
7.4181e-13
3.14204e-13
7.03158e-13
3.08695e-13
6.65584e-13
3.03134e-13
6.28395e-13
2.97742e-13
5.92082e-13
2.91655e-13
5.56632e-13
2.85581e-13
5.21852e-13
2.80138e-13
4.8769e-13
2.7471e-13
4.54102e-13
2.69431e-13
4.21261e-13
2.64591e-13
3.88961e-13
2.59385e-13
3.57161e-13
2.54466e-13
3.25869e-13
2.49736e-13
2.9487e-13
2.45127e-13
2.64324e-13
2.40227e-13
2.34303e-13
2.35047e-13
2.0492e-13
2.29212e-13
1.77022e-13
2.21877e-13
1.53893e-13
2.1112e-13
1.42695e-13
1.91401e-13
5.47643e-14
3.13003e-13
1.70844e-14
4.61448e-13
-2.08204e-19
3.48524e-13
9.52931e-22
-5.16178e-22
9.63562e-22
-1.18907e-24
9.5953e-22
2.44535e-23
9.51465e-22
4.96825e-23
9.39574e-22
7.41361e-23
9.24271e-22
9.71937e-23
9.05763e-22
1.18597e-22
8.84256e-22
1.38036e-22
8.60578e-22
1.55458e-22
8.34625e-22
1.70865e-22
8.07122e-22
1.84306e-22
7.78222e-22
1.95628e-22
7.48237e-22
2.05037e-22
7.17579e-22
2.12792e-22
6.8656e-22
2.18789e-22
6.55127e-22
2.23287e-22
6.23849e-22
2.26492e-22
5.92778e-22
2.28715e-22
5.62018e-22
2.29853e-22
5.3167e-22
2.30318e-22
5.01995e-22
2.30318e-22
4.72682e-22
2.30008e-22
4.44093e-22
2.29439e-22
4.16537e-22
2.28974e-22
3.89447e-22
2.28457e-22
3.63132e-22
2.28405e-22
3.37593e-22
2.28664e-22
3.12571e-22
2.29129e-22
2.88221e-22
2.3037e-22
2.64233e-22
2.31972e-22
2.4071e-22
2.3404e-22
2.17393e-22
2.3647e-22
1.94077e-22
2.39262e-22
1.70968e-22
2.42312e-22
1.47962e-22
2.45466e-22
1.24697e-22
2.48568e-22
1.01433e-22
2.51463e-22
7.78067e-23
2.541e-22
5.41286e-23
2.56374e-22
3.03472e-23
2.58132e-22
2.59166e-22
8.58978e-13
-4.79279e-12
1.66558e-12
-4.59401e-12
2.3427e-12
-4.19931e-12
2.86618e-12
-3.64886e-12
3.23891e-12
-3.09987e-12
3.49873e-12
-2.56707e-12
3.67215e-12
-2.10435e-12
3.79045e-12
-1.71337e-12
3.86695e-12
-1.36867e-12
3.9178e-12
-1.07595e-12
3.94566e-12
-8.16544e-13
3.95962e-12
-5.85921e-13
3.9517e-12
-3.72059e-13
3.91804e-12
-1.602e-13
3.87646e-12
1.42071e-14
3.81202e-12
1.81319e-13
3.73594e-12
3.24147e-13
3.63355e-12
4.58931e-13
3.53318e-12
5.79354e-13
3.41425e-12
6.70436e-13
3.2911e-12
7.52241e-13
3.16294e-12
8.08575e-13
3.03309e-12
8.52864e-13
2.9017e-12
8.77324e-13
2.77148e-12
9.02068e-13
2.64634e-12
9.01583e-13
2.52597e-12
8.9151e-13
2.41048e-12
8.76404e-13
2.30149e-12
8.54407e-13
2.19923e-12
8.26267e-13
2.1029e-12
7.96234e-13
2.01345e-12
7.63754e-13
1.9309e-12
7.28431e-13
1.854e-12
6.93125e-13
1.78226e-12
6.60212e-13
1.71482e-12
6.29292e-13
1.65194e-12
5.99497e-13
1.59295e-12
5.71659e-13
1.53676e-12
5.46438e-13
1.48331e-12
5.24086e-13
1.43216e-12
5.03427e-13
1.38324e-12
4.84757e-13
1.33515e-12
4.69185e-13
1.28854e-12
4.5574e-13
1.24276e-12
4.42214e-13
1.1984e-12
4.32043e-13
1.15253e-12
4.22233e-13
1.11106e-12
4.12045e-13
1.06692e-12
4.08876e-13
1.02331e-12
3.99544e-13
9.80534e-13
3.92271e-13
9.38383e-13
3.84723e-13
8.96978e-13
3.79153e-13
8.55636e-13
3.72965e-13
8.15275e-13
3.66781e-13
7.75051e-13
3.60476e-13
7.35991e-13
3.53267e-13
6.9722e-13
3.47465e-13
6.59933e-13
3.40419e-13
6.22677e-13
3.35e-13
5.86451e-13
3.2788e-13
5.51073e-13
3.2096e-13
5.16387e-13
3.14821e-13
4.82401e-13
3.08696e-13
4.48955e-13
3.02877e-13
4.16332e-13
2.97215e-13
3.84162e-13
2.91554e-13
3.52445e-13
2.86182e-13
3.21058e-13
2.81122e-13
2.90047e-13
2.76139e-13
2.59234e-13
2.71038e-13
2.28577e-13
2.65703e-13
1.98103e-13
2.59687e-13
1.67396e-13
2.52584e-13
1.36299e-13
2.42217e-13
1.00413e-13
2.2729e-13
3.44979e-14
3.7892e-13
1.81443e-14
4.77803e-13
-1.232e-19
3.66667e-13
9.92636e-22
-6.35293e-22
9.89205e-22
-1.55096e-24
9.84759e-22
2.88996e-23
9.75866e-22
5.86781e-23
9.62683e-22
8.71125e-23
9.45674e-22
1.13892e-22
9.25202e-22
1.38656e-22
9.0173e-22
1.61145e-22
8.75984e-22
1.81153e-22
8.48067e-22
1.98627e-22
8.18444e-22
2.13619e-22
7.87631e-22
2.26234e-22
7.5594e-22
2.36625e-22
7.23628e-22
2.44845e-22
6.91058e-22
2.51256e-22
6.58384e-22
2.55961e-22
6.26021e-22
2.59269e-22
5.93967e-22
2.61286e-22
5.62483e-22
2.62423e-22
5.31619e-22
2.62682e-22
5.01633e-22
2.62475e-22
4.72113e-22
2.61906e-22
4.43627e-22
2.61286e-22
4.1602e-22
2.60665e-22
3.89292e-22
2.60355e-22
3.63391e-22
2.60355e-22
3.38058e-22
2.60872e-22
3.1376e-22
2.62009e-22
2.89823e-22
2.6356e-22
2.663e-22
2.65887e-22
2.43191e-22
2.68679e-22
2.20133e-22
2.71832e-22
1.97127e-22
2.75193e-22
1.74173e-22
2.79018e-22
1.51064e-22
2.82844e-22
1.27593e-22
2.86515e-22
1.0407e-22
2.9003e-22
8.00814e-23
2.92925e-22
5.59381e-23
2.95304e-22
3.14329e-23
2.96854e-22
2.97837e-22
1.05734e-12
-5.85013e-12
2.04401e-12
-5.58068e-12
2.84608e-12
-5.00139e-12
3.41318e-12
-4.21597e-12
3.753e-12
-3.43969e-12
3.95574e-12
-2.76982e-12
4.07122e-12
-2.21983e-12
4.1369e-12
-1.77906e-12
4.16873e-12
-1.4005e-12
4.17929e-12
-1.08652e-12
4.17971e-12
-8.16967e-13
4.17328e-12
-5.79495e-13
4.14471e-12
-3.43497e-13
4.10173e-12
-1.17229e-13
4.04005e-12
7.58847e-14
3.96548e-12
2.55881e-13
3.86208e-12
4.27541e-13
3.74975e-12
5.71259e-13
3.6296e-12
6.99494e-13
3.49308e-12
8.06957e-13
3.35257e-12
8.9275e-13
3.20733e-12
9.53807e-13
3.06252e-12
9.97672e-13
2.91635e-12
1.02349e-12
2.77445e-12
1.04397e-12
2.63892e-12
1.03711e-12
2.50957e-12
1.02085e-12
2.38751e-12
9.98465e-13
2.27384e-12
9.68069e-13
2.16783e-12
9.3227e-13
2.06916e-12
8.94901e-13
1.97943e-12
8.53481e-13
1.8971e-12
8.10749e-13
1.82096e-12
7.69264e-13
1.75029e-12
7.30875e-13
1.68507e-12
6.94505e-13
1.62434e-12
6.60226e-13
1.56778e-12
6.2821e-13
1.51389e-12
6.00331e-13
1.46298e-12
5.74986e-13
1.41425e-12
5.5216e-13
1.36694e-12
5.32064e-13
1.32101e-12
5.15113e-13
1.27609e-12
5.00653e-13
1.2318e-12
4.86503e-13
1.18867e-12
4.75167e-13
1.14456e-12
4.6635e-13
1.10267e-12
4.53927e-13
1.06029e-12
4.51257e-13
1.01658e-12
4.43257e-13
9.74299e-13
4.34551e-13
9.31751e-13
4.27273e-13
8.9076e-13
4.20142e-13
8.49464e-13
4.14259e-13
8.08956e-13
4.07291e-13
7.68486e-13
4.00944e-13
7.29355e-13
3.92397e-13
6.90732e-13
3.86089e-13
6.53311e-13
3.77839e-13
6.16253e-13
3.72058e-13
5.79919e-13
3.64215e-13
5.44666e-13
3.56213e-13
5.10202e-13
3.49284e-13
4.76576e-13
3.42323e-13
4.43302e-13
3.3615e-13
4.10843e-13
3.29673e-13
3.78885e-13
3.23511e-13
3.47297e-13
3.17772e-13
3.15973e-13
3.12446e-13
2.8494e-13
3.07171e-13
2.53836e-13
3.0214e-13
2.22589e-13
2.96949e-13
1.90499e-13
2.91775e-13
1.56165e-13
2.86919e-13
1.17275e-13
2.81108e-13
6.01118e-14
2.84454e-13
2.10724e-14
4.17962e-13
1.4596e-14
4.8428e-13
-1.60193e-19
3.81264e-13
1.01911e-21
-6.75002e-22
1.01966e-21
-1.60266e-24
1.01454e-21
3.40695e-23
1.0043e-21
6.87594e-23
9.89463e-22
1.01898e-22
9.70438e-22
1.32814e-22
9.47691e-22
1.61093e-22
9.21738e-22
1.86633e-22
8.93459e-22
2.09225e-22
8.6306e-22
2.28767e-22
8.31058e-22
2.45311e-22
7.97971e-22
2.59114e-22
7.6416e-22
2.70333e-22
7.29987e-22
2.7907e-22
6.95711e-22
2.85584e-22
6.61693e-22
2.90237e-22
6.2814e-22
2.93494e-22
5.95053e-22
2.95355e-22
5.62793e-22
2.96079e-22
5.31412e-22
2.96234e-22
5.01065e-22
2.95614e-22
4.71545e-22
2.94838e-22
4.43059e-22
2.94011e-22
4.15658e-22
2.93442e-22
3.89344e-22
2.93132e-22
3.63908e-22
2.93339e-22
3.39144e-22
2.9427e-22
3.15414e-22
2.9582e-22
2.92098e-22
2.97992e-22
2.69092e-22
3.00939e-22
2.46396e-22
3.04402e-22
2.23494e-22
3.0828e-22
2.01005e-22
3.12726e-22
1.77947e-22
3.1712e-22
1.54734e-22
3.2136e-22
1.31108e-22
3.25341e-22
1.07017e-22
3.28908e-22
8.24079e-23
3.31958e-22
5.74891e-23
3.34078e-22
3.23117e-23
3.35422e-22
3.35835e-22
1.37455e-12
-7.22469e-12
2.64455e-12
-6.85069e-12
3.60215e-12
-5.95899e-12
4.15781e-12
-4.77163e-12
4.40453e-12
-3.68641e-12
4.48908e-12
-2.85437e-12
4.51017e-12
-2.24092e-12
4.50368e-12
-1.77258e-12
4.49755e-12
-1.39437e-12
4.47062e-12
-1.05959e-12
4.43422e-12
-7.80574e-13
4.39415e-12
-5.39426e-13
4.35838e-12
-3.07728e-13
4.30238e-12
-6.12352e-14
4.22521e-12
1.53047e-13
4.12847e-12
3.52621e-13
4.00907e-12
5.46931e-13
3.88095e-12
6.99376e-13
3.73383e-12
8.46619e-13
3.57949e-12
9.6129e-13
3.4176e-12
1.05464e-12
3.25258e-12
1.11882e-12
3.09083e-12
1.15942e-12
2.92707e-12
1.18725e-12
2.77173e-12
1.19929e-12
2.62484e-12
1.184e-12
2.4859e-12
1.15979e-12
2.35665e-12
1.12771e-12
2.23806e-12
1.08666e-12
2.128e-12
1.04232e-12