/*--------------------------------*- C++ -*----------------------------------*\
  =========                 |
  \\      /  F ield         | OpenFOAM: The Open Source CFD Toolbox
   \\    /   O peration     | Website:  https://openfoam.org
    \\  /    A nd           | Version:  6
     \\/     M anipulation  |
\*---------------------------------------------------------------------------*/
FoamFile
{
    version     2.0;
    format      ascii;
    class       surfaceScalarField;
    location    "1200";
    object      phi;
}
// * * * * * * * * * * * * * * * * * * * * * * * * * * * * * * * * * * * * * //

dimensions      [0 3 -1 0 0 0 0];

internalField   nonuniform List<scalar> 
9440
(
1.81565e-10
-1.81565e-10
2.79793e-10
-9.82292e-11
3.44236e-10
-6.44437e-11
2.91257e-10
5.29782e-11
2.32518e-10
5.87387e-11
4.13276e-11
1.91189e-10
-1.64672e-10
2.05999e-10
-3.10375e-10
1.45703e-10
-5.39501e-10
2.29125e-10
-6.01858e-10
6.23562e-11
-7.73421e-10
1.71562e-10
-8.59636e-10
8.62148e-11
-9.97477e-10
1.3784e-10
-1.05986e-09
6.23825e-11
-1.1569e-09
9.70409e-11
-1.21562e-09
5.87197e-11
-1.24598e-09
3.03608e-11
-1.25659e-09
1.06098e-11
-1.24474e-09
-1.18547e-11
-1.21284e-09
-3.19013e-11
-1.16728e-09
-4.55548e-11
-1.15316e-09
-1.41236e-11
-1.09524e-09
-5.79244e-11
-1.02587e-09
-6.9369e-11
-9.2928e-10
-9.65884e-11
-8.61858e-10
-6.74224e-11
-8.25755e-10
-3.61034e-11
-8.2223e-10
-3.52424e-12
-8.37254e-10
1.50233e-11
-8.71692e-10
3.44384e-11
-9.54764e-10
8.30717e-11
-1.11742e-09
1.6266e-10
-1.31378e-09
1.96358e-10
-1.49572e-09
1.8194e-10
-1.7189e-09
2.23183e-10
-1.97469e-09
2.55786e-10
-2.24722e-09
2.72526e-10
-2.42655e-09
1.79335e-10
-2.51573e-09
8.91825e-11
-2.68193e-09
1.66198e-10
-2.81873e-09
1.36802e-10
-2.93157e-09
1.12841e-10
-3.02683e-09
9.52605e-11
-3.07737e-09
5.05405e-11
-3.10399e-09
2.66132e-11
-3.08562e-09
-1.83675e-11
-3.06641e-09
-1.92126e-11
-2.91752e-09
-1.48889e-10
-2.79462e-09
-1.22897e-10
-2.7945e-09
-1.18745e-13
-2.67663e-09
-1.1787e-10
-2.43887e-09
-2.37763e-10
-2.31075e-09
-1.28119e-10
-2.09762e-09
-2.13133e-10
-1.85489e-09
-2.42724e-10
-1.67792e-09
-1.76971e-10
-1.51755e-09
-1.60372e-10
-9.14522e-10
-6.03026e-10
-5.72748e-10
-3.41774e-10
-6.03711e-10
3.09638e-11
-2.88576e-10
-3.15135e-10
3.86891e-11
-3.27265e-10
2.09405e-10
-1.70716e-10
3.49606e-10
-1.40201e-10
4.12877e-10
-6.32712e-11
5.3877e-11
3.59001e-10
3.79636e-10
-3.25758e-10
2.39848e-10
1.39788e-10
-2.69675e-10
5.09524e-10
-6.66989e-10
3.97314e-10
-8.8868e-10
2.21692e-10
-9.32192e-10
4.35127e-11
-8.04482e-10
-1.27709e-10
-7.38769e-10
-6.57131e-11
-8.19475e-10
8.07065e-11
-9.90778e-10
1.71304e-10
-1.2214e-09
2.30626e-10
-1.01617e-09
-2.05234e-10
-6.59139e-10
-3.57028e-10
-2.42357e-15
-6.59134e-10
-3.67093e-18
-7.95172e-19
-3.46768e-18
-2.03247e-19
-3.28303e-18
-1.82696e-19
-3.06492e-18
-2.16916e-19
-2.81553e-18
-2.48388e-19
-2.53992e-18
-2.74553e-19
-2.24222e-18
-2.96637e-19
-1.92675e-18
-3.14464e-19
-1.59857e-18
-3.27243e-19
-1.26343e-18
-3.34276e-19
-9.27435e-19
-3.35226e-19
-5.96653e-19
-3.30142e-19
-2.76808e-19
-3.19388e-19
2.69823e-20
-3.03557e-19
3.10369e-19
-2.83385e-19
5.69839e-19
-2.59684e-19
8.02723e-19
-2.33292e-19
1.00716e-18
-2.05028e-19
1.18205e-18
-1.75667e-19
1.32696e-18
-1.45916e-19
1.44211e-18
-1.16391e-19
1.52821e-18
-8.76073e-20
1.58644e-18
-5.99724e-20
1.6183e-18
-3.37948e-20
1.62551e-18
-9.29329e-21
1.60992e-18
1.33899e-20
1.57347e-18
3.41759e-20
1.5181e-18
5.30377e-20
1.44569e-18
6.99894e-20
1.35812e-18
8.50775e-20
1.25717e-18
9.83725e-20
1.14454e-18
1.0996e-19
1.02184e-18
1.19937e-19
8.90605e-19
1.28399e-19
7.52255e-19
1.35441e-19
6.08141e-19
1.41149e-19
4.59546e-19
1.45588e-19
3.07719e-19
1.4879e-19
1.53973e-19
1.5069e-19
1.50909e-19
6.29252e-11
-2.44491e-10
2.4132e-11
-5.94376e-11
2.30835e-11
-6.33967e-11
-6.05861e-11
1.36646e-10
-1.82713e-10
1.80864e-10
-2.09158e-10
2.17633e-10
-3.68077e-10
3.64917e-10
-5.03999e-10
2.81623e-10
-5.69353e-10
2.94477e-10
-7.10712e-10
2.03714e-10
-7.47003e-10
2.07853e-10
-9.33388e-10
2.72599e-10
-9.85686e-10
1.90137e-10
-1.11812e-09
1.94812e-10
-1.1696e-09
1.48525e-10
-1.2354e-09
1.24515e-10
-1.26602e-09
6.09823e-11
-1.27114e-09
1.57277e-11
-1.29396e-09
1.09629e-11
-1.29934e-09
-2.65225e-11
-1.29923e-09
-4.56668e-11
-1.28859e-09
-2.47642e-11
-1.25216e-09
-9.43459e-11
-1.22319e-09
-9.83423e-11
-1.19786e-09
-1.2192e-10
-1.21565e-09
-4.96358e-11
-1.26727e-09
1.5517e-11
-1.3472e-09
7.64075e-11
-1.43644e-09
1.04264e-10
-1.49833e-09
9.63288e-11
-1.59834e-09
1.83076e-10
-1.71037e-09
2.74696e-10
-1.89108e-09
3.77067e-10
-2.07413e-09
3.64984e-10
-2.21237e-09
3.61425e-10
-2.31347e-09
3.5689e-10
-2.32172e-09
2.80776e-10
-2.50058e-09
3.58192e-10
-2.70273e-09
2.9133e-10
-2.85091e-09
3.14384e-10
-3.02093e-09
3.06818e-10
-3.12372e-09
2.15637e-10
-3.17646e-09
1.48e-10
-3.21008e-09
8.41608e-11
-3.23774e-09
5.42709e-11
-3.23825e-09
-1.78587e-11
-3.20067e-09
-5.67905e-11
-3.08439e-09
-2.65166e-10
-3.00842e-09
-1.9887e-10
-2.90806e-09
-1.00473e-10
-2.82757e-09
-1.9836e-10
-2.72861e-09
-3.36724e-10
-2.58027e-09
-2.76462e-10
-2.32049e-09
-4.72914e-10
-1.99085e-09
-5.72359e-10
-1.77275e-09
-3.95069e-10
-1.49015e-09
-4.42979e-10
-9.1799e-10
-1.17518e-09
-9.39449e-10
-3.20314e-10
-7.30911e-10
-1.77575e-10
-3.35402e-10
-7.10643e-10
-2.95509e-10
-3.67157e-10
-1.9956e-11
-4.46268e-10
2.14909e-10
-3.75065e-10
4.36052e-10
-2.84414e-10
3.46547e-10
4.48507e-10
4.99246e-10
-4.78457e-10
7.96912e-10
-1.57878e-10
1.08372e-09
2.22714e-10
1.06169e-09
4.19351e-10
8.916e-10
3.91779e-10
7.33224e-10
2.0189e-10
3.54935e-10
2.5058e-10
-1.99182e-10
4.88405e-10
-6.72721e-10
5.54247e-10
-8.37075e-10
3.35659e-10
-8.44835e-10
2.38387e-10
-7.97883e-10
-2.52186e-10
-4.58105e-10
-6.96806e-10
-3.59755e-16
-1.11724e-09
-3.16039e-18
1.56866e-18
-3.44713e-18
8.27009e-20
-3.31725e-18
-3.1101e-19
-3.09639e-18
-4.35616e-19
-2.8417e-18
-5.01009e-19
-2.562e-18
-5.52342e-19
-2.26004e-18
-5.96845e-19
-1.93953e-18
-6.33381e-19
-1.6056e-18
-6.59704e-19
-1.26438e-18
-6.74206e-19
-9.22351e-19
-6.7621e-19
-5.85899e-19
-6.65862e-19
-2.60977e-19
-6.43954e-19
4.71544e-20
-6.11728e-19
3.34069e-19
-5.70719e-19
5.96231e-19
-5.22614e-19
8.30988e-19
-4.69148e-19
1.03652e-18
-4.12009e-19
1.2118e-18
-3.52773e-19
1.35649e-18
-2.92856e-19
1.47089e-18
-2.33474e-19
1.55584e-18
-1.75642e-19
1.61262e-18
-1.20166e-19
1.6428e-18
-6.76617e-20
1.64819e-18
-1.85694e-20
1.63071e-18
2.6825e-20
1.59234e-18
6.83662e-20
1.53505e-18
1.06008e-19
1.46078e-18
1.3979e-19
1.37142e-18
1.69819e-19
1.26876e-18
1.96251e-19
1.15452e-18
2.19268e-19
1.03031e-18
2.39071e-19
8.97647e-19
2.55861e-19
7.57962e-19
2.69832e-19
6.1258e-19
2.81162e-19
4.62748e-19
2.9e-19
3.09619e-19
2.96463e-19
1.54192e-19
3.00645e-19
3.02694e-19
-1.54136e-10
-9.03563e-11
-1.62707e-10
-5.08682e-11
-2.22469e-10
-3.63568e-12
-2.88668e-10
2.02844e-10
-3.64387e-10
2.56582e-10
-5.11526e-10
3.64771e-10
-6.02888e-10
4.56277e-10
-6.98792e-10
3.77526e-10
-6.70906e-10
2.6659e-10
-7.94694e-10
3.27501e-10
-8.77629e-10
2.90787e-10
-9.62061e-10
3.5703e-10
-1.05271e-09
2.80789e-10
-1.0996e-09
2.41697e-10
-1.14886e-09
1.97784e-10
-1.19155e-09
1.67207e-10
-1.2369e-09
1.06328e-10
-1.26777e-09
4.66001e-11
-1.3374e-09
8.0592e-11
-1.36867e-09
4.74067e-12
-1.40423e-09
-1.01015e-11
-1.42744e-09
-1.55943e-12
-1.45546e-09
-6.63286e-11
-1.52819e-09
-2.5604e-11
-1.57939e-09
-7.07194e-11
-1.68774e-09
5.87069e-11
-1.7321e-09
5.98837e-11
-1.75321e-09
9.75143e-11
-1.79057e-09
1.41624e-10
-1.87682e-09
1.82573e-10
-1.96682e-09
2.73076e-10
-2.04347e-09
3.51348e-10
-2.13872e-09
4.72315e-10
-2.29374e-09
5.20003e-10
-2.45023e-09
5.17916e-10
-2.45529e-09
3.61956e-10
-2.57949e-09
4.04971e-10
-2.68799e-09
4.66694e-10
-2.78263e-09
3.85975e-10
-2.83765e-09
3.69398e-10
-2.88947e-09
3.58643e-10
-2.93656e-09
2.62724e-10
-2.97283e-09
1.84275e-10
-3.00082e-09
1.12153e-10
-3.0453e-09
9.87422e-11
-3.10388e-09
4.0721e-11
-3.12045e-09
-4.02128e-11
-3.20261e-09
-1.83011e-10
-3.20799e-09
-1.9349e-10
-3.00241e-09
-3.06045e-10
-2.919e-09
-2.8177e-10
-2.76607e-09
-4.89658e-10
-2.54224e-09
-5.00289e-10
-2.43598e-09
-5.79179e-10
-2.20849e-09
-7.99848e-10
-1.92357e-09
-6.79988e-10
-1.65582e-09
-7.10725e-10
-1.4954e-09
-1.3356e-09
-1.42349e-09
-3.9223e-10
-8.29224e-10
-7.71837e-10
-6.84133e-10
-8.55733e-10
-6.58725e-10
-3.92565e-10
-2.99544e-10
-8.05449e-10
-2.17546e-11
-6.52853e-10
2.82696e-10
-5.88864e-10
7.9197e-10
-6.07667e-11
7.44114e-10
-4.306e-10
1.06225e-09
-4.76017e-10
1.34171e-09
-5.67401e-11
1.34177e-09
4.19287e-10
1.26028e-09
4.73272e-10
1.0437e-09
4.18476e-10
8.91432e-10
4.02848e-10
8.54455e-10
5.25383e-10
7.03405e-10
7.05298e-10
6.22085e-10
4.1698e-10
3.80746e-10
4.79728e-10
1.63003e-10
-3.444e-11
9.53241e-12
-5.43332e-10
-2.72157e-16
-1.10771e-09
-4.77749e-18
-1.74002e-18
-3.84084e-18
-8.53083e-19
-3.44186e-18
-7.08435e-19
-3.16179e-18
-7.13921e-19
-2.89303e-18
-7.68073e-19
-2.6065e-18
-8.373e-19
-2.29658e-18
-9.05326e-19
-1.96585e-18
-9.62781e-19
-1.6201e-18
-1.00422e-18
-1.26638e-18
-1.02684e-18
-9.12003e-19
-1.02971e-18
-5.63991e-19
-1.01326e-18
-2.28751e-19
-9.78886e-19
8.81637e-20
-9.28656e-19
3.82174e-19
-8.65042e-19
6.49698e-19
-7.90729e-19
8.88127e-19
-7.08436e-19
1.09576e-18
-6.20786e-19
1.27172e-18
-5.302e-19
1.41587e-18
-4.38828e-19
1.52872e-18
-3.48511e-19
1.61132e-18
-2.60766e-19
1.66512e-18
-1.76795e-19
1.69189e-18
-9.75013e-20
1.69358e-18
-2.3522e-20
1.67225e-18
4.47407e-20
1.62998e-18
1.07083e-19
1.56883e-18
1.63467e-19
1.49081e-18
2.13979e-19
1.39785e-18
2.58808e-19
1.29177e-18
2.98205e-19
1.17432e-18
3.32467e-19
1.0471e-18
3.61908e-19
9.11619e-19
3.86845e-19
7.69291e-19
4.0758e-19
6.21418e-19
4.24389e-19
4.69211e-19
4.37511e-19
3.13801e-19
4.47149e-19
1.56241e-19
4.53467e-19
4.56609e-19
-3.77433e-10
2.87076e-10
-4.66411e-10
3.81087e-11
-4.24942e-10
-4.51061e-11
-5.68899e-10
3.468e-10
-6.94369e-10
3.82051e-10
-7.70063e-10
4.40464e-10
-8.21723e-10
5.07936e-10
-8.35879e-10
3.91681e-10
-9.18106e-10
3.48816e-10
-1.00049e-09
4.09887e-10
-1.0665e-09
3.56789e-10
-1.10212e-09
3.92654e-10
-1.17409e-09
3.52758e-10
-1.18597e-09
2.53571e-10
-1.21e-09
2.21812e-10
-1.2146e-09
1.71808e-10
-1.23149e-09
1.23226e-10
-1.25762e-09
7.2722e-11
-1.34696e-09
1.69929e-10
-1.40988e-09
6.76602e-11
-1.49034e-09
7.03606e-11
-1.56307e-09
7.11747e-11
-1.64468e-09
1.52737e-11
-1.69767e-09
2.73935e-11
-1.77421e-09
5.81365e-12
-1.82761e-09
1.12112e-10
-1.85714e-09
8.94104e-11
-1.87518e-09
1.15555e-10
-1.91166e-09
1.78106e-10
-1.98826e-09
2.5917e-10
-2.08201e-09
3.66833e-10
-2.17554e-09
4.4487e-10
-2.21651e-09
5.1329e-10
-2.26867e-09
5.72162e-10
-2.31497e-09
5.64214e-10
-2.35413e-09
4.01112e-10
-2.44218e-09
4.93027e-10
-2.50978e-09
5.34295e-10
-2.56164e-09
4.37832e-10
-2.61391e-09
4.21666e-10
-2.6353e-09
3.8004e-10
-2.68983e-09
3.17256e-10
-2.7335e-09
2.27942e-10
-2.76283e-09
1.41487e-10
-2.78458e-09
1.20488e-10
-2.8071e-09
6.32392e-11
-2.79376e-09
-5.3549e-11
-2.8642e-09
-1.12569e-10
-2.94969e-09
-1.07998e-10
-2.90282e-09
-3.52918e-10
-2.86243e-09
-3.2216e-10
-2.72256e-09
-6.29524e-10
-2.5496e-09
-6.73256e-10
-2.50559e-09
-6.23185e-10
-2.32656e-09
-9.78875e-10
-2.11113e-09
-8.95417e-10
-1.83995e-09
-9.81909e-10
-1.86513e-09
-1.31042e-09
-1.45947e-09
-7.97886e-10
-1.12168e-09
-1.10963e-09
-1.04768e-09
-9.29733e-10
-5.19173e-10
-9.21069e-10
-3.09428e-10
-1.01519e-09
-1.43304e-10
-8.18976e-10
1.2186e-10
-8.54027e-10
7.13412e-10
-6.52318e-10
8.25766e-10
-5.42954e-10
9.49449e-10
-5.99699e-10
1.11362e-09
-2.20906e-10
1.25139e-09
2.81516e-10
1.26148e-09
4.63177e-10
1.30778e-09
3.72177e-10
1.37277e-09
3.37862e-10
1.25874e-09
6.3941e-10
1.20343e-09
7.60615e-10
1.04353e-09
5.7688e-10
8.20444e-10
7.02815e-10
7.04542e-10
8.1462e-11
3.50251e-10
-1.8904e-10
-3.24882e-16
-7.57456e-10
-4.03325e-18
-2.00382e-18
-3.69619e-18
-1.18914e-18
-3.44735e-18
-9.55687e-19
-3.21594e-18
-9.43689e-19
-2.96226e-18
-1.02024e-18
-2.67453e-18
-1.12362e-18
-2.35403e-18
-1.22453e-18
-2.00729e-18
-1.30833e-18
-1.64272e-18
-1.36769e-18
-1.26925e-18
-1.39934e-18
-8.95552e-19
-1.40263e-18
-5.29619e-19
-1.37865e-18
-1.78521e-19
-1.32971e-18
1.51777e-19
-1.25897e-18
4.56487e-19
-1.17003e-18
7.31991e-19
-1.06676e-18
9.75777e-19
-9.52993e-19
1.18634e-18
-8.32381e-19
1.36309e-18
-7.08262e-19
1.50619e-18
-5.83566e-19
1.61647e-18
-4.60773e-19
1.69529e-18
-3.41903e-19
1.74442e-18
-2.2853e-19
1.76587e-18
-1.21819e-19
1.76185e-18
-2.25667e-20
1.73459e-18
6.87484e-20
1.68636e-18
1.51914e-19
1.61934e-18
2.26934e-19
1.53564e-18
2.93978e-19
1.43725e-18
3.53343e-19
1.32604e-18
4.05405e-19
1.20376e-18
4.50593e-19
1.07203e-18
4.89356e-19
9.32354e-19
5.22137e-19
7.861e-19
5.49359e-19
6.34541e-19
5.71406e-19
4.78849e-19
5.88614e-19
3.20119e-19
6.01262e-19
1.59383e-19
6.0957e-19
6.13697e-19
7.04199e-11
2.16655e-10
-1.57054e-10
2.65582e-10
-4.40685e-10
2.38523e-10
-6.04998e-10
5.11111e-10
-8.63337e-10
6.40389e-10
-9.59164e-10
5.3629e-10
-1.02227e-09
5.71037e-10
-1.13078e-09
5.00192e-10
-1.20126e-09
4.19297e-10
-1.22154e-09
4.30168e-10
-1.30745e-09
4.42692e-10
-1.33277e-09
4.17976e-10
-1.37526e-09
3.95246e-10
-1.31593e-09
1.94238e-10
-1.33502e-09
2.409e-10
-1.33719e-09
1.7398e-10
-1.34367e-09
1.29703e-10
-1.38848e-09
1.17532e-10
-1.43875e-09
2.20205e-10
-1.52296e-09
1.51866e-10
-1.62545e-09
1.72849e-10
-1.68206e-09
1.27785e-10
-1.72936e-09
6.2569e-11
-1.74365e-09
4.16881e-11
-1.82208e-09
8.42389e-11
-1.83884e-09
1.28873e-10
-1.88466e-09
1.3523e-10
-1.92548e-09
1.56381e-10
-1.9883e-09
2.40921e-10
-2.03513e-09
3.06e-10
-2.06514e-09
3.96844e-10
-2.09401e-09
4.7374e-10
-2.11448e-09
5.33765e-10
-2.15863e-09
6.16312e-10
-2.20827e-09
6.13854e-10
-2.30453e-09
4.97371e-10
-2.33687e-09
5.25366e-10
-2.3412e-09
5.38626e-10
-2.36958e-09
4.66213e-10
-2.37728e-09
4.29365e-10
-2.35866e-09
3.61421e-10
-2.35757e-09
3.16163e-10
-2.38438e-09
2.54751e-10
-2.4172e-09
1.74304e-10
-2.43334e-09
1.36637e-10
-2.44441e-09
7.43021e-11
-2.46462e-09
-3.33381e-11
-2.53959e-09
-3.75955e-11
-2.51845e-09
-1.29137e-10
-2.48719e-09
-3.8418e-10
-2.52565e-09
-2.837e-10
-2.53224e-09
-6.22928e-10
-2.41312e-09
-7.92374e-10
-2.35149e-09
-6.84824e-10
-2.32333e-09
-1.00703e-09
-2.1396e-09
-1.07915e-09
-2.04604e-09
-1.07547e-09
-2.00377e-09
-1.35269e-09
-1.57875e-09
-1.22291e-09
-1.27118e-09
-1.4172e-09
-8.67675e-10
-1.33324e-09
-5.12566e-10
-1.27618e-09
-3.50529e-10
-1.17723e-09
9.84329e-12
-1.17935e-09
1.80833e-10
-1.02502e-09
4.23602e-10
-8.95086e-10
6.64479e-10
-7.8383e-10
7.54436e-10
-6.89656e-10
8.33739e-10
-3.00208e-10
1.00704e-09
1.08215e-10
1.16393e-09
3.06292e-10
1.36702e-09
1.69087e-10
1.44417e-09
2.60712e-10
1.39554e-09
6.88044e-10
1.40147e-09
7.54684e-10
1.28703e-09
6.91324e-10
1.2704e-09
7.19439e-10
8.72192e-10
4.79674e-10
3.72658e-10
3.10495e-10
-3.41164e-16
-3.84798e-10
-3.32692e-18
-1.64311e-18
-3.46274e-18
-1.05247e-18
-3.43535e-18
-9.8155e-19
-3.29249e-18
-1.08502e-18
-3.06564e-18
-1.24571e-18
-2.77544e-18
-1.41258e-18
-2.43784e-18
-1.56099e-18
-2.06664e-18
-1.67848e-18
-1.67438e-18
-1.75899e-18
-1.27254e-18
-1.80033e-18
-8.71571e-19
-1.80292e-18
-4.80687e-19
-1.76907e-18
-1.07774e-19
-1.70241e-18
2.4071e-19
-1.60749e-18
5.5976e-19
-1.48936e-18
8.4576e-19
-1.35326e-18
1.09639e-18
-1.20433e-18
1.31046e-18
-1.04739e-18
1.48778e-18
-8.86771e-19
1.62898e-18
-7.26236e-19
1.73534e-18
-5.6892e-19
1.80866e-18
-4.17334e-19
1.85113e-18
-2.73395e-19
1.86512e-18
-1.38481e-19
1.85316e-18
-1.34953e-20
1.81776e-18
1.01062e-19
1.76138e-18
2.05024e-19
1.68639e-18
2.98489e-19
1.595e-18
3.81754e-19
1.48931e-18
4.55264e-19
1.37122e-18
5.19554e-19
1.24252e-18
5.75214e-19
1.10481e-18
6.22848e-19
9.59576e-19
6.63048e-19
8.08147e-19
6.96372e-19
6.51749e-19
7.23321e-19
4.91497e-19
7.44333e-19
3.28427e-19
7.5977e-19
1.63511e-19
7.69909e-19
7.74944e-19
-1.75516e-10
3.92171e-10
-5.22613e-10
6.12677e-10
-7.8731e-10
5.0322e-10
-8.84216e-10
6.08016e-10
-9.94872e-10
7.51044e-10
-1.13755e-09
6.78969e-10
-1.21298e-09
6.46464e-10
-1.32729e-09
6.14499e-10
-1.42295e-09
5.14956e-10
-1.50112e-09
5.08339e-10
-1.54102e-09
4.82594e-10
-1.55075e-09
4.27702e-10
-1.57309e-09
4.17586e-10
-1.59194e-09
2.1309e-10
-1.53167e-09
1.8062e-10
-1.51811e-09
1.60423e-10
-1.53008e-09
1.41675e-10
-1.53565e-09
1.23099e-10
-1.5322e-09
2.16754e-10
-1.58561e-09
2.05277e-10
-1.624e-09
2.11233e-10
-1.68994e-09
1.93731e-10
-1.75081e-09
1.23439e-10
-1.80756e-09
9.84403e-11
-1.85033e-09
1.27002e-10
-1.85122e-09
1.2976e-10
-1.8589e-09
1.42914e-10
-1.88997e-09
1.87448e-10
-1.9469e-09
2.9785e-10
-1.99541e-09
3.54519e-10
-1.99905e-09
4.00479e-10
-1.98435e-09
4.59041e-10
-2.00637e-09
5.55779e-10
-2.06485e-09
6.74794e-10
-2.08309e-09
6.32098e-10
-2.13263e-09
5.46905e-10
-2.14025e-09
5.32989e-10
-2.09356e-09
4.91934e-10
-2.05575e-09
4.28409e-10
-1.99601e-09
3.69628e-10
-1.95813e-09
3.23534e-10
-1.94628e-09
3.0431e-10
-1.94202e-09
2.50495e-10
-2.00628e-09
2.38563e-10
-2.05e-09
1.80359e-10
-2.05927e-09
8.35738e-11
-2.13693e-09
4.43253e-11
-2.17766e-09
3.13203e-12
-2.07739e-09
-2.29408e-10
-2.16612e-09
-2.95448e-10
-2.20111e-09
-2.48713e-10
-2.17302e-09
-6.51019e-10
-2.14406e-09
-8.21329e-10
-2.28597e-09
-5.42913e-10
-2.33319e-09
-9.59815e-10
-2.14608e-09
-1.26626e-09
-2.09565e-09
-1.1259e-09
-2.03431e-09
-1.41403e-09
-1.79991e-09
-1.45731e-09
-1.54078e-09
-1.67633e-09
-1.16559e-09
-1.70842e-09
-8.86495e-10
-1.55527e-09
-4.83345e-10
-1.58038e-09
-1.76568e-10
-1.48612e-09
1.43124e-10
-1.34471e-09
4.91554e-10
-1.24352e-09
6.54759e-10
-9.47034e-10
7.00698e-10
-7.35594e-10
8.1024e-10
-4.09749e-10
9.23457e-10
-5.00125e-12
1.11318e-09
1.1657e-10
1.25378e-09
2.84857e-11
1.27483e-09
2.39663e-10
1.3234e-09
6.39484e-10
1.3292e-09
7.4888e-10
1.24308e-09
7.77442e-10
1.15118e-09
8.11341e-10
1.02045e-09
6.10404e-10
6.6738e-10
6.63569e-10
-3.49259e-16
2.82583e-10
-2.7674e-18
2.59036e-19
-3.39182e-18
-4.27299e-19
-3.53882e-18
-8.33106e-19
-3.45318e-18
-1.16922e-18
-3.23251e-18
-1.46513e-18
-2.92385e-18
-1.72012e-18
-2.55533e-18
-1.92852e-18
-2.14715e-18
-2.08577e-18
-1.71571e-18
-2.18962e-18
-1.27513e-18
-2.2402e-18
-8.37718e-19
-2.23977e-18
-4.1403e-19
-2.19238e-18
-1.2854e-20
-2.10343e-18
3.58839e-19
-1.97926e-18
6.95858e-19
-1.82668e-18
9.94691e-19
-1.65259e-18
1.25333e-18
-1.46366e-18
1.47108e-18
-1.26601e-18
1.64832e-18
-1.06509e-18
1.78629e-18
-8.65539e-19
1.88692e-18
-6.71154e-19
1.9526e-18
-4.84911e-19
1.98604e-18
-3.09018e-19
1.99011e-18
-1.45001e-19
1.96772e-18
6.20281e-21
1.92172e-18
1.44149e-19
1.85485e-18
2.68788e-19
1.76965e-18
3.80378e-19
1.66851e-18
4.79403e-19
1.5536e-18
5.66505e-19
1.42688e-18
6.42423e-19
1.29016e-18
7.07941e-19
1.14501e-18
7.63848e-19
9.929e-19
8.10908e-19
8.35097e-19
8.49827e-19
6.72761e-19
8.81239e-19
5.06933e-19
9.05693e-19
3.38567e-19
9.23638e-19
1.68545e-19
9.35417e-19
9.41264e-19
-1.44889e-10
5.37059e-10
-3.04366e-10
7.72152e-10
-6.82027e-10
8.8088e-10
-9.66582e-10
8.92571e-10
-1.1224e-09
9.06862e-10
-1.26368e-09
8.20242e-10
-1.43868e-09
8.21469e-10
-1.53362e-09
7.09436e-10
-1.55067e-09
5.32008e-10
-1.66028e-09
6.1795e-10
-1.74807e-09
5.70374e-10
-1.78723e-09
4.66866e-10
-1.79526e-09
4.25615e-10
-1.82097e-09
2.38801e-10
-1.76912e-09
1.28764e-10
-1.71602e-09
1.07322e-10
-1.6962e-09
1.21857e-10
-1.66984e-09
9.67368e-11
-1.65195e-09
1.98863e-10
-1.72367e-09
2.76999e-10
-1.68169e-09
1.69247e-10
-1.71324e-09
2.25283e-10
-1.73321e-09
1.43415e-10
-1.76929e-09
1.34516e-10
-1.79288e-09
1.5059e-10
-1.80776e-09
1.44639e-10
-1.81599e-09
1.51145e-10
-1.82292e-09
1.94383e-10
-1.86625e-09
3.41179e-10
-1.86292e-09
3.51187e-10
-1.84843e-09
3.85983e-10
-1.82988e-09
4.405e-10
-1.785e-09
5.10889e-10
-1.7332e-09
6.23003e-10
-1.71512e-09
6.14019e-10
-1.74258e-09
5.74361e-10
-1.70349e-09
4.93895e-10
-1.69763e-09
4.86081e-10
-1.62522e-09
3.55999e-10
-1.60859e-09
3.52995e-10
-1.61601e-09
3.30954e-10
-1.58864e-09
2.76942e-10
-1.56661e-09
2.28468e-10
-1.58134e-09
2.53294e-10
-1.59299e-09
1.92009e-10
-1.6947e-09
1.85284e-10
-1.78215e-09
1.31771e-10
-1.80121e-09
2.21883e-11
-1.85064e-09
-1.79975e-10
-1.88646e-09
-2.59631e-10
-1.87784e-09
-2.57332e-10
-1.99896e-09
-5.29898e-10
-2.09108e-09
-7.29211e-10
-1.93872e-09
-6.9527e-10
-1.97765e-09
-9.2088e-10
-2.06536e-09
-1.17855e-09
-2.00608e-09
-1.18518e-09
-1.97603e-09
-1.44407e-09
-1.80835e-09
-1.62499e-09
-1.58602e-09
-1.89866e-09
-1.25567e-09
-2.03877e-09
-8.44078e-10
-1.96686e-09
-5.07099e-10
-1.91736e-09
-3.41467e-10
-1.65176e-09
-1.26872e-10
-1.5593e-09
9.32456e-11
-1.46363e-09
3.6961e-10
-1.2234e-09
4.59619e-10
-8.25602e-10
6.56329e-10
-6.06458e-10
7.70298e-10
-1.18969e-10
9.22018e-10
-3.51487e-11
1.00004e-09
-4.95306e-11
1.00905e-09
2.30648e-10
1.10923e-09
5.39308e-10
1.19504e-09
6.6307e-10
1.13583e-09
8.36654e-10
1.04321e-09
9.03963e-10
8.39305e-10
8.14309e-10
5.14132e-10
9.88744e-10
-3.79012e-16
7.96717e-10
-3.40315e-18
1.24563e-18
-3.79763e-18
-3.21217e-20
-3.87493e-18
-7.54362e-19
-3.74909e-18
-1.29364e-18
-3.48749e-18
-1.72552e-18
-3.13225e-18
-2.07431e-18
-2.71258e-18
-2.34729e-18
-2.251e-18
-2.54656e-18
-1.76629e-18
-2.67363e-18
-1.2747e-18
-2.73117e-18
-7.90325e-19
-2.72365e-18
-3.25084e-19
-2.65729e-18
1.11317e-19
-2.53971e-18
5.11418e-19
-2.37946e-18
8.69942e-19
-2.18552e-18
1.18363e-18
-1.96679e-18
1.45098e-18
-1.73169e-18
1.672e-18
-1.48787e-18
1.84787e-18
-1.24198e-18
1.98068e-18
-9.99568e-19
2.07317e-18
-7.65096e-19
2.12849e-18
-5.41952e-19
2.15006e-18
-3.32558e-19
2.14131e-18
-1.38494e-19
2.10566e-18
3.93692e-20
2.04636e-18
2.0074e-19
1.96643e-18
3.45779e-19
1.86868e-18
4.74989e-19
1.75561e-18
5.89112e-19
1.62952e-18
6.89052e-19
1.4924e-18
7.758e-19
1.34606e-18
8.50376e-19
1.19207e-18
9.13789e-19
1.03182e-18
9.66993e-19
8.66509e-19
1.01087e-18
6.97215e-19
1.04619e-18
5.24878e-19
1.07364e-18
3.50346e-19
1.09375e-18
1.74392e-19
1.10693e-18
1.11347e-18
-2.12286e-10
7.49345e-10
-3.87797e-10
9.47662e-10
-6.15916e-10
1.109e-09
-9.20856e-10
1.19751e-09
-1.16118e-09
1.14719e-09
-1.34264e-09
1.0017e-09
-1.48826e-09
9.67087e-10
-1.59887e-09
8.20047e-10
-1.71932e-09
6.52458e-10
-1.80592e-09
7.04549e-10
-1.88703e-09
6.51483e-10
-1.87486e-09
4.54689e-10
-1.92575e-09
4.76506e-10
-1.96602e-09
2.79074e-10
-1.98324e-09
1.45978e-10
-2.00679e-09
1.30875e-10
-1.9892e-09
1.04264e-10
-1.97462e-09
8.21583e-11
-1.87043e-09
9.46694e-11
-1.78609e-09
1.92662e-10
-1.79298e-09
1.76131e-10
-1.74547e-09
1.77775e-10
-1.73933e-09
1.3728e-10
-1.75067e-09
1.45855e-10
-1.7685e-09
1.68413e-10
-1.7579e-09
1.34042e-10
-1.72861e-09
1.21857e-10
-1.68949e-09
1.55258e-10
-1.70394e-09
3.55629e-10
-1.66776e-09
3.15009e-10
-1.64325e-09
3.61472e-10
-1.63111e-09
4.28362e-10
-1.60439e-09
4.84168e-10
-1.58898e-09
6.07592e-10
-1.50664e-09
5.31685e-10
-1.49188e-09
5.59597e-10
-1.46444e-09
4.66459e-10
-1.35514e-09
3.76778e-10
-1.3185e-09
3.19358e-10
-1.2766e-09
3.11094e-10
-1.25063e-09
3.04984e-10
-1.21253e-09
2.38847e-10
-1.19995e-09
2.15887e-10
-1.19757e-09
2.50913e-10
-1.23454e-09
2.28983e-10
-1.308e-09
2.58743e-10
-1.39272e-09
2.16491e-10
-1.41715e-09
4.66228e-11
-1.55312e-09
-4.40111e-11
-1.50075e-09
-3.11994e-10
-1.46394e-09
-2.9415e-10
-1.56914e-09
-4.24693e-10
-1.61611e-09
-6.82246e-10
-1.61149e-09
-6.99888e-10
-1.57448e-09
-9.57887e-10
-1.6866e-09
-1.06642e-09
-1.72343e-09
-1.14836e-09
-1.7687e-09
-1.39879e-09
-1.68585e-09
-1.70785e-09
-1.57352e-09
-2.01098e-09
-1.44739e-09
-2.1649e-09
-1.19482e-09
-2.21943e-09
-8.81515e-10
-2.23067e-09
-5.58023e-10
-1.97525e-09
-3.52255e-10
-1.76507e-09
-1.57203e-10
-1.65868e-09
1.6827e-11
-1.39743e-09
1.14703e-10
-9.23477e-10
3.55094e-10
-8.46848e-10
5.32156e-10
-2.9603e-10
7.02657e-10
-2.05649e-10
6.94198e-10
-4.10706e-11
7.40689e-10
1.84158e-10
7.75909e-10
5.04089e-10
8.2832e-10
6.1066e-10
7.71937e-10
8.93039e-10
6.60735e-10
1.01517e-09
4.09034e-10
1.06601e-09
2.4241e-10
1.15537e-09
-4.30386e-16
1.03913e-09
-4.54705e-18
9.82537e-19
-4.51987e-18
-5.8606e-20
-4.41421e-18
-8.58472e-19
-4.18096e-18
-1.52537e-18
-3.83629e-18
-2.06891e-18
-3.40524e-18
-2.50427e-18
-2.91185e-18
-2.83975e-18
-2.37807e-18
-3.07957e-18
-1.82383e-18
-3.22717e-18
-1.26719e-18
-3.28721e-18
-7.23962e-19
-3.26639e-18
-2.075e-19
-3.17342e-18
2.71565e-19
-3.01863e-18
7.05358e-19
-2.81333e-18
1.08867e-18
-2.56914e-18
1.41872e-18
-2.29735e-18
1.6948e-18
-2.00846e-18
1.9179e-18
-1.71181e-18
2.09028e-18
-1.41536e-18
2.21515e-18
-1.1256e-18
2.29631e-18
-8.47612e-19
2.33789e-18
-5.85099e-19
2.34412e-18
-3.40588e-19
2.31918e-18
-1.15586e-19
2.26704e-18
8.92361e-20
2.1914e-18
2.73867e-19
2.09564e-18
4.38792e-19
1.9828e-18
5.84861e-19
1.85555e-18
7.13163e-19
1.71626e-18
8.24934e-19
1.56698e-18
9.21476e-19
1.40948e-18
1.00409e-18
1.24528e-18
1.07404e-18
1.07569e-18
1.13251e-18
9.01836e-19
1.18056e-18
7.24659e-19
1.21912e-18
5.44986e-19
1.24901e-18
3.63531e-19
1.27087e-18
1.80933e-19
1.28518e-18
1.29227e-18
-3.99954e-10
1.1493e-09
-7.72068e-10
1.31977e-09
-1.03558e-09
1.37251e-09
-1.18972e-09
1.35165e-09
-1.32939e-09
1.28685e-09
-1.47101e-09
1.14332e-09
-1.60272e-09
1.09879e-09
-1.64135e-09
8.58676e-10
-1.76891e-09
7.80021e-10
-1.85468e-09
7.90316e-10
-1.90764e-09
7.04444e-10
-1.96043e-09
5.07475e-10
-2.00093e-09
5.17011e-10
-2.10826e-09
3.864e-10
-2.09472e-09
1.32439e-10
-2.17709e-09
2.13238e-10
-2.19015e-09
1.1733e-10
-2.20276e-09
9.47697e-11
-2.179e-09
7.0909e-11
-2.03249e-09
4.61426e-11
-2.00824e-09
1.51883e-10
-1.90022e-09
6.97591e-11
-1.82074e-09
5.77932e-11
-1.73135e-09
5.64709e-11
-1.67066e-09
1.07722e-10
-1.59679e-09
6.01703e-11
-1.54203e-09
6.7099e-11
-1.54044e-09
1.53667e-10
-1.47663e-09
2.91812e-10
-1.43518e-09
2.73561e-10
-1.41098e-09
3.37275e-10
-1.40072e-09
4.18101e-10
-1.32544e-09
4.08887e-10
-1.19502e-09
4.77176e-10
-1.0367e-09
3.73362e-10
-8.68555e-10
3.91451e-10
-8.51434e-10
4.49338e-10
-7.6286e-10
2.88204e-10
-7.02317e-10
2.58815e-10
-7.09283e-10
3.1806e-10
-6.77982e-10
2.73683e-10
-6.98855e-10
2.5972e-10
-7.1819e-10
2.35223e-10
-7.93623e-10
3.26346e-10
-8.90318e-10
3.25679e-10
-9.15376e-10
2.83801e-10
-9.42483e-10
2.43599e-10
-9.67617e-10
7.17567e-11
-9.56977e-10
-5.46511e-11
-9.72736e-10
-2.96234e-10
-9.97868e-10
-2.69019e-10
-9.98231e-10
-4.24329e-10
-1.18184e-09
-4.98637e-10
-1.20453e-09
-6.77201e-10
-1.18799e-09
-9.74424e-10
-1.18655e-09
-1.06786e-09
-1.21726e-09
-1.11766e-09
-1.3454e-09
-1.27065e-09
-1.49517e-09
-1.55808e-09
-1.48118e-09
-2.02497e-09
-1.32205e-09
-2.32403e-09
-1.08738e-09
-2.4541e-09
-8.08534e-10
-2.50951e-09
-6.01796e-10
-2.18199e-09
-4.32622e-10
-1.93424e-09
-2.61334e-10
-1.82997e-09
-1.21409e-10
-1.53735e-09
1.49004e-10
-1.19389e-09
2.59811e-10
-9.57654e-10
4.19112e-10
-4.5533e-10
5.42077e-10
-3.28613e-10
5.03736e-10
-2.72836e-12
5.47262e-10
1.40633e-10
6.55951e-10
3.95402e-10
6.92123e-10
5.74489e-10
6.65019e-10
9.20144e-10
6.13399e-10
1.06679e-09
4.71434e-10
1.20798e-09
3.19915e-10
1.30689e-09
-4.89505e-16
1.35904e-09
-5.3778e-18
1.47587e-18
-5.31974e-18
-1.1591e-19
-5.08111e-18
-1.09534e-18
-4.7245e-18
-1.8802e-18
-4.27164e-18
-2.52028e-18
-3.74072e-18
-3.03391e-18
-3.15167e-18
-3.42771e-18
-2.52566e-18
-3.70465e-18
-1.88388e-18
-3.86814e-18
-1.24636e-18
-3.92402e-18
-6.30991e-19
-3.88117e-18
-5.27104e-20
-3.75126e-18
4.76864e-19
-3.54795e-18
9.49553e-19
-3.28599e-18
1.36046e-18
-2.98025e-18
1.70761e-18
-2.64493e-18
1.99145e-18
-2.29295e-18
2.21435e-18
-1.93553e-18
2.38003e-18
-1.58203e-18
2.49314e-18
-1.23986e-18
2.55882e-18
-9.14598e-19
2.5824e-18
-6.10151e-19
2.56912e-18
-3.28975e-19
2.524e-18
-7.23291e-20
2.45167e-18
1.59487e-19
2.35633e-18
3.66898e-19
2.24171e-18
5.5086e-19
2.1111e-18
7.12688e-19
1.96732e-18
8.5392e-19
1.8128e-18
9.76205e-19
1.6496e-18
1.08122e-18
1.47943e-18
1.17061e-18
1.30374e-18
1.24591e-18
1.12374e-18
1.30856e-18
9.40404e-19
1.35983e-18
7.54548e-19
1.40084e-18
5.66841e-19
1.43252e-18
3.77842e-19
1.45563e-18
1.88028e-19
1.47074e-18
1.47822e-18
-3.91343e-10
1.54064e-09
-7.30722e-10
1.65915e-09
-9.77328e-10
1.61911e-09
-1.15484e-09
1.52916e-09
-1.26717e-09
1.39917e-09
-1.40695e-09
1.2831e-09
-1.51311e-09
1.20495e-09
-1.60495e-09
9.50517e-10
-1.72595e-09
9.01025e-10
-1.81571e-09
8.8007e-10
-1.85073e-09
7.39464e-10
-1.95552e-09
6.12269e-10
-2.01761e-09
5.79096e-10
-2.08203e-09
4.5082e-10
-2.17981e-09
2.30224e-10
-2.26086e-09
2.94283e-10
-2.29222e-09
1.48688e-10
-2.30906e-09
1.11607e-10
-2.29691e-09
5.87641e-11
-2.28014e-09
2.93677e-11
-2.12396e-09
-4.29539e-12
-2.02616e-09
-2.80388e-11
-1.91133e-09
-5.70437e-11
-1.81931e-09
-3.55453e-11
-1.66404e-09
-4.75457e-11
-1.49954e-09
-1.04332e-10
-1.40738e-09
-2.50621e-11
-1.375e-09
1.21286e-10
-1.28044e-09
1.97248e-10
-1.24202e-09
2.35148e-10
-1.15485e-09
2.50097e-10
-1.12006e-09
3.83315e-10
-1.00419e-09
2.93013e-10
-8.67973e-10
3.40964e-10
-7.70579e-10
2.75968e-10
-6.91837e-10
3.12709e-10
-5.83002e-10
3.40502e-10
-5.51423e-10
2.56626e-10
-5.94915e-10
3.02308e-10
-5.69972e-10
2.93117e-10
-5.13791e-10
2.17502e-10
-4.96438e-10
2.42367e-10
-5.51864e-10
2.90649e-10
-5.60849e-10
3.35331e-10
-5.65257e-10
3.30087e-10
-5.1705e-10
2.35594e-10
-4.51307e-10
1.77857e-10
-4.44487e-10
6.49364e-11
-4.879e-10
-1.12373e-11
-6.92065e-10
-9.20687e-11
-7.63191e-10
-1.97892e-10
-8.24784e-10
-3.62736e-10
-7.86683e-10
-5.36738e-10
-7.38182e-10
-7.25701e-10
-7.53421e-10
-9.59185e-10
-7.93999e-10
-1.02728e-09
-8.35118e-10
-1.07654e-09
-9.34688e-10
-1.17108e-09
-9.73566e-10
-1.5192e-09
-1.14882e-09
-1.84972e-09
-1.15124e-09
-2.32161e-09
-1.05687e-09
-2.54847e-09
-9.26016e-10
-2.64036e-09
-6.70056e-10
-2.43794e-09
-5.07785e-10
-2.09651e-09
-3.89455e-10
-1.9483e-09
-2.44701e-10
-1.6821e-09
-1.26471e-10
-1.31212e-09
-6.16826e-11
-1.02244e-09
1.60676e-10
-6.77687e-10
3.11183e-10
-4.79118e-10
3.64772e-10
-5.63161e-11
3.55638e-10
1.49768e-10
4.16175e-10
3.34865e-10
3.15427e-10
6.75238e-10
4.02057e-10
8.33516e-10
3.60038e-10
1.10881e-09
3.26985e-10
1.24103e-09
2.16717e-10
1.41716e-09
-5.44285e-16
1.57576e-09
-6.70897e-18
9.30427e-19
-6.29916e-18
-5.24823e-19
-5.86597e-18
-1.52646e-18
-5.36458e-18
-2.37948e-18
-4.78527e-18
-3.09774e-18
-4.13453e-18
-3.68306e-18
-3.42861e-18
-4.13225e-18
-2.68915e-18
-4.44292e-18
-1.93976e-18
-4.61647e-18
-1.20352e-18
-4.65932e-18
-5.01078e-19
-4.58282e-18
1.50598e-19
-4.4023e-18
7.38824e-19
-4.13572e-18
1.25529e-18
-3.80222e-18
1.69578e-18
-3.42075e-18
2.05959e-18
-3.00901e-18
2.34887e-18
-2.58274e-18
2.56785e-18
-2.15527e-18
2.7222e-18
-1.73733e-18
2.8184e-18
-1.33719e-18
2.86327e-18
-9.60748e-19
2.86357e-18
-6.11882e-19