/*--------------------------------*- C++ -*----------------------------------*\
  =========                 |
  \\      /  F ield         | OpenFOAM: The Open Source CFD Toolbox
   \\    /   O peration     | Website:  https://openfoam.org
    \\  /    A nd           | Version:  6
     \\/     M anipulation  |
\*---------------------------------------------------------------------------*/
FoamFile
{
    version     2.0;
    format      ascii;
    class       volScalarField;
    location    "1200";
    object      Su;
}
// * * * * * * * * * * * * * * * * * * * * * * * * * * * * * * * * * * * * * //

dimensions      [0 0 -1 0 0 0 0];

internalField   nonuniform List<scalar> 
4800
(
0.217633
0.211723
0.205843
0.20002
0.194288
0.188686
0.183254
0.178033
0.17305
0.168323
0.163853
0.159632
0.155652
0.151902
0.148365
0.14502
0.141848
0.138827
0.135936
0.133153
0.130462
0.127844
0.125287
0.122777
0.120303
0.117852
0.115414
0.112981
0.110552
0.108123
0.105696
0.103269
0.10085
0.098449
0.0960755
0.0937381
0.0914445
0.0892025
0.0870176
0.0848902
0.0828215
0.0808148
0.0788704
0.0769874
0.0751635
0.0733962
0.0716822
0.0700182
0.0683972
0.0668114
0.0652594
0.0637391
0.0622425
0.060764
0.0592983
0.057837
0.0563751
0.0549115
0.0534295
0.0519126
0.0503632
0.048778
0.0471424
0.0454444
0.0436713
0.0418077
0.0398567
0.0378054
0.0356226
0.033308
0.0308776
0.0283442
0.025714
0.0229864
0.0201686
0.0172846
0.0143675
0.011457
0.00857143
0.00569872
0.00279831
-0.000144905
-0.00310889
-0.0060808
-0.00905309
-0.0120213
-0.0149826
-0.0179357
-0.0208795
-0.0238136
-0.0267381
-0.0296529
-0.0325584
-0.0354547
-0.0383424
-0.0412217
-0.0440933
-0.0469575
-0.0498147
-0.0526656
-0.0555103
-0.0583496
-0.0611836
-0.0640129
-0.0668378
-0.0696587
-0.072476
-0.0752899
-0.0781008
-0.080909
-0.0837147
-0.0865183
-0.08932
-0.09212
-0.0949186
-0.097716
-0.100512
-0.103308
-0.106103
-0.108898
0.217599
0.211629
0.205703
0.199852
0.194108
0.188514
0.183104
0.177909
0.172958
0.16826
0.163816
0.159618
0.15566
0.151931
0.148412
0.145084
0.141925
0.138914
0.136028
0.133248
0.130557
0.12794
0.125382
0.12287
0.120391
0.117935
0.115492
0.113057
0.110628
0.108203
0.105782
0.103366
0.100961
0.0985754
0.0962208
0.0939064
0.0916377
0.0894155
0.0872431
0.0851254
0.083066
0.0810669
0.0791284
0.0772483
0.0754236
0.0736523
0.0719319
0.0702596
0.0686278
0.0670327
0.0654715
0.0639391
0.0624292
0.0609387
0.0594606
0.0579859
0.0565106
0.055031
0.0535265
0.0519944
0.0504363
0.0488372
0.0471906
0.0454897
0.0437203
0.0418681
0.0399299
0.0378978
0.0357556
0.0334882
0.0310928
0.0285775
0.0259458
0.0232011
0.020365
0.0174722
0.0145506
0.0116222
0.00870056
0.00578411
0.00284538
-0.000119747
-0.00309638
-0.00607573
-0.00905246
-0.0120233
-0.0149862
-0.0179402
-0.0208845
-0.0238189
-0.0267434
-0.0296581
-0.0325634
-0.0354595
-0.038347
-0.0412261
-0.0440974
-0.0469613
-0.0498183
-0.0526688
-0.0555133
-0.0583523
-0.0611861
-0.0640152
-0.0668399
-0.0696606
-0.0724776
-0.0752914
-0.0781021
-0.0809101
-0.0837157
-0.0865192
-0.0893207
-0.0921206
-0.0949191
-0.0977164
-0.100513
-0.103308
-0.106103
-0.108898
0.217547
0.21149
0.205503
0.199612
0.193852
0.188259
0.18287
0.177713
0.172807
0.168155
0.163752
0.159599
0.155683
0.151994
0.148513
0.145217
0.142085
0.139093
0.136221
0.13345
0.130764
0.12815
0.125593
0.12308
0.120599
0.118141
0.115701
0.113275
0.110857
0.108445
0.106038
0.103643
0.101263
0.0989071
0.0965826
0.0942999
0.0920595
0.0898626
0.0877162
0.0856222
0.083583
0.0815991
0.0796691
0.0777911
0.0759624
0.074182
0.072448
0.070757
0.0691039
0.0674904
0.0659103
0.0643577
0.0628249
0.0613068
0.059798
0.058292
0.0567851
0.0552689
0.0537275
0.0521738
0.0505936
0.0489697
0.0473054
0.0455915
0.0438168
0.0419731
0.0400454
0.0380213
0.0358978
0.0336576
0.0312935
0.0288079
0.0262064
0.0234986
0.0206973
0.0178226
0.0148899
0.0119197
0.00892801
0.00592786
0.00292325
-7.85466e-05
-0.00307647
-0.00606848
-0.00905285
-0.0120283
-0.014994
-0.0179495
-0.0208947
-0.0238294
-0.026754
-0.0296685
-0.0325735
-0.0354692
-0.0383561
-0.0412347
-0.0441055
-0.0469688
-0.0498253
-0.0526753
-0.0555193
-0.0583578
-0.0611911
-0.0640197
-0.066844
-0.0696643
-0.0724809
-0.0752943
-0.0781047
-0.0809124
-0.0837178
-0.0865209
-0.0893222
-0.0921219
-0.0949201
-0.0977172
-0.100513
-0.103309
-0.106104
-0.108898
0.217499
0.211352
0.205296
0.199358
0.193569
0.187976
0.182613
0.177496
0.172635
0.168031
0.163685
0.159589
0.155732
0.152098
0.148668
0.145419
0.142326
0.139366
0.136518
0.133766
0.131096
0.128493
0.125946
0.123443
0.120973
0.118527
0.116101
0.113691
0.11129
0.108898
0.106515
0.104147
0.1018
0.0994811
0.0971962
0.0949511
0.0927431
0.0905783
0.0884625
0.0863945
0.0843756
0.0824054
0.0804816
0.078603
0.0767677
0.0749761
0.0732267
0.0715147
0.0698371
0.0681963
0.066584
0.0649996
0.0634304
0.0618704
0.0603189
0.058767
0.0572128
0.0556483
0.0540643
0.052474
0.0508551
0.0492024
0.0475115
0.0457667
0.0439663
0.0421053
0.0401669
0.038134
0.0360057
0.0337761
0.0314377
0.0289885
0.0264294
0.0237594
0.0209878
0.0181286
0.0151902
0.012192
0.00914404
0.00606925
0.00300293
-3.65218e-05
-0.0030576
-0.00606393
-0.00905716
-0.0120381
-0.015007
-0.0179644
-0.0209105
-0.0238456
-0.02677
-0.0296842
-0.0325886
-0.0354837
-0.0383699
-0.0412477
-0.0441176
-0.0469801
-0.0498358
-0.052685
-0.0555282
-0.0583659
-0.0611985
-0.0640264
-0.0668501
-0.0696698
-0.0724859
-0.0752987
-0.0781086
-0.0809159
-0.0837208
-0.0865235
-0.0893245
-0.0921238
-0.0949217
-0.0977185
-0.100514
-0.103309
-0.106104
-0.108898
0.217485
0.211286
0.20515
0.19915
0.19333
0.187731
0.182386
0.177303
0.172486
0.16794
0.163655
0.159623
0.155832
0.152263
0.148894
0.145698
0.142653
0.139735
0.136924
0.134205
0.131562
0.128985
0.126463
0.123983
0.121535
0.119111
0.116709
0.114321
0.111943
0.109577
0.107226
0.104895
0.102586
0.100306
0.0980606
0.0958532
0.0936816
0.0915529
0.0894697
0.0874284
0.0854297
0.0834714
0.0815517
0.079669
0.0778231
0.0760158
0.0742456
0.0725085
0.0708058
0.0691354
0.0674848
0.065859
0.0642435
0.0626313
0.0610268
0.0594184
0.0578044
0.0561816
0.0545459
0.0529045
0.0512382
0.049541
0.0478023
0.0460146
0.0441726
0.0422685
0.0402934
0.0382341
0.0360862
0.0338505
0.0315227
0.0290966
0.0265648
0.0239226
0.0211768
0.0183343
0.0154011
0.0123839
0.00929293
0.00616847
0.0030607
-7.89645e-06
-0.00304836
-0.00606732
-0.00906862
-0.0120546
-0.0150266
-0.0179856
-0.0209324
-0.0238676
-0.0267917
-0.0297053
-0.0326089
-0.035503
-0.0383882
-0.0412649
-0.0441337
-0.0469951
-0.0498497
-0.0526978
-0.05554
-0.0583767
-0.0612084
-0.0640354
-0.0668582
-0.069677
-0.0724924
-0.0753046
-0.0781138
-0.0809204
-0.0837248
-0.086527
-0.0893274
-0.0921263
-0.0949238
-0.0977202
-0.100516
-0.10331
-0.106105
-0.108899
0.21745
0.211185
0.204996
0.198964
0.19314
0.187555
0.182234
0.177189
0.172422
0.167933
0.163712
0.159749
0.156026
0.152522
0.149216
0.14608
0.143089
0.140221
0.137458
0.134783
0.132182
0.129644
0.127156
0.124708
0.12229
0.119898
0.117527
0.115169
0.112821
0.110488
0.108174
0.105882
0.103614
0.101374
0.0991704
0.0970041
0.0948725
0.0927805
0.0907287
0.0887121
0.0867292
0.0847776
0.0828566
0.0809645
0.0791029
0.0772746
0.0754783
0.0737135
0.071983
0.070276
0.0685834
0.0669138
0.0652479
0.0635763
0.0619123
0.0602436
0.058563
0.0568748
0.0551744
0.0534652
0.0517335
0.0499712
0.0481712
0.0463244
0.044424
0.0424659
0.0404401
0.0383372
0.0361567
0.0338992
0.0315605
0.029132
0.0266039
0.0239742
0.0212445
0.0184135
0.0154846
0.0124658
0.00936744
0.00621928
0.0030847
-2.01858e-06
-0.00305517
-0.00608285
-0.00908994
-0.0120795
-0.0150537
-0.0180137
-0.0209608
-0.0238957
-0.0268192
-0.0297318
-0.0326343
-0.0355272
-0.038411
-0.0412864
-0.0441538
-0.0470138
-0.049867
-0.0527138
-0.0555547
-0.0583902
-0.0612206
-0.0640465
-0.0668682
-0.0696861
-0.0725005
-0.0753118
-0.0781202
-0.0809261
-0.0837297
-0.0865313
-0.0893311
-0.0921294
-0.0949264
-0.0977222
-0.100517
-0.103311
-0.106105
-0.108899
0.217433
0.211143
0.204934
0.198879
0.19305
0.187483
0.182194
0.177194
0.172487
0.168061
0.163906
0.16001
0.156355
0.152917
0.149672
0.146596
0.143661
0.140849
0.138138
0.135513
0.132963
0.130471
0.128028
0.125621
0.123243
0.120889
0.118553
0.11623
0.113918
0.111624
0.109351
0.1071
0.104875
0.102679
0.10052
0.0983944
0.0963021
0.0942432
0.0922172
0.0902171
0.0882416
0.0862908
0.0843636
0.0824577
0.0805776
0.0787235
0.0768976
0.0751033
0.0733386
0.0715912
0.0698567
0.0681387
0.0664195
0.0646948
0.062975
0.0612413
0.0594886
0.0577284
0.0559546
0.0541677
0.0523569
0.0505153
0.048636
0.0467068
0.0447252
0.04269
0.0405961
0.0384373
0.0362123
0.0339197
0.0315525
0.0291018
0.0265606
0.023929
0.0212051
0.0183816
0.0154575
0.01244
0.00934409
0.0062005
0.00306684
-2.37845e-05
-0.00308151
-0.00611303
-0.00912288
-0.0121142
-0.0150891
-0.0180493
-0.020996
-0.0239301
-0.0268525
-0.0297638
-0.0326648
-0.0355561
-0.0384383
-0.041312
-0.0441778
-0.0470362
-0.0498877
-0.0527329
-0.0555722
-0.0584062
-0.0612352
-0.0640598
-0.0668802
-0.0696969
-0.0725102
-0.0753204
-0.0781279
-0.0809328
-0.0837356
-0.0865364
-0.0893355
-0.0921331
-0.0949294
-0.0977247
-0.100519
-0.103313
-0.106106
-0.108899
0.217419
0.211112
0.204909
0.198875
0.193071
0.187539
0.182299
0.177358
0.172713
0.168353
0.164269
0.160446
0.156859
0.153485
0.150299
0.147276
0.144395
0.141636
0.13898
0.136412
0.133916
0.131475
0.129082
0.126721
0.124386
0.122074
0.119779
0.117495
0.115222
0.11297
0.110738
0.108527
0.106343
0.104189
0.102073
0.0999863
0.0979295
0.0959005
0.0938953
0.0919061
0.0899348
0.0879815
0.086043
0.0841185
0.0822148
0.0803328
0.0784781
0.076653
0.0748506
0.0730651
0.0712877
0.0695203
0.0677513
0.0659742
0.0641949
0.0623959
0.0605727
0.0587354
0.056881
0.055007
0.0531036
0.0511659
0.0491902
0.0471669
0.0450936
0.0429685
0.04079
0.038557
0.036271
0.0339277
0.0315181
0.0290313
0.0264636
0.0238163
0.0210841
0.0182599
0.0153401
0.0123302
0.00925018
0.00613006
0.00301275
-7.18212e-05
-0.00312748
-0.00615837
-0.00916795
-0.0121589
-0.0151332
-0.0180925
-0.021038
-0.0239707
-0.0268915
-0.0298012
-0.0327003
-0.0355898
-0.03847
-0.0413418
-0.0442056
-0.047062
-0.0499116
-0.0527549
-0.0555925
-0.0584247
-0.0612521
-0.0640751
-0.066894
-0.0697093
-0.0725213
-0.0753303
-0.0781367
-0.0809406
-0.0837424
-0.0865423
-0.0893406
-0.0921374
-0.094933
-0.0977275
-0.100521
-0.103314
-0.106107
-0.108899
0.217411
0.211096
0.204912
0.198927
0.193189
0.187727
0.182558
0.177692
0.173121
0.168835
0.164827
0.161077
0.157558
0.154248
0.151123
0.148154
0.145325
0.142618
0.140013
0.137496
0.135051
0.132662
0.130317
0.128003
0.125715
0.123448
0.121193
0.118947
0.116712
0.1145
0.112307
0.110137
0.107995
0.105884
0.10381
0.101759
0.099731
0.0977253
0.0957329
0.0937495
0.0917785
0.0898174
0.087863
0.0859158
0.0839856
0.082077
0.0801939
0.0783368
0.0764971
0.0746713
0.0728464
0.0710292
0.069209
0.0673802
0.0655441
0.063682
0.0617915
0.0598776
0.0579394
0.0559751
0.0539776
0.0519416
0.0498622
0.0477314
0.0455512
0.0433236
0.041049
0.0387307
0.0363677
0.0339545
0.0314863
0.0289515
0.0263471
0.0236755
0.0209292
0.0181011
0.0151887
0.0121958
0.00913749
0.00603719
0.00293369
-0.000141264
-0.00319083
-0.00621778
-0.00922457
-0.0122133
-0.0151857
-0.018143
-0.0210866
-0.0240174
-0.0269361
-0.0298437
-0.0327407
-0.0356279
-0.0385059
-0.0413754
-0.044237
-0.0470912
-0.0499387
-0.0527799
-0.0556154
-0.0584457
-0.0612712
-0.0640924
-0.0669097
-0.0697234
-0.0725339
-0.0753416
-0.0781466
-0.0809494
-0.0837501
-0.086549
-0.0893463
-0.0921422
-0.0949369
-0.0977307
-0.100524
-0.103316
-0.106108
-0.1089
0.217435
0.211172
0.205049
0.199135
0.193474
0.18809
0.183
0.178212
0.173719
0.169513
0.165585
0.16191
0.158462
0.155221
0.152159
0.149246
0.146473
0.143817
0.141263
0.138792
0.136392
0.134047
0.131743
0.129468
0.127218
0.124989
0.122769
0.120556
0.118358
0.116183
0.114027
0.111894
0.109794
0.10772
0.105675
0.103648
0.101639
0.0996495
0.0976638
0.0956849
0.0937153
0.0917469
0.0897783
0.0878123
0.0858605
0.083928
0.0820144
0.0801203
0.078237
0.0763612
0.0744879
0.0726222
0.0707548
0.0688801
0.0669889
0.0650648
0.0631079
0.0611223
0.0591088
0.0570585
0.0549655
0.0528255
0.0506355
0.048392
0.046099
0.0437602
0.0413791
0.0389601
0.0365029
0.0340075
0.03147
0.0288795
0.0262308
0.0235238
0.020753
0.0179152
0.0150083
0.0120313
0.0089961
0.00592001
0.00283501
-0.000227476
-0.00326839
-0.00628915
-0.00929132
-0.0122764
-0.0152457
-0.0182003
-0.0211413
-0.0240696
-0.0269859
-0.029891
-0.0327855
-0.0356703
-0.0385458
-0.0414128
-0.0442719
-0.0471236
-0.0499687
-0.0528076
-0.0556408
-0.0584689
-0.0612924
-0.0641116
-0.066927
-0.069739
-0.0725479
-0.075354
-0.0781576
-0.0809591
-0.0837586
-0.0865563
-0.0893525
-0.0921475
-0.0949413
-0.0977342
-0.100526
-0.103318
-0.106109
-0.1089
0.217486
0.211325
0.205303
0.199483
0.193909
0.18861
0.183605
0.1789
0.17449
0.170372
0.16653
0.162937
0.159568
0.156403
0.153409
0.150559
0.147844
0.145243
0.142737
0.14031
0.137949
0.135637
0.133361
0.13111
0.128885
0.12668
0.124482
0.122295
0.120131
0.117985
0.115862
0.113762
0.111695
0.109649
0.107626
0.105619
0.103626
0.101648
0.0996716
0.0977018
0.0957333
0.0937586
0.0917792
0.0897965
0.0878202
0.0858554
0.0839009
0.0819601
0.0800297
0.0781082
0.0761944
0.0742843
0.0723687
0.0704409
0.0684923
0.0665099
0.0644919
0.0624418
0.0603579
0.0582268
0.056045
0.0538062
0.0515099
0.049154
0.046743
0.0442868
0.0417931
0.0392681
0.0367105
0.0341198
0.0314959
0.0288358
0.0261349
0.0233883
0.0205928
0.0177426
0.0148337
0.0118647
0.00884664
0.00579202
0.00272427
-0.000325285
-0.00335646
-0.0063698
-0.00936619
-0.0123466
-0.015312
-0.0182633
-0.0212013
-0.0241267
-0.0270403
-0.0299426
-0.0328345
-0.0357165
-0.0385893
-0.0414536
-0.04431
-0.0471591
-0.0500015
-0.0528378
-0.0556686
-0.0584943
-0.0613155
-0.0641326
-0.066946
-0.069756
-0.0725631
-0.0753676
-0.0781697
-0.0809697
-0.0837678
-0.0865643
-0.0893594
-0.0921533
-0.0949461
-0.0977381
-0.100529
-0.10332
-0.10611
-0.1089
0.217554
0.211529
0.205635
0.199932
0.194463
0.189264
0.184356
0.179745
0.175427
0.171398
0.167642
0.164135
0.160849
0.157765
0.154843
0.152064
0.149412
0.146868
0.144413
0.14203
0.139705
0.137418
0.135159
0.132923
0.130711
0.128517
0.12633
0.124159
0.12201
0.119878
0.117771
0.115688
0.113636
0.111603
0.109595
0.107604
0.105627
0.10366
0.101692
0.099725
0.0977536
0.0957734
0.0937842
0.0917816
0.089779
0.0877834
0.0857962
0.0838222
0.0818568
0.0798957
0.0779378
0.0759784
0.0740151
0.072039
0.0700377
0.068001
0.0659286
0.0638211
0.0616698
0.0594637
0.0571996
0.0548711
0.0524745
0.0500092
0.0474805
0.0449018
0.0422846
0.0396385
0.0369683
0.0342771
0.0315642
0.0288295
0.0260689
0.023276
0.0204493
0.0175824
0.0146682
0.0117045
0.0086984
0.00566006
0.00260751
-0.000429878
-0.00345122
-0.0064567
-0.00944679
-0.0124221
-0.0153833
-0.0183309
-0.0212656
-0.0241879
-0.0270985
-0.029998
-0.032887
-0.0357661
-0.0386361
-0.0414975
-0.044351
-0.0471973
-0.0500369
-0.0528705
-0.0556986
-0.0585218
-0.0613405
-0.0641552
-0.0669664
-0.0697744
-0.0725796
-0.0753822
-0.0781826
-0.0809811
-0.0837778
-0.0865729
-0.0893668
-0.0921595
-0.0949512
-0.0977422
-0.100532
-0.103322
-0.106112
-0.108901
0.21763
0.211755
0.206003
0.200433
0.19509
0.190012
0.18522
0.180719
0.176503
0.172569
0.168904
0.165484
0.16228
0.159272
0.156422
0.153714
0.151129
0.148644
0.146241
0.143899
0.141607
0.139343
0.1371
0.134875
0.132674
0.130487
0.128304
0.126134
0.123982
0.121841
0.11973
0.11764
0.115581
0.113546
0.111535
0.109547
0.107576
0.105615
0.103655
0.101694
0.0997268
0.0977489
0.0957566
0.0937366
0.0917142
0.0896941
0.087682
0.0856758
0.0836771
0.0816775
0.0796845
0.0776828
0.0756784
0.0736573
0.0716089
0.0695272
0.067407
0.0652431
0.0630297
0.0607562
0.0584137
0.0559997
0.0535112
0.0509446
0.0483016
0.0456013
0.0428609
0.04009
0.0372986
0.0344966
0.0316869
0.0288699
0.0260423
0.0231976
0.0203319
0.0174394
0.0145162
0.0115589
0.00856323
0.00553312
0.00248972
-0.000537047
-0.003549
-0.0065467
-0.00953049
-0.0125006
-0.0154575
-0.0184014
-0.0213328
-0.0242521
-0.0271598
-0.0300564
-0.0329425
-0.0358187
-0.0386857
-0.0415441
-0.0443946
-0.0472379
-0.0500746
-0.0529052
-0.0557305
-0.058551
-0.0613671
-0.0641794
-0.0669882
-0.069794
-0.0725971
-0.0753978
-0.0781964
-0.0809932
-0.0837883
-0.0865821
-0.0893746
-0.0921661
-0.0949567
-0.0977465
-0.100536
-0.103325
-0.106113
-0.108901
0.217715
0.212007
0.20641
0.200981
0.195775
0.190832
0.186168
0.18179
0.177691
0.173868
0.1703
0.16697
0.163849
0.160916
0.158136
0.155495
0.15297
0.150534
0.148179
0.145872
0.143607
0.141364
0.139133
0.136918
0.134726
0.132541
0.130353
0.128174
0.126006
0.123848
0.121714
0.1196
0.117517
0.115462
0.113436
0.111438
0.109458
0.107494
0.105534
0.103572
0.101607
0.0996413
0.0976478
0.0956177
0.0935888
0.0915553
0.0895267
0.0874959
0.0854724
0.0834406
0.0814188
0.0793813
0.0773438
0.0752863
0.0732005
0.0710813
0.0689197
0.066709
0.0644398
0.0620987
0.0596797
0.0571852
0.0546125
0.0519487
0.0491935
0.0463705
0.0435024
0.0406034
0.0376898
0.0347758
0.0318656
0.0289594
0.0260568
0.0231523
0.0202384
0.017312
0.0143704
0.011407
0.00841609
0.00540026
0.00237175
-0.000643435
-0.00364619
-0.00663658
-0.00961449
-0.0125799
-0.0155328
-0.0184733
-0.0214017
-0.0243181
-0.0272231
-0.0301169
-0.0330002
-0.0358735
-0.0387376
-0.041593
-0.0444404
-0.0472806
-0.0501142
-0.0529419
-0.0557642
-0.0585818
-0.0613952
-0.0642048
-0.0670112
-0.0698146
-0.0726155
-0.0754142
-0.0782109
-0.0810059
-0.0837995
-0.0865917
-0.0893829
-0.092173
-0.0949624
-0.0977511
-0.100539
-0.103327
-0.106115
-0.108902
0.217814
0.212294
0.206874
0.201614
0.19657
0.19178
0.187254
0.182998
0.179014
0.175299
0.171832
0.168595
0.165555
0.162695
0.159982
0.157401
0.154927
0.152536
0.150221
0.147938
0.145689
0.143455
0.141229
0.139018
0.136825
0.134632
0.13243
0.130232
0.128038
0.125852
0.123683
0.121536
0.119419
0.117333
0.115284
0.113264
0.111265
0.109285
0.107318
0.105349
0.103383
0.101425
0.0994212
0.0973959
0.0953705
0.0933361
0.0913018
0.0892623
0.0872218
0.08517
0.0831233
0.0810658
0.0790056
0.0769255
0.0748117
0.0726592
0.0704601
0.0682043
0.0658799
0.063476
0.060989
0.058426
0.0557811
0.0530255
0.0501585
0.0472112
0.0442152
0.0411861
0.0381438
0.0351096
0.0320925
0.0290942
0.0261131
0.0231426
0.0201744
0.0172054
0.014234
0.0112563
0.00826919
0.00527056
0.00225945
-0.000744322
-0.00373885
-0.00672294
-0.00969592
-0.0126574
-0.0156071
-0.0185449
-0.0214707
-0.0243848
-0.0272874
-0.0301787
-0.0330594
-0.03593
-0.0387912
-0.0416436
-0.0444879
-0.047325
-0.0501555
-0.05298
-0.0557993
-0.0586139
-0.0614245
-0.0642314
-0.0670351
-0.0698362
-0.0726348
-0.0754313
-0.0782261
-0.0810193
-0.0838111
-0.0866018
-0.0893914
-0.0921803
-0.0949684
-0.0977559
-0.100543
-0.10333
-0.106116
-0.108902
0.217913
0.212592
0.207367
0.202294
0.197428
0.1928
0.188422
0.184303
0.180447
0.176846
0.173485
0.170342
0.167387
0.164601
0.161955
0.15943
0.157
0.154646
0.152351
0.150082
0.147838
0.145606
0.143377
0.141159
0.138952
0.136734
0.134502
0.132269
0.130037
0.127811
0.125597
0.123407
0.121247
0.119126
0.117045
0.114992
0.112966
0.110967
0.108992
0.107017
0.105052
0.103089
0.10108
0.0990645
0.0970421
0.0950167
0.0929866
0.0909512
0.0889076
0.0868529
0.084795
0.0827307
0.0806535
0.0785573
0.0764235
0.0742495
0.072023
0.0697299
0.0673596
0.0649008
0.0623551
0.0597338
0.0570228
0.0541779
0.0511995
0.0481263
0.044998
0.0418365
0.0386674
0.0355147
0.0323892
0.0292927
0.0262241
0.0231808
0.0201558
0.0171417
0.0141352
0.0111361
0.00814666
0.00515964
0.00216158
-0.000834207
-0.00382291
-0.0068025
-0.00977197
-0.0127307
-0.0156783
-0.0186142
-0.0215385
-0.0244509
-0.0273516
-0.0302409
-0.0331194
-0.0359875
-0.0388459
-0.0416954
-0.0445367
-0.0473707
-0.050198
-0.0530194
-0.0558356
-0.0586471
-0.0614547
-0.0642588
-0.0670599
-0.0698584
-0.0726547
-0.075449
-0.0782417
-0.081033
-0.0838231
-0.0866121
-0.0894003
-0.0921877
-0.0949745
-0.0977608
-0.100547
-0.103332
-0.106118
-0.108903
0.218015
0.212892
0.207866
0.202996
0.198321
0.193865
0.18965
0.185685
0.18197
0.178495
0.175246
0.172203
0.169334
0.16662
0.164037
0.161558
0.159162
0.156836
0.154548
0.152287
0.15004
0.147802
0.145564
0.143329
0.14109
0.138828
0.136552
0.134269
0.131984
0.129702
0.127433
0.12519
0.122984
0.120817
0.118692
0.1166
0.114546
0.112531
0.110547
0.108569
0.106604
0.104631
0.10263
0.100626
0.0986138
0.0966
0.0945788
0.0925556
0.0905211
0.088476
0.0864236
0.0843608
0.0822811
0.0801748
0.0780271
0.0758378
0.0735919
0.0712697
0.068858
0.0663524
0.0637592
0.0610861
0.0583092
0.0553773
0.0522929
0.0490995
0.0458423
0.0425471
0.0392479
0.035973
0.0327349
0.0295388
0.0263847
0.0232694
0.020187
0.0171291
0.0140897
0.0110707
0.00807415
0.00508389
0.00208518
-0.000908998
-0.00389528
-0.00687251
-0.00984016
-0.0127977
-0.0157444
-0.0186799
-0.0216035
-0.0245151
-0.0274147
-0.0303026
-0.0331792
-0.0360452
-0.0389011
-0.0417479
-0.0445863
-0.0474172
-0.0502413
-0.0530596
-0.0558726
-0.0586811
-0.0614857
-0.0642869
-0.0670853
-0.0698812
-0.072675
-0.0754671
-0.0782577
-0.081047
-0.0838353
-0.0866227
-0.0894093
-0.0921953
-0.0949808
-0.0977658
-0.100551
-0.103335
-0.106119
-0.108903
0.21813
0.213232
0.208418
0.203751
0.199269
0.194997
0.190955
0.187148
0.183577
0.180231
0.177097
0.174153
0.17137
0.168726
0.166194
0.163753
0.161384
0.159077
0.156792
0.154531
0.152278
0.15003
0.14777
0.145498
0.14321
0.140892
0.138556
0.136209
0.133858
0.131511
0.12918
0.12688
0.12462
0.1224
0.120226
0.118095
0.116016
0.113987
0.111993
0.110013
0.108044
0.106072
0.104088
0.102098
0.100102
0.0981041
0.0961001
0.0940947
0.0920748
0.0900433
0.0880021
0.085947
0.0838745
0.0817678
0.0796142
0.077417
0.0751541
0.0728064
0.0703632
0.0678224
0.0651904
0.0624736
0.0596323
0.0566102
0.0534123
0.0500918
0.0467072
0.0432905
0.0398745
0.0364859
0.0331406
0.0298458
0.0266036
0.023412
0.0202662
0.0171616
0.0140936
0.0110582
0.00804461
0.00503693
0.00202902
-0.000968364
-0.00395462
-0.00693114
-0.00989855
-0.0128565
-0.015804
-0.0187403
-0.0216646
-0.0245765
-0.0274759
-0.030363
-0.0332383
-0.0361025
-0.0389563
-0.0418005
-0.0446361
-0.047464
-0.0502851
-0.0531002
-0.0559101
-0.0587155
-0.061517
-0.0643154
-0.067111
-0.0699043
-0.0726956
-0.0754854
-0.0782739
-0.0810612
-0.0838477
-0.0866334
-0.0894184
-0.092203
-0.0949871
-0.0977709
-0.100554
-0.103338
-0.106121
-0.108904
0.218247
0.213584
0.208999
0.204553
0.20028
0.196204
0.192336
0.188683
0.185252
0.182034
0.179016
0.176172
0.173468
0.170883
0.168394
0.165989
0.163644
0.161346
0.159066
0.156803
0.154539
0.152269
0.149974
0.147655
0.145307
0.142921
0.140514
0.138091
0.135661
0.133238
0.130839
0.128481
0.126165
0.12389
0.121666
0.119501
0.117403
0.115362
0.11336
0.111382
0.109419
0.10746
0.105498
0.103527
0.10155
0.0995706
0.0975882
0.0956012
0.0935977
0.0915814
0.089555
0.0875129
0.0854508
0.0833537
0.0812043
0.0790089
0.0767364
0.0743682
0.0718979
0.0693282
0.0666663
0.0639078
0.060997
0.0578791
0.0545688
0.0511281
0.0476204
0.0440819
0.0405509
0.0370529
0.0336035
0.0302122
0.0268822
0.0236104
0.0203965
0.0172434
0.0141486
0.0110949
0.00805329
0.0050145
0.00198685
-0.00101557
-0.0040014
-0.00697742
-0.00994572
-0.0129057
-0.0158558
-0.0187945
-0.0217209
-0.0246342
-0.0275343
-0.0304214
-0.033296
-0.0361589
-0.0390108
-0.0418527
-0.0446857
-0.0475108
-0.0503289
-0.0531409
-0.0559476
-0.0587499
-0.0615485
-0.0643439
-0.0671367
-0.0699274
-0.0727163
-0.0755038
-0.0782901
-0.0810755
-0.0838601
-0.0866441
-0.0894276
-0.0922106
-0.0949934
-0.0977759
-0.100558
-0.10334
-0.106122
-0.108904
0.218366
0.213937
0.209586
0.205361
0.201298
0.197418
0.193731
0.190245
0.186962
0.183874
0.180968
0.17822
0.175592
0.173061
0.170612
0.168237
0.16591
0.163621
0.161346
0.159076
0.156798
0.154497
0.152163
0.149788
0.147371
0.144913
0.142427
0.139921
0.137407
0.134905
0.132439
0.130024
0.12765
0.125319
0.123051
0.120863
0.118757
0.116711
0.11471
0.112742
0.110797
0.108862
0.106923
0.104976
0.103019
0.101059
0.0990962
0.0971248
0.0951389
0.0931372
0.0911253
0.0890971
0.0870475
0.0849629
0.0828221
0.0806293
0.0783533
0.0759717
0.0734826
0.0708879
0.0681975
0.0653928
0.0624026
0.0591829
0.0557633
0.0522091
0.0485784
0.0449155
0.0412714
0.0376718
0.0341275
0.0306445
0.0272253
0.0238689
0.0205832
0.0173753
0.0142419
0.011158
0.00808387
0.005005
0.00194094
-0.00105824
-0.00403698
-0.00701063
-0.00998066
-0.0129445
-0.0158991
-0.0188421
-0.021772
-0.0246879
-0.0275896
-0.0304774
-0.0333518
-0.0362137
-0.0390641
-0.041904
-0.0447346
-0.047557
-0.0503722
-0.0531811
-0.0559849
-0.0587841
-0.0615797
-0.0643723
-0.0671623
-0.0699504
-0.0727368
-0.075522
-0.0783062
-0.0810896
-0.0838724
-0.0866547
-0.0894366
-0.0922183
-0.0949997
-0.0977809
-0.100562
-0.103343
-0.106124
-0.108905
0.218486
0.214298
0.21018
0.206175
0.202316
0.198626
0.195118
0.191798
0.188665
0.185709
0.182914
0.180253
0.177691
0.17521
0.172803
0.170465
0.16816
0.16588
0.163606
0.161331
0.159033
0.156698
0.154316
0.15188
0.149391
0.146856
0.14429
0.141703
0.13911
0.136535
0.13401
0.131546
0.129116
0.126731
0.124428
0.122233
0.120133
0.118097
0.116111
0.114164
0.112246
0.110343
0.108433
0.106515
0.104581
0.102641
0.10069
0.0987261
0.0967488
0.0947571
0.0927567
0.09074
0.0887006
0.0866256
0.0844937
0.0823018
0.0800222
0.077631
0.0751313
0.0725238
0.0698101
0.0669508
0.063871
0.0605396
0.0569953
0.0533104
0.0495522
0.0457823
0.0420424
0.0383521
0.0347201
0.0311483
0.0276391
0.0241959
0.0208334
0.0175586
0.0143667
0.0112324
0.00811391
0.00498192
0.00184069
-0.00110698
-0.00406045
-0.00702897
-0.0100026
-0.0129729
-0.0159343
-0.0188834
-0.0218181
-0.0247376
-0.0276417
-0.0305307
-0.0334054
-0.0362667
-0.0391159
-0.041954
-0.0447824
-0.0476022
-0.0504146
-0.0532206
-0.0560214
-0.0588177
-0.0616104
-0.0644001
-0.0671875
-0.069973
-0.072757
-0.0755399
-0.078322
-0.0811034
-0.0838844
-0.0866651
-0.0894455
-0.0922257
-0.0950058
-0.0977858
-0.100566
-0.103346
-0.106126
-0.108906
0.218601
0.214644
0.210756
0.20697
0.203317
0.199816
0.196483
0.193324
0.190333
0.187495
0.184795
0.182216
0.17972
0.177297
0.174937
0.172637
0.170355
0.168091
0.165824
0.163542
0.161224
0.158854
0.156423
0.153925
0.151368
0.148763
0.146123
0.143462
0.1408
0.138164
0.135591
0.133088
0.130609
0.128177
0.125856
0.123672
0.121594
0.119585
0.117624
0.115711
0.113836
0.111979
0.110111
0.108229
0.106319
0.104397
0.102456
0.100501
0.0985271
0.0965329
0.0945277
0.0925085
0.0904649
0.0883848
0.0862502
0.0840505
0.0817646
0.0793729
0.0768704
0.0742524
0.0715067
0.0685742
0.0653895
0.0619426
0.0582749
0.0544599
0.0505857
0.0467188
0.0428877
0.0391149
0.0354015
0.0317445
0.0281457
0.0246119
0.0211595
0.0177956
0.0145174
0.0113125
0.00814911
0.0049519
0.00138987
-0.00115365
-0.0040599
-0.00702843
-0.0100116
-0.0129923
-0.015963
-0.0189197
-0.0218602
-0.0247839
-0.0276908
-0.0305814
-0.0334566
-0.0363176
-0.0391657
-0.0420022
-0.0448285
-0.0476458
-0.0504556
-0.0532589
-0.0560568
-0.0588503
-0.0616402
-0.0644272
-0.0672119
-0.0699949
-0.0727766
-0.0755573
-0.0783373
-0.0811169
-0.0838961
-0.0866752
-0.0894541
-0.0922329
-0.0950118
-0.0977906
-0.100569
-0.103348
-0.106127
-0.108906
0.218712
0.214976
0.211305
0.207731
0.204277
0.200961
0.197795
0.194785
0.191927
0.189201
0.186596
0.184099
0.181675
0.179314
0.177
0.174737
0.172484
0.170238
0.167983
0.165698
0.16336
0.160953
0.158473
0.155922
0.153309
0.150646
0.147945
0.145223
0.142503
0.139818
0.137216
0.134688
0.13218
0.12972
0.1274
0.125247
0.123216
0.121255
0.119335
0.117462
0.115638
0.11384
0.112031
0.110197
0.108315
0.106407
0.104472
0.102518
0.100538
0.0985345
0.0965111
0.094465
0.0923907
0.0902814
0.088122
0.0858991
0.0835965
0.0811969
0.0786835
0.0760444
0.0732424
0.070207
0.0668935
0.0633101
0.0595155
0.0556026
0.0516487
0.047707
0.0438148
0.0399827
0.0361952
0.0324498
0.0287548
0.0251173
0.0215569
0.0180855
0.0147111
0.0114444
0.00827434
0.00514103
0.00198878
-0.00100486
-0.00400133
-0.00700713
-0.0100118
-0.0130074
-0.015989
-0.0189537
-0.0219002
-0.0248281
-0.0277377
-0.0306298
-0.0335055
-0.0363662
-0.0392132
-0.0420482
-0.0448725
-0.0476876
-0.0504949
-0.0532956
-0.0560908
-0.0588815
-0.0616687
-0.0644531
-0.0672353
-0.0700159
-0.0727953
-0.0755739
-0.078352
-0.0811298
-0.0839073
-0.0866848
-0.0894623
-0.0922398
-0.0950174
-0.0977951
-0.100573
-0.103351
-0.106129
-0.108907
0.218815
0.215287
0.211822
0.208446
0.20518
0.202041
0.199039
0.196178
0.193443
0.190826
0.18832
0.185906
0.183551
0.181246
0.178977
0.176752
0.174527
0.172304
0.170063
0.167773
0.165415
0.162983
0.160471
0.15788
0.155219
0.152501
0.149747
0.146981
0.144231
0.141529
0.138923
0.136399
0.133894
0.13143
0.129136
0.127049
0.1251
0.123213
0.121333
0.119485
0.117716
0.115992
0.114277
0.112526
0.110682
0.108788
0.106848
0.104869
0.102856
0.100815
0.0987449
0.0966478
0.0945171
0.092346
0.0901309
0.0878616
0.0855273
0.0831192
0.0806018
0.0779249
0.0750271
0.0718457
0.0683598
0.0646129
0.0606926
0.0566989
0.0526959
0.0487304
0.0448285
0.0409647
0.0371037
0.0332533
0.0294452
0.025698
0.0220277
0.0184495
0.0149832
0.0116463
0.0084399
0.00532493
0.00221111
-0.000884035
-0.00394708
-0.00699095
-0.0100179
-0.0130274
-0.0160184
-0.0189897
-0.0219408
-0.0248718
-0.0277833
-0.0306763
-0.0335521
-0.0364123
-0.0392583
-0.0420917
-0.0449142
-0.0477271
-0.050532
-0.0533302
-0.0561228
-0.058911
-0.0616956
-0.0644775
-0.0672574
-0.0700357
-0.072813
-0.0755897
-0.0783659
-0.0811419
-0.0839179
-0.0866939
-0.08947
-0.0922463
-0.0950228
-0.0977994
-0.100576
-0.103353
-0.10613
-0.108907
0.218913
0.215577
0.212301
0.20911
0.206023
0.203053
0.200206
0.197482
0.194868
0.192365
0.189946
0.187611
0.185324
0.183077
0.180857
0.178667
0.176474
0.174277
0.172048
0.16976
0.167398
0.164954
0.162416
0.159789
0.157086
0.154326
0.15154
0.14876
0.146014
0.143331
0.140756
0.138273
0.135815
0.133375
0.131131
0.129129
0.127282
0.125481
0.123642
0.121808
0.120104
0.118484
0.116916
0.115285
0.113482
0.111592
0.109625
0.10759
0.105522
0.10343
0.101287
0.0991027
0.0968768
0.0945975
0.0922818
0.0899236
0.0875326
0.0851153
0.0825859
0.0798395
0.0768097
0.0734558
0.069792
0.0658819
0.0618444
0.0577817
0.0537572
0.0498127
0.0459494
0.0420793
0.0381307
0.0341576
0.030245
0.026411
0.0226567
0.0189758
0.0154035
0.011958
0.00863993
0.00544915
0.00230386
-0.000836022
-0.00394089
-0.00701014
-0.0100499