/*--------------------------------*- C++ -*----------------------------------*\
  =========                 |
  \\      /  F ield         | OpenFOAM: The Open Source CFD Toolbox
   \\    /   O peration     | Website:  https://openfoam.org
    \\  /    A nd           | Version:  6
     \\/     M anipulation  |
\*---------------------------------------------------------------------------*/
FoamFile
{
    version     2.0;
    format      ascii;
    class       volScalarField;
    location    "1200";
    object      T;
}
// * * * * * * * * * * * * * * * * * * * * * * * * * * * * * * * * * * * * * //

dimensions      [0 0 0 1 0 0 0];

internalField   nonuniform List<scalar> 
4800
(
552.443
552.228
552.015
551.804
551.596
551.393
551.196
551.007
550.826
550.654
550.492
550.339
550.195
550.059
549.931
549.809
549.694
549.585
549.48
549.379
549.281
549.186
549.094
549.003
548.913
548.824
548.736
548.647
548.559
548.471
548.383
548.295
548.207
548.12
548.034
547.949
547.866
547.785
547.706
547.629
547.554
547.481
547.41
547.342
547.276
547.212
547.15
547.089
547.031
546.973
546.917
546.862
546.807
546.754
546.701
546.648
546.595
546.541
546.488
546.433
546.376
546.319
546.26
546.198
546.134
546.066
545.995
545.921
545.842
545.758
545.67
545.578
545.483
545.384
545.281
545.177
545.071
544.966
544.861
544.757
544.651
544.545
544.437
544.329
544.222
544.114
544.007
543.9
543.793
543.686
543.58
543.475
543.369
543.264
543.159
543.055
542.951
542.847
542.743
542.64
542.537
542.434
542.331
542.228
542.126
542.024
541.922
541.82
541.718
541.616
541.514
541.412
541.311
541.209
541.108
541.006
540.905
540.803
540.702
540.601
552.442
552.225
552.01
551.798
551.59
551.387
551.191
551.002
550.823
550.652
550.491
550.339
550.195
550.06
549.932
549.812
549.697
549.588
549.483
549.382
549.285
549.19
549.097
549.006
548.916
548.827
548.738
548.65
548.562
548.474
548.386
548.299
548.211
548.125
548.04
547.956
547.873
547.793
547.714
547.637
547.562
547.49
547.42
547.351
547.285
547.221
547.159
547.098
547.039
546.981
546.924
546.869
546.814
546.76
546.706
546.653
546.599
546.546
546.491
546.436
546.379
546.321
546.261
546.2
546.136
546.068
545.998
545.924
545.847
545.764
545.678
545.586
545.491
545.391
545.289
545.184
545.078
544.971
544.866
544.76
544.653
544.546
544.438
544.33
544.222
544.114
544.007
543.899
543.793
543.686
543.58
543.474
543.369
543.264
543.159
543.055
542.951
542.847
542.743
542.64
542.537
542.434
542.331
542.228
542.126
542.024
541.922
541.819
541.718
541.616
541.514
541.412
541.311
541.209
541.108
541.006
540.905
540.803
540.702
540.601
552.44
552.22
552.003
551.789
551.58
551.378
551.182
550.995
550.817
550.648
550.489
550.338
550.196
550.062
549.936
549.817
549.703
549.594
549.49
549.39
549.292
549.197
549.105
549.014
548.924
548.834
548.746
548.658
548.57
548.483
548.396
548.309
548.222
548.137
548.053
547.97
547.889
547.809
547.731
547.655
547.581
547.509
547.439
547.371
547.305
547.24
547.177
547.116
547.056
546.998
546.94
546.884
546.828
546.773
546.719
546.664
546.609
546.554
546.498
546.442
546.385
546.326
546.266
546.203
546.139
546.072
546.002
545.929
545.852
545.771
545.685
545.595
545.5
545.402
545.301
545.196
545.09
544.982
544.874
544.765
544.656
544.547
544.438
544.33
544.222
544.114
544.006
543.899
543.792
543.686
543.58
543.474
543.369
543.264
543.159
543.055
542.95
542.847
542.743
542.64
542.537
542.434
542.331
542.228
542.126
542.024
541.921
541.819
541.717
541.616
541.514
541.412
541.311
541.209
541.108
541.006
540.905
540.803
540.702
540.601
552.438
552.215
551.995
551.78
551.57
551.367
551.173
550.987
550.811
550.644
550.486
550.338
550.198
550.066
549.942
549.824
549.712
549.604
549.501
549.401
549.304
549.21
549.118
549.027
548.937
548.848
548.76
548.673
548.586
548.499
548.413
548.327
548.242
548.158
548.075
547.993
547.913
547.835
547.758
547.683
547.61
547.539
547.469
547.401
547.334
547.269
547.206
547.144
547.083
547.023
546.965
546.907
546.85
546.794
546.738
546.681
546.625
546.568
546.511
546.453
546.394
546.334
546.273
546.21
546.144
546.077
546.007
545.933
545.856
545.775
545.69
545.601
545.508
545.412
545.311
545.207
545.101
544.992
544.882
544.77
544.659
544.549
544.439
544.33
544.222
544.113
544.006
543.899
543.792
543.685
543.579
543.473
543.368
543.263
543.158
543.054
542.95
542.846
542.743
542.639
542.536
542.433
542.331
542.228
542.126
542.023
541.921
541.819
541.717
541.615
541.514
541.412
541.311
541.209
541.108
541.006
540.905
540.803
540.702
540.601
552.437
552.213
551.99
551.772
551.561
551.358
551.165
550.98
550.805
550.641
550.485
550.339
550.201
550.072
549.95
549.834
549.723
549.618
549.516
549.417
549.321
549.228
549.136
549.046
548.958
548.87
548.783
548.696
548.61
548.524
548.439
548.354
548.27
548.188
548.106
548.026
547.947
547.87
547.795
547.721
547.648
547.577
547.508
547.439
547.372
547.307
547.243
547.18
547.118
547.057
546.997
546.938
546.88
546.821
546.763
546.705
546.646
546.587
546.528
546.469
546.408
546.347
546.284
546.219
546.152
546.083
546.011
545.937
545.859
545.778
545.693
545.605
545.513
545.418
545.318
545.215
545.109
544.999
544.887
544.774
544.661
544.55
544.439
544.33
544.221
544.113
544.005
543.898
543.791
543.684
543.578
543.473
543.367
543.262
543.158
543.053
542.949
542.846
542.742
542.639
542.536
542.433
542.33
542.228
542.125
542.023
541.921
541.819
541.717
541.615
541.514
541.412
541.31
541.209
541.107
541.006
540.905
540.803
540.702
540.601
552.436
552.209
551.984
551.766
551.555
551.352
551.159
550.976
550.803
550.64
550.487
550.344
550.209
550.081
549.961
549.848
549.739
549.635
549.535
549.438
549.344
549.252
549.161
549.073
548.985
548.898
548.812
548.727
548.642
548.557
548.473
548.39
548.308
548.226
548.146
548.068
547.991
547.915
547.84
547.767
547.695
547.625
547.555
547.486
547.419
547.352
547.287
547.223
547.161
547.099
547.037
546.977
546.916
546.856
546.795
546.735
546.674
546.613
546.551
546.489
546.426
546.362
546.297
546.23
546.161
546.09
546.017
545.94
545.861
545.779
545.695
545.607
545.515
545.419
545.32
545.218
545.112
545.002
544.89
544.776
544.662
544.55
544.439
544.329
544.22
544.112
544.004
543.897
543.79
543.683
543.577
543.472
543.366
543.262
543.157
543.053
542.949
542.845
542.742
542.638
542.535
542.432
542.33
542.227
542.125
542.023
541.921
541.819
541.717
541.615
541.513
541.412
541.31
541.209
541.107
541.006
540.905
540.803
540.702
540.601
552.435
552.207
551.982
551.763
551.551
551.349
551.158
550.976
550.805
550.645
550.494
550.353
550.22
550.096
549.978
549.866
549.76
549.658
549.56
549.465
549.372
549.282
549.193
549.106
549.019
548.934
548.849
548.765
548.681
548.598
548.516
548.434
548.353
548.274
548.195
548.118
548.042
547.968
547.894
547.822
547.75
547.679
547.61
547.54
547.472
547.405
547.339
547.274
547.21
547.146
547.083
547.021
546.959
546.896
546.834
546.771
546.707
546.644
546.579
546.514
546.449
546.382
546.314
546.244
546.172
546.098
546.022
545.944
545.863
545.78
545.694
545.605
545.513
545.418
545.319
545.217
545.111
545.001
544.889
544.775
544.661
544.549
544.438
544.328
544.219
544.111
544.003
543.895
543.789
543.682
543.576
543.471
543.365
543.261
543.156
543.052
542.948
542.844
542.741
542.638
542.535
542.432
542.329
542.227
542.125
542.022
541.92
541.818
541.717
541.615
541.513
541.412
541.31
541.209
541.107
541.006
540.905
540.803
540.702
540.601
552.435
552.206
551.981
551.762
551.552
551.351
551.161
550.982
550.814
550.656
550.507
550.369
550.239
550.116
550.001
549.891
549.787
549.687
549.59
549.497
549.407
549.318
549.231
549.146
549.061
548.977
548.894
548.811
548.729
548.647
548.566
548.486
548.407
548.328
548.252
548.176
548.101
548.028
547.955
547.883
547.812
547.741
547.67
547.601
547.532
547.463
547.396
547.33
547.265
547.2
547.135
547.071
547.007
546.943
546.878
546.813
546.747
546.68
546.613
546.545
546.476
546.406
546.334
546.261
546.185
546.108
546.029
545.948
545.865
545.78
545.693
545.603
545.51
545.414
545.315
545.212
545.106
544.997
544.885
544.772
544.659
544.547
544.437
544.327
544.218
544.109
544.001
543.894
543.787
543.681
543.575
543.469
543.364
543.259
543.155
543.051
542.947
542.843
542.74
542.637
542.534
542.431
542.329
542.226
542.124
542.022
541.92
541.818
541.716
541.615
541.513
541.411
541.31
541.209
541.107
541.006
540.904
540.803
540.702
540.601
552.435
552.206
551.981
551.764
551.556
551.358
551.171
550.994
550.828
550.673
550.528
550.392
550.264
550.144
550.031
549.923
549.82
549.722
549.628
549.536
549.448
549.361
549.276
549.192
549.109
549.027
548.945
548.864
548.783
548.702
548.623
548.544
548.467
548.39
548.315
548.24
548.167
548.094
548.022
547.95
547.878
547.807
547.736
547.666
547.596
547.527
547.458
547.391
547.324
547.258
547.192
547.126
547.06
546.994
546.927
546.86
546.791
546.722
546.651
546.58
546.508
546.434
546.358
546.281
546.202
546.121
546.039
545.955
545.869
545.781
545.692
545.6
545.506
545.409
545.309
545.206
545.101
544.992
544.881
544.769
544.656
544.545
544.434
544.325
544.215
544.107
543.999
543.892
543.785
543.679
543.573
543.468
543.363
543.258
543.154
543.049
542.946
542.842
542.739
542.636
542.533
542.43
542.328
542.226
542.123
542.021
541.919
541.818
541.716
541.614
541.513
541.411
541.31
541.208
541.107
541.006
540.904
540.803
540.702
540.601
552.436
552.208
551.986
551.772
551.567
551.371
551.187
551.013
550.85
550.698
550.555
550.422
550.297
550.179
550.068
549.963
549.862
549.766
549.673
549.583
549.496
549.411
549.328
549.245
549.164
549.083
549.002
548.922
548.842
548.763
548.685
548.608
548.532
548.457
548.382
548.309
548.236
548.164
548.092
548.02
547.949
547.877
547.806
547.735
547.664
547.594
547.524
547.456
547.387
547.319
547.251
547.184
547.116
547.048
546.979
546.91
546.839
546.767
546.694
546.619
546.543
546.466
546.386
546.305
546.222
546.137
546.051
545.963
545.874
545.783
545.691
545.597
545.501
545.403
545.303
545.2
545.094
544.986
544.876
544.765
544.653
544.542
544.431
544.322
544.213
544.105
543.997
543.89
543.783
543.677
543.571
543.466
543.361
543.256
543.152
543.048
542.944
542.841
542.738
542.635
542.532
542.43
542.327
542.225
542.123
542.021
541.919
541.817
541.716
541.614
541.512
541.411
541.31
541.208
541.107
541.006
540.904
540.803
540.702
540.601
552.437
552.214
551.996
551.784
551.582
551.39
551.209
551.038
550.878
550.729
550.589
550.459
550.337
550.222
550.114
550.01
549.912
549.817
549.726
549.638
549.553
549.469
549.386
549.305
549.224
549.144
549.064
548.985
548.907
548.829
548.752
548.676
548.601
548.526
548.453
548.38
548.308
548.236
548.165
548.093
548.022
547.95
547.878
547.807
547.735
547.664
547.593
547.522
547.452
547.383
547.313
547.244
547.175
547.105
547.034
546.962
546.889
546.815
546.739
546.662
546.583
546.501
546.418
546.333
546.245
546.156
546.066
545.974
545.881
545.787
545.692
545.596
545.498
545.398
545.297
545.193
545.088
544.98
544.871
544.76
544.649
544.538
544.428
544.319
544.21
544.102
543.995
543.888
543.781
543.675
543.569
543.464
543.359
543.255
543.151
543.047
542.943
542.84
542.737
542.634
542.531
542.429
542.326
542.224
542.122
542.02
541.918
541.817
541.715
541.614
541.512
541.411
541.309
541.208
541.107
541.005
540.904
540.803
540.702
540.601
552.44
552.221
552.008
551.801
551.602
551.414
551.236
551.069
550.912
550.766
550.63
550.503
550.383
550.271
550.166
550.065
549.969
549.876
549.787
549.701
549.616
549.534
549.452
549.371
549.29
549.211
549.131
549.053
548.975
548.897
548.821
548.745
548.671
548.597
548.525
548.452
548.381
548.309
548.238
548.167
548.095
548.023
547.951
547.879
547.806
547.734
547.662
547.59
547.519
547.448
547.377
547.305
547.234
547.163
547.09
547.016
546.941
546.865
546.787
546.707
546.625
546.54
546.453
546.364
546.272
546.179
546.084
545.988
545.891
545.793
545.695
545.596
545.495
545.394
545.292
545.188
545.082
544.975
544.865
544.755
544.645
544.534
544.425
544.316
544.207
544.1
543.992
543.885
543.779
543.673
543.567
543.462
543.357
543.253
543.149
543.045
542.942
542.838
542.735
542.633
542.53
542.428
542.325
542.223
542.121
542.02
541.918
541.816
541.715
541.613
541.512
541.41
541.309
541.208
541.106
541.005
540.904
540.803
540.702
540.601
552.443
552.23
552.021
551.819
551.625
551.441
551.267
551.104
550.951
550.808
550.675
550.551
550.435
550.326
550.223
550.125
550.031
549.941
549.854
549.769
549.685
549.603
549.522
549.441
549.362
549.282
549.203
549.124
549.046
548.969
548.892
548.816
548.742
548.668
548.595
548.523
548.451
548.38
548.309
548.238
548.167
548.095
548.023
547.949
547.876
547.803
547.73
547.657
547.585
547.512
547.44
547.367
547.295
547.221
547.147
547.072
546.995
546.916
546.836
546.754
546.669
546.581
546.491
546.398
546.302
546.204
546.105
546.004
545.903
545.801
545.699
545.597
545.495
545.391
545.287
545.182
545.076
544.969
544.861
544.751
544.64
544.531
544.421
544.313
544.204
544.097
543.989
543.883
543.776
543.67
543.565
543.46
543.355
543.251
543.147
543.043
542.94
542.837
542.734
542.631
542.529
542.427
542.324
542.222
542.121
542.019
541.917
541.816
541.714
541.613
541.511
541.41
541.309
541.207
541.106
541.005
540.904
540.803
540.702
540.601
552.446
552.239
552.036
551.839
551.65
551.471
551.302
551.143
550.994
550.855
550.726
550.605
550.492
550.386
550.285
550.189
550.098
550.009
549.924
549.84
549.758
549.677
549.596
549.515
549.436
549.357
549.277
549.198
549.12
549.041
548.964
548.887
548.812
548.737
548.664
548.591
548.52
548.448
548.377
548.306
548.235
548.164
548.091
548.018
547.944
547.87
547.797
547.723
547.65
547.576
547.503
547.429
547.355
547.28
547.205
547.128
547.05
546.969
546.887
546.802
546.714
546.624
546.531
546.434
546.334
546.232
546.128
546.023
545.917
545.811
545.706
545.6
545.495
545.39
545.284
545.178
545.071
544.964
544.855
544.746
544.636
544.527
544.418
544.309
544.201
544.094
543.987
543.88
543.774
543.668
543.563
543.458
543.353
543.249
543.145
543.042
542.938
542.835
542.733
542.63
542.528
542.425
542.323
542.222
542.12
542.018
541.917
541.815
541.714
541.612
541.511
541.41
541.308
541.207
541.106
541.005
540.904
540.803
540.702
540.601
552.449
552.249
552.053
551.862
551.679
551.505
551.341
551.187
551.042
550.907
550.782
550.664
550.554
550.45
550.352
550.258
550.169
550.082
549.998
549.915
549.833
549.752
549.672
549.592
549.512
549.433
549.353
549.273
549.193
549.114
549.035
548.958
548.881
548.805
548.731
548.658
548.585
548.513
548.442
548.371
548.299
548.228
548.156
548.082
548.009
547.935
547.861
547.787
547.713
547.639
547.565
547.49
547.415
547.34
547.263
547.185
547.105
547.024
546.939
546.852
546.762
546.669
546.573
546.473
546.369
546.262
546.154
546.044
545.933
545.823
545.714
545.605
545.497
545.389
545.282
545.174
545.066
544.958
544.85
544.741
544.632
544.523
544.414
544.306
544.198
544.091
543.984
543.877
543.771
543.666
543.56
543.456
543.351
543.247
543.143
543.04
542.937
542.834
542.731
542.629
542.526
542.424
542.322
542.221
542.119
542.017
541.916
541.814
541.713
541.612
541.51
541.409
541.308
541.207
541.106
541.005
540.904
540.803
540.702
540.601
552.453
552.26
552.07
551.886
551.71
551.542
551.383
551.234
551.094
550.963
550.842
550.728
550.62
550.519
550.423
550.332
550.244
550.158
550.075
549.993
549.911
549.83
549.75
549.669
549.589
549.509
549.428
549.347
549.266
549.185
549.105
549.025
548.947
548.87
548.795
548.72
548.647
548.574
548.503
548.431
548.36
548.289
548.216
548.143
548.069
547.996
547.922
547.849
547.774
547.7
547.625
547.55
547.475
547.399
547.322
547.243
547.162
547.079
546.993
546.904
546.812
546.716
546.618
546.515
546.407
546.296
546.182
546.067
545.952
545.838
545.725
545.612
545.501
545.391
545.281
545.172
545.063
544.954
544.845
544.737
544.628
544.52
544.411
544.303
544.196
544.088
543.981
543.875
543.769
543.663
543.558
543.453
543.349
543.245
543.141
543.038
542.935
542.832
542.73
542.627
542.525
542.423
542.321
542.22
542.118
542.017
541.915
541.814
541.712
541.611
541.51
541.409
541.308
541.207
541.106
541.005
540.904
540.803
540.702
540.601
552.457
552.271
552.088
551.912
551.742
551.581
551.428
551.284
551.149
551.023
550.905
550.795
550.691
550.593
550.499
550.409
550.322
550.238
550.155
550.073
549.991
549.91
549.829
549.748
549.667
549.585
549.502
549.419
549.336
549.254
549.171
549.09
549.01
548.932
548.855
548.779
548.704
548.631
548.559
548.487
548.416
548.345
548.272
548.199
548.126
548.053
547.98
547.907
547.833
547.759
547.684
547.61
547.534
547.458
547.38
547.3
547.219
547.135
547.047
546.956
546.862
546.766
546.665
546.558
546.447
546.331
546.213
546.093
545.973
545.855
545.737
545.621
545.507
545.394
545.282
545.171
545.061
544.952
544.843
544.734
544.626
544.517
544.409
544.301
544.193
544.086
543.979
543.873
543.767
543.661
543.556
543.451
543.347
543.243
543.139
543.036
542.933
542.83
542.728
542.626
542.524
542.422
542.32
542.219
542.117
542.016
541.914
541.813
541.712
541.611
541.51
541.409
541.307
541.206
541.105
541.004
540.903
540.802
540.701
540.6
552.461
552.283
552.109
551.939
551.777
551.622
551.475
551.337
551.208
551.086
550.973
550.866
550.765
550.669
550.577
550.489
550.403
550.319
550.236
550.154
550.072
549.991
549.909
549.827
549.744
549.66
549.575
549.49
549.404
549.319
549.235
549.151
549.07
548.989
548.91
548.833
548.758
548.684
548.612
548.54
548.469
548.397
548.325
548.253
548.181
548.108
548.035
547.963
547.889
547.816
547.742
547.667
547.592
547.516
547.437
547.358
547.276
547.191
547.102
547.01
546.914
546.816
546.713
546.603
546.487
546.367
546.244
546.12
545.996
545.873
545.752
545.632
545.515
545.399
545.285
545.172
545.061
544.951
544.842
544.733
544.624
544.515
544.407
544.299
544.191
544.084
543.977
543.87
543.764
543.659
543.554
543.449
543.345
543.241
543.137
543.034
542.931
542.829
542.726
542.624
542.522
542.421
542.319
542.218
542.116
542.015
541.914
541.812
541.711
541.61
541.509
541.408
541.307
541.206
541.105
541.004
540.903
540.802
540.701
540.6
552.465
552.296
552.13
551.968
551.813
551.666
551.525
551.393
551.268
551.152
551.042
550.939
550.841
550.747
550.657
550.57
550.485
550.401
550.319
550.237
550.154
550.072
549.989
549.905
549.82
549.733
549.646
549.558
549.47
549.382
549.295
549.21
549.126
549.043
548.962
548.884
548.808
548.734
548.661
548.59
548.518
548.447
548.376
548.305
548.233
548.161
548.089
548.017
547.945
547.871
547.798
547.724
547.649
547.573
547.495
547.415
547.333
547.247
547.158
547.064
546.968
546.868
546.762
546.649
546.529
546.404
546.277
546.149
546.021
545.894
545.769
545.646
545.525
545.406
545.29
545.175
545.063
544.952
544.842
544.732
544.622
544.513
544.405
544.297
544.189
544.082
543.975
543.868
543.762
543.657
543.551
543.447
543.343
543.239
543.135
543.032
542.929
542.827
542.725
542.623
542.521
542.419
542.318
542.216
542.115
542.014
541.913
541.812
541.711
541.61
541.509
541.408
541.307
541.206
541.105
541.004
540.903
540.802
540.701
540.6
552.469
552.309
552.151
551.998
551.85
551.71
551.576
551.449
551.33
551.218
551.113
551.013
550.918
550.826
550.737
550.651
550.567
550.484
550.401
550.319
550.236
550.153
550.068
549.982
549.895
549.805
549.715
549.624
549.533
549.443
549.353
549.266
549.18
549.095
549.013
548.933
548.857
548.783
548.71
548.639
548.569
548.498
548.428
548.357
548.286
548.215
548.144
548.073
548.001
547.928
547.855
547.781
547.707
547.631
547.554
547.474
547.392
547.305
547.215
547.121
547.023
546.922
546.813
546.696
546.572
546.444
546.312
546.179
546.047
545.916
545.788
545.661
545.537
545.416
545.297
545.18
545.067
544.955
544.843
544.732
544.62
544.512
544.404
544.296
544.188
544.081
543.973
543.867
543.76
543.655
543.549
543.445
543.34
543.237
543.133
543.03
542.928
542.825
542.723
542.621
542.52
542.418
542.317
542.215
542.114
542.013
541.912
541.811
541.71
541.609
541.508
541.407
541.306
541.206
541.105
541.004
540.903
540.802
540.701
540.6
552.474
552.322
552.172
552.027
551.887
551.753
551.626
551.506
551.392
551.285
551.183
551.087
550.994
550.904
550.817
550.732
550.648
550.566
550.483
550.401
550.317
550.233
550.146
550.058
549.968
549.876
549.783
549.689
549.595
549.502
549.41
549.321
549.233
549.146
549.063
548.983
548.907
548.833
548.761
548.691
548.621
548.552
548.483
548.413
548.343
548.273
548.202
548.131
548.059
547.987
547.914
547.841
547.767
547.692
547.614
547.535
547.452
547.365
547.275
547.18
547.082
546.978
546.866
546.746
546.617
546.483
546.347
546.21
546.075
545.941
545.809
545.68
545.552
545.428
545.306
545.187
545.071
544.957
544.844
544.731
544.617
544.51
544.403
544.295
544.187
544.08
543.972
543.865
543.759
543.653
543.548
543.443
543.339
543.235
543.131
543.029
542.926
542.824
542.722
542.62
542.518
542.417
542.316
542.214
542.113
542.012
541.911
541.81
541.71
541.609
541.508
541.407
541.306
541.205
541.104
541.004
540.903
540.802
540.701
540.6
552.478
552.334
552.193
552.056
551.923
551.797
551.676
551.561
551.453
551.35
551.252
551.158
551.068
550.98
550.894
550.811
550.728
550.646
550.564
550.481
550.397
550.311
550.223
550.132
550.04
549.945
549.849
549.753
549.656
549.561
549.468
549.377
549.287
549.199
549.115
549.036
548.96
548.887
548.816
548.747
548.679
548.612
548.544
548.476
548.406
548.337
548.266
548.195
548.124
548.051
547.978
547.905
547.831
547.756
547.678
547.598
547.515
547.429
547.338
547.243
547.143
547.037
546.921
546.796
546.663
546.525
546.385
546.244
546.105
545.969
545.834
545.701
545.571
545.443
545.317
545.195
545.076
544.96
544.846
544.73
544.605
544.508
544.403
544.295
544.187
544.079
543.971
543.864
543.757
543.651
543.546
543.441
543.337
543.233
543.13
543.027
542.924
542.822
542.72
542.619
542.517
542.416
542.315
542.213
542.112
542.012
541.911
541.81
541.709
541.608
541.507
541.407
541.306
541.205
541.104
541.004
540.903
540.802
540.701
540.6
552.482
552.346
552.213
552.084
551.958
551.838
551.723
551.614
551.51
551.412
551.317
551.227
551.139
551.053
550.969
550.887
550.805
550.724
550.642
550.559
550.474
550.387
550.297
550.205
550.11
550.013
549.916
549.817
549.718
549.621
549.527
549.435
549.344
549.255
549.171
549.093
549.019
548.948
548.878
548.811
548.744
548.679
548.614
548.547
548.479
548.409
548.339
548.268
548.196
548.124
548.05
547.976
547.901
547.824
547.746
547.665
547.582
547.495
547.404
547.308
547.206
547.096
546.976
546.846
546.708
546.566
546.423
546.28
546.139
546
545.863
545.727
545.593
545.461
545.332
545.206
545.083
544.965
544.85
544.736
544.622
544.514
544.405
544.296
544.187
544.078
543.97
543.863
543.756
543.65
543.544
543.439
543.335
543.231
543.128
543.025
542.923
542.821
542.719
542.617
542.516
542.415
542.314
542.213
542.112
542.011
541.91
541.809
541.708
541.608
541.507
541.406
541.306
541.205
541.104
541.003
540.903
540.802
540.701
540.6
552.486
552.358
552.232
552.109
551.991
551.877
551.768
551.665
551.565
551.47
551.38
551.292
551.207
551.123
551.041
550.96
550.879
550.799
550.717
550.634
550.549
550.461
550.37
550.276
550.179
550.081
549.981
549.881
549.781
549.683
549.589
549.497
549.406
549.317
549.234
549.158
549.088
549.019
548.951
548.884
548.82
548.757
548.695
548.632
548.565
548.496
548.425
548.354
548.281
548.206
548.131
548.055
547.978
547.899
547.819
547.736
547.652
547.564
547.473
547.376
547.271
547.156
547.029
546.893
546.751
546.606
546.461
546.317
546.176
546.036
545.895
545.756
545.618
545.482
545.349
545.219
545.093
544.972
544.856
544.743
544.63
544.518
544.407
544.296
544.187
544.078
543.969
543.861
543.754
543.648
543.542
543.438
543.333
543.229
543.126
543.024
542.921
542.819
542.717
542.616
542.515
542.414
542.313
542.212
542.111
542.01
541.909
541.809
541.708
541.607
541.507
541.406
541.305
541.205
541.104
541.003
540.902
540.802
540.701
540.6
552.489
552.368
552.249
552.134
552.022
551.914
551.811
551.712
551.617
551.526
551.439
551.354
551.271
551.189
551.109
551.03
550.95
550.87
550.789
550.707
550.621
550.532
550.44
550.345
550.247
550.147
550.046
549.945
549.846
549.749
549.655
549.565
549.476
549.388
549.306
549.234
549.167
549.101
549.035
548.968
548.906
548.848
548.791
548.732
548.666
548.597
548.526
548.452
548.377
548.301
548.223
548.144
548.064
547.981
547.897
547.811
547.724
547.637
547.545
547.445
547.335
547.214
547.081
546.939
546.793
546.646
546.499
546.356
546.216
546.076
545.933
545.789
545.647
545.508
545.372
545.238
545.109
544.984
544.863
544.747
544.633
544.52
544.407
544.296
544.185
544.076
543.968
543.86
543.753
543.646
543.541
543.436
543.332
543.228
543.125
543.022
542.92
542.818
542.716
542.615
542.514
542.413
542.312
542.211
542.11
542.009
541.909
541.808
541.708
541.607
541.506
541.406
541.305
541.204
541.104
541.003
540.902
540.802
540.701
540.6
552.492
552.377
552.265
552.155
552.049
551.947
551.849
551.756
551.665
551.578
551.494
551.412
551.332
551.252
551.174
551.095
551.017
550.938
550.858
550.775
550.69
550.601
550.508
550.412
550.313
550.212
550.111
550.011
549.913
549.818
549.727
549.64
549.555
549.468
549.389
549.32
549.257
549.196
549.132
549.065
549.005
548.951
548.902
548.848
548.785
548.716
548.641
548.563
548.485
548.407
548.326
548.243
548.16
548.073
547.983
547.892
547.801
547.712
547.618
547.514
547.399
547.271
547.132
546.983
546.833
546.683
546.537
546.396
546.26
546.12
545.972
545.823
545.68
545.542
545.407
545.269
545.133
545.002
544.875
544.753
544.634
544.518
544.404
544.293
544.183
544.074
543.965
543.858
543.751
543.645
543.539
543.434
543.33
543.226
543.123
543.021
542.918
542.817
542.715
542.614
542.513
542.412
542.311
542.21
542.109
542.009
541.908
541.808
541.707
541.607
541.506
541.405
541.305
541.204
541.104
541.003
540.902
540.802
540.701
540.6
552.495
552.385
552.278
552.174
552.074
551.977
551.884
551.795
551.709
551.626
551.546
551.468
551.39
551.313
551.235
551.158
551.081
551.002
550.923
550.841
550.756
550.667
550.574
550.477
550.377
550.276
550.176
550.077
549.982
549.89
549.804
549.721
549.64
549.557
549.481
549.413
549.356
549.302
549.241
549.173
549.115
549.068
549.03
548.981
548.921
548.864
548.783
548.694
548.615
548.54
548.445
548.361
548.283
548.189
548.095
547.992
547.894
547.803
547.7
547.59
547.471
547.335
547.192
547.035
546.881
546.725
546.573
546.435
546.306
546.169
546.012
545.862
545.721
545.589
545.47
545.323
545.17
545.026
544.888
544.754
544.631
544.512
544.398
544.287
544.178
544.069
543.962
543.855
543.749
543.643
543.537
543.433
543.329
543.225
543.122
543.019
542.917
542.815
542.714
542.613
542.512
542.411
542.31
542.209
542.109
542.008
541.908
541.807
541.707
541.606
541.506
541.405
541.305
541.204
541.103
541.003
540.902
540.802
540.701
540.6
552.497
552.392
552.289
552.19
552.094
552.002
551.914
551.83
551.749
551.671
551.595
551.521
551.446
551.371
551.295
551.219
551.142
551.064
550.984
550.903
550.819
550.73
550.637
550.539
550.439
550.339
550.24
550.145
550.053
549.965
549.882
549.804
549.728
549.649
549.573
549.506
549.456
549.415
549.359
549.304
549.246
549.212
549.201
549.145
549.1
549.244
549.156
549.037
548.969
548.909
548.756
548.669
548.629
548.501
548.399
548.265
548.157
548.072
547.942
547.814
547.689
547.528
547.383
547.21
547.047
546.86
546.67
546.536
546.419
546.286
546.113
545.982
545.825
545.7
545.646
545.457
545.246
545.072
544.899
544.728
544.622
544.502
544.389
544.279
544.17
544.064
543.958
543.852
543.746
543.641
543.536
543.431
543.327
543.224
543.121
543.018
542.916
542.815
542.713
542.612
542.511
542.41
542.309
542.209
542.108
542.008
541.907
541.807
541.706
541.606
541.505
541.405
541.304
541.204
541.103
541.003
540.902
540.802
540.701
540.6
552.498
552.396
552.297
552.201
552.11
552.023
551.94
551.86
551.784
551.711
551.64
551.572
551.503
551.43
551.354
551.278
551.201
551.122
551.042
550.961
550.878
550.79
550.697
550.599
550.5
550.401
550.306
550.216
550.13
550.046
549.964
549.886
549.812
549.738
549.667
549.594
549.56
549.552
549.506
549.662
549.606
549.611
549.685
549.531
549.468
549.362
549.237
549.205
549.125
548.984
548.868
548.795
548.694
548.557
548.525
548.442
548.317
548.212
548.045
547.904
547.786
547.611
547.462
547.293
547.124
546.953
546.741
546.547
546.398
546.242
546.128
545.966
545.825
545.71
545.63
545.489
545.232
545.074
544.916
544.732
544.61
544.482
544.379
544.27
544.162
544.056
543.952
543.848
543.743
543.639
543.534
543.43
543.326
543.223
543.12
543.017
542.915
542.814
542.712
542.611
542.51
542.41
542.309
542.208
542.108
542.007
541.907
541.807
541.706
541.606
541.505
541.405
541.304
541.204
541.103
541.003
540.902
540.801
540.701
540.6
552.498
552.397
552.301
552.21
552.123
552.04
551.961
551.886
551.815
551.745
551.679
551.622
551.566
551.49
551.41
551.336
551.26
551.178
551.096
551.013
550.931
550.846
550.755
550.657
550.558
550.463
550.377
550.301
550.232
550.15
550.078
549.99
549.913
549.887
549.98
549.878
549.906
549.962
549.863
549.775
549.66
549.716
549.788
549.686
549.55
549.457
549.391
549.287
549.194
549.063
548.933
548.849
548.709
548.613
548.662
548.591
548.461
548.363
548.142
547.981
547.904
547.718
547.571
547.407
547.232
547.045
546.717
546.464
546.326
546.141
546.119
545.94
545.816
545.76
545.704
545.545
545.248
545.085
544.85
544.667
544.653
544.43
544.372
544.265
544.153
544.048
543.946
543.844
543.74
543.637
543.533
543.429
543.325
543.222
543.119
543.017
542.915
542.813
542.712
542.611
542.51
542.409
542.309
542.208
542.108
542.007
541.907
541.806
541.706
541.605
541.505
541.405
541.304
541.204
541.103
541.003
540.902
540.801
540.701
540.6
552.497
552.396
552.302
552.214
552.131
552.052
551.977
551.907
551.85
551.788
551.725
551.693
551.675
551.577
551.48
551.419
551.351
551.26
551.168
551.078
550.995
550.918
550.834
550.736
550.627
550.529
550.472
550.423
550.408
550.354
550.531
550.405
550.292
550.192
549.992
549.839
549.896
550.002
549.979
549.916
549.847
549.852
549.917
549.861
549.712
549.553
549.481
549.286
549.216
549.193
548.994
548.875
548.752
548.666
548.709
548.645
548.539
548.482
548.289
548.131
548.085
547.894
547.726
547.527
547.334
547.013
546.511
546.166
546.159
545.931
546.092
545.922
545.843
546.032
546.04
545.665
545.002
545.023
544.706
544.388
544.715
544.247
544.374
544.259
544.14
544.038
543.94
543.84
543.738
543.635
543.531
543.428
543.324
543.221
543.119
543.016
542.914
542.813
542.711
542.61
542.51
542.409
542.308
542.208
542.107
542.007
541.907
541.806
541.706
541.605
541.505