0 	298.493
0.010101 	305.354
0.020202 	314.429
