/*--------------------------------*- C++ -*----------------------------------*\
  =========                 |
  \\      /  F ield         | OpenFOAM: The Open Source CFD Toolbox
   \\    /   O peration     | Website:  https://openfoam.org
    \\  /    A nd           | Version:  6
     \\/     M anipulation  |
\*---------------------------------------------------------------------------*/
FoamFile
{
    version     2.0;
    format      ascii;
    class       volScalarField;
    location    "2100";
    object      dmdt;
}
// * * * * * * * * * * * * * * * * * * * * * * * * * * * * * * * * * * * * * //

dimensions      [0 0 0 0 0 0 0];

internalField   nonuniform List<scalar> 
4800
(
-0.218079
-0.213083
-0.208174
-0.203422
-0.198897
-0.194658
-0.190751
-0.187191
-0.183963
-0.181043
-0.178402
-0.176003
-0.173812
-0.171805
-0.169961
-0.168258
-0.166676
-0.165195
-0.16379
-0.162445
-0.161145
-0.159888
-0.158672
-0.157477
-0.156295
-0.155127
-0.153967
-0.152813
-0.151662
-0.150508
-0.149349
-0.148177
-0.146991
-0.145789
-0.144562
-0.143308
-0.142028
-0.14072
-0.139383
-0.138019
-0.136634
-0.135229
-0.133806
-0.132365
-0.130908
-0.129436
-0.127951
-0.126456
-0.124951
-0.123432
-0.121896
-0.120338
-0.118753
-0.117137
-0.115486
-0.113794
-0.112052
-0.110244
-0.108358
-0.106378
-0.104289
-0.102076
-0.0997213
-0.0972123
-0.0945416
-0.0917132
-0.088731
-0.0855901
-0.082277
-0.0787777
-0.0750774
-0.0711622
-0.0670191
-0.0626385
-0.0580375
-0.0532597
-0.0483688
-0.0434449
-0.0385633
-0.0337439
-0.0289487
-0.0241994
-0.0195203
-0.0149297
-0.0104369
-0.00604608
-0.00175803
0.00242875
0.00651722
0.0105116
0.0144166
0.0182378
0.0219804
0.0256502
0.0292528
0.0327933
0.0362772
0.0397093
0.0430942
0.0464365
0.0497401
0.0530089
0.0562463
0.0594556
0.0626398
0.0658016
0.0689434
0.0720675
0.0751759
0.0782707
0.0813534
0.0844256
0.0874889
0.0905444
0.0935935
0.0966372
0.0996767
0.102713
0.105747
0.108779
-0.21808
-0.213092
-0.208197
-0.203455
-0.19894
-0.194722
-0.190842
-0.187295
-0.18407
-0.181153
-0.178512
-0.176114
-0.173926
-0.171922
-0.17008
-0.168375
-0.166786
-0.165292
-0.163873
-0.162512
-0.161199
-0.159928
-0.158688
-0.157469
-0.156269
-0.155081
-0.153902
-0.15273
-0.15156
-0.150386
-0.149206
-0.148018
-0.146816
-0.1456
-0.144365
-0.143107
-0.141824
-0.140515
-0.139177
-0.137811
-0.136421
-0.135011
-0.133582
-0.132135
-0.130671
-0.129192
-0.127697
-0.126188
-0.124668
-0.123134
-0.121583
-0.12001
-0.118411
-0.116781
-0.115118
-0.113414
-0.111662
-0.109851
-0.107964
-0.105987
-0.103907
-0.101706
-0.0993734
-0.0968958
-0.0942596
-0.0914607
-0.0885017
-0.085385
-0.0820997
-0.0786333
-0.074968
-0.0710891
-0.0669915
-0.0626756
-0.0581512
-0.0534412
-0.0485882
-0.04365
-0.0386973
-0.0337876
-0.0289318
-0.0241522
-0.0194576
-0.0148591
-0.010363
-0.00597158
-0.00168471
0.00249972
0.00658509
0.0105759
0.0144771
0.0182942
0.0220329
0.0256988
0.0292975
0.0328344
0.0363148
0.0397436
0.0431256
0.046465
0.0497659
0.0530323
0.0562675
0.0594747
0.062657
0.065817
0.0689571
0.0720798
0.0751869
0.0782803
0.0813618
0.084433
0.0874952
0.0905498
0.093598
0.0966408
0.0996795
0.102715
0.105748
0.10878
-0.218092
-0.213127
-0.208269
-0.203575
-0.199105
-0.194922
-0.191062
-0.187528
-0.184315
-0.181403
-0.178766
-0.176371
-0.174189
-0.172189
-0.170345
-0.168631
-0.167026
-0.16551
-0.164065
-0.162679
-0.161339
-0.16004
-0.158764
-0.157506
-0.156265
-0.155035
-0.153814
-0.152598
-0.151386
-0.150172
-0.148954
-0.14773
-0.146497
-0.145253
-0.143996
-0.142722
-0.141429
-0.140115
-0.138772
-0.137401
-0.136006
-0.134587
-0.133148
-0.131688
-0.130208
-0.128711
-0.127196
-0.125664
-0.124116
-0.122552
-0.120971
-0.119368
-0.117744
-0.11609
-0.114404
-0.112681
-0.110914
-0.109093
-0.107205
-0.105235
-0.103168
-0.100992
-0.0986912
-0.0962556
-0.0936702
-0.0909285
-0.088026
-0.0849632
-0.0817326
-0.0783214
-0.074715
-0.0708987
-0.0668684
-0.0626269
-0.0581754
-0.0535299
-0.0487245
-0.0438017
-0.0388044
-0.0338034
-0.0288686
-0.0240443
-0.0193253
-0.0147144
-0.0102132
-0.00582147
-0.00153749
0.00264192
0.00672087
0.0107043
0.0145978
0.0184069
0.0221375
0.0257955
0.0293866
0.0329163
0.0363897
0.0398121
0.0431879
0.0465217
0.0498174
0.0530789
0.0563096
0.0595127
0.0626912
0.0658476
0.0689846
0.0721042
0.0752086
0.0782995
0.0813787
0.0844477
0.0875078
0.0905605
0.0936068
0.096648
0.099685
0.102719
0.10575
0.108781
-0.218115
-0.2132
-0.208397
-0.203766
-0.199363
-0.195238
-0.191416
-0.187908
-0.184716
-0.181818
-0.179188
-0.176797
-0.174613
-0.172607
-0.170756
-0.16903
-0.167406
-0.165862
-0.164385
-0.162962
-0.161584
-0.160242
-0.158917
-0.157608
-0.156314
-0.155026
-0.153742
-0.15246
-0.15118
-0.149902
-0.148623
-0.147344
-0.146063
-0.144777
-0.143485
-0.142181
-0.140865
-0.139537
-0.138182
-0.1368
-0.135392
-0.133959
-0.132505
-0.131028
-0.129526
-0.128003
-0.126457
-0.124891
-0.123305
-0.121701
-0.120082
-0.118442
-0.116782
-0.115096
-0.113383
-0.111638
-0.109852
-0.108022
-0.106131
-0.104165
-0.102115
-0.0999655
-0.0977023
-0.0953171
-0.0927922
-0.0901201
-0.0872921
-0.0843045
-0.0811477
-0.07781
-0.0742813
-0.0705466
-0.0666
-0.0624434
-0.0580759
-0.0535064
-0.0487572
-0.0438564
-0.0388328
-0.033748
-0.028727
-0.0238573
-0.0191131
-0.0144894
-0.0099838
-0.00559352
-0.00131503
0.0028561
0.0069249
0.010897
0.0147785
0.0185754
0.022294
0.0259401
0.0295197
0.0330384
0.0365015
0.0399141
0.0432809
0.0466061
0.049894
0.0531483
0.0563723
0.0595692
0.062742
0.0658933
0.0690255
0.0721407
0.075241
0.0783281
0.0814038
0.0844695
0.0875266
0.0905764
0.0936201
0.0966586
0.0996931
0.102725
0.105754
0.108782
-0.218168
-0.213348
-0.208621
-0.204059
-0.199724
-0.195661
-0.191891
-0.188424
-0.185264
-0.182388
-0.179771
-0.177387
-0.175199
-0.173184
-0.17132
-0.169574
-0.167923
-0.166345
-0.164832
-0.163362
-0.161935
-0.160535
-0.159149
-0.157779
-0.156417
-0.155057
-0.153695
-0.152328
-0.150963
-0.149602
-0.148242
-0.146886
-0.145537
-0.144194
-0.142855
-0.141506
-0.140149
-0.138796
-0.137418
-0.136021
-0.134594
-0.133139
-0.131662
-0.130159
-0.128628
-0.12707
-0.125485
-0.123878
-0.122249
-0.120601
-0.11894
-0.11726
-0.115562
-0.11384
-0.112095
-0.110326
-0.10852
-0.106676
-0.104782
-0.102821
-0.100786
-0.0986637
-0.0964388
-0.0941056
-0.0916445
-0.0890447
-0.086297
-0.0833935
-0.0803232
-0.0770723
-0.0736299
-0.0699813
-0.0661193
-0.0620412
-0.0577357
-0.0532111
-0.0484936
-0.0436093
-0.0385945
-0.0335109
-0.0284693
-0.023574
-0.0188113
-0.0141781
-0.00967083
-0.0052851
-0.0010157
0.00314315
0.00719756
0.011154
0.0150191
0.0187995
0.0225017
0.0261318
0.0296961
0.0332002
0.0366495
0.0400491
0.0434038
0.0467178
0.0499953
0.05324
0.0564551
0.0596439
0.0628092
0.0659536
0.0690794
0.0721888
0.0752837
0.0783659
0.0814369
0.0844983
0.0875514
0.0905974
0.0936375
0.0966727
0.0997039
0.102732
0.105758
0.108783
-0.218208
-0.213477
-0.208857
-0.204407
-0.200172
-0.196192
-0.192489
-0.189074
-0.185954
-0.183105
-0.180507
-0.178132
-0.175943
-0.173922
-0.172043
-0.17027
-0.168586
-0.166966
-0.165404
-0.163875
-0.162385
-0.160916
-0.159461
-0.158017
-0.156576
-0.155128
-0.15367
-0.152206
-0.150739
-0.149277
-0.147823
-0.146375
-0.144937
-0.143518
-0.142115
-0.140714
-0.139304
-0.137908
-0.136494
-0.135071
-0.13362
-0.132138
-0.13063
-0.129093
-0.127525
-0.125926
-0.124299
-0.122649
-0.120977
-0.119285
-0.117579
-0.115857
-0.114118
-0.112359
-0.11058
-0.108782
-0.106955
-0.105095
-0.103194
-0.101237
-0.0992152
-0.0971182
-0.0949297
-0.0926446
-0.0902447
-0.0877153
-0.085046
-0.0822262
-0.0792428
-0.0760811
-0.0727283
-0.0691691
-0.06539
-0.0613902
-0.0571644
-0.0527191
-0.0480677
-0.0432287
-0.0382388
-0.0331621
-0.028105
-0.0231914
-0.0184147
-0.0137755
-0.00927045
-0.00489352
-0.000637799
0.00350399
0.00753916
0.0114751
0.0153192
0.0190784
0.0227598
0.0263699
0.0299149
0.0334006
0.0368327
0.0402162
0.0435558
0.0468559
0.0501205
0.0533532
0.0565574
0.0597362
0.0628922
0.066028
0.069146
0.0722482
0.0753364
0.0784124
0.0814777
0.0845338
0.087582
0.0906233
0.093659
0.09669
0.0997172
0.102742
0.105764
0.108785
-0.218298
-0.21372
-0.209201
-0.204831
-0.200679
-0.196782
-0.193158
-0.189818
-0.186758
-0.183952
-0.181389
-0.179027
-0.176838
-0.174808
-0.172907
-0.171103
-0.16938
-0.167709
-0.16609
-0.164493
-0.16293
-0.161382
-0.159847
-0.158315
-0.156778
-0.155227
-0.153661
-0.152081
-0.150495
-0.148917
-0.147354
-0.145806
-0.144272
-0.142761
-0.141275
-0.139808
-0.138338
-0.136884
-0.135419
-0.133955
-0.132472
-0.130959
-0.129418
-0.127844
-0.126238
-0.124598
-0.122927
-0.121231
-0.119513
-0.117777
-0.116027
-0.114262
-0.112481
-0.110682
-0.108867
-0.107037
-0.105189
-0.103311
-0.101398
-0.0994419
-0.0974322
-0.0953569
-0.0932002
-0.0909556
-0.0886082
-0.0861422
-0.0835454
-0.0808061
-0.0779076
-0.0748349
-0.0715747
-0.0681076
-0.064418
-0.0605103
-0.0563771
-0.0520224
-0.0474531
-0.0426858
-0.0377508
-0.0327025
-0.0276406
-0.0227097
-0.0179197
-0.0132774
-0.00877896
-0.00441614
-0.000179708
0.0039394
0.00794983
0.01186
0.0156779
0.0194113
0.0230673
0.026653
0.0301748
0.0336386
0.0370501
0.0404143
0.043736
0.0470194
0.0502687
0.0534872
0.0566784
0.0598452
0.0629902
0.066116
0.0692246
0.0723183
0.0753986
0.0784673
0.0815259
0.0845758
0.087618
0.0906539
0.0936843
0.0967104
0.0997329
0.102753
0.105771
0.108787
-0.218339
-0.213874
-0.209506
-0.205284
-0.20126
-0.197477
-0.193948
-0.190681
-0.187675
-0.184914
-0.18238
-0.180033
-0.177852
-0.175812
-0.173887
-0.17205
-0.170282
-0.168556
-0.166875
-0.16521
-0.163566
-0.161929
-0.160296
-0.158657
-0.157006
-0.155335
-0.153643
-0.151936
-0.150225
-0.148522
-0.146838
-0.145175
-0.143536
-0.141926
-0.140347
-0.138798
-0.13726
-0.135738
-0.134218
-0.132703
-0.131173
-0.129619
-0.128039
-0.126428
-0.124783
-0.123104
-0.121393
-0.119653
-0.117892
-0.116111
-0.114315
-0.112506
-0.110682
-0.108843
-0.106989
-0.10512
-0.103245
-0.101346
-0.0994176
-0.0974568
-0.0954551
-0.0933971
-0.0912664
-0.0890541
-0.0867463
-0.084334
-0.0817999
-0.0791374
-0.0763254
-0.0733439
-0.0701788
-0.0668073
-0.0632122
-0.0594012
-0.0553578
-0.051086
-0.0465939
-0.0419079
-0.037066
-0.0321081
-0.0270806
-0.0221275
-0.0173201
-0.0126778
-0.00819205
-0.00385021
0.000360092
0.00444993
0.00842941
0.0123079
0.0160943
0.0197967
0.0234229
0.0269799
0.0304744
0.0339126
0.0373001
0.0406419
0.0439428
0.0472071
0.0504386
0.0536409
0.0568171
0.0599701
0.0631025
0.0662166
0.0693147
0.0723985
0.0754698
0.0785302
0.0815811
0.0846237
0.0876593
0.0906888
0.0937133
0.0967337
0.0997508
0.102765
0.105778
0.10879
-0.21841
-0.214086
-0.209867
-0.205793
-0.2019
-0.198231
-0.194801
-0.191623
-0.188682
-0.185968
-0.183459
-0.181127
-0.178951
-0.1769
-0.174952
-0.173083
-0.171271
-0.169488
-0.167737
-0.165995
-0.164263
-0.162529
-0.160787
-0.159029
-0.157247
-0.155438
-0.153606
-0.151762
-0.149915
-0.148078
-0.146264
-0.144479
-0.142726
-0.141011
-0.139334
-0.137694
-0.13608
-0.134483
-0.132892
-0.131318
-0.129738
-0.128142
-0.126522
-0.124872
-0.123189
-0.121471
-0.119721
-0.117941
-0.116137
-0.114312
-0.112472
-0.110617
-0.10875
-0.106871
-0.104977
-0.103069
-0.101159
-0.0992342
-0.0972861
-0.0953107
-0.0933049
-0.0912535
-0.0891404
-0.0869549
-0.0846802
-0.082317
-0.0798409
-0.0772473
-0.074513
-0.0716161
-0.068544
-0.0652675
-0.0617645
-0.0580474
-0.0540964
-0.0499157
-0.0455121
-0.0409126
-0.0361668
-0.0313495
-0.0258506
-0.0214263
-0.0165999
-0.011967
-0.00750422
-0.00319274
0.000982956
0.00503584
0.00897739
0.0128179
0.0165669
0.0202331
0.0238245
0.0273486
0.0308119
0.0342209
0.037581
0.0408975
0.0441749
0.0474175
0.050629
0.0538129
0.0569723
0.0601098
0.0632281
0.0663292
0.0694153
0.0724882
0.0755494
0.0786004
0.0816427
0.0846773
0.0877054
0.0907279
0.0937457
0.0967598
0.0997708
0.102779
0.105787
0.108793
-0.218498
-0.214344
-0.210283
-0.206356
-0.202599
-0.199043
-0.195707
-0.192602
-0.189723
-0.187063
-0.184595
-0.18229
-0.180118
-0.178055
-0.17608
-0.174174
-0.17231
-0.170467
-0.168646
-0.166823
-0.164996
-0.163158
-0.161301
-0.159412
-0.157486
-0.155525
-0.153543
-0.151551
-0.14956
-0.147583
-0.145633
-0.143717
-0.141844
-0.140017
-0.138238
-0.136502
-0.134802
-0.133131
-0.131471
-0.129831
-0.128193
-0.126549
-0.124884
-0.123196
-0.121476
-0.119723
-0.117937
-0.11612
-0.114276
-0.11241
-0.110527
-0.108627
-0.106715
-0.104795
-0.102861
-0.100914
-0.098963
-0.0970056
-0.0950318
-0.0930366
-0.0910154
-0.0889584
-0.0868529
-0.084684
-0.0824355
-0.0801099
-0.0776832
-0.0751485
-0.072481
-0.0696597
-0.0666761
-0.0634924
-0.0600866
-0.0564711
-0.0526267
-0.048557
-0.0442731
-0.0398023
-0.0351713
-0.0304184
-0.0254988
-0.0205141
-0.0157287
-0.011133
-0.0067099
-0.00244104
0.00168989
0.00569699
0.00959279
0.0133884
0.0170939
0.0207184
0.0242702
0.0277568
0.0311851
0.0345613
0.0378909
0.0411791
0.0444305
0.047649
0.0508385
0.0540021
0.0571428
0.0602633
0.0633659
0.0664528
0.0695257
0.0725865
0.0756366
0.0786774
0.0817102
0.084736
0.0877558
0.0907706
0.0937812
0.0967883
0.0997927
0.102795
0.105796
0.108796
-0.218586
-0.214606
-0.210708
-0.206931
-0.203313
-0.199877
-0.196644
-0.193629
-0.190829
-0.188226
-0.185793
-0.183502
-0.181328
-0.179247
-0.177242
-0.175296
-0.173377
-0.171473
-0.169577
-0.167671
-0.165748
-0.163801
-0.161817
-0.159785
-0.157704
-0.155585
-0.153446
-0.151303
-0.149163
-0.147039
-0.144947
-0.142895
-0.140896
-0.138954
-0.137069
-0.135235
-0.133442
-0.131689
-0.129958
-0.128253
-0.126557
-0.124862
-0.123153
-0.121424
-0.119669
-0.117881
-0.116061
-0.11421
-0.112329
-0.110425
-0.108502
-0.106563
-0.104608
-0.102647
-0.100672
-0.0986842
-0.0966914
-0.0946956
-0.0926878
-0.0906651
-0.0886204
-0.0865474
-0.0844376
-0.0822708
-0.0800347
-0.0777277
-0.0753345
-0.0728477
-0.0702393
-0.0674861
-0.0645818
-0.0614851
-0.0581799
-0.0546642
-0.0509281
-0.0469765
-0.0428163
-0.038464
-0.0339346
-0.0292511
-0.024378
-0.0194459
-0.0147162
-0.0101751
-0.00580665
-0.00159346
0.00248132
0.00643272
0.0102741
0.0140173
0.0176729
0.02125
0.0247573
0.0282022
0.0315915
0.0349315
0.0382276
0.0414848
0.0447076
0.0478999
0.0510652
0.0542067
0.0573272
0.0604292
0.0635149
0.0665862
0.0696449
0.0726926
0.0757307
0.0787605
0.081783
0.0847993
0.0878102
0.0908167
0.0938194
0.0968191
0.0998163
0.102812
0.105806
0.108799
-0.218676
-0.21487
-0.211135
-0.20751
-0.204026
-0.200709
-0.197588
-0.194666
-0.191936
-0.189385
-0.186992
-0.184726
-0.182555
-0.180457
-0.178418
-0.176423
-0.174449
-0.172485
-0.170517
-0.168527
-0.166509
-0.164448
-0.162328
-0.160144
-0.157899
-0.155615
-0.153315
-0.151016
-0.148724
-0.146451
-0.144216
-0.142028
-0.139897
-0.137831
-0.135832
-0.133898
-0.132017
-0.13018
-0.128377
-0.126605
-0.124848
-0.1231
-0.121344
-0.119574
-0.117782
-0.11596
-0.114107
-0.112224
-0.110311
-0.108374
-0.106416
-0.104439
-0.102446
-0.100445
-0.0984288
-0.0963985
-0.0943614
-0.0923223
-0.090274
-0.0882142
-0.0861366
-0.0840365
-0.0819091
-0.0797343
-0.0775003
-0.0752014
-0.0728265
-0.0703714
-0.0678093
-0.0651195
-0.0622888
-0.0592766
-0.0560719
-0.0526563
-0.0490261
-0.0451796
-0.0411266
-0.0368836
-0.0324622
-0.027877
-0.0231004
-0.0182298
-0.0135654
-0.00909169
-0.00479221
-0.000648554
0.00335737
0.00724189
0.0110193
0.0147021
0.0183008
0.0218248
0.0252826
0.0286815
0.0320282
0.0353287
0.0385884
0.0418121
0.045004
0.048168
0.0513074
0.0544252
0.057524
0.0606061
0.0636737
0.0667284
0.0697719
0.0728057
0.0758309
0.0788489
0.0818605
0.0848666
0.0878681
0.0908657
0.0938601
0.0968518
0.0998414
0.102829
0.105816
0.108802
-0.218766
-0.215139
-0.211574
-0.208106
-0.204767
-0.201581
-0.198567
-0.195728
-0.193063
-0.190558
-0.188191
-0.185935
-0.183759
-0.181644
-0.179576
-0.177543
-0.175521
-0.173496
-0.171456
-0.169385
-0.167267
-0.165083
-0.162826
-0.160488
-0.158078
-0.155625
-0.15316
-0.150702
-0.148256
-0.145835
-0.143456
-0.141126
-0.138859
-0.136663
-0.134545
-0.132506
-0.130532
-0.128612
-0.126734
-0.124895
-0.123079
-0.121275
-0.119471
-0.117659
-0.115829
-0.113972
-0.112086
-0.110171
-0.108228
-0.106261
-0.104271
-0.102261
-0.100234
-0.0981929
-0.0961372
-0.094064
-0.0919825
-0.0898979
-0.0878066
-0.0857067
-0.0835938
-0.0814643
-0.0793119
-0.0771206
-0.0748779
-0.0725769
-0.0702053
-0.0677628
-0.0652316
-0.0625951
-0.0598279
-0.0568911
-0.0537744
-0.0504557
-0.0469329
-0.0431989
-0.0392602
-0.0351278
-0.0308101
-0.0263287
-0.0216653
-0.0168617
-0.0122708
-0.00787727
-0.00366232
0.000395809
0.00431809
0.00812292
0.0118257
0.0154392
0.018974
0.0224391
0.0258426
0.0291914
0.032492
0.03575
0.0389706
0.0421584
0.0453174
0.0484513
0.0515631
0.0546557
0.0577315
0.0607926
0.0638409
0.066878
0.0699055
0.0729245
0.0759363
0.0789418
0.0819419
0.0849374
0.0879289
0.0909172
0.0939028
0.0968861
0.0998677
0.102848
0.105827
0.108806
-0.218853
-0.215398
-0.211997
-0.208683
-0.205483
-0.20242
-0.19951
-0.196756
-0.194155
-0.191698
-0.189361
-0.187113
-0.184929
-0.182797
-0.180705
-0.178639
-0.176572
-0.174491
-0.172382
-0.170225
-0.168002
-0.165703
-0.163313
-0.160824
-0.15825
-0.15563
-0.153
-0.15038
-0.147778
-0.145203
-0.142675
-0.140205
-0.137802
-0.135476
-0.133234
-0.131081
-0.129009
-0.127001
-0.125046
-0.123136
-0.121257
-0.119396
-0.117542
-0.115687
-0.113819
-0.111927
-0.110007
-0.108061
-0.106088
-0.104091
-0.102072
-0.100031
-0.0979717
-0.0958955
-0.0938033
-0.0916935
-0.0895744
-0.0874495
-0.0853179
-0.0831785
-0.0810307
-0.0788721
-0.0766949
-0.074485
-0.0722275
-0.0699145
-0.0675314
-0.0650811
-0.0625602
-0.0599569
-0.0572375
-0.0543625
-0.0513178
-0.0480875
-0.0446651
-0.0410423
-0.0372212
-0.0332052
-0.029
-0.0246257
-0.0200699
-0.0153287
-0.0108181
-0.00652027
-0.0024096
0.00154284
0.00536339
0.0090735
0.0126897
0.0162246
0.0196881
0.0230886
0.0264331
0.029728
0.0329792
0.036192
0.0393712
0.042521
0.0456453
0.0487474
0.0518302
0.0548963
0.0579479
0.060987
0.0640151
0.0670339
0.0700446
0.0730483
0.0760459
0.0790384
0.0820265
0.0850109
0.0879921
0.0909707
0.0939471
0.0969218
0.0998951
0.102867
0.105839
0.10881
-0.218936
-0.215643
-0.212399
-0.209231
-0.206163
-0.203218
-0.200409
-0.197741
-0.195209
-0.192799
-0.190487
-0.188245
-0.186058
-0.183915
-0.181804
-0.179709
-0.177603
-0.175472
-0.173296
-0.171056
-0.168735
-0.166323
-0.163804
-0.161168
-0.158437
-0.155656
-0.152861
-0.150074
-0.147305
-0.144568
-0.141883
-0.139265
-0.136721
-0.134258
-0.131888
-0.129617
-0.127438
-0.125341
-0.123308
-0.121327
-0.119382
-0.117466
-0.115564
-0.113667
-0.111762
-0.109837
-0.107885
-0.105906
-0.103905
-0.101878
-0.0998308
-0.0977622
-0.0956743
-0.0935687
-0.0914465
-0.0893105
-0.0871648
-0.0850102
-0.0828462
-0.0806732
-0.078495
-0.0763101
-0.074111
-0.0718843
-0.0696122
-0.067285
-0.0648868
-0.0624191
-0.0598839
-0.0572804
-0.0545806
-0.0517493
-0.0487662
-0.0456201
-0.0422941
-0.0387731
-0.0350553
-0.0311366
-0.0270235
-0.0227442
-0.0182879
-0.0136022
-0.00918081
-0.00500123
-0.00102306
0.00279646
0.00649237
0.01009
0.0136063
0.0170528
0.0204379
0.0237682
0.0270494
0.0302871
0.0334861
0.0366513
0.0397869
0.042897
0.0459849
0.0490538
0.0521064
0.0551449
0.0581714
0.0611876
0.0641949
0.0671946
0.0701879
0.0731757
0.0761588
0.0791379
0.0821136
0.0850865
0.0880571
0.0910257
0.0939927
0.0969585
0.0999232
0.102887
0.105851
0.108814
-0.219014
-0.215874
-0.212776
-0.209745
-0.206805
-0.203978
-0.201273
-0.19869
-0.196221
-0.193854
-0.191565
-0.189334
-0.187149
-0.185
-0.182875
-0.180755
-0.178611
-0.176428
-0.174186
-0.171867
-0.169456
-0.166936
-0.164293
-0.161526
-0.158656
-0.15572
-0.152758
-0.149796
-0.146852
-0.143939
-0.141083
-0.138305
-0.135612
-0.133009
-0.130508
-0.128119
-0.125834
-0.123643
-0.121532
-0.119483
-0.117472
-0.115495
-0.113541
-0.111603
-0.109665
-0.107712
-0.105733
-0.103726
-0.101697
-0.0996436
-0.0975705
-0.0954768
-0.0933658
-0.0912394
-0.0890968
-0.0869449
-0.084785
-0.0826149
-0.0804319
-0.0782359
-0.0760347
-0.0738294
-0.0716137
-0.069373
-0.0670898
-0.0647521
-0.0623435
-0.0598607
-0.0573082
-0.0546929
-0.0519909
-0.0491707
-0.0462152
-0.0431185
-0.0398616
-0.0364176
-0.0327818
-0.028942
-0.0248954
-0.0206775
-0.0162882
-0.0116331
-0.00731421
-0.0032909
0.00051099
0.00415931
0.00770149
0.0111659
0.0145683
0.0179169
0.0212168
0.0244721
0.0276865
0.030864
0.0340084
0.037124
0.0402144
0.0432831
0.0463334
0.049368
0.0523894
0.0553994
0.0584
0.0613926
0.0643785
0.0673587
0.0703342
0.0733057
0.0762738
0.0792392
0.0822023
0.0851636
0.0881232
0.0910817
0.0940391
0.0969958
0.0999519
0.102907
0.105863
0.108818
-0.219085
-0.216087
-0.213126
-0.210228
-0.207413
-0.204698
-0.202087
-0.199584
-0.197178
-0.194856
-0.192595
-0.190381
-0.188204
-0.186054
-0.183919
-0.181773
-0.179594
-0.177361
-0.175059
-0.172669
-0.170175
-0.167558
-0.164806
-0.161922
-0.15892
-0.155832
-0.152698
-0.149552
-0.146424
-0.143324
-0.140282
-0.137329
-0.13448
-0.13174
-0.129116
-0.126612
-0.124219
-0.121925
-0.11972
-0.117593
-0.115519
-0.113487
-0.111483
-0.109501
-0.107533
-0.105559
-0.10356
-0.101535
-0.0994858
-0.097414
-0.0953235
-0.0932138
-0.0910875
-0.0889488
-0.0867964
-0.0846374
-0.0824727
-0.0802999
-0.0781142
-0.0759125
-0.0737024
-0.0714846
-0.069257
-0.0670065
-0.064713
-0.0623612
-0.0599435
-0.0574447
-0.0548746
-0.0522413
-0.0495279
-0.0467055
-0.0437568
-0.0406748
-0.0374484
-0.0340472
-0.0304567
-0.0266548
-0.0226252
-0.0184043
-0.0140122
-0.00932889
-0.00514379
-0.00134965
0.00220451
0.005628
0.00898096
0.0122903
0.0155653
0.0188077
0.0220173
0.025194
0.0283388
0.0314538
0.0345419
0.0376062
0.04065
0.0436763
0.0466879
0.0496874
0.0526767
0.0556576
0.0586318
0.0616004
0.0645644
0.0675247
0.0704821
0.073437
0.0763901
0.0793416
0.0822919
0.0852413
0.08819
0.0911381
0.0940859
0.0970334
0.0999807
0.102928
0.105875
0.108822
-0.21915
-0.216283
-0.213453
-0.210683
-0.207989
-0.205381
-0.202864
-0.200438
-0.198093
-0.195814
-0.193584
-0.19139
-0.189225
-0.18708
-0.184938
-0.182768
-0.180553
-0.178274
-0.175919
-0.173466
-0.170896
-0.168193
-0.165347
-0.162357
-0.15923
-0.155991
-0.152681
-0.149349
-0.14603
-0.142734
-0.139496
-0.13636
-0.133346
-0.130456
-0.127696
-0.125071
-0.122577
-0.120198
-0.117912
-0.115703
-0.113558
-0.111465
-0.109412
-0.107388
-0.105388
-0.103394
-0.101383
-0.0993498
-0.0972945
-0.0952181
-0.0931224
-0.0910082
-0.0888786
-0.0867396
-0.0845945
-0.0824465
-0.0802949
-0.0781361
-0.0759639
-0.073772
-0.0715657
-0.0693442
-0.0671082
-0.0648469
-0.0625426
-0.0601712
-0.0577416
-0.0552223
-0.0526347
-0.0499728
-0.0472299
-0.0443883
-0.0414277
-0.0383415
-0.0351154
-0.0317249
-0.0281435
-0.02433
-0.0202399
-0.0158932
-0.0113463
-0.00650126
-0.00254803
0.000865051
0.00405507
0.00718337
0.0103093
0.0134444
0.0165826
0.0197141
0.0228304
0.0259265
0.0290002
0.0320515
0.035082
0.038094
0.0410902
0.0440732
0.0470454
0.050009
0.0529658
0.0559173
0.0588646
0.0618089
0.0647509
0.0676912
0.0706303
0.0735686
0.0765064
0.079444
0.0823814
0.085319
0.0882567
0.0911945
0.0941326
0.097071
0.10001
0.102948
0.105887
0.108826
-0.219213
-0.216469
-0.213763
-0.211114
-0.208533
-0.206029
-0.203604
-0.201254
-0.198969
-0.196735
-0.19454
-0.192374
-0.190227
-0.188089
-0.185938
-0.183746
-0.181498
-0.179179
-0.176775
-0.174263
-0.171624
-0.168843
-0.165912
-0.162825
-0.159582
-0.156202
-0.15272
-0.149193
-0.145675
-0.142177
-0.138732
-0.135395
-0.132195
-0.129141
-0.126238
-0.123486
-0.120882
-0.118413
-0.116052
-0.113779
-0.111577
-0.109433
-0.107339
-0.105282
-0.103255
-0.101247
-0.0992291
-0.0971953
-0.0951439
-0.0930741
-0.0909865
-0.0888828
-0.086767
-0.0846444
-0.082523
-0.0804046
-0.078286
-0.0761612
-0.0740224
-0.0718611
-0.0696769
-0.0674649
-0.0652273
-0.0629556
-0.0606393
-0.0582494
-0.0558034
-0.0532596
-0.050646
-0.0479531
-0.0451674
-0.0422869
-0.0392886
-0.0361684
-0.0329108
-0.0294936
-0.0258863
-0.0220175
-0.0177848
-0.0131309
-0.00810464
-0.00272575
0.000652385
0.00336337
0.00601625
0.00877492
0.011647
0.0146005
0.0176013
0.0206226
0.0236466
0.0266625
0.0296649
0.0326521
0.0356244
0.0385834
0.0415314
0.0444705
0.0474029
0.0503303
0.0532543
0.056176
0.0590964
0.0620163
0.0649362
0.0678564
0.0707773
0.073699
0.0766217
0.0795454
0.0824701
0.0853959
0.0883227
0.0912504
0.0941789
0.0971081
0.100038
0.102968
0.105899
0.10883
-0.219275
-0.216655
-0.21407
-0.211537
-0.209064
-0.206656
-0.204313
-0.202036
-0.199812
-0.197628
-0.195473
-0.193338
-0.191213
-0.189084
-0.186926
-0.184716
-0.18244
-0.180083
-0.177632
-0.175065
-0.172364
-0.169516
-0.166508
-0.163329
-0.159972
-0.156451
-0.152796
-0.149075
-0.145359
-0.141655
-0.137981
-0.134415
-0.131007
-0.127784
-0.124745
-0.121878
-0.119168
-0.116606
-0.114168
-0.11183
-0.109578
-0.107394
-0.105267
-0.103187
-0.101146
-0.0991301
-0.0971128
-0.0950871
-0.0930509
-0.0910002
-0.0889344
-0.0868565
-0.0847735
-0.0826904
-0.0806157
-0.0785502
-0.0764892
-0.0744224
-0.0723384
-0.0702267
-0.0680816
-0.0658948
-0.063665
-0.0613869
-0.0590554
-0.0566494
-0.0541771
-0.0516142
-0.0489666
-0.0462372
-0.04341
-0.0404807
-0.0374319
-0.0342527
-0.0309295
-0.0274366
-0.0237472
-0.0197731
-0.0153324
-0.0101706
-0.00404432
0.00313429
0.00461323
0.00600755
0.00794279
0.0103038
0.0129342
0.0157232
0.0185999
0.0215199
0.0244567
0.0273951
0.0303274
0.0332507
0.0361647
0.0390705
0.0419699
0.0448649
0.0477572
0.0506483
0.0535394
0.0564315
0.0593251
0.0622207
0.0651186
0.0680189
0.0709218
0.0738271
0.0767348
0.0796449
0.0825571
0.0854713
0.0883873
0.091305
0.0942241
0.0971445
0.100066
0.102988
0.105911
0.108834
-0.219337
-0.216838
-0.21437
-0.211947
-0.209577
-0.207263
-0.205005
-0.202797
-0.200635
-0.198506
-0.196399
-0.1943
-0.192197
-0.190073
-0.18791
-0.185685
-0.183387
-0.180999
-0.178504
-0.175882
-0.173121
-0.170215
-0.167138
-0.163865
-0.160384
-0.156712
-0.152885
-0.148972
-0.14506
-0.141157
-0.137251
-0.133439
-0.129805
-0.126392
-0.123205
-0.12022
-0.11741
-0.114763
-0.112257
-0.109861
-0.107564
-0.105347
-0.103198
-0.101108
-0.0990625
-0.0970508
-0.0950451
-0.0930376
-0.0910241
-0.0890025
-0.0869735
-0.0849422
-0.0829156
-0.0809004
-0.078903
-0.0769202
-0.0749445
-0.0729609
-0.0709535
-0.0689084
-0.0668156
-0.0646653
-0.0624519
-0.0601704
-0.0578178
-0.055393
-0.05289
-0.0503027
-0.0476269
-0.0448582
-0.0419903
-0.0390107
-0.0359068
-0.0326613
-0.0292622
-0.0256827
-0.0218923
-0.0178023
-0.0131816
-0.00749805
0.000516883
0.00759675
0.00877528
0.00822092
0.00953316
0.0116275
0.0141032
0.016779
0.0195606
0.0223953
0.0252534
0.0281186
0.0309828
0.033843
0.0366989
0.0395514
0.0424022
0.045253
0.0481053
0.0509602
0.0538187
0.0566813
0.0595484
0.0624201
0.0652964
0.0681772
0.0710624
0.0739516
0.0768448
0.0797415
0.0826415
0.0855444
0.08845
0.091358
0.094268
0.0971797
0.100093
0.103007
0.105922
0.108838
-0.219397
-0.217018
-0.214664
-0.212348
-0.210079
-0.207858
-0.205685
-0.203555
-0.201459
-0.199386
-0.197324
-0.19526
-0.19318
-0.191064
-0.1889
-0.186662
-0.184337
-0.18191
-0.179368
-0.176697
-0.173889
-0.170932
-0.167791
-0.164419
-0.160795
-0.156948
-0.152928
-0.148817
-0.144722
-0.140645
-0.136532
-0.132493
-0.128635
-0.125008
-0.121642
-0.118525
-0.115611
-0.112876
-0.110304
-0.107862
-0.105533
-0.103295
-0.101134
-0.0990409
-0.0970027
-0.0950054
-0.0930226
-0.0910433
-0.0890626
-0.0870809
-0.0851033
-0.0831409
-0.0812015
-0.0792905
-0.0774082
-0.0755452
-0.0736859
-0.0718089
-0.069894
-0.0679252
-0.0658915
-0.0637821
-0.0615883
-0.0593065
-0.0569306
-0.054469
-0.0519258
-0.0493015
-0.0465926
-0.0437879
-0.0408835
-0.0378636
-0.0347133
-0.0314124
-0.0279496
-0.0243054
-0.0204555
-0.0163356
-0.0117852
-0.00647561
-4.63229e-06
0.00710478
0.00766279
0.00870485
0.0104436
0.0126425
0.0151183
0.0177535
0.0204763
0.0232442
0.0260329
0.0288294
0.0316275
0.0344254
0.0372233
0.0400225
0.0428248
0.0456315
0.048444
0.0512632
0.0540894
0.0569231
0.0597642
0.0626125
0.0654677
0.0683296
0.0711976
0.0740714
0.0769504
0.0798342
0.0827225
0.0856146
0.0885102
0.0914088
0.09431
0.0972135
0.100119
0.103025
0.105933
0.108841
-0.219455
-0.217191
-0.214948
-0.212738
-0.210569
-0.208441
-0.206352
-0.204298
-0.20227
-0.200257
-0.198243
-0.196218
-0.194163
-0.192059
-0.189896
-0.187646
-0.185295
-0.182833
-0.180247
-0.177522
-0.174651
-0.171615
-0.168375
-0.164886
-0.16113
-0.157117
-0.152901
-0.148596
-0.14434
-0.14014
-0.135883
-0.131628
-0.127519
-0.123655
-0.120097
-0.116839
-0.113819
-0.110991
-0.108344
-0.105854
-0.103496
-0.101241
-0.0990751
-0.0969855
-0.0949587
-0.0929804
-0.0910297
-0.0890862
-0.0871465
-0.085217
-0.0833091
-0.0814423
-0.0796282
-0.0778673
-0.0761468
-0.0744447
-0.0727312
-0.0709767
-0.0691571
-0.0672591
-0.0652778
-0.0632079
-0.0610334
-0.0587469
-0.0563406
-0.0538257
-0.0512216
-0.0485458
-0.0457983
-0.0429636
-0.040034
-0.03699
-0.0338121
-0.0304755
-0.026963
-0.0232626
-0.0193669
-0.0152614
-0.0108934
-0.0061403
-0.000989329
0.0037381
0.00642322
0.00869521
0.0110074
0.013455
0.0160207
0.0186652
0.0213556
0.0240701
0.0267956
0.0295259
0.0322587
0.0349943
0.0377341
0.0404801
0.0432339
0.045997
0.0487702
0.0515541
0.0543489
0.0571544
0.0599702
0.0627959
0.0656309
0.0684745
0.0713261
0.074185
0.0770506
0.0799222
0.0827992
0.085681
0.0885671
0.0914569
0.0943498
0.0972455
0.100143
0.103043
0.105943
0.108845
-0.219512
-0.217361
-0.215228
-0.213124
-0.211052
-0.209014
-0.20701
-0.205033
-0.203073
-0.201119
-0.199154
-0.197169
-0.195138
-0.193051
-0.190891
-0.188627
-0.186249
-0.183748
-0.181105
-0.178316
-0.175371
-0.172246
-0.168877
-0.165221
-0.16128
-0.157085
-0.152708
-0.148275
-0.14391
-0.139629
-0.135272
-0.130841
-0.126514
-0.122418
-0.118643
-0.115217
-0.112081
-0.109156
-0.106426
-0.103886
-0.101494
-0.0992203
-0.0970446
-0.0949515
-0.0929281
-0.0909627
-0.0890426
-0.0871367
-0.0852415
-0.0833742
-0.0815591
-0.079825
-0.0781868
-0.0766325
-0.0751231
-0.0736158
-0.0720638
-0.0704284
-0.068684
-0.0668274
-0.0648679
-0.0628241
-0.0606697
-0.0583954
-0.0559666
-0.053389
-0.0506959
-0.0479419
-0.0451399
-0.0422776
-0.0393487
-0.0363085
-0.0331283
-0.0297757
-0.0262264
-0.0224755
-0.0185267
-0.0144159
-0.0101857
-0.00585969
-0.00147387
0.00261637
0.00592022
0.00881244
0.0115402
0.014219
0.016887
0.019553
0.0222181
0.0248818
0.0275445
0.0302078
0.0328742
0.0355466
0.0382279
0.0409204
0.0436259
0.0463458
0.0490805
0.0518301
0.0545943
0.0573727
0.0601643
0.0629685
0.0657842
0.0686105
0.0714466
0.0742915
0.0771444
0.0800045
0.0828709
0.0857431
0.0886203
0.0915018
0.094387
0.0972753
0.100166
0.103059
0.105953