/*--------------------------------*- C++ -*----------------------------------*\
  =========                 |
  \\      /  F ield         | OpenFOAM: The Open Source CFD Toolbox
   \\    /   O peration     | Website:  https://openfoam.org
    \\  /    A nd           | Version:  6
     \\/     M anipulation  |
\*---------------------------------------------------------------------------*/
FoamFile
{
    version     2.0;
    format      ascii;
    class       volScalarField;
    location    "2100";
    object      T;
}
// * * * * * * * * * * * * * * * * * * * * * * * * * * * * * * * * * * * * * //

dimensions      [0 0 0 1 0 0 0];

internalField   nonuniform List<scalar> 
4800
(
552.459
552.278
552.1
551.927
551.763
551.609
551.468
551.339
551.222
551.116
551.02
550.933
550.853
550.781
550.714
550.652
550.595
550.541
550.49
550.441
550.394
550.348
550.304
550.261
550.218
550.176
550.134
550.092
550.05
550.008
549.966
549.924
549.881
549.837
549.793
549.747
549.701
549.653
549.605
549.555
549.505
549.454
549.403
549.35
549.298
549.244
549.19
549.136
549.081
549.026
548.971
548.914
548.857
548.798
548.738
548.677
548.614
548.548
548.48
548.408
548.332
548.252
548.167
548.076
547.979
547.876
547.768
547.654
547.534
547.407
547.273
547.131
546.981
546.822
546.655
546.482
546.304
546.126
545.949
545.774
545.6
545.428
545.258
545.092
544.929
544.769
544.614
544.462
544.314
544.169
544.027
543.889
543.753
543.62
543.489
543.361
543.234
543.11
542.987
542.866
542.746
542.628
542.51
542.394
542.278
542.164
542.05
541.936
541.824
541.711
541.6
541.488
541.377
541.266
541.156
541.045
540.935
540.825
540.715
540.605
552.459
552.278
552.1
551.928
551.765
551.612
551.471
551.342
551.225
551.12
551.024
550.937
550.858
550.785
550.718
550.656
550.599
550.544
550.493
550.444
550.396
550.35
550.305
550.261
550.217
550.174
550.131
550.089
550.046
550.004
549.961
549.918
549.874
549.83
549.786
549.74
549.693
549.646
549.597
549.548
549.497
549.446
549.394
549.342
549.289
549.235
549.181
549.126
549.071
549.016
548.959
548.902
548.844
548.785
548.725
548.663
548.6
548.534
548.465
548.394
548.318
548.238
548.154
548.064
547.968
547.867
547.76
547.647
547.527
547.402
547.269
547.128
546.98
546.823
546.659
546.488
546.312
546.133
545.953
545.775
545.6
545.426
545.256
545.089
544.926
544.767
544.611
544.459
544.311
544.166
544.025
543.887
543.751
543.618
543.488
543.359
543.233
543.109
542.986
542.865
542.745
542.627
542.509
542.393
542.278
542.163
542.049
541.936
541.823
541.711
541.599
541.488
541.377
541.266
541.156
541.045
540.935
540.825
540.715
540.605
552.459
552.279
552.103
551.933
551.771
551.619
551.479
551.351
551.234
551.129
551.033
550.946
550.867
550.795
550.728
550.666
550.607
550.552
550.5
550.45
550.401
550.354
550.308
550.262
550.217
550.173
550.128
550.084
550.04
549.996
549.952
549.908
549.863
549.818
549.772
549.726
549.679
549.631
549.583
549.533
549.482
549.431
549.379
549.326
549.272
549.218
549.163
549.107
549.051
548.994
548.937
548.879
548.82
548.76
548.699
548.636
548.572
548.506
548.438
548.366
548.291
548.213
548.129
548.041
547.947
547.848
547.742
547.631
547.514
547.39
547.26
547.121
546.975
546.821
546.66
546.491
546.317
546.139
545.957
545.776
545.597
545.422
545.251
545.084
544.92
544.761
544.606
544.454
544.306
544.162
544.021
543.882
543.747
543.615
543.484
543.356
543.23
543.106
542.984
542.863
542.743
542.625
542.508
542.392
542.276
542.162
542.048
541.935
541.822
541.71
541.599
541.487
541.376
541.266
541.155
541.045
540.935
540.825
540.715
540.605
552.46
552.282
552.108
551.94
551.78
551.63
551.492
551.365
551.249
551.144
551.048
550.962
550.883
550.81
550.743
550.68
550.621
550.565
550.512
550.46
550.41
550.361
550.313
550.266
550.219
550.172
550.126
550.079
550.033
549.986
549.94
549.894
549.847
549.8
549.754
549.706
549.659
549.61
549.561
549.511
549.46
549.408
549.355
549.302
549.247
549.192
549.136
549.079
549.022
548.964
548.905
548.845
548.785
548.724
548.662
548.599
548.534
548.467
548.399
548.328
548.253
548.175
548.093
548.007
547.915
547.818
547.716
547.607
547.493
547.372
547.244
547.108
546.965
546.815
546.656
546.49
546.318
546.141
545.958
545.774
545.592
545.415
545.243
545.076
544.912
544.753
544.598
544.446
544.299
544.155
544.014
543.876
543.742
543.609
543.479
543.352
543.226
543.102
542.98
542.86
542.741
542.623
542.506
542.39
542.275
542.16
542.047
541.934
541.821
541.709
541.598
541.487
541.376
541.265
541.155
541.045
540.935
540.825
540.715
540.605
552.462
552.287
552.116
551.95
551.793
551.646
551.509
551.383
551.269
551.164
551.07
550.983
550.904
550.831
550.763
550.7
550.64
550.583
550.528
550.474
550.423
550.372
550.322
550.272
550.223
550.173
550.124
550.074
550.025
549.975
549.926
549.877
549.828
549.779
549.731
549.682
549.633
549.584
549.534
549.483
549.431
549.378
549.325
549.27
549.215
549.158
549.101
549.043
548.983
548.924
548.863
548.803
548.741
548.678
548.615
548.551
548.486
548.419
548.35
548.279
548.205
548.128
548.047
547.963
547.874
547.779
547.68
547.574
547.463
547.345
547.22
547.088
546.948
546.8
546.644
546.48
546.309
546.132
545.95
545.765
545.583
545.405
545.232
545.064
544.901
544.742
544.587
544.436
544.289
544.146
544.005
543.868
543.734
543.602
543.473
543.346
543.221
543.098
542.976
542.856
542.737
542.619
542.503
542.387
542.272
542.158
542.045
541.932
541.82
541.708
541.597
541.486
541.375
541.264
541.154
541.044
540.934
540.824
540.715
540.605
552.464
552.292
552.124
551.963
551.809
551.665
551.531
551.407
551.294
551.19
551.096
551.01
550.931
550.857
550.789
550.725
550.664
550.605
550.549
550.493
550.439
550.386
550.333
550.281
550.228
550.176
550.123
550.07
550.017
549.964
549.911
549.858
549.806
549.755
549.704
549.653
549.602
549.551
549.5
549.448
549.396
549.342
549.287
549.232
549.175
549.117
549.058
548.998
548.937
548.876
548.814
548.752
548.689
548.625
548.56
548.495
548.429
548.361
548.292
548.221
548.148
548.072
547.993
547.91
547.823
547.731
547.634
547.532
547.424
547.309
547.188
547.059
546.921
546.776
546.623
546.462
546.293
546.118
545.937
545.753
545.57
545.391
545.218
545.05
544.886
544.728
544.573
544.423
544.277
544.134
543.994
543.858
543.725
543.594
543.465
543.339
543.214
543.092
542.97
542.851
542.732
542.615
542.499
542.384
542.269
542.155
542.042
541.93
541.818
541.706
541.595
541.484
541.374
541.263
541.153
541.043
540.934
540.824
540.714
540.605
552.467
552.301
552.137
551.978
551.828
551.686
551.555
551.434
551.323
551.221
551.128
551.043
550.963
550.89
550.821
550.755
550.693
550.632
550.573
550.515
550.459
550.403
550.347
550.291
550.236
550.179
550.123
550.065
550.008
549.951
549.894
549.838
549.782
549.727
549.673
549.62
549.567
549.514
549.461
549.408
549.354
549.299
549.243
549.186
549.128
549.069
549.008
548.947
548.884
548.821
548.758
548.694
548.629
548.564
548.498
548.432
548.365
548.297
548.227
548.156
548.083
548.008
547.93
547.849
547.763
547.674
547.58
547.481
547.375
547.264
547.146
547.02
546.886
546.745
546.595
546.437
546.271
546.098
545.919
545.736
545.553
545.374
545.2
545.032
544.868
544.71
544.557
544.407
544.262
544.12
543.981
543.846
543.713
543.583
543.456
543.33
543.206
543.084
542.964
542.845
542.727
542.61
542.495
542.38
542.266
542.152
542.039
541.927
541.816
541.704
541.593
541.483
541.372
541.262
541.152
541.043
540.933
540.824
540.714
540.605
552.468
552.306
552.148
551.995
551.849
551.712
551.584
551.465
551.356
551.256
551.164
551.079
551
550.926
550.856
550.79
550.725
550.663
550.602
550.541
550.482
550.423
550.363
550.304
550.244
550.183
550.122
550.06
549.998
549.936
549.875
549.815
549.755
549.697
549.64
549.584
549.528
549.473
549.418
549.363
549.307
549.251
549.193
549.135
549.075
549.014
548.952
548.889
548.825
548.761
548.696
548.63
548.564
548.497
548.43
548.362
548.294
548.225
548.155
548.084
548.012
547.937
547.86
547.78
547.696
547.608
547.517
547.42
547.318
547.21
547.095
546.973
546.843
546.704
546.558
546.403
546.24
546.07
545.894
545.714
545.533
545.353
545.178
545.01
544.847
544.69
544.537
544.389
544.244
544.104
543.966
543.832
543.701
543.572
543.445
543.32
543.197
543.076
542.956
542.838
542.721
542.605
542.489
542.375
542.262
542.149
542.036
541.924
541.813
541.702
541.591
541.481
541.371
541.261
541.151
541.042
540.932
540.823
540.714
540.605
552.471
552.314
552.161
552.013
551.872
551.739
551.615
551.499
551.393
551.294
551.203
551.119
551.04
550.965
550.895
550.827
550.761
550.697
550.633
550.57
550.507
550.444
550.381
550.317
550.253
550.187
550.121
550.054
549.987
549.92
549.854
549.79
549.726
549.664
549.603
549.544
549.485
549.427
549.369
549.312
549.255
549.197
549.138
549.079
549.018
548.955
548.892
548.827
548.762
548.696
548.629
548.562
548.494
548.426
548.357
548.288
548.219
548.149
548.078
548.007
547.934
547.859
547.783
547.704
547.621
547.535
547.446
547.351
547.252
547.147
547.036
546.917
546.79
546.655
546.512
546.36
546.201
546.034
545.862
545.687
545.509
545.327
545.152
544.984
544.822
544.666
544.514
544.367
544.224
544.085
543.949
543.816
543.686
543.558
543.433
543.309
543.187
543.067
542.948
542.83
542.714
542.598
542.484
542.37
542.257
542.144
542.033
541.921
541.81
541.699
541.589
541.479
541.369
541.26
541.15
541.041
540.932
540.823
540.714
540.605
552.474
552.323
552.176
552.034
551.897
551.768
551.648
551.535
551.43
551.334
551.245
551.161
551.082
551.007
550.936
550.867
550.799
550.732
550.666
550.6
550.534
550.467
550.4
550.331
550.261
550.19
550.118
550.046
549.974
549.902
549.831
549.762
549.694
549.628
549.563
549.5
549.439
549.378
549.318
549.258
549.199
549.139
549.079
549.018
548.955
548.892
548.827
548.761
548.694
548.627
548.558
548.489
548.42
548.35
548.28
548.21
548.139
548.068
547.996
547.924
547.851
547.776
547.7
547.621
547.54
547.455
547.367
547.275
547.179
547.076
546.968
546.853
546.729
546.598
546.459
546.311
546.156
545.994
545.826
545.653
545.475
545.294
545.121
544.954
544.793
544.639
544.489
544.343
544.202
544.065
543.93
543.799
543.67
543.543
543.419
543.297
543.176
543.057
542.939
542.822
542.706
542.592
542.478
542.364
542.252
542.14
542.029
541.918
541.807
541.697
541.587
541.477
541.367
541.258
541.149
541.04
540.931
540.822
540.713
540.604
552.477
552.333
552.192
552.055
551.923
551.799
551.682
551.572
551.471
551.376
551.288
551.205
551.126
551.051
550.978
550.907
550.838
550.769
550.7
550.631
550.561
550.49
550.418
550.345
550.269
550.192
550.115
550.037
549.959
549.882
549.807
549.732
549.66
549.589
549.521
549.454
549.389
549.326
549.263
549.201
549.14
549.078
549.016
548.954
548.89
548.825
548.759
548.692
548.624
548.555
548.485
548.415
548.344
548.273
548.201
548.129
548.057
547.984
547.911
547.838
547.764
547.689
547.612
547.534
547.453
547.369
547.282
547.192
547.097
546.998
546.892
546.78
546.66
546.533
546.397
546.254
546.103
545.945
545.781
545.611
545.434
545.255
545.084
544.919
544.761
544.608
544.46
544.317
544.177
544.042
543.909
543.779
543.652
543.527
543.404
543.283
543.164
543.046
542.929
542.813
542.698
542.584
542.471
542.358
542.247
542.135
542.024
541.914
541.804
541.694
541.584
541.475
541.365
541.256
541.148
541.039
540.93
540.821
540.713
540.604
552.481
552.342
552.207
552.076
551.949
551.829
551.716
551.61
551.511
551.418
551.331
551.249
551.171
551.094
551.02
550.948
550.877
550.805
550.734
550.662
550.589
550.514
550.437
550.358
550.276
550.193
550.11
550.027
549.944
549.861
549.78
549.701
549.623
549.548
549.476
549.406
549.338
549.271
549.206
549.141
549.078
549.014
548.951
548.886
548.821
548.755
548.688
548.62
548.551
548.48
548.409
548.338
548.265
548.193
548.12
548.046
547.972
547.898
547.824
547.749
547.674
547.598
547.521
547.442
547.361
547.277
547.191
547.102
547.009
546.912
546.809
546.7
546.584
546.46
546.328
546.189
546.042
545.888
545.727
545.561
545.388
545.211
545.042
544.88
544.724
544.574
544.428
544.287
544.15
544.017
543.886
543.759
543.633
543.51
543.388
543.269
543.151
543.034
542.918
542.803
542.689
542.576
542.464
542.352
542.241
542.13
542.02
541.91
541.8
541.69
541.581
541.472
541.363
541.255
541.146
541.038
540.929
540.821
540.712
540.604
552.484
552.352
552.223
552.097
551.976
551.861
551.751
551.648
551.552
551.461
551.375
551.293
551.214
551.137
551.062
550.989
550.915
550.842
550.768
550.693
550.616
550.537
550.455
550.37
550.283
550.194
550.104
550.015
549.927
549.839
549.752
549.668
549.586
549.506
549.429
549.355
549.284
549.214
549.146
549.079
549.014
548.948
548.883
548.817
548.751
548.683
548.615
548.545
548.475
548.404
548.331
548.259
548.185
548.111
548.037
547.961
547.886
547.81
547.734
547.658
547.582
547.504
547.426
547.347
547.266
547.182
547.096
547.008
546.916
546.82
546.72
546.613
546.5
546.38
546.252
546.117
545.974
545.824
545.667
545.505
545.336
545.162
544.995
544.836
544.683
544.536
544.393
544.255
544.121
543.99
543.862
543.736
543.613
543.491
543.372
543.254
543.137
543.021
542.907
542.793
542.68
542.568
542.456
542.345
542.235
542.125
542.015
541.905
541.796
541.687
541.578
541.47
541.361
541.253
541.145
541.036
540.928
540.82
540.712
540.604
552.487
552.362
552.238
552.118
552.002
551.891
551.785
551.686
551.591
551.502
551.417
551.336
551.257
551.179
551.103
551.028
550.954
550.878
550.802
550.723
550.643
550.559
550.473
550.382
550.289
550.194
550.099
550.004
549.909
549.816
549.724
549.635
549.547
549.463
549.382
549.304
549.229
549.156
549.085
549.016
548.947
548.88
548.813
548.745
548.678
548.609
548.539
548.469
548.397
548.325
548.252
548.178
548.103
548.028
547.952
547.875
547.799
547.721
547.644
547.567
547.489
547.41
547.332
547.251
547.17
547.086
546.999
546.91
546.819
546.725
546.626
546.522
546.411
546.294
546.17
546.039
545.9
545.754
545.602
545.443
545.278
545.106
544.942
544.787
544.637
544.494
544.356
544.221
544.09
543.962
543.836
543.713
543.591
543.472
543.354
543.237
543.122
543.008
542.895
542.782
542.67
542.559
542.448
542.338
542.228
542.119
542.01
541.901
541.792
541.684
541.575
541.467
541.359
541.251
541.143
541.035
540.927
540.819
540.712
540.604
552.49
552.371
552.253
552.138
552.027
551.92
551.818
551.721
551.629
551.542
551.458
551.377
551.298
551.22
551.143
551.067
550.991
550.914
550.835
550.753
550.669
550.582
550.49
550.395
550.296
550.195
550.094
549.992
549.892
549.793
549.695
549.6
549.508
549.419
549.333
549.251
549.172
549.095
549.022
548.95
548.879
548.81
548.741
548.672
548.603
548.533
548.463
548.391
548.318
548.245
548.17
548.095
548.02
547.943
547.866
547.789
547.711
547.633
547.555
547.476
547.397
547.318
547.238
547.157
547.075
546.99
546.903
546.814
546.722
546.628
546.53
546.427
546.319
546.205
546.084
545.956
545.821
545.679
545.53
545.375
545.213
545.043
544.883
544.731
544.587
544.449
544.315
544.184
544.057
543.932
543.809
543.688
543.569
543.452
543.336
543.221
543.107
542.994
542.882
542.771
542.66
542.55
542.44
542.331
542.222
542.113
542.005
541.896
541.788
541.68
541.572
541.464
541.357
541.249
541.141
541.034
540.926
540.819
540.711
540.604
552.493
552.379
552.267
552.157
552.05
551.948
551.849
551.756
551.666
551.58
551.497
551.416
551.337
551.259
551.182
551.105
551.027
550.948
550.867
550.783
550.695
550.604
550.508
550.408
550.304
550.197
550.09
549.982
549.876
549.77
549.666
549.566
549.468
549.374
549.283
549.196
549.113
549.034
548.957
548.883
548.81
548.738
548.668
548.597
548.527
548.456
548.384
548.312
548.238
548.164
548.088
548.013
547.936
547.859
547.781
547.703
547.625
547.546
547.467
547.387
547.308
547.228
547.147
547.066
546.983
546.898
546.811
546.721
546.629
546.534
546.436
546.333
546.226
546.114
545.996
545.871
545.739
545.6
545.453
545.3
545.141
544.972
544.815
544.669
544.531
544.399
544.271
544.145
544.022
543.9
543.781
543.663
543.546
543.431
543.317
543.204
543.092
542.98
542.87
542.76
542.65
542.541
542.432
542.324
542.215
542.107
541.999
541.891
541.784
541.676
541.569
541.461
541.354
541.247
541.14
541.032
540.925
540.818
540.711
540.604
552.495
552.387
552.279
552.174
552.072
551.974
551.879
551.788
551.701
551.617
551.535
551.454
551.375
551.297
551.22
551.142
551.063
550.982
550.899
550.812
550.721
550.627
550.527
550.422
550.313
550.201
550.088
549.973
549.86
549.748
549.637
549.53
549.427
549.327
549.232
549.141
549.055
548.972
548.892
548.814
548.739
548.666
548.593
548.521
548.45
548.378
548.306
548.232
548.158
548.083
548.007
547.93
547.853
547.776
547.698
547.62
547.541
547.462
547.383
547.303
547.223
547.143
547.062
546.98
546.897
546.812
546.724
546.634
546.54
546.445
546.346
546.244
546.137
546.025
545.908
545.785
545.655
545.517
545.371
545.217
545.058
544.888
544.736
544.599
544.47
544.346
544.224
544.104
543.986
543.868
543.752
543.636
543.522
543.409
543.297
543.186
543.076
542.966
542.857
542.748
542.64
542.532
542.424
542.316
542.208
542.101
541.994
541.887
541.78
541.673
541.566
541.459
541.352
541.245
541.138
541.031
540.924
540.817
540.71
540.603
552.498
552.394
552.291
552.191
552.093
551.998
551.907
551.819
551.734
551.651
551.571
551.491
551.412
551.335
551.257
551.178
551.098
551.015
550.93
550.841
550.748
550.65
550.546
550.438
550.324
550.207
550.087
549.966
549.846
549.726
549.609
549.495
549.386
549.281
549.181
549.086
548.995
548.909
548.826
548.746
548.668
548.592
548.518
548.444
548.372
548.3
548.227
548.153
548.078
548.003
547.927
547.851
547.773
547.696
547.618
547.54
547.462
547.384
547.305
547.226
547.146
547.065
546.984
546.902
546.818
546.732
546.644
546.553
546.459
546.363
546.263
546.16
546.053
545.941
545.824
545.701
545.571
545.432
545.284
545.126
544.961
544.786
544.642
544.519
544.403
544.289
544.176
544.062
543.949
543.835
543.722
543.61
543.498
543.388
543.278
543.168
543.06
542.952
542.844
542.736
542.629
542.522
542.415
542.308
542.202
542.095
541.989
541.882
541.775
541.669
541.562
541.456
541.349
541.243
541.136
541.03
540.923
540.816
540.71
540.603
552.5
552.401
552.302
552.206
552.113
552.022
551.934
551.849
551.766
551.685
551.605
551.527
551.449
551.371
551.293
551.214
551.132
551.048
550.961
550.87
550.774
550.673
550.567
550.455
550.337
550.215
550.088
549.96
549.833
549.706
549.581
549.46
549.344
549.233
549.128
549.028
548.934
548.844
548.758
548.676
548.596
548.518
548.443
548.368
548.295
548.222
548.149
548.075
548
547.925
547.85
547.773
547.697
547.62
547.543
547.466
547.389
547.312
547.235
547.156
547.077
546.997
546.916
546.833
546.749
546.663
546.574
546.482
546.387
546.289
546.188
546.084
545.975
545.862
545.744
545.62
545.489
545.349
545.195
545.026
544.844
544.649
544.526
544.428
544.332
544.232
544.128
544.02
543.912
543.802
543.692
543.583
543.474
543.366
543.258
543.151
543.044
542.937
542.831
542.725
542.619
542.513
542.407
542.301
542.195
542.089
541.983
541.877
541.771
541.665
541.559
541.453
541.347
541.241
541.134
541.028
540.922
540.816
540.709
540.603
552.502
552.407
552.314
552.222
552.132
552.045
551.96
551.877
551.796
551.717
551.639
551.562
551.485
551.407
551.329
551.249
551.166
551.081
550.992
550.899
550.801
550.698
550.589
550.473
550.351
550.224
550.091
549.956
549.821
549.687
549.554
549.424
549.301
549.184
549.074
548.97
548.871
548.779
548.69
548.605
548.524
548.445
548.367
548.292
548.218
548.145
548.072
547.998
547.925
547.85
547.775
547.7
547.624
547.549
547.474
547.399
547.324
547.249
547.174
547.097
547.019
546.94
546.859
546.777
546.692
546.605
546.515
546.422
546.326
546.227
546.124
546.018
545.908
545.792
545.672
545.545
545.411
545.267
545.106
544.919
544.696
544.436
544.382
544.332
544.262
544.176
544.081
543.98
543.875
543.77
543.663
543.557
543.45
543.344
543.238
543.133
543.028
542.923
542.818
542.713
542.608
542.503
542.399
542.293
542.188
542.083
541.978
541.873
541.767
541.662
541.556
541.45
541.345
541.239
541.133
541.027
540.921
540.815
540.709
540.603
552.505
552.414
552.324
552.237
552.151
552.067
551.985
551.905
551.826
551.749
551.673
551.597
551.52
551.443
551.365
551.284
551.201
551.114
551.024
550.929
550.828
550.723
550.611
550.493
550.366
550.233
550.094
549.952
549.81
549.669
549.527
549.389
549.257
549.133
549.018
548.91
548.808
548.712
548.621
548.534
548.451
548.37
548.292
548.217
548.142
548.069
547.997
547.924
547.851
547.778
547.704
547.631
547.557
547.484
547.412
547.34
547.268
547.196
547.123
547.049
546.973
546.895
546.815
546.732
546.647
546.559
546.468
546.374
546.277
546.177
546.073
545.965
545.852
545.735
545.611
545.481
545.344
545.196
545.028
544.822
544.531
544.014
544.231
544.252
544.204
544.128
544.038
543.941
543.841
543.738
543.634
543.53
543.426
543.323
543.219
543.116
543.012
542.909
542.805
542.702
542.598
542.494
542.39
542.286
542.182
542.077
541.973
541.868
541.763
541.658
541.553
541.448
541.342
541.237
541.131
541.026
540.92
540.814
540.709
540.603
552.507
552.42
552.335
552.251
552.169
552.088
552.009
551.932
551.856
551.781
551.706
551.631
551.556
551.479
551.401
551.32
551.235
551.147
551.055
550.958
550.856
550.749
550.635
550.513
550.381
550.242
550.096
549.947
549.798
549.65
549.501
549.355
549.215
549.083
548.961
548.848
548.742
548.643
548.55
548.461
548.377
548.296
548.217
548.142
548.068
547.995
547.923
547.852
547.78
547.708
547.636
547.565
547.495
547.426
547.357
547.29
547.223
547.154
547.085
547.014
546.94
546.863
546.784
546.701
546.615
546.525
546.433
546.338
546.24
546.138
546.033
545.923
545.809
545.689
545.564
545.431
545.292
545.142
544.977
544.784
544.55
544.295
544.272
544.234
544.171
544.091
544.002
543.906
543.807
543.707
543.606
543.504
543.403
543.302
543.2
543.099
542.997
542.895
542.793
542.691
542.588
542.486
542.383
542.279
542.176
542.072
541.968
541.864
541.759
541.655
541.55
541.445
541.34
541.235
541.13
541.024
540.919
540.814
540.708
540.603
552.509
552.427
552.345
552.265
552.187
552.109
552.034
551.959
551.886
551.813
551.74
551.666
551.592
551.515
551.437
551.355
551.27
551.181
551.087
550.988
550.884
550.774
550.656
550.53
550.394
550.248
550.095
549.939
549.785
549.632
549.478
549.323
549.174
549.034
548.905
548.787
548.678
548.575
548.479
548.389
548.303
548.221
548.143
548.067
547.994
547.922
547.851
547.781
547.71
547.64
547.571
547.504
547.438
547.374
547.312
547.25
547.188
547.124
547.058
546.989
546.917
546.842
546.763
546.68
546.593
546.502
546.407
546.31
546.211
546.108
546.002
545.891
545.776
545.655
545.528
545.393
545.252
545.103
544.945
544.772
544.585
544.414
544.317
544.234
544.151
544.062
543.969
543.873
543.775
543.677
543.578
543.479
543.38
543.281
543.182
543.082
542.982
542.882
542.781
542.68
542.579
542.477
542.375
542.273
542.17
542.067
541.963
541.86
541.756
541.652
541.547
541.443
541.338
541.233
541.128
541.023
540.918
540.813
540.708
540.603
552.511
552.433
552.356
552.279
552.204
552.13
552.057
551.986
551.915
551.844
551.773
551.701
551.627
551.551
551.473
551.391
551.305
551.214
551.118
551.017
550.91
550.797
550.675
550.542
550.399
550.247
550.088
549.927
549.769
549.614
549.456
549.295
549.138
548.99
548.853
548.729
548.615
548.509
548.41
548.317
548.231
548.148
548.069
547.993
547.92
547.849
547.779
547.71
547.641
547.573
547.508
547.445
547.386
547.329
547.275
547.22
547.163
547.104
547.041
546.973
546.902
546.828
546.75
546.667
546.579
546.486
546.388
546.288
546.187
546.083
545.977
545.866
545.751
545.63
545.501
545.365
545.222
545.073
544.919
544.762
544.603
544.455
544.335
544.23
544.131
544.034
543.938
543.841
543.744
543.648
543.551
543.454
543.358
543.261
543.164
543.066
542.968
542.869
542.77
542.67
542.57
542.469
542.368
542.266
542.164
542.062
541.959
541.856
541.752
541.649
541.545
541.44
541.336
541.232
541.127
541.022
540.917
540.812
540.707
540.602
552.513
552.439
552.365
552.293
552.221
552.15
552.081
552.011
551.943
551.874
551.804
551.734
551.661
551.586
551.508
551.426
551.339
551.247
551.15
551.046
550.937
550.82
550.692
550.553
550.402
550.242
550.077
549.912
549.751
549.594
549.435
549.272
549.11
548.954
548.809
548.677
548.559
548.449
548.346
548.251
548.163
548.079
547.999
547.922
547.847
547.775
547.706
547.638
547.571
547.506
547.445
547.389
547.338
547.291
547.245
547.198
547.147
547.09
547.028
546.96
546.887
546.812
546.734
546.654
546.568
546.475
546.374
546.269
546.163
546.058
545.954
545.845
545.731
545.61
545.481
545.344
545.199
545.048
544.897
544.749
544.604
544.461
544.331
544.215
544.107
544.004
543.905
543.808
543.713
543.618
543.524
543.43
543.336
543.242
543.147
543.051
542.954
542.857
542.759
542.661
542.562
542.462
542.362
542.261
542.159
542.057
541.955
541.852
541.749
541.646
541.542
541.438
541.334
541.23
541.126
541.021
540.917
540.812
540.707
540.602
552.515
552.444
552.374
552.305
552.236
552.168
552.101
552.034
551.966
551.899
551.831
551.762
551.691
551.618
551.542
551.461
551.374
551.281
551.181
551.075
550.963
550.841
550.707
550.559
550.401
550.234
550.065
549.898
549.735
549.575
549.416
549.254
549.092
548.932
548.78
548.641
548.516
548.403
548.297
548.2
548.109
548.021
547.938
547.857
547.779
547.704
547.633
547.566
547.5
547.438
547.383
547.336
547.297
547.262
547.224
547.181
547.132
547.077
547.014
546.944
546.863
546.783
546.705
546.629
546.554
546.469
546.371
546.254
546.136
546.027
545.931
545.818
545.711
545.597
545.472
545.338
545.191
545.037
544.881
544.736
544.596
544.454
544.307
544.189
544.074
543.968
543.868
543.773
543.68
543.589
543.498
543.407
543.315
543.223
543.13
543.037
542.942
542.846
542.75
542.652
542.554
542.455
542.356
542.255
542.154
542.053
541.951
541.849
541.746
541.643
541.54
541.436
541.333
541.229
541.125
541.02
540.916
540.811
540.707
540.602
552.516
552.449
552.382
552.315
552.248
552.182
552.115
552.048
551.981
551.915
551.848
551.781
551.714
551.645
551.573
551.495
551.41
551.317
551.216
551.107
550.991
550.864
550.722
550.565
550.398
550.228
550.059
549.895
549.733
549.574
549.414
549.256
549.096
548.935
548.778
548.633
548.504
548.395
548.287
548.186
548.09
547.997
547.904
547.814
547.728
547.646
547.571
547.503
547.436
547.376
547.332
547.297
547.27
547.251
547.213
547.167
547.114
547.058
546.997
546.933
546.82
546.741
546.656
546.576
546.526
546.48
546.412
546.263
546.095
545.981
545.909
545.768
545.681
545.587
545.476
545.354
545.214
545.053
544.884
544.742
544.596
544.453
544.299
544.157
544.031
543.924
543.827
543.736
543.647
543.559
543.472
543.384
543.295
543.206
543.115
543.024
542.931
542.836
542.741
542.645
542.547
542.449
542.35
542.251
542.15
542.049
541.948
541.846
541.744
541.641
541.538
541.435
541.331
541.228
541.124
541.02
540.915
540.811
540.707
540.602
552.517
552.451
552.386
552.32
552.253
552.186
552.118
552.049
551.979
551.911
551.846
551.784
551.723
551.662
551.598
551.528
551.448
551.356
551.252
551.142
551.023
550.894
550.746
550.581
550.41
550.24
550.077
549.92
549.764
549.618
549.462
549.309
549.153
548.99
548.83
548.684
548.553
548.476
548.371
548.265
548.16
548.054
547.947
547.835
547.735
547.637
547.553
547.482
547.404
547.338
547.316
547.299
547.278
547.285
547.214
547.158
547.086
547.035
546.986
546.97
546.837
546.7
546.602
546.441
546.452
546.476
546.444
546.352
546.103
545.9
545.721
545.628
545.669
545.54
545.474
545.305
545.225
545.103
544.889
544.836
544.656
544.434
544.28
544.072
543.964
543.869
543.78
543.696
543.613
543.53
543.446
543.362
543.277
543.19
543.102
543.012
542.92
542.828
542.733
542.638
542.542
542.444
542.346
542.247
542.147
542.046
541.945
541.844
541.742
541.639
541.537
541.433
541.33
541.227
541.123
541.019
540.915
540.811
540.706
540.602
552.517
552.451
552.385
552.318
552.25
552.18
552.106
552.029
551.951
551.878
551.818
551.767
551.718
551.668
551.616
551.56
551.493
551.403
551.296
551.188
551.074
550.959
550.809
550.645
550.482
550.323
550.171
550.017
549.871
549.781
549.627
549.482
549.321
549.151
548.994
548.848
548.686
548.559
548.436
548.316
548.178
548.046
547.922
547.795
547.685
547.545
547.445
547.394
547.35
547.327
547.319
547.257
547.237
547.185
547.096
546.999
546.917
546.879
546.82
546.825
546.748
546.582
546.536
546.544
546.413
546.415
546.284
546.116
546.019
545.881
545.73
545.712
545.667
545.543
545.448
545.288
545.185
545.022
544.83
544.731
544.59
544.461
544.305
544.018
543.888
543.805
543.729
543.654
543.579
543.501
543.422
543.342
543.26
543.176
543.09
543.002
542.912
542.82
542.727
542.633
542.537
542.44
542.342
542.243
542.144
542.044
541.943
541.842
541.74
541.638
541.535
541.432
541.329
541.226
541.122
541.018
540.914
540.81
540.706
540.602
552.516
552.447
552.379
552.315
552.246
552.169
552.082
551.983
551.887
551.815
551.784
551.758
551.713
551.662
551.635
551.6
551.56
551.481
551.369
551.279
551.187
551.137
551.009
550.863
550.738
550.599
550.456
550.252
550.064
549.902
549.76
549.598
549.453
549.272
549.107
548.953
548.808
548.682
548.56
548.374
548.206
548.049
547.935
547.787
547.672
547.471
547.393
547.262
547.253
547.224
547.247
547.175
547.138
547.011
546.903
546.785
546.734
546.731
546.71
546.624
546.564
546.593
546.572
546.544
546.514
546.401
546.234
546.082
545.962
545.84
545.756
545.689
545.614
545.499
545.381
545.238
545.098
544.936
544.779
544.658
544.549
544.447
544.265
543.994
543.827
543.742
543.677
543.614
543.547
543.475
543.4
543.324
543.246
543.164
543.08
542.994
542.905
542.815
542.722
542.628
542.533
542.437
542.339
542.241
542.142
542.042
541.941
541.84
541.739
541.637
541.534
541.431
541.328
541.225
541.122
541.018
540.914
540.81
540.706
540.602
552.512
552.44
552.379
552.353
552.293
552.186
552.059
551.91
551.805
551.803
551.911
551.884
551.747
551.633
551.696
551.676
551.651
551.674
551.578
551.447
551.392
551.299
551.18
551.04
551.004
550.88
550.718
550.364
550.174
550.004
549.877
549.669
549.63
549.469
549.169
548.967
548.882
548.739
548.563
548.296
548.155
548.021
547.939
547.801
547.726
547.512
547.371
547.188
547.174
547.135
547.166
547.11
547.051
546.962
546.887
546.814
546.78
546.762
546.711
546.683
546.663
546.624
546.594
546.539
546.457
546.346
546.215
546.083
545.968
545.852
545.743
545.633
545.521
545.396
545.27
545.136
545.001
544.867
544.742
544.633
544.517
544.251
544.073
543.942
543.759
543.695
543.629
543.579
543.521
543.451
543.379
543.308
543.234
543.156
543.074
542.988
542.901
542.811
542.719
542.625
542.531
542.434
542.337
542.239
542.14
542.041
541.94
541.839
541.738
541.636
541.534
541.431
541.328
541.225