/*--------------------------------*- C++ -*----------------------------------*\
  =========                 |
  \\      /  F ield         | OpenFOAM: The Open Source CFD Toolbox
   \\    /   O peration     | Website:  https://openfoam.org
    \\  /    A nd           | Version:  6
     \\/     M anipulation  |
\*---------------------------------------------------------------------------*/
FoamFile
{
    version     2.0;
    format      ascii;
    class       volScalarField;
    location    "3000";
    object      dmdt;
}
// * * * * * * * * * * * * * * * * * * * * * * * * * * * * * * * * * * * * * //

dimensions      [0 0 0 0 0 0 0];

internalField   nonuniform List<scalar> 
4800
(
-0.218558
-0.214494
-0.210444
-0.206423
-0.202445
-0.198527
-0.194694
-0.190968
-0.187374
-0.183949
-0.180725
-0.177729
-0.174967
-0.172425
-0.170082
-0.167917
-0.165904
-0.164021
-0.162248
-0.160567
-0.158963
-0.157422
-0.155935
-0.154493
-0.153087
-0.151711
-0.150358
-0.149021
-0.147692
-0.146362
-0.145027
-0.143682
-0.142323
-0.140946
-0.139549
-0.13813
-0.136684
-0.135211
-0.133708
-0.132174
-0.130606
-0.129006
-0.127371
-0.125696
-0.123981
-0.122221
-0.120412
-0.118565
-0.116676
-0.114737
-0.112748
-0.110713
-0.108626
-0.106481
-0.104284
-0.102033
-0.0997231
-0.0973515
-0.0949136
-0.0924011
-0.0898094
-0.0871423
-0.084399
-0.0815765
-0.0786719
-0.0756816
-0.0725994
-0.0694174
-0.0661267
-0.0627178
-0.0591782
-0.0554975
-0.0516677
-0.0476737
-0.0434995
-0.039131
-0.034551
-0.029739
-0.0246596
-0.0192275
-0.0132098
-0.00394047
-0.00525434
-0.00329464
-0.000801682
0.00196459
0.00488633
0.00790216
0.0109767
0.0140882
0.0172228
0.0203717
0.0235291
0.0266913
0.0298558
0.0330213
0.0361867
0.0393516
0.0425155
0.0456783
0.0488398
0.0520001
0.055159
0.0583166
0.061473
0.0646281
0.0677822
0.0709352
0.0740872
0.0772384
0.0803888
0.0835385
0.0866877
0.0898363
0.0929845
0.0961324
0.09928
0.102427
0.105575
0.108722
-0.218547
-0.214463
-0.210393
-0.206357
-0.202372
-0.198447
-0.194599
-0.190858
-0.187257
-0.183839
-0.180638
-0.177668
-0.174926
-0.172397
-0.170065
-0.167908
-0.165903
-0.164029
-0.162267
-0.160597
-0.159006
-0.157479
-0.156009
-0.154583
-0.153195
-0.151836
-0.150497
-0.14917
-0.147849
-0.146527
-0.145199
-0.14386
-0.142507
-0.141135
-0.139743
-0.138327
-0.136886
-0.135419
-0.133922
-0.132392
-0.130828
-0.129227
-0.127587
-0.125908
-0.124188
-0.122422
-0.120606
-0.118758
-0.116857
-0.114899
-0.112897
-0.110846
-0.108739
-0.106581
-0.104372
-0.102108
-0.0997886
-0.0974091
-0.0949624
-0.0924391
-0.0898385
-0.0871641
-0.0844156
-0.08159
-0.0786826
-0.0756904
-0.072607
-0.0694241
-0.0661327
-0.0627234
-0.0591835
-0.0555049
-0.0516816
-0.0476978
-0.0435382
-0.0391932
-0.0346516
-0.0299029
-0.0249417
-0.0197783
-0.0145155
-0.00963499
-0.00667462
-0.00395351
-0.00115478
0.00175366
0.00475028
0.0078096
0.0109113
0.0140408
0.0171878
0.0203454
0.0235092
0.0266761
0.0298442
0.0330124
0.0361799
0.0393464
0.0425116
0.0456754
0.0488378
0.0519986
0.055158
0.058316
0.0614727
0.0646281
0.0677823
0.0709354
0.0740875
0.0772387
0.0803891
0.0835389
0.086688
0.0898366
0.0929848
0.0961326
0.0992802
0.102428
0.105575
0.108722
-0.218535
-0.214428
-0.210338
-0.206279
-0.202268
-0.19832
-0.194454
-0.190706
-0.187119
-0.183727
-0.180557
-0.177619
-0.174905
-0.1724
-0.170088
-0.16795
-0.165965
-0.164113
-0.162373
-0.160728
-0.159163
-0.157664
-0.15622
-0.15482
-0.153456
-0.152119
-0.150799
-0.14949
-0.148185
-0.146877
-0.145563
-0.144239
-0.1429
-0.141541
-0.140161
-0.138758
-0.137328
-0.135871
-0.134383
-0.132862
-0.131306
-0.129709
-0.12807
-0.12639
-0.124664
-0.122883
-0.121056
-0.119195
-0.117262
-0.115282
-0.113256
-0.111171
-0.109034
-0.106848
-0.10461
-0.102319
-0.0999708
-0.0975613
-0.0950878
-0.0925415
-0.0899271
-0.0872411
-0.0844817
-0.0816466
-0.0787319
-0.0757344
-0.0726467
-0.06946
-0.0661657
-0.0627551
-0.0592182
-0.0555473
-0.0517328
-0.0477636
-0.0436303
-0.0393266
-0.03485
-0.0302064
-0.0254247
-0.0205832
-0.0158508
-0.0115693
-0.00800479
-0.00479189
-0.00168831
0.00140261
0.00451092
0.00764125
0.0107899
0.0139514
0.0171211
0.0202951
0.0234708
0.0266467
0.0298216
0.0329951
0.0361667
0.0393364
0.0425041
0.0456698
0.0488337
0.0519958
0.0551562
0.0583149
0.0614721
0.064628
0.0677825
0.0709358
0.0740881
0.0772394
0.0803898
0.0835396
0.0866887
0.0898372
0.0929853
0.0961331
0.0992806
0.102428
0.105575
0.108722
-0.218513
-0.214372
-0.210261
-0.206185
-0.202151
-0.198177
-0.194295
-0.190549
-0.186988
-0.183641
-0.180523
-0.177627
-0.174948
-0.172481
-0.170205
-0.1681
-0.166147
-0.164325
-0.162616
-0.161004
-0.159472
-0.158006
-0.156594
-0.155225
-0.15389
-0.152579
-0.151285
-0.15
-0.148719
-0.147434
-0.146143
-0.144841
-0.143523
-0.142186
-0.140827
-0.139447
-0.138039
-0.136603
-0.135135
-0.13363
-0.132085
-0.130496
-0.128861
-0.127182
-0.125447
-0.12365
-0.121809
-0.119921
-0.117955
-0.115943
-0.113881
-0.111758
-0.109584
-0.107359
-0.105085
-0.102751
-0.100356
-0.0979003
-0.0953743
-0.0927801
-0.0901319
-0.0874163
-0.0846339
-0.0817807
-0.0788514
-0.0758401
-0.072739
-0.0695399
-0.0662348
-0.0628157
-0.0592761
-0.0556081
-0.0518006
-0.0478491
-0.0437502
-0.0395011
-0.035109
-0.0305935
-0.0259982
-0.0214119
-0.0169699
-0.0128566
-0.00908334
-0.00559766
-0.00226788
0.000987849
0.00421166
0.00742257
0.010628
0.0138302
0.0170294
0.0202251
0.0234172
0.0266054
0.0297898
0.0329705
0.0361478
0.039322
0.0424932
0.0456618
0.0488279
0.0519917
0.0551535
0.0583133
0.0614714
0.0646278
0.0677828
0.0709365
0.0740889
0.0772404
0.0803909
0.0835406
0.0866896
0.0898381
0.0929861
0.0961338
0.0992811
0.102428
0.105575
0.108722
-0.218495
-0.214317
-0.210173
-0.206072
-0.202016
-0.198026
-0.194146
-0.190424
-0.186905
-0.183615
-0.180557
-0.17772
-0.175099
-0.172683
-0.170453
-0.168391
-0.166479
-0.164694
-0.163022
-0.161446
-0.159947
-0.158515
-0.157137
-0.155801
-0.154498
-0.15322
-0.151958
-0.150705
-0.149455
-0.148203
-0.146943
-0.145672
-0.144386
-0.14308
-0.141754
-0.140406
-0.139031
-0.137625
-0.136185
-0.134702
-0.133175
-0.131598
-0.129974
-0.128297
-0.126555
-0.124747
-0.12289
-0.120973
-0.118978
-0.116932
-0.114831
-0.112667
-0.110449
-0.10818
-0.105854
-0.10346
-0.10101
-0.0984928
-0.0958959
-0.0932463
-0.0905422
-0.0877705
-0.0849388
-0.0820407
-0.0790757
-0.076036
-0.0729098
-0.0696862
-0.0663563
-0.0629136
-0.0593558
-0.0556777
-0.0518721
-0.0479376
-0.0438759
-0.0396899
-0.0353904
-0.0310048
-0.0265761
-0.0221684
-0.0178762
-0.0138092
-0.00994481
-0.00630582
-0.00282176
0.000564401
0.00389053
0.00717915
0.0104429
0.0136888
0.0169208
0.0201414
0.0233524
0.0265551
0.0297507
0.0329402
0.0361245
0.0393041
0.0424797
0.0456517
0.0488206
0.0519866
0.0551501
0.0583113
0.0614704
0.0646277
0.0677832
0.0709373
0.0740901
0.0772416
0.0803922
0.0835419
0.0866909
0.0898393
0.0929872
0.0961347
0.0992818
0.102429
0.105575
0.108722
-0.21847
-0.214248
-0.21007
-0.205942
-0.201872
-0.197886
-0.194037
-0.19037
-0.186916
-0.183692
-0.180699
-0.177928
-0.175373
-0.173015
-0.170839
-0.168829
-0.166962
-0.165218
-0.163587
-0.162049
-0.160587
-0.159191
-0.15785
-0.156549
-0.155283
-0.154042
-0.152819
-0.151604
-0.150393
-0.149181
-0.147961
-0.146731
-0.145485
-0.144222
-0.14294
-0.141635
-0.140301
-0.138932
-0.137525
-0.136072
-0.13457
-0.133015
-0.131408
-0.129736
-0.127992
-0.12618
-0.124308
-0.122368
-0.12035
-0.118272
-0.116132
-0.113926
-0.111664
-0.109344
-0.106958
-0.104502
-0.101985
-0.0993874
-0.0967195
-0.0940027
-0.0912199
-0.0883753
-0.0854731
-0.0825066
-0.0794777
-0.0763777
-0.0731956
-0.069925
-0.0665557
-0.0630772
-0.0594865
-0.0557837
-0.0519679
-0.0480411
-0.0440088
-0.0398783
-0.0356623
-0.0313855
-0.0270799
-0.022798
-0.0186037
-0.0145491
-0.0106335
-0.00690425
-0.00331743
0.000165884
0.00357561
0.00693257
0.0102506
0.013539
0.016804
0.0200502
0.0232811
0.0264993
0.0297071
0.0329062
0.036098
0.0392837
0.0424641
0.0456401
0.0488121
0.0519807
0.0551462
0.058309
0.0614693
0.0646275
0.0677838
0.0709384
0.0740914
0.0772432
0.0803939
0.0835436
0.0866925
0.0898408
0.0929885
0.0961357
0.0992827
0.102429
0.105576
0.108722
-0.218462
-0.214218
-0.210012
-0.205855
-0.20177
-0.197801
-0.193995
-0.190392
-0.187014
-0.183869
-0.180952
-0.178258
-0.175774
-0.17348
-0.171362
-0.169408
-0.16759
-0.165892
-0.164306
-0.162809
-0.161386
-0.16003
-0.158727
-0.157466
-0.156241
-0.155043
-0.153863
-0.152694
-0.151529
-0.150364
-0.149192
-0.14801
-0.146815
-0.145603
-0.144371
-0.143115
-0.141828
-0.140503
-0.139136
-0.137722
-0.136254
-0.134729
-0.133143
-0.131485
-0.129749
-0.127938
-0.126058
-0.124101
-0.122066
-0.119963
-0.117788
-0.115543
-0.113237
-0.110862
-0.108416
-0.105897
-0.103308
-0.100634
-0.0978933
-0.0950927
-0.0922225
-0.0892924
-0.0862991
-0.0832424
-0.0801229
-0.0769333
-0.0736644
-0.0703133
-0.0668706
-0.0633291
-0.0596876
-0.0559457
-0.0521049
-0.048171
-0.0441522
-0.0400588
-0.0359041
-0.0317056
-0.0274886
-0.0232942
-0.0191589
-0.0151115
-0.0111753
-0.00739438
-0.0037409
-0.00018816
0.0032863
0.0066997
0.0100649
0.0133917
0.0166874
0.019958
0.0232082
0.0264417
0.0296616
0.0328704
0.03607
0.0392619
0.0424475
0.0456276
0.0488029
0.0519742
0.0551419
0.0583065
0.0614682
0.0646274
0.0677845
0.0709396
0.0740931
0.0772451
0.0803958
0.0835455
0.0866944
0.0898425
0.09299
0.096137
0.0992837
0.10243
0.105576
0.108722
-0.218455
-0.214197
-0.209976
-0.205806
-0.201722
-0.197783
-0.194042
-0.190523
-0.187234
-0.184173
-0.181334
-0.178716
-0.176302
-0.174074
-0.172019
-0.170123
-0.168356
-0.166707
-0.165168
-0.163714
-0.162334
-0.161021
-0.15976
-0.158543
-0.157363
-0.156211
-0.155081
-0.153961
-0.152847
-0.151734
-0.150615
-0.149487
-0.148347
-0.14719
-0.146013
-0.144811
-0.143576
-0.142303
-0.140985
-0.139616
-0.138191
-0.136703
-0.135146
-0.133511
-0.131792
-0.129994
-0.128118
-0.126156
-0.124111
-0.121986
-0.11978
-0.117501
-0.115154
-0.112728
-0.110227
-0.107647
-0.104991
-0.102246
-0.0994325
-0.096546
-0.0935857
-0.0905591
-0.0874604
-0.0842933
-0.0810543
-0.0777408
-0.0743515
-0.0708891
-0.0673447
-0.0637114
-0.0599899
-0.0561834
-0.052296
-0.0483352
-0.0443107
-0.0402332
-0.0361138
-0.0319664
-0.0278114
-0.0236756
-0.019575
-0.0155326
-0.0115878
-0.0077789
-0.00408498
-0.000485561
0.00303622
0.00649357
0.00989728
0.0132564
0.0165788
0.0198709
0.0231384
0.0263858
0.029617
0.0328349
0.0360419
0.0392399
0.0424305
0.0456147
0.0487935
0.0519676
0.0551375
0.0583039
0.0614671
0.0646274
0.0677853
0.0709411
0.0740949
0.0772472
0.080398
0.0835477
0.0866965
0.0898444
0.0929917
0.0961384
0.0992848
0.102431
0.105577
0.108723
-0.218455
-0.214192
-0.209961
-0.205804
-0.201765
-0.197889
-0.194219
-0.19078
-0.187574
-0.184595
-0.181837
-0.179295
-0.176954
-0.174794
-0.172802
-0.170963
-0.169248
-0.16765
-0.166159
-0.164752
-0.163419
-0.16215
-0.160934
-0.159764
-0.158631
-0.157528
-0.156449
-0.155381
-0.154319
-0.15326
-0.152196
-0.151124
-0.15004
-0.148941
-0.147823
-0.146679
-0.145503
-0.144289
-0.143027
-0.141711
-0.140335
-0.138891
-0.137373
-0.135771
-0.13408
-0.132303
-0.130438
-0.128481
-0.126431
-0.124292
-0.122067
-0.119761
-0.117378
-0.114914
-0.112368
-0.109736
-0.107021
-0.104214
-0.101329
-0.0983583
-0.0953106
-0.0921821
-0.0889685
-0.0856747
-0.0822954
-0.0788309
-0.075287
-0.0716729
-0.0679887
-0.0642344
-0.0604109
-0.0565169
-0.0525575
-0.0485439
-0.044488
-0.0404008
-0.0362922
-0.0321726
-0.0280556
-0.0239554
-0.0198738
-0.0158287
-0.0118727
-0.0080539
-0.0043426
-0.000717016
0.00283575
0.0063245
0.00975715
0.0131415
0.0164849
0.0197945
0.0230762
0.0263353
0.029576
0.0328018
0.0360154
0.0392189
0.0424141
0.0456021
0.0487842
0.051961
0.0551332
0.0583014
0.061466
0.0646275
0.0677863
0.0709427
0.074097
0.0772495
0.0804004
0.0835501
0.0866988
0.0898465
0.0929935
0.09614
0.0992861
0.102432
0.105577
0.108723
-0.218475
-0.214246
-0.210038
-0.205895
-0.201894
-0.198092
-0.194509
-0.191157
-0.188039
-0.185145
-0.182469
-0.180001
-0.17773
-0.175638
-0.173708
-0.171924
-0.170261
-0.168714
-0.167271
-0.165912
-0.164625
-0.163402
-0.162232
-0.161109
-0.160024
-0.158969
-0.15794
-0.156923
-0.155913
-0.154907
-0.153898
-0.152882
-0.151858
-0.150818
-0.149762
-0.14868
-0.147567
-0.146418
-0.145216
-0.143958
-0.142638
-0.141246
-0.139774
-0.138213
-0.136558
-0.134811
-0.132966
-0.131019
-0.128971
-0.126827
-0.124591
-0.122266
-0.119857
-0.117362
-0.114776
-0.112103
-0.109338
-0.10648
-0.103533
-0.100495
-0.0973662
-0.0941386
-0.0908067
-0.0873741
-0.0838367
-0.0802026
-0.0764829
-0.0726891
-0.0688328
-0.064924
-0.0609678
-0.0569593
-0.0529027
-0.0488091
-0.0446928
-0.0405657
-0.0364364
-0.0323139
-0.0282061
-0.0241164
-0.0200406
-0.0159851
-0.0120042
-0.00820435
-0.00450475
-0.000874524
0.00269328
0.00620096
0.00965247
0.0130538
0.0164119
0.0197337
0.0230256
0.0262932
0.0295411
0.032773
0.0359919
0.0391999
0.042399
0.0455905
0.0487754
0.0519547
0.055129
0.058299
0.0614651
0.0646278
0.0677874
0.0709445
0.0740992
0.077252
0.080403
0.0835527
0.0867012
0.0898488
0.0929956
0.0961417
0.0992874
0.102433
0.105578
0.108723
-0.218501
-0.214326
-0.210185
-0.206125
-0.202196
-0.198456
-0.194942
-0.191666
-0.188624
-0.185807
-0.18321
-0.180818
-0.178619
-0.176594
-0.174727
-0.173
-0.171392
-0.169895
-0.168498
-0.167185
-0.165944
-0.164765
-0.16364
-0.162562
-0.161522
-0.160514
-0.159531
-0.158564
-0.157604
-0.156648
-0.155693
-0.154733
-0.153767
-0.152788
-0.151795
-0.150778
-0.14973
-0.148649
-0.147511
-0.146313
-0.145052
-0.143716
-0.142296
-0.140783
-0.139171
-0.137457
-0.135638
-0.133709
-0.131673
-0.129533
-0.127293
-0.124956
-0.122528
-0.120007
-0.117391
-0.114681
-0.111872
-0.108966
-0.105965
-0.102868
-0.0996668
-0.0963545
-0.0929145
-0.0893457
-0.0856492
-0.0818387
-0.0779286
-0.0739371
-0.069883
-0.0657838
-0.0616565
-0.0575017
-0.0533229
-0.0491267
-0.0449252
-0.0407319
-0.0365595
-0.0324138
-0.0282945
-0.0241962
-0.0201057
-0.0159968
-0.0119041
-0.0082089
-0.00456635
-0.000953677
0.00261474
0.00612956
0.00958968
0.0129992
0.0163645
0.0196925
0.0229899
0.0262623
0.0295145
0.0327502
0.0359726
0.0391839
0.042386
0.0455802
0.0487676
0.0519491
0.0551253
0.0582969
0.0614644
0.0646282
0.0677887
0.0709464
0.0741015
0.0772546
0.0804058
0.0835554
0.0867038
0.0898512
0.0929977
0.0961435
0.0992889
0.102434
0.105579
0.108723
-0.218535
-0.214434
-0.210373
-0.206397
-0.202564
-0.198918
-0.19549
-0.192295
-0.189333
-0.1866
-0.184086
-0.181773
-0.179647
-0.177685
-0.175873
-0.174198
-0.172643
-0.171195
-0.169843
-0.168573
-0.167374
-0.166237
-0.165153
-0.164116
-0.163117
-0.162151
-0.161211
-0.160288
-0.159374
-0.158467
-0.157562
-0.156656
-0.155746
-0.154827
-0.153895
-0.152941
-0.151958
-0.150942
-0.149866
-0.148727
-0.147525
-0.146247
-0.14488
-0.143416
-0.141849
-0.140173
-0.138383
-0.136477
-0.134458
-0.132328
-0.130092
-0.127752
-0.125315
-0.122773
-0.120136
-0.117396
-0.114551
-0.111601
-0.10855
-0.105398
-0.102133
-0.098743
-0.0952007
-0.0915068
-0.0876653
-0.08369
-0.0795936
-0.0753984
-0.07113
-0.0668171
-0.0624862
-0.0581494
-0.0538161
-0.0494902
-0.0451797
-0.0408988
-0.0366625
-0.0324724
-0.0283218
-0.0241981
-0.020073
-0.0158664
-0.0110424
-0.00808294
-0.00454586
-0.000958857
0.00260263
0.00611493
0.00957356
0.0129819
0.0163464
0.0196741
0.0229716
0.0262445
0.0294976
0.0327347
0.0359587
0.0391718
0.0423758
0.0455719
0.0487611
0.0519444
0.0551222
0.0582952
0.0614639
0.0646287
0.0677901
0.0709484
0.074104
0.0772573
0.0804086
0.0835582
0.0867065
0.0898536
0.0929999
0.0961454
0.0992904
0.102435
0.105579
0.108723
-0.218571
-0.214548
-0.210582
-0.206719
-0.203004
-0.199473
-0.19615
-0.193051
-0.190181
-0.187534
-0.1851
-0.182859
-0.180799
-0.178901
-0.177149
-0.17553
-0.174026
-0.172625
-0.171316
-0.170086
-0.168926
-0.167827
-0.16678
-0.165777
-0.164814
-0.163884
-0.162979
-0.162094
-0.161221
-0.160356
-0.159496
-0.158638
-0.157779
-0.156913
-0.156038
-0.155143
-0.154217
-0.153257
-0.152236
-0.151152
-0.150007
-0.148781
-0.147465
-0.146048
-0.144523
-0.142885
-0.141126
-0.139247
-0.137248
-0.135134
-0.132908
-0.130569
-0.128124
-0.125573
-0.122922
-0.120162
-0.117288
-0.1143
-0.111209
-0.108015
-0.104695
-0.10123
-0.0975917
-0.0937838
-0.0898071
-0.0856766
-0.0814062
-0.07702
-0.0725424
-0.0680048
-0.0634438
-0.0588903
-0.0543664
-0.0498802
-0.0454363
-0.0410457
-0.036722
-0.0324705
-0.0282869
-0.0241519
-0.0200491
-0.0159569
-0.0118743
-0.00815959
-0.00451038
-0.000900688
0.00265817
0.00616026
0.00960715
0.0130046
0.0163599
0.0196802
0.0229722
0.0262412
0.0294918
0.0327275
0.0359509
0.0391642
0.0423688
0.0455658
0.0487562
0.0519407
0.0551198
0.058294
0.0614637
0.0646295
0.0677915
0.0709504
0.0741064
0.07726
0.0804114
0.0835611
0.0867092
0.0898561
0.0930021
0.0961473
0.0992919
0.102436
0.10558
0.108724
-0.218642
-0.214759
-0.210927
-0.207188
-0.203591
-0.200172
-0.196954
-0.193954
-0.191176
-0.188618
-0.186267
-0.184107
-0.182122
-0.180291
-0.1786
-0.177034
-0.175578
-0.17422
-0.172948
-0.171755
-0.170628
-0.16956
-0.168542
-0.167568
-0.166632
-0.165728
-0.164851
-0.163993
-0.163151
-0.162318
-0.161492
-0.160673
-0.159854
-0.159032
-0.158203
-0.157352
-0.156471
-0.155552
-0.154575
-0.153538
-0.152438
-0.151257
-0.149984
-0.148607
-0.14712
-0.145516
-0.143788
-0.141935
-0.139959
-0.137862
-0.135644
-0.133308
-0.130862
-0.12831
-0.125653
-0.12288
-0.119988
-0.116977
-0.113862
-0.110635
-0.107266
-0.103734
-0.100015
-0.0961053
-0.0920025
-0.0877265
-0.0833006
-0.078746
-0.0740764
-0.0693144
-0.0645074
-0.0597097
-0.0549614
-0.0502818
-0.0456799
-0.0411632
-0.0367403
-0.0324202
-0.0282003
-0.0240553
-0.0199637
-0.0159162
-0.0119214
-0.00808544
-0.00437499
-0.000754982
0.00278949
0.00626849
0.00969149
0.0130675
0.016405
0.0197111
0.0229921
0.0262529
0.0294975
0.032729
0.0359498
0.0391615
0.0423653
0.0455623
0.0487532
0.0519383
0.0551182
0.0582933
0.0614639
0.0646303
0.0677931
0.0709525
0.0741089
0.0772627
0.0804142
0.0835639
0.0867119
0.0898586
0.0930043
0.0961492
0.0992934
0.102437
0.105581
0.108724
-0.218722
-0.214997
-0.211319
-0.207731
-0.204277
-0.200992
-0.197897
-0.195009
-0.192336
-0.189876
-0.187617
-0.185547
-0.183642
-0.181883
-0.180257
-0.178746
-0.177336
-0.176019
-0.174785
-0.173623
-0.172524
-0.17148
-0.170483
-0.169527
-0.168607
-0.167718
-0.166854
-0.166011
-0.165184
-0.164369
-0.163562
-0.162766
-0.16197
-0.161174
-0.16037
-0.159544
-0.158687
-0.15779
-0.156841
-0.155833
-0.154762
-0.15361
-0.152365
-0.151016
-0.149555
-0.147976
-0.146273
-0.144444
-0.142488
-0.140406
-0.138199
-0.135873
-0.133435
-0.130886
-0.128225
-0.125448
-0.122548
-0.119532
-0.11641
-0.113167
-0.109764
-0.106177
-0.102388
-0.0983867
-0.0941681
-0.0897599
-0.0851931
-0.0804844
-0.0756401
-0.070673
-0.065627
-0.0605705
-0.0555705
-0.0506686
-0.0458857
-0.04123
-0.0367032
-0.0323061
-0.0280343
-0.0238654
-0.0197593
-0.0156999
-0.0117009
-0.0078232
-0.00410288
-0.000504881
0.00300148
0.00643909
0.00982412
0.0131681
0.0164795
0.0197651
0.0230302
0.0262789
0.0295144
0.0327393
0.0359553
0.0391638
0.0423657
0.0455616
0.048752
0.0519372
0.0551175
0.0582931
0.0614643
0.0646314
0.0677947
0.0709546
0.0741113
0.0772653
0.080417
0.0835666
0.0867145
0.0898611
0.0930065
0.096151
0.0992949
0.102438
0.105581
0.108724
-0.218811
-0.215266
-0.211771
-0.208363
-0.205082
-0.201959
-0.199013
-0.196263
-0.193717
-0.191373
-0.189221
-0.187242
-0.18542
-0.183741
-0.182187
-0.180733
-0.179373
-0.178098
-0.1769
-0.175764
-0.174686
-0.173655
-0.172667
-0.171716
-0.170798
-0.169907
-0.169041
-0.168193
-0.167361
-0.166542
-0.165733
-0.164935
-0.164139
-0.163344
-0.162537
-0.161709
-0.160848
-0.159949
-0.159
-0.157995
-0.156926
-0.155775
-0.154532
-0.153186
-0.15173
-0.150159
-0.148469
-0.146656
-0.144717
-0.142651
-0.14046
-0.138149
-0.135723
-0.133182
-0.130525
-0.12775
-0.124855
-0.121846
-0.118727
-0.115478
-0.112063
-0.108452
-0.104616
-0.100534
-0.0962081
-0.0916776
-0.0869855
-0.0821454
-0.0771519
-0.0720023
-0.0667329
-0.0614233
-0.056164
-0.051025
-0.0460469
-0.04124
-0.0365991
-0.0321087
-0.0277504
-0.0235114
-0.0193589
-0.0152707
-0.0112558
-0.0073643
-0.00367872
-0.00014489
0.00329114
0.00666516
0.00999752
0.0132996
0.0165784
0.0198386
0.023084
0.0263176
0.0295416
0.0327577
0.0359673
0.0391712
0.0423699
0.0455638
0.0487529
0.0519376
0.0551177
0.0582935
0.0614651
0.0646326
0.0677963
0.0709566
0.0741136
0.0772678
0.0804196
0.0835692
0.086717
0.0898634
0.0930086
0.0961528
0.0992963
0.102439
0.105582
0.108724
-0.218916
-0.215583
-0.212304
-0.20911
-0.20603
-0.203094
-0.200326
-0.197744
-0.195355
-0.193152
-0.191125
-0.189258
-0.187537
-0.185953
-0.184476
-0.183085
-0.181776
-0.180542
-0.179376
-0.178263
-0.177199
-0.176174
-0.175185
-0.174227
-0.173294
-0.172384
-0.171492
-0.170617
-0.169755
-0.168903
-0.168062
-0.167231
-0.166402
-0.165572
-0.164728
-0.163861
-0.162962
-0.162024
-0.161037
-0.159993
-0.158881
-0.157689
-0.156406
-0.155027
-0.153545
-0.151956
-0.150254
-0.148436
-0.1465
-0.144444
-0.142269
-0.139976
-0.137566
-0.135041
-0.132401
-0.129645
-0.126775
-0.123795
-0.120702
-0.117478
-0.114081
-0.110463
-0.106581
-0.102421
-0.097997
-0.0933669
-0.088584
-0.083649
-0.0785328
-0.0732219
-0.0677499
-0.0622088
-0.0567141
-0.0513598
-0.046196
-0.041233
-0.0364604
-0.031852
-0.0273807
-0.0230329
-0.0187907
-0.0146362
-0.0105809
-0.00667958
-0.00308732
0.000321186
0.00364482
0.006931
0.0101977
0.0134511
0.0166933
0.0199257
0.0231496
0.0263664
0.0295774
0.0327834
0.0359852
0.0391833
0.0423777
0.0455686
0.0487559
0.0519394
0.0551189
0.0582945
0.0614662
0.0646339
0.0677979
0.0709585
0.0741157
0.0772701
0.080422
0.0835716
0.0867193
0.0898655
0.0930105
0.0961544
0.0992976
0.10244
0.105582
0.108724
-0.219042
-0.215962
-0.212935
-0.209987
-0.207142
-0.204428
-0.201869
-0.199483
-0.197278
-0.195245
-0.193375
-0.191651
-0.190064
-0.188596
-0.187212
-0.185893
-0.184644
-0.183458
-0.18233
-0.181245
-0.180194
-0.179169
-0.178167
-0.177186
-0.176221
-0.17527
-0.17433
-0.173399
-0.172475
-0.171559
-0.170651
-0.169748
-0.168847
-0.16794
-0.167016
-0.166065
-0.165078
-0.164048
-0.162968
-0.161828
-0.160621
-0.159337
-0.157968
-0.15651
-0.154958
-0.15331
-0.151561
-0.149707
-0.147748
-0.14568
-0.143503
-0.141217
-0.13882
-0.136311
-0.133691
-0.130962
-0.128126
-0.125183
-0.122129
-0.118942
-0.115572
-0.111958
-0.108054
-0.103841
-0.0993457
-0.0946427
-0.0897941
-0.0847939
-0.0796033
-0.0741965
-0.0685837
-0.0628673
-0.0571944
-0.0516732
-0.046357
-0.0412586
-0.0363621
-0.0316418
-0.0270666
-0.0226023
-0.0182244
-0.0139043
-0.00967238
-0.00567776
-0.00230445
0.000874054
0.00403221
0.00720924
0.0104037
0.0136072
0.0168134
0.0200187
0.0232216
0.0264218
0.0296194
0.0328147
0.0360081
0.0391995
0.0423889
0.0455761
0.0487608
0.0519425
0.0551211
0.0582961
0.0614675
0.0646353
0.0677995
0.0709602
0.0741177
0.0772722
0.0804241
0.0835737
0.0867214
0.0898675
0.0930122
0.0961559
0.0992988
0.102441
0.105583
0.108725
-0.219192
-0.216412
-0.213682
-0.211021
-0.208452
-0.206001
-0.20369
-0.201537
-0.199549
-0.197718
-0.196038
-0.194492
-0.193064
-0.191734
-0.190466
-0.189247
-0.188083
-0.186967
-0.185892
-0.184844
-0.18381
-0.182783
-0.181765
-0.180753
-0.179743
-0.178732
-0.177721
-0.176707
-0.175692
-0.174677
-0.173663
-0.172648
-0.171628
-0.170593
-0.169534
-0.168441
-0.167307
-0.166125
-0.164888
-0.163588
-0.162218
-0.160773
-0.159249
-0.157645
-0.155959
-0.154189
-0.152335
-0.150393
-0.148366
-0.146253
-0.144049
-0.14175
-0.139351
-0.136848
-0.134242
-0.131534
-0.128728
-0.125822
-0.122807
-0.119659
-0.116328
-0.112743
-0.108845
-0.104606
-0.100059
-0.0952911
-0.090386
-0.0853569
-0.0801531
-0.0747274
-0.0690832
-0.0633115
-0.057553
-0.0519299
-0.0465102
-0.0413108
-0.0363188
-0.0315083
-0.0268402
-0.022263
-0.0177192
-0.0131272
-0.00845686
-0.00404443
-0.0013147
0.00145006
0.00439453
0.00745886
0.010588
0.0137496
0.0169262
0.0201091
0.0232942
0.0264796
0.0296649
0.0328499
0.0360347
0.0392191
0.042403
0.045586
0.0487675
0.051947
0.055124
0.0582982
0.0614692
0.0646368
0.0678009
0.0709617
0.0741193
0.0772739
0.0804259
0.0835756
0.0867232
0.0898691
0.0930137
0.0961572
0.0992998
0.102442
0.105583
0.108725
-0.219366
-0.216933
-0.214544
-0.212217
-0.20997
-0.207827
-0.20581
-0.203934
-0.202204
-0.200618
-0.199168
-0.197835
-0.196601
-0.195443
-0.19433
-0.193253
-0.192213
-0.191194
-0.190194
-0.189198
-0.188197
-0.187182
-0.186156
-0.185117
-0.184059
-0.182981
-0.181883
-0.180768
-0.179636
-0.178492
-0.177336
-0.176169
-0.174983
-0.17377
-0.172521
-0.171229
-0.169884
-0.168481
-0.167014
-0.165474
-0.16386
-0.16217
-0.160405
-0.158565
-0.156652
-0.154672
-0.152628
-0.150525
-0.148362
-0.146138
-0.143849
-0.141493
-0.139059
-0.136535
-0.133917
-0.131209
-0.128414
-0.12553
-0.122551
-0.119461
-0.116204
-0.112685
-0.108829
-0.104588
-0.0999839
-0.0951281
-0.0901711
-0.0851583
-0.0800171
-0.07466
-0.069084
-0.063381
-0.0576582
-0.0520317
-0.0465872
-0.0413587
-0.0363372
-0.0314932
-0.0267803
-0.0221375
-0.0174673
-0.0125662
-0.00692962
-0.000567509
-0.000321715
0.00186151
0.00463416
0.00763083
0.0107238
0.0138614
0.0170202
0.0201887
0.0233613
0.0265358
0.029711
0.032887
0.0360637
0.0392413
0.0424194
0.0455977
0.0487757
0.0519526
0.0551278
0.0583008
0.061471
0.0646382
0.0678022
0.070963
0.0741206
0.0772753
0.0804273
0.083577
0.0867246
0.0898704
0.0930149
0.0961582
0.0993006
0.102442
0.105584
0.108725
-0.219558
-0.217508
-0.215498
-0.213545
-0.211665
-0.209876
-0.208201
-0.206653
-0.205233
-0.203942
-0.202769
-0.201698
-0.200704
-0.199766
-0.19886
-0.197978
-0.197106
-0.196225
-0.195336
-0.194428
-0.193495
-0.192526
-0.191522
-0.190478
-0.189388
-0.188254
-0.187075
-0.185856
-0.184601
-0.183315
-0.181998
-0.180652
-0.179269
-0.177841
-0.17636
-0.174817
-0.173204
-0.171513
-0.169739
-0.167876
-0.165925
-0.163888
-0.161769
-0.159573
-0.15731
-0.154992
-0.152629
-0.150229
-0.147806
-0.145363
-0.142897
-0.140404
-0.13787
-0.135272
-0.132592
-0.129833
-0.127
-0.124093
-0.121101
-0.118028
-0.114847
-0.111444
-0.107695
-0.103511
-0.0988854
-0.0939251
-0.0888761
-0.0838877
-0.0788868
-0.0737262
-0.0683556
-0.0628322
-0.0572562
-0.051753
-0.0464055
-0.0412543
-0.0362988
-0.0315128
-0.0268516
-0.022259
-0.0176605
-0.0129747
-0.00820411
-0.00382102
-0.001058
0.00172395
0.00465849
0.00769745
0.0107978
0.0139332
0.0170874
0.0202509
0.0234181
0.0265863
0.0297549
0.0329239
0.0360938
0.0392649
0.0424375
0.045611
0.0487852
0.0519591
0.0551322
0.0583037
0.061473
0.0646396
0.0678033
0.0709639
0.0741216
0.0772763
0.0804283
0.083578
0.0867255
0.0898713
0.0930157
0.0961589
0.0993012
0.102443
0.105584
0.108725
-0.219755
-0.218099
-0.216485
-0.214931
-0.213452
-0.212063
-0.21078
-0.209609
-0.208552
-0.207607
-0.206764
-0.206005
-0.205308
-0.204651
-0.204013
-0.203386
-0.202742
-0.20206
-0.20134
-0.200578
-0.199774
-0.198914
-0.19799
-0.196995
-0.195923
-0.194775
-0.193555
-0.192268
-0.190917
-0.189512
-0.188052
-0.186537
-0.184959
-0.183311
-0.181582
-0.179763
-0.177845
-0.175819
-0.173676
-0.17141
-0.169021
-0.166517
-0.163908
-0.161204
-0.158429
-0.155603
-0.152746
-0.149881
-0.147018
-0.144183
-0.141387
-0.138626
-0.13588
-0.133113
-0.130284
-0.127383
-0.124421
-0.121404
-0.118325
-0.115234
-0.112118
-0.108852
-0.10527
-0.101209
-0.0966081
-0.0915299
-0.0863684
-0.081416
-0.076614
-0.0717425
-0.0666725
-0.0614315
-0.0560991
-0.050816
-0.0456717
-0.0407081
-0.035936
-0.0313316
-0.0268481
-0.0224288
-0.018018
-0.0135864
-0.00922548
-0.00516319
-0.00168613
0.00150724
0.00461025
0.00770699
0.0108254
0.0139674
0.0171258
0.0202923
0.0234607
0.0266282
0.029794
0.0329587
0.0361234
0.0392892
0.0424564
0.0456254
0.0487955
0.0519664
0.0551371
0.0583068
0.0614749
0.0646408
0.0678041
0.0709645
0.0741221
0.0772768
0.0804288
0.0835785
0.0867261
0.0898718
0.0930161
0.0961593
0.0993015
0.102443
0.105584
0.108725
-0.219933
-0.218637
-0.217395
-0.216231
-0.21516
-0.214191
-0.213329
-0.212576
-0.211929
-0.211382
-0.210921
-0.210531
-0.210192
-0.209882
-0.209581
-0.209276
-0.208933
-0.208528
-0.208061
-0.207536
-0.206953
-0.206298
-0.205553
-0.204706
-0.203749
-0.202683
-0.201515
-0.20025
-0.198892
-0.197452
-0.195927
-0.194314
-0.192603
-0.19079
-0.188857
-0.186792
-0.184587
-0.182225
-0.179688
-0.176966
-0.174061
-0.170985
-0.167751
-0.164374
-0.160894
-0.157345
-0.153761
-0.150178
-0.146641
-0.143185
-0.13983
-0.136595
-0.133458
-0.130366
-0.127248
-0.124069
-0.120841
-0.117577
-0.114286
-0.111077
-0.107942
-0.104758
-0.101334
-0.0974212
-0.092879
-0.087662
-0.0823288
-0.0774278
-0.0729238
-0.0684134
-0.0637185
-0.0588377
-0.0538263
-0.0488341
-0.0439769
-0.0393037
-0.0348269
-0.0305211
-0.0263266
-0.0221809
-0.0180273
-0.013836
-0.00964542
-0.00557425
-0.00181043
0.0015215
0.00464725
0.00772989
0.0108352
0.0139744
0.0171376
0.0203118
0.0234874
0.0266593
0.0298265
0.03299
0.0361515
0.039313
0.0424757
0.0456402
0.0488065
0.0519741
0.0551422
0.0583101
0.0614769
0.0646419
0.0678046
0.0709647
0.0741221
0.0772768
0.0804288
0.0835785
0.086726
0.0898718
0.0930161
0.0961593
0.0993015
0.102443
0.105584
0.108725
-0.220052
-0.219003
-0.218035
-0.217184
-0.216468
-0.215893
-0.215453
-0.215136
-0.21493
-0.214818
-0.214786
-0.214818
-0.214895
-0.214995
-0.215099
-0.215187
-0.215228
-0.215197
-0.215096
-0.214928
-0.214694
-0.214377
-0.213954
-0.213411
-0.21273
-0.21191
-0.210961
-0.209888
-0.208695
-0.20739
-0.20597
-0.204423
-0.202737
-0.200908
-0.198911
-0.196728
-0.194346
-0.191739
-0.188872
-0.185727
-0.182294
-0.17859
-0.174631
-0.170428
-0.166043
-0.161541
-0.156965
-0.152366
-0.147812
-0.143402
-0.139214
-0.135259
-0.131486
-0.127814
-0.124171
-0.120497
-0.116789
-0.113064
-0.109351
-0.105815
-0.102466
-0.0991674
-0.0957341
-0.0918427
-0.0872703
-0.0818958
-0.0763813
-0.0715372
-0.0673829
-0.063263
-0.0589835
-0.0545114
-0.0498825
-0.0452572
-0.0407789
-0.0365093
-0.0324584
-0.028584
-0.0247907
-0.021005
-0.0171651
-0.0132551
-0.00920458
-0.00509053
-0.00112542
0.00199372
0.00488609
0.00781999
0.0108519
0.0139651
0.0171275
0.0203111
0.023498
0.026679
0.0298515
0.0330165
0.036177
0.0393355
0.0424944
0.0456549
0.0488175
0.0519819
0.0551474
0.0583133
0.0614786
0.0646426
0.0678047
0.0709645
0.0741216
0.0772762
0.0804282
0.0835779
0.0867255
0.0898713
0.0930157
0.0961589
0.0993012
0.102443
0.105584
0.108725
-0.220048
-0.219011
-0.218104
-0.217388
-0.216892
-0.216615
-0.216537
-0.216627
-0.216856
-0.217191
-0.217614
-0.218103
-0.218638