/*--------------------------------*- C++ -*----------------------------------*\
  =========                 |
  \\      /  F ield         | OpenFOAM: The Open Source CFD Toolbox
   \\    /   O peration     | Website:  https://openfoam.org
    \\  /    A nd           | Version:  6
     \\/     M anipulation  |
\*---------------------------------------------------------------------------*/
FoamFile
{
    version     2.0;
    format      ascii;
    class       surfaceScalarField;
    location    "3000";
    object      phi;
}
// * * * * * * * * * * * * * * * * * * * * * * * * * * * * * * * * * * * * * //

dimensions      [0 3 -1 0 0 0 0];

internalField   nonuniform List<scalar> 
9440
(
6.03791e-11
-6.03791e-11
6.43082e-11
-3.92818e-12
7.66716e-11
-1.23627e-11
7.0096e-11
6.57626e-12
-5.12673e-11
1.21364e-10
-1.17548e-10
6.62815e-11
-1.29547e-10
1.19994e-11
-2.45307e-10
1.15761e-10
-4.3699e-10
1.91684e-10
-7.34971e-10
2.97981e-10
-1.07782e-09
3.42854e-10
-1.26895e-09
1.91125e-10
-1.3907e-09
1.21749e-10
-1.46559e-09
7.48902e-11
-1.52235e-09
5.67616e-11
-1.51344e-09
-8.90383e-12
-1.55563e-09
4.21828e-11
-1.62525e-09
6.962e-11
-1.72724e-09
1.01991e-10
-1.81323e-09
8.59906e-11
-1.97989e-09
1.66667e-10
-2.15459e-09
1.747e-10
-2.34408e-09
1.89491e-10
-2.5621e-09
2.18018e-10
-2.78294e-09
2.2084e-10
-2.93892e-09
1.55977e-10
-3.01024e-09
7.13224e-11
-3.04236e-09
3.21149e-11
-3.05063e-09
8.27016e-12
-3.05499e-09
4.35695e-12
-3.05819e-09
3.20761e-12
-3.05589e-09
-2.30896e-12
-3.03442e-09
-2.14653e-11
-3.01151e-09
-2.29092e-11
-2.93494e-09
-7.65717e-11
-2.86733e-09
-6.76185e-11
-2.84721e-09
-2.0118e-11
-2.78609e-09
-6.11238e-11
-2.74686e-09
-3.92252e-11
-2.71296e-09
-3.39052e-11
-2.62866e-09
-8.42975e-11
-2.4819e-09
-1.46767e-10
-2.27765e-09
-2.04248e-10
-2.14901e-09
-1.28642e-10
-1.97632e-09
-1.72692e-10
-1.76582e-09
-2.10493e-10
-1.93796e-09
1.72135e-10
-1.57612e-09
-3.61836e-10
-1.35497e-09
-2.21159e-10
-1.15587e-09
-1.99091e-10
-1.08091e-09
-7.49651e-11
-6.82517e-10
-3.98393e-10
-5.73412e-10
-1.09105e-10
-4.92081e-10
-8.13313e-11
-2.62832e-10
-2.2925e-10
-1.66117e-10
-9.6715e-11
-3.45257e-12
-1.62665e-10
7.08251e-11
-7.42779e-11
2.80025e-10
-2.092e-10
3.16404e-10
-3.63795e-11
3.81801e-10
-6.53976e-11
4.54694e-10
-7.28938e-11
5.15983e-10
-6.12892e-11
5.57108e-10
-4.11257e-11
6.09615e-10
-5.25075e-11
6.68632e-10
-5.9017e-11
7.15345e-10
-4.67144e-11
7.65173e-10
-4.98285e-11
8.03459e-10
-3.82863e-11
8.63762e-10
-6.03044e-11
8.62578e-10
1.1839e-12
8.64688e-10
-2.11095e-12
8.78742e-10
-1.40549e-11
8.49342e-10
2.93993e-11
8.07673e-10
4.16682e-11
7.41665e-10
6.60077e-11
6.37872e-10
1.03792e-10
5.47694e-10
9.01779e-11
4.92716e-10
5.49772e-11
5.08382e-10
-1.56665e-11
6.25801e-12
5.02123e-10
1.70786e-17
6.25766e-12
8.25544e-18
8.81313e-18
5.38229e-18
2.87292e-18
4.20847e-18
1.17357e-18
3.73176e-18
4.76975e-19
3.56138e-18
1.71111e-19
3.53301e-18
2.94907e-20
3.57184e-18
-3.73846e-20
3.64096e-18
-6.7403e-20
3.72065e-18
-7.77382e-20
3.79953e-18
-7.67245e-20
3.87052e-18
-6.86957e-20
3.929e-18
-5.60811e-20
3.97182e-18
-4.03664e-20
3.99683e-18
-2.25485e-20
4.0026e-18
-3.3567e-21
3.9883e-18
1.66389e-20
3.95354e-18
3.69709e-20
3.89838e-18
5.72472e-20
3.82315e-18
7.71362e-20
3.7285e-18
9.63601e-20
3.61528e-18
1.14694e-19
3.48455e-18
1.31964e-19
3.33748e-18
1.48046e-19
3.17535e-18
1.62863e-19
2.99947e-18
1.76376e-19
2.81117e-18
1.8858e-19
2.61176e-18
1.99495e-19
2.40249e-18
2.09162e-19
2.18456e-18
2.17635e-19
1.95912e-18
2.2498e-19
1.72722e-18
2.31267e-19
1.48987e-18
2.36568e-19
1.24799e-18
2.40952e-19
1.00246e-18
2.44485e-19
7.54089e-19
2.4722e-19
5.03668e-19
2.49193e-19
2.5199e-19
2.50393e-19
2.5067e-19
-1.33673e-11
-4.7011e-11
-1.03417e-10
8.61227e-11
-1.92527e-10
7.67489e-11
-2.01928e-10
1.59782e-11
-1.45377e-10
6.48147e-11
-2.30614e-10
1.51519e-10
-4.23417e-10
2.04805e-10
-7.11146e-10
4.0349e-10
-1.10967e-09
5.90209e-10
-1.39372e-09
5.82033e-10
-1.54652e-09
4.9566e-10
-1.6597e-09
3.04298e-10
-1.78531e-09
2.47359e-10
-1.90509e-09
1.94678e-10
-1.97418e-09
1.25855e-10
-2.07742e-09
9.4332e-11
-2.2177e-09
1.82469e-10
-2.3344e-09
1.86316e-10
-2.47288e-09
2.40476e-10
-2.64165e-09
2.54754e-10
-2.81476e-09
3.39783e-10
-3.00141e-09
3.61346e-10
-3.09996e-09
2.88043e-10
-3.19174e-09
3.09795e-10
-3.22225e-09
2.51354e-10
-3.24734e-09
1.8106e-10
-3.2946e-09
1.18583e-10
-3.3273e-09
6.48097e-11
-3.34778e-09
2.8749e-11
-3.36833e-09
2.49141e-11
-3.37281e-09
7.68509e-12
-3.36357e-09
-1.15577e-11
-3.35933e-09
-2.57056e-11
-3.36454e-09
-1.76946e-11
-3.39828e-09
-4.28407e-11
-3.38798e-09
-7.79168e-11
-3.33207e-09
-7.60365e-11
-3.22466e-09
-1.68535e-10
-3.11322e-09
-1.50659e-10
-3.05139e-09
-9.57451e-11
-2.99374e-09
-1.41943e-10
-2.90967e-09
-2.30843e-10
-2.90311e-09
-2.10805e-10
-2.79821e-09
-2.33542e-10
-2.54343e-09
-4.27478e-10
-2.40041e-09
-3.53515e-10
-2.48778e-09
2.59509e-10
-1.85859e-09
-9.91031e-10
-1.79577e-09
-2.83974e-10
-1.82347e-09
-1.71393e-10
-1.43134e-09
-4.671e-10
-1.31068e-09
-5.19056e-10
-1.16614e-09
-2.53636e-10
-9.83447e-10
-2.64029e-10
-7.38649e-10
-4.74049e-10
-6.30152e-10
-2.05213e-10
-3.24335e-10
-4.68482e-10
-1.2418e-10
-2.74433e-10
1.13234e-10
-4.46614e-10
1.1665e-10
-3.97958e-11
1.71287e-10
-1.20035e-10
2.22088e-10
-1.23696e-10
3.24897e-10
-1.64099e-10
3.92927e-10
-1.09156e-10
4.47232e-10
-1.06814e-10
5.2561e-10
-1.37395e-10
5.91202e-10
-1.12308e-10
6.54016e-10
-1.12644e-10
7.01726e-10
-8.5997e-11
7.63889e-10
-1.22469e-10
7.1203e-10
5.30421e-11
7.25017e-10
-1.5099e-11
7.84203e-10
-7.3243e-11
7.62834e-10
5.07674e-11
7.13594e-10
9.09067e-11
6.65762e-10
1.13838e-10
5.67981e-10
2.01571e-10
4.20628e-10
2.3753e-10
1.58413e-10
3.17192e-10
-3.79408e-10
5.22154e-10
-7.36286e-10
8.59e-10
2.56217e-16
-7.3003e-10
3.79364e-18
3.59571e-18
3.68318e-18
2.98384e-18
3.51199e-18
1.34551e-18
3.42589e-18
5.64435e-19
3.41976e-18
1.79198e-19
3.46613e-18
-1.43843e-20
3.54182e-18
-1.10071e-19
3.63063e-18
-1.52786e-19
3.72167e-18
-1.65018e-19
3.80755e-18
-1.58589e-19
3.88313e-18
-1.4007e-19
3.94471e-18
-1.13366e-19
3.98964e-18
-8.09895e-20
4.01602e-18
-4.47036e-20
4.0226e-18
-5.84725e-21
4.00863e-18
3.44968e-20
3.97382e-18
7.54199e-20
3.91826e-18
1.16148e-19
3.84237e-18
1.56023e-19
3.74683e-18
1.945e-19
3.63255e-18
2.31141e-19
3.50063e-18
2.65612e-19
3.3523e-18
2.97677e-19
3.18886e-18
3.27185e-19
3.01167e-18
3.54065e-19
2.82208e-18
3.78307e-19
2.62142e-18
3.99956e-19
2.41096e-18
4.19099e-19
2.19191e-18
4.35851e-19
1.9654e-18
4.5035e-19
1.73252e-18
4.62744e-19
1.49425e-18
4.73184e-19
1.25152e-18
4.81814e-19
1.00519e-18
4.88771e-19
7.56062e-19
4.94169e-19
5.04868e-19
4.98105e-19
2.52267e-19
5.00653e-19
5.01902e-19
4.05411e-11
-8.75513e-11
-2.10929e-11
1.47758e-10
-1.17556e-10
1.73213e-10
-2.29132e-10
1.27556e-10
-2.98829e-10
1.34512e-10
-4.20024e-10
2.72715e-10
-6.89983e-10
4.74765e-10
-9.75478e-10
6.88985e-10
-1.28606e-09
9.00797e-10
-1.62124e-09
9.17212e-10
-1.81939e-09
6.93813e-10
-1.95867e-09
4.4357e-10
-2.08899e-09
3.77685e-10
-2.29193e-09
3.97615e-10
-2.51025e-09
3.44181e-10
-2.65163e-09
2.35705e-10
-2.76669e-09
2.97531e-10
-2.91414e-09
3.33775e-10
-3.01712e-09
3.43453e-10
-3.13815e-09
3.75779e-10
-3.20809e-09
4.09724e-10
-3.30199e-09
4.55252e-10
-3.38624e-09
3.72292e-10
-3.43977e-09
3.6332e-10
-3.4782e-09
2.89789e-10
-3.50308e-09
2.05939e-10
-3.53948e-09
1.54978e-10
-3.5735e-09
9.88251e-11
-3.61983e-09
7.50842e-11
-3.66532e-09
7.0402e-11
-3.68829e-09
3.06506e-11
-3.69029e-09
-9.55656e-12
-3.67422e-09
-4.17736e-11
-3.66555e-09
-2.6367e-11
-3.6871e-09
-2.12979e-11
-3.68423e-09
-8.079e-11
-3.69393e-09
-6.63353e-11
-3.7446e-09
-1.17865e-10
-3.7012e-09
-1.94058e-10
-3.57646e-09
-2.20492e-10
-3.4722e-09
-2.46202e-10
-3.38358e-09
-3.19461e-10
-3.33571e-09
-2.58678e-10
-3.16486e-09
-4.04397e-10
-2.96994e-09
-6.22396e-10
-2.98613e-09
-3.37326e-10
-2.66138e-09
-6.52393e-11
-2.50054e-09
-1.15187e-09
-2.42334e-09
-3.61179e-10
-2.18503e-09
-4.09703e-10
-1.98216e-09
-6.69968e-10
-1.99288e-09
-5.08341e-10
-1.73029e-09
-5.16225e-10
-1.59779e-09
-3.96529e-10
-1.49126e-09
-5.80577e-10
-1.17453e-09
-5.21944e-10
-1.04397e-09
-5.99042e-10
-7.70853e-10
-5.47554e-10
-4.89676e-10
-7.27792e-10
-3.53816e-10
-1.75656e-10
-1.19393e-10
-3.5446e-10
-3.00562e-11
-2.13033e-10
1.09801e-10
-3.03957e-10
1.74753e-10
-1.74109e-10
2.7486e-10
-2.06922e-10
3.88288e-10
-2.50824e-10
4.94019e-10
-2.1804e-10
5.7714e-10
-1.95766e-10
6.6025e-10
-1.69108e-10
7.27436e-10
-1.89657e-10
7.61132e-10
1.93457e-11
8.13432e-10
-6.74009e-11
8.23004e-10
-8.28151e-11
8.1843e-10
5.53394e-11
7.55982e-10
1.53354e-10
6.86326e-10
1.83494e-10
5.52075e-10
3.35822e-10
3.28874e-10
4.60729e-10
4.83119e-11
5.97753e-10
-1.63376e-10
7.33841e-10
-2.97521e-10
9.93145e-10
4.00903e-16
-1.02755e-09
2.12869e-19
-1.65206e-18
2.0455e-18
1.15139e-18
2.73119e-18
6.60094e-19
3.04066e-18
2.55835e-19
3.22617e-18
-4.90902e-21
3.37045e-18
-1.56759e-19
3.49911e-18
-2.36391e-19
3.6184e-18
-2.69342e-19
3.7281e-18
-2.71667e-19
3.82607e-18
-2.53262e-19
3.90984e-18
-2.20346e-19
3.97709e-18
-1.77026e-19
4.02592e-18
-1.26197e-19
4.05488e-18
-7.00604e-20
4.06294e-18
-1.04016e-20
4.04955e-18
5.12628e-20
4.01455e-18
1.13618e-19
3.95814e-18
1.75521e-19
3.88085e-18
2.35997e-19
3.78347e-18
2.94236e-19
3.66702e-18
3.49589e-19
3.5327e-18
4.01565e-19
3.38181e-18
4.49822e-19
3.21574e-18
4.94146e-19
3.03591e-18
5.34443e-19
2.84373e-18
5.70714e-19
2.64056e-18
6.03043e-19
2.42771e-18
6.31573e-19
2.20641e-18
6.56496e-19
1.9778e-18
6.78028e-19
1.74296e-18
6.96405e-19
1.50288e-18
7.11861e-19
1.25848e-18
7.24625e-19
1.01059e-18
7.34904e-19
7.59998e-19
7.42884e-19
5.07416e-19
7.48718e-19
2.53517e-19
7.52531e-19
7.54422e-19
-1.58319e-10
7.07681e-11
-1.37525e-10
1.26966e-10
-1.10008e-10
1.45696e-10
-1.3627e-10
1.53819e-10
-3.38228e-10
3.36472e-10
-5.54717e-10
4.89205e-10
-9.66839e-10
8.86887e-10
-1.32585e-09
1.048e-09
-1.57743e-09
1.15237e-09
-1.759e-09
1.09878e-09
-1.90225e-09
8.37066e-10
-2.2083e-09
7.49623e-10
-2.50293e-09
6.7232e-10
-2.60139e-09
4.96071e-10
-2.77404e-09
5.16835e-10
-2.99447e-09
4.56131e-10
-3.05001e-09
3.53072e-10
-3.24198e-09
5.25747e-10
-3.30354e-09
4.05017e-10
-3.33008e-09
4.0232e-10
-3.38727e-09
4.66911e-10
-3.38551e-09
4.53497e-10
-3.42011e-09
4.06892e-10
-3.45354e-09
3.96745e-10
-3.51102e-09
3.47273e-10
-3.57194e-09
2.66851e-10
-3.62696e-09
2.10003e-10
-3.67204e-09
1.43901e-10
-3.71698e-09
1.20019e-10
-3.75615e-09
1.09575e-10
-3.78536e-09
5.98612e-11
-3.81755e-09
2.26334e-11
-3.84205e-09
-1.72752e-11
-3.87194e-09
3.51921e-12
-3.88643e-09
-6.81318e-12
-3.88132e-09
-8.59021e-11
-3.84395e-09
-1.03706e-10
-3.83709e-09
-1.24729e-10
-3.78414e-09
-2.47006e-10
-3.71624e-09
-2.88397e-10
-3.60664e-09
-3.55805e-10
-3.56657e-09
-3.59524e-10
-3.46638e-09
-3.58872e-10
-3.30655e-09
-5.64232e-10
-3.26372e-09
-6.6522e-10
-3.22494e-09
-3.76113e-10
-2.82642e-09
-4.63755e-10
-3.04608e-09
-9.32214e-10
-2.82156e-09
-5.85699e-10
-2.66285e-09
-5.68414e-10
-2.55979e-09
-7.7303e-10
-2.4385e-09
-6.2963e-10
-2.29819e-09
-6.56536e-10
-2.10926e-09
-5.85461e-10
-1.86002e-09
-8.29819e-10
-1.61219e-09
-7.69769e-10
-1.61751e-09
-5.93724e-10
-1.15425e-09
-1.01082e-09
-1.22298e-09
-6.59059e-10
-1.01651e-09
-3.82134e-10
-7.03806e-10
-6.67161e-10
-5.51589e-10
-3.65251e-10
-2.72006e-10
-5.83541e-10
-6.7353e-11
-3.78763e-10
9.52789e-11
-3.69555e-10
2.28709e-10
-3.84255e-10
3.43703e-10
-3.33036e-10
4.55594e-10
-3.07658e-10
5.74918e-10
-2.88433e-10
6.52058e-10
-2.66799e-10
7.79969e-10
-1.08566e-10
8.37035e-10
-1.24468e-10
8.15344e-10
-6.11256e-11
8.24216e-10
4.64661e-11
7.74468e-10
2.031e-10
6.65008e-10
2.92953e-10
5.59754e-10
4.41075e-10
3.70548e-10
6.49934e-10
1.5646e-10
8.1184e-10
8.38152e-11
8.06484e-10
5.84957e-11
1.01846e-09
4.82396e-16
-9.69058e-10
1.90434e-19
-3.35076e-18
1.55481e-18
-2.12853e-19
2.32727e-18
-1.12447e-19
2.77991e-18
-1.96306e-19
3.07432e-18
-2.98284e-19
3.29081e-18
-3.71725e-19
3.46616e-18
-4.0976e-19
3.61607e-18
-4.1688e-19
3.7465e-18
-3.99382e-19
3.85899e-18
-3.62754e-19
3.95316e-18
-3.11315e-19
4.02792e-18
-2.48454e-19
4.08206e-18
-1.76936e-19
4.11454e-18
-9.91225e-20
4.1246e-18
-1.71037e-20
4.11191e-18
6.72366e-20
4.07645e-18
1.52203e-19
4.01862e-18
2.36296e-19
3.93909e-18
3.18221e-19
3.83882e-18
3.96902e-19
3.719e-18
4.71486e-19
3.58095e-18
5.41333e-19
3.42613e-18
6.06005e-19
3.25604e-18
6.65245e-19
3.07219e-18
7.18954e-19
2.87606e-18
7.67165e-19
2.6691e-18
8.1002e-19
2.45263e-18
8.4774e-19
2.22794e-18
8.80604e-19
1.99617e-18
9.0893e-19
1.75842e-18
9.33047e-19
1.51565e-18
9.53289e-19
1.26876e-18
9.69974e-19
1.01857e-18
9.83391e-19
7.65832e-19
9.93797e-19
5.11229e-19
1.0014e-18
2.55408e-19
1.00638e-18
1.00885e-18
-6.76856e-11
1.38454e-10
-1.08843e-10
1.68125e-10
-1.51383e-10
1.88237e-10
-1.70903e-10
1.7334e-10
-4.36208e-10
6.01779e-10
-7.92703e-10
8.45701e-10
-1.23512e-09
1.3293e-09
-1.62658e-09
1.43946e-09
-1.87164e-09
1.39744e-09
-2.02494e-09
1.25208e-09
-2.13909e-09
9.51218e-10
-2.35966e-09
9.70192e-10
-2.51978e-09
8.32444e-10
-2.68994e-09
6.66233e-10
-2.83796e-09
6.64849e-10
-3.03233e-09
6.50504e-10
-3.0721e-09
3.92842e-10
-3.20343e-09
6.57078e-10
-3.29787e-09
4.9946e-10
-3.32997e-09
4.34422e-10
-3.3897e-09
5.26637e-10
-3.41693e-09
4.80725e-10
-3.43947e-09
4.29433e-10
-3.47562e-09
4.32893e-10
-3.52295e-09
3.94608e-10
-3.57415e-09
3.1805e-10
-3.63212e-09
2.6797e-10
-3.69442e-09
2.06201e-10
-3.73385e-09
1.59449e-10
-3.772e-09
1.47726e-10
-3.79909e-09
8.69456e-11
-3.83789e-09
6.14285e-11
-3.88633e-09
3.11655e-11
-3.91875e-09
3.59426e-11
-3.93948e-09
1.39146e-11
-3.94995e-09
-7.54394e-11
-3.90988e-09
-1.43773e-10
-3.81866e-09
-2.15947e-10
-3.73592e-09
-3.2975e-10
-3.70661e-09
-3.17705e-10
-3.64169e-09
-4.20733e-10
-3.64974e-09
-3.51469e-10
-3.48527e-09
-5.23348e-10
-3.38382e-09
-6.65683e-10
-3.39121e-09
-6.57828e-10
-3.24185e-09
-5.25471e-10
-3.07786e-09
-6.27744e-10
-3.15759e-09
-8.52493e-10
-3.05567e-09
-6.87611e-10
-2.92678e-09
-6.97312e-10
-2.84295e-09
-8.56854e-10
-2.72723e-09
-7.45353e-10
-2.62468e-09
-7.59082e-10
-2.36363e-09
-8.46521e-10
-2.24152e-09
-9.51928e-10
-2.23265e-09
-7.78638e-10
-1.78648e-09
-1.03989e-09
-1.70667e-09
-1.09062e-09
-1.76079e-09
-6.04941e-10
-1.36071e-09
-7.82215e-10
-1.22606e-09
-8.01811e-10
-1.03062e-09
-5.6069e-10
-8.42808e-10
-7.71355e-10
-6.04438e-10
-6.17134e-10
-3.4329e-10
-6.30704e-10
-5.02189e-11
-6.77328e-10
1.74548e-10
-5.57804e-10
3.20685e-10
-4.53796e-10
3.9858e-10
-3.66329e-10
4.65743e-10
-3.33963e-10
5.81165e-10
-2.23989e-10
6.44672e-10
-1.87976e-10
6.74016e-10
-9.04698e-11
6.82993e-10
3.74876e-11
6.91359e-10
1.94733e-10
6.42451e-10
3.4186e-10
5.5692e-10
5.26605e-10
5.27921e-10
6.78931e-10
4.96033e-10
8.43727e-10
3.1246e-10
9.90056e-10
1.8586e-10
1.14506e-09
5.56762e-16
-7.832e-10
9.56468e-19
-3.17551e-18
1.65575e-18
-9.12151e-19
2.24381e-18
-7.0093e-19
2.67793e-18
-6.30335e-19
3.00088e-18
-6.20618e-19
3.25278e-18
-6.22512e-19
3.45904e-18
-6.14446e-19
3.63357e-18
-5.89418e-19
3.78313e-18
-5.46585e-19
3.91043e-18
-4.87387e-19
4.01602e-18
-4.14e-19
4.09944e-18
-3.28797e-19
4.15988e-18
-2.3419e-19
4.19655e-18
-1.32569e-19
4.20895e-18
-2.62667e-20
4.19687e-18
8.24831e-20
4.16054e-18
1.91603e-19
4.10054e-18
2.99219e-19
4.01777e-18
4.03711e-19
3.91341e-18
5.0373e-19
3.78885e-18
5.98218e-19
3.64563e-18
6.86398e-19
3.48537e-18
7.67756e-19
3.30975e-18
8.42015e-19
3.1204e-18
9.09098e-19
2.91892e-18
9.691e-19
2.70681e-18
1.02225e-18
2.4855e-18
1.06886e-18
2.25626e-18
1.10934e-18
2.02029e-18
1.14411e-18
1.77866e-18
1.17363e-18
1.53233e-18
1.19833e-18
1.28218e-18
1.21864e-18
1.02898e-18
1.23493e-18
7.7344e-19
1.24754e-18
5.16207e-19
1.25676e-18
2.57874e-19
1.26278e-18
1.26576e-18
-2.97878e-10
4.36333e-10
-4.15127e-10
2.85376e-10
-4.29261e-10
2.02372e-10
-4.73078e-10
2.17159e-10
-7.35275e-10
8.63976e-10
-1.11161e-09
1.22203e-09
-1.36927e-09
1.58697e-09
-1.62107e-09
1.69127e-09
-1.87215e-09
1.64852e-09
-1.98045e-09
1.36038e-09
-2.19441e-09
1.16518e-09
-2.40489e-09
1.18068e-09
-2.49495e-09
9.22499e-10
-2.67194e-09
8.43228e-10
-2.81189e-09
8.04793e-10
-2.86033e-09
6.98943e-10
-3.05004e-09
5.82558e-10
-3.13401e-09
7.41052e-10
-3.19351e-09
5.5896e-10
-3.26033e-09
5.01234e-10
-3.3285e-09
5.94807e-10
-3.37519e-09
5.27423e-10
-3.40672e-09
4.60962e-10
-3.45331e-09
4.79482e-10
-3.50405e-09
4.4535e-10
-3.55887e-09
3.72861e-10
-3.60194e-09
3.11048e-10
-3.66537e-09
2.69626e-10
-3.72201e-09
2.16086e-10
-3.74998e-09
1.75699e-10
-3.78608e-09
1.23044e-10
-3.81635e-09
9.16973e-11
-3.83617e-09
5.09779e-11
-3.82413e-09
2.39012e-11
-3.79947e-09
-1.07449e-11
-3.74758e-09
-1.27328e-10
-3.70861e-09
-1.82741e-10
-3.68937e-09
-2.3519e-10
-3.68276e-09
-3.36361e-10
-3.60244e-09
-3.98032e-10
-3.56206e-09
-4.61113e-10
-3.47665e-09
-4.36877e-10
-3.39034e-09
-6.09663e-10
-3.3773e-09
-6.78722e-10
-3.34521e-09
-6.89915e-10
-3.23501e-09
-6.35679e-10
-3.1224e-09
-7.40354e-10
-3.14635e-09
-8.28544e-10
-3.08267e-09
-7.51289e-10
-2.97664e-09
-8.03345e-10
-2.95523e-09
-8.7826e-10
-2.84232e-09
-8.58263e-10
-2.71228e-09
-8.89122e-10
-2.57568e-09
-9.83123e-10
-2.48251e-09
-1.04509e-09
-2.33378e-09
-9.2737e-10
-2.13374e-09
-1.23993e-09
-2.24316e-09
-9.81206e-10
-1.97719e-09
-8.70916e-10
-1.74641e-09
-1.01299e-09
-1.70575e-09
-8.42474e-10
-1.43178e-09
-8.34662e-10
-1.30598e-09
-8.97154e-10
-1.04338e-09
-8.79738e-10
-7.91655e-10
-8.82427e-10
-5.17152e-10
-9.51832e-10
-2.77265e-10
-7.97691e-10
1.05972e-11
-7.41659e-10
2.2845e-10
-5.84182e-10
3.30336e-10
-4.3585e-10
4.07347e-10
-3.01001e-10
4.64503e-10
-2.45134e-10
5.14059e-10
-1.40026e-10
5.34494e-10
1.70512e-11
5.76627e-10
1.52599e-10
5.81151e-10
3.37335e-10
5.75579e-10
5.32176e-10
6.06933e-10
6.47576e-10
5.13421e-10
9.37237e-10
4.81043e-10
1.02243e-09
4.99339e-10
1.12676e-09
6.19516e-16
-2.83863e-10
1.2912e-18
-3.88684e-18
1.86748e-18
-1.48864e-18
2.31485e-18
-1.14909e-18
2.68765e-18
-1.00347e-18
2.99899e-18
-9.31786e-19
3.26085e-18
-8.83705e-19
3.48407e-18
-8.36534e-19
3.6764e-18
-7.80178e-19
3.84233e-18
-7.10544e-19
3.98382e-18
-6.26568e-19
4.10122e-18
-5.2882e-19
4.19404e-18
-4.18828e-19
4.2615e-18
-2.98704e-19
4.30286e-18
-1.70905e-19
4.3177e-18
-3.80534e-20
4.30599e-18
9.72193e-20
4.26816e-18
2.32402e-19
4.20503e-18
3.6521e-19
4.11779e-18
4.93661e-19
4.0079e-18
6.16124e-19
3.87703e-18
7.31336e-19
3.72698e-18
8.38398e-19
3.55963e-18
9.36744e-19
3.37683e-18
1.02611e-18
3.1804e-18
1.10647e-18
2.97206e-18
1.17803e-18
2.75343e-18
1.24113e-18
2.52598e-18
1.29624e-18
2.29104e-18
1.34388e-18
2.04981e-18
1.38464e-18
1.80336e-18
1.4191e-18
1.55264e-18
1.44783e-18
1.29847e-18
1.47137e-18
1.04159e-18
1.4902e-18
7.82652e-19
1.50474e-18
5.22231e-19
1.51534e-18
2.60857e-19
1.52226e-18
1.52568e-18
-1.31641e-10
5.67975e-10
-2.57877e-10
4.11613e-10
-3.54492e-10
2.98987e-10
-6.36193e-10
4.98861e-10
-9.10179e-10
1.13796e-09
-1.25397e-09
1.56583e-09
-1.59172e-09
1.92472e-09
-1.82084e-09
1.92038e-09
-1.98665e-09
1.81433e-09
-2.12707e-09
1.5008e-09
-2.2749e-09
1.31301e-09
-2.30493e-09
1.21071e-09
-2.45202e-09
1.06959e-09
-2.60654e-09
9.97746e-10
-2.73063e-09
9.28878e-10
-2.75008e-09
7.18395e-10
-2.89594e-09
7.28422e-10
-3.00127e-09
8.46384e-10
-3.03348e-09
5.91171e-10
-3.11535e-09
5.83098e-10
-3.157e-09
6.36457e-10
-3.20579e-09
5.76217e-10
-3.27935e-09
5.34517e-10
-3.33852e-09
5.38658e-10
-3.37449e-09
4.81316e-10
-3.4339e-09
4.32266e-10
-3.47212e-09
3.49272e-10
-3.5015e-09
2.99e-10
-3.53281e-09
2.47398e-10
-3.5182e-09
1.61094e-10
-3.55008e-09
1.54918e-10
-3.54776e-09
8.93719e-11
-3.53571e-09
3.89304e-11
-3.50479e-09
-7.01523e-12
-3.4577e-09
-5.78447e-11
-3.42199e-09
-1.63034e-10
-3.38384e-09
-2.20892e-10
-3.35132e-09
-2.67716e-10
-3.34926e-09
-3.38421e-10
-3.3392e-09
-4.08095e-10
-3.29414e-09
-5.0617e-10
-3.18509e-09
-5.45924e-10
-3.1605e-09
-6.34259e-10
-3.13705e-09
-7.02167e-10
-3.12671e-09
-7.00256e-10
-3.07388e-09
-6.88514e-10
-3.05579e-09
-7.58443e-10
-3.08343e-09
-8.00902e-10
-2.9949e-09
-8.39822e-10
-2.88727e-09
-9.10974e-10
-2.866e-09
-8.9953e-10
-2.84125e-09
-8.83017e-10
-2.68561e-09
-1.04476e-09
-2.62658e-09
-1.04215e-09
-2.57415e-09
-1.09753e-09
-2.42198e-09
-1.07954e-09
-2.41386e-09
-1.24806e-09
-2.30195e-09
-1.09312e-09
-2.17181e-09
-1.00105e-09
-2.07252e-09
-1.11228e-09
-1.93985e-09
-9.75145e-10
-1.74535e-09
-1.02916e-09
-1.6275e-09
-1.015e-09
-1.39773e-09
-1.10951e-09
-1.10894e-09
-1.17122e-09
-8.32184e-10
-1.22859e-09
-5.60937e-10
-1.06894e-09
-3.13803e-10
-9.88794e-10
-1.06362e-10
-7.91624e-10
5.11751e-11
-5.93388e-10
2.10544e-10
-4.60371e-10
2.92199e-10
-3.26789e-10
3.59029e-10
-2.06857e-10
3.99609e-10
-2.35298e-11
4.34616e-10
1.17591e-10
4.77491e-10
2.94458e-10
5.21599e-10
4.88067e-10
5.16845e-10
6.52328e-10
4.67756e-10
9.86325e-10
4.89056e-10
1.00113e-09
4.70924e-10
1.14489e-09
6.67984e-16
1.87059e-10
2.14565e-18
-3.04365e-18
2.20751e-18
-1.55092e-18
2.46094e-18
-1.40364e-18
2.75935e-18
-1.30261e-18
3.04707e-18
-1.21977e-18
3.30802e-18
-1.14443e-18
3.54042e-18
-1.06824e-18
3.74604e-18
-9.84633e-19
3.9263e-18
-8.89237e-19
4.08156e-18
-7.79878e-19
4.21121e-18
-6.56207e-19
4.31417e-18
-5.19276e-19
4.3893e-18
-3.71143e-19
4.43571e-18
-2.14516e-19
4.45297e-18
-5.24571e-20
4.44117e-18
1.11876e-19
4.40097e-18
2.75437e-19
4.33348e-18
4.35454e-19
4.24025e-18
5.89539e-19
4.12311e-18
7.35757e-19
3.98409e-18
8.72643e-19
3.82533e-18
9.99193e-19
3.64899e-18
1.11483e-18
3.4572e-18
1.21933e-18
3.25196e-18
1.3128e-18
3.03516e-18
1.39558e-18
2.80853e-18
1.46816e-18
2.57362e-18
1.53121e-18
2.33179e-18
1.58542e-18
2.08427e-18
1.63157e-18
1.83209e-18
1.67039e-18
1.57618e-18
1.7026e-18
1.3173e-18
1.72888e-18
1.05613e-18
1.74982e-18
7.93249e-19
1.76593e-18
5.29152e-19
1.77765e-18
2.64281e-19
1.78528e-18
1.78905e-18
-1.77408e-10
7.45384e-10
-2.81589e-10
5.15795e-10
-3.66962e-10
3.84362e-10
-7.76144e-10
9.08044e-10
-1.34596e-09
1.70778e-09
-1.62938e-09
1.84925e-09
-1.73483e-09
2.03016e-09
-1.79284e-09
1.9784e-09
-1.86143e-09
1.88292e-09
-2.00114e-09
1.64051e-09
-2.1932e-09
1.50507e-09
-2.21606e-09
1.23358e-09
-2.34675e-09
1.20028e-09
-2.46924e-09
1.12024e-09
-2.57142e-09
1.03106e-09
-2.54681e-09
6.93783e-10
-2.66244e-09
8.44049e-10
-2.72612e-09
9.10069e-10
-2.7944e-09
6.59455e-10
-2.89022e-09
6.78914e-10
-2.9353e-09
6.81538e-10
-2.96937e-09
6.10287e-10
-3.01494e-09
5.8008e-10
-3.05245e-09
5.76167e-10
-3.07478e-09
5.03645e-10
-3.10559e-09
4.63081e-10
-3.10493e-09
3.48609e-10
-3.11193e-09
3.06002e-10
-3.1289e-09
2.64365e-10
-3.12038e-09
1.52573e-10
-3.11157e-09
1.46113e-10
-3.10027e-09
7.80701e-11
-3.07765e-09
1.63057e-11
-3.05203e-09
-3.26394e-11
-3.01052e-09
-9.93497e-11
-3.00712e-09
-1.66436e-10
-2.99874e-09
-2.29271e-10
-2.96384e-09
-3.02621e-10
-2.94674e-09
-3.55526e-10
-2.92102e-09
-4.33814e-10
-2.90696e-09
-5.20234e-10
-2.86619e-09
-5.86687e-10
-2.84403e-09
-6.56426e-10
-2.82788e-09
-7.18313e-10
-2.80409e-09
-7.24048e-10
-2.73522e-09
-7.5738e-10
-2.68165e-09
-8.12022e-10
-2.65708e-09
-8.25468e-10
-2.63701e-09
-8.5989e-10
-2.64709e-09
-9.00894e-10
-2.64088e-09
-9.05743e-10
-2.57857e-09
-9.45329e-10
-2.56769e-09
-1.05564e-09
-2.56657e-09
-1.04328e-09
-2.51614e-09
-1.14796e-09
-2.44001e-09
-1.15567e-09
-2.42462e-09
-1.26345e-09
-2.36178e-09
-1.15596e-09
-2.15402e-09
-1.20881e-09
-2.15531e-09
-1.111e-09
-2.00238e-09
-1.12808e-09
-1.87243e-09
-1.15911e-09
-1.73758e-09
-1.14985e-09
-1.57389e-09
-1.2732e-09
-1.37884e-09
-1.36626e-09
-1.16446e-09
-1.44297e-09
-8.65497e-10
-1.36791e-09
-5.3022e-10
-1.32407e-09
-2.59521e-10
-1.06232e-09
-1.31775e-10
-7.21135e-10
-1.67674e-11
-5.75379e-10
8.61019e-11
-4.2966e-10
1.70416e-10
-2.91172e-10
2.5123e-10
-1.04345e-10
3.13387e-10
5.54335e-11
3.83749e-10
2.24095e-10
4.16138e-10
4.55677e-10
4.24085e-10
6.44379e-10
4.28831e-10
9.81578e-10
4.71669e-10
9.58289e-10
3.79677e-10
1.23688e-09
6.92172e-16
5.66734e-10
2.45823e-18
-1.50873e-18
2.35525e-18
-1.44854e-18
2.56244e-18
-1.61223e-18
2.84224e-18
-1.58346e-18
3.12241e-18
-1.50059e-18
3.3842e-18
-1.40639e-18
3.62403e-18
-1.30778e-18
3.84143e-18
-1.20126e-18
4.03566e-18
-1.08225e-18
4.20523e-18
-9.47826e-19
4.34814e-18
-7.97145e-19
4.4623e-18
-6.31187e-19
4.54592e-18
-4.52305e-19
4.59777e-18
-2.63762e-19
4.6173e-18
-6.93175e-20
4.60474e-18
1.27137e-19
4.56099e-18
3.21866e-19
4.48757e-18
5.115e-19
4.38647e-18
6.93188e-19
4.25999e-18
8.64664e-19
4.11064e-18
1.02427e-18
3.94097e-18
1.17094e-18
3.7535e-18
1.30412e-18
3.55067e-18
1.42371e-18
3.33473e-18
1.52997e-18
3.10775e-18
1.62345e-18
2.87158e-18
1.70488e-18
2.62784e-18
1.77515e-18
2.37794e-18
1.83518e-18
2.12309e-18
1.88595e-18
1.86431e-18
1.92839e-18
1.60245e-18
1.96341e-18
1.33824e-18
1.99182e-18
1.07225e-18
2.01434e-18
8.04962e-19
2.0316e-18
5.36786e-19
2.0441e-18
2.68055e-19
2.05222e-18
2.05623e-18
-2.28978e-10
9.74363e-10
-5.50094e-10
8.36914e-10
-8.39432e-10
6.73701e-10
-9.80391e-10
1.049e-09
-1.15688e-09
1.88427e-09
-1.48486e-09
2.17724e-09
-1.63925e-09
2.18455e-09
-1.74675e-09
2.0859e-09
-1.83273e-09
1.9689e-09
-1.99758e-09
1.80536e-09
-2.11868e-09
1.62617e-09
-2.18751e-09
1.30241e-09
-2.19719e-09
1.20996e-09
-2.30248e-09
1.22552e-09
-2.4028e-09
1.13138e-09
-2.42199e-09
7.12978e-10
-2.46701e-09
8.89063e-10
-2.46902e-09
9.12082e-10
-2.55393e-09
7.44365e-10
-2.5831e-09
7.08086e-10
-2.5966e-09
6.95032e-10
-2.63437e-09
6.4806e-10
-2.67541e-09
6.21118e-10
-2.67104e-09
5.71795e-10
-2.68417e-09
5.16775e-10
-2.68802e-09
4.66937e-10
-2.66746e-09
3.28049e-10
-2.64698e-09
2.85515e-10
-2.64133e-09
2.58719e-10
-2.6603e-09
1.71537e-10
-2.6158e-09
1.01619e-10
-2.61433e-09
7.65941e-11
-2.61352e-09
1.54992e-11
-2.61624e-09
-2.99211e-11
-2.60643e-09
-1.09169e-10
-2.59543e-09
-1.77432e-10
-2.59011e-09
-2.34594e-10
-2.53613e-09
-3.56603e-10
-2.51772e-09
-3.73938e-10
-2.51192e-09
-4.39614e-10
-2.50117e-09
-5.30983e-10
-2.48674e-09
-6.01114e-10
-2.45234e-09
-6.90824e-10
-2.41764e-09
-7.5302e-10
-2.41353e-09
-7.28153e-10
-2.39132e-09
-7.79592e-10
-2.34922e-09
-8.54121e-10
-2.29303e-09
-8.81662e-10
-2.27008e-09
-8.82841e-10
-2.27065e-09
-9.00328e-10
-2.27523e-09
-9.01157e-10
-2.27187e-09
-9.48689e-10
-2.31027e-09
-1.01724e-09
-2.21609e-09
-1.13746e-09
-2.20459e-09
-1.15946e-09
-2.16579e-09
-1.19446e-09
-2.1555e-09
-1.27374e-09
-2.0824e-09
-1.22906e-09
-2.0307e-09
-1.26051e-09
-2.0038e-09
-1.1379e-09
-1.91055e-09
-1.22133e-09
-1.81095e-09
-1.25871e-09
-1.71873e-09
-1.24207e-09
-1.57886e-09
-1.41307e-09
-1.43492e-09
-1.51021e-09
-1.31852e-09
-1.55937e-09
-1.12729e-09
-1.55914e-09
-8.92674e-10
-1.55869e-09
-5.99782e-10
-1.35522e-09
-3.71407e-10
-9.49511e-10
-2.01845e-10
-7.44943e-10
-9.92062e-11
-5.32299e-10
-2.35e-11
-3.66879e-10
7.02336e-11
-1.9808e-10
1.5716e-10
-3.14945e-11
2.5362e-10
1.27633e-10
3.46354e-10
3.62941e-10
4.00399e-10
5.90332e-10
4.697e-10
9.12275e-10
5.49819e-10
8.78168e-10
4.01355e-10
1.38535e-09
6.96146e-16
9.68086e-10
1.72015e-18
-1.73348e-18
2.19203e-18
-1.92116e-18
2.59165e-18
-2.01345e-18
2.92519e-18
-1.91828e-18
3.21661e-18
-1.79291e-18
3.48281e-18
-1.67308e-18
3.73056e-18
-1.55554e-18
3.96044e-18
-1.43068e-18
4.17009e-18
-1.29097e-18
4.35591e-18
-1.1323e-18
4.5141e-18
-9.53604e-19
4.64118e-18
-7.56236e-19
4.73446e-18
-5.43309e-19
4.79221e-18
-3.19066e-19
4.81376e-18
-8.83263e-20
4.79946e-18
1.43996e-19
4.75062e-18
3.73261e-19
4.66926e-18
5.95372e-19
4.55794e-18
8.06937e-19
4.4196e-18
1.00535e-18
4.25731e-18
1.18879e-18
4.07414e-18
1.35617e-18
3.87309e-18
1.50703e-18
3.65693e-18
1.64148e-18
3.42821e-18
1.76003e-18
3.18918e-18
1.86349e-18
2.94184e-18
1.95292e-18
2.68787e-18
2.02946e-18
2.42871e-18
2.09434e-18
2.16553e-18
2.14878e-18
1.89932e-18
2.19395e-18
1.63086e-18
2.23094e-18
1.36076e-18
2.26074e-18
1.0895e-18
2.28421e-18
8.17462e-19
2.3021e-18
5.44913e-19
2.31499e-18
2.72068e-19
2.32335e-18
2.32747e-18
-7.1537e-11
1.0459e-09
-2.94669e-10
1.06005e-09
-8.30676e-10
1.20971e-09
-1.50657e-09
1.7249e-09
-1.65208e-09
2.02978e-09
-1.63744e-09
2.1626e-09
-1.66903e-09
2.21613e-09
-1.70042e-09
2.11728e-09
-1.66285e-09
1.93134e-09
-1.73493e-09
1.87744e-09
-1.8115e-09
1.70274e-09
-1.99268e-09
1.48359e-09
-1.97724e-09
1.19452e-09
-2.00372e-09
1.252e-09
-2.04649e-09
1.17416e-09
-2.25251e-09
9.1899e-10
-2.25556e-09
8.92122e-10
-2.22841e-09
8.8493e-10
-2.25803e-09
7.73983e-10
-2.27275e-09
7.22803e-10
-2.24305e-09
6.65333e-10
-2.26561e-09
6.70622e-10
-2.27662e-09
6.32125e-10
-2.26231e-09
5.5749e-10
-2.26222e-09
5.16687e-10
-2.2562e-09
4.60915e-10
-2.26096e-09
3.32806e-10
-2.23105e-09
2.55601e-10
-2.21069e-09
2.38357e-10
-2.21885e-09
1.79702e-10
-2.2283e-09
1.11071e-10
-2.23505e-09
8.33384e-11
-2.23495e-09
1.53946e-11
-2.24582e-09
-1.90436e-11
-2.25003e-09
-1.04962e-10
-2.24799e-09
-1.79475e-10
-2.26764e-09
-2.14944e-10
-2.21916e-09
-4.05081e-10
-2.17154e-09
-4.21563e-10
-2.15045e-09
-4.60702e-10
-2.1192e-09
-5.62237e-10
-2.09781e-09
-6.22501e-10
-2.0897e-09
-6.98939e-10
-2.0924e-09
-7.50322e-10
-2.02606e-09
-7.9449e-10
-1.97497e-09
-8.3068e-10
-1.9583e-09
-8.70792e-10
-1.95219e-09
-8.87782e-10
-1.94966e-09
-8.85371e-10
-1.94491e-09
-9.0507e-10
-1.92128e-09
-9.24791e-10
-1.92672e-09
-9.43249e-10
-1.9289e-09
-1.01507e-09
-1.94259e-09
-1.12378e-09
-1.9422e-09
-1.15985e-09
-1.86692e-09
-1.26974e-09
-1.83345e-09
-1.30722e-09
-1.75166e-09
-1.31085e-09
-1.69576e-09
-1.31641e-09
-1.54509e-09
-1.28857e-09
-1.50613e-09
-1.2603e-09
-1.47917e-09
-1.28567e-09
-1.43731e-09
-1.28394e-09
-1.43488e-09
-1.4155e-09
-1.41734e-09
-1.52775e-09
-1.35124e-09
-1.62547e-09
-1.22461e-09
-1.68577e-09
-1.11424e-09
-1.66905e-09
-8.61105e-10
-1.60836e-09
-5.58161e-10
-1.25246e-09
-3.16853e-10
-9.86252e-10
-1.88063e-10
-6.6109e-10
-1.21631e-10
-4.33311e-10
-6.48041e-11
-2.54909e-10
1.78462e-11
-1.14146e-10
1.01161e-10
4.43165e-11
1.40154e-10
3.23947e-10
1.89884e-10
5.40599e-10
2.48827e-10
8.53331e-10
2.95297e-10
8.31696e-10
2.65244e-10
1.4154e-09
6.95788e-16
1.23333e-09
1.20889e-18
-1.95002e-18
2.10015e-18
-2.81325e-18
2.68723e-18
-2.60227e-18
3.05065e-18
-2.28313e-18
3.33644e-18
-2.07978e-18
3.60035e-18
-1.93765e-18
3.85542e-18
-1.81084e-18
4.10015e-18
-1.67518e-18
4.32876e-18
-1.51889e-18
4.53461e-18
-1.33701e-18
4.71147e-18
-1.12892e-18
4.85411e-18
-8.97007e-19
4.95871e-18
-6.45762e-19
5.02295e-18
-3.80973e-19
5.04608e-18
-1.09e-19
5.02873e-18
1.63841e-19
4.97273e-18
4.3174e-19
4.88082e-18
6.89709e-19
4.75636e-18
9.33752e-19
4.60304e-18
1.16093e-18
4.42468e-18
1.3693e-18
4.22501e-18
1.55785e-18
4.00754e-18
1.72636e-18
3.77547e-18
1.87519e-18