/*--------------------------------*- C++ -*----------------------------------*\
  =========                 |
  \\      /  F ield         | OpenFOAM: The Open Source CFD Toolbox
   \\    /   O peration     | Website:  https://openfoam.org
    \\  /    A nd           | Version:  6
     \\/     M anipulation  |
\*---------------------------------------------------------------------------*/
FoamFile
{
    version     2.0;
    format      ascii;
    class       volScalarField;
    location    "3000";
    object      T;
}
// * * * * * * * * * * * * * * * * * * * * * * * * * * * * * * * * * * * * * //

dimensions      [0 0 0 1 0 0 0];

internalField   nonuniform List<scalar> 
4800
(
552.476
552.329
552.182
552.036
551.892
551.75
551.611
551.476
551.345
551.221
551.104
550.996
550.895
550.803
550.718
550.64
550.567
550.498
550.434
550.373
550.315
550.259
550.205
550.153
550.102
550.052
550.003
549.954
549.906
549.858
549.809
549.761
549.711
549.661
549.611
549.559
549.507
549.453
549.399
549.343
549.286
549.228
549.169
549.108
549.046
548.982
548.917
548.85
548.781
548.711
548.639
548.565
548.489
548.412
548.332
548.25
548.167
548.081
547.992
547.901
547.807
547.71
547.611
547.509
547.403
547.295
547.183
547.068
546.948
546.825
546.696
546.563
546.424
546.279
546.128
545.969
545.803
545.629
545.445
545.248
545.03
544.768
544.741
544.67
544.579
544.479
544.373
544.263
544.152
544.039
543.925
543.811
543.697
543.582
543.467
543.352
543.238
543.123
543.008
542.893
542.779
542.664
542.55
542.435
542.321
542.206
542.092
541.977
541.863
541.749
541.635
541.52
541.406
541.292
541.178
541.064
540.949
540.835
540.721
540.607
552.476
552.328
552.18
552.034
551.889
551.747
551.607
551.472
551.341
551.217
551.101
550.993
550.894
550.802
550.718
550.639
550.567
550.499
550.435
550.374
550.316
550.261
550.208
550.156
550.106
550.056
550.008
549.96
549.912
549.864
549.816
549.767
549.718
549.668
549.618
549.566
549.514
549.461
549.407
549.351
549.295
549.236
549.177
549.116
549.054
548.99
548.924
548.857
548.788
548.717
548.644
548.57
548.494
548.415
548.335
548.253
548.169
548.083
547.994
547.902
547.808
547.711
547.611
547.509
547.404
547.295
547.183
547.068
546.948
546.825
546.696
546.563
546.424
546.28
546.129
545.972
545.807
545.635
545.455
545.268
545.077
544.9
544.792
544.694
544.592
544.487
544.378
544.267
544.154
544.041
543.927
543.812
543.697
543.583
543.468
543.353
543.238
543.123
543.008
542.894
542.779
542.664
542.55
542.435
542.321
542.206
542.092
541.977
541.863
541.749
541.635
541.52
541.406
541.292
541.178
541.064
540.949
540.835
540.721
540.607
552.475
552.326
552.178
552.031
551.885
551.742
551.602
551.466
551.336
551.213
551.098
550.992
550.893
550.802
550.718
550.641
550.569
550.502
550.439
550.379
550.322
550.268
550.215
550.165
550.115
550.067
550.019
549.971
549.924
549.877
549.829
549.781
549.732
549.683
549.633
549.582
549.53
549.477
549.423
549.368
549.312
549.254
549.195
549.134
549.071
549.006
548.94
548.873
548.803
548.731
548.657
548.582
548.504
548.425
548.344
548.261
548.176
548.088
547.998
547.906
547.811
547.714
547.614
547.511
547.405
547.297
547.185
547.069
546.95
546.826
546.698
546.565
546.426
546.282
546.132
545.976
545.814
545.646
545.472
545.297
545.125
544.97
544.841
544.724
544.611
544.499
544.386
544.273
544.159
544.044
543.929
543.814
543.699
543.584
543.469
543.353
543.238
543.123
543.009
542.894
542.779
542.664
542.55
542.435
542.321
542.206
542.092
541.977
541.863
541.749
541.635
541.52
541.406
541.292
541.178
541.064
540.949
540.835
540.721
540.607
552.475
552.324
552.175
552.028
551.881
551.737
551.596
551.46
551.331
551.21
551.097
550.992
550.895
550.805
550.723
550.646
550.575
550.509
550.447
550.389
550.333
550.28
550.229
550.179
550.131
550.083
550.036
549.99
549.943
549.897
549.85
549.803
549.755
549.706
549.657
549.607
549.556
549.504
549.451
549.396
549.34
549.282
549.223
549.162
549.099
549.034
548.967
548.899
548.828
548.755
548.68
548.603
548.524
548.444
548.361
548.276
548.19
548.1
548.009
547.915
547.819
547.72
547.619
547.516
547.41
547.301
547.188
547.072
546.952
546.828
546.7
546.567
546.429
546.285
546.137
545.983
545.823
545.66
545.493
545.327
545.166
545.016
544.88
544.753
544.632
544.514
544.397
544.281
544.165
544.048
543.932
543.817
543.701
543.585
543.47
543.354
543.239
543.124
543.009
542.894
542.779
542.664
542.55
542.435
542.321
542.206
542.092
541.977
541.863
541.749
541.635
541.52
541.406
541.292
541.178
541.064
540.949
540.835
540.721
540.607
552.474
552.322
552.172
552.023
551.876
551.732
551.591
551.456
551.328
551.209
551.098
550.995
550.9
550.812
550.732
550.657
550.587
550.523
550.462
550.405
550.351
550.299
550.249
550.2
550.153
550.107
550.061
550.015
549.97
549.925
549.879
549.833
549.786
549.739
549.691
549.642
549.592
549.541
549.489
549.435
549.38
549.322
549.264
549.203
549.14
549.074
549.007
548.937
548.865
548.791
548.714
548.636
548.556
548.473
548.389
548.302
548.213
548.122
548.028
547.932
547.834
547.733
547.63
547.525
547.418
547.308
547.194
547.077
546.957
546.832
546.703
546.569
546.431
546.289
546.141
545.99
545.834
545.675
545.514
545.354
545.198
545.051
544.911
544.779
544.652
544.53
544.409
544.29
544.171
544.054
543.936
543.82
543.703
543.587
543.471
543.355
543.24
543.125
543.009
542.894
542.779
542.665
542.55
542.435
542.321
542.206
542.092
541.977
541.863
541.749
541.634
541.52
541.406
541.292
541.178
541.064
540.949
540.835
540.721
540.607
552.473
552.32
552.168
552.019
551.871
551.727
551.587
551.454
551.329
551.212
551.103
551.003
550.91
550.825
550.746
550.673
550.605
550.542
550.483
550.427
550.374
550.323
550.274
550.227
550.181
550.136
550.092
550.048
550.004
549.96
549.916
549.871
549.826
549.78
549.734
549.686
549.638
549.588
549.537
549.485
549.43
549.374
549.316
549.255
549.192
549.126
549.058
548.988
548.915
548.839
548.762
548.682
548.6
548.515
548.429
548.34
548.249
548.154
548.058
547.959
547.858
547.755
547.65
547.542
547.432
547.32
547.205
547.086
546.964
546.838
546.707
546.573
546.435
546.292
546.146
545.996
545.843
545.688
545.532
545.377
545.225
545.078
544.936
544.8
544.67
544.544
544.42
544.299
544.178
544.059
543.941
543.823
543.706
543.589
543.473
543.357
543.241
543.125
543.01
542.895
542.78
542.665
542.55
542.435
542.321
542.206
542.092
541.977
541.863
541.749
541.634
541.52
541.406
541.292
541.178
541.064
540.949
540.835
540.721
540.607
552.473
552.319
552.166
552.016
551.867
551.723
551.585
551.455
551.332
551.218
551.112
551.015
550.925
550.841
550.765
550.694
550.628
550.566
550.509
550.454
550.403
550.354
550.306
550.261
550.216
550.173
550.13
550.087
550.045
550.003
549.96
549.918
549.874
549.83
549.786
549.74
549.693
549.645
549.596
549.545
549.491
549.436
549.379
549.318
549.255
549.19
549.122
549.051
548.977
548.901
548.822
548.74
548.657
548.571
548.482
548.39
548.297
548.2
548.1
547.999
547.895
547.788
547.68
547.569
547.456
547.34
547.222
547.1
546.975
546.847
546.715
546.579
546.44
546.297
546.151
546.003
545.852
545.7
545.547
545.395
545.245
545.098
544.955
544.818
544.686
544.557
544.431
544.307
544.185
544.064
543.945
543.826
543.708
543.591
543.474
543.358
543.242
543.126
543.011
542.895
542.78
542.665
542.55
542.435
542.321
542.206
542.092
541.977
541.863
541.749
541.634
541.52
541.406
541.292
541.178
541.063
540.949
540.835
540.721
540.607
552.473
552.318
552.165
552.014
551.866
551.723
551.587
551.46
551.34
551.229
551.126
551.031
550.944
550.863
550.788
550.72
550.656
550.596
550.54
550.487
550.437
550.389
550.344
550.3
550.257
550.215
550.174
550.133
550.093
550.053
550.012
549.971
549.93
549.888
549.845
549.802
549.757
549.711
549.663
549.613
549.562
549.508
549.451
549.392
549.33
549.264
549.196
549.125
549.051
548.974
548.894
548.811
548.726
548.638
548.548
548.454
548.358
548.258
548.156
548.051
547.944
547.834
547.722
547.607
547.49
547.369
547.247
547.121
546.992
546.861
546.726
546.588
546.447
546.303
546.157
546.009
545.86
545.709
545.559
545.409
545.26
545.113
544.97
544.832
544.698
544.568
544.44
544.315
544.191
544.069
543.949
543.829
543.711
543.593
543.476
543.359
543.243
543.127
543.011
542.896
542.78
542.665
542.55
542.436
542.321
542.206
542.092
541.977
541.863
541.749
541.634
541.52
541.406
541.292
541.178
541.063
540.949
540.835
540.721
540.607
552.473
552.318
552.164
552.014
551.867
551.727
551.594
551.469
551.353
551.245
551.144
551.052
550.967
550.889
550.817
550.75
550.688
550.63
550.576
550.525
550.476
550.43
550.386
550.344
550.303
550.263
550.224
550.185
550.146
550.108
550.069
550.031
549.991
549.951
549.911
549.869
549.827
549.783
549.737
549.689
549.639
549.587
549.532
549.474
549.412
549.348
549.28
549.209
549.135
549.058
548.977
548.893
548.807
548.717
548.625
548.53
548.431
548.329
548.225
548.117
548.007
547.893
547.777
547.657
547.535
547.409
547.28
547.149
547.016
546.88
546.741
546.6
546.456
546.311
546.163
546.015
545.866
545.717
545.568
545.419
545.271
545.124
544.981
544.842
544.707
544.576
544.447
544.321
544.196
544.073
543.952
543.832
543.713
543.595
543.477
543.36
543.244
543.128
543.012
542.896
542.781
542.666
542.551
542.436
542.321
542.206
542.092
541.977
541.863
541.748
541.634
541.52
541.406
541.292
541.177
541.063
540.949
540.835
540.721
540.607
552.473
552.32
552.167
552.017
551.872
551.734
551.604
551.483
551.369
551.264
551.167
551.078
550.996
550.92
550.85
550.785
550.725
550.669
550.616
550.567
550.52
550.476
550.433
550.393
550.353
550.315
550.278
550.241
550.204
550.168
550.131
550.094
550.057
550.019
549.981
549.942
549.902
549.86
549.816
549.771
549.723
549.672
549.619
549.562
549.502
549.439
549.372
549.301
549.227
549.149
549.068
548.984
548.897
548.806
548.712
548.616
548.515
548.412
548.305
548.195
548.081
547.964
547.843
547.719
547.591
547.459
547.324
547.186
547.046
546.905
546.761
546.616
546.469
546.32
546.171
546.021
545.871
545.722
545.573
545.425
545.277
545.13
544.985
544.847
544.713
544.582
544.452
544.325
544.2
544.077
543.955
543.834
543.715
543.596
543.479
543.361
543.245
543.128
543.012
542.897
542.781
542.666
542.551
542.436
542.321
542.206
542.092
541.977
541.863
541.748
541.634
541.52
541.406
541.292
541.177
541.063
540.949
540.835
540.721
540.607
552.474
552.323
552.173
552.025
551.883
551.747
551.62
551.501
551.391
551.289
551.194
551.108
551.028
550.954
550.887
550.824
550.766
550.711
550.661
550.613
550.568
550.525
550.485
550.445
550.408
550.371
550.336
550.3
550.266
550.231
550.196
550.161
550.126
550.091
550.055
550.018
549.98
549.941
549.9
549.856
549.81
549.762
549.71
549.656
549.597
549.535
549.469
549.399
549.325
549.248
549.166
549.082
548.994
548.902
548.807
548.709
548.607
548.502
548.393
548.281
548.165
548.044
547.92
547.79
547.656
547.518
547.376
547.231
547.084
546.936
546.786
546.635
546.484
546.332
546.179
546.027
545.876
545.726
545.576
545.427
545.279
545.13
544.982
544.848
544.715
544.585
544.455
544.328
544.202
544.079
543.957
543.836
543.716
543.598
543.48
543.362
543.245
543.129
543.013
542.897
542.781
542.666
542.551
542.436
542.321
542.206
542.092
541.977
541.863
541.748
541.634
541.52
541.406
541.291
541.177
541.063
540.949
540.835
540.721
540.607
552.475
552.327
552.179
552.035
551.896
551.764
551.64
551.524
551.416
551.317
551.226
551.142
551.065
550.994
550.928
550.868
550.811
550.759
550.71
550.664
550.62
550.579
550.539
550.502
550.466
550.431
550.396
550.363
550.33
550.297
550.264
550.231
550.198
550.165
550.131
550.096
550.061
550.024
549.985
549.944
549.9
549.854
549.804
549.751
549.694
549.633
549.568
549.499
549.426
549.349
549.268
549.183
549.095
549.002
548.907
548.807
548.704
548.597
548.487
548.372
548.254
548.131
548.003
547.869
547.729
547.585
547.437
547.284
547.13
546.973
546.816
546.659
546.502
546.345
546.188
546.033
545.88
545.728
545.577
545.427
545.278
545.125
544.96
544.843
544.715
544.585
544.456
544.328
544.203
544.079
543.957
543.837
543.717
543.598
543.48
543.363
543.246
543.129
543.013
542.897
542.782
542.666
542.551
542.436
542.321
542.206
542.092
541.977
541.863
541.748
541.634
541.52
541.405
541.291
541.177
541.063
540.949
540.835
540.721
540.607
552.477
552.331
552.187
552.047
551.912
551.784
551.664
551.551
551.447
551.351
551.263
551.182
551.107
551.038
550.975
550.916
550.861
550.811
550.763
550.719
550.676
550.637
550.599
550.562
550.527
550.494
550.461
550.429
550.397
550.365
550.334
550.303
550.272
550.241
550.209
550.176
550.143
550.108
550.071
550.031
549.99
549.945
549.898
549.846
549.791
549.732
549.668
549.6
549.527
549.45
549.37
549.285
549.196
549.104
549.008
548.908
548.803
548.695
548.583
548.467
548.347
548.221
548.089
547.951
547.807
547.657
547.502
547.343
547.181
547.016
546.851
546.686
546.522
546.359
546.198
546.039
545.882
545.728
545.576
545.426
545.277
545.128
544.98
544.846
544.713
544.583
544.454
544.327
544.202
544.078
543.957
543.836
543.717
543.598
543.48
543.363
543.246
543.13
543.013
542.898
542.782
542.666
542.551
542.436
542.321
542.206
542.091
541.977
541.862
541.748
541.634
541.52
541.405
541.291
541.177
541.063
540.949
540.835
540.721
540.607
552.479
552.339
552.2
552.064
551.934
551.81
551.693
551.584
551.483
551.391
551.305
551.227
551.155
551.089
551.027
550.971
550.918
550.869
550.822
550.779
550.738
550.7
550.663
550.627
550.593
550.56
550.529
550.498
550.467
550.437
550.407
550.377
550.347
550.317
550.287
550.256
550.224
550.191
550.156
550.118
550.078
550.035
549.989
549.939
549.885
549.827
549.764
549.697
549.625
549.549
549.469
549.384
549.295
549.203
549.107
549.006
548.901
548.792
548.679
548.562
548.44
548.312
548.177
548.035
547.886
547.731
547.571
547.406
547.236
547.064
546.889
546.715
546.543
546.373
546.207
546.043
545.882
545.726
545.573
545.422
545.274
545.127
544.982
544.843
544.709
544.577
544.449
544.323
544.199
544.076
543.955
543.835
543.716
543.598
543.48
543.363
543.246
543.13
543.014
542.898
542.782
542.666
542.551
542.436
542.321
542.206
542.091
541.977
541.862
541.748
541.634
541.519
541.405
541.291
541.177
541.063
540.949
540.835
540.721
540.607
552.482
552.347
552.214
552.084
551.958
551.839
551.727
551.622
551.526
551.436
551.354
551.279
551.21
551.147
551.088
551.033
550.982
550.934
550.889
550.847
550.807
550.769
550.733
550.698
550.665
550.633
550.601
550.571
550.541
550.511
550.482
550.453
550.424
550.395
550.366
550.336
550.305
550.272
550.238
550.201
550.162
550.12
550.075
550.026
549.973
549.916
549.854
549.788
549.717
549.641
549.561
549.477
549.389
549.296
549.2
549.099
548.994
548.884
548.771
548.654
548.53
548.4
548.263
548.118
547.965
547.805
547.639
547.469
547.293
547.113
546.93
546.746
546.565
546.387
546.214
546.045
545.881
545.722
545.567
545.415
545.267
545.119
544.974
544.834
544.699
544.568
544.441
544.316
544.194
544.072
543.952
543.833
543.715
543.597
543.48
543.363
543.246
543.13
543.014
542.898
542.782
542.666
542.551
542.436
542.321
542.206
542.091
541.977
541.862
541.748
541.634
541.519
541.405
541.291
541.177
541.063
540.949
540.835
540.721
540.607
552.485
552.357
552.23
552.107
551.988
551.874
551.768
551.668
551.576
551.491
551.413
551.341
551.275
551.214
551.158
551.105
551.056
551.01
550.966
550.925
550.886
550.848
550.813
550.778
550.745
550.712
550.681
550.65
550.62
550.59
550.561
550.532
550.503
550.474
550.445
550.414
550.383
550.35
550.316
550.279
550.241
550.199
550.154
550.105
550.052
549.995
549.934
549.868
549.797
549.722
549.643
549.559
549.471
549.379
549.283
549.182
549.077
548.968
548.855
548.737
548.613
548.483
548.343
548.195
548.039
547.874
547.704
547.529
547.348
547.161
546.97
546.777
546.587
546.4
546.22
546.045
545.877
545.714
545.556
545.403
545.252
545.104
544.958
544.817
544.683
544.555
544.431
544.308
544.187
544.068
543.949
543.831
543.713
543.596
543.479
543.362
543.246
543.129
543.013
542.898
542.782
542.666
542.551
542.436
542.321
542.206
542.091
541.977
541.862
541.748
541.633
541.519
541.405
541.291
541.177
541.063
540.949
540.835
540.721
540.607
552.489
552.368
552.25
552.134
552.022
551.916
551.815
551.722
551.635
551.555
551.482
551.414
551.352
551.295
551.241
551.191
551.143
551.098
551.056
551.016
550.977
550.94
550.904
550.869
550.836
550.802
550.77
550.738
550.707
550.676
550.645
550.615
550.585
550.555
550.524
550.493
550.46
550.426
550.39
550.352
550.312
550.268
550.222
550.171
550.118
550.06
549.998
549.932
549.862
549.787
549.708
549.625
549.538
549.446
549.35
549.251
549.146
549.038
548.926
548.809
548.686
548.555
548.414
548.264
548.103
547.935
547.762
547.583
547.398
547.205
547.007
546.806
546.606
546.412
546.225
546.045
545.872
545.705
545.543
545.385
545.231
545.081
544.934
544.792
544.662
544.538
544.418
544.299
544.18
544.062
543.945
543.827
543.71
543.594
543.477
543.361
543.245
543.129
543.013
542.897
542.782
542.666
542.551
542.436
542.321
542.206
542.091
541.977
541.862
541.748
541.633
541.519
541.405
541.291
541.177
541.063
540.949
540.835
540.721
540.607
552.494
552.382
552.272
552.166
552.062
551.964
551.871
551.785
551.705
551.631
551.564
551.501
551.444
551.391
551.34
551.293
551.247
551.204
551.164
551.124
551.086
551.049
551.013
550.977
550.942
550.908
550.873
550.84
550.806
550.773
550.74
550.707
550.674
550.641
550.608
550.573
550.537
550.5
550.46
550.419
550.375
550.328
550.278
550.225
550.169
550.109
550.045
549.978
549.907
549.832
549.753
549.67
549.583
549.492
549.397
549.298
549.195
549.088
548.978
548.862
548.74
548.609
548.467
548.315
548.152
547.981
547.805
547.624
547.436
547.24
547.037
546.829
546.624
546.424
546.231
546.046
545.869
545.697
545.532
545.37
545.211
545.054
544.901
544.756
544.634
544.518
544.404
544.289
544.173
544.057
543.94
543.824
543.708
543.592
543.476
543.36
543.244
543.128
543.013
542.897
542.782
542.666
542.551
542.436
542.321
542.206
542.091
541.977
541.862
541.748
541.633
541.519
541.405
541.291
541.177
541.063
540.949
540.835
540.721
540.607
552.499
552.398
552.3
552.203
552.11
552.021
551.937
551.859
551.787
551.721
551.66
551.604
551.553
551.504
551.459
551.414
551.372
551.332
551.293
551.255
551.218
551.18
551.144
551.107
551.07
551.034
550.997
550.96
550.923
550.886
550.849
550.813
550.776
550.738
550.699
550.66
550.618
550.575
550.53
550.483
550.433
550.381
550.325
550.267
550.205
550.141
550.074
550.003
549.929
549.852
549.772
549.689
549.602
549.511
549.416
549.318
549.216
549.111
549.002
548.888
548.767
548.637
548.495
548.342
548.177
548.004
547.826
547.644
547.456
547.259
547.054
546.845
546.637
546.433
546.236
546.048
545.867
545.692
545.523
545.357
545.193
545.026
544.857
544.697
544.598
544.497
544.391
544.28
544.166
544.051
543.936
543.821
543.705
543.59
543.474
543.359
543.243
543.128
543.012
542.897
542.781
542.666
542.551
542.436
542.321
542.206
542.091
541.976
541.862
541.748
541.633
541.519
541.405
541.291
541.177
541.063
540.949
540.835
540.721
540.607
552.506
552.417
552.331
552.246
552.165
552.087
552.014
551.946
551.884
551.826
551.774
551.725
551.681
551.639
551.599
551.56
551.522
551.485
551.449
551.413
551.377
551.34
551.303
551.265
551.227
551.188
551.148
551.108
551.067
551.025
550.983
550.941
550.898
550.854
550.809
550.762
550.713
550.662
550.608
550.552
550.494
550.432
550.368
550.301
550.231
550.159
550.085
550.008
549.929
549.848
549.765
549.679
549.591
549.499
549.404
549.306
549.205
549.1
548.992
548.88
548.762
548.634
548.494
548.341
548.174
547.998
547.818
547.636
547.45
547.256
547.054
546.847
546.64
546.436
546.239
546.049
545.867
545.692
545.521
545.353
545.183
545.006
544.802
544.574
544.561
544.482
544.382
544.273
544.161
544.047
543.933
543.818
543.703
543.588
543.472
543.357
543.242
543.127
543.012
542.896
542.781
542.666
542.551
542.436
542.321
542.206
542.091
541.976
541.862
541.748
541.633
541.519
541.405
541.291
541.177
541.063
540.949
540.835
540.721
540.607
552.513
552.438
552.365
552.294
552.226
552.161
552.101
552.044
551.993
551.946
551.904
551.865
551.829
551.795
551.763
551.731
551.699
551.668
551.636
551.603
551.569
551.534
551.498
551.46
551.421
551.38
551.337
551.293
551.248
551.201
551.153
551.105
551.055
551.003
550.949
550.893
550.835
550.773
550.709
550.641
550.57
550.496
550.419
550.339
550.256
550.172
550.086
549.998
549.91
549.821
549.731
549.64
549.548
549.454
549.356
549.256
549.153
549.047
548.939
548.827
548.712
548.588
548.452
548.301
548.133
547.953
547.77
547.59
547.408
547.222
547.027
546.827
546.625
546.425
546.232
546.045
545.865
545.692
545.523
545.357
545.19
545.02
544.847
544.688
544.588
544.487
544.381
544.271
544.158
544.045
543.93
543.816
543.701
543.586
543.471
543.356
543.241
543.126
543.011
542.896
542.781
542.666
542.551
542.436
542.321
542.206
542.091
541.976
541.862
541.747
541.633
541.519
541.405
541.291
541.177
541.063
540.949
540.835
540.721
540.607
552.52
552.459
552.401
552.344
552.291
552.24
552.194
552.151
552.113
552.079
552.048
552.021
551.996
551.972
551.949
551.926
551.903
551.879
551.853
551.825
551.797
551.766
551.732
551.696
551.658
551.617
551.573
551.526
551.477
551.427
551.374
551.319
551.262
551.203
551.14
551.074
551.005
550.931
550.854
550.771
550.685
550.594
550.499
550.4
550.299
550.196
550.092
549.987
549.883
549.78
549.678
549.577
549.477
549.376
549.273
549.167
549.06
548.95
548.838
548.725
548.612
548.494
548.364
548.216
548.05
547.866
547.678
547.499
547.325
547.149
546.965
546.775
546.582
546.391
546.204
546.024
545.852
545.685
545.522
545.362
545.202
545.042
544.884
544.737
544.611
544.495
544.383
544.27
544.157
544.043
543.929
543.814
543.699
543.584
543.47
543.355
543.24
543.125
543.01
542.895
542.78
542.665
542.55
542.435
542.321
542.206
542.091
541.976
541.862
541.747
541.633
541.519
541.405
541.291
541.177
541.063
540.949
540.835
540.721
540.607
552.526
552.479
552.433
552.391
552.352
552.317
552.285
552.258
552.234
552.215
552.198
552.184
552.172
552.161
552.15
552.139
552.127
552.112
552.096
552.077
552.056
552.033
552.006
551.976
551.941
551.903
551.861
551.816
551.767
551.715
551.66
551.602
551.541
551.475
551.406
551.331
551.251
551.166
551.074
550.976
550.871
550.759
550.642
550.519
550.392
550.263
550.132
550.001
549.872
549.746
549.624
549.506
549.391
549.278
549.164
549.049
548.931
548.812
548.692
548.575
548.46
548.345
548.22
548.078
547.914
547.724
547.531
547.353
547.19
547.027
546.857
546.68
546.499
546.318
546.142
545.973
545.81
545.654
545.502
545.352
545.202
545.05
544.898
544.751
544.615
544.494
544.381
544.269
544.157
544.043
543.929
543.813
543.698
543.583
543.468
543.354
543.239
543.124
543.01
542.895
542.78
542.665
542.55
542.435
542.32
542.206
542.091
541.976
541.862
541.747
541.633
541.519
541.405
541.291
541.177
541.063
540.949
540.835
540.721
540.607
552.53
552.492
552.456
552.425
552.399
552.377
552.361
552.349
552.342
552.338
552.336
552.338
552.341
552.344
552.348
552.351
552.353
552.352
552.349
552.343
552.335
552.324
552.309
552.29
552.266
552.237
552.203
552.165
552.122
552.075
552.025
551.969
551.909
551.843
551.771
551.693
551.607
551.514
551.41
551.297
551.173
551.039
550.896
550.743
550.584
550.42
550.253
550.086
549.92
549.759
549.606
549.462
549.324
549.19
549.056
548.922
548.786
548.65
548.514
548.385
548.262
548.142
548.017
547.875
547.709
547.514
547.314
547.139
546.988
546.839
546.684
546.522
546.354
546.187
546.025
545.87
545.723
545.583
545.445
545.308
545.169
545.028
544.881
544.733
544.589
544.477
544.372
544.266
544.156
544.043
543.929
543.813
543.698
543.582
543.467
543.353
543.238
543.123
543.009
542.894
542.78
542.665
542.55
542.435
542.32
542.206
542.091
541.976
541.862
541.747
541.633
541.519
541.405
541.291
541.177
541.063
540.949
540.835
540.721
540.607
552.53
552.492
552.458
552.432
552.413
552.402
552.399
552.402
552.41
552.422
552.437
552.455
552.474
552.494
552.515
552.535
552.553
552.57
552.584
552.597
552.607
552.614
552.618
552.618
552.612
552.601
552.585
552.563
552.537
552.505
552.469
552.426
552.377
552.322
552.258
552.186
552.104
552.01
551.904
551.782
551.644
551.491
551.323
551.139
550.942
550.737
550.526
550.311
550.095
549.885
549.688
549.506
549.334
549.165
549
548.835
548.669
548.502
548.336
548.179
548.033
547.892
547.751
547.598
547.423
547.22
547.015
546.841
546.701
546.562
546.422
546.276
546.124
545.972
545.828
545.693
545.567
545.448
545.33
545.21
545.087
544.962
544.823
544.675
544.513
544.437
544.355
544.26
544.155
544.044
543.93
543.814
543.698
543.582
543.467
543.352
543.237
543.123
543.008
542.894
542.779
542.665
542.55
542.435
542.32
542.206
542.091
541.976
541.862
541.748
541.633
541.519
541.405
541.291
541.177
541.063
540.949
540.835
540.721
540.607
552.523
552.471
552.427
552.394
552.373
552.366
552.369
552.382
552.402
552.429
552.46
552.494
552.531
552.569
552.607
552.644
552.682
552.719
552.757
552.793
552.828
552.861
552.892
552.919
552.942
552.961
552.974
552.983
552.986
552.983
552.975
552.96
552.938
552.908
552.869
552.819
552.758
552.682
552.588
552.474
552.338
552.18
551.998
551.788
551.552
551.305
551.048
550.778
550.501
550.229
549.976
549.747
549.527
549.303
549.079
548.861
548.644
548.429
548.213
547.999
547.799
547.61
547.429
547.246
547.047
546.829
546.617
546.445
546.309
546.165
546.047
545.916
545.779
545.647
545.525
545.417
545.321
545.232
545.136
545.031
544.934
544.836
544.71
544.578
544.323
544.382
544.336
544.253
544.153
544.044
543.931
543.815
543.698
543.582
543.466
543.351
543.237
543.122
543.008
542.893
542.779
542.664
542.55
542.435
542.32
542.206
542.091
541.976
541.862
541.748
541.633
541.519
541.405
541.291
541.177
541.063
540.949
540.835
540.721
540.607
552.504
552.417
552.343
552.287
552.251
552.235
552.237
552.253
552.28
552.317
552.361
552.41
552.462
552.515
552.57
552.625
552.681
552.741
552.804
552.87
552.936
553.001
553.065
553.13
553.192
553.253
553.311
553.364
553.412
553.455
553.492
553.522
553.546
553.562
553.571
553.569
553.553
553.52
553.468
553.391
553.288
553.156
552.991
552.774
552.506
552.226
551.935
551.618
551.279
550.938
550.622
550.342
550.064
549.753
549.437
549.132
548.83
548.534
548.229
547.929
547.632
547.35
547.088
546.838
546.59
546.34
546.109
545.934
545.807
545.58
545.548
545.435
545.305
545.195
545.099
545.029
544.975
544.933
544.856
544.725
544.687
544.636
544.594
544.528
544.514
544.41
544.334
544.248
544.151
544.044
543.931
543.816
543.699
543.582
543.466
543.351
543.236
543.121
543.007
542.893
542.778
542.664
542.55
542.435
542.32
542.206
542.091
541.977
541.862
541.748
541.633
541.519
541.405
541.291
541.177
541.063
540.949
540.835
540.721
540.607
552.467
552.31
552.179
552.078
552.009
551.97
551.958
551.966
551.993
552.036
552.09
552.151
552.216
552.284
552.352
552.417
552.487
552.566
552.657
552.754
552.853
552.952
553.055
553.161
553.272
553.386
553.5
553.612
553.719
553.822
553.919
554.013
554.104
554.191
554.275
554.352
554.415
554.461
554.488
554.494
554.473
554.425
554.339
554.167
553.882
553.594
553.305
552.975
552.595
552.199
551.822
551.498
551.152
550.736
550.293
549.876
549.441
549.021
548.573
548.168
547.714
547.268
546.85
546.468
546.113
545.779
545.487
545.281
545.133
544.997
544.874
544.762
544.652
544.573
544.533
544.519
544.513
544.505
544.479
544.457
544.446
544.407
544.446
544.476
544.439
544.378
544.313
544.235
544.144
544.041
543.93
543.816
543.699
543.582
543.466
543.35
543.236
543.121
543.007
542.893
542.778
542.664
542.549
542.435
542.32
542.206
542.091
541.977
541.862
541.748
541.633
541.519
541.405
541.291
541.177
541.063
540.949
540.835
540.721
540.607
552.397
552.119
551.892
551.721
551.602
551.527
551.489
551.481
551.5
551.544
551.607
551.68
551.758
551.836
551.91
551.974
552.043
552.134
552.249
552.375
552.503
552.632
552.767
552.913
553.071
553.24
553.416
553.594
553.769
553.94
554.107
554.276
554.452
554.635
554.822
555.009
555.185
555.35
555.507
555.652
555.775
555.891
555.994
556.016
555.735
555.487
555.256
555.006
554.661
554.267
553.827
553.478
553.07
552.62
552.068
551.553
550.934
550.272
549.526
548.725
548.004
547.313
546.624
546.002
545.462
545.024
544.69
544.481
544.336
544.172
544.055
543.97
543.923
543.928
543.961
544.001
544.015
544.029
544.022
544.015
544.019
544.088
544.155
544.234
544.31
544.31
544.275
544.213
544.132
544.035
543.928
543.815
543.699
543.582
543.466
543.35
543.235
543.121
543.006
542.892
542.778
542.664
542.549
542.435
542.32
542.206
542.091
541.977
541.862
541.748
541.634
541.519
541.405
541.291
541.177
541.063
540.949
540.835
540.721
540.607
552.263
551.767
551.396
551.137
550.964
550.856
550.793
550.767
550.778
550.831
550.909
551
551.096
551.184
551.26
551.3
551.34
551.429
551.556
551.703
551.846
551.985
552.136
552.303
552.495
552.709
552.942
553.186
553.427
553.663
553.895
554.141
554.41
554.707
555.012
555.331
555.642
555.966
556.305
556.645
556.954
557.314
557.747
558.427
558.186
558.116
557.981
558.013
557.88
557.604
557.084
556.667
556.11
555.304
554.58
553.807
552.917
551.856
550.777
549.719
548.66
547.658
546.614
545.662
544.823
544.238
543.773
543.484
543.432
543.39
543.353
543.366
543.361
543.41
543.475
543.564
543.562
543.579
543.532
543.525
543.52
543.694
543.803
544.006
544.153
544.239
544.233
544.189
544.118
544.028
543.925
543.814
543.699
543.582
543.466
543.35
543.235
543.12
543.006
542.892
542.778
542.664
542.549
542.435
542.32
542.206
542.091
541.977
541.862
541.748
541.634
541.519
541.405
541.291
541.177
541.063
540.949
540.835
540.721
540.607
551.979
551.094
550.523
550.193
550.005
549.918
549.863
549.832
549.848
549.956
550.074
550.202
550.339
550.439
550.527
550.513
550.47
550.529
550.64
550.841
551.009
551.123
551.256
551.399
551.594
551.824
552.106
552.411
552.7
552.992
553.274
553.586
553.947
554.366
554.762
555.227
555.683
556.229
556.814
557.369
557.803
558.467
559.08
559.772
560.195
560.755
560.75
560.877
560.943
560.829
560.216
559.807
559.11
558.086
557.152
556.369
555.303
553.783
552.249
550.953
549.425
547.984
546.623
545.559
544.47
543.529
542.733
542.371
542.777
542.867
542.986
543.057
543.133
543.212
543.216
543.287
543.272
543.243
543.036
543.027
543.02
543.193
543.45
543.921
544.026
544.223
544.207
544.169
544.106
544.021
543.921
543.812
543.698
543.582
543.466
543.35
543.235
543.12
543.006
542.892
542.778
542.664
542.549
542.435
542.32
542.206
542.091
541.977
541.863
541.748
541.634