/*--------------------------------*- C++ -*----------------------------------*\
  =========                 |
  \\      /  F ield         | OpenFOAM: The Open Source CFD Toolbox
   \\    /   O peration     | Website:  https://openfoam.org
    \\  /    A nd           | Version:  6
     \\/     M anipulation  |
\*---------------------------------------------------------------------------*/
FoamFile
{
    version     2.0;
    format      ascii;
    class       surfaceScalarField;
    location    "3900";
    object      phi;
}
// * * * * * * * * * * * * * * * * * * * * * * * * * * * * * * * * * * * * * //

dimensions      [0 3 -1 0 0 0 0];

internalField   nonuniform List<scalar> 
9440
(
-3.11119e-14
3.11114e-14
-6.12803e-14
3.11451e-14
-9.13552e-14
3.0857e-14
-1.20895e-13
3.02899e-14
-1.49598e-13
2.94452e-14
-1.772e-13
2.83369e-14
-2.03581e-13
2.71131e-14
-2.28574e-13
2.57195e-14
-2.52043e-13
2.41846e-14
-2.73796e-13
2.24618e-14
-2.93796e-13
2.06988e-14
-3.11901e-13
1.87918e-14
-3.27947e-13
1.67206e-14
-3.42288e-13
1.50002e-14
-3.54952e-13
1.33101e-14
-3.66303e-13
1.1982e-14
-3.7595e-13
1.02612e-14
-3.82382e-13
7.02843e-15
-3.87486e-13
5.68265e-15
-3.91951e-13
5.02287e-15
-3.95602e-13
4.18755e-15
-3.94924e-13
-1.61208e-16
-3.94685e-13
2.56474e-16
-3.93002e-13
-1.20834e-15
-3.89843e-13
-2.7106e-15
-3.8564e-13
-3.77791e-15
-3.80409e-13
-4.8296e-15
-3.74117e-13
-5.91626e-15
-3.66921e-13
-6.84484e-15
-3.5869e-13
-7.90714e-15
-3.49493e-13
-8.90028e-15
-3.39378e-13
-9.84685e-15
-3.2835e-13
-1.07853e-14
-3.16435e-13
-1.17007e-14
-3.03611e-13
-1.26387e-14
-2.89947e-13
-1.35081e-14
-2.75401e-13
-1.44203e-14
-2.60105e-13
-1.51975e-14
-2.44014e-13
-1.60221e-14
-2.27262e-13
-1.67127e-14
-2.09853e-13
-1.74004e-14
-1.91913e-13
-1.79632e-14
-1.73515e-13
-1.84479e-14
-1.54724e-13
-1.88698e-14
-1.3577e-13
-1.90645e-14
-1.16617e-13
-1.92906e-14
-9.75007e-14
-1.92835e-14
-7.85497e-14
-1.91456e-14
-5.99239e-14
-1.88509e-14
-4.16799e-14
-1.84947e-14
-2.40432e-14
-1.79169e-14
-7.09682e-15
-1.72532e-14
8.9846e-15
-1.64149e-14
2.40701e-14
-1.54449e-14
3.80599e-14
-1.4376e-14
5.09409e-14
-1.32894e-14
6.25749e-14
-1.20692e-14
7.29228e-14
-1.08079e-14
8.18943e-14
-9.45461e-15
8.95988e-14
-8.20855e-15
9.59769e-14
-6.90482e-15
1.01073e-13
-5.64297e-15
1.04916e-13
-4.4118e-15
1.07586e-13
-3.25697e-15
1.09158e-13
-2.17768e-15
1.09794e-13
-1.25772e-15
1.09507e-13
-3.5449e-16
1.08461e-13
3.92663e-16
1.06864e-13
9.30399e-16
1.04952e-13
1.23e-15
1.02893e-13
1.36476e-15
1.01119e-13
1.07023e-15
1.00228e-13
1.76568e-16
1.01779e-13
-2.27406e-15
1.09737e-13
-8.68818e-15
1.36478e-13
-2.74788e-14
2.209e-13
-8.51643e-14
9.92625e-14
1.2089e-13
4.64498e-16
9.80489e-14
6.61938e-23
-4.9698e-21
8.91287e-23
-2.1455e-23
1.00554e-22
-1.30798e-23
7.93059e-23
-1.58198e-23
7.96161e-23
-1.70089e-23
9.70386e-23
-1.61817e-23
1.24594e-22
-1.42172e-23
1.5763e-22
-1.15288e-23
1.9232e-22
-8.5303e-24
2.26596e-22
-5.37667e-24
2.59166e-22
-2.06795e-24
2.88893e-22
9.82277e-25
3.15208e-22
3.87741e-24
3.37748e-22
6.56575e-24
3.56411e-22
9.09899e-24
3.71249e-22
1.15288e-23
3.82054e-22
1.35968e-23
3.88982e-22
1.54579e-23
3.92446e-22
1.7164e-23
3.92497e-22
1.85599e-23
3.89447e-22
1.98006e-23
3.83502e-22
2.08346e-23
3.74765e-22
2.16101e-23
3.63753e-22
2.23856e-23
3.50518e-22
2.28509e-23
3.35318e-22
2.32128e-23
3.18568e-22
2.34196e-23
3.00163e-22
2.34713e-23
2.80569e-22
2.3523e-23
2.59838e-22
2.34196e-23
2.38331e-22
2.32128e-23
2.15791e-22
2.30577e-23
1.92785e-22
2.26958e-23
1.69107e-22
2.24373e-23
1.45274e-22
2.21271e-23
1.20975e-22
2.17652e-23
9.64699e-23
2.14033e-23
7.1913e-23
2.09897e-23
4.73561e-23
2.05761e-23
2.31094e-23
2.00074e-23
1.85599e-23
-3.0471e-14
6.25595e-14
-6.15875e-14
6.38216e-14
-9.25036e-14
6.31282e-14
-1.22578e-13
6.16913e-14
-1.51581e-13
5.97616e-14
-1.79484e-13
5.75478e-14
-2.06073e-13
5.49957e-14
-2.31198e-13
5.21224e-14
-2.5467e-13
4.89223e-14
-2.76484e-13
4.55168e-14
-2.96414e-13
4.18547e-14
-3.14409e-13
3.79872e-14
-3.30391e-13
3.38815e-14
-3.44584e-13
3.03447e-14
-3.57148e-13
2.69944e-14
-3.68689e-13
2.46149e-14
-3.77784e-13
2.04173e-14
-3.84118e-13
1.43894e-14
-3.89215e-13
1.17732e-14
-3.938e-13
1.05667e-14
-3.96802e-13
8.10951e-15
-3.96461e-13
3.78789e-16
-3.96035e-13
6.71022e-16
-3.94336e-13
-2.10837e-15
-3.90976e-13
-5.31487e-15
-3.86733e-13
-7.31033e-15
-3.81492e-13
-9.40362e-15
-3.7519e-13
-1.15981e-14
-3.67882e-13
-1.35825e-14
-3.59621e-13
-1.56425e-14
-3.50419e-13
-1.76267e-14
-3.40312e-13
-1.95294e-14
-3.29237e-13
-2.14849e-14
-3.173e-13
-2.33113e-14
-3.04549e-13
-2.51178e-14
-2.9077e-13
-2.70679e-14
-2.76229e-13
-2.87928e-14
-2.60879e-13
-3.04322e-14
-2.44754e-13
-3.20842e-14
-2.2791e-13
-3.35482e-14
-2.10441e-13
-3.49068e-14
-1.92391e-13
-3.61073e-14
-1.73894e-13
-3.7092e-14
-1.55041e-13
-3.7921e-14
-1.35856e-13
-3.85011e-14
-1.1661e-13
-3.88397e-14
-9.73369e-14
-3.89128e-14
-7.82558e-14
-3.86299e-14
-5.94147e-14
-3.81478e-14
-4.10615e-14
-3.73514e-14
-2.3278e-14
-3.62529e-14
-6.25677e-15
-3.48761e-14
9.91391e-15
-3.32341e-14
2.51327e-14
-3.13577e-14
3.92282e-14
-2.92103e-14
5.21625e-14
-2.7007e-14
6.38486e-14
-2.45791e-14
7.42068e-14
-2.20325e-14
8.32017e-14
-1.93562e-14
9.08846e-14
-1.68387e-14
9.72306e-14
-1.42339e-14
1.02321e-13
-1.1753e-14
1.06105e-13
-9.25033e-15
1.08692e-13
-6.92873e-15
1.102e-13
-4.8022e-15
1.10656e-13
-2.85886e-15
1.10192e-13
-1.06101e-15
1.09009e-13
3.78268e-16
1.07271e-13
1.44512e-15
1.05103e-13
2.15701e-15
1.02676e-13
2.53173e-15
1.00201e-13
2.26708e-15
9.79751e-14
1.10828e-15
9.58429e-14
-1.45064e-15
9.2528e-14
-6.6899e-15
8.03013e-14
-1.65806e-14
2.75148e-14
-3.3711e-14
2.63613e-14
1.20705e-13
3.5881e-16
1.22996e-13
8.27322e-23
-8.33815e-21
9.75039e-23
-3.64993e-23
9.78658e-23
-3.1071e-23
7.81686e-23
-2.57977e-23
8.04433e-23
-1.96972e-23
9.90032e-23
-1.29247e-23
1.27334e-22
-5.89366e-24
1.60576e-22
1.03398e-24
1.95473e-22
7.54802e-24
2.29905e-22
1.37002e-23
2.62268e-22
1.93353e-23
2.91736e-22
2.45569e-23
3.17948e-22
2.92615e-23
3.40333e-22
3.33457e-23
3.58841e-22
3.70163e-23
3.73317e-22
4.00666e-23
3.83915e-22
4.28066e-23
3.90688e-22
4.48746e-23
3.93841e-22
4.6684e-23
3.9379e-22
4.80799e-23
3.90533e-22
4.91139e-23
3.84329e-22
4.97342e-23
3.75437e-22
5.00961e-23
3.6427e-22
5.01995e-23
3.5088e-22
5.00444e-23
3.35525e-22
4.97342e-23
3.18671e-22
4.92173e-23
3.00215e-22
4.84935e-23
2.80414e-22
4.7718e-23
2.59631e-22
4.67874e-23
2.38176e-22
4.57534e-23
2.15481e-22
4.45644e-23
1.92475e-22
4.35821e-23
1.68848e-22
4.23413e-23
1.44808e-22
4.13073e-23
1.20665e-22
4.02734e-23
9.60564e-23
3.92911e-23
7.15511e-23
3.84122e-23
4.67357e-23
3.76367e-23
2.17135e-23
3.69646e-23
3.64476e-23
-3.25855e-14
9.5927e-14
-6.32908e-14
9.58799e-14
-9.37058e-14
9.47178e-14
-1.23621e-13
9.27587e-14
-1.5276e-13
9.00426e-14
-1.8079e-13
8.67099e-14
-2.07619e-13
8.29475e-14
-2.32982e-13
7.85955e-14
-2.56803e-13
7.38403e-14
-2.78842e-13
6.86364e-14
-2.9909e-13
6.31668e-14
-3.17254e-13
5.71931e-14
-3.33483e-13
5.11315e-14
-3.47806e-13
4.56701e-14
-3.60653e-13
4.08183e-14
-3.72707e-13
3.76184e-14
-3.81027e-13
2.96606e-14
-3.87184e-13
2.14398e-14
-3.92581e-13
1.80327e-14
-3.97493e-13
1.63114e-14
-3.99058e-13
1.04743e-14
-3.99203e-13
1.29022e-15
-3.98624e-13
8.24336e-16
-3.96752e-13
-3.28513e-15
-3.93168e-13
-8.24313e-15
-3.88954e-13
-1.09033e-14
-3.83616e-13
-1.41602e-14
-3.7724e-13
-1.74319e-14
-3.69916e-13
-2.04076e-14
-3.61631e-13
-2.34709e-14
-3.52422e-13
-2.6422e-14
-3.42257e-13
-2.93209e-14
-3.31166e-13
-3.22464e-14
-3.19166e-13
-3.50278e-14
-3.06305e-13
-3.77391e-14
-2.92525e-13
-4.06506e-14
-2.77921e-13
-4.32471e-14
-2.62495e-13
-4.57521e-14
-2.46215e-13
-4.83033e-14
-2.29229e-13
-5.05218e-14
-2.11608e-13
-5.25585e-14
-1.93409e-13
-5.4384e-14
-1.74649e-13
-5.59743e-14
-1.55558e-13
-5.7181e-14
-1.36149e-13
-5.81238e-14
-1.16667e-13
-5.85804e-14
-9.7144e-14
-5.87407e-14
-7.77588e-14
-5.83616e-14
-5.86607e-14
-5.7637e-14
-4.00025e-14
-5.64417e-14
-2.19642e-14
-5.47654e-14
-4.63136e-15
-5.2725e-14
1.1797e-14
-5.02197e-14
2.71812e-14
-4.73401e-14
4.14489e-14
-4.41118e-14
5.45963e-14
-4.08302e-14
6.63934e-14
-3.70876e-14
7.68134e-14
-3.32013e-14
8.58847e-14
-2.92103e-14
9.3528e-14
-2.52977e-14
9.9846e-14
-2.1401e-14
1.0476e-13
-1.75476e-14
1.08388e-13
-1.37879e-14
1.1084e-13
-1.03195e-14
1.12084e-13
-7.01312e-15
1.12275e-13
-4.03651e-15
1.11611e-13
-1.41042e-15
1.10128e-13
8.2588e-16
1.08011e-13
2.50622e-15
1.05386e-13
3.7062e-15
1.02373e-13
4.45204e-15
9.912e-14
4.41426e-15
9.53819e-14
3.72477e-15
9.05716e-14
2.22982e-15
8.23052e-14
4.34113e-16
6.43029e-14
2.71813e-16
2.00099e-14
9.42763e-15
1.61749e-14
1.23379e-13
3.41713e-16
1.37899e-13
8.93488e-23
-1.24146e-20
1.02932e-22
-5.46456e-23
1.03139e-22
-4.5133e-23
8.42173e-23
-3.51035e-23
8.72159e-23
-2.44535e-23
1.06034e-22
-1.36485e-23
1.34262e-22
-2.99853e-24
1.6709e-22
7.28953e-24
2.01574e-22
1.70089e-23
2.35591e-22
2.60045e-23
2.67438e-22
3.43797e-23
2.96441e-22
4.17726e-23
3.22083e-22
4.84935e-23
3.44004e-22
5.43354e-23
3.61892e-22
5.93502e-23
3.75954e-22
6.37446e-23
3.85983e-22
6.73118e-23
3.92497e-22
7.03104e-23
3.95289e-22
7.25851e-23
3.94824e-22
7.42395e-23
3.91153e-22
7.53768e-23
3.84691e-22
7.61523e-23
3.7554e-22
7.64108e-23
3.64115e-22
7.62557e-23
3.5057e-22
7.57904e-23
3.35008e-22
7.49116e-23
3.17948e-22
7.38776e-23
2.99439e-22
7.25334e-23
2.79484e-22
7.10341e-23
2.58597e-22
6.94832e-23
2.37039e-22
6.77771e-23
2.14447e-22
6.59677e-23
1.91337e-22
6.41065e-23
1.67763e-22
6.23487e-23
1.43826e-22
6.06427e-23
1.19683e-22
5.904e-23
9.52292e-23
5.74374e-23
7.07239e-23
5.61966e-23
4.60636e-23
5.50592e-23
2.11965e-23
5.41286e-23
5.35599e-23
-3.28793e-14
1.29553e-13
-6.44743e-14
1.28795e-13
-9.56259e-14
1.27014e-13
-1.2612e-13
1.24378e-13
-1.55776e-13
1.20814e-13
-1.8439e-13
1.16434e-13
-2.11687e-13
1.11341e-13
-2.37489e-13
1.05484e-13
-2.61655e-13
9.90791e-14
-2.84083e-13
9.21228e-14
-3.04479e-13
8.46045e-14
-3.22793e-13
7.65302e-14
-3.39371e-13
6.87091e-14
-3.53531e-13
6.08103e-14
-3.66591e-13
5.48328e-14
-3.79148e-13
5.11049e-14
-3.86098e-13
3.75123e-14
-3.92076e-13
2.82948e-14
-3.97746e-13
2.45473e-14
-4.03513e-13
2.28949e-14
-4.02156e-13
9.90043e-15
-4.03543e-13
3.42708e-15
-4.02505e-13
5.03056e-16
-4.00344e-13
-4.76656e-15
-3.96598e-13
-1.13438e-14
-3.92292e-13
-1.46038e-14
-3.86805e-13
-1.90806e-14
-3.80331e-13
-2.33758e-14
-3.7295e-13
-2.73008e-14
-3.64654e-13
-3.1318e-14
-3.55366e-13
-3.53021e-14
-3.45124e-13
-3.91973e-14
-3.34009e-13
-4.30372e-14
-3.21963e-13
-4.67953e-14
-3.09073e-13
-5.03937e-14
-2.9522e-13
-5.43108e-14
-2.8051e-13
-5.78096e-14
-2.64928e-13
-6.1233e-14
-2.48526e-13
-6.46467e-14
-2.31337e-13
-6.76973e-14
-2.13409e-13
-7.05187e-14
-1.9492e-13
-7.29498e-14
-1.7592e-13
-7.50958e-14
-1.56447e-13
-7.682e-14
-1.36706e-13
-7.80725e-14
-1.16741e-13
-7.87996e-14
-9.67976e-14
-7.89832e-14
-7.69776e-14
-7.85203e-14
-5.74648e-14
-7.75342e-14
-3.83688e-14
-7.59628e-14
-1.98982e-14
-7.37022e-14
-2.21518e-15
-7.09145e-14
1.45811e-14
-6.75633e-14
3.03483e-14
-6.36935e-14
4.49455e-14
-5.93331e-14
5.82409e-14
-5.47869e-14
7.01605e-14
-4.97037e-14
8.07102e-14
-4.44849e-14
8.98351e-14
-3.91009e-14
9.74886e-14
-3.37509e-14
1.03664e-13
-2.84097e-14
1.08488e-13
-2.32314e-14
1.1193e-13
-1.81216e-14
1.14096e-13
-1.34027e-14
1.15059e-13
-8.92061e-15
1.14909e-13
-4.85392e-15
1.13826e-13
-1.31989e-15
1.11877e-13
1.76e-15
1.09224e-13
4.12502e-15
1.06019e-13
5.85916e-15
1.02391e-13
7.01334e-15
9.83763e-14
7.34486e-15
9.39628e-14
7.04333e-15
8.8651e-14
6.43488e-15
8.17503e-14
6.22036e-15
7.27787e-14
8.11818e-15
6.58525e-14
1.52237e-14
1.46615e-14
1.73434e-13
3.36326e-16
1.51317e-13
9.26574e-23
-1.66167e-20
1.12497e-22
-7.35674e-23
1.13117e-22
-5.91951e-23
9.48673e-23
-4.46161e-23
9.80726e-23
-2.98302e-23
1.16736e-22
-1.4941e-23
1.4455e-22
-4.65289e-25
1.7681e-22
1.32866e-23
2.10569e-22
2.6263e-23
2.43863e-22
3.82054e-23
2.74831e-22
4.89588e-23
3.03213e-22
5.88332e-23
3.27874e-22
6.74152e-23
3.49019e-22
7.50666e-23
3.66234e-22
8.16324e-23
3.79573e-22
8.71642e-23
3.88982e-22
9.1662e-23
3.94772e-22
9.53326e-23
3.96943e-22
9.82277e-23
3.95961e-22
1.00296e-22
3.91877e-22
1.01588e-22
3.84898e-22
1.02209e-22
3.75385e-22
1.02312e-22
3.63701e-22
1.0195e-22
3.49639e-22
1.01019e-22
3.33974e-22
9.9727e-23
3.16603e-22
9.80726e-23
2.97888e-22
9.62632e-23
2.77933e-22
9.40401e-23
2.56891e-22
9.16103e-23
2.3523e-22
8.92321e-23
2.12637e-22
8.66472e-23
1.89528e-22
8.41139e-23
1.66057e-22
8.15807e-23
1.42223e-22
7.90992e-23
1.18132e-22
7.68761e-23
9.39367e-23
7.48599e-23
6.95866e-23
7.2947e-23
4.5133e-23
7.15511e-23
2.05761e-23
7.03104e-23
6.94832e-23
-3.35294e-14
1.63823e-13
-6.6109e-14
1.62675e-13
-9.83339e-14
1.60372e-13
-1.29745e-13
1.56903e-13
-1.60268e-13
1.52442e-13
-1.89645e-13
1.46906e-13
-2.17601e-13
1.40385e-13
-2.44024e-13
1.32984e-13
-2.68685e-13
1.24799e-13
-2.91435e-13
1.15918e-13
-3.12067e-13
1.06265e-13
-3.3064e-13
9.61129e-14
-3.47443e-13
8.65031e-14
-3.61346e-13
7.56823e-14
-3.75162e-13
6.95926e-14
-3.86724e-13
6.35881e-14
-3.93087e-13
4.47684e-14
-3.99236e-13
3.53118e-14
-4.05033e-13
3.11797e-14
-4.10231e-13
2.88964e-14
-4.07524e-13
7.96766e-15
-4.09131e-13
5.77513e-15
-4.07745e-13
-1.76422e-16
-4.04944e-13
-6.89341e-15
-4.01219e-13
-1.44329e-14
-3.96638e-13
-1.85864e-14
-3.90959e-13
-2.41973e-14
-3.84372e-13
-2.9439e-14
-3.76954e-13
-3.42353e-14
-3.68546e-13
-3.92832e-14
-3.59196e-13
-4.42506e-14
-3.49022e-13
-4.90106e-14
-3.37886e-13
-5.38525e-14
-3.25789e-13
-5.86188e-14
-3.12828e-13
-6.31226e-14
-2.98832e-13
-6.81166e-14
-2.84002e-13
-7.24946e-14
-2.6817e-13
-7.69638e-14
-2.51533e-13
-8.12249e-14
-2.34126e-13
-8.50924e-14
-2.15932e-13
-8.87424e-14
-1.97032e-13
-9.19245e-14
-1.77617e-13
-9.46317e-14
-1.57664e-13
-9.69377e-14
-1.37388e-13
-9.85559e-14
-1.16906e-13
-9.95325e-14
-9.63861e-14
-9.97986e-14
-7.59578e-14
-9.92873e-14
-5.58425e-14
-9.80276e-14
-3.61809e-14
-9.60447e-14
-1.70616e-14
-9.32814e-14
1.16584e-15
-8.96423e-14
1.85091e-14
-8.54462e-14
3.46755e-14
-8.04409e-14
4.96075e-14
-7.48826e-14
6.32379e-14
-6.90724e-14
7.53738e-14
-6.25283e-14
8.60646e-14
-5.59022e-14
9.52429e-14
-4.90389e-14
1.02854e-13
-4.21527e-14
1.08928e-13
-3.53057e-14
1.13525e-13
-2.86807e-14
1.16666e-13
-2.21458e-14
1.18492e-13
-1.61366e-14
1.19086e-13
-1.04482e-14
1.18418e-13
-5.1454e-15
1.16771e-13
-6.5505e-16
1.14279e-13
3.25227e-15
1.10992e-13
6.39058e-15
1.07024e-13
8.78892e-15
1.02718e-13
1.02645e-14
9.8052e-14
1.09434e-14
9.32537e-14
1.07575e-14
8.85031e-14
1.0093e-14
8.39563e-14
9.66436e-15
8.05776e-14
1.0388e-14
7.54727e-14
1.92103e-14
1.40378e-14
2.33748e-13
3.31714e-16
1.64129e-13
1.09201e-22
-2.06204e-20
1.26869e-22
-9.21789e-23
1.27644e-22
-7.31021e-23
1.09705e-22
-5.40769e-23
1.1291e-22
-3.47933e-23
1.31108e-22
-1.59232e-23
1.58302e-22
2.37814e-24
1.89786e-22
1.96972e-23
2.22512e-22
3.58273e-23
2.54668e-22
5.07682e-23
2.84654e-22
6.42616e-23
3.11795e-22
7.63074e-23
3.35577e-22
8.70091e-23
3.55533e-22
9.62632e-23
3.71766e-22
1.04328e-22
3.84122e-22
1.10997e-22
3.92601e-22
1.16426e-22
3.97615e-22
1.20717e-22
3.99011e-22
1.23974e-22
3.97305e-22
1.263e-22
3.92549e-22
1.27593e-22
3.85053e-22
1.28265e-22
3.75023e-22
1.28161e-22
3.6277e-22
1.27334e-22
3.48398e-22
1.25938e-22
3.3232e-22
1.24129e-22
3.14742e-22
1.21854e-22
2.95717e-22
1.19217e-22
2.75555e-22
1.16322e-22
2.54461e-22
1.13169e-22
2.32645e-22
1.09808e-22
2.10104e-22
1.06344e-22
1.86995e-22
1.02984e-22
1.63627e-22
9.9727e-23
1.39949e-22
9.66767e-23
1.16064e-22
9.36782e-23
9.20756e-23
9.09382e-23
6.80873e-23
8.86117e-23
4.38923e-23
8.65438e-23
1.98006e-23
8.50962e-23
8.41139e-23
-3.46639e-14
1.99219e-13
-6.83883e-14
1.97687e-13
-1.01717e-13
1.9482e-13
-1.34266e-13
1.90552e-13
-1.65827e-13
1.85094e-13
-1.96147e-13
1.78311e-13
-2.24972e-13
1.70284e-13
-2.52178e-13
1.6125e-13
-2.77495e-13
1.51166e-13
-3.00628e-13
1.40083e-13
-3.21552e-13
1.28206e-13
-3.40869e-13
1.16427e-13
-3.57016e-13
1.03629e-13
-3.71614e-13
9.12357e-14
-3.8714e-13
8.60508e-14
-3.94935e-13
7.22924e-14
-4.01795e-13
5.25094e-14
-4.08287e-13
4.2658e-14
-4.14841e-13
3.85603e-14
-4.16382e-13
3.12334e-14
-4.15235e-13
7.58297e-15
-4.15838e-13
7.1116e-15
-4.1419e-13
-1.12606e-15
-4.10553e-13
-9.86755e-15
-4.06956e-13
-1.74027e-14
-4.01964e-13
-2.29868e-14
-3.9616e-13
-2.94481e-14
-3.89452e-13
-3.56319e-14
-3.81918e-13
-4.12892e-14
-3.73405e-13
-4.73585e-14
-3.64077e-13
-5.31801e-14
-3.53811e-13
-5.89218e-14
-3.42633e-13
-6.47177e-14
-3.30498e-13
-7.04802e-14
-3.17419e-13
-7.59735e-14
-3.03398e-13
-8.19512e-14
-2.88413e-13
-8.73386e-14
-2.72376e-13
-9.29024e-14
-2.55484e-13
-9.80604e-14
-2.37724e-13
-1.02841e-13
-2.19128e-13
-1.0737e-13
-1.99767e-13
-1.11362e-13
-1.79765e-13
-1.14753e-13
-1.59259e-13
-1.17606e-13
-1.38365e-13
-1.19659e-13
-1.1717e-13
-1.20976e-13
-9.59708e-14
-1.2129e-13
-7.48169e-14
-1.20773e-13
-5.38684e-14
-1.19352e-13
-3.33798e-14
-1.16949e-13
-1.36042e-14
-1.13512e-13
5.41836e-15
-1.09164e-13
2.3399e-14
-1.03964e-13
4.0126e-14
-9.77403e-14
5.56153e-14
-9.09828e-14
6.96075e-14
-8.37128e-14
8.20636e-14
-7.56657e-14
9.28964e-14
-6.74499e-14
1.02156e-13
-5.90476e-14
1.09702e-13
-5.04814e-14
1.15569e-13
-4.19866e-14
1.19996e-13
-3.39501e-14
1.22846e-13
-2.5868e-14
1.2416e-13
-1.83487e-14
1.24186e-13
-1.1396e-14
1.22992e-13
-4.89878e-15
1.20719e-13
6.51186e-16
1.17475e-13
5.50769e-15
1.13371e-13
9.48588e-15
1.08645e-13
1.24909e-14
1.03399e-13
1.44684e-14
9.79429e-14
1.53449e-14
9.26448e-14
1.49875e-14
8.81284e-14
1.35282e-14
8.54896e-14
1.12134e-14
8.59096e-14
8.87292e-15
7.45352e-14
2.94831e-14
2.39242e-16
3.06939e-13
3.26202e-16
1.63162e-13
1.25744e-22
-2.44652e-20
1.45946e-22
-1.10584e-22
1.46669e-22
-8.6854e-23
1.28988e-22
-6.32276e-23
1.3178e-22
-3.96013e-23
1.49461e-22
-1.63368e-23
1.75672e-22
5.84196e-24
2.05865e-22
2.68317e-23
2.37453e-22
4.62704e-23
2.68162e-22
6.41582e-23
2.96751e-22
8.03399e-23
3.22497e-22
9.47122e-23
3.44831e-22
1.07327e-22
3.63649e-22
1.18339e-22
3.78383e-22
1.27593e-22
3.8955e-22
1.35296e-22
3.96943e-22
1.415e-22
4.00872e-22
1.46359e-22
4.01338e-22
1.49978e-22
3.98649e-22
1.52408e-22
3.93221e-22
1.53804e-22
3.84949e-22
1.54218e-22
3.74196e-22
1.53701e-22
3.61375e-22
1.52511e-22
3.46589e-22
1.5065e-22
3.29993e-22
1.48065e-22
3.12106e-22
1.45119e-22
2.92822e-22
1.41655e-22
2.72401e-22
1.37777e-22
2.51153e-22
1.33693e-22
2.29181e-22
1.29557e-22
2.06692e-22
1.25214e-22
1.83738e-22
1.20872e-22
1.60473e-22
1.16632e-22
1.37002e-22
1.12652e-22
1.13324e-22
1.08981e-22
8.96974e-23
1.05672e-22
6.60711e-23
1.02674e-22
4.24447e-23
1.00296e-22
1.88701e-23
9.84862e-23
9.73488e-23
-3.6036e-14
2.35978e-13
-7.11622e-14
2.3408e-13
-1.0585e-13
2.30612e-13
-1.39765e-13
2.25549e-13
-1.72569e-13
2.18972e-13
-2.04095e-13
2.10905e-13
-2.34014e-13
2.01261e-13
-2.62145e-13
1.90427e-13
-2.88148e-13
1.78201e-13
-3.11795e-13
1.6475e-13
-3.33681e-13
1.51092e-13
-3.53135e-13
1.36864e-13
-3.68567e-13
1.20025e-13
-3.85317e-13
1.08929e-13
-4.01109e-13
1.02761e-13
-4.05297e-13
7.73741e-14
-4.12614e-13
6.06957e-14
-4.19334e-13
5.02197e-14
-4.28082e-13
4.81222e-14
-4.21534e-13
2.54681e-14
-4.25103e-13
1.19048e-14
-4.23816e-13
6.54448e-15
-4.21841e-13
-2.41551e-15
-4.17192e-13
-1.38619e-14
-4.13691e-13
-2.02836e-14
-4.08331e-13
-2.77622e-14
-4.02281e-13
-3.49553e-14
-3.95431e-13
-4.19725e-14
-3.87735e-13
-4.85162e-14
-3.7924e-13
-5.5423e-14
-3.69872e-13
-6.21586e-14
-3.59619e-13
-6.88257e-14
-3.48422e-13
-7.56056e-14
-3.36257e-13
-8.23772e-14
-3.23149e-13
-8.88552e-14
-3.08966e-13
-9.59515e-14
-2.93834e-13
-1.02331e-13
-2.77603e-13
-1.09036e-13
-2.60364e-13
-1.15246e-13
-2.4217e-13
-1.21025e-13
-2.23093e-13
-1.26481e-13
-2.03129e-13
-1.31398e-13
-1.82517e-13
-1.35483e-13
-1.61345e-13
-1.38939e-13
-1.39611e-13
-1.41598e-13
-1.176e-13
-1.4323e-13
-9.53973e-14
-1.43783e-13
-7.32661e-14
-1.43232e-13
-5.13576e-14
-1.41632e-13
-2.99644e-14
-1.38754e-13
-9.20217e-15
-1.34726e-13
1.06484e-14
-1.29506e-13
2.94114e-14
-1.23255e-13
4.6876e-14
-1.1577e-13
6.30381e-14
-1.07747e-13
7.74637e-14
-9.87777e-14
9.03388e-14
-8.92156e-14
1.01397e-13
-7.92172e-14
1.10684e-13
-6.90751e-14
1.18154e-13
-5.87223e-14
1.23941e-13
-4.85748e-14
1.27963e-13
-3.88003e-14
1.30285e-13
-2.90461e-14
1.31192e-13
-2.01405e-14
1.30546e-13
-1.16581e-14
1.28658e-13
-3.94319e-15
1.25576e-13
2.78005e-15
1.21478e-13
8.63093e-15
1.16428e-13
1.35435e-14
1.1058e-13
1.73279e-14
1.04189e-13
1.98348e-14
9.75412e-14
2.09549e-14
9.10923e-14
2.03853e-14
8.58838e-14
1.76759e-14
8.32623e-14
1.27615e-14
8.5336e-14
5.72133e-15
4.34646e-15
1.09391e-13
-6.03198e-15
3.16231e-13
3.19781e-16
1.55946e-13
1.52214e-22
-2.80255e-20
1.69779e-22
-1.28627e-22
1.70244e-22
-1.00089e-22
1.52615e-22
-7.18096e-23
1.55096e-22
-4.36338e-23
1.7164e-22
-1.62334e-23
1.96611e-22
1.00813e-23
2.25355e-22
3.47933e-23
2.55289e-22
5.76959e-23
2.84343e-22
7.85305e-23
3.11175e-22
9.72454e-23
3.35112e-22
1.13892e-22
3.55843e-22
1.28627e-22
3.72852e-22
1.41138e-22
3.86087e-22
1.51633e-22
3.95806e-22
1.6037e-22
4.01751e-22
1.67297e-22
4.04491e-22
1.72674e-22
4.03716e-22
1.76396e-22
4.00045e-22
1.7893e-22
3.93583e-22
1.80119e-22
3.84432e-22
1.80222e-22
3.73058e-22
1.7924e-22
3.59513e-22
1.7743e-22
3.44004e-22
1.74794e-22
3.26995e-22
1.71485e-22
3.08642e-22
1.67504e-22
2.88945e-22
1.6311e-22
2.68317e-22
1.58302e-22
2.46913e-22
1.53235e-22
2.2489e-22
1.47962e-22
2.02401e-22
1.42637e-22
1.79498e-22
1.3726e-22
1.56492e-22
1.3209e-22
1.33279e-22
1.27179e-22
1.10015e-22
1.22681e-22
8.67506e-23
1.18597e-22
6.36412e-23
1.15082e-22
4.06353e-23
1.12238e-22
1.7681e-23
1.10222e-22
1.08878e-22
-3.77185e-14
2.74408e-13
-7.45179e-14
2.72124e-13
-1.10849e-13
2.68029e-13
-1.46366e-13
2.6213e-13
-1.80684e-13
2.54345e-13
-2.13552e-13
2.44821e-13
-2.44827e-13
2.33572e-13
-2.74039e-13
2.20667e-13
-3.00888e-13
2.06064e-13
-3.25696e-13
1.90558e-13
-3.4848e-13
1.74858e-13
-3.66818e-13
1.5617e-13
-3.83615e-13
1.37767e-13
-4.0397e-13
1.3021e-13
-4.13424e-13
1.13117e-13
-4.1932e-13
8.41484e-14
-4.26066e-13
6.82933e-14
-4.33968e-13
5.89491e-14
-4.39075e-13
5.40265e-14
-4.31212e-13
1.8374e-14
-4.35876e-13
1.73091e-14
-4.33146e-13
4.52132e-15
-4.29851e-13
-5.03451e-15
-4.25493e-13
-1.75804e-14
-4.2116e-13
-2.40101e-14
-4.15565e-13
-3.27879e-14
-4.09158e-13
-4.08288e-14
-4.02281e-13
-4.83523e-14
-3.94521e-13
-5.58162e-14
-3.85986e-13
-6.35357e-14
-3.76684e-13
-7.1079e-14
-3.66395e-13
-7.87731e-14
-3.55229e-13
-8.64696e-14
-3.43043e-13
-9.43015e-14
-3.29887e-13
-1.0179e-13
-3.15731e-13
-1.09928e-13
-3.00264e-13
-1.1766e-13
-2.83794e-13
-1.25411e-13
-2.66234e-13
-1.32754e-13
-2.47568e-13
-1.39683e-13
-2.27991e-13
-1.4609e-13
-2.07417e-13
-1.52048e-13
-1.85979e-13
-1.57039e-13
-1.639e-13
-1.61179e-13
-1.41327e-13
-1.64373e-13
-1.18228e-13
-1.6657e-13
-9.4899e-14
-1.67396e-13
-7.15981e-14
-1.66858e-13
-4.86104e-14
-1.64983e-13
-2.59677e-14
-1.61803e-13
-4.04632e-15
-1.57091e-13
1.69978e-14
-1.51031e-13
3.67009e-14
-1.43479e-13
5.51114e-14
-1.34737e-13
7.19522e-14
-1.25182e-13
8.69509e-14
-1.14404e-13
1.00196e-13
-1.03123e-13
1.11555e-13
-9.12698e-14
1.20944e-13
-7.91932e-14
1.28363e-13
-6.68982e-14
1.33927e-13
-5.49279e-14
1.37565e-13
-4.3255e-14
1.39381e-13
-3.1703e-14
1.39524e-13
-2.11521e-14
1.38186e-13
-1.12125e-14
1.35512e-13
-2.18336e-15
1.31505e-13
5.84823e-15
1.26321e-13
1.28612e-14
1.20161e-13
1.87297e-14
1.13109e-13
2.33896e-14
1.05308e-13
2.66327e-14
9.69577e-14
2.82836e-14
8.83689e-14
2.79439e-14
8.0559e-14
2.44452e-14
7.70414e-14
1.52308e-14
8.91754e-14
-7.46835e-15
-2.92524e-14
2.26755e-13
-1.40948e-15
2.87321e-13
3.11872e-16
1.53375e-13
1.85301e-22
-3.12879e-20
1.98265e-22
-1.46256e-22
1.98472e-22
-1.1291e-22
1.80842e-22
-7.9978e-23
1.82445e-22
-4.71493e-23
1.97955e-22
-1.51477e-23
2.21323e-22
1.53028e-23
2.48258e-22
4.38923e-23
2.76175e-22
7.0207e-23
3.0311e-22
9.39367e-23
3.2777e-22
1.1534e-22
3.49742e-22
1.34313e-22
3.68406e-22
1.50857e-22
3.83347e-22
1.64764e-22
3.94772e-22
1.76551e-22
4.02734e-22
1.86116e-22
4.0718e-22
1.93715e-22
4.08214e-22
1.99299e-22
4.06249e-22
2.03228e-22
4.01234e-22
2.05399e-22
3.93686e-22
2.06433e-22
3.83502e-22
2.0602e-22
3.71146e-22
2.0452e-22
3.56825e-22
2.01935e-22
3.40695e-22
1.9842e-22
3.23066e-22
1.94181e-22
3.04247e-22
1.89269e-22
2.84137e-22
1.83686e-22
2.6325e-22
1.77792e-22
2.41692e-22
1.71537e-22
2.19565e-22
1.65074e-22
1.97024e-22
1.58612e-22
1.74328e-22
1.52201e-22
1.51581e-22
1.46049e-22
1.28782e-22
1.40155e-22
1.05983e-22
1.34727e-22
8.32351e-23
1.30022e-22
6.08495e-23
1.25887e-22
3.85673e-23
1.2263e-22
1.63368e-23
1.20303e-22
1.18856e-22
-3.97202e-14
3.14826e-13
-7.85104e-14
3.12132e-13
-1.16766e-13
3.07346e-13
-1.54115e-13
3.0052e-13
-1.90265e-13
2.9153e-13
-2.24772e-13
2.80357e-13
-2.57535e-13
2.67354e-13
-2.88099e-13
2.52235e-13
-3.16232e-13
2.35191e-13
-3.42488e-13
2.17792e-13
-3.65131e-13
1.98464e-13
-3.82717e-13
1.74702e-13
-4.04263e-13
1.60239e-13
-4.23763e-13
1.50614e-13
-4.26755e-13
1.16991e-13
-4.36275e-13
9.45291e-14
-4.43072e-13
7.59273e-14
-4.5169e-13
6.83771e-14
-4.4465e-13
4.77673e-14
-4.47789e-13
2.22671e-14
-4.46149e-13
1.6391e-14
-4.43978e-13
3.0395e-15
-4.38428e-13
-9.9232e-15
-4.35009e-13
-2.0372e-14
-4.29472e-13
-2.89533e-14
-4.23482e-13
-3.82179e-14
-4.16959e-13
-4.68287e-14
-4.09932e-13
-5.48937e-14
-4.02069e-13
-6.32263e-14
-3.93614e-13
-7.1579e-14
-3.84327e-13
-7.99892e-14
-3.74219e-13
-8.85473e-14
-3.63075e-13
-9.73179e-14
-3.50961e-13
-1.06158e-13
-3.37809e-13
-1.1473e-13
-3.23513e-13
-1.24048e-13
-3.07822e-13
-1.33218e-13
-2.91194e-13
-1.41946e-13
-2.73235e-13
-1.50659e-13
-2.54064e-13
-1.58843e-13
-2.33776e-13
-1.66412e-13
-2.12552e-13
-1.73347e-13
-1.9025e-13
-1.79458e-13
-1.67056e-13
-1.84528e-13
-1.43283e-13
-1.88346e-13
-1.19048e-13
-1.91042e-13
-9.44131e-14
-1.92311e-13
-6.96711e-14
-1.91921e-13
-4.52034e-14
-1.89809e-13
-2.1217e-14
-1.86187e-13
2.10948e-15
-1.80853e-13
2.43169e-14
-1.73714e-13
4.5212e-14
-1.64884e-13
6.48643e-14
-1.54934e-13
8.25274e-14
-1.43427e-13
9.83039e-14
-1.30796e-13
1.12055e-13
-1.17523e-13
1.23738e-13
-1.03633e-13
1.33165e-13
-8.93342e-14
1.40544e-13
-7.50179e-14
1.45733e-13
-6.08898e-14
1.48796e-13
-4.71182e-14
1.50075e-13
-3.38088e-14
1.49425e-13
-2.13518e-14
1.47225e-13
-9.88547e-15
1.43586e-13
5.62324e-16
1.38493e-13
1.00258e-14
1.32221e-13
1.81979e-14
1.2477e-13
2.52274e-14
1.16367e-13
3.08214e-14
1.06992e-13
3.50261e-14
9.65888e-14
3.76904e-14
8.50223e-14
3.85031e-14
7.15469e-14
3.69029e-14
5.45446e-14
3.12072e-14
2.67234e-14
1.93198e-14
-1.40594e-14
2.66502e-13
-9.67987e-17
2.72319e-13
3.04214e-16
1.52146e-13
2.18388e-22
-3.4246e-20
2.31611e-22
-1.6373e-22
2.31455e-22
-1.25214e-22
2.13671e-22
-8.71642e-23
2.14498e-22
-4.94757e-23
2.28405e-22
-1.29764e-23
2.4986e-22
2.18686e-23
2.74521e-22
5.42837e-23
2.99905e-22
8.42173e-23
3.24462e-22
1.11204e-22
3.46796e-22
1.35244e-22
3.66286e-22
1.56337e-22
3.82364e-22
1.74535e-22
3.95134e-22
1.8989e-22
4.0444e-22
2.02659e-22
4.1023e-22
2.12896e-22
4.12763e-22
2.20806e-22
4.12143e-22
2.26544e-22
4.0842e-22
2.30422e-22
4.02268e-22
2.32541e-22
3.93324e-22
2.32851e-22
3.81951e-22
2.31714e-22
3.68612e-22
2.29491e-22
3.53361e-22
2.26027e-22
3.36404e-22
2.21529e-22
3.18154e-22
2.16101e-22
2.98716e-22
2.09949e-22
2.78191e-22
2.0328e-22
2.56995e-22
1.96197e-22
2.3523e-22
1.88597e-22
2.13102e-22
1.80997e-22
1.90562e-22
1.73243e-22
1.68176e-22
1.65591e-22
1.45739e-22
1.58302e-22
1.23302e-22
1.51374e-22
1.01226e-22
1.45119e-22
7.91509e-23
1.39535e-22
5.75925e-23
1.34986e-22
3.62409e-23
1.31263e-22
1.4941e-23
1.28575e-22
1.27179e-22
-4.20416e-14
3.57553e-13
-8.30593e-14
3.54337e-13
-1.23541e-13
3.48864e-13
-1.63112e-13
3.41106e-13
-2.01317e-13
3.30746e-13
-2.37808e-13
3.17849e-13
-2.72556e-13
3.03097e-13
-3.03932e-13
2.84594e-13
-3.34649e-13
2.6688e-13
-3.62126e-13
2.46226e-13
-3.8173e-13
2.19009e-13
-4.05969e-13
1.99866e-13
-4.31452e-13
1.86627e-13
-4.37237e-13
1.57287e-13
-4.47795e-13
1.28414e-13
-4.5439e-13
1.01964e-13
-4.67072e-13
8.94244e-14
-4.63405e-13
6.55e-14
-4.58673e-13
4.38009e-14
-4.62948e-13
2.72783e-14
-4.58996e-13
1.31461e-14
-4.54706e-13
-5.75756e-16
-4.49134e-13
-1.48531e-14
-4.4469e-13
-2.42028e-14
-4.385e-13
-3.45645e-14
-4.32156e-13
-4.4018e-14
-4.25473e-13
-5.30028e-14
-4.18201e-13
-6.16907e-14
-4.1038e-13
-7.06068e-14
-4.01973e-13
-7.95855e-14
-3.92874e-13
-8.87229e-14
-3.82859e-13
-9.82341e-14
-3.71977e-13
-1.07913e-13
-3.59955e-13
-1.17928e-13
-3.46925e-13
-1.2755e-13
-3.3239e-13
-1.38414e-13
-3.16654e-13
-1.48824e-13
-2.99608e-13
-1.58904e-13
-2.81396e-13
-1.68824e-13
-2.6174e-13
-1.7849e-13
-2.40767e-13
-1.87416e-13
-2.1858e-13
-1.95607e-13
-1.95374e-13
-2.02778e-13
-1.71059e-13
-2.08994e-13
-1.45852e-13
-2.13748e-13
-1.20133e-13
-2.16995e-13
-9.39556e-14
-2.18763e-13
-6.77144e-14
-2.18475e-13
-4.15222e-14
-2.16352e-13
-1.577e-14
-2.12329e-13
9.16183e-15
-2.06211e-13
3.29505e-14
-1.97967e-13
5.55223e-14
-1.87956e-13
7.62903e-14
-1.76238e-13
9.49371e-14
-1.62641e-13
1.11671e-13
-1.48133e-13
1.2601e-13
-1.32499e-13
1.38005e-13
-1.16294e-13
1.47512e-13
-9.95368e-14
1.54666e-13
-8.28963e-14
1.59472e-13
-6.64502e-14
1.62027e-13
-5.04523e-14
1.62492e-13
-3.50797e-14
1.61018e-13
-2.07074e-14
1.57797e-13
-7.51822e-15
1.52966e-13
4.51892e-15
1.46712e-13
1.53874e-14
1.3913e-13
2.48699e-14
1.30398e-13
3.30338e-14
1.20557e-13
3.97167e-14
1.09628e-13
4.49963e-14
9.74406e-14
4.89073e-14
8.33206e-14
5.16444e-14
6.56557e-14
5.35769e-14
3.97292e-14
5.61366e-14
-1.12908e-14
6.93326e-14
-6.52256e-15
2.60722e-13
-2.25584e-15
2.67039e-13
2.95197e-16
1.4879e-13
2.54783e-22
-3.66944e-20
2.70178e-22
-1.80377e-22
2.69402e-22
-1.36537e-22
2.5136e-22
-9.33163e-23
2.51049e-22
-5.06131e-23
2.6325e-22
-9.15069e-24
2.82379e-22
3.00887e-23
3.04454e-22
6.64846e-23
3.26943e-22
9.97787e-23
3.48553e-22
1.29971e-22
3.6794e-22
1.56596e-22
3.84432e-22
1.7986e-22
3.97822e-22
1.99609e-22
4.07852e-22
2.16308e-22
4.14676e-22
2.29956e-22
4.1814e-22
2.4071e-22
4.18502e-22
2.48878e-22
4.1602e-22
2.54668e-22
4.10488e-22
2.58184e-22
4.0263e-22
2.59735e-22
3.92187e-22
2.59528e-22
3.79676e-22
2.57667e-22
3.65149e-22
2.54358e-22
3.48915e-22
2.49757e-22
3.31027e-22
2.44018e-22
3.12002e-22
2.37453e-22
2.92046e-22
2.30111e-22
2.71108e-22
2.22046e-22
2.49395e-22
2.13464e-22
2.27578e-22
2.04624e-22
2.05399e-22
1.95525e-22
1.83014e-22
1.86478e-22
1.60887e-22
1.77637e-22
1.38811e-22