/*--------------------------------*- C++ -*----------------------------------*\
  =========                 |
  \\      /  F ield         | OpenFOAM: The Open Source CFD Toolbox
   \\    /   O peration     | Website:  https://openfoam.org
    \\  /    A nd           | Version:  6
     \\/     M anipulation  |
\*---------------------------------------------------------------------------*/
FoamFile
{
    version     2.0;
    format      ascii;
    class       volVectorField;
    location    "3900";
    object      U;
}
// * * * * * * * * * * * * * * * * * * * * * * * * * * * * * * * * * * * * * //

dimensions      [0 1 -1 0 0 0 0];

internalField   nonuniform List<vector> 
4800
(
(-5.46388e-09 0 6.76436e-09)
(-1.87739e-08 0 4.05274e-09)
(-3.06731e-08 0 3.03442e-09)
(-4.26287e-08 0 2.7477e-09)
(-5.43054e-08 0 2.70537e-09)
(-6.55901e-08 0 2.75332e-09)
(-7.64025e-08 0 2.85142e-09)
(-8.6687e-08 0 2.94778e-09)
(-9.63812e-08 0 3.01745e-09)
(-1.05422e-07 0 3.03385e-09)
(-1.13769e-07 0 3.0116e-09)
(-1.21388e-07 0 2.91953e-09)
(-1.2824e-07 0 2.74726e-09)
(-1.34338e-07 0 2.58089e-09)
(-1.39728e-07 0 2.38044e-09)
(-1.4448e-07 0 2.20913e-09)
(-1.48652e-07 0 1.95041e-09)
(-1.51748e-07 0 1.36032e-09)
(-1.54016e-07 0 1.11746e-09)
(-1.5602e-07 0 1.0133e-09)
(-1.57485e-07 0 8.72014e-10)
(-1.57921e-07 0 5.28469e-12)
(-1.57806e-07 0 1.16261e-10)
(-1.57417e-07 0 -1.67214e-10)
(-1.5644e-07 0 -4.39782e-10)
(-1.54965e-07 0 -6.49492e-10)
(-1.53095e-07 0 -8.44091e-10)
(-1.50809e-07 0 -1.04942e-09)
(-1.48119e-07 0 -1.22652e-09)
(-1.45048e-07 0 -1.43145e-09)
(-1.41573e-07 0 -1.62512e-09)
(-1.37724e-07 0 -1.81151e-09)
(-1.33507e-07 0 -1.99877e-09)
(-1.2893e-07 0 -2.18365e-09)
(-1.23985e-07 0 -2.37132e-09)
(-1.18693e-07 0 -2.54753e-09)
(-1.13058e-07 0 -2.73498e-09)
(-1.071e-07 0 -2.89539e-09)
(-1.00815e-07 0 -3.06497e-09)
(-9.42562e-08 0 -3.20991e-09)
(-8.74274e-08 0 -3.35393e-09)
(-8.03553e-08 0 -3.47329e-09)
(-7.30925e-08 0 -3.57717e-09)
(-6.56572e-08 0 -3.66811e-09)
(-5.81106e-08 0 -3.71432e-09)
(-5.04851e-08 0 -3.76705e-09)
(-4.28359e-08 0 -3.77209e-09)
(-3.52228e-08 0 -3.75126e-09)
(-2.77066e-08 0 -3.69925e-09)
(-2.03337e-08 0 -3.63485e-09)
(-1.31572e-08 0 -3.52591e-09)
(-6.24123e-09 0 -3.39997e-09)
(3.63569e-10 0 -3.23893e-09)
(6.59702e-09 0 -3.05088e-09)
(1.24141e-08 0 -2.84306e-09)
(1.77872e-08 0 -2.63071e-09)
(2.26975e-08 0 -2.39236e-09)
(2.7089e-08 0 -2.14545e-09)
(3.09635e-08 0 -1.88056e-09)
(3.42964e-08 0 -1.63644e-09)
(3.71191e-08 0 -1.3814e-09)
(3.94138e-08 0 -1.13452e-09)
(4.12017e-08 0 -8.9435e-10)
(4.2505e-08 0 -6.70115e-10)
(4.33533e-08 0 -4.61266e-10)
(4.37948e-08 0 -2.84329e-10)
(4.38649e-08 0 -1.11304e-10)
(4.36006e-08 0 3.05139e-11)
(4.30717e-08 0 1.32511e-10)
(4.23723e-08 0 1.85734e-10)
(4.15799e-08 0 2.07935e-10)
(4.08177e-08 0 1.51939e-10)
(4.02996e-08 0 -1.49871e-11)
(4.04525e-08 0 -4.66784e-10)
(4.24775e-08 0 -1.70847e-09)
(4.9699e-08 0 -5.37664e-09)
(6.82382e-08 0 -1.78979e-08)
(4.4256e-08 0 1.41067e-08)
(3.3185e-10 0 1.90794e-08)
(1.4345e-15 0 -9.97496e-16)
(1.794e-17 0 -4.291e-18)
(3.79366e-17 0 -2.61596e-18)
(3.5972e-17 0 -3.16397e-18)
(3.17844e-17 0 -3.40178e-18)
(3.5331e-17 0 -3.23634e-18)
(4.43265e-17 0 -2.84343e-18)
(5.64447e-17 0 -2.30577e-18)
(6.99898e-17 0 -1.70606e-18)
(8.37831e-17 0 -1.07533e-18)
(9.71524e-17 0 -4.1359e-19)
(1.09612e-16 0 1.96455e-19)
(1.2082e-16 0 7.75482e-19)
(1.30591e-16 0 1.31315e-18)
(1.38832e-16 0 1.8198e-18)
(1.45532e-16 0 2.30577e-18)
(1.50661e-16 0 2.71936e-18)
(1.54207e-16 0 3.09159e-18)
(1.56285e-16 0 3.4328e-18)
(1.56989e-16 0 3.71197e-18)
(1.56389e-16 0 3.96013e-18)
(1.5459e-16 0 4.16692e-18)
(1.51653e-16 0 4.32202e-18)
(1.47703e-16 0 4.47712e-18)
(1.42854e-16 0 4.57017e-18)
(1.37167e-16 0 4.64255e-18)
(1.30777e-16 0 4.68391e-18)
(1.23746e-16 0 4.69425e-18)
(1.16147e-16 0 4.70459e-18)
(1.08081e-16 0 4.68391e-18)
(9.96339e-17 0 4.64255e-18)
(9.08244e-17 0 4.61153e-18)
(8.17151e-17 0 4.53915e-18)
(7.23783e-17 0 4.48746e-18)
(6.28761e-17 0 4.42542e-18)
(5.32498e-17 0 4.35304e-18)
(4.3489e-17 0 4.28066e-18)
(3.36766e-17 0 4.19794e-18)
(2.38538e-17 0 4.11522e-18)
(1.40931e-17 0 4.00149e-18)
(4.62187e-18 0 3.71197e-18)
(-5.35823e-09 0 1.91865e-08)
(-1.86659e-08 0 2.12669e-08)
(-3.09898e-08 0 2.16914e-08)
(-4.32187e-08 0 2.13692e-08)
(-5.50621e-08 0 2.06836e-08)
(-6.64685e-08 0 1.97865e-08)
(-7.7386e-08 0 1.87419e-08)
(-8.77363e-08 0 1.75732e-08)
(-9.74559e-08 0 1.63076e-08)
(-1.06511e-07 0 1.49741e-08)
(-1.14854e-07 0 1.3605e-08)
(-1.22436e-07 0 1.21994e-08)
(-1.29244e-07 0 1.07471e-08)
(-1.35292e-07 0 9.52654e-09)
(-1.40652e-07 0 8.38946e-09)
(-1.45399e-07 0 7.50867e-09)
(-1.49478e-07 0 6.40575e-09)
(-1.52462e-07 0 4.40192e-09)
(-1.54742e-07 0 3.55983e-09)
(-1.56722e-07 0 3.18066e-09)
(-1.58095e-07 0 2.59188e-09)
(-1.58475e-07 0 1.95454e-12)
(-1.58386e-07 0 2.14068e-10)
(-1.57946e-07 0 -6.61392e-10)
(-1.56922e-07 0 -1.58457e-09)
(-1.5541e-07 0 -2.22958e-09)
(-1.53529e-07 0 -2.85349e-09)
(-1.51236e-07 0 -3.51315e-09)
(-1.48521e-07 0 -4.1011e-09)
(-1.45424e-07 0 -4.73025e-09)
(-1.41946e-07 0 -5.32804e-09)
(-1.38095e-07 0 -5.89924e-09)
(-1.33869e-07 0 -6.47997e-09)
(-1.29283e-07 0 -7.02939e-09)
(-1.24346e-07 0 -7.57798e-09)
(-1.19044e-07 0 -8.14199e-09)
(-1.1339e-07 0 -8.66943e-09)
(-1.07423e-07 0 -9.15307e-09)
(-1.01118e-07 0 -9.6458e-09)
(-9.4536e-08 0 -1.00767e-08)
(-8.7676e-08 0 -1.04855e-08)
(-8.05687e-08 0 -1.08373e-08)
(-7.3268e-08 0 -1.11292e-08)
(-6.57972e-08 0 -1.13776e-08)
(-5.81915e-08 0 -1.15306e-08)
(-5.05029e-08 0 -1.16427e-08)
(-4.28033e-08 0 -1.1654e-08)
(-3.51328e-08 0 -1.15682e-08)
(-2.75475e-08 0 -1.14113e-08)
(-2.01093e-08 0 -1.11786e-08)
(-1.28821e-08 0 -1.08417e-08)
(-5.92176e-09 0 -1.04312e-08)
(7.16388e-10 0 -9.93294e-09)
(6.99454e-09 0 -9.36156e-09)
(1.28585e-08 0 -8.71757e-09)
(1.82644e-08 0 -8.0563e-09)
(2.31953e-08 0 -7.3253e-09)
(2.75997e-08 0 -6.56129e-09)
(3.14819e-08 0 -5.75383e-09)
(3.48144e-08 0 -4.99806e-09)
(3.76261e-08 0 -4.21339e-09)
(3.99139e-08 0 -3.46144e-09)
(4.16891e-08 0 -2.71072e-09)
(4.29643e-08 0 -2.01064e-09)
(4.37827e-08 0 -1.3635e-09)
(4.41762e-08 0 -7.85278e-10)
(4.41751e-08 0 -2.38944e-10)
(4.38475e-08 0 2.03538e-10)
(4.3263e-08 0 5.33711e-10)
(4.24835e-08 0 7.4099e-10)
(4.15642e-08 0 8.50624e-10)
(4.05818e-08 0 7.45901e-10)
(3.9636e-08 0 3.43926e-10)
(3.87477e-08 0 -6.30906e-10)
(3.75989e-08 0 -2.91307e-09)
(3.50777e-08 0 -8.62649e-09)
(2.08574e-08 0 -2.46711e-08)
(1.43452e-08 0 5.09904e-08)
(2.67591e-10 0 4.23622e-08)
(1.05048e-15 0 -2.66274e-15)
(1.96446e-17 0 -1.15909e-17)
(3.90739e-17 0 -8.83015e-18)
(3.52069e-17 0 -8.32351e-18)
(3.17224e-17 0 -7.34123e-18)
(3.58893e-17 0 -5.82128e-18)
(4.52675e-17 0 -4.02217e-18)
(5.75821e-17 0 -2.09897e-18)
(7.12099e-17 0 -1.96455e-19)
(8.50755e-17 0 1.6647e-18)
(9.84345e-17 0 3.45348e-18)
(1.10801e-16 0 5.10784e-18)
(1.21937e-16 0 6.62779e-18)
(1.31656e-16 0 7.98229e-18)
(1.39835e-16 0 9.22306e-18)
(1.46432e-16 0 1.03191e-17)
(1.51446e-16 0 1.12807e-17)
(1.54921e-16 0 1.20665e-17)
(1.56906e-16 0 1.27696e-17)
(1.57526e-16 0 1.33279e-17)
(1.56864e-16 0 1.37829e-17)
(1.54972e-16 0 1.41138e-17)
(1.51953e-16 0 1.43412e-17)
(1.47941e-16 0 1.4517e-17)
(1.4303e-16 0 1.45791e-17)
(1.37281e-16 0 1.45894e-17)
(1.30839e-16 0 1.45274e-17)
(1.23777e-16 0 1.43929e-17)
(1.16126e-16 0 1.42482e-17)
(1.08009e-16 0 1.40414e-17)
(9.95615e-17 0 1.37932e-17)
(9.07314e-17 0 1.35244e-17)
(8.1591e-17 0 1.32556e-17)
(7.22646e-17 0 1.29557e-17)
(6.27313e-17 0 1.26869e-17)
(5.30947e-17 0 1.24077e-17)
(4.33443e-17 0 1.21389e-17)
(3.35215e-17 0 1.18804e-17)
(2.36574e-17 0 1.16426e-17)
(1.36898e-17 0 1.13944e-17)
(4.3427e-18 0 1.10015e-17)
(-5.7455e-09 0 3.15452e-08)
(-1.9478e-08 0 3.1428e-08)
(-3.15786e-08 0 3.09491e-08)
(-4.36934e-08 0 3.02704e-08)
(-5.55467e-08 0 2.93761e-08)
(-6.7012e-08 0 2.83169e-08)
(-7.80042e-08 0 2.7117e-08)
(-8.84538e-08 0 2.57404e-08)
(-9.8292e-08 0 2.42204e-08)
(-1.07458e-07 0 2.25715e-08)
(-1.15907e-07 0 2.08173e-08)
(-1.23589e-07 0 1.89207e-08)
(-1.30464e-07 0 1.69231e-08)
(-1.36579e-07 0 1.51821e-08)
(-1.42052e-07 0 1.35486e-08)
(-1.46903e-07 0 1.24325e-08)
(-1.50896e-07 0 1.01153e-08)
(-1.53726e-07 0 7.2639e-09)
(-1.56105e-07 0 6.01033e-09)
(-1.58096e-07 0 5.36762e-09)
(-1.59259e-07 0 3.88267e-09)
(-1.59501e-07 0 3.06894e-10)
(-1.59461e-07 0 3.37852e-10)
(-1.58936e-07 0 -1.04921e-09)
(-1.57832e-07 0 -2.66213e-09)
(-1.56298e-07 0 -3.62639e-09)
(-1.54396e-07 0 -4.68498e-09)
(-1.52069e-07 0 -5.78386e-09)
(-1.49338e-07 0 -6.77779e-09)
(-1.46235e-07 0 -7.80014e-09)
(-1.42747e-07 0 -8.78792e-09)
(-1.38884e-07 0 -9.75189e-09)
(-1.34645e-07 0 -1.0729e-08)
(-1.3004e-07 0 -1.16521e-08)
(-1.25071e-07 0 -1.2558e-08)
(-1.19748e-07 0 -1.35299e-08)
(-1.1408e-07 0 -1.4395e-08)
(-1.08086e-07 0 -1.52261e-08)
(-1.01732e-07 0 -1.60684e-08)
(-9.50936e-08 0 -1.68059e-08)
(-8.81749e-08 0 -1.74843e-08)
(-8.10046e-08 0 -1.80918e-08)
(-7.36231e-08 0 -1.86053e-08)
(-6.60524e-08 0 -1.90142e-08)
(-5.83543e-08 0 -1.93198e-08)
(-5.05729e-08 0 -1.94785e-08)
(-4.27765e-08 0 -1.95251e-08)
(-3.49955e-08 0 -1.93931e-08)
(-2.72974e-08 0 -1.91524e-08)
(-1.97472e-08 0 -1.87545e-08)
(-1.2408e-08 0 -1.81996e-08)
(-5.33363e-09 0 -1.75175e-08)
(1.41715e-09 0 -1.6688e-08)
(7.7804e-09 0 -1.57365e-08)
(1.37118e-08 0 -1.46631e-08)
(1.91955e-08 0 -1.35647e-08)
(2.41901e-08 0 -1.23336e-08)
(2.86289e-08 0 -1.10485e-08)
(3.25418e-08 0 -9.71331e-09)
(3.58792e-08 0 -8.43004e-09)
(3.86778e-08 0 -7.12918e-09)
(4.09258e-08 0 -5.86544e-09)
(4.26338e-08 0 -4.61296e-09)
(4.3851e-08 0 -3.45697e-09)
(4.45897e-08 0 -2.37215e-09)
(4.48779e-08 0 -1.39037e-09)
(4.47836e-08 0 -5.07732e-10)
(4.43562e-08 0 2.24422e-10)
(4.36357e-08 0 7.71885e-10)
(4.26879e-08 0 1.1543e-09)
(4.15593e-08 0 1.37663e-09)
(4.03023e-08 0 1.31852e-09)
(3.88952e-08 0 9.58321e-10)
(3.71774e-08 0 1.41529e-10)
(3.45479e-08 0 -1.25456e-09)
(2.96328e-08 0 -3.3181e-09)
(1.65399e-08 0 -4.83857e-09)
(8.37409e-09 0 5.07908e-08)
(2.5453e-10 0 5.09821e-08)
(1.00244e-15 0 -4.15388e-15)
(2.07427e-17 0 -1.8229e-17)
(4.12143e-17 0 -1.52408e-17)
(3.74713e-17 0 -1.21802e-17)
(3.42866e-17 0 -8.83015e-18)
(3.865e-17 0 -5.31464e-18)
(4.80592e-17 0 -1.77844e-18)
(6.02705e-17 0 1.6647e-18)
(7.37328e-17 0 4.91139e-18)
(8.7433e-17 0 7.94093e-18)
(1.00606e-16 0 1.0743e-17)
(1.12776e-16 0 1.32659e-17)
(1.23705e-16 0 1.5551e-17)
(1.33217e-16 0 1.75362e-17)
(1.41179e-16 0 1.92733e-17)
(1.47569e-16 0 2.07622e-17)
(1.52387e-16 0 2.20237e-17)
(1.55696e-16 0 2.3037e-17)
(1.57557e-16 0 2.38538e-17)
(1.58023e-16 0 2.44639e-17)
(1.57195e-16 0 2.48981e-17)
(1.55169e-16 0 2.51773e-17)
(1.52046e-16 0 2.53014e-17)
(1.47931e-16 0 2.5291e-17)
(1.42937e-16 0 2.5167e-17)
(1.37116e-16 0 2.49292e-17)
(1.30591e-16 0 2.4619e-17)
(1.23477e-16 0 2.42054e-17)
(1.15785e-16 0 2.37504e-17)
(1.07616e-16 0 2.32541e-17)
(9.91273e-17 0 2.27061e-17)
(9.02971e-17 0 2.21064e-17)
(8.11568e-17 0 2.15377e-17)
(7.182e-17 0 2.0938e-17)
(6.23177e-17 0 2.039e-17)
(5.27017e-17 0 1.98627e-17)
(4.29824e-17 0 1.93457e-17)
(3.31906e-17 0 1.89218e-17)
(2.33575e-17 0 1.85392e-17)
(1.3452e-17 0 1.82187e-17)
(4.2393e-18 0 1.80015e-17)
(-5.77807e-09 0 4.52392e-08)
(-1.97974e-08 0 4.49452e-08)
(-3.22025e-08 0 4.42942e-08)
(-4.45767e-08 0 4.33602e-08)
(-5.66492e-08 0 4.21167e-08)
(-6.83374e-08 0 4.06008e-08)
(-7.95425e-08 0 3.88596e-08)
(-9.0173e-08 0 3.68491e-08)
(-1.00169e-07 0 3.46462e-08)
(-1.09484e-07 0 3.22401e-08)
(-1.18042e-07 0 2.96675e-08)
(-1.25803e-07 0 2.68789e-08)
(-1.32748e-07 0 2.4045e-08)
(-1.38905e-07 0 2.14719e-08)
(-1.44452e-07 0 1.92153e-08)
(-1.49357e-07 0 1.76591e-08)
(-1.53119e-07 0 1.38004e-08)
(-1.55706e-07 0 1.00923e-08)
(-1.58267e-07 0 8.46401e-09)
(-1.60248e-07 0 7.66787e-09)
(-1.61016e-07 0 4.83368e-09)
(-1.61066e-07 0 7.35337e-10)
(-1.61095e-07 0 3.61784e-10)
(-1.60419e-07 0 -1.5334e-09)
(-1.59221e-07 0 -3.88303e-09)
(-1.5766e-07 0 -5.06021e-09)
(-1.55699e-07 0 -6.60404e-09)
(-1.53325e-07 0 -8.12215e-09)
(-1.50564e-07 0 -9.50348e-09)
(-1.47446e-07 0 -1.09203e-08)
(-1.43939e-07 0 -1.23134e-08)
(-1.40047e-07 0 -1.36738e-08)
(-1.35789e-07 0 -1.50287e-08)
(-1.31169e-07 0 -1.63393e-08)
(-1.26184e-07 0 -1.76017e-08)
(-1.20841e-07 0 -1.89718e-08)
(-1.15139e-07 0 -2.01937e-08)
(-1.09093e-07 0 -2.13729e-08)
(-1.0268e-07 0 -2.25728e-08)
(-9.59795e-08 0 -2.36277e-08)
(-8.89585e-08 0 -2.4601e-08)
(-8.16621e-08 0 -2.54531e-08)
(-7.41846e-08 0 -2.62024e-08)
(-6.64839e-08 0 -2.67876e-08)
(-5.86453e-08 0 -2.72271e-08)
(-5.06961e-08 0 -2.74639e-08)
(-4.27231e-08 0 -2.75356e-08)
(-3.47714e-08 0 -2.73656e-08)
(-2.69022e-08 0 -2.70231e-08)
(-1.91806e-08 0 -2.64711e-08)
(-1.16687e-08 0 -2.56842e-08)
(-4.43809e-09 0 -2.47181e-08)
(2.4569e-09 0 -2.35472e-08)
(8.97076e-09 0 -2.21994e-08)
(1.50427e-08 0 -2.06808e-08)
(2.06236e-08 0 -1.91154e-08)
(2.5671e-08 0 -1.73522e-08)
(3.01634e-08 0 -1.55319e-08)
(3.41089e-08 0 -1.36533e-08)
(3.74646e-08 0 -1.18071e-08)
(4.02295e-08 0 -9.95599e-09)
(4.24375e-08 0 -8.14976e-09)
(4.40859e-08 0 -6.37807e-09)
(4.52111e-08 0 -4.7387e-09)
(4.58357e-08 0 -3.18237e-09)
(4.59989e-08 0 -1.77298e-09)
(4.57534e-08 0 -5.40131e-10)
(4.51488e-08 0 5.22095e-10)
(4.42293e-08 0 1.33065e-09)
(4.30582e-08 0 1.91626e-09)
(4.16893e-08 0 2.29701e-09)
(4.01592e-08 0 2.35123e-09)
(3.84717e-08 0 2.14442e-09)
(3.65297e-08 0 1.71217e-09)
(3.41077e-08 0 1.23943e-09)
(3.11582e-08 0 1.45077e-09)
(2.74427e-08 0 4.71039e-09)
(6.92756e-09 0 5.90289e-08)
(2.4884e-10 0 5.6875e-08)
(9.93807e-16 0 -5.81136e-15)
(2.26624e-17 0 -2.56426e-17)
(4.51227e-17 0 -2.08656e-17)
(4.15968e-17 0 -1.59439e-17)
(3.8588e-17 0 -1.08567e-17)
(4.29617e-17 0 -5.71789e-18)
(5.22571e-17 0 -6.92764e-19)
(6.42719e-17 0 4.11522e-18)
(7.74758e-17 0 8.65438e-18)
(9.08865e-17 0 1.2842e-17)
(1.03739e-16 0 1.66677e-17)
(1.15609e-16 0 2.01212e-17)
(1.26217e-16 0 2.31817e-17)
(1.35378e-16 0 2.58804e-17)
(1.43051e-16 0 2.81965e-17)
(1.49161e-16 0 3.01818e-17)
(1.53711e-16 0 3.17948e-17)
(1.56751e-16 0 3.31286e-17)
(1.58343e-16 0 3.41626e-17)
(1.58581e-16 0 3.4907e-17)
(1.57568e-16 0 3.5393e-17)
(1.55355e-16 0 3.56722e-17)
(1.52056e-16 0 3.57445e-17)
(1.47817e-16 0 3.56411e-17)
(1.42668e-16 0 3.5362e-17)
(1.36723e-16 0 3.49277e-17)
(1.30116e-16 0 3.439e-17)
(1.22898e-16 0 3.37593e-17)
(1.15164e-16 0 3.30148e-17)
(1.06965e-16 0 3.22187e-17)
(9.84242e-17 0 3.14018e-17)
(8.95733e-17 0 3.0523e-17)
(8.0433e-17 0 2.96441e-17)
(7.11169e-17 0 2.87859e-17)
(6.1656e-17 0 2.79484e-17)
(5.2071e-17 0 2.71832e-17)
(4.24137e-17 0 2.64594e-17)
(3.27047e-17 0 2.58287e-17)
(2.29439e-17 0 2.53221e-17)
(1.31418e-17 0 2.48878e-17)
(4.11522e-18 0 2.46086e-17)
(-5.84568e-09 0 5.90062e-08)
(-2.02653e-08 0 5.86648e-08)
(-3.30805e-08 0 5.78589e-08)
(-4.58519e-08 0 5.66339e-08)
(-5.82803e-08 0 5.50152e-08)
(-7.0294e-08 0 5.30138e-08)
(-8.17838e-08 0 5.06715e-08)
(-9.26728e-08 0 4.80021e-08)
(-1.02893e-07 0 4.50663e-08)
(-1.12371e-07 0 4.1884e-08)
(-1.2105e-07 0 3.84494e-08)
(-1.28926e-07 0 3.47355e-08)
(-1.35906e-07 0 3.12146e-08)
(-1.4215e-07 0 2.76362e-08)
(-1.47784e-07 0 2.50711e-08)
(-1.52448e-07 0 2.3428e-08)
(-1.55998e-07 0 1.64104e-08)
(-1.58555e-07 0 1.27262e-08)
(-1.61187e-07 0 1.14308e-08)
(-1.62908e-07 0 1.06912e-08)
(-1.63299e-07 0 3.22883e-09)
(-1.63316e-07 0 2.08427e-09)
(-1.63224e-07 0 1.29117e-10)
(-1.62383e-07 0 -2.21684e-09)
(-1.61061e-07 0 -5.16645e-09)
(-1.59456e-07 0 -6.55705e-09)
(-1.57395e-07 0 -8.60298e-09)
(-1.54966e-07 0 -1.05095e-08)
(-1.52176e-07 0 -1.2257e-08)
(-1.49023e-07 0 -1.4072e-08)
(-1.45484e-07 0 -1.5866e-08)
(-1.41596e-07 0 -1.76006e-08)
(-1.37345e-07 0 -1.93393e-08)
(-1.32712e-07 0 -2.1047e-08)
(-1.27702e-07 0 -2.26694e-08)
(-1.22312e-07 0 -2.44562e-08)
(-1.16564e-07 0 -2.60364e-08)
(-1.10439e-07 0 -2.76087e-08)
(-1.0393e-07 0 -2.91518e-08)
(-9.71383e-08 0 -3.05387e-08)
(-9.00285e-08 0 -3.18316e-08)
(-8.25838e-08 0 -3.29511e-08)
(-7.49475e-08 0 -3.39335e-08)
(-6.70658e-08 0 -3.47345e-08)
(-5.90267e-08 0 -3.53106e-08)
(-5.08687e-08 0 -3.56523e-08)
(-4.26683e-08 0 -3.57431e-08)
(-3.44872e-08 0 -3.55495e-08)
(-2.63757e-08 0 -3.51008e-08)
(-1.84182e-08 0 -3.43897e-08)
(-1.06634e-08 0 -3.33855e-08)
(-3.1958e-09 0 -3.21003e-08)
(3.91843e-09 0 -3.05903e-08)
(1.06222e-08 0 -2.88247e-08)
(1.6838e-08 0 -2.68241e-08)
(2.25575e-08 0 -2.47615e-08)
(2.77087e-08 0 -2.24396e-08)
(3.22817e-08 0 -2.00684e-08)
(3.62528e-08 0 -1.7623e-08)
(3.96282e-08 0 -1.51676e-08)
(4.23513e-08 0 -1.27428e-08)
(4.44968e-08 0 -1.03707e-08)
(4.60419e-08 0 -8.04971e-09)
(4.70353e-08 0 -5.90043e-09)
(4.75215e-08 0 -3.86464e-09)
(4.7506e-08 0 -1.99557e-09)
(4.70447e-08 0 -3.97066e-10)
(4.62176e-08 0 1.01647e-09)
(4.50639e-08 0 2.11454e-09)
(4.36136e-08 0 2.93627e-09)
(4.19579e-08 0 3.46029e-09)
(4.01628e-08 0 3.6607e-09)
(3.82713e-08 0 3.55478e-09)
(3.63653e-08 0 3.2843e-09)
(3.44995e-08 0 3.1484e-09)
(3.30092e-08 0 3.76639e-09)
(3.1041e-08 0 7.12898e-09)
(6.5407e-09 0 8.04693e-08)
(2.44388e-10 0 6.41511e-08)
(9.81784e-16 0 -7.45593e-15)
(2.55675e-17 0 -3.31493e-17)
(5.09026e-17 0 -2.64594e-17)
(4.74698e-17 0 -1.97386e-17)
(4.4523e-17 0 -1.29247e-17)
(4.88037e-17 0 -6.17284e-18)
(5.7882e-17 0 3.82571e-19)
(6.96176e-17 0 6.59677e-18)
(8.24596e-17 0 1.24181e-17)
(9.5436e-17 0 1.77947e-17)
(1.07864e-16 0 2.26441e-17)
(1.1929e-16 0 2.70281e-17)
(1.29474e-16 0 3.08849e-17)
(1.38222e-16 0 3.4266e-17)
(1.4546e-16 0 3.71921e-17)
(1.51178e-16 0 3.96323e-17)
(1.55345e-16 0 4.16175e-17)
(1.58043e-16 0 4.32099e-17)
(1.59325e-16 0 4.44403e-17)
(1.59263e-16 0 4.53192e-17)
(1.57971e-16 0 4.58362e-17)
(1.5552e-16 0 4.60946e-17)
(1.52015e-16 0 4.60946e-17)
(1.47559e-16 0 4.58568e-17)
(1.42234e-16 0 4.53915e-17)
(1.36144e-16 0 4.47712e-17)
(1.29412e-16 0 4.39853e-17)
(1.22092e-16 0 4.30961e-17)
(1.14254e-16 0 4.20725e-17)
(1.06003e-16 0 4.09558e-17)
(9.74212e-17 0 3.98081e-17)
(8.85497e-17 0 3.85983e-17)
(7.94197e-17 0 3.74196e-17)
(7.01242e-17 0 3.62615e-17)
(6.07151e-17 0 3.51552e-17)
(5.12025e-17 0 3.41109e-17)
(4.16279e-17 0 3.31596e-17)
(3.20326e-17 0 3.23117e-17)
(2.23959e-17 0 3.1619e-17)
(1.27386e-17 0 3.10813e-17)
(3.96013e-18 0 3.07194e-17)
(-5.9938e-09 0 7.30114e-08)
(-2.09678e-08 0 7.2506e-08)
(-3.42208e-08 0 7.14777e-08)
(-4.74462e-08 0 6.99264e-08)
(-6.03068e-08 0 6.79302e-08)
(-7.27173e-08 0 6.54525e-08)
(-8.45718e-08 0 6.25272e-08)
(-9.57948e-08 0 5.92208e-08)
(-1.063e-07 0 5.55496e-08)
(-1.15988e-07 0 5.1557e-08)
(-1.24846e-07 0 4.7241e-08)
(-1.32876e-07 0 4.26175e-08)
(-1.39798e-07 0 3.85964e-08)
(-1.46338e-07 0 3.3473e-08)
(-1.52226e-07 0 3.08632e-08)
(-1.56387e-07 0 2.80149e-08)
(-1.59459e-07 0 1.97347e-08)
(-1.62331e-07 0 1.58133e-08)
(-1.64867e-07 0 1.38269e-08)
(-1.66022e-07 0 1.25124e-08)
(-1.66147e-07 0 3.21096e-09)
(-1.66205e-07 0 2.65281e-09)
(-1.65829e-07 0 -1.79312e-10)
(-1.64786e-07 0 -3.18973e-09)
(-1.63352e-07 0 -6.31823e-09)
(-1.61659e-07 0 -8.23246e-09)
(-1.59506e-07 0 -1.06541e-08)
(-1.57022e-07 0 -1.29464e-08)
(-1.54183e-07 0 -1.50393e-08)
(-1.50989e-07 0 -1.727e-08)
(-1.47435e-07 0 -1.94322e-08)
(-1.4353e-07 0 -2.15341e-08)
(-1.39253e-07 0 -2.36685e-08)
(-1.34604e-07 0 -2.57763e-08)
(-1.29569e-07 0 -2.77799e-08)
(-1.24136e-07 0 -2.99712e-08)
(-1.18365e-07 0 -3.19345e-08)
(-1.1216e-07 0 -3.3942e-08)
(-1.05569e-07 0 -3.58248e-08)
(-9.86408e-08 0 -3.7561e-08)
(-9.13908e-08 0 -3.91964e-08)
(-8.37831e-08 0 -4.06312e-08)
(-7.59055e-08 0 -4.18552e-08)
(-6.78241e-08 0 -4.28909e-08)
(-5.95415e-08 0 -4.36232e-08)
(-5.11194e-08 0 -4.40811e-08)
(-4.26333e-08 0 -4.4197e-08)
(-3.41775e-08 0 -4.39969e-08)
(-2.57528e-08 0 -4.34577e-08)
(-1.74645e-08 0 -4.25811e-08)
(-9.4111e-09 0 -4.13419e-08)
(-1.65397e-09 0 -3.97452e-08)
(5.7459e-09 0 -3.78676e-08)
(1.2691e-08 0 -3.56227e-08)
(1.9129e-08 0 -3.31592e-08)
(2.50327e-08 0 -3.05549e-08)
(3.03214e-08 0 -2.76172e-08)
(3.49838e-08 0 -2.46597e-08)
(3.9002e-08 0 -2.16051e-08)
(4.23744e-08 0 -1.85176e-08)
(4.50593e-08 0 -1.54454e-08)
(4.71105e-08 0 -1.25285e-08)
(4.8574e-08 0 -9.58461e-09)
(4.94056e-08 0 -6.8884e-09)
(4.96737e-08 0 -4.36326e-09)
(4.94423e-08 0 -2.01621e-09)
(4.87521e-08 0 3.02713e-11)
(4.76479e-08 0 1.76454e-09)
(4.61803e-08 0 3.17572e-09)
(4.44143e-08 0 4.26245e-09)
(4.24188e-08 0 4.95314e-09)
(4.02807e-08 0 5.2641e-09)
(3.81315e-08 0 5.15292e-09)
(3.6174e-08 0 4.7223e-09)
(3.46675e-08 0 4.17101e-09)
(3.43919e-08 0 3.74549e-09)
(3.20352e-08 0 1.01063e-08)
(3.9303e-09 0 1.05344e-07)
(2.39857e-10 0 6.69485e-08)
(9.67616e-16 0 -9.02824e-15)
(2.94145e-17 0 -4.05525e-17)
(5.8523e-17 0 -3.19912e-17)
(5.51316e-17 0 -2.34609e-17)
(5.21537e-17 0 -1.48789e-17)
(5.62483e-17 0 -6.45201e-18)
(6.50267e-17 0 1.64402e-18)
(7.63074e-17 0 9.30578e-18)
(8.86634e-17 0 1.64195e-17)
(1.01123e-16 0 2.29853e-17)
(1.12983e-16 0 2.89203e-17)
(1.2385e-16 0 3.42039e-17)
(1.33466e-16 0 3.88672e-17)
(1.41696e-16 0 4.29203e-17)
(1.48407e-16 0 4.63842e-17)
(1.53587e-16 0 4.92586e-17)
(1.57299e-16 0 5.15851e-17)
(1.59563e-16 0 5.34152e-17)
(1.60442e-16 0 5.47904e-17)
(1.59997e-16 0 5.57416e-17)
(1.58374e-16 0 5.62793e-17)
(1.55634e-16 0 5.64964e-17)
(1.51829e-16 0 5.63724e-17)
(1.47114e-16 0 5.59691e-17)
(1.41593e-16 0 5.53177e-17)
(1.35316e-16 0 5.44388e-17)
(1.2842e-16 0 5.33945e-17)
(1.20986e-16 0 5.21744e-17)
(1.13045e-16 0 5.08199e-17)
(1.04711e-16 0 4.93723e-17)
(9.60667e-17 0 4.78731e-17)
(8.71745e-17 0 4.63118e-17)
(7.80859e-17 0 4.47712e-17)
(6.88421e-17 0 4.32719e-17)
(5.9495e-17 0 4.18657e-17)
(5.00651e-17 0 4.05319e-17)
(4.06042e-17 0 3.93221e-17)
(3.11537e-17 0 3.82571e-17)
(2.17032e-17 0 3.73679e-17)
(1.2263e-17 0 3.67165e-17)
(3.77401e-18 0 3.62926e-17)
(-6.17093e-09 0 8.75462e-08)
(-2.18234e-08 0 8.68899e-08)
(-3.56167e-08 0 8.56233e-08)
(-4.93826e-08 0 8.37477e-08)
(-6.277e-08 0 8.13311e-08)
(-7.56713e-08 0 7.83445e-08)
(-8.79914e-08 0 7.47957e-08)
(-9.96149e-08 0 7.08003e-08)
(-1.10439e-07 0 6.63306e-08)
(-1.20393e-07 0 6.1467e-08)
(-1.29638e-07 0 5.599e-08)
(-1.37564e-07 0 5.11827e-08)
(-1.44707e-07 0 4.52051e-08)
(-1.51694e-07 0 3.99817e-08)
(-1.57433e-07 0 3.80353e-08)
(-1.61183e-07 0 3.06175e-08)
(-1.63716e-07 0 2.28719e-08)
(-1.67109e-07 0 1.86331e-08)
(-1.69415e-07 0 1.68591e-08)
(-1.69589e-07 0 1.35694e-08)
(-1.69349e-07 0 2.81335e-09)
(-1.69738e-07 0 3.15568e-09)
(-1.68917e-07 0 -6.78383e-10)
(-1.6761e-07 0 -4.51633e-09)
(-1.66066e-07 0 -7.48718e-09)
(-1.6427e-07 0 -1.00467e-08)
(-1.62006e-07 0 -1.27775e-08)
(-1.59438e-07 0 -1.54391e-08)
(-1.56546e-07 0 -1.78798e-08)
(-1.53323e-07 0 -2.04832e-08)
(-1.49762e-07 0 -2.29962e-08)
(-1.45853e-07 0 -2.54862e-08)
(-1.41573e-07 0 -2.8006e-08)
(-1.36917e-07 0 -3.05179e-08)
(-1.31874e-07 0 -3.29173e-08)
(-1.26393e-07 0 -3.55353e-08)
(-1.20563e-07 0 -3.78852e-08)
(-1.14291e-07 0 -4.03501e-08)
(-1.07607e-07 0 -4.26302e-08)
(-1.00488e-07 0 -4.47312e-08)
(-9.30762e-08 0 -4.67452e-08)
(-8.52666e-08 0 -4.85289e-08)
(-7.7116e-08 0 -5.00061e-08)
(-6.87955e-08 0 -5.12942e-08)
(-6.02038e-08 0 -5.22305e-08)
(-5.14625e-08 0 -5.28213e-08)
(-4.26054e-08 0 -5.2991e-08)
(-3.37432e-08 0 -5.27831e-08)
(-2.49458e-08 0 -5.21806e-08)
(-1.62804e-08 0 -5.11217e-08)
(-7.8473e-09 0 -4.96291e-08)
(2.71712e-10 0 -4.77161e-08)
(7.99517e-09 0 -4.54253e-08)
(1.52421e-08 0 -4.26857e-08)
(2.19636e-08 0 -3.97272e-08)
(2.80892e-08 0 -3.64882e-08)
(3.35484e-08 0 -3.29654e-08)
(3.83347e-08 0 -2.9318e-08)
(4.2413e-08 0 -2.56097e-08)
(4.57601e-08 0 -2.18403e-08)
(4.84228e-08 0 -1.80865e-08)
(5.03887e-08 0 -1.45249e-08)
(5.16466e-08 0 -1.09874e-08)
(5.22971e-08 0 -7.69384e-09)
(5.23535e-08 0 -4.61273e-09)
(5.18547e-08 0 -1.71025e-09)
(5.08557e-08 0 6.83442e-10)
(4.94189e-08 0 2.8247e-09)
(4.75922e-08 0 4.61725e-09)
(4.54115e-08 0 5.97666e-09)
(4.29653e-08 0 6.87634e-09)
(4.03582e-08 0 7.27553e-09)
(3.77437e-08 0 7.09142e-09)
(3.54169e-08 0 6.25273e-09)
(3.38856e-08 0 4.76944e-09)
(3.33829e-08 0 3.00906e-09)
(1.81823e-08 0 2.95661e-08)
(3.00822e-10 0 1.37308e-07)
(2.34825e-10 0 6.34931e-08)
(9.4792e-16 0 -1.05117e-14)
(3.42323e-17 0 -4.78421e-17)
(6.80046e-17 0 -3.73886e-17)
(6.45718e-17 0 -2.70074e-17)
(6.15422e-17 0 -1.6647e-17)
(6.53473e-17 0 -6.51405e-18)
(7.36501e-17 0 3.18465e-18)
(8.43931e-17 0 1.2325e-17)
(9.61287e-17 0 2.07933e-17)
(1.07926e-16 0 2.85377e-17)
(1.19104e-16 0 3.55171e-17)
(1.29257e-16 0 4.17209e-17)
(1.38191e-16 0 4.71907e-17)
(1.45739e-16 0 5.18952e-17)
(1.51788e-16 0 5.5845e-17)
(1.56379e-16 0 5.91331e-17)
(1.59511e-16 0 6.17594e-17)
(1.61249e-16 0 6.38067e-17)
(1.61641e-16 0 6.52749e-17)
(1.60752e-16 0 6.62675e-17)
(1.58726e-16 0 6.67845e-17)
(1.55603e-16 0 6.68879e-17)
(1.51498e-16 0 6.6588e-17)
(1.46514e-16 0 6.59883e-17)
(1.40703e-16 0 6.50888e-17)
(1.342e-16 0 6.391e-17)
(1.27127e-16 0 6.25245e-17)
(1.19517e-16 0 6.09529e-17)
(1.11452e-16 0 5.92158e-17)
(1.03046e-16 0 5.73857e-17)
(9.43606e-17 0 5.55038e-17)
(8.54581e-17 0 5.35703e-17)
(7.63798e-17 0 5.16264e-17)
(6.71981e-17 0 4.97446e-17)
(5.79543e-17 0 4.79661e-17)
(4.86589e-17 0 4.63325e-17)
(3.93531e-17 0 4.48539e-17)
(3.00784e-17 0 4.35511e-17)
(2.08553e-17 0 4.25067e-17)
(1.16632e-17 0 4.17416e-17)
(3.5362e-18 0 4.12453e-17)
(-6.38581e-09 0 1.02729e-07)
(-2.2863e-08 0 1.01933e-07)
(-3.73077e-08 0 1.00422e-07)
(-5.17159e-08 0 9.82181e-08)
(-6.57335e-08 0 9.53314e-08)
(-7.92049e-08 0 9.17939e-08)
(-9.20786e-08 0 8.75782e-08)
(-1.04176e-07 0 8.28256e-08)
(-1.15365e-07 0 7.75212e-08)
(-1.25962e-07 0 7.13154e-08)
(-1.35228e-07 0 6.56838e-08)
(-1.4314e-07 0 5.95008e-08)
(-1.50903e-07 0 5.18791e-08)
(-1.58477e-07 0 4.73747e-08)
(-1.63072e-07 0 4.5164e-08)
(-1.66637e-07 0 3.19833e-08)
(-1.69352e-07 0 2.6417e-08)
(-1.72863e-07 0 2.16793e-08)
(-1.74047e-07 0 2.16374e-08)
(-1.73583e-07 0 7.50579e-09)
(-1.73731e-07 0 6.69847e-09)
(-1.73579e-07 0 2.27683e-09)
(-1.72411e-07 0 -1.06579e-09)
(-1.70829e-07 0 -6.4836e-09)
(-1.69249e-07 0 -8.61126e-09)
(-1.6719e-07 0 -1.20172e-08)
(-1.6483e-07 0 -1.50487e-08)
(-1.62189e-07 0 -1.79764e-08)
(-1.59274e-07 0 -2.07604e-08)
(-1.56031e-07 0 -2.37037e-08)
(-1.52477e-07 0 -2.65666e-08)
(-1.48573e-07 0 -2.94464e-08)
(-1.44293e-07 0 -3.23453e-08)
(-1.39633e-07 0 -3.52709e-08)
(-1.34585e-07 0 -3.80668e-08)
(-1.2911e-07 0 -4.11411e-08)
(-1.23184e-07 0 -4.39202e-08)
(-1.16822e-07 0 -4.68614e-08)
(-1.10019e-07 0 -4.95571e-08)
(-1.02758e-07 0 -5.20953e-08)
(-9.51211e-08 0 -5.44796e-08)
(-8.71083e-08 0 -5.66577e-08)
(-7.86911e-08 0 -5.84747e-08)
(-6.9971e-08 0 -5.99736e-08)
(-6.10685e-08 0 -6.11785e-08)
(-5.19277e-08 0 -6.19376e-08)
(-4.26434e-08 0 -6.22144e-08)
(-3.32963e-08 0 -6.1984e-08)
(-2.40674e-08 0 -6.13061e-08)
(-1.49321e-08 0 -6.009e-08)
(-6.01715e-09 0 -5.83396e-08)
(2.57112e-09 0 -5.6082e-08)
(1.07235e-08 0 -5.33499e-08)
(1.83453e-08 0 -5.00575e-08)
(2.53938e-08 0 -4.65703e-08)
(3.17686e-08 0 -4.26212e-08)
(3.74171e-08 0 -3.84542e-08)
(4.23393e-08 0 -3.40766e-08)
(4.64939e-08 0 -2.96411e-08)
(4.98581e-08 0 -2.50982e-08)
(5.24549e-08 0 -2.0698e-08)
(5.42967e-08 0 -1.64075e-08)
(5.53914e-08 0 -1.21216e-08)
(5.57859e-08 0 -8.24658e-09)
(5.55526e-08 0 -4.527e-09)
(5.47462e-08 0 -1.24246e-09)
(5.34094e-08 0 1.7371e-09)
(5.15761e-08 0 4.31524e-09)
(4.9305e-08 0 6.47178e-09)
(4.66622e-08 0 8.16112e-09)
(4.36919e-08 0 9.31337e-09)
(4.04645e-08 0 9.8742e-09)
(3.70867e-08 0 9.70324e-09)
(3.38265e-08 0 8.48575e-09)
(3.15749e-08 0 5.68084e-09)
(3.33109e-08 0 -6.86044e-10)
(5.30333e-09 0 6.29783e-08)
(-1.90926e-09 0 1.17722e-07)
(2.292e-10 0 6.04839e-08)
(9.23489e-16 0 -1.18803e-14)
(3.99952e-17 0 -5.49765e-17)
(7.93473e-17 0 -4.25998e-17)
(7.58628e-17 0 -3.03575e-17)
(7.26575e-17 0 -1.81566e-17)
(7.60799e-17 0 -6.27623e-18)
(8.38554e-17 0 5.07682e-18)
(9.3916e-17 0 1.57371e-17)
(1.04887e-16 0 2.55806e-17)
(1.15857e-16 0 3.44934e-17)
(1.26176e-16 0 4.25171e-17)
(1.35503e-16 0 4.96412e-17)
(1.4363e-16 0 5.58967e-17)
(1.5035e-16 0 6.11804e-17)
(1.55624e-16 0 6.56368e-17)
(1.59501e-16 0 6.92971e-17)
(1.61983e-16 0 7.22025e-17)
(1.63079e-16 0 7.43946e-17)
(1.62893e-16 0 7.59248e-17)
(1.61497e-16 0 7.68658e-17)
(1.58984e-16 0 7.73104e-17)
(1.55438e-16 0 7.72483e-17)
(1.50929e-16 0 7.6752e-17)
(1.45594e-16 0 7.58731e-17)
(1.39504e-16 0 7.46427e-17)
(1.32752e-16 0 7.31331e-17)
(1.25463e-16 0 7.13547e-17)
(1.17677e-16 0 6.93591e-17)
(1.09477e-16 0 6.72188e-17)
(1.00988e-16 0 6.49544e-17)
(9.22513e-17 0 6.26072e-17)
(8.33178e-17 0 6.02498e-17)
(7.42705e-17 0 5.78923e-17)
(6.51818e-17 0 5.56279e-17)
(5.60725e-17 0 5.34669e-17)
(4.69528e-17 0 5.14817e-17)
(3.78435e-17 0 4.97239e-17)
(2.88169e-17 0 4.81936e-17)
(1.98834e-17 0 4.69735e-17)
(1.09808e-17 0 4.6105e-17)
(3.26736e-18 0 4.55466e-17)
(-6.63718e-09 0 1.1868e-07)
(-2.40979e-08 0 1.17736e-07)
(-3.93195e-08 0 1.15964e-07)
(-5.44642e-08 0 1.13407e-07)
(-6.92239e-08 0 1.1002e-07)
(-8.34151e-08 0 1.05864e-07)
(-9.68715e-08 0 1.01013e-07)
(-1.09524e-07 0 9.53306e-08)
(-1.21522e-07 0 8.87342e-08)
(-1.32346e-07 0 8.22392e-08)
(-1.41633e-07 0 7.55014e-08)
(-1.49964e-07 0 6.7392e-08)
(-1.58987e-07 0 5.89095e-08)
(-1.65482e-07 0 5.68636e-08)
(-1.69839e-07 0 4.7225e-08)
(-1.73045e-07 0 3.5957e-08)
(-1.76786e-07 0 2.86845e-08)
(-1.7889e-07 0 2.5281e-08)
(-1.79009e-07 0 2.3558e-08)
(-1.78285e-07 0 6.12334e-09)
(-1.78913e-07 0 7.80177e-09)
(-1.77741e-07 0 1.42802e-09)
(-1.76275e-07 0 -2.58549e-09)
(-1.74542e-07 0 -7.5515e-09)
(-1.72759e-07 0 -1.04065e-08)
(-1.70449e-07 0 -1.40351e-08)
(-1.67976e-07 0 -1.74072e-08)
(-1.65278e-07 0 -2.05189e-08)
(-1.62317e-07 0 -2.36969e-08)
(-1.59069e-07 0 -2.69142e-08)
(-1.55535e-07 0 -3.0116e-08)
(-1.5167e-07 0 -3.3372e-08)
(-1.47431e-07 0 -3.6673e-08)
(-1.4279e-07 0 -4.00171e-08)
(-1.37749e-07 0 -4.32533e-08)
(-1.32281e-07 0 -4.67028e-08)
(-1.26231e-07 0 -5.0115e-08)
(-1.19812e-07 0 -5.34183e-08)
(-1.12905e-07 0 -5.66374e-08)
(-1.05488e-07 0 -5.9675e-08)
(-9.75488e-08 0 -6.24312e-08)
(-8.9293e-08 0 -6.50457e-08)
(-8.05916e-08 0 -6.72726e-08)
(-7.1469e-08 0 -6.91077e-08)
(-6.207e-08 0 -7.04874e-08)
(-5.24867e-08 0 -7.1498e-08)
(-4.27129e-08 0 -7.19224e-08)
(-3.28333e-08 0 -7.17364e-08)
(-2.29727e-08 0 -7.09161e-08)
(-1.33105e-08 0 -6.95852e-08)
(-3.83904e-09 0 -6.75656e-08)
(5.26647e-09 0 -6.49365e-08)
(1.38929e-08 0 -6.16345e-08)
(2.19952e-08 0 -5.79007e-08)
(2.94601e-08 0 -5.3732e-08)
(3.61545e-08 0 -4.90019e-08)
(4.20578e-08 0 -4.41049e-08)
(4.71482e-08 0 -3.89607e-08)
(5.13741e-08 0 -3.37022e-08)
(5.47373e-08 0 -2.83488e-08)
(5.72485e-08 0 -2.31418e-08)
(5.89053e-08 0 -1.80708e-08)