/*--------------------------------*- C++ -*----------------------------------*\
  =========                 |
  \\      /  F ield         | OpenFOAM: The Open Source CFD Toolbox
   \\    /   O peration     | Website:  https://openfoam.org
    \\  /    A nd           | Version:  6
     \\/     M anipulation  |
\*---------------------------------------------------------------------------*/
FoamFile
{
    version     2.0;
    format      ascii;
    class       surfaceScalarField;
    location    "6400";
    object      phi;
}
// * * * * * * * * * * * * * * * * * * * * * * * * * * * * * * * * * * * * * //

dimensions      [0 3 -1 0 0 0 0];

internalField   nonuniform List<scalar> 
9440
(
1.23384e-13
-1.23384e-13
2.44869e-13
-1.21614e-13
3.63417e-13
-1.1865e-13
4.77397e-13
-1.14078e-13
5.85579e-13
-1.08276e-13
6.86936e-13
-1.01448e-13
7.80506e-13
-9.36592e-14
8.6559e-13
-8.5166e-14
9.41688e-13
-7.61769e-14
1.0086e-12
-6.69791e-14
1.06624e-12
-5.77037e-14
1.11486e-12
-4.86813e-14
1.15493e-12
-4.01242e-14
1.18669e-12
-3.17942e-14
1.21068e-12
-2.40247e-14
1.22746e-12
-1.67974e-14
1.23822e-12
-1.07821e-14
1.24561e-12
-7.38704e-15
1.24871e-12
-3.09378e-15
1.24779e-12
9.35534e-16
1.24414e-12
3.67862e-15
1.2422e-12
1.97812e-15
1.23799e-12
4.26504e-15
1.23407e-12
3.9827e-15
1.23147e-12
2.67233e-15
1.23007e-12
1.47501e-15
1.23037e-12
-2.05376e-16
1.2327e-12
-2.22943e-15
1.23708e-12
-4.26755e-15
1.24373e-12
-6.53083e-15
1.25257e-12
-8.70577e-15
1.26343e-12
-1.0729e-14
1.27619e-12
-1.2616e-14
1.29047e-12
-1.41335e-14
1.30608e-12
-1.54527e-14
1.32255e-12
-1.63103e-14
1.33957e-12
-1.6853e-14
1.35659e-12
-1.68512e-14
1.37331e-12
-1.65553e-14
1.38924e-12
-1.57534e-14
1.40403e-12
-1.46234e-14
1.41714e-12
-1.29388e-14
1.42831e-12
-1.10005e-14
1.43725e-12
-8.7743e-15
1.44338e-12
-5.96285e-15
1.44656e-12
-3.01992e-15
1.44661e-12
1.12354e-16
1.44358e-12
3.17636e-15
1.43697e-12
6.75209e-15
1.42686e-12
1.02496e-14
1.41319e-12
1.37985e-14
1.39581e-12
1.75056e-14
1.37494e-12
2.09765e-14
1.35054e-12
2.45112e-14
1.32269e-12
2.79467e-14
1.29168e-12
3.10862e-14
1.25744e-12
3.43124e-14
1.22033e-12
3.71799e-14
1.18019e-12
4.01918e-14
1.13757e-12
4.2658e-14
1.09258e-12
4.50194e-14
1.04537e-12
4.72303e-14
9.96083e-13
4.92913e-14
9.44965e-13
5.11141e-14
8.92181e-13
5.27702e-14
8.37979e-13
5.4176e-14
7.82473e-13
5.54715e-14
7.25845e-13
5.65823e-14
6.68314e-13
5.74768e-14
6.1021e-13
5.80411e-14
5.517e-13
5.84372e-14
4.93162e-13
5.84587e-14
4.35228e-13
5.78467e-14
3.79394e-13
5.57424e-14
3.29302e-13
4.99953e-14
2.96754e-13
3.2447e-14
3.20779e-13
-2.41328e-14
1.5972e-13
1.60951e-13
6.8885e-17
1.59542e-13
2.60398e-21
1.78674e-22
2.60019e-21
3.82571e-24
2.58515e-21
1.41138e-23
2.55128e-21
2.08863e-23
2.50791e-21
2.59528e-23
2.45854e-21
3.02438e-23
2.40482e-21
3.41729e-23
2.34811e-21
3.77401e-23
2.28922e-21
4.10488e-23
2.22837e-21
4.40991e-23
2.16644e-21
4.68391e-23
2.10357e-21
4.93723e-23
2.03998e-21
5.16471e-23
1.97572e-21
5.37667e-23
1.9111e-21
5.58347e-23
1.84601e-21
5.75408e-23
1.78035e-21
5.91434e-23
1.71438e-21
6.06427e-23
1.648e-21
6.21419e-23
1.581e-21
6.34344e-23
1.51338e-21
6.46752e-23
1.44519e-21
6.58126e-23
1.37617e-21
6.69499e-23
1.30653e-21
6.80873e-23
1.23596e-21
6.91213e-23
1.16457e-21
7.00519e-23
1.09224e-21
7.09824e-23
1.01888e-21
7.18613e-23
9.4464e-22
7.27402e-23
8.69625e-22
7.35157e-23
7.93576e-22
7.41361e-23
7.16752e-22
7.48082e-23
6.38894e-22
7.54285e-23
5.60312e-22
7.59455e-23
4.81367e-22
7.64108e-23
4.01751e-22
7.6721e-23
3.21515e-22
7.69278e-23
2.40865e-22
7.71346e-23
1.60215e-22
7.70312e-23
7.96161e-23
7.68244e-23
7.57904e-23
1.25838e-13
-2.4935e-13
2.48243e-13
-2.44225e-13
3.67405e-13
-2.37986e-13
4.82224e-13
-2.29067e-13
5.91378e-13
-2.17592e-13
6.93547e-13
-2.03774e-13
7.87808e-13
-1.88068e-13
8.73409e-13
-1.70903e-13
9.49874e-13
-1.52768e-13
1.01684e-12
-1.34062e-13
1.07447e-12
-1.15426e-13
1.12289e-12
-9.71917e-14
1.16253e-12
-7.98402e-14
1.19368e-12
-6.29946e-14
1.21703e-12
-4.74154e-14
1.23263e-12
-3.24218e-14
1.24298e-12
-2.11388e-14
1.2495e-12
-1.38873e-14
1.25153e-12
-5.09011e-15
1.24953e-12
2.99433e-15
1.24561e-12
7.6709e-15
1.24244e-12
5.24313e-15
1.23766e-12
9.14866e-15
1.23309e-12
8.68056e-15
1.23014e-12
5.776e-15
1.2284e-12
3.38076e-15
1.22835e-12
2.62132e-17
1.23057e-12
-4.24839e-15
1.2349e-12
-8.38067e-15
1.24159e-12
-1.29901e-14
1.25055e-12
-1.74189e-14
1.26163e-12
-2.15546e-14
1.27464e-12
-2.53592e-14
1.28928e-12
-2.84939e-14
1.30516e-12
-3.10444e-14
1.32208e-12
-3.29356e-14
1.33946e-12
-3.39365e-14
1.35694e-12
-3.40258e-14
1.37408e-12
-3.33915e-14
1.39045e-12
-3.18164e-14
1.40554e-12
-2.9407e-14
1.41913e-12
-2.62306e-14
1.43065e-12
-2.22231e-14
1.43985e-12
-1.76822e-14
1.44632e-12
-1.21405e-14
1.44972e-12
-6.14743e-15
1.44998e-12
1.24388e-16
1.44701e-12
6.3966e-15
1.44061e-12
1.33926e-14
1.43052e-12
2.05753e-14
1.41689e-12
2.76418e-14
1.39945e-12
3.51457e-14
1.37846e-12
4.21439e-14
1.35402e-12
4.91234e-14
1.32608e-12
5.6033e-14
1.29489e-12
6.24009e-14
1.26054e-12
6.87696e-14
1.22313e-12
7.46785e-14
1.18286e-12
8.0535e-14
1.14008e-12
8.5488e-14
1.09488e-12
9.02429e-14
1.04752e-12
9.45997e-14
9.98082e-13
9.87231e-14
9.46768e-13
1.02397e-13
8.93843e-13
1.05648e-13
8.39422e-13
1.08528e-13
7.83646e-13
1.11164e-13
7.2683e-13
1.13298e-13
6.69171e-13
1.15023e-13
6.1078e-13
1.16304e-13
5.51864e-13
1.17212e-13
4.92712e-13
1.17459e-13
4.33576e-13
1.16817e-13
3.74383e-13
1.14758e-13
3.14115e-13
1.10083e-13
2.45712e-13
1.00658e-13
1.38543e-13
8.28422e-14
7.70033e-14
2.22292e-13
5.37147e-17
2.36334e-13
2.6139e-21
2.44851e-22
2.61048e-21
4.4978e-24
2.59192e-21
1.63885e-23
2.55635e-21
2.70385e-23
2.5122e-21
3.68612e-23
2.46247e-21
4.62187e-23
2.40844e-21
5.49558e-23
2.35147e-21
6.32276e-23
2.29227e-21
7.10341e-23
2.23111e-21
7.8272e-23
2.16902e-21
8.51996e-23
2.1059e-21
9.14035e-23
2.042e-21
9.7142e-23
1.97774e-21
1.02415e-22
1.91286e-21
1.07172e-22
1.84761e-21
1.11566e-22
1.7819e-21
1.15392e-22
1.71583e-21
1.19011e-22
1.64929e-21
1.22268e-22
1.58224e-21
1.25318e-22
1.51457e-21
1.28058e-22
1.44633e-21
1.30643e-22
1.37731e-21
1.32814e-22
1.30757e-21
1.35089e-22
1.23689e-21
1.37054e-22
1.16555e-21
1.3907e-22
1.09312e-21
1.40724e-22
1.01971e-21
1.42378e-22
9.45416e-22
1.43878e-22
8.70246e-22
1.45222e-22
7.94197e-22
1.46514e-22
7.17321e-22
1.47445e-22
6.39411e-22
1.48427e-22
5.60777e-22
1.49254e-22
4.81678e-22
1.50082e-22
4.01958e-22
1.50547e-22
3.2167e-22
1.50909e-22
2.40865e-22
1.51167e-22
1.59904e-22
1.51322e-22
7.85822e-23
1.51271e-22
1.51219e-22
1.27018e-13
-3.76472e-13
2.53461e-13
-3.70844e-13
3.76558e-13
-3.61235e-13
4.94615e-13
-3.47272e-13
6.06348e-13
-3.29464e-13
7.10649e-13
-3.08207e-13
8.0643e-13
-2.83978e-13
8.93042e-13
-2.57635e-13
9.69929e-13
-2.29764e-13
1.03698e-12
-2.01209e-13
1.09402e-12
-1.72554e-13
1.14158e-12
-1.44824e-13
1.1799e-12
-1.18223e-13
1.20954e-12
-9.26858e-14
1.2309e-12
-6.88089e-14
1.2441e-12
-4.56379e-14
1.25323e-12
-3.02702e-14
1.25782e-12
-1.84671e-14
1.25735e-12
-4.58942e-15
1.25308e-12
7.31318e-15
1.24879e-12
1.20246e-14
1.24333e-12
1.07792e-14
1.23709e-12
1.54761e-14
1.23138e-12
1.45046e-14
1.22755e-12
9.73754e-15
1.22486e-12
6.20842e-15
1.2243e-12
7.47033e-16
1.22614e-12
-5.91741e-15
1.23039e-12
-1.24446e-14
1.23714e-12
-1.95389e-14
1.24632e-12
-2.63851e-14
1.25783e-12
-3.28462e-14
1.27139e-12
-3.86882e-14
1.28673e-12
-4.35919e-14
1.30336e-12
-4.74235e-14
1.32105e-12
-5.03698e-14
1.33932e-12
-5.19438e-14
1.35762e-12
-5.20724e-14
1.37569e-12
-5.11954e-14
1.39291e-12
-4.87705e-14
1.40883e-12
-4.5058e-14
1.42307e-12
-4.02125e-14
1.43532e-12
-3.42044e-14
1.44515e-12
-2.72605e-14
1.45223e-12
-1.89735e-14
1.45615e-12
-9.82337e-15
1.45659e-12
-8.08201e-17
1.45388e-12
9.33145e-15
1.44765e-12
1.98361e-14
1.43767e-12
3.07552e-14
1.42408e-12
4.14167e-14
1.40658e-12
5.28271e-14
1.38545e-12
6.34314e-14
1.36074e-12
7.39705e-14
1.33246e-12
8.44428e-14
1.30105e-12
9.3923e-14
1.26636e-12
1.03555e-13
1.22865e-12
1.1247e-13
1.188e-12
1.2124e-13
1.14483e-12
1.28709e-13
1.09926e-12
1.35843e-13
1.05141e-12
1.4246e-13
1.00152e-12
1.48603e-13
9.49846e-13
1.54046e-13
8.96523e-13
1.58932e-13
8.41672e-13
1.63326e-13
7.85611e-13
1.67154e-13
7.28425e-13
1.70398e-13
6.70298e-13
1.73053e-13
6.11459e-13
1.75032e-13
5.51998e-13
1.7655e-13
4.92036e-13
1.77286e-13
4.31411e-13
1.77302e-13
3.69578e-13
1.7644e-13
3.04437e-13
1.75065e-13
2.3032e-13
1.74613e-13
1.31025e-13
1.8197e-13
7.16033e-14
2.81543e-13
5.07261e-17
3.07749e-13
2.62383e-21
3.77203e-22
2.62232e-21
6.66914e-24
2.60257e-21
2.26441e-23
2.56622e-21
3.79986e-23
2.52156e-21
5.27845e-23
2.4712e-21
6.70016e-23
2.41666e-21
8.0495e-23
2.35927e-21
9.32646e-23
2.29956e-21
1.05259e-22
2.23799e-21
1.16477e-22
2.17523e-21
1.26921e-22
2.11164e-21
1.36485e-22
2.04732e-21
1.45222e-22
1.98249e-21
1.53235e-22
1.9172e-21
1.60576e-22
1.85144e-21
1.67142e-22
1.78552e-21
1.73139e-22
1.71909e-21
1.78516e-22
1.65235e-21
1.83479e-22
1.58498e-21
1.87873e-22
1.5171e-21
1.91958e-22
1.44855e-21
1.95783e-22
1.37953e-21
1.99247e-22
1.30953e-21
2.02349e-22
1.23891e-21
2.05296e-22
1.16726e-21
2.08088e-22
1.09467e-21
2.10776e-22
1.02126e-21
2.13154e-22
9.46812e-22
2.15429e-22
8.71487e-22
2.17342e-22
7.95179e-22
2.19099e-22
7.18303e-22
2.20702e-22
6.40186e-22
2.22098e-22
5.61604e-22
2.23287e-22
4.82195e-22
2.24218e-22
4.02268e-22
2.25097e-22
3.21928e-22
2.25717e-22
2.41071e-22
2.26079e-22
1.59853e-22
2.26389e-22
7.85305e-23
2.26544e-22
2.26441e-22
1.32197e-13
-5.08767e-13
2.63095e-13
-5.01914e-13
3.90561e-13
-4.88846e-13
5.12719e-13
-4.69569e-13
6.27995e-13
-4.44879e-13
7.35139e-13
-4.15482e-13
8.33146e-13
-3.82108e-13
9.21223e-13
-3.45826e-13
9.98911e-13
-3.0756e-13
1.06588e-12
-2.68277e-13
1.12242e-12
-2.2917e-13
1.16874e-12
-1.9122e-13
1.20505e-12
-1.54591e-13
1.23271e-12
-1.20391e-13
1.25115e-12
-8.7287e-14
1.26095e-12
-5.54545e-14
1.26837e-12
-3.76848e-14
1.26973e-12
-1.98176e-14
1.26605e-12
-8.77112e-16
1.2578e-12
1.56092e-14
1.25351e-12
1.63756e-14
1.2441e-12
2.02665e-14
1.23598e-12
2.3689e-14
1.22855e-12
2.20446e-14
1.22318e-12
1.52374e-14
1.2193e-12
1.02242e-14
1.21795e-12
2.25837e-15
1.21923e-12
-7.0327e-15
1.22348e-12
-1.65071e-14
1.23022e-12
-2.60916e-14
1.23986e-12
-3.58114e-14
1.25203e-12
-4.48059e-14
1.26642e-12
-5.2846e-14
1.28277e-12
-5.97034e-14
1.30056e-12
-6.49714e-14
1.31949e-12
-6.90543e-14
1.33901e-12
-7.12091e-14
1.35869e-12
-7.14971e-14
1.37799e-12
-7.02377e-14
1.39647e-12
-6.6988e-14
1.41372e-12
-6.20538e-14
1.42916e-12
-5.53922e-14
1.44238e-12
-4.71665e-14
1.4531e-12
-3.77293e-14
1.46097e-12
-2.66015e-14
1.46586e-12
-1.44838e-14
1.46681e-12
-7.96631e-16
1.46435e-12
1.20084e-14
1.45846e-12
2.59318e-14
1.44857e-12
4.08443e-14
1.43494e-12
5.52253e-14
1.41735e-12
7.05837e-14
1.39596e-12
8.49825e-14
1.37099e-12
9.90876e-14
1.34238e-12
1.1317e-13
1.31046e-12
1.25957e-13
1.27521e-12
1.38897e-13
1.23694e-12
1.50819e-13
1.1958e-12
1.62437e-13
1.15202e-12
1.7254e-13
1.10582e-12
1.8207e-13
1.05741e-12
1.90875e-13
1.00701e-12
1.99004e-13
9.54781e-13
2.06248e-13
9.00891e-13
2.1278e-13
8.45457e-13
2.18706e-13
7.88784e-13
2.2376e-13
7.30992e-13
2.28105e-13
6.72343e-13
2.31605e-13
6.12834e-13
2.3443e-13
5.52676e-13
2.36588e-13
4.91973e-13
2.37857e-13
4.30602e-13
2.38533e-13
3.68024e-13
2.38872e-13
3.03556e-13
2.39377e-13
2.36789e-13
2.4122e-13
1.70196e-13
2.48398e-13
7.38204e-14
3.77751e-13
4.99715e-17
3.81384e-13
2.64203e-21
5.09554e-22
2.63829e-21
8.94389e-24
2.61798e-21
2.98819e-23
2.58106e-21
5.02512e-23
2.53577e-21
7.00519e-23
2.48464e-21
8.91287e-23
2.42948e-21
1.07327e-22
2.37127e-21
1.24646e-22
2.31073e-21
1.40828e-22
2.24848e-21
1.56027e-22
2.18479e-21
1.69986e-22
2.12043e-21
1.82807e-22
2.05539e-21
1.94543e-22
1.98978e-21
2.05193e-22
1.92376e-21
2.14808e-22
1.85749e-21
2.23649e-22
1.7909e-21
2.31455e-22
1.724e-21
2.38538e-22
1.65669e-21
2.45052e-22
1.58912e-21
2.50843e-22
1.52093e-21
2.56116e-22
1.45201e-21
2.60976e-22
1.38268e-21
2.65577e-22
1.31248e-21
2.69816e-22
1.2417e-21
2.73745e-22
1.16989e-21
2.77261e-22
1.09705e-21
2.80621e-22
1.02358e-21
2.83878e-22
9.48725e-22
2.86722e-22
8.73244e-22
2.89358e-22
7.96834e-22
2.91685e-22
7.19647e-22
2.93753e-22
6.41375e-22
2.95614e-22
5.62535e-22
2.97165e-22
4.83074e-22
2.98457e-22
4.02837e-22
2.99491e-22
3.2229e-22
3.00318e-22
2.4133e-22
3.00939e-22
1.60008e-22
3.01301e-22
7.84271e-23
3.01456e-22
3.01559e-22
1.39209e-13
-6.48073e-13
2.7643e-13
-6.39302e-13
4.09721e-13
-6.22282e-13
5.37314e-13
-5.97299e-13
6.57312e-13
-5.6501e-13
7.68344e-13
-5.26643e-13
8.69336e-13
-4.8322e-13
9.59435e-13
-4.36038e-13
1.03809e-12
-3.86323e-13
1.10517e-12
-3.35451e-13
1.16082e-12
-2.84896e-13
1.20537e-12
-2.35841e-13
1.23916e-12
-1.88438e-13
1.26394e-12
-1.45215e-13
1.27797e-12
-1.01343e-13
1.28465e-12
-6.21528e-14
1.28836e-12
-4.14016e-14
1.28522e-12
-1.66588e-14
1.27704e-12
7.33698e-15
1.26515e-12
2.75438e-14
1.25814e-12
2.34481e-14
1.24493e-12
3.3553e-14
1.23387e-12
3.48524e-14
1.22437e-12
3.16544e-14
1.21667e-12
2.306e-14
1.21133e-12
1.57049e-14
1.20898e-12
4.76231e-15
1.2096e-12
-7.48271e-15
1.21359e-12
-2.03248e-14
1.22073e-12
-3.30355e-14
1.23089e-12
-4.57682e-14
1.24391e-12
-5.76007e-14
1.25947e-12
-6.81843e-14
1.27722e-12
-7.7226e-14
1.2966e-12
-8.41042e-14
1.31732e-12
-8.95322e-14
1.3386e-12
-9.22386e-14
1.36016e-12
-9.28021e-14
1.38128e-12
-9.11012e-14
1.40151e-12
-8.69577e-14
1.42033e-12
-8.06235e-14
1.43733e-12
-7.21302e-14
1.45199e-12
-6.15837e-14
1.46399e-12
-4.94788e-14
1.473e-12
-3.53695e-14
1.47884e-12
-2.00922e-14
1.48076e-12
-2.48892e-15
1.47843e-12
1.45563e-14
1.47292e-12
3.1647e-14
1.46329e-12
5.06724e-14
1.44966e-12
6.90299e-14
1.43195e-12
8.84648e-14
1.41028e-12
1.06806e-13
1.38489e-12
1.24615e-13
1.35568e-12
1.42508e-13
1.32315e-12
1.58596e-13
1.2872e-12
1.74944e-13
1.24818e-12
1.89914e-13
1.20619e-12
2.04482e-13
1.16171e-12
2.17067e-13
1.11467e-12
2.29132e-13
1.06552e-12
2.40041e-13
1.01428e-12
2.50236e-13
9.61267e-13
2.59236e-13
9.06647e-13
2.67363e-13
8.50465e-13
2.74832e-13
7.93042e-13
2.81116e-13
7.34601e-13
2.86466e-13
6.75134e-13
2.90976e-13
6.14846e-13
2.9461e-13
5.54e-13
2.97314e-13
4.92565e-13
2.99161e-13
4.30794e-13
3.00167e-13
3.68791e-13
3.00726e-13
3.06303e-13
3.01709e-13
2.44926e-13
3.02438e-13
1.81946e-13
3.11214e-13
7.5698e-14
4.83832e-13
4.95428e-17
4.56901e-13
2.66353e-21
6.28669e-22
2.65923e-21
1.1322e-23
2.63834e-21
3.75333e-23
2.60086e-21
6.32793e-23
2.55485e-21
8.82498e-23
2.50289e-21
1.12393e-22
2.4468e-21
1.35503e-22
2.38745e-21
1.57216e-22
2.32583e-21
1.7774e-22
2.26244e-21
1.96714e-22
2.19761e-21
2.1424e-22
2.13211e-21
2.3037e-22
2.06604e-21
2.44949e-22
1.9994e-21
2.58184e-22
1.93255e-21
2.70126e-22
1.86529e-21
2.80776e-22
1.79798e-21
2.90496e-22
1.73051e-21
2.99233e-22
1.66253e-21
3.06987e-22
1.59434e-21
3.14122e-22
1.52579e-21
3.20533e-22
1.45661e-21
3.2653e-22
1.38692e-21
3.3201e-22
1.31646e-21
3.37128e-22
1.24517e-21
3.41884e-22
1.17325e-21
3.4633e-22
1.10031e-21
3.50466e-22
1.02638e-21
3.54395e-22
9.51361e-22
3.57859e-22
8.75519e-22
3.61116e-22
7.98901e-22
3.64115e-22
7.21508e-22
3.66803e-22
6.42978e-22
3.68974e-22
5.63879e-22
3.70887e-22
4.84108e-22
3.72593e-22
4.03716e-22
3.73886e-22
3.22859e-22
3.74971e-22
2.41744e-22
3.75695e-22
1.60215e-22
3.7616e-22
7.85822e-23
3.76419e-22
3.76419e-22
1.47949e-13
-7.96116e-13
2.93574e-13
-7.85091e-13
4.34804e-13
-7.63653e-13
5.6945e-13
-7.3208e-13
6.9564e-13
-6.9133e-13
8.11742e-13
-6.42869e-13
9.16596e-13
-5.88193e-13
1.00912e-12
-5.28667e-13
1.089e-12
-4.66309e-13
1.15619e-12
-4.02731e-13
1.2106e-12
-3.39388e-13
1.25226e-12
-2.77564e-13
1.28358e-12
-2.19814e-13
1.30335e-12
-1.65022e-13
1.31105e-12
-1.09073e-13
1.31607e-12
-6.71836e-14
1.31361e-12
-3.89503e-14
1.30447e-12
-7.49169e-15
1.28964e-12
2.21959e-14
1.27637e-12
4.08567e-14
1.26225e-12
3.76376e-14
1.24551e-12
5.03684e-14
1.23047e-12
4.99884e-14
1.21847e-12
4.37643e-14
1.20774e-12
3.39159e-14
1.20064e-12
2.29395e-14
1.19685e-12
8.7065e-15
1.19676e-12
-7.22218e-15
1.20052e-12
-2.39031e-14
1.20817e-12
-4.04884e-14
1.2191e-12
-5.64934e-14
1.23333e-12
-7.16234e-14
1.25048e-12
-8.51101e-14
1.2701e-12
-9.6613e-14
1.2916e-12
-1.05374e-13
1.31446e-12
-1.12143e-13
1.33805e-12
-1.15581e-13
1.36197e-12
-1.16473e-13
1.38542e-12
-1.143e-13
1.40785e-12
-1.09134e-13
1.42886e-12
-1.01371e-13
1.44786e-12
-9.0885e-14
1.46439e-12
-7.78642e-14
1.47797e-12
-6.28171e-14
1.48839e-12
-4.55439e-14
1.49513e-12
-2.66067e-14
1.49867e-12
-5.80064e-15
1.49646e-12
1.69781e-14
1.49134e-12
3.69751e-14
1.48204e-12
6.01637e-14
1.4682e-12
8.30492e-14
1.45051e-12
1.06328e-13
1.4283e-12
1.2917e-13
1.40229e-12
1.50763e-13
1.37239e-12
1.72531e-13
1.33909e-12
1.92007e-13
1.30227e-12
2.11857e-13
1.26225e-12
2.30003e-13
1.21933e-12
2.47466e-13
1.17371e-12
2.62726e-13
1.12572e-12
2.77146e-13
1.07562e-12
2.90155e-13
1.02348e-12
3.02371e-13
9.69458e-13
3.13233e-13
9.13876e-13
3.22904e-13
8.56799e-13
3.31857e-13
7.98532e-13
3.39316e-13
7.3913e-13
3.45783e-13
6.78755e-13
3.51256e-13
6.17576e-13
3.55681e-13
5.55795e-13
3.58981e-13
4.93636e-13
3.61191e-13
4.31462e-13
3.62205e-13
3.697e-13
3.62344e-13
3.08675e-13
3.62582e-13
2.52285e-13
3.58673e-13
1.90779e-13
3.72559e-13
6.32387e-14
6.11208e-13
4.87484e-17
5.19961e-13
2.68669e-21
7.51092e-22
2.68539e-21
1.41138e-23
2.66409e-21
4.58568e-23
2.62583e-21
7.70312e-23
2.57899e-21
1.07533e-22
2.526e-21
1.3695e-22
2.46851e-21
1.65023e-22
2.40797e-21
1.91544e-22
2.3448e-21
2.16359e-22
2.27997e-21
2.39314e-22
2.21379e-21
2.60303e-22
2.14669e-21
2.79535e-22
2.07927e-21
2.96958e-22
2.01134e-21
3.12571e-22
1.9432e-21
3.2653e-22
1.87501e-21
3.39144e-22
1.80672e-21
3.50311e-22
1.73827e-21
3.60392e-22
1.66961e-21
3.69388e-22
1.60075e-21
3.77556e-22
1.53173e-21
3.85156e-22
1.46209e-21
3.9198e-22
1.39199e-21
3.98391e-22
1.32127e-21
4.04285e-22
1.24966e-21
4.0992e-22
1.17734e-21
4.15141e-22
1.10423e-21
4.20104e-22
1.02994e-21
4.2455e-22
9.54618e-22
4.2879e-22
8.78518e-22
4.32719e-22
8.01538e-22
4.36234e-22
7.23628e-22
4.39388e-22
6.44891e-22
4.42128e-22
5.65533e-22
4.44506e-22
4.854e-22
4.46522e-22
4.0475e-22
4.48125e-22
3.23583e-22
4.49418e-22
2.42209e-22
4.504e-22
1.60421e-22
4.5102e-22
7.85305e-23
4.51382e-22
4.51641e-22
1.58974e-13
-9.5518e-13
3.15313e-13
-9.41588e-13
4.66585e-13
-9.15062e-13
6.10182e-13
-8.7581e-13
7.44118e-13
-8.25393e-13
8.66508e-13
-7.65379e-13
9.76034e-13
-6.97834e-13
1.07169e-12
-6.24431e-13
1.15306e-12
-5.47779e-13
1.21996e-12
-4.69717e-13
1.27212e-12
-3.91625e-13
1.311e-12
-3.1651e-13
1.33872e-12
-2.47586e-13
1.3507e-12
-1.77038e-13
1.3523e-12
-1.10704e-13
1.35398e-12
-6.88688e-14
1.34392e-12
-2.88963e-14
1.32735e-12
9.09692e-15
1.30324e-12
4.63412e-14
1.29095e-12
5.31987e-14
1.26557e-12
6.30782e-14
1.24527e-12
7.07515e-14
1.22519e-12
7.01547e-14
1.20995e-12
5.91124e-14
1.19574e-12
4.82488e-14
1.18632e-12
3.25038e-14
1.18103e-12
1.41445e-14
1.18012e-12
-6.14795e-15
1.18379e-12
-2.73955e-14
1.19195e-12
-4.84572e-14
1.20403e-12
-6.83678e-14
1.21986e-12
-8.7249e-14
1.23905e-12
-1.04075e-13
1.26101e-12
-1.18349e-13
1.28509e-12
-1.29215e-13
1.3108e-12
-1.37616e-13
1.3373e-12
-1.41835e-13
1.36408e-12
-1.43003e-13
1.39043e-12
-1.40398e-13
1.41579e-12
-1.34251e-13
1.43941e-12
-1.2474e-13
1.46086e-12
-1.12081e-13
1.47963e-12
-9.63893e-14
1.4951e-12
-7.80549e-14
1.5073e-12
-5.7506e-14
1.51523e-12
-3.43044e-14
1.52022e-12
-1.05759e-14
1.51922e-12
1.81931e-14
1.51402e-12
4.23784e-14
1.50505e-12
6.9323e-14
1.49108e-12
9.71887e-14
1.47323e-12
1.24343e-13
1.45032e-12
1.52235e-13
1.42355e-12
1.77669e-13
1.39274e-12
2.03455e-13
1.35831e-12
2.26551e-13
1.32045e-12
2.49803e-13
1.2792e-12
2.71332e-13
1.2351e-12
2.91621e-13
1.18813e-12
3.09744e-13
1.13904e-12
3.2626e-13
1.08763e-12
3.41573e-13
1.03427e-12
3.55721e-13
9.79249e-13
3.68233e-13
9.22524e-13
3.79593e-13
8.64353e-13
3.89977e-13
8.05082e-13
3.98519e-13
7.44677e-13
4.06109e-13
6.83192e-13
4.12648e-13
6.20864e-13
4.17902e-13
5.57938e-13
4.21793e-13
4.94642e-13
4.24363e-13
4.31521e-13
4.25192e-13
3.69667e-13
4.24057e-13
3.11197e-13
4.20904e-13
2.53443e-13
4.16276e-13
1.37621e-13
4.88224e-13
5.06072e-14
6.98061e-13
4.78122e-17
5.70392e-13
2.72143e-21
8.53662e-22
2.71713e-21
1.68021e-23
2.69526e-21
5.48007e-23
2.65639e-21
9.20756e-23
2.60836e-21
1.28472e-22
2.55408e-21
1.6342e-22
2.49504e-21
1.96662e-22
2.43274e-21
2.27992e-22
2.36775e-21
2.5715e-22
2.30101e-21
2.84033e-22
2.23303e-21
3.08538e-22
2.16411e-21
3.30665e-22
2.09489e-21
3.50673e-22
2.02535e-21
3.68509e-22
1.95582e-21
3.84432e-22
1.88618e-21
3.98546e-22
1.8168e-21
4.11161e-22
1.74726e-21
4.22379e-22
1.67783e-21
4.3246e-22
1.60835e-21
4.41611e-22
1.53861e-21
4.49935e-22
1.4685e-21
4.57586e-22
1.39794e-21
4.64669e-22
1.32685e-21
4.71493e-22
1.25494e-21
4.77697e-22
1.18225e-21
4.83642e-22
1.10868e-21
4.89277e-22
1.03418e-21
4.94551e-22
9.58599e-22
4.99514e-22
8.82033e-22
5.04063e-22
8.04692e-22
5.08303e-22
7.2642e-22
5.12025e-22
6.47269e-22
5.15334e-22
5.67549e-22
5.18125e-22
4.87003e-22
5.204e-22
4.06042e-22
5.22365e-22
3.24617e-22
5.23967e-22
2.42881e-22
5.25105e-22
1.60783e-22
5.25932e-22
7.8789e-23
5.26397e-22
5.26552e-22
1.7268e-13
-1.12795e-12
3.42276e-13
-1.11134e-12
5.05861e-13
-1.07878e-12
6.60591e-13
-1.03067e-12
8.04094e-13
-9.69019e-13
9.34252e-13
-8.95657e-13
1.04943e-12
-8.13122e-13
1.14881e-12
-7.23914e-13
1.23176e-12
-6.30831e-13
1.2976e-12
-5.3564e-13
1.34718e-12
-4.41279e-13
1.3836e-12
-3.52987e-13
1.40356e-12
-2.67597e-13
1.40596e-12
-1.79476e-13
1.40574e-12
-1.10512e-13
1.39729e-12
-6.04315e-14
1.37884e-12
-1.04405e-14
1.35189e-12
3.60702e-14
1.32317e-12
7.50943e-14
1.30277e-12
7.36428e-14
1.26925e-12
9.66654e-14
1.24291e-12
9.71777e-14
1.21817e-12
9.49836e-14
1.19749e-12
7.99035e-14
1.18009e-12
6.57678e-14
1.16785e-12
4.48822e-14
1.16092e-12
2.12303e-14
1.15897e-12
-4.0395e-15
1.1626e-12
-3.08462e-14
1.1715e-12
-5.71727e-14
1.18515e-12
-8.18203e-14
1.20307e-12
-1.04965e-13
1.22482e-12
-1.25608e-13
1.24977e-12
-1.43073e-13
1.27716e-12
-1.56378e-13
1.30615e-12
-1.66366e-13
1.33641e-12
-1.71859e-13
1.36674e-12
-1.7309e-13
1.3966e-12
-1.70005e-13
1.42531e-12
-1.62712e-13
1.45212e-12
-1.51306e-13
1.4765e-12
-1.36222e-13
1.49792e-12
-1.17567e-13
1.51589e-12
-9.57932e-14
1.52995e-12
-7.13368e-14
1.53976e-12
-4.38903e-14
1.5452e-12
-1.57925e-14
1.54709e-12
1.6508e-14
1.54096e-12
4.87078e-14
1.53234e-12
7.81217e-14
1.51835e-12
1.11353e-13
1.5001e-12
1.42758e-13
1.47659e-12
1.75893e-13
1.44871e-12
2.05685e-13
1.41692e-12
2.35368e-13
1.38093e-12
2.62645e-13
1.34177e-12
2.89059e-13
1.29897e-12
3.14207e-13
1.25363e-12
3.37018e-13
1.20499e-12
3.58424e-13
1.1544e-12
3.76875e-13
1.10173e-12
3.94255e-13
1.04699e-12
4.10454e-13
9.90533e-13
4.24667e-13
9.32486e-13
4.37601e-13
8.73244e-13
4.49164e-13
8.12743e-13
4.58956e-13
7.51061e-13
4.67712e-13
6.88424e-13
4.75195e-13
6.24795e-13
4.81425e-13
5.60416e-13
4.86058e-13
4.95511e-13
4.89144e-13
4.30304e-13
4.90266e-13
3.65803e-13
4.88417e-13
3.05021e-13
4.81538e-13
2.57433e-13
4.63712e-13
1.10047e-13
6.35455e-13
5.52068e-14
7.52744e-13
4.64481e-17
6.25425e-13
2.76114e-21
9.49616e-22
2.75513e-21
1.98006e-23
2.73259e-21
6.46752e-23
2.69273e-21
1.08619e-22
2.64326e-21
1.51167e-22
2.58732e-21
1.92009e-22
2.52636e-21
2.30732e-22
2.4619e-21
2.67024e-22
2.39469e-21
3.00525e-22
2.32546e-21
3.31286e-22
2.2551e-21
3.59203e-22
2.18412e-21
3.84329e-22
2.11272e-21
4.06766e-22
2.04128e-21
4.26618e-22
1.96993e-21
4.44196e-22
1.89884e-21
4.59654e-22
1.82802e-21
4.73302e-22
1.75735e-21
4.854e-22
1.68693e-21
4.96308e-22
1.61667e-21
5.06131e-22
1.54626e-21
5.15023e-22
1.47564e-21
5.23192e-22
1.40466e-21
5.30998e-22
1.33305e-21
5.38236e-22
1.26088e-21
5.45267e-22
1.18788e-21
5.51936e-22
1.11406e-21
5.58244e-22
1.03909e-21
5.64292e-22
9.63097e-22
5.69927e-22
8.86221e-22
5.75252e-22
8.08414e-22
5.80164e-22
7.2978e-22
5.84455e-22
6.50112e-22
5.88177e-22
5.69824e-22
5.91538e-22
4.88967e-22
5.94381e-22
4.07697e-22
5.96707e-22
3.25754e-22
5.98414e-22
2.43605e-22
5.99913e-22
1.613e-22
6.00895e-22
7.89441e-23
6.01567e-22
6.01929e-22
1.89426e-13
-1.31746e-12
3.75149e-13
-1.29721e-12
5.53897e-13
-1.25766e-12
7.22278e-13
-1.19917e-12
8.77362e-13
-1.12422e-12
1.01688e-12
-1.03529e-12
1.13889e-12
-9.35235e-13
1.24251e-12
-8.27633e-13
1.32672e-12
-7.15132e-13
1.39106e-12
-6.00065e-13
1.43852e-12
-4.88804e-13
1.4698e-12
-3.84338e-13
1.47804e-12
-2.75884e-13
1.47396e-12
-1.7543e-13
1.4691e-12
-1.05676e-13
1.44729e-12
-3.86256e-14
1.41722e-12
1.96336e-14
1.3793e-12
7.40119e-14
1.35111e-12
1.03318e-13
1.30969e-12
1.15107e-13
1.27344e-12
1.32982e-13
1.23768e-12
1.33021e-13
1.20811e-12
1.24643e-13
1.18048e-12
1.07644e-13
1.15954e-12
8.68326e-14
1.14423e-12
6.03245e-14
1.13523e-12
3.0376e-14
1.13251e-12
-1.15461e-15
1.1364e-12
-3.4563e-14
1.14626e-12
-6.68455e-14
1.162e-12
-9.73751e-14
1.18249e-12
-1.25252e-13
1.20743e-12
-1.50332e-13
1.23607e-12
-1.71496e-13
1.26741e-12
-1.87491e-13
1.30069e-12
-1.99413e-13
1.33527e-12
-2.06203e-13
1.36986e-12
-2.07444e-13
1.40391e-12
-2.03814e-13
1.43662e-12
-1.95181e-13
1.46729e-12
-1.81736e-13
1.49515e-12
-1.63837e-13
1.51964e-12
-1.41822e-13
1.54041e-12
-1.1633e-13
1.55691e-12
-8.76058e-14
1.56888e-12
-5.56417e-14
1.57533e-12
-2.2036e-14
1.57907e-12
1.29739e-14
1.5736e-12
5.43649e-14
1.56449e-12
8.74212e-14
1.55069e-12
1.25326e-13
1.53128e-12
1.62321e-13
1.50725e-12
2.00065e-13
1.47803e-12
2.3504e-13
1.44486e-12
2.68653e-13
1.40711e-12
3.00496e-13
1.36635e-12
3.29907e-13
1.32179e-12
3.58841e-13
1.27477e-12
3.84092e-13
1.22426e-12
4.08976e-13
1.17197e-12
4.29192e-13
1.11756e-12
4.48673e-13
1.06131e-12
4.66701e-13
1.00336e-12
4.82593e-13
9.43867e-13
4.97059e-13
8.83363e-13
5.09618e-13
8.2148e-13
5.20773e-13
7.58519e-13
5.30596e-13
6.94438e-13
5.39188e-13
6.295e-13
5.46264e-13
5.63561e-13
5.51885e-13
4.96674e-13
5.55912e-13
4.28817e-13
5.57995e-13
3.59555e-13
5.57544e-13
2.88493e-13
5.52457e-13
2.09257e-13
5.42799e-13
1.03599e-13
7.40959e-13
5.76403e-14
7.98548e-13
4.55444e-17
6.82897e-13
2.80415e-21
1.03068e-21
2.80001e-21
2.35746e-23
2.77648e-21
7.57387e-23
2.73533e-21
1.26765e-22
2.68415e-21
1.76138e-22
2.62609e-21
2.23442e-22
2.56266e-21
2.67955e-22
2.49545e-21
3.09366e-22
2.4254e-21
3.47364e-22
2.35333e-21
3.81899e-22
2.28028e-21
4.13125e-22
2.2065e-21
4.40836e-22
2.13258e-21
4.65393e-22
2.0588e-21
4.86951e-22
1.98539e-21
5.05873e-22
1.91244e-21
5.22365e-22
1.84012e-21
5.36737e-22
1.76825e-21
5.49403e-22
1.69675e-21
5.60777e-22
1.62557e-21
5.7091e-22
1.55443e-21
5.80216e-22
1.48339e-21
5.88953e-22
1.41189e-21
5.97069e-22
1.34014e-21
6.04979e-22
1.26755e-21
6.12527e-22
1.19424e-21
6.19817e-22
1.12005e-21
6.27055e-22
1.04473e-21
6.33776e-22
9.68473e-22
6.4029e-22
8.91132e-22
6.46338e-22
8.12757e-22
6.51922e-22
7.33451e-22
6.5704e-22
6.53473e-22
6.61538e-22
5.72616e-22
6.65363e-22
4.91242e-22
6.6862e-22
4.09403e-22
6.71361e-22
3.27253e-22
6.73532e-22
2.44587e-22
6.75083e-22
1.61972e-22
6.76324e-22
7.92543e-23
6.77202e-22
6.77564e-22
2.09793e-13
-1.52734e-12
4.15319e-13
-1.50288e-12
6.12494e-13
-1.45496e-12
7.97233e-13
-1.38403e-12
9.66377e-13
-1.29348e-12
1.11694e-12
-1.18597e-12
1.24687e-12
-1.06526e-12
1.35595e-12
-9.3681e-13
1.44016e-12
-7.99435e-13
1.50337e-12
-6.63357e-13
1.5495e-12
-5.34995e-13
1.56682e-12
-4.01718e-13
1.56497e-12
-2.74082e-13
1.56112e-12
-1.71614e-13
1.53805e-12
-8.26304e-14
1.5053e-12
-5.88125e-15
1.45682e-12
6.81133e-14
1.41715e-12
1.13708e-13
1.37285e-12
1.47656e-13
1.31945e-12
1.68556e-13
1.27353e-12
1.78965e-13
1.23031e-12
1.76317e-13
1.19225e-12
1.62797e-13
1.15875e-12
1.41245e-13
1.13292e-12
1.12789e-13
1.11427e-12
7.91048e-14
1.10308e-12
4.17104e-14
1.09977e-12
2.30743e-15
1.10405e-12
-3.86734e-14
1.11547e-12
-7.80888e-14
1.13362e-12
-1.15334e-13
1.15764e-12
-1.49065e-13
1.18648e-12
-1.78968e-13
1.21954e-12
-2.04339e-13
1.2557e-12
-2.23436e-13
1.29428e-12
-2.37772e-13
1.33387e-12
-2.45565e-13
1.37375e-12
-2.47083e-13
1.41267e-12
-2.42501e-13
1.45008e-12
-2.32358e-13
1.48507e-12
-2.16494e-13
1.51709e-12
-1.95626e-13
1.5453e-12
-1.69796e-13
1.5692e-12
-1.40007e-13
1.58842e-12
-1.06609e-13
1.6028e-12
-6.98111e-14
1.61129e-12
-3.03166e-14
1.61469e-12
9.77477e-15
1.61235e-12
5.68871e-14
1.60197e-12
9.79782e-14
1.588e-12
1.39468e-13
1.56734e-12
1.83131e-13
1.54294e-12
2.24611e-13
1.51194e-12
2.66166e-13
1.47679e-12
3.03922e-13
1.437e-12
3.4039e-13
1.39424e-12
3.72745e-13
1.34759e-12
4.05561e-13
1.29836e-12
4.33377e-13
1.24601e-12
4.61367e-13
1.19136e-12
4.8387e-13
1.13527e-12
5.04768e-13
1.07719e-12
5.24778e-13
1.01769e-12
5.42074e-13
9.56652e-13
5.58064e-13
8.94578e-13
5.71643e-13
8.31318e-13
5.83971e-13
7.66942e-13
5.94898e-13
7.01508e-13
6.04536e-13
6.3508e-13
6.12596e-13
5.67512e-13
6.19345e-13
4.98717e-13
6.2459e-13
4.28024e-13
6.28562e-13
3.54035e-13
6.31401e-13
2.73261e-13
6.33092e-13
1.69851e-13
6.46065e-13
1.02611e-13
8.08053e-13
5.52599e-14
8.45748e-13
4.45811e-17
7.37994e-13
2.85792e-21
1.06211e-21
2.85212e-21
2.71419e-23
2.82751e-21
8.77846e-23
2.7847e-21
1.4698e-22
2.73145e-21
2.04055e-22
2.67055e-21
2.5808e-22
2.60407e-21
3.08693e-22
2.5335e-21
3.55378e-22
2.45988e-21
3.97977e-22
2.38456e-21
4.3639e-22
2.30799e-21
4.70562e-22
2.23106e-21
5.00755e-22
2.15413e-21
5.27121e-22
2.07772e-21
5.50023e-22
2.00193e-21
5.69876e-22
1.92681e-21
5.86936e-22
1.85283e-21
6.01826e-22
1.77958e-21
6.14647e-22
1.70694e-21
6.26072e-22
1.63487e-21
6.36205e-22
1.56316e-21
6.45615e-22
1.49156e-21
6.54558e-22
1.4198e-21
6.63089e-22
1.34763e-21
6.71361e-22
1.27479e-21
6.79581e-22
1.20143e-21
6.87697e-22
1.12678e-21
6.95504e-22
1.05119e-21
7.03155e-22
9.74522e-22
7.10497e-22
8.96716e-22
7.17476e-22
8.17823e-22
7.24042e-22
7.38e-22
7.29935e-22
6.57298e-22
7.35157e-22
5.75873e-22
7.39603e-22
4.9393e-22
7.4348e-22
4.11574e-22
7.46686e-22
3.28804e-22
7.49167e-22
2.45879e-22
7.51183e-22
1.62799e-22
7.52683e-22
7.96678e-23
7.53665e-22
7.54182e-22
2.34598e-13
-1.76202e-12
4.63859e-13
-1.73228e-12
6.83258e-13
-1.67448e-12
8.87563e-13
-1.58845e-12
1.07372e-12
-1.47975e-12
1.23858e-12
-1.35094e-12
1.37714e-12
-1.20392e-12
1.48982e-12
-1.04959e-12
1.57564e-12
-8.8534e-13
1.64162e-12
-7.29419e-13
1.67342e-12
-5.66857e-13
1.67918e-12
-4.07532e-13
1.67687e-12
-2.7182e-13
1.65524e-12
-1.50016e-13
1.61921e-12
-4.66236e-14
1.56421e-12
4.91148e-14
1.51081e-12
1.21514e-13
1.45516e-12
1.69385e-13
1.39094e-12
2.11906e-13
1.32929e-12
2.30251e-13
1.2708e-12