0 	1.08887e-20 	0 	-1.81478e-20
0.010101 	1.03283e-20 	2.03275e-22 	-1.16021e-19
0.020202 	2.62782e-21 	-1.01041e-22 	-1.40582e-19
0.030303 	-6.47905e-20 	-1.35346e-22 	-7.02814e-20
0.040404 	6.24002e-20 	3.04487e-22 	-5.57071e-20
0.0505051 	-2.13706e-20 	1.35176e-22 	2.51955e-20
