/*--------------------------------*- C++ -*----------------------------------*\
  =========                 |
  \\      /  F ield         | OpenFOAM: The Open Source CFD Toolbox
   \\    /   O peration     | Website:  https://openfoam.org
    \\  /    A nd           | Version:  6
     \\/     M anipulation  |
\*---------------------------------------------------------------------------*/
FoamFile
{
    version     2.0;
    format      ascii;
    class       surfaceScalarField;
    location    "3800";
    object      phi;
}
// * * * * * * * * * * * * * * * * * * * * * * * * * * * * * * * * * * * * * //

dimensions      [0 3 -1 0 0 0 0];

internalField   nonuniform List<scalar> 
9440
(
-5.03702e-10
5.03702e-10
-8.67017e-10
3.63314e-10
-1.24708e-09
3.80061e-10
-1.58275e-09
3.35672e-10
-2.13232e-09
5.49575e-10
-2.48991e-09
3.57583e-10
-2.77079e-09
2.80877e-10
-3.12864e-09
3.57858e-10
-3.44042e-09
3.11774e-10
-3.70422e-09
2.638e-10
-3.89839e-09
1.94168e-10
-4.03009e-09
1.31707e-10
-4.09109e-09
6.10008e-11
-3.93204e-09
-1.59052e-10
-3.73257e-09
-1.99469e-10
-3.28408e-09
-4.48493e-10
-2.82369e-09
-4.60389e-10
-2.70456e-09
-1.19134e-10
-1.98894e-09
-7.15621e-10
-1.59706e-09
-3.9188e-10
-1.79356e-09
1.96506e-10
-9.74827e-10
-8.18735e-10
-7.45457e-10
-2.29369e-10
-4.2063e-10
-3.24827e-10
5.86133e-12
-4.26491e-10
1.93944e-10
-1.88083e-10
6.65443e-10
-4.71498e-10
9.08399e-10
-2.42956e-10
1.06171e-09
-1.53313e-10
1.45265e-09
-3.90937e-10
1.45273e-09
-7.92569e-14
1.63272e-09
-1.79991e-10
1.71162e-09
-7.88996e-11
2.6383e-09
-9.2668e-10
3.21702e-09
-5.78718e-10
3.78041e-09
-5.63393e-10
4.25391e-09
-4.73499e-10
4.57248e-09
-3.18565e-10
5.17254e-09
-6.00064e-10
5.60513e-09
-4.32592e-10
5.66301e-09
-5.78836e-11
5.89475e-09
-2.31737e-10
6.11209e-09
-2.17335e-10
6.29372e-09
-1.81635e-10
6.47513e-09
-1.81403e-10
6.69756e-09
-2.22436e-10
6.8432e-09
-1.4564e-10
6.96279e-09
-1.19588e-10
7.0245e-09
-6.17075e-11
6.98634e-09
3.81555e-11
6.9201e-09
6.62427e-11
6.83784e-09
8.22589e-11
6.78071e-09
5.71244e-11
6.72542e-09
5.5294e-11
6.69289e-09
3.2528e-11
6.67795e-09
1.4941e-11
6.6858e-09
-7.85432e-12
6.7318e-09
-4.5995e-11
6.7582e-09
-2.64027e-11
6.76015e-09
-1.94904e-12
6.71839e-09
4.1758e-11
6.67625e-09
4.21428e-11
6.60331e-09
7.29409e-11
6.49026e-09
1.13047e-10
6.37019e-09
1.20064e-10
6.12218e-09
2.48008e-10
5.95328e-09
1.68903e-10
5.5579e-09
3.9538e-10
5.3953e-09
1.62597e-10
4.93529e-09
4.6001e-10
4.85906e-09
7.62285e-11
4.44632e-09
4.1274e-10
4.32182e-09
1.24493e-10
3.65517e-09
6.66656e-10
3.35226e-09
3.02909e-10
2.2658e-09
1.08646e-09
1.79489e-09
4.70908e-10
8.30784e-10
9.64101e-10
5.99208e-10
2.31574e-10
-1.77165e-10
7.76371e-10
-4.01445e-10
2.24278e-10
-4.05103e-10
3.65602e-12
-3.63387e-10
-4.17177e-11
-2.67671e-10
-9.57187e-11
1.44107e-15
-2.67675e-10
3.90312e-19
-1.54163e-18
1.02596e-18
-6.3565e-19
1.29052e-18
-2.66912e-19
1.38529e-18
-9.74585e-20
1.39984e-18
-1.7329e-20
1.37834e-18
1.86987e-20
1.34471e-18
3.08234e-20
1.31235e-18
2.95762e-20
1.28862e-18
2.09698e-20
1.27711e-18
8.79997e-21
1.27881e-18
-4.3412e-21
1.29288e-18
-1.66232e-20
1.31721e-18
-2.67717e-20
1.34885e-18
-3.39562e-20
1.38441e-18
-3.77143e-20
1.42033e-18
-3.7888e-20
1.45312e-18
-3.45642e-20
1.47954e-18
-2.80168e-20
1.49678e-18
-1.86519e-20
1.50248e-18
-6.95944e-21
1.49483e-18
6.52993e-21
1.47253e-18
2.12787e-20
1.43482e-18
3.67686e-20
1.38142e-18
5.25208e-20
1.31248e-18
6.81068e-20
1.22852e-18
8.31559e-20
1.1304e-18
9.73562e-20
1.0192e-18
1.10453e-19
8.96224e-19
1.22242e-19
7.62942e-19
1.32568e-19
6.2093e-19
1.41311e-19
4.71857e-19
1.48383e-19
3.17458e-19
1.53718e-19
1.59534e-19
1.5725e-19
1.58865e-19
-1.04672e-10
6.08373e-10
-7.39847e-10
9.98489e-10
-1.2636e-09
9.0381e-10
-2.05526e-09
1.12733e-09
-2.05513e-09
5.49449e-10
-2.32156e-09
6.24007e-10
-2.78078e-09
7.40105e-10
-3.00546e-09
5.82536e-10
-3.29589e-09
6.02202e-10
-3.57406e-09
5.41971e-10
-3.7035e-09
3.23613e-10
-3.80089e-09
2.29093e-10
-3.7837e-09
4.38103e-11
-3.64392e-09
-2.98837e-10
-3.55422e-09
-2.89162e-10
-3.54002e-09
-4.62698e-10
-3.49522e-09
-5.05189e-10
-2.93887e-09
-6.75482e-10
-2.50361e-09
-1.15088e-09
-2.26652e-09
-6.28977e-10
-1.83799e-09
-2.32019e-10
-1.04074e-09
-1.61599e-09
-8.03324e-10
-4.66782e-10
-2.4799e-10
-8.80161e-10
-3.69316e-11
-6.37549e-10
4.7984e-10
-7.04854e-10
6.21255e-10
-6.12913e-10
9.26826e-10
-5.48527e-10
9.78067e-10
-2.04554e-10
1.35546e-09
-7.6833e-10
1.2249e-09
1.30481e-10
1.5699e-09
-5.24991e-10
1.76594e-09
-2.74937e-10
2.2533e-09
-1.41404e-09
2.9968e-09
-1.32222e-09
3.5004e-09
-1.06699e-09
4.0297e-09
-1.0028e-09
4.36486e-09
-6.53725e-10
4.836e-09
-1.0712e-09
5.31967e-09
-9.16267e-10
5.71211e-09
-4.5032e-10
5.92694e-09
-4.46565e-10
6.04168e-09
-3.3208e-10
6.14972e-09
-2.89676e-10
6.2569e-09
-2.88586e-10
6.28057e-09
-2.46101e-10
6.42565e-09
-2.90719e-10
6.55071e-09
-2.4465e-10
6.71472e-09
-2.2572e-10
6.80538e-09
-5.25017e-11
6.76299e-09
1.08627e-10
6.72992e-09
1.15336e-10
6.73571e-09
5.13262e-11
6.75924e-09
3.17657e-11
6.76987e-09
2.18977e-11
6.76936e-09
1.54538e-11
6.76219e-09
-6.83088e-13
6.75298e-09
-3.67878e-11
6.7336e-09
-7.02384e-12
6.69713e-09
3.4517e-11
6.63803e-09
1.0086e-10
6.57548e-09
1.04689e-10
6.4475e-09
2.00916e-10
6.38731e-09
1.73238e-10
6.21814e-09
2.89238e-10
6.15644e-09
3.09706e-10
5.95623e-09
3.69104e-10
5.89041e-09
4.61201e-10
5.61673e-09
4.36272e-10
5.51742e-09
5.59324e-10
5.15815e-09
4.3549e-10
4.97254e-09
5.98353e-10
4.49301e-09
6.04017e-10
4.42811e-09
7.31547e-10
3.79536e-09
9.35663e-10
3.52007e-09
1.36174e-09
2.73385e-09
1.25712e-09
2.52888e-09
1.16908e-09
1.55176e-09
1.20869e-09
1.05359e-09
1.27453e-09
9.07168e-10
3.70694e-10
5.74917e-10
3.35903e-10
5.4652e-10
-1.33247e-11
2.81262e-10
1.69535e-10
1.05467e-15
1.3583e-11
1.29696e-18
-1.12792e-18
1.39542e-18
-7.36556e-19
1.4607e-18
-3.36787e-19
1.46613e-18
-1.07762e-19
1.43594e-18
7.92346e-21
1.39047e-18
5.92445e-20
1.34347e-18
7.29279e-20
1.30374e-18
6.44692e-20
1.27645e-18
4.35229e-20
1.26397e-18
1.66698e-20
1.26653e-18
-1.13484e-20
1.28273e-18
-3.70785e-20
1.31002e-18
-5.80846e-20
1.34509e-18
-7.27851e-20
1.38424e-18
-8.03245e-20
1.42366e-18
-8.04544e-20
1.45966e-18
-7.34122e-20
1.48891e-18
-5.98039e-20
1.50847e-18
-4.04936e-20
1.51597e-18
-1.6503e-20
1.50958e-18
1.10728e-20
1.48802e-18
4.11342e-20
1.45057e-18
7.26287e-20
1.397e-18
1.04588e-19
1.32753e-18
1.36153e-19
1.24272e-18
1.6658e-19
1.14349e-18
1.9525e-19
1.03099e-18
2.21657e-19
9.06549e-19
2.45403e-19
7.71685e-19
2.66181e-19
6.28003e-19
2.83761e-19
4.77192e-19
2.97978e-19
3.20991e-19
3.08715e-19
1.61149e-19
3.15894e-19
3.19489e-19
-4.15587e-10
1.02396e-09
-9.26414e-10
1.50932e-09
-1.25449e-09
1.23189e-09
-1.58689e-09
1.45973e-09
-1.98298e-09
9.45541e-10
-2.30995e-09
9.50974e-10
-2.64308e-09
1.07324e-09
-2.9854e-09
9.24859e-10
-3.23136e-09
8.4816e-10
-3.43951e-09
7.50115e-10
-3.61072e-09
4.94825e-10
-3.65356e-09
2.71935e-10
-3.5642e-09
-4.55517e-11
-3.6017e-09
-2.61339e-10
-3.57853e-09
-3.12331e-10
-3.49086e-09
-5.50371e-10
-3.47008e-09
-5.25961e-10
-3.05465e-09
-1.09091e-09
-2.89054e-09
-1.31499e-09
-2.59093e-09
-9.28584e-10
-1.97884e-09
-8.44113e-10
-1.64018e-09
-1.95466e-09
-1.39003e-09
-7.16927e-10
-9.18048e-10
-1.35214e-09
-6.27802e-10
-9.27795e-10
-1.47414e-10
-1.18524e-09
5.69854e-11
-8.17312e-10
2.3028e-10
-7.21821e-10
5.56992e-10
-5.31266e-10
1.07674e-09
-1.28808e-09
1.25264e-09
-4.5424e-11
1.60155e-09
-8.73899e-10
2.09661e-09
-7.69992e-10
1.97e-09
-1.28744e-09
2.89077e-09
-2.24298e-09
3.32061e-09
-1.49683e-09
3.81773e-09
-1.49992e-09
4.28468e-09
-1.12068e-09
4.73067e-09
-1.51719e-09
5.044e-09
-1.22959e-09
5.40233e-09
-8.08649e-10
5.64972e-09
-6.93961e-10
5.88614e-09
-5.68493e-10
5.99636e-09
-3.99903e-10
6.11655e-09
-4.08771e-10
6.15074e-09
-2.80298e-10
6.19309e-09
-3.3306e-10
6.24758e-09
-2.99148e-10
6.26787e-09
-2.46008e-10
6.30286e-09
-8.74925e-11
6.40969e-09
1.79758e-12
6.57382e-09
-4.87961e-11
6.67563e-09
-5.04824e-11
6.75579e-09
-4.83974e-11
6.788e-09
-1.03073e-11
6.78991e-09
1.35447e-11
6.7616e-09
2.7627e-11
6.71115e-09
1.36613e-11
6.64157e-09
6.25519e-11
6.55871e-09
1.17375e-10
6.49871e-09
1.60857e-10
6.41597e-09
1.87436e-10
6.36737e-09
2.49515e-10
6.26167e-09
2.78933e-10
6.18898e-09
3.61927e-10
6.09366e-09
4.05023e-10
5.99062e-09
4.72147e-10
5.95908e-09
4.92737e-10
5.77376e-09
6.21583e-10
5.71898e-09
6.14107e-10
5.46061e-09
6.93861e-10
5.26193e-09
7.9703e-10
4.93884e-09
9.27104e-10
4.6507e-09
1.01968e-09
4.20412e-09
1.38224e-09
4.0674e-09
1.49846e-09
3.62114e-09
1.70337e-09
3.22584e-09
1.56438e-09
2.62738e-09
1.80714e-09
2.43072e-09
1.47119e-09
1.92526e-09
8.76152e-10
1.53348e-09
7.27685e-10
7.23761e-10
7.96388e-10
1.82695e-10
7.10598e-10
9.1418e-16
1.96274e-10
1.68901e-18
-3.05507e-18
1.79589e-18
-8.45402e-19
1.69044e-18
-2.3512e-19
1.58252e-18
-3.85913e-21
1.4873e-18
9.90843e-20
1.40415e-18
1.38328e-19
1.33501e-18
1.38037e-19
1.28279e-18
1.12708e-19
1.2496e-18
7.28275e-20
1.23595e-18
2.65205e-20
1.2408e-18
-1.98764e-20
1.26173e-18
-6.15578e-20
1.29532e-18
-9.50866e-20
1.33755e-18
-1.18251e-19
1.38411e-18
-1.29915e-19
1.4307e-18
-1.29849e-19
1.47327e-18
-1.1855e-19
1.50822e-18
-9.70663e-20
1.53246e-18
-6.6819e-20
1.54355e-18
-2.94507e-20
1.53964e-18
1.33061e-20
1.51951e-18
5.97326e-20
1.48253e-18
1.08202e-19
1.42857e-18
1.57232e-19
1.35796e-18
2.05517e-19
1.27139e-18
2.51942e-19
1.1699e-18
2.95585e-19
1.05473e-18
3.35699e-19
9.27327e-19
3.71705e-19
7.89265e-19
4.0316e-19
6.4222e-19
4.29741e-19
4.87929e-19
4.51216e-19
3.2817e-19
4.6743e-19
1.64744e-19
4.78284e-19
4.83727e-19
2.06881e-10
8.17079e-10
-1.70729e-10
1.88693e-09
-1.01071e-09
2.07187e-09
-1.3998e-09
1.84882e-09
-1.91799e-09
1.46374e-09
-2.31274e-09
1.34572e-09
-2.56836e-09
1.32886e-09
-2.85501e-09
1.21151e-09
-3.05211e-09
1.04526e-09
-3.23155e-09
9.29555e-10
-3.42084e-09
6.84122e-10
-3.50398e-09
3.55067e-10
-3.48974e-09
-5.97866e-11
-3.57732e-09
-1.7376e-10
-3.50581e-09
-3.83838e-10
-3.54727e-09
-5.08915e-10
-3.13825e-09
-9.34978e-10
-2.9701e-09
-1.25906e-09
-3.05385e-09
-1.23124e-09
-2.69702e-09
-1.28541e-09
-2.36056e-09
-1.18057e-09
-2.23128e-09
-2.08394e-09
-1.96703e-09
-9.81178e-10
-1.3606e-09
-1.95858e-09
-7.55805e-10
-1.53259e-09
-4.19865e-10
-1.52118e-09
4.11694e-11
-1.27835e-09
3.97442e-10
-1.07809e-09
1.02148e-09
-1.1553e-09
1.06254e-09
-1.32914e-09
1.90114e-09
-8.84023e-10
2.12702e-09
-1.09978e-09
2.69005e-09
-1.33302e-09
2.55659e-09
-1.15397e-09
2.64822e-09
-2.33462e-09
3.28262e-09
-2.13123e-09
3.61926e-09
-1.83656e-09
4.21548e-09
-1.7169e-09
4.62675e-09
-1.92846e-09
5.0196e-09
-1.62244e-09
5.28747e-09
-1.07652e-09
5.38601e-09
-7.925e-10
5.47132e-09
-6.538e-10
5.59258e-09
-5.21166e-10
5.74906e-09
-5.65248e-10
5.88066e-09
-4.11904e-10
5.926e-09
-3.78399e-10
6.02955e-09
-4.02697e-10
6.0357e-09
-2.52159e-10
6.23378e-09
-2.85567e-10
6.3243e-09
-8.87285e-11
6.43155e-09
-1.56044e-10
6.50658e-09
-1.25516e-10
6.53405e-09
-7.58655e-11
6.56084e-09
-3.71037e-11
6.56281e-09
1.15777e-11
6.53188e-09
5.85565e-11
6.50665e-09
3.88877e-11
6.44637e-09
1.2283e-10
6.37692e-09
1.86829e-10
6.30679e-09
2.30991e-10
6.22421e-09
2.70007e-10
6.12652e-09
3.47203e-10
6.08351e-09
3.21942e-10
6.05013e-09
3.95308e-10
5.99858e-09
4.56578e-10
5.96028e-09
5.10442e-10
5.90685e-09
5.46164e-10
5.82919e-09
6.9924e-10
5.70113e-09
7.42165e-10
5.51313e-09
8.81862e-10
5.30616e-09
1.004e-09
4.94623e-09
1.28703e-09
4.60378e-09
1.36213e-09
4.28951e-09
1.6965e-09
3.81725e-09
1.97072e-09
3.5297e-09
1.99091e-09
3.07548e-09
2.0186e-09
2.91357e-09
1.96905e-09
2.52378e-09
1.86098e-09
1.55492e-09
1.845e-09
7.9327e-10
1.48934e-09
7.20532e-10
8.69123e-10
7.19618e-10
7.1151e-10
8.3225e-16
9.15889e-10
3.89922e-18
3.02861e-18
2.40686e-18
6.45151e-19
1.9224e-18
2.45885e-19
1.68613e-18
2.28744e-19
1.52655e-18
2.54969e-19
1.40386e-18
2.57312e-19
1.30968e-18
2.2854e-19
1.24291e-18
1.75854e-19
1.20329e-18
1.08907e-19
1.18956e-18
3.67962e-20
1.19912e-18
-3.2813e-20
1.2282e-18
-9.3928e-20
1.27216e-18
-1.42251e-19
1.32589e-18
-1.75086e-19
1.38418e-18
-1.91173e-19
1.442e-18
-1.9047e-19
1.49476e-18
-1.73912e-19
1.53846e-18
-1.43155e-19
1.56983e-18
-1.00334e-19
1.58631e-18
-4.7847e-20
1.58606e-18
1.18258e-20
1.56798e-18
7.62638e-20
1.53156e-18
1.43208e-19
1.47685e-18
2.10628e-19
1.40438e-18
2.76759e-19
1.31504e-18
3.40113e-19
1.21002e-18
3.99475e-19
1.09074e-18
4.53879e-19
9.58782e-19
5.02586e-19
8.15845e-19
5.45042e-19
6.63695e-19
5.80852e-19
5.04143e-19
6.09742e-19
3.39024e-19
6.31532e-19
1.70187e-19
6.4611e-19
6.53416e-19
-7.37925e-10
1.555e-09
-7.04678e-10
1.85368e-09
-6.749e-10
2.04209e-09
-1.02614e-09
2.20005e-09
-1.55606e-09
1.99366e-09
-2.11881e-09
1.90847e-09
-2.42698e-09
1.63703e-09
-2.68446e-09
1.46898e-09
-2.86292e-09
1.22372e-09
-3.01288e-09
1.07951e-09
-3.04745e-09
7.187e-10
-3.04549e-09
3.53099e-10
-3.23724e-09
1.31968e-10
-3.30105e-09
-1.09956e-10
-3.19272e-09
-4.92168e-10
-3.16367e-09
-5.37958e-10
-2.97537e-09
-1.12328e-09
-2.92868e-09
-1.30576e-09
-2.99872e-09
-1.1612e-09
-2.71973e-09
-1.5644e-09
-2.32112e-09
-1.57917e-09
-2.28345e-09
-2.12161e-09
-1.60621e-09
-1.65842e-09
-1.23901e-09
-2.32578e-09
-8.20984e-10
-1.95062e-09
-3.72306e-10
-1.96986e-09
2.31833e-10
-1.88248e-09
7.30376e-10
-1.57664e-09
1.35921e-09
-1.78413e-09
1.34361e-09
-1.31354e-09
1.81516e-09
-1.35557e-09
2.21503e-09
-1.49965e-09
2.56659e-09
-1.68458e-09
3.13446e-09
-1.72185e-09
2.86363e-09
-2.06379e-09
3.36243e-09
-2.63002e-09
3.68635e-09
-2.16048e-09
4.08106e-09
-2.11161e-09
4.32678e-09
-2.17418e-09
4.60409e-09
-1.89975e-09
4.93189e-09
-1.40432e-09
5.03872e-09
-8.9933e-10
5.03416e-09
-6.49237e-10
5.16647e-09
-6.53479e-10
5.1705e-09
-5.69279e-10
5.33467e-09
-5.76073e-10
5.28079e-09
-3.24519e-10
5.61906e-09
-7.40968e-10
5.64598e-09
-2.79084e-10
5.73841e-09
-3.77999e-10
5.90802e-09
-2.58331e-10
5.96768e-09
-2.15713e-10
5.99709e-09
-1.54922e-10
6.00555e-09
-8.43229e-11
6.00662e-09
-3.81723e-11
5.98565e-09
3.25461e-11
5.95826e-09
8.5944e-11
5.9317e-09
6.54434e-11
5.9053e-09
1.49229e-10
5.86857e-09
2.23561e-10
5.8366e-09
2.62959e-10
5.80429e-09
3.02316e-10
5.78419e-09
3.67299e-10
5.7309e-09
3.75235e-10
5.73574e-09
3.90472e-10
5.72611e-09
4.66204e-10
5.67174e-09
5.64809e-10
5.63315e-09
5.84753e-10
5.57584e-09
7.56545e-10
5.38711e-09
9.30894e-10
5.32537e-09
9.43602e-10
5.10085e-09
1.22851e-09
4.79717e-09
1.5907e-09
4.50371e-09
1.65559e-09
4.21276e-09
1.98745e-09
3.82696e-09
2.35652e-09
3.51811e-09
2.29976e-09
3.04484e-09
2.49186e-09
2.78355e-09
2.23035e-09
2.27222e-09
2.3723e-09
1.53365e-09
2.58358e-09
1.20262e-09
1.82036e-09
8.39625e-10
1.23211e-09
6.85782e-11
1.48255e-09
7.59256e-16
9.84464e-10
1.51674e-18
-6.29187e-19
2.00838e-18
1.51851e-19
1.90599e-18
3.45115e-19
1.71295e-18
4.18429e-19
1.52889e-18
4.35635e-19
1.37509e-18
4.07711e-19
1.25699e-18
3.43249e-19
1.17597e-18
2.53546e-19
1.13118e-18
1.50439e-19
1.11995e-18
4.48566e-20
1.138e-18
-5.3966e-20
1.17987e-18
-1.38838e-19
1.23932e-18
-2.04697e-19
1.3098e-18
-2.48525e-19
1.38488e-18
-2.69145e-19
1.45855e-18
-2.66941e-19
1.52551e-18
-2.43523e-19
1.58129e-18
-2.01393e-19
1.62232e-18
-1.43614e-19
1.64598e-18
-7.35245e-20
1.6505e-18
5.50143e-21
1.63493e-18
9.02322e-20
1.59898e-18
1.77704e-19
1.54299e-18
2.65299e-19
1.46774e-18
3.50777e-19
1.3744e-18
4.32285e-19
1.26442e-18
5.08336e-19
1.13944e-18
5.77775e-19
1.00124e-18
6.39735e-19
8.51655e-19
6.93588e-19
6.92585e-19
7.389e-19
5.25933e-19
7.75384e-19
3.53603e-19
8.02859e-19
1.77494e-19
8.21223e-19
8.30419e-19
-7.85425e-10
2.34043e-09
-1.40655e-09
2.4748e-09
-1.69324e-09
2.32878e-09
-1.66507e-09
2.17189e-09
-1.65821e-09
1.9868e-09
-1.76261e-09
2.01286e-09
-2.02984e-09
1.90426e-09
-2.30413e-09
1.74327e-09
-2.40494e-09
1.32453e-09
-2.56921e-09
1.24379e-09
-2.63527e-09
7.84753e-10
-2.61999e-09
3.37818e-10
-2.6648e-09
1.76785e-10
-2.67925e-09
-9.55106e-11
-2.51671e-09
-6.5471e-10
-2.40473e-09
-6.49937e-10
-2.65665e-09
-8.71355e-10
-2.4098e-09
-1.55261e-09
-2.52556e-09
-1.04544e-09
-2.17098e-09
-1.91898e-09
-1.98633e-09
-1.76383e-09
-1.90999e-09
-2.19794e-09
-1.26676e-09
-2.30164e-09
-1.05621e-09
-2.53634e-09
-5.28491e-10
-2.47833e-09
5.1584e-13
-2.49887e-09
5.63698e-10
-2.44567e-09
1.30166e-09
-2.3146e-09
1.65269e-09
-2.13516e-09
2.29136e-09
-1.95221e-09
2.56953e-09
-1.63374e-09
2.75409e-09
-1.68421e-09
2.66934e-09
-1.59983e-09
2.99316e-09
-2.04568e-09
3.2097e-09
-2.28033e-09
3.28537e-09
-2.70569e-09
3.76785e-09
-2.64297e-09
4.11153e-09
-2.45529e-09
4.18175e-09
-2.2444e-09
4.29472e-09
-2.01272e-09
4.45926e-09
-1.56887e-09
4.51069e-09
-9.5075e-10
4.59366e-09
-7.32213e-10
4.4822e-09
-5.42015e-10
4.61847e-09
-7.05552e-10
4.76759e-09
-7.25194e-10
4.91289e-09
-4.69821e-10
4.95802e-09
-7.86095e-10
5.18016e-09
-5.01226e-10
5.21918e-09
-4.1702e-10
5.32722e-09
-3.66366e-10
5.34209e-09
-2.3059e-10
5.31299e-09
-1.2582e-10
5.29744e-09
-6.87725e-11
5.30721e-09
-4.79405e-11
5.2784e-09
6.13575e-11
5.25264e-09
1.117e-10
5.19591e-09
1.22176e-10
5.16768e-09
1.77456e-10
5.15075e-09
2.40488e-10
5.1516e-09
2.62106e-10
5.1632e-09
2.90716e-10
5.1957e-09
3.34795e-10
5.17028e-09
4.00655e-10
5.15988e-09
4.00874e-10
5.15828e-09
4.67799e-10
5.08671e-09
6.36377e-10
5.05634e-09
6.15118e-10
4.98725e-09
8.25637e-10
4.82474e-09
1.0934e-09
4.73982e-09
1.02852e-09
4.57036e-09
1.39797e-09
4.29941e-09
1.86164e-09
3.94678e-09
2.00822e-09
3.56944e-09
2.36479e-09
3.34648e-09
2.57947e-09
3.12599e-09
2.52025e-09
2.72445e-09
2.8934e-09
2.37941e-09
2.57538e-09
2.03339e-09
2.71832e-09
1.95424e-09
2.66272e-09
1.53419e-09
2.24041e-09
8.69795e-10
1.89651e-09
5.43757e-10
1.80859e-09
7.37962e-16
1.52822e-09
2.29851e-18
-6.80558e-19
2.20238e-18
2.46469e-19
1.98003e-18
5.64536e-19
1.73063e-18
6.64727e-19
1.50097e-18
6.62135e-19
1.31063e-18
5.94878e-19
1.16729e-18
4.83419e-19
1.07286e-18
3.44854e-19
1.0256e-18
1.94661e-19
1.02113e-18
4.63896e-20
1.05313e-18
-8.88189e-20
1.11401e-18
-2.02504e-19
1.19549e-18
-2.88934e-19
1.28918e-18
-3.44975e-19
1.38708e-18
-3.69811e-19
1.48197e-18
-3.64565e-19
1.56764e-18
-3.31855e-19
1.63906e-18
-2.75342e-19
1.69241e-18
-1.99298e-19
1.725e-18
-1.08239e-19
1.73523e-18
-6.61895e-21
1.7224e-18
1.01388e-19
1.68657e-18
2.12031e-19
1.62846e-18
3.22061e-19
1.54924e-18
4.28757e-19
1.45045e-18
5.2992e-19
1.33386e-18
6.23824e-19
1.2014e-18
7.09169e-19
1.05509e-18
7.85011e-19
8.96967e-19
8.50696e-19
7.29069e-19
9.05797e-19
5.53408e-19
9.50052e-19
3.71966e-19
9.83316e-19
1.8669e-19
1.00552e-18
1.01663e-18
-3.0309e-10
2.64352e-09
-4.02968e-10
2.57468e-09
-6.20185e-10
2.54599e-09
-8.99466e-10
2.45117e-09
-1.25799e-09
2.34532e-09
-1.49369e-09
2.24856e-09
-1.72571e-09
2.13628e-09
-2.06773e-09
2.08529e-09
-2.23658e-09
1.49338e-09
-2.21219e-09
1.2194e-09
-2.18142e-09
7.53981e-10
-2.23713e-09
3.93528e-10
-2.27671e-09
2.16368e-10
-2.23733e-09
-1.34891e-10
-2.23479e-09
-6.57248e-10
-2.16782e-09
-7.16909e-10
-2.09677e-09
-9.42409e-10
-1.99127e-09
-1.6581e-09
-1.71512e-09
-1.32159e-09
-1.6391e-09
-1.995e-09
-1.49643e-09
-1.9065e-09
-1.14256e-09
-2.55182e-09
-7.91554e-10
-2.65265e-09
-5.5664e-10
-2.77125e-09
-2.0841e-10
-2.82656e-09
1.41655e-10
-2.84893e-09
5.9577e-10
-2.89978e-09
1.16867e-09
-2.8875e-09
1.60743e-09
-2.57393e-09
2.03648e-09
-2.38126e-09
2.55303e-09
-2.15029e-09
2.96091e-09
-2.09209e-09
3.35676e-09
-1.99568e-09
3.45101e-09
-2.13993e-09
3.75526e-09
-2.58458e-09
3.8395e-09
-2.78993e-09
3.9727e-09
-2.77616e-09
4.11847e-09
-2.60106e-09
4.11765e-09
-2.24359e-09
4.12079e-09
-2.01586e-09
4.07376e-09
-1.52184e-09
4.03963e-09
-9.16616e-10
4.21151e-09
-9.04093e-10
3.9305e-09
-2.61004e-10
4.31449e-09
-1.08954e-09
4.46708e-09
-8.7779e-10
4.78278e-09
-7.85515e-10
4.73594e-09
-7.39255e-10
4.72357e-09
-4.88863e-10
4.7439e-09
-4.37347e-10
4.72175e-09
-3.44221e-10
4.70887e-09
-2.17709e-10
4.69255e-09
-1.09498e-10
4.65745e-09
-3.36696e-11
4.62549e-09
-1.59867e-11
4.59595e-09
9.08981e-11
4.573e-09
1.34647e-10
4.52879e-09
1.66384e-10
4.4994e-09
2.06853e-10
4.4913e-09
2.48583e-10
4.50252e-09
2.50888e-10
4.51277e-09
2.8046e-10
4.51151e-09
3.36063e-10
4.52319e-09
3.88968e-10
4.50622e-09
4.17844e-10
4.49556e-09
4.78456e-10
4.43228e-09
6.99655e-10
4.41296e-09
6.34442e-10
4.37458e-09
8.64012e-10
4.31884e-09
1.14914e-09
4.18897e-09
1.15839e-09
4.09957e-09
1.48737e-09
4.07563e-09
1.88558e-09
4.01368e-09
2.07017e-09
3.8815e-09
2.49697e-09
3.5562e-09
2.90477e-09
3.13324e-09
2.94321e-09
2.85772e-09
3.16893e-09
2.51195e-09
2.92115e-09
2.24047e-09
2.98979e-09
1.93569e-09
2.9675e-09
1.49474e-09
2.68136e-09
9.88751e-10
2.4025e-09
4.32291e-10
2.36505e-09
7.42913e-16
1.96051e-09
3.22621e-18
1.02856e-18
2.52116e-18
9.50139e-19
2.08093e-18
1.00196e-18
1.72833e-18
1.01438e-18
1.43371e-18
9.53747e-19
1.19917e-18
8.26375e-19
1.02872e-18
6.50811e-19
9.22667e-19
4.47893e-19
8.77327e-19
2.37067e-19
8.85917e-19
3.4992e-20
9.39448e-19
-1.45022e-19
1.02758e-18
-2.9321e-19
1.13945e-18
-4.03322e-19
1.26435e-18
-4.72399e-19
1.39233e-18
-5.0037e-19
1.51468e-18
-4.89529e-19
1.62416e-18
-4.4394e-19
1.71511e-18
-3.68837e-19
1.78347e-18
-2.70064e-19
1.82662e-18
-1.53606e-19
1.84324e-18
-2.52189e-20
1.83304e-18
1.0983e-19
1.7966e-18
2.46914e-19
1.73516e-18
3.82121e-19
1.65041e-18
5.12259e-19
1.54435e-18
6.34815e-19
1.4192e-18
7.47885e-19
1.27724e-18
8.50085e-19
1.12078e-18
9.40466e-19
9.52068e-19
1.01841e-18
7.73324e-19
1.08356e-18
5.86672e-19
1.13573e-18
3.94168e-19
1.17486e-18
1.978e-19
1.20093e-18
1.21396e-18
-1.67945e-10
2.81146e-09
-3.34681e-10
2.74142e-09
-4.29587e-10
2.6409e-09
-6.38305e-10
2.65989e-09
-8.79369e-10
2.58639e-09
-1.1218e-09
2.491e-09
-1.37323e-09
2.38771e-09
-1.40504e-09
2.1171e-09
-1.44005e-09
1.52839e-09
-1.48058e-09
1.25992e-09
-1.72651e-09
9.99915e-10
-1.85335e-09
5.20366e-10
-1.8725e-09
2.35516e-10
-1.7879e-09
-2.19492e-10
-1.66466e-09
-7.80483e-10
-1.60656e-09
-7.75009e-10
-1.4551e-09
-1.09387e-09
-1.55334e-09
-1.55987e-09
-1.41168e-09
-1.46325e-09
-1.47354e-09
-1.93314e-09
-9.4393e-10
-2.43611e-09
-7.241e-10
-2.77165e-09
-3.93981e-10
-2.98277e-09
-8.08907e-11
-3.08434e-09
2.64561e-10
-3.17201e-09
6.44856e-10
-3.22923e-09
9.14454e-10
-3.16938e-09
1.1661e-09
-3.13914e-09
1.6826e-09
-3.09043e-09
2.15471e-09
-2.85337e-09
2.49558e-09
-2.49116e-09
2.80877e-09
-2.40528e-09
3.18231e-09
-2.36922e-09
3.59987e-09
-2.5575e-09
3.82222e-09
-2.80693e-09
3.91592e-09
-2.88362e-09
3.97722e-09
-2.83746e-09
4.05584e-09
-2.67968e-09
4.00862e-09
-2.19637e-09
3.82154e-09
-1.82877e-09
3.61567e-09
-1.31598e-09
3.64125e-09
-9.42194e-10
3.75894e-09
-1.02178e-09
3.88624e-09
-3.88309e-10
3.81036e-09
-1.01366e-09
3.9396e-09
-1.00703e-09
4.08174e-09
-9.27651e-10
4.12505e-09
-7.82566e-10
4.15793e-09
-5.21745e-10
4.16379e-09
-4.43209e-10
4.1863e-09
-3.66732e-10
4.20417e-09
-2.35574e-10
4.13215e-09
-3.74805e-11
4.06314e-09
3.53342e-11
3.95402e-09
9.3142e-11
3.90268e-09
1.42232e-10
3.86556e-09
1.71772e-10
3.84056e-09
1.91376e-10
3.84059e-09
2.06826e-10
3.85872e-09
2.30456e-10
3.86461e-09
2.4499e-10
3.88064e-09
2.64434e-10
3.89193e-09
3.24765e-10
3.91363e-09
3.6727e-10
3.90928e-09
4.22196e-10
3.91388e-09
4.73855e-10
3.90173e-09
7.11799e-10
3.9022e-09
6.33971e-10
3.79e-09
9.76216e-10
3.6832e-09
1.25593e-09
3.34984e-09
1.49175e-09
3.08926e-09
1.74794e-09
3.00504e-09
1.96979e-09
2.53382e-09
2.54139e-09
2.63384e-09
2.39694e-09
2.58719e-09
2.95141e-09
2.51633e-09
3.01407e-09
2.30345e-09
3.3818e-09
1.81617e-09
3.40842e-09
1.46434e-09
3.34162e-09
1.00806e-09
3.42378e-09
6.39828e-10
3.04958e-09
3.34116e-10
2.7082e-09
1.30932e-10
2.56823e-09
7.47429e-16
2.09144e-09
3.14855e-18
2.04151e-18
2.57371e-18
1.52368e-18
2.09405e-18
1.47886e-18
1.66779e-18
1.43776e-18
1.30634e-18
1.31228e-18
1.0236e-18
1.10613e-18
8.25806e-19
8.45595e-19
7.11841e-19
5.5885e-19
6.75251e-19
2.70718e-19
7.05903e-19
1.54125e-21
7.9126e-19
-2.32996e-19
9.17473e-19
-4.21869e-19
1.07038e-18
-5.58561e-19
1.23637e-18
-6.40707e-19
1.40317e-18
-6.69519e-19
1.56027e-18
-6.49058e-19
1.69926e-18
-5.85424e-19
1.81388e-18
-4.85959e-19
1.89993e-18
-3.58536e-19
1.95501e-18
-2.10966e-19
1.97829e-18
-5.05612e-20
1.97012e-18
1.16157e-19
1.93181e-18
2.83609e-19
1.8653e-18
4.47208e-19
1.77296e-18
6.03322e-19
1.65742e-18
7.49194e-19
1.52141e-18
8.82824e-19
1.36762e-18
1.00284e-18
1.19872e-18
1.10838e-18
1.01722e-18
1.19895e-18
8.25495e-19
1.27433e-18
6.25796e-19
1.33449e-18
4.20237e-19
1.37947e-18
2.10832e-19
1.40939e-18
1.42433e-18
2.53812e-11
2.78608e-09
-2.63838e-11
2.79318e-09
-1.30122e-10
2.74464e-09
-2.5541e-10
2.78518e-09
-3.85976e-10
2.71695e-09
-4.45596e-10
2.55062e-09
-5.18595e-10
2.46071e-09
-7.83426e-10
2.38193e-09
-1.26918e-09
2.01415e-09
-1.2311e-09
1.22185e-09
-1.12488e-09
8.93698e-10
-1.04919e-09
4.44675e-10
-1.09055e-09
2.76875e-10
-1.07253e-09
-2.37518e-10
-1.03357e-09
-8.19446e-10
-1.06242e-09
-7.46159e-10
-9.07161e-10
-1.24912e-09
-1.00949e-09
-1.45754e-09
-8.73152e-10
-1.59958e-09
-4.80661e-10
-2.32563e-09
-4.75849e-11
-2.86919e-09
1.60541e-10
-2.97977e-09
2.12399e-10
-3.03462e-09
3.56289e-10
-3.22823e-09
6.34479e-10
-3.4502e-09
9.45258e-10
-3.54001e-09
1.24952e-09
-3.47364e-09
1.49333e-09
-3.38295e-09
1.71843e-09
-3.31552e-09
2.06257e-09
-3.19752e-09
2.39648e-09
-2.82506e-09
2.75906e-09
-2.76786e-09
3.20547e-09
-2.81563e-09
3.55475e-09
-2.90678e-09
3.76136e-09
-3.01353e-09
3.90385e-09
-3.02611e-09
3.89664e-09
-2.83025e-09
3.87482e-09
-2.65787e-09
3.77241e-09
-2.09395e-09
3.47794e-09
-1.5343e-09
3.28713e-09
-1.12517e-09
3.32442e-09
-9.79492e-10
3.29433e-09
-9.91682e-10
3.84927e-09
-9.43248e-10
3.76161e-09
-9.26005e-10
3.68689e-09
-9.32307e-10
3.72437e-09
-9.65129e-10
3.69833e-09
-7.56534e-10
3.72536e-09
-5.48774e-10
3.71228e-09
-4.30132e-10
3.59826e-09
-2.52704e-10
3.61818e-09
-2.55501e-10
3.49602e-09
8.46803e-11
3.46628e-09
6.50735e-11
3.35246e-09
2.06964e-10
3.38024e-09
1.14449e-10
3.3097e-09
2.42317e-10
3.27208e-09
2.28987e-10
3.25852e-09
2.20386e-10
3.27377e-09
2.1521e-10
3.28131e-09
2.37451e-10
3.29463e-09
2.51106e-10
3.31356e-09
3.05841e-10
3.28489e-09
3.95932e-10
3.29248e-09
4.14609e-10
3.33612e-09
4.30206e-10
3.16253e-09
8.85395e-10
3.35092e-09
4.45572e-10
3.28702e-09
1.04012e-09
3.41228e-09
1.13067e-09
3.42016e-09
1.48387e-09
3.45156e-09
1.71654e-09
3.40263e-09
2.01872e-09
3.41753e-09
2.52648e-09
3.14557e-09
2.6689e-09
2.60826e-09
3.48873e-09
2.0134e-09
3.60893e-09
1.60461e-09
3.79059e-09
1.19152e-09
3.82151e-09
8.12305e-10
3.72083e-09
4.26165e-10
3.80991e-09
6.39193e-11
3.41182e-09
-1.90725e-10
2.96285e-09
-1.34445e-10
2.51194e-09
7.83762e-16
1.95699e-09
2.63149e-18
3.31498e-20
2.52959e-18
1.62431e-18
2.05352e-18
1.95222e-18
1.54231e-18
1.94614e-18
1.10019e-18
1.75155e-18
7.63065e-19
1.44036e-18
5.39061e-19
1.06664e-18
4.23708e-19
6.71193e-19
4.06075e-19
2.85356e-19
4.71365e-19
-6.6629e-20
6.02386e-19
-3.66692e-19
7.80781e-19
-6.02703e-19
9.8823e-19
-7.68257e-19
1.20756e-18
-8.62183e-19
1.42363e-18
-8.87734e-19
1.6239e-18
-8.51554e-19
1.79872e-18
-7.6257e-19
1.9413e-18
-6.30936e-19
2.0475e-18
-4.67121e-19
2.11542e-18
-2.81185e-19
2.14501e-18
-8.22744e-20
2.13758e-18
1.2168e-19
2.09541e-18
3.24096e-19
2.02141e-18
5.19734e-19
1.91883e-18
7.04602e-19
1.79105e-18
8.75808e-19
1.64142e-18
1.03138e-18
1.47316e-18
1.17009e-18
1.28929e-18
1.29128e-18
1.0926e-18
1.39469e-18
8.85651e-19
1.48035e-18
6.70786e-19
1.54843e-18
4.50157e-19
1.59919e-18
2.25771e-19
1.63287e-18
1.64966e-18
-3.54109e-11
2.82149e-09
-6.54334e-11
2.8232e-09
-1.82955e-10
2.86216e-09
-3.21869e-10
2.92409e-09
-4.3595e-10
2.83103e-09
-4.99582e-10
2.61425e-09
-5.68224e-10
2.52935e-09
-4.55623e-10
2.26933e-09
-2.77522e-10
1.83605e-09
-3.69548e-10
1.31387e-09
-5.70774e-10
1.09492e-09
-6.35699e-10
5.09599e-10
-4.86562e-10
1.27738e-10
-4.83742e-10
-2.40338e-10
-5.90547e-10
-7.12641e-10
-4.73793e-10
-8.62912e-10
-5.2706e-10
-1.19586e-09
-3.72918e-10
-1.61169e-09
1.00364e-10
-2.07287e-09
2.68431e-10
-2.4937e-09
2.71349e-10
-2.8721e-09
5.3123e-10
-3.23965e-09
8.44714e-10
-3.34811e-09
9.99049e-10
-3.38257e-09
1.04386e-09
-3.49501e-09
1.17328e-09
-3.66943e-09
1.40651e-09
-3.70688e-09
1.64334e-09
-3.61978e-09
1.81969e-09
-3.49187e-09
1.96806e-09
-3.34589e-09
2.27214e-09
-3.12914e-09
2.60875e-09
-3.10446e-09
2.95522e-09
-3.16211e-09
3.31863e-09
-3.2702e-09
3.54837e-09
-3.24327e-09
3.6334e-09
-3.11113e-09
3.55371e-09
-2.75056e-09
3.31443e-09
-2.41859e-09
3.11343e-09
-1.89295e-09
3.01364e-09
-1.43451e-09
3.02105e-09
-1.13259e-09
3.11095e-09
-1.06938e-09
3.21e-09
-1.09073e-09
3.27755e-09
-1.0108e-09
3.21703e-09
-8.65486e-10
3.24754e-09
-9.62819e-10
3.29895e-09
-1.01654e-09
3.29348e-09
-7.51067e-10
3.26378e-09
-5.1907e-10
3.24332e-09
-4.09672e-10
3.06767e-09
-7.7056e-11
3.03185e-09
-2.19682e-10
2.96825e-09
1.48285e-10
2.88587e-09
1.47452e-10
2.83866e-09
2.54174e-10
2.7715e-09
1.81607e-10
2.7694e-09
2.44417e-10
2.76538e-09
2.33011e-10
2.7339e-09
2.51858e-10
2.71179e-09
2.37323e-10
2.70535e-09
2.43889e-10
2.69884e-09
2.57614e-10
2.7175e-09
2.87179e-10
2.74719e-09
3.66236e-10
2.84576e-09
3.16043e-10
2.8102e-09
4.65764e-10
2.81296e-09
8.82633e-10
2.94301e-09
3.15517e-10
2.60758e-09
1.37555e-09
2.37086e-09
1.36739e-09
2.197e-09
1.65773e-09
1.98599e-09
1.92755e-09
1.85184e-09
2.15287e-09
1.82185e-09
2.55647e-09
1.79107e-09
2.69967e-09
2.02824e-09
3.25156e-09
2.00241e-09
3.63475e-09
1.77297e-09
4.02002e-09
1.29109e-09
4.3034e-09
8.17192e-10
4.19473e-09
1.92153e-10
4.43495e-09
-4.63921e-10
4.06789e-09
-1.00259e-09
3.50152e-09
-5.70036e-10
2.07938e-09
8.62526e-16
1.38695e-09
4.22317e-18
7.4265e-18
2.85813e-18
2.98809e-18
2.04767e-18
2.75998e-18
1.34772e-18
2.64334e-18
7.89004e-19
2.30754e-18
3.8934e-19
1.83728e-18
1.43615e-19
1.30954e-18
3.78712e-20
7.74007e-19
5.40899e-20
2.66134e-19
1.71302e-19
-1.86808e-19
3.66375e-19
-5.64559e-19
6.15227e-19
-8.54084e-19
8.94304e-19
-1.0496e-18
1.18201e-18
-1.15196e-18
1.45981e-18
-1.16753e-18
1.71289e-18
-1.10666e-18
1.93036e-18
-9.82175e-19
2.10512e-18
-8.07949e-19
2.23343e-18
-5.97744e-19
2.31433e-18
-3.64356e-19
2.34896e-18
-1.19056e-19
2.33999e-18
1.28695e-19
2.29105e-18
3.71309e-19
2.20628e-18
6.02984e-19
2.09004e-18
8.19514e-19
1.94663e-18
1.01804e-18
1.78014e-18
1.19681e-18
1.59435e-18
1.35489e-18
1.3927e-18
1.49199e-18
1.17826e-18
1.60822e-18
9.53733e-19
1.70397e-18
7.21542e-19
1.77973e-18
4.83836e-19
1.83601e-18
2.42565e-19
1.87326e-18
1.8918e-18
-3.04502e-11
2.85194e-09
-4.83149e-11
2.84107e-09
-1.4618e-10
2.96002e-09
-1.81011e-10
2.95892e-09
-1.96384e-10
2.8464e-09
-2.10341e-10