0 	2.54069e-20 	0 	-3.62956e-20
0.010101 	9.35922e-22 	-1.01382e-22 	-7.61352e-21
0.020202 	2.96288e-20 	-1.01041e-22 	-1.10078e-19
0.030303 	-3.82343e-20 	-1.35176e-22 	-5.76409e-20
0.040404 	3.74753e-20 	1.35346e-22 	-2.19939e-20
0.0505051 	3.82343e-21 	-1.01893e-22 	-1.26494e-20
