0 	7.25912e-21 	0 	-3.2666e-20
0.010101 	-1.08926e-20 	-1.35176e-22 	1.27113e-20
0.020202 	5.0048e-20 	-1.01041e-22 	-1.29487e-19
0.030303 	-3.53195e-20 	3.40654e-25 	-7.11686e-20
0.040404 	3.11769e-20 	-1.35517e-22 	-3.25104e-21
0.0505051 	1.23662e-20 	3.34534e-23 	-8.39386e-21
