0 	2.73986e-28 	0 	-1.08887e-20
0.010101 	1.88261e-20 	2.71034e-22 	-7.12571e-20
0.020202 	4.85147e-20 	2.3741e-22 	-8.37657e-20
0.030303 	1.56172e-20 	-1.35176e-22 	-5.08099e-20
0.040404 	5.65405e-20 	3.3794e-23 	-5.23794e-21
0.0505051 	-7.23059e-20 	-1.35687e-22 	-1.6916e-20
