/*--------------------------------*- C++ -*----------------------------------*\
  =========                 |
  \\      /  F ield         | OpenFOAM: The Open Source CFD Toolbox
   \\    /   O peration     | Website:  https://openfoam.org
    \\  /    A nd           | Version:  6
     \\/     M anipulation  |
\*---------------------------------------------------------------------------*/
FoamFile
{
    version     2.0;
    format      ascii;
    class       volScalarField;
    location    "1700";
    object      T;
}
// * * * * * * * * * * * * * * * * * * * * * * * * * * * * * * * * * * * * * //

dimensions      [0 0 0 1 0 0 0];

internalField   nonuniform List<scalar> 
4800
(
552.508
552.424
552.34
552.256
552.173
552.09
552.008
551.926
551.845
551.764
551.684
551.603
551.523
551.443
551.363
551.282
551.2
551.117
551.033
550.948
550.861
550.773
550.684
550.594
550.505
550.419
550.335
550.256
550.18
550.109
550.041
549.976
549.913
549.851
549.79
549.73
549.669
549.608
549.547
549.485
549.422
549.358
549.293
549.226
549.158
549.089
549.019
548.947
548.874
548.799
548.723
548.645
548.565
548.484
548.4
548.315
548.227
548.137
548.044
547.949
547.851
547.749
547.644
547.536
547.423
547.306
547.185
547.06
546.929
546.795
546.656
546.514
546.37
546.222
546.074
545.924
545.774
545.625
545.476
545.328
545.18
545.036
544.894
544.756
544.621
544.49
544.361
544.235
544.112
543.99
543.87
543.751
543.634
543.517
543.402
543.287
543.173
543.06
542.947
542.834
542.722
542.61
542.498
542.386
542.275
542.163
542.052
541.94
541.829
541.718
541.607
541.496
541.384
541.273
541.162
541.051
540.939
540.828
540.717
540.606
552.508
552.423
552.339
552.255
552.171
552.088
552.006
551.923
551.842
551.761
551.68
551.6
551.52
551.439
551.359
551.278
551.197
551.114
551.031
550.946
550.859
550.772
550.684
550.595
550.508
550.422
550.34
550.261
550.187
550.116
550.049
549.984
549.922
549.86
549.8
549.74
549.68
549.619
549.558
549.497
549.434
549.371
549.306
549.24
549.172
549.103
549.033
548.961
548.888
548.813
548.737
548.659
548.579
548.498
548.414
548.329
548.241
548.151
548.058
547.963
547.865
547.763
547.658
547.55
547.437
547.32
547.198
547.072
546.941
546.806
546.667
546.524
546.379
546.231
546.082
545.932
545.781
545.63
545.479
545.327
545.178
545.033
544.891
544.753
544.618
544.487
544.359
544.233
544.11
543.988
543.868
543.75
543.632
543.516
543.401
543.286
543.172
543.059
542.946
542.833
542.721
542.609
542.497
542.386
542.274
542.163
542.052
541.94
541.829
541.718
541.607
541.495
541.384
541.273
541.162
541.051
540.939
540.828
540.717
540.606
552.507
552.422
552.337
552.252
552.168
552.084
552.001
551.918
551.836
551.754
551.673
551.593
551.513
551.432
551.352
551.272
551.19
551.109
551.026
550.942
550.856
550.77
550.684
550.597
550.511
550.428
550.348
550.271
550.199
550.13
550.064
550.001
549.939
549.879
549.819
549.76
549.7
549.641
549.581
549.52
549.458
549.395
549.331
549.266
549.198
549.13
549.06
548.989
548.916
548.841
548.765
548.687
548.607
548.525
548.442
548.356
548.268
548.178
548.085
547.99
547.892
547.791
547.686
547.577
547.464
547.346
547.223
547.095
546.963
546.827
546.686
546.542
546.395
546.245
546.093
545.94
545.786
545.632
545.477
545.323
545.173
545.026
544.884
544.746
544.612
544.481
544.354
544.229
544.106
543.985
543.865
543.747
543.63
543.514
543.399
543.285
543.171
543.058
542.945
542.832
542.72
542.608
542.497
542.385
542.274
542.162
542.051
541.94
541.829
541.718
541.606
541.495
541.384
541.273
541.162
541.051
540.939
540.828
540.717
540.606
552.507
552.42
552.334
552.248
552.163
552.078
551.994
551.91
551.827
551.745
551.664
551.583
551.503
551.423
551.343
551.263
551.182
551.101
551.019
550.936
550.853
550.768
550.684
550.599
550.517
550.436
550.359
550.285
550.215
550.149
550.085
550.023
549.963
549.904
549.846
549.788
549.73
549.672
549.614
549.554
549.494
549.432
549.369
549.304
549.237
549.169
549.1
549.029
548.956
548.881
548.805
548.727
548.647
548.565
548.481
548.395
548.307
548.217
548.125
548.03
547.932
547.831
547.726
547.616
547.502
547.383
547.259
547.13
546.996
546.857
546.714
546.567
546.417
546.263
546.107
545.949
545.79
545.631
545.472
545.316
545.164
545.016
544.874
544.736
544.603
544.473
544.346
544.222
544.1
543.98
543.861
543.743
543.627
543.511
543.396
543.282
543.169
543.056
542.943
542.831
542.719
542.607
542.496
542.384
542.273
542.162
542.05
541.939
541.828
541.717
541.606
541.495
541.384
541.273
541.161
541.05
540.939
540.828
540.717
540.606
552.506
552.418
552.331
552.243
552.157
552.07
551.985
551.901
551.817
551.735
551.653
551.572
551.492
551.412
551.332
551.253
551.173
551.092
551.011
550.93
550.848
550.766
550.684
550.604
550.524
550.447
550.373
550.302
550.236
550.172
550.11
550.051
549.993
549.936
549.88
549.824
549.769
549.713
549.656
549.599
549.54
549.479
549.417
549.353
549.288
549.22
549.151
549.08
549.007
548.933
548.856
548.778
548.697
548.615
548.531
548.444
548.356
548.266
548.174
548.079
547.981
547.88
547.775
547.666
547.551
547.43
547.305
547.173
547.036
546.895
546.749
546.598
546.444
546.285
546.124
545.96
545.794
545.627
545.464
545.304
545.15
545.001
544.858
544.722
544.59
544.461
544.336
544.213
544.092
543.973
543.855
543.738
543.622
543.507
543.393
543.279
543.166
543.053
542.941
542.829
542.717
542.606
542.494
542.383
542.272
542.161
542.05
541.938
541.827
541.716
541.605
541.494
541.383
541.272
541.161
541.05
540.939
540.828
540.717
540.606
552.505
552.416
552.326
552.237
552.149
552.062
551.975
551.89
551.806
551.723
551.641
551.56
551.48
551.4
551.321
551.241
551.162
551.083
551.003
550.924
550.844
550.764
550.685
550.607
550.531
550.458
550.389
550.322
550.259
550.199
550.14
550.084
550.029
549.974
549.921
549.868
549.815
549.762
549.708
549.652
549.596
549.537
549.476
549.413
549.348
549.281
549.212
549.141
549.068
548.993
548.916
548.837
548.756
548.674
548.589
548.502
548.414
548.323
548.231
548.136
548.039
547.938
547.833
547.723
547.608
547.486
547.358
547.223
547.083
546.938
546.788
546.633
546.474
546.31
546.143
545.972
545.799
545.626
545.455
545.289
545.13
544.979
544.838
544.703
544.573
544.447
544.324
544.202
544.083
543.965
543.848
543.732
543.617
543.503
543.389
543.276
543.163
543.05
542.938
542.827
542.715
542.604
542.492
542.381
542.27
542.159
542.048
541.938
541.827
541.716
541.605
541.494
541.383
541.272
541.161
541.05
540.939
540.828
540.717
540.606
552.504
552.413
552.321
552.231
552.141
552.052
551.964
551.878
551.794
551.71
551.628
551.547
551.466
551.387
551.308
551.229
551.151
551.073
550.995
550.918
550.841
550.764
550.689
550.614
550.542
550.473
550.408
550.346
550.286
550.23
550.175
550.122
550.07
550.019
549.968
549.919
549.869
549.819
549.768
549.715
549.66
549.604
549.544
549.482
549.418
549.351
549.282
549.21
549.136
549.061
548.983
548.904
548.823
548.739
548.654
548.567
548.478
548.388
548.296
548.201
548.105
548.004
547.899
547.788
547.671
547.546
547.415
547.277
547.133
546.983
546.828
546.669
546.504
546.335
546.161
545.984
545.804
545.623
545.443
545.267
545.101
544.95
544.81
544.679
544.553
544.43
544.309
544.19
544.072
543.956
543.84
543.725
543.611
543.497
543.384
543.271
543.159
543.047
542.935
542.824
542.713
542.601
542.49
542.38
542.269
542.158
542.047
541.936
541.826
541.715
541.604
541.493
541.382
541.271
541.16
541.05
540.939
540.828
540.717
540.606
552.503
552.409
552.316
552.223
552.132
552.042
551.953
551.866
551.78
551.696
551.614
551.533
551.452
551.373
551.295
551.217
551.14
551.064
550.988
550.913
550.839
550.765
550.694
550.624
550.556
550.491
550.43
550.372
550.318
550.265
550.214
550.165
550.117
550.07
550.023
549.977
549.931
549.884
549.836
549.786
549.734
549.679
549.621
549.56
549.496
549.428
549.358
549.286
549.211
549.135
549.057
548.977
548.895
548.812
548.726
548.639
548.549
548.459
548.367
548.273
548.177
548.077
547.971
547.858
547.738
547.61
547.475
547.332
547.183
547.028
546.868
546.703
546.533
546.358
546.177
545.993
545.804
545.613
545.421
545.233
545.057
544.909
544.776
544.65
544.529
544.41
544.293
544.176
544.061
543.946
543.831
543.717
543.604
543.491
543.379
543.266
543.155
543.043
542.932
542.821
542.71
542.599
542.488
542.377
542.267
542.156
542.046
541.935
541.824
541.714
541.603
541.492
541.382
541.271
541.16
541.049
540.938
540.827
540.716
540.605
552.502
552.406
552.311
552.216
552.123
552.031
551.941
551.853
551.767
551.682
551.6
551.518
551.438
551.36
551.282
551.206
551.13
551.056
550.982
550.91
550.838
550.769
550.701
550.635
550.572
550.513
550.457
550.404
550.353
550.305
550.259
550.214
550.17
550.127
550.084
550.042
550
549.957
549.912
549.865
549.815
549.762
549.706
549.645
549.58
549.512
549.441
549.367
549.291
549.214
549.135
549.055
548.973
548.889
548.803
548.716
548.626
548.536
548.444
548.352
548.256
548.155
548.048
547.933
547.809
547.677
547.536
547.388
547.233
547.073
546.907
546.737
546.561
546.379
546.192
546
545.802
545.599
545.392
545.184
544.986
544.852
544.733
544.618
544.504
544.39
544.276
544.162
544.048
543.935
543.822
543.709
543.597
543.485
543.373
543.261
543.15
543.039
542.928
542.817
542.707
542.596
542.486
542.375
542.265
542.154
542.044
541.934
541.823
541.713
541.602
541.492
541.381
541.27
541.159
541.049
540.938
540.827
540.716
540.605
552.501
552.403
552.306
552.209
552.114
552.021
551.929
551.84
551.753
551.668
551.585
551.504
551.424
551.347
551.27
551.195
551.122
551.05
550.979
550.909
550.841
550.775
550.711
550.65
550.592
550.538
550.487
550.439
550.393
550.35
550.308
550.268
550.228
550.19
550.152
550.114
550.075
550.036
549.994
549.951
549.904
549.853
549.798
549.737
549.672
549.602
549.529
549.453
549.376
549.298
549.218
549.138
549.056
548.972
548.886
548.799
548.71
548.62
548.529
548.437
548.341
548.24
548.13
548.012
547.883
547.745
547.598
547.444
547.283
547.117
546.945
546.769
546.587
546.4
546.206
546.006
545.799
545.583
545.358
545.119
544.85
544.781
544.688
544.585
544.478
544.369
544.258
544.147
544.036
543.924
543.812
543.7
543.589
543.477
543.366
543.255
543.145
543.034
542.924
542.813
542.703
542.593
542.483
542.373
542.263
542.152
542.042
541.932
541.822
541.711
541.601
541.491
541.38
541.269
541.159
541.048
540.938
540.827
540.716
540.605
552.5
552.4
552.3
552.202
552.105
552.01
551.918
551.828
551.74
551.654
551.571
551.49
551.412
551.335
551.26
551.187
551.116
551.046
550.978
550.912
550.848
550.786
550.726
550.67
550.617
550.568
550.522
550.479
550.438
550.4
550.363
550.327
550.293
550.259
550.225
550.191
550.156
550.121
550.083
550.042
549.998
549.95
549.896
549.836
549.769
549.697
549.621
549.544
549.465
549.386
549.306
549.225
549.143
549.059
548.974
548.887
548.799
548.711
548.621
548.529
548.432
548.328
548.215
548.092
547.957
547.813
547.659
547.498
547.331
547.159
546.982
546.8
546.613
546.419
546.219
546.013
545.797
545.571
545.333
545.078
544.798
544.735
544.651
544.556
544.455
544.35
544.242
544.133
544.023
543.913
543.802
543.691
543.581
543.47
543.36
543.249
543.139
543.029
542.919
542.809
542.699
542.59
542.48
542.37
542.26
542.15
542.04
541.93
541.82
541.71
541.6
541.49
541.379
541.269
541.158
541.048
540.937
540.827
540.716
540.605
552.499
552.396
552.295
552.195
552.096
552
551.906
551.815
551.727
551.641
551.558
551.478
551.401
551.326
551.253
551.182
551.113
551.046
550.982
550.919
550.858
550.801
550.746
550.695
550.647
550.602
550.561
550.523
550.488
550.454
550.423
550.392
550.362
550.333
550.303
550.273
550.242
550.21
550.175
550.138
550.097
550.052
550
549.94
549.871
549.796
549.717
549.637
549.557
549.477
549.396
549.316
549.234
549.151
549.067
548.981
548.895
548.807
548.717
548.624
548.525
548.418
548.3
548.171
548.03
547.879
547.718
547.55
547.377
547.2
547.018
546.83
546.638
546.439
546.234
546.021
545.799
545.566
545.319
545.057
544.776
544.71
544.628
544.535
544.436
544.333
544.227
544.119
544.011
543.902
543.792
543.682
543.572
543.463
543.353
543.243
543.133
543.024
542.914
542.805
542.695
542.586
542.477
542.367
542.257
542.148
542.038
541.928
541.819
541.709
541.599
541.488
541.378
541.268
541.158
541.047
540.937
540.826
540.716
540.605
552.498
552.394
552.291
552.189
552.089
551.991
551.896
551.805
551.716
551.631
551.548
551.469
551.393
551.319
551.249
551.18
551.115
551.051
550.99
550.931
550.875
550.822
550.772
550.725
550.682
550.642
550.606
550.573
550.542
550.514
550.487
550.461
550.436
550.411
550.385
550.359
550.332
550.303
550.272
550.237
550.199
550.157
550.107
550.047
549.975
549.896
549.815
549.733
549.651
549.57
549.49
549.409
549.329
549.247
549.164
549.079
548.993
548.906
548.816
548.721
548.618
548.507
548.383
548.248
548.1
547.941
547.773
547.599
547.421
547.239
547.052
546.861
546.663
546.46
546.25
546.031
545.804
545.566
545.315
545.052
544.773
544.701
544.616
544.521
544.422
544.319
544.214
544.107
544
543.891
543.782
543.673
543.564
543.455
543.346
543.236
543.127
543.018
542.909
542.8
542.691
542.582
542.473
542.364
542.255
542.145
542.036
541.926
541.817
541.707
541.597
541.487
541.377
541.267
541.157
541.047
540.936
540.826
540.716
540.605
552.497
552.39
552.286
552.182
552.082
551.983
551.888
551.796
551.707
551.623
551.541
551.463
551.389
551.318
551.249
551.184
551.121
551.061
551.004
550.949
550.897
550.848
550.803
550.761
550.723
550.688
550.656
550.628
550.602
550.578
550.555
550.534
550.513
550.492
550.471
550.448
550.425
550.399
550.371
550.339
550.304
550.265
550.216
550.154
550.08
549.997
549.913
549.829
549.747
549.665
549.585
549.505
549.425
549.344
549.261
549.178
549.092
549.004
548.913
548.815
548.708
548.591
548.462
548.319
548.163
547.997
547.823
547.645
547.463
547.278
547.088
546.893
546.691
546.483
546.267
546.044
545.812
545.57
545.319
545.061
544.791
544.707
544.613
544.514
544.413
544.309
544.203
544.097
543.989
543.881
543.773
543.664
543.555
543.447
543.338
543.23
543.121
543.013
542.904
542.796
542.687
542.578
542.47
542.361
542.252
542.143
542.034
541.924
541.815
541.705
541.596
541.486
541.376
541.266
541.156
541.046
540.936
540.826
540.715
540.605
552.496
552.388
552.282
552.178
552.076
551.977
551.882
551.79
551.702
551.618
551.538
551.462
551.39
551.321
551.256
551.193
551.134
551.078
551.024
550.973
550.926
550.881
550.84
550.803
550.769
550.739
550.711
550.687
550.665
550.645
550.627
550.61
550.593
550.577
550.559
550.541
550.521
550.499
550.473
550.444
550.411
550.373
550.324
550.261
550.184
550.098
550.011
549.926
549.842
549.76
549.68
549.6
549.52
549.44
549.358
549.274
549.189
549.1
549.005
548.903
548.792
548.668
548.532
548.382
548.219
548.047
547.868
547.687
547.503
547.316
547.125
546.927
546.723
546.51
546.289
546.059
545.822
545.578
545.329
545.081
544.857
544.724
544.615
544.511
544.407
544.301
544.195
544.087
543.98
543.871
543.763
543.655
543.547
543.439
543.331
543.223
543.115
543.007
542.899
542.791
542.682
542.574
542.466
542.357
542.249
542.14
542.031
541.922
541.813
541.704
541.594
541.485
541.375
541.265
541.155
541.045
540.935
540.825
540.715
540.605
552.495
552.386
552.279
552.174
552.073
551.974
551.879
551.788
551.701
551.619
551.541
551.467
551.397
551.331
551.269
551.21
551.154
551.101
551.051
551.004
550.961
550.921
550.884
550.85
550.82
550.794
550.77
550.75
550.731
550.715
550.701
550.689
550.677
550.665
550.652
550.637
550.622
550.602
550.579
550.551
550.519
550.48
550.43
550.366
550.286
550.198
550.109
550.022
549.937
549.854
549.773
549.693
549.613
549.532
549.45
549.366
549.279
549.188
549.09
548.983
548.866
548.736
548.593
548.436
548.267
548.09
547.909
547.727
547.542
547.355
547.163
546.965
546.759
546.544
546.318
546.083
545.839
545.589
545.334
545.074
544.829
544.711
544.611
544.509
544.404
544.296
544.188
544.079
543.971
543.862
543.754
543.646
543.538
543.431
543.323
543.216
543.108
543.001
542.893
542.785
542.678
542.57
542.462
542.354
542.246
542.137
542.029
541.92
541.811
541.702
541.593
541.484
541.374
541.264
541.155
541.045
540.935
540.825
540.715
540.605
552.495
552.385
552.278
552.173
552.072
551.974
551.88
551.79
551.705
551.625
551.549
551.478
551.411
551.348
551.288
551.232
551.18
551.131
551.085
551.042
551.002
550.966
550.933
550.903
550.877
550.854
550.834
550.816
550.802
550.789
550.78
550.772
550.765
550.758
550.749
550.739
550.727
550.71
550.688
550.66
550.627
550.586
550.536
550.469
550.387
550.296
550.205
550.116
550.029
549.945
549.863
549.782
549.7
549.618
549.534
549.448
549.358
549.264
549.162
549.05
548.927
548.79
548.641
548.479
548.306
548.127
547.946
547.763
547.58
547.393
547.203
547.005
546.798
546.581
546.355
546.117
545.87
545.613
545.345
545.046
544.667
544.675
544.606
544.51
544.403
544.293
544.183
544.073
543.963
543.854
543.745
543.637
543.53
543.422
543.315
543.208
543.101
542.994
542.887
542.78
542.673
542.566
542.458
542.351
542.243
542.135
542.026
541.918
541.809
541.7
541.591
541.482
541.373
541.263
541.154
541.044
540.934
540.825
540.715
540.605
552.495
552.386
552.279
552.175
552.074
551.977
551.885
551.797
551.715
551.637
551.564
551.495
551.431
551.371
551.315
551.262
551.213
551.167
551.125
551.086
551.05
551.017
550.988
550.962
550.939
550.919
550.902
550.889
550.878
550.87
550.865
550.862
550.86
550.857
550.853
550.847
550.838
550.823
550.802
550.773
550.737
550.693
550.64
550.57
550.486
550.392
550.299
550.207
550.118
550.031
549.947
549.863
549.779
549.693
549.606
549.516
549.424
549.325
549.218
549.1
548.97
548.828
548.674
548.508
548.335
548.156
547.976
547.795
547.613
547.429
547.239
547.042
546.835
546.618
546.392
546.155
545.909
545.654
545.384
545.088
544.751
544.709
544.622
544.517
544.405
544.292
544.179
544.067
543.956
543.845
543.736
543.628
543.521
543.414
543.307
543.201
543.094
542.988
542.882
542.775
542.668
542.561
542.454
542.347
542.239
542.132
542.024
541.916
541.807
541.699
541.59
541.481
541.372
541.263
541.153
541.044
540.934
540.824
540.715
540.605
552.496
552.388
552.282
552.179
552.079
551.984
551.894
551.809
551.729
551.654
551.584
551.518
551.457
551.4
551.347
551.298
551.252
551.21
551.171
551.136
551.105
551.076
551.05
551.027
551.008
550.992
550.979
550.97
550.964
550.96
550.96
550.962
550.965
550.967
550.968
550.965
550.957
550.943
550.921
550.89
550.85
550.801
550.743
550.669
550.58
550.484
550.387
550.292
550.199
550.109
550.021
549.933
549.844
549.754
549.662
549.569
549.471
549.367
549.253
549.129
548.994
548.849
548.692
548.526
548.352
548.176
547.998
547.818
547.638
547.456
547.268
547.072
546.866
546.649
546.423
546.187
545.943
545.691
545.432
545.168
544.926
544.775
544.648
544.526
544.407
544.29
544.175
544.061
543.948
543.837
543.727
543.619
543.512
543.405
543.299
543.193
543.087
542.981
542.876
542.77
542.663
542.557
542.45
542.343
542.236
542.129
542.021
541.913
541.805
541.697
541.588
541.48
541.371
541.262
541.152
541.043
540.934
540.824
540.714
540.605
552.497
552.391
552.287
552.185
552.088
551.995
551.908
551.825
551.748
551.676
551.609
551.547
551.489
551.435
551.386
551.34
551.298
551.26
551.225
551.195
551.167
551.143
551.122
551.103
551.088
551.077
551.069
551.065
551.064
551.066
551.071
551.078
551.086
551.094
551.098
551.098
551.09
551.074
551.049
551.012
550.965
550.909
550.843
550.763
550.669
550.567
550.466
550.366
550.269
550.174
550.081
549.988
549.894
549.798
549.702
549.603
549.499
549.388
549.268
549.138
549
548.852
548.695
548.53
548.359
548.185
548.009
547.832
547.653
547.472
547.285
547.088
546.881
546.663
546.435
546.2
545.957
545.708
545.458
545.212
544.986
544.803
544.655
544.524
544.402
544.284
544.168
544.053
543.94
543.828
543.718
543.61
543.502
543.396
543.29
543.185
543.08
542.975
542.87
542.764
542.658
542.553
542.446
542.34
542.233
542.126
542.019
541.911
541.803
541.695
541.587
541.478
541.37
541.261
541.152
541.042
540.933
540.824
540.714
540.605
552.498
552.394
552.292
552.193
552.099
552.009
551.924
551.845
551.771
551.703
551.639
551.58
551.526
551.476
551.43
551.388
551.351
551.317
551.288
551.262
551.241
551.222
551.207
551.195
551.186
551.18
551.178
551.181
551.186
551.195
551.206
551.22
551.233
551.246
551.252
551.251
551.24
551.218
551.185
551.139
551.081
551.013
550.937
550.847
550.745
550.638
550.531
550.426
550.323
550.223
550.124
550.025
549.926
549.826
549.724
549.62
549.51
549.392
549.267
549.133
548.993
548.845
548.688
548.526
548.357
548.185
548.01
547.833
547.654
547.471
547.281
547.081
546.868
546.644
546.411
546.17
545.926
545.679
545.434
545.197
544.972
544.775
544.627
544.501
544.383
544.269
544.155
544.042
543.93
543.818
543.708
543.6
543.493
543.387
543.282
543.177
543.072
542.968
542.863
542.759
542.654
542.548
542.442
542.336
542.23
542.123
542.016
541.909
541.801
541.694
541.585
541.477
541.369
541.26
541.151
541.042
540.933
540.823
540.714
540.605
552.499
552.398
552.299
552.203
552.112
552.025
551.944
551.868
551.797
551.732
551.672
551.617
551.566
551.52
551.479
551.442
551.41
551.383
551.361
551.343
551.329
551.319
551.312
551.308
551.307
551.31
551.316
551.327
551.341
551.358
551.377
551.397
551.416
551.43
551.437
551.431
551.411
551.378
551.33
551.269
551.194
551.109
551.017
550.916
550.805
550.691
550.578
550.467
550.359
550.253
550.15
550.047
549.945
549.843
549.739
549.63
549.515
549.392
549.262
549.127
548.986
548.838
548.683
548.522
548.353
548.178
547.998
547.817
547.633
547.443
547.244
547.033
546.807
546.569
546.323
546.072
545.822
545.575
545.336
545.109
544.887
544.67
544.557
544.449
544.345
544.241
544.135
544.027
543.917
543.807
543.697
543.589
543.482
543.377
543.273
543.169
543.065
542.961
542.857
542.753
542.649
542.544
542.439
542.333
542.227
542.121
542.014
541.907
541.8
541.692
541.584
541.476
541.368
541.259
541.15
541.041
540.932
540.823
540.714
540.605
552.501
552.402
552.306
552.214
552.126
552.043
551.965
551.893
551.826
551.764
551.707
551.655
551.609
551.568
551.533
551.503
551.479
551.461
551.448
551.441
551.438
551.439
551.443
551.451
551.462
551.476
551.494
551.515
551.539
551.566
551.593
551.619
551.641
551.655
551.656
551.638
551.602
551.549
551.479
551.393
551.294
551.188
551.078
550.963
550.843
550.724
550.606
550.491
550.379
550.271
550.166
550.065
549.966
549.866
549.764
549.654
549.534
549.406
549.274
549.137
548.996
548.849
548.692
548.527
548.35
548.163
547.968
547.773
547.578
547.374
547.156
546.923
546.672
546.408
546.14
545.873
545.616
545.371
545.144
544.935
544.739
544.557
544.458
544.371
544.287
544.199
544.105
544.005
543.9
543.792
543.685
543.577
543.472
543.367
543.263
543.16
543.057
542.954
542.851
542.748
542.644
542.54
542.435
542.33
542.224
542.118
542.012
541.905
541.798
541.69
541.583
541.475
541.367
541.258
541.149
541.041
540.932
540.823
540.714
540.605
552.502
552.407
552.315
552.226
552.142
552.063
551.988
551.919
551.855
551.796
551.743
551.695
551.654
551.619
551.592
551.571
551.558
551.552
551.552
551.559
551.572
551.588
551.608
551.632
551.658
551.687
551.718
551.752
551.788
551.825
551.86
551.89
551.912
551.921
551.907
551.867
551.804
551.721
551.62
551.502
551.373
551.241
551.111
550.984
550.861
550.742
550.625
550.512
550.403
550.299
550.2
550.108
550.02
549.931
549.836
549.723
549.595
549.461
549.323
549.182
549.039
548.888
548.723
548.545
548.348
548.133
547.906
547.683
547.465
547.24
546.994
546.721
546.429
546.129
545.836
545.554
545.297
545.066
544.862
544.68
544.527
544.399
544.329
544.269
544.209
544.142
544.064
543.975
543.878
543.775
543.67
543.565
543.46
543.357
543.254
543.152
543.05
542.948
542.845
542.742
542.639
542.535
542.431
542.326
542.221
542.116
542.01
541.903
541.796
541.689
541.581
541.474
541.366
541.257
541.149
541.04
540.931
540.823
540.714
540.605
552.504
552.413
552.324
552.239
552.158
552.082
552.011
551.944
551.883
551.827
551.777
551.735
551.7
551.674
551.656
551.648
551.649
551.659
551.678
551.703
551.735
551.771
551.811
551.854
551.899
551.945
551.991
552.038
552.086
552.132
552.173
552.201
552.216
552.211
552.172
552.098
551.997
551.876
551.735
551.581
551.422
551.267
551.122
550.992
550.877
550.774
550.675
550.576
550.483
550.39
550.308
550.238
550.171
550.092
549.998
549.872
549.725
549.576
549.422
549.266
549.112
548.954
548.761
548.559
548.323
548.07
547.779
547.52
547.264
547.004
546.726
546.384
546.043
545.71
545.414
545.13
544.903
544.714
544.554
544.394
544.295
544.211
544.201
544.161
544.12
544.074
544.015
543.94
543.852
543.755
543.654
543.551
543.448
543.346
543.244
543.143
543.042
542.941
542.839
542.737
542.635
542.532
542.428
542.323
542.219
542.113
542.008
541.901
541.795
541.688
541.58
541.473
541.365
541.257
541.148
541.04
540.931
540.822
540.713
540.604
552.506
552.418
552.333
552.252
552.174
552.101
552.032
551.968
551.909
551.857
551.811
551.775
551.748
551.732
551.728
551.736
551.755
551.785
551.824
551.871
551.925
551.984
552.046
552.11
552.175
552.239
552.3
552.356
552.411
552.462
552.501
552.519
552.516
552.485
552.41
552.292
552.146
551.981
551.802
551.62
551.444
551.28
551.137
551.026
550.944
550.891
550.842
550.78
550.722
550.646
550.585
550.554
550.511
550.42
550.289
550.123
549.949
549.755
549.557
549.36
549.167
549.01
548.753
548.514
548.193
547.927
547.511
547.264
546.926
546.592
546.34
545.821
545.469
545.136
544.925
544.656
544.533
544.436
544.411
544.221
544.24
544.105
544.187
544.087
544.038
544.005
543.962
543.901
543.823
543.733
543.636
543.536
543.435
543.334
543.234
543.135
543.035
542.935
542.834
542.733
542.631
542.528
542.425
542.321
542.216
542.111
542.006
541.9
541.793
541.686
541.579
541.472
541.364
541.256
541.148
541.039
540.931
540.822
540.713
540.604
552.507
552.423
552.341
552.263
552.189
552.118
552.052
551.99
551.934
551.886
551.846
551.818
551.802
551.799
551.811
551.837
551.876
551.927
551.987
552.055
552.13
552.21
552.293
552.375
552.457
552.533
552.603
552.662
552.714
552.755
552.777
552.772
552.736
552.662
552.546
552.389
552.205
552.007
551.808
551.626
551.477
551.339
551.232
551.176
551.167
551.223
551.282
551.278
551.287
551.206
551.15
551.197
551.163
550.98
550.686
550.472
550.318
549.944
549.63
549.387
549.174
549.013
548.615
548.316
547.987
547.68
547.181
546.966
546.561
546.196
545.985
545.134
544.674
544.272
544.33
544.302
544.522
544.462
544.74
544.33
544.738
544.223
544.279
544.059
543.975
543.944
543.912
543.862
543.793
543.709
543.616
543.52
543.422
543.323
543.225
543.127
543.028
542.929
542.829
542.728
542.627
542.525
542.422
542.318
542.214
542.109
542.004
541.898
541.792
541.685
541.578
541.471
541.363
541.255
541.147
541.039
540.93
540.822
540.713
540.604
552.509
552.427
552.348
552.273
552.202
552.134
552.071
552.012
551.961
551.919
551.889
551.872
551.87
551.883
551.912
551.957
552.014
552.08
552.154
552.234
552.32
552.411
552.503
552.594
552.679
552.757
552.821
552.867
552.896
552.902
552.885
552.838
552.755
552.638
552.493
552.32
552.127
551.923
551.748
551.641
551.629
551.581
551.55
551.602
551.722
551.891
552.08
552.178
552.297
552.288
552.29
552.288
552.127
551.813
551.256
550.946
550.782
550.111
549.64
549.346
548.899
548.644
548.176
547.802
547.464
547.129
546.808
546.478
546.226
545.292
544.908
544.063
543.938
543.712
544.057
544.177
544.666
544.413
544.723
543.883
544.639
543.866
544.6
544.061
543.929
543.895
543.87
543.827
543.764
543.685
543.597
543.503
543.408
543.312
543.216
543.119
543.021
542.923
542.824
542.724
542.623
542.522
542.419
542.316
542.212
542.108
542.003
541.897
541.791
541.684
541.578
541.47
541.363
541.255
541.147
541.039
540.93
540.822
540.713
540.604
552.509
552.429
552.353
552.281
552.213
552.149
552.089
552.036
551.993
551.965
551.955
551.959
551.974
552.002
552.048
552.109
552.177
552.244
552.308
552.376
552.446
552.519
552.593
552.665
552.729
552.783
552.817
552.825
552.794
552.721
552.63
552.522
552.382
552.236
552.112
551.988
551.873
551.717
551.639
551.738
551.915
552.163
552.398
552.583
552.852
553.16
553.519
553.698
553.825
553.998
554.094
553.975
553.57
552.81
551.855
551.451
551.236
550.25
549.512
549.1
548.402
547.819
547.323
546.857
546.556
546.003
545.767
545.256
544.934
544.408
544.004
543.262
543.309
543.479
543.691
544.252
544.2
544.335
544.049
543.786
543.891
543.683
544.199
543.956
543.879
543.86
543.838
543.798
543.738
543.662
543.577
543.487
543.395
543.302
543.207
543.112
543.016
542.919
542.82
542.721
542.621
542.519
542.417
542.314
542.211
542.106
542.001
541.896
541.79
541.684
541.577
541.47
541.362
541.255
541.147
541.038
540.93
540.822
540.713
540.604
552.509
552.43
552.356
552.287
552.222
552.161
552.105
552.061
552.038
552.043
552.075
552.122
552.171
552.211
552.262
552.333
552.402
552.441
552.445
552.444
552.433
552.426
552.423
552.42
552.419
552.415
552.383
552.317
552.153
551.907
551.712
551.544
551.364
551.26
551.25
551.278
551.321
551.411
551.481
551.955
552.731
553.556
554.128
554.494
555.034
555.497
555.807
555.77
555.7
556.109
556.367
556.138
555.283
553.741
552.364
551.861
551.485
550.352
549.187
548.297
547.527
547.268
546.521
545.941
545.258
544.911
544.567
544.318
543.992
543.772
543.453
543.348
543.298
543.395
543.541
543.75
543.701
543.677
543.422
543.307
543.259
543.349
543.453
543.834
543.859
543.838
543.814
543.773
543.714
543.64
543.557
543.471
543.383
543.292
543.2
543.106
543.011
542.915
542.817
542.718
542.619
542.518
542.416
542.313
542.21
542.105
542.001
541.895
541.789
541.683
541.576
541.469
541.362
541.254
541.146
541.038
540.93
540.821
540.713
540.604
552.507
552.427
552.356
552.29
552.229
552.169
552.113
552.078
552.09
552.185
552.299
552.449
552.618
552.66
552.658
552.718
552.78
552.738
552.584
552.401
552.162
551.945
551.737
551.547
551.392
551.327
551.233
551.002
550.713
550.346
550.096
549.96
549.859
549.821
550.021
550.357
550.563
550.859
551.372
552.397
553.891
555.544
556.539
556.995
557.993
558.863
558.963
558.106
557.585
558.113
558.117
557.724
556.372
554.631
553.489
552.461
552.005
550.625
549.338
548.128
547.676
547.229
546.617
546.177
545.705
545.343
545.048
544.651
544.306
543.922
543.55
543.332
543.211
543.16
543.13
543.051
542.946
542.773
542.658
542.574
542.679
542.897
543.283
543.744
543.837
543.825
543.788
543.751
543.694
543.618
543.537
543.457
543.373
543.285
543.195
543.102
543.008
542.912
542.815
542.717
542.617
542.516
542.415
542.312
542.209
542.105
542
541.895
541.789
541.683
541.576
541.469
541.362
541.254
541.146
541.038
540.93
540.821