/*--------------------------------*- C++ -*----------------------------------*\
  =========                 |
  \\      /  F ield         | OpenFOAM: The Open Source CFD Toolbox
   \\    /   O peration     | Website:  https://openfoam.org
    \\  /    A nd           | Version:  6
     \\/     M anipulation  |
\*---------------------------------------------------------------------------*/
FoamFile
{
    version     2.0;
    format      ascii;
    class       surfaceScalarField;
    location    "1850";
    object      phi;
}
// * * * * * * * * * * * * * * * * * * * * * * * * * * * * * * * * * * * * * //

dimensions      [0 3 -1 0 0 0 0];

internalField   nonuniform List<scalar> 
9440
(
-1.4497e-10
1.4497e-10
-6.01493e-10
4.56523e-10
-1.00521e-09
4.0372e-10
-1.55559e-09
5.50378e-10
-1.69257e-09
1.3698e-10
-2.00807e-09
3.15501e-10
-2.1526e-09
1.4453e-10
-2.32088e-09
1.68279e-10
-2.43114e-09
1.10259e-10
-2.48861e-09
5.74763e-11
-2.56105e-09
7.24413e-11
-2.62957e-09
6.85195e-11
-2.62055e-09
-9.01818e-12
-2.60362e-09
-1.69293e-11
-2.59043e-09
-1.31901e-11
-2.54384e-09
-4.65936e-11
-2.24501e-09
-2.98829e-10
-2.13942e-09
-1.05589e-10
-1.89812e-09
-2.41295e-10
-1.6849e-09
-2.1322e-10
-1.52812e-09
-1.56779e-10
-1.30115e-09
-2.26971e-10
-1.10975e-09
-1.91399e-10
-9.72867e-10
-1.36884e-10
-7.14223e-10
-2.58644e-10
-5.76617e-10
-1.37604e-10
-4.30687e-10
-1.4593e-10
-2.78802e-10
-1.51884e-10
-1.74067e-10
-1.04733e-10
-9.99176e-11
-7.41483e-11
-6.22005e-11
-3.77156e-11
2.43834e-10
-3.06033e-10
3.33914e-10
-9.00789e-11
3.88251e-10
-5.43355e-11
6.11265e-10
-2.23012e-10
7.55462e-10
-1.44196e-10
9.85724e-10
-2.3026e-10
1.2538e-09
-2.68073e-10
1.53089e-09
-2.77094e-10
1.67877e-09
-1.4788e-10
1.72868e-09
-4.99019e-11
1.86998e-09
-1.413e-10
1.88223e-09
-1.22528e-11
2.0365e-09
-1.5427e-10
2.01545e-09
2.10542e-11
2.08611e-09
-7.06577e-11
2.15651e-09
-7.0404e-11
2.16655e-09
-1.00425e-11
2.15423e-09
1.23223e-11
2.06594e-09
8.82925e-11
1.75968e-09
3.06257e-10
1.44705e-09
3.12634e-10
1.01859e-09
4.2846e-10
6.76623e-10
3.41963e-10
3.36142e-10
3.40481e-10
2.83643e-10
5.24983e-11
2.13735e-10
6.99069e-11
1.52635e-10
6.10999e-11
1.59126e-11
1.36721e-10
-7.64305e-11
9.23422e-11
-1.6279e-10
8.63587e-11
-2.19085e-10
5.62936e-11
-2.62298e-10
4.32125e-11
-3.01347e-10
3.90479e-11
-3.35156e-10
3.38079e-11
-3.69779e-10
3.46207e-11
-3.92675e-10
2.2895e-11
-3.83033e-10
-9.64257e-12
-3.75156e-10
-7.87889e-12
-3.37651e-10
-3.75064e-11
-3.58668e-10
2.10167e-11
-3.98873e-10
4.02038e-11
-5.57004e-10
1.5813e-10
-7.25554e-10
1.68549e-10
-8.44238e-10
1.18683e-10
-9.51762e-10
1.07522e-10
-1.06364e-09
1.11873e-10
-8.86889e-10
-1.76748e-10
-2.95709e-10
-5.91181e-10
5.91353e-16
-2.95711e-10
-1.96419e-18
-2.2122e-19
-1.73641e-18
-2.27776e-19
-1.60423e-18
-1.32924e-19
-1.50538e-18
-9.97168e-20
-1.4125e-18
-9.37618e-20
-1.31187e-18
-1.0146e-19
-1.19617e-18
-1.16483e-19
-1.06162e-18
-1.35256e-19
-9.07048e-19
-1.55205e-19
-7.33145e-19
-1.74427e-19
-5.42009e-19
-1.91512e-19
-3.368e-19
-2.05428e-19
-1.21445e-19
-2.15448e-19
9.96198e-20
-2.21111e-19
3.21699e-19
-2.22182e-19
5.40069e-19
-2.18627e-19
7.50184e-19
-2.10585e-19
9.47841e-19
-1.9835e-19
1.12927e-18
-1.82336e-19
1.29124e-18
-1.63033e-19
1.43111e-18
-1.40993e-19
1.54696e-18
-1.16833e-19
1.63748e-18
-9.12084e-20
1.70194e-18
-6.47623e-20
1.74019e-18
-3.80879e-20
1.75257e-18
-1.1722e-20
1.73979e-18
1.3854e-20
1.70285e-18
3.82358e-20
1.64302e-18
6.11264e-20
1.56182e-18
8.23401e-20
1.46104e-18
1.01771e-19
1.34264e-18
1.1935e-19
1.20864e-18
1.35015e-19
1.06107e-18
1.4871e-19
9.0191e-19
1.60404e-19
7.3313e-19
1.70096e-19
5.56684e-19
1.77817e-19
3.74495e-19
1.83621e-19
1.88403e-19
1.87596e-19
1.89962e-19
-5.68163e-10
7.13134e-10
-1.01404e-09
9.024e-10
-1.36519e-09
7.5487e-10
-1.39994e-09
5.85134e-10
-1.76935e-09
5.0639e-10
-1.86817e-09
4.14321e-10
-2.12231e-09
3.98674e-10
-2.22383e-09
2.69796e-10
-2.37137e-09
2.57805e-10
-2.43849e-09
1.24595e-10
-2.48213e-09
1.16078e-10
-2.51689e-09
1.03286e-10
-2.45302e-09
-7.28935e-11
-2.40255e-09
-6.73968e-11
-2.37465e-09
-4.10849e-11
-2.35725e-09
-6.39954e-11
-2.14958e-09
-5.065e-10
-1.93453e-09
-3.20642e-10
-1.76029e-09
-4.15529e-10
-1.52262e-09
-4.50891e-10
-1.28539e-09
-3.94003e-10
-1.15575e-09
-3.56609e-10
-8.94079e-10
-4.53072e-10
-7.67077e-10
-2.63884e-10
-5.72612e-10
-4.53106e-10
-4.36542e-10
-2.73672e-10
-3.06746e-10
-2.75724e-10
-1.4395e-10
-3.14678e-10
-2.10027e-12
-2.4658e-10
1.23549e-10
-1.99795e-10
1.49037e-10
-6.3201e-11
2.93661e-10
-4.50654e-10
6.60119e-10
-4.56534e-10
7.11923e-10
-1.06136e-10
9.00457e-10
-4.11544e-10
8.39666e-10
-8.34024e-11
9.8486e-10
-3.75451e-10
1.18601e-09
-4.69219e-10
1.46798e-09
-5.59059e-10
1.68277e-09
-3.62669e-10
1.84713e-09
-2.14259e-10
1.96698e-09
-2.61156e-10
2.07987e-09
-1.25136e-10
2.20901e-09
-2.83415e-10
2.34336e-09
-1.13294e-10
2.37765e-09
-1.0494e-10
2.3533e-09
-4.60564e-11
2.30638e-09
3.68748e-11
2.23044e-09
8.82635e-11
2.17381e-09
1.44919e-10
2.10304e-09
3.77027e-10
1.8453e-09
5.70375e-10
1.53952e-09
7.34236e-10
1.16282e-09
7.18662e-10
8.69435e-10
6.33865e-10
6.96085e-10
2.25846e-10
5.20713e-10
2.45278e-10
3.94677e-10
1.87134e-10
3.94082e-10
1.37315e-10
2.50399e-10
2.36023e-10
3.05651e-11
3.06191e-10
-1.39277e-10
2.26133e-10
-2.11344e-10
1.15278e-10
-2.28708e-10
5.64093e-11
-2.56143e-10
6.12413e-11
-2.8128e-10
5.97548e-11
-3.1892e-10
6.05335e-11
-3.41962e-10
1.3397e-11
-3.06824e-10
-4.30187e-11
-2.39225e-10
-1.05108e-10
-1.68095e-10
-5.01158e-11
-1.1527e-10
-1.26228e-11
-4.33994e-11
8.62567e-11
3.74783e-11
8.76691e-11
1.30456e-10
2.57027e-11
2.66708e-10
-2.87316e-11
5.43101e-10
-1.64522e-10
5.37092e-10
-1.70741e-10
2.28287e-10
-2.82379e-10
3.05259e-16
-6.74256e-11
-1.7106e-18
2.48551e-20
-1.64449e-18
-2.9483e-19
-1.57262e-18
-2.06178e-19
-1.49977e-18
-1.73946e-19
-1.42014e-18
-1.74693e-19
-1.3269e-18
-1.95903e-19
-1.21494e-18
-2.2953e-19
-1.08157e-18
-2.6958e-19
-9.26271e-19
-3.11298e-19
-7.50229e-19
-3.5109e-19
-5.55924e-19
-3.86269e-19
-3.46821e-19
-4.14864e-19
-1.27108e-19
-4.35474e-19
9.85488e-20
-4.47187e-19
3.25255e-19
-4.49524e-19
5.48111e-19
-4.42403e-19
7.62418e-19
-4.26099e-19
9.63855e-19
-4.01195e-19
1.14858e-18
-3.68524e-19
1.31328e-18
-3.29109e-19
1.45527e-18
-2.84132e-19
1.57259e-18
-2.34885e-19
1.66393e-18
-1.82718e-19
1.72862e-18
-1.28978e-19
1.76656e-18
-7.49451e-20
1.77814e-18
-2.17595e-20
1.76417e-18
2.96471e-20
1.72574e-18
7.85804e-20
1.66423e-18
1.24555e-19
1.58125e-18
1.67228e-19
1.47862e-18
2.06338e-19
1.3583e-18
2.41679e-19
1.22234e-18
2.73098e-19
1.07276e-18
3.0051e-19
9.11602e-19
3.23898e-19
7.4085e-19
3.43294e-19
5.62488e-19
3.58753e-19
3.78471e-19
3.70335e-19
1.90769e-19
3.78079e-19
3.81954e-19
-3.87803e-10
1.10094e-09
-6.26103e-10
1.1407e-09
-1.00436e-09
1.13313e-09
-1.19437e-09
7.75148e-10
-1.53357e-09
8.45596e-10
-1.67796e-09
5.58708e-10
-1.94473e-09
6.65448e-10
-2.2002e-09
5.25261e-10
-2.26027e-09
3.17877e-10
-2.39929e-09
2.63617e-10
-2.41702e-09
1.33805e-10
-2.41826e-09
1.0453e-10
-2.41803e-09
-7.31185e-11
-2.28989e-09
-1.95541e-10
-2.17826e-09
-1.52709e-10
-2.04387e-09
-1.9839e-10
-1.98739e-09
-5.62982e-10
-1.73459e-09
-5.73441e-10
-1.55926e-09
-5.90854e-10
-1.36065e-09
-6.49496e-10
-1.05512e-09
-6.9953e-10
-9.7746e-10
-4.34272e-10
-7.36252e-10
-6.94279e-10
-5.96177e-10
-4.03957e-10
-4.62627e-10
-5.86654e-10
-3.06799e-10
-4.29498e-10
-1.00864e-10
-4.81657e-10
5.00763e-11
-4.65616e-10
1.83405e-10
-3.79906e-10
3.647e-10
-3.81087e-10
6.12778e-10
-3.11277e-10
5.13689e-10
-3.51563e-10
5.37551e-10
-4.80394e-10
8.03859e-10
-3.72441e-10
1.05212e-09
-6.598e-10
1.04521e-09
-7.64944e-11
1.06508e-09
-3.95315e-10
1.15583e-09
-5.59971e-10
1.39592e-09
-7.99149e-10
1.5462e-09
-5.12946e-10
1.73566e-09
-4.03711e-10
1.82405e-09
-3.49551e-10
2.06622e-09
-3.67304e-10
2.1979e-09
-4.1509e-10
2.26553e-09
-1.80921e-10
2.31776e-09
-1.57172e-10
2.2804e-09
-8.7028e-12
2.25774e-09
5.95412e-11
2.18665e-09
1.59351e-10
2.10878e-09
2.22787e-10
2.05996e-09
4.25852e-10
1.93506e-09
6.95272e-10
1.83431e-09
8.34987e-10
1.61985e-09
9.33121e-10
1.3782e-09
8.75509e-10
9.41435e-10
6.62613e-10
6.56505e-10
5.30206e-10
5.67598e-10
2.7604e-10
3.98893e-10
3.06018e-10
1.80134e-10
4.54781e-10
6.49416e-11
4.21382e-10
-1.90277e-11
3.10101e-10
-1.22658e-10
2.18906e-10
-2.11321e-10
1.4507e-10
-2.69142e-10
1.19061e-10
-3.22057e-10
1.12668e-10
-3.50295e-10
8.87697e-11
-3.63286e-10
2.63856e-11
-3.37392e-10
-6.89137e-11
-2.94521e-10
-1.4798e-10
-1.84014e-10
-1.60625e-10
-5.13568e-11
-1.45282e-10
1.46053e-10
-1.11155e-10
3.2824e-10
-9.45201e-11
4.70247e-10
-1.16306e-10
5.84666e-10
-1.43152e-10
5.56467e-10
-1.36325e-10
4.61191e-10
-7.54669e-11
3.03059e-10
-1.24248e-10
9.82218e-17
2.35633e-10
-1.50047e-18
6.73558e-19
-1.55508e-18
-2.40854e-19
-1.53963e-18
-2.22387e-19
-1.49978e-18
-2.14539e-19
-1.44109e-18
-2.34072e-19
-1.36052e-18
-2.77124e-19
-1.25499e-18
-3.35728e-19
-1.12329e-18
-4.0198e-19
-9.66062e-19
-4.69259e-19
-7.85409e-19
-5.32489e-19
-5.84519e-19
-5.87874e-19
-3.67431e-19
-6.32605e-19
-1.38821e-19
-6.64671e-19
9.62112e-20
-6.82757e-19
3.32376e-19
-6.86194e-19
5.64415e-19
-6.74915e-19
7.87323e-19
-6.49418e-19
9.96527e-19
-6.10706e-19
1.18799e-18
-5.60174e-19
1.35825e-18
-4.99484e-19
1.50452e-18
-4.30489e-19
1.62476e-18
-3.55183e-19
1.71767e-18
-2.75628e-19
1.78265e-18
-1.93847e-19
1.81974e-18
-1.11724e-19
1.82955e-18
-3.09208e-20
1.8131e-18
4.71729e-20
1.77172e-18
1.21466e-19
1.7069e-18
1.91152e-19
1.62036e-18
2.55664e-19
1.51396e-18
3.14614e-19
1.38972e-18
3.67746e-19
1.24975e-18
4.14907e-19
1.09615e-18
4.56024e-19
9.30997e-19
4.91091e-19
7.5631e-19
5.20156e-19
5.7407e-19
5.4329e-19
3.86215e-19
5.60569e-19
1.94644e-19
5.72052e-19
5.77769e-19
-2.22384e-10
1.32332e-09
-5.3815e-10
1.45647e-09
-8.24435e-10
1.41941e-09
-1.18128e-09
1.132e-09
-1.43754e-09
1.10185e-09
-1.68113e-09
8.02297e-10
-1.88732e-09
8.71644e-10
-1.88167e-09
5.19607e-10
-1.98549e-09
4.21693e-10
-2.13821e-09
4.1634e-10
-2.19016e-09
1.85763e-10
-2.179e-09
9.33697e-11
-2.24738e-09
-4.73914e-12
-2.06542e-09
-3.77507e-10
-1.99686e-09
-2.2126e-10
-1.80189e-09
-3.93358e-10
-1.77332e-09
-5.91552e-10
-1.51438e-09
-8.32388e-10
-1.32693e-09
-7.78303e-10
-1.12789e-09
-8.48536e-10
-9.68836e-10
-8.58578e-10
-8.09099e-10
-5.94008e-10
-6.09425e-10
-8.93951e-10
-3.31822e-10
-6.81558e-10
-1.56915e-10
-7.61559e-10
3.31239e-11
-6.19535e-10
1.65221e-10
-6.13752e-10
2.49816e-10
-5.50208e-10
3.54613e-10
-4.84701e-10
4.09742e-10
-4.36214e-10
5.90206e-10
-4.91738e-10
7.52013e-10
-5.13367e-10
7.17817e-10
-4.46196e-10
8.39753e-10
-4.94376e-10
9.26344e-10
-7.46388e-10
1.2889e-09
-4.39045e-10
1.37969e-09
-4.86102e-10
1.30592e-09
-4.86202e-10
1.40503e-09
-8.98259e-10
1.54353e-09
-6.51446e-10
1.70738e-09
-5.67561e-10
1.86843e-09
-5.10592e-10
2.03961e-09
-5.38485e-10
2.07401e-09
-4.49494e-10
2.18398e-09
-2.90881e-10
2.27215e-09
-2.45342e-10
2.23497e-09
2.84694e-11
2.17026e-09
1.24256e-10
2.14404e-09
1.85565e-10
2.05215e-09
3.14685e-10
1.9388e-09
5.39192e-10
1.91621e-09
7.17866e-10
1.83811e-09
9.13081e-10
1.76822e-09
1.00301e-09
1.64782e-09
9.95908e-10
1.40215e-09
9.08282e-10
1.04204e-09
8.90312e-10
6.69875e-10
6.48207e-10
4.4013e-10
5.35761e-10
3.53783e-10
5.41126e-10
2.83569e-10
4.91594e-10
1.4176e-10
4.51909e-10
-6.58721e-12
3.67252e-10
-1.43666e-10
2.82147e-10
-2.3345e-10
2.08844e-10
-2.82536e-10
1.61752e-10
-2.93796e-10
1.00028e-10
-3.03903e-10
3.64905e-11
-2.81869e-10
-9.09496e-11
-2.51388e-10
-1.78462e-10
-1.58398e-10
-2.53617e-10
-3.87331e-11
-2.64948e-10
1.23168e-10
-2.73057e-10
2.68296e-10
-2.39649e-10
3.96899e-10
-2.44911e-10
5.05003e-10
-2.51256e-10
4.76423e-10
-1.07746e-10
4.38406e-10
-3.74516e-11
3.00963e-10
1.31941e-11
3.8594e-17
5.36596e-10
-1.54871e-18
1.1e-18
-1.53584e-18
-2.54051e-19
-1.53103e-18
-2.27567e-19
-1.51858e-18
-2.27379e-19
-1.48392e-18
-2.69152e-19
-1.41913e-18
-3.4242e-19
-1.32124e-18
-4.34254e-19
-1.19057e-18
-5.33483e-19
-1.02929e-18
-6.31545e-19
-8.40794e-19
-7.22139e-19
-6.2925e-19
-8.00602e-19
-3.99496e-19
-8.63454e-19
-1.56907e-19
-9.08175e-19
9.27745e-20
-9.33112e-19
3.43654e-19
-9.37472e-19
5.89911e-19
-9.21283e-19
8.26034e-19
-8.85363e-19
1.04706e-18
-8.31241e-19
1.24868e-18
-7.61019e-19
1.42725e-18
-6.77149e-19
1.57983e-18
-5.82277e-19
1.70431e-18
-4.79142e-19
1.79945e-18
-3.7051e-19
1.86477e-18
-2.5908e-19
1.90054e-18
-1.47376e-19
1.90764e-18
-3.7648e-20
1.88739e-18
6.82104e-20
1.8414e-18
1.68706e-19
1.77142e-18
2.62741e-19
1.67931e-18
3.49563e-19
1.56709e-18
4.28689e-19
1.43688e-18
4.99832e-19
1.29087e-18
5.62843e-19
1.13122e-18
6.17674e-19
9.60061e-19
6.64358e-19
7.79444e-19
7.02982e-19
5.91349e-19
7.3367e-19
3.97698e-19
7.56547e-19
2.00361e-19
7.71722e-19
7.79278e-19
-2.52231e-10
1.57555e-09
-4.58063e-10
1.6623e-09
-6.11003e-10
1.57235e-09
-8.62213e-10
1.38321e-09
-1.04606e-09
1.2857e-09
-1.27248e-09
1.02872e-09
-1.40077e-09
9.99933e-10
-1.65212e-09
7.70955e-10
-1.84754e-09
6.17114e-10
-1.90847e-09
4.77271e-10
-1.91425e-09
1.91552e-10
-1.87282e-09
5.19359e-11
-1.81275e-09
-6.48035e-11
-1.82237e-09
-3.67888e-10
-1.68899e-09
-3.54642e-10
-1.57379e-09
-5.08562e-10
-1.4585e-09
-7.06837e-10
-1.24826e-09
-1.04263e-09
-1.06774e-09
-9.58826e-10
-9.56908e-10
-9.59362e-10
-8.56247e-10
-9.59238e-10
-4.84947e-10
-9.65307e-10
-2.73491e-10
-1.10541e-09
-6.91837e-12
-9.48129e-10
1.25327e-10
-8.93802e-10
2.95075e-10
-7.89281e-10
4.06434e-10
-7.25109e-10
4.54726e-10
-5.98498e-10
5.15825e-10
-5.45798e-10
6.24513e-10
-5.449e-10
6.83423e-10
-5.50646e-10
7.59e-10
-5.88942e-10
9.46626e-10
-6.3382e-10
1.08848e-09
-6.36226e-10
9.93148e-10
-6.51055e-10
1.24525e-09
-6.91146e-10
1.40837e-09
-6.49215e-10
1.49218e-09
-5.70013e-10
1.45191e-09
-8.57993e-10
1.57237e-09
-7.71905e-10
1.75688e-09
-7.52064e-10
1.91094e-09
-6.64651e-10
2.0066e-09
-6.3415e-10
2.05044e-09
-4.9333e-10
2.11382e-09
-3.54256e-10
2.21061e-09
-3.42131e-10
2.23508e-09
3.99732e-12
2.18307e-09
1.76267e-10
2.10666e-09
2.61969e-10
1.97515e-09
4.46196e-10
1.92689e-09
5.87452e-10
1.89323e-09
7.51532e-10
1.81391e-09
9.92395e-10
1.7584e-09
1.05853e-09
1.60681e-09
1.14749e-09
1.33631e-09
1.17878e-09
9.82323e-10
1.2443e-09
6.70164e-10
9.60364e-10
5.81772e-10
6.24152e-10
4.99213e-10
6.23683e-10
3.44323e-10
6.46483e-10
1.1339e-10
6.8284e-10
-2.84781e-11
5.09118e-10
-3.44243e-11
2.88091e-10
-8.52929e-11
2.59711e-10
-1.53054e-10
2.29511e-10
-1.82806e-10
1.29778e-10
-1.76673e-10
3.03555e-11
-1.55068e-10
-1.12556e-10
-1.17609e-10
-2.15923e-10
-6.01088e-11
-3.11118e-10
4.23153e-11
-3.67374e-10
1.47797e-10
-3.7854e-10
2.8294e-10
-3.74794e-10
3.70672e-10
-3.32644e-10
4.34284e-10
-3.1487e-10
4.62155e-10
-1.35617e-10
4.47374e-10
-2.26709e-11
3.8854e-10
7.20277e-11
1.69004e-16
9.25135e-10
-1.62822e-18
8.24019e-19
-1.50858e-18
-3.73763e-19
-1.53009e-18
-2.06399e-19
-1.55962e-18
-1.98305e-19
-1.55703e-18
-2.72318e-19
-1.51096e-18
-3.89188e-19
-1.42047e-18
-5.25633e-19
-1.28863e-18
-6.66473e-19
-1.11989e-18
-8.01694e-19
-9.19256e-19
-9.24376e-19
-6.92103e-19
-1.02941e-18
-4.44217e-19
-1.11287e-18
-1.81845e-19
-1.17182e-18
8.84151e-20
-1.20431e-18
3.59843e-19
-1.20944e-18
6.25832e-19
-1.18741e-18
8.80156e-19
-1.13943e-18
1.11728e-18
-1.06768e-18
1.33255e-18
-9.7513e-19
1.52212e-18
-8.65216e-19
1.68296e-18
-7.41571e-19
1.81294e-18
-6.07841e-19
1.91088e-18
-4.67597e-19
1.97648e-18
-3.24262e-19
2.01027e-18
-1.81022e-19
2.0135e-18
-4.07107e-20
1.98789e-18
9.42877e-20
1.93544e-18
2.22096e-19
1.85824e-18
3.41342e-19
1.75844e-18
4.51105e-19
1.63824e-18
5.50823e-19
1.4999e-18
6.40196e-19
1.3457e-18
7.19113e-19
1.1779e-18
7.87594e-19
9.98686e-19
8.45754e-19
8.10131e-19
8.93771e-19
6.14226e-19
9.3185e-19
4.12874e-19
9.60196e-19
2.07916e-19
9.78982e-19
9.88337e-19
-2.88435e-10
1.86399e-09
-4.31605e-10
1.80547e-09
-5.0677e-10
1.64752e-09
-6.82168e-10
1.55861e-09
-9.12202e-10
1.51573e-09
-1.20406e-09
1.32058e-09
-1.281e-09
1.07688e-09
-1.36094e-09
8.509e-10
-1.44873e-09
7.04898e-10
-1.58823e-09
6.16775e-10
-1.60578e-09
2.09103e-10
-1.58818e-09
3.4338e-11
-1.53436e-09
-1.18623e-10
-1.59557e-09
-3.06676e-10
-1.35751e-09
-5.92707e-10
-1.26575e-09
-6.00319e-10
-1.10026e-09
-8.72328e-10
-1.01878e-09
-1.12411e-09
-8.86992e-10
-1.09061e-09
-6.7788e-10
-1.16847e-09
-4.58967e-10
-1.17815e-09
-2.14109e-10
-1.21016e-09
-1.11865e-10
-1.20765e-09
9.43861e-11
-1.15438e-09
2.34275e-10
-1.03369e-09
3.92108e-10
-9.47112e-10
5.08648e-10
-8.41647e-10
6.17154e-10
-7.07001e-10
6.50939e-10
-5.79581e-10
7.08411e-10
-6.0237e-10
7.83773e-10
-6.26006e-10
8.35482e-10
-6.40649e-10
9.19496e-10
-7.17832e-10
1.02925e-09
-7.45982e-10
1.11125e-09
-7.33053e-10
1.2011e-09
-7.80987e-10
1.30082e-09
-7.48937e-10
1.49623e-09
-7.6542e-10
1.52714e-09
-8.88901e-10
1.6089e-09
-8.5366e-10
1.76338e-09
-9.06548e-10
1.90329e-09
-8.04556e-10
1.9731e-09
-7.03961e-10
2.03363e-09
-5.53862e-10
2.0925e-09
-4.13122e-10
2.06903e-09
-3.18656e-10
2.09019e-09
-1.71681e-11
2.09929e-09
1.67172e-10
2.024e-09
3.3726e-10
1.98506e-09
4.8513e-10
1.92082e-09
6.51691e-10
1.82427e-09
8.48088e-10
1.76125e-09
1.05541e-09
1.72883e-09
1.09095e-09
1.64232e-09
1.234e-09
1.51435e-09
1.30675e-09
1.39806e-09
1.36059e-09
1.19598e-09
1.16244e-09
9.6215e-10
8.57985e-10
6.42126e-10
9.43706e-10
3.98426e-10
8.90181e-10
2.82364e-10
7.989e-10
2.69879e-10
5.21601e-10
2.01585e-10
3.56384e-10
1.15153e-10
3.46141e-10
5.99829e-11
2.84679e-10
1.86328e-11
1.71127e-10
1.17969e-11
3.71898e-11
3.40362e-11
-1.34797e-10
3.46099e-11
-2.16498e-10
5.11728e-11
-3.27683e-10
1.60076e-10
-4.76278e-10
2.67188e-10
-4.85653e-10
3.38593e-10
-4.46199e-10
4.17268e-10
-4.11321e-10
4.26867e-10
-3.24469e-10
4.28828e-10
-1.37578e-10
5.38287e-10
-1.3213e-10
6.13045e-10
-2.73084e-12
4.31735e-16
1.53818e-09
-1.05569e-18
2.21305e-18
-1.34044e-18
-8.90744e-20
-1.52124e-18
-2.63357e-20
-1.63291e-18
-8.7543e-20
-1.67381e-18
-2.32413e-19
-1.6474e-18
-4.16637e-19
-1.56131e-18
-6.12852e-19
-1.42385e-18
-8.05244e-19
-1.24257e-18
-9.84531e-19
-1.02429e-18
-1.14443e-18
-7.75563e-19
-1.27999e-18
-5.03166e-19
-1.38702e-18
-2.14334e-19
-1.46219e-18
8.32779e-20
-1.50319e-18
3.81874e-19
-1.50899e-18
6.73814e-19
-1.47997e-18
9.51905e-19
-1.41782e-18
1.20983e-18
-1.3255e-18
1.44246e-18
-1.20705e-18
1.64576e-18
-1.06714e-18
1.81669e-18
-9.10702e-19
1.95319e-18
-7.4254e-19
2.05421e-18
-5.67202e-19
2.11972e-18
-3.88917e-19
2.15058e-18
-2.11542e-19
2.1485e-18
-3.84815e-20
2.1157e-18
1.27409e-19
2.05468e-18
2.83891e-19
1.968e-18
4.29346e-19
1.85816e-18
5.62717e-19
1.72761e-18
6.83404e-19
1.57881e-18
7.9115e-19
1.41418e-18
8.85937e-19
1.23606e-18
9.67914e-19
1.0467e-18
1.03733e-18
8.4821e-19
1.09451e-18
6.42572e-19
1.13976e-18
4.3166e-19
1.1734e-18
2.17271e-19
1.19567e-18
1.20676e-18
-1.56422e-10
2.02041e-09
-3.8545e-10
2.0345e-09
-6.02828e-10
1.8649e-09
-7.33567e-10
1.68935e-09
-8.16331e-10
1.5985e-09
-9.38971e-10
1.44322e-09
-1.18339e-09
1.3213e-09
-1.36055e-09
1.02806e-09
-1.32548e-09
6.69826e-10
-1.27303e-09
5.64327e-10
-1.30324e-09
2.39314e-10
-1.26592e-09
-2.98247e-12
-1.22515e-09
-1.59391e-10
-1.20576e-09
-3.26066e-10
-1.0872e-09
-7.11267e-10
-9.79232e-10
-7.08286e-10
-8.25377e-10
-1.02618e-09
-7.51367e-10
-1.19811e-09
-5.22229e-10
-1.31975e-09
-2.72206e-10
-1.4185e-09
-2.66477e-11
-1.42371e-09
1.77992e-10
-1.4148e-09
2.72221e-10
-1.30188e-09
3.51355e-10
-1.23351e-09
4.14437e-10
-1.09677e-09
4.95017e-10
-1.02769e-09
5.58272e-10
-9.049e-10
6.30882e-10
-7.79608e-10
6.93549e-10
-6.42245e-10
7.38822e-10
-6.4764e-10
7.91735e-10
-6.78917e-10
8.81546e-10
-7.30458e-10
9.41879e-10
-7.78162e-10
1.00398e-09
-8.08085e-10
1.07949e-09
-8.08561e-10
1.14919e-09
-8.5068e-10
1.23256e-09
-8.32308e-10
1.36758e-09
-9.00435e-10
1.4626e-09
-9.83923e-10
1.57325e-09
-9.6431e-10
1.74864e-09
-1.08194e-09
1.78393e-09
-8.39841e-10
1.84557e-09
-7.656e-10
1.92767e-09
-6.35966e-10
2.02583e-09
-5.1128e-10
1.93934e-09
-2.32162e-10
1.96361e-09
-4.14412e-11
1.92872e-09
2.02062e-10
1.90382e-09
3.6216e-10
1.94709e-09
4.41866e-10
1.86814e-09
7.30642e-10
1.79044e-09
9.25784e-10
1.72188e-09
1.12397e-09
1.63938e-09
1.17345e-09
1.52964e-09
1.34374e-09
1.40011e-09
1.43627e-09
1.23505e-09
1.52565e-09
9.63711e-10
1.43378e-09
6.10711e-10
1.21098e-09
5.50537e-10
1.00388e-09
5.84255e-10
8.56461e-10
6.59209e-10
7.23945e-10
6.07445e-10
5.73364e-10
3.67015e-10
5.96812e-10
1.72809e-10
5.40346e-10
1.25149e-10
3.32339e-10
1.17473e-10
1.78801e-10
1.1894e-10
3.57213e-11
7.99701e-11
-9.58284e-11
7.75089e-11
-2.14038e-10
1.47827e-10
-3.98002e-10
2.28299e-10
-5.56751e-10
3.26136e-10
-5.83491e-10
4.08869e-10
-5.28932e-10
4.72905e-10
-4.75357e-10
4.60722e-10
-3.12288e-10
3.80462e-10
-5.7318e-11
2.0223e-10
4.6101e-11
2.63147e-10
-6.36489e-11
6.45342e-16
1.80132e-09
-9.80574e-19
2.61729e-18
-1.27691e-18
2.06929e-19
-1.58169e-18
2.77138e-19
-1.7771e-18
1.06503e-19
-1.85801e-18
-1.52779e-19
-1.84362e-18
-4.32142e-19
-1.75371e-18
-7.03763e-19
-1.60314e-18
-9.56844e-19
-1.40247e-18
-1.18641e-18
-1.15984e-18
-1.3885e-18
-8.82602e-19
-1.5588e-18
-5.78333e-19
-1.69286e-18
-2.55327e-19
-1.78668e-18
7.7474e-20
-1.83737e-18
4.10896e-19
-1.84368e-18
7.35965e-19
-1.80617e-18
1.04422e-18
-1.72714e-18
1.32829e-18
-1.61051e-18
1.58237e-18
-1.46158e-18
1.8022e-18
-1.28658e-18
1.98485e-18
-1.09208e-18
2.12852e-18
-8.84409e-19
2.2325e-18
-6.69367e-19
2.29709e-18
-4.52145e-19
2.32364e-18
-2.3732e-19
2.31439e-18
-2.88452e-20
2.27218e-18
1.70004e-19
2.20014e-18
3.56685e-19
2.10137e-18
5.29397e-19
1.97884e-18
6.87012e-19
1.83536e-18
8.28968e-19
1.6736e-18
9.55123e-19
1.49616e-18
1.06563e-18
1.30548e-18
1.16084e-18
1.10388e-18
1.2412e-18
8.93464e-19
1.30719e-18
6.76209e-19
1.35931e-18
4.53933e-19
1.39798e-18
2.28361e-19
1.42356e-18
1.43629e-18
-8.15283e-11
2.10194e-09
-1.97077e-10
2.15005e-09
-3.71431e-10
2.03925e-09
-5.78945e-10
1.89686e-09
-6.4438e-10
1.66393e-09
-6.49629e-10
1.44847e-09
-5.30557e-10
1.20223e-09
-6.60833e-10
1.15834e-09
-8.87002e-10
8.95996e-10
-8.38433e-10
5.15759e-10
-9.45836e-10
3.46717e-10
-9.8155e-10
3.27314e-11
-9.67785e-10
-1.73155e-10
-8.37093e-10
-4.56758e-10
-7.66417e-10
-7.81942e-10
-7.09918e-10
-7.64784e-10
-5.98988e-10
-1.13711e-09
-4.80152e-10
-1.31695e-09
-3.20238e-10
-1.47966e-09
-1.81362e-10
-1.55737e-09
-6.86378e-13
-1.60438e-09
1.67117e-10
-1.58261e-09
3.00641e-10
-1.4354e-09
3.94833e-10
-1.3277e-09
4.79509e-10
-1.18144e-09
5.27585e-10
-1.07576e-09
5.67824e-10
-9.45136e-10
6.04167e-10
-8.1595e-10
6.58683e-10
-6.96759e-10
7.10507e-10
-6.99462e-10
7.67666e-10
-7.36073e-10
8.39599e-10
-8.02389e-10
8.76017e-10
-8.14578e-10
8.8068e-10
-8.12746e-10
8.97768e-10
-8.25647e-10
9.26311e-10
-8.7922e-10
1.05038e-09
-9.56372e-10
1.20825e-09
-1.05831e-09
1.35051e-09
-1.12618e-09
1.43489e-09
-1.0487e-09
1.54012e-09
-1.18716e-09
1.59249e-09
-8.92217e-10
1.62705e-09
-8.00154e-10
1.68115e-09
-6.90063e-10
1.79742e-09
-6.27552e-10
1.75222e-09
-1.86961e-10
1.75625e-09
-4.54691e-11
1.74446e-09
2.13849e-10
1.83465e-09
2.71967e-10
1.80944e-09
4.67076e-10
1.74014e-09
7.99946e-10
1.65978e-09
1.00614e-09
1.64977e-09
1.13398e-09
1.57707e-09
1.24615e-09
1.51642e-09
1.40439e-09
1.36664e-09
1.58605e-09
1.2157e-09
1.67659e-09
1.03844e-09
1.61103e-09
8.01388e-10
1.44803e-09
6.71998e-10
1.13327e-09
6.25924e-10
9.02534e-10
5.6691e-10
7.82957e-10
3.56626e-10
7.83646e-10
1.68803e-10
7.84634e-10
1.4555e-10
5.63598e-10
1.61704e-10
3.16183e-10
1.81094e-10
1.59409e-10
2.20215e-10
-3.40095e-12
2.45996e-10
-1.2161e-10
2.87928e-10
-2.55971e-10
2.92617e-10
-4.02691e-10
3.16881e-10
-5.81015e-10
3.72621e-10
-6.39232e-10
4.42502e-10
-5.98815e-10
5.0228e-10
-5.35136e-10
4.85037e-10
-2.95045e-10
3.3094e-10
9.67778e-11
-3.53978e-11
4.12438e-10
-6.92547e-11
-2.97935e-11
5.7726e-16
1.73207e-09
-1.70207e-19
4.50987e-18
-1.20589e-18
1.24192e-18
-1.75154e-18
8.21252e-19
-2.0358e-18
3.89405e-19
-2.13738e-18
-5.22103e-20
-2.11524e-18
-4.54864e-19
-2.00679e-18
-8.12516e-19
-1.8327e-18
-1.13114e-18
-1.60455e-18
-1.41491e-18
-1.33014e-18
-1.66348e-18
-1.01666e-18
-1.87305e-18
-6.72151e-19
-2.03821e-18
-3.0602e-19
-2.15367e-18
7.1163e-20
-2.21548e-18
4.48404e-19
-2.22193e-18
8.14995e-19
-2.17383e-18
1.16086e-18
-2.0743e-18
1.47722e-18
-1.92849e-18
1.75736e-18
-1.7433e-18
1.9967e-18
-1.52684e-18
2.19253e-18
-1.28769e-18
2.34357e-18
-1.03413e-18
2.44972e-18
-7.73585e-19
2.51192e-18
-5.12459e-19
2.53212e-18
-2.56147e-19
2.51324e-18
-9.13076e-21
2.45886e-18
2.24986e-19
2.37285e-18
4.43476e-19
2.25899e-18
6.44468e-19
2.1208e-18
8.26876e-19
1.96151e-18
9.90272e-19
1.78411e-18
1.13473e-18
1.59137e-18
1.26065e-18
1.38584e-18
1.36867e-18
1.16987e-18
1.45948e-18
9.45581e-19
1.53381e-18
7.14881e-19
1.59235e-18
4.79511e-19
1.6357e-18
2.4109e-19
1.66433e-18
1.67856e-18
-1.64416e-10
2.26636e-09
-2.46277e-10
2.23191e-09
-2.90333e-10
2.08331e-09
-3.13372e-10
1.9199e-09
-3.92076e-10
1.74264e-09
-5.0856e-10
1.56495e-09
-7.33334e-10
1.427e-09
-7.99801e-10
1.2248e-09
-8.64233e-10
9.60429e-10
-7.76189e-10
4.27716e-10
-6.73489e-10
2.44018e-10
-6.30913e-10
-9.8444e-12
-5.42625e-10
-2.61442e-10
-5.50056e-10
-4.49326e-10
-6.21814e-10
-7.10183e-10
-4.34871e-10
-9.51726e-10
-2.27091e-10
-1.34489e-09
-3.13922e-11
-1.51265e-09
2.06579e-10
-1.71763e-09
3.63072e-10
-1.71386e-09
3.45784e-10
-1.58709e-09
2.92588e-10
-1.52941e-09
3.26145e-10
-1.46895e-09
3.90454e-10
-1.39201e-09
4.43133e-10
-1.23412e-09
4.79544e-10
-1.11217e-09
5.10208e-10
-9.75799e-10
5.28439e-10
-8.34179e-10
5.79503e-10
-7.47822e-10
6.27052e-10
-7.47008e-10
6.61302e-10
-7.70321e-10
6.74931e-10
-8.16016e-10
6.66424e-10
-8.06069e-10
6.74976e-10
-8.21296e-10
7.12e-10
-8.62668e-10
7.71869e-10
-9.39087e-10
8.67039e-10
-1.05154e-09
1.0105e-09
-1.20177e-09
1.19724e-09
-1.31291e-09
1.30356e-09
-1.15501e-09
1.38432e-09
-1.26792e-09
1.43939e-09
-9.4728e-10
1.5659e-09
-9.26665e-10
1.50664e-09
-6.30801e-10
1.52688e-09
-6.47789e-10
1.53419e-09
-1.94277e-10
1.52431e-09
-3.55837e-11
1.59309e-09
1.45069e-10
1.65644e-09
2.08618e-10
1.59881e-09
5.24702e-10
1.56984e-09
8.28919e-10
1.48245e-09
1.09353e-09
1.43578e-09
1.18065e-09
1.36009e-09
1.32184e-09
1.33506e-09
1.42942e-09
1.31173e-09
1.60938e-09
1.23424e-09
1.75408e-09
1.07028e-09
1.77499e-09
8.55588e-10
1.66272e-09
6.61058e-10
1.3278e-09
5.69213e-10
9.94378e-10
4.98919e-10
8.53249e-10
4.23133e-10
8.59431e-10
4.2597e-10
7.81795e-10
4.14766e-10
5.74801e-10
2.89568e-10
4.41379e-10
2.25587e-10
2.2339e-10
2.58701e-10
-3.65157e-11
2.8175e-10
-1.4466e-10
2.92875e-10
-2.67098e-10
3.20424e-10
-4.3024e-10
3.70687e-10
-6.31279e-10
4.30234e-10
-6.9878e-10
4.82657e-10
-6.51239e-10
5.16092e-10
-5.68572e-10
5.17423e-10
-2.96377e-10
4.9582e-10
1.1838e-10
6.54807e-10
2.5345e-10
5.10016e-10
1.14996e-10
2.97334e-11
2.21235e-09
4.78776e-18
2.97331e-11
-1.62568e-18
7.65396e-18
-2.18259e-18
1.37694e-18
-2.47699e-18
6.82955e-19
-2.54003e-18
1.05632e-20
-2.47289e-18
-5.21705e-19
-2.32541e-18
-9.59343e-19
-2.11648e-18
-1.33927e-18
-1.85313e-18
-1.67756e-18
-1.53971e-18
-1.97642e-18
-1.18183e-18
-2.23065e-18
-7.8761e-19
-2.43222e-18
-3.6783e-19
-2.57324e-18
6.47132e-20
-2.64791e-18
4.96504e-19
-2.65374e-18
9.14529e-19
-2.59191e-18
1.30666e-18
-2.46678e-18
1.66241e-18
-2.2853e-18
1.97382e-18
-2.05644e-18
2.23585e-18
-1.79059e-18
2.44609e-18
-1.49878e-18
2.60411e-18
-1.19163e-18
2.71085e-18
-8.78613e-19
2.76823e-18
-5.67639e-19
2.77913e-18
-2.65083e-19
2.74736e-18
2.405e-20
2.67735e-18
2.95948e-19
2.57384e-18
5.4787e-19
2.4414e-18
7.78053e-19
2.28419e-18
9.85613e-19
2.10597e-18
1.1704e-18
1.91004e-18
1.3328e-18
1.69938e-18
1.47359e-18
1.47665e-18
1.59375e-18
1.24421e-18
1.6943e-18
1.00412e-18
1.7763e-18
7.58229e-19
1.84066e-18
5.08137e-19
1.88819e-18
2.55324e-19
1.91952e-18
1.93508e-18
-1.66119e-10
2.43248e-09
-2.5773e-10
2.32353e-09
-2.46953e-10
2.07253e-09
-2.3686e-10
1.90981e-09
-3.25173e-10
1.83095e-09
-4.41764e-10
1.68154e-09
-4.51268e-10
1.43651e-09
-2.86791e-10
1.06033e-09
-1.32718e-10
8.06357e-10
-2.41479e-10
5.36477e-10
-2.48546e-10
2.51086e-10
-3.69233e-10
1.10843e-10
-3.83035e-10
-2.47639e-10
-3.7121e-10
-4.61151e-10
-2.95051e-10
-7.86341e-10
-1.6468e-10
-1.0821e-09
-1.45138e-10
-1.36443e-09
2.55626e-11
-1.68335e-09
9.59427e-11
-1.78801e-09
2.21507e-10
-1.83943e-09
3.97405e-10
-1.76299e-09
4.79281e-10
-1.61128e-09
4.60735e-10
-1.45041e-09
4.47549e-10
-1.37882e-09
3.93733e-10
-1.18031e-09
3.30436e-10
-1.04888e-09
3.28534e-10
-9.73894e-10
3.52531e-10
-8.58175e-10
3.97784e-10
-7.93073e-10
4.41906e-10
-7.91129e-10
4.60339e-10
-7.88752e-10
4.49825e-10
-8.055e-10
4.59524e-10
-8.15765e-10
5.04419e-10
-8.6619e-10
5.86967e-10
-9.45214e-10
6.89141e-10
-1.04126e-09
7.58716e-10
-1.12111e-09
7.66887e-10
-1.20994e-09
8.66579e-10
-1.4126e-09
1.11607e-09
-1.4045e-09
1.16064e-09
-1.31248e-09
1.17156e-09
-9.58198e-10
1.33655e-09
-1.09166e-09
1.28466e-09
-5.78906e-10
1.25876e-09
-6.21889e-10
1.31578e-09
-2.51295e-10
1.36276e-09
-8.25652e-11
1.41812e-09
8.97074e-11
1.31589e-09
3.10854e-10
1.27515e-09
5.65437e-10
1.33966e-09
7.6441e-10
1.42955e-09
1.00364e-09
1.48529e-09
1.12492e-09
1.45163e-09
1.35549e-09
1.34876e-09
1.53228e-09
1.27525e-09
1.68289e-09
1.20151e-09
1.82782e-09
1.14139e-09
1.83511e-09
1.01621e-09
1.7879e-09
7.59447e-10
1.58456e-09
6.12581e-10
1.14124e-09
5.92638e-10
8.7319e-10
5.813e-10
8.70768e-10
5.74462e-10
7.88632e-10
4.54686e-10
6.94576e-10
3.53284e-10
5.4278e-10
2.98478e-10
2.78195e-10
2.8854e-10
-2.65775e-11
3.57443e-10
-2.13564e-10
3.86766e-10
-2.9642e-10
4.04384e-10
-4.4786e-10
4.1548e-10
-6.42375e-10
4.41287e-10
-7.24588e-10
4.82966e-10
-6.92919e-10
4.58223e-10
-5.4383e-10
4.34236e-10
-2.72392e-10
4.89413e-10
6.32019e-11
4.0973e-10
3.33132e-10
-8.71639e-11
6.11889e-10
-1.13829e-11
2.13657e-09
-7.01877e-17
1.83506e-11
-8.59459e-19
1.40169e-17
-2.87577e-18
3.39276e-18
-3.14911e-18
9.56404e-19
-3.0723e-18
-6.56279e-20
-2.91053e-18
-6.82429e-19
-2.70533e-18
-1.16325e-18
-2.45477e-18
-1.58843e-18
-2.15198e-18
-1.97904e-18
-1.79394e-18
-2.33333e-18
-1.3834e-18
-2.64023e-18
-9.28636e-19
-2.88602e-18
-4.42501e-19
-3.05828e-18
5.88809e-20
-3.14822e-18
5.58339e-19
-3.15219e-18
1.03966e-18
-3.07198e-18
1.48814e-18
-2.91393e-18
1.89127e-18
-2.68774e-18
2.23967e-18
-2.40531e-18
2.52767e-18
-2.08001e-18
2.75324e-18
-1.72575e-18
2.91713e-18
-1.35587e-18
3.02182e-18
-9.82233e-19
3.07078e-18
-6.14537e-19
3.06827e-18
-2.60299e-19
3.01925e-18
7.49451e-20
2.92927e-18
3.87299e-19
2.80402e-18
6.74217e-19
2.64896e-18
9.34287e-19
2.46898e-18
1.16705e-18
2.26837e-18
1.3728e-18