/*--------------------------------*- C++ -*----------------------------------*\
  =========                 |
  \\      /  F ield         | OpenFOAM: The Open Source CFD Toolbox
   \\    /   O peration     | Website:  https://openfoam.org
    \\  /    A nd           | Version:  6
     \\/     M anipulation  |
\*---------------------------------------------------------------------------*/
FoamFile
{
    version     2.0;
    format      ascii;
    class       volScalarField;
    location    "1850";
    object      T;
}
// * * * * * * * * * * * * * * * * * * * * * * * * * * * * * * * * * * * * * //

dimensions      [0 0 0 1 0 0 0];

internalField   nonuniform List<scalar> 
4800
(
552.501
552.403
552.306
552.213
552.124
552.04
551.961
551.887
551.818
551.754
551.693
551.637
551.583
551.532
551.484
551.437
551.392
551.348
551.305
551.262
551.219
551.176
551.133
551.09
551.045
551.001
550.956
550.91
550.863
550.816
550.768
550.72
550.672
550.623
550.573
550.523
550.473
550.423
550.372
550.32
550.267
550.212
550.156
550.097
550.035
549.97
549.901
549.826
549.746
549.658
549.563
549.459
549.346
549.225
549.096
548.96
548.82
548.675
548.525
548.371
548.215
548.058
547.899
547.741
547.582
547.425
547.268
547.112
546.958
546.805
546.653
546.5
546.348
546.196
546.045
545.894
545.743
545.595
545.448
545.303
545.158
545.016
544.876
544.738
544.604
544.472
544.343
544.216
544.091
543.968
543.846
543.726
543.607
543.49
543.373
543.257
543.142
543.027
542.914
542.801
542.688
542.576
542.464
542.353
542.242
542.132
542.021
541.911
541.802
541.692
541.583
541.474
541.365
541.256
541.147
541.038
540.93
540.821
540.713
540.604
552.501
552.403
552.307
552.215
552.127
552.044
551.965
551.891
551.822
551.758
551.698
551.641
551.588
551.537
551.488
551.441
551.396
551.352
551.308
551.265
551.222
551.179
551.136
551.092
551.047
551.002
550.957
550.91
550.863
550.816
550.768
550.719
550.67
550.621
550.571
550.52
550.47
550.419
550.367
550.315
550.261
550.207
550.15
550.091
550.03
549.965
549.896
549.821
549.741
549.654
549.56
549.457
549.346
549.226
549.098
548.963
548.823
548.677
548.527
548.374
548.218
548.06
547.901
547.743
547.584
547.427
547.27
547.114
546.96
546.806
546.654
546.503
546.352
546.201
546.05
545.9
545.75
545.6
545.451
545.302
545.156
545.013
544.872
544.735
544.601
544.469
544.34
544.214
544.089
543.966
543.845
543.725
543.606
543.489
543.372
543.256
543.141
543.027
542.913
542.8
542.687
542.575
542.464
542.353
542.242
542.131
542.021
541.911
541.801
541.692
541.583
541.473
541.364
541.256
541.147
541.038
540.93
540.821
540.713
540.604
552.502
552.405
552.311
552.22
552.133
552.05
551.972
551.899
551.83
551.766
551.706
551.65
551.596
551.545
551.497
551.45
551.404
551.36
551.316
551.272
551.228
551.184
551.14
551.095
551.05
551.004
550.958
550.911
550.863
550.815
550.766
550.716
550.666
550.616
550.565
550.514
550.462
550.41
550.357
550.304
550.251
550.195
550.139
550.08
550.018
549.953
549.884
549.81
549.731
549.645
549.552
549.451
549.342
549.224
549.099
548.965
548.825
548.68
548.53
548.377
548.221
548.063
547.905
547.746
547.587
547.429
547.272
547.116
546.962
546.809
546.656
546.505
546.355
546.204
546.054
545.903
545.752
545.6
545.449
545.298
545.15
545.006
544.866
544.729
544.595
544.464
544.335
544.209
544.085
543.963
543.842
543.722
543.604
543.486
543.37
543.254
543.139
543.025
542.912
542.799
542.686
542.574
542.463
542.352
542.241
542.131
542.02
541.911
541.801
541.691
541.582
541.473
541.364
541.255
541.147
541.038
540.93
540.821
540.713
540.604
552.503
552.409
552.316
552.227
552.141
552.059
551.982
551.91
551.842
551.778
551.718
551.662
551.609
551.558
551.509
551.462
551.416
551.37
551.325
551.281
551.236
551.191
551.146
551.1
551.054
551.007
550.959
550.911
550.862
550.812
550.762
550.711
550.66
550.608
550.556
550.504
550.451
550.397
550.343
550.289
550.235
550.179
550.121
550.062
550.001
549.936
549.867
549.794
549.715
549.63
549.539
549.44
549.334
549.219
549.096
548.965
548.826
548.681
548.532
548.379
548.224
548.067
547.909
547.75
547.591
547.433
547.276
547.12
546.965
546.812
546.659
546.507
546.356
546.205
546.053
545.901
545.748
545.595
545.442
545.29
545.14
544.995
544.855
544.718
544.585
544.455
544.328
544.203
544.079
543.957
543.837
543.718
543.6
543.483
543.367
543.252
543.137
543.023
542.91
542.797
542.685
542.573
542.462
542.351
542.24
542.13
542.019
541.91
541.8
541.691
541.582
541.473
541.364
541.255
541.146
541.038
540.929
540.821
540.713
540.604
552.504
552.412
552.323
552.235
552.151
552.071
551.996
551.924
551.857
551.793
551.734
551.678
551.624
551.573
551.524
551.476
551.429
551.383
551.337
551.292
551.245
551.199
551.153
551.105
551.058
551.009
550.96
550.91
550.859
550.808
550.756
550.703
550.65
550.597
550.543
550.489
550.435
550.38
550.325
550.269
550.213
550.157
550.099
550.039
549.977
549.913
549.844
549.772
549.694
549.611
549.521
549.424
549.32
549.208
549.088
548.959
548.823
548.68
548.532
548.381
548.227
548.07
547.913
547.754
547.596
547.438
547.281
547.125
546.969
546.815
546.661
546.508
546.356
546.203
546.05
545.895
545.74
545.585
545.43
545.276
545.125
544.98
544.84
544.704
544.572
544.444
544.318
544.194
544.071
543.951
543.831
543.713
543.595
543.479
543.363
543.248
543.134
543.02
542.907
542.795
542.683
542.571
542.46
542.349
542.238
542.128
542.018
541.909
541.799
541.69
541.581
541.472
541.363
541.255
541.146
541.038
540.929
540.821
540.712
540.604
552.505
552.416
552.329
552.245
552.163
552.085
552.01
551.94
551.874
551.811
551.752
551.696
551.643
551.591
551.542
551.493
551.445
551.398
551.351
551.303
551.256
551.208
551.159
551.11
551.06
551.01
550.959
550.907
550.854
550.801
550.747
550.692
550.637
550.582
550.526
550.47
550.414
550.358
550.301
550.244
550.186
550.129
550.07
550.01
549.948
549.883
549.816
549.744
549.667
549.585
549.497
549.403
549.301
549.192
549.074
548.949
548.816
548.676
548.53
548.38
548.227
548.072
547.916
547.759
547.601
547.443
547.286
547.129
546.973
546.818
546.663
546.509
546.354
546.199
546.043
545.886
545.728
545.57
545.412
545.257
545.104
544.959
544.82
544.686
544.556
544.429
544.305
544.183
544.062
543.942
543.824
543.706
543.589
543.474
543.358
543.244
543.13
543.017
542.904
542.792
542.68
542.569
542.458
542.347
542.237
542.127
542.017
541.907
541.798
541.689
541.58
541.471
541.363
541.254
541.145
541.037
540.929
540.821
540.712
540.604
552.507
552.421
552.336
552.254
552.175
552.099
552.026
551.958
551.893
551.831
551.772
551.717
551.663
551.611
551.561
551.511
551.462
551.414
551.365
551.316
551.266
551.216
551.166
551.114
551.062
551.009
550.955
550.901
550.847
550.791
550.735
550.678
550.621
550.564
550.506
550.447
550.389
550.33
550.272
550.213
550.154
550.096
550.036
549.975
549.913
549.848
549.781
549.71
549.635
549.554
549.468
549.376
549.277
549.17
549.056
548.934
548.804
548.666
548.523
548.375
548.225
548.072
547.918
547.761
547.604
547.446
547.289
547.133
546.976
546.82
546.663
546.507
546.35
546.193
546.034
545.873
545.711
545.549
545.387
545.23
545.075
544.931
544.794
544.663
544.536
544.413
544.291
544.17
544.051
543.933
543.815
543.699
543.583
543.467
543.353
543.239
543.126
543.013
542.9
542.788
542.677
542.566
542.455
542.345
542.235
542.125
542.015
541.906
541.797
541.688
541.579
541.47
541.362
541.253
541.145
541.037
540.928
540.82
540.712
540.604
552.508
552.426
552.344
552.265
552.188
552.114
552.044
551.977
551.913
551.852
551.794
551.738
551.684
551.632
551.581
551.53
551.48
551.429
551.379
551.328
551.276
551.223
551.17
551.116
551.061
551.006
550.95
550.893
550.836
550.778
550.72
550.661
550.601
550.541
550.481
550.42
550.359
550.299
550.238
550.178
550.117
550.057
549.996
549.935
549.872
549.808
549.74
549.67
549.596
549.517
549.433
549.343
549.247
549.143
549.032
548.913
548.786
548.653
548.512
548.367
548.219
548.068
547.915
547.76
547.604
547.447
547.291
547.134
546.977
546.82
546.662
546.504
546.344
546.184
546.022
545.857
545.691
545.523
545.356
545.194
545.037
544.894
544.762
544.636
544.514
544.393
544.274
544.156
544.039
543.922
543.806
543.69
543.575
543.461
543.347
543.233
543.12
543.008
542.896
542.784
542.673
542.563
542.452
542.342
542.232
542.123
542.013
541.904
541.795
541.686
541.578
541.469
541.361
541.252
541.144
541.036
540.928
540.82
540.712
540.604
552.51
552.43
552.352
552.276
552.201
552.13
552.061
551.996
551.933
551.873
551.815
551.76
551.706
551.653
551.6
551.548
551.497
551.445
551.392
551.338
551.284
551.228
551.172
551.115
551.058
551
550.942
550.883
550.823
550.763
550.702
550.64
550.578
550.516
550.453
550.389
550.326
550.263
550.2
550.138
550.076
550.014
549.952
549.89
549.826
549.762
549.695
549.625
549.552
549.475
549.393
549.305
549.211
549.11
549.002
548.887
548.764
548.634
548.498
548.355
548.209
548.06
547.909
547.756
547.602
547.446
547.29
547.133
546.975
546.817
546.658
546.498
546.336
546.173
546.007
545.839
545.668
545.494
545.32
545.148
544.984
544.847
544.723
544.605
544.488
544.373
544.257
544.141
544.026
543.91
543.796
543.681
543.567
543.453
543.34
543.227
543.115
543.003
542.891
542.78
542.669
542.559
542.449
542.339
542.229
542.12
542.011
541.902
541.793
541.685
541.576
541.468
541.36
541.252
541.143
541.035
540.928
540.82
540.712
540.604
552.512
552.435
552.36
552.286
552.215
552.146
552.079
552.015
551.954
551.894
551.837
551.781
551.727
551.673
551.619
551.566
551.512
551.458
551.403
551.347
551.289
551.231
551.172
551.113
551.052
550.992
550.931
550.869
550.807
550.745
550.681
550.617
550.553
550.487
550.422
550.356
550.29
550.224
550.159
550.094
550.03
549.967
549.904
549.841
549.776
549.711
549.645
549.575
549.503
549.427
549.346
549.261
549.17
549.072
548.968
548.856
548.737
548.611
548.478
548.339
548.196
548.049
547.901
547.75
547.597
547.443
547.287
547.13
546.972
546.813
546.652
546.49
546.326
546.159
545.99
545.817
545.641
545.46
545.274
545.087
544.902
544.785
544.679
544.572
544.463
544.351
544.239
544.126
544.012
543.899
543.785
543.671
543.558
543.445
543.333
543.22
543.109
542.997
542.886
542.775
542.665
542.555
542.445
542.336
542.226
542.117
542.009
541.9
541.791
541.683
541.575
541.467
541.359
541.251
541.143
541.035
540.927
540.819
540.712
540.604
552.513
552.44
552.368
552.297
552.228
552.161
552.096
552.034
551.973
551.915
551.857
551.802
551.747
551.692
551.638
551.583
551.527
551.47
551.412
551.353
551.292
551.231
551.17
551.107
551.044
550.981
550.917
550.853
550.789
550.724
550.659
550.592
550.525
550.457
550.389
550.32
550.251
550.183
550.115
550.048
549.981
549.916
549.852
549.787
549.722
549.657
549.59
549.521
549.449
549.374
549.295
549.212
549.123
549.028
548.927
548.82
548.705
548.583
548.454
548.319
548.178
548.035
547.888
547.74
547.589
547.436
547.281
547.124
546.966
546.806
546.644
546.48
546.314
546.144
545.971
545.794
545.613
545.425
545.228
545.013
544.754
544.713
544.634
544.54
544.438
544.332
544.222
544.111
543.999
543.886
543.774
543.661
543.549
543.437
543.325
543.213
543.102
542.991
542.88
542.77
542.66
542.551
542.441
542.332
542.223
542.114
542.006
541.897
541.789
541.681
541.573
541.465
541.357
541.249
541.142
541.034
540.926
540.819
540.711
540.604
552.515
552.445
552.375
552.307
552.241
552.176
552.113
552.052
551.992
551.934
551.877
551.821
551.765
551.71
551.653
551.596
551.539
551.479
551.419
551.357
551.293
551.229
551.164
551.099
551.033
550.968
550.902
550.836
550.77
550.703
550.635
550.566
550.496
550.425
550.354
550.283
550.211
550.14
550.069
549.999
549.931
549.863
549.797
549.731
549.666
549.599
549.532
549.462
549.391
549.317
549.24
549.158
549.072
548.98
548.882
548.778
548.667
548.549
548.424
548.293
548.157
548.016
547.872
547.725
547.577
547.426
547.272
547.116
546.957
546.797
546.634
546.469
546.301
546.129
545.954
545.775
545.59
545.399
545.196
544.975
544.727
544.678
544.605
544.517
544.418
544.314
544.207
544.097
543.986
543.874
543.763
543.651
543.539
543.428
543.316
543.205
543.095
542.985
542.875
542.765
542.655
542.546
542.437
542.328
542.22
542.111
542.003
541.895
541.787
541.679
541.571
541.464
541.356
541.248
541.141
541.033
540.926
540.818
540.711
540.604
552.516
552.449
552.383
552.317
552.253
552.19
552.128
552.068
552.01
551.952
551.895
551.838
551.782
551.725
551.667
551.609
551.548
551.487
551.423
551.358
551.292
551.224
551.157
551.089
551.021
550.953
550.886
550.818
550.749
550.68
550.61
550.539
550.466
550.393
550.319
550.244
550.17
550.095
550.022
549.95
549.878
549.809
549.74
549.673
549.606
549.539
549.471
549.402
549.33
549.257
549.18
549.1
549.016
548.927
548.832
548.731
548.624
548.51
548.39
548.263
548.13
547.992
547.851
547.707
547.561
547.412
547.26
547.104
546.946
546.785
546.622
546.457
546.288
546.115
545.939
545.759
545.574
545.381
545.178
544.961
544.721
544.667
544.592
544.503
544.404
544.3
544.193
544.084
543.973
543.863
543.751
543.64
543.529
543.418
543.308
543.197
543.087
542.978
542.868
542.759
542.65
542.541
542.433
542.324
542.216
542.108
542
541.892
541.785
541.677
541.569
541.462
541.355
541.247
541.14
541.033
540.925
540.818
540.711
540.604
552.518
552.453
552.39
552.326
552.264
552.203
552.143
552.084
552.026
551.968
551.911
551.854
551.797
551.739
551.679
551.618
551.556
551.492
551.425
551.357
551.288
551.218
551.147
551.077
551.008
550.938
550.868
550.798
550.728
550.657
550.585
550.512
550.437
550.361
550.284
550.206
550.129
550.051
549.975
549.899
549.826
549.753
549.683
549.614
549.545
549.477
549.408
549.338
549.267
549.193
549.118
549.039
548.956
548.869
548.777
548.679
548.576
548.466
548.35
548.227
548.098
547.964
547.826
547.685
547.541
547.394
547.244
547.09
546.932
546.772
546.609
546.443
546.274
546.102
545.926
545.747
545.564
545.375
545.178
544.969
544.737
544.678
544.593
544.497
544.395
544.289
544.181
544.072
543.961
543.851
543.74
543.63
543.519
543.409
543.299
543.189
543.08
542.971
542.862
542.753
542.644
542.536
542.428
542.32
542.212
542.105
541.997
541.889
541.782
541.675
541.567
541.46
541.353
541.246
541.139
541.032
540.925
540.818
540.711
540.604
552.519
552.457
552.396
552.335
552.274
552.215
552.156
552.098
552.04
551.983
551.926
551.868
551.81
551.75
551.689
551.626
551.561
551.494
551.425
551.355
551.282
551.21
551.137
551.065
550.994
550.922
550.851
550.78
550.708
550.635
550.561
550.485
550.408
550.33
550.25
550.169
550.088
550.008
549.928
549.849
549.773
549.698
549.624
549.553
549.483
549.413
549.343
549.273
549.201
549.128
549.052
548.974
548.893
548.808
548.718
548.623
548.523
548.417
548.305
548.186
548.062
547.932
547.797
547.659
547.517
547.373
547.224
547.072
546.916
546.757
546.595
546.43
546.262
546.09
545.916
545.739
545.559
545.376
545.191
545.005
544.832
544.713
544.605
544.498
544.39
544.281
544.171
544.06
543.95
543.839
543.729
543.619
543.509
543.399
543.29
543.18
543.072
542.963
542.855
542.747
542.639
542.531
542.423
542.316
542.208
542.101
541.994
541.887
541.779
541.672
541.565
541.458
541.352
541.245
541.138
541.031
540.924
540.817
540.71
540.603
552.52
552.461
552.401
552.342
552.283
552.225
552.167
552.11
552.053
551.996
551.938
551.88
551.821
551.76
551.697
551.632
551.565
551.495
551.424
551.351
551.276
551.201
551.127
551.053
550.98
550.908
550.835
550.762
550.688
550.613
550.537
550.46
550.38
550.3
550.217
550.134
550.05
549.966
549.883
549.801
549.721
549.643
549.567
549.493
549.42
549.349
549.278
549.206
549.134
549.06
548.985
548.907
548.827
548.743
548.655
548.564
548.467
548.364
548.255
548.141
548.021
547.895
547.764
547.629
547.49
547.348
547.202
547.052
546.898
546.741
546.58
546.417
546.25
546.08
545.907
545.733
545.557
545.38
545.204
545.032
544.872
544.738
544.616
544.5
544.386
544.273
544.161
544.049
543.938
543.827
543.717
543.607
543.498
543.389
543.28
543.171
543.063
542.955
542.848
542.74
542.633
542.525
542.418
542.311
542.204
542.097
541.99
541.884
541.777
541.67
541.563
541.457
541.35
541.243
541.137
541.03
540.923
540.817
540.71
540.603
552.521
552.464
552.406
552.349
552.292
552.235
552.178
552.121
552.064
552.007
551.949
551.89
551.83
551.768
551.703
551.636
551.567
551.495
551.421
551.346
551.27
551.193
551.117
551.042
550.968
550.895
550.821
550.747
550.671
550.594
550.516
550.436
550.355
550.271
550.186
550.1
550.013
549.926
549.84
549.754
549.671
549.59
549.511
549.434
549.359
549.285
549.212
549.139
549.065
548.991
548.915
548.838
548.758
548.676
548.59
548.5
548.406
548.307
548.202
548.091
547.976
547.854
547.727
547.596
547.46
547.321
547.177
547.03
546.878
546.723
546.564
546.402
546.237
546.069
545.899
545.728
545.555
545.383
545.212
545.046
544.885
544.75
544.621
544.499
544.38
544.264
544.15
544.038
543.926
543.815
543.705
543.596
543.487
543.378
543.27
543.162
543.055
542.947
542.84
542.733
542.626
542.52
542.413
542.307
542.2
542.094
541.987
541.881
541.774
541.668
541.561
541.455
541.348
541.242
541.135
541.029
540.923
540.816
540.71
540.603
552.522
552.467
552.411
552.355
552.299
552.243
552.187
552.13
552.074
552.016
551.958
551.898
551.837
551.774
551.708
551.639
551.568
551.494
551.418
551.341
551.263
551.185
551.109
551.033
550.959
550.885
550.811
550.735
550.658
550.578
550.497
550.415
550.331
550.245
550.157
550.068
549.978
549.888
549.798
549.71
549.623
549.539
549.457
549.377
549.299
549.222
549.147
549.072
548.997
548.922
548.845
548.767
548.688
548.606
548.521
548.433
548.342
548.245
548.144
548.038
547.926
547.809
547.687
547.559
547.427
547.291
547.15
547.005
546.856
546.703
546.546
546.386
546.223
546.057
545.89
545.721
545.552
545.384
545.218
545.056
544.899
544.755
544.621
544.494
544.372
544.254
544.139
544.025
543.913
543.802
543.692
543.583
543.475
543.367
543.26
543.153
543.046
542.939
542.833
542.726
542.62
542.514
542.408
542.302
542.196
542.09
541.984
541.878
541.771
541.665
541.559
541.453
541.347
541.241
541.134
541.028
540.922
540.816
540.709
540.603
552.523
552.469
552.414
552.36
552.305
552.25
552.194
552.138
552.081
552.024
551.965
551.905
551.843
551.778
551.711
551.641
551.568
551.492
551.414
551.336
551.257
551.18
551.103
551.028
550.954
550.88
550.804
550.727
550.647
550.565
550.482
550.396
550.309
550.221
550.13
550.039
549.946
549.853
549.76
549.669
549.579
549.491
549.406
549.322
549.242
549.162
549.084
549.007
548.93
548.853
548.776
548.697
548.617
548.535
548.451
548.365
548.275
548.182
548.084
547.982
547.874
547.761
547.643
547.519
547.39
547.257
547.119
546.977
546.831
546.68
546.526
546.368
546.207
546.044
545.879
545.713
545.547
545.381
545.218
545.056
544.898
544.749
544.612
544.483
544.36
544.241
544.125
544.011
543.899
543.789
543.679
543.571
543.463
543.356
543.249
543.143
543.037
542.931
542.825
542.719
542.614
542.508
542.403
542.297
542.191
542.086
541.98
541.874
541.769
541.663
541.557
541.451
541.345
541.239
541.133
541.027
540.921
540.815
540.709
540.603
552.524
552.471
552.417
552.364
552.309
552.255
552.2
552.144
552.088
552.03
551.971
551.91
551.847
551.781
551.713
551.642
551.568
551.492
551.414
551.335
551.256
551.179
551.103
551.028
550.954
550.879
550.803
550.724
550.641
550.556
550.469
550.381
550.291
550.199
550.106
550.012
549.917
549.821
549.725
549.631
549.539
549.448
549.359
549.273
549.189
549.106
549.026
548.946
548.866
548.787
548.708
548.628
548.547
548.465
548.381
548.296
548.208
548.117
548.022
547.923
547.819
547.709
547.595
547.474
547.349
547.219
547.084
546.945
546.801
546.653
546.501
546.346
546.187
546.026
545.864
545.701
545.537
545.373
545.209
545.047
544.885
544.73
544.594
544.467
544.345
544.226
544.11
543.996
543.884
543.774
543.665
543.557
543.45
543.344
543.238
543.132
543.027
542.922
542.817
542.712
542.607
542.502
542.397
542.292
542.187
542.082
541.977
541.871
541.766
541.66
541.555
541.449
541.344
541.238
541.132
541.026
540.921
540.815
540.709
540.603
552.524
552.472
552.419
552.366
552.313
552.259
552.204
552.149
552.092
552.034
551.975
551.914
551.85
551.784
551.716
551.644
551.57
551.494
551.416
551.338
551.261
551.185
551.109
551.035
550.96
550.885
550.807
550.725
550.64
550.552
550.462
550.37
550.277
550.182
550.086
549.989
549.891
549.793
549.695
549.599
549.503
549.41
549.318
549.229
549.141
549.056
548.972
548.889
548.807
548.725
548.643
548.561
548.479
548.395
548.312
548.227
548.14
548.051
547.958
547.861
547.76
547.654
547.542
547.425
547.302
547.175
547.043
546.906
546.765
546.619
546.47
546.317
546.162
546.004
545.844
545.683
545.521
545.358
545.194
545.029
544.86
544.692
544.566
544.445
544.326
544.208
544.092
543.979
543.867
543.758
543.65
543.543
543.437
543.331
543.226
543.122
543.018
542.913
542.809
542.705
542.601
542.497
542.392
542.288
542.183
542.078
541.973
541.868
541.763
541.658
541.553
541.448
541.342
541.237
541.131
541.025
540.92
540.814
540.709
540.603
552.524
552.472
552.42
552.368
552.315
552.261
552.207
552.152
552.095
552.037
551.978
551.916
551.853
551.787
551.718
551.647
551.574
551.499
551.423
551.347
551.272
551.197
551.124
551.05
550.975
550.897
550.817
550.732
550.643
550.552
550.458
550.364
550.268
550.17
550.071
549.971
549.87
549.77
549.67
549.572
549.475
549.38
549.285
549.193
549.102
549.013
548.926
548.839
548.753
548.669
548.584
548.499
548.414
548.329
548.245
548.159
548.072
547.984
547.892
547.797
547.698
547.593
547.483
547.367
547.247
547.122
546.992
546.857
546.718
546.575
546.429
546.279
546.127
545.973
545.816
545.658
545.499
545.337
545.174
545.006
544.826
544.611
544.531
544.422
544.305
544.188
544.073
543.96
543.849
543.74
543.633
543.527
543.422
543.318
543.215
543.111
543.008
542.905
542.801
542.698
542.595
542.491
542.387
542.283
542.179
542.075
541.97
541.866
541.761
541.656
541.551
541.446
541.341
541.235
541.13
541.025
540.919
540.814
540.708
540.603
552.524
552.472
552.421
552.368
552.316
552.262
552.208
552.153
552.097
552.039
551.979
551.918
551.855
551.789
551.722
551.652
551.58
551.507
551.434
551.361
551.289
551.217
551.145
551.072
550.996
550.917
550.834
550.745
550.653
550.557
550.461
550.364
550.266
550.167
550.064
549.961
549.858
549.756
549.655
549.556
549.458
549.36
549.264
549.168
549.074
548.981
548.889
548.799
548.709
548.619
548.531
548.442
548.354
548.266
548.18
548.093
548.006
547.917
547.825
547.729
547.63
547.525
547.415
547.3
547.18
547.055
546.926
546.794
546.657
546.517
546.373
546.228
546.08
545.929
545.777
545.623
545.466
545.309
545.149
544.987
544.82
544.654
544.526
544.404
544.284
544.166
544.051
543.938
543.829
543.721
543.616
543.511
543.408
543.305
543.203
543.1
542.998
542.896
542.794
542.691
542.588
542.485
542.382
542.279
542.175
542.071
541.967
541.863
541.758
541.654
541.549
541.444
541.339
541.234
541.129
541.024
540.919
540.813
540.708
540.603
552.524
552.472
552.42
552.368
552.316
552.262
552.209
552.154
552.098
552.04
551.981
551.92
551.857
551.792
551.726
551.658
551.589
551.52
551.45
551.38
551.311
551.241
551.171
551.099
551.023
550.943
550.857
550.766
550.669
550.57
550.471
550.373
550.274
550.172
550.068
549.962
549.858
549.755
549.654
549.554
549.456
549.358
549.259
549.16
549.061
548.964
548.867
548.77
548.675
548.58
548.485
548.392
548.299
548.208
548.118
548.03
547.941
547.85
547.756
547.657
547.555
547.447
547.335
547.218
547.096
546.97
546.84
546.708
546.573
546.436
546.297
546.156
546.013
545.869
545.722
545.573
545.422
545.269
545.116
544.962
544.807
544.654
544.514
544.384
544.26
544.141
544.026
543.915
543.806
543.701
543.597
543.494
543.393
543.291
543.19
543.09
542.989
542.887
542.786
542.684
542.582
542.48
542.377
542.274
542.171
542.068
541.964
541.86
541.756
541.652
541.547
541.443
541.338
541.233
541.128
541.023
540.918
540.813
540.708
540.603
552.524
552.472
552.419
552.367
552.315
552.262
552.209
552.154
552.099
552.041
551.983
551.922
551.86
551.797
551.733
551.668
551.602
551.536
551.469
551.403
551.336
551.269
551.2
551.128
551.053
550.972
550.886
550.793
550.693
550.592
550.491
550.391
550.29
550.188
550.083
549.977
549.874
549.772
549.672
549.576
549.48
549.382
549.28
549.177
549.073
548.968
548.863
548.759
548.654
548.551
548.448
548.347
548.249
548.152
548.06
547.971
547.88
547.786
547.686
547.579
547.469
547.355
547.237
547.116
546.99
546.86
546.727
546.595
546.459
546.325
546.189
546.055
545.922
545.787
545.65
545.509
545.365
545.218
545.072
544.927
544.781
544.634
544.489
544.356
544.23
544.111
543.997
543.888
543.782
543.679
543.577
543.477
543.377
543.277
543.178
543.079
542.979
542.879
542.779
542.678
542.577
542.475
542.373
542.27
542.168
542.065
541.961
541.858
541.754
541.65
541.546
541.441
541.337
541.232
541.127
541.022
540.918
540.813
540.708
540.603
552.524
552.471
552.418
552.366
552.314
552.262
552.209
552.156
552.101
552.045
551.987
551.927
551.866
551.804
551.742
551.679
551.616
551.553
551.49
551.427
551.363
551.298
551.23
551.159
551.084
551.005
550.92
550.827
550.726
550.624
550.522
550.42
550.318
550.214
550.11
550.008
549.908
549.811
549.717
549.627
549.538
549.444
549.341
549.232
549.119
549.004
548.887
548.769
548.652
548.536
548.421
548.309
548.202
548.1
548.006
547.92
547.83
547.73
547.619
547.501
547.376
547.249
547.123
546.997
546.863
546.723
546.578
546.441
546.299
546.17
546.035
545.915
545.798
545.68
545.561
545.436
545.302
545.16
545.018
544.879
544.742
544.602
544.447
544.32
544.192
544.074
543.963
543.857
543.755
543.655
543.556
543.458
543.361
543.264
543.166
543.068
542.97
542.871
542.772
542.672
542.571
542.47
542.369
542.267
542.164
542.062
541.959
541.855
541.752
541.648
541.544
541.44
541.336
541.231
541.127
541.022
540.917
540.812
540.707
540.602
552.523
552.469
552.417
552.365
552.314
552.264
552.213
552.161
552.107
552.051
551.994
551.935
551.875
551.814
551.753
551.693
551.632
551.572
551.512
551.451
551.389
551.325
551.258
551.188
551.116
551.039
550.957
550.865
550.765
550.665
550.563
550.461
550.359
550.254
550.15
550.055
549.963
549.872
549.786
549.708
549.636
549.556
549.453
549.337
549.211
549.081
548.946
548.808
548.677
548.546
548.414
548.286
548.164
548.056
547.96
547.884
547.795
547.685
547.559
547.43
547.288
547.143
547.01
546.885
546.735
546.57
546.382
546.234
546.059
545.954
545.799
545.712
545.621
545.533
545.462
545.378
545.264
545.122
544.983
544.85
544.72
544.585
544.444
544.283
544.143
544.03
543.924
543.824
543.726
543.629
543.534
543.44
543.345
543.25
543.155
543.058
542.961
542.864
542.765
542.666
542.566
542.466
542.365
542.263
542.162
542.059
541.957
541.854
541.75
541.647
541.543
541.439
541.335
541.23
541.126
541.021
540.917
540.812
540.707
540.602
552.522
552.468
552.415
552.364
552.316
552.267
552.219
552.169
552.117
552.061
552.003
551.944
551.885
551.827
551.767
551.707
551.648
551.59
551.533
551.475
551.414
551.352
551.285
551.215
551.144
551.07
550.99
550.899
550.805
550.711
550.609
550.51
550.417
550.312
550.209
550.123
550.042
549.956
549.876
549.803
549.752
549.704
549.607
549.487
549.35
549.199
549.038
548.876
548.756
548.623
548.466
548.304
548.149
548.049
547.949
547.889
547.764
547.619
547.476
547.369
547.22
547.055
546.94
546.839
546.713
546.456
546.249
545.953
545.761
545.655
545.472
545.389
545.338
545.247
545.398
545.343
545.308
545.173
545.038
544.908
544.77
544.545
544.401
544.191
544.068
543.976
543.88
543.787
543.695
543.603
543.512
543.421
543.329
543.237
543.144
543.049
542.954
542.857
542.76
542.661
542.562
542.462
542.362
542.261
542.159
542.057
541.955
541.852
541.749
541.645
541.542
541.438
541.334
541.23
541.125
541.021
540.916
540.812
540.707
540.602
552.521
552.465
552.412
552.363
552.316
552.271
552.226
552.182
552.13
552.07
552.008
551.95
551.893
551.84
551.785
551.728
551.664
551.605
551.55
551.494
551.44
551.387
551.321
551.249
551.179
551.1
551.012
550.914
550.826
550.751
550.644
550.548
550.501
550.405
550.297
550.23
550.181
550.1
550.006
549.879
549.816
549.822
549.734
549.633
549.546
549.379
549.159
548.921
548.839
548.746
548.627
548.416
548.169
548.046
547.948
547.786
547.7
547.503
547.38
547.328
547.221
547.093
546.978
546.853
546.565
546.392
546.191
545.768
545.705
545.455
545.417
545.355
545.278
545.266
545.267
545.227
545.129
545.044
544.915
544.811
544.702
544.567
544.38
544.057
544.002
543.924
543.834
543.748
543.663
543.577
543.49
543.403
543.315
543.225
543.134
543.041
542.947
542.852
542.755
542.657
542.559
542.459
542.359
542.258
542.157
542.055
541.953
541.85
541.747
541.644
541.541
541.437
541.333
541.229
541.125
541.02
540.916
540.811
540.707
540.602
552.52
552.461
552.407
552.357
552.31
552.265
552.228
552.199
552.142
552.069
552
551.941
551.881
551.846
551.813
551.77
551.687
551.61
551.547
551.485
551.457
551.436
551.381
551.32
551.268
551.162
551.036
550.891
550.787
550.777
550.622
550.483
550.616
550.56
550.468
550.406
550.309
550.275
550.171
549.975
549.849
549.771
549.686
549.672
549.661
549.468
549.207
548.986
549.098
549.056
548.907
548.539
548.089
547.945
547.921
547.745
547.621
547.425
547.22
547.241
547.221
547.213
546.918
546.697
546.524
546.304
546.109
545.875
545.735
545.6
545.523
545.455
545.381
545.309
545.247
545.16
545.064
544.958
544.848
544.753
544.668
544.543
544.272
544.034
543.969
543.863
543.784
543.709
543.633
543.551
543.469
543.386
543.302
543.215
543.126
543.035
542.942
542.847
542.751
542.654
542.556
542.457
542.357
542.256
542.155
542.054
541.952
541.849
541.747
541.643
541.54
541.436
541.333
541.229
541.124
541.02
540.916
540.811
540.707
540.602
552.517
552.455
552.398
552.341
552.285
552.228
552.208
552.232
552.141
552.038
551.982
551.924
551.806
551.823
551.851
551.889
551.738
551.597
551.481
551.355
551.409
551.457
551.439
551.478
551.584
551.397
551.131
550.939
550.609
550.565
550.483
550.502
550.715
550.791
550.714
550.751
550.559
550.594
550.533
550.022
549.808
549.676
549.452
549.58
549.515
549.299
549.14
548.998
549.297
549.209
548.974
548.556
548.005
547.779
547.682
547.597
547.539
547.505
547.386
547.341
547.214
547.11
546.895
546.671
546.499
546.296
546.135
545.962
545.851
545.723
545.624
545.534
545.435
545.334
545.23
545.122
545.015
544.911
544.811
544.715
544.631
544.389
544.058
543.96
543.91
543.83
543.734
543.673
543.607
543.527
543.448
543.371
543.291
543.207
543.12
543.03
542.938
542.844
542.748
542.652
542.554
542.455
542.356
542.255
542.154
542.053
541.951
541.849
541.746
541.643
541.54
541.436
541.332
541.228
541.124
541.02
540.916
540.811
540.707
540.602