/*--------------------------------*- C++ -*----------------------------------*\
  =========                 |
  \\      /  F ield         | OpenFOAM: The Open Source CFD Toolbox
   \\    /   O peration     | Website:  https://openfoam.org
    \\  /    A nd           | Version:  6
     \\/     M anipulation  |
\*---------------------------------------------------------------------------*/
FoamFile
{
    version     2.0;
    format      ascii;
    class       volVectorField;
    location    "1850";
    object      U;
}
// * * * * * * * * * * * * * * * * * * * * * * * * * * * * * * * * * * * * * //

dimensions      [0 1 -1 0 0 0 0];

internalField   nonuniform List<vector> 
4800
(
(-0.000130317 0 8.78585e-05)
(7.94955e-05 0 2.33476e-05)
(-0.000437587 0 -6.39883e-05)
(-0.000532527 0 0.000166039)
(-0.00066831 0 -0.000102987)
(-0.000751653 0 7.54163e-05)
(-0.00084146 0 -4.27305e-05)
(-0.000908124 0 2.44453e-05)
(-0.000954706 0 3.59301e-06)
(-0.000987135 0 -4.13988e-06)
(-0.0010148 0 1.79835e-06)
(-0.00103146 0 -1.1726e-05)
(-0.00104153 0 -3.31761e-05)
(-0.00105627 0 -1.88656e-05)
(-0.00106255 0 -2.12667e-05)
(-0.00102162 0 -5.85241e-05)
(-0.000973968 0 -0.000125191)
(-0.000937419 0 -0.000116532)
(-0.000851691 0 -6.53713e-05)
(-0.000752371 0 -3.39472e-05)
(-0.000652464 0 -7.67484e-05)
(-0.00056478 0 -0.000106144)
(-0.000508494 0 -7.97166e-05)
(-0.000440158 0 -8.93514e-05)
(-0.000354011 0 -8.83452e-05)
(-0.000291062 0 -3.00079e-05)
(-0.000210287 0 -5.06983e-05)
(-0.000137557 0 -5.64698e-05)
(-9.75755e-05 0 -2.88923e-05)
(-7.19105e-05 0 4.31048e-06)
(-3.95236e-05 0 -3.2256e-05)
(6.38309e-05 0 -0.000148817)
(0.000105558 0 9.26547e-06)
(0.000117362 0 -0.000163403)
(0.000255033 0 -0.000122959)
(0.000288221 0 -8.09673e-05)
(0.000333701 0 -6.69707e-05)
(0.000432297 0 -6.22241e-05)
(0.000564311 0 -4.89212e-05)
(0.000679524 0 -0.00010347)
(0.000706721 0 -0.000108326)
(0.000718695 0 -8.24422e-05)
(0.000740508 0 -9.36589e-05)
(0.000779397 0 -0.000102473)
(0.000813721 0 -8.46181e-05)
(0.00083409 0 -0.000122162)
(0.00084872 0 -0.000113176)
(0.000867325 0 -6.03063e-05)
(0.000868951 0 -2.79849e-05)
(0.000857468 0 -6.64429e-05)
(0.000806793 0 -6.01315e-05)
(0.000654982 0 -0.000118518)
(0.000462867 0 -4.65699e-05)
(0.00029531 0 3.5039e-05)
(0.00018983 0 -4.92767e-05)
(0.000129942 0 -6.04288e-05)
(0.000104913 0 -0.000111662)
(6.58538e-05 0 -0.000206448)
(5.93942e-05 0 -6.81831e-05)
(-6.14337e-05 0 -5.24978e-06)
(-5.00212e-05 0 2.37886e-05)
(-8.44724e-05 0 2.03054e-06)
(-9.69946e-05 0 3.4664e-06)
(-0.000106929 0 1.51214e-06)
(-0.000124097 0 1.85764e-05)
(-0.000148115 0 2.61449e-05)
(-0.00015764 0 1.46043e-05)
(-0.000150897 0 -3.24273e-06)
(-0.000145362 0 1.96728e-05)
(-0.000141948 0 2.30854e-05)
(-0.000143972 0 3.4868e-05)
(-0.000147639 0 4.06137e-05)
(-0.000156457 0 5.41905e-05)
(-0.000251372 0 -4.49052e-05)
(-0.000293129 0 -0.000140532)
(-0.000305799 0 -0.000187991)
(-0.000406308 0 -0.000129109)
(-0.000481552 0 -0.00021079)
(-0.000582174 0 -0.000208598)
(5.64323e-06 0 -0.000102982)
(-4.19362e-13 0 -4.90777e-14)
(-1.89622e-12 0 -4.55411e-14)
(-6.68135e-13 0 -2.65742e-14)
(-6.21929e-13 0 -1.99373e-14)
(-5.8364e-13 0 -1.87507e-14)
(-5.44915e-13 0 -2.02921e-14)
(-5.01608e-13 0 -2.32966e-14)
(-4.51558e-13 0 -2.70511e-14)
(-3.93734e-13 0 -3.10411e-14)
(-3.28039e-13 0 -3.48855e-14)
(-2.55031e-13 0 -3.83024e-14)
(-1.75762e-13 0 -4.10855e-14)
(-9.1649e-14 0 -4.30897e-14)
(-4.36511e-15 0 -4.42223e-14)
(8.42638e-14 0 -4.44365e-14)
(1.72354e-13 0 -4.37254e-14)
(2.5805e-13 0 -4.2117e-14)
(3.39605e-13 0 -3.96701e-14)
(4.15423e-13 0 -3.64673e-14)
(4.84102e-13 0 -3.26066e-14)
(5.4447e-13 0 -2.81986e-14)
(5.95616e-13 0 -2.33666e-14)
(6.36889e-13 0 -1.82417e-14)
(6.67884e-13 0 -1.29525e-14)
(6.88426e-13 0 -7.61757e-15)
(6.98551e-13 0 -2.34441e-15)
(6.9847e-13 0 2.77081e-15)
(6.88527e-13 0 7.64716e-15)
(6.69174e-13 0 1.22253e-14)
(6.40968e-13 0 1.6468e-14)
(6.04572e-13 0 2.03542e-14)
(5.60736e-13 0 2.387e-14)
(5.10257e-13 0 2.70029e-14)
(4.53943e-13 0 2.97421e-14)
(3.92596e-13 0 3.20809e-14)
(3.27008e-13 0 3.40193e-14)
(2.57963e-13 0 3.55633e-14)
(1.86236e-13 0 3.67241e-14)
(1.1258e-13 0 3.75193e-14)
(3.76806e-14 0 3.79925e-14)
(-0.000307736 0 8.37682e-05)
(-0.000198278 0 0.000249815)
(-0.000524885 0 0.0001086)
(-0.000518574 0 0.000202814)
(-0.000649358 0 0.000150404)
(-0.000728601 0 0.000170339)
(-0.000815798 0 0.000123019)
(-0.000874878 0 9.37286e-05)
(-0.000921742 0 6.13696e-05)
(-0.000963112 0 3.35056e-05)
(-0.000994164 0 3.99405e-05)
(-0.00100653 0 3.69311e-05)
(-0.000980316 0 9.83684e-06)
(-0.000964638 0 5.80255e-06)
(-0.00096853 0 -3.17307e-06)
(-0.000962258 0 -7.01736e-05)
(-0.000873586 0 -0.000179285)
(-0.000831658 0 8.62175e-06)
(-0.000740938 0 -0.00015143)
(-0.000646085 0 -0.000127306)
(-0.000566673 0 -6.17655e-05)
(-0.000481337 0 -0.000119882)
(-0.000414058 0 -0.000105927)
(-0.000360776 0 -7.13243e-05)
(-0.000252032 0 -0.000149858)
(-0.000216514 0 -8.90726e-05)
(-0.000153914 0 -7.36272e-05)
(-8.69126e-05 0 -7.38428e-05)
(-3.32238e-05 0 -5.38578e-05)
(2.14011e-05 0 -4.26124e-05)
(6.22433e-05 0 1.09624e-05)
(5.29157e-05 0 -0.000179626)
(0.000207418 0 -0.000121023)
(0.000295609 0 6.39393e-05)
(0.000330049 0 -9.74365e-05)
(0.00035949 0 -8.01812e-05)
(0.000359821 0 -0.000140639)
(0.000415419 0 -0.000139318)
(0.000509019 0 -0.000215283)
(0.000644652 0 -0.000106054)
(0.000723334 0 7.52139e-06)
(0.000760321 0 -6.77333e-05)
(0.000798045 0 6.83646e-05)
(0.000846903 0 -7.59015e-05)
(0.000907651 0 -1.14155e-05)
(0.000951575 0 6.05164e-06)
(0.000950177 0 9.38524e-06)
(0.000937473 0 1.3083e-05)
(0.000914841 0 8.67416e-06)
(0.000886497 0 0.000103134)
(0.000850783 0 0.000231272)
(0.000822275 0 0.000254872)
(0.000688135 0 0.000342904)
(0.000553835 0 0.000256606)
(0.000350489 0 0.000269458)
(0.000340892 0 3.92595e-05)
(0.000222806 0 8.64901e-05)
(0.000169876 0 0.000163693)
(0.000167879 0 0.000109091)
(0.000154843 0 5.8035e-05)
(2.69398e-05 0 7.92692e-05)
(-3.64886e-05 0 4.29892e-05)
(-6.64397e-05 0 1.34211e-05)
(-8.32899e-05 0 1.61313e-05)
(-9.56592e-05 0 -1.2699e-06)
(-0.000108571 0 3.85516e-06)
(-0.000121666 0 1.33182e-05)
(-0.000130042 0 9.23252e-06)
(-0.000133249 0 -1.06303e-05)
(-0.000115204 0 -4.4346e-05)
(-7.71946e-05 0 -4.16111e-06)
(-4.88511e-05 0 1.17236e-05)
(-1.08091e-05 0 7.06955e-05)
(-2.37818e-06 0 0.000100815)
(2.41863e-05 0 8.41953e-05)
(7.98462e-05 0 7.49628e-05)
(7.00185e-05 0 2.57289e-05)
(0.000415358 0 4.04837e-05)
(-0.000296854 0 -0.000142222)
(6.08379e-06 0 -7.63629e-05)
(-3.73932e-13 0 -4.7414e-14)
(-1.83861e-12 0 -1.04526e-13)
(-6.43421e-13 0 -6.78239e-14)
(-6.14477e-13 0 -5.47347e-14)
(-5.83971e-13 0 -5.36915e-14)
(-5.49401e-13 0 -5.94727e-14)
(-5.08367e-13 0 -6.92027e-14)
(-4.59302e-13 0 -8.09671e-14)
(-4.01568e-13 0 -9.33007e-14)
(-3.353e-13 0 -1.05103e-13)
(-2.61231e-13 0 -1.15556e-13)
(-1.80549e-13 0 -1.24058e-13)
(-9.47858e-14 0 -1.30184e-13)
(-5.7119e-15 0 -1.3366e-13)
(8.47607e-14 0 -1.34341e-13)
(1.74673e-13 0 -1.32206e-13)
(2.62106e-13 0 -1.27337e-13)
(3.45255e-13 0 -1.19909e-13)
(4.22486e-13 0 -1.10172e-13)
(4.9237e-13 0 -9.84284e-14)
(5.5371e-13 0 -8.5025e-14)
(6.05573e-13 0 -7.03436e-14)
(6.47303e-13 0 -5.47853e-14)
(6.78508e-13 0 -3.87481e-14)
(6.99034e-13 0 -2.26066e-14)
(7.0894e-13 0 -6.6963e-15)
(7.08462e-13 0 8.70022e-15)
(6.97982e-13 0 2.33632e-14)
(6.77995e-13 0 3.71362e-14)
(6.49096e-13 0 4.99136e-14)
(6.11974e-13 0 6.16219e-14)
(5.67385e-13 0 7.22058e-14)
(5.16129e-13 0 8.16225e-14)
(4.59021e-13 0 8.98442e-14)
(3.96873e-13 0 9.68606e-14)
(3.3049e-13 0 1.02678e-13)
(2.60668e-13 0 1.07314e-13)
(1.88192e-13 0 1.10791e-13)
(1.13848e-13 0 1.13135e-13)
(3.81538e-14 0 1.14383e-13)
(-0.0002188 0 0.000377488)
(-0.000168603 0 0.000435356)
(-0.000287701 0 0.000457249)
(-0.000483325 0 0.000253521)
(-0.000528171 0 0.00027801)
(-0.000677996 0 0.000153522)
(-0.000756874 0 0.000176046)
(-0.000842806 0 7.94427e-05)
(-0.000886855 0 0.00014023)
(-0.000941947 0 7.69052e-05)
(-0.000970587 0 6.66298e-05)
(-0.000983978 0 5.04911e-05)
(-0.00096073 0 -8.17597e-05)
(-0.000912849 0 -6.1026e-05)
(-0.000898743 0 -2.10144e-05)
(-0.000893684 0 3.96562e-05)
(-0.000822513 0 -0.000269559)
(-0.00074253 0 -0.000243782)
(-0.000681041 0 -0.000167459)
(-0.000570076 0 -0.000237894)
(-0.000477166 0 -0.000241641)
(-0.00043571 0 -0.000166322)
(-0.000304299 0 -0.000244822)
(-0.000306006 0 -0.000120153)
(-0.000175598 0 -0.000195335)
(-0.000177703 0 -0.000112101)
(-9.55335e-05 0 -0.000136514)
(8.50034e-06 0 -0.000176973)
(5.4532e-05 0 -0.000136561)
(0.000101071 0 -0.000140117)
(0.000215038 0 -6.25984e-05)
(0.000224147 0 -0.000135693)
(0.00018764 0 -0.000251668)
(0.000318787 0 -9.76677e-05)
(0.000327003 0 -0.000212658)
(0.000458797 0 -1.94378e-05)
(0.000422984 0 -0.000181883)
(0.000413153 0 -0.00026621)
(0.000501235 0 -0.000246549)
(0.000604309 0 -0.000165229)
(0.00066237 0 -0.000140436)
(0.000712439 0 -0.000107564)
(0.000756412 0 -0.000144603)
(0.00083966 0 -0.000150472)
(0.000919744 0 -5.62035e-05)
(0.000919884 0 -6.08754e-05)
(0.000918561 0 -1.87921e-05)
(0.000910704 0 3.13943e-05)
(0.000895146 0 6.38347e-05)
(0.000868228 0 3.32652e-05)
(0.000840965 0 0.000117255)
(0.00079483 0 0.000261755)
(0.000765309 0 0.000298337)
(0.000698867 0 0.000335117)
(0.000591163 0 0.000307692)
(0.000488611 0 0.000235316)
(0.000295111 0 0.000222848)
(0.00025799 0 8.23719e-05)
(0.000219524 0 8.08254e-05)
(7.66441e-05 0 0.000147306)
(2.75263e-05 0 0.0001387)
(1.68305e-05 0 0.000104657)
(-7.55946e-06 0 7.16115e-05)
(-7.22375e-05 0 2.41376e-05)
(-9.66209e-05 0 4.16892e-05)
(-0.000123009 0 3.72119e-05)
(-0.000133815 0 3.36192e-05)
(-0.000141873 0 6.76173e-06)
(-0.000145024 0 -2.82447e-05)
(-0.000134225 0 -5.54321e-05)
(-8.5712e-05 0 -5.49739e-05)
(-4.54572e-05 0 -3.47774e-05)
(3.26673e-05 0 -1.37505e-06)
(9.67409e-05 0 4.29282e-06)
(0.000144176 0 1.04916e-05)
(0.000210321 0 2.68046e-06)
(0.000220768 0 -5.0277e-05)
(0.000295398 0 -8.21513e-05)
(-0.000248474 0 -0.000112425)
(6.51101e-06 0 4.79009e-05)
(-3.8452e-13 0 1.33423e-13)
(-1.78873e-12 0 -1.07137e-13)
(-6.18941e-13 0 -8.5713e-14)
(-6.07882e-13 0 -7.76971e-14)
(-5.88162e-13 0 -8.17529e-14)
(-5.60317e-13 0 -9.46054e-14)
(-5.23103e-13 0 -1.13052e-13)
(-4.75656e-13 0 -1.34312e-13)
(-4.1787e-13 0 -1.56111e-13)
(-3.50294e-13 0 -1.76716e-13)
(-2.73986e-13 0 -1.94829e-13)
(-1.9039e-13 0 -2.09494e-13)
(-1.0125e-13 0 -2.20029e-13)
(-8.52198e-15 0 -2.25989e-13)
(8.57174e-14 0 -2.27144e-13)
(1.79358e-13 0 -2.23464e-13)
(2.70347e-13 0 -2.15104e-13)
(3.5677e-13 0 -2.0238e-13)
(4.36903e-13 0 -1.8574e-13)
(5.09249e-13 0 -1.65719e-13)
(5.72555e-13 0 -1.42924e-13)
(6.25855e-13 0 -1.18014e-13)
(6.68484e-13 0 -9.16692e-14)
(7.00063e-13 0 -6.45651e-14)
(7.20478e-13 0 -3.73338e-14)
(7.29858e-13 0 -1.0536e-14)
(7.2853e-13 0 1.5364e-14)
(7.16963e-13 0 4.00093e-14)
(6.95724e-13 0 6.31414e-14)
(6.65453e-13 0 8.45783e-14)
(6.26864e-13 0 1.0419e-13)
(5.80737e-13 0 1.21885e-13)
(5.27895e-13 0 1.37601e-13)
(4.69181e-13 0 1.51307e-13)
(4.0543e-13 0 1.62998e-13)
(3.37461e-13 0 1.7269e-13)
(2.66076e-13 0 1.80409e-13)
(1.92057e-13 0 1.86181e-13)
(1.16172e-13 0 1.90026e-13)
(3.89288e-14 0 1.91945e-13)
(-0.000138338 0 0.000528058)
(-0.000120943 0 0.000531775)
(-0.000242215 0 0.000507544)
(-0.000470339 0 0.000321962)
(-0.000497385 0 0.00034784)
(-0.000649353 0 0.000210167)
(-0.000700096 0 0.000228068)
(-0.000698953 0 0.000321096)
(-0.00080102 0 0.000142682)
(-0.000830016 0 0.000143645)
(-0.000868675 0 3.55135e-05)
(-0.000887241 0 3.09917e-05)
(-0.000893872 0 7.60266e-06)
(-0.000839777 0 -8.99453e-05)
(-0.000801936 0 -0.000102924)
(-0.000775308 0 -0.000168062)
(-0.000768748 0 -0.000203209)
(-0.000700738 0 -0.000237722)
(-0.000584802 0 -0.000297538)
(-0.000491496 0 -0.000295555)
(-0.000382169 0 -0.000331821)
(-0.00041999 0 -0.000166499)
(-0.000222447 0 -0.000300556)
(-0.000246048 0 -0.000179971)
(-5.05826e-05 0 -0.000269625)
(-5.27846e-05 0 -0.000227485)
(4.54639e-05 0 -0.000250119)
(4.41919e-05 0 -0.000214634)
(0.000145077 0 -0.000170752)
(0.00017888 0 -0.000154062)
(0.000169024 0 -0.000206797)
(0.0002655 0 -0.000176371)
(0.000348712 0 -0.000147347)
(0.000318357 0 -0.000244061)
(0.000303537 0 -0.00035255)
(0.000485884 0 -2.12563e-05)
(0.000514648 0 -0.000152451)
(0.000559067 0 -0.000207394)
(0.000515133 0 -0.000376121)
(0.000607279 0 -0.000212294)
(0.000644212 0 -0.000166917)
(0.000697198 0 -0.000172656)
(0.00077435 0 -0.000181829)
(0.000841797 0 -0.00018135)
(0.000872568 0 -8.31991e-05)
(0.000886948 0 -7.43817e-05)
(0.000900629 0 -2.75847e-06)
(0.000890929 0 1.22911e-05)
(0.000863508 0 6.38406e-05)
(0.000841757 0 0.000120777)
(0.000804605 0 0.000190146)
(0.000766908 0 0.000288996)
(0.000751568 0 0.000351328)
(0.000722829 0 0.000400243)
(0.000690103 0 0.000382559)
(0.000630799 0 0.000309897)
(0.000502691 0 0.000222336)
(0.000340478 0 0.000154156)
(0.000217614 0 0.000156918)
(0.000108781 0 0.000194481)
(0.00013075 0 0.00018089)
(0.000108657 0 0.00015137)
(2.41517e-05 0 0.000112791)
(-2.1896e-05 0 9.04991e-05)
(-9.10775e-05 0 5.16521e-05)
(-0.000107693 0 4.76042e-05)
(-0.000117521 0 2.9901e-05)
(-0.000120871 0 -5.41935e-06)
(-0.000116713 0 -4.48712e-05)
(-0.000105104 0 -6.88923e-05)
(-7.59947e-05 0 -8.78324e-05)
(-3.44971e-05 0 -8.85686e-05)
(2.23493e-05 0 -8.90212e-05)
(7.60993e-05 0 -7.65295e-05)
(0.000121643 0 -8.20285e-05)
(0.000169091 0 -8.89884e-05)
(0.000204687 0 -5.97194e-05)
(0.000257459 0 -2.76359e-05)
(-0.000252185 0 -2.26246e-05)
(6.67813e-06 0 0.00017466)
(-4.07272e-13 0 3.47605e-13)
(-1.80305e-12 0 -9.89811e-14)
(-6.13373e-13 0 -8.99908e-14)
(-6.09922e-13 0 -8.83836e-14)
(-6.00487e-13 0 -1.00645e-13)
(-5.80605e-13 0 -1.23909e-13)
(-5.48074e-13 0 -1.53996e-13)
(-5.02362e-13 0 -1.87093e-13)
(-4.43972e-13 0 -2.20161e-13)
(-3.74017e-13 0 -2.50926e-13)
(-2.94009e-13 0 -2.77695e-13)
(-2.05749e-13 0 -2.99212e-13)
(-1.11281e-13 0 -3.14569e-13)
(-1.28265e-14 0 -3.23174e-13)
(8.72858e-14 0 -3.24733e-13)
(1.86713e-13 0 -3.1924e-13)
(2.83189e-13 0 -3.06956e-13)
(3.74619e-13 0 -2.8839e-13)
(4.59148e-13 0 -2.64239e-13)
(5.35186e-13 0 -2.35327e-13)
(6.01415e-13 0 -2.02553e-13)
(6.56827e-13 0 -1.66865e-13)
(7.00751e-13 0 -1.29228e-13)
(7.32844e-13 0 -9.05854e-14)
(7.53063e-13 0 -5.18199e-14)
(7.61637e-13 0 -1.37138e-14)
(7.59007e-13 0 2.30767e-14)
(7.45759e-13 0 5.80344e-14)
(7.22563e-13 0 9.07787e-14)
(6.90145e-13 0 1.21045e-13)
(6.49281e-13 0 1.4866e-13)
(6.00796e-13 0 1.73516e-13)
(5.4555e-13 0 1.9555e-13)
(4.84418e-13 0 2.1474e-13)
(4.18256e-13 0 2.3109e-13)
(3.47901e-13 0 2.44628e-13)
(2.74159e-13 0 2.55392e-13)
(1.97809e-13 0 2.63423e-13)
(1.19612e-13 0 2.68755e-13)
(4.00721e-14 0 2.71409e-13)
(-0.000141698 0 0.000591902)
(-0.000126915 0 0.000605958)
(-0.000220565 0 0.000577629)
(-0.000302909 0 0.000516539)
(-0.000362957 0 0.000502555)
(-0.000518522 0 0.000392711)
(-0.000410328 0 0.0005244)
(-0.00069134 0 0.000195826)
(-0.000727005 0 0.000137796)
(-0.0007531 0 0.000132962)
(-0.000763676 0 8.11006e-05)
(-0.000762307 0 4.25615e-05)
(-0.000766997 0 -1.37052e-05)
(-0.000699924 0 -0.000259434)
(-0.000699171 0 -8.59192e-05)
(-0.000661151 0 -0.0001728)
(-0.000641986 0 -0.000240281)
(-0.000541611 0 -0.000365275)
(-0.000480505 0 -0.000365076)
(-0.0003936 0 -0.000370924)
(-0.000356161 0 -0.000331991)
(-0.0003337 0 -0.000301654)
(-8.75813e-05 0 -0.000444825)
(-7.66493e-05 0 -0.000386491)
(2.97328e-05 0 -0.000356766)
(7.18962e-05 0 -0.000308956)
(0.000136068 0 -0.000272501)
(0.000164207 0 -0.000234084)
(0.000175425 0 -0.000231117)
(0.000238298 0 -0.000203182)
(0.000268431 0 -0.000209773)
(0.000285327 0 -0.000242308)
(0.000353801 0 -0.000221571)
(0.000414648 0 -0.000204851)
(0.000431466 0 -0.000241254)
(0.000428584 0 -0.000304577)
(0.000515914 0 -0.000231416)
(0.00061928 0 -0.000172225)
(0.000576085 0 -0.000363735)
(0.000619314 0 -0.000314298)
(0.000653754 0 -0.000289708)
(0.000720149 0 -0.000246289)
(0.000794238 0 -0.000258138)
(0.000830919 0 -0.000173668)
(0.000831839 0 -0.00013531)
(0.000849705 0 -0.000112532)
(0.00089596 0 1.86743e-05)
(0.000893609 0 7.41223e-05)
(0.000868727 0 8.7238e-05)
(0.000816495 0 0.000157907)
(0.000765993 0 0.000265891)
(0.000771374 0 0.000279054)
(0.000739106 0 0.000379314)
(0.000717404 0 0.000409707)
(0.000688685 0 0.000428786)
(0.000626991 0 0.000437104)
(0.000440876 0 0.000468072)
(0.000343335 0 0.00032927)
(0.000232454 0 0.000254583)
(0.000183404 0 0.000242008)
(0.000177472 0 0.000229249)
(9.59088e-05 0 0.000218216)
(3.29281e-06 0 0.000177979)
(-1.01976e-05 0 0.000122695)
(-1.22728e-05 0 0.000103334)
(-7.12101e-05 0 7.08425e-05)
(-7.8222e-05 0 2.07319e-05)
(-6.47776e-05 0 4.52184e-06)
(-5.58416e-05 0 -4.3657e-05)
(-6.25516e-05 0 -7.6234e-05)
(-3.61324e-05 0 -0.000115807)
(1.30863e-05 0 -0.000130724)
(2.28832e-05 0 -0.000145642)
(9.60414e-05 0 -0.000126663)
(0.000126964 0 -0.000119098)
(0.00015305 0 -0.000130283)
(0.000184397 0 -6.48005e-05)
(0.000241198 0 -1.37238e-05)
(-0.000192917 0 3.14264e-05)
(7.06369e-06 0 0.000314867)
(-4.89449e-13 0 3.74179e-13)
(-1.82154e-12 0 -1.25563e-13)
(-6.07733e-13 0 -8.67931e-14)
(-6.17943e-13 0 -8.51368e-14)
(-6.23316e-13 0 -1.08294e-13)
(-6.13594e-13 0 -1.46322e-13)
(-5.86287e-13 0 -1.91977e-13)
(-5.4182e-13 0 -2.39991e-13)
(-4.81703e-13 0 -2.86648e-13)
(-4.07829e-13 0 -3.29303e-13)
(-3.22272e-13 0 -3.66002e-13)
(-2.27264e-13 0 -3.95265e-13)
(-1.25212e-13 0 -4.15999e-13)
(-1.8686e-14 0 -4.27484e-13)
(8.96516e-14 0 -4.29383e-13)
(1.97135e-13 0 -4.21739e-13)
(3.01198e-13 0 -4.04959e-13)
(3.99487e-13 0 -3.79785e-13)
(4.89966e-13 0 -3.4723e-13)
(5.70934e-13 0 -3.08473e-13)
(6.41016e-13 0 -2.6477e-13)
(6.99181e-13 0 -2.17397e-13)
(7.44764e-13 0 -1.67621e-13)
(7.7747e-13 0 -1.16668e-13)
(7.9735e-13 0 -6.56796e-14)
(8.04755e-13 0 -1.56718e-14)
(8.00278e-13 0 3.24996e-14)
(7.84665e-13 0 7.81603e-14)
(7.58735e-13 0 1.20817e-13)
(7.23335e-13 0 1.60134e-13)
(6.79335e-13 0 1.95902e-13)
(6.27626e-13 0 2.28006e-13)
(5.69119e-13 0 2.56391e-13)
(5.0472e-13 0 2.81054e-13)
(4.35318e-13 0 3.02022e-13)
(3.61763e-13 0 3.19351e-13)
(2.84871e-13 0 3.33104e-13)
(2.0542e-13 0 3.43349e-13)
(1.24158e-13 0 3.50141e-13)
(4.15832e-14 0 3.53523e-13)
(-0.000156988 0 0.000653178)
(-0.000171263 0 0.000669034)
(-0.000180684 0 0.000659758)
(-0.00022029 0 0.000613902)
(-0.000325035 0 0.000556836)
(-0.000402105 0 0.000480357)
(-0.00056159 0 0.000313347)
(-0.000543088 0 0.000356373)
(-0.000544097 0 0.000372109)
(-0.000617128 0 0.000265959)
(-0.000652041 0 8.82572e-05)
(-0.000632355 0 2.1788e-06)
(-0.000631149 0 -1.35922e-05)
(-0.000637132 0 -5.38115e-05)
(-0.0005675 0 -0.000233152)
(-0.000531017 0 -0.000245923)
(-0.000481544 0 -0.000323784)
(-0.000392788 0 -0.000428331)
(-0.000398917 0 -0.00039591)
(-0.000308665 0 -0.000414164)
(-0.000217643 0 -0.000446673)
(-0.000134919 0 -0.000476334)
(-0.000100914 0 -0.000447092)
(4.94605e-05 0 -0.000433496)
(3.43027e-05 0 -0.000401277)
(0.000147612 0 -0.000363254)
(0.000168367 0 -0.000332228)
(0.000220763 0 -0.000268264)
(0.000263389 0 -0.000225073)
(0.000262374 0 -0.000239717)
(0.000295889 0 -0.000241958)
(0.000343529 0 -0.000238122)
(0.000338297 0 -0.000300849)
(0.000385859 0 -0.000298457)
(0.000438671 0 -0.000282125)
(0.000462857 0 -0.00028904)
(0.000492894 0 -0.000295016)
(0.00056345 0 -0.000275299)
(0.000601049 0 -0.000334612)
(0.000638099 0 -0.000335129)
(0.000666791 0 -0.000334171)
(0.000721177 0 -0.000305291)
(0.000791388 0 -0.000245204)
(0.000809365 0 -0.000216843)
(0.000823256 0 -0.00016241)
(0.000825294 0 -0.000174567)
(0.000843513 0 -4.97956e-06)
(0.000842075 0 8.69049e-05)
(0.000833118 0 0.000117993)
(0.000792279 0 0.000190942)
(0.000789045 0 0.000201544)
(0.000752451 0 0.00033065)
(0.000710939 0 0.000420737)
(0.000700528 0 0.000435378)
(0.000676526 0 0.000460837)
(0.000652153 0 0.000464217)
(0.00056958 0 0.000478692)
(0.000530205 0 0.000365303)
(0.000484089 0 0.000194122)
(0.00027318 0 0.000268949)
(0.000193136 0 0.000294138)
(8.58027e-05 0 0.000308564)
(0.000134885 0 0.000212956)
(0.000126882 0 0.00012381)
(2.92709e-05 0 0.000118019)
(2.25778e-05 0 9.94527e-05)
(1.50373e-05 0 8.04816e-05)
(7.51111e-06 0 2.68243e-05)
(1.41076e-05 0 -2.9786e-05)
(1.93004e-05 0 -8.85497e-05)
(2.9705e-05 0 -0.000136235)
(2.04557e-05 0 -0.000178435)
(0.000103711 0 -0.000159806)
(0.000113925 0 -0.00016582)
(0.000151459 0 -0.000146485)
(0.000169245 0 -0.000121204)
(0.000166716 0 -4.46973e-05)
(0.000237502 0 -3.01522e-05)
(-6.12351e-05 0 5.68063e-05)
(8.60788e-06 0 0.000424335)
(-7.69087e-13 0 5.92294e-13)
(-1.68074e-12 0 -9.2567e-14)
(-5.72339e-13 0 -4.65466e-14)
(-6.30831e-13 0 -5.71695e-14)
(-6.61327e-13 0 -1.00946e-13)
(-6.64242e-13 0 -1.61165e-13)
(-6.41743e-13 0 -2.27697e-13)
(-5.97032e-13 0 -2.94343e-13)
(-5.33284e-13 0 -3.57245e-13)
(-4.53372e-13 0 -4.13762e-13)
(-3.5997e-13 0 -4.61879e-13)
(-2.55746e-13 0 -4.99979e-13)
(-1.435e-13 0 -5.26802e-13)
(-2.62111e-14 0 -5.41499e-13)
(9.30303e-14 0 -5.43687e-13)
(2.11137e-13 0 -5.33476e-13)
(3.25144e-13 0 -5.1145e-13)
(4.32348e-13 0 -4.78637e-13)
(5.3046e-13 0 -4.36435e-13)
(6.17646e-13 0 -3.86471e-13)
(6.92491e-13 0 -3.30455e-13)
(7.53976e-13 0 -2.70076e-13)
(8.0148e-13 0 -2.0696e-13)
(8.34785e-13 0 -1.42636e-13)
(8.5406e-13 0 -7.85128e-14)
(8.59817e-13 0 -1.58385e-14)
(8.52839e-13 0 4.43393e-14)
(8.34076e-13 0 1.01197e-13)
(8.04537e-13 0 1.54138e-13)
(7.65231e-13 0 2.02764e-13)
(7.17153e-13 0 2.46845e-13)
(6.61285e-13 0 2.86269e-13)
(5.98599e-13 0 3.2101e-13)
(5.30049e-13 0 3.51102e-13)
(4.56553e-13 0 3.76617e-13)
(3.78983e-13 0 3.97655e-13)
(2.98156e-13 0 4.14322e-13)
(2.14846e-13 0 4.26719e-13)
(1.29786e-13 0 4.3493e-13)
(4.34541e-14 0 4.39019e-13)
(-9.55461e-05 0 0.00076309)
(-0.000106533 0 0.000749575)
(-0.000202929 0 0.00070042)
(-0.00030437 0 0.000630425)
(-0.000311943 0 0.000615409)
(-0.000330722 0 0.000555583)
(-0.00042525 0 0.000465964)
(-0.000549799 0 0.000292265)
(-0.000546291 0 0.000166116)
(-0.000507051 0 0.000203433)
(-0.000527593 0 3.16302e-05)
(-0.000510895 0 -5.13151e-06)
(-0.000504614 0 -0.000112882)
(-0.000487431 0 -0.000168857)
(-0.000443176 0 -0.000225092)
(-0.000442576 0 -0.000244114)
(-0.000352768 0 -0.000394718)
(-0.000293085 0 -0.000462018)
(-0.000292111 0 -0.000480252)
(-0.000143667 0 -0.000553181)
(-6.17782e-05 0 -0.000552964)
(5.59024e-05 0 -0.000541604)
(9.51445e-05 0 -0.000480748)
(0.000109878 0 -0.000457585)
(0.000156256 0 -0.000427951)
(0.000174328 0 -0.00039965)
(0.00021615 0 -0.000353203)
(0.00022239 0 -0.000310602)
(0.000276796 0 -0.000245961)
(0.000283951 0 -0.000249355)
(0.000304584 0 -0.000262647)
(0.000332026 0 -0.000285595)
(0.000368535 0 -0.000296955)
(0.000389308 0 -0.000310306)
(0.000422687 0 -0.000304614)
(0.00043623 0 -0.000326012)
(0.000489789 0 -0.000298698)
(0.00051195 0 -0.000332428)
(0.00054679 0 -0.000377609)
(0.000628071 0 -0.000352661)
(0.000643738 0 -0.000395918)
(0.000714874 0 -0.000309613)
(0.000731307 0 -0.000293797)
(0.000750851 0 -0.000233642)
(0.000785439 0 -0.00016958)
(0.000799344 0 -9.01631e-05)
(0.000783246 0 -9.33497e-06)
(0.000783625 0 3.84414e-05)
(0.000766062 0 0.000162126)
(0.000765471 0 0.000203859)
(0.000762298 0 0.000293962)
(0.000747238 0 0.000329477)
(0.00069372 0 0.00042305)
(0.000686288 0 0.000445753)
(0.000625371 0 0.000537248)
(0.000593127 0 0.00057051)
(0.000535829 0 0.000597742)
(0.000448584 0 0.00056933)
(0.000347802 0 0.000457041)
(0.00016426 0 0.000411986)
(0.000212114 0 0.000368642)
(0.000228396 0 0.000316036)
(0.000286616 0 0.00019604)
(0.00023351 0 0.000151737)
(6.01767e-05 0 0.000155846)
(4.80895e-05 0 0.000131198)
(4.63638e-05 0 5.43646e-05)
(6.56516e-05 0 1.88443e-05)
(4.04723e-05 0 -5.83722e-05)
(3.3829e-05 0 -0.00010613)
(5.44811e-05 0 -0.00015612)
(8.65449e-05 0 -0.000204916)
(0.000106428 0 -0.000215735)
(0.000155311 0 -0.000184863)
(0.000168048 0 -0.000172813)
(0.000195799 0 -0.000127736)
(0.000140972 0 -4.4106e-05)
(0.000344257 0 -2.08784e-05)
(-0.000587256 0 -0.00013726)
(1.04186e-05 0 0.000615503)
(-1.20259e-12 0 9.38078e-13)
(-1.6561e-12 0 2.35717e-14)
(-5.71722e-13 0 5.01612e-14)
(-6.71756e-13 0 3.79237e-15)
(-7.27005e-13 0 -7.70384e-14)
(-7.40326e-13 0 -1.69756e-13)
(-7.19465e-13 0 -2.63323e-13)
(-6.71368e-13 0 -3.52418e-13)
(-6.01121e-13 0 -4.34189e-13)
(-5.12463e-13 0 -5.06586e-13)
(-4.08489e-13 0 -5.67757e-13)
(-2.92187e-13 0 -6.15977e-13)
(-1.66732e-13 0 -6.49774e-13)
(-3.55707e-14 0 -6.68111e-13)
(9.7674e-14 0 -6.70534e-13)
(2.29372e-13 0 -6.57228e-13)
(3.56037e-13 0 -6.28992e-13)
(4.74502e-13 0 -5.87202e-13)
(5.82132e-13 0 -5.33724e-13)
(6.76914e-13 0 -4.70744e-13)
(7.57411e-13 0 -4.00557e-13)
(8.22676e-13 0 -3.2539e-13)
(8.72204e-13 0 -2.47314e-13)
(9.05918e-13 0 -1.68212e-13)
(9.24147e-13 0 -8.97723e-14)
(9.27607e-13 0 -1.34654e-14)
(9.17314e-13 0 5.94825e-14)
(8.94464e-13 0 1.28115e-13)
(8.60302e-13 0 1.91749e-13)
(8.16043e-13 0 2.49946e-13)
(7.62839e-13 0 3.02474e-13)
(7.01791e-13 0 3.49254e-13)
(6.33951e-13 0 3.90314e-13)
(5.60328e-13 0 4.25751e-13)
(4.81872e-13 0 4.55706e-13)
(3.99468e-13 0 4.8034e-13)
(3.13934e-13 0 4.99814e-13)
(2.26028e-13 0 5.14276e-13)
(1.36459e-13 0 5.23846e-13)
(4.56721e-14 0 5.2861e-13)
(-1.59184e-05 0 0.00086816)
(-7.47271e-05 0 0.000816458)
(-9.07157e-05 0 0.000775215)
(-0.000241624 0 0.000710132)
(-0.000219614 0 0.00067226)
(-0.000271675 0 0.000585418)
(-0.00027183 0 0.000547651)
(-0.000185344 0 0.000560915)
(-0.000354719 0 0.000367131)
(-0.000355378 0 0.000256972)
(-0.000351345 0 0.000183648)
(-0.000399824 0 3.70413e-06)
(-0.000392704 0 -2.32308e-05)
(-0.000390076 0 -0.000122042)
(-0.000233448 0 -0.000351606)
(-0.000349316 0 -0.000290107)
(-0.000275151 0 -0.000430227)
(-0.000180532 0 -0.000510264)
(-0.000169602 0 -0.000562629)
(-9.94773e-05 0 -0.000573291)
(-2.87542e-05 0 -0.000588698)
(5.06506e-05 0 -0.000586701)
(0.000122583 0 -0.000546662)
(0.00011156 0 -0.000515989)
(0.000185505 0 -0.000459897)
(0.000192175 0 -0.000424033)
(0.000219681 0 -0.000372738)
(0.000224209 0 -0.000321349)
(0.000261699 0 -0.000269798)
(0.000273043 0 -0.000268537)
(0.000291527 0 -0.000283308)
(0.000321494 0 -0.000301055)
(0.000351589 0 -0.00031584)
(0.000359925 0 -0.000322621)
(0.000352884 0 -0.000335163)
(0.000357325 0 -0.000353264)
(0.000398609 0 -0.000365629)
(0.000443365 0 -0.000394847)
(0.000507261 0 -0.000404299)
(0.000582328 0 -0.000401498)
(0.000566813 0 -0.000457563)
(0.000635841 0 -0.000371743)
(0.000646854 0 -0.000343729)
(0.00066198 0 -0.000267358)
(0.00067969 0 -0.00023544)
(0.00071957 0 -9.61581e-05)
(0.000710531 0 -3.99512e-05)
(0.000698593 0 0.000107403)
(0.000707723 0 0.000109355)
(0.00074368 0 0.000136672)
(0.000726009 0 0.000315711)
(0.000674518 0 0.000415277)
(0.00065412 0 0.000454589)
(0.000659064 0 0.000462741)
(0.000628254 0 0.00052187)
(0.000579023 0 0.000594414)
(0.00051189 0 0.00064794)
(0.000474929 0 0.000618305)
(0.000351377 0 0.00054694)
(0.000284172 0 0.000431773)
(0.000263161 0 0.000357443)
(0.000244288 0 0.000298472)
(0.000196474 0 0.00028019)
(7.49989e-05 0 0.000288303)
(5.77893e-05 0 0.000218549)
(6.45827e-05 0 0.000116001)
(7.09531e-05 0 9.33342e-05)
(7.62493e-05 0 7.95267e-06)
(8.75548e-05 0 -4.016e-05)
(0.0001255 0 -6.47701e-05)
(0.000128702 0 -0.000142848)
(0.000118686 0 -0.000227702)
(0.000143513 0 -0.000246839)
(0.00016253 0 -0.000233559)
(0.000177531 0 -0.000210516)
(0.000217157 0 -0.000126105)
(0.000135673 0 8.46695e-06)
(0.000309775 0 0.000115648)
(-0.000738695 0 -3.10738e-05)
(1.04794e-05 0 0.000799464)
(-1.13906e-12 0 1.11226e-12)
(-1.48288e-12 0 2.89774e-13)
(-5.91491e-13 0 2.1968e-13)
(-7.57466e-13 0 9.91823e-14)
(-8.34621e-13 0 -4.09979e-14)
(-8.50523e-13 0 -1.77401e-13)
(-8.24405e-13 0 -3.03256e-13)
(-7.67898e-13 0 -4.17596e-13)
(-6.87452e-13 0 -5.20265e-13)
(-5.8694e-13 0 -6.10396e-13)
(-4.69362e-13 0 -6.86369e-13)
(-3.37763e-13 0 -7.46214e-13)
(-1.95634e-13 0 -7.8807e-13)
(-4.69714e-14 0 -8.1057e-13)
(1.03913e-13 0 -8.13123e-13)
(2.5268e-13 0 -7.96001e-13)
(3.9517e-13 0 -7.60288e-13)
(5.27616e-13 0 -7.078e-13)
(6.46917e-13 0 -6.40976e-13)
(7.50814e-13 0 -5.62685e-13)
(8.37846e-13 0 -4.75955e-13)
(9.07218e-13 0 -3.83708e-13)
(9.58657e-13 0 -2.88591e-13)
(9.92327e-13 0 -1.92921e-13)
(1.00881e-12 0 -9.86933e-14)
(1.00907e-12 0 -7.5952e-15)
(9.9442e-13 0 7.8998e-14)
(9.66342e-13 0 1.60032e-13)
(9.26367e-13 0 2.34773e-13)
(8.75957e-13 0 3.02778e-13)
(8.16462e-13 0 3.63848e-13)
(7.49124e-13 0 4.1797e-13)
(6.75095e-13 0 4.65258e-13)
(5.95441e-13 0 5.05902e-13)
(5.11142e-13 0 5.40135e-13)
(4.2309e-13 0 5.68201e-13)
(3.32092e-13 0 5.90333e-13)
(2.38878e-13 0 6.06737e-13)
(1.4412e-13 0 6.17578e-13)
(4.8218e-14 0 6.2297e-13)
(-8.18121e-05 0 0.000886326)
(-0.000110723 0 0.000853838)
(-0.00014393 0 0.000828575)
(-9.34088e-05 0 0.000777186)
(-0.000144711 0 0.000692497)
(-0.00018808 0 0.000604847)
(-0.000194255 0 0.000526803)
(-0.000421086 0 0.000310396)
(-0.00039136 0 0.000241788)
(-0.000363975 0 6.17796e-05)
(-0.000289636 0 5.21518e-05)
(-0.000253141 0 2.89564e-05)
(-0.00024731 0 -7.76702e-05)
(-0.000221005 0 -0.000203967)
(-0.000193207 0 -0.000275965)
(-0.000265138 0 -0.000347708)
(-0.00015286 0 -0.000523156)
(-6.34269e-06 0 -0.000590328)
(7.01682e-06 0 -0.000653614)
(0.000206527 0 -0.000601333)
(0.000201649 0 -0.000576437)
(0.000102231 0 -0.000599729)
(0.000130885 0 -0.000584342)
(0.000135023 0 -0.000552699)
(0.000171722 0 -0.000497052)
(0.0001775 0 -0.000446622)
(0.000201685 0 -0.000385496)
(0.000194478 0 -0.000332553)
(0.00023197 0 -0.000289508)
(0.000240667 0 -0.000289994)
(0.000259717 0 -0.000299017)
(0.000269109 0 -0.000325085)
(0.00027487 0 -0.000327771)
(0.000264672 0 -0.000329458)
(0.000273279 0 -0.000337265)
(0.000302452 0 -0.000356792)
(0.000319095 0 -0.000413588)
(0.000363519 0 -0.000469779)
(0.000431014 0 -0.00048742)
(0.00054753 0 -0.000427574)
(0.000485979 0 -0.00048892)
(0.000582151 0 -0.000364356)
(0.00061263 0 -0.000288745)
(0.000586321 0 -0.00031256)
(0.000571319 0 -0.000292883)
(0.000631517 0 -6.26228e-05)
(0.000617897 0 7.48033e-06)
(0.000614937 0 7.7733e-05)
(0.000647313 0 8.25297e-05)
(0.000676092 0 0.000180483)
(0.000651036 0 0.000302855)
(0.000607116 0 0.000413014)
(0.000583831 0 0.000493516)
(0.000554487 0 0.000559965)
(0.000548152 0 0.000593763)
(0.000523912 0 0.00065398)
(0.000515006 0 0.000671032)
(0.000491856 0 0.000661517)
(0.000367966 0 0.000632332)
(0.000294187 0 0.000509072)