/*--------------------------------*- C++ -*----------------------------------*\
  =========                 |
  \\      /  F ield         | OpenFOAM: The Open Source CFD Toolbox
   \\    /   O peration     | Website:  https://openfoam.org
    \\  /    A nd           | Version:  6
     \\/     M anipulation  |
\*---------------------------------------------------------------------------*/
FoamFile
{
    version     2.0;
    format      ascii;
    class       surfaceScalarField;
    location    "4550";
    object      phi;
}
// * * * * * * * * * * * * * * * * * * * * * * * * * * * * * * * * * * * * * //

dimensions      [0 3 -1 0 0 0 0];

internalField   nonuniform List<scalar> 
9440
(
7.69175e-11
-7.69175e-11
1.87834e-10
-1.10915e-10
2.68712e-10
-8.08773e-11
2.48613e-10
2.01e-11
1.6886e-10
7.97536e-11
4.56434e-11
1.23217e-10
-2.96363e-10
3.42007e-10
-4.53067e-10
1.56705e-10
-8.18979e-10
3.65913e-10
-1.49897e-09
6.79989e-10
-2.19336e-09
6.9439e-10
-3.06274e-09
8.69386e-10
-3.52876e-09
4.66018e-10
-3.86289e-09
3.34134e-10
-3.95833e-09
9.54395e-11
-3.97995e-09
2.16171e-11
-3.91243e-09
-6.75124e-11
-3.72379e-09
-1.88646e-10
-3.53714e-09
-1.86645e-10
-3.43988e-09
-9.72575e-11
-3.19898e-09
-2.40906e-10
-2.80582e-09
-3.93156e-10
-2.37882e-09
-4.27003e-10
-2.1939e-09
-1.84915e-10
-1.94974e-09
-2.44158e-10
-1.46873e-09
-4.81014e-10
-1.12772e-09
-3.41008e-10
-7.34847e-10
-3.92873e-10
-3.93656e-10
-3.4119e-10
-7.52707e-11
-3.18385e-10
8.14195e-11
-1.5669e-10
3.45411e-10
-2.6399e-10
3.4982e-10
-4.40853e-12
3.32676e-10
1.71446e-11
3.16624e-10
1.60522e-11
1.97297e-10
1.19328e-10
1.72891e-10
2.44074e-11
1.94521e-10
-2.16293e-11
2.11316e-10
-1.67943e-11
2.55976e-10
-4.46591e-11
3.39786e-10
-8.38088e-11
4.33566e-10
-9.3779e-11
6.52299e-10
-2.18732e-10
7.60101e-10
-1.07801e-10
6.96136e-10
6.39663e-11
5.92813e-10
1.03324e-10
4.50392e-10
1.42422e-10
2.48779e-10
2.01614e-10
5.9361e-11
1.89419e-10
-7.83513e-11
1.37713e-10
-1.57674e-10
7.93232e-11
-3.55117e-10
1.97444e-10
-6.25913e-10
2.70796e-10
-8.95064e-10
2.69152e-10
-1.28875e-09
3.93691e-10
-1.45489e-09
1.66134e-10
-1.65994e-09
2.05048e-10
-1.76192e-09
1.01986e-10
-1.85701e-09
9.50868e-11
-1.93209e-09
7.50809e-11
-1.90334e-09
-2.87435e-11
-1.85215e-09
-5.11948e-11
-1.78871e-09
-6.34365e-11
-1.48732e-09
-3.01394e-10
-1.11714e-09
-3.70175e-10
-8.40164e-10
-2.76979e-10
-5.15609e-10
-3.24555e-10
5.44202e-11
-5.70029e-10
5.06949e-10
-4.52529e-10
9.62065e-10
-4.55116e-10
1.38422e-09
-4.22154e-10
1.76006e-09
-3.75839e-10
1.96768e-09
-2.07619e-10
1.9851e-09
-1.74244e-11
2.0247e-09
-3.96003e-11
2.05555e-09
-3.08496e-11
1.90842e-09
1.47139e-10
1.67539e-09
2.33022e-10
1.39554e-09
2.79858e-10
9.83499e-10
4.1204e-10
-6.6561e-16
9.83501e-10
6.36599e-19
2.47293e-18
-4.53721e-19
1.09032e-18
-8.85425e-19
4.3302e-19
-9.69839e-19
8.61115e-20
-8.6329e-19
-1.04658e-19
-6.48752e-19
-2.12548e-19
-3.72502e-19
-2.7424e-19
-6.16051e-20
-3.0893e-19
2.67261e-19
-3.26986e-19
6.03134e-19
-3.34106e-19
9.38209e-19
-3.33434e-19
1.26643e-18
-3.26703e-19
1.5827e-18
-3.14876e-19
1.88251e-18
-2.98527e-19
2.16177e-18
-2.78058e-19
2.41672e-18
-2.53832e-19
2.64403e-18
-2.2624e-19
2.84078e-18
-1.95734e-19
3.00461e-18
-1.62826e-19
3.13366e-18
-1.28083e-19
3.22673e-18
-9.21e-20
3.28316e-18
-5.54813e-20
3.30293e-18
-1.88132e-20
3.28652e-18
1.73549e-20
3.23494e-18
5.25279e-20
3.14961e-18
8.62764e-20
3.03231e-18
1.18242e-19
2.88512e-18
1.48138e-19
2.71032e-18
1.7575e-19
2.51035e-18
2.00924e-19
2.28775e-18
2.23563e-19
2.0451e-18
2.43618e-19
1.785e-18
2.61072e-19
1.51003e-18
2.75939e-19
1.22276e-18
2.88247e-19
9.25695e-19
2.98038e-19
6.2131e-19
3.05361e-19
3.11998e-19
3.10287e-19
3.12972e-19
4.88321e-11
-1.25749e-10
1.03155e-10
-1.65237e-10
9.6628e-11
-7.43488e-11
-7.87396e-11
1.95469e-10
-4.51685e-10
4.52701e-10
-6.73679e-10
3.45212e-10
-1.16163e-09
8.29961e-10
-1.86834e-09
8.63415e-10
-2.37259e-09
8.70159e-10
-2.77812e-09
1.08552e-09
-3.16808e-09
1.08435e-09
-3.52699e-09
1.22829e-09
-3.67125e-09
6.10287e-10
-3.90135e-09
5.64233e-10
-4.01531e-09
2.094e-10
-4.07395e-09
8.02536e-11
-4.0006e-09
-1.40856e-10
-3.94076e-09
-2.48484e-10
-3.61513e-09
-5.1228e-10
-3.38475e-09
-3.27638e-10
-3.16202e-09
-4.63632e-10
-2.77879e-09
-7.76381e-10
-2.49749e-09
-7.08304e-10
-2.13952e-09
-5.42881e-10
-1.91647e-09
-4.67209e-10
-1.56851e-09
-8.28981e-10
-1.19592e-09
-7.13596e-10
-7.62809e-10
-8.2598e-10
-5.0561e-10
-5.98388e-10
-2.31358e-10
-5.92637e-10
-1.70476e-11
-3.70999e-10
1.48467e-10
-4.29504e-10
5.45112e-11
8.95488e-11
5.44441e-11
1.72131e-11
-1.82261e-11
8.87238e-11
-9.72306e-11
1.98334e-10
-8.53944e-11
1.25728e-11
-5.91246e-11
-4.78975e-11
-3.89717e-11
-3.69455e-11
2.1919e-11
-1.05548e-10
1.38015e-10
-1.99904e-10
2.95649e-10
-2.51411e-10
4.80942e-10
-4.04023e-10
5.67113e-10
-1.93971e-10
5.3734e-10
9.3741e-11
4.38858e-10
2.01808e-10
3.02901e-10
2.7838e-10
9.41678e-11
4.10349e-10
-1.42874e-10
4.26461e-10
-4.20516e-10
4.15357e-10
-6.86741e-10
3.4555e-10
-8.83956e-10
3.94661e-10
-1.09346e-09
4.80302e-10
-1.32126e-09
4.96951e-10
-1.54215e-09
6.1458e-10
-1.82762e-09
4.51608e-10
-1.90706e-09
2.84488e-10
-2.06568e-09
2.60607e-10
-2.09218e-09
1.2159e-10
-2.09845e-09
8.13502e-11
-2.08418e-09
-4.30136e-11
-1.97686e-09
-1.58512e-10
-1.86008e-09
-1.80224e-10
-1.71774e-09
-4.43731e-10
-1.49704e-09
-5.90878e-10
-1.1848e-09
-5.89211e-10
-8.14354e-10
-6.95004e-10
-3.60128e-10
-1.02425e-09
8.74819e-11
-9.00138e-10
5.50168e-10
-9.17801e-10
8.71251e-10
-7.43237e-10
1.21953e-09
-7.24119e-10
1.36101e-09
-3.49093e-10
1.5254e-09
-1.81821e-10
1.56287e-09
-7.70616e-11
1.60313e-09
-7.11181e-11
1.52204e-09
2.28234e-10
1.36039e-09
3.94676e-10
9.77926e-10
6.62322e-10
4.28987e-10
9.6098e-10
-3.98937e-16
1.41249e-09
-6.74554e-19
3.47971e-18
-1.11102e-18
1.52837e-18
-1.23233e-18
5.57131e-19
-1.16061e-18
1.75776e-20
-9.7118e-19
-2.90707e-19
-7.10444e-19
-4.69836e-19
-4.07192e-19
-5.74079e-19
-7.96612e-20
-6.33162e-19
2.60141e-19
-6.63655e-19
6.03806e-19
-6.74832e-19
9.4494e-19
-6.71837e-19
1.27825e-18
-6.57487e-19
1.59905e-18
-6.3333e-19
1.90298e-18
-6.00285e-19
2.18599e-18
-5.59029e-19
2.44431e-18
-5.10218e-19
2.67453e-18
-4.54607e-19
2.87369e-18
-3.93095e-19
3.03935e-18
-3.26724e-19
3.16965e-18
-2.56646e-19
3.26335e-18
-1.8408e-19
3.31983e-18
-1.10257e-19
3.3391e-18
-3.63731e-20
3.32169e-18
3.64575e-20
3.26869e-18
1.07234e-19
3.18157e-18
1.7509e-19
3.06221e-18
2.39308e-19
2.91273e-18
2.99319e-19
2.7355e-18
3.54698e-19
2.53299e-18
4.05146e-19
2.30781e-18
4.50478e-19
2.06255e-18
4.90603e-19
1.79986e-18
5.25502e-19
1.52234e-18
5.55205e-19
1.23255e-18
5.79781e-19
9.33018e-19
5.99312e-19
6.26235e-19
6.13886e-19
3.14683e-19
6.23579e-19
6.2842e-19
-1.47804e-11
-1.10968e-10
-2.57587e-10
7.75709e-11
-3.84702e-10
5.27675e-11
-4.12073e-10
2.22842e-10
-6.70353e-10
7.10982e-10
-9.81513e-10
6.56373e-10
-1.33365e-09
1.1821e-09
-1.89626e-09
1.42602e-09
-2.52585e-09
1.49975e-09
-3.0624e-09
1.62207e-09
-3.36004e-09
1.382e-09
-3.48752e-09
1.35577e-09
-3.64183e-09
7.64597e-10
-3.7598e-09
6.82202e-10
-3.93672e-09
3.86318e-10
-3.98481e-09
1.28348e-10
-3.93144e-09
-1.94222e-10
-3.88998e-09
-2.89947e-10
-3.83932e-09
-5.62936e-10
-3.62208e-09
-5.4488e-10
-3.3368e-09
-7.48916e-10
-3.08895e-09
-1.02423e-09
-2.8951e-09
-9.02146e-10
-2.57413e-09
-8.63852e-10
-2.27505e-09
-7.66295e-10
-2.10833e-09
-9.95698e-10
-1.86028e-09
-9.61638e-10
-1.3834e-09
-1.30286e-09
-1.21833e-09
-7.63461e-10
-1.06656e-09
-7.4441e-10
-6.78904e-10
-7.5865e-10
-4.46093e-10
-6.62314e-10
-3.43723e-10
-1.28208e-11
-3.07713e-10
-1.87955e-11
-3.91898e-10
1.72911e-10
-3.18984e-10
1.2542e-10
-2.55321e-10
-5.10882e-11
-1.9314e-10
-1.10077e-10
-1.70401e-10
-5.96831e-11
-1.27436e-10
-1.48512e-10
-4.07088e-11
-2.86629e-10
1.54813e-10
-4.46932e-10
2.42766e-10
-4.91974e-10
2.87314e-10
-2.38518e-10
2.8214e-10
9.89165e-11
2.03024e-10
2.80926e-10
4.70694e-11
4.34336e-10
-1.09472e-10
5.66892e-10
-2.83833e-10
6.00824e-10
-5.77885e-10
7.0941e-10
-9.60044e-10
7.2771e-10
-1.22426e-09
6.58882e-10
-1.39797e-09
6.54008e-10
-1.6262e-09
7.25182e-10
-1.67301e-09
6.61394e-10
-1.81171e-09
5.90308e-10
-1.93831e-09
4.11086e-10
-2.0221e-09
3.44398e-10
-2.03435e-09
1.33846e-10
-2.02663e-09
7.36303e-11
-2.01866e-09
-5.09892e-11
-1.9293e-09
-2.47865e-10
-1.79484e-09
-3.14684e-10
-1.71812e-09
-5.20452e-10
-1.6185e-09
-6.905e-10
-1.31959e-09
-8.88121e-10
-9.74817e-10
-1.03978e-09
-7.1402e-10
-1.28505e-09
-3.35047e-10
-1.27911e-09
1.70604e-11
-1.26991e-09
4.06409e-10
-1.13259e-09
6.0575e-10
-9.23459e-10
7.65463e-10
-5.08806e-10
9.0685e-10
-3.23207e-10
1.03261e-09
-2.02823e-10
1.13188e-09
-1.7038e-10
1.02348e-09
3.36631e-10
8.47426e-10
5.7073e-10
6.0371e-10
9.0604e-10
2.75476e-10
1.28922e-09
-2.17725e-16
1.68797e-09
-2.49332e-18
2.6682e-18
-2.08226e-18
1.11853e-18
-1.77189e-18
2.48811e-19
-1.46889e-18
-2.83001e-19
-1.15031e-18
-6.06629e-19
-8.14686e-19
-8.0264e-19
-4.66275e-19
-9.196e-19
-1.10155e-19
-9.86401e-19
2.48964e-19
-1.01997e-18
6.068e-19
-1.02999e-18
9.59291e-19
-1.02181e-18
1.30241e-18
-9.9827e-19
1.63209e-18
-9.6085e-19
1.94424e-18
-9.10432e-19
2.23481e-18
-8.47735e-19
2.49992e-18
-7.73589e-19
2.73605e-18
-6.89064e-19
2.94006e-18
-5.95509e-19
3.10943e-18
-4.94521e-19
3.24221e-18
-3.87891e-19
3.33717e-18
-2.7751e-19
3.39372e-18
-1.6529e-19
3.41193e-18
-5.30774e-20
3.39247e-18
5.74142e-20
3.33654e-18
1.64655e-19
3.24579e-18
2.67333e-19
3.12222e-18
3.64369e-19
2.96811e-18
4.54919e-19
2.78594e-18
5.38357e-19
2.57833e-18
6.1426e-19
2.34793e-18
6.82375e-19
2.09745e-18
7.42588e-19
1.82957e-18
7.94895e-19
1.54691e-18
8.39368e-19
1.25208e-18
8.76126e-19
9.47592e-19
9.0531e-19
6.35928e-19
9.27059e-19
3.19523e-19
9.41491e-19
9.48681e-19
1.26295e-10
-2.37262e-10
2.67046e-10
-6.31782e-11
1.55295e-11
3.04285e-10
-4.82985e-10
7.21357e-10
-8.27473e-10
1.05547e-09
-1.46793e-09
1.29683e-09
-1.8223e-09
1.53647e-09
-2.2155e-09
1.81923e-09
-2.65625e-09
1.94051e-09
-2.91079e-09
1.87661e-09
-3.22981e-09
1.70102e-09
-3.38208e-09
1.50805e-09
-3.58275e-09
9.65272e-10
-3.73393e-09
8.33382e-10
-3.79911e-09
4.515e-10
-3.81018e-09
1.39414e-10
-3.86295e-09
-1.41447e-10
-3.8292e-09
-3.23691e-10
-3.8654e-09
-5.26741e-10
-3.60277e-09
-8.07512e-10
-3.49289e-09
-8.58788e-10
-3.52803e-09
-9.89091e-10
-3.38092e-09
-1.04926e-09
-3.15973e-09
-1.08504e-09
-2.89208e-09
-1.03394e-09
-2.78907e-09
-1.09871e-09
-2.56088e-09
-1.18982e-09
-2.20172e-09
-1.66202e-09
-2.04862e-09
-9.16559e-10
-1.64421e-09
-1.14883e-09
-1.24044e-09
-1.16241e-09
-1.1755e-09
-7.27254e-10
-7.23198e-10
-4.65124e-10
-4.95625e-10
-2.46368e-10
-2.8112e-10
-4.15934e-11
-2.36445e-10
8.0746e-11
-2.8017e-10
-7.36229e-12
-2.8078e-10
-1.09466e-10
-2.51135e-10
-8.93267e-11
-1.86978e-10
-2.12667e-10
-9.64625e-11
-3.77144e-10
-5.23793e-14
-5.43341e-10
5.45245e-11
-5.4655e-10
5.79506e-11
-2.41942e-10
2.45138e-11
1.32355e-10
-6.98329e-11
3.75274e-10
-1.89268e-10
5.53773e-10
-3.03101e-10
6.80726e-10
-4.21479e-10
7.19203e-10
-5.89026e-10
8.76959e-10
-8.23423e-10
9.62108e-10
-1.08174e-09
9.172e-10
-1.3302e-09
9.0247e-10
-1.49175e-09
8.86732e-10
-1.64818e-09
8.17829e-10
-1.71613e-09
6.58257e-10
-1.79065e-09
4.856e-10
-1.83259e-09
3.86341e-10
-1.82799e-09
1.29245e-10
-1.79733e-09
4.29783e-11
-1.807e-09
-4.13271e-11
-1.81529e-09
-2.39565e-10
-1.65881e-09
-4.71165e-10
-1.62007e-09
-5.59191e-10
-1.58663e-09
-7.23941e-10
-1.39094e-09
-1.08382e-09
-1.23688e-09
-1.19383e-09
-1.02107e-09
-1.50086e-09
-6.99725e-10
-1.60045e-09
-3.76498e-10
-1.59313e-09
-3.51642e-11
-1.47392e-09
1.4701e-10
-1.10563e-09
3.49825e-10
-7.1162e-10
4.93171e-10
-4.66552e-10
6.53918e-10
-3.63569e-10
5.84063e-10
-1.00525e-10
6.12585e-10
3.0811e-10
5.62881e-10
6.20435e-10
4.9511e-10
9.73812e-10
2.79602e-10
1.50472e-09
-2.36955e-18
1.96757e-09
-3.88595e-18
1.18812e-18
-2.95198e-18
1.85615e-19
-2.3037e-18
-3.97996e-19
-1.79252e-18
-7.92314e-19
-1.34632e-18
-1.05063e-18
-9.31646e-19
-1.21483e-18
-5.33076e-19
-1.31549e-18
-1.43726e-19
-1.37296e-18
2.38942e-19
-1.39984e-18
6.1498e-19
-1.4033e-18
9.82835e-19
-1.38706e-18
1.33983e-18
-1.35282e-18
1.68251e-18
-1.30126e-18
2.00694e-18
-1.23276e-18
2.30895e-18
-1.14781e-18
2.58445e-18
-1.04728e-18
2.8296e-18
-9.32515e-19
3.04105e-18
-8.05329e-19
3.21606e-18
-6.67946e-19
3.35259e-18
-5.22875e-19
3.44939e-18
-3.72772e-19
3.50593e-18
-2.2031e-19
3.52242e-18
-6.80568e-20
3.49971e-18
8.16224e-20
3.43922e-18
2.26637e-19
3.34283e-18
3.65211e-19
3.21277e-18
4.95907e-19
3.05155e-18
6.17614e-19
2.86185e-18
7.29533e-19
2.64644e-18
8.3114e-19
2.40814e-18
9.22146e-19
2.14976e-18
1.00245e-18
1.87404e-18
1.07209e-18
1.58367e-18
1.13121e-18
1.28126e-18
1.18001e-18
9.69341e-19
1.21871e-18
6.5036e-19
1.24752e-18
3.26713e-19
1.26661e-18
1.27612e-18
1.88583e-11
-2.56119e-10
-1.43829e-10
9.9511e-11
-4.64296e-10
6.24753e-10
-8.19607e-10
1.07667e-09
-1.02632e-09
1.26218e-09
-1.5831e-09
1.85361e-09
-2.14785e-09
2.10123e-09
-2.45185e-09
2.12323e-09
-2.67002e-09
2.15868e-09
-2.86365e-09
2.07024e-09
-3.10758e-09
1.94495e-09
-3.28173e-09
1.6822e-09
-3.38039e-09
1.06393e-09
-3.60118e-09
1.05418e-09
-3.71233e-09
5.62653e-10
-3.77148e-09
1.98559e-10
-3.82126e-09
-9.16691e-11
-3.80966e-09
-3.35282e-10
-3.72608e-09
-6.10328e-10
-3.72448e-09
-8.09106e-10
-3.61239e-09
-9.70875e-10
-3.58483e-09
-1.01666e-09
-3.5626e-09
-1.07148e-09
-3.45992e-09
-1.18773e-09
-3.30792e-09
-1.18594e-09
-3.17177e-09
-1.23486e-09
-3.01303e-09
-1.34856e-09
-2.87501e-09
-1.80005e-09
-2.56568e-09
-1.22588e-09
-2.12012e-09
-1.59439e-09
-1.80395e-09
-1.47858e-09
-1.59182e-09
-9.39383e-10
-1.27688e-09
-7.80061e-10
-1.01905e-09
-5.042e-10
-6.91755e-10
-3.6889e-10
-5.24786e-10
-8.6222e-11
-4.95631e-10
-3.65167e-11
-4.63896e-10
-1.412e-10
-4.18301e-10
-1.34921e-10
-4.11935e-10
-2.19032e-10
-2.79594e-10
-5.09483e-10
-2.1443e-10
-6.08503e-10
-1.51366e-10
-6.09613e-10
-9.37581e-11
-2.99548e-10
-1.45718e-10
1.84316e-10
-2.17179e-10
4.46737e-10
-3.16703e-10
6.53298e-10
-4.20893e-10
7.84917e-10
-5.47361e-10
8.45672e-10
-7.08261e-10
1.03786e-09
-9.17971e-10
1.17182e-09
-1.14729e-09
1.14652e-09
-1.34009e-09
1.09527e-09
-1.45154e-09
9.98184e-10
-1.52356e-09
8.89842e-10
-1.57573e-09
7.10434e-10
-1.5652e-09
4.75065e-10
-1.53618e-09
3.57329e-10
-1.55529e-09
1.48354e-10
-1.49002e-09
-2.22937e-11
-1.45174e-09
-7.96048e-11
-1.51393e-09
-1.77374e-10
-1.54314e-09
-4.41955e-10
-1.51495e-09
-5.87386e-10
-1.55687e-09
-6.82014e-10
-1.43842e-09
-1.20227e-09
-1.3729e-09
-1.25935e-09
-1.24177e-09
-1.63199e-09
-1.1037e-09
-1.73852e-09
-8.42534e-10
-1.8543e-09
-5.60204e-10
-1.75625e-09
-3.22348e-10
-1.34349e-09
2.94205e-11
-1.06339e-09
1.43822e-10
-5.80953e-10
2.00067e-10
-4.19812e-10
1.99633e-10
-1.0009e-10
2.25029e-10
2.82716e-10
2.42396e-10
6.03068e-10
2.87981e-10
9.28228e-10
2.93471e-10
1.49924e-09
2.32556e-16
2.26104e-09
-4.75012e-18
-1.04269e-18
-3.53559e-18
-1.02814e-18
-2.69802e-18
-1.23482e-18
-2.05084e-18
-1.43834e-18
-1.51053e-18
-1.58935e-18
-1.0323e-18
-1.69106e-18
-5.90551e-19
-1.75488e-18
-1.70602e-19
-1.7903e-18
2.35483e-19
-1.80317e-18
6.31219e-19
-1.79625e-18
1.01708e-18
-1.7702e-18
1.39139e-18
-1.72454e-18
1.75101e-18
-1.65847e-18
2.09189e-18
-1.5714e-18
2.40948e-18
-1.46336e-18
2.69922e-18
-1.33512e-18
2.95679e-18
-1.18831e-18
3.17843e-18
-1.0253e-18
3.36113e-18
-8.49024e-19
3.5027e-18
-6.62863e-19
3.60185e-18
-4.70368e-19
3.65818e-18
-2.75098e-19
3.6721e-18
-8.04395e-20
3.64473e-18
1.10518e-19
3.5778e-18
2.95077e-19
3.47352e-18
4.70984e-19
3.33448e-18
6.36443e-19
3.16347e-18
7.90102e-19
2.96345e-18
9.31021e-19
2.73745e-18
1.05862e-18
2.48845e-18
1.17261e-18
2.2194e-18
1.27296e-18
1.93316e-18
1.35979e-18
1.63247e-18
1.43336e-18
1.31996e-18
1.49398e-18
9.98149e-19
1.54198e-18
6.69456e-19
1.57766e-18
3.36223e-19
1.6013e-18
1.61306e-18
-4.53802e-11
-2.10738e-10
-2.82698e-10
3.36831e-10
-4.4323e-10
7.85287e-10
-8.65356e-10
1.4988e-09
-1.39295e-09
1.78978e-09
-1.56536e-09
2.02602e-09
-1.84497e-09
2.38084e-09
-2.20179e-09
2.48004e-09
-2.46176e-09
2.41866e-09
-2.67636e-09
2.28484e-09
-2.83476e-09
2.10336e-09
-3.04434e-09
1.89177e-09
-3.31132e-09
1.33091e-09
-3.49734e-09
1.2402e-09
-3.61949e-09
6.8481e-10
-3.72971e-09
3.08778e-10
-3.72211e-09
-9.92713e-11
-3.68888e-09
-3.68512e-10
-3.72651e-09
-5.72699e-10
-3.76417e-09
-7.71443e-10
-3.68045e-09
-1.05459e-09
-3.65983e-09
-1.03728e-09
-3.60513e-09
-1.12619e-09
-3.58499e-09
-1.20787e-09
-3.52269e-09
-1.24823e-09
-3.41459e-09
-1.34297e-09
-3.33971e-09
-1.42343e-09
-3.32591e-09
-1.81384e-09
-3.00832e-09
-1.54347e-09
-2.79186e-09
-1.81085e-09
-2.61355e-09
-1.65689e-09
-2.36913e-09
-1.18381e-09
-2.01049e-09
-1.1387e-09
-1.57545e-09
-9.39233e-10
-1.29431e-09
-6.50034e-10
-1.05671e-09
-3.23818e-10
-8.46304e-10
-2.46923e-10
-7.54086e-10
-2.33417e-10
-6.21562e-10
-2.67444e-10
-5.59877e-10
-2.80716e-10
-4.73508e-10
-5.95852e-10
-3.82796e-10
-6.99213e-10
-3.08691e-10
-6.83717e-10
-2.34535e-10
-3.73703e-10
-2.63704e-10
2.13486e-10
-2.34621e-10
4.17655e-10
-2.24958e-10
6.43636e-10
-3.38043e-10
8.98003e-10
-6.08438e-10
1.11607e-09
-8.52491e-10
1.28191e-09
-1.03098e-09
1.35031e-09
-1.15411e-09
1.26966e-09
-1.19939e-09
1.14055e-09
-1.25315e-09
1.05194e-09
-1.26718e-09
9.03877e-10
-1.2889e-09
7.32147e-10
-1.30304e-09
4.8921e-10
-1.26295e-09
3.17238e-10
-1.26938e-09
1.54786e-10
-1.22333e-09
-6.83485e-11
-1.13552e-09
-1.67408e-10
-1.11004e-09
-2.0286e-10
-1.15848e-09
-3.93514e-10
-1.24004e-09
-5.05827e-10
-1.24116e-09
-6.80892e-10
-1.37511e-09
-1.06832e-09
-1.42043e-09
-1.21403e-09
-1.39664e-09
-1.65578e-09
-1.35509e-09
-1.78008e-09
-1.27773e-09
-1.93165e-09
-1.11219e-09
-1.92179e-09
-8.67425e-10
-1.58825e-09
-7.62555e-10
-1.16826e-09
-4.43531e-10
-8.99976e-10
-3.36164e-10
-5.27178e-10
-2.04404e-10
-2.31849e-10
-3.97017e-11
1.18014e-10
-9.84841e-12
5.73215e-10
2.92716e-11
8.89108e-10
5.87178e-11
1.46979e-09
4.28512e-16
2.31976e-09
-4.66691e-18
-1.67261e-18
-3.74227e-18
-1.95239e-18
-2.90154e-18
-2.07564e-18
-2.20184e-18
-2.13777e-18
-1.61223e-18
-2.1782e-18
-1.09612e-18
-2.20587e-18
-6.25968e-19
-2.22321e-18
-1.83474e-19
-2.23052e-18
2.42401e-19
-2.22646e-18
6.57271e-19
-2.20838e-18
1.06273e-18
-2.17288e-18
1.45746e-18
-2.11656e-18
1.83808e-18
-2.03653e-18
2.19993e-18
-1.93088e-18
2.53772e-18
-1.79895e-18
2.84602e-18
-1.64142e-18
3.11981e-18
-1.46024e-18
3.3547e-18
-1.25846e-18
3.54729e-18
-1.03996e-18
3.69519e-18
-8.0916e-19
3.79712e-18
-5.70721e-19
3.85284e-18
-3.29254e-19
3.86306e-18
-8.91015e-20
3.82929e-18
1.45831e-19
3.7537e-18
3.7219e-19
3.63898e-18
5.87223e-19
3.48814e-18
7.88792e-19
3.30439e-18
9.75339e-19
3.09105e-18
1.14583e-18
2.85144e-18
1.29969e-18
2.58879e-18
1.43671e-18
2.30623e-18
1.55697e-18
2.00673e-18
1.66074e-18
1.69309e-18
1.74844e-18
1.36796e-18
1.82055e-18
1.03384e-18
1.87754e-18
6.9309e-19
1.91985e-18
3.47988e-19
1.94783e-18
1.96176e-18
-4.04505e-10
1.93768e-10
-9.61649e-10
8.93977e-10
-1.32573e-09
1.14937e-09
-1.27783e-09
1.4509e-09
-1.54403e-09
2.05599e-09
-1.77664e-09
2.25862e-09
-1.92158e-09
2.52579e-09
-2.13994e-09
2.6984e-09
-2.37198e-09
2.6507e-09
-2.58944e-09
2.5023e-09
-2.76485e-09
2.27876e-09
-2.88693e-09
2.01386e-09
-3.02066e-09
1.46464e-09
-3.1501e-09
1.36964e-09
-3.37921e-09
9.13919e-10
-3.46421e-09
3.93782e-10
-3.54599e-09
-1.74925e-11
-3.62902e-09
-2.8548e-10
-3.68276e-09
-5.18961e-10
-3.64246e-09
-8.11735e-10
-3.67487e-09
-1.02218e-09
-3.65521e-09
-1.05694e-09
-3.632e-09
-1.14939e-09
-3.62947e-09
-1.2104e-09
-3.59444e-09
-1.28326e-09
-3.51328e-09
-1.42412e-09
-3.43553e-09
-1.50118e-09
-3.37704e-09
-1.87234e-09
-3.18889e-09
-1.73162e-09
-3.09138e-09
-1.90836e-09
-2.71184e-09
-2.03643e-09
-2.48397e-09
-1.41168e-09
-2.20471e-09
-1.41796e-09
-1.953e-09
-1.19094e-09
-1.68034e-09
-9.22694e-10
-1.48766e-09
-5.16498e-10
-1.221e-09
-5.13584e-10
-1.02458e-09
-4.29834e-10
-8.23267e-10
-4.68756e-10
-6.14686e-10
-4.89295e-10
-5.03607e-10
-7.0693e-10
-3.93054e-10
-8.09765e-10
-3.33295e-10
-7.43475e-10
-3.21527e-10
-3.85469e-10
-3.47027e-10
2.38987e-10
-4.32262e-10
5.02891e-10
-5.52381e-10
7.63757e-10
-5.85481e-10
9.31104e-10
-6.9962e-10
1.23021e-09
-8.59953e-10
1.44225e-09
-9.28071e-10
1.41843e-09
-9.92631e-10
1.33422e-09
-1.08035e-09
1.22828e-09
-1.12509e-09
1.09668e-09
-1.13881e-09
9.17591e-10
-1.0786e-09
6.71937e-10
-1.04842e-09
4.59029e-10
-9.7404e-10
2.42863e-10
-9.12474e-10
9.32215e-11
-9.1166e-10
-6.91617e-11
-8.60693e-10
-2.18374e-10
-8.19646e-10
-2.43906e-10
-8.96179e-10
-3.1698e-10
-1.07815e-09
-3.2385e-10
-1.06784e-09
-6.91203e-10
-1.33357e-09
-8.02588e-10
-1.39397e-09
-1.15363e-09
-1.49742e-09
-1.55233e-09
-1.52757e-09
-1.74992e-09
-1.51407e-09
-1.94515e-09
-1.43668e-09
-1.99918e-09
-1.18811e-09
-1.83682e-09
-9.26884e-10
-1.42948e-09
-8.1755e-10
-1.00931e-09
-6.9198e-10
-6.52747e-10
-6.48758e-10
-2.7507e-10
-4.29714e-10
-1.0103e-10
-2.20043e-10
3.63544e-10
-2.69011e-10
9.38075e-10
-2.58728e-10
1.45951e-09
5.14933e-16
2.06103e-09
-5.00346e-18
-2.9496e-18
-3.86552e-18
-3.09043e-18
-2.96367e-18
-2.97841e-18
-2.24228e-18
-2.85986e-18
-1.6399e-18
-2.78081e-18
-1.11346e-18
-2.73193e-18
-6.33281e-19
-2.70232e-18
-1.79416e-19
-2.68268e-18
2.60488e-19
-2.66415e-18
6.92764e-19
-2.63809e-18
1.11906e-18
-2.59644e-18
1.53749e-18
-2.53223e-18
1.94373e-18
-2.44008e-18
2.33186e-18
-2.31648e-18
2.69524e-18
-2.16e-18
3.0272e-18
-1.97125e-18
3.32159e-18
-1.75268e-18
3.57321e-18
-1.50828e-18
3.77809e-18
-1.24315e-18
3.93363e-18
-9.6308e-19
4.03859e-18
-6.74092e-19
4.09299e-18
-3.82086e-19
4.09799e-18
-9.25336e-20
4.05564e-18
1.89733e-19
3.96874e-18
4.60643e-19
3.84055e-18
7.16941e-19
3.67468e-18
9.56174e-19
3.47488e-18
1.17663e-18
3.24491e-18
1.37728e-18
2.98846e-18
1.5576e-18
2.70905e-18
1.71757e-18
2.41001e-18
1.85745e-18
2.09443e-18
1.97774e-18
1.76519e-18
2.0791e-18
1.42495e-18
2.16222e-18
1.07614e-18
2.22775e-18
7.21079e-19
2.27632e-18
3.61912e-19
2.30841e-18
2.32436e-18
-5.54384e-12
1.99313e-10
-2.57998e-10
1.14643e-09
-8.79181e-10
1.77056e-09
-1.19093e-09
1.76265e-09
-1.42847e-09
2.29352e-09
-1.83369e-09
2.66385e-09
-2.08495e-09
2.77705e-09
-2.21779e-09
2.83124e-09
-2.27655e-09
2.70947e-09
-2.33746e-09
2.56321e-09
-2.32348e-09
2.26478e-09
-2.475e-09
2.16538e-09
-2.67361e-09
1.66326e-09
-2.68453e-09
1.38056e-09
-2.89786e-09
1.12724e-09
-3.13949e-09
6.35411e-10
-3.27729e-09
1.20309e-10
-3.34475e-09
-2.18013e-10
-3.33093e-09
-5.32779e-10
-3.44988e-09
-6.92786e-10
-3.59891e-09
-8.7315e-10
-3.56183e-09
-1.09403e-09
-3.61363e-09
-1.09758e-09
-3.61794e-09
-1.20609e-09
-3.58321e-09
-1.31799e-09
-3.52949e-09
-1.47784e-09
-3.45939e-09
-1.57128e-09
-3.40975e-09
-1.92197e-09
-3.30711e-09
-1.83426e-09
-3.28473e-09
-1.93075e-09
-3.13868e-09
-2.18247e-09
-2.96601e-09
-1.58435e-09
-2.57692e-09
-1.80705e-09
-2.31924e-09
-1.44862e-09
-2.06855e-09
-1.17338e-09
-1.74275e-09
-8.423e-10
-1.41924e-09
-8.37089e-10
-1.17907e-09
-6.70006e-10
-8.99303e-10
-7.48522e-10
-6.51484e-10
-7.37114e-10
-5.19322e-10
-8.39091e-10
-4.26921e-10
-9.02165e-10
-3.83807e-10
-7.86587e-10
-3.78499e-10
-3.90777e-10
-3.72619e-10
2.33108e-10
-5.13004e-10
6.43277e-10
-6.1219e-10
8.62945e-10
-6.59079e-10
9.77994e-10
-7.0048e-10
1.27161e-09
-7.50195e-10
1.49197e-09
-8.36049e-10
1.50428e-09
-9.10204e-10
1.40837e-09
-9.65814e-10
1.28389e-09
-9.59149e-10
1.09002e-09
-9.01512e-10
8.59955e-10
-8.02008e-10
5.72434e-10
-7.08855e-10
3.65877e-10
-6.36365e-10
1.70374e-10
-5.69615e-10
2.64723e-11
-5.93252e-10
-4.55242e-11
-6.3172e-10
-1.79905e-10
-6.45577e-10
-2.30049e-10
-7.11426e-10
-2.51129e-10
-7.37997e-10
-2.97279e-10
-8.74992e-10
-5.54207e-10
-1.08122e-09
-5.96363e-10
-1.29036e-09
-9.44491e-10
-1.58466e-09
-1.25803e-09
-1.62928e-09
-1.7053e-09
-1.6936e-09
-1.88083e-09
-1.73104e-09
-1.96174e-09
-1.65741e-09
-1.91044e-09
-1.47494e-09
-1.61194e-09
-1.30501e-09
-1.17924e-09
-1.10143e-09
-8.56325e-10
-9.26355e-10
-4.50142e-10
-7.62751e-10
-2.64633e-10
-4.58421e-10
5.92143e-11
-5.46521e-10
1.02617e-09
-3.54551e-10
1.26753e-09
4.3938e-16
1.70647e-09
-5.38807e-18
-7.98453e-18
-3.75349e-18
-4.72565e-18
-2.84512e-18
-3.88836e-18
-2.16323e-18
-3.54332e-18
-1.59102e-18
-3.35426e-18
-1.08385e-18
-3.23976e-18
-6.13639e-19
-3.17242e-18
-1.60886e-19
-3.1345e-18
2.86548e-19
-3.10993e-18
7.34415e-19
-3.08375e-18
1.18326e-18
-3.04272e-18
1.62965e-18
-2.97589e-18
2.06733e-18
-2.87502e-18
2.48834e-18
-2.73485e-18
2.884e-18
-2.55319e-18
3.24577e-18
-2.33076e-18
3.56599e-18
-2.07083e-18
3.83833e-18
-1.77874e-18
4.05816e-18
-1.46124e-18
4.22262e-18
-1.1259e-18
4.3306e-18
-7.80478e-19
4.38255e-18
-4.32468e-19
4.38025e-18
-8.86808e-20
4.32655e-18
2.44993e-19
4.22504e-18
5.63714e-19
4.07978e-18
8.63731e-19
3.89514e-18
1.14233e-18
3.67552e-18
1.39775e-18
3.42524e-18
1.62903e-18
3.14842e-18
1.83587e-18
2.84893e-18
2.0185e-18
2.53031e-18
2.17749e-18
2.19579e-18
2.31367e-18
1.84831e-18
2.42799e-18
1.49049e-18
2.52143e-18
1.12471e-18
2.59492e-18
7.53168e-19
2.64926e-18
3.77863e-19
2.6851e-18
2.70291e-18
-3.782e-10
5.77515e-10
-2.95729e-10
1.06396e-09
-4.12607e-10
1.88744e-09
-1.02853e-09
2.37858e-09
-1.40491e-09
2.66991e-09
-1.53691e-09
2.79585e-09
-1.70279e-09
2.94293e-09
-1.84617e-09
2.97462e-09
-2.06249e-09
2.92579e-09
-2.242e-09
2.74272e-09
-2.3761e-09
2.39888e-09
-2.33969e-09
2.12897e-09
-2.38847e-09
1.71204e-09
-2.25145e-09
1.24354e-09
-2.20067e-09
1.07647e-09
-2.34445e-09
7.79184e-10
-2.59418e-09
3.70042e-10
-2.77078e-09
-4.14119e-11
-2.95953e-09
-3.44023e-10
-3.15034e-09
-5.01976e-10
-3.28844e-09
-7.35053e-10
-3.3328e-09
-1.04966e-09
-3.44087e-09
-9.89512e-10
-3.49558e-09
-1.15138e-09
-3.47951e-09
-1.33407e-09
-3.42366e-09
-1.53369e-09
-3.28586e-09
-1.70908e-09
-3.2983e-09
-1.90953e-09
-3.21162e-09
-1.92093e-09
-3.19716e-09
-1.94521e-09
-3.2586e-09
-2.12102e-09
-3.05977e-09
-1.78319e-09
-2.89698e-09
-1.96984e-09
-2.73629e-09
-1.60931e-09
-2.40129e-09
-1.50839e-09
-1.89305e-09
-1.35054e-09
-1.67854e-09
-1.0516e-09
-1.31829e-09
-1.03026e-09
-9.41488e-10
-1.12532e-09
-6.98161e-10
-9.8044e-10
-4.66937e-10
-1.07031e-09
-3.47846e-10
-1.02126e-09
-3.44772e-10
-7.8966e-10
-3.66755e-10
-3.68793e-10
-2.89531e-10
1.55885e-10
-3.95768e-10
7.49516e-10
-4.9854e-10
9.65717e-10
-5.98768e-10
1.07822e-09
-6.74802e-10
1.34765e-09
-7.20766e-10
1.53793e-09
-7.72902e-10
1.55642e-09
-7.98108e-10
1.43358e-09
-7.877e-10
1.27348e-09
-7.32014e-10
1.03433e-09
-6.41215e-10
7.69156e-10
-5.68422e-10
4.99642e-10
-5.17807e-10
3.15263e-10
-5.02918e-10
1.55486e-10
-4.7921e-10
2.76539e-12
-4.85521e-10
-3.92118e-11
-5.31013e-10
-1.34413e-10
-5.57658e-10
-2.03403e-10
-5.39149e-10
-2.69638e-10
-5.42226e-10
-2.94202e-10
-7.43093e-10
-3.53339e-10
-8.0906e-10
-5.30395e-10
-1.03719e-09
-7.16364e-10
-1.28955e-09
-1.00566e-09
-1.61651e-09
-1.37834e-09
-1.76443e-09
-1.73291e-09
-1.86263e-09
-1.86355e-09
-1.90661e-09
-1.86646e-09
-1.83192e-09
-1.68663e-09
-1.72177e-09
-1.28939e-09
-1.65624e-09
-9.21857e-10
-1.42845e-09
-6.77931e-10
-1.25431e-09
-4.38764e-10
-1.07288e-09
-1.2222e-10
-8.01276e-10
7.54569e-10
-4.13054e-10
8.79312e-10
1.95614e-16
1.29342e-09
-2.62975e-18
-5.18832e-18
-2.9162e-18
-4.44032e-18
-2.50007e-18
-4.30638e-18
-1.97417e-18
-4.07136e-18
-1.47652e-18
-3.854e-18
-1.01651e-18
-3.70141e-18
-5.75721e-19
-3.61409e-18
-1.36313e-19
-3.57387e-18
3.12725e-19
-3.55803e-18
7.75439e-19
-3.54477e-18
1.25009e-18
-3.51514e-18
1.73052e-18
-3.45376e-18
2.2075e-18
-3.34929e-18
2.67e-18
-3.19465e-18
3.10643e-18
-2.98703e-18
3.5057e-18
-2.72762e-18
3.85808e-18
-2.42103e-18
4.15583e-18
-2.07451e-18
4.3935e-18
-1.69711e-18
4.56804e-18
-1.29875e-18
4.6786e-18
-8.89448e-19
4.72633e-18
-4.78635e-19
4.71393e-18
-7.47247e-20
4.64528e-18
3.15196e-19
4.52505e-18
6.85484e-19
4.35839e-18
1.03193e-18
4.15056e-18
1.35168e-18
3.9068e-18
1.64301e-18
3.63208e-18
1.90522e-18
3.33105e-18
2.13835e-18
3.00792e-18
2.34304e-18
2.66649e-18
2.52031e-18
2.31011e-18
2.67142e-18
1.94175e-18
2.79773e-18
1.56397e-18
2.90057e-18
1.17906e-18
2.98119e-18
7.89015e-19
3.04066e-18
3.95664e-19
3.07981e-18
3.09923e-18
-6.22013e-10
1.19953e-09
-1.17929e-09
1.62125e-09
-1.28802e-09
1.99616e-09
-1.32699e-09
2.41755e-09
-1.50231e-09
2.84523e-09
-1.66454e-09
2.95808e-09
-1.77804e-09
3.05643e-09
-1.82453e-09
3.02111e-09
-1.86002e-09
2.96129e-09
-1.84309e-09
2.7258e-09
-1.82805e-09
2.38384e-09
-1.80176e-09
2.10268e-09
-1.75518e-09
1.66547e-09
-1.82131e-09
1.30967e-09
-1.7969e-09
1.05207e-09
-1.70555e-09
6.87829e-10
-1.83777e-09
5.02266e-10
-2.12254e-09
2.43359e-10
-2.43575e-09
-3.08118e-11
-2.59201e-09
-3.45719e-10
-2.76242e-09
-5.64646e-10
-2.93699e-09
-8.7509e-10
-3.12202e-09
-8.04475e-10
-3.19658e-09
-1.07682e-09
-3.18611e-09
-1.34453e-09
-3.14584e-09
-1.57396e-09
-3.08464e-09
-1.77028e-09
-3.12075e-09
-1.87342e-09
-3.1201e-09
-1.92158e-09
-3.15354e-09
-1.91177e-09
-3.26506e-09
-2.0095e-09
-3.07311e-09
-1.97514e-09
-3.00926e-09
-2.03368e-09
-2.86781e-09
-1.75076e-09
-2.65701e-09
-1.71918e-09
-2.41491e-09
-1.59264e-09
-2.19214e-09
-1.27437e-09
-1.74747e-09
-1.47493e-09
-1.35486e-09
-1.51792e-09
-9.2864e-10
-1.40666e-09
-4.77399e-10
-1.52155e-09
-3.28874e-10
-1.16978e-09
-3.61849e-10
-7.56684e-10
-3.62286e-10
-3.68355e-10
-2.99931e-10
9.35316e-11
-3.67007e-10
8.16594e-10
-4.56078e-10
1.05479e-09
-5.6299e-10
1.18513e-09
-5.84367e-10
1.36902e-09
-5.91052e-10
1.54461e-09
-5.9739e-10
1.56276e-09
-5.76753e-10
1.41294e-09
-5.42644e-10
1.23937e-09
-5.21259e-10
1.01295e-09
-4.5577e-10
7.03668e-10
-3.82389e-10
4.26261e-10
-3.43269e-10
2.76144e-10
-3.73531e-10
1.85749e-10
-4.46706e-10
7.59415e-11
-4.65439e-10
-2.04776e-11
-4.96411e-10
-1.03439e-10
-5.34064e-10
-1.65748e-10
-5.75656e-10
-2.28045e-10
-5.8729e-10
-2.82566e-10
-5.80746e-10
-3.59882e-10
-6.74477e-10
-4.36664e-10
-7.83773e-10
-6.07068e-10
-1.00152e-09
-7.8791e-10
-1.29938e-09
-1.08048e-09
-1.64548e-09
-1.3868e-09
-1.91527e-09
-1.59376e-09
-2.11662e-09
-1.66511e-09
-2.22492e-09
-1.57833e-09
-2.15209e-09
-1.36223e-09
-2.1513e-09
-9.22644e-10
-1.92536e-09
-9.03864e-10
-1.57358e-09
-7.90551e-10
-1.4665e-09
-2.29296e-10
-9.72799e-10
2.60869e-10
-5.74366e-10
4.80879e-10
-2.14671e-16
7.19053e-10
-2.69341e-18
-2.25977e-18
-2.78226e-18
-4.35284e-18
-2.26506e-18
-4.82517e-18
-1.7568e-18
-4.58172e-18
-1.32393e-18
-4.28933e-18
-9.29194e-19
-4.09848e-18
-5.355e-19
-4.00952e-18
-1.20472e-19
-3.98974e-18
3.2598e-19
-4.00433e-18
8.05071e-19
-4.0228e-18
1.31147e-18
-4.01976e-18
1.83499e-18
-3.97501e-18
2.36214e-18
-3.87388e-18
2.87761e-18
-3.70746e-18
3.36584e-18
-3.47262e-18
3.81229e-18