/*--------------------------------*- C++ -*----------------------------------*\
  =========                 |
  \\      /  F ield         | OpenFOAM: The Open Source CFD Toolbox
   \\    /   O peration     | Website:  https://openfoam.org
    \\  /    A nd           | Version:  6
     \\/     M anipulation  |
\*---------------------------------------------------------------------------*/
FoamFile
{
    version     2.0;
    format      ascii;
    class       volScalarField;
    location    "4550";
    object      Su;
}
// * * * * * * * * * * * * * * * * * * * * * * * * * * * * * * * * * * * * * //

dimensions      [0 0 -1 0 0 0 0];

internalField   nonuniform List<scalar> 
4800
(
0.217137
0.210236
0.203351
0.196498
0.189714
0.183069
0.17664
0.170525
0.164818
0.15958
0.154877
0.150751
0.147212
0.144221
0.141698
0.139558
0.137718
0.136109
0.13467
0.13335
0.132116
0.130939
0.129794
0.128657
0.127517
0.126367
0.125194
0.123988
0.122737
0.121429
0.120055
0.118606
0.117072
0.115447
0.113733
0.111934
0.110053
0.108097
0.106065
0.103956
0.101768
0.0994944
0.0971263
0.094645
0.0920304
0.089278
0.0863966
0.0834009
0.0803148
0.0771689
0.0739938
0.0708138
0.0676521
0.0645373
0.0614946
0.0585519
0.0557258
0.0530179
0.0504261
0.0479429
0.0455619
0.0432741
0.0410697
0.0389433
0.0368846
0.0348769
0.0329089
0.030973
0.0290516
0.027123
0.0251684
0.0231672
0.0210966
0.0189354
0.0166719
0.0142968
0.0117944
0.00915342
0.00637748
0.00348188
0.000498572
-0.00248929
-0.00542861
-0.00833737
-0.0112265
-0.0141029
-0.0169712
-0.019834
-0.022693
-0.0255489
-0.0284018
-0.0312516
-0.0340978
-0.0369398
-0.0397772
-0.0426093
-0.0454357
-0.048256
-0.0510699
-0.0538772
-0.0566779
-0.0594718
-0.0622592
-0.0650402
-0.0678149
-0.0705838
-0.073347
-0.0761049
-0.078858
-0.0816066
-0.084351
-0.0870918
-0.0898293
-0.0925639
-0.095296
-0.098026
-0.100754
-0.103481
-0.106207
-0.108933
0.217113
0.210159
0.203217
0.196308
0.189471
0.182788
0.176345
0.170219
0.164528
0.15936
0.154759
0.150743
0.147295
0.144362
0.141873
0.139752
0.137923
0.136319
0.134882
0.133564
0.132329
0.131147
0.129991
0.128843
0.127691
0.126528
0.12534
0.124118
0.12285
0.121525
0.120136
0.118675
0.117128
0.115494
0.113775
0.111971
0.110088
0.108129
0.106093
0.103979
0.101785
0.0995062
0.0971301
0.094639
0.0920177
0.0892624
0.0863807
0.083387
0.0803031
0.077156
0.073977
0.0707998
0.0676531
0.064561
0.0615468
0.05863
0.0558249
0.0531348
0.050556
0.0480825
0.0457047
0.043414
0.041201
0.0390564
0.0369707
0.0349352
0.0329398
0.0309722
0.029017
0.0270566
0.0250719
0.0230432
0.0209509
0.0187765
0.016507
0.0141299
0.0116329
0.00900407
0.00624385
0.00336821
0.000421369
-0.00253141
-0.00545187
-0.00834929
-0.0112312
-0.0141031
-0.0169685
-0.0198297
-0.0226879
-0.0255435
-0.0283966
-0.0312468
-0.0340935
-0.0369362
-0.0397742
-0.0426069
-0.0454339
-0.0482548
-0.0510692
-0.0538769
-0.0566779
-0.0594722
-0.0622598
-0.065041
-0.0678159
-0.0705848
-0.0733481
-0.0761061
-0.0788592
-0.0816077
-0.0843521
-0.0870928
-0.0898302
-0.0925647
-0.0952967
-0.0980266
-0.100755
-0.103482
-0.106208
-0.108933
0.217074
0.210032
0.203
0.196026
0.189154
0.182455
0.17603
0.169963
0.164349
0.159275
0.154789
0.150891
0.147544
0.144683
0.142243
0.140153
0.138344
0.136749
0.135314
0.133992
0.13275
0.131555
0.130379
0.129209
0.128035
0.126846
0.125628
0.124377
0.123075
0.121719
0.120304
0.118821
0.117257
0.115613
0.113886
0.112077
0.110191
0.108225
0.10618
0.104055
0.101848
0.0995553
0.0971614
0.0946512
0.0920163
0.0892547
0.0863727
0.0833859
0.0803154
0.0771831
0.0740174
0.070857
0.0677374
0.0646822
0.061713
0.0588431
0.0560767
0.053416
0.0508593
0.0483973
0.0460202
0.0437194
0.0414857
0.0393088
0.0371791
0.0350934
0.033043
0.0310137
0.0289942
0.0269724
0.0249326
0.0228552
0.0207232
0.0185214
0.0162363
0.0138547
0.0113645
0.0087546
0.00602916
0.00320269
0.000310139
-0.00259891
-0.00549042
-0.0083686
-0.0112378
-0.0141015
-0.0169618
-0.0198201
-0.022677
-0.0255324
-0.0283859
-0.031237
-0.0340849
-0.0369288
-0.0397681
-0.0426021
-0.0454303
-0.0482523
-0.0510677
-0.0538763
-0.056678
-0.0594729
-0.0622611
-0.0650426
-0.0678178
-0.070587
-0.0733504
-0.0761084
-0.0788615
-0.08161
-0.0843543
-0.0870949
-0.0898321
-0.0925664
-0.0952981
-0.0980278
-0.100756
-0.103482
-0.106208
-0.108933
0.217043
0.209946
0.202847
0.195783
0.188851
0.182136
0.175741
0.169769
0.164289
0.159362
0.155013
0.151231
0.14798
0.145191
0.142807
0.140759
0.138975
0.137394
0.135963
0.13464
0.133386
0.13217
0.130969
0.129772
0.128566
0.127342
0.126087
0.124797
0.123451
0.122058
0.120608
0.119087
0.117496
0.115837
0.1141
0.112283
0.110384
0.108403
0.106343
0.104203
0.101981
0.0996668
0.0972486
0.0947152
0.0920619
0.0892902
0.0864087
0.0834332
0.0803833
0.0772807
0.0741527
0.0710333
0.0679563
0.0649494
0.0620315
0.0592121
0.056493
0.0538702
0.0513397
0.0488901
0.0465108
0.0441926
0.0419285
0.0397081
0.0375224
0.0353701
0.033242
0.0311295
0.0290257
0.0269227
0.024807
0.0226642
0.0204801
0.0182401
0.0159292
0.0135345
0.0110495
0.00846817
0.00579001
0.00302287
0.000187601
-0.00267592
-0.00553362
-0.00838802
-0.0112412
-0.0140945
-0.0169486
-0.0198037
-0.0226593
-0.0255149
-0.0283695
-0.0312222
-0.034072
-0.036918
-0.0397593
-0.0425953
-0.0454253
-0.0482489
-0.0510657
-0.0538756
-0.0566784
-0.0594742
-0.0622631
-0.0650452
-0.0678209
-0.0705903
-0.0733539
-0.076112
-0.078865
-0.0816134
-0.0843576
-0.0870979
-0.0898349
-0.0925689
-0.0953003
-0.0980296
-0.100757
-0.103483
-0.106209
-0.108933
0.216987
0.209779
0.202591
0.195489
0.188566
0.181902
0.175588
0.169734
0.164405
0.159633
0.155426
0.151764
0.14861
0.145896
0.14357
0.141563
0.139809
0.138246
0.136825
0.1355
0.134235
0.133
0.131776
0.13055
0.12931
0.128048
0.126753
0.125417
0.124021
0.122583
0.121082
0.11951
0.117877
0.116182
0.114418
0.11258
0.110663
0.108667
0.106591
0.104434
0.102193
0.0998561
0.0974133
0.0948572
0.0921857
0.0894043
0.0865246
0.083561
0.0805318
0.0774598
0.0743746
0.0713085
0.0682915
0.0653485
0.0624943
0.0597343
0.0570673
0.0544862
0.0519827
0.0495452
0.0471633
0.0448256
0.0425246
0.0402524
0.0380037
0.0357766
0.0335608
0.0313537
0.0291497
0.0269464
0.0247392
0.0225163
0.0202679
0.0179792
0.0156324
0.0132204
0.0107388
0.00818209
0.00554808
0.00284037
6.56729e-05
-0.00274869
-0.00556971
-0.00839841
-0.0112345
-0.0140771
-0.0169253
-0.0197778
-0.0226331
-0.0254899
-0.0283467
-0.0312021
-0.0340548
-0.0369038
-0.039748
-0.0425867
-0.0454191
-0.0482449
-0.0510637
-0.0538752
-0.0566794
-0.0594763
-0.0622661
-0.065049
-0.0678251
-0.0705949
-0.0733587
-0.0761169
-0.0788699
-0.0816181
-0.084362
-0.087102
-0.0898386
-0.0925722
-0.0953032
-0.098032
-0.100759
-0.103485
-0.106209
-0.108934
0.21693
0.209618
0.20237
0.195261
0.188365
0.18179
0.175621
0.169915
0.164735
0.160111
0.15604
0.152496
0.149436
0.146795
0.14453
0.142568
0.140845
0.139303
0.13789
0.136563
0.135291
0.13404
0.132797
0.131545
0.130274
0.128976
0.127639
0.126256
0.124808
0.123311
0.121745
0.12011
0.118422
0.116677
0.114869
0.112994
0.111051
0.109035
0.106943
0.104769
0.102508
0.100148
0.0976793
0.0950978
0.0924055
0.0896145
0.0867376
0.0837868
0.0807775
0.0777366
0.0746995
0.0716971
0.0687528
0.0658829
0.0630976
0.0603994
0.0577837
0.0552414
0.0527626
0.050336
0.0479505
0.0455953
0.0432614
0.0409394
0.0386287
0.0363244
0.0340172
0.0317124
0.0294038
0.0270925
0.0247787
0.0224614
0.0201314
0.0177776
0.0153889
0.0129553
0.0104741
0.00793635
0.00533522
0.00267402
-4.23971e-05
-0.0028013
-0.00558474
-0.00838869
-0.0112093
-0.0140433
-0.0168875
-0.0197394
-0.0225965
-0.0254563
-0.028317
-0.0311766
-0.0340336
-0.0368867
-0.0397347
-0.0425769
-0.0454124
-0.0482409
-0.051062
-0.0538755
-0.0566813
-0.0594796
-0.0622704
-0.0650541
-0.0678308
-0.070601
-0.0733649
-0.0761231
-0.078876
-0.081624
-0.0843676
-0.0871073
-0.0898434
-0.0925764
-0.0953068
-0.098035
-0.100761
-0.103486
-0.10621
-0.108934
0.216874
0.209465
0.202161
0.195079
0.188278
0.181822
0.175794
0.170254
0.165239
0.16077
0.156839
0.153417
0.150461
0.147902
0.145695
0.143776
0.142083
0.140556
0.13915
0.137825
0.136547
0.135284
0.134023
0.13275
0.131453
0.130124
0.12875
0.127323
0.125822
0.124262
0.122631
0.120927
0.119172
0.117359
0.115488
0.11356
0.111577
0.109532
0.107418
0.105226
0.102944
0.100559
0.0980612
0.0954491
0.0927302
0.0899206
0.087035
0.0840937
0.0811147
0.0781206
0.0751434
0.0722091
0.0693348
0.0665342
0.0638157
0.0611787
0.0586141
0.0561098
0.0536545
0.0512363
0.0488449
0.0464712
0.0441066
0.0417415
0.0393779
0.0370047
0.0346188
0.0322243
0.0298167
0.0274014
0.0249811
0.0225614
0.0201413
0.0177117
0.0152638
0.0127924
0.0102953
0.00776566
0.00518759
0.00256098
-0.000104138
-0.00281031
-0.00556112
-0.00834565
-0.0111559
-0.0139856
-0.0168301
-0.0196851
-0.022547
-0.0254128
-0.0282797
-0.0311456
-0.0340085
-0.036867
-0.03972
-0.0425664
-0.0454057
-0.0482374
-0.0510612
-0.0538769
-0.0566846
-0.0594844
-0.0622764
-0.0650608
-0.0678381
-0.0706086
-0.0733728
-0.076131
-0.0788837
-0.0816313
-0.0843745
-0.0871136
-0.0898491
-0.0925815
-0.0953112
-0.0980386
-0.100764
-0.103488
-0.106212
-0.108934
0.216885
0.209503
0.202219
0.19515
0.188406
0.182051
0.176155
0.170773
0.165929
0.161623
0.15784
0.154542
0.151685
0.149208
0.147059
0.145179
0.14351
0.141998
0.140599
0.139274
0.137988
0.136718
0.135443
0.134152
0.132835
0.131479
0.130071
0.1286
0.127046
0.12542
0.123717
0.121934
0.120105
0.118217
0.116275
0.114287
0.112255
0.11017
0.108024
0.105804
0.103495
0.101079
0.0985486
0.0959051
0.0931613
0.0903348
0.0874441
0.0845142
0.0815641
0.0786171
0.075698
0.0728271
0.0700203
0.0672886
0.0646356
0.0620559
0.0595363
0.0570638
0.0546264
0.0522132
0.0498159
0.047427
0.0450404
0.0426488
0.0402478
0.0378228
0.0353763
0.0329046
0.0304112
0.0279007
0.0253769
0.0228494
0.0203263
0.0178084
0.0152927
0.0127756
0.0102518
0.00771384
0.00514705
0.00254949
-7.68459e-05
-0.00274737
-0.00547865
-0.00825456
-0.0110633
-0.0138964
-0.0167473
-0.0196108
-0.0224821
-0.0253577
-0.0282341
-0.0311088
-0.0339798
-0.0368454
-0.0397045
-0.0425562
-0.0453999
-0.0482353
-0.0510621
-0.0538803
-0.0566899
-0.0594912
-0.0622843
-0.0650696
-0.0678474
-0.0706182
-0.0733824
-0.0761404
-0.0788928
-0.0816401
-0.0843827
-0.0871212
-0.0898559
-0.0925875
-0.0953164
-0.0980429
-0.100768
-0.103491
-0.106213
-0.108935
0.216872
0.20951
0.202316
0.195341
0.18869
0.182473
0.17674
0.171521
0.16683
0.162667
0.159017
0.155839
0.153087
0.150696
0.148605
0.146764
0.145116
0.143614
0.142217
0.140888
0.1396
0.138327
0.137039
0.135736
0.134402
0.133023
0.131582
0.130066
0.128458
0.126767
0.124991
0.12313
0.121219
0.119241
0.117221
0.115163
0.113065
0.110926
0.108738
0.10648
0.104137
0.101689
0.099125
0.0964516
0.0936876
0.0908502
0.0879602
0.0850426
0.0821182
0.0792122
0.0763464
0.0735372
0.0707958
0.0681283
0.0655331
0.0630002
0.0605142
0.0580636
0.055639
0.0532314
0.0508351
0.0484425
0.0460485
0.0436449
0.0412222
0.038771
0.036289
0.033768
0.031209
0.028616
0.0259991
0.0233699
0.0207424
0.018127
0.0155278
0.012948
0.0103827
0.00781958
0.00525183
0.00267509
7.1127e-05
-0.00258576
-0.00531733
-0.00810082
-0.0109211
-0.0137679
-0.0166338
-0.0195128
-0.0223996
-0.0252897
-0.0281796
-0.0310663
-0.0339478
-0.0368224
-0.039689
-0.042547
-0.0453958
-0.0482353
-0.0510654
-0.0538862
-0.0566978
-0.0595006
-0.0622948
-0.0650808
-0.067859
-0.0706299
-0.073394
-0.0761517
-0.0789037
-0.0816503
-0.0843923
-0.0871299
-0.0898638
-0.0925945
-0.0953223
-0.0980478
-0.100771
-0.103494
-0.106215
-0.108935
0.216872
0.209514
0.202379
0.195551
0.189081
0.183039
0.177478
0.172431
0.167907
0.163903
0.160393
0.157333
0.154674
0.152351
0.150305
0.148494
0.146863
0.145368
0.143974
0.142649
0.141364
0.140089
0.138792
0.137478
0.13613
0.134726
0.133249
0.131683
0.130021
0.128265
0.126419
0.124485
0.122486
0.120418
0.118307
0.116158
0.113975
0.111767
0.10952
0.107213
0.104832
0.102348
0.0997504
0.0970528
0.0942744
0.0914305
0.0885472
0.0856473
0.0827533
0.0798894
0.0770745
0.0743221
0.0716385
0.0690246
0.0664758
0.06398
0.0615217
0.0590902
0.0566787
0.0542817
0.0518949
0.0495099
0.04712
0.0447174
0.0422942
0.0398397
0.0373455
0.0348031
0.0322079
0.029559
0.0268659
0.0241468
0.021422
0.0187109
0.016025
0.0133746
0.010757
0.00815582
0.00556925
0.00298706
0.00037595
-0.00230018
-0.00505984
-0.00787219
-0.0107201
-0.0135935
-0.016485
-0.0193881
-0.0222974
-0.025208
-0.0281161
-0.0310185
-0.0339133
-0.036799
-0.0396747
-0.0425399
-0.0453945
-0.0482385
-0.0510721
-0.0538955
-0.056709
-0.0595131
-0.0623082
-0.0650947
-0.0678731
-0.0706439
-0.0734077
-0.076165
-0.0789163
-0.0816622
-0.0844033
-0.0871399
-0.0898728
-0.0926023
-0.095329
-0.0980534
-0.100776
-0.103497
-0.106217
-0.108936
0.216934
0.209697
0.202681
0.195984
0.189674
0.183808
0.178422
0.17354
0.16917
0.165311
0.161927
0.158974
0.1564
0.154138
0.152134
0.150344
0.148723
0.147236
0.145848
0.144534
0.143255
0.141979
0.140678
0.139355
0.137988
0.136552
0.135032
0.133414
0.131697
0.129883
0.127971
0.125964
0.123876
0.121715
0.119508
0.117259
0.114982
0.112688
0.11036
0.107983
0.105542
0.10301
0.100383
0.0976713
0.0948873
0.0920449
0.0891756
0.0863002
0.0834394
0.0806155
0.0778464
0.0751431
0.0725088
0.0699412
0.0674324
0.0649673
0.0625329
0.0601233
0.0577337
0.0553587
0.0529926
0.0506289
0.0482587
0.0458735
0.0434645
0.0410212
0.0385356
0.0359945
0.0333919
0.0307185
0.0279822
0.0252007
0.0224008
0.0196076
0.0168399
0.0141122
0.0114247
0.00876725
0.0061447
0.0035251
0.000872868
-0.00187472
-0.00469797
-0.00756292
-0.010456
-0.0133698
-0.0162983
-0.0192352
-0.022175
-0.0251126
-0.028044
-0.0309662
-0.0338774
-0.0367764
-0.0396628
-0.0425363
-0.0453973
-0.048246
-0.0510831
-0.053909
-0.0567243
-0.0595295
-0.0623251
-0.0651118
-0.0678901
-0.0706606
-0.0734239
-0.0761804
-0.0789309
-0.0816758
-0.0844157
-0.0871513
-0.0898829
-0.0926112
-0.0953366
-0.0980596
-0.100781
-0.1035
-0.106219
-0.108937
0.217031
0.209988
0.203144
0.196599
0.190444
0.18474
0.17952
0.174804
0.170599
0.166887
0.163629
0.160782
0.15828
0.15606
0.154082
0.152305
0.150695
0.149219
0.147839
0.146533
0.145261
0.143983
0.142679
0.14134
0.13995
0.138477
0.13691
0.135239
0.133462
0.131584
0.1296
0.127516
0.125346
0.123099
0.120796
0.11845
0.116079
0.113687
0.11126
0.108788
0.106262
0.103668
0.101006
0.0982783
0.0954918
0.0926583
0.0898118
0.0869682
0.0841442
0.0813598
0.0786327
0.075972
0.0733787
0.0708492
0.0683732
0.0659362
0.0635296
0.06115
0.0587929
0.0564526
0.0541219
0.0517931
0.0494562
0.0471031
0.0447242
0.0423082
0.0398466
0.0373258
0.0347383
0.032073
0.0293329
0.0265289
0.0236849
0.0208262
0.0179781
0.0151567
0.0123689
0.009617
0.00692299
0.0042574
0.00157082
-0.00132415
-0.00424385
-0.00717903
-0.0101312
-0.0130981
-0.0160748
-0.0190553
-0.0220338
-0.025005
-0.027965
-0.0309112
-0.0338418
-0.0367563
-0.0396548
-0.0425375
-0.0454053
-0.048259
-0.0510995
-0.0539277
-0.0567443
-0.0595502
-0.0623461
-0.0651326
-0.0679104
-0.0706802
-0.0734426
-0.0761981
-0.0789474
-0.0816911
-0.0844298
-0.0871639
-0.0898942
-0.092621
-0.0953449
-0.0980664
-0.100786
-0.103504
-0.106221
-0.108937
0.217153
0.210336
0.203694
0.197334
0.191353
0.185817
0.180764
0.176214
0.172165
0.168592
0.165451
0.162691
0.160249
0.158079
0.156135
0.154382
0.15279
0.151326
0.149953
0.148649
0.147376
0.146095
0.144781
0.143418
0.141996
0.140481
0.138859
0.137127
0.135286
0.133339
0.131277
0.129112
0.126858
0.124526
0.122136
0.119701
0.117233
0.114732
0.112192
0.109604
0.106972
0.1043
0.101595
0.0988473
0.0960552
0.0932317
0.0904103
0.0876018
0.0848189
0.0820774
0.0793914
0.0767694
0.0742123
0.0717158
0.0692695
0.0668628
0.0644904
0.0621493
0.0598347
0.0575402
0.0552572
0.0529762
0.0506864
0.0483799
0.0460459
0.0436732
0.041251
0.038767
0.0362117
0.0335768
0.0308615
0.0280738
0.0252231
0.022329
0.0194104
0.0164854
0.0135706
0.0106848
0.00785821
0.00510735
0.0023643
-0.000731342
-0.00374005
-0.00674032
-0.00975688
-0.0127861
-0.0158208
-0.0188536
-0.0218781
-0.0248889
-0.0278824
-0.0308561
-0.033809
-0.0367409
-0.0396527
-0.0425453
-0.0454202
-0.0482788
-0.0511225
-0.0539525
-0.05677
-0.0595761
-0.0623716
-0.0651574
-0.0679343
-0.0707029
-0.073464
-0.0762182
-0.078966
-0.0817082
-0.0844453
-0.0871779
-0.0899065
-0.0926317
-0.095354
-0.0980739
-0.100792
-0.103508
-0.106224
-0.108938
0.217284
0.210715
0.204301
0.198158
0.192385
0.187049
0.182188
0.177813
0.17391
0.170456
0.167424
0.164745
0.16236
0.160231
0.158316
0.156588
0.155016
0.153567
0.152201
0.150893
0.149612
0.148322
0.146988
0.145591
0.144129
0.142559
0.140876
0.139081
0.137172
0.135146
0.132997
0.130739
0.12839
0.125965
0.123485
0.120959
0.118393
0.115785
0.113126
0.110409
0.107652
0.104878
0.102105
0.0993238
0.0965242
0.0937129
0.0909173
0.0881449
0.0854051
0.0827087
0.0800658
0.0774826
0.074961
0.0724972
0.0700832
0.0677122
0.0653808
0.0630859
0.060822
0.0585818
0.0563562
0.0541345
0.0519059
0.0496602
0.0473852
0.0450691
0.0427005
0.0402682
0.0377608
0.0351699
0.0324915
0.0297285
0.0268859
0.0239765
0.0210083
0.0179964
0.0149589
0.0119181
0.00889603
0.00590036
0.00288054
-0.000377788
-0.00324093
-0.00626885
-0.00935046
-0.0124492
-0.0155493
-0.0186407
-0.0217165
-0.0247714
-0.0278017
-0.0308056
-0.0337825
-0.0367332
-0.0396589
-0.0425617
-0.0454437
-0.0483068
-0.051153
-0.0539843
-0.056802
-0.0596076
-0.0624021
-0.0651866
-0.067962
-0.070729
-0.0734883
-0.0762407
-0.0789868
-0.0817272
-0.0844625
-0.0871932
-0.08992
-0.0926434
-0.0953639
-0.098082
-0.100798
-0.103513
-0.106226
-0.108939
0.217415
0.211103
0.204935
0.199032
0.1935
0.188388
0.183718
0.179514
0.175773
0.17246
0.169535
0.166931
0.164607
0.162526
0.160649
0.158952
0.157401
0.155963
0.1546
0.153284
0.151987
0.150679
0.149312
0.147874
0.14636
0.144726
0.142979
0.141115
0.139134
0.137022
0.134777
0.132414
0.129957
0.127427
0.124841
0.122206
0.119529
0.1168
0.114013
0.111162
0.108266
0.105362
0.10249
0.099658
0.0968482
0.0940538
0.091287
0.0885497
0.0858506
0.0831986
0.0805998
0.0780577
0.0755733
0.0731441
0.0707656
0.0684351
0.0661506
0.0639083
0.0617017
0.0595232
0.0573636
0.0552112
0.0530547
0.0508818
0.0486784
0.046431
0.0441265
0.0417528
0.0392977
0.036751
0.0341079
0.0313672
0.0285313
0.0256062
0.0225982
0.0195198
0.0163909
0.0132327
0.010058
0.00687602
0.00369701
0.000522227
-0.00260535
-0.00576146
-0.00893583
-0.0121133
-0.0152824
-0.0184345
-0.0215631
-0.024663
-0.0277311
-0.0307658
-0.0337673
-0.0367368
-0.0396766
-0.0425892
-0.0454775
-0.0483444
-0.0511925
-0.0540241
-0.0568411
-0.0596453
-0.0624381
-0.0652206
-0.0679938
-0.0707585
-0.0735157
-0.0762658
-0.0790097
-0.0817479
-0.0844811
-0.0872098
-0.0899346
-0.092656
-0.0953745
-0.0980906
-0.100805
-0.103517
-0.106229
-0.10894
0.217561
0.211543
0.205669
0.200052
0.19477
0.189876
0.185411
0.18139
0.177805
0.174624
0.171803
0.169282
0.167021
0.164991
0.163159
0.161496
0.159965
0.158535
0.157174
0.155849
0.154529
0.153188
0.151779
0.150295
0.148719
0.147024
0.145212
0.143276
0.141217
0.139014
0.136666
0.134195
0.131632
0.128994
0.126289
0.123516
0.120696
0.117819
0.114878
0.111868
0.10881
0.105749
0.102746
0.0998318
0.096994
0.0942081
0.0914666
0.0887642
0.0861053
0.083495
0.0809373
0.0784347
0.0759875
0.0735948
0.0712549
0.0689684
0.0667346
0.0645486
0.0624034
0.0602921
0.0582044
0.0561274
0.0540479
0.0519516
0.0498228
0.0476462
0.0454078
0.0430937
0.0406909
0.0381887
0.0355786
0.0328543
0.030015
0.0270638
0.0240097
0.0208691
0.0176623
0.014406
0.0111172
0.00781159
0.00451525
0.00124778
-0.00203775
-0.00530923
-0.00857191
-0.0118222
-0.015054
-0.018261
-0.0214375
-0.0245788
-0.0276819
-0.0307454
-0.0337698
-0.0367567
-0.0397091
-0.0426303
-0.0455238
-0.0483933
-0.051242
-0.0540727
-0.056888
-0.0596898
-0.0624798
-0.0652595
-0.0680297
-0.0707916
-0.073546
-0.0762934
-0.0790347
-0.0817705
-0.0845013
-0.0872276
-0.0899502
-0.0926694
-0.0953857
-0.0980997
-0.100812
-0.103522
-0.106232
-0.108941
0.217723
0.212029
0.206475
0.201156
0.196144
0.191495
0.187249
0.183423
0.180001
0.176953
0.174238
0.171805
0.169619
0.167651
0.165868
0.16424
0.16273
0.161308
0.159949
0.15861
0.157263
0.155883
0.154433
0.152903
0.151272
0.149522
0.147647
0.145644
0.143508
0.141216
0.138774
0.136213
0.133557
0.130802
0.127951
0.125018
0.122031
0.118966
0.115813
0.112578
0.109306
0.106061
0.102903
0.0998747
0.0969734
0.0941674
0.0914279
0.0887412
0.086109
0.0835335
0.0810131
0.0785469
0.0761348
0.0737782
0.0714782
0.0692368
0.0670537
0.0649235
0.0628405
0.0607966
0.0587794
0.0567751
0.0547678
0.0527408
0.0506773
0.0485601
0.0463737
0.0441029
0.0417344
0.039256
0.036658
0.0339349
0.0310859
0.0281153
0.0250327
0.0218507
0.0185842
0.0152516
0.0118764
0.00847902
0.00507917
0.00169586
-0.00167377
-0.00501638
-0.00833642
-0.0116347
-0.0149087
-0.018154
-0.0213653
-0.0245378
-0.0276682
-0.0307547
-0.0337975
-0.0367985
-0.0397607
-0.042688
-0.0455847
-0.0484549
-0.0513025
-0.054131
-0.0569431
-0.0597413
-0.0625276
-0.0653034
-0.0680699
-0.0708283
-0.0735792
-0.0763235
-0.0790618
-0.0817947
-0.0845228
-0.0872466
-0.0899666
-0.0926835
-0.0953975
-0.0981093
-0.100819
-0.103528
-0.106235
-0.108942
0.217891
0.212538
0.207322
0.202322
0.197602
0.193218
0.189207
0.185587
0.18234
0.179437
0.176842
0.174509
0.172406
0.170505
0.168776
0.167183
0.165695
0.164283
0.162927
0.161582
0.160214
0.158805
0.157327
0.155765
0.154098
0.15231
0.150397
0.148346
0.146151
0.143799
0.141301
0.138682
0.135941
0.133069
0.130065
0.126936
0.123709
0.120368
0.116922
0.113398
0.109853
0.106378
0.103042
0.0998709
0.0968569
0.0939753
0.0911923
0.0884867
0.0858535
0.0832882
0.0807854
0.0783411
0.0759541
0.0736257
0.0713612
0.0691609
0.0670245
0.064947
0.0629207
0.0609344
0.0589742
0.0570245
0.0550668
0.0530821
0.0510523
0.0489599
0.0467891
0.0445255
0.0421564
0.0396704
0.0370597
0.0343215
0.0314577
0.0284735
0.0253765
0.0221751
0.0188791
0.0155059
0.012082
0.0086359
0.00518554
0.00174558
-0.00164148
-0.0049926
-0.00831698
-0.011619
-0.0148988
-0.0181529
-0.021376
-0.024562
-0.0277062
-0.0308055
-0.0338591
-0.0368682
-0.0398357
-0.0427656
-0.0456624
-0.0485308
-0.0513752
-0.0541994
-0.0570068
-0.0598001
-0.0625813
-0.0653523
-0.0681142
-0.0708683
-0.0736152
-0.0763558
-0.0790907
-0.0818204
-0.0845455
-0.0872665
-0.0899839
-0.0926982
-0.0954098
-0.0981192
-0.100827
-0.103533
-0.106238
-0.108943
0.218074
0.21308
0.20821
0.203539
0.199128
0.195024
0.19126
0.187853
0.184791
0.182049
0.179593
0.177368
0.175351
0.173526
0.171857
0.170304
0.168844
0.167454
0.166115
0.164782
0.163418
0.162008
0.16053
0.158967
0.157301
0.155517
0.153607
0.15155
0.149349
0.146999
0.144505
0.141869
0.13907
0.136103
0.132951
0.129607
0.126102
0.122415
0.118565
0.114623
0.110704
0.106948
0.103399
0.100033
0.096827
0.0937754
0.0908614
0.0880644
0.0853703
0.0827662
0.0802408
0.0777866
0.0754017
0.0730854
0.070845
0.068677
0.0665785
0.0645422
0.0625562
0.0606046
0.0586692
0.0567339
0.0547798
0.0527861
0.0507347
0.0486093
0.0463965
0.0440856
0.0416674
0.039134
0.036481
0.0337091
0.0308249
0.0278356
0.0247461
0.0215613
0.0182863
0.0149336
0.0115239
0.00809029
0.00465205
0.00123027
-0.00207499
-0.00534988
-0.00860434
-0.0118465
-0.0150792
-0.0182996
-0.0215009
-0.0246746
-0.0278131
-0.0309105
-0.0339637
-0.0369724
-0.0399386
-0.0428659
-0.0457588
-0.0486222
-0.0514607
-0.0542785
-0.0570793
-0.059866
-0.062641
-0.065406
-0.0681625
-0.0709115
-0.0736538
-0.0763902
-0.0791212
-0.0818474
-0.0845692
-0.0872872
-0.0900018
-0.0927134
-0.0954225
-0.0981295
-0.100835
-0.103539
-0.106242
-0.108944
0.218266
0.213649
0.20914
0.204804
0.200697
0.19687
0.193357
0.190171
0.187306
0.184733
0.18241
0.180294
0.178381
0.176646
0.175044
0.173544
0.172134
0.170792
0.169501
0.168215
0.166899
0.165537
0.164112
0.162608
0.161006
0.159294
0.157461
0.155478
0.153359
0.151097
0.148672
0.146065
0.143254
0.14023
0.136953
0.133401
0.129594
0.125492
0.121128
0.116644
0.112246
0.108156
0.104359
0.100723
0.0972012
0.0938378
0.0906534
0.0876428
0.0847851
0.0820582
0.0794412
0.0769191
0.0744891
0.0721501
0.0699075
0.0677547
0.0656786
0.0636631
0.0616887
0.0597308
0.0577628
0.0557685
0.0537336
0.051642
0.0494797
0.0472322
0.0448904
0.0424524
0.0399167
0.0372822
0.0345501
0.0317265
0.0288245
0.0258542
0.0228177
0.0197142
0.0165377
0.0132875
0.00997737
0.00664504
0.00331728
2.8598e-05
-0.00309303
-0.00619114
-0.00928277
-0.0123836
-0.0155009
-0.0186325
-0.0217689
-0.0248972
-0.0280048
-0.0310811
-0.0341195
-0.0371169
-0.0400735
-0.0429917
-0.0458757
-0.04873
-0.0515593
-0.0543682
-0.0571603
-0.0599388
-0.0627061
-0.0654641
-0.0682142
-0.0709574
-0.0736946
-0.0764262
-0.079153
-0.0818754
-0.0845937
-0.0873085
-0.0900201
-0.0927289
-0.0954354
-0.0981399
-0.100843
-0.103544
-0.106245
-0.108945
0.218446
0.214186
0.21002
0.206008
0.202204
0.198657
0.195397
0.192436
0.189769
0.187359
0.185165
0.183175
0.18138
0.179742
0.178224
0.176805
0.175482
0.174229
0.173033
0.171851
0.170653
0.169416
0.168128
0.166773
0.165334
0.163798
0.162148
0.160358
0.158439
0.156361
0.154089
0.151601
0.148853
0.14582
0.142461
0.138742
0.134638
0.130038
0.125033
0.119885
0.11494
0.110506
0.106458
0.10248
0.0984885
0.0946017
0.0909377
0.087533
0.0843574
0.0813782
0.0785615
0.0758796
0.0733285
0.0709105
0.068626
0.0664563
0.0643712
0.0623398
0.0603293
0.0583017
0.0562156
0.0540509
0.0518012
0.0494713
0.0470608
0.0445613
0.0419689
0.0392954
0.0365514
0.0337462
0.0308923
0.0280043
0.0251048
0.0222058
0.0192985
0.0163674
0.013395
0.0103644
0.0072768
0.00416505
0.00106734
-0.00194353
-0.00478355
-0.00759361
-0.0104159
-0.0132807
-0.0162027
-0.019181
-0.0222021
-0.0252463
-0.0282934
-0.0313264
-0.0343331
-0.0373062
-0.0402432
-0.0431448
-0.0460138
-0.0488544
-0.0516711
-0.0544682
-0.0572494
-0.060018
-0.0627762
-0.0655261
-0.0682689
-0.0710056
-0.073737
-0.0764636
-0.0791858
-0.081904
-0.0846187
-0.0873301
-0.0900386
-0.0927446
-0.0954484
-0.0981503
-0.100851
-0.10355
-0.106249
-0.108947
0.21859
0.214617
0.210736
0.207005
0.203475
0.200185
0.19716
0.194411
0.191929
0.189673
0.187623
0.185772
0.184103
0.182582
0.181187
0.179899
0.178718
0.177622
0.176596
0.175603
0.174625
0.173628
0.172599
0.171522
0.170377
0.169155
0.167821
0.16636
0.164762
0.162988
0.161008
0.158781
0.15618
0.153193
0.149811
0.14602
0.141692
0.136507
0.130745
0.124905
0.119461
0.114745
0.110474
0.106096
0.101449
0.0967189
0.0922834
0.0882441
0.0845523
0.081149
0.0779836
0.075007
0.0722178
0.0696331
0.0672408
0.0649919
0.0628312
0.060716
0.058595
0.0564046
0.0540813
0.0515922
0.0489373
0.0461676
0.0433124
0.0403815
0.0373776
0.0343288
0.0312626
0.0282014
0.0251818
0.022234
0.0193951
0.0166703
0.0140165
0.0113858
0.0087569
0.00609138
0.0033736
0.000617113
-0.0021241
-0.00475015
-0.00717819
-0.00958281
-0.0120272
-0.0145574
-0.0172002
-0.0199572
-0.0228099
-0.0257294
-0.0286853
-0.0316512
-0.0346078
-0.0375426
-0.0404492
-0.0433256
-0.0461732
-0.0489952
-0.0517953
-0.0545776
-0.0573457
-0.0601025
-0.0628504
-0.0655911
-0.0683258
-0.0710554
-0.0737806
-0.0765017
-0.079219
-0.081933
-0.0846438
-0.0873517
-0.0900571
-0.0927602
-0.0954612
-0.0981606
-0.100859
-0.103556
-0.106252
-0.108948
0.218657
0.214828
0.211106
0.207552
0.204213
0.201123
0.198293
0.195723
0.193396
0.191288
0.189389
0.187687
0.186166
0.184809
0.183597
0.182517
0.181566
0.18073
0.179987
0.179316
0.178698
0.178096
0.177491
0.176861
0.17618
0.175439
0.174593
0.173631
0.172528
0.171202
0.169642
0.167795
0.165421
0.162531
0.159198
0.155514
0.151124
0.145283
0.138805
0.132456
0.126672
0.121739
0.117256
0.11247
0.106979
0.101006
0.0954743
0.0905445
0.0860922
0.0820608
0.0783753
0.0749216
0.0717265
0.0688581
0.0662583
0.0638083
0.0614263
0.0590904
0.0567373
0.0542481
0.0515238
0.0485094
0.0451993
0.041729
0.0381815
0.0346
0.0309982
0.0274141
0.0238924
0.0204739
0.0172499
0.0142917
0.0116474
0.00927606
0.00705393
0.00486293
0.00273602
0.000599356
-0.00157611
-0.00384274
-0.00614941
-0.00827086
-0.0101701
-0.0120899
-0.0140758
-0.0161881
-0.0184757
-0.0209492
-0.0235851
-0.0263425
-0.0291781
-0.0320544
-0.0349432
-0.0378256
-0.0406905
-0.0435332
-0.0463527
-0.0491508
-0.0519304
-0.054695
-0.0574477
-0.0601911
-0.0629274
-0.0656579
-0.0683839
-0.071106
-0.0738245
-0.0765399
-0.0792522
-0.0819618
-0.0846687
-0.0873731
-0.0900753
-0.0927754
-0.0954738
-0.0981707
-0.100866
-0.103561
-0.106255
-0.108949
0.218583
0.214624
0.210821
0.207243
0.203936
0.200919
0.198193
0.195744
0.193549
0.191587
0.189848
0.188324
0.187007
0.18589
0.184963
0.184214
0.183634
0.183211
0.182924
0.182757
0.18269
0.182681
0.182701
0.182722
0.182697
0.182621
0.182445
0.182159
0.181708
0.180962
0.179967
0.178667
0.176653
0.173881
0.170681
0.167359
0.163129
0.156675
0.149759
0.143277
0.137439
0.132399
0.127685
0.122544
0.116021
0.108393
0.101478
0.0955056
0.0900435
0.0851519
0.0807795
0.0766023
0.0727821
0.0695175
0.0665777
0.0636801
0.06074
0.0579069
0.0551295
0.0521292
0.0487653
0.0449832
0.0407248
0.0362548
0.0317315
0.0272849
0.0229176
0.0186601
0.0145536
0.0106879
0.00723445
0.00442215
0.00230514
0.000568788
-0.0010117
-0.00273116
-0.00421989
-0.0056867
-0.00715546
-0.00874968
-0.0105178
-0.0121437
-0.0134328
-0.0149224
-0.0164445
-0.0180919
-0.0199715
-0.0221167
-0.0245003
-0.0270677
-0.0297605
-0.0325285
-0.0353339
-0.038151
-0.040964
-0.0437645
-0.0465493
-0.0493186
-0.0520741
-0.0548182
-0.0575535
-0.0602821
-0.0630057
-0.0657255
-0.0684422
-0.0711563
-0.073868
-0.0765775
-0.0792848
-0.0819899
-0.0846928
-0.0873938
-0.0900928
-0.0927902
-0.095486
-0.0981804
-0.100874
-0.103566
-0.106258
-0.10895
0.218263
0.213717
0.209441
0.205529
0.202019
0.198909
0.196166
0.193748
0.191628
0.189777
0.188203
0.186903
0.185876
0.18512
0.184639
0.184413
0.184427
0.18465
0.185063
0.185645
0.186371
0.187191
0.188063
0.188943
0.189763
0.190506
0.19115
0.191704
0.192029
0.19198
0.191683
0.191045
0.189438
0.1868
0.1839
0.181277
0.177436
0.170661
0.163885
0.157877
0.152357
0.147302
0.14216
0.136696
0.129099
0.119585
0.111293
0.104472
0.097694
0.091719
0.0866533
0.0813632
0.0766408
0.0730021
0.0695651
0.0657147
0.0614314
0.0576206
0.0542388
0.0503888
0.0460239
0.0412278
0.0356804
0.0299665
0.0241502
0.018754
0.013553
0.00861439
0.00385291
-0.000448326
-0.0041513
-0.00645771
-0.00718313
-0.00794224
-0.00868184
-0.0104184
-0.0111965
-0.0119272
-0.0124891
-0.0131506
-0.0143143
-0.0157666
-0.0163019
-0.0178095
-0.0189672
-0.0201391
-0.0215896