0 	-4.77693e-16 	0 	-8.64174e-16
0.010101 	-1.13514e-13 	0 	4.21588e-15
0.020202 	-1.95972e-12 	0 	1.1505e-13
0.030303 	-3.61006e-11 	0 	2.04464e-12
0.040404 	-4.44116e-10 	0 	-1.13525e-11
