0 	1.81478e-20 	0 	-3.2666e-20
0.010101 	1.46023e-20 	3.72586e-22 	-2.04561e-20
0.020202 	3.73669e-20 	-1.01212e-22 	-1.01547e-19
0.030303 	2.50347e-20 	-2.02935e-22 	1.77383e-20
0.040404 	2.0861e-20 	1.01552e-22 	-3.29005e-20
0.0505051 	8.48897e-21 	3.36237e-23 	4.01366e-21
