/*--------------------------------*- C++ -*----------------------------------*\
  =========                 |
  \\      /  F ield         | OpenFOAM: The Open Source CFD Toolbox
   \\    /   O peration     | Website:  https://openfoam.org
    \\  /    A nd           | Version:  6
     \\/     M anipulation  |
\*---------------------------------------------------------------------------*/
FoamFile
{
    version     2.0;
    format      ascii;
    class       surfaceScalarField;
    location    "2400";
    object      phi;
}
// * * * * * * * * * * * * * * * * * * * * * * * * * * * * * * * * * * * * * //

dimensions      [0 3 -1 0 0 0 0];

internalField   nonuniform List<scalar> 
9440
(
2.97849e-11
-2.97849e-11
5.87961e-10
-5.58175e-10
1.1058e-09
-5.17841e-10
1.33101e-09
-2.25211e-10
1.47528e-09
-1.44263e-10
1.61004e-09
-1.34766e-10
1.71416e-09
-1.04115e-10
1.8005e-09
-8.63415e-11
1.88809e-09
-8.75923e-11
1.97093e-09
-8.28397e-11
2.10098e-09
-1.30046e-10
2.20865e-09
-1.07671e-10
2.29622e-09
-8.75679e-11
2.41532e-09
-1.19106e-10
2.50105e-09
-8.57231e-11
2.60104e-09
-9.99905e-11
2.76929e-09
-1.68251e-10
2.93583e-09
-1.6654e-10
3.06751e-09
-1.31682e-10
3.17819e-09
-1.10673e-10
3.31537e-09
-1.37188e-10
3.44374e-09
-1.28365e-10
3.52854e-09
-8.4805e-11
3.61101e-09
-8.24718e-11
3.71533e-09
-1.04317e-10
3.81391e-09
-9.85818e-11
3.88234e-09
-6.84279e-11
3.86664e-09
1.56978e-11
3.82811e-09
3.85344e-11
3.77544e-09
5.2665e-11
3.76207e-09
1.33749e-11
3.72544e-09
3.66227e-11
3.73323e-09
-7.78252e-12
3.75225e-09
-1.90278e-11
3.7672e-09
-1.49507e-11
3.80007e-09
-3.28684e-11
3.86565e-09
-6.55762e-11
3.91685e-09
-5.11984e-11
3.97268e-09
-5.58379e-11
3.97808e-09
-5.39066e-12
3.98299e-09
-4.91379e-12
3.99565e-09
-1.26607e-11
4.0431e-09
-4.74506e-11
4.12022e-09
-7.71202e-11
4.17688e-09
-5.66538e-11
4.20057e-09
-2.36899e-11
4.21187e-09
-1.13015e-11
4.20678e-09
5.08901e-12
4.20283e-09
3.94494e-12
4.18385e-09
1.89888e-11
4.16619e-09
1.76577e-11
4.15445e-09
1.17349e-11
4.14399e-09
1.04669e-11
4.15273e-09
-8.73637e-12
4.1707e-09
-1.79728e-11
4.18849e-09
-1.77877e-11
4.22592e-09
-3.74335e-11
4.26516e-09
-3.92412e-11
4.29409e-09
-2.89255e-11
4.28504e-09
9.04624e-12
4.26546e-09
1.95829e-11
4.2319e-09
3.35682e-11
4.18809e-09
4.38059e-11
4.13518e-09
5.29075e-11
4.08479e-09
5.03941e-11
4.03583e-09
4.89639e-11
3.99847e-09
3.73621e-11
3.97587e-09
2.26019e-11
3.93533e-09
4.0542e-11
3.90647e-09
2.88583e-11
3.79568e-09
1.10792e-10
3.74563e-09
5.00468e-11
3.58236e-09
1.63278e-10
3.3891e-09
1.93257e-10
3.10076e-09
2.88346e-10
2.70722e-09
3.93539e-10
2.40319e-09
3.04027e-10
1.58592e-09
8.17274e-10
6.79206e-10
9.06718e-10
3.09475e-10
3.69734e-10
1.44584e-10
1.64892e-10
-2.28264e-17
1.44585e-10
-1.18537e-17
-2.53243e-18
-1.15151e-17
-3.38576e-19
-1.1414e-17
-9.99181e-20
-1.11691e-17
-2.42763e-19
-1.07351e-17
-4.3136e-19
-1.01364e-17
-5.96434e-19
-9.40785e-18
-7.26699e-19
-8.58328e-18
-8.22685e-19
-7.69268e-18
-8.88418e-19
-6.76293e-18
-9.27304e-19
-5.81794e-18
-9.42409e-19
-4.87868e-18
-9.36606e-19
-3.96326e-18
-9.12706e-19
-3.087e-18
-8.73511e-19
-2.26243e-18
-8.21796e-19
-1.49939e-18
-7.6026e-19
-8.05172e-19
-6.91464e-19
-1.84691e-19
-6.1778e-19
3.59285e-19
-5.41343e-19
8.2586e-19
-4.6403e-19
1.21573e-18
-3.87442e-19
1.53091e-18
-3.12901e-19
1.77447e-18
-2.41458e-19
1.95028e-18
-1.73915e-19
2.06279e-18
-1.10842e-19
2.11684e-18
-5.26172e-20
2.11751e-18
5.49042e-22
2.06994e-18
4.85769e-20
1.97928e-18
9.14889e-20
1.85057e-18
1.29382e-19
1.6887e-18
1.62406e-19
1.49839e-18
1.90737e-19
1.28415e-18
2.14566e-19
1.05032e-18
2.34083e-19
8.01048e-19
2.49462e-19
5.40334e-19
2.60854e-19
2.72058e-19
2.68383e-19
2.72143e-19
3.76035e-10
-4.0582e-10
7.13184e-10
-8.95323e-10
1.04455e-09
-8.49207e-10
1.33944e-09
-5.20099e-10
1.5012e-09
-3.06028e-10
1.57721e-09
-2.10774e-10
1.63729e-09
-1.64196e-10
1.70255e-09
-1.51593e-10
1.78477e-09
-1.69812e-10
1.86119e-09
-1.59266e-10
1.95879e-09
-2.27639e-10
2.04036e-09
-1.89249e-10
2.15018e-09
-1.97383e-10
2.26216e-09
-2.31089e-10
2.36122e-09
-1.84782e-10
2.4201e-09
-1.58871e-10
2.50015e-09
-2.48301e-10
2.59964e-09
-2.66029e-10
2.72072e-09
-2.52756e-10
2.86143e-09
-2.51383e-10
2.96506e-09
-2.40825e-10
3.06806e-09
-2.31359e-10
3.14949e-09
-1.66237e-10
3.23577e-09
-1.68754e-10
3.31404e-09
-1.82584e-10
3.39261e-09
-1.77152e-10
3.46942e-09
-1.45239e-10
3.49264e-09
-7.52578e-12
3.46282e-09
6.8352e-11
3.47939e-09
3.61011e-11
3.41834e-09
7.44241e-11
3.44786e-09
7.10059e-12
3.48549e-09
-4.54152e-11
3.53109e-09
-6.46311e-11
3.58261e-09
-6.64712e-11
3.59103e-09
-4.12806e-11
3.59405e-09
-6.86051e-11
3.57525e-09
-3.23906e-11
3.67106e-09
-1.51653e-10
3.7583e-09
-9.26253e-11
3.83681e-09
-8.34304e-11
3.9e-09
-7.58436e-11
3.89808e-09
-4.55376e-11
3.86932e-09
-4.8355e-11
3.85436e-09
-4.16947e-11
3.86614e-09
-3.54695e-11
3.85329e-09
1.54989e-12
3.8345e-09
2.38764e-11
3.80493e-09
3.35156e-11
3.76412e-09
5.98051e-11
3.75038e-09
3.13938e-11
3.71662e-09
4.54986e-11
3.68019e-09
4.68952e-11
3.6637e-09
7.76144e-12
3.65164e-09
-5.91786e-12
3.6502e-09
-1.63463e-11
3.65916e-09
-4.63861e-11
3.67659e-09
-5.66754e-11
3.69066e-09
-4.29882e-11
3.70938e-09
-9.67034e-12
3.70093e-09
2.80273e-11
3.69468e-09
3.98206e-11
3.68235e-09
5.61445e-11
3.65443e-09
8.08294e-11
3.61466e-09
9.0159e-11
3.56118e-09
1.0245e-10
3.48498e-09
1.13568e-10
3.40397e-09
1.03612e-10
3.34931e-09
9.52068e-11
3.28718e-09
9.09859e-11
3.18166e-09
2.16318e-10
3.18696e-09
4.47477e-11
3.09345e-09
2.56796e-10
2.83653e-09
4.50172e-10
2.76022e-09
3.64663e-10
2.52027e-09
6.33489e-10
2.17768e-09
6.46621e-10
1.85538e-09
1.13957e-09
1.7284e-09
1.0337e-09
1.3257e-09
7.72442e-10
6.17559e-10
8.73034e-10
-4.09776e-16
7.6215e-10
-9.65858e-18
4.33975e-18
-1.12751e-17
1.27976e-18
-1.15556e-17
1.82514e-19
-1.13566e-17
-4.39759e-19
-1.08993e-17
-8.856e-19
-1.02658e-17
-1.22564e-18
-9.50379e-18
-1.48412e-18
-8.64901e-18
-1.67294e-18
-7.73156e-18
-1.80137e-18
-6.77804e-18
-1.87626e-18
-5.81214e-18
-1.90362e-18
-4.85478e-18
-1.88917e-18
-3.92407e-18
-1.83854e-18
-3.03528e-18
-1.75737e-18
-2.20089e-18
-1.65128e-18
-1.43059e-18
-1.5257e-18
-7.31488e-19
-1.3858e-18
-1.08254e-19
-1.23638e-18
4.36598e-19
-1.08173e-18
9.02448e-19
-9.25637e-19
1.29027e-18
-7.71293e-19
1.60235e-18
-6.21329e-19
1.84201e-18
-4.77821e-19
2.01335e-18
-3.42332e-19
2.12101e-18
-2.15971e-19
2.17001e-18
-9.94525e-20
2.16553e-18
6.83267e-21
2.11285e-18
1.02755e-19
2.01718e-18
1.88387e-19
1.88359e-18
2.63943e-19
1.71703e-18
3.29742e-19
1.52222e-18
3.86155e-19
1.30367e-18
4.33579e-19
1.0657e-18
4.72403e-19
8.1244e-19
5.02984e-19
5.47863e-19
5.25633e-19
2.75818e-19
5.40592e-19
5.48029e-19
6.99713e-10
-1.10553e-09
8.40152e-10
-1.03576e-09
9.22346e-10
-9.314e-10
1.07957e-09
-6.77321e-10
1.21303e-09
-4.3949e-10
1.25535e-09
-2.5309e-10
1.31734e-09
-2.26186e-10
1.37737e-09
-2.11622e-10
1.43675e-09
-2.29193e-10
1.51673e-09
-2.39251e-10
1.58092e-09
-2.91825e-10
1.66453e-09
-2.72854e-10
1.71465e-09
-2.47511e-10
1.76363e-09
-2.80062e-10
1.86219e-09
-2.83345e-10
1.99319e-09
-2.89868e-10
2.07856e-09
-3.33674e-10
2.16615e-09
-3.53614e-10
2.21786e-09
-3.04465e-10
2.2902e-09
-3.23731e-10
2.35135e-09
-3.01977e-10
2.43098e-09
-3.10985e-10
2.5235e-09
-2.58755e-10
2.60612e-09
-2.51374e-10
2.63808e-09
-2.14547e-10
2.68851e-09
-2.27582e-10
2.7031e-09
-1.59834e-10
2.77496e-09
-7.93855e-11
2.83353e-09
9.7889e-12
2.94122e-09
-7.15969e-11
2.87663e-09
1.39018e-10
3.02759e-09
-1.43858e-10
3.06591e-09
-8.37418e-11
3.16731e-09
-1.66028e-10
3.21518e-09
-1.14336e-10
3.24323e-09
-6.93336e-11
3.35983e-09
-1.85207e-10
3.37169e-09
-4.42481e-11
3.3353e-09
-1.15265e-10
3.36941e-09
-1.26731e-10
3.39528e-09
-1.09308e-10
3.40275e-09
-8.33089e-11
3.4649e-09
-1.07688e-10
3.4822e-09
-6.56502e-11
3.4826e-09
-4.20992e-11
3.47484e-09
-2.77104e-11
3.46394e-09
1.24494e-11
3.44462e-09
4.32044e-11
3.42592e-09
5.22082e-11
3.4049e-09
8.08251e-11
3.38131e-09
5.49873e-11
3.34234e-09
8.44718e-11
3.32225e-09
6.69876e-11
3.30428e-09
2.57318e-11
3.2869e-09
1.14653e-11
3.26248e-09
8.07509e-12
3.23552e-09
-1.94289e-11
3.19436e-09
-1.55125e-11
3.15299e-09
-1.62215e-12
3.13708e-09
6.24158e-12
3.12548e-09
3.96305e-11
3.11788e-09
4.74246e-11
3.10881e-09
6.52205e-11
3.09413e-09
9.5506e-11
3.07565e-09
1.08639e-10
3.06426e-09
1.13849e-10
3.05054e-09
1.2729e-10
3.02591e-09
1.28238e-10
2.99178e-09
1.2934e-10
2.93894e-09
1.43833e-10
2.84063e-09
3.14624e-10
2.74518e-09
1.40204e-10
2.66517e-09
3.3681e-10
2.42108e-09
6.94259e-10
2.2914e-09
4.94347e-10
1.9126e-09
1.01229e-09
1.72515e-09
8.3408e-10
1.71164e-09
1.15308e-09
1.40597e-09
1.33938e-09
6.06395e-10
1.57202e-09
1.64661e-10
1.31477e-09
-1.61217e-15
9.26815e-10
-1.27164e-17
1.55665e-18
-1.23708e-17
9.35683e-19
-1.21766e-17
-8.35595e-21
-1.18014e-17
-8.12797e-19
-1.12384e-17
-1.44666e-18
-1.05234e-17
-1.93785e-18
-9.69257e-18
-2.31158e-18
-8.77744e-18
-2.58434e-18
-7.80645e-18
-2.76851e-18
-6.8054e-18
-2.87337e-18
-5.79768e-18
-2.90732e-18
-4.80415e-18
-2.87861e-18
-3.8429e-18
-2.79562e-18
-2.92919e-18
-2.6669e-18
-2.07531e-18
-2.50098e-18
-1.2907e-18
-2.30617e-18
-5.82064e-19
-2.09038e-18
4.63906e-20
-1.8609e-18
5.92693e-19
-1.62426e-18
1.05679e-18
-1.38614e-18
1.44024e-18
-1.15136e-18
1.74586e-18
-9.2383e-19
1.9775e-18
-7.06608e-19
2.13971e-18
-5.01977e-19
2.23753e-18
-3.11527e-19
2.27629e-18
-1.36253e-19
2.26146e-18
2.33389e-20
2.19848e-18
1.67128e-19
2.09273e-18
2.9529e-19
1.94939e-18
4.08213e-19
1.77345e-18
5.06425e-19
1.56964e-18
5.90532e-19
1.34249e-18
6.61166e-19
1.09628e-18
7.18941e-19
8.35089e-19
7.6442e-19
5.62822e-19
7.98082e-19
2.83255e-19
8.20306e-19
8.31352e-19
3.40392e-10
-1.44592e-09
5.26757e-10
-1.22213e-09
6.08284e-10
-1.01293e-09
6.96145e-10
-7.65181e-10
7.77179e-10
-5.20525e-10
8.43701e-10
-3.19611e-10
9.12024e-10
-2.94509e-10
1.0021e-09
-3.01697e-10
1.08581e-09
-3.12903e-10
1.17523e-09
-3.28667e-10
1.22444e-09
-3.41042e-10
1.28892e-09
-3.37332e-10
1.35507e-09
-3.13663e-10
1.42356e-09
-3.48545e-10
1.4952e-09
-3.54987e-10
1.59269e-09
-3.87357e-10
1.65118e-09
-3.92162e-10
1.69142e-09
-3.93859e-10
1.71278e-09
-3.25819e-10
1.77415e-09
-3.85102e-10
1.80388e-09
-3.31708e-10
1.8381e-09
-3.45209e-10
1.85019e-09
-2.70847e-10
1.9325e-09
-3.33684e-10
1.97346e-09
-2.55504e-10
2.00882e-09
-2.62939e-10
2.05101e-09
-2.02027e-10
2.12296e-09
-1.51337e-10
2.23174e-09
-9.89906e-11
2.33215e-09
-1.7201e-10
2.46656e-09
4.60671e-12
2.59921e-09
-2.76503e-10
2.68358e-09
-1.68113e-10
2.77572e-09
-2.58167e-10
2.87846e-09
-2.17075e-10
2.98645e-09
-1.77324e-10
3.05506e-09
-2.53825e-10
3.11124e-09
-1.00427e-10
3.12559e-09
-1.29611e-10
3.15326e-09
-1.54401e-10
3.17045e-09
-1.26495e-10
3.18953e-09
-1.02391e-10
3.20136e-09
-1.19519e-10
3.21175e-09
-7.60413e-11
3.2041e-09
-3.44478e-11
3.18652e-09
-1.0129e-11
3.18117e-09
1.77956e-11
3.17071e-09
5.36734e-11
3.15601e-09
6.69024e-11
3.14354e-09
9.32984e-11
3.10425e-09
9.42772e-11
3.06567e-09
1.23048e-10
3.03538e-09
9.72811e-11
2.99047e-09
7.06461e-11
2.96726e-09
3.46782e-11
2.94994e-09
2.53937e-11
2.92571e-09
4.79891e-12
2.89233e-09
1.78707e-11
2.85559e-09
3.51154e-11
2.80937e-09
5.24718e-11
2.7772e-09
7.18011e-11
2.73985e-09
8.47744e-11
2.71411e-09
9.09571e-11
2.7101e-09
9.95192e-11
2.70663e-09
1.12112e-10
2.70643e-09
1.14049e-10
2.70673e-09
1.26998e-10
2.70916e-09
1.25803e-10
2.67613e-09
1.62376e-10
2.59578e-09
2.24188e-10
2.57947e-09
3.30932e-10
2.41383e-09
3.05849e-10
2.19911e-09
5.51536e-10
2.26382e-09
6.29549e-10
2.09695e-09
6.61221e-10
2.02148e-09
1.08776e-09
1.68601e-09
1.16956e-09
1.36891e-09
1.47018e-09
8.50561e-10
1.85773e-09
-2.18166e-10
2.64075e-09
-4.98574e-10
1.59518e-09
-1.99757e-15
4.28243e-10
-1.33353e-17
2.03873e-18
-1.33132e-17
9.14279e-19
-1.29798e-17
-3.36336e-19
-1.24343e-17
-1.35336e-18
-1.17287e-17
-2.14847e-18
-1.08965e-17
-2.76681e-18
-9.96532e-18
-3.23935e-18
-8.96161e-18
-3.58443e-18
-7.91132e-18
-3.81505e-18
-6.83935e-18
-3.94151e-18
-5.76897e-18
-3.97381e-18
-4.72117e-18
-3.92247e-18
-3.71419e-18
-3.79862e-18
-2.76326e-18
-3.61383e-18
-1.8805e-18
-3.37976e-18
-1.07491e-18
-3.10784e-18
-3.5258e-19
-2.80887e-18
2.83035e-19
-2.49279e-18
8.30807e-19
-2.16845e-18
1.29157e-18
-1.84351e-18
1.66777e-18
-1.52436e-18
1.96308e-18
-1.21615e-18
2.18213e-18
-9.22889e-19
2.33016e-18
-6.4748e-19
2.4128e-18
-3.91899e-19
2.43588e-18
-1.57325e-19
2.40525e-18
5.57153e-20
2.32665e-18
2.47204e-19
2.20566e-18
4.17507e-19
2.04761e-18
5.67259e-19
1.85755e-18
6.97266e-19
1.64028e-18
8.08422e-19
1.40027e-18
9.0164e-19
1.14176e-18
9.77796e-19
8.68751e-19
1.03768e-18
5.85046e-19
1.08198e-18
2.94301e-19
1.1112e-18
1.12572e-18
1.49609e-10
-1.59553e-09
3.15641e-10
-1.38816e-09
4.24069e-10
-1.12135e-09
5.14949e-10
-8.56061e-10
5.45507e-10
-5.51082e-10
5.97906e-10
-3.7201e-10
6.69499e-10
-3.66101e-10
7.67946e-10
-4.00143e-10
8.57072e-10
-4.02029e-10
9.23431e-10
-3.95025e-10
9.74304e-10
-3.91915e-10
1.02821e-09
-3.91241e-10
1.0798e-09
-3.65249e-10
1.13329e-09
-4.02037e-10
1.17928e-09
-4.00971e-10
1.21962e-09
-4.27704e-10
1.24423e-09
-4.16765e-10
1.27244e-09
-4.22071e-10
1.31281e-09
-3.66189e-10
1.36207e-09
-4.34368e-10
1.3543e-09
-3.23938e-10
1.4198e-09
-4.10706e-10
1.40433e-09
-2.55381e-10
1.55164e-09
-4.80995e-10
1.6e-09
-3.03864e-10
1.62204e-09
-2.84975e-10
1.70306e-09
-2.83044e-10
1.78131e-09
-2.29596e-10
1.89324e-09
-2.10922e-10
1.94201e-09
-2.20775e-10
2.15802e-09
-2.11404e-10
2.2155e-09
-3.33984e-10
2.42113e-09
-3.73739e-10
2.45546e-09
-2.92503e-10
2.62576e-09
-3.87376e-10
2.69994e-09
-2.515e-10
2.76965e-09
-3.23531e-10
2.82607e-09
-1.56851e-10
2.88633e-09
-1.89875e-10
2.96077e-09
-2.28831e-10
3.00514e-09
-1.70869e-10
3.03682e-09
-1.3407e-10
3.02587e-09
-1.08571e-10
3.00662e-09
-5.67898e-11
2.97815e-09
-5.97964e-12
2.95157e-09
1.64519e-11
2.937e-09
3.23709e-11
2.91115e-09
7.95183e-11
2.87772e-09
1.00334e-10
2.85894e-09
1.12083e-10
2.83711e-09
1.16101e-10
2.82018e-09
1.39986e-10
2.7904e-09
1.27063e-10
2.75087e-09
1.10177e-10
2.69476e-09
9.07848e-11
2.64798e-09
7.21743e-11
2.5943e-09
5.84845e-11
2.54649e-09
6.56833e-11
2.48146e-09
1.00144e-10
2.47628e-09
5.76497e-11
2.46866e-09
7.94243e-11
2.45536e-09
9.8076e-11
2.4453e-09
1.01022e-10
2.44118e-09
1.03635e-10
2.4363e-09
1.17e-10
2.41563e-09
1.34717e-10
2.38632e-09
1.56312e-10
2.36114e-09
1.50984e-10
2.35385e-09
1.69673e-10
2.28379e-09
2.94249e-10
2.28264e-09
3.32079e-10
2.13869e-09
4.49806e-10
2.03105e-09
6.59178e-10
1.90233e-09
7.58272e-10
1.70231e-09
8.61242e-10
1.51265e-09
1.27742e-09
1.37709e-09
1.30512e-09
1.14067e-09
1.7066e-09
8.87001e-10
2.11141e-09
9.37501e-10
2.59025e-09
8.57212e-11
2.44696e-09
3.45774e-15
5.1396e-10
-1.44575e-17
5.21402e-18
-1.45623e-17
1.01935e-18
-1.39957e-17
-9.02704e-19
-1.32285e-17
-2.11753e-18
-1.23464e-17
-3.02692e-18
-1.13685e-17
-3.74103e-18
-1.03104e-17
-4.29383e-18
-9.19224e-18
-4.69888e-18
-8.03777e-18
-4.96576e-18
-6.87165e-18
-5.10383e-18
-5.71763e-18
-5.124e-18
-4.59732e-18
-5.03893e-18
-3.52939e-18
-4.86267e-18
-2.5292e-18
-4.61015e-18
-1.60858e-18
-4.29655e-18
-7.7594e-19
-3.9367e-18
-3.65001e-20
-3.54463e-18
6.07373e-19
-3.1331e-18
1.15575e-18
-2.71342e-18
1.61073e-18
-2.29523e-18
1.97597e-18
-1.88653e-18
2.25635e-18
-1.49364e-18
2.45754e-18
-1.12138e-18
2.58574e-18
-7.73166e-19
2.64738e-18
-4.51231e-19
2.64892e-18
-1.56793e-19
2.59673e-18
1.09736e-19
2.49695e-18
3.48569e-19
2.35541e-18
5.60377e-19
2.17761e-18
7.46141e-19
1.96871e-18
9.07034e-19
1.7335e-18
1.04431e-18
1.47643e-18
1.15922e-18
1.20165e-18
1.25295e-18
9.13043e-19
1.32656e-18
6.14272e-19
1.38095e-18
3.08822e-19
1.41681e-18
1.43462e-18
1.08382e-10
-1.70392e-09
2.05588e-10
-1.48536e-09
2.7473e-10
-1.1905e-09
3.20545e-10
-9.01875e-10
4.46011e-10
-6.76547e-10
5.52867e-10
-4.78866e-10
6.13349e-10
-4.26582e-10
6.71841e-10
-4.58635e-10
7.30608e-10
-4.60796e-10
7.72582e-10
-4.36998e-10
8.02439e-10
-4.21772e-10
8.42532e-10
-4.31334e-10
8.90141e-10
-4.12857e-10
9.23973e-10
-4.35869e-10
9.58907e-10
-4.35905e-10
9.80649e-10
-4.49446e-10
9.92278e-10
-4.28395e-10
9.97645e-10
-4.27438e-10
1.0561e-09
-4.24646e-10
1.06562e-09
-4.43887e-10
1.12652e-09
-3.84835e-10
1.11559e-09
-3.99782e-10
1.27262e-09
-4.12403e-10
1.23579e-09
-4.44168e-10
1.3248e-09
-3.92879e-10
1.4206e-09
-3.80773e-10
1.49016e-09
-3.52603e-10
1.57715e-09
-3.16589e-10
1.70442e-09
-3.38191e-10
1.8329e-09
-3.49257e-10
1.99271e-09
-3.71213e-10
2.0752e-09
-4.16478e-10
2.21746e-09
-5.1599e-10
2.26891e-09
-3.43953e-10
2.46764e-09
-5.86107e-10
2.49832e-09
-2.82184e-10
2.64977e-09
-4.74984e-10
2.69822e-09
-2.05297e-10
2.76821e-09
-2.59866e-10
2.87702e-09
-3.37644e-10
2.87379e-09
-1.67633e-10
2.86913e-09
-1.29411e-10
2.85143e-09
-9.08749e-11
2.81043e-09
-1.57869e-11
2.77036e-09
3.40898e-11
2.73744e-09
4.93759e-11
2.71504e-09
5.47671e-11
2.6776e-09
1.16958e-10
2.65655e-09
1.21391e-10
2.61677e-09
1.51856e-10
2.5764e-09
1.56473e-10
2.53973e-09
1.76664e-10
2.50443e-09
1.62356e-10
2.47565e-09
1.3896e-10
2.41719e-09
1.4925e-10
2.36201e-09
1.27353e-10
2.31664e-09
1.03852e-10
2.27142e-09
1.10909e-10
2.22514e-09
1.46429e-10
2.21554e-09
6.72425e-11
2.18557e-09
1.09401e-10
2.16283e-09
1.20817e-10
2.1584e-09
1.05451e-10
2.14648e-09
1.15552e-10
2.13139e-09
1.32096e-10
2.11476e-09
1.51347e-10
2.10248e-09
1.68598e-10
2.08806e-09
1.65404e-10
2.10698e-09
1.50753e-10
2.05307e-09
3.48162e-10
2.00886e-09
3.7629e-10
1.92571e-09
5.32961e-10
1.99686e-09
5.88031e-10
1.90171e-09
8.53431e-10
1.65239e-09
1.11056e-09
1.34749e-09
1.58232e-09
9.08933e-10
1.74369e-09
3.5776e-10
2.25778e-09
3.93496e-12
2.46523e-09
-1.70162e-10
2.76435e-09
-4.71931e-10
2.74874e-09
-8.99709e-16
4.20432e-11
-1.86502e-17
-3.3328e-19
-1.64831e-17
-1.14506e-18
-1.52096e-17
-2.17398e-18
-1.41372e-17
-3.18707e-18
-1.30599e-17
-4.10066e-18
-1.19209e-17
-4.8763e-18
-1.07154e-17
-5.49549e-18
-9.45912e-18
-5.95135e-18
-8.17584e-18
-6.24519e-18
-6.89182e-18
-6.384e-18
-5.63256e-18
-6.37943e-18
-4.42106e-18
-6.2466e-18
-3.27688e-18
-6.00305e-18
-2.2156e-18
-5.66766e-18
-1.24873e-18
-5.25969e-18
-3.83861e-19
-4.79792e-18
3.75027e-19
-4.29995e-18
1.02706e-18
-3.78169e-18
1.57394e-18
-3.257e-18
2.01943e-18
-2.7376e-18
2.36886e-18
-2.23299e-18
2.62861e-18
-1.7506e-18
2.80575e-18
-1.29588e-18
2.90768e-18
-8.726e-19
2.94182e-18
-4.83045e-19
2.91545e-18
-1.28292e-19
2.83557e-18
1.91542e-19
2.70876e-18
4.77064e-19
2.54117e-18
7.29397e-19
2.3385e-18
9.49996e-19
2.10598e-18
1.14051e-18
1.84841e-18
1.30263e-18
1.57016e-18
1.43803e-18
1.27526e-18
1.54826e-18
9.67431e-19
1.63469e-18
6.50133e-19
1.69846e-18
3.26633e-19
1.74048e-18
1.76133e-18
5.55597e-11
-1.75947e-09
8.96797e-11
-1.51948e-09
1.67236e-10
-1.26805e-09
1.96725e-10
-9.31363e-10
3.02835e-10
-7.82657e-10
4.65167e-10
-6.41197e-10
5.59663e-10
-5.21077e-10
6.20278e-10
-5.1925e-10
6.57702e-10
-4.9822e-10
6.96396e-10
-4.75692e-10
7.1604e-10
-4.41415e-10
7.29736e-10
-4.4503e-10
7.5867e-10
-4.41791e-10
7.79011e-10
-4.5621e-10
8.05788e-10
-4.62682e-10
8.2139e-10
-4.65048e-10
8.44235e-10
-4.51239e-10
8.68693e-10
-4.51896e-10
9.05871e-10
-4.61824e-10
9.13659e-10
-4.51676e-10
9.63073e-10
-4.34249e-10
9.53554e-10
-3.90264e-10
1.10936e-09
-5.68209e-10
1.10974e-09
-4.44543e-10
1.16116e-09
-4.44306e-10
1.21258e-09
-4.32188e-10
1.29352e-09
-4.33543e-10
1.41091e-09
-4.33986e-10
1.52694e-09
-4.54215e-10
1.66566e-09
-4.87978e-10
1.789e-09
-4.94556e-10
1.91804e-09
-5.4552e-10
2.03871e-09
-6.36653e-10
2.13339e-09
-4.38639e-10
2.3679e-09
-8.20617e-10
2.42338e-09
-3.37666e-10
2.59308e-09
-6.44681e-10
2.65324e-09
-2.65457e-10
2.73557e-09
-3.422e-10
2.80809e-09
-4.10162e-10
2.81387e-09
-1.73413e-10
2.79661e-09
-1.12147e-10
2.77181e-09
-6.60782e-11
2.73108e-09
2.49427e-11
2.68223e-09
8.29405e-11
2.62769e-09
1.0392e-10
2.56044e-09
1.22016e-10
2.50923e-09
1.68175e-10
2.46402e-09
1.66597e-10
2.42173e-09
1.94148e-10
2.36777e-09
2.10432e-10
2.32865e-09
2.15782e-10
2.2691e-09
2.21913e-10
2.22809e-09
1.7997e-10
2.17946e-09
1.97875e-10
2.13251e-09
1.74308e-10
2.09567e-09
1.40692e-10
2.03747e-09
1.69107e-10
1.99694e-09
1.86967e-10
1.95498e-09
1.09198e-10
1.91851e-09
1.4587e-10
1.89556e-09
1.43768e-10
1.89461e-09
1.06405e-10
1.89468e-09
1.15489e-10
1.86208e-09
1.64699e-10
1.85934e-09
1.54086e-10
1.86058e-09
1.67358e-10
1.88974e-09
1.3625e-10
1.93037e-09
1.10121e-10
1.93041e-09
3.48121e-10
1.87247e-09
4.34232e-10
1.81223e-09
5.93207e-10
1.72835e-09
6.71913e-10
1.52221e-09
1.05957e-09
1.25704e-09
1.37573e-09
1.17211e-09
1.66726e-09
7.83414e-10
2.13238e-09
4.98741e-10
2.54245e-09
1.56123e-10
2.80785e-09
-2.727e-10
3.19317e-09
-4.20429e-11
2.51808e-09
-2.3889e-17
-1.37737e-17
-1.94621e-17
-4.76017e-18
-1.75115e-17
-3.09265e-18
-1.62221e-17
-3.46e-18
-1.50503e-17
-4.35553e-18
-1.38352e-17
-5.31214e-18
-1.25399e-17
-6.16775e-18
-1.11713e-17
-6.86013e-18
-9.75296e-18
-7.36572e-18
-8.31466e-18
-7.6795e-18
-6.88725e-18
-7.80745e-18
-5.49973e-18
-7.76305e-18
-4.17751e-18
-7.56497e-18
-2.94149e-18
-7.23527e-18
-1.80763e-18
-6.79778e-18
-7.86965e-19
-6.2767e-18
1.14109e-19
-5.69543e-18
8.93296e-19
-5.07567e-18
1.55174e-18
-4.43677e-18
2.09334e-18
-3.79537e-18
2.52403e-18
-3.16525e-18
2.85126e-18
-2.55734e-18
3.08333e-18
-1.97996e-18
3.22903e-18
-1.43901e-18
3.29723e-18
-9.38348e-19
3.29657e-18
-4.80059e-19
3.23529e-18
-6.48334e-20
3.12109e-18
3.07733e-19
2.96109e-18
6.38845e-19
2.76177e-18
9.30254e-19
2.52901e-18
1.18404e-18
2.26811e-18
1.40246e-18
1.98381e-18
1.58774e-18
1.68038e-18
1.74207e-18
1.36169e-18
1.86741e-18
1.03121e-18
1.9655e-18
6.92147e-19
2.03777e-18
3.47489e-19
2.08532e-18
2.10891e-18
1.30121e-11
-1.77249e-09
-2.88213e-11
-1.47765e-09
-6.48555e-11
-1.23202e-09
1.20034e-10
-1.11625e-09
2.78917e-10
-9.41539e-10
4.19965e-10
-7.82245e-10
5.23234e-10
-6.24345e-10
5.9381e-10
-5.89826e-10
6.1297e-10
-5.1738e-10
6.39576e-10
-5.02297e-10
6.58113e-10
-4.59953e-10
6.61758e-10
-4.48675e-10
6.78117e-10
-4.58149e-10
6.85951e-10
-4.64044e-10
6.98457e-10
-4.75188e-10
7.15987e-10
-4.82577e-10
7.40929e-10
-4.76182e-10
7.65022e-10
-4.75988e-10
7.95053e-10
-4.91855e-10
8.34945e-10
-4.91568e-10
8.67769e-10
-4.67072e-10
9.75781e-10
-4.98276e-10
9.23804e-10
-5.16233e-10
9.6794e-10
-4.88679e-10
1.03999e-09
-5.16352e-10
1.12963e-09
-5.21827e-10
1.21371e-09
-5.17628e-10
1.29435e-09
-5.14628e-10
1.40569e-09
-5.65555e-10
1.51583e-09
-5.98122e-10
1.67337e-09
-6.52088e-10
1.79899e-09
-6.71148e-10
1.97118e-09
-8.08844e-10
2.08674e-09
-5.54196e-10
2.33375e-09
-1.06763e-09
2.45112e-09
-4.55032e-10
2.59398e-09
-7.87542e-10
2.6359e-09
-3.07375e-10
2.81556e-09
-5.21857e-10
2.78851e-09
-3.83117e-10
2.83495e-09
-2.19856e-10
2.8108e-09
-8.79916e-11
2.76946e-09
-2.47396e-11
2.71908e-09
7.53196e-11
2.65156e-09
1.50469e-10
2.57927e-09
1.7621e-10
2.49698e-09
2.04304e-10
2.43661e-09
2.28543e-10
2.36473e-09
2.38484e-10
2.30379e-09
2.5508e-10
2.24801e-09
2.66213e-10
2.18292e-09
2.80872e-10
2.13839e-09
2.6645e-10
2.06846e-09
2.49895e-10
2.00162e-09
2.6472e-10
1.9566e-09
2.19328e-10
1.91026e-09
1.87039e-10
1.87123e-09
2.0813e-10
1.83892e-09
2.19277e-10
1.81169e-09
1.36435e-10
1.78135e-09
1.7621e-10
1.75853e-09
1.66587e-10
1.76236e-09
1.02576e-10
1.80813e-09
6.97201e-11
1.70003e-09
2.72803e-10
1.71786e-09
1.36253e-10
1.74816e-09
1.37065e-10
1.76209e-09
1.22323e-10
1.78869e-09
8.3517e-11
1.85682e-09
2.79993e-10
1.79192e-09
4.9914e-10
1.87708e-09
5.08046e-10
1.66391e-09
8.85084e-10
1.51456e-09
1.20893e-09
1.35824e-09
1.53205e-09
1.21271e-09
1.81279e-09
1.01255e-09
2.33255e-09
8.18417e-10
2.73659e-09
5.75864e-10
3.05041e-09
4.26006e-10
3.34304e-09
-5.74774e-16
2.94409e-09
-1.48735e-17
4.3873e-19
-1.7795e-17
-1.83832e-18
-1.78787e-17
-3.0064e-18
-1.71174e-17
-4.21803e-18
-1.60066e-17
-5.46276e-18
-1.46906e-17
-6.62441e-18
-1.32322e-17
-7.62224e-18
-1.16769e-17
-8.41144e-18
-1.00667e-17
-8.97179e-18
-8.44262e-18
-9.29951e-18
-6.84285e-18
-9.40313e-18
-5.30164e-18
-9.30024e-18
-3.8478e-18
-9.01488e-18
-2.50399e-18
-8.57523e-18
-1.28655e-18
-8.01147e-18
-2.05695e-19
-7.35389e-18
7.33869e-19
-6.63144e-18
1.53219e-18
-5.87055e-18
2.19314e-18
-5.09439e-18
2.72346e-18
-4.32251e-18
3.13194e-18
-3.57071e-18
3.42864e-18
-2.85121e-18
3.62427e-18
-2.17293e-18
3.7297e-18
-1.54192e-18
3.75552e-18
-9.61767e-19
3.71179e-18
-4.34031e-19
3.60785e-18
4.12981e-20
3.4522e-18
4.65427e-19
3.2525e-18
8.40405e-19
3.01556e-18
1.16882e-18
2.74742e-18
1.45357e-18
2.4534e-18
1.69762e-18
2.13813e-18
1.90391e-18
1.80573e-18
2.07516e-18
1.45977e-18
2.21387e-18
1.10348e-18
2.32216e-18
7.39702e-19
2.40181e-18
3.7108e-19
2.45415e-18
2.4801e-18
-3.76199e-13
-1.77211e-09
4.62975e-11
-1.52432e-09
1.66744e-10
-1.35246e-09
2.70067e-10
-1.21957e-09
3.48252e-10
-1.01972e-09
4.5788e-10
-8.91873e-10
5.3646e-10
-7.02924e-10
5.7396e-10
-6.27325e-10
5.98726e-10
-5.42146e-10
6.05219e-10
-5.0879e-10
6.15515e-10
-4.70248e-10
6.17152e-10
-4.50312e-10
6.16742e-10
-4.57739e-10
6.1621e-10
-4.63513e-10
6.17567e-10
-4.76544e-10
6.33466e-10
-4.98476e-10
6.63791e-10
-5.06508e-10
6.92103e-10
-5.043e-10
7.17588e-10
-5.1734e-10
7.45214e-10
-5.19195e-10
8.06203e-10
-5.28061e-10
8.26428e-10
-5.18501e-10
8.55255e-10
-5.4506e-10
9.1883e-10
-5.52254e-10
9.71259e-10
-5.68781e-10
1.02528e-09
-5.75851e-10
1.11457e-09
-6.06911e-10
1.21407e-09
-6.14128e-10
1.33252e-09
-6.84013e-10
1.45371e-09
-7.19306e-10
1.59335e-09
-7.91732e-10
1.73851e-09
-8.16307e-10
1.8963e-09
-9.66636e-10
2.08539e-09
-7.43282e-10
2.28139e-09
-1.26363e-09
2.47432e-09
-6.4797e-10
2.59452e-09
-9.0774e-10
2.72738e-09
-4.40234e-10
2.84876e-09
-6.43234e-10
2.8197e-09
-3.54058e-10
2.85077e-09
-2.50923e-10
2.83123e-09
-6.84536e-11
2.77853e-09
2.79578e-11
2.72385e-09
1.30003e-10
2.64993e-09
2.24389e-10
2.5729e-09
2.53239e-10
2.48953e-09
2.87671e-10
2.40699e-09
3.1109e-10
2.31493e-09
3.30545e-10
2.23984e-09
3.30167e-10
2.17475e-09
3.31301e-10
2.10871e-09
3.46917e-10
2.03421e-09
3.40945e-10
1.98416e-09
2.99947e-10
1.91778e-09
3.31105e-10
1.902e-09
2.35108e-10
1.84173e-09
2.47313e-10
1.76524e-09
2.84618e-10
1.7599e-09
2.24613e-10
1.71791e-09
1.78427e-10
1.6835e-09
2.10623e-10
1.66401e-09
1.86079e-10
1.65919e-09
1.07399e-10
1.67181e-09
5.71034e-11
1.69388e-09
2.50734e-10
1.7509e-09
7.92296e-11
1.78868e-09
9.92859e-11
1.79375e-09
1.17257e-10
1.74649e-09
1.30783e-10
1.6477e-09
3.78785e-10
1.69612e-09
4.50723e-10
1.67868e-09
5.25486e-10
1.48568e-09
1.07809e-09
1.35942e-09
1.33519e-09
1.2238e-09
1.66768e-09
1.0375e-09
1.99909e-09
9.48917e-10
2.42113e-09
8.48328e-10
2.83718e-09
6.93845e-10
3.2049e-09
4.18415e-10
3.61847e-09
-5.82308e-16
3.36251e-09
-1.71502e-17
5.02145e-18
-1.8963e-17
-2.4295e-20
-1.90902e-17
-2.87683e-18
-1.8362e-17
-4.94327e-18
-1.71682e-17
-6.65319e-18
-1.56885e-17
-8.10052e-18
-1.40216e-17
-9.28537e-18
-1.22372e-17
-1.01918e-17
-1.03945e-17
-1.08105e-17
-8.54624e-18
-1.11436e-17
-6.73996e-18
-1.12052e-17
-5.01628e-18
-1.10198e-17
-3.40815e-18
-1.0619e-17
-1.94023e-18
-1.00392e-17
-6.28976e-19
-9.3189e-18
5.16755e-19
-8.49593e-18
1.49476e-18
-7.60589e-18
2.30835e-18
-6.68069e-18
2.96502e-18
-5.74773e-18
3.47526e-18
-4.82956e-18
3.85144e-18
-3.94387e-18
4.10691e-18
-3.10385e-18
4.25528e-18
-2.31867e-18
4.30986e-18
-1.59403e-18
4.28326e-18
-9.32812e-19
4.18712e-18
-3.35632e-19
4.03198e-18
1.98619e-19
3.82718e-18
6.72294e-19
3.58092e-18
1.08858e-18
3.30031e-18
1.45114e-18
2.99148e-18
1.76387e-18
2.65968e-18
2.03065e-18
2.30939e-18
2.25518e-18
1.94443e-18
2.44088e-18
1.56807e-18
2.59079e-18
1.18312e-18
2.70752e-18
7.92043e-19
2.79319e-18
3.97026e-19
2.8494e-18
2.87724e-18
-2.12432e-11
-1.75087e-09
-4.14263e-11
-1.50414e-09
-4.40184e-11
-1.34987e-09
1.04906e-10
-1.3685e-09
2.86798e-10
-1.20162e-09
4.30429e-10
-1.0355e-09
5.45273e-10
-8.17767e-10
5.71516e-10
-6.53569e-10
5.84577e-10
-5.55206e-10
5.78264e-10
-5.02477e-10
5.81532e-10
-4.73516e-10
5.89683e-10
-4.58463e-10
5.87614e-10
-4.5567e-10
5.88474e-10
-4.64373e-10
5.90528e-10
-4.78598e-10
5.89921e-10
-4.97869e-10
5.95231e-10
-5.11818e-10
6.26383e-10
-5.35453e-10
6.62725e-10
-5.53681e-10
7.06929e-10
-5.63399e-10
7.37331e-10
-5.58463e-10
7.90246e-10
-5.71417e-10
8.26848e-10
-5.81662e-10
8.60851e-10
-5.86257e-10
9.10764e-10
-6.18694e-10
9.7992e-10
-6.45007e-10
1.06484e-09
-6.91827e-10
1.17243e-09
-7.21726e-10
1.26783e-09
-7.79408e-10
1.40398e-09
-8.55456e-10
1.53006e-09
-9.1781e-10
1.7182e-09
-1.00446e-09
1.83358e-09
-1.08201e-09
2.09696e-09
-1.00666e-09
2.17122e-09
-1.33788e-09
2.48403e-09
-9.60789e-10
2.54262e-09
-9.66324e-10
2.76453e-09
-6.62143e-10
2.8205e-09
-6.99205e-10
2.89084e-09
-4.24394e-10
2.84533e-09
-2.05419e-10
2.84297e-09
-6.6088e-11
2.79717e-09
7.37498e-11
2.72573e-09
2.01449e-10
2.64291e-09
3.07205e-10
2.55364e-09
3.42512e-10
2.4611e-09
3.80214e-10
2.3674e-09
4.04795e-10
2.28073e-09
4.17211e-10
2.19759e-09
4.13307e-10
2.11629e-09
4.12599e-10
2.05541e-09
4.07803e-10
1.97916e-09
4.17198e-10
1.94945e-09
3.29651e-10
1.87897e-09
4.01594e-10
1.83534e-09
2.78733e-10
1.7585e-09
3.24155e-10
1.69645e-09
3.46673e-10
1.69281e-09
2.28254e-10
1.67232e-09
1.98919e-10
1.61533e-09
2.67609e-10
1.59866e-09
2.02756e-10
1.58045e-09
1.25603e-10
1.53875e-09
9.88077e-11
1.64993e-09
1.39561e-10
1.67911e-09
5.00511e-11
1.72893e-09
4.94633e-11
1.76808e-09
7.81059e-11
1.73071e-09
1.68162e-10
1.69438e-09
4.1511e-10
1.74561e-09
3.99494e-10
1.56413e-09
7.0697e-10
1.4441e-09
1.19813e-09
1.19247e-09
1.58682e-09
1.00738e-09
1.85277e-09
7.9826e-10
2.20822e-09
7.24377e-10
2.49502e-09
6.78905e-10
2.88266e-09
4.39474e-10
3.44433e-09
1.74942e-10
3.883e-09
-4.71116e-16
3.53745e-09
-2.21947e-17
4.00969e-18
-2.1815e-17
-4.02641e-19
-2.11564e-17
-3.53327e-18
-2.00718e-17
-6.02523e-18
-1.86156e-17
-8.10643e-18
-1.68736e-17
-9.8393e-18
-1.49283e-17
-1.12272e-17
-1.2856e-17
-1.22603e-17
-1.07275e-17
-1.2935e-17
-8.60791e-18
-1.32591e-17
-6.55451e-18
-1.32545e-17
-4.61547e-18
-1.29547e-17
-2.8284e-18
-1.24019e-17
-1.21991e-18
-1.16437e-17
1.93995e-19
-1.07289e-17
1.40679e-18
-9.70497e-18
2.41996e-18
-8.61545e-18
3.24131e-18
-7.49856e-18
3.8832e-18
-6.38627e-18
4.36095e-18
-5.30409e-18
4.69146e-18
-4.27132e-18
4.8921e-18
-3.30163e-18
4.97992e-18
-2.40384e-18
4.97107e-18
-1.58273e-18
4.88044e-18
-8.3986e-19
4.72137e-18
-1.74348e-19
4.50566e-18
4.16487e-19
4.24346e-18
9.36549e-19
3.94348e-18
1.3905e-18
3.61304e-18
1.78335e-18
3.25825e-18
2.1202e-18
2.88421e-18
2.406e-18
2.49509e-18
2.64535e-18
2.09435e-18
2.84245e-18
1.6848e-18
3.00096e-18
1.26879e-18
3.124e-18
8.48254e-19
3.21406e-18
4.24865e-19
3.27306e-18
3.30224e-18