/*--------------------------------*- C++ -*----------------------------------*\
  =========                 |
  \\      /  F ield         | OpenFOAM: The Open Source CFD Toolbox
   \\    /   O peration     | Website:  https://openfoam.org
    \\  /    A nd           | Version:  6
     \\/     M anipulation  |
\*---------------------------------------------------------------------------*/
FoamFile
{
    version     2.0;
    format      ascii;
    class       volScalarField;
    location    "2400";
    object      Su;
}
// * * * * * * * * * * * * * * * * * * * * * * * * * * * * * * * * * * * * * //

dimensions      [0 0 -1 0 0 0 0];

internalField   nonuniform List<scalar> 
4800
(
0.219408
0.21705
0.214696
0.21232
0.209912
0.20748
0.205033
0.202582
0.200138
0.197714
0.195317
0.192955
0.190633
0.188357
0.186132
0.183961
0.181851
0.179803
0.177818
0.175894
0.174032
0.172231
0.17049
0.168807
0.167183
0.165616
0.164102
0.16264
0.161226
0.159861
0.158548
0.157288
0.15608
0.154925
0.153819
0.152758
0.15174
0.15076
0.149814
0.148896
0.148003
0.147128
0.146268
0.145417
0.144568
0.143716
0.142855
0.141978
0.141081
0.140159
0.139207
0.13822
0.137194
0.136124
0.135007
0.133836
0.132608
0.131315
0.12995
0.128505
0.126969
0.125334
0.123587
0.121716
0.119703
0.117531
0.115175
0.112609
0.109797
0.106698
0.103262
0.0994342
0.0951557
0.0903593
0.0849929
0.0790218
0.0724494
0.0653138
0.0577525
0.0500706
0.0425875
0.0355583
0.029144
0.0233843
0.018145
0.0133009
0.00874819
0.00440982
0.000231607
-0.00382377
-0.00778212
-0.0116618
-0.015476
-0.0192347
-0.0229453
-0.0266139
-0.0302453
-0.0338435
-0.0374117
-0.040953
-0.0444697
-0.0479641
-0.0514379
-0.054893
-0.0583309
-0.0617531
-0.0651607
-0.0685551
-0.0719374
-0.0753087
-0.0786701
-0.0820226
-0.0853671
-0.0887048
-0.0920365
-0.0953631
-0.0986856
-0.102005
-0.105322
-0.108638
0.2194
0.217014
0.214617
0.212203
0.209767
0.207308
0.204838
0.202367
0.199906
0.197467
0.195055
0.192681
0.190348
0.188062
0.185829
0.183651
0.181532
0.179476
0.177485
0.175558
0.173695
0.171893
0.170154
0.168474
0.166854
0.165291
0.163785
0.162332
0.160929
0.159576
0.158274
0.157023
0.155825
0.154679
0.153582
0.152529
0.151517
0.150543
0.149602
0.14869
0.147802
0.146933
0.146075
0.145225
0.144376
0.143524
0.142661
0.141783
0.140884
0.139958
0.139001
0.138008
0.136974
0.135895
0.134767
0.133584
0.132342
0.131035
0.129656
0.128196
0.126647
0.124998
0.123238
0.121353
0.119327
0.11714
0.114769
0.112185
0.109356
0.106239
0.102786
0.0989426
0.0946549
0.0898513
0.0844866
0.0785326
0.0719775
0.0648894
0.0573915
0.0496932
0.0420952
0.0349702
0.0285869
0.0229433
0.0178265
0.0130815
0.0085997
0.00430899
0.000161773
-0.00387376
-0.00781945
-0.011691
-0.0154999
-0.0192549
-0.0229631
-0.0266299
-0.0302598
-0.0338568
-0.0374241
-0.0409644
-0.0444803
-0.0479739
-0.051447
-0.0549014
-0.0583386
-0.06176
-0.065167
-0.0685608
-0.0719425
-0.0753133
-0.0786741
-0.0820261
-0.0853702
-0.0887074
-0.0920386
-0.0953649
-0.098687
-0.102006
-0.105323
-0.108638
0.219374
0.216924
0.214452
0.211966
0.209471
0.206964
0.204453
0.201947
0.199456
0.196989
0.194552
0.192154
0.1898
0.187494
0.185245
0.183055
0.180926
0.178861
0.176861
0.174927
0.17306
0.171258
0.169521
0.167848
0.166235
0.164681
0.163186
0.161749
0.160364
0.159031
0.157749
0.156515
0.155335
0.154205
0.153123
0.152086
0.151088
0.150127
0.149196
0.148293
0.147413
0.14655
0.145699
0.144854
0.144008
0.143156
0.142293
0.141412
0.140508
0.139576
0.138611
0.137608
0.136561
0.135466
0.13432
0.133117
0.131852
0.13052
0.129113
0.127626
0.12605
0.124374
0.122588
0.120677
0.118627
0.116416
0.114023
0.111418
0.108567
0.105428
0.101954
0.098086
0.0937785
0.0889654
0.0835916
0.0776313
0.0710698
0.0639792
0.0564217
0.0485536
0.0407508
0.0335579
0.0273935
0.0220596
0.0172165
0.0126731
0.00832754
0.0041251
3.39738e-05
-0.00396608
-0.00788923
-0.0117463
-0.0155456
-0.0192942
-0.0229978
-0.0266612
-0.0302885
-0.0338833
-0.0374486
-0.0409872
-0.0445014
-0.0479934
-0.051465
-0.0549179
-0.0583538
-0.0617739
-0.0651796
-0.0685722
-0.0719528
-0.0753224
-0.0786822
-0.0820332
-0.0853763
-0.0887126
-0.092043
-0.0953684
-0.0986897
-0.102008
-0.105324
-0.108638
0.219317
0.216763
0.214197
0.211625
0.209054
0.206484
0.203918
0.201366
0.198835
0.19633
0.193859
0.191429
0.189047
0.186717
0.184445
0.182236
0.180092
0.178013
0.176004
0.174064
0.172194
0.170392
0.168659
0.166991
0.165389
0.163849
0.162369
0.160949
0.159584
0.158271
0.157013
0.1558
0.15464
0.15353
0.152468
0.15145
0.150471
0.149529
0.148615
0.147726
0.146859
0.146007
0.145164
0.144326
0.143484
0.142634
0.141769
0.140885
0.139976
0.139036
0.138059
0.137041
0.135977
0.134861
0.133691
0.132461
0.131167
0.129802
0.128363
0.12684
0.125227
0.123515
0.121693
0.119747
0.117663
0.115421
0.112997
0.110364
0.107488
0.104326
0.100833
0.0969473
0.0926222
0.0878062
0.0824389
0.0764857
0.069907
0.0627313
0.0550045
0.0468423
0.0385932
0.0310717
0.0254822
0.0207768
0.0163919
0.0121437
0.007981
0.00389079
-0.000131107
-0.00408796
-0.00798372
-0.011823
-0.0156106
-0.019351
-0.0230487
-0.0267075
-0.0303311
-0.0339227
-0.0374852
-0.0410212
-0.0445329
-0.0480226
-0.051492
-0.0549428
-0.0583765
-0.0617947
-0.0651985
-0.0685892
-0.0719681
-0.0753361
-0.0786943
-0.0820438
-0.0853855
-0.0887204
-0.0920495
-0.0953736
-0.0986937
-0.102011
-0.105326
-0.108639
0.219251
0.216571
0.213894
0.211224
0.208566
0.20592
0.203289
0.200679
0.198095
0.195543
0.193028
0.190558
0.18814
0.185779
0.18348
0.181247
0.179083
0.176992
0.174974
0.173028
0.171158
0.169358
0.16763
0.16597
0.164381
0.162855
0.16139
0.159986
0.158639
0.157344
0.156104
0.154911
0.153772
0.152683
0.151641
0.150646
0.149689
0.148769
0.147875
0.147005
0.146156
0.145319
0.144488
0.143658
0.142821
0.141973
0.141107
0.140219
0.139301
0.13835
0.137359
0.136324
0.135239
0.134098
0.132899
0.131637
0.130307
0.128905
0.127425
0.125861
0.124206
0.122452
0.120588
0.118601
0.116476
0.114195
0.111735
0.109069
0.106166
0.102985
0.0994772
0.0955867
0.0912627
0.0864453
0.0810749
0.0751133
0.0685159
0.0612804
0.053403
0.0449014
0.0357634
0.0267232
0.0228133
0.0192758
0.0155214
0.011609
0.00763206
0.00364948
-0.000307541
-0.00422397
-0.00809378
-0.0119159
-0.0156916
-0.0194235
-0.0231146
-0.0267682
-0.0303874
-0.0339751
-0.0375339
-0.0410665
-0.0445751
-0.0480616
-0.051528
-0.0549759
-0.0584069
-0.0618223
-0.0652236
-0.0686119
-0.0719884
-0.0753542
-0.0787103
-0.0820578
-0.0853976
-0.0887307
-0.0920581
-0.0953805
-0.0986991
-0.102015
-0.105328
-0.10864
0.21918
0.216364
0.213562
0.210781
0.208027
0.205301
0.202598
0.19992
0.197273
0.194663
0.192095
0.189578
0.187119
0.184722
0.182392
0.180134
0.177951
0.175845
0.173818
0.171868
0.169998
0.168201
0.166479
0.164827
0.163247
0.161733
0.160282
0.158892
0.157559
0.15628
0.155055
0.15388
0.152757
0.151688
0.150666
0.149695
0.148761
0.147866
0.146995
0.146147
0.145318
0.144499
0.143683
0.142864
0.142034
0.141188
0.14032
0.139426
0.1385
0.137535
0.136528
0.135471
0.134361
0.133193
0.131961
0.130663
0.129294
0.12785
0.126326
0.124714
0.123012
0.121209
0.119296
0.117263
0.115094
0.112771
0.110274
0.107576
0.104649
0.101455
0.0979393
0.0940541
0.0897474
0.0849575
0.0796139
0.0736729
0.0670781
0.0598059
0.0518086
0.0429037
0.0322944
0.0166516
0.0199169
0.0181049
0.0149054
0.0112211
0.00735954
0.00344376
-0.000471469
-0.00436041
-0.00821145
-0.0120202
-0.015786
-0.0195102
-0.023195
-0.0268431
-0.0304573
-0.0340404
-0.0375949
-0.0411233
-0.0446278
-0.0481104
-0.051573
-0.0550173
-0.0584448
-0.0618569
-0.0652549
-0.0686402
-0.0720137
-0.0753768
-0.0787303
-0.0820753
-0.0854127
-0.0887436
-0.0920687
-0.0953892
-0.0987057
-0.102019
-0.105331
-0.108641
0.219106
0.216145
0.213208
0.210309
0.207451
0.204635
0.201852
0.1991
0.196383
0.193709
0.191084
0.188515
0.186009
0.183571
0.181209
0.178925
0.176723
0.174603
0.172568
0.170615
0.168743
0.16695
0.165231
0.163587
0.162014
0.160508
0.159066
0.157686
0.156363
0.155095
0.153882
0.152721
0.151613
0.150563
0.149558
0.148614
0.147702
0.146835
0.145988
0.145164
0.14436
0.143562
0.142762
0.141956
0.141135
0.140292
0.139423
0.138523
0.137585
0.136606
0.135579
0.134499
0.133361
0.132161
0.130895
0.129558
0.128146
0.126657
0.125085
0.123421
0.121667
0.119811
0.117845
0.115762
0.113548
0.111181
0.108647
0.10592
0.102973
0.0997729
0.0962595
0.0923873
0.0881004
0.0833438
0.0780564
0.0722054
0.0657427
0.0586456
0.0509127
0.0425505
0.033678
0.0251876
0.0217112
0.0184409
0.0148723
0.0110926
0.00721116
0.00329738
-0.000609879
-0.00448988
-0.00833252
-0.0121337
-0.0158927
-0.0196106
-0.0232896
-0.0269322
-0.030541
-0.0341189
-0.0376683
-0.0411917
-0.0446913
-0.0481692
-0.0516272
-0.0550671
-0.0584903
-0.0618983
-0.0652925
-0.068674
-0.072044
-0.0754037
-0.0787541
-0.0820961
-0.0854307
-0.0887589
-0.0920815
-0.0953994
-0.0987136
-0.102025
-0.105334
-0.108642
0.21903
0.215918
0.212841
0.209816
0.206849
0.203932
0.20106
0.198226
0.195435
0.192691
0.190004
0.187379
0.184824
0.182345
0.179948
0.177637
0.175416
0.173283
0.171239
0.169283
0.167412
0.165621
0.163905
0.162266
0.160698
0.159199
0.157764
0.156389
0.155072
0.153811
0.152605
0.151455
0.150359
0.149325
0.148335
0.147416
0.146527
0.145687
0.144866
0.144069
0.14329
0.142515
0.141736
0.140944
0.140133
0.139295
0.138424
0.137517
0.136567
0.135571
0.134524
0.133419
0.132251
0.131017
0.129713
0.128334
0.126878
0.125341
0.123717
0.122
0.120191
0.118279
0.116258
0.114124
0.111864
0.109454
0.106884
0.104129
0.101162
0.0979566
0.0944535
0.0906063
0.0863631
0.0816669
0.0764773
0.0707648
0.0645123
0.0577185
0.050433
0.0428012
0.0351828
0.0283766
0.023424
0.0191853
0.0151433
0.0111445
0.00716207
0.00320188
-0.000725901
-0.00461374
-0.00845779
-0.012257
-0.0160123
-0.0197255
-0.0233991
-0.027036
-0.030639
-0.0342109
-0.0377544
-0.041272
-0.0447658
-0.0482381
-0.0516906
-0.0551252
-0.0585433
-0.0619465
-0.0653361
-0.0687133
-0.0720792
-0.075435
-0.0787817
-0.0821202
-0.0854515
-0.0887765
-0.0920962
-0.0954113
-0.0987227
-0.102031
-0.105338
-0.108643
0.218952
0.215691
0.212473
0.209317
0.206226
0.203198
0.200226
0.197302
0.19443
0.191612
0.188858
0.186176
0.18357
0.181049
0.178618
0.176281
0.174039
0.171894
0.169842
0.167883
0.166012
0.164224
0.162514
0.16088
0.159317
0.157821
0.156389
0.155018
0.153703
0.152445
0.151243
0.150098
0.149011
0.147988
0.147011
0.146112
0.145247
0.144433
0.143638
0.142871
0.142117
0.141367
0.140608
0.139833
0.139033
0.138199
0.137328
0.136414
0.135452
0.134439
0.133368
0.132237
0.131038
0.129768
0.128425
0.127002
0.125499
0.12391
0.122232
0.120459
0.118592
0.116622
0.114543
0.112355
0.110051
0.1076
0.104997
0.102218
0.0992339
0.0960184
0.092522
0.0887015
0.0845118
0.0798926
0.0748174
0.0692672
0.0632502
0.0567924
0.0499663
0.0429463
0.0360717
0.029835
0.0245295
0.0198293
0.0154547
0.0112524
0.007153
0.0031277
-0.000835204
-0.00474087
-0.00859268
-0.0123937
-0.0161472
-0.0198564
-0.0235248
-0.0271556
-0.030752
-0.0343171
-0.0378537
-0.0413644
-0.0448515
-0.0483171
-0.0517633
-0.0551917
-0.058604
-0.0620016
-0.0653858
-0.068758
-0.0721192
-0.0754705
-0.0788129
-0.0821475
-0.085475
-0.0887965
-0.0921128
-0.0954246
-0.0987329
-0.102038
-0.105342
-0.108644
0.21887
0.215447
0.212075
0.208776
0.205558
0.202416
0.199341
0.196324
0.193366
0.190471
0.187648
0.184905
0.18225
0.179688
0.177224
0.174861
0.172601
0.170443
0.168386
0.166425
0.164556
0.162773
0.161069
0.15944
0.157881
0.156388
0.154957
0.153587
0.152272
0.151014
0.149813
0.14867
0.147587
0.146571
0.145605
0.14472
0.143877
0.143085
0.142316
0.141577
0.14085
0.140124
0.139385
0.138627
0.137838
0.137009
0.136136
0.135215
0.13424
0.133208
0.132115
0.130955
0.129723
0.128416
0.127031
0.125561
0.124008
0.122367
0.120631
0.118801
0.116875
0.114843
0.112705
0.110459
0.108104
0.105613
0.102978
0.100177
0.0971834
0.0939687
0.0904824
0.0866924
0.0825601
0.0780287
0.073074
0.0676946
0.0619093
0.0557643
0.0493385
0.0427954
0.0364113
0.0304726
0.0251185
0.02023
0.0156673
0.0113221
0.00712629
0.00304027
-0.000958742
-0.00488432
-0.00874559
-0.0125494
-0.0163013
-0.0200063
-0.0236686
-0.0272923
-0.0308811
-0.0344382
-0.0379667
-0.0414693
-0.0449485
-0.0484065
-0.0518452
-0.0552666
-0.0586721
-0.0620633
-0.0654415
-0.068808
-0.0721638
-0.0755101
-0.0788478
-0.0821778
-0.0855012
-0.0888187
-0.0921312
-0.0954395
-0.0987443
-0.102047
-0.105347
-0.108646
0.218784
0.215193
0.211664
0.208217
0.20486
0.201591
0.198403
0.195287
0.192239
0.189264
0.186369
0.183565
0.18086
0.178258
0.175763
0.173379
0.171104
0.168937
0.166876
0.164916
0.163051
0.161274
0.159578
0.157956
0.156402
0.154913
0.153484
0.152112
0.150797
0.149537
0.148334
0.147189
0.146108
0.145094
0.144139
0.143261
0.142435
0.14166
0.140914
0.140199
0.139498
0.138792
0.138072
0.13733
0.136551
0.135726
0.13485
0.133919
0.13293
0.131879
0.130761
0.129571
0.128305
0.126956
0.125526
0.124008
0.122404
0.120708
0.118912
0.117022
0.115034
0.11294
0.110742
0.108439
0.10603
0.103496
0.100828
0.0980053
0.0950017
0.0917896
0.0883156
0.0845558
0.0804862
0.076059
0.071247
0.0660535
0.0604956
0.0546267
0.048541
0.0423863
0.0363524
0.0306231
0.0253164
0.0203748
0.0157258
0.011299
0.00703982
0.00290986
-0.00111687
-0.00505793
-0.00892599
-0.0127306
-0.0164792
-0.0201782
-0.0238329
-0.0274479
-0.0310274
-0.034575
-0.0380939
-0.0415871
-0.0450571
-0.0485062
-0.0519364
-0.0553497
-0.0587476
-0.0621315
-0.065503
-0.068863
-0.0722129
-0.0755535
-0.078886
-0.0822111
-0.0855299
-0.088843
-0.0921514
-0.0954557
-0.0987568
-0.102055
-0.105352
-0.108648
0.218691
0.214919
0.211219
0.207612
0.204106
0.200704
0.197398
0.194178
0.191038
0.18798
0.185015
0.182151
0.179397
0.176758
0.174236
0.171833
0.169548
0.167377
0.165316
0.163361
0.161505
0.159738
0.158053
0.156441
0.154896
0.153412
0.151986
0.150615
0.1493
0.148039
0.146836
0.14569
0.14461
0.143598
0.142651
0.141777
0.140961
0.140194
0.139464
0.13876
0.138076
0.137384
0.136677
0.135947
0.135175
0.134351
0.133469
0.132527
0.131521
0.130448
0.129303
0.128082
0.126777
0.125386
0.123907
0.122337
0.120678
0.118925
0.117068
0.115116
0.113065
0.110906
0.108648
0.106287
0.103826
0.101251
0.0985523
0.0957136
0.0927024
0.0894942
0.0860427
0.0823182
0.0783021
0.0739596
0.0692795
0.0642729
0.0589558
0.0533651
0.0475911
0.0417585
0.0360051
0.0304375
0.0252121
0.0202856
0.0156159
0.0111569
0.00686745
0.00271472
-0.00132629
-0.00527409
-0.0091429
-0.0129438
-0.0166856
-0.0203757
-0.0240201
-0.027624
-0.0311921
-0.0347282
-0.0382358
-0.0417179
-0.0451773
-0.0486162
-0.0520368
-0.0554409
-0.0588302
-0.0622061
-0.0655699
-0.0689229
-0.0722662
-0.0756007
-0.0789274
-0.0822471
-0.0855608
-0.0888692
-0.0921731
-0.0954732
-0.0987702
-0.102065
-0.105358
-0.10865
0.218596
0.214639
0.210761
0.206984
0.203316
0.199761
0.196321
0.192989
0.189754
0.186613
0.183578
0.180657
0.177857
0.175185
0.172641
0.170225
0.167936
0.165768
0.163716
0.161773
0.159931
0.15818
0.156511
0.154913
0.15338
0.151904
0.150484
0.149117
0.147806
0.14655
0.145354
0.144215
0.143136
0.142126
0.141182
0.140308
0.139495
0.138726
0.138
0.137297
0.136613
0.135923
0.135217
0.134488
0.133716
0.132886
0.131994
0.131036
0.13001
0.128911
0.127737
0.12648
0.125135
0.123698
0.122167
0.120541
0.118824
0.11701
0.115091
0.113074
0.110957
0.108733
0.106414
0.103998
0.101488
0.0988747
0.0961454
0.0932895
0.090275
0.0870755
0.0836513
0.0799687
0.076011
0.0717583
0.0672027
0.0623583
0.0572573
0.0519356
0.0464586
0.0409125
0.0353969
0.0299853
0.0248608
0.0199878
0.0153399
0.0108857
0.00659492
0.00244068
-0.00159928
-0.00554267
-0.00940394
-0.0131948
-0.0169247
-0.0206016
-0.0242322
-0.0278221
-0.0313761
-0.0348984
-0.0383927
-0.041862
-0.0453091
-0.0487365
-0.0521462
-0.0555401
-0.0589197
-0.0622867
-0.0656422
-0.0689874
-0.0723235
-0.0756512
-0.0789717
-0.0822857
-0.0855939
-0.0888972
-0.0921963
-0.0954918
-0.0987845
-0.102075
-0.105364
-0.108652
0.218501
0.214352
0.210285
0.206323
0.202476
0.198756
0.195171
0.191717
0.188383
0.18516
0.182057
0.179082
0.176242
0.173541
0.17098
0.168557
0.16627
0.164112
0.162077
0.160154
0.158335
0.156609
0.154963
0.153387
0.151873
0.150413
0.149004
0.147647
0.146344
0.1451
0.143919
0.142797
0.141729
0.14072
0.139775
0.138893
0.13807
0.137292
0.136558
0.135841
0.135144
0.13444
0.133721
0.132978
0.13219
0.131343
0.13043
0.129449
0.128396
0.127267
0.126057
0.124761
0.123371
0.121884
0.120297
0.118613
0.116834
0.114955
0.112972
0.110888
0.108704
0.106415
0.104034
0.101566
0.09901
0.0963609
0.0936064
0.0907334
0.0877199
0.0845324
0.0811426
0.07752
0.0736304
0.0694653
0.065032
0.060345
0.0554398
0.050354
0.0451388
0.0398545
0.0345643
0.029311
0.0242998
0.0195036
0.0149054
0.0104837
0.00621552
0.00207936
-0.00194402
-0.00587083
-0.00971498
-0.0134881
-0.0171999
-0.0208586
-0.0244711
-0.0280433
-0.0315802
-0.0350861
-0.0385647
-0.0420192
-0.0454524
-0.0488667
-0.0522642
-0.0556466
-0.0590158
-0.0623729
-0.0657193
-0.0690561
-0.0723844
-0.0757049
-0.0790187
-0.0823265
-0.0856289
-0.0889268
-0.0922208
-0.0955115
-0.0987995
-0.102086
-0.10537
-0.108654
0.218401
0.214052
0.209781
0.205617
0.201578
0.197682
0.193942
0.190359
0.186925
0.183625
0.180459
0.177435
0.174559
0.171834
0.169262
0.166839
0.164561
0.162422
0.160411
0.158519
0.156734
0.155042
0.153431
0.151888
0.150403
0.148969
0.147581
0.146241
0.144954
0.143728
0.142566
0.141465
0.140415
0.139415
0.138468
0.137574
0.13673
0.135927
0.135167
0.134423
0.133698
0.132965
0.132218
0.131442
0.13062
0.129739
0.128793
0.127776
0.126686
0.125517
0.124265
0.122921
0.12148
0.119936
0.118289
0.116542
0.114697
0.112752
0.110703
0.108552
0.106299
0.103946
0.101505
0.0989889
0.0963926
0.0937126
0.0909372
0.0880484
0.085032
0.0818521
0.078492
0.0749337
0.0711334
0.0670692
0.0627698
0.0582533
0.0535446
0.0486815
0.0437016
0.0386451
0.0335518
0.0284475
0.0235547
0.0188498
0.014321
0.00995254
0.00572686
0.00162637
-0.00236546
-0.00626323
-0.01008
-0.0138269
-0.0175136
-0.0211483
-0.0247379
-0.0282883
-0.0318046
-0.0352912
-0.0387516
-0.0421892
-0.0456066
-0.0490063
-0.0523902
-0.0557602
-0.0591177
-0.0624642
-0.0658008
-0.0691286
-0.0724485
-0.0757613
-0.079068
-0.0823692
-0.0856655
-0.0889577
-0.0922464
-0.095532
-0.0988153
-0.102097
-0.105377
-0.108656
0.218295
0.21373
0.209241
0.204862
0.20062
0.19654
0.192641
0.18893
0.185396
0.182021
0.178797
0.17573
0.172823
0.170081
0.167502
0.165087
0.162828
0.160717
0.158742
0.156891
0.155151
0.153506
0.151942
0.150444
0.149001
0.147606
0.146251
0.144937
0.143674
0.142478
0.141347
0.140269
0.139234
0.138242
0.13729
0.136379
0.135506
0.134667
0.133862
0.133075
0.132303
0.131524
0.130731
0.129903
0.129028
0.128096
0.127099
0.126033
0.124891
0.12367
0.122363
0.120961
0.11946
0.117854
0.116141
0.114326
0.112412
0.110397
0.108279
0.106059
0.103739
0.101325
0.0988274
0.0962655
0.0936366
0.0909348
0.0881443
0.085248
0.0822331
0.0790682
0.0757348
0.0722251
0.0685086
0.0645499
0.0603825
0.0560406
0.0515347
0.0468876
0.042128
0.0372824
0.0323726
0.0274124
0.0226415
0.0180382
0.0135934
0.009295
0.00512877
0.00107988
-0.00286611
-0.00672241
-0.0105011
-0.014213
-0.0178671
-0.0214714
-0.0250328
-0.0285571
-0.0320491
-0.0355132
-0.0389529
-0.0423714
-0.0457712
-0.0491547
-0.0525237
-0.05588
-0.059225
-0.06256
-0.0658861
-0.0692042
-0.0725153
-0.07582
-0.0791192
-0.0824135
-0.0857035
-0.0889897
-0.0922728
-0.0955532
-0.0988315
-0.102108
-0.105384
-0.108658
0.218182
0.21339
0.208667
0.204059
0.199606
0.195343
0.19129
0.187453
0.183821
0.180374
0.177096
0.17399
0.171058
0.168301
0.165723
0.16332
0.161091
0.15902
0.157095
0.155298
0.153616
0.152032
0.150529
0.149093
0.147709
0.146365
0.145055
0.143783
0.142568
0.141414
0.140313
0.139254
0.138228
0.137234
0.136269
0.135333
0.134422
0.133534
0.132669
0.13182
0.130982
0.130133
0.129272
0.128374
0.127428
0.126426
0.125361
0.124226
0.123018
0.12173
0.120358
0.118888
0.117316
0.115639
0.113851
0.11196
0.109968
0.107876
0.105685
0.103393
0.101008
0.0985383
0.0959947
0.0933967
0.0907433
0.0880322
0.0852395
0.082354
0.0793522
0.0762123
0.0729106
0.0694472
0.0658026
0.061945
0.057898
0.053708
0.0493885
0.0449515
0.0404067
0.0357611
0.0310286
0.0262137
0.0215688
0.0170756
0.0127272
0.00851346
0.00442203
0.000439695
-0.00344661
-0.00724909
-0.0109791
-0.0146465
-0.0182602
-0.0218277
-0.0253554
-0.0288489
-0.0323128
-0.0357512
-0.0391676
-0.0425647
-0.045945
-0.0493108
-0.0526636
-0.0560052
-0.0593368
-0.0626596
-0.0659745
-0.0692825
-0.0725843
-0.0758806
-0.079172
-0.0824591
-0.0857424
-0.0890226
-0.0922999
-0.0955749
-0.0988481
-0.10212
-0.10539
-0.108661
0.218062
0.213028
0.208066
0.20323
0.198572
0.19413
0.189926
0.185963
0.182232
0.178712
0.175383
0.17224
0.169284
0.16652
0.163948
0.161567
0.159374
0.157359
0.155502
0.15378
0.152175
0.150669
0.149243
0.147881
0.14657
0.145296
0.144053
0.142839
0.141678
0.140567
0.139494
0.138451
0.137428
0.136423
0.135434
0.13446
0.133498
0.132545
0.131601
0.130667
0.129744
0.128802
0.12785
0.12686
0.125825
0.124733
0.123579
0.122357
0.121061
0.119687
0.11823
0.116678
0.115027
0.113272
0.111412
0.10945
0.107386
0.10522
0.102952
0.100585
0.0981305
0.0956029
0.0930152
0.0903885
0.0877196
0.085011
0.0822252
0.0793573
0.0763744
0.073267
0.0700027
0.0665909
0.0630152
0.0592618
0.0553434
0.0513002
0.0471519
0.0429039
0.0385544
0.0340935
0.0295269
0.0248559
0.0203399
0.0159648
0.0117245
0.00760951
0.00360784
-0.000293233
-0.00410608
-0.00784236
-0.0115127
-0.0151264
-0.0186918
-0.0222156
-0.0257041
-0.0291622
-0.0325942
-0.0360038
-0.0393941
-0.0427677
-0.0461269
-0.0494734
-0.0528089
-0.0561348
-0.0594522
-0.0627621
-0.0660653
-0.0693627
-0.0726548
-0.0759423
-0.0792257
-0.0825054
-0.085782
-0.0890559
-0.0923274
-0.0955969
-0.0988649
-0.102132
-0.105398
-0.108663
0.217941
0.212665
0.207466
0.202412
0.197561
0.192951
0.188604
0.184522
0.180693
0.177097
0.173713
0.170533
0.167556
0.164785
0.162228
0.159882
0.15774
0.15579
0.154012
0.152381
0.150872
0.149462
0.148132
0.146863
0.145642
0.144455
0.143293
0.142152
0.141054
0.139989
0.138945
0.137911
0.136879
0.135849
0.134818
0.133786
0.132753
0.131721
0.130686
0.129644
0.128603
0.12754
0.126468
0.12536
0.124213
0.123013
0.121754
0.120429
0.119032
0.117559
0.116004
0.114357
0.112615
0.110772
0.108828
0.106787
0.104647
0.102407
0.100065
0.0976244
0.0951036
0.0925202
0.0898895
0.0872366
0.0845554
0.0818527
0.0790837
0.0762407
0.0732875
0.0702222
0.0670042
0.0636491
0.0601423
0.0564883
0.0526978
0.0488022
0.0448189
0.0407473
0.0365755
0.0322848
0.0278711
0.0233376
0.0189529
0.0147044
0.0105851
0.00658391
0.00268769
-0.00111687
-0.00484218
-0.00849966
-0.0120994
-0.01565
-0.0191591
-0.0226328
-0.0260765
-0.0294946
-0.032891
-0.0362688
-0.0396306
-0.0429787
-0.046315
-0.049641
-0.0529582
-0.0562675
-0.05957
-0.0628664
-0.0661575
-0.0694439
-0.0727262
-0.0760046
-0.0792798
-0.0825521
-0.0858218
-0.0890893
-0.092355
-0.095619
-0.0988818
-0.102144
-0.105405
-0.108665
0.217821
0.212304
0.206878
0.20162
0.196594
0.191836
0.187363
0.183171
0.17925
0.175581
0.172143
0.168926
0.165927
0.163149
0.1606
0.158285
0.156202
0.154338
0.152668
0.151157
0.14977
0.148477
0.147256
0.146092
0.144973
0.143885
0.142818
0.14177
0.140742
0.13972
0.138695
0.13766
0.13661
0.13554
0.134451
0.133343
0.132217
0.131072
0.129915
0.128748
0.12757
0.126364
0.12514
0.123884
0.122591
0.121253
0.119863
0.118414
0.116898
0.115311
0.113643
0.11189
0.110046
0.108107
0.106072
0.103944
0.101723
0.0994057
0.0969886
0.0944766
0.0918937
0.0892618
0.0865967
0.0839243
0.0812347
0.0785398
0.0758009
0.0729925
0.0700846
0.0670716
0.0639101
0.060619
0.0571869
0.053633
0.0499689
0.046216
0.0423859
0.0384741
0.03446
0.030323
0.0260508
0.0216494
0.0174003
0.0132898
0.00930707
0.00543708
0.00166381
-0.00202781
-0.00565086
-0.00921669
-0.0127348
-0.0162131
-0.0196581
-0.0230753
-0.026469
-0.029843
-0.0332003
-0.0365435
-0.0398746
-0.0431955
-0.0465075
-0.0498119
-0.0531098
-0.0564019
-0.0596889
-0.0629715
-0.0662502
-0.0695255
-0.0727976
-0.0760669
-0.0793339
-0.0825986
-0.0858614
-0.0891226
-0.0923824
-0.0956409
-0.0988985
-0.102155
-0.105412
-0.108668
0.217702
0.21195
0.206305
0.200856
0.195673
0.190787
0.186209
0.181928
0.177927
0.174191
0.170703
0.167451
0.164432
0.161655
0.15913
0.156864
0.15486
0.153098
0.151551
0.150175
0.148929
0.147769
0.146672
0.145623
0.144613
0.143633
0.142671
0.141717
0.140753
0.139769
0.138756
0.137712
0.136633
0.135515
0.134358
0.133159
0.131919
0.130636
0.129321
0.127981
0.126623
0.125244
0.123841
0.122409
0.12094
0.119435
0.117882
0.116283
0.114626
0.112905
0.111109
0.109235
0.107276
0.105231
0.1031
0.100883
0.0985776
0.0961821
0.0936914
0.0911128
0.0884728
0.0857988
0.0831115
0.0804273
0.0777343
0.0750504
0.0723495
0.0695878
0.066738
0.0637972
0.0607103
0.0574973
0.0541522
0.0506965
0.0471503
0.0435291
0.0398379
0.0360687
0.0321921
0.0281868
0.0240463
0.0197757
0.01567
0.0117136
0.00788785
0.00417036
0.000540131
-0.00302056
-0.00652587
-0.009987
-0.0134127
-0.0168097
-0.0201835
-0.0235381
-0.0268772
-0.0302032
-0.0335184
-0.0368246
-0.0401232
-0.0434154
-0.046702
-0.049984
-0.0532619
-0.0565363
-0.0598076
-0.0630762
-0.0663423
-0.0696063
-0.0728682
-0.0761285
-0.0793872
-0.0826444
-0.0859004
-0.0891553
-0.0924092
-0.0956624
-0.0989149
-0.102167
-0.105418
-0.10867
0.217586
0.211605
0.205748
0.200121
0.194799
0.189811
0.185153
0.180806
0.176747
0.172962
0.169438
0.166164
0.16314
0.16038
0.157896
0.1557
0.153791
0.152149
0.15074
0.149516
0.148427
0.147417
0.146456
0.145533
0.144638
0.143766
0.142908
0.142047
0.141145
0.140191
0.139182
0.138118
0.136994
0.135809
0.13456
0.133242
0.131855
0.130403
0.128899
0.127356
0.125782
0.124183
0.122562
0.120915
0.119235
0.11753
0.115786
0.114002
0.112176
0.110297
0.10835
0.106339
0.104256
0.102095
0.0998615
0.0975518
0.0951623
0.0926895
0.0901294
0.0874926
0.084803
0.0820912
0.0793942
0.0767073
0.0740207
0.071355
0.0686927
0.0659912
0.0632119
0.0603588
0.0573692
0.0542534
0.0510103
0.0476565
0.0442221
0.040726
0.0371637
0.033521
0.0297677
0.0258763
0.0218493
0.0177014
0.0137493
0.00996959
0.00632741
0.00278827
-0.000676033
-0.00408645
-0.0074581
-0.0108016
-0.0141245
-0.0174321
-0.020728
-0.024015
-0.0272953
-0.0305702
-0.0338409
-0.0371083
-0.040373
-0.0436354
-0.046896
-0.050155
-0.0534127
-0.0566691
-0.0599246
-0.063179
-0.0664326
-0.0696853
-0.0729373
-0.0761885
-0.0794391
-0.082689
-0.0859383
-0.089187
-0.0924353
-0.0956832
-0.0989307
-0.102178
-0.105425
-0.108672
0.217466
0.211258
0.205209
0.199434
0.194003
0.188938
0.184228
0.179839
0.175739
0.171924
0.168385
0.165113
0.162115
0.159406
0.156999
0.154908
0.15313
0.151637
0.150384
0.149317
0.148383
0.147524
0.146708
0.145911
0.145127
0.144356
0.14359
0.142803
0.141947
0.14101
0.139993
0.138896
0.137713
0.136441
0.135068
0.133593
0.132018
0.130352
0.128614
0.126825
0.125
0.123148
0.121274
0.119377
0.117449
0.115501
0.113528
0.111526
0.109497
0.107436
0.105315
0.103145
0.100922
0.0986345
0.0962924
0.0938889
0.0914184
0.088874
0.0862518
0.0835684
0.0808392
0.0780983
0.0753979
0.0727197
0.0700542
0.0674188
0.0647979
0.0621644
0.0594708
0.0567107
0.0538326
0.0508337
0.0477177
0.0444923
0.0411916
0.0378357
0.0344089
0.0308897
0.0272407
0.0234294
0.0194692
0.015411
0.0116263
0.00805666
0.0046329
0.00130225
-0.00197149
-0.00521205
-0.00843467
-0.0116487
-0.0148595
-0.0180704
-0.021283
-0.0244984
-0.0277167
-0.0309383
-0.0341628
-0.0373902
-0.0406201
-0.0438523
-0.0470865
-0.0503225
-0.0535598
-0.0567985
-0.0600382
-0.0632787
-0.0665199
-0.0697617
-0.0730038
-0.0762463
-0.0794889
-0.0827317
-0.0859745
-0.0892174
-0.0924603
-0.0957031
-0.0989459
-0.102189
-0.105431
-0.108674
0.217351
0.210934
0.20472
0.198832
0.193333
0.188229
0.183486
0.179067
0.174946
0.171125
0.167598
0.164361
0.161425
0.158811
0.15653
0.154587
0.152968
0.151643
0.150565
0.149676
0.148913
0.148212
0.147536
0.146856
0.146166
0.145473
0.144776
0.144037
0.143204
0.142268
0.14123
0.140083
0.138815
0.137417
0.135877
0.134199
0.132386
0.130459
0.128444
0.126369
0.124253
0.122109
0.119943
0.117752
0.115535
0.1133
0.111055
0.108798
0.106525
0.104241
0.101926
0.0995771
0.0971979
0.0947729
0.0923167
0.0898223
0.0872753
0.0846681
0.0819955
0.0792782
0.0765232
0.073768
0.0710674
0.0684063
0.0657762
0.0631817
0.060603
0.0580298
0.0554232
0.0527634
0.0500138
0.0471629
0.0442288
0.0411943
0.0380991
0.0349432
0.0316917
0.0283074
0.0247393
0.020946
0.0169444
0.0128673
0.00928783
0.00598627
0.0028259
-0.000264348
-0.0033243
-0.00637769
-0.00943818
-0.0125128
-0.0156042
-0.0187131
-0.0218385
-0.0249793
-0.028134
-0.0313009
-0.0344785
-0.0376655
-0.0408606
-0.0440626
-0.0472706
-0.0504837
-0.0537012
-0.0569224
-0.0601468
-0.0633738
-0.0666031
-0.0698342
-0.073067
-0.076301
-0.0795361
-0.0827721
-0.0860088
-0.089246
-0.0924837
-0.0957218
-0.0989601
-0.102199
-0.105437
-0.108676
0.217252
0.210657
0.204307
0.198331
0.192781
0.187654
0.182917
0.178514
0.174408
0.170614
0.16714
0.163992
0.161178
0.15871
0.1566
0.154843
0.153416
0.152281
0.151391
0.150686
0.150109
0.149579
0.149046
0.148468
0.147844
0.147198
0.146535
0.14582
0.144998
0.144055
0.142977
0.141742
0.140337
0.138757
0.136987
0.135038
0.132928
0.130686
0.128349
0.125947
0.123506
0.121032
0.118532
0.116004
0.113452
0.110881
0.10832
0.105763
0.103194
0.100647
0.0981039
0.0955573
0.0930015
0.0904317
0.0878579
0.0852771
0.0826605
0.0799996
0.0772913
0.0745506
0.0717831
0.0690262
0.066332
0.0636947
0.061109
0.0585637
0.0560321
0.0535108
0.050976
0.0484236
0.045826
0.0431703
0.040521
0.0378107
0.0350611
0.0322251
0.0292334
0.0260135
0.022496
0.0186163
0.0143386
0.0098977
0.00671058
0.0037937
0.000951159
-0.00187165
-0.00470169
-0.00755659
-0.0104465
-0.0133753
-0.0163429
-0.0193466
-0.022383
-0.0254482
-0.0285386
-0.0316509
-0.0347819
-0.037929
-0.0410899
-0.0442625
-0.0474451
-0.0506362
-0.0538345
-0.0570389
-0.0602487
-0.0634628
-0.0666808
-0.0699019
-0.0731258
-0.0763519
-0.07958
-0.0828096
-0.0860405
-0.0892725
-0.0925055
-0.0957391
-0.0989733
-0.102208
-0.105443
-0.108678
0.217175
0.210446
0.204002
0.197975
0.19242
0.18732
0.182617
0.17825
0.174196
0.170475
0.167112
0.164114
0.161483
0.159227
0.157351
0.155839
0.15463
0.153681
0.152957
0.15242
0.152033
0.151697
0.151328
0.15086
0.150287
0.149655
0.148983
0.148269
0.147456
0.146488
0.145332
0.143956
0.142349
0.140503
0.138409
0.136104
0.133631
0.131033
0.12834
0.125577
0.122765