/*--------------------------------*- C++ -*----------------------------------*\
  =========                 |
  \\      /  F ield         | OpenFOAM: The Open Source CFD Toolbox
   \\    /   O peration     | Website:  https://openfoam.org
    \\  /    A nd           | Version:  6
     \\/     M anipulation  |
\*---------------------------------------------------------------------------*/
FoamFile
{
    version     2.0;
    format      ascii;
    class       volScalarField;
    location    "2400";
    object      T;
}
// * * * * * * * * * * * * * * * * * * * * * * * * * * * * * * * * * * * * * //

dimensions      [0 0 0 1 0 0 0];

internalField   nonuniform List<scalar> 
4800
(
552.507
552.422
552.336
552.25
552.163
552.075
551.986
551.897
551.808
551.72
551.634
551.548
551.464
551.381
551.301
551.222
551.145
551.071
550.999
550.929
550.862
550.796
550.733
550.672
550.613
550.556
550.502
550.449
550.397
550.348
550.3
550.254
550.211
550.169
550.129
550.09
550.053
550.018
549.983
549.95
549.918
549.886
549.855
549.824
549.793
549.762
549.731
549.699
549.666
549.633
549.598
549.563
549.525
549.487
549.446
549.404
549.359
549.312
549.263
549.21
549.155
549.095
549.032
548.964
548.891
548.812
548.727
548.634
548.532
548.419
548.295
548.156
548.001
547.827
547.632
547.416
547.177
546.919
546.645
546.366
546.095
545.84
545.608
545.399
545.209
545.033
544.868
544.71
544.559
544.411
544.268
544.127
543.989
543.853
543.718
543.585
543.453
543.323
543.193
543.065
542.937
542.811
542.685
542.559
542.435
542.31
542.187
542.064
541.941
541.819
541.697
541.575
541.454
541.333
541.212
541.092
540.971
540.851
540.73
540.61
552.507
552.42
552.333
552.246
552.158
552.068
551.979
551.889
551.8
551.712
551.624
551.538
551.453
551.371
551.29
551.211
551.134
551.059
550.987
550.917
550.849
550.784
550.721
550.66
550.601
550.545
550.49
550.437
550.386
550.337
550.29
550.245
550.201
550.16
550.12
550.082
550.045
550.01
549.976
549.943
549.91
549.879
549.848
549.817
549.786
549.755
549.724
549.692
549.659
549.626
549.591
549.555
549.517
549.478
549.437
549.395
549.349
549.302
549.252
549.199
549.143
549.083
549.019
548.951
548.877
548.798
548.712
548.618
548.516
548.403
548.277
548.138
547.983
547.808
547.614
547.398
547.16
546.903
546.631
546.352
546.077
545.819
545.588
545.383
545.197
545.025
544.862
544.706
544.556
544.41
544.267
544.126
543.988
543.852
543.717
543.584
543.453
543.322
543.193
543.064
542.937
542.81
542.684
542.559
542.434
542.31
542.187
542.064
541.941
541.819
541.697
541.575
541.454
541.333
541.212
541.091
540.971
540.851
540.73
540.61
552.506
552.417
552.327
552.237
552.147
552.056
551.965
551.874
551.784
551.694
551.606
551.519
551.434
551.35
551.268
551.189
551.112
551.037
550.964
550.894
550.826
550.761
550.698
550.637
550.579
550.523
550.468
550.416
550.366
550.318
550.271
550.226
550.184
550.143
550.103
550.066
550.029
549.995
549.961
549.928
549.896
549.865
549.834
549.803
549.773
549.742
549.71
549.678
549.646
549.612
549.577
549.54
549.503
549.463
549.421
549.378
549.332
549.283
549.232
549.178
549.121
549.06
548.996
548.926
548.852
548.772
548.685
548.591
548.487
548.373
548.247
548.107
547.951
547.776
547.581
547.365
547.127
546.87
546.596
546.311
546.028
545.767
545.544
545.351
545.175
545.01
544.852
544.7
544.551
544.406
544.264
544.124
543.986
543.85
543.716
543.583
543.452
543.321
543.192
543.064
542.936
542.809
542.684
542.558
542.434
542.31
542.186
542.063
541.941
541.818
541.697
541.575
541.454
541.333
541.212
541.091
540.971
540.851
540.73
540.61
552.504
552.411
552.318
552.225
552.132
552.038
551.945
551.853
551.761
551.67
551.581
551.493
551.406
551.322
551.239
551.159
551.081
551.006
550.933
550.863
550.795
550.73
550.667
550.606
550.548
550.492
550.439
550.387
550.338
550.29
550.244
550.2
550.158
550.118
550.08
550.043
550.007
549.973
549.94
549.908
549.876
549.845
549.815
549.784
549.754
549.723
549.691
549.659
549.626
549.592
549.557
549.52
549.481
549.441
549.398
549.354
549.307
549.257
549.205
549.15
549.091
549.029
548.963
548.893
548.817
548.736
548.648
548.552
548.448
548.333
548.207
548.066
547.909
547.734
547.54
547.324
547.085
546.825
546.545
546.249
545.95
545.677
545.475
545.304
545.145
544.991
544.84
544.691
544.545
544.402
544.261
544.121
543.984
543.848
543.714
543.581
543.45
543.32
543.191
543.062
542.935
542.808
542.683
542.557
542.433
542.309
542.186
542.063
541.94
541.818
541.696
541.575
541.453
541.332
541.212
541.091
540.971
540.85
540.73
540.61
552.501
552.404
552.307
552.21
552.114
552.018
551.923
551.828
551.734
551.642
551.551
551.461
551.373
551.288
551.204
551.123
551.045
550.969
550.896
550.825
550.757
550.692
550.63
550.569
550.512
550.456
550.403
550.352
550.303
550.256
550.211
550.168
550.127
550.087
550.05
550.013
549.979
549.945
549.913
549.881
549.851
549.82
549.79
549.76
549.73
549.699
549.667
549.635
549.602
549.567
549.531
549.494
549.455
549.413
549.37
549.324
549.276
549.225
549.171
549.114
549.054
548.991
548.923
548.851
548.774
548.691
548.602
548.505
548.4
548.285
548.158
548.016
547.86
547.685
547.49
547.274
547.035
546.772
546.487
546.179
545.847
545.52
545.378
545.25
545.113
544.971
544.827
544.683
544.539
544.397
544.257
544.118
543.981
543.846
543.712
543.579
543.448
543.318
543.189
543.061
542.933
542.807
542.681
542.556
542.432
542.308
542.185
542.062
541.939
541.817
541.695
541.574
541.453
541.332
541.211
541.091
540.971
540.85
540.73
540.61
552.499
552.397
552.295
552.194
552.094
551.996
551.898
551.801
551.705
551.61
551.517
551.426
551.336
551.249
551.165
551.083
551.004
550.927
550.854
550.783
550.715
550.65
550.588
550.528
550.471
550.416
550.363
550.313
550.264
550.218
550.173
550.131
550.09
550.051
550.014
549.979
549.945
549.913
549.881
549.85
549.82
549.79
549.761
549.731
549.701
549.67
549.639
549.606
549.573
549.538
549.501
549.463
549.423
549.38
549.336
549.289
549.239
549.187
549.131
549.073
549.011
548.946
548.876
548.803
548.724
548.64
548.549
548.451
548.345
548.229
548.102
547.961
547.805
547.631
547.437
547.222
546.983
546.719
546.429
546.106
545.722
545.175
545.273
545.207
545.091
544.957
544.817
544.675
544.533
544.392
544.252
544.114
543.978
543.843
543.709
543.577
543.445
543.316
543.187
543.059
542.932
542.805
542.68
542.555
542.43
542.307
542.183
542.061
541.938
541.816
541.695
541.573
541.452
541.332
541.211
541.091
540.97
540.85
540.73
540.61
552.496
552.389
552.282
552.177
552.074
551.971
551.871
551.771
551.672
551.575
551.48
551.387
551.296
551.208
551.122
551.039
550.959
550.882
550.809
550.738
550.67
550.605
550.542
550.483
550.426
550.371
550.319
550.269
550.221
550.175
550.131
550.089
550.049
550.01
549.974
549.94
549.907
549.875
549.844
549.815
549.785
549.756
549.727
549.698
549.668
549.638
549.606
549.574
549.54
549.504
549.467
549.428
549.386
549.343
549.297
549.249
549.197
549.143
549.086
549.026
548.962
548.895
548.824
548.748
548.668
548.582
548.49
548.391
548.284
548.168
548.041
547.9
547.745
547.572
547.381
547.169
546.934
546.677
546.397
546.093
545.772
545.465
545.338
545.219
545.09
544.953
544.812
544.67
544.528
544.387
544.248
544.11
543.974
543.839
543.705
543.573
543.442
543.313
543.184
543.056
542.929
542.803
542.678
542.553
542.429
542.305
542.182
542.059
541.937
541.815
541.694
541.573
541.452
541.331
541.211
541.09
540.97
540.85
540.73
540.61
552.493
552.381
552.269
552.159
552.052
551.946
551.842
551.739
551.638
551.538
551.441
551.346
551.253
551.163
551.076
550.992
550.912
550.835
550.76
550.689
550.622
550.557
550.494
550.435
550.378
550.324
550.272
550.222
550.174
550.128
550.085
550.043
550.003
549.966
549.93
549.896
549.864
549.834
549.804
549.775
549.747
549.719
549.69
549.662
549.632
549.602
549.57
549.537
549.503
549.467
549.429
549.389
549.346
549.301
549.254
549.204
549.151
549.096
549.037
548.974
548.909
548.839
548.766
548.689
548.607
548.519
548.426
548.326
548.219
548.102
547.975
547.836
547.682
547.512
547.323
547.116
546.89
546.643
546.379
546.102
545.826
545.58
545.4
545.246
545.1
544.954
544.81
544.666
544.524
544.383
544.243
544.106
543.969
543.835
543.701
543.57
543.439
543.309
543.181
543.053
542.927
542.801
542.675
542.551
542.427
542.303
542.181
542.058
541.936
541.814
541.693
541.572
541.451
541.33
541.21
541.09
540.97
540.85
540.73
540.61
552.491
552.372
552.256
552.141
552.029
551.919
551.812
551.706
551.601
551.499
551.399
551.302
551.208
551.116
551.028
550.943
550.862
550.784
550.71
550.639
550.571
550.506
550.444
550.385
550.328
550.274
550.222
550.172
550.124
550.079
550.035
549.994
549.954
549.917
549.882
549.849
549.818
549.788
549.759
549.731
549.704
549.677
549.649
549.621
549.592
549.562
549.53
549.497
549.462
549.426
549.387
549.346
549.302
549.256
549.207
549.156
549.101
549.044
548.983
548.919
548.851
548.779
548.704
548.625
548.541
548.452
548.358
548.257
548.149
548.032
547.905
547.767
547.615
547.447
547.263
547.062
546.844
546.61
546.362
546.108
545.858
545.633
545.44
545.27
545.111
544.958
544.81
544.664
544.52
544.378
544.238
544.101
543.964
543.83
543.697
543.565
543.435
543.305
543.177
543.05
542.923
542.798
542.673
542.548
542.425
542.301
542.179
542.056
541.935
541.813
541.692
541.571
541.45
541.33
541.209
541.089
540.969
540.849
540.73
540.61
552.488
552.363
552.241
552.122
552.005
551.891
551.78
551.67
551.563
551.458
551.356
551.256
551.16
551.067
550.977
550.892
550.81
550.732
550.657
550.586
550.518
550.453
550.392
550.332
550.276
550.222
550.17
550.12
550.072
550.027
549.983
549.942
549.903
549.866
549.831
549.799
549.768
549.739
549.711
549.685
549.658
549.632
549.605
549.578
549.549
549.519
549.487
549.454
549.418
549.381
549.341
549.299
549.255
549.207
549.157
549.104
549.047
548.988
548.925
548.858
548.789
548.715
548.637
548.556
548.47
548.38
548.285
548.183
548.074
547.958
547.831
547.694
547.544
547.38
547.2
547.005
546.795
546.573
546.34
546.102
545.871
545.656
545.462
545.284
545.119
544.961
544.809
544.66
544.515
544.373
544.233
544.095
543.959
543.825
543.692
543.56
543.43
543.301
543.173
543.046
542.92
542.795
542.67
542.546
542.422
542.299
542.177
542.055
541.933
541.812
541.691
541.57
541.449
541.329
541.209
541.089
540.969
540.849
540.729
540.61
552.484
552.354
552.226
552.101
551.98
551.861
551.746
551.633
551.522
551.414
551.309
551.207
551.109
551.015
550.925
550.838
550.756
550.677
550.602
550.531
550.463
550.399
550.337
550.279
550.222
550.168
550.116
550.067
550.019
549.973
549.93
549.888
549.849
549.812
549.777
549.746
549.716
549.688
549.661
549.635
549.609
549.584
549.557
549.531
549.502
549.472
549.441
549.407
549.371
549.333
549.292
549.249
549.203
549.154
549.102
549.047
548.989
548.928
548.862
548.794
548.722
548.646
548.566
548.483
548.395
548.303
548.207
548.104
547.995
547.879
547.753
547.616
547.469
547.308
547.134
546.946
546.744
546.531
546.311
546.087
545.869
545.661
545.469
545.289
545.121
544.96
544.805
544.656
544.51
544.367
544.226
544.088
543.952
543.818
543.686
543.555
543.425
543.296
543.169
543.042
542.916
542.791
542.666
542.543
542.419
542.297
542.174
542.053
541.931
541.81
541.689
541.569
541.448
541.328
541.208
541.088
540.968
540.849
540.729
540.61
552.481
552.344
552.21
552.079
551.952
551.829
551.709
551.592
551.478
551.368
551.26
551.156
551.056
550.961
550.869
550.782
550.699
550.62
550.546
550.475
550.407
550.343
550.282
550.224
550.168
550.114
550.062
550.012
549.965
549.919
549.875
549.834
549.795
549.758
549.724
549.692
549.662
549.634
549.608
549.582
549.558
549.532
549.507
549.48
549.452
549.422
549.39
549.356
549.32
549.281
549.239
549.195
549.148
549.097
549.044
548.987
548.926
548.863
548.796
548.725
548.65
548.572
548.49
548.405
548.315
548.222
548.124
548.021
547.912
547.796
547.67
547.535
547.39
547.232
547.063
546.881
546.688
546.486
546.276
546.065
545.856
545.655
545.465
545.286
545.117
544.955
544.799
544.649
544.502
544.359
544.219
544.081
543.945
543.811
543.679
543.548
543.419
543.291
543.163
543.037
542.912
542.787
542.663
542.539
542.416
542.294
542.172
542.05
541.929
541.808
541.688
541.567
541.447
541.327
541.207
541.088
540.968
540.848
540.729
540.61
552.478
552.334
552.194
552.057
551.924
551.795
551.67
551.549
551.432
551.318
551.208
551.102
551
550.904
550.811
550.724
550.641
550.562
550.488
550.417
550.35
550.287
550.226
550.168
550.113
550.059
550.008
549.958
549.911
549.865
549.822
549.78
549.741
549.705
549.67
549.639
549.609
549.581
549.555
549.529
549.505
549.479
549.454
549.427
549.399
549.369
549.337
549.302
549.265
549.225
549.183
549.137
549.088
549.036
548.98
548.921
548.859
548.793
548.724
548.651
548.574
548.493
548.409
548.322
548.23
548.136
548.037
547.933
547.824
547.708
547.584
547.45
547.307
547.152
546.987
546.812
546.627
546.434
546.235
546.034
545.834
545.638
545.452
545.275
545.107
544.945
544.789
544.639
544.492
544.349
544.209
544.072
543.936
543.803
543.671
543.541
543.412
543.284
543.158
543.032
542.907
542.783
542.659
542.536
542.413
542.291
542.169
542.048
541.927
541.806
541.686
541.566
541.446
541.326
541.206
541.087
540.967
540.848
540.729
540.61
552.474
552.324
552.176
552.033
551.893
551.758
551.628
551.503
551.382
551.265
551.153
551.045
550.942
550.844
550.751
550.663
550.58
550.502
550.428
550.358
550.293
550.23
550.17
550.113
550.058
550.005
549.954
549.905
549.858
549.813
549.77
549.729
549.69
549.654
549.619
549.587
549.558
549.529
549.503
549.477
549.451
549.426
549.4
549.373
549.344
549.313
549.28
549.245
549.206
549.165
549.122
549.075
549.024
548.97
548.913
548.852
548.787
548.719
548.647
548.571
548.492
548.409
548.323
548.233
548.141
548.044
547.945
547.84
547.731
547.616
547.493
547.361
547.22
547.069
546.908
546.739
546.561
546.376
546.187
545.996
545.804
545.614
545.432
545.258
545.091
544.93
544.776
544.625
544.48
544.337
544.198
544.061
543.926
543.794
543.663
543.533
543.405
543.278
543.151
543.026
542.902
542.778
542.655
542.532
542.41
542.288
542.167
542.046
541.925
541.804
541.684
541.564
541.445
541.325
541.206
541.086
540.967
540.848
540.729
540.61
552.471
552.313
552.158
552.007
551.861
551.719
551.584
551.454
551.329
551.21
551.095
550.985
550.881
550.782
550.689
550.601
550.518
550.441
550.368
550.299
550.234
550.173
550.115
550.059
550.005
549.953
549.903
549.854
549.807
549.763
549.721
549.681
549.643
549.606
549.572
549.54
549.509
549.48
549.452
549.425
549.399
549.372
549.345
549.317
549.287
549.255
549.221
549.184
549.144
549.102
549.057
549.008
548.955
548.899
548.84
548.776
548.709
548.639
548.565
548.487
548.405
548.319
548.231
548.14
548.046
547.948
547.848
547.743
547.634
547.518
547.396
547.267
547.13
546.982
546.826
546.663
546.492
546.316
546.135
545.952
545.767
545.582
545.405
545.234
545.07
544.911
544.758
544.609
544.464
544.323
544.184
544.049
543.915
543.783
543.653
543.524
543.397
543.27
543.145
543.02
542.896
542.773
542.65
542.528
542.406
542.285
542.164
542.043
541.923
541.802
541.683
541.563
541.443
541.324
541.205
541.085
540.966
540.847
540.728
540.609
552.467
552.301
552.139
551.98
551.826
551.678
551.537
551.402
551.274
551.152
551.035
550.923
550.818
550.719
550.625
550.537
550.456
550.379
550.307
550.24
550.177
550.117
550.061
550.006
549.954
549.904
549.854
549.807
549.761
549.718
549.677
549.637
549.6
549.564
549.529
549.496
549.465
549.434
549.405
549.376
549.348
549.32
549.291
549.261
549.229
549.196
549.159
549.121
549.079
549.035
548.987
548.937
548.882
548.824
548.762
548.696
548.626
548.553
548.477
548.396
548.312
548.224
548.134
548.041
547.946
547.848
547.746
547.641
547.532
547.417
547.296
547.169
547.034
546.891
546.74
546.582
546.419
546.25
546.078
545.902
545.724
545.545
545.371
545.204
545.043
544.887
544.736
544.589
544.446
544.306
544.169
544.035
543.902
543.771
543.642
543.514
543.388
543.262
543.137
543.013
542.89
542.767
542.645
542.523
542.402
542.281
542.161
542.04
541.92
541.8
541.681
541.561
541.442
541.323
541.204
541.085
540.966
540.847
540.728
540.609
552.463
552.289
552.118
551.951
551.789
551.635
551.488
551.349
551.217
551.092
550.973
550.86
550.754
550.654
550.561
550.473
550.393
550.318
550.248
550.183
550.122
550.064
550.01
549.958
549.907
549.859
549.811
549.765
549.721
549.679
549.639
549.601
549.564
549.527
549.492
549.458
549.425
549.393
549.362
549.331
549.3
549.27
549.238
549.206
549.171
549.135
549.096
549.055
549.011
548.964
548.915
548.861
548.804
548.743
548.679
548.61
548.538
548.462
548.382
548.299
548.213
548.123
548.031
547.937
547.84
547.742
547.641
547.536
547.427
547.314
547.194
547.068
546.936
546.796
546.65
546.498
546.341
546.18
546.015
545.847
545.675
545.501
545.332
545.169
545.012
544.859
544.71
544.566
544.425
544.287
544.152
544.019
543.888
543.758
543.63
543.504
543.378
543.253
543.13
543.006
542.884
542.762
542.64
542.519
542.398
542.278
542.157
542.037
541.918
541.798
541.679
541.56
541.44
541.321
541.203
541.084
540.965
540.847
540.728
540.609
552.458
552.276
552.096
551.921
551.752
551.591
551.438
551.295
551.159
551.032
550.911
550.797
550.69
550.59
550.496
550.41
550.33
550.257
550.19
550.128
550.069
550.015
549.963
549.914
549.866
549.82
549.775
549.731
549.689
549.649
549.61
549.572
549.535
549.498
549.462
549.427
549.392
549.357
549.323
549.289
549.255
549.221
549.187
549.151
549.113
549.073
549.032
548.987
548.94
548.89
548.837
548.781
548.721
548.657
548.59
548.519
548.444
548.365
548.283
548.197
548.108
548.016
547.923
547.827
547.731
547.632
547.531
547.427
547.319
547.207
547.088
546.965
546.835
546.699
546.557
546.41
546.26
546.106
545.948
545.786
545.621
545.452
545.288
545.129
544.975
544.826
544.681
544.539
544.401
544.266
544.132
544.001
543.872
543.744
543.618
543.492
543.368
543.244
543.121
542.999
542.877
542.756
542.635
542.514
542.394
542.274
542.154
542.034
541.915
541.796
541.677
541.558
541.439
541.32
541.202
541.083
540.965
540.846
540.728
540.609
552.454
552.263
552.074
551.891
551.715
551.548
551.391
551.243
551.104
550.973
550.851
550.735
550.627
550.527
550.434
550.349
550.271
550.201
550.136
550.077
550.022
549.971
549.923
549.877
549.833
549.79
549.748
549.706
549.666
549.628
549.59
549.552
549.515
549.477
549.44
549.402
549.365
549.327
549.29
549.252
549.214
549.175
549.136
549.096
549.054
549.011
548.965
548.917
548.866
548.813
548.756
548.697
548.633
548.567
548.496
548.422
548.344
548.263
548.178
548.09
547.998
547.904
547.809
547.713
547.616
547.518
547.417
547.314
547.207
547.096
546.979
546.858
546.731
546.598
546.461
546.32
546.175
546.028
545.876
545.721
545.561
545.397
545.237
545.083
544.934
544.789
544.647
544.509
544.374
544.242
544.111
543.982
543.855
543.729
543.604
543.48
543.357
543.235
543.113
542.991
542.87
542.75
542.629
542.509
542.39
542.27
542.151
542.032
541.913
541.794
541.675
541.556
541.438
541.319
541.201
541.082
540.964
540.846
540.727
540.609
552.45
552.25
552.053
551.862
551.68
551.508
551.346
551.194
551.051
550.918
550.794
550.677
550.568
550.468
550.375
550.291
550.216
550.148
550.088
550.033
549.983
549.936
549.891
549.849
549.809
549.769
549.731
549.692
549.655
549.618
549.581
549.543
549.505
549.466
549.427
549.386
549.345
549.304
549.262
549.219
549.176
549.133
549.088
549.042
548.995
548.947
548.896
548.844
548.789
548.731
548.671
548.607
548.54
548.47
548.396
548.319
548.238
548.154
548.066
547.975
547.882
547.786
547.689
547.593
547.495
547.397
547.298
547.196
547.091
546.982
546.867
546.748
546.623
546.495
546.362
546.226
546.087
545.945
545.8
545.65
545.495
545.335
545.181
545.032
544.887
544.747
544.61
544.476
544.345
544.216
544.088
543.962
543.837
543.713
543.59
543.468
543.346
543.225
543.104
542.983
542.863
542.744
542.624
542.505
542.385
542.266
542.147
542.029
541.91
541.791
541.673
541.554
541.436
541.318
541.2
541.081
540.963
540.845
540.727
540.609
552.445
552.237
552.032
551.835
551.647
551.47
551.304
551.149
551.004
550.868
550.742
550.624
550.514
550.414
550.322
550.24
550.167
550.103
550.047
549.997
549.952
549.91
549.871
549.832
549.796
549.76
549.725
549.691
549.656
549.62
549.583
549.545
549.506
549.465
549.423
549.38
549.334
549.288
549.24
549.191
549.142
549.092
549.041
548.989
548.935
548.881
548.824
548.766
548.706
548.644
548.578
548.51
548.439
548.365
548.288
548.207
548.124
548.037
547.946
547.853
547.757
547.66
547.563
547.465
547.368
547.271
547.173
547.073
546.969
546.863
546.751
546.634
546.513
546.388
546.259
546.128
545.994
545.858
545.717
545.572
545.422
545.267
545.118
544.975
544.836
544.701
544.57
544.44
544.313
544.188
544.064
543.94
543.818
543.696
543.575
543.455
543.334
543.215
543.095
542.976
542.856
542.737
542.618
542.5
542.381
542.262
542.144
542.026
541.907
541.789
541.671
541.553
541.435
541.317
541.199
541.081
540.963
540.845
540.727
540.609
552.441
552.224
552.012
551.808
551.615
551.435
551.266
551.108
550.961
550.824
550.696
550.577
550.468
550.367
550.277
550.198
550.129
550.069
550.018
549.974
549.934
549.898
549.863
549.829
549.797
549.765
549.734
549.703
549.67
549.635
549.599
549.56
549.519
549.476
549.43
549.382
549.332
549.279
549.224
549.168
549.111
549.053
548.994
548.934
548.873
548.811
548.748
548.683
548.617
548.549
548.478
548.405
548.33
548.251
548.17
548.086
548
547.91
547.817
547.721
547.624
547.526
547.428
547.33
547.233
547.136
547.04
546.942
546.841
546.738
546.629
546.517
546.399
546.278
546.153
546.027
545.898
545.766
545.629
545.488
545.342
545.192
545.049
544.912
544.779
544.651
544.525
544.402
544.279
544.158
544.038
543.918
543.798
543.679
543.56
543.441
543.323
543.204
543.086
542.968
542.849
542.731
542.613
542.495
542.377
542.259
542.141
542.023
541.905
541.787
541.669
541.551
541.433
541.316
541.198
541.08
540.962
540.844
540.727
540.609
552.437
552.212
551.993
551.783
551.587
551.403
551.232
551.073
550.924
550.786
550.658
550.539
550.431
550.332
550.245
550.17
550.105
550.051
550.006
549.967
549.933
549.902
549.872
549.843
549.815
549.787
549.759
549.73
549.699
549.665
549.628
549.588
549.545
549.499
549.449
549.395
549.338
549.277
549.214
549.149
549.082
549.015
548.947
548.878
548.808
548.737
548.666
548.593
548.519
548.445
548.368
548.289
548.208
548.125
548.04
547.953
547.864
547.771
547.676
547.579
547.48
547.38
547.283
547.185
547.089
546.993
546.898
546.803
546.705
546.605
546.501
546.392
546.28
546.163
546.043
545.922
545.798
545.67
545.538
545.4
545.256
545.109
544.972
544.842
544.718
544.597
544.478
544.361
544.244
544.128
544.011
543.895
543.778
543.662
543.545
543.428
543.311
543.194
543.077
542.96
542.842
542.725
542.608
542.49
542.373
542.255
542.138
542.02
541.902
541.785
541.667
541.55
541.432
541.314
541.197
541.079
540.962
540.844
540.726
540.609
552.433
552.2
551.975
551.762
551.562
551.377
551.205
551.045
550.896
550.757
550.63
550.512
550.406
550.311
550.229
550.158
550.1
550.052
550.013
549.981
549.953
549.927
549.903
549.878
549.853
549.828
549.802
549.775
549.745
549.711
549.673
549.631
549.585
549.534
549.478
549.417
549.351
549.281
549.207
549.132
549.055
548.977
548.898
548.819
548.738
548.657
548.576
548.494
548.411
548.328
548.244
548.159
548.073
547.985
547.896
547.805
547.713
547.618
547.521
547.423
547.323
547.223
547.125
547.029
546.933
546.839
546.746
546.653
546.558
546.462
546.363
546.259
546.153
546.044
545.932
545.818
545.7
545.577
545.448
545.31
545.165
545.017
544.887
544.767
544.652
544.54
544.429
544.319
544.208
544.096
543.984
543.871
543.758
543.644
543.53
543.415
543.3
543.184
543.068
542.952
542.836
542.719
542.602
542.486
542.369
542.252
542.135
542.017
541.9
541.783
541.666
541.548
541.431
541.313
541.196
541.079
540.961
540.844
540.726
540.609
552.429
552.19
551.96
551.743
551.542
551.356
551.185
551.025
550.877
550.739
550.613
550.499
550.397
550.308
550.232
550.168
550.117
550.076
550.043
550.018
549.997
549.977
549.958
549.937
549.914
549.891
549.867
549.84
549.81
549.776
549.737
549.692
549.64
549.583
549.518
549.447
549.37
549.289
549.204
549.116
549.028
548.938
548.847
548.755
548.662
548.569
548.476
548.383
548.29
548.198
548.105
548.013
547.92
547.827
547.734
547.64
547.545
547.449
547.351
547.251
547.151
547.051
546.953
546.858
546.764
546.672
546.58
546.489
546.397
546.305
546.211
546.115
546.019
545.922
545.822
545.72
545.611
545.495
545.367
545.226
545.07
544.909
544.794
544.688
544.585
544.482
544.379
544.276
544.171
544.065
543.957
543.848
543.738
543.627
543.515
543.402
543.289
543.174
543.06
542.945
542.829
542.714
542.598
542.481
542.365
542.248
542.132
542.015
541.898
541.781
541.664
541.547
541.43
541.312
541.195
541.078
540.961
540.843
540.726
540.609
552.426
552.182
551.949
551.73
551.529
551.344
551.174
551.016
550.869
550.735
550.613
550.505
550.41
550.328
550.26
550.206
550.162
550.127
550.101
550.081
550.067
550.055
550.041
550.024
550.003
549.98
549.956
549.93
549.9
549.864
549.822
549.772
549.713
549.645
549.569
549.485
549.395
549.301
549.203
549.102
549
548.896
548.792
548.685
548.578
548.471
548.365
548.26
548.154
548.051
547.949
547.849
547.749
547.65
547.552
547.455
547.358
547.26
547.161
547.06
546.96
546.86
546.762
546.668
546.576
546.485
546.396
546.306
546.217
546.13
546.044
545.959
545.88
545.803
545.724
545.64
545.544
545.434
545.304
545.155
544.976
544.758
544.692
544.607
544.517
544.424
544.33
544.234
544.135
544.034
543.931
543.826
543.719
543.611
543.501
543.39
543.278
543.166
543.052
542.938
542.823
542.709
542.593
542.478
542.362
542.245
542.129
542.013
541.896
541.779
541.662
541.546
541.429
541.312
541.194
541.077
540.96
540.843
540.726
540.609
552.426
552.18
551.945
551.725
551.524
551.341
551.173
551.02
550.878
550.749
550.635
550.536
550.451
550.38
550.323
550.279
550.243
550.213
550.19
550.174
550.166
550.162
550.156
550.145
550.127
550.103
550.075
550.046
550.015
549.978
549.93
549.872
549.802
549.721
549.629
549.53
549.425
549.317
549.204
549.089
548.971
548.851
548.73
548.606
548.483
548.36
548.239
548.121
548.003
547.889
547.778
547.669
547.56
547.454
547.351
547.25
547.149
547.049
546.948
546.847
546.745
546.644
546.546
546.452
546.361
546.274
546.187
546.101
546.017
545.939
545.865
545.798
545.744
545.697
545.649
545.59
545.506
545.401
545.259
545.096
544.904
544.692
544.608
544.531
544.452
544.369
544.283
544.194
544.101
544.006
543.907
543.806
543.702
543.596
543.488
543.379
543.269
543.157
543.045
542.932
542.818
542.704
542.589
542.474
542.359
542.243
542.127
542.011
541.894
541.778
541.661
541.544
541.428
541.311
541.194
541.077
540.96
540.843
540.726
540.609
552.427
552.185
551.953
551.736
551.537
551.356
551.193
551.045
550.911
550.793
550.693
550.608
550.537
550.48
550.435
550.4
550.368
550.337
550.311
550.295
550.293
550.3
550.305
550.301
550.286
550.262
550.228
550.188
550.151
550.107
550.051
549.98
549.895
549.799
549.69
549.573
549.452
549.329
549.201
549.067
548.929
548.788
548.647
548.503
548.359
548.221
548.091
547.964
547.84
547.723
547.606
547.484
547.359
547.239
547.126
547.019
546.914
546.811
546.708
546.604
546.496
546.392
546.291
546.196
546.105
546.026
545.95
545.871
545.799
545.745
545.698
545.653
545.632
545.62
545.606
545.568
545.481
545.417
545.193
544.979
544.805
544.627
544.512
544.454
544.391
544.318
544.24
544.157
544.07
543.979
543.885
543.787
543.686
543.583
543.477
543.37
543.261
543.15
543.039
542.927
542.814
542.7
542.586
542.471
542.356
542.241
542.125
542.009
541.893
541.777
541.66
541.544
541.427
541.31
541.193
541.076
540.959
540.843
540.726
540.609
552.432
552.2
551.977
551.769
551.575
551.397
551.238
551.1
550.98
550.88
550.803
550.742
550.689
550.646
550.609
550.571
550.535
550.493
550.453
550.434
550.443
550.467
550.486
550.489
550.471
550.444
550.404
550.346
550.293
550.235
550.162
550.073
549.972
549.863
549.74
549.607
549.472
549.337
549.187
549.023
548.852
548.681
548.516
548.347
548.183
548.034
547.918
547.806
547.701
547.597
547.464
547.302
547.134
546.991
546.866
546.751
546.638
546.534
546.437
546.328
546.191
546.078
545.98
545.874
545.773
545.744
545.712
545.632
545.58
545.606
545.626
545.568
545.572
545.619
545.621
545.496
545.365
545.816
545.01
544.493
544.735
544.67
544.362
544.38
544.336
544.272
544.201
544.124
544.042
543.956
543.866
543.771
543.673
543.571
543.467
543.361
543.254
543.144
543.034
542.922
542.81
542.697
542.583
542.469
542.354
542.239
542.123
542.008
541.892
541.776
541.659
541.543
541.426
541.31
541.193
541.076
540.959
540.842
540.725
540.608
552.438
552.218
552.012
551.82
551.634
551.461
551.311
551.187
551.095
551.02
550.978
550.951
550.922
550.887
550.845
550.777
550.724
550.658
550.594
550.578
550.62
550.676
550.706
550.703
550.656
550.628
550.613
550.555
550.456
550.351
550.25
550.135
550.012
549.905
549.799
549.673
549.537
549.414
549.244
549.031
548.81
548.596
548.408
548.222
548.032
547.868
547.762
547.702
547.716
547.633
547.335
547.021
546.79
546.679
546.551
546.409
546.265
546.209
546.168
546.017
545.716
545.628
545.619
545.428
545.28
545.589
545.62
545.265
545.355
545.818
545.935
545.411
545.434
546.389
546.473
544.879
544.795
546.449
545.209
544.02
544.856
544.668
544.414
544.365
544.3
544.234
544.167
544.095
544.019
543.937
543.85
543.758
543.662
543.562
543.46
543.355
543.248
543.14
543.03
542.919
542.807
542.694
542.581
542.467
542.352
542.237
542.122
542.006
541.891
541.775
541.659
541.542
541.426
541.309
541.193
541.076
540.959
540.842
540.725
540.608
552.447
552.244
552.059
551.892
551.698
551.52
551.386
551.279
551.261
551.208
551.201
551.218
551.239
551.207
551.17
551.045
550.941
550.843
550.764
550.76
550.853
550.931
550.987
550.972
550.852
550.814
550.883
550.828
550.615
550.423
550.3
550.153
549.969
549.848
549.824
549.799
549.641
549.532
549.369
549.072
548.824
548.546
548.376
548.178
547.996
547.868
547.824
547.952
548.001
547.998
547.451
546.825
546.632
546.809
546.621
546.217
545.906
546.049
546.271
546.013
545.441
545.378
545.577
545.375
545.171
545.515
545.505
545.288
545.341
545.555
545.655
545.504
545.445
545.865
546
545.322
545.211
545.716
545.35
544.566
544.723
544.659
544.416
544.34
544.254
544.195
544.137
544.071
544.001
543.923
543.839
543.749
543.655
543.556
543.455
543.351
543.245
543.137
543.027
542.917
542.805
542.692
542.579
542.465
542.351
542.236
542.121
542.006
541.89
541.774
541.658
541.542
541.425
541.309
541.192
541.076
540.959
540.842
540.725