/*--------------------------------*- C++ -*----------------------------------*\
  =========                 |
  \\      /  F ield         | OpenFOAM: The Open Source CFD Toolbox
   \\    /   O peration     | Website:  https://openfoam.org
    \\  /    A nd           | Version:  6
     \\/     M anipulation  |
\*---------------------------------------------------------------------------*/
FoamFile
{
    version     2.0;
    format      ascii;
    class       volVectorField;
    location    "2400";
    object      U;
}
// * * * * * * * * * * * * * * * * * * * * * * * * * * * * * * * * * * * * * //

dimensions      [0 1 -1 0 0 0 0];

internalField   nonuniform List<vector> 
4800
(
(-0.000242712 0 3.80583e-05)
(0.000164087 0 -0.000358513)
(0.000391058 0 -0.000204848)
(0.000484507 0 -0.000107898)
(0.000544591 0 -7.10377e-05)
(0.000599679 0 -5.13604e-05)
(0.000657978 0 -4.55057e-05)
(0.000709329 0 -6.62153e-05)
(0.000752624 0 -7.10234e-05)
(0.000785162 0 -8.11312e-05)
(0.000814407 0 -0.000101182)
(0.000856905 0 -8.53376e-05)
(0.000904759 0 -5.91146e-05)
(0.000946154 0 -0.000112094)
(0.00100563 0 -0.000116538)
(0.00107213 0 -7.73677e-05)
(0.00110405 0 -7.49054e-05)
(0.00113066 0 -9.84995e-05)
(0.00118191 0 -9.10418e-05)
(0.00124819 0 -0.000113075)
(0.00130698 0 -0.000196404)
(0.00136396 0 -0.000160499)
(0.00139897 0 -8.28898e-05)
(0.00142407 0 -5.68103e-05)
(0.00145945 0 -4.80506e-05)
(0.00150713 0 -2.48439e-05)
(0.00154808 0 -2.24119e-05)
(0.00155361 0 -4.03459e-05)
(0.00154734 0 -4.39785e-05)
(0.00152893 0 -9.23131e-06)
(0.00150193 0 -2.47709e-05)
(0.00149968 0 -1.00115e-05)
(0.00150076 0 -9.85524e-06)
(0.00149988 0 -1.98087e-05)
(0.00150349 0 -1.87915e-05)
(0.00151322 0 -4.63357e-05)
(0.00153359 0 -7.26241e-05)
(0.00157002 0 -1.99857e-05)
(0.00159799 0 -8.82212e-05)
(0.00159618 0 -0.000106452)
(0.00159151 0 -0.00011474)
(0.00159471 0 -0.000111547)
(0.00160772 0 -0.000109686)
(0.00163952 0 -0.000115989)
(0.00167496 0 -7.38943e-05)
(0.00167802 0 -4.884e-05)
(0.00168044 0 -4.71704e-05)
(0.00168484 0 -3.36842e-05)
(0.00168334 0 -3.02709e-05)
(0.0016789 0 -2.79434e-05)
(0.00167174 0 -3.15533e-05)
(0.00166594 0 -2.6609e-05)
(0.00166092 0 -1.98394e-05)
(0.00165858 0 -1.85852e-05)
(0.00166204 0 -1.68288e-05)
(0.0016721 0 -1.78474e-05)
(0.00168351 0 -3.18047e-05)
(0.00169761 0 -3.69183e-05)
(0.00171502 0 -4.04751e-05)
(0.00171873 0 -4.168e-05)
(0.00171428 0 -4.53505e-05)
(0.00170397 0 -3.90878e-05)
(0.00168961 0 -3.17183e-05)
(0.00166916 0 -2.75903e-05)
(0.00164291 0 -4.35907e-05)
(0.00162048 0 -3.1274e-05)
(0.001605 0 -2.08731e-05)
(0.00159305 0 -8.08691e-06)
(0.00158114 0 1.18159e-05)
(0.00156752 0 -6.52415e-06)
(0.00154498 0 3.3063e-05)
(0.00150827 0 1.51015e-05)
(0.00146306 0 -1.10014e-05)
(0.00140159 0 6.32384e-05)
(0.00131808 0 -2.61886e-05)
(0.00118479 0 0.000138201)
(0.00105233 0 -1.20796e-05)
(0.000910358 0 0.000171704)
(0.000418569 0 0.000226192)
(3.53276e-05 0 -0.000165645)
(0.000111204 0 -0.000330816)
(-5.93496e-08 0 -6.38161e-05)
(-2.39634e-12 0 -5.06491e-13)
(-4.67372e-12 0 -6.77157e-14)
(-4.58579e-12 0 -1.99837e-14)
(-4.5166e-12 0 -4.85528e-14)
(-4.38084e-12 0 -8.62721e-14)
(-4.1743e-12 0 -1.19287e-13)
(-3.90872e-12 0 -1.4534e-13)
(-3.59822e-12 0 -1.64537e-13)
(-3.25519e-12 0 -1.77684e-13)
(-2.89112e-12 0 -1.85461e-13)
(-2.51617e-12 0 -1.88482e-13)
(-2.13932e-12 0 -1.87321e-13)
(-1.76839e-12 0 -1.82541e-13)
(-1.41005e-12 0 -1.74702e-13)
(-1.06988e-12 0 -1.64359e-13)
(-7.52363e-13 0 -1.52052e-13)
(-4.60912e-13 0 -1.38293e-13)
(-1.97973e-13 0 -1.23556e-13)
(3.49189e-14 0 -1.08269e-13)
(2.37029e-13 0 -9.2806e-14)
(4.08318e-13 0 -7.74884e-14)
(5.49328e-13 0 -6.25802e-14)
(6.61076e-13 0 -4.82917e-14)
(7.44949e-13 0 -3.47829e-14)
(8.02612e-13 0 -2.21685e-14)
(8.35925e-13 0 -1.05234e-14)
(8.46869e-13 0 1.09808e-16)
(8.37489e-13 0 9.71539e-15)
(8.09845e-13 0 1.82978e-14)
(7.65971e-13 0 2.58765e-14)
(7.07855e-13 0 3.24812e-14)
(6.37419e-13 0 3.81474e-14)
(5.56509e-13 0 4.29133e-14)
(4.66895e-13 0 4.68166e-14)
(3.70274e-13 0 4.98924e-14)
(2.68277e-13 0 5.21708e-14)
(1.62478e-13 0 5.36766e-14)
(5.44116e-14 0 5.44286e-14)
(-0.000281919 0 0.000154965)
(0.000314644 0 -0.000246982)
(0.000350948 0 -0.000319759)
(0.000504161 0 -0.00018466)
(0.000568863 0 -0.000100697)
(0.000602858 0 -7.51898e-05)
(0.000638421 0 -7.86315e-05)
(0.000677575 0 -7.42889e-05)
(0.000711184 0 -7.83479e-05)
(0.000746122 0 -6.98916e-05)
(0.000775668 0 -7.94706e-05)
(0.000809879 0 -6.81563e-05)
(0.000845471 0 -7.32049e-05)
(0.000886594 0 -5.23333e-05)
(0.000932691 0 -2.17988e-05)
(0.000966147 0 -5.72056e-05)
(0.000983261 0 -0.000107263)
(0.00101328 0 -9.16236e-05)
(0.00105815 0 -8.14436e-05)
(0.00111717 0 -6.34155e-05)
(0.00117657 0 -2.732e-05)
(0.00121612 0 -2.64932e-05)
(0.00124713 0 -3.42969e-05)
(0.0012792 0 -4.29138e-05)
(0.00131165 0 -5.52891e-05)
(0.00134081 0 -6.47838e-05)
(0.00137107 0 -3.91995e-05)
(0.00139924 0 4.96685e-05)
(0.00139865 0 7.76186e-05)
(0.00138693 0 7.1035e-05)
(0.00137993 0 4.28386e-05)
(0.00138066 0 6.8091e-05)
(0.00138836 0 2.20028e-05)
(0.001402 0 5.73151e-06)
(0.00141806 0 -2.99376e-06)
(0.00143299 0 2.4863e-05)
(0.00144992 0 6.61412e-05)
(0.00147412 0 3.0596e-05)
(0.00149019 0 5.10177e-05)
(0.00150065 0 7.95406e-05)
(0.00151335 0 7.88962e-05)
(0.00152861 0 7.5057e-05)
(0.00154601 0 6.7678e-05)
(0.0015577 0 3.11694e-05)
(0.00155152 0 1.49551e-05)
(0.00154252 0 1.90642e-05)
(0.00154254 0 2.63392e-05)
(0.00153956 0 3.01541e-05)
(0.00153009 0 2.91561e-05)
(0.00151416 0 4.10573e-05)
(0.00149716 0 4.0211e-05)
(0.00149228 0 2.24999e-05)
(0.00148441 0 1.65165e-05)
(0.00146726 0 8.15475e-06)
(0.00145967 0 2.45102e-06)
(0.00145991 0 1.88068e-06)
(0.00146047 0 -6.08463e-06)
(0.00146555 0 -5.44878e-06)
(0.0014754 0 4.46841e-06)
(0.00148163 0 4.33336e-05)
(0.00148183 0 5.29804e-05)
(0.00148024 0 5.66474e-05)
(0.0014763 0 6.05247e-05)
(0.00147048 0 6.57595e-05)
(0.00145865 0 6.98581e-05)
(0.00143708 0 6.80109e-05)
(0.0014073 0 5.8073e-05)
(0.0013727 0 3.76758e-05)
(0.00134274 0 3.11867e-05)
(0.00132172 0 3.09967e-05)
(0.00130202 0 6.1612e-05)
(0.00125952 0 1.95974e-05)
(0.00123837 0 9.97004e-05)
(0.0012149 0 4.24114e-05)
(0.00111776 0 0.000221158)
(0.00105877 0 7.99193e-05)
(0.000966708 0 0.000125245)
(0.000803172 0 0.000366228)
(0.000597906 0 0.000323381)
(0.0006546 0 0.000150814)
(0.000512035 0 0.000278138)
(2.97443e-07 0 0.000184631)
(-2.43406e-12 0 3.61487e-13)
(-4.18675e-12 0 1.88241e-13)
(-4.56614e-12 0 1.65198e-14)
(-4.58244e-12 0 -1.36505e-13)
(-4.45116e-12 0 -2.63392e-13)
(-4.23299e-12 0 -3.64416e-13)
(-3.95377e-12 0 -4.42164e-13)
(-3.63056e-12 0 -4.99125e-13)
(-3.27612e-12 0 -5.37957e-13)
(-2.90192e-12 0 -5.60712e-13)
(-2.51804e-12 0 -5.69206e-13)
(-2.13338e-12 0 -5.65155e-13)
(-1.75577e-12 0 -5.50249e-13)
(-1.39187e-12 0 -5.26177e-13)
(-1.04723e-12 0 -4.94615e-13)
(-7.26296e-13 0 -4.57191e-13)
(-4.32416e-13 0 -4.15453e-13)
(-1.67948e-13 0 -3.70831e-13)
(6.56688e-14 0 -3.24615e-13)
(2.67809e-13 0 -2.77934e-13)
(4.38544e-13 0 -2.31747e-13)
(5.78525e-13 0 -1.86846e-13)
(6.88874e-13 0 -1.43856e-13)
(7.71073e-13 0 -1.03249e-13)
(8.26872e-13 0 -6.53626e-14)
(8.58203e-13 0 -3.04139e-14)
(8.67108e-13 0 1.47634e-15)
(8.55677e-13 0 3.02664e-14)
(8.26006e-13 0 5.59751e-14)
(7.80154e-13 0 7.86652e-14)
(7.20126e-13 0 9.84295e-14)
(6.47851e-13 0 1.15378e-13)
(5.65178e-13 0 1.29629e-13)
(4.73874e-13 0 1.41297e-13)
(3.75628e-13 0 1.50489e-13)
(2.72061e-13 0 1.57297e-13)
(1.64736e-13 0 1.61795e-13)
(5.51636e-14 0 1.64034e-13)
(0.000111688 0 -0.000474504)
(0.000281919 0 -0.000381712)
(0.000322868 0 -0.000353441)
(0.000423026 0 -0.000254326)
(0.00047361 0 -0.00016422)
(0.000493669 0 -0.000124868)
(0.000514969 0 -0.0001014)
(0.000537673 0 -9.47509e-05)
(0.000559596 0 -0.000106313)
(0.000592349 0 -9.47495e-05)
(0.000617226 0 -0.000123761)
(0.000652715 0 -9.13264e-05)
(0.000678429 0 -8.45653e-05)
(0.00069258 0 -0.000120791)
(0.000720463 0 -0.000129038)
(0.000768866 0 -0.000109504)
(0.000816267 0 -0.000128759)
(0.000855965 0 -0.000134066)
(0.000883488 0 -0.000123153)
(0.000898547 0 -0.000128081)
(0.000921459 0 -0.000131168)
(0.000956585 0 -0.000137731)
(0.00100218 0 -9.64738e-05)
(0.00102771 0 -9.40179e-05)
(0.00104776 0 -9.16157e-05)
(0.00106665 0 -7.54838e-05)
(0.00108522 0 -8.08168e-05)
(0.00110844 0 -5.3181e-05)
(0.00113005 0 -2.1568e-05)
(0.00114925 0 -4.72445e-05)
(0.00118927 0 5.57634e-06)
(0.00119742 0 -5.07736e-05)
(0.00121277 0 -4.91995e-05)
(0.0012414 0 -4.26693e-05)
(0.00127861 0 -4.70989e-05)
(0.00131442 0 -5.12061e-05)
(0.0013279 0 -0.000103679)
(0.0013512 0 -4.33026e-05)
(0.00134801 0 -0.000101128)
(0.00134517 0 -0.000104981)
(0.00134991 0 -9.54316e-05)
(0.00135982 0 -6.3878e-05)
(0.00137304 0 -6.04572e-05)
(0.00139595 0 -4.67129e-05)
(0.00139779 0 -3.4623e-05)
(0.00139242 0 -2.63841e-05)
(0.00138584 0 -8.27242e-06)
(0.00138185 0 -2.45185e-07)
(0.00137624 0 5.61694e-06)
(0.00136827 0 1.50968e-05)
(0.00135881 0 -3.73175e-06)
(0.00134621 0 3.55025e-05)
(0.00132688 0 4.08639e-05)
(0.00131947 0 -3.22593e-06)
(0.00131848 0 -1.45093e-05)
(0.00131273 0 -1.73562e-05)
(0.00129921 0 -2.21769e-05)
(0.00128419 0 -2.95603e-05)
(0.00127062 0 -2.48042e-05)
(0.00125776 0 -4.03627e-05)
(0.00125191 0 -1.8708e-05)
(0.00124832 0 -1.47363e-05)
(0.00124473 0 -7.51458e-06)
(0.00124032 0 8.04406e-06)
(0.00123359 0 2.03251e-05)
(0.00122593 0 2.17353e-05)
(0.00122099 0 2.68718e-05)
(0.00121506 0 3.15593e-05)
(0.00120289 0 3.26403e-05)
(0.00118509 0 3.60393e-05)
(0.00115803 0 9.96299e-05)
(0.00110748 0 6.78936e-06)
(0.00106331 0 9.5098e-05)
(0.00100474 0 0.000253333)
(0.000973389 0 -1.39177e-05)
(0.000816123 0 0.000379448)
(0.000794782 0 0.000300447)
(0.000635107 0 0.000455793)
(0.000674276 0 0.000436384)
(0.000463459 0 0.000600181)
(0.000126542 0 0.000531542)
(-1.48623e-06 0 0.0003389)
(-2.30026e-12 0 1.17927e-12)
(-5.01741e-12 0 4.43089e-13)
(-4.90947e-12 0 3.48313e-14)
(-4.7956e-12 0 -2.50512e-13)
(-4.60795e-12 0 -4.66452e-13)
(-4.35235e-12 0 -6.32699e-13)
(-4.04306e-12 0 -7.59139e-13)
(-3.694e-12 0 -8.51455e-13)
(-3.31678e-12 0 -9.13975e-13)
(-2.92237e-12 0 -9.49926e-13)
(-2.52062e-12 0 -9.62188e-13)
(-2.12037e-12 0 -9.53555e-13)
(-1.72941e-12 0 -9.26832e-13)
(-1.35442e-12 0 -8.84856e-13)
(-1.0009e-12 0 -8.30452e-13)
(-6.73201e-13 0 -7.66374e-13)
(-3.74552e-13 0 -6.95237e-13)
(-1.07135e-13 0 -6.19456e-13)
(1.27817e-13 0 -5.41198e-13)
(3.29897e-13 0 -4.62356e-13)
(4.99405e-13 0 -3.84531e-13)
(6.3722e-13 0 -3.09032e-13)
(7.44673e-13 0 -2.36886e-13)
(8.23443e-13 0 -1.68862e-13)
(8.75448e-13 0 -1.055e-13)
(9.02764e-13 0 -4.7141e-14)
(9.0755e-13 0 6.03432e-15)
(8.91988e-13 0 5.39767e-14)
(8.58243e-13 0 9.67353e-14)
(8.08425e-13 0 1.34431e-13)
(7.44568e-13 0 1.67233e-13)
(6.68618e-13 0 1.95337e-13)
(5.82427e-13 0 2.18949e-13)
(4.87755e-13 0 2.38269e-13)
(3.86274e-13 0 2.53481e-13)
(2.79582e-13 0 2.64743e-13)
(1.69216e-13 0 2.7218e-13)
(5.66511e-14 0 2.75876e-13)
(9.7584e-05 0 -0.000549708)
(0.000120328 0 -0.000492074)
(0.000213504 0 -0.000400596)
(0.000280375 0 -0.000304928)
(0.000299515 0 -0.000235166)
(0.000339143 0 -0.000104864)
(0.000349631 0 -9.14113e-05)
(0.000377036 0 -8.98153e-05)
(0.000416954 0 -9.5645e-05)
(0.000453802 0 -0.000109981)
(0.000484604 0 -0.000113521)
(0.000505596 0 -0.000126167)
(0.000530683 0 -0.00011713)
(0.000552973 0 -0.000122668)
(0.000579405 0 -0.000126908)
(0.000610159 0 -0.000133452)
(0.000651367 0 -0.00012596)
(0.000673205 0 -0.000134805)
(0.000687586 0 -0.000124128)
(0.000691841 0 -0.000132433)
(0.000710973 0 -0.000125828)
(0.000732478 0 -0.000111402)
(0.000747132 0 -9.59058e-05)
(0.000754052 0 -9.31501e-05)
(0.000777855 0 -7.30871e-05)
(0.000804278 0 -0.000104983)
(0.000827894 0 -2.29277e-05)
(0.000840009 0 8.53248e-06)
(0.000866509 0 3.63219e-05)
(0.000910555 0 -2.69195e-05)
(0.000980768 0 9.3956e-05)
(0.00101622 0 -9.21702e-05)
(0.00106144 0 -3.49129e-05)
(0.00109745 0 -9.73618e-05)
(0.00113981 0 -4.68041e-05)
(0.00118175 0 -8.92224e-06)
(0.00121093 0 -6.38464e-05)
(0.00123722 0 -1.80683e-05)
(0.0012492 0 -3.80744e-06)
(0.00125592 0 -1.31932e-06)
(0.0012674 0 8.25839e-06)
(0.00127691 0 -6.54696e-06)
(0.00128132 0 -3.49215e-05)
(0.00128612 0 -1.13667e-05)
(0.00128498 0 -4.31877e-06)
(0.00127924 0 -8.48088e-06)
(0.00127306 0 4.84349e-06)
(0.00127033 0 2.71269e-05)
(0.00126646 0 2.98448e-05)
(0.00126052 0 4.42206e-05)
(0.00125148 0 4.21866e-05)
(0.00123438 0 4.494e-05)
(0.00121659 0 2.48544e-05)
(0.00120618 0 3.30403e-05)
(0.00119591 0 3.09247e-05)
(0.00118692 0 2.42531e-05)
(0.00117822 0 -2.68088e-06)
(0.00116633 0 8.85138e-06)
(0.00115005 0 1.72326e-05)
(0.00113061 0 3.0447e-05)
(0.00111153 0 3.3931e-05)
(0.00109833 0 4.4439e-05)
(0.00108948 0 5.53606e-05)
(0.00108288 0 5.92461e-05)
(0.00108078 0 5.72329e-05)
(0.00108183 0 5.55883e-05)
(0.00108328 0 6.57472e-05)
(0.00108229 0 6.61564e-05)
(0.00107662 0 6.2649e-05)
(0.00105895 0 7.53066e-05)
(0.00102883 0 0.000151444)
(0.00100542 0 8.45316e-05)
(0.000946094 0 0.000175181)
(0.000848377 0 0.000271718)
(0.000858911 0 0.000143432)
(0.000835818 0 0.000246398)
(0.000788662 0 0.000290827)
(0.000603249 0 0.000502953)
(0.000428524 0 0.000705292)
(0.000294399 0 0.000807262)
(-0.000391209 0 0.000604873)
(-1.45888e-06 0 0.000242846)
(-2.44986e-12 0 7.19083e-13)
(-5.32968e-12 0 3.69993e-13)
(-5.2586e-12 0 -6.89394e-14)
(-5.08281e-12 0 -4.33233e-13)
(-4.83259e-12 0 -7.19025e-13)
(-4.52503e-12 0 -9.40932e-13)
(-4.17222e-12 0 -1.11019e-12)
(-3.78539e-12 0 -1.23375e-12)
(-3.37459e-12 0 -1.31671e-12)
(-2.95013e-12 0 -1.36298e-12)
(-2.52166e-12 0 -1.37623e-12)
(-2.09803e-12 0 -1.36022e-12)
(-1.68707e-12 0 -1.31885e-12)
(-1.29549e-12 0 -1.25615e-12)
(-9.28753e-13 0 -1.17615e-12)
(-5.91082e-13 0 -1.0828e-12)
(-2.85498e-13 0 -9.79851e-13)
(-1.39089e-14 0 -8.70739e-13)
(2.22768e-13 0 -7.58542e-13)
(4.24476e-13 0 -6.4593e-13)
(5.91868e-13 0 -5.35144e-13)
(7.26171e-13 0 -4.27997e-13)
(8.29043e-13 0 -3.25899e-13)
(9.02459e-13 0 -2.29891e-13)
(9.48593e-13 0 -1.40685e-13)
(9.69737e-13 0 -5.87155e-14)
(9.68226e-13 0 1.58108e-14)
(9.46378e-13 0 8.28665e-14)
(9.0646e-13 0 1.42559e-13)
(8.50652e-13 0 1.95094e-13)
(7.81032e-13 0 2.40738e-13)
(6.99567e-13 0 2.79791e-13)
(6.08109e-13 0 3.12561e-13)
(5.08406e-13 0 3.39347e-13)
(4.02102e-13 0 3.60421e-13)
(2.90759e-13 0 3.76011e-13)
(1.75869e-13 0 3.86301e-13)
(5.88602e-14 0 3.91415e-13)
(4.20694e-06 0 -0.000627648)
(5.82506e-05 0 -0.000550495)
(0.000152472 0 -0.000436275)
(0.000197241 0 -0.000325144)
(0.000228673 0 -0.000188486)
(0.000236847 0 -0.000138425)
(0.000248502 0 -0.000140952)
(0.000281899 0 -0.000151539)
(0.000325385 0 -0.000152967)
(0.00035822 0 -0.000147949)
(0.000380402 0 -0.000150083)
(0.000402016 0 -0.000142931)
(0.000424141 0 -0.000135493)
(0.000436668 0 -0.000154443)
(0.000462318 0 -0.000150231)
(0.000478151 0 -0.000165469)
(0.000494906 0 -0.000169888)
(0.000502905 0 -0.000168079)
(0.000524858 0 -0.000122686)
(0.000520837 0 -0.000172868)
(0.000555137 0 -0.000127187)
(0.000555073 0 -0.000147339)
(0.000573516 0 -0.000120705)
(0.000578822 0 -0.000159399)
(0.000621119 0 -0.000135435)
(0.000665107 0 -0.000127822)
(0.000693193 0 -0.000150952)
(0.000711015 0 -0.000140026)
(0.000734204 0 -0.000116175)
(0.000766474 0 -0.000111844)
(0.00082314 0 -8.16434e-05)
(0.000873865 0 -0.000148027)
(0.000940871 0 -9.44539e-05)
(0.000988502 0 -0.000117703)
(0.00102274 0 -0.000114482)
(0.00106191 0 -0.000123825)
(0.00110745 0 -0.000137382)
(0.00113931 0 -5.62363e-05)
(0.0011427 0 -7.50619e-05)
(0.00115803 0 -0.000107223)
(0.00119854 0 -9.9253e-05)
(0.00121703 0 -6.32616e-05)
(0.00121435 0 -5.97198e-05)
(0.0012068 0 -5.2917e-05)
(0.0011962 0 -2.28811e-05)
(0.00118651 0 1.73886e-06)
(0.00117807 0 1.13046e-05)
(0.00117 0 1.99737e-05)
(0.00116014 0 2.83657e-05)
(0.00114863 0 3.62938e-05)
(0.00113837 0 3.71777e-05)
(0.00113161 0 3.89378e-05)
(0.00112378 0 4.14991e-05)
(0.00111068 0 2.34728e-05)
(0.00108913 0 2.21656e-06)
(0.00106685 0 8.30213e-06)
(0.00104937 0 1.63121e-05)
(0.00103097 0 1.93147e-05)
(0.0010055 0 2.20471e-05)
(0.000987885 0 2.1828e-05)
(0.000987896 0 2.07212e-05)
(0.000986344 0 2.13008e-05)
(0.000980494 0 1.90347e-05)
(0.000975552 0 1.89922e-05)
(0.000974728 0 3.14356e-05)
(0.000972327 0 3.72639e-05)
(0.000963396 0 4.34724e-05)
(0.00094403 0 4.49802e-05)
(0.000937669 0 7.43335e-05)
(0.000929693 0 9.99221e-05)
(0.000913568 0 0.000108896)
(0.000888987 0 0.00016428)
(0.000836322 0 0.000252709)
(0.000822595 0 0.00025686)
(0.000706823 0 0.000494708)
(0.000620374 0 0.00058634)
(0.000577476 0 0.000561573)
(0.00055367 0 0.000618943)
(0.000424527 0 0.000770012)
(5.80624e-05 0 0.0010509)
(0.000789428 0 0.000690651)
(-5.69167e-06 0 0.000416453)
(-2.03999e-12 0 1.45058e-12)
(-5.80398e-12 0 3.86725e-13)
(-5.7116e-12 0 -2.47809e-13)
(-5.44483e-12 0 -6.94179e-13)
(-5.11496e-12 0 -1.03508e-12)
(-4.74295e-12 0 -1.30157e-12)
(-4.33564e-12 0 -1.50664e-12)
(-3.90053e-12 0 -1.65666e-12)
(-3.446e-12 0 -1.75616e-12)
(-2.98188e-12 0 -1.80907e-12)
(-2.51786e-12 0 -1.81956e-12)
(-2.06299e-12 0 -1.79228e-12)
(-1.62534e-12 0 -1.73226e-12)
(-1.21172e-12 0 -1.6448e-12)
(-8.27556e-13 0 -1.53526e-12)
(-4.76904e-13 0 -1.40891e-12)
(-1.62488e-13 0 -1.2707e-12)
(1.14175e-13 0 -1.12518e-12)
(3.52625e-13 0 -9.76374e-13)
(5.53296e-13 0 -8.27748e-13)
(7.17339e-13 0 -6.82177e-13)
(8.46464e-13 0 -5.41959e-13)
(9.42778e-13 0 -4.08853e-13)
(1.00866e-12 0 -2.84129e-13)
(1.04662e-12 0 -1.68626e-13)
(1.05926e-12 0 -6.28235e-14)
(1.04913e-12 0 3.30903e-14)
(1.01874e-12 0 1.19155e-13)
(9.70471e-13 0 1.95577e-13)
(9.06604e-13 0 2.6268e-13)
(8.29264e-13 0 3.2086e-13)
(7.40441e-13 0 3.70546e-13)
(6.41984e-13 0 4.12172e-13)
(5.35614e-13 0 4.46149e-13)
(4.22938e-13 0 4.72849e-13)
(3.05463e-13 0 4.92585e-13)
(1.84619e-13 0 5.05602e-13)
(6.17645e-14 0 5.12068e-13)
(-1.38407e-05 0 -0.000667146)
(5.6019e-05 0 -0.000583037)
(0.000103364 0 -0.000460008)
(0.000113471 0 -0.000350982)
(0.000162985 0 -0.000224898)
(0.000212125 0 -0.000153888)
(0.000231084 0 -0.000150993)
(0.000252296 0 -0.00017493)
(0.000284026 0 -0.000173428)
(0.00030098 0 -0.000169508)
(0.000316141 0 -0.000164813)
(0.000327548 0 -0.000167544)
(0.000349803 0 -0.000153047)
(0.000359219 0 -0.0001629)
(0.000376361 0 -0.000164946)
(0.000385965 0 -0.000175947)
(0.000398491 0 -0.00016525)
(0.0003993 0 -0.000168524)
(0.000407313 0 -0.000167307)
(0.000417706 0 -0.000177627)
(0.000453369 0 -0.000114232)
(0.000439867 0 -0.000181048)
(0.000496369 0 -4.38158e-05)
(0.000460844 0 -0.000256203)
(0.000540078 0 -0.000115232)
(0.000560229 0 -8.0301e-05)
(0.00057935 0 -5.66565e-05)
(0.000613138 0 -5.55206e-05)
(0.000658151 0 -7.51844e-05)
(0.000709428 0 -7.16019e-05)
(0.000760022 0 -0.000105418)
(0.000816203 0 -0.000105932)
(0.000851966 0 -0.000191313)
(0.00090842 0 -0.000101763)
(0.000931161 0 -0.000201217)
(0.00099714 0 -0.000105199)
(0.00103473 0 -0.000132037)
(0.00106849 0 -9.13353e-05)
(0.00108945 0 -9.73544e-05)
(0.00112309 0 -9.11773e-05)
(0.00115879 0 -4.76441e-05)
(0.00115417 0 -4.46527e-05)
(0.00114353 0 -2.7939e-05)
(0.00113314 0 2.01746e-06)
(0.00111889 0 1.862e-05)
(0.00110165 0 1.7385e-05)
(0.00108863 0 1.52927e-05)
(0.00107858 0 3.76546e-05)
(0.00106658 0 4.64881e-05)
(0.00105349 0 5.11332e-05)
(0.00103965 0 5.32381e-05)
(0.0010244 0 7.20094e-05)
(0.00101001 0 6.00326e-05)
(0.000994633 0 6.21196e-05)
(0.000978185 0 6.17683e-05)
(0.000957733 0 3.86349e-05)
(0.000936496 0 2.5887e-05)
(0.0009195 0 2.57193e-05)
(0.000902148 0 5.35212e-05)
(0.000883519 0 1.88209e-05)
(0.000875326 0 4.51641e-05)
(0.000870832 0 5.69457e-05)
(0.000863397 0 5.66453e-05)
(0.000858979 0 6.04343e-05)
(0.000856702 0 6.27195e-05)
(0.000851563 0 6.7879e-05)
(0.000842373 0 7.10357e-05)
(0.000833295 0 6.4581e-05)
(0.000837852 0 6.10394e-05)
(0.000833035 0 0.000136438)
(0.000818217 0 0.000150191)
(0.000786993 0 0.00018177)
(0.000768983 0 0.000243272)
(0.000780763 0 0.000237601)
(0.000781419 0 0.000221701)
(0.000555966 0 0.000540622)
(0.000545681 0 0.000598165)
(0.000146123 0 0.000844398)
(0.000259075 0 0.000948769)
(-0.000428231 0 0.00118065)
(-0.000330029 0 0.000997914)
(-5.97892e-06 0 2.41664e-05)
(-2.49087e-12 0 9.76098e-13)
(-7.02671e-12 0 -2.51442e-14)
(-6.33854e-12 0 -6.15336e-13)
(-5.86935e-12 0 -1.06092e-12)
(-5.43941e-12 0 -1.42552e-12)
(-4.99614e-12 0 -1.72347e-12)
(-4.52713e-12 0 -1.95786e-12)
(-4.03491e-12 0 -2.13005e-12)
(-3.52699e-12 0 -2.24219e-12)
(-3.01353e-12 0 -2.29757e-12)
(-2.50488e-12 0 -2.30069e-12)
(-2.01072e-12 0 -2.25711e-12)
(-1.53959e-12 0 -2.17314e-12)
(-1.09849e-12 0 -2.05556e-12)
(-6.92866e-13 0 -1.91125e-12)
(-3.26519e-13 0 -1.74693e-12)
(-1.7668e-15 0 -1.56892e-12)
(2.80417e-13 0 -1.38296e-12)
(5.20198e-13 0 -1.19408e-12)
(7.18673e-13 0 -1.00657e-12)
(8.77658e-13 0 -8.23904e-13)
(9.99494e-13 0 -6.48847e-13)
(1.08687e-12 0 -4.83451e-13)
(1.14269e-12 0 -3.29153e-13)
(1.1699e-12 0 -1.86855e-13)
(1.17145e-12 0 -5.7017e-14)
(1.1502e-12 0 6.02556e-14)
(1.10886e-12 0 1.65127e-13)
(1.04999e-12 0 2.57955e-13)
(9.75935e-13 0 3.39228e-13)
(8.88898e-13 0 4.09508e-13)
(7.90878e-13 0 4.69387e-13)
(6.83712e-13 0 5.19449e-13)
(5.69083e-13 0 5.60241e-13)
(4.48538e-13 0 5.92249e-13)
(3.23513e-13 0 6.15882e-13)
(1.95353e-13 0 6.31457e-13)
(6.53266e-14 0 6.3919e-13)
(-2.44267e-05 0 -0.000693125)
(4.01224e-05 0 -0.000593279)
(4.10161e-05 0 -0.000469412)
(9.24355e-05 0 -0.000351182)
(9.62109e-05 0 -0.00030063)
(0.000158942 0 -0.000220377)
(0.000206484 0 -0.000187103)
(0.000236222 0 -0.000191179)
(0.000257142 0 -0.000194601)
(0.000272821 0 -0.000178998)
(0.000283519 0 -0.000170699)
(0.000288711 0 -0.000173144)
(0.000300106 0 -0.000169383)
(0.000303754 0 -0.000179344)
(0.000316411 0 -0.00017948)
(0.000327129 0 -0.000178036)
(0.000336538 0 -0.000171566)
(0.000342339 0 -0.000171278)
(0.000349964 0 -0.000174407)
(0.000368686 0 -0.000160731)
(0.000368619 0 -0.000185464)
(0.000414674 0 -0.000121584)
(0.000345409 0 -0.000328263)
(0.000471386 0 -0.000103018)
(0.000468575 0 -0.000140193)
(0.000467124 0 -0.000187316)
(0.000494722 0 -0.000206382)
(0.000548653 0 -0.000179295)
(0.000597467 0 -0.000167948)
(0.000636532 0 -0.000193812)
(0.000691565 0 -0.0001771)
(0.000736588 0 -0.000216696)
(0.000787446 0 -0.000227309)
(0.000846531 0 -0.000174292)
(0.000879403 0 -0.000265986)
(0.000970605 0 -0.000107199)
(0.000995342 0 -0.000244259)
(0.00105625 0 -5.99894e-05)
(0.00108067 0 -0.000112261)
(0.00110196 0 -0.000148458)
(0.00112844 0 -7.62784e-05)
(0.00112663 0 -5.73189e-05)
(0.0011153 0 -4.1147e-05)
(0.00110031 0 -3.67908e-06)
(0.00108385 0 1.65388e-05)
(0.00106218 0 2.74611e-05)
(0.00103773 0 3.26825e-05)
(0.0010148 0 5.90403e-05)
(0.000995493 0 5.20404e-05)
(0.000977602 0 7.30231e-05)
(0.000960676 0 7.61981e-05)
(0.00094134 0 7.85295e-05)
(0.000920469 0 7.30279e-05)
(0.000898386 0 5.34233e-05)
(0.000880612 0 5.26474e-05)
(0.000864085 0 6.3546e-05)
(0.000847039 0 5.98349e-05)
(0.000829074 0 6.19015e-05)
(0.000809279 0 5.59786e-05)
(0.000786087 0 2.59558e-05)
(0.000773385 0 3.9005e-05)
(0.000764091 0 4.09262e-05)
(0.00075579 0 3.11946e-05)
(0.00075665 0 3.6431e-05)
(0.000754767 0 5.59213e-05)
(0.000745639 0 6.51122e-05)
(0.000739704 0 7.15415e-05)
(0.000742788 0 7.26338e-05)
(0.000761601 0 5.02461e-05)
(0.000777384 0 0.00013415)
(0.00077177 0 0.000155786)
(0.000727311 0 0.000253317)
(0.000737972 0 0.000274408)
(0.000628941 0 0.000499488)
(0.000553658 0 0.000593909)
(0.000472237 0 0.000662335)
(0.000466951 0 0.000732466)
(0.000212039 0 0.00092589)
(0.000282635 0 0.00105468)
(8.53015e-05 0 0.00125022)
(-3.63518e-05 0 0.00108748)
(-2.52007e-12 0 3.19728e-12)
(-8.66905e-12 0 -1.01866e-12)
(-7.39471e-12 0 -8.47534e-13)
(-6.74672e-12 0 -1.12679e-12)
(-6.25447e-12 0 -1.50852e-12)
(-5.77708e-12 0 -1.88256e-12)
(-5.27498e-12 0 -2.20881e-12)
(-4.7421e-12 0 -2.47112e-12)
(-4.18485e-12 0 -2.66341e-12)
(-3.61352e-12 0 -2.78494e-12)
(-3.04038e-12 0 -2.83829e-12)
(-2.4774e-12 0 -2.8285e-12)
(-1.93545e-12 0 -2.76231e-12)
(-1.4238e-12 0 -2.64766e-12)
(-9.49823e-13 0 -2.49309e-12)
(-5.18919e-13 0 -2.30728e-12)
(-1.34571e-13 0 -2.09867e-12)
(2.01481e-13 0 -1.87512e-12)
(4.89008e-13 0 -1.64369e-12)
(7.29016e-13 0 -1.41047e-12)
(9.23474e-13 0 -1.18057e-12)
(1.07506e-12 0 -9.58067e-13)
(1.18692e-12 0 -7.46111e-13)
(1.26247e-12 0 -5.46978e-13)
(1.30525e-12 0 -3.6219e-13)
(1.31876e-12 0 -1.92621e-13)
(1.30637e-12 0 -3.86251e-14)
(1.27128e-12 0 9.9855e-14)
(1.21644e-12 0 2.23182e-13)
(1.14457e-12 0 3.3193e-13)
(1.05816e-12 0 4.26808e-13)
(9.59424e-13 0 5.08592e-13)
(8.50383e-13 0 5.78074e-13)
(7.32838e-13 0 6.3602e-13)
(6.08415e-13 0 6.83134e-13)
(4.78579e-13 0 7.20037e-13)
(3.44671e-13 0 7.47246e-13)
(2.07927e-13 0 7.6516e-13)
(6.94977e-14 0 7.74049e-13)
(-2.75851e-05 0 -0.000705359)
(3.05847e-05 0 -0.000595105)
(-5.61534e-05 0 -0.000474914)
(1.51419e-05 0 -0.000403815)
(0.00012155 0 -0.000342242)
(0.000109923 0 -0.000299093)
(0.000205074 0 -0.000233421)
(0.000220383 0 -0.000217758)
(0.000246821 0 -0.00020144)
(0.000248421 0 -0.000197107)
(0.000262841 0 -0.000177471)
(0.000263727 0 -0.000177798)
(0.000266728 0 -0.000179483)
(0.000271336 0 -0.000182602)
(0.000276491 0 -0.000186395)
(0.000284044 0 -0.000187192)
(0.000292735 0 -0.000185718)
(0.000299455 0 -0.000189102)
(0.000312597 0 -0.000187459)
(0.00032065 0 -0.000198976)
(0.000351263 0 -0.000167945)
(0.000348193 0 -0.000212746)
(0.000394665 0 -0.000152243)
(0.000383736 0 -0.00020302)
(0.000393134 0 -0.000227395)
(0.000432606 0 -0.000196657)
(0.000471848 0 -0.000168451)
(0.000503715 0 -0.00017711)
(0.000536981 0 -0.000205748)
(0.000584612 0 -0.000215581)
(0.000634591 0 -0.000230576)
(0.00069613 0 -0.000236399)
(0.000744273 0 -0.000277655)
(0.000835153 0 -0.000174443)
(0.000843299 0 -0.000376432)
(0.000970297 0 -0.000151965)
(0.00100296 0 -0.000259666)
(0.00105601 0 -0.000122356)
(0.00108471 0 -0.00011048)
(0.00110343 0 -0.000175861)
(0.00113252 0 -6.91938e-05)
(0.00113268 0 -3.86515e-05)
(0.00112051 0 -1.52663e-05)
(0.00109762 0 2.17252e-05)
(0.00107465 0 4.67429e-05)
(0.00104858 0 5.48876e-05)
(0.00101684 0 6.54846e-05)
(0.000985545 0 7.81544e-05)
(0.000958718 0 8.18275e-05)
(0.0009339 0 8.2243e-05)
(0.000910095 0 9.65048e-05)
(0.00088941 0 9.86215e-05)
(0.000865412 0 0.000120653)
(0.000845497 0 9.2438e-05)
(0.000818926 0 0.000101783)
(0.00079033 0 7.43658e-05)
(0.000770391 0 3.64547e-05)
(0.000757872 0 5.90891e-05)
(0.000742187 0 7.82021e-05)
(0.000728472 0 4.62677e-05)
(0.000720785 0 6.70236e-05)
(0.000710426 0 6.73258e-05)
(0.000700634 0 4.84125e-05)
(0.00070969 0 4.90171e-05)
(0.000709126 0 4.54971e-05)
(0.000685658 0 5.73827e-05)
(0.000683185 0 7.40078e-05)
(0.000698589 0 4.43773e-05)
(0.000717669 0 5.8569e-05)
(0.000726263 0 0.000153639)
(0.000737266 0 0.000172678)
(0.000721424 0 0.000215437)
(0.000731686 0 0.000210966)
(0.00064329 0 0.00038821)
(0.000558025 0 0.000554063)
(0.000540899 0 0.000683157)
(0.000362279 0 0.000926588)
(0.000424444 0 0.00100406)
(0.000395443 0 0.00111408)
(0.000150948 0 0.00127257)
(2.50023e-06 0 0.00112549)
(-3.44569e-12 0 -2.66651e-12)
(-6.53372e-12 0 -1.31972e-12)
(-7.13473e-12 0 -1.21981e-12)
(-6.9992e-12 0 -1.5356e-12)
(-6.62478e-12 0 -1.96366e-12)
(-6.13943e-12 0 -2.38731e-12)
(-5.58452e-12 0 -2.758e-12)
(-4.98168e-12 0 -3.05431e-12)
(-4.34873e-12 0 -3.2675e-12)
(-3.70187e-12 0 -3.3958e-12)
(-3.05709e-12 0 -3.44212e-12)
(-2.4289e-12 0 -3.41266e-12)
(-1.82989e-12 0 -3.31597e-12)
(-1.27036e-12 0 -3.1621e-12)
(-7.58108e-13 0 -2.96185e-12)
(-2.98448e-13 0 -2.72612e-12)
(1.05635e-13 0 -2.46537e-12)
(4.53212e-13 0 -2.18924e-12)
(7.45066e-13 0 -1.90623e-12)
(9.8332e-13 0 -1.62358e-12)
(1.17108e-12 0 -1.34719e-12)
(1.31212e-12 0 -1.08171e-12)
(1.41058e-12 0 -8.30578e-13)
(1.47079e-12 0 -5.96187e-13)
(1.49704e-12 0 -3.80023e-13)
(1.49346e-12 0 -1.82818e-13)
(1.46393e-12 0 -4.70705e-15)
(1.41201e-12 0 1.54632e-13)
(1.34094e-12 0 2.9585e-13)
(1.25361e-12 0 4.19816e-13)
(1.1526e-12 0 5.27523e-13)
(1.04016e-12 0 6.20016e-13)
(9.18305e-13 0 6.9833e-13)
(7.88771e-13 0 7.63447e-13)
(6.531e-13 0 8.16256e-13)
(5.1265e-13 0 8.57532e-13)
(3.68636e-13 0 8.87915e-13)
(2.22156e-13 0 9.07894e-13)
(7.42161e-14 0 9.17802e-13)
(-2.2662e-05 0 -0.000709413)
(7.73601e-06 0 -0.000601829)
(4.86937e-05 0 -0.000509612)
(0.000109172 0 -0.00044279)
(0.000137723 0 -0.000376814)
(0.000126319 0 -0.00032407)
(0.000221722 0 -0.000256893)
(0.000211692 0 -0.000245487)
(0.00024314 0 -0.000207908)
(0.000239513 0 -0.00020092)
(0.000245728 0 -0.000186164)
(0.000248104 0 -0.000178628)
(0.000242553 0 -0.00018632)
(0.000247099 0 -0.000187305)
(0.00024944 0 -0.00019252)
(0.000249604 0 -0.000200333)
(0.000258608 0 -0.000199064)
(0.000274249 0 -0.000191592)
(0.000276258 0 -0.000208125)
(0.000295737 0 -0.000203643)
(0.000304454 0 -0.000212999)
(0.000334784 0 -0.000191714)
(0.000329234 0 -0.000233816)
(0.000355948 0 -0.000219407)
(0.000380947 0 -0.000207296)
(0.000400808 0 -0.000214796)
(0.000423378 0 -0.00023433)
(0.000466313 0 -0.000236639)
(0.000508081 0 -0.000252136)
(0.000559519 0 -0.000263667)
(0.000605235 0 -0.000293597)
(0.000673252 0 -0.000299127)
(0.000707671 0 -0.000374368)
(0.000827303 0 -0.000271807)
(0.00081685 0 -0.000489506)
(0.000984904 0 -0.000226161)
(0.000996963 0 -0.000367587)
(0.00108139 0 -0.000112515)
(0.0010849 0 -0.000304965)
(0.00114377 0 -0.000113376)
(0.00113889 0 -8.57641e-05)
(0.00113494 0 -1.33945e-05)
(0.00112507 0 6.18566e-06)
(0.00110235 0 4.42471e-05)
(0.00107554 0 7.55576e-05)
(0.001047 0 8.57476e-05)
(0.00101275 0 9.67814e-05)
(0.000978258 0 0.000105365)
(0.000946144 0 0.000111369)
(0.000911758 0 0.000125267)
(0.000882913 0 0.000117911)
(0.000858233 0 0.000124092)
(0.000836548 0 8.8533e-05)
(0.000804678 0 0.000114938)
(0.000784248 0 0.000104439)
(0.000767252 0 9.48481e-05)
(0.000749564 0 0.000108686)
(0.00072957 0 0.000111078)
(0.000700623 0 0.000108481)
(0.000691007 0 5.9395e-05)
(0.000685292 0 7.24777e-05)
(0.000670765 0 6.95206e-05)
(0.000659734 0 3.7812e-05)
(0.000665019 0 1.04672e-05)
(0.000654862 0 0.000191985)
(0.000684334 0 2.80811e-05)
(0.000694656 0 9.53337e-06)
(0.000717763 0 2.46839e-05)
(0.00071626 0 9.08344e-06)
(0.000688075 0 9.31172e-05)
(0.000638613 0 0.000268614)
(0.000716218 0 0.000211694)
(0.000590882 0 0.000488328)
(0.000587432 0 0.000517908)
(0.000512963 0 0.000630556)
(0.000489958 0 0.000768299)
(0.000361098 0 0.000983009)