0 	1.45182e-20 	0 	-2.54069e-20
0.010101 	5.12875e-21 	-1.01382e-22 	5.9246e-21
0.020202 	-2.96081e-20 	-6.72474e-23 	-7.28252e-20
0.030303 	-5.27215e-20 	3.41347e-23 	-1.58812e-20
0.040404 	1.25838e-20 	3.04487e-22 	-6.83889e-20
0.0505051 	2.07401e-20 	6.75881e-23 	2.93987e-20
