0 	-7.25912e-21 	0 	2.90365e-20
0.010101 	-6.14444e-22 	1.69311e-22 	-5.60094e-20
0.020202 	1.71239e-20 	3.4305e-23 	-8.96895e-20
0.030303 	-2.77823e-21 	-6.74177e-23 	-1.10548e-20
0.040404 	8.19248e-20 	3.39644e-23 	-7.29535e-20
0.0505051 	1.20616e-20 	-6.8099e-23 	4.14119e-21
