/*--------------------------------*- C++ -*----------------------------------*\
  =========                 |
  \\      /  F ield         | OpenFOAM: The Open Source CFD Toolbox
   \\    /   O peration     | Website:  https://openfoam.org
    \\  /    A nd           | Version:  6
     \\/     M anipulation  |
\*---------------------------------------------------------------------------*/
FoamFile
{
    version     2.0;
    format      ascii;
    class       volScalarField;
    location    "2000";
    object      dmdt;
}
// * * * * * * * * * * * * * * * * * * * * * * * * * * * * * * * * * * * * * //

dimensions      [0 0 0 0 0 0 0];

internalField   nonuniform List<scalar> 
4800
(
-0.219375
-0.216943
-0.214508
-0.212071
-0.209628
-0.20718
-0.204725
-0.202261
-0.199788
-0.197305
-0.194809
-0.192302
-0.18978
-0.187245
-0.184695
-0.182129
-0.179547
-0.176948
-0.174332
-0.171699
-0.169048
-0.16638
-0.163693
-0.160989
-0.158267
-0.155528
-0.152771
-0.149998
-0.147208
-0.144401
-0.14158
-0.138743
-0.135891
-0.133026
-0.130148
-0.127257
-0.124355
-0.121443
-0.11852
-0.115589
-0.11265
-0.109703
-0.106751
-0.103793
-0.100831
-0.0978663
-0.0948992
-0.0919308
-0.0889621
-0.085994
-0.0830274
-0.0800632
-0.0771022
-0.0741452
-0.0711929
-0.0682461
-0.0653054
-0.0623712
-0.0594443
-0.0565249
-0.0536135
-0.0507104
-0.0478159
-0.04493
-0.0420528
-0.0391845
-0.0363249
-0.0334739
-0.0306312
-0.0277967
-0.02497
-0.0221507
-0.0193383
-0.0165323
-0.0137321
-0.0109372
-0.00814668
-0.00536
-0.00257639
0.000108384
0.00325269
0.00629716
0.0093364
0.0123686
0.0153919
0.0184046
0.0214049
0.0243913
0.0273623
0.0303165
0.0332524
0.0361691
0.0390652
0.0419399
0.0447923
0.0476217
0.0504274
0.0532091
0.0559664
0.0586991
0.0614072
0.0640908
0.0667502
0.0693857
0.0719978
0.0745872
0.0771547
0.0797012
0.0822277
0.0847354
0.0872255
0.0896994
0.0921585
0.0946044
0.0970386
0.0994628
0.101879
0.104288
0.106693
0.109095
-0.219375
-0.216943
-0.214509
-0.212072
-0.20963
-0.207182
-0.204727
-0.202263
-0.199791
-0.197307
-0.194812
-0.192305
-0.189784
-0.187248
-0.184698
-0.182132
-0.17955
-0.176951
-0.174336
-0.171702
-0.169052
-0.166383
-0.163697
-0.160993
-0.158271
-0.155531
-0.152775
-0.150001
-0.147211
-0.144405
-0.141583
-0.138746
-0.135894
-0.133029
-0.130151
-0.12726
-0.124358
-0.121445
-0.118522
-0.115591
-0.112651
-0.109705
-0.106752
-0.103794
-0.100832
-0.0978671
-0.0948997
-0.091931
-0.088962
-0.0859937
-0.0830268
-0.0800624
-0.0771011
-0.0741439
-0.0711914
-0.0682444
-0.0653034
-0.0623691
-0.059442
-0.0565225
-0.053611
-0.0507078
-0.0478132
-0.0449273
-0.0420501
-0.0391818
-0.0363222
-0.0334712
-0.0306287
-0.0277943
-0.0249677
-0.0221486
-0.0193363
-0.0165306
-0.0137306
-0.0109359
-0.00814563
-0.00535919
-0.00257581
0.000108558
0.00325337
0.0062981
0.00933759
0.01237
0.0153935
0.0184064
0.021407
0.0243936
0.0273647
0.030319
0.0332552
0.0361719
0.0390681
0.0419429
0.0447954
0.0476248
0.0504306
0.0532123
0.0559696
0.0587023
0.0614104
0.064094
0.0667532
0.0693886
0.0720007
0.07459
0.0771573
0.0797037
0.0822301
0.0847376
0.0872275
0.0897012
0.0921601
0.0946057
0.0970397
0.0994637
0.101879
0.104289
0.106693
0.109095
-0.219375
-0.216944
-0.21451
-0.212073
-0.209631
-0.207184
-0.204729
-0.202266
-0.199793
-0.19731
-0.194815
-0.192308
-0.189787
-0.187252
-0.184702
-0.182136
-0.179554
-0.176955
-0.17434
-0.171707
-0.169056
-0.166387
-0.163701
-0.160997
-0.158275
-0.155536
-0.152779
-0.150005
-0.147215
-0.144409
-0.141587
-0.13875
-0.135898
-0.133033
-0.130154
-0.127264
-0.124361
-0.121448
-0.118526
-0.115594
-0.112654
-0.109707
-0.106754
-0.103796
-0.100834
-0.0978683
-0.0949006
-0.0919315
-0.0889622
-0.0859934
-0.0830262
-0.0800613
-0.0770997
-0.0741421
-0.0711892
-0.0682418
-0.0653005
-0.0623659
-0.0594386
-0.0565188
-0.0536071
-0.0507038
-0.047809
-0.044923
-0.0420458
-0.0391775
-0.036318
-0.0334671
-0.0306247
-0.0277905
-0.0249641
-0.0221452
-0.0193333
-0.0165278
-0.0137282
-0.0109338
-0.00814399
-0.00535796
-0.002575
0.000108749
0.00325397
0.0062989
0.00933857
0.0123711
0.0153948
0.0184079
0.0214085
0.0243953
0.0273665
0.0303209
0.0332571
0.0361739
0.0390702
0.0419451
0.0447976
0.0476271
0.0504329
0.0532146
0.0559719
0.0587046
0.0614126
0.0640961
0.0667554
0.0693907
0.0720026
0.0745919
0.0771591
0.0797054
0.0822316
0.084739
0.0872288
0.0897024
0.0921611
0.0946066
0.0970405
0.0994643
0.10188
0.104289
0.106693
0.109095
-0.219376
-0.216944
-0.214511
-0.212075
-0.209634
-0.207187
-0.204732
-0.20227
-0.199797
-0.197314
-0.19482
-0.192313
-0.189792
-0.187257
-0.184707
-0.182141
-0.17956
-0.176961
-0.174345
-0.171712
-0.169061
-0.166393
-0.163706
-0.161002
-0.15828
-0.155541
-0.152784
-0.150011
-0.14722
-0.144414
-0.141592
-0.138755
-0.135903
-0.133038
-0.13016
-0.127269
-0.124366
-0.121453
-0.11853
-0.115598
-0.112658
-0.109711
-0.106757
-0.103799
-0.100836
-0.0978701
-0.0949018
-0.0919323
-0.0889624
-0.085993
-0.0830252
-0.0800598
-0.0770976
-0.0741394
-0.071186
-0.0682381
-0.0652964
-0.0623614
-0.0594336
-0.0565135
-0.0536015
-0.0506979
-0.047803
-0.0449169
-0.0420396
-0.0391713
-0.0363119
-0.0334611
-0.0306189
-0.027785
-0.0249589
-0.0221404
-0.0193289
-0.0165238
-0.0137247
-0.0109309
-0.00814166
-0.00535622
-0.00257388
0.000108996
0.00325467
0.00629979
0.00933964
0.0123724
0.0153962
0.0184094
0.0214102
0.024397
0.0273684
0.0303229
0.0332592
0.036176
0.0390724
0.0419473
0.0447998
0.0476293
0.0504351
0.0532168
0.0559741
0.0587068
0.0614148
0.0640983
0.0667575
0.0693927
0.0720046
0.0745937
0.0771609
0.0797071
0.0822332
0.0847405
0.0872302
0.0897036
0.0921622
0.0946075
0.0970412
0.0994649
0.10188
0.104289
0.106694
0.109095
-0.219376
-0.216946
-0.214513
-0.212077
-0.209637
-0.20719
-0.204736
-0.202274
-0.199802
-0.19732
-0.194826
-0.192319
-0.189798
-0.187264
-0.184714
-0.182148
-0.179566
-0.176968
-0.174352
-0.171719
-0.169068
-0.1664
-0.163713
-0.161009
-0.158287
-0.155548
-0.152791
-0.150017
-0.147227
-0.144421
-0.141599
-0.138762
-0.13591
-0.133045
-0.130166
-0.127275
-0.124372
-0.121459
-0.118536
-0.115603
-0.112663
-0.109715
-0.106761
-0.103802
-0.100839
-0.0978724
-0.0949034
-0.0919332
-0.0889625
-0.0859925
-0.0830239
-0.0800577
-0.0770948
-0.0741359
-0.0711818
-0.0682333
-0.0652909
-0.0623553
-0.059427
-0.0565065
-0.0535942
-0.0506903
-0.0477951
-0.0449088
-0.0420315
-0.0391632
-0.0363039
-0.0334533
-0.0306114
-0.0277777
-0.0249521
-0.022134
-0.0193231
-0.0165187
-0.0137202
-0.0109271
-0.0081386
-0.00535396
-0.00257243
0.000109303
0.00325549
0.0063008
0.00934082
0.0123737
0.0153977
0.018411
0.0214119
0.0243989
0.0273703
0.0303249
0.0332612
0.0361782
0.0390746
0.0419495
0.0448021
0.0476315
0.0504374
0.0532191
0.0559763
0.058709
0.061417
0.0641004
0.0667595
0.0693947
0.0720065
0.0745956
0.0771627
0.0797087
0.0822347
0.0847419
0.0872315
0.0897047
0.0921632
0.0946084
0.097042
0.0994656
0.101881
0.10429
0.106694
0.109095
-0.219376
-0.216947
-0.214515
-0.21208
-0.20964
-0.207194
-0.204741
-0.20228
-0.199808
-0.197326
-0.194833
-0.192326
-0.189806
-0.187271
-0.184722
-0.182156
-0.179575
-0.176976
-0.17436
-0.171727
-0.169076
-0.166408
-0.163721
-0.161017
-0.158295
-0.155556
-0.152799
-0.150026
-0.147235
-0.144429
-0.141607
-0.13877
-0.135918
-0.133052
-0.130174
-0.127283
-0.12438
-0.121466
-0.118542
-0.11561
-0.112669
-0.109721
-0.106766
-0.103806
-0.100842
-0.097875
-0.0949052
-0.0919341
-0.0889626
-0.0859916
-0.0830222
-0.0800551
-0.0770912
-0.0741315
-0.0711765
-0.0682272
-0.0652841
-0.0623478
-0.0594189
-0.0564978
-0.053585
-0.0506807
-0.0477853
-0.0448988
-0.0420214
-0.0391532
-0.0362939
-0.0334436
-0.030602
-0.0277688
-0.0249436
-0.0221262
-0.0193159
-0.0165122
-0.0137146
-0.0109224
-0.00813482
-0.00535115
-0.00257064
0.000109672
0.00325644
0.00630193
0.00934212
0.0123752
0.0153993
0.0184127
0.0214137
0.0244008
0.0273723
0.030327
0.0332634
0.0361803
0.0390768
0.0419517
0.0448043
0.0476338
0.0504396
0.0532213
0.0559786
0.0587112
0.0614191
0.0641025
0.0667615
0.0693967
0.0720084
0.0745974
0.0771644
0.0797103
0.0822362
0.0847433
0.0872327
0.0897059
0.0921642
0.0946093
0.0970427
0.0994662
0.101881
0.10429
0.106694
0.109095
-0.219377
-0.216948
-0.214517
-0.212083
-0.209644
-0.207199
-0.204747
-0.202286
-0.199816
-0.197334
-0.194841
-0.192335
-0.189815
-0.187281
-0.184731
-0.182166
-0.179585
-0.176986
-0.17437
-0.171737
-0.169086
-0.166418
-0.163731
-0.161027
-0.158305
-0.155566
-0.152809
-0.150035
-0.147245
-0.144438
-0.141616
-0.138779
-0.135927
-0.133062
-0.130183
-0.127291
-0.124388
-0.121474
-0.11855
-0.115617
-0.112676
-0.109727
-0.106772
-0.103811
-0.100846
-0.0978779
-0.0949072
-0.091935
-0.0889625
-0.0859904
-0.0830199
-0.0800517
-0.0770868
-0.0741259
-0.07117
-0.0682197
-0.0652757
-0.0623386
-0.0594089
-0.0564872
-0.0535739
-0.0506692
-0.0477734
-0.0448867
-0.0420093
-0.039141
-0.036282
-0.0334319
-0.0305907
-0.027758
-0.0249334
-0.0221167
-0.0193072
-0.0165045
-0.0137079
-0.0109167
-0.00813027
-0.00534779
-0.00256849
0.000110107
0.00325753
0.0063032
0.00934355
0.0123768
0.015401
0.0184145
0.0214157
0.0244028
0.0273744
0.0303291
0.0332656
0.0361826
0.039079
0.041954
0.0448066
0.0476361
0.0504419
0.0532235
0.0559808
0.0587133
0.0614212
0.0641045
0.0667635
0.0693986
0.0720102
0.0745991
0.077166
0.0797119
0.0822377
0.0847446
0.087234
0.089707
0.0921652
0.0946102
0.0970435
0.0994668
0.101882
0.10429
0.106694
0.109095
-0.219377
-0.21695
-0.21452
-0.212087
-0.209649
-0.207205
-0.204754
-0.202294
-0.199824
-0.197343
-0.194851
-0.192345
-0.189826
-0.187292
-0.184743
-0.182178
-0.179596
-0.176998
-0.174382
-0.171749
-0.169098
-0.166429
-0.163743
-0.161038
-0.158316
-0.155577
-0.15282
-0.150046
-0.147256
-0.144449
-0.141627
-0.13879
-0.135938
-0.133072
-0.130193
-0.127301
-0.124398
-0.121483
-0.118559
-0.115625
-0.112683
-0.109734
-0.106778
-0.103816
-0.10085
-0.097881
-0.0949091
-0.0919358
-0.088962
-0.0859887
-0.0830169
-0.0800475
-0.0770813
-0.0741193
-0.0711622
-0.0682108
-0.0652657
-0.0623277
-0.0593972
-0.0564747
-0.0535608
-0.0506556
-0.0477595
-0.0448726
-0.041995
-0.0391268
-0.0362679
-0.0334182
-0.0305774
-0.0277453
-0.0249215
-0.0221056
-0.0192971
-0.0164955
-0.0137
-0.0109101
-0.00812495
-0.00534385
-0.00256598
0.000110612
0.00325879
0.00630463
0.00934514
0.0123785
0.0154028
0.0184165
0.0214177
0.0244049
0.0273766
0.0303313
0.0332678
0.0361849
0.0390813
0.0419563
0.0448089
0.0476384
0.0504441
0.0532258
0.0559829
0.0587155
0.0614233
0.0641066
0.0667655
0.0694005
0.0720121
0.0746008
0.0771677
0.0797134
0.0822391
0.084746
0.0872352
0.0897081
0.0921662
0.094611
0.0970442
0.0994674
0.101882
0.104291
0.106694
0.109095
-0.219378
-0.216952
-0.214523
-0.212092
-0.209655
-0.207212
-0.204762
-0.202303
-0.199834
-0.197354
-0.194862
-0.192357
-0.189838
-0.187305
-0.184756
-0.182191
-0.179609
-0.177011
-0.174395
-0.171762
-0.169111
-0.166442
-0.163756
-0.161051
-0.158329
-0.155589
-0.152832
-0.150059
-0.147268
-0.144461
-0.141639
-0.138802
-0.13595
-0.133084
-0.130204
-0.127312
-0.124409
-0.121494
-0.118569
-0.115634
-0.112692
-0.109741
-0.106784
-0.103822
-0.100855
-0.0978841
-0.094911
-0.0919363
-0.0889611
-0.0859864
-0.0830132
-0.0800423
-0.0770747
-0.0741113
-0.0711529
-0.0682003
-0.0652541
-0.062315
-0.0593836
-0.0564603
-0.0535456
-0.0506399
-0.0477434
-0.0448563
-0.0419786
-0.0391105
-0.0362519
-0.0334025
-0.0305623
-0.0277309
-0.0249079
-0.022093
-0.0192856
-0.0164851
-0.013691
-0.0109025
-0.00811887
-0.00533933
-0.00256308
0.000111189
0.00326021
0.00630622
0.00934688
0.0123804
0.0154048
0.0184186
0.0214199
0.0244071
0.0273789
0.0303337
0.0332702
0.0361872
0.0390837
0.0419586
0.0448112
0.0476407
0.0504464
0.053228
0.0559851
0.0587176
0.0614254
0.0641086
0.0667674
0.0694024
0.0720138
0.0746025
0.0771693
0.0797149
0.0822405
0.0847473
0.0872363
0.0897092
0.0921672
0.0946119
0.0970449
0.0994679
0.101883
0.104291
0.106695
0.109096
-0.219379
-0.216954
-0.214527
-0.212096
-0.209661
-0.207219
-0.20477
-0.202312
-0.199844
-0.197365
-0.194874
-0.19237
-0.189852
-0.187319
-0.18477
-0.182206
-0.179625
-0.177026
-0.174411
-0.171777
-0.169126
-0.166457
-0.163771
-0.161066
-0.158344
-0.155604
-0.152847
-0.150072
-0.147282
-0.144475
-0.141653
-0.138815
-0.135963
-0.133096
-0.130217
-0.127325
-0.12442
-0.121505
-0.118579
-0.115644
-0.112701
-0.109749
-0.106791
-0.103828
-0.100859
-0.0978873
-0.0949127
-0.0919365
-0.0889598
-0.0859835
-0.0830086
-0.0800362
-0.077067
-0.0741021
-0.0711422
-0.0681882
-0.0652407
-0.0623005
-0.059368
-0.0564439
-0.0535285
-0.0506222
-0.0477253
-0.0448379
-0.0419602
-0.0390922
-0.0362338
-0.0333849
-0.0305453
-0.0277146
-0.0248926
-0.0220788
-0.0192726
-0.0164735
-0.0136809
-0.010894
-0.00811202
-0.00533424
-0.00255981
0.000111836
0.00326181
0.00630798
0.00934878
0.0123824
0.015407
0.0184208
0.0214222
0.0244095
0.0273813
0.0303361
0.0332726
0.0361896
0.0390861
0.041961
0.0448136
0.047643
0.0504487
0.0532302
0.0559873
0.0587197
0.0614274
0.0641106
0.0667694
0.0694042
0.0720156
0.0746042
0.0771708
0.0797164
0.0822419
0.0847485
0.0872375
0.0897102
0.0921681
0.0946127
0.0970456
0.0994685
0.101883
0.104291
0.106695
0.109096
-0.21938
-0.216956
-0.214531
-0.212102
-0.209668
-0.207228
-0.20478
-0.202323
-0.199857
-0.197379
-0.194888
-0.192385
-0.189867
-0.187335
-0.184787
-0.182223
-0.179642
-0.177043
-0.174428
-0.171795
-0.169143
-0.166474
-0.163787
-0.161082
-0.15836
-0.15562
-0.152862
-0.150088
-0.147297
-0.14449
-0.141667
-0.13883
-0.135977
-0.133111
-0.130231
-0.127338
-0.124433
-0.121517
-0.118591
-0.115655
-0.11271
-0.109758
-0.106799
-0.103834
-0.100864
-0.0978905
-0.0949143
-0.0919364
-0.0889579
-0.0859799
-0.0830033
-0.080029
-0.0770582
-0.0740916
-0.0711301
-0.0681746
-0.0652258
-0.0622842
-0.0593507
-0.0564256
-0.0535094
-0.0506024
-0.0477051
-0.0448175
-0.0419397
-0.0390718
-0.0362137
-0.0333653
-0.0305264
-0.0276967
-0.0248757
-0.022063
-0.0192582
-0.0164607
-0.0136697
-0.0108845
-0.00810445
-0.00532861
-0.00255617
0.000112553
0.00326359
0.00630992
0.00935086
0.0123846
0.0154093
0.0184232
0.0214246
0.024412
0.0273838
0.0303386
0.0332751
0.0361921
0.0390886
0.0419635
0.044816
0.0476454
0.050451
0.0532325
0.0559895
0.0587218
0.0614295
0.0641125
0.0667713
0.069406
0.0720173
0.0746058
0.0771724
0.0797178
0.0822432
0.0847498
0.0872386
0.0897112
0.092169
0.0946135
0.0970462
0.099469
0.101884
0.104292
0.106695
0.109096
-0.21938
-0.216959
-0.214535
-0.212108
-0.209675
-0.207237
-0.20479
-0.202335
-0.19987
-0.197393
-0.194904
-0.192401
-0.189884
-0.187353
-0.184805
-0.182241
-0.17966
-0.177062
-0.174447
-0.171813
-0.169162
-0.166493
-0.163806
-0.1611
-0.158378
-0.155637
-0.15288
-0.150105
-0.147314
-0.144507
-0.141684
-0.138846
-0.135993
-0.133126
-0.130246
-0.127352
-0.124447
-0.12153
-0.118603
-0.115666
-0.112721
-0.109767
-0.106807
-0.10384
-0.100869
-0.0978937
-0.0949157
-0.091936
-0.0889556
-0.0859757
-0.0829971
-0.080021
-0.0770482
-0.0740799
-0.0711167
-0.0681595
-0.0652092
-0.0622663
-0.0593316
-0.0564055
-0.0534884
-0.0505809
-0.0476831
-0.0447952
-0.0419174
-0.0390496
-0.0361919
-0.0333441
-0.030506
-0.0276771
-0.0248573
-0.022046
-0.0192427
-0.0164467
-0.0136575
-0.0108743
-0.00809622
-0.00532247
-0.00255219
0.000113337
0.00326554
0.00631203
0.00935312
0.012387
0.0154118
0.0184257
0.0214272
0.0244146
0.0273864
0.0303412
0.0332777
0.0361947
0.0390912
0.041966
0.0448184
0.0476477
0.0504533
0.0532348
0.0559917
0.058724
0.0614315
0.0641145
0.0667731
0.0694078
0.072019
0.0746074
0.0771739
0.0797192
0.0822446
0.084751
0.0872397
0.0897122
0.0921699
0.0946142
0.0970469
0.0994696
0.101884
0.104292
0.106695
0.109096
-0.219381
-0.216961
-0.214539
-0.212114
-0.209683
-0.207246
-0.204801
-0.202347
-0.199883
-0.197408
-0.19492
-0.192418
-0.189903
-0.187371
-0.184825
-0.182261
-0.179681
-0.177083
-0.174468
-0.171834
-0.169183
-0.166513
-0.163826
-0.16112
-0.158397
-0.155656
-0.152898
-0.150124
-0.147332
-0.144525
-0.141701
-0.138863
-0.13601
-0.133143
-0.130262
-0.127368
-0.124462
-0.121545
-0.118617
-0.115679
-0.112732
-0.109777
-0.106815
-0.103847
-0.100874
-0.097897
-0.0949171
-0.0919354
-0.088953
-0.085971
-0.0829903
-0.0800121
-0.0770374
-0.0740671
-0.0711021
-0.0681433
-0.0651913
-0.0622471
-0.0593111
-0.0563839
-0.053466
-0.0505578
-0.0476595
-0.0447714
-0.0418935
-0.039026
-0.0361687
-0.0333215
-0.0304841
-0.0276564
-0.0248378
-0.0220278
-0.0192261
-0.0164319
-0.0136446
-0.0108634
-0.00808743
-0.00531592
-0.00254793
0.000114179
0.00326765
0.00631431
0.00935554
0.0123895
0.0154144
0.0184284
0.02143
0.0244174
0.0273892
0.030344
0.0332805
0.0361974
0.0390938
0.0419686
0.0448209
0.0476502
0.0504557
0.053237
0.0559939
0.0587261
0.0614335
0.0641164
0.066775
0.0694095
0.0720207
0.074609
0.0771754
0.0797206
0.0822458
0.0847521
0.0872408
0.0897132
0.0921707
0.094615
0.0970475
0.0994701
0.101884
0.104292
0.106695
0.109096
-0.219382
-0.216964
-0.214544
-0.21212
-0.209691
-0.207255
-0.204812
-0.20236
-0.199897
-0.197423
-0.194937
-0.192436
-0.189922
-0.187392
-0.184845
-0.182283
-0.179703
-0.177105
-0.17449
-0.171857
-0.169205
-0.166535
-0.163848
-0.161142
-0.158418
-0.155677
-0.152919
-0.150144
-0.147352
-0.144544
-0.141721
-0.138882
-0.136028
-0.133161
-0.130279
-0.127385
-0.124479
-0.12156
-0.118631
-0.115692
-0.112744
-0.109788
-0.106824
-0.103855
-0.10088
-0.0979008
-0.0949188
-0.091935
-0.0889504
-0.0859661
-0.0829832
-0.0800029
-0.077026
-0.0740537
-0.0710867
-0.0681261
-0.0651725
-0.0622268
-0.0592895
-0.0563612
-0.0534424
-0.0505335
-0.0476348
-0.0447465
-0.0418686
-0.0390013
-0.0361444
-0.0332979
-0.0304614
-0.0276347
-0.0248174
-0.0220089
-0.0192088
-0.0164164
-0.0136311
-0.010852
-0.00807825
-0.00530905
-0.00254345
0.000115066
0.00326989
0.00631673
0.00935811
0.0123922
0.0154172
0.0184313
0.0214329
0.0244203
0.0273921
0.0303469
0.0332833
0.0362002
0.0390965
0.0419712
0.0448235
0.0476526
0.0504581
0.0532393
0.0559961
0.0587282
0.0614356
0.0641183
0.0667768
0.0694113
0.0720223
0.0746106
0.0771768
0.079722
0.0822471
0.0847533
0.0872418
0.0897141
0.0921716
0.0946157
0.0970481
0.0994706
0.101885
0.104293
0.106696
0.109096
-0.219383
-0.216967
-0.214548
-0.212126
-0.209699
-0.207265
-0.204823
-0.202373
-0.199912
-0.197439
-0.194954
-0.192455
-0.189941
-0.187412
-0.184867
-0.182305
-0.179726
-0.177129
-0.174514
-0.17188
-0.169229
-0.166559
-0.163871
-0.161165
-0.158441
-0.1557
-0.152941
-0.150165
-0.147373
-0.144565
-0.141741
-0.138902
-0.136048
-0.13318
-0.130299
-0.127404
-0.124497
-0.121578
-0.118648
-0.115707
-0.112758
-0.1098
-0.106835
-0.103863
-0.100887
-0.0979054
-0.0949212
-0.0919351
-0.0889481
-0.0859615
-0.0829763
-0.0799936
-0.0770145
-0.07404
-0.0710711
-0.0681086
-0.0651533
-0.0622061
-0.0592674
-0.0563381
-0.0534184
-0.0505088
-0.0476096
-0.0447211
-0.0418432
-0.0389762
-0.0361197
-0.0332739
-0.0304383
-0.0276127
-0.0247966
-0.0219897
-0.0191913
-0.0164007
-0.0136173
-0.0108404
-0.00806889
-0.00530203
-0.00253886
0.000115982
0.00327224
0.00631927
0.00936082
0.0123951
0.0154201
0.0184343
0.021436
0.0244234
0.0273952
0.0303499
0.0332863
0.0362031
0.0390993
0.0419739
0.0448261
0.0476551
0.0504605
0.0532416
0.0559983
0.0587303
0.0614376
0.0641202
0.0667786
0.069413
0.0720239
0.0746121
0.0771782
0.0797233
0.0822483
0.0847544
0.0872429
0.089715
0.0921724
0.0946164
0.0970487
0.0994711
0.101885
0.104293
0.106696
0.109096
-0.219384
-0.216969
-0.214552
-0.212131
-0.209706
-0.207274
-0.204834
-0.202385
-0.199925
-0.197454
-0.194971
-0.192473
-0.189961
-0.187433
-0.184889
-0.182328
-0.17975
-0.177153
-0.174538
-0.171905
-0.169254
-0.166584
-0.163896
-0.16119
-0.158466
-0.155724
-0.152965
-0.150189
-0.147396
-0.144588
-0.141764
-0.138924
-0.13607
-0.133202
-0.13032
-0.127424
-0.124517
-0.121597
-0.118666
-0.115725
-0.112774
-0.109814
-0.106847
-0.103874
-0.100895
-0.0979114
-0.0949249
-0.0919363
-0.0889469
-0.0859578
-0.0829701
-0.0799851
-0.0770036
-0.074027
-0.0710559
-0.0680915
-0.0651345
-0.0621857
-0.0592458
-0.0563153
-0.0533947
-0.0504844
-0.0475848
-0.0446961
-0.0418182
-0.0389514
-0.0360954
-0.0332502
-0.0304155
-0.027591
-0.0247762
-0.0219707
-0.0191739
-0.0163852
-0.0136038
-0.0108289
-0.00805962
-0.00529507
-0.00253427
0.000116905
0.00327464
0.0063219
0.00936364
0.012398
0.0154232
0.0184375
0.0214392
0.0244266
0.0273984
0.030353
0.0332893
0.0362061
0.0391022
0.0419767
0.0448287
0.0476577
0.0504629
0.0532439
0.0560005
0.0587324
0.0614395
0.0641221
0.0667804
0.0694147
0.0720255
0.0746135
0.0771796
0.0797246
0.0822495
0.0847555
0.0872438
0.0897159
0.0921731
0.0946171
0.0970493
0.0994716
0.101886
0.104293
0.106696
0.109096
-0.219384
-0.216971
-0.214555
-0.212136
-0.209712
-0.207281
-0.204843
-0.202396
-0.199938
-0.197469
-0.194987
-0.192491
-0.18998
-0.187454
-0.184911
-0.182351
-0.179774
-0.177178
-0.174564
-0.171931
-0.16928
-0.16661
-0.163922
-0.161216
-0.158491
-0.155749
-0.15299
-0.150214
-0.147421
-0.144612
-0.141788
-0.138949
-0.136094
-0.133226
-0.130343
-0.127448
-0.124539
-0.121619
-0.118687
-0.115744
-0.112792
-0.109831
-0.106862
-0.103887
-0.100905
-0.0979197
-0.0949307
-0.0919396
-0.0889476
-0.0859559
-0.0829657
-0.0799782
-0.0769944
-0.0740154
-0.0710423
-0.0680759
-0.0651172
-0.0621668
-0.0592255
-0.0562939
-0.0533724
-0.0504615
-0.0475615
-0.0446725
-0.0417947
-0.038928
-0.0360725
-0.0332279
-0.0303941
-0.0275705
-0.024757
-0.0219528
-0.0191576
-0.0163705
-0.0135909
-0.010818
-0.00805079
-0.00528841
-0.00252986
0.000117805
0.00327705
0.00632457
0.00936653
0.0124011
0.0154264
0.0184408
0.0214425
0.0244299
0.0274017
0.0303563
0.0332925
0.0362091
0.0391051
0.0419795
0.0448314
0.0476603
0.0504653
0.0532462
0.0560027
0.0587344
0.0614415
0.064124
0.0667821
0.0694163
0.072027
0.074615
0.077181
0.0797258
0.0822506
0.0847565
0.0872448
0.0897168
0.0921739
0.0946177
0.0970499
0.099472
0.101886
0.104293
0.106696
0.109096
-0.219385
-0.216972
-0.214558
-0.21214
-0.209717
-0.207288
-0.204851
-0.202405
-0.199949
-0.197482
-0.195002
-0.192508
-0.189999
-0.187474
-0.184933
-0.182374
-0.179798
-0.177203
-0.17459
-0.171958
-0.169307
-0.166637
-0.163949
-0.161243
-0.158518
-0.155776
-0.153016
-0.15024
-0.147448
-0.144639
-0.141815
-0.138975
-0.136121
-0.133252
-0.13037
-0.127474
-0.124565
-0.121643
-0.118711
-0.115767
-0.112813
-0.109851
-0.10688
-0.103903
-0.100919
-0.0979312
-0.0949397
-0.0919461
-0.0889514
-0.0859571
-0.0829643
-0.0799742
-0.076988
-0.0740067
-0.0710314
-0.0680631
-0.0651026
-0.0621507
-0.0592081
-0.0562753
-0.053353
-0.0504414
-0.0475409
-0.0446516
-0.0417738
-0.0389073
-0.0360521
-0.0332081
-0.0303749
-0.0275523
-0.0247398
-0.0219369
-0.0191429
-0.0163574
-0.0135794
-0.0108082
-0.00804282
-0.00528236
-0.00252581
0.000118651
0.0032794
0.00632722
0.00936945
0.0124042
0.0154297
0.0184442
0.0214459
0.0244334
0.0274051
0.0303596
0.0332957
0.0362123
0.0391081
0.0419824
0.0448342
0.0476628
0.0504678
0.0532486
0.0560049
0.0587365
0.0614435
0.0641258
0.0667839
0.0694179
0.0720286
0.0746164
0.0771823
0.079727
0.0822517
0.0847576
0.0872457
0.0897176
0.0921746
0.0946184
0.0970504
0.0994725
0.101886
0.104294
0.106696
0.109096
-0.219385
-0.216973
-0.21456
-0.212142
-0.20972
-0.207292
-0.204857
-0.202413
-0.199958
-0.197493
-0.195014
-0.192522
-0.190015
-0.187492
-0.184953
-0.182396
-0.179821
-0.177227
-0.174615
-0.171984
-0.169334
-0.166664
-0.163977
-0.16127
-0.158546
-0.155804
-0.153044
-0.150268
-0.147476
-0.144668
-0.141844
-0.139005
-0.136151
-0.133282
-0.130399
-0.127503
-0.124594
-0.121672
-0.118738
-0.115794
-0.112839
-0.109875
-0.106902
-0.103923
-0.100937
-0.097947
-0.0949531
-0.0919569
-0.0889597
-0.0859627
-0.0829673
-0.0799747
-0.076986
-0.0740025
-0.0710251
-0.0680548
-0.0650925
-0.062139
-0.0591951
-0.0562612
-0.0533379
-0.0504256
-0.0475246
-0.044635
-0.041757
-0.0388906
-0.0360357
-0.0331921
-0.0303595
-0.0275375
-0.0247258
-0.0219238
-0.019131
-0.0163466
-0.0135699
-0.0108001
-0.00803619
-0.00527728
-0.00252234
0.000119403
0.00328161
0.0063298
0.00937235
0.0124074
0.0154331
0.0184476
0.0214494
0.0244369
0.0274086
0.030363
0.0332991
0.0362155
0.0391112
0.0419853
0.0448369
0.0476655
0.0504703
0.0532509
0.0560071
0.0587386
0.0614454
0.0641276
0.0667855
0.0694195
0.07203
0.0746178
0.0771835
0.0797282
0.0822528
0.0847585
0.0872466
0.0897184
0.0921753
0.094619
0.0970509
0.0994729
0.101887
0.104294
0.106696
0.109096
-0.219385
-0.216974
-0.21456
-0.212143
-0.209722
-0.207295
-0.20486
-0.202417
-0.199965
-0.197501
-0.195024
-0.192534
-0.190029
-0.187508
-0.184971
-0.182416
-0.179842
-0.17725
-0.17464
-0.172009
-0.16936
-0.166692
-0.164004
-0.161298
-0.158574
-0.155833
-0.153074
-0.150298
-0.147506
-0.144699
-0.141875
-0.139037
-0.136183
-0.133315
-0.130433
-0.127536
-0.124627
-0.121704
-0.11877
-0.115824
-0.112868
-0.109903
-0.106929
-0.103948
-0.100961
-0.0979683
-0.0949722
-0.0919736
-0.0889739
-0.0859745
-0.0829766
-0.0799815
-0.0769904
-0.0740046
-0.0710251
-0.0680529
-0.0650889
-0.0621338
-0.0591885
-0.0562534
-0.0533291
-0.050416
-0.0475144
-0.0446244
-0.0417461
-0.0388796
-0.0360247
-0.0331813
-0.030349
-0.0275274
-0.0247162
-0.0219149
-0.0191227
-0.0163391
-0.0135632
-0.0107943
-0.00803142
-0.00527355
-0.0025197
0.000120017
0.0032836
0.00633224
0.00937516
0.0124105
0.0154364
0.0184511
0.021453
0.0244405
0.0274121
0.0303665
0.0333024
0.0362187
0.0391143
0.0419882
0.0448397
0.0476681
0.0504727
0.0532532
0.0560092
0.0587406
0.0614473
0.0641294
0.0667872
0.0694211
0.0720315
0.0746191
0.0771848
0.0797293
0.0822539
0.0847595
0.0872475
0.0897191
0.092176
0.0946195
0.0970514
0.0994733
0.101887
0.104294
0.106696
0.109096
-0.219385
-0.216973
-0.214559
-0.212142
-0.209721
-0.207294
-0.204861
-0.202419
-0.199968
-0.197506
-0.195031
-0.192543
-0.19004
-0.187522
-0.184987
-0.182434
-0.179862
-0.177272
-0.174663
-0.172034
-0.169386
-0.166718
-0.164032
-0.161327
-0.158603
-0.155862
-0.153104
-0.15033
-0.147539
-0.144732
-0.14191
-0.139072
-0.136219
-0.133352
-0.130469
-0.127573
-0.124663
-0.12174
-0.118805
-0.115859
-0.112902
-0.109936
-0.106961
-0.103979
-0.10099
-0.0979959
-0.094998
-0.0919975
-0.0889957
-0.0859941
-0.0829939
-0.0799966
-0.0770033
-0.0740154
-0.0710338
-0.0680597
-0.0650939
-0.0621373
-0.0591905
-0.0562541
-0.0533287
-0.0504147
-0.0475122
-0.0446215
-0.0417428
-0.0388759
-0.0360207
-0.0331771
-0.0303448
-0.0275233
-0.0247122
-0.0219111
-0.0191192
-0.0163358
-0.0135602
-0.0107916
-0.00802907
-0.00527157
-0.00251815
0.000120452
0.00328529
0.00633447
0.00937784
0.0124135
0.0154397
0.0184546
0.0214566
0.0244441
0.0274157
0.03037
0.0333058
0.0362219
0.0391174
0.0419911
0.0448425
0.0476707
0.0504752
0.0532555
0.0560113
0.0587426
0.0614491
0.0641311
0.0667888
0.0694226
0.0720329
0.0746204
0.077186
0.0797304
0.0822549
0.0847604
0.0872483
0.0897199
0.0921766
0.0946201
0.0970519
0.0994737
0.101887
0.104294
0.106697
0.109096
-0.219385
-0.216971
-0.214557
-0.212139
-0.209718
-0.207291
-0.204858
-0.202417
-0.199967
-0.197507
-0.195034
-0.192549
-0.190048
-0.187532
-0.184999
-0.182449
-0.17988
-0.177292
-0.174684
-0.172057
-0.169411
-0.166744
-0.164059
-0.161355
-0.158633
-0.155893
-0.153136
-0.150363
-0.147573
-0.144768
-0.141947
-0.13911
-0.136258
-0.133391
-0.130509
-0.127613
-0.124702
-0.121779
-0.118843
-0.115897
-0.112939
-0.109973
-0.106997
-0.104014
-0.101025
-0.0980301
-0.0950312
-0.0920295
-0.0890263
-0.0860231
-0.0830212
-0.0800221
-0.077027
-0.0740371
-0.0710537
-0.0680777
-0.0651101
-0.0621518
-0.0592034
-0.0562656
-0.0533388
-0.0504235
-0.0475199
-0.0446282
-0.0417485
-0.0388808
-0.0360249
-0.0331808
-0.030348
-0.0275262
-0.0247148
-0.0219134
-0.0191212
-0.0163375
-0.0135616
-0.0107926
-0.00802964
-0.00527174
-0.00251792
0.000120665
0.00328662
0.00633643
0.00938035
0.0124165
0.0154429
0.018458
0.0214601
0.0244477
0.0274192
0.0303735
0.0333092
0.0362252
0.0391204
0.041994
0.0448452
0.0476732
0.0504775
0.0532577
0.0560134
0.0587445
0.061451
0.0641328
0.0667904
0.069424
0.0720342
0.0746217
0.0771871
0.0797315
0.0822558
0.0847613
0.0872491
0.0897206
0.0921772
0.0946206
0.0970523
0.099474
0.101887
0.104294
0.106697
0.109096
-0.219384
-0.216969
-0.214553
-0.212134
-0.209712
-0.207285
-0.204852
-0.202412
-0.199964
-0.197505
-0.195034
-0.192551
-0.190053
-0.18754
-0.185009
-0.182462
-0.179895
-0.177309
-0.174704
-0.172079
-0.169434
-0.166769
-0.164085
-0.161383
-0.158662
-0.155924
-0.153169
-0.150397
-0.14761
-0.144806
-0.141986
-0.139151
-0.136299
-0.133432
-0.13055
-0.127653
-0.124742
-0.121818
-0.118881
-0.115934
-0.112977
-0.11001
-0.107036
-0.104053
-0.101064
-0.0980699
-0.0950713
-0.0920697
-0.0890663
-0.0860626
-0.08306
-0.0800598
-0.0770634
-0.0740721
-0.071087
-0.0681093
-0.0651399
-0.0621798
-0.0592296
-0.05629
-0.0533615
-0.0504444
-0.0475391
-0.0446458
-0.0417646
-0.0388954
-0.0360383
-0.033193
-0.0303593
-0.0275366
-0.0247246
-0.0219224
-0.0191294
-0.0163449
-0.013568
-0.0107978
-0.00803358
-0.00527435
-0.00251919
0.000120624
0.00328752
0.00633811
0.00938265
0.0124192
0.0154461
0.0184614
0.0214636
0.0244512
0.0274227
0.0303769
0.0333125
0.0362283
0.0391234
0.0419969
0.0448479
0.0476757
0.0504799
0.0532599
0.0560155
0.0587464
0.0614527
0.0641345
0.0667919
0.0694254
0.0720355
0.0746228
0.0771882
0.0797325
0.0822567
0.0847621
0.0872498
0.0897212
0.0921778
0.0946211
0.0970527
0.0994744
0.101888
0.104295
0.106697
0.109096
-0.219383
-0.216965
-0.214547
-0.212127
-0.209704
-0.207276
-0.204844
-0.202404
-0.199957
-0.197499
-0.195031
-0.19255
-0.190055
-0.187544
-0.185016
-0.182471
-0.179907
-0.177324
-0.174721
-0.172098
-0.169455
-0.166793
-0.164111
-0.16141
-0.158692
-0.155956
-0.153203
-0.150433
-0.147648
-0.144846
-0.142027
-0.139192
-0.136341
-0.133473
-0.130589
-0.12769
-0.124777
-0.121852
-0.118915
-0.115968
-0.113011
-0.110046
-0.107072
-0.104092
-0.101105
-0.0981131
-0.0951166
-0.0921169
-0.0891152
-0.0861127
-0.0831108
-0.0801108
-0.0771141
-0.0741219
-0.0711356
-0.0681563
-0.0651851
-0.062223
-0.0592707
-0.056329
-0.0533982
-0.0504788
-0.047571
-0.0446753
-0.0417916
-0.0389202
-0.0360609
-0.0332138
-0.0303785
-0.0275545
-0.0247413
-0.0219381
-0.019144
-0.0163581
-0.0135795
-0.0108075
-0.00804107
-0.00527955
-0.00252206
0.000120322
0.00328801
0.00633949
0.00938474
0.0124219
0.015449
0.0184646
0.0214669
0.0244546
0.0274261
0.0303802
0.0333157
0.0362314
0.0391263
0.0419996
0.0448505
0.0476782
0.0504821
0.053262
0.0560174
0.0587482
0.0614544
0.064136
0.0667933
0.0694267
0.0720367
0.074624
0.0771893
0.0797335