/*--------------------------------*- C++ -*----------------------------------*\
  =========                 |
  \\      /  F ield         | OpenFOAM: The Open Source CFD Toolbox
   \\    /   O peration     | Website:  https://openfoam.org
    \\  /    A nd           | Version:  6
     \\/     M anipulation  |
\*---------------------------------------------------------------------------*/
FoamFile
{
    version     2.0;
    format      ascii;
    class       surfaceScalarField;
    location    "2000";
    object      phi;
}
// * * * * * * * * * * * * * * * * * * * * * * * * * * * * * * * * * * * * * //

dimensions      [0 3 -1 0 0 0 0];

internalField   nonuniform List<scalar> 
9440
(
-2.5358e-14
2.53586e-14
-5.04293e-14
2.50511e-14
-7.46608e-14
2.42151e-14
-9.75404e-14
2.28631e-14
-1.18632e-13
2.10754e-14
-1.37607e-13
1.89585e-14
-1.5421e-13
1.65881e-14
-1.68283e-13
1.40576e-14
-1.79755e-13
1.14594e-14
-1.88562e-13
8.79341e-15
-1.94754e-13
6.17727e-15
-1.98385e-13
3.61765e-15
-1.99504e-13
1.10591e-15
-1.98642e-13
-8.74916e-16
-1.95985e-13
-2.66632e-15
-1.92218e-13
-3.77661e-15
-1.87307e-13
-4.91911e-15
-1.79694e-13
-7.62222e-15
-1.71117e-13
-8.58392e-15
-1.62694e-13
-8.42806e-15
-1.5479e-13
-7.91013e-15
-1.43385e-13
-1.14119e-14
-1.33192e-13
-1.01955e-14
-1.22841e-13
-1.03541e-14
-1.12061e-13
-1.0783e-14
-1.01299e-13
-1.07636e-14
-9.06733e-14
-1.06258e-14
-8.01736e-14
-1.0499e-14
-6.98291e-14
-1.03437e-14
-5.96111e-14
-1.02155e-14
-4.95751e-14
-1.00346e-14
-3.97032e-14
-9.8696e-15
-3.0015e-14
-9.68327e-15
-2.04734e-14
-9.53783e-15
-1.10566e-14
-9.41496e-15
-1.80823e-15
-9.24581e-15
7.36029e-15
-9.16661e-15
1.64017e-14
-9.0375e-15
2.53969e-14
-8.99194e-15
3.43418e-14
-8.93911e-15
4.32821e-14
-8.93466e-15
5.21749e-14
-8.88683e-15
6.10616e-14
-8.88265e-15
6.9947e-14
-8.87823e-15
7.87695e-14
-8.81706e-15
8.75809e-14
-8.80453e-15
9.63439e-14
-8.75705e-15
1.0498e-13
-8.62685e-15
1.13505e-13
-8.51543e-15
1.21827e-13
-8.31486e-15
1.29911e-13
-8.07454e-15
1.37684e-13
-7.76191e-15
1.45055e-13
-7.36075e-15
1.51936e-13
-6.86937e-15
1.58214e-13
-6.26578e-15
1.63889e-13
-5.66088e-15
1.68833e-13
-4.92843e-15
1.72986e-13
-4.13985e-15
1.76251e-13
-3.24969e-15
1.78592e-13
-2.3246e-15
1.79982e-13
-1.3739e-15
1.8037e-13
-3.73349e-16
1.79751e-13
6.37176e-16
1.78121e-13
1.64988e-15
1.75482e-13
2.65894e-15
1.71948e-13
3.55578e-15
1.67518e-13
4.44806e-15
1.62303e-13
5.23424e-15
1.56469e-13
5.85307e-15
1.5021e-13
6.28268e-15
1.43754e-13
6.47795e-15
1.37466e-13
6.31067e-15
1.32024e-13
5.46314e-15
1.29016e-13
3.03116e-15
1.32678e-13
-3.63919e-15
1.55773e-13
-2.3073e-14
2.38918e-13
-8.31238e-14
1.02466e-13
1.36474e-13
-1.4393e-17
1.02503e-13
2.11825e-21
-1.7208e-20
2.15315e-21
-1.02881e-23
2.16137e-21
-8.16841e-24
2.1745e-21
-3.15363e-24
2.18955e-21
3.82571e-24
2.20185e-21
1.15805e-23
2.20899e-21
1.94904e-23
2.20955e-21
2.72453e-23
2.20278e-21
3.47416e-23
2.18846e-21
4.17209e-23
2.16654e-21
4.81833e-23
2.13728e-21
5.4232e-23
2.10099e-21
5.97121e-23
2.05818e-21
6.46235e-23
2.00938e-21
6.88111e-23
1.95499e-21
7.25334e-23
1.89564e-21
7.57387e-23
1.832e-21
7.84271e-23
1.76443e-21
8.0495e-23
1.6936e-21
8.22528e-23
1.61998e-21
8.34936e-23
1.54388e-21
8.43724e-23
1.46592e-21
8.49411e-23
1.38646e-21
8.52513e-23
1.30576e-21
8.5303e-23
1.22423e-21
8.51479e-23
1.14218e-21
8.47343e-23
1.05957e-21
8.42173e-23
9.76797e-22
8.35969e-23
8.93976e-22
8.29249e-23
8.11206e-22
8.21494e-23
7.28746e-22
8.13739e-23
6.4639e-22
8.05467e-23
5.64396e-22
7.97712e-23
4.82505e-22
7.89958e-23
4.01183e-22
7.83754e-23
3.19964e-22
7.75999e-23
2.39314e-22
7.70829e-23
1.58715e-22
7.64625e-23
7.8789e-23
7.57387e-23
7.43946e-23
-2.52164e-14
5.0554e-14
-5.13558e-14
5.11569e-14
-7.65361e-14
4.93697e-14
-1.00086e-13
4.63856e-14
-1.21633e-13
4.25952e-14
-1.40927e-13
3.82251e-14
-1.57746e-13
3.33799e-14
-1.71935e-13
2.82197e-14
-1.83331e-13
2.28309e-14
-1.92017e-13
1.74567e-14
-1.97993e-13
1.21302e-14
-2.01335e-13
6.93746e-15
-2.02149e-13
1.89947e-15
-2.00917e-13
-2.12475e-15
-1.9796e-13
-5.64184e-15
-1.94271e-13
-7.47974e-15
-1.88622e-13
-1.05815e-14
-1.80656e-13
-1.56016e-14
-1.71949e-13
-1.73022e-14
-1.63652e-13
-1.67328e-14
-1.54974e-13
-1.65954e-14
-1.43781e-13
-2.26089e-14
-1.33421e-13
-2.05602e-14
-1.23009e-13
-2.077e-14
-1.12048e-13
-2.1747e-14
-1.01284e-13
-2.15288e-14
-9.06039e-14
-2.13054e-14
-8.00649e-14
-2.10368e-14
-6.96534e-14
-2.07567e-14
-5.94209e-14
-2.0445e-14
-4.93672e-14
-2.00812e-14
-3.95385e-14
-1.96971e-14
-2.98281e-14
-1.939e-14
-2.03276e-14
-1.90338e-14
-1.09683e-14
-1.87687e-14
-1.69315e-15
-1.85132e-14
7.45515e-15
-1.83088e-14
1.64685e-14
-1.80453e-14
2.54648e-14
-1.79791e-14
3.44188e-14
-1.78861e-14
4.32895e-14
-1.77947e-14
5.22013e-14
-1.77881e-14
6.10798e-14
-1.77493e-14
6.99332e-14
-1.77195e-14
7.88325e-14
-1.77008e-14
8.76499e-14
-1.76089e-14
9.64554e-14
-1.75513e-14
1.05165e-13
-1.73237e-14
1.13753e-13
-1.70867e-14
1.22141e-13
-1.66856e-14
1.30266e-13
-1.61827e-14
1.3809e-13
-1.55654e-14
1.4551e-13
-1.47623e-14
1.52485e-13
-1.3823e-14
1.58869e-13
-1.26257e-14
1.64638e-13
-1.14074e-14
1.69682e-13
-9.94676e-15
1.73877e-13
-8.30798e-15
1.77176e-13
-6.51919e-15
1.79584e-13
-4.70239e-15
1.80993e-13
-2.75119e-15
1.81421e-13
-7.6966e-16
1.80792e-13
1.29901e-15
1.79111e-13
3.36114e-15
1.76444e-13
5.36057e-15
1.72809e-13
7.22929e-15
1.68265e-13
9.03056e-15
1.62931e-13
1.06058e-14
1.56951e-13
1.187e-14
1.50468e-13
1.28031e-14
1.43604e-13
1.33828e-14
1.36603e-13
1.33555e-14
1.29701e-13
1.24052e-14
1.22812e-13
9.95916e-15
1.14453e-13
4.75954e-15
9.66927e-14
-5.2727e-15
3.55307e-14
-2.19177e-14
3.42932e-14
1.37752e-13
-1.07492e-17
1.36841e-13
2.1446e-21
-2.98625e-20
2.15527e-21
-1.79395e-23
2.16639e-21
-3.15363e-24
2.18153e-21
1.2873e-23
2.1973e-21
2.92615e-23
2.20971e-21
4.54949e-23
2.21669e-21
6.12114e-23
2.21705e-21
7.62557e-23
2.20976e-21
9.01627e-23
2.19492e-21
1.03087e-22
2.17259e-21
1.14875e-22
2.14271e-21
1.25576e-22
2.1059e-21
1.35037e-22
2.06242e-21
1.43309e-22
2.01305e-21
1.50547e-22
1.95814e-21
1.56492e-22
1.89833e-21
1.61455e-22
1.83407e-21
1.65384e-22
1.76613e-21
1.68538e-22
1.69489e-21
1.70761e-22
1.62081e-21
1.72312e-22
1.54455e-21
1.73139e-22
1.46623e-21
1.73346e-22
1.38651e-21
1.73088e-22
1.30555e-21
1.72364e-22
1.22392e-21
1.7133e-22
1.14166e-21
1.69934e-22
1.05889e-21
1.68331e-22
9.76073e-22
1.66522e-22
8.93252e-22
1.64609e-22
8.10482e-22
1.62593e-22
7.27919e-22
1.60628e-22
6.45666e-22
1.58664e-22
5.6362e-22
1.56751e-22
4.81833e-22
1.54941e-22
4.00407e-22
1.53287e-22
3.19395e-22
1.51839e-22
2.38693e-22
1.50547e-22
1.58043e-22
1.49358e-22
7.73414e-23
1.48479e-22
1.47755e-22
-2.78194e-14
7.83581e-14
-5.40733e-14
7.73814e-14
-7.92619e-14
7.4535e-14
-1.03041e-13
7.01394e-14
-1.24956e-13
6.44884e-14
-1.44581e-13
5.78258e-14
-1.61638e-13
5.04141e-14
-1.7595e-13
4.25098e-14
-1.87466e-13
3.43243e-14
-1.96106e-13
2.6075e-14
-2.01975e-13
1.79787e-14
-2.05058e-13
9.9996e-15
-2.05725e-13
2.54984e-15
-2.04167e-13
-3.70025e-15
-2.01016e-13
-8.80962e-15
-1.97524e-13
-1.0988e-14
-1.90792e-13
-1.7327e-14
-1.82289e-13
-2.41155e-14
-1.73563e-13
-2.60376e-14
-1.65594e-13
-2.47116e-14
-1.55251e-13
-2.69456e-14
-1.44373e-13
-3.349e-14
-1.33782e-13
-3.11571e-14
-1.23187e-13
-3.13676e-14
-1.11946e-13
-3.29907e-14
-1.01142e-13
-3.23329e-14
-9.0376e-14
-3.20709e-14
-7.9765e-14
-3.16457e-14
-6.93335e-14
-3.11877e-14
-5.91028e-14
-3.06731e-14
-4.90744e-14
-3.01046e-14
-3.9204e-14
-2.95675e-14
-2.95221e-14
-2.90684e-14
-2.00194e-14
-2.85317e-14
-1.06797e-14
-2.81048e-14
-1.4694e-15
-2.7716e-14
7.61057e-15
-2.73828e-14
1.65965e-14
-2.70251e-14
2.55731e-14
-2.69487e-14
3.44977e-14
-2.67998e-14
4.33923e-14
-2.66803e-14
5.22142e-14
-2.66029e-14
6.11224e-14
-2.66468e-14
7.00027e-14
-2.65901e-14
7.89234e-14
-2.66115e-14
8.77866e-14
-2.64616e-14
9.66277e-14
-2.63814e-14
1.05429e-13
-2.61126e-14
1.14082e-13
-2.57251e-14
1.22617e-13
-2.52021e-14
1.30896e-13
-2.44438e-14
1.38891e-13
-2.35443e-14
1.46485e-13
-2.23364e-14
1.53603e-13
-2.09224e-14
1.60146e-13
-1.9148e-14
1.66116e-13
-1.73541e-14
1.71285e-13
-1.50931e-14
1.75635e-13
-1.26349e-14
1.79081e-13
-9.94043e-15
1.81562e-13
-7.15735e-15
1.83036e-13
-4.19884e-15
1.83444e-13
-1.15128e-15
1.82797e-13
1.97708e-15
1.81093e-13
5.09481e-15
1.78326e-13
8.15674e-15
1.74499e-13
1.10876e-14
1.69767e-13
1.37946e-14
1.64197e-13
1.62072e-14
1.57897e-13
1.82039e-14
1.50986e-13
1.97468e-14
1.43521e-13
2.08794e-14
1.35694e-13
2.12166e-14
1.27257e-13
2.08755e-14
1.17548e-13
1.96995e-14
1.04156e-13
1.8186e-14
8.0535e-14
1.83816e-14
3.00612e-14
2.85888e-14
2.1181e-14
1.46667e-13
-1.01014e-17
1.58059e-13
2.17106e-21
-4.43174e-20
2.17011e-21
-2.67283e-23
2.18241e-21
-1.70606e-24
2.19797e-21
2.3678e-23
2.21354e-21
4.90105e-23
2.22548e-21
7.36191e-23
2.23168e-21
9.7142e-23
2.23096e-21
1.19528e-22
2.22269e-21
1.40311e-22
2.20671e-21
1.59594e-22
2.18329e-21
1.77068e-22
2.15217e-21
1.9263e-22
2.11422e-21
2.06588e-22
2.06961e-21
2.18634e-22
2.01904e-21
2.29026e-22
1.96305e-21
2.37763e-22
1.90226e-21
2.44949e-22
1.83722e-21
2.50584e-22
1.76836e-21
2.54823e-22
1.69639e-21
2.57925e-22
1.62169e-21
2.59838e-22
1.54471e-21
2.60769e-22
1.46592e-21
2.60872e-22
1.38579e-21
2.60148e-22
1.30452e-21
2.58701e-22
1.22252e-21
2.56943e-22
1.14006e-21
2.54617e-22
1.05709e-21
2.52032e-22
9.74212e-22
2.4924e-22
8.91235e-22
2.4619e-22
8.08517e-22
2.43088e-22
7.26006e-22
2.39934e-22
6.43702e-22
2.36832e-22
5.61811e-22
2.33834e-22
4.80178e-22
2.3099e-22
3.9896e-22
2.28405e-22
3.18154e-22
2.26027e-22
2.37556e-22
2.24166e-22
1.57164e-22
2.2246e-22
7.6721e-23
2.21219e-22
2.20444e-22
-2.89945e-14
1.07337e-13
-5.6941e-14
1.05303e-13
-8.35709e-14
1.01142e-13
-1.08532e-13
9.50771e-14
-1.3137e-13
8.73055e-14
-1.51738e-13
7.81713e-14
-1.69318e-13
6.79728e-14
-1.83905e-13
5.70746e-14
-1.95455e-13
4.58547e-14
-2.03959e-13
3.45585e-14
-2.09444e-13
2.34429e-14
-2.12011e-13
1.25481e-14
-2.12312e-13
2.83301e-15
-2.09874e-13
-6.15466e-15
-2.06251e-13
-1.24481e-14
-2.02786e-13
-1.44673e-14
-1.94254e-13
-2.5873e-14
-1.84925e-13
-3.34566e-14
-1.76007e-13
-3.49641e-14
-1.68811e-13
-3.19182e-14
-1.55375e-13
-4.03879e-14
-1.45351e-13
-4.35202e-14
-1.34345e-13
-4.21702e-14
-1.23328e-13
-4.23871e-14
-1.11827e-13
-4.44944e-14
-1.00905e-13
-4.32559e-14
-9.00231e-14
-4.29497e-14
-7.93445e-14
-4.23245e-14
-6.88354e-14
-4.16934e-14
-5.86165e-14
-4.08901e-14
-4.85551e-14
-4.01643e-14
-3.86932e-14
-3.9425e-14
-2.90567e-14
-3.87004e-14
-1.958e-14
-3.80038e-14
-1.02936e-14
-3.73838e-14
-1.15522e-15
-3.68489e-14
7.86736e-15
-3.63976e-14
1.68225e-14
-3.59753e-14
2.57132e-14
-3.58308e-14
3.45579e-14
-3.56354e-14
4.3437e-14
-3.55525e-14
5.2296e-14
-3.54525e-14
6.11415e-14
-3.54836e-14
7.00531e-14
-3.54908e-14
7.8962e-14
-3.55095e-14
8.79467e-14
-3.54325e-14
9.68925e-14
-3.53138e-14
1.0579e-13
-3.49941e-14
1.14616e-13
-3.45374e-14
1.23315e-13
-3.38851e-14
1.31819e-13
-3.29316e-14
1.40004e-13
-3.17117e-14
1.47873e-13
-3.01866e-14
1.5528e-13
-2.83102e-14
1.62118e-13
-2.59662e-14
1.68283e-13
-2.34985e-14
1.73677e-13
-2.04637e-14
1.78248e-13
-1.71823e-14
1.8189e-13
-1.35605e-14
1.84529e-13
-9.77264e-15
1.861e-13
-5.74419e-15
1.86598e-13
-1.62309e-15
1.85932e-13
2.67048e-15
1.84124e-13
6.93028e-15
1.81198e-13
1.11113e-14
1.77186e-13
1.51258e-14
1.7219e-13
1.88224e-14
1.66256e-13
2.21714e-14
1.59482e-13
2.50084e-14
1.51987e-13
2.72728e-14
1.43936e-13
2.89618e-14
1.35309e-13
2.98747e-14
1.26101e-13
3.01151e-14
1.15908e-13
2.99231e-14
1.03987e-13
3.01401e-14
9.01277e-14
3.22735e-14
7.93824e-14
3.93676e-14
1.81352e-14
2.07946e-13
-8.36237e-18
1.76226e-13
2.17106e-21
-6.03604e-20
2.19513e-21
-3.64476e-23
2.2078e-21
-1.08567e-24
2.22325e-21
3.40178e-23
2.2382e-21
6.83458e-23
2.249e-21
1.01692e-22
2.25407e-21
1.33435e-22
2.25174e-21
1.63316e-22
2.24197e-21
1.91286e-22
2.22419e-21
2.16876e-22
2.19885e-21
2.40037e-22
2.16602e-21
2.60872e-22
2.12632e-21
2.79225e-22
2.08005e-21
2.94993e-22
2.02778e-21
3.0859e-22
1.97024e-21
3.1986e-22
1.90794e-21
3.29166e-22
1.84146e-21
3.36301e-22
1.77146e-21
3.41729e-22
1.69831e-21
3.45451e-22
1.62267e-21
3.47829e-22
1.54471e-21
3.48657e-22
1.4652e-21
3.4845e-22
1.38434e-21
3.47261e-22
1.30276e-21
3.45245e-22
1.22025e-21
3.42505e-22
1.13737e-21
3.39196e-22
1.05435e-21
3.35525e-22
9.71162e-22
3.31441e-22
8.88134e-22
3.2715e-22
8.05312e-22
3.22807e-22
7.22904e-22
3.18465e-22
6.40703e-22
3.1407e-22
5.58967e-22
3.09883e-22
4.77593e-22
3.06057e-22
3.96685e-22
3.0249e-22
3.16242e-22
2.99336e-22
2.3585e-22
2.96544e-22
1.55872e-22
2.94425e-22
7.58938e-23
2.92719e-22
2.91581e-22
-3.09238e-14
1.38246e-13
-6.10066e-14
1.35358e-13
-8.96991e-14
1.29815e-13
-1.16365e-13
1.21719e-13
-1.40629e-13
1.11547e-13
-1.62039e-13
9.95597e-14
-1.80305e-13
8.62176e-14
-1.95229e-13
7.19793e-14
-2.06774e-13
5.73796e-14
-2.1495e-13
4.27135e-14
-2.19808e-13
2.82821e-14
-2.21718e-13
1.44404e-14
-2.21324e-13
2.41872e-15
-2.17618e-13
-9.87675e-15
-2.13984e-13
-1.60971e-14
-2.08679e-13
-1.97872e-14
-1.98773e-13
-3.57946e-14
-1.88909e-13
-4.33342e-14
-1.79823e-13
-4.40621e-14
-1.71616e-13
-4.01349e-14
-1.56574e-13
-5.54356e-14
-1.46449e-13
-5.36522e-14
-1.35021e-13
-5.36018e-14
-1.23244e-13
-5.41693e-14
-1.11728e-13
-5.60118e-14
-1.00517e-13
-5.44694e-14
-8.94655e-14
-5.39994e-14
-7.86656e-14
-5.3122e-14
-6.81429e-14
-5.22153e-14
-5.7844e-14
-5.1187e-14
-4.777e-14
-5.02317e-14
-3.7992e-14
-4.92e-14
-2.84104e-14
-4.82777e-14
-1.89982e-14
-4.74093e-14
-9.79457e-15
-4.65821e-14
-6.98231e-16
-4.59394e-14
8.197e-15
-4.52882e-14
1.71023e-14
-4.48761e-14
2.59362e-14
-4.46604e-14
3.46742e-14
-4.43655e-14
4.3457e-14
-4.43267e-14
5.22816e-14
-4.42676e-14
6.11116e-14
-4.43033e-14
7.00603e-14
-4.44298e-14
7.9059e-14
-4.44955e-14
8.81155e-14
-4.44796e-14
9.71692e-14
-4.43551e-14
1.06273e-13
-4.40821e-14
1.15306e-13
-4.3556e-14
1.24254e-13
-4.28166e-14
1.33083e-13
-4.17446e-14
1.41585e-13
-4.01974e-14
1.49804e-13
-3.83896e-14
1.57513e-13
-3.5999e-14
1.64709e-13
-3.31415e-14
1.71242e-13
-3.00099e-14
1.76976e-13
-2.61747e-14
1.81845e-13
-2.20278e-14
1.85768e-13
-1.74579e-14
1.88584e-13
-1.25635e-14
1.90268e-13
-7.40392e-15
1.90822e-13
-2.15165e-15
1.90131e-13
3.38866e-15
1.88266e-13
8.82217e-15
1.8518e-13
1.42273e-14
1.80881e-13
1.9453e-14
1.75483e-13
2.42475e-14
1.69082e-13
2.85999e-14
1.61785e-13
3.23328e-14
1.53594e-13
3.54924e-14
1.44836e-13
3.77501e-14
1.35545e-13
3.91935e-14
1.25937e-13
3.97503e-14
1.16133e-13
3.97548e-14
1.06477e-13
3.98253e-14
9.78876e-14
4.0891e-14
8.83615e-14
4.89227e-14
1.78181e-14
2.78516e-13
-7.52144e-18
1.94075e-13
2.17106e-21
-7.5133e-20
2.23054e-21
-4.53915e-23
2.24285e-21
-1.55096e-25
2.25763e-21
4.48746e-23
2.27144e-21
8.86634e-23
2.28085e-21
1.3085e-22
2.28395e-21
1.71071e-22
2.27966e-21
2.0876e-22
2.26751e-21
2.43863e-22
2.24745e-21
2.75916e-22
2.21964e-21
3.04971e-22
2.18443e-21
3.30872e-22
2.14204e-21
3.5362e-22
2.09359e-21
3.73265e-22
2.0391e-21
3.89861e-22
1.9795e-21
4.03664e-22
1.91513e-21
4.14779e-22
1.84678e-21
4.23361e-22
1.77518e-21
4.2972e-22
1.70063e-21
4.3396e-22
1.6235e-21
4.36286e-22
1.5445e-21
4.37062e-22
1.46406e-21
4.36441e-22
1.38232e-21
4.34477e-22
1.30007e-21
4.31582e-22
1.21699e-21
4.27808e-22
1.13365e-21
4.23258e-22
1.05026e-21
4.18347e-22
9.66871e-22
4.12815e-22
8.83843e-22
4.07231e-22
8.00969e-22
4.01493e-22
7.1851e-22
3.95703e-22
6.36516e-22
3.90119e-22
5.5509e-22
3.84742e-22
4.74026e-22
3.79624e-22
3.9348e-22
3.75023e-22
3.1345e-22
3.70991e-22
2.3373e-22
3.67423e-22
1.54218e-22
3.64528e-22
7.48082e-23
3.62357e-22
3.61064e-22
-3.37262e-14
1.71957e-13
-6.65249e-14
1.68132e-13
-9.76941e-14
1.60963e-13
-1.26599e-13
1.50605e-13
-1.52647e-13
1.37574e-13
-1.75366e-13
1.22258e-13
-1.94456e-13
1.0529e-13
-2.09819e-13
8.73205e-14
-2.21316e-13
6.88563e-14
-2.28978e-13
5.03588e-14
-2.32963e-13
3.22476e-14
-2.34425e-13
1.58848e-14
-2.32014e-13
-8.20477e-18
-2.27533e-13
-1.43742e-14
-2.24867e-13
-1.87783e-14
-2.1471e-13
-2.99578e-14
-2.04091e-13
-4.6427e-14
-1.93746e-13
-5.36929e-14
-1.85277e-13
-5.2545e-14
-1.72642e-13
-5.27812e-14
-1.58725e-13
-6.93606e-14
-1.4747e-13
-6.49155e-14
-1.35658e-13
-6.54187e-14
-1.22967e-13
-6.68631e-14
-1.11492e-13
-6.74913e-14
-9.99091e-14
-6.60542e-14
-8.8701e-14
-6.52071e-14
-7.77768e-14
-6.40439e-14
-6.71882e-14
-6.28014e-14
-5.68274e-14
-6.15465e-14
-4.68096e-14
-6.02456e-14
-3.70359e-14
-5.89698e-14
-2.75065e-14
-5.78024e-14
-1.82217e-14
-5.66913e-14
-9.07107e-15
-5.57258e-14
-1.52802e-16
-5.48506e-14
8.60777e-15
-5.40418e-14
1.74267e-14
-5.36857e-14
2.60918e-14
-5.33191e-14
3.47924e-14
-5.30589e-14
4.34711e-14
-5.30002e-14
5.22676e-14
-5.30557e-14
6.10971e-14
-5.31217e-14
7.00259e-14
-5.33476e-14
7.90384e-14
-5.34965e-14
8.82133e-14
-5.36399e-14
9.74205e-14
-5.35505e-14
1.06701e-13
-5.33486e-14
1.16055e-13
-5.28949e-14
1.25339e-13
-5.20853e-14
1.34478e-13
-5.0866e-14
1.4346e-13
-4.91637e-14
1.52133e-13
-4.7044e-14
1.60297e-13
-4.41443e-14
1.67974e-13
-4.07987e-14
1.74969e-13
-3.69833e-14
1.81122e-13
-3.23056e-14
1.864e-13
-2.72823e-14
1.90669e-13
-2.17046e-14
1.93777e-13
-1.56503e-14
1.95636e-13
-9.23699e-15
1.96304e-13
-2.79637e-15
1.9567e-13
4.0479e-15
1.9363e-13
1.08868e-14
1.90306e-13
1.7577e-14
1.85668e-13
2.41169e-14
1.79862e-13
3.0081e-14
1.72907e-13
3.55834e-14
1.6486e-13
4.04066e-14
1.55969e-13
4.4408e-14
1.46288e-13
4.74567e-14
1.36143e-13
4.93655e-14
1.25907e-13
5.00115e-14
1.16223e-13
4.94616e-14
1.0815e-13
4.79231e-14
1.02636e-13
4.64306e-14
8.46954e-14
6.68888e-14
5.76839e-15
3.57466e-13
-6.07383e-18
1.99868e-13
2.25047e-21
-9.10701e-20
2.27578e-21
-5.5266e-23
2.28777e-21
9.82277e-25
2.30142e-21
5.63e-23
2.31368e-21
1.10067e-22
2.32102e-21
1.6161e-22
2.32169e-21
2.10517e-22
2.31471e-21
2.56426e-22
2.29967e-21
2.98819e-22
2.27645e-21
3.37593e-22
2.24559e-21
3.7249e-22
2.20712e-21
4.03354e-22
2.16173e-21
4.30444e-22
2.11024e-21
4.53812e-22
2.05291e-21
4.73406e-22
1.99056e-21
4.89484e-22
1.92376e-21
5.02305e-22
1.85319e-21
5.12077e-22
1.77947e-21
5.19056e-22
1.70296e-21
5.23554e-22
1.62422e-21
5.25828e-22
1.54388e-21
5.26087e-22
1.46209e-21
5.24743e-22
1.37943e-21
5.21899e-22
1.29619e-21
5.1797e-22
1.21249e-21
5.12852e-22
1.12874e-21
5.06958e-22
1.04473e-21
5.00444e-22
9.61287e-22
4.93517e-22
8.78104e-22
4.86331e-22
7.95231e-22
4.78989e-22
7.12875e-22
4.71648e-22
6.31139e-22
4.64565e-22
5.50023e-22
4.57793e-22
4.69477e-22
4.51434e-22
3.89395e-22
4.45644e-22
3.09883e-22
4.40525e-22
2.30887e-22
4.36131e-22
1.51994e-22
4.32512e-22
7.3464e-23
4.29927e-22
4.28221e-22
-3.7331e-14
2.09274e-13
-7.3644e-14
2.0442e-13
-1.08007e-13
1.95306e-13
-1.39667e-13
1.82246e-13
-1.67903e-13
1.65791e-13
-1.92282e-13
1.4662e-13
-2.12423e-13
1.25414e-13
-2.28172e-13
1.03052e-13
-2.39463e-13
8.01291e-14
-2.46277e-13
5.71539e-14
-2.49786e-13
3.57371e-14
-2.49717e-13
1.57994e-14
-2.44738e-13
-5.00452e-15
-2.40898e-13
-1.82292e-14
-2.37011e-13
-2.26821e-14
-2.22315e-13
-4.46687e-14
-2.10555e-13
-5.82013e-14
-1.99246e-13
-6.50132e-14
-1.92966e-13
-5.88384e-14
-1.71975e-13
-7.37815e-14
-1.61391e-13
-7.9954e-14
-1.48561e-13
-7.7754e-14
-1.36132e-13
-7.78526e-14
-1.22479e-13
-8.05208e-14
-1.10923e-13
-7.90496e-14
-9.90467e-14
-7.79302e-14
-8.76645e-14
-7.65908e-14
-7.66112e-14
-7.50968e-14
-6.59109e-14
-7.35002e-14
-5.56175e-14
-7.18365e-14
-4.55993e-14
-7.02605e-14
-3.58826e-14
-6.86806e-14
-2.64415e-14
-6.72405e-14
-1.72557e-14
-6.58716e-14
-8.27415e-15
-6.47007e-14
5.29113e-16
-6.36488e-14
9.15927e-15
-6.26669e-14
1.77492e-14
-6.22679e-14
2.6337e-14
-6.18966e-14
3.48869e-14
-6.16002e-14
4.34665e-14
-6.15698e-14
5.21837e-14
-6.17615e-14
6.09753e-14
-6.19023e-14
6.98464e-14
-6.22082e-14
7.89498e-14
-6.25889e-14
8.82075e-14
-6.2881e-14
9.76666e-14
-6.29961e-14
1.07209e-13
-6.28779e-14
1.16882e-13
-6.25506e-14
1.26563e-13
-6.17498e-14
1.36198e-13
-6.04821e-14
1.45668e-13
-5.86139e-14
1.54856e-13
-5.62137e-14
1.63595e-13
-5.28612e-14
1.71934e-13
-4.91171e-14
1.79448e-13
-4.44762e-14
1.86243e-13
-3.90803e-14
1.91993e-13
-3.30096e-14
1.96703e-13
-2.63936e-14
2.00156e-13
-1.9078e-14
2.02354e-13
-1.14101e-14
2.03125e-13
-3.54534e-15
2.02436e-13
4.7628e-15
2.00342e-13
1.30066e-14
1.96737e-13
2.12036e-14
1.91737e-13
2.91388e-14
1.85395e-13
3.64458e-14
1.77764e-13
4.32395e-14
1.6891e-13
4.92841e-14
1.58967e-13
5.43739e-14
1.48174e-13
5.82706e-14
1.36808e-13
6.07531e-14
1.25305e-13
6.15375e-14
1.14733e-13
6.00537e-14
1.06544e-13
5.61318e-14
1.02577e-13
5.04193e-14
8.82838e-15
1.60658e-13
2.48631e-15
3.6383e-13
-4.68297e-18
2.02375e-13
2.30342e-21
-1.05843e-19
2.33203e-21
-6.45718e-23
2.34314e-21
2.48154e-24
2.35514e-21
6.87594e-23
2.36522e-21
1.32866e-22
2.36998e-21
1.94336e-22
2.36755e-21
2.52549e-22
2.3571e-21
3.06832e-22
2.33839e-21
3.56877e-22
2.31135e-21
4.0232e-22
2.2764e-21
4.43162e-22
2.23422e-21
4.79196e-22
2.18505e-21
5.10629e-22
2.12984e-21
5.37461e-22
2.06899e-21
5.59691e-22
2.00338e-21
5.77837e-22
1.93348e-21
5.92106e-22
1.86017e-21
6.0286e-22
1.78392e-21
6.10149e-22
1.70523e-21
6.14544e-22
1.62458e-21
6.16456e-22
1.54254e-21
6.1625e-22
1.45935e-21
6.13716e-22
1.37545e-21
6.09684e-22
1.29113e-21
6.04255e-22
1.20655e-21
5.9769e-22
1.12223e-21
5.90193e-22
1.0378e-21
5.8187e-22
9.54101e-22
5.73236e-22
8.70711e-22
5.64086e-22
7.8789e-22
5.54987e-22
7.05792e-22
5.45991e-22
6.2447e-22
5.37306e-22
5.43613e-22
5.28879e-22
4.63686e-22
5.21176e-22
3.84329e-22
5.13989e-22
3.05488e-22
5.0763e-22
2.27216e-22
5.02305e-22
1.4941e-22
4.97963e-22
7.17062e-23
4.94913e-22
4.92948e-22
-4.19756e-14
2.51236e-13
-8.26675e-14
2.45088e-13
-1.21016e-13
2.33633e-13
-1.56114e-13
2.17324e-13
-1.87087e-13
1.96745e-13
-2.13401e-13
1.72917e-13
-2.34747e-13
1.46741e-13
-2.50855e-13
1.19144e-13
-2.61611e-13
9.08684e-14
-2.67921e-13
6.34465e-14
-2.70453e-13
3.82514e-14
-2.67013e-13
1.23424e-14
-2.60821e-13
-1.12129e-14
-2.59354e-13
-1.97105e-14
-2.47065e-13
-3.49873e-14
-2.32061e-13
-5.96907e-14
-2.18214e-13
-7.20639e-14
-2.07759e-13
-7.54825e-14
-1.97059e-13
-6.9553e-14
-1.73561e-13
-9.72912e-14
-1.63766e-13
-8.97592e-14
-1.49608e-13
-9.19194e-14
-1.35701e-13
-9.17652e-14
-1.22187e-13
-9.40396e-14
-1.09933e-13
-9.1305e-14
-9.78375e-14
-9.00279e-14
-8.61965e-14
-8.82314e-14
-7.50634e-14
-8.6229e-14
-6.43622e-14
-8.41983e-14
-5.40012e-14
-8.21922e-14
-4.40633e-14
-8.01919e-14
-3.44333e-14
-7.8305e-14
-2.51315e-14
-7.65353e-14
-1.6061e-14
-7.49362e-14
-7.24088e-15
-7.35117e-14
1.27e-15
-7.21508e-14
9.80554e-15
-7.11937e-14
1.8192e-14
-7.06453e-14
2.65232e-14
-7.02198e-14
3.4923e-14
-6.99888e-14
4.33094e-14
-6.99467e-14
5.18592e-14
-7.03009e-14
6.06382e-14
-7.06689e-14
6.95736e-14
-7.11321e-14
7.86467e-14
-7.16499e-14
8.8066e-14
-7.22856e-14
9.77563e-14
-7.26712e-14
1.07637e-13
-7.27416e-14
1.17611e-13
-7.25072e-14
1.27803e-13
-7.19263e-14
1.38006e-13
-7.06662e-14
1.48177e-13
-6.87653e-14
1.57988e-13
-6.60061e-14
1.67514e-13
-6.23698e-14
1.76564e-13
-5.81446e-14
1.84772e-13
-5.26629e-14
1.92216e-13
-4.65008e-14
1.98662e-13
-3.94341e-14
2.03908e-13
-3.16164e-14
2.07828e-13
-2.29768e-14
2.10396e-13
-1.39557e-14
2.11371e-13
-4.49895e-15
2.10726e-13
5.43156e-15
2.08455e-13
1.52979e-14
2.04571e-13
2.51104e-14
1.99197e-13
3.45342e-14
1.92219e-13
4.34419e-14
1.83758e-13
5.17186e-14
1.73948e-13
5.91142e-14
1.62889e-13
6.54514e-14
1.5068e-13
7.04983e-14
1.37544e-13
7.39048e-14
1.23842e-13
7.52597e-14
1.1058e-13
7.33338e-14
1.01312e-13
6.54142e-14
1.08663e-13
4.30822e-14
-2.26518e-14
2.91989e-13
5.11528e-15
3.36077e-13
-3.29168e-18
2.07506e-13
2.35635e-21
-1.20509e-19
2.39913e-21
-7.3981e-23
2.40937e-21
4.85969e-24
2.41925e-21
8.24596e-23
2.42664e-21
1.57681e-22
2.42814e-21
2.29594e-22
2.42183e-21
2.9732e-22
2.4072e-21
3.60496e-22
2.38388e-21
4.18398e-22
2.35224e-21
4.70976e-22
2.31249e-21
5.17815e-22
2.26565e-21
5.59174e-22
2.21188e-21
5.94691e-22
2.15212e-21
6.24728e-22
2.08708e-21
6.49492e-22
2.01765e-21
6.69499e-22
1.94424e-21
6.84854e-22
1.86746e-21
6.95917e-22
1.78836e-21
7.03465e-22
1.70715e-21
7.07498e-22
1.62427e-21
7.08532e-22
1.54006e-21
7.06981e-22
1.45527e-21
7.03259e-22
1.36997e-21
6.97675e-22
1.28456e-21
6.90489e-22
1.1991e-21
6.81959e-22
1.11395e-21
6.72498e-22
1.02912e-21
6.62262e-22
9.44899e-22
6.5156e-22
8.61612e-22
6.40651e-22
7.78894e-22
6.29485e-22
6.97055e-22
6.18524e-22
6.16043e-22
6.07874e-22
5.35858e-22
5.97793e-22
4.56449e-22
5.88384e-22
3.7797e-22
5.79957e-22
3.00163e-22
5.72357e-22
2.22873e-22
5.65947e-22
1.46308e-22
5.6088e-22
6.98451e-23
5.57003e-22
5.5478e-22
-4.77801e-14
2.99004e-13
-9.4012e-14
2.91295e-13
-1.37332e-13
2.76934e-13
-1.76639e-13
2.56613e-13
-2.10961e-13
2.3105e-13
-2.39509e-13
2.01449e-13
-2.6213e-13
1.69346e-13
-2.78459e-13
1.35455e-13
-2.88842e-13
1.01235e-13
-2.94479e-13
6.90675e-14
-2.94095e-13
3.78501e-14
-2.87069e-13
5.30195e-15
-2.83247e-13
-1.50479e-14
-2.77778e-13
-2.51931e-14
-2.57439e-13
-5.53408e-14
-2.4322e-13
-7.39241e-14
-2.28028e-13
-8.7271e-14
-2.18881e-13
-8.46431e-14
-1.93103e-13
-9.53461e-14
-1.80049e-13
-1.10357e-13
-1.64786e-13
-1.05034e-13
-1.50367e-13
-1.06349e-13
-1.345e-13
-1.0764e-13
-1.21634e-13
-1.06912e-13
-1.08503e-13
-1.04439e-13
-9.6123e-14
-1.02409e-13
-8.43666e-14
-9.99864e-14
-7.31317e-14
-9.74622e-14
-6.23723e-14
-9.49562e-14
-5.20903e-14
-9.24696e-14
-4.2204e-14
-9.00727e-14
-3.27166e-14
-8.77847e-14
-2.3547e-14
-8.56979e-14
-1.47041e-14
-8.37714e-14
-6.15177e-15
-8.20551e-14
2.18552e-15
-8.04805e-14
1.05658e-14
-7.95635e-14
1.858e-14
-7.86505e-14
2.66738e-14
-7.83039e-14
3.48559e-14
-7.81607e-14
4.31253e-14
-7.82033e-14
5.14363e-14
-7.85996e-14
6.00838e-14
-7.93045e-14
6.90421e-14
-8.00743e-14
7.82457e-14
-8.08369e-14
8.77155e-14
-8.17443e-14
9.75987e-14
-8.25393e-14
1.07872e-13
-8.29991e-14
1.18382e-13
-8.2997e-14
1.29053e-13
-8.25794e-14
1.39959e-13
-8.15552e-14
1.50813e-13
-7.95994e-14
1.61421e-13
-7.65939e-14
1.71973e-13
-7.29013e-14
1.81818e-13
-6.79705e-14
1.90994e-13
-6.18146e-14
1.99302e-13
-5.4786e-14
2.06563e-13
-4.66736e-14
2.12472e-13
-3.7504e-14
2.17056e-13
-2.75399e-14
2.19981e-13
-1.68599e-14
2.21095e-13
-5.59451e-15
2.20616e-13
5.93259e-15
2.18206e-13
1.77247e-14
2.1404e-13
2.92941e-14
2.08149e-13
4.04451e-14
2.00463e-13
5.11456e-14
1.91159e-13
6.10374e-14
1.80247e-13
7.00421e-14
1.67921e-13
7.77946e-14
1.54147e-13
8.42849e-14
1.38902e-13
8.91628e-14
1.22029e-13
9.21465e-14
1.02753e-13
9.26221e-14
7.92227e-14
8.89572e-14
4.506e-14
7.7254e-14
2.34429e-15
3.34718e-13
5.87949e-15
3.32552e-13
-1.63852e-18
2.13396e-13
2.43576e-21
-1.34805e-19
2.47792e-21
-8.33902e-23
2.48702e-21
8.01331e-24
2.49447e-21
9.79175e-23
2.49855e-21
1.84875e-22
2.49586e-21
2.67903e-22
2.48506e-21
3.45917e-22
2.4651e-21
4.18295e-22
2.43641e-21
4.84573e-22
2.39903e-21
5.44285e-22
2.35379e-21
5.97328e-22
2.30122e-21
6.43443e-22
2.24192e-21
6.82993e-22
2.17693e-21
7.16132e-22
2.10704e-21
7.43118e-22
2.03295e-21
7.64522e-22
1.9554e-21
7.80497e-22
1.87496e-21
7.91922e-22
1.7924e-21
7.9885e-22
1.70823e-21
8.02055e-22
1.62272e-21
8.019e-22
1.53633e-21
7.9885e-22
1.44969e-21
7.9337e-22
1.36283e-21
7.8577e-22
1.27598e-21
7.76464e-22
1.18959e-21
7.65918e-22
1.10377e-21
7.54182e-22
1.01841e-21
7.41619e-22
9.34042e-22
7.28591e-22
8.50445e-22
7.15356e-22
7.67934e-22
7.02018e-22
6.86405e-22
6.8899e-22
6.05962e-22
6.76272e-22
5.26501e-22
6.64226e-22
4.4797e-22
6.53007e-22
3.70422e-22
6.42926e-22
2.93753e-22
6.34086e-22
2.17807e-22
6.26641e-22
1.42482e-22
6.20747e-22
6.75703e-23
6.16405e-22
6.13871e-22
-5.5069e-14
3.54062e-13
-1.08155e-13
3.44357e-13
-1.57653e-13
3.2641e-13
-2.02165e-13
3.01105e-13
-2.40483e-13
2.6935e-13
-2.71662e-13
2.32612e-13
-2.95833e-13
1.93499e-13
-3.11619e-13
1.51225e-13
-3.2212e-13
1.11723e-13
-3.25895e-13
7.28294e-14
-3.19249e-13
3.11905e-14
-3.14608e-13
6.49311e-16
-3.12801e-13
-1.68665e-14
-2.89885e-13
-4.81205e-14
-2.73097e-13
-7.21406e-14
-2.53444e-13
-9.35911e-14
-2.45335e-13
-9.53892e-14
-2.20149e-13
-1.09841e-13
-1.95581e-13
-1.19925e-13
-1.84067e-13
-1.21881e-13
-1.66172e-13
-1.2294e-13
-1.49539e-13
-1.22992e-13
-1.3359e-13
-1.23597e-13
-1.20018e-13
-1.20488e-13
-1.06481e-13
-1.1798e-13
-9.38889e-14
-1.15001e-13
-8.19744e-14
-1.11904e-13
-7.06703e-14
-1.08763e-13
-5.99249e-14
-1.05699e-13
-4.96949e-14
-1.02696e-13
-3.9945e-14
-9.9818e-14
-3.0577e-14
-9.71456e-14
-2.16492e-14
-9.46184e-14
-1.30385e-14
-9.23751e-14
-4.8192e-15
-9.02663e-14
3.3994e-15
-8.86903e-14
1.13689e-14
-8.75219e-14
1.92318e-14
-8.65029e-14
2.68764e-14
-8.59352e-14
3.46655e-14
-8.59389e-14
4.26703e-14
-8.6198e-14
5.08702e-14
-8.67853e-14
5.92332e-14
-8.76564e-14
6.80808e-14
-8.89089e-14
7.7421e-14
-9.01606e-14
8.707e-14
-9.13773e-14
9.72255e-14
-9.26796e-14
1.07803e-13
-9.35593e-14
1.18843e-13
-9.40208e-14
1.30268e-13
-9.39872e-14
1.41871e-13
-9.31396e-14
1.53531e-13
-9.1239e-14
1.65362e-13
-8.84044e-14
1.7689e-13
-8.44082e-14
1.87726e-13
-7.87887e-14
1.98123e-13
-7.21908e-14
2.07489e-13
-6.41307e-14
2.15717e-13
-5.48804e-14
2.22494e-13
-4.42608e-14
2.27716e-13
-3.27418e-14
2.31193e-13
-2.03199e-14
2.32719e-13
-7.10279e-15
2.32283e-13
6.38405e-15
2.29806e-13
2.02218e-14
2.25289e-13
3.38253e-14
2.18801e-13
4.69479e-14
2.10367e-13
5.95942e-14
2.00085e-13
7.13333e-14
1.8806e-13
8.20786e-14
1.74343e-13
9.15227e-14
1.59018e-13
9.96208e-14
1.41905e-13
1.06288e-13
1.22416e-13
1.11643e-13
9.88686e-14
1.16177e-13
6.64369e-14
1.21395e-13
7.86441e-15
1.35832e-13
9.30796e-15
3.3328e-13
4.72611e-15
3.37141e-13
-5.2955e-19
2.18128e-13
2.54163e-21
-1.47512e-19
2.56938e-21
-9.23857e-23
2.57693e-21
1.25111e-23
2.58148e-21
1.1565e-22
2.58158e-21
2.15325e-22
2.57393e-21
3.10089e-22
2.55738e-21
3.99115e-22
2.53138e-21
4.81316e-22
2.49617e-21
5.56124e-22
2.45202e-21
6.23177e-22
2.40001e-21
6.82372e-22
2.34071e-21
7.33451e-22
2.27506e-21
7.76774e-22
2.20392e-21
8.12653e-22
2.12839e-21
8.41501e-22
2.04903e-21
8.63628e-22
1.96673e-21
8.79913e-22
1.88194e-21
8.90719e-22
1.7956e-21
8.96819e-22
1.70802e-21
8.98628e-22
1.61967e-21
8.96767e-22
1.53085e-21
8.91701e-22
1.44209e-21
8.84049e-22
1.35358e-21
8.74175e-22
1.26538e-21
8.62388e-22
1.17791e-21
8.49049e-22
1.09121e-21
8.3478e-22
1.00539e-21
8.19736e-22
9.20756e-22
8.04123e-22
8.37159e-22
7.882e-22
7.54854e-22
7.72432e-22
6.73739e-22
7.56974e-22
5.93916e-22
7.42033e-22
5.15282e-22
7.27919e-22
4.37889e-22
7.14788e-22
3.6153e-22
7.02948e-22
2.86308e-22
6.9266e-22
2.11965e-22
6.84078e-22
1.38139e-22
6.77254e-22
6.49854e-23
6.72498e-22