/*--------------------------------*- C++ -*----------------------------------*\
  =========                 |
  \\      /  F ield         | OpenFOAM: The Open Source CFD Toolbox
   \\    /   O peration     | Website:  https://openfoam.org
    \\  /    A nd           | Version:  6
     \\/     M anipulation  |
\*---------------------------------------------------------------------------*/
FoamFile
{
    version     2.0;
    format      ascii;
    class       volScalarField;
    location    "4700";
    object      Su;
}
// * * * * * * * * * * * * * * * * * * * * * * * * * * * * * * * * * * * * * //

dimensions      [0 0 -1 0 0 0 0];

internalField   nonuniform List<scalar> 
4800
(
0.218353
0.213867
0.209351
0.204784
0.200156
0.195475
0.190756
0.186031
0.181354
0.17679
0.172401
0.168243
0.164362
0.160773
0.15747
0.154446
0.151685
0.149164
0.146857
0.144736
0.142774
0.140942
0.139213
0.137558
0.135953
0.134367
0.132777
0.131165
0.129516
0.127819
0.126067
0.124261
0.122408
0.120516
0.118584
0.11661
0.114586
0.112509
0.110374
0.10818
0.105925
0.10361
0.101236
0.0988085
0.0963402
0.0938466
0.0913424
0.0888427
0.0863601
0.0839036
0.081479
0.0790919
0.0767475
0.0744498
0.0722009
0.0699998
0.0678432
0.0657222
0.0636235
0.061536
0.0594528
0.0573632
0.0552538
0.0531194
0.0509617
0.0487745
0.0465506
0.0442856
0.0419706
0.0395994
0.0371651
0.0346582
0.0320696
0.0293893
0.0266074
0.0237193
0.0207254
0.0176316
0.0144509
0.0112005
0.00790449
0.00460476
0.00133225
-0.00191148
-0.00512563
-0.00831088
-0.0114688
-0.0146015
-0.0177113
-0.0208003
-0.0238705
-0.0269236
-0.0299614
-0.0329849
-0.0359954
-0.0389939
-0.0419812
-0.044958
-0.0479251
-0.0508831
-0.0538325
-0.0567739
-0.0597078
-0.0626346
-0.0655548
-0.068469
-0.0713774
-0.0742807
-0.0771791
-0.0800731
-0.0829632
-0.0858497
-0.088733
-0.0916136
-0.0944917
-0.0973679
-0.100242
-0.103116
-0.105988
-0.10886
0.218353
0.213865
0.209344
0.204775
0.200152
0.195481
0.190779
0.186075
0.181415
0.176859
0.172475
0.168329
0.164458
0.160866
0.157553
0.154515
0.151737
0.1492
0.146882
0.144755
0.142792
0.140961
0.139235
0.137586
0.135985
0.134407
0.132828
0.13123
0.129598
0.127918
0.126187
0.124406
0.122577
0.120706
0.118794
0.116836
0.114827
0.112761
0.110635
0.108447
0.106195
0.103879
0.101501
0.0990698
0.0966001
0.0941061
0.0916039
0.0891054
0.0866209
0.0841607
0.0817318
0.0793413
0.0769955
0.0746977
0.0724484
0.0702432
0.0680768
0.0659419
0.0638284
0.061728
0.0596325
0.0575301
0.0554091
0.0532656
0.0510976
0.0489003
0.0466646
0.0443834
0.0420538
0.0396694
0.0372226
0.0347048
0.032106
0.0294162
0.0266255
0.0237275
0.0207233
0.0176195
0.0144302
0.0111742
0.00787555
0.00457422
0.0013007
-0.00194286
-0.00515577
-0.00833908
-0.0114947
-0.014625
-0.0177325
-0.0208195
-0.0238879
-0.0269395
-0.0299759
-0.0329983
-0.0360078
-0.0390054
-0.0419919
-0.0449681
-0.0479345
-0.0508918
-0.0538406
-0.0567814
-0.0597147
-0.062641
-0.0655608
-0.0684744
-0.0713824
-0.0742852
-0.0771832
-0.0800768
-0.0829665
-0.0858526
-0.0887355
-0.0916157
-0.0944935
-0.0973693
-0.100243
-0.103116
-0.105988
-0.10886
0.218351
0.21386
0.209339
0.204774
0.200161
0.195508
0.190826
0.186145
0.181507
0.176977
0.172623
0.168498
0.16463
0.16103
0.157706
0.154653
0.151856
0.149301
0.146967
0.144829
0.142857
0.141022
0.139297
0.137653
0.136063
0.134497
0.132936
0.13136
0.129756
0.128112
0.126427
0.124696
0.122916
0.121088
0.119215
0.117288
0.115306
0.113264
0.111156
0.108981
0.106737
0.104423
0.102046
0.0996149
0.0971462
0.094651
0.0921475
0.0896448
0.087155
0.0846874
0.0822503
0.0798526
0.0775001
0.0751963
0.0729399
0.0707242
0.0685433
0.0663898
0.0642534
0.0621288
0.060008
0.0578817
0.0557394
0.053576
0.0513859
0.049162
0.0468947
0.044582
0.0422232
0.0398111
0.0373389
0.0348003
0.0321833
0.0294762
0.026669
0.0237521
0.0207265
0.0176043
0.0143993
0.0111295
0.00782078
0.00451288
0.00123657
-0.00200658
-0.00521676
-0.00839585
-0.0115466
-0.014672
-0.0177748
-0.0208575
-0.0239224
-0.0269709
-0.0300047
-0.0330249
-0.0360325
-0.0390284
-0.0420133
-0.044988
-0.0479531
-0.0509092
-0.0538568
-0.0567965
-0.0597287
-0.0626539
-0.0655727
-0.0684853
-0.0713924
-0.0742943
-0.0771914
-0.0800842
-0.0829731
-0.0858584
-0.0887406
-0.0916201
-0.0944972
-0.0973723
-0.100246
-0.103118
-0.105989
-0.10886
0.218352
0.213866
0.209353
0.204799
0.200202
0.195572
0.190927
0.18629
0.181701
0.177207
0.172872
0.168751
0.164874
0.161261
0.15792
0.154849
0.152037
0.149469
0.147127
0.144982
0.143004
0.141166
0.139444
0.137808
0.136228
0.134678
0.133138
0.131593
0.130031
0.128441
0.126817
0.125147
0.123431
0.121665
0.119847
0.117968
0.116027
0.114017
0.111936
0.109781
0.107551
0.105246
0.102873
0.100446
0.0979782
0.0954817
0.092976
0.0904672
0.0879699
0.0854919
0.0830435
0.0806332
0.0782683
0.0759526
0.0736814
0.0714482
0.0692496
0.0670772
0.0649151
0.0627612
0.0606086
0.0584476
0.0562663
0.0540641
0.0518324
0.0495614
0.0472481
0.0448927
0.0424876
0.0400304
0.0375186
0.0349439
0.0322951
0.0295591
0.0267242
0.0237805
0.0207276
0.0175778
0.0143493
0.0110613
0.00773727
0.00441759
0.00113712
-0.00210479
-0.00530999
-0.00848191
-0.0116246
-0.014742
-0.0178375
-0.0209139
-0.0239733
-0.0270174
-0.0300474
-0.0330644
-0.0360692
-0.0390626
-0.0420453
-0.0450179
-0.047981
-0.0509352
-0.0538811
-0.056819
-0.0597496
-0.0626733
-0.0655905
-0.0685017
-0.0714074
-0.0743079
-0.0772037
-0.0800953
-0.0829829
-0.0858671
-0.0887482
-0.0916265
-0.0945026
-0.0973767
-0.100249
-0.10312
-0.105991
-0.108861
0.218359
0.213887
0.209389
0.204854
0.200281
0.195682
0.191071
0.186473
0.181921
0.177468
0.173173
0.169078
0.165206
0.161583
0.158227
0.15514
0.152315
0.149737
0.147388
0.14524
0.143263
0.141433
0.139723
0.138097
0.136531
0.135003
0.133495
0.131992
0.13048
0.128948
0.127386
0.125783
0.124135
0.12244
0.120691
0.118877
0.116989
0.115023
0.112975
0.110847
0.108637
0.106346
0.103983
0.101562
0.0990941
0.0965987
0.0940906
0.0915748
0.0890679
0.0865774
0.0841153
0.0816889
0.0793089
0.0769784
0.0746904
0.0724408
0.0702253
0.0680289
0.0658349
0.0636469
0.0614553
0.0592474
0.0570151
0.0547601
0.0524747
0.0501477
0.0477734
0.0453515
0.04288
0.0403574
0.0377799
0.0351421
0.0324375
0.0296533
0.0267747
0.0237926
0.0207065
0.0175256
0.0142682
0.010956
0.0076141
0.00428178
0.00099761
-0.00224082
-0.00543749
-0.00859812
-0.0117287
-0.0148345
-0.0179198
-0.0209876
-0.0240398
-0.0270781
-0.0301033
-0.0331162
-0.0361174
-0.0391077
-0.0420875
-0.0450574
-0.048018
-0.0509698
-0.0539133
-0.056849
-0.0597774
-0.062699
-0.0656142
-0.0685234
-0.0714272
-0.074326
-0.0772201
-0.0801099
-0.082996
-0.0858786
-0.0887582
-0.0916351
-0.0945098
-0.0973825
-0.100254
-0.103124
-0.105993
-0.108861
0.218373
0.213927
0.209454
0.204944
0.200403
0.195845
0.191283
0.186736
0.182242
0.177843
0.173582
0.169503
0.165639
0.162017
0.158653
0.155555
0.152721
0.150138
0.147789
0.145641
0.14367
0.141857
0.140164
0.138556
0.137013
0.135514
0.134041
0.132584
0.131125
0.129651
0.128154
0.126623
0.125049
0.123429
0.121753
0.120009
0.118178
0.116265
0.114261
0.11217
0.109987
0.107717
0.10537
0.102958
0.100494
0.0980003
0.0954891
0.0929654
0.0904476
0.0879432
0.0854655
0.0830214
0.0806256
0.0782818
0.0759795
0.0737159
0.0714824
0.069259
0.0670333
0.0648095
0.0625751
0.060313
0.0580193
0.0556981
0.0533426
0.0509405
0.0484873
0.0459853
0.0434309
0.0408197
0.0381514
0.0354244
0.0326338
0.0297703
0.0268242
0.0237866
0.0206544
0.0174334
0.0141384
0.0107989
0.00744173
0.00409802
0.000812
-0.00241896
-0.00560163
-0.00874514
-0.0118583
-0.0149483
-0.0180201
-0.0210768
-0.0241204
-0.0271516
-0.0301712
-0.0331794
-0.0361767
-0.0391633
-0.0421397
-0.0451065
-0.048064
-0.0510128
-0.0539535
-0.0568864
-0.0598121
-0.062731
-0.0656437
-0.0685506
-0.071452
-0.0743485
-0.0772404
-0.0801282
-0.0830122
-0.0858929
-0.0887707
-0.0916458
-0.0945187
-0.0973897
-0.100259
-0.103128
-0.105995
-0.108862
0.21839
0.213979
0.209543
0.205072
0.200573
0.196063
0.191561
0.187087
0.182663
0.17832
0.174103
0.170049
0.166194
0.162573
0.159208
0.156114
0.153282
0.150701
0.148359
0.14622
0.144268
0.142478
0.140805
0.139221
0.137709
0.136244
0.134811
0.1334
0.131993
0.130577
0.129146
0.127682
0.126183
0.124637
0.123034
0.121359
0.119592
0.117738
0.115788
0.113742
0.111596
0.109353
0.107025
0.104625
0.102171
0.0996785
0.0971647
0.0946342
0.0921052
0.089586
0.0870907
0.0846285
0.0822188
0.079865
0.0775524
0.0752788
0.0730278
0.0707802
0.0685227
0.0662598
0.0639702
0.0616443
0.0592798
0.0568827
0.0544426
0.0519538
0.0494095
0.0468107
0.0441528
0.0414322
0.0386489
0.0358037
0.0328962
0.0299235
0.0268814
0.0237675
0.0205778
0.0173074
0.0139686
0.0105959
0.00721751
0.00385881
0.000572792
-0.0026443
-0.00580455
-0.0089227
-0.0120117
-0.0150807
-0.0181356
-0.0211793
-0.0242128
-0.0272365
-0.03025
-0.0332533
-0.0362462
-0.0392289
-0.0422017
-0.0451648
-0.0481189
-0.0510642
-0.0540015
-0.0569311
-0.0598536
-0.0627694
-0.0656791
-0.068583
-0.0714816
-0.0743754
-0.0772647
-0.08015
-0.0830316
-0.08591
-0.0887855
-0.0916585
-0.0945293
-0.0973984
-0.100266
-0.103132
-0.105998
-0.108863
0.218414
0.21405
0.209663
0.205241
0.200791
0.196326
0.191869
0.187443
0.183072
0.178786
0.174624
0.170622
0.166811
0.163224
0.159888
0.156819
0.154003
0.151439
0.149116
0.146996
0.145068
0.143309
0.141663
0.140112
0.138638
0.13721
0.135819
0.134455
0.133101
0.131742
0.130372
0.12897
0.127538
0.12606
0.124526
0.122918
0.121222
0.119433
0.117542
0.115546
0.113442
0.111232
0.108928
0.106547
0.104104
0.101617
0.0991018
0.0965652
0.0940251
0.0914911
0.0889796
0.0865038
0.0840842
0.0817234
0.0794031
0.0771192
0.0748511
0.0725784
0.0702852
0.0679803
0.0656266
0.063235
0.0607944
0.0583167
0.0557843
0.0531966
0.0505467
0.0478392
0.0450653
0.0422169
0.0392949
0.0363042
0.0332503
0.0301378
0.0269724
0.02376
0.0204926
0.0171594
0.0137699
0.0103509
0.00693497
0.00355179
0.000269195
-0.00292263
-0.00604711
-0.00912837
-0.0121847
-0.0152274
-0.0182624
-0.0212915
-0.0243145
-0.0273304
-0.0303381
-0.0333366
-0.0363253
-0.039304
-0.0422729
-0.0452322
-0.0481824
-0.0511239
-0.0540573
-0.0569832
-0.0599019
-0.0628141
-0.0657202
-0.0686207
-0.071516
-0.0744066
-0.0772929
-0.0801752
-0.0830541
-0.0859298
-0.0888027
-0.0916732
-0.0945416
-0.0974083
-0.100274
-0.103138
-0.106001
-0.108864
0.218444
0.21414
0.209812
0.205453
0.201064
0.196655
0.192246
0.187863
0.183542
0.179321
0.175229
0.171296
0.167547
0.164012
0.160717
0.157678
0.154888
0.15235
0.150057
0.147966
0.146076
0.144356
0.142744
0.141233
0.139801
0.138413
0.137068
0.135752
0.134449
0.133143
0.131827
0.130483
0.129112
0.127694
0.126225
0.124682
0.123058
0.121335
0.119503
0.11756
0.115501
0.113326
0.111052
0.108694
0.106267
0.103788
0.101273
0.0987335
0.0961845
0.0936371
0.0911104
0.0886221
0.0861919
0.0838214
0.08149
0.0791896
0.0768993
0.0745954
0.0722703
0.0699203
0.0675094
0.0650593
0.0625458
0.0599834
0.0573539
0.0546612
0.051903
0.0490776
0.0461734
0.0431819
0.0401056
0.0369504
0.0337268
0.0304506
0.0271396
0.0238005
0.0204289
0.0170141
0.0135501
0.0100558
0.00657538
0.00315296
-0.000115399
-0.00325941
-0.00632657
-0.00935537
-0.0123697
-0.0153813
-0.0183945
-0.0214088
-0.0244219
-0.0274311
-0.0304337
-0.0334281
-0.0364131
-0.0393881
-0.0423532
-0.0453085
-0.0482545
-0.0511918
-0.0541209
-0.0570424
-0.0599569
-0.0628649
-0.065767
-0.0686635
-0.071555
-0.074442
-0.0773248
-0.0802038
-0.0830795
-0.0859521
-0.0888221
-0.0916898
-0.0945555
-0.0974195
-0.100282
-0.103144
-0.106005
-0.108865
0.21848
0.214247
0.209989
0.205703
0.201392
0.197062
0.192737
0.188441
0.184201
0.180047
0.176016
0.172139
0.168444
0.164957
0.161705
0.158698
0.15594
0.15344
0.151189
0.149143
0.147299
0.145622
0.144049
0.142577
0.141184
0.139836
0.138539
0.137269
0.136016
0.134757
0.133492
0.132206
0.13089
0.129529
0.128121
0.126641
0.125085
0.123422
0.121651
0.11976
0.117746
0.115607
0.113365
0.111034
0.108627
0.106159
0.103648
0.101108
0.0985498
0.0959873
0.0934436
0.0909392
0.0884917
0.0861023
0.083752
0.0814293
0.0791132
0.0767798
0.0744199
0.0720202
0.0695618
0.0670522
0.0644762
0.0618361
0.0591186
0.0563257
0.0534596
0.0505132
0.0474746
0.0443337
0.0410943
0.0377635
0.0343559
0.0308961
0.0274106
0.023911
0.0204009
0.0168727
0.0132994
0.00968712
0.00610164
0.00261456
-0.000605779
-0.00365573
-0.0066317
-0.00958922
-0.0125533
-0.0155319
-0.0185242
-0.0215259
-0.0245315
-0.0275359
-0.0305353
-0.0335268
-0.0365089
-0.0394807
-0.0424421
-0.0453934
-0.0483351
-0.0512678
-0.0541921
-0.0571089
-0.0600186
-0.0629219
-0.0658193
-0.0687114
-0.0715987
-0.0744815
-0.0773604
-0.0802357
-0.0831078
-0.085977
-0.0888437
-0.0917082
-0.0945709
-0.097432
-0.100292
-0.103151
-0.106009
-0.108867
0.218518
0.214364
0.210186
0.205984
0.20176
0.19752
0.193285
0.18908
0.184929
0.180859
0.176904
0.173094
0.169458
0.166028
0.162827
0.159868
0.157159
0.154712
0.152511
0.150517
0.14872
0.147085
0.145553
0.144121
0.142761
0.141455
0.140206
0.138973
0.137767
0.13655
0.135338
0.134107
0.132847
0.131545
0.130197
0.128779
0.127283
0.125678
0.123964
0.122122
0.120147
0.11804
0.115826
0.113521
0.111132
0.108679
0.106178
0.103639
0.101073
0.0984952
0.0959316
0.0934037
0.0909271
0.0885066
0.0861289
0.0837778
0.0814318
0.079067
0.0766681
0.0742231
0.0717205
0.0691576
0.0665263
0.0638192
0.061029
0.0581519
0.0551874
0.0521253
0.0489542
0.045665
0.0422635
0.0387576
0.0351639
0.031512
0.0278344
0.0241513
0.0204701
0.0167818
0.0130512
0.00926365
0.00547747
0.00183286
-0.00123392
-0.00409601
-0.00693363
-0.00980356
-0.0127159
-0.0156655
-0.0186426
-0.0216369
-0.0246394
-0.0276427
-0.0306414
-0.0336319
-0.0366123
-0.0395816
-0.0425397
-0.045487
-0.0484241
-0.0513518
-0.054271
-0.0571824
-0.0600868
-0.0629848
-0.0658771
-0.0687643
-0.0716468
-0.0745251
-0.0773996
-0.0802707
-0.0831388
-0.0860042
-0.0888673
-0.0917284
-0.0945877
-0.0974456
-0.100302
-0.103158
-0.106013
-0.108868
0.21856
0.21449
0.210398
0.206285
0.202151
0.198006
0.193865
0.189752
0.185692
0.181715
0.17785
0.174125
0.170568
0.167206
0.164067
0.161172
0.15853
0.156145
0.153998
0.152062
0.150311
0.148713
0.147221
0.145822
0.144493
0.143228
0.142021
0.140822
0.139661
0.138492
0.137332
0.136154
0.134953
0.133709
0.132421
0.13107
0.129627
0.128078
0.126414
0.124616
0.122672
0.120589
0.118393
0.116107
0.113736
0.1113
0.108809
0.10627
0.103695
0.101097
0.0985018
0.0959385
0.0934243
0.090967
0.0885563
0.086171
0.0837902
0.0813892
0.0789525
0.076469
0.0739272
0.0713189
0.0686386
0.0658767
0.0630237
0.0600775
0.0570327
0.0538718
0.0505797
0.0471534
0.0436012
0.039928
0.0361537
0.0323109
0.0284365
0.0245602
0.0206964
0.0168271
0.0129055
0.00886798
0.0046664
0.000512825
-0.00201276
-0.00451446
-0.00717178
-0.00995754
-0.0128326
-0.0157678
-0.0187415
-0.0217375
-0.0247434
-0.0277502
-0.0307514
-0.0337431
-0.0367231
-0.0396907
-0.0426458
-0.0455891
-0.0485215
-0.0514439
-0.0543574
-0.057263
-0.0601615
-0.0630537
-0.0659403
-0.068822
-0.0716992
-0.0745724
-0.0774421
-0.0803086
-0.0831724
-0.0860337
-0.0888928
-0.0917501
-0.0946059
-0.0974603
-0.100314
-0.103166
-0.106018
-0.10887
0.218604
0.214621
0.21062
0.206601
0.202567
0.198524
0.194489
0.190484
0.186531
0.182658
0.178894
0.175261
0.171785
0.168497
0.165432
0.162608
0.160038
0.157718
0.155631
0.153747
0.152036
0.150469
0.149009
0.147639
0.146342
0.145114
0.143939
0.142779
0.141658
0.140545
0.139435
0.138318
0.137178
0.135999
0.134774
0.133488
0.132097
0.130603
0.128984
0.127222
0.125299
0.123228
0.121033
0.11875
0.116394
0.113971
0.111485
0.10894
0.106348
0.103712
0.101069
0.0984598
0.0959021
0.0934035
0.0909538
0.0885318
0.0861182
0.0836842
0.0812145
0.078695
0.0761166
0.0734705
0.0707479
0.0679391
0.065036
0.0620319
0.058915
0.0556687
0.0522775
0.0487395
0.0450596
0.0412448
0.0373124
0.0332938
0.0292391
0.0251895
0.02116
0.0171277
0.0130365
0.00873271
0.00365281
-0.00121409
-0.00273113
-0.00471603
-0.0072441
-0.0100031
-0.0128815
-0.0158291
-0.0188171
-0.0218264
-0.0248435
-0.0278589
-0.030866
-0.033861
-0.036842
-0.0398086
-0.0427609
-0.0457002
-0.0486275
-0.0515441
-0.0544514
-0.0573505
-0.0602425
-0.0631283
-0.0660087
-0.0688842
-0.0717556
-0.0746233
-0.0774878
-0.0803493
-0.0832084
-0.0860652
-0.0889201
-0.0917734
-0.0946252
-0.0974759
-0.100326
-0.103175
-0.106023
-0.108871
0.218647
0.214754
0.210848
0.20693
0.203
0.199065
0.195137
0.191242
0.187401
0.183635
0.179965
0.176425
0.173052
0.169871
0.1669
0.164156
0.161657
0.159395
0.157357
0.155521
0.153853
0.15232
0.150889
0.149546
0.148279
0.147084
0.14594
0.144821
0.143748
0.14269
0.141635
0.140581
0.139506
0.138403
0.137248
0.136032
0.1347
0.133262
0.131683
0.129951
0.128042
0.125968
0.123748
0.121441
0.119087
0.116667
0.114176
0.111611
0.108987
0.106291
0.103586
0.10092
0.0983121
0.0957664
0.0932713
0.0908113
0.0883656
0.085898
0.0833953
0.0808422
0.0782285
0.0755447
0.0727825
0.0699316
0.0669819
0.0639227
0.0607401
0.0574171
0.0539377
0.0502987
0.0465074
0.0425773
0.0385259
0.0343838
0.0301992
0.0260175
0.0218624
0.0177241
0.0135771
0.00936216
0.00500433
0.000853384
-0.00172951
-0.00431396
-0.00705511
-0.0099177
-0.0128601
-0.0158525
-0.0188737
-0.0219079
-0.0249434
-0.0279718
-0.0309875
-0.0339874
-0.0369703
-0.039936
-0.0428856
-0.0458204
-0.0487422
-0.0516525
-0.054553
-0.057445
-0.0603298
-0.0632085
-0.066082
-0.0689509
-0.071816
-0.0746776
-0.0775364
-0.0803926
-0.0832466
-0.0860986
-0.088949
-0.091798
-0.0946457
-0.0974924
-0.100338
-0.103184
-0.106029
-0.108873
0.218691
0.214889
0.21108
0.207266
0.203449
0.199629
0.195818
0.192037
0.188309
0.184656
0.1811
0.177673
0.174406
0.171322
0.168444
0.165789
0.163366
0.161163
0.159175
0.157379
0.155744
0.154241
0.152838
0.151523
0.150288
0.149125
0.148017
0.146951
0.145935
0.144932
0.143946
0.142965
0.141969
0.140955
0.139885
0.138749
0.137492
0.136117
0.13458
0.13287
0.130965
0.128869
0.126603
0.124247
0.121869
0.119425
0.116888
0.114266
0.111574
0.10879
0.106009
0.103279
0.100612
0.0980141
0.0954722
0.0929746
0.0904945
0.0879915
0.0854523
0.0828604
0.0802053
0.0774783
0.0746698
0.0717685
0.0687635
0.0656436
0.0623915
0.0589924
0.0554297
0.0517003
0.0478159
0.0437966
0.0396666
0.0354536
0.0311937
0.0269303
0.0226978
0.0185072
0.0143625
0.0102671
0.00626493
0.00254496
-0.000698282
-0.00373902
-0.00674288
-0.00976086
-0.0128015
-0.0158596
-0.0189264
-0.0219927
-0.0250508
-0.0280945
-0.03112
-0.0341252
-0.0371098
-0.0400745
-0.0430207
-0.0459505
-0.048866
-0.0517692
-0.054662
-0.0575462
-0.0604231
-0.063294
-0.0661599
-0.0690216
-0.0718798
-0.0747351
-0.0775877
-0.0804382
-0.0832867
-0.0861337
-0.0889793
-0.0918237
-0.0946671
-0.0975097
-0.100352
-0.103193
-0.106034
-0.108875
0.218733
0.215018
0.211304
0.207591
0.203882
0.200178
0.196488
0.192828
0.189222
0.185693
0.182263
0.178956
0.175797
0.172812
0.170024
0.16745
0.165095
0.162955
0.161023
0.159275
0.157681
0.156211
0.154839
0.153555
0.15236
0.151244
0.150192
0.149194
0.148244
0.147315
0.146416
0.145525
0.144633
0.14373
0.142774
0.141745
0.140588
0.139285
0.137795
0.136108
0.134195
0.13205
0.129703
0.127248
0.124795
0.122282
0.119656
0.116925
0.114102
0.111194
0.108318
0.105511
0.102782
0.100133
0.097547
0.0950083
0.0924873
0.0899401
0.0873516
0.0847077
0.0819967
0.079209
0.0763335
0.0733591
0.0702742
0.0670688
0.0637263
0.060235
0.0565807
0.0527651
0.0488047
0.0447212
0.0405426
0.0363005
0.0320308
0.0277656
0.0235313
0.0193535
0.0152506
0.0112319
0.00732471
0.00359572
7.27142e-05
-0.00324522
-0.00645708
-0.00961951
-0.012759
-0.015885
-0.0189987
-0.0220973
-0.0251773
-0.0282353
-0.0312693
-0.0342785
-0.0372635
-0.0402258
-0.0431676
-0.0460912
-0.0489993
-0.0518943
-0.0547785
-0.0576539
-0.0605221
-0.0633845
-0.0662422
-0.0690961
-0.0719469
-0.0747952
-0.0776413
-0.0804857
-0.0833286
-0.0861702
-0.0890107
-0.0918504
-0.0946893
-0.0975276
-0.100365
-0.103203
-0.10604
-0.108877
0.218768
0.215126
0.211492
0.20787
0.204259
0.200664
0.197092
0.193558
0.190081
0.186681
0.183379
0.180195
0.177152
0.174275
0.171587
0.169102
0.166827
0.164761
0.162888
0.161189
0.159638
0.158211
0.156884
0.155652
0.154518
0.153472
0.152498
0.151587
0.150727
0.149903
0.149118
0.148349
0.147599
0.146844
0.146046
0.145163
0.144134
0.142924
0.141503
0.139842
0.137896
0.135666
0.133185
0.130578
0.127997
0.125351
0.122558
0.119635
0.116606
0.113543
0.110551
0.107659
0.104865
0.102161
0.0995222
0.0969295
0.0943541
0.0917448
0.089085
0.0863622
0.0835647
0.080682
0.0777015
0.0746128
0.0714058
0.0680703
0.0645956
0.0609761
0.0572056
0.0532925
0.0492516
0.0451113
0.0409058
0.0366648
0.0324142
0.0281848
0.0240023
0.0198842
0.0158359
0.0118564
0.00795353
0.00415263
0.000504049
-0.00296385
-0.0063084
-0.00957408
-0.0127889
-0.0159681
-0.0191183
-0.0222413
-0.0253369
-0.0284041
-0.0314424
-0.0344522
-0.0374348
-0.0403923
-0.0433274
-0.0462431
-0.0491423
-0.0520279
-0.0549023
-0.0577679
-0.0606265
-0.0634796
-0.0663284
-0.0691739
-0.0720168
-0.0748577
-0.0776969
-0.0805349
-0.0833718
-0.0862078
-0.0890431
-0.0918778
-0.0947121
-0.0975459
-0.100379
-0.103213
-0.106046
-0.108879
0.218787
0.215186
0.211604
0.208048
0.20452
0.201024
0.197569
0.194163
0.19082
0.187558
0.184394
0.181346
0.178433
0.175677
0.173099
0.170714
0.168531
0.166544
0.164739
0.1631
0.16161
0.160246
0.158989
0.157837
0.156794
0.155847
0.154982
0.154188
0.153457
0.152776
0.152146
0.15155
0.150993
0.150441
0.149851
0.149162
0.148306
0.147235
0.145909
0.144265
0.142257
0.139896
0.137228
0.134428
0.131672
0.128802
0.125735
0.122511
0.119194
0.115932
0.112794
0.109793
0.106922
0.104156
0.101456
0.0987969
0.0961465
0.0934452
0.0906789
0.0878364
0.0849062
0.0818771
0.0787367
0.0754751
0.0720835
0.0685559
0.0648918
0.06109
0.0571578
0.0531135
0.048982
0.0447908
0.0405703
0.0363494
0.0321458
0.0279826
0.0238748
0.0198302
0.0158467
0.011917
0.00804162
0.00423406
0.000555564
-0.00296731
-0.00637079
-0.00968711
-0.0129403
-0.0161458
-0.0193126
-0.0224449
-0.0255443
-0.0286114
-0.0316467
-0.0346513
-0.037627
-0.0405761
-0.0435018
-0.0464071
-0.0492955
-0.0521699
-0.0550332
-0.0578878
-0.0607358
-0.0635788
-0.066418
-0.0692545
-0.072089
-0.0749221
-0.0777541
-0.0805853
-0.083416
-0.0862462
-0.0890761
-0.0919058
-0.0947352
-0.0975645
-0.100394
-0.103223
-0.106052
-0.108881
0.218777
0.215163
0.211584
0.208054
0.20458
0.201169
0.197824
0.194548
0.191347
0.188234
0.185224
0.182328
0.179562
0.176945
0.174496
0.172229
0.17015
0.168257
0.166539
0.164988
0.163585
0.162311
0.161156
0.160122
0.159207
0.158397
0.157682
0.157049
0.156498
0.156015
0.155599
0.155241
0.154942
0.154657
0.154336
0.153904
0.1533
0.15243
0.151213
0.149581
0.147491
0.144958
0.142053
0.139021
0.136033
0.132839
0.12937
0.125726
0.12205
0.118543
0.115225
0.112094
0.109129
0.10628
0.103497
0.100746
0.0979835
0.0951442
0.0922189
0.0891982
0.086071
0.0828259
0.0794531
0.0759447
0.0722925
0.068495
0.0645545
0.0604873
0.0563236
0.0520981
0.0478436
0.0435902
0.0393612
0.0351761
0.0310421
0.0269737
0.0229743
0.0190411
0.0151674
0.0113425
0.00756424
0.00383505
0.000208824
-0.003291
-0.00668652
-0.00999965
-0.0132488
-0.0164476
-0.0196049
-0.0227258
-0.0258128
-0.0288671
-0.0318894
-0.034881
-0.0378435
-0.0407794
-0.0436917
-0.0465837
-0.0494587
-0.0523201
-0.0551707
-0.0580131
-0.0608494
-0.0636813
-0.0665103
-0.0693372
-0.0721629
-0.0749877
-0.0778122
-0.0806365
-0.0834607
-0.086285
-0.0891094
-0.0919339
-0.0947586
-0.0975833
-0.100408
-0.103233
-0.106058
-0.108883
0.218723
0.21501
0.211359
0.207796
0.204334
0.200977
0.197726
0.194576
0.191527
0.18858
0.185743
0.183022
0.180426
0.177971
0.175673
0.173546
0.171597
0.169829
0.168233
0.166802
0.16552
0.164376
0.163368
0.162496
0.161753
0.161128
0.160614
0.160201
0.159892
0.159676
0.159549
0.159502
0.15953
0.159577
0.159603
0.159513
0.159235
0.158603
0.15752
0.155924
0.15375
0.151019
0.147846
0.144565
0.141311
0.137689
0.133673
0.129504
0.125424
0.12163
0.118103
0.114824
0.111743
0.108784
0.105887
0.103001
0.100068
0.097027
0.0938708
0.0905962
0.0871938
0.0836516
0.0799608
0.076113
0.0721001
0.0679233
0.0636023
0.0591813
0.0547135
0.0502491
0.0458288
0.0414805
0.0372275
0.0330789
0.0290349
0.0250966
0.0212531
0.0174933
0.0138027
0.0101618
0.00656188
0.00299446
-0.000515363
-0.00393122
-0.00726458
-0.0105277
-0.0137329
-0.0168912
-0.0200109
-0.0230972
-0.0261528
-0.029179
-0.0321762
-0.035145
-0.0380869
-0.0410036
-0.043898
-0.046773
-0.0496319
-0.0524779
-0.0553141
-0.0581428
-0.0609664
-0.0637865
-0.0666045
-0.0694213
-0.0722377
-0.0750541
-0.0778708
-0.080688
-0.0835057
-0.0863239
-0.0891428
-0.0919621
-0.0947818
-0.097602
-0.100422
-0.103243
-0.106064
-0.108885
0.218606
0.214673
0.21084
0.207154
0.203637
0.200295
0.197118
0.194088
0.191188
0.188414
0.185768
0.183253
0.180866
0.17861
0.176499
0.174549
0.172769
0.171164
0.16973
0.168463
0.167351
0.16639
0.165577
0.164914
0.164394
0.164009
0.163758
0.16363
0.163632
0.163755
0.16399
0.164327
0.164752
0.165201
0.165654
0.165984
0.16607
0.165723
0.164839
0.16333
0.161068
0.158107
0.154653
0.151164
0.147656
0.143551
0.138885
0.134136
0.129634
0.125535
0.12179
0.11835
0.11513
0.112027
0.108965
0.105882
0.102702
0.0993768
0.0958975
0.0922751
0.0885034
0.0845758
0.0804838
0.0762158
0.0717601
0.0671116
0.062312
0.0574397
0.0525776
0.047789
0.0431306
0.0386358
0.0343166
0.0301717
0.026211
0.0224255
0.0187871
0.0152727
0.0118544
0.00849347
0.0051544
0.00181374
-0.00153668
-0.00483326
-0.00807395
-0.0112579
-0.0143904
-0.0174804
-0.0205366
-0.0235653
-0.02657
-0.0295517
-0.0325104
-0.0354459
-0.0383586
-0.0412495
-0.0441206
-0.0469746
-0.0498142
-0.0526426
-0.0554623
-0.0582761
-0.0610858
-0.0638933
-0.0666997
-0.069506
-0.0723128
-0.0751204
-0.0779292
-0.0807391
-0.0835502
-0.0863625
-0.0891757
-0.0919898
-0.0948048
-0.0976204
-0.100437
-0.103253
-0.10607
-0.108887
0.2184
0.214075
0.209908
0.205972
0.202304
0.198906
0.195759
0.192835
0.190097
0.187525
0.185104
0.182824
0.180676
0.178661
0.17679
0.175069
0.173508
0.172117
0.1709
0.169853
0.16897
0.168249
0.167688
0.167287
0.167047
0.16696
0.167031
0.167252
0.167627
0.168151
0.16881
0.169587
0.170466
0.171385
0.172304
0.1731
0.173589
0.173572
0.17294
0.171574
0.16924
0.166041
0.162341
0.158749
0.155034
0.150435
0.145088
0.139814
0.134946
0.130575
0.126647
0.123069
0.119702
0.116427
0.113139
0.109788
0.106274
0.102568
0.0986595
0.0945861
0.0903397
0.0859316
0.0813726
0.0766517
0.0717277
0.0665714
0.0612191
0.0558066
0.0504665
0.0452723
0.0402877
0.0355453
0.0310481
0.0268089
0.0228667
0.0192123
0.0158052
0.0125999
0.00954546
0.00656482
0.00356758
0.00049164
-0.00268777
-0.00587586
-0.0090368
-0.012145
-0.0151971
-0.0182034
-0.0211773
-0.024129
-0.0270646
-0.029986
-0.0328927
-0.0357838
-0.0386583
-0.0415163
-0.0443587
-0.0471873
-0.0500044
-0.0528125
-0.0556141
-0.0584114
-0.0612064
-0.0640004
-0.0667948
-0.0695902
-0.0723872
-0.075186
-0.0779867
-0.0807894
-0.083594
-0.0864002
-0.0892079
-0.092017
-0.0948272
-0.0976383
-0.10045
-0.103263
-0.106076
-0.108889
0.218071
0.21312
0.208412
0.204056
0.200106
0.19656
0.193388
0.190542
0.187967
0.185618
0.183462
0.181475
0.179637
0.177927
0.176341
0.174896
0.173614
0.172506
0.171573
0.170813
0.170226
0.169811
0.169563
0.169486
0.169579
0.169842
0.170281
0.170896
0.171683
0.172641
0.17375
0.17499
0.176337
0.177743
0.179131
0.180372
0.181257
0.181583
0.181235
0.180074
0.177702
0.174313
0.170493
0.166949
0.163131
0.15813
0.152206
0.146524
0.141396
0.136887
0.132909
0.129298
0.125815
0.122374
0.118805
0.115138
0.111221
0.10706
0.102625
0.0979996
0.0931515
0.0881485
0.0831096
0.0780229
0.0727264
0.0670848
0.0611445
0.055178
0.0493354
0.0436724
0.0382698
0.0331046
0.0282093
0.0236602
0.0195549
0.0159217
0.0127266
0.00987985
0.00728691
0.00479603
0.00219927
-0.000634214
-0.00368294
-0.00686296
-0.0100315
-0.013117
-0.0161113
-0.0190362
-0.0219187
-0.0247797
-0.0276312
-0.030478
-0.0333203
-0.0361563
-0.0389839
-0.0418019
-0.04461
-0.047409
-0.0502003
-0.0529859
-0.0557675
-0.0585472
-0.0613265
-0.0641067
-0.0668886
-0.0696729
-0.07246
-0.0752499
-0.0780427
-0.0808382
-0.0836363
-0.0864366
-0.0892389
-0.0920431
-0.0948487
-0.0976555
-0.100463
-0.103272
-0.106081
-0.108891
0.217582
0.211699
0.206185
0.201192
0.196795
0.192988
0.189722
0.186923
0.184508
0.182407
0.18056
0.178923
0.177459
0.176131
0.174921
0.173845
0.172917
0.172152
0.171564
0.171169
0.170952
0.170912
0.171041
0.171342
0.171814
0.172463
0.173291
0.174304
0.175498
0.176868
0.178393
0.180042
0.181792
0.183598
0.185383
0.186982
0.188177
0.188779
0.188688
0.187729
0.185421
0.182037
0.178356
0.175011
0.171201
0.165968
0.159708
0.153826
0.148647
0.144241
0.14046
0.137045
0.133568
0.130061
0.126204
0.122221
0.117949
0.11338
0.108392
0.103183
0.0975391
0.0917109
0.0862752
0.0811547
0.0757741
0.0698108
0.063309
0.0568567
0.0505479
0.0443188
0.0384337
0.0326605
0.0270386
0.0218063
0.0171251
0.0132399
0.0101759
0.00771646
0.00569881
0.00385884
0.00171824
-0.000932934
-0.00408205
-0.00754605
-0.0109237
-0.0140981
-0.0170875
-0.0199496
-0.0227413
-0.0255035
-0.0282597
-0.0310203
-0.0337871
-0.0365583
-0.039331
-0.0421024
-0.0448711
-0.0476365
-0.0503992
-0.05316
-0.0559204
-0.0586814
-0.0614444
-0.0642103
-0.0669796
-0.0697528
-0.0725301
-0.0753113
-0.0780963
-0.0808848
-0.0836766
-0.0864712
-0.0892684
-0.0920678
-0.0948691
-0.0976718
-0.100476
-0.103281
-0.106086
-0.108892
0.216902
0.209722
0.203082
0.197199
0.192168
0.187972
0.184541
0.181757
0.179506
0.177687
0.176199
0.174973
0.173951
0.173081
0.17233
0.171708
0.171229
0.170909
0.170762
0.170794
0.171008
0.171405
0.171966
0.172683
0.173555
0.174586
0.17578
0.177143
0.17867
0.180348
0.182153
0.184049
0.186003
0.187974
0.189895
0.191633
0.192992
0.193748
0.193738
0.192832
0.190794
0.187787
0.184507
0.181358
0.177572
0.172472
0.1664
0.160747
0.155836
0.151887
0.148694
0.145936
0.142685
0.139431
0.135259
0.130992
0.126721
0.122177
0.116808
0.111301
0.104415
0.0970406
0.0915429
0.0872412
0.0821465
0.0761239
0.0691766
0.0625419
0.0560112
0.0489178
0.0426334
0.0361208
0.0292907
0.0227457
0.0166432
0.0119848
0.00890875
0.00682057
0.00546879
0.00456249
0.00295333
0.000541055
-0.00331054
-0.00773166
-0.0116476
-0.0150543
-0.0181001
-0.0209219
-0.0236262
-0.0262845
-0.0289369
-0.0316018
-0.0342841
-0.0369825
-0.0396932
-0.0424124
-0.0451372
-0.0478658
-0.0505973
-0.0533319
-0.0560698
-0.0588117
-0.0615581
-0.0643096
-0.0670665
-0.0698288
-0.0725964
-0.0753691