/*--------------------------------*- C++ -*----------------------------------*\
  =========                 |
  \\      /  F ield         | OpenFOAM: The Open Source CFD Toolbox
   \\    /   O peration     | Website:  https://openfoam.org
    \\  /    A nd           | Version:  6
     \\/     M anipulation  |
\*---------------------------------------------------------------------------*/
FoamFile
{
    version     2.0;
    format      ascii;
    class       volScalarField;
    location    "4700";
    object      T;
}
// * * * * * * * * * * * * * * * * * * * * * * * * * * * * * * * * * * * * * //

dimensions      [0 0 0 1 0 0 0];

internalField   nonuniform List<scalar> 
4800
(
552.469
552.306
552.142
551.977
551.809
551.639
551.468
551.297
551.127
550.961
550.802
550.652
550.511
550.381
550.261
550.151
550.051
549.96
549.876
549.799
549.728
549.662
549.599
549.539
549.481
549.423
549.365
549.307
549.247
549.185
549.122
549.056
548.989
548.921
548.851
548.779
548.706
548.63
548.553
548.473
548.391
548.307
548.221
548.133
548.044
547.953
547.863
547.772
547.682
547.593
547.505
547.418
547.333
547.25
547.168
547.089
547.01
546.933
546.857
546.782
546.706
546.63
546.554
546.476
546.398
546.319
546.238
546.156
546.072
545.986
545.898
545.807
545.713
545.616
545.515
545.41
545.302
545.189
545.074
544.956
544.837
544.717
544.598
544.481
544.364
544.249
544.134
544.02
543.908
543.796
543.684
543.574
543.463
543.354
543.245
543.136
543.028
542.92
542.812
542.705
542.598
542.491
542.385
542.278
542.173
542.067
541.961
541.856
541.751
541.646
541.541
541.437
541.332
541.228
541.123
541.019
540.915
540.81
540.706
540.602
552.469
552.306
552.142
551.976
551.809
551.639
551.469
551.298
551.129
550.964
550.805
550.655
550.514
550.384
550.264
550.154
550.053
549.961
549.877
549.8
549.729
549.662
549.6
549.54
549.482
549.424
549.367
549.309
549.25
549.189
549.126
549.062
548.995
548.927
548.858
548.787
548.714
548.639
548.562
548.483
548.401
548.317
548.231
548.143
548.053
547.963
547.872
547.781
547.691
547.602
547.514
547.427
547.342
547.259
547.177
547.097
547.019
546.941
546.865
546.789
546.713
546.636
546.559
546.482
546.403
546.323
546.242
546.16
546.075
545.989
545.9
545.809
545.714
545.617
545.516
545.41
545.302
545.189
545.073
544.955
544.836
544.716
544.597
544.48
544.363
544.248
544.133
544.02
543.907
543.795
543.684
543.573
543.463
543.353
543.244
543.135
543.027
542.919
542.812
542.704
542.597
542.491
542.384
542.278
542.172
542.067
541.961
541.856
541.751
541.646
541.541
541.436
541.332
541.227
541.123
541.019
540.915
540.81
540.706
540.602
552.469
552.306
552.142
551.976
551.809
551.64
551.47
551.301
551.132
550.968
550.81
550.661
550.52
550.39
550.269
550.159
550.057
549.965
549.88
549.802
549.731
549.664
549.602
549.542
549.484
549.428
549.371
549.314
549.256
549.196
549.135
549.072
549.008
548.941
548.873
548.804
548.732
548.658
548.581
548.502
548.421
548.337
548.251
548.163
548.073
547.983
547.892
547.801
547.711
547.621
547.533
547.446
547.361
547.277
547.195
547.115
547.036
546.958
546.88
546.803
546.726
546.649
546.571
546.493
546.414
546.333
546.251
546.167
546.081
545.994
545.904
545.812
545.717
545.619
545.517
545.411
545.302
545.188
545.072
544.954
544.834
544.714
544.595
544.477
544.361
544.246
544.131
544.018
543.905
543.794
543.682
543.572
543.462
543.352
543.243
543.135
543.026
542.918
542.811
542.704
542.597
542.49
542.384
542.278
542.172
542.066
541.961
541.856
541.751
541.646
541.541
541.436
541.332
541.227
541.123
541.019
540.914
540.81
540.706
540.602
552.469
552.306
552.142
551.977
551.81
551.643
551.474
551.306
551.14
550.977
550.819
550.67
550.529
550.398
550.277
550.166
550.064
549.971
549.886
549.808
549.736
549.67
549.607
549.548
549.49
549.434
549.378
549.322
549.266
549.208
549.149
549.089
549.026
548.962
548.896
548.828
548.758
548.685
548.609
548.531
548.45
548.367
548.281
548.193
548.103
548.013
547.922
547.831
547.74
547.65
547.562
547.474
547.388
547.304
547.222
547.141
547.061
546.983
546.904
546.826
546.748
546.67
546.591
546.511
546.43
546.347
546.263
546.178
546.091
546.002
545.911
545.817
545.721
545.622
545.519
545.412
545.302
545.187
545.07
544.951
544.831
544.71
544.591
544.474
544.357
544.242
544.128
544.015
543.903
543.792
543.681
543.57
543.46
543.351
543.242
543.133
543.025
542.917
542.81
542.703
542.596
542.489
542.383
542.277
542.171
542.066
541.96
541.855
541.75
541.645
541.541
541.436
541.331
541.227
541.123
541.019
540.914
540.81
540.706
540.602
552.469
552.307
552.144
551.979
551.813
551.647
551.479
551.313
551.148
550.986
550.83
550.682
550.541
550.41
550.288
550.176
550.074
549.98
549.895
549.817
549.746
549.679
549.617
549.558
549.501
549.446
549.391
549.337
549.282
549.226
549.17
549.112
549.052
548.99
548.927
548.861
548.793
548.721
548.647
548.57
548.49
548.407
548.321
548.233
548.144
548.053
547.962
547.871
547.78
547.69
547.6
547.512
547.426
547.342
547.259
547.177
547.097
547.017
546.938
546.858
546.779
546.699
546.618
546.536
546.453
546.369
546.283
546.195
546.105
546.014
545.92
545.824
545.726
545.625
545.521
545.413
545.301
545.186
545.067
544.947
544.826
544.705
544.586
544.469
544.353
544.238
544.125
544.012
543.9
543.789
543.678
543.568
543.458
543.349
543.24
543.132
543.024
542.916
542.809
542.702
542.595
542.488
542.382
542.276
542.17
542.065
541.96
541.854
541.75
541.645
541.54
541.436
541.331
541.227
541.122
541.018
540.914
540.81
540.706
540.602
552.47
552.308
552.146
551.983
551.818
551.652
551.487
551.322
551.159
551
550.845
550.697
550.557
550.426
550.304
550.191
550.089
549.995
549.91
549.832
549.76
549.695
549.633
549.575
549.519
549.465
549.411
549.358
549.305
549.252
549.198
549.142
549.085
549.026
548.965
548.902
548.836
548.766
548.694
548.618
548.539
548.456
548.371
548.284
548.194
548.104
548.013
547.921
547.83
547.739
547.649
547.561
547.474
547.389
547.305
547.223
547.142
547.062
546.981
546.9
546.819
546.737
546.654
546.57
546.485
546.397
546.308
546.218
546.125
546.03
545.934
545.835
545.734
545.63
545.523
545.413
545.299
545.182
545.063
544.942
544.82
544.699
544.579
544.462
544.347
544.233
544.12
544.008
543.896
543.786
543.675
543.565
543.456
543.347
543.238
543.13
543.022
542.914
542.807
542.7
542.593
542.487
542.381
542.275
542.169
542.064
541.959
541.854
541.749
541.644
541.539
541.435
541.331
541.226
541.122
541.018
540.914
540.81
540.706
540.602
552.47
552.31
552.149
551.987
551.824
551.66
551.497
551.335
551.174
551.017
550.864
550.717
550.577
550.446
550.324
550.212
550.109
550.015
549.93
549.853
549.782
549.717
549.656
549.599
549.544
549.491
549.439
549.388
549.337
549.285
549.234
549.18
549.126
549.07
549.012
548.951
548.887
548.82
548.749
548.675
548.597
548.516
548.431
548.344
548.255
548.165
548.074
547.982
547.89
547.799
547.708
547.619
547.532
547.446
547.363
547.28
547.198
547.117
547.035
546.953
546.87
546.786
546.7
546.613
546.524
546.434
546.342
546.248
546.151
546.053
545.952
545.849
545.743
545.635
545.525
545.412
545.296
545.178
545.057
544.934
544.812
544.69
544.571
544.454
544.339
544.226
544.114
544.003
543.892
543.782
543.672
543.562
543.453
543.344
543.235
543.127
543.02
542.912
542.805
542.698
542.592
542.485
542.379
542.274
542.168
542.063
541.958
541.853
541.748
541.643
541.539
541.434
541.33
541.226
541.122
541.018
540.914
540.81
540.706
540.602
552.471
552.313
552.154
551.993
551.832
551.67
551.508
551.348
551.189
551.034
550.883
550.738
550.6
550.469
550.349
550.237
550.135
550.042
549.958
549.881
549.811
549.747
549.688
549.631
549.578
549.526
549.476
549.426
549.377
549.328
549.278
549.227
549.175
549.122
549.066
549.008
548.946
548.881
548.813
548.74
548.664
548.584
548.5
548.414
548.325
548.235
548.144
548.052
547.96
547.868
547.777
547.687
547.599
547.514
547.43
547.347
547.265
547.182
547.099
547.015
546.93
546.843
546.755
546.665
546.573
546.479
546.383
546.285
546.184
546.081
545.975
545.867
545.756
545.643
545.528
545.412
545.293
545.172
545.049
544.925
544.802
544.679
544.56
544.444
544.331
544.219
544.108
543.998
543.888
543.778
543.668
543.559
543.45
543.341
543.233
543.125
543.017
542.91
542.803
542.696
542.59
542.483
542.378
542.272
542.167
542.061
541.956
541.852
541.747
541.642
541.538
541.434
541.329
541.225
541.121
541.017
540.913
540.81
540.706
540.602
552.472
552.316
552.159
552.001
551.842
551.682
551.522
551.363
551.206
551.053
550.905
550.762
550.626
550.498
550.379
550.268
550.167
550.075
549.992
549.916
549.848
549.785
549.727
549.672
549.62
549.57
549.521
549.473
549.426
549.378
549.331
549.282
549.232
549.181
549.128
549.072
549.013
548.95
548.884
548.813
548.739
548.66
548.577
548.492
548.404
548.314
548.223
548.131
548.038
547.946
547.854
547.764
547.676
547.59
547.505
547.422
547.339
547.255
547.171
547.086
546.998
546.909
546.818
546.725
546.63
546.532
546.432
546.33
546.225
546.116
546.005
545.89
545.773
545.654
545.534
545.413
545.291
545.167
545.041
544.915
544.788
544.664
544.546
544.432
544.321
544.211
544.101
543.992
543.883
543.774
543.664
543.555
543.446
543.338
543.229
543.122
543.014
542.907
542.8
542.693
542.587
542.481
542.376
542.27
542.165
542.06
541.955
541.85
541.746
541.641
541.537
541.433
541.329
541.225
541.121
541.017
540.913
540.809
540.706
540.602
552.473
552.32
552.165
552.01
551.854
551.697
551.54
551.384
551.23
551.08
550.933
550.793
550.659
550.532
550.414
550.305
550.205
550.115
550.033
549.959
549.892
549.831
549.774
549.721
549.67
549.621
549.574
549.528
549.483
549.437
549.391
549.344
549.297
549.247
549.196
549.143
549.086
549.026
548.962
548.893
548.82
548.742
548.661
548.577
548.489
548.4
548.309
548.217
548.124
548.031
547.939
547.848
547.759
547.673
547.587
547.503
547.419
547.334
547.249
547.162
547.073
546.982
546.888
546.793
546.694
546.593
546.489
546.382
546.272
546.158
546.04
545.92
545.796
545.671
545.544
545.417
545.29
545.162
545.032
544.901
544.771
544.645
544.528
544.417
544.31
544.202
544.095
543.987
543.878
543.769
543.66
543.551
543.443
543.334
543.226
543.118
543.011
542.904
542.797
542.691
542.585
542.479
542.373
542.268
542.163
542.058
541.953
541.849
541.744
541.64
541.536
541.432
541.328
541.224
541.12
541.017
540.913
540.809
540.705
540.602
552.475
552.324
552.173
552.02
551.867
551.713
551.56
551.407
551.257
551.109
550.966
550.827
550.696
550.571
550.455
550.348
550.25
550.161
550.081
550.009
549.944
549.884
549.829
549.777
549.727
549.68
549.635
549.59
549.546
549.502
549.458
549.413
549.368
549.32
549.272
549.22
549.166
549.108
549.046
548.979
548.907
548.831
548.75
548.667
548.58
548.491
548.4
548.308
548.215
548.122
548.029
547.937
547.847
547.76
547.673
547.588
547.503
547.417
547.33
547.242
547.151
547.058
546.963
546.864
546.763
546.659
546.551
546.44
546.325
546.206
546.083
545.956
545.825
545.693
545.559
545.426
545.292
545.159
545.023
544.886
544.749
544.617
544.505
544.402
544.299
544.195
544.089
543.982
543.874
543.765
543.656
543.548
543.439
543.33
543.222
543.115
543.007
542.9
542.794
542.688
542.582
542.476
542.371
542.266
542.161
542.056
541.952
541.847
541.743
541.639
541.535
541.431
541.327
541.223
541.12
541.016
540.912
540.809
540.705
540.602
552.476
552.329
552.18
552.031
551.881
551.731
551.581
551.432
551.284
551.14
551
550.865
550.736
550.614
550.5
550.395
550.299
550.213
550.135
550.065
550.001
549.943
549.889
549.838
549.79
549.744
549.7
549.657
549.615
549.572
549.53
549.488
549.444
549.399
549.352
549.303
549.251
549.195
549.134
549.069
548.999
548.923
548.844
548.761
548.675
548.586
548.496
548.404
548.31
548.216
548.122
548.029
547.938
547.849
547.761
547.675
547.589
547.502
547.413
547.323
547.231
547.136
547.039
546.939
546.836
546.729
546.618
546.504
546.384
546.26
546.131
545.998
545.861
545.722
545.581
545.441
545.3
545.16
545.018
544.871
544.719
544.569
544.477
544.386
544.29
544.189
544.085
543.978
543.87
543.762
543.653
543.544
543.435
543.326
543.218
543.111
543.003
542.897
542.79
542.684
542.579
542.473
542.368
542.263
542.159
542.054
541.95
541.846
541.741
541.638
541.534
541.43
541.326
541.223
541.119
541.015
540.912
540.809
540.705
540.602
552.478
552.333
552.188
552.043
551.896
551.75
551.603
551.458
551.315
551.174
551.038
550.906
550.78
550.661
550.55
550.447
550.354
550.27
550.194
550.126
550.064
550.007
549.954
549.904
549.857
549.813
549.77
549.728
549.687
549.647
549.607
549.566
549.525
549.482
549.438
549.391
549.341
549.287
549.228
549.164
549.094
549.019
548.939
548.857
548.771
548.683
548.593
548.501
548.407
548.311
548.215
548.121
548.028
547.937
547.848
547.761
547.673
547.585
547.495
547.404
547.31
547.214
547.116
547.014
546.908
546.799
546.686
546.569
546.446
546.317
546.184
546.045
545.903
545.757
545.61
545.463
545.317
545.171
545.022
544.866
544.686
544.465
544.451
544.379
544.287
544.187
544.083
543.976
543.868
543.758
543.649
543.54
543.431
543.322
543.214
543.106
542.999
542.893
542.786
542.681
542.575
542.47
542.365
542.261
542.156
542.052
541.948
541.844
541.74
541.636
541.532
541.429
541.325
541.222
541.118
541.015
540.912
540.808
540.705
540.602
552.48
552.338
552.197
552.055
551.912
551.769
551.627
551.486
551.346
551.21
551.077
550.948
550.826
550.711
550.603
550.503
550.413
550.331
550.257
550.19
550.13
550.074
550.022
549.974
549.928
549.884
549.843
549.802
549.763
549.725
549.687
549.649
549.61
549.57
549.528
549.484
549.435
549.383
549.326
549.263
549.194
549.119
549.038
548.954
548.869
548.781
548.691
548.598
548.502
548.405
548.307
548.21
548.115
548.023
547.932
547.843
547.754
547.665
547.574
547.482
547.387
547.289
547.189
547.086
546.979
546.868
546.752
546.632
546.505
546.374
546.236
546.094
545.947
545.796
545.645
545.493
545.342
545.192
545.042
544.889
544.731
544.581
544.487
544.394
544.294
544.19
544.084
543.975
543.865
543.755
543.645
543.536
543.426
543.317
543.209
543.102
542.995
542.888
542.782
542.677
542.572
542.467
542.362
542.258
542.153
542.049
541.946
541.842
541.738
541.634
541.531
541.428
541.324
541.221
541.118
541.014
540.911
540.808
540.705
540.602
552.481
552.343
552.205
552.067
551.928
551.79
551.652
551.514
551.379
551.247
551.118
550.994
550.875
550.763
550.659
550.563
550.475
550.395
550.323
550.258
550.198
550.144
550.093
550.045
550.001
549.958
549.918
549.88
549.843
549.806
549.771
549.735
549.699
549.663
549.624
549.583
549.537
549.487
549.432
549.37
549.3
549.224
549.142
549.057
548.97
548.881
548.789
548.694
548.596
548.495
548.394
548.295
548.199
548.104
548.012
547.922
547.832
547.741
547.649
547.555
547.458
547.359
547.257
547.152
547.043
546.93
546.812
546.688
546.559
546.424
546.283
546.137
545.988
545.835
545.68
545.526
545.372
545.221
545.07
544.922
544.777
544.642
544.525
544.414
544.305
544.196
544.086
543.975
543.864
543.752
543.641
543.531
543.421
543.312
543.204
543.097
542.99
542.884
542.778
542.673
542.568
542.463
542.359
542.255
542.151
542.047
541.943
541.84
541.736
541.633
541.53
541.426
541.323
541.22
541.117
541.014
540.911
540.808
540.705
540.602
552.483
552.348
552.213
552.078
551.944
551.81
551.676
551.543
551.412
551.284
551.16
551.04
550.926
550.817
550.716
550.623
550.537
550.46
550.39
550.326
550.269
550.215
550.166
550.119
550.076
550.035
549.997
549.961
549.927
549.893
549.861
549.828
549.796
549.764
549.729
549.692
549.65
549.603
549.549
549.488
549.418
549.34
549.255
549.166
549.077
548.986
548.89
548.791
548.688
548.583
548.478
548.377
548.277
548.181
548.088
547.995
547.904
547.812
547.718
547.622
547.523
547.422
547.318
547.21
547.098
546.981
546.86
546.733
546.601
546.462
546.319
546.17
546.019
545.865
545.71
545.556
545.402
545.251
545.102
544.957
544.815
544.68
544.552
544.432
544.316
544.201
544.087
543.974
543.861
543.749
543.637
543.526
543.416
543.307
543.199
543.091
542.984
542.878
542.773
542.668
542.563
542.459
542.355
542.251
542.148
542.044
541.941
541.837
541.734
541.631
541.528
541.425
541.322
541.219
541.116
541.013
540.91
540.807
540.704
540.601
552.484
552.352
552.22
552.088
551.958
551.827
551.698
551.569
551.443
551.32
551.2
551.085
550.975
550.87
550.773
550.683
550.6
550.525
550.457
550.396
550.34
550.288
550.24
550.195
550.154
550.116
550.081
550.048
550.017
549.987
549.959
549.931
549.904
549.877
549.848
549.816
549.779
549.736
549.684
549.624
549.553
549.472
549.382
549.287
549.194
549.098
548.996
548.89
548.78
548.668
548.56
548.455
548.353
548.255
548.159
548.065
547.972
547.877
547.781
547.682
547.58
547.475
547.367
547.255
547.138
547.017
546.891
546.76
546.623
546.481
546.334
546.184
546.032
545.878
545.724
545.571
545.419
545.27
545.123
544.979
544.838
544.7
544.568
544.442
544.321
544.203
544.086
543.971
543.857
543.743
543.631
543.52
543.41
543.301
543.192
543.085
542.979
542.873
542.768
542.663
542.559
542.455
542.351
542.248
542.145
542.041
541.938
541.835
541.732
541.629
541.526
541.424
541.321
541.218
541.115
541.012
540.91
540.807
540.704
540.601
552.485
552.354
552.224
552.095
551.967
551.84
551.715
551.591
551.47
551.352
551.237
551.127
551.021
550.921
550.828
550.741
550.662
550.59
550.525
550.465
550.411
550.362
550.316
550.275
550.237
550.203
550.171
550.143
550.116
550.092
550.069
550.048
550.028
550.008
549.987
549.962
549.931
549.893
549.845
549.785
549.712
549.627
549.53
549.428
549.328
549.223
549.112
548.995
548.874
548.756
548.642
548.533
548.428
548.328
548.23
548.133
548.037
547.939
547.839
547.735
547.629
547.519
547.405
547.286
547.163
547.035
546.902
546.764
546.621
546.474
546.324
546.172
546.019
545.866
545.714
545.563
545.414
545.268
545.123
544.981
544.841
544.703
544.57
544.442
544.319
544.198
544.08
543.964
543.849
543.736
543.624
543.512
543.402
543.293
543.185
543.078
542.972
542.867
542.762
542.658
542.554
542.451
542.347
542.244
542.141
542.038
541.936
541.833
541.73
541.627
541.525
541.422
541.32
541.217
541.114
541.012
540.909
540.806
540.704
540.601
552.484
552.353
552.223
552.095
551.969
551.845
551.724
551.605
551.489
551.376
551.267
551.162
551.062
550.967
550.878
550.796
550.721
550.652
550.59
550.534
550.483
550.437
550.395
550.357
550.324
550.295
550.269
550.246
550.227
550.209
550.194
550.182
550.171
550.161
550.15
550.134
550.113
550.081
550.038
549.978
549.903
549.811
549.705
549.595
549.487
549.371
549.245
549.112
548.978
548.851
548.73
548.617
548.509
548.405
548.304
548.205
548.104
548.001
547.895
547.785
547.672
547.554
547.431
547.304
547.171
547.033
546.89
546.742
546.591
546.437
546.283
546.129
545.975
545.824
545.674
545.526
545.382
545.239
545.099
544.96
544.823
544.688
544.557
544.43
544.307
544.187
544.069
543.953
543.839
543.726
543.614
543.503
543.393
543.285
543.178
543.071
542.965
542.861
542.756
542.653
542.549
542.446
542.343
542.241
542.138
542.035
541.933
541.83
541.728
541.626
541.523
541.421
541.318
541.216
541.113
541.011
540.909
540.806
540.704
540.601
552.482
552.347
552.215
552.085
551.96
551.838
551.72
551.606
551.495
551.388
551.285
551.187
551.093
551.004
550.921
550.843
550.773
550.709
550.651
550.599
550.553
550.511
550.475
550.443
550.417
550.394
550.376
550.361
550.35
550.342
550.338
550.336
550.338
550.34
550.341
550.338
550.328
550.305
550.266
550.209
550.13
550.031
549.916
549.797
549.679
549.547
549.401
549.25
549.101
548.963
548.835
548.716
548.604
548.497
548.392
548.287
548.181
548.07
547.956
547.837
547.713
547.584
547.45
547.31
547.165
547.013
546.856
546.695
546.533
546.371
546.21
546.053
545.898
545.748
545.601
545.459
545.319
545.183
545.049
544.918
544.787
544.658
544.531
544.407
544.286
544.168
544.052
543.937
543.824
543.712
543.601
543.492
543.383
543.275
543.169
543.063
542.958
542.854
542.75
542.647
542.544
542.441
542.339
542.237
542.135
542.032
541.93
541.828
541.726
541.624
541.522
541.419
541.317
541.215
541.113
541.01
540.908
540.806
540.703
540.601
552.478
552.335
552.196
552.062
551.934
551.813
551.697
551.588
551.482
551.382
551.286
551.195
551.108
551.027
550.95
550.88
550.815
550.757
550.705
550.659
550.619
550.584
550.555
550.531
550.512
550.498
550.489
550.485
550.485
550.49
550.499
550.511
550.527
550.543
550.56
550.572
550.575
550.563
550.531
550.477
550.395
550.288
550.163
550.036
549.909
549.76
549.59
549.418
549.254
549.106
548.97
548.845
548.728
548.615
548.504
548.392
548.277
548.156
548.03
547.898
547.761
547.619
547.47
547.315
547.154
546.985
546.811
546.634
546.457
546.283
546.114
545.951
545.794
545.643
545.5
545.362
545.231
545.103
544.979
544.858
544.737
544.616
544.494
544.375
544.257
544.141
544.028
543.916
543.805
543.695
543.586
543.478
543.371
543.264
543.159
543.054
542.95
542.846
542.743
542.641
542.539
542.437
542.335
542.233
542.131
542.029
541.927
541.826
541.724
541.622
541.52
541.418
541.316
541.214
541.112
541.01
540.908
540.805
540.703
540.601
552.47
552.313
552.162
552.019
551.885
551.762
551.648
551.542
551.442
551.349
551.261
551.179
551.101
551.028
550.96
550.898
550.841
550.791
550.747
550.709
550.677
550.651
550.631
550.617
550.608
550.605
550.608
550.616
550.629
550.649
550.673
550.701
550.733
550.766
550.8
550.829
550.846
550.846
550.823
550.774
550.69
550.574
550.44
550.31
550.175
550.008
549.814
549.623
549.447
549.288
549.146
549.016
548.894
548.776
548.656
548.535
548.408
548.273
548.132
547.984
547.83
547.669
547.504
547.333
547.154
546.968
546.774
546.577
546.383
546.195
546.014
545.841
545.678
545.523
545.38
545.247
545.124
545.007
544.897
544.789
544.68
544.568
544.453
544.337
544.222
544.109
543.999
543.89
543.782
543.675
543.568
543.462
543.357
543.252
543.148
543.044
542.941
542.839
542.737
542.635
542.533
542.432
542.33
542.229
542.128
542.026
541.925
541.823
541.722
541.62
541.518
541.417
541.315
541.213
541.111
541.009
540.907
540.805
540.703
540.601
552.458
552.278
552.107
551.949
551.805
551.677
551.561
551.458
551.365
551.28
551.201
551.129
551.063
551.001
550.944
550.891
550.845
550.805
550.771
550.744
550.722
550.707
550.699
550.696
550.699
550.709
550.725
550.747
550.776
550.81
550.851
550.895
550.944
550.995
551.045
551.09
551.122
551.134
551.121
551.079
550.993
550.871
550.733
550.604
550.466
550.285
550.07
549.865
549.68
549.517
549.373
549.242
549.116
548.992
548.862
548.73
548.588
548.438
548.277
548.11
547.934
547.752
547.569
547.385
547.193
546.989
546.774
546.558
546.346
546.141
545.944
545.757
545.578
545.412
545.263
545.13
545.014
544.911
544.816
544.726
544.632
544.529
544.418
544.302
544.187
544.075
543.966
543.86
543.755
543.651
543.548
543.445
543.342
543.239
543.136
543.034
542.932
542.831
542.729
542.628
542.528
542.427
542.326
542.225
542.124
542.023
541.922
541.821
541.72
541.618
541.517
541.415
541.314
541.212
541.11
541.008
540.907
540.805
540.703
540.601
552.441
552.227
552.027
551.845
551.685
551.547
551.428
551.327
551.239
551.163
551.096
551.037
550.984
550.936
550.892
550.853
550.819
550.792
550.771
550.756
550.748
550.747
550.752
550.763
550.78
550.803
550.833
550.87
550.913
550.962
551.017
551.076
551.139
551.204
551.268
551.326
551.369
551.39
551.386
551.352
551.268
551.146
551.013
550.892
550.753
550.564
550.339
550.127
549.941
549.782
549.645
549.522
549.396
549.27
549.131
548.987
548.833
548.669
548.489
548.301
548.096
547.884
547.687
547.502
547.307
547.091
546.857
546.624
546.395
546.169
545.955
545.745
545.541
545.35
545.178
545.036
544.924
544.834
544.761
544.693
544.615
544.519
544.404
544.278
544.155
544.039
543.931
543.827
543.725
543.625
543.525
543.425
543.325
543.224
543.124
543.023
542.923
542.822
542.722
542.622
542.522
542.422
542.322
542.221
542.121
542.02
541.92
541.819
541.718
541.617
541.515
541.414
541.313
541.211
541.109
541.008
540.906
540.804
540.703
540.601
552.416
552.156
551.914
551.701
551.518
551.366
551.241
551.14
551.058
550.992
550.938
550.894
550.857
550.825
550.798
550.776
550.758
550.747
550.741
550.743
550.75
550.765
550.785
550.811
550.842
550.879
550.922
550.971
551.026
551.086
551.151
551.219
551.289
551.359
551.428
551.489
551.538
551.564
551.563
551.53
551.456
551.348
551.23
551.115
550.977
550.794
550.576
550.374
550.198
550.055
549.94
549.841
549.725
549.608
549.457
549.303
549.151
548.99
548.798
548.599
548.349
548.08
547.882
547.727
547.54
547.321
547.074
546.834
546.598
546.339
546.11
545.876
545.629
545.391
545.166
544.994
544.881
544.804
544.754
544.719
544.661
544.573
544.433
544.272
544.129
544.005
543.894
543.791
543.693
543.597
543.5
543.404
543.307
543.209
543.11
543.012
542.913
542.814
542.715
542.616
542.517
542.417
542.318
542.218
542.118
542.018
541.917
541.817
541.716
541.615
541.514
541.413
541.312
541.21
541.109
541.007
540.906
540.804
540.702
540.601
552.384
552.063
551.769
551.514
551.302
551.131
550.998
550.898
550.822
550.768
550.729
550.701
550.682
550.67
550.662
550.659
550.661
550.668
550.682
550.702
550.728
550.759
550.795
550.836
550.88
550.928
550.981
551.038
551.098
551.161
551.226
551.291
551.355
551.415
551.472
551.526
551.572
551.596
551.587
551.548
551.488
551.398
551.297
551.19
551.059
550.899
550.712
550.548
550.393
550.281
550.203
550.16
550.058
549.991
549.809
549.645
549.536
549.431
549.248
549.085
548.747
548.334
548.192
548.141
547.935
547.717
547.488
547.257
547.035
546.694
546.454
546.217
545.931
545.626
545.274
545.034
544.913
544.847
544.809
544.825
544.789
544.741
544.527
544.279
544.104
543.969
543.856
543.754
543.659
543.567
543.475
543.382
543.288
543.193
543.097
543.001
542.903
542.806
542.708
542.61
542.511
542.413
542.314
542.214
542.115
542.015
541.915
541.815
541.714
541.614
541.513
541.412
541.311
541.209
541.108
541.007
540.905
540.804
540.702
540.601
552.347
551.954
551.597
551.293
551.047
550.856
550.715
550.615
550.548
550.506
550.483
550.473
550.473
550.48
550.493
550.511
550.535
550.564
550.6
550.64
550.685
550.734
550.784
550.835
550.888
550.941
550.995
551.051
551.107
551.159
551.207
551.251
551.289
551.315
551.336
551.364
551.395
551.399
551.363
551.305
551.259
551.185
551.092
551.001
550.893
550.781
550.668
550.573
550.477
550.374
550.327
550.34
550.32
550.378
550.201
550.026
549.91
549.893
549.776
549.629
549.248
548.731
548.655
548.639
548.441
548.339
548.089
547.753
547.634
547.302
546.726
546.54
546.278
545.888
545.215
545.075
544.954
544.983
544.839
545.03
544.986
545.152
544.637
544.25
544.066
543.927
543.813
543.715
543.624
543.536
543.448
543.359
543.269
543.177
543.084
542.989
542.894
542.798
542.701
542.604
542.507
542.409
542.31
542.211
542.112
542.013
541.913
541.813
541.713
541.612
541.512
541.411
541.31
541.209
541.108
541.006
540.905
540.804
540.702
540.601
552.308
551.842
551.422
551.069
550.79
550.581
550.433
550.337
550.279
550.25
550.242
550.247
550.263
550.287
550.318
550.357
550.402
550.455
550.514
550.577
550.64
550.702
550.76
550.813
550.861
550.905
550.948
550.99
551.026
551.045
551.049
551.046
551.036
550.992
550.946
550.922
550.913
550.87
550.783
550.681
550.637
550.578
550.521
550.462
550.409
550.37
550.389
550.388
550.379
550.321
550.297
550.355
550.453
550.639
550.581
550.436
550.295
550.35
550.283
550.219
549.853
549.382
549.436
549.265
549.049
549.054
548.676
548.277
548.346
547.668
546.829
546.519
546.393
545.914
545.445
545.316
545.123
545.134
544.849
545.245
545.099
545.062
544.663
544.239
544.01
543.878
543.765
543.672
543.587
543.505
543.422
543.337
543.25
543.162
543.071
542.979
542.885
542.791
542.695
542.599
542.502
542.405
542.307
542.209
542.11
542.011
541.911
541.811
541.711
541.611
541.511
541.41
541.309
541.208
541.107
541.006
540.905
540.803
540.702
540.601
552.284
551.767
551.301
550.912
550.61
550.392
550.245
550.155
550.107
550.088
550.087
550.097
550.117
550.148
550.189
550.239
550.302
550.377
550.461
550.545
550.62
550.686
550.737
550.772
550.792
550.803
550.811
550.817
550.808
550.763
550.683
550.603
550.518
550.367
550.221
550.1
550.011
549.899
549.799
549.68
549.627
549.574
549.509
549.419
549.418
549.503
549.632
549.801
549.943
549.969
550.028
550.219
550.47
550.629
550.772
550.786
550.717
550.692
550.667
550.765
550.497
550.339
550.461
550.227
549.998
549.465
549.152
548.504
548.627
547.636
547.292
546.82
546.6
546.024
545.562
545.303
545.106
545.019
544.939
545.075
545.045
544.975
544.667
544.259
543.962
543.802
543.705
543.624
543.549
543.474
543.396
543.315
543.232
543.147
543.059
542.97
542.878
542.785
542.69
542.595
542.499
542.402
542.304
542.206
542.108
542.009
541.91
541.81
541.71
541.61
541.51
541.409
541.309
541.208
541.107
541.006
540.904
540.803
540.702
540.601
552.305
551.811
551.349
550.96
550.661
550.455
550.32
550.241
550.197
550.171
550.155
550.145
550.144
550.16
550.187
550.229
550.293
550.387
550.501
550.593
550.658
550.711
550.734
550.719
550.668
550.599
550.527
550.457
550.353
550.205
549.992
549.801
549.622
549.37
549.162
548.97
548.739
548.532
548.389
548.264
548.157
548.079
548.046
547.988
548.056
548.197
548.45
548.713
548.958
549.13
549.39
549.798
550.297
550.479
550.667
550.765
550.853
550.887
551.152
551.233
551.161
550.854
550.764
550.46
550.169
549.594
549.206
548.68
548.329
547.615
547.149
546.67
546.262
545.786
545.397
545.16
545.006
544.946
544.92
544.993
544.948
544.824
544.584
544.179
543.887
543.744
543.645
543.576
543.512
543.444
543.371
543.294
543.216
543.134
543.049
542.962
542.872
542.779
542.686
542.591
542.496
542.399
542.302
542.205
542.106
542.008
541.909
541.809
541.71
541.609
541.509
541.409
541.308
541.207
541.106
541.005
540.904
540.803
540.702
540.601
552.449
552.14
551.766
551.435
551.18
551.027
550.93
550.872
550.818
550.749
550.673
550.6
550.536
550.5
550.457
550.452
550.473
550.577
550.724
550.776
550.766
550.793
550.76
550.625
550.423
550.219
549.984
549.728
549.538
549.324
549.012
548.726
548.448
548.086
547.774
547.515
547.12
546.858
546.671
546.54
546.396
546.214
546.183
546.253
546.588
546.933
547.295
547.632
547.942
548.227
548.578
549.054
549.76
550.121
550.462
550.702
550.762
550.986
551.032
551.026
550.881
550.607
550.353
550.03
549.688
549.226
548.803
548.314
547.834
547.246
546.755
546.311
545.901
545.511
545.185
544.99
544.871
544.829
544.832
544.851
544.81
544.717
544.591
544.094
543.805
543.674
543.608
543.531
543.479
543.42
543.348
543.274
543.201
543.124
543.042
542.956
542.867
542.776
542.683
542.589
542.494
542.398
542.301
542.203
542.105
542.007
541.908
541.809
541.709
541.609
541.509
541.408
541.308
541.207
541.106