0 	580.896
0.010101 	588.583
0.020202 	588.6
0.030303 	588.605
0.040404 	588.598
