/*--------------------------------*- C++ -*----------------------------------*\
  =========                 |
  \\      /  F ield         | OpenFOAM: The Open Source CFD Toolbox
   \\    /   O peration     | Website:  https://openfoam.org
    \\  /    A nd           | Version:  6
     \\/     M anipulation  |
\*---------------------------------------------------------------------------*/
FoamFile
{
    version     2.0;
    format      ascii;
    class       surfaceScalarField;
    location    "3100";
    object      phi;
}
// * * * * * * * * * * * * * * * * * * * * * * * * * * * * * * * * * * * * * //

dimensions      [0 3 -1 0 0 0 0];

internalField   nonuniform List<scalar> 
9440
(
-4.11257e-14
4.11261e-14
-8.22013e-14
4.11312e-14
-1.23081e-13
4.09258e-14
-1.6356e-13
4.05217e-14
-2.03391e-13
3.98751e-14
-2.424e-13
3.90503e-14
-2.80435e-13
3.80774e-14
-3.1739e-13
3.69947e-14
-3.53102e-13
3.57524e-14
-3.8739e-13
3.43277e-14
-4.20169e-13
3.28153e-14
-4.51289e-13
3.11575e-14
-4.8051e-13
2.9257e-14
-5.0814e-13
2.76632e-14
-5.34094e-13
2.59861e-14
-5.5874e-13
2.46761e-14
-5.81739e-13
2.3027e-14
-6.01336e-13
1.96248e-14
-6.1917e-13
1.78583e-14
-6.36085e-13
1.69374e-14
-6.52074e-13
1.60089e-14
-6.63198e-13
1.11431e-14
-6.74158e-13
1.09758e-14
-6.83274e-13
9.12879e-15
-6.90312e-13
7.04859e-15
-6.95697e-13
5.39372e-15
-6.99481e-13
3.78937e-15
-7.01647e-13
2.16728e-15
-7.02269e-13
6.23382e-16
-7.01292e-13
-9.79896e-16
-6.98728e-13
-2.57288e-15
-6.9465e-13
-4.08561e-15
-6.89092e-13
-5.57337e-15
-6.82025e-13
-7.08293e-15
-6.7348e-13
-8.56544e-15
-6.63488e-13
-1.00158e-14
-6.5203e-13
-1.1482e-14
-6.39198e-13
-1.28634e-14
-6.24949e-13
-1.4282e-14
-6.09384e-13
-1.56011e-14
-5.925e-13
-1.69247e-14
-5.74388e-13
-1.81552e-14
-5.55109e-13
-1.93261e-14
-5.34721e-13
-2.04369e-14
-5.134e-13
-2.13748e-14
-4.91143e-13
-2.23122e-14
-4.68092e-13
-2.31098e-14
-4.44448e-13
-2.37048e-14
-4.20278e-13
-2.4235e-14
-3.95716e-13
-2.46284e-14
-3.70957e-13
-2.48293e-14
-3.46107e-13
-2.49233e-14
-3.21368e-13
-2.48142e-14
-2.96887e-13
-2.45572e-14
-2.72818e-13
-2.41474e-14
-2.49245e-13
-2.36543e-14
-2.2634e-13
-2.29868e-14
-2.04181e-13
-2.22449e-14
-1.82941e-13
-2.13261e-14
-1.62593e-13
-2.04341e-14
-1.43251e-13
-1.94343e-14
-1.24923e-13
-1.84179e-14
-1.07651e-13
-1.73626e-14
-9.14145e-14
-1.63314e-14
-7.62038e-14
-1.53042e-14
-6.18958e-14
-1.44036e-14
-4.84921e-14
-1.35004e-14
-3.58894e-14
-1.27018e-14
-2.38951e-14
-1.20935e-14
-1.22947e-14
-1.16998e-14
-9.14552e-16
-1.14822e-14
1.06664e-14
-1.16806e-14
2.30428e-14
-1.24803e-14
3.78156e-14
-1.4874e-14
5.90714e-14
-2.13581e-14
9.93321e-14
-4.03629e-14
1.98139e-13
-9.89106e-14
8.54693e-14
1.12565e-13
6.46425e-17
8.53009e-14
1.17796e-21
-1.74709e-21
1.18845e-21
-3.20533e-24
1.18571e-21
2.79173e-24
1.17243e-21
6.30725e-24
1.15712e-21
9.46088e-24
1.14048e-21
1.26662e-23
1.12228e-21
1.56647e-23
1.10253e-21
1.84565e-23
1.08107e-21
2.13516e-23
1.05791e-21
2.39365e-23
1.03315e-21
2.63147e-23
1.00683e-21
2.85377e-23
9.79123e-22
3.05023e-23
9.49914e-22
3.21566e-23
9.19515e-22
3.37593e-23
8.8803e-22
3.50518e-23
8.5546e-22
3.61375e-23
8.22269e-22
3.70163e-23
7.88096e-22
3.76884e-23
7.53355e-22
3.82571e-23
7.18096e-22
3.85673e-23
6.82424e-22
3.88258e-23
6.46287e-22
3.89292e-23
6.10097e-22
3.88258e-23
5.73598e-22
3.87224e-23
5.36944e-22
3.84639e-23
5.00496e-22
3.82571e-23
4.63997e-22
3.77918e-23
4.27549e-22
3.73782e-23
3.90998e-22
3.67578e-23
3.54602e-22
3.62409e-23
3.18361e-22
3.57756e-23
2.82275e-22
3.52069e-23
2.46241e-22
3.45348e-23
2.10517e-22
3.40178e-23
1.74897e-22
3.35525e-23
1.39432e-22
3.31389e-23
1.0407e-22
3.25702e-23
6.88628e-23
3.21566e-23
3.38627e-23
3.16914e-23
3.0554e-23
-4.05903e-14
8.1773e-14
-8.24512e-14
8.30844e-14
-1.24058e-13
8.26099e-14
-1.64994e-13
8.15369e-14
-2.05101e-13
8.0056e-14
-2.44341e-13
7.83655e-14
-2.82586e-13
7.63964e-14
-3.1966e-13
7.41405e-14
-3.55411e-13
7.15732e-14
-3.89764e-13
6.87489e-14
-4.22549e-13
6.56656e-14
-4.5361e-13
6.2281e-14
-4.82812e-13
5.8517e-14
-5.10339e-13
5.5246e-14
-5.36259e-13
5.19612e-14
-5.61217e-13
4.96842e-14
-5.83731e-13
4.55887e-14
-6.03247e-13
3.91855e-14
-6.21153e-13
3.58033e-14
-6.38292e-13
3.41115e-14
-6.53668e-13
3.14191e-14
-6.65144e-13
2.26454e-14
-6.75972e-13
2.18248e-14
-6.85098e-13
1.82751e-14
-6.91987e-13
1.39504e-14
-6.97375e-13
1.07903e-14
-7.01132e-13
7.5489e-15
-7.03271e-13
4.30462e-15
-7.03815e-13
1.15996e-15
-7.02795e-13
-2.01326e-15
-7.00232e-13
-5.15319e-15
-6.96174e-13
-8.16761e-15
-6.90541e-13
-1.1237e-14
-6.83477e-13
-1.41841e-14
-6.74983e-13
-1.7101e-14
-6.64906e-13
-2.01435e-14
-6.53436e-13
-2.30069e-14
-6.4058e-13
-2.57787e-14
-6.26285e-13
-2.86446e-14
-6.10646e-13
-3.1312e-14
-5.93733e-13
-3.3914e-14
-5.75543e-13
-3.64312e-14
-5.56199e-13
-3.87581e-14
-5.35772e-13
-4.09607e-14
-5.14255e-13
-4.29911e-14
-4.91879e-13
-4.47947e-14
-4.68726e-13
-4.63705e-14
-4.44925e-13
-4.76204e-14
-4.20586e-13
-4.86966e-14
-3.95888e-13
-4.9449e-14
-3.70976e-13
-4.98704e-14
-3.46018e-13
-5.00133e-14
-3.21145e-13
-4.98253e-14
-2.96495e-13
-4.93491e-14
-2.72285e-13
-4.8501e-14
-2.48576e-13
-4.75105e-14
-2.25535e-13
-4.61788e-14
-2.0332e-13
-4.46131e-14
-1.82004e-13
-4.27987e-14
-1.61599e-13
-4.09997e-14
-1.42221e-13
-3.89716e-14
-1.23859e-13
-3.6945e-14
-1.06584e-13
-3.48059e-14
-9.04067e-14
-3.26762e-14
-7.52061e-14
-3.06777e-14
-6.10269e-14
-2.87555e-14
-4.77605e-14
-2.69441e-14
-3.52692e-14
-2.5369e-14
-2.3401e-14
-2.41393e-14
-1.2044e-14
-2.32363e-14
-1.03777e-15
-2.26694e-14
9.80521e-15
-2.27047e-14
2.0806e-14
-2.36627e-14
3.18285e-14
-2.6081e-14
4.14775e-14
-3.11915e-14
4.19909e-14
-4.1062e-14
7.76621e-16
-5.78799e-14
1.46374e-14
9.8519e-14
4.97687e-17
9.97415e-14
1.19119e-21
-2.91182e-21
1.19445e-21
-5.48007e-24
1.18923e-21
2.53324e-24
1.17563e-21
1.01847e-23
1.16038e-21
1.7681e-23
1.14347e-21
2.48154e-23
1.12507e-21
3.16914e-23
1.10532e-21
3.82571e-23
1.08366e-21
4.43576e-23
1.06029e-21
4.9941e-23
1.03537e-21
5.50592e-23
1.00885e-21
5.97121e-23
9.8083e-22
6.3848e-23
9.51516e-22
6.75186e-23
9.20859e-22
7.05689e-23
8.89116e-22
7.31538e-23
8.56339e-22
7.53251e-23
8.2289e-22
7.69795e-23
7.88665e-22
7.81686e-23
7.53717e-22
7.90992e-23
7.18355e-22
7.96161e-23
6.82527e-22
7.97712e-23
6.46235e-22
7.96678e-23
6.09994e-22
7.92543e-23
5.7334e-22
7.85305e-23
5.36685e-22
7.78067e-23
5.00082e-22
7.68244e-23
4.63583e-22
7.56353e-23
4.26929e-22
7.43946e-23
3.90533e-22
7.30504e-23
3.54033e-22
7.15511e-23
3.17741e-22
7.00519e-23
2.81603e-22
6.87077e-23
2.45776e-22
6.73635e-23
2.10052e-22
6.59677e-23
1.74432e-22
6.47269e-23
1.38915e-22
6.35895e-23
1.03656e-22
6.26072e-23
6.83458e-23
6.16767e-23
3.2777e-23
6.09529e-23
6.05393e-23
-4.25558e-14
1.24375e-13
-8.38764e-14
1.24485e-13
-1.24905e-13
1.23708e-13
-1.65596e-13
1.22294e-13
-2.05752e-13
1.20277e-13
-2.45107e-13
1.17787e-13
-2.83554e-13
1.14908e-13
-3.20882e-13
1.11533e-13
-3.56959e-13
1.0771e-13
-3.91621e-13
1.03469e-13
-4.24742e-13
9.88431e-14
-4.5604e-13
9.36348e-14
-4.85632e-13
8.81634e-14
-5.13412e-13
8.30783e-14
-5.39728e-13
7.83249e-14
-5.65417e-13
7.54174e-14
-5.87299e-13
6.75125e-14
-6.06736e-13
5.86596e-14
-6.25034e-13
5.41374e-14
-6.42753e-13
5.18644e-14
-6.5675e-13
4.54414e-14
-6.68791e-13
3.47114e-14
-6.79567e-13
3.26215e-14
-6.88582e-13
2.7307e-14
-6.95277e-13
2.06579e-14
-7.00697e-13
1.62181e-14
-7.04395e-13
1.12497e-14
-7.06462e-13
6.36857e-15
-7.06976e-13
1.67101e-15
-7.05931e-13
-3.06703e-15
-7.03348e-13
-7.75333e-15
-6.99218e-13
-1.23164e-14
-6.93572e-13
-1.6909e-14
-6.86445e-13
-2.13416e-14
-6.77881e-13
-2.57017e-14
-6.67799e-13
-3.02655e-14
-6.56287e-13
-3.45655e-14
-6.43345e-13
-3.87726e-14
-6.28967e-13
-4.30815e-14
-6.13231e-13
-4.71116e-14
-5.96195e-13
-5.10178e-14
-5.77918e-13
-5.47795e-14
-5.58351e-13
-5.84024e-14
-5.37722e-13
-6.16728e-14
-5.16018e-13
-6.47809e-14
-4.93465e-13
-6.74392e-14
-4.70054e-13
-6.98765e-14
-4.45966e-13
-7.18083e-14
-4.21353e-13
-7.34122e-14
-3.9635e-13
-7.45583e-14
-3.71128e-13
-7.52029e-14
-3.4582e-13
-7.54356e-14
-3.20633e-13
-7.51305e-14
-2.95729e-13
-7.43723e-14
-2.71248e-13
-7.31073e-14
-2.47237e-13
-7.16476e-14
-2.2399e-13
-6.95555e-14
-2.01574e-13
-6.7161e-14
-1.80059e-13
-6.44468e-14
-1.59575e-13
-6.16243e-14
-1.40088e-13
-5.86002e-14
-1.21765e-13
-5.54087e-14
-1.04551e-13
-5.21669e-14
-8.83642e-14
-4.90091e-14
-7.33321e-14
-4.58578e-14
-5.93378e-14
-4.28987e-14
-4.62423e-14
-4.01902e-14
-3.39947e-14
-3.77725e-14
-2.24638e-14
-3.58237e-14
-1.15528e-14
-3.43035e-14
-1.15294e-15
-3.32275e-14
8.91451e-15
-3.29323e-14
1.83887e-14
-3.32956e-14
2.66418e-14
-3.44934e-14
3.13103e-14
-3.60208e-14
2.59982e-14
-3.59093e-14
-5.87158e-15
-2.61741e-14
3.19267e-15
8.92934e-14
4.8097e-17
1.02757e-13
1.19119e-21
-4.31478e-21
1.20246e-21
-8.11671e-24
1.19693e-21
3.77401e-24
1.18308e-21
1.54062e-23
1.16751e-21
2.68317e-23
1.15035e-21
3.77401e-23
1.13163e-21
4.82867e-23
1.11147e-21
5.82128e-23
1.08929e-21
6.73635e-23
1.06536e-21
7.59455e-23
1.04002e-21
8.38554e-23
1.01293e-21
9.07314e-23
9.845e-22
9.69869e-23
9.54567e-22
1.02364e-22
9.23444e-22
1.06965e-22
8.91287e-22
1.10946e-22
8.57993e-22
1.13996e-22
8.24079e-22
1.16426e-22
7.89544e-22
1.18287e-22
7.54182e-22
1.19373e-22
7.18562e-22
1.20045e-22
6.82372e-22
1.20148e-22
6.45925e-22
1.19838e-22
6.0927e-22
1.19114e-22
5.72616e-22
1.17977e-22
5.35703e-22
1.16529e-22
4.98893e-22
1.14926e-22
4.62239e-22
1.13117e-22
4.25533e-22
1.10997e-22
3.89085e-22
1.08826e-22
3.52534e-22
1.06603e-22
3.16345e-22
1.0438e-22
2.80259e-22
1.02053e-22
2.44432e-22
9.99338e-23
2.0876e-22
9.78658e-23
1.73294e-22
9.59013e-23
1.37932e-22
9.41435e-23
1.02829e-22
9.26959e-23
6.75186e-23
9.13518e-23
3.23634e-23
9.04212e-23
8.98525e-23
-4.26722e-14
1.67093e-13
-8.4705e-14
1.66595e-13
-1.26276e-13
1.65347e-13
-1.6741e-13
1.63491e-13
-2.07975e-13
1.60911e-13
-2.4781e-13
1.57685e-13
-2.86682e-13
1.53845e-13
-3.24433e-13
1.49345e-13
-3.60918e-13
1.44256e-13
-3.95998e-13
1.38609e-13
-4.2941e-13
1.3231e-13
-4.60993e-13
1.25272e-13
-4.91083e-13
1.18307e-13
-5.18871e-13
1.10917e-13
-5.45584e-13
1.05083e-13
-5.72061e-13
1.01939e-13
-5.92886e-13
8.838e-14
-6.12248e-13
7.80583e-14
-6.3097e-13
7.28939e-14
-6.49889e-13
7.08119e-14
-6.61153e-13
5.67339e-14
-6.74457e-13
4.80396e-14
-6.84969e-13
4.31519e-14
-6.93778e-13
3.61319e-14
-7.00362e-13
2.72526e-14
-7.05718e-13
2.15826e-14
-7.09284e-13
1.48184e-14
-7.11285e-13
8.36884e-15
-7.1172e-13
2.09839e-15
-7.10634e-13
-4.16436e-15
-7.07973e-13
-1.04286e-14
-7.03753e-13
-1.65568e-14
-6.98073e-13
-2.26139e-14
-6.90882e-13
-2.85641e-14
-6.82273e-13
-3.43438e-14
-6.72142e-13
-4.04366e-14
-6.60574e-13
-4.61806e-14
-6.4754e-13
-5.18556e-14
-6.3308e-13
-5.75987e-14
-6.17219e-13
-6.30324e-14
-5.99941e-13
-6.83619e-14
-5.81424e-13
-7.33662e-14
-5.61703e-13
-7.81997e-14
-5.4077e-13
-8.26874e-14
-5.18804e-13
-8.68309e-14
-4.9582e-13
-9.05126e-14
-4.72034e-13
-9.37545e-14
-4.47554e-13
-9.63878e-14
-4.22517e-13
-9.85496e-14
-3.97034e-13
-1.00147e-13
-3.71338e-13
-1.01005e-13
-3.45602e-13
-1.01282e-13
-3.19928e-13
-1.0092e-13
-2.9455e-13
-9.98702e-14
-2.69584e-13
-9.8194e-14
-2.4525e-13
-9.61033e-14
-2.21688e-13
-9.3246e-14
-1.98952e-13
-9.00258e-14
-1.77173e-13
-8.63584e-14
-1.56474e-13
-8.2457e-14
-1.36933e-13
-7.8278e-14
-1.18499e-13
-7.39829e-14
-1.01293e-13
-6.95166e-14
-8.52665e-14
-6.51788e-14
-7.03778e-14
-6.08921e-14
-5.6609e-14
-5.68184e-14
-4.38263e-14
-5.3121e-14
-3.19837e-14
-4.97652e-14
-2.09571e-14
-4.70003e-14
-1.05906e-14
-4.48246e-14
-7.92218e-16
-4.31793e-14
8.49374e-15
-4.23712e-14
1.72452e-14
-4.22031e-14
2.49943e-14
-4.23988e-14
3.10292e-14
-4.22148e-14
3.5018e-14
-4.00567e-14
4.14945e-14
-3.28089e-14
1.15051e-15
1.29476e-13
4.76102e-17
1.03734e-13
1.20442e-21
-5.77069e-21
1.2143e-21
-1.0805e-23
1.20851e-21
5.22158e-24
1.1945e-21
2.10414e-23
1.17837e-21
3.63443e-23
1.1609e-21
5.11818e-23
1.14161e-21
6.5399e-23
1.12057e-21
7.88407e-23
1.09782e-21
9.13001e-23
1.07327e-21
1.02726e-22
1.0469e-21
1.13117e-22
1.01919e-21
1.22526e-22
9.89877e-22
1.30746e-22
9.59168e-22
1.37984e-22
9.27373e-22
1.44085e-22
8.94389e-22
1.49048e-22
8.60526e-22
1.53132e-22
8.2594e-22
1.56285e-22
7.90681e-22
1.58457e-22
7.54854e-22
1.59853e-22
7.18613e-22
1.60525e-22
6.8201e-22
1.60525e-22
6.45201e-22
1.59904e-22
6.08133e-22
1.58715e-22
5.7122e-22
1.57164e-22
5.341e-22
1.55096e-22
4.97032e-22
1.5277e-22
4.60223e-22
1.50082e-22
4.23361e-22
1.47186e-22
3.8681e-22
1.4424e-22
3.50311e-22
1.41034e-22
3.14018e-22
1.37932e-22
2.7814e-22
1.34882e-22
2.42312e-22
1.31832e-22
2.06847e-22
1.28988e-22
1.71537e-22
1.263e-22
1.36485e-22
1.24025e-22
1.01433e-22
1.21854e-22
6.66914e-23
1.20148e-22
3.17948e-23
1.18907e-22
1.18132e-22
-4.30749e-14
2.10211e-13
-8.58111e-14
2.09408e-13
-1.28218e-13
2.07821e-13
-1.70044e-13
2.05382e-13
-2.11306e-13
2.02237e-13
-2.5178e-13
1.98224e-13
-2.91254e-13
1.93383e-13
-3.29599e-13
1.87754e-13
-3.6663e-13
1.81347e-13
-4.02151e-13
1.74191e-13
-4.35919e-13
1.66136e-13
-4.6797e-13
1.57377e-13
-4.98538e-13
1.48927e-13
-5.26305e-13
1.38734e-13
-5.54145e-13
1.3297e-13
-5.79899e-13
1.27737e-13
-6.00433e-13
1.08957e-13
-6.20193e-13
9.78573e-14
-6.39482e-13
9.2219e-14
-6.58048e-13
8.94075e-14
-6.68269e-13
6.69805e-14
-6.81895e-13
6.1688e-14
-6.92253e-13
5.35294e-14
-7.00515e-13
4.44083e-14
-7.07187e-13
3.39345e-14
-7.12352e-13
2.67542e-14
-7.1579e-13
1.82609e-14
-7.17636e-13
1.02125e-14
-7.18037e-13
2.49221e-15
-7.16812e-13
-5.39893e-15
-7.14045e-13
-1.32094e-14
-7.09843e-13
-2.0779e-14
-7.04124e-13
-2.83567e-14
-6.96875e-13
-3.58437e-14
-6.88215e-13
-4.30371e-14
-6.77979e-13
-5.07117e-14
-6.66339e-13
-5.7866e-14
-6.53113e-13
-6.51307e-14
-6.38493e-13
-7.2273e-14
-6.22465e-13
-7.91201e-14
-6.05028e-13
-8.58615e-14
-5.86238e-13
-9.22287e-14
-5.66184e-13
-9.83273e-14
-5.44862e-13
-1.04087e-13
-5.22445e-13
-1.09333e-13
-4.99029e-13
-1.14017e-13
-4.74732e-13
-1.18142e-13
-4.49654e-13
-1.21561e-13
-4.24013e-13
-1.24291e-13
-3.97957e-13
-1.26305e-13
-3.71569e-13
-1.27501e-13
-3.4521e-13
-1.27752e-13
-3.18881e-13
-1.27363e-13
-2.92886e-13
-1.2598e-13
-2.67392e-13
-1.23808e-13
-2.42503e-13
-1.21118e-13
-2.18448e-13
-1.17427e-13
-1.95309e-13
-1.13295e-13
-1.73197e-13
-1.08601e-13
-1.52281e-13
-1.03506e-13
-1.3259e-13
-9.81051e-14
-1.14114e-13
-9.26012e-14
-9.69704e-14
-8.67994e-14
-8.10471e-14
-8.12448e-14
-6.63591e-14
-7.5725e-14
-5.2936e-14
-7.03872e-14
-4.05836e-14
-6.56249e-14
-2.92017e-14
-6.12948e-14
-1.87186e-14
-5.76349e-14
-9.09334e-15
-5.46023e-14
4.36167e-17
-5.24701e-14
8.6513e-15
-5.11343e-14
1.69976e-14
-5.07054e-14
2.52016e-14
-5.07605e-14
3.35525e-14
-5.07225e-14
4.29685e-14
-4.96293e-14
5.09626e-14
-4.09627e-14
7.14342e-16
1.79566e-13
4.71332e-17
1.04272e-13
1.24413e-21
-7.17366e-21
1.23038e-21
-1.36485e-23
1.22433e-21
6.72084e-24
1.20986e-21
2.69351e-23
1.19321e-21
4.63738e-23
1.17511e-21
6.52956e-23
1.155e-21
8.32868e-23
1.13308e-21
1.00141e-22
1.10925e-21
1.15909e-22
1.08366e-21
1.30488e-22
1.05626e-21
1.43568e-22
1.02746e-21
1.552e-22
9.97115e-22
1.65436e-22
9.65268e-22
1.74225e-22
9.32336e-22
1.81773e-22
8.98473e-22
1.87925e-22
8.63628e-22
1.92836e-22
8.28163e-22
1.96507e-22
7.92077e-22
1.99195e-22
7.55526e-22
2.00695e-22
7.18665e-22
2.01212e-22
6.81338e-22
2.01005e-22
6.44012e-22
2.00074e-22
6.0653e-22
1.98317e-22
5.69204e-22
1.96042e-22
5.31774e-22
1.93302e-22
4.94292e-22
1.90045e-22
4.57276e-22
1.86633e-22
4.20466e-22
1.82859e-22
3.83605e-22
1.78774e-22
3.47209e-22
1.74794e-22
3.1102e-22
1.70658e-22
2.75141e-22
1.66574e-22
2.39469e-22
1.62644e-22
2.04159e-22
1.58922e-22
1.6921e-22
1.55613e-22
1.34313e-22
1.52511e-22
9.97787e-23
1.49978e-22
6.53473e-23
1.4791e-22
3.10193e-23
1.46308e-22
1.4548e-22
-4.38402e-14
2.54093e-13
-8.73655e-14
2.53008e-13
-1.30548e-13
2.5107e-13
-1.73255e-13
2.48156e-13
-2.1533e-13
2.44376e-13
-2.56598e-13
2.39555e-13
-2.96853e-13
2.337e-13
-3.35976e-13
2.26934e-13
-3.7372e-13
2.19149e-13
-4.09762e-13
2.10292e-13
-4.44009e-13
2.0044e-13
-4.77077e-13
1.90498e-13
-5.0725e-13
1.79152e-13
-5.35919e-13
1.67454e-13
-5.66121e-13
1.6322e-13
-5.88538e-13
1.502e-13
-6.09796e-13
1.30254e-13
-6.30264e-13
1.18364e-13
-6.50983e-13
1.1297e-13
-6.66034e-13
1.04491e-13
-6.78061e-13
7.90331e-14
-6.91007e-13
7.46588e-14
-7.01325e-13
6.38659e-14
-7.08918e-13
5.20135e-14
-7.15793e-13
4.08212e-14
-7.20601e-13
3.15694e-14
-7.23903e-13
2.15652e-14
-7.25642e-13
1.19507e-14
-7.25867e-13
2.7124e-15
-7.24494e-13
-6.78382e-15
-7.21698e-13
-1.60213e-14
-7.17378e-13
-2.51176e-14
-7.11581e-13
-3.4178e-14
-7.0431e-13
-4.31435e-14
-6.95546e-13
-5.18352e-14
-6.85283e-13
-6.10163e-14
-6.73552e-13
-6.96403e-14
-6.60198e-13
-7.85332e-14
-6.4542e-13
-8.71069e-14
-6.2916e-13
-9.54387e-14
-6.11457e-13
-1.03627e-13
-5.92298e-13
-1.11453e-13
-5.71822e-13
-1.18879e-13
-5.50089e-13
-1.25898e-13
-5.27182e-13
-1.3232e-13
-5.03145e-13
-1.38139e-13
-4.78234e-13
-1.43144e-13
-4.52478e-13
-1.47411e-13
-4.26034e-13
-1.50834e-13
-3.99134e-13
-1.53308e-13
-3.72013e-13
-1.54729e-13
-3.44716e-13
-1.55156e-13
-3.17572e-13
-1.54619e-13
-2.90828e-13
-1.52839e-13
-2.64527e-13
-1.50229e-13
-2.38977e-13
-1.4679e-13
-2.14303e-13
-1.42224e-13
-1.90632e-13
-1.37092e-13
-1.681e-13
-1.31264e-13
-1.4686e-13
-1.24879e-13
-1.27012e-13
-1.18089e-13
-1.0843e-13
-1.11318e-13
-9.1255e-14
-1.04115e-13
-7.55637e-14
-9.7078e-14
-6.119e-14
-9.02452e-14
-4.81105e-14
-8.36131e-14
-3.62285e-14
-7.76545e-14
-2.54491e-14
-7.22225e-14
-1.57316e-14
-6.75036e-14
-6.81944e-15
-6.36679e-14
1.38492e-15
-6.08278e-14
9.16926e-15
-5.90715e-14
1.69191e-14
-5.86097e-14
2.53033e-14
-5.9299e-14
3.53762e-14
-6.09509e-14
4.82412e-14
-6.2652e-14
4.91347e-14
-4.20138e-14
-1.23351e-14
2.40879e-13
4.73149e-17
9.17634e-14
1.25736e-21
-8.41782e-21
1.25075e-21
-1.60783e-23
1.24455e-21
8.6854e-24
1.22929e-21
3.31906e-23
1.21213e-21
5.71789e-23
1.19305e-21
8.02882e-23
1.17186e-21
1.02157e-22
1.14885e-21
1.22888e-22
1.12383e-21
1.41965e-22
1.09674e-21
1.59439e-22
1.06799e-21
1.75259e-22
1.03759e-21
1.89269e-22
1.0059e-21
2.0147e-22
9.72764e-22
2.11913e-22
9.38488e-22
2.2065e-22
9.03385e-22
2.27837e-22
8.67299e-22
2.33317e-22
8.30748e-22
2.37608e-22
7.93576e-22
2.40399e-22
7.56043e-22
2.41847e-22
7.18406e-22
2.42364e-22
6.80408e-22
2.41692e-22
6.42254e-22
2.40089e-22
6.04255e-22
2.37814e-22
5.66412e-22
2.34661e-22
5.28517e-22
2.31094e-22
4.9088e-22
2.27061e-22
4.53554e-22
2.22512e-22
4.16382e-22
2.17652e-22
3.79624e-22
2.12534e-22
3.43073e-22
2.07312e-22
3.06936e-22
2.02246e-22
2.7116e-22
1.97231e-22
2.35746e-22
1.9232e-22
2.00798e-22
1.87822e-22
1.6616e-22
1.83531e-22
1.31729e-22
1.79912e-22
9.77107e-23
1.76758e-22
6.37963e-23
1.74328e-22
3.01921e-23
1.72415e-22
1.7133e-22
-4.474e-14
2.98875e-13
-8.92283e-14
2.97572e-13
-1.33372e-13
2.9528e-13
-1.77084e-13
2.9193e-13
-2.2011e-13
2.87465e-13
-2.62376e-13
2.81884e-13
-3.0363e-13
2.75015e-13
-3.43658e-13
2.67025e-13
-3.82171e-13
2.5772e-13
-4.18859e-13
2.47037e-13
-4.54335e-13
2.35976e-13
-4.87855e-13
2.24074e-13
-5.17607e-13
2.08957e-13
-5.48907e-13
1.98803e-13
-5.79881e-13
1.94243e-13
-5.99512e-13
1.69876e-13
-6.21365e-13
1.5215e-13
-6.42466e-13
1.39504e-13
-6.66337e-13
1.36876e-13
-6.73897e-13
1.12081e-13
-6.90345e-13
9.55082e-14
-7.02056e-13
8.6391e-14
-7.12221e-13
7.40505e-14
-7.19035e-13
5.88417e-14
-7.25999e-13
4.77946e-14
-7.30532e-13
3.61075e-14
-7.33631e-13
2.46671e-14
-7.35154e-13
1.34697e-14
-7.35186e-13
2.73827e-15
-7.3376e-13
-8.22035e-15
-7.30833e-13
-1.89653e-14
-7.26461e-13
-2.95093e-14
-7.20613e-13
-4.00509e-14
-7.13252e-13
-5.05335e-14
-7.0447e-13
-6.06517e-14
-6.94118e-13
-7.14068e-14
-6.8226e-13
-8.15439e-14
-6.68835e-13
-9.20067e-14
-6.5383e-13
-1.02166e-13
-6.37308e-13
-1.12016e-13
-6.19267e-13
-1.21729e-13
-5.99682e-13
-1.31105e-13
-5.78768e-13
-1.39863e-13
-5.56541e-13
-1.48202e-13
-5.32943e-13
-1.55996e-13
-5.08227e-13
-1.62943e-13
-4.82436e-13
-1.69024e-13
-4.55809e-13
-1.74131e-13
-4.28431e-13
-1.78307e-13
-4.00592e-13
-1.81246e-13
-3.72405e-13
-1.83021e-13
-3.44119e-13
-1.8355e-13
-3.15988e-13
-1.82862e-13
-2.88246e-13
-1.80693e-13
-2.60954e-13
-1.77637e-13
-2.34575e-13
-1.73288e-13
-2.09059e-13
-1.67864e-13
-1.84777e-13
-1.61499e-13
-1.61738e-13
-1.54432e-13
-1.40138e-13
-1.4661e-13
-1.19924e-13
-1.38437e-13
-1.01294e-13
-1.30085e-13
-8.42831e-14
-1.21264e-13
-6.86769e-14
-1.12825e-13
-5.46657e-14
-1.04397e-13
-4.20408e-14
-9.63814e-14
-3.07727e-14
-8.90718e-14
-2.0729e-14
-8.24134e-14
-1.18621e-14
-7.65216e-14
-4.01696e-15
-7.16624e-14
3.04257e-15
-6.80394e-14
9.63158e-15
-6.5813e-14
1.61586e-14
-6.5291e-14
2.37208e-14
-6.70159e-14
3.36939e-14
-7.10779e-14
4.80178e-14
-7.71336e-14
-2.30984e-14
2.89455e-14
-1.73206e-14
2.34944e-13
4.70052e-17
7.42693e-14
1.28383e-21
-9.82077e-21
1.27551e-21
-1.89735e-23
1.26905e-21
1.08567e-23
1.25328e-21
4.02217e-23
1.23524e-21
6.88111e-23
1.21497e-21
9.64182e-23
1.19259e-21
1.22474e-22
1.16798e-21
1.46876e-22
1.14125e-21
1.6952e-22
1.11256e-21
1.89993e-22
1.0819e-21
2.08501e-22
1.04985e-21
2.24838e-22
1.01635e-21
2.38952e-22
9.81553e-22
2.50894e-22
9.45726e-22
2.60924e-22
9.08916e-22
2.68885e-22
8.71538e-22
2.75089e-22
8.33488e-22
2.79432e-22
7.95127e-22
2.82275e-22
7.56508e-22
2.83671e-22
7.17786e-22
2.83723e-22
6.78805e-22
2.82586e-22
6.39928e-22
2.80414e-22
6.01205e-22
2.77106e-22
5.62845e-22
2.73228e-22
5.24484e-22
2.68575e-22
4.86331e-22
2.63354e-22
4.48642e-22
2.57718e-22
4.11316e-22
2.51721e-22
3.74454e-22
2.45518e-22
3.38007e-22
2.39055e-22
3.01869e-22
2.328e-22
2.663e-22
2.26699e-22
2.31249e-22
2.20909e-22
1.96611e-22
2.15325e-22
1.62438e-22
2.10362e-22
1.28678e-22
2.0602e-22
9.52809e-23
2.02297e-22
6.19352e-23
1.99299e-22
2.90547e-23
1.97283e-22
1.96094e-22
-4.58439e-14
3.44761e-13
-9.14077e-14
3.4321e-13
-1.36668e-13
3.40605e-13
-1.81522e-13
3.36849e-13
-2.25735e-13
3.31743e-13
-2.69122e-13
3.25333e-13
-3.11574e-13
3.17529e-13
-3.52691e-13
3.08201e-13
-3.92086e-13
2.97174e-13
-4.30144e-13
2.85153e-13
-4.66886e-13
2.72774e-13
-4.99644e-13
2.56888e-13
-5.30934e-13
2.403e-13
-5.66888e-13
2.34805e-13
-5.92063e-13
2.19468e-13
-6.1378e-13
1.9164e-13
-6.35626e-13
1.74038e-13
-6.58986e-13
1.62901e-13
-6.79988e-13
1.57914e-13
-6.86186e-13
1.18311e-13
-7.04242e-13
1.13588e-13
-7.15146e-13
9.73186e-14
-7.24219e-13
8.31418e-14
-7.31438e-13
6.60739e-14
-7.3775e-13
5.41177e-14
-7.42044e-13
4.04104e-14
-7.44796e-13
2.74214e-14
-7.46206e-13
1.48788e-14
-7.4606e-13
2.58603e-15
-7.44443e-13
-9.84746e-15
-7.41486e-13
-2.19368e-14
-7.37006e-13
-3.40086e-14
-7.31111e-13
-4.59695e-14
-7.23713e-13
-5.79596e-14
-7.14858e-13
-6.95387e-14
-7.04563e-13
-8.17394e-14
-6.92518e-13
-9.36309e-14
-6.78953e-13
-1.0562e-13
-6.6377e-13
-1.17401e-13
-6.46955e-13
-1.28888e-13
-6.28629e-13
-1.40115e-13
-6.0867e-13
-1.5113e-13
-5.87127e-13
-1.61478e-13
-5.64181e-13
-1.71221e-13
-5.39969e-13
-1.80286e-13
-5.14356e-13
-1.88638e-13
-4.8759e-13
-1.95878e-13
-4.59891e-13
-2.01919e-13
-4.31489e-13
-2.06803e-13
-4.02393e-13
-2.10442e-13
-3.72945e-13
-2.12572e-13
-3.43348e-13
-2.13252e-13
-3.14039e-13
-2.1228e-13
-2.85022e-13
-2.09822e-13
-2.56605e-13
-2.06166e-13
-2.29216e-13
-2.00797e-13
-2.02835e-13
-1.94364e-13
-1.777e-13
-1.86758e-13
-1.5401e-13
-1.78248e-13
-1.31896e-13
-1.68851e-13
-1.11377e-13
-1.59089e-13
-9.26199e-14
-1.48976e-13
-7.56556e-14
-1.38366e-13
-6.04009e-14
-1.2822e-13
-4.67532e-14
-1.18187e-13
-3.46105e-14
-1.08665e-13
-2.4044e-14
-9.97842e-14
-1.49132e-14
-9.16892e-14
-7.04672e-15
-8.45352e-14
-3.45464e-16
-7.85155e-14
5.28975e-15
-7.38241e-14
1.01181e-14
-7.07933e-14
1.44428e-14
-6.97702e-14
1.92963e-14
-7.20242e-14
2.81999e-14
-8.01335e-14
5.30451e-14
-1.02135e-13
-5.5797e-14
1.37631e-13
-1.33607e-14
1.92352e-13
4.64584e-17
6.0737e-14
1.3103e-21
-1.08531e-20
1.30534e-21
-2.12999e-23
1.29836e-21
1.37002e-23
1.28192e-21
4.81316e-23
1.26285e-21
8.17358e-23
1.24108e-21
1.13737e-22
1.21699e-21
1.44136e-22
1.19057e-21
1.72571e-22
1.16172e-21
1.9873e-22
1.13101e-21
2.22563e-22
1.09829e-21
2.43656e-22
1.06396e-21
2.62216e-22
1.02829e-21
2.78243e-22
9.91479e-22
2.91633e-22
9.53688e-22
3.02696e-22
9.1512e-22
3.11382e-22
8.75933e-22
3.17896e-22
8.36383e-22
3.22342e-22
7.96523e-22
3.25082e-22
7.5656e-22
3.26168e-22
7.16597e-22
3.25702e-22
6.76582e-22
3.23738e-22
6.36722e-22
3.20481e-22
5.97276e-22
3.165e-22
5.5814e-22
3.1133e-22
5.19314e-22
3.05592e-22
4.80747e-22
2.99078e-22
4.42593e-22
2.9215e-22
4.0506e-22
2.8486e-22
3.67992e-22
2.77364e-22
3.31699e-22
2.69816e-22
2.95872e-22
2.62268e-22
2.60407e-22
2.54978e-22
2.25665e-22
2.48051e-22
1.91596e-22
2.4164e-22
1.58147e-22
2.35798e-22
1.24956e-22
2.30628e-22
9.22306e-23
2.26441e-22
5.99706e-23
2.23132e-22
2.79173e-23
2.20754e-22
2.19461e-22
-4.70919e-14
3.91893e-13
-9.39307e-14
3.90122e-13
-1.40446e-13
3.87182e-13
-1.86601e-13
3.83064e-13
-2.32199e-13
3.77404e-13
-2.76903e-13
3.70097e-13
-3.2069e-13
3.61377e-13
-3.63081e-13
3.50646e-13
-4.03935e-13
3.38084e-13
-4.4378e-13
3.25053e-13
-4.80654e-13
3.09706e-13
-5.13094e-13
2.89381e-13
-5.49879e-13
2.77137e-13
-5.85292e-13
2.7027e-13
-6.05393e-13
2.39616e-13
-6.30798e-13
2.1709e-13
-6.53702e-13
1.96984e-13
-6.79796e-13
1.89034e-13
-6.87779e-13
1.6593e-13
-7.05861e-13
1.36425e-13
-7.18893e-13
1.26649e-13
-7.30324e-13
1.08772e-13
-7.377e-13
9.05363e-14
-7.45792e-13
7.41805e-14
-7.51146e-13
5.94819e-14
-7.55109e-13
4.43777e-14
-7.57599e-13
2.99137e-14
-7.58737e-13
1.60161e-14
-7.58319e-13
2.16263e-15
-7.56621e-13
-1.15565e-14
-7.53501e-13
-2.50724e-14
-7.49047e-13
-3.84823e-14
-7.43095e-13
-5.19429e-14
-7.35724e-13
-6.53592e-14
-7.26893e-13
-7.84034e-14
-7.16518e-13
-9.21511e-14
-7.04328e-13
-1.05862e-13
-6.90742e-13
-1.19251e-13
-6.75382e-13
-1.32811e-13
-6.58257e-13
-1.46069e-13
-6.39453e-13
-1.58977e-13
-6.191e-13
-1.71547e-13
-5.96988e-13
-1.83658e-13
-5.73243e-13
-1.9504e-13
-5.48069e-13
-2.05537e-13
-5.21563e-13
-2.15225e-13
-4.93727e-13
-2.23798e-13
-4.64728e-13
-2.31006e-13
-4.3493e-13
-2.36695e-13
-4.04505e-13
-2.40962e-13
-3.73563e-13
-2.43611e-13
-3.42572e-13
-2.44348e-13
-3.11765e-13
-2.43194e-13
-2.81139e-13
-2.40559e-13
-2.51463e-13
-2.35955e-13
-2.22737e-13
-2.29636e-13
-1.95218e-13
-2.22002e-13
-1.6909e-13
-2.13007e-13
-1.4469e-13
-2.02771e-13
-1.21925e-13
-1.91744e-13
-1.01132e-13
-1.80012e-13
-8.23572e-14
-1.67883e-13
-6.53548e-14
-1.55504e-13
-5.03987e-14
-1.43313e-13
-3.71947e-14
-1.31528e-13
-2.57153e-14
-1.20285e-13
-1.59661e-14
-1.09675e-13
-7.7519e-15
-1.00045e-13
-1.05667e-15
-9.13772e-14
4.32841e-15
-8.40469e-14
8.39049e-15
-7.80358e-14
1.10874e-14
-7.36378e-14
1.23007e-14
-7.11341e-14
1.12983e-14
-7.11731e-14
6.40485e-15
-7.53927e-14
-9.1851e-15
-8.66986e-14
-3.64598e-14
1.64752e-13
-1.21771e-14
1.67913e-13
4.58685e-17
4.83927e-14
1.32354e-21
-1.1859e-20
1.34039e-21
-2.3523e-23
1.33285e-21
1.70606e-23
1.31548e-21
5.68687e-23
1.2949e-21
9.55911e-23
1.27143e-21
1.32814e-22
1.24542e-21
1.67814e-22
1.21678e-21
2.00488e-22
1.18556e-21
2.3037e-22
1.15221e-21
2.57253e-22
1.1168e-21
2.8119e-22
1.08004e-21
3.01973e-22
1.04168e-21
3.19654e-22
1.00249e-21
3.34439e-22
9.62321e-22
3.4633e-22
9.21686e-22
3.55533e-22
8.80379e-22
3.6215e-22
8.39123e-22
3.66596e-22
7.97609e-22
3.68974e-22
7.56043e-22
3.69388e-22
7.14684e-22
3.67992e-22
6.73428e-22
3.65149e-22
6.3269e-22
3.61064e-22
5.92158e-22
3.55584e-22
5.5235e-22
3.49329e-22
5.128e-22
3.41988e-22
4.73768e-22
3.34129e-22
4.35304e-22
3.25754e-22
3.97615e-22
3.17069e-22
3.60444e-22
3.08228e-22
3.24151e-22
2.99336e-22
2.88479e-22
2.90599e-22
2.53531e-22
2.82017e-22
2.19306e-22
2.74004e-22
1.85702e-22
2.66507e-22
1.52977e-22
2.59942e-22
1.20717e-22
2.54151e-22
8.89736e-23
2.49343e-22
5.75408e-23
2.45621e-22
2.65732e-23
2.43191e-22
2.4195e-22
-4.8447e-14
4.40381e-13
-9.66055e-14
4.38352e-13
-1.44554e-13
4.35191e-13
-1.92227e-13
4.30796e-13
-2.39379e-13
4.24613e-13
-2.85657e-13
4.16435e-13
-3.31255e-13
4.07032e-13
-3.7456e-13
3.94006e-13
-4.18043e-13
3.81622e-13
-4.59323e-13
3.66387e-13
-4.9381e-13
3.44248e-13
-5.32901e-13
3.28524e-13
-5.75415e-13
3.19703e-13
-5.97694e-13
2.92598e-13
-6.25174e-13
2.67144e-13
-6.4885e-13
2.40814e-13
-6.8045e-13
2.28627e-13
-6.93637e-13
2.0226e-13
-7.04491e-13
1.76819e-13
-7.25347e-13
1.5731e-13
-7.36675e-13
1.38004e-13
-7.46419e-13
1.18539e-13
-7.54009e-13
9.81465e-14
-7.61345e-13
8.15302e-14
-7.66196e-13
6.43445e-14
-7.69745e-13
4.79329e-14
-7.71886e-13
3.20572e-14
-7.72612e-13
1.67409e-14
-7.71995e-13
1.5406e-15
-7.70097e-13
-1.34652e-14
-7.66958e-13
-2.82253e-14
-7.62398e-13
-4.30613e-14
-7.56539e-13
-5.78226e-14
-7.49203e-13
-7.27211e-14
-7.40499e-13
-8.71395e-14
-7.29957e-13
-1.02727e-13
-7.17836e-13
-1.18025e-13
-7.03991e-13
-1.33139e-13
-6.88591e-13
-1.4826e-13
-6.71285e-13
-1.63427e-13
-6.52103e-13
-1.78216e-13
-6.31114e-13
-1.92596e-13
-6.08452e-13
-2.06387e-13
-5.83921e-13
-2.19641e-13
-5.57659e-13
-2.31872e-13
-5.29991e-13
-2.4297e-13
-5.00846e-13
-2.53022e-13
-4.70559e-13
-2.61381e-13
-4.39162e-13
-2.68179e-13
-4.0698e-13
-2.73238e-13
-3.74377e-13
-2.7631e-13
-3.41632e-13
-2.77193e-13
-3.08841e-13
-2.76089e-13
-2.76594e-13
-2.72911e-13
-2.45347e-13
-2.67314e-13
-2.14996e-13
-2.60101e-13
-1.86135e-13
-2.50975e-13
-1.58894e-13
-2.40367e-13
-1.33579e-13
-2.28208e-13
-1.10246e-13
-2.15203e-13
-8.90297e-14
-2.01354e-13
-7.00173e-14
-1.87026e-13
-5.31945e-14
-1.72458e-13
-3.85082e-14
-1.58134e-13
-2.58485e-14
-1.44325e-13
-1.51442e-14
-1.31126e-13
-6.30528e-15
-1.18654e-13
8.04567e-16
-1.07297e-13
6.33362e-15
-9.70497e-14
1.0295e-14
-8.81531e-14
1.27883e-14
-8.0675e-14
1.36231e-14
-7.46201e-14
1.21988e-14
-6.98572e-14
6.85817e-15
-6.5984e-14
-7.08234e-15
-6.16023e-14
-4.67124e-14
-4.72189e-14
-2.88362e-14
1.46724e-13
-1.37927e-14
1.52718e-13
4.48879e-17
3.44345e-14
1.36324e-21
-1.26532e-20
1.38093e-21
-2.55392e-23
1.3726e-21
2.10414e-23
1.35425e-21
6.67948e-23
1.33202e-21
1.11308e-22
1.30648e-21
1.53856e-22
1.2781e-21
1.93922e-22
1.24666e-21
2.31094e-22
1.21244e-21
2.64698e-22
1.1761e-21
2.94993e-22
1.13763e-21
3.21515e-22
1.09767e-21
3.44469e-22
1.05646e-21
3.63753e-22
1.01438e-21
3.79624e-22
9.71575e-22
3.92135e-22
9.28252e-22
4.01596e-22
8.84825e-22
4.08265e-22
8.4145e-22
4.12246e-22
7.97971e-22
4.13849e-22
7.54699e-22
4.1328e-22
7.11841e-22
4.10954e-22
6.69293e-22
4.06921e-22
6.27261e-22
4.01441e-22
5.85902e-22
3.9472e-22
5.4506e-22
3.86862e-22
5.04942e-22
3.78177e-22
4.65444e-22
3.68767e-22
4.26618e-22
3.58841e-22