0 	1.08887e-20 	0 	-9.13288e-28
0.010101 	3.9002e-20 	1.35517e-22 	5.8538e-21
0.020202 	6.00187e-20 	-6.74177e-23 	5.1723e-21
0.030303 	1.31133e-20 	-1.01212e-22 	-1.86462e-20
0.040404 	5.4755e-20 	1.6897e-22 	-2.17151e-20
0.0505051 	-5.06417e-20 	1.01382e-22 	2.54573e-20
