0.010101 	3.09811e-16 	-3.27286e-19 	3.13472e-18
0.020202 	1.1213e-17 	-2.90601e-20 	1.70642e-19
