/*--------------------------------*- C++ -*----------------------------------*\
  =========                 |
  \\      /  F ield         | OpenFOAM: The Open Source CFD Toolbox
   \\    /   O peration     | Website:  https://openfoam.org
    \\  /    A nd           | Version:  6
     \\/     M anipulation  |
\*---------------------------------------------------------------------------*/
FoamFile
{
    version     2.0;
    format      ascii;
    class       surfaceScalarField;
    location    "4500";
    object      phi;
}
// * * * * * * * * * * * * * * * * * * * * * * * * * * * * * * * * * * * * * //

dimensions      [0 3 -1 0 0 0 0];

internalField   nonuniform List<scalar> 
9440
(
1.74215e-10
-1.74215e-10
3.1361e-10
-1.39395e-10
5.64993e-10
-2.51383e-10
7.19485e-10
-1.54491e-10
9.31988e-10
-2.12504e-10
1.08952e-09
-1.57533e-10
1.29337e-09
-2.03847e-10
1.54745e-09
-2.54081e-10
1.69701e-09
-1.4956e-10
1.81813e-09
-1.21123e-10
2.00992e-09
-1.91786e-10
2.14341e-09
-1.33492e-10
2.21546e-09
-7.20497e-11
2.38964e-09
-1.74177e-10
2.53534e-09
-1.45707e-10
2.61952e-09
-8.41745e-11
2.72211e-09
-1.02589e-10
2.73893e-09
-1.68241e-11
2.93981e-09
-2.00885e-10
3.01069e-09
-7.08709e-11
3.07914e-09
-6.84538e-11
3.14286e-09
-6.3715e-11
3.17285e-09
-2.99937e-11
3.1828e-09
-9.9497e-12
3.13132e-09
5.14826e-11
2.98709e-09
1.44229e-10
2.77052e-09
2.16567e-10
2.54228e-09
2.28245e-10
2.38434e-09
1.57935e-10
2.26992e-09
1.14427e-10
2.1526e-09
1.17317e-10
2.05134e-09
1.01267e-10
1.93842e-09
1.12919e-10
1.90969e-09
2.87247e-11
1.93807e-09
-2.83764e-11
1.89029e-09
4.77788e-11
1.88702e-09
3.27489e-12
1.83155e-09
5.54662e-11
2.06618e-09
-2.34628e-10
1.88803e-09
1.78147e-10
2.17135e-09
-2.83319e-10
2.46115e-09
-2.89793e-10
2.46893e-09
-7.78279e-12
2.81382e-09
-3.44886e-10
2.66453e-09
1.49282e-10
2.71481e-09
-5.02739e-11
2.92662e-09
-2.11808e-10
3.01997e-09
-9.33545e-11
3.04802e-09
-2.80469e-11
3.24639e-09
-1.98373e-10
3.17608e-09
7.03153e-11
3.12003e-09
5.60457e-11
3.13745e-09
-1.7419e-11
3.16894e-09
-3.14845e-11
3.2003e-09
-3.13619e-11
3.17441e-09
2.58903e-11
3.14345e-09
3.09574e-11
3.06483e-09
7.86183e-11
2.99665e-09
6.81804e-11
2.80621e-09
1.90443e-10
2.56239e-09
2.43818e-10
2.21368e-09
3.48714e-10
1.806e-09
4.07678e-10
1.22036e-09
5.85639e-10
9.40589e-10
2.79772e-10
3.26275e-10
6.14313e-10
-2.83951e-10
6.10226e-10
-7.24777e-10
4.40827e-10
-9.47244e-10
2.22467e-10
-9.47927e-10
6.83442e-13
-9.2148e-10
-2.64468e-11
-9.70231e-10
4.87512e-11
-1.03535e-09
6.51162e-11
-1.08433e-09
4.89792e-11
-1.10767e-09
2.33411e-11
-1.08671e-09
-2.09561e-11
-1.05663e-09
-3.0082e-11
-9.95063e-10
-6.15689e-11
-9.42847e-10
-5.22172e-11
-8.30561e-10
-1.12287e-10
-7.0792e-10
-1.22641e-10
-6.77256e-10
-3.06645e-11
-4.95772e-10
-1.81484e-10
-3.74158e-10
-1.21614e-10
-2.26152e-10
-1.48006e-10
8.04952e-16
-2.26154e-10
-1.81432e-17
4.85672e-16
-1.86114e-17
4.6481e-19
-1.80866e-17
-5.24743e-19
-1.7237e-17
-8.50232e-19
-1.63037e-17
-9.33777e-19
-1.53435e-17
-9.60608e-19
-1.43596e-17
-9.84263e-19
-1.33473e-17
-1.01257e-18
-1.23062e-17
-1.04141e-18
-1.12413e-17
-1.06522e-18
-1.0162e-17
-1.07966e-18
-9.08043e-18
-1.08194e-18
-8.01011e-18
-1.07064e-18
-6.96496e-18
-1.04539e-18
-5.95838e-18
-1.00665e-18
-5.0027e-18
-9.55531e-19
-4.10868e-18
-8.93581e-19
-3.28527e-18
-8.22686e-19
-2.5394e-18
-7.44912e-19
-1.87594e-18
-6.62389e-19
-1.29765e-18
-5.77202e-19
-8.05335e-19
-4.91318e-19
-3.97923e-19
-4.06533e-19
-7.27148e-20
-3.24446e-19
1.74403e-19
-2.46449e-19
3.48729e-19
-1.7372e-19
4.56538e-19
-1.07231e-19
5.04886e-19
-4.77598e-20
5.01443e-19
4.09383e-21
4.5433e-19
4.78815e-20
3.71983e-19
8.32812e-20
2.63028e-19
1.10075e-19
1.36168e-19
1.28145e-19
1.37556e-19
1.30362e-10
-3.04577e-10
3.5828e-10
-3.67313e-10
5.3886e-10
-4.31963e-10
7.70898e-10
-3.8653e-10
9.1853e-10
-3.60136e-10
1.09595e-09
-3.34949e-10
1.2541e-09
-3.62007e-10
1.47195e-09
-4.71925e-10
1.61971e-09
-2.9732e-10
1.75625e-09
-2.57664e-10
1.92893e-09
-3.64466e-10
2.0358e-09
-2.40368e-10
2.18796e-09
-2.24203e-10
2.2651e-09
-2.51316e-10
2.40395e-09
-2.84557e-10
2.52506e-09
-2.05284e-10
2.62187e-09
-1.99408e-10
2.68492e-09
-7.98706e-11
2.72605e-09
-2.42014e-10
2.76832e-09
-1.13143e-10
2.83448e-09
-1.34613e-10
2.9035e-09
-1.32731e-10
2.97671e-09
-1.03202e-10
3.05798e-09
-9.12197e-11
3.13277e-09
-2.33076e-11
3.1852e-09
9.18046e-11
3.15399e-09
2.47771e-10
3.12694e-09
2.55303e-10
2.982e-09
3.02868e-10
2.80958e-09
2.86855e-10
2.66732e-09
2.59579e-10
2.57882e-09
1.89763e-10
2.5685e-09
1.23245e-10
2.5051e-09
9.21239e-11
2.4594e-09
1.73241e-11
2.45569e-09
5.14901e-11
2.4566e-09
2.36363e-12
2.49452e-09
1.75418e-11
2.60033e-09
-3.40429e-10
2.66079e-09
1.17683e-10
2.6972e-09
-3.19729e-10
2.86368e-09
-4.56274e-10
2.94644e-09
-9.05412e-11
3.03355e-09
-4.31992e-10
3.21216e-09
-2.93222e-11
3.33851e-09
-1.76625e-10
3.34833e-09
-2.21633e-10
3.45107e-09
-1.96088e-10
3.48179e-09
-5.87709e-11
3.61144e-09
-3.28022e-10
3.53886e-09
1.42896e-10
3.5432e-09
5.17141e-11
3.5283e-09
-2.52613e-12
3.4906e-09
6.21881e-12
3.42365e-09
3.5595e-11
3.40654e-09
4.29925e-11
3.3323e-09
1.05203e-10
3.26771e-09
1.43206e-10
3.13592e-09
1.99968e-10
2.96563e-09
3.60733e-10
2.80642e-09
4.03032e-10
2.53273e-09
6.22401e-10
2.23326e-09
7.07153e-10
2.16685e-09
6.52049e-10
1.63869e-09
8.0793e-10
1.22877e-09
1.02423e-09
9.14674e-10
9.2432e-10
3.50149e-10
1.00535e-09
-3.23662e-12
5.75854e-10
-4.01951e-10
3.99399e-10
-7.734e-10
3.45002e-10
-8.94699e-10
1.70049e-10
-9.31119e-10
1.01536e-10
-9.32442e-10
5.03011e-11
-9.07187e-10
-1.91473e-12
-8.92277e-10
-3.58669e-11
-8.85627e-10
-3.67335e-11
-8.79365e-10
-6.78317e-11
-8.14243e-10
-1.1734e-10
-7.23398e-10
-2.03133e-10
-6.44145e-10
-2.01895e-10
-5.29102e-10
-1.45708e-10
-3.98225e-10
-3.12362e-10
-2.97885e-10
-2.21955e-10
-1.42243e-10
-3.03649e-10
5.0537e-16
-3.68398e-10
-1.97227e-17
6.95825e-16
-1.96009e-17
3.32672e-19
-1.84121e-17
-1.71396e-18
-1.73205e-17
-1.94272e-18
-1.63305e-17
-1.92451e-18
-1.53672e-17
-1.92465e-18
-1.43879e-17
-1.96418e-18
-1.33761e-17
-2.02499e-18
-1.233e-17
-2.08826e-18
-1.12558e-17
-2.14021e-18
-1.01643e-17
-2.17181e-18
-9.06912e-18
-2.17769e-18
-7.98486e-18
-2.15524e-18
-6.92622e-18
-2.10401e-18
-5.90726e-18
-2.02515e-18
-4.94075e-18
-1.9211e-18
-4.03778e-18
-1.79518e-18
-3.2075e-18
-1.65131e-18
-2.45688e-18
-1.49372e-18
-1.79075e-18
-1.32671e-18
-1.21177e-18
-1.1545e-18
-7.2055e-19
-9.81022e-19
-3.15836e-19
-8.09907e-19
5.28277e-21
-6.44373e-19
2.47132e-19
-4.87207e-19
4.15218e-19
-3.40752e-19
5.16009e-19
-2.06929e-19
5.56739e-19
-8.72671e-20
5.4523e-19
1.70463e-20
4.8973e-19
1.05114e-19
3.98776e-19
1.76276e-19
2.81098e-19
2.30058e-19
1.45579e-19
2.66126e-19
2.84213e-19
1.70725e-10
-4.75302e-10
3.40088e-10
-5.36677e-10
4.54409e-10
-5.46283e-10
6.52103e-10
-5.84224e-10
8.41612e-10
-5.49644e-10
1.02215e-09
-5.15491e-10
1.22819e-09
-5.68043e-10
1.39802e-09
-6.41756e-10
1.62035e-09
-5.19645e-10
1.74565e-09
-3.8297e-10
1.94393e-09
-5.62741e-10
2.00977e-09
-3.06211e-10
2.11125e-09
-3.2568e-10
2.18919e-09
-3.29256e-10
2.25042e-09
-3.45789e-10
2.32803e-09
-2.82898e-10
2.32816e-09
-1.99537e-10
2.3955e-09
-1.47207e-10
2.34558e-09
-1.92098e-10
2.40992e-09
-1.77479e-10
2.48167e-09
-2.06357e-10
2.59585e-09
-2.46913e-10
2.72136e-09
-2.28716e-10
2.8171e-09
-1.86958e-10
2.92044e-09
-1.26645e-10
2.98255e-09
2.96928e-11
3.07256e-09
1.57768e-10
3.213e-09
1.14856e-10
3.21627e-09
2.99606e-10
3.13153e-09
3.71589e-10
3.06715e-09
3.23959e-10
2.97535e-09
2.81563e-10
2.93724e-09
1.61364e-10
2.98241e-09
4.69504e-11
2.94791e-09
5.18233e-11
3.07739e-09
-7.79892e-11
2.95226e-09
1.27501e-10
3.11772e-09
-1.47922e-10
3.02411e-09
-2.46822e-10
3.30383e-09
-1.62027e-10
3.244e-09
-2.59904e-10
3.27113e-09
-4.83402e-10
3.5338e-09
-3.53214e-10
3.427e-09
-3.25194e-10
3.71665e-09
-3.18965e-10
3.83969e-09
-2.99671e-10
3.79164e-09
-1.73577e-10
3.68228e-09
-8.67314e-11
3.85282e-09
-2.2931e-10
3.72465e-09
-1.99847e-10
3.83131e-09
3.62395e-11
3.81373e-09
6.92877e-11
3.83857e-09
-2.7365e-11
3.81455e-09
3.02468e-11
3.8131e-09
3.7042e-11
3.79477e-09
6.13263e-11
3.72593e-09
1.74044e-10
3.5709e-09
2.98228e-10
3.42045e-09
3.50422e-10
3.28275e-09
4.98429e-10
3.04556e-09
6.40226e-10
2.95061e-09
7.1735e-10
2.71872e-09
9.39039e-10
2.45936e-09
9.11415e-10
2.28767e-09
9.79612e-10
1.93683e-09
1.37508e-09
1.42221e-09
1.43894e-09
9.89998e-10
1.43756e-09
5.20755e-10
1.0451e-09
1.63313e-10
7.56841e-10
-6.98743e-11
5.78189e-10
-3.06952e-10
4.07127e-10
-5.16613e-10
3.11196e-10
-6.6512e-10
1.98808e-10
-7.1976e-10
5.27245e-11
-7.68911e-10
1.32828e-11
-8.15596e-10
9.95072e-12
-8.26235e-10
-5.71936e-11
-7.44614e-10
-1.98962e-10
-6.62616e-10
-2.85131e-10
-5.7798e-10
-2.86532e-10
-4.28184e-10
-2.95503e-10
-3.26929e-10
-4.13618e-10
-2.10431e-10
-3.38454e-10
-9.75323e-11
-4.16548e-10
-1.54259e-16
-4.6593e-10
-3.20105e-17
2.93147e-16
-2.16476e-17
-1.00445e-17
-1.86409e-17
-4.72101e-18
-1.73023e-17
-3.28214e-18
-1.63307e-17
-2.89697e-18
-1.54067e-17
-2.84945e-18
-1.44487e-17
-2.92303e-18
-1.34394e-17
-3.03518e-18
-1.2382e-17
-3.14663e-18
-1.12874e-17
-3.23567e-18
-1.01702e-17
-3.28965e-18
-9.04668e-18
-3.30156e-18
-7.93362e-18
-3.26833e-18
-6.84737e-18
-3.18992e-18
-5.80321e-18
-3.06863e-18
-4.81482e-18
-2.9085e-18
-3.89391e-18
-2.7149e-18
-3.0499e-18
-2.49397e-18
-2.28988e-18
-2.25233e-18
-1.61853e-18
-1.99665e-18
-1.03829e-18
-1.7334e-18
-5.49436e-19
-1.46867e-18
-1.50302e-19
-1.20798e-18
1.6245e-19
-9.56183e-19
3.93587e-19
-7.17471e-19
5.49041e-19
-4.95332e-19
6.35671e-19
-2.92602e-19
6.61053e-19
-1.1153e-19
6.33298e-19
4.61523e-20
5.60892e-19
1.7914e-19
4.52558e-19
2.86481e-19
3.17166e-19
3.675e-19
1.63667e-19
4.21733e-19
4.48891e-19
1.2886e-10
-6.04162e-10
2.0444e-10
-6.12257e-10
3.44424e-10
-6.86268e-10
5.22676e-10
-7.62477e-10
6.95141e-10
-7.2211e-10
8.68503e-10
-6.88853e-10
1.14368e-09
-8.43225e-10
1.31268e-09
-8.10756e-10
1.5725e-09
-7.79465e-10
1.74341e-09
-5.53875e-10
1.83476e-09
-6.54097e-10
2.07414e-09
-5.45583e-10
2.1288e-09
-3.80338e-10
2.16456e-09
-3.65016e-10
2.14561e-09
-3.2684e-10
2.13917e-09
-2.7646e-10
2.12646e-09
-1.86827e-10
2.12316e-09
-1.4391e-10
2.09614e-09
-1.65072e-10
2.12921e-09
-2.10555e-10
2.1756e-09
-2.52743e-10
2.21729e-09
-2.88603e-10
2.30069e-09
-3.1212e-10
2.44326e-09
-3.29521e-10
2.67776e-09
-3.6115e-10
2.81991e-09
-1.12451e-10
2.9938e-09
-1.61285e-11
3.1177e-09
-9.03617e-12
3.29405e-09
1.23253e-10
3.39103e-09
2.74607e-10
3.40777e-09
3.07224e-10
3.39514e-09
2.94197e-10
3.32342e-09
2.3308e-10
3.34883e-09
2.15395e-11
3.38683e-09
1.38235e-11
3.49946e-09
-1.9061e-10
3.60785e-09
1.91069e-11
3.69734e-09
-2.37413e-10
3.67311e-09
-2.22588e-10
3.8008e-09
-2.89718e-10
3.90735e-09
-3.66453e-10
3.9077e-09
-4.83746e-10
4.00815e-09
-4.5367e-10
4.04582e-09
-3.62857e-10
4.05489e-09
-3.28033e-10
4.03102e-09
-2.75801e-10
4.06825e-09
-2.10806e-10
4.06879e-09
-8.72726e-11
4.28318e-09
-4.43705e-10
4.10749e-09
-2.41535e-11
4.05124e-09
9.24907e-11
4.0381e-09
8.243e-11
4.02982e-09
-1.90855e-11
3.96672e-09
9.33451e-11
4.02721e-09
-2.34453e-11
4.01542e-09
7.312e-11
4.03367e-09
1.55789e-10
3.93162e-09
4.00285e-10
3.8057e-09
4.76338e-10
3.6734e-09
6.30733e-10
3.44823e-09
8.65393e-10
3.35674e-09
8.08841e-10
3.16389e-09
1.13189e-09
2.78891e-09
1.28639e-09
2.54891e-09
1.21961e-09
2.30363e-09
1.62037e-09
1.88147e-09
1.8611e-09
1.50511e-09
1.81391e-09
1.0935e-09
1.45671e-09
6.02147e-10
1.24819e-09
2.11129e-10
9.69207e-10
-3.61593e-11
6.54415e-10
-1.22239e-10
3.97275e-10
-2.73202e-10
3.49771e-10
-5.11902e-10
2.91423e-10
-6.59166e-10
1.60546e-10
-6.98459e-10
4.92431e-11
-7.04885e-10
-5.07688e-11
-6.76272e-10
-2.27576e-10
-6.37984e-10
-3.2342e-10
-5.37174e-10
-3.87343e-10
-3.84092e-10
-4.48585e-10
-3.15876e-10
-4.81834e-10
-1.82275e-10
-4.72056e-10
-6.18066e-11
-5.37017e-10
-1.37017e-16
-5.27738e-10
-1.02534e-17
1.35609e-19
-1.6324e-17
-3.97387e-18
-1.7202e-17
-3.84384e-18
-1.69171e-17
-3.56789e-18
-1.62832e-17
-3.53185e-18
-1.54803e-17
-3.65324e-18
-1.45609e-17
-3.84338e-18
-1.35509e-17
-4.0461e-18
-1.2471e-17
-4.22729e-18
-1.13413e-17
-4.36593e-18
-1.01821e-17
-4.44921e-18
-9.01345e-18
-4.47013e-18
-7.85522e-18
-4.42618e-18
-6.72607e-18
-4.3184e-18
-5.64308e-18
-4.15074e-18
-4.62122e-18
-3.92934e-18
-3.67299e-18
-3.662e-18
-2.80826e-18
-3.35751e-18
-2.03419e-18
-3.02519e-18
-1.35529e-18
-2.67436e-18
-7.73565e-19
-2.31401e-18
-2.88739e-19
-1.95249e-18
1.01492e-19
-1.59729e-18
4.01161e-19
-1.255e-18
6.15726e-19
-9.31184e-19
7.5177e-19
-6.3046e-19
8.16743e-19
-3.56531e-19
8.18735e-19
-1.12294e-19
7.66286e-19
1.00048e-19
6.68233e-19
2.78868e-19
5.33577e-19
4.23003e-19
3.71399e-19
5.31656e-19
1.90825e-19
6.04312e-19
6.4068e-19
4.87767e-11
-6.52939e-10
2.55131e-10
-8.18611e-10
3.87803e-10
-8.18941e-10
5.36663e-10
-9.11337e-10
7.62646e-10
-9.48093e-10
8.27675e-10
-7.53881e-10
1.24462e-09
-1.26018e-09
1.56096e-09
-1.12709e-09
1.63483e-09
-8.53329e-10
1.90271e-09
-8.21761e-10
2.08267e-09
-8.34055e-10
2.17276e-09
-6.3567e-10
2.19226e-09
-3.99841e-10
2.17459e-09
-3.47343e-10
2.14104e-09
-2.93298e-10
2.10814e-09
-2.43554e-10
2.05066e-09
-1.29348e-10
2.02244e-09
-1.15692e-10
1.94436e-09
-8.69868e-11
1.91305e-09
-1.79249e-10
1.914e-09
-2.53688e-10
1.93474e-09
-3.0935e-10
2.02456e-09
-4.01931e-10
2.18834e-09
-4.93305e-10
2.36809e-09
-5.40898e-10
2.58469e-09
-3.29051e-10
2.8464e-09
-2.77837e-10
3.08829e-09
-2.50929e-10
3.31039e-09
-9.88484e-11
3.46384e-09
1.21165e-10
3.52701e-09
2.44052e-10
3.62458e-09
1.96626e-10
3.70677e-09
1.50892e-10
3.85392e-09
-1.2561e-10
3.98882e-09
-1.21074e-10
4.08038e-09
-2.82168e-10
4.22693e-09
-1.27449e-10
4.24973e-09
-2.6021e-10
4.322e-09
-2.94859e-10
4.38891e-09
-3.56622e-10
4.42856e-09
-4.06104e-10
4.40434e-09
-4.59527e-10
4.40737e-09
-4.56702e-10
4.39582e-09
-3.51299e-10
4.36963e-09
-3.01848e-10
4.39252e-09
-2.98693e-10
4.45111e-09
-2.69393e-10
4.50735e-09
-1.43511e-10
4.27607e-09
-2.12425e-10
4.27568e-09
-2.37567e-11
4.25088e-09
1.17287e-10
4.27415e-09
5.91593e-11
4.25938e-09
-4.31701e-12
4.23964e-09
1.13092e-10
4.26623e-09
-5.00415e-11
4.24932e-09
9.00376e-11
4.22593e-09
1.79178e-10
4.23772e-09
3.8849e-10
4.15142e-09
5.62641e-10
4.00164e-09
7.80512e-10
3.79323e-09
1.07381e-09
3.73848e-09
8.63587e-10
3.57891e-09
1.29147e-09
3.26431e-09
1.60099e-09
2.87469e-09
1.60923e-09
2.6009e-09
1.89416e-09
2.40512e-09
2.05687e-09
2.15764e-09
2.0614e-09
1.65921e-09
1.95514e-09
1.00113e-09
1.90628e-09
6.57345e-10
1.31299e-09
3.8347e-10
9.2829e-10
1.08693e-10
6.72051e-10
-1.09021e-10
5.67485e-10
-2.78036e-10
4.60438e-10
-4.60118e-10
3.42627e-10
-5.73302e-10
1.62427e-10
-6.07484e-10
-1.65873e-11
-6.06329e-10
-2.28731e-10
-5.65135e-10
-3.64613e-10
-5.04433e-10
-4.48045e-10
-3.83933e-10
-5.69086e-10
-2.51018e-10
-6.14749e-10
-9.71082e-11
-6.25967e-10
-3.13119e-11
-6.02814e-10
2.35334e-17
-5.5905e-10
-1.43626e-17
1.16759e-19
-1.6194e-17
-2.1429e-18
-1.69261e-17
-3.11246e-18
-1.68811e-17
-3.61359e-18
-1.64045e-17
-4.00912e-18
-1.56704e-17
-4.388e-18
-1.47636e-17
-4.75082e-18
-1.37321e-17
-5.07811e-18
-1.26096e-17
-5.35001e-18
-1.14246e-17
-5.551e-18
-1.0203e-17
-5.67057e-18
-8.9695e-18
-5.70312e-18
-7.74744e-18
-5.6475e-18
-6.5584e-18
-5.50655e-18
-5.42169e-18
-5.28648e-18
-4.35387e-18
-4.99616e-18
-3.3685e-18
-4.64637e-18
-2.47594e-18
-4.24909e-18
-1.68337e-18
-3.81679e-18
-9.9494e-19
-3.36183e-18
-4.12037e-19
-2.89599e-18
6.64553e-20
-2.43009e-18
4.43785e-19
-1.97376e-18
7.24975e-19
-1.53531e-18
9.1645e-19
-1.12173e-18
1.0257e-18
-7.38676e-19
1.06098e-18
-3.90643e-19
1.03108e-18
-8.10622e-20
9.45106e-19
1.87518e-19
8.12368e-19
4.13272e-19
6.4223e-19
5.94942e-19
4.44055e-19
7.31707e-19
2.27193e-19
8.23075e-19
8.6879e-19
8.83762e-11
-7.41315e-10
1.34852e-10
-8.65087e-10
1.98429e-10
-8.82517e-10
3.18611e-10
-1.03152e-09
8.25135e-10
-1.45462e-09
8.77016e-10
-8.05761e-10
1.22394e-09
-1.6071e-09
1.40152e-09
-1.30467e-09
1.86427e-09
-1.31607e-09
2.04095e-09
-9.98442e-10
2.34457e-09
-1.13768e-09
2.40379e-09
-6.94891e-10
2.44219e-09
-4.38241e-10
2.38215e-09
-2.87303e-10
2.29806e-09
-2.09207e-10
2.19707e-09
-1.42564e-10
2.05524e-09
1.2481e-11
1.99398e-09
-5.44308e-11
1.81352e-09
9.3477e-11
1.81916e-09
-1.84887e-10
1.80184e-09
-2.36368e-10
1.84973e-09
-3.5724e-10
1.92667e-09
-4.78868e-10
2.04777e-09
-6.14414e-10
2.16508e-09
-6.58204e-10
2.36826e-09
-5.32231e-10
2.68462e-09
-5.94192e-10
2.90565e-09
-4.71963e-10
3.13101e-09
-3.24211e-10
3.66603e-09
-4.1385e-10
3.79266e-09
1.17423e-10
3.80729e-09
1.81996e-10
3.9515e-09
6.68413e-12
4.05304e-09
-2.27144e-10
4.2186e-09
-2.86641e-10
4.45516e-09
-5.18721e-10
4.60844e-09
-2.80726e-10
4.70095e-09
-3.52727e-10
4.75615e-09
-3.50055e-10
4.75758e-09
-3.58054e-10
4.73628e-09
-3.84801e-10
4.68459e-09
-4.07838e-10
4.65445e-09
-4.26562e-10
4.65012e-09
-3.46959e-10
4.63508e-09
-2.8681e-10
4.61482e-09
-2.78437e-10
4.56671e-09
-2.21278e-10
4.56669e-09
-1.43492e-10
4.45228e-09
-9.80146e-11
4.4547e-09
-2.6179e-11
4.46794e-09
1.04052e-10
4.47572e-09
5.13759e-11
4.49062e-09
-1.92087e-11
4.50012e-09
1.03588e-10
4.469e-09
-1.89163e-11
4.52834e-09
3.06944e-11
4.32276e-09
3.84762e-10
4.27712e-09
4.34123e-10
4.2055e-09
6.34263e-10
4.09198e-09
8.94037e-10
3.96235e-09
1.20343e-09
3.83651e-09
9.89432e-10
3.70248e-09
1.4255e-09
3.46611e-09
1.83737e-09
3.16173e-09
1.91361e-09
2.96652e-09
2.08937e-09
2.65203e-09
2.37136e-09
2.32973e-09
2.3837e-09
1.91713e-09
2.36774e-09
1.64039e-09
2.18302e-09
1.08835e-09
1.86502e-09
3.58903e-10
1.65774e-09
1.67184e-10
8.6377e-10
4.35536e-11
6.91114e-10
-1.62459e-10
6.66451e-10
-2.46315e-10
4.26483e-10
-3.32401e-10
2.48512e-10
-4.39488e-10
9.04989e-11
-5.15984e-10
-1.52236e-10
-4.44458e-10
-4.36139e-10
-3.69126e-10
-5.23378e-10
-2.84374e-10
-6.53838e-10
-1.9495e-10
-7.04174e-10
-9.5992e-11
-7.24925e-10
-4.04136e-11
-6.58392e-10
-3.13429e-17
-5.99464e-10
-1.66218e-17
1.20053e-19
-1.71636e-17
-1.60146e-18
-1.74272e-17
-2.84926e-18
-1.72766e-17
-3.76457e-18
-1.67834e-17
-4.50266e-18
-1.60332e-17
-5.13835e-18
-1.50909e-17
-5.6932e-18
-1.4004e-17
-6.16485e-18
-1.28106e-17
-6.54301e-18
-1.15442e-17
-6.81689e-18
-1.02355e-17
-6.97847e-18
-8.91388e-18
-7.0239e-18
-7.60649e-18
-6.95392e-18
-6.33834e-18
-6.77375e-18
-5.13137e-18
-6.49254e-18
-4.00408e-18
-6.12259e-18
-2.97122e-18
-5.67844e-18
-2.04364e-18
-5.17591e-18
-1.22841e-18
-4.63125e-18
-5.291e-19
-4.06034e-18
5.38643e-20
-3.47812e-18
5.22786e-19
-2.89814e-18
8.8223e-19
-2.33228e-18
1.13856e-18
-1.79066e-18
1.2995e-18
-1.2816e-18
1.37373e-18
-8.1174e-19
1.37056e-18
-3.86196e-19
1.29966e-18
-8.77536e-21
1.17086e-18
3.17805e-19
9.94038e-19
5.91686e-19
7.78995e-19
8.11666e-19
5.35423e-19
9.77025e-19
2.72908e-19
1.08738e-18
1.14257e-18
2.96227e-11
-7.70938e-10
1.27217e-10
-9.62681e-10
2.28784e-10
-9.84084e-10
2.38768e-10
-1.0415e-09
6.47627e-10
-1.86348e-09
8.64561e-10
-1.0227e-09
1.49433e-09
-2.23687e-09
1.79241e-09
-1.60276e-09
2.13313e-09
-1.65679e-09
2.43763e-09
-1.30294e-09
2.47576e-09
-1.17581e-09
2.60436e-09
-8.23496e-10
2.67065e-09
-5.0453e-10
2.65772e-09
-2.74372e-10
2.64383e-09
-1.9532e-10
2.55159e-09
-5.03206e-11
2.3594e-09
2.04675e-10
2.14699e-09
1.57979e-10
1.9444e-09
2.96063e-10
1.87293e-09
-1.13416e-10
1.84462e-09
-2.08053e-10
1.81319e-09
-3.25812e-10
1.9269e-09
-5.92574e-10
2.00108e-09
-6.88601e-10
2.09868e-09
-7.55803e-10
2.21358e-09
-6.47126e-10
2.50637e-09
-8.86981e-10
2.61324e-09
-5.78833e-10
2.83848e-09
-5.49451e-10
3.49566e-09
-1.07103e-09
3.82807e-09
-2.14986e-10
3.95363e-09
5.64411e-11
4.13564e-09
-1.75325e-10
4.24757e-09
-3.39075e-10
4.42424e-09
-4.63316e-10
4.63025e-09
-7.24722e-10
4.77995e-09
-4.3043e-10
4.87359e-09
-4.46371e-10
4.91078e-09
-3.87244e-10
4.8933e-09
-3.40572e-10
4.85214e-09
-3.43638e-10
4.79875e-09
-3.54442e-10
4.75099e-09
-3.78809e-10
4.72681e-09
-3.22774e-10
4.7044e-09
-2.64396e-10
4.68325e-09
-2.57289e-10
4.63704e-09
-1.75072e-10
4.63117e-09
-1.37619e-10
4.61267e-09
-7.95149e-11
4.59298e-09
-6.48e-12
4.61564e-09
8.13843e-11
4.64361e-09
2.34135e-11
4.63795e-09
-1.35554e-11
4.60505e-09
1.36496e-10
4.56911e-09
1.70181e-11
4.53083e-09
6.89756e-11
4.38564e-09
5.29956e-10
4.22925e-09
5.90512e-10
4.2243e-09
6.39208e-10
4.09146e-09
1.02688e-09
3.96886e-09
1.32603e-09
3.76789e-09
1.19041e-09
3.53987e-09
1.65351e-09
3.45828e-09
1.91896e-09
3.28036e-09
2.09153e-09
3.16716e-09
2.20256e-09
2.99035e-09
2.54817e-09
2.69142e-09
2.68264e-09
2.28848e-09
2.77067e-09
1.94214e-09
2.52936e-09
1.45214e-09
2.35502e-09
1.15401e-09
1.95586e-09
9.42508e-10
1.07528e-09
4.23486e-10
1.21014e-09
3.02892e-11
1.05965e-09
-7.70103e-11
5.33782e-10
-7.88508e-11
2.50353e-10
-1.59487e-10
1.71135e-10
-3.10533e-10
-1.18943e-12
-3.48847e-10
-3.97825e-10
-3.00882e-10
-5.71343e-10
-2.20222e-10
-7.34498e-10
-1.47779e-10
-7.76617e-10
-8.1816e-11
-7.90889e-10
-1.5597e-11
-7.24611e-10
2.27469e-18
-6.1506e-10
-1.83428e-17
5.4713e-20
-1.84114e-17
-1.533e-18
-1.83425e-17
-2.91838e-18
-1.80147e-17
-4.09252e-18
-1.74191e-17
-5.09828e-18
-1.65881e-17
-5.96915e-18
-1.55625e-17
-6.71832e-18
-1.43821e-17
-7.34457e-18
-1.30845e-17
-7.8398e-18
-1.17058e-17
-8.19468e-18
-1.0281e-17
-8.40224e-18
-8.8439e-18
-8.45992e-18
-7.42632e-18
-8.3705e-18
-6.05713e-18
-8.14208e-18
-4.76142e-18
-7.78752e-18
-3.55993e-18
-7.32346e-18
-2.46869e-18
-6.76913e-18
-1.49897e-18
-6.14507e-18
-6.57495e-19
-5.47209e-18
5.3119e-20
-4.77021e-18
6.33844e-19
-4.05799e-18
1.08864e-18
-3.35198e-18
1.42385e-18
-2.66645e-18
1.64762e-18
-2.0133e-18
1.76936e-18
-1.40213e-18
1.79928e-18
-8.40359e-19
1.74798e-18
-3.33542e-19
1.62624e-18
1.1438e-19
1.44474e-18
5.00752e-19
1.21402e-18
8.23903e-19
9.44354e-19
1.08288e-18
6.45779e-19
1.27721e-18
3.28096e-19
1.40675e-18
1.47149e-18
9.04442e-11
-8.61382e-10
1.04525e-10
-9.76762e-10
2.32659e-10
-1.11222e-09
4.45422e-10
-1.25426e-09
9.08144e-10
-2.3262e-09
1.62084e-09
-1.73539e-09
1.7505e-09
-2.36654e-09
1.96629e-09
-1.81855e-09
2.21049e-09
-1.90099e-09
2.39861e-09
-1.49106e-09
2.50939e-09
-1.28658e-09
2.64524e-09
-9.59353e-10
2.68981e-09
-5.49091e-10
2.72171e-09
-3.06278e-10
2.79183e-09
-2.65438e-10
2.85418e-09
-1.1267e-10
2.79486e-09
2.63998e-10
2.67435e-09
2.78481e-10
2.64254e-09
3.27876e-10
2.46133e-09
6.77959e-11
2.34633e-09
-9.30579e-11
2.14172e-09
-1.21201e-10
2.11606e-09
-5.66916e-10
2.07079e-09
-6.4333e-10
2.08304e-09
-7.68048e-10
2.17371e-09
-7.37794e-10
2.45349e-09
-1.16676e-09
2.55131e-09
-6.76659e-10
2.76798e-09
-7.66119e-10
3.32812e-09
-1.63116e-09
3.62634e-09
-5.13212e-10
3.74318e-09
-6.03949e-11
3.97034e-09
-4.02489e-10
4.15656e-09
-5.25287e-10
4.35329e-09
-6.60044e-10
4.47108e-09
-8.4252e-10
4.7142e-09
-6.73545e-10
4.8005e-09
-5.32666e-10
4.832e-09
-4.18748e-10
4.83089e-09
-3.39457e-10
4.81564e-09
-3.28393e-10
4.78479e-09
-3.23593e-10
4.74923e-09
-3.43243e-10
4.75904e-09
-3.32584e-10
4.74217e-09
-2.47528e-10
4.7303e-09
-2.45415e-10
4.72833e-09
-1.731e-10
4.69488e-09
-1.04174e-10
4.67373e-09
-5.83628e-11
4.65259e-09
1.46679e-11
4.69939e-09
3.45831e-11
4.69179e-09
3.1007e-11
4.66295e-09
1.52857e-11
4.57537e-09
2.24082e-10
4.56179e-09
3.06013e-11
4.39921e-09
2.31551e-10
4.27586e-09
6.53304e-10
4.14347e-09
7.22909e-10
4.09355e-09
6.89121e-10
3.92341e-09
1.19703e-09
3.8372e-09
1.41224e-09
3.60993e-09
1.41768e-09
3.45538e-09
1.80806e-09
3.36157e-09
2.01277e-09
3.27802e-09
2.17508e-09
3.085e-09
2.39558e-09
2.98282e-09
2.65035e-09
2.80969e-09
2.85576e-09
2.58876e-09
2.99161e-09
2.2612e-09
2.85692e-09
1.79095e-09
2.82527e-09
1.65213e-09
2.09469e-09
1.02351e-09
1.7039e-09
5.45934e-10
1.68771e-09
4.2753e-10
1.17805e-09
3.97953e-10
5.63359e-10
2.34677e-10
4.13628e-10
5.92444e-11
3.46567e-10
-8.40879e-11
1.42143e-10
-1.53568e-10
-3.28345e-10
-1.49124e-10
-5.75787e-10
-1.65564e-10
-7.18059e-10
-1.23763e-10
-8.18418e-10
-8.90111e-11
-8.25641e-10
-3.66044e-11
-7.77018e-10
2.71473e-17
-6.51665e-10
-1.993e-17
-3.98669e-20
-1.97968e-17
-1.66625e-18
-1.95166e-17
-3.19866e-18
-1.90205e-17
-4.58874e-18
-1.829e-17
-5.82869e-18
-1.73373e-17
-6.92151e-18
-1.61888e-17
-7.8662e-18
-1.48773e-17
-8.65516e-18
-1.34394e-17
-9.27682e-18
-1.19133e-17
-9.71971e-18
-1.03387e-17
-9.97586e-18
-8.75447e-18
-1.00431e-17
-7.1979e-18
-9.92623e-18
-5.70257e-18
-9.63676e-18
-4.29737e-18
-9.19225e-18
-3.0056e-18
-8.61488e-18
-1.84464e-18
-7.92975e-18
-8.25984e-19
-7.16333e-18
4.43847e-20
-6.34191e-18
7.65342e-19
-5.49043e-18
1.33986e-18
-4.63158e-18
1.77417e-18
-3.78522e-18
2.07699e-18
-2.96809e-18
2.2588e-18
-2.19384e-18
2.33113e-18
-1.47312e-18
2.30609e-18
-8.13927e-19
2.19591e-18
-2.21925e-19
2.01261e-18
2.9911e-19
1.76789e-18
7.46889e-19
1.47299e-18
1.12021e-18
1.13869e-18
1.41861e-18
7.75318e-19
1.64207e-18
3.92836e-19
1.79082e-18
1.8651e-18
9.09315e-11
-9.52314e-10
1.72485e-10
-1.05832e-09
4.53281e-10
-1.39302e-09
1.07441e-09
-1.8754e-09
1.23158e-09
-2.48337e-09
1.68556e-09
-2.18936e-09
1.7369e-09
-2.41788e-09
1.88907e-09
-1.97072e-09
2.2067e-09
-2.21862e-09
2.22706e-09
-1.51143e-09
2.47156e-09
-1.53108e-09
2.62341e-09
-1.1112e-09
2.64063e-09
-5.66311e-10
2.70475e-09
-3.70398e-10
2.81732e-09
-3.78001e-10
2.87417e-09
-1.69523e-10
2.86583e-09
2.72339e-10
2.85595e-09
2.8836e-10
2.85039e-09
3.33435e-10
2.70612e-09
2.12065e-10
2.54768e-09
6.53776e-11
2.37827e-09
4.82098e-11
2.31634e-09
-5.0498e-10
2.1888e-09
-5.15792e-10
2.16856e-09
-7.47809e-10
2.23175e-09
-8.00986e-10
2.32133e-09
-1.25633e-09
2.36632e-09
-7.21647e-10
2.79956e-09
-1.19937e-09
3.13478e-09
-1.96638e-09
3.5303e-09
-9.08731e-10
3.70476e-09
-2.34845e-10
3.90238e-09
-6.00113e-10
4.12656e-09
-7.49462e-10
4.42675e-09
-9.60239e-10
4.50278e-09
-9.18543e-10
4.56746e-09
-7.38233e-10
4.63082e-09
-5.96016e-10
4.62972e-09
-4.17649e-10
4.62442e-09
-3.34154e-10
4.6189e-09
-3.22879e-10
4.61882e-09
-3.23511e-10
4.64094e-09
-3.65358e-10
4.68979e-09
-3.81433e-10
4.71927e-09
-2.77012e-10
4.71047e-09
-2.36613e-10
4.69695e-09
-1.59582e-10
4.69716e-09
-1.04376e-10
4.68469e-09
-4.58917e-11
4.65104e-09
4.83174e-11
4.59481e-09
9.08138e-11
4.66167e-09
-3.5854e-11
4.569e-09
1.07956e-10
4.44418e-09
3.48897e-10
4.31046e-09
1.64328e-10
4.10889e-09
4.33115e-10
3.91517e-09
8.47027e-10
3.82179e-09
8.16293e-10
3.57291e-09
9.38004e-10
3.49566e-09
1.27427e-09
3.57806e-09
1.32984e-09
3.42064e-09
1.57511e-09
3.34995e-09
1.87876e-09
3.28998e-09
2.07273e-09
3.21562e-09
2.24944e-09
3.06497e-09
2.54623e-09
2.9543e-09
2.76102e-09
2.78763e-09
3.02243e-09
2.70262e-09
3.07661e-09
2.56262e-09
2.99692e-09
2.34483e-09
3.04305e-09
1.94623e-09
2.49329e-09
1.21753e-09
2.43261e-09
9.23841e-10
1.98139e-09
7.76253e-10
1.32564e-09
5.50569e-10
7.89042e-10
3.13843e-10
6.50354e-10
1.39701e-10
5.2071e-10
4.93639e-11
2.32479e-10
-3.34028e-11
-2.45579e-10
-8.81683e-11
-5.21023e-10
-9.08154e-11
-7.15413e-10
-8.44761e-11
-8.24758e-10
-6.51389e-11
-8.44978e-10
-3.31532e-12
-8.38842e-10
-7.32802e-17
-6.5498e-10
-2.15558e-17
-1.23868e-19
-2.13292e-17
-1.89306e-18
-2.09067e-17
-3.62114e-18
-2.02604e-17
-5.235e-18
-1.93828e-17
-6.70623e-18
-1.8282e-17
-8.02206e-18
-1.69777e-17
-9.16996e-18
-1.5499e-17
-1.01332e-17
-1.38823e-17
-1.08928e-17
-1.21695e-17
-1.14317e-17
-1.04059e-17
-1.17386e-17
-8.63758e-18
-1.18107e-17
-6.90842e-18
-1.16548e-17
-5.25807e-18
-1.12867e-17
-3.71999e-18
-1.07301e-17
-2.32047e-18
-1.00143e-17
-1.07822e-18
-9.17187e-18
-4.56508e-21
-8.23673e-18
8.95863e-19
-7.24187e-18
1.62419e-18
-6.21804e-18
2.18622e-18
-5.19264e-18
2.59129e-18
-4.18913e-18
2.85125e-18
-3.22676e-18
2.97952e-18
-2.32075e-18
2.99033e-18
-1.48252e-18
2.89809e-18
-7.20242e-19
2.71694e-18
-3.92996e-20
2.46039e-18
5.57117e-19
2.14121e-18
1.06748e-18
1.77139e-18
1.49139e-18
1.36215e-18
1.82919e-18
9.24065e-19
2.08156e-18
4.67113e-19
2.24927e-18
2.33293e-18
1.21635e-10
-1.07395e-09
2.66429e-10
-1.20311e-09
5.49187e-10
-1.67577e-09
1.02632e-09
-2.35253e-09
1.15649e-09
-2.61354e-09
1.46724e-09
-2.50012e-09
1.58991e-09
-2.54054e-09
1.49725e-09
-1.87807e-09
1.60514e-09
-2.3265e-09
1.76851e-09
-1.6748e-09
2.03179e-09
-1.79436e-09
2.16346e-09
-1.24286e-09
2.3191e-09
-7.21958e-10
2.4725e-09
-5.238e-10
2.62676e-09
-5.32258e-10
2.66855e-09
-2.11308e-10
2.74203e-09
1.98858e-10
2.73872e-09
2.91666e-10
2.71464e-09
3.57516e-10
2.59464e-09
3.3207e-10
2.50562e-09
1.54395e-10
2.40107e-09
1.52757e-10
2.27326e-09
-3.77166e-10
2.12963e-09
-3.7216e-10
2.09055e-09
-7.08735e-10
2.1009e-09
-8.11332e-10
2.18819e-09
-1.34362e-09
2.35042e-09
-8.83874e-10
2.7284e-09
-1.57734e-09
2.68988e-09
-1.92787e-09
3.33641e-09
-1.55526e-09
3.80584e-09
-7.04267e-10
4.00492e-09
-7.99197e-10
4.15581e-09
-9.00349e-10
4.27683e-09
-1.08126e-09
4.46812e-09
-1.10983e-09
4.52199e-09
-7.92102e-10
4.5444e-09
-6.18423e-10
4.47653e-09
-3.49779e-10
4.45502e-09
-3.1265e-10
4.44173e-09
-3.09583e-10
4.46001e-09
-3.41795e-10
4.51396e-09
-4.19304e-10
4.53309e-09
-4.00562e-10
4.584e-09
-3.2792e-10
4.56705e-09
-2.19659e-10
4.51053e-09
-1.03068e-10
4.51639e-09
-1.10235e-10
4.42991e-09
4.0594e-11
4.38323e-09
9.4992e-11
4.27816e-09
1.95893e-10
4.13161e-09
1.10696e-10
4.11683e-09
1.22735e-10
3.95625e-09
5.09479e-10
3.67636e-09
4.44214e-10
3.53661e-09
5.72861e-10
3.44519e-09
9.38452e-10
3.32366e-09
9.37824e-10
3.21805e-09
1.04362e-09
3.22505e-09
1.26727e-09
3.17879e-09
1.3761e-09
3.0084e-09
1.7455e-09
2.92814e-09
1.95901e-09
2.90859e-09
2.09229e-09
2.85557e-09
2.30246e-09
2.7831e-09
2.6187e-09
2.73778e-09
2.80635e-09
2.67055e-09
3.08966e-09
2.59546e-09
3.1517e-09
2.43744e-09
3.15494e-09
2.34034e-09
3.14016e-09
1.96115e-09
2.87248e-09
1.93327e-09
2.4605e-09
1.80961e-09
2.10505e-09
1.62547e-09
1.50978e-09
1.20599e-09
1.20852e-09
5.52911e-10
1.30344e-09
1.96156e-10
8.77464e-10
9.57822e-11
3.32852e-10
6.85021e-11
-2.183e-10
3.0018e-11
-4.82539e-10
-5.18677e-12
-6.80208e-10
-1.52581e-11
-8.14687e-10
-2.42869e-11
-8.35949e-10
6.31559e-11
-9.26284e-10
-2.84792e-16
-5.91824e-10
-2.33245e-17
-7.99979e-20
-2.30573e-17
-2.16059e-18
-2.25206e-17
-4.15754e-18
-2.17317e-17
-6.02368e-18
-2.06986e-17
-7.7391e-18
-1.94299e-17
-9.29065e-18
-1.7941e-17
-1.06586e-17
-1.62586e-17
-1.18152e-17
-1.44212e-17
-1.273e-17
-1.24764e-17
-1.33761e-17
-1.0478e-17
-1.37365e-17
-8.48165e-18
-1.38067e-17
-6.54034e-18
-1.35958e-17
-4.70146e-18
-1.31254e-17
-3.00415e-18
-1.24274e-17
-1.47807e-18
-1.15404e-17
-1.43071e-19
-1.05069e-17
9.90295e-19
-9.36993e-18
1.91969e-18
-8.17085e-18
2.64959e-18
-6.94724e-18
3.18974e-18
-5.73182e-18
3.55366e-18
-4.55186e-18
3.75726e-18
-3.42905e-18
3.81774e-18
-2.37983e-18
3.75261e-18
-1.41596e-18
3.57904e-18