/*--------------------------------*- C++ -*----------------------------------*\
  =========                 |
  \\      /  F ield         | OpenFOAM: The Open Source CFD Toolbox
   \\    /   O peration     | Website:  https://openfoam.org
    \\  /    A nd           | Version:  6
     \\/     M anipulation  |
\*---------------------------------------------------------------------------*/
FoamFile
{
    version     2.0;
    format      ascii;
    class       volScalarField;
    location    "4500";
    object      T;
}
// * * * * * * * * * * * * * * * * * * * * * * * * * * * * * * * * * * * * * //

dimensions      [0 0 0 1 0 0 0];

internalField   nonuniform List<scalar> 
4800
(
552.521
552.463
552.405
552.348
552.29
552.233
552.177
552.12
552.063
552.006
551.949
551.891
551.832
551.772
551.712
551.65
551.586
551.522
551.456
551.389
551.321
551.252
551.181
551.11
551.037
550.964
550.889
550.813
550.736
550.66
550.583
550.507
550.431
550.357
550.284
550.212
550.143
550.074
550.008
549.944
549.882
549.821
549.762
549.705
549.649
549.594
549.541
549.489
549.438
549.388
549.34
549.292
549.244
549.198
549.151
549.103
549.054
549.003
548.947
548.887
548.819
548.743
548.655
548.555
548.442
548.313
548.17
548.014
547.848
547.674
547.493
547.308
547.12
546.929
546.739
546.55
546.362
546.178
545.996
545.819
545.644
545.472
545.303
545.134
544.965
544.794
544.619
544.504
544.384
544.262
544.137
544.012
543.887
543.761
543.636
543.511
543.387
543.263
543.139
543.016
542.894
542.772
542.65
542.528
542.407
542.287
542.166
542.046
541.925
541.805
541.685
541.565
541.446
541.326
541.207
541.087
540.968
540.848
540.729
540.61
552.521
552.462
552.404
552.346
552.288
552.231
552.174
552.117
552.06
552.002
551.945
551.886
551.827
551.767
551.706
551.644
551.58
551.515
551.448
551.38
551.312
551.242
551.171
551.099
551.027
550.953
550.879
550.804
550.728
550.652
550.575
550.499
550.423
550.349
550.276
550.205
550.135
550.067
550.001
549.937
549.874
549.813
549.754
549.696
549.64
549.585
549.532
549.48
549.429
549.379
549.331
549.283
549.236
549.189
549.143
549.096
549.047
548.996
548.942
548.882
548.816
548.741
548.655
548.558
548.447
548.321
548.181
548.027
547.862
547.687
547.506
547.319
547.13
546.939
546.748
546.558
546.37
546.184
546.002
545.823
545.648
545.476
545.307
545.138
544.97
544.799
544.623
544.508
544.387
544.263
544.138
544.012
543.886
543.76
543.635
543.51
543.386
543.262
543.138
543.015
542.893
542.771
542.649
542.528
542.407
542.286
542.165
542.045
541.925
541.805
541.685
541.565
541.445
541.326
541.206
541.087
540.968
540.848
540.729
540.61
552.52
552.461
552.401
552.342
552.283
552.225
552.167
552.11
552.052
551.995
551.937
551.878
551.818
551.757
551.695
551.632
551.567
551.501
551.433
551.364
551.294
551.223
551.151
551.078
551.005
550.932
550.858
550.783
550.708
550.632
550.556
550.481
550.406
550.332
550.259
550.188
550.118
550.05
549.984
549.919
549.856
549.794
549.735
549.677
549.621
549.566
549.513
549.46
549.41
549.36
549.312
549.265
549.218
549.172
549.126
549.08
549.033
548.983
548.93
548.872
548.808
548.736
548.653
548.559
548.452
548.331
548.194
548.044
547.881
547.708
547.527
547.341
547.15
546.958
546.765
546.573
546.382
546.195
546.011
545.832
545.656
545.483
545.314
545.146
544.979
544.81
544.634
544.517
544.393
544.266
544.139
544.012
543.885
543.759
543.633
543.508
543.384
543.26
543.136
543.014
542.891
542.769
542.648
542.526
542.405
542.285
542.164
542.044
541.924
541.804
541.684
541.564
541.445
541.325
541.206
541.087
540.967
540.848
540.729
540.61
552.519
552.458
552.397
552.337
552.277
552.217
552.158
552.1
552.042
551.983
551.925
551.865
551.805
551.743
551.68
551.615
551.549
551.481
551.412
551.341
551.269
551.196
551.122
551.048
550.973
550.899
550.824
550.75
550.675
550.6
550.525
550.45
550.375
550.301
550.229
550.158
550.089
550.021
549.955
549.89
549.826
549.765
549.705
549.646
549.59
549.535
549.482
549.43
549.379
549.33
549.283
549.236
549.19
549.145
549.1
549.055
549.01
548.962
548.911
548.856
548.795
548.725
548.647
548.557
548.455
548.338
548.207
548.062
547.903
547.732
547.552
547.366
547.175
546.981
546.786
546.592
546.399
546.21
546.024
545.842
545.665
545.492
545.322
545.155
544.99
544.828
544.671
544.533
544.4
544.27
544.14
544.012
543.884
543.757
543.631
543.506
543.381
543.257
543.134
543.011
542.889
542.767
542.645
542.524
542.403
542.283
542.162
542.042
541.922
541.803
541.683
541.563
541.444
541.325
541.205
541.086
540.967
540.848
540.729
540.61
552.518
552.455
552.392
552.33
552.268
552.207
552.147
552.087
552.028
551.969
551.909
551.849
551.787
551.725
551.66
551.594
551.527
551.457
551.385
551.312
551.237
551.161
551.085
551.008
550.931
550.854
550.778
550.703
550.628
550.553
550.479
550.404
550.33
550.257
550.184
550.114
550.045
549.978
549.911
549.847
549.783
549.721
549.661
549.603
549.546
549.491
549.438
549.387
549.337
549.289
549.242
549.196
549.151
549.108
549.064
549.021
548.978
548.932
548.884
548.832
548.774
548.709
548.635
548.55
548.452
548.341
548.216
548.077
547.923
547.756
547.578
547.392
547.201
547.007
546.81
546.614
546.419
546.227
546.039
545.855
545.675
545.501
545.33
545.163
545
544.841
544.688
544.544
544.406
544.272
544.14
544.01
543.881
543.754
543.627
543.502
543.377
543.253
543.13
543.007
542.885
542.764
542.642
542.521
542.401
542.28
542.16
542.04
541.921
541.801
541.681
541.562
541.443
541.324
541.205
541.085
540.966
540.847
540.728
540.609
552.517
552.451
552.386
552.321
552.257
552.195
552.132
552.071
552.01
551.95
551.889
551.828
551.765
551.702
551.636
551.569
551.5
551.428
551.354
551.278
551.2
551.121
551.04
550.959
550.879
550.799
550.72
550.642
550.565
550.49
550.416
550.342
550.268
550.195
550.123
550.052
549.984
549.918
549.852
549.788
549.725
549.663
549.603
549.545
549.489
549.435
549.382
549.332
549.283
549.236
549.19
549.146
549.102
549.06
549.019
548.977
548.936
548.893
548.848
548.799
548.745
548.683
548.614
548.534
548.443
548.338
548.219
548.086
547.938
547.776
547.602
547.418
547.227
547.032
546.835
546.637
546.44
546.245
546.054
545.868
545.686
545.509
545.337
545.169
545.006
544.848
544.695
544.549
544.408
544.272
544.138
544.007
543.877
543.749
543.622
543.497
543.372
543.248
543.125
543.003
542.881
542.759
542.638
542.518
542.397
542.277
542.157
542.038
541.918
541.799
541.68
541.56
541.441
541.322
541.203
541.085
540.966
540.847
540.728
540.609
552.516
552.447
552.379
552.311
552.245
552.18
552.115
552.052
551.989
551.927
551.864
551.801
551.738
551.673
551.607
551.538
551.468
551.394
551.318
551.239
551.157
551.074
550.988
550.902
550.817
550.732
550.648
550.566
550.486
550.409
550.335
550.262
550.188
550.114
550.042
549.972
549.905
549.84
549.776
549.712
549.65
549.589
549.53
549.472
549.417
549.364
549.313
549.264
549.216
549.171
549.127
549.084
549.042
549.002
548.963
548.924
548.885
548.845
548.803
548.757
548.707
548.649
548.585
548.51
548.425
548.326
548.215
548.088
547.947
547.791
547.622
547.442
547.253
547.058
546.859
546.659
546.461
546.264
546.07
545.88
545.695
545.515
545.341
545.172
545.008
544.849
544.696
544.549
544.406
544.268
544.133
544.001
543.871
543.743
543.616
543.491
543.366
543.242
543.12
542.997
542.876
542.755
542.634
542.513
542.393
542.274
542.154
542.035
541.915
541.796
541.677
541.558
541.44
541.321
541.202
541.084
540.965
540.846
540.728
540.609
552.514
552.442
552.371
552.3
552.231
552.163
552.095
552.028
551.962
551.897
551.833
551.768
551.703
551.637
551.57
551.501
551.429
551.354
551.276
551.194
551.108
551.02
550.929
550.837
550.745
550.653
550.563
550.476
550.391
550.31
550.235
550.162
550.087
550.014
549.943
549.874
549.808
549.744
549.681
549.62
549.559
549.499
549.441
549.385
549.332
549.28
549.231
549.183
549.138
549.094
549.052
549.011
548.972
548.935
548.897
548.861
548.826
548.788
548.749
548.707
548.66
548.607
548.546
548.477
548.397
548.306
548.201
548.081
547.947
547.798
547.635
547.46
547.274
547.079
546.881
546.681
546.48
546.28
546.083
545.89
545.701
545.519
545.342
545.17
545.005
544.845
544.691
544.543
544.4
544.261
544.126
543.994
543.863
543.735
543.608
543.483
543.359
543.235
543.113
542.991
542.87
542.749
542.628
542.508
542.389
542.269
542.15
542.031
541.912
541.793
541.675
541.556
541.438
541.319
541.201
541.082
540.964
540.846
540.727
540.609
552.512
552.437
552.362
552.288
552.215
552.142
552.071
552
551.93
551.862
551.794
551.728
551.661
551.594
551.525
551.454
551.381
551.305
551.224
551.139
551.05
550.957
550.86
550.761
550.661
550.562
550.464
550.371
550.28
550.193
550.116
550.043
549.968
549.895
549.825
549.757
549.693
549.631
549.571
549.511
549.452
549.394
549.338
549.284
549.232
549.183
549.136
549.091
549.048
549.007
548.967
548.929
548.893
548.858
548.823
548.79
548.757
548.723
548.686
548.647
548.604
548.555
548.499
548.435
548.361
548.275
548.177
548.065
547.938
547.796
547.639
547.469
547.287
547.095
546.898
546.697
546.494
546.291
546.091
545.895
545.704
545.518
545.338
545.164
544.996
544.835
544.681
544.533
544.39
544.251
544.116
543.984
543.854
543.726
543.599
543.474
543.35
543.227
543.105
542.984
542.863
542.742
542.622
542.503
542.384
542.265
542.146
542.027
541.909
541.79
541.672
541.554
541.435
541.317
541.199
541.081
540.963
540.845
540.727
540.609
552.51
552.431
552.351
552.273
552.195
552.118
552.041
551.966
551.892
551.82
551.749
551.68
551.611
551.541
551.47
551.398
551.323
551.245
551.162
551.074
550.98
550.882
550.779
550.673
550.565
550.457
550.351
550.25
550.152
550.06
549.979
549.905
549.831
549.759
549.689
549.623
549.562
549.502
549.445
549.387
549.331
549.275
549.221
549.169
549.121
549.074
549.03
548.988
548.948
548.909
548.873
548.837
548.804
548.773
548.741
548.711
548.681
548.65
548.616
548.58
548.54
548.495
548.444
548.384
548.315
548.235
548.143
548.038
547.918
547.783
547.633
547.468
547.292
547.105
546.909
546.707
546.502
546.296
546.094
545.896
545.702
545.513
545.33
545.152
544.982
544.82
544.665
544.518
544.375
544.237
544.103
543.971
543.842
543.715
543.589
543.464
543.341
543.218
543.096
542.975
542.855
542.735
542.616
542.497
542.378
542.259
542.141
542.023
541.904
541.787
541.669
541.551
541.433
541.315
541.197
541.08
540.962
540.844
540.727
540.609
552.508
552.424
552.34
552.256
552.172
552.09
552.008
551.928
551.85
551.773
551.698
551.625
551.553
551.481
551.407
551.332
551.255
551.174
551.088
550.997
550.899
550.795
550.685
550.571
550.455
550.338
550.223
550.113
550.008
549.91
549.824
549.748
549.675
549.605
549.538
549.475
549.416
549.359
549.305
549.25
549.196
549.143
549.092
549.044
548.998
548.955
548.914
548.875
548.839
548.804
548.771
548.739
548.709
548.681
548.653
548.626
548.599
548.57
548.54
548.507
548.47
548.428
548.38
548.325
548.26
548.186
548.1
548
547.887
547.758
547.615
547.456
547.284
547.1
546.906
546.704
546.499
546.294
546.091
545.891
545.694
545.502
545.316
545.135
544.961
544.797
544.643
544.497
544.357
544.22
544.088
543.957
543.829
543.702
543.577
543.453
543.33
543.208
543.087
542.966
542.846
542.727
542.608
542.49
542.371
542.253
542.135
542.018
541.9
541.783
541.665
541.548
541.43
541.313
541.195
541.078
540.961
540.843
540.726
540.609
552.505
552.416
552.326
552.237
552.147
552.058
551.971
551.886
551.802
551.722
551.642
551.565
551.489
551.413
551.336
551.258
551.177
551.093
551.003
550.908
550.805
550.696
550.579
550.456
550.33
550.204
550.079
549.959
549.848
549.744
549.654
549.576
549.504
549.436
549.372
549.313
549.257
549.204
549.152
549.101
549.051
549.001
548.954
548.909
548.867
548.828
548.791
548.756
548.723
548.692
548.663
548.635
548.608
548.583
548.559
548.535
548.511
548.485
548.457
548.427
548.392
548.353
548.309
548.257
548.196
548.127
548.046
547.953
547.845
547.723
547.586
547.433
547.266
547.086
546.894
546.695
546.491
546.287
546.083
545.881
545.682
545.487
545.297
545.111
544.933
544.765
544.613
544.471
544.334
544.2
544.07
543.941
543.813
543.688
543.563
543.44
543.318
543.196
543.076
542.956
542.837
542.718
542.6
542.482
542.364
542.247
542.13
542.012
541.895
541.778
541.661
541.544
541.427
541.31
541.193
541.076
540.959
540.842
540.725
540.608
552.502
552.407
552.312
552.216
552.12
552.025
551.932
551.841
551.752
551.666
551.582
551.501
551.42
551.34
551.259
551.177
551.092
551.003
550.909
550.809
550.701
550.584
550.46
550.329
550.194
550.057
549.922
549.792
549.673
549.565
549.472
549.391
549.321
549.256
549.197
549.141
549.09
549.04
548.991
548.944
548.897
548.852
548.809
548.769
548.731
548.696
548.663
548.632
548.604
548.576
548.551
548.526
548.503
548.482
548.46
548.439
548.418
548.394
548.369
548.341
548.309
548.273
548.23
548.182
548.125
548.059
547.983
547.895
547.793
547.677
547.545
547.399
547.238
547.063
546.877
546.682
546.481
546.276
546.071
545.867
545.666
545.469
545.274
545.081
544.894
544.719
544.573
544.439
544.308
544.178
544.05
543.923
543.797
543.672
543.549
543.426
543.305
543.184
543.064
542.945
542.827
542.709
542.591
542.474
542.357
542.24
542.123
542.007
541.89
541.774
541.657
541.541
541.424
541.308
541.191
541.075
540.958
540.841
540.725
540.608
552.499
552.398
552.296
552.193
552.091
551.99
551.891
551.794
551.7
551.608
551.52
551.434
551.349
551.264
551.178
551.091
551.001
550.907
550.807
550.701
550.587
550.464
550.333
550.193
550.048
549.901
549.756
549.618
549.49
549.378
549.282
549.201
549.132
549.072
549.017
548.966
548.918
548.871
548.826
548.782
548.74
548.7
548.662
548.626
548.593
548.562
548.533
548.507
548.482
548.459
548.437
548.416
548.396
548.377
548.359
548.34
548.32
548.299
548.276
548.25
548.22
548.186
548.146
548.099
548.046
547.983
547.911
547.828
547.732
547.621
547.496
547.356
547.202
547.033
546.852
546.66
546.461
546.258
546.053
545.849
545.647
545.447
545.248
545.047
544.844
544.646
544.523
544.403
544.281
544.155
544.03
543.904
543.779
543.655
543.533
543.411
543.291
543.171
543.052
542.934
542.816
542.699
542.582
542.466
542.349
542.233
542.117
542.001
541.885
541.769
541.653
541.537
541.421
541.305
541.189
541.073
540.957
540.84
540.724
540.608
552.496
552.388
552.279
552.17
552.061
551.953
551.848
551.746
551.646
551.549
551.455
551.364
551.275
551.185
551.095
551.002
550.907
550.807
550.701
550.589
550.467
550.337
550.199
550.051
549.897
549.74
549.586
549.439
549.305
549.188
549.089
549.008
548.943
548.887
548.837
548.79
548.746
548.703
548.661
548.621
548.583
548.548
548.514
548.483
548.455
548.428
548.405
548.382
548.361
548.341
548.322
548.305
548.287
548.271
548.254
548.238
548.22
548.201
548.179
548.154
548.125
548.092
548.054
548.01
547.958
547.899
547.831
547.752
547.661
547.557
547.438
547.303
547.154
546.991
546.815
546.629
546.434
546.234
546.031
545.828
545.626
545.426
545.224
545.017
544.791
544.5
544.469
544.372
544.256
544.134
544.009
543.885
543.761
543.638
543.516
543.395
543.276
543.157
543.039
542.921
542.805
542.688
542.572
542.457
542.341
542.225
542.11
541.995
541.879
541.764
541.649
541.533
541.418
541.302
541.186
541.071
540.955
540.839
540.724
540.608
552.493
552.378
552.262
552.146
552.031
551.917
551.805
551.697
551.591
551.489
551.39
551.293
551.199
551.105
551.01
550.912
550.812
550.707
550.595
550.476
550.348
550.211
550.065
549.91
549.749
549.583
549.421
549.268
549.13
549.009
548.907
548.824
548.759
548.707
548.661
548.618
548.577
548.538
548.5
548.464
548.43
548.399
548.371
548.345
548.32
548.299
548.279
548.261
548.243
548.226
548.21
548.194
548.179
548.164
548.149
548.133
548.117
548.098
548.077
548.054
548.026
547.994
547.957
547.914
547.865
547.808
547.742
547.668
547.581
547.482
547.369
547.241
547.099
546.942
546.773
546.593
546.404
546.208
546.007
545.806
545.605
545.406
545.207
545.006
544.803
544.604
544.48
544.361
544.238
544.114
543.989
543.865
543.741
543.619
543.498
543.378
543.26
543.142
543.025
542.908
542.793
542.677
542.562
542.447
542.332
542.218
542.103
541.988
541.873
541.759
541.644
541.529
541.414
541.299
541.184
541.069
540.954
540.838
540.723
540.608
552.489
552.368
552.246
552.123
552.002
551.881
551.763
551.649
551.537
551.429
551.325
551.223
551.123
551.024
550.924
550.822
550.717
550.607
550.49
550.365
550.231
550.088
549.935
549.773
549.606
549.436
549.27
549.113
548.971
548.847
548.742
548.657
548.591
548.539
548.494
548.454
548.416
548.38
548.347
548.315
548.285
548.259
548.235
548.213
548.193
548.175
548.159
548.144
548.129
548.114
548.1
548.086
548.072
548.058
548.043
548.028
548.011
547.993
547.972
547.949
547.922
547.89
547.854
547.812
547.765
547.71
547.648
547.576
547.494
547.4
547.293
547.172
547.036
546.887
546.725
546.552
546.369
546.178
545.982
545.783
545.584
545.387
545.192
544.999
544.81
544.634
544.487
544.353
544.223
544.095
543.969
543.844
543.721
543.6
543.479
543.361
543.243
543.126
543.01
542.895
542.78
542.665
542.551
542.437
542.323
542.209
542.095
541.982
541.867
541.753
541.639
541.525
541.41
541.296
541.181
541.067
540.952
540.837
540.722
540.607
552.486
552.358
552.229
552.1
551.973
551.846
551.723
551.602
551.485
551.371
551.261
551.154
551.049
550.945
550.84
550.734
550.624
550.51
550.389
550.259
550.12
549.971
549.813
549.648
549.478
549.305
549.137
548.978
548.833
548.705
548.597
548.509
548.441
548.388
548.343
548.304
548.268
548.235
548.205
548.177
548.151
548.129
548.108
548.09
548.074
548.059
548.046
548.033
548.021
548.007
547.994
547.98
547.967
547.952
547.938
547.922
547.905
547.885
547.864
547.84
547.813
547.781
547.745
547.704
547.657
547.604
547.544
547.476
547.398
547.31
547.208
547.094
546.966
546.825
546.671
546.505
546.329
546.145
545.954
545.76
545.563
545.368
545.175
544.986
544.805
544.635
544.482
544.34
544.205
544.075
543.947
543.822
543.699
543.579
543.459
543.342
543.225
543.109
542.994
542.88
542.767
542.653
542.54
542.427
542.314
542.201
542.088
541.975
541.861
541.748
541.634
541.521
541.407
541.293
541.179
541.065
540.95
540.836
540.722
540.607
552.483
552.348
552.213
552.077
551.943
551.811
551.682
551.555
551.431
551.312
551.197
551.085
550.976
550.867
550.758
550.648
550.535
550.417
550.292
550.159
550.017
549.866
549.706
549.539
549.368
549.195
549.026
548.866
548.719
548.587
548.474
548.382
548.31
548.256
548.21
548.172
548.137
548.107
548.079
548.054
548.032
548.013
547.996
547.981
547.967
547.954
547.942
547.931
547.919
547.906
547.894
547.879
547.865
547.85
547.834
547.817
547.798
547.777
547.753
547.728
547.7
547.668
547.631
547.59
547.544
547.493
547.435
547.369
547.295
547.211
547.115
547.008
546.887
546.754
546.609
546.452
546.285
546.109
545.925
545.735
545.54
545.346
545.154
544.966
544.787
544.62
544.465
544.321
544.183
544.051
543.923
543.798
543.676
543.556
543.438
543.321
543.206
543.092
542.978
542.865
542.753
542.641
542.529
542.417
542.304
542.192
542.08
541.968
541.855
541.742
541.63
541.516
541.403
541.29
541.176
541.063
540.949
540.835
540.721
540.607
552.479
552.337
552.195
552.054
551.914
551.775
551.64
551.507
551.378
551.253
551.132
551.016
550.902
550.79
550.678
550.564
550.448
550.328
550.202
550.067
549.924
549.772
549.613
549.447
549.277
549.106
548.938
548.778
548.63
548.494
548.376
548.278
548.201
548.143
548.096
548.058
548.024
547.995
547.97
547.948
547.929
547.912
547.897
547.884
547.872
547.861
547.85
547.838
547.826
547.813
547.799
547.784
547.768
547.751
547.733
547.713
547.691
547.668
547.642
547.615
547.585
547.551
547.514
547.472
547.426
547.375
547.319
547.256
547.185
547.105
547.015
546.914
546.801
546.676
546.539
546.392
546.234
546.066
545.89
545.706
545.515
545.321
545.128
544.938
544.757
544.592
544.438
544.294
544.157
544.024
543.896
543.772
543.651
543.532
543.415
543.3
543.186
543.073
542.961
542.85
542.739
542.628
542.517
542.406
542.295
542.184
542.072
541.961
541.849
541.737
541.625
541.512
541.4
541.287
541.174
541.06
540.947
540.834
540.72
540.607
552.475
552.325
552.176
552.028
551.882
551.738
551.597
551.459
551.324
551.194
551.068
550.946
550.828
550.713
550.597
550.481
550.363
550.242
550.115
549.981
549.838
549.687
549.53
549.367
549.201
549.033
548.866
548.707
548.558
548.421
548.299
548.195
548.113
548.051
548.002
547.963
547.931
547.903
547.88
547.859
547.842
547.828
547.815
547.803
547.792
547.78
547.768
547.756
547.743
547.728
547.713
547.695
547.677
547.657
547.635
547.612
547.587
547.56
547.531
547.501
547.468
547.432
547.393
547.351
547.304
547.254
547.199
547.138
547.069
546.992
546.906
546.811
546.704
546.587
546.459
546.32
546.171
546.013
545.846
545.669
545.483
545.291
545.094
544.899
544.712
544.551
544.402
544.261
544.124
543.993
543.866
543.743
543.623
543.506
543.391
543.277
543.165
543.054
542.944
542.834
542.724
542.614
542.505
542.395
542.285
542.175
542.065
541.954
541.843
541.732
541.62
541.508
541.396
541.284
541.171
541.058
540.946
540.833
540.72
540.607
552.469
552.309
552.152
551.997
551.846
551.697
551.552
551.409
551.27
551.134
551.003
550.877
550.754
550.634
550.516
550.397
550.278
550.156
550.03
549.897
549.757
549.61
549.456
549.296
549.133
548.968
548.804
548.646
548.497
548.36
548.236
548.129
548.043
547.977
547.927
547.888
547.856
547.83
547.808
547.789
547.773
547.76
547.747
547.736
547.725
547.713
547.7
547.686
547.67
547.654
547.636
547.615
547.594
547.57
547.545
547.517
547.488
547.456
547.423
547.389
547.353
547.314
547.273
547.229
547.181
547.131
547.076
547.015
546.948
546.872
546.789
546.697
546.595
546.484
546.363
546.233
546.093
545.944
545.787
545.619
545.441
545.252
545.054
544.848
544.639
544.499
544.359
544.221
544.087
543.957
543.832
543.711
543.593
543.478
543.365
543.253
543.143
543.034
542.926
542.817
542.709
542.601
542.493
542.384
542.276
542.167
542.057
541.947
541.837
541.726
541.615
541.504
541.393
541.281
541.169
541.056
540.944
540.832
540.719
540.606
552.463
552.29
552.122
551.96
551.803
551.65
551.501
551.356
551.213
551.073
550.938
550.807
550.68
550.556
550.433
550.312
550.191
550.069
549.944
549.814
549.678
549.536
549.386
549.23
549.07
548.908
548.747
548.59
548.443
548.308
548.185
548.077
547.99
547.922
547.871
547.831
547.8
547.774
547.753
547.735
547.72
547.707
547.696
547.684
547.672
547.658
547.643
547.627
547.609
547.59
547.569
547.546
547.521
547.494
547.465
547.433
547.399
547.363
547.325
547.286
547.245
547.202
547.157
547.11
547.06
547.007
546.951
546.889
546.82
546.743
546.66
546.568
546.468
546.36
546.244
546.12
545.99
545.852
545.707
545.553
545.388
545.209
545.014
544.8
544.561
544.445
544.313
544.178
544.046
543.917
543.794
543.675
543.56
543.447
543.337
543.228
543.12
543.014
542.907
542.801
542.694
542.588
542.481
542.374
542.266
542.158
542.05
541.941
541.831
541.721
541.611
541.5
541.389
541.278
541.166
541.055
540.943
540.831
540.718
540.606
552.455
552.268
552.088
551.916
551.753
551.597
551.446
551.298
551.153
551.011
550.872
550.736
550.605
550.477
550.351
550.227
550.103
549.98
549.857
549.73
549.598
549.461
549.317
549.166
549.009
548.85
548.691
548.537
548.393
548.261
548.141
548.036
547.949
547.882
547.831
547.793
547.762
547.737
547.716
547.698
547.683
547.67
547.659
547.647
547.634
547.618
547.6
547.581
547.559
547.537
547.513
547.487
547.46
547.431
547.399
547.365
547.327
547.288
547.247
547.203
547.156
547.108
547.057
547.003
546.947
546.889
546.829
546.761
546.687
546.604
546.515
546.418
546.312
546.202
546.089
545.973
545.855
545.73
545.601
545.466
545.322
545.162
544.981
544.775
544.527
544.408
544.269
544.132
543.999
543.873
543.752
543.636
543.524
543.415
543.308
543.202
543.097
542.993
542.888
542.784
542.68
542.575
542.469
542.364
542.257
542.15
542.042
541.934
541.826
541.716
541.607
541.497
541.386
541.275
541.164
541.053
540.941
540.83
540.718
540.606
552.447
552.243
552.047
551.863
551.692
551.532
551.38
551.232
551.087
550.943
550.802
550.663
550.528
550.396
550.267
550.14
550.014
549.89
549.766
549.641
549.513
549.38
549.242
549.096
548.944
548.789
548.633
548.483
548.342
548.215
548.101
548.003
547.922
547.859
547.811
547.774
547.744
547.718
547.696
547.678
547.663
547.65
547.639
547.627
547.613
547.595
547.573
547.548
547.522
547.494
547.466
547.438
547.409
547.381
547.351
547.318
547.282
547.245
547.205
547.158
547.106
547.05
546.988
546.922
546.853
546.785
546.715
546.634
546.543
546.45
546.354
546.244
546.119
545.999
545.888
545.781
545.683
545.57
545.46
545.35
545.238
545.12
544.969
544.794
544.596
544.392
544.224
544.081
543.946
543.822
543.705
543.593
543.485
543.38
543.277
543.175
543.073
542.971
542.87
542.768
542.665
542.562
542.458
542.354
542.248
542.142
542.036
541.928
541.82
541.712
541.603
541.493
541.383
541.273
541.162
541.051
540.94
540.829
540.717
540.606
552.436
552.211
551.997
551.799
551.619
551.454
551.301
551.154
551.01
550.866
550.725
550.585
550.446
550.311
550.178
550.049
549.922
549.797
549.673
549.548
549.422
549.294
549.161
549.022
548.876
548.724
548.573
548.427
548.291
548.17
548.066
547.979
547.909
547.854
547.811
547.776
547.746
547.719
547.695
547.675
547.66
547.649
547.64
547.632
547.619
547.597
547.569
547.537
547.501
547.463
547.426
547.391
547.359
547.334
547.312
547.29
547.268
547.247
547.218
547.171
547.114
547.045
546.96
546.87
546.781
546.7
546.615
546.501
546.366
546.271
546.18
546.045
545.875
545.743
545.657
545.542
545.473
545.355
545.261
545.122
545.049
545.088
544.974
544.846
544.611
544.301
544.154
544.02
543.883
543.763
543.652
543.547
543.444
543.344
543.245
543.147
543.048
542.95
542.851
542.751
542.651
542.55
542.447
542.344
542.24
542.135
542.029
541.923
541.815
541.708
541.599
541.49
541.38
541.27
541.16
541.05
540.939
540.828
540.717
540.606
552.425
552.178
551.943
551.728
551.535
551.363
551.208
551.063
550.921
550.779
550.637
550.497
550.357
550.218
550.084
549.955
549.827
549.7
549.575
549.449
549.323
549.196
549.068
548.936
548.798
548.654
548.511
548.373
548.246
548.134
548.041
547.97
547.917
547.873
547.837
547.804
547.771
547.739
547.713
547.691
547.679
547.674
547.673
547.673
547.66
547.624
547.59
547.552
547.501
547.438
547.381
547.324
547.279
547.256
547.251
547.252
547.267
547.289
547.289
547.257
547.199
547.112
546.976
546.86
546.737
546.653
546.55
546.331
546.102
546.061
546.07
545.886
545.688
545.522
545.5
545.323
545.358
545.26
545.201
545.136
545.08
545.068
544.963
544.849
544.633
544.268
544.113
543.926
543.803
543.695
543.594
543.497
543.401
543.307
543.213
543.119
543.024
542.929
542.833
542.736
542.638
542.538
542.438
542.336
542.233
542.129
542.024
541.918
541.811
541.704
541.596
541.487
541.378
541.268
541.159
541.048
540.938
540.827
540.716
540.605
552.413
552.144
551.888
551.654
551.447
551.266
551.106
550.961
550.821
550.679
550.538
550.397
550.258
550.119
549.987
549.862
549.737
549.61
549.481
549.35
549.217
549.084
548.959
548.837
548.706
548.572
548.445
548.319
548.207
548.11
548.033
547.981
547.95
547.919
547.889
547.853
547.808
547.767
547.733
547.709
547.708
547.719
547.736
547.75
547.728
547.679
547.661
547.645
547.576
547.454
547.347
547.235
547.147
547.127
547.161
547.182
547.285
547.397
547.394
547.376
547.367
547.262
546.998
546.937
546.779
546.612
546.495
546.288
546.159
546.057
546.052
545.87
545.727
545.536
545.458
545.333
545.349
545.255
545.198
545.151
545.094
545.041
544.94
544.807
544.416
544.13
544.039
543.875
543.717
543.62
543.532
543.445
543.357
543.269
543.181
543.091
543.001
542.909
542.816
542.722
542.626
542.528
542.429
542.328
542.226
542.123
542.019
541.914
541.807
541.701
541.593
541.485
541.376
541.267
541.157
541.047
540.937
540.827
540.716
540.605
552.401
552.109
551.836
551.588
551.37
551.18
551.012
550.863
550.719
550.573
550.427
550.288
550.148
550.013
549.895
549.786
549.669
549.54
549.405
549.266
549.119
548.969
548.837
548.717
548.579
548.449
548.354
548.246
548.154
548.076
548.028
547.997
547.979
547.941
547.898
547.825
547.752
547.725
547.735
547.75
547.795
547.822
547.879
547.907
547.864
547.817
547.762
547.79
547.781
547.595
547.407
547.188
547.038
547.059
547.202
547.138
547.295
547.559
547.578
547.47
547.394
547.331
547.066
546.877
546.741
546.601
546.529
546.374
546.274
546.135
546.044
545.884
545.761
545.595
545.479
545.367
545.33
545.251
545.193
545.134
545.025
544.908
544.827
544.506
544.261
544.098
543.993
543.846
543.694
543.545
543.468
543.394
543.314
543.232
543.149
543.064
542.978
542.89
542.801
542.709
542.615
542.519
542.421
542.322
542.221
542.118
542.015
541.91
541.804
541.698
541.591
541.483
541.374
541.265
541.156
541.046
540.936
540.826
540.716
540.605
552.388
552.076
551.79
551.534
551.319
551.127
550.956
550.797
550.635
550.465
550.312
550.18
550.028
549.892
549.811
549.73
549.623
549.476
549.332
549.174
549.012
548.847
548.713
548.622
548.464
548.333
548.299
548.237
548.155
548.084
548.032
548.072
548.108
548.115
548.068
547.961
547.81
547.746
547.716
547.669
547.725
547.744
548.009
547.999
547.791
547.772
547.701
547.714
547.727
547.647
547.479
547.256
547.054
547.092
547.272
547.216
547.312
547.518
547.604
547.51
547.383
547.237
547.045
546.863
546.732
546.604
546.513
546.386
546.284
546.16
546.04
545.884
545.759
545.624
545.509
545.399
545.315
545.222
545.154
545.045
544.655
544.474
544.304
544.108
543.969
543.893
543.852
543.786
543.677
543.512
543.412
543.343
543.273
543.197
543.12
543.039
542.957
542.873
542.787
542.698
542.606
542.512
542.415
542.317
542.216
542.114
542.011
541.907
541.802
541.696
541.589
541.481
541.373
541.264
541.155
541.046
540.936
540.826
540.715
540.605
552.371
552.033
551.745
551.487
551.305
551.113
550.963
550.795
550.577
550.318
550.168
550.076
549.851
549.722
549.754
549.73
549.618
549.397
549.279
549.032
548.813
548.72
548.681
548.649
548.463
548.316
548.307
548.229
548.269
548.061
547.892
548.005
548.097
548.269
548.358
548.217
547.816
547.607
547.549
547.502
547.658
547.71
547.906
548.042
547.956
547.991
547.85
547.667
547.569
547.547
547.443
547.383
547.239
547.269
547.36
547.348
547.384
547.46
547.505
547.434
547.321
547.173
547.005
546.866
546.744
546.615
546.505
546.384
546.278
546.166
546.039
545.876
545.736
545.61
545.473
545.36
545.237
545.03
544.817
544.518
544.186
543.986
543.848
543.741
543.681
543.662
543.686
543.69
543.644
543.522
543.348
543.315
543.228
543.163
543.093
543.015
542.936
542.858
542.776
542.69
542.6
542.507
542.411
542.313
542.213
542.112
542.009
541.905
541.8
541.694
541.588
541.48
541.372
541.264
541.154