/*--------------------------------*- C++ -*----------------------------------*\
  =========                 |
  \\      /  F ield         | OpenFOAM: The Open Source CFD Toolbox
   \\    /   O peration     | Website:  https://openfoam.org
    \\  /    A nd           | Version:  6
     \\/     M anipulation  |
\*---------------------------------------------------------------------------*/
FoamFile
{
    version     2.0;
    format      ascii;
    class       volVectorField;
    location    "4500";
    object      U;
}
// * * * * * * * * * * * * * * * * * * * * * * * * * * * * * * * * * * * * * //

dimensions      [0 1 -1 0 0 0 0];

internalField   nonuniform List<vector> 
4800
(
(2.28166e-05 0 -8.91829e-06)
(0.000102162 0 -2.58044e-05)
(0.000166736 0 -8.61564e-05)
(0.000260912 0 -5.69222e-05)
(0.000331275 0 -8.2518e-05)
(0.000403812 0 -6.52857e-05)
(0.000471832 0 -8.42746e-05)
(0.000558757 0 -8.63465e-05)
(0.000664151 0 -5.18771e-05)
(0.000730905 0 -3.30805e-05)
(0.000768924 0 -9.62166e-05)
(0.00084218 0 -3.21818e-05)
(0.000951642 0 1.18709e-05)
(0.00099326 0 -0.000102983)
(0.000996065 0 -7.24688e-05)
(0.00101574 0 -6.05454e-05)
(0.00106697 0 -3.02013e-05)
(0.00111464 0 -3.58786e-05)
(0.00113681 0 -5.74435e-05)
(0.00117506 0 -6.47506e-05)
(0.00123112 0 -6.33828e-05)
(0.00125281 0 -8.58091e-06)
(0.00126049 0 1.28047e-05)
(0.00127149 0 2.01483e-06)
(0.00127307 0 -6.5776e-06)
(0.00125156 0 -2.89256e-05)
(0.0011814 0 -4.57771e-05)
(0.00107989 0 -4.77553e-05)
(0.000983892 0 -9.18852e-05)
(0.000928412 0 -4.21596e-05)
(0.000887047 0 2.83482e-06)
(0.000837635 0 -4.14131e-05)
(0.000794437 0 -5.50687e-06)
(0.000768229 0 -4.39411e-05)
(0.000770977 0 -6.24062e-05)
(0.0007674 0 -8.70135e-05)
(0.000756998 0 -8.79987e-05)
(0.000741693 0 -2.17137e-05)
(0.000778451 0 -2.53358e-05)
(0.000811033 0 -8.94207e-06)
(0.000827218 0 -6.81028e-05)
(0.000884649 0 -0.000104167)
(0.00100432 0 -0.000170401)
(0.00110442 0 -0.000114406)
(0.00109845 0 -0.00010018)
(0.00107616 0 -9.98487e-05)
(0.00109721 0 -4.90375e-05)
(0.00118898 0 1.15318e-05)
(0.00126426 0 -1.44812e-05)
(0.0012615 0 -8.53887e-05)
(0.00126746 0 -5.31598e-05)
(0.00126641 0 -8.15838e-05)
(0.00125863 0 -6.44023e-05)
(0.0012567 0 -7.00251e-05)
(0.00127097 0 -7.63606e-05)
(0.00127754 0 6.88162e-06)
(0.00126829 0 3.76243e-06)
(0.0012449 0 7.98757e-05)
(0.00121819 0 4.46508e-06)
(0.00117403 0 5.28669e-05)
(0.001097 0 0.000122173)
(0.000990629 0 -7.05212e-05)
(0.000847454 0 6.75102e-05)
(0.000688325 0 0.000270767)
(0.000443079 0 -0.000372456)
(0.000297086 0 -0.000113877)
(-9.3664e-05 0 -1.13514e-05)
(-0.000312459 0 -0.000185799)
(-0.000310813 0 -3.97074e-05)
(-0.000378766 0 -6.40404e-05)
(-0.000371653 0 -4.63402e-05)
(-0.00037635 0 -1.90376e-05)
(-0.000408688 0 -1.72929e-05)
(-0.000433293 0 -2.86424e-05)
(-0.000442415 0 -2.63781e-05)
(-0.000443971 0 -2.67063e-05)
(-0.000430504 0 -1.96005e-05)
(-0.000404895 0 -3.27515e-05)
(-0.000371004 0 -5.99684e-05)
(-0.000336931 0 -7.07094e-05)
(-0.000312874 0 -6.54118e-05)
(-0.000279609 0 -3.23585e-05)
(-0.000211948 0 -7.19484e-05)
(-0.000182347 0 -4.53372e-05)
(-0.000156617 0 -6.23949e-05)
(2.6017e-08 0 -0.000153136)
(-6.52337e-11 0 8.26216e-11)
(-3.73028e-12 0 9.2962e-14)
(-7.3396e-12 0 -1.04949e-13)
(-7.06472e-12 0 -1.70046e-13)
(-6.70814e-12 0 -1.86755e-13)
(-6.32944e-12 0 -1.92122e-13)
(-5.94062e-12 0 -1.96853e-13)
(-5.54138e-12 0 -2.02515e-13)
(-5.1307e-12 0 -2.08282e-13)
(-4.7095e-12 0 -2.13044e-13)
(-4.28066e-12 0 -2.15931e-13)
(-3.84849e-12 0 -2.16389e-13)
(-3.41811e-12 0 -2.14128e-13)
(-2.99501e-12 0 -2.09078e-13)
(-2.58467e-12 0 -2.01331e-13)
(-2.19221e-12 0 -1.91106e-13)
(-1.82228e-12 0 -1.78716e-13)
(-1.47879e-12 0 -1.64537e-13)
(-1.16493e-12 0 -1.48982e-13)
(-8.83068e-13 0 -1.32478e-13)
(-6.34718e-13 0 -1.1544e-13)
(-4.20598e-13 0 -9.82636e-14)
(-2.40652e-13 0 -8.13066e-14)
(-9.41275e-14 0 -6.48893e-14)
(2.03377e-14 0 -4.92898e-14)
(1.04626e-13 0 -3.4744e-14)
(1.61053e-13 0 -2.14462e-14)
(1.92285e-13 0 -9.55196e-15)
(2.01266e-13 0 8.18765e-16)
(1.91155e-13 0 9.57629e-15)
(1.65263e-13 0 1.66562e-14)
(1.27002e-13 0 2.2015e-14)
(7.98392e-14 0 2.5629e-14)
(2.72336e-14 0 2.75113e-14)
(-8.37384e-05 0 -0.00011567)
(0.000127141 0 -0.000125966)
(0.000169281 0 -0.0001616)
(0.000275121 0 -9.56445e-05)
(0.000334153 0 -0.000119737)
(0.000404855 0 -0.000101419)
(0.000467757 0 -0.000123925)
(0.000534802 0 -0.000152539)
(0.000621557 0 -0.000100711)
(0.000686193 0 -9.42674e-05)
(0.000739347 0 -0.000115778)
(0.000796808 0 -0.000103642)
(0.000849624 0 -9.48871e-05)
(0.000893745 0 -0.000105088)
(0.000936454 0 -0.000111489)
(0.000989256 0 -6.74733e-05)
(0.00102777 0 -8.47942e-05)
(0.00106493 0 9.2493e-06)
(0.00107285 0 -0.000140344)
(0.00110605 0 -3.50726e-05)
(0.00112867 0 -6.86374e-05)
(0.0011477 0 -6.85135e-05)
(0.00117212 0 -5.1752e-05)
(0.00120361 0 -4.65782e-05)
(0.00123748 0 -9.16855e-06)
(0.00126775 0 7.56438e-05)
(0.00127514 0 0.000129954)
(0.00126717 0 0.000141242)
(0.00123907 0 0.000130637)
(0.00118017 0 8.11075e-05)
(0.0010759 0 5.37235e-05)
(0.00102648 0 6.35488e-05)
(0.00102851 0 4.43829e-05)
(0.00102217 0 1.84667e-05)
(0.000997264 0 1.30552e-05)
(0.00097649 0 0.000105276)
(0.000986219 0 3.24026e-05)
(0.00100359 0 2.56539e-05)
(0.00102899 0 -0.000184237)
(0.00105917 0 0.000124772)
(0.00105106 0 -0.000276528)
(0.00112462 0 -0.000260143)
(0.00117065 0 0.000133472)
(0.00120995 0 -0.000201485)
(0.00123393 0 0.000216008)
(0.001294 0 -1.59096e-05)
(0.0013344 0 -0.00020722)
(0.00137452 0 -0.000146772)
(0.00139621 0 -4.32461e-05)
(0.00140666 0 -4.61535e-05)
(0.00141094 0 7.26423e-05)
(0.00143395 0 2.85456e-05)
(0.00142639 0 -3.61836e-06)
(0.00140174 0 -1.37123e-05)
(0.00137833 0 6.16832e-06)
(0.00136509 0 3.96935e-06)
(0.00135186 0 1.61127e-05)
(0.00132345 0 -5.18529e-06)
(0.00128081 0 4.14476e-05)
(0.00122928 0 8.70179e-05)
(0.00117383 0 5.25235e-05)
(0.00107512 0 0.000249332)
(0.000996161 0 0.000161998)
(0.000913259 0 4.51425e-05)
(0.00075288 0 0.000344626)
(0.000575429 0 0.000397145)
(0.000338707 0 0.000297564)
(0.000202207 0 0.000411044)
(6.79519e-05 0 0.00022629)
(-2.86611e-05 0 0.000108892)
(-0.000290686 0 6.01064e-05)
(-0.000350232 0 4.02551e-05)
(-0.000374183 0 3.23556e-05)
(-0.000376489 0 3.07398e-05)
(-0.000368225 0 2.16072e-05)
(-0.000363679 0 -1.28214e-05)
(-0.000357403 0 -3.21761e-05)
(-0.000346254 0 -5.80311e-05)
(-0.000328852 0 -5.21596e-05)
(-0.000297404 0 -6.41972e-05)
(-0.000271749 0 -5.91833e-05)
(-0.000242965 0 -2.79409e-05)
(-0.000167309 0 -0.000111197)
(-0.000141913 0 -8.36912e-05)
(-9.35928e-05 0 -0.000104609)
(-1.1606e-08 0 -0.000121478)
(-2.71109e-11 0 1.90072e-10)
(-3.92664e-12 0 1.59496e-13)
(-7.60261e-12 0 -4.47741e-13)
(-7.14653e-12 0 -5.5859e-13)
(-6.73021e-12 0 -5.71658e-13)
(-6.33954e-12 0 -5.77051e-13)
(-5.95101e-12 0 -5.89688e-13)
(-5.55281e-12 0 -6.07512e-13)
(-5.14123e-12 0 -6.25934e-13)
(-4.71715e-12 0 -6.41086e-13)
(-4.28401e-12 0 -6.50294e-13)
(-3.84668e-12 0 -6.51926e-13)
(-3.4108e-12 0 -6.45177e-13)
(-2.98222e-12 0 -6.29879e-13)
(-2.5667e-12 0 -6.06362e-13)
(-2.1696e-12 0 -5.75327e-13)
(-1.79571e-12 0 -5.37753e-13)
(-1.44906e-12 0 -4.94799e-13)
(-1.13288e-12 0 -4.47726e-13)
(-8.49526e-13 0 -3.97821e-13)
(-6.00504e-13 0 -3.4634e-13)
(-3.86464e-13 0 -2.94468e-13)
(-2.07277e-13 0 -2.43288e-13)
(-6.21107e-14 0 -1.93764e-13)
(5.0483e-14 0 -1.46731e-13)
(1.3247e-13 0 -1.02894e-13)
(1.86245e-13 0 -6.2832e-14)
(2.1455e-13 0 -2.70054e-14)
(2.20394e-13 0 4.22803e-15)
(2.06992e-13 0 3.05992e-14)
(1.77701e-13 0 5.19115e-14)
(1.35975e-13 0 6.80266e-14)
(8.53355e-14 0 7.88541e-14)
(2.91159e-14 0 8.43539e-14)
(-4.6357e-05 0 -0.000196961)
(0.00010759 0 -0.00019587)
(0.000168633 0 -0.000185656)
(0.000210249 0 -0.000214859)
(0.000304963 0 -0.000164604)
(0.000372089 0 -0.000160847)
(0.000452143 0 -0.00015443)
(0.00051363 0 -0.000211177)
(0.000607008 0 -0.000124438)
(0.000672223 0 -0.000115755)
(0.000724517 0 -0.000166306)
(0.000795443 0 -0.000113496)
(0.000832883 0 -0.000122936)
(0.000862811 0 -0.00013069)
(0.000897137 0 -0.00012983)
(0.000932997 0 -7.92815e-05)
(0.000935163 0 -6.07483e-05)
(0.000940696 0 -5.88576e-05)
(0.000948827 0 -5.46022e-05)
(0.000957497 0 -5.27783e-05)
(0.000975329 0 -7.0905e-05)
(0.00100981 0 -7.41806e-05)
(0.00105916 0 -6.66739e-05)
(0.00111351 0 -4.69585e-05)
(0.0011535 0 -1.50148e-06)
(0.00118769 0 3.20686e-05)
(0.00121955 0 9.53374e-05)
(0.00126335 0 5.04037e-05)
(0.0012937 0 7.37972e-05)
(0.00128401 0 0.000101414)
(0.00124176 0 0.000124934)
(0.00119502 0 9.65782e-05)
(0.00117838 0 6.14848e-05)
(0.00117975 0 5.49886e-05)
(0.00119631 0 -1.75831e-05)
(0.00121456 0 -4.14299e-05)
(0.00120725 0 -4.72896e-05)
(0.00120998 0 -2.2333e-07)
(0.00123662 0 -0.000132827)
(0.00126196 0 -4.44103e-05)
(0.00131703 0 7.25924e-06)
(0.00137865 0 -6.87893e-05)
(0.00137324 0 -0.000139658)
(0.00138962 0 -0.000111013)
(0.00140795 0 -0.00019971)
(0.00150252 0 -0.000129113)
(0.00155493 0 2.53508e-05)
(0.00151128 0 1.81325e-05)
(0.00150293 0 8.43961e-05)
(0.00150272 0 -0.000272897)
(0.00154392 0 -2.69938e-05)
(0.00153837 0 3.031e-05)
(0.00152774 0 3.56047e-05)
(0.00152909 0 3.61199e-05)
(0.00152711 0 2.55713e-05)
(0.00152294 0 2.62368e-05)
(0.00150895 0 6.47625e-05)
(0.00147086 0 0.000120181)
(0.00140327 0 0.00015286)
(0.00132673 0 0.00022137)
(0.00127195 0 0.00023684)
(0.00120892 0 0.000220584)
(0.00111276 0 0.000337488)
(0.00103771 0 0.000377587)
(0.000951209 0 0.000379185)
(0.000784435 0 0.00049646)
(0.000657652 0 0.000481234)
(0.000473931 0 0.000499623)
(0.00034623 0 0.000303985)
(4.29825e-05 0 0.000237896)
(4.02692e-05 0 0.000200456)
(-7.55477e-05 0 0.000122969)
(-0.000198531 0 7.89718e-05)
(-0.000250947 0 3.0946e-05)
(-0.000281751 0 -4.80305e-06)
(-0.000295233 0 2.17528e-05)
(-0.000326144 0 2.07922e-05)
(-0.000337576 0 -4.12031e-06)
(-0.000312758 0 -6.36366e-05)
(-0.000268086 0 -0.000111913)
(-0.000244914 0 -9.20475e-05)
(-0.000215028 0 -7.37292e-05)
(-0.000136974 0 -0.00013835)
(-0.000118534 0 -0.000103756)
(-3.12983e-05 0 -0.000147706)
(-6.09724e-08 0 -0.000180957)
(4.23975e-11 0 3.17111e-10)
(-4.33364e-12 0 -1.94237e-12)
(-8.05769e-12 0 -1.28699e-12)
(-7.18864e-12 0 -1.04497e-12)
(-6.7266e-12 0 -9.64296e-13)
(-6.34747e-12 0 -9.54819e-13)
(-5.97108e-12 0 -9.77441e-13)
(-5.57762e-12 0 -1.01203e-12)
(-5.16428e-12 0 -1.04698e-12)
(-4.73386e-12 0 -1.07518e-12)
(-4.2915e-12 0 -1.09229e-12)
(-3.84337e-12 0 -1.09585e-12)
(-3.39606e-12 0 -1.08471e-12)
(-2.9562e-12 0 -1.05879e-12)
(-2.53011e-12 0 -1.01876e-12)
(-2.12361e-12 0 -9.65922e-13)
(-1.74175e-12 0 -9.02016e-13)
(-1.38876e-12 0 -8.29056e-13)
(-1.06796e-12 0 -7.49209e-13)
(-7.81682e-13 0 -6.64672e-13)
(-5.31366e-13 0 -5.7758e-13)
(-3.17546e-13 0 -4.89939e-13)
(-1.39948e-13 0 -4.03577e-13)
(2.42944e-15 0 -3.20111e-13)
(1.11207e-13 0 -2.40935e-13)
(1.88526e-13 0 -1.67217e-13)
(2.36942e-13 0 -9.99063e-14)
(2.59345e-13 0 -3.97594e-14)
(2.5887e-13 0 1.26397e-14)
(2.38838e-13 0 5.68509e-14)
(2.0269e-13 0 9.25515e-14)
(1.53945e-13 0 1.19512e-13)
(9.61665e-14 0 1.37572e-13)
(3.27333e-14 0 1.46621e-13)
(4.2912e-05 0 -0.000227746)
(5.28409e-05 0 -0.000252386)
(9.67218e-05 0 -0.000269413)
(0.000170152 0 -0.000272115)
(0.000240579 0 -0.000286812)
(0.000334689 0 -0.000249606)
(0.000380344 0 -0.000312542)
(0.000479876 0 -0.000328088)
(0.000575464 0 -0.000292862)
(0.000669512 0 -0.000186327)
(0.00069682 0 -0.000329437)
(0.000805556 0 -0.000131052)
(0.000827679 0 -0.000165645)
(0.000864228 0 -0.000143799)
(0.000869434 0 -0.000126438)
(0.000860354 0 -0.000124516)
(0.00085071 0 -9.42129e-05)
(0.000850845 0 -6.99225e-05)
(0.000848949 0 -9.09229e-05)
(0.000850627 0 -9.39775e-05)
(0.000860909 0 -8.39934e-05)
(0.000875267 0 -9.82742e-05)
(0.000902347 0 -9.25327e-05)
(0.000949294 0 -9.62479e-05)
(0.00101777 0 -0.000133025)
(0.00111036 0 -7.67174e-05)
(0.00118022 0 -2.41883e-05)
(0.00122962 0 2.81521e-05)
(0.00126751 0 0.000164484)
(0.00132476 0 0.000166156)
(0.00136887 0 9.45128e-05)
(0.00136682 0 9.84714e-05)
(0.00134806 0 6.02768e-05)
(0.00133819 0 -1.23093e-05)
(0.00135597 0 3.47639e-05)
(0.00141897 0 -0.000116152)
(0.00145404 0 0.000153067)
(0.00145988 0 -0.00014252)
(0.00148167 0 -7.54458e-05)
(0.0015006 0 -0.000101029)
(0.00152258 0 -0.000177945)
(0.00157174 0 -0.000237127)
(0.00160177 0 -0.000182261)
(0.0016082 0 -0.000151529)
(0.00162414 0 -0.000103889)
(0.00163755 0 -5.51697e-05)
(0.00163062 0 -9.73692e-05)
(0.00163697 0 -7.44563e-05)
(0.00162645 0 -0.000374098)
(0.00166999 0 7.06667e-05)
(0.00165894 0 9.66871e-05)
(0.00160962 0 7.03692e-05)
(0.00159727 0 -3.40019e-05)
(0.0016043 0 -4.22308e-06)
(0.00160143 0 3.04535e-05)
(0.00160379 0 5.01791e-05)
(0.00161098 0 9.48507e-05)
(0.0016011 0 0.000116989)
(0.00155798 0 0.000129612)
(0.00149331 0 0.000191809)
(0.00142 0 0.000294991)
(0.00135137 0 0.000316104)
(0.00128003 0 0.000360394)
(0.00121525 0 0.000393686)
(0.00110903 0 0.000421207)
(0.000911447 0 0.000583836)
(0.000795926 0 0.000692298)
(0.000711518 0 0.000666356)
(0.000551091 0 0.000550059)
(0.000278658 0 0.000398168)
(0.000137147 0 0.000295242)
(3.5533e-05 0 0.000209898)
(-8.13162e-05 0 0.000165911)
(-4.9394e-05 0 0.000134915)
(-0.000157154 0 8.0704e-05)
(-0.00026062 0 9.85373e-06)
(-0.000281202 0 -2.99082e-06)
(-0.000283258 0 -1.82309e-05)
(-0.000275898 0 -6.98826e-05)
(-0.00026329 0 -0.000108272)
(-0.000235566 0 -0.000147853)
(-0.000181204 0 -0.000175117)
(-0.00012434 0 -0.000177064)
(-0.0001221 0 -0.000154227)
(-1.05317e-05 0 -0.000202941)
(-5.22514e-08 0 -0.000207166)
(-2.03547e-12 0 6.47429e-14)
(-5.31542e-12 0 -2.80368e-12)
(-6.70521e-12 0 -1.71297e-12)
(-6.82383e-12 0 -1.37001e-12)
(-6.64006e-12 0 -1.28576e-12)
(-6.35269e-12 0 -1.30054e-12)
(-6.00823e-12 0 -1.35328e-12)
(-5.62234e-12 0 -1.41626e-12)
(-5.20437e-12 0 -1.47478e-12)
(-4.76247e-12 0 -1.52032e-12)
(-4.30468e-12 0 -1.54777e-12)
(-3.83911e-12 0 -1.55434e-12)
(-3.37373e-12 0 -1.5389e-12)
(-2.91626e-12 0 -1.50167e-12)
(-2.47383e-12 0 -1.44387e-12)
(-2.05286e-12 0 -1.36757e-12)
(-1.65884e-12 0 -1.27538e-12)
(-1.29625e-12 0 -1.1703e-12)
(-9.68491e-13 0 -1.0555e-12)
(-6.77897e-13 0 -9.34202e-13)
(-4.25771e-13 0 -8.09483e-13)
(-2.12461e-13 0 -6.84232e-13)
(-3.74494e-14 0 -5.61054e-13)
(1.00531e-13 0 -4.42236e-13)
(2.03377e-13 0 -3.29731e-13)
(2.73499e-13 0 -2.25158e-13)
(3.13703e-13 0 -1.29827e-13)
(3.27096e-13 0 -4.47647e-14)
(3.17004e-13 0 2.92401e-14)
(2.86904e-13 0 9.16016e-14)
(2.40362e-13 0 1.41897e-13)
(1.80995e-13 0 1.79831e-13)
(1.12445e-13 0 2.05209e-13)
(3.81649e-14 0 2.17914e-13)
(-7.33783e-05 0 -0.000258437)
(8.68583e-05 0 -0.000282043)
(0.000133692 0 -0.000294945)
(0.000169909 0 -0.000328347)
(0.000277094 0 -0.000301603)
(0.000321823 0 -0.000315189)
(0.000375273 0 -0.00039258)
(0.000571451 0 -0.000274641)
(0.000624726 0 -0.000353205)
(0.000711062 0 -0.000255723)
(0.000794498 0 -0.000157627)
(0.000816214 0 -0.000336836)
(0.000885735 0 -0.000153472)
(0.000880086 0 -0.000133094)
(0.000864816 0 -0.000125288)
(0.000849039 0 -0.000107668)
(0.000831208 0 -6.74881e-05)
(0.000816345 0 -4.70636e-05)
(0.000800934 0 -3.62955e-05)
(0.000771752 0 -6.09075e-05)
(0.000758788 0 -0.000108462)
(0.000765018 0 -0.000133257)
(0.000792367 0 -0.000162842)
(0.000844608 0 -0.00016406)
(0.000907625 0 -0.000169185)
(0.000989685 0 -4.04342e-05)
(0.00108288 0 -4.42568e-05)
(0.00119218 0 -8.03889e-05)
(0.00128786 0 -5.69648e-05)
(0.00135291 0 0.000108112)
(0.00140761 0 0.000208191)
(0.00144248 0 0.000159294)
(0.00146773 0 0.000115064)
(0.00151417 0 -1.12914e-05)
(0.00156646 0 -3.65045e-05)
(0.00164007 0 8.4798e-06)
(0.00168336 0 -0.000165709)
(0.00172206 0 -5.95329e-05)
(0.00172293 0 -8.61557e-05)
(0.00173169 0 -0.000128676)
(0.00176651 0 -0.000134434)
(0.00177605 0 -0.000166574)
(0.00176599 0 -0.000172737)
(0.00175817 0 -0.000149119)
(0.00175116 0 -0.00015036)
(0.00174934 0 -0.000170056)
(0.00176847 0 -0.000125105)
(0.00179066 0 -4.35673e-05)
(0.00177164 0 -2.08995e-05)
(0.00171344 0 -1.81789e-06)
(0.00170204 0 -8.39364e-06)
(0.00170256 0 -3.00187e-05)
(0.0017028 0 2.6838e-06)
(0.00170149 0 6.56008e-05)
(0.00169965 0 -9.74372e-05)
(0.00170631 0 -2.57519e-05)
(0.00170221 0 2.49881e-05)
(0.0016865 0 0.000196742)
(0.00168223 0 0.000203234)
(0.00164572 0 0.000272286)
(0.00156454 0 0.000368411)
(0.00150224 0 0.000270571)
(0.00139681 0 0.000463054)
(0.0013461 0 0.000522604)
(0.00127601 0 0.000505708)
(0.00101305 0 0.00071331)
(0.000965689 0 0.000766566)
(0.000931243 0 0.000753665)
(0.000865535 0 0.000632957)
(0.000448098 0 0.000642516)
(0.000269268 0 0.000495397)
(0.000237086 0 0.000302222)
(8.55882e-05 0 0.000181383)
(-3.91969e-05 0 0.000178164)
(-6.66125e-05 0 0.000153435)
(-0.000153352 0 0.000108496)
(-0.000228458 0 2.42726e-05)
(-0.000251203 0 -4.79586e-05)
(-0.000235139 0 -0.000131194)
(-0.000222624 0 -0.000154477)
(-0.000216636 0 -0.000162491)
(-0.000179384 0 -0.000196084)
(-0.000114673 0 -0.000224672)
(-7.40513e-05 0 -0.000231139)
(3.70271e-06 0 -0.000229304)
(-2.33943e-08 0 -0.000221793)
(-2.86549e-12 0 5.04736e-14)
(-6.1112e-12 0 -1.22335e-12)
(-6.62402e-12 0 -1.39126e-12)
(-6.76143e-12 0 -1.4363e-12)
(-6.65713e-12 0 -1.50819e-12)
(-6.41499e-12 0 -1.60825e-12)
(-6.0868e-12 0 -1.71884e-12)
(-5.69913e-12 0 -1.82484e-12)
(-5.26834e-12 0 -1.91546e-12)
(-4.80685e-12 0 -1.98339e-12)
(-4.32552e-12 0 -2.02396e-12)
(-3.8345e-12 0 -2.03465e-12)
(-3.34339e-12 0 -2.01474e-12)
(-2.86117e-12 0 -1.96499e-12)
(-2.39602e-12 0 -1.88744e-12)
(-1.95511e-12 0 -1.7851e-12)
(-1.54448e-12 0 -1.66167e-12)
(-1.16889e-12 0 -1.52132e-12)
(-8.31861e-13 0 -1.3684e-12)
(-5.35661e-13 0 -1.20724e-12)
(-2.81395e-13 0 -1.042e-12)
(-6.91163e-14 0 -8.76515e-13)
(1.02048e-13 0 -7.1421e-13)
(2.33752e-13 0 -5.58062e-13)
(3.28285e-13 0 -4.10582e-13)
(3.8843e-13 0 -2.73827e-13)
(4.17336e-13 0 -1.49435e-13)
(4.18411e-13 0 -3.86712e-14)
(3.95237e-13 0 5.75133e-14)
(3.51495e-13 0 1.38428e-13)
(2.90919e-13 0 2.03589e-13)
(2.17257e-13 0 2.52673e-13)
(1.3425e-13 0 2.85477e-13)
(4.54385e-14 0 3.01894e-13)
(2.38022e-05 0 -0.000282142)
(5.33775e-05 0 -0.000333032)
(7.48069e-05 0 -0.000349704)
(7.99681e-05 0 -0.000411421)
(0.000196969 0 -0.000436653)
(0.000441778 0 -0.000235816)
(0.000354018 0 -0.000519618)
(0.000436642 0 -0.000626865)
(0.000734685 0 -0.000327043)
(0.000782687 0 -0.000352042)
(0.00081287 0 -0.000492839)
(0.000973327 0 -0.000218355)
(0.000983766 0 -0.000155663)
(0.000971571 0 -0.000133438)
(0.000933876 0 -9.56203e-05)
(0.000889225 0 -6.17558e-05)
(0.000848546 0 -2.37226e-05)
(0.000814669 0 -3.14638e-05)
(0.000772222 0 -3.32793e-05)
(0.000720553 0 -7.23051e-05)
(0.000716922 0 -9.49357e-05)
(0.0007288 0 -0.000120635)
(0.000761295 0 -0.00015165)
(0.000794049 0 -0.000213037)
(0.000835663 0 -0.000240263)
(0.000901293 0 -0.000194145)
(0.000990743 0 -0.000182499)
(0.00110926 0 -0.000143043)
(0.00121172 0 -6.64747e-05)
(0.00133213 0 -4.20328e-05)
(0.0015055 0 -3.40191e-05)
(0.00155314 0 3.94678e-05)
(0.00155131 0 3.60325e-05)
(0.00158652 0 -7.06824e-05)
(0.00166074 0 -3.57777e-05)
(0.0017371 0 -0.000211202)
(0.00185126 0 2.42356e-05)
(0.00189968 0 -0.000106105)
(0.00189657 0 -0.000135764)
(0.00190171 0 -0.000150017)
(0.00190085 0 -0.000174327)
(0.00188843 0 -0.000195469)
(0.00186451 0 -0.000199965)
(0.00185382 0 -0.000149507)
(0.00185532 0 -0.000106502)
(0.00185265 0 -8.93556e-05)
(0.00183954 0 -7.86183e-05)
(0.00182269 0 -2.71079e-05)
(0.00180419 0 -7.98319e-05)
(0.00178171 0 -3.18352e-05)
(0.00177887 0 7.20159e-05)
(0.00178622 0 3.36224e-05)
(0.00179842 0 -5.35623e-05)
(0.00179966 0 4.71453e-06)
(0.00179418 0 5.14931e-05)
(0.00179832 0 9.72023e-05)
(0.00179011 0 0.000101725)
(0.0017223 0 0.000154651)
(0.00167559 0 0.000274312)
(0.00166431 0 0.000347942)
(0.00161915 0 0.000461267)
(0.00158699 0 0.000367267)
(0.00149166 0 0.000507493)
(0.00138383 0 0.00072958)
(0.00136336 0 0.00069618)
(0.0012214 0 0.000748172)
(0.00104727 0 0.000911097)
(0.00099439 0 0.000916456)
(0.000907644 0 0.000890412)
(0.000661327 0 0.000847055)
(0.000601724 0 0.000582)
(0.000269803 0 0.000527122)
(1.11211e-05 0 0.000374985)
(5.75994e-05 0 0.000246894)
(-4.15735e-05 0 0.000209916)
(-8.46053e-05 0 0.000154781)
(-0.000118338 0 9.44029e-05)
(-0.000186586 0 7.65315e-06)
(-0.000193486 0 -9.99646e-05)
(-0.000171594 0 -0.000175659)
(-0.000162435 0 -0.000209657)
(-0.000119027 0 -0.000255816)
(-9.44406e-05 0 -0.00026797)
(-6.23954e-05 0 -0.000277497)
(-1.89626e-05 0 -0.000249391)
(-2.42966e-08 0 -0.000231421)
(-3.31857e-12 0 4.73624e-14)
(-6.75693e-12 0 -7.48871e-13)
(-6.91816e-12 0 -1.19234e-12)
(-6.94077e-12 0 -1.47563e-12)
(-6.81201e-12 0 -1.70236e-12)
(-6.56333e-12 0 -1.90527e-12)
(-6.22482e-12 0 -2.0888e-12)
(-5.81896e-12 0 -2.24859e-12)
(-5.36292e-12 0 -2.3786e-12)
(-4.87096e-12 0 -2.47358e-12)
(-4.35595e-12 0 -2.52981e-12)
(-3.82989e-12 0 -2.5454e-12)
(-3.30407e-12 0 -2.52028e-12)
(-2.78897e-12 0 -2.45606e-12)
(-2.29394e-12 0 -2.3558e-12)
(-1.82709e-12 0 -2.22375e-12)
(-1.39506e-12 0 -2.06496e-12)
(-1.00297e-12 0 -1.885e-12)
(-6.54409e-13 0 -1.68961e-12)
(-3.51501e-13 0 -1.48443e-12)
(-9.50472e-14 0 -1.27482e-12)
(1.1533e-13 0 -1.06565e-12)
(2.81003e-13 0 -8.61208e-13)
(4.04158e-13 0 -6.65195e-13)
(4.87612e-13 0 -4.80666e-13)
(5.34647e-13 0 -3.10083e-13)
(5.48859e-13 0 -1.55368e-13)
(5.34044e-13 0 -1.79675e-14)
(4.94103e-13 0 1.01065e-13)
(4.32979e-13 0 2.00992e-13)
(3.54607e-13 0 2.81322e-13)
(2.62884e-13 0 3.41747e-13)
(1.61666e-13 0 3.82091e-13)
(5.45816e-14 0 4.02272e-13)
(-2.49478e-05 0 -0.000292819)
(3.32824e-05 0 -0.000370506)
(8.66792e-05 0 -0.000362972)
(0.000150939 0 -0.000389342)
(2.52818e-05 0 -0.000662184)
(0.000497249 0 -0.000400598)
(0.000240638 0 -0.00085483)
(0.000812186 0 -0.000456566)
(0.000742366 0 -0.000639943)
(0.000908619 0 -0.000440449)
(0.000973108 0 -0.000437612)
(0.00103937 0 -0.000274268)
(0.00105723 0 -0.000173185)
(0.00106788 0 -9.14041e-05)
(0.00106184 0 -5.58736e-05)
(0.00104612 0 -3.06212e-05)
(0.000995522 0 6.12547e-05)
(0.000914706 0 -9.86868e-06)
(0.000818519 0 0.000103729)
(0.000742239 0 -0.000100074)
(0.000746764 0 -0.000109374)
(0.000752864 0 -0.000165676)
(0.000754785 0 -0.000228604)
(0.000774068 0 -0.000279038)
(0.000819214 0 -0.000287232)
(0.000877154 0 -0.000226258)
(0.000929938 0 -0.000246119)
(0.00102827 0 -0.000197529)
(0.00112056 0 -0.000185219)
(0.00123632 0 -0.000293773)
(0.00146103 0 8.9391e-05)
(0.00163892 0 2.47989e-05)
(0.0016394 0 -3.58305e-05)
(0.00165945 0 -9.07531e-05)
(0.00171715 0 -0.000179334)
(0.00180473 0 -0.000226386)
(0.00189859 0 -0.00018362)
(0.00195291 0 -0.000174734)
(0.00196193 0 -0.000155934)
(0.00196209 0 -0.000144921)
(0.00195285 0 -0.000146721)
(0.00193278 0 -0.000148168)
(0.0019057 0 -0.00015662)
(0.0018922 0 -0.000125098)
(0.00188643 0 -0.000107617)
(0.00187822 0 -0.000112925)
(0.00186646 0 -9.12897e-05)
(0.00185498 0 -9.8495e-05)
(0.00185397 0 -3.15645e-05)
(0.00184734 0 -6.14145e-06)
(0.00183735 0 1.40563e-05)
(0.00184444 0 1.32494e-05)
(0.00186014 0 3.65401e-05)
(0.00185555 0 7.93169e-05)
(0.00182615 0 -5.00677e-05)
(0.00179679 0 -4.93828e-05)
(0.00176963 0 0.000215439)
(0.00173448 0 0.000138945)
(0.0016726 0 0.000248077)
(0.00165641 0 0.00037007)
(0.00161165 0 0.000492056)
(0.00158738 0 0.000433136)
(0.00144428 0 0.000633905)
(0.00139493 0 0.000747562)
(0.00134145 0 0.000847792)
(0.00130689 0 0.000850621)
(0.00122843 0 0.000888472)
(0.00112558 0 0.000960956)
(0.00100095 0 0.00101279)
(0.000907067 0 0.000925039)
(0.000634742 0 0.000872339)
(0.000476311 0 0.00069285)
(0.000505809 0 0.00030408)
(0.000181631 0 0.000340117)
(6.92627e-05 0 0.000322464)
(-1.84802e-05 0 0.000182553)
(-5.41086e-05 0 0.000106214)
(-4.74542e-05 0 6.38628e-05)
(-0.000116186 0 -3.97903e-05)
(-9.01141e-05 0 -0.000193267)
(-0.000143992 0 -0.000218616)
(-9.15379e-05 0 -0.000286357)
(-6.53793e-05 0 -0.000303867)
(-6.12943e-05 0 -0.000308417)
(-4.82168e-06 0 -0.000277014)
(-4.60736e-08 0 -0.00024096)
(-3.6552e-12 0 3.49532e-14)
(-7.35068e-12 0 -6.26891e-13)
(-7.35078e-12 0 -1.15353e-12)
(-7.27145e-12 0 -1.57142e-12)
(-7.08677e-12 0 -1.92019e-12)
(-6.80144e-12 0 -2.2215e-12)
(-6.43012e-12 0 -2.4823e-12)
(-5.98892e-12 0 -2.70188e-12)
(-5.49332e-12 0 -2.87656e-12)
(-4.95806e-12 0 -3.00231e-12)
(-4.39735e-12 0 -3.07614e-12)
(-3.82497e-12 0 -3.09676e-12)
(-3.25404e-12 0 -3.06488e-12)
(-2.69669e-12 0 -2.98316e-12)
(-2.16371e-12 0 -2.85601e-12)
(-1.66427e-12 0 -2.68921e-12)
(-1.20573e-12 0 -2.48951e-12)
(-7.93532e-13 0 -2.2642e-12)
(-4.31293e-13 0 -2.02067e-12)
(-1.20875e-13 0 -1.76611e-12)
(1.37393e-13 0 -1.50722e-12)
(3.44497e-13 0 -1.25002e-12)
(5.02498e-13 0 -9.99746e-13)
(6.14295e-13 0 -7.60794e-13)
(6.83397e-13 0 -5.36746e-13)
(7.13728e-13 0 -3.3042e-13)
(7.09452e-13 0 -1.43948e-13)
(6.74844e-13 0 2.1121e-14)
(6.14196e-13 0 1.63712e-13)
(5.31752e-13 0 2.83118e-13)
(4.31674e-13 0 3.78908e-13)
(3.18027e-13 0 4.50847e-13)
(1.94775e-13 0 4.98826e-13)
(6.56193e-14 0 5.22812e-13)
(2.74901e-05 0 -0.000313297)
(2.38021e-05 0 -0.000387894)
(7.45343e-05 0 -0.000394739)
(0.000254477 0 -0.000404732)
(-5.02444e-05 0 -0.000888322)
(0.000833782 0 -0.000477056)
(0.0005304 0 -0.000867412)
(0.00077567 0 -0.000733343)
(0.000829831 0 -0.000715194)
(0.000918777 0 -0.000590713)
(0.000988363 0 -0.000477557)
(0.00103778 0 -0.000374967)
(0.00106935 0 -0.00023884)
(0.00108653 0 -0.000129034)
(0.00109442 0 -0.000102232)
(0.00113128 0 -1.0726e-05)
(0.0011372 0 9.11855e-05)
(0.00110965 0 0.000121383)
(0.00103715 0 0.000107734)
(0.00099757 0 -1.65021e-05)
(0.000969249 0 -6.32245e-05)
(0.000924562 0 -8.74562e-05)
(0.000840779 0 -0.000236414)
(0.000836799 0 -0.000270747)
(0.000833302 0 -0.000324207)
(0.000877033 0 -0.000308261)
(0.000879911 0 -0.000486988)
(0.00102095 0 -0.00026614)
(0.00109846 0 -0.000228004)
(0.00114961 0 -0.000501647)
(0.00138961 0 -0.000182798)
(0.00157122 0 6.18056e-05)
(0.00158353 0 -0.00010447)
(0.00160313 0 -0.000173689)
(0.00169544 0 -0.000182337)
(0.00181206 0 -0.000357072)
(0.00190447 0 -0.000211137)
(0.00190779 0 -0.000168504)
(0.00192103 0 -0.000138238)
(0.00193605 0 -0.000120305)
(0.00193307 0 -0.000119998)
(0.00192253 0 -0.000124602)
(0.00190409 0 -0.000134858)
(0.00190057 0 -0.000127087)
(0.00190075 0 -0.000110304)
(0.0018951 0 -0.000108914)
(0.00188939 0 -6.83416e-05)
(0.00188331 0 -3.6145e-05)
(0.00187322 0 -2.90237e-05)
(0.00186269 0 9.14069e-06)
(0.00186548 0 4.48095e-05)
(0.00187781 0 -1.04024e-05)
(0.00187301 0 -4.06613e-05)
(0.00185099 0 3.37589e-05)
(0.00181669 0 3.02393e-05)
(0.00178581 0 3.11647e-05)
(0.00174194 0 0.000192644)
(0.00168241 0 0.000288005)
(0.00165904 0 0.00019292)
(0.00158864 0 0.000439345)
(0.00153308 0 0.000564015)
(0.00152745 0 0.00051169)
(0.00139736 0 0.000706663)
(0.00135697 0 0.000796894)
(0.0013331 0 0.000857909)
(0.00129076 0 0.000945827)
(0.00118702 0 0.00108534)
(0.001164 0 0.00109449)
(0.00109311 0 0.00111272)
(0.0010478 0 0.00103152)
(0.000805102 0 0.00101948)
(0.000630049 0 0.000897348)
(0.00067042 0 0.00051385)
(8.61616e-05 0 0.000590356)
(0.000230779 0 0.000459453)
(0.000177289 0 0.000200329)
(9.14587e-05 0 0.000111611)
(3.83372e-05 0 9.93464e-05)
(-2.29628e-05 0 5.08865e-05)
(-5.20639e-05 0 -0.000145436)
(-7.66027e-06 0 -0.000253451)
(-8.95251e-05 0 -0.000292503)
(-4.34559e-05 0 -0.000324435)
(-5.51635e-05 0 -0.00032776)
(-1.24347e-05 0 -0.00030576)
(-4.90235e-08 0 -0.000254675)
(-3.97222e-12 0 2.96918e-15)
(-7.94519e-12 0 -6.3985e-13)
(-7.86268e-12 0 -1.22341e-12)
(-7.70743e-12 0 -1.73625e-12)
(-7.46209e-12 0 -2.1854e-12)
(-7.12545e-12 0 -2.57813e-12)
(-6.7052e-12 0 -2.9169e-12)
(-6.21322e-12 0 -3.19995e-12)
(-5.66335e-12 0 -3.42333e-12)
(-5.07054e-12 0 -3.58288e-12)
(-4.4504e-12 0 -3.67562e-12)
(-3.81863e-12 0 -3.70061e-12)
(-3.19047e-12 0 -3.65935e-12)
(-2.58009e-12 0 -3.55577e-12)
(-1.99999e-12 0 -3.39595e-12)
(-1.46059e-12 0 -3.18767e-12)
(-9.70047e-13 0 -2.93978e-12)
(-5.34125e-13 0 -2.66168e-12)
(-1.5632e-13 0 -2.3628e-12)
(1.61945e-13 0 -2.05213e-12)
(4.21039e-13 0 -1.73791e-12)
(6.22804e-13 0 -1.42744e-12)
(7.70232e-13 0 -1.12691e-12)
(8.67159e-13 0 -8.41429e-13)
(9.17986e-13 0 -5.7505e-13)
(9.27445e-13 0 -3.30857e-13)
(9.004e-13 0 -1.11093e-13)
(8.41703e-13 0 8.2698e-14)
(7.561e-13 0 2.49528e-13)
(6.48176e-13 0 3.88823e-13)
(5.22336e-13 0 5.00297e-13)
(3.82801e-13 0 5.83857e-13)
(2.33631e-13 0 6.39514e-13)
(7.85672e-14 0 6.67317e-13)
(-3.43168e-05 0 -0.000359919)
(7.73082e-05 0 -0.000396936)
(9.35572e-05 0 -0.000487501)
(0.000348207 0 -0.00059866)
(0.000375097 0 -0.000926031)
(0.000777533 0 -0.000779092)
(0.000518477 0 -0.000975196)
(0.000798722 0 -0.000774066)
(0.00076561 0 -0.000792011)
(0.000912821 0 -0.000621226)
(0.000944126 0 -0.000549426)
(0.00101417 0 -0.000395895)
(0.00106477 0 -0.000213806)
(0.001074 0 -0.000117984)
(0.00108785 0 -0.000106141)
(0.00113858 0 -8.57373e-05)
(0.00116403 0 0.000115096)
(0.00115059 0 0.000112712)
(0.00113063 0 0.000154196)
(0.0011226 0 8.48273e-05)
(0.00107591 0 1.20435e-05)
(0.000991268 0 1.51277e-05)
(0.000904796 0 -0.000221201)
(0.000897796 0 -0.000251947)
(0.0008718 0 -0.000292315)
(0.000892747 0 -0.000275373)
(0.000855786 0 -0.00050396)
(0.000994754 0 -0.000306463)
(0.00106953 0 -0.000340898)
(0.00104903 0 -0.000830608)
(0.00140258 0 -0.000192219)
(0.00151473 0 -2.26647e-05)
(0.00154148 0 -0.000192904)
(0.0015807 0 -0.000231561)
(0.00167509 0 -0.000331178)
(0.00182685 0 -0.00028694)
(0.00183361 0 -0.000270392)
(0.00183353 0 -0.000242966)
(0.00185181 0 -0.00020071)
(0.00185711 0 -0.000154022)
(0.00185046 0 -0.000143416)
(0.00184517 0 -0.000133361)
(0.00184697 0 -0.000135358)
(0.00186331 0 -0.000139748)
(0.00189015 0 -9.0119e-05)
(0.00188892 0 -7.98365e-05)
(0.00188071 0 -5.03076e-05)
(0.00187707 0 -3.25919e-05)
(0.00187561 0 -1.73748e-05)
(0.00187055 0 4.3996e-06)
(0.00185236 0 2.62402e-06)
(0.00184043 0 6.93344e-05)
(0.00184472 0 3.52135e-05)
(0.0018178 0 0.000133829)
(0.00174939 0 6.83951e-06)
(0.00166876 0 0.000180625)
(0.00160334 0 0.000332045)
(0.00155607 0 0.000331984)
(0.00148803 0 0.000365461)
(0.00139725 0 0.000545433)
(0.00140031 0 0.000584433)
(0.0014181 0 0.000595293)
(0.00135217 0 0.000709438)
(0.00132079 0 0.00078017)
(0.00131495 0 0.000839649)
(0.00126496 0 0.000960943)
(0.00121002 0 0.00107312)
(0.00113114 0 0.00119946)
(0.00107544 0 0.00123892)
(0.0011276 0 0.00113009)
(0.000949184 0 0.00114172)
(0.00103779 0 0.000811381)
(0.000520992 0 0.00086859)