/*--------------------------------*- C++ -*----------------------------------*\
  =========                 |
  \\      /  F ield         | OpenFOAM: The Open Source CFD Toolbox
   \\    /   O peration     | Website:  https://openfoam.org
    \\  /    A nd           | Version:  6
     \\/     M anipulation  |
\*---------------------------------------------------------------------------*/
FoamFile
{
    version     2.0;
    format      ascii;
    class       volScalarField;
    location    "4600";
    object      dmdt;
}
// * * * * * * * * * * * * * * * * * * * * * * * * * * * * * * * * * * * * * //

dimensions      [0 0 0 0 0 0 0];

internalField   nonuniform List<scalar> 
4800
(
-0.218777
-0.215148
-0.211523
-0.207905
-0.204298
-0.200706
-0.197131
-0.193576
-0.190045
-0.186549
-0.183107
-0.179745
-0.176493
-0.173375
-0.170401
-0.167581
-0.16493
-0.162462
-0.160188
-0.158105
-0.156202
-0.154458
-0.152852
-0.151362
-0.14997
-0.14866
-0.147419
-0.146236
-0.1451
-0.143999
-0.142923
-0.141861
-0.140799
-0.139723
-0.138625
-0.137493
-0.136318
-0.135095
-0.133817
-0.13248
-0.131077
-0.129603
-0.128062
-0.126463
-0.124816
-0.12313
-0.121413
-0.119673
-0.117911
-0.116128
-0.11432
-0.112481
-0.110599
-0.108666
-0.106675
-0.104621
-0.102503
-0.100318
-0.0980606
-0.0957328
-0.0933339
-0.0908621
-0.088315
-0.0856927
-0.0829956
-0.080219
-0.0773552
-0.0743959
-0.0713337
-0.0681576
-0.0648605
-0.0614324
-0.0578584
-0.0541231
-0.0502089
-0.0461032
-0.041797
-0.0373014
-0.0326415
-0.0278451
-0.0229531
-0.0180162
-0.0131274
-0.00856921
-0.0046304
-0.0010998
0.00221826
0.00544065
0.00862577
0.0117997
0.0149732
0.0181498
0.0213307
0.024516
0.0277056
0.0308993
0.0340971
0.0372992
0.0405055
0.0437162
0.0469313
0.0501508
0.0533747
0.0566028
0.0598352
0.0630715
0.0663115
0.0695552
0.0728022
0.0760522
0.0793051
0.0825605
0.0858181
0.0890778
0.0923391
0.095602
0.098866
0.102131
0.105396
0.108662
-0.218766
-0.215118
-0.211477
-0.20785
-0.20424
-0.200645
-0.197067
-0.193509
-0.189976
-0.186482
-0.183045
-0.179684
-0.176423
-0.17329
-0.170313
-0.167508
-0.164885
-0.162453
-0.160215
-0.158161
-0.156279
-0.15455
-0.152955
-0.151474
-0.15009
-0.148789
-0.147556
-0.14638
-0.14525
-0.144154
-0.143081
-0.142019
-0.140954
-0.139876
-0.138776
-0.137641
-0.136463
-0.135237
-0.133957
-0.132619
-0.131214
-0.129738
-0.128197
-0.126601
-0.124958
-0.123278
-0.121569
-0.119837
-0.118084
-0.116307
-0.114504
-0.112665
-0.110781
-0.108844
-0.106848
-0.104786
-0.102654
-0.100449
-0.0981741
-0.0958275
-0.0934087
-0.0909173
-0.0883526
-0.0857132
-0.082998
-0.0802035
-0.0773225
-0.0743464
-0.0712675
-0.0680786
-0.0647694
-0.0613303
-0.0577473
-0.0540049
-0.0500882
-0.0459833
-0.0416725
-0.0371341
-0.0323789
-0.0274578
-0.0224669
-0.0174961
-0.0125951
-0.00795982
-0.00422532
-0.000886896
0.00231617
0.00548085
0.00863969
0.0118025
0.0149716
0.0181469
0.0213276
0.0245131
0.027703
0.0308971
0.0340954
0.0372978
0.0405044
0.0437154
0.0469307
0.0501504
0.0533745
0.0566028
0.0598352
0.0630715
0.0663117
0.0695554
0.0728024
0.0760524
0.0793053
0.0825607
0.0858183
0.0890779
0.0923393
0.0956021
0.0988661
0.102131
0.105396
0.108662
-0.218751
-0.215078
-0.211419
-0.207778
-0.204155
-0.200548
-0.196957
-0.19339
-0.189854
-0.186361
-0.18293
-0.179578
-0.176328
-0.173208
-0.17025
-0.167475
-0.164894
-0.162509
-0.160315
-0.158298
-0.156444
-0.154737
-0.15316
-0.151694
-0.150324
-0.149035
-0.147815
-0.146652
-0.145533
-0.144447
-0.143383
-0.142324
-0.141259
-0.140178
-0.139071
-0.137929
-0.136744
-0.135512
-0.134227
-0.132883
-0.131472
-0.129995
-0.128459
-0.126871
-0.125239
-0.123573
-0.121881
-0.120166
-0.118428
-0.116663
-0.114867
-0.113028
-0.111139
-0.109194
-0.107184
-0.105102
-0.102945
-0.10071
-0.0984003
-0.0960166
-0.0935584
-0.0910277
-0.0884263
-0.0857524
-0.083003
-0.0801742
-0.0772602
-0.0742546
-0.0711483
-0.0679341
-0.0646021
-0.0611433
-0.0575451
-0.053793
-0.0498745
-0.0457744
-0.041483
-0.0369883
-0.0322899
-0.0274031
-0.0223555
-0.0171512
-0.0117829
-0.00646293
-0.00342919
-0.000538795
0.00245477
0.00553014
0.00865274
0.0118017
0.014966
0.01814
0.0213209
0.0245071
0.0276979
0.0308928
0.0340918
0.037295
0.0405023
0.0437138
0.0469296
0.0501497
0.053374
0.0566026
0.0598352
0.0630717
0.066312
0.0695557
0.0728028
0.0760529
0.0793057
0.0825611
0.0858187
0.0890783
0.0923396
0.0956023
0.0988663
0.102131
0.105397
0.108662
-0.218737
-0.215038
-0.211356
-0.207694
-0.204051
-0.200427
-0.196827
-0.193254
-0.189717
-0.186225
-0.182799
-0.179462
-0.176239
-0.173156
-0.170241
-0.167513
-0.164982
-0.162645
-0.160494
-0.158515
-0.156695
-0.155015
-0.15346
-0.152013
-0.150661
-0.149392
-0.14819
-0.147044
-0.145943
-0.144873
-0.143821
-0.142769
-0.141706
-0.140623
-0.139508
-0.138355
-0.137159
-0.135915
-0.134618
-0.133262
-0.131843
-0.130367
-0.128842
-0.12727
-0.125657
-0.124013
-0.122344
-0.120652
-0.118933
-0.117183
-0.115395
-0.113557
-0.11166
-0.109701
-0.107666
-0.105553
-0.103356
-0.101077
-0.09872
-0.0962847
-0.0937731
-0.0911888
-0.0885344
-0.0858111
-0.0830152
-0.0801423
-0.0771866
-0.0741397
-0.0709946
-0.0677451
-0.0643821
-0.0608949
-0.0572739
-0.0535096
-0.0495922
-0.0455081
-0.0412526
-0.0368182
-0.0321902
-0.0273593
-0.0222994
-0.0169039
-0.0108242
-0.0016733
-0.0024985
-0.000294358
0.00251459
0.00553635
0.00864345
0.0117888
0.0149532
0.0181284
0.0213106
0.0244982
0.0276902
0.0308863
0.0340865
0.0372907
0.0404989
0.0437112
0.0469277
0.0501484
0.0533732
0.0566022
0.0598351
0.0630719
0.0663123
0.0695562
0.0728033
0.0760535
0.0793063
0.0825617
0.0858192
0.0890788
0.09234
0.0956027
0.0988665
0.102131
0.105397
0.108663
-0.218722
-0.214993
-0.211287
-0.207604
-0.203943
-0.200303
-0.19669
-0.193108
-0.189568
-0.186084
-0.182675
-0.179363
-0.176175
-0.173139
-0.170278
-0.167607
-0.165131
-0.162848
-0.160745
-0.158808
-0.157024
-0.155376
-0.153849
-0.152428
-0.151101
-0.149857
-0.148679
-0.147556
-0.146477
-0.145427
-0.144388
-0.143346
-0.142289
-0.141208
-0.140091
-0.138931
-0.137723
-0.136465
-0.135152
-0.133781
-0.132353
-0.13088
-0.129367
-0.127812
-0.126221
-0.124602
-0.122961
-0.121296
-0.119599
-0.117865
-0.116086
-0.114248
-0.11234
-0.110358
-0.108287
-0.106128
-0.103879
-0.101547
-0.0991313
-0.0966333
-0.0940573
-0.091409
-0.0886918
-0.0859068
-0.0830524
-0.0801237
-0.0771152
-0.0740197
-0.0708291
-0.0675367
-0.0641353
-0.0606168
-0.0569733
-0.0531959
-0.0492768
-0.0452077
-0.0409858
-0.0366059
-0.0320556
-0.0273178
-0.0223627
-0.017179
-0.0118089
-0.00655501
-0.00357701
-0.000652674
0.00236715
0.00546351
0.00860176
0.0117616
0.0149334
0.0181125
0.0212973
0.0244866
0.0276802
0.0308778
0.0340793
0.0372847
0.0404941
0.0437075
0.0469249
0.0501464
0.053372
0.0566015
0.0598349
0.063072
0.0663127
0.0695568
0.072804
0.0760542
0.0793071
0.0825624
0.0858199
0.0890794
0.0923406
0.0956032
0.0988669
0.102132
0.105397
0.108663
-0.218713
-0.214963
-0.211228
-0.207517
-0.203831
-0.200175
-0.19655
-0.192965
-0.189428
-0.185954
-0.182566
-0.179289
-0.176148
-0.173167
-0.170365
-0.167754
-0.165337
-0.163108
-0.161056
-0.159165
-0.157423
-0.155813
-0.154321
-0.152934
-0.15164
-0.150426
-0.149279
-0.148185
-0.147132
-0.146102
-0.145081
-0.144054
-0.143009
-0.141936
-0.140822
-0.139661
-0.138449
-0.137182
-0.135858
-0.134477
-0.133045
-0.131573
-0.130063
-0.128521
-0.126951
-0.125358
-0.123749
-0.122115
-0.120443
-0.118728
-0.116959
-0.115122
-0.113198
-0.111186
-0.109069
-0.106853
-0.104541
-0.102143
-0.0996559
-0.0970828
-0.094432
-0.0917096
-0.0889186
-0.0860606
-0.0831353
-0.0801394
-0.0770678
-0.0739132
-0.0706693
-0.0673295
-0.0638865
-0.060333
-0.056663
-0.0528686
-0.0489455
-0.0448908
-0.0407002
-0.036369
-0.0318904
-0.0272536
-0.0224584
-0.0175583
-0.0126946
-0.00819526
-0.00446747
-0.0010943
0.00215412
0.00535886
0.00854729
0.0117299
0.0149118
0.0180955
0.0212825
0.0244733
0.0276682
0.0308672
0.0340701
0.037277
0.0404877
0.0437024
0.046921
0.0501436
0.05337
0.0566002
0.0598342
0.0630718
0.0663129
0.0695572
0.0728047
0.076055
0.0793079
0.0825632
0.0858207
0.0890802
0.0923412
0.0956037
0.0988674
0.102132
0.105397
0.108663
-0.218703
-0.214932
-0.211172
-0.207432
-0.203722
-0.200049
-0.196415
-0.192825
-0.189289
-0.185825
-0.182462
-0.179228
-0.176144
-0.173227
-0.170491
-0.167945
-0.165592
-0.163421
-0.161421
-0.159582
-0.157887
-0.15632
-0.15487
-0.153524
-0.15227
-0.151094
-0.149983
-0.148922
-0.147896
-0.146892
-0.145894
-0.144888
-0.143863
-0.142805
-0.141702
-0.140549
-0.139343
-0.138077
-0.136753
-0.135371
-0.133939
-0.132468
-0.130964
-0.129437
-0.127889
-0.126325
-0.124755
-0.123157
-0.121514
-0.119823
-0.118066
-0.116227
-0.11428
-0.112232
-0.110061
-0.107782
-0.1054
-0.102925
-0.100349
-0.0976825
-0.0949385
-0.0921228
-0.0892395
-0.0862919
-0.083281
-0.0802053
-0.0770604
-0.07384
-0.0705371
-0.0671444
-0.0636544
-0.0600614
-0.0563605
-0.0525463
-0.048616
-0.0445676
-0.0403972
-0.0361029
-0.0316843
-0.0271444
-0.0225016
-0.0178174
-0.0132196
-0.00889681
-0.00498316
-0.00139261
0.00200172
0.00528584
0.00851186
0.0117099
0.0148969
0.0180817
0.0212686
0.0244594
0.0276548
0.0308547
0.0340589
0.0372672
0.0404795
0.0436957
0.0469158
0.0501396
0.0533671
0.0565983
0.059833
0.0630713
0.0663128
0.0695575
0.0728052
0.0760557
0.0793087
0.0825641
0.0858216
0.089081
0.092342
0.0956044
0.0988679
0.102132
0.105397
0.108663
-0.218691
-0.214894
-0.211106
-0.207339
-0.203605
-0.199914
-0.196271
-0.192676
-0.189146
-0.185705
-0.182377
-0.179189
-0.176164
-0.173316
-0.170651
-0.168175
-0.165888
-0.16378
-0.161838
-0.160053
-0.158409
-0.156893
-0.15549
-0.154192
-0.152982
-0.151849
-0.150779
-0.149755
-0.148764
-0.147791
-0.146822
-0.145845
-0.144846
-0.143811
-0.142731
-0.141598
-0.140409
-0.139158
-0.137847
-0.136477
-0.135059
-0.133601
-0.132115
-0.13061
-0.129089
-0.127559
-0.126029
-0.124467
-0.122855
-0.121189
-0.119443
-0.117598
-0.115626
-0.113533
-0.111302
-0.108953
-0.106493
-0.103923
-0.101242
-0.0984715
-0.0956211
-0.0926964
-0.0897036
-0.0866476
-0.083531
-0.0803545
-0.0771184
-0.0738215
-0.0704549
-0.0670056
-0.0634644
-0.059826
-0.0560884
-0.0522498
-0.048307
-0.0442553
-0.0400916
-0.0358192
-0.0314446
-0.026979
-0.0224452
-0.0178974
-0.013429
-0.0091455
-0.00515141
-0.00146897
0.00198407
0.00529322
0.00852363
0.0117169
0.0148967
0.0180751
0.0212575
0.0244458
0.0276402
0.0308403
0.0340455
0.0372553
0.0404693
0.0436872
0.0469088
0.0501341
0.053363
0.0565954
0.0598311
0.0630701
0.0663123
0.0695575
0.0728056
0.0760563
0.0793095
0.082565
0.0858225
0.0890818
0.0923427
0.095605
0.0988684
0.102133
0.105398
0.108663
-0.218671
-0.214835
-0.211013
-0.207221
-0.203471
-0.199769
-0.196116
-0.192521
-0.189004
-0.18559
-0.182306
-0.179175
-0.176214
-0.173436
-0.170844
-0.168442
-0.166225
-0.164182
-0.162303
-0.160575
-0.158986
-0.157523
-0.156174
-0.154927
-0.153766
-0.152681
-0.151656
-0.150674
-0.149722
-0.148787
-0.147856
-0.146916
-0.145952
-0.144955
-0.14391
-0.142809
-0.141651
-0.140431
-0.139148
-0.137806
-0.136416
-0.134988
-0.133533
-0.132063
-0.130579
-0.12909
-0.127599
-0.126073
-0.124493
-0.122848
-0.12111
-0.119252
-0.117247
-0.115101
-0.112802
-0.110369
-0.107811
-0.105128
-0.102333
-0.099449
-0.0964811
-0.0934364
-0.0903236
-0.0871488
-0.0839157
-0.0806276
-0.0772879
-0.0738975
-0.0704513
-0.066937
-0.063339
-0.0596491
-0.0558669
-0.0519933
-0.0480271
-0.0439654
-0.039805
-0.0355464
-0.0311958
-0.0267684
-0.0222842
-0.0177836
-0.0133395
-0.00902876
-0.00497485
-0.00128023
0.00214467
0.00541062
0.00859948
0.0117595
0.0149153
0.0180776
0.02125
0.0244326
0.0276244
0.0308239
0.0340297
0.0372409
0.0404566
0.0436764
0.0469
0.0501271
0.0533575
0.0565913
0.0598282
0.0630683
0.0663113
0.0695571
0.0728056
0.0760567
0.0793101
0.0825657
0.0858233
0.0890826
0.0923435
0.0956057
0.0988689
0.102133
0.105398
0.108663
-0.218652
-0.214778
-0.210919
-0.207092
-0.203316
-0.199599
-0.195939
-0.192345
-0.188846
-0.185473
-0.182247
-0.179182
-0.176292
-0.173586
-0.17107
-0.168742
-0.166596
-0.164622
-0.162807
-0.161142
-0.159613
-0.158208
-0.156916
-0.155724
-0.154617
-0.153583
-0.152607
-0.151673
-0.150766
-0.149875
-0.14899
-0.148096
-0.147179
-0.146232
-0.145232
-0.144177
-0.14307
-0.141899
-0.140662
-0.139363
-0.138019
-0.136637
-0.135228
-0.133803
-0.132366
-0.130924
-0.129472
-0.127983
-0.126432
-0.124802
-0.123064
-0.12118
-0.119135
-0.116926
-0.114549
-0.112018
-0.109347
-0.106543
-0.103627
-0.100615
-0.097516
-0.0943417
-0.0911021
-0.087804
-0.0844537
-0.0810548
-0.0776097
-0.0741186
-0.0705771
-0.0669772
-0.0633069
-0.0595563
-0.055722
-0.0518032
-0.0477996
-0.0437106
-0.0395345
-0.0352714
-0.0309251
-0.0265027
-0.0220167
-0.0174914
-0.0129793
-0.00855234
-0.00439383
-0.000773811
0.00251057
0.00564719
0.00874025
0.0118359
0.0149506
0.0180875
0.0212448
0.0244191
0.0276069
0.030805
0.0340112
0.0372237
0.0404413
0.0436632
0.0468889
0.0501181
0.0533505
0.0565859
0.0598243
0.0630655
0.0663095
0.0695561
0.0728053
0.0760568
0.0793105
0.0825663
0.085824
0.0890833
0.0923442
0.0956063
0.0988695
0.102133
0.105398
0.108663
-0.218628
-0.214709
-0.21081
-0.20695
-0.203146
-0.199406
-0.195732
-0.192148
-0.188687
-0.185366
-0.182201
-0.179206
-0.176392
-0.173764
-0.171326
-0.169075
-0.167003
-0.165099
-0.163352
-0.161751
-0.160286
-0.158944
-0.157713
-0.15658
-0.155531
-0.154554
-0.153632
-0.152751
-0.151896
-0.151057
-0.150224
-0.149385
-0.148527
-0.147639
-0.146697
-0.145706
-0.144665
-0.143558
-0.142383
-0.141148
-0.139866
-0.138546
-0.137196
-0.135829
-0.134448
-0.133053
-0.131636
-0.130178
-0.128648
-0.127023
-0.125273
-0.123358
-0.121266
-0.118989
-0.116524
-0.113888
-0.111098
-0.108165
-0.105113
-0.10196
-0.0987204
-0.0954084
-0.0920365
-0.0886134
-0.0851465
-0.0816375
-0.0780875
-0.0744957
-0.0708575
-0.067165
-0.0634087
-0.0595828
-0.0556844
-0.051711
-0.0476611
-0.0435344
-0.0393292
-0.0350425
-0.0306742
-0.0262255
-0.0216902
-0.0170652
-0.0123689
-0.00765436
-0.00321827
0.000127717
0.00308285
0.00598099
0.00892452
0.0119309
0.014993
0.0180993
0.021239
0.0244036
0.0275866
0.0307831
0.0339895
0.0372035
0.0404232
0.0436474
0.0468756
0.0501071
0.0533416
0.056579
0.0598191
0.0630617
0.0663069
0.0695545
0.0728044
0.0760565
0.0793106
0.0825667
0.0858245
0.089084
0.0923448
0.0956069
0.09887
0.102134
0.105398
0.108663
-0.218601
-0.214634
-0.210697
-0.206802
-0.202963
-0.199196
-0.195522
-0.19196
-0.188531
-0.185263
-0.182169
-0.179252
-0.176517
-0.173971
-0.171614
-0.169443
-0.167446
-0.165616
-0.16394
-0.162409
-0.161011
-0.159736
-0.15857
-0.1575
-0.156514
-0.155597
-0.154735
-0.153913
-0.153118
-0.152338
-0.151566
-0.150791
-0.150001
-0.149181
-0.14831
-0.147399
-0.146438
-0.145409
-0.144314
-0.143157
-0.141949
-0.140701
-0.139421
-0.138119
-0.136796
-0.135447
-0.134062
-0.132628
-0.131108
-0.129477
-0.127707
-0.125757
-0.123614
-0.121266
-0.118711
-0.115968
-0.113054
-0.109983
-0.106782
-0.103476
-0.100084
-0.0966252
-0.0931154
-0.0895649
-0.0859802
-0.0823612
-0.0787069
-0.0750142
-0.0712772
-0.0674873
-0.0636389
-0.0597306
-0.0557599
-0.0517232
-0.0476179
-0.0434427
-0.0391969
-0.0348771
-0.0304762
-0.0259836
-0.0213746
-0.016601
-0.0115943
-0.00626562
-0.0009003
0.00148231
0.00377965
0.0063336
0.0091017
0.0120157
0.0150272
0.0181048
0.0212282
0.0243839
0.0275626
0.0307577
0.0339646
0.0371801
0.0404021
0.043629
0.0468598
0.0500939
0.0533309
0.0565705
0.0598125
0.0630568
0.0663034
0.0695521
0.0728029
0.0760557
0.0793103
0.0825668
0.0858249
0.0890844
0.0923453
0.0956074
0.0988704
0.102134
0.105398
0.108663
-0.218571
-0.214546
-0.210561
-0.206633
-0.202771
-0.198988
-0.195313
-0.191779
-0.188405
-0.1852
-0.182173
-0.179332
-0.17668
-0.17422
-0.171949
-0.169859
-0.167941
-0.166186
-0.164584
-0.163125
-0.161798
-0.160593
-0.159496
-0.158494
-0.157574
-0.156722
-0.155923
-0.155166
-0.154438
-0.153726
-0.153023
-0.152322
-0.151605
-0.150863
-0.150079
-0.149259
-0.148388
-0.14745
-0.146447
-0.145378
-0.144254
-0.143086
-0.14188
-0.140645
-0.139377
-0.138069
-0.136711
-0.135292
-0.133774
-0.132138
-0.130348
-0.128362
-0.126165
-0.123743
-0.121096
-0.118242
-0.115197
-0.11198
-0.10862
-0.10515
-0.101594
-0.0979799
-0.0943254
-0.0906429
-0.0869384
-0.08321
-0.0794542
-0.0756641
-0.0718308
-0.0679436
-0.064001
-0.0600043
-0.0559522
-0.0518416
-0.0476691
-0.043434
-0.0391379
-0.0347784
-0.0303444
-0.0258147
-0.02114
-0.0162275
-0.0108917
-0.00458888
0.00313304
0.00296548
0.00428885
0.00654393
0.0091968
0.0120558
0.0150368
0.0180963
0.0212088
0.0243583
0.0275341
0.0307285
0.0339363
0.0371537
0.0403782
0.043608
0.0468418
0.0500787
0.0533184
0.0565604
0.0598046
0.0630508
0.0662989
0.0695489
0.0728008
0.0760544
0.0793096
0.0825665
0.0858249
0.0890847
0.0923457
0.0956078
0.0988708
0.102134
0.105399
0.108663
-0.218545
-0.214472
-0.210447
-0.206488
-0.202602
-0.198809
-0.195153
-0.191659
-0.188336
-0.185194
-0.182239
-0.179477
-0.176909
-0.174534
-0.172348
-0.170342
-0.168506
-0.16683
-0.165306
-0.163924
-0.162672
-0.16154
-0.160514
-0.15958
-0.158727
-0.157942
-0.157212
-0.156524
-0.155867
-0.155229
-0.154602
-0.153981
-0.153347
-0.152692
-0.152003
-0.151281
-0.15051
-0.149672
-0.148768
-0.147795
-0.146762
-0.145678
-0.144549
-0.143378
-0.142161
-0.14089
-0.139556
-0.138146
-0.136629
-0.134986
-0.133172
-0.131147
-0.128892
-0.126392
-0.123647
-0.120677
-0.1175
-0.114137
-0.110616
-0.106971
-0.103239
-0.0994582
-0.0956499
-0.0918303
-0.0880029
-0.0841635
-0.0803056
-0.0764194
-0.0724914
-0.0685093
-0.0644741
-0.0603868
-0.0562486
-0.0520567
-0.0478092
-0.0435083
-0.0391582
-0.0347574
-0.030294
-0.0257461
-0.021074
-0.0162185
-0.0111226
-0.00575555
-0.000600495
0.00169861
0.00393392
0.006434
0.00915585
0.0120321
0.0150143
0.0180705
0.0211795
0.0243265
0.0275011
0.0306958
0.033905
0.0371246
0.0403519
0.0435847
0.0468216
0.0500616
0.0533042
0.0565489
0.0597954
0.0630436
0.0662935
0.069545
0.072798
0.0760525
0.0793085
0.0825659
0.0858247
0.0890847
0.0923459
0.095608
0.098871
0.102135
0.105399
0.108663
-0.21853
-0.214424
-0.210363
-0.206373
-0.202477
-0.198697
-0.195067
-0.191619
-0.188359
-0.185286
-0.182408
-0.179727
-0.177243
-0.174956
-0.172859
-0.170942
-0.169192
-0.1676
-0.166157
-0.164852
-0.163674
-0.162613
-0.161655
-0.160789
-0.160001
-0.159282
-0.158618
-0.158
-0.157417
-0.156856
-0.156309
-0.15577
-0.155225
-0.154664
-0.154074
-0.153454
-0.152786
-0.152051
-0.151249
-0.150377
-0.14944
-0.148443
-0.147393
-0.146286
-0.145119
-0.143884
-0.142571
-0.141165
-0.139646
-0.13799
-0.136143
-0.134068
-0.131751
-0.129175
-0.126333
-0.123246
-0.119936
-0.116423
-0.112734
-0.108914
-0.105005
-0.101052
-0.097084
-0.0931211
-0.0891634
-0.0852063
-0.0812405
-0.0772529
-0.0732284
-0.0691556
-0.0650302
-0.0608516
-0.0566229
-0.0523423
-0.0480145
-0.0436454
-0.0392399
-0.0347981
-0.0303133
-0.0257703
-0.0211495
-0.0164375
-0.0116669
-0.00694625
-0.002673
0.000562845
0.00340113
0.00618795
0.00903534
0.0119643
0.0149674
0.018031
0.0211421
0.0242896
0.0274647
0.0306604
0.0338714
0.0370936
0.0403237
0.0435596
0.0467998
0.050043
0.0532886
0.056536
0.059785
0.0630354
0.0662872
0.0695402
0.0727945
0.0760501
0.0793069
0.082565
0.0858242
0.0890845
0.0923459
0.0956082
0.0988712
0.102135
0.105399
0.108663
-0.218529
-0.214422
-0.210358
-0.206367
-0.202484
-0.198739
-0.19516
-0.191761
-0.188556
-0.185553
-0.182752
-0.180153
-0.177758
-0.175563
-0.173558
-0.171729
-0.170067
-0.168559
-0.167196
-0.165967
-0.16486
-0.163864
-0.16297
-0.162164
-0.161434
-0.160772
-0.160168
-0.159613
-0.159098
-0.15861
-0.15814
-0.157682
-0.157224
-0.156754
-0.156263
-0.155741
-0.155172
-0.154539
-0.15384
-0.15307
-0.152231
-0.151326
-0.150353
-0.149312
-0.148197
-0.146997
-0.145701
-0.144297
-0.142769
-0.141084
-0.139194
-0.137071
-0.134698
-0.132046
-0.129107
-0.125908
-0.122469
-0.118814
-0.11497
-0.110979
-0.10689
-0.102762
-0.0986341
-0.0945272
-0.0904371
-0.0863576
-0.0822737
-0.0781693
-0.0740325
-0.0698568
-0.0656365
-0.0613663
-0.0570434
-0.0526691
-0.0482546
-0.04381
-0.0393427
-0.0348553
-0.0303452
-0.0258025
-0.0212241
-0.0166251
-0.0120478
-0.00760706
-0.00354303
-7.09141e-05
0.00302069
0.00597187
0.00891017
0.0118857
0.0149114
0.0179853
0.0211008
0.0242503
0.0274267
0.030624
0.0338369
0.0370615
0.0402945
0.0435335
0.0467769
0.0500232
0.0532718
0.0565221
0.0597736
0.0630263
0.06628
0.0695347
0.0727904
0.0760471
0.0793048
0.0825636
0.0858233
0.0890841
0.0923457
0.0956081
0.0988712
0.102135
0.105399
0.108663
-0.218555
-0.214499
-0.21049
-0.206552
-0.202716
-0.19902
-0.195497
-0.19216
-0.189023
-0.186095
-0.183376
-0.180866
-0.178564
-0.176465
-0.174555
-0.17282
-0.171247
-0.169824
-0.168538
-0.167379
-0.166334
-0.16539
-0.164541
-0.163773
-0.16308
-0.162457
-0.161894
-0.161385
-0.16092
-0.160489
-0.160082
-0.159691
-0.159307
-0.158917
-0.158512
-0.158079
-0.157599
-0.157061
-0.156459
-0.155788
-0.155046
-0.15423
-0.153336
-0.152361
-0.151296
-0.150128
-0.148847
-0.14744
-0.145891
-0.144167
-0.142235
-0.140073
-0.137643
-0.134918
-0.131896
-0.128605
-0.12506
-0.12128
-0.117289
-0.113126
-0.108861
-0.104571
-0.100297
-0.0960569
-0.0918425
-0.0876433
-0.0834355
-0.0792002
-0.074929
-0.0706219
-0.0662802
-0.0619011
-0.0574779
-0.0530092
-0.0485045
-0.0439774
-0.0394375
-0.0348885
-0.0303317
-0.0257642
-0.0211867
-0.0166145
-0.0120841
-0.00770525
-0.00365901
-0.000210653
0.00288397
0.00585879
0.00882364
0.0118199
0.0148589
0.0179404
0.0210599
0.0242115
0.0273894
0.0305882
0.033803
0.0370298
0.0402654
0.0435073
0.0467536
0.050003
0.0532545
0.0565075
0.0597616
0.0630165
0.0662722
0.0695286
0.0727857
0.0760436
0.0793023
0.0825618
0.0858222
0.0890833
0.0923452
0.0956079
0.0988711
0.102135
0.105399
0.108663
-0.218614
-0.214674
-0.21078
-0.206957
-0.203233
-0.199635
-0.196199
-0.192945
-0.189896
-0.187058
-0.184434
-0.182024
-0.179827
-0.177835
-0.176029
-0.174394
-0.172913
-0.171568
-0.170349
-0.169242
-0.168232
-0.167311
-0.166472
-0.165708
-0.165017
-0.164397
-0.163842
-0.163344
-0.162895
-0.162488
-0.162111
-0.161757
-0.161416
-0.161079
-0.160734
-0.160365
-0.159956
-0.159496
-0.158977
-0.158393
-0.15774
-0.157008
-0.156188
-0.155274
-0.154254
-0.153115
-0.151844
-0.150426
-0.148845
-0.147078
-0.145105
-0.142904
-0.140424
-0.137644
-0.134562
-0.131203
-0.127579
-0.123697
-0.119586
-0.115283
-0.110873
-0.106451
-0.102061
-0.0977157
-0.0933989
-0.0890904
-0.084758
-0.0803821
-0.0759572
-0.0714883
-0.0669868
-0.0624635
-0.057917
-0.0533439
-0.0487461
-0.0441307
-0.0395062
-0.0348792
-0.0302535
-0.0256249
-0.0209919
-0.0163681
-0.0117876
-0.00731006
-0.00304081
0.000105959
0.00296209
0.00583983
0.0087774
0.0117716
0.0148148
0.0179005
0.0210227
0.024176
0.0273552
0.0305551
0.0337713
0.0369999
0.0402377
0.043482
0.0467309
0.049983
0.0532372
0.0564927
0.0597492
0.0630063
0.0662639
0.069522
0.0727806
0.0760397
0.0792994
0.0825597
0.0858206
0.0890823
0.0923446
0.0956074
0.0988708
0.102135
0.105399
0.108663
-0.218734
-0.215029
-0.211352
-0.207721
-0.204162
-0.200716
-0.197424
-0.194304
-0.191376
-0.188657
-0.186151
-0.183864
-0.181793
-0.179925
-0.178235
-0.176703
-0.175305
-0.174025
-0.172853
-0.171769
-0.170757
-0.169813
-0.168933
-0.168118
-0.167372
-0.166697
-0.166089
-0.165541
-0.165048
-0.164602
-0.164196
-0.163822
-0.163471
-0.163136
-0.162802
-0.162455
-0.16208
-0.161666
-0.161203
-0.160685
-0.1601
-0.159433
-0.158672
-0.157808
-0.156825
-0.155707
-0.15444
-0.153007
-0.151395
-0.149587
-0.14757
-0.145323
-0.142797
-0.139973
-0.136853
-0.133464
-0.12981
-0.125884
-0.121714
-0.117334
-0.112841
-0.108348
-0.103898
-0.0994959
-0.0951104
-0.0907135
-0.0862657
-0.081748
-0.077155
-0.0724977
-0.0678003
-0.0630887
-0.0583747
-0.0536632
-0.0489507
-0.0442326
-0.0395102
-0.0347899
-0.0300727
-0.0253592
-0.020659
-0.0159916
-0.0113627
-0.00663985
-0.00116461
0.000603051
0.00309487
0.00583273
0.00873804
0.0117293
0.0147765
0.0178662
0.0209912
0.0241461
0.0273261
0.0305267
0.0337437
0.0369734
0.0402126
0.0434587
0.0467097
0.049964
0.0532204
0.0564782
0.0597368
0.0629959
0.0662553
0.069515
0.072775
0.0760353
0.079296
0.0825572
0.0858188
0.0890809
0.0923436
0.0956068
0.0988704
0.102134
0.105399
0.108663
-0.218922
-0.215588
-0.212266
-0.208964
-0.205703
-0.202514
-0.19944
-0.196514
-0.193763
-0.191206
-0.188858
-0.186729
-0.184812
-0.183084
-0.181516
-0.180088
-0.178766
-0.177538
-0.176384
-0.175277
-0.174202
-0.173162
-0.172162
-0.171212
-0.170323
-0.1695
-0.168743
-0.168049
-0.167415
-0.166836
-0.166307
-0.165823
-0.165376
-0.164957
-0.164556
-0.164159
-0.163754
-0.163329
-0.162872
-0.162371
-0.161813
-0.161179
-0.160454
-0.159622
-0.158663
-0.15756
-0.156296
-0.154852
-0.153215
-0.151374
-0.149316
-0.147022
-0.144456
-0.141606
-0.138482
-0.135116
-0.131503
-0.127621
-0.123481
-0.119116
-0.114638
-0.110171
-0.105746
-0.10135
-0.0969413
-0.0924874
-0.087946
-0.0832988
-0.0785405
-0.0736875
-0.0687768
-0.0638497
-0.0589329
-0.0540418
-0.0491787
-0.0443333
-0.0394929
-0.0346548
-0.0298282
-0.0250377
-0.0203139
-0.0156964
-0.0112262
-0.00692514
-0.00288328
7.35936e-05
0.00284429
0.00570978
0.0086625
0.0116776
0.0147387
0.0178367
0.0209663
0.0241234
0.0273042
0.0305049
0.033722
0.0369519
0.0401916
0.0434386
0.0466909
0.0499467
0.0532048
0.0564643
0.0597248
0.0629856
0.0662467
0.0695079
0.0727692
0.0760307
0.0792924
0.0825543
0.0858166
0.0890793
0.0923424
0.0956059
0.0988698
0.102134
0.105399
0.108663
-0.219216
-0.216465
-0.2137
-0.210916
-0.208118
-0.205327
-0.202588
-0.19995
-0.197454
-0.195124
-0.192986
-0.191057
-0.189328
-0.187763
-0.186336
-0.185021
-0.183763
-0.182552
-0.181362
-0.180159
-0.178937
-0.177702
-0.176473
-0.17527
-0.174111
-0.173008
-0.171967
-0.17099
-0.170077
-0.169228
-0.16844
-0.16771
-0.167034
-0.166405
-0.165814
-0.165251
-0.164708
-0.164177
-0.163644
-0.163092
-0.162503
-0.161858
-0.161135
-0.160311
-0.159363
-0.158267
-0.157004
-0.155554
-0.153903
-0.152041
-0.149955
-0.147631
-0.145058
-0.14223
-0.139155
-0.135866
-0.132374
-0.128649
-0.124668
-0.120456
-0.116132
-0.111807
-0.107501
-0.103187
-0.0988223
-0.0943631
-0.0897677
-0.0850139
-0.0801031
-0.0750677
-0.0699548
-0.0648132
-0.0596845
-0.0545935
-0.0495485
-0.0445397
-0.0395482
-0.0345724
-0.029644
-0.0248165
-0.0201362
-0.0156411
-0.0113724
-0.007377
-0.00372343
-0.000527369
0.00250853
0.00552184
0.0085535
0.0116124
0.0146986
0.0178111
0.0209485
0.0241091
0.0272909
0.0304914
0.0337075
0.0369366
0.0401757
0.0434226
0.0466752
0.0499317
0.0531909
0.0564517
0.0597135
0.0629757
0.0662382
0.0695007
0.0727632
0.0760258
0.0792884
0.0825512
0.0858141
0.0890774
0.092341
0.0956048
0.098869
0.102134
0.105398
0.108663
-0.219665
-0.217799
-0.215878
-0.213872
-0.211763
-0.209561
-0.207316
-0.205099
-0.20296
-0.200945
-0.19909
-0.197415
-0.195922
-0.194559
-0.193288
-0.192074
-0.190844
-0.189589
-0.188283
-0.186891
-0.18541
-0.183854
-0.182256
-0.180648
-0.179056
-0.177501
-0.175999
-0.174559
-0.173187
-0.171885
-0.170654
-0.169494
-0.168403
-0.167382
-0.166425
-0.165537
-0.164709
-0.163932
-0.163195
-0.162483
-0.161776
-0.16105
-0.160275
-0.159424
-0.158462
-0.157358
-0.156091
-0.154637
-0.152974
-0.151103
-0.149019
-0.146709
-0.144192
-0.141462
-0.138511
-0.135388
-0.13214
-0.128707
-0.125036
-0.12115
-0.11714
-0.113081
-0.10899
-0.104838
-0.100587
-0.096183
-0.0915839
-0.0867735
-0.0817625
-0.076589
-0.0713111
-0.0659963
-0.0606917
-0.0554225
-0.0502025
-0.045024
-0.0398798
-0.0347965
-0.0298193
-0.0249892
-0.0203507
-0.0159469
-0.0118124
-0.0079579
-0.00438653
-0.00106082
0.00215203
0.00529707
0.00841635
0.0115317
0.0146537
0.017788
0.0209375
0.0241039
0.0272874
0.0304871
0.0337015
0.0369285
0.0401659
0.0434115
0.0466633
0.0499196
0.0531791
0.0564405
0.0597032
0.0629664
0.06623
0.0694936
0.0727572
0.0760207
0.0792842
0.0825477
0.0858113
0.0890752
0.0923392
0.0956035
0.098868
0.102133
0.105398
0.108663
-0.220326
-0.219758
-0.219071
-0.218194
-0.217079
-0.215722
-0.21418
-0.21255
-0.210903
-0.209313
-0.207834
-0.206483
-0.205271
-0.20413
-0.203006
-0.201858
-0.200599
-0.199216
-0.197694
-0.195999
-0.194128
-0.192103
-0.18997
-0.187776
-0.185557
-0.183344
-0.181169
-0.179053
-0.177005
-0.175029
-0.173128
-0.171306
-0.169564
-0.16791
-0.166352
-0.164898
-0.163554
-0.162322
-0.161197
-0.160168
-0.159211
-0.158295
-0.157385
-0.156447
-0.155431
-0.154289
-0.153001
-0.151533
-0.149851
-0.14798
-0.145934
-0.143708
-0.141343
-0.138815
-0.136064
-0.133205
-0.130352
-0.127397
-0.124241
-0.120858
-0.117306
-0.113635
-0.10986
-0.105962
-0.1019
-0.0976215
-0.0930911
-0.0883029
-0.0832729
-0.0780548
-0.0727243
-0.0673453
-0.0619556
-0.0565788
-0.0512324
-0.0459222
-0.04067
-0.035515
-0.0304948
-0.025652
-0.0210324
-0.0166716
-0.0125794
-0.00872988
-0.00509637
-0.0016236
0.00175192
0.00502651
0.00824298
0.0114284
0.0145988
0.0177642
0.0209321
0.0241074
0.0272937
0.0304926
0.0337044
0.0369282
0.0401625
0.0434056
0.0466556
0.0499107
0.0531696
0.056431
0.059694
0.0629579
0.0662222
0.0694867
0.0727511
0.0760155
0.0792797
0.082544
0.0858082
0.0890726
0.0923371
0.0956019
0.0988668
0.102132
0.105397
0.108663
-0.221267
-0.222546
-0.223605
-0.224313
-0.224585
-0.2244
-0.223819
-0.22298
-0.22199
-0.220941
-0.219925
-0.218972
-0.218067
-0.217133
-0.216111
-0.214969
-0.2136
-0.211985
-0.210128
-0.207998
-0.205591
-0.202936
-0.200087
-0.197112
-0.194058
-0.190969
-0.187899
-0.184885
-0.181935
-0.17905
-0.176235
-0.17349
-0.170821
-0.168243
-0.165777
-0.16345
-0.161291
-0.15932
-0.157547
-0.15597
-0.154571
-0.153304
-0.152129
-0.151001
-0.149857
-0.148628
-0.147282
-0.145773
-0.144047
-0.142176
-0.140214
-0.138173
-0.136077
-0.133858
-0.131368
-0.128893
-0.126622
-0.124333
-0.121867
-0.119134
-0.116145
-0.112933
-0.109544
-0.105974
-0.102181
-0.0981199
-0.0937651
-0.0891223
-0.0842273
-0.0791412
-0.0739238
-0.0686297
-0.0632968
-0.0579338
-0.0525562
-0.0471969
-0.041909
-0.036733
-0.0316938
-0.0268345
-0.0221975
-0.0178059
-0.0136458
-0.00969112
-0.00592678
-0.00228779
0.00126384
0.00468143
0.00801317
0.0112884
0.0145246
0.0177344
0.0209289
0.0241179
0.0273091
0.0305075
0.033716
0.0369356
0.0401656
0.043405
0.046652
0.0499051
0.0531626
0.0564233
0.0596861
0.0629502
0.066215
0.06948
0.0727451
0.0760101
0.0792751
0.0825399
0.0858048
0.0890697
0.0923347
0.0955999
0.0988653
0.102131
0.105397
0.108663
-0.222571
-0.226404
-0.229861
-0.232723
-0.234859
-0.236226
-0.2369
-0.237059
-0.236885
-0.236488
-0.235997
-0.235473
-0.234879
-0.234108