/*--------------------------------*- C++ -*----------------------------------*\
  =========                 |
  \\      /  F ield         | OpenFOAM: The Open Source CFD Toolbox
   \\    /   O peration     | Website:  https://openfoam.org
    \\  /    A nd           | Version:  6
     \\/     M anipulation  |
\*---------------------------------------------------------------------------*/
FoamFile
{
    version     2.0;
    format      ascii;
    class       surfaceScalarField;
    location    "4600";
    object      phi;
}
// * * * * * * * * * * * * * * * * * * * * * * * * * * * * * * * * * * * * * //

dimensions      [0 3 -1 0 0 0 0];

internalField   nonuniform List<scalar> 
9440
(
9.18575e-11
-9.18575e-11
1.50612e-10
-5.87541e-11
1.98716e-10
-4.81043e-11
1.88146e-10
1.05708e-11
1.65658e-10
2.24877e-11
1.79882e-10
-1.42232e-11
1.68861e-10
1.10206e-11
1.30467e-10
3.83945e-11
5.67767e-11
7.369e-11
-7.68394e-11
1.33616e-10
-2.78758e-10
2.01918e-10
-4.42203e-10
1.63445e-10
-4.45055e-10
2.8517e-12
-4.5343e-10
8.37579e-12
-5.87458e-10
1.34027e-10
-8.70005e-10
2.82547e-10
-1.27249e-09
4.02489e-10
-1.71195e-09
4.39459e-10
-2.07361e-09
3.61656e-10
-2.32501e-09
2.51396e-10
-2.48616e-09
1.61152e-10
-2.60161e-09
1.1545e-10
-2.6756e-09
7.39874e-11
-2.77175e-09
9.61521e-11
-2.88853e-09
1.16777e-10
-2.99071e-09
1.02184e-10
-3.07722e-09
8.65056e-11
-3.11553e-09
3.83095e-11
-3.13672e-09
2.11855e-11
-3.11333e-09
-2.33918e-11
-2.93988e-09
-1.73453e-10
-2.6835e-09
-2.5638e-10
-2.40405e-09
-2.79449e-10
-2.17392e-09
-2.30132e-10
-1.93121e-09
-2.4271e-10
-1.68346e-09
-2.47747e-10
-1.50974e-09
-1.73723e-10
-1.35836e-09
-1.51381e-10
-1.19751e-09
-1.60849e-10
-1.00815e-09
-1.89367e-10
-9.23383e-10
-8.4765e-11
-9.58421e-10
3.5038e-11
-1.01791e-09
5.94881e-11
-1.06893e-09
5.10175e-11
-1.14321e-09
7.42774e-11
-1.20065e-09
5.74388e-11
-1.22921e-09
2.85638e-11
-1.23997e-09
1.07594e-11
-1.19474e-09
-4.52298e-11
-1.1373e-09
-5.74348e-11
-9.59417e-10
-1.7788e-10
-7.42156e-10
-2.17258e-10
-5.90639e-10
-1.51514e-10
-4.37232e-10
-1.53404e-10
-2.75572e-10
-1.61657e-10
-1.91187e-10
-8.43821e-11
8.8484e-11
-2.79667e-10
2.47263e-10
-1.58776e-10
3.7703e-10
-1.29764e-10
5.50041e-10
-1.73009e-10
6.92352e-10
-1.42308e-10
8.43847e-10
-1.51493e-10
9.0184e-10
-5.79914e-11
1.02148e-09
-1.19639e-10
1.13784e-09
-1.1636e-10
1.27191e-09
-1.34068e-10
1.35576e-09
-8.38483e-11
1.44828e-09
-9.25186e-11
1.54623e-09
-9.79511e-11
1.5278e-09
1.84241e-11
1.62395e-09
-9.61525e-11
1.62689e-09
-2.93413e-12
1.67739e-09
-5.05038e-11
1.66068e-09
1.67139e-11
1.60437e-09
5.63059e-11
1.52758e-09
7.67905e-11
1.36021e-09
1.67366e-10
1.49666e-09
-1.36444e-10
1.71954e-09
-2.22882e-10
1.97818e-09
-2.58643e-10
1.91373e-09
6.44468e-11
1.50846e-09
4.05274e-10
1.80741e-14
1.50843e-09
8.5772e-18
2.0471e-17
3.44212e-18
5.13508e-18
1.78374e-18
1.65362e-18
1.07209e-18
7.11655e-19
6.74104e-19
3.98558e-19
4.2639e-19
2.47583e-19
2.77241e-19
1.48362e-19
2.01977e-19
7.4063e-20
1.83787e-19
1.67219e-20
2.0937e-19
-2.7225e-20
2.67676e-19
-6.00376e-20
3.49343e-19
-8.33829e-20
4.4635e-19
-9.8582e-20
5.51783e-19
-1.06747e-19
6.59693e-19
-1.08875e-19
7.65001e-19
-1.05895e-19
8.63439e-19
-9.86837e-20
9.51525e-19
-8.80697e-20
1.02655e-18
-7.48326e-20
1.08651e-18
-5.96999e-20
1.13008e-18
-4.33376e-20
1.1565e-18
-2.6331e-20
1.16553e-18
-9.17194e-21
1.1574e-18
7.73957e-21
1.13272e-18
2.40833e-20
1.09244e-18
3.96057e-20
1.03772e-18
5.41134e-20
9.6987e-19
6.74688e-20
8.9031e-19
7.95838e-20
8.00505e-19
9.04099e-20
7.01941e-19
9.99249e-20
5.96079e-19
1.08123e-19
4.84311e-19
1.15011e-19
3.67921e-19
1.20613e-19
2.48025e-19
1.25e-19
1.25423e-19
1.28398e-19
1.31639e-19
1.79219e-11
-1.09779e-10
-1.03172e-11
-3.05147e-11
-3.12228e-11
-2.71984e-11
4.03788e-12
-2.46896e-11
4.99989e-11
-2.34731e-11
7.74796e-11
-4.17038e-11
8.00921e-11
8.40823e-12
4.42753e-11
7.42114e-11
-4.78968e-11
1.65862e-10
-1.58339e-10
2.44058e-10
-2.89278e-10
3.32858e-10
-5.0085e-10
3.75016e-10
-8.55685e-10
3.57686e-10
-1.18209e-09
3.34781e-10
-1.42267e-09
3.74603e-10
-1.70371e-09
5.63588e-10
-1.97951e-09
6.7829e-10
-2.13956e-09
5.99505e-10
-2.27579e-09
4.97887e-10
-2.44408e-09
4.19688e-10
-2.50546e-09
2.2253e-10
-2.60682e-09
2.16804e-10
-2.67212e-09
1.3929e-10
-2.69759e-09
1.21613e-10
-2.76775e-09
1.86944e-10
-2.81116e-09
1.45588e-10
-2.858e-09
1.33338e-10
-2.88126e-09
6.15661e-11
-2.88162e-09
2.1543e-11
-2.86716e-09
-3.78496e-11
-2.75344e-09
-2.87172e-10
-2.6239e-09
-3.85929e-10
-2.48554e-09
-4.1781e-10
-2.19464e-09
-5.21027e-10
-1.88266e-09
-5.54691e-10
-1.65816e-09
-4.7225e-10
-1.46461e-09
-3.67274e-10
-1.26824e-09
-3.47758e-10
-1.11333e-09
-3.15759e-10
-8.73079e-10
-4.29616e-10
-7.70717e-10
-1.87129e-10
-8.67754e-10
1.32074e-10
-9.45624e-10
1.37357e-10
-1.01407e-09
1.19465e-10
-1.12118e-09
1.81383e-10
-1.20212e-09
1.38385e-10
-1.23668e-09
6.31217e-11
-1.22167e-09
-4.24701e-12
-1.16098e-09
-1.05918e-10
-1.05155e-09
-1.66863e-10
-9.18362e-10
-3.11061e-10
-7.01403e-10
-4.34212e-10
-5.47363e-10
-3.05548e-10
-3.46773e-10
-3.53989e-10
-1.83179e-10
-3.25245e-10
1.49144e-11
-2.8247e-10
1.06154e-10
-3.70901e-10
2.39859e-10
-2.92475e-10
3.95558e-10
-2.85458e-10
5.42385e-10
-3.19831e-10
6.87118e-10
-2.87037e-10
8.11848e-10
-2.7622e-10
9.48621e-10
-1.94763e-10
1.01466e-09
-1.85677e-10
1.14087e-09
-2.42573e-10
1.24708e-09
-2.4027e-10
1.34936e-09
-1.86136e-10
1.38303e-09
-1.26181e-10
1.43337e-09
-1.48292e-10
1.4923e-09
-4.05113e-11
1.51044e-09
-1.14293e-10
1.56071e-09
-5.32079e-11
1.54799e-09
-3.77832e-11
1.53703e-09
2.76764e-11
1.46752e-09
1.25819e-10
1.46103e-09
8.3279e-11
1.23759e-09
3.90801e-10
5.64053e-10
5.37092e-10
-3.29172e-10
6.70341e-10
-1.25627e-09
6.68455e-10
-1.30375e-09
1.11927e-10
-3.01451e-10
-5.97009e-10
1.40172e-17
1.20703e-09
-4.86537e-18
5.48648e-18
-3.91987e-20
3.18019e-19
8.41854e-19
7.74092e-19
7.5899e-19
7.93525e-19
5.23128e-19
6.32882e-19
3.27169e-19
4.4175e-19
2.02942e-19
2.70478e-19
1.44636e-19
1.29934e-19
1.3984e-19
1.88373e-20
1.76557e-19
-6.67241e-20
2.4433e-19
-1.30523e-19
3.34143e-19
-1.75669e-19
4.38185e-19
-2.04706e-19
5.49655e-19
-2.19813e-19
6.62674e-19
-2.22963e-19
7.72212e-19
-2.16005e-19
8.74053e-19
-2.007e-19
9.64762e-19
-1.78716e-19
1.04168e-18
-1.51625e-19
1.10287e-18
-1.20878e-19
1.14709e-18
-8.77702e-20
1.17366e-18
-5.34216e-20
1.18244e-18
-1.8767e-20
1.17374e-18
1.54283e-20
1.14824e-18
4.85433e-20
1.10695e-18
8.00869e-20
1.05107e-18
1.09685e-19
9.81985e-19
1.37066e-19
9.01136e-19
1.62044e-19
8.1002e-19
1.84484e-19
7.10139e-19
2.0429e-19
6.02967e-19
2.21385e-19
4.89913e-19
2.35713e-19
3.72307e-19
2.47245e-19
2.51423e-19
2.55984e-19
1.28664e-19
2.61935e-19
2.64881e-19
-7.27893e-11
-3.69897e-11
-7.82372e-11
-2.50664e-11
-6.95902e-11
-3.58451e-11
-2.49932e-11
-6.92863e-11
1.18498e-11
-6.0316e-11
-2.70752e-11
-2.77863e-12
-9.44718e-11
7.58049e-11
-1.63988e-10
1.43727e-10
-2.68372e-10
2.70247e-10
-3.77385e-10
3.53071e-10
-5.01333e-10
4.56806e-10
-7.10756e-10
5.84439e-10
-1.04639e-09
6.93316e-10
-1.4063e-09
6.94693e-10
-1.7381e-09
7.06406e-10
-1.96285e-09
7.88337e-10
-2.11364e-09
8.29079e-10
-2.23191e-09
7.17776e-10
-2.26557e-09
5.31546e-10
-2.37239e-09
5.26501e-10
-2.46825e-09
3.1839e-10
-2.55324e-09
3.01794e-10
-2.55685e-09
1.42902e-10
-2.60721e-09
1.71962e-10
-2.70055e-09
2.80284e-10
-2.74602e-09
1.91055e-10
-2.77162e-09
1.58942e-10
-2.81644e-09
1.06384e-10
-2.82339e-09
2.8494e-11
-2.77631e-09
-8.49369e-11
-2.67981e-09
-3.8367e-10
-2.55358e-09
-5.12163e-10
-2.4411e-09
-5.30296e-10
-2.26296e-09
-6.99165e-10
-2.02164e-09
-7.96015e-10
-1.77811e-09
-7.1578e-10
-1.53597e-09
-6.0941e-10
-1.30336e-09
-5.80371e-10
-1.00241e-09
-6.16712e-10
-8.57035e-10
-5.74995e-10
-7.42815e-10
-3.0135e-10
-8.05641e-10
1.94899e-10
-8.80918e-10
2.12632e-10
-9.94848e-10
2.33395e-10
-1.09504e-09
2.81573e-10
-1.15168e-09
1.95032e-10
-1.14566e-09
5.71019e-11
-1.09668e-09
-5.32292e-11
-1.01475e-09
-1.87846e-10
-8.82073e-10
-2.99537e-10
-7.62664e-10
-4.30467e-10
-6.05634e-10
-5.91238e-10
-4.43066e-10
-4.68112e-10
-2.08115e-10
-5.88935e-10
-2.95843e-11
-5.03771e-10
1.90859e-10
-5.02908e-10
2.74826e-10
-4.54864e-10
3.9403e-10
-4.11675e-10
5.20909e-10
-4.12333e-10
6.1818e-10
-4.17098e-10
7.08071e-10
-3.76925e-10
7.88073e-10
-3.56219e-10
9.30412e-10
-3.37099e-10
9.93965e-10
-2.49228e-10
1.09122e-09
-3.39825e-10
1.12681e-09
-2.75865e-10
1.19815e-09
-2.57476e-10
1.27817e-09
-2.06198e-10
1.30971e-09
-1.79835e-10
1.36622e-09
-9.70221e-11
1.36487e-09
-1.12941e-10
1.4342e-09
-1.22541e-10
1.41747e-09
-2.10465e-11
1.39929e-09
4.58486e-11
1.34256e-09
1.82556e-10
1.2165e-09
2.09332e-10
1.11578e-09
4.91518e-10
9.38307e-10
7.1457e-10
7.82583e-10
8.26064e-10
4.87541e-10
9.63493e-10
3.70337e-10
2.29119e-10
2.78657e-10
-5.05354e-10
-5.03594e-16
1.48567e-09
-4.34206e-18
2.61499e-18
4.17569e-19
-4.44161e-18
8.61448e-19
3.30012e-19
5.98347e-19
1.05582e-18
3.31996e-19
8.98058e-19
1.55897e-19
6.16507e-19
6.2398e-20
3.62499e-19
3.35395e-20
1.57176e-19
5.42789e-20
-3.65703e-21
1.12759e-19
-1.27058e-19
1.99184e-19
-2.18849e-19
3.05106e-19
-2.83467e-19
4.23078e-19
-3.24441e-19
5.46506e-19
-3.44817e-19
6.69631e-19
-3.47418e-19
7.87517e-19
-3.3496e-19
8.96036e-19
-3.1007e-19
9.91853e-19
-2.7526e-19
1.07243e-18
-2.32894e-19
1.13598e-18
-1.85151e-19
1.18144e-18
-1.33989e-19
1.20832e-18
-8.1104e-20
1.21664e-18
-2.79147e-20
1.20686e-18
2.44249e-20
1.17979e-18
7.49912e-20
1.13654e-18
1.23056e-19
1.07845e-18
1.68063e-19
1.00696e-18
2.09604e-19
9.23577e-19
2.47393e-19
8.29826e-19
2.81238e-19
7.27234e-19
3.11007e-19
6.17294e-19
3.36607e-19
5.01445e-19
3.57978e-19
3.81047e-19
3.75085e-19
2.57374e-19
3.87908e-19
1.3161e-19
3.96413e-19
4.00503e-19
-5.41154e-11
1.71259e-11
-8.5131e-11
5.94947e-12
-6.90836e-11
-5.18923e-11
-7.58265e-11
-6.25432e-11
-1.09994e-10
-2.61485e-11
-1.4807e-10
3.5298e-11
-1.59029e-10
8.67637e-11
-2.10116e-10
1.94814e-10
-3.0885e-10
3.68981e-10
-5.03158e-10
5.47379e-10
-7.14217e-10
6.67864e-10
-9.22194e-10
7.92415e-10
-1.1742e-09
9.45324e-10
-1.44556e-09
9.66051e-10
-1.70181e-09
9.62656e-10
-1.88356e-09
9.70089e-10
-1.9803e-09
9.25814e-10
-2.12145e-09
8.58928e-10
-2.22219e-09
6.32279e-10
-2.26717e-09
5.71483e-10
-2.36106e-09
4.12275e-10
-2.44928e-09
3.9002e-10
-2.54573e-09
2.39345e-10
-2.64597e-09
2.72208e-10
-2.71453e-09
3.48841e-10
-2.75582e-09
2.32339e-10
-2.80352e-09
2.06641e-10
-2.86643e-09
1.69287e-10
-2.82835e-09
-9.58229e-12
-2.72072e-09
-1.92567e-10
-2.65938e-09
-4.45016e-10
-2.56194e-09
-6.09606e-10
-2.46439e-09
-6.27847e-10
-2.38666e-09
-7.76891e-10
-2.33716e-09
-8.45515e-10
-2.12951e-09
-9.2344e-10
-1.91262e-09
-8.26297e-10
-1.70761e-09
-7.85381e-10
-1.50289e-09
-8.21434e-10
-1.30983e-09
-7.68057e-10
-1.23324e-09
-3.77946e-10
-1.09374e-09
5.5397e-11
-1.09429e-09
2.13185e-10
-1.07818e-09
2.17284e-10
-1.09496e-09
2.98356e-10
-1.13644e-09
2.36512e-10
-1.11042e-09
3.10805e-11
-1.05306e-09
-1.10595e-10
-9.78835e-10
-2.62066e-10
-8.66208e-10
-4.12162e-10
-6.79287e-10
-6.17384e-10
-5.7608e-10
-6.94442e-10
-3.54333e-10
-6.89855e-10
-1.28764e-10
-8.14499e-10
3.62249e-11
-6.68756e-10
2.45355e-10
-7.12034e-10
3.24721e-10
-5.34226e-10
4.13033e-10
-4.99983e-10
5.12451e-10
-5.11747e-10
5.74858e-10
-4.79502e-10
6.39246e-10
-4.41309e-10
6.89153e-10
-4.06124e-10
7.54045e-10
-4.0199e-10
8.75633e-10
-3.70814e-10
9.30568e-10
-3.94759e-10
1.04499e-09
-3.90289e-10
1.10004e-09
-3.12518e-10
1.13147e-09
-2.37633e-10
1.15213e-09
-2.00494e-10
1.20156e-09
-1.46457e-10
1.22804e-09
-1.39413e-10
1.20506e-09
-9.95649e-11
1.16913e-09
1.48806e-11
1.159e-09
5.59841e-11
1.1542e-09
1.87348e-10
1.0564e-09
3.0714e-10
1.06492e-09
4.82998e-10
1.06474e-09
7.14743e-10
9.4284e-10
9.47968e-10
8.62512e-10
1.04383e-09
7.47064e-10
3.44574e-10
3.65291e-10
-1.23583e-10
2.99891e-11
1.82097e-09
2.39084e-17
2.9989e-11
5.61305e-18
1.38455e-17
1.58735e-18
4.35514e-18
4.40583e-19
2.20179e-18
5.04452e-20
1.28727e-18
-9.81103e-20
7.64072e-19
-1.42926e-19
4.06287e-19
-1.27293e-19
1.40468e-19
-6.91226e-20
-6.30099e-20
2.09679e-20
-2.18471e-19
1.34567e-19
-3.33939e-19
2.64132e-19
-4.14679e-19
4.02702e-19
-4.64768e-19
5.43905e-19
-4.87834e-19
6.82089e-19
-4.87397e-19
8.12407e-19
-4.66977e-19
9.30846e-19
-4.30069e-19
1.03422e-18
-3.80067e-19
1.12017e-18
-3.20176e-19
1.18714e-18
-2.5335e-19
1.23432e-18
-1.82239e-19
1.2615e-18
-1.09144e-19
1.26898e-18
-3.59886e-20
1.25742e-18
3.56711e-20
1.22785e-18
1.04605e-19
1.18155e-18
1.69856e-19
1.11999e-18
2.30702e-19
1.04475e-18
2.86622e-19
9.57422e-19
3.37269e-19
8.59594e-19
3.82428e-19
7.52834e-19
4.21977e-19
6.38666e-19
4.55857e-19
5.18552e-19
4.84042e-19
3.93869e-19
5.06525e-19
2.6588e-19
5.23305e-19
1.357e-19
5.34368e-19
5.39687e-19
-1.50362e-10
1.67489e-10
-1.89242e-10
4.48298e-11
-1.48669e-10
-9.24652e-11
-1.18014e-10
-9.31988e-11
-1.14191e-10
-2.99707e-11
-1.62465e-10
8.35722e-11
-2.32115e-10
1.56414e-10
-3.38591e-10
3.0129e-10
-4.78334e-10
5.08724e-10
-6.05545e-10
6.7459e-10
-8.0366e-10
8.65979e-10
-1.07859e-09
1.06734e-09
-1.31525e-09
1.18199e-09
-1.53565e-09
1.18645e-09
-1.71404e-09
1.14104e-09
-1.85473e-09
1.11077e-09
-1.95411e-09
1.02519e-09
-1.97175e-09
8.76573e-10
-2.09574e-09
7.56266e-10
-2.20556e-09
6.81302e-10
-2.30377e-09
5.10488e-10
-2.3464e-09
4.32647e-10
-2.50865e-09
4.01597e-10
-2.61816e-09
3.81717e-10
-2.67842e-09
4.09093e-10
-2.75202e-09
3.05944e-10
-2.79958e-09
2.54197e-10
-2.84562e-09
2.15325e-10
-2.76345e-09
-9.17509e-11
-2.71472e-09
-2.41302e-10
-2.67703e-09
-4.82707e-10
-2.66246e-09
-6.24175e-10
-2.58422e-09
-7.06088e-10
-2.48894e-09
-8.72176e-10
-2.4167e-09
-9.17756e-10
-2.39287e-09
-9.47271e-10
-2.30041e-09
-9.18757e-10
-2.14958e-09
-9.36218e-10
-2.06275e-09
-9.08258e-10
-1.9839e-09
-8.4691e-10
-1.92439e-09
-4.37461e-10
-1.57866e-09
-2.90328e-10
-1.35137e-09
-1.41076e-11
-1.29021e-09
1.56115e-10
-1.24308e-09
2.51228e-10
-1.27776e-09
2.71195e-10
-1.21494e-09
-3.17393e-11
-1.12453e-09
-2.01009e-10
-1.063e-09
-3.23587e-10
-9.80478e-10
-4.94686e-10
-8.70871e-10
-7.2699e-10
-6.74686e-10
-8.90624e-10
-5.30771e-10
-8.33766e-10
-3.04214e-10
-1.04105e-09
-1.36726e-10
-8.3624e-10
1.46569e-11
-8.63413e-10
1.16136e-10
-6.35702e-10
2.48515e-10
-6.32358e-10
3.60347e-10
-6.23576e-10
4.10051e-10
-5.29203e-10
4.58617e-10
-4.89872e-10
5.2701e-10
-4.74515e-10
5.87714e-10
-4.62691e-10
6.92171e-10
-4.75269e-10
7.78243e-10
-4.8083e-10
8.63902e-10
-4.75948e-10
9.43859e-10
-3.92473e-10
1.0064e-09
-3.00171e-10
1.02251e-09
-2.16606e-10
1.04334e-09
-1.67287e-10
1.04175e-09
-1.37819e-10
1.04659e-09
-1.04403e-10
1.03646e-09
2.5006e-11
1.02978e-09
6.26677e-11
9.85664e-10
2.31462e-10
9.15001e-10
3.77802e-10
9.12752e-10
4.85246e-10
9.13269e-10
7.14224e-10
9.63337e-10
8.97897e-10
9.67503e-10
1.03966e-09
5.50429e-10
7.6165e-10
8.12718e-11
3.45574e-10
2.84265e-11
1.87382e-09
3.28974e-16
5.84147e-11
-1.42185e-18
4.18968e-18
-5.65858e-19
3.49863e-18
-4.73934e-19
2.10905e-18
-4.72751e-19
1.28528e-18
-4.55895e-19
7.46411e-19
-4.08745e-19
3.58336e-19
-3.30771e-19
6.17064e-20
-2.24583e-19
-1.70062e-19
-9.45003e-20
-3.49564e-19
5.38267e-20
-4.83523e-19
2.14042e-19
-5.76429e-19
3.79636e-19
-6.32139e-19
5.44343e-19
-6.54517e-19
7.02509e-19
-6.47652e-19
8.49315e-19
-6.15858e-19
9.80848e-19
-5.63551e-19
1.09411e-18
-4.95087e-19
1.187e-18
-4.14602e-19
1.25825e-18
-3.25895e-19
1.30741e-18
-2.32357e-19
1.33466e-18
-1.36924e-19
1.34064e-18
-4.20379e-20
1.32636e-18
5.03425e-20
1.2931e-18
1.38694e-19
1.2424e-18
2.21862e-19
1.17591e-18
2.99001e-19
1.0954e-18
3.69525e-19
1.00258e-18
4.33072e-19
8.99144e-19
4.89453e-19
7.86714e-19
5.38606e-19
6.66851e-19
5.80545e-19
5.41035e-19
6.15316e-19
4.10649e-19
6.42976e-19
2.76943e-19
6.6357e-19
1.41019e-19
6.77124e-19
6.8365e-19
-5.55924e-11
2.23081e-10
-1.02988e-10
9.22255e-11
-1.44367e-10
-5.10856e-11
-1.57005e-10
-8.05611e-11
-1.79162e-10
-7.81301e-12
-2.31141e-10
1.35551e-10
-2.95215e-10
2.20489e-10
-3.46106e-10
3.5218e-10
-4.74575e-10
6.37193e-10
-6.40924e-10
8.40938e-10
-8.53495e-10
1.07855e-09
-1.05403e-09
1.26788e-09
-1.28494e-09
1.41289e-09
-1.5019e-09
1.40342e-09
-1.66208e-09
1.30123e-09
-1.79144e-09
1.24013e-09
-1.913e-09
1.14674e-09
-1.96035e-09
9.23925e-10
-2.04996e-09
8.45878e-10
-2.12201e-09
7.53347e-10
-2.23371e-09
6.22189e-10
-2.32522e-09
5.24157e-10
-2.46e-09
5.36378e-10
-2.56978e-09
4.91494e-10
-2.60248e-09
4.41791e-10
-2.68077e-09
3.84237e-10
-2.69948e-09
2.72906e-10
-2.69659e-09
2.12437e-10
-2.71229e-09
-7.60559e-11
-2.66978e-09
-2.8381e-10
-2.66887e-09
-4.8362e-10
-2.68484e-09
-6.08209e-10
-2.6352e-09
-7.55725e-10
-2.57634e-09
-9.31046e-10
-2.53972e-09
-9.54378e-10
-2.52182e-09
-9.65173e-10
-2.44564e-09
-9.94939e-10
-2.42018e-09
-9.61672e-10
-2.40787e-09
-9.20572e-10
-2.4086e-09
-8.46186e-10
-2.18775e-09
-6.58312e-10
-2.03488e-09
-4.43197e-10
-1.86181e-09
-1.87175e-10
-1.75059e-09
4.48918e-11
-1.63995e-09
1.40587e-10
-1.64693e-09
2.78178e-10
-1.64403e-09
-3.46462e-11
-1.53512e-09
-3.09913e-10
-1.51202e-09
-3.4669e-10
-1.39737e-09
-6.0933e-10
-1.3133e-09
-8.11056e-10
-1.05766e-09
-1.14627e-09
-9.03998e-10
-9.87421e-10
-6.79555e-10
-1.26549e-09
-5.40208e-10
-9.75583e-10
-4.5612e-10
-9.47499e-10
-3.58203e-10
-7.33616e-10
-1.66374e-10
-8.24183e-10
-3.58421e-11
-7.54105e-10
7.345e-11
-6.38492e-10
1.90987e-10
-6.07406e-10
3.08893e-10
-5.92418e-10
4.22626e-10
-5.76422e-10
5.20726e-10
-5.73367e-10
6.26635e-10
-5.86737e-10
7.15966e-10
-5.65276e-10
7.86507e-10
-4.63013e-10
8.21725e-10
-3.35388e-10
8.51211e-10
-2.46091e-10
8.82233e-10
-1.98308e-10
8.98729e-10
-1.54314e-10
8.91533e-10
-9.72065e-11
9.01646e-10
1.48934e-11
8.49076e-10
1.15237e-10
8.26667e-10
2.53871e-10
8.29529e-10
3.74939e-10
8.32257e-10
4.82517e-10
8.45328e-10
7.01152e-10
8.88214e-10
8.55009e-10
7.80411e-10
1.14746e-09
5.02255e-10
1.03981e-09
2.05813e-10
6.42016e-10
2.95475e-10
1.78415e-09
2.75664e-16
3.53888e-10
-3.73623e-18
-5.05389e-19
-1.95519e-18
1.71717e-18
-1.29771e-18
1.45079e-18
-1.01162e-18
9.98357e-19
-8.43969e-19
5.77866e-19
-7.05375e-19
2.18824e-19
-5.6254e-19
-8.2e-20
-4.04085e-19
-3.2941e-19
-2.28459e-19
-5.26165e-19
-3.90794e-20
-6.74105e-19
1.58332e-19
-7.75339e-19
3.57258e-19
-8.32821e-19
5.51207e-19
-8.50429e-19
7.34303e-19
-8.32833e-19
9.01622e-19
-7.85243e-19
1.04931e-18
-7.13135e-19
1.1746e-18
-6.21978e-19
1.2757e-18
-5.16971e-19
1.35179e-18
-4.02865e-19
1.40285e-18
-2.83857e-19
1.42955e-18
-1.6354e-19
1.43302e-18
-4.48719e-20
1.41471e-18
6.98093e-20
1.37627e-18
1.78727e-19
1.31953e-18
2.80583e-19
1.24644e-18
3.7447e-19
1.15894e-18
4.59803e-19
1.05896e-18
5.36267e-19
9.48297e-19
6.03755e-19
8.28653e-19
6.62309e-19
7.01622e-19
7.12057e-19
5.68695e-19
7.53158e-19
4.31243e-19
7.85763e-19
2.90497e-19
8.09989e-19
1.47545e-19
8.2592e-19
8.3361e-19
-9.6417e-12
2.32723e-10
-2.9083e-11
1.11667e-10
-8.8274e-11
8.10545e-12
-1.33532e-10
-3.5303e-11
-1.74362e-10
3.30168e-11
-1.9552e-10
1.56709e-10
-2.48305e-10
2.73273e-10
-3.51153e-10
4.55028e-10
-5.4509e-10
8.3113e-10
-8.07898e-10
1.10375e-09
-1.00637e-09
1.27702e-09
-1.14789e-09
1.40941e-09
-1.30741e-09
1.57241e-09
-1.48562e-09
1.58163e-09
-1.65661e-09
1.47222e-09
-1.74477e-09
1.32829e-09
-1.82511e-09
1.22709e-09
-1.94215e-09
1.04097e-09
-2.02774e-09
9.31462e-10
-2.06917e-09
7.94775e-10
-2.17798e-09
7.30998e-10
-2.27316e-09
6.19342e-10
-2.38706e-09
6.50272e-10
-2.43173e-09
5.3616e-10
-2.485e-09
4.9507e-10
-2.52217e-09
4.21401e-10
-2.49876e-09
2.49496e-10
-2.47171e-09
1.85383e-10
-2.58002e-09
3.22551e-11
-2.61989e-09
-2.43936e-10
-2.67005e-09
-4.33464e-10
-2.66264e-09
-6.15624e-10
-2.60115e-09
-8.17212e-10
-2.5965e-09
-9.35699e-10
-2.59895e-09
-9.51936e-10
-2.58681e-09
-9.77312e-10
-2.56576e-09
-1.01599e-09
-2.57138e-09
-9.56051e-10
-2.5906e-09
-9.01354e-10
-2.64269e-09
-7.94102e-10
-2.63764e-09
-6.63362e-10
-2.58651e-09
-4.94325e-10
-2.49722e-09
-2.7647e-10
-2.3238e-09
-1.28525e-10
-2.21631e-09
3.30964e-11
-2.18194e-09
2.43807e-10
-2.03528e-09
-1.81304e-10
-1.92099e-09
-4.24203e-10
-1.82715e-09
-4.40534e-10
-1.68162e-09
-7.54861e-10
-1.56261e-09
-9.30057e-10
-1.38604e-09
-1.32284e-09
-1.18622e-09
-1.18724e-09
-9.98961e-10
-1.45275e-09
-8.31037e-10
-1.1435e-09
-7.44735e-10
-1.0338e-09
-5.54414e-10
-9.23935e-10
-3.53804e-10
-1.02479e-09
-3.06029e-10
-8.01878e-10
-2.44904e-10
-6.99614e-10
-1.48612e-10
-7.03695e-10
-4.8986e-11
-6.92042e-10
6.12405e-11
-6.86645e-10
1.79459e-10
-6.91583e-10
3.21173e-10
-7.28448e-10
4.67211e-10
-7.11311e-10
5.76372e-10
-5.72173e-10
6.20522e-10
-3.79535e-10
6.62218e-10
-2.87785e-10
6.7845e-10
-2.14539e-10
6.95303e-10
-1.71165e-10
7.0882e-10
-1.10723e-10
7.04599e-10
1.91148e-11
6.76475e-10
1.43361e-10
6.61905e-10
2.6844e-10
6.8932e-10
3.47523e-10
6.77699e-10
4.94137e-10
6.89412e-10
6.89438e-10
6.75031e-10
8.6939e-10
6.29478e-10
1.19301e-09
5.13276e-10
1.15601e-09
2.28212e-10
9.27078e-10
2.67642e-10
1.74472e-09
1.48841e-16
6.21529e-10
-2.74566e-18
1.00566e-18
-2.22126e-18
1.19233e-18
-1.75014e-18
9.78837e-19
-1.43211e-18
6.7932e-19
-1.20301e-18
3.47571e-19
-1.0062e-18
2.06898e-20
-8.0995e-19
-2.79536e-19
-6.0084e-19
-5.39741e-19
-3.76399e-19
-7.51783e-19
-1.40314e-19
-9.11488e-19
1.00851e-19
-1.01802e-18
3.3965e-19
-1.07331e-18
5.68803e-19
-1.08138e-18
7.81894e-19
-1.04774e-18
9.73729e-19
-9.78799e-19
1.14047e-18
-8.81357e-19
1.2796e-18
-7.62221e-19
1.38981e-18
-6.27842e-19
1.4708e-18
-4.84057e-19
1.52317e-18
-3.35947e-19
1.54821e-18
-1.87777e-19
1.5477e-18
-4.29964e-20
1.52362e-18
9.57297e-20
1.47813e-18
2.26441e-19
1.41342e-18
3.47772e-19
1.33177e-18
4.58838e-19
1.23541e-18
5.59137e-19
1.12645e-18
6.48474e-19
1.00685e-18
7.26887e-19
8.78401e-19
7.94574e-19
7.42724e-19
8.51823e-19
6.013e-19
8.98939e-19
4.55469e-19
9.36201e-19
3.06428e-19
9.63829e-19
1.55235e-19
9.81982e-19
9.90772e-19
4.67777e-11
1.85945e-10
4.38724e-11
1.14572e-10
-4.61332e-12
5.6591e-11
-9.43341e-11
5.44175e-11
-1.81651e-10
1.20334e-10
-2.33577e-10
2.08635e-10
-2.3993e-10
2.79625e-10
-4.75767e-10
6.90864e-10
-6.29511e-10
9.84875e-10
-8.47854e-10
1.32209e-09
-1.07278e-09
1.50194e-09
-1.29204e-09
1.62866e-09
-1.38218e-09
1.66255e-09
-1.49837e-09
1.69781e-09
-1.65441e-09
1.62826e-09
-1.74344e-09
1.41731e-09
-1.78641e-09
1.27005e-09
-1.89425e-09
1.14881e-09
-1.99094e-09
1.02815e-09
-2.03585e-09
8.39683e-10
-2.0928e-09
7.87947e-10
-2.18572e-09
7.12264e-10
-2.26349e-09
7.28043e-10
-2.28253e-09
5.55198e-10
-2.32076e-09
5.33302e-10
-2.31393e-09
4.1457e-10
-2.28722e-09
2.22788e-10
-2.24649e-09
1.44652e-10
-2.25962e-09
4.53777e-11
-2.36248e-09
-1.41074e-10
-2.45014e-09
-3.45809e-10
-2.47046e-09
-5.95302e-10
-2.52838e-09
-7.59296e-10
-2.60113e-09
-8.62944e-10
-2.58606e-09
-9.6701e-10
-2.58705e-09
-9.76327e-10
-2.59633e-09
-1.00671e-09
-2.61356e-09
-9.38826e-10
-2.63788e-09
-8.77029e-10
-2.69273e-09
-7.39252e-10
-2.73541e-09
-6.20682e-10
-2.7504e-09
-4.79336e-10
-2.70519e-09
-3.21685e-10
-2.60456e-09
-2.29156e-10
-2.54019e-09
-3.12754e-11
-2.42159e-09
1.25211e-10
-2.27786e-09
-3.25036e-10
-2.15767e-09
-5.44385e-10
-1.98918e-09
-6.09026e-10
-1.85168e-09
-8.92356e-10
-1.64661e-09
-1.13513e-09
-1.48994e-09
-1.4795e-09
-1.28614e-09
-1.39105e-09
-1.14606e-09
-1.59282e-09
-9.36543e-10
-1.35302e-09
-7.46287e-10
-1.22405e-09
-4.76132e-10
-1.19409e-09
-3.64714e-10
-1.13621e-09
-3.38933e-10
-8.27657e-10
-2.67866e-10
-7.70679e-10
-2.09676e-10
-7.61883e-10
-1.6328e-10
-7.38434e-10
-1.10489e-10
-7.39433e-10
-4.75311e-11
-7.54538e-10
1.55645e-11
-7.91541e-10
8.00295e-11
-7.75773e-10
1.80599e-10
-6.72739e-10
3.3692e-10
-5.35854e-10
4.40222e-10
-3.91085e-10
4.79458e-10
-2.53773e-10
4.95746e-10
-1.87451e-10
4.95118e-10
-1.10095e-10
5.13398e-10
8.35452e-13
5.37566e-10
1.19194e-10
5.60394e-10
2.45611e-10
5.24171e-10
3.83745e-10
4.59128e-10
5.59179e-10
4.32978e-10
7.15586e-10
4.28711e-10
8.73656e-10
4.37947e-10
1.18377e-09
4.25339e-10
1.16861e-09
3.81063e-10
9.71353e-10
4.00987e-10
1.7248e-09
-1.37119e-17
1.02252e-09
-2.92593e-18
1.38539e-18
-2.43441e-18
7.00274e-19
-2.04965e-18
5.93224e-19
-1.76386e-18
3.9238e-19
-1.52989e-18
1.12124e-19
-1.30643e-18
-2.04518e-19
-1.07016e-18
-5.17617e-19
-8.12882e-19
-7.98692e-19
-5.36104e-19
-1.03002e-18
-2.4685e-19
-1.20216e-18
4.55646e-20
-1.31196e-18
3.31581e-19
-1.36091e-18
6.02441e-19
-1.35379e-18
8.50837e-19
-1.29755e-18
1.07117e-18
-1.20032e-18
1.25961e-18
-1.07067e-18
1.41398e-18
-9.17065e-19
1.53359e-18
-7.47444e-19
1.61891e-18
-5.68878e-19
1.67133e-18
-3.87405e-19
1.69299e-18
-2.07975e-19
1.68643e-18
-3.44789e-20
1.65434e-18
1.30177e-19
1.59946e-18
2.83953e-19
1.52449e-18
4.25521e-19
1.43207e-18
5.54126e-19
1.32475e-18
6.69446e-19
1.20486e-18
7.71496e-19
1.07454e-18
8.60533e-19
9.3565e-19
9.36972e-19
7.8984e-19
1.00131e-18
6.38561e-19
1.05403e-18
4.83097e-19
1.09558e-18
3.24581e-19
1.12632e-18
1.64024e-19
1.14649e-18
1.15629e-18
-3.59705e-11
2.21916e-10
-1.12715e-10
1.91316e-10
-1.53713e-10
9.75881e-11
-1.37665e-10
3.83693e-11
-1.29518e-10
1.12186e-10
-1.46914e-10
2.2603e-10
-2.82817e-10
4.15529e-10
-4.35443e-10
8.4349e-10
-6.41961e-10
1.19139e-09
-9.20078e-10
1.60021e-09
-1.11889e-09
1.70075e-09
-1.27921e-09
1.78898e-09
-1.42605e-09
1.80938e-09
-1.51361e-09
1.78538e-09
-1.60511e-09
1.71975e-09
-1.68509e-09
1.49729e-09
-1.73979e-09
1.32475e-09
-1.79801e-09
1.20704e-09
-1.88685e-09
1.11698e-09
-1.99174e-09
9.44571e-10
-2.03875e-09
8.34962e-10
-2.11654e-09
7.90045e-10
-2.13839e-09
7.49891e-10
-2.15632e-09
5.73136e-10
-2.15293e-09
5.29912e-10
-2.16053e-09
4.22162e-10
-2.09941e-09
1.61674e-10
-2.08219e-09
1.27428e-10
-2.06024e-09
2.3424e-11
-2.09609e-09
-1.05224e-10
-2.18459e-09
-2.57309e-10
-2.26047e-09
-5.19421e-10
-2.4067e-09
-6.13071e-10
-2.38532e-09
-8.84317e-10
-2.3872e-09
-9.65132e-10
-2.48288e-09
-8.80654e-10
-2.5467e-09
-9.42894e-10
-2.57366e-09
-9.11863e-10
-2.58055e-09
-8.70143e-10
-2.67265e-09
-6.47148e-10
-2.71047e-09
-5.82871e-10
-2.74048e-09
-4.4932e-10
-2.73218e-09
-3.29987e-10
-2.66106e-09
-3.00273e-10
-2.54684e-09
-1.45501e-10
-2.3184e-09
-1.03221e-10
-2.28248e-09
-3.60962e-10
-2.19431e-09
-6.32547e-10
-2.00371e-09
-7.99634e-10
-1.8315e-09
-1.06456e-09
-1.57862e-09
-1.38801e-09
-1.44985e-09
-1.60827e-09
-1.20921e-09
-1.63168e-09
-1.1041e-09
-1.69793e-09
-8.84945e-10
-1.57218e-09
-6.83011e-10
-1.42598e-09
-5.09393e-10
-1.3677e-09
-4.99897e-10
-1.1457e-09
-3.85483e-10
-9.42069e-10
-2.87846e-10
-8.68314e-10
-2.46089e-10
-8.03638e-10
-2.28376e-10
-7.56145e-10
-2.15013e-10
-7.52793e-10
-2.11685e-10
-7.57864e-10
-2.35737e-10
-7.67486e-10
-2.40996e-10
-7.70511e-10
-2.08243e-10
-7.0549e-10
-1.05892e-10
-6.38202e-10
6.86309e-11
-5.65606e-10
2.17018e-10
-4.02158e-10
2.62969e-10
-2.33401e-10
2.61384e-10
-1.08508e-10
2.74884e-10
-1.26639e-11
2.99567e-10
9.4511e-11
3.54365e-10
1.90813e-10
3.90101e-10
3.48008e-10
4.13591e-10
5.35688e-10
3.8721e-10
7.41967e-10
3.52066e-10
9.08799e-10
3.77265e-10
1.15857e-09
3.56679e-10
1.1892e-09
3.20006e-10
1.00803e-09
3.85815e-10
1.65899e-09
-1.79268e-16
1.40833e-09
-2.99784e-18
2.2132e-18
-2.54114e-18
2.43016e-19
-2.2505e-18
3.01869e-19
-2.04412e-18
1.85049e-19
-1.84653e-18
-8.68952e-20
-1.61952e-18
-4.33328e-19
-1.35123e-18
-7.87963e-19
-1.04421e-18
-1.10771e-18
-7.08246e-19
-1.36761e-18
-3.56656e-19
-1.55518e-18
-3.38519e-21
-1.66666e-18
3.38701e-19
-1.70442e-18
6.58684e-19
-1.67507e-18
9.48071e-19
-1.58794e-18
1.20082e-18
-1.45369e-18
1.41321e-18
-1.28328e-18
1.5836e-18
-1.08729e-18
1.71216e-18
-8.75403e-19
1.80038e-18
-6.56063e-19
1.85076e-18
-4.36328e-19
1.86649e-18
-2.21811e-19
1.85108e-18
-1.67633e-20
1.80811e-18
1.75793e-19
1.74103e-18
3.53874e-19
1.65309e-18
5.16338e-19
1.54739e-18
6.6269e-19
1.4268e-18
7.9291e-19
1.2939e-18
9.07326e-19
1.15098e-18
1.0065e-18
9.99985e-19
1.09114e-18
8.42564e-19
1.16199e-18
6.80113e-19
1.21978e-18
5.13831e-19
1.26515e-18
3.44756e-19
1.29861e-18
1.73822e-19
1.32055e-18
1.33123e-18
4.17467e-12
2.17741e-10
-2.70649e-11
2.22555e-10
-1.19069e-10
1.89591e-10
-1.96631e-10
1.15932e-10
-1.9105e-10
1.06604e-10
-1.32504e-10
1.67483e-10
-2.87495e-10
5.7052e-10
-5.81417e-10
1.13741e-09
-8.74438e-10
1.48441e-09
-9.88076e-10
1.71384e-09
-1.12539e-09
1.83807e-09
-1.27635e-09
1.93994e-09
-1.40367e-09
1.9367e-09
-1.51157e-09
1.89327e-09
-1.59128e-09
1.79947e-09
-1.66211e-09
1.56812e-09
-1.71632e-09
1.37896e-09
-1.75449e-09
1.24521e-09
-1.80426e-09
1.16674e-09
-1.89294e-09
1.03325e-09
-1.95513e-09
8.97157e-10
-1.96828e-09
8.03193e-10
-1.98418e-09
7.65789e-10
-2.02451e-09
6.13465e-10
-1.99556e-09
5.00969e-10
-2.00923e-09
4.35825e-10
-2.0252e-09
1.77651e-10
-1.94075e-09
4.29775e-11
-1.91099e-09
-6.33574e-12
-1.93174e-09
-8.44759e-11
-1.92949e-09
-2.59566e-10
-2.02706e-09
-4.21845e-10
-2.11968e-09
-5.20457e-10
-2.12833e-09
-8.75665e-10
-2.25592e-09
-8.37541e-10
-2.33164e-09
-8.04942e-10
-2.33552e-09
-9.39019e-10
-2.32198e-09
-9.254e-10
-2.38942e-09
-8.027e-10
-2.43593e-09
-6.00637e-10
-2.48143e-09
-5.37372e-10
-2.50837e-09
-4.22385e-10
-2.52358e-09
-3.14779e-10
-2.51442e-09
-3.09433e-10
-2.39642e-09
-2.635e-10
-2.18588e-09
-3.13751e-10
-2.02104e-09
-5.25806e-10
-1.87136e-09
-7.8222e-10
-1.70798e-09
-9.63017e-10
-1.50964e-09
-1.2629e-09
-1.31513e-09
-1.58252e-09
-1.22234e-09
-1.70106e-09
-1.08341e-09
-1.77062e-09
-9.72204e-10
-1.80913e-09
-8.06322e-10
-1.73806e-09
-6.81127e-10
-1.55118e-09
-5.83599e-10
-1.46523e-09
-4.99104e-10
-1.23019e-09
-3.66999e-10
-1.07417e-09
-3.09769e-10
-9.25542e-10
-2.87247e-10
-8.26158e-10
-2.85704e-10
-7.57686e-10
-2.97733e-10
-7.40763e-10
-3.34455e-10
-7.21139e-10
-3.57505e-10
-7.44433e-10
-3.78349e-10
-7.49665e-10
-3.63473e-10
-7.20363e-10
-3.3679e-10
-6.64882e-10
-2.75902e-10
-6.26492e-10
-1.54571e-10
-5.23487e-10
-6.67719e-11
-3.21199e-10
-1.36362e-11
-1.61643e-10
1.14397e-11
-3.77391e-11
3.22806e-11
7.36705e-11
4.66931e-11
1.764e-10
7.21684e-11
3.22533e-10
7.69568e-11
5.309e-10
1.12558e-10
7.06366e-10
1.31649e-10
8.89708e-10
1.44697e-10
1.14553e-09
2.07969e-10
1.12593e-09
2.24086e-10
9.91909e-10
2.89186e-10
1.59389e-09
-3.23113e-16
1.69752e-09
-3.10788e-18
1.90008e-18
-2.48204e-18
-3.83183e-19
-2.36732e-18
1.8691e-19
-2.31606e-18
1.33682e-19
-2.19297e-18
-2.1086e-19
-1.97416e-18
-6.53468e-19
-1.67097e-18
-1.09283e-18
-1.30411e-18
-1.47633e-18
-8.95817e-19
-1.77729e-18
-4.68137e-19
-1.98399e-18
-4.11389e-20
-2.09473e-18
3.6805e-19
-2.11468e-18
7.45815e-19
-2.05383e-18
1.08232e-18
-1.92512e-18
1.37123e-18
-1.74276e-18
1.60919e-18
-1.52095e-18
1.79549e-18
-1.27291e-18
1.9315e-18
-1.01037e-18
2.02012e-18
-7.43318e-19
2.06528e-18