/*--------------------------------*- C++ -*----------------------------------*\
  =========                 |
  \\      /  F ield         | OpenFOAM: The Open Source CFD Toolbox
   \\    /   O peration     | Website:  https://openfoam.org
    \\  /    A nd           | Version:  6
     \\/     M anipulation  |
\*---------------------------------------------------------------------------*/
FoamFile
{
    version     2.0;
    format      ascii;
    class       volScalarField;
    location    "4600";
    object      T;
}
// * * * * * * * * * * * * * * * * * * * * * * * * * * * * * * * * * * * * * //

dimensions      [0 0 0 1 0 0 0];

internalField   nonuniform List<scalar> 
4800
(
552.484
552.353
552.221
552.09
551.959
551.829
551.699
551.57
551.442
551.315
551.191
551.069
550.951
550.838
550.73
550.627
550.531
550.442
550.359
550.284
550.215
550.152
550.093
550.039
549.989
549.941
549.896
549.853
549.812
549.772
549.733
549.695
549.656
549.617
549.577
549.536
549.494
549.449
549.403
549.355
549.304
549.25
549.194
549.136
549.077
549.015
548.953
548.89
548.826
548.762
548.696
548.629
548.561
548.491
548.419
548.344
548.268
548.188
548.107
548.022
547.935
547.846
547.753
547.658
547.56
547.46
547.356
547.248
547.137
547.022
546.903
546.778
546.649
546.513
546.371
546.222
546.066
545.903
545.734
545.56
545.383
545.203
545.026
544.861
544.718
544.59
544.47
544.353
544.237
544.122
544.007
543.892
543.776
543.661
543.545
543.429
543.313
543.197
543.081
542.965
542.848
542.731
542.614
542.497
542.38
542.263
542.145
542.027
541.91
541.792
541.674
541.556
541.438
541.319
541.201
541.083
540.965
540.846
540.728
540.609
552.484
552.352
552.219
552.088
551.957
551.827
551.697
551.568
551.44
551.313
551.188
551.066
550.948
550.835
550.727
550.625
550.53
550.442
550.36
550.286
550.218
550.155
550.097
550.043
549.993
549.946
549.901
549.859
549.818
549.778
549.739
549.7
549.662
549.623
549.583
549.542
549.499
549.454
549.408
549.36
549.309
549.255
549.199
549.141
549.082
549.021
548.959
548.896
548.833
548.768
548.703
548.636
548.568
548.498
548.425
548.35
548.273
548.193
548.111
548.026
547.938
547.848
547.755
547.659
547.56
547.459
547.354
547.247
547.135
547.019
546.899
546.774
546.645
546.509
546.367
546.218
546.061
545.897
545.724
545.546
545.365
545.185
545.007
544.839
544.703
544.582
544.466
544.351
544.237
544.122
544.007
543.892
543.777
543.661
543.545
543.429
543.313
543.197
543.081
542.965
542.848
542.731
542.614
542.497
542.38
542.263
542.145
542.027
541.91
541.792
541.674
541.556
541.438
541.319
541.201
541.083
540.964
540.846
540.728
540.609
552.483
552.35
552.217
552.085
551.954
551.823
551.693
551.563
551.435
551.309
551.184
551.063
550.945
550.832
550.724
550.624
550.53
550.444
550.364
550.291
550.224
550.162
550.104
550.051
550.002
549.955
549.911
549.868
549.828
549.788
549.75
549.712
549.673
549.634
549.594
549.552
549.509
549.464
549.418
549.369
549.318
549.264
549.209
549.151
549.092
549.032
548.97
548.908
548.845
548.781
548.716
548.649
548.581
548.51
548.437
548.362
548.284
548.203
548.119
548.032
547.943
547.852
547.757
547.66
547.56
547.458
547.352
547.243
547.131
547.014
546.893
546.768
546.637
546.501
546.359
546.21
546.055
545.892
545.721
545.544
545.361
545.172
544.977
544.784
544.674
544.57
544.461
544.349
544.236
544.122
544.007
543.892
543.777
543.661
543.545
543.43
543.314
543.197
543.081
542.965
542.848
542.731
542.614
542.497
542.38
542.263
542.145
542.027
541.91
541.792
541.674
541.556
541.438
541.319
541.201
541.083
540.964
540.846
540.728
540.609
552.483
552.349
552.215
552.082
551.95
551.819
551.688
551.559
551.43
551.304
551.179
551.058
550.941
550.83
550.724
550.625
550.533
550.448
550.37
550.299
550.233
550.172
550.115
550.063
550.014
549.968
549.924
549.883
549.843
549.804
549.766
549.728
549.689
549.65
549.609
549.568
549.524
549.479
549.432
549.383
549.331
549.278
549.223
549.166
549.107
549.048
548.987
548.926
548.863
548.8
548.735
548.668
548.6
548.529
548.455
548.378
548.299
548.216
548.13
548.042
547.951
547.857
547.761
547.662
547.561
547.457
547.35
547.239
547.125
547.007
546.885
546.759
546.627
546.491
546.349
546.201
546.046
545.885
545.718
545.542
545.359
545.163
544.943
544.648
544.641
544.561
544.459
544.349
544.237
544.122
544.008
543.893
543.777
543.662
543.546
543.43
543.314
543.198
543.081
542.965
542.848
542.731
542.614
542.497
542.38
542.263
542.145
542.027
541.91
541.792
541.674
541.556
541.438
541.319
541.201
541.083
540.964
540.846
540.728
540.609
552.482
552.347
552.213
552.079
551.946
551.814
551.683
551.553
551.425
551.299
551.175
551.055
550.939
550.829
550.725
550.628
550.539
550.456
550.38
550.309
550.245
550.185
550.129
550.078
550.03
549.985
549.942
549.901
549.862
549.824
549.786
549.749
549.71
549.671
549.631
549.588
549.545
549.499
549.451
549.402
549.35
549.297
549.242
549.185
549.128
549.069
549.009
548.949
548.888
548.825
548.76
548.694
548.624
548.552
548.477
548.399
548.318
548.233
548.145
548.055
547.961
547.865
547.767
547.666
547.562
547.456
547.347
547.235
547.119
547
546.876
546.749
546.616
546.479
546.337
546.19
546.037
545.878
545.713
545.541
545.361
545.173
544.978
544.792
544.68
544.574
544.464
544.352
544.238
544.123
544.008
543.893
543.778
543.662
543.546
543.43
543.314
543.198
543.081
542.965
542.848
542.731
542.614
542.497
542.38
542.263
542.145
542.027
541.91
541.792
541.674
541.556
541.438
541.319
541.201
541.083
540.964
540.846
540.728
540.609
552.482
552.346
552.21
552.076
551.942
551.81
551.678
551.548
551.42
551.294
551.171
551.052
550.938
550.83
550.728
550.634
550.546
550.465
550.391
550.322
550.259
550.201
550.147
550.096
550.049
550.005
549.964
549.924
549.886
549.848
549.811
549.774
549.736
549.697
549.657
549.615
549.571
549.525
549.477
549.427
549.375
549.322
549.267
549.211
549.154
549.096
549.038
548.979
548.918
548.856
548.792
548.725
548.655
548.583
548.506
548.425
548.342
548.255
548.164
548.071
547.975
547.876
547.775
547.671
547.565
547.457
547.345
547.231
547.113
546.992
546.867
546.738
546.605
546.468
546.325
546.178
546.026
545.869
545.707
545.538
545.365
545.187
545.01
544.847
544.712
544.59
544.472
544.356
544.24
544.125
544.009
543.894
543.778
543.662
543.547
543.431
543.314
543.198
543.082
542.965
542.848
542.731
542.614
542.497
542.38
542.263
542.145
542.027
541.91
541.792
541.674
541.556
541.438
541.319
541.201
541.083
540.964
540.846
540.728
540.609
552.482
552.345
552.208
552.073
551.938
551.805
551.673
551.543
551.415
551.289
551.167
551.05
550.938
550.832
550.733
550.641
550.555
550.477
550.404
550.337
550.276
550.219
550.166
550.118
550.072
550.03
549.989
549.951
549.914
549.877
549.841
549.804
549.767
549.729
549.689
549.647
549.603
549.558
549.509
549.459
549.407
549.354
549.3
549.244
549.188
549.131
549.075
549.017
548.957
548.896
548.832
548.765
548.695
548.621
548.542
548.459
548.373
548.283
548.19
548.093
547.993
547.891
547.787
547.68
547.571
547.459
547.345
547.228
547.108
546.985
546.859
546.728
546.594
546.456
546.313
546.166
546.015
545.859
545.699
545.534
545.366
545.196
545.029
544.873
544.731
544.6
544.477
544.358
544.241
544.125
544.01
543.894
543.779
543.663
543.547
543.431
543.315
543.198
543.082
542.965
542.849
542.732
542.615
542.497
542.38
542.263
542.145
542.027
541.91
541.792
541.674
541.556
541.438
541.319
541.201
541.083
540.964
540.846
540.728
540.609
552.481
552.343
552.206
552.069
551.934
551.8
551.668
551.538
551.41
551.285
551.164
551.048
550.939
550.835
550.739
550.649
550.566
550.49
550.419
550.354
550.295
550.24
550.189
550.142
550.098
550.057
550.018
549.981
549.945
549.91
549.875
549.839
549.803
549.765
549.726
549.685
549.642
549.597
549.549
549.5
549.448
549.395
549.341
549.287
549.232
549.176
549.121
549.064
549.006
548.945
548.882
548.815
548.744
548.668
548.587
548.502
548.412
548.319
548.222
548.121
548.018
547.912
547.803
547.693
547.58
547.464
547.347
547.227
547.105
546.98
546.852
546.72
546.584
546.445
546.302
546.155
546.004
545.849
545.69
545.528
545.364
545.199
545.037
544.882
544.737
544.603
544.478
544.358
544.241
544.125
544.01
543.894
543.779
543.663
543.548
543.432
543.315
543.199
543.082
542.966
542.849
542.732
542.615
542.497
542.38
542.263
542.145
542.027
541.91
541.792
541.674
541.556
541.438
541.319
541.201
541.083
540.964
540.846
540.728
540.609
552.48
552.341
552.203
552.065
551.929
551.795
551.662
551.532
551.404
551.281
551.161
551.048
550.941
550.84
550.746
550.659
550.578
550.504
550.436
550.373
550.316
550.263
550.214
550.169
550.126
550.087
550.05
550.014
549.98
549.946
549.912
549.878
549.843
549.807
549.769
549.729
549.687
549.643
549.596
549.548
549.497
549.446
549.393
549.34
549.286
549.232
549.178
549.123
549.065
549.006
548.943
548.875
548.802
548.725
548.641
548.553
548.46
548.363
548.262
548.157
548.049
547.939
547.826
547.711
547.594
547.474
547.353
547.23
547.105
546.978
546.847
546.713
546.576
546.436
546.292
546.145
545.994
545.839
545.681
545.521
545.358
545.195
545.034
544.877
544.73
544.596
544.472
544.354
544.238
544.123
544.009
543.894
543.779
543.664
543.548
543.432
543.316
543.199
543.083
542.966
542.849
542.732
542.615
542.498
542.38
542.263
542.145
542.027
541.91
541.792
541.674
541.556
541.438
541.319
541.201
541.083
540.964
540.846
540.728
540.609
552.48
552.339
552.199
552.06
551.924
551.789
551.656
551.526
551.399
551.276
551.159
551.048
550.943
550.845
550.754
550.67
550.592
550.52
550.454
550.394
550.338
550.288
550.241
550.197
550.157
550.12
550.084
550.051
550.018
549.985
549.953
549.921
549.888
549.853
549.817
549.779
549.739
549.696
549.651
549.604
549.556
549.506
549.454
549.403
549.351
549.298
549.246
549.192
549.136
549.077
549.013
548.945
548.871
548.791
548.705
548.613
548.516
548.414
548.308
548.199
548.087
547.972
547.854
547.735
547.613
547.49
547.365
547.238
547.11
546.979
546.846
546.71
546.571
546.429
546.284
546.135
545.984
545.829
545.672
545.511
545.348
545.184
545.021
544.86
544.709
544.578
544.459
544.345
544.233
544.121
544.008
543.894
543.779
543.664
543.549
543.433
543.317
543.2
543.083
542.966
542.85
542.732
542.615
542.498
542.38
542.263
542.145
542.027
541.91
541.792
541.674
541.556
541.437
541.319
541.201
541.083
540.964
540.846
540.728
540.609
552.479
552.337
552.195
552.055
551.917
551.782
551.648
551.518
551.393
551.273
551.158
551.049
550.947
550.852
550.763
550.682
550.607
550.537
550.474
550.416
550.363
550.314
550.27
550.229
550.191
550.155
550.122
550.09
550.059
550.028
549.998
549.968
549.937
549.904
549.87
549.834
549.797
549.757
549.714
549.669
549.623
549.575
549.526
549.476
549.426
549.376
549.324
549.272
549.216
549.157
549.094
549.024
548.948
548.866
548.776
548.681
548.579
548.473
548.362
548.248
548.13
548.01
547.888
547.764
547.638
547.511
547.382
547.252
547.12
546.986
546.85
546.711
546.569
546.425
546.278
546.129
545.976
545.821
545.662
545.501
545.336
545.169
544.998
544.827
544.667
544.545
544.438
544.333
544.226
544.117
544.006
543.894
543.78
543.665
543.55
543.434
543.317
543.201
543.084
542.967
542.85
542.733
542.615
542.498
542.381
542.263
542.145
542.028
541.91
541.792
541.674
541.556
541.437
541.319
541.201
541.083
540.964
540.846
540.728
540.609
552.478
552.334
552.191
552.05
551.911
551.774
551.641
551.512
551.387
551.269
551.157
551.051
550.952
550.859
550.774
550.695
550.623
550.556
550.495
550.44
550.389
550.343
550.301
550.262
550.226
550.193
550.162
550.132
550.103
550.075
550.047
550.019
549.99
549.96
549.929
549.896
549.861
549.824
549.784
549.742
549.698
549.653
549.607
549.56
549.512
549.463
549.412
549.36
549.305
549.246
549.182
549.111
549.034
548.948
548.856
548.756
548.65
548.539
548.423
548.303
548.18
548.054
547.927
547.798
547.668
547.537
547.404
547.27
547.135
546.997
546.858
546.716
546.572
546.426
546.277
546.125
545.971
545.815
545.655
545.492
545.325
545.152
544.97
544.777
544.583
544.496
544.413
544.32
544.22
544.114
544.005
543.893
543.78
543.666
543.55
543.435
543.318
543.202
543.085
542.968
542.851
542.733
542.616
542.498
542.381
542.263
542.145
542.028
541.91
541.792
541.674
541.556
541.437
541.319
541.201
541.083
540.964
540.846
540.728
540.609
552.477
552.331
552.186
552.044
551.904
551.767
551.633
551.505
551.383
551.267
551.157
551.054
550.958
550.868
550.786
550.71
550.641
550.577
550.519
550.466
550.418
550.374
550.334
550.298
550.265
550.234
550.205
550.177
550.151
550.125
550.1
550.074
550.048
550.022
549.993
549.963
549.932
549.898
549.861
549.823
549.782
549.74
549.696
549.651
549.605
549.558
549.509
549.457
549.402
549.343
549.278
549.206
549.126
549.038
548.942
548.839
548.728
548.611
548.49
548.364
548.235
548.104
547.971
547.837
547.703
547.568
547.431
547.294
547.155
547.014
546.871
546.726
546.579
546.43
546.279
546.125
545.969
545.811
545.65
545.486
545.316
545.138
544.945
544.716
544.391
544.442
544.394
544.312
544.216
544.113
544.005
543.894
543.781
543.667
543.551
543.436
543.319
543.203
543.086
542.968
542.851
542.734
542.616
542.499
542.381
542.263
542.146
542.028
541.91
541.792
541.674
541.556
541.437
541.319
541.201
541.083
540.964
540.846
540.728
540.609
552.476
552.328
552.182
552.039
551.898
551.76
551.628
551.501
551.38
551.267
551.159
551.059
550.966
550.88
550.801
550.728
550.661
550.601
550.545
550.495
550.45
550.409
550.371
550.338
550.307
550.278
550.252
550.227
550.203
550.18
550.157
550.135
550.112
550.088
550.063
550.037
550.009
549.978
549.946
549.91
549.873
549.834
549.793
549.75
549.706
549.66
549.612
549.561
549.506
549.446
549.38
549.307
549.225
549.134
549.035
548.927
548.812
548.69
548.562
548.43
548.294
548.157
548.019
547.88
547.742
547.602
547.462
547.321
547.179
547.034
546.888
546.74
546.59
546.438
546.284
546.128
545.97
545.81
545.648
545.483
545.314
545.138
544.953
544.759
544.572
544.488
544.407
544.316
544.218
544.113
544.005
543.895
543.782
543.668
543.553
543.437
543.32
543.204
543.087
542.969
542.852
542.734
542.617
542.499
542.381
542.264
542.146
542.028
541.91
541.792
541.674
541.556
541.437
541.319
541.201
541.083
540.964
540.846
540.728
540.609
552.475
552.326
552.179
552.035
551.893
551.756
551.625
551.5
551.381
551.27
551.166
551.068
550.978
550.895
550.819
550.75
550.686
550.629
550.576
550.529
550.486
550.448
550.413
550.382
550.353
550.327
550.303
550.28
550.259
550.239
550.219
550.2
550.18
550.159
550.138
550.116
550.091
550.065
550.036
550.004
549.97
549.934
549.896
549.856
549.813
549.769
549.721
549.67
549.615
549.555
549.488
549.413
549.329
549.235
549.132
549.02
548.9
548.773
548.639
548.5
548.358
548.215
548.071
547.927
547.784
547.64
547.496
547.352
547.206
547.058
546.908
546.757
546.603
546.448
546.291
546.132
545.973
545.812
545.649
545.484
545.317
545.146
544.973
544.802
544.647
544.529
544.426
544.325
544.222
544.116
544.007
543.896
543.783
543.669
543.554
543.438
543.322
543.205
543.088
542.97
542.853
542.735
542.617
542.5
542.382
542.264
542.146
542.028
541.91
541.792
541.674
541.556
541.437
541.319
541.201
541.083
540.964
540.846
540.728
540.609
552.475
552.326
552.179
552.035
551.894
551.758
551.628
551.505
551.389
551.28
551.178
551.084
550.997
550.918
550.845
550.779
550.718
550.664
550.614
550.57
550.53
550.493
550.461
550.432
550.405
550.381
550.359
550.339
550.32
550.303
550.286
550.269
550.252
550.235
550.217
550.198
550.178
550.155
550.129
550.101
550.071
550.038
550.003
549.965
549.925
549.881
549.834
549.783
549.728
549.667
549.598
549.521
549.435
549.339
549.233
549.117
548.992
548.859
548.72
548.575
548.427
548.277
548.127
547.978
547.83
547.682
547.534
547.385
547.235
547.083
546.93
546.775
546.618
546.46
546.3
546.138
545.976
545.814
545.65
545.485
545.319
545.152
544.986
544.825
544.678
544.552
544.44
544.333
544.227
544.119
544.009
543.898
543.785
543.67
543.555
543.439
543.323
543.206
543.089
542.971
542.854
542.736
542.618
542.5
542.382
542.264
542.146
542.028
541.91
541.792
541.674
541.556
541.438
541.319
541.201
541.083
540.964
540.846
540.728
540.609
552.476
552.329
552.184
552.041
551.902
551.768
551.641
551.52
551.406
551.3
551.201
551.11
551.027
550.951
550.882
550.819
550.762
550.71
550.663
550.621
550.583
550.549
550.518
550.49
550.465
550.443
550.422
550.403
550.387
550.371
550.356
550.342
550.328
550.313
550.299
550.283
550.265
550.246
550.224
550.2
550.173
550.143
550.111
550.075
550.037
549.994
549.948
549.897
549.841
549.778
549.708
549.63
549.542
549.443
549.333
549.214
549.086
548.949
548.804
548.653
548.498
548.343
548.188
548.034
547.881
547.729
547.576
547.422
547.267
547.111
546.954
546.795
546.634
546.472
546.309
546.145
545.98
545.815
545.65
545.484
545.318
545.152
544.988
544.829
544.682
544.557
544.445
544.337
544.23
544.121
544.011
543.899
543.786
543.672
543.557
543.441
543.324
543.207
543.09
542.972
542.854
542.737
542.619
542.501
542.383
542.265
542.147
542.028
541.91
541.792
541.674
541.556
541.438
541.319
541.201
541.083
540.964
540.846
540.728
540.609
552.478
552.336
552.195
552.056
551.922
551.791
551.667
551.549
551.438
551.335
551.24
551.153
551.073
551.001
550.936
550.876
550.823
550.774
550.73
550.69
550.653
550.619
550.589
550.561
550.536
550.513
550.493
550.475
550.458
550.443
550.429
550.416
550.404
550.392
550.379
550.365
550.35
550.334
550.315
550.294
550.27
550.243
550.213
550.18
550.143
550.102
550.056
550.005
549.947
549.883
549.812
549.732
549.642
549.541
549.43
549.308
549.177
549.036
548.887
548.731
548.571
548.411
548.252
548.094
547.937
547.781
547.624
547.465
547.305
547.143
546.979
546.815
546.65
546.484
546.318
546.15
545.983
545.815
545.647
545.479
545.311
545.143
544.977
544.815
544.66
544.546
544.442
544.338
544.231
544.123
544.013
543.901
543.787
543.673
543.558
543.442
543.325
543.208
543.091
542.973
542.855
542.737
542.619
542.501
542.383
542.265
542.147
542.029
541.911
541.792
541.674
541.556
541.438
541.319
541.201
541.083
540.964
540.846
540.728
540.609
552.483
552.349
552.216
552.084
551.956
551.831
551.712
551.599
551.493
551.394
551.303
551.22
551.145
551.078
551.017
550.961
550.91
550.864
550.821
550.782
550.745
550.711
550.679
550.649
550.622
550.597
550.575
550.555
550.537
550.52
550.505
550.491
550.478
550.466
550.453
550.441
550.427
550.412
550.395
550.376
550.354
550.33
550.303
550.271
550.235
550.195
550.149
550.097
550.039
549.973
549.9
549.819
549.727
549.625
549.512
549.389
549.257
549.115
548.964
548.805
548.642
548.479
548.318
548.158
547.999
547.84
547.679
547.515
547.348
547.179
547.009
546.838
546.667
546.496
546.325
546.154
545.983
545.812
545.641
545.47
545.299
545.13
544.962
544.791
544.593
544.521
544.438
544.338
544.233
544.124
544.014
543.902
543.789
543.674
543.559
543.443
543.326
543.209
543.092
542.974
542.856
542.738
542.62
542.502
542.384
542.265
542.147
542.029
541.911
541.792
541.674
541.556
541.438
541.319
541.201
541.083
540.964
540.846
540.728
540.609
552.49
552.369
552.249
552.13
552.012
551.897
551.786
551.68
551.58
551.487
551.402
551.325
551.256
551.193
551.137
551.085
551.037
550.992
550.951
550.91
550.871
550.833
550.797
550.762
550.73
550.699
550.672
550.646
550.623
550.601
550.582
550.564
550.547
550.532
550.517
550.502
550.487
550.471
550.454
550.436
550.415
550.392
550.366
550.336
550.301
550.261
550.215
550.162
550.103
550.036
549.962
549.879
549.786
549.683
549.57
549.448
549.317
549.177
549.027
548.869
548.707
548.545
548.385
548.225
548.066
547.904
547.74
547.571
547.399
547.223
547.045
546.866
546.688
546.51
546.334
546.158
545.983
545.807
545.632
545.458
545.287
545.119
544.957
544.801
544.655
544.547
544.447
544.343
544.236
544.126
544.015
543.903
543.79
543.675
543.56
543.444
543.327
543.21
543.092
542.975
542.857
542.739
542.62
542.502
542.384
542.266
542.147
542.029
541.911
541.793
541.674
541.556
541.438
541.319
541.201
541.083
540.964
540.846
540.728
540.609
552.5
552.401
552.302
552.201
552.1
551.999
551.9
551.805
551.715
551.631
551.553
551.483
551.421
551.364
551.313
551.265
551.219
551.176
551.132
551.089
551.044
550.999
550.954
550.91
550.868
550.828
550.789
550.753
550.72
550.688
550.659
550.632
550.607
550.584
550.562
550.541
550.521
550.501
550.481
550.461
550.439
550.415
550.389
550.359
550.324
550.285
550.239
550.186
550.126
550.059
549.983
549.899
549.806
549.704
549.593
549.474
549.348
549.213
549.069
548.917
548.761
548.604
548.448
548.292
548.133
547.972
547.805
547.633
547.455
547.273
547.087
546.901
546.715
546.531
546.348
546.166
545.985
545.804
545.626
545.45
545.281
545.118
544.963
544.818
544.685
544.569
544.459
544.35
544.24
544.129
544.017
543.904
543.79
543.676
543.56
543.444
543.327
543.21
543.093
542.975
542.857
542.739
542.621
542.503
542.384
542.266
542.148
542.029
541.911
541.793
541.675
541.556
541.438
541.319
541.201
541.083
540.964
540.846
540.728
540.609
552.517
552.45
552.381
552.309
552.233
552.154
552.073
551.993
551.916
551.843
551.776
551.715
551.661
551.612
551.566
551.522
551.478
551.432
551.385
551.334
551.28
551.224
551.165
551.107
551.049
550.992
550.937
550.884
550.834
550.786
550.74
550.698
550.657
550.619
550.584
550.551
550.52
550.491
550.464
550.437
550.411
550.384
550.356
550.325
550.29
550.25
550.204
550.151
550.091
550.023
549.947
549.864
549.773
549.674
549.568
549.455
549.338
549.214
549.081
548.941
548.796
548.649
548.501
548.35
548.196
548.037
547.87
547.696
547.515
547.327
547.136
546.944
546.752
546.561
546.371
546.184
545.997
545.813
545.632
545.457
545.289
545.129
544.979
544.839
544.71
544.589
544.472
544.358
544.245
544.132
544.019
543.905
543.791
543.676
543.56
543.444
543.328
543.211
543.093
542.976
542.858
542.74
542.621
542.503
542.385
542.266
542.148
542.03
541.911
541.793
541.675
541.556
541.438
541.32
541.201
541.083
540.964
540.846
540.728
540.609
552.541
552.521
552.497
552.466
552.426
552.378
552.323
552.264
552.205
552.147
552.094
552.045
552.001
551.96
551.92
551.878
551.832
551.782
551.727
551.666
551.598
551.524
551.446
551.367
551.286
551.205
551.126
551.048
550.973
550.901
550.831
550.765
550.701
550.64
550.582
550.528
550.479
550.433
550.391
550.353
550.317
550.283
550.25
550.215
550.178
550.136
550.09
550.036
549.975
549.907
549.833
549.753
549.667
549.576
549.477
549.374
549.271
549.165
549.051
548.929
548.8
548.667
548.53
548.389
548.242
548.087
547.923
547.75
547.568
547.379
547.186
546.992
546.797
546.602
546.408
546.216
546.026
545.839
545.657
545.481
545.314
545.156
545.007
544.868
544.736
544.61
544.487
544.368
544.251
544.136
544.021
543.906
543.791
543.676
543.56
543.444
543.328
543.211
543.093
542.976
542.858
542.74
542.622
542.503
542.385
542.267
542.148
542.03
541.912
541.793
541.675
541.556
541.438
541.32
541.201
541.083
540.964
540.846
540.728
540.609
552.575
552.622
552.662
552.688
552.699
552.693
552.673
552.643
552.607
552.57
552.533
552.499
552.466
552.432
552.395
552.354
552.305
552.246
552.179
552.102
552.014
551.918
551.814
551.706
551.595
551.483
551.371
551.262
551.154
551.049
550.946
550.846
550.748
550.654
550.564
550.478
550.398
550.326
550.26
550.201
550.149
550.102
550.059
550.017
549.975
549.93
549.881
549.826
549.763
549.695
549.624
549.55
549.475
549.395
549.305
549.216
549.134
549.051
548.962
548.864
548.756
548.639
548.516
548.387
548.249
548.102
547.945
547.777
547.6
547.416
547.228
547.036
546.844
546.65
546.455
546.261
546.07
545.882
545.7
545.524
545.356
545.197
545.046
544.903
544.766
544.634
544.505
544.381
544.26
544.141
544.023
543.907
543.791
543.675
543.56
543.444
543.327
543.21
543.093
542.976
542.858
542.74
542.622
542.504
542.385
542.267
542.149
542.03
541.912
541.793
541.675
541.557
541.438
541.32
541.201
541.083
540.965
540.846
540.728
540.609
552.622
552.762
552.889
552.993
553.071
553.122
553.147
553.153
553.147
553.133
553.115
553.097
553.075
553.047
553.011
552.966
552.908
552.836
552.752
552.654
552.543
552.418
552.283
552.14
551.993
551.842
551.691
551.543
551.396
551.252
551.108
550.966
550.825
550.686
550.551
550.421
550.298
550.185
550.083
549.992
549.913
549.844
549.782
549.726
549.674
549.621
549.567
549.508
549.441
549.372
549.306
549.243
549.182
549.115
549.035
548.963
548.907
548.853
548.792
548.719
548.633
548.535
548.428
548.312
548.187
548.051
547.905
547.748
547.583
547.412
547.236
547.056
546.874
546.687
546.497
546.306
546.118
545.934
545.753
545.577
545.409
545.247
545.092
544.944
544.803
544.664
544.527
544.397
544.271
544.148
544.027
543.909
543.791
543.675
543.559
543.443
543.326
543.21
543.093
542.976
542.858
542.74
542.622
542.504
542.386
542.267
542.149
542.03
541.912
541.794
541.675
541.557
541.438
541.32
541.201
541.083
540.965
540.846
540.728
540.609
552.686
552.951
553.193
553.4
553.565
553.686
553.766
553.815
553.842
553.853
553.854
553.85
553.837
553.811
553.77
553.715
553.642
553.552
553.446
553.323
553.183
553.025
552.854
552.674
552.487
552.294
552.103
551.913
551.726
551.538
551.351
551.162
550.972
550.78
550.589
550.402
550.223
550.055
549.9
549.761
549.64
549.533
549.441
549.358
549.285
549.216
549.15
549.081
549.007
548.934
548.875
548.825
548.78
548.725
548.651
548.597
548.57
548.542
548.506
548.458
548.393
548.311
548.218
548.118
548.006
547.886
547.755
547.616
547.472
547.323
547.17
547.012
546.85
546.68
546.5
546.318
546.141
545.968
545.793
545.621
545.454
545.291
545.136
544.989
544.846
544.702
544.554
544.419
544.287
544.159
544.033
543.911
543.792
543.674
543.558
543.442
543.326
543.209
543.092
542.975
542.858
542.74
542.622
542.504
542.386
542.268
542.149
542.031
541.912
541.794
541.675
541.557
541.438
541.32
541.202
541.083
540.965
540.846
540.728
540.609
552.77
553.198
553.59
553.926
554.197
554.401
554.544
554.637
554.695
554.727
554.744
554.749
554.737
554.703
554.647
554.572
554.478
554.366
554.235
554.084
553.913
553.722
553.516
553.299
553.076
552.847
552.619
552.394
552.171
551.947
551.719
551.488
551.249
551.004
550.753
550.501
550.253
550.016
549.794
549.589
549.401
549.232
549.086
548.958
548.845
548.745
548.653
548.562
548.471
548.391
548.337
548.3
548.265
548.213
548.143
548.102
548.099
548.087
548.068
548.037
547.989
547.915
547.828
547.746
547.647
547.542
547.43
547.315
547.199
547.085
546.967
546.841
546.712
546.567
546.401
546.237
546.088
545.943
545.774
545.615
545.458
545.304
545.161
545.035
544.903
544.756
544.583
544.448
544.31
544.173
544.041
543.915
543.793
543.674
543.557
543.441
543.325
543.208
543.092
542.975
542.858
542.74
542.622
542.504
542.386
542.268
542.149
542.031
541.912
541.794
541.676
541.557
541.439
541.32
541.202
541.083
540.965
540.846
540.728
540.609
552.88
553.518
554.095
554.586
554.98
555.274
555.478
555.609
555.686
555.727
555.745
555.745
555.721
555.666
555.579
555.472
555.35
555.213
555.056
554.878
554.679
554.462
554.229
553.988
553.742
553.495
553.25
553.007
552.764
552.518
552.266
552.007
551.736
551.449
551.149
550.839
550.52
550.202
549.895
549.602
549.321
549.056
548.82
548.616
548.436
548.276
548.13
547.994
547.868
547.771
547.715
547.677
547.633
547.573
547.502
547.467
547.482
547.454
547.438
547.398
547.385
547.281
547.181
547.138
547.03
546.935
546.84
546.747
546.664
546.601
546.529
546.44
546.363
546.247
546.083
545.955
545.872
545.803
545.623
545.503
545.374
545.234
545.126
545.08
544.978
544.845
544.625
544.492
544.342
544.193
544.052
543.92
543.795
543.674
543.556
543.439
543.324
543.208
543.091
542.975
542.858
542.74
542.622
542.504
542.386
542.268
542.15
542.031
541.913
541.794
541.676
541.557
541.439
541.32
541.202
541.083
540.965
540.846
540.728
540.609
553.021
553.921
554.72
555.387
555.909
556.289
556.541
556.688
556.757
556.778
556.773
556.745
556.689
556.591
556.451
556.293
556.135
555.974
555.796
555.599
555.387
555.161
554.926
554.687
554.452
554.223
553.998
553.771
553.537
553.296
553.048
552.794
552.522
552.226
551.911
551.577
551.205
550.811
550.411
550.017
549.601
549.182
548.799
548.483
548.203
547.937
547.684
547.459
547.269
547.13
547.032
546.969
546.894
546.811
546.731
546.672
546.677
546.578
546.571
546.552
546.545
546.444
546.347
546.327
546.258
546.11
546.014
545.926
545.884
545.876
545.821
545.787
545.707
545.675
545.606
545.643
545.614
545.593
545.468
545.368
545.222
545.117
544.985
545.17
545.068
545.033
544.724
544.569
544.389
544.219
544.066
543.926
543.797
543.674
543.555
543.438
543.323
543.207
543.091
542.974
542.857
542.74
542.622
542.504
542.386
542.268
542.15
542.031
541.913
541.794
541.676
541.557
541.439
541.321
541.202
541.084
540.965
540.846
540.728
540.609
553.203
554.421
555.464
556.31
556.949
557.39
557.657
557.778
557.788
557.747
557.682
557.587
557.473
557.31
557.1
556.862
556.652
556.469
556.288
556.095
555.898
555.705
555.517
555.331
555.161
555.011
554.868
554.718
554.527
554.323
554.118
553.921
553.698
553.436
553.183
552.909
552.523
552.075
551.583
551.106
550.53
549.896
549.278
548.806
548.376
547.931
547.477
547.094
546.793
546.554
546.365
546.217
546.071
545.951
545.847
545.735
545.644
545.483
545.43
545.37
545.392
545.335
545.284
545.232
545.116
545.062
544.909
544.84
544.794
544.789
544.777
544.815
544.665
544.734
544.724
544.964
545.116
545.277
545.167
545.204
545.124
545.065
544.875
544.931
545.044
545.054
544.969
544.683
544.443
544.245
544.078
543.931
543.798
543.674
543.554
543.438
543.322
543.206
543.09
542.974
542.857
542.74
542.622
542.505
542.387
542.268
542.15
542.032
541.913
541.795
541.676
541.558
541.439
541.321
541.202
541.084
540.965
540.847
540.728
540.609
553.461
555.054
556.315
557.292
557.987
558.429
558.641
558.674
558.541
558.386
558.24
558.01
557.812
557.597
557.357
556.984
556.696
556.485
556.327
556.165
556.035
555.953
555.906
555.865
555.841
555.877
555.887
555.898
555.763
555.609
555.515
555.471
555.345
555.146
555.107
555.026
554.645
554.196
553.579
553.1
552.396
551.441
550.518
549.829
549.152
548.406
547.606
547.006
546.541
546.175
545.808
545.487
545.272
545.117
544.936
544.591
544.466
544.239
544.272
544.018
544.003
543.921
543.901
543.86
543.757
543.878
543.6
543.442
543.45
543.349
543.259
543.321
543.267
543.201
543.082
543.918
544.613
544.775
544.714
544.882
545.463
545.043
545.235
545.278
545.608
545.186
545.763
544.76
544.469
544.258
544.084
543.934
543.799
543.674
543.554
543.437
543.321
543.206
543.09
542.974
542.857
542.74
542.623
542.505
542.387
542.269
542.15
542.032
541.913
541.795
541.676
541.558