/*--------------------------------*- C++ -*----------------------------------*\
  =========                 |
  \\      /  F ield         | OpenFOAM: The Open Source CFD Toolbox
   \\    /   O peration     | Website:  https://openfoam.org
    \\  /    A nd           | Version:  6
     \\/     M anipulation  |
\*---------------------------------------------------------------------------*/
FoamFile
{
    version     2.0;
    format      ascii;
    class       volScalarField;
    location    "4800";
    object      Su;
}
// * * * * * * * * * * * * * * * * * * * * * * * * * * * * * * * * * * * * * //

dimensions      [0 0 -1 0 0 0 0];

internalField   nonuniform List<scalar> 
4800
(
0.218751
0.215065
0.211372
0.207675
0.203987
0.200323
0.196699
0.193132
0.189661
0.186338
0.183213
0.180311
0.177636
0.17518
0.17293
0.170867
0.168969
0.167216
0.165587
0.164066
0.162638
0.16129
0.160009
0.158783
0.157602
0.156459
0.155345
0.154251
0.153169
0.152091
0.151009
0.149915
0.1488
0.147662
0.146499
0.145307
0.144077
0.142802
0.141481
0.140109
0.138679
0.137188
0.135635
0.13402
0.13234
0.130597
0.128791
0.126921
0.124987
0.12299
0.120927
0.1188
0.116607
0.114348
0.11202
0.10962
0.107145
0.104594
0.101963
0.0992483
0.0964463
0.0935543
0.090571
0.0874964
0.0843302
0.0810743
0.0777311
0.0742995
0.0707811
0.0671745
0.0634785
0.0597012
0.0558443
0.0519043
0.0478818
0.0437817
0.0396172
0.0354163
0.0312232
0.0270877
0.0230458
0.0190896
0.0151795
0.0113116
0.00741758
0.00358801
-0.000121358
-0.00369893
-0.00715803
-0.0105223
-0.013817
-0.0170647
-0.0202838
-0.0234879
-0.0266865
-0.0298862
-0.0330909
-0.036303
-0.0395236
-0.0427532
-0.0459919
-0.0492393
-0.052495
-0.0557585
-0.0590294
-0.062307
-0.0655908
-0.0688803
-0.0721751
-0.0754746
-0.0787783
-0.0820859
-0.0853969
-0.0887108
-0.0920273
-0.0953459
-0.0986662
-0.101988
-0.105311
-0.108634
0.218749
0.215062
0.211365
0.207661
0.203963
0.200288
0.196657
0.193095
0.189639
0.186337
0.183234
0.180352
0.177691
0.175246
0.173004
0.170945
0.169051
0.167302
0.165675
0.164157
0.162733
0.161388
0.16011
0.15889
0.157717
0.156582
0.155475
0.154387
0.15331
0.152237
0.15116
0.150067
0.148952
0.147816
0.146655
0.14546
0.144223
0.142944
0.141618
0.140241
0.138805
0.137311
0.135754
0.134135
0.132452
0.130704
0.128892
0.127017
0.125079
0.123078
0.121013
0.118883
0.116688
0.114426
0.112094
0.109689
0.10721
0.104652
0.102015
0.0992935
0.0964849
0.0935864
0.0905971
0.0875167
0.0843462
0.0810869
0.0777397
0.0743053
0.0707843
0.0671781
0.0634873
0.0597128
0.0558549
0.0519138
0.0478911
0.0437898
0.0396199
0.0354014
0.0311752
0.0270005
0.0229323
0.0190025
0.0152121
0.0115158
0.00753636
0.00365227
-7.97165e-05
-0.00366611
-0.00712951
-0.010497
-0.0137949
-0.0170458
-0.0202679
-0.0234747
-0.0266757
-0.0298774
-0.0330838
-0.0362972
-0.0395189
-0.0427494
-0.0459887
-0.0492367
-0.0524928
-0.0557567
-0.0590278
-0.0623057
-0.0655897
-0.0688794
-0.0721743
-0.0754739
-0.0787778
-0.0820854
-0.0853965
-0.0887105
-0.092027
-0.0953456
-0.098666
-0.101988
-0.10531
-0.108634
0.218748
0.215056
0.211353
0.207641
0.203929
0.200241
0.196603
0.193048
0.189622
0.186363
0.183301
0.180455
0.177821
0.175397
0.173171
0.171124
0.169239
0.167495
0.165874
0.164361
0.162944
0.161606
0.160339
0.159134
0.157978
0.156861
0.155773
0.154702
0.153639
0.152577
0.151506
0.150414
0.1493
0.148165
0.147
0.145796
0.144549
0.14326
0.14192
0.140525
0.139073
0.137563
0.135991
0.134359
0.132664
0.130908
0.12909
0.127209
0.125262
0.123253
0.121181
0.119046
0.116843
0.114573
0.112232
0.109818
0.107329
0.104761
0.102112
0.0993794
0.0965588
0.0936475
0.0906453
0.0875529
0.0843715
0.0811021
0.0777454
0.0743037
0.0707776
0.0671695
0.0634806
0.0597072
0.0558507
0.0519138
0.0478968
0.0438023
0.0396419
0.0354394
0.0312268
0.0270466
0.0229404
0.0189747
0.0152981
0.0119265
0.00772037
0.0037358
-1.8468e-05
-0.00361061
-0.0070776
-0.0104496
-0.0137529
-0.0170097
-0.0202375
-0.0234496
-0.0266552
-0.0298607
-0.0330702
-0.0362862
-0.0395099
-0.042742
-0.0459827
-0.0492317
-0.0524887
-0.0557532
-0.0590249
-0.0623032
-0.0655876
-0.0688776
-0.0721728
-0.0754726
-0.0787767
-0.0820845
-0.0853957
-0.0887098
-0.0920265
-0.0953452
-0.0986657
-0.101988
-0.10531
-0.108634
0.218745
0.21505
0.211347
0.207637
0.203926
0.200237
0.196603
0.193062
0.189663
0.186449
0.183439
0.180639
0.178043
0.17565
0.173448
0.171421
0.169552
0.167822
0.166213
0.164715
0.163313
0.161995
0.160754
0.159576
0.158449
0.157361
0.156298
0.155248
0.154203
0.153156
0.152094
0.151004
0.14989
0.148752
0.147579
0.146363
0.145102
0.143795
0.142432
0.141012
0.13953
0.137986
0.136385
0.134724
0.133003
0.131224
0.129389
0.127491
0.125531
0.12351
0.121427
0.119278
0.117061
0.114776
0.11242
0.10999
0.107484
0.104899
0.102234
0.0994834
0.0966448
0.0937144
0.090693
0.087582
0.0843819
0.081094
0.0777203
0.0742637
0.0707265
0.0671103
0.0634163
0.0596424
0.0557889
0.0518574
0.0478505
0.0437727
0.0396332
0.0354496
0.0312373
0.0270221
0.0228746
0.0188916
0.0151199
0.011492
0.00758416
0.00374036
3.08297e-05
-0.00354629
-0.00701058
-0.010386
-0.0136958
-0.0169603
-0.0201959
-0.0234151
-0.0266269
-0.0298377
-0.0330515
-0.0362709
-0.0394975
-0.0427318
-0.0459742
-0.0492247
-0.0524828
-0.0557483
-0.0590208
-0.0622997
-0.0655846
-0.0688751
-0.0721706
-0.0754708
-0.0787751
-0.0820832
-0.0853946
-0.0887089
-0.0920258
-0.0953447
-0.0986653
-0.101987
-0.10531
-0.108634
0.218743
0.215048
0.211352
0.207657
0.203969
0.200304
0.196693
0.193185
0.189829
0.186656
0.183688
0.180928
0.178373
0.17602
0.173853
0.171857
0.170016
0.16831
0.166726
0.165255
0.163884
0.162601
0.161397
0.160255
0.159164
0.158109
0.157073
0.156046
0.155021
0.153989
0.152936
0.151846
0.150732
0.149588
0.148407
0.147179
0.145902
0.14457
0.143178
0.141723
0.140201
0.138616
0.136973
0.135272
0.133513
0.1317
0.129831
0.127902
0.125915
0.123868
0.121758
0.119581
0.117337
0.115027
0.112645
0.11019
0.107658
0.105047
0.102356
0.0995789
0.0967137
0.0937572
0.0907093
0.0875705
0.0843419
0.0810257
0.0776254
0.0741451
0.0705877
0.0669549
0.0632486
0.0594706
0.055621
0.0516995
0.0477097
0.0436588
0.0395565
0.0354141
0.0312476
0.0270839
0.0229684
0.0189637
0.0151003
0.0113238
0.00751266
0.00374836
8.21544e-05
-0.00347557
-0.00693465
-0.0103129
-0.0136297
-0.0169029
-0.0201473
-0.0233747
-0.0265937
-0.0298106
-0.0330294
-0.0362529
-0.0394826
-0.0427196
-0.0459641
-0.0492162
-0.0524757
-0.0557423
-0.0590157
-0.0622953
-0.0655809
-0.0688719
-0.0721679
-0.0754685
-0.0787732
-0.0820816
-0.0853932
-0.0887078
-0.0920248
-0.0953439
-0.0986648
-0.101987
-0.10531
-0.108634
0.218743
0.215048
0.21136
0.207684
0.204025
0.200395
0.196825
0.193367
0.190069
0.186959
0.184049
0.181342
0.178837
0.176533
0.174412
0.172456
0.170653
0.168986
0.167438
0.166006
0.164678
0.163439
0.16228
0.161182
0.160131
0.159111
0.158104
0.157101
0.156094
0.155076
0.154028
0.152941
0.151827
0.150679
0.149489
0.14825
0.146953
0.145593
0.144167
0.14267
0.141102
0.139471
0.137781
0.136035
0.134231
0.132376
0.130461
0.128491
0.12646
0.124368
0.122211
0.119985
0.117695
0.115339
0.112912
0.110414
0.107843
0.105194
0.102464
0.0996489
0.0967454
0.0937528
0.0906691
0.0874937
0.0842278
0.0808748
0.0774393
0.0739263
0.0703399
0.0666832
0.062959
0.0591695
0.055317
0.0514053
0.0474387
0.0434241
0.039372
0.0352923
0.0311996
0.0271172
0.0230718
0.0190921
0.0151893
0.0113348
0.00751636
0.00378157
0.000141682
-0.00340148
-0.00685649
-0.0102378
-0.0135616
-0.0168436
-0.020097
-0.0233327
-0.0265591
-0.0297821
-0.033006
-0.0362336
-0.0394667
-0.0427063
-0.045953
-0.0492068
-0.0524678
-0.0557355
-0.0590099
-0.0622904
-0.0655767
-0.0688683
-0.0721648
-0.0754658
-0.0787709
-0.0820796
-0.0853916
-0.0887064
-0.0920237
-0.0953431
-0.0986641
-0.101986
-0.10531
-0.108633
0.218743
0.215054
0.211384
0.207736
0.204113
0.200527
0.197011
0.193617
0.19039
0.187356
0.18452
0.181883
0.179443
0.1772
0.175134
0.173227
0.171474
0.169855
0.168355
0.166975
0.165698
0.164512
0.163403
0.162352
0.16134
0.160353
0.159374
0.158395
0.157407
0.156404
0.155367
0.154287
0.153173
0.152023
0.150826
0.149576
0.148257
0.146867
0.145406
0.143868
0.142251
0.140572
0.138832
0.137038
0.135183
0.133278
0.13131
0.129288
0.127196
0.125042
0.122817
0.120523
0.118167
0.115743
0.11325
0.11069
0.108059
0.105354
0.102569
0.0996999
0.0967432
0.0937001
0.0905684
0.0873461
0.084034
0.0806354
0.0771555
0.0736003
0.0699747
0.0662834
0.0625304
0.0587191
0.0548562
0.0509498
0.0470082
0.0430367
0.0390447
0.0350416
0.031039
0.027052
0.0230873
0.0191523
0.0152494
0.0113663
0.00754259
0.00382352
0.000200359
-0.00333278
-0.00678517
-0.0101694
-0.0134996
-0.0167892
-0.0200506
-0.0232938
-0.0265267
-0.0297552
-0.0329837
-0.036215
-0.0394511
-0.0426932
-0.0459419
-0.0491973
-0.0524596
-0.0557285
-0.0590038
-0.0622851
-0.0655721
-0.0688643
-0.0721614
-0.0754629
-0.0787684
-0.0820775
-0.0853898
-0.0887049
-0.0920225
-0.0953421
-0.0986633
-0.101986
-0.105309
-0.108633
0.218758
0.215098
0.211455
0.207841
0.204258
0.200721
0.19727
0.193954
0.190809
0.187858
0.185107
0.182555
0.180194
0.178022
0.176022
0.174176
0.172484
0.170924
0.169482
0.168161
0.166943
0.165812
0.164753
0.163746
0.162771
0.161818
0.160871
0.159918
0.158953
0.157968
0.156946
0.155876
0.154767
0.153619
0.152417
0.151155
0.149817
0.148402
0.146907
0.145328
0.143667
0.141941
0.14015
0.138304
0.136394
0.134432
0.132402
0.130315
0.128147
0.125912
0.1236
0.12122
0.118776
0.116264
0.113688
0.111047
0.10834
0.10556
0.102701
0.0997598
0.096734
0.0936236
0.090427
0.0871418
0.0837695
0.0803133
0.0767777
0.0731683
0.0694907
0.0657512
0.0619573
0.0581167
0.0542398
0.0503349
0.0464138
0.0424844
0.0385547
0.0346313
0.0307192
0.0268216
0.0229404
0.0190706
0.0152095
0.0113499
0.00754735
0.00384947
0.000242196
-0.00328203
-0.00673164
-0.0101175
-0.0134518
-0.0167469
-0.020014
-0.0232626
-0.0265002
-0.0297329
-0.0329648
-0.0361989
-0.0394374
-0.0426814
-0.0459316
-0.0491884
-0.0524518
-0.0557217
-0.0589978
-0.0622799
-0.0655675
-0.0688603
-0.0721578
-0.0754598
-0.0787657
-0.0820751
-0.0853878
-0.0887033
-0.0920211
-0.095341
-0.0986625
-0.101985
-0.105309
-0.108633
0.218779
0.215161
0.211559
0.207982
0.204442
0.200964
0.197592
0.194371
0.19133
0.188483
0.185829
0.183369
0.181096
0.179002
0.177075
0.1753
0.173679
0.172187
0.170812
0.169554
0.168396
0.16732
0.166308
0.165345
0.164411
0.163494
0.162582
0.161662
0.160723
0.159762
0.15876
0.157705
0.156608
0.155467
0.154265
0.152992
0.151641
0.150206
0.14868
0.147066
0.145366
0.143596
0.141756
0.139857
0.137893
0.135865
0.133766
0.131597
0.129338
0.127005
0.12459
0.122107
0.119556
0.116941
0.114265
0.111525
0.108721
0.105846
0.102895
0.0998643
0.0967514
0.0935551
0.0902735
0.0869063
0.0834555
0.0799242
0.0763165
0.0726374
0.0688947
0.0650978
0.0612569
0.0573818
0.0534847
0.0495758
0.0456693
0.0417758
0.0379026
0.0340546
0.0302293
0.02642
0.0226255
0.0188342
0.0150462
0.0112542
0.00750427
0.00383938
0.000251365
-0.00326255
-0.00670734
-0.0100917
-0.0134265
-0.0167232
-0.0199925
-0.0232433
-0.0264832
-0.0297178
-0.0329514
-0.036187
-0.0394268
-0.0426719
-0.0459231
-0.0491807
-0.0524449
-0.0557155
-0.0589922
-0.0622748
-0.065563
-0.0688563
-0.0721543
-0.0754566
-0.0787629
-0.0820728
-0.0853858
-0.0887015
-0.0920197
-0.0953398
-0.0986616
-0.101985
-0.105309
-0.108633
0.218799
0.215223
0.211666
0.208143
0.204673
0.201281
0.198005
0.194887
0.191955
0.189215
0.186667
0.184307
0.182128
0.180124
0.178283
0.176592
0.175048
0.17363
0.172326
0.171134
0.170036
0.169013
0.168051
0.167135
0.166246
0.165372
0.164501
0.163618
0.162712
0.161782
0.160806
0.159773
0.158694
0.157563
0.156367
0.155091
0.153736
0.152286
0.150735
0.149097
0.147363
0.145555
0.143667
0.141718
0.139696
0.137599
0.135422
0.133162
0.130803
0.128359
0.12583
0.123229
0.120561
0.11783
0.115039
0.112187
0.109273
0.106289
0.103228
0.100082
0.0968523
0.093539
0.090143
0.0866673
0.0831155
0.0794893
0.0757919
0.072029
0.0682098
0.0643455
0.0604484
0.0565313
0.0526076
0.0486891
0.0447904
0.0409246
0.0370998
0.0333181
0.0295732
0.0258542
0.0221588
0.0184693
0.0147814
0.0110836
0.00740471
0.00378075
0.000214523
-0.00328689
-0.00672321
-0.0101011
-0.013431
-0.016724
-0.0199906
-0.0232397
-0.0264783
-0.0297122
-0.0329453
-0.0361808
-0.0394205
-0.0426657
-0.045917
-0.0491749
-0.0524394
-0.0557103
-0.0589874
-0.0622704
-0.0655589
-0.0688525
-0.0721509
-0.0754536
-0.0787602
-0.0820704
-0.0853837
-0.0886998
-0.0920182
-0.0953386
-0.0986607
-0.101984
-0.105308
-0.108633
0.218831
0.215319
0.211828
0.208371
0.204973
0.20167
0.198504
0.195507
0.192694
0.190069
0.187632
0.185379
0.183301
0.18139
0.179638
0.178034
0.176569
0.17523
0.174001
0.172877
0.171841
0.170876
0.169968
0.169105
0.168267
0.167442
0.16662
0.165777
0.164913
0.16402
0.163076
0.162072
0.161017
0.159903
0.158722
0.15745
0.156096
0.154641
0.153074
0.151425
0.149666
0.147825
0.145894
0.143897
0.141815
0.139648
0.137391
0.135036
0.132574
0.130014
0.127368
0.124648
0.12186
0.119009
0.116099
0.113125
0.110087
0.106974
0.103775
0.100488
0.0971133
0.0936509
0.0901071
0.0864918
0.0828084
0.0790607
0.0752525
0.0713895
0.0674816
0.0635404
0.0595786
0.0556102
0.0516511
0.0477162
0.0438196
0.0399732
0.0361856
0.0324601
0.0287946
0.0251684
0.0215696
0.0179884
0.014421
0.0108393
0.00724432
0.00366255
0.000117908
-0.0033679
-0.00678968
-0.0101538
-0.0134712
-0.0167537
-0.0200118
-0.0232542
-0.0264877
-0.0297177
-0.032948
-0.0361813
-0.0394194
-0.0426635
-0.0459141
-0.0491716
-0.0524357
-0.0557065
-0.0589836
-0.0622667
-0.0655554
-0.0688492
-0.0721478
-0.0754507
-0.0787576
-0.0820681
-0.0853817
-0.088698
-0.0920167
-0.0953374
-0.0986598
-0.101983
-0.105308
-0.108633
0.218873
0.215446
0.212038
0.208665
0.205358
0.202158
0.199106
0.196227
0.193534
0.191032
0.188713
0.186571
0.184597
0.182785
0.181127
0.179613
0.17823
0.176971
0.175819
0.174765
0.173796
0.172894
0.172045
0.17124
0.17046
0.169692
0.168921
0.168127
0.167311
0.166461
0.165555
0.164587
0.163565
0.162473
0.161314
0.160057
0.158709
0.15726
0.15569
0.154036
0.152258
0.150394
0.14843
0.146389
0.144248
0.142017
0.139681
0.137234
0.134675
0.132007
0.129252
0.126418
0.123513
0.120543
0.11751
0.114409
0.111233
0.107969
0.104612
0.101163
0.097617
0.093979
0.0902614
0.086476
0.0826313
0.0787327
0.074788
0.0708042
0.0667905
0.0627582
0.0587196
0.054689
0.0506833
0.0467196
0.0428125
0.038974
0.0352134
0.0315318
0.0279271
0.0243831
0.0208822
0.0174078
0.0139601
0.0105085
0.00701025
0.00346413
-5.88469e-05
-0.00352083
-0.00691673
-0.0102557
-0.0135509
-0.0168147
-0.0200577
-0.0232881
-0.0265124
-0.0297352
-0.03296
-0.0361892
-0.0394242
-0.0426659
-0.0459148
-0.049171
-0.0524343
-0.0557045
-0.0589812
-0.062264
-0.0655526
-0.0688464
-0.0721451
-0.0754482
-0.0787552
-0.0820659
-0.0853797
-0.0886963
-0.0920153
-0.0953362
-0.0986588
-0.101983
-0.105307
-0.108633
0.218919
0.215581
0.212266
0.208995
0.205801
0.202724
0.199798
0.197043
0.194473
0.19209
0.189886
0.187854
0.185986
0.184274
0.182712
0.181289
0.179995
0.178823
0.177754
0.176777
0.17588
0.175045
0.17426
0.173517
0.1728
0.172093
0.171378
0.170641
0.169878
0.169078
0.168216
0.167291
0.166308
0.165243
0.164112
0.162878
0.161542
0.160106
0.158544
0.15689
0.155106
0.153226
0.15124
0.149161
0.146974
0.144688
0.142283
0.139761
0.137118
0.13436
0.131511
0.128576
0.125568
0.12249
0.119344
0.116121
0.112807
0.109386
0.105854
0.102211
0.0984587
0.0946147
0.0906956
0.0867121
0.0826773
0.0786038
0.0745001
0.0703734
0.0662325
0.0620876
0.0579521
0.0538422
0.0497758
0.0457698
0.0418381
0.0379923
0.0342429
0.0305911
0.0270331
0.0235559
0.0201369
0.0167532
0.0133967
0.0100566
0.00642292
0.00313829
-0.000347363
-0.00376257
-0.00711183
-0.0104095
-0.0136703
-0.0169065
-0.0201277
-0.0233411
-0.0265521
-0.0297647
-0.0329816
-0.0362047
-0.039435
-0.0426732
-0.0459194
-0.0491735
-0.0524353
-0.0557043
-0.0589802
-0.0622625
-0.0655507
-0.0688443
-0.0721429
-0.075446
-0.0787531
-0.0820639
-0.0853779
-0.0886947
-0.0920139
-0.0953351
-0.0986579
-0.101982
-0.105307
-0.108633
0.218971
0.215739
0.212531
0.209373
0.206304
0.203361
0.200569
0.197946
0.195501
0.193237
0.191147
0.189226
0.187464
0.185856
0.184391
0.183059
0.181858
0.180769
0.179781
0.178879
0.178056
0.177291
0.176575
0.175898
0.175248
0.174605
0.173953
0.173278
0.172572
0.171825
0.171013
0.170136
0.169194
0.168166
0.167066
0.16586
0.164548
0.163131
0.161587
0.159936
0.158159
0.156273
0.154277
0.152172
0.149952
0.147626
0.145171
0.142598
0.139899
0.137082
0.134163
0.131151
0.12806
0.124894
0.121656
0.118331
0.114891
0.111313
0.107591
0.103724
0.0997303
0.0956456
0.0914908
0.0872794
0.0830288
0.0787549
0.0744679
0.0701759
0.0658871
0.0616132
0.0573697
0.0531714
0.049033
0.0449703
0.0409965
0.0371226
0.033359
0.029711
0.0261756
0.0227367
0.0193624
0.0160261
0.0127188
0.00942024
0.0060521
0.00260902
-0.000777195
-0.00410058
-0.00737341
-0.0106107
-0.0138248
-0.0170251
-0.0202188
-0.0234109
-0.0266054
-0.0298052
-0.0330122
-0.0362275
-0.0394518
-0.0426853
-0.0459279
-0.0491792
-0.0524388
-0.0557062
-0.0589809
-0.0622623
-0.0655499
-0.068843
-0.0721413
-0.0754443
-0.0787513
-0.0820621
-0.0853762
-0.0886931
-0.0920125
-0.0953339
-0.098657
-0.101981
-0.105307
-0.108632
0.219026
0.215908
0.212827
0.209806
0.206874
0.204063
0.201399
0.198901
0.196578
0.194431
0.192454
0.190641
0.188984
0.187475
0.186103
0.184864
0.183755
0.182749
0.181845
0.181024
0.180276
0.179583
0.178937
0.178329
0.177747
0.177169
0.176582
0.17597
0.175325
0.174632
0.173874
0.173048
0.17215
0.171166
0.1701
0.168928
0.167649
0.166255
0.164736
0.163099
0.16134
0.159462
0.157469
0.155356
0.153126
0.150781
0.148308
0.145715
0.142991
0.140148
0.137195
0.134141
0.130998
0.127776
0.124479
0.121085
0.117547
0.113827
0.109914
0.105804
0.101536
0.0971698
0.0927366
0.0882632
0.083771
0.0792754
0.0747875
0.0703147
0.0658669
0.0614571
0.0570975
0.0528005
0.0485793
0.0444464
0.0404124
0.0364872
0.0326814
0.0290009
0.0254439
0.0219953
0.0186151
0.0152687
0.0119401
0.00861472
0.00526318
0.0019277
-0.00131702
-0.00451108
-0.00768212
-0.0108439
-0.0140028
-0.0171623
-0.0203251
-0.0234936
-0.0266698
-0.0298552
-0.0330508
-0.0362572
-0.0394744
-0.0427022
-0.0459403
-0.0491881
-0.052445
-0.0557103
-0.0589833
-0.0622634
-0.06555
-0.0688425
-0.0721404
-0.075443
-0.0787499
-0.0820606
-0.0853747
-0.0886917
-0.0920113
-0.0953328
-0.0986561
-0.101981
-0.105306
-0.108632
0.219093
0.216106
0.213156
0.21027
0.207477
0.204802
0.20227
0.199894
0.197687
0.195654
0.193787
0.192077
0.190519
0.189104
0.187826
0.186677
0.185652
0.184727
0.183902
0.183154
0.182474
0.18185
0.181272
0.180732
0.180215
0.179701
0.179178
0.178628
0.17804
0.177403
0.176698
0.175924
0.175074
0.174137
0.17311
0.171979
0.170738
0.169376
0.167891
0.166282
0.16455
0.162694
0.160719
0.158621
0.156406
0.154073
0.151616
0.149037
0.146327
0.143499
0.140557
0.137504
0.134356
0.131124
0.127816
0.124403
0.12081
0.116978
0.112881
0.108518
0.103958
0.0992777
0.0945294
0.0897635
0.0850063
0.0802751
0.0755781
0.0709193
0.0663104
0.061762
0.0572834
0.052884
0.0485736
0.0443622
0.0402588
0.0362718
0.0324064
0.0286597
0.0250195
0.0214766
0.0180115
0.0145861
0.0111676
0.00774249
0.00434021
0.00113833
-0.00191451
-0.00494657
-0.00800113
-0.0110829
-0.0141861
-0.0173055
-0.0204383
-0.0235836
-0.0267414
-0.0299121
-0.0330959
-0.0362926
-0.039502
-0.0427235
-0.0459565
-0.0492001
-0.0524537
-0.0557164
-0.0589874
-0.0622659
-0.0655513
-0.0688429
-0.07214
-0.0754422
-0.0787488
-0.0820594
-0.0853734
-0.0886905
-0.0920101
-0.0953318
-0.0986553
-0.10198
-0.105306
-0.108632
0.219161
0.216311
0.213496
0.210742
0.208081
0.205537
0.203132
0.200881
0.198791
0.196865
0.195097
0.193483
0.192017
0.190689
0.189495
0.188426
0.187474
0.18662
0.185862
0.18518
0.184564
0.184003
0.183485
0.183004
0.182544
0.182088
0.181621
0.181126
0.180592
0.180006
0.179353
0.17863
0.177829
0.17694
0.175957
0.17487
0.17367
0.172348
0.170905
0.169334
0.167641
0.165827
0.163891
0.161835
0.159664
0.157379
0.154976
0.15245
0.1498
0.147036
0.144156
0.141159
0.138059
0.134873
0.131607
0.12823
0.124631
0.120727
0.116484
0.11189
0.107037
0.10203
0.0969517
0.0918802
0.0868471
0.0818789
0.0769775
0.0721417
0.0673808
0.0627033
0.0581177
0.0536328
0.0492553
0.044986
0.0408214
0.0367659
0.0328179
0.0289636
0.0251869
0.0214867
0.0178544
0.0142502
0.0106247
0.00693055
0.0032108
0.000267476
-0.00248364
-0.00532863
-0.00827453
-0.0112906
-0.0143508
-0.0174394
-0.0205484
-0.0236744
-0.0268162
-0.0299734
-0.0331456
-0.0363327
-0.0395339
-0.0427487
-0.045976
-0.0492151
-0.0524649
-0.0557245
-0.0589931
-0.0622697
-0.0655536
-0.0688441
-0.0721404
-0.0754419
-0.0787481
-0.0820584
-0.0853723
-0.0886893
-0.092009
-0.0953308
-0.0986545
-0.10198
-0.105306
-0.108632
0.219221
0.216494
0.213805
0.211181
0.208648
0.206228
0.20394
0.2018
0.199815
0.197987
0.196313
0.194787
0.193402
0.192151
0.191028
0.190023
0.189128
0.188333
0.187629
0.186999
0.186434
0.185922
0.185451
0.185014
0.184596
0.184183
0.183759
0.183309
0.182818
0.182276
0.18167
0.180993
0.180237
0.179393
0.178455
0.177411
0.176254
0.174979
0.173583
0.172065
0.170427
0.168672
0.1668
0.164816
0.162727
0.16053
0.158218
0.155787
0.153245
0.1506
0.147842
0.144966
0.14198
0.138906
0.135745
0.132467
0.128922
0.125009
0.120664
0.115865
0.110742
0.105435
0.100056
0.0947084
0.0894223
0.0842381
0.0791581
0.0741786
0.0693044
0.0645429
0.0598975
0.0553719
0.0509537
0.0466323
0.0423955
0.0382475
0.0341841
0.0301846
0.0262359
0.0223381
0.0184832
0.0146419
0.0107338
0.00653676
0.00142794
-0.000307013
-0.00282395
-0.00552638
-0.00842646
-0.0114225
-0.0144695
-0.0175465
-0.0206441
-0.0237587
-0.0268893
-0.0300358
-0.0331981
-0.0363762
-0.0395694
-0.0427772
-0.0459986
-0.0492327
-0.0524783
-0.0557345
-0.0590003
-0.0622747
-0.0655569
-0.068846
-0.0721413
-0.0754421
-0.0787477
-0.0820577
-0.0853713
-0.0886883
-0.0920079
-0.0953299
-0.0986537
-0.101979
-0.105305
-0.108632
0.219273
0.216649
0.214066
0.211551
0.209126
0.206814
0.204631
0.202588
0.200692
0.19895
0.197355
0.195902
0.194583
0.193391
0.192319
0.19136
0.190507
0.189751
0.189081
0.188482
0.187944
0.187459
0.187013
0.186598
0.186202
0.18581
0.18541
0.184985
0.184522
0.18401
0.183438
0.182797
0.182079
0.181274
0.180374
0.179371
0.178257
0.177029
0.175686
0.174228
0.17266
0.170986
0.169208
0.167331
0.165359
0.163286
0.161108
0.158826
0.156448
0.15398
0.151404
0.148716
0.14592
0.143036
0.140057
0.136943
0.133518
0.129651
0.125244
0.120296
0.114965
0.109449
0.103872
0.098331
0.0928715
0.087548
0.0823668
0.0773179
0.0724028
0.0676158
0.0629558
0.0584132
0.0539567
0.0495701
0.045237
0.0409665
0.0367588
0.032581
0.0284198
0.0242736
0.0201404
0.0160093
0.011863
0.00768692
0.00359739
0.000435287
-0.00242994
-0.00537016
-0.00838198
-0.0114372
-0.0145164
-0.0176098
-0.0207141
-0.0238291
-0.026956
-0.0300963
-0.0332514
-0.0364217
-0.0396076
-0.0428085
-0.0460238
-0.0492526
-0.0524938
-0.0557462
-0.059009
-0.0622809
-0.0655611
-0.0688486
-0.0721427
-0.0754426
-0.0787476
-0.0820571
-0.0853705
-0.0886873
-0.0920069
-0.0953289
-0.0986529
-0.101978
-0.105305
-0.108632
0.219306
0.21675
0.214238
0.211797
0.20945
0.207219
0.205118
0.203157
0.201339
0.199663
0.198126
0.196724
0.195449
0.194295
0.193253
0.192317
0.19148
0.190734
0.190066
0.189466
0.188925
0.188435
0.187984
0.187562
0.187159
0.186761
0.186357
0.185932
0.185475
0.184975
0.18442
0.1838
0.183106
0.182329
0.181458
0.180488
0.179412
0.178228
0.176938
0.175546
0.17406
0.172485
0.170825
0.169085
0.167264
0.165361
0.163369
0.161292
0.159138
0.156903
0.154573
0.152144
0.149618
0.147005
0.144283
0.141382
0.138122
0.13436
0.12998
0.125004
0.119593
0.114005
0.108362
0.102776
0.0973072
0.0919946
0.0868418
0.0818282
0.0769501
0.0721922
0.0675606
0.063014
0.0585085
0.0540285
0.0495661
0.0451398
0.0407541
0.0363592
0.0319367
0.0274788
0.0229924
0.0184948
0.0140287
0.00966037
0.00552773
0.00183064
-0.00160567
-0.00490237
-0.00812755
-0.0113117
-0.0144704
-0.017613
-0.0207467
-0.0238774
-0.0270109
-0.0301515
-0.0333031
-0.0364679
-0.0396474
-0.0428418
-0.0460511
-0.0492744
-0.0525109
-0.0557594
-0.0590188
-0.062288
-0.065566
-0.0688518
-0.0721445
-0.0754434
-0.0787476
-0.0820566
-0.0853697
-0.0886863
-0.0920059
-0.095328
-0.0986521
-0.101978
-0.105304
-0.108632
0.219305
0.216751
0.214251
0.211835
0.209526
0.207342
0.205292
0.203382
0.201613
0.199982
0.198484
0.197113
0.195861
0.194718
0.193678
0.192734
0.191879
0.191104
0.190401
0.189761
0.189177
0.188642
0.188147
0.187683
0.187239
0.186804
0.186365
0.185912
0.185435
0.184924
0.184366
0.183752
0.18307
0.18231
0.181461
0.180517
0.179472
0.178328
0.177091
0.175767
0.174366
0.172897
0.171368
0.169781
0.16814
0.166444
0.16469
0.162877
0.161001
0.159059
0.157039
0.15494
0.152761
0.15049
0.148078
0.145431
0.142399
0.138836
0.134602
0.129738
0.124422
0.118944
0.113434
0.108018
0.102741
0.0976243
0.0926646
0.0878283
0.0831018
0.0784582
0.0738903
0.0693393
0.0647666
0.0601729
0.0555677
0.0509751
0.0463922
0.0417558
0.0370164
0.0321504
0.0271889
0.0221886
0.0172425
0.0124344
0.00785744
0.00357533
-0.000439488
-0.00415388
-0.00765746
-0.0110262
-0.0143099
-0.0175378
-0.0207283
-0.0238946
-0.027048
-0.0301977
-0.033351
-0.0365132
-0.0396878
-0.0428765
-0.0460799
-0.0492978
-0.0525293
-0.0557736
-0.0590295
-0.0622958
-0.0655714
-0.0688553
-0.0721466
-0.0754444
-0.0787478
-0.0820562
-0.0853689
-0.0886853
-0.0920048
-0.095327
-0.0986512
-0.101977
-0.105304
-0.108632
0.219253
0.216604
0.214026
0.211558
0.209223
0.207034
0.204993
0.2031
0.20135
0.199737
0.198254
0.196889
0.195631
0.194472
0.193405
0.192419
0.191506
0.190663
0.189881
0.189159
0.188489
0.18787
0.187292
0.186748
0.186228
0.185719
0.185213
0.184701
0.184175
0.183626
0.183043
0.182415
0.181728
0.180971
0.180134
0.179207
0.178188
0.177079
0.175888
0.174627
0.173311
0.171954
0.170569
0.169163
0.167739
0.166293
0.164815
0.163296
0.161733
0.160122
0.158464
0.156757
0.154983
0.153101
0.15104
0.148714
0.146003
0.142742
0.138791
0.134212
0.129219
0.124083
0.118938
0.11391
0.109051
0.104354
0.0997867
0.095296
0.0908533
0.0864134
0.0819487
0.0774095
0.0727889
0.0681145
0.0634103
0.0587042
0.0539594
0.0490569
0.0439058
0.0385083
0.0329495
0.0273165
0.0217131
0.0162181
0.0109037
0.00582798
0.00109137
-0.00312045
-0.00695346
-0.0105526
-0.0140064
-0.0173608
-0.0206419
-0.0238692
-0.0270601
-0.0302302
-0.0333922
-0.0365559
-0.0397277
-0.0429117
-0.0461096
-0.0493221
-0.0525487
-0.0557886
-0.0590408
-0.062304
-0.0655772
-0.0688591
-0.0721488
-0.0754454
-0.0787479
-0.0820557
-0.085368
-0.0886842
-0.0920036
-0.0953258
-0.0986502
-0.101976
-0.105303
-0.108631
0.21912
0.216218
0.213421
0.210777
0.208318
0.206051
0.203967
0.202053
0.200295
0.198678
0.197186
0.195807
0.194523
0.193322
0.192193
0.191128
0.190118
0.189164
0.188261
0.187413
0.186616
0.185874
0.185179
0.184523
0.183898
0.183292
0.182696
0.182104
0.181511
0.180907
0.180284
0.179627
0.178923
0.17816
0.177325
0.176407
0.175402
0.174316
0.173159
0.171952
0.170714
0.169467
0.168227
0.167008
0.165815
0.164642
0.163471
0.162289
0.161084
0.159853
0.158591
0.15729
0.155933
0.154462
0.15281
0.150881
0.148576
0.145728
0.142219
0.138128
0.133684
0.129129
0.124603
0.120209
0.116005
0.111947
0.107964
0.103975
0.0999375
0.0958037
0.0915332
0.0870885
0.0825219
0.0778888
0.0731986
0.0684439
0.0635188
0.0582629
0.0526198
0.0466483
0.0404612
0.0341398
0.0277596
0.0213674
0.0149984
0.00875408
0.00295767
-0.00182465
-0.00599799
-0.00985314
-0.013521
-0.0170507
-0.0204657
-0.0237871
-0.0270386
-0.0302438
-0.0334236
-0.0365938
-0.0397657
-0.0429463
-0.0461394
-0.0493467
-0.0525684
-0.0558039
-0.0590523
-0.0623124
-0.065583
-0.0688629
-0.072151
-0.0754463
-0.0787479
-0.082055
-0.0853669
-0.0886828
-0.0920022
-0.0953245
-0.098649
-0.101975
-0.105303
-0.108631
0.218858
0.215453
0.212212
0.209204
0.206473
0.204017
0.201813
0.199825
0.198023
0.196378
0.194865
0.193459
0.192136
0.190875
0.189667
0.188499
0.187366
0.186277
0.185231
0.184236
0.183294
0.182416
0.181595
0.180823
0.180092
0.17939
0.178709
0.178041
0.177382
0.176723
0.176056
0.175368
0.174645
0.173873
0.173037
0.172124
0.171128
0.170058
0.168926
0.16776
0.166585
0.165432
0.164323
0.16328
0.162315
0.161421
0.160572
0.159736
0.158892
0.158041
0.157181
0.156313
0.155422
0.154426
0.15321
0.151704
0.14984
0.147505
0.144579
0.14116
0.137486
0.133753
0.130068
0.126512
0.12315
0.119909
0.116688
0.113364
0.109887
0.106227
0.102315
0.0981124
0.0937506
0.0893097
0.0847441
0.0800007
0.0749412
0.0693938
0.0633331
0.0568534
0.0500915
0.0431205
0.0359191
0.0284232
0.0205656
0.0124615
0.00479631
-0.000407773
-0.00479028
-0.00888066
-0.012805
-0.0165706
-0.0201749
-0.0236328
-0.0269741
-0.0302332
-0.0334418
-0.036625
-0.0398004
-0.0429794
-0.0461685
-0.049371
-0.0525879
-0.0558191
-0.0590637
-0.0623206
-0.0655886
-0.0688664
-0.0721528
-0.0754468
-0.0787475
-0.082054
-0.0853654
-0.0886812
-0.0920005
-0.0953228
-0.0986476
-0.101974
-0.105302
-0.108631
0.218393
0.214094
0.210058
0.206396
0.203168
0.200366
0.197941
0.195818
0.193941
0.192255
0.190718
0.189287
0.187931
0.186617
0.185333
0.184065
0.182813
0.181591
0.180413
0.179298
0.178249
0.177274
0.176375
0.175539
0.174758
0.174018
0.173308
0.172616
0.17193
0.171245
0.170554
0.169848
0.169115
0.168341
0.167511
0.166609
0.165624
0.164568
0.163457
0.162325
0.161204
0.160132
0.159132
0.158235
0.157465
0.156825
0.156276
0.15577
0.155261
0.154752
0.15425
0.153795
0.153386
0.152891
0.152154
0.151137
0.149841
0.148089
0.145827
0.143196
0.140436
0.137698
0.135023
0.132476
0.130088
0.127781
0.125481
0.122987
0.120244
0.117237
0.113866
0.110066
0.106082
0.102025
0.0977826
0.0932335
0.0882216
0.0825418
0.0762065
0.0693946
0.0622649
0.0548757
0.0469417
0.038164
0.0282062
0.0170043
0.00408276
0.000855777
-0.00330836
-0.00756687
-0.0118029
-0.0158844
-0.0197479
-0.0233939
-0.0268594
-0.0301939
-0.0334441
-0.0366474
-0.0398303
-0.0430098
-0.046196
-0.0493942
-0.0526066
-0.0558336
-0.0590745
-0.0623283
-0.0655936
-0.0688693
-0.0721541
-0.0754469
-0.0787467
-0.0820525
-0.0853635
-0.088679
-0.0919983
-0.0953208
-0.0986458
-0.101973
-0.105301
-0.108631
0.217616
0.211821
0.206458
0.201708
0.197655
0.19428
0.191491
0.189159
0.187184
0.185464
0.183925
0.1825
0.181145
0.179815
0.178497
0.177175
0.175851
0.174554
0.173329
0.172207
0.171179
0.170251
0.169428
0.168684
0.168012
0.167395