/*--------------------------------*- C++ -*----------------------------------*\
  =========                 |
  \\      /  F ield         | OpenFOAM: The Open Source CFD Toolbox
   \\    /   O peration     | Website:  https://openfoam.org
    \\  /    A nd           | Version:  6
     \\/     M anipulation  |
\*---------------------------------------------------------------------------*/
FoamFile
{
    version     2.0;
    format      ascii;
    class       volScalarField;
    location    "4800";
    object      T;
}
// * * * * * * * * * * * * * * * * * * * * * * * * * * * * * * * * * * * * * //

dimensions      [0 0 0 1 0 0 0];

internalField   nonuniform List<scalar> 
4800
(
552.483
552.35
552.216
552.082
551.948
551.815
551.683
551.554
551.428
551.308
551.194
551.089
550.992
550.903
550.822
550.747
550.678
550.614
550.555
550.5
550.448
550.399
550.353
550.308
550.266
550.224
550.184
550.144
550.105
550.066
550.027
549.987
549.946
549.905
549.863
549.82
549.775
549.729
549.681
549.631
549.579
549.525
549.469
549.41
549.349
549.286
549.221
549.153
549.083
549.01
548.935
548.858
548.779
548.697
548.612
548.525
548.436
548.343
548.248
548.149
548.048
547.943
547.834
547.723
547.608
547.49
547.369
547.244
547.117
546.986
546.852
546.715
546.575
546.432
546.286
546.138
545.987
545.835
545.683
545.533
545.386
545.243
545.101
544.961
544.819
544.681
544.546
544.416
544.291
544.169
544.049
543.931
543.814
543.698
543.582
543.466
543.35
543.233
543.117
542.999
542.882
542.764
542.646
542.528
542.409
542.29
542.171
542.052
541.932
541.813
541.693
541.573
541.453
541.333
541.213
541.092
540.972
540.851
540.731
540.61
552.483
552.349
552.215
552.081
551.947
551.814
551.682
551.553
551.427
551.308
551.195
551.091
550.994
550.906
550.824
550.75
550.681
550.617
550.558
550.503
550.452
550.403
550.357
550.312
550.27
550.229
550.189
550.149
550.11
550.071
550.032
549.992
549.952
549.911
549.869
549.825
549.78
549.734
549.686
549.636
549.584
549.53
549.473
549.414
549.353
549.29
549.224
549.156
549.086
549.013
548.939
548.861
548.782
548.7
548.615
548.528
548.438
548.345
548.25
548.151
548.049
547.944
547.835
547.724
547.609
547.491
547.369
547.245
547.117
546.986
546.852
546.715
546.576
546.433
546.287
546.138
545.987
545.834
545.681
545.529
545.382
545.24
545.102
544.968
544.824
544.683
544.547
544.417
544.292
544.17
544.05
543.932
543.815
543.699
543.583
543.466
543.35
543.234
543.117
543
542.882
542.764
542.646
542.528
542.409
542.29
542.171
542.052
541.933
541.813
541.693
541.573
541.453
541.333
541.213
541.092
540.972
540.851
540.731
540.61
552.483
552.349
552.215
552.08
551.946
551.812
551.68
551.551
551.427
551.309
551.198
551.094
550.999
550.911
550.83
550.756
550.688
550.624
550.566
550.511
550.459
550.411
550.365
550.321
550.279
550.239
550.199
550.16
550.122
550.083
550.045
550.005
549.965
549.923
549.881
549.837
549.792
549.745
549.697
549.646
549.594
549.539
549.482
549.423
549.361
549.297
549.231
549.163
549.093
549.02
548.945
548.867
548.787
548.705
548.62
548.533
548.442
548.349
548.253
548.154
548.052
547.946
547.837
547.725
547.61
547.491
547.369
547.245
547.117
546.986
546.852
546.715
546.575
546.433
546.287
546.139
545.988
545.835
545.683
545.531
545.382
545.238
545.105
544.991
544.83
544.686
544.55
544.419
544.294
544.171
544.051
543.933
543.816
543.7
543.583
543.467
543.351
543.234
543.117
543
542.882
542.765
542.646
542.528
542.409
542.29
542.171
542.052
541.933
541.813
541.693
541.573
541.453
541.333
541.213
541.092
540.972
540.851
540.731
540.61
552.483
552.349
552.215
552.08
551.946
551.812
551.68
551.552
551.428
551.312
551.203
551.101
551.007
550.92
550.84
550.767
550.699
550.636
550.578
550.524
550.473
550.425
550.38
550.337
550.296
550.257
550.218
550.18
550.142
550.104
550.066
550.026
549.986
549.945
549.902
549.858
549.812
549.765
549.715
549.664
549.61
549.554
549.496
549.436
549.373
549.309
549.242
549.173
549.102
549.029
548.954
548.876
548.795
548.712
548.627
548.539
548.448
548.354
548.257
548.158
548.055
547.948
547.839
547.726
547.61
547.491
547.368
547.243
547.115
546.984
546.85
546.713
546.573
546.431
546.285
546.137
545.987
545.836
545.683
545.53
545.38
545.235
545.099
544.967
544.825
544.686
544.551
544.422
544.296
544.174
544.053
543.935
543.818
543.701
543.584
543.468
543.351
543.235
543.118
543
542.883
542.765
542.647
542.528
542.41
542.291
542.171
542.052
541.933
541.813
541.693
541.573
541.453
541.333
541.213
541.092
540.972
540.851
540.731
540.61
552.483
552.349
552.215
552.081
551.947
551.814
551.683
551.556
551.434
551.319
551.212
551.112
551.019
550.934
550.855
550.783
550.716
550.654
550.597
550.543
550.493
550.447
550.403
550.362
550.322
550.284
550.247
550.209
550.172
550.135
550.096
550.057
550.017
549.975
549.932
549.888
549.841
549.793
549.743
549.69
549.635
549.577
549.517
549.456
549.392
549.326
549.258
549.188
549.116
549.042
548.966
548.887
548.805
548.721
548.635
548.546
548.454
548.359
548.262
548.161
548.057
547.95
547.839
547.726
547.609
547.488
547.365
547.239
547.11
546.978
546.844
546.707
546.567
546.425
546.28
546.133
545.985
545.834
545.683
545.532
545.383
545.238
545.098
544.961
544.823
544.686
544.553
544.424
544.299
544.176
544.056
543.937
543.819
543.702
543.586
543.469
543.352
543.235
543.118
543.001
542.883
542.765
542.647
542.528
542.41
542.291
542.172
542.052
541.933
541.813
541.693
541.573
541.453
541.333
541.213
541.092
540.972
540.851
540.731
540.61
552.483
552.349
552.215
552.082
551.949
551.818
551.688
551.563
551.443
551.33
551.225
551.127
551.036
550.952
550.875
550.804
550.739
550.679
550.622
550.57
550.522
550.477
550.435
550.396
550.357
550.32
550.284
550.248
550.211
550.174
550.136
550.097
550.056
550.015
549.971
549.927
549.879
549.83
549.778
549.724
549.667
549.608
549.547
549.483
549.418
549.351
549.281
549.21
549.136
549.06
548.982
548.901
548.818
548.733
548.645
548.554
548.461
548.365
548.266
548.164
548.058
547.95
547.838
547.723
547.604
547.483
547.358
547.231
547.101
546.968
546.833
546.696
546.556
546.414
546.27
546.125
545.978
545.83
545.682
545.534
545.387
545.243
545.101
544.961
544.823
544.687
544.555
544.427
544.301
544.179
544.058
543.939
543.821
543.704
543.587
543.47
543.353
543.236
543.119
543.001
542.883
542.765
542.647
542.529
542.41
542.291
542.172
542.052
541.933
541.813
541.693
541.573
541.453
541.333
541.213
541.092
540.972
540.851
540.731
540.61
552.483
552.349
552.216
552.084
551.952
551.822
551.695
551.572
551.455
551.345
551.242
551.146
551.058
550.976
550.901
550.832
550.769
550.71
550.656
550.606
550.559
550.516
550.476
550.438
550.401
550.366
550.33
550.295
550.259
550.222
550.185
550.146
550.105
550.063
550.02
549.975
549.927
549.876
549.823
549.768
549.709
549.648
549.585
549.52
549.453
549.383
549.312
549.239
549.163
549.085
549.004
548.921
548.835
548.747
548.657
548.564
548.469
548.371
548.27
548.166
548.058
547.948
547.834
547.718
547.597
547.474
547.348
547.219
547.088
546.954
546.818
546.679
546.539
546.398
546.255
546.111
545.966
545.821
545.676
545.531
545.387
545.245
545.103
544.962
544.824
544.689
544.557
544.429
544.304
544.181
544.06
543.941
543.823
543.705
543.588
543.471
543.354
543.237
543.119
543.002
542.884
542.766
542.647
542.529
542.41
542.291
542.172
542.053
541.933
541.813
541.693
541.573
541.453
541.333
541.213
541.092
540.972
540.851
540.731
540.61
552.484
552.351
552.219
552.088
551.958
551.829
551.704
551.584
551.47
551.363
551.263
551.171
551.085
551.006
550.934
550.867
550.805
550.749
550.697
550.649
550.604
550.563
550.525
550.489
550.453
550.419
550.384
550.35
550.315
550.279
550.242
550.203
550.163
550.121
550.078
550.032
549.983
549.932
549.878
549.821
549.76
549.698
549.633
549.566
549.497
549.425
549.352
549.276
549.197
549.116
549.032
548.946
548.858
548.766
548.673
548.577
548.479
548.378
548.274
548.168
548.058
547.945
547.829
547.71
547.588
547.462
547.334
547.203
547.07
546.934
546.797
546.657
546.517
546.375
546.233
546.091
545.948
545.806
545.664
545.523
545.382
545.242
545.102
544.962
544.824
544.69
544.559
544.431
544.306
544.183
544.062
543.943
543.824
543.706
543.589
543.472
543.354
543.237
543.12
543.002
542.884
542.766
542.648
542.529
542.41
542.291
542.172
542.053
541.933
541.813
541.693
541.573
541.453
541.333
541.213
541.092
540.972
540.851
540.731
540.61
552.484
552.353
552.222
552.093
551.964
551.838
551.716
551.599
551.489
551.386
551.289
551.2
551.118
551.042
550.972
550.908
550.849
550.795
550.745
550.699
550.657
550.618
550.581
550.547
550.513
550.479
550.446
550.413
550.379
550.344
550.308
550.27
550.23
550.188
550.145
550.099
550.05
549.998
549.942
549.884
549.822
549.758
549.691
549.622
549.551
549.477
549.401
549.323
549.241
549.156
549.068
548.978
548.886
548.791
548.694
548.595
548.493
548.389
548.282
548.172
548.059
547.943
547.824
547.702
547.576
547.448
547.318
547.184
547.048
546.911
546.771
546.631
546.49
546.348
546.206
546.065
545.924
545.785
545.646
545.508
545.371
545.233
545.096
544.958
544.822
544.689
544.559
544.432
544.307
544.184
544.063
543.944
543.825
543.707
543.59
543.472
543.355
543.238
543.12
543.002
542.885
542.766
542.648
542.529
542.411
542.292
542.172
542.053
541.933
541.813
541.694
541.574
541.453
541.333
541.213
541.092
540.972
540.851
540.731
540.61
552.485
552.355
552.226
552.099
551.973
551.85
551.731
551.618
551.511
551.412
551.32
551.234
551.155
551.082
551.016
550.954
550.898
550.847
550.8
550.756
550.717
550.68
550.645
550.612
550.579
550.548
550.516
550.484
550.451
550.417
550.382
550.345
550.305
550.264
550.221
550.175
550.126
550.073
550.017
549.957
549.894
549.829
549.76
549.69
549.616
549.54
549.461
549.379
549.294
549.205
549.113
549.019
548.922
548.823
548.722
548.619
548.513
548.405
548.294
548.18
548.062
547.942
547.819
547.693
547.564
547.433
547.299
547.162
547.024
546.883
546.742
546.6
546.458
546.316
546.174
546.034
545.895
545.758
545.622
545.488
545.354
545.22
545.086
544.952
544.819
544.687
544.558
544.431
544.306
544.184
544.063
543.943
543.825
543.707
543.59
543.472
543.355
543.238
543.12
543.003
542.885
542.767
542.648
542.53
542.411
542.292
542.172
542.053
541.933
541.814
541.694
541.574
541.453
541.333
541.213
541.092
540.972
540.851
540.731
540.61
552.486
552.359
552.232
552.107
551.984
551.864
551.749
551.64
551.538
551.443
551.355
551.273
551.198
551.128
551.065
551.007
550.954
550.905
550.86
550.82
550.782
550.747
550.714
550.683
550.653
550.623
550.593
550.562
550.531
550.499
550.464
550.428
550.39
550.349
550.306
550.26
550.211
550.158
550.102
550.042
549.978
549.911
549.841
549.769
549.693
549.615
549.533
549.447
549.358
549.265
549.169
549.071
548.97
548.866
548.761
548.653
548.543
548.43
548.314
548.194
548.072
547.946
547.818
547.687
547.553
547.417
547.279
547.139
546.997
546.854
546.711
546.567
546.423
546.28
546.139
546
545.862
545.727
545.594
545.463
545.332
545.202
545.073
544.943
544.813
544.683
544.554
544.428
544.304
544.182
544.061
543.942
543.824
543.707
543.589
543.472
543.355
543.238
543.12
543.003
542.885
542.767
542.648
542.53
542.411
542.292
542.173
542.053
541.933
541.814
541.694
541.574
541.454
541.333
541.213
541.092
540.972
540.851
540.731
540.61
552.488
552.363
552.24
552.117
551.998
551.881
551.771
551.666
551.569
551.478
551.394
551.316
551.245
551.179
551.119
551.064
551.014
550.968
550.926
550.888
550.853
550.82
550.79
550.76
550.732
550.704
550.676
550.647
550.618
550.587
550.554
550.519
550.482
550.442
550.4
550.355
550.306
550.253
550.196
550.136
550.072
550.004
549.933
549.859
549.782
549.701
549.616
549.527
549.434
549.338
549.238
549.135
549.03
548.922
548.812
548.7
548.584
548.466
548.344
548.219
548.09
547.958
547.824
547.686
547.547
547.405
547.262
547.118
546.972
546.826
546.68
546.533
546.388
546.244
546.103
545.963
545.827
545.694
545.563
545.434
545.307
545.181
545.056
544.931
544.804
544.675
544.548
544.422
544.299
544.178
544.059
543.94
543.823
543.705
543.588
543.472
543.355
543.238
543.12
543.003
542.885
542.767
542.648
542.53
542.411
542.292
542.173
542.053
541.934
541.814
541.694
541.574
541.454
541.333
541.213
541.093
540.972
540.851
540.731
540.61
552.489
552.368
552.248
552.129
552.014
551.902
551.796
551.696
551.603
551.516
551.436
551.363
551.295
551.233
551.176
551.125
551.078
551.035
550.996
550.961
550.929
550.898
550.87
550.843
550.817
550.791
550.765
550.739
550.711
550.682
550.651
550.617
550.581
550.543
550.502
550.457
550.409
550.357
550.3
550.24
550.175
550.107
550.035
549.96
549.88
549.798
549.71
549.619
549.523
549.423
549.32
549.213
549.104
548.993
548.879
548.762
548.642
548.518
548.389
548.257
548.121
547.982
547.84
547.695
547.549
547.401
547.252
547.102
546.952
546.802
546.652
546.503
546.355
546.21
546.067
545.928
545.792
545.66
545.53
545.404
545.28
545.158
545.036
544.914
544.79
544.663
544.537
544.413
544.292
544.172
544.054
543.937
543.82
543.703
543.587
543.471
543.354
543.237
543.12
543.002
542.885
542.767
542.648
542.53
542.411
542.292
542.173
542.053
541.934
541.814
541.694
541.574
541.454
541.333
541.213
541.093
540.972
540.851
540.731
540.61
552.491
552.374
552.258
552.143
552.032
551.925
551.824
551.729
551.64
551.558
551.482
551.412
551.349
551.29
551.237
551.189
551.145
551.106
551.07
551.037
551.007
550.98
550.954
550.929
550.905
550.882
550.859
550.834
550.808
550.781
550.752
550.72
550.686
550.649
550.609
550.565
550.517
550.466
550.41
550.35
550.286
550.217
550.145
550.069
549.988
549.904
549.815
549.722
549.624
549.522
549.416
549.307
549.195
549.08
548.963
548.842
548.717
548.588
548.453
548.312
548.168
548.019
547.869
547.716
547.562
547.407
547.251
547.095
546.94
546.785
546.631
546.479
546.329
546.181
546.037
545.897
545.76
545.628
545.5
545.375
545.252
545.131
545.011
544.891
544.769
544.644
544.522
544.401
544.283
544.165
544.049
543.933
543.817
543.701
543.585
543.469
543.353
543.236
543.119
543.002
542.884
542.766
542.648
542.53
542.411
542.292
542.173
542.053
541.934
541.814
541.694
541.574
541.454
541.333
541.213
541.093
540.972
540.852
540.731
540.61
552.493
552.38
552.268
552.159
552.052
551.95
551.854
551.763
551.679
551.601
551.529
551.464
551.404
551.349
551.299
551.254
551.214
551.177
551.145
551.115
551.088
551.063
551.039
551.017
550.996
550.975
550.954
550.932
550.908
550.883
550.855
550.825
550.793
550.757
550.719
550.676
550.63
550.579
550.524
550.465
550.401
550.333
550.261
550.184
550.103
550.018
549.929
549.835
549.736
549.633
549.526
549.415
549.301
549.185
549.065
548.942
548.814
548.679
548.537
548.388
548.233
548.075
547.914
547.752
547.589
547.426
547.263
547.101
546.939
546.779
546.621
546.465
546.312
546.162
546.016
545.874
545.736
545.602
545.473
545.348
545.225
545.104
544.983
544.862
544.741
544.62
544.502
544.386
544.271
544.157
544.042
543.928
543.813
543.698
543.583
543.467
543.351
543.235
543.118
543.001
542.884
542.766
542.648
542.53
542.411
542.292
542.173
542.053
541.934
541.814
541.694
541.574
541.454
541.333
541.213
541.093
540.972
540.852
540.731
540.61
552.496
552.387
552.28
552.176
552.074
551.977
551.885
551.799
551.719
551.645
551.578
551.516
551.459
551.408
551.361
551.32
551.283
551.249
551.219
551.192
551.167
551.145
551.124
551.104
551.085
551.067
551.048
551.028
551.006
550.983
550.958
550.93
550.899
550.865
550.827
550.786
550.741
550.692
550.638
550.58
550.517
550.45
550.378
550.302
550.222
550.138
550.048
549.955
549.857
549.754
549.648
549.537
549.423
549.306
549.186
549.062
548.932
548.793
548.645
548.487
548.321
548.151
547.979
547.806
547.634
547.462
547.292
547.123
546.956
546.791
546.628
546.469
546.313
546.16
546.011
545.866
545.726
545.59
545.458
545.33
545.204
545.079
544.955
544.831
544.708
544.591
544.481
544.371
544.26
544.148
544.036
543.922
543.809
543.695
543.58
543.465
543.35
543.234
543.117
543.001
542.883
542.766
542.648
542.529
542.411
542.292
542.173
542.053
541.934
541.814
541.694
541.574
541.454
541.334
541.213
541.093
540.972
540.852
540.731
540.61
552.498
552.395
552.293
552.193
552.096
552.004
551.917
551.835
551.759
551.689
551.625
551.567
551.513
551.465
551.422
551.383
551.349
551.318
551.29
551.265
551.243
551.222
551.204
551.186
551.169
551.153
551.136
551.118
551.098
551.077
551.054
551.027
550.998
550.966
550.93
550.891
550.847
550.799
550.747
550.69
550.629
550.563
550.493
550.418
550.34
550.257
550.17
550.079
549.983
549.882
549.778
549.67
549.557
549.442
549.323
549.201
549.071
548.929
548.775
548.609
548.433
548.251
548.067
547.883
547.701
547.521
547.343
547.168
546.995
546.825
546.659
546.496
546.338
546.183
546.032
545.885
545.742
545.602
545.465
545.33
545.198
545.068
544.936
544.802
544.667
544.56
544.46
544.357
544.25
544.141
544.03
543.918
543.805
543.691
543.577
543.463
543.348
543.232
543.116
543
542.883
542.765
542.647
542.529
542.411
542.292
542.173
542.053
541.934
541.814
541.694
541.574
541.454
541.334
541.213
541.093
540.972
540.852
540.731
540.61
552.5
552.401
552.304
552.209
552.117
552.029
551.946
551.868
551.796
551.73
551.669
551.614
551.564
551.518
551.477
551.441
551.408
551.379
551.354
551.331
551.31
551.292
551.275
551.259
551.244
551.228
551.213
551.197
551.179
551.159
551.137
551.113
551.085
551.054
551.02
550.983
550.941
550.894
550.844
550.789
550.729
550.666
550.598
550.526
550.45
550.371
550.287
550.199
550.107
550.011
549.911
549.807
549.699
549.588
549.473
549.355
549.226
549.084
548.927
548.753
548.567
548.375
548.18
547.986
547.795
547.607
547.422
547.242
547.065
546.893
546.724
546.56
546.4
546.243
546.09
545.939
545.792
545.647
545.503
545.362
545.222
545.082
544.94
544.788
544.603
544.529
544.448
544.35
544.245
544.136
544.025
543.914
543.801
543.688
543.575
543.461
543.346
543.231
543.115
542.999
542.882
542.764
542.647
542.529
542.41
542.292
542.172
542.053
541.934
541.814
541.694
541.574
541.454
541.334
541.213
541.093
540.972
540.852
540.731
540.61
552.502
552.407
552.313
552.222
552.134
552.05
551.971
551.897
551.828
551.765
551.707
551.654
551.606
551.563
551.524
551.489
551.458
551.431
551.406
551.384
551.365
551.347
551.331
551.316
551.301
551.287
551.272
551.257
551.24
551.222
551.201
551.177
551.151
551.122
551.089
551.053
551.013
550.968
550.919
550.867
550.81
550.749
550.685
550.617
550.545
550.47
550.391
550.309
550.223
550.133
550.04
549.943
549.842
549.737
549.629
549.516
549.392
549.252
549.093
548.914
548.72
548.521
548.319
548.118
547.92
547.727
547.539
547.356
547.178
547.005
546.836
546.671
546.509
546.35
546.193
546.038
545.886
545.734
545.583
545.433
545.283
545.133
544.982
544.83
544.682
544.567
544.463
544.356
544.246
544.135
544.024
543.911
543.799
543.686
543.572
543.459
543.344
543.229
543.114
542.997
542.881
542.764
542.646
542.528
542.41
542.291
542.172
542.053
541.934
541.814
541.694
541.574
541.454
541.334
541.213
541.093
540.972
540.852
540.731
540.61
552.503
552.411
552.319
552.231
552.146
552.065
551.988
551.917
551.851
551.79
551.735
551.684
551.637
551.595
551.558
551.524
551.493
551.466
551.442
551.42
551.4
551.382
551.366
551.35
551.336
551.321
551.306
551.291
551.274
551.256
551.236
551.213
551.188
551.16
551.128
551.093
551.054
551.011
550.964
550.914
550.86
550.803
550.743
550.68
550.614
550.545
550.473
550.398
550.32
550.239
550.154
550.066
549.975
549.88
549.782
549.677
549.559
549.423
549.264
549.084
548.888
548.686
548.481
548.279
548.081
547.888
547.702
547.52
547.343
547.171
547.003
546.838
546.675
546.513
546.351
546.19
546.031
545.872
545.712
545.55
545.387
545.224
545.061
544.902
544.752
544.618
544.493
544.373
544.256
544.14
544.026
543.911
543.798
543.684
543.57
543.457
543.342
543.227
543.112
542.996
542.88
542.763
542.646
542.528
542.41
542.291
542.172
542.053
541.934
541.814
541.694
541.574
541.454
541.334
541.213
541.093
540.972
540.852
540.731
540.61
552.503
552.411
552.32
552.232
552.148
552.069
551.994
551.925
551.861
551.802
551.747
551.697
551.652
551.61
551.573
551.538
551.507
551.479
551.453
551.43
551.409
551.389
551.371
551.354
551.338
551.322
551.306
551.29
551.272
551.254
551.233
551.211
551.186
551.159
551.128
551.094
551.056
551.014
550.969
550.921
550.87
550.817
550.762
550.704
550.645
550.583
550.52
550.454
550.386
550.316
550.243
550.167
550.088
550.006
549.919
549.823
549.713
549.584
549.431
549.255
549.063
548.864
548.665
548.469
548.278
548.092
547.913
547.738
547.567
547.398
547.233
547.068
546.902
546.736
546.569
546.403
546.237
546.069
545.897
545.72
545.54
545.358
545.179
545.004
544.837
544.682
544.536
544.4
544.273
544.151
544.031
543.914
543.798
543.684
543.569
543.455
543.34
543.226
543.111
542.995
542.879
542.762
542.645
542.527
542.409
542.291
542.172
542.053
541.934
541.814
541.694
541.574
541.454
541.334
541.213
541.093
540.972
540.852
540.731
540.61
552.501
552.405
552.311
552.222
552.137
552.057
551.983
551.915
551.851
551.792
551.739
551.689
551.643
551.601
551.562
551.526
551.493
551.463
551.434
551.408
551.383
551.361
551.34
551.32
551.301
551.283
551.264
551.245
551.226
551.206
551.185
551.162
551.137
551.11
551.079
551.046
551.009
550.968
550.925
550.879
550.832
550.783
550.732
550.681
550.63
550.577
550.524
550.469
550.412
550.354
550.294
550.232
550.168
550.1
550.025
549.941
549.843
549.725
549.582
549.416
549.236
549.05
548.864
548.682
548.506
548.336
548.171
548.008
547.847
547.687
547.525
547.361
547.194
547.024
546.854
546.684
546.512
546.334
546.148
545.952
545.75
545.546
545.342
545.142
544.949
544.764
544.591
544.438
544.299
544.168
544.043
543.921
543.802
543.685
543.569
543.454
543.339
543.224
543.109
542.994
542.878
542.761
542.644
542.527
542.409
542.29
542.172
542.053
541.933
541.814
541.694
541.574
541.454
541.334
541.213
541.093
540.972
540.852
540.731
540.61
552.497
552.391
552.289
552.193
552.104
552.021
551.946
551.876
551.812
551.753
551.699
551.649
551.602
551.559
551.518
551.479
551.442
551.408
551.375
551.344
551.315
551.288
551.263
551.239
551.216
551.194
551.173
551.151
551.13
551.108
551.085
551.061
551.036
551.008
550.977
550.944
550.908
550.868
550.826
550.782
550.738
550.692
550.647
550.603
550.56
550.517
550.475
550.432
550.388
550.344
550.298
550.251
550.202
550.148
550.089
550.019
549.935
549.832
549.705
549.558
549.397
549.232
549.069
548.91
548.758
548.611
548.467
548.322
548.176
548.027
547.872
547.712
547.547
547.379
547.209
547.037
546.859
546.669
546.464
546.248
546.024
545.794
545.562
545.33
545.098
544.87
544.659
544.485
544.334
544.194
544.06
543.932
543.808
543.688
543.57
543.453
543.338
543.223
543.108
542.992
542.877
542.76
542.644
542.526
542.408
542.29
542.172
542.053
541.933
541.814
541.694
541.574
541.454
541.334
541.213
541.093
540.972
540.852
540.731
540.61
552.487
552.363
552.245
552.135
552.036
551.947
551.867
551.794
551.729
551.669
551.614
551.563
551.515
551.469
551.425
551.383
551.342
551.302
551.264
551.228
551.194
551.162
551.133
551.105
551.078
551.053
551.028
551.004
550.98
550.956
550.932
550.907
550.881
550.853
550.823
550.789
550.753
550.714
550.673
550.631
550.588
550.547
550.506
550.468
550.433
550.401
550.37
550.34
550.309
550.278
550.247
550.215
550.183
550.147
550.103
550.048
549.981
549.896
549.79
549.667
549.534
549.399
549.266
549.138
549.016
548.899
548.782
548.662
548.536
548.404
548.263
548.111
547.953
547.793
547.628
547.456
547.273
547.073
546.853
546.619
546.374
546.121
545.859
545.586
545.3
545.005
544.726
544.537
544.378
544.229
544.087
543.95
543.819
543.693
543.572
543.454
543.337
543.222
543.107
542.991
542.876
542.759
542.643
542.526
542.408
542.29
542.171
542.052
541.933
541.814
541.694
541.574
541.454
541.334
541.213
541.093
540.972
540.852
540.731
540.61
552.47
552.313
552.166
552.033
551.915
551.813
551.725
551.648
551.58
551.518
551.462
551.411
551.361
551.314
551.267
551.221
551.176
551.132
551.089
551.049
551.011
550.976
550.943
550.913
550.885
550.859
550.833
550.808
550.784
550.759
550.734
550.708
550.682
550.654
550.623
550.591
550.555
550.517
550.476
550.435
550.395
550.356
550.32
550.287
550.259
550.236
550.215
550.197
550.178
550.159
550.141
550.124
550.109
550.091
550.064
550.028
549.981
549.918
549.836
549.741
549.641
549.542
549.446
549.354
549.268
549.184
549.101
549.011
548.912
548.803
548.681
548.544
548.4
548.254
548.101
547.936
547.755
547.549
547.32
547.074
546.816
546.548
546.26
545.94
545.577
545.169
544.735
544.582
544.431
544.277
544.123
543.975
543.835
543.702
543.576
543.455
543.337
543.221
543.106
542.99
542.875
542.759
542.642
542.525
542.408
542.29
542.171
542.052
541.933
541.814
541.694
541.574
541.454
541.334
541.214
541.093
540.972
540.852
540.731
540.61
552.442
552.231
552.035
551.862
551.714
551.591
551.489
551.405
551.333
551.27
551.214
551.163
551.113
551.065
551.018
550.97
550.922
550.875
550.831
550.791
550.754
550.721
550.692
550.665
550.642
550.62
550.599
550.578
550.556
550.533
550.509
550.484
550.458
550.431
550.401
550.37
550.335
550.298
550.259
550.22
550.181
550.145
550.112
550.083
550.06
550.044
550.032
550.022
550.012
550.002
549.993
549.991
549.993
549.993
549.982
549.964
549.942
549.905
549.85
549.785
549.723
549.666
549.608
549.557
549.51
549.46
549.415
549.36
549.294
549.216
549.119
549.003
548.879
548.756
548.624
548.474
548.303
548.097
547.864
547.619
547.364
547.101
546.796
546.427
545.962
545.393
544.747
544.637
544.502
544.34
544.171
544.008
543.855
543.714
543.582
543.458
543.338
543.221
543.105
542.989
542.874
542.758
542.642
542.525
542.407
542.289
542.171
542.052
541.933
541.814
541.694
541.574
541.454
541.334
541.214
541.093
540.973
540.852
540.731
540.61
552.397
552.101
551.829
551.593
551.397
551.241
551.118
551.021
550.945
550.882
550.828
550.779
550.733
550.687
550.642
550.596
550.55
550.506
550.468
550.436
550.411
550.392
550.377
550.367
550.36
550.354
550.349
550.341
550.329
550.312
550.293
550.27
550.246
550.22
550.193
550.163
550.131
550.097
550.062
550.026
549.992
549.96
549.93
549.905
549.886
549.873
549.864
549.857
549.848
549.838
549.833
549.845
549.864
549.877
549.881
549.886
549.897
549.89
549.863
549.828
549.808
549.804
549.784
549.781
549.777
549.751
549.749
549.733
549.702
549.659
549.586
549.494
549.395
549.303
549.199
549.068
548.915
548.706
548.475
548.261
548.034
547.808
547.501
547.083
546.479
545.692
544.521
544.708
544.601
544.421
544.229
544.047
543.88
543.728
543.59
543.461
543.339
543.221
543.104
542.988
542.873
542.757
542.641
542.524
542.407
542.289
542.171
542.052
541.933
541.814
541.694
541.574
541.454
541.334
541.214
541.093
540.973
540.852
540.731
540.61
552.332
551.909
551.523
551.191
550.921
550.713
550.558
550.445
550.363
550.302
550.252
550.21
550.17
550.132
550.094
550.056
550.019
549.988
549.969
549.963
549.968
549.982
550.004
550.031
550.061
550.092
550.118
550.136
550.145
550.143
550.135
550.121
550.102
550.08
550.055
550.029
550.001
549.973
549.946
549.921
549.897
549.873
549.852
549.834
549.82
549.812
549.8
549.782
549.756
549.728
549.717
549.75
549.778
549.787
549.805
549.832
549.865
549.907
549.917
549.912
549.939
550.028
550.021
550.085
550.15
550.095
550.151
550.174
550.161
550.158
550.083
550.013
549.932
549.869
549.791
549.66
549.54
549.305
549.078
548.961
548.784
548.66
548.349
547.889
547.082
546.223
545.469
545.029
544.75
544.51
544.289
544.087
543.905
543.744
543.598
543.465
543.341
543.221
543.104
542.988
542.872
542.757
542.641
542.524
542.407
542.289
542.171
542.052
541.933
541.814
541.694
541.575
541.455
541.334
541.214
541.093
540.973
540.852
540.731
540.61
552.247
551.655
551.109
550.637
550.256
549.966
549.757
549.616
549.527
549.469
549.428
549.397
549.369
549.345
549.322
549.301
549.283
549.279
549.298
549.34
549.402
549.48
549.57
549.668
549.768
549.863
549.945
550.007
550.053
550.082
550.099
550.107
550.106
550.094
550.073
550.046
550.019
550.001
549.993
549.996
550.001
550.001
550.003
550.008
550.01
550.018
549.992
549.94
549.855
549.759
549.7
549.761
549.782
549.732
549.763
549.789
549.76
549.791
549.816
549.906
549.998
550.217
550.335
550.436
550.597
550.482
550.588
550.623
550.61
550.68
550.537
550.556
550.427
550.384
550.283
550.103
550.022
549.746
549.561
549.566
549.388
549.423
549.002
548.338
547.281
546.205
545.508
545.094
544.807
544.561
544.331
544.119
543.927
543.757
543.606
543.469
543.342
543.221
543.103
542.987
542.872
542.756
542.64
542.524
542.407
542.289
542.171
542.052
541.933
541.814
541.695
541.575
541.455
541.335
541.214
541.094
540.973
540.852
540.731
540.61
552.158
551.376
550.636
549.977
549.427
548.995
548.69
548.494
548.389
548.338
548.308
548.293
548.285
548.282
548.282
548.285
548.297
548.336
548.414
548.535
548.685
548.863
549.059
549.274
549.483
549.677
549.845
549.972
550.078
550.165
550.24
550.307
550.354
550.371
550.356
550.314
550.274
550.28
550.318
550.399
550.474
550.53
550.598
550.676
550.709
550.74
550.655
550.517
550.279
549.99
549.758
549.689
549.671
549.641
549.645
549.612
549.576
549.597
549.632
549.833
550.147
550.454
550.835
551.007
551.373
551.17
551.285
551.26
551.204
551.343
550.932
551.189
550.827
550.709
550.56
550.269
550.257
549.913
549.669
549.716
549.364
549.184
548.784
547.644
546.634
545.596
544.984
544.869
544.732
544.551
544.345
544.137
543.943
543.768
543.613
543.473
543.344
543.222
543.103
542.987
542.872
542.756
542.64
542.524
542.407
542.289
542.171
542.052
541.934
541.814
541.695
541.575
541.455
541.335
541.214
541.094
540.973
540.852
540.731
540.61
552.11
551.195
550.279
549.404
548.608
547.921
547.445
547.107
546.949
546.903
546.881
546.89
546.9
546.925
546.948
546.983
547.021
547.125
547.289
547.518
547.776
548.079
548.414
548.81
549.147
549.464
549.761
549.96
550.134
550.317
550.516
550.707
550.857
550.945
550.95
550.866
550.785
550.902
551.051
551.34
551.569
551.712
551.955
552.207
552.211
552.146
551.821
551.401
550.846
550.242
549.811
549.652
549.556
549.538
549.521
549.366
549.366
549.493
549.678
550.157
550.832
551.101
551.751
551.844
552.604
552.301
552.415
552.148
552.228
552.262
551.372
551.972
551.271
550.678
550.593
550.34
550.5
549.83
549.288
548.922
548.605
547.837
547.593
546.153
545.161
544.544
543.976
544.512
544.602
544.511
544.341
544.144
543.951
543.775
543.617
543.475
543.345
543.222
543.103
542.987
542.871
542.756
542.64
542.524
542.407
542.289
542.171
542.053
541.934
541.815
541.695
541.575