/*--------------------------------*- C++ -*----------------------------------*\
  =========                 |
  \\      /  F ield         | OpenFOAM: The Open Source CFD Toolbox
   \\    /   O peration     | Website:  https://openfoam.org
    \\  /    A nd           | Version:  6
     \\/     M anipulation  |
\*---------------------------------------------------------------------------*/
FoamFile
{
    version     2.0;
    format      ascii;
    class       volVectorField;
    location    "4800";
    object      U;
}
// * * * * * * * * * * * * * * * * * * * * * * * * * * * * * * * * * * * * * //

dimensions      [0 1 -1 0 0 0 0];

internalField   nonuniform List<vector> 
4800
(
(-2.58781e-05 0 -1.5541e-05)
(1.46031e-05 0 7.24797e-06)
(-3.23706e-06 0 -9.22365e-06)
(-1.85082e-05 0 2.88255e-06)
(-3.12811e-05 0 -7.16953e-06)
(-3.33826e-05 0 -9.67854e-06)
(-7.64493e-05 0 6.50875e-06)
(-0.00015554 0 6.1611e-06)
(-0.000229283 0 -5.69899e-05)
(-0.000372085 0 -0.000143864)
(-0.000581929 0 -0.000103609)
(-0.000678464 0 3.13543e-05)
(-0.000744516 0 9.81091e-07)
(-0.000786922 0 -2.50878e-05)
(-0.000810606 0 -3.45849e-05)
(-0.000821324 0 -2.89143e-05)
(-0.000819859 0 -5.42505e-05)
(-0.000808961 0 -6.3133e-05)
(-0.000809606 0 -3.08519e-05)
(-0.000812419 0 -1.08569e-05)
(-0.000810398 0 1.83062e-07)
(-0.000810179 0 -2.22403e-05)
(-0.00082445 0 -1.79864e-05)
(-0.000840832 0 -1.03724e-05)
(-0.000858063 0 -2.67573e-05)
(-0.000876756 0 -3.27516e-05)
(-0.00088667 0 -2.81568e-05)
(-0.000889966 0 -2.89415e-05)
(-0.000891114 0 -3.77597e-05)
(-0.000891618 0 -3.62542e-05)
(-0.000838138 0 1.08307e-05)
(-0.000804863 0 1.01865e-05)
(-0.000810142 0 -3.19607e-05)
(-0.000825592 0 -4.45832e-05)
(-0.000773942 0 1.34658e-05)
(-0.000709621 0 -2.13182e-05)
(-0.000680706 0 -6.98201e-05)
(-0.000653298 0 2.08416e-06)
(-0.000565988 0 0.000103337)
(-0.00051126 0 -5.22304e-05)
(-0.000481774 0 -5.47658e-05)
(-0.000470426 0 -3.60917e-05)
(-0.000451268 0 -3.39458e-05)
(-0.000436438 0 -3.56048e-05)
(-0.000422493 0 -2.88153e-05)
(-0.000417158 0 -3.00575e-05)
(-0.000402275 0 -5.01561e-05)
(-0.000364365 0 -6.20839e-05)
(-0.00034321 0 -3.60136e-05)
(-0.000325705 0 -3.55589e-05)
(-0.000313351 0 -2.69966e-05)
(-0.000302708 0 -1.22428e-05)
(-0.000287991 0 -1.05643e-07)
(-0.000263617 0 -6.28804e-06)
(-0.000234068 0 -5.056e-06)
(-0.000208005 0 -7.24956e-06)
(-0.000185004 0 -8.22325e-06)
(-0.000153255 0 -2.717e-05)
(-0.00011492 0 -3.63511e-05)
(-8.38393e-05 0 -3.2551e-05)
(-5.97797e-05 0 -2.41336e-05)
(-4.04195e-05 0 -1.2654e-05)
(-2.39881e-05 0 -6.96415e-06)
(-9.4306e-06 0 -1.78689e-05)
(1.32082e-06 0 2.19496e-05)
(8.3599e-06 0 -1.68185e-05)
(1.69911e-05 0 -1.69982e-05)
(2.44207e-05 0 -1.07032e-05)
(2.84323e-05 0 -3.7409e-05)
(4.61928e-05 0 -2.26259e-05)
(3.57622e-05 0 -2.23602e-05)
(1.87944e-05 0 -4.89958e-05)
(4.05964e-05 0 -3.95886e-05)
(7.56007e-05 0 -3.44945e-05)
(0.000103083 0 -3.03645e-05)
(0.000109009 0 -2.26531e-05)
(0.000112773 0 -2.60513e-05)
(0.000133595 0 -3.38817e-05)
(0.000195952 0 -1.0792e-05)
(0.000203168 0 -3.57671e-05)
(0.000281252 0 -8.87018e-05)
(0.000192639 0 -0.000104267)
(6.201e-06 0 9.21635e-05)
(-9.89834e-13 0 -4.26381e-13)
(-1.5345e-12 0 -5.80022e-14)
(-3.09255e-13 0 -3.3074e-14)
(-2.81669e-13 0 6.02469e-15)
(-3.04944e-13 0 1.79368e-14)
(-3.38299e-13 0 1.58499e-14)
(-3.63004e-13 0 9.27069e-15)
(-3.73967e-13 0 2.10844e-15)
(-3.71411e-13 0 -4.35633e-15)
(-3.57156e-13 0 -9.79531e-15)
(-3.33297e-13 0 -1.41726e-14)
(-3.01864e-13 0 -1.75241e-14)
(-2.64764e-13 0 -1.99014e-14)
(-2.23779e-13 0 -2.13712e-14)
(-1.80578e-13 0 -2.20198e-14)
(-1.36719e-13 0 -2.19464e-14)
(-9.36088e-14 0 -2.12553e-14)
(-5.24517e-14 0 -2.0052e-14)
(-1.42135e-14 0 -1.84414e-14)
(2.03722e-14 0 -1.65246e-14)
(5.07783e-14 0 -1.43931e-14)
(7.66569e-14 0 -1.21259e-14)
(9.78172e-14 0 -9.79164e-15)
(1.14208e-13 0 -7.45293e-15)
(1.25894e-13 0 -5.16845e-15)
(1.33038e-13 0 -2.99216e-15)
(1.3588e-13 0 -9.65642e-16)
(1.3472e-13 0 8.92e-16)
(1.29921e-13 0 2.58413e-15)
(1.21911e-13 0 4.12074e-15)
(1.1115e-13 0 5.50021e-15)
(9.80646e-14 0 6.70402e-15)
(8.30111e-14 0 7.70713e-15)
(6.62972e-14 0 8.49408e-15)
(4.82501e-14 0 9.06805e-15)
(2.92645e-14 0 9.44304e-15)
(9.79566e-15 0 9.60727e-15)
(-1.23426e-05 0 -2.48539e-05)
(1.15246e-05 0 -1.17813e-07)
(4.93918e-06 0 1.93296e-05)
(-2.51534e-05 0 2.74219e-05)
(-5.01923e-05 0 3.58477e-05)
(-5.99118e-05 0 4.11636e-05)
(-0.000185591 0 6.48641e-05)
(-0.000229607 0 0.00020196)
(-0.000311689 0 0.000271136)
(-0.000488448 0 0.000247712)
(-0.000618834 0 0.000193056)
(-0.000727003 0 3.82145e-05)
(-0.000789214 0 1.86641e-05)
(-0.000825901 0 6.53974e-05)
(-0.000864457 0 4.38629e-05)
(-0.000894768 0 2.92007e-05)
(-0.000899408 0 3.80996e-05)
(-0.000899653 0 3.70298e-05)
(-0.000915958 0 5.37759e-07)
(-0.000922101 0 -1.19771e-05)
(-0.000923092 0 -8.19477e-06)
(-0.000935367 0 -2.13879e-05)
(-0.00095827 0 -6.26501e-06)
(-0.000993021 0 6.29725e-05)
(-0.00103363 0 2.8375e-05)
(-0.00106384 0 2.19843e-05)
(-0.00109566 0 4.82552e-05)
(-0.00113669 0 5.5348e-06)
(-0.00115797 0 2.85944e-05)
(-0.00115897 0 7.12923e-06)
(-0.00110967 0 -4.81811e-05)
(-0.00107865 0 -4.40278e-05)
(-0.00106521 0 2.06264e-05)
(-0.0010379 0 4.63328e-05)
(-0.000971024 0 -9.87066e-05)
(-0.000890126 0 -0.000140164)
(-0.000828904 0 3.89097e-06)
(-0.000792115 0 -1.75317e-05)
(-0.000754102 0 -0.00011655)
(-0.000649641 0 -0.000201953)
(-0.000557883 0 7.33848e-05)
(-0.000496097 0 4.033e-06)
(-0.000449689 0 -3.23035e-05)
(-0.000395857 0 4.04376e-05)
(-0.000367637 0 1.31992e-05)
(-0.000366518 0 -2.79322e-06)
(-0.000372107 0 -2.041e-07)
(-0.000362331 0 -7.97825e-06)
(-0.00033984 0 -1.62211e-05)
(-0.000325856 0 -1.04803e-05)
(-0.000312388 0 -1.25805e-05)
(-0.000291272 0 -2.94339e-05)
(-0.000263933 0 -3.57779e-05)
(-0.000237199 0 -4.33634e-05)
(-0.000207961 0 -5.25074e-05)
(-0.000175994 0 -6.59801e-05)
(-0.000156396 0 -4.09915e-05)
(-0.00013457 0 -2.74322e-05)
(-0.000101748 0 -5.23278e-05)
(-8.12578e-05 0 -3.71217e-05)
(-5.72397e-05 0 -3.63414e-05)
(-3.86555e-05 0 -3.11812e-05)
(-2.07725e-05 0 -3.20456e-05)
(-5.3206e-06 0 -2.32848e-05)
(9.27074e-06 0 -1.68695e-05)
(1.8764e-05 0 -1.26526e-05)
(3.40895e-05 0 -3.98018e-05)
(4.24773e-05 0 1.13581e-05)
(5.63642e-05 0 -4.17317e-05)
(5.56866e-05 0 5.63591e-05)
(6.23032e-05 0 3.47801e-05)
(7.82579e-05 0 -1.80912e-05)
(9.56536e-05 0 -3.48634e-05)
(0.000101692 0 4.65058e-06)
(0.000102507 0 -7.91522e-06)
(0.000110754 0 -1.26313e-06)
(0.000104581 0 4.03754e-05)
(0.000122666 0 6.92806e-05)
(-0.000104944 0 -1.20349e-05)
(-0.000200075 0 -0.00014873)
(-0.000128193 0 -0.000273796)
(-0.000648312 0 -0.000122076)
(4.69805e-05 0 0.000512228)
(1.97443e-13 0 2.1738e-12)
(-1.26208e-12 0 5.02752e-13)
(-2.45371e-13 0 -1.13967e-13)
(-2.30555e-13 0 4.48869e-14)
(-2.95119e-13 0 6.78069e-14)
(-3.46965e-13 0 5.22388e-14)
(-3.76746e-13 0 2.85705e-14)
(-3.87594e-13 0 5.68895e-15)
(-3.83315e-13 0 -1.41455e-14)
(-3.66972e-13 0 -3.05632e-14)
(-3.41026e-13 0 -4.36594e-14)
(-3.07593e-13 0 -5.3617e-14)
(-2.68611e-13 0 -6.06376e-14)
(-2.25898e-13 0 -6.49515e-14)
(-1.81153e-13 0 -6.68235e-14)
(-1.35954e-13 0 -6.65447e-14)
(-9.17144e-14 0 -6.44208e-14)
(-4.96378e-14 0 -6.07645e-14)
(-1.06861e-14 0 -5.58878e-14)
(2.44205e-14 0 -5.00907e-14)
(5.51771e-14 0 -4.36475e-14)
(8.12583e-14 0 -3.68017e-14)
(1.0249e-13 0 -2.97701e-14)
(1.18831e-13 0 -2.27469e-14)
(1.30355e-13 0 -1.59025e-14)
(1.37241e-13 0 -9.37533e-15)
(1.39764e-13 0 -3.25936e-15)
(1.38269e-13 0 2.40124e-15)
(1.3315e-13 0 7.59479e-15)
(1.24828e-13 0 1.23086e-14)
(1.13733e-13 0 1.65064e-14)
(1.00272e-13 0 2.01339e-14)
(8.48012e-14 0 2.31427e-14)
(6.76582e-14 0 2.55143e-14)
(4.9199e-14 0 2.72666e-14)
(2.98037e-14 0 2.84306e-14)
(9.95989e-15 0 2.89706e-14)
(6.10553e-06 0 -3.7657e-05)
(1.6889e-06 0 -8.36599e-06)
(-4.96694e-07 0 4.55888e-05)
(-6.16951e-05 0 7.63774e-05)
(-0.000109532 0 8.38542e-05)
(-0.000181744 0 7.58115e-05)
(-0.000295917 0 0.000189873)
(-0.000460159 0 0.000233085)
(-0.000451571 0 0.000413014)
(-0.000533987 0 0.000382974)
(-0.000659351 0 0.000209178)
(-0.000743172 0 0.000145043)
(-0.00079309 0 0.000189516)
(-0.000856356 0 8.47611e-05)
(-0.000906471 0 3.54676e-05)
(-0.000939473 0 7.03375e-05)
(-0.000969601 0 -2.32644e-06)
(-0.00101099 0 -5.68916e-05)
(-0.00104445 0 3.91532e-05)
(-0.00106437 0 9.6312e-05)
(-0.00113303 0 -4.32879e-06)
(-0.00121437 0 2.47839e-05)
(-0.00127235 0 8.53745e-05)
(-0.00133592 0 6.78289e-05)
(-0.00139774 0 9.0331e-05)
(-0.00142919 0 6.7989e-05)
(-0.00143346 0 6.15901e-05)
(-0.00143325 0 4.41261e-05)
(-0.00143027 0 2.761e-05)
(-0.0014263 0 -6.5825e-05)
(-0.00138984 0 -0.00021483)
(-0.00134882 0 -0.00015404)
(-0.00130457 0 3.92643e-05)
(-0.00124674 0 -0.000135664)
(-0.00120268 0 -0.000165022)
(-0.00114156 0 -0.000188009)
(-0.00107733 0 -0.00016037)
(-0.00102076 0 -0.000186428)
(-0.000967237 0 -0.000144235)
(-0.000877683 0 -0.000109735)
(-0.000762189 0 -0.00021677)
(-0.000695166 0 -0.000158342)
(-0.00063024 0 -5.3035e-05)
(-0.000537745 0 -0.000151631)
(-0.000480564 0 -7.91637e-05)
(-0.000419957 0 -4.57054e-05)
(-0.000368588 0 1.47321e-06)
(-0.000336509 0 -2.39176e-05)
(-0.000319841 0 -2.10062e-05)
(-0.000297875 0 -4.77965e-05)
(-0.00027562 0 -4.01309e-05)
(-0.00025205 0 -4.49801e-05)
(-0.000222794 0 -5.16967e-05)
(-0.000189562 0 -7.01116e-05)
(-0.000161944 0 -7.06508e-05)
(-0.000137221 0 -6.62389e-05)
(-0.000107261 0 -7.73221e-05)
(-7.79392e-05 0 -8.12899e-05)
(-4.53512e-05 0 -8.32521e-05)
(-2.68067e-05 0 -6.72605e-05)
(-6.56953e-06 0 -5.57898e-05)
(1.19127e-05 0 -5.49942e-05)
(2.58853e-05 0 -4.59638e-05)
(3.64493e-05 0 -3.49353e-05)
(5.10251e-05 0 -3.56037e-05)
(6.49831e-05 0 -2.67856e-05)
(8.28261e-05 0 -3.75109e-05)
(9.29027e-05 0 -1.61452e-05)
(0.000113636 0 -3.15178e-05)
(0.000119165 0 -3.46815e-05)
(0.000131398 0 -2.51717e-05)
(0.000145472 0 -7.2409e-05)
(0.000178815 0 -2.20696e-05)
(0.000168813 0 -4.96459e-05)
(0.000177532 0 -3.39659e-05)
(0.000179128 0 -1.18229e-05)
(0.000163483 0 2.63929e-05)
(0.000165218 0 7.71734e-05)
(0.000145781 0 8.15566e-05)
(0.000111156 0 -1.84994e-05)
(0.000423572 0 -4.30953e-05)
(-0.000553351 0 0.000144083)
(-0.000566068 0 0.000376633)
(1.90144e-06 0 3.65033e-05)
(4.21073e-13 0 1.14762e-12)
(-7.66972e-13 0 2.4782e-13)
(-9.96844e-14 0 2.19959e-13)
(-2.97592e-13 0 1.56517e-13)
(-3.77535e-13 0 9.71362e-14)
(-4.09554e-13 0 4.73943e-14)
(-4.16683e-13 0 6.3917e-15)
(-4.07663e-13 0 -2.72949e-14)
(-3.86669e-13 0 -5.46532e-14)
(-3.56351e-13 0 -7.62915e-14)
(-3.18842e-13 0 -9.26336e-14)
(-2.76099e-13 0 -1.04056e-13)
(-2.29965e-13 0 -1.10961e-13)
(-1.82171e-13 0 -1.13796e-13)
(-1.34316e-13 0 -1.13043e-13)
(-8.78287e-14 0 -1.09214e-13)
(-4.39187e-14 0 -1.02834e-13)
(-3.53969e-15 0 -9.44263e-14)
(3.26124e-14 0 -8.45006e-14)
(6.40673e-14 0 -7.35254e-14)
(9.05343e-14 0 -6.19174e-14)
(1.11872e-13 0 -5.00415e-14)
(1.28075e-13 0 -3.82127e-14)
(1.39265e-13 0 -2.66958e-14)
(1.45681e-13 0 -1.57012e-14)
(1.47656e-13 0 -5.37435e-15)
(1.45574e-13 0 4.20424e-15)
(1.39828e-13 0 1.29932e-14)
(1.30823e-13 0 2.09483e-14)
(1.18975e-13 0 2.79992e-14)
(1.04701e-13 0 3.40629e-14)
(8.83916e-14 0 3.90785e-14)
(7.04212e-14 0 4.3035e-14)
(5.11663e-14 0 4.59675e-14)
(3.09685e-14 0 4.7914e-14)
(1.03357e-14 0 4.88523e-14)
(-1.2807e-05 0 -4.05569e-05)
(-6.7293e-07 0 1.66129e-05)
(-1.91495e-05 0 8.08699e-05)
(-7.98587e-05 0 0.000135279)
(-0.0001002 0 0.000173804)
(-0.000261804 0 0.000154956)
(-0.000413935 0 0.000235647)
(-0.000516421 0 0.000425484)
(-0.00070496 0 0.000345959)
(-0.000721969 0 0.00032855)
(-0.000710237 0 0.000301066)
(-0.000805657 0 9.11833e-05)
(-0.000823569 0 0.000217808)
(-0.000900127 0 4.94086e-05)
(-0.000935732 0 0.000107411)
(-0.00100016 0 0.000100959)
(-0.00105285 0 4.29364e-06)
(-0.00107356 0 5.3349e-05)
(-0.00111635 0 0.000199167)
(-0.00124919 0 -1.45392e-05)
(-0.00134462 0 0.000111872)
(-0.00142465 0 0.00021847)
(-0.00150512 0 0.000136223)
(-0.00154729 0 0.000127967)
(-0.00156188 0 0.00011689)
(-0.00156267 0 8.9202e-05)
(-0.00153726 0 1.43573e-05)
(-0.00151064 0 -1.50195e-05)
(-0.00148803 0 -4.06592e-05)
(-0.00146676 0 -9.20169e-05)
(-0.00143852 0 -0.000164839)
(-0.0013888 0 -9.43838e-05)
(-0.00133366 0 -6.74206e-05)
(-0.00130831 0 -0.000127307)
(-0.00127453 0 -0.000267679)
(-0.00123071 0 -0.000200483)
(-0.00118121 0 -0.000185101)
(-0.00110765 0 -0.000276059)
(-0.00103199 0 -0.000250043)
(-0.000955324 0 -0.000241222)
(-0.000901174 0 -0.000211291)
(-0.000848961 0 -0.000135043)
(-0.000774243 0 -0.000185357)
(-0.00072875 0 -0.000167656)
(-0.000673411 0 -0.000108649)
(-0.000596917 0 -9.59579e-05)
(-0.000517895 0 -0.000166286)
(-0.000469276 0 -0.000108874)
(-0.00041705 0 -9.76274e-05)
(-0.000356254 0 -7.77708e-05)
(-0.000289041 0 -9.09471e-05)
(-0.000238052 0 -9.44651e-05)
(-0.000203171 0 -8.61313e-05)
(-0.000157522 0 -0.000101807)
(-0.000121773 0 -8.82042e-05)
(-8.79875e-05 0 -9.1349e-05)
(-5.4569e-05 0 -9.23953e-05)
(-2.85662e-05 0 -9.12758e-05)
(7.48997e-06 0 -0.000102421)
(4.15215e-05 0 -0.00010131)
(6.35913e-05 0 -6.96611e-05)
(7.62369e-05 0 -5.24859e-05)
(8.54924e-05 0 -5.20782e-05)
(0.000100738 0 -5.60053e-05)
(0.000121127 0 -4.52368e-05)
(0.000132824 0 -5.23875e-05)
(0.000147635 0 -4.87647e-05)
(0.000156288 0 -4.66551e-05)
(0.000169796 0 -4.32641e-05)
(0.000181779 0 -5.10264e-05)
(0.000202629 0 -1.56396e-05)
(0.000223959 0 7.78904e-06)
(0.000231071 0 -5.11709e-05)
(0.000230465 0 -5.82238e-05)
(0.000228258 0 -3.74748e-05)
(0.000228261 0 1.61231e-05)
(0.000206253 0 6.52374e-05)
(0.000185611 0 0.00010833)
(0.000146949 0 0.000130446)
(6.15775e-05 0 9.12574e-05)
(-0.000437992 0 0.000102886)
(-0.000548667 0 0.000172117)
(-0.000661643 0 0.00015078)
(5.9949e-06 0 -0.000589333)
(-1.19774e-12 0 1.93864e-12)
(-1.20014e-12 0 8.43222e-13)
(-3.21614e-13 0 4.31611e-13)
(-4.17942e-13 0 2.41744e-13)
(-4.56088e-13 0 1.3276e-13)
(-4.6749e-13 0 5.77133e-14)
(-4.62283e-13 0 -2.80344e-17)
(-4.44359e-13 0 -4.65813e-14)
(-4.15968e-13 0 -8.42663e-14)
(-3.79006e-13 0 -1.14036e-13)
(-3.35357e-13 0 -1.36422e-13)
(-2.86939e-13 0 -1.51889e-13)
(-2.35638e-13 0 -1.60971e-13)
(-1.83235e-13 0 -1.6429e-13)
(-1.31373e-13 0 -1.62541e-13)
(-8.15048e-14 0 -1.56464e-13)
(-3.48497e-14 0 -1.46818e-13)
(7.64686e-15 0 -1.3436e-13)
(4.53214e-14 0 -1.19825e-13)
(7.77603e-14 0 -1.0389e-13)
(1.04742e-13 0 -8.71517e-14)
(1.26195e-13 0 -7.01167e-14)
(1.42177e-13 0 -5.32069e-14)
(1.52866e-13 0 -3.67701e-14)
(1.58562e-13 0 -2.1092e-14)
(1.59669e-13 0 -6.39287e-15)
(1.56637e-13 0 7.18725e-15)
(1.49894e-13 0 1.95773e-14)
(1.39834e-13 0 3.07302e-14)
(1.26848e-13 0 4.05795e-14)
(1.11351e-13 0 4.90379e-14)
(9.37733e-14 0 5.6036e-14)
(7.45471e-14 0 6.15623e-14)
(5.4078e-14 0 6.56584e-14)
(3.26885e-14 0 6.83599e-14)
(1.08982e-14 0 6.96834e-14)
(-2.07796e-05 0 -3.59962e-05)
(1.26984e-06 0 3.5181e-05)
(-3.56727e-05 0 0.000104502)
(-6.88682e-05 0 0.000206945)
(-3.74315e-05 0 0.000272065)
(-0.000113039 0 0.000299162)
(-0.000325504 0 0.000430697)
(-0.000419887 0 0.000588504)
(-0.000547049 0 0.000605821)
(-0.000595282 0 0.00058211)
(-0.000768519 0 0.000379188)
(-0.000844962 0 0.000316486)
(-0.000862623 0 0.000346912)
(-0.000921385 0 0.000224995)
(-0.000993559 0 0.000119994)
(-0.00106397 0 0.000147909)
(-0.00110814 0 0.000132581)
(-0.00114122 0 7.52357e-05)
(-0.00122224 0 0.000113882)
(-0.00132948 0 0.000220992)
(-0.00140906 0 0.000185339)
(-0.00146888 0 0.00016842)
(-0.0015212 0 0.000174987)
(-0.00154657 0 0.000156588)
(-0.00154777 0 0.000130504)
(-0.0015279 0 6.41588e-05)
(-0.00151458 0 3.62611e-05)
(-0.00149654 0 2.32288e-05)
(-0.00147518 0 -6.10427e-06)
(-0.00145271 0 -0.000132606)
(-0.0013895 0 -0.000311081)
(-0.00135567 0 -9.93624e-05)
(-0.0013174 0 -0.00013296)
(-0.00131012 0 -0.000161248)
(-0.00129642 0 -0.00022605)
(-0.00123394 0 -0.000247627)
(-0.00117879 0 -0.000259577)
(-0.00113026 0 -0.000271605)
(-0.00106356 0 -0.000306417)
(-0.000991337 0 -0.00033821)
(-0.000948127 0 -0.00028548)
(-0.0009262 0 -0.000200144)
(-0.000880521 0 -0.000259666)
(-0.000844408 0 -0.000214396)
(-0.000801523 0 -0.000135624)
(-0.000752305 0 -0.0001498)
(-0.000693747 0 -0.000209237)
(-0.000638615 0 -0.000128423)
(-0.000559153 0 -0.000112924)
(-0.0004773 0 -0.000132518)
(-0.000390725 0 -0.000179752)
(-0.000323833 0 -0.000151304)
(-0.000264286 0 -0.000120723)
(-0.000188903 0 -0.000144127)
(-0.000127605 0 -0.000125182)
(-7.6789e-05 0 -0.000113995)
(-3.37485e-05 0 -0.000110965)
(8.75894e-06 0 -0.000117799)
(4.56079e-05 0 -0.000119701)
(7.92676e-05 0 -0.000133514)
(0.000109515 0 -0.000100854)
(0.000131139 0 -6.3344e-05)
(0.000138799 0 -7.08138e-05)
(0.000153421 0 -6.49479e-05)
(0.000162418 0 -5.59802e-05)
(0.000167685 0 -5.19305e-05)
(0.000171542 0 -5.37441e-05)
(0.000181605 0 -4.8383e-05)
(0.000191864 0 -5.20134e-05)
(0.000208522 0 -4.17202e-05)
(0.000218484 0 -4.53408e-05)
(0.00022532 0 -7.86257e-05)
(0.000258348 0 -6.57878e-05)
(0.000272407 0 -3.61514e-05)
(0.000261744 0 -4.01505e-05)
(0.000248536 0 3.69013e-05)
(0.000237901 0 8.55473e-05)
(0.00024595 0 0.000113843)
(0.000161339 0 0.000235052)
(0.000160368 0 0.000213561)
(5.84124e-05 0 0.000233271)
(-0.000188232 0 0.000228415)
(-0.000659557 0 0.00022782)
(6.64195e-06 0 -0.000623787)
(-1.69439e-12 0 1.58346e-12)
(-2.15192e-12 0 7.65113e-13)
(-7.00868e-13 0 4.22076e-13)
(-5.96441e-13 0 2.46345e-13)
(-5.61566e-13 0 1.34591e-13)
(-5.42343e-13 0 5.07964e-14)
(-5.20978e-13 0 -1.7556e-14)
(-4.91901e-13 0 -7.46196e-14)
(-4.54124e-13 0 -1.21649e-13)
(-4.08506e-13 0 -1.59017e-13)
(-3.56695e-13 0 -1.86995e-13)
(-3.00648e-13 0 -2.05999e-13)
(-2.42366e-13 0 -2.16656e-13)
(-1.83741e-13 0 -2.19771e-13)
(-1.2649e-13 0 -2.16279e-13)
(-7.21055e-14 0 -2.07183e-13)
(-2.18148e-14 0 -1.93513e-13)
(2.34532e-14 0 -1.76282e-13)
(6.30824e-14 0 -1.56467e-13)
(9.67404e-14 0 -1.34968e-13)
(1.24308e-13 0 -1.12569e-13)
(1.45817e-13 0 -8.99284e-14)
(1.61422e-13 0 -6.75781e-14)
(1.7138e-13 0 -4.59422e-14)
(1.76058e-13 0 -2.53672e-14)
(1.75936e-13 0 -6.13409e-15)
(1.71544e-13 0 1.15588e-14)
(1.63371e-13 0 2.7603e-14)
(1.51825e-13 0 4.19468e-14)
(1.37283e-13 0 5.45457e-14)
(1.20157e-13 0 6.53417e-14)
(1.00916e-13 0 7.42888e-14)
(8.00436e-14 0 8.13844e-14)
(5.79639e-14 0 8.66606e-14)
(3.49935e-14 0 9.01382e-14)
(1.16592e-14 0 9.18585e-14)
(-2.45396e-05 0 -1.27372e-05)
(-1.07769e-05 0 6.52603e-05)
(-6.90866e-05 0 0.000134121)
(-0.000123726 0 0.000226053)
(-0.000102573 0 0.000326374)
(-0.000120079 0 0.00037489)
(-0.000363893 0 0.000524527)
(-0.000441225 0 0.000651149)
(-0.000550249 0 0.000630576)
(-0.000594847 0 0.000586169)
(-0.00069951 0 0.000459077)
(-0.000845347 0 0.000326412)
(-0.000862721 0 0.000375241)
(-0.000923252 0 0.000311956)
(-0.00101988 0 0.000215435)
(-0.00105602 0 0.000262014)
(-0.00110096 0 0.000206998)
(-0.00117322 0 0.000263588)
(-0.00125369 0 0.000266624)
(-0.00131782 0 0.000231062)
(-0.00138402 0 0.000249216)
(-0.00143205 0 0.000239235)
(-0.00144746 0 0.000212906)
(-0.00144955 0 0.000167635)
(-0.00143901 0 5.81417e-05)
(-0.00139951 0 -2.94963e-05)
(-0.00135302 0 -3.34751e-05)
(-0.00132537 0 -5.64354e-05)
(-0.00131584 0 -9.44954e-05)
(-0.00132108 0 -0.000183792)
(-0.001335 0 -0.00017059)
(-0.00130446 0 -0.00018298)
(-0.00126182 0 -0.000186585)
(-0.0012493 0 -0.000188694)
(-0.00124513 0 -0.000220342)
(-0.0012139 0 -0.000322841)
(-0.0011534 0 -0.000356365)
(-0.00112897 0 -0.00031728)
(-0.00108019 0 -0.000378636)
(-0.00104428 0 -0.000347062)
(-0.00101304 0 -0.000303686)
(-0.000990347 0 -0.000281543)
(-0.000963298 0 -0.000260285)
(-0.000911751 0 -0.000239047)
(-0.000859583 0 -0.000236224)
(-0.000828985 0 -0.000215997)
(-0.000791227 0 -0.000187946)
(-0.000707503 0 -0.000232101)
(-0.000639154 0 -0.000191052)
(-0.000558343 0 -0.000232513)
(-0.000467457 0 -0.000273488)
(-0.000419682 0 -0.000186542)
(-0.000348847 0 -0.000194405)
(-0.000254191 0 -0.000266827)
(-0.000206235 0 -0.000219028)
(-0.000131522 0 -0.000204999)
(-8.25671e-05 0 -0.000159875)
(-1.75218e-05 0 -0.000154419)
(3.25782e-05 0 -0.00014733)
(6.11861e-05 0 -0.000153289)
(0.000105778 0 -0.000115503)
(0.000141297 0 -6.80731e-05)
(0.00014714 0 -7.72005e-05)
(0.000165794 0 -6.3563e-05)
(0.00016867 0 -5.69842e-05)
(0.000169355 0 -5.50205e-05)
(0.000172031 0 -5.62825e-05)
(0.000179396 0 -5.77914e-05)
(0.000192541 0 -5.96538e-05)
(0.000207132 0 -6.57354e-05)
(0.000228194 0 -6.13494e-05)
(0.000243342 0 -7.03891e-05)
(0.000263167 0 -6.74467e-05)
(0.000276673 0 -4.24809e-05)
(0.000272573 0 -3.56318e-05)
(0.000260919 0 2.25598e-05)
(0.000259105 0 6.103e-05)
(0.000246094 0 0.000149889)
(0.000257234 0 0.00023415)
(0.000180102 0 0.000373003)
(0.000193488 0 0.000325004)
(0.000226712 0 0.000250576)
(-0.000328203 0 0.000338594)
(6.39828e-06 0 -0.00047756)
(-1.44162e-12 0 -1.31984e-13)
(-2.32128e-12 0 2.22613e-13)
(-8.40095e-13 0 2.45426e-13)
(-7.0542e-13 0 1.8682e-13)
(-6.51637e-13 0 1.08257e-13)
(-6.19638e-13 0 2.82313e-14)
(-5.87699e-13 0 -4.64863e-14)
(-5.48452e-13 0 -1.12689e-13)
(-5.00366e-13 0 -1.68592e-13)
(-4.44353e-13 0 -2.13256e-13)
(-3.82339e-13 0 -2.4642e-13)
(-3.166e-13 0 -2.68367e-13)
(-2.4941e-13 0 -2.79822e-13)
(-1.82858e-13 0 -2.81814e-13)
(-1.18785e-13 0 -2.75566e-13)
(-5.87391e-14 0 -2.62406e-13)
(-3.94841e-15 0 -2.4368e-13)
(4.46924e-14 0 -2.20699e-13)
(8.66358e-14 0 -1.94707e-13)
(1.21659e-13 0 -1.66843e-13)
(1.49781e-13 0 -1.38097e-13)
(1.71186e-13 0 -1.09287e-13)
(1.86163e-13 0 -8.10556e-14)
(1.95077e-13 0 -5.38924e-14)
(1.9837e-13 0 -2.81825e-14)
(1.96595e-13 0 -4.24433e-15)
(1.90374e-13 0 1.76793e-14)
(1.80282e-13 0 3.74457e-14)
(1.66776e-13 0 5.50011e-14)
(1.50243e-13 0 7.0334e-14)
(1.31094e-13 0 8.34367e-14)
(1.09816e-13 0 9.4304e-14)
(8.69188e-14 0 1.02946e-13)
(6.28319e-14 0 1.09381e-13)
(3.78865e-14 0 1.1362e-13)
(1.26185e-14 0 1.15721e-13)
(-4.98494e-05 0 3.19466e-05)
(-0.000135371 0 7.54806e-05)
(-0.000139774 0 0.000150332)
(-0.000166281 0 0.000245547)
(-0.000161207 0 0.000362942)
(-0.000183872 0 0.000483146)
(-0.000393764 0 0.000649949)
(-0.000482915 0 0.000728342)
(-0.000547222 0 0.000704318)
(-0.000624479 0 0.000606033)
(-0.000660964 0 0.000546466)
(-0.00081059 0 0.000416794)
(-0.000823005 0 0.000443222)
(-0.000901979 0 0.00033886)
(-0.000996908 0 0.00026933)
(-0.00103671 0 0.000301578)
(-0.00109146 0 0.000208608)
(-0.00117209 0 0.000175633)
(-0.00121294 0 0.000364851)
(-0.00127307 0 0.000288482)
(-0.00130691 0 0.000269733)
(-0.00131735 0 0.00027584)
(-0.00129977 0 0.000179287)
(-0.00125776 0 0.000118619)
(-0.00124648 0 9.47552e-05)
(-0.00124342 0 1.39766e-05)
(-0.00122085 0 -3.46106e-05)
(-0.00120747 0 -3.1974e-05)
(-0.00120591 0 -5.17601e-05)
(-0.00120824 0 -0.000135732)
(-0.00121016 0 -0.000181995)
(-0.00122628 0 -0.000126965)
(-0.00122569 0 -0.000153385)
(-0.0011995 0 -0.000252388)
(-0.00118599 0 -0.000271301)
(-0.00117078 0 -0.000313141)
(-0.0011517 0 -0.00036696)
(-0.00112588 0 -0.000398797)
(-0.00110853 0 -0.000378278)
(-0.00107694 0 -0.000381061)
(-0.00107327 0 -0.0003179)
(-0.00105129 0 -0.000301)
(-0.00102225 0 -0.000247785)
(-0.000954394 0 -0.000321778)
(-0.00095448 0 -0.000181238)
(-0.000873599 0 -0.000369806)
(-0.000845777 0 -0.000246029)
(-0.000725802 0 -0.000345127)
(-0.000681407 0 -0.000244794)
(-0.000601854 0 -0.000293184)
(-0.000520564 0 -0.000317344)
(-0.000462206 0 -0.000272708)
(-0.000396021 0 -0.00028783)
(-0.00029641 0 -0.000348497)
(-0.000278981 0 -0.000254603)
(-0.000189402 0 -0.000257328)
(-0.000156317 0 -0.000210247)
(-8.61247e-05 0 -0.000225015)
(-2.29324e-05 0 -0.000226825)
(7.65298e-06 0 -0.000196944)
(4.78675e-05 0 -0.00014841)
(9.15456e-05 0 -0.000112987)
(0.000112063 0 -9.82998e-05)
(0.000137542 0 -7.93969e-05)
(0.00015329 0 -5.67972e-05)
(0.000153657 0 -5.59317e-05)
(0.000157412 0 -5.98147e-05)
(0.000167744 0 -6.60458e-05)
(0.000180564 0 -8.30611e-05)
(0.000202574 0 -7.74921e-05)
(0.000225615 0 -7.11099e-05)
(0.000223235 0 -9.58673e-05)
(0.000227111 0 -7.77596e-05)
(0.00021783 0 -8.26863e-05)
(0.000232888 0 -1.53747e-05)
(0.000240705 0 4.06465e-05)
(0.000248496 0 8.64063e-05)
(0.000245776 0 0.000167272)
(0.000244156 0 0.0002568)
(0.000331317 0 0.00028329)
(0.000263905 0 0.000404346)
(0.000383596 0 0.000277584)
(1.8628e-05 0 0.000144379)
(5.90098e-06 0 -0.000325802)
(-9.25294e-13 0 -6.2977e-13)
(-1.79156e-12 0 -1.03995e-14)
(-7.36417e-13 0 1.49989e-13)
(-7.336e-13 0 1.46749e-13)
(-7.20155e-13 0 8.28796e-14)
(-6.97086e-13 0 -7.91744e-17)
(-6.61898e-13 0 -8.42135e-14)
(-6.14007e-13 0 -1.61158e-13)
(-5.54691e-13 0 -2.26726e-13)
(-4.86334e-13 0 -2.78892e-13)
(-4.11806e-13 0 -3.16968e-13)
(-3.3405e-13 0 -3.41193e-13)
(-2.55813e-13 0 -3.5247e-13)
(-1.79485e-13 0 -3.52142e-13)
(-1.07083e-13 0 -3.41815e-13)
(-4.02195e-14 0 -3.23219e-13)
(1.98925e-14 0 -2.98094e-13)
(7.24267e-14 0 -2.68101e-13)
(1.16939e-13 0 -2.34786e-13)
(1.53351e-13 0 -1.99549e-13)
(1.81864e-13 0 -1.63596e-13)
(2.02858e-13 0 -1.27918e-13)
(2.16816e-13 0 -9.32706e-14)
(2.24253e-13 0 -6.01974e-14)
(2.25707e-13 0 -2.90931e-14)
(2.21797e-13 0 -2.75018e-16)
(2.13234e-13 0 2.60026e-14)
(2.00693e-13 0 4.95778e-14)
(1.84714e-13 0 7.03931e-14)
(1.65719e-13 0 8.84654e-14)
(1.44127e-13 0 1.0384e-13)
(1.20426e-13 0 1.16564e-13)
(9.51206e-14 0 1.26674e-13)
(6.86379e-14 0 1.34192e-13)
(4.1333e-14 0 1.39143e-13)
(1.37594e-14 0 1.41584e-13)
(-3.27892e-05 0 9.0658e-05)
(-5.99911e-05 0 0.000153666)
(-0.0001131 0 0.000159138)
(-0.000146602 0 0.000276626)
(-0.000165741 0 0.000426967)
(-0.000172224 0 0.000614437)
(-0.000399711 0 0.000778678)
(-0.000419519 0 0.000867567)
(-0.000521882 0 0.000805858)
(-0.00069338 0 0.000619326)
(-0.000687658 0 0.000588164)
(-0.000774266 0 0.000505419)
(-0.000798039 0 0.00048168)
(-0.000883493 0 0.000330701)
(-0.000960654 0 0.000285118)
(-0.00097468 0 0.00039246)
(-0.00104585 0 0.00029543)
(-0.00111209 0 0.000290616)
(-0.00114121 0 0.00034856)
(-0.00115351 0 0.000337498)
(-0.00115737 0 0.000301159)
(-0.00114075 0 0.000226868)
(-0.00111808 0 0.000144301)
(-0.00109156 0 8.14414e-05)
(-0.00108215 0 5.04729e-05)
(-0.00109194 0 -8.51196e-07)
(-0.00110335 0 -3.09014e-05)
(-0.00110268 0 -5.04901e-05)
(-0.00109874 0 -7.61198e-05)
(-0.00109862 0 -0.000148822)
(-0.00110619 0 -0.00023312)
(-0.00113313 0 -0.000202689)
(-0.001153 0 -0.00016692)
(-0.00115474 0 -0.000178177)
(-0.00114706 0 -0.0002385)
(-0.00112945 0 -0.000367202)
(-0.00115227 0 -0.000327901)
(-0.00115196 0 -0.000336162)
(-0.00110952 0 -0.000443919)
(-0.00109354 0 -0.000451279)
(-0.00111457 0 -0.00032005)
(-0.00108166 0 -0.000315636)
(-0.00108114 0 -0.000245537)
(-0.00100349 0 -0.000415526)
(-0.00101043 0 -0.000253816)
(-0.000929966 0 -0.000369131)
(-0.000911746 0 -0.000214009)
(-0.000749991 0 -0.000456637)
(-0.000725327 0 -0.000318784)
(-0.00061863 0 -0.00040474)
(-0.000586972 0 -0.000329451)
(-0.000511601 0 -0.000351708)
(-0.000447428 0 -0.000367916)
(-0.000402762 0 -0.00033077)
(-0.000330715 0 -0.000315028)
(-0.000263226 0 -0.00030586)
(-0.000205147 0 -0.000302514)
(-0.000159592 0 -0.000290245)
(-6.27885e-05 0 -0.000294144)
(-5.02955e-05 0 -0.000228668)
(-5.31028e-06 0 -0.000178903)
(3.81902e-05 0 -0.000151682)
(7.1338e-05 0 -0.000132141)
(9.51842e-05 0 -0.000101958)
(0.000117791 0 -6.9498e-05)
(0.000128388 0 -6.21621e-05)
(0.000140026 0 -6.68464e-05)
(0.000150031 0 -8.81809e-05)
(0.000172189 0 -9.11499e-05)
(0.000169892 0 -0.000100221)
(0.000166827 0 -9.25142e-05)
(0.000150249 0 -9.85247e-05)
(0.000171211 0 -5.28653e-05)
(0.000153361 0 -6.3561e-05)
(0.000163071 0 -1.15397e-06)
(0.000174507 0 3.71535e-05)
(0.000198215 0 8.26229e-05)
(0.000222271 0 0.000160329)
(0.000212648 0 0.000261119)
(0.000336617 0 0.000242901)
(0.000239523 0 0.000408182)
(0.00037328 0 0.000268923)
(8.22008e-05 0 0.000326015)
(5.35137e-06 0 -0.000193685)
(-6.36818e-13 0 6.84874e-14)
(-1.55924e-12 0 1.89444e-13)
(-6.82718e-13 0 2.17765e-13)
(-7.72517e-13 0 1.6667e-13)
(-7.98465e-13 0 7.59906e-14)
(-7.86731e-13 0 -2.77074e-14)
(-7.48778e-13 0 -1.29476e-13)
(-6.90965e-13 0 -2.21154e-13)
(-6.181e-13 0 -2.98261e-13)
(-5.34594e-13 0 -3.58554e-13)
(-4.44641e-13 0 -4.01323e-13)
(-3.52102e-13 0 -4.26999e-13)
(-2.60358e-13 0 -4.36832e-13)
(-1.72203e-13 0 -4.32627e-13)
(-8.98625e-14 0 -4.16502e-13)
(-1.50188e-14 0 -3.9071e-13)
(5.11697e-14 0 -3.57477e-13)
(1.08001e-13 0 -3.18888e-13)
(1.55188e-13 0 -2.76834e-13)
(1.92849e-13 0 -2.32994e-13)
(2.21413e-13 0 -1.88799e-13)
(2.41511e-13 0 -1.45414e-13)
(2.53883e-13 0 -1.03711e-13)
(2.59255e-13 0 -6.42786e-14)
(2.58293e-13 0 -2.74944e-14)
(2.51691e-13 0 6.36833e-15)
(2.40227e-13 0 3.70899e-14)
(2.24672e-13 0 6.45204e-14)
(2.05664e-13 0 8.86093e-14)
(1.8369e-13 0 1.09399e-13)
(1.59193e-13 0 1.26983e-13)
(1.3265e-13 0 1.41466e-13)
(1.04547e-13 0 1.52931e-13)
(7.53003e-14 0 1.61431e-13)
(4.52781e-14 0 1.67023e-13)
(1.50598e-14 0 1.69766e-13)
(-2.9259e-05 0 0.000124153)
(-1.22551e-05 0 0.000193045)
(-2.8156e-05 0 0.00021045)
(-9.44765e-05 0 0.000284867)
(-0.000204783 0 0.000502861)
(-0.000298361 0 0.000714624)
(-0.000435599 0 0.000874775)
(-0.000470982 0 0.000931347)
(-0.000497396 0 0.000911725)
(-0.000585167 0 0.000778566)
(-0.00059414 0 0.00070951)
(-0.000672624 0 0.000618501)
(-0.000695062 0 0.000587984)
(-0.000768875 0 0.000492554)
(-0.000884298 0 0.000387674)
(-0.000881371 0 0.000449094)
(-0.000960911 0 0.000319958)
(-0.00099342 0 0.000334424)
(-0.000993806 0 0.000379311)
(-0.00099523 0 0.000312178)
(-0.000979411 0 0.00024581)
(-0.00096082 0 0.000209305)
(-0.000959034 0 0.000169184)
(-0.000964132 0 9.23592e-05)
(-0.000960256 0 8.06236e-05)
(-0.000973622 0 2.11789e-05)
(-0.000987787 0 -2.00544e-05)
(-0.000994465 0 -4.42198e-05)
(-0.0010066 0 -5.30831e-05)
(-0.00102148 0 -0.000114577)
(-0.0010472 0 -0.000121271)
(-0.0010665 0 -0.000102726)
(-0.00106626 0 -0.000149411)
(-0.00104654 0 -0.000288073)
(-0.00108542 0 -0.000267522)
(-0.00111096 0 -0.000304287)
(-0.00110604 0 -0.000352064)
(-0.00110529 0 -0.000373936)
(-0.00113969 0 -0.000375429)
(-0.00114489 0 -0.000390726)
(-0.00112112 0 -0.000378952)
(-0.00107921 0 -0.000387845)
(-0.0010804 0 -0.000330999)
(-0.00106869 0 -0.000296912)
(-0.000988576 0 -0.000420182)
(-0.000963289 0 -0.000375225)
(-0.000888698 0 -0.000445859)
(-0.000804965 0 -0.000496557)
(-0.000770295 0 -0.000411521)
(-0.000675941 0 -0.000463495)
(-0.000657805 0 -0.0003943)
(-0.000583216 0 -0.000444486)
(-0.000559628 0 -0.000415122)
(-0.00051806 0 -0.000397099)
(-0.000392897 0 -0.00047429)