0 	0 	0 	0
0.010101 	-3.82509e-22 	-4.20106e-27 	-9.88117e-24
0.020202 	3.15669e-24 	-6.03438e-28 	-5.06693e-26
