/*--------------------------------*- C++ -*----------------------------------*\
  =========                 |
  \\      /  F ield         | OpenFOAM: The Open Source CFD Toolbox
   \\    /   O peration     | Website:  https://openfoam.org
    \\  /    A nd           | Version:  6
     \\/     M anipulation  |
\*---------------------------------------------------------------------------*/
FoamFile
{
    version     2.0;
    format      ascii;
    class       volScalarField;
    location    "900";
    object      dmdt;
}
// * * * * * * * * * * * * * * * * * * * * * * * * * * * * * * * * * * * * * //

dimensions      [0 0 0 0 0 0 0];

internalField   nonuniform List<scalar> 
4800
(
-0.219644
-0.217736
-0.215789
-0.213781
-0.211695
-0.209515
-0.20723
-0.204844
-0.20237
-0.199827
-0.197237
-0.194621
-0.191993
-0.18936
-0.186729
-0.184102
-0.181484
-0.178874
-0.176278
-0.1737
-0.171145
-0.168625
-0.166149
-0.163726
-0.161364
-0.15907
-0.156847
-0.154695
-0.152603
-0.150556
-0.148545
-0.146566
-0.144618
-0.142687
-0.140751
-0.1388
-0.136823
-0.134807
-0.132743
-0.130619
-0.128429
-0.126168
-0.123835
-0.121431
-0.11896
-0.116426
-0.113834
-0.111189
-0.108493
-0.105752
-0.102969
-0.100148
-0.0972947
-0.0944134
-0.0915113
-0.0885953
-0.0856705
-0.082741
-0.0798074
-0.0768671
-0.0739158
-0.0709488
-0.0679603
-0.0649431
-0.0618898
-0.058794
-0.0556501
-0.0524538
-0.0492027
-0.045897
-0.042539
-0.0391341
-0.0356892
-0.032211
-0.0287045
-0.0251744
-0.0216288
-0.0180764
-0.0145365
-0.0110336
-0.00758026
-0.00418418
-0.000848746
0.00242903
0.00565445
0.00883382
0.0119733
0.0150787
0.0181547
0.0212055
0.0242346
0.0272449
0.030239
0.033219
0.0361867
0.0391438
0.0420915
0.0450312
0.0479639
0.0508903
0.0538115
0.0567279
0.0596402
0.062549
0.0654546
0.0683575
0.0712581
0.0741565
0.0770532
0.0799483
0.0828421
0.0857347
0.0886263
0.0915171
0.0944072
0.0972967
0.100186
0.103074
0.105963
0.108851
-0.219623
-0.217676
-0.215693
-0.213653
-0.211541
-0.209348
-0.207059
-0.204674
-0.202204
-0.199666
-0.19708
-0.194466
-0.191839
-0.189208
-0.186579
-0.183954
-0.181338
-0.178731
-0.176138
-0.173564
-0.171014
-0.168498
-0.166025
-0.163604
-0.161243
-0.158948
-0.156723
-0.15457
-0.152478
-0.150433
-0.148423
-0.146442
-0.144491
-0.142557
-0.140621
-0.138673
-0.136698
-0.134685
-0.132623
-0.130501
-0.128313
-0.126052
-0.123717
-0.121309
-0.118833
-0.116293
-0.113695
-0.111045
-0.108346
-0.105602
-0.102817
-0.099995
-0.0971414
-0.0942614
-0.09136
-0.0884442
-0.0855199
-0.0825915
-0.0796614
-0.0767267
-0.0737836
-0.0708266
-0.0678479
-0.0648392
-0.0617931
-0.0587031
-0.0555636
-0.0523705
-0.0491218
-0.0458179
-0.0424615
-0.039058
-0.0356142
-0.0321352
-0.0286271
-0.0250974
-0.0215543
-0.0180116
-0.0144801
-0.0109715
-0.0075075
-0.00410735
-0.000775671
0.00249509
0.00571237
0.00888366
0.0120158
0.0151147
0.0181853
0.0212317
0.0242572
0.0272646
0.0302562
0.0332341
0.0362001
0.0391557
0.0421022
0.0450408
0.0479725
0.0508981
0.0538184
0.0567342
0.0596459
0.0625541
0.0654592
0.0683617
0.0712618
0.0741598
0.0770561
0.0799509
0.0828443
0.0857366
0.088628
0.0915185
0.0944084
0.0972977
0.100187
0.103075
0.105963
0.108851
-0.219581
-0.217548
-0.215487
-0.21339
-0.211239
-0.209019
-0.206722
-0.204339
-0.201877
-0.199348
-0.19677
-0.194162
-0.191541
-0.188915
-0.186289
-0.183667
-0.181053
-0.178452
-0.175865
-0.173297
-0.170755
-0.168246
-0.16578
-0.163365
-0.16101
-0.158718
-0.156491
-0.15433
-0.152232
-0.150187
-0.14818
-0.146197
-0.144238
-0.142298
-0.140361
-0.138412
-0.13644
-0.134433
-0.13238
-0.130268
-0.128086
-0.125828
-0.123492
-0.121078
-0.118593
-0.116042
-0.113433
-0.110772
-0.108064
-0.105312
-0.102522
-0.0996972
-0.0968417
-0.0939613
-0.091061
-0.0881481
-0.0852296
-0.0823099
-0.0793906
-0.076469
-0.0735421
-0.0706037
-0.0676444
-0.0646539
-0.0616235
-0.0585463
-0.0554161
-0.0522295
-0.0489854
-0.0456849
-0.042331
-0.0389283
-0.0354823
-0.0319986
-0.0284844
-0.0249476
-0.0213978
-0.0178487
-0.0143119
-0.0108019
-0.00733908
-0.00394403
-0.000624554
0.00262983
0.00582935
0.00898352
0.0121003
0.0151862
0.0182459
0.0212834
0.0243017
0.0273032
0.03029
0.033264
0.0362266
0.0391793
0.0421233
0.0450597
0.0479895
0.0509134
0.0538323
0.0567467
0.0596571
0.0625642
0.0654683
0.0683698
0.0712691
0.0741664
0.077062
0.0799561
0.0828489
0.0857406
0.0886314
0.0915214
0.0944108
0.0972996
0.100188
0.103076
0.105964
0.108852
-0.219522
-0.217384
-0.215231
-0.213054
-0.210842
-0.20858
-0.206256
-0.203866
-0.201409
-0.198891
-0.196325
-0.193727
-0.191114
-0.188494
-0.185872
-0.183254
-0.180644
-0.178048
-0.175467
-0.172909
-0.170376
-0.167877
-0.165421
-0.163018
-0.160674
-0.158389
-0.156158
-0.153984
-0.15187
-0.149813
-0.147805
-0.145818
-0.143848
-0.141895
-0.139951
-0.138001
-0.136035
-0.134038
-0.132
-0.129906
-0.12774
-0.125495
-0.123165
-0.12075
-0.118255
-0.115689
-0.113063
-0.110385
-0.107662
-0.104899
-0.1021
-0.099269
-0.0964098
-0.0935287
-0.0906319
-0.0877254
-0.0848176
-0.081914
-0.0790159
-0.0761196
-0.0732209
-0.0703117
-0.0673806
-0.064416
-0.0614077
-0.0583479
-0.0552308
-0.0520539
-0.0488168
-0.04552
-0.0421666
-0.0387604
-0.035306
-0.0318097
-0.0282802
-0.0247255
-0.0211559
-0.0175863
-0.0140344
-0.0105204
-0.00706386
-0.00368356
-0.000387898
0.00283747
0.006007
0.00913325
0.0122258
0.0152914
0.0183347
0.021359
0.0243667
0.0273596
0.0303395
0.0333076
0.0362654
0.039214
0.0421544
0.0450877
0.0480146
0.0509361
0.0538527
0.0567651
0.0596738
0.0625793
0.0654819
0.068382
0.07128
0.0741761
0.0770706
0.0799637
0.0828556
0.0857465
0.0886365
0.0915257
0.0944144
0.0973025
0.10019
0.103078
0.105965
0.108852
-0.219465
-0.217209
-0.214943
-0.212666
-0.210372
-0.208055
-0.205697
-0.20329
-0.20083
-0.198318
-0.195763
-0.193176
-0.190571
-0.187958
-0.185342
-0.182726
-0.180117
-0.177522
-0.174948
-0.172401
-0.169883
-0.167401
-0.16496
-0.16257
-0.160234
-0.157951
-0.155716
-0.15353
-0.151394
-0.149312
-0.147284
-0.145283
-0.143298
-0.141332
-0.139379
-0.137427
-0.135467
-0.133482
-0.131462
-0.129392
-0.127252
-0.125031
-0.122721
-0.120316
-0.11782
-0.115241
-0.112595
-0.109895
-0.107155
-0.104378
-0.101569
-0.0987321
-0.0958706
-0.0929896
-0.0900968
-0.0872008
-0.0843111
-0.0814329
-0.0785654
-0.0757032
-0.072841
-0.0699685
-0.0670716
-0.0641376
-0.0611553
-0.0581164
-0.0550156
-0.0518505
-0.0486205
-0.0453264
-0.0419707
-0.0385568
-0.0350877
-0.0315708
-0.0280157
-0.0244306
-0.0208267
-0.0172232
-0.0136445
-0.0101169
-0.00666625
-0.00331103
-5.51671e-05
0.00312348
0.00624676
0.00933171
0.0123897
0.0154274
0.0184487
0.0214558
0.0244498
0.0274319
0.0304029
0.0333638
0.0363154
0.0392588
0.0421946
0.0451239
0.0480474
0.0509657
0.0538795
0.0567893
0.0596956
0.062599
0.0654996
0.068398
0.0712943
0.074189
0.0770821
0.0799739
0.0828645
0.0857543
0.0886432
0.0915314
0.0944191
0.0973063
0.100193
0.10308
0.105966
0.108852
-0.219398
-0.217014
-0.214631
-0.212249
-0.209866
-0.207478
-0.20507
-0.202633
-0.20016
-0.197649
-0.195101
-0.192523
-0.189927
-0.187319
-0.184706
-0.182092
-0.179486
-0.176896
-0.174331
-0.171796
-0.169294
-0.166829
-0.164403
-0.16202
-0.159685
-0.157398
-0.155154
-0.152956
-0.150801
-0.148688
-0.146623
-0.144593
-0.142586
-0.140602
-0.138636
-0.136681
-0.134725
-0.132753
-0.130755
-0.128713
-0.126604
-0.124416
-0.122135
-0.119753
-0.117269
-0.114688
-0.112028
-0.109309
-0.10655
-0.103761
-0.100944
-0.0981045
-0.095244
-0.0923688
-0.0894873
-0.0866085
-0.0837414
-0.0808919
-0.0780591
-0.0752338
-0.0724094
-0.0695744
-0.0667126
-0.0638115
-0.0608581
-0.0578435
-0.0547608
-0.0516081
-0.048385
-0.0450921
-0.0417314
-0.0383071
-0.0348232
-0.0312836
-0.0276964
-0.0240714
-0.0204203
-0.0167641
-0.0131341
-0.00957191
-0.00612037
-0.00280318
0.000388232
0.00349375
0.00654848
0.00957555
0.0125874
0.0155896
0.0185838
0.0215701
0.0245481
0.0275175
0.0304783
0.0334308
0.0363753
0.0393126
0.0422432
0.0451678
0.0480871
0.0510016
0.053912
0.0568188
0.0597223
0.062623
0.0655214
0.0684176
0.0713119
0.0742047
0.0770961
0.0799863
0.0828755
0.0857638
0.0886514
0.0915384
0.0944249
0.097311
0.100197
0.103082
0.105968
0.108853
-0.219332
-0.21682
-0.214317
-0.211825
-0.209344
-0.206878
-0.204413
-0.201938
-0.199441
-0.196916
-0.194363
-0.191785
-0.189191
-0.186586
-0.183976
-0.181369
-0.178773
-0.176192
-0.173635
-0.171109
-0.16862
-0.166167
-0.16375
-0.16137
-0.159031
-0.156733
-0.154469
-0.152242
-0.150055
-0.147909
-0.145806
-0.143741
-0.141707
-0.139701
-0.13772
-0.135759
-0.133806
-0.131847
-0.129869
-0.127856
-0.125783
-0.123632
-0.121386
-0.119038
-0.116579
-0.114013
-0.111353
-0.108622
-0.10585
-0.103052
-0.100232
-0.0973916
-0.0945378
-0.0916774
-0.088818
-0.0859653
-0.0831261
-0.0803068
-0.0775084
-0.0747198
-0.0719322
-0.0691331
-0.066305
-0.0634349
-0.0605097
-0.0575207
-0.0544595
-0.0513225
-0.0481082
-0.0448184
-0.0414555
-0.0380222
-0.0345221
-0.0309594
-0.027338
-0.0236655
-0.0199524
-0.0162184
-0.0125001
-0.00886056
-0.00538119
-0.0021217
0.000961296
0.00395192
0.00690748
0.00985692
0.0128108
0.0157706
0.0187337
0.0216969
0.0246574
0.0276132
0.0305631
0.0335065
0.0364434
0.0393741
0.0422988
0.0452183
0.0481329
0.0510432
0.0539498
0.0568531
0.0597534
0.0626512
0.0655468
0.0684405
0.0713325
0.0742231
0.0771125
0.0800009
0.0828883
0.085775
0.0886611
0.0915467
0.0944318
0.0973165
0.100201
0.103085
0.105969
0.108853
-0.219267
-0.216627
-0.214002
-0.211397
-0.208817
-0.206264
-0.20373
-0.201203
-0.198673
-0.19613
-0.193566
-0.190979
-0.188377
-0.18577
-0.183163
-0.180564
-0.177975
-0.175403
-0.172854
-0.170336
-0.167854
-0.165408
-0.162993
-0.160609
-0.158255
-0.155935
-0.153645
-0.151384
-0.149154
-0.146964
-0.144816
-0.142711
-0.140647
-0.138619
-0.136623
-0.134658
-0.132707
-0.13076
-0.128804
-0.12682
-0.124784
-0.122674
-0.12047
-0.118161
-0.115737
-0.113199
-0.110556
-0.107829
-0.105051
-0.102249
-0.0994293
-0.0965988
-0.0937622
-0.0909249
-0.0880946
-0.0852749
-0.0824684
-0.0796801
-0.0769145
-0.074162
-0.0714091
-0.0686425
-0.0658475
-0.0630083
-0.0601119
-0.0571502
-0.0541139
-0.0509967
-0.0477966
-0.0445153
-0.0411534
-0.0377127
-0.0341981
-0.0306118
-0.0269526
-0.0232233
-0.0194277
-0.0155752
-0.0117025
-0.00789907
-0.00433445
-0.00119974
0.00168365
0.00449203
0.0073089
0.0101603
0.0130467
0.0159598
0.0188903
0.02183
0.0247731
0.0277153
0.0306543
0.0335887
0.0365178
0.0394416
0.0423604
0.0452743
0.048184
0.0510898
0.0539923
0.0568917
0.0597885
0.062683
0.0655756
0.0684664
0.0713559
0.0742441
0.0771312
0.0800175
0.0829029
0.0857878
0.0886721
0.091556
0.0944396
0.0973228
0.100206
0.103089
0.105971
0.108854
-0.219204
-0.216439
-0.213695
-0.210979
-0.208299
-0.205657
-0.203048
-0.200461
-0.197883
-0.195304
-0.192715
-0.190113
-0.187501
-0.184888
-0.182278
-0.179679
-0.177094
-0.174526
-0.171982
-0.169467
-0.166983
-0.164531
-0.162106
-0.159705
-0.157326
-0.15497
-0.15264
-0.150339
-0.148069
-0.145835
-0.143644
-0.141499
-0.139403
-0.137352
-0.135344
-0.133371
-0.131424
-0.129491
-0.127559
-0.125605
-0.123608
-0.121541
-0.119382
-0.117121
-0.114744
-0.112246
-0.109633
-0.106921
-0.104148
-0.101349
-0.0985401
-0.0957282
-0.0929165
-0.0901091
-0.0873131
-0.0845326
-0.0817662
-0.0790147
-0.0762813
-0.0735602
-0.0708403
-0.0681036
-0.065339
-0.0625329
-0.0596687
-0.0567376
-0.0537306
-0.0506391
-0.047459
-0.0441898
-0.0408344
-0.0373947
-0.0338703
-0.0302608
-0.0265627
-0.0227703
-0.0188739
-0.0148606
-0.010734
-0.00658061
-0.0027377
5.9127e-05
0.00255383
0.00508108
0.00771842
0.0104585
0.0132752
0.0161434
0.0190437
0.0219623
0.0248896
0.0278197
0.0307487
0.0336746
0.0365964
0.0395136
0.0424264
0.0453349
0.0482395
0.0511406
0.0540386
0.056934
0.059827
0.062718
0.0656073
0.0684951
0.0713817
0.0742673
0.0771519
0.0800359
0.0829192
0.085802
0.0886844
0.0915664
0.0944482
0.0973298
0.100211
0.103093
0.105974
0.108855
-0.219144
-0.216259
-0.213397
-0.210573
-0.207794
-0.205061
-0.20237
-0.199712
-0.197075
-0.194448
-0.191822
-0.189194
-0.186565
-0.183939
-0.18132
-0.178715
-0.176126
-0.173556
-0.171009
-0.168487
-0.16599
-0.163517
-0.161066
-0.158636
-0.156227
-0.153836
-0.151461
-0.149113
-0.146797
-0.144519
-0.142285
-0.140099
-0.13797
-0.135896
-0.133877
-0.131901
-0.129958
-0.12804
-0.126132
-0.124209
-0.122251
-0.120229
-0.118119
-0.115908
-0.113577
-0.11112
-0.108546
-0.105867
-0.103116
-0.100335
-0.0975499
-0.0947661
-0.0919871
-0.0892161
-0.0864593
-0.0837215
-0.0809981
-0.0782876
-0.0755903
-0.072899
-0.0702091
-0.0675077
-0.0647785
-0.0620089
-0.0591836
-0.0562888
-0.0533164
-0.0502575
-0.0471055
-0.0438602
-0.040523
-0.0370935
-0.0335691
-0.0299495
-0.0262268
-0.0223829
-0.0183885
-0.014192
-0.00970118
-0.00481125
6.97207e-05
0.0017354
0.00348206
0.00562691
0.00807212
0.0107111
0.0134709
0.0163049
0.0191829
0.0220859
0.0250015
0.027922
0.030843
0.0337618
0.0366771
0.0395883
0.0424954
0.0453986
0.0482982
0.0511946
0.0540882
0.0569794
0.0598685
0.0627558
0.0656416
0.0685262
0.0714098
0.0742924
0.0771744
0.0800559
0.0829368
0.0858174
0.0886977
0.0915778
0.0944577
0.0973375
0.100217
0.103097
0.105976
0.108856
-0.219089
-0.216094
-0.213122
-0.210191
-0.207308
-0.204477
-0.201696
-0.198956
-0.196248
-0.19356
-0.190884
-0.188217
-0.185558
-0.18291
-0.180275
-0.177657
-0.175059
-0.17248
-0.16992
-0.16738
-0.164858
-0.162352
-0.159861
-0.157388
-0.154935
-0.152506
-0.150088
-0.147695
-0.145334
-0.143011
-0.140737
-0.138514
-0.136351
-0.134252
-0.13222
-0.130241
-0.128307
-0.126404
-0.124522
-0.122632
-0.120713
-0.118734
-0.116677
-0.114521
-0.112245
-0.109843
-0.107318
-0.104682
-0.101962
-0.0992075
-0.0964514
-0.0937025
-0.0909626
-0.0882333
-0.0855185
-0.0828239
-0.0801438
-0.077477
-0.0748224
-0.0721748
-0.0695267
-0.0668666
-0.0641808
-0.0614544
-0.058675
-0.0558261
-0.052896
-0.0498782
-0.0467656
-0.0435553
-0.0402447
-0.0368355
-0.0333285
-0.0297201
-0.0260008
-0.0221455
-0.018107
-0.0137973
-0.00897264
-0.002821
0.00343196
0.00348775
0.00411864
0.0059438
0.00827841
0.0108711
0.0136079
0.0164284
0.0192974
0.0221934
0.0251031
0.0280182
0.0309339
0.0338475
0.0367577
0.0396639
0.042566
0.0454644
0.0483593
0.0512511
0.0541403
0.0570273
0.0599123
0.0627959
0.0656781
0.0685593
0.0714396
0.0743193
0.0771985
0.0800773
0.0829557
0.085834
0.088712
0.09159
0.0944678
0.0973456
0.100223
0.103101
0.105979
0.108857
-0.219035
-0.215933
-0.212856
-0.209818
-0.206831
-0.203899
-0.201023
-0.198193
-0.195401
-0.192639
-0.189899
-0.18718
-0.184479
-0.181798
-0.179137
-0.176497
-0.173878
-0.171278
-0.168695
-0.166125
-0.163566
-0.161017
-0.158477
-0.155951
-0.153446
-0.150969
-0.148508
-0.146073
-0.14367
-0.141307
-0.138997
-0.13674
-0.134545
-0.132417
-0.130366
-0.128384
-0.126462
-0.124578
-0.122722
-0.12087
-0.118993
-0.11706
-0.115053
-0.112951
-0.110733
-0.108388
-0.105921
-0.103342
-0.100672
-0.0979575
-0.0952365
-0.0925233
-0.0898221
-0.0871367
-0.0844694
-0.081825
-0.0791984
-0.0765872
-0.0739872
-0.071393
-0.0687985
-0.0661932
-0.063565
-0.0608958
-0.0581719
-0.0553807
-0.0525065
-0.049542
-0.0464808
-0.0433173
-0.0400489
-0.0366771
-0.0332028
-0.0296215
-0.0259242
-0.0220946
-0.0181054
-0.0139113
-0.00943382
-0.00457998
0.000285056
0.00192891
0.00366986
0.00581573
0.00826425
0.0109065
0.0136684
0.0165026
0.0193791
0.0222788
0.0251897
0.0281042
0.0310182
0.0339292
0.0368361
0.0397386
0.0426367
0.0455309
0.0484215
0.0513091
0.0541941
0.0570769
0.059958
0.0628377
0.0657163
0.068594
0.071471
0.0743476
0.0772238
0.0800998
0.0829757
0.0858514
0.0887271
0.0916028
0.0944785
0.0973543
0.10023
0.103106
0.105982
0.108858
-0.218981
-0.215771
-0.212587
-0.209442
-0.206349
-0.203313
-0.200334
-0.197405
-0.194518
-0.191669
-0.188855
-0.18607
-0.183316
-0.180591
-0.177892
-0.175219
-0.172567
-0.169933
-0.167311
-0.164699
-0.162091
-0.159488
-0.156889
-0.154303
-0.151741
-0.14921
-0.146706
-0.144233
-0.141796
-0.139401
-0.137058
-0.134776
-0.132554
-0.130399
-0.128323
-0.126331
-0.124419
-0.122557
-0.120731
-0.118914
-0.117079
-0.115195
-0.113242
-0.111195
-0.109034
-0.106747
-0.104339
-0.101821
-0.0992082
-0.0965432
-0.0938686
-0.0912024
-0.0885512
-0.0859201
-0.0833124
-0.0807306
-0.0781705
-0.0756276
-0.0730991
-0.0705786
-0.0680586
-0.0655275
-0.0629742
-0.0603824
-0.0577333
-0.0550144
-0.0522136
-0.0493212
-0.0463286
-0.0432274
-0.0400136
-0.036688
-0.03325
-0.0296973
-0.0260312
-0.0222527
-0.018362
-0.0143656
-0.0102829
-0.00619781
-0.00238597
0.000389665
0.00288559
0.0054238
0.00807454
0.0108264
0.0136513
0.0165234
0.0194234
0.0223377
0.0252573
0.0281768
0.031093
0.0340044
0.0369102
0.0398106
0.042706
0.0455969
0.0484839
0.0513676
0.0542487
0.0571276
0.0600048
0.0628807
0.0657557
0.0686299
0.0715036
0.074377
0.0772502
0.0801233
0.0829964
0.0858696
0.0887429
0.0916162
0.0944897
0.0973633
0.100237
0.103111
0.105985
0.108859
-0.218925
-0.215603
-0.212306
-0.209051
-0.205848
-0.202701
-0.19961
-0.196572
-0.193581
-0.190636
-0.187735
-0.184874
-0.182053
-0.179271
-0.176523
-0.173804
-0.171107
-0.168421
-0.165745
-0.163076
-0.160407
-0.157741
-0.155078
-0.152429
-0.149805
-0.147218
-0.144669
-0.142161
-0.139696
-0.137277
-0.134908
-0.132608
-0.130373
-0.128198
-0.1261
-0.124092
-0.122179
-0.120336
-0.11854
-0.116757
-0.114959
-0.113124
-0.111227
-0.109241
-0.107144
-0.10492
-0.102575
-0.100119
-0.0975667
-0.0949591
-0.0923437
-0.0897404
-0.0871535
-0.084592
-0.0820613
-0.0795617
-0.0770898
-0.0746397
-0.0722069
-0.069785
-0.0673668
-0.0649396
-0.0624886
-0.0599981
-0.0574493
-0.0548285
-0.0521236
-0.0493207
-0.0464093
-0.0433839
-0.0402393
-0.0369723
-0.033581
-0.0300687
-0.0264441
-0.0227211
-0.0189259
-0.0150934
-0.01127
-0.00753184
-0.00397977
-0.000838915
0.00207426
0.00492033
0.00777372
0.0106556
0.0135645
0.0164917
0.0194282
0.022367
0.0253029
0.028233
0.0311558
0.0340708
0.0369781
0.0398784
0.0427725
0.0456612
0.0485454
0.0514259
0.0543035
0.0571788
0.0600523
0.0629245
0.0657959
0.0686666
0.0715369
0.0744071
0.0772772
0.0801475
0.0830178
0.0858883
0.0887591
0.0916301
0.0945012
0.0973726
0.100244
0.103116
0.105988
0.10886
-0.218861
-0.215415
-0.211999
-0.208626
-0.205306
-0.20204
-0.19883
-0.195674
-0.19257
-0.189517
-0.186516
-0.183565
-0.180664
-0.177812
-0.175
-0.17222
-0.169462
-0.166714
-0.16397
-0.16123
-0.15849
-0.155754
-0.153024
-0.150312
-0.147631
-0.144994
-0.142406
-0.139865
-0.137374
-0.134935
-0.132544
-0.130222
-0.127978
-0.125801
-0.123698
-0.121683
-0.119764
-0.117926
-0.116151
-0.1144
-0.112639
-0.110851
-0.109004
-0.107074
-0.105041
-0.102886
-0.10061
-0.0982257
-0.09575
-0.0932171
-0.0906755
-0.0881487
-0.0856424
-0.0831724
-0.0807426
-0.078353
-0.0760002
-0.0736781
-0.0713801
-0.0690979
-0.0668224
-0.0645392
-0.0622301
-0.0598764
-0.05746
-0.0549639
-0.0523736
-0.0496769
-0.0468633
-0.0439232
-0.0408497
-0.0376414
-0.0342991
-0.0308283
-0.0272401
-0.0235615
-0.01983
-0.0160889
-0.0123827
-0.00875346
-0.00521683
-0.00188382
0.00128809
0.00436689
0.00740069
0.010414
0.0134163
0.0164096
0.0193928
0.0223646
0.0253238
0.0282703
0.0312042
0.0341264
0.037038
0.0399404
0.0428348
0.0457226
0.048605
0.051483
0.0543576
0.0572297
0.0600998
0.0629686
0.0658364
0.0687037
0.0715707
0.0744377
0.0773048
0.080172
0.0830396
0.0859075
0.0887757
0.0916442
0.094513
0.0973821
0.100252
0.103121
0.105991
0.108861
-0.218792
-0.215208
-0.211657
-0.208153
-0.204703
-0.201307
-0.197967
-0.194682
-0.191453
-0.18828
-0.185165
-0.182108
-0.17911
-0.17617
-0.173278
-0.170423
-0.16759
-0.164768
-0.161948
-0.159131
-0.156315
-0.153507
-0.150711
-0.147942
-0.145215
-0.142539
-0.139917
-0.137347
-0.13483
-0.132369
-0.129964
-0.127627
-0.125368
-0.123184
-0.121081
-0.119071
-0.117158
-0.11533
-0.113569
-0.111844
-0.110115
-0.108368
-0.106571
-0.104694
-0.102719
-0.100632
-0.0984327
-0.0961308
-0.0937446
-0.0913051
-0.0888603
-0.0864333
-0.0840373
-0.0816936
-0.0794037
-0.0771682
-0.074983
-0.0728412
-0.070735
-0.0686524
-0.0665764
-0.0644903
-0.0623746
-0.0602055
-0.0579625
-0.0556249
-0.0531764
-0.0506003
-0.0478884
-0.0450323
-0.0420248
-0.038863
-0.0355488
-0.0320933
-0.0285121
-0.024836
-0.0211065
-0.0173728
-0.0136695
-0.0100114
-0.00638215
-0.0028791
0.000497058
0.0037705
0.00696818
0.0101107
0.0132113
0.0162782
0.0193162
0.0223286
0.0253178
0.0282862
0.0312359
0.0341691
0.0370881
0.039995
0.0428917
0.0457801
0.0486617
0.0515381
0.0544105
0.0572797
0.0601468
0.0630123
0.0658769
0.0687409
0.0716046
0.0744685
0.0773325
0.0801968
0.0830616
0.0859267
0.0887924
0.0916584
0.0945249
0.0973918
0.100259
0.103126
0.105994
0.108862
-0.218719
-0.214986
-0.211278
-0.207616
-0.204013
-0.200469
-0.196985
-0.193558
-0.19019
-0.186881
-0.183635
-0.180454
-0.177339
-0.174294
-0.171307
-0.168364
-0.165447
-0.162544
-0.159644
-0.156747
-0.153857
-0.150982
-0.148128
-0.145312
-0.142546
-0.139839
-0.137192
-0.134598
-0.132057
-0.129574
-0.127154
-0.124807
-0.122537
-0.120347
-0.118246
-0.11624
-0.114332
-0.112516
-0.110766
-0.109062
-0.107362
-0.105651
-0.1039
-0.102079
-0.100167
-0.098153
-0.0960375
-0.0938301
-0.0915504
-0.0892294
-0.0869138
-0.0846232
-0.0823858
-0.0802212
-0.0781316
-0.0761163
-0.074171
-0.0722864
-0.0704468
-0.0686365
-0.0668367
-0.0650214
-0.0631635
-0.0612341
-0.0592089
-0.0570609
-0.0547718
-0.0523254
-0.0497192
-0.0469401
-0.0439814
-0.0408394
-0.0375187
-0.0340317
-0.030397
-0.0266515
-0.022846
-0.0190281
-0.0152209
-0.0114253
-0.00762056
-0.00391949
-0.000341405
0.00311812
0.00647496
0.00974716
0.0129505
0.0160974
0.0191973
0.0222572
0.0252828
0.0282787
0.031249
0.0341973
0.0371269
0.0400409
0.042942
0.0458326
0.0487148
0.0515905
0.0544613
0.0573283
0.0601927
0.0630553
0.0659168
0.0687776
0.0716383
0.0744991
0.0773601
0.0802215
0.0830835
0.085946
0.0888091
0.0916727
0.0945368
0.0974014
0.100266
0.103132
0.105997
0.108863
-0.218621
-0.214697
-0.210809
-0.206974
-0.203201
-0.199491
-0.195844
-0.192259
-0.188733
-0.18527
-0.181873
-0.178549
-0.175297
-0.172129
-0.169033
-0.165994
-0.16299
-0.160003
-0.157024
-0.154051
-0.151091
-0.148155
-0.14525
-0.142392
-0.139592
-0.136856
-0.134188
-0.131577
-0.129019
-0.126515
-0.124074
-0.12171
-0.119429
-0.117235
-0.115137
-0.113136
-0.111232
-0.109425
-0.107687
-0.106002
-0.104325
-0.102651
-0.10095
-0.0991864
-0.0973448
-0.0954133
-0.0933987
-0.0913117
-0.0891728
-0.0870157
-0.0848827
-0.0827889
-0.0807809
-0.0788742
-0.0770727
-0.0753754
-0.0737709
-0.0722437
-0.0707787
-0.0693474
-0.0679183
-0.0664565
-0.0649279
-0.0632976
-0.0615341
-0.059604
-0.0574869
-0.0551736
-0.0526626
-0.0499387
-0.0469925
-0.0438209
-0.0404298
-0.0368355
-0.0330624
-0.0291538
-0.0251693
-0.0211537
-0.0171252
-0.0130783
-0.00900978
-0.00505947
-0.00125651
0.00239769
0.00591762
0.00932329
0.0126342
0.0158671
0.0190353
0.0221493
0.0252174
0.0282464
0.0312421
0.0342096
0.0371532
0.0400771
0.0429847
0.0458793
0.0487634
0.0516395
0.0545095
0.0573749
0.0602371
0.0630971
0.0659558
0.0688137
0.0716714
0.0745292
0.0773873
0.080246
0.0831052
0.0859651
0.0888257
0.0916869
0.0945487
0.097411
0.100274
0.103137
0.106
0.108864
-0.21851
-0.214365
-0.21026
-0.206212
-0.202235
-0.198331
-0.194498
-0.190731
-0.187027
-0.183387
-0.179817
-0.176325
-0.172919
-0.169616
-0.166402
-0.163262
-0.160168
-0.157101
-0.154047
-0.151005
-0.147978
-0.144982
-0.142026
-0.139128
-0.136294
-0.133529
-0.130835
-0.128208
-0.12564
-0.123123
-0.120663
-0.118275
-0.115973
-0.113773
-0.111675
-0.109679
-0.107781
-0.105987
-0.104262
-0.102598
-0.100945
-0.09931
-0.0976645
-0.0959733
-0.0942236
-0.0924011
-0.0905199
-0.0885966
-0.0866526
-0.0847273
-0.0828559
-0.0810554
-0.0793815
-0.0778493
-0.0764623
-0.0752106
-0.0740856
-0.0730629
-0.0721105
-0.0711848
-0.0702422
-0.0692339
-0.0681158
-0.0668433
-0.0653787
-0.0636812
-0.0617316
-0.0595325
-0.0570798
-0.0543588
-0.0513569
-0.0480728
-0.0445135
-0.0407053
-0.0366793
-0.0324834
-0.0281847
-0.0238308
-0.0194376
-0.0150038
-0.0105713
-0.00630973
-0.00225122
0.00161064
0.00529936
0.00884235
0.0122651
0.0155889
0.0188309
0.0220048
0.025121
0.0281884
0.0312143
0.0342049
0.0371661
0.0401026
0.0430191
0.0459194
0.0488069
0.0516845
0.0545545
0.057419
0.0602795
0.0631373
0.0659934
0.0688487
0.0717036
0.0745586
0.0774139
0.0802698
0.0831265
0.0859838
0.0888419
0.0917008
0.0945603
0.0974204
0.100281
0.103142
0.106003
0.108865
-0.21837
-0.213953
-0.209583
-0.205282
-0.201065
-0.196935
-0.192889
-0.188917
-0.185011
-0.18117
-0.177399
-0.173711
-0.170132
-0.166679
-0.163343
-0.160103
-0.156922
-0.153776
-0.150652
-0.14754
-0.144447
-0.141389
-0.138381
-0.135445
-0.132579
-0.129785
-0.127061
-0.124408
-0.121824
-0.119295
-0.116822
-0.114412
-0.112085
-0.109876
-0.107768
-0.105771
-0.103879
-0.102101
-0.1004
-0.0987676
-0.0971557
-0.0955769
-0.0940004
-0.0924079
-0.0907883
-0.0891288
-0.0874397
-0.0857488
-0.0840828
-0.082487
-0.0809952
-0.0796295
-0.0784419
-0.0774439
-0.0766402
-0.0760234
-0.0755691
-0.0752342
-0.0749679
-0.0747012
-0.0743755
-0.0739193
-0.0732807
-0.0724041
-0.0712552
-0.0697811
-0.0679692
-0.0658322
-0.0633595
-0.0605445
-0.0573762
-0.0538559
-0.0499933
-0.0458271
-0.0413939
-0.0367506
-0.0319725
-0.0271062
-0.0221711
-0.0171795
-0.0122591
-0.00762595
-0.0032926
0.000779469
0.00463549
0.00831497
0.0118504
0.0152677
0.0185875
0.0218257
0.0249949
0.0281053
0.0311655
0.0341832
0.0371651
0.0401171
0.0430447
0.0459525
0.0488448
0.0517249
0.0545959
0.0574601
0.0603194
0.0631755
0.0660295
0.0688823
0.0717346
0.0745869
0.0774397
0.080293
0.0831471
0.086002
0.0888577
0.0917143
0.0945715
0.0974295
0.100288
0.103147
0.106006
0.108866
-0.218197
-0.213438
-0.208742
-0.204133
-0.199629
-0.195235
-0.190943
-0.18674
-0.182608
-0.178542
-0.174545
-0.170632
-0.166857
-0.163237
-0.159769
-0.156429
-0.15316
-0.14993
-0.14673
-0.143549
-0.14039
-0.13727
-0.134211
-0.131232
-0.128329
-0.125503
-0.122747
-0.120063
-0.117452
-0.114904
-0.112418
-0.109994
-0.107646
-0.105424
-0.103302
-0.101303
-0.0994238
-0.0976721
-0.0960126
-0.0944313
-0.0928961
-0.0914132
-0.089953
-0.0885135
-0.087081
-0.0856651
-0.0842674
-0.0829231
-0.0816679
-0.0805471
-0.079597
-0.0788518
-0.0783465
-0.0781045
-0.0781278
-0.0783906
-0.0788518
-0.0794363
-0.0800605
-0.0806198
-0.0810358
-0.0812101
-0.0810841
-0.0805987
-0.0797384
-0.0784326
-0.0766799
-0.0744994
-0.071876
-0.0688128
-0.0653128
-0.0613832
-0.0570348
-0.0523208
-0.0472844
-0.042003
-0.0365555
-0.0309686
-0.0252666
-0.0194913
-0.0139222
-0.00889022
-0.00430551
-4.99555e-05
0.00395524
0.00776098
0.0114042
0.0149137
0.018312
0.0216168
0.024842
0.0279989
0.031097
0.034145
0.0371505
0.0401205
0.0430612
0.0459784
0.0488768
0.0517606
0.0546334
0.057498
0.0603567
0.0632114
0.0660635
0.0689142
0.0717641
0.074614
0.0774643
0.0803152
0.0831669
0.0860194
0.0888729
0.0917272
0.0945824
0.0974383
0.100295
0.103152
0.106009
0.108867
-0.217975
-0.212788
-0.207687
-0.202702
-0.197856
-0.193152
-0.18858
-0.184118
-0.179739
-0.175425
-0.171172
-0.167009
-0.163011
-0.159202
-0.155584
-0.152136
-0.148775
-0.145451
-0.142155
-0.138883
-0.135638
-0.132443
-0.12933
-0.126302
-0.123359
-0.120492
-0.117695
-0.114971
-0.112322
-0.109747
-0.107244
-0.104818
-0.102477
-0.100249
-0.0981333
-0.0961501
-0.0943076
-0.0926128
-0.0910296
-0.0895467
-0.088145
-0.0868242
-0.0855671
-0.0843821
-0.0832576
-0.0822109
-0.0812496
-0.0804202
-0.0797564
-0.0793101
-0.0791201
-0.0792283
-0.0796766
-0.0804835
-0.081643
-0.0831018
-0.0847765
-0.0865448
-0.088272
-0.0898157
-0.0910599
-0.0918897
-0.0922418
-0.0920748
-0.091405
-0.0901428
-0.0882935
-0.085884
-0.0829108
-0.0793846
-0.0753203
-0.0707432
-0.0656769
-0.0601814
-0.0543204
-0.0481856
-0.0418476
-0.035305
-0.0285589
-0.0217029
-0.0152305
-0.00989669
-0.00518065
-0.000815799
0.00329873
0.00720902
0.0109477
0.0145423
0.0180158
0.0213863
0.0246681
0.0278731
0.0310114
0.034092
0.0371234
0.0401133
0.0430691
0.045997
0.0489028
0.0517913
0.0546667
0.0575323
0.0603909
0.0632447
0.0660953
0.0689441
0.071792
0.0746396
0.0774876
0.0803362
0.0831856
0.086036
0.0888873
0.0917396
0.0945927
0.0974466
0.100301
0.103156
0.106012
0.108868
-0.217695
-0.211964
-0.206358
-0.20091
-0.195652
-0.190586
-0.185695
-0.180944
-0.176296
-0.171715
-0.167181
-0.162739
-0.158484
-0.15445
-0.150644
-0.147047
-0.143563
-0.140107
-0.13667
-0.133266
-0.129912
-0.126635
-0.123467
-0.120384
-0.117399
-0.11449
-0.111646
-0.108878
-0.106184
-0.103576
-0.101058
-0.0986496
-0.0963544
-0.0941713
-0.0921171
-0.0902046
-0.088461
-0.0868902
-0.0854583
-0.0841611
-0.082988
-0.0819401
-0.0810169
-0.080238
-0.0796001
-0.0791141
-0.0787989
-0.0787145
-0.0788887
-0.0793719
-0.0802163
-0.0814763
-0.0832024
-0.0854197
-0.0881018
-0.0911427
-0.0943779
-0.0976011
-0.100612
-0.103236
-0.105306
-0.106716
-0.107411
-0.107391
-0.106707
-0.105267
-0.103084
-0.100175
-0.0965712
-0.0922928
-0.0873696
-0.0818466
-0.0757799
-0.0692347
-0.0623031
-0.0550712
-0.0475992
-0.0398693
-0.0318079
-0.0234865
-0.0154694
-0.0103891
-0.0058252
-0.00146406
0.00270927
0.00669499
0.0105093
0.0141752
0.0177147
0.0211454
0.0244813
0.0277337
0.0309124
0.0340268
0.0370854
0.0400968
0.0430689
0.0460088
0.0489229
0.051817
0.0546957
0.0575629
0.0604219
0.0632752
0.0661246
0.0689718
0.0718178
0.0746635
0.0775094
0.0803559
0.0832032
0.0860515
0.0889008
0.0917512
0.0946024
0.0974545
0.100307
0.103161
0.106014
0.108868
-0.217343
-0.210932
-0.204698
-0.198683
-0.192923
-0.187426
-0.182164
-0.177085
-0.172136
-0.167262
-0.162417
-0.157651
-0.153079
-0.148744
-0.144671
-0.140841
-0.137165
-0.133516
-0.129879
-0.126297
-0.122806
-0.119451
-0.116239
-0.113119
-0.110107
-0.107175
-0.104298
-0.1015
-0.0987781
-0.0961539
-0.0936529
-0.0912953
-0.0890916
-0.0870369
-0.0851452
-0.0834217
-0.081904
-0.0805872
-0.0794448
-0.0784824
-0.0777016
-0.0771048
-0.0767068
-0.0765525
-0.0766316
-0.0769611
-0.0775701
-0.0785067
-0.0798102
-0.0815226
-0.0837197
-0.0864778
-0.0898699
-0.093932
-0.0985955
-0.103661
-0.108818
-0.113716
-0.118086
-0.121733
-0.124472
-0.126232
-0.127
-0.126835
-0.125822
-0.123893
-0.121048
-0.117289
-0.112686
-0.107281
-0.101138
-0.0943175
-0.08693
-0.0790424
-0.0707689
-0.0621884
-0.0533616
-0.0442794
-0.0347993
-0.0246998
-0.00816517
-0.0103702
-0.00629711
-0.00198013
0.00222956
0.00626237
0.0101246
0.0138393
0.0174284
0.0209084
0.0242917
0.0275878
0.0308054
0.033953
0.0370392
0.0400726
0.0430617
0.0460144
0.0489377
0.0518379
0.0547205
0.0575898
0.0604496
0.0633027
0.0661513
0.0689972
0.0718416
0.0746855
0.0775295