/*--------------------------------*- C++ -*----------------------------------*\
  =========                 |
  \\      /  F ield         | OpenFOAM: The Open Source CFD Toolbox
   \\    /   O peration     | Website:  https://openfoam.org
    \\  /    A nd           | Version:  6
     \\/     M anipulation  |
\*---------------------------------------------------------------------------*/
FoamFile
{
    version     2.0;
    format      ascii;
    class       volVectorField;
    location    "900";
    object      U;
}
// * * * * * * * * * * * * * * * * * * * * * * * * * * * * * * * * * * * * * //

dimensions      [0 1 -1 0 0 0 0];

internalField   nonuniform List<vector> 
4800
(
(-0.000382931 0 -0.000290487)
(0.000469765 0 -0.000101804)
(0.000568472 0 -8.97835e-05)
(0.000642757 0 -8.98402e-05)
(0.000730114 0 -0.000125426)
(0.000825445 0 -2.6007e-05)
(0.00080081 0 -3.4533e-07)
(0.000722287 0 2.89898e-05)
(0.0006145 0 5.32814e-05)
(0.000507136 0 3.70638e-05)
(0.000427996 0 2.86486e-05)
(0.000378576 0 2.48316e-05)
(0.00034694 0 4.76785e-06)
(0.000328528 0 1.73897e-06)
(0.000311062 0 -4.8445e-06)
(0.000292777 0 -1.4474e-05)
(0.000278091 0 -3.93811e-06)
(0.000260854 0 -4.11119e-06)
(0.00023882 0 1.24561e-06)
(0.000210547 0 1.71156e-05)
(0.000170635 0 2.5661e-05)
(0.000124836 0 2.52605e-05)
(8.87382e-05 0 1.13646e-05)
(5.75039e-05 0 5.00634e-06)
(3.14138e-05 0 3.75028e-06)
(1.75339e-05 0 -3.46584e-07)
(2.16735e-05 0 1.56995e-06)
(4.93104e-05 0 -6.3878e-05)
(0.000115791 0 4.8346e-05)
(0.000136377 0 -4.05867e-05)
(0.000137332 0 -2.38559e-05)
(0.000144987 0 -1.8363e-05)
(0.000197731 0 -2.77825e-05)
(0.000280313 0 -7.22949e-05)
(0.000359703 0 1.78423e-05)
(0.000384347 0 -3.67151e-05)
(0.000389076 0 -3.45922e-05)
(0.000400057 0 -3.03644e-05)
(0.000421087 0 -1.81856e-05)
(0.000428146 0 -7.62845e-06)
(0.00042546 0 -5.47287e-06)
(0.000417943 0 -5.69353e-06)
(0.000409701 0 -9.08737e-06)
(0.00040534 0 -9.33657e-06)
(0.00040061 0 -1.09438e-05)
(0.000394863 0 -1.31749e-05)
(0.00039526 0 -7.16656e-06)
(0.000396455 0 -1.53595e-06)
(0.000395206 0 -7.02563e-06)
(0.000390934 0 6.9154e-06)
(0.000383853 0 6.08263e-06)
(0.000375068 0 4.08478e-07)
(0.000364995 0 1.73432e-05)
(0.000348669 0 6.73788e-06)
(0.000311241 0 -5.90753e-05)
(0.000304325 0 -1.99566e-05)
(0.000306264 0 -1.79622e-05)
(0.000306022 0 -1.31588e-05)
(0.000303553 0 -1.48215e-05)
(0.000298561 0 -1.47153e-05)
(0.00029336 0 1.20619e-06)
(0.000287089 0 2.70496e-06)
(0.000278126 0 4.34748e-06)
(0.000270826 0 6.66001e-06)
(0.000270083 0 4.27635e-06)
(0.000269683 0 1.28629e-06)
(0.000267435 0 2.92879e-08)
(0.000262648 0 -2.21952e-07)
(0.000254158 0 -2.65057e-06)
(0.000242555 0 -2.71093e-06)
(0.000226942 0 1.62307e-05)
(0.00020631 0 -5.35139e-06)
(0.000186641 0 2.35588e-06)
(0.000175177 0 -5.48738e-06)
(0.000169534 0 -8.26669e-06)
(0.000156471 0 3.50401e-05)
(0.000145736 0 -4.51449e-05)
(0.00013051 0 7.7118e-05)
(-9.46024e-05 0 -0.000113488)
(-2.75502e-06 0 -0.00015798)
(-9.78849e-09 0 -6.63756e-05)
(-7.29968e-13 0 -4.7185e-14)
(-1.44042e-12 0 -2.42525e-14)
(-1.39062e-12 0 -2.55474e-14)
(-1.33186e-12 0 -3.32093e-14)
(-1.25685e-12 0 -4.18141e-14)
(-1.16552e-12 0 -4.95514e-14)
(-1.06024e-12 0 -5.57862e-14)
(-9.4421e-13 0 -6.03179e-14)
(-8.20854e-13 0 -6.31346e-14)
(-6.93509e-13 0 -6.4322e-14)
(-5.65288e-13 0 -6.40221e-14)
(-4.38987e-13 0 -6.24111e-14)
(-3.17028e-13 0 -5.96846e-14)
(-2.01435e-13 0 -5.60457e-14)
(-9.38291e-14 0 -5.16958e-14)
(4.56174e-15 0 -4.68269e-14)
(9.28779e-14 0 -4.16163e-14)
(1.70594e-13 0 -3.6222e-14)
(2.37481e-13 0 -3.07812e-14)
(2.93558e-13 0 -2.54084e-14)
(3.39054e-13 0 -2.01965e-14)
(3.74362e-13 0 -1.52174e-14)
(4e-13 0 -1.05243e-14)
(4.16577e-13 0 -6.15331e-15)
(4.24758e-13 0 -2.12644e-15)
(4.25242e-13 0 1.54632e-15)
(4.18735e-13 0 4.86448e-15)
(4.05942e-13 0 7.83492e-15)
(3.87544e-13 0 1.04698e-14)
(3.64198e-13 0 1.27851e-14)
(3.36523e-13 0 1.47986e-14)
(3.05105e-13 0 1.65292e-14)
(2.70491e-13 0 1.79957e-14)
(2.33191e-13 0 1.92159e-14)
(1.93681e-13 0 2.02059e-14)
(1.52408e-13 0 2.09797e-14)
(1.09792e-13 0 2.15486e-14)
(6.62372e-14 0 2.19198e-14)
(2.2137e-14 0 2.20938e-14)
(-0.000359386 0 -0.000465401)
(0.000544364 0 -0.000270213)
(0.000564967 0 -0.000214508)
(0.000644991 0 -0.000125053)
(0.000708008 0 -0.000226491)
(0.000780692 0 6.1822e-05)
(0.000754852 0 9.29563e-05)
(0.000682396 0 0.000119026)
(0.000579867 0 0.000134485)
(0.000479775 0 0.000120405)
(0.000408585 0 8.52989e-05)
(0.000347741 0 5.7678e-05)
(0.000307281 0 3.68773e-05)
(0.000292636 0 3.50167e-05)
(0.000277969 0 2.45926e-05)
(0.000261278 0 1.7051e-05)
(0.000251883 0 2.13546e-05)
(0.00023913 0 3.08549e-05)
(0.00021685 0 4.1928e-05)
(0.000184779 0 5.85998e-05)
(0.00015111 0 4.61781e-05)
(0.000112227 0 5.80086e-05)
(8.07956e-05 0 5.78609e-05)
(4.44127e-05 0 5.8451e-05)
(2.02516e-06 0 3.61699e-05)
(-2.43574e-05 0 3.22527e-05)
(-2.59881e-05 0 -1.11122e-05)
(1.19389e-05 0 -4.79608e-05)
(7.17953e-05 0 -6.88262e-05)
(0.000148472 0 -1.50703e-05)
(0.000146541 0 3.36894e-05)
(0.000139294 0 -7.34668e-06)
(0.000174056 0 -0.000140081)
(0.000280772 0 -7.16909e-05)
(0.000363497 0 -0.000100676)
(0.00040646 0 -8.09405e-05)
(0.000415089 0 -2.46335e-05)
(0.000420655 0 -1.56338e-05)
(0.000424382 0 -6.16944e-06)
(0.000420739 0 4.39404e-06)
(0.000410252 0 1.75186e-05)
(0.000395915 0 1.98428e-05)
(0.00038196 0 1.06598e-05)
(0.000369539 0 1.89365e-05)
(0.000358019 0 1.59115e-05)
(0.000346449 0 4.98988e-06)
(0.000347198 0 2.23858e-06)
(0.000351711 0 3.92057e-07)
(0.000355836 0 5.96826e-06)
(0.00035716 0 3.64674e-06)
(0.000356004 0 6.68777e-06)
(0.000349051 0 1.98735e-05)
(0.000337893 0 1.14264e-05)
(0.000330908 0 2.86715e-05)
(0.000320996 0 4.8098e-05)
(0.000302712 0 4.64818e-05)
(0.000281454 0 3.44959e-05)
(0.000257199 0 1.87729e-05)
(0.000241536 0 1.62594e-05)
(0.000241741 0 1.60938e-05)
(0.000240215 0 1.61197e-05)
(0.000236513 0 1.49541e-05)
(0.000231317 0 5.01071e-06)
(0.000228068 0 3.79776e-06)
(0.000224678 0 2.79124e-06)
(0.000220184 0 6.27799e-06)
(0.000214037 0 7.34675e-06)
(0.000209696 0 1.26527e-05)
(0.000205042 0 1.67819e-05)
(0.00019363 0 2.72939e-05)
(0.000178961 0 2.68173e-05)
(0.000158785 0 4.63578e-05)
(0.000154097 0 2.31364e-05)
(0.000151399 0 6.67124e-06)
(0.000145681 0 1.96624e-05)
(0.000143738 0 1.17103e-05)
(0.000133439 0 3.31978e-05)
(0.000129045 0 7.3412e-05)
(0.000126305 0 8.68637e-05)
(0.000121699 0 8.8561e-05)
(2.97676e-08 0 4.88186e-05)
(-7.4554e-13 0 -5.29171e-14)
(-1.41865e-12 0 -4.84555e-14)
(-1.39955e-12 0 -7.02586e-14)
(-1.34813e-12 0 -9.87033e-14)
(-1.27319e-12 0 -1.26337e-13)
(-1.17949e-12 0 -1.50191e-13)
(-1.071e-12 0 -1.69102e-13)
(-9.51558e-13 0 -1.82715e-13)
(-8.24858e-13 0 -1.91083e-13)
(-6.94396e-13 0 -1.94506e-13)
(-5.63377e-13 0 -1.93431e-13)
(-4.3465e-13 0 -1.88403e-13)
(-3.10663e-13 0 -1.80019e-13)
(-1.93446e-13 0 -1.689e-13)
(-8.46104e-14 0 -1.55656e-13)
(1.46412e-14 0 -1.4087e-13)
(1.03483e-13 0 -1.25078e-13)
(1.81429e-13 0 -1.08757e-13)
(2.48294e-13 0 -9.23178e-14)
(3.04142e-13 0 -7.61053e-14)
(3.49245e-13 0 -6.03964e-14)
(3.84034e-13 0 -4.54052e-14)
(4.09065e-13 0 -3.12888e-14)
(4.24975e-13 0 -1.81533e-14)
(4.32458e-13 0 -6.06207e-15)
(4.32233e-13 0 4.95717e-15)
(4.25024e-13 0 1.49053e-14)
(4.11547e-13 0 2.38047e-14)
(3.92494e-13 0 3.16939e-14)
(3.68526e-13 0 3.86219e-14)
(3.40267e-13 0 4.46438e-14)
(3.08302e-13 0 4.98171e-14)
(2.73178e-13 0 5.41991e-14)
(2.35401e-13 0 5.78435e-14)
(1.95445e-13 0 6.07997e-14)
(1.53751e-13 0 6.311e-14)
(1.10733e-13 0 6.48094e-14)
(6.67824e-14 0 6.59231e-14)
(2.2311e-14 0 6.64649e-14)
(0.00028356 0 -0.00060958)
(0.00026418 0 -0.000551109)
(0.000133684 0 -0.000534455)
(0.000454163 0 -0.000214673)
(0.000504452 0 -0.000165573)
(0.000565097 0 -6.24694e-05)
(0.000576202 0 0.0001425)
(0.00055886 0 0.000177795)
(0.000498486 0 0.00021411)
(0.000417772 0 0.000204051)
(0.000347403 0 0.000166812)
(0.000286708 0 0.000110976)
(0.000263406 0 7.97411e-05)
(0.000254438 0 6.318e-05)
(0.000234343 0 5.75087e-05)
(0.000211746 0 2.78702e-05)
(0.000201751 0 4.94624e-05)
(0.000194918 0 5.7714e-05)
(0.000181068 0 6.6597e-05)
(0.000151774 0 9.41711e-05)
(0.000113809 0 0.000111455)
(9.18518e-05 0 0.000101359)
(6.08616e-05 0 9.79148e-05)
(9.26217e-07 0 8.99493e-05)
(-3.23708e-05 0 7.40552e-05)
(-2.92765e-05 0 7.09604e-05)
(-4.39408e-05 0 -9.09062e-05)
(-2.28124e-05 0 -0.000189005)
(7.34466e-05 0 -7.96626e-05)
(0.000138932 0 -0.000105441)
(0.00019507 0 1.16415e-05)
(0.000217135 0 -0.000142485)
(0.000234835 0 -0.000303959)
(0.00035977 0 -0.000128807)
(0.000413952 0 -4.05781e-05)
(0.000433627 0 -4.67638e-05)
(0.000445866 0 -4.12522e-05)
(0.000462655 0 -1.56945e-05)
(0.000475326 0 -4.60733e-06)
(0.000472643 0 3.62643e-06)
(0.000449731 0 1.76197e-05)
(0.000407233 0 3.58663e-05)
(0.000368928 0 2.93051e-05)
(0.000342353 0 1.25934e-05)
(0.000317102 0 2.94968e-05)
(0.00030573 0 4.25043e-06)
(0.000307678 0 -6.8887e-06)
(0.00031256 0 -2.16329e-06)
(0.000313196 0 1.0379e-06)
(0.000312364 0 8.69159e-06)
(0.000312221 0 2.03856e-05)
(0.000309599 0 1.57023e-05)
(0.000300135 0 2.33722e-05)
(0.000289197 0 4.227e-05)
(0.000275303 0 4.2871e-05)
(0.000254773 0 1.73844e-05)
(0.000232709 0 3.76249e-05)
(0.000202926 0 1.62057e-06)
(0.000187578 0 3.7463e-06)
(0.000182217 0 1.51959e-05)
(0.000172624 0 1.72711e-05)
(0.000164788 0 6.98077e-06)
(0.00016778 0 7.23438e-06)
(0.000174882 0 8.38624e-06)
(0.00017763 0 4.42795e-06)
(0.000178542 0 -1.51239e-06)
(0.00017655 0 -2.10567e-06)
(0.000171053 0 4.32479e-06)
(0.000160304 0 2.41367e-05)
(0.000153319 0 1.66793e-05)
(0.000145694 0 3.97356e-05)
(0.000143109 0 7.56476e-06)
(0.000139388 0 2.02921e-05)
(0.000139656 0 1.59231e-05)
(0.000142001 0 7.76683e-06)
(0.000142458 0 2.21152e-05)
(0.000125863 0 4.51217e-05)
(0.000127047 0 4.5232e-05)
(0.000120868 0 7.33145e-05)
(9.63987e-05 0 9.52317e-05)
(3.35443e-08 0 7.25043e-05)
(-7.60699e-13 0 2.15502e-14)
(-1.4575e-12 0 -4.62327e-14)
(-1.44082e-12 0 -1.08273e-13)
(-1.38794e-12 0 -1.65007e-13)
(-1.30834e-12 0 -2.14644e-13)
(-1.20828e-12 0 -2.55784e-13)
(-1.09276e-12 0 -2.87736e-13)
(-9.66191e-13 0 -3.10378e-13)
(-8.32645e-13 0 -3.24007e-13)
(-6.95856e-13 0 -3.29221e-13)
(-5.59185e-13 0 -3.2683e-13)
(-4.25575e-13 0 -3.17788e-13)
(-2.97525e-13 0 -3.0313e-13)
(-1.77072e-13 0 -2.83918e-13)
(-6.57997e-14 0 -2.61198e-13)
(3.51395e-14 0 -2.35958e-13)
(1.24991e-13 0 -2.09105e-13)
(2.03355e-13 0 -1.81443e-13)
(2.70132e-13 0 -1.5366e-13)
(3.25479e-13 0 -1.26328e-13)
(3.69754e-13 0 -9.99067e-14)
(4.03469e-13 0 -7.47455e-14)
(4.27252e-13 0 -5.10984e-14)
(4.41804e-13 0 -2.91345e-14)
(4.47869e-13 0 -8.95082e-15)
(4.46209e-13 0 9.41451e-15)
(4.37583e-13 0 2.59702e-14)
(4.22731e-13 0 4.07606e-14)
(4.02361e-13 0 5.38554e-14)
(3.77147e-13 0 6.53411e-14)
(3.47718e-13 0 7.53139e-14)
(3.14661e-13 0 8.38731e-14)
(2.78518e-13 0 9.11165e-14)
(2.39792e-13 0 9.71363e-14)
(1.98948e-13 0 1.02016e-13)
(1.56418e-13 0 1.05828e-13)
(1.12605e-13 0 1.08633e-13)
(6.78927e-14 0 1.10475e-13)
(2.26788e-14 0 1.11389e-13)
(-0.000169335 0 -0.0007413)
(0.000111021 0 -0.000605981)
(0.000209749 0 -0.000441388)
(0.000271317 0 -0.000362984)
(0.000389191 0 -0.000172909)
(0.00041121 0 -1.88295e-05)
(0.000409374 0 8.38239e-05)
(0.000390088 0 0.000234548)
(0.000369746 0 0.000270163)
(0.000324174 0 0.000269114)
(0.000261485 0 0.000229852)
(0.000224502 0 0.000142057)
(0.000227035 0 8.63527e-05)
(0.000217249 0 7.85956e-05)
(0.000196323 0 6.20205e-05)
(0.000171752 0 4.02625e-05)
(0.000172177 0 3.86699e-05)
(0.000172049 0 4.53562e-05)
(0.000160035 0 6.58504e-05)
(0.000127944 0 0.000105175)
(9.25027e-05 0 0.000130862)
(4.45323e-05 0 0.000141508)
(-1.14614e-05 0 0.000137136)
(-3.13193e-05 0 0.000115838)
(-1.71081e-05 0 5.47195e-05)
(2.43308e-05 0 3.43747e-05)
(2.35574e-05 0 -8.80053e-05)
(1.56437e-05 0 -0.000180695)
(7.87384e-05 0 -0.000194424)
(0.000111373 0 -0.000237373)
(0.000261744 0 0.000148971)
(0.000293155 0 -0.0001732)
(0.000366734 0 -0.000225051)
(0.000423642 0 -0.000178866)
(0.000433941 0 -0.000152173)
(0.000450928 0 -0.000165685)
(0.000498805 0 -8.3246e-05)
(0.000517103 0 -3.92982e-05)
(0.000532603 0 -1.38715e-05)
(0.0005397 0 6.71157e-05)
(0.000527277 0 8.57325e-05)
(0.000486941 0 9.781e-05)
(0.00042592 0 0.00010357)
(0.000373841 0 9.00679e-05)
(0.000334712 0 1.59525e-05)
(0.000281028 0 4.25785e-05)
(0.000268852 0 -4.80352e-06)
(0.000272426 0 -8.64066e-06)
(0.000270913 0 -4.18566e-06)
(0.000267121 0 -4.51714e-06)
(0.000258634 0 2.56575e-05)
(0.000251491 0 3.72336e-05)
(0.000240998 0 3.87283e-05)
(0.000214872 0 6.41062e-05)
(0.000200963 0 5.89784e-05)
(0.000187107 0 6.0831e-05)
(0.00016218 0 6.79335e-05)
(0.000119461 0 4.87185e-05)
(0.000122424 0 4.80906e-05)
(0.000123835 0 3.03739e-05)
(0.000121593 0 1.65791e-05)
(0.000129334 0 9.46123e-06)
(0.000150361 0 1.01503e-05)
(0.000171371 0 1.88587e-05)
(0.000176528 0 9.59993e-06)
(0.000176327 0 2.0215e-05)
(0.000175851 0 2.94205e-05)
(0.000171265 0 3.80255e-05)
(0.000164139 0 4.64348e-05)
(0.000161966 0 4.57955e-05)
(0.000151791 0 6.32289e-05)
(0.00015275 0 4.98351e-05)
(0.000155086 0 2.98345e-05)
(0.00014579 0 2.32661e-05)
(0.000136884 0 3.50939e-05)
(0.000138472 0 3.99553e-05)
(0.000132049 0 4.61525e-05)
(0.000114619 0 6.81266e-05)
(8.42613e-05 0 0.000103232)
(7.7801e-05 0 0.000120509)
(1.73623e-08 0 0.00010873)
(-8.00111e-13 0 7.42498e-14)
(-1.54822e-12 0 -4.95687e-14)
(-1.51829e-12 0 -1.51514e-13)
(-1.4545e-12 0 -2.38368e-13)
(-1.36397e-12 0 -3.11403e-13)
(-1.25258e-12 0 -3.70523e-13)
(-1.1256e-12 0 -4.15638e-13)
(-9.87829e-13 0 -4.47016e-13)
(-8.437e-13 0 -4.65312e-13)
(-6.97219e-13 0 -4.71512e-13)
(-5.51945e-13 0 -4.66859e-13)
(-4.1095e-13 0 -4.52775e-13)
(-2.76793e-13 0 -4.30785e-13)
(-1.51514e-13 0 -4.02439e-13)
(-3.66498e-14 0 -3.69254e-13)
(6.67337e-14 0 -3.32654e-13)
(1.57998e-13 0 -2.93937e-13)
(2.36875e-13 0 -2.54242e-13)
(3.03409e-13 0 -2.14541e-13)
(3.57895e-13 0 -1.75631e-13)
(4.00827e-13 0 -1.38145e-13)
(4.32842e-13 0 -1.02558e-13)
(4.54676e-13 0 -6.92112e-14)
(4.67123e-13 0 -3.83215e-14)
(4.71007e-13 0 -1.00072e-14)
(4.67154e-13 0 1.56955e-14)
(4.5637e-13 0 3.88145e-14)
(4.39432e-13 0 5.94258e-14)
(4.17075e-13 0 7.76394e-14)
(3.89985e-13 0 9.35868e-14)
(3.58799e-13 0 1.07411e-13)
(3.24105e-13 0 1.19258e-13)
(2.86441e-13 0 1.29271e-13)
(2.46301e-13 0 1.37582e-13)
(2.04137e-13 0 1.44313e-13)
(1.60367e-13 0 1.49567e-13)
(1.1538e-13 0 1.53431e-13)
(6.95384e-14 0 1.55969e-13)
(2.32244e-14 0 1.57228e-13)
(7.13101e-05 0 -0.00081855)
(0.00013849 0 -0.00064605)
(0.000123381 0 -0.000502988)
(0.000151987 0 -0.000404129)
(0.00012874 0 -0.000368813)
(0.000257726 0 -3.29922e-05)
(0.000255354 0 7.95197e-05)
(0.000282221 0 0.000156505)
(0.000257062 0 0.000266883)
(0.000238819 0 0.000270781)
(0.000184025 0 0.000248505)
(0.000170999 0 0.000159813)
(0.000184846 0 9.83145e-05)
(0.000174333 0 9.01483e-05)
(0.000159886 0 7.98828e-05)
(0.000146255 0 6.28626e-05)
(0.000128128 0 5.40858e-05)
(8.05051e-05 0 8.9968e-05)
(5.90311e-05 0 0.000113097)
(3.7842e-05 0 0.000149428)
(5.163e-06 0 0.000168297)
(-2.70758e-06 0 0.000169604)
(-5.00136e-05 0 0.000161046)
(-2.14863e-05 0 8.74524e-05)
(1.6835e-05 0 5.00088e-05)
(5.26789e-05 0 3.28654e-05)
(9.40579e-05 0 -2.45412e-05)
(8.76639e-05 0 -0.000127919)
(0.000105078 0 -0.000256953)
(0.000155677 0 -0.000289417)
(0.000231581 0 -0.000206657)
(0.000333587 0 -0.000137726)
(0.000403667 0 -0.000235159)
(0.000455607 0 -0.000199636)
(0.000465371 0 -0.000169484)
(0.000479005 0 -0.000173713)
(0.000520226 0 -7.78219e-05)
(0.000540861 0 -4.17928e-05)
(0.000558513 0 -0.000130673)
(0.000573342 0 3.1029e-05)
(0.000567274 0 7.93267e-05)
(0.0005556 0 9.43334e-05)
(0.00050872 0 0.000147626)
(0.000462568 0 0.000121505)
(0.000376977 0 0.00015871)
(0.000329783 0 2.04511e-06)
(0.000265627 0 3.43007e-05)
(0.000232919 0 2.08587e-05)
(0.000235929 0 1.23375e-05)
(0.000230189 0 3.16994e-05)
(0.000211798 0 2.85177e-05)
(0.000190883 0 4.40532e-05)
(0.000179572 0 6.31706e-05)
(0.000160094 0 6.58305e-05)
(9.78426e-05 0 9.67351e-05)
(8.94636e-05 0 0.000109201)
(5.68335e-05 0 9.77339e-05)
(5.72501e-05 0 2.64292e-05)
(7.37324e-05 0 4.76343e-05)
(9.38434e-05 0 4.69927e-05)
(0.000117127 0 -2.40273e-06)
(0.000143958 0 -2.58837e-05)
(0.000185906 0 -3.35718e-05)
(0.000215109 0 -1.53919e-05)
(0.000220073 0 -1.67325e-05)
(0.000219065 0 -1.57205e-06)
(0.000218795 0 7.31396e-06)
(0.000215712 0 1.35234e-05)
(0.000209973 0 1.21225e-05)
(0.000202235 0 3.00563e-05)
(0.000192312 0 2.58818e-05)
(0.00018155 0 -1.83614e-07)
(0.000173772 0 1.77351e-05)
(0.000160309 0 1.30004e-05)
(0.000144788 0 7.10733e-06)
(0.000119034 0 5.91123e-05)
(0.000113729 0 6.76209e-05)
(7.17296e-05 0 0.000102585)
(5.45899e-05 0 0.00012416)
(6.54608e-05 0 0.000150021)
(-1.78384e-08 0 0.000152444)
(-8.53863e-13 0 8.40768e-14)
(-1.68301e-12 0 -7.45682e-14)
(-1.6296e-12 0 -2.09772e-13)
(-1.54783e-12 0 -3.25496e-13)
(-1.44049e-12 0 -4.22029e-13)
(-1.31252e-12 0 -4.99219e-13)
(-1.16925e-12 0 -5.57234e-13)
(-1.01587e-12 0 -5.967e-13)
(-8.5714e-13 0 -6.18683e-13)
(-6.97403e-13 0 -6.24634e-13)
(-5.40449e-13 0 -6.16305e-13)
(-3.89502e-13 0 -5.95665e-13)
(-2.47189e-13 0 -5.64799e-13)
(-1.15541e-13 0 -5.2581e-13)
(3.98545e-15 0 -4.80737e-13)
(1.10457e-13 0 -4.31482e-13)
(2.03403e-13 0 -3.79758e-13)
(2.82751e-13 0 -3.27058e-13)
(3.48743e-13 0 -2.74637e-13)
(4.01875e-13 0 -2.23514e-13)
(4.42826e-13 0 -1.74483e-13)
(4.72403e-13 0 -1.28132e-13)
(4.91489e-13 0 -8.48642e-14)
(5.01008e-13 0 -4.49298e-14)
(5.01886e-13 0 -8.44822e-15)
(4.95031e-13 0 2.4564e-14)
(4.81313e-13 0 5.41704e-14)
(4.61556e-13 0 8.04929e-14)
(4.36522e-13 0 1.03694e-13)
(4.06919e-13 0 1.2396e-13)
(3.7339e-13 0 1.41489e-13)
(3.3652e-13 0 1.56481e-13)
(2.96842e-13 0 1.6913e-13)
(2.54834e-13 0 1.79612e-13)
(2.10933e-13 0 1.8809e-13)
(1.65536e-13 0 1.94701e-13)
(1.19008e-13 0 1.99558e-13)
(7.169e-14 0 2.02747e-13)
(2.39375e-14 0 2.04328e-13)
(-8.17548e-05 0 -0.00086009)
(8.36514e-05 0 -0.000650935)
(2.05223e-05 0 -0.000511672)
(6.62148e-06 0 -0.000437319)
(6.13718e-05 0 -0.000282231)
(0.000114742 0 5.96328e-06)
(9.37255e-05 0 0.000119792)
(5.88256e-05 0 0.000262763)
(9.35446e-05 0 0.000302639)
(0.000100669 0 0.000292614)
(0.000100436 0 0.000249465)
(0.000124795 0 0.000151945)
(0.000142025 0 0.000104107)
(0.000137685 0 9.25103e-05)
(0.000128609 0 7.79971e-05)
(8.34546e-05 0 8.74328e-05)
(1.65157e-05 0 0.00012104)
(-1.03734e-05 0 0.000127391)
(-3.13633e-05 0 0.000135044)
(-4.01416e-05 0 0.0001595)
(-3.78524e-05 0 0.000183454)
(-4.27192e-05 0 0.00019589)
(-3.74029e-05 0 0.000156373)
(-2.21282e-05 0 4.01505e-05)
(2.43757e-05 0 2.86514e-05)
(7.63397e-05 0 2.93356e-06)
(7.33311e-05 0 -0.00017635)
(0.000215943 0 -0.000123795)
(0.000296167 0 -0.000188499)
(0.000285975 0 -0.000334785)
(0.000325958 0 -0.000299722)
(0.00035165 0 -0.000312115)
(0.000422669 0 -0.000294915)
(0.000448498 0 -0.000273065)
(0.000464629 0 -0.000232609)
(0.0004831 0 -0.00020053)
(0.000515484 0 -7.1531e-05)
(0.000528987 0 -0.000137211)
(0.000598346 0 -5.7632e-05)
(0.000613815 0 6.44286e-05)
(0.000603031 0 9.29363e-05)
(0.000590072 0 0.000151074)
(0.00057998 0 0.000168447)
(0.000541669 0 0.00019057)
(0.000478161 0 0.000173224)
(0.000382545 0 0.000154372)
(0.00028239 0 0.000113748)
(0.000222607 0 -2.54539e-05)
(0.000202895 0 1.90855e-05)
(0.000192906 0 5.13191e-05)
(0.000186308 0 5.18908e-05)
(0.000172985 0 6.44877e-05)
(0.000145521 0 9.19832e-05)
(8.58288e-05 0 0.000128238)
(6.25674e-05 0 0.000133186)
(2.00936e-05 0 0.00012903)
(-5.2825e-06 0 3.54982e-05)
(2.89104e-05 0 6.50857e-06)
(6.48305e-05 0 2.50468e-05)
(8.31277e-05 0 -9.82017e-06)
(0.000113063 0 -4.76664e-05)
(0.000166081 0 -5.39069e-05)
(0.000218735 0 -4.15754e-05)
(0.000248689 0 -2.28665e-05)
(0.00026439 0 -2.37071e-05)
(0.000270184 0 4.55231e-06)
(0.000265716 0 1.94475e-05)
(0.000255494 0 4.38345e-05)
(0.000246066 0 5.69743e-05)
(0.000227573 0 7.82206e-05)
(0.000212991 0 7.22876e-05)
(0.000197845 0 7.22814e-05)
(0.000173664 0 8.77809e-05)
(0.000160106 0 4.42183e-05)
(0.000140473 0 3.0771e-05)
(0.000103817 0 8.53591e-05)
(7.80136e-05 0 0.000107121)
(3.82543e-05 0 0.000127368)
(1.75264e-05 0 0.000145009)
(-2.40749e-05 0 0.000187236)
(-3.18117e-08 0 0.000161983)
(-9.28477e-13 0 5.20567e-14)
(-1.84184e-12 0 -1.22785e-13)
(-1.76921e-12 0 -2.87443e-13)
(-1.66676e-12 0 -4.31752e-13)
(-1.53769e-12 0 -5.51938e-13)
(-1.38779e-12 0 -6.4703e-13)
(-1.22308e-12 0 -7.17321e-13)
(-1.04928e-12 0 -7.63813e-13)
(-8.71634e-13 0 -7.88043e-13)
(-6.94841e-13 0 -7.92e-13)
(-5.22977e-13 0 -7.78039e-13)
(-3.59444e-13 0 -7.48771e-13)
(-2.06937e-13 0 -7.06936e-13)
(-6.74517e-14 0 -6.55275e-13)
(5.76782e-14 0 -5.96419e-13)
(1.67713e-13 0 -5.32798e-13)
(2.62422e-13 0 -4.66575e-13)
(3.41996e-13 0 -3.99611e-13)
(4.06952e-13 0 -3.33447e-13)
(4.58049e-13 0 -2.69314e-13)
(4.9621e-13 0 -2.08148e-13)
(5.22461e-13 0 -1.50623e-13)
(5.37878e-13 0 -9.71836e-14)
(5.43539e-13 0 -4.80831e-14)
(5.40501e-13 0 -3.41704e-15)
(5.29772e-13 0 3.68419e-14)
(5.12299e-13 0 7.2814e-14)
(4.88956e-13 0 1.04686e-13)
(4.60542e-13 0 1.32687e-13)
(4.2778e-13 0 1.57073e-13)
(3.91321e-13 0 1.78108e-13)
(3.51746e-13 0 1.96053e-13)
(3.09572e-13 0 2.11158e-13)
(2.65261e-13 0 2.23651e-13)
(2.19225e-13 0 2.33738e-13)
(1.71835e-13 0 2.41591e-13)
(1.23426e-13 0 2.47355e-13)
(7.43089e-14 0 2.51137e-13)
(2.48052e-14 0 2.53011e-13)
(-6.65382e-05 0 -0.000875359)
(5.59197e-05 0 -0.00065406)
(-6.26357e-05 0 -0.000523602)
(2.49686e-05 0 -0.000410974)
(-5.88494e-05 0 -0.00024438)
(-1.62676e-06 0 -6.1747e-05)
(6.23547e-06 0 3.05047e-05)
(5.21883e-05 0 0.000157452)
(4.538e-05 0 0.000258964)
(2.56842e-05 0 0.000276113)
(1.472e-05 0 0.000246471)
(6.62819e-05 0 0.000162181)
(9.08535e-05 0 0.000105414)
(8.40146e-05 0 0.00010422)
(5.13989e-05 0 0.000115857)
(1.6327e-05 0 0.000131053)
(1.77778e-05 0 0.000127096)
(-8.89321e-06 0 0.000132246)
(-4.31666e-05 0 0.000140984)
(-6.1104e-05 0 0.000157761)
(-4.38127e-05 0 0.000178458)
(-3.63939e-05 0 0.000190704)
(-1.11918e-05 0 0.000120892)
(3.25461e-05 0 4.21747e-06)
(8.76879e-05 0 -8.41439e-05)
(0.000164426 0 -0.000157896)
(0.000197242 0 -0.000278026)
(0.000262026 0 -0.000332153)
(0.000297732 0 -0.000377792)
(0.0003669 0 -0.000365622)
(0.000399999 0 -0.000336697)
(0.000432503 0 -0.00030227)
(0.00046236 0 -0.000277853)
(0.000468462 0 -0.000272904)
(0.000471208 0 -0.000261418)
(0.000496649 0 -0.000187173)
(0.000508671 0 -0.00016376)
(0.000534287 0 -0.000175533)
(0.000588328 0 -6.68211e-05)
(0.000601312 0 2.93682e-05)
(0.000597674 0 9.68311e-05)
(0.000600143 0 0.00012651)
(0.000574401 0 0.000209602)
(0.000552233 0 0.000247677)
(0.000507634 0 0.000262398)
(0.00043125 0 0.000234438)
(0.00032568 0 0.000167339)
(0.000215295 0 0.000106963)
(0.000184517 0 4.86041e-05)
(0.000186891 0 4.10563e-05)
(0.000184306 0 4.10549e-05)
(0.000129733 0 9.86647e-05)
(7.39636e-05 0 0.00013788)
(4.65595e-05 0 0.000149123)
(2.82064e-05 0 0.000168759)
(-2.6123e-06 0 0.000118412)
(1.07987e-05 0 8.71619e-05)
(3.30677e-05 0 2.3573e-05)
(5.6585e-05 0 4.99226e-05)
(0.000107928 0 -1.74634e-05)
(0.000143928 0 -0.000138922)
(0.000229435 0 -8.23188e-05)
(0.000262422 0 -9.47202e-05)
(0.000279011 0 -3.8726e-05)
(0.00028694 0 -1.66812e-05)
(0.000301906 0 1.94448e-05)
(0.0002989 0 3.9177e-05)
(0.000286292 0 5.02952e-05)
(0.000269884 0 4.98254e-05)
(0.000240345 0 9.09917e-05)
(0.000235921 0 5.7216e-05)
(0.00022325 0 4.25552e-05)
(0.000182306 0 7.63544e-05)
(0.000144533 0 9.0462e-05)
(0.000152069 0 5.40115e-05)
(0.000111672 0 9.78029e-05)
(8.46476e-05 0 0.000122329)
(6.62394e-05 0 0.000139563)
(3.16985e-05 0 0.000166967)
(1.93524e-05 0 0.000185951)
(-1.89419e-09 0 0.000155262)
(-1.02674e-12 0 3.58169e-14)
(-2.02233e-12 0 -1.80972e-13)
(-1.93857e-12 0 -3.85398e-13)
(-1.81232e-12 0 -5.62066e-13)
(-1.65577e-12 0 -7.06872e-13)
(-1.4779e-12 0 -8.19573e-13)
(-1.28604e-12 0 -9.01137e-13)
(-1.08659e-12 0 -9.53122e-13)
(-8.85327e-13 0 -9.77615e-13)
(-6.87399e-13 0 -9.77232e-13)
(-4.9722e-13 0 -9.5504e-13)
(-3.18398e-13 0 -9.14419e-13)
(-1.53692e-13 0 -8.58888e-13)
(-5.02361e-15 0 -7.91938e-13)
(1.26462e-13 0 -7.16881e-13)
(2.403e-13 0 -6.36737e-13)
(3.3659e-13 0 -5.54159e-13)
(4.15879e-13 0 -4.71387e-13)
(4.7904e-13 0 -3.90247e-13)
(5.27175e-13 0 -3.12161e-13)
(5.61517e-13 0 -2.3818e-13)
(5.83367e-13 0 -1.69032e-13)
(5.94029e-13 0 -1.05166e-13)
(5.94775e-13 0 -4.6801e-14)
(5.86811e-13 0 6.0239e-15)
(5.71262e-13 0 5.34103e-14)
(5.49157e-13 0 9.55621e-14)
(5.21428e-13 0 1.32753e-13)
(4.8891e-13 0 1.653e-13)
(4.5234e-13 0 1.93541e-13)
(4.1237e-13 0 2.1782e-13)
(3.6957e-13 0 2.38469e-13)
(3.2444e-13 0 2.55801e-13)
(2.77414e-13 0 2.70101e-13)
(2.28873e-13 0 2.81622e-13)
(1.79153e-13 0 2.90576e-13)
(1.28554e-13 0 2.97138e-13)
(7.73457e-14 0 3.0144e-13)
(2.5811e-14 0 3.03569e-13)
(-8.8849e-05 0 -0.000877558)
(2.6425e-05 0 -0.000662949)
(-0.000103465 0 -0.000514217)
(-9.42861e-05 0 -0.000368597)
(-0.000111214 0 -0.000208215)
(-0.00012475 0 -7.24851e-05)
(-0.000131023 0 0.000128373)
(-0.000104746 0 0.000194573)
(-9.10822e-05 0 0.000250931)
(-5.69156e-05 0 0.000257962)
(2.36799e-06 0 0.000196449)
(2.76388e-05 0 0.000130885)
(-3.48949e-07 0 0.000123258)
(-1.60887e-05 0 0.000133401)
(-1.22227e-05 0 0.000134649)
(-9.80003e-06 0 0.000138087)
(-2.52357e-05 0 0.000148323)
(-3.21488e-05 0 0.00015714)
(-6.7682e-05 0 0.000152352)
(-5.09727e-05 0 0.000158422)
(-3.38485e-05 0 0.000151171)
(8.1699e-06 0 0.000149177)
(8.50541e-05 0 3.75414e-05)
(0.000142041 0 -1.73342e-05)
(0.000207057 0 -0.000116154)
(0.000289497 0 -0.000120754)
(0.000379528 0 -0.000141277)
(0.000431779 0 -0.000228676)
(0.000411924 0 -0.000348429)
(0.000428438 0 -0.000356845)
(0.000427508 0 -0.000360548)
(0.000428804 0 -0.000349715)
(0.000462899 0 -0.000294472)
(0.000469788 0 -0.000284831)
(0.000471026 0 -0.00027436)
(0.000504577 0 -0.000189322)
(0.000517049 0 -0.000176632)
(0.000550907 0 -0.000162209)
(0.000562165 0 -8.68569e-05)
(0.000568937 0 -6.41301e-06)
(0.000588687 0 7.38423e-05)
(0.000586547 0 0.000173348)
(0.000566687 0 0.000209156)
(0.000526916 0 0.000280879)
(0.000494607 0 0.000317122)
(0.000407553 0 0.000357407)
(0.000341714 0 0.000285704)
(0.000240154 0 0.00017581)
(0.000181538 0 6.9169e-05)
(0.00015659 0 8.60984e-05)
(0.000139794 0 9.86085e-05)
(9.06385e-05 0 0.000136788)
(5.17646e-05 0 0.000160498)
(2.66708e-05 0 0.000165175)
(2.54405e-05 0 0.000181277)
(1.8564e-05 0 0.000147629)
(3.62517e-05 0 5.51686e-05)
(3.86516e-06 0 -0.000116796)
(7.93059e-05 0 -0.000116707)
(0.000149873 0 -0.00013281)
(0.000182521 0 -0.000205098)
(0.00027178 0 -0.000153954)
(0.00029774 0 -0.000125089)
(0.000315362 0 -8.20483e-05)
(0.000318051 0 -8.59667e-05)
(0.000330798 0 -7.39003e-07)
(0.000327678 0 3.45144e-05)
(0.000317757 0 5.56169e-05)
(0.000294989 0 7.70761e-05)
(0.000272209 0 8.34071e-05)
(0.000243879 0 0.000103995)
(0.000217468 0 0.000102192)
(0.000186465 0 9.67366e-05)
(0.000182908 0 6.39171e-05)
(0.000136505 0 0.000108849)
(0.000113802 0 0.000131841)
(0.000108823 0 0.000152618)
(4.88995e-05 0 0.00018641)
(1.81794e-05 0 0.000215884)
(3.85826e-05 0 0.000197709)
(-4.73914e-08 0 0.000157048)
(-1.13971e-12 0 4.80348e-14)
(-2.26292e-12 0 -2.51345e-13)
(-2.1503e-12 0 -5.11053e-13)
(-1.98823e-12 0 -7.24175e-13)
(-1.7952e-12 0 -8.93842e-13)
(-1.58205e-12 0 -1.02318e-12)
(-1.35663e-12 0 -1.11445e-12)
(-1.12576e-12 0 -1.16984e-12)
(-8.95745e-13 0 -1.19198e-12)
(-6.72266e-13 0 -1.1842e-12)
(-4.60164e-13 0 -1.15041e-12)
(-2.63292e-13 0 -1.09493e-12)
(-8.44564e-14 0 -1.02223e-12)
(7.45554e-14 0 -9.36698e-13)
(2.12879e-13 0 -8.42437e-13)
(3.30435e-13 0 -7.43132e-13)
(4.27772e-13 0 -6.41962e-13)
(5.05908e-13 0 -5.4156e-13)
(5.66179e-13 0 -4.4402e-13)
(6.10116e-13 0 -3.50922e-13)
(6.39338e-13 0 -2.63395e-13)
(6.55476e-13 0 -1.82169e-13)
(6.60109e-13 0 -1.0765e-13)
(6.54728e-13 0 -3.99795e-14)
(6.40712e-13 0 2.09051e-14)
(6.1931e-13 0 7.52169e-14)
(5.91641e-13 0 1.23275e-13)
(5.58693e-13 0 1.65469e-13)
(5.2133e-13 0 2.02223e-13)
(4.803e-13 0 2.33977e-13)
(4.36249e-13 0 2.61167e-13)
(3.89727e-13 0 2.84207e-13)
(3.41204e-13 0 3.03481e-13)
(2.91082e-13 0 3.19337e-13)
(2.397e-13 0 3.32076e-13)
(1.87351e-13 0 3.41957e-13)
(1.3429e-13 0 3.49186e-13)
(8.07401e-14 0 3.53919e-13)
(2.69348e-14 0 3.5626e-13)
(-0.000152702 0 -0.000832608)
(-4.36954e-06 0 -0.000651869)
(-0.000104967 0 -0.000476268)
(-0.00016329 0 -0.0003221)
(-0.00017526 0 -0.00019747)
(-0.000187277 0 -7.4691e-05)
(-0.000176325 0 6.03406e-05)
(-0.000163957 0 0.000163134)
(-0.000157093 0 0.000203945)
(-0.000119431 0 0.000193619)
(-6.61408e-05 0 0.000146886)
(-4.10987e-05 0 0.000137902)
(-3.36696e-05 0 0.000129646)
(-5.00901e-05 0 0.000130397)
(-4.55745e-05 0 0.000129471)
(-5.21148e-05 0 0.000138705)
(-5.70777e-05 0 0.000160191)
(-5.56023e-05 0 0.000171402)
(-6.25711e-05 0 0.000159587)
(-3.22161e-05 0 0.000143433)
(2.1146e-05 0 9.62778e-05)
(8.17298e-05 0 4.55179e-05)
(0.000149706 0 1.01222e-05)
(0.000238092 0 -6.01327e-05)
(0.000304999 0 -0.000161298)
(0.000324816 0 -0.00026868)
(0.000355024 0 -0.000321522)
(0.000408266 0 -0.000344966)
(0.000440459 0 -0.000370069)
(0.000444495 0 -0.000366007)
(0.000440408 0 -0.000364978)
(0.000431785 0 -0.000355062)
(0.000458003 0 -0.000290753)
(0.000467065 0 -0.0002846)
(0.000474784 0 -0.000271843)
(0.00049037 0 -0.000231893)
(0.000487336 0 -0.000256749)
(0.00054023 0 -0.000167239)
(0.000552757 0 -0.000100846)
(0.000559062 0 -1.78017e-05)
(0.000575601 0 5.64103e-05)
(0.000559189 0 0.000212831)
(0.000546323 0 0.00025338)
(0.000536917 0 0.000283601)
(0.000510771 0 0.000323109)
(0.000518827 0 0.000290263)
(0.000413008 0 0.000326452)
(0.0003022 0 0.000243133)
(0.000229049 0 9.56746e-05)
(0.000153564 0 0.000103279)
(0.000124489 0 0.000127387)
(9.44306e-05 0 0.00015834)
(6.45591e-05 0 0.000183285)
(4.19739e-05 0 0.000183239)
(6.05462e-05 0 0.0001512)
(6.65651e-05 0 0.000134116)
(9.90213e-05 0 9.39141e-06)
(0.000108522 0 -9.11285e-05)
(0.000211517 0 -9.20444e-05)
(0.000213317 0 -0.000210882)
(0.000315464 0 -0.0001083)
(0.000316292 0 -0.000174271)
(0.000337455 0 -0.000148973)
(0.00036718 0 -6.56999e-05)
(0.000370328 0 -3.2458e-05)
(0.000367691 0 1.81339e-05)
(0.000368315 0 4.32564e-05)
(0.000352405 0 8.66773e-05)
(0.000334487 0 9.01837e-05)
(0.000302809 0 0.000108078)
(0.000248261 0 0.000139729)
(0.000203981 0 0.000153123)
(0.00019323 0 0.000130941)