/*--------------------------------*- C++ -*----------------------------------*\
  =========                 |
  \\      /  F ield         | OpenFOAM: The Open Source CFD Toolbox
   \\    /   O peration     | Website:  https://openfoam.org
    \\  /    A nd           | Version:  6
     \\/     M anipulation  |
\*---------------------------------------------------------------------------*/
FoamFile
{
    version     2.0;
    format      ascii;
    class       surfaceScalarField;
    location    "1500";
    object      phi;
}
// * * * * * * * * * * * * * * * * * * * * * * * * * * * * * * * * * * * * * //

dimensions      [0 3 -1 0 0 0 0];

internalField   nonuniform List<scalar> 
9440
(
-1.98791e-11
1.98791e-11
-1.02761e-10
8.28843e-11
-3.23202e-10
2.20443e-10
-4.28058e-10
1.04858e-10
-4.77426e-10
4.93701e-11
-4.62854e-10
-1.45708e-11
-4.96902e-10
3.40487e-11
-5.43692e-10
4.6791e-11
-5.13415e-10
-3.02765e-11
-5.91306e-10
7.78911e-11
-7.95915e-10
2.04609e-10
-9.45995e-10
1.50081e-10
-1.01453e-09
6.85336e-11
-1.00919e-09
-5.33455e-12
-1.00092e-09
-8.27073e-12
-1.27561e-09
2.74695e-10
-1.91932e-09
6.43712e-10
-2.55917e-09
6.39846e-10
-3.01641e-09
4.57246e-10
-3.32994e-09
3.13529e-10
-3.40856e-09
7.86171e-11
-3.4483e-09
3.974e-11
-3.41255e-09
-3.57506e-11
-3.32945e-09
-8.30981e-11
-3.35288e-09
2.34322e-11
-3.32414e-09
-2.87495e-11
-3.3038e-09
-2.03392e-11
-3.26034e-09
-4.34602e-11
-3.22674e-09
-3.3596e-11
-3.19374e-09
-3.30047e-11
-3.18383e-09
-9.90466e-12
-3.16492e-09
-1.89119e-11
-3.08149e-09
-8.34238e-11
-3.0191e-09
-6.23932e-11
-2.93772e-09
-8.13748e-11
-2.72084e-09
-2.16888e-10
-2.52708e-09
-1.93751e-10
-2.20781e-09
-3.19275e-10
-1.73065e-09
-4.77161e-10
-1.44751e-09
-2.83141e-10
-1.24068e-09
-2.06835e-10
-1.01597e-09
-2.24702e-10
-8.38334e-10
-1.77641e-10
-7.56514e-10
-8.18188e-11
-6.78018e-10
-7.84951e-11
-5.89066e-10
-8.89511e-11
-5.3078e-10
-5.82831e-11
-4.86064e-10
-4.47144e-11
-4.70474e-10
-1.55875e-11
-4.77024e-10
6.55177e-12
-4.78346e-10
1.32212e-12
-4.69392e-10
-8.9533e-12
-4.60653e-10
-8.73724e-12
-4.40362e-10
-2.029e-11
-4.07664e-10
-3.26961e-11
-4.23006e-10
1.53447e-11
-2.11539e-10
-2.11465e-10
-2.15261e-10
3.72426e-12
-2.21677e-10
6.41664e-12
-4.19325e-10
1.97648e-10
-7.07806e-10
2.88479e-10
-1.10221e-09
3.944e-10
-1.48674e-09
3.84525e-10
-1.86137e-09
3.74627e-10
-2.24227e-09
3.80897e-10
-2.47236e-09
2.30089e-10
-2.61365e-09
1.41293e-10
-2.58801e-09
-2.56468e-11
-2.39933e-09
-1.88677e-10
-2.22891e-09
-1.70419e-10
-2.14061e-09
-8.82982e-11
-2.06506e-09
-7.55541e-11
-1.99241e-09
-7.26536e-11
-2.00254e-09
1.01322e-11
-2.05662e-09
5.40772e-11
-2.13749e-09
8.08733e-11
-2.12192e-09
-1.55769e-11
-1.62736e-09
-4.94564e-10
-1.01201e-09
-6.1536e-10
1.7902e-14
-1.01204e-09
-7.04682e-18
4.83328e-18
-9.4467e-18
2.39988e-18
-1.04459e-17
9.89948e-19
-1.07101e-17
2.58351e-19
-1.05652e-17
-1.49668e-19
-1.01693e-17
-4.00563e-19
-9.60565e-18
-5.68547e-19
-8.92416e-18
-6.86604e-19
-8.15934e-18
-7.69697e-19
-7.33757e-18
-8.25477e-19
-6.48166e-18
-8.58504e-19
-5.61245e-18
-8.715e-19
-4.74775e-18
-8.6662e-19
-3.90319e-18
-8.46141e-19
-3.09225e-18
-8.12364e-19
-2.32565e-18
-7.67682e-19
-1.61224e-18
-7.14828e-19
-9.59081e-19
-6.56137e-19
-3.71678e-19
-5.92658e-19
1.47709e-19
-5.25167e-19
5.99393e-19
-4.55725e-19
9.83539e-19
-3.86789e-19
1.30059e-18
-3.19339e-19
1.55345e-18
-2.53401e-19
1.74629e-18
-1.89833e-19
1.88211e-18
-1.30309e-19
1.96304e-18
-7.59106e-20
1.99211e-18
-2.6596e-20
1.97379e-18
1.81435e-20
1.91343e-18
5.86175e-20
1.81645e-18
9.48469e-20
1.68799e-18
1.26762e-19
1.53264e-18
1.54379e-19
1.35445e-18
1.77887e-19
1.15713e-18
1.976e-19
9.44178e-19
2.13823e-19
7.18974e-19
2.2675e-19
4.84703e-19
2.36504e-19
2.44269e-19
2.43239e-19
2.47381e-19
-2.91956e-10
3.11837e-10
-4.66824e-10
2.57757e-10
-4.82376e-10
2.35999e-10
-5.48686e-10
1.71171e-10
-5.8686e-10
8.75468e-11
-5.24215e-10
-7.72135e-11
-5.32964e-10
4.27985e-11
-5.58389e-10
7.22174e-11
-6.42494e-10
5.38296e-11
-7.81064e-10
2.16462e-10
-8.37254e-10
2.608e-10
-9.7251e-10
2.85337e-10
-1.16637e-09
2.62391e-10
-1.34781e-09
1.76113e-10
-1.64195e-09
2.85876e-10
-2.09451e-09
7.2725e-10
-2.4195e-09
9.68706e-10
-2.82087e-09
1.04122e-09
-3.08749e-09
7.23871e-10
-3.07326e-09
2.99304e-10
-3.15779e-09
1.63142e-10
-3.16453e-09
4.64831e-11
-3.13487e-09
-6.54187e-11
-3.06285e-09
-1.55119e-10
-3.01114e-09
-2.82779e-11
-3.00301e-09
-3.68839e-11
-3.01286e-09
-1.04907e-11
-3.01941e-09
-3.69076e-11
-3.00103e-09
-5.19755e-11
-2.98995e-09
-4.40846e-11
-2.93829e-09
-6.15592e-11
-2.88113e-09
-7.60756e-11
-2.85515e-09
-1.09394e-10
-2.81252e-09
-1.05026e-10
-2.74698e-09
-1.46912e-10
-2.72231e-09
-2.41559e-10
-2.49893e-09
-4.17137e-10
-2.06304e-09
-7.5517e-10
-1.63821e-09
-9.01987e-10
-1.27833e-09
-6.43028e-10
-1.00862e-09
-4.76542e-10
-8.33545e-10
-3.99776e-10
-7.24043e-10
-2.87142e-10
-7.15518e-10
-9.03421e-11
-7.20656e-10
-7.33537e-11
-7.10679e-10
-9.89248e-11
-7.05114e-10
-6.38442e-11
-7.14056e-10
-3.57706e-11
-7.21122e-10
-8.51888e-12
-7.23698e-10
9.12934e-12
-7.34149e-10
1.17743e-11
-7.35397e-10
-7.70315e-12
-7.31272e-10
-1.28596e-11
-6.98908e-10
-5.26506e-11
-6.62487e-10
-6.91132e-11
-5.80678e-10
-6.64611e-11
-5.70484e-10
-2.21656e-10
-5.34549e-10
-3.221e-11
-5.70976e-10
4.28428e-11
-6.94194e-10
3.20865e-10
-8.59382e-10
4.53663e-10
-1.09702e-09
6.32032e-10
-1.31309e-09
6.00594e-10
-1.46735e-09
5.28878e-10
-1.62161e-09
5.35158e-10
-1.78007e-09
3.88545e-10
-1.78343e-09
1.44654e-10
-1.67779e-09
-1.31296e-10
-1.5629e-09
-3.03568e-10
-1.43669e-09
-2.96623e-10
-1.28931e-09
-2.35682e-10
-1.20325e-09
-1.61617e-10
-1.20171e-09
-7.41894e-11
-1.26252e-09
7.09365e-11
-1.41392e-09
2.05474e-10
-1.64783e-09
3.14774e-10
-1.66462e-09
1.20733e-12
-1.23924e-09
-9.19949e-10
-6.79298e-10
-1.1753e-09
4.15082e-16
-1.69131e-09
-9.71396e-18
8.5956e-18
-1.08565e-17
3.54346e-18
-1.11775e-17
1.30476e-18
-1.11181e-17
1.90636e-19
-1.08161e-17
-4.60319e-19
-1.03373e-17
-8.8769e-19
-9.7237e-18
-1.18953e-18
-9.00725e-18
-1.40934e-18
-8.21512e-18
-1.56755e-18
-7.3706e-18
-1.67477e-18
-6.49465e-18
-1.73763e-18
-5.60757e-18
-1.76105e-18
-4.72727e-18
-1.74935e-18
-3.86941e-18
-1.70702e-18
-3.04757e-18
-1.63899e-18
-2.2728e-18
-1.54942e-18
-1.55354e-18
-1.44212e-18
-8.95601e-19
-1.32118e-18
-3.04187e-19
-1.19061e-18
2.17151e-19
-1.05373e-18
6.68328e-19
-9.1312e-19
1.05099e-18
-7.71541e-19
1.36653e-18
-6.32356e-19
1.61702e-18
-4.98793e-19
1.80582e-18
-3.73074e-19
1.93651e-18
-2.56297e-19
2.01236e-18
-1.48755e-19
2.03685e-18
-5.02395e-20
2.01427e-18
3.96128e-20
1.94966e-18
1.20957e-19
1.84836e-18
1.9367e-19
1.71561e-18
2.57637e-19
1.55615e-18
3.13046e-19
1.37417e-18
3.60392e-19
1.17335e-18
4.00246e-19
9.57105e-19
4.33056e-19
7.28729e-19
4.59113e-19
4.91437e-19
4.7859e-19
2.48411e-19
4.91562e-19
4.97963e-19
-1.57339e-10
4.69178e-10
-3.80641e-10
4.81063e-10
-4.73705e-10
3.29066e-10
-5.18117e-10
2.15587e-10
-5.59015e-10
1.28447e-10
-5.54518e-10
-8.17081e-11
-5.5608e-10
4.43624e-11
-5.78233e-10
9.4372e-11
-7.25587e-10
2.01185e-10
-8.577e-10
3.48576e-10
-9.84553e-10
3.87655e-10
-1.12155e-09
4.2234e-10
-1.29813e-09
4.38973e-10
-1.54796e-09
4.25938e-10
-1.91112e-09
6.49042e-10
-2.28436e-09
1.10049e-09
-2.55585e-09
1.2402e-09
-2.69908e-09
1.18444e-09
-2.79495e-09
8.19746e-10
-2.8678e-09
3.72153e-10
-2.91667e-09
2.12012e-10
-2.88696e-09
1.67715e-11
-2.84744e-09
-1.04938e-10
-2.74466e-09
-2.57902e-10
-2.6465e-09
-1.2644e-10
-2.62675e-09
-5.66354e-11
-2.61034e-09
-2.6903e-11
-2.60305e-09
-4.41957e-11
-2.603e-09
-5.20244e-11
-2.6598e-09
1.27172e-11
-2.64354e-09
-7.78194e-11
-2.65271e-09
-6.69056e-11
-2.66792e-09
-9.41754e-11
-2.66962e-09
-1.03331e-10
-2.64425e-09
-1.72282e-10
-2.54329e-09
-3.42517e-10
-2.26647e-09
-6.93959e-10
-1.86595e-09
-1.15569e-09
-1.54428e-09
-1.22367e-09
-1.1107e-09
-1.0766e-09
-7.19214e-10
-8.6803e-10
-5.07457e-10
-6.11532e-10
-4.05893e-10
-3.88705e-10
-4.19576e-10
-7.66566e-11
-4.59707e-10
-3.32209e-11
-5.17681e-10
-4.09492e-11
-5.71035e-10
-1.04887e-11
-6.17509e-10
1.07047e-11
-6.73227e-10
4.72003e-11
-7.04625e-10
4.05278e-11
-7.59782e-10
6.69329e-11
-8.08442e-10
4.09582e-11
-8.09869e-10
-1.14302e-11
-7.89163e-10
-7.33548e-11
-7.57084e-10
-1.01189e-10
-6.76055e-10
-1.47488e-10
-7.43284e-10
-1.54427e-10
-7.01197e-10
-7.42965e-11
-7.5532e-10
9.69658e-11
-8.02699e-10
3.68242e-10
-8.69048e-10
5.2001e-10
-8.86588e-10
6.49569e-10
-9.99872e-10
7.13875e-10
-1.0224e-09
5.514e-10
-9.92219e-10
5.04977e-10
-9.91031e-10
3.87355e-10
-8.90436e-10
4.40573e-11
-8.15415e-10
-2.06317e-10
-7.78118e-10
-3.40864e-10
-7.06579e-10
-3.68162e-10
-6.47449e-10
-2.94813e-10
-5.98536e-10
-2.10532e-10
-5.92392e-10
-8.03346e-11
-5.44106e-10
2.26483e-11
-4.80905e-10
1.42271e-10
-5.38026e-10
3.71892e-10
-8.96976e-10
3.60151e-10
-8.03295e-10
-1.01364e-09
-4.87969e-10
-1.49065e-09
-1.94268e-15
-2.17929e-09
-1.52196e-17
8.20713e-19
-1.30948e-17
1.41438e-18
-1.22916e-17
4.9856e-19
-1.17691e-17
-3.35688e-19
-1.12435e-17
-9.90019e-19
-1.06392e-17
-1.49625e-18
-9.94351e-18
-1.88897e-18
-9.16546e-18
-2.19033e-18
-8.32234e-18
-2.41322e-18
-7.43345e-18
-2.56605e-18
-6.51807e-18
-2.65536e-18
-5.59587e-18
-2.68689e-18
-4.68493e-18
-2.6661e-18
-3.80138e-18
-2.5984e-18
-2.95801e-18
-2.4905e-18
-2.1655e-18
-2.34939e-18
-1.4326e-18
-2.1821e-18
-7.65039e-19
-1.99497e-18
-1.67307e-19
-1.79319e-18
3.57763e-19
-1.58179e-18
8.09908e-19
-1.36627e-18
1.19017e-18
-1.15175e-18
1.50009e-18
-9.42373e-19
1.74274e-18
-7.41517e-19
1.92259e-18
-5.5193e-19
2.04405e-18
-3.75451e-19
2.11088e-18
-2.12821e-19
2.1267e-18
-6.40132e-20
2.09561e-18
7.12015e-20
2.02237e-18
1.92957e-19
1.91233e-18
3.01357e-19
1.77102e-18
3.96659e-19
1.6035e-18
4.79374e-19
1.41402e-18
5.5018e-19
1.20616e-18
6.09769e-19
9.83162e-19
6.58719e-19
7.48206e-19
6.97441e-19
5.04409e-19
7.26187e-19
2.54812e-19
7.45104e-19
7.54343e-19
-1.71308e-10
6.40488e-10
-3.382e-10
6.4796e-10
-4.35892e-10
4.26761e-10
-4.91121e-10
2.70819e-10
-5.14127e-10
1.51457e-10
-5.9274e-10
-3.09234e-12
-6.03409e-10
5.5034e-11
-6.49294e-10
1.4026e-10
-7.33207e-10
2.851e-10
-8.11331e-10
4.26703e-10
-9.33219e-10
5.09545e-10
-1.06014e-09
5.49261e-10
-1.18698e-09
5.65817e-10
-1.39913e-09
6.38085e-10
-1.9026e-09
1.15251e-09
-2.33434e-09
1.53223e-09
-2.49482e-09
1.40068e-09
-2.62097e-09
1.3106e-09
-2.64662e-09
8.45391e-10
-2.72361e-09
4.49146e-10
-2.67509e-09
1.63497e-10
-2.67818e-09
1.98575e-11
-2.61622e-09
-1.66895e-10
-2.54016e-09
-3.33967e-10
-2.46832e-09
-1.98277e-10
-2.42435e-09
-1.00606e-10
-2.4115e-09
-3.97554e-11
-2.43438e-09
-2.13207e-11
-2.45583e-09
-3.0574e-11
-2.47794e-09
3.48289e-11
-2.51753e-09
-3.82263e-11
-2.5494e-09
-3.50371e-11
-2.53499e-09
-1.08584e-10
-2.50502e-09
-1.333e-10
-2.42119e-09
-2.56112e-10
-2.19301e-09
-5.70689e-10
-1.8257e-09
-1.06127e-09
-1.54727e-09
-1.43412e-09
-1.21399e-09
-1.55694e-09
-8.21635e-10
-1.46896e-09
-5.00465e-10
-1.1892e-09
-3.35156e-10
-7.7684e-10
-1.87065e-10
-5.36795e-10
-1.82643e-10
-8.10774e-11
-1.94761e-10
-2.11019e-11
-2.3913e-10
3.42093e-12
-2.6859e-10
1.89722e-11
-3.90958e-10
1.33073e-10
-5.6457e-10
2.20813e-10
-6.68438e-10
1.44396e-10
-7.12464e-10
1.1096e-10
-7.73221e-10
1.01716e-10
-8.17959e-10
3.33094e-11
-8.46754e-10
-4.45586e-11
-8.43506e-10
-1.04437e-10
-8.0858e-10
-1.82413e-10
-7.94323e-10
-1.68684e-10
-7.90411e-10
-7.82085e-11
-8.09291e-10
1.15846e-10
-7.8243e-10
3.4138e-10
-7.49273e-10
4.86853e-10
-7.07486e-10
6.07781e-10
-6.59269e-10
6.65655e-10
-6.87192e-10
5.79322e-10
-6.05181e-10
4.22965e-10
-4.39187e-10
2.21359e-10
-3.36434e-10
-5.86974e-11
-2.7331e-10
-2.69442e-10
-2.20066e-10
-3.94109e-10
-1.86791e-10
-4.01438e-10
-1.80248e-10
-3.01357e-10
-1.67918e-10
-2.22863e-10
-1.50844e-10
-9.74086e-11
-1.16034e-10
-1.21623e-11
-7.46726e-11
1.00908e-10
-1.3863e-11
3.11083e-10
-1.24478e-10
4.7077e-10
-3.10283e-10
-8.27833e-10
-2.62332e-10
-1.5386e-09
-1.88838e-15
-2.44162e-09
-1.52663e-17
-4.80319e-19
-1.40103e-17
1.5593e-19
-1.31258e-17
-3.86553e-19
-1.24234e-17
-1.0396e-18
-1.17497e-17
-1.66578e-18
-1.10319e-17
-2.21638e-18
-1.02449e-17
-2.67784e-18
-9.38836e-18
-3.04818e-18
-8.47517e-18
-3.32858e-18
-7.52276e-18
-3.52192e-18
-6.5496e-18
-3.63263e-18
-5.57508e-18
-3.66634e-18
-4.61723e-18
-3.62969e-18
-3.69348e-18
-3.52989e-18
-2.8169e-18
-3.3757e-18
-1.99821e-18
-3.17601e-18
-1.24546e-18
-2.94037e-18
-5.63256e-19
-2.6788e-18
4.40865e-20
-2.40006e-18
5.73287e-19
-2.11107e-18
1.02443e-18
-1.81828e-18
1.39955e-18
-1.528e-18
1.70095e-18
-1.24569e-18
1.93233e-18
-9.75415e-19
2.09907e-18
-7.20198e-19
2.20668e-18
-4.82325e-19
2.25968e-18
-2.63295e-19
2.26191e-18
-6.36898e-20
2.21737e-18
1.16649e-19
2.13077e-18
2.78262e-19
2.00763e-18
4.21812e-19
1.85373e-18
5.48015e-19
1.6743e-18
6.57637e-19
1.47361e-18
7.51476e-19
1.25511e-18
8.30293e-19
1.02188e-18
8.94767e-19
7.76953e-19
9.45474e-19
5.23325e-19
9.82903e-19
2.64051e-19
1.00746e-18
1.01946e-18
-1.51185e-10
7.91676e-10
-2.94969e-10
7.91748e-10
-3.95087e-10
5.26883e-10
-4.79775e-10
3.55511e-10
-5.25866e-10
1.97552e-10
-5.87763e-10
5.88082e-11
-6.21869e-10
8.91433e-11
-6.84778e-10
2.03172e-10
-7.63496e-10
3.63821e-10
-8.7235e-10
5.3556e-10
-1.01965e-09
6.56844e-10
-1.22316e-09
7.52774e-10
-1.52138e-09
8.64039e-10
-1.81037e-09
9.27077e-10
-1.91467e-09
1.25681e-09
-1.98464e-09
1.60221e-09
-2.0905e-09
1.50653e-09
-2.1165e-09
1.33661e-09
-2.19838e-09
9.27268e-10
-2.38243e-09
6.33196e-10
-2.38119e-09
1.62259e-10
-2.39289e-09
3.15545e-11
-2.40671e-09
-1.53071e-10
-2.39741e-09
-3.43268e-10
-2.38875e-09
-2.06932e-10
-2.39066e-09
-9.86975e-11
-2.40192e-09
-2.85011e-11
-2.42754e-09
4.3052e-12
-2.44513e-09
-1.29833e-11
-2.41418e-09
3.87662e-12
-2.45992e-09
7.51698e-12
-2.43911e-09
-5.58507e-11
-2.31359e-09
-2.34102e-10
-2.16965e-09
-2.7724e-10
-2.00221e-09
-4.23558e-10
-1.81329e-09
-7.59604e-10
-1.53077e-09
-1.34379e-09
-1.31134e-09
-1.65356e-09
-1.06798e-09
-1.8003e-09
-8.43002e-10
-1.69395e-09
-5.73198e-10
-1.459e-09
-2.71787e-10
-1.07825e-09
-1.02934e-10
-7.05647e-10
2.48312e-11
-2.08843e-10
1.08607e-10
-1.04878e-10
1.46544e-10
-3.4516e-11
1.81595e-10
-1.60785e-11
1.09208e-10
2.0546e-10
-3.44021e-11
3.64423e-10
-3.06357e-10
4.16352e-10
-6.08906e-10
4.1351e-10
-7.70941e-10
2.63752e-10
-8.16867e-10
7.92359e-11
-8.49708e-10
-1.17171e-11
-8.62686e-10
-9.14584e-11
-8.66485e-10
-1.78614e-10
-8.42659e-10
-1.9251e-10
-8.36703e-10
-8.41642e-11
-7.8826e-10
6.74037e-11
-7.41306e-10
2.94427e-10
-6.34249e-10
3.79797e-10
-5.52809e-10
5.26341e-10
-3.42788e-10
4.55633e-10
-2.03948e-10
4.40481e-10
-1.24909e-11
2.31507e-10
2.24428e-10
-1.55613e-11
2.76149e-10
-1.10419e-10
2.99654e-10
-2.92949e-10
2.36348e-10
-3.30805e-10
1.61606e-10
-3.26699e-10
1.26299e-10
-2.66052e-10
1.12825e-10
-2.09391e-10
9.57278e-11
-8.03116e-11
6.81616e-11
1.54033e-11
5.75455e-11
1.11522e-10
1.52248e-10
2.16378e-10
3.4473e-10
2.78287e-10
8.69835e-11
-5.70083e-10
6.90257e-11
-1.52064e-09
-5.31128e-16
-2.37259e-09
-1.54247e-17
-1.52312e-18
-1.45525e-17
-7.16444e-19
-1.37789e-17
-1.16075e-18
-1.30496e-17
-1.77034e-18
-1.23003e-17
-2.41717e-18
-1.14934e-17
-3.02628e-18
-1.06152e-17
-3.55897e-18
-9.66875e-18
-3.99669e-18
-8.66851e-18
-4.33111e-18
-7.63348e-18
-4.56002e-18
-6.58331e-18
-4.68588e-18
-5.53843e-18
-4.71447e-18
-4.51743e-18
-4.65358e-18
-3.53929e-18
-4.51232e-18
-2.61721e-18
-4.30217e-18
-1.76257e-18
-4.03523e-18
-9.83897e-19
-3.7237e-18
-2.84511e-19
-3.38019e-18
3.33072e-19
-3.0167e-18
8.66075e-19
-2.64302e-18
1.31471e-18
-2.26723e-18
1.68186e-18
-1.89649e-18
1.97122e-18
-1.53706e-18
2.18754e-18
-1.19399e-18
2.33695e-18
-8.71027e-19
2.42571e-18
-5.70873e-19
2.45929e-18
-2.95256e-19
2.44225e-18
-4.48859e-20
2.37898e-18
1.80454e-19
2.27432e-18
3.81627e-19
2.13384e-18
5.59805e-19
1.96335e-18
7.162e-19
1.76814e-18
8.51903e-19
1.55243e-18
9.67863e-19
1.31958e-18
1.06495e-18
1.07259e-18
1.14404e-18
8.14381e-19
1.20599e-18
5.47882e-19
1.25162e-18
2.76056e-19
1.2816e-18
1.29631e-18
-1.2978e-10
9.21459e-10
-2.56679e-10
9.1865e-10
-3.79742e-10
6.4995e-10
-4.67225e-10
4.42998e-10
-5.26474e-10
2.56804e-10
-5.82743e-10
1.15081e-10
-6.24796e-10
1.31201e-10
-6.98991e-10
2.7737e-10
-7.92532e-10
4.57365e-10
-9.2972e-10
6.7275e-10
-1.10232e-09
8.29446e-10
-1.24488e-09
8.95335e-10
-1.30677e-09
9.2593e-10
-1.53989e-09
1.1602e-09
-1.8377e-09
1.55462e-09
-1.92303e-09
1.68753e-09
-2.10694e-09
1.69044e-09
-2.16197e-09
1.39163e-09
-2.13895e-09
9.04251e-10
-2.14838e-09
6.42628e-10
-2.21721e-09
2.31088e-10
-2.20445e-09
1.8801e-11
-2.19828e-09
-1.59237e-10
-2.26135e-09
-2.80204e-10
-2.37292e-09
-9.53597e-11
-2.40514e-09
-6.64751e-11
-2.44055e-09
6.90422e-12
-2.44756e-09
1.13161e-11
-2.44242e-09
-1.81168e-11
-2.39018e-09
-4.83637e-11
-2.36722e-09
-1.54478e-11
-2.28349e-09
-1.39581e-10
-2.0661e-09
-4.51497e-10
-1.84715e-09
-4.96189e-10
-1.70795e-09
-5.62754e-10
-1.57759e-09
-8.89963e-10
-1.29102e-09
-1.63037e-09
-1.07151e-09
-1.87306e-09
-9.60172e-10
-1.91164e-09
-8.74871e-10
-1.77925e-09
-7.32135e-10
-1.60174e-09
-5.86527e-10
-1.22386e-09
-3.12192e-10
-9.79982e-10
6.5909e-11
-5.86945e-10
1.65739e-10
-2.04708e-10
2.66494e-10
-1.35271e-10
3.06777e-10
-5.6361e-11
2.83846e-10
2.28391e-10
2.04373e-10
4.43897e-10
1.55337e-11
6.05192e-10
-1.94094e-10
6.23138e-10
-4.66989e-10
5.36648e-10
-7.33119e-10
3.45367e-10
-8.39623e-10
9.47868e-11
-9.0039e-10
-3.06913e-11
-9.09676e-10
-1.69328e-10
-9.13357e-10
-1.88829e-10
-9.05997e-10
-9.15234e-11
-8.46491e-10
7.89878e-12
-7.65935e-10
2.13873e-10
-6.81227e-10
2.95091e-10
-5.3129e-10
3.76405e-10
-3.26505e-10
2.50849e-10
-1.6716e-10
2.81136e-10
1.31658e-12
6.30306e-11
2.13264e-10
-2.27509e-10
2.48425e-10
-1.45583e-10
2.48328e-10
-2.92855e-10
2.11763e-10
-2.94243e-10
1.86198e-10
-3.01137e-10
1.7874e-10
-2.58597e-10
1.97476e-10
-2.28129e-10
2.62116e-10
-1.44953e-10
2.86476e-10
-8.95773e-12
2.48919e-10
1.49077e-10
2.92961e-10
1.72334e-10
5.97157e-10
-2.59105e-11
4.79248e-10
-4.52173e-10
3.03661e-10
-1.34505e-09
1.04543e-15
-2.06892e-09
-1.5548e-17
-2.27876e-18
-1.49965e-17
-1.26777e-18
-1.43885e-17
-1.77166e-18
-1.36964e-17
-2.46606e-18
-1.29094e-17
-3.20768e-18
-1.20261e-17
-3.9136e-18
-1.10529e-17
-4.53608e-18
-1.00032e-17
-5.04889e-18
-8.89742e-18
-5.43853e-18
-7.75934e-18
-5.6998e-18
-6.61191e-18
-5.8342e-18
-5.47754e-18
-5.8488e-18
-4.37618e-18
-5.75353e-18
-3.32914e-18
-5.56036e-18
-2.35027e-18
-5.28336e-18
-1.45104e-18
-4.93787e-18
-6.40396e-19
-4.5395e-18
7.89807e-20
-4.10369e-18
7.06755e-19
-3.64534e-18
1.24186e-18
-3.17728e-18
1.68545e-18
-2.70998e-18
2.04129e-18
-2.2521e-18
2.31429e-18
-1.8108e-18
2.51051e-18
-1.39172e-18
2.6371e-18
-9.99019e-19
2.70133e-18
-6.35592e-19
2.70966e-18
-3.03155e-19
2.66759e-18
-2.21983e-21
2.58015e-18
2.67771e-19
2.4525e-18
5.08087e-19
2.29023e-18
7.20292e-19
2.09906e-18
9.05927e-19
1.8841e-18
1.06638e-18
1.64951e-18
1.20292e-18
1.39867e-18
1.31682e-18
1.13454e-18
1.40937e-18
8.60008e-19
1.4818e-18
5.7786e-19
1.53518e-18
2.90768e-19
1.5703e-18
1.58758e-18
-1.55807e-10
1.07727e-09
-2.56942e-10
1.01979e-09
-3.78774e-10
7.71785e-10
-4.65251e-10
5.29478e-10
-5.23325e-10
3.14882e-10
-5.73942e-10
1.65702e-10
-6.43825e-10
2.01087e-10
-6.94174e-10
3.27723e-10
-7.5246e-10
5.15654e-10
-8.57022e-10
7.77314e-10
-9.84883e-10
9.57309e-10
-1.13233e-09
1.04278e-09
-1.33567e-09
1.12926e-09
-1.50636e-09
1.33088e-09
-1.60608e-09
1.65435e-09
-1.65169e-09
1.73315e-09
-1.75749e-09
1.79624e-09
-1.87197e-09
1.50611e-09
-1.95264e-09
9.84924e-10
-1.97964e-09
6.69635e-10
-2.09118e-09
3.42627e-10
-2.11e-09
3.76233e-11
-2.1333e-09
-1.35938e-10
-2.22482e-09
-1.88682e-10
-2.29976e-09
-2.04145e-11
-2.37662e-09
1.03872e-11
-2.43776e-09
6.804e-11
-2.47434e-09
4.78913e-11
-2.44894e-09
-4.35155e-11
-2.35115e-09
-1.46152e-10
-2.20771e-09
-1.58893e-10
-2.10596e-09
-2.4133e-10
-1.95068e-09
-6.06779e-10
-1.685e-09
-7.61874e-10
-1.51055e-09
-7.37203e-10
-1.31521e-09
-1.0853e-09
-1.0871e-09
-1.85848e-09
-1.02773e-09
-1.93244e-09
-9.46894e-10
-1.99248e-09
-7.8943e-10
-1.93671e-09
-7.20446e-10
-1.67072e-09
-5.87229e-10
-1.35708e-09
-3.55155e-10
-1.21206e-09
-1.29085e-10
-8.13016e-10
1.31505e-10
-4.65298e-10
2.874e-10
-2.91167e-10
2.71969e-10
-4.09292e-11
3.25785e-10
1.74576e-10
3.53168e-10
4.16514e-10
2.90144e-10
6.68216e-10
8.2493e-11
8.3079e-10
-1.43051e-10
7.62193e-10
-4.46099e-10
6.48415e-10
-7.46646e-10
3.95333e-10
-9.24821e-10
1.47484e-10
-9.48691e-10
-1.45459e-10
-9.61364e-10
-1.76155e-10
-9.61969e-10
-9.09177e-11
-9.38213e-10
-1.58544e-11
-8.15105e-10
9.07672e-11
-7.30029e-10
2.10019e-10
-6.18156e-10
2.64535e-10
-4.94221e-10
1.26916e-10
-3.8323e-10
1.70146e-10
-2.92401e-10
-2.77984e-11
-1.60414e-10
-3.59497e-10
-3.3469e-11
-2.72531e-10
-9.16491e-12
-3.17163e-10
-5.80653e-12
-2.97606e-10
2.51885e-11
-3.32136e-10
1.45691e-12
-2.34869e-10
-7.80917e-11
-1.48585e-10
-9.53123e-11
-1.27736e-10
-3.09647e-11
-7.33076e-11
8.23024e-11
3.58088e-11
2.21714e-10
3.29208e-11
5.29322e-10
-3.33518e-10
5.59233e-10
-4.82083e-10
3.11314e-10
-1.09713e-09
1.30253e-15
-1.75761e-09
-1.5601e-17
-2.08016e-18
-1.55001e-17
-1.36985e-18
-1.50829e-17
-2.1935e-18
-1.44381e-17
-3.11609e-18
-1.36153e-17
-4.03436e-18
-1.26485e-17
-4.88399e-18
-1.15657e-17
-5.62259e-18
-1.03928e-17
-6.22394e-18
-9.15869e-18
-6.67361e-18
-7.89373e-18
-6.96584e-18
-6.6265e-18
-7.10245e-18
-5.38227e-18
-7.09305e-18
-4.18301e-18
-6.95043e-18
-3.05214e-18
-6.69076e-18
-2.00478e-18
-6.33185e-18
-1.05267e-18
-5.89255e-18
-2.04584e-19
-5.39244e-18
5.37327e-19
-4.85047e-18
1.17482e-18
-4.2847e-18
1.70916e-18
-3.71111e-18
2.14334e-18
-3.14283e-18
2.48259e-18
-2.59033e-18
2.73337e-18
-2.06177e-18
2.90321e-18
-1.56321e-18
3.00053e-18
-1.09875e-18
3.03377e-18
-6.70966e-19
3.01059e-18
-2.81159e-19
2.93758e-18
7.05328e-20
2.82047e-18
3.84966e-19
2.6647e-18
6.63688e-19
2.47587e-18
9.08593e-19
2.25951e-18
1.12166e-18
2.02064e-18
1.30484e-18
1.76341e-18
1.46005e-18
1.49121e-18
1.58915e-18
1.20697e-18
1.69393e-18
9.1339e-19
1.77594e-18
6.12982e-19
1.83639e-18
3.08048e-19
1.87613e-18
1.89567e-18
-1.43579e-10
1.22085e-09
-2.52586e-10
1.1288e-09
-3.31208e-10
8.5041e-10
-4.19772e-10
6.18046e-10
-5.06137e-10
4.01252e-10
-6.05783e-10
2.65351e-10
-6.50032e-10
2.45339e-10
-6.80712e-10
3.58406e-10
-7.06486e-10
5.4143e-10
-7.42933e-10
8.13763e-10
-8.264e-10
1.04078e-09
-9.74025e-10
1.19041e-09
-1.15283e-09
1.30807e-09
-1.34728e-09
1.52534e-09
-1.43842e-09
1.74548e-09
-1.50559e-09
1.80032e-09
-1.47129e-09
1.76195e-09
-1.48463e-09
1.51945e-09
-1.63182e-09
1.13212e-09
-1.79491e-09
8.32721e-10
-1.94754e-09
4.95263e-10
-2.02278e-09
1.12866e-10
-2.11056e-09
-4.8163e-11
-2.18619e-09
-1.13055e-10
-2.28176e-09
7.51631e-11
-2.3998e-09
1.2842e-10
-2.42906e-09
9.73022e-11
-2.44641e-09
6.52398e-11
-2.40548e-09
-8.4449e-11
-2.31597e-09
-2.35659e-10
-2.18596e-09
-2.88901e-10
-2.01165e-09
-4.15646e-10
-2.03204e-09
-5.86385e-10
-1.67861e-09
-1.11531e-09
-1.47966e-09
-9.36153e-10
-1.33032e-09
-1.23464e-09
-1.24404e-09
-1.94476e-09
-1.21703e-09
-1.95944e-09
-1.21496e-09
-1.99455e-09
-1.25878e-09
-1.8929e-09
-1.05727e-09
-1.87223e-09
-6.4909e-10
-1.76526e-09
-4.37092e-10
-1.42406e-09
-1.52024e-10
-1.09809e-09
1.98803e-10
-8.16125e-10
4.16512e-10
-5.08876e-10
3.81973e-10
-6.39032e-12
4.04938e-10
1.51612e-10
4.3744e-10
3.84014e-10
3.83231e-10
7.22425e-10
1.87333e-10
1.02669e-09
1.36485e-11
9.35876e-10
-1.60713e-10
8.22776e-10
-4.09228e-10
6.43847e-10
-6.90355e-10
4.28611e-10
-9.05719e-10
6.9906e-11
-9.68077e-10
-1.13796e-10
-9.86201e-10
-7.27915e-11
-9.93325e-10
-8.72752e-12
-9.94561e-10
9.20059e-11
-9.7638e-10
1.91841e-10
-9.07708e-10
1.95867e-10
-8.85819e-10
1.05028e-10
-8.64991e-10
1.49318e-10
-6.92691e-10
-2.00099e-10
-7.25789e-10
-3.264e-10
-4.59295e-10
-5.39028e-10
-4.22791e-10
-3.53671e-10
-3.43025e-10
-3.77376e-10
-1.49994e-10
-5.25172e-10
1.27075e-12
-3.86137e-10
2.64665e-11
-1.73784e-10
-1.81392e-11
-8.31337e-11
-1.10386e-11
-8.04097e-11
1.31197e-10
-1.06426e-10
2.76769e-10
-1.12651e-10
4.56028e-10
-5.12776e-10
6.04686e-10
-6.30739e-10
3.47921e-10
-8.40372e-10
-6.16859e-17
-1.40969e-09
-1.61021e-17
-8.4728e-19
-1.63234e-17
-1.15089e-18
-1.60055e-17
-2.51529e-18
-1.53563e-17
-3.76984e-18
-1.4465e-17
-4.92882e-18
-1.33871e-17
-5.96412e-18
-1.21671e-17
-6.8455e-18
-1.08425e-17
-7.55062e-18
-9.45091e-18
-8.06662e-18
-8.03034e-18
-8.38862e-18
-6.61711e-18
-8.51968e-18
-5.23965e-18
-8.47325e-18
-3.92334e-18
-8.26633e-18
-2.69322e-18
-7.9203e-18
-1.56548e-18
-7.4587e-18
-5.52549e-19
-6.90537e-18
3.37387e-19
-6.28448e-18
1.10309e-18
-5.61935e-18
1.74841e-18
-4.93143e-18
2.27744e-18
-4.23982e-18
2.69585e-18
-3.56029e-18
3.01114e-18
-2.90515e-18
3.23193e-18
-2.28344e-18
3.36767e-18
-1.70124e-18
3.42831e-18
-1.16232e-18
3.42357e-18
-6.68685e-19
3.36228e-18
-2.21078e-19
3.25202e-18
1.80846e-19
3.09919e-18
5.38365e-19
2.90961e-18
8.53508e-19
2.68893e-18
1.12878e-18
2.44269e-18
1.3669e-18
2.17585e-18
1.57062e-18
1.89252e-18
1.74258e-18
1.59599e-18
1.88528e-18
1.28899e-18
2.00089e-18
9.73841e-19
2.09123e-18
6.52722e-19
2.15772e-18
3.27583e-19
2.20131e-18
2.22268e-18
-1.25958e-10
1.34681e-09
-2.18099e-10
1.22094e-09
-2.91826e-10
9.24141e-10
-3.7502e-10
7.01244e-10
-4.60111e-10
4.86347e-10
-5.54434e-10
3.59678e-10
-6.0327e-10
2.94178e-10
-6.43305e-10
3.98443e-10
-7.14599e-10
6.12726e-10
-8.1073e-10
9.09894e-10
-9.00579e-10
1.13063e-09
-9.90056e-10
1.27988e-09
-1.11595e-09
1.43396e-09
-1.23823e-09
1.64762e-09
-1.32746e-09
1.83472e-09
-1.4657e-09
1.93856e-09
-1.59385e-09
1.89011e-09
-1.66105e-09
1.58664e-09
-1.67921e-09
1.15028e-09
-1.70974e-09
8.63257e-10
-1.85745e-09
6.42967e-10
-1.97529e-09
2.30704e-10
-2.02232e-09
-1.12647e-12
-2.15046e-09
1.50781e-11
-2.33532e-09
2.6002e-10
-2.43153e-09
2.24629e-10
-2.48288e-09
1.48652e-10
-2.45559e-09
3.79565e-11
-2.42962e-09
-1.10421e-10
-2.41162e-09
-2.53659e-10
-2.31442e-09
-3.86103e-10
-2.24125e-09
-4.88818e-10
-2.09419e-09
-7.33445e-10
-2.00137e-09
-1.20813e-09
-1.83975e-09
-1.09778e-09
-1.70527e-09
-1.36912e-09
-1.75729e-09
-1.89274e-09
-1.79469e-09
-1.92204e-09
-1.74672e-09
-2.04253e-09
-1.51807e-09
-2.12154e-09
-1.26414e-09
-2.12617e-09
-8.81113e-10
-2.14828e-09
-5.51464e-10
-1.75371e-09
-2.49382e-10
-1.40017e-09
1.35496e-11
-1.07906e-09
2.39121e-10
-7.34448e-10
4.43893e-10
-2.11161e-10
4.39206e-10
1.563e-10
4.40496e-10
3.82724e-10
4.44509e-10
7.18413e-10
4.20028e-10
1.05117e-09
1.44372e-10
1.21153e-09
-1.30518e-10
1.09766e-09
-2.94805e-10
8.08133e-10
-3.91543e-10
5.25348e-10
-6.11373e-10
2.89737e-10
-8.29076e-10
1.03909e-10
-9.52498e-10
5.06337e-11
-1.06425e-09
1.03031e-10
-1.14843e-09
1.76184e-10
-1.17581e-09
2.1922e-10
-1.1898e-09
2.09862e-10
-1.18746e-09
1.02691e-10
-1.09915e-09
6.10109e-11
-9.45561e-10
-3.53691e-10
-9.95632e-10
-2.7633e-10
-7.13316e-10
-8.21345e-10
-6.0463e-10
-4.62359e-10
-4.03044e-10
-5.78963e-10
-1.84288e-10
-7.4393e-10
9.18997e-12
-5.79615e-10
1.71957e-10
-3.36552e-10
2.08179e-10
-1.19356e-10
2.49431e-10
-1.21661e-10
3.70807e-10
-2.27799e-10
4.40546e-10
-1.82387e-10
4.05549e-10
-4.77777e-10
3.78805e-10
-6.03996e-10
2.24942e-10
-6.8651e-10
-1.41192e-15
-1.18475e-09
-1.78016e-17
-1.20355e-18
-1.76875e-17
-1.26705e-18
-1.72601e-17
-2.94434e-18
-1.65153e-17
-4.51763e-18
-1.55003e-17
-5.94619e-18
-1.42685e-17
-7.19765e-18
-1.28722e-17
-8.24456e-18
-1.13585e-17
-9.06692e-18
-9.77292e-18
-9.65397e-18
-8.1614e-18
-1.00025e-17
-6.57068e-18
-1.01176e-17
-5.03273e-18
-1.00167e-17
-3.57731e-18
-9.72363e-18
-2.23162e-18
-9.26641e-18
-1.01215e-18
-8.67585e-18
6.8335e-20
-7.98296e-18
1.00252e-18
-7.21781e-18
1.791e-18
-6.40898e-18
2.44002e-18
-5.58171e-18
2.95697e-18
-4.75784e-18
3.35098e-18
-3.95532e-18
3.63286e-18
-3.18806e-18
3.81413e-18
-2.46597e-18
3.90659e-18
-1.7952e-18
3.92194e-18
-1.179e-18
3.87118e-18
-6.1865e-19
3.76421e-18
-1.14022e-19
3.60953e-18
3.36117e-19
3.41433e-18
7.33958e-19
3.18488e-18
1.08246e-18
2.92706e-18
1.3851e-18
2.64641e-18
1.64552e-18
2.34781e-18
1.86733e-18
2.03521e-18
2.05388e-18
1.7116e-18
2.20817e-18
1.37933e-18
2.3328e-18
1.04032e-18
2.42989e-18
6.96316e-19
2.50112e-18
3.48953e-19
2.54771e-18
2.57052e-18
-1.12396e-10
1.45921e-09
-1.65106e-10
1.27366e-09
-2.47746e-10
1.00678e-09
-3.4066e-10
7.94161e-10
-4.13668e-10
5.59358e-10
-4.6429e-10
4.10303e-10
-5.21865e-10
3.51754e-10
-5.69228e-10
4.45807e-10
-6.42905e-10
6.86403e-10
-7.44277e-10
1.01127e-09
-9.0303e-10
1.28938e-09
-1.03203e-09
1.40888e-09
-1.09856e-09
1.5005e-09
-1.09979e-09
1.64885e-09
-1.10736e-09
1.84229e-09
-1.1267e-09
1.95791e-09
-1.20598e-09
1.96939e-09
-1.35032e-09
1.73098e-09
-1.49161e-09
1.29157e-09
-1.59591e-09
9.67559e-10
-1.73087e-09
7.77926e-10
-1.91602e-09
4.15849e-10
-2.04343e-09
1.26288e-10
-2.23362e-09
2.0526e-10
-2.36266e-09
3.89059e-10
-2.47781e-09
3.3978e-10
-2.53674e-09
2.07579e-10
-2.57806e-09
7.92831e-11
-2.64267e-09
-4.58127e-11
-2.66171e-09
-2.34629e-10
-2.63059e-09
-4.17224e-10
-2.50197e-09
-6.17431e-10
-2.36129e-09
-8.74125e-10
-2.36268e-09
-1.20674e-09
-2.21839e-09
-1.24207e-09
-2.00491e-09
-1.5826e-09
-2.01446e-09
-1.8832e-09
-1.9278e-09
-2.0087e-09
-1.78888e-09
-2.18144e-09
-1.63e-09
-2.28043e-09
-1.37539e-09
-2.38077e-09
-1.07165e-09
-2.45202e-09
-7.40364e-10
-2.08499e-09
-4.48747e-10
-1.69178e-09
-1.6316e-10
-1.36464e-09
-1.84048e-11
-8.79203e-10
2.26716e-10
-4.56281e-10
3.64785e-10
1.82309e-11
4.08964e-10
3.38545e-10
4.25254e-10
7.02123e-10
4.28995e-10
1.04743e-09
2.38127e-10
1.4024e-09
4.61e-11
1.28969e-09
-8.96107e-11
9.43843e-10
-1.45646e-10
5.81384e-10
-2.72126e-10
4.16219e-10
-6.50418e-10
4.82203e-10
-9.57211e-10
3.5743e-10
-1.06699e-09
2.12811e-10
-1.18357e-09
2.9277e-10
-1.24319e-09
2.7884e-10
-1.28117e-09
2.47843e-10
-1.25546e-09
7.69753e-11
-1.17559e-09
-1.8858e-11
-1.19463e-09
-3.34646e-10
-9.85931e-10
-4.85029e-10
-8.53384e-10
-9.5389e-10
-6.06027e-10
-7.09715e-10
-3.29479e-10
-8.55508e-10
-1.53885e-10
-9.1952e-10
-1.93205e-11
-7.14177e-10
1.56524e-10
-5.12393e-10
2.59047e-10
-2.21877e-10
3.0963e-10
-1.7224e-10
4.30936e-10
-3.491e-10
5.4471e-10
-2.96157e-10
4.50707e-10
-3.83773e-10
3.33613e-10
-4.86903e-10
1.92768e-10
-5.45666e-10
-1.13894e-15
-9.91983e-10
-1.94847e-17
-1.12355e-18
-1.93647e-17
-1.38814e-18
-1.88334e-17
-3.47632e-18
-1.79439e-17
-5.40978e-18
-1.67517e-17
-7.14108e-18
-1.53154e-17
-8.63636e-18
-1.36946e-17
-9.86875e-18
-1.19455e-17
-1.08191e-17
-1.01215e-17
-1.14787e-17
-8.27643e-18
-1.18465e-17
-6.46976e-18
-1.19313e-17
-4.7397e-18
-1.1754e-17
-3.12009e-18
-1.1347e-17
-1.64106e-18