0.010101 	8.36661e-09 	1.05985e-13 	3.71271e-11
0.020202 	9.0617e-10 	-2.06751e-13 	1.32766e-11
