0 	-25.3235
0.010101 	-18.7278
0.020202 	-18.7278
0.030303 	-18.7278
0.040404 	-17.928
0.0505051 	-7.1239
0.0606061 	-18.3994
0.0707071 	-18.7278
0.0808081 	-18.7278
0.0909091 	-18.7278
