/*--------------------------------*- C++ -*----------------------------------*\
  =========                 |
  \\      /  F ield         | OpenFOAM: The Open Source CFD Toolbox
   \\    /   O peration     | Website:  https://openfoam.org
    \\  /    A nd           | Version:  6
     \\/     M anipulation  |
\*---------------------------------------------------------------------------*/
FoamFile
{
    version     2.0;
    format      ascii;
    class       volScalarField;
    location    "420";
    object      dmdt;
}
// * * * * * * * * * * * * * * * * * * * * * * * * * * * * * * * * * * * * * //

dimensions      [0 0 0 0 0 0 0];

internalField   nonuniform List<scalar> 
5964
(
-0.360407
-0.316483
-0.277862
-0.245231
-0.218273
-0.19634
-0.178453
-0.163569
-0.150695
-0.138816
-0.127178
-0.115221
-0.102057
-0.0870529
-0.0696048
-0.0417859
-0.0600548
-0.0681838
-0.0738079
-0.0775319
-0.0797984
-0.0809286
-0.0811698
-0.0807226
-0.0797546
-0.0784058
-0.0767911
-0.0750022
-0.0731099
-0.071167
-0.0692108
-0.0672669
-0.0653517
-0.0634748
-0.0616415
-0.0598538
-0.0581119
-0.0564148
-0.0547608
-0.0531479
-0.0515739
-0.0500365
-0.0485336
-0.047063
-0.0456225
-0.0442102
-0.0428241
-0.0414623
-0.0401231
-0.0388047
-0.0375056
-0.0362243
-0.0349593
-0.0337093
-0.0324731
-0.0312494
-0.0300373
-0.0288357
-0.0276437
-0.0264603
-0.0252849
-0.0241166
-0.0229547
-0.0217987
-0.020648
-0.0195019
-0.01836
-0.0172219
-0.0160869
-0.0149547
-0.0138247
-0.0126964
-0.0115691
-0.0104424
-0.00931613
-0.00819078
-0.00706797
-0.00595011
-0.00483825
-0.00372796
-0.00260992
-0.00149605
-0.00048993
0.000154802
-0.360525
-0.316576
-0.277532
-0.244485
-0.217364
-0.195511
-0.177878
-0.163361
-0.150847
-0.139339
-0.128175
-0.116658
-0.10379
-0.089225
-0.0722187
-0.0437423
-0.0623611
-0.0697805
-0.0748095
-0.0781283
-0.0801353
-0.0811017
-0.0812393
-0.0807272
-0.0797196
-0.0783478
-0.0767212
-0.0749278
-0.0730357
-0.0710958
-0.0691443
-0.0672058
-0.0652962
-0.0634249
-0.0615969
-0.0598142
-0.0580768
-0.0563838
-0.0547335
-0.0531239
-0.0515529
-0.0500182
-0.0485177
-0.0470493
-0.0456108
-0.0442002
-0.0428157
-0.0414553
-0.0401173
-0.0388001
-0.037502
-0.0362215
-0.0349573
-0.033708
-0.0324724
-0.0312492
-0.0300376
-0.0288363
-0.0276446
-0.0264615
-0.0252863
-0.0241182
-0.0229565
-0.0218005
-0.0206499
-0.0195038
-0.018362
-0.0172238
-0.0160889
-0.0149567
-0.0138267
-0.0126984
-0.0115712
-0.0104446
-0.00931847
-0.00819326
-0.00707072
-0.00595387
-0.00484592
-0.00374791
-0.00266006
-0.00160201
-0.000664767
-5.96293e-05
-0.360448
-0.316134
-0.276394
-0.2428
-0.215585
-0.194056
-0.17701
-0.163133
-0.151217
-0.140335
-0.129848
-0.118932
-0.106643
-0.0931393
-0.0776204
-0.0487095
-0.067347
-0.0728674
-0.0766444
-0.079195
-0.0807292
-0.0813993
-0.0813492
-0.0807187
-0.0796384
-0.0782249
-0.0765772
-0.0747764
-0.0728858
-0.0709527
-0.0690109
-0.0670835
-0.0651854
-0.0633254
-0.061508
-0.0597351
-0.0580068
-0.056322
-0.0546791
-0.0530762
-0.0515112
-0.0499819
-0.0484863
-0.0470222
-0.0455876
-0.0441806
-0.0427991
-0.0414416
-0.0401061
-0.0387911
-0.0374949
-0.0362162
-0.0349535
-0.0337056
-0.0324711
-0.031249
-0.0300382
-0.0288377
-0.0276466
-0.026464
-0.0252892
-0.0241214
-0.0229599
-0.0218042
-0.0206537
-0.0195077
-0.0183659
-0.0172278
-0.0160929
-0.0149607
-0.0138307
-0.0127025
-0.0115754
-0.010449
-0.00932307
-0.00819809
-0.0070758
-0.00595987
-0.00485615
-0.00377254
-0.00272032
-0.00172093
-0.000818777
-0.000139244
-0.360083
-0.314996
-0.274579
-0.240705
-0.213699
-0.192762
-0.176487
-0.163364
-0.152203
-0.142011
-0.132109
-0.121691
-0.110072
-0.098066
-0.0857101
-0.0756657
-0.0750889
-0.0768767
-0.0788993
-0.08049
-0.0814451
-0.0817464
-0.081457
-0.0806727
-0.0794972
-0.078029
-0.0763546
-0.0745457
-0.0726591
-0.0707372
-0.0688107
-0.0669004
-0.0650197
-0.0631767
-0.0613753
-0.0596172
-0.0579024
-0.0562298
-0.054598
-0.0530051
-0.0514491
-0.0499279
-0.0484395
-0.0469819
-0.0455532
-0.0441514
-0.0427746
-0.0414212
-0.0400895
-0.0387778
-0.0374846
-0.0362085
-0.0349481
-0.0337021
-0.0324693
-0.0312487
-0.0300392
-0.0288398
-0.0276496
-0.0264678
-0.0252936
-0.0241263
-0.0229652
-0.0218098
-0.0206594
-0.0195136
-0.0183719
-0.0172338
-0.0160988
-0.0149666
-0.0138367
-0.0127085
-0.0115816
-0.0104554
-0.00932975
-0.00820497
-0.00708264
-0.00596651
-0.00486384
-0.00378647
-0.00274856
-0.00174253
-0.000657545
0.000606968
-0.359884
-0.31422
-0.273095
-0.238983
-0.212384
-0.192207
-0.176846
-0.164642
-0.154334
-0.144817
-0.135344
-0.125104
-0.113703
-0.102379
-0.091317
-0.0833626
-0.080207
-0.0800756
-0.0808989
-0.0817087
-0.0821296
-0.0820594
-0.0815146
-0.0805607
-0.0792788
-0.0777501
-0.0760476
-0.0742327
-0.0723542
-0.070449
-0.0685439
-0.0666569
-0.0647998
-0.0629795
-0.0611995
-0.0594611
-0.0577643
-0.0561081
-0.054491
-0.0529113
-0.0513672
-0.0498567
-0.0483779
-0.0469289
-0.0455079
-0.044113
-0.0427425
-0.0413946
-0.0400678
-0.0387604
-0.0374711
-0.0361984
-0.034941
-0.0336977
-0.0324672
-0.0312486
-0.0300408
-0.0288428
-0.0276538
-0.026473
-0.0252996
-0.0241329
-0.0229723
-0.0218172
-0.0206671
-0.0195215
-0.0183798
-0.0172417
-0.0161067
-0.0149745
-0.0138445
-0.0127164
-0.0115896
-0.0104637
-0.0093383
-0.00821365
-0.00709091
-0.00597329
-0.0048677
-0.00378614
-0.00273715
-0.00165455
-0.000138362
0.0024291
-0.358296
-0.311035
-0.27061
-0.237781
-0.212332
-0.193236
-0.178927
-0.167674
-0.158239
-0.149286
-0.139905
-0.129488
-0.117806
-0.106025
-0.0941557
-0.0852835
-0.0821346
-0.0818646
-0.0823174
-0.0826788
-0.0826839
-0.0822768
-0.0814823
-0.0803567
-0.0789667
-0.077378
-0.0756504
-0.0738342
-0.0719698
-0.070088
-0.068211
-0.066354
-0.0645267
-0.062735
-0.0609817
-0.0592679
-0.0575935
-0.0559575
-0.0543587
-0.0527955
-0.0512661
-0.0497689
-0.048302
-0.0468637
-0.0454523
-0.0440659
-0.042703
-0.041362
-0.0400413
-0.0387394
-0.0374548
-0.0361864
-0.0349327
-0.0336926
-0.0324649
-0.0312487
-0.0300429
-0.0288467
-0.0276592
-0.0264796
-0.0253072
-0.0241413
-0.0229813
-0.0218266
-0.0206768
-0.0195313
-0.0183897
-0.0172516
-0.0161166
-0.0149843
-0.0138542
-0.0127261
-0.0115994
-0.0104736
-0.00934845
-0.00822387
-0.00710054
-0.00598075
-0.00487022
-0.00378115
-0.00273302
-0.00172786
-0.000655674
0.00058831
-0.358795
-0.31179
-0.271112
-0.238652
-0.214064
-0.196061
-0.182886
-0.1726
-0.164053
-0.155595
-0.146287
-0.135705
-0.12336
-0.109831
-0.094721
-0.0806331
-0.0810613
-0.0825096
-0.0832858
-0.0834318
-0.0830942
-0.0823716
-0.0813337
-0.0800401
-0.0785462
-0.0769032
-0.0751573
-0.0733473
-0.0715049
-0.0696542
-0.0678128
-0.0659927
-0.0642017
-0.0624444
-0.0607232
-0.0590389
-0.0573912
-0.0557794
-0.0542023
-0.0526587
-0.0511469
-0.0496654
-0.0482126
-0.046787
-0.0453869
-0.0440107
-0.0426569
-0.041324
-0.0400104
-0.0387149
-0.037436
-0.0361725
-0.0349232
-0.0336869
-0.0324626
-0.0312492
-0.0300459
-0.0288518
-0.0276659
-0.0264878
-0.0253165
-0.0241515
-0.0229922
-0.021838
-0.0206885
-0.0195432
-0.0184016
-0.0172635
-0.0161283
-0.0149959
-0.0138657
-0.0127375
-0.0116107
-0.010485
-0.00935996
-0.0082354
-0.00711156
-0.00598987
-0.00487465
-0.00377714
-0.00272252
-0.00175439
-0.000921466
-0.000305421
-0.360181
-0.314894
-0.273998
-0.241238
-0.217445
-0.200564
-0.188584
-0.179306
-0.171538
-0.163491
-0.15407
-0.142982
-0.129869
-0.114544
-0.0946974
-0.0420666
-0.0787179
-0.0833199
-0.0843549
-0.0841514
-0.0834014
-0.0823369
-0.0810507
-0.0795937
-0.0780045
-0.0763174
-0.0745635
-0.07277
-0.070959
-0.0691482
-0.0673503
-0.0655745
-0.0638264
-0.0621095
-0.0604257
-0.0587755
-0.0571588
-0.055575
-0.0540231
-0.052502
-0.0510104
-0.0495471
-0.0481106
-0.0466996
-0.0453125
-0.043948
-0.0426046
-0.041281
-0.0399757
-0.0386875
-0.0374151
-0.0361573
-0.034913
-0.0336811
-0.0324605
-0.0312504
-0.0300499
-0.028858
-0.0276742
-0.0264976
-0.0253276
-0.0241636
-0.023005
-0.0218514
-0.0207022
-0.0195571
-0.0184155
-0.0172773
-0.016142
-0.0150093
-0.0138789
-0.0127504
-0.0116234
-0.0104976
-0.00937259
-0.008248
-0.00712394
-0.00600145
-0.0048842
-0.00378269
-0.00272318
-0.00176015
-0.00098312
-0.000513815
-0.360265
-0.315907
-0.277143
-0.245908
-0.222801
-0.20671
-0.195802
-0.187448
-0.180075
-0.172259
-0.162519
-0.150974
-0.137588
-0.122331
-0.105061
-0.0771645
-0.0870628
-0.0869318
-0.0861434
-0.0849709
-0.0836138
-0.0821516
-0.0806098
-0.078999
-0.0773291
-0.0756129
-0.0738652
-0.0721006
-0.0703323
-0.0685711
-0.0668255
-0.0651014
-0.0634028
-0.0617323
-0.0600911
-0.0584797
-0.0568981
-0.0553459
-0.0538224
-0.0523268
-0.0508581
-0.0494152
-0.0479971
-0.0466025
-0.0452301
-0.0438787
-0.042547
-0.0412337
-0.0399377
-0.0386577
-0.0373926
-0.0361411
-0.0349024
-0.0336753
-0.032459
-0.0312525
-0.030055
-0.0288658
-0.0276841
-0.0265092
-0.0253406
-0.0241777
-0.02302
-0.0218669
-0.020718
-0.019573
-0.0184315
-0.0172931
-0.0161575
-0.0150245
-0.0138937
-0.0127648
-0.0116375
-0.0105114
-0.00938609
-0.00826135
-0.00713732
-0.00601529
-0.00489934
-0.00380048
-0.00274449
-0.00178269
-0.000999397
-0.000519932
-0.360663
-0.317265
-0.279767
-0.250234
-0.228686
-0.213859
-0.203884
-0.196401
-0.189003
-0.181269
-0.171211
-0.159187
-0.145288
-0.129973
-0.114345
-0.100683
-0.0949144
-0.0908635
-0.0879811
-0.0856503
-0.0836189
-0.0817537
-0.0799747
-0.0782345
-0.0765078
-0.0747836
-0.0730598
-0.0713391
-0.0696258
-0.0679249
-0.0662404
-0.0645758
-0.0629335
-0.0613151
-0.0597216
-0.0581536
-0.056611
-0.055094
-0.053602
-0.0521347
-0.0506913
-0.0492711
-0.0478732
-0.0464967
-0.0451405
-0.0438036
-0.0424848
-0.041183
-0.0398971
-0.0386261
-0.0373689
-0.0361244
-0.0348918
-0.03367
-0.0324583
-0.0312557
-0.0300616
-0.0288751
-0.0276958
-0.0265228
-0.0253557
-0.0241939
-0.023037
-0.0218845
-0.020736
-0.0195911
-0.0184495
-0.0173108
-0.0161749
-0.0150414
-0.0139101
-0.0127807
-0.0116528
-0.0105261
-0.00940028
-0.00827513
-0.00715107
-0.00602996
-0.00491688
-0.00382328
-0.00277058
-0.00178876
-0.000911038
-0.000249883
-0.361476
-0.319444
-0.283404
-0.255606
-0.23554
-0.221871
-0.212574
-0.205717
-0.198197
-0.190286
-0.179699
-0.166877
-0.152232
-0.136564
-0.12131
-0.108249
-0.0999994
-0.0935731
-0.0891199
-0.0858399
-0.0832492
-0.0810604
-0.0791036
-0.0772795
-0.0755308
-0.0738255
-0.0721468
-0.0704867
-0.0688421
-0.0672124
-0.0655982
-0.0640009
-0.0624214
-0.0608608
-0.05932
-0.0577996
-0.0563
-0.0548214
-0.0533639
-0.0519275
-0.0505117
-0.0491162
-0.0477404
-0.0463836
-0.045045
-0.0437237
-0.0424189
-0.0411295
-0.0398546
-0.0385934
-0.0373447
-0.0361078
-0.0348817
-0.0336656
-0.0324587
-0.0312604
-0.0300698
-0.0288864
-0.0277094
-0.0265385
-0.0253729
-0.0242124
-0.0230563
-0.0219043
-0.0207561
-0.0196113
-0.0184695
-0.0173305
-0.0161941
-0.0150601
-0.0139281
-0.0127979
-0.0116692
-0.0105417
-0.00941505
-0.00828911
-0.00716454
-0.00604367
-0.00493196
-0.00383878
-0.00277091
-0.00169954
-0.000507559
0.000756331
-0.36232
-0.322337
-0.288262
-0.261869
-0.243013
-0.230393
-0.221672
-0.215196
-0.20762
-0.199108
-0.187769
-0.173829
-0.157911
-0.141185
-0.125259
-0.111643
-0.102123
-0.0944136
-0.0890851
-0.0852706
-0.0823676
-0.0800057
-0.0779665
-0.0761215
-0.0743944
-0.0727393
-0.071129
-0.0695472
-0.067985
-0.0664376
-0.0649028
-0.0633802
-0.0618699
-0.0603726
-0.0588892
-0.0574205
-0.0559674
-0.0545305
-0.0531103
-0.0517071
-0.0503211
-0.0489522
-0.0476002
-0.0462645
-0.0449448
-0.0436403
-0.0423504
-0.0410742
-0.0398111
-0.0385602
-0.0373206
-0.0360916
-0.0348725
-0.0336624
-0.0324608
-0.0312668
-0.03008
-0.0288997
-0.0277253
-0.0265564
-0.0253925
-0.0242331
-0.0230779
-0.0219265
-0.0207785
-0.0196336
-0.0184916
-0.0173522
-0.0162153
-0.0150805
-0.0139476
-0.0128165
-0.0116868
-0.0105582
-0.0094304
-0.00830323
-0.00717744
-0.00605532
-0.00494143
-0.00383994
-0.00273565
-0.00152016
0.000139119
0.00233501
-0.363355
-0.325559
-0.293726
-0.26927
-0.251749
-0.23972
-0.23114
-0.224556
-0.216608
-0.207108
-0.194654
-0.179436
-0.162201
-0.144043
-0.12671
-0.111935
-0.101278
-0.0930949
-0.0876528
-0.0838229
-0.0809217
-0.0785715
-0.0765606
-0.0747642
-0.0731045
-0.0715315
-0.0700125
-0.0685264
-0.06706
-0.0656056
-0.0641589
-0.0627181
-0.0612831
-0.0598542
-0.0584326
-0.0570195
-0.0556162
-0.0542239
-0.0528435
-0.0514759
-0.0501217
-0.0487811
-0.0474542
-0.046141
-0.0448413
-0.0435545
-0.0422804
-0.0410182
-0.0397674
-0.0385273
-0.0372973
-0.0360767
-0.0348648
-0.033661
-0.0324648
-0.0312754
-0.0300924
-0.0289153
-0.0277436
-0.0265768
-0.0254145
-0.0242564
-0.023102
-0.021951
-0.0208032
-0.0196582
-0.0185159
-0.017376
-0.0162383
-0.0151026
-0.0139688
-0.0128365
-0.0117056
-0.0105757
-0.00944641
-0.00831761
-0.00718989
-0.00606506
-0.00494602
-0.0038333
-0.00271155
-0.00151618
-0.000115779
0.00133804
-0.364732
-0.329521
-0.299806
-0.27685
-0.260245
-0.248662
-0.2404
-0.233466
-0.224936
-0.214377
-0.200731
-0.18408
-0.165242
-0.145458
-0.126308
-0.109382
-0.096925
-0.0893889
-0.0848234
-0.0815609
-0.0789735
-0.0768037
-0.074918
-0.07323
-0.0716776
-0.0702146
-0.0688075
-0.0674326
-0.0660743
-0.0647225
-0.0633718
-0.0620196
-0.0606652
-0.0593095
-0.0579539
-0.0565999
-0.0552495
-0.0539045
-0.0525663
-0.0512363
-0.0499155
-0.0486047
-0.0473044
-0.0460148
-0.0447359
-0.0434678
-0.0422101
-0.0409625
-0.0397245
-0.0384957
-0.0372756
-0.0360636
-0.0348592
-0.0336619
-0.0324711
-0.0312865
-0.0301075
-0.0289336
-0.0277645
-0.0265998
-0.0254392
-0.0242822
-0.0231285
-0.021978
-0.0208302
-0.0196851
-0.0185423
-0.0174018
-0.0162632
-0.0151265
-0.0139915
-0.012858
-0.0117257
-0.0105942
-0.00946322
-0.00833248
-0.00720235
-0.00607394
-0.00494837
-0.00382306
-0.00268435
-0.00150694
-0.000305755
0.000658491
-0.36621
-0.333695
-0.306147
-0.284778
-0.269155
-0.257859
-0.24963
-0.241839
-0.232413
-0.220759
-0.205944
-0.187908
-0.167499
-0.146012
-0.124695
-0.104279
-0.0870116
-0.0832116
-0.0809688
-0.0787921
-0.076711
-0.0748095
-0.0731004
-0.0715567
-0.0701382
-0.0688058
-0.0675267
-0.0662759
-0.0650359
-0.0637953
-0.0625476
-0.0612898
-0.0600213
-0.0587431
-0.0574571
-0.0561655
-0.0548709
-0.0535755
-0.0522816
-0.0509909
-0.0497051
-0.0484254
-0.0471527
-0.0458876
-0.0446305
-0.0433816
-0.0421408
-0.0409082
-0.0396834
-0.0384662
-0.0372562
-0.036053
-0.0348563
-0.0336655
-0.0324804
-0.0313005
-0.0301254
-0.0289548
-0.0277883
-0.0266257
-0.0254666
-0.0243107
-0.0231577
-0.0220075
-0.0208598
-0.0197143
-0.018571
-0.0174296
-0.0162901
-0.0151523
-0.014016
-0.012881
-0.0117471
-0.0106139
-0.009481
-0.0083481
-0.00721535
-0.00608342
-0.00495272
-0.00382083
-0.00268029
-0.00153162
-0.00044656
0.00031085
-0.367673
-0.33782
-0.312376
-0.29245
-0.277679
-0.266586
-0.258081
-0.249285
-0.23882
-0.226003
-0.209891
-0.190569
-0.168787
-0.145852
-0.122855
-0.0984489
-0.0327103
-0.0759574
-0.0772836
-0.0761083
-0.0744101
-0.0727235
-0.0711796
-0.069786
-0.0685131
-0.0673236
-0.0661838
-0.0650669
-0.0639535
-0.0628312
-0.0616927
-0.0605346
-0.0593565
-0.0581597
-0.0569467
-0.0557204
-0.054484
-0.0532404
-0.0519924
-0.0507427
-0.0494931
-0.0482456
-0.0470013
-0.0457614
-0.0445266
-0.0432974
-0.042074
-0.0408567
-0.0396453
-0.0384398
-0.03724
-0.0360457
-0.0348566
-0.0336724
-0.0324929
-0.0313177
-0.0301465
-0.0289792
-0.0278153
-0.0266546
-0.0254969
-0.024342
-0.0231897
-0.0220396
-0.0208918
-0.0197459
-0.0186019
-0.0174597
-0.016319
-0.0151799
-0.0140421
-0.0129056
-0.01177
-0.0106349
-0.00949987
-0.00836467
-0.00722926
-0.0060942
-0.00496026
-0.00382765
-0.00269739
-0.00158618
-0.000576248
0.000101022
-0.369076
-0.341791
-0.318432
-0.299884
-0.285716
-0.274677
-0.265495
-0.255677
-0.24404
-0.229787
-0.212182
-0.191441
-0.168582
-0.145247
-0.122664
-0.100997
-0.0744932
-0.0782204
-0.0761157
-0.0741218
-0.0722741
-0.070635
-0.0692047
-0.0679495
-0.0668242
-0.0657841
-0.0647911
-0.0638154
-0.0628356
-0.0618377
-0.0608136
-0.0597599
-0.0586762
-0.0575644
-0.0564274
-0.0552689
-0.0540928
-0.0529028
-0.0517024
-0.0504947
-0.0492824
-0.0480678
-0.0468526
-0.0456384
-0.0444262
-0.0432169
-0.0420111
-0.0408091
-0.0396112
-0.0384175
-0.0372279
-0.0360425
-0.034861
-0.0336833
-0.0325092
-0.0313386
-0.0301713
-0.029007
-0.0278455
-0.0266867
-0.0255304
-0.0243763
-0.0232244
-0.0220745
-0.0209264
-0.0197799
-0.0186351
-0.0174918
-0.01635
-0.0152094
-0.0140701
-0.0129318
-0.0117943
-0.0106572
-0.00951998
-0.00838235
-0.00724425
-0.00610629
-0.00496998
-0.00383778
-0.00271392
-0.00160907
-0.000569307
0.000200881
-0.370403
-0.345632
-0.324248
-0.306799
-0.292887
-0.281639
-0.271326
-0.260095
-0.247004
-0.231472
-0.213014
-0.191686
-0.168461
-0.144851
-0.122398
-0.102349
-0.0867135
-0.0797079
-0.0751961
-0.0722842
-0.0701678
-0.0685189
-0.0671812
-0.0660597
-0.0650841
-0.0641985
-0.0633585
-0.0625302
-0.0616897
-0.0608215
-0.0599168
-0.0589717
-0.0579862
-0.0569625
-0.0559042
-0.0548158
-0.0537019
-0.0525669
-0.0514152
-0.0502504
-0.049076
-0.0478948
-0.046709
-0.0455207
-0.0443313
-0.0431419
-0.0419536
-0.040767
-0.0395824
-0.0384003
-0.0372208
-0.036044
-0.0348699
-0.0336986
-0.0325298
-0.0313637
-0.0302
-0.0290386
-0.0278794
-0.0267222
-0.0255671
-0.0244137
-0.0232621
-0.0221121
-0.0209635
-0.0198164
-0.0186707
-0.0175262
-0.0163829
-0.0152408
-0.0140998
-0.0129596
-0.0118201
-0.0106809
-0.00954141
-0.00840125
-0.00726033
-0.00611933
-0.00498014
-0.00384523
-0.0027114
-0.00154719
-0.000287821
0.000883327
-0.371589
-0.348857
-0.328951
-0.312453
-0.298684
-0.286835
-0.275118
-0.262431
-0.248154
-0.231603
-0.212291
-0.190377
-0.166612
-0.142634
-0.120332
-0.10106
-0.0863498
-0.0784162
-0.0732252
-0.0700397
-0.0678828
-0.0663046
-0.0650892
-0.0641145
-0.063297
-0.0625729
-0.0618922
-0.0612176
-0.0605224
-0.0597893
-0.0590086
-0.0581763
-0.0572925
-0.0563598
-0.0553826
-0.0543661
-0.0533158
-0.052237
-0.0511347
-0.0500135
-0.0488773
-0.0477296
-0.0465732
-0.0454107
-0.0442438
-0.0430743
-0.0419032
-0.0407315
-0.0395601
-0.0383893
-0.0372195
-0.0360511
-0.0348842
-0.0337189
-0.0325552
-0.0313932
-0.0302329
-0.0290741
-0.027917
-0.0267613
-0.0256071
-0.0244543
-0.0233028
-0.0221525
-0.0210034
-0.0198554
-0.0187085
-0.0175627
-0.0164179
-0.0152741
-0.0141313
-0.0129892
-0.0118476
-0.0107061
-0.00956422
-0.00842141
-0.00727751
-0.00613314
-0.00499026
-0.00385047
-0.00270046
-0.00145749
8.20994e-05
0.00177851
-0.372535
-0.35151
-0.3325
-0.316188
-0.302186
-0.28921
-0.275886
-0.261585
-0.245791
-0.22811
-0.208275
-0.18634
-0.162714
-0.138595
-0.115934
-0.0961927
-0.0809849
-0.0740822
-0.0698273
-0.0671764
-0.0653227
-0.0639513
-0.062912
-0.0621079
-0.0614617
-0.0609087
-0.0603958
-0.0598823
-0.0593391
-0.058747
-0.0580955
-0.0573802
-0.0566014
-0.0557625
-0.0548685
-0.0539255
-0.0529398
-0.0519178
-0.0508653
-0.0497876
-0.0486896
-0.0475752
-0.046448
-0.0453108
-0.0441661
-0.0430158
-0.0418614
-0.0407043
-0.0395454
-0.0383855
-0.037225
-0.0360646
-0.0349044
-0.0337448
-0.0325858
-0.0314276
-0.0302704
-0.029114
-0.0279586
-0.0268042
-0.0256507
-0.0244982
-0.0233465
-0.0221958
-0.0210459
-0.0198969
-0.0187487
-0.0176014
-0.016455
-0.0153094
-0.0141645
-0.0130204
-0.0118766
-0.0107328
-0.00958846
-0.00844292
-0.00729593
-0.00614807
-0.00500178
-0.00386159
-0.00272574
-0.00154829
-0.000203124
0.00116577
-0.37315
-0.353143
-0.334804
-0.318277
-0.303086
-0.288282
-0.272949
-0.256947
-0.239981
-0.221655
-0.20153
-0.179574
-0.156368
-0.13259
-0.109447
-0.0876543
-0.069102
-0.0667918
-0.0653108
-0.0638738
-0.0625587
-0.0614778
-0.0606491
-0.0600344
-0.0595737
-0.0592041
-0.05887
-0.0585275
-0.0581446
-0.0577006
-0.057184
-0.0565902
-0.05592
-0.0551774
-0.0543682
-0.0534998
-0.0525794
-0.0516144
-0.0506115
-0.0495771
-0.0485167
-0.047435
-0.0463361
-0.0452236
-0.0441002
-0.0429684
-0.0418301
-0.0406868
-0.0395398
-0.03839
-0.0372383
-0.0360852
-0.0349312
-0.0337768
-0.0326221
-0.0314673
-0.0303127
-0.0291584
-0.0280045
-0.0268509
-0.0256979
-0.0245454
-0.0233934
-0.0222419
-0.0210911
-0.0199409
-0.0187912
-0.0176423
-0.016494
-0.0153464
-0.0141995
-0.0130532
-0.0119072
-0.010761
-0.00961409
-0.00846581
-0.00731572
-0.00616431
-0.00501422
-0.00387144
-0.00273795
-0.00156575
-0.000169489
0.00145281
-0.373349
-0.35345
-0.334587
-0.316893
-0.299914
-0.283136
-0.265953
-0.248554
-0.230817
-0.212366
-0.192701
-0.171462
-0.148963
-0.125855
-0.102533
-0.0725763
-0.0215749
-0.0582521
-0.0609812
-0.060688
-0.0597844
-0.0589362
-0.0583043
-0.0578856
-0.0576245
-0.0574543
-0.0573141
-0.0571556
-0.0569439
-0.0566567
-0.0562816
-0.0558143
-0.0552561
-0.054612
-0.0538891
-0.0530958
-0.0522407
-0.0513323
-0.0503784
-0.0493864
-0.0483625
-0.0473123
-0.0462407
-0.0451517
-0.0440485
-0.0429341
-0.0418108
-0.0406803
-0.0395443
-0.0384039
-0.0372601
-0.0361137
-0.0349653
-0.0338154
-0.0326644
-0.0315126
-0.0303603
-0.0292076
-0.0280547
-0.0269017
-0.0257488
-0.024596
-0.0234434
-0.022291
-0.021139
-0.0199873
-0.018836
-0.0176852
-0.016535
-0.0153853
-0.0142362
-0.0130875
-0.0119391
-0.0107905
-0.00964105
-0.00849003
-0.00733691
-0.00618198
-0.00502757
-0.00387804
-0.0027234
-0.00144703
0.000398361
0.00314526
-0.373209
-0.352811
-0.332667
-0.312725
-0.293206
-0.274001
-0.255085
-0.23676
-0.218978
-0.201209
-0.182749
-0.163155
-0.142337
-0.120974
-0.0999738
-0.0800686
-0.0630693
-0.0606511
-0.0594695
-0.0582239
-0.0571269
-0.0563331
-0.0558574
-0.0556409
-0.0556
-0.0556522
-0.0557269
-0.05577
-0.0557434
-0.0556233
-0.0553972
-0.0550616
-0.0546188
-0.054075
-0.0534391
-0.0527208
-0.0519303
-0.0510774
-0.0501712
-0.0492199
-0.048231
-0.0472108
-0.0461648
-0.0450977
-0.0440133
-0.0429149
-0.0418052
-0.0406864
-0.0395602
-0.0384282
-0.0372914
-0.0361508
-0.0350072
-0.0338612
-0.0327133
-0.0315639
-0.0304132
-0.0292617
-0.0281094
-0.0269566
-0.0258035
-0.0246501
-0.0234965
-0.022343
-0.0211895
-0.0200361
-0.018883
-0.0177301
-0.0165777
-0.0154258
-0.0142744
-0.0131233
-0.0119724
-0.0108213
-0.0096692
-0.00851548
-0.00735946
-0.00620125
-0.00504282
-0.00388761
-0.00272543
-0.00146243
0.000190188
0.00222345
-0.37278
-0.351192
-0.329013
-0.305766
-0.283297
-0.261498
-0.241065
-0.222387
-0.205317
-0.188923
-0.172086
-0.154333
-0.135663
-0.116655
-0.0982909
-0.0817935
-0.0691377
-0.0620787
-0.0581741
-0.0557902
-0.0543391
-0.0535513
-0.0532434
-0.0532633
-0.0534812
-0.0537908
-0.0541094
-0.0543767
-0.054552
-0.0546111
-0.0545424
-0.0543435
-0.0540187
-0.0535764
-0.0530273
-0.0523831
-0.0516556
-0.0508562
-0.0499954
-0.0490827
-0.0481265
-0.047134
-0.0461115
-0.0450643
-0.0439967
-0.0429126
-0.041815
-0.0407064
-0.0395887
-0.0384638
-0.0373329
-0.0361972
-0.0350575
-0.0339146
-0.032769
-0.0316213
-0.0304718
-0.0293209
-0.0281688
-0.0270157
-0.0258619
-0.0247076
-0.0235528
-0.0223978
-0.0212425
-0.0200872
-0.018932
-0.017777
-0.0166223
-0.0154679
-0.0143139
-0.0131603
-0.0120068
-0.010853
-0.00969833
-0.00854194
-0.00738321
-0.00622215
-0.00506025
-0.00389886
-0.00272104
-0.00142326
0.000254705
0.00218728
-0.37209
-0.348783
-0.324023
-0.296745
-0.270807
-0.246438
-0.225018
-0.206733
-0.190925
-0.176341
-0.161445
-0.145678
-0.129144
-0.112273
-0.0957933
-0.0808829
-0.069388
-0.0609164
-0.055708
-0.0526775
-0.0510769
-0.0504196
-0.050376
-0.050711
-0.0512511
-0.0518679
-0.052468
-0.0529871
-0.0533838
-0.053635
-0.0537315
-0.0536737
-0.0534688
-0.0531278
-0.0526641
-0.0520917
-0.0514245
-0.0506756
-0.0498571
-0.0489798
-0.0480533
-0.0470856
-0.0460839
-0.0450541
-0.0440011
-0.0429292
-0.0418417
-0.0407415
-0.0396309
-0.0385117
-0.0373855
-0.0362535
-0.0351167
-0.0339759
-0.0328319
-0.0316852
-0.0305362
-0.0293853
-0.0282328
-0.027079
-0.0259242
-0.0247686
-0.0236122
-0.0224553
-0.0212981
-0.0201407
-0.0189831
-0.0178256
-0.0166684
-0.0155114
-0.0143547
-0.0131984
-0.0120421
-0.0108856
-0.00972813
-0.00856905
-0.00740777
-0.00624439
-0.00508045
-0.00391784
-0.00274733
-0.00151358
-0.00011438
0.00122399
-0.371171
-0.345693
-0.317965
-0.286677
-0.257567
-0.231354
-0.209191
-0.191242
-0.176714
-0.164005
-0.15106
-0.13735
-0.122866
-0.107785
-0.0924417
-0.0778604
-0.0661821
-0.0571
-0.0514923
-0.0484292
-0.0470672
-0.0467925
-0.0471848
-0.0479562
-0.048906
-0.0498929
-0.0508194
-0.0516211
-0.0522594
-0.0527152
-0.0529836
-0.0530695
-0.0529841
-0.0527424
-0.0523609
-0.0518564
-0.0512453
-0.0505427
-0.0497623
-0.0489164
-0.0480157
-0.0470693
-0.0460851
-0.0450697
-0.0440286
-0.0429664
-0.0418869
-0.0407931
-0.0396877
-0.0385726
-0.0374496
-0.0363201
-0.0351851
-0.0340455
-0.0329022
-0.0317556
-0.0306064
-0.0294549
-0.0283016
-0.0271466
-0.0259903
-0.0248329
-0.0236746
-0.0225156
-0.0213561
-0.0201962
-0.0190361
-0.017876
-0.0167159
-0.0155561
-0.0143966
-0.0132373
-0.0120781
-0.0109186
-0.00975823
-0.00859632
-0.00743244
-0.00626685
-0.00510098
-0.0039359
-0.00276364
-0.00155342
-0.000295386
0.000732519
-0.370005
-0.341929
-0.311003
-0.276102
-0.244075
-0.216613
-0.194459
-0.177085
-0.163507
-0.152336
-0.141298
-0.129617
-0.116922
-0.103227
-0.0884208
-0.0731844
-0.0599485
-0.0504591
-0.0451994
-0.0427884
-0.0421584
-0.0425977
-0.0436465
-0.0450036
-0.0464657
-0.0478937
-0.0491944
-0.0503097
-0.0512083
-0.0518784
-0.0523222
-0.0525513
-0.0525825
-0.0524354
-0.0521305
-0.0516881
-0.0511271
-0.0504649
-0.0497172
-0.0488976
-0.048018
-0.0470886
-0.046118
-0.0451135
-0.0440811
-0.0430258
-0.0419516
-0.0408621
-0.0397599
-0.0386472
-0.0375259
-0.0363975
-0.035263
-0.0341236
-0.03298
-0.0318328
-0.0306826
-0.0295299
-0.028375
-0.0272183
-0.02606
-0.0249005
-0.0237399
-0.0225784
-0.0214163
-0.0202537
-0.0190908
-0.0179277
-0.0167647
-0.0156019
-0.0144393
-0.0132769
-0.0121146
-0.0109518
-0.00978827
-0.00862326
-0.00745652
-0.00628851
-0.00512072
-0.00395337
-0.00277641
-0.00156165
-0.00032429
0.000633653
-0.368662
-0.337791
-0.304045
-0.266641
-0.232252
-0.203874
-0.182202
-0.166049
-0.153535
-0.143179
-0.13326
-0.122973
-0.111612
-0.0989162
-0.0842178
-0.0672366
-0.0496825
-0.0403341
-0.0365514
-0.0356663
-0.0363452
-0.0378648
-0.0398047
-0.0419024
-0.0439817
-0.0459211
-0.0476413
-0.0490972
-0.0502696
-0.0511585
-0.0517763
-0.0521434
-0.0522838
-0.0522231
-0.0519865
-0.0515978
-0.051079
-0.05045
-0.049728
-0.0489285
-0.0480644
-0.0471469
-0.0461853
-0.0451877
-0.0441603
-0.0431087
-0.0420372
-0.0409494
-0.0398482
-0.0387361
-0.0376148
-0.0364859
-0.0353507
-0.0342103
-0.0330654
-0.0319167
-0.0307648
-0.0296101
-0.0284531
-0.0272941
-0.0261334
-0.0249713
-0.023808
-0.0226437
-0.0214786
-0.020313
-0.019147
-0.0179808
-0.0168146
-0.0156486
-0.0144827
-0.0133169
-0.0121511
-0.010985
-0.00981793
-0.00864947
-0.00747944
-0.00630861
-0.00513932
-0.00397476
-0.00281484
-0.00165664
-0.000547972
0.000247776
-0.367208
-0.333502
-0.297267
-0.258355
-0.223111
-0.195052
-0.174321
-0.159375
-0.148058
-0.138528
-0.129333
-0.11966
-0.108844
-0.0962372
-0.0809893
-0.0611707
-0.0231254
-0.0255098
-0.0254724
-0.0272312
-0.029812
-0.0327465
-0.0357793
-0.0387513
-0.0415394
-0.0440509
-0.0462272
-0.0480415
-0.0494926
-0.0505964
-0.0513793
-0.0518729
-0.0521101
-0.0521234
-0.051943
-0.051597
-0.0511103
-0.0505051
-0.0498007
-0.0490137
-0.0481585
-0.047247
-0.0462894
-0.045294
-0.0442678
-0.0432164
-0.0421444
-0.0410557
-0.0399532
-0.0388395
-0.0377164
-0.0365856
-0.0354483
-0.0343056
-0.0331584
-0.0320072
-0.0308528
-0.0296955
-0.0285357
-0.0273738
-0.0262102
-0.025045
-0.0238786
-0.0227112
-0.0215429
-0.0203739
-0.0192046
-0.018035
-0.0168654
-0.0156958
-0.0145264
-0.0133571
-0.0121877
-0.0110178
-0.00984698
-0.00867469
-0.00750081
-0.00632615
-0.00515349
-0.00398894
-0.00284447
-0.00174733
-0.000778208
-0.000146941
-0.365751
-0.329231
-0.29081
-0.251444
-0.21669
-0.189904
-0.170777
-0.157374
-0.147482
-0.139158
-0.131007
-0.122219
-0.111933
-0.0992874
-0.0836991
-0.0638668
-0.0360261
-0.00284312
-0.0128488
-0.0181016
-0.0229752
-0.0275197
-0.0317573
-0.0356898
-0.0392538
-0.0423816
-0.0450359
-0.0472131
-0.048935
-0.0502387
-0.0511683
-0.051769
-0.0520842
-0.052154
-0.0520142
-0.0516967
-0.0512295
-0.0506371
-0.0499404
-0.0491575
-0.0483036
-0.0473916
-0.0464321
-0.045434
-0.0444046
-0.0433496
-0.0422739
-0.0411814
-0.0400751
-0.0389576
-0.0378309
-0.0366965
-0.0355557
-0.0344096
-0.0332589
-0.0321043
-0.0309465
-0.0297858
-0.0286226
-0.0274573
-0.0262903
-0.0251216
-0.0239517
-0.0227807
-0.0216088
-0.0204363
-0.0192633
-0.0180901
-0.0169168
-0.0157435
-0.0145704
-0.0133973
-0.012224
-0.0110502
-0.00987527
-0.00869882
-0.00752051
-0.0063407
-0.00516115
-0.00398738
-0.00283562
-0.00175012
-0.000834805
-0.000277612
-0.364393
-0.325435
-0.285525
-0.246615
-0.213141
-0.187922
-0.1707
-0.159353
-0.151433
-0.144905
-0.138323
-0.130954
-0.121588
-0.10957
-0.0948121
-0.0766908
-0.0545347
-0.0268003
-0.00164671
-0.00932249
-0.0164337
-0.0225416
-0.0279515
-0.0328746
-0.0372577
-0.0410278
-0.044164
-0.0466908
-0.0486599
-0.0501348
-0.0511813
-0.0518609
-0.0522285
-0.0523321
-0.052213
-0.0519069
-0.0514444
-0.0508518
-0.0501517
-0.0493632
-0.0485023
-0.0475825
-0.046615
-0.0456087
-0.0445713
-0.0435087
-0.0424258
-0.0413265
-0.0402139
-0.0390905
-0.0379582
-0.0368185
-0.0356727
-0.0345219
-0.0333667
-0.0322078
-0.0310457
-0.0298808
-0.0287136
-0.0275443
-0.0263733
-0.0252007
-0.0240269
-0.0228519
-0.0216762
-0.0204998
-0.0193229
-0.0181458
-0.0169686
-0.0157914
-0.0146143
-0.0134372
-0.0122598
-0.0110818
-0.00990271
-0.00872188
-0.00753882
-0.00635307
-0.00516434
-0.00397467
-0.00279762
-0.00168217
-0.000747842
-0.000190997
-0.363374
-0.32279
-0.282259
-0.244009
-0.211914
-0.188514
-0.173427
-0.164353
-0.158627
-0.15424
-0.149672
-0.144275
-0.136663
-0.126311
-0.113282
-0.097163
-0.0774359
-0.0546875
-0.0283645
-0.000428872
-0.0108247
-0.0181639
-0.0245167
-0.0304436
-0.0356892
-0.0401131
-0.0437138
-0.0465558
-0.0487299
-0.0503324
-0.0514542
-0.0521753
-0.0525627
-0.0526724
-0.0525504
-0.0522357
-0.0517609
-0.0511538
-0.0504379
-0.0496331
-0.0487562
-0.0478208
-0.0468385
-0.0458185
-0.0447682
-0.0436938
-0.0426002
-0.041491
-0.0403694
-0.0392377
-0.0380978
-0.0369512
-0.0357991
-0.0346422
-0.0334814
-0.0323172
-0.03115
-0.0299803
-0.0288084
-0.0276346
-0.0264591
-0.0252821
-0.0241039
-0.0229247
-0.0217447
-0.0205641
-0.0193831
-0.0182018
-0.0170205
-0.0158392
-0.0146579
-0.0134766
-0.012295
-0.0111127
-0.00992924
-0.00874401
-0.00755633
-0.00636512
-0.00516843
-0.00396505
-0.0027647
-0.00161625
-0.000648314
-7.18896e-05
-0.362861
-0.321509
-0.28074
-0.243078
-0.212443
-0.190991
-0.178152
-0.171315
-0.167754
-0.165551
-0.163275
-0.15996
-0.154667
-0.146461
-0.135622