/*--------------------------------*- C++ -*----------------------------------*\
  =========                 |
  \\      /  F ield         | OpenFOAM: The Open Source CFD Toolbox
   \\    /   O peration     | Website:  https://openfoam.org
    \\  /    A nd           | Version:  6
     \\/     M anipulation  |
\*---------------------------------------------------------------------------*/
FoamFile
{
    version     2.0;
    format      ascii;
    class       surfaceScalarField;
    location    "420";
    object      phi;
}
// * * * * * * * * * * * * * * * * * * * * * * * * * * * * * * * * * * * * * //

dimensions      [0 3 -1 0 0 0 0];

internalField   nonuniform List<scalar> 
11773
(
-2.77048e-08
2.77048e-08
-4.35852e-08
1.58839e-08
-4.56055e-08
2.02316e-09
-5.0479e-08
4.87614e-09
-5.21377e-08
1.66112e-09
-5.33603e-08
1.22469e-09
-5.31097e-08
-2.48761e-10
-5.25401e-08
-5.6793e-10
-4.05234e-08
-1.20154e-08
-4.21165e-08
1.5944e-09
-3.74547e-08
-4.66053e-09
-1.83545e-08
-1.90988e-08
-1.63902e-08
-1.96294e-09
-8.04134e-09
-8.34736e-09
-7.08701e-13
-8.03913e-09
1.28688e-13
7.76798e-14
1.02866e-13
2.58221e-14
8.75647e-14
1.53015e-14
7.72872e-14
1.02747e-14
6.97797e-14
7.5023e-15
6.39438e-14
5.82892e-15
5.91882e-14
4.74743e-15
5.51732e-14
4.00612e-15
5.16931e-14
3.47092e-15
4.86169e-14
3.06684e-15
4.58573e-14
2.75016e-15
4.33535e-14
2.49433e-15
4.10615e-14
2.28252e-15
3.89485e-14
2.10366e-15
3.69891e-14
1.95017e-15
3.51634e-14
1.8167e-15
3.34553e-14
1.69933e-15
3.18518e-14
1.59513e-15
3.03419e-14
1.50186e-15
2.89165e-14
1.41778e-15
2.75677e-14
1.34151e-15
2.6289e-14
1.27193e-15
2.50745e-14
1.20815e-15
2.39192e-14
1.14941e-15
2.28187e-14
1.0951e-15
2.1769e-14
1.04471e-15
2.07667e-14
9.97787e-16
1.98085e-14
9.53974e-16
1.88918e-14
9.12946e-16
1.8014e-14
8.74431e-16
1.71728e-14
8.3819e-16
1.6366e-14
8.0402e-16
1.55919e-14
7.7174e-16
1.48485e-14
7.41195e-16
1.41344e-14
7.12247e-16
1.34479e-14
6.84776e-16
1.27877e-14
6.58676e-16
1.21526e-14
6.33854e-16
1.15412e-14
6.10228e-16
1.09525e-14
5.87726e-16
1.03853e-14
5.66282e-16
9.83872e-15
5.4584e-16
9.31169e-15
5.2635e-16
8.80332e-15
5.07768e-16
8.31275e-15
4.90054e-16
7.83911e-15
4.73173e-16
7.3816e-15
4.57095e-16
6.93944e-15
4.41794e-16
6.51188e-15
4.27245e-16
6.09816e-15
4.13427e-16
5.69758e-15
4.00323e-16
5.30943e-15
3.87917e-16
4.93303e-15
3.76194e-16
4.5677e-15
3.65143e-16
4.21279e-15
3.54752e-16
3.86764e-15
3.45009e-16
3.53161e-15
3.35906e-16
3.20407e-15
3.2743e-16
2.88441e-15
3.1957e-16
2.57202e-15
3.12311e-16
2.26632e-15
3.05639e-16
1.96673e-15
2.99543e-16
1.67269e-15
2.94011e-16
1.38364e-15
2.89024e-16
1.09911e-15
2.84519e-16
8.18755e-16
2.80346e-16
5.42459e-16
2.76296e-16
2.70067e-16
2.72397e-16
2.70072e-16
-2.08018e-08
4.85101e-08
-3.61029e-08
3.11904e-08
-4.40679e-08
9.99263e-09
-5.1785e-08
1.25974e-08
-5.64469e-08
6.32676e-09
-6.00455e-08
4.82647e-09
-6.07534e-08
4.61728e-10
-5.26277e-08
-8.691e-09
-4.5014e-08
-1.96267e-08
-3.99236e-08
-3.49367e-09
-2.39776e-08
-2.06042e-08
-4.52652e-09
-3.85474e-08
-9.69302e-09
3.20618e-09
-3.4003e-09
-1.46374e-08
-5.91351e-13
-1.14366e-08
1.04144e-13
8.41587e-14
9.35602e-14
3.6404e-14
8.31061e-14
2.57509e-14
7.48238e-14
1.85481e-14
6.82927e-14
1.40213e-14
6.29853e-14
1.11221e-14
5.85352e-14
9.18195e-15
5.47066e-14
7.8186e-15
5.13456e-14
6.8153e-15
4.83491e-14
6.0466e-15
4.56449e-14
5.43747e-15
4.31811e-14
4.94134e-15
4.09189e-14
4.52813e-15
3.88285e-14
4.17765e-15
3.68868e-14
3.87592e-15
3.50752e-14
3.61288e-15
3.33785e-14
3.38113e-15
3.17842e-14
3.1751e-15
3.02821e-14
2.99048e-15
2.88632e-14
2.82391e-15
2.752e-14
2.67269e-15
2.6246e-14
2.53468e-15
2.50356e-14
2.4081e-15
2.38839e-14
2.29149e-15
2.27865e-14
2.18365e-15
2.17396e-14
2.08354e-15
2.07397e-14
1.99032e-15
1.97838e-14
1.90324e-15
1.88691e-14
1.82167e-15
1.7993e-14
1.74507e-15
1.71534e-14
1.67298e-15
1.63481e-14
1.60499e-15
1.55753e-14
1.54074e-15
1.48332e-14
1.47992e-15
1.41202e-14
1.42227e-15
1.34348e-14
1.36754e-15
1.27757e-14
1.31552e-15
1.21414e-14
1.26605e-15
1.1531e-14
1.21894e-15
1.09431e-14
1.17406e-15
1.03767e-14
1.13128e-15
9.83083e-15
1.09049e-15
9.30453e-15
1.0516e-15
8.79686e-15
1.0145e-15
8.30695e-15
9.79138e-16
7.83396e-15
9.45431e-16
7.37709e-15
9.13323e-16
6.93555e-15
8.82761e-16
6.50858e-15
8.53699e-16
6.09546e-15
8.26096e-16
5.69545e-15
7.99916e-16
5.30788e-15
7.75129e-16
4.93204e-15
7.51707e-16
4.56728e-15
7.29625e-16
4.21292e-15
7.08861e-16
3.86831e-15
6.89395e-16
3.53282e-15
6.71206e-16
3.20582e-15
6.54274e-16
2.88669e-15
6.38574e-16
2.57481e-15
6.24083e-16
2.26959e-15
6.10773e-16
1.97046e-15
5.9862e-16
1.67683e-15
5.87597e-16
1.38817e-15
5.77668e-16
1.10391e-15
5.6876e-16
8.2354e-16
5.6072e-16
5.46499e-16
5.53343e-16
2.72231e-16
5.46679e-16
5.42313e-16
-1.75225e-08
6.60355e-08
-3.3226e-08
4.68983e-08
-5.02595e-08
2.70297e-08
-6.33765e-08
2.57176e-08
-7.26784e-08
1.56315e-08
-7.61237e-08
8.27417e-09
-7.21864e-08
-3.47387e-09
-6.34963e-08
-1.73792e-08
-5.79943e-08
-2.5127e-08
-4.27202e-08
-1.8766e-08
-1.91548e-08
-4.41678e-08
-1.54331e-10
-5.75458e-08
-5.86055e-09
8.91462e-09
1.2327e-10
-2.0619e-08
-5.61233e-13
-1.13109e-08
9.67877e-14
7.00884e-14
8.41494e-14
4.90404e-14
7.67428e-14
3.31532e-14
7.08233e-14
2.446e-14
6.57313e-14
1.91034e-14
6.1274e-14
1.55675e-14
5.73368e-14
1.31061e-14
5.38292e-14
1.13124e-14
5.0678e-14
9.9523e-15
4.78244e-14
8.88581e-15
4.52215e-14
8.02593e-15
4.28318e-14
7.31654e-15
4.06254e-14
6.7201e-15
3.85782e-14
6.21064e-15
3.66706e-14
5.76968e-15
3.48864e-14
5.38367e-15
3.3212e-14
5.04249e-15
3.16364e-14
4.73838e-15
3.01497e-14
4.46531e-15
2.8744e-14
4.21851e-15
2.7412e-14
3.99416e-15
2.61478e-14
3.78915e-15
2.49458e-14
3.60094e-15
2.38015e-14
3.42741e-15
2.27106e-14
3.2668e-15
2.16695e-14
3.11763e-15
2.06747e-14
2.97864e-15
1.97234e-14
2.84873e-15
1.88128e-14
2.727e-15
1.79405e-14
2.61265e-15
1.71043e-14
2.50498e-15
1.63021e-14
2.40339e-15
1.55322e-14
2.30737e-15
1.47927e-14
2.21645e-15
1.40821e-14
2.13023e-15
1.3399e-14
2.04838e-15
1.27419e-14
1.97056e-15
1.21097e-14
1.89653e-15
1.1501e-14
1.82602e-15
1.09149e-14
1.75884e-15
1.03502e-14
1.69479e-15
9.80589e-15
1.63372e-15
9.2811e-15
1.57547e-15
8.77488e-15
1.51991e-15
8.28637e-15
1.46693e-15
7.81473e-15
1.41643e-15
7.35917e-15
1.36833e-15
6.9189e-15
1.32253e-15
6.49317e-15
1.27898e-15
6.08126e-15
1.23761e-15
5.68245e-15
1.19837e-15
5.29605e-15
1.16122e-15
4.92137e-15
1.12611e-15
4.55774e-15
1.09301e-15
4.2045e-15
1.06188e-15
3.861e-15
1.0327e-15
3.52661e-15
1.00544e-15
3.20069e-15
9.80064e-16
2.88261e-15
9.56542e-16
2.57176e-15
9.34843e-16
2.26754e-15
9.14929e-16
1.96935e-15
8.96764e-16
1.67661e-15
8.80313e-16
1.38872e-15
8.65542e-16
1.10507e-15
8.52408e-16
8.24965e-16
8.40838e-16
5.47713e-16
8.30609e-16
2.73331e-16
8.21082e-16
8.15661e-16
-2.35625e-08
8.96005e-08
-4.35961e-08
6.69357e-08
-6.14225e-08
4.48589e-08
-7.6144e-08
4.04415e-08
-8.6866e-08
2.63557e-08
-8.87179e-08
1.01282e-08
-8.62781e-08
-5.91258e-09
-8.52409e-08
-1.8415e-08
-7.11476e-08
-3.9219e-08
-5.85783e-08
-3.13336e-08
-3.62393e-08
-6.65051e-08
-1.2554e-08
-8.12294e-08
-7.23627e-09
3.59912e-09
4.40301e-09
-3.22561e-08
-6.24512e-13
-6.90533e-09
6.42068e-14
4.88524e-14
7.01615e-14
4.30841e-14
6.90817e-14
3.42291e-14
6.61003e-14
2.74343e-14
6.26145e-14
2.25799e-14
5.91073e-14
1.90635e-14
5.57617e-14
1.64394e-14
5.26393e-14
1.44217e-14
4.97494e-14
1.28286e-14
4.70798e-14
1.15415e-14
4.46108e-14
1.04808e-14
4.23215e-14
9.59174e-15
4.01922e-14
8.83531e-15
3.82055e-14
8.18344e-15
3.63463e-14
7.61537e-15
3.46013e-14
7.11547e-15
3.29593e-14
6.67175e-15
3.14106e-14
6.27492e-15
2.99468e-14
5.9176e-15
2.85604e-14
5.59394e-15
2.72451e-14
5.29916e-15
2.59953e-14
5.02937e-15
2.4806e-14
4.78135e-15
2.36727e-14
4.55243e-15
2.25916e-14
4.34034e-15
2.15591e-14
4.14319e-15
2.05721e-14
3.95934e-15
1.96277e-14
3.7874e-15
1.87234e-14
3.62618e-15
1.78567e-14
3.47465e-15
1.70257e-14
3.3319e-15
1.62282e-14
3.19716e-15
1.54625e-14
3.06974e-15
1.4727e-14
2.94906e-15
1.40201e-14
2.83458e-15
1.33404e-14
2.72584e-15
1.26866e-14
2.62245e-15
1.20573e-14
2.52405e-15
1.14515e-14
2.43033e-15
1.0868e-14
2.34099e-15
1.03058e-14
2.25581e-15
9.76393e-15
2.17457e-15
9.24144e-15
2.09707e-15
8.73742e-15
2.02314e-15
8.25103e-15
1.95263e-15
7.78144e-15
1.88541e-15
7.32786e-15
1.82136e-15
6.88952e-15
1.76039e-15
6.46567e-15
1.7024e-15
6.0556e-15
1.6473e-15
5.65859e-15
1.59505e-15
5.27395e-15
1.54556e-15
4.90101e-15
1.49879e-15
4.53909e-15
1.45469e-15
4.18755e-15
1.41323e-15
3.84572e-15
1.37436e-15
3.51298e-15
1.33804e-15
3.18868e-15
1.30424e-15
2.8722e-15
1.27293e-15
2.56291e-15
1.24405e-15
2.26021e-15
1.21758e-15
1.96348e-15
1.19346e-15
1.67211e-15
1.17167e-15
1.38549e-15
1.15216e-15
1.10294e-15
1.13497e-15
8.23684e-16
1.12012e-15
5.46979e-16
1.10734e-15
2.73706e-16
1.09439e-15
1.08939e-15
7.24873e-10
8.88777e-08
-2.32078e-08
9.08716e-08
-6.46759e-08
8.63291e-08
-8.70117e-08
6.27786e-08
-1.04391e-07
4.3736e-08
-1.1189e-07
1.76292e-08
-1.10331e-07
-7.47082e-09
-1.097e-07
-1.90448e-08
-9.68256e-08
-5.20917e-08
-7.25759e-08
-5.55815e-08
-5.37142e-08
-8.5365e-08
-3.28729e-08
-1.02069e-07
-2.28292e-08
-6.44248e-09
-5.96564e-09
-4.91174e-08
-6.37624e-13
-1.28685e-08
5.91567e-14
4.90053e-14
6.23752e-14
3.98638e-14
6.31003e-14
3.35005e-14
6.18253e-14
2.87026e-14
5.95191e-14
2.48774e-14
5.68003e-14
2.17719e-14
5.39918e-14
1.92362e-14
5.12459e-14
1.71548e-14
4.86277e-14
1.54335e-14
4.61592e-14
1.39964e-14
4.38424e-14
1.27838e-14
4.16706e-14
1.17496e-14
3.96338e-14
1.08582e-14
3.7721e-14
1.00825e-14
3.59217e-14
9.40125e-15
3.4226e-14
8.7981e-15
3.2625e-14
8.26013e-15
3.11107e-14
7.77707e-15
2.96761e-14
7.34071e-15
2.83148e-14
6.94436e-15
2.70212e-14
6.58257e-15
2.57902e-14
6.25082e-15
2.46173e-14
5.94534e-15
2.34985e-14
5.66299e-15
2.24303e-14
5.40108e-15
2.14092e-14
5.15735e-15
2.04324e-14
4.92985e-15
1.94972e-14
4.71692e-15
1.86012e-14
4.51711e-15
1.77421e-14
4.32917e-15
1.69178e-14
4.15201e-15
1.61266e-14
3.9847e-15
1.53667e-14
3.8264e-15
1.46365e-14
3.67639e-15
1.39345e-14
3.53403e-15
1.32594e-14
3.39877e-15
1.26098e-14
3.2701e-15
1.19845e-14
3.1476e-15
1.13825e-14
3.03089e-15
1.08025e-14
2.91961e-15
1.02437e-14
2.81348e-15
9.70506e-15
2.71222e-15
9.18563e-15
2.61561e-15
8.68456e-15
2.52343e-15
8.201e-15
2.4355e-15
7.73414e-15
2.35166e-15
7.28321e-15
2.27176e-15
6.84745e-15
2.19569e-15
6.42611e-15
2.12332e-15
6.01849e-15
2.05456e-15
5.62389e-15
1.98932e-15
5.24161e-15
1.92755e-15
4.87099e-15
1.86916e-15
4.51136e-15
1.8141e-15
4.16208e-15
1.76232e-15
3.82249e-15
1.71379e-15
3.49195e-15
1.66845e-15
3.16982e-15
1.62626e-15
2.85548e-15
1.58718e-15
2.5483e-15
1.55117e-15
2.24765e-15
1.51819e-15
1.95291e-15
1.48819e-15
1.66346e-15
1.46112e-15
1.37868e-15
1.43696e-15
1.09792e-15
1.41576e-15
8.20488e-16
1.39759e-15
5.45593e-16
1.38229e-15
2.72378e-16
1.36766e-15
1.36182e-15
-5.97032e-08
1.48582e-07
-8.07364e-08
1.11906e-07
-8.25395e-08
8.81338e-08
-1.00916e-07
8.11559e-08
-1.09891e-07
5.27106e-08
-1.20411e-07
2.81506e-08
-1.21792e-07
-6.0903e-09
-1.23426e-07
-1.741e-08
-1.14114e-07
-6.14032e-08
-8.62352e-08
-8.34586e-08
-8.44373e-08
-8.71608e-08
-7.46707e-08
-1.11834e-07
-3.39449e-08
-4.71664e-08
-1.89498e-08
-6.41103e-08
-6.21064e-13
-3.1816e-08
5.1149e-14
4.87769e-14
5.67853e-14
3.42256e-14
5.88793e-14
3.1404e-14
5.84595e-14
2.91165e-14
5.67885e-14
2.65401e-14
5.45738e-14
2.39767e-14
5.21678e-14
2.1631e-14
4.97412e-14
1.95692e-14
4.7375e-14
1.77869e-14
4.51054e-14
1.62525e-14
4.29466e-14
1.4929e-14
4.09012e-14
1.37812e-14
3.89664e-14
1.27792e-14
3.71369e-14
1.18984e-14
3.54062e-14
1.11186e-14
3.37676e-14
1.04237e-14
3.22146e-14
9.80053e-15
3.07412e-14
9.23853e-15
2.93414e-14
8.729e-15
2.80102e-14
8.26478e-15
2.67426e-14
7.83994e-15
2.55344e-14
7.44952e-15
2.43816e-14
7.08935e-15
2.32805e-14
6.7559e-15
2.22279e-14
6.44615e-15
2.12209e-14
6.15754e-15
2.02566e-14
5.88785e-15
1.93328e-14
5.63516e-15
1.84469e-14
5.39784e-15
1.75971e-14
5.17443e-15
1.67813e-14
4.96369e-15
1.59979e-14
4.76452e-15
1.52451e-14
4.57596e-15
1.45215e-14
4.39717e-15
1.38256e-14
4.22742e-15
1.31561e-14
4.06604e-15
1.25118e-14
3.91247e-15
1.18915e-14
3.7662e-15
1.12941e-14
3.62678e-15
1.07186e-14
3.49382e-15
1.0164e-14
3.36696e-15
9.62938e-15
3.24589e-15
9.11378e-15
3.13035e-15
8.61638e-15
3.02007e-15
8.13635e-15
2.91486e-15
7.67292e-15
2.81452e-15
7.22529e-15
2.71887e-15
6.79274e-15
2.62778e-15
6.37454e-15
2.54111e-15
5.96999e-15
2.45876e-15
5.57838e-15
2.38061e-15
5.19906e-15
2.3066e-15
4.83134e-15
2.23663e-15
4.47458e-15
2.17066e-15
4.12812e-15
2.10861e-15
3.79132e-15
2.05044e-15
3.46354e-15
1.99611e-15
3.14415e-15
1.94556e-15
2.8325e-15
1.89876e-15
2.52797e-15
1.85566e-15
2.22992e-15
1.81622e-15
1.93773e-15
1.78038e-15
1.65076e-15
1.74811e-15
1.36839e-15
1.71937e-15
1.09002e-15
1.69418e-15
8.15067e-16
1.67261e-15
5.42696e-16
1.65472e-15
2.70299e-16
1.64012e-15
1.63217e-15
-3.73815e-08
1.85964e-07
-7.56614e-08
1.50185e-07
-8.72043e-08
9.96774e-08
-9.37968e-08
8.7749e-08
-1.1337e-07
7.22832e-08
-1.19823e-07
3.46045e-08
-1.24661e-07
-1.25093e-09
-1.3089e-07
-1.11796e-08
-1.19189e-07
-7.3103e-08
-1.02171e-07
-1.00475e-07
-7.50358e-08
-1.14294e-07
-5.68264e-08
-1.30041e-07
-1.44076e-08
-8.95831e-08
-1.16946e-08
-6.68211e-08
-2.6469e-13
-4.35086e-08
3.83694e-14
3.17887e-13
5.43005e-14
1.8293e-14
5.68644e-14
2.88389e-14
5.61936e-14
2.97827e-14
5.45372e-14
2.81893e-14
5.25168e-14
2.59878e-14
5.03629e-14
2.37742e-14
4.8184e-14
2.17364e-14
4.60376e-14
1.99208e-14
4.39546e-14
1.83224e-14
4.19512e-14
1.69189e-14
4.00346e-14
1.56843e-14
3.82065e-14
1.45937e-14
3.64659e-14
1.36255e-14
3.48097e-14
1.27615e-14
3.32341e-14
1.19864e-14
3.17347e-14
1.12875e-14
3.0307e-14
1.06542e-14
2.89468e-14
1.00778e-14
2.76499e-14
9.55094e-15
2.64123e-14
9.06741e-15
2.52304e-14
8.62198e-15
2.41008e-14
8.2102e-15
2.30203e-14
7.82828e-15
2.1986e-14
7.47294e-15
2.09954e-14
7.14137e-15
2.00459e-14
6.83115e-15
1.91352e-14
6.54016e-15
1.82614e-14
6.26657e-15
1.74226e-14
6.00879e-15
1.66168e-14
5.76541e-15
1.58425e-14
5.53521e-15
1.50982e-14
5.31712e-15
1.43823e-14
5.11019e-15
1.36937e-14
4.91359e-15
1.30309e-14
4.7266e-15
1.23929e-14
4.54856e-15
1.17786e-14
4.3789e-15
1.11868e-14
4.21712e-15
1.06165e-14
4.06277e-15
1.00669e-14
3.91545e-15
9.53705e-15
3.77481e-15
9.02602e-15
3.64053e-15
8.533e-15
3.51235e-15
8.0572e-15
3.39001e-15
7.59784e-15
3.27331e-15
7.15418e-15
3.16204e-15
6.72547e-15
3.05605e-15
6.31102e-15
2.95518e-15
5.91014e-15
2.85931e-15
5.52213e-15
2.76832e-15
5.14634e-15
2.68213e-15
4.7821e-15
2.60065e-15
4.42877e-15
2.5238e-15
4.08571e-15
2.45152e-15
3.75226e-15
2.38376e-15
3.4278e-15
2.32047e-15
3.11168e-15
2.26161e-15
2.80328e-15
2.20712e-15
2.50196e-15
2.15697e-15
2.20708e-15
2.11111e-15
1.918e-15
2.06949e-15
1.63407e-15
2.03208e-15
1.35467e-15
1.99883e-15
1.07916e-15
1.96976e-15
8.06941e-16
1.94493e-15
5.37192e-16
1.92458e-15
2.68207e-16
1.9092e-15
1.90044e-15
4.6714e-09
1.81293e-07
-1.97252e-08
1.7458e-07
-8.68319e-08
1.66784e-07
-1.1347e-07
1.14387e-07
-1.0995e-07
6.87621e-08
-1.27383e-07
5.20377e-08
-1.17861e-07
-1.07726e-08
-1.16586e-07
-1.24538e-08
-1.12617e-07
-7.70702e-08
-9.03419e-08
-1.22748e-07
-7.21609e-08
-1.32474e-07
-6.08722e-08
-1.41328e-07
-2.7979e-08
-1.22474e-07
-9.70191e-09
-8.5096e-08
2.46642e-09
-5.56749e-08
8.23389e-14
2.4671e-09
6.35449e-14
3.70937e-14
5.76873e-14
3.46943e-14
5.47939e-14
3.2672e-14
5.26069e-14
3.03697e-14
5.05784e-14
2.80078e-14
4.8581e-14
2.57615e-14
4.6599e-14
2.37071e-14
4.46447e-14
2.18629e-14
4.27339e-14
2.02204e-14
4.08795e-14
1.87601e-14
3.90899e-14
1.74605e-14
3.73697e-14
1.63004e-14
3.57207e-14
1.52612e-14
3.41425e-14
1.43266e-14
3.26337e-14
1.34825e-14
3.11917e-14
1.27171e-14
2.98139e-14
1.20202e-14
2.84969e-14
1.13834e-14
2.72378e-14
1.07993e-14
2.60335e-14
1.02617e-14
2.48809e-14
9.76517e-15
2.37772e-14
9.30513e-15
2.27198e-14
8.87759e-15
2.17062e-14
8.47911e-15
2.07341e-14
8.10672e-15
1.98013e-14
7.7578e-15
1.89058e-14
7.43011e-15
1.80457e-14
7.12165e-15
1.72193e-14
6.8307e-15
1.64249e-14
6.55574e-15
1.56611e-14
6.29545e-15
1.49264e-14
6.04864e-15
1.42195e-14
5.81429e-15
1.35392e-14
5.59149e-15
1.28842e-14
5.37944e-15
1.22535e-14
5.17742e-15
1.16459e-14
4.98481e-15
1.10605e-14
4.80105e-15
1.04964e-14
4.62565e-15
9.95261e-15
4.45817e-15
9.42825e-15
4.29822e-15
8.92251e-15
4.14545e-15
8.43457e-15
3.99957e-15
7.96367e-15
3.86029e-15
7.50904e-15
3.72738e-15
7.06996e-15
3.60064e-15
6.64572e-15
3.47986e-15
6.23563e-15
3.3649e-15
5.83901e-15
3.25561e-15
5.45518e-15
3.15187e-15
5.0835e-15
3.05358e-15
4.72331e-15
2.96063e-15
4.37398e-15
2.87296e-15
4.03487e-15
2.7905e-15
3.70533e-15
2.71319e-15
3.38474e-15
2.64099e-15
3.07247e-15
2.57383e-15
2.76787e-15
2.51169e-15
2.47032e-15
2.45453e-15
2.17916e-15
2.40229e-15
1.89376e-15
2.35495e-15
1.61345e-15
2.31246e-15
1.33758e-15
2.27479e-15
1.06548e-15
2.24195e-15
7.9649e-16
2.21403e-15
5.29875e-16
2.19132e-15
2.64683e-16
2.17452e-15
2.1652e-15
-2.42961e-08
2.0559e-07
-3.8445e-08
1.88727e-07
-3.68679e-08
1.65205e-07
-6.97158e-08
1.47234e-07
-9.41245e-08
9.31715e-08
-1.08993e-07
6.69064e-08
-1.12728e-07
-7.03591e-09
-8.6812e-08
-3.83683e-08
-9.77537e-08
-6.61263e-08
-8.28007e-08
-1.37699e-07
-7.66015e-08
-1.38671e-07
-6.36732e-08
-1.54254e-07
-3.03137e-08
-1.55832e-07
-4.96272e-09
-1.10445e-07
-1.54595e-10
-6.04806e-08
-1.2123e-13
2.31342e-09
6.14222e-14
4.82074e-14
5.59107e-14
4.02038e-14
5.27767e-14
3.58024e-14
5.05398e-14
3.26007e-14
4.86141e-14
2.99254e-14
4.67864e-14
2.75795e-14
4.49901e-14
2.54925e-14
4.32136e-14
2.36276e-14
4.14636e-14
2.19578e-14
3.97507e-14
2.04601e-14
3.8084e-14
1.9114e-14
3.64701e-14
1.79011e-14
3.49129e-14
1.68052e-14
3.34143e-14
1.58122e-14
3.19745e-14
1.49096e-14
3.05926e-14
1.40866e-14
2.92673e-14
1.33338e-14
2.79964e-14
1.2643e-14
2.67779e-14
1.20072e-14
2.56094e-14
1.14202e-14
2.44887e-14
1.08766e-14
2.34133e-14
1.03718e-14
2.23813e-14
9.90162e-15
2.13904e-14
9.46263e-15
2.04387e-14
9.05168e-15
1.95243e-14
8.66605e-15
1.86455e-14
8.30337e-15
1.78006e-14
7.96155e-15
1.69881e-14
7.63876e-15
1.62065e-14
7.33339e-15
1.54544e-14
7.04401e-15
1.47305e-14
6.76938e-15
1.40337e-14
6.5084e-15
1.33626e-14
6.26009e-15
1.27164e-14
6.02359e-15
1.20938e-14
5.79814e-15
1.14939e-14
5.58306e-15
1.09158e-14
5.37775e-15
1.03586e-14
5.18168e-15
9.8213e-15
4.99437e-15
9.30319e-15
4.81541e-15
8.80343e-15
4.64441e-15
8.32125e-15
4.48106e-15
7.85589e-15
4.32504e-15
7.40663e-15
4.17612e-15
6.97276e-15
4.03405e-15
6.55359e-15
3.89864e-15
6.14845e-15
3.7697e-15
5.75667e-15
3.6471e-15
5.3776e-15
3.53069e-15
5.01059e-15
3.42037e-15
4.65502e-15
3.31603e-15
4.31024e-15
3.2176e-15
3.97564e-15
3.125e-15
3.65057e-15
3.03818e-15
3.33441e-15
2.95709e-15
3.02653e-15
2.88169e-15
2.7263e-15
2.81193e-15
2.43308e-15
2.74779e-15
2.14621e-15
2.68922e-15
1.86506e-15
2.63619e-15
1.58895e-15
2.58868e-15
1.31719e-15
2.54667e-15
1.04909e-15
2.51019e-15
7.83943e-16
2.47932e-15
5.21122e-16
2.45429e-15
2.60139e-16
2.43567e-15
2.42544e-15
-2.16658e-08
2.27255e-07
-3.94764e-08
2.06537e-07
-6.11698e-08
1.86897e-07
-6.81069e-08
1.54172e-07
-8.79008e-08
1.12967e-07
-8.79138e-08
6.69207e-08
-1.11806e-07
1.68577e-08
-7.61321e-08
-7.40401e-08
-8.8083e-08
-5.41733e-08
-7.94385e-08
-1.46341e-07
-6.16139e-08
-1.56493e-07
-4.94193e-08
-1.66446e-07
-4.26822e-08
-1.62566e-07
-2.80539e-08
-1.25072e-07
-2.38768e-08
-6.4656e-08
-6.01465e-13
-2.15613e-08
5.44087e-14
4.89407e-14
5.20589e-14
4.25518e-14
4.99775e-14
3.78806e-14
4.82022e-14
3.43703e-14
4.65655e-14
3.15545e-14
4.49651e-14
2.91707e-14
4.33639e-14
2.70832e-14
4.17591e-14
2.5221e-14
4.01605e-14
2.35441e-14
3.85809e-14
2.2027e-14
3.70314e-14
2.06504e-14
3.55204e-14
1.9399e-14
3.40535e-14
1.8259e-14
3.26342e-14
1.72186e-14
3.12642e-14
1.62671e-14
2.99439e-14
1.53947e-14
2.86729e-14
1.45931e-14
2.74501e-14
1.38546e-14
2.62743e-14
1.31725e-14
2.51438e-14
1.25408e-14
2.40569e-14
1.19542e-14
2.30118e-14
1.14082e-14
2.20069e-14
1.08985e-14
2.10405e-14
1.04217e-14
2.01109e-14
9.97461e-15
1.92165e-14
9.55435e-15
1.83558e-14
9.15852e-15
1.75275e-14
8.78494e-15
1.67301e-14
8.43171e-15
1.59624e-14
8.09715e-15
1.52232e-14
7.77979e-15
1.45111e-14
7.4783e-15
1.38253e-14
7.19153e-15
1.31645e-14
6.91846e-15
1.25279e-14
6.65818e-15
1.19143e-14
6.40988e-15
1.13229e-14
6.17285e-15
1.07529e-14
5.94645e-15
1.02033e-14
5.73011e-15
9.67326e-15
5.52334e-15
9.16209e-15
5.32568e-15
8.66898e-15
5.13674e-15
8.1932e-15
4.95617e-15
7.73402e-15
4.78364e-15
7.29075e-15
4.6189e-15
6.86269e-15
4.46168e-15
6.44918e-15
4.31177e-15
6.04956e-15
4.169e-15
5.6632e-15
4.03319e-15
5.28944e-15
3.90421e-15
4.92768e-15
3.78194e-15
4.57727e-15
3.66628e-15
4.23761e-15
3.55714e-15
3.90806e-15
3.45446e-15
3.58801e-15
3.35818e-15
3.27684e-15
3.26825e-15
2.97391e-15
3.18462e-15
2.6786e-15
3.10728e-15
2.39027e-15
3.03618e-15
2.10827e-15
2.97131e-15
1.83195e-15
2.91263e-15
1.56061e-15
2.86015e-15
1.29357e-15
2.81387e-15
1.03009e-15
2.77385e-15
7.69436e-16
2.74015e-15
5.11152e-16
2.71277e-15
2.55537e-16
2.69148e-15
2.68109e-15
-1.22692e-08
2.39523e-07
-4.39301e-08
2.38196e-07
-5.87833e-08
2.01749e-07
-5.60554e-08
1.51445e-07
-6.43086e-08
1.21221e-07
-6.82351e-08
7.08493e-08
-8.42944e-08
3.29194e-08
-8.47952e-08
-7.3537e-08
-7.31393e-08
-6.58269e-08
-6.73516e-08
-1.52127e-07
-5.64261e-08
-1.67417e-07
-4.18484e-08
-1.81022e-07
-2.62915e-08
-1.7812e-07
-1.60579e-08
-1.35304e-07
-3.27702e-09
-7.74351e-08
-5.80706e-13
-2.4836e-08
4.88385e-14
4.90824e-14
4.79841e-14
4.34047e-14
4.69152e-14
3.89466e-14
4.5746e-14
3.55342e-14
4.44863e-14
3.28069e-14
4.31448e-14
3.05034e-14
4.1741e-14
2.84768e-14
4.02987e-14
2.6652e-14
3.88402e-14
2.49906e-14
3.73841e-14
2.34706e-14
3.59445e-14
2.20773e-14
3.45314e-14
2.07991e-14
3.31519e-14
1.96255e-14
3.18106e-14
1.85472e-14
3.05101e-14
1.75551e-14
2.92518e-14
1.6641e-14
2.80361e-14
1.57972e-14
2.68627e-14
1.50169e-14
2.5731e-14
1.42937e-14
2.464e-14
1.36219e-14
2.35885e-14
1.29965e-14
2.25754e-14
1.24128e-14
2.15991e-14
1.18668e-14
2.06586e-14
1.1355e-14
1.97524e-14
1.08741e-14
1.88794e-14
1.04214e-14
1.80381e-14
9.9943e-15
1.72275e-14
9.59063e-15
1.64464e-14
9.20843e-15
1.56937e-14
8.84599e-15
1.49682e-14
8.50177e-15
1.4269e-14
8.17443e-15
1.35951e-14
7.86277e-15
1.29455e-14
7.56573e-15
1.23193e-14
7.28236e-15
1.17155e-14
7.01184e-15
1.11334e-14
6.7534e-15
1.05721e-14
6.5064e-15
1.00308e-14
6.27024e-15
9.50877e-15
6.04439e-15
9.0052e-15
5.82838e-15
8.51939e-15
5.6218e-15
8.05064e-15
5.42428e-15
7.59824e-15
5.23549e-15
7.16154e-15
5.05512e-15
6.73988e-15
4.88294e-15
6.3326e-15
4.7187e-15
5.93907e-15
4.56223e-15
5.55868e-15
4.41334e-15
5.1908e-15
4.27189e-15
4.83482e-15
4.13776e-15
4.49012e-15
4.01085e-15
4.15611e-15
3.89107e-15
3.83217e-15
3.77835e-15
3.51769e-15
3.67264e-15
3.21205e-15
3.5739e-15
2.91463e-15
3.48208e-15
2.6248e-15
3.39718e-15
2.34193e-15
3.31915e-15
2.06538e-15
3.24799e-15
1.79446e-15
3.1837e-15
1.52852e-15
3.12627e-15
1.26682e-15
3.07576e-15
1.00865e-15
3.03223e-15
7.53279e-16
2.99574e-15
5.00418e-16
2.96586e-15
2.50909e-16
2.94122e-15
2.93214e-15
-1.99819e-08
2.59505e-07
-2.552e-08
2.43736e-07
-4.47873e-08
2.21017e-07
-6.56679e-08
1.72326e-07
-7.20986e-08
1.27653e-07
-6.33044e-08
6.20574e-08
-6.09982e-08
3.06158e-08
-5.93741e-08
-7.51584e-08
-3.8557e-08
-8.66414e-08
-3.56302e-08
-1.55051e-07
-1.93107e-08
-1.83734e-07
-1.93842e-08
-1.80947e-07
-2.24151e-08
-1.75088e-07
-1.37066e-08
-1.4401e-07
-6.01388e-09
-8.51262e-08
-4.85724e-13
-3.08481e-08
4.39069e-14
4.88317e-14
4.41056e-14
4.32046e-14
4.39445e-14
3.9105e-14
4.33707e-14
3.61028e-14
4.24795e-14
3.36911e-14
4.13791e-14
3.15953e-14
4.01513e-14
2.96947e-14
3.88517e-14
2.79406e-14
3.75171e-14
2.63134e-14
3.61722e-14
2.48032e-14
3.48335e-14
2.34034e-14
3.35123e-14
2.21074e-14
3.22164e-14
2.09087e-14
3.09508e-14
1.98001e-14
2.97188e-14
1.87748e-14
2.85222e-14
1.78255e-14
2.73621e-14
1.69458e-14
2.62388e-14
1.61292e-14
2.51522e-14
1.53699e-14
2.41018e-14
1.46625e-14
2.30869e-14
1.40022e-14
2.21067e-14
1.33844e-14
2.11603e-14
1.28053e-14
2.02469e-14
1.22613e-14
1.93653e-14
1.17491e-14
1.85146e-14
1.12661e-14
1.76938e-14
1.08097e-14
1.69019e-14
1.03776e-14
1.61381e-14
9.96795e-15
1.54012e-14
9.57896e-15
1.46905e-14
9.20907e-15
1.4005e-14
8.85693e-15
1.33438e-14
8.5213e-15
1.27061e-14
8.20111e-15
1.20911e-14
7.89539e-15
1.14979e-14
7.60328e-15
1.09257e-14
7.32402e-15
1.03739e-14
7.05693e-15
9.84159e-15
6.8014e-15
9.32813e-15
6.55688e-15
8.83279e-15
6.32288e-15
8.35489e-15
6.09899e-15
7.89376e-15
5.8848e-15
7.44874e-15
5.67998e-15
7.01918e-15
5.48423e-15
6.60447e-15
5.29727e-15
6.20397e-15
5.11888e-15
5.81709e-15
4.94885e-15
5.44321e-15
4.787e-15
5.08174e-15
4.63319e-15
4.73207e-15
4.48729e-15
4.39363e-15
4.3492e-15
4.0658e-15
4.21883e-15
3.74801e-15
4.09613e-15
3.43963e-15
3.98103e-15
3.14007e-15
3.8735e-15
2.84871e-15
3.77352e-15
2.56492e-15
3.68107e-15
2.28809e-15
3.59613e-15
2.01755e-15
3.5187e-15
1.75264e-15
3.44879e-15
1.4927e-15
3.38642e-15
1.23703e-15
3.33166e-15
9.84948e-16
3.28456e-15
7.3583e-16
3.24512e-15
4.89219e-16
3.21274e-15
2.44883e-16
3.18584e-15
3.17719e-15
-2.08721e-08
2.80375e-07
-2.99319e-08
2.52798e-07
-2.9005e-08
2.20092e-07
-2.38731e-08
1.67195e-07
-1.30901e-08
1.16873e-07
-2.10108e-08
6.99806e-08
-2.6208e-08
3.58156e-08
-3.16347e-08
-6.97293e-08
-2.33722e-08
-9.49018e-08
-2.54805e-08
-1.52941e-07
-2.4558e-08
-1.84654e-07
-9.11139e-09
-1.96392e-07
-5.42684e-09
-1.7877e-07
-1.19589e-08
-1.37476e-07
-9.98314e-09
-8.71002e-08
-3.09281e-13
-4.08298e-08
3.90255e-14
4.8586e-14
4.05455e-14
4.16832e-14
4.1336e-14
3.83119e-14
4.12738e-14
3.61597e-14
4.06557e-14
3.43023e-14
3.97242e-14
3.25185e-14
3.86236e-14
3.07856e-14
3.74344e-14
2.91191e-14
3.62022e-14
2.75341e-14
3.49538e-14
2.60394e-14
3.37062e-14
2.46385e-14
3.24703e-14
2.33306e-14
3.12536e-14
2.21127e-14
3.00611e-14
2.09802e-14
2.88959e-14
1.99277e-14
2.77604e-14
1.89492e-14
2.66557e-14
1.8039e-14
2.55827e-14
1.71913e-14
2.45416e-14
1.64006e-14
2.35325e-14
1.5662e-14
2.25549e-14
1.49706e-14
2.16086e-14
1.43223e-14
2.0693e-14
1.37131e-14
1.98074e-14
1.31396e-14
1.89513e-14
1.25987e-14
1.81238e-14
1.20876e-14
1.73243e-14
1.16038e-14
1.65521e-14
1.1145e-14
1.58062e-14
1.07095e-14
1.50861e-14
1.02953e-14
1.43908e-14
9.90092e-15
1.37198e-14
9.52503e-15
1.3072e-14
9.16639e-15
1.2447e-14
8.82388e-15
1.18438e-14
8.49656e-15
1.12618e-14
8.18354e-15
1.07003e-14
7.88405e-15
1.01586e-14
7.5974e-15
9.63592e-15
7.32296e-15
9.13166e-15
7.0602e-15
8.64514e-15
6.80859e-15
8.17573e-15
6.56771e-15
7.72279e-15
6.33716e-15
7.28569e-15
6.11658e-15
6.86384e-15
5.90567e-15
6.45662e-15
5.70414e-15
6.06344e-15
5.51177e-15
5.68372e-15
5.32833e-15
5.31688e-15
5.15365e-15
4.96234e-15
4.98759e-15
4.61951e-15
4.83001e-15
4.28784e-15
4.68081e-15
3.96673e-15
4.53992e-15
3.6556e-15
4.40727e-15
3.35386e-15
4.28281e-15
3.06092e-15
4.16653e-15
2.77617e-15
4.05839e-15
2.49898e-15
3.9584e-15
2.22874e-15
3.86655e-15
1.9648e-15
3.78285e-15
1.7065e-15
3.70732e-15
1.45318e-15
3.64e-15
1.20418e-15
3.58094e-15
9.58865e-16
3.53018e-15
7.16667e-16
3.48763e-15
4.76842e-16
3.45288e-15
2.37726e-16
3.42528e-15
3.4151e-15
-1.13994e-08
2.91775e-07
-1.61899e-08
2.57589e-07
-2.04266e-08
2.24331e-07
-2.77987e-08
1.74569e-07
-3.40815e-08
1.23158e-07
-3.44228e-08
7.03246e-08
-6.40508e-09
7.80042e-09
-8.7767e-09
-6.73555e-08
-2.38404e-09
-1.01293e-07
-4.8596e-09
-1.50463e-07
-5.65186e-09
-1.83861e-07
-6.35881e-09
-1.95683e-07
-3.77889e-09
-1.81349e-07
-7.14533e-09
-1.34108e-07
-1.06761e-08
-8.35679e-08
-2.64509e-13
-5.15044e-08
3.30212e-14
4.83614e-14
3.76216e-14
3.70814e-14
3.94719e-14
3.64595e-14
3.96624e-14
3.59639e-14
3.91052e-14
3.48525e-14
3.8216e-14
3.33994e-14
3.71721e-14
3.18199e-14
3.60536e-14
3.02271e-14
3.49001e-14
2.86762e-14
3.37336e-14
2.7194e-14
3.25676e-14
2.57922e-14
3.14108e-14
2.44749e-14
3.02691e-14
2.32419e-14
2.91467e-14
2.20901e-14
2.80467e-14
2.10155e-14
2.69712e-14
2.0013e-14
2.59215e-14
1.90773e-14
2.48986e-14
1.82033e-14
2.39032e-14
1.73858e-14
2.29355e-14
1.66199e-14
2.19957e-14
1.59013e-14
2.10838e-14
1.52258e-14
2.01994e-14
1.45896e-14
1.93424e-14
1.39895e-14
1.85124e-14
1.34222e-14
1.77088e-14
1.28852e-14
1.69313e-14
1.23759e-14
1.61793e-14
1.18923e-14
1.54521e-14
1.14323e-14
1.47493e-14
1.09943e-14
1.40702e-14
1.05767e-14
1.34142e-14
1.01781e-14
1.27806e-14
9.79739e-15
1.21688e-14
9.43343e-15
1.15782e-14
9.08525e-15
1.1008e-14
8.752e-15
1.04577e-14
8.43288e-15
9.92665e-15
8.12721e-15
9.41418e-15
7.83437e-15
8.91968e-15
7.55378e-15
8.44255e-15
7.28495e-15
7.98217e-15
7.02743e-15
7.53796e-15
6.78082e-15
7.10932e-15
6.54476e-15
6.69568e-15
6.31892e-15
6.29647e-15
6.10303e-15
5.91112e-15
5.89685e-15
5.53908e-15
5.70017e-15
5.17978e-15
5.51279e-15
4.83268e-15
5.33458e-15
4.4972e-15
5.16541e-15
4.17281e-15
5.00518e-15
3.85892e-15
4.85381e-15
3.55498e-15
4.71125e-15
3.26041e-15
4.57747e-15
2.97462e-15
4.45244e-15
2.69701e-15
4.33615e-15
2.42698e-15
4.22862e-15
2.1639e-15
4.12985e-15
1.90713e-15
4.03987e-15
1.65603e-15
3.9587e-15
1.40994e-15
3.8864e-15
1.1682e-15
3.823e-15
9.30189e-16
3.76853e-15
6.95282e-16
3.7229e-15
4.62618e-16
3.68592e-15
2.30409e-16
3.65787e-15
3.64572e-15
-5.12799e-09
2.96904e-07
-6.2816e-09
2.58743e-07
-4.01848e-09
2.2207e-07
5.95955e-10
1.69957e-07
8.22387e-09
1.15532e-07
-2.08433e-09
8.0635e-08
2.03344e-08
-1.46162e-08
1.67315e-08
-6.37506e-08
1.36977e-08
-9.8257e-08
1.83646e-08
-1.55129e-07
1.68232e-08
-1.82318e-07
6.26593e-09
-1.85124e-07
5.92194e-09
-1.81004e-07
4.86078e-09
-1.33046e-07
-3.18329e-09
-7.55229e-08
4.53113e-12
-5.46916e-08
2.31517e-14
4.71488e-12
3.71003e-14
2.31312e-14
3.90568e-14
3.45025e-14
3.87032e-14
3.63133e-14
3.78436e-14
3.57057e-14
3.68414e-14
3.43935e-14
3.57844e-14
3.28677e-14
3.47018e-14
3.12994e-14
3.36079e-14
2.97589e-14
3.25118e-14
2.82783e-14
3.14198e-14
2.68719e-14
3.03369e-14
2.55455e-14
2.92668e-14
2.42996e-14
2.82122e-14
2.31323e-14
2.71757e-14
2.204e-14
2.6159e-14
2.1018e-14
2.51635e-14
2.00616e-14
2.41903e-14
1.91657e-14
2.32403e-14
1.83255e-14
2.23142e-14
1.75365e-14
2.14123e-14
1.67942e-14
2.05349e-14
1.60948e-14
1.96821e-14
1.54347e-14
1.8854e-14
1.48105e-14
1.80504e-14
1.42193e-14
1.72713e-14
1.36585e-14
1.65162e-14
1.31257e-14
1.57849e-14
1.26188e-14
1.5077e-14
1.21359e-14
1.4392e-14
1.16754e-14
1.37296e-14
1.12358e-14
1.30892e-14
1.08156e-14
1.24702e-14