/*--------------------------------*- C++ -*----------------------------------*\
  =========                 |
  \\      /  F ield         | OpenFOAM: The Open Source CFD Toolbox
   \\    /   O peration     | Website:  https://openfoam.org
    \\  /    A nd           | Version:  6
     \\/     M anipulation  |
\*---------------------------------------------------------------------------*/
FoamFile
{
    version     2.0;
    format      ascii;
    class       volVectorField;
    location    "420";
    object      U;
}
// * * * * * * * * * * * * * * * * * * * * * * * * * * * * * * * * * * * * * //

dimensions      [0 1 -1 0 0 0 0];

internalField   nonuniform List<vector> 
5964
(
(-0.00156199 0 0.000282616)
(-0.00198233 0 0.000274382)
(-0.00226115 0 -0.000234745)
(-0.00240922 0 -0.000325742)
(-0.00250556 0 -0.000131012)
(-0.00260761 0 2.01245e-05)
(-0.00269723 0 0.000188285)
(-0.00246939 0 0.000462784)
(-0.00224743 0 -0.000149855)
(-0.00216999 0 -5.87662e-06)
(-0.00212868 0 -0.0001701)
(-0.00132792 0 -0.000612713)
(-0.000891809 0 -0.000357863)
(-0.000486288 0 -0.000437827)
(-2.56014e-06 0 -0.000381148)
(4.09727e-09 0 1.79665e-09)
(4.98054e-09 0 6.09964e-10)
(4.7983e-09 0 3.61451e-10)
(4.15378e-09 0 2.42707e-10)
(3.70564e-09 0 1.77219e-10)
(3.36942e-09 0 1.37691e-10)
(3.10254e-09 0 1.12144e-10)
(2.88155e-09 0 9.46328e-11)
(2.6927e-09 0 8.19903e-11)
(2.5275e-09 0 7.24451e-11)
(2.38045e-09 0 6.49645e-11)
(2.24783e-09 0 5.89211e-11)
(2.12699e-09 0 5.39177e-11)
(2.016e-09 0 4.96927e-11)
(1.91339e-09 0 4.60671e-11)
(1.81801e-09 0 4.29142e-11)
(1.72897e-09 0 4.01416e-11)
(1.64553e-09 0 3.76802e-11)
(1.56708e-09 0 3.54771e-11)
(1.49312e-09 0 3.3491e-11)
(1.42322e-09 0 3.16892e-11)
(1.35702e-09 0 3.00457e-11)
(1.2942e-09 0 2.85389e-11)
(1.23449e-09 0 2.71514e-11)
(1.17765e-09 0 2.58685e-11)
(1.12347e-09 0 2.46781e-11)
(1.07176e-09 0 2.35698e-11)
(1.02237e-09 0 2.25348e-11)
(9.75127e-10 0 2.15657e-11)
(9.29911e-10 0 2.06558e-11)
(8.86596e-10 0 1.97998e-11)
(8.45072e-10 0 1.89926e-11)
(8.05238e-10 0 1.82301e-11)
(7.67002e-10 0 1.75085e-11)
(7.30277e-10 0 1.68247e-11)
(6.94986e-10 0 1.61758e-11)
(6.61056e-10 0 1.55593e-11)
(6.28418e-10 0 1.49729e-11)
(5.97009e-10 0 1.44148e-11)
(5.6677e-10 0 1.38833e-11)
(5.37646e-10 0 1.33767e-11)
(5.09582e-10 0 1.28939e-11)
(4.8253e-10 0 1.24335e-11)
(4.56441e-10 0 1.19945e-11)
(4.31271e-10 0 1.15761e-11)
(4.06976e-10 0 1.11773e-11)
(3.83514e-10 0 1.07975e-11)
(3.60845e-10 0 1.04361e-11)
(3.38931e-10 0 1.00924e-11)
(3.17733e-10 0 9.766e-12)
(2.97215e-10 0 9.45645e-12)
(2.77342e-10 0 9.16339e-12)
(2.58078e-10 0 8.88648e-12)
(2.39389e-10 0 8.62542e-12)
(2.21241e-10 0 8.37996e-12)
(2.03601e-10 0 8.14983e-12)
(1.86438e-10 0 7.93479e-12)
(1.69718e-10 0 7.73457e-12)
(1.53411e-10 0 7.54889e-12)
(1.37485e-10 0 7.37742e-12)
(1.21911e-10 0 7.21983e-12)
(1.0666e-10 0 7.07583e-12)
(9.17019e-11 0 6.94515e-12)
(7.70098e-11 0 6.82733e-12)
(6.25574e-11 0 6.72092e-12)
(4.8324e-11 0 6.62234e-12)
(3.42983e-11 0 6.52667e-12)
(2.0473e-11 0 6.43456e-12)
(6.80481e-12 0 6.37965e-12)
(-0.0012371 0 0.00181686)
(-0.00139491 0 0.00114)
(-0.00219111 0 0.000384124)
(-0.00240116 0 0.000822297)
(-0.00273583 0 0.000389307)
(-0.00296023 0 0.000288957)
(-0.00306644 0 0.000110453)
(-0.00306144 0 -0.00011785)
(-0.00239614 0 -0.00138922)
(-0.00210891 0 -4.40006e-06)
(-0.00149385 0 -8.44848e-05)
(-0.00064022 0 -0.000892581)
(-0.000403186 0 0.000135374)
(-0.000272147 0 -0.000500414)
(-9.12505e-07 0 -0.000503892)
(3.36594e-09 0 3.7353e-09)
(4.23981e-09 0 1.46989e-09)
(4.45147e-09 0 9.69736e-10)
(3.97936e-09 0 6.80849e-10)
(3.6061e-09 0 5.08431e-10)
(3.3078e-09 0 4.00417e-10)
(3.06194e-09 0 3.2904e-10)
(2.85334e-09 0 2.79324e-10)
(2.67218e-09 0 2.42982e-10)
(2.51199e-09 0 2.15278e-10)
(2.36835e-09 0 1.93409e-10)
(2.23814e-09 0 1.75646e-10)
(2.11905e-09 0 1.60881e-10)
(2.00938e-09 0 1.48378e-10)
(1.90779e-09 0 1.37624e-10)
(1.81321e-09 0 1.28258e-10)
(1.72481e-09 0 1.20011e-10)
(1.64189e-09 0 1.12683e-10)
(1.56388e-09 0 1.06118e-10)
(1.49027e-09 0 1.00197e-10)
(1.42068e-09 0 9.48238e-11)
(1.35473e-09 0 8.992e-11)
(1.29214e-09 0 8.54231e-11)
(1.23262e-09 0 8.12811e-11)
(1.17595e-09 0 7.74507e-11)
(1.12192e-09 0 7.38957e-11)
(1.07035e-09 0 7.05852e-11)
(1.02106e-09 0 6.74931e-11)
(9.7393e-10 0 6.45972e-11)
(9.28808e-10 0 6.1878e-11)
(8.85579e-10 0 5.9319e-11)
(8.44133e-10 0 5.69057e-11)
(8.04371e-10 0 5.46254e-11)
(7.66199e-10 0 5.24673e-11)
(7.29535e-10 0 5.04215e-11)
(6.943e-10 0 4.84798e-11)
(6.60422e-10 0 4.66347e-11)
(6.27833e-10 0 4.48795e-11)
(5.9647e-10 0 4.32087e-11)
(5.66274e-10 0 4.1617e-11)
(5.3719e-10 0 4.00999e-11)
(5.09166e-10 0 3.86535e-11)
(4.82151e-10 0 3.72743e-11)
(4.56098e-10 0 3.59592e-11)
(4.30962e-10 0 3.47053e-11)
(4.067e-10 0 3.35103e-11)
(3.83271e-10 0 3.23721e-11)
(3.60633e-10 0 3.12887e-11)
(3.3875e-10 0 3.02585e-11)
(3.17582e-10 0 2.92801e-11)
(2.97094e-10 0 2.83521e-11)
(2.77249e-10 0 2.74735e-11)
(2.58014e-10 0 2.66433e-11)
(2.39353e-10 0 2.58607e-11)
(2.21233e-10 0 2.51247e-11)
(2.03621e-10 0 2.44348e-11)
(1.86485e-10 0 2.37901e-11)
(1.69793e-10 0 2.31899e-11)
(1.53512e-10 0 2.26333e-11)
(1.37612e-10 0 2.21195e-11)
(1.22064e-10 0 2.16475e-11)
(1.06836e-10 0 2.12165e-11)
(9.19002e-11 0 2.08254e-11)
(7.72283e-11 0 2.0473e-11)
(6.27925e-11 0 2.01562e-11)
(4.85658e-11 0 1.98677e-11)
(3.45206e-11 0 1.95978e-11)
(2.06294e-11 0 1.93483e-11)
(6.85933e-12 0 1.91902e-11)
(-0.00104081 0 0.00272837)
(-0.00110647 0 0.00191201)
(-0.00234185 0 0.00115524)
(-0.0028861 0 0.000855477)
(-0.00351922 0 0.000467891)
(-0.00376183 0 0.000288059)
(-0.00378919 0 1.55192e-05)
(-0.00373413 0 -0.000782641)
(-0.00309696 0 -0.000666369)
(-0.00232435 0 -0.000470054)
(-0.00156181 0 -0.00146292)
(-0.000627359 0 -0.00259216)
(-0.000180844 0 0.000250085)
(-4.74025e-05 0 -0.000819441)
(-9.69927e-07 0 -0.000552248)
(3.26816e-09 0 4.33224e-09)
(3.73011e-09 0 2.01835e-09)
(4.054e-09 0 1.39143e-09)
(3.71822e-09 0 1.01594e-09)
(3.44076e-09 0 7.82472e-10)
(3.20014e-09 0 6.30461e-10)
(2.98862e-09 0 5.2649e-10)
(2.80104e-09 0 4.51914e-10)
(2.63326e-09 0 3.96085e-10)
(2.48195e-09 0 3.52734e-10)
(2.34446e-09 0 3.18033e-10)
(2.21866e-09 0 2.89556e-10)
(2.10286e-09 0 2.65706e-10)
(1.99568e-09 0 2.45393e-10)
(1.89603e-09 0 2.27849e-10)
(1.80301e-09 0 2.12517e-10)
(1.71587e-09 0 1.98983e-10)
(1.63398e-09 0 1.86933e-10)
(1.55681e-09 0 1.76121e-10)
(1.48394e-09 0 1.66356e-10)
(1.41495e-09 0 1.57485e-10)
(1.34954e-09 0 1.49382e-10)
(1.2874e-09 0 1.41946e-10)
(1.22828e-09 0 1.35092e-10)
(1.17196e-09 0 1.28751e-10)
(1.11824e-09 0 1.22862e-10)
(1.06694e-09 0 1.17377e-10)
(1.01791e-09 0 1.12251e-10)
(9.70991e-10 0 1.07449e-10)
(9.26068e-10 0 1.02938e-10)
(8.83019e-10 0 9.86919e-11)
(8.41737e-10 0 9.46861e-11)
(8.02124e-10 0 9.09e-11)
(7.64091e-10 0 8.73157e-11)
(7.27554e-10 0 8.39173e-11)
(6.92436e-10 0 8.06908e-11)
(6.58668e-10 0 7.76241e-11)
(6.26181e-10 0 7.47064e-11)
(5.94914e-10 0 7.19282e-11)
(5.6481e-10 0 6.92811e-11)
(5.35812e-10 0 6.67577e-11)
(5.07869e-10 0 6.43515e-11)
(4.80932e-10 0 6.20566e-11)
(4.54954e-10 0 5.9868e-11)
(4.2989e-10 0 5.77812e-11)
(4.05697e-10 0 5.57921e-11)
(3.82334e-10 0 5.38972e-11)
(3.59762e-10 0 5.20935e-11)
(3.37942e-10 0 5.03782e-11)
(3.16836e-10 0 4.8749e-11)
(2.96409e-10 0 4.72037e-11)
(2.76624e-10 0 4.57405e-11)
(2.57447e-10 0 4.43579e-11)
(2.38843e-10 0 4.30544e-11)
(2.20781e-10 0 4.18286e-11)
(2.03225e-10 0 4.06795e-11)
(1.86145e-10 0 3.96058e-11)
(1.69507e-10 0 3.86064e-11)
(1.5328e-10 0 3.76799e-11)
(1.37433e-10 0 3.6825e-11)
(1.21935e-10 0 3.60402e-11)
(1.06756e-10 0 3.5324e-11)
(9.18667e-11 0 3.4675e-11)
(7.72366e-11 0 3.40916e-11)
(6.28358e-11 0 3.35709e-11)
(4.86308e-11 0 3.31077e-11)
(3.45871e-11 0 3.26918e-11)
(2.06877e-11 0 3.23093e-11)
(6.88705e-12 0 3.20782e-11)
(-0.00112118 0 0.00358366)
(-0.0014691 0 0.00251182)
(-0.00303549 0 0.00171304)
(-0.00349879 0 0.00190788)
(-0.00424233 0 0.00126932)
(-0.00443245 0 0.000704252)
(-0.00453612 0 -0.000244769)
(-0.00450373 0 -0.000679726)
(-0.00371087 0 -0.000698613)
(-0.00318227 0 -0.000833813)
(-0.00267847 0 -0.00255276)
(-0.00127648 0 -0.00308242)
(-0.000574105 0 0.000312903)
(0.00035311 0 -0.000981024)
(1.20799e-06 0 -0.000389114)
(1.61705e-09 0 2.24694e-09)
(3.38564e-09 0 2.17619e-09)
(3.50849e-09 0 1.59171e-09)
(3.40617e-09 0 1.22585e-09)
(3.24321e-09 0 9.84644e-10)
(3.06701e-09 0 8.18055e-10)
(2.89434e-09 0 6.97925e-10)
(2.73137e-09 0 6.07892e-10)
(2.57988e-09 0 5.38131e-10)
(2.43979e-09 0 4.82535e-10)
(2.31032e-09 0 4.37168e-10)
(2.19042e-09 0 3.99408e-10)
(2.07908e-09 0 3.67451e-10)
(1.97538e-09 0 3.40018e-10)
(1.87847e-09 0 3.16182e-10)
(1.78765e-09 0 2.95255e-10)
(1.70231e-09 0 2.76715e-10)
(1.62192e-09 0 2.60157e-10)
(1.54601e-09 0 2.45266e-10)
(1.4742e-09 0 2.3179e-10)
(1.40612e-09 0 2.19527e-10)
(1.34149e-09 0 2.08311e-10)
(1.28003e-09 0 1.98007e-10)
(1.22151e-09 0 1.885e-10)
(1.16571e-09 0 1.79696e-10)
(1.11246e-09 0 1.71515e-10)
(1.06157e-09 0 1.63889e-10)
(1.01291e-09 0 1.56759e-10)
(9.66325e-10 0 1.50075e-10)
(9.21702e-10 0 1.43794e-10)
(8.78926e-10 0 1.37879e-10)
(8.37892e-10 0 1.32296e-10)
(7.98507e-10 0 1.27018e-10)
(7.60682e-10 0 1.2202e-10)
(7.24338e-10 0 1.17279e-10)
(6.894e-10 0 1.12777e-10)
(6.55798e-10 0 1.08496e-10)
(6.23467e-10 0 1.04423e-10)
(5.92347e-10 0 1.00544e-10)
(5.6238e-10 0 9.68465e-11)
(5.33513e-10 0 9.33215e-11)
(5.05694e-10 0 8.99596e-11)
(4.78875e-10 0 8.67527e-11)
(4.53011e-10 0 8.3694e-11)
(4.28055e-10 0 8.0777e-11)
(4.03968e-10 0 7.79963e-11)
(3.80707e-10 0 7.5347e-11)
(3.58233e-10 0 7.28249e-11)
(3.36509e-10 0 7.04262e-11)
(3.15497e-10 0 6.81476e-11)
(2.95161e-10 0 6.59863e-11)
(2.75465e-10 0 6.39397e-11)
(2.56377e-10 0 6.20055e-11)
(2.37861e-10 0 6.0182e-11)
(2.19884e-10 0 5.84672e-11)
(2.02413e-10 0 5.68597e-11)
(1.85416e-10 0 5.53578e-11)
(1.68861e-10 0 5.39599e-11)
(1.52715e-10 0 5.26646e-11)
(1.36948e-10 0 5.147e-11)
(1.21527e-10 0 5.03742e-11)
(1.06424e-10 0 4.93755e-11)
(9.16053e-11 0 4.8472e-11)
(7.70418e-11 0 4.76623e-11)
(6.27006e-11 0 4.69459e-11)
(4.85449e-11 0 4.63218e-11)
(3.45363e-11 0 4.57784e-11)
(2.06786e-11 0 4.52474e-11)
(6.8965e-12 0 4.50013e-11)
(-8.2639e-05 0 0.00476925)
(0.000296828 0 0.00450679)
(-0.00298217 0 0.00338444)
(-0.00408998 0 0.0025062)
(-0.00500853 0 0.00141603)
(-0.00549794 0 0.000396282)
(-0.00568807 0 -9.51904e-05)
(-0.00568862 0 -0.000668063)
(-0.00481194 0 -0.00280031)
(-0.00477237 0 -0.00224639)
(-0.00337528 0 -0.00408077)
(-0.00118217 0 -0.00408386)
(-0.00261304 0 -3.7371e-05)
(-5.12498e-06 0 -0.00146944)
(-3.10049e-07 0 7.23495e-05)
(1.49061e-09 0 2.31164e-09)
(3.06219e-09 0 1.95942e-09)
(3.16158e-09 0 1.59992e-09)
(3.14773e-09 0 1.32607e-09)
(3.0575e-09 0 1.12104e-09)
(2.93089e-09 0 9.64616e-10)
(2.79162e-09 0 8.4273e-10)
(2.65166e-09 0 7.45902e-10)
(2.5165e-09 0 6.67609e-10)
(2.38833e-09 0 6.03257e-10)
(2.26776e-09 0 5.49558e-10)
(2.15466e-09 0 5.04125e-10)
(2.04861e-09 0 4.65202e-10)
(1.9491e-09 0 4.31479e-10)
(1.85556e-09 0 4.01968e-10)
(1.7675e-09 0 3.75911e-10)
(1.68443e-09 0 3.52722e-10)
(1.60594e-09 0 3.31937e-10)
(1.53164e-09 0 3.13189e-10)
(1.46119e-09 0 2.9618e-10)
(1.39429e-09 0 2.80671e-10)
(1.33068e-09 0 2.66461e-10)
(1.27011e-09 0 2.53387e-10)
(1.21237e-09 0 2.41309e-10)
(1.15726e-09 0 2.30112e-10)
(1.10462e-09 0 2.19698e-10)
(1.05428e-09 0 2.09981e-10)
(1.0061e-09 0 2.0089e-10)
(9.59959e-10 0 1.92361e-10)
(9.15735e-10 0 1.84342e-10)
(8.7332e-10 0 1.76785e-10)
(8.32616e-10 0 1.6965e-10)
(7.93534e-10 0 1.62901e-10)
(7.55988e-10 0 1.56507e-10)
(7.19901e-10 0 1.5044e-10)
(6.85201e-10 0 1.44676e-10)
(6.51822e-10 0 1.39194e-10)
(6.19699e-10 0 1.33976e-10)
(5.88774e-10 0 1.29005e-10)
(5.58992e-10 0 1.24266e-10)
(5.30299e-10 0 1.19747e-10)
(5.02646e-10 0 1.15436e-10)
(4.75986e-10 0 1.11323e-10)
(4.50272e-10 0 1.07399e-10)
(4.25463e-10 0 1.03657e-10)
(4.01515e-10 0 1.00088e-10)
(3.7839e-10 0 9.66881e-11)
(3.56048e-10 0 9.34506e-11)
(3.34452e-10 0 9.03712e-11)
(3.13565e-10 0 8.74455e-11)
(2.93351e-10 0 8.46702e-11)
(2.73776e-10 0 8.20418e-11)
(2.54806e-10 0 7.95578e-11)
(2.36406e-10 0 7.72156e-11)
(2.18543e-10 0 7.50131e-11)
(2.01186e-10 0 7.29483e-11)
(1.84301e-10 0 7.10193e-11)
(1.67855e-10 0 6.92244e-11)
(1.51819e-10 0 6.75616e-11)
(1.36158e-10 0 6.6029e-11)
(1.20843e-10 0 6.46245e-11)
(1.05841e-10 0 6.33461e-11)
(9.11212e-11 0 6.21917e-11)
(7.66524e-11 0 6.11604e-11)
(6.24024e-11 0 6.02533e-11)
(4.83378e-11 0 5.94735e-11)
(3.44209e-11 0 5.88101e-11)
(2.06102e-11 0 5.81584e-11)
(6.86306e-12 0 5.79026e-11)
(-0.00249275 0 0.00511581)
(-0.00430183 0 0.00379526)
(-0.00360897 0 0.00409002)
(-0.00502865 0 0.00273771)
(-0.00532327 0 0.00247229)
(-0.0058574 0 0.00107847)
(-0.00615781 0 -0.000611739)
(-0.00625335 0 -0.00112839)
(-0.00597428 0 -0.00238397)
(-0.00549052 0 -0.00338353)
(-0.0043265 0 -0.00458086)
(-0.00256492 0 -0.00472346)
(-0.00403579 0 0.000329731)
(-0.000962193 0 -0.00265174)
(-4.77268e-06 0 -0.000778078)
(1.29008e-09 0 2.30986e-09)
(2.71958e-09 0 1.75016e-09)
(2.91438e-09 0 1.53318e-09)
(2.95657e-09 0 1.36581e-09)
(2.90389e-09 0 1.21459e-09)
(2.80598e-09 0 1.08067e-09)
(2.68955e-09 0 9.65367e-10)
(2.56779e-09 0 8.67498e-10)
(2.44702e-09 0 7.84734e-10)
(2.33022e-09 0 7.14542e-10)
(2.21863e-09 0 6.54632e-10)
(2.1127e-09 0 6.03088e-10)
(2.01241e-09 0 5.58365e-10)
(1.91756e-09 0 5.19233e-10)
(1.82786e-09 0 4.84721e-10)
(1.74296e-09 0 4.54058e-10)
(1.66254e-09 0 4.2663e-10)
(1.58629e-09 0 4.01943e-10)
(1.51389e-09 0 3.796e-10)
(1.44508e-09 0 3.59271e-10)
(1.3796e-09 0 3.40689e-10)
(1.31722e-09 0 3.2363e-10)
(1.25772e-09 0 3.07906e-10)
(1.20093e-09 0 2.9336e-10)
(1.14667e-09 0 2.79856e-10)
(1.09477e-09 0 2.67281e-10)
(1.0451e-09 0 2.55536e-10)
(9.97528e-10 0 2.44537e-10)
(9.51929e-10 0 2.34211e-10)
(9.08196e-10 0 2.24494e-10)
(8.66228e-10 0 2.15332e-10)
(8.25933e-10 0 2.06675e-10)
(7.87225e-10 0 1.98481e-10)
(7.50024e-10 0 1.90714e-10)
(7.14257e-10 0 1.83341e-10)
(6.79854e-10 0 1.76334e-10)
(6.46751e-10 0 1.69667e-10)
(6.14887e-10 0 1.63318e-10)
(5.84206e-10 0 1.57268e-10)
(5.54653e-10 0 1.51498e-10)
(5.26178e-10 0 1.45995e-10)
(4.98732e-10 0 1.40743e-10)
(4.72268e-10 0 1.35731e-10)
(4.46744e-10 0 1.30949e-10)
(4.22116e-10 0 1.26387e-10)
(3.98344e-10 0 1.22036e-10)
(3.75388e-10 0 1.17889e-10)
(3.5321e-10 0 1.1394e-10)
(3.31774e-10 0 1.10183e-10)
(3.11043e-10 0 1.06614e-10)
(2.90983e-10 0 1.03227e-10)
(2.71558e-10 0 1.00019e-10)
(2.52734e-10 0 9.69871e-11)
(2.3448e-10 0 9.41281e-11)
(2.16761e-10 0 9.14394e-11)
(1.99545e-10 0 8.89188e-11)
(1.828e-10 0 8.65643e-11)
(1.66493e-10 0 8.43737e-11)
(1.50593e-10 0 8.23451e-11)
(1.35067e-10 0 8.04765e-11)
(1.19884e-10 0 7.87656e-11)
(1.05012e-10 0 7.72103e-11)
(9.04187e-11 0 7.58084e-11)
(7.60731e-11 0 7.4559e-11)
(6.19443e-11 0 7.34629e-11)
(4.80023e-11 0 7.25245e-11)
(3.42113e-11 0 7.17404e-11)
(2.04849e-11 0 7.10499e-11)
(6.81067e-12 0 7.0724e-11)
(-0.00183061 0 0.00738367)
(-0.00194625 0 0.00635722)
(-0.00531555 0 0.0041842)
(-0.0038931 0 0.00516051)
(-0.00571877 0 0.00262078)
(-0.00568017 0 0.0016446)
(-0.0063536 0 -0.000766153)
(-0.00654956 0 -0.00100338)
(-0.00606601 0 -0.00322126)
(-0.00559023 0 -0.00424286)
(-0.00564233 0 -0.00428947)
(-0.00127012 0 -0.00654445)
(-0.00265426 0 -0.00434576)
(-0.00133846 0 -0.0033671)
(1.01342e-05 0 -0.00223456)
(9.60172e-10 0 2.18941e-09)
(2.33498e-09 0 1.2406e-09)
(2.80101e-09 0 1.42306e-09)
(2.84871e-09 0 1.39132e-09)
(2.79007e-09 0 1.29282e-09)
(2.69743e-09 0 1.18026e-09)
(2.59225e-09 0 1.07256e-09)
(2.48307e-09 0 9.75724e-10)
(2.37409e-09 0 8.90732e-10)
(2.26752e-09 0 8.16731e-10)
(2.16456e-09 0 7.52313e-10)
(2.06578e-09 0 6.96034e-10)
(1.97143e-09 0 6.46604e-10)
(1.88151e-09 0 6.02928e-10)
(1.79592e-09 0 5.64098e-10)
(1.71449e-09 0 5.29373e-10)
(1.63701e-09 0 4.98142e-10)
(1.56325e-09 0 4.69908e-10)
(1.49301e-09 0 4.44256e-10)
(1.42606e-09 0 4.20844e-10)
(1.3622e-09 0 3.99386e-10)
(1.30123e-09 0 3.79642e-10)
(1.24299e-09 0 3.61407e-10)
(1.1873e-09 0 3.44508e-10)
(1.13402e-09 0 3.28797e-10)
(1.08299e-09 0 3.14148e-10)
(1.03411e-09 0 3.00449e-10)
(9.8724e-10 0 2.87606e-10)
(9.42279e-10 0 2.75537e-10)
(8.99124e-10 0 2.64171e-10)
(8.57684e-10 0 2.53443e-10)
(8.17872e-10 0 2.43301e-10)
(7.79607e-10 0 2.33695e-10)
(7.42815e-10 0 2.24583e-10)
(7.07426e-10 0 2.15929e-10)
(6.73375e-10 0 2.077e-10)
(6.40601e-10 0 1.99867e-10)
(6.09045e-10 0 1.92404e-10)
(5.78653e-10 0 1.85289e-10)
(5.49374e-10 0 1.78502e-10)
(5.21158e-10 0 1.72025e-10)
(4.93959e-10 0 1.65843e-10)
(4.67731e-10 0 1.59942e-10)
(4.42432e-10 0 1.54309e-10)
(4.18021e-10 0 1.48934e-10)
(3.94458e-10 0 1.43807e-10)
(3.71704e-10 0 1.38919e-10)
(3.49723e-10 0 1.34264e-10)
(3.28479e-10 0 1.29834e-10)
(3.07935e-10 0 1.25624e-10)
(2.88057e-10 0 1.21628e-10)
(2.68812e-10 0 1.17844e-10)
(2.50165e-10 0 1.14266e-10)
(2.32085e-10 0 1.10893e-10)
(2.14538e-10 0 1.0772e-10)
(1.97492e-10 0 1.04745e-10)
(1.80915e-10 0 1.01966e-10)
(1.64774e-10 0 9.93819e-11)
(1.49039e-10 0 9.69893e-11)
(1.33675e-10 0 9.47865e-11)
(1.18653e-10 0 9.27714e-11)
(1.03939e-10 0 9.09419e-11)
(8.95008e-11 0 8.92957e-11)
(7.53067e-11 0 8.78315e-11)
(6.13248e-11 0 8.65495e-11)
(4.75239e-11 0 8.54537e-11)
(3.38679e-11 0 8.45504e-11)
(2.02935e-11 0 8.38422e-11)
(6.75794e-12 0 8.34473e-11)
(-0.0013221 0 0.00952261)
(0.00191588 0 0.00812335)
(-0.00321753 0 0.00622123)
(-0.00668493 0 0.00304512)
(-0.00501712 0 0.00350963)
(-0.00601381 0 0.00125397)
(-0.00614028 0 -0.00032776)
(-0.00604781 0 -0.000865278)
(-0.00557451 0 -0.00388629)
(-0.0049598 0 -0.00524416)
(-0.00457099 0 -0.00583606)
(-0.00279334 0 -0.0060086)
(-0.00138807 0 -0.00544024)
(-0.00244431 0 -0.0034787)
(0.000260308 0 -0.00251863)
(3.78641e-09 0 2.09721e-08)
(1.88752e-09 0 1.3083e-09)
(3.0547e-09 0 1.50077e-09)
(2.83418e-09 0 1.47531e-09)
(2.70617e-09 0 1.38328e-09)
(2.59995e-09 0 1.27549e-09)
(2.49851e-09 0 1.17013e-09)
(2.39824e-09 0 1.07347e-09)
(2.29905e-09 0 9.87018e-10)
(2.20167e-09 0 9.1046e-10)
(2.1068e-09 0 8.42813e-10)
(2.01498e-09 0 7.82947e-10)
(1.92654e-09 0 7.29782e-10)
(1.84165e-09 0 6.82365e-10)
(1.76033e-09 0 6.39877e-10)
(1.68255e-09 0 6.01627e-10)
(1.6082e-09 0 5.67037e-10)
(1.53715e-09 0 5.35617e-10)
(1.46925e-09 0 5.06959e-10)
(1.40434e-09 0 4.80716e-10)
(1.34227e-09 0 4.56593e-10)
(1.28288e-09 0 4.34342e-10)
(1.22603e-09 0 4.13748e-10)
(1.17158e-09 0 3.94627e-10)
(1.1194e-09 0 3.7682e-10)
(1.06936e-09 0 3.60191e-10)
(1.02136e-09 0 3.44621e-10)
(9.75295e-10 0 3.30006e-10)
(9.31059e-10 0 3.16257e-10)
(8.88565e-10 0 3.03295e-10)
(8.47727e-10 0 2.91051e-10)
(8.08466e-10 0 2.79464e-10)
(7.70709e-10 0 2.68482e-10)
(7.34386e-10 0 2.58059e-10)
(6.99432e-10 0 2.48152e-10)
(6.65786e-10 0 2.38725e-10)
(6.33389e-10 0 2.29748e-10)
(6.02188e-10 0 2.2119e-10)
(5.72131e-10 0 2.13028e-10)
(5.43167e-10 0 2.05238e-10)
(5.15251e-10 0 1.97802e-10)
(4.88337e-10 0 1.90701e-10)
(4.62381e-10 0 1.83921e-10)
(4.37344e-10 0 1.77447e-10)
(4.13184e-10 0 1.71267e-10)
(3.89863e-10 0 1.65371e-10)
(3.67345e-10 0 1.59748e-10)
(3.45592e-10 0 1.54392e-10)
(3.2457e-10 0 1.49293e-10)
(3.04243e-10 0 1.44447e-10)
(2.84578e-10 0 1.39847e-10)
(2.65541e-10 0 1.35489e-10)
(2.47101e-10 0 1.31369e-10)
(2.29223e-10 0 1.27483e-10)
(2.11876e-10 0 1.23827e-10)
(1.95029e-10 0 1.20401e-10)
(1.78647e-10 0 1.172e-10)
(1.62701e-10 0 1.14223e-10)
(1.47158e-10 0 1.11468e-10)
(1.31986e-10 0 1.08933e-10)
(1.17152e-10 0 1.06616e-10)
(1.02625e-10 0 1.04514e-10)
(8.83705e-11 0 1.02627e-10)
(7.43565e-11 0 1.00952e-10)
(6.05495e-11 0 9.94891e-11)
(4.69158e-11 0 9.82431e-11)
(3.34202e-11 0 9.72259e-11)
(2.00203e-11 0 9.64659e-11)
(6.66916e-12 0 9.60386e-11)
(-0.00116179 0 0.00948827)
(-0.00196684 0 0.00862079)
(-0.00236417 0 0.00773673)
(-0.00131518 0 0.00720147)
(-0.0053644 0 0.00360886)
(-0.00479659 0 0.00379042)
(-0.00581801 0 -0.00186594)
(-0.00500055 0 -0.00129445)
(-0.00492577 0 -0.00393469)
(-0.00375247 0 -0.00638959)
(-0.00447889 0 -0.00644223)
(-0.00424711 0 -0.0065044)
(-0.00110846 0 -0.00683628)
(-0.00111385 0 -0.00486007)
(-6.73248e-05 0 -0.00253133)
(4.00729e-06 0 0.000128442)
(1.54625e-09 0 2.01498e-09)
(2.95643e-09 0 1.76924e-09)
(2.73858e-09 0 1.61751e-09)
(2.60325e-09 0 1.48749e-09)
(2.49837e-09 0 1.3685e-09)
(2.40379e-09 0 1.26002e-09)
(2.31248e-09 0 1.1622e-09)
(2.22245e-09 0 1.07458e-09)
(2.1336e-09 0 9.96336e-10)
(2.04635e-09 0 9.26463e-10)
(1.96119e-09 0 8.63963e-10)
(1.87853e-09 0 8.07909e-10)
(1.79863e-09 0 7.57475e-10)
(1.72163e-09 0 7.1194e-10)
(1.64759e-09 0 6.70679e-10)
(1.57649e-09 0 6.33158e-10)
(1.50828e-09 0 5.98915e-10)
(1.44286e-09 0 5.67555e-10)
(1.38014e-09 0 5.38738e-10)
(1.32e-09 0 5.12171e-10)
(1.26231e-09 0 4.87601e-10)
(1.20698e-09 0 4.64808e-10)
(1.15388e-09 0 4.43603e-10)
(1.10291e-09 0 4.23821e-10)
(1.05396e-09 0 4.05316e-10)
(1.00694e-09 0 3.87965e-10)
(9.6176e-10 0 3.71657e-10)
(9.18328e-10 0 3.56296e-10)
(8.76567e-10 0 3.41798e-10)
(8.36399e-10 0 3.2809e-10)
(7.97754e-10 0 3.15105e-10)
(7.60565e-10 0 3.02788e-10)
(7.24766e-10 0 2.91087e-10)
(6.903e-10 0 2.79959e-10)
(6.57108e-10 0 2.69363e-10)
(6.25137e-10 0 2.59265e-10)
(5.94335e-10 0 2.49635e-10)
(5.64654e-10 0 2.40444e-10)
(5.36047e-10 0 2.31669e-10)
(5.08469e-10 0 2.23288e-10)
(4.81877e-10 0 2.15283e-10)
(4.5623e-10 0 2.07635e-10)
(4.31488e-10 0 2.0033e-10)
(4.07613e-10 0 1.93354e-10)
(3.84567e-10 0 1.86697e-10)
(3.62315e-10 0 1.80347e-10)
(3.40821e-10 0 1.74295e-10)
(3.20051e-10 0 1.68534e-10)
(2.99971e-10 0 1.63056e-10)
(2.80548e-10 0 1.57856e-10)
(2.6175e-10 0 1.52928e-10)
(2.43543e-10 0 1.48268e-10)
(2.25896e-10 0 1.43871e-10)
(2.08778e-10 0 1.39736e-10)
(1.92156e-10 0 1.35859e-10)
(1.75999e-10 0 1.32238e-10)
(1.60276e-10 0 1.28871e-10)
(1.44953e-10 0 1.25755e-10)
(1.3e-10 0 1.22889e-10)
(1.15384e-10 0 1.20272e-10)
(1.01071e-10 0 1.17901e-10)
(8.703e-11 0 1.15775e-10)
(7.32254e-11 0 1.13893e-10)
(5.96228e-11 0 1.12255e-10)
(4.61866e-11 0 1.10867e-10)
(3.28835e-11 0 1.09739e-10)
(1.96853e-11 0 1.08902e-10)
(6.55468e-12 0 1.0844e-10)
(-0.00102314 0 0.00991121)
(-0.00178772 0 0.00920078)
(-0.00274018 0 0.00852974)
(-0.00298017 0 0.00702535)
(-0.00427067 0 0.00474786)
(-0.00473748 0 0.00253207)
(-0.00477771 0 0.000597669)
(-0.00443928 0 -0.00341425)
(-0.00554534 0 -0.00259301)
(-0.00311547 0 -0.00686025)
(-0.00405968 0 -0.00706458)
(-0.00267199 0 -0.00791921)
(-0.00224782 0 -0.00736412)
(-0.00170093 0 -0.00525712)
(-0.0017437 0 -0.0021896)
(-6.58259e-06 0 0.00030842)
(1.37307e-09 0 2.29485e-09)
(2.68264e-09 0 1.95486e-09)
(2.57099e-09 0 1.74055e-09)
(2.47382e-09 0 1.58199e-09)
(2.38785e-09 0 1.45228e-09)
(2.30628e-09 0 1.34056e-09)
(2.22561e-09 0 1.24195e-09)
(2.14483e-09 0 1.1539e-09)
(2.06412e-09 0 1.07485e-09)
(1.98404e-09 0 1.00363e-09)
(1.90519e-09 0 9.39317e-10)
(1.82808e-09 0 8.81103e-10)
(1.75304e-09 0 8.28289e-10)
(1.68032e-09 0 7.80256e-10)
(1.61004e-09 0 7.36457e-10)
(1.54225e-09 0 6.9641e-10)
(1.47696e-09 0 6.59692e-10)
(1.41412e-09 0 6.25929e-10)
(1.35369e-09 0 5.94797e-10)
(1.29557e-09 0 5.66007e-10)
(1.2397e-09 0 5.3931e-10)
(1.18598e-09 0 5.14486e-10)
(1.13433e-09 0 4.91342e-10)
(1.08466e-09 0 4.6971e-10)
(1.03688e-09 0 4.4944e-10)
(9.90925e-10 0 4.30403e-10)
(9.46704e-10 0 4.12486e-10)
(9.04148e-10 0 3.95586e-10)
(8.63185e-10 0 3.79617e-10)
(8.2375e-10 0 3.64501e-10)
(7.85778e-10 0 3.50168e-10)
(7.49211e-10 0 3.36559e-10)
(7.13989e-10 0 3.23621e-10)
(6.80059e-10 0 3.11304e-10)
(6.47368e-10 0 2.99569e-10)
(6.15866e-10 0 2.88379e-10)
(5.85505e-10 0 2.77699e-10)
(5.56241e-10 0 2.67501e-10)
(5.28028e-10 0 2.57759e-10)
(5.00825e-10 0 2.4845e-10)
(4.74591e-10 0 2.39553e-10)
(4.49287e-10 0 2.31051e-10)
(4.24874e-10 0 2.22927e-10)
(4.01316e-10 0 2.15166e-10)
(3.78577e-10 0 2.07756e-10)
(3.56622e-10 0 2.00686e-10)
(3.35417e-10 0 1.93947e-10)
(3.14929e-10 0 1.87528e-10)
(2.95124e-10 0 1.81424e-10)
(2.75972e-10 0 1.75628e-10)
(2.57439e-10 0 1.70133e-10)
(2.39495e-10 0 1.64936e-10)
(2.22107e-10 0 1.60033e-10)
(2.05245e-10 0 1.5542e-10)
(1.88877e-10 0 1.51095e-10)
(1.72972e-10 0 1.47055e-10)
(1.57499e-10 0 1.43299e-10)
(1.42426e-10 0 1.39824e-10)
(1.2772e-10 0 1.36629e-10)
(1.13349e-10 0 1.33713e-10)
(9.92812e-11 0 1.31074e-10)
(8.54818e-11 0 1.28712e-10)
(7.19165e-11 0 1.26627e-10)
(5.85488e-11 0 1.2482e-10)
(4.53423e-11 0 1.23295e-10)
(3.22668e-11 0 1.22057e-10)
(1.93181e-11 0 1.21114e-10)
(6.43872e-12 0 1.20627e-10)
(-0.00104127 0 0.0111272)
(-0.00130026 0 0.0102711)
(-0.0033397 0 0.00888558)
(-0.00286689 0 0.00743391)
(-0.0030346 0 0.00594461)
(-0.00367149 0 0.00359609)
(-0.00390074 0 0.00106913)
(-0.00277523 0 -0.00451958)
(-0.00593697 0 -0.00202318)
(-0.00241751 0 -0.00718473)
(-0.00303163 0 -0.0076996)
(-0.00326336 0 -0.00786087)
(-0.00133325 0 -0.00804724)
(-0.000909452 0 -0.0063328)
(-0.000760319 0 -0.00381761)
(-3.98559e-06 0 -0.00117768)
(1.23184e-09 0 2.31553e-09)
(2.43961e-09 0 2.03048e-09)
(2.39115e-09 0 1.81482e-09)
(2.33476e-09 0 1.65129e-09)
(2.27357e-09 0 1.52035e-09)
(2.20803e-09 0 1.40963e-09)
(2.13885e-09 0 1.31244e-09)
(2.06714e-09 0 1.22535e-09)
(1.99405e-09 0 1.14649e-09)
(1.92061e-09 0 1.07475e-09)
(1.84765e-09 0 1.00932e-09)
(1.77577e-09 0 9.4956e-10)
(1.70541e-09 0 8.94911e-10)
(1.63685e-09 0 8.44862e-10)
(1.57029e-09 0 7.98948e-10)
(1.50581e-09 0 7.56749e-10)
(1.44347e-09 0 7.17883e-10)
(1.38328e-09 0 6.82005e-10)
(1.3252e-09 0 6.48808e-10)
(1.26919e-09 0 6.18016e-10)
(1.21521e-09 0 5.89386e-10)
(1.16318e-09 0 5.62699e-10)
(1.11306e-09 0 5.37764e-10)
(1.06476e-09 0 5.14411e-10)
(1.01823e-09 0 4.9249e-10)
(9.73399e-10 0 4.71868e-10)
(9.30204e-10 0 4.52429e-10)
(8.88583e-10 0 4.34068e-10)
(8.48477e-10 0 4.16696e-10)
(8.09829e-10 0 4.00232e-10)
(7.72583e-10 0 3.84604e-10)
(7.36687e-10 0 3.6975e-10)
(7.02089e-10 0 3.55613e-10)
(6.68739e-10 0 3.42146e-10)
(6.36592e-10 0 3.29304e-10)
(6.056e-10 0 3.17048e-10)
(5.7572e-10 0 3.05345e-10)
(5.4691e-10 0 2.94162e-10)
(5.19129e-10 0 2.83473e-10)
(4.92336e-10 0 2.73253e-10)
(4.66494e-10 0 2.63482e-10)
(4.41564e-10 0 2.54139e-10)
(4.17512e-10 0 2.45207e-10)
(3.94302e-10 0 2.36672e-10)
(3.719e-10 0 2.2852e-10)
(3.50272e-10 0 2.20739e-10)
(3.29385e-10 0 2.13318e-10)
(3.09207e-10 0 2.06249e-10)
(2.89707e-10 0 1.99524e-10)
(2.70853e-10 0 1.93136e-10)
(2.52614e-10 0 1.8708e-10)
(2.34959e-10 0 1.8135e-10)
(2.17858e-10 0 1.75942e-10)
(2.01279e-10 0 1.70854e-10)
(1.85193e-10 0 1.66082e-10)
(1.69568e-10 0 1.61625e-10)
(1.54373e-10 0 1.57481e-10)
(1.39576e-10 0 1.53649e-10)
(1.25146e-10 0 1.50126e-10)
(1.1105e-10 0 1.46913e-10)
(9.72558e-11 0 1.44008e-10)
(8.37286e-11 0 1.41411e-10)
(7.04337e-11 0 1.39125e-10)
(5.73346e-11 0 1.37151e-10)
(4.43949e-11 0 1.35494e-10)
(3.15892e-11 0 1.34141e-10)
(1.8931e-11 0 1.33056e-10)
(6.32211e-12 0 1.32596e-10)
(-0.00195294 0 0.0128123)
(-0.00117432 0 0.0117428)
(-0.00104109 0 0.0097774)
(-0.00358066 0 0.00721323)
(-0.00377246 0 0.00520957)
(-0.0039526 0 0.0022745)
(-0.0032319 0 0.000967385)
(-0.00142873 0 -0.00412077)
(-0.00335325 0 -0.004351)
(-0.00162112 0 -0.00711955)
(-0.00105325 0 -0.00853982)
(-0.000456475 0 -0.00871896)
(-0.0017989 0 -0.00796569)
(-0.000571235 0 -0.00664616)
(-0.000873981 0 -0.0039461)
(-1.30776e-05 0 -0.00126151)
(1.11066e-09 0 2.31295e-09)
(2.21762e-09 0 2.0459e-09)
(2.21858e-09 0 1.84374e-09)
(2.20006e-09 0 1.69222e-09)
(2.16315e-09 0 1.57082e-09)
(2.11297e-09 0 1.4669e-09)
(2.05431e-09 0 1.37413e-09)
(1.99063e-09 0 1.28959e-09)
(1.92425e-09 0 1.2119e-09)
(1.85674e-09 0 1.14033e-09)
(1.78912e-09 0 1.07435e-09)
(1.7221e-09 0 1.01354e-09)
(1.65616e-09 0 9.57501e-10)
(1.59161e-09 0 9.05843e-10)
(1.52868e-09 0 8.58186e-10)
(1.46749e-09 0 8.1417e-10)
(1.40811e-09 0 7.73458e-10)
(1.35057e-09 0 7.35735e-10)
(1.29489e-09 0 7.00716e-10)
(1.24104e-09 0 6.68137e-10)
(1.189e-09 0 6.37763e-10)
(1.13873e-09 0 6.09382e-10)
(1.09019e-09 0 5.82806e-10)
(1.04333e-09 0 5.57864e-10)
(9.981e-10 0 5.34408e-10)
(9.54452e-10 0 5.12303e-10)
(9.12336e-10 0 4.91432e-10)
(8.71703e-10 0 4.71691e-10)
(8.32504e-10 0 4.52985e-10)
(7.9469e-10 0 4.35235e-10)
(7.58216e-10 0 4.18366e-10)
(7.23035e-10 0 4.02316e-10)
(6.89102e-10 0 3.87025e-10)
(6.56375e-10 0 3.72445e-10)
(6.2481e-10 0 3.5853e-10)
(5.94366e-10 0 3.45239e-10)
(5.65003e-10 0 3.32538e-10)
(5.36683e-10 0 3.20394e-10)
(5.09366e-10 0 3.08779e-10)
(4.83016e-10 0 2.97668e-10)
(4.57598e-10 0 2.87038e-10)
(4.33075e-10 0 2.76869e-10)
(4.09415e-10 0 2.67144e-10)
(3.86583e-10 0 2.57846e-10)
(3.64546e-10 0 2.48961e-10)
(3.43273e-10 0 2.40477e-10)
(3.22732e-10 0 2.32384e-10)
(3.02893e-10 0 2.24671e-10)
(2.83724e-10 0 2.17331e-10)
(2.65195e-10 0 2.10356e-10)
(2.47277e-10 0 2.03741e-10)
(2.29939e-10 0 1.97481e-10)
(2.13151e-10 0 1.91572e-10)
(1.96883e-10 0 1.86011e-10)
(1.81106e-10 0 1.80795e-10)
(1.65788e-10 0 1.75923e-10)
(1.50898e-10 0 1.71392e-10)
(1.36406e-10 0 1.67203e-10)
(1.22281e-10 0 1.63353e-10)
(1.08488e-10 0 1.59843e-10)
(9.49969e-11 0 1.56673e-10)
(8.17725e-11 0 1.53843e-10)
(6.87807e-11 0 1.51356e-10)
(5.59868e-11 0 1.49216e-10)
(4.33582e-11 0 1.47422e-10)
(3.08674e-11 0 1.45951e-10)
(1.8497e-11 0 1.44734e-10)
(6.17029e-12 0 1.44315e-10)
(-0.00107702 0 0.0135355)
(-0.001211 0 0.0120238)
(-0.00174661 0 0.0100305)
(-0.0017941 0 0.00810685)
(-0.000546637 0 0.00640892)
(-0.00097755 0 0.0040979)
(-0.00208658 0 0.00229807)
(-0.000223018 0 -0.00359852)
(-0.00246581 0 -0.0041892)
(-0.000267145 0 -0.00717793)
(-0.00127817 0 -0.00866233)
(-0.000727096 0 -0.00907649)
(0.000184254 0 -0.00843084)
(-0.000797559 0 -0.00673129)
(-0.000784098 0 -0.00411301)
(-1.55801e-05 0 -0.00157049)
(9.88382e-10 0 2.30123e-09)
(2.00493e-09 0 2.00524e-09)
(2.06315e-09 0 1.82875e-09)
(2.0815e-09 0 1.70699e-09)
(2.06436e-09 0 1.60615e-09)
(2.02532e-09 0 1.5145e-09)
(1.97412e-09 0 1.42867e-09)
(1.91642e-09 0 1.34787e-09)
(1.85541e-09 0 1.27199e-09)
(1.79291e-09 0 1.20101e-09)
(1.73001e-09 0 1.13485e-09)
(1.66744e-09 0 1.07334e-09)
(1.60564e-09 0 1.01625e-09)
(1.54494e-09 0 9.63316e-10)
(1.48553e-09 0 9.14231e-10)
(1.42756e-09 0 8.68695e-10)
(1.37111e-09 0 8.26413e-10)
(1.31624e-09 0 7.87099e-10)
(1.26298e-09 0 7.50486e-10)
(1.21132e-09 0 7.16327e-10)
(1.16126e-09 0 6.84396e-10)
(1.11278e-09 0 6.54489e-10)
(1.06587e-09 0 6.26419e-10)
(1.02048e-09 0 6.00021e-10)
(9.76596e-10 0 5.75146e-10)
(9.34175e-10 0 5.51662e-10)
(8.93182e-10 0 5.29451e-10)
(8.53579e-10 0 5.08409e-10)
(8.15327e-10 0 4.88443e-10)
(7.78389e-10 0 4.6947e-10)