0 	-1.04268e-107 	3.52911e-123 	-2.22439e-107
0.010101 	1.4309e-167 	-2.33416e-235 	-3.23864e-152
0.020202 	6.89079e-41 	-2.51809e-123 	-7.31933e-41
