/*--------------------------------*- C++ -*----------------------------------*\
  =========                 |
  \\      /  F ield         | OpenFOAM: The Open Source CFD Toolbox
   \\    /   O peration     | Website:  https://openfoam.org
    \\  /    A nd           | Version:  6
     \\/     M anipulation  |
\*---------------------------------------------------------------------------*/
FoamFile
{
    version     2.0;
    format      ascii;
    class       surfaceScalarField;
    location    "400";
    object      phi;
}
// * * * * * * * * * * * * * * * * * * * * * * * * * * * * * * * * * * * * * //

dimensions      [0 3 -1 0 0 0 0];

internalField   nonuniform List<scalar> 
9440
(
9.85535e-11
-9.85535e-11
1.89766e-10
-9.12127e-11
2.66732e-10
-7.69665e-11
3.42659e-10
-7.59273e-11
4.31372e-10
-8.87137e-11
4.24967e-10
6.40514e-12
4.06808e-10
1.8159e-11
3.70926e-10
3.58823e-11
2.66774e-10
1.04153e-10
8.17254e-11
1.85049e-10
-1.77751e-10
2.59477e-10
-5.26542e-10
3.48792e-10
-8.50147e-10
3.23606e-10
-1.11199e-09
2.61838e-10
-1.41323e-09
3.01249e-10
-1.64769e-09
2.34461e-10
-1.85098e-09
2.03288e-10
-2.05445e-09
2.03464e-10
-2.1855e-09
1.31051e-10
-2.26206e-09
7.65636e-11
-2.30297e-09
4.0905e-11
-2.31377e-09
1.07981e-11
-2.27392e-09
-3.98418e-11
-2.22418e-09
-4.97456e-11
-2.2079e-09
-1.62813e-11
-2.20418e-09
-3.72285e-12
-2.20368e-09
-4.96368e-13
-2.21841e-09
1.4731e-11
-2.2329e-09
1.44869e-11
-2.26147e-09
2.8568e-11
-2.29169e-09
3.02257e-11
-2.3451e-09
5.34072e-11
-2.38707e-09
4.19699e-11
-2.42357e-09
3.64978e-11
-2.45007e-09
2.64953e-11
-2.47396e-09
2.38966e-11
-2.49675e-09
2.27824e-11
-2.51597e-09
1.92177e-11
-2.5285e-09
1.25308e-11
-2.52835e-09
-1.48295e-13
-2.51369e-09
-1.46617e-11
-2.49195e-09
-2.17469e-11
-2.48353e-09
-8.41854e-12
-2.46359e-09
-1.99432e-11
-2.44991e-09
-1.36775e-11
-2.4508e-09
8.91681e-13
-2.44156e-09
-9.23905e-12
-2.41737e-09
-2.41984e-11
-2.39502e-09
-2.23414e-11
-2.37368e-09
-2.13486e-11
-2.32852e-09
-4.51616e-11
-2.26833e-09
-6.0184e-11
-2.17356e-09
-9.47754e-11
-2.14733e-09
-2.62254e-11
-2.1028e-09
-4.45302e-11
-2.06837e-09
-3.44354e-11
-2.02714e-09
-4.12349e-11
-1.956e-09
-7.11394e-11
-1.81857e-09
-1.37428e-10
-1.7901e-09
-2.84737e-11
-1.75015e-09
-3.99497e-11
-1.65405e-09
-9.61019e-11
-1.51689e-09
-1.37162e-10
-1.48656e-09
-3.03236e-11
-1.34578e-09
-1.40781e-10
-1.15394e-09
-1.91835e-10
-1.1307e-09
-2.32471e-11
-8.79119e-10
-2.51576e-10
-8.86885e-10
7.76731e-12
-7.57894e-10
-1.28991e-10
-6.94691e-10
-6.32023e-11
-6.46003e-10
-4.8687e-11
-6.11923e-10
-3.40803e-11
-6.25906e-10
1.3984e-11
-6.07429e-10
-1.8477e-11
-7.08466e-10
1.01038e-10
-9.14162e-10
2.05697e-10
-8.2198e-10
-9.21816e-11
-4.44013e-10
-3.77966e-10
-2.52571e-15
-4.44008e-10
4.14507e-19
-1.42362e-18
7.54096e-19
-3.39589e-19
9.07232e-19
-1.51113e-19
1.02582e-18
-1.17105e-19
1.13942e-18
-1.1234e-19
1.25245e-18
-1.11906e-19
1.36414e-18
-1.10826e-19
1.47247e-18
-1.07867e-19
1.57557e-18
-1.03059e-19
1.67164e-18
-9.64535e-20
1.75908e-18
-8.81752e-20
1.83651e-18
-7.84207e-20
1.90275e-18
-6.74309e-20
1.95684e-18
-5.546e-20
1.99813e-18
-4.27639e-20
2.02621e-18
-2.95957e-20
2.04094e-18
-1.61998e-20
2.04238e-18
-2.80239e-21
2.03083e-18
1.0398e-20
2.00679e-18
2.32238e-20
1.97091e-18
3.55076e-20
1.92394e-18
4.7089e-20
1.86662e-18
5.78336e-20
1.79968e-18
6.76566e-20
1.72381e-18
7.65238e-20
1.63968e-18
8.44325e-20
1.54796e-18
9.13905e-20
1.44931e-18
9.74146e-20
1.34436e-18
1.02544e-19
1.23385e-18
1.06855e-19
1.11855e-18
1.10451e-19
9.99374e-19
1.13448e-19
8.77243e-19
1.15951e-19
7.53079e-19
1.18043e-19
6.27715e-19
1.19793e-19
5.01842e-19
1.2126e-19
3.75959e-19
1.22493e-19
2.50342e-19
1.23524e-19
1.25054e-19
1.24337e-19
1.24855e-19
3.32157e-12
-1.01875e-10
4.71309e-11
-1.35023e-10
1.40851e-10
-1.70687e-10
2.35361e-10
-1.70438e-10
3.37398e-10
-1.9075e-10
3.4725e-10
-3.44654e-12
2.8684e-10
7.85699e-11
1.40871e-10
1.81851e-10
-6.90805e-11
3.14105e-10
-2.76802e-10
3.92772e-10
-4.95488e-10
4.78164e-10
-7.53309e-10
6.06613e-10
-1.04559e-09
6.15886e-10
-1.31453e-09
5.30776e-10
-1.42819e-09
4.14912e-10
-1.49313e-09
2.99404e-10
-1.71007e-09
4.20229e-10
-1.83216e-09
3.25555e-10
-1.91257e-09
2.11456e-10
-1.97348e-09
1.37474e-10
-1.98318e-09
5.06086e-11
-1.97357e-09
1.18689e-12
-1.9525e-09
-6.09157e-11
-1.93563e-09
-6.66131e-11
-1.94565e-09
-6.26258e-12
-1.9706e-09
2.12263e-11
-1.97676e-09
5.66322e-12
-1.98993e-09
2.78945e-11
-2.01438e-09
3.89386e-11
-2.04883e-09
6.30218e-11
-2.08915e-09
7.05427e-11
-2.11713e-09
8.13797e-11
-2.13838e-09
6.32221e-11
-2.14833e-09
4.64511e-11
-2.15694e-09
3.5101e-11
-2.15881e-09
2.5766e-11
-2.15983e-09
2.37925e-11
-2.17524e-09
3.46224e-11
-2.17757e-09
1.48628e-11
-2.16187e-09
-1.58484e-11
-2.13565e-09
-4.08843e-11
-2.10903e-09
-4.83675e-11
-2.09342e-09
-2.4036e-11
-2.08155e-09
-3.18147e-11
-2.0709e-09
-2.43314e-11
-2.0679e-09
-2.10692e-12
-2.06854e-09
-8.60122e-12
-2.07012e-09
-2.26113e-11
-2.07294e-09
-1.95206e-11
-2.0729e-09
-2.13955e-11
-2.05582e-09
-6.22369e-11
-2.0295e-09
-8.6514e-11
-2.01584e-09
-1.08436e-10
-1.97097e-09
-7.10948e-11
-1.95813e-09
-5.73713e-11
-1.92216e-09
-7.04072e-11
-1.89192e-09
-7.14752e-11
-1.82891e-09
-1.34152e-10
-1.74522e-09
-2.21121e-10
-1.59916e-09
-1.74539e-10
-1.48379e-09
-1.55316e-10
-1.4266e-09
-1.53295e-10
-1.35678e-09
-2.06978e-10
-1.25214e-09
-1.34964e-10
-1.09152e-09
-3.01402e-10
-8.90171e-10
-3.93179e-10
-8.19213e-10
-9.42037e-11
-6.67271e-10
-4.03517e-10
-5.61682e-10
-9.78203e-11
-4.17206e-10
-2.73466e-10
-2.86326e-10
-1.94082e-10
-1.58962e-10
-1.7605e-10
-7.49093e-11
-1.18133e-10
-7.38244e-11
1.28999e-11
-1.51906e-11
-7.71097e-11
3.95571e-11
4.62916e-11
1.2252e-10
1.22735e-10
-2.62775e-11
5.66178e-11
-3.07529e-10
-9.67143e-11
-7.5865e-16
-7.51539e-10
1.38218e-18
1.13171e-18
9.4024e-19
1.02028e-19
9.39555e-19
-1.48252e-19
1.02955e-18
-2.04638e-19
1.13948e-18
-2.20184e-19
1.25362e-18
-2.24544e-19
1.3671e-18
-2.2348e-19
1.47728e-18
-2.17942e-19
1.58217e-18
-2.08486e-19
1.67992e-18
-1.95297e-19
1.76884e-18
-1.78657e-19
1.8475e-18
-1.58968e-19
1.91472e-18
-1.36716e-19
1.96954e-18
-1.12426e-19
2.0113e-18
-8.66263e-20
2.03961e-18
-5.98328e-20
2.05433e-18
-3.25316e-20
2.05558e-18
-5.18855e-21
2.04366e-18
2.17391e-20
2.01907e-18
4.78046e-20
1.98249e-18
7.2588e-20
1.93468e-18
9.57284e-20
1.87644e-18
1.16959e-19
1.80854e-18
1.3612e-19
1.73171e-18
1.53147e-19
1.64664e-18
1.68055e-19
1.55399e-18
1.80935e-19
1.45444e-18
1.9196e-19
1.34867e-18
2.01377e-19
1.23744e-18
2.09477e-19
1.12155e-18
2.16544e-19
1.00188e-18
2.22804e-19
8.79336e-19
2.28408e-19
7.54829e-19
2.33427e-19
6.29182e-19
2.37872e-19
5.03075e-19
2.41718e-19
3.7699e-19
2.44918e-19
2.51156e-19
2.4741e-19
1.25572e-19
2.49114e-19
2.4987e-19
5.36263e-11
-1.55502e-10
9.09932e-11
-1.7239e-10
1.31959e-10
-2.11653e-10
1.4932e-10
-1.878e-10
5.80967e-11
-9.95272e-11
2.04503e-11
3.41998e-11
-9.2925e-11
1.91945e-10
-1.31061e-10
2.19987e-10
-2.96766e-10
4.7981e-10
-4.63902e-10
5.59908e-10
-7.25735e-10
7.39998e-10
-9.23118e-10
8.03996e-10
-1.07196e-09
7.6473e-10
-1.2014e-09
6.60215e-10
-1.30605e-09
5.19566e-10
-1.4401e-09
4.33452e-10
-1.47179e-09
4.51921e-10
-1.53957e-09
3.93331e-10
-1.59832e-09
2.70209e-10
-1.61987e-09
1.59019e-10
-1.6611e-09
9.18362e-11
-1.65108e-09
-8.83153e-12
-1.6769e-09
-3.50907e-11
-1.73837e-09
-5.14986e-12
-1.76762e-09
2.29942e-11
-1.78432e-09
3.79205e-11
-1.81712e-09
3.84627e-11
-1.83667e-09
4.74416e-11
-1.87132e-09
7.35907e-11
-1.90775e-09
9.94543e-11
-1.94035e-09
1.03141e-10
-1.96642e-09
1.07444e-10
-1.99094e-09
8.77459e-11
-2.00917e-09
6.46742e-11
-2.01492e-09
4.08555e-11
-2.00929e-09
2.01291e-11
-2.00343e-09
1.79265e-11
-1.99679e-09
2.79885e-11
-1.99057e-09
8.63316e-12
-1.98216e-09
-2.42609e-11
-1.9668e-09
-5.62412e-11
-1.95416e-09
-6.10104e-11
-1.93223e-09
-4.59708e-11
-1.91592e-09
-4.81221e-11
-1.8991e-09
-4.11545e-11
-1.8845e-09
-1.67099e-11
-1.88161e-09
-1.14907e-11
-1.87359e-09
-3.06277e-11
-1.85777e-09
-3.53415e-11
-1.83998e-09
-3.91855e-11
-1.83684e-09
-6.53772e-11
-1.81907e-09
-1.04289e-10
-1.81303e-09
-1.14479e-10
-1.77667e-09
-1.07453e-10
-1.73702e-09
-9.70243e-11
-1.73547e-09
-7.19599e-11
-1.72985e-09
-7.70944e-11
-1.72079e-09
-1.43216e-10
-1.73515e-09
-2.06755e-10
-1.66898e-09
-2.40715e-10
-1.54316e-09
-2.81134e-10
-1.39475e-09
-3.01703e-10
-1.28838e-09
-3.13349e-10
-1.11913e-09
-3.04217e-10
-1.01724e-09
-4.03286e-10
-9.05987e-10
-5.04436e-10
-7.2613e-10
-2.74059e-10
-6.32316e-10
-4.97331e-10
-4.48079e-10
-2.82056e-10
-3.29486e-10
-3.92058e-10
-1.83026e-10
-3.40542e-10
-4.70432e-11
-3.12032e-10
3.16949e-11
-1.9687e-10
7.33158e-11
-2.872e-11
1.53391e-10
-1.57183e-10
3.78325e-10
-1.7864e-10
6.13116e-10
-1.12054e-10
6.39153e-10
3.05844e-11
2.07408e-10
3.35037e-10
-9.11885e-16
-5.44127e-10
1.37185e-19
-1.53213e-18
6.9041e-19
-4.50122e-19
8.8361e-19
-3.3888e-19
1.01444e-18
-3.33017e-19
1.13556e-18
-3.39217e-19
1.255e-18
-3.42355e-19
1.37263e-18
-3.39939e-19
1.48673e-18
-3.31343e-19
1.59536e-18
-3.1683e-19
1.69656e-18
-2.96562e-19
1.78853e-18
-2.70943e-19
1.86976e-18
-2.40599e-19
1.93901e-18
-2.06306e-19
1.99534e-18
-1.6891e-19
2.03809e-18
-1.29273e-19
2.06691e-18
-8.82391e-20
2.08168e-18
-4.66201e-20
2.08251e-18
-5.18142e-21
2.06972e-18
3.53683e-20
2.04386e-18
7.43897e-20
2.00563e-18
1.1132e-19
1.95591e-18
1.45686e-19
1.8956e-18
1.77129e-19
1.82557e-18
2.05439e-19
1.74662e-18
2.30559e-19
1.65952e-18
2.52574e-19
1.56501e-18
2.71679e-19
1.46385e-18
2.88165e-19
1.35678e-18
3.02389e-19
1.24451e-18
3.14735e-19
1.12781e-18
3.25563e-19
1.00748e-18
3.35163e-19
8.84354e-19
3.43723e-19
7.59275e-19
3.51336e-19
6.33028e-19
3.58013e-19
5.06275e-19
3.63712e-19
3.79482e-19
3.68363e-19
2.5286e-19
3.71876e-19
1.26328e-19
3.74151e-19
3.75101e-19
2.20794e-12
-1.57711e-10
3.63118e-11
-2.06495e-10
5.01841e-11
-2.25526e-10
4.41731e-12
-1.42034e-10
-1.18663e-10
2.35525e-11
-1.11709e-10
2.7246e-11
-2.22075e-10
3.02311e-10
-3.65899e-10
3.63811e-10
-5.51569e-10
6.65479e-10
-7.43751e-10
7.5209e-10
-9.07269e-10
9.03516e-10
-1.01715e-09
9.13877e-10
-1.06647e-09
8.14047e-10
-1.12195e-09
7.15693e-10
-1.18294e-09
5.80557e-10
-1.23115e-09
4.81667e-10
-1.22647e-09
4.47236e-10
-1.24773e-09
4.14598e-10
-1.29609e-09
3.18566e-10
-1.32811e-09
1.91041e-10
-1.40867e-09
1.72394e-10
-1.49322e-09
7.57183e-11
-1.59969e-09
7.13778e-11
-1.67232e-09
6.74859e-11
-1.69759e-09
4.82628e-11
-1.72693e-09
6.7258e-11
-1.75217e-09
6.37036e-11
-1.76361e-09
5.88847e-11
-1.76746e-09
7.7435e-11
-1.77992e-09
1.11918e-10
-1.79713e-09
1.20351e-10
-1.79985e-09
1.10156e-10
-1.81416e-09
1.02058e-10
-1.83829e-09
8.87975e-11
-1.8676e-09
7.01651e-11
-1.86687e-09
1.93967e-11
-1.86551e-09
1.65701e-11
-1.84757e-09
1.0037e-11
-1.82294e-09
-1.59938e-11
-1.7981e-09
-4.91062e-11
-1.77773e-09
-7.66108e-11
-1.74752e-09
-9.12193e-11
-1.71949e-09
-7.40028e-11
-1.70071e-09
-6.69038e-11
-1.68277e-09
-5.90932e-11
-1.6533e-09
-4.61843e-11
-1.63226e-09
-3.25289e-11
-1.63283e-09
-3.00632e-11
-1.62034e-09
-4.78346e-11
-1.60233e-09
-5.7192e-11
-1.58976e-09
-7.79528e-11
-1.5806e-09
-1.13451e-10
-1.5586e-09
-1.36473e-10
-1.54827e-09
-1.17785e-10
-1.53938e-09
-1.0592e-10
-1.51653e-09
-9.48136e-11
-1.49494e-09
-9.86808e-11
-1.50089e-09
-1.37271e-10
-1.51084e-09
-1.96805e-10
-1.49602e-09
-2.55537e-10
-1.46476e-09
-3.12386e-10
-1.42006e-09
-3.46406e-10
-1.28882e-09
-4.44586e-10
-1.12578e-09
-4.67265e-10
-1.00303e-09
-5.26029e-10
-8.90696e-10
-6.16773e-10
-6.47064e-10
-5.17691e-10
-5.84979e-10
-5.59415e-10
-3.56146e-10
-5.10889e-10
-2.48268e-10
-4.99936e-10
-1.51848e-10
-4.36961e-10
-1.27286e-10
-3.36593e-10
-1.31367e-11
-3.11018e-10
1.66394e-10
-2.08249e-10
1.19304e-10
-1.10091e-10
-1.11091e-10
5.17571e-11
-5.20447e-10
2.97305e-10
-6.48693e-10
1.58833e-10
-2.18333e-10
-9.532e-11
-1.0104e-15
-7.62457e-10
9.03941e-19
-3.37009e-19
8.0208e-19
-3.4691e-19
8.89906e-19
-4.2386e-19
1.00868e-18
-4.49162e-19
1.13285e-18
-4.61097e-19
1.25774e-18
-4.65258e-19
1.38123e-18
-4.61756e-19
1.50125e-18
-4.49978e-19
1.61563e-18
-4.30053e-19
1.72218e-18
-4.02144e-19
1.81887e-18
-3.66782e-19
1.90405e-18
-3.24848e-19
1.97641e-18
-2.77475e-19
2.03498e-18
-2.25925e-19
2.07913e-18
-1.71496e-19
2.10853e-18
-1.15449e-19
2.12311e-18
-5.89593e-20
2.12305e-18
-3.08958e-21
2.10874e-18
5.12218e-20
2.08079e-18
1.03177e-19
2.04e-18
1.52119e-19
1.98736e-18
1.97523e-19
1.92391e-18
2.3901e-19
1.85069e-18
2.76375e-19
1.76864e-18
3.09603e-19
1.67862e-18
3.38846e-19
1.5815e-18
3.64382e-19
1.47808e-18
3.86569e-19
1.36912e-18
4.05815e-19
1.25534e-18
4.22545e-19
1.13741e-18
4.37155e-19
1.01604e-18
4.49979e-19
8.91967e-19
4.61256e-19
7.65951e-19
4.71129e-19
6.38727e-19
4.79652e-19
5.10926e-19
4.86817e-19
3.82995e-19
4.92574e-19
2.55134e-19
4.96849e-19
1.27278e-19
4.99564e-19
5.00667e-19
2.3146e-11
-1.80857e-10
-3.33055e-12
-1.8002e-10
-8.38875e-11
-1.4497e-10
-2.23523e-10
-2.39875e-12
-2.72022e-10
7.20504e-11
-3.38208e-10
9.34311e-11
-4.33724e-10
3.97827e-10
-6.32743e-10
5.6283e-10
-7.62047e-10
7.94782e-10
-9.33191e-10
9.23234e-10
-1.00998e-09
9.80301e-10
-1.05802e-09
9.61923e-10
-1.06542e-09
8.21441e-10
-1.06708e-09
7.1736e-10
-1.09781e-09
6.11283e-10
-1.1395e-09
5.23352e-10
-1.1578e-09
4.65537e-10
-1.1578e-09
4.14604e-10
-1.22426e-09
3.85028e-10
-1.3101e-09
2.76879e-10
-1.37779e-09
2.40079e-10
-1.46619e-09
1.64122e-10
-1.56285e-09
1.6804e-10
-1.63339e-09
1.38031e-10
-1.68057e-09
9.54339e-11
-1.71466e-09
1.01351e-10
-1.7251e-09
7.41429e-11
-1.73027e-09
6.40585e-11
-1.71057e-09
5.77335e-11
-1.68288e-09
8.42273e-11
-1.662e-09
9.94655e-11
-1.6428e-09
9.09616e-11
-1.63927e-09
9.85219e-11
-1.65192e-09
1.01447e-10
-1.66753e-09
8.57734e-11
-1.6677e-09
1.9562e-11
-1.65897e-09
7.83335e-12
-1.65361e-09
4.68328e-12
-1.64495e-09
-2.46593e-11
-1.62116e-09
-7.29011e-11
-1.58685e-09
-1.10925e-10
-1.56836e-09
-1.09707e-10
-1.51858e-09
-1.23789e-10
-1.47731e-09
-1.08172e-10
-1.46798e-09
-6.8421e-11
-1.44386e-09
-7.03125e-11
-1.41033e-09
-6.60539e-11
-1.39178e-09
-4.86193e-11
-1.3721e-09
-6.75111e-11
-1.35178e-09
-7.75115e-11
-1.34511e-09
-8.46242e-11
-1.35139e-09
-1.07168e-10
-1.35666e-09
-1.31207e-10
-1.32867e-09
-1.45775e-10
-1.32313e-09
-1.1146e-10
-1.32273e-09
-9.52149e-11
-1.30164e-09
-1.19773e-10
-1.30174e-09
-1.37171e-10
-1.31512e-09
-1.8343e-10
-1.31096e-09
-2.59697e-10
-1.3082e-09
-3.15149e-10
-1.27922e-09
-3.75383e-10
-1.24104e-09
-4.82764e-10
-1.11299e-09
-5.95315e-10
-9.75767e-10
-6.63254e-10
-9.15628e-10
-6.76912e-10
-7.55631e-10
-6.77688e-10
-5.96321e-10
-7.18726e-10
-4.30387e-10
-6.76823e-10
-3.39563e-10
-5.9076e-10
-2.0234e-10
-5.74183e-10
-7.42036e-11
-4.64729e-10
1.31314e-11
-3.98351e-10
1.23234e-10
-3.18349e-10
2.31854e-10
-2.18708e-10
3.40734e-10
-5.71199e-11
4.10084e-10
2.27958e-10
3.40596e-10
2.28323e-10
1.49076e-10
9.6204e-11
-8.88118e-16
-6.13378e-10
5.40548e-19
-8.65653e-19
7.25563e-19
-5.30485e-19
8.65033e-19
-5.60581e-19
9.97169e-19
-5.78718e-19
1.12912e-18
-5.90665e-19
1.26156e-18
-5.9546e-19
1.39301e-18
-5.91138e-19
1.52117e-18
-5.76245e-19
1.64354e-18
-5.50622e-19
1.75754e-18
-5.14451e-19
1.8608e-18
-4.68452e-19
1.95142e-18
-4.13828e-19
2.02796e-18
-3.52147e-19
2.08941e-18
-2.85177e-19
2.13517e-18
-2.14743e-19
2.16502e-18
-1.42601e-19
2.17898e-18
-7.03412e-20
2.17737e-18
6.57089e-22
2.1607e-18
6.92332e-20
2.12973e-18
1.34453e-19
2.0854e-18
1.95602e-19
2.02884e-18
2.52155e-19
1.96128e-18
3.03767e-19
1.88392e-18
3.50278e-19
1.79788e-18
3.91724e-19
1.70416e-18
4.28317e-19
1.60369e-18
4.6039e-19
1.49732e-18
4.88345e-19
1.38585e-18
5.12612e-19
1.26995e-18
5.33634e-19
1.15023e-18
5.51835e-19
1.02732e-18
5.67594e-19
9.0184e-19
5.81221e-19
7.74474e-19
5.92938e-19
6.45893e-19
6.02886e-19
5.16683e-19
6.11128e-19
3.8727e-19
6.1767e-19
2.57848e-19
6.22479e-19
1.28382e-19
6.25509e-19
6.2674e-19
-1.0108e-10
-7.97776e-11
-1.77282e-10
-1.03818e-10
-2.69357e-10
-5.28955e-11
-3.73733e-10
1.01977e-10
-4.53475e-10
1.51791e-10
-5.37853e-10
1.77809e-10
-6.8135e-10
5.41323e-10
-7.83333e-10
6.64812e-10
-8.79607e-10
8.91056e-10
-9.66047e-10
1.00967e-09
-1.03434e-09
1.04859e-09
-1.07111e-09
9.98694e-10
-1.06358e-09
8.13909e-10
-1.044e-09
6.97777e-10
-1.04804e-09
6.1533e-10
-1.06535e-09
5.40661e-10
-1.10566e-09
5.0585e-10
-1.10522e-09
4.14158e-10
-1.15032e-09
4.30134e-10
-1.24794e-09
3.74496e-10
-1.32564e-09
3.17781e-10
-1.42625e-09
2.64738e-10
-1.52565e-09
2.67436e-10
-1.59279e-09
2.05177e-10
-1.66507e-09
1.67713e-10
-1.68385e-09
1.20131e-10
-1.70866e-09
9.89496e-11
-1.7101e-09
6.54924e-11
-1.70035e-09
4.79815e-11
-1.66186e-09
4.57428e-11
-1.5837e-09
2.12979e-11
-1.52525e-09
3.25113e-11
-1.49824e-09
7.15097e-11
-1.47788e-09
8.10899e-11
-1.41814e-09
2.60266e-11
-1.38958e-09
-8.99696e-12
-1.38638e-09
4.62363e-12
-1.4042e-09
2.25067e-11
-1.40157e-09
-2.72879e-11
-1.3884e-09
-8.60761e-11
-1.34737e-09
-1.51956e-10
-1.31702e-09
-1.40059e-10
-1.28132e-09
-1.59486e-10
-1.25982e-09
-1.29682e-10
-1.28083e-09
-4.7412e-11
-1.28502e-09
-6.61212e-11
-1.27788e-09
-7.3195e-11
-1.29259e-09
-3.3913e-11
-1.28346e-09
-7.6643e-11
-1.24898e-09
-1.11985e-10
-1.24955e-09
-8.40614e-11
-1.24833e-09
-1.08382e-10
-1.24229e-09
-1.37247e-10
-1.15997e-09
-2.28099e-10
-1.17208e-09
-9.93492e-11
-1.16301e-09
-1.04289e-10
-1.09431e-09
-1.88472e-10
-1.07938e-09
-1.521e-10
-1.09184e-09
-1.70973e-10
-1.12524e-09
-2.26291e-10
-1.16441e-09
-2.7598e-10
-1.14541e-09
-3.94386e-10
-1.09237e-09
-5.35802e-10
-1.0073e-09
-6.80389e-10
-9.31218e-10
-7.39338e-10
-8.76587e-10
-7.31544e-10
-7.15158e-10
-8.39118e-10
-5.74237e-10
-8.59647e-10
-4.08971e-10
-8.42089e-10
-2.3893e-10
-7.60801e-10
-1.44764e-10
-6.68348e-10
-4.45162e-11
-5.64975e-10
2.02912e-11
-4.63157e-10
5.09692e-11
-3.49025e-10
2.16223e-10
-3.83959e-10
4.14252e-10
-2.55146e-10
6.4437e-10
-2.15674e-12
6.61605e-10
2.11092e-10
3.03074e-10
4.54738e-10
-5.98919e-16
-3.10302e-10
4.7803e-19
-1.33526e-18
6.95893e-19
-7.46929e-19
8.47319e-19
-7.09688e-19
9.85643e-19
-7.14766e-19
1.12474e-18
-7.27515e-19
1.26619e-18
-7.34603e-19
1.4079e-18
-7.30572e-19
1.54679e-18
-7.12977e-19
1.67971e-18
-6.81457e-19
1.80354e-18
-6.36338e-19
1.91543e-18
-5.78653e-19
2.0131e-18
-5.10034e-19
2.09493e-18
-4.32571e-19
2.15984e-18
-3.48622e-19
2.20732e-18
-2.6062e-19
2.23728e-18
-1.70895e-19
2.24998e-18
-8.15189e-20
2.24594e-18
5.77631e-21
2.22592e-18
8.95933e-20
2.19088e-18
1.68861e-19
2.14196e-18
2.42816e-19
2.08045e-18
3.1096e-19
2.00779e-18
3.73007e-19
1.92537e-18
4.28866e-19
1.83447e-18
4.78639e-19
1.73623e-18
5.22594e-19
1.63164e-18
5.61118e-19
1.52159e-18
5.94655e-19
1.40687e-18
6.23674e-19
1.28815e-18
6.48646e-19
1.16599e-18
6.70038e-19
1.04094e-18
6.88294e-19
9.13557e-19
7.03812e-19
7.84422e-19
7.16921e-19
6.54135e-19
7.27868e-19
5.23225e-19
7.36814e-19
3.92079e-19
7.43841e-19
2.60878e-19
7.48972e-19
1.29612e-19
7.52203e-19
7.5354e-19
-2.37342e-10
1.57564e-10
-3.84424e-10
4.32633e-11
-4.56986e-10
1.96662e-11
-5.03028e-10
1.48019e-10
-6.60448e-10
3.0921e-10
-8.14418e-10
3.31779e-10
-9.07351e-10
6.34256e-10
-1.02422e-09
7.81677e-10
-1.05017e-09
9.17008e-10
-1.03284e-09
9.92348e-10
-1.01286e-09
1.02861e-09
-1.00085e-09
9.86676e-10
-9.78121e-10
7.91184e-10
-9.60523e-10
6.80179e-10
-9.59192e-10
6.13999e-10
-9.76955e-10
5.58425e-10
-1.01167e-09
5.40566e-10
-1.08232e-09
4.84813e-10
-1.12154e-09
4.69348e-10
-1.18376e-09
4.36724e-10
-1.24282e-09
3.76841e-10
-1.34179e-09
3.63708e-10
-1.46123e-09
3.86876e-10
-1.52908e-09
2.73025e-10
-1.6178e-09
2.5643e-10
-1.66124e-09
1.63571e-10
-1.71801e-09
1.5572e-10
-1.73499e-09
8.24737e-11
-1.74765e-09
6.06351e-11
-1.71991e-09
1.80046e-11
-1.61382e-09
-8.47924e-11
-1.50508e-09
-7.62279e-11
-1.40346e-09
-3.01153e-11
-1.32917e-09
6.7973e-12
-1.22558e-09
-7.75664e-11
-1.16993e-09
-6.46503e-11
-1.1442e-09
-2.11068e-11
-1.17211e-09
5.04185e-11
-1.12809e-09
-7.13165e-11
-1.07221e-09
-1.41954e-10
-1.05086e-09
-1.73307e-10
-9.96259e-10
-1.94663e-10
-9.61003e-10
-1.94744e-10
-9.77175e-10
-1.13511e-10
-9.53523e-10
-7.10654e-11
-1.01897e-09
-6.74894e-13
-1.04929e-09
-4.28806e-11
-1.086e-09
2.80283e-12
-1.13167e-09
-3.09749e-11
-1.15519e-09
-8.84735e-11
-1.16802e-09
-7.12236e-11
-1.15319e-09
-1.23217e-10
-1.13348e-09
-1.56958e-10
-1.13243e-09
-2.29148e-10
-1.07747e-09
-1.54315e-10
-9.6915e-10
-2.12605e-10
-9.42329e-10
-2.15293e-10
-9.05005e-10
-1.89425e-10
-8.64132e-10
-2.11847e-10
-8.83516e-10
-2.06909e-10
-9.11759e-10
-2.47738e-10
-9.31381e-10
-3.74765e-10
-9.45546e-10
-5.21639e-10
-9.80796e-10
-6.4514e-10
-9.64565e-10
-7.55571e-10
-8.37449e-10
-8.58661e-10
-7.31154e-10
-9.45414e-10
-6.25379e-10
-9.65423e-10
-4.7455e-10
-9.92917e-10
-3.35771e-10
-8.99579e-10
-2.47496e-10
-7.56621e-10
-1.23193e-10
-6.89277e-10
4.71975e-12
-5.91067e-10
9.05058e-11
-4.34808e-10
-2.53579e-11
-2.68092e-10
-2.934e-10
1.2898e-11
-5.98728e-10
3.03174e-10
-4.73022e-10
8.53886e-11
-9.52979e-11
7.70156e-11
-2.86863e-16
-4.05598e-10
6.31595e-19
-1.66705e-18
7.33551e-19
-8.47672e-19
8.42658e-19
-8.17032e-19
9.73309e-19
-8.43524e-19
1.11806e-18
-8.70225e-19
1.27052e-18
-8.84738e-19
1.4255e-18
-8.83091e-19
1.57831e-18
-8.63451e-19
1.72483e-18
-8.25779e-19
1.86122e-18
-7.70794e-19
1.98405e-18
-7.00034e-19
2.09057e-18
-6.1572e-19
2.17887e-18
-5.20591e-19
2.24784e-18
-4.17681e-19
2.29704e-18
-3.10107e-19
2.32665e-18
-2.00854e-19
2.33728e-18
-9.25452e-20
2.32976e-18
1.26698e-20
2.30519e-18
1.13124e-19
2.26483e-18
2.07594e-19
2.2101e-18
2.95258e-19
2.1425e-18
3.7564e-19
2.06365e-18
4.48531e-19
1.97514e-18
5.13931e-19
1.87843e-18
5.72026e-19
1.77476e-18
6.23164e-19
1.66518e-18
6.67809e-19
1.55061e-18
7.06483e-19
1.43184e-18
7.39726e-19
1.30954e-18
7.68084e-19
1.18425e-18
7.92099e-19
1.05646e-18
8.12303e-19
9.26666e-19
8.292e-19
7.95369e-19
8.43235e-19
6.6308e-19
8.54771e-19
5.30252e-19
8.64074e-19
3.9721e-19
8.71312e-19
2.6411e-19
8.76572e-19
1.30948e-19
8.79893e-19
8.81309e-19
-2.56013e-10
4.13577e-10
-5.48516e-10
3.35766e-10
-7.45564e-10
2.16714e-10
-7.42476e-10
1.44931e-10
-7.65033e-10
3.31767e-10
-9.40926e-10
5.07671e-10
-1.03058e-09
7.23914e-10
-1.11145e-09
8.62543e-10
-1.10918e-09
9.14741e-10
-1.04925e-09
9.32412e-10
-9.72614e-10
9.51979e-10
-9.23343e-10
9.37405e-10
-9.06091e-10
7.73932e-10
-8.5152e-10
6.25609e-10
-7.87784e-10
5.50264e-10
-7.61278e-10
5.3192e-10
-7.66248e-10
5.45536e-10
-8.61691e-10
5.80256e-10
-1.00669e-09
6.14353e-10
-1.13737e-09
5.67396e-10
-1.20375e-09
4.43221e-10
-1.27444e-09
4.34403e-10
-1.36687e-09
4.7931e-10
-1.46376e-09
3.69914e-10
-1.5602e-09
3.52864e-10
-1.65893e-09
2.62304e-10
-1.74295e-09
2.39742e-10
-1.79664e-09
1.36155e-10
-1.84458e-09
1.08579e-10
-1.8728e-09
4.62167e-11
-1.77408e-09
-1.83515e-10
-1.6798e-09
-1.70501e-10
-1.56331e-09
-1.46611e-10
-1.40975e-09
-1.46762e-10
-1.28532e-09
-2.02003e-10
-1.17552e-09
-1.74447e-10
-1.09806e-09
-9.85671e-11
-1.09976e-09
5.21152e-11
-9.96258e-10
-1.74822e-10
-7.3867e-10
-3.99542e-10
-6.88951e-10
-2.23029e-10
-5.98743e-10
-2.84871e-10
-5.77254e-10
-2.16235e-10
-5.99926e-10
-9.08415e-11
-6.52471e-10
-1.85223e-11
-7.53414e-10
1.00267e-10
-8.4784e-10
5.15433e-11
-8.78883e-10
3.38444e-11
-9.05044e-10
-4.8155e-12
-9.33769e-10
-5.97495e-11
-9.50727e-10
-5.42663e-11
-1.0015e-09
-7.24474e-11
-1.02598e-09
-1.32476e-10
-1.05687e-09
-1.98255e-10
-9.72739e-10
-2.38449e-10
-9.17566e-10
-2.67779e-10
-8.9383e-10
-2.39029e-10
-7.95306e-10
-2.87949e-10
-7.27613e-10
-2.79541e-10
-7.12095e-10
-2.22427e-10
-7.03911e-10
-2.55923e-10
-7.58187e-10
-3.20489e-10
-8.09628e-10
-4.70199e-10
-8.06766e-10
-6.48003e-10
-7.9718e-10
-7.65158e-10
-7.64603e-10
-8.91239e-10
-7.00498e-10
-1.00952e-09
-5.92474e-10
-1.07345e-09
-4.92581e-10
-1.09281e-09
-3.93908e-10
-9.98251e-10
-2.72487e-10
-8.78042e-10
-1.55752e-10
-8.0601e-10
-5.07728e-11
-6.96045e-10
4.39439e-11
-5.29523e-10
9.65043e-11
-3.20651e-10
1.03309e-10
6.09435e-12
-2.50547e-11
4.31539e-10
-2.55338e-10
3.15673e-10
-1.9383e-10
1.55092e-11
-1.18237e-16
-5.99427e-10
1.01724e-18
-1.69709e-20
7.64605e-19
-5.94164e-19
8.16578e-19
-8.67593e-19
9.47016e-19
-9.72243e-19
1.10395e-18
-1.02518e-18
1.27247e-18
-1.0508e-18
1.44514e-18
-1.053e-18
1.61599e-18
-1.03162e-18
1.77982e-18
-9.8715e-19
1.93198e-18
-9.20851e-19
2.06836e-18
-8.34977e-19
2.1857e-18
-7.32563e-19
2.28178e-18
-6.17191e-19
2.35541e-18
-4.92712e-19
2.40629e-18
-3.63016e-19
2.43496e-18
-2.31808e-19
2.44249e-18
-1.02345e-19
2.43021e-18
2.27434e-20
2.39966e-18
1.41479e-19
2.3525e-18
2.52465e-19
2.29048e-18
3.54819e-19
2.21539e-18
4.48088e-19
2.12905e-18
5.32152e-19
2.03323e-18
6.07134e-19
1.92957e-18
6.73346e-19
1.8194e-18
7.31261e-19
1.70385e-18
7.81463e-19
1.58385e-18
8.24602e-19
1.4602e-18
8.61347e-19
1.33356e-18
8.92365e-19
1.20445e-18
9.18316e-19
1.07336e-18
9.39846e-19
9.40701e-19
9.57575e-19
8.06905e-19
9.72066e-19
6.72384e-19
9.83795e-19
5.37491e-19
9.9313e-19
4.0247e-19
1.00032e-18
2.67431e-19
1.00552e-18
1.32364e-19
1.00882e-18
1.01028e-18
-1.92552e-10
6.0613e-10
-4.09744e-10
5.52958e-10
-6.92503e-10
4.99472e-10
-8.74777e-10
3.27206e-10
-9.33029e-10
3.9002e-10
-1.04545e-09
6.20097e-10
-1.0859e-09
7.64358e-10
-1.10238e-09
8.79021e-10
-1.09497e-09
9.07335e-10
-1.06228e-09
8.99718e-10
-9.55839e-10
8.45539e-10
-7.99894e-10
7.8146e-10
-7.62749e-10
7.36787e-10
-7.43484e-10
6.06344e-10
-6.72507e-10
4.79287e-10
-6.18387e-10
4.77801e-10
-5.81622e-10
5.08773e-10
-6.04172e-10
6.02807e-10
-7.17945e-10
7.28127e-10
-9.22393e-10
7.71845e-10
-1.11895e-09
6.39783e-10
-1.21438e-09
5.29828e-10
-1.2487e-09
5.13627e-10
-1.37434e-09
4.95562e-10
-1.50756e-09
4.86084e-10
-1.64816e-09
4.02898e-10
-1.75307e-09
3.44654e-10
-1.84257e-09
2.2565e-10
-1.9294e-09
1.95406e-10
-1.96367e-09
8.04934e-11
-1.93248e-09
-2.14713e-10
-1.98929e-09
-1.13687e-10
-1.98377e-09
-1.5214e-10
-1.88152e-09
-2.49012e-10
-1.79987e-09
-2.83654e-10
-1.69109e-09
-2.83224e-10
-1.49232e-09
-2.97338e-10
-1.27217e-09
-1.68038e-10
-1.08925e-09
-3.57745e-10
-7.50726e-10
-7.38066e-10
-5.74765e-10
-3.98991e-10
-3.14698e-10
-5.44939e-10
-2.92924e-10
-2.38011e-10
-3.4149e-10
-4.22768e-11
-4.58802e-10
9.87877e-11
-4.8267e-10
1.24133e-10
-5.17226e-10
8.60979e-11
-5.36388e-10
5.30039e-11
-6.13219e-10
7.20145e-11
-7.31005e-10
5.80354e-11
-7.74562e-10
-1.07105e-11
-8.09771e-10
-3.72393e-11
-8.32685e-10
-1.09563e-10
-8.56355e-10
-1.74586e-10
-8.83145e-10
-2.11658e-10
-8.66352e-10
-2.84574e-10
-7.57142e-10
-3.48239e-10
-7.09941e-10
-3.35151e-10
-6.57042e-10
-3.3244e-10
-6.01702e-10
-2.77768e-10
-5.51934e-10
-3.05691e-10
-5.47821e-10
-3.24603e-10
-5.9621e-10
-4.21812e-10
-6.46004e-10
-5.9821e-10
-6.48155e-10
-7.63007e-10
-5.91324e-10
-9.48071e-10
-5.28394e-10
-1.07245e-09
-4.93546e-10
-1.10829e-09
-4.4097e-10
-1.14539e-09
-3.46559e-10
-1.09266e-09
-2.46288e-10
-9.78312e-10
-1.8222e-10
-8.70076e-10
-1.16353e-10
-7.61911e-10
-1.77815e-11
-6.28094e-10
8.60937e-11
-4.24525e-10
2.45127e-10
-1.52938e-10
4.8133e-10
1.95336e-10
4.75874e-10
3.21129e-10
1.61036e-10
3.30348e-10
-1.69007e-16
-4.38391e-10
2.82236e-20
-1.6835e-18
4.91603e-19
-1.05694e-18
7.12339e-19
-1.08688e-18
8.94485e-19
-1.15253e-18
1.07873e-18
-1.20734e-18
1.27056e-18
-1.24002e-18
1.46651e-18
-1.24587e-18
1.66045e-18
-1.22245e-18
1.84612e-18
-1.1699e-18
2.01786e-18
-1.08999e-18
2.17078e-18
-9.85928e-19
2.30107e-18
-8.61904e-19
2.40626e-18
-7.22663e-19
2.48511e-18
-5.73098e-19
2.5375e-18
-4.18009e-19
2.56443e-18
-2.61901e-19
2.56758e-18
-1.08717e-19
2.54895e-18
3.83927e-20
2.51064e-18
1.77111e-19
2.45485e-18
3.05873e-19
2.38375e-18
4.23755e-19
2.29946e-18
5.30356e-19
2.20403e-18
6.25682e-19
2.09945e-18
7.10023e-19
1.98748e-18
7.83881e-19
1.8696e-18
8.47914e-19
1.74699e-18
9.0289e-19
1.6206e-18
9.49645e-19
1.49122e-18
9.89025e-19
1.35951e-18
1.02187e-18
1.22598e-18
1.04899e-18
1.09109e-18
1.07117e-18
9.55192e-19
1.08916e-18
8.18634e-19
1.10362e-18
6.81719e-19
1.11515e-18
5.44683e-19
1.12419e-18
4.07672e-19
1.13108e-18
2.70729e-19
1.13604e-18
1.33821e-19
1.13919e-18
1.14064e-18
-1.62905e-10
7.69035e-10
-4.34403e-10
8.24458e-10
-7.19232e-10
7.84302e-10
-9.55968e-10
5.63941e-10
-1.02996e-09
4.64011e-10
-1.11358e-09
7.03722e-10
-1.14543e-09
7.96204e-10
-1.13004e-09
8.63628e-10
-1.11972e-09
8.97019e-10
-1.10947e-09
8.89463e-10
-1.05133e-09
7.87407e-10
-9.28271e-10
6.58396e-10
-8.27026e-10
6.35542e-10
-7.68909e-10
5.48228e-10
-7.02529e-10
4.12907e-10
-6.25826e-10
4.01097e-10
-5.63081e-10
4.46028e-10
-5.33645e-10
5.73371e-10
-5.2512e-10
7.19602e-10
-5.81357e-10
8.28082e-10
-7.84515e-10
8.42941e-10
-1.0237e-09
7.69017e-10
-1.19177e-09
6.81696e-10
-1.27109e-09
5.74879e-10
-1.39247e-09
6.07459e-10
-1.56346e-09
5.73888e-10
-1.68326e-09
4.6446e-10
-1.80067e-09
3.43059e-10
-1.91529e-09
3.10018e-10
-1.94356e-09
1.08762e-10
-2.01869e-09
-1.3958e-10
-2.06861e-09
-6.37663e-11
-2.08582e-09
-1.34932e-10
-2.06252e-09
-2.72319e-10
-2.08985e-09
-2.56323e-10
-2.07652e-09
-2.96554e-10
-1.9049e-09
-4.68963e-10
-1.69124e-09
-3.81691e-10
-1.4628e-09
-5.86193e-10
-1.24049e-09
-9.60376e-10
-8.38203e-10
-8.01278e-10
-3.34415e-10
-1.04873e-09
7.25574e-11
-6.44985e-10
4.47359e-10
-4.17081e-10
3.89685e-10
1.5646e-10
2.6251e-10
2.51305e-10
5.43079e-11
2.94298e-10
-1.48319e-10
2.55629e-10
-2.91578e-10
2.15272e-10
-3.88155e-10
1.5461e-10
-4.75732e-10
7.68657e-11
-5.64591e-10
5.16178e-11
-6.49334e-10
-2.48206e-11
-6.53908e-10
-1.70012e-10
-6.66896e-10
-1.98671e-10
-6.63575e-10
-2.87895e-10
-6.76e-10
-3.35814e-10
-6.57189e-10
-3.53963e-10
-6.14662e-10
-3.74968e-10
-5.17186e-10
-3.75244e-10
-4.62361e-10
-3.60516e-10
-4.195e-10
-3.67465e-10
-4.31568e-10
-4.09745e-10
-4.74751e-10
-5.55026e-10
-4.96488e-10
-7.41271e-10
-4.99451e-10
-9.45108e-10
-4.51168e-10
-1.12073e-09
-3.84554e-10
-1.17491e-09
-3.61737e-10
-1.1682e-09
-2.93949e-10
-1.16045e-09
-1.84994e-10
-1.08727e-09
-1.38011e-10
-9.17058e-10
-1.15506e-10
-7.84415e-10
-1.00398e-10
-6.43202e-10
-6.3959e-11
-4.60964e-10
5.89072e-11
-2.75804e-10
3.91e-10
-1.36757e-10
5.35989e-10
1.7614e-10
3.67612e-10
4.98725e-10
-2.83069e-16
-7.07783e-11
2.83924e-19
-1.66077e-18
4.62074e-19
-1.23454e-18
6.47084e-19
-1.27026e-18
8.40068e-19
-1.34354e-18
1.04643e-18
-1.41178e-18
1.26499e-18
-1.45633e-18
1.48992e-18
-1.46795e-18
1.71301e-18
-1.44248e-18
1.92603e-18
-1.37991e-18
2.12192e-18
-1.2829e-18
2.2948e-18
-1.15614e-18
2.44031e-18
-1.00546e-18
2.55583e-18
-8.37253e-19
2.6402e-18
-6.57828e-19
2.69361e-18
-4.73117e-19
2.71761e-18
-2.88521e-19
2.71469e-18
-1.08687e-19
2.68767e-18
6.27134e-20
2.6394e-18
2.23054e-19
2.57273e-18
3.70654e-19
2.49035e-18