/*--------------------------------*- C++ -*----------------------------------*\
  =========                 |
  \\      /  F ield         | OpenFOAM: The Open Source CFD Toolbox
   \\    /   O peration     | Website:  https://openfoam.org
    \\  /    A nd           | Version:  6
     \\/     M anipulation  |
\*---------------------------------------------------------------------------*/
FoamFile
{
    version     2.0;
    format      ascii;
    class       volScalarField;
    location    "400";
    object      T;
}
// * * * * * * * * * * * * * * * * * * * * * * * * * * * * * * * * * * * * * //

dimensions      [0 0 0 1 0 0 0];

internalField   nonuniform List<scalar> 
4800
(
552.49
552.369
552.249
552.129
552.01
551.89
551.771
551.651
551.533
551.415
551.298
551.183
551.071
550.962
550.858
550.757
550.661
550.569
550.48
550.395
550.314
550.235
550.159
550.085
550.013
549.943
549.874
549.806
549.738
549.672
549.605
549.539
549.473
549.406
549.339
549.271
549.202
549.133
549.062
548.99
548.917
548.843
548.767
548.691
548.612
548.533
548.453
548.372
548.291
548.209
548.126
548.043
547.961
547.877
547.794
547.71
547.625
547.541
547.456
547.371
547.286
547.2
547.114
547.026
546.938
546.848
546.757
546.664
546.569
546.472
546.372
546.27
546.164
546.056
545.946
545.833
545.717
545.601
545.484
545.367
545.248
545.128
545.007
544.885
544.762
544.64
544.518
544.395
544.273
544.151
544.029
543.908
543.787
543.666
543.545
543.425
543.306
543.186
543.067
542.948
542.829
542.711
542.593
542.475
542.358
542.24
542.123
542.006
541.889
541.772
541.655
541.539
541.422
541.306
541.189
541.073
540.957
540.841
540.724
540.608
552.489
552.368
552.248
552.127
552.007
551.887
551.768
551.648
551.53
551.412
551.296
551.182
551.071
550.964
550.861
550.762
550.666
550.575
550.487
550.402
550.321
550.242
550.167
550.093
550.021
549.95
549.882
549.814
549.747
549.68
549.614
549.548
549.482
549.416
549.349
549.282
549.214
549.145
549.075
549.003
548.93
548.856
548.781
548.704
548.626
548.547
548.467
548.386
548.304
548.222
548.139
548.057
547.973
547.89
547.806
547.722
547.637
547.553
547.468
547.382
547.297
547.211
547.124
547.036
546.948
546.858
546.766
546.673
546.578
546.48
546.38
546.278
546.172
546.064
545.953
545.84
545.725
545.608
545.489
545.37
545.25
545.129
545.008
544.885
544.763
544.64
544.518
544.395
544.273
544.151
544.029
543.907
543.786
543.666
543.545
543.425
543.305
543.186
543.067
542.948
542.829
542.711
542.593
542.475
542.357
542.24
542.123
542.006
541.889
541.772
541.655
541.539
541.422
541.306
541.189
541.073
540.957
540.84
540.724
540.608
552.489
552.367
552.245
552.124
552.002
551.882
551.762
551.643
551.525
551.409
551.294
551.182
551.073
550.968
550.867
550.77
550.676
550.586
550.499
550.415
550.334
550.256
550.18
550.107
550.035
549.965
549.896
549.829
549.762
549.696
549.631
549.566
549.501
549.435
549.369
549.303
549.236
549.167
549.098
549.027
548.955
548.882
548.807
548.73
548.652
548.573
548.493
548.411
548.33
548.247
548.165
548.081
547.998
547.914
547.83
547.745
547.66
547.575
547.489
547.404
547.317
547.231
547.143
547.055
546.966
546.875
546.783
546.689
546.593
546.495
546.394
546.29
546.184
546.075
545.964
545.85
545.734
545.616
545.496
545.375
545.254
545.132
545.009
544.887
544.764
544.641
544.518
544.395
544.273
544.15
544.029
543.907
543.786
543.665
543.545
543.425
543.305
543.185
543.066
542.947
542.829
542.711
542.593
542.475
542.357
542.24
542.123
542.005
541.889
541.772
541.655
541.538
541.422
541.306
541.189
541.073
540.957
540.84
540.724
540.608
552.488
552.365
552.241
552.119
551.997
551.876
551.756
551.638
551.521
551.406
551.293
551.184
551.078
550.976
550.877
550.782
550.69
550.601
550.516
550.433
550.353
550.275
550.199
550.125
550.054
549.984
549.916
549.85
549.784
549.719
549.655
549.591
549.527
549.463
549.398
549.333
549.267
549.2
549.131
549.062
548.991
548.918
548.843
548.767
548.689
548.61
548.53
548.448
548.366
548.284
548.2
548.117
548.033
547.949
547.864
547.779
547.693
547.608
547.521
547.435
547.347
547.26
547.171
547.082
546.992
546.901
546.807
546.712
546.615
546.515
546.413
546.308
546.2
546.09
545.977
545.861
545.743
545.622
545.502
545.381
545.258
545.135
545.012
544.888
544.765
544.641
544.518
544.395
544.272
544.15
544.028
543.906
543.785
543.664
543.544
543.424
543.304
543.185
543.066
542.947
542.828
542.71
542.592
542.474
542.357
542.239
542.122
542.005
541.888
541.771
541.655
541.538
541.422
541.305
541.189
541.073
540.957
540.84
540.724
540.608
552.487
552.362
552.237
552.113
551.991
551.87
551.75
551.633
551.517
551.405
551.295
551.188
551.086
550.986
550.89
550.797
550.707
550.62
550.536
550.454
550.374
550.297
550.222
550.149
550.078
550.009
549.942
549.876
549.812
549.748
549.686
549.623
549.561
549.498
549.435
549.371
549.307
549.241
549.174
549.106
549.036
548.964
548.89
548.815
548.737
548.658
548.577
548.495
548.413
548.33
548.246
548.162
548.078
547.993
547.907
547.822
547.736
547.649
547.562
547.475
547.387
547.298
547.208
547.118
547.026
546.933
546.838
546.741
546.642
546.54
546.436
546.329
546.219
546.107
545.992
545.875
545.756
545.634
545.512
545.388
545.264
545.139
545.015
544.89
544.766
544.642
544.518
544.395
544.272
544.149
544.027
543.905
543.784
543.663
543.543
543.423
543.303
543.184
543.065
542.946
542.827
542.709
542.591
542.474
542.356
542.239
542.122
542.005
541.888
541.771
541.654
541.538
541.422
541.305
541.189
541.073
540.956
540.84
540.724
540.608
552.486
552.359
552.233
552.108
551.985
551.864
551.746
551.629
551.516
551.406
551.299
551.196
551.096
551
550.906
550.816
550.728
550.643
550.56
550.479
550.4
550.324
550.249
550.177
550.107
550.039
549.973
549.909
549.845
549.784
549.722
549.662
549.601
549.54
549.479
549.418
549.355
549.291
549.226
549.159
549.091
549.02
548.947
548.872
548.794
548.714
548.633
548.551
548.468
548.384
548.3
548.215
548.13
548.045
547.959
547.873
547.786
547.699
547.611
547.523
547.434
547.343
547.253
547.16
547.067
546.972
546.875
546.776
546.674
546.57
546.464
546.354
546.242
546.127
546.01
545.89
545.769
545.646
545.521
545.395
545.269
545.143
545.018
544.892
544.767
544.642
544.518
544.394
544.271
544.148
544.026
543.904
543.783
543.662
543.541
543.421
543.302
543.182
543.063
542.945
542.826
542.708
542.59
542.473
542.355
542.238
542.121
542.004
541.887
541.771
541.654
541.538
541.421
541.305
541.189
541.072
540.956
540.84
540.724
540.608
552.485
552.357
552.229
552.104
551.981
551.86
551.743
551.628
551.517
551.41
551.306
551.206
551.11
551.016
550.926
550.838
550.752
550.668
550.587
550.507
550.43
550.354
550.281
550.21
550.141
550.074
550.009
549.946
549.884
549.824
549.765
549.706
549.647
549.589
549.53
549.47
549.41
549.348
549.285
549.221
549.154
549.085
549.013
548.938
548.86
548.78
548.698
548.615
548.532
548.447
548.362
548.276
548.191
548.105
548.018
547.932
547.844
547.756
547.668
547.578
547.488
547.396
547.304
547.21
547.114
547.017
546.918
546.816
546.712
546.605
546.495
546.383
546.267
546.149
546.029
545.906
545.781
545.655
545.529
545.402
545.275
545.148
545.021
544.894
544.768
544.643
544.518
544.394
544.27
544.147
544.024
543.903
543.781
543.66
543.54
543.42
543.3
543.181
543.062
542.943
542.825
542.707
542.589
542.472
542.354
542.237
542.12
542.003
541.887
541.77
541.654
541.537
541.421
541.305
541.188
541.072
540.956
540.84
540.724
540.608
552.485
552.355
552.227
552.101
551.978
551.859
551.743
551.63
551.522
551.418
551.317
551.22
551.127
551.036
550.948
550.863
550.779
550.698
550.617
550.539
550.463
550.389
550.317
550.247
550.179
550.113
550.05
549.988
549.928
549.87
549.812
549.756
549.699
549.643
549.586
549.529
549.471
549.411
549.351
549.29
549.225
549.157
549.086
549.012
548.934
548.853
548.771
548.687
548.603
548.517
548.431
548.345
548.258
548.171
548.084
547.997
547.909
547.82
547.73
547.64
547.548
547.455
547.361
547.265
547.168
547.068
546.966
546.862
546.755
546.644
546.531
546.415
546.296
546.174
546.05
545.925
545.797
545.669
545.54
545.411
545.282
545.153
545.024
544.896
544.769
544.643
544.517
544.392
544.268
544.145
544.022
543.9
543.779
543.658
543.538
543.418
543.298
543.179
543.06
542.942
542.824
542.706
542.588
542.471
542.353
542.236
542.119
542.003
541.886
541.769
541.653
541.537
541.42
541.304
541.188
541.072
540.956
540.84
540.724
540.608
552.485
552.355
552.227
552.101
551.979
551.86
551.746
551.636
551.53
551.428
551.331
551.237
551.146
551.059
550.974
550.891
550.809
550.73
550.651
550.575
550.5
550.427
550.356
550.288
550.221
550.157
550.095
550.035
549.977
549.921
549.866
549.811
549.756
549.702
549.647
549.592
549.537
549.48
549.423
549.364
549.302
549.236
549.167
549.092
549.015
548.934
548.851
548.766
548.68
548.594
548.506
548.419
548.332
548.244
548.156
548.067
547.978
547.889
547.798
547.706
547.613
547.519
547.423
547.326
547.226
547.124
547.02
546.912
546.801
546.687
546.57
546.45
546.327
546.201
546.074
545.945
545.815
545.684
545.552
545.42
545.288
545.157
545.027
544.898
544.769
544.642
544.516
544.391
544.266
544.143
544.02
543.898
543.777
543.656
543.535
543.416
543.296
543.177
543.058
542.94
542.822
542.704
542.587
542.469
542.352
542.235
542.118
542.002
541.885
541.769
541.652
541.536
541.42
541.304
541.188
541.072
540.956
540.84
540.724
540.608
552.485
552.356
552.228
552.103
551.982
551.865
551.752
551.644
551.541
551.442
551.347
551.256
551.169
551.084
551.001
550.921
550.842
550.764
550.688
550.613
550.54
550.469
550.4
550.333
550.268
550.205
550.145
550.088
550.032
549.977
549.924
549.872
549.819
549.767
549.715
549.662
549.609
549.555
549.501
549.444
549.384
549.321
549.253
549.18
549.102
549.021
548.937
548.851
548.763
548.676
548.587
548.499
548.41
548.322
548.233
548.143
548.053
547.962
547.87
547.777
547.683
547.587
547.489
547.39
547.288
547.184
547.077
546.966
546.852
546.734
546.613
546.488
546.36
546.23
546.098
545.965
545.832
545.698
545.564
545.429
545.294
545.161
545.029
544.898
544.769
544.641
544.514
544.388
544.264
544.14
544.017
543.895
543.774
543.653
543.533
543.413
543.294
543.175
543.056
542.938
542.82
542.702
542.585
542.468
542.351
542.234
542.117
542.001
541.884
541.768
541.652
541.535
541.419
541.303
541.187
541.071
540.955
540.84
540.724
540.608
552.486
552.358
552.231
552.108
551.988
551.872
551.762
551.657
551.556
551.459
551.367
551.279
551.193
551.111
551.031
550.953
550.876
550.801
550.727
550.655
550.583
550.514
550.447
550.382
550.319
550.258
550.201
550.145
550.092
550.04
549.989
549.939
549.889
549.839
549.789
549.739
549.689
549.637
549.585
549.531
549.473
549.412
549.345
549.273
549.194
549.112
549.026
548.939
548.851
548.762
548.672
548.583
548.493
548.403
548.313
548.223
548.132
548.039
547.946
547.852
547.756
547.658
547.559
547.457
547.353
547.246
547.136
547.022
546.905
546.783
546.657
546.528
546.396
546.261
546.124
545.986
545.848
545.71
545.572
545.435
545.299
545.164
545.03
544.898
544.767
544.638
544.511
544.385
544.26
544.136
544.013
543.891
543.77
543.649
543.529
543.41
543.291
543.172
543.054
542.936
542.818
542.7
542.583
542.466
542.349
542.233
542.116
542
541.883
541.767
541.651
541.535
541.419
541.303
541.187
541.071
540.955
540.839
540.724
540.608
552.486
552.36
552.236
552.114
551.997
551.883
551.775
551.672
551.574
551.48
551.39
551.304
551.221
551.141
551.064
550.988
550.913
550.84
550.769
550.699
550.63
550.563
550.498
550.435
550.374
550.316
550.261
550.208
550.157
550.108
550.06
550.012
549.964
549.917
549.87
549.822
549.775
549.725
549.675
549.623
549.567
549.507
549.442
549.37
549.292
549.208
549.121
549.032
548.942
548.852
548.761
548.67
548.58
548.489
548.397
548.306
548.213
548.12
548.025
547.929
547.831
547.732
547.63
547.526
547.42
547.31
547.197
547.08
546.958
546.832
546.703
546.569
546.432
546.292
546.151
546.009
545.865
545.722
545.581
545.441
545.302
545.165
545.029
544.896
544.764
544.635
544.507
544.381
544.256
544.132
544.009
543.887
543.766
543.646
543.526
543.406
543.288
543.169
543.051
542.933
542.816
542.698
542.581
542.464
542.348
542.231
542.115
541.998
541.882
541.766
541.65
541.534
541.418
541.302
541.186
541.071
540.955
540.839
540.724
540.608
552.488
552.363
552.241
552.122
552.008
551.897
551.792
551.691
551.595
551.504
551.417
551.333
551.253
551.175
551.1
551.026
550.954
550.883
550.814
550.746
550.68
550.615
550.552
550.492
550.434
550.378
550.326
550.276
550.228
550.181
550.136
550.091
550.046
550.001
549.957
549.911
549.866
549.819
549.771
549.721
549.667
549.609
549.545
549.474
549.395
549.309
549.22
549.129
549.037
548.945
548.853
548.761
548.669
548.577
548.484
548.391
548.297
548.202
548.106
548.008
547.908
547.806
547.702
547.596
547.487
547.374
547.257
547.136
547.01
546.88
546.746
546.608
546.466
546.322
546.176
546.03
545.883
545.737
545.591
545.446
545.304
545.164
545.027
544.892
544.759
544.629
544.501
544.375
544.25
544.126
544.004
543.882
543.761
543.641
543.522
543.403
543.284
543.166
543.048
542.93
542.813
542.696
542.579
542.462
542.346
542.23
542.113
541.997
541.881
541.765
541.649
541.533
541.417
541.302
541.186
541.07
540.955
540.839
540.723
540.608
552.489
552.368
552.249
552.133
552.021
551.914
551.811
551.713
551.62
551.532
551.447
551.366
551.288
551.213
551.139
551.068
550.998
550.93
550.863
550.797
550.733
550.671
550.611
550.553
550.497
550.445
550.395
550.348
550.303
550.259
550.217
550.174
550.132
550.09
550.048
550.005
549.962
549.917
549.872
549.823
549.772
549.715
549.653
549.583
549.505
549.417
549.324
549.23
549.135
549.041
548.948
548.854
548.761
548.667
548.573
548.478
548.383
548.286
548.188
548.088
547.986
547.882
547.775
547.666
547.553
547.436
547.315
547.19
547.06
546.925
546.786
546.643
546.497
546.348
546.198
546.047
545.896
545.746
545.597
545.448
545.302
545.16
545.021
544.885
544.752
544.622
544.494
544.368
544.243
544.12
543.998
543.876
543.756
543.636
543.517
543.399
543.28
543.162
543.045
542.928
542.81
542.694
542.577
542.46
542.344
542.228
542.112
541.996
541.88
541.764
541.648
541.532
541.417
541.301
541.185
541.07
540.954
540.839
540.723
540.608
552.491
552.373
552.257
552.145
552.036
551.932
551.832
551.737
551.647
551.561
551.48
551.401
551.326
551.253
551.182
551.113
551.046
550.98
550.916
550.852
550.791
550.731
550.673
550.618
550.565
550.516
550.469
550.424
550.382
550.342
550.302
550.263
550.224
550.184
550.144
550.104
550.063
550.02
549.977
549.931
549.881
549.826
549.766
549.697
549.618
549.529
549.433
549.336
549.239
549.142
549.046
548.951
548.855
548.76
548.664
548.568
548.471
548.372
548.272
548.17
548.065
547.958
547.847
547.734
547.617
547.496
547.371
547.241
547.106
546.966
546.821
546.673
546.522
546.368
546.214
546.059
545.904
545.75
545.597
545.445
545.296
545.151
545.011
544.875
544.742
544.612
544.484
544.359
544.235
544.112
543.991
543.87
543.75
543.631
543.512
543.394
543.276
543.159
543.041
542.924
542.808
542.691
542.575
542.458
542.342
542.226
542.11
541.994
541.879
541.763
541.647
541.532
541.416
541.3
541.185
541.069
540.954
540.839
540.723
540.608
552.493
552.378
552.266
552.158
552.052
551.952
551.855
551.763
551.676
551.593
551.514
551.439
551.366
551.296
551.228
551.162
551.098
551.034
550.972
550.912
550.853
550.795
550.74
550.688
550.638
550.591
550.546
550.505
550.466
550.429
550.392
550.356
550.319
550.282
550.245
550.207
550.168
550.128
550.086
550.043
549.995
549.942
549.883
549.815
549.736
549.646
549.547
549.447
549.347
549.247
549.149
549.051
548.953
548.856
548.758
548.659
548.56
548.46
548.357
548.252
548.144
548.033
547.918
547.8
547.679
547.553
547.422
547.286
547.145
546.999
546.849
546.695
546.539
546.381
546.221
546.062
545.903
545.746
545.589
545.434
545.283
545.137
544.996
544.86
544.728
544.599
544.473
544.348
544.225
544.103
543.983
543.863
543.744
543.625
543.507
543.389
543.272
543.155
543.038
542.921
542.805
542.688
542.572
542.456
542.34
542.224
542.109
541.993
541.877
541.762
541.646
541.531
541.415
541.3
541.184
541.069
540.954
540.838
540.723
540.608
552.495
552.384
552.276
552.171
552.069
551.971
551.878
551.79
551.705
551.626
551.55
551.478
551.409
551.342
551.277
551.214
551.152
551.092
551.033
550.975
550.918
550.864
550.811
550.761
550.714
550.67
550.629
550.59
550.554
550.52
550.487
550.453
550.419
550.384
550.349
550.313
550.277
550.239
550.2
550.158
550.112
550.061
550.003
549.936
549.858
549.767
549.667
549.564
549.461
549.358
549.256
549.155
549.054
548.955
548.855
548.754
548.652
548.549
548.444
548.335
548.223
548.108
547.989
547.865
547.738
547.605
547.468
547.326
547.178
547.025
546.869
546.709
546.547
546.384
546.22
546.057
545.894
545.733
545.574
545.416
545.262
545.116
544.976
544.841
544.71
544.583
544.458
544.335
544.214
544.093
543.974
543.855
543.736
543.619
543.501
543.384
543.267
543.15
543.034
542.918
542.802
542.686
542.57
542.454
542.338
542.223
542.107
541.991
541.876
541.761
541.645
541.53
541.414
541.299
541.184
541.069
540.953
540.838
540.723
540.608
552.496
552.39
552.285
552.183
552.085
551.991
551.901
551.816
551.736
551.66
551.587
551.519
551.453
551.39
551.329
551.269
551.21
551.153
551.096
551.041
550.988
550.936
550.886
550.839
550.795
550.753
550.715
550.68
550.647
550.615
550.584
550.553
550.522
550.49
550.457
550.424
550.389
550.354
550.316
550.276
550.232
550.182
550.125
550.059
549.982
549.892
549.792
549.686
549.579
549.472
549.367
549.263
549.16
549.057
548.955
548.852
548.748
548.642
548.533
548.421
548.305
548.185
548.06
547.93
547.796
547.656
547.511
547.36
547.205
547.044
546.881
546.714
546.546
546.378
546.209
546.042
545.876
545.711
545.548
545.388
545.232
545.085
544.947
544.815
544.688
544.563
544.441
544.32
544.201
544.082
543.964
543.846
543.729
543.612
543.495
543.379
543.262
543.146
543.03
542.914
542.798
542.683
542.567
542.452
542.336
542.221
542.105
541.99
541.875
541.759
541.644
541.529
541.414
541.299
541.183
541.068
540.953
540.838
540.723
540.608
552.498
552.395
552.294
552.196
552.101
552.011
551.924
551.843
551.766
551.694
551.626
551.561
551.499
551.44
551.382
551.326
551.271
551.216
551.163
551.111
551.061
551.012
550.965
550.921
550.88
550.841
550.806
550.773
550.743
550.714
550.685
550.657
550.628
550.598
550.568
550.536
550.504
550.47
550.434
550.396
550.352
550.304
550.248
550.183
550.107
550.018
549.918
549.811
549.701
549.59
549.481
549.374
549.268
549.163
549.059
548.953
548.847
548.738
548.626
548.511
548.39
548.265
548.134
547.997
547.855
547.707
547.553
547.393
547.228
547.059
546.886
546.712
546.537
546.363
546.19
546.018
545.847
545.678
545.511
545.348
545.189
545.044
544.91
544.783
544.66
544.54
544.421
544.304
544.186
544.07
543.953
543.837
543.721
543.605
543.489
543.373
543.257
543.142
543.026
542.911
542.795
542.68
542.564
542.449
542.334
542.219
542.104
541.988
541.873
541.758
541.643
541.528
541.413
541.298
541.183
541.068
540.953
540.838
540.723
540.608
552.5
552.401
552.303
552.208
552.117
552.03
551.947
551.869
551.796
551.728
551.664
551.604
551.546
551.491
551.437
551.384
551.333
551.282
551.232
551.183
551.136
551.091
551.048
551.007
550.968
550.933
550.9
550.87
550.842
550.815
550.789
550.763
550.736
550.709
550.68
550.65
550.619
550.587
550.552
550.513
550.471
550.423
550.367
550.303
550.228
550.141
550.042
549.933
549.82
549.707
549.595
549.485
549.377
549.27
549.164
549.057
548.949
548.839
548.724
548.605
548.481
548.35
548.214
548.07
547.92
547.763
547.599
547.429
547.253
547.072
546.89
546.707
546.525
546.344
546.165
545.988
545.811
545.635
545.463
545.294
545.13
544.989
544.864
544.745
544.629
544.514
544.399
544.285
544.171
544.056
543.942
543.827
543.712
543.597
543.482
543.367
543.252
543.137
543.022
542.907
542.792
542.677
542.562
542.447
542.332
542.217
542.102
541.987
541.872
541.757
541.642
541.527
541.412
541.297
541.182
541.067
540.952
540.837
540.722
540.607
552.502
552.406
552.312
552.221
552.133
552.049
551.97
551.896
551.826
551.762
551.702
551.646
551.593
551.542
551.493
551.444
551.396
551.349
551.303
551.258
551.214
551.173
551.133
551.095
551.06
551.028
550.998
550.97
550.944
550.92
550.896
550.872
550.847
550.821
550.794
550.765
550.734
550.701
550.666
550.627
550.584
550.534
550.478
550.414
550.339
550.252
550.154
550.045
549.931
549.816
549.702
549.591
549.482
549.374
549.268
549.161
549.052
548.941
548.826
548.705
548.577
548.443
548.302
548.152
547.995
547.829
547.654
547.472
547.284
547.092
546.899
546.706
546.515
546.327
546.141
545.957
545.772
545.588
545.404
545.222
545.045
544.918
544.808
544.701
544.594
544.485
544.376
544.265
544.154
544.042
543.93
543.817
543.703
543.59
543.475
543.361
543.247
543.132
543.018
542.903
542.789
542.674
542.559
542.445
542.33
542.215
542.1
541.986
541.871
541.756
541.641
541.526
541.411
541.297
541.182
541.067
540.952
540.837
540.722
540.607
552.504
552.412
552.321
552.233
552.149
552.069
551.993
551.923
551.857
551.797
551.741
551.69
551.641
551.594
551.548
551.504
551.46
551.417
551.374
551.334
551.294
551.256
551.221
551.187
551.155
551.125
551.098
551.073
551.05
551.027
551.005
550.983
550.959
550.934
550.908
550.879
550.847
550.813
550.775
550.734
550.687
550.635
550.576
550.509
550.432
550.344
550.245
550.137
550.023
549.908
549.795
549.684
549.575
549.469
549.364
549.258
549.151
549.041
548.927
548.806
548.678
548.542
548.397
548.244
548.08
547.906
547.722
547.529
547.329
547.125
546.92
546.717
546.516
546.319
546.125
545.933
545.741
545.547
545.346
545.134
544.915
544.829
544.748
544.657
544.559
544.456
544.352
544.245
544.137
544.028
543.918
543.806
543.694
543.582
543.469
543.355
543.242
543.128
543.014
542.9
542.785
542.671
542.557
542.442
542.328
542.213
542.099
541.984
541.87
541.755
541.64
541.525
541.411
541.296
541.181
541.067
540.952
540.837
540.722
540.607
552.506
552.418
552.331
552.247
552.167
552.09
552.019
551.952
551.891
551.834
551.783
551.735
551.69
551.647
551.606
551.565
551.525
551.485
551.447
551.41
551.375
551.341
551.309
551.279
551.251
551.225
551.2
551.178
551.156
551.136
551.115
551.094
551.072
551.048
551.021
550.991
550.957
550.919
550.878
550.831
550.779
550.721
550.655
550.583
550.501
550.41
550.31
550.202
550.089
549.976
549.864
549.755
549.649
549.545
549.443
549.341
549.237
549.131
549.019
548.901
548.775
548.64
548.495
548.339
548.171
547.991
547.799
547.598
547.388
547.174
546.959
546.746
546.536
546.33
546.128
545.928
545.728
545.525
545.308
545.051
544.671
544.744
544.701
544.621
544.528
544.429
544.328
544.225
544.12
544.013
543.905
543.796
543.685
543.574
543.462
543.35
543.237
543.123
543.01
542.896
542.782
542.668
542.554
542.44
542.326
542.212
542.097
541.983
541.868
541.754
541.639
541.525
541.41
541.295
541.181
541.066
540.951
540.837
540.722
540.607
552.508
552.424
552.343
552.263
552.188
552.116
552.049
551.987
551.93
551.879
551.831
551.787
551.746
551.707
551.668
551.629
551.592
551.556
551.521
551.487
551.455
551.425
551.397
551.37
551.344
551.321
551.299
551.278
551.259
551.24
551.221
551.202
551.181
551.157
551.129
551.098
551.061
551.02
550.973
550.919
550.86
550.793
550.719
550.638
550.549
550.452
550.348
550.238
550.127
550.015
549.905
549.799
549.695
549.595
549.497
549.399
549.3
549.198
549.091
548.977
548.854
548.723
548.58
548.424
548.255
548.072
547.876
547.67
547.456
547.237
547.016
546.797
546.581
546.369
546.16
545.954
545.75
545.544
545.332
545.11
544.903
544.796
544.7
544.603
544.505
544.406
544.307
544.206
544.103
543.999
543.893
543.786
543.677
543.567
543.456
543.344
543.232
543.119
543.006
542.893
542.78
542.666
542.552
542.438
542.324
542.21
542.096
541.982
541.867
541.753
541.638
541.524
541.409
541.295
541.18
541.066
540.951
540.837
540.722
540.607
552.511
552.432
552.356
552.284
552.215
552.15
552.09
552.035
551.984
551.939
551.897
551.858
551.82
551.783
551.745
551.707
551.67
551.634
551.599
551.567
551.536
551.506
551.478
551.452
551.427
551.404
551.383
551.363
551.344
551.327
551.31
551.292
551.272
551.25
551.223
551.192
551.154
551.111
551.06
551.001
550.933
550.858
550.775
550.686
550.588
550.482
550.371
550.258
550.145
550.034
549.925
549.819
549.717
549.618
549.523
549.427
549.331
549.232
549.128
549.017
548.898
548.769
548.628
548.474
548.305
548.123
547.93
547.726
547.515
547.3
547.083
546.866
546.651
546.44
546.231
546.025
545.82
545.615
545.405
545.194
545.004
544.844
544.712
544.596
544.489
544.388
544.288
544.188
544.088
543.986
543.882
543.776
543.668
543.56
543.45
543.339
543.227
543.115
543.003
542.89
542.777
542.663
542.55
542.436
542.322
542.209
542.094
541.98
541.866
541.752
541.638
541.523
541.409
541.294
541.18
541.065
540.951
540.836
540.722
540.607
552.513
552.441
552.373
552.309
552.25
552.196
552.147
552.103
552.064
552.029
551.997
551.966
551.932
551.896
551.857
551.816
551.774
551.733
551.695
551.657
551.621
551.585
551.551
551.519
551.489
551.461
551.435
551.411
551.391
551.372
551.355
551.339
551.322
551.303
551.28
551.254
551.222
551.182
551.135
551.076
551.007
550.929
550.843
550.748
550.641
550.524
550.404
550.286
550.172
550.06
549.95
549.843
549.738
549.636
549.538
549.44
549.34
549.239
549.13
549.014
548.889
548.757
548.613
548.456
548.287
548.109
547.923
547.73
547.532
547.333
547.133
546.933
546.734
546.538
546.345
546.152
545.957
545.757
545.543
545.315
545.097
544.894
544.733
544.599
544.481
544.374
544.272
544.173
544.073
543.973
543.871
543.767
543.661
543.553
543.444
543.334
543.223
543.112
543
542.887
542.774
542.661
542.548
542.435
542.321
542.207
542.093
541.979
541.865
541.751
541.637
541.523
541.408
541.294
541.18
541.065
540.951
540.836
540.722
540.607
552.517
552.451
552.391
552.338
552.294
552.258
552.228
552.203
552.183
552.168
552.153
552.136
552.111
552.076
552.034
551.986
551.934
551.881
551.83
551.779
551.726
551.672
551.619
551.567
551.519
551.474
551.433
551.396
551.364
551.339
551.318
551.301
551.285
551.271
551.259
551.248
551.232
551.212
551.183
551.14
551.084
551.017
550.941
550.852
550.742
550.617
550.49
550.369
550.257
550.144
550.035
549.927
549.815
549.704
549.594
549.48
549.364
549.247
549.118
548.972
548.821
548.667
548.504
548.331
548.151
547.975
547.802
547.628
547.454
547.283
547.12
546.957
546.799
546.644
546.491
546.332
546.162
545.978
545.763
545.5
545.221
544.941
544.76
544.611
544.481
544.365
544.26
544.159
544.061
543.962
543.861
543.758
543.653
543.547
543.439
543.33
543.219
543.108
542.997
542.885
542.772
542.659
542.546
542.433
542.32
542.206
542.092
541.978
541.865
541.75
541.636
541.522
541.408
541.294
541.179
541.065
540.951
540.836
540.722
540.607
552.523
552.468
552.419
552.381
552.356
552.343
552.339
552.342
552.352
552.367
552.381
552.391
552.381
552.351
552.306
552.249
552.182
552.112
552.04
551.964
551.88
551.79
551.698
551.607
551.521
551.44
551.363
551.292
551.232
551.185
551.151
551.124
551.101
551.086
551.093
551.111
551.132
551.153
551.17
551.167
551.147
551.121
551.079
551.012
550.93
550.817
550.698
550.583
550.489
550.377
550.28
550.188
550.067
549.943
549.81
549.655
549.495
549.352
549.175
548.952
548.73
548.523
548.312
548.093
547.869
547.68
547.528
547.379
547.226
547.085
546.992
546.897
546.814
546.73
546.645
546.539
546.408
546.256
546.046
545.744
545.369
544.913
544.784
544.632
544.489
544.363
544.252
544.149
544.05
543.952
543.852
543.751
543.647
543.542
543.434
543.326
543.216
543.106
542.994
542.882
542.77
542.658
542.545
542.432
542.318
542.205
542.091
541.978
541.864
541.75
541.636
541.522
541.408
541.293
541.179
541.065
540.95
540.836
540.722
540.607
552.547
552.527
552.498
552.476
552.47
552.48
552.5
552.53
552.57
552.618
552.667
552.711
552.726
552.712
552.676
552.615
552.534
552.446
552.354
552.249
552.123
551.98
551.827
551.673
551.53
551.394
551.254
551.11
550.985
550.889
550.821
550.767
550.71
550.67
550.705
550.782
550.868
550.962
551.056
551.113
551.159
551.227
551.253
551.238
551.388
551.386
551.378
551.282
551.242
551.11
551.052
551.041
550.907
550.78
550.603
550.346
550.088
549.921
549.66
549.259
548.884
548.562
548.251
547.955
547.591
547.33
547.234
547.126
546.961
546.783
546.828
546.829
546.877
546.848
546.827
546.762
546.645
546.522
546.262
545.939
545.493
544.967
544.831
544.664
544.504
544.366
544.248
544.142
544.042
543.944
543.845
543.745
543.642
543.537
543.431
543.323
543.213
543.103
542.992
542.881
542.769
542.656
542.544
542.431
542.318
542.204
542.091
541.977
541.863
541.749
541.635
541.521
541.407
541.293
541.179
541.065
540.95
540.836
540.722
540.607
552.648
552.753
552.773
552.764
552.758
552.763
552.769
552.785
552.814
552.866
552.925
552.985
553.031
553.061
553.083
553.039
552.962
552.868
552.773
552.659
552.498
552.303
552.087
551.855
551.656
551.473
551.247
550.97
550.726
550.538
550.398
550.289
550.146
550.022
550.147
550.389
550.67
550.899
551.08
551.17
551.285
551.587
551.692
551.687
551.748
551.81
551.838
551.814
551.852
551.706
551.674
551.757
551.695
551.601
551.401
551.029
550.659
550.397
550.006
549.421
548.872
548.39
547.916
547.636
547.124
546.718
546.657
546.542
546.379
546.049
546.25
546.407
546.776
546.672
546.665
546.543
546.28
546.11
546.064
545.762
545.267
544.945
544.839
544.684
544.518
544.371
544.246
544.137
544.036
543.938
543.84
543.74
543.638
543.534
543.428
543.32
543.211
543.101
542.991
542.879
542.768
542.655
542.543
542.43
542.317
542.204
542.09
541.977
541.863
541.749
541.635
541.521
541.407
541.293
541.179
541.065
540.95
540.836
540.722
540.607
553.019
553.508
553.641
553.642
553.569
553.474
553.347
553.208
553.08
553.039
553
553.013
553.077
553.19
553.533
553.601
553.661
553.595
553.539
553.484
553.321
553.118
552.896
552.567
552.357
552.215
551.918
551.427
551.043
550.71
550.392
550.192
549.914
549.495
549.422
549.646
549.888
550.064
550.175
550.334
550.57
551.051
551.38
551.448
551.697
551.883
552.135
552.421
552.611
552.479
552.382
552.511
552.68
552.642
552.448
551.904
551.564
550.965
550.385
549.717
549.098
548.485
547.855
547.538
546.984
546.14
546.321
546.146
546.122
545.359
545.969
546.117
546.49
545.762
545.832
545.507
544.903
544.635
544.169
544.535
543.882
544.673
544.719
544.672
544.523
544.374
544.245
544.133
544.032
543.934
543.836
543.737
543.635
543.532
543.426
543.319
543.21
543.1
542.99
542.879
542.767
542.655
542.542
542.429
542.316
542.203
542.09
541.976
541.863
541.749
541.635
541.521
541.407
541.293
541.179
541.065