/*--------------------------------*- C++ -*----------------------------------*\
  =========                 |
  \\      /  F ield         | OpenFOAM: The Open Source CFD Toolbox
   \\    /   O peration     | Website:  https://openfoam.org
    \\  /    A nd           | Version:  6
     \\/     M anipulation  |
\*---------------------------------------------------------------------------*/
FoamFile
{
    version     2.0;
    format      ascii;
    class       volVectorField;
    location    "400";
    object      U;
}
// * * * * * * * * * * * * * * * * * * * * * * * * * * * * * * * * * * * * * //

dimensions      [0 1 -1 0 0 0 0];

internalField   nonuniform List<vector> 
4800
(
(5.64525e-05 0 -0.000103653)
(3.56302e-05 0 -9.67362e-05)
(7.69242e-05 0 -7.68856e-05)
(0.000115824 0 -5.16397e-05)
(0.000137215 0 -6.90727e-05)
(0.000173548 0 -2.48306e-05)
(0.000166714 0 -1.71945e-05)
(0.000152882 0 -1.48853e-06)
(0.000124418 0 1.1962e-05)
(8.9473e-05 0 7.48219e-06)
(8.1753e-06 0 3.11861e-05)
(-0.00012902 0 4.09688e-05)
(-0.000276463 0 -8.26994e-05)
(-0.00039202 0 -0.000164884)
(-0.00053899 0 4.22685e-05)
(-0.000608795 0 9.46108e-05)
(-0.000702366 0 -6.04525e-05)
(-0.000787798 0 5.84836e-05)
(-0.00085201 0 3.00853e-05)
(-0.000893795 0 -2.97417e-05)
(-0.000918129 0 -9.74779e-06)
(-0.000926865 0 -1.87877e-05)
(-0.000918984 0 -3.71498e-05)
(-0.000894521 0 -3.87043e-05)
(-0.000884289 0 -2.64759e-05)
(-0.000880777 0 -2.4502e-05)
(-0.000880165 0 -2.4155e-05)
(-0.00088679 0 -1.69994e-05)
(-0.000892929 0 -1.12521e-05)
(-0.000896446 0 -8.59104e-06)
(-0.000905469 0 -2.06783e-05)
(-0.00092785 0 -1.1683e-05)
(-0.000948011 0 -2.45653e-05)
(-0.00096369 0 -3.31116e-05)
(-0.000975737 0 -4.27037e-05)
(-0.000984439 0 -4.71232e-05)
(-0.000991555 0 -5.67314e-05)
(-0.00100021 0 -6.87092e-05)
(-0.0010086 0 -6.43396e-05)
(-0.00101095 0 -6.17963e-05)
(-0.00100719 0 -6.9479e-05)
(-0.0010012 0 -7.79633e-05)
(-0.000995442 0 -7.16921e-05)
(-0.000987747 0 -7.45759e-05)
(-0.000984425 0 -7.80887e-05)
(-0.000982708 0 -8.03404e-05)
(-0.000977019 0 -7.12581e-05)
(-0.000971899 0 -6.92543e-05)
(-0.00097163 0 -5.26378e-05)
(-0.000959305 0 -3.57162e-05)
(-0.00093274 0 -3.96085e-05)
(-0.000918422 0 -5.38217e-05)
(-0.00091502 0 -4.429e-05)
(-0.000902768 0 3.9032e-05)
(-0.000861196 0 -5.51158e-05)
(-0.000833655 0 -4.38361e-05)
(-0.000819044 0 -3.85507e-05)
(-0.000813383 0 -5.71146e-05)
(-0.000794482 0 -0.00013914)
(-0.000754179 0 -9.11839e-05)
(-0.000714354 0 -1.94097e-05)
(-0.000678736 0 -6.01879e-05)
(-0.000662961 0 -8.88614e-05)
(-0.000638005 0 -7.89958e-05)
(-0.000555281 0 -5.61834e-05)
(-0.000492475 0 -8.45323e-05)
(-0.00045988 0 -5.21145e-05)
(-0.000410803 0 -8.62421e-05)
(-0.000398028 0 -1.15706e-05)
(-0.000326449 0 -5.44388e-05)
(-0.000286686 0 -5.84581e-05)
(-0.000264393 0 -6.39374e-05)
(-0.000255107 0 -7.66494e-05)
(-0.000254511 0 -9.4043e-05)
(-0.000236067 0 -9.52533e-05)
(-0.000227975 0 -9.81313e-05)
(-0.0002725 0 -7.01994e-05)
(-0.000435664 0 -0.000134199)
(-0.00056318 0 -0.000152346)
(4.51986e-06 0 -0.00019317)
(-5.46957e-13 0 -2.86821e-13)
(-7.28212e-13 0 -6.7923e-14)
(3.32268e-13 0 -3.02254e-14)
(3.86611e-13 0 -2.34225e-14)
(4.33048e-13 0 -2.24685e-14)
(4.78355e-13 0 -2.23814e-14)
(5.23263e-13 0 -2.21652e-14)
(5.67321e-13 0 -2.15735e-14)
(6.09608e-13 0 -2.06117e-14)
(6.49442e-13 0 -1.92907e-14)
(6.86144e-13 0 -1.7635e-14)
(7.1912e-13 0 -1.56841e-14)
(7.47853e-13 0 -1.34862e-14)
(7.71918e-13 0 -1.1092e-14)
(7.90995e-13 0 -8.55279e-15)
(8.04869e-13 0 -5.91914e-15)
(8.1343e-13 0 -3.23996e-15)
(8.16663e-13 0 -5.60477e-16)
(8.14642e-13 0 2.07961e-15)
(8.07524e-13 0 4.64477e-15)
(7.9554e-13 0 7.10153e-15)
(7.7897e-13 0 9.41779e-15)
(7.58111e-13 0 1.15667e-14)
(7.33259e-13 0 1.35313e-14)
(7.04697e-13 0 1.53048e-14)
(6.72697e-13 0 1.68865e-14)
(6.37529e-13 0 1.82781e-14)
(5.99454e-13 0 1.94829e-14)
(5.58734e-13 0 2.05089e-14)
(5.15642e-13 0 2.1371e-14)
(4.7048e-13 0 2.20902e-14)
(4.23585e-13 0 2.26897e-14)
(3.75323e-13 0 2.31901e-14)
(3.26064e-13 0 2.36086e-14)
(2.76159e-13 0 2.39586e-14)
(2.25911e-13 0 2.4252e-14)
(1.7556e-13 0 2.44987e-14)
(1.2526e-13 0 2.47048e-14)
(7.50792e-14 0 2.48674e-14)
(2.50108e-14 0 2.4971e-14)
(-1.05982e-05 0 -8.23666e-06)
(-6.3661e-06 0 -2.14334e-05)
(3.20143e-05 0 -3.2844e-05)
(7.45733e-05 0 -4.02927e-05)
(9.94534e-05 0 -4.22851e-05)
(0.000139895 0 -1.79991e-05)
(0.000135289 0 -4.16605e-07)
(9.29143e-05 0 1.67248e-05)
(2.05136e-05 0 7.9921e-05)
(-8.75246e-05 0 0.000122242)
(-0.000124901 0 0.000135668)
(-0.000216561 0 0.000196237)
(-0.00038816 0 0.000228998)
(-0.000485811 0 0.000195215)
(-0.000538378 0 8.13674e-05)
(-0.000586711 0 1.0955e-05)
(-0.000646865 0 0.000158254)
(-0.000714203 0 8.37357e-05)
(-0.000757035 0 5.7043e-05)
(-0.000782293 0 6.45043e-05)
(-0.000793789 0 2.78821e-05)
(-0.000795042 0 1.17144e-05)
(-0.000780456 0 -8.50701e-06)
(-0.000772926 0 -3.36886e-06)
(-0.000777167 0 1.12367e-05)
(-0.000785029 0 1.29775e-05)
(-0.000787068 0 1.30693e-05)
(-0.000790606 0 2.23095e-05)
(-0.000801806 0 2.11947e-05)
(-0.00081334 0 2.86907e-05)
(-0.000825461 0 3.96394e-05)
(-0.000840664 0 5.00436e-05)
(-0.000852451 0 4.94086e-05)
(-0.000858809 0 5.08189e-05)
(-0.000861514 0 5.18728e-05)
(-0.000861548 0 5.55874e-05)
(-0.000861507 0 6.4705e-05)
(-0.000868981 0 6.73335e-05)
(-0.000871648 0 5.96141e-05)
(-0.000868759 0 5.09387e-05)
(-0.00085949 0 4.6488e-05)
(-0.00084989 0 4.76563e-05)
(-0.0008405 0 5.45194e-05)
(-0.000833966 0 5.07757e-05)
(-0.000830763 0 5.78203e-05)
(-0.000828521 0 6.88569e-05)
(-0.000827032 0 5.79273e-05)
(-0.000827474 0 4.52868e-05)
(-0.000830325 0 3.30405e-05)
(-0.000830403 0 2.00049e-05)
(-0.000824071 0 2.36145e-06)
(-0.000820047 0 -1.76099e-06)
(-0.000815183 0 -2.91595e-05)
(-0.000798448 0 -1.66211e-05)
(-0.000783723 0 2.01388e-05)
(-0.000771788 0 -1.88648e-06)
(-0.000759764 0 -1.71898e-05)
(-0.000754226 0 -3.68804e-05)
(-0.000746449 0 -7.87526e-05)
(-0.000693891 0 -4.56578e-05)
(-0.000639086 0 -3.30887e-05)
(-0.000606151 0 -5.14548e-05)
(-0.00057827 0 -5.69353e-05)
(-0.000531213 0 2.21185e-05)
(-0.000456482 0 -7.4354e-05)
(-0.000391924 0 -8.90882e-05)
(-0.000354986 0 -8.67957e-06)
(-0.000281223 0 -0.000137786)
(-0.000269604 0 1.23357e-05)
(-0.000190162 0 -6.46448e-05)
(-0.00014398 0 -6.06578e-06)
(-8.12553e-05 0 7.80545e-06)
(-4.41791e-05 0 2.88859e-05)
(-4.87188e-05 0 7.50328e-05)
(5.63955e-06 0 3.7491e-05)
(2.47893e-05 0 0.000103302)
(-1.62453e-05 0 9.80012e-05)
(0.000200606 0 2.07524e-05)
(-0.000603633 0 -0.000122462)
(5.49171e-06 0 -0.000270112)
(-7.06043e-13 0 -6.31251e-14)
(-5.05326e-13 0 -4.75106e-14)
(3.75959e-13 0 -5.98721e-14)
(3.93822e-13 0 -6.43482e-14)
(4.33807e-13 0 -6.65045e-14)
(4.78618e-13 0 -6.72901e-14)
(5.24136e-13 0 -6.68612e-14)
(5.68874e-13 0 -6.51618e-14)
(6.1189e-13 0 -6.23089e-14)
(6.52418e-13 0 -5.835e-14)
(6.89751e-13 0 -5.33664e-14)
(7.23269e-13 0 -4.74778e-14)
(7.52445e-13 0 -4.08295e-14)
(7.76852e-13 0 -3.35771e-14)
(7.96168e-13 0 -2.58781e-14)
(8.10182e-13 0 -1.78857e-14)
(8.18788e-13 0 -9.74627e-15)
(8.21982e-13 0 -1.59819e-15)
(8.19847e-13 0 6.42743e-15)
(8.12546e-13 0 1.42057e-14)
(8.00313e-13 0 2.16191e-14)
(7.83435e-13 0 2.85635e-14)
(7.62225e-13 0 3.49585e-14)
(7.36997e-13 0 4.07552e-14)
(7.08052e-13 0 4.59341e-14)
(6.75671e-13 0 5.04975e-14)
(6.40125e-13 0 5.44652e-14)
(6.01685e-13 0 5.78749e-14)
(5.60622e-13 0 6.07842e-14)
(5.17223e-13 0 6.32664e-14)
(4.71798e-13 0 6.5399e-14)
(4.24685e-13 0 6.72505e-14)
(3.76242e-13 0 6.88717e-14)
(3.26833e-13 0 7.02939e-14)
(2.76802e-13 0 7.1533e-14)
(2.26451e-13 0 7.25956e-14)
(1.76013e-13 0 7.34823e-14)
(1.25629e-13 0 7.41869e-14)
(7.53455e-14 0 7.46903e-14)
(2.51143e-14 0 7.4945e-14)
(-6.97856e-06 0 -3.90769e-05)
(3.31083e-05 0 -5.34429e-05)
(3.38049e-05 0 -8.32774e-05)
(5.61663e-05 0 -8.43392e-05)
(4.06808e-05 0 -7.27317e-05)
(1.78327e-05 0 6.24734e-05)
(-3.31026e-05 0 6.19994e-05)
(-4.49175e-05 0 0.000102637)
(-6.74529e-05 0 0.000140407)
(-0.000153821 0 0.000190943)
(-0.000228091 0 0.000238128)
(-0.000319585 0 0.000273864)
(-0.000413577 0 0.000274284)
(-0.000456714 0 0.000264561)
(-0.000504854 0 0.000206258)
(-0.000545402 0 0.000145407)
(-0.000574586 0 0.00013143)
(-0.000599796 0 0.000122071)
(-0.000627622 0 6.61475e-05)
(-0.000645995 0 2.60906e-05)
(-0.000656234 0 -3.67813e-08)
(-0.000656189 0 -5.35548e-06)
(-0.000660659 0 -2.35204e-05)
(-0.000684963 0 -4.45464e-05)
(-0.00070096 0 -1.42003e-05)
(-0.000711017 0 1.06565e-05)
(-0.00071881 0 -1.1296e-06)
(-0.000727763 0 1.05786e-05)
(-0.000742886 0 1.366e-05)
(-0.000758316 0 2.15526e-05)
(-0.000768097 0 2.19703e-05)
(-0.000777609 0 2.40825e-05)
(-0.000791599 0 1.10639e-05)
(-0.000802212 0 -5.12322e-06)
(-0.000805303 0 -1.31211e-05)
(-0.000804447 0 -2.22058e-05)
(-0.000800073 0 -2.59478e-05)
(-0.000797755 0 -1.92018e-05)
(-0.000795741 0 -2.7406e-05)
(-0.00079335 0 -4.52131e-05)
(-0.000788947 0 -6.1188e-05)
(-0.000782698 0 -6.55182e-05)
(-0.000777107 0 -5.89924e-05)
(-0.000769304 0 -6.21374e-05)
(-0.000762938 0 -5.86143e-05)
(-0.00076034 0 -5.2834e-05)
(-0.000757785 0 -5.57119e-05)
(-0.000749473 0 -5.72274e-05)
(-0.000744652 0 -4.45232e-05)
(-0.000743938 0 -3.56742e-05)
(-0.000739033 0 -5.33318e-05)
(-0.000728455 0 -6.3268e-05)
(-0.000726951 0 -5.57461e-05)
(-0.000725422 0 -4.82513e-05)
(-0.00071 0 -6.11347e-05)
(-0.000698413 0 -4.56517e-05)
(-0.000694198 0 -2.91732e-05)
(-0.000691509 0 -5.54428e-05)
(-0.000695516 0 -6.91186e-05)
(-0.000690127 0 -7.49839e-05)
(-0.000647848 0 -0.000103312)
(-0.000602834 0 -0.000103518)
(-0.000548582 0 -8.73461e-05)
(-0.00049661 0 -9.14973e-05)
(-0.000440795 0 -0.000140248)
(-0.000359979 0 -0.00019393)
(-0.000350964 0 -1.19354e-05)
(-0.000249582 0 -0.000163073)
(-0.00023249 0 -5.5131e-05)
(-0.000150107 0 -0.00012474)
(-0.000108853 0 -0.00011586)
(-4.95439e-05 0 -0.000113652)
(2.28311e-05 0 -8.84008e-05)
(2.28816e-06 0 -6.30016e-06)
(4.46025e-05 0 -5.66003e-05)
(0.000124321 0 -3.51771e-05)
(0.000156015 0 -8.08665e-06)
(0.000330917 0 1.59709e-05)
(-0.000100573 0 0.000102583)
(4.69707e-06 0 -0.000246111)
(-5.65475e-13 0 -8.21204e-14)
(-8.15378e-13 0 -6.96187e-14)
(3.14805e-13 0 -9.74265e-14)
(3.79612e-13 0 -1.07531e-13)
(4.30001e-13 0 -1.1188e-13)
(4.78111e-13 0 -1.1338e-13)
(5.25521e-13 0 -1.12684e-13)
(5.71873e-13 0 -1.09857e-13)
(6.16419e-13 0 -1.05063e-13)
(6.58384e-13 0 -9.83718e-14)
(6.97017e-13 0 -8.99201e-14)
(7.31657e-13 0 -7.99135e-14)
(7.61753e-13 0 -6.86045e-14)
(7.8687e-13 0 -5.62672e-14)
(8.06686e-13 0 -4.31798e-14)
(8.21e-13 0 -2.96144e-14)
(8.29717e-13 0 -1.58303e-14)
(8.32836e-13 0 -2.07399e-15)
(8.30445e-13 0 1.14215e-14)
(8.22716e-13 0 2.44389e-14)
(8.09898e-13 0 3.67816e-14)
(7.92309e-13 0 4.82829e-14)
(7.70303e-13 0 5.88176e-14)
(7.44235e-13 0 6.83117e-14)
(7.14439e-13 0 7.67412e-14)
(6.81228e-13 0 8.41257e-14)
(6.44906e-13 0 9.05228e-14)
(6.05773e-13 0 9.60249e-14)
(5.64126e-13 0 1.00753e-13)
(5.20257e-13 0 1.04842e-13)
(4.74464e-13 0 1.08421e-13)
(4.27058e-13 0 1.11593e-13)
(3.78367e-13 0 1.14426e-13)
(3.28726e-13 0 1.16953e-13)
(2.7846e-13 0 1.19177e-13)
(2.27861e-13 0 1.21086e-13)
(1.77151e-13 0 1.22656e-13)
(1.26468e-13 0 1.23857e-13)
(7.58374e-14 0 1.24653e-13)
(2.52655e-14 0 1.24994e-13)
(-2.84736e-05 0 -6.91584e-05)
(1.495e-05 0 -9.42604e-05)
(1.50543e-05 0 -8.8178e-05)
(2.1327e-05 0 -4.9901e-05)
(-5.06185e-05 0 9.08479e-06)
(-5.95276e-05 0 -1.12614e-05)
(-5.13356e-05 0 0.000127094)
(-0.00015921 0 9.06773e-05)
(-0.000136538 0 0.000245867)
(-0.000284438 0 0.000241185)
(-0.000328633 0 0.00032037)
(-0.000390231 0 0.000329644)
(-0.000411769 0 0.000320103)
(-0.000439517 0 0.000270533)
(-0.000467353 0 0.000222781)
(-0.00048933 0 0.000196479)
(-0.000488878 0 0.000198515)
(-0.000493572 0 0.000169526)
(-0.000510404 0 0.000120852)
(-0.000537082 0 7.28389e-05)
(-0.000547658 0 7.92616e-05)
(-0.000576037 0 1.77817e-05)
(-0.00062885 0 -5.48492e-06)
(-0.000662714 0 2.4806e-05)
(-0.000677624 0 3.09943e-05)
(-0.000689498 0 1.97005e-05)
(-0.00069824 0 3.50104e-05)
(-0.000702515 0 2.80751e-05)
(-0.000704369 0 4.62985e-05)
(-0.000711633 0 5.70433e-05)
(-0.000717249 0 5.3538e-05)
(-0.000717898 0 5.10841e-05)
(-0.000719456 0 4.72388e-05)
(-0.00073347 0 4.68896e-05)
(-0.000743801 0 3.64835e-05)
(-0.00074653 0 2.73942e-05)
(-0.000746142 0 2.20324e-05)
(-0.000743585 0 2.13037e-05)
(-0.000733949 0 1.17523e-05)
(-0.000724427 0 4.9168e-06)
(-0.000715658 0 -5.79927e-07)
(-0.00070431 0 -1.34623e-06)
(-0.000693096 0 3.20153e-06)
(-0.000684221 0 7.10005e-06)
(-0.000676894 0 5.202e-06)
(-0.000669325 0 1.10267e-05)
(-0.000660626 0 2.54886e-05)
(-0.000652475 0 2.45341e-05)
(-0.000648805 0 1.24798e-05)
(-0.000649042 0 -4.88359e-06)
(-0.000645117 0 -1.22484e-05)
(-0.000629473 0 -2.9546e-05)
(-0.000624551 0 -3.37438e-05)
(-0.000624336 0 -3.96701e-05)
(-0.000624074 0 -2.78791e-05)
(-0.000609599 0 -2.42765e-05)
(-0.000602021 0 -3.95815e-05)
(-0.000601048 0 -6.55285e-05)
(-0.00060275 0 -9.43334e-05)
(-0.000602005 0 -0.000104638)
(-0.000605363 0 -9.98221e-05)
(-0.000586146 0 -0.000119466)
(-0.00052318 0 -0.000156071)
(-0.000480846 0 -0.000171674)
(-0.00043248 0 -0.000208301)
(-0.000367803 0 -0.000225897)
(-0.000305486 0 -0.00022126)
(-0.000230759 0 -0.000228101)
(-0.000205878 0 -0.000188279)
(-0.000119071 0 -0.000214745)
(-8.51813e-05 0 -0.000178333)
(-5.98303e-05 0 -0.000135898)
(-6.6689e-05 0 -8.93534e-05)
(6.81598e-05 0 -5.91154e-05)
(3.11639e-05 0 -5.15839e-05)
(7.12034e-05 0 -5.73026e-06)
(-5.64242e-05 0 4.91792e-05)
(-0.00038986 0 2.48091e-05)
(-0.000467307 0 1.72358e-05)
(5.27591e-06 0 -0.00031687)
(-7.30096e-13 0 -3.7552e-13)
(-6.47752e-13 0 -1.59406e-13)
(3.38398e-13 0 -1.52548e-13)
(3.79717e-13 0 -1.56436e-13)
(4.28306e-13 0 -1.60063e-13)
(4.78117e-13 0 -1.61523e-13)
(5.27787e-13 0 -1.60339e-13)
(5.76495e-13 0 -1.56264e-13)
(6.23375e-13 0 -1.49377e-13)
(6.67561e-13 0 -1.39741e-13)
(7.08209e-13 0 -1.27545e-13)
(7.44584e-13 0 -1.1309e-13)
(7.76091e-13 0 -9.67562e-14)
(8.02276e-13 0 -7.89671e-14)
(8.22821e-13 0 -6.01538e-14)
(8.37531e-13 0 -4.07377e-14)
(8.46329e-13 0 -2.11159e-14)
(8.49234e-13 0 -1.6542e-15)
(8.4636e-13 0 1.7318e-14)
(8.37906e-13 0 3.55134e-14)
(8.24157e-13 0 5.26878e-14)
(8.05471e-13 0 6.86418e-14)
(7.82253e-13 0 8.32279e-14)
(7.54921e-13 0 9.63628e-14)
(7.23866e-13 0 1.08032e-13)
(6.89452e-13 0 1.18284e-13)
(6.52025e-13 0 1.27212e-13)
(6.11915e-13 0 1.34947e-13)
(5.6944e-13 0 1.41641e-13)
(5.24892e-13 0 1.47456e-13)
(4.78549e-13 0 1.52544e-13)
(4.3069e-13 0 1.57028e-13)
(3.81601e-13 0 1.60996e-13)
(3.31584e-13 0 1.64493e-13)
(2.80936e-13 0 1.67533e-13)
(2.29931e-13 0 1.70106e-13)
(1.78784e-13 0 1.72187e-13)
(1.27626e-13 0 1.73745e-13)
(7.64825e-14 0 1.74743e-13)
(2.54557e-14 0 1.75154e-13)
(-3.41368e-05 0 -6.49399e-05)
(4.37724e-05 0 -5.78491e-05)
(-2.16437e-05 0 -5.79602e-05)
(-9.33464e-05 0 -4.8223e-05)
(-0.000103557 0 3.13248e-05)
(-0.000129817 0 1.86078e-05)
(-0.000153957 0 0.000107589)
(-0.000223309 0 0.000193557)
(-0.000267215 0 0.000290332)
(-0.000351835 0 0.000339421)
(-0.000391751 0 0.00038652)
(-0.000399582 0 0.000406157)
(-0.000436511 0 0.000325424)
(-0.000421409 0 0.000286499)
(-0.000433664 0 0.000241352)
(-0.000451023 0 0.000201087)
(-0.000461851 0 0.000170698)
(-0.000457494 0 0.000171708)
(-0.00047836 0 0.000137558)
(-0.000509368 0 7.0057e-05)
(-0.000529499 0 3.54204e-05)
(-0.000568601 0 2.65546e-05)
(-0.000611787 0 6.75312e-05)
(-0.000646344 0 4.77154e-05)
(-0.000670013 0 1.98506e-05)
(-0.000682942 0 3.78306e-05)
(-0.000689831 0 1.93858e-05)
(-0.000690522 0 2.04267e-05)
(-0.000688287 0 2.09067e-05)
(-0.000687561 0 3.76998e-05)
(-0.000676249 0 4.68546e-05)
(-0.000658809 0 4.11326e-05)
(-0.000653888 0 4.36145e-05)
(-0.000661396 0 3.7879e-05)
(-0.000668588 0 2.61959e-05)
(-0.00066584 0 -1.08756e-05)
(-0.000661601 0 -2.6571e-06)
(-0.00066329 0 -3.31186e-06)
(-0.000662302 0 -1.73571e-05)
(-0.000653107 0 -3.73773e-05)
(-0.000643526 0 -4.82606e-05)
(-0.000630785 0 -6.00572e-05)
(-0.000616425 0 -4.95022e-05)
(-0.000603868 0 -4.93784e-05)
(-0.000591764 0 -4.03768e-05)
(-0.000580441 0 -3.46259e-05)
(-0.000574118 0 -3.91883e-05)
(-0.000568546 0 -3.58338e-05)
(-0.000550907 0 -4.35888e-05)
(-0.000541802 0 -2.95286e-05)
(-0.000541 0 -3.1378e-05)
(-0.000544363 0 -4.76363e-05)
(-0.00053921 0 -7.48633e-05)
(-0.00053385 0 -5.94407e-05)
(-0.000533793 0 -5.05281e-05)
(-0.000532067 0 -4.61635e-05)
(-0.000522304 0 -4.4816e-05)
(-0.000519797 0 -5.28947e-05)
(-0.000523704 0 -8.49664e-05)
(-0.00052608 0 -0.000122465)
(-0.000527498 0 -0.000147523)
(-0.000529109 0 -0.000152393)
(-0.000492915 0 -0.000210458)
(-0.000450568 0 -0.000236403)
(-0.000425371 0 -0.000221302)
(-0.000358688 0 -0.000275222)
(-0.000341987 0 -0.000217452)
(-0.00025823 0 -0.000241762)
(-0.000189469 0 -0.000242078)
(-0.000173156 0 -0.000199563)
(-9.88412e-05 0 -0.000204315)
(-7.12738e-05 0 -0.000179165)
(-1.52197e-05 0 -0.000159949)
(3.42867e-05 0 -0.000111475)
(6.55422e-05 0 -7.14359e-05)
(0.000129339 0 -2.80651e-05)
(0.000164342 0 9.02323e-05)
(0.000150704 0 0.00011038)
(-0.000216593 0 4.07339e-05)
(5.33898e-06 0 -0.000227966)
(-7.11924e-13 0 -2.44019e-13)
(-7.49329e-13 0 -1.75479e-13)
(3.1812e-13 0 -1.96888e-13)
(3.72441e-13 0 -2.05576e-13)
(4.25258e-13 0 -2.10352e-13)
(4.78133e-13 0 -2.12144e-13)
(5.30906e-13 0 -2.10579e-13)
(5.82836e-13 0 -2.05245e-13)
(6.32942e-13 0 -1.96135e-13)
(6.80215e-13 0 -1.83319e-13)
(7.23668e-13 0 -1.67047e-13)
(7.62446e-13 0 -1.47735e-13)
(7.95876e-13 0 -1.25924e-13)
(8.23472e-13 0 -1.0222e-13)
(8.44916e-13 0 -7.72478e-14)
(8.60038e-13 0 -5.16101e-14)
(8.68801e-13 0 -2.58601e-14)
(8.7127e-13 0 -4.86498e-16)
(8.67613e-13 0 2.4091e-14)
(8.58086e-13 0 4.75261e-14)
(8.43027e-13 0 6.95441e-14)
(8.22849e-13 0 8.99356e-14)
(7.98024e-13 0 1.08555e-13)
(7.69039e-13 0 1.2533e-13)
(7.3636e-13 0 1.40265e-13)
(7.00408e-13 0 1.53433e-13)
(6.61569e-13 0 1.64954e-13)
(6.20202e-13 0 1.74983e-13)
(5.76635e-13 0 1.83685e-13)
(5.3116e-13 0 1.91236e-13)
(4.84036e-13 0 1.97798e-13)
(4.3551e-13 0 2.03515e-13)
(3.85831e-13 0 2.08495e-13)
(3.35263e-13 0 2.12813e-13)
(2.84073e-13 0 2.16508e-13)
(2.32515e-13 0 2.19589e-13)
(1.80791e-13 0 2.22049e-13)
(1.29024e-13 0 2.23866e-13)
(7.72459e-14 0 2.25015e-13)
(2.56763e-14 0 2.25481e-13)
(-4.13375e-05 0 -4.84304e-05)
(-3.36716e-05 0 -5.16679e-05)
(-0.000130601 0 -5.14612e-05)
(-0.000131675 0 4.11107e-05)
(-0.000163482 0 3.77372e-05)
(-0.000213058 0 5.20315e-05)
(-0.000233932 0 0.000179265)
(-0.000304175 0 0.000266402)
(-0.000335373 0 0.00036142)
(-0.000361778 0 0.000428504)
(-0.000395426 0 0.000429323)
(-0.000429665 0 0.000384288)
(-0.000431723 0 0.000322197)
(-0.00041666 0 0.000282353)
(-0.000417739 0 0.000243446)
(-0.000424723 0 0.000214943)
(-0.000428751 0 0.000202177)
(-0.000445739 0 0.000161823)
(-0.000451523 0 0.000182533)
(-0.000479458 0 0.00015311)
(-0.000503771 0 0.000152564)
(-0.000552016 0 0.00011787)
(-0.000594885 0 8.3477e-05)
(-0.000627819 0 7.43072e-05)
(-0.000655981 0 5.5436e-05)
(-0.000672498 0 4.5424e-05)
(-0.000679913 0 3.87981e-05)
(-0.000681792 0 3.29413e-05)
(-0.000683722 0 2.51019e-05)
(-0.000684418 0 2.94539e-05)
(-0.000650792 0 4.2706e-05)
(-0.000612517 0 4.34591e-05)
(-0.000602208 0 4.09361e-05)
(-0.000604274 0 3.32845e-05)
(-0.000589826 0 2.36793e-05)
(-0.000558811 0 1.93551e-05)
(-0.000552303 0 1.00674e-05)
(-0.000558311 0 9.19941e-06)
(-0.000563465 0 -4.14576e-06)
(-0.000561075 0 -3.10261e-05)
(-0.000549969 0 -6.16985e-05)
(-0.000533017 0 -4.72375e-05)
(-0.000512387 0 -5.70748e-05)
(-0.000506247 0 -4.30952e-05)
(-0.000508538 0 -3.2511e-05)
(-0.000506529 0 -2.99787e-05)
(-0.000511328 0 -1.77885e-05)
(-0.000521852 0 -1.69947e-05)
(-0.000514753 0 -2.26959e-05)
(-0.000500441 0 -3.79343e-05)
(-0.000501358 0 -4.37634e-05)
(-0.000509797 0 -4.75198e-05)
(-0.000497106 0 -4.38542e-05)
(-0.000473999 0 -4.92597e-05)
(-0.000471591 0 -4.39847e-05)
(-0.00047051 0 -3.49704e-05)
(-0.000443758 0 -3.31568e-05)
(-0.000432254 0 -4.40256e-05)
(-0.000430899 0 -5.48833e-05)
(-0.000446937 0 -9.3364e-05)
(-0.000464718 0 -0.000118084)
(-0.000463973 0 -0.000146475)
(-0.000457422 0 -0.000173824)
(-0.000414944 0 -0.00026218)
(-0.000371782 0 -0.000321144)
(-0.000378823 0 -0.00028399)
(-0.000312919 0 -0.000325286)
(-0.000233438 0 -0.000334748)
(-0.000195491 0 -0.000303342)
(-0.000136391 0 -0.000281172)
(-6.93597e-05 0 -0.000255183)
(-3.86275e-05 0 -0.000219862)
(-1.50332e-05 0 -0.000180923)
(3.23381e-05 0 -0.000136033)
(5.03125e-05 0 -0.000110625)
(0.000120384 0 -7.69731e-05)
(0.000181856 0 1.12864e-05)
(0.000329943 0 4.39548e-05)
(-5.55566e-05 0 0.000102471)
(5.10957e-06 0 -0.000162879)
(-6.16474e-13 0 -4.40129e-13)
(-7.8055e-13 0 -2.55483e-13)
(3.08643e-13 0 -2.54054e-13)
(3.66593e-13 0 -2.58697e-13)
(4.22077e-13 0 -2.63636e-13)
(4.78184e-13 0 -2.66013e-13)
(5.34811e-13 0 -2.64342e-13)
(5.90939e-13 0 -2.57844e-13)
(6.45301e-13 0 -2.46416e-13)
(6.9665e-13 0 -2.30158e-13)
(7.43793e-13 0 -2.09421e-13)
(7.85706e-13 0 -1.84772e-13)
(8.21606e-13 0 -1.56944e-13)
(8.50953e-13 0 -1.2676e-13)
(8.73431e-13 0 -9.50725e-14)
(8.88919e-13 0 -6.26993e-14)
(8.97452e-13 0 -3.0372e-14)
(8.99185e-13 0 1.28668e-15)
(8.94372e-13 0 3.17653e-14)
(8.83359e-13 0 6.06628e-14)
(8.66567e-13 0 8.76837e-14)
(8.44482e-13 0 1.12623e-13)
(8.17648e-13 0 1.35355e-13)
(7.86631e-13 0 1.55829e-13)
(7.51968e-13 0 1.74073e-13)
(7.14141e-13 0 1.90182e-13)
(6.73575e-13 0 2.04302e-13)
(6.30647e-13 0 2.166e-13)
(5.85693e-13 0 2.27257e-13)
(5.39004e-13 0 2.36456e-13)
(4.90828e-13 0 2.44375e-13)
(4.41388e-13 0 2.51178e-13)
(3.909e-13 0 2.57007e-13)
(3.39596e-13 0 2.61972e-13)
(2.87711e-13 0 2.66151e-13)
(2.35472e-13 0 2.69588e-13)
(1.83061e-13 0 2.72302e-13)
(1.30591e-13 0 2.7429e-13)
(7.8098e-14 0 2.75543e-13)
(2.59224e-14 0 2.76056e-13)
(-5.61294e-05 0 1.80416e-05)
(-0.000145277 0 -2.2299e-05)
(-0.000194238 0 1.85608e-05)
(-0.000178751 0 5.73825e-05)
(-0.000229371 0 7.55786e-05)
(-0.000325038 0 6.46281e-05)
(-0.000327055 0 0.00025673)
(-0.00041032 0 0.000277589)
(-0.000408853 0 0.000371613)
(-0.000415522 0 0.000401894)
(-0.000414523 0 0.000408701)
(-0.000395659 0 0.000404019)
(-0.000396136 0 0.000339719)
(-0.000389852 0 0.000287059)
(-0.000380582 0 0.000253992)
(-0.000387734 0 0.00021881)
(-0.000390624 0 0.000207134)
(-0.000418887 0 0.000177614)
(-0.00044314 0 0.000176893)
(-0.00045758 0 0.00017459)
(-0.000479996 0 0.000162035)
(-0.000526268 0 0.000142061)
(-0.000563192 0 0.000141067)
(-0.000600713 0 0.000102348)
(-0.000632029 0 8.91562e-05)
(-0.000660673 0 5.66475e-05)
(-0.000678134 0 4.40023e-05)
(-0.000690982 0 2.26368e-05)
(-0.000699435 0 1.60114e-05)
(-0.000701971 0 7.81374e-06)
(-0.00067137 0 -3.23952e-05)
(-0.000619309 0 -2.02542e-05)
(-0.000581611 0 8.58931e-06)
(-0.000545026 0 2.58487e-05)
(-0.000500598 0 1.60297e-05)
(-0.000467516 0 -4.72162e-06)
(-0.000458774 0 6.89043e-06)
(-0.000462296 0 1.74538e-05)
(-0.000458687 0 -7.71985e-06)
(-0.00043976 0 -2.7822e-05)
(-0.000426013 0 -5.1383e-05)
(-0.00040997 0 -6.34353e-05)
(-0.000389298 0 -7.76807e-05)
(-0.00038384 0 -7.31461e-05)
(-0.000399532 0 1.64709e-05)
(-0.000411876 0 -2.47656e-06)
(-0.00042067 0 -1.72562e-05)
(-0.000434955 0 6.75246e-06)
(-0.00044341 0 -2.55123e-05)
(-0.000448832 0 -4.62895e-05)
(-0.000462472 0 -2.7124e-05)
(-0.000467642 0 -3.94873e-05)
(-0.000466101 0 -6.77074e-05)
(-0.000428438 0 -0.000159963)
(-0.000433309 0 -3.05861e-05)
(-0.000410675 0 -3.67776e-05)
(-0.000379654 0 -0.000137716)
(-0.000364866 0 -8.68874e-05)
(-0.000349269 0 -7.43513e-05)
(-0.000349061 0 -7.74932e-05)
(-0.000373511 0 -9.94175e-05)
(-0.000374674 0 -0.000176656)
(-0.000367706 0 -0.000248712)
(-0.000385555 0 -0.000264153)
(-0.000396941 0 -0.000273509)
(-0.000372823 0 -0.000310384)
(-0.00030372 0 -0.000369305)
(-0.000261969 0 -0.000377292)
(-0.000206718 0 -0.000377505)
(-0.000157136 0 -0.000340767)
(-0.000126901 0 -0.000286092)
(-6.6366e-05 0 -0.00026043)
(-6.04584e-05 0 -0.000216486)
(4.43174e-05 0 -0.000158848)
(-3.87026e-06 0 -0.000118843)
(4.44566e-05 0 -1.56038e-05)
(-0.000225092 0 0.000111873)
(-0.000310458 0 9.53316e-05)
(-0.000426379 0 0.000139648)
(5.59682e-06 0 -0.000199852)
(-7.88771e-13 0 -6.00284e-13)
(-7.52267e-13 0 -3.1892e-13)
(3.15242e-13 0 -3.05344e-13)
(3.63194e-13 0 -3.11658e-13)
(4.18275e-13 0 -3.19548e-13)
(4.77716e-13 0 -3.23868e-13)
(5.39198e-13 0 -3.22733e-13)
(6.00762e-13 0 -3.15286e-13)
(6.60629e-13 0 -3.01447e-13)
(7.17211e-13 0 -2.81426e-13)
(7.69054e-13 0 -2.55737e-13)
(8.14923e-13 0 -2.25151e-13)
(8.53888e-13 0 -1.90632e-13)
(8.85343e-13 0 -1.53261e-13)
(9.08976e-13 0 -1.14145e-13)
(9.24739e-13 0 -7.43498e-14)
(9.32786e-13 0 -3.48128e-14)
(9.33407e-13 0 3.68923e-15)
(9.26989e-13 0 4.05435e-14)
(9.14004e-13 0 7.52909e-14)
(8.94987e-13 0 1.07615e-13)
(8.7052e-13 0 1.3732e-13)
(8.4123e-13 0 1.64308e-13)
(8.07757e-13 0 1.88559e-13)
(7.70714e-13 0 2.10133e-13)
(7.30637e-13 0 2.29152e-13)
(6.87987e-13 0 2.45785e-13)
(6.43158e-13 0 2.60228e-13)
(5.96491e-13 0 2.7268e-13)
(5.48277e-13 0 2.83346e-13)
(4.98758e-13 0 2.92427e-13)
(4.48142e-13 0 3.00119e-13)
(3.96626e-13 0 3.06602e-13)
(3.44407e-13 0 3.12031e-13)
(2.9169e-13 0 3.16528e-13)
(2.38667e-13 0 3.20178e-13)
(1.85493e-13 0 3.23031e-13)
(1.32264e-13 0 3.25109e-13)
(7.90115e-14 0 3.26419e-13)
(2.61896e-14 0 3.2697e-13)
(-5.10222e-05 0 0.000108085)
(-0.000163683 0 5.93876e-05)
(-0.000314191 0 -2.14525e-05)
(-0.00030157 0 1.90568e-05)
(-0.000280568 0 0.000180005)
(-0.000359314 0 0.000201454)
(-0.00040861 0 0.000259301)
(-0.000426671 0 0.000342363)
(-0.000447729 0 0.000360747)
(-0.000443432 0 0.000375968)
(-0.000402123 0 0.000400614)
(-0.000355796 0 0.000393111)
(-0.000379253 0 0.0002951)
(-0.000354988 0 0.000254543)
(-0.000324437 0 0.000238204)
(-0.000310067 0 0.000228031)
(-0.000302032 0 0.00023333)
(-0.000315483 0 0.000233135)
(-0.00037446 0 0.000217955)
(-0.000432865 0 0.000188153)
(-0.000475988 0 0.000144972)
(-0.000496677 0 0.000150166)
(-0.000513549 0 0.000172787)
(-0.000560762 0 0.000112224)
(-0.000603515 0 0.000121518)
(-0.00065415 0 7.11801e-05)
(-0.000684036 0 7.72851e-05)
(-0.00071369 0 4.13119e-05)
(-0.000733442 0 3.2487e-05)
(-0.000739682 0 8.55422e-06)
(-0.000736924 0 -1.90752e-05)
(-0.000726434 0 -5.26425e-05)
(-0.00066843 0 -4.22151e-05)
(-0.000589804 0 -3.23702e-06)
(-0.000525861 0 -5.26496e-05)
(-0.000481779 0 -1.83946e-05)
(-0.000457636 0 -1.39909e-05)
(-0.000443629 0 1.53185e-05)
(-0.000403223 0 -4.89141e-05)
(-0.000336777 0 -6.71304e-05)
(-0.000284891 0 -7.89528e-05)
(-0.000249206 0 -8.36305e-05)
(-0.000234522 0 -6.53281e-05)
(-0.000251089 0 1.08283e-05)
(-0.000271503 0 -3.45481e-05)
(-0.000305182 0 2.26708e-05)
(-0.000331645 0 -3.19259e-05)
(-0.000350276 0 -2.81189e-05)
(-0.000359942 0 -2.34994e-05)
(-0.000360604 0 -4.68939e-05)
(-0.000364635 0 -4.86739e-05)
(-0.00038577 0 -5.0741e-05)
(-0.000414018 0 -4.13588e-05)
(-0.000425944 0 -3.39291e-05)
(-0.000398724 0 -0.000122278)
(-0.000357524 0 -0.000161851)
(-0.000373398 0 -4.14977e-05)
(-0.000330192 0 -6.39306e-05)
(-0.000294496 0 -9.9094e-05)
(-0.000287714 0 -8.37817e-05)
(-0.000283904 0 -8.78313e-05)
(-0.000300438 0 -0.000119727)
(-0.000324249 0 -0.00018926)
(-0.000325556 0 -0.000273714)
(-0.000315446 0 -0.000330698)
(-0.000308638 0 -0.000357902)
(-0.000304812 0 -0.000372159)
(-0.000257179 0 -0.000408961)
(-0.000193779 0 -0.000428657)
(-0.000176547 0 -0.000385579)
(-0.000146022 0 -0.000332858)
(-7.85818e-05 0 -0.000309392)
(-4.9628e-05 0 -0.000270983)
(9.63048e-06 0 -0.000208657)
(-3.64453e-06 0 -0.000143455)
(0.000127465 0 -2.56932e-05)
(-1.79387e-06 0 0.000137798)
(2.61575e-05 0 7.65047e-05)
(-0.000646906 0 -9.79788e-06)
(6.50698e-06 0 -0.000210021)
(-1.02604e-12 0 -3.4118e-13)
(-6.83921e-13 0 -2.88367e-13)
(3.16237e-13 0 -3.36925e-13)
(3.5272e-13 0 -3.63153e-13)
(4.10195e-13 0 -3.7908e-13)
(4.75283e-13 0 -3.87107e-13)
(5.43514e-13 0 -3.87217e-13)
(6.12224e-13 0 -3.79014e-13)
(6.7916e-13 0 -3.62586e-13)
(7.42359e-13 0 -3.38329e-13)
(8.00068e-13 0 -3.07002e-13)
(8.50812e-13 0 -2.69657e-13)
(8.93496e-13 0 -2.27556e-13)
(9.2744e-13 0 -1.82079e-13)
(9.52342e-13 0 -1.34625e-13)
(9.68251e-13 0 -8.65322e-14)
(9.75491e-13 0 -3.89781e-14)
(9.74541e-13 0 7.08265e-15)
(9.65974e-13 0 5.09207e-14)
(9.50431e-13 0 9.20118e-14)
(9.28596e-13 0 1.30015e-13)
(9.01175e-13 0 1.64746e-13)
(8.68888e-13 0 1.96137e-13)
(8.32456e-13 0 2.24213e-13)
(7.9256e-13 0 2.49074e-13)
(7.49794e-13 0 2.70885e-13)
(7.0465e-13 0 2.89855e-13)
(6.57541e-13 0 3.06217e-13)
(6.08811e-13 0 3.20215e-13)
(5.58752e-13 0 3.3209e-13)
(5.07602e-13 0 3.42083e-13)
(4.55563e-13 0 3.5043e-13)
(4.02812e-13 0 3.57355e-13)
(3.49521e-13 0 3.6306e-13)
(2.95858e-13 0 3.67713e-13)
(2.41975e-13 0 3.71441e-13)
(1.87992e-13 0 3.74327e-13)
(1.3398e-13 0 3.76419e-13)
(7.99589e-14 0 3.77743e-13)
(2.64728e-14 0 3.78318e-13)
(-7.8228e-05 0 0.000196728)
(-9.87373e-05 0 0.000188836)
(-0.000244729 0 0.000204171)
(-0.00032676 0 0.000153785)
(-0.000376653 0 0.000143295)
(-0.000419671 0 0.000210913)
(-0.000424767 0 0.000311066)
(-0.000436632 0 0.000350033)
(-0.000441474 0 0.000368666)
(-0.000443445 0 0.000368934)
(-0.000395611 0 0.000372451)
(-0.00033733 0 0.000369744)
(-0.000307524 0 0.000340616)
(-0.000312213 0 0.000267993)
(-0.000291319 0 0.000216441)
(-0.000251812 0 0.000213658)
(-0.000237865 0 0.00021505)
(-0.000233407 0 0.000233329)
(-0.000255329 0 0.000261997)
(-0.000318031 0 0.000249172)
(-0.000428979 0 0.00017549)
(-0.0004757 0 0.000165441)
(-0.000485248 0 0.000186126)
(-0.000514776 0 0.0001594)
(-0.000581077 0 0.000133124)
(-0.000638739 0 0.000112008)
(-0.000679853 0 0.000106461)
(-0.000729131 0 6.8289e-05)
(-0.000761728 0 5.42631e-05)
(-0.000768101 0 3.4165e-05)
(-0.000768911 0 -0.000107682)
(-0.000796176 0 -5.33078e-05)
(-0.000797971 0 -6.47776e-05)
(-0.000759479 0 -0.000116645)
(-0.000739592 0 -0.000111798)
(-0.00070801 0 -0.000127504)
(-0.000634837 0 -6.46046e-05)
(-0.00053519 0 6.09636e-05)
(-0.000461905 0 -3.56662e-05)
(-0.000355846 0 -0.000186363)
(-0.00026135 0 -5.05297e-05)
(-0.000164916 0 -9.64651e-05)
(-0.000103555 0 -6.5344e-05)
(-0.00014474 0 -1.14866e-06)
(-0.000186528 0 3.28008e-05)
(-0.000206669 0 3.05531e-05)
(-0.000199314 0 3.42545e-05)
(-0.000194714 0 4.85255e-05)
(-0.000238592 0 4.37991e-05)
(-0.000273429 0 7.1203e-06)
(-0.000297036 0 -1.20044e-05)
(-0.00031946 0 -3.21338e-05)
(-0.000330009 0 -6.8186e-05)
(-0.000335637 0 -8.85365e-05)