/*--------------------------------*- C++ -*----------------------------------*\
  =========                 |
  \\      /  F ield         | OpenFOAM: The Open Source CFD Toolbox
   \\    /   O peration     | Website:  https://openfoam.org
    \\  /    A nd           | Version:  6
     \\/     M anipulation  |
\*---------------------------------------------------------------------------*/
FoamFile
{
    version     2.0;
    format      ascii;
    class       surfaceScalarField;
    location    "2800";
    object      phi;
}
// * * * * * * * * * * * * * * * * * * * * * * * * * * * * * * * * * * * * * //

dimensions      [0 3 -1 0 0 0 0];

internalField   nonuniform List<scalar> 
9440
(
8.6577e-11
-8.6577e-11
1.23527e-10
-3.69504e-11
7.11346e-11
5.23916e-11
2.68451e-11
4.42889e-11
-2.11038e-13
2.70556e-11
-1.45304e-10
1.45092e-10
-3.36765e-10
1.91461e-10
-5.74548e-10
2.37783e-10
-7.39187e-10
1.64638e-10
-8.55089e-10
1.15902e-10
-1.03949e-09
1.84404e-10
-1.09844e-09
5.89469e-11
-1.15172e-09
5.32766e-11
-1.14535e-09
-6.37078e-12
-1.13792e-09
-7.43342e-12
-1.22188e-09
8.39669e-11
-1.38558e-09
1.63696e-10
-1.60784e-09
2.22259e-10
-1.86682e-09
2.58976e-10
-2.06828e-09
2.01463e-10
-2.29405e-09
2.2577e-10
-2.59835e-09
3.04296e-10
-2.92744e-09
3.29092e-10
-3.22603e-09
2.98591e-10
-3.45007e-09
2.24036e-10
-3.58756e-09
1.37492e-10
-3.69402e-09
1.06464e-10
-3.78426e-09
9.02316e-11
-3.83686e-09
5.25992e-11
-3.86228e-09
2.54222e-11
-3.87689e-09
1.4609e-11
-3.87538e-09
-1.50788e-12
-3.86471e-09
-1.06727e-11
-3.8512e-09
-1.35097e-11
-3.84357e-09
-7.62546e-12
-3.82417e-09
-1.94069e-11
-3.78901e-09
-3.51601e-11
-3.69151e-09
-9.75e-11
-3.4258e-09
-2.6571e-10
-3.17066e-09
-2.55139e-10
-2.96937e-09
-2.01292e-10
-2.62175e-09
-3.47611e-10
-2.31987e-09
-3.01882e-10
-1.8641e-09
-4.55768e-10
-1.47304e-09
-3.91061e-10
-1.25201e-09
-2.21031e-10
-1.04276e-09
-2.09254e-10
-9.47908e-10
-9.48485e-11
-9.00404e-10
-4.75026e-11
-8.44692e-10
-5.57115e-11
-8.4251e-10
-2.18055e-12
-8.79301e-10
3.67918e-11
-9.04112e-10
2.48126e-11
-9.4903e-10
4.49188e-11
-9.87868e-10
3.88397e-11
-9.17537e-10
-7.03294e-11
-8.37274e-10
-8.02618e-11
-6.73192e-10
-1.64081e-10
-5.79007e-10
-9.4183e-11
-3.77576e-10
-2.0143e-10
-1.70624e-10
-2.0695e-10
-4.70466e-11
-1.23576e-10
2.78645e-10
-3.2569e-10
5.15016e-10
-2.36369e-10
5.56799e-10
-4.17811e-11
1.08676e-09
-5.29956e-10
1.16938e-09
-8.26225e-11
1.08226e-09
8.71191e-11
1.31875e-09
-2.36484e-10
1.49682e-09
-1.78073e-10
1.61169e-09
-1.14868e-10
1.62655e-09
-1.4854e-11
1.63477e-09
-8.21961e-12
1.58652e-09
4.82463e-11
1.50756e-09
7.8957e-11
1.40278e-09
1.04786e-10
1.28019e-09
1.22586e-10
1.11608e-09
1.64117e-10
8.88321e-10
2.27758e-10
6.0675e-10
2.81567e-10
2.49241e-14
6.06709e-10
1.03421e-18
1.82352e-18
1.08865e-18
-5.44473e-20
8.07983e-19
2.74321e-19
5.292e-19
2.79871e-19
3.45182e-19
1.86155e-19
2.59087e-19
8.75183e-20
2.51238e-19
8.66715e-21
3.00941e-19
-4.91234e-20
3.91223e-19
-8.97557e-20
5.08921e-19
-1.17178e-19
6.43793e-19
-1.34352e-19
7.87694e-19
-1.43364e-19
9.33989e-19
-1.45716e-19
1.0772e-18
-1.42569e-19
1.21278e-18
-1.34883e-19
1.33703e-18
-1.23506e-19
1.44698e-18
-1.09206e-19
1.5404e-18
-9.26926e-20
1.6157e-18
-7.46135e-20
1.67193e-18
-5.55571e-20
1.70863e-18
-3.60448e-20
1.72585e-18
-1.65272e-20
1.72401e-18
2.61653e-21
1.70382e-18
2.10779e-20
1.66625e-18
3.86184e-20
1.6124e-18
5.5066e-20
1.5435e-18
7.03049e-20
1.46085e-18
8.42634e-20
1.36576e-18
9.69044e-20
1.25956e-18
1.08218e-19
1.14354e-18
1.18218e-19
1.01896e-18
1.26931e-19
8.87003e-19
1.34396e-19
7.48808e-19
1.40658e-19
6.05447e-19
1.45764e-19
4.57946e-19
1.4977e-19
3.07294e-19
1.5274e-19
1.54412e-19
1.54784e-19
1.56183e-19
5.27656e-11
-1.39343e-10
5.54774e-11
-3.96633e-11
-6.91652e-11
1.77033e-10
-2.75044e-10
2.50166e-10
-4.85659e-10
2.3767e-10
-7.09047e-10
3.68479e-10
-8.83245e-10
3.65657e-10
-1.02566e-09
3.80201e-10
-1.1481e-09
2.87077e-10
-1.2995e-09
2.67301e-10
-1.27414e-09
1.59038e-10
-1.30233e-09
8.71324e-11
-1.29132e-09
4.22728e-11
-1.34692e-09
4.92281e-11
-1.38594e-09
3.15841e-11
-1.51002e-09
2.0805e-10
-1.70178e-09
3.55453e-10
-1.88792e-09
4.08394e-10
-2.1411e-09
5.12153e-10
-2.3838e-09
4.44166e-10
-2.59914e-09
4.41104e-10
-2.81626e-09
5.2142e-10
-3.02626e-09
5.39089e-10
-3.22932e-09
5.01649e-10
-3.39101e-09
3.85728e-10
-3.52455e-09
2.71025e-10
-3.64939e-09
2.31307e-10
-3.76522e-09
2.06061e-10
-3.83984e-09
1.27216e-10
-3.87451e-09
6.00939e-11
-3.89395e-09
3.4046e-11
-3.91036e-09
1.49075e-11
-3.91104e-09
-9.99967e-12
-3.90008e-09
-2.4464e-11
-3.88769e-09
-2.00213e-11
-3.85232e-09
-5.47719e-11
-3.64606e-09
-2.41426e-10
-3.49967e-09
-2.43888e-10
-3.37559e-09
-3.89786e-10
-3.18097e-09
-4.49759e-10
-2.90979e-09
-4.72475e-10
-2.61579e-09
-6.41609e-10
-2.26482e-09
-6.52852e-10
-1.75351e-09
-9.67079e-10
-1.38565e-09
-7.58918e-10
-1.13372e-09
-4.72962e-10
-8.84389e-10
-4.58582e-10
-8.32382e-10
-1.46854e-10
-8.07148e-10
-7.27348e-11
-8.49406e-10
-1.34521e-11
-9.33898e-10
8.23135e-11
-1.03973e-09
1.42625e-10
-1.10129e-09
8.63799e-11
-1.14406e-09
8.76871e-11
-1.17381e-09
6.85976e-11
-1.07907e-09
-1.65067e-10
-9.68992e-10
-1.90342e-10
-8.934e-10
-2.3967e-10
-7.0818e-10
-2.794e-10
-5.23466e-10
-3.86141e-10
-3.328e-10
-3.97614e-10
-3.78835e-11
-4.18489e-10
1.19573e-10
-4.83144e-10
3.40061e-10
-4.56855e-10
5.53474e-10
-2.55192e-10
8.24793e-10
-8.01273e-10
1.03284e-09
-2.90669e-10
1.2096e-09
-8.96374e-11
1.24544e-09
-2.72318e-10
1.32933e-09
-2.61966e-10
1.37155e-09
-1.57082e-10
1.39021e-09
-3.35154e-11
1.41308e-09
-3.10933e-11
1.39266e-09
6.8667e-11
1.31413e-09
1.57492e-10
1.31584e-09
1.03079e-10
1.10975e-09
3.28673e-10
1.07104e-09
2.02826e-10
8.57723e-10
4.41083e-10
5.65629e-10
5.73685e-10
-4.61024e-16
1.17241e-09
1.6988e-18
4.18839e-18
1.41469e-18
2.4423e-19
8.12156e-19
8.81275e-19
4.35198e-19
6.58027e-19
2.46625e-19
3.7556e-19
1.80236e-19
1.54914e-19
1.93448e-19
-3.45514e-21
2.60309e-19
-1.14907e-19
3.63801e-19
-1.92202e-19
4.91747e-19
-2.4409e-19
6.34782e-19
-2.76335e-19
7.85341e-19
-2.92824e-19
9.37136e-19
-2.96349e-19
1.08488e-18
-2.89092e-19
1.22416e-18
-2.72893e-19
1.35132e-18
-2.49397e-19
1.46349e-18
-2.20113e-19
1.55848e-18
-1.86441e-19
1.63476e-18
-1.49671e-19
1.69144e-18
-1.10978e-19
1.72815e-18
-7.1408e-20
1.74499e-18
-3.18695e-20
1.74247e-18
6.87388e-21
1.72136e-18
4.42016e-20
1.6827e-18
7.96337e-20
1.62764e-18
1.12822e-19
1.55746e-18
1.4353e-19
1.47349e-18
1.71615e-19
1.37707e-18
1.97001e-19
1.26956e-18
2.1967e-19
1.15226e-18
2.39646e-19
1.02642e-18
2.56984e-19
8.93265e-19
2.7177e-19
7.53915e-19
2.8411e-19
6.09452e-19
2.9413e-19
4.60916e-19
3.01961e-19
3.09339e-19
3.07732e-19
1.55811e-19
3.11557e-19
3.13492e-19
2.79578e-11
-1.67302e-10
-2.98251e-11
1.81186e-11
-1.38285e-10
2.85492e-10
-4.20705e-10
5.32586e-10
-7.75184e-10
5.92148e-10
-9.76484e-10
5.69778e-10
-1.16177e-09
5.5094e-10
-1.27189e-09
4.90319e-10
-1.29506e-09
3.10246e-10
-1.38004e-09
3.52278e-10
-1.3453e-09
1.24298e-10
-1.38634e-09
1.28176e-10
-1.48594e-09
1.41875e-10
-1.5352e-09
9.84836e-11
-1.61307e-09
1.09452e-10
-1.73181e-09
3.2679e-10
-1.87079e-09
4.94428e-10
-2.08269e-09
6.20293e-10
-2.26642e-09
6.95891e-10
-2.49976e-09
6.775e-10
-2.73615e-09
6.77495e-10
-2.90911e-09
6.94375e-10
-3.05573e-09
6.85709e-10
-3.20793e-09
6.53852e-10
-3.35537e-09
5.3317e-10
-3.44842e-09
3.64073e-10
-3.52854e-09
3.11425e-10
-3.64234e-09
3.19864e-10
-3.71515e-09
2.00025e-10
-3.74556e-09
9.05003e-11
-3.80126e-09
8.97448e-11
-3.85528e-09
6.89261e-11
-3.8754e-09
1.01144e-11
-3.87777e-09
-2.20869e-11
-3.85204e-09
-4.57565e-11
-3.76916e-09
-1.3765e-10
-3.6384e-09
-3.72183e-10
-3.42858e-09
-4.53713e-10
-3.29177e-09
-5.26592e-10
-3.06728e-09
-6.74251e-10
-2.7935e-09
-7.46255e-10
-2.53859e-09
-8.96519e-10
-2.21523e-09
-9.76213e-10
-1.65052e-09
-1.53179e-09
-1.30961e-09
-1.09982e-09
-1.0921e-09
-6.90475e-10
-8.48259e-10
-7.02422e-10
-6.82322e-10
-3.1279e-10
-6.93638e-10
-6.14168e-11
-8.01321e-10
9.42318e-11
-9.41687e-10
2.22682e-10
-1.08512e-09
2.86061e-10
-1.15914e-09
1.60396e-10
-1.20006e-09
1.28615e-10
-1.20747e-09
7.60064e-11
-1.1496e-09
-2.22932e-10
-1.03598e-09
-3.03963e-10
-9.17392e-10
-3.58253e-10
-7.33387e-10
-4.63402e-10
-6.06451e-10
-5.13074e-10
-4.60454e-10
-5.43609e-10
-2.22129e-10
-6.56811e-10
-2.38459e-11
-6.81425e-10
2.21822e-10
-7.0252e-10
5.67861e-10
-6.01228e-10
5.94961e-10
-8.28372e-10
7.95348e-10
-4.91055e-10
1.01865e-09
-3.12936e-10
1.09666e-09
-3.50333e-10
1.12715e-09
-2.92448e-10
1.1587e-09
-1.88629e-10
1.20488e-09
-7.9701e-11
1.22015e-09
-4.63579e-11
1.19707e-09
9.17438e-11
1.12755e-09
2.27019e-10
1.15087e-09
7.97606e-11
9.57551e-10
5.2199e-10
8.70781e-10
2.89592e-10
7.65502e-10
5.46347e-10
7.3112e-10
6.08033e-10
8.67298e-13
1.90265e-09
8.90868e-18
8.68551e-13
2.0524e-18
7.1015e-18
5.89619e-19
2.34604e-18
1.53429e-19
1.09547e-18
2.62734e-20
5.03611e-19
2.1867e-20
1.60242e-19
8.1996e-20
-6.25685e-20
1.83014e-19
-2.14852e-19
3.11913e-19
-3.20013e-19
4.59501e-19
-3.90616e-19
6.18293e-19
-4.34111e-19
7.81816e-19
-4.55375e-19
9.44393e-19
-4.57976e-19
1.10108e-18
-4.44818e-19
1.24765e-18
-4.1847e-19
1.38061e-18
-3.81313e-19
1.49717e-18
-3.35586e-19
1.59525e-18
-2.83395e-19
1.67345e-18
-2.26695e-19
1.73101e-18
-1.67266e-19
1.76769e-18
-1.06695e-19
1.78374e-18
-4.63523e-20
1.7798e-18
1.26124e-20
1.7568e-18
6.92668e-20
1.71588e-18
1.22892e-19
1.65835e-18
1.72974e-19
1.58554e-18
2.19178e-19
1.49887e-18
2.61313e-19
1.39974e-18
2.99301e-19
1.28953e-18
3.33149e-19
1.16959e-18
3.62923e-19
1.04121e-18
3.88738e-19
9.05606e-19
4.10743e-19
7.63935e-19
4.29112e-19
6.17283e-19
4.44035e-19
4.66688e-19
4.55701e-19
3.13163e-19
4.64292e-19
1.57746e-19
4.6996e-19
4.72805e-19
-7.54749e-11
-9.18273e-11
-2.78363e-10
2.21006e-10
-4.98497e-10
5.05626e-10
-6.53804e-10
6.87891e-10
-9.10095e-10
8.48438e-10
-1.12123e-09
7.8091e-10
-1.25756e-09
6.87268e-10
-1.26834e-09
5.01105e-10
-1.36086e-09
4.02765e-10
-1.47472e-09
4.66133e-10
-1.53704e-09
1.86622e-10
-1.57947e-09
1.70601e-10
-1.67657e-09
2.38971e-10
-1.72483e-09
1.46749e-10
-1.84397e-09
2.2859e-10
-2.0122e-09
4.9502e-10
-2.10226e-09
5.84481e-10
-2.27682e-09
7.94851e-10
-2.43707e-09
8.56146e-10
-2.60363e-09
8.44057e-10
-2.80927e-09
8.83139e-10
-2.97597e-09
8.61068e-10
-3.06815e-09
7.77893e-10
-3.16334e-09
7.49043e-10
-3.29404e-09
6.63863e-10
-3.33765e-09
4.07686e-10
-3.41868e-09
3.92454e-10
-3.51722e-09
4.18402e-10
-3.58364e-09
2.66438e-10
-3.62525e-09
1.32117e-10
-3.65875e-09
1.23239e-10
-3.69924e-09
1.09418e-10
-3.68603e-09
-3.09439e-12
-3.6857e-09
-2.24176e-11
-3.67691e-09
-5.455e-11
-3.6225e-09
-1.92063e-10
-3.53109e-09
-4.63584e-10
-3.34935e-09
-6.35459e-10
-3.22464e-09
-6.513e-10
-3.04255e-09
-8.56343e-10
-2.7857e-09
-1.00311e-09
-2.50655e-09
-1.17566e-09
-2.20139e-09
-1.28137e-09
-1.93836e-09
-1.79482e-09
-1.77382e-09
-1.26436e-09
-1.1896e-09
-1.2747e-09
-7.09057e-10
-1.18296e-09
-5.8535e-10
-4.36496e-10
-6.60126e-10
1.33607e-11
-6.84412e-10
1.1852e-10
-8.69643e-10
4.07914e-10
-1.04564e-09
4.62056e-10
-1.15374e-09
2.68504e-10
-1.18227e-09
1.5715e-10
-1.14097e-09
3.47012e-11
-1.13263e-09
-2.31263e-10
-1.0149e-09
-4.21696e-10
-9.16712e-10
-4.56437e-10
-8.11371e-10
-5.68741e-10
-7.11299e-10
-6.13144e-10
-5.15591e-10
-7.39314e-10
-3.49974e-10
-8.22426e-10
-1.6782e-10
-8.63576e-10
5.03975e-11
-9.20736e-10
3.63585e-10
-9.14413e-10
4.65879e-10
-9.30664e-10
6.84096e-10
-7.0927e-10
8.63909e-10
-4.92747e-10
9.33943e-10
-4.20366e-10
9.38665e-10
-2.97169e-10
9.54986e-10
-2.04948e-10
1.00587e-09
-1.30579e-10
1.04394e-09
-8.44349e-11
1.05415e-09
8.1539e-11
1.0445e-09
2.36664e-10
8.9082e-10
2.33447e-10
9.15236e-10
4.97578e-10
7.1198e-10
4.92857e-10
5.33367e-10
7.24971e-10
1.80568e-10
9.60832e-10
-1.1475e-10
2.19796e-09
-4.90602e-17
-1.1388e-10
-1.46615e-18
3.84274e-18
-6.60198e-19
1.5404e-18
-4.37727e-19
8.74137e-19
-3.16819e-19
3.83796e-19
-2.00944e-19
4.54703e-20
-7.02874e-20
-1.92062e-19
7.78531e-20
-3.61787e-19
2.4131e-19
-4.82269e-19
4.16007e-19
-5.64177e-19
5.97029e-19
-6.14108e-19
7.79215e-19
-6.3665e-19
9.57552e-19
-6.35474e-19
1.12743e-18
-6.13868e-19
1.28481e-18
-5.74975e-19
1.42634e-18
-5.21864e-19
1.54936e-18
-4.57514e-19
1.65195e-18
-3.84772e-19
1.73288e-18
-3.06292e-19
1.79158e-18
-2.24496e-19
1.82803e-18
-1.41529e-19
1.8427e-18
-5.92326e-20
1.83645e-18
2.0863e-20
1.81042e-18
9.7529e-20
1.76597e-18
1.69825e-19
1.70455e-18
2.3709e-19
1.62768e-18
2.98913e-19
1.53686e-18
3.55092e-19
1.43359e-18
4.05584e-19
1.31931e-18
4.50457e-19
1.19541e-18
4.89858e-19
1.06321e-18
5.23982e-19
9.23975e-19
5.53057e-19
7.78857e-19
5.77329e-19
6.2895e-19
5.97051e-19
4.75279e-19
6.1247e-19
3.18832e-19
6.23821e-19
1.60591e-19
6.313e-19
6.35048e-19
-6.18167e-11
-3.00111e-11
-1.44679e-10
3.03867e-10
-2.53688e-10
6.14634e-10
-4.39384e-10
8.73587e-10
-7.21638e-10
1.13069e-09
-9.6482e-10
1.02409e-09
-1.1712e-09
8.93649e-10
-1.31912e-09
6.49025e-10
-1.41087e-09
4.94509e-10
-1.5494e-09
6.04661e-10
-1.67998e-09
3.172e-10
-1.7751e-09
2.65725e-10
-1.86065e-09
3.24517e-10
-1.96897e-09
2.55067e-10
-2.11584e-09
3.75462e-10
-2.21264e-09
5.91816e-10
-2.32104e-09
6.92885e-10
-2.42168e-09
8.95493e-10
-2.57045e-09
1.00491e-09
-2.70336e-09
9.76968e-10
-2.85471e-09
1.03449e-09
-2.9688e-09
9.75159e-10
-3.05018e-09
8.59273e-10
-3.13236e-09
8.31221e-10
-3.22998e-09
7.61486e-10
-3.27919e-09
4.56891e-10
-3.36388e-09
4.77143e-10
-3.42483e-09
4.79355e-10
-3.40038e-09
2.41988e-10
-3.42286e-09
1.54591e-10
-3.43627e-09
1.36652e-10
-3.42462e-09
9.777e-11
-3.40599e-09
-2.1728e-11
-3.37294e-09
-5.54685e-11
-3.33925e-09
-8.82355e-11
-3.3219e-09
-2.09414e-10
-3.29415e-09
-4.91333e-10
-3.25907e-09
-6.70539e-10
-3.15302e-09
-7.57352e-10
-3.04346e-09
-9.65903e-10
-2.79276e-09
-1.25381e-09
-2.62343e-09
-1.34499e-09
-2.35151e-09
-1.55329e-09
-2.34983e-09
-1.79651e-09
-2.05032e-09
-1.56387e-09
-1.55864e-09
-1.76637e-09
-1.35327e-09
-1.38834e-09
-1.17272e-09
-6.17043e-10
-8.14907e-10
-3.44452e-10
-8.13194e-10
1.16808e-10
-8.8036e-10
4.75082e-10
-9.85128e-10
5.66825e-10
-1.08615e-09
3.69527e-10
-1.14544e-09
2.16441e-10
-1.1126e-09
1.86341e-12
-1.09127e-09
-2.52591e-10
-1.05941e-09
-4.53547e-10
-9.8135e-10
-5.34499e-10
-8.78393e-10
-6.71696e-10
-7.13147e-10
-7.78388e-10
-5.58431e-10
-8.94027e-10
-4.33174e-10
-9.47681e-10
-2.86376e-10
-1.01037e-09
-8.04272e-11
-1.12668e-09
1.77298e-10
-1.17214e-09
3.29017e-10
-1.08238e-09
5.12e-10
-8.92251e-10
6.93342e-10
-6.74087e-10
7.52666e-10
-4.79689e-10
7.82505e-10
-3.27006e-10
8.48261e-10
-2.70702e-10
8.83014e-10
-1.65331e-10
9.08036e-10
-1.09456e-10
9.05492e-10
8.40837e-11
9.80793e-10
1.61364e-10
9.30337e-10
2.83902e-10
8.9308e-10
5.34834e-10
7.56736e-10
6.292e-10
6.1478e-10
8.66932e-10
4.13834e-10
1.16178e-09
3.79162e-10
2.23264e-09
-2.69368e-16
2.65283e-10
-1.89058e-18
2.12844e-19
-1.32576e-18
9.75805e-19
-9.27379e-19
4.76583e-19
-6.54883e-19
1.12314e-19
-4.38476e-19
-1.69824e-19
-2.40012e-19
-3.89338e-19
-4.26289e-20
-5.57946e-19
1.59401e-19
-6.83088e-19
3.66076e-19
-7.69725e-19
5.74486e-19
-8.21533e-19
7.80391e-19
-8.41723e-19
9.79158e-19
-8.33513e-19
1.16632e-18
-8.00322e-19
1.33792e-18
-7.4579e-19
1.49068e-18
-6.73691e-19
1.6221e-18
-5.87808e-19
1.73043e-18
-4.91799e-19
1.81468e-18
-3.89084e-19
1.87455e-18
-2.82769e-19
1.91032e-18
-1.75585e-19
1.9228e-18
-6.98493e-20
1.91312e-18
3.25437e-20
1.88272e-18
1.30099e-19
1.83323e-18
2.21692e-19
1.76637e-18
3.06542e-19
1.68386e-18
3.84193e-19
1.58735e-18
4.54463e-19
1.47846e-18
5.17378e-19
1.35871e-18
5.73111e-19
1.22953e-18
6.21919e-19
1.09229e-18
6.64111e-19
9.48247e-19
7.00015e-19
7.98578e-19
7.29965e-19
6.4437e-19
7.54288e-19
4.86629e-19
7.73298e-19
3.26311e-19
7.87283e-19
1.64339e-19
7.96488e-19
8.01086e-19
-7.31476e-11
4.31359e-11
-2.0987e-10
4.40589e-10
-4.36094e-10
8.40858e-10
-6.17777e-10
1.05527e-09
-7.26891e-10
1.2398e-09
-9.26225e-10
1.22342e-09
-1.06586e-09
1.03328e-09
-1.27834e-09
8.61507e-10
-1.45365e-09
6.69818e-10
-1.64564e-09
7.9665e-10
-1.80129e-09
4.72853e-10
-1.88183e-09
3.46262e-10
-1.9974e-09
4.40088e-10
-2.14189e-09
3.99551e-10
-2.28979e-09
5.23361e-10
-2.41909e-09
7.21124e-10
-2.52322e-09
7.97005e-10
-2.59325e-09
9.6553e-10
-2.67145e-09
1.08311e-09
-2.75455e-09
1.06006e-09
-2.82744e-09
1.10737e-09
-2.89436e-09
1.04208e-09
-2.96539e-09
9.30301e-10
-3.04159e-09
9.07427e-10
-3.10784e-09
8.27731e-10
-3.18923e-09
5.38277e-10
-3.24603e-09
5.33948e-10
-3.25932e-09
4.9264e-10
-3.21316e-09
1.95829e-10
-3.17109e-09
1.12517e-10
-3.15558e-09
1.21147e-10
-3.13651e-09
7.86934e-11
-3.11808e-09
-4.01529e-11
-3.0894e-09
-8.41492e-11
-3.02644e-09
-1.51195e-10
-3.03711e-09
-1.98748e-10
-3.06908e-09
-4.5936e-10
-3.06228e-09
-6.77342e-10
-3.04507e-09
-7.74558e-10
-2.95327e-09
-1.0577e-09
-2.82045e-09
-1.38663e-09
-2.72632e-09
-1.43912e-09
-2.59156e-09
-1.68805e-09
-2.57086e-09
-1.8172e-09
-2.20879e-09
-1.92594e-09
-2.02486e-09
-1.95031e-09
-1.93281e-09
-1.48038e-09
-1.5589e-09
-9.90953e-10
-1.28054e-09
-6.22813e-10
-1.10681e-09
-5.69166e-11
-9.22808e-10
2.91081e-10
-9.66244e-10
6.10263e-10
-9.83606e-10
3.8689e-10
-1.0589e-09
2.91735e-10
-1.10604e-09
4.9012e-11
-1.07151e-09
-2.87124e-10
-1.07893e-09
-4.46127e-10
-9.76545e-10
-6.3688e-10
-9.20731e-10
-7.27507e-10
-8.12043e-10
-8.87074e-10
-6.8196e-10
-1.02411e-09
-4.80714e-10
-1.14892e-09
-2.33685e-10
-1.2574e-09
-8.52243e-11
-1.27514e-09
-2.39524e-12
-1.25496e-09
1.70689e-10
-1.25546e-09
3.58256e-10
-1.07982e-09
4.43207e-10
-7.59038e-10
5.52397e-10
-5.88876e-10
6.36004e-10
-4.10612e-10
7.30899e-10
-3.65596e-10
7.88365e-10
-2.22795e-10
8.25007e-10
-1.46098e-10
8.2253e-10
8.65627e-11
8.48558e-10
1.35337e-10
6.84351e-10
4.48111e-10
5.45418e-10
6.73767e-10
3.22422e-10
8.52195e-10
1.29051e-10
1.0603e-09
1.3091e-10
1.15992e-09
2.79379e-10
2.08417e-09
-2.18989e-16
5.44663e-10
-2.80836e-18
-1.68631e-18
-1.82428e-18
-7.84621e-21
-1.29097e-18
-5.60075e-20
-9.36769e-19
-2.41084e-19
-6.57991e-19
-4.4771e-19
-4.0862e-19
-6.37726e-19
-1.6777e-19
-7.97753e-19
7.27635e-20
-9.22557e-19
3.14268e-19
-1.01021e-18
5.54296e-19
-1.06067e-18
7.88602e-19
-1.07528e-18
1.01235e-18
-1.05661e-18
1.22085e-18
-1.00819e-18
1.41002e-18
-9.3423e-19
1.57657e-18
-8.39326e-19
1.71811e-18
-7.28207e-19
1.83314e-18
-6.05472e-19
1.92099e-18
-4.7541e-19
1.98173e-18
-3.41871e-19
2.01606e-18
-2.08205e-19
2.02519e-18
-7.72075e-20
2.01067e-18
4.88886e-20
1.97431e-18
1.68372e-19
1.91808e-18
2.79987e-19
1.84402e-18
3.8289e-19
1.75413e-18
4.76616e-19
1.65027e-18
5.61033e-19
1.53419e-18
6.36272e-19
1.40752e-18
7.02643e-19
1.27172e-18
7.60557e-19
1.12819e-18
8.10472e-19
9.78197e-19
8.5285e-19
8.22901e-19
8.8814e-19
6.6338e-19
9.16764e-19
5.00614e-19
9.39116e-19
3.35516e-19
9.55546e-19
1.68937e-19
9.66347e-19
9.7172e-19
-3.82827e-10
4.25963e-10
-7.70342e-10
8.28103e-10
-9.65648e-10
1.03616e-09
-1.13802e-09
1.22764e-09
-1.19918e-09
1.30097e-09
-1.24287e-09
1.26711e-09
-1.31354e-09
1.10395e-09
-1.43747e-09
9.85438e-10
-1.56416e-09
7.96506e-10
-1.63095e-09
8.63435e-10
-1.77986e-09
6.21769e-10
-2.00224e-09
5.68637e-10
-2.21477e-09
6.52615e-10
-2.29438e-09
4.79166e-10
-2.40895e-09
6.37932e-10
-2.51042e-09
8.22592e-10
-2.56511e-09
8.51696e-10
-2.62602e-09
1.02643e-09
-2.66698e-09
1.12407e-09
-2.72987e-09
1.12295e-09
-2.77379e-09
1.15129e-09
-2.832e-09
1.10029e-09
-2.89632e-09
9.94629e-10
-2.93549e-09
9.46591e-10
-2.95437e-09
8.46611e-10
-3.01942e-09
6.03325e-10
-3.02988e-09
5.44412e-10
-2.97246e-09
4.35219e-10
-2.93925e-09
1.62616e-10
-2.92113e-09
9.43936e-11
-2.83123e-09
3.12519e-11
-2.84653e-09
9.39945e-11
-2.84025e-09
-4.64359e-11
-2.83516e-09
-8.92373e-11
-2.76875e-09
-2.17612e-10
-2.72714e-09
-2.40358e-10
-2.78465e-09
-4.01851e-10
-2.81569e-09
-6.46298e-10
-2.80827e-09
-7.8198e-10
-2.73855e-09
-1.12742e-09
-2.82164e-09
-1.30354e-09
-2.73326e-09
-1.52751e-09
-2.62055e-09
-1.80076e-09
-2.58987e-09
-1.84788e-09
-2.55899e-09
-1.95682e-09
-2.52213e-09
-1.98717e-09
-2.23072e-09
-1.77179e-09
-1.8927e-09
-1.32897e-09
-1.7268e-09
-7.88713e-10
-1.39229e-09
-3.91419e-10
-1.14152e-09
4.0304e-11
-9.63288e-10
4.32037e-10
-9.67741e-10
3.91345e-10
-9.91526e-10
3.15522e-10
-1.05062e-09
1.08107e-10
-1.05908e-09
-2.78664e-10
-1.04621e-09
-4.58996e-10
-9.8928e-10
-6.93803e-10
-9.35246e-10
-7.81539e-10
-8.37261e-10
-9.85056e-10
-7.07585e-10
-1.15378e-09
-5.6691e-10
-1.2896e-09
-4.50587e-10
-1.37372e-09
-2.65112e-10
-1.46061e-09
-1.42446e-11
-1.50583e-09
1.33976e-10
-1.40368e-09
2.53728e-10
-1.19957e-09
3.48211e-10
-8.53519e-10
4.09988e-10
-6.50652e-10
5.11052e-10
-5.11675e-10
5.77598e-10
-4.32141e-10
6.79775e-10
-3.2497e-10
6.98231e-10
-1.64553e-10
7.1448e-10
7.0315e-11
6.90433e-10
1.59385e-10
6.72192e-10
4.66353e-10
6.75893e-10
6.70067e-10
5.00938e-10
1.02715e-09
4.52683e-10
1.10856e-09
3.6472e-10
1.24789e-09
4.12813e-10
2.03608e-09
-5.44764e-17
9.57477e-10
-2.35073e-18
-1.20888e-18
-1.87176e-18
-4.86434e-19
-1.47539e-18
-4.51988e-19
-1.14316e-18
-5.72943e-19
-8.48006e-19
-7.42435e-19
-5.68648e-19
-9.16542e-19
-2.92574e-19
-1.07317e-18
-1.48947e-20
-1.19947e-18
2.63815e-19
-1.28812e-18
5.39684e-19
-1.33578e-18
8.07267e-19
-1.3422e-18
1.06077e-18
-1.30952e-18
1.29482e-18
-1.24165e-18
1.50493e-18
-1.14363e-18
1.68769e-18
-1.02118e-18
1.84084e-18
-8.80191e-19
1.96321e-18
-7.26413e-19
2.05453e-18
-5.6514e-19
2.1154e-18
-4.01057e-19
2.14706e-18
-2.38164e-19
2.15129e-18
-7.9738e-20
2.13016e-18
7.16834e-20
2.08593e-18
2.14236e-19
2.02098e-18
3.46622e-19
1.93775e-18
4.68013e-19
1.83854e-18
5.77999e-19
1.72551e-18
6.76545e-19
1.60056e-18
7.6392e-19
1.46543e-18
8.40606e-19
1.32164e-18
9.0721e-19
1.17057e-18
9.64378e-19
1.01349e-18
1.01275e-18
8.51526e-19
1.05292e-18
6.85731e-19
1.08544e-18
5.17045e-19
1.11079e-18
3.46317e-19
1.12941e-18
1.74309e-19
1.14163e-18
1.14768e-18
-6.78513e-11
4.93813e-10
-2.20269e-10
9.80519e-10
-3.97547e-10
1.21344e-09
-5.9094e-10
1.42103e-09
-8.29794e-10
1.53982e-09
-1.01511e-09
1.45242e-09
-1.18386e-09
1.27271e-09
-1.37704e-09
1.17862e-09
-1.6094e-09
1.02887e-09
-1.77689e-09
1.03092e-09
-1.95941e-09
8.04289e-10
-2.09665e-09
7.05875e-10
-2.18698e-09
7.42947e-10
-2.31283e-09
6.05013e-10
-2.40177e-09
7.26872e-10
-2.4792e-09
9.0002e-10
-2.54626e-09
9.18754e-10
-2.57461e-09
1.05479e-09
-2.6088e-09
1.15826e-09
-2.64954e-09
1.16369e-09
-2.67299e-09
1.17474e-09
-2.71271e-09
1.14e-09
-2.77378e-09
1.0557e-09
-2.77771e-09
9.50522e-10
-2.77233e-09
8.41234e-10
-2.76826e-09
5.99253e-10
-2.73074e-09
5.06893e-10
-2.6971e-09
4.0158e-10
-2.73162e-09
1.97135e-10
-2.68382e-09
4.65922e-11
-2.63121e-09
-2.13619e-11
-2.59071e-09
5.34957e-11
-2.59697e-09
-4.01803e-11
-2.58466e-09
-1.01539e-10
-2.50707e-09
-2.95211e-10
-2.44967e-09
-2.97753e-10
-2.47953e-09
-3.71992e-10
-2.51617e-09
-6.09655e-10
-2.49791e-09
-8.0024e-10
-2.42095e-09
-1.20438e-09
-2.5044e-09
-1.22009e-09
-2.60933e-09
-1.42258e-09
-2.63619e-09
-1.77389e-09
-2.65218e-09
-1.83189e-09
-2.62354e-09
-1.98545e-09
-2.58871e-09
-2.02199e-09
-2.45791e-09
-1.9026e-09
-2.23475e-09
-1.55213e-09
-1.88495e-09
-1.13851e-09
-1.58967e-09
-6.86695e-10
-1.31449e-09
-2.3488e-10
-1.0223e-09
1.39854e-10
-9.3346e-10
3.02504e-10
-8.98e-10
2.80064e-10
-9.60082e-10
1.70191e-10
-1.02322e-09
-2.15525e-10
-1.0018e-09
-4.80415e-10
-1.00827e-09
-6.87327e-10
-9.10761e-10
-8.79048e-10
-8.4283e-10
-1.05298e-09
-7.34077e-10
-1.26253e-09
-5.95334e-10
-1.42834e-09
-4.12018e-10
-1.55703e-09
-2.69881e-10
-1.60275e-09
-1.38067e-10
-1.63764e-09
-1.50989e-11
-1.52665e-09
5.8409e-11
-1.27307e-09
1.59494e-10
-9.54602e-10
2.44895e-10
-7.36052e-10
3.72034e-10
-6.38813e-10
4.73118e-10
-5.33224e-10
5.60556e-10
-4.12407e-10
5.72449e-10
-1.76444e-10
6.00562e-10
4.22025e-11
5.90774e-10
1.69173e-10
5.66428e-10
4.90701e-10
5.41028e-10
6.95468e-10
5.79926e-10
9.88253e-10
5.62974e-10
1.12551e-09
4.23428e-10
1.38743e-09
4.46229e-10
2.01328e-09
1.34296e-16
1.40371e-09
-1.86641e-18
5.8853e-19
-1.83664e-18
-5.16019e-19
-1.5957e-18
-6.93058e-19
-1.31244e-18
-8.56454e-19
-1.02211e-18
-1.03298e-18
-7.25278e-19
-1.21345e-18
-4.18874e-19
-1.37945e-18
-1.03542e-19
-1.51446e-18
2.1616e-19
-1.60731e-18
5.33264e-19
-1.6523e-18
8.3994e-19
-1.64831e-18
1.12864e-18
-1.59768e-18
1.39283e-18
-1.50527e-18
1.62738e-18
-1.37749e-18
1.82867e-18
-1.22157e-18
1.99462e-18
-1.04496e-18
2.12448e-18
-8.54796e-19
2.21862e-18
-6.57583e-19
2.27829e-18
-4.58943e-19
2.30548e-18
-2.63565e-19
2.30271e-18
-7.51937e-20
2.27271e-18
1.03369e-19
2.21831e-18
2.70185e-19
2.14238e-18
4.24023e-19
2.04774e-18
5.64194e-19
1.93709e-18
6.90448e-19
1.81288e-18
8.02918e-19
1.67725e-18
9.02061e-19
1.53203e-18
9.88574e-19
1.37881e-18
1.06329e-18
1.21894e-18
1.12709e-18
1.05366e-18
1.18083e-18
8.84043e-19
1.2253e-18
7.11085e-19
1.26119e-18
5.35661e-19
1.28911e-18
3.58537e-19
1.30958e-18
1.80363e-19
1.32299e-18
1.32962e-18
-3.63258e-11
5.30139e-10
-1.23867e-10
1.06806e-09
-3.20542e-10
1.41012e-09
-4.67763e-10
1.56825e-09
-6.17122e-10
1.68918e-09
-7.82247e-10
1.61754e-09
-9.84626e-10
1.47508e-09
-1.20254e-09
1.39653e-09
-1.37805e-09
1.20437e-09
-1.51911e-09
1.17199e-09
-1.83103e-09
1.1162e-09
-2.05843e-09
9.33271e-10
-2.12263e-09
8.07154e-10
-2.27847e-09
7.60849e-10
-2.36045e-09
8.08854e-10
-2.41424e-09
9.53809e-10
-2.4691e-09
9.73615e-10
-2.47843e-09
1.06411e-09
-2.4842e-09
1.16403e-09
-2.52041e-09
1.19989e-09
-2.53361e-09
1.18794e-09
-2.5569e-09
1.16329e-09
-2.58557e-09
1.08437e-09
-2.54875e-09
9.13702e-10
-2.50013e-09
7.92611e-10
-2.45712e-09
5.56239e-10
-2.40787e-09
4.57647e-10
-2.38225e-09
3.75959e-10
-2.43946e-09
2.54342e-10
-2.45658e-09
6.37164e-11
-2.51146e-09
3.35161e-11
-2.42964e-09
-2.83294e-11
-2.38177e-09
-8.80473e-11
-2.34324e-09
-1.40067e-10
-2.32553e-09
-3.12926e-10
-2.26255e-09
-3.60735e-10
-2.23821e-09
-3.96336e-10
-2.28319e-09
-5.6467e-10
-2.25346e-09
-8.29969e-10
-2.30256e-09
-1.15528e-09
-2.36109e-09
-1.16157e-09
-2.31709e-09
-1.46657e-09
-2.48255e-09
-1.60844e-09
-2.60083e-09
-1.71361e-09
-2.62844e-09
-1.95784e-09
-2.63366e-09
-2.01677e-09
-2.52402e-09
-2.01224e-09
-2.32661e-09
-1.74953e-09
-2.08854e-09
-1.37657e-09
-1.80046e-09
-9.74776e-10
-1.47432e-09
-5.61016e-10
-1.18408e-09
-1.50384e-10
-1.00071e-09
1.19132e-10
-9.42305e-10
2.21661e-10
-9.30673e-10
1.5856e-10
-9.85377e-10
-1.6082e-10
-9.68554e-10
-4.97236e-10
-9.54501e-10
-7.01378e-10
-8.80214e-10
-9.53332e-10
-8.18601e-10
-1.1146e-09
-7.11616e-10
-1.36952e-09
-5.81062e-10
-1.55889e-09
-4.58829e-10
-1.67926e-09
-3.21691e-10
-1.73988e-09
-2.13735e-10
-1.7456e-09
-1.02299e-10
-1.63808e-09
8.25301e-12
-1.38362e-09
9.49137e-11
-1.04126e-09
1.5812e-10
-7.99256e-10
2.05844e-10
-6.86536e-10
2.81087e-10
-6.08466e-10
3.95663e-10
-5.26982e-10
4.49317e-10
-2.30098e-10
4.5583e-10
3.5691e-11
4.2233e-10
2.02674e-10
4.11923e-10
5.01108e-10
4.2358e-10
6.83812e-10
4.43465e-10
9.68368e-10
3.78807e-10
1.19017e-09
3.57195e-10
1.40905e-09
3.41005e-10
2.02946e-09
2.89122e-16
1.74471e-09
-2.17648e-18
2.06701e-18
-2.013e-18
-6.79622e-19
-1.75847e-18
-9.4828e-19
-1.48879e-18
-1.12702e-18
-1.20258e-18
-1.32008e-18
-8.91279e-19
-1.5255e-18
-5.53879e-19
-1.71732e-18
-1.96391e-19
-1.87209e-18
1.71167e-19
-1.97472e-18
5.37259e-19
-2.01807e-18
8.90562e-19
-2.00123e-18
1.22105e-18
-1.92777e-18
1.52062e-18
-1.80439e-18
1.7833e-18
-1.63961e-18
2.00529e-18
-1.4428e-18
2.18478e-18
-1.22339e-18
2.32169e-18
-9.90296e-19
2.41726e-18
-7.51429e-19
2.47367e-18
-5.13472e-19
2.49386e-18
-2.81824e-19
2.48127e-18
-6.06588e-20
2.43952e-18
1.47023e-19
2.37215e-18
3.39305e-19
2.28255e-18
5.1515e-19
2.17399e-18
6.74163e-19
2.04956e-18
8.16405e-19
1.91203e-18
9.42295e-19
1.76376e-18
1.05256e-18
1.60675e-18
1.14816e-18
1.44261e-18
1.2302e-18
1.27268e-18
1.29984e-18
1.09812e-18
1.35816e-18
9.19932e-19
1.40619e-18
7.39008e-19
1.44481e-18
5.5613e-19
1.47477e-18
3.71951e-19
1.49669e-18
1.86985e-19
1.51102e-18
1.51807e-18
-1.83929e-10
7.14067e-10
-2.68629e-10
1.15276e-09
-3.56124e-10
1.49761e-09
-4.23259e-10
1.63538e-09
-5.04606e-10
1.77053e-09
-6.52491e-10
1.76543e-09
-8.45684e-10
1.66828e-09
-1.02348e-09
1.57433e-09
-1.25396e-09
1.43485e-09
-1.45859e-09
1.37661e-09
-1.74853e-09
1.40615e-09
-1.9358e-09
1.12054e-09
-2.07974e-09
9.51093e-10
-2.19976e-09
8.8087e-10
-2.28344e-09
8.92538e-10
-2.33318e-09
1.00355e-09
-2.36505e-09
1.00548e-09
-2.35946e-09
1.05853e-09
-2.32606e-09
1.13063e-09
-2.32454e-09
1.19837e-09
-2.33923e-09
1.20263e-09
-2.34225e-09
1.16631e-09
-2.31536e-09
1.05748e-09
-2.28514e-09
8.83477e-10
-2.22439e-09
7.31865e-10
-2.22298e-09
5.54829e-10
-2.20827e-09
4.42942e-10
-2.13969e-09
3.07377e-10
-2.15613e-09
2.70781e-10
-2.18963e-09
9.72154e-11
-2.19684e-09
4.07202e-11
-2.19479e-09
-3.03805e-11
-2.14883e-09
-1.33999e-10
-2.12601e-09
-1.62889e-10
-2.15021e-09
-2.88734e-10
-2.08054e-09
-4.30401e-10
-2.01033e-09
-4.66546e-10
-1.99418e-09
-5.80814e-10
-1.92504e-09
-8.99116e-10
-1.97881e-09
-1.10151e-09
-2.08651e-09
-1.05387e-09
-2.15618e-09
-1.39691e-09
-2.34095e-09
-1.42367e-09
-2.31689e-09
-1.73767e-09
-2.40978e-09
-1.86495e-09
-2.47474e-09
-1.9518e-09
-2.48482e-09
-2.00216e-09
-2.30608e-09
-1.92827e-09
-2.07792e-09
-1.60473e-09
-1.80388e-09
-1.24882e-09
-1.57894e-09
-7.85953e-10
-1.32838e-09
-4.00944e-10
-1.1112e-09
-9.80439e-11
-9.83294e-10
9.37587e-11
-9.00948e-10
7.62165e-11
-9.50837e-10
-1.1093e-10
-9.23755e-10
-5.24316e-10
-8.67784e-10
-7.57347e-10
-8.28458e-10
-9.92656e-10
-7.47968e-10
-1.19508e-09
-6.60708e-10
-1.45677e-09
-5.64639e-10
-1.65496e-09
-4.56576e-10
-1.78733e-09
-3.65911e-10
-1.83055e-09
-2.58183e-10
-1.85332e-09
-1.55959e-10
-1.74031e-09
-8.65336e-11
-1.45305e-09
-1.85418e-11
-1.10925e-09
5.79169e-11
-8.75713e-10
1.38583e-10
-7.672e-10
1.84448e-10
-6.5433e-10
2.08942e-10
-5.51474e-10
2.37539e-10
-2.58694e-10
2.8228e-10
-9.04895e-12
3.37872e-10
1.47082e-10
4.37656e-10
4.01325e-10
4.69193e-10
6.52275e-10
4.62917e-10
9.74644e-10
4.25984e-10
1.2271e-09
3.91454e-10
1.44358e-09
3.4497e-10
2.07595e-09
3.84958e-16
2.08968e-09
-2.97617e-18
1.83821e-18
-2.28099e-18
-1.37527e-18
-1.93661e-18
-1.29377e-18
-1.68173e-18
-1.38323e-18
-1.40801e-18
-1.59521e-18
-1.0831e-18
-1.85175e-18
-7.08642e-19
-2.09283e-18
-2.99023e-19
-2.28238e-18
1.27811e-19
-2.40186e-18
5.54107e-19
-2.44444e-18
9.64015e-19
-2.41108e-18
1.34444e-18
-2.3081e-18
1.6854e-18
-2.14521e-18
1.98011e-18
-1.93406e-18
2.22469e-18
-1.68695e-18
2.41788e-18
-1.41589e-18
2.56056e-18
-1.13191e-18
2.65521e-18
-8.44602e-19
2.70531e-18
-5.61807e-19
2.71502e-18
-2.8962e-19
2.68895e-18
-3.25561e-20
2.63181e-18
2.06309e-19