/*--------------------------------*- C++ -*----------------------------------*\
  =========                 |
  \\      /  F ield         | OpenFOAM: The Open Source CFD Toolbox
   \\    /   O peration     | Website:  https://openfoam.org
    \\  /    A nd           | Version:  6
     \\/     M anipulation  |
\*---------------------------------------------------------------------------*/
FoamFile
{
    version     2.0;
    format      ascii;
    class       volScalarField;
    location    "2800";
    object      Su;
}
// * * * * * * * * * * * * * * * * * * * * * * * * * * * * * * * * * * * * * //

dimensions      [0 0 -1 0 0 0 0];

internalField   nonuniform List<scalar> 
4800
(
0.218893
0.215494
0.21209
0.208694
0.205332
0.202027
0.198804
0.195693
0.192717
0.18989
0.187216
0.184693
0.182315
0.18007
0.177943
0.175919
0.173984
0.172136
0.170371
0.16869
0.167091
0.165569
0.164119
0.16274
0.161426
0.160171
0.158964
0.157794
0.156652
0.15553
0.154418
0.153309
0.152197
0.151078
0.149946
0.148798
0.147632
0.146442
0.145226
0.143973
0.142677
0.14133
0.139923
0.138445
0.136878
0.135204
0.133411
0.131491
0.129444
0.127274
0.124993
0.122616
0.120164
0.117658
0.115116
0.112556
0.109987
0.107412
0.104827
0.102231
0.0996202
0.096983
0.0943133
0.0915975
0.0888148
0.0859588
0.0830032
0.0799106
0.0766806
0.0733051
0.0697557
0.0660083
0.0620442
0.0578471
0.0534007
0.048696
0.0437302
0.0385143
0.0330862
0.0275349
0.0220445
0.0169509
0.0125783
0.00869821
0.00508391
0.00160017
-0.0018189
-0.00520162
-0.0085593
-0.0118962
-0.0152143
-0.0185148
-0.0217991
-0.025069
-0.028326
-0.0315719
-0.0348084
-0.0380372
-0.0412597
-0.0444773
-0.047691
-0.0509018
-0.0541106
-0.0573181
-0.0605249
-0.0637313
-0.066938
-0.070145
-0.0733526
-0.076561
-0.0797702
-0.0829803
-0.0861914
-0.0894033
-0.092616
-0.0958294
-0.0990434
-0.102258
-0.105473
-0.108688
0.218887
0.215475
0.212058
0.208647
0.205268
0.201954
0.198734
0.195635
0.192675
0.189863
0.187203
0.184695
0.182325
0.180085
0.177961
0.17594
0.174012
0.172173
0.17042
0.168751
0.167165
0.165658
0.164227
0.162865
0.161568
0.160327
0.159132
0.157972
0.15684
0.155725
0.15462
0.153518
0.152412
0.151297
0.15017
0.149028
0.147869
0.146685
0.145469
0.144214
0.142913
0.141562
0.140147
0.138661
0.137082
0.135395
0.13359
0.131659
0.129598
0.127413
0.125115
0.122723
0.120258
0.117742
0.115192
0.112625
0.110047
0.107459
0.104862
0.102252
0.0996246
0.0969727
0.0942849
0.0915484
0.0887503
0.0858737
0.0828996
0.0798013
0.0765594
0.073162
0.0695933
0.0658333
0.0618638
0.0576667
0.0532234
0.0485241
0.0435577
0.0383272
0.0328561
0.027195
0.0215052
0.0161931
0.0120477
0.00840278
0.00493263
0.00152261
-0.00186179
-0.00522875
-0.00857914
-0.0119124
-0.0152282
-0.0185271
-0.0218101
-0.0250787
-0.0283346
-0.0315794
-0.0348151
-0.038043
-0.0412648
-0.0444817
-0.0476948
-0.0509051
-0.0541135
-0.0573206
-0.060527
-0.0637332
-0.0669396
-0.0701464
-0.0733538
-0.076562
-0.0797711
-0.0829811
-0.086192
-0.0894038
-0.0926164
-0.0958297
-0.0990437
-0.102258
-0.105473
-0.108688
0.218878
0.215449
0.212018
0.208597
0.205209
0.201894
0.198685
0.195604
0.192665
0.189873
0.187231
0.184734
0.182373
0.180139
0.178023
0.176012
0.174099
0.172279
0.170547
0.168903
0.167341
0.165861
0.164458
0.163125
0.161856
0.160641
0.159469
0.158329
0.157216
0.156118
0.155028
0.153938
0.152843
0.151739
0.150622
0.14949
0.148339
0.147159
0.145944
0.144687
0.14338
0.142016
0.140584
0.139078
0.137471
0.135755
0.133928
0.131973
0.12989
0.127683
0.125362
0.122948
0.120466
0.117935
0.115371
0.112788
0.11019
0.107579
0.104956
0.102315
0.0996523
0.0969641
0.0942401
0.0914688
0.0886385
0.0857241
0.0827119
0.0795862
0.07632
0.0728958
0.0693026
0.0655267
0.0615496
0.057352
0.0529141
0.0482219
0.043259
0.0380074
0.0324612
0.0265925
0.0203972
0.0142206
0.0109708
0.00789871
0.00469831
0.00140544
-0.00192922
-0.00527483
-0.00861542
-0.0119434
-0.0152557
-0.0185516
-0.021832
-0.0250981
-0.0283517
-0.0315945
-0.0348283
-0.0380546
-0.0412749
-0.0444904
-0.0477024
-0.0509118
-0.0541193
-0.0573256
-0.0605314
-0.063737
-0.0669429
-0.0701492
-0.0733563
-0.0765641
-0.0797729
-0.0829826
-0.0861933
-0.0894048
-0.0926173
-0.0958304
-0.0990442
-0.102258
-0.105473
-0.108688
0.218869
0.215423
0.211981
0.208562
0.205188
0.201889
0.198699
0.19564
0.192721
0.189944
0.187314
0.184828
0.182478
0.180256
0.178153
0.176158
0.174267
0.172473
0.170772
0.169161
0.167635
0.166191
0.164825
0.16353
0.162296
0.161116
0.159975
0.158864
0.157778
0.156706
0.155637
0.154567
0.153491
0.152402
0.151299
0.150178
0.149035
0.14786
0.146642
0.145378
0.144059
0.142675
0.141215
0.13967
0.138015
0.136262
0.134403
0.132415
0.130301
0.128069
0.125726
0.123293
0.120792
0.118242
0.115659
0.113051
0.110423
0.107777
0.105111
0.102425
0.0997152
0.0969761
0.0941981
0.091373
0.0884894
0.0855251
0.0824664
0.0792979
0.0759934
0.0725354
0.0689145
0.0651201
0.0611352
0.056941
0.0525165
0.0478391
0.0428967
0.037656
0.032065
0.0259808
0.0189471
0.00752139
0.00965617
0.00748241
0.00453057
0.00131473
-0.0019936
-0.00532886
-0.00866406
-0.0119879
-0.0152963
-0.0185884
-0.0218649
-0.0251273
-0.0283775
-0.0316171
-0.034848
-0.0380718
-0.0412899
-0.0445035
-0.0477138
-0.0509216
-0.0541278
-0.0573331
-0.0605379
-0.0637426
-0.0669477
-0.0701534
-0.0733599
-0.0765672
-0.0797755
-0.0829849
-0.0861952
-0.0894064
-0.0926185
-0.0958314
-0.0990449
-0.102259
-0.105473
-0.108688
0.218869
0.215426
0.211995
0.208592
0.205238
0.201962
0.198795
0.195755
0.192853
0.190092
0.187476
0.185003
0.182667
0.180462
0.178377
0.176405
0.174542
0.172781
0.171118
0.169547
0.168063
0.166663
0.165342
0.164089
0.162897
0.161757
0.160653
0.159578
0.158528
0.157488
0.156447
0.155402
0.154348
0.15328
0.152192
0.151084
0.149949
0.148774
0.147551
0.146276
0.144938
0.143524
0.142025
0.140428
0.13872
0.136915
0.134996
0.132955
0.130809
0.128554
0.126194
0.123746
0.12123
0.118659
0.116049
0.11341
0.110741
0.108047
0.105331
0.10259
0.0998209
0.0970174
0.0941723
0.0912781
0.0883243
0.0852943
0.0821746
0.0789501
0.075598
0.0721024
0.0684542
0.0646418
0.0606481
0.0564575
0.0520526
0.047412
0.0425187
0.037353
0.031895
0.0261159
0.0200108
0.0140335
0.0108483
0.00779891
0.00459934
0.0013004
-0.00203944
-0.00538639
-0.00872425
-0.0120463
-0.0153507
-0.0186379
-0.0219092
-0.0251665
-0.0284119
-0.0316472
-0.0348742
-0.0380946
-0.0413097
-0.0445207
-0.0477287
-0.0509346
-0.0541391
-0.0573429
-0.0605464
-0.06375
-0.0669541
-0.0701589
-0.0733646
-0.0765713
-0.079779
-0.0829878
-0.0861977
-0.0894085
-0.0926202
-0.0958327
-0.0990459
-0.10226
-0.105474
-0.108688
0.218872
0.215437
0.212019
0.208639
0.205322
0.202089
0.19896
0.195951
0.193073
0.190332
0.187737
0.185284
0.182969
0.180785
0.178725
0.176782
0.174952
0.17323
0.171608
0.170083
0.168646
0.167295
0.166021
0.164814
0.163668
0.162573
0.161512
0.160479
0.159469
0.158464
0.157455
0.156436
0.155407
0.154359
0.153289
0.152191
0.151063
0.149889
0.14866
0.147372
0.14601
0.14456
0.143014
0.141361
0.139596
0.137724
0.135731
0.133631
0.131439
0.129149
0.126769
0.124307
0.121775
0.119181
0.116538
0.113858
0.111141
0.108394
0.105616
0.102807
0.0999659
0.0970884
0.0941681
0.0911939
0.088155
0.0850434
0.0818497
0.0785566
0.075147
0.0716091
0.0679306
0.0640993
0.0600983
0.0559133
0.0515277
0.0469253
0.0420948
0.037037
0.0317714
0.0263586
0.0209368
0.0158917
0.0118483
0.00822588
0.00474215
0.00131163
-0.00208653
-0.00545677
-0.00880104
-0.0121215
-0.0154205
-0.0187009
-0.0219652
-0.0252158
-0.0284549
-0.0316847
-0.0349068
-0.0381228
-0.0413341
-0.0445419
-0.0477471
-0.0509505
-0.0541529
-0.0573549
-0.0605568
-0.063759
-0.0669619
-0.0701657
-0.0733704
-0.0765763
-0.0797833
-0.0829914
-0.0862007
-0.089411
-0.0926222
-0.0958343
-0.0990472
-0.102261
-0.105474
-0.108688
0.218878
0.21546
0.212069
0.208727
0.205456
0.202274
0.199195
0.196229
0.193389
0.190683
0.188119
0.185693
0.183403
0.18125
0.179223
0.177317
0.175527
0.173846
0.172269
0.17079
0.169402
0.1681
0.166875
0.165719
0.164622
0.163576
0.162561
0.161573
0.160605
0.159635
0.158657
0.157666
0.15666
0.155633
0.15458
0.153493
0.15237
0.151197
0.149963
0.148661
0.147271
0.145781
0.144189
0.142478
0.140648
0.1387
0.136637
0.134474
0.13222
0.129882
0.127469
0.12498
0.122423
0.119799
0.117119
0.114391
0.11162
0.10881
0.105962
0.103077
0.100154
0.097188
0.0941738
0.0911058
0.0879781
0.08478
0.0815009
0.0781307
0.0746553
0.0710651
0.0673483
0.0634932
0.0594835
0.0553049
0.0509445
0.0463975
0.0416607
0.0367407
0.0316732
0.0265378
0.0214673
0.0166794
0.0123873
0.00848293
0.00481062
0.00127704
-0.00216934
-0.00555712
-0.00890312
-0.0122178
-0.015508
-0.0187787
-0.0220335
-0.0252753
-0.0285066
-0.0317294
-0.0349454
-0.0381562
-0.041363
-0.0445669
-0.0477687
-0.0509692
-0.0541691
-0.0573689
-0.0605689
-0.0637696
-0.066971
-0.0701735
-0.0733772
-0.0765821
-0.0797882
-0.0829956
-0.0862042
-0.0894139
-0.0926246
-0.0958362
-0.0990486
-0.102262
-0.105475
-0.108689
0.218915
0.215568
0.21224
0.208954
0.205732
0.202595
0.19956
0.196636
0.193834
0.191164
0.188635
0.186245
0.183996
0.181884
0.179897
0.178032
0.176286
0.174649
0.173118
0.171687
0.170348
0.169095
0.167922
0.166817
0.165773
0.164777
0.16381
0.162866
0.161935
0.161001
0.160054
0.159088
0.158107
0.1571
0.156064
0.154987
0.153867
0.152695
0.151456
0.150139
0.148719
0.147191
0.14555
0.14378
0.141888
0.139871
0.137737
0.135501
0.133178
0.13078
0.128312
0.125778
0.12318
0.120514
0.117786
0.115004
0.11217
0.109289
0.106363
0.103392
0.100376
0.0973111
0.0941952
0.0910228
0.0877886
0.0844881
0.0811147
0.0776608
0.074115
0.0704671
0.0667074
0.0628238
0.0588024
0.0546298
0.0502969
0.045803
0.0411497
0.0363541
0.0314466
0.0264899
0.0215952
0.016891
0.0125107
0.00848474
0.00472399
0.0011442
-0.00231775
-0.00570341
-0.00903871
-0.0123394
-0.0156151
-0.018872
-0.0221143
-0.0253451
-0.0285667
-0.0317811
-0.03499
-0.0381946
-0.041396
-0.0445953
-0.0477933
-0.0509905
-0.0541875
-0.0573848
-0.0605827
-0.0637814
-0.0669813
-0.0701824
-0.0733848
-0.0765886
-0.0797938
-0.0830003
-0.0862082
-0.0894172
-0.0926273
-0.0958383
-0.0990502
-0.102263
-0.105476
-0.108689
0.218957
0.215692
0.212443
0.209232
0.206083
0.203014
0.200039
0.19717
0.194422
0.191801
0.189316
0.18697
0.184768
0.182703
0.180762
0.178944
0.177246
0.175657
0.174174
0.17279
0.171501
0.170299
0.169178
0.168127
0.167135
0.166188
0.165268
0.164365
0.163469
0.162569
0.161652
0.160713
0.159755
0.158767
0.157746
0.156678
0.155559
0.154384
0.153138
0.151803
0.150351
0.148789
0.147101
0.145278
0.143326
0.141244
0.13904
0.136729
0.134327
0.131851
0.129309
0.126706
0.124044
0.121318
0.11853
0.115684
0.112779
0.109819
0.106805
0.103738
0.100617
0.0974417
0.0942094
0.0909196
0.0875704
0.084161
0.0806892
0.0771479
0.0735255
0.0698119
0.0660001
0.0620825
0.0580479
0.0538804
0.0495721
0.045126
0.0405442
0.0358399
0.0310365
0.0261883
0.0213773
0.0166899
0.0122613
0.00820545
0.0044449
0.00088504
-0.00254858
-0.00590452
-0.00921203
-0.012488
-0.0157423
-0.0189808
-0.0222074
-0.0254247
-0.0286349
-0.0318395
-0.03504
-0.0382375
-0.0414329
-0.0446271
-0.0478206
-0.051014
-0.0542078
-0.0574023
-0.0605978
-0.0637945
-0.0669926
-0.0701921
-0.0733932
-0.0765958
-0.0797999
-0.0830055
-0.0862125
-0.0894208
-0.0926302
-0.0958407
-0.0990519
-0.102264
-0.105476
-0.108689
0.218999
0.215823
0.212668
0.209552
0.206493
0.203509
0.200613
0.197819
0.19514
0.192583
0.190157
0.187872
0.185728
0.183718
0.181833
0.180068
0.178422
0.176885
0.175453
0.174119
0.172881
0.171731
0.170662
0.169665
0.168722
0.167822
0.166945
0.166083
0.165222
0.164356
0.163469
0.162559
0.161622
0.16065
0.159641
0.15858
0.157462
0.156281
0.155025
0.153667
0.152184
0.150587
0.148852
0.146984
0.144978
0.142831
0.140556
0.138165
0.135678
0.133111
0.130474
0.127779
0.125028
0.12222
0.119354
0.116428
0.113439
0.110388
0.107273
0.104096
0.100857
0.0975562
0.0941949
0.0907758
0.0873019
0.0837764
0.0801987
0.0765644
0.0728641
0.0690872
0.0652245
0.0612682
0.0572138
0.0530496
0.0487679
0.0443688
0.0398472
0.035208
0.0304682
0.0256664
0.0208631
0.0161278
0.011629
0.00762209
0.00395852
0.000493712
-0.00286258
-0.00615915
-0.00942128
-0.012662
-0.0158882
-0.019104
-0.0223118
-0.0255135
-0.0287105
-0.031904
-0.0350951
-0.0382846
-0.0414733
-0.0446617
-0.0478503
-0.0510396
-0.0542298
-0.0574213
-0.0606142
-0.0638087
-0.0670048
-0.0702026
-0.0734022
-0.0766035
-0.0798065
-0.0830111
-0.0862172
-0.0894246
-0.0926334
-0.0958431
-0.0990538
-0.102265
-0.105477
-0.108689
0.219055
0.215988
0.212938
0.209923
0.206964
0.204078
0.201281
0.198582
0.195992
0.193519
0.191174
0.188966
0.186891
0.184947
0.183126
0.181421
0.179833
0.178352
0.176973
0.175692
0.174506
0.17341
0.172395
0.171448
0.170554
0.169697
0.168863
0.168043
0.167217
0.166383
0.165527
0.164645
0.16373
0.162774
0.161773
0.160719
0.159598
0.158407
0.157134
0.155749
0.154235
0.152605
0.150825
0.148914
0.14685
0.14464
0.142293
0.139818
0.137234
0.134561
0.131816
0.129009
0.126147
0.123231
0.120262
0.117234
0.114143
0.110981
0.107747
0.104442
0.101068
0.0976255
0.0941219
0.0905623
0.0869541
0.0833037
0.0796144
0.0758849
0.0721068
0.0682677
0.0643574
0.0603686
0.0562983
0.0521365
0.0478742
0.0435069
0.0390274
0.0344347
0.0297319
0.0249336
0.0200679
0.0151787
0.0105022
0.00669356
0.00327119
-1.02595e-05
-0.00324196
-0.0064546
-0.00965824
-0.0128562
-0.0160497
-0.0192395
-0.0224261
-0.0256103
-0.0287927
-0.0319739
-0.0351547
-0.0383354
-0.0415167
-0.0446988
-0.0478821
-0.0510669
-0.0542533
-0.0574415
-0.0606316
-0.0638236
-0.0670177
-0.0702137
-0.0734117
-0.0766116
-0.0798134
-0.0830169
-0.0862221
-0.0894287
-0.0926366
-0.0958457
-0.0990558
-0.102267
-0.105478
-0.10869
0.219121
0.216186
0.213272
0.21039
0.20756
0.204794
0.202107
0.199508
0.197012
0.194633
0.19238
0.190261
0.188268
0.186402
0.184653
0.183016
0.181492
0.180072
0.178752
0.177529
0.176399
0.175358
0.174394
0.173496
0.17265
0.171839
0.171049
0.170271
0.169484
0.168682
0.167857
0.167002
0.16611
0.165167
0.164174
0.163122
0.161996
0.160791
0.159495
0.158082
0.156536
0.154865
0.153038
0.151079
0.148954
0.14668
0.144256
0.141692
0.139005
0.136214
0.133345
0.130405
0.12741
0.124358
0.121258
0.118102
0.114881
0.111585
0.10821
0.104757
0.101229
0.0976287
0.0939653
0.0902514
0.0864991
0.0827181
0.0789145
0.0750868
0.071228
0.0673276
0.0633754
0.0593628
0.0552858
0.0511342
0.046896
0.0425626
0.0381235
0.0335697
0.0288848
0.0240497
0.0190404
0.0137941
0.00850997
0.00538167
0.00244269
-0.00056857
-0.00364807
-0.00676818
-0.00991007
-0.0130633
-0.0162224
-0.0193846
-0.0225486
-0.025714
-0.0288806
-0.0320486
-0.0352181
-0.0383894
-0.0415627
-0.0447381
-0.0479157
-0.0510956
-0.0542779
-0.0574627
-0.0606498
-0.0638393
-0.0670311
-0.0702252
-0.0734216
-0.0766201
-0.0798206
-0.083023
-0.0862272
-0.0894329
-0.0926401
-0.0958484
-0.0990578
-0.102268
-0.105479
-0.10869
0.219197
0.216415
0.213654
0.210924
0.208236
0.205603
0.203039
0.20056
0.198181
0.195916
0.193772
0.191754
0.189861
0.188087
0.186425
0.184869
0.183418
0.182067
0.180812
0.179649
0.178578
0.177593
0.176683
0.175835
0.175039
0.174276
0.173533
0.172798
0.172051
0.171284
0.170492
0.169664
0.168793
0.167864
0.166877
0.165824
0.164691
0.163468
0.162148
0.160704
0.159123
0.157406
0.155536
0.153519
0.15133
0.148986
0.146478
0.143812
0.141008
0.138085
0.135068
0.131972
0.128811
0.125595
0.122335
0.119023
0.115648
0.112194
0.108655
0.105031
0.101325
0.097545
0.0937038
0.0898196
0.0859097
0.0819882
0.0780632
0.0741346
0.070197
0.0662407
0.0622539
0.0582258
0.0541496
0.0500161
0.0458123
0.0415272
0.037146
0.0326488
0.0280023
0.023154
0.0179956
0.0121314
0.00240031
0.00388
0.00168195
-0.00106843
-0.00402657
-0.00707395
-0.010164
-0.0132767
-0.0164025
-0.019537
-0.0226777
-0.0258233
-0.0289733
-0.0321272
-0.0352848
-0.0384461
-0.0416109
-0.0447791
-0.0479507
-0.0511255
-0.0543035
-0.0574846
-0.0606685
-0.0638554
-0.0670449
-0.0702371
-0.0734317
-0.0766287
-0.0798279
-0.0830292
-0.0862323
-0.0894372
-0.0926435
-0.0958512
-0.0990599
-0.102269
-0.10548
-0.10869
0.219284
0.216675
0.214084
0.211519
0.208991
0.20651
0.204092
0.201759
0.199524
0.197395
0.195378
0.193474
0.19169
0.190019
0.188455
0.18699
0.18562
0.184346
0.183162
0.182065
0.181058
0.180136
0.179283
0.17849
0.177746
0.177035
0.176342
0.175651
0.174947
0.174219
0.173463
0.172663
0.171812
0.170898
0.169918
0.168863
0.167721
0.166484
0.165141
0.163665
0.162048
0.160286
0.158369
0.156287
0.154035
0.151615
0.149013
0.146232
0.143289
0.140204
0.137003
0.133711
0.13035
0.12694
0.123491
0.12
0.116448
0.112813
0.109085
0.105264
0.101356
0.0973713
0.09333
0.0892564
0.0851741
0.0811015
0.0770474
0.0730113
0.0689899
0.0649763
0.0609583
0.0569215
0.052855
0.0487497
0.0445925
0.0403691
0.0360632
0.0316573
0.0271179
0.0223972
0.0174277
0.0121077
0.00635152
0.00407893
0.00145404
-0.00138236
-0.00433838
-0.00735845
-0.0104147
-0.0134937
-0.0165885
-0.0196954
-0.0228122
-0.0259374
-0.0290699
-0.032209
-0.0353541
-0.0385048
-0.0416607
-0.0448215
-0.0479867
-0.0511562
-0.0543297
-0.0575069
-0.0606877
-0.0638717
-0.0670589
-0.0702491
-0.073442
-0.0766374
-0.0798353
-0.0830354
-0.0862375
-0.0894415
-0.092647
-0.0958539
-0.099062
-0.102271
-0.10548
-0.10869
0.219383
0.216969
0.214567
0.212188
0.209841
0.207536
0.205287
0.203116
0.201038
0.199059
0.197187
0.195422
0.193766
0.192214
0.190757
0.189393
0.188115
0.186923
0.185816
0.184792
0.183856
0.183001
0.18221
0.181478
0.180791
0.180136
0.179495
0.178851
0.178193
0.177509
0.176792
0.176024
0.175199
0.174303
0.173333
0.172278
0.171131
0.169885
0.168521
0.167016
0.165366
0.16356
0.16159
0.159443
0.157121
0.154608
0.151887
0.148966
0.14586
0.142589
0.139178
0.135656
0.132058
0.128414
0.124746
0.121052
0.117305
0.113471
0.109533
0.105488
0.101346
0.0971274
0.0928594
0.0885718
0.0842942
0.0800506
0.075853
0.0717005
0.067589
0.0635139
0.0594632
0.0554208
0.0513717
0.0473049
0.0432088
0.0390664
0.0348583
0.0305684
0.0261731
0.0216531
0.0170224
0.0123317
0.00787437
0.00447819
0.00139541
-0.00161617
-0.00462156
-0.00763776
-0.0106693
-0.0137173
-0.0167812
-0.0198598
-0.0229516
-0.0260554
-0.0291696
-0.0322933
-0.0354254
-0.0385651
-0.0417118
-0.0448648
-0.0480235
-0.0511875
-0.0543563
-0.0575296
-0.060707
-0.0638882
-0.067073
-0.0702611
-0.0734522
-0.0766461
-0.0798427
-0.0830416
-0.0862427
-0.0894457
-0.0926504
-0.0958566
-0.099064
-0.102272
-0.105481
-0.108691
0.219492
0.217295
0.215106
0.212934
0.210787
0.208675
0.206613
0.204621
0.202718
0.20091
0.199204
0.197597
0.196088
0.19467
0.193336
0.192084
0.190904
0.189799
0.188773
0.187827
0.186964
0.186181
0.185461
0.184798
0.184176
0.183581
0.182995
0.182406
0.1818
0.181165
0.180491
0.179762
0.178971
0.178098
0.177143
0.176098
0.174954
0.173703
0.172324
0.170799
0.169119
0.167272
0.165248
0.163037
0.160629
0.158002
0.155148
0.152073
0.148787
0.145304
0.141646
0.137849
0.133967
0.130052
0.126141
0.122229
0.118274
0.114226
0.110055
0.105756
0.101346
0.0968599
0.0923339
0.087803
0.0833019
0.0788605
0.0744942
0.0702024
0.0659819
0.0618321
0.0577446
0.0536981
0.0496708
0.0456502
0.0416254
0.0375779
0.0334867
0.0293409
0.0251262
0.0208353
0.0165074
0.0122142
0.008114
0.00448987
0.00119907
-0.00191333
-0.00494272
-0.00794287
-0.010942
-0.0139536
-0.0169827
-0.0200304
-0.0230956
-0.0261767
-0.0292718
-0.0323794
-0.035498
-0.0386264
-0.0417636
-0.0449085
-0.0480605
-0.0512189
-0.054383
-0.0575523
-0.0607263
-0.0639046
-0.067087
-0.070273
-0.0734623
-0.0766547
-0.0798499
-0.0830477
-0.0862477
-0.0894499
-0.0926538
-0.0958593
-0.099066
-0.102274
-0.105482
-0.108691
0.21961
0.21765
0.215695
0.213752
0.211824
0.209924
0.208064
0.20627
0.204562
0.202946
0.201424
0.199993
0.198643
0.197369
0.196165
0.195026
0.193948
0.192938
0.192002
0.191145
0.190369
0.189666
0.189026
0.188437
0.187883
0.187352
0.186828
0.1863
0.185755
0.185176
0.184553
0.183869
0.183116
0.182275
0.181346
0.18032
0.179189
0.177942
0.176559
0.175023
0.173319
0.171436
0.16936
0.167078
0.164573
0.161822
0.158826
0.155584
0.152101
0.148382
0.14445
0.140349
0.13615
0.131932
0.127757
0.123623
0.119454
0.11517
0.110732
0.106143
0.101432
0.0966445
0.0918228
0.0870111
0.0822496
0.077577
0.0730141
0.0685605
0.0642125
0.0599685
0.0558218
0.0517543
0.0477432
0.0437727
0.0398279
0.035889
0.0319335
0.027946
0.0239154
0.019837
0.0157468
0.0116999
0.0077403
0.00407379
0.000742667
-0.00236341
-0.00535282
-0.00829943
-0.0112444
-0.0142071
-0.0171943
-0.020207
-0.0232431
-0.0263002
-0.0293754
-0.0324665
-0.0355713
-0.0386881
-0.0418155
-0.0449524
-0.0480976
-0.0512502
-0.0544095
-0.0575747
-0.0607453
-0.0639208
-0.0671007
-0.0702846
-0.0734721
-0.076663
-0.0798569
-0.0830535
-0.0862526
-0.0894539
-0.092657
-0.0958618
-0.0990679
-0.102275
-0.105483
-0.108691
0.219738
0.218031
0.216329
0.214634
0.212947
0.211276
0.209638
0.208059
0.206561
0.205153
0.203832
0.20259
0.201413
0.200293
0.199223
0.198202
0.197234
0.196327
0.195489
0.194727
0.194041
0.193423
0.192864
0.19235
0.191867
0.191404
0.19095
0.190491
0.190013
0.189496
0.188928
0.188295
0.187586
0.186787
0.185895
0.184901
0.183798
0.18257
0.181198
0.179662
0.177946
0.176034
0.17391
0.171556
0.168953
0.166084
0.162949
0.159539
0.155852
0.151887
0.147662
0.143225
0.138684
0.134151
0.129716
0.12537
0.120987
0.116438
0.111687
0.106761
0.101713
0.0965923
0.0914439
0.0863098
0.0812482
0.0763027
0.0714986
0.0668383
0.0623209
0.0579485
0.0537183
0.0496123
0.0456035
0.041675
0.0378091
0.03398
0.0301625
0.0263356
0.0224848
0.0185989
0.0146985
0.0108034
0.00690118
0.00322568
-2.25514e-05
-0.00300454
-0.00587172
-0.00871496
-0.0115778
-0.0144765
-0.0174139
-0.0203874
-0.0233925
-0.0264245
-0.0294792
-0.0325534
-0.0356442
-0.0387494
-0.0418671
-0.0449958
-0.0481342
-0.0512811
-0.0544355
-0.0575967
-0.060764
-0.0639366
-0.067114
-0.0702958
-0.0734816
-0.076671
-0.0798636
-0.0830591
-0.0862572
-0.0894576
-0.09266
-0.0958641
-0.0990697
-0.102276
-0.105484
-0.108691
0.219873
0.218436
0.217001
0.215569
0.214139
0.212715
0.211314
0.209967
0.208694
0.207507
0.206401
0.205358
0.204363
0.203404
0.202476
0.201581
0.200728
0.199929
0.199192
0.198525
0.197928
0.197395
0.196915
0.196472
0.196059
0.195667
0.195284
0.194895
0.194482
0.194029
0.193519
0.192942
0.192286
0.191542
0.190702
0.189759
0.188702
0.187512
0.186168
0.184648
0.182933
0.181005
0.178844
0.176428
0.173742
0.17077
0.167506
0.163934
0.160048
0.155838
0.151318
0.146545
0.141665
0.136837
0.132175
0.127646
0.123039
0.118179
0.113061
0.107766
0.102359
0.0968865
0.0913879
0.0859099
0.0804977
0.0752133
0.0701019
0.065176
0.0604368
0.0558851
0.0515216
0.0473343
0.0432976
0.0393902
0.0355889
0.031861
0.0281737
0.0244982
0.0208127
0.0170883
0.0133109
0.00948673
0.00558733
0.00187695
-0.00111996
-0.00382697
-0.00647999
-0.00917152
-0.0119285
-0.0147522
-0.017635
-0.0205674
-0.0235405
-0.0265472
-0.0295816
-0.032639
-0.035716
-0.0388096
-0.0419177
-0.0450384
-0.04817
-0.0513112
-0.0544609
-0.0576181
-0.060782
-0.0639517
-0.0671268
-0.0703066
-0.0734906
-0.0766786
-0.0798699
-0.0830643
-0.0862615
-0.0894611
-0.0926628
-0.0958663
-0.0990713
-0.102277
-0.105484
-0.108692
0.220013
0.218856
0.217699
0.21654
0.215376
0.21421
0.21306
0.211956
0.210921
0.209962
0.209074
0.208236
0.207428
0.206635
0.205855
0.205094
0.204359
0.203665
0.203026
0.202448
0.201932
0.201476
0.201066
0.200689
0.200341
0.200014
0.199694
0.199365
0.199012
0.198621
0.198172
0.197657
0.197066
0.19639
0.195618
0.194743
0.193749
0.192614
0.191317
0.189832
0.188137
0.186212
0.184032
0.181578
0.178831
0.175777
0.172408
0.168702
0.164645
0.160217
0.155422
0.150336
0.145163
0.140109
0.135303
0.130633
0.125773
0.120543
0.115013
0.109322
0.10354
0.0977021
0.091834
0.0859772
0.0801921
0.074534
0.069044
0.0637656
0.0587191
0.0539126
0.0493508
0.0450234
0.0409077
0.03698
0.0332131
0.0295684
0.0260024
0.0224739
0.0189404
0.015357
0.0116725
0.00785628
0.00383319
-0.000188852
-0.0025233
-0.00474474
-0.00710592
-0.00962174
-0.0122677
-0.015017
-0.017847
-0.0207402
-0.0236831
-0.0266657
-0.0296805
-0.0327219
-0.0357855
-0.038868
-0.0419668
-0.0450796
-0.0482046
-0.0513403
-0.0544853
-0.0576386
-0.0607991
-0.0639661
-0.0671389
-0.0703167
-0.0734991
-0.0766856
-0.0798757
-0.0830692
-0.0862655
-0.0894643
-0.0926654
-0.0958683
-0.0990727
-0.102278
-0.105485
-0.108692
0.220153
0.219275
0.218394
0.217508
0.216613
0.21571
0.214817
0.213962
0.213165
0.212432
0.211759
0.211121
0.210496
0.20987
0.209239
0.20861
0.207991
0.207398
0.206846
0.206344
0.205897
0.205505
0.205154
0.204829
0.204531
0.204253
0.203981
0.203701
0.203401
0.203066
0.202681
0.202234
0.201718
0.201122
0.200433
0.199639
0.198722
0.197661
0.19643
0.194999
0.193345
0.191444
0.189272
0.186805
0.184026
0.180925
0.177485
0.173683
0.169493
0.164897
0.159901
0.154599
0.149238
0.144064
0.139219
0.134461
0.129353
0.123716
0.117736
0.111649
0.105504
0.0993136
0.0930837
0.0868494
0.0806564
0.0745565
0.0686185
0.0628958
0.0574268
0.052254
0.0473917
0.0428332
0.0385616
0.0345514
0.0307719
0.0271782
0.0237142
0.0203251
0.016953
0.013539
0.00999973
0.00623128
0.00193321
-0.00189409
-0.00396321
-0.00552208
-0.00761664
-0.00999531
-0.0125576
-0.0152498
-0.0180379
-0.0208987
-0.0238157
-0.026777
-0.0297742
-0.0328007
-0.0358518
-0.0389238
-0.0420136
-0.0451189
-0.0482376
-0.0513679
-0.0545085
-0.057658
-0.0608153
-0.0639797
-0.0671501
-0.0703261
-0.0735069
-0.076692
-0.079881
-0.0830735
-0.086269
-0.0894671
-0.0926676
-0.09587
-0.099074
-0.102279
-0.105485
-0.108692
0.220283
0.219664
0.219042
0.218415
0.217777
0.217128
0.216485
0.215871
0.215301
0.214781
0.214305
0.213851
0.213396
0.212925
0.212435
0.21193
0.211418
0.210916
0.210439
0.209998
0.209605
0.209258
0.208942
0.208649
0.208378
0.208128
0.207886
0.207642
0.207386
0.207103
0.20678
0.206406
0.205971
0.205462
0.204864
0.20416
0.20333
0.202353
0.201201
0.19984
0.198247
0.196397
0.19426
0.191818
0.189049
0.185941
0.182476
0.178639
0.1744
0.169732
0.164643
0.159253
0.153845
0.148702
0.143954
0.139211
0.133942
0.127922
0.121504
0.115038
0.108585
0.102114
0.0955859
0.088987
0.0823387
0.0757088
0.0691944
0.0628926
0.0568882
0.0512232
0.0459198
0.0409984
0.0364542
0.0322647
0.0284009
0.0248077
0.0214149
0.0181539
0.0149588
0.0117657
0.00850024
0.00510883
0.00154326
-0.00201853
-0.00383829
-0.00572584
-0.00786722
-0.0102315
-0.0127679
-0.0154339
-0.0181978
-0.0210368
-0.0239344
-0.0268786
-0.0298607
-0.0328741
-0.035914
-0.0389762
-0.0420578
-0.045156
-0.0482686
-0.0513939
-0.0545301
-0.057676
-0.0608303
-0.0639921
-0.0671604
-0.0703346
-0.0735139
-0.0766978
-0.0798857
-0.0830773
-0.086272
-0.0894696
-0.0926695
-0.0958714
-0.0990751
-0.10228
-0.105486
-0.108692
0.220388
0.219981
0.219574
0.219165
0.218749
0.218325
0.217904
0.217502
0.217131
0.216793
0.216483
0.216182
0.215869
0.215531
0.215163
0.214767
0.214351
0.213926
0.213509
0.213114
0.212753
0.212424
0.212117
0.21183
0.211564
0.211321
0.211093
0.210871
0.210649
0.210414
0.210152
0.209854
0.209505
0.209089
0.208586
0.207976
0.207235
0.206345
0.205279
0.203999
0.202484
0.200706
0.198634
0.196247
0.193521
0.190453
0.187035
0.183257
0.179085
0.174482
0.169472
0.164177
0.158893
0.153942
0.149425
0.14486
0.139596
0.133279
0.126519
0.119757
0.113096
0.106443
0.0996724
0.0927116
0.0855832
0.0783786
0.0712122
0.0642162
0.0575176
0.0512057
0.0453289
0.0398979
0.034916
0.0303973
0.0263253
0.0226371
0.0192526
0.0160915
0.0130786
0.0101391
0.00721809
0.00429676
0.00140183
-0.00133345
-0.00351512
-0.00565219
-0.00791655
-0.010336
-0.0128936
-0.0155633
-0.018322
-0.0211511
-0.0240368
-0.0269686
-0.0299388
-0.0329412
-0.0359711
-0.0390247
-0.0420986
-0.0451903
-0.0482973
-0.0514178
-0.05455
-0.0576925
-0.060844
-0.0640033
-0.0671696
-0.0703421
-0.07352
-0.0767027
-0.0798897
-0.0830804
-0.0862745
-0.0894715
-0.0926709
-0.0958725
-0.0990758
-0.10228
-0.105486
-0.108692
0.220443
0.220152
0.219873
0.219604
0.219342
0.219081
0.218827
0.218585
0.218362
0.218157
0.217964
0.21777
0.21756
0.217324
0.217054
0.216749
0.216411
0.216049
0.215676
0.215306
0.214948
0.214607
0.214283
0.213979
0.2137
0.213449
0.213222
0.213015
0.212823
0.212635
0.212439
0.212222
0.211965
0.211644
0.211236
0.210713
0.210053
0.209238
0.20825
0.207054
0.205627
0.203939
0.201955
0.199655
0.197018
0.194047
0.190754
0.187142
0.183163
0.178773
0.174009
0.169007
0.164081
0.159548
0.15545
0.151294
0.146229
0.139762
0.132863
0.126
0.119292
0.112586
0.105673
0.0984152
0.0908352
0.0830296
0.0751387
0.0673522
0.0598566
0.0527775
0.0461632
0.0400374
0.0344361
0.0294013
0.0249341
0.0209825
0.0174769
0.0143311
0.0114556
0.0087514
0.00616262
0.00365846
0.00125175
-0.00104165
-0.00318429
-0.00544385
-0.00783009
-0.0103347
-0.0129437
-0.0156407
-0.0184106
-0.021241
-0.0241221
-0.0270463
-0.0300077
-0.0330013
-0.0360228
-0.0390686
-0.0421357
-0.0452214
-0.0483234
-0.0514394
-0.0545679
-0.0577072
-0.060856
-0.0640131
-0.0671776
-0.0703485
-0.0735251
-0.0767067
-0.0798928
-0.0830828
-0.0862763
-0.0894728
-0.0926719
-0.0958732
-0.0990763
-0.102281
-0.105486
-0.108692
0.220403
0.220045
0.219732
0.219466
0.21924
0.219042
0.218866
0.218707
0.218562
0.218426
0.218294
0.218157
0.218007
0.21784
0.217648
0.21742
0.217148
0.216834
0.216484
0.21611
0.215724
0.215341
0.214975
0.214632
0.214322
0.214052
0.213823
0.213633
0.213476
0.213346
0.213229
0.213109
0.212958
0.212743
0.212429
0.211986
0.211388
0.210629
0.209705
0.208597
0.207268
0.205682
0.203808
0.20163
0.199137
0.196335
0.193252
0.189919
0.186285
0.182295
0.177997
0.17354
0.169209
0.165274
0.16176
0.158207
0.153522
0.147188
0.140493
0.133853
0.127371
0.120829
0.113954
0.106514
0.0985287
0.0900926
0.0814234
0.0728039
0.0644835
0.0566176
0.0491993
0.0422216
0.0357361
0.0298887
0.0247659
0.0203042
0.0164504
0.0131246
0.0102456
0.0076844
0.00534854
0.00317309
0.0011508
-0.000781711
-0.00269447
-0.00509888
-0.00763491
-0.0102496
-0.0129318
-0.0156735
-0.0184675
-0.0213082
-0.024191
-0.0271119
-0.0300674
-0.033054
-0.0360685
-0.0391077
-0.0421688
-0.0452492
-0.0483464
-0.0514585
-0.0545835
-0.0577199
-0.0608663
-0.0640213
-0.0671841
-0.0703536
-0.073529
-0.0767097
-0.079895
-0.0830844
-0.0862775
-0.0894736
-0.0926724
-0.0958735
-0.0990764
-0.102281
-0.105486
-0.108692
0.22018
0.219419
0.218791
0.218314
0.217964
0.217706
0.217508
0.217347
0.217208
0.21708
0.216957
0.216835
0.216714
0.216601
0.216485
0.216335
0.216127
0.21585
0.215503
0.215093
0.214639