0.010101 	2.09279e-14 	7.92461e-17 	-2.14992e-15
0.020202 	-1.60627e-14 	4.03269e-17 	-2.73091e-16
