0 	5.69195e-27 	0 	2.31751e-11
0.010101 	1.2519e-26 	0 	1.32222e-11
