/*--------------------------------*- C++ -*----------------------------------*\
  =========                 |
  \\      /  F ield         | OpenFOAM: The Open Source CFD Toolbox
   \\    /   O peration     | Website:  https://openfoam.org
    \\  /    A nd           | Version:  6
     \\/     M anipulation  |
\*---------------------------------------------------------------------------*/
FoamFile
{
    version     2.0;
    format      ascii;
    class       surfaceScalarField;
    location    "3500";
    object      phi;
}
// * * * * * * * * * * * * * * * * * * * * * * * * * * * * * * * * * * * * * //

dimensions      [0 3 -1 0 0 0 0];

internalField   nonuniform List<scalar> 
9440
(
1.28116e-10
-1.28116e-10
1.60389e-10
-3.22734e-11
1.39556e-10
2.0833e-11
2.3697e-12
1.37187e-10
-1.09327e-10
1.11697e-10
-2.29463e-10
1.20135e-10
-3.37542e-10
1.08079e-10
-3.7409e-10
3.65486e-11
-4.36102e-10
6.20115e-11
-4.15566e-10
-2.05361e-11
-4.07344e-10
-8.22108e-12
-4.21506e-10
1.41621e-11
-4.97313e-10
7.58069e-11
-5.69903e-10
7.25906e-11
-3.48422e-10
-2.21481e-10
-1.9265e-10
-1.55771e-10
-2.9324e-11
-1.63326e-10
-1.03997e-10
7.46733e-11
-2.87108e-12
-1.01125e-10
1.62553e-10
-1.65423e-10
3.93656e-11
1.23187e-10
3.48497e-10
-3.09131e-10
6.27509e-10
-2.79012e-10
1.03361e-09
-4.06103e-10
1.31723e-09
-2.83613e-10
1.5434e-09
-2.26173e-10
1.75525e-09
-2.11848e-10
1.86952e-09
-1.14271e-10
2.10237e-09
-2.32849e-10
2.12365e-09
-2.12822e-11
2.26145e-09
-1.37791e-10
2.48662e-09
-2.25177e-10
2.73513e-09
-2.48509e-10
2.96216e-09
-2.2703e-10
3.08033e-09
-1.18164e-10
3.14283e-09
-6.24993e-11
3.21914e-09
-7.63048e-11
3.23526e-09
-1.61235e-11
3.31379e-09
-7.85287e-11
3.43114e-09
-1.17344e-10
3.53396e-09
-1.02824e-10
3.63838e-09
-1.04421e-10
3.665e-09
-2.66212e-11
3.74342e-09
-7.84144e-11
3.87118e-09
-1.27763e-10
3.96876e-09
-9.75712e-11
4.04512e-09
-7.63609e-11
4.05022e-09
-5.10196e-12
3.99761e-09
5.26164e-11
3.93425e-09
6.33523e-11
3.85707e-09
7.71904e-11
3.77649e-09
8.05769e-11
3.70645e-09
7.00437e-11
3.68333e-09
2.31152e-11
3.65943e-09
2.39066e-11
3.6344e-09
2.50318e-11
3.61288e-09
2.15187e-11
3.60903e-09
3.84464e-12
3.61617e-09
-7.13617e-12
3.62831e-09
-1.21365e-11
3.65641e-09
-2.81008e-11
3.70724e-09
-5.08332e-11
3.76155e-09
-5.43102e-11
3.76629e-09
-4.7335e-12
3.75355e-09
1.27353e-11
3.72356e-09
2.99894e-11
3.70042e-09
2.31454e-11
3.63526e-09
6.51571e-11
3.57338e-09
6.18744e-11
3.51766e-09
5.57236e-11
3.45195e-09
6.57123e-11
3.36852e-09
8.34233e-11
3.26722e-09
1.01304e-10
3.05611e-09
2.11107e-10
2.8049e-09
2.51207e-10
2.70642e-09
9.84808e-11
2.55731e-09
1.49117e-10
2.49809e-09
5.92112e-11
2.38296e-09
1.15138e-10
1.53854e-09
8.44412e-10
3.40167e-16
1.53854e-09
1.05086e-17
2.19873e-17
3.32902e-18
7.17957e-18
5.45007e-19
2.78371e-18
-7.03045e-19
1.24779e-18
-1.31603e-18
6.12794e-19
-1.61404e-18
2.979e-19
-1.72806e-18
1.13984e-19
-1.72061e-18
-7.39671e-21
-1.62723e-18
-9.32509e-20
-1.47053e-18
-1.56492e-19
-1.26684e-18
-2.03408e-19
-1.0291e-18
-2.37393e-19
-7.68216e-19
-2.60462e-19
-4.93769e-19
-2.73966e-19
-2.14287e-19
-2.78942e-19
6.26028e-20
-2.763e-19
3.30154e-19
-2.66915e-19
5.82501e-19
-2.51668e-19
8.14683e-19
-2.31462e-19
1.02265e-18
-2.0721e-19
1.20327e-18
-1.79817e-19
1.35426e-18
-1.50164e-19
1.4742e-18
-1.19083e-19
1.56243e-18
-8.73385e-20
1.61895e-18
-5.56159e-20
1.64437e-18
-2.45106e-20
1.63982e-18
5.47506e-21
1.60681e-18
3.39302e-20
1.5472e-18
6.05309e-20
1.46308e-18
8.50328e-20
1.35674e-18
1.0726e-19
1.23055e-18
1.27095e-19
1.08698e-18
1.44467e-19
9.28527e-19
1.59342e-19
7.57701e-19
1.71711e-19
5.76996e-19
1.81584e-19
3.88885e-19
1.88986e-19
1.95789e-19
1.93967e-19
1.96657e-19
-1.24786e-10
-3.32927e-12
-2.21489e-10
6.44296e-11
-2.5708e-10
5.64238e-11
-2.6199e-10
1.42097e-10
-4.05559e-10
2.55265e-10
-4.68033e-10
1.8261e-10
-5.28649e-10
1.68695e-10
-5.90671e-10
9.85708e-11
-6.20928e-10
9.22687e-11
-5.77403e-10
-6.40598e-11
-5.52225e-10
-3.33986e-11
-5.34508e-10
-3.55449e-12
-5.44283e-10
8.55818e-11
-4.72363e-10
6.70996e-13
-3.1013e-10
-3.83713e-10
-2.42014e-10
-2.23886e-10
-1.81298e-10
-2.24041e-10
-6.05097e-11
-4.61145e-11
1.06293e-10
-2.67927e-10
2.58051e-10
-3.1718e-10
4.70736e-10
-8.94963e-11
5.19762e-10
-3.58155e-10
6.69978e-10
-4.29227e-10
8.89553e-10
-6.25677e-10
1.13236e-09
-5.26416e-10
1.47776e-09
-5.71569e-10
1.5367e-09
-2.70791e-10
1.71093e-09
-2.88499e-10
2.01793e-09
-5.39847e-10
2.0648e-09
-6.81564e-11
2.322e-09
-3.94987e-10
2.59585e-09
-4.99021e-10
2.72799e-09
-3.80652e-10
2.72461e-09
-2.2365e-10
2.74499e-09
-1.38535e-10
2.76745e-09
-8.49616e-11
2.81171e-09
-1.20565e-10
2.80562e-09
-1.00323e-11
2.91026e-09
-1.83161e-10
3.01464e-09
-2.21721e-10
3.13144e-09
-2.19627e-10
3.30463e-09
-2.77609e-10
3.44663e-09
-1.6862e-10
3.57183e-09
-2.03614e-10
3.69316e-09
-2.4909e-10
3.74712e-09
-1.5153e-10
3.83959e-09
-1.68823e-10
3.93837e-09
-1.03889e-10
3.93182e-09
5.91684e-11
3.89385e-09
1.01325e-10
3.83408e-09
1.36964e-10
3.77204e-09
1.42614e-10
3.75111e-09
9.09743e-11
3.73149e-09
4.27403e-11
3.71101e-09
4.4384e-11
3.7018e-09
3.42469e-11
3.69852e-09
2.4805e-11
3.68598e-09
1.6378e-11
3.66922e-09
9.62648e-12
3.65682e-09
2.62088e-13
3.62221e-09
6.51156e-12
3.56389e-09
7.48605e-12
3.50769e-09
1.89135e-12
3.46792e-09
3.50438e-11
3.42327e-09
5.73793e-11
3.39513e-09
5.81269e-11
3.32691e-09
9.13701e-11
3.32025e-09
7.18159e-11
3.2598e-09
1.22327e-10
3.18554e-09
1.29982e-10
3.1455e-09
1.05746e-10
3.05208e-09
1.76848e-10
2.91287e-09
2.40512e-10
2.81337e-09
3.10603e-10
2.52697e-09
5.3761e-10
2.23569e-09
3.89756e-10
1.70407e-09
6.80737e-10
5.11505e-10
1.25178e-09
-2.4731e-10
8.73952e-10
-1.43809e-10
7.40909e-10
2.65485e-16
1.39473e-09
-3.90433e-18
6.19523e-18
-1.07561e-18
4.35061e-18
-9.97837e-19
2.70549e-18
-1.34301e-18
1.59264e-18
-1.634e-18
9.03613e-19
-1.79926e-18
4.63123e-19
-1.84935e-18
1.64182e-19
-1.80647e-18
-5.00332e-20
-1.69047e-18
-2.08863e-19
-1.51745e-18
-3.29e-19
-1.30083e-18
-4.19389e-19
-1.05217e-18
-4.85292e-19
-7.8172e-19
-5.30036e-19
-4.98745e-19
-5.55968e-19
-2.11645e-19
-5.64978e-19
7.19883e-20
-5.58787e-19
3.454e-19
-5.39103e-19
6.02707e-19
-5.0768e-19
8.38936e-19
-4.66327e-19
1.05004e-18
-4.1689e-19
1.23292e-18
-3.61203e-19
1.38534e-18
-3.01049e-19
1.50595e-18
-2.3811e-19
1.59415e-18
-1.7393e-19
1.65005e-18
-1.09886e-19
1.67436e-18
-4.71734e-20
1.66827e-18
1.32056e-20
1.63341e-18
7.04352e-20
1.5717e-18
1.23876e-19
1.48531e-18
1.7305e-19
1.37657e-18
2.17616e-19
1.24792e-18
2.57351e-19
1.10185e-18
2.92125e-19
9.40896e-19
3.21879e-19
7.67574e-19
3.46604e-19
5.84398e-19
3.66324e-19
3.93865e-19
3.81077e-19
1.98479e-19
3.90905e-19
3.95818e-19
-1.66913e-10
1.63584e-10
-3.10803e-10
2.0832e-10
-4.28765e-10
1.74385e-10
-5.28319e-10
2.41652e-10
-5.81086e-10
3.08032e-10
-6.28948e-10
2.30472e-10
-6.22376e-10
1.62123e-10
-6.05336e-10
8.1531e-11
-5.78517e-10
6.545e-11
-6.18304e-10
-2.42723e-11
-5.80821e-10
-7.08812e-11
-5.16418e-10
-6.79579e-11
-5.0369e-10
7.28548e-11
-3.38985e-10
-1.64033e-10
-3.34579e-10
-3.88118e-10
-2.70157e-10
-2.88307e-10
-2.41759e-10
-2.52439e-10
-5.42375e-11
-2.33635e-10
7.92336e-12
-3.30088e-10
6.91755e-11
-3.78431e-10
3.18566e-10
-3.38885e-10
4.13953e-10
-4.53541e-10
5.94857e-10
-6.1013e-10
6.59413e-10
-6.90232e-10
8.55568e-10
-7.22571e-10
1.16525e-09
-8.81255e-10
1.3338e-09
-4.39331e-10
1.58044e-09
-5.3514e-10
1.73792e-09
-6.97328e-10
2.08275e-09
-4.12984e-10
2.14947e-09
-4.61706e-10
2.0859e-09
-4.35444e-10
2.15482e-09
-4.49571e-10
2.26603e-09
-3.34864e-10
2.34327e-09
-2.15774e-10
2.44982e-09
-1.91508e-10
2.52883e-09
-1.99573e-10
2.68945e-09
-1.70652e-10
2.74635e-09
-2.40056e-10
2.7872e-09
-2.62574e-10
2.81964e-09
-2.5206e-10
2.83713e-09
-2.95104e-10
2.91217e-09
-2.43649e-10
2.96816e-09
-2.59605e-10
3.03205e-09
-3.12979e-10
3.16604e-09
-2.85521e-10
3.27832e-09
-2.81102e-10
3.37945e-09
-2.05013e-10
3.46842e-09
-2.98086e-11
3.55036e-09
1.9391e-11
3.6176e-09
6.97285e-11
3.63246e-09
1.27752e-10
3.63811e-09
8.53222e-11
3.64533e-09
3.55294e-11
3.62668e-09
6.30266e-11
3.60854e-09
5.23917e-11
3.57985e-09
5.34929e-11
3.5385e-09
5.77283e-11
3.4853e-09
6.28272e-11
3.41752e-09
6.80471e-11
3.35758e-09
6.6454e-11
3.29816e-09
6.69014e-11
3.26027e-09
3.97826e-11
3.21711e-09
7.82024e-11
3.17405e-09
1.00447e-10
3.13126e-09
1.00913e-10
3.05773e-09
1.64895e-10
2.96112e-09
1.68429e-10
2.94216e-09
1.41285e-10
2.85409e-09
2.1805e-10
2.74618e-09
2.13659e-10
2.70684e-09
2.16189e-10
2.60341e-09
3.43939e-10
2.41778e-09
4.96235e-10
2.25352e-09
7.01872e-10
1.91967e-09
7.23602e-10
1.38176e-09
1.21865e-09
1.06118e-09
1.57235e-09
6.45416e-10
1.28972e-09
3.42316e-10
1.04401e-09
3.25112e-16
1.73705e-09
-4.87936e-18
1.24037e-18
-2.71911e-18
2.19017e-18
-2.10932e-18
2.09523e-18
-2.03085e-18
1.51382e-18
-2.07341e-18
9.4598e-19
-2.0972e-18
4.8685e-19
-2.06281e-18
1.29862e-19
-1.9653e-18
-1.47344e-19
-1.81061e-18
-3.63224e-19
-1.60784e-18
-5.31325e-19
-1.36673e-18
-6.59939e-19
-1.09691e-18
-7.54446e-19
-8.07653e-19
-8.18534e-19
-5.07754e-19
-8.55018e-19
-2.05454e-19
-8.6635e-19
9.16723e-20
-8.54915e-19
3.76823e-19
-8.23189e-19
6.44059e-19
-7.73788e-19
8.88374e-19
-7.09456e-19
1.10573e-18
-6.33007e-19
1.29307e-18
-5.47253e-19
1.44828e-18
-4.54924e-19
1.57013e-18
-3.58589e-19
1.65819e-18
-2.606e-19
1.71276e-18
-1.63045e-19
1.73474e-18
-6.77231e-20
1.7255e-18
2.38646e-20
1.68685e-18
1.10508e-19
1.62088e-18
1.9127e-19
1.52988e-18
2.65457e-19
1.41631e-18
3.32587e-19
1.28269e-18
3.92354e-19
1.13161e-18
4.44591e-19
9.65621e-19
4.89235e-19
7.87293e-19
5.26294e-19
5.99151e-19
5.5582e-19
4.03693e-19
5.77883e-19
2.03392e-19
5.92551e-19
5.99867e-19
-1.40378e-10
3.03962e-10
-3.20961e-10
3.88903e-10
-4.55536e-10
3.08961e-10
-5.66326e-10
3.52441e-10
-6.35379e-10
3.77086e-10
-6.96525e-10
2.91618e-10
-6.74462e-10
1.4006e-10
-6.54124e-10
6.11935e-11
-5.66215e-10
-2.2459e-11
-5.08654e-10
-8.18323e-11
-5.14009e-10
-6.55268e-11
-5.24465e-10
-5.75014e-11
-4.54609e-10
2.99958e-12
-3.52087e-10
-2.66556e-10
-3.84319e-10
-3.55886e-10
-4.68194e-10
-2.04431e-10
-5.00334e-10
-2.20299e-10
-3.13614e-10
-4.20355e-10
-3.10766e-10
-3.32935e-10
-2.27733e-10
-4.61464e-10
-6.05414e-11
-5.06076e-10
1.42573e-10
-6.56655e-10
3.6318e-10
-8.30736e-10
6.00989e-10
-9.2804e-10
7.95947e-10
-9.17527e-10
1.04501e-09
-1.13032e-09
1.31573e-09
-7.10049e-10
1.57268e-09
-7.9209e-10
1.54964e-09
-6.74286e-10
1.91217e-09
-7.75513e-10
2.08826e-09
-6.37794e-10
2.13036e-09
-4.77541e-10
2.1187e-09
-4.37908e-10
2.15719e-09
-3.73354e-10
2.16479e-09
-2.23371e-10
2.26596e-09
-2.92674e-10
2.34783e-09
-2.81443e-10
2.48973e-09
-3.12554e-10
2.50968e-09
-2.59998e-10
2.52846e-09
-2.81355e-10
2.55192e-09
-2.75523e-10
2.56293e-09
-3.06112e-10
2.59165e-09
-2.72361e-10
2.631e-09
-2.98957e-10
2.63996e-09
-3.21932e-10
2.71084e-09
-3.56404e-10
2.74517e-09
-3.15428e-10
2.77104e-09
-2.30888e-10
2.90052e-09
-1.59284e-10
3.01454e-09
-9.46311e-11
3.09602e-09
-1.17411e-11
3.17643e-09
4.73389e-11
3.2535e-09
8.24803e-12
3.26107e-09
2.79643e-11
3.25352e-09
7.05756e-11
3.25727e-09
4.86459e-11
3.24556e-09
6.52032e-11
3.23227e-09
7.10201e-11
3.24249e-09
5.26072e-11
3.23587e-09
7.4666e-11
3.21266e-09
8.96679e-11
3.16935e-09
1.10213e-10
3.12285e-09
8.62773e-11
3.08391e-09
1.17141e-10
3.03007e-09
1.54292e-10
2.94337e-09
1.87615e-10
2.92803e-09
1.80235e-10
2.77719e-09
3.19261e-10
2.72307e-09
1.95407e-10
2.70868e-09
2.3244e-10
2.52704e-09
3.95295e-10
2.46231e-09
2.80923e-10
2.40064e-09
4.05605e-10
2.2327e-09
6.6418e-10
2.07435e-09
8.6022e-10
1.73457e-09
1.06338e-09
1.5414e-09
1.41182e-09
1.34769e-09
1.76606e-09
8.88495e-10
1.74891e-09
4.71332e-10
1.46117e-09
3.15795e-16
2.20838e-09
-2.68046e-18
3.54948e-18
-2.81264e-18
2.32216e-18
-2.68942e-18
1.97153e-18
-2.59749e-18
1.4215e-18
-2.53145e-18
8.79691e-19
-2.45318e-18
4.08486e-19
-2.33931e-18
1.60431e-20
-2.18118e-18
-3.05283e-19
-1.97871e-18
-5.65367e-19
-1.73645e-18
-7.73132e-19
-1.46124e-18
-9.3459e-19
-1.161e-18
-1.05401e-18
-8.44137e-19
-1.13463e-18
-5.19085e-19
-1.17922e-18
-1.9402e-19
-1.19049e-18
1.23398e-19
-1.17133e-18
4.26224e-19
-1.12495e-18
7.08391e-19
-1.05484e-18
9.64822e-19
-9.64714e-19
1.19149e-18
-8.58446e-19
1.3854e-18
-7.39902e-19
1.54462e-18
-6.1283e-19
1.66812e-18
-4.8075e-19
1.75575e-18
-3.46866e-19
1.80809e-18
-2.14002e-19
1.82632e-18
-8.45709e-20
1.81214e-18
3.94353e-20
1.76761e-18
1.56431e-19
1.69506e-18
2.65206e-19
1.59701e-18
3.64888e-19
1.47607e-18
4.54889e-19
1.33493e-18
5.34856e-19
1.17625e-18
6.04619e-19
1.00268e-18
6.64144e-19
8.16819e-19
7.13485e-19
6.21215e-19
7.52748e-19
4.18362e-19
7.82055e-19
2.10708e-19
8.01519e-19
8.11225e-19
-1.44209e-10
4.48171e-10
-2.39341e-10
4.84035e-10
-4.48028e-10
5.17649e-10
-6.41714e-10
5.46127e-10
-7.21867e-10
4.57238e-10
-7.53372e-10
3.23124e-10
-7.60965e-10
1.47653e-10
-8.19819e-10
1.20048e-10
-8.0683e-10
-3.5448e-11
-8.42184e-10
-4.64782e-11
-8.31392e-10
-7.63186e-11
-8.00648e-10
-8.82451e-11
-7.28362e-10
-6.9286e-11
-7.72432e-10
-2.22484e-10
-8.05773e-10
-3.22544e-10
-8.45289e-10
-1.64915e-10
-7.89725e-10
-2.75862e-10
-6.98568e-10
-5.11511e-10
-6.9054e-10
-3.40963e-10
-7.04495e-10
-4.47508e-10
-6.16379e-10
-5.94191e-10
-3.60272e-10
-9.1276e-10
-5.41637e-11
-1.13684e-09
2.29972e-10
-1.21217e-09
5.00025e-10
-1.18758e-09
7.00014e-10
-1.33031e-09
1.12075e-09
-1.13078e-09
1.31305e-09
-9.8439e-10
1.46001e-09
-8.21246e-10
1.56223e-09
-8.77724e-10
1.5971e-09
-6.72666e-10
1.7002e-09
-5.80637e-10
1.74502e-09
-4.82733e-10
1.83096e-09
-4.59288e-10
1.91794e-09
-3.10347e-10
1.95892e-09
-3.33654e-10
1.994e-09
-3.16518e-10
2.0072e-09
-3.25753e-10
2.05033e-09
-3.03125e-10
2.08997e-09
-3.21001e-10
2.11923e-09
-3.04778e-10
2.16612e-09
-3.53002e-10
2.18344e-09
-2.89682e-10
2.19193e-09
-3.0744e-10
2.23329e-09
-3.63291e-10
2.25712e-09
-3.80238e-10
2.29845e-09
-3.56756e-10
2.35882e-09
-2.91259e-10
2.44718e-09
-2.47644e-10
2.59607e-09
-2.43515e-10
2.68792e-09
-1.03589e-10
2.77091e-09
-3.56536e-11
2.86211e-09
-8.29509e-11
2.9023e-09
-1.22188e-11
2.99325e-09
-2.03795e-11
3.083e-09
-4.11e-11
3.11149e-09
3.67152e-11
3.11284e-09
6.96714e-11
3.14432e-09
2.11224e-11
3.13505e-09
8.39357e-11
3.09195e-09
1.32773e-10
3.05326e-09
1.48902e-10
2.97261e-09
1.66929e-10
2.92799e-09
1.61757e-10
2.86518e-09
2.17102e-10
2.76761e-09
2.85184e-10
2.6815e-09
2.66349e-10
2.58544e-09
4.15316e-10
2.47574e-09
3.05113e-10
2.44539e-09
2.62785e-10
2.33568e-09
5.05004e-10
2.21891e-09
3.97697e-10
2.14657e-09
4.77942e-10
1.99828e-09
8.12469e-10
1.81676e-09
1.04173e-09
1.705e-09
1.17514e-09
1.60358e-09
1.51324e-09
1.47491e-09
1.89472e-09
1.14406e-09
2.07976e-09
5.53295e-10
2.05193e-09
3.90633e-16
2.76167e-09
-2.2749e-18
8.09987e-18
-3.16185e-18
3.20888e-18
-3.23813e-18
2.04729e-18
-3.13812e-18
1.32106e-18
-3.00157e-18
7.42854e-19
-2.84462e-18
2.51409e-19
-2.66001e-18
-1.68548e-19
-2.44126e-18
-5.23847e-19
-2.18648e-18
-8.19826e-19
-1.89791e-18
-1.06124e-18
-1.58066e-18
-1.25126e-18
-1.24162e-18
-1.39236e-18
-8.88724e-19
-1.48673e-18
-5.30353e-19
-1.53671e-18
-1.74867e-19
-1.54501e-18
1.69779e-19
-1.51495e-18
4.9634e-19
-1.45043e-18
7.98514e-19
-1.35587e-18
1.07109e-18
-1.23611e-18
1.31003e-18
-1.09616e-18
1.51247e-18
-9.41079e-19
1.6767e-18
-7.75749e-19
1.802e-18
-6.04726e-19
1.88861e-18
-4.32125e-19
1.93752e-18
-2.61542e-19
1.95033e-18
-9.60098e-20
1.92914e-18
6.19997e-20
1.87639e-18
2.10555e-19
1.79474e-18
3.48218e-19
1.68701e-18
4.73982e-19
1.55604e-18
5.87207e-19
1.40469e-18
6.87543e-19
1.23578e-18
7.74868e-19
1.05202e-18
8.4922e-19
8.56082e-19
9.10739e-19
6.50522e-19
9.59615e-19
4.37826e-19
9.96052e-19
2.20414e-19
1.02023e-18
1.03228e-18
-2.95839e-10
7.4401e-10
-4.48556e-10
6.36752e-10
-5.06185e-10
5.75278e-10
-6.23531e-10
6.63472e-10
-7.61469e-10
5.95177e-10
-8.59459e-10
4.21114e-10
-8.93973e-10
1.82168e-10
-9.27465e-10
1.5354e-10
-1.01511e-09
5.2197e-11
-1.05243e-09
-9.15653e-12
-1.08029e-09
-4.84633e-11
-1.09254e-09
-7.59953e-11
-1.01075e-09
-1.51074e-10
-9.9682e-10
-2.36411e-10
-1.02371e-09
-2.95654e-10
-1.05539e-09
-1.33232e-10
-1.04204e-09
-2.89211e-10
-1.02368e-09
-5.29868e-10
-9.89833e-10
-3.74813e-10
-9.06934e-10
-5.30406e-10
-6.01817e-10
-8.99308e-10
-3.0719e-10
-1.20739e-09
-5.94414e-11
-1.38459e-09
1.9464e-10
-1.46625e-09
5.50376e-10
-1.54331e-09
6.56011e-10
-1.43594e-09
8.29285e-10
-1.30406e-09
1.00255e-09
-1.15765e-09
1.05925e-09
-8.7795e-10
1.12605e-09
-9.44523e-10
1.15613e-09
-7.02744e-10
1.25226e-09
-6.76767e-10
1.29776e-09
-5.28232e-10
1.31704e-09
-4.78565e-10
1.41063e-09
-4.03936e-10
1.53003e-09
-4.53048e-10
1.61943e-09
-4.05915e-10
1.67938e-09
-3.857e-10
1.68768e-09
-3.11427e-10
1.71563e-09
-3.48945e-10
1.74468e-09
-3.33835e-10
1.82217e-09
-4.30481e-10
1.84882e-09
-3.16333e-10
1.90956e-09
-3.68177e-10
2.05045e-09
-5.04186e-10
2.13294e-09
-4.62726e-10
2.18346e-09
-4.07271e-10
2.24546e-09
-3.53263e-10
2.32827e-09
-3.30445e-10
2.42237e-09
-3.37614e-10
2.49708e-09
-1.783e-10
2.66216e-09
-2.0073e-10
2.76107e-09
-1.81859e-10
2.84678e-09
-9.79299e-11
2.8795e-09
-5.30955e-11
2.92747e-09
-8.90772e-11
2.91874e-09
4.5453e-11
2.90292e-09
8.54927e-11
2.88539e-09
3.86481e-11
2.86158e-09
1.07745e-10
2.82366e-09
1.70694e-10
2.77208e-09
2.00481e-10
2.74031e-09
1.98697e-10
2.63742e-09
2.64651e-10
2.59419e-09
2.60327e-10
2.54695e-09
3.32431e-10
2.41933e-09
3.93966e-10
2.3782e-09
4.56445e-10
2.2941e-09
3.89213e-10
2.10844e-09
4.48439e-10
2.09847e-09
5.14982e-10
1.99174e-09
5.04423e-10
1.87998e-09
5.89703e-10
1.771e-09
9.21444e-10
1.74287e-09
1.06986e-09
1.53751e-09
1.38051e-09
1.23319e-09
1.81756e-09
7.31794e-10
2.39612e-09
2.54362e-10
2.55719e-09
1.41117e-10
2.16517e-09
5.26066e-16
2.90279e-09
-5.15185e-18
5.5629e-18
-4.32193e-18
2.37868e-18
-3.96303e-18
1.68773e-18
-3.71514e-18
1.07266e-18
-3.49194e-18
5.19305e-19
-3.2636e-18
2.28932e-20
-3.01478e-18
-4.17379e-19
-2.73724e-18
-8.01219e-19
-2.42789e-18
-1.12885e-18
-2.08793e-18
-1.40072e-18
-1.72176e-18
-1.61683e-18
-1.33599e-18
-1.7774e-18
-9.38697e-19
-1.8832e-18
-5.3866e-19
-1.93582e-18
-1.44809e-19
-1.93786e-18
2.34302e-19
-1.893e-18
5.90897e-19
-1.80591e-18
9.18282e-19
-1.68209e-18
1.21104e-18
-1.52766e-18
1.46511e-18
-1.34899e-18
1.6778e-18
-1.1525e-18
1.84772e-18
-9.44363e-19
1.9746e-18
-7.30286e-19
2.0592e-18
-5.15379e-19
2.10305e-18
-3.04044e-19
2.10834e-18
-9.99427e-20
2.0777e-18
9.40004e-20
2.01405e-18
2.75554e-19
1.92051e-18
4.4311e-19
1.80023e-18
5.95598e-19
1.65638e-18
7.32393e-19
1.49202e-18
8.53222e-19
1.31013e-18
9.58072e-19
1.11354e-18
1.04711e-18
9.04958e-19
1.12062e-18
6.86959e-19
1.1789e-18
4.62003e-19
1.22229e-18
2.32463e-19
1.25105e-18
1.26537e-18
-1.9483e-10
9.38839e-10
-4.90628e-10
9.3255e-10
-7.65661e-10
8.50311e-10
-8.50532e-10
7.48344e-10
-8.95904e-10
6.40549e-10
-9.83069e-10
5.08279e-10
-1.05269e-09
2.51785e-10
-1.13182e-09
2.32677e-10
-1.16611e-09
8.64833e-11
-1.19694e-09
2.16767e-11
-1.23753e-09
-7.87679e-12
-1.24458e-09
-6.89445e-11
-1.23371e-09
-1.61944e-10
-1.26764e-09
-2.02482e-10
-1.36381e-09
-1.99477e-10
-1.32773e-09
-1.69312e-10
-1.36625e-09
-2.50694e-10
-1.24314e-09
-6.52978e-10
-1.14056e-09
-4.77396e-10
-9.16019e-10
-7.54942e-10
-6.38121e-10
-1.17721e-09
-5.27063e-10
-1.31844e-09
-4.231e-10
-1.48855e-09
-2.57309e-10
-1.63205e-09
-1.13622e-10
-1.687e-09
9.95304e-11
-1.64909e-09
3.63644e-10
-1.56817e-09
5.73381e-10
-1.36739e-09
6.8649e-10
-9.91058e-10
7.12461e-10
-9.70492e-10
7.85148e-10
-7.75429e-10
8.29944e-10
-7.21561e-10
8.87514e-10
-5.85801e-10
9.64626e-10
-5.55674e-10
1.0314e-09
-4.70706e-10
1.04186e-09
-4.6351e-10
1.09153e-09
-4.55578e-10
1.17515e-09
-4.69326e-10
1.28091e-09
-4.17182e-10
1.38058e-09
-4.48613e-10
1.47075e-09
-4.24005e-10
1.58995e-09
-5.49681e-10
1.68366e-09
-4.1004e-10
1.8036e-09
-4.88115e-10
1.91065e-09
-6.11233e-10
1.95905e-09
-5.11128e-10
2.04808e-09
-4.96293e-10
2.12683e-09
-4.32017e-10
2.24544e-09
-4.4905e-10
2.29223e-09
-3.84402e-10
2.42626e-09
-3.12332e-10
2.54869e-09
-3.23165e-10
2.55133e-09
-1.84492e-10
2.58705e-09
-1.3365e-10
2.58113e-09
-4.71764e-11
2.58683e-09
-9.47738e-11
2.60841e-09
2.38681e-11
2.60997e-09
8.39336e-11
2.56539e-09
8.32346e-11
2.53951e-09
1.33627e-10
2.50255e-09
2.07653e-10
2.44044e-09
2.62592e-10
2.44771e-09
1.91426e-10
2.36486e-09
3.47494e-10
2.27971e-09
3.45478e-10
2.24182e-09
3.70319e-10
2.13595e-09
4.99843e-10
2.04634e-09
5.46046e-10
1.88327e-09
5.52282e-10
1.80909e-09
5.22625e-10
1.8502e-09
4.73868e-10
1.81782e-09
5.36798e-10
1.72478e-09
6.82748e-10
1.6413e-09
1.00492e-09
1.49977e-09
1.21139e-09
1.20113e-09
1.67914e-09
9.47385e-10
2.0713e-09
6.42225e-10
2.70127e-09
3.55687e-10
2.84373e-09
1.59248e-10
2.36161e-09
6.15607e-16
3.06203e-09
-5.90241e-18
3.47171e-18
-5.01143e-18
1.48739e-18
-4.57681e-18
1.25228e-18
-4.26733e-18
7.62523e-19
-3.98731e-18
2.38834e-19
-3.70293e-18
-2.61735e-19
-3.3982e-18
-7.2216e-19
-3.06487e-18
-1.13441e-18
-2.69975e-18
-1.49366e-18
-2.30404e-18
-1.79596e-18
-1.88233e-18
-2.03791e-18
-1.4418e-18
-2.21718e-18
-9.91319e-19
-2.33281e-18
-5.40702e-19
-2.38547e-18
-9.99447e-20
-2.37757e-18
3.21395e-19
-2.31322e-18
7.14709e-19
-2.19805e-18
1.07272e-18
-2.0389e-18
1.3897e-18
-1.84341e-18
1.6616e-18
-1.61962e-18
1.88594e-18
-1.37557e-18
2.0618e-18
-1.11891e-18
2.18951e-18
-8.56679e-19
2.27053e-18
-5.95067e-19
2.30715e-18
-3.39325e-19
2.30228e-18
-9.37333e-20
2.25925e-18
1.38372e-19
2.18161e-18
3.5453e-19
2.073e-18
5.53048e-19
1.93703e-18
7.32884e-19
1.77721e-18
8.93524e-19
1.59687e-18
1.03486e-18
1.39917e-18
1.15706e-18
1.18704e-18
1.26052e-18
9.63246e-19
1.34568e-18
7.30346e-19
1.41307e-18
4.90761e-19
1.46314e-18
2.46786e-19
1.49628e-18
1.51277e-18
-1.86216e-10
1.12506e-09
-2.82744e-10
1.02908e-09
-4.40414e-10
1.00798e-09
-6.98042e-10
1.00597e-09
-9.09597e-10
8.52104e-10
-1.03718e-09
6.35864e-10
-1.22825e-09
4.42857e-10
-1.3255e-09
3.29922e-10
-1.39261e-09
1.53589e-10
-1.48371e-09
1.12779e-10
-1.55353e-09
6.1942e-11
-1.5337e-09
-8.87713e-11
-1.57005e-09
-1.25589e-10
-1.60357e-09
-1.68963e-10
-1.58383e-09
-2.19216e-10
-1.5023e-09
-2.50841e-10
-1.41526e-09
-3.37736e-10
-1.35897e-09
-7.09266e-10
-1.29817e-09
-5.38192e-10
-1.03893e-09
-1.01419e-09
-9.52856e-10
-1.26327e-09
-9.08067e-10
-1.36323e-09
-7.9472e-10
-1.6019e-09
-7.15497e-10
-1.71127e-09
-6.14282e-10
-1.78821e-09
-4.62242e-10
-1.80113e-09
-3.41682e-10
-1.68873e-09
-2.73801e-10
-1.43527e-09
1.59375e-10
-1.42423e-09
3.73375e-10
-1.18449e-09
4.50127e-10
-8.52181e-10
4.73238e-10
-7.44671e-10
5.5545e-10
-6.68011e-10
6.17036e-10
-6.17259e-10
7.04973e-10
-5.58642e-10
7.70411e-10
-5.28946e-10
8.3949e-10
-5.24655e-10
9.11259e-10
-5.41094e-10
1.03321e-09
-5.39135e-10
1.13109e-09
-5.46485e-10
1.28971e-09
-5.82626e-10
1.34201e-09
-6.01979e-10
1.46069e-09
-5.2872e-10
1.59443e-09
-6.21855e-10
1.67074e-09
-6.87537e-10
1.76626e-09
-6.06651e-10
1.87197e-09
-6.01999e-10
1.91802e-09
-4.78064e-10
2.18477e-09
-7.158e-10
2.19881e-09
-3.98442e-10
2.22914e-09
-3.42659e-10
2.20633e-09
-3.00356e-10
2.24544e-09
-2.23605e-10
2.27931e-09
-1.67518e-10
2.32728e-09
-9.51396e-11
2.28598e-09
-5.34758e-11
2.28543e-09
2.44209e-11
2.27189e-09
9.74651e-11
2.28246e-09
7.26706e-11
2.25844e-09
1.57649e-10
2.23256e-09
2.33527e-10
2.19829e-09
2.96865e-10
2.1415e-09
2.48216e-10
2.12014e-09
3.68856e-10
2.03067e-09
4.3494e-10
1.95509e-09
4.45898e-10
1.85675e-09
5.98185e-10
1.782e-09
6.20792e-10
1.67555e-09
6.58731e-10
1.64163e-09
5.56552e-10
1.56259e-09
5.52904e-10
1.38881e-09
7.10573e-10
1.19881e-09
8.72752e-10
1.19345e-09
1.01027e-09
1.09117e-09
1.31368e-09
1.03751e-09
1.7328e-09
8.86236e-10
2.22258e-09
7.23236e-10
2.86427e-09
3.60842e-10
3.20612e-09
1.30066e-10
2.59239e-09
6.34091e-16
3.1921e-09
-5.01449e-18
5.89825e-18
-5.24518e-18
1.71773e-18
-5.06531e-18
1.07145e-18
-4.78988e-18
4.8631e-19
-4.48686e-18
-6.47624e-20
-4.16244e-18
-5.86509e-19
-3.81015e-18
-1.07457e-18
-3.42412e-18
-1.52036e-18
-3.00206e-18
-1.91544e-18
-2.54599e-18
-2.25157e-18
-2.0616e-18
-2.52168e-18
-1.55742e-18
-2.72057e-18
-1.04398e-18
-2.84534e-18
-5.32803e-19
-2.89563e-18
-3.55977e-20
-2.87367e-18
4.36562e-19
-2.78421e-18
8.73862e-19
-2.63413e-18
1.26821e-18
-2.43199e-18
1.61349e-18
-2.18741e-18
1.90565e-18
-1.91048e-18
2.1426e-18
-1.61121e-18
2.32403e-18
-1.29902e-18
2.45112e-18
-9.82451e-19
2.52627e-18
-6.68887e-19
2.55274e-18
-3.64464e-19
2.53439e-18
-7.40522e-20
2.47541e-18
1.98675e-19
2.38013e-18
4.51127e-19
2.25283e-18
6.81646e-19
2.09767e-18
8.89344e-19
1.91854e-18
1.07394e-18
1.71908e-18
1.23559e-18
1.50262e-18
1.37479e-18
1.27221e-18
1.49218e-18
1.03063e-18
1.58851e-18
7.80415e-19
1.66453e-18
5.23903e-19
1.72089e-18
2.6328e-19
1.75814e-18
1.77666e-18
-2.41958e-10
1.36701e-09
-5.24195e-10
1.31131e-09
-6.46864e-10
1.13065e-09
-7.70204e-10
1.12931e-09
-1.02325e-09
1.10515e-09
-1.19538e-09
8.07992e-10
-1.32082e-09
5.68293e-10
-1.43376e-09
4.42861e-10
-1.58017e-09
3.00007e-10
-1.70328e-09
2.35887e-10
-1.71055e-09
6.92078e-11
-1.7529e-09
-4.64156e-11
-1.79879e-09
-7.96986e-11
-1.80259e-09
-1.65164e-10
-1.78264e-09
-2.39162e-10
-1.72157e-09
-3.11912e-10
-1.63177e-09
-4.27534e-10
-1.71027e-09
-6.30768e-10
-1.54403e-09
-7.04432e-10
-1.36526e-09
-1.19296e-09
-1.31071e-09
-1.31783e-09
-1.14512e-09
-1.52882e-09
-1.10277e-09
-1.64424e-09
-1.08769e-09
-1.72635e-09
-1.06119e-09
-1.81471e-09
-1.02894e-09
-1.83339e-09
-9.92767e-10
-1.72489e-09
-7.29612e-10
-1.69842e-09
-4.58766e-10
-1.69508e-09
-2.03417e-10
-1.43984e-09
9.17458e-11
-1.14734e-09
2.60121e-10
-9.13045e-10
3.83754e-10
-7.91642e-10
4.51782e-10
-6.85286e-10
4.88606e-10
-5.95464e-10
5.52989e-10
-5.93328e-10
6.36612e-10
-6.08276e-10
7.40449e-10
-6.44929e-10
8.63848e-10
-6.62532e-10
9.62254e-10
-6.44889e-10
1.07658e-09
-6.96956e-10
1.19439e-09
-7.1978e-10
1.29878e-09
-6.33111e-10
1.3641e-09
-6.87177e-10
1.45666e-09
-7.80092e-10
1.55516e-09
-7.05149e-10
1.64357e-09
-6.9041e-10
1.7255e-09
-5.5999e-10
1.72053e-09
-7.10831e-10
1.8336e-09
-5.11516e-10
1.89848e-09
-4.07539e-10
1.95853e-09
-3.60403e-10
1.98632e-09
-2.51396e-10
1.9812e-09
-1.62391e-10
2.01331e-09
-1.27248e-10
1.99487e-09
-3.50371e-11
1.99831e-09
2.09814e-11
2.00812e-09
8.76568e-11
1.99521e-09
8.55768e-11
1.99383e-09
1.59031e-10
1.9665e-09
2.60852e-10
1.94798e-09
3.15388e-10
1.87303e-09
3.23169e-10
1.84693e-09
3.9495e-10
1.77097e-09
5.10896e-10
1.67932e-09
5.37552e-10
1.62583e-09
6.51673e-10
1.54484e-09
7.01785e-10
1.45261e-09
7.50958e-10
1.35764e-09
6.51515e-10
1.2961e-09
6.1445e-10
1.23785e-09
7.68821e-10
1.22351e-09
8.87092e-10
1.10156e-09
1.13221e-09
9.22257e-10
1.49298e-09
7.98661e-10
1.85639e-09
6.1863e-10
2.40261e-09
4.0196e-10
3.08094e-09
3.78645e-10
3.22944e-09
1.65976e-10
2.80505e-09
6.84943e-16
3.35807e-09
-5.82081e-18
7.86064e-18
-5.89006e-18
1.78653e-18
-5.6492e-18
8.29505e-19
-5.33985e-18
1.7602e-19
-5.00762e-18
-3.97709e-19
-4.64962e-18
-9.4499e-19
-4.25577e-18
-1.46867e-18
-3.8192e-18
-1.95695e-18
-3.33819e-18
-2.39626e-18
-2.81609e-18
-2.77325e-18
-2.26049e-18
-3.07668e-18
-1.6822e-18
-3.2981e-18
-1.09426e-18
-3.43236e-18
-5.10844e-19
-3.478e-18
5.38636e-20
-3.43723e-18
5.86636e-19
-3.31575e-18
1.076e-18
-3.12222e-18
1.51279e-18
-2.86748e-18
1.89042e-18
-2.56372e-18
2.20493e-18
-2.22366e-18
2.45479e-18
-1.85972e-18
2.64059e-18
-1.48349e-18
2.76469e-18
-1.10521e-18
2.8307e-18
-7.33564e-19
2.84315e-18
-3.75595e-19
2.80711e-18
-3.66967e-20
2.72786e-18
2.79237e-19
2.61064e-18
5.69637e-19
2.46053e-18
8.33042e-19
2.28226e-18
1.06888e-18
2.08019e-18
1.27726e-18
1.85827e-18
1.45876e-18
1.62001e-18
1.61428e-18
1.36855e-18
1.74487e-18
1.10664e-18
1.85163e-18
8.36775e-19
1.93561e-18
5.61152e-19
1.99772e-18
2.818e-19
2.03869e-18
2.05904e-18
-2.80385e-10
1.6474e-09
-6.73828e-10
1.70476e-09
-1.02234e-09
1.47917e-09
-1.15658e-09
1.26355e-09
-1.12841e-09
1.07698e-09
-1.25836e-09
9.37946e-10
-1.44762e-09
7.57555e-10
-1.59104e-09
5.86277e-10
-1.74907e-09
4.58039e-10
-1.8848e-09
3.71619e-10
-1.85567e-09
4.00767e-11
-1.98878e-09
8.66967e-11
-1.993e-09
-7.54856e-11
-1.98142e-09
-1.76741e-10
-1.96913e-09
-2.51449e-10
-1.9137e-09
-3.67346e-10
-1.82645e-09
-5.14782e-10
-1.80235e-09
-6.54867e-10
-1.65813e-09
-8.48647e-10
-1.60081e-09
-1.25028e-09
-1.58663e-09
-1.33201e-09
-1.56018e-09
-1.55527e-09
-1.52603e-09
-1.67839e-09
-1.45501e-09
-1.79736e-09
-1.37606e-09
-1.89366e-09
-1.24076e-09
-1.96869e-09
-9.77862e-10
-1.98779e-09
-7.86913e-10
-1.88937e-09
-7.94497e-10
-1.68749e-09
-6.07247e-10
-1.62709e-09
-3.92842e-10
-1.36175e-09
-2.06231e-10
-1.09965e-09
-4.10633e-11
-9.56808e-10
1.43905e-10
-8.70253e-10
3.23815e-10
-7.75372e-10
4.50394e-10
-7.19905e-10
5.40072e-10
-6.97953e-10
6.01913e-10
-7.06769e-10
6.75187e-10
-7.35804e-10
7.95006e-10
-7.64706e-10
8.69681e-10
-7.7163e-10
9.18423e-10
-7.68521e-10
1.04539e-09
-7.6008e-10
1.11575e-09
-7.57534e-10
1.19326e-09
-8.57597e-10
1.29631e-09
-8.08201e-10
1.36801e-09
-7.62102e-10
1.563e-09
-7.54988e-10
1.52121e-09
-6.69034e-10
1.56903e-09
-5.59335e-10
1.59544e-09
-4.33953e-10
1.65682e-09
-4.21776e-10
1.62695e-09
-2.2153e-10
1.67512e-09
-2.10555e-10
1.73431e-09
-1.86438e-10
1.71674e-09
-1.74723e-11
1.70871e-09
2.9009e-11
1.71914e-09
7.72349e-11
1.68184e-09
1.22874e-10
1.65211e-09
1.88761e-10
1.61777e-09
2.95192e-10
1.62658e-09
3.06577e-10
1.60835e-09
3.41401e-10
1.5745e-09
4.28799e-10
1.54048e-09
5.44917e-10
1.4694e-09
6.08631e-10
1.39824e-09
7.22825e-10
1.31984e-09
7.80185e-10
1.30555e-09
7.65251e-10
1.22088e-09
7.36178e-10
1.05552e-09
7.79815e-10
9.80105e-10
8.44232e-10
9.31296e-10
9.35899e-10
8.53393e-10
1.21011e-09
7.93342e-10
1.55303e-09
6.20054e-10
2.02968e-09
4.42272e-10
2.58039e-09
3.99264e-10
3.12395e-09
4.55867e-10
3.17283e-09
3.43678e-10
2.91724e-09
7.52515e-16
3.70174e-09
-7.90124e-18
5.85481e-18
-6.84566e-18
7.30417e-19
-6.30146e-18
2.84062e-19
-5.9125e-18
-2.14046e-19
-5.55395e-18
-7.57144e-19
-5.17254e-18
-1.32706e-18
-4.744e-18
-1.89762e-18
-4.2585e-18
-2.44261e-18
-3.71518e-18
-2.93949e-18
-3.11952e-18
-3.3686e-18
-2.4819e-18
-3.71378e-18
-1.81646e-18
-3.96282e-18
-1.1399e-18
-4.10804e-18
-4.70075e-19
-4.14678e-18
1.75338e-19
-4.08148e-18
7.8017e-19
-3.91934e-18
1.33075e-18
-3.67148e-18
1.81655e-18
-3.35192e-18
2.23049e-18
-2.97629e-18
2.56886e-18
-2.56066e-18
2.83102e-18
-2.12051e-18
3.01888e-18
-1.66998e-18
3.13633e-18
-1.2213e-18
3.18867e-18
-7.8456e-19
3.18205e-18
-3.67653e-19
3.12305e-18
2.36172e-20
3.01826e-18
3.85321e-19
2.87405e-18
7.15123e-19
2.69637e-18
1.01198e-18
2.49064e-18
1.27586e-18
2.2617e-18
1.50744e-18
2.01379e-18
1.70789e-18
1.7506e-18
1.87868e-18