/*--------------------------------*- C++ -*----------------------------------*\
  =========                 |
  \\      /  F ield         | OpenFOAM: The Open Source CFD Toolbox
   \\    /   O peration     | Website:  https://openfoam.org
    \\  /    A nd           | Version:  6
     \\/     M anipulation  |
\*---------------------------------------------------------------------------*/
FoamFile
{
    version     2.0;
    format      ascii;
    class       volScalarField;
    location    "3500";
    object      T;
}
// * * * * * * * * * * * * * * * * * * * * * * * * * * * * * * * * * * * * * //

dimensions      [0 0 0 1 0 0 0];

internalField   nonuniform List<scalar> 
4800
(
552.449
552.247
552.047
551.85
551.659
551.474
551.296
551.128
550.968
550.817
550.675
550.541
550.415
550.296
550.185
550.08
549.981
549.888
549.8
549.717
549.638
549.563
549.493
549.427
549.364
549.304
549.247
549.192
549.138
549.087
549.037
548.988
548.941
548.894
548.849
548.804
548.76
548.717
548.674
548.633
548.592
548.552
548.513
548.475
548.437
548.401
548.365
548.329
548.294
548.258
548.223
548.188
548.153
548.118
548.083
548.047
548.01
547.973
547.934
547.895
547.853
547.81
547.764
547.715
547.663
547.607
547.547
547.481
547.41
547.332
547.247
547.153
547.05
546.936
546.811
546.673
546.524
546.363
546.192
546.013
545.83
545.648
545.474
545.305
545.141
544.982
544.827
544.675
544.527
544.382
544.24
544.1
543.962
543.826
543.692
543.56
543.429
543.299
543.171
543.043
542.916
542.791
542.666
542.541
542.418
542.295
542.172
542.05
541.929
541.807
541.687
541.566
541.446
541.326
541.206
541.087
540.967
540.848
540.729
540.61
552.448
552.244
552.042
551.845
551.653
551.468
551.291
551.122
550.963
550.812
550.67
550.536
550.41
550.291
550.18
550.075
549.976
549.882
549.794
549.71
549.631
549.556
549.486
549.419
549.355
549.295
549.238
549.182
549.129
549.077
549.027
548.978
548.931
548.884
548.839
548.794
548.75
548.706
548.664
548.622
548.581
548.541
548.503
548.464
548.427
548.39
548.354
548.319
548.284
548.249
548.214
548.18
548.145
548.11
548.074
548.039
548.002
547.965
547.927
547.887
547.845
547.802
547.756
547.707
547.654
547.598
547.537
547.471
547.4
547.321
547.236
547.142
547.039
546.925
546.8
546.662
546.511
546.348
546.175
545.998
545.819
545.641
545.468
545.3
545.137
544.978
544.823
544.672
544.524
544.38
544.238
544.098
543.96
543.825
543.691
543.559
543.428
543.298
543.17
543.042
542.915
542.79
542.665
542.541
542.417
542.294
542.172
542.05
541.928
541.807
541.686
541.566
541.446
541.326
541.206
541.087
540.967
540.848
540.729
540.61
552.446
552.24
552.037
551.838
551.645
551.46
551.282
551.114
550.954
550.803
550.661
550.527
550.401
550.282
550.17
550.064
549.964
549.87
549.781
549.696
549.617
549.541
549.47
549.402
549.338
549.278
549.22
549.164
549.11
549.059
549.008
548.959
548.911
548.864
548.819
548.774
548.729
548.686
548.644
548.602
548.561
548.521
548.482
548.444
548.407
548.37
548.334
548.299
548.265
548.23
548.196
548.162
548.128
548.093
548.058
548.023
547.987
547.949
547.911
547.871
547.829
547.786
547.739
547.69
547.637
547.581
547.519
547.453
547.381
547.302
547.216
547.121
547.018
546.904
546.779
546.642
546.492
546.331
546.161
545.985
545.807
545.63
545.458
545.291
545.129
544.97
544.816
544.666
544.519
544.374
544.233
544.094
543.956
543.821
543.688
543.556
543.425
543.296
543.167
543.04
542.914
542.788
542.664
542.539
542.416
542.293
542.171
542.049
541.927
541.806
541.686
541.565
541.445
541.325
541.206
541.086
540.967
540.848
540.729
540.61
552.445
552.236
552.031
551.83
551.636
551.449
551.272
551.103
550.943
550.792
550.649
550.514
550.387
550.268
550.155
550.048
549.947
549.852
549.762
549.676
549.596
549.52
549.447
549.379
549.314
549.252
549.194
549.138
549.084
549.031
548.981
548.931
548.883
548.836
548.79
548.745
548.701
548.657
548.615
548.573
548.532
548.492
548.453
548.415
548.378
548.341
548.306
548.271
548.237
548.203
548.17
548.136
548.103
548.069
548.034
547.999
547.963
547.926
547.888
547.848
547.807
547.763
547.716
547.666
547.613
547.556
547.494
547.427
547.354
547.274
547.188
547.093
546.989
546.876
546.752
546.616
546.469
546.31
546.142
545.968
545.791
545.614
545.443
545.277
545.116
544.959
544.806
544.656
544.51
544.367
544.226
544.087
543.951
543.816
543.683
543.552
543.421
543.292
543.164
543.037
542.911
542.786
542.661
542.538
542.414
542.292
542.169
542.048
541.926
541.805
541.685
541.565
541.445
541.325
541.205
541.086
540.967
540.848
540.729
540.609
552.444
552.233
552.025
551.822
551.626
551.438
551.259
551.089
550.928
550.776
550.632
550.497
550.37
550.249
550.135
550.028
549.926
549.83
549.738
549.652
549.57
549.492
549.419
549.349
549.283
549.22
549.161
549.104
549.049
548.996
548.945
548.896
548.847
548.8
548.754
548.708
548.664
548.621
548.578
548.536
548.495
548.456
548.417
548.379
548.342
548.306
548.27
548.236
548.203
548.169
548.137
548.104
548.071
548.037
548.003
547.969
547.933
547.897
547.858
547.819
547.777
547.733
547.686
547.636
547.582
547.524
547.462
547.394
547.32
547.24
547.153
547.057
546.954
546.841
546.718
546.584
546.439
546.283
546.117
545.945
545.769
545.594
545.424
545.259
545.099
544.943
544.792
544.643
544.498
544.356
544.216
544.079
543.943
543.809
543.677
543.546
543.416
543.288
543.16
543.034
542.908
542.783
542.659
542.535
542.412
542.29
542.168
542.046
541.925
541.804
541.684
541.564
541.444
541.324
541.205
541.085
540.966
540.847
540.728
540.609
552.442
552.228
552.018
551.814
551.616
551.426
551.246
551.074
550.912
550.758
550.614
550.478
550.35
550.229
550.114
550.005
549.903
549.805
549.713
549.625
549.542
549.462
549.387
549.316
549.248
549.184
549.123
549.065
549.009
548.955
548.903
548.853
548.804
548.757
548.71
548.665
548.621
548.577
548.534
548.493
548.452
548.412
548.374
548.336
548.299
548.264
548.229
548.195
548.162
548.13
548.097
548.065
548.033
548
547.966
547.932
547.897
547.861
547.823
547.783
547.741
547.697
547.65
547.599
547.545
547.487
547.423
547.355
547.28
547.199
547.111
547.016
546.912
546.8
546.678
546.545
546.402
546.248
546.084
545.914
545.741
545.568
545.4
545.236
545.078
544.924
544.774
544.628
544.484
544.343
544.205
544.068
543.934
543.801
543.67
543.539
543.41
543.282
543.155
543.029
542.904
542.779
542.655
542.532
542.409
542.287
542.166
542.044
541.923
541.803
541.682
541.563
541.443
541.323
541.204
541.085
540.966
540.847
540.728
540.609
552.441
552.225
552.012
551.805
551.605
551.414
551.232
551.059
550.895
550.741
550.595
550.459
550.329
550.207
550.092
549.983
549.879
549.78
549.686
549.597
549.512
549.431
549.353
549.279
549.209
549.142
549.079
549.02
548.963
548.909
548.857
548.806
548.757
548.709
548.662
548.616
548.571
548.528
548.485
548.444
548.403
548.364
548.326
548.288
548.252
548.217
548.183
548.149
548.117
548.085
548.053
548.021
547.989
547.957
547.924
547.89
547.856
547.82
547.782
547.742
547.7
547.656
547.608
547.557
547.503
547.443
547.379
547.31
547.234
547.153
547.064
546.969
546.865
546.753
546.632
546.501
546.36
546.208
546.047
545.88
545.709
545.537
545.37
545.209
545.053
544.901
544.753
544.609
544.467
544.328
544.191
544.056
543.923
543.791
543.661
543.531
543.403
543.276
543.15
543.024
542.899
542.775
542.652
542.529
542.406
542.284
542.163
542.042
541.921
541.801
541.681
541.561
541.442
541.322
541.203
541.084
540.965
540.847
540.728
540.609
552.44
552.222
552.008
551.798
551.597
551.403
551.219
551.044
550.88
550.724
550.578
550.44
550.31
550.187
550.071
549.961
549.856
549.756
549.661
549.57
549.482
549.398
549.318
549.241
549.168
549.099
549.034
548.973
548.914
548.859
548.806
548.755
548.705
548.657
548.609
548.563
548.518
548.474
548.432
548.39
548.35
548.311
548.273
548.236
548.2
548.166
548.132
548.099
548.067
548.036
548.004
547.973
547.942
547.91
547.878
547.844
547.81
547.774
547.736
547.697
547.655
547.61
547.562
547.511
547.455
547.395
547.331
547.261
547.184
547.102
547.013
546.917
546.813
546.702
546.582
546.453
546.314
546.165
546.007
545.841
545.672
545.501
545.336
545.177
545.023
544.874
544.729
544.587
544.448
544.311
544.176
544.042
543.911
543.78
543.651
543.522
543.395
543.269
543.143
543.018
542.894
542.77
542.647
542.525
542.403
542.281
542.16
542.039
541.919
541.799
541.679
541.559
541.44
541.321
541.202
541.083
540.965
540.846
540.728
540.609
552.439
552.219
552.002
551.791
551.588
551.394
551.208
551.033
550.867
550.711
550.564
550.425
550.294
550.171
550.054
549.942
549.836
549.734
549.637
549.544
549.454
549.367
549.284
549.204
549.128
549.056
548.988
548.925
548.864
548.808
548.753
548.701
548.651
548.602
548.554
548.507
548.462
548.418
548.375
548.334
548.293
548.255
548.217
548.18
548.145
548.111
548.078
548.046
548.014
547.983
547.953
547.922
547.891
547.86
547.828
547.795
547.761
547.725
547.687
547.648
547.605
547.56
547.512
547.46
547.404
547.344
547.278
547.207
547.131
547.047
546.958
546.861
546.758
546.647
546.528
546.401
546.263
546.117
545.961
545.797
545.63
545.459
545.296
545.139
544.989
544.843
544.701
544.563
544.426
544.291
544.159
544.027
543.897
543.768
543.639
543.512
543.386
543.26
543.135
543.011
542.888
542.765
542.642
542.52
542.399
542.277
542.157
542.036
541.916
541.796
541.677
541.558
541.439
541.32
541.201
541.083
540.964
540.846
540.727
540.609
552.438
552.216
551.997
551.785
551.581
551.386
551.2
551.024
550.858
550.701
550.554
550.415
550.283
550.159
550.041
549.928
549.82
549.717
549.617
549.521
549.428
549.339
549.253
549.17
549.091
549.016
548.945
548.879
548.816
548.756
548.7
548.647
548.595
548.545
548.496
548.449
548.403
548.359
548.316
548.274
548.234
548.196
548.158
548.122
548.087
548.054
548.021
547.99
547.959
547.929
547.899
547.869
547.839
547.808
547.776
547.744
547.71
547.674
547.636
547.596
547.553
547.508
547.459
547.406
547.35
547.289
547.223
547.151
547.074
546.99
546.9
546.803
546.7
546.59
546.472
546.345
546.209
546.065
545.91
545.748
545.581
545.41
545.248
545.096
544.95
544.809
544.671
544.536
544.402
544.271
544.14
544.01
543.882
543.754
543.627
543.501
543.376
543.251
543.127
543.004
542.881
542.759
542.637
542.515
542.394
542.273
542.153
542.033
541.913
541.794
541.675
541.556
541.437
541.318
541.2
541.082
540.963
540.845
540.727
540.609
552.438
552.215
551.996
551.784
551.579
551.383
551.197
551.02
550.854
550.697
550.55
550.41
550.278
550.153
550.034
549.919
549.81
549.704
549.602
549.504
549.408
549.316
549.226
549.14
549.058
548.979
548.905
548.835
548.769
548.707
548.648
548.593
548.539
548.487
548.438
548.389
548.343
548.298
548.254
548.213
548.173
548.135
548.098
548.063
548.029
547.996
547.964
547.933
547.903
547.873
547.844
547.814
547.785
547.754
547.723
547.691
547.657
547.621
547.583
547.543
547.5
547.453
547.404
547.35
547.293
547.231
547.165
547.093
547.015
546.931
546.84
546.743
546.64
546.53
546.413
546.287
546.152
546.008
545.854
545.691
545.523
545.351
545.192
545.045
544.906
544.771
544.638
544.507
544.377
544.248
544.12
543.993
543.866
543.74
543.614
543.49
543.365
543.242
543.118
542.996
542.874
542.752
542.631
542.51
542.389
542.269
542.149
542.03
541.91
541.791
541.672
541.554
541.435
541.317
541.199
541.081
540.963
540.845
540.727
540.609
552.438
552.217
551.998
551.785
551.58
551.384
551.198
551.022
550.856
550.7
550.552
550.413
550.28
550.154
550.034
549.918
549.806
549.699
549.595
549.493
549.395
549.299
549.206
549.116
549.03
548.948
548.869
548.796
548.726
548.66
548.599
548.54
548.484
548.43
548.379
548.329
548.282
548.236
548.192
548.151
548.111
548.074
548.038
548.003
547.97
547.937
547.906
547.876
547.846
547.818
547.789
547.76
547.731
547.701
547.67
547.638
547.604
547.569
547.53
547.489
547.445
547.398
547.348
547.294
547.235
547.173
547.106
547.033
546.954
546.87
546.779
546.683
546.579
546.469
546.352
546.226
546.092
545.947
545.791
545.625
545.453
545.278
545.125
544.988
544.857
544.73
544.603
544.477
544.351
544.225
544.099
543.974
543.849
543.725
543.601
543.477
543.354
543.231
543.109
542.987
542.866
542.745
542.624
542.504
542.384
542.264
542.145
542.026
541.907
541.788
541.67
541.551
541.433
541.315
541.197
541.079
540.962
540.844
540.726
540.609
552.438
552.216
551.998
551.786
551.582
551.388
551.203
551.029
550.865
550.71
550.563
550.423
550.291
550.164
550.042
549.925
549.811
549.701
549.594
549.49
549.389
549.29
549.193
549.1
549.009
548.922
548.84
548.762
548.688
548.618
548.552
548.49
548.431
548.375
548.321
548.27
548.221
548.174
548.13
548.089
548.05
548.013
547.977
547.944
547.911
547.88
547.85
547.82
547.791
547.763
547.735
547.707
547.678
547.649
547.618
547.586
547.552
547.516
547.478
547.436
547.391
547.344
547.292
547.237
547.177
547.114
547.045
546.972
546.893
546.808
546.718
546.621
546.518
546.408
546.291
546.165
546.03
545.884
545.724
545.551
545.369
545.181
545.043
544.923
544.806
544.688
544.568
544.447
544.325
544.202
544.078
543.955
543.832
543.709
543.586
543.464
543.342
543.221
543.099
542.979
542.858
542.738
542.618
542.498
542.379
542.26
542.141
542.022
541.903
541.785
541.667
541.549
541.431
541.313
541.196
541.078
540.961
540.843
540.726
540.609
552.439
552.219
552.003
551.794
551.592
551.398
551.215
551.043
550.88
550.727
550.581
550.442
550.309
550.181
550.059
549.94
549.824
549.712
549.603
549.496
549.391
549.289
549.188
549.09
548.995
548.904
548.817
548.734
548.655
548.581
548.511
548.444
548.381
548.322
548.265
548.212
548.161
548.114
548.069
548.028
547.989
547.953
547.919
547.886
547.855
547.824
547.795
547.767
547.738
547.711
547.683
547.655
547.627
547.598
547.567
547.535
547.501
547.465
547.426
547.384
547.338
547.289
547.237
547.18
547.12
547.055
546.986
546.912
546.832
546.747
546.657
546.56
546.457
546.348
546.23
546.105
545.969
545.82
545.655
545.471
545.264
545.037
544.944
544.856
544.757
544.649
544.535
544.418
544.299
544.178
544.057
543.936
543.814
543.693
543.572
543.451
543.33
543.209
543.089
542.969
542.85
542.73
542.611
542.492
542.373
542.254
542.136
542.018
541.9
541.782
541.664
541.546
541.429
541.312
541.194
541.077
540.96
540.843
540.726
540.609
552.441
552.223
552.01
551.802
551.603
551.413
551.234
551.064
550.904
550.752
550.607
550.469
550.336
550.208
550.084
549.964
549.846
549.732
549.62
549.51
549.402
549.296
549.191
549.089
548.99
548.893
548.8
548.712
548.629
548.55
548.474
548.403
548.335
548.272
548.212
548.157
548.104
548.056
548.011
547.969
547.931
547.895
547.862
547.831
547.801
547.772
547.744
547.716
547.689
547.662
547.634
547.607
547.578
547.549
547.519
547.486
547.452
547.415
547.376
547.333
547.287
547.237
547.183
547.126
547.064
546.998
546.928
546.853
546.773
546.688
546.597
546.5
546.397
546.288
546.172
546.046
545.91
545.76
545.592
545.397
545.149
544.759
544.841
544.799
544.716
544.615
544.505
544.391
544.274
544.156
544.037
543.917
543.797
543.677
543.557
543.437
543.317
543.198
543.079
542.96
542.841
542.722
542.604
542.485
542.367
542.249
542.131
542.014
541.896
541.778
541.661
541.544
541.427
541.31
541.193
541.076
540.959
540.842
540.725
540.608
552.442
552.228
552.019
551.815
551.62
551.435
551.26
551.093
550.935
550.785
550.641
550.504
550.371
550.243
550.117
549.995
549.876
549.759
549.644
549.531
549.42
549.31
549.202
549.095
548.99
548.889
548.791
548.697
548.607
548.523
548.443
548.367
548.294
548.227
548.164
548.105
548.051
548
547.955
547.913
547.875
547.84
547.808
547.779
547.75
547.723
547.696
547.669
547.643
547.616
547.589
547.562
547.533
547.504
547.473
547.44
547.405
547.368
547.327
547.284
547.237
547.186
547.132
547.073
547.011
546.944
546.872
546.797
546.716
546.63
546.539
546.443
546.34
546.232
546.115
545.991
545.856
545.709
545.546
545.362
545.155
544.94
544.864
544.785
544.692
544.589
544.48
544.367
544.251
544.134
544.016
543.898
543.779
543.66
543.542
543.423
543.305
543.186
543.068
542.95
542.832
542.714
542.596
542.479
542.361
542.244
542.126
542.009
541.892
541.775
541.658
541.541
541.424
541.308
541.191
541.074
540.958
540.841
540.725
540.608
552.445
552.237
552.032
551.835
551.645
551.464
551.293
551.13
550.975
550.826
550.684
550.547
550.414
550.284
550.157
550.033
549.911
549.792
549.674
549.558
549.443
549.329
549.216
549.105
548.996
548.89
548.786
548.687
548.591
548.502
548.416
548.335
548.258
548.186
548.12
548.058
548.001
547.949
547.903
547.86
547.823
547.789
547.758
547.729
547.703
547.677
547.652
547.626
547.601
547.575
547.549
547.521
547.493
547.463
547.431
547.398
547.362
547.323
547.282
547.238
547.19
547.139
547.083
547.024
546.961
546.893
546.82
546.744
546.663
546.577
546.486
546.389
546.287
546.179
546.064
545.941
545.809
545.666
545.512
545.346
545.173
545.01
544.891
544.785
544.679
544.57
544.459
544.345
544.23
544.113
543.996
543.879
543.761
543.644
543.526
543.409
543.292
543.174
543.057
542.94
542.823
542.706
542.589
542.472
542.355
542.238
542.121
542.005
541.888
541.772
541.655
541.539
541.422
541.306
541.189
541.073
540.957
540.841
540.724
540.608
552.449
552.247
552.049
551.858
551.674
551.499
551.332
551.172
551.02
550.874
550.733
550.596
550.463
550.332
550.203
550.077
549.953
549.83
549.709
549.59
549.471
549.352
549.235
549.119
549.005
548.893
548.785
548.68
548.579
548.484
548.394
548.308
548.227
548.151
548.08
548.016
547.957
547.903
547.855
547.813
547.775
547.741
547.712
547.685
547.66
547.636
547.613
547.589
547.564
547.539
547.513
547.485
547.457
547.426
547.394
547.359
547.322
547.283
547.241
547.195
547.147
547.094
547.038
546.978
546.914
546.845
546.772
546.695
546.613
546.527
546.436
546.339
546.237
546.13
546.016
545.896
545.768
545.631
545.486
545.335
545.182
545.034
544.904
544.784
544.669
544.555
544.44
544.325
544.209
544.093
543.976
543.86
543.744
543.627
543.511
543.395
543.278
543.162
543.046
542.93
542.814
542.697
542.581
542.465
542.349
542.233
542.116
542
541.884
541.768
541.652
541.536
541.42
541.304
541.188
541.072
540.956
540.84
540.724
540.608
552.452
552.258
552.068
551.884
551.706
551.537
551.375
551.22
551.071
550.927
550.787
550.65
550.516
550.384
550.254
550.125
549.999
549.873
549.749
549.626
549.502
549.379
549.256
549.134
549.015
548.898
548.785
548.675
548.569
548.468
548.374
548.285
548.199
548.12
548.046
547.979
547.917
547.862
547.813
547.77
547.732
547.7
547.671
547.645
547.622
547.601
547.579
547.557
547.534
547.509
547.484
547.456
547.427
547.395
547.362
547.326
547.287
547.247
547.203
547.156
547.107
547.054
546.997
546.936
546.871
546.802
546.728
546.65
546.568
546.481
546.39
546.293
546.192
546.085
545.973
545.855
545.731
545.6
545.464
545.322
545.179
545.038
544.905
544.78
544.658
544.54
544.422
544.305
544.189
544.073
543.957
543.841
543.726
543.61
543.495
543.38
543.265
543.15
543.035
542.92
542.804
542.689
542.574
542.458
542.343
542.227
542.112
541.996
541.88
541.765
541.649
541.533
541.418
541.302
541.186
541.071
540.955
540.839
540.723
540.608
552.456
552.27
552.088
551.91
551.74
551.576
551.419
551.268
551.122
550.98
550.841
550.705
550.571
550.438
550.307
550.177
550.048
549.92
549.793
549.665
549.536
549.407
549.278
549.149
549.024
548.902
548.783
548.669
548.558
548.454
548.356
548.264
548.176
548.093
548.016
547.946
547.883
547.826
547.776
547.732
547.695
547.663
547.636
547.612
547.591
547.572
547.552
547.532
547.51
547.486
547.46
547.433
547.402
547.37
547.335
547.297
547.257
547.215
547.169
547.121
547.07
547.016
546.958
546.896
546.831
546.761
546.687
546.609
546.526
546.438
546.347
546.251
546.15
546.045
545.934
545.818
545.698
545.572
545.441
545.306
545.17
545.033
544.899
544.771
544.646
544.524
544.404
544.286
544.169
544.052
543.937
543.822
543.708
543.593
543.479
543.365
543.252
543.138
543.023
542.909
542.795
542.681
542.566
542.451
542.337
542.222
542.107
541.992
541.876
541.761
541.646
541.531
541.415
541.3
541.185
541.069
540.954
540.838
540.723
540.608
552.461
552.283
552.108
551.938
551.774
551.616
551.463
551.316
551.173
551.033
550.895
550.76
550.626
550.494
550.362
550.232
550.101
549.971
549.839
549.707
549.572
549.436
549.3
549.164
549.031
548.902
548.778
548.658
548.545
548.438
548.338
548.244
548.154
548.07
547.991
547.919
547.853
547.795
547.744
547.7
547.663
547.632
547.606
547.585
547.566
547.549
547.532
547.514
547.493
547.47
547.445
547.416
547.385
547.351
547.314
547.274
547.231
547.186
547.139
547.088
547.036
546.98
546.921
546.858
546.792
546.721
546.647
546.568
546.485
546.397
546.305
546.209
546.109
546.005
545.896
545.783
545.665
545.543
545.418
545.289
545.158
545.023
544.889
544.758
544.631
544.506
544.385
544.265
544.148
544.031
543.917
543.803
543.689
543.576
543.463
543.351
543.238
543.125
543.012
542.899
542.786
542.672
542.559
542.445
542.33
542.216
542.102
541.987
541.873
541.758
541.643
541.528
541.413
541.298
541.183
541.068
540.953
540.838
540.723
540.608
552.465
552.295
552.128
551.965
551.807
551.654
551.506
551.362
551.222
551.084
550.949
550.815
550.683
550.551
550.42
550.289
550.158
550.024
549.889
549.751
549.611
549.468
549.323
549.179
549.038
548.901
548.77
548.645
548.527
548.419
548.319
548.224
548.134
548.049
547.969
547.895
547.828
547.768
547.716
547.672
547.635
547.605
547.582
547.564
547.548
547.535
547.52
547.504
547.485
547.463
547.437
547.408
547.375
547.338
547.298
547.255
547.209
547.16
547.109
547.056
547.001
546.943
546.882
546.818
546.751
546.679
546.604
546.525
546.441
546.353
546.261
546.165
546.066
545.963
545.857
545.746
545.632
545.514
545.392
545.267
545.139
545.007
544.873
544.742
544.612
544.486
544.363
544.243
544.125
544.009
543.895
543.782
543.67
543.559
543.447
543.336
543.225
543.113
543.001
542.889
542.777
542.664
542.551
542.438
542.325
542.211
542.097
541.983
541.869
541.755
541.64
541.526
541.411
541.296
541.182
541.067
540.952
540.837
540.722
540.607
552.469
552.307
552.147
551.991
551.839
551.691
551.547
551.407
551.27
551.136
551.003
550.872
550.741
550.612
550.482
550.351
550.218
550.081
549.941
549.798
549.651
549.501
549.348
549.195
549.045
548.9
548.76
548.628
548.507
548.398
548.298
548.204
548.115
548.031
547.951
547.876
547.808
547.746
547.693
547.648
547.613
547.585
547.564
547.549
547.538
547.528
547.517
547.503
547.485
547.464
547.438
547.407
547.371
547.331
547.286
547.238
547.187
547.134
547.078
547.021
546.962
546.901
546.838
546.772
546.703
546.63
546.553
546.473
546.389
546.3
546.208
546.113
546.015
545.915
545.811
545.704
545.594
545.48
545.363
545.242
545.118
544.989
544.855
544.722
544.591
544.463
544.339
544.219
544.101
543.986
543.873
543.762
543.651
543.541
543.431
543.321
543.211
543.101
542.99
542.879
542.768
542.656
542.544
542.432
542.319
542.206
542.093
541.979
541.865
541.751
541.637
541.523
541.409
541.295
541.18
541.066
540.951
540.837
540.722
540.607
552.473
552.318
552.166
552.016
551.869
551.727
551.588
551.453
551.319
551.189
551.06
550.931
550.804
550.676
550.548
550.417
550.283
550.143
549.999
549.851
549.699
549.541
549.378
549.214
549.055
548.902
548.754
548.615
548.489
548.377
548.278
548.187
548.1
548.017
547.939
547.864
547.794
547.731
547.676
547.631
547.595
547.569
547.552
547.541
547.534
547.529
547.521
547.51
547.494
547.473
547.447
547.414
547.374
547.328
547.277
547.222
547.163
547.103
547.041
546.977
546.913
546.848
546.781
546.712
546.641
546.566
546.488
546.406
546.321
546.232
546.141
546.046
545.95
545.852
545.752
545.65
545.546
545.439
545.328
545.213
545.095
544.968
544.835
544.7
544.567
544.437
544.312
544.191
544.074
543.961
543.85
543.74
543.631
543.523
543.415
543.307
543.198
543.089
542.98
542.87
542.76
542.649
542.538
542.426
542.314
542.201
542.088
541.975
541.862
541.749
541.635
541.521
541.407
541.293
541.179
541.065
540.95
540.836
540.722
540.607
552.476
552.328
552.183
552.039
551.899
551.762
551.629
551.499
551.371
551.245
551.121
550.997
550.873
550.749
550.623
550.493
550.358
550.215
550.067
549.914
549.754
549.587
549.414
549.24
549.072
548.91
548.754
548.609
548.478
548.364
548.264
548.174
548.09
548.012
547.935
547.86
547.789
547.724
547.666
547.619
547.584
547.56
547.545
547.539
547.537
547.537
547.533
547.525
547.511
547.491
547.464
547.427
547.382
547.328
547.268
547.202
547.133
547.062
546.99
546.918
546.845
546.773
546.701
546.629
546.556
546.48
546.401
546.316
546.231
546.142
546.052
545.958
545.863
545.766
545.672
545.578
545.483
545.385
545.284
545.178
545.067
544.945
544.813
544.675
544.537
544.406
544.28
544.16
544.045
543.934
543.825
543.717
543.611
543.505
543.398
543.292
543.185
543.078
542.97
542.861
542.752
542.642
542.531
542.42
542.309
542.197
542.085
541.972
541.859
541.746
541.633
541.519
541.405
541.291
541.178
541.064
540.95
540.835
540.721
540.607
552.479
552.338
552.198
552.062
551.928
551.799
551.672
551.549
551.428
551.308
551.19
551.071
550.952
550.833
550.71
550.581
550.444
550.297
550.144
549.984
549.817
549.64
549.456
549.272
549.097
548.928
548.766
548.616
548.481
548.362
548.26
548.17
548.091
548.018
547.942
547.868
547.797
547.728
547.667
547.616
547.58
547.556
547.542
547.541
547.545
547.55
547.55
547.543
547.532
547.512
547.484
547.444
547.391
547.325
547.252
547.173
547.091
547.007
546.919
546.835
546.748
546.669
546.59
546.515
546.44
546.364
546.286
546.2
546.116
546.026
545.941
545.842
545.749
545.651
545.567
545.477
545.395
545.313
545.228
545.136
545.035
544.921
544.798
544.645
544.501
544.368
544.243
544.125
544.012
543.904
543.798
543.694
543.59
543.486
543.382
543.278
543.173
543.067
542.96
542.853
542.744
542.635
542.525
542.415
542.304
542.193
542.081
541.969
541.856
541.743
541.63
541.517
541.404
541.29
541.176
541.063
540.949
540.835
540.721
540.607
552.482
552.346
552.213
552.084
551.958
551.837
551.719
551.605
551.493
551.382
551.271
551.159
551.046
550.931
550.812
550.684
550.544
550.391
550.231
550.065
549.89
549.702
549.507
549.316
549.136
548.96
548.792
548.643
548.502
548.376
548.271
548.171
548.102
548.041
547.962
547.889
547.823
547.746
547.679
547.622
547.583
547.559
547.541
547.546
547.555
547.562
547.567
547.556
547.549
547.529
547.502
547.454
547.394
547.308
547.219
547.121
547.024
546.927
546.809
546.718
546.609
546.525
546.44
546.359
546.293
546.213
546.147
546.051
545.986
545.879
545.801
545.696
545.62
545.5
545.465
545.343
545.272
545.213
545.154
545.088
545.005
544.9
544.766
544.605
544.454
544.322
544.198
544.084
543.976
543.872
543.77
543.669
543.569
543.468
543.367
543.265
543.161
543.057
542.951
542.845
542.738
542.629
542.52
542.41
542.3
542.189
542.078
541.966
541.854
541.741
541.629
541.516
541.402
541.289
541.176
541.062
540.948
540.835
540.721
540.607
552.484
552.354
552.228
552.107
551.992
551.882
551.775
551.672
551.57
551.469
551.367
551.263
551.157
551.047
550.931
550.802
550.657
550.497
550.328
550.156
549.975
549.774
549.57
549.383
549.196
549.01
548.835
548.702
548.551
548.412
548.303
548.185
548.075
547.992
547.907
547.83
547.771
547.714
547.668
547.626
547.6
547.587
547.574
547.573
547.569
547.568
547.568
547.563
547.56
547.535
547.496
547.441
547.387
547.308
547.234
547.15
547.055
546.951
546.838
546.718
546.601
546.488
546.39
546.276
546.174
546.092
545.985
545.862
545.764
545.664
545.559
545.457
545.333
545.239
545.174
545.125
545.079
545.01
544.976
544.991
544.964
544.893
544.751
544.512
544.386
544.266
544.144
544.036
543.935
543.838
543.741
543.645
543.548
543.451
543.352
543.252
543.151
543.048
542.944
542.838
542.732
542.624
542.516
542.406
542.297
542.186
542.075
541.964
541.852
541.739
541.627
541.514
541.401
541.288
541.175
541.061
540.948
540.834
540.721
540.607
552.486
552.361
552.243
552.134
552.035
551.939
551.844
551.752
551.661
551.573
551.482
551.386
551.286
551.181
551.066
550.934
550.788
550.614
550.431
550.255
550.081
549.864
549.65
549.502
549.301
549.1
548.927
548.755
548.581
548.431
548.299
548.188
548.067
547.971
547.893
547.813
547.766
547.717
547.689
547.652
547.636
547.624
547.612
547.61
547.605
547.601
547.596
547.586
547.569
547.545
547.51
547.458
547.408
547.333
547.26
547.168
547.072
546.954
546.845
546.731
546.647
546.566
546.477
546.381
546.256
546.182
546.037
545.897
545.775
545.65
545.566
545.457
545.323
545.232
545.158
545.108
545.067
545.031
545.01
544.994
544.952
544.886
544.751
544.472
544.341
544.183
544.076
543.982
543.892
543.803
543.712
543.62
543.528
543.434
543.339
543.241
543.141
543.04
542.937
542.832
542.727
542.62
542.512
542.403
542.294
542.184
542.073
541.962
541.85
541.738
541.626
541.513
541.4
541.287
541.174
541.061
540.947
540.834
540.72
540.607
552.488
552.369
552.262
552.174
552.104
552.025
551.934
551.849
551.766
551.694
551.614
551.528
551.435
551.338
551.222
551.082
550.95
550.748
550.536
550.365
550.205
549.977
549.781
549.652
549.488
549.287
549.071
548.854
548.636
548.459
548.317
548.181
548.081
547.991
547.938
547.861
547.832
547.779
547.764
547.715
547.709
547.677
547.657
547.634
547.641
547.625
547.615
547.614
547.588
547.562
547.501
547.46
547.388
547.307
547.213
547.123
547.028
546.948
546.903
546.873
546.823
546.711
546.569
546.436
546.276
546.163
546.034
545.898
545.769
545.656
545.55
545.437
545.318
545.233
545.165
545.112
545.072
545.042
545.013
544.976
544.922
544.843
544.647
544.342
544.251
544.119
544.005
543.924
543.848
543.769
543.684
543.597
543.51
543.42
543.327
543.232
543.134
543.034
542.932
542.828
542.723
542.616
542.509
542.401
542.291
542.182
542.071
541.96
541.849
541.737
541.625
541.512
541.399
541.287
541.173
541.06
540.947
540.834
540.72
540.607
552.488
552.374
552.284
552.23
552.224
552.15
552.055
551.98
551.876
551.823
551.745
551.677
551.612
551.551
551.428
551.224
551.11
550.901
550.674
550.517
550.381
550.16
550.003
549.902
549.788
549.566
549.296
549.005
548.77
548.55
548.402
548.223
548.143
548.079
548.042
547.989
547.973
547.928
547.898
547.833
547.78
547.722
547.68
547.621
547.636
547.615
547.647
547.656
547.61
547.562
547.487
547.448
547.396
547.352
547.291
547.214
547.149
547.076
547.011
546.936
546.84
546.719
546.576
546.442
546.298
546.171
546.036
545.898
545.767
545.644
545.527
545.413
545.311
545.232
545.168
545.115
545.072
545.035
544.996
544.943
544.869
544.739
544.537
544.3
544.151
544.041
543.959
543.87
543.809
543.74
543.658
543.574
543.493
543.408
543.319
543.225
543.129
543.029
542.928
542.825
542.72
542.614
542.507
542.399
542.29
542.18
542.07
541.959
541.848
541.736
541.624
541.512
541.399
541.286
541.173
541.06