/*--------------------------------*- C++ -*----------------------------------*\
  =========                 |
  \\      /  F ield         | OpenFOAM: The Open Source CFD Toolbox
   \\    /   O peration     | Website:  https://openfoam.org
    \\  /    A nd           | Version:  6
     \\/     M anipulation  |
\*---------------------------------------------------------------------------*/
FoamFile
{
    version     2.0;
    format      ascii;
    class       volVectorField;
    location    "3500";
    object      U;
}
// * * * * * * * * * * * * * * * * * * * * * * * * * * * * * * * * * * * * * //

dimensions      [0 1 -1 0 0 0 0];

internalField   nonuniform List<vector> 
4800
(
(-3.10841e-05 0 -0.000166552)
(0.000123748 0 -0.00023102)
(7.22098e-05 0 -0.000261099)
(3.85299e-05 0 -0.000224927)
(-6.45342e-05 0 -0.000256246)
(-7.2137e-05 0 -0.000204742)
(-0.000115292 0 -0.000135475)
(-0.000139817 0 -8.69408e-05)
(-0.000174481 0 -4.93291e-05)
(-0.000178547 0 -2.77689e-05)
(-0.000155692 0 4.72768e-06)
(-0.00015357 0 -3.88796e-06)
(-0.000201208 0 1.13277e-05)
(-0.000229289 0 6.06333e-06)
(-0.000175088 0 -6.01218e-05)
(-9.31798e-05 0 -7.75916e-05)
(-4.64328e-05 0 -7.14872e-05)
(-2.96269e-05 0 6.97979e-05)
(9.33076e-06 0 -8.79578e-06)
(-9.4421e-06 0 -7.4762e-05)
(8.11769e-05 0 -5.28231e-05)
(3.96848e-05 0 -0.000245303)
(0.000237205 0 -0.000162583)
(0.000326316 0 -0.000152441)
(0.000456715 0 -0.000156279)
(0.000625988 0 -2.15724e-06)
(0.000658953 0 -0.000229965)
(0.000735585 0 -0.00013098)
(0.000794819 0 -9.4864e-05)
(0.000846599 0 -7.67353e-05)
(0.000880471 0 -9.20858e-05)
(0.000934461 0 -0.000153627)
(0.00102508 0 -0.000298307)
(0.0011801 0 -0.00028506)
(0.00124072 0 -0.000163875)
(0.00124534 0 -0.000120157)
(0.00126488 0 -9.69595e-05)
(0.00130755 0 -4.44278e-05)
(0.00133916 0 -6.15147e-05)
(0.00135669 0 -0.000131324)
(0.0013853 0 -0.000168822)
(0.00143478 0 -0.000115441)
(0.00146649 0 -0.000230838)
(0.00149692 0 -0.000316779)
(0.00153822 0 -0.000210787)
(0.00156266 0 -0.000164113)
(0.00159788 0 -0.000129285)
(0.00162439 0 -7.1283e-05)
(0.00161752 0 -5.37663e-05)
(0.00159064 0 -6.00551e-05)
(0.00155538 0 -2.74658e-05)
(0.00152894 0 4.67224e-06)
(0.00150625 0 2.0182e-05)
(0.00148591 0 1.37187e-06)
(0.00147532 0 1.0396e-05)
(0.00146634 0 1.51063e-05)
(0.0014519 0 1.10207e-05)
(0.00144185 0 -3.42097e-06)
(0.00144358 0 -5.44842e-06)
(0.0014523 0 -8.63219e-07)
(0.00146534 0 -3.44498e-05)
(0.00147851 0 -5.92198e-05)
(0.00149413 0 -3.82569e-05)
(0.0015063 0 -1.01877e-05)
(0.00150539 0 -6.5711e-06)
(0.00149771 0 9.40342e-07)
(0.00148407 0 3.77555e-06)
(0.00146635 0 4.72213e-06)
(0.00144174 0 -1.93108e-05)
(0.00141519 0 -2.7131e-05)
(0.00139096 0 -2.80997e-05)
(0.00136313 0 -2.69652e-05)
(0.00132813 0 -8.00702e-05)
(0.00128165 0 3.80215e-05)
(0.00119686 0 -6.01944e-05)
(0.00109986 0 -5.46843e-05)
(0.000978132 0 0.000228347)
(0.00092067 0 -3.83896e-05)
(0.000790642 0 -3.85429e-05)
(0.000720427 0 -8.37536e-05)
(1.43156e-05 0 0.000143986)
(-9.83692e-13 0 4.40732e-12)
(1.33457e-12 0 1.43597e-12)
(7.74739e-13 0 5.56784e-13)
(-3.16447e-14 0 2.49588e-13)
(-4.03839e-13 0 1.22578e-13)
(-5.86031e-13 0 5.95912e-14)
(-6.68453e-13 0 2.28013e-14)
(-6.89854e-13 0 -1.47934e-15)
(-6.69569e-13 0 -1.86502e-14)
(-6.19553e-13 0 -3.12983e-14)
(-5.47475e-13 0 -4.06817e-14)
(-4.59188e-13 0 -4.74785e-14)
(-3.59463e-13 0 -5.20924e-14)
(-2.52397e-13 0 -5.47932e-14)
(-1.41611e-13 0 -5.57884e-14)
(-3.03369e-14 0 -5.526e-14)
(7.85513e-14 0 -5.33829e-14)
(1.82531e-13 0 -5.03337e-14)
(2.79437e-13 0 -4.62925e-14)
(3.67467e-13 0 -4.14419e-14)
(4.45184e-13 0 -3.59634e-14)
(5.11505e-13 0 -3.00328e-14)
(5.65693e-13 0 -2.38166e-14)
(6.07326e-13 0 -1.74677e-14)
(6.36275e-13 0 -1.11232e-14)
(6.52663e-13 0 -4.90211e-15)
(6.56837e-13 0 1.09501e-15)
(6.49325e-13 0 6.78604e-15)
(6.30802e-13 0 1.21062e-14)
(6.02057e-13 0 1.70066e-14)
(5.63964e-13 0 2.1452e-14)
(5.17457e-13 0 2.5419e-14)
(4.63505e-13 0 2.88934e-14)
(4.03101e-13 0 3.18684e-14)
(3.37246e-13 0 3.43422e-14)
(2.66939e-13 0 3.63168e-14)
(1.93176e-13 0 3.77972e-14)
(1.16935e-13 0 3.87933e-14)
(3.91578e-14 0 3.93314e-14)
(-4.98112e-05 0 2.96851e-05)
(-0.00011678 0 9.35687e-05)
(-9.35585e-05 0 0.000124708)
(-7.43892e-05 0 0.00017719)
(-0.00014806 0 0.000199176)
(-0.000181008 0 0.000187394)
(-0.000191381 0 0.000152741)
(-0.000242777 0 6.40699e-05)
(-0.000249681 0 6.78767e-05)
(-0.000241911 0 1.17338e-05)
(-0.000216957 0 -9.43948e-06)
(-0.000214419 0 1.64591e-05)
(-0.000218333 0 4.56575e-05)
(-0.000226605 0 4.20089e-05)
(-0.000146299 0 -0.000174178)
(-0.000109699 0 -9.4726e-05)
(-5.1142e-05 0 -8.25971e-05)
(-9.848e-05 0 1.23728e-06)
(3.37572e-05 0 -0.000108168)
(8.23056e-05 0 -9.25064e-05)
(0.000145583 0 0.000107764)
(0.000200915 0 -8.07809e-05)
(0.000248031 0 -0.000116586)
(0.000283757 0 -0.000236488)
(0.000419602 0 -9.02373e-05)
(0.000506013 0 -0.000144412)
(0.000617395 0 1.91884e-05)
(0.000674803 0 1.8445e-06)
(0.000718078 0 -0.000106981)
(0.000815536 0 -3.57485e-05)
(0.000888914 0 -8.16449e-05)
(0.000962243 0 -6.93241e-05)
(0.00107845 0 3.95663e-05)
(0.00110895 0 5.89202e-05)
(0.00109925 0 4.35678e-05)
(0.00110407 0 4.33098e-05)
(0.00111716 0 3.19735e-05)
(0.00112386 0 4.79211e-05)
(0.00113932 0 3.04519e-05)
(0.00118386 0 2.00256e-05)
(0.00123974 0 3.89321e-05)
(0.00128921 0 5.86221e-06)
(0.00135513 0 0.000111365)
(0.00143194 0 0.000134907)
(0.00146294 0 5.49414e-05)
(0.00148135 0 5.08804e-05)
(0.00150914 0 5.06694e-05)
(0.00155936 0 6.60595e-05)
(0.00158194 0 7.84328e-05)
(0.00157073 0 7.81612e-05)
(0.00154381 0 6.60659e-05)
(0.00151553 0 5.70384e-05)
(0.00149908 0 3.26835e-05)
(0.00149305 0 1.01534e-05)
(0.00148876 0 1.21267e-05)
(0.00148375 0 5.87821e-06)
(0.00147969 0 -9.86558e-07)
(0.00147596 0 -5.85181e-06)
(0.00147013 0 -7.30207e-06)
(0.00146413 0 -1.24458e-05)
(0.00145764 0 3.25381e-07)
(0.00144227 0 4.15727e-06)
(0.00141167 0 -1.11342e-05)
(0.00138708 0 9.62543e-06)
(0.00137662 0 1.57434e-05)
(0.00136502 0 2.46982e-05)
(0.00134742 0 1.83056e-05)
(0.00132594 0 6.00877e-05)
(0.00131129 0 5.05922e-05)
(0.00129144 0 5.94823e-05)
(0.00125311 0 9.1931e-05)
(0.00121853 0 7.66963e-05)
(0.00118692 0 0.00012217)
(0.00115524 0 0.00010431)
(0.00108907 0 0.000186606)
(0.000988286 0 0.000178856)
(0.000888214 0 0.000116029)
(0.000559061 0 0.000342065)
(-0.000200464 0 0.000304845)
(-0.000535734 0 0.00043297)
(7.57607e-06 0 0.000613697)
(-9.35618e-13 0 5.6459e-12)
(-2.40934e-12 0 2.30602e-12)
(-4.14688e-13 0 1.09783e-12)
(-4.68174e-13 0 5.68079e-13)
(-5.95405e-13 0 3.03276e-13)
(-6.86653e-13 0 1.52201e-13)
(-7.29717e-13 0 5.56317e-14)
(-7.31142e-13 0 -1.1486e-14)
(-6.99388e-13 0 -6.04227e-14)
(-6.41585e-13 0 -9.70982e-14)
(-5.63656e-13 0 -1.24559e-13)
(-4.70599e-13 0 -1.44537e-13)
(-3.66778e-13 0 -1.581e-13)
(-2.56093e-13 0 -1.65987e-13)
(-1.42078e-13 0 -1.68784e-13)
(-2.79314e-14 0 -1.67017e-13)
(8.34776e-14 0 -1.61204e-13)
(1.89621e-13 0 -1.5187e-13)
(2.88329e-13 0 -1.39558e-13)
(3.77796e-13 0 -1.2482e-13)
(4.56593e-13 0 -1.08204e-13)
(5.23652e-13 0 -9.02426e-14)
(5.78258e-13 0 -7.14385e-14)
(6.2002e-13 0 -5.22536e-14)
(6.4884e-13 0 -3.31004e-14)
(6.64881e-13 0 -1.43368e-14)
(6.68526e-13 0 3.73614e-15)
(6.60336e-13 0 2.08731e-14)
(6.41022e-13 0 3.68814e-14)
(6.11403e-13 0 5.16165e-14)
(5.72377e-13 0 6.49752e-14)
(5.24898e-13 0 7.68892e-14)
(4.69954e-13 0 8.73185e-14)
(4.0855e-13 0 9.62443e-14)
(3.41694e-13 0 1.03663e-13)
(2.70395e-13 0 1.09582e-13)
(1.95653e-13 0 1.14013e-13)
(1.18469e-13 0 1.16974e-13)
(3.96958e-14 0 1.18495e-13)
(-4.44991e-05 0 4.22259e-05)
(-0.00012224 0 6.1763e-05)
(-0.000152845 0 5.7685e-05)
(-0.00018148 0 8.95941e-05)
(-0.000220272 0 0.000102941)
(-0.000250627 0 5.21615e-05)
(-0.0002507 0 5.03815e-05)
(-0.000246158 0 6.68464e-05)
(-0.000248908 0 6.10559e-05)
(-0.000249637 0 -1.93009e-05)
(-0.000229661 0 5.35433e-06)
(-0.000222184 0 -5.77629e-06)
(-0.000203548 0 1.67183e-05)
(-0.000169973 0 -3.66808e-05)
(-0.000137322 0 -0.000107823)
(-0.000132673 0 -6.68777e-05)
(-4.7481e-05 0 -9.32786e-05)
(-9.19601e-05 0 -5.04079e-05)
(1.98387e-05 0 -9.82111e-05)
(2.59462e-05 0 -0.00014934)
(9.3701e-05 0 -0.000140877)
(0.000146885 0 -0.000160422)
(0.000199929 0 -0.000207581)
(0.000259544 0 -0.000243795)
(0.000303581 0 -0.000309803)
(0.000375741 0 -0.000324486)
(0.000520234 0 -0.000211313)
(0.000591303 0 -0.000213147)
(0.000620314 0 -0.000362636)
(0.000802662 0 5.96238e-05)
(0.000842392 0 -0.000189335)
(0.000841554 0 -0.00031661)
(0.000872742 0 -0.000294048)
(0.000906218 0 -0.000186777)
(0.000929459 0 -0.000112431)
(0.000969631 0 -5.72734e-05)
(0.00101769 0 -0.000103022)
(0.00108185 0 -5.55975e-05)
(0.00109748 0 -0.000214898)
(0.00111519 0 -0.000192088)
(0.00112498 0 -0.000170066)
(0.00112643 0 -0.000203648)
(0.00114892 0 -0.000168641)
(0.00117942 0 -0.000171724)
(0.00121153 0 -0.000197876)
(0.0012571 0 -0.000146331)
(0.00130254 0 -0.000174773)
(0.00136071 0 -0.000130785)
(0.00138819 0 7.74732e-06)
(0.00139933 0 3.61157e-05)
(0.00142361 0 4.80073e-05)
(0.00145773 0 4.14703e-05)
(0.00145865 0 3.84759e-05)
(0.00145501 0 3.40342e-05)
(0.00145289 0 2.61616e-05)
(0.00144833 0 2.14111e-05)
(0.00143913 0 2.46144e-05)
(0.00142362 0 2.18023e-05)
(0.00140028 0 2.43919e-05)
(0.00137623 0 2.13658e-05)
(0.00135528 0 1.35594e-05)
(0.00133327 0 6.41178e-06)
(0.00131027 0 1.06882e-05)
(0.00129299 0 1.13605e-05)
(0.00127826 0 3.25038e-05)
(0.00126196 0 2.2011e-05)
(0.00124086 0 5.15537e-05)
(0.00120729 0 5.16365e-07)
(0.00116291 0 7.36563e-05)
(0.00114188 0 3.50951e-05)
(0.00111559 0 -4.67831e-06)
(0.00106188 0 8.45716e-05)
(0.00103709 0 7.39214e-05)
(0.00101397 0 0.000119518)
(0.000942617 0 0.000227166)
(0.000877784 0 0.000113549)
(0.000703115 0 0.000382537)
(0.00043986 0 0.000569648)
(0.000426925 0 0.000354018)
(-0.000255554 0 0.000362032)
(8.62777e-06 0 0.000739739)
(-1.00194e-12 0 1.48494e-12)
(-2.92512e-12 0 1.30816e-12)
(-9.65677e-13 0 9.60145e-13)
(-8.28032e-13 0 6.21294e-13)
(-8.20851e-13 0 3.69919e-13)
(-8.3412e-13 0 1.89995e-13)
(-8.31993e-13 0 5.88089e-14)
(-8.05598e-13 0 -3.94754e-14)
(-7.55181e-13 0 -1.14417e-13)
(-6.8369e-13 0 -1.72065e-13)
(-5.94914e-13 0 -2.15866e-13)
(-4.92729e-13 0 -2.47947e-13)
(-3.80913e-13 0 -2.69714e-13)
(-2.63081e-13 0 -2.82197e-13)
(-1.42642e-13 0 -2.86266e-13)
(-2.27564e-14 0 -2.8274e-13)
(9.36991e-14 0 -2.72458e-13)
(2.04176e-13 0 -2.56294e-13)
(3.06487e-13 0 -2.35157e-13)
(3.98821e-13 0 -2.09979e-13)
(4.79761e-13 0 -1.81691e-13)
(5.48271e-13 0 -1.51195e-13)
(6.03682e-13 0 -1.1934e-13)
(6.45664e-13 0 -8.69059e-14)
(6.74191e-13 0 -5.45863e-14)
(6.895e-13 0 -2.29793e-14)
(6.92047e-13 0 7.41406e-15)
(6.82471e-13 0 3.61887e-14)
(6.61545e-13 0 6.30293e-14)
(6.30151e-13 0 8.77014e-14)
(5.89237e-13 0 1.10041e-13)
(5.398e-13 0 1.29941e-13)
(4.8286e-13 0 1.47343e-13)
(4.19446e-13 0 1.62223e-13)
(3.50583e-13 0 1.7458e-13)
(2.77289e-13 0 1.84429e-13)
(2.00569e-13 0 1.91792e-13)
(1.21417e-13 0 1.96691e-13)
(4.06783e-14 0 1.99137e-13)
(-3.73065e-05 0 9.76282e-05)
(-9.44606e-05 0 0.000110161)
(-0.000173085 0 7.82901e-05)
(-0.000213374 0 0.000111958)
(-0.000245219 0 0.000128945)
(-0.00027033 0 0.000102062)
(-0.00027758 0 5.07073e-05)
(-0.000263037 0 -2.15847e-05)
(-0.000254332 0 -3.15718e-05)
(-0.000241524 0 -8.11012e-05)
(-0.000196596 0 -9.15146e-05)
(-0.000206933 0 -4.18804e-06)
(-0.000182783 0 8.65844e-05)
(-0.000162053 0 -6.96937e-05)
(-0.000152576 0 -0.000173503)
(-0.000167738 0 -0.000133936)
(-0.000221246 0 -6.82215e-05)
(-0.000113719 0 -0.000144243)
(-0.000115773 0 -0.000128317)
(-0.000110637 0 -0.000171882)
(-6.06494e-05 0 -0.000170021)
(2.99677e-05 0 -0.000202257)
(8.28075e-05 0 -0.000266799)
(0.000191937 0 -0.000288063)
(0.00032042 0 -0.000257711)
(0.000299291 0 -0.000373952)
(0.000517245 0 -0.000146078)
(0.000557754 0 -0.000230371)
(0.000660248 0 -0.000161535)
(0.00063178 0 -0.000412901)
(0.000790852 0 -0.000240617)
(0.000879136 0 -6.99699e-05)
(0.000859517 0 -7.28243e-05)
(0.00084483 0 -9.88264e-05)
(0.000860275 0 -9.54296e-05)
(0.000889349 0 -0.000102205)
(0.000932295 0 -9.49466e-06)
(0.000968619 0 -3.07423e-05)
(0.00100108 0 3.18853e-05)
(0.00101292 0 -3.68681e-05)
(0.00101694 0 -5.73439e-05)
(0.00102361 0 -5.92369e-05)
(0.00103261 0 -7.22589e-05)
(0.00103909 0 -9.69205e-05)
(0.0010513 0 -0.000102679)
(0.00106694 0 -0.000105811)
(0.00109275 0 -9.42764e-05)
(0.00111679 0 -0.000103265)
(0.00114147 0 -7.08265e-05)
(0.00117766 0 -3.5233e-05)
(0.00122655 0 1.70386e-05)
(0.00127709 0 7.1848e-05)
(0.00130022 0 2.92608e-05)
(0.0013066 0 -1.06226e-05)
(0.0013096 0 1.984e-05)
(0.00130778 0 1.55546e-05)
(0.00130439 0 1.85333e-05)
(0.00129703 0 2.57839e-05)
(0.00129245 0 1.89517e-05)
(0.00129442 0 2.61658e-05)
(0.00129226 0 3.57642e-05)
(0.00128076 0 4.76465e-05)
(0.00125828 0 3.51932e-05)
(0.00123487 0 5.53277e-05)
(0.0012192 0 3.96877e-05)
(0.00119809 0 5.05109e-05)
(0.00117204 0 8.34968e-05)
(0.00114329 0 0.000117271)
(0.00109236 0 5.05977e-05)
(0.00103122 0 0.000193314)
(0.00103469 0 0.000140917)
(0.00100519 0 3.92729e-05)
(0.000938604 0 0.000176895)
(0.0009171 0 0.000240219)
(0.000895467 0 0.000224819)
(0.000772603 0 0.000345119)
(0.000649553 0 0.000516333)
(0.000564383 0 0.000633748)
(0.000570613 0 0.000602295)
(-9.22955e-05 0 0.000469744)
(8.97723e-06 0 0.000796674)
(-7.33468e-13 0 9.55001e-13)
(-2.49827e-12 0 9.02468e-13)
(-1.10041e-12 0 8.13352e-13)
(-1.05738e-12 0 5.87066e-13)
(-1.02579e-12 0 3.65134e-13)
(-9.96923e-13 0 1.79067e-13)
(-9.58486e-13 0 2.9181e-14)
(-9.04073e-13 0 -9.05254e-14)
(-8.31977e-13 0 -1.85718e-13)
(-7.43033e-13 0 -2.60891e-13)
(-6.39538e-13 0 -3.18906e-13)
(-5.24448e-13 0 -3.61691e-13)
(-4.01028e-13 0 -3.90633e-13)
(-2.72644e-13 0 -4.06847e-13)
(-1.42621e-13 0 -4.11367e-13)
(-1.41243e-14 0 -4.0525e-13)
(1.09924e-13 0 -3.89628e-13)
(2.26923e-13 0 -3.65725e-13)
(3.34643e-13 0 -3.34834e-13)
(4.31262e-13 0 -2.98291e-13)
(5.15377e-13 0 -2.57431e-13)
(5.86004e-13 0 -2.13551e-13)
(6.42547e-13 0 -1.67868e-13)
(6.84773e-13 0 -1.21493e-13)
(7.12767e-13 0 -7.54094e-14)
(7.26882e-13 0 -3.04588e-14)
(7.27694e-13 0 1.266e-14)
(7.15952e-13 0 5.33878e-14)
(6.92535e-13 0 9.12953e-14)
(6.58414e-13 0 1.26069e-13)
(6.14616e-13 0 1.57495e-13)
(5.62201e-13 0 1.85442e-13)
(5.02236e-13 0 2.09842e-13)
(4.35786e-13 0 2.30676e-13)
(3.639e-13 0 2.47956e-13)
(2.87607e-13 0 2.61713e-13)
(2.07915e-13 0 2.71988e-13)
(1.25814e-13 0 2.78814e-13)
(4.21416e-14 0 2.82218e-13)
(-0.00011423 0 0.000134755)
(-3.16213e-05 0 0.000192087)
(-0.000141115 0 0.000175219)
(-0.000244097 0 0.000167903)
(-0.000278182 0 0.000160948)
(-0.0002912 0 0.000135397)
(-0.000306582 0 6.78675e-05)
(-0.000306089 0 7.00107e-05)
(-0.000332284 0 1.59091e-05)
(-0.000343682 0 -2.12851e-06)
(-0.000344468 0 -3.41202e-05)
(-0.000301684 0 -8.84889e-05)
(-0.000295698 0 -6.03709e-05)
(-0.000305993 0 -0.000125977)
(-0.000330054 0 -0.000101523)
(-0.000341468 0 -6.0784e-05)
(-0.000333225 0 -8.91077e-05)
(-0.000251064 0 -0.000216677)
(-0.000254447 0 -0.000168928)
(-0.000280449 0 -0.000198643)
(-0.000286729 0 -0.000224076)
(-0.00018623 0 -0.000328676)
(-8.94228e-05 0 -0.000406602)
(4.40178e-05 0 -0.000445412)
(0.00018155 0 -0.000455797)
(0.000145399 0 -0.000539931)
(0.000449781 0 -0.000373394)
(0.000483507 0 -0.000349023)
(0.000524642 0 -0.000383298)
(0.000627955 0 -0.000291246)
(0.000670652 0 -0.00023629)
(0.000667335 0 -0.00024554)
(0.0006782 0 -0.000247995)
(0.0007113 0 -0.000192136)
(0.000770062 0 -5.03293e-05)
(0.000799573 0 -0.000113439)
(0.00079438 0 -0.000208527)
(0.000794636 0 -0.000230863)
(0.000810418 0 -0.000226838)
(0.000832914 0 -0.000170867)
(0.000843248 0 -0.000143835)
(0.000849196 0 -0.000161244)
(0.00087495 0 -0.000121874)
(0.000880133 0 -0.000118791)
(0.000884588 0 -0.000121841)
(0.000897351 0 -0.000157292)
(0.000928552 0 -0.000141774)
(0.000952912 0 -7.28977e-05)
(0.000968477 0 -6.0271e-05)
(0.000999707 0 -6.52117e-05)
(0.00104996 0 -4.33271e-05)
(0.00109067 0 -1.97281e-05)
(0.00111915 0 4.72648e-06)
(0.00114768 0 4.00868e-05)
(0.00117542 0 4.28818e-05)
(0.00120907 0 2.7364e-05)
(0.00124838 0 3.15745e-05)
(0.00124848 0 3.38845e-05)
(0.00124848 0 3.46056e-05)
(0.00125448 0 3.39185e-05)
(0.00125082 0 3.4326e-05)
(0.00123232 0 4.39542e-05)
(0.00120392 0 2.98146e-05)
(0.00117335 0 4.8734e-05)
(0.00114896 0 7.73465e-05)
(0.00112462 0 8.7621e-05)
(0.00109357 0 5.14023e-05)
(0.001054 0 0.000142692)
(0.00100666 0 8.71756e-05)
(0.000962596 0 -3.36788e-05)
(0.000931376 0 0.000204539)
(0.000916511 0 0.000187612)
(0.000893717 0 0.000135172)
(0.000822733 0 0.000320802)
(0.000755044 0 0.000446207)
(0.000707696 0 0.000492319)
(0.000668314 0 0.00057925)
(0.000605422 0 0.000741256)
(0.000693087 0 0.000747749)
(-7.77714e-05 0 0.00069073)
(8.9145e-06 0 0.000955187)
(-6.60803e-13 0 2.32987e-12)
(-2.4789e-12 0 1.10621e-12)
(-1.28e-12 0 8.03764e-13)
(-1.27525e-12 0 5.48513e-13)
(-1.22793e-12 0 3.24509e-13)
(-1.16924e-12 0 1.31979e-13)
(-1.10091e-12 0 -3.05012e-14)
(-1.02023e-12 0 -1.65826e-13)
(-9.25547e-13 0 -2.77039e-13)
(-8.16877e-13 0 -3.66874e-13)
(-6.95714e-13 0 -4.3717e-13)
(-5.64456e-13 0 -4.89274e-13)
(-4.26069e-13 0 -5.24273e-13)
(-2.83815e-13 0 -5.43185e-13)
(-1.41044e-13 0 -5.471e-13)
(-1.01775e-15 0 -5.37257e-13)
(1.33224e-13 0 -5.15077e-13)
(2.58971e-13 0 -4.82142e-13)
(3.73921e-13 0 -4.40164e-13)
(4.76224e-13 0 -3.90921e-13)
(5.64501e-13 0 -3.36196e-13)
(6.37834e-13 0 -2.77716e-13)
(6.95739e-13 0 -2.17095e-13)
(7.38123e-13 0 -1.55798e-13)
(7.65226e-13 0 -9.51088e-14)
(7.77569e-13 0 -3.61161e-14)
(7.75894e-13 0 2.0287e-14)
(7.61106e-13 0 7.33972e-14)
(7.34226e-13 0 1.22685e-13)
(6.9635e-13 0 1.67774e-13)
(6.4861e-13 0 2.08419e-13)
(5.92147e-13 0 2.4448e-13)
(5.28094e-13 0 2.75898e-13)
(4.57559e-13 0 3.02673e-13)
(3.81621e-13 0 3.24845e-13)
(3.01321e-13 0 3.42473e-13)
(2.1767e-13 0 3.55621e-13)
(1.31648e-13 0 3.6435e-13)
(4.40827e-14 0 3.68701e-13)
(-0.000104453 0 0.000236262)
(-0.000147325 0 0.000211112)
(-0.000203131 0 0.000228378)
(-0.000220514 0 0.000282504)
(-0.00027965 0 0.000229009)
(-0.000331087 0 0.000134739)
(-0.000354902 0 6.2771e-05)
(-0.000354158 0 5.53885e-05)
(-0.000397258 0 -1.84688e-05)
(-0.000417765 0 4.22868e-06)
(-0.000431455 0 2.42539e-05)
(-0.000435598 0 2.13589e-05)
(-0.000417932 0 -3.02988e-05)
(-0.00040627 0 -8.41906e-05)
(-0.000386099 0 -0.000169574)
(-0.000428389 0 -5.79791e-05)
(-0.00042446 0 -0.000112833)
(-0.00037512 0 -0.000217642)
(-0.000395455 0 -0.000127942)
(-0.00038013 0 -0.000169014)
(-0.000339076 0 -0.000235265)
(-0.000163298 0 -0.000435121)
(-5.11173e-05 0 -0.000490764)
(3.02617e-05 0 -0.000525845)
(0.000120509 0 -0.000548102)
(0.000273451 0 -0.000519445)
(0.00031664 0 -0.000506088)
(0.000326145 0 -0.000460456)
(0.000455687 0 -0.000315435)
(0.000405328 0 -0.000357499)
(0.00047157 0 -0.000312999)
(0.000476192 0 -0.000287913)
(0.000519034 0 -0.000191034)
(0.000523421 0 -0.00019119)
(0.000540468 0 -0.000209627)
(0.000584851 0 -0.000186676)
(0.000640736 0 -0.000100667)
(0.000664007 0 -7.03158e-05)
(0.000681327 0 -5.65957e-05)
(0.000681498 0 -0.000102216)
(0.000690911 0 -0.000109643)
(0.000707637 0 -0.000127645)
(0.000742371 0 -0.000127618)
(0.000766054 0 -0.000138861)
(0.00078258 0 -0.000177304)
(0.000829523 0 -0.000151935)
(0.000872593 0 -0.000112478)
(0.000884211 0 -0.000115016)
(0.000902494 0 -0.00010276)
(0.00094075 0 -7.37209e-05)
(0.000989608 0 6.62893e-06)
(0.0010408 0 -1.85007e-06)
(0.00108862 0 -8.43943e-05)
(0.00113138 0 -4.47649e-05)
(0.00114593 0 -4.12345e-05)
(0.0011578 0 -3.60672e-05)
(0.00117067 0 1.63337e-06)
(0.00116746 0 1.32488e-05)
(0.00115288 0 -3.23353e-05)
(0.00114186 0 3.97859e-05)
(0.00113579 0 7.26029e-05)
(0.00112416 0 6.83438e-05)
(0.00109726 0 0.000116018)
(0.00107301 0 9.5073e-05)
(0.00103903 0 0.000120629)
(0.00101175 0 0.000142668)
(0.000990203 0 0.000133161)
(0.000946229 0 0.000184014)
(0.000900311 0 0.00016033)
(0.000854896 0 0.000181603)
(0.000837529 0 0.000174828)
(0.000828005 0 0.000145591)
(0.00076718 0 0.000249038)
(0.000734007 0 0.000327411)
(0.000692593 0 0.000430146)
(0.000703027 0 0.000479892)
(0.000557167 0 0.000690245)
(0.000418017 0 0.000893318)
(0.000298311 0 0.00100625)
(-0.000487619 0 0.000849734)
(7.7951e-06 0 0.00117577)
(-9.69157e-13 0 2.73259e-12)
(-3.2723e-12 0 1.11751e-12)
(-1.65699e-12 0 7.47003e-13)
(-1.53563e-12 0 4.78743e-13)
(-1.44141e-12 0 2.52431e-13)
(-1.35111e-12 0 5.48601e-14)
(-1.25565e-12 0 -1.17186e-13)
(-1.15038e-12 0 -2.65013e-13)
(-1.03303e-12 0 -3.89736e-13)
(-9.03164e-13 0 -4.92392e-13)
(-7.61938e-13 0 -5.73617e-13)
(-6.11551e-13 0 -6.33951e-13)
(-4.54938e-13 0 -6.73986e-13)
(-2.95471e-13 0 -6.94505e-13)
(-1.36694e-13 0 -6.96575e-13)
(1.78986e-14 0 -6.81591e-13)
(1.6504e-13 0 -6.51267e-13)
(3.01836e-13 0 -6.07594e-13)
(4.25864e-13 0 -5.52753e-13)
(5.35229e-13 0 -4.8903e-13)
(6.28583e-13 0 -4.18716e-13)
(7.05105e-13 0 -3.44022e-13)
(7.64464e-13 0 -2.67002e-13)
(8.06759e-13 0 -1.89501e-13)
(8.32449e-13 0 -1.13117e-13)
(8.42278e-13 0 -3.91905e-14)
(8.37207e-13 0 3.12e-14)
(8.18349e-13 0 9.72218e-14)
(7.86912e-13 0 1.58266e-13)
(7.44148e-13 0 2.13916e-13)
(6.91322e-13 0 2.6392e-13)
(6.29679e-13 0 3.08153e-13)
(5.60429e-13 0 3.46588e-13)
(4.84733e-13 0 3.79266e-13)
(4.03699e-13 0 4.06271e-13)
(3.18383e-13 0 4.27704e-13)
(2.29792e-13 0 4.43669e-13)
(1.38893e-13 0 4.54255e-13)
(4.64926e-14 0 4.5953e-13)
(-6.38549e-05 0 0.000348191)
(-8.46512e-05 0 0.000311783)
(-0.00030547 0 0.000239665)
(-0.000336016 0 0.000234199)
(-0.00034468 0 0.000224959)
(-0.000364578 0 0.000188452)
(-0.000413531 0 8.63076e-05)
(-0.000440043 0 4.21912e-05)
(-0.000461956 0 4.39578e-05)
(-0.000475321 0 -1.64418e-05)
(-0.000485173 0 -5.61557e-05)
(-0.000492236 0 -4.94193e-05)
(-0.000501421 0 -7.15923e-05)
(-0.000515655 0 -0.000106695)
(-0.000527902 0 -9.53181e-05)
(-0.000541924 0 -4.96596e-05)
(-0.000545312 0 -0.000110103)
(-0.000514151 0 -0.000166343)
(-0.000470345 0 -0.000167968)
(-0.000427687 0 -0.000241915)
(-0.000306277 0 -0.000432567)
(-0.000277214 0 -0.000483537)
(-0.000221296 0 -0.000542899)
(-9.17925e-05 0 -0.000616355)
(-9.71396e-05 0 -0.000648946)
(-1.11069e-06 0 -0.00066148)
(3.0928e-05 0 -0.000631133)
(0.000181074 0 -0.00051723)
(0.000327295 0 -0.000362356)
(0.000197418 0 -0.000405055)
(0.000347083 0 -0.00027333)
(0.000317753 0 -0.000244158)
(0.000342427 0 -0.000219569)
(0.000367479 0 -0.000200945)
(0.00041637 0 -0.000143349)
(0.000416094 0 -0.000175492)
(0.00042492 0 -0.000188429)
(0.000444904 0 -0.00019823)
(0.000497096 0 -0.00015442)
(0.000531173 0 -0.000160363)
(0.000577074 0 -0.000143139)
(0.000602053 0 -0.000203533)
(0.000668097 0 -0.000102054)
(0.000697321 0 -0.000154533)
(0.000716198 0 -0.000249373)
(0.000774153 0 -0.000236426)
(0.000806931 0 -0.000223017)
(0.000831417 0 -0.000190914)
(0.000864473 0 -0.000193668)
(0.000903984 0 -0.000251588)
(0.000957497 0 -0.000199134)
(0.000995044 0 -0.000182529)
(0.00102799 0 -4.84756e-05)
(0.00103101 0 -2.49409e-05)
(0.00103505 0 -1.80476e-05)
(0.00103891 0 -6.47534e-05)
(0.00104261 0 2.99089e-05)
(0.00104301 0 5.21848e-05)
(0.00103795 0 4.823e-05)
(0.00102104 0 4.3386e-05)
(0.00100459 0 7.47528e-05)
(0.000991105 0 0.000103359)
(0.000976817 0 6.33035e-05)
(0.000956444 0 0.00012982)
(0.000934974 0 0.000120321)
(0.000894497 0 0.000160578)
(0.000861323 0 0.000206519)
(0.000841925 0 0.000179712)
(0.000799972 0 0.000140953)
(0.000721403 0 0.000218094)
(0.000719828 0 0.000239452)
(0.000735405 0 0.000213231)
(0.000729447 0 0.000184935)
(0.000639717 0 0.000367885)
(0.000674681 0 0.000382941)
(0.000530292 0 0.000616957)
(0.000469896 0 0.000767022)
(0.000255717 0 0.00100656)
(0.000343705 0 0.00106422)
(-0.000298874 0 0.000944608)
(7.70978e-06 0 0.00122284)
(-1.13299e-12 0 1.80276e-12)
(-3.5483e-12 0 7.73213e-13)
(-1.91764e-12 0 5.88001e-13)
(-1.76882e-12 0 3.67035e-13)
(-1.65092e-12 0 1.51627e-13)
(-1.53804e-12 0 -4.77691e-14)
(-1.42019e-12 0 -2.27909e-13)
(-1.2926e-12 0 -3.87126e-13)
(-1.15293e-12 0 -5.24502e-13)
(-1.00076e-12 0 -6.39336e-13)
(-8.37274e-13 0 -7.30948e-13)
(-6.64825e-13 0 -7.98915e-13)
(-4.86623e-13 0 -8.43201e-13)
(-3.06404e-13 0 -8.64257e-13)
(-1.28129e-13 0 -8.63086e-13)
(4.429e-14 0 -8.41244e-13)
(2.07221e-13 0 -8.00792e-13)
(3.57486e-13 0 -7.44199e-13)
(4.92485e-13 0 -6.74213e-13)
(6.1026e-13 0 -5.93722e-13)
(7.09508e-13 0 -5.05614e-13)
(7.89548e-13 0 -4.12655e-13)
(8.50261e-13 0 -3.17393e-13)
(8.92008e-13 0 -2.22089e-13)
(9.15536e-13 0 -1.28674e-13)
(9.21886e-13 0 -3.87352e-14)
(9.12306e-13 0 4.64746e-14)
(8.88171e-13 0 1.26017e-13)
(8.50921e-13 0 1.99232e-13)
(8.02005e-13 0 2.65696e-13)
(7.42847e-13 0 3.25183e-13)
(6.74815e-13 0 3.77616e-13)
(5.99207e-13 0 4.23027e-13)
(5.17242e-13 0 4.61526e-13)
(4.30058e-13 0 4.9326e-13)
(3.38718e-13 0 5.18395e-13)
(2.44221e-13 0 5.37086e-13)
(1.47509e-13 0 5.49466e-13)
(4.93572e-14 0 5.55629e-13)
(-7.21821e-05 0 0.000422091)
(-9.72261e-05 0 0.000400694)
(-0.000128283 0 0.000423436)
(-0.000232706 0 0.000387671)
(-0.000331865 0 0.000316504)
(-0.000378722 0 0.000260049)
(-0.000486023 0 0.000127214)
(-0.000490342 0 0.000165116)
(-0.00054093 0 5.64739e-05)
(-0.000583265 0 3.60496e-05)
(-0.000604097 0 2.75595e-05)
(-0.000610528 0 -6.56318e-06)
(-0.000628151 0 -5.01583e-05)
(-0.000640863 0 -4.47655e-05)
(-0.000632555 0 -6.7664e-05)
(-0.000624016 0 -8.67745e-05)
(-0.000614089 0 -0.000118645)
(-0.000484891 0 -0.000394813)
(-0.000557085 0 -0.000217655)
(-0.000470899 0 -0.000361555)
(-0.000377355 0 -0.000522462)
(-0.000391134 0 -0.000537591)
(-0.000373171 0 -0.000592696)
(-0.0003052 0 -0.000665498)
(-0.000239489 0 -0.000700069)
(-0.000233102 0 -0.000703362)
(-0.000231407 0 -0.000649865)
(-0.000189034 0 -0.000608127)
(1.94465e-06 0 -0.000518508)
(0.000106776 0 -0.000432494)
(0.000243743 0 -0.00031101)
(0.000127691 0 -0.000311646)
(0.000221386 0 -0.00024557)
(0.000235633 0 -0.000233646)
(0.000266161 0 -0.000215093)
(0.000299767 0 -0.000189674)
(0.000321308 0 -0.000183683)
(0.000348325 0 -0.00018708)
(0.000389097 0 -0.000183822)
(0.000427053 0 -0.000206145)
(0.000488202 0 -0.000190639)
(0.000519122 0 -0.000238442)
(0.000569185 0 -0.000231312)
(0.000601032 0 -0.000250466)
(0.000645177 0 -0.000273318)
(0.000712154 0 -0.000230437)
(0.000733141 0 -0.000202779)
(0.000755897 0 -0.00017642)
(0.000796358 0 -0.000172649)
(0.000886264 0 -9.68355e-05)
(0.000902075 0 -7.45013e-05)
(0.00088735 0 -7.83705e-05)
(0.000885802 0 -9.05543e-05)
(0.000898832 0 -9.83292e-05)
(0.000927251 0 -3.11491e-05)
(0.000925956 0 -1.05588e-05)
(0.000916224 0 1.64896e-06)
(0.000911016 0 3.23912e-05)
(0.000909095 0 4.2892e-05)
(0.000907792 0 5.82713e-05)
(0.00090078 0 8.06691e-05)
(0.000888672 0 0.000106939)
(0.000873357 0 9.47728e-05)
(0.000847373 0 0.000167693)
(0.000833187 0 0.000155152)
(0.000803831 0 0.000150882)
(0.000753607 0 0.000219287)
(0.00071842 0 0.000263567)
(0.000684846 0 0.000277893)
(0.000655754 0 0.000169783)
(0.00064006 0 0.00015956)
(0.000597827 0 0.000273341)
(0.000513137 0 0.000402397)
(0.000466457 0 0.000483702)
(0.000445575 0 0.000569834)
(0.000435861 0 0.000687007)
(0.000447602 0 0.000842555)
(0.000256042 0 0.00110176)
(0.000326427 0 0.00119121)
(-0.000310852 0 0.000976173)
(9.00069e-06 0 0.00124188)
(-1.24166e-12 0 1.86561e-12)
(-3.40714e-12 0 6.41026e-13)
(-2.06209e-12 0 4.64745e-13)
(-1.97103e-12 0 2.49766e-13)
(-1.85534e-12 0 3.48136e-14)
(-1.72985e-12 0 -1.6965e-13)
(-1.59448e-12 0 -3.59348e-13)
(-1.44684e-12 0 -5.30955e-13)
(-1.28524e-12 0 -6.8182e-13)
(-1.10961e-12 0 -8.09507e-13)
(-9.21517e-13 0 -9.11918e-13)
(-7.23804e-13 0 -9.8755e-13)
(-5.20281e-13 0 -1.03563e-12)
(-3.15357e-13 0 -1.05622e-12)
(-1.1368e-13 0 -1.05025e-12)
(8.01928e-14 0 -1.01949e-12)
(2.62085e-13 0 -9.66437e-13)
(4.28415e-13 0 -8.94179e-13)
(5.76341e-13 0 -8.06164e-13)
(7.03829e-13 0 -7.06021e-13)
(8.0965e-13 0 -5.97354e-13)
(8.93325e-13 0 -4.83586e-13)
(9.5503e-13 0 -3.67826e-13)
(9.95479e-13 0 -2.52791e-13)
(1.0158e-12 0 -1.40758e-13)
(1.01743e-12 0 -3.35571e-14)
(1.00196e-12 0 6.74095e-14)
(9.71107e-13 0 1.61131e-13)
(9.26591e-13 0 2.46939e-13)
(8.701e-13 0 3.24446e-13)
(8.03241e-13 0 3.93492e-13)
(7.27523e-13 0 4.5409e-13)
(6.44339e-13 0 5.0637e-13)
(5.54966e-13 0 5.50539e-13)
(4.60568e-13 0 5.8684e-13)
(3.62209e-13 0 6.15519e-13)
(2.60864e-13 0 6.36805e-13)
(1.57436e-13 0 6.50883e-13)
(5.26559e-14 0 6.57886e-13)
(-8.37166e-05 0 0.000492279)
(-0.000131214 0 0.000474703)
(-0.000268528 0 0.000434)
(-0.000268835 0 0.000449904)
(-0.000344004 0 0.000385252)
(-0.000475855 0 0.000227491)
(-0.000491198 0 0.000233259)
(-0.000551098 0 0.000127994)
(-0.000608846 0 8.43935e-05)
(-0.000657014 0 5.41655e-05)
(-0.000671897 0 4.47506e-05)
(-0.000693227 0 -5.08822e-05)
(-0.000714096 0 -5.09697e-05)
(-0.000719747 0 -7.8789e-05)
(-0.00072089 0 -9.53329e-05)
(-0.00070307 0 -0.000120258)
(-0.000678964 0 -0.000149443)
(-0.000668622 0 -0.000207633)
(-0.000655807 0 -0.000226768)
(-0.000560811 0 -0.00045016)
(-0.000554719 0 -0.000503098)
(-0.000490114 0 -0.000592262)
(-0.000420189 0 -0.000678055)
(-0.000446612 0 -0.000688457)
(-0.000423526 0 -0.000716474)
(-0.000425939 0 -0.000711684)
(-0.000513735 0 -0.000604964)
(-0.00046033 0 -0.000550633)
(-0.00021716 0 -0.000623725)
(-0.000112025 0 -0.000531949)
(8.97196e-06 0 -0.000415811)
(7.41365e-05 0 -0.000316394)
(0.000135192 0 -0.00027919)
(0.000174722 0 -0.000248953)
(0.000191487 0 -0.00022493)
(0.000205986 0 -0.000227422)
(0.000236472 0 -0.000233665)
(0.000274863 0 -0.000241548)
(0.000316237 0 -0.000249637)
(0.000378872 0 -0.000224728)
(0.000389283 0 -0.000284331)
(0.000450345 0 -0.00025769)
(0.000512776 0 -0.000208846)
(0.000522294 0 -0.000265018)
(0.000555106 0 -0.000286796)
(0.000612392 0 -0.000258553)
(0.000623267 0 -0.000280364)
(0.00069489 0 -0.000184797)
(0.000653599 0 -0.000390042)
(0.000747888 0 -0.000191631)
(0.000751953 0 -0.000165331)
(0.000762432 0 -0.000140961)
(0.000788152 0 -9.78392e-05)
(0.000801098 0 -4.38414e-05)
(0.000798866 0 -3.54026e-05)
(0.000798817 0 -2.39819e-05)
(0.000800971 0 3.32918e-06)
(0.000802767 0 2.34239e-05)
(0.000800035 0 4.35831e-06)
(0.000795061 0 7.30027e-05)
(0.000791567 0 0.000100677)
(0.000784921 0 0.000118584)
(0.000772002 0 0.000101803)
(0.000743789 0 0.00014378)
(0.000712344 0 0.000222827)
(0.000697767 0 0.000229685)
(0.000659062 0 0.000274248)
(0.000631364 0 0.000275002)
(0.000584485 0 0.000300312)
(0.00053472 0 0.000279558)