/*--------------------------------*- C++ -*----------------------------------*\
  =========                 |
  \\      /  F ield         | OpenFOAM: The Open Source CFD Toolbox
   \\    /   O peration     | Website:  https://openfoam.org
    \\  /    A nd           | Version:  6
     \\/     M anipulation  |
\*---------------------------------------------------------------------------*/
FoamFile
{
    version     2.0;
    format      ascii;
    class       volScalarField;
    location    "4600";
    object      dmdt;
}
// * * * * * * * * * * * * * * * * * * * * * * * * * * * * * * * * * * * * * //

dimensions      [0 0 0 0 0 0 0];

internalField   nonuniform List<scalar> 
4800
(
-0.219643
-0.217782
-0.215978
-0.214225
-0.212508
-0.210803
-0.209119
-0.207451
-0.205793
-0.204156
-0.202513
-0.200881
-0.199254
-0.197627
-0.196007
-0.194393
-0.192791
-0.191206
-0.189651
-0.188137
-0.186672
-0.18526
-0.183903
-0.182599
-0.181341
-0.180128
-0.178954
-0.177817
-0.17672
-0.175666
-0.174657
-0.1737
-0.172792
-0.171935
-0.171128
-0.170371
-0.169661
-0.168997
-0.168376
-0.167794
-0.167247
-0.166731
-0.166242
-0.165776
-0.165328
-0.164891
-0.164455
-0.164008
-0.163534
-0.16301
-0.162407
-0.16169
-0.16081
-0.15971
-0.158328
-0.156587
-0.154422
-0.151794
-0.148675
-0.145047
-0.140924
-0.136366
-0.131458
-0.126281
-0.120876
-0.115267
-0.109503
-0.103636
-0.0976927
-0.091678
-0.0856026
-0.0794949
-0.0734116
-0.0674251
-0.0615948
-0.0559589
-0.0505349
-0.045327
-0.0403207
-0.035469
-0.0307405
-0.026107
-0.0215098
-0.0168884
-0.0121695
-0.00729282
-0.00119378
0.000724408
0.00385378
0.00710978
0.0104577
0.0138676
0.0173174
0.0207908
0.0242767
0.0277669
0.0312556
0.0347386
0.0382132
0.0416772
0.0451293
0.0485687
0.0519949
0.0554079
0.0588077
0.0621946
0.0655692
0.0689319
0.0722834
0.0756246
0.0789561
0.0822789
0.0855937
0.0889016
0.0922033
0.0954999
0.0987922
0.102081
0.105368
0.108653
-0.219614
-0.21768
-0.215794
-0.213959
-0.21218
-0.210423
-0.208687
-0.206988
-0.205293
-0.203641
-0.201993
-0.20036
-0.198738
-0.197119
-0.19551
-0.193908
-0.192318
-0.190743
-0.189195
-0.187684
-0.18622
-0.184811
-0.183452
-0.182149
-0.18089
-0.179681
-0.178516
-0.17739
-0.176302
-0.175255
-0.174252
-0.173298
-0.172397
-0.171549
-0.170753
-0.170008
-0.169311
-0.168659
-0.168049
-0.167479
-0.166944
-0.16644
-0.165964
-0.16551
-0.165074
-0.164647
-0.164221
-0.163784
-0.163319
-0.162803
-0.162209
-0.161501
-0.160632
-0.159545
-0.15818
-0.156475
-0.154358
-0.151784
-0.14872
-0.145144
-0.141064
-0.13653
-0.131641
-0.126477
-0.121085
-0.1155
-0.109759
-0.103879
-0.0978866
-0.0918121
-0.0856846
-0.0795479
-0.073458
-0.0674769
-0.061658
-0.0560259
-0.0505978
-0.0453793
-0.0403479
-0.0354827
-0.0307586
-0.0261338
-0.0215577
-0.0169679
-0.0122899
-0.00744605
-0.00130691
0.000559918
0.0037115
0.00700206
0.0103801
0.0138129
0.0172794
0.0207651
0.0242599
0.0277566
0.0312502
0.0347369
0.0382142
0.0416802
0.0451337
0.0485741
0.052001
0.0554144
0.0588143
0.0622012
0.0655756
0.0689381
0.0722893
0.0756301
0.0789612
0.0822835
0.0855978
0.0889052
0.0922064
0.0955024
0.0987942
0.102083
0.105369
0.108653
-0.219551
-0.21748
-0.215443
-0.21344
-0.211525
-0.209658
-0.207823
-0.206046
-0.204291
-0.202592
-0.200927
-0.199285
-0.197661
-0.19605
-0.194457
-0.192879
-0.191317
-0.189768
-0.188238
-0.186737
-0.185277
-0.183875
-0.182522
-0.181226
-0.179975
-0.178775
-0.177621
-0.176511
-0.17544
-0.17441
-0.173424
-0.172486
-0.1716
-0.170771
-0.169997
-0.169276
-0.168604
-0.167977
-0.167394
-0.166849
-0.16634
-0.165862
-0.165409
-0.164979
-0.164564
-0.164157
-0.163751
-0.163332
-0.162883
-0.162382
-0.161802
-0.161109
-0.160256
-0.159189
-0.157849
-0.15618
-0.154116
-0.151603
-0.148612
-0.145123
-0.141134
-0.136692
-0.131875
-0.126755
-0.12139
-0.115827
-0.11009
-0.104197
-0.098176
-0.0920635
-0.0858985
-0.0797351
-0.073637
-0.0676587
-0.0618449
-0.0562166
-0.0507843
-0.0455459
-0.0404896
-0.0356047
-0.0308688
-0.0262468
-0.0216987
-0.0171625
-0.0125686
-0.00782798
-0.00178688
0.000165581
0.00341362
0.00679033
0.0102315
0.0137092
0.0172077
0.0207165
0.0242283
0.0277377
0.0312406
0.0347344
0.0382168
0.0416867
0.045143
0.0485853
0.0520134
0.0554274
0.0588277
0.0622146
0.0655887
0.0689506
0.0723012
0.0756412
0.0789714
0.0822927
0.085606
0.0889123
0.0922125
0.0955074
0.0987981
0.102085
0.10537
0.108654
-0.21945
-0.217171
-0.214925
-0.212697
-0.210557
-0.208513
-0.206533
-0.204633
-0.20279
-0.20101
-0.199304
-0.197645
-0.196019
-0.194419
-0.192849
-0.191299
-0.189768
-0.188252
-0.186752
-0.185276
-0.183834
-0.182448
-0.181114
-0.179838
-0.178608
-0.177429
-0.176298
-0.175211
-0.174162
-0.173155
-0.172195
-0.171285
-0.170428
-0.169629
-0.168892
-0.168208
-0.167574
-0.166987
-0.166443
-0.165935
-0.165462
-0.165018
-0.164599
-0.164202
-0.163818
-0.163438
-0.163057
-0.162663
-0.162235
-0.161752
-0.161192
-0.160516
-0.159683
-0.158638
-0.157327
-0.155695
-0.153679
-0.151227
-0.148316
-0.144937
-0.141086
-0.136793
-0.132077
-0.126994
-0.121647
-0.116112
-0.110412
-0.104547
-0.0985291
-0.0923923
-0.0862006
-0.0800256
-0.0739307
-0.0679648
-0.0621595
-0.0565344
-0.0510983
-0.0458421
-0.0407578
-0.0358414
-0.0310867
-0.0264689
-0.0219514
-0.0174881
-0.0130355
-0.00857569
-0.00424143
-0.00057377
0.00296871
0.00649632
0.0100295
0.0135688
0.0171107
0.0206511
0.0241862
0.027713
0.0312291
0.0347327
0.0382225
0.0416977
0.0451578
0.0486028
0.0520326
0.0554476
0.0588482
0.0622349
0.0656085
0.0689696
0.0723191
0.0756579
0.0789867
0.0823066
0.0856184
0.0889231
0.0922216
0.0955149
0.0988039
0.10209
0.105373
0.108655
-0.219313
-0.21674
-0.214194
-0.211699
-0.209294
-0.207021
-0.204852
-0.202796
-0.200837
-0.198959
-0.197195
-0.195496
-0.19385
-0.19225
-0.1907
-0.189175
-0.187683
-0.186212
-0.184754
-0.183318
-0.181914
-0.180562
-0.179264
-0.178022
-0.176828
-0.175683
-0.174585
-0.173532
-0.172517
-0.171543
-0.17062
-0.169749
-0.168931
-0.168177
-0.167489
-0.166852
-0.166266
-0.165729
-0.165233
-0.164773
-0.164344
-0.163942
-0.163562
-0.163205
-0.162859
-0.162511
-0.16216
-0.161795
-0.161389
-0.160927
-0.160387
-0.159731
-0.158916
-0.157894
-0.156614
-0.155018
-0.153049
-0.150662
-0.147835
-0.144563
-0.140834
-0.136647
-0.132036
-0.127071
-0.121809
-0.116326
-0.110669
-0.104835
-0.0988285
-0.0927002
-0.0865288
-0.080381
-0.0743107
-0.0683645
-0.0625732
-0.0569545
-0.0515141
-0.0462453
-0.0411393
-0.0362006
-0.0314346
-0.026818
-0.0223199
-0.0179084
-0.0135515
-0.00924191
-0.00508616
-0.00121045
0.00251772
0.00617727
0.00980305
0.0134089
0.0169997
0.0205766
0.0241392
0.0276869
0.0312188
0.0347343
0.038233
0.0417147
0.0451796
0.0486277
0.0520594
0.0554754
0.0588762
0.0622626
0.0656353
0.0689953
0.0723433
0.0756803
0.0790073
0.0823252
0.0856349
0.0889375
0.0922338
0.0955249
0.0988117
0.102095
0.105376
0.108656
-0.219138
-0.216205
-0.213285
-0.210454
-0.207749
-0.205211
-0.202822
-0.200588
-0.198483
-0.196493
-0.194651
-0.192898
-0.191222
-0.189615
-0.188078
-0.186578
-0.185123
-0.183704
-0.182303
-0.180927
-0.179581
-0.178281
-0.177035
-0.175845
-0.174703
-0.173607
-0.172555
-0.171546
-0.170574
-0.16964
-0.168762
-0.167938
-0.167166
-0.166466
-0.165833
-0.165251
-0.164721
-0.16424
-0.163798
-0.163391
-0.163015
-0.162662
-0.162325
-0.162011
-0.161707
-0.161395
-0.161078
-0.160744
-0.160362
-0.159919
-0.159398
-0.158757
-0.157954
-0.156948
-0.155693
-0.154131
-0.15221
-0.149886
-0.147136
-0.143961
-0.140355
-0.136312
-0.131848
-0.126997
-0.121824
-0.11642
-0.110811
-0.104997
-0.0990148
-0.0929443
-0.0868496
-0.0807679
-0.0747455
-0.068833
-0.0630651
-0.0574589
-0.0520179
-0.046738
-0.0416188
-0.03667
-0.0318901
-0.0272565
-0.0227493
-0.0183475
-0.0140306
-0.00978979
-0.0056811
-0.00172565
0.00211188
0.00587067
0.00957711
0.0132463
0.0168863
0.0205013
0.0240935
0.027664
0.0312133
0.0347421
0.0382507
0.0417397
0.0452096
0.0486611
0.0520948
0.0555117
0.0589125
0.0622982
0.0656696
0.0690279
0.072374
0.0757088
0.0790333
0.0823487
0.0856558
0.0889556
0.0922492
0.0955375
0.0988215
0.102102
0.10538
0.108657
-0.218911
-0.215546
-0.212219
-0.209007
-0.205971
-0.203149
-0.200513
-0.198079
-0.195807
-0.193695
-0.191762
-0.189941
-0.188223
-0.186602
-0.185071
-0.183598
-0.182183
-0.18082
-0.179486
-0.178188
-0.176917
-0.175687
-0.174509
-0.173382
-0.172301
-0.171264
-0.170267
-0.169311
-0.168389
-0.167501
-0.166672
-0.1659
-0.165181
-0.164544
-0.163968
-0.163445
-0.162977
-0.162556
-0.162172
-0.161821
-0.1615
-0.161197
-0.16091
-0.160639
-0.160378
-0.160104
-0.159823
-0.159519
-0.159161
-0.158736
-0.158234
-0.157607
-0.156815
-0.15582
-0.154585
-0.153049
-0.151169
-0.148901
-0.14623
-0.143157
-0.139671
-0.135768
-0.131448
-0.126739
-0.121694
-0.116369
-0.110813
-0.105081
-0.0992162
-0.0932605
-0.0872424
-0.0812074
-0.075221
-0.0693406
-0.0635992
-0.0580129
-0.0525865
-0.0473157
-0.0421976
-0.0372371
-0.032428
-0.0277582
-0.0232196
-0.0187976
-0.0144804
-0.0102604
-0.00615598
-0.00215153
0.00175922
0.00559347
0.0093677
0.0130941
0.0167809
0.0204335
0.0240555
0.0276493
0.0312168
0.0347593
0.0382783
0.0417747
0.0452497
0.0487044
0.0521399
0.0555573
0.0589576
0.0623421
0.0657119
0.0690679
0.0724114
0.0757433
0.0790649
0.082377
0.0856809
0.0889774
0.0922677
0.0955527
0.0988333
0.102111
0.105385
0.108659
-0.218656
-0.214811
-0.21106
-0.207462
-0.20406
-0.200905
-0.197995
-0.195338
-0.19288
-0.19063
-0.188597
-0.186703
-0.18494
-0.1833
-0.181777
-0.180332
-0.178963
-0.177657
-0.1764
-0.175188
-0.173999
-0.172851
-0.171753
-0.170697
-0.169682
-0.168709
-0.16777
-0.16687
-0.166003
-0.165172
-0.164398
-0.163681
-0.163023
-0.162449
-0.161935
-0.161472
-0.161068
-0.160709
-0.160385
-0.160091
-0.159825
-0.159574
-0.159337
-0.159109
-0.158888
-0.158652
-0.158405
-0.158129
-0.157793
-0.157384
-0.156895
-0.156275
-0.155487
-0.1545
-0.153276
-0.151763
-0.149918
-0.147704
-0.145111
-0.14213
-0.138753
-0.134976
-0.130798
-0.126239
-0.121331
-0.116122
-0.11069
-0.105101
-0.0993772
-0.0935251
-0.0875725
-0.0815921
-0.0756632
-0.0698402
-0.0641473
-0.0585957
-0.0531911
-0.0479352
-0.042829
-0.0378667
-0.0330318
-0.0283202
-0.0237372
-0.019279
-0.0149385
-0.0107002
-0.0065658
-0.00251401
0.00145596
0.00535203
0.00918429
0.0129618
0.016692
0.0203804
0.0240313
0.027648
0.0312333
0.0347894
0.0383184
0.0418219
0.0453016
0.0487591
0.0521958
0.0556132
0.0590125
0.0623952
0.0657624
0.0691156
0.0724558
0.0757842
0.0791021
0.0824105
0.0857104
0.0890031
0.0922894
0.0955704
0.0988471
0.10212
0.105391
0.108661
-0.218406
-0.214066
-0.209839
-0.20581
-0.202035
-0.198535
-0.195324
-0.192424
-0.189778
-0.187373
-0.185226
-0.183256
-0.181443
-0.179781
-0.178267
-0.176857
-0.175539
-0.174294
-0.173115
-0.171993
-0.17089
-0.169831
-0.168816
-0.167836
-0.166893
-0.165986
-0.165111
-0.164269
-0.163462
-0.162696
-0.161984
-0.161329
-0.160736
-0.160222
-0.15977
-0.15937
-0.159027
-0.158728
-0.158464
-0.158227
-0.158014
-0.157812
-0.157623
-0.157439
-0.157253
-0.157052
-0.156835
-0.156581
-0.156262
-0.155867
-0.155385
-0.154763
-0.153977
-0.152988
-0.151764
-0.150263
-0.148445
-0.146281
-0.143758
-0.140867
-0.137599
-0.13395
-0.129921
-0.12552
-0.120773
-0.115728
-0.110449
-0.10498
-0.0993296
-0.0935388
-0.0876821
-0.0818267
-0.0760232
-0.0703023
-0.0646809
-0.0591794
-0.0538128
-0.0485825
-0.0434842
-0.0385106
-0.0336533
-0.0289091
-0.024282
-0.0197778
-0.0153948
-0.0111126
-0.00692897
-0.00282589
0.00119856
0.00514924
0.00903294
0.0128566
0.0166265
0.0203482
0.0240263
0.0276647
0.0312669
0.0348357
0.0383739
0.0418837
0.0453674
0.0488269
0.0522639
0.0556804
0.0590779
0.0624579
0.0658219
0.0691713
0.0725075
0.0758317
0.0791452
0.082449
0.0857445
0.0890325
0.0923142
0.0955907
0.0988628
0.102132
0.105398
0.108663
-0.218137
-0.213276
-0.208563
-0.20409
-0.199927
-0.196087
-0.192571
-0.189397
-0.186545
-0.183977
-0.181702
-0.179652
-0.177789
-0.176105
-0.174606
-0.17323
-0.171966
-0.170793
-0.169691
-0.16865
-0.167643
-0.166675
-0.165747
-0.164848
-0.16398
-0.163142
-0.162334
-0.161557
-0.160816
-0.160117
-0.15947
-0.158882
-0.158354
-0.157898
-0.157506
-0.157166
-0.156882
-0.15664
-0.156434
-0.156252
-0.156088
-0.155933
-0.155786
-0.155638
-0.155485
-0.155312
-0.155118
-0.15488
-0.15457
-0.154184
-0.153699
-0.15307
-0.15228
-0.151283
-0.150056
-0.148561
-0.146767
-0.144645
-0.142185
-0.139378
-0.136216
-0.13269
-0.128801
-0.12456
-0.119986
-0.115105
-0.109957
-0.104589
-0.0990487
-0.0933993
-0.0877011
-0.0820011
-0.0763299
-0.0707102
-0.0651677
-0.0597264
-0.0543995
-0.0491927
-0.0441042
-0.0391277
-0.0342564
-0.0294875
-0.0248252
-0.0202711
-0.0158281
-0.0114873
-0.00724755
-0.00309058
0.00098657
0.00498783
0.00891846
0.0127841
0.0165905
0.0203428
0.0240458
0.0277041
0.0313215
0.0349016
0.0384477
0.0419626
0.045449
0.0489092
0.0523455
0.05576
0.0591545
0.0625309
0.0658906
0.0692355
0.0725667
0.0758859
0.0791941
0.0824928
0.0857829
0.0890658
0.0923423
0.0956136
0.0988806
0.102144
0.105406
0.108666
-0.217867
-0.212467
-0.207244
-0.202312
-0.197744
-0.193557
-0.189746
-0.186302
-0.183227
-0.180487
-0.178076
-0.175945
-0.17404
-0.17233
-0.170849
-0.16951
-0.168308
-0.167209
-0.166196
-0.165235
-0.164319
-0.163439
-0.162598
-0.161783
-0.160992
-0.160225
-0.159488
-0.158782
-0.15811
-0.157477
-0.156895
-0.15637
-0.155906
-0.155507
-0.15517
-0.154883
-0.154654
-0.154467
-0.154311
-0.15418
-0.154063
-0.153949
-0.153838
-0.153721
-0.153592
-0.153441
-0.153261
-0.153027
-0.152717
-0.152326
-0.151825
-0.151185
-0.150382
-0.149375
-0.148141
-0.146651
-0.144878
-0.142796
-0.140395
-0.137665
-0.134597
-0.131187
-0.127439
-0.12336
-0.118962
-0.11426
-0.10928
-0.104076
-0.0987074
-0.0932262
-0.0876792
-0.0821161
-0.07657
-0.0710616
-0.0656074
-0.0602265
-0.0549393
-0.0497569
-0.0446795
-0.0397023
-0.0348196
-0.0300277
-0.0253253
-0.0207186
-0.0162194
-0.0118188
-0.00751868
-0.00330637
0.000822359
0.00487147
0.00884562
0.0127498
0.0165893
0.0203693
0.0240947
0.0277705
0.031401
0.0349905
0.0385426
0.0420608
0.0455483
0.0490077
0.0524419
0.055853
0.0592433
0.0626147
0.0659692
0.0693083
0.0726337
0.0759469
0.0792491
0.0825417
0.0858259
0.0891028
0.0923735
0.095639
0.0989002
0.102158
0.105414
0.108668
-0.217597
-0.211672
-0.205948
-0.200554
-0.195575
-0.191026
-0.186905
-0.183193
-0.17989
-0.176962
-0.174399
-0.172177
-0.170243
-0.168533
-0.167057
-0.165758
-0.164626
-0.163603
-0.162678
-0.161803
-0.160973
-0.160178
-0.159422
-0.158687
-0.157973
-0.15728
-0.156615
-0.155981
-0.155379
-0.154811
-0.15429
-0.153823
-0.153416
-0.153071
-0.152783
-0.152545
-0.152364
-0.152227
-0.152116
-0.152026
-0.151947
-0.151867
-0.151785
-0.15169
-0.15158
-0.151441
-0.151265
-0.151024
-0.150707
-0.150297
-0.149774
-0.14911
-0.148286
-0.147262
-0.146014
-0.144526
-0.14277
-0.140725
-0.138377
-0.135721
-0.13275
-0.129462
-0.125859
-0.121938
-0.117706
-0.113181
-0.108395
-0.10339
-0.0982067
-0.0928956
-0.08751
-0.082098
-0.0766922
-0.0712998
-0.0659396
-0.0606386
-0.0554123
-0.0502647
-0.0451995
-0.0402214
-0.0353293
-0.030517
-0.02578
-0.0211239
-0.0165632
-0.0120976
-0.00773605
-0.00346858
0.000710334
0.00480488
0.00881952
0.012759
0.0166284
0.0204328
0.0241776
0.0278681
0.0315091
0.0351054
0.0386613
0.0421806
0.0456671
0.049124
0.0525541
0.0559602
0.0593448
0.06271
0.0660578
0.0693901
0.0727086
0.0760148
0.0793101
0.0825959
0.0858733
0.0891436
0.0924077
0.0956668
0.0989218
0.102174
0.105423
0.108672
-0.217323
-0.210864
-0.204644
-0.198799
-0.193412
-0.1885
-0.184067
-0.180089
-0.176565
-0.17346
-0.170749
-0.16842
-0.166441
-0.164747
-0.163293
-0.16204
-0.160975
-0.160036
-0.159192
-0.1584
-0.157652
-0.156938
-0.156262
-0.155602
-0.15496
-0.154338
-0.153746
-0.153183
-0.152648
-0.152144
-0.151679
-0.151266
-0.150909
-0.15061
-0.150366
-0.150171
-0.15003
-0.149933
-0.149864
-0.149807
-0.149758
-0.1497
-0.149631
-0.149544
-0.149438
-0.149301
-0.149119
-0.148869
-0.148534
-0.148096
-0.147538
-0.146845
-0.145994
-0.144951
-0.143693
-0.142203
-0.140463
-0.138453
-0.136159
-0.133578
-0.130704
-0.127531
-0.124057
-0.120281
-0.116208
-0.111852
-0.107237
-0.102407
-0.0974124
-0.0923012
-0.087117
-0.081894
-0.0766535
-0.0714133
-0.0661871
-0.0609905
-0.0558317
-0.0507227
-0.045674
-0.0406948
-0.0357884
-0.0309493
-0.0261732
-0.0214667
-0.0168443
-0.0123116
-0.00789109
-0.00357082
0.000656128
0.00479358
0.00884573
0.0128172
0.0167129
0.0205384
0.0242992
0.028001
0.0316493
0.0352495
0.0388063
0.0423242
0.0458073
0.0492592
0.0526833
0.0560826
0.0594597
0.062817
0.0661568
0.0694811
0.0727914
0.0760896
0.0793771
0.0826551
0.0859251
0.089188
0.092445
0.0956971
0.0989452
0.10219
0.105433
0.108675
-0.217044
-0.21004
-0.203311
-0.197012
-0.191228
-0.185972
-0.181239
-0.177011
-0.173274
-0.169999
-0.167154
-0.164722
-0.162686
-0.160997
-0.159582
-0.158391
-0.157394
-0.156539
-0.155773
-0.155062
-0.154393
-0.153757
-0.153153
-0.152562
-0.151985
-0.151429
-0.150902
-0.150407
-0.149937
-0.149492
-0.149081
-0.148715
-0.148402
-0.148146
-0.147939
-0.147777
-0.147666
-0.147595
-0.147554
-0.147523
-0.147494
-0.147451
-0.147388
-0.147296
-0.147175
-0.147018
-0.146812
-0.146541
-0.146184
-0.145715
-0.145118
-0.144388
-0.143507
-0.142447
-0.141183
-0.139694
-0.137974
-0.135998
-0.133759
-0.131253
-0.12847
-0.125402
-0.122048
-0.118412
-0.11449
-0.110291
-0.105849
-0.101209
-0.0964171
-0.0915153
-0.0865409
-0.0815213
-0.0764709
-0.0713976
-0.0663148
-0.061232
-0.0561622
-0.0511174
-0.0461031
-0.041128
-0.0362019
-0.0313266
-0.026502
-0.0217378
-0.0170478
-0.0124366
-0.00797196
-0.00360575
0.000665919
0.00484353
0.00893012
0.0129301
0.0168484
0.020691
0.0244639
0.0281732
0.0318252
0.0354256
0.03898
0.0424934
0.0459702
0.0494147
0.0528304
0.0562206
0.0595883
0.0629361
0.0662663
0.0695811
0.0728821
0.0761712
0.0794499
0.0827194
0.085981
0.0892359
0.0924851
0.0957295
0.0989703
0.102208
0.105444
0.108678
-0.216758
-0.2092
-0.201969
-0.195227
-0.18906
-0.183473
-0.17845
-0.173978
-0.170042
-0.166618
-0.163671
-0.161166
-0.159078
-0.157369
-0.155971
-0.154836
-0.153906
-0.153128
-0.152442
-0.15181
-0.151219
-0.150656
-0.150117
-0.149589
-0.149072
-0.148573
-0.148104
-0.147666
-0.147256
-0.146867
-0.146505
-0.146182
-0.145908
-0.145687
-0.145512
-0.145378
-0.145286
-0.145224
-0.14519
-0.145168
-0.145143
-0.145107
-0.145045
-0.144945
-0.144799
-0.144607
-0.144358
-0.144048
-0.143656
-0.14315
-0.142513
-0.141741
-0.140826
-0.139753
-0.138488
-0.137004
-0.135308
-0.133369
-0.131182
-0.128742
-0.126041
-0.123074
-0.119832
-0.116317
-0.112526
-0.108489
-0.104238
-0.099805
-0.0952244
-0.0905391
-0.0857853
-0.0809834
-0.0761398
-0.0712562
-0.0663367
-0.0613927
-0.0564284
-0.0514534
-0.046481
-0.0415184
-0.0365708
-0.0316489
-0.0267641
-0.0219313
-0.0171619
-0.0123466
-0.00796883
-0.00356782
0.000745557
0.00496085
0.00907882
0.0131036
0.0170405
0.0208958
0.0246762
0.0283887
0.03204
0.0356367
0.0391848
0.0426901
0.0461574
0.0495913
0.0529959
0.0563748
0.059731
0.0630673
0.0663863
0.06969
0.0729805
0.0762594
0.0795282
0.0827882
0.0860408
0.089287
0.0925278
0.0957641
0.0989969
0.102227
0.105455
0.108682
-0.216469
-0.208347
-0.2006
-0.193417
-0.186878
-0.180989
-0.175727
-0.171062
-0.166967
-0.163414
-0.160371
-0.157798
-0.15567
-0.15394
-0.152542
-0.151436
-0.15055
-0.149825
-0.149208
-0.148652
-0.148135
-0.147643
-0.147164
-0.146695
-0.146239
-0.14579
-0.145366
-0.144974
-0.144611
-0.144271
-0.143955
-0.143672
-0.143431
-0.143239
-0.143087
-0.142971
-0.142885
-0.142823
-0.14278
-0.142747
-0.142711
-0.142666
-0.14259
-0.142471
-0.142295
-0.14206
-0.141761
-0.1414
-0.14096
-0.140411
-0.139736
-0.138926
-0.137979
-0.136889
-0.135616
-0.134139
-0.132458
-0.13055
-0.128417
-0.126043
-0.123422
-0.120539
-0.117389
-0.113987
-0.110337
-0.10646
-0.102388
-0.0981561
-0.0937993
-0.0893522
-0.0848366
-0.0802655
-0.0756423
-0.0709652
-0.0662293
-0.0614361
-0.0565937
-0.0517063
-0.046787
-0.0418431
-0.0368782
-0.0319098
-0.0269614
-0.0220589
-0.0172331
-0.0125011
-0.00792796
-0.00346059
0.00089967
0.00515176
0.00929828
0.0133439
0.0172948
0.0211579
0.0249407
0.0286512
0.0322968
0.0358851
0.0394226
0.0429157
0.0463698
0.0497899
0.0531805
0.0565452
0.0598876
0.0632105
0.0665164
0.0698077
0.0730862
0.0763537
0.0796117
0.0828615
0.0861042
0.089341
0.0925728
0.0958005
0.0990249
0.102247
0.105467
0.108686
-0.216167
-0.207462
-0.199194
-0.19158
-0.18469
-0.178515
-0.17303
-0.168198
-0.163978
-0.160333
-0.157226
-0.154612
-0.152463
-0.150722
-0.149331
-0.148248
-0.147392
-0.146701
-0.14613
-0.145631
-0.145174
-0.144739
-0.144316
-0.1439
-0.143498
-0.143101
-0.14272
-0.142366
-0.142038
-0.141734
-0.141456
-0.141207
-0.140991
-0.140816
-0.140672
-0.140558
-0.140467
-0.140393
-0.140329
-0.140271
-0.140209
-0.140138
-0.14003
-0.139878
-0.13966
-0.139376
-0.139024
-0.138605
-0.138102
-0.137493
-0.136766
-0.135913
-0.134935
-0.133831
-0.132558
-0.131089
-0.12942
-0.127534
-0.125441
-0.123121
-0.120571
-0.117774
-0.114727
-0.111446
-0.107942
-0.104236
-0.100354
-0.0963306
-0.0921979
-0.0879843
-0.0837067
-0.0793714
-0.0749746
-0.070511
-0.0659753
-0.0613594
-0.0566564
-0.0518647
-0.0469963
-0.0420695
-0.0370972
-0.032092
-0.0270831
-0.0221129
-0.0172225
-0.012444
-0.00779611
-0.00326972
0.00113639
0.00542361
0.00959558
0.0136579
0.0176175
0.0214826
0.025262
0.0289644
0.0325988
0.0361731
0.039695
0.0431713
0.0466081
0.0500107
0.053384
0.0567318
0.0600579
0.0633651
0.0666562
0.0699335
0.0731987
0.0764537
0.0796999
0.0829386
0.0861708
0.0893976
0.0926199
0.0958385
0.0990542
0.102268
0.105479
0.10869
-0.215851
-0.206553
-0.197762
-0.189711
-0.18249
-0.17607
-0.170398
-0.165419
-0.161091
-0.157373
-0.154225
-0.151594
-0.149444
-0.147703
-0.146324
-0.145256
-0.144426
-0.143766
-0.14323
-0.142773
-0.142362
-0.141973
-0.141593
-0.141221
-0.140859
-0.140504
-0.140164
-0.139845
-0.139547
-0.139272
-0.139022
-0.138796
-0.138597
-0.138429
-0.138281
-0.138155
-0.138046
-0.137946
-0.137852
-0.137757
-0.137653
-0.137535
-0.137379
-0.137178
-0.136908
-0.136567
-0.136158
-0.135678
-0.13511
-0.134432
-0.133644
-0.132735
-0.131707
-0.130566
-0.129282
-0.127817
-0.126155
-0.124288
-0.122224
-0.119959
-0.117478
-0.114776
-0.111848
-0.108703
-0.105352
-0.101825
-0.0981466
-0.0943423
-0.0904356
-0.0864528
-0.082409
-0.0783052
-0.074138
-0.0698954
-0.06556
-0.0611186
-0.0565622
-0.0518865
-0.047094
-0.0421997
-0.0372259
-0.0321925
-0.0271327
-0.0220955
-0.0171311
-0.0122858
-0.00757127
-0.00298758
0.00146407
0.00578481
0.0099788
0.0140527
0.018015
0.0218755
0.0256444
0.029332
0.0329484
0.0365027
0.0400032
0.0434577
0.0468726
0.0502537
0.0536061
0.056934
0.0602412
0.0635306
0.066805
0.0700666
0.0733173
0.0765587
0.0797922
0.083019
0.08624
0.0894564
0.0926687
0.0958778
0.0990843
0.102289
0.105492
0.108694
-0.21553
-0.205611
-0.196261
-0.187751
-0.180202
-0.173563
-0.167748
-0.162671
-0.158277
-0.154523
-0.15136
-0.148726
-0.146583
-0.144856
-0.143496
-0.142445
-0.141637
-0.141006
-0.140498
-0.140076
-0.139699
-0.139345
-0.139003
-0.138667
-0.138338
-0.138019
-0.137713
-0.137423
-0.137152
-0.136898
-0.136667
-0.136455
-0.136262
-0.136088
-0.135927
-0.135779
-0.13564
-0.135504
-0.135368
-0.135222
-0.135063
-0.134881
-0.134662
-0.134399
-0.134069
-0.133661
-0.133189
-0.132643
-0.132006
-0.131258
-0.130406
-0.129439
-0.128355
-0.127168
-0.125859
-0.124387
-0.12273
-0.12088
-0.118846
-0.116633
-0.114224
-0.111615
-0.108808
-0.10581
-0.10263
-0.0992901
-0.0958118
-0.0922199
-0.0885367
-0.0847799
-0.0809612
-0.0770848
-0.0731425
-0.0691181
-0.0649906
-0.0607359
-0.0563353
-0.0517825
-0.0470795
-0.042237
-0.0372744
-0.0322239
-0.0271168
-0.0220036
-0.0169555
-0.0120349
-0.00724949
-0.00260535
0.00189299
0.00624565
0.0104575
0.0145369
0.0184944
0.0223422
0.0260924
0.0297573
0.0333481
0.0368752
0.0403481
0.043775
0.047163
0.0505183
0.0538461
0.057151
0.0604365
0.0637059
0.0669618
0.0702062
0.073441
0.0766678
0.0798877
0.0831019
0.0863113
0.0895166
0.0927187
0.095918
0.0991151
0.102311
0.105505
0.108699
-0.215217
-0.204673
-0.194719
-0.185688
-0.177774
-0.170937
-0.165019
-0.159899
-0.155489
-0.151738
-0.148588
-0.145976
-0.143857
-0.142162
-0.140833
-0.139805
-0.139022
-0.138417
-0.137932
-0.137535
-0.137186
-0.136859
-0.136546
-0.136242
-0.135945
-0.135656
-0.135378
-0.135114
-0.134864
-0.134627
-0.134407
-0.1342
-0.134003
-0.133813
-0.133628
-0.133449
-0.133271
-0.133086
-0.1329
-0.132692
-0.132465
-0.13221
-0.131914
-0.131579
-0.131182
-0.1307
-0.13016
-0.129547
-0.128834
-0.128016
-0.127101
-0.126079
-0.124935
-0.123698
-0.122356
-0.120868
-0.119211
-0.117381
-0.11538
-0.113223
-0.11089
-0.108377
-0.105687
-0.102835
-0.0998231
-0.0966658
-0.0933866
-0.0900016
-0.0865314
-0.0829905
-0.0793893
-0.0757319
-0.0720071
-0.068193
-0.0642596
-0.0601759
-0.0559292
-0.0515116
-0.0469204
-0.0421561
-0.037231
-0.0321699
-0.0270126
-0.0218245
-0.0166894
-0.0116856
-0.00682043
-0.00210974
0.00243713
0.00681935
0.0110433
0.0151202
0.0190637
0.0228888
0.0266106
0.0302431
0.0337995
0.0372915
0.0407296
0.0441226
0.0474784
0.0508032
0.0541026
0.0573811
0.0606424
0.0638896
0.067125
0.0703509
0.0735687
0.0767799
0.0799855
0.0831866
0.0863838
0.0895779
0.0927693
0.0959586
0.0991463
0.102333
0.105518
0.108703
-0.214828
-0.203565
-0.193004
-0.183494
-0.175245
-0.168211
-0.162192
-0.15705
-0.152657
-0.148949
-0.145855
-0.143301
-0.141227
-0.139584
-0.138299
-0.137304
-0.136553
-0.135975
-0.135514
-0.135139
-0.134813
-0.134512
-0.134226
-0.13395
-0.133682
-0.133421
-0.133169
-0.132926
-0.132693
-0.132469
-0.132256
-0.132045
-0.131836
-0.131623
-0.131404
-0.131187
-0.130963
-0.130722
-0.130474
-0.130199
-0.129897
-0.129562
-0.129185
-0.12877
-0.128294
-0.127738
-0.127125
-0.126445
-0.125658
-0.12477
-0.123795
-0.122718
-0.121516
-0.120229
-0.118849
-0.117339
-0.115674
-0.113866
-0.111896
-0.109788
-0.107531
-0.105125
-0.102552
-0.0998359
-0.0969884
-0.0940095
-0.0909216
-0.0877336
-0.0844631
-0.0811217
-0.0777167
-0.0742544
-0.0707217
-0.0670929
-0.0633333
-0.0594099
-0.0553127
-0.0510345
-0.0465696
-0.0419114
-0.0370575
-0.0320215
-0.0268406
-0.0215786
-0.0163372
-0.0112287
-0.00626731
-0.00148109
0.00311585
0.00752319
0.0117507
0.0158139
0.0197312
0.0235214
0.0272027
0.0307917
0.0343036
0.0377516
0.0411469
0.0444994
0.047817
0.0511066
0.0543736
0.0576225
0.0608569
0.0640797
0.0672932
0.0704991
0.0736989
0.0768937
0.0800845
0.083272
0.0864568
0.0896393
0.09282
0.0959993
0.0991773
0.102355
0.105531
0.108707
-0.214435
-0.202438
-0.191292
-0.181329
-0.172708
-0.165429
-0.1593
-0.154154
-0.149818
-0.14619
-0.143181
-0.14071
-0.138693
-0.137108
-0.135874
-0.134922
-0.134206
-0.133655
-0.13322
-0.132867
-0.132566
-0.132292
-0.132035
-0.131789
-0.131552
-0.131318
-0.131089
-0.130867
-0.130649
-0.130435
-0.130224
-0.130004
-0.129776
-0.129534
-0.129277
-0.129012
-0.128737
-0.128437
-0.128123
-0.127781
-0.127403
-0.126989
-0.126532
-0.126035
-0.125473
-0.124842
-0.124155
-0.123405
-0.122551
-0.121602
-0.120571
-0.119445
-0.118194
-0.116858
-0.11544
-0.113907
-0.112219
-0.110417
-0.108478
-0.106417
-0.104231
-0.101917
-0.0994664
-0.0968805
-0.094186
-0.0913745
-0.088459
-0.0854463
-0.0823495
-0.0791723
-0.0759244
-0.0726132
-0.0692286
-0.0657527
-0.0621442
-0.0583696
-0.054415
-0.0502822
-0.0459662
-0.0414476
-0.0367074
-0.0317413
-0.0265702
-0.0212437
-0.0158865
-0.010648
-0.005564
-0.000690534
0.00395592
0.00837952
0.012597
0.0166311
0.0205061
0.0242458
0.0278721
0.0314046
0.0348604
0.0382541
0.0415982
0.0449028
0.0481764
0.0514257
0.0546564
0.0578726
0.0610776
0.0642741
0.0674641
0.070649
0.07383
0.0770079
0.0801835
0.0833571
0.0865293
0.0897002
0.0928702
0.0960394
0.099208
0.102376
0.105544
0.108712
-0.21416
-0.20156
-0.189751
-0.179173
-0.170101
-0.162569
-0.156355
-0.151217
-0.146956
-0.143423
-0.140518
-0.13815
-0.136217
-0.1347
-0.133526
-0.132631
-0.131954
-0.131435
-0.131028
-0.1307
-0.130428
-0.130186
-0.129963
-0.129752
-0.129549
-0.129345
-0.129143
-0.128942
-0.128738
-0.128533
-0.128321
-0.128088
-0.127833
-0.127558
-0.127258
-0.126943
-0.126612
-0.126257
-0.125878
-0.125472
-0.125027
-0.124541
-0.124011
-0.123436
-0.122796
-0.122094
-0.121337
-0.120519
-0.119608
-0.11861
-0.11753
-0.116358
-0.115069
-0.113693
-0.112237
-0.110685
-0.108986
-0.107176
-0.105245
-0.1032
-0.101075
-0.098834
-0.0965029
-0.0940386
-0.0914722
-0.0888082
-0.086039
-0.0831627
-0.0801925
-0.0771235
-0.0739636
-0.0707321
-0.0674319
-0.0640697
-0.0605742
-0.0569121
-0.0530833
-0.0491262
-0.0450214
-0.0407092
-0.0361596
-0.0313445
-0.0262713
-0.0209312
-0.0154063
-0.00993271
-0.00467058
0.000303592
0.00499331
0.00941626
0.0136023
0.0175852
0.0213969
0.0250668
0.0286209
0.0320816
0.0354682
0.0387966
0.04208
0.0453292
0.0485526
0.0517569
0.0549474
0.0581279
0.0613014
0.06447
0.0676353
0.0707984
0.0739601
0.0771208
0.0802809
0.0834407
0.0866003
0.0897597
0.0929191
0.0960785
0.0992378
0.102397
0.105556
0.108716
-0.21389
-0.200627
-0.188118
-0.176992
-0.167479
-0.159625
-0.153266
-0.148135
-0.14398
-0.140595
-0.137838
-0.135605
-0.133791
-0.132351
-0.131237
-0.1304
-0.129774
-0.129291
-0.128915
-0.128621
-0.128381
-0.12818
-0.127998
-0.12783
-0.127666
-0.127502
-0.127332
-0.127155
-0.126965
-0.126766
-0.126549
-0.126299
-0.126012
-0.125696
-0.125351
-0.124986
-0.124602
-0.124198
-0.123768
-0.123309
-0.12281
-0.122268
-0.121676
-0.121036
-0.120333
-0.119574
-0.118761
-0.117889
-0.116938
-0.115907
-0.114796
-0.113585
-0.112269
-0.110864
-0.109374
-0.10779
-0.106082
-0.104264
-0.102346
-0.10032
-0.0982098
-0.0960175
-0.0937837
-0.0914614
-0.0889933
-0.0864286
-0.0837538
-0.0809472
-0.0780025
-0.0749394
-0.0717686
-0.0685224
-0.0651913
-0.06185
-0.0584128
-0.0548472
-0.0511585
-0.0474775
-0.0437249
-0.0396934
-0.0354059
-0.030802
-0.0258734
-0.0205463
-0.0148573
-0.00903009
-0.00350917
0.00156115
0.00627454
0.0106661
0.0147879
0.0186892
0.0224109
0.0259875
0.0294489
0.0328205
0.0361234
0.0393745
0.0425877
0.0457736
0.0489407
0.0520954
0.0552422
0.0583845
0.0615247
0.0646643
0.0678042
0.070945
0.0740871
0.0772305
0.0803753
0.0835214
0.0866687
0.089817
0.0929661
0.096116
0.0992664
0.102417
0.105568
0.10872
-0.213341
-0.199345
-0.18644
-0.174905
-0.165009
-0.156867
-0.150319
-0.145109
-0.140989
-0.137742
-0.135149
-0.133074
-0.131405
-0.130062
-0.129011
-0.128211
-0.127634
-0.127204
-0.126865
-0.126611
-0.126411
-0.12626
-0.126124
-0.126009
-0.125893
-0.125781
-0.125656
-0.125511