/*--------------------------------*- C++ -*----------------------------------*\
  =========                 |
  \\      /  F ield         | OpenFOAM: The Open Source CFD Toolbox
   \\    /   O peration     | Website:  https://openfoam.org
    \\  /    A nd           | Version:  6
     \\/     M anipulation  |
\*---------------------------------------------------------------------------*/
FoamFile
{
    version     2.0;
    format      ascii;
    class       volScalarField;
    location    "4600";
    object      T;
}
// * * * * * * * * * * * * * * * * * * * * * * * * * * * * * * * * * * * * * //

dimensions      [0 0 0 1 0 0 0];

internalField   nonuniform List<scalar> 
4800
(
552.516
552.448
552.383
552.319
552.257
552.195
552.134
552.073
552.013
551.954
551.894
551.835
551.776
551.717
551.659
551.6
551.542
551.484
551.428
551.373
551.32
551.269
551.22
551.172
551.127
551.083
551.04
550.999
550.959
550.921
550.884
550.85
550.817
550.786
550.756
550.729
550.703
550.679
550.656
550.635
550.615
550.597
550.579
550.562
550.546
550.53
550.514
550.498
550.481
550.462
550.44
550.414
550.382
550.342
550.292
550.229
550.15
550.055
549.942
549.811
549.661
549.496
549.318
549.13
548.934
548.731
548.521
548.309
548.093
547.875
547.655
547.433
547.213
546.995
546.784
546.58
546.383
546.194
546.012
545.836
545.665
545.497
545.33
545.163
544.991
544.815
544.632
544.524
544.41
544.292
544.171
544.047
543.922
543.796
543.67
543.543
543.416
543.29
543.164
543.039
542.913
542.789
542.664
542.541
542.417
542.294
542.172
542.05
541.929
541.807
541.687
541.566
541.446
541.326
541.206
541.087
540.967
540.848
540.729
540.61
552.515
552.444
552.376
552.309
552.245
552.181
552.118
552.057
551.995
551.935
551.876
551.816
551.758
551.699
551.64
551.582
551.525
551.468
551.412
551.357
551.304
551.253
551.203
551.156
551.11
551.066
551.024
550.983
550.944
550.906
550.87
550.835
550.802
550.772
550.743
550.716
550.69
550.667
550.645
550.624
550.604
550.586
550.569
550.552
550.537
550.521
550.506
550.49
550.473
550.454
550.433
550.407
550.375
550.336
550.287
550.225
550.148
550.055
549.944
549.814
549.666
549.502
549.324
549.137
548.942
548.739
548.531
548.318
548.1
547.88
547.658
547.435
547.214
546.997
546.786
546.582
546.385
546.196
546.013
545.837
545.666
545.498
545.332
545.165
544.996
544.82
544.636
544.53
544.415
544.296
544.174
544.049
543.923
543.797
543.67
543.543
543.417
543.29
543.164
543.038
542.913
542.788
542.664
542.54
542.417
542.294
542.172
542.05
541.928
541.807
541.686
541.566
541.446
541.326
541.206
541.086
540.967
540.848
540.729
540.61
552.512
552.437
552.363
552.291
552.221
552.153
552.087
552.023
551.959
551.897
551.837
551.777
551.718
551.66
551.602
551.545
551.488
551.432
551.377
551.322
551.269
551.219
551.17
551.123
551.077
551.034
550.992
550.952
550.913
550.875
550.84
550.805
550.773
550.743
550.715
550.689
550.665
550.642
550.621
550.601
550.583
550.565
550.549
550.533
550.518
550.503
550.489
550.473
550.457
550.439
550.418
550.393
550.362
550.323
550.275
550.214
550.139
550.048
549.94
549.813
549.669
549.508
549.333
549.147
548.953
548.751
548.543
548.329
548.111
547.889
547.665
547.442
547.221
547.004
546.793
546.589
546.392
546.202
546.019
545.841
545.67
545.502
545.337
545.172
545.006
544.834
544.65
544.544
544.426
544.304
544.179
544.053
543.926
543.799
543.671
543.544
543.417
543.29
543.164
543.038
542.913
542.788
542.664
542.54
542.417
542.294
542.171
542.049
541.928
541.807
541.686
541.566
541.445
541.325
541.206
541.086
540.967
540.848
540.729
540.61
552.509
552.426
552.344
552.264
552.186
552.112
552.04
551.971
551.904
551.84
551.778
551.718
551.659
551.601
551.544
551.488
551.432
551.377
551.323
551.269
551.217
551.167
551.118
551.072
551.028
550.985
550.944
550.904
550.866
550.83
550.795
550.762
550.731
550.702
550.675
550.65
550.627
550.606
550.586
550.568
550.551
550.535
550.519
550.505
550.491
550.477
550.463
550.449
550.434
550.416
550.396
550.371
550.341
550.303
550.256
550.197
550.123
550.035
549.929
549.807
549.667
549.511
549.34
549.156
548.962
548.761
548.554
548.342
548.124
547.901
547.676
547.452
547.231
547.015
546.804
546.6
546.403
546.213
546.028
545.85
545.678
545.51
545.346
545.184
545.023
544.861
544.704
544.571
544.442
544.314
544.186
544.058
543.929
543.801
543.673
543.545
543.417
543.29
543.164
543.038
542.912
542.787
542.663
542.539
542.416
542.293
542.171
542.049
541.927
541.806
541.685
541.565
541.445
541.325
541.205
541.086
540.967
540.848
540.729
540.61
552.504
552.41
552.318
552.228
552.14
552.058
551.979
551.905
551.834
551.765
551.701
551.64
551.58
551.522
551.466
551.411
551.357
551.303
551.25
551.198
551.147
551.098
551.051
551.006
550.963
550.921
550.882
550.843
550.807
550.771
550.738
550.706
550.677
550.649
550.624
550.601
550.58
550.56
550.542
550.526
550.51
550.496
550.482
550.469
550.456
550.444
550.431
550.418
550.403
550.386
550.367
550.343
550.313
550.276
550.23
550.172
550.101
550.014
549.912
549.793
549.658
549.506
549.339
549.159
548.968
548.769
548.564
548.352
548.134
547.912
547.688
547.465
547.245
547.03
546.819
546.616
546.418
546.227
546.042
545.863
545.69
545.523
545.36
545.2
545.042
544.885
544.735
544.594
544.459
544.326
544.195
544.064
543.934
543.804
543.675
543.546
543.418
543.29
543.163
543.037
542.912
542.786
542.662
542.538
542.415
542.292
542.17
542.048
541.926
541.805
541.685
541.564
541.444
541.325
541.205
541.086
540.966
540.847
540.728
540.609
552.497
552.391
552.285
552.182
552.084
551.992
551.906
551.825
551.748
551.676
551.609
551.546
551.485
551.427
551.371
551.317
551.264
551.212
551.162
551.112
551.063
551.016
550.971
550.927
550.886
550.846
550.808
550.771
550.736
550.702
550.67
550.641
550.613
550.587
550.564
550.543
550.524
550.506
550.49
550.476
550.462
550.449
550.437
550.425
550.414
550.403
550.392
550.379
550.366
550.35
550.331
550.307
550.278
550.242
550.196
550.14
550.07
549.986
549.886
549.771
549.64
549.494
549.332
549.156
548.968
548.772
548.569
548.358
548.141
547.921
547.7
547.479
547.261
547.047
546.837
546.634
546.437
546.245
546.06
545.88
545.707
545.539
545.375
545.215
545.059
544.905
544.756
544.613
544.473
544.337
544.203
544.07
543.938
543.807
543.676
543.547
543.418
543.29
543.163
543.036
542.91
542.785
542.661
542.537
542.413
542.291
542.168
542.047
541.925
541.804
541.684
541.564
541.444
541.324
541.204
541.085
540.966
540.847
540.728
540.609
552.489
552.367
552.246
552.13
552.02
551.917
551.822
551.734
551.651
551.575
551.504
551.438
551.376
551.317
551.262
551.208
551.157
551.108
551.059
551.012
550.966
550.922
550.879
550.838
550.799
550.761
550.725
550.69
550.657
550.625
550.595
550.567
550.541
550.517
550.497
550.478
550.461
550.445
550.431
550.419
550.407
550.396
550.386
550.376
550.366
550.356
550.346
550.335
550.322
550.307
550.288
550.266
550.237
550.201
550.156
550.101
550.032
549.95
549.853
549.742
549.616
549.474
549.317
549.147
548.964
548.77
548.569
548.361
548.148
547.932
547.714
547.495
547.278
547.065
546.857
546.654
546.457
546.266
546.08
545.901
545.726
545.557
545.392
545.232
545.075
544.922
544.773
544.628
544.486
544.347
544.21
544.075
543.941
543.809
543.678
543.547
543.418
543.289
543.162
543.035
542.909
542.784
542.659
542.535
542.412
542.289
542.167
542.045
541.924
541.803
541.683
541.563
541.443
541.323
541.204
541.085
540.966
540.847
540.728
540.609
552.48
552.34
552.204
552.074
551.95
551.836
551.73
551.634
551.545
551.463
551.39
551.321
551.257
551.198
551.142
551.09
551.04
550.993
550.947
550.904
550.86
550.819
550.779
550.741
550.704
550.669
550.634
550.602
550.57
550.54
550.512
550.486
550.462
550.441
550.423
550.406
550.391
550.378
550.367
550.356
550.346
550.337
550.328
550.32
550.312
550.304
550.295
550.285
550.272
550.258
550.24
550.217
550.189
550.153
550.109
550.054
549.987
549.907
549.813
549.705
549.582
549.445
549.294
549.128
548.95
548.762
548.565
548.362
548.154
547.942
547.726
547.509
547.294
547.083
546.877
546.675
546.479
546.289
546.103
545.923
545.748
545.577
545.411
545.249
545.092
544.938
544.788
544.641
544.497
544.356
544.217
544.08
543.945
543.811
543.679
543.547
543.417
543.288
543.16
543.033
542.907
542.782
542.657
542.533
542.41
542.287
542.165
542.043
541.922
541.802
541.681
541.561
541.442
541.322
541.203
541.084
540.965
540.846
540.728
540.609
552.471
552.313
552.16
552.014
551.877
551.75
551.634
551.528
551.432
551.345
551.267
551.196
551.13
551.07
551.015
550.964
550.916
550.871
550.828
550.788
550.748
550.709
550.672
550.637
550.603
550.57
550.538
550.508
550.478
550.45
550.425
550.401
550.379
550.361
550.344
550.33
550.317
550.306
550.297
550.288
550.28
550.273
550.266
550.26
550.253
550.246
550.238
550.228
550.217
550.203
550.185
550.163
550.134
550.098
550.054
550
549.934
549.855
549.764
549.659
549.54
549.408
549.262
549.102
548.93
548.747
548.556
548.357
548.153
547.943
547.73
547.518
547.307
547.1
546.896
546.696
546.502
546.312
546.127
545.947
545.771
545.599
545.431
545.267
545.108
544.953
544.801
544.653
544.507
544.363
544.222
544.084
543.947
543.812
543.679
543.547
543.416
543.287
543.158
543.031
542.905
542.779
542.655
542.531
542.407
542.285
542.163
542.041
541.92
541.8
541.68
541.56
541.44
541.321
541.202
541.083
540.965
540.846
540.728
540.609
552.461
552.285
552.114
551.952
551.801
551.661
551.534
551.419
551.315
551.222
551.14
551.065
550.998
550.937
550.882
550.832
550.787
550.744
550.704
550.666
550.63
550.595
550.561
550.529
550.497
550.467
550.437
550.409
550.382
550.357
550.333
550.312
550.293
550.276
550.262
550.25
550.239
550.231
550.223
550.217
550.211
550.205
550.2
550.194
550.189
550.182
550.175
550.167
550.156
550.142
550.124
550.101
550.073
550.036
549.992
549.938
549.873
549.796
549.707
549.605
549.49
549.362
549.221
549.068
548.902
548.725
548.538
548.343
548.142
547.937
547.731
547.524
547.318
547.115
546.914
546.716
546.523
546.334
546.15
545.969
545.792
545.62
545.45
545.285
545.124
544.967
544.813
544.662
544.514
544.369
544.227
544.086
543.948
543.812
543.678
543.545
543.414
543.284
543.156
543.028
542.902
542.776
542.652
542.528
542.405
542.282
542.16
542.039
541.918
541.798
541.678
541.558
541.439
541.32
541.201
541.082
540.964
540.846
540.727
540.609
552.451
552.255
552.066
551.887
551.721
551.57
551.431
551.306
551.195
551.095
551.008
550.931
550.862
550.8
550.746
550.697
550.654
550.614
550.577
550.542
550.509
550.477
550.447
550.417
550.389
550.361
550.334
550.308
550.284
550.261
550.24
550.221
550.204
550.19
550.177
550.167
550.159
550.152
550.146
550.141
550.137
550.133
550.129
550.125
550.12
550.115
550.108
550.1
550.088
550.074
550.056
550.033
550.004
549.967
549.923
549.869
549.804
549.729
549.642
549.543
549.431
549.308
549.172
549.024
548.865
548.694
548.513
548.325
548.13
547.931
547.73
547.528
547.327
547.127
546.93
546.734
546.543
546.355
546.171
545.99
545.813
545.639
545.469
545.301
545.138
544.979
544.823
544.67
544.52
544.373
544.229
544.088
543.948
543.811
543.676
543.543
543.411
543.281
543.152
543.025
542.898
542.773
542.648
542.524
542.401
542.279
542.158
542.036
541.916
541.796
541.676
541.557
541.437
541.319
541.2
541.082
540.963
540.845
540.727
540.609
552.441
552.227
552.019
551.823
551.643
551.478
551.328
551.194
551.074
550.968
550.875
550.794
550.724
550.662
550.608
550.561
550.52
550.483
550.45
550.418
550.388
550.359
550.332
550.305
550.279
550.254
550.23
550.207
550.185
550.164
550.146
550.129
550.114
550.101
550.091
550.082
550.076
550.071
550.067
550.063
550.06
550.058
550.055
550.051
550.047
550.042
550.036
550.027
550.015
550.001
549.982
549.958
549.928
549.891
549.845
549.791
549.728
549.654
549.569
549.472
549.365
549.245
549.115
548.972
548.819
548.655
548.481
548.3
548.112
547.919
547.724
547.528
547.332
547.136
546.942
546.749
546.56
546.373
546.189
546.009
545.831
545.657
545.485
545.316
545.151
544.989
544.831
544.676
544.524
544.376
544.23
544.087
543.947
543.809
543.673
543.539
543.407
543.277
543.148
543.02
542.894
542.768
542.644
542.521
542.398
542.276
542.154
542.033
541.913
541.793
541.674
541.555
541.436
541.317
541.199
541.081
540.962
540.845
540.727
540.609
552.431
552.197
551.972
551.76
551.564
551.386
551.225
551.081
550.953
550.841
550.742
550.658
550.586
550.525
550.472
550.427
550.388
550.354
550.323
550.295
550.267
550.242
550.217
550.193
550.17
550.147
550.126
550.105
550.086
550.068
550.051
550.036
550.023
550.012
550.003
549.996
549.991
549.987
549.985
549.983
549.981
549.979
549.976
549.973
549.969
549.964
549.958
549.949
549.937
549.921
549.901
549.875
549.845
549.807
549.761
549.707
549.644
549.571
549.488
549.395
549.29
549.175
549.049
548.912
548.765
548.607
548.439
548.264
548.083
547.898
547.71
547.52
547.33
547.14
546.951
546.762
546.575
546.39
546.207
546.026
545.848
545.673
545.499
545.329
545.161
544.997
544.836
544.68
544.526
544.376
544.229
544.085
543.944
543.805
543.669
543.535
543.402
543.272
543.143
543.015
542.889
542.764
542.639
542.516
542.394
542.272
542.151
542.03
541.91
541.791
541.671
541.552
541.434
541.315
541.197
541.079
540.962
540.844
540.726
540.609
552.421
552.167
551.923
551.695
551.485
551.295
551.123
550.97
550.834
550.715
550.612
550.524
550.45
550.389
550.337
550.294
550.258
550.227
550.199
550.174
550.149
550.126
550.104
550.083
550.062
550.042
550.023
550.005
549.988
549.972
549.957
549.943
549.932
549.923
549.915
549.909
549.905
549.903
549.901
549.9
549.899
549.897
549.895
549.892
549.887
549.882
549.874
549.864
549.851
549.834
549.813
549.786
549.754
549.716
549.67
549.616
549.554
549.482
549.401
549.31
549.209
549.098
548.976
548.845
548.702
548.55
548.389
548.221
548.047
547.869
547.689
547.507
547.324
547.14
546.955
546.771
546.587
546.404
546.222
546.042
545.863
545.686
545.511
545.338
545.168
545.001
544.839
544.681
544.526
544.374
544.226
544.081
543.939
543.8
543.663
543.528
543.396
543.265
543.136
543.009
542.883
542.758
542.634
542.511
542.389
542.268
542.147
542.027
541.907
541.788
541.669
541.55
541.432
541.314
541.196
541.078
540.961
540.843
540.726
540.609
552.411
552.137
551.875
551.63
551.407
551.204
551.022
550.86
550.717
550.593
550.486
550.395
550.319
550.257
550.206
550.165
550.132
550.103
550.078
550.056
550.034
550.014
549.994
549.975
549.956
549.938
549.921
549.905
549.89
549.876
549.863
549.851
549.841
549.833
549.827
549.822
549.819
549.817
549.815
549.815
549.814
549.812
549.81
549.807
549.801
549.794
549.785
549.774
549.76
549.741
549.718
549.69
549.657
549.618
549.572
549.519
549.457
549.387
549.308
549.219
549.121
549.014
548.896
548.769
548.631
548.485
548.331
548.17
548.004
547.834
547.661
547.487
547.312
547.134
546.956
546.777
546.597
546.416
546.236
546.056
545.876
545.698
545.521
545.345
545.172
545
544.839
544.679
544.523
544.37
544.221
544.075
543.932
543.792
543.655
543.52
543.388
543.258
543.129
543.002
542.876
542.752
542.628
542.506
542.384
542.263
542.142
542.023
541.903
541.784
541.666
541.548
541.43
541.312
541.194
541.077
540.96
540.843
540.726
540.609
552.401
552.106
551.825
551.565
551.327
551.114
550.923
550.754
550.605
550.476
550.366
550.273
550.196
550.133
550.082
550.042
550.01
549.984
549.961
549.941
549.922
549.904
549.887
549.87
549.854
549.837
549.822
549.808
549.794
549.782
549.771
549.76
549.752
549.745
549.739
549.735
549.732
549.73
549.728
549.727
549.726
549.724
549.721
549.717
549.71
549.702
549.691
549.678
549.662
549.642
549.618
549.588
549.554
549.514
549.468
549.415
549.354
549.285
549.207
549.121
549.026
548.922
548.807
548.684
548.552
548.411
548.263
548.11
547.952
547.791
547.627
547.461
547.293
547.124
546.952
546.778
546.603
546.425
546.247
546.068
545.888
545.707
545.528
545.35
545.175
545.003
544.838
544.676
544.517
544.363
544.213
544.066
543.923
543.783
543.646
543.511
543.379
543.249
543.12
542.994
542.868
542.744
542.621
542.499
542.378
542.258
542.138
542.018
541.899
541.781
541.663
541.545
541.427
541.31
541.193
541.076
540.959
540.842
540.725
540.608
552.39
552.074
551.774
551.498
551.248
551.024
550.825
550.65
550.497
550.365
550.252
550.157
550.079
550.016
549.966
549.926
549.895
549.87
549.85
549.831
549.815
549.799
549.784
549.769
549.754
549.74
549.726
549.713
549.701
549.69
549.68
549.671
549.663
549.657
549.652
549.647
549.644
549.641
549.639
549.637
549.635
549.632
549.628
549.623
549.615
549.605
549.592
549.577
549.558
549.536
549.51
549.479
549.444
549.404
549.357
549.304
549.244
549.175
549.099
549.015
548.923
548.821
548.711
548.592
548.465
548.33
548.19
548.044
547.894
547.741
547.586
547.429
547.269
547.107
546.943
546.775
546.605
546.431
546.255
546.076
545.895
545.714
545.532
545.352
545.175
545.001
544.833
544.669
544.509
544.353
544.202
544.055
543.911
543.771
543.634
543.5
543.368
543.238
543.11
542.984
542.86
542.736
542.614
542.493
542.372
542.252
542.133
542.014
541.895
541.777
541.66
541.542
541.425
541.308
541.191
541.074
540.958
540.841
540.725
540.608
552.378
552.041
551.722
551.43
551.168
550.935
550.73
550.549
550.392
550.257
550.143
550.048
549.97
549.907
549.857
549.818
549.788
549.764
549.744
549.728
549.713
549.699
549.685
549.672
549.658
549.646
549.633
549.622
549.611
549.601
549.592
549.584
549.576
549.57
549.565
549.56
549.556
549.553
549.549
549.546
549.542
549.538
549.532
549.525
549.515
549.503
549.488
549.471
549.45
549.425
549.397
549.364
549.327
549.285
549.239
549.186
549.125
549.058
548.983
548.901
548.811
548.713
548.606
548.492
548.371
548.243
548.11
547.972
547.83
547.686
547.539
547.39
547.239
547.085
546.928
546.767
546.601
546.432
546.258
546.081
545.9
545.718
545.534
545.351
545.171
544.996
544.825
544.658
544.497
544.34
544.188
544.04
543.897
543.757
543.62
543.486
543.355
543.226
543.099
542.974
542.85
542.728
542.606
542.485
542.365
542.246
542.127
542.009
541.891
541.774
541.656
541.539
541.422
541.306
541.189
541.073
540.957
540.84
540.724
540.608
552.366
552.007
551.668
551.359
551.085
550.845
550.634
550.45
550.29
550.154
550.039
549.944
549.866
549.803
549.754
549.716
549.687
549.664
549.645
549.63
549.616
549.603
549.591
549.579
549.567
549.555
549.544
549.534
549.524
549.515
549.506
549.499
549.492
549.485
549.48
549.474
549.469
549.464
549.459
549.454
549.448
549.442
549.434
549.424
549.412
549.397
549.38
549.361
549.337
549.31
549.279
549.244
549.205
549.162
549.115
549.061
549.001
548.934
548.86
548.78
548.693
548.598
548.496
548.388
548.272
548.151
548.025
547.895
547.761
547.625
547.486
547.346
547.203
547.057
546.907
546.753
546.593
546.428
546.257
546.082
545.902
545.719
545.533
545.348
545.165
544.987
544.813
544.645
544.481
544.324
544.171
544.023
543.879
543.74
543.604
543.471
543.341
543.213
543.087
542.962
542.84
542.718
542.597
542.477
542.358
542.24
542.122
542.004
541.887
541.77
541.653
541.536
541.42
541.304
541.187
541.071
540.955
540.84
540.724
540.608
552.355
551.973
551.612
551.284
550.997
550.749
550.535
550.349
550.189
550.053
549.939
549.844
549.767
549.706
549.658
549.62
549.592
549.57
549.552
549.538
549.525
549.513
549.502
549.491
549.48
549.47
549.46
549.45
549.441
549.432
549.424
549.417
549.41
549.403
549.396
549.39
549.383
549.377
549.37
549.362
549.354
549.345
549.334
549.322
549.308
549.29
549.27
549.248
549.222
549.193
549.16
549.122
549.081
549.036
548.988
548.934
548.874
548.807
548.735
548.656
548.572
548.481
548.383
548.28
548.17
548.056
547.937
547.814
547.688
547.56
547.429
547.297
547.162
547.023
546.881
546.732
546.578
546.418
546.252
546.079
545.9
545.717
545.53
545.342
545.155
544.974
544.797
544.627
544.462
544.303
544.15
544.002
543.859
543.72
543.585
543.453
543.324
543.198
543.073
542.95
542.828
542.708
542.588
542.469
542.351
542.233
542.116
541.999
541.882
541.765
541.649
541.533
541.417
541.301
541.186
541.07
540.954
540.839
540.723
540.608
552.341
551.933
551.55
551.205
550.905
550.65
550.432
550.246
550.086
549.952
549.84
549.747
549.672
549.612
549.566
549.53
549.502
549.481
549.465
549.451
549.439
549.428
549.418
549.408
549.398
549.389
549.38
549.371
549.362
549.354
549.346
549.339
549.331
549.323
549.316
549.308
549.3
549.291
549.282
549.272
549.261
549.249
549.235
549.22
549.203
549.183
549.16
549.136
549.107
549.075
549.04
549.001
548.957
548.91
548.86
548.806
548.745
548.68
548.608
548.532
548.45
548.363
548.269
548.171
548.068
547.96
547.848
547.732
547.613
547.492
547.369
547.243
547.115
546.983
546.847
546.705
546.556
546.401
546.239
546.07
545.894
545.711
545.523
545.333
545.143
544.957
544.777
544.604
544.437
544.277
544.124
543.977
543.834
543.697
543.563
543.433
543.306
543.181
543.058
542.936
542.816
542.697
542.578
542.46
542.343
542.226
542.11
541.993
541.877
541.761
541.646
541.53
541.415
541.299
541.184
541.068
540.953
540.838
540.723
540.608
552.327
551.892
551.487
551.126
550.814
550.55
550.327
550.141
549.983
549.852
549.743
549.653
549.58
549.522
549.478
549.443
549.417
549.397
549.381
549.369
549.358
549.348
549.338
549.329
549.321
549.312
549.304
549.296
549.288
549.28
549.273
549.265
549.256
549.248
549.238
549.229
549.219
549.208
549.197
549.184
549.17
549.155
549.139
549.121
549.101
549.078
549.053
549.026
548.995
548.96
548.923
548.882
548.837
548.788
548.737
548.681
548.62
548.555
548.484
548.41
548.33
548.246
548.157
548.064
547.966
547.864
547.758
547.649
547.537
547.421
547.303
547.183
547.061
546.934
546.804
546.667
546.523
546.373
546.217
546.053
545.881
545.701
545.514
545.32
545.126
544.936
544.752
544.575
544.407
544.246
544.093
543.947
543.806
543.671
543.539
543.411
543.286
543.163
543.041
542.922
542.803
542.685
542.568
542.451
542.335
542.219
542.103
541.988
541.872
541.757
541.642
541.527
541.412
541.297
541.182
541.067
540.952
540.837
540.722
540.607
552.317
551.86
551.432
551.048
550.719
550.446
550.22
550.034
549.88
549.752
549.646
549.56
549.49
549.435
549.393
549.36
549.336
549.317
549.302
549.29
549.28
549.271
549.263
549.256
549.248
549.241
549.234
549.226
549.219
549.211
549.204
549.195
549.186
549.176
549.165
549.154
549.142
549.129
549.115
549.1
549.084
549.067
549.047
549.027
549.003
548.978
548.951
548.921
548.888
548.852
548.813
548.77
548.723
548.673
548.621
548.564
548.503
548.437
548.367
548.293
548.216
548.135
548.05
547.961
547.868
547.771
547.671
547.566
547.458
547.347
547.232
547.115
546.995
546.873
546.746
546.614
546.475
546.331
546.183
546.026
545.861
545.687
545.503
545.309
545.109
544.91
544.719
544.539
544.369
544.209
544.057
543.912
543.774
543.641
543.512
543.387
543.264
543.143
543.024
542.906
542.789
542.673
542.557
542.442
542.327
542.212
542.097
541.982
541.868
541.753
541.639
541.524
541.409
541.295
541.18
541.066
540.951
540.836
540.722
540.607
552.307
551.826
551.372
550.969
550.624
550.339
550.108
549.922
549.772
549.649
549.549
549.468
549.402
549.35
549.31
549.279
549.256
549.239
549.225
549.215
549.206
549.199
549.192
549.186
549.18
549.174
549.168
549.161
549.155
549.147
549.139
549.13
549.12
549.108
549.096
549.083
549.069
549.054
549.039
549.022
549.004
548.984
548.963
548.94
548.914
548.887
548.857
548.826
548.791
548.754
548.714
548.67
548.622
548.571
548.517
548.46
548.398
548.332
548.262
548.189
548.112
548.033
547.952
547.868
547.779
547.685
547.588
547.486
547.379
547.268
547.153
547.035
546.914
546.793
546.668
546.539
546.405
546.272
546.136
545.99
545.834
545.667
545.488
545.295
545.089
544.878
544.677
544.493
544.322
544.163
544.014
543.872
543.737
543.608
543.482
543.36
543.24
543.122
543.006
542.89
542.775
542.661
542.547
542.433
542.319
542.205
542.091
541.977
541.863
541.749
541.635
541.521
541.407
541.293
541.178
541.064
540.95
540.836
540.721
540.607
552.287
551.78
551.311
550.893
550.534
550.239
550.002
549.813
549.663
549.546
549.451
549.376
549.316
549.267
549.229
549.2
549.179
549.163
549.151
549.142
549.134
549.129
549.124
549.12
549.116
549.112
549.107
549.102
549.095
549.088
549.079
549.07
549.058
549.045
549.031
549.016
549
548.985
548.968
548.95
548.931
548.91
548.888
548.863
548.836
548.807
548.777
548.744
548.709
548.672
548.633
548.589
548.54
548.489
548.435
548.376
548.314
548.247
548.177
548.104
548.028
547.949
547.872
547.802
547.717
547.625
547.527
547.423
547.311
547.194
547.073
546.95
546.82
546.692
546.564
546.436
546.314
546.199
546.083
545.948
545.804
545.645
545.474
545.287
545.074
544.835
544.62
544.436
544.265
544.109
543.964
543.826
543.696
543.571
543.449
543.331
543.215
543.1
542.986
542.873
542.761
542.648
542.536
542.423
542.311
542.198
542.085
541.972
541.859
541.745
541.632
541.518
541.405
541.291
541.177
541.063
540.949
540.835
540.721
540.607
552.282
551.756
551.263
550.825
550.453
550.148
549.903
549.709
549.559
549.444
549.355
549.286
549.231
549.186
549.15
549.122
549.102
549.089
549.079
549.072
549.066
549.062
549.059
549.057
549.055
549.054
549.052
549.048
549.041
549.033
549.023
549.013
549.001
548.987
548.972
548.956
548.94
548.925
548.908
548.891
548.872
548.851
548.827
548.803
548.776
548.747
548.716
548.683
548.648
548.616
548.591
548.55
548.503
548.452
548.398
548.339
548.275
548.207
548.137
548.064
547.985
547.904
547.836
547.815
547.738
547.644
547.536
547.422
547.295
547.165
547.029
546.882
546.729
546.6
546.477
546.335
546.266
546.161
546.012
545.884
545.777
545.615
545.409
545.235
545.059
544.715
544.532
544.365
544.194
544.045
543.906
543.775
543.65
543.53
543.414
543.3
543.188
543.077
542.967
542.857
542.747
542.636
542.526
542.415
542.303
542.192
542.079
541.967
541.855
541.742
541.629
541.516
541.402
541.289
541.175
541.062
540.948
540.834
540.721
540.607
552.277
551.741
551.233
550.776
550.388
550.07
549.815
549.615
549.462
549.348
549.263
549.199
549.149
549.106
549.072
549.045
549.025
549.016
549.012
549.008
549.005
549.002
549
548.999
549.001
549.004
549.005
549.003
548.995
548.984
548.971
548.964
548.967
548.955
548.941
548.926
548.913
548.899
548.885
548.869
548.851
548.83
548.809
548.785
548.759
548.729
548.696
548.662
548.63
548.614
548.651
548.623
548.581
548.533
548.477
548.414
548.345
548.277
548.21
548.132
548.043
547.947
547.856
547.773
547.689
547.591
547.438
547.322
547.214
547.102
546.938
546.69
546.475
546.497
546.453
546.269
546.213
546.07
545.948
545.859
545.75
545.598
545.433
545.264
545.087
544.667
544.484
544.255
544.103
543.97
543.841
543.717
543.6
543.487
543.377
543.268
543.161
543.054
542.948
542.841
542.733
542.625
542.516
542.406
542.296
542.185
542.074
541.963
541.851
541.739
541.626
541.513
541.4
541.287
541.174
541.061
540.947
540.834
540.72
540.607
552.269
551.72
551.204
550.741
550.34
550.008
549.743
549.534
549.377
549.261
549.178
549.119
549.075
549.035
549.001
548.973
548.957
548.954
548.97
548.975
548.974
548.968
548.964
548.965
548.973
548.985
548.991
548.987
548.977
548.96
548.942
548.947
549.018
549.021
549.015
549.005
548.998
548.989
548.98
548.966
548.946
548.927
548.909
548.885
548.855
548.817
548.776
548.743
548.712
548.68
548.646
548.623
548.594
548.549
548.482
548.408
548.337
548.285
548.225
548.13
548.024
547.917
547.839
547.75
547.693
547.561
547.321
547.198
547.136
547.061
546.893
546.676
546.525
546.484
546.398
546.255
546.144
546.033
545.928
545.833
545.718
545.574
545.416
545.26
545.084
544.582
544.417
544.243
544.006
543.886
543.772
543.654
543.545
543.44
543.338
543.236
543.134
543.032
542.929
542.825
542.72
542.614
542.507
542.399
542.29
542.18
542.07
541.959
541.848
541.736
541.624
541.511
541.399
541.286
541.173
541.06
540.947
540.833
540.72
540.607
552.258
551.688
551.16
550.689
550.286
549.952
549.682
549.471
549.312
549.193
549.109
549.058
549.034
548.999
548.964
548.936
548.929
548.938
549.02
549.048
549.046
549.029
549.013
549.015
549.037
549.07
549.082
549.066
549.044
549.018
548.979
548.962
548.968
548.967
548.976
548.981
548.99
549
548.999
548.975
548.945
548.936
548.92
548.876
548.826
548.768
548.717
548.708
548.713
548.661
548.602
548.619
548.62
548.547
548.446
548.386
548.321
548.292
548.132
548.043
547.965
547.835
547.786
547.683
547.605
547.503
547.344
547.207
547.078
546.957
546.816
546.675
546.561
546.458
546.338
546.219
546.1
545.99
545.89
545.781
545.665
545.521
545.32
544.997
544.846
544.555
544.363
544.239
544.021
543.829
543.689
543.584
543.486
543.393
543.299
543.204
543.107
543.01
542.911
542.811
542.709
542.605
542.499
542.392
542.284
542.176
542.066
541.956
541.845
541.733
541.622
541.51
541.397
541.285
541.172
541.059
540.946
540.833
540.72
540.607
552.246
551.662
551.13
550.656
550.241
549.9
549.636
549.445
549.288
549.165
549.081
549.045
549.093
549.078
549.038
548.997
549.011
548.977
548.96
549.011
548.996
548.962
548.93
548.926
548.948
548.982
549.006
548.995
548.97
548.931
548.871
548.825
548.823
548.885
548.987
548.998
549.038
549.075
549.059
548.977
548.902
548.93
548.9
548.729
548.634
548.572
548.551
548.676
548.748
548.649
548.563
548.577
548.517
548.467
548.396
548.337
548.264
548.203
548.1
548.02
547.904
547.785
547.711
547.608
547.52
547.427
547.307
547.174
547.027
546.887
546.761
546.652
546.545
546.427
546.302
546.186
546.072
545.962
545.842
545.717
545.596
545.454
545.187
544.833
544.623
544.395
544.231
544.153
543.95
543.713
543.636
543.508
543.424
543.345
543.262
543.173
543.082
542.99
542.896
542.799
542.699
542.597
542.493
542.387
542.28
542.172
542.063
541.953
541.843
541.732
541.62
541.508
541.396
541.284
541.171
541.058
540.946
540.833
540.72
540.607
552.225
551.623
551.107
550.631
550.189
549.845
549.601
549.517
549.383
549.251
549.159
549.093
549.053
549.047
549.039
548.997
549.003
548.984
548.97
548.959
548.871
548.8
548.806
548.82
548.815
548.859
548.862
548.82
548.806
548.707
548.604
548.521
548.576
548.65
548.773
548.878
548.997
549.11
549.125
549.013
548.893
548.835
548.722
548.632
548.576
548.574
548.55
548.54
548.556
548.525
548.496
548.487
548.427
548.4
548.353
548.284
548.209
548.129
548.043
547.953
547.841
547.739
547.646
547.54
547.444
547.35
547.248
547.132
547.006
546.875
546.753
546.645
546.539
546.417
546.279
546.152
546.045
545.941
545.799
545.631
545.459
545.27
545.018
544.746
544.514
544.299
544.128
544
543.851
543.684
543.544
543.457
543.366
543.303
543.231
543.145
543.057
542.972
542.883
542.789
542.692
542.591
542.488
542.384
542.277
542.17
542.061
541.951
541.841
541.73
541.619
541.507
541.395
541.283
541.171
541.058
540.945
540.832
540.719
540.607