/*--------------------------------*- C++ -*----------------------------------*\
  =========                 |
  \\      /  F ield         | OpenFOAM: The Open Source CFD Toolbox
   \\    /   O peration     | Website:  https://openfoam.org
    \\  /    A nd           | Version:  6
     \\/     M anipulation  |
\*---------------------------------------------------------------------------*/
FoamFile
{
    version     2.0;
    format      ascii;
    class       volVectorField;
    location    "4600";
    object      U;
}
// * * * * * * * * * * * * * * * * * * * * * * * * * * * * * * * * * * * * * //

dimensions      [0 1 -1 0 0 0 0];

internalField   nonuniform List<vector> 
4800
(
(-0.000435379 0 0.00017235)
(0.000302251 0 -0.000369033)
(0.000518793 0 -0.000168587)
(0.000853292 0 -9.12135e-05)
(0.00123192 0 -6.44998e-06)
(0.00146869 0 -1.54082e-05)
(0.00167657 0 -0.000169553)
(0.00190164 0 -0.000156712)
(0.00210415 0 -0.000108393)
(0.00224792 0 -7.78244e-05)
(0.00227615 0 -0.000165347)
(0.00230876 0 -4.92346e-05)
(0.00237925 0 -0.000131421)
(0.00238383 0 -0.000145714)
(0.00236435 0 -0.000203506)
(0.00235043 0 -0.00022945)
(0.00234667 0 -6.33668e-05)
(0.00232147 0 6.67916e-05)
(0.00229311 0 -4.04236e-05)
(0.00229815 0 -9.23703e-05)
(0.00233665 0 -0.000156679)
(0.00242327 0 -1.73075e-05)
(0.00253142 0 -0.000243007)
(0.00264525 0 -3.47456e-05)
(0.00271033 0 -0.000145975)
(0.00278178 0 -0.000132823)
(0.00286104 0 1.65832e-05)
(0.00287153 0 -9.70819e-05)
(0.00288412 0 -9.22469e-05)
(0.00293076 0 -2.73572e-05)
(0.00300693 0 -0.000148233)
(0.00303624 0 -0.000138126)
(0.00305988 0 -0.000101575)
(0.00310616 0 -0.000130577)
(0.00316777 0 -0.000117109)
(0.00321073 0 -8.78449e-05)
(0.00323769 0 -0.000137194)
(0.00327053 0 -0.00017423)
(0.00332866 0 -0.000203543)
(0.00339015 0 -8.03137e-05)
(0.00339905 0 1.84862e-05)
(0.00339612 0 1.15077e-05)
(0.00339034 0 4.41347e-06)
(0.00337408 0 -1.15615e-05)
(0.00334355 0 -6.00645e-05)
(0.00330629 0 8.79663e-06)
(0.00326375 0 -6.86168e-05)
(0.00322144 0 -2.78415e-05)
(0.00316556 0 8.79794e-05)
(0.00308149 0 -0.000142081)
(0.00298087 0 5.38688e-05)
(0.00287531 0 1.24803e-05)
(0.00275995 0 -0.000196602)
(0.00258748 0 6.9492e-05)
(0.00233496 0 -8.64222e-05)
(0.00204264 0 3.62302e-06)
(0.0016259 0 -0.000476461)
(0.0015145 0 -8.17392e-05)
(0.00119311 0 -0.000619518)
(0.000975713 0 -0.00032415)
(0.000619086 0 -0.000556573)
(0.000515179 0 -9.85908e-05)
(0.000319444 0 6.74662e-05)
(0.000243057 0 -0.000109722)
(0.000215986 0 -9.51978e-05)
(8.84817e-05 0 -3.96503e-05)
(-5.97016e-05 0 -1.97896e-05)
(-3.17651e-05 0 -6.72655e-05)
(2.01224e-05 0 -8.54942e-05)
(5.10218e-05 0 -0.000152874)
(8.82081e-05 0 -0.000142663)
(6.86351e-05 0 6.50018e-06)
(-6.80463e-05 0 -3.8596e-05)
(-0.000126402 0 -2.31833e-05)
(-0.00018005 0 -5.44047e-05)
(-0.000229302 0 -4.63831e-05)
(-0.00024863 0 -6.90761e-05)
(-0.000218418 0 -0.000125114)
(-6.26333e-05 0 -0.000237798)
(-0.000110656 0 -5.89954e-05)
(-8.87573e-05 0 -9.85004e-05)
(4.69387e-05 0 -0.00011248)
(-4.04204e-05 0 -0.000105625)
(0.000100411 0 -6.02755e-05)
(0.000129783 0 -2.05668e-05)
(1.22863e-07 0 2.86465e-05)
(-1.7008e-10 0 1.71476e-10)
(-9.41443e-13 0 1.02405e-13)
(-1.8827e-12 0 1.69033e-15)
(-1.84975e-12 0 -3.47349e-14)
(-1.76674e-12 0 -4.84828e-14)
(-1.66311e-12 0 -5.5384e-14)
(-1.54768e-12 0 -6.03201e-14)
(-1.42316e-12 0 -6.44804e-14)
(-1.29101e-12 0 -6.79738e-14)
(-1.1527e-12 0 -7.06573e-14)
(-1.01001e-12 0 -7.23733e-14)
(-8.64985e-13 0 -7.30081e-14)
(-7.19839e-13 0 -7.25005e-14)
(-5.76866e-13 0 -7.08387e-14)
(-4.38339e-13 0 -6.80546e-14)
(-3.06425e-13 0 -6.42183e-14)
(-1.83121e-13 0 -5.94329e-14)
(-7.01919e-14 0 -5.38275e-14)
(3.08749e-14 0 -4.75512e-14)
(1.18901e-13 0 -4.07656e-14)
(1.93034e-13 0 -3.36381e-14)
(2.52757e-13 0 -2.63355e-14)
(2.97878e-13 0 -1.90187e-14)
(3.28513e-13 0 -1.1838e-14)
(3.45069e-13 0 -4.93026e-15)
(3.4821e-13 0 1.58353e-15)
(3.38824e-13 0 7.59866e-15)
(3.17996e-13 0 1.3027e-14)
(2.8697e-13 0 1.77961e-14)
(2.47122e-13 0 2.18479e-14)
(1.99931e-13 0 2.51369e-14)
(1.46957e-13 0 2.76284e-14)
(8.98245e-14 0 2.92947e-14)
(3.02123e-14 0 3.01066e-14)
(-0.000334806 0 -2.2674e-05)
(0.000208019 0 -0.000607928)
(0.000640048 0 -0.00056785)
(0.000779143 0 -0.000858016)
(0.00126019 0 -0.000360001)
(0.00149205 0 -0.000285412)
(0.00167114 0 -0.000645424)
(0.00202024 0 0.000250606)
(0.00206452 0 -0.000877368)
(0.00230041 0 0.000231674)
(0.00240866 0 -0.000122711)
(0.00251041 0 -0.000197775)
(0.00254289 0 8.38985e-05)
(0.00256163 0 9.28404e-05)
(0.00260507 0 0.000132006)
(0.00260615 0 0.000192619)
(0.00256149 0 0.000188531)
(0.00251352 0 2.52042e-05)
(0.00252913 0 -1.47553e-05)
(0.00259048 0 -5.12219e-05)
(0.00268712 0 2.50895e-05)
(0.00274624 0 -0.00011247)
(0.00277457 0 -0.000161195)
(0.00280717 0 -0.000186279)
(0.0028626 0 -0.0002574)
(0.00291969 0 -2.50485e-05)
(0.0029658 0 1.1339e-05)
(0.0030393 0 -1.49721e-05)
(0.00309696 0 -9.35879e-06)
(0.00311606 0 6.03524e-05)
(0.00313544 0 -2.90297e-05)
(0.00315079 0 -4.44232e-05)
(0.00317145 0 -7.33363e-05)
(0.00321756 0 -6.91803e-06)
(0.00327495 0 -7.37764e-05)
(0.00333043 0 -7.82319e-05)
(0.00339473 0 -4.66104e-05)
(0.00345733 0 -6.87139e-06)
(0.00345703 0 5.17919e-06)
(0.00343563 0 9.65388e-08)
(0.00342615 0 -3.36165e-05)
(0.00342682 0 2.84681e-07)
(0.00342221 0 1.99523e-05)
(0.00341272 0 5.37149e-05)
(0.00339321 0 9.5438e-05)
(0.00336301 0 6.68716e-05)
(0.00332896 0 0.000113929)
(0.00328136 0 0.000125408)
(0.00322061 0 8.53635e-05)
(0.00313929 0 0.000225445)
(0.0030448 0 0.000159103)
(0.00295292 0 0.000101929)
(0.00279721 0 0.000420515)
(0.00260908 0 0.000154826)
(0.00239364 0 1.30608e-05)
(0.00223992 0 0.000433134)
(0.00206962 0 0.000690963)
(0.00188382 0 0.00042966)
(0.00151738 0 0.000601614)
(0.00145905 0 0.000440344)
(0.0011965 0 0.000590829)
(0.000787256 0 0.000359088)
(0.000494721 0 7.35813e-05)
(0.000373668 0 0.000212274)
(0.00034946 0 0.00020586)
(0.000199207 0 0.000259816)
(0.000249298 0 0.000107169)
(0.000253321 0 -1.29731e-05)
(0.000136368 0 -3.47704e-05)
(3.02138e-05 0 6.13481e-05)
(7.55921e-06 0 6.56345e-05)
(-7.68368e-05 0 9.54362e-05)
(-0.000164775 0 0.00010634)
(-0.000190581 0 0.000110222)
(-0.000219564 0 0.000135123)
(-0.000298495 0 6.65746e-05)
(-0.000311053 0 4.09357e-05)
(-0.0002729 0 -5.93898e-05)
(-0.000230107 0 -0.000137784)
(-0.000277116 0 6.55814e-05)
(-0.000162243 0 -0.000110631)
(-0.000118242 0 -4.19985e-05)
(-6.09118e-05 0 -5.08553e-05)
(1.39617e-05 0 -0.000113485)
(0.000102813 0 4.01903e-05)
(4.64338e-08 0 0.000102623)
(-9.90907e-11 0 4.39741e-10)
(-1.04206e-12 0 1.81251e-13)
(-2.01984e-12 0 -5.93203e-14)
(-1.89992e-12 0 -1.26989e-13)
(-1.78739e-12 0 -1.52408e-13)
(-1.67495e-12 0 -1.68236e-13)
(-1.55677e-12 0 -1.81862e-13)
(-1.43081e-12 0 -1.9424e-13)
(-1.29719e-12 0 -2.04868e-13)
(-1.1571e-12 0 -2.13079e-13)
(-1.01236e-12 0 -2.18341e-13)
(-8.65112e-13 0 -2.20306e-13)
(-7.1767e-13 0 -2.18793e-13)
(-5.7242e-13 0 -2.13772e-13)
(-4.31718e-13 0 -2.05343e-13)
(-2.97803e-13 0 -1.93725e-13)
(-1.7273e-13 0 -1.79232e-13)
(-5.83103e-14 0 -1.6226e-13)
(4.39368e-14 0 -1.43262e-13)
(1.32814e-13 0 -1.22732e-13)
(2.07465e-13 0 -1.01178e-13)
(2.67377e-13 0 -7.91062e-14)
(3.12375e-13 0 -5.70031e-14)
(3.42602e-13 0 -3.5323e-14)
(3.58491e-13 0 -1.4478e-14)
(3.60739e-13 0 5.16805e-15)
(3.50268e-13 0 2.33013e-14)
(3.28194e-13 0 3.96583e-14)
(2.95791e-13 0 5.40231e-14)
(2.54463e-13 0 6.62232e-14)
(2.05711e-13 0 7.61247e-14)
(1.51115e-13 0 8.36267e-14)
(9.23028e-14 0 8.8655e-14)
(3.10242e-14 0 9.1154e-14)
(-0.000114041 0 -0.000107718)
(0.000284571 0 -0.000591528)
(0.000855766 0 -0.000712481)
(0.000557949 0 -0.00143896)
(0.0014104 0 -0.000642144)
(0.0015171 0 -0.000587911)
(0.00170576 0 -0.000468207)
(0.00189794 0 -0.00052295)
(0.00210931 0 -0.000303805)
(0.00223028 0 -0.000312285)
(0.00243004 0 -0.000216126)
(0.00252994 0 -8.78263e-05)
(0.0025066 0 -9.79168e-05)
(0.00252125 0 -0.00016915)
(0.00257255 0 -3.16121e-05)
(0.00262868 0 -0.000116295)
(0.00267268 0 -8.27762e-05)
(0.00268729 0 -3.14649e-05)
(0.00269421 0 -8.68598e-06)
(0.00270963 0 -7.34169e-05)
(0.00274294 0 -0.000295052)
(0.00281671 0 -0.000148945)
(0.00284092 0 -0.000277162)
(0.00288117 0 -3.34643e-05)
(0.00289472 0 -0.000113692)
(0.00288535 0 -0.00017449)
(0.00289957 0 -0.000183448)
(0.00296385 0 -6.12824e-05)
(0.00303056 0 -0.000106106)
(0.00305431 0 -0.000141019)
(0.0030819 0 -0.000166407)
(0.00311782 0 -0.000174463)
(0.00311827 0 -0.000152458)
(0.00312722 0 -0.000137444)
(0.00315731 0 -0.000115959)
(0.00320631 0 -9.38902e-05)
(0.00320853 0 -9.32131e-05)
(0.0032032 0 -8.44068e-05)
(0.00320373 0 -6.63459e-05)
(0.00321433 0 -3.48948e-05)
(0.00323991 0 8.85636e-06)
(0.00324445 0 2.03446e-05)
(0.00323933 0 1.03164e-05)
(0.00322578 0 3.11305e-05)
(0.00320003 0 3.7331e-05)
(0.00316923 0 2.52858e-05)
(0.00314647 0 6.57305e-05)
(0.00312232 0 8.65157e-05)
(0.00307172 0 0.000176554)
(0.00299172 0 0.000169441)
(0.00292354 0 0.000164024)
(0.00283464 0 0.000299324)
(0.00271559 0 0.000284219)
(0.00257323 0 0.000373587)
(0.00238696 0 0.000575067)
(0.00221532 0 0.000627867)
(0.00204706 0 0.000689044)
(0.0018924 0 0.000542292)
(0.00165102 0 0.000670825)
(0.00151803 0 0.000690586)
(0.00126702 0 0.000738677)
(0.000753688 0 0.000850107)
(0.000649642 0 0.000564853)
(0.000618055 0 0.00013739)
(0.000518793 0 0.000104112)
(0.000419996 0 0.000126449)
(0.00037822 0 0.000139856)
(0.000270763 0 0.00021794)
(0.000202006 0 9.13504e-05)
(0.000107411 0 7.44204e-05)
(1.79398e-05 0 0.00011446)
(-6.08394e-05 0 0.000190336)
(-0.000133145 0 0.000221745)
(-0.000177827 0 0.000189101)
(-0.000266352 0 1.28818e-05)
(-0.00025371 0 0.00012806)
(-0.000290418 0 -7.5984e-06)
(-0.000302506 0 -5.24754e-05)
(-0.000300444 0 -7.64903e-05)
(-0.000256123 0 -0.000125608)
(-0.000233351 0 -0.000164989)
(-0.000191997 0 -0.000211512)
(-0.000162172 0 -0.000158444)
(-2.08893e-06 0 -0.000136968)
(-2.45175e-05 0 -2.89048e-05)
(4.48452e-08 0 0.000155376)
(-1.3068e-10 0 1.07521e-09)
(-1.18142e-12 0 -4.34247e-13)
(-2.19094e-12 0 -2.93317e-13)
(-1.94284e-12 0 -2.6157e-13)
(-1.80799e-12 0 -2.66001e-13)
(-1.69257e-12 0 -2.83369e-13)
(-1.57368e-12 0 -3.04733e-13)
(-1.44617e-12 0 -3.25832e-13)
(-1.30985e-12 0 -3.44262e-13)
(-1.16618e-12 0 -3.58531e-13)
(-1.01724e-12 0 -3.6769e-13)
(-8.65437e-13 0 -3.71165e-13)
(-7.13304e-13 0 -3.68676e-13)
(-5.63417e-13 0 -3.60193e-13)
(-4.18292e-13 0 -3.45902e-13)
(-2.80314e-13 0 -3.26185e-13)
(-1.51656e-13 0 -3.01588e-13)
(-3.42225e-14 0 -2.72793e-13)
(7.04022e-14 0 -2.40581e-13)
(1.60985e-13 0 -2.05795e-13)
(2.36661e-13 0 -1.69306e-13)
(2.96933e-13 0 -1.31976e-13)
(3.41661e-13 0 -9.46302e-14)
(3.71038e-13 0 -5.80368e-14)
(3.8556e-13 0 -2.28888e-14)
(3.85989e-13 0 1.02042e-14)
(3.73315e-13 0 4.07199e-14)
(3.48718e-13 0 6.8222e-14)
(3.13535e-13 0 9.23551e-14)
(2.69223e-13 0 1.12838e-13)
(2.17334e-13 0 1.29453e-13)
(1.59488e-13 0 1.42039e-13)
(9.73519e-14 0 1.50486e-13)
(3.27113e-14 0 1.54725e-13)
(1.29698e-05 0 -0.000145909)
(0.000103919 0 -0.00113287)
(0.00128062 0 -0.000673552)
(0.000923184 0 -0.00129401)
(0.00121559 0 -0.0011299)
(0.00148184 0 -0.000817574)
(0.00155671 0 -0.000848601)
(0.0017986 0 -0.000504491)
(0.00192235 0 -0.00056014)
(0.00209705 0 -0.000549849)
(0.00228646 0 -0.000457065)
(0.00233507 0 -0.00022811)
(0.00234979 0 -0.00013028)
(0.0024199 0 -1.89373e-06)
(0.00254156 0 -0.000151842)
(0.00262891 0 0.00010257)
(0.00262892 0 0.000133981)
(0.00263521 0 9.44119e-05)
(0.00265317 0 1.70743e-05)
(0.00271189 0 -3.81083e-05)
(0.00278121 0 -0.000149975)
(0.00277943 0 -0.000186253)
(0.00276341 0 -0.000191515)
(0.00275815 0 -0.000205164)
(0.00276537 0 -0.000230129)
(0.00278946 0 -0.000138578)
(0.00279048 0 -0.000104222)
(0.00278794 0 -9.49718e-05)
(0.00279178 0 -0.000110221)
(0.00280351 0 -0.000127146)
(0.00282705 0 -5.17205e-05)
(0.0028265 0 -5.25422e-05)
(0.00282118 0 -0.000111763)
(0.00283374 0 -0.000148181)
(0.00287696 0 -0.000159971)
(0.0029254 0 -0.00011408)
(0.00293863 0 -0.000116028)
(0.00295118 0 -9.32141e-05)
(0.00295412 0 -6.77354e-05)
(0.0029455 0 -6.50412e-05)
(0.00292844 0 -2.87386e-05)
(0.00292575 0 -5.27274e-06)
(0.00292915 0 3.86069e-05)
(0.0029258 0 8.12359e-05)
(0.00291025 0 0.000110242)
(0.00286333 0 0.000146119)
(0.00284724 0 0.00015489)
(0.0028426 0 0.0001825)
(0.00280462 0 0.000228708)
(0.00275155 0 0.000120007)
(0.00269473 0 0.000288503)
(0.0026285 0 0.000403965)
(0.00254104 0 0.00050432)
(0.00239518 0 0.000696533)
(0.00226851 0 0.000668509)
(0.00210966 0 0.00077994)
(0.00195078 0 0.000881396)
(0.00180759 0 0.000770141)
(0.00161172 0 0.000706005)
(0.00142966 0 0.000844907)
(0.00126059 0 0.00094312)
(0.00131249 0 0.000563712)
(0.00115457 0 0.000451608)
(0.000715633 0 0.000464056)
(0.000537407 0 0.000396102)
(0.000455396 0 0.000304706)
(0.000446829 0 0.000189981)
(0.000423366 0 0.000143536)
(0.000389668 0 6.87264e-05)
(0.000240078 0 0.000110944)
(4.7244e-05 0 0.000206968)
(-2.21117e-05 0 0.000268984)
(-0.000100246 0 0.000271788)
(-0.00015223 0 0.000212523)
(-0.000197693 0 0.000130564)
(-0.000221841 0 8.00425e-05)
(-0.000232538 0 6.7758e-06)
(-0.000248553 0 -8.73034e-05)
(-0.000254013 0 -0.000104584)
(-0.00031106 0 -8.43336e-05)
(-0.000301147 0 -0.000153251)
(-0.000288617 0 -0.000175545)
(-0.00017428 0 -0.000223916)
(-0.000121017 0 -0.000119583)
(-1.84211e-05 0 -2.87964e-05)
(1.01078e-07 0 0.000216039)
(-5.89818e-13 0 1.24076e-13)
(-1.45584e-12 0 -6.81472e-13)
(-1.84716e-12 0 -4.18164e-13)
(-1.87261e-12 0 -3.59943e-13)
(-1.80919e-12 0 -3.66614e-13)
(-1.71368e-12 0 -3.94455e-13)
(-1.59923e-12 0 -4.27809e-13)
(-1.47034e-12 0 -4.60025e-13)
(-1.32989e-12 0 -4.87742e-13)
(-1.18053e-12 0 -5.09015e-13)
(-1.025e-12 0 -5.22641e-13)
(-8.66098e-13 0 -5.27907e-13)
(-7.06697e-13 0 -5.24478e-13)
(-5.49646e-13 0 -5.12352e-13)
(-3.9771e-13 0 -4.91827e-13)
(-2.53489e-13 0 -4.63474e-13)
(-1.19338e-13 0 -4.28102e-13)
(2.69668e-15 0 -3.86714e-13)
(1.10934e-13 0 -3.40452e-13)
(2.04088e-13 0 -2.90548e-13)
(2.81284e-13 0 -2.38265e-13)
(3.42053e-13 0 -1.84851e-13)
(3.86314e-13 0 -1.31495e-13)
(4.14343e-13 0 -7.92925e-14)
(4.26732e-13 0 -2.92295e-14)
(4.24347e-13 0 1.78355e-14)
(4.08286e-13 0 6.11723e-14)
(3.79829e-13 0 1.00177e-13)
(3.40407e-13 0 1.34362e-13)
(2.9156e-13 0 1.63345e-13)
(2.34913e-13 0 1.86835e-13)
(1.72148e-13 0 2.04619e-13)
(1.04989e-13 0 2.16551e-13)
(3.52637e-14 0 2.22539e-13)
(1.09095e-05 0 -0.000700267)
(0.000230571 0 -0.00138314)
(0.000794929 0 -0.00145871)
(0.00113865 0 -0.00130307)
(0.00111196 0 -0.00129212)
(0.00139665 0 -0.000960685)
(0.00145198 0 -0.000887247)
(0.00154626 0 -0.000828992)
(0.00175304 0 -0.000574017)
(0.00184593 0 -0.000771594)
(0.00201983 0 -0.000296744)
(0.00200567 0 -0.000256543)
(0.00204704 0 -0.000209105)
(0.00215456 0 -0.000303813)
(0.00233087 0 0.000174689)
(0.00237915 0 -8.37254e-05)
(0.00239305 0 -0.000115)
(0.00244772 0 -7.31263e-05)
(0.00253029 0 -8.31797e-05)
(0.00257245 0 -0.000184088)
(0.00256657 0 -0.000227979)
(0.0025494 0 -0.000237213)
(0.00253331 0 -0.000222479)
(0.0025274 0 -0.000156493)
(0.00250943 0 -0.000136506)
(0.00247121 0 -0.000160977)
(0.00244134 0 -0.000130391)
(0.00244376 0 -0.000109464)
(0.00245316 0 -9.23522e-05)
(0.0024672 0 -0.000106591)
(0.00248932 0 -0.000135764)
(0.00251978 0 -0.000164123)
(0.00256591 0 -0.00015547)
(0.00263636 0 -0.000232598)
(0.0027164 0 -0.000128663)
(0.00270869 0 -0.000108797)
(0.00271159 0 -9.30618e-05)
(0.00273278 0 -8.59425e-05)
(0.00276008 0 -2.45958e-05)
(0.00275901 0 -6.5023e-06)
(0.00274836 0 5.62956e-06)
(0.00271741 0 2.01935e-05)
(0.00269586 0 3.69829e-05)
(0.00270419 0 5.26041e-05)
(0.00269401 0 0.000114797)
(0.00265297 0 5.11591e-05)
(0.00259952 0 0.000132827)
(0.00257021 0 0.00026717)
(0.0025297 0 0.000215823)
(0.00245553 0 0.000335099)
(0.00244932 0 0.000377622)
(0.00242775 0 0.000400446)
(0.00234793 0 0.000525934)
(0.00226649 0 0.000453155)
(0.00217674 0 0.000489067)
(0.00201281 0 0.000800558)
(0.00188505 0 0.000917621)
(0.00169191 0 0.000976392)
(0.00160471 0 0.000764762)
(0.00144607 0 0.000899927)
(0.00137075 0 0.000975453)
(0.00120807 0 0.00105773)
(0.000893768 0 0.00103726)
(0.000823466 0 0.000601101)
(0.000697798 0 0.000368843)
(0.000490107 0 0.000322619)
(0.00050053 0 0.000237627)
(0.000526128 0 0.000188963)
(0.000494508 0 0.000174507)
(0.000250777 0 0.000248414)
(8.88727e-05 0 0.000314159)
(3.4242e-05 0 0.000347008)
(-6.1842e-05 0 0.000325268)
(-0.000115521 0 0.000251406)
(-0.000154826 0 0.000169777)
(-0.00016659 0 0.000140286)
(-0.00020616 0 5.89571e-05)
(-0.000220593 0 -4.16191e-05)
(-0.000228311 0 -0.000102261)
(-0.00032336 0 -6.23385e-05)
(-0.000292088 0 -0.000193621)
(-0.000238725 0 -0.000284466)
(-0.00018658 0 -0.000332783)
(-3.65311e-05 0 -0.000355205)
(4.82339e-05 0 -0.000191236)
(2.10153e-07 0 0.00023638)
(-8.99851e-13 0 2.74482e-13)
(-1.72353e-12 0 -2.24851e-13)
(-1.86939e-12 0 -3.37977e-13)
(-1.89129e-12 0 -3.93421e-13)
(-1.8425e-12 0 -4.46045e-13)
(-1.75376e-12 0 -5.00014e-13)
(-1.63925e-12 0 -5.52002e-13)
(-1.5061e-12 0 -5.98692e-13)
(-1.35884e-12 0 -6.37637e-13)
(-1.20108e-12 0 -6.67109e-13)
(-1.03613e-12 0 -6.85915e-13)
(-8.67274e-13 0 -6.93306e-13)
(-6.97749e-13 0 -6.88943e-13)
(-5.30765e-13 0 -6.7288e-13)
(-3.69414e-13 0 -6.45556e-13)
(-2.16589e-13 0 -6.07768e-13)
(-7.48957e-14 0 -5.60629e-13)
(5.34281e-14 0 -5.05512e-13)
(1.66568e-13 0 -4.43976e-13)
(2.63172e-13 0 -3.77695e-13)
(3.42357e-13 0 -3.08374e-13)
(4.03703e-13 0 -2.37688e-13)
(4.4722e-13 0 -1.67221e-13)
(4.73303e-13 0 -9.84235e-14)
(4.82688e-13 0 -3.25832e-14)
(4.76391e-13 0 2.91869e-14)
(4.55656e-13 0 8.59523e-14)
(4.21908e-13 0 1.36949e-13)
(3.76703e-13 0 1.8157e-13)
(3.21696e-13 0 2.19346e-13)
(2.58609e-13 0 2.49925e-13)
(1.89204e-13 0 2.73055e-13)
(1.15272e-13 0 2.88562e-13)
(3.86996e-14 0 2.96342e-13)
(3.79102e-05 0 -0.00127519)
(0.000579491 0 -0.00148773)
(0.000497718 0 -0.00164407)
(0.00103907 0 -0.00141985)
(0.000936527 0 -0.00142866)
(0.00113944 0 -0.00120874)
(0.00120774 0 -0.00100892)
(0.00134299 0 -0.000858799)
(0.00144269 0 -0.000769007)
(0.00153759 0 -0.000677935)
(0.00162296 0 -0.000526838)
(0.00165908 0 -0.000446999)
(0.00173842 0 -0.000380239)
(0.00185533 0 -0.000205525)
(0.00192863 0 -0.000207275)
(0.00199189 0 -0.00022805)
(0.00208812 0 -0.000174521)
(0.00219499 0 -0.000145857)
(0.00225791 0 -0.000150862)
(0.00227017 0 -0.000153303)
(0.00225542 0 -0.000172034)
(0.00221647 0 -0.000164302)
(0.00218887 0 -0.000161672)
(0.00219382 0 -0.000147908)
(0.00219318 0 -0.000133316)
(0.00218632 0 -0.000116195)
(0.00219062 0 -0.000109797)
(0.002212 0 -8.62181e-05)
(0.00223446 0 -8.91757e-05)
(0.00225868 0 -0.000123112)
(0.00231711 0 -0.00012755)
(0.00239106 0 -0.000137273)
(0.00243957 0 -0.000268268)
(0.00250195 0 -0.000284501)
(0.00251951 0 -0.00014763)
(0.0025161 0 -0.000183475)
(0.00253379 0 -0.000221297)
(0.00255409 0 -8.73347e-05)
(0.0025495 0 -7.06468e-05)
(0.00255353 0 -3.69306e-05)
(0.00255241 0 1.34356e-05)
(0.00254031 0 8.30862e-05)
(0.00251142 0 -5.43148e-05)
(0.0025007 0 0.000167736)
(0.00249612 0 0.000180458)
(0.00246442 0 0.000126612)
(0.00241107 0 8.88854e-05)
(0.00235454 0 0.000299426)
(0.00230643 0 0.000303384)
(0.00225968 0 0.000238088)
(0.00219036 0 0.000489373)
(0.00211089 0 0.000670496)
(0.00200887 0 0.000780511)
(0.00193093 0 0.000835859)
(0.00186094 0 0.000971086)
(0.00178521 0 0.00105549)
(0.00168064 0 0.00112575)
(0.00160345 0 0.00105411)
(0.0014659 0 0.000999903)
(0.00125523 0 0.0011714)
(0.00122733 0 0.00117248)
(0.00113735 0 0.00117244)
(0.00111472 0 0.00090096)
(0.000880295 0 0.000787537)
(0.000637358 0 0.000696004)
(0.000629573 0 0.000255248)
(0.000601069 0 0.000181635)
(0.000459523 0 0.000343713)
(0.000248065 0 0.000446667)
(5.49738e-05 0 0.000464163)
(4.29573e-05 0 0.000424782)
(4.30658e-05 0 0.000427341)
(-2.08183e-05 0 0.000394931)
(-6.08952e-05 0 0.000312562)
(-8.35829e-05 0 0.000217864)
(-0.000116619 0 0.000134463)
(-0.000140308 0 7.64853e-05)
(-0.000197601 0 1.33257e-05)
(-0.00026289 0 4.02162e-05)
(-0.000288233 0 -7.99804e-05)
(-0.000232133 0 -0.000265913)
(-0.000229274 0 -0.000334593)
(-0.000168072 0 -0.00041242)
(-0.000148167 0 -0.000411791)
(1.35959e-05 0 -0.000296898)
(1.94212e-07 0 0.000293112)
(-1.12623e-12 0 9.66597e-14)
(-2.06809e-12 0 -1.54382e-13)
(-2.01568e-12 0 -3.15442e-13)
(-1.98068e-12 0 -4.2972e-13)
(-1.91578e-12 0 -5.24127e-13)
(-1.81964e-12 0 -6.07553e-13)
(-1.69791e-12 0 -6.81491e-13)
(-1.55598e-12 0 -7.45097e-13)
(-1.3983e-12 0 -7.96994e-13)
(-1.22881e-12 0 -8.35851e-13)
(-1.05119e-12 0 -8.6058e-13)
(-8.69126e-13 0 -8.70434e-13)
(-6.86271e-13 0 -8.65081e-13)
(-5.0626e-13 0 -8.44647e-13)
(-3.32598e-13 0 -8.09732e-13)
(-1.68562e-13 0 -7.614e-13)
(-1.70822e-14 0 -7.01129e-13)
(1.19349e-13 0 -6.30731e-13)
(2.38751e-13 0 -5.52258e-13)
(3.39691e-13 0 -4.67898e-13)
(4.2129e-13 0 -3.79869e-13)
(4.83205e-13 0 -2.90329e-13)
(5.25579e-13 0 -2.01301e-13)
(5.48981e-13 0 -1.14616e-13)
(5.54342e-13 0 -3.18823e-14)
(5.42883e-13 0 4.55311e-14)
(5.16048e-13 0 1.16492e-13)
(4.75447e-13 0 1.80092e-13)
(4.22803e-13 0 2.3562e-13)
(3.59915e-13 0 2.82542e-13)
(2.88622e-13 0 3.20465e-13)
(2.10786e-13 0 3.49113e-13)
(1.28276e-13 0 3.68303e-13)
(4.30431e-14 0 3.77924e-13)
(-0.000213407 0 -0.00163109)
(0.000580277 0 -0.00168035)
(0.00055099 0 -0.00169097)
(0.000516931 0 -0.00172392)
(0.000634536 0 -0.00162257)
(0.0011014 0 -0.00118873)
(0.000850205 0 -0.00122621)
(0.0011375 0 -0.000875718)
(0.00123023 0 -0.000731395)
(0.00123068 0 -0.000768583)
(0.00135535 0 -0.000535709)
(0.00139098 0 -0.000446248)
(0.00144262 0 -0.000399615)
(0.00150661 0 -0.000414742)
(0.00159981 0 -0.000356384)
(0.001691 0 -0.000285052)
(0.00177538 0 -0.000218595)
(0.00186141 0 -0.00011814)
(0.00189996 0 -0.000157927)
(0.00192802 0 -7.98851e-05)
(0.00192733 0 -0.00012889)
(0.00192901 0 -0.000163984)
(0.00195128 0 -0.000182886)
(0.00200681 0 -0.000147399)
(0.00201954 0 -0.000140195)
(0.00201743 0 -0.00014293)
(0.00203133 0 -0.000146492)
(0.00207331 0 -0.000110253)
(0.00212706 0 -0.000124705)
(0.00215029 0 -0.000296133)
(0.00218666 0 -0.000297093)
(0.00223794 0 -0.000244624)
(0.00226753 0 -0.000447667)
(0.00232599 0 -0.000209112)
(0.00231252 0 -0.000184862)
(0.00232075 0 -0.000167903)
(0.00234997 0 -0.00011604)
(0.00234369 0 -9.93918e-05)
(0.00231096 0 -7.63694e-05)
(0.00229657 0 -2.27293e-05)
(0.00229571 0 1.04858e-05)
(0.00228894 0 2.33109e-05)
(0.00226565 0 6.25712e-05)
(0.00223015 0 3.64434e-05)
(0.00220138 0 0.000245685)
(0.00219704 0 0.00014666)
(0.00217325 0 0.00020972)
(0.00212927 0 0.000334854)
(0.00208753 0 0.000328016)
(0.00199481 0 0.000372486)
(0.00194067 0 0.000469288)
(0.00191654 0 0.000546584)
(0.00188829 0 0.000544733)
(0.00184635 0 0.000622041)
(0.00164954 0 0.00100998)
(0.00159062 0 0.00111413)
(0.00152655 0 0.00118666)
(0.00144722 0 0.00118995)
(0.00129181 0 0.00118717)
(0.0012268 0 0.00116961)
(0.00120916 0 0.00116192)
(0.00111504 0 0.00118204)
(0.00115408 0 0.00100402)
(0.000912244 0 0.00101884)
(0.000839649 0 0.00075757)
(0.000785764 0 0.000354784)
(0.000495224 0 0.000378463)
(0.000372449 0 0.000481275)
(0.000275802 0 0.000532006)
(0.000349375 0 0.000437936)
(0.000237804 0 0.00044191)
(0.000169458 0 0.000482857)
(8.52488e-05 0 0.000474148)
(1.58315e-05 0 0.000373083)
(-5.14839e-05 0 0.000254044)
(-9.2848e-05 0 0.00016756)
(-9.18295e-05 0 0.000105603)
(-0.000107716 0 1.70465e-05)
(-0.000166812 0 2.80415e-05)
(-0.000220848 0 -2.93723e-05)
(-0.000202703 0 -0.000243772)
(-0.000244121 0 -0.000343647)
(-0.000203177 0 -0.000438991)
(-0.000192816 0 -0.000450632)
(-0.000143082 0 -0.000307206)
(2.52223e-07 0 0.000301468)
(-1.20499e-12 0 -1.94596e-14)
(-2.13541e-12 0 -1.73802e-13)
(-2.14466e-12 0 -3.39634e-13)
(-2.09997e-12 0 -4.85893e-13)
(-2.02033e-12 0 -6.13195e-13)
(-1.91113e-12 0 -7.24587e-13)
(-1.77679e-12 0 -8.2132e-13)
(-1.6216e-12 0 -9.03221e-13)
(-1.44959e-12 0 -9.694e-13)
(-1.26466e-12 0 -1.01872e-12)
(-1.07072e-12 0 -1.05011e-12)
(-8.71776e-13 0 -1.06276e-12)
(-6.71961e-13 0 -1.05629e-12)
(-4.75415e-13 0 -1.03088e-12)
(-2.86168e-13 0 -9.8731e-13)
(-1.07987e-13 0 -9.26962e-13)
(5.57733e-14 0 -8.51752e-13)
(2.02299e-13 0 -7.64027e-13)
(3.29402e-13 0 -6.66436e-13)
(4.35561e-13 0 -5.61785e-13)
(5.19926e-13 0 -4.52894e-13)
(5.82271e-13 0 -3.4248e-13)
(6.22933e-13 0 -2.33058e-13)
(6.42722e-13 0 -1.26877e-13)
(6.42835e-13 0 -2.58784e-14)
(6.24766e-13 0 6.83141e-14)
(5.90217e-13 0 1.54384e-13)
(5.41036e-13 0 2.31298e-13)
(4.79153e-13 0 2.98274e-13)
(4.06541e-13 0 3.54735e-13)
(3.25179e-13 0 4.00279e-13)
(2.37042e-13 0 4.3463e-13)
(1.44083e-13 0 4.57614e-13)
(4.83209e-14 0 4.69129e-13)
(8.00867e-05 0 -0.00179415)
(4.97362e-05 0 -0.00195931)
(0.000506441 0 -0.0019093)
(0.000619199 0 -0.00178916)
(0.000656024 0 -0.0016222)
(0.000683951 0 -0.00145654)
(0.000820297 0 -0.00120248)
(0.00094615 0 -0.000912291)
(0.00087941 0 -0.000953063)
(0.000971307 0 -0.000845656)
(0.00112823 0 -0.000596355)
(0.00115093 0 -0.000552934)
(0.00121212 0 -0.000503764)
(0.00130443 0 -0.000442438)
(0.00142234 0 -0.000287109)
(0.00149404 0 -0.000295391)
(0.00154488 0 -0.000282154)
(0.00158912 0 -0.000207772)
(0.00164003 0 -0.000227031)
(0.00170238 0 -0.000241621)
(0.00173942 0 -0.000139893)
(0.00177104 0 -0.000209854)
(0.00184488 0 -0.000170272)
(0.00188404 0 -0.000169017)
(0.00187945 0 -0.000199926)
(0.0018925 0 -0.000179403)
(0.00191045 0 -0.000204304)
(0.00194106 0 -0.000139731)
(0.0019818 0 -0.000185768)
(0.0020362 0 -0.000247827)
(0.00205902 0 -0.000264541)
(0.00205898 0 -0.000268103)
(0.00205797 0 -0.000274179)
(0.00207114 0 -0.000241668)
(0.00206731 0 -0.000234972)
(0.0020464 0 -0.000256345)
(0.00204887 0 -0.000139085)
(0.00204688 0 -4.97743e-05)
(0.00203042 0 -5.13893e-05)
(0.00200765 0 -2.67226e-05)
(0.00199843 0 8.61567e-05)
(0.00199337 0 7.39271e-05)
(0.00197961 0 0.000100263)
(0.00194679 0 0.00010476)
(0.00190406 0 0.000219147)
(0.00188433 0 0.00023766)
(0.00186493 0 0.000309395)
(0.00182332 0 0.000452201)
(0.00179339 0 0.000492543)
(0.00177995 0 0.000381877)
(0.00167231 0 0.000646963)
(0.00161587 0 0.000783199)
(0.00160589 0 0.000794634)
(0.00150976 0 0.000912601)
(0.00143664 0 0.00103284)
(0.00143294 0 0.00112021)
(0.00132329 0 0.00126992)
(0.00127288 0 0.00127095)
(0.00122622 0 0.00118345)
(0.00113956 0 0.00121554)
(0.00108189 0 0.00125377)
(0.001043 0 0.00124075)
(0.000953696 0 0.00122283)
(0.000897657 0 0.00108509)
(0.000823444 0 0.000859046)
(0.000619318 0 0.000653746)
(0.00044325 0 0.000520143)
(0.000425555 0 0.000555703)
(0.000562418 0 0.000439425)
(0.000667738 0 0.00034199)
(0.000430322 0 0.000464078)
(0.000268688 0 0.000572504)
(0.000144418 0 0.000570876)
(5.14119e-05 0 0.000438244)
(3.85845e-06 0 0.000310439)
(-2.01663e-05 0 0.000215772)
(-6.10885e-05 0 0.000142224)
(-0.000115395 0 8.80617e-05)
(-0.000115052 0 4.7601e-05)
(-8.4614e-05 0 -2.70466e-05)
(-0.000132357 0 -0.00018879)
(-0.000161019 0 -0.000339575)
(-0.000211412 0 -0.000445161)
(-0.000205787 0 -0.000487103)
(-0.000110912 0 -0.000391315)
(-3.05903e-07 0 0.000131248)
(-1.10197e-12 0 6.15293e-14)
(-2.38802e-12 0 -1.81652e-13)
(-2.32768e-12 0 -3.83323e-13)
(-2.25424e-12 0 -5.61025e-13)
(-2.15448e-12 0 -7.18176e-13)
(-2.02777e-12 0 -8.56288e-13)
(-1.87654e-12 0 -9.75996e-13)
(-1.70406e-12 0 -1.07709e-12)
(-1.51381e-12 0 -1.15868e-12)
(-1.30952e-12 0 -1.21955e-12)
(-1.09523e-12 0 -1.25841e-12)
(-8.75302e-13 0 -1.27421e-12)
(-6.5439e-13 0 -1.26644e-12)
(-4.37281e-13 0 -1.23527e-12)
(-2.28682e-13 0 -1.18166e-12)
(-3.30033e-14 0 -1.10738e-12)
(1.45853e-13 0 -1.01488e-12)
(3.04665e-13 0 -9.07187e-13)
(4.40993e-13 0 -7.87679e-13)
(5.53233e-13 0 -6.59921e-13)
(6.40595e-13 0 -5.27456e-13)
(7.03041e-13 0 -3.93656e-13)
(7.41181e-13 0 -2.61596e-13)
(7.56161e-13 0 -1.33976e-13)
(7.49534e-13 0 -1.30851e-14)
(7.23145e-13 0 9.92056e-14)
(6.79032e-13 0 2.0142e-13)
(6.19337e-13 0 2.92436e-13)
(5.46241e-13 0 3.71436e-13)
(4.6192e-13 0 4.37845e-13)
(3.68516e-13 0 4.91284e-13)
(2.6812e-13 0 5.31514e-13)
(1.62775e-13 0 5.58394e-13)
(5.45586e-14 0 5.7185e-13)
(2.67781e-05 0 -0.00195686)
(0.000350661 0 -0.00209261)
(0.000294471 0 -0.0020748)
(0.000492283 0 -0.00191721)
(0.000580309 0 -0.00164091)
(0.000570037 0 -0.00141016)
(0.000472739 0 -0.00134278)
(0.000729015 0 -0.0010603)
(0.00080994 0 -0.000922575)
(0.000763206 0 -0.000914224)
(0.00095409 0 -0.000674777)
(0.00100252 0 -0.000601914)
(0.00106555 0 -0.000551063)
(0.00112869 0 -0.000552905)
(0.00125465 0 -0.000438573)
(0.00132298 0 -0.000456786)
(0.00141513 0 -0.000316997)
(0.00143843 0 -0.000376697)
(0.00150474 0 -0.00021266)
(0.00159455 0 -2.81092e-05)
(0.00161236 0 -0.000336956)
(0.00167514 0 -0.000260301)
(0.00170531 0 -0.000186352)
(0.00170188 0 -0.000195774)
(0.00170583 0 -0.000207594)
(0.00172992 0 -0.000155331)
(0.00175077 0 -0.000154836)
(0.00175473 0 -0.000243627)
(0.00177613 0 -0.000277239)
(0.00180726 0 -0.000292438)
(0.00181502 0 -0.000265213)
(0.00179591 0 -0.000315907)
(0.00175692 0 -0.000365863)
(0.00175888 0 -0.000223226)
(0.00176468 0 -0.000163387)
(0.00175112 0 -0.000171842)
(0.00171527 0 -0.000126367)
(0.00170544 0 -5.83027e-05)
(0.00170933 0 -1.71174e-05)
(0.00169756 0 9.09758e-07)
(0.00166705 0 5.85266e-05)
(0.00166806 0 6.92593e-05)
(0.00167994 0 8.88572e-05)
(0.00166961 0 0.000124828)
(0.00165443 0 0.00013001)
(0.00163941 0 0.000110993)
(0.0016129 0 0.000247848)
(0.00159187 0 0.000353531)
(0.00158036 0 0.000388032)
(0.00155214 0 0.000432815)
(0.00141008 0 0.000696808)
(0.00139245 0 0.000739655)
(0.00131273 0 0.000885444)
(0.00121063 0 0.00100219)
(0.00119132 0 0.00108427)
(0.00104893 0 0.00131544)
(0.00103283 0 0.00136342)
(0.00107731 0 0.00129348)
(0.00103134 0 0.00126371)
(0.000985233 0 0.00130012)
(0.000952245 0 0.00131891)
(0.000944415 0 0.00128922)
(0.000921614 0 0.00121757)
(0.000846066 0 0.0011168)
(0.000800288 0 0.000938901)
(0.000724091 0 0.000667491)
(0.000698814 0 0.000435552)
(0.000686627 0 0.000444682)
(0.000644898 0 0.000505116)
(0.000370843 0 0.000658543)
(0.000271477 0 0.000715099)
(0.000158608 0 0.000761755)
(0.000125738 0 0.000665559)
(0.000138175 0 0.000485238)
(8.46178e-05 0 0.000363501)
(2.75944e-05 0 0.000247852)
(8.86646e-06 0 0.000162116)
(2.8213e-05 0 0.000103736)
(1.20511e-06 0 4.46927e-05)
(-2.87479e-05 0 -1.05536e-05)
(-9.68799e-05 0 -0.000108956)
(-4.01148e-05 0 -0.000295503)
(-0.000173012 0 -0.000423462)