/*--------------------------------*- C++ -*----------------------------------*\
  =========                 |
  \\      /  F ield         | OpenFOAM: The Open Source CFD Toolbox
   \\    /   O peration     | Website:  https://openfoam.org
    \\  /    A nd           | Version:  6
     \\/     M anipulation  |
\*---------------------------------------------------------------------------*/
FoamFile
{
    version     2.0;
    format      ascii;
    class       surfaceScalarField;
    location    "2850";
    object      phi;
}
// * * * * * * * * * * * * * * * * * * * * * * * * * * * * * * * * * * * * * //

dimensions      [0 3 -1 0 0 0 0];

internalField   nonuniform List<scalar> 
9440
(
1.61275e-10
-1.61275e-10
-1.65578e-10
3.26853e-10
-3.22015e-10
1.56438e-10
-5.25764e-10
2.0375e-10
-1.00953e-09
4.83768e-10
-1.25541e-09
2.45877e-10
-1.59704e-09
3.41629e-10
-1.76335e-09
1.66312e-10
-1.87658e-09
1.13228e-10
-1.87389e-09
-2.68663e-12
-1.83853e-09
-3.53525e-11
-1.73184e-09
-1.0669e-10
-1.51761e-09
-2.14238e-10
-1.48349e-09
-3.41119e-11
-1.44727e-09
-3.62202e-11
-1.28215e-09
-1.6512e-10
-1.45519e-09
1.73041e-10
-9.559e-10
-4.99292e-10
-8.10237e-10
-1.45663e-10
-3.80324e-10
-4.29912e-10
-4.32016e-10
5.16925e-11
-1.52876e-10
-2.79139e-10
1.50943e-11
-1.6797e-10
7.23479e-11
-5.72531e-11
3.45625e-10
-2.73277e-10
5.4662e-10
-2.00994e-10
7.36849e-10
-1.90229e-10
1.03802e-09
-3.01168e-10
1.24894e-09
-2.10924e-10
1.61813e-09
-3.69189e-10
1.50108e-09
1.17051e-10
2.05544e-09
-5.54357e-10
2.3955e-09
-3.40058e-10
2.42538e-09
-2.98816e-11
2.87479e-09
-4.49411e-10
3.08807e-09
-2.13277e-10
3.10188e-09
-1.38169e-11
3.26808e-09
-1.66193e-10
3.39201e-09
-1.2393e-10
3.48807e-09
-9.60606e-11
3.60316e-09
-1.15088e-10
3.73259e-09
-1.29429e-10
3.86872e-09
-1.36133e-10
3.95378e-09
-8.50573e-11
3.96817e-09
-1.43895e-11
4.04002e-09
-7.18514e-11
4.0692e-09
-2.91869e-11
3.99091e-09
7.82912e-11
4.15356e-09
-1.62645e-10
4.25398e-09
-1.00426e-10
4.31431e-09
-6.03264e-11
4.37977e-09
-6.5462e-11
4.48606e-09
-1.0629e-10
4.50288e-09
-1.68235e-11
4.4896e-09
1.32836e-11
4.50072e-09
-1.11182e-11
4.48609e-09
1.46235e-11
4.36944e-09
1.16653e-10
4.20777e-09
1.61668e-10
4.04989e-09
1.57885e-10
3.76735e-09
2.82535e-10
3.11484e-09
6.52508e-10
2.47234e-09
6.42499e-10
2.09153e-09
3.80812e-10
1.8359e-09
2.55628e-10
1.81855e-09
1.73516e-11
1.72148e-09
9.70697e-11
1.62081e-09
1.00669e-10
1.50756e-09
1.13249e-10
1.3063e-09
2.01263e-10
1.05156e-09
2.5474e-10
8.72103e-10
1.79452e-10
8.19444e-10
5.26593e-11
8.06302e-10
1.3142e-11
7.55861e-10
5.04407e-11
6.72996e-10
8.28652e-11
6.58024e-10
1.49718e-11
7.14731e-10
-5.67075e-11
6.38308e-10
7.64227e-11
4.20462e-12
6.34104e-10
-3.16888e-18
4.20456e-12
-1.1623e-17
8.43967e-18
-1.43247e-17
2.70165e-18
-1.52491e-17
9.24241e-19
-1.53749e-17
1.2569e-19
-1.50745e-17
-3.00608e-19
-1.45067e-17
-5.68052e-19
-1.37501e-17
-7.5692e-19
-1.28515e-17
-8.98897e-19
-1.18449e-17
-1.007e-18
-1.07586e-17
-1.08682e-18
-9.61812e-18
-1.14101e-18
-8.44753e-18
-1.17121e-18
-7.26932e-18
-1.17889e-18
-6.10437e-18
-1.1657e-18
-4.97161e-18
-1.13357e-18
-3.88778e-18
-1.0847e-18
-2.86718e-18
-1.02155e-18
-1.92148e-18
-9.46679e-19
-1.05976e-18
-8.62715e-19
-2.88521e-19
-7.72215e-19
3.88177e-19
-6.77607e-19
9.68487e-19
-5.81117e-19
1.45254e-18
-4.8473e-19
1.84216e-18
-3.9016e-19
2.14059e-18
-2.98841e-19
2.35219e-18
-2.11922e-19
2.4822e-18
-1.3028e-19
2.53651e-18
-5.45467e-20
2.52145e-18
1.48597e-20
2.44362e-18
7.76974e-20
2.30973e-18
1.3386e-19
2.1265e-18
1.83342e-19
1.90054e-18
2.26208e-19
1.63833e-18
2.62568e-19
1.3462e-18
2.92557e-19
1.03031e-18
3.16322e-19
6.96707e-19
3.34002e-19
3.51325e-19
3.45725e-19
3.51624e-19
-5.55679e-10
3.94405e-10
-6.82675e-10
4.5385e-10
-1.10899e-09
5.82758e-10
-1.20577e-09
3.00531e-10
-1.27754e-09
5.55533e-10
-1.63157e-09
5.99909e-10
-1.67795e-09
3.88008e-10
-1.89189e-09
3.80255e-10
-1.98015e-09
2.01494e-10
-2.01717e-09
3.4333e-11
-2.03785e-09
-1.4668e-11
-2.05382e-09
-9.0725e-11
-2.06942e-09
-1.98638e-10
-1.99641e-09
-1.07123e-10
-1.85528e-09
-1.77342e-10
-1.80953e-09
-2.1087e-10
-1.49523e-09
-1.4126e-10
-1.31925e-09
-6.7527e-10
-1.17731e-09
-2.87607e-10
-1.3118e-09
-2.95416e-10
-9.32961e-10
-3.27146e-10
-8.66445e-10
-3.45654e-10
-6.61944e-10
-3.7247e-10
-5.82086e-10
-1.3711e-10
-7.99363e-11
-7.75426e-10
1.78605e-10
-4.59534e-10
4.29307e-10
-4.40931e-10
6.46652e-10
-5.18512e-10
9.15448e-10
-4.79718e-10
1.21635e-09
-6.70095e-10
1.25226e-09
8.11489e-11
1.74636e-09
-1.04846e-09
1.9107e-09
-5.04397e-10
2.21242e-09
-3.31609e-10
2.56964e-09
-8.06623e-10
2.68199e-09
-3.25626e-10
2.79284e-09
-1.24673e-10
3.0642e-09
-4.37548e-10
3.17549e-09
-2.35222e-10
3.27378e-09
-1.94352e-10
3.42264e-09
-2.63951e-10
3.49639e-09
-2.03175e-10
3.54036e-09
-1.80105e-10
3.53604e-09
-8.07325e-11
3.57322e-09
-5.15752e-11
3.67597e-09
-1.74605e-10
3.69797e-09
-5.11819e-11
3.77352e-09
2.74112e-12
3.84664e-09
-2.3577e-10
4.0049e-09
-2.58688e-10
4.06016e-09
-1.15582e-10
4.13081e-09
-1.36116e-10
4.32864e-09
-3.04119e-10
4.34216e-09
-3.03487e-11
4.37243e-09
-1.6981e-11
4.34514e-09
1.61694e-11
4.33073e-09
2.9033e-11
4.28401e-09
1.6337e-10
4.07216e-09
3.73516e-10
3.82398e-09
4.06063e-10
3.64541e-09
4.61109e-10
3.52895e-09
7.6897e-10
3.29132e-09
8.80123e-10
2.71923e-09
9.529e-10
2.08385e-09
8.91009e-10
1.83978e-09
2.61418e-10
1.72349e-09
2.13357e-10
1.60187e-09
2.22291e-10
1.48385e-09
2.31267e-10
1.36634e-09
3.18772e-10
1.25755e-09
3.63531e-10
1.05452e-09
3.8249e-10
9.25942e-10
1.81232e-10
7.91398e-10
1.47686e-10
7.57683e-10
8.41551e-11
6.24575e-10
2.15973e-10
4.53658e-10
1.85889e-10
1.53473e-10
2.43478e-10
-2.67049e-10
4.96944e-10
-5.84155e-10
9.5121e-10
3.75332e-17
-5.79951e-10
-1.62235e-17
2.94434e-18
-1.61027e-17
2.58068e-18
-1.60479e-17
8.69078e-19
-1.58012e-17
-1.21386e-19
-1.5342e-17
-7.60228e-19
-1.46956e-17
-1.21496e-18
-1.38921e-17
-1.56106e-18
-1.29596e-17
-1.83205e-18
-1.19247e-17
-2.04274e-18
-1.08128e-17
-2.19976e-18
-9.64832e-18
-2.30654e-18
-8.45521e-18
-2.36552e-18
-7.25613e-18
-2.37929e-18
-6.07223e-18
-2.35102e-18
-4.92274e-18
-2.28457e-18
-3.82463e-18
-2.18442e-18
-2.79231e-18
-2.05552e-18
-1.83752e-18
-1.90313e-18
-9.69263e-19
-1.73257e-18
-1.93913e-19
-1.54906e-18
4.84667e-19
-1.35752e-18
1.06487e-18
-1.16248e-18
1.54711e-18
-9.67945e-19
1.93348e-18
-7.77354e-19
2.22751e-18
-5.93558e-19
2.43383e-18
-4.18818e-19
2.55794e-18
-2.54846e-19
2.60592e-18
-1.02863e-19
2.58429e-18
3.63231e-20
2.49978e-18
1.62242e-19
2.35921e-18
2.74687e-19
2.16936e-18
3.73655e-19
1.9369e-18
4.59293e-19
1.66832e-18
5.31851e-19
1.36996e-18
5.91635e-19
1.04799e-18
6.38972e-19
7.0843e-19
6.74169e-19
3.57224e-19
6.97484e-19
7.09102e-19
-4.64829e-10
8.59235e-10
-7.03791e-10
6.92813e-10
-8.86465e-10
7.65433e-10
-1.30924e-09
7.23304e-10
-1.48428e-09
7.30574e-10
-1.6315e-09
7.4713e-10
-1.82731e-09
5.83824e-10
-1.95482e-09
5.07759e-10
-2.03063e-09
2.77305e-10
-2.13836e-09
1.42071e-10
-2.20859e-09
5.55555e-11
-2.16599e-09
-1.33317e-10
-2.21749e-09
-1.47142e-10
-2.06942e-09
-2.55194e-10
-1.88098e-09
-3.65778e-10
-1.84576e-09
-2.4609e-10
-1.63559e-09
-3.51423e-10
-1.83245e-09
-4.78414e-10
-1.71828e-09
-4.01772e-10
-1.84138e-09
-1.72324e-10
-1.44735e-09
-7.21166e-10
-1.54307e-09
-2.49943e-10
-1.32882e-09
-5.86717e-10
-1.07643e-09
-3.89494e-10
-6.42402e-10
-1.20946e-09
-3.90468e-10
-7.11467e-10
6.85321e-11
-8.9993e-10
4.24629e-10
-8.74608e-10
7.95465e-10
-8.50553e-10
1.08068e-09
-9.55308e-10
1.36152e-09
-1.99694e-10
1.57886e-09
-1.26579e-09
1.6961e-09
-6.21642e-10
2.25996e-09
-8.95464e-10
2.42161e-09
-9.68275e-10
2.57361e-09
-4.77623e-10
2.75413e-09
-3.05194e-10
2.93719e-09
-6.20605e-10
3.11559e-09
-4.13621e-10
3.29924e-09
-3.78003e-10
3.32018e-09
-2.84892e-10
3.34847e-09
-2.31466e-10
3.32377e-09
-1.55401e-10
3.37864e-09
-1.35606e-10
3.42393e-09
-9.68683e-11
3.44587e-09
-1.96547e-10
3.54363e-09
-1.48936e-10
3.73089e-09
-1.84525e-10
3.77117e-09
-2.76048e-10
3.85481e-09
-3.42325e-10
3.94774e-09
-2.08511e-10
4.0254e-09
-2.1378e-10
4.11188e-09
-3.90598e-10
4.19477e-09
-1.13241e-10
4.21883e-09
-4.10464e-11
4.16091e-09
7.4096e-11
4.05087e-09
1.39067e-10
4.0031e-09
2.11144e-10
3.95519e-09
4.21428e-10
3.78061e-09
5.80634e-10
3.51373e-09
7.27992e-10
3.28804e-09
9.94661e-10
3.04395e-09
1.12421e-09
2.75065e-09
1.2462e-09
2.50233e-09
1.13934e-09
2.0644e-09
6.99339e-10
1.78799e-09
4.89773e-10
1.62888e-09
3.814e-10
1.47254e-09
3.876e-10
1.34244e-09
4.48871e-10
1.17691e-09
5.29066e-10
1.04856e-09
5.10838e-10
9.29194e-10
3.00597e-10
8.50496e-10
2.26385e-10
7.38354e-10
1.96296e-10
6.48375e-10
3.05952e-10
4.38487e-10
3.95776e-10
1.81103e-10
5.00862e-10
-2.35777e-11
7.01625e-10
-1.77796e-10
1.10543e-09
2.60821e-17
-7.57747e-10
-1.94505e-17
-1.3805e-18
-1.7814e-17
9.44099e-19
-1.7038e-17
9.28328e-20
-1.64398e-17
-7.19944e-19
-1.57967e-17
-1.40361e-18
-1.50417e-17
-1.97036e-18
-1.41631e-17
-2.44016e-18
-1.31703e-17
-2.82533e-18
-1.20818e-17
-3.13192e-18
-1.09195e-17
-3.36272e-18
-9.7073e-18
-3.5196e-18
-8.46899e-18
-3.60474e-18
-7.22786e-18
-3.62141e-18
-6.00578e-18
-3.57417e-18
-4.82259e-18
-3.46887e-18
-3.69573e-18
-3.31242e-18
-2.63992e-18
-3.11252e-18
-1.66696e-18
-2.87729e-18
-7.85751e-19
-2.61498e-18
-2.37925e-21
-2.33363e-18
6.79706e-19
-2.04079e-18
1.25941e-18
-1.74332e-18
1.7377e-18
-1.4473e-18
2.11728e-18
-1.15789e-18
2.40225e-18
-8.79338e-19
2.5978e-18
-6.14995e-19
2.70992e-18
-3.6738e-19
2.74511e-18
-1.38273e-19
2.71021e-18
7.11794e-20
2.61223e-18
2.60347e-19
2.45818e-18
4.29005e-19
2.255e-18
5.77233e-19
2.00946e-18
7.05335e-19
1.72811e-18
8.13756e-19
1.4173e-18
9.03016e-19
1.08319e-18
9.73646e-19
7.31746e-19
1.02614e-18
3.68842e-19
1.0609e-18
1.07821e-18
-4.55097e-10
1.31433e-09
-8.61646e-10
1.09936e-09
-1.00997e-09
9.13756e-10
-1.21802e-09
9.31353e-10
-1.5724e-09
1.08496e-09
-1.69321e-09
8.67943e-10
-1.86487e-09
7.55481e-10
-2.01439e-09
6.57278e-10
-2.0504e-09
3.13322e-10
-2.19568e-09
2.87353e-10
-2.27127e-09
1.31146e-10
-2.26948e-09
-1.35105e-10
-2.2873e-09
-1.29323e-10
-2.25517e-09
-2.87325e-10
-2.18949e-09
-4.31461e-10
-2.12953e-09
-3.06044e-10
-2.04785e-09
-4.33109e-10
-2.08853e-09
-4.37727e-10
-2.1761e-09
-3.14202e-10
-2.18606e-09
-1.62369e-10
-1.88894e-09
-1.01828e-09
-1.78432e-09
-3.54561e-10
-1.5909e-09
-7.80144e-10
-1.24599e-09
-7.34398e-10
-1.05565e-09
-1.3998e-09
-8.02019e-10
-9.65094e-10
-3.57745e-10
-1.3442e-09
4.73075e-11
-1.27966e-09
5.06432e-10
-1.30968e-09
8.0667e-10
-1.25555e-09
1.54734e-09
-9.40365e-10
1.50681e-09
-1.22525e-09
1.72885e-09
-8.43685e-10
2.23175e-09
-1.39837e-09
2.21944e-09
-9.55965e-10
2.55089e-09
-8.09071e-10
2.85561e-09
-6.09913e-10
3.03074e-09
-7.95736e-10
3.12683e-09
-5.09703e-10
3.1777e-09
-4.28873e-10
3.18494e-09
-2.92137e-10
3.1813e-09
-2.27831e-10
3.1868e-09
-1.60896e-10
3.21211e-09
-1.60915e-10
3.31712e-09
-2.01878e-10
3.3708e-09
-2.50226e-10
3.47337e-09
-2.51511e-10
3.55817e-09
-2.69323e-10
3.57608e-09
-2.93961e-10
3.65242e-09
-4.18667e-10
3.87058e-09
-4.26671e-10
4.01714e-09
-3.60342e-10
3.95035e-09
-3.23807e-10
3.99086e-09
-1.53751e-10
4.00988e-09
-6.00627e-11
3.96698e-09
1.16996e-10
3.87591e-09
2.3013e-10
3.71023e-09
3.76822e-10
3.56916e-09
5.62499e-10
3.40897e-09
7.4082e-10
3.20896e-09
9.28008e-10
3.1183e-09
1.08532e-09
2.94756e-09
1.29494e-09
2.72617e-09
1.4676e-09
2.48031e-09
1.38519e-09
2.09944e-09
1.08021e-09
1.83574e-09
7.53475e-10
1.66526e-09
5.51873e-10
1.49988e-09
5.52988e-10
1.34829e-09
6.00461e-10
1.24487e-09
6.32486e-10
1.16076e-09
5.9494e-10
9.58287e-10
5.03074e-10
8.95822e-10
2.8885e-10
8.01e-10
2.91117e-10
6.91287e-10
4.15665e-10
5.45607e-10
5.41456e-10
2.94213e-10
7.52256e-10
9.49472e-11
9.00891e-10
1.07221e-10
1.09315e-09
2.16569e-17
-6.50526e-10
-1.96837e-17
-1.45492e-18
-1.8665e-17
-7.46936e-20
-1.78505e-17
-7.21877e-19
-1.71232e-17
-1.44755e-18
-1.63635e-17
-2.16363e-18
-1.55115e-17
-2.82264e-18
-1.45482e-17
-3.40384e-18
-1.34769e-17
-3.89713e-18
-1.23126e-17
-4.29677e-18
-1.10764e-17
-4.59951e-18
-9.79244e-18
-4.80426e-18
-8.48566e-18
-4.91228e-18
-7.18063e-18
-4.92726e-18
-5.90048e-18
-4.85518e-18
-4.66614e-18
-4.7041e-18
-3.49583e-18
-4.48366e-18
-2.40469e-18
-4.20463e-18
-1.40465e-18
-3.87837e-18
-5.04397e-19
-3.51635e-18
2.90466e-19
-3.12967e-18
9.77168e-19
-2.72869e-18
1.55543e-18
-2.3228e-18
2.02711e-18
-1.92015e-18
2.39583e-18
-1.52766e-18
2.66659e-18
-1.15096e-18
2.84542e-18
-7.94446e-19
2.93903e-18
-4.61367e-19
2.95456e-18
-1.53964e-19
2.89938e-18
1.26385e-19
2.78089e-18
3.79001e-19
2.60641e-18
6.03749e-19
2.3831e-18
8.00901e-19
2.11788e-18
9.71e-19
1.81737e-18
1.11476e-18
1.48793e-18
1.23298e-18
1.13568e-18
1.32644e-18
7.66505e-19
1.39585e-18
3.86155e-19
1.44178e-18
1.46466e-18
-3.17783e-10
1.63212e-09
-7.13547e-10
1.49513e-09
-1.03952e-09
1.23973e-09
-1.26289e-09
1.15473e-09
-1.52092e-09
1.34299e-09
-1.72079e-09
1.06782e-09
-1.90296e-09
9.37652e-10
-1.98363e-09
7.37949e-10
-2.15511e-09
4.84795e-10
-2.29784e-09
4.30091e-10
-2.29951e-09
1.32809e-10
-2.37278e-09
-6.18335e-11
-2.39461e-09
-1.07492e-10
-2.37037e-09
-3.11561e-10
-2.46145e-09
-3.40377e-10
-2.47307e-09
-2.94421e-10
-2.4448e-09
-4.61384e-10
-2.49489e-09
-3.87638e-10
-2.4835e-09
-3.25583e-10
-2.26491e-09
-3.80966e-10
-2.25852e-09
-1.02466e-09
-1.97554e-09
-6.37543e-10
-1.81291e-09
-9.42779e-10
-1.37701e-09
-1.1703e-09
-1.24066e-09
-1.53615e-09
-7.8038e-10
-1.42537e-09
-3.78899e-10
-1.74568e-09
5.6743e-11
-1.7153e-09
5.02136e-10
-1.75507e-09
7.34985e-10
-1.48839e-09
1.3114e-09
-1.51678e-09
1.51085e-09
-1.4247e-09
1.96195e-09
-1.29478e-09
2.09712e-09
-1.53354e-09
2.27729e-09
-1.13613e-09
2.55105e-09
-1.08283e-09
2.61066e-09
-6.69518e-10
2.86003e-09
-1.0451e-09
2.93601e-09
-5.85688e-10
2.981e-09
-4.73856e-10
2.99543e-09
-3.06575e-10
2.97241e-09
-2.04807e-10
2.99443e-09
-1.82917e-10
2.94737e-09
-1.13856e-10
3.01861e-09
-2.73115e-10
3.04182e-09
-2.73439e-10
3.16016e-09
-3.69853e-10
3.22892e-09
-3.38078e-10
3.28597e-09
-3.51017e-10
3.43912e-09
-5.71812e-10
3.59444e-09
-5.81989e-10
3.61136e-09
-3.77266e-10
3.60469e-09
-3.17136e-10
3.62382e-09
-1.72887e-10
3.67271e-09
-1.08954e-10
3.65689e-09
1.32816e-10
3.53107e-09
3.55954e-10
3.43197e-09
4.75917e-10
3.31204e-09
6.82424e-10
3.17029e-09
8.82578e-10
3.03405e-09
1.06424e-09
2.86369e-09
1.25568e-09
2.6043e-09
1.55433e-09
2.42268e-09
1.64921e-09
2.28642e-09
1.52146e-09
2.09806e-09
1.26857e-09
1.88002e-09
9.71508e-10
1.70045e-09
7.31444e-10
1.54105e-09
7.12387e-10
1.39759e-09
7.43925e-10
1.32351e-09
7.06566e-10
1.2584e-09
6.60052e-10
1.09757e-09
6.63902e-10
1.00933e-09
3.77083e-10
8.39378e-10
4.61073e-10
7.02132e-10
5.52911e-10
5.53707e-10
6.8988e-10
4.72133e-10
8.3383e-10
4.17207e-10
9.55817e-10
2.98634e-10
1.21173e-09
3.15082e-18
-3.51892e-10
-2.02544e-17
-2.89966e-18
-1.9312e-17
-1.01721e-18
-1.8576e-17
-1.45806e-18
-1.7839e-17
-2.1847e-18
-1.70225e-17
-2.98046e-18
-1.60927e-17
-3.75273e-18
-1.50415e-17
-4.45542e-18
-1.38765e-17
-5.06254e-18
-1.26153e-17
-5.55851e-18
-1.12812e-17
-5.93423e-18
-9.90046e-18
-6.18558e-18
-8.50063e-18
-6.3128e-18
-7.10855e-18
-6.32007e-18
-5.74939e-18
-6.21512e-18
-4.4457e-18
-6.00859e-18
-3.2168e-18
-5.71339e-18
-2.07843e-18
-5.34388e-18
-1.04263e-18
-4.91515e-18
-1.17714e-19
-4.44233e-18
6.91439e-19
-3.93996e-18
1.38307e-18
-3.42149e-18
1.95808e-18
-2.89898e-18
2.4196e-18
-2.38279e-18
2.77253e-18
-1.88161e-18
3.02311e-18
-1.40239e-18
3.1785e-18
-9.50457e-19
3.24643e-18
-5.29676e-19
3.23491e-18
-1.42598e-19
3.15199e-18
2.09323e-19
3.00563e-18
5.25512e-19
2.80356e-18
8.06072e-19
2.5532e-18
1.05159e-18
2.26164e-18
1.26296e-18
1.93559e-18
1.44129e-18
1.58139e-18
1.58769e-18
1.20508e-18
1.70329e-18
8.12441e-19
1.78905e-18
4.09029e-19
1.84577e-18
1.87399e-18
-4.59534e-10
2.09165e-09
-9.402e-10
1.9758e-09
-1.33589e-09
1.63543e-09
-1.56351e-09
1.38234e-09
-1.64669e-09
1.42617e-09
-1.74755e-09
1.16868e-09
-1.93399e-09
1.12409e-09
-2.05866e-09
8.62626e-10
-2.23304e-09
6.59171e-10
-2.28859e-09
4.85642e-10
-2.36359e-09
2.07815e-10
-2.47466e-09
4.92378e-11
-2.47016e-09
-1.11996e-10
-2.4952e-09
-2.86521e-10
-2.57037e-09
-2.65199e-10
-2.60854e-09
-2.56254e-10
-2.65042e-09
-4.19506e-10
-2.67086e-09
-3.67192e-10
-2.63563e-09
-3.60811e-10
-2.29314e-09
-7.23455e-10
-2.3508e-09
-9.66998e-10
-1.97924e-09
-1.0091e-09
-1.74903e-09
-1.17299e-09
-1.33449e-09
-1.58483e-09
-1.10428e-09
-1.76636e-09
-6.38188e-10
-1.89146e-09
-3.94869e-10
-1.989e-09
-3.70291e-11
-2.07314e-09
3.0399e-10
-2.09609e-09
7.54326e-10
-1.93873e-09
1.13339e-09
-1.89585e-09
1.5101e-09
-1.80141e-09
2.04604e-09
-1.83072e-09
2.04993e-09
-1.53744e-09
2.21225e-09
-1.29845e-09
2.28959e-09
-1.16018e-09
2.29114e-09
-6.71065e-10
2.30806e-09
-1.06203e-09
2.46968e-09
-7.47303e-10
2.51824e-09
-5.22418e-10
2.56871e-09
-3.57045e-10
2.58162e-09
-2.17718e-10
2.61701e-09
-2.18308e-10
2.54134e-09
-3.81823e-11
2.66464e-09
-3.9642e-10
2.61937e-09
-2.28168e-10
2.71186e-09
-4.62343e-10
2.87811e-09
-5.04325e-10
2.98642e-09
-4.5933e-10
3.08616e-09
-6.71558e-10
3.16281e-09
-6.58638e-10
3.24104e-09
-4.55491e-10
3.22932e-09
-3.05422e-10
3.19517e-09
-1.38732e-10
3.12898e-09
-4.27709e-11
3.11253e-09
1.49265e-10
2.92513e-09
5.43354e-10
2.91775e-09
4.83298e-10
2.78603e-09
8.14149e-10
2.56217e-09
1.10644e-09
2.39908e-09
1.22733e-09
2.22121e-09
1.43356e-09
2.14948e-09
1.62605e-09
2.11611e-09
1.68257e-09
2.06108e-09
1.57649e-09
1.94116e-09
1.38849e-09
1.78038e-09
1.13229e-09
1.63476e-09
8.77064e-10
1.5425e-09
8.04648e-10
1.45656e-09
8.29862e-10
1.38645e-09
7.76672e-10
1.32309e-09
7.23417e-10
1.24483e-09
7.42157e-10
1.11344e-09
5.08479e-10
1.04131e-09
5.33194e-10
9.21175e-10
6.7305e-10
8.20586e-10
7.90469e-10
7.13217e-10
9.41199e-10
5.5442e-10
1.11461e-09
4.59081e-10
1.30706e-09
-1.82635e-17
1.0719e-10
-1.97646e-17
-9.67167e-19
-1.97526e-17
-1.02935e-18
-1.93024e-17
-1.90842e-18
-1.86346e-17
-2.85273e-18
-1.77947e-17
-3.8206e-18
-1.67954e-17
-4.75244e-18
-1.56486e-17
-5.60261e-18
-1.43725e-17
-6.33914e-18
-1.2991e-17
-6.94051e-18
-1.15325e-17
-7.39332e-18
-1.00277e-17
-7.69103e-18
-8.50791e-18
-7.83325e-18
-7.0036e-18
-7.82511e-18
-5.54286e-18
-7.67663e-18
-4.15049e-18
-7.40176e-18
-2.84729e-18
-7.0174e-18
-1.64971e-18
-6.5423e-18
-5.69807e-19
-5.99597e-18
3.84661e-19
-5.3978e-18
1.2099e-18
-4.76625e-18
1.90558e-18
-4.11825e-18
2.47426e-18
-3.4687e-18
2.92078e-18
-2.83032e-18
3.25175e-18
-2.21352e-18
3.47504e-18
-1.62648e-18
3.59928e-18
-1.07533e-18
3.63351e-18
-5.6432e-19
3.58683e-18
-9.61196e-20
3.46818e-18
3.2795e-19
3.28619e-18
7.07621e-19
3.04908e-18
1.04341e-18
2.76458e-18
1.33639e-18
2.43996e-18
1.58796e-18
2.08199e-18
1.7997e-18
1.69698e-18
1.97321e-18
1.29085e-18
2.10997e-18
8.69159e-19
2.21131e-18
4.37256e-19
2.27826e-18
2.31156e-18
2.84108e-11
2.06324e-09
-1.54812e-10
2.15902e-09
-5.43938e-10
2.02455e-09
-1.02006e-09
1.85846e-09
-1.46002e-09
1.86613e-09
-1.83317e-09
1.54183e-09
-2.00492e-09
1.29584e-09
-2.19611e-09
1.05381e-09
-2.2631e-09
7.26169e-10
-2.3051e-09
5.27639e-10
-2.41763e-09
3.2035e-10
-2.48616e-09
1.17764e-10
-2.44998e-09
-1.48178e-10
-2.57997e-09
-1.5653e-10
-2.60597e-09
-2.39198e-10
-2.62588e-09
-2.36339e-10
-2.68385e-09
-3.61535e-10
-2.68303e-09
-3.68012e-10
-2.65306e-09
-3.90781e-10
-2.40773e-09
-9.68788e-10
-2.19515e-09
-1.17958e-09
-1.91312e-09
-1.29113e-09
-1.52598e-09
-1.56013e-09
-1.16403e-09
-1.94679e-09
-8.76722e-10
-2.05366e-09
-5.80536e-10
-2.18765e-09
-3.82982e-10
-2.18656e-09
-1.90385e-10
-2.26574e-09
1.09338e-12
-2.28757e-09
3.31615e-10
-2.26925e-09
6.92588e-10
-2.25682e-09
1.17532e-09
-2.28414e-09
1.48971e-09
-2.1451e-09
1.72029e-09
-1.76803e-09
1.88276e-09
-1.46092e-09
1.87247e-09
-1.14988e-09
1.99383e-09
-7.92428e-10
1.85892e-09
-9.27117e-10
1.89742e-09
-7.85803e-10
1.92777e-09
-5.52763e-10
1.94895e-09
-3.78224e-10
1.9849e-09
-2.53676e-10
2.05474e-09
-2.8815e-10
2.0657e-09
-4.91398e-11
2.14481e-09
-4.75532e-10
2.27939e-09
-3.6274e-10
2.30626e-09
-4.89213e-10
2.36279e-09
-5.60862e-10
2.47764e-09
-5.74176e-10
2.53325e-09
-7.27172e-10
2.56884e-09
-6.94224e-10
2.65073e-09
-5.37384e-10
2.6914e-09
-3.46093e-10
2.70547e-09
-1.52804e-10
2.58211e-09
8.05888e-11
2.5375e-09
1.93878e-10
2.48046e-09
6.00387e-10
2.33329e-09
6.30467e-10
2.26569e-09
8.8175e-10
2.16466e-09
1.20747e-09
2.0242e-09
1.36779e-09
1.87734e-09
1.58042e-09
1.82625e-09
1.67714e-09
1.81114e-09
1.69769e-09
1.79344e-09
1.59419e-09
1.76936e-09
1.41257e-09
1.72475e-09
1.1769e-09
1.63211e-09
9.69701e-10
1.54637e-09
8.90382e-10
1.49033e-09
8.85904e-10
1.4437e-09
8.23307e-10
1.39944e-09
7.67669e-10
1.32588e-09
8.15718e-10
1.21122e-09
6.23142e-10
1.13693e-09
6.07488e-10
9.45944e-10
8.64032e-10
7.84417e-10
9.51995e-10
6.31683e-10
1.09393e-09
4.84461e-10
1.26183e-09
3.87974e-10
1.40355e-09
-5.34831e-17
4.95164e-10
-2.07415e-17
-4.29658e-19
-2.06314e-17
-1.13958e-18
-2.02465e-17
-2.29347e-18
-1.96023e-17
-3.49715e-18
-1.87266e-17
-4.69659e-18
-1.76456e-17
-5.83387e-18
-1.63851e-17
-6.86349e-18
-1.49739e-17
-7.75092e-18
-1.34438e-17
-8.4711e-18
-1.18302e-17
-9.00754e-18
-1.01699e-17
-9.35201e-18
-8.49977e-18
-9.50406e-18
-6.85511e-18
-9.47053e-18
-5.26799e-18
-9.26455e-18
-3.76614e-18
-8.90443e-18
-2.37218e-18
-8.41214e-18
-1.10338e-18
-7.81186e-18
2.83617e-20
-7.1285e-18
1.01621e-18
-6.38652e-18
1.85791e-18
-5.6089e-18
2.55513e-18
-4.81642e-18
3.11264e-18
-4.02714e-18
3.53759e-18
-3.25616e-18
3.83879e-18
-2.51558e-18
4.02619e-18
-1.81466e-18
4.11028e-18
-1.16007e-18
4.10171e-18
-5.56211e-19
4.0109e-18
-5.57618e-21
3.84785e-18
4.90921e-19
3.62198e-18
9.3357e-19
3.34206e-18
1.32354e-18
3.01615e-18
1.66258e-18
2.6517e-18
1.95278e-18
2.2555e-18
2.19635e-18
1.83375e-18
2.39545e-18
1.39218e-18
2.55208e-18
9.36114e-19
2.66796e-18
4.70555e-19
2.74443e-18
2.78243e-18
-2.88855e-10
2.3521e-09
-5.73874e-10
2.44404e-09
-9.42858e-10
2.39354e-09
-1.29505e-09
2.21066e-09
-1.48259e-09
2.05366e-09
-1.67517e-09
1.73442e-09
-2.02413e-09
1.6448e-09
-2.14474e-09
1.17442e-09
-2.28101e-09
8.62439e-10
-2.30244e-09
5.49072e-10
-2.38844e-09
4.06342e-10
-2.38472e-09
1.14044e-10
-2.50052e-09
-3.2374e-11
-2.60492e-09
-5.21273e-11
-2.58585e-09
-2.58265e-10
-2.63059e-09
-1.91597e-10
-2.69097e-09
-3.01154e-10
-2.64224e-09
-4.16743e-10
-2.51589e-09
-5.17128e-10
-2.2496e-09
-1.23508e-09
-2.01667e-09
-1.41251e-09
-1.64498e-09
-1.66282e-09
-1.19686e-09
-2.00825e-09
-9.27617e-10
-2.21603e-09
-6.68e-10
-2.31328e-09
-4.73744e-10
-2.3819e-09
-3.08062e-10
-2.35224e-09
-2.40681e-10
-2.33312e-09
-1.58153e-10
-2.37009e-09
-1.64675e-11
-2.41094e-09
1.84425e-10
-2.45771e-09
4.80369e-10
-2.58008e-09
9.2419e-10
-2.58892e-09
1.26697e-09
-2.11081e-09
1.4559e-09
-1.64984e-09
1.38421e-09
-1.0782e-09
1.49265e-09
-9.00864e-10
1.3962e-09
-8.30666e-10
1.43369e-09
-8.23297e-10
1.51985e-09
-6.38925e-10
1.53008e-09
-3.88449e-10
1.56794e-09
-2.91538e-10
1.58831e-09
-3.0852e-10
1.75318e-09
-2.14011e-10
1.67718e-09
-3.99535e-10
1.74421e-09
-4.29771e-10
1.82942e-09
-5.74421e-10
1.91367e-09
-6.45115e-10
1.98073e-09
-6.41232e-10
1.94804e-09
-6.94484e-10
1.91115e-09
-6.57334e-10
1.91609e-09
-5.42327e-10
1.88834e-09
-3.18336e-10
1.87182e-09
-1.36292e-10
1.74637e-09
2.06044e-10
1.55133e-09
3.88909e-10
1.64668e-09
5.0504e-10
1.54745e-09
7.297e-10
1.4123e-09
1.0169e-09
1.35147e-09
1.2683e-09
1.3407e-09
1.37856e-09
1.38649e-09
1.53462e-09
1.39803e-09
1.66561e-09
1.48155e-09
1.61417e-09
1.55939e-09
1.51634e-09
1.59676e-09
1.3752e-09
1.58984e-09
1.18382e-09
1.52853e-09
1.03101e-09
1.48848e-09
9.30437e-10
1.48484e-09
8.89537e-10
1.47199e-09
8.36165e-10
1.44705e-09
7.92601e-10
1.45409e-09
8.08677e-10
1.38129e-09
6.95942e-10
1.20437e-09
7.84416e-10
1.05699e-09
1.01141e-09
8.90606e-10
1.11838e-09
7.54184e-10
1.23036e-09
5.69071e-10
1.44695e-09
4.18452e-10
1.55417e-09
-9.27939e-17
9.13616e-10
-2.19406e-17
-1.21863e-18
-2.1785e-17
-1.29533e-18
-2.14499e-17
-2.62858e-18
-2.08015e-17
-4.14569e-18
-1.98639e-17
-5.63455e-18
-1.86752e-17
-7.02296e-18
-1.72726e-17
-8.26655e-18
-1.5694e-17
-9.32996e-18
-1.39803e-17
-1.01854e-17
-1.21747e-17
-1.08137e-17
-1.03219e-17
-1.12054e-17
-8.46624e-18
-1.13605e-17
-6.64914e-18
-1.12884e-17
-4.90787e-18
-1.10066e-17
-3.27385e-18
-1.05393e-17
-1.7719e-18
-9.91485e-18
-4.2002e-19
-9.1644e-18
7.70348e-19
-8.3195e-18
1.79383e-18
-7.41069e-18
2.65039e-18
-6.46624e-18
3.3444e-18
-5.51126e-18
3.88362e-18
-4.56718e-18
4.27817e-18
-3.65152e-18
4.53972e-18
-2.77792e-18
4.68078e-18
-1.95647e-18
4.71414e-18
-1.19408e-18
4.65234e-18
-4.94932e-19
4.5074e-18
1.39045e-19
4.2905e-18
7.07687e-19
4.01195e-18
1.21217e-18
3.6811e-18
1.65458e-18
3.30635e-18
2.03761e-18
2.89527e-18
2.36423e-18
2.4546e-18
2.63745e-18
1.99038e-18
2.86016e-18
1.50806e-18
3.03494e-18
1.01258e-18
3.164e-18
5.08556e-19
3.24906e-18
3.29129e-18
-4.77739e-10
2.82983e-09
-8.65517e-10
2.83182e-09
-1.0344e-09
2.56243e-09
-1.28403e-09
2.46029e-09
-1.78243e-09
2.55206e-09
-1.77049e-09
1.72248e-09
-1.95381e-09
1.82813e-09
-2.04067e-09
1.26128e-09
-2.24276e-09
1.06452e-09
-2.26545e-09
5.71763e-10
-2.33008e-09
4.70975e-10
-2.35477e-09
1.38733e-10
-2.44488e-09
5.77384e-11
-2.45708e-09
-3.99251e-11
-2.49979e-09
-2.15555e-10
-2.47685e-09
-2.14539e-10
-2.44573e-09
-3.32276e-10
-2.3874e-09
-4.75071e-10
-2.14128e-09
-7.63248e-10
-1.96843e-09
-1.40792e-09
-1.69491e-09
-1.68604e-09
-1.27534e-09
-2.08238e-09
-9.86022e-10
-2.29757e-09
-7.64726e-10
-2.43732e-09
-5.11555e-10
-2.56645e-09
-3.15352e-10
-2.57811e-09
-1.85332e-10
-2.48226e-09
-2.12827e-10
-2.30562e-09
-2.21987e-10
-2.36093e-09
-2.11417e-10
-2.42151e-09
-8.20191e-11
-2.58711e-09
2.20949e-10
-2.88305e-09
5.69906e-10
-2.93788e-09
8.45344e-10
-2.38624e-09
9.58255e-10
-1.76275e-09
1.02453e-09
-1.14447e-09
1.13915e-09
-1.01548e-09
1.14309e-09
-8.34607e-10
1.13121e-09
-8.11422e-10
1.14227e-09
-6.4998e-10
1.14847e-09
-3.94649e-10
1.17527e-09
-3.18341e-10
1.17088e-09
-3.04127e-10
1.27119e-09
-3.14323e-10
1.33971e-09
-4.68056e-10
1.43061e-09
-5.20665e-10
1.42861e-09
-5.7242e-10
1.39728e-09
-6.13794e-10
1.37976e-09
-6.23709e-10
1.34365e-09
-6.58369e-10
1.30641e-09
-6.20096e-10
1.27598e-09
-5.11901e-10
1.2804e-09
-3.22752e-10
1.29474e-09
-1.50631e-10
1.3316e-09
1.69178e-10
1.34814e-09
3.7237e-10
1.35697e-09
4.96206e-10
1.0921e-09
9.94573e-10
1.00654e-09
1.10246e-09
1.08328e-09
1.19156e-09
1.02868e-09
1.43316e-09
1.00286e-09
1.56044e-09
1.10236e-09
1.5661e-09
1.24823e-09
1.4683e-09
1.35635e-09
1.40822e-09
1.45577e-09
1.27579e-09
1.49423e-09
1.14535e-09
1.47659e-09
1.04865e-09
1.47099e-09
9.36038e-10
1.49207e-09
8.68462e-10
1.4917e-09
8.36528e-10
1.4761e-09
8.08207e-10
1.49753e-09
7.87245e-10
1.40558e-09
7.87887e-10
1.27245e-09
9.17551e-10
1.28849e-09
9.95365e-10
1.16733e-09
1.23954e-09
9.88533e-10
1.40915e-09
8.13609e-10
1.62187e-09
6.18225e-10
1.74955e-09
-1.17862e-16
1.53184e-09
-2.21264e-17
4.04403e-18
-2.31179e-17
-3.03916e-19
-2.29668e-17
-2.77962e-18
-2.22903e-17
-4.82228e-18
-2.12523e-17
-6.67272e-18
-1.99188e-17
-8.35678e-18
-1.8336e-17
-9.84972e-18
-1.65495e-17
-1.11169e-17
-1.46086e-17
-1.21268e-17
-1.25663e-17
-1.28566e-17
-1.0477e-17
-1.32953e-17
-8.39415e-18
-1.3444e-17
-6.36741e-18
-1.33158e-17
-4.44051e-18
-1.29344e-17
-2.64943e-18
-1.23312e-17
-1.02145e-18
-1.15436e-17
4.2488e-19
-1.06113e-17
1.67916e-18
-9.57423e-18
2.73828e-18
-8.47029e-18
3.60536e-18
-7.3339e-18
4.28848e-18
-6.19505e-18
4.79929e-18
-5.07871e-18
5.15177e-18
-4.00472e-18
5.36116e-18
-2.98804e-18
5.44317e-18
-2.0392e-18
5.41329e-18
-1.16487e-18
5.28632e-18
-3.68505e-19
5.07604e-18
3.48964e-19
4.79498e-18
9.88582e-19
4.45437e-18
1.5528e-18
4.06413e-18
2.04499e-18
3.63297e-18
2.46905e-18
3.16849e-18
2.82907e-18
2.6773e-18
3.12906e-18
2.16516e-18
3.37277e-18
1.63711e-18
3.5635e-18
1.09764e-18
3.70403e-18
5.50784e-19
3.79649e-18
3.84235e-18
-1.59016e-10
2.98885e-09
-3.25756e-10
2.99856e-09
-7.75673e-10
3.01234e-09
-1.12889e-09
2.8135e-09
-1.18533e-09
2.60851e-09
-1.65779e-09
2.19494e-09
-1.77262e-09
1.94296e-09
-1.93229e-09
1.42095e-09
-2.07482e-09
1.20706e-09
-2.20474e-09
7.01684e-10
-2.202e-09
4.68229e-10
-2.30833e-09
2.45061e-10
-2.25577e-09
5.18073e-12
-2.27346e-09
-2.22294e-11
-2.2298e-09
-2.59218e-10
-2.12442e-09
-3.1992e-10
-2.07477e-09
-3.81919e-10
-2.04961e-09
-5.00233e-10
-1.89621e-09
-9.1665e-10
-1.72173e-09
-1.5824e-09
-1.43276e-09
-1.975e-09
-1.16562e-09
-2.34952e-09
-9.93381e-10
-2.46981e-09
-7.52655e-10
-2.67805e-09
-5.03525e-10
-2.81558e-09
-2.01044e-10
-2.88059e-09
2.74377e-11
-2.71074e-09
-1.05725e-11
-2.26761e-09
-1.25912e-10
-2.24559e-09
-1.63084e-10
-2.38433e-09
-1.48939e-11
-2.7353e-09
3.78693e-10
-3.27664e-09
6.04927e-10
-3.16411e-09
5.94412e-10
-2.37573e-09
6.0568e-10
-1.77402e-09
7.52825e-10
-1.29162e-09
8.31709e-10
-1.09436e-09
8.94489e-10
-8.97386e-10
9.06947e-10
-8.23879e-10
8.71547e-10
-6.1458e-10
8.85309e-10
-4.08411e-10
8.9945e-10
-3.32483e-10
9.07123e-10
-3.118e-10
9.45904e-10
-3.53104e-10
9.31269e-10
-4.53421e-10
9.39516e-10
-5.28912e-10
9.45867e-10
-5.78771e-10
9.21664e-10
-5.89591e-10
9.09133e-10
-6.11179e-10
8.39034e-10
-5.8827e-10
7.27586e-10
-5.08648e-10
6.41071e-10
-4.25387e-10
5.71519e-10
-2.53199e-10
5.05449e-10
-8.45624e-11
5.75132e-10
9.94941e-11
5.64228e-10
3.83273e-10
3.79417e-10
6.81017e-10
4.67218e-10
9.06772e-10
5.75396e-10
9.94279e-10
5.04256e-10
1.2627e-09
6.11671e-10
1.32575e-09
7.60681e-10
1.41143e-09
9.72012e-10
1.35477e-09
1.09411e-09
1.3462e-09
1.23135e-09
1.27097e-09
1.33068e-09
1.17646e-09
1.38352e-09
1.09251e-09
1.42648e-09
1.00569e-09
1.47711e-09
8.85403e-10
1.52672e-09
8.18858e-10
1.55473e-09
8.08519e-10
1.55427e-09
8.0866e-10
1.52354e-09
8.17978e-10
1.404e-09
9.07426e-10
1.26347e-09
1.05809e-09
1.0608e-09
1.19803e-09
8.43599e-10
1.45675e-09
6.04017e-10
1.64873e-09
4.29915e-10
1.79597e-09
2.77031e-10
1.90244e-09
-1.35726e-16
1.80887e-09
-2.62522e-17
1.69672e-18
-2.55932e-17
-9.62949e-19
-2.50092e-17
-3.36343e-18
-2.41406e-17
-5.6908e-18
-2.29363e-17
-7.87704e-18
-2.14117e-17
-9.88156e-18
-1.96032e-17
-1.16586e-17
-1.75594e-17
-1.3161e-17
-1.53385e-17
-1.4348e-17
-1.3005e-17
-1.51906e-17
-1.06257e-17
-1.5675e-17
-8.26601e-18
-1.58042e-17
-5.98595e-18
-1.55965e-17
-3.8374e-18
-1.50837e-17
-1.86181e-18
-1.43078e-17
-8.91412e-20
-1.33173e-17
1.46197e-18
-1.21632e-17
2.7831e-18
-1.08958e-17
3.87466e-18
-9.56218e-18
4.74421e-18
-8.20385e-18
5.40483e-18
-6.85618e-18
5.87327e-18
-5.54774e-18
6.16844e-18
-4.3005e-18
6.31001e-18
-3.13026e-18
6.31751e-18
-2.04737e-18
6.20965e-18
-1.05764e-18
6.00379e-18
-1.63182e-19
5.71566e-18