/*--------------------------------*- C++ -*----------------------------------*\
  =========                 |
  \\      /  F ield         | OpenFOAM: The Open Source CFD Toolbox
   \\    /   O peration     | Website:  https://openfoam.org
    \\  /    A nd           | Version:  6
     \\/     M anipulation  |
\*---------------------------------------------------------------------------*/
FoamFile
{
    version     2.0;
    format      ascii;
    class       volScalarField;
    location    "2850";
    object      Su;
}
// * * * * * * * * * * * * * * * * * * * * * * * * * * * * * * * * * * * * * //

dimensions      [0 0 -1 0 0 0 0];

internalField   nonuniform List<scalar> 
4800
(
0.217364
0.210939
0.204644
0.198591
0.192844
0.18747
0.182522
0.178017
0.173953
0.1703
0.167017
0.164058
0.161376
0.158923
0.156659
0.154559
0.152592
0.150745
0.148996
0.14732
0.145703
0.144137
0.142617
0.141133
0.139684
0.138265
0.136867
0.135488
0.134124
0.132773
0.13143
0.1301
0.128789
0.127484
0.126187
0.124897
0.123604
0.122311
0.12102
0.11973
0.11844
0.117151
0.115862
0.114574
0.113288
0.112007
0.110734
0.109469
0.108217
0.106977
0.105743
0.104508
0.103264
0.101997
0.10069
0.0993265
0.0978869
0.0963474
0.0946828
0.0928687
0.0908804
0.0886916
0.086293
0.0837014
0.0809397
0.0780304
0.0749816
0.0717853
0.0684334
0.064914
0.0612189
0.0573502
0.0533134
0.0491012
0.0446917
0.0400574
0.0351697
0.0299777
0.0243551
0.0180038
0.00538599
0.00965044
0.00765652
0.00504587
0.00213962
-0.000921123
-0.0040667
-0.0072596
-0.0104783
-0.0137099
-0.0169465
-0.020183
-0.0234164
-0.0266447
-0.0298668
-0.033082
-0.0362902
-0.0394912
-0.0426853
-0.0458726
-0.0490535
-0.0522284
-0.0553975
-0.0585613
-0.0617202
-0.0648744
-0.0680245
-0.0711706
-0.0743132
-0.0774526
-0.0805891
-0.0837229
-0.0868545
-0.089984
-0.0931118
-0.0962381
-0.0993632
-0.102487
-0.105611
-0.108734
0.217313
0.210832
0.204523
0.198476
0.192768
0.187436
0.182525
0.178051
0.174005
0.170362
0.167082
0.16412
0.161432
0.158976
0.156715
0.154614
0.152648
0.150795
0.149029
0.147334
0.145706
0.144133
0.142602
0.14111
0.139655
0.138227
0.136817
0.135423
0.134044
0.132676
0.131317
0.129968
0.128636
0.127315
0.126001
0.124696
0.123391
0.122086
0.120786
0.119486
0.118186
0.116885
0.115585
0.114285
0.11299
0.111701
0.110423
0.109156
0.107899
0.106655
0.10542
0.104185
0.102941
0.101679
0.100377
0.0990178
0.0975834
0.0960524
0.0943986
0.0925966
0.0906283
0.0884765
0.0861236
0.0835642
0.0808122
0.0778998
0.0748507
0.0716608
0.0683212
0.0648222
0.0611549
0.0573129
0.0532961
0.0491013
0.0447162
0.0401199
0.0352904
0.0302112
0.024879
0.019379
0.014212
0.011149
0.00831015
0.00537209
0.00231932
-0.00081582
-0.00400317
-0.00722136
-0.0104562
-0.0136986
-0.0169425
-0.020184
-0.0234209
-0.0266515
-0.0298752
-0.0330914
-0.0363002
-0.0395015
-0.0426956
-0.0458828
-0.0490635
-0.0522379
-0.0554066
-0.05857
-0.0617283
-0.064882
-0.0680315
-0.0711771
-0.0743192
-0.077458
-0.0805939
-0.0837272
-0.0868583
-0.0899873
-0.0931145
-0.0962403
-0.0993649
-0.102489
-0.105612
-0.108734
0.217301
0.2108
0.204495
0.198457
0.192762
0.187467
0.182596
0.178157
0.174141
0.170516
0.167245
0.16429
0.161604
0.159147
0.156885
0.154777
0.152798
0.150923
0.149132
0.147418
0.145774
0.144182
0.142633
0.141123
0.139645
0.138189
0.13675
0.135326
0.133914
0.132511
0.13112
0.129731
0.12836
0.127002
0.125656
0.12432
0.122988
0.121657
0.120335
0.119015
0.117694
0.116372
0.115051
0.113733
0.112421
0.111117
0.109827
0.10855
0.107284
0.106032
0.104793
0.103558
0.102314
0.101056
0.099762
0.0984123
0.0969874
0.0954692
0.093836
0.0920605
0.0901223
0.0880077
0.085701
0.0831947
0.0804939
0.0776136
0.07458
0.0714079
0.0680935
0.0646269
0.0609985
0.0572011
0.0532306
0.0490844
0.0447552
0.0402337
0.035517
0.0306242
0.025627
0.0206947
0.0161926
0.0124632
0.00909667
0.00584174
0.00260538
-0.000638654
-0.00389317
-0.00715443
-0.0104178
-0.0136796
-0.0169368
-0.0201877
-0.023431
-0.0266661
-0.0298927
-0.0331108
-0.0363206
-0.0395224
-0.0427165
-0.0459034
-0.0490834
-0.0522571
-0.055425
-0.0585873
-0.0617446
-0.0648972
-0.0680456
-0.0711901
-0.074331
-0.0774688
-0.0806036
-0.0837358
-0.0868658
-0.0899937
-0.09312
-0.0962448
-0.0993684
-0.102491
-0.105613
-0.108735
0.217307
0.21081
0.204517
0.19851
0.192847
0.187588
0.182761
0.178363
0.174382
0.170783
0.167532
0.164589
0.161907
0.159449
0.157176
0.155054
0.153058
0.151164
0.149353
0.14762
0.145958
0.144343
0.142769
0.141227
0.139707
0.138199
0.136706
0.135225
0.133754
0.132292
0.130846
0.129402
0.127972
0.126557
0.125159
0.123776
0.122403
0.121033
0.119675
0.118321
0.11697
0.11562
0.114272
0.112929
0.111593
0.110267
0.108957
0.107663
0.106383
0.105118
0.103874
0.102639
0.101398
0.100145
0.0988597
0.0975241
0.0961158
0.0946151
0.0930034
0.0912575
0.0893576
0.0872897
0.0850389
0.0825938
0.0799534
0.0771271
0.0741392
0.0710096
0.0677408
0.064325
0.060755
0.0570222
0.0531163
0.0490374
0.0447873
0.040364
0.0357812
0.0310764
0.0263359
0.0217089
0.0173945
0.013448
0.00980053
0.00631835
0.00292086
-0.000432971
-0.00376197
-0.00707421
-0.0103729
-0.0136594
-0.016934
-0.0201971
-0.023449
-0.0266899
-0.0299204
-0.033141
-0.0363521
-0.0395543
-0.0427483
-0.0459345
-0.0491136
-0.0522862
-0.0554526
-0.0586134
-0.0617691
-0.0649201
-0.0680668
-0.0712096
-0.0743488
-0.0774849
-0.0806181
-0.0837487
-0.0868771
-0.0900034
-0.0931281
-0.0962514
-0.0993735
-0.102495
-0.105615
-0.108735
0.217335
0.210883
0.204616
0.19864
0.193023
0.187813
0.183032
0.178682
0.174741
0.171176
0.167954
0.16503
0.162358
0.1599
0.157616
0.155477
0.153464
0.151551
0.149725
0.147979
0.146297
0.144652
0.143044
0.141456
0.139878
0.138301
0.136729
0.135159
0.133595
0.132041
0.130504
0.128981
0.127477
0.125987
0.124519
0.12307
0.121636
0.120207
0.118803
0.117407
0.11602
0.114636
0.113256
0.111881
0.110512
0.109159
0.107822
0.106507
0.10521
0.103931
0.102678
0.101442
0.100206
0.0989598
0.0976854
0.0963672
0.0949801
0.0935027
0.0919199
0.0902087
0.0883502
0.0863297
0.0841342
0.0817527
0.0791835
0.0764328
0.0735164
0.0704524
0.0672497
0.0639042
0.0604094
0.0567569
0.0529351
0.0489421
0.044783
0.0404658
0.0360148
0.0314765
0.0269259
0.0224621
0.0181988
0.0141617
0.0103634
0.00673229
0.00321178
-0.000236109
-0.00363462
-0.00699751
-0.0103329
-0.0136459
-0.0169396
-0.0202164
-0.0234778
-0.0267253
-0.0299601
-0.0331832
-0.0363955
-0.039598
-0.0427915
-0.0459767
-0.0491544
-0.0523251
-0.0554896
-0.0586483
-0.0618018
-0.0649505
-0.068095
-0.0712355
-0.0743725
-0.0775063
-0.0806373
-0.0837658
-0.086892
-0.0900163
-0.093139
-0.0962602
-0.0993803
-0.1025
-0.105618
-0.108736
0.21737
0.210984
0.204772
0.198845
0.193286
0.188139
0.183417
0.179121
0.175231
0.171713
0.168529
0.165629
0.162972
0.160518
0.158229
0.15608
0.154053
0.152124
0.150284
0.148525
0.146818
0.145139
0.143485
0.141838
0.140181
0.13851
0.136827
0.135134
0.133442
0.131764
0.130106
0.128474
0.126871
0.125292
0.123739
0.122207
0.120698
0.119196
0.117729
0.116284
0.114853
0.113431
0.112015
0.110606
0.1092
0.107816
0.106448
0.105108
0.103793
0.102497
0.101234
0.0999972
0.098767
0.0975294
0.0962659
0.0949635
0.0935995
0.0921456
0.0905946
0.0889197
0.0871017
0.0851309
0.0829969
0.080688
0.0781991
0.0755337
0.0727032
0.069723
0.0666051
0.0633477
0.0599428
0.0563829
0.0526592
0.0487663
0.044713
0.0405109
0.0361851
0.0317796
0.0273538
0.022983
0.0187397
0.0146602
0.0107793
0.00705426
0.00344647
-7.4748e-05
-0.00353162
-0.00693953
-0.010309
-0.0136474
-0.0169598
-0.02025
-0.0235209
-0.0267748
-0.0300136
-0.0332389
-0.0364521
-0.0396544
-0.0428468
-0.0460304
-0.049206
-0.0523743
-0.0555362
-0.0586921
-0.0618428
-0.0649886
-0.0681302
-0.0712678
-0.074402
-0.077533
-0.0806612
-0.083787
-0.0869106
-0.0900323
-0.0931524
-0.0962711
-0.0993888
-0.102506
-0.105622
-0.108738
0.217443
0.21119
0.205076
0.199212
0.193695
0.188593
0.183927
0.179694
0.175867
0.172408
0.169268
0.1664
0.163766
0.16132
0.159031
0.156878
0.154842
0.152901
0.151048
0.149271
0.147534
0.145815
0.144102
0.142376
0.14062
0.138829
0.137006
0.13516
0.133308
0.131468
0.129657
0.127885
0.126157
0.124472
0.122822
0.121202
0.119609
0.118029
0.116488
0.114983
0.1135
0.112033
0.110574
0.10913
0.107684
0.106269
0.10487
0.103501
0.102164
0.100851
0.0995765
0.0983361
0.0971114
0.0958844
0.0946357
0.0933483
0.0920076
0.0905786
0.0890588
0.0874244
0.0856526
0.0837357
0.0816629
0.0794255
0.0770185
0.0744443
0.0717103
0.0688273
0.0658052
0.0626452
0.05934
0.0558823
0.0522642
0.0484786
0.0445338
0.0404409
0.0362238
0.0319255
0.0275956
0.0232934
0.0190719
0.01498
0.0110563
0.00727462
0.00360852
3.4135e-05
-0.0034679
-0.00691248
-0.0103108
-0.0136713
-0.0170002
-0.0203023
-0.0235816
-0.0268409
-0.0300829
-0.0333097
-0.0365229
-0.0397241
-0.0429148
-0.0460959
-0.0492687
-0.0524339
-0.0555924
-0.0587449
-0.061892
-0.0650343
-0.0681723
-0.0713065
-0.0744372
-0.0775648
-0.0806897
-0.0838122
-0.0869327
-0.0900513
-0.0931683
-0.0962841
-0.0993988
-0.102513
-0.105626
-0.108739
0.217482
0.211316
0.205306
0.199552
0.194147
0.189152
0.184576
0.180424
0.17667
0.173272
0.170182
0.167355
0.164745
0.16231
0.160031
0.157878
0.155835
0.153886
0.152021
0.150224
0.148449
0.146675
0.144887
0.143061
0.141183
0.139252
0.137271
0.135253
0.133217
0.131189
0.129194
0.12725
0.125372
0.12356
0.1218
0.12008
0.118393
0.116734
0.115116
0.113544
0.112005
0.110485
0.108979
0.107492
0.106009
0.104555
0.103126
0.10173
0.10037
0.0990414
0.097754
0.0965051
0.0952806
0.0940605
0.0928268
0.0915539
0.0902304
0.0888301
0.0873395
0.0857408
0.0840153
0.0821548
0.0801467
0.0779828
0.0756609
0.0731805
0.0705458
0.0677645
0.0648446
0.0617884
0.0585893
0.0552395
0.0517329
0.0480608
0.044226
0.0402435
0.0361358
0.0319365
0.0276903
0.0234441
0.0192432
0.015149
0.0112056
0.00739273
0.00369073
8.08157e-05
-0.00345335
-0.00692529
-0.0103459
-0.0137238
-0.0170658
-0.0203774
-0.023663
-0.0269262
-0.03017
-0.0333969
-0.0366091
-0.0398083
-0.0429961
-0.0461739
-0.0493429
-0.0525041
-0.0556585
-0.0588067
-0.0619495
-0.0650876
-0.0682213
-0.0713513
-0.074478
-0.0776016
-0.0807227
-0.0838414
-0.0869582
-0.0900732
-0.0931868
-0.0962991
-0.0994104
-0.102521
-0.105631
-0.108741
0.217531
0.211473
0.205593
0.199978
0.194697
0.189822
0.185362
0.181314
0.177642
0.174313
0.171277
0.168492
0.16591
0.163497
0.161231
0.159081
0.157035
0.155078
0.153197
0.151369
0.149542
0.147698
0.145812
0.143865
0.141851
0.139768
0.13762
0.135418
0.133187
0.130957
0.128762
0.126628
0.124575
0.122608
0.120712
0.118878
0.117088
0.115344
0.113646
0.112
0.110398
0.10882
0.107263
0.105727
0.104208
0.102718
0.10126
0.0998372
0.098455
0.0971122
0.0958134
0.0945554
0.0933273
0.0921101
0.0908886
0.0896335
0.088326
0.0869524
0.0854874
0.0839216
0.0822398
0.0804291
0.078481
0.0763884
0.0741489
0.0717604
0.0692251
0.0665471
0.0637313
0.0607802
0.0576877
0.0544455
0.0510479
0.0474868
0.0437646
0.0398973
0.0359017
0.0318003
0.0276328
0.0234429
0.0192698
0.0151829
0.0112368
0.00741153
0.00369113
6.0553e-05
-0.00349385
-0.00698395
-0.0104198
-0.0138098
-0.0171609
-0.0204787
-0.0237681
-0.0270329
-0.0302767
-0.0335021
-0.0367117
-0.0399075
-0.0430913
-0.0462647
-0.0494289
-0.0525851
-0.0557344
-0.0588775
-0.0620153
-0.0651483
-0.0682771
-0.0714023
-0.0745242
-0.0776434
-0.08076
-0.0838744
-0.086987
-0.0900979
-0.0932075
-0.0963159
-0.0994234
-0.10253
-0.105637
-0.108743
0.217617
0.211727
0.205998
0.200524
0.195396
0.190655
0.186308
0.182367
0.178783
0.175527
0.172549
0.169809
0.167261
0.164872
0.16262
0.160476
0.158425
0.156452
0.154545
0.152673
0.150781
0.148846
0.146843
0.144764
0.142605
0.140364
0.138045
0.135658
0.133227
0.130789
0.128385
0.126049
0.123803
0.121656
0.119598
0.117625
0.11572
0.11388
0.112098
0.110378
0.108708
0.107071
0.105461
0.103876
0.102317
0.100793
0.0993066
0.0978624
0.0964623
0.0951072
0.0937976
0.0925285
0.0912908
0.0900676
0.0888461
0.0876004
0.0863061
0.0849531
0.083515
0.081981
0.0803375
0.0785772
0.0766881
0.0746645
0.0725019
0.0701997
0.0677588
0.0651814
0.0624687
0.0596212
0.0566334
0.0534969
0.0502045
0.0467507
0.0431368
0.0393717
0.035473
0.0314647
0.0273815
0.0232628
0.0191457
0.0150912
0.0111587
0.00733585
0.00361092
-2.80464e-05
-0.00359228
-0.00709199
-0.0105362
-0.0139328
-0.0172884
-0.0206088
-0.0238989
-0.0271629
-0.0304044
-0.0336264
-0.0368318
-0.0400226
-0.043201
-0.0463686
-0.0495268
-0.052677
-0.0558202
-0.0589573
-0.0620891
-0.0652163
-0.0683395
-0.0714591
-0.0745758
-0.0776898
-0.0808014
-0.083911
-0.0870189
-0.0901253
-0.0932305
-0.0963346
-0.0994379
-0.10254
-0.105643
-0.108745
0.217691
0.211958
0.206411
0.201127
0.196172
0.191588
0.187388
0.183567
0.180084
0.176906
0.17399
0.171297
0.168783
0.166415
0.164174
0.162029
0.159965
0.157973
0.156034
0.154109
0.152136
0.150095
0.147966
0.14575
0.143437
0.141029
0.13853
0.135954
0.133327
0.130681
0.128059
0.125503
0.123048
0.120708
0.118474
0.116343
0.114307
0.11236
0.110491
0.108695
0.106956
0.105257
0.103595
0.101965
0.100371
0.0988165
0.0973058
0.0958415
0.0944252
0.0930598
0.0917418
0.090463
0.0892137
0.0879788
0.086751
0.0855067
0.0842179
0.0828744
0.0814578
0.0799509
0.0783388
0.0766218
0.0747853
0.0728251
0.0707322
0.0685099
0.0661579
0.0636755
0.0610602
0.0583098
0.0554199
0.0523836
0.0491942
0.0458491
0.0423481
0.038696
0.0349086
0.0310093
0.027021
0.0229794
0.0189165
0.0148919
0.0109816
0.00717194
0.00345322
-0.000184144
-0.00374936
-0.00725108
-0.0106972
-0.014095
-0.0174506
-0.0207697
-0.0240573
-0.0273175
-0.0305543
-0.0337707
-0.0369698
-0.040154
-0.0433254
-0.0464857
-0.0496367
-0.0527797
-0.0559157
-0.0590458
-0.0621708
-0.0652913
-0.0684081
-0.0715217
-0.0746323
-0.0777406
-0.0808467
-0.083951
-0.0870538
-0.0901552
-0.0932555
-0.0963549
-0.0994536
-0.102552
-0.105649
-0.108747
0.217796
0.212269
0.206918
0.201826
0.197055
0.192639
0.18859
0.184896
0.181519
0.178425
0.175572
0.172922
0.170436
0.168086
0.165849
0.163696
0.161616
0.159601
0.157619
0.155627
0.153566
0.151418
0.14917
0.146815
0.144344
0.141758
0.139068
0.136299
0.133473
0.130616
0.127768
0.124981
0.122307
0.119766
0.11735
0.115052
0.112873
0.110806
0.108841
0.106967
0.105161
0.103403
0.10169
0.100018
0.0983913
0.0968112
0.0952794
0.093798
0.0923689
0.090995
0.0896689
0.0883823
0.0871223
0.0858758
0.0846393
0.0833889
0.0820928
0.0807467
0.0793412
0.0778497
0.0762614
0.0745776
0.0727871
0.0708845
0.0688565
0.0667065
0.0644327
0.062034
0.0595066
0.0568469
0.0540507
0.0511119
0.0480236
0.0447853
0.0413981
0.0378724
0.0342117
0.0304263
0.0265281
0.022559
0.0185664
0.0145922
0.0107141
0.00692627
0.00322223
-0.000405506
-0.00396434
-0.00746146
-0.0109037
-0.0142975
-0.0176488
-0.0209627
-0.0242443
-0.0274978
-0.0307272
-0.0339357
-0.0371264
-0.040302
-0.0434646
-0.0466163
-0.0497586
-0.052893
-0.0560208
-0.0591428
-0.0622601
-0.0653732
-0.0684828
-0.0715895
-0.0746936
-0.0777956
-0.0808957
-0.0839942
-0.0870914
-0.0901874
-0.0932825
-0.0963768
-0.0994704
-0.102564
-0.105657
-0.108749
0.217924
0.212642
0.207507
0.202608
0.198017
0.19377
0.189871
0.186304
0.183036
0.180028
0.177242
0.174636
0.172178
0.169843
0.167602
0.165439
0.163342
0.161295
0.159261
0.157199
0.155054
0.152803
0.150434
0.147941
0.14531
0.142543
0.139655
0.136681
0.133644
0.130566
0.127485
0.12446
0.121559
0.118814
0.116214
0.11375
0.111424
0.109231
0.107162
0.105206
0.103335
0.101524
0.0997648
0.0980555
0.0964003
0.0947983
0.0932483
0.0917504
0.0903095
0.0889263
0.0875898
0.0862917
0.0850164
0.0837578
0.0825085
0.0812444
0.079936
0.0785814
0.0771754
0.0756895
0.0741175
0.0724581
0.0707045
0.068849
0.066877
0.0647884
0.0625806
0.0602536
0.0578043
0.055229
0.0525242
0.0496844
0.0467036
0.0435799
0.0403107
0.0369045
0.0333643
0.029708
0.0259435
0.0220808
0.018149
0.0142097
0.0103658
0.0066056
0.00292267
-0.000689094
-0.00423552
-0.00772247
-0.0111557
-0.014541
-0.0178835
-0.0211886
-0.0244607
-0.0277044
-0.0309235
-0.0341216
-0.0373017
-0.0404666
-0.0436187
-0.0467599
-0.0498921
-0.0530168
-0.056135
-0.059248
-0.0623566
-0.0654614
-0.0685632
-0.0716623
-0.0747593
-0.0778544
-0.080948
-0.0840402
-0.0871314
-0.0902216
-0.0933111
-0.0964
-0.0994883
-0.102576
-0.105664
-0.108752
0.218034
0.212979
0.208077
0.203398
0.199009
0.194946
0.191205
0.187773
0.184611
0.181685
0.178959
0.176394
0.173961
0.171635
0.16939
0.167218
0.165102
0.163021
0.160936
0.158804
0.156572
0.154219
0.151738
0.14911
0.146316
0.143362
0.140269
0.137071
0.133803
0.130496
0.127182
0.123919
0.12079
0.117841
0.115063
0.112439
0.10997
0.107651
0.105471
0.103422
0.101482
0.0996245
0.097827
0.0960865
0.094406
0.0927843
0.0912185
0.0897067
0.0882553
0.0868609
0.085512
0.0841991
0.0829061
0.0816313
0.0803631
0.0790797
0.0777547
0.0763854
0.074967
0.0734772
0.0719112
0.0702651
0.0685346
0.0667126
0.0647867
0.062751
0.0606015
0.0583403
0.0559635
0.0534684
0.0508521
0.0481114
0.0452405
0.0422357
0.0390922
0.0358165
0.0324089
0.0288768
0.0252227
0.0214669
0.0176272
0.0137437
0.00994245
0.00621583
0.00255925
-0.00103156
-0.00456078
-0.00803291
-0.0114527
-0.0148251
-0.0181551
-0.0214475
-0.0247068
-0.0279375
-0.0311435
-0.0343285
-0.0374956
-0.0406477
-0.0437873
-0.0469164
-0.050037
-0.0531505
-0.0562581
-0.0593609
-0.0624599
-0.0655556
-0.0686487
-0.0717397
-0.0748289
-0.0779166
-0.0810032
-0.0840888
-0.0871735
-0.0902576
-0.0933412
-0.0964244
-0.0995072
-0.10259
-0.105672
-0.108754
0.218163
0.213355
0.208682
0.204225
0.200043
0.196159
0.192569
0.189265
0.18621
0.183367
0.180697
0.178167
0.175755
0.173436
0.171189
0.169006
0.166869
0.164752
0.162612
0.160404
0.158089
0.155642
0.153053
0.150296
0.147349
0.144206
0.140892
0.137449
0.133927
0.130371
0.12682
0.123331
0.119991
0.116853
0.113908
0.111135
0.108529
0.106089
0.1038
0.101653
0.0996319
0.0977177
0.0958813
0.0941133
0.092411
0.0907713
0.0891905
0.0876663
0.0862042
0.0847971
0.0834335
0.0821033
0.0807911
0.0794949
0.0782012
0.0768917
0.0755439
0.0741523
0.0727115
0.0712071
0.0696353
0.0679923
0.0662743
0.0644747
0.0625822
0.0605937
0.0584984
0.0562999
0.0539938
0.0515794
0.0490539
0.0464146
0.0436567
0.0407774
0.0377692
0.0346297
0.0313562
0.0279541
0.0244239
0.020781
0.0170321
0.0132058
0.00945175
0.00576293
0.00213654
-0.00142962
-0.00493791
-0.00839143
-0.0117939
-0.0151497
-0.0184633
-0.0217394
-0.0249824
-0.0281969
-0.0313869
-0.034556
-0.0377077
-0.0408448
-0.0439699
-0.0470852
-0.0501926
-0.0532935
-0.0563892
-0.0594809
-0.0625693
-0.0656551
-0.0687388
-0.071821
-0.0749019
-0.0779818
-0.081061
-0.0841395
-0.0872175
-0.0902952
-0.0933726
-0.0964498
-0.0995267
-0.102604
-0.10568
-0.108757
0.218289
0.213732
0.209306
0.205083
0.201107
0.197398
0.19396
0.19078
0.187823
0.185054
0.182431
0.17993
0.177534
0.175222
0.172973
0.170779
0.168621
0.166465
0.164259
0.161971
0.159576
0.157041
0.154349
0.151466
0.14837
0.145046
0.141511
0.137813
0.13402
0.130203
0.126413
0.122711
0.119178
0.115864
0.112762
0.10985
0.107115
0.104557
0.102161
0.0999177
0.0978084
0.0958284
0.0939449
0.0921438
0.090416
0.0887565
0.0871599
0.0856224
0.0841455
0.0827224
0.0813409
0.0799896
0.0786556
0.0773328
0.0760078
0.0746653
0.0732891
0.0718706
0.0704027
0.0688759
0.0672884
0.0656391
0.063926
0.0621444
0.0602785
0.0583299
0.0562825
0.0541439
0.0519106
0.0495797
0.047147
0.0446115
0.0419706
0.0392164
0.0363393
0.0333359
0.0302014
0.0269376
0.0235389
0.0200137
0.0163627
0.0126022
0.0089003
0.00525234
0.00165857
-0.0018805
-0.00536513
-0.00879694
-0.0121788
-0.0155143
-0.0188079
-0.022064
-0.0252874
-0.0284824
-0.0316532
-0.0348037
-0.0379374
-0.0410572
-0.0441659
-0.0472655
-0.0503581
-0.053445
-0.0565277
-0.0596072
-0.0626841
-0.0657592
-0.0688329
-0.0719057
-0.0749778
-0.0780495
-0.0811208
-0.084192
-0.087263
-0.090334
-0.093405
-0.0964759
-0.0995469
-0.102618
-0.105689
-0.10876
0.218424
0.214136
0.209965
0.205972
0.202198
0.198664
0.195371
0.192306
0.189436
0.186724
0.184137
0.18166
0.17928
0.176976
0.174726
0.172522
0.170339
0.168135
0.165871
0.163521
0.161053
0.158431
0.155645
0.152646
0.149391
0.145866
0.142104
0.13815
0.134084
0.130007
0.125988
0.12209
0.118383
0.114905
0.111653
0.108607
0.105752
0.103081
0.10058
0.0982402
0.0960414
0.0939885
0.0920479
0.0902056
0.0884449
0.0867569
0.0851354
0.0835768
0.0820777
0.080632
0.0792272
0.07785
0.0764886
0.0751338
0.0737729
0.0723917
0.0709786
0.0695261
0.0680269
0.0664738
0.0648662
0.0632046
0.0614897
0.0597196
0.0578813
0.0559724
0.0539722
0.051889
0.0497244
0.0474759
0.045139
0.0427097
0.0401838
0.0375545
0.034813
0.0319524
0.0289624
0.0258403
0.0225739
0.0191705
0.0156273
0.0119415
0.00829483
0.00468866
0.00112821
-0.00238253
-0.00584151
-0.00924896
-0.0126069
-0.0159187
-0.0191885
-0.0224211
-0.0256211
-0.0287932
-0.0319418
-0.0350708
-0.0381838
-0.041284
-0.0443741
-0.0474563
-0.0505324
-0.0536042
-0.0566726
-0.0597388
-0.0628035
-0.0658671
-0.0689302
-0.0719931
-0.075056
-0.078119
-0.0811822
-0.0842457
-0.0873095
-0.0903736
-0.093438
-0.0965026
-0.0995675
-0.102632
-0.105698
-0.108763
0.218564
0.214546
0.21063
0.206867
0.203293
0.19993
0.196779
0.193821
0.191025
0.18836
0.185806
0.183355
0.180992
0.178696
0.176444
0.174223
0.172001
0.169742
0.167416
0.164998
0.162457
0.15976
0.156891
0.153781
0.150377
0.146658
0.142657
0.138446
0.134123
0.129797
0.125561
0.121489
0.117635
0.11402
0.110635
0.107462
0.104485
0.101698
0.09909
0.0966538
0.094367
0.092232
0.0902236
0.0883257
0.0865196
0.0847943
0.0831388
0.081549
0.0800177
0.0785386
0.0771001
0.0756885
0.0742917
0.0728982
0.0714968
0.0700745
0.0686216
0.0671322
0.0655999
0.0640187
0.0623891
0.0607123
0.0589895
0.0572192
0.0553968
0.0535178
0.0515615
0.049532
0.047434
0.045268
0.0430279
0.0407075
0.0383016
0.0358036
0.0332022
0.0304866
0.0276446
0.0246695
0.0215451
0.0182739
0.0148441
0.0112359
0.00764256
0.00407523
0.000546533
-0.0029357
-0.00636748
-0.00974795
-0.0130787
-0.016363
-0.0196052
-0.0228103
-0.0259831
-0.0291287
-0.0322516
-0.035356
-0.0384457
-0.0415239
-0.0445933
-0.0476562
-0.0507145
-0.0537696
-0.0568228
-0.0598748
-0.0629264
-0.0659779
-0.0690299
-0.0720825
-0.0751357
-0.0781898
-0.0812446
-0.0843003
-0.0873567
-0.0904138
-0.0934714
-0.0965296
-0.0995883
-0.102647
-0.105706
-0.108766
0.218709
0.214972
0.211312
0.207777
0.204399
0.201198
0.198171
0.195302
0.192566
0.189947
0.187437
0.185018
0.182673
0.180382
0.178123
0.175877
0.173611
0.171297
0.168908
0.166418
0.163796
0.161011
0.158028
0.154769
0.1512
0.147307
0.143101
0.138649
0.134079
0.129535
0.125124
0.120916
0.116954
0.113236
0.109739
0.106448
0.103352
0.100447
0.0977276
0.0951869
0.0928088
0.090587
0.0885035
0.0865373
0.0846709
0.0828929
0.0811876
0.0795512
0.0779737
0.0764475
0.0749613
0.0735021
0.0720581
0.0706162
0.0691663
0.0676966
0.0661989
0.064668
0.0630985
0.0614871
0.0598343
0.0581424
0.0564131
0.0546459
0.0528385
0.0509858
0.0490688
0.04709
0.0450525
0.04296
0.0408108
0.0385977
0.0363134
0.0339481
0.031489
0.0289241
0.0262369
0.0234181
0.0204479
0.0173234
0.0140217
0.0104998
0.00695063
0.00341306
-8.80811e-05
-0.00354227
-0.00694509
-0.0102956
-0.0135953
-0.0168479
-0.020058
-0.0232311
-0.0263725
-0.0294876
-0.0325813
-0.035658
-0.0387215
-0.0417753
-0.0448219
-0.0478638
-0.0509027
-0.0539401
-0.0569768
-0.0600139
-0.0630517
-0.0660906
-0.069131
-0.0721728
-0.0752162
-0.0782611
-0.0813074
-0.0843551
-0.087404
-0.090454
-0.0935049
-0.0965567
-0.0996091
-0.102662
-0.105715
-0.108769
0.218852
0.215395
0.21199
0.208675
0.205483
0.202434
0.199524
0.196741
0.194074
0.191517
0.189048
0.186655
0.184327
0.182037
0.179765
0.177488
0.175182
0.172819
0.170374
0.167817
0.165107
0.162216
0.159101
0.155681
0.151921
0.147814
0.143394
0.138744
0.133984
0.129265
0.12471
0.120398
0.116359
0.112573
0.108995
0.105597
0.102383
0.0993589
0.0965242
0.0938754
0.091399
0.0890814
0.0869087
0.0848593
0.0829164
0.0810661
0.0792921
0.0775886
0.0759454
0.0743538
0.0728026
0.0712787
0.0697706
0.0682667
0.0667562
0.0652296
0.0636798
0.0621018
0.0604904
0.0588465
0.0571694
0.0554631
0.0537299
0.0519689
0.0501786
0.0483536
0.0464764
0.0445493
0.0425728
0.0405523
0.0384903
0.0363802
0.0342127
0.0319811
0.029669
0.0272598
0.0247324
0.0220747
0.0192649
0.0162982
0.0131546
0.00975632
0.00622282
0.00269778
-0.000781174
-0.00420704
-0.00757814
-0.0108946
-0.0141585
-0.0173742
-0.0205471
-0.0236832
-0.0267885
-0.0298688
-0.0329294
-0.035975
-0.0390095
-0.0420363
-0.0450582
-0.0480773
-0.0510955
-0.0541138
-0.0571334
-0.0601547
-0.0631781
-0.066204
-0.0692325
-0.0722634
-0.0752967
-0.0783323
-0.08137
-0.0844097
-0.087451
-0.0904939
-0.0935381
-0.0965834
-0.0996296
-0.102677
-0.105724
-0.108772
0.218995
0.215807
0.212643
0.20954
0.206527
0.203624
0.200831
0.198142
0.195553
0.19306
0.190635
0.188279
0.185973
0.183687
0.181404
0.179101
0.176757
0.174342
0.171833
0.169185
0.166362
0.16335
0.160084
0.15648
0.152517
0.148203
0.143589
0.138768
0.133855
0.128989
0.124317
0.119934
0.115856
0.112044
0.108417
0.104929
0.101602
0.0984604
0.095506
0.0927405
0.0901529
0.0877282
0.0854517
0.0833011
0.0812611
0.079316
0.0774509
0.0756557
0.0739213
0.0722391
0.070599
0.0689882
0.0673954
0.0658123
0.0642273
0.0626333
0.0610231
0.059393
0.057736
0.0560581
0.0543576
0.0526394
0.0509064
0.0491581
0.0473913
0.0456015
0.0437713
0.0419017
0.0399912
0.0380454
0.0360708
0.0340651
0.0320169
0.0299171
0.0277508
0.0254994
0.0231386
0.0206457
0.0179939
0.0151874
0.0122269
0.00871288
0.00543601
0.00191054
-0.00154394
-0.00493719
-0.00827169
-0.0115486
-0.0147707
-0.0179433
-0.0210727
-0.0241659
-0.0272297
-0.0302705
-0.0332938
-0.0363047
-0.0393072
-0.0423046
-0.0452997
-0.0482946
-0.0512907
-0.0542891
-0.0572906
-0.0602956
-0.0633044
-0.0663169
-0.0693332
-0.072353
-0.0753762
-0.0784025
-0.0814316
-0.0844633
-0.0874972
-0.0905331
-0.0935707
-0.0966097
-0.0996498
-0.102691
-0.105732
-0.108774
0.219126
0.216189
0.213252
0.210352
0.207518
0.204762
0.202094
0.19951
0.197008
0.194583
0.192209
0.189905
0.187629
0.185356
0.183072
0.180755
0.178383
0.175924
0.17334
0.170584
0.167618
0.164436
0.160957
0.157114
0.152914
0.148413
0.143675
0.138761
0.133778
0.128846
0.124102
0.119652
0.115531
0.111697
0.108037
0.104471
0.101032
0.0977646
0.0946848
0.091793
0.08908
0.08653
0.0841295
0.0818575
0.079696
0.0776299
0.0756451
0.0737301
0.0718747
0.0700719
0.0683123
0.0665857
0.0648835
0.0632014
0.0615273
0.0598568
0.05818
0.0564964
0.0547955
0.0530843
0.0513634
0.049639
0.0479149
0.0461904
0.0444597
0.0427194
0.0409507
0.0391512
0.0373155
0.0354516
0.0335658
0.0316593
0.029726
0.027755
0.0257298
0.0236277
0.0214238
0.0191006
0.0166228
0.0139734
0.0111218
0.00791575
0.00445883
0.00101314
-0.00239011
-0.00574024
-0.00903121
-0.0122616
-0.0154344
-0.0185562
-0.0216348
-0.0246783
-0.0276945
-0.0306904
-0.033672
-0.0366445
-0.0396119
-0.0425776
-0.0455441
-0.0485131
-0.0514861
-0.0544638
-0.0574468
-0.0604351
-0.0634289
-0.0664279
-0.069432
-0.0724408
-0.0754539
-0.078471
-0.0814916
-0.0845155
-0.0875421
-0.0905711
-0.0936023
-0.0966351
-0.0996693
-0.102705
-0.105741
-0.108777
0.219253
0.216557
0.213839
0.211133
0.208466
0.205858
0.20332
0.200851
0.198448
0.196115
0.193818
0.191575
0.189337
0.187097
0.184832
0.18252
0.18013
0.177633
0.174971
0.172093
0.168953
0.165555
0.161803
0.15765
0.153155
0.148456
0.143644
0.138729
0.133765
0.128855
0.12409
0.119582
0.1154
0.111515
0.10781
0.104176
0.100631
0.0972456
0.0940408
0.0910161
0.0881635
0.0854679
0.0829186
0.0804956
0.0781822
0.0759666
0.0738333
0.071771
0.0697648
0.0678085
0.0658943
0.0640174
0.0621761
0.0603745
0.0585983
0.056849
0.0551068
0.0533732
0.0516382
0.0499035
0.0481721
0.0464535
0.0447534
0.0430696
0.0413908
0.0397151
0.038023
0.0363089
0.0345573
0.0327847
0.0309962
0.0291955
0.0273772
0.025536
0.0236536
0.0217076
0.0196628
0.0174916
0.0151681
0.0126608
0.00991316
0.00677655
0.00340873
3.44349e-05
-0.00331608
-0.00661997
-0.00986194
-0.013038
-0.0161524
-0.0192141
-0.0222329
-0.0252186
-0.0281803
-0.0311255
-0.0340606
-0.0369908
-0.0399203
-0.042852
-0.0457881
-0.0487302
-0.0516793
-0.0546357
-0.0575998
-0.0605713
-0.06355
-0.0665356
-0.0695276
-0.0725255
-0.0755288
-0.0785368
-0.0815493
-0.0845655
-0.0875851
-0.0906075
-0.0936324
-0.0966594
-0.099688
-0.102718
-0.105749
-0.10878
0.219358
0.21687
0.214356
0.211842
0.209352
0.206905
0.20451
0.20218
0.199894
0.197677
0.195479
0.193327
0.19116
0.18898
0.186756
0.184465
0.182074
0.17955
0.176812
0.173796
0.170438
0.166778
0.162696
0.158169
0.153379
0.148522
0.143654
0.138782
0.133924
0.129103
0.124357
0.119783
0.115487
0.111483
0.107689
0.103984
0.10035
0.0968612
0.0935385
0.0903775
0.0873699
0.0845011
0.0817692
0.0791561
0.0766484
0.0742418
0.0719265
0.0696901
0.0675071
0.0653681
0.0632657
0.0612051
0.059196
0.0572577
0.0553749
0.053554
0.0517662
0.0500105
0.0482693
0.0465383
0.0448193
0.0431295
0.0414734
0.0398458
0.038226
0.0366198
0.0350008
0.0333787
0.0317148
0.0300384
0.0283532
0.0266708
0.0249824
0.0232911
0.0215584
0.0197686
0.017876
0.0158445
0.0136538
0.011281
0.00865533
0.00562417
0.00232469
-0.00101061
-0.00432325
-0.00758376
-0.0107716
-0.0138832
-0.0169275
-0.0199172
-0.0228655
-0.0257843
-0.0286836
-0.0315717
-0.0344553
-0.0373396
-0.0402282
-0.0431239
-0.0460284
-0.0489427
-0.0518673
-0.0548023
-0.0577474
-0.0607022
-0.0636662
-0.0666386
-0.0696188
-0.0726061
-0.0755998
-0.0785993
-0.0816038
-0.0846128
-0.0876256
-0.0906419
-0.0936609
-0.0966823
-0.0997055
-0.10273
-0.105756
-0.108782
0.219439
0.217124
0.2148
0.212476
0.210172
0.207905
0.205683
0.203518
0.201378
0.199312
0.197244
0.195221
0.193165
0.191081
0.18893
0.186684
0.18432
0.181795
0.178988
0.175808
0.172185
0.168224
0.163772
0.158826
0.153713
0.148685
0.143769
0.138945
0.134194
0.129483
0.124803
0.120187
0.115726
0.111518
0.107571
0.103806
0.100106
0.0965147
0.0930817
0.089787
0.0866186
0.0835556
0.0806114
0.0777585
0.0749924
0.0723301
0.0697841
0.0673431
0.0649542
0.0626056
0.060292
0.0580301
0.0558401
0.053763
0.0517897
0.0499296
0.0481424
0.0464391
0.04476
0.0430962
0.0414368
0.0398112
0.0382203
0.0366318
0.0350306
0.0334589
0.0318541
0.0303248
0.0287345
0.0271637
0.0255967
0.0240559
0.0225236
0.0210579
0.0195243
0.01794
0.0162031
0.0143056
0.0122194
0.00994448
0.00742238
0.00450708
0.001285
-0.00209587
-0.00542213
-0.00864852
-0.0117731
-0.0148047
-0.0177621
-0.0206648
-0.0235299
-0.026371
-0.0291994
-0.0320238
-0.0348509
-0.0376855
-0.0405309
-0.0433891
-0.046261
-0.0491471
-0.0520472
-0.0549609