/*--------------------------------*- C++ -*----------------------------------*\
  =========                 |
  \\      /  F ield         | OpenFOAM: The Open Source CFD Toolbox
   \\    /   O peration     | Website:  https://openfoam.org
    \\  /    A nd           | Version:  6
     \\/     M anipulation  |
\*---------------------------------------------------------------------------*/
FoamFile
{
    version     2.0;
    format      ascii;
    class       volVectorField;
    location    "2850";
    object      U;
}
// * * * * * * * * * * * * * * * * * * * * * * * * * * * * * * * * * * * * * //

dimensions      [0 1 -1 0 0 0 0];

internalField   nonuniform List<vector> 
4800
(
(-8.58138e-05 0 2.10177e-05)
(0.000227669 0 -1.4004e-05)
(-0.000203866 0 -0.000299772)
(-0.000184103 0 -5.1129e-05)
(-0.000301703 0 3.27939e-05)
(-0.000450141 0 -4.32945e-06)
(-0.000559346 0 0.000278232)
(-0.000700945 0 1.16153e-05)
(-0.000733462 0 7.20148e-05)
(-0.000759953 0 3.03196e-05)
(-0.0007672 0 1.9602e-05)
(-0.000704488 0 -3.42729e-05)
(-0.000632889 0 -7.20584e-05)
(-0.000600851 0 -0.00012131)
(-0.000583439 0 -0.000166041)
(-0.000554364 0 -0.000263768)
(-0.000534842 0 -0.000168804)
(-0.000486555 0 1.29546e-06)
(-0.000347653 0 1.86797e-06)
(-0.000211095 0 -0.000352885)
(-0.000185622 0 -7.39204e-05)
(-0.000144227 0 -0.000139831)
(-1.1788e-05 0 -4.19546e-05)
(1.39893e-05 0 -2.13807e-05)
(7.24059e-05 0 -6.17653e-05)
(0.000174421 0 -7.58158e-05)
(0.000293403 0 -6.10155e-05)
(0.000372947 0 -9.84556e-05)
(0.000467366 0 -7.79138e-05)
(0.000546404 0 -0.000125601)
(0.000661185 0 -1.51922e-05)
(0.000710135 0 -0.000133529)
(0.000843685 0 -0.000159757)
(0.00102107 0 -5.36655e-07)
(0.00108367 0 -0.00014166)
(0.00116822 0 -9.63917e-05)
(0.00125797 0 -1.2758e-05)
(0.00128972 0 -8.58914e-05)
(0.00133146 0 -7.74639e-05)
(0.00140085 0 -9.51282e-06)
(0.00147061 0 -1.03132e-05)
(0.00149803 0 -7.74045e-05)
(0.00152123 0 -6.46525e-05)
(0.0015662 0 -5.58581e-05)
(0.00161093 0 -4.77164e-05)
(0.00161142 0 -5.46514e-05)
(0.00162555 0 -5.76229e-05)
(0.00166758 0 0.000150564)
(0.00167525 0 -5.08974e-05)
(0.00167934 0 -6.10255e-05)
(0.00170156 0 -5.28079e-05)
(0.00173078 0 -1.33685e-05)
(0.0017621 0 -5.58332e-05)
(0.00180957 0 -5.58783e-05)
(0.00180908 0 -5.30168e-05)
(0.00179182 0 -4.1617e-05)
(0.00178462 0 5.5506e-06)
(0.0017752 0 -5.93179e-06)
(0.001729 0 -1.70859e-05)
(0.00163708 0 7.15441e-05)
(0.00156409 0 0.000112211)
(0.00143998 0 5.52909e-05)
(0.00108575 0 -0.000114322)
(0.000845001 0 -0.000322909)
(0.000779719 0 -0.000304297)
(0.000719935 0 -9.25364e-05)
(0.000699141 0 -2.13615e-05)
(0.000673748 0 -1.85484e-05)
(0.000630439 0 1.26901e-05)
(0.000573671 0 6.63601e-05)
(0.000473155 0 5.54652e-05)
(0.000355009 0 -5.92851e-05)
(0.000333552 0 -9.19975e-05)
(0.000326838 0 -8.24319e-05)
(0.000323746 0 1.13649e-05)
(0.000312248 0 -4.94741e-05)
(0.000270873 0 6.87481e-05)
(0.000289967 0 3.24389e-05)
(3.97187e-06 0 -1.76469e-05)
(8.58648e-06 0 5.36527e-05)
(-2.07747e-10 0 4.29859e-11)
(-4.76687e-12 0 1.84927e-12)
(-5.32992e-12 0 5.40286e-13)
(-5.91475e-12 0 1.84834e-13)
(-6.12479e-12 0 2.51347e-14)
(-6.08987e-12 0 -6.01216e-14)
(-5.91625e-12 0 -1.1361e-13)
(-5.65136e-12 0 -1.51384e-13)
(-5.32032e-12 0 -1.79779e-13)
(-4.93929e-12 0 -2.01401e-13)
(-4.5207e-12 0 -2.17364e-13)
(-4.07534e-12 0 -2.28201e-13)
(-3.61313e-12 0 -2.34242e-13)
(-3.14337e-12 0 -2.35778e-13)
(-2.67474e-12 0 -2.3314e-13)
(-2.21519e-12 0 -2.26713e-13)
(-1.77188e-12 0 -2.1694e-13)
(-1.35099e-12 0 -2.04309e-13)
(-9.57731e-13 0 -1.89336e-13)
(-5.96248e-13 0 -1.72543e-13)
(-2.69657e-13 0 -1.54443e-13)
(1.99311e-14 0 -1.35521e-13)
(2.71333e-13 0 -1.16223e-13)
(4.84205e-13 0 -9.6946e-14)
(6.5894e-13 0 -7.80321e-14)
(7.9655e-13 0 -5.97683e-14)
(8.98556e-13 0 -4.23843e-14)
(9.66878e-13 0 -2.60559e-14)
(1.00374e-12 0 -1.09093e-14)
(1.01159e-12 0 2.97194e-15)
(9.93015e-13 0 1.55395e-14)
(9.50671e-13 0 2.6772e-14)
(8.87246e-13 0 3.66684e-14)
(8.05408e-13 0 4.52416e-14)
(7.07774e-13 0 5.25135e-14)
(5.96906e-13 0 5.85115e-14)
(4.75302e-13 0 6.32644e-14)
(3.45403e-13 0 6.68003e-14)
(2.09606e-13 0 6.91451e-14)
(7.02651e-14 0 7.03248e-14)
(-0.000368722 0 -5.37851e-05)
(-0.000162637 0 0.000193048)
(-0.000346811 0 0.000227226)
(-0.000506616 0 5.10928e-06)
(-0.000478866 0 0.000255995)
(-0.000576174 0 0.000145746)
(-0.000673348 0 2.30936e-05)
(-0.000731728 0 0.000112933)
(-0.000779051 0 2.27487e-05)
(-0.000797759 0 -9.59052e-06)
(-0.000815915 0 -1.77699e-05)
(-0.000823275 0 -4.55236e-05)
(-0.000814515 0 -0.000134787)
(-0.00079529 0 5.41802e-05)
(-0.000765307 0 5.41174e-05)
(-0.000727059 0 -1.53264e-05)
(-0.00065716 0 0.000133853)
(-0.000483855 0 -0.000477895)
(-0.000526444 0 -0.000131712)
(-0.00051455 0 -0.00017332)
(-0.000479993 0 -9.10766e-06)
(-0.00034356 0 -0.00019504)
(-0.000308768 0 -0.000119213)
(-0.000264141 0 -7.05683e-05)
(-0.000143985 0 -0.000189914)
(5.8792e-05 0 -0.000111654)
(0.000152457 0 -8.95483e-05)
(0.000199724 0 -0.000161236)
(0.000327152 0 -0.000136056)
(0.000392905 0 -0.000225994)
(0.000569819 0 6.02548e-05)
(0.000539962 0 -0.000330994)
(0.000726001 0 -0.000192293)
(0.00087323 0 -5.6232e-05)
(0.000942916 0 -0.000230294)
(0.00105496 0 -0.00011564)
(0.00112181 0 -2.56653e-05)
(0.00115895 0 -8.36168e-05)
(0.00122444 0 -8.03708e-05)
(0.00131417 0 -9.36779e-05)
(0.00138876 0 -9.58456e-05)
(0.0014003 0 -3.44848e-05)
(0.00140711 0 -4.43009e-05)
(0.00142266 0 -1.56559e-05)
(0.0014344 0 2.28836e-05)
(0.00145585 0 -4.02072e-05)
(0.00150844 0 1.93414e-07)
(0.00151616 0 -4.43404e-06)
(0.00151474 0 -3.09736e-05)
(0.0015469 0 -2.6141e-05)
(0.00161841 0 -5.3563e-05)
(0.00164646 0 -3.90307e-05)
(0.00167012 0 2.31392e-06)
(0.00173054 0 2.27105e-05)
(0.00175729 0 3.05534e-05)
(0.0017428 0 3.32724e-06)
(0.00171304 0 1.07338e-05)
(0.00170796 0 8.42386e-05)
(0.00168851 0 8.72902e-05)
(0.00160262 0 1.72094e-05)
(0.00146337 0 7.17794e-05)
(0.0014001 0 0.000320408)
(0.00137441 0 0.00037532)
(0.00126752 0 0.000430748)
(0.00091606 0 0.000480379)
(0.000711281 0 0.000126568)
(0.000700096 0 7.98158e-05)
(0.000676242 0 7.67625e-05)
(0.000611196 0 7.08461e-05)
(0.000541996 0 7.80462e-05)
(0.000519212 0 8.97594e-05)
(0.000476692 0 0.000144457)
(0.000393085 0 0.000128372)
(0.000316199 0 9.64571e-05)
(0.000313279 0 1.7385e-05)
(0.000285878 0 8.86539e-05)
(0.000235572 0 -2.69752e-06)
(0.00025479 0 3.23619e-05)
(-0.000222832 0 0.00014562)
(-0.000396201 0 0.00021471)
(2.76328e-06 0 9.3672e-07)
(-4.40303e-12 0 1.87384e-12)
(-7.32764e-12 0 1.05648e-12)
(-6.43012e-12 0 3.58668e-13)
(-6.36979e-12 0 8.61864e-16)
(-6.22856e-12 0 -2.12167e-13)
(-6.00752e-12 0 -3.56602e-13)
(-5.71753e-12 0 -4.63596e-13)
(-5.37034e-12 0 -5.4619e-13)
(-4.97687e-12 0 -6.09948e-13)
(-4.5475e-12 0 -6.57317e-13)
(-4.09222e-12 0 -6.89509e-13)
(-3.62071e-12 0 -7.07345e-13)
(-3.14227e-12 0 -7.11636e-13)
(-2.66567e-12 0 -7.03345e-13)
(-2.19899e-12 0 -6.83627e-13)
(-1.74947e-12 0 -6.53823e-13)
(-1.32339e-12 0 -6.15413e-13)
(-9.25965e-13 0 -5.69961e-13)
(-5.61356e-13 0 -5.19056e-13)
(-2.32635e-13 0 -4.64254e-13)
(5.81508e-14 0 -4.07026e-13)
(3.09908e-13 0 -3.4872e-13)
(5.22396e-13 0 -2.90535e-13)
(6.96118e-13 0 -2.33503e-13)
(8.32198e-13 0 -1.7848e-13)
(9.32268e-13 0 -1.26148e-13)
(9.98353e-13 0 -7.70252e-14)
(1.03277e-12 0 -3.1482e-14)
(1.03804e-12 0 1.02366e-14)
(1.01681e-12 0 4.79879e-14)
(9.718e-13 0 8.17094e-14)
(9.05716e-13 0 1.11399e-13)
(8.21253e-13 0 1.371e-13)
(7.21044e-13 0 1.58884e-13)
(6.07657e-13 0 1.76839e-13)
(4.8359e-13 0 1.91059e-13)
(3.51284e-13 0 2.01634e-13)
(2.13131e-13 0 2.08642e-13)
(7.14449e-14 0 2.12145e-13)
(-0.000186652 0 0.00032429)
(-0.000253518 0 0.000213837)
(-0.00028909 0 0.000337039)
(-0.000462744 0 0.000312106)
(-0.000609252 0 0.000210293)
(-0.000614915 0 0.000326357)
(-0.000716909 0 0.000217939)
(-0.000765057 0 0.00015757)
(-0.000795797 0 0.000116002)
(-0.000836922 0 1.0734e-05)
(-0.000861201 0 -1.7386e-05)
(-0.000881506 0 -2.08085e-05)
(-0.000896917 0 -4.17728e-05)
(-0.000854459 0 -0.000169332)
(-0.00077128 0 -0.000165011)
(-0.000720864 0 -6.30196e-05)
(-0.000682173 0 -0.000114131)
(-0.000730422 0 -0.000101558)
(-0.000731112 0 -0.000186588)
(-0.00070565 0 -0.000151355)
(-0.000639024 0 -0.000227384)
(-0.00063314 0 -0.000139428)
(-0.000583519 0 -0.000268578)
(-0.000576573 0 -1.43164e-05)
(-0.000317005 0 -0.000409841)
(-0.000210947 0 -0.000234278)
(-5.22652e-05 0 -0.000247374)
(9.71888e-05 0 -0.000232445)
(0.000258059 0 -0.0002016)
(0.000330656 0 -0.000281209)
(0.000618287 0 4.83816e-05)
(0.000424501 0 -0.000536381)
(0.000707552 0 -0.000223447)
(0.000820371 0 -0.000164729)
(0.000881038 0 -0.000390263)
(0.00103941 0 -0.000142137)
(0.0010969 0 -5.13772e-05)
(0.00112712 0 -0.000235809)
(0.0012374 0 -0.000111794)
(0.00133646 0 -8.76049e-05)
(0.00133615 0 -0.000102579)
(0.00133575 0 -0.000117894)
(0.00135611 0 -0.000126002)
(0.00138043 0 -5.10299e-05)
(0.00137813 0 -5.15293e-05)
(0.00139018 0 -7.02561e-05)
(0.00143166 0 2.00377e-05)
(0.00147858 0 -1.40944e-05)
(0.00149561 0 -0.000183845)
(0.00152206 0 -0.000178701)
(0.00156282 0 -3.40162e-05)
(0.00160263 0 -0.000108525)
(0.0016402 0 -0.000311515)
(0.00168544 0 -4.49779e-05)
(0.0016837 0 -2.36655e-05)
(0.00167943 0 1.84926e-05)
(0.00165342 0 2.463e-05)
(0.00159337 0 9.07473e-05)
(0.00157234 0 0.000219458)
(0.00155727 0 0.000221096)
(0.0014831 0 0.000220014)
(0.00135482 0 0.000366133)
(0.0012664 0 0.000475329)
(0.00118524 0 0.000464913)
(0.00105209 0 0.00031248)
(0.000905514 0 8.59424e-05)
(0.00074912 0 0.000115395)
(0.000666791 0 0.000111701)
(0.000619863 0 0.00010939)
(0.000561737 0 0.000165921)
(0.000504646 0 0.000219917)
(0.000452968 0 0.000201585)
(0.000386476 0 6.64826e-05)
(0.00033227 0 2.95762e-05)
(0.00031686 0 5.33569e-05)
(0.000290794 0 0.000101835)
(0.000217061 0 0.000134888)
(0.00020088 0 0.000172186)
(4.91552e-05 0 0.00023725)
(-0.000475667 0 0.00045366)
(4.43463e-06 0 -0.000220031)
(-4.67516e-12 0 3.00105e-13)
(-8.48978e-12 0 7.04958e-13)
(-6.9704e-12 0 1.92383e-13)
(-6.69554e-12 0 -1.68266e-13)
(-6.44722e-12 0 -4.32768e-13)
(-6.16768e-12 0 -6.37062e-13)
(-5.84095e-12 0 -8.00245e-13)
(-5.46667e-12 0 -9.31478e-13)
(-5.05041e-12 0 -1.03493e-12)
(-4.60026e-12 0 -1.1125e-12)
(-4.12537e-12 0 -1.16523e-12)
(-3.63526e-12 0 -1.19405e-12)
(-3.13937e-12 0 -1.20014e-12)
(-2.64673e-12 0 -1.18504e-12)
(-2.16567e-12 0 -1.15069e-12)
(-1.70366e-12 0 -1.09937e-12)
(-1.26713e-12 0 -1.03361e-12)
(-8.61374e-13 0 -9.56083e-13)
(-4.90542e-13 0 -8.6951e-13)
(-1.57626e-13 0 -7.76537e-13)
(1.35465e-13 0 -6.79661e-13)
(3.87823e-13 0 -5.81161e-13)
(5.99422e-13 0 -4.8305e-13)
(7.70995e-13 0 -3.87049e-13)
(9.03905e-13 0 -2.94579e-13)
(1.00001e-12 0 -2.06763e-13)
(1.06154e-12 0 -1.24445e-13)
(1.091e-12 0 -4.82274e-14)
(1.09106e-12 0 2.15005e-14)
(1.06449e-12 0 8.45178e-14)
(1.01408e-12 0 1.40738e-13)
(9.42637e-13 0 1.90178e-13)
(8.52892e-13 0 2.32926e-13)
(7.47512e-13 0 2.69121e-13)
(6.29081e-13 0 2.9893e-13)
(5.00097e-13 0 3.22524e-13)
(3.62986e-13 0 3.40062e-13)
(2.20117e-13 0 3.51676e-13)
(7.37683e-14 0 3.57463e-13)
(-0.000154145 0 0.000420507)
(-0.000261259 0 0.000346985)
(-0.000395922 0 0.000297138)
(-0.00048094 0 0.000333957)
(-0.000581048 0 0.000366386)
(-0.000668338 0 0.000318378)
(-0.000732215 0 0.000286855)
(-0.000764303 0 0.000264905)
(-0.000821453 0 0.000129125)
(-0.000857401 0 0.000109286)
(-0.00087958 0 7.1467e-05)
(-0.000899637 0 -6.99029e-05)
(-0.000923412 0 -4.65126e-05)
(-0.000930348 0 -6.01077e-05)
(-0.000877649 0 -0.00018993)
(-0.00084095 0 -0.000168202)
(-0.000824746 0 -0.000193155)
(-0.000851454 0 -0.000216799)
(-0.000897577 0 -0.000132724)
(-0.000886987 0 -4.22973e-05)
(-0.000764246 0 -0.000407517)
(-0.000783223 0 -0.000136293)
(-0.000687943 0 -0.000325548)
(-0.000657479 0 -0.000249774)
(-0.000391145 0 -0.000537917)
(-0.000425071 0 -0.000316181)
(-0.000188422 0 -0.000449347)
(-9.96235e-05 0 -0.000431351)
(0.000135552 0 -0.000441068)
(0.000235387 0 -0.000444832)
(0.00054143 0 -0.000159815)
(0.000511037 0 -0.000461659)
(0.000785228 0 -0.000125961)
(0.000730297 0 -0.000481303)
(0.000879629 0 -0.000418435)
(0.001002 0 -0.000212169)
(0.00106827 0 -0.000200553)
(0.00114581 0 -0.000315248)
(0.00127461 0 -0.00018196)
(0.00127753 0 -0.000160432)
(0.0012762 0 -0.000108638)
(0.00128172 0 -6.94129e-05)
(0.0012948 0 -9.13819e-07)
(0.0013194 0 -3.65739e-05)
(0.00134852 0 -2.97961e-05)
(0.0013481 0 -6.13075e-05)
(0.00135598 0 -0.000101697)
(0.00139096 0 -0.000166247)
(0.00144092 0 -8.13934e-05)
(0.00144625 0 -0.000108075)
(0.00147089 0 -0.000147785)
(0.00157402 0 -0.000114206)
(0.00162243 0 -3.88088e-05)
(0.00159507 0 -4.20716e-05)
(0.00159132 0 -1.51077e-05)
(0.00159473 0 2.53463e-05)
(0.00157992 0 5.93061e-05)
(0.00153297 0 3.36106e-05)
(0.00145786 0 0.000168925)
(0.00139456 0 0.000336382)
(0.00132626 0 0.000429201)
(0.00125336 0 0.000424566)
(0.00121033 0 0.000382624)
(0.00112309 0 0.000478732)
(0.00103484 0 0.000516017)
(0.000933789 0 0.000420139)
(0.00076177 0 0.000264776)
(0.000677669 0 0.000178704)
(0.000634374 0 0.000193734)
(0.000579516 0 0.000203245)
(0.000506285 0 0.0002225)
(0.000461508 0 0.000200523)
(0.000432932 0 0.000152815)
(0.000363477 0 0.000152192)
(0.000324277 0 9.73136e-05)
(0.00030686 0 0.000134985)
(0.000245457 0 0.000174499)
(0.000233279 0 0.000213295)
(0.000148088 0 0.000314465)
(-0.000407577 0 0.000496754)
(5.63474e-06 0 -0.000247728)
(-4.80182e-12 0 -5.5041e-13)
(-8.77939e-12 0 1.73882e-13)
(-7.30311e-12 0 -1.25808e-13)
(-6.99473e-12 0 -4.33498e-13)
(-6.69724e-12 0 -7.13447e-13)
(-6.37499e-12 0 -9.58599e-13)
(-6.01195e-12 0 -1.1688e-12)
(-5.60502e-12 0 -1.34449e-12)
(-5.15789e-12 0 -1.48574e-12)
(-4.6778e-12 0 -1.59245e-12)
(-4.17377e-12 0 -1.66477e-12)
(-3.65562e-12 0 -1.70341e-12)
(-3.13326e-12 0 -1.70973e-12)
(-2.61622e-12 0 -1.68587e-12)
(-2.11332e-12 0 -1.63459e-12)
(-1.63239e-12 0 -1.55922e-12)
(-1.1801e-12 0 -1.46343e-12)
(-7.61868e-13 0 -1.35113e-12)
(-3.81809e-13 0 -1.22627e-12)
(-4.27862e-14 0 -1.09266e-12)
(2.53527e-13 0 -9.53896e-13)
(5.06519e-13 0 -8.13224e-13)
(7.16508e-13 0 -6.73491e-13)
(8.84589e-13 0 -5.37111e-13)
(1.01248e-12 0 -4.0606e-13)
(1.1024e-12 0 -2.81888e-13)
(1.15689e-12 0 -1.6575e-13)
(1.17872e-12 0 -5.84476e-14)
(1.17079e-12 0 3.95128e-14)
(1.13605e-12 0 1.2787e-13)
(1.07746e-12 0 2.06551e-13)
(9.97903e-13 0 2.75627e-13)
(9.00196e-13 0 3.35267e-13)
(7.87049e-13 0 3.85704e-13)
(6.61059e-13 0 4.272e-13)
(5.24722e-13 0 4.60017e-13)
(3.80437e-13 0 4.84397e-13)
(2.30532e-13 0 5.00536e-13)
(7.72311e-14 0 5.08574e-13)
(-0.000109942 0 0.000588762)
(-0.000160015 0 0.000533213)
(-0.000405618 0 0.00044617)
(-0.000488561 0 0.000444059)
(-0.000539811 0 0.000496607)
(-0.000682916 0 0.000371163)
(-0.000731582 0 0.000331522)
(-0.000760026 0 0.00031569)
(-0.000852941 0 0.000146177)
(-0.000887908 0 0.000133048)
(-0.000914591 0 4.22429e-05)
(-0.000938414 0 -5.58766e-05)
(-0.000954332 0 -6.29738e-05)
(-0.000954665 0 -0.000129652)
(-0.000966996 0 -0.000130097)
(-0.000981153 0 -9.54682e-05)
(-0.000974625 0 -0.000194822)
(-0.000998699 0 -0.000161282)
(-0.00101831 0 -0.000100494)
(-0.00101881 0 1.48411e-05)
(-0.000870508 0 -0.000451169)
(-0.000871617 0 -0.000132148)
(-0.00076516 0 -0.000294505)
(-0.000674492 0 -0.000381027)
(-0.000427056 0 -0.000596784)
(-0.000470462 0 -0.0004434)
(-0.000140632 0 -0.000635935)
(-0.000138379 0 -0.000580555)
(0.000143599 0 -0.000601329)
(0.000309199 0 -0.000498514)
(0.000330073 0 -0.00056958)
(0.00057664 0 -0.00047548)
(0.000764804 0 -0.000459407)
(0.000679079 0 -0.000726559)
(0.0009635 0 -0.000339527)
(0.000953921 0 -0.000400761)
(0.00102519 0 -0.000302297)
(0.0010954 0 -0.000306373)
(0.00119164 0 -0.000228)
(0.00119492 0 -0.000210591)
(0.00119949 0 -0.000161284)
(0.00119705 0 -0.000133151)
(0.00118956 0 -0.000123454)
(0.00119899 0 -6.50264e-05)
(0.00120582 0 -0.000126755)
(0.00121195 0 -0.000165773)
(0.0012298 0 -0.000142551)
(0.00127153 0 -9.68098e-05)
(0.00130516 0 -0.000166008)
(0.00132547 0 -0.000233894)
(0.00138935 0 -0.000198458)
(0.00146092 0 -0.000135405)
(0.00145254 0 -0.000147518)
(0.00144079 0 -6.20941e-05)
(0.00145085 0 -2.85139e-05)
(0.0014683 0 5.69319e-05)
(0.00145313 0 9.9886e-05)
(0.00139485 0 0.000175801)
(0.00131953 0 8.91763e-05)
(0.00127882 0 9.95277e-05)
(0.00124788 0 0.000191421)
(0.00120005 0 0.000301803)
(0.00108241 0 0.000531549)
(0.000993284 0 0.000638484)
(0.000951183 0 0.000605562)
(0.000874124 0 0.000478831)
(0.00078004 0 0.000334069)
(0.000712182 0 0.000268107)
(0.000643252 0 0.000267618)
(0.00057996 0 0.000265019)
(0.000531631 0 0.000244608)
(0.000504579 0 0.000241857)
(0.000477847 0 0.000231489)
(0.00044146 0 9.5775e-05)
(0.000343256 0 0.000159072)
(0.000323327 0 0.00020428)
(0.000255387 0 0.00026874)
(0.000175255 0 0.000346625)
(0.00036735 0 0.000368239)
(-0.000379757 0 0.000467799)
(5.69673e-06 0 -0.000133291)
(-4.70241e-12 0 -8.57404e-13)
(-9.0582e-12 0 -2.1838e-13)
(-7.57758e-12 0 -4.35988e-13)
(-7.28299e-12 0 -7.26449e-13)
(-6.9722e-12 0 -1.02882e-12)
(-6.62304e-12 0 -1.31507e-12)
(-6.22684e-12 0 -1.57185e-12)
(-5.78361e-12 0 -1.79193e-12)
(-5.29837e-12 0 -1.97106e-12)
(-4.77929e-12 0 -2.10675e-12)
(-4.23632e-12 0 -2.19797e-12)
(-3.68022e-12 0 -2.24502e-12)
(-3.12184e-12 0 -2.24947e-12)
(-2.57159e-12 0 -2.21406e-12)
(-2.03902e-12 0 -2.14254e-12)
(-1.5325e-12 0 -2.03941e-12)
(-1.05905e-12 0 -1.9097e-12)
(-6.24212e-13 0 -1.75871e-12)
(-2.32068e-13 0 -1.59174e-12)
(1.14745e-13 0 -1.41392e-12)
(4.14901e-13 0 -1.23004e-12)
(6.68229e-13 0 -1.04435e-12)
(8.75535e-13 0 -8.60588e-13)
(1.03843e-12 0 -6.81854e-13)
(1.15913e-12 0 -5.10669e-13)
(1.24032e-12 0 -3.48981e-13)
(1.28498e-12 0 -1.98209e-13)
(1.29627e-12 0 -5.93125e-14)
(1.27738e-12 0 6.71415e-14)
(1.23153e-12 0 1.80903e-13)
(1.16184e-12 0 2.81964e-13)
(1.07135e-12 0 3.70497e-13)
(9.62969e-13 0 4.46793e-13)
(8.39445e-13 0 5.1121e-13)
(7.03395e-13 0 5.64135e-13)
(5.57295e-13 0 6.05946e-13)
(4.03505e-13 0 6.36979e-13)
(2.44294e-13 0 6.5751e-13)
(8.18057e-14 0 6.6773e-13)
(-0.000152623 0 0.000747601)
(-0.000248617 0 0.000662287)
(-0.000479671 0 0.00053326)
(-0.000648315 0 0.000428637)
(-0.000628965 0 0.000509192)
(-0.000695728 0 0.000449126)
(-0.000719205 0 0.000434561)
(-0.000821193 0 0.000280515)
(-0.000869136 0 0.000226398)
(-0.000890694 0 0.000211432)
(-0.000938403 0 5.25978e-05)
(-0.000974448 0 -9.54986e-06)
(-0.000985926 0 -2.99684e-05)
(-0.000988499 0 -0.00013289)
(-0.00101114 0 -0.000134822)
(-0.00103541 0 -0.000118611)
(-0.00105129 0 -0.000160184)
(-0.00106692 0 -0.000139455)
(-0.00107238 0 -0.000141222)
(-0.00104418 0 -0.000236594)
(-0.000947194 0 -0.000325787)
(-0.000851483 0 -0.000364753)
(-0.000757264 0 -0.000432542)
(-0.000645059 0 -0.000526985)
(-0.000471766 0 -0.000652892)
(-0.000331701 0 -0.00070963)
(-0.000182121 0 -0.000759045)
(-9.55814e-05 0 -0.000769648)
(7.18846e-05 0 -0.000784444)
(0.000226677 0 -0.000696942)
(0.000366957 0 -0.000669587)
(0.000538281 0 -0.000634312)
(0.000665803 0 -0.000655763)
(0.00085297 0 -0.000533654)
(0.000872581 0 -0.000513516)
(0.000872678 0 -0.000468102)
(0.000962651 0 -0.000292441)
(0.000865201 0 -0.000531819)
(0.000982265 0 -0.000258045)
(0.00100499 0 -0.000180968)
(0.00102227 0 -8.65472e-05)
(0.00103569 0 -3.33104e-05)
(0.00103828 0 -2.82088e-05)
(0.00103792 0 -2.86179e-05)
(0.00102924 0 -8.0574e-05)
(0.00106095 0 -8.44256e-05)
(0.00107943 0 -0.000162869)
(0.0011088 0 -0.000130089)
(0.00116273 0 -8.30604e-05)
(0.00119143 0 -0.000218776)
(0.00123016 0 -0.000280538)
(0.00129512 0 -0.0001951)
(0.00130166 0 -0.000157448)
(0.00129456 0 -0.000111751)
(0.00126209 0 -6.52564e-05)
(0.00123995 0 6.41786e-05)
(0.0012202 0 0.000149873)
(0.00118226 0 4.84465e-05)
(0.0011442 0 0.000185009)
(0.00105699 0 0.000440964)
(0.000990747 0 0.00055429)
(0.000934358 0 0.000623343)
(0.000866061 0 0.000694207)
(0.00084849 0 0.000690451)
(0.000845023 0 0.000612601)
(0.000793611 0 0.000524493)
(0.00073446 0 0.000443861)
(0.000690101 0 0.000332547)
(0.000629624 0 0.000299398)
(0.000583262 0 0.000319686)
(0.000564451 0 0.000310546)
(0.000548168 0 0.000286132)
(0.000498409 0 0.000302703)
(0.000494477 0 0.00015686)
(0.00041184 0 0.000177887)
(0.000391601 0 0.000216078)
(0.000352707 0 0.000262782)
(0.000295678 0 0.000327623)
(0.00035737 0 0.000409752)
(-0.000127303 0 0.000502173)
(5.4867e-06 0 -1.37447e-05)
(-4.60368e-12 0 -7.6394e-13)
(-9.06662e-12 0 -4.09313e-13)
(-7.81098e-12 0 -6.73298e-13)
(-7.58738e-12 0 -1.00749e-12)
(-7.28574e-12 0 -1.36021e-12)
(-6.91803e-12 0 -1.70103e-12)
(-6.4888e-12 0 -2.01161e-12)
(-6.00423e-12 0 -2.28034e-12)
(-5.47271e-12 0 -2.4998e-12)
(-4.90471e-12 0 -2.66551e-12)
(-4.31204e-12 0 -2.77532e-12)
(-3.70712e-12 0 -2.82921e-12)
(-3.1023e-12 0 -2.82904e-12)
(-2.50929e-12 0 -2.77835e-12)
(-1.93867e-12 0 -2.68207e-12)
(-1.39956e-12 0 -2.54616e-12)
(-8.99399e-13 0 -2.37723e-12)
(-4.43903e-13 0 -2.18222e-12)
(-3.70291e-14 0 -1.96803e-12)
(3.18913e-13 0 -1.74124e-12)
(6.23097e-13 0 -1.50795e-12)
(8.75969e-13 0 -1.27354e-12)
(1.07901e-12 0 -1.04262e-12)
(1.23451e-12 0 -8.19026e-13)
(1.34536e-12 0 -6.05773e-13)
(1.41486e-12 0 -4.05156e-13)
(1.44656e-12 0 -2.18799e-13)
(1.44407e-12 0 -4.77435e-14)
(1.411e-12 0 1.07455e-13)
(1.35088e-12 0 2.46627e-13)
(1.26705e-12 0 3.69896e-13)
(1.16273e-12 0 4.77595e-13)
(1.04091e-12 0 5.70185e-13)
(9.04391e-13 0 6.48198e-13)
(7.55795e-13 0 7.1218e-13)
(5.97566e-13 0 7.62652e-13)
(4.32001e-13 0 8.00071e-13)
(2.61283e-13 0 8.24806e-13)
(8.74511e-14 0 8.37111e-13)
(-0.000122982 0 0.000864707)
(5.95205e-05 0 0.000861442)
(-9.88257e-05 0 0.000780999)
(-0.000382396 0 0.000737887)
(-0.000468718 0 0.000714653)
(-0.000695223 0 0.000548206)
(-0.000773247 0 0.000469935)
(-0.000861675 0 0.000362434)
(-0.000887163 0 0.000304698)
(-0.000914133 0 0.000183989)
(-0.000949198 0 0.000111217)
(-0.000977036 0 5.86744e-05)
(-0.000987078 0 -4.38454e-05)
(-0.00100739 0 -0.000118601)
(-0.00103225 0 -9.39902e-05)
(-0.00105009 0 -9.78734e-05)
(-0.00105691 0 -0.000175457)
(-0.00107583 0 -0.000155477)
(-0.00108678 0 -0.000162854)
(-0.00103685 0 -0.000307281)
(-0.000916252 0 -0.000409925)
(-0.000812265 0 -0.000462609)
(-0.000720182 0 -0.000528355)
(-0.000505367 0 -0.000728957)
(-0.000444218 0 -0.000747975)
(-0.000236578 0 -0.000842829)
(-0.000178886 0 -0.000855077)
(-0.000114682 0 -0.000890404)
(-3.56996e-05 0 -0.000902495)
(4.15577e-05 0 -0.000887523)
(0.000234198 0 -0.000862538)
(0.000335612 0 -0.000842498)
(0.000504712 0 -0.000792253)
(0.000668714 0 -0.000656668)
(0.000729619 0 -0.000561072)
(0.000714588 0 -0.000552763)
(0.000836831 0 -0.000292867)
(0.000732507 0 -0.00038954)
(0.000739498 0 -0.00034297)
(0.000779599 0 -0.000237729)
(0.000782033 0 -0.000193881)
(0.000791451 0 -0.000130222)
(0.000794019 0 -0.000145826)
(0.000850737 0 -6.37536e-06)
(0.000819864 0 -0.000245934)
(0.000883917 0 -2.4111e-05)
(0.000923947 0 -0.000116833)
(0.000926067 0 -0.000257458)
(0.000953395 0 -0.000285562)
(0.000974268 0 -0.000350315)
(0.00103012 0 -0.000263967)
(0.00105027 0 -0.000162413)
(0.00106532 0 -8.93226e-05)
(0.0010853 0 -4.58531e-05)
(0.00107146 0 -6.62478e-05)
(0.00102482 0 -8.79198e-05)
(0.000991193 0 0.000172631)
(0.000981333 0 0.000183759)
(0.00090458 0 0.000395048)
(0.000894676 0 0.000432667)
(0.000855926 0 0.000486317)
(0.000768146 0 0.000603569)
(0.000738747 0 0.000647452)
(0.000722511 0 0.00066608)
(0.000718802 0 0.000633754)
(0.000706985 0 0.000569296)
(0.000697973 0 0.000460456)
(0.00066645 0 0.000355323)
(0.000620913 0 0.000332074)
(0.000596255 0 0.000343716)
(0.000588273 0 0.000321496)
(0.000570397 0 0.00029715)
(0.000538297 0 0.000297702)
(0.000527284 0 0.000243867)
(0.000474055 0 0.000253234)
(0.000402542 0 0.00033302)
(0.000352487 0 0.000376342)
(0.000264782 0 0.000430055)
(0.000298192 0 0.000490796)
(-0.000121038 0 0.000535552)
(4.83686e-06 0 0.000116738)
(-4.57817e-12 0 -2.72993e-13)
(-9.44583e-12 0 -4.33786e-13)
(-8.17556e-12 0 -8.40379e-13)
(-7.96973e-12 0 -1.26998e-12)
(-7.66564e-12 0 -1.70344e-12)
(-7.27443e-12 0 -2.11726e-12)
(-6.80614e-12 0 -2.49322e-12)
(-6.2718e-12 0 -2.81801e-12)
(-5.68354e-12 0 -3.08232e-12)
(-5.05481e-12 0 -3.28017e-12)
(-4.40002e-12 0 -3.40861e-12)
(-3.73393e-12 0 -3.46746e-12)
(-3.07098e-12 0 -3.45913e-12)
(-2.42462e-12 0 -3.38824e-12)
(-1.80683e-12 0 -3.26124e-12)
(-1.22766e-12 0 -3.08591e-12)
(-6.95112e-13 0 -2.87083e-12)
(-2.15003e-13 0 -2.62489e-12)
(2.08913e-13 0 -2.35686e-12)
(5.74823e-13 0 -2.07503e-12)
(8.82607e-13 0 -1.78693e-12)
(1.13355e-12 0 -1.49917e-12)
(1.33005e-12 0 -1.2173e-12)
(1.47528e-12 0 -9.4582e-13)
(1.573e-12 0 -6.88228e-13)
(1.6273e-12 0 -4.47078e-13)
(1.6424e-12 0 -2.24106e-13)
(1.62252e-12 0 -2.03392e-14)
(1.57175e-12 0 1.63774e-13)
(1.49397e-12 0 3.28238e-13)
(1.39281e-12 0 4.7339e-13)
(1.27164e-12 0 5.99794e-13)
(1.13357e-12 0 7.08149e-13)
(9.8144e-13 0 7.99211e-13)
(8.17849e-13 0 8.73732e-13)
(6.45186e-13 0 9.32411e-13)
(4.65659e-13 0 9.75853e-13)
(2.81334e-13 0 1.00454e-12)
(9.41109e-14 0 1.0188e-12)
(-0.000139841 0 0.000908469)
(-0.000169459 0 0.000933282)
(-0.000234539 0 0.000870151)
(-0.000529917 0 0.000752806)
(-0.000535561 0 0.000762127)
(-0.000623324 0 0.000698063)
(-0.000778443 0 0.000543059)
(-0.000809883 0 0.000495247)
(-0.00090826 0 0.000279012)
(-0.000915176 0 0.000226087)
(-0.000934205 0 0.000147702)
(-0.000947391 0 5.32138e-05)
(-0.000981982 0 -9.29415e-05)
(-0.00101848 0 1.24366e-05)
(-0.00103038 0 -8.24288e-05)
(-0.00105073 0 -9.79263e-05)
(-0.00106051 0 -0.000119847)
(-0.00106836 0 -0.000150325)
(-0.00107207 0 -0.000156621)
(-0.000943785 0 -0.000466725)
(-0.000833273 0 -0.000517781)
(-0.000749204 0 -0.000549108)
(-0.000570961 0 -0.000721339)
(-0.000407064 0 -0.000847894)
(-0.000307105 0 -0.00088908)
(-0.000230474 0 -0.000901229)
(-0.000124444 0 -0.000911093)
(-0.000114929 0 -0.000931844)
(-7.84363e-05 0 -0.000946838)
(-6.14193e-05 0 -0.00095442)
(8.98147e-05 0 -0.00095821)
(3.82794e-05 0 -0.00100256)
(0.000268109 0 -0.000961348)
(0.000487597 0 -0.000776758)
(0.000491072 0 -0.000654619)
(0.000626588 0 -0.000392785)
(0.000595798 0 -0.000351229)
(0.000550697 0 -0.000377553)
(0.000570656 0 -0.000335254)
(0.000612875 0 -0.000209831)
(0.000624317 0 -0.000114886)
(0.000622704 0 -7.97276e-05)
(0.000624228 0 -8.6566e-05)
(0.000673083 0 -6.36435e-06)
(0.000689089 0 -0.000122216)
(0.000679278 0 -0.000251065)
(0.000692925 0 -0.000314612)
(0.000755307 0 -0.000267707)
(0.000786482 0 -0.000240541)
(0.000778678 0 -0.000260701)
(0.000769326 0 -0.000284571)
(0.000767567 0 -0.000261407)
(0.000773885 0 -0.000157869)
(0.000753874 0 -6.77025e-06)
(0.000720436 0 0.000200878)
(0.000669659 0 0.000281416)
(0.000620952 0 0.000382585)
(0.000636742 0 0.000375242)
(0.000672978 0 0.000379375)
(0.000494681 0 0.00059747)
(0.000547841 0 0.000594847)
(0.000551574 0 0.000634045)
(0.000557121 0 0.000672446)
(0.000568797 0 0.000680068)
(0.000605381 0 0.000632978)
(0.000631792 0 0.000559342)
(0.000633538 0 0.000476128)
(0.000622028 0 0.000406444)
(0.000600898 0 0.000368436)
(0.000585247 0 0.000365157)
(0.000591185 0 0.000334165)
(0.000591183 0 0.000304402)
(0.000565159 0 0.000328254)
(0.000584623 0 0.000228902)
(0.000548052 0 0.000224459)
(0.000425806 0 0.000385868)
(0.000403872 0 0.00041963)
(0.000314789 0 0.000481651)
(0.000311217 0 0.000541758)
(-8.51343e-05 0 0.000588617)
(4.5096e-06 0 0.000279607)
(-4.71831e-12 0 -3.25993e-13)
(-9.91958e-12 0 -4.86981e-13)
(-8.64697e-12 0 -9.8441e-13)
(-8.45028e-12 0 -1.52857e-12)
(-8.13295e-12 0 -2.06623e-12)
(-7.70781e-12 0 -2.57137e-12)
(-7.18955e-12 0 -3.02601e-12)
(-6.59333e-12 0 -3.41618e-12)
(-5.93487e-12 0 -3.7313e-12)
(-5.23099e-12 0 -3.96426e-12)
(-4.49933e-12 0 -4.11148e-12)
(-3.75764e-12 0 -4.1729e-12)
(-3.02308e-12 0 -4.15178e-12)
(-2.3114e-12 0 -4.05424e-12)
(-1.63634e-12 0 -3.88874e-12)
(-1.00915e-12 0 -3.6654e-12)
(-4.38384e-13 0 -3.39525e-12)
(7.00657e-14 0 -3.0896e-12)
(5.12835e-13 0 -2.75944e-12)
(8.88843e-13 0 -2.41503e-12)
(1.19896e-12 0 -2.06554e-12)
(1.4456e-12 0 -1.71887e-12)
(1.63236e-12 0 -1.38154e-12)
(1.76358e-12 0 -1.0587e-12)
(1.8441e-12 0 -7.54226e-13)
(1.87898e-12 0 -4.7083e-13)
(1.8733e-12 0 -2.10229e-13)
(1.83195e-12 0 2.66938e-14)
(1.75958e-12 0 2.39722e-13)
(1.66049e-12 0 4.29147e-13)
(1.53861e-12 0 5.95624e-13)
(1.39749e-12 0 7.40039e-13)
(1.24033e-12 0 8.63403e-13)
(1.06997e-12 0 9.66761e-13)
(8.88996e-13 0 1.05112e-12)
(6.99687e-13 0 1.11741e-12)
(5.04128e-13 0 1.16639e-12)
(3.04228e-13 0 1.1987e-12)
(1.01711e-13 0 1.21474e-12)
(-0.000163262 0 0.00100215)
(-0.000273978 0 0.00101261)
(-0.000416254 0 0.000958496)
(-0.000425962 0 0.000959427)
(-0.000585354 0 0.000866756)
(-0.000823245 0 0.00060458)
(-0.00066009 0 0.000734487)
(-0.000843602 0 0.000455809)
(-0.000856703 0 0.000384666)
(-0.000910234 0 0.000219108)
(-0.000905332 0 0.000179539)
(-0.000943177 0 7.15811e-06)
(-0.00095875 0 3.33006e-05)
(-0.000965709 0 -6.40249e-05)
(-0.000978943 0 -0.000122816)
(-0.000998414 0 -6.55404e-05)
(-0.000985124 0 -0.000123754)
(-0.000967765 0 -0.000192486)
(-0.000944158 0 -0.000261616)
(-0.000808352 0 -0.000567469)
(-0.000737892 0 -0.000632767)
(-0.000577519 0 -0.000783868)
(-0.000456068 0 -0.000894562)
(-0.00036708 0 -0.000941338)
(-0.000208264 0 -0.000992044)
(-0.000181377 0 -0.000998335)
(-5.17706e-05 0 -0.000961334)
(-9.58705e-05 0 -0.000936747)
(-8.78602e-05 0 -0.000958034)
(-7.44156e-05 0 -0.000969324)
(-7.80081e-05 0 -0.00101811)
(-3.79014e-05 0 -0.00109936)
(0.000165547 0 -0.00113722)
(0.000275232 0 -0.000941091)
(0.000370733 0 -0.000678199)
(0.000439751 0 -0.000448251)
(0.000413797 0 -0.000368419)
(0.000467815 0 -0.000310848)
(0.000459075 0 -0.000307089)
(0.00045135 0 -0.00027102)
(0.000473086 0 -0.000175219)
(0.000471304 0 -0.000141845)
(0.000470267 0 -0.000144173)
(0.000485883 0 -0.000151236)
(0.000501833 0 -0.000199708)
(0.000563482 0 -0.000148452)
(0.000576532 0 -0.00017612)
(0.00056244 0 -0.000225897)
(0.000557764 0 -0.000245687)
(0.000537404 0 -0.000275039)
(0.00052865 0 -0.000257074)
(0.000502158 0 -0.000234356)
(0.000522408 0 -0.000153565)
(0.00051356 0 -0.000146301)
(0.00053371 0 -3.91056e-05)
(0.000532979 0 4.72979e-05)
(0.000569503 0 1.95792e-05)
(0.000507946 0 0.000281328)
(0.000372358 0 0.000440881)
(0.000476053 0 0.000415832)
(0.00039457 0 0.00055691)
(0.000411819 0 0.000612612)
(0.000398516 0 0.000673934)
(0.000489544 0 0.000620276)
(0.000515561 0 0.000597221)