/*--------------------------------*- C++ -*----------------------------------*\
  =========                 |
  \\      /  F ield         | OpenFOAM: The Open Source CFD Toolbox
   \\    /   O peration     | Website:  https://openfoam.org
    \\  /    A nd           | Version:  6
     \\/     M anipulation  |
\*---------------------------------------------------------------------------*/
FoamFile
{
    version     2.0;
    format      ascii;
    class       volScalarField;
    location    "210";
    object      Su;
}
// * * * * * * * * * * * * * * * * * * * * * * * * * * * * * * * * * * * * * //

dimensions      [0 0 -1 0 0 0 0];

internalField   nonuniform List<scalar> 
5964
(
0.35651
0.305768
0.26261
0.227639
0.199461
0.175947
0.155295
0.136112
0.117075
0.097374
0.0769156
0.0314269
0.057541
0.0582686
0.0579765
0.0570687
0.0557962
0.0543072
0.0526894
0.050996
0.0492609
0.047507
0.0457506
0.0440041
0.0422769
0.0405762
0.0389077
0.0372754
0.0356824
0.0341305
0.0326209
0.0311542
0.0297302
0.0283486
0.0270087
0.0257097
0.0244506
0.0232304
0.0220481
0.0209026
0.0197929
0.0187181
0.0176773
0.0166694
0.0156937
0.0147494
0.0138357
0.0129518
0.0120971
0.011271
0.0104727
0.00970167
0.00895743
0.00823943
0.00754719
0.00688026
0.00623826
0.0056208
0.00502756
0.00445823
0.00391255
0.00339028
0.00289123
0.00241523
0.00196212
0.0015318
0.00112417
0.000739156
0.000376715
3.68111e-05
-0.000280571
-0.000575434
-0.000847769
-0.00109756
-0.00132478
-0.0015294
-0.00171139
-0.00187072
-0.00200734
-0.00212124
-0.00221238
-0.00228073
-0.0023263
-0.00234907
0.356874
0.307015
0.264358
0.229333
0.200842
0.176938
0.155926
0.136472
0.117546
0.0982644
0.0783382
0.0320683
0.0589665
0.0592175
0.0585667
0.0574362
0.0560342
0.0544711
0.0528101
0.0510904
0.0493381
0.0475721
0.0458066
0.0440526
0.042319
0.0406128
0.0389392
0.0373024
0.0357053
0.0341498
0.032637
0.0311674
0.0297409
0.0283572
0.0270154
0.0257148
0.0244543
0.0232329
0.0220496
0.0209032
0.0197929
0.0187174
0.017676
0.0166678
0.0156917
0.0147471
0.0138332
0.0129491
0.0120943
0.011268
0.0104696
0.00969856
0.00895427
0.00823624
0.00754398
0.00687706
0.00623507
0.00561763
0.00502441
0.00445511
0.00390947
0.00338724
0.00288824
0.00241228
0.00195922
0.00152895
0.00112137
0.000736404
0.00037401
3.41529e-05
-0.000283185
-0.000578005
-0.000850301
-0.00110005
-0.00132724
-0.00153183
-0.00171379
-0.00187309
-0.00200969
-0.00212357
-0.00221469
-0.00228304
-0.00232859
-0.00235134
0.357791
0.309342
0.26734
0.232363
0.203459
0.178907
0.157271
0.137466
0.118583
0.0998535
0.081184
0.0336095
0.0619743
0.0610065
0.0596233
0.0580852
0.0564585
0.054769
0.0530342
0.0512689
0.0494863
0.0476986
0.0459161
0.044148
0.0424022
0.0406851
0.0390017
0.0373561
0.035751
0.0341883
0.0326692
0.0311939
0.0297625
0.0283744
0.0270289
0.0257251
0.0244618
0.0232381
0.0220527
0.0209047
0.0197929
0.0187162
0.0176738
0.0166647
0.015688
0.0147428
0.0138284
0.0129439
0.0120888
0.0112623
0.0104637
0.0096925
0.00894812
0.00823002
0.00753774
0.00687081
0.00622883
0.00561143
0.00501826
0.00444903
0.00390346
0.00338132
0.0028824
0.00240653
0.00195357
0.0015234
0.00111591
0.000731043
0.000368744
2.89789e-05
-0.00028827
-0.000583006
-0.000855221
-0.0011049
-0.00133202
-0.00153654
-0.00171845
-0.00187769
-0.00201425
-0.00212809
-0.00221918
-0.0022875
-0.00233303
-0.00235577
0.35877
0.311853
0.270654
0.235881
0.206833
0.181734
0.159335
0.138732
0.119453
0.101404
0.0850622
0.0721146
0.0664211
0.0631973
0.060851
0.0588473
0.0569756
0.0551486
0.0533314
0.0515131
0.0496938
0.0478783
0.0460734
0.0442861
0.0425232
0.0407907
0.0390933
0.0374348
0.0358181
0.034245
0.0327166
0.0312331
0.0297944
0.0283999
0.0270489
0.0257403
0.024473
0.0232458
0.0220574
0.0209069
0.0197929
0.0187145
0.0176706
0.0166602
0.0156824
0.0147364
0.0138213
0.0129363
0.0120807
0.0112538
0.0104549
0.00968352
0.00893899
0.00822081
0.00752847
0.00686154
0.00621958
0.00560223
0.00500914
0.00444
0.00389454
0.00337252
0.00287373
0.002398
0.00194518
0.00151515
0.00110781
0.000723085
0.000360927
2.12994e-05
-0.000295817
-0.000590426
-0.000862522
-0.00111209
-0.0013391
-0.00154353
-0.00172535
-0.00188452
-0.00202102
-0.0021348
-0.00222585
-0.00229413
-0.00233964
-0.00236236
0.359857
0.314734
0.27462
0.240272
0.211153
0.185389
0.161953
0.140175
0.11999
0.101733
0.0861271
0.075474
0.0687153
0.0646383
0.0618
0.0595176
0.0574816
0.0555523
0.0536677
0.0518018
0.0499463
0.0481015
0.0462712
0.0444614
0.0426778
0.0409262
0.0392111
0.0375365
0.035905
0.0343185
0.032778
0.0312839
0.0298358
0.0284331
0.0270749
0.0257602
0.0244875
0.0232557
0.0220635
0.0209097
0.0197929
0.0187122
0.0176663
0.0166543
0.0156751
0.0147279
0.0138119
0.0129261
0.0120699
0.0112425
0.0104433
0.00967164
0.00892693
0.00820862
0.00751622
0.00684928
0.00620735
0.00559007
0.00499707
0.00442805
0.00388273
0.00336087
0.00286226
0.00238671
0.00193407
0.00150423
0.00109708
0.000712547
0.000350575
1.11282e-05
-0.000305814
-0.000600257
-0.000872195
-0.00112161
-0.00134849
-0.0015528
-0.0017345
-0.00189358
-0.00202998
-0.00214369
-0.00223468
-0.00230292
-0.00234839
-0.0023711
0.360845
0.317494
0.278733
0.245123
0.215977
0.189537
0.164975
0.141562
0.119429
0.0994817
0.0830148
0.0743009
0.0686535
0.0649962
0.0622686
0.0599831
0.0579101
0.0559388
0.0540155
0.0521156
0.0502299
0.0483574
0.0465015
0.0446674
0.0428608
0.0410873
0.0393518
0.0376582
0.0360092
0.0344068
0.032852
0.0313451
0.0298857
0.0284731
0.0271063
0.0257841
0.024505
0.0232677
0.0220708
0.0209129
0.0197928
0.0187091
0.0176609
0.0166468
0.015666
0.0147174
0.0138002
0.0129135
0.0120566
0.0112286
0.0104289
0.00965692
0.00891196
0.0081935
0.00750102
0.00683406
0.00619217
0.00557496
0.00498209
0.00441322
0.00386807
0.00334641
0.002848
0.00237267
0.00192027
0.00149066
0.00108375
0.000699446
0.000337703
-1.52087e-06
-0.000318248
-0.000612486
-0.00088423
-0.00113347
-0.00136018
-0.00156433
-0.0017459
-0.00190485
-0.00204115
-0.00215477
-0.00224568
-0.00231386
-0.0023593
-0.00238199
0.361914
0.320521
0.283126
0.250123
0.221052
0.194146
0.168432
0.143167
0.118297
0.0941288
0.0732388
0.0693971
0.0668299
0.064528
0.0623427
0.0602597
0.0582524
0.0562925
0.0543591
0.0524406
0.0505327
0.0486365
0.0467562
0.0448974
0.0430666
0.0412695
0.0395115
0.0377967
0.0361281
0.0345078
0.0329367
0.0314152
0.029943
0.0285191
0.0271424
0.0258115
0.024525
0.0232813
0.0220789
0.0209164
0.0197923
0.0187053
0.0176542
0.0166378
0.015655
0.0147048
0.0137863
0.0128985
0.0120407
0.011212
0.0104118
0.00963938
0.00889414
0.0081755
0.00748292
0.00681593
0.00617409
0.00555697
0.00496423
0.00439554
0.0038506
0.00332916
0.002831
0.00235594
0.0019038
0.00147447
0.00106783
0.000683802
0.000322329
-1.66323e-05
-0.000333106
-0.000627103
-0.000898619
-0.00114764
-0.00137415
-0.00157813
-0.00175953
-0.00191834
-0.00205451
-0.00216803
-0.00225886
-0.00232698
-0.00237237
-0.00239504
0.36301
0.323575
0.287594
0.255411
0.226512
0.199104
0.17233
0.145503
0.117842
0.0854064
0.0334321
0.0625725
0.0647519
0.0639354
0.0623072
0.0604537
0.0585422
0.0566185
0.0546932
0.0527682
0.0508458
0.0489302
0.0470276
0.0451449
0.0432894
0.0414679
0.0396861
0.0379486
0.0362588
0.0346189
0.0330301
0.0314927
0.0300062
0.0285698
0.0271821
0.0258417
0.0245469
0.0232961
0.0220876
0.0209199
0.0197914
0.0187006
0.0176463
0.0166273
0.0156422
0.0146902
0.0137701
0.0128811
0.0120222
0.0111928
0.010392
0.00961908
0.00887352
0.00815466
0.00746197
0.00679496
0.00615315
0.00553614
0.00494356
0.00437506
0.00383035
0.00330917
0.0028113
0.00233653
0.0018847
0.00145568
0.00104935
0.00066564
0.000304474
-3.41886e-05
-0.000350374
-0.000644095
-0.000915351
-0.00116413
-0.00139042
-0.00159418
-0.0017754
-0.00193405
-0.00207008
-0.00218348
-0.00227421
-0.00234226
-0.0023876
-0.00241024
0.363965
0.32615
0.291316
0.259795
0.230833
0.202933
0.175583
0.148288
0.12071
0.0933994
0.0700335
0.0663578
0.0652806
0.0640226
0.0624364
0.0606684
0.0588173
0.0569278
0.0550171
0.0530932
0.0511623
0.0492315
0.047309
0.0454036
0.0435239
0.0416776
0.0398712
0.0381102
0.0363982
0.0347377
0.0331301
0.0315757
0.030074
0.0286242
0.0272247
0.025874
0.0245702
0.0233117
0.0220966
0.0209231
0.0197897
0.0186949
0.0176371
0.0166151
0.0156276
0.0146735
0.0137517
0.0128613
0.0120013
0.011171
0.0103695
0.00959609
0.00885015
0.00813106
0.00743824
0.00677118
0.00612942
0.00551253
0.00492011
0.00435183
0.00380738
0.00328649
0.00278892
0.00231448
0.001863
0.00143432
0.00102835
0.000644984
0.00028416
-5.41702e-05
-0.000370035
-0.00066345
-0.000934417
-0.00118293
-0.00140896
-0.0016125
-0.00179352
-0.00195198
-0.00208785
-0.00220112
-0.00229174
-0.00235971
-0.002405
-0.00242762
0.364751
0.328218
0.294184
0.263072
0.234028
0.205857
0.178271
0.150898
0.123458
0.0963832
0.0731068
0.0678259
0.0659242
0.0643509
0.0626782
0.0609113
0.0590866
0.0572231
0.0553294
0.0534115
0.0514768
0.0495344
0.0475946
0.0456679
0.0437646
0.0418937
0.0400628
0.0382778
0.0365431
0.0348614
0.0332344
0.0316623
0.0301449
0.028681
0.0272691
0.0259075
0.0245943
0.0233276
0.0221053
0.0209258
0.0197872
0.0186879
0.0176264
0.0166012
0.015611
0.0146547
0.0137311
0.0128392
0.011978
0.0111467
0.0103444
0.00957047
0.00882412
0.00810476
0.00741179
0.00674469
0.00610297
0.0054862
0.00489396
0.00432592
0.00378174
0.00326116
0.00276394
0.00228986
0.00183874
0.00141045
0.00100485
0.000621864
0.000261412
-7.65551e-05
-0.000392071
-0.000685153
-0.000955805
-0.00120402
-0.00142978
-0.00163307
-0.00181386
-0.00197213
-0.00210783
-0.00222095
-0.00231146
-0.00237934
-0.00242458
-0.00244716
0.365174
0.329437
0.295954
0.265022
0.235828
0.207543
0.180003
0.152848
0.125379
0.0959997
0.0374586
0.0662738
0.066218
0.0647039
0.0629412
0.0611464
0.0593364
0.057499
0.0556265
0.0537196
0.0517852
0.0498343
0.0478792
0.0459328
0.0440069
0.042112
0.0402568
0.0384479
0.0366905
0.0349875
0.0333408
0.0317508
0.0302172
0.0287389
0.0273143
0.0259415
0.0246185
0.0233432
0.0221136
0.0209277
0.0197837
0.0186797
0.0176142
0.0165856
0.0155927
0.014634
0.0137084
0.0128148
0.0119523
0.01112
0.0103169
0.0095423
0.00879551
0.00807585
0.00738272
0.00671556
0.00607388
0.00545723
0.00486518
0.00429739
0.00375351
0.00323326
0.00273639
0.00226269
0.00181197
0.00138408
0.000978896
0.000596314
0.00023626
-0.00010132
-0.000416462
-0.000709187
-0.000979502
-0.0012274
-0.00145288
-0.0016559
-0.00183645
-0.0019945
-0.00213003
-0.002243
-0.00233338
-0.00240117
-0.00244634
-0.0024689
0.365308
0.329951
0.296721
0.265648
0.236252
0.20804
0.180795
0.154228
0.127815
0.101268
0.0733195
0.071136
0.0677104
0.0651959
0.0631567
0.0613226
0.0595433
0.0577466
0.0559052
0.0540152
0.052085
0.0501278
0.0481591
0.046194
0.0442464
0.0423282
0.0404493
0.0386171
0.0368373
0.0351132
0.033447
0.0318393
0.0302896
0.0287968
0.0273593
0.0259752
0.0246422
0.0233582
0.0221211
0.0209286
0.0197789
0.0186701
0.0176004
0.0165684
0.0155724
0.0146112
0.0136835
0.0127883
0.0119244
0.0110909
0.0102869
0.00951168
0.00876441
0.00804442
0.0073511
0.00668388
0.00604223
0.0054257
0.00483385
0.00426631
0.00372274
0.00320284
0.00270635
0.00223305
0.00178275
0.00135528
0.000950523
0.000568367
0.000208733
-0.000128438
-0.000443187
-0.000735537
-0.0010055
-0.00125307
-0.00147823
-0.00168098
-0.00186128
-0.00201911
-0.00215444
-0.00226725
-0.00235751
-0.0024252
-0.00247031
-0.00249283
0.3654
0.33012
0.296738
0.265333
0.235663
0.207496
0.180648
0.154801
0.129663
0.10559
0.0850269
0.074112
0.068275
0.0651721
0.0631023
0.0613655
0.0596861
0.0579627
0.0561665
0.0542995
0.0523755
0.050413
0.0484312
0.046448
0.0444794
0.0425387
0.0406369
0.0387822
0.0369807
0.0352363
0.0335511
0.0319259
0.0303604
0.0288534
0.0274032
0.0260078
0.0246649
0.0233721
0.0221273
0.0209282
0.0197728
0.018659
0.0175851
0.0165493
0.0155503
0.0145865
0.0136567
0.0127596
0.0118942
0.0110596
0.0102547
0.00947871
0.00873091
0.00801057
0.00731704
0.00664974
0.00600812
0.0053917
0.00480005
0.00423277
0.00368951
0.00316997
0.00267387
0.00220098
0.00175111
0.00132409
0.000919776
0.000538063
0.000178864
-0.000157884
-0.000472225
-0.000764186
-0.00103378
-0.001281
-0.00150585
-0.00170831
-0.00188835
-0.00204595
-0.00218109
-0.00229373
-0.00238385
-0.00245144
-0.00249648
-0.00251897
0.365433
0.330106
0.296437
0.264462
0.234276
0.205977
0.179407
0.154272
0.130161
0.107082
0.0864085
0.0713491
0.0663147
0.0641342
0.0626534
0.06126
0.0597757
0.0581601
0.0564199
0.0545773
0.0526585
0.0506894
0.0486936
0.046692
0.0447026
0.0427402
0.0408164
0.0389402
0.0371181
0.0353543
0.033651
0.0320092
0.0304284
0.0289077
0.0274451
0.0260386
0.0246859
0.0233845
0.022132
0.0209263
0.019765
0.0186462
0.017568
0.0165286
0.0155264
0.0145599
0.0136278
0.0127289
0.011862
0.0110261
0.0102202
0.00944349
0.00869514
0.00797442
0.00728066
0.00661325
0.00597165
0.00535534
0.00476388
0.00419686
0.00365391
0.00313473
0.00263903
0.00216656
0.00171713
0.00129056
0.000886701
0.00050544
0.000146686
-0.000189629
-0.000503553
-0.000795116
-0.00106433
-0.00131121
-0.00153573
-0.0017379
-0.00191767
-0.00207504
-0.00220997
-0.00232244
-0.00241244
-0.00247992
-0.0025249
-0.00254735
0.365521
0.330038
0.295748
0.263004
0.232252
0.203808
0.177415
0.152744
0.129236
0.106155
0.0830621
0.0454355
0.0617359
0.0623665
0.06201
0.0611199
0.0598744
0.0583726
0.056683
0.0548575
0.0529375
0.0509572
0.0489447
0.0469236
0.0449134
0.0429297
0.0409851
0.0390887
0.0372473
0.0354652
0.033745
0.0320875
0.0304924
0.0289585
0.0274841
0.026067
0.0247047
0.0233949
0.022135
0.0209227
0.0197556
0.0186318
0.0175492
0.0165061
0.0155007
0.0145315
0.0135971
0.0126963
0.0118278
0.0109906
0.0101837
0.00940616
0.00865721
0.00793608
0.00724206
0.00657454
0.00593292
0.00531671
0.00472543
0.00415866
0.00361603
0.0030972
0.0026019
0.00212986
0.00168087
0.00125475
0.000851345
0.00047054
0.000112234
-0.000223644
-0.000537148
-0.00082831
-0.00109715
-0.00134367
-0.00156787
-0.00176974
-0.00194925
-0.00210638
-0.00224111
-0.00235342
-0.00244327
-0.00251066
-0.00255556
-0.00257798
0.365292
0.3293
0.294282
0.260636
0.22909
0.200317
0.174134
0.150073
0.127357
0.104718
0.0809143
0.0429643
0.0593608
0.0613249
0.0616882
0.0611523
0.0600726
0.0586417
0.0569751
0.0551484
0.0532153
0.0512164
0.049183
0.0471405
0.045109
0.0431047
0.0411403
0.0392252
0.037366
0.0355673
0.0338315
0.0321596
0.0305511
0.0290051
0.0275195
0.0260923
0.024721
0.023403
0.0221359
0.0209171
0.0197445
0.0186157
0.0175288
0.0164819
0.0154733
0.0145013
0.0135646
0.0126618
0.0117917
0.0109531
0.0101452
0.00936683
0.00861726
0.00789568
0.00720138
0.0065337
0.00589207
0.00527593
0.00468481
0.00411828
0.00357595
0.00305747
0.00256255
0.00209093
0.00164238
0.00121671
0.000813758
0.000433405
7.55441e-05
-0.000259902
-0.000572989
-0.000863754
-0.00113222
-0.00137839
-0.00160227
-0.00180385
-0.0019831
-0.00214
-0.00227453
-0.00238667
-0.00247639
-0.00254368
-0.00258851
-0.0026109
0.365071
0.328344
0.292203
0.25736
0.224801
0.195616
0.169836
0.146734
0.125134
0.103512
0.0804292
0.0428054
0.0593757
0.0614821
0.0619528
0.0614805
0.0604255
0.0589917
0.0573062
0.0554533
0.0534921
0.0514655
0.0494064
0.0473401
0.045287
0.0432628
0.04128
0.0393477
0.0374726
0.035659
0.0339092
0.0322243
0.0306038
0.0290466
0.0275508
0.0261142
0.0247343
0.0234086
0.0221346
0.0209097
0.0197315
0.0185979
0.0175067
0.0164561
0.0154442
0.0144695
0.0135304
0.0126256
0.0117539
0.010914
0.0101049
0.00932567
0.00857543
0.00785337
0.00715875
0.00649089
0.0058492
0.00523312
0.00464214
0.00407583
0.00353378
0.00301563
0.00252109
0.00204986
0.00160173
0.0011765
0.000773992
0.000394079
3.66515e-05
-0.000298373
-0.000611054
-0.000901433
-0.00116954
-0.00141537
-0.00163894
-0.00184023
-0.00201922
-0.0021759
-0.00231024
-0.00242222
-0.00251182
-0.00257901
-0.00262378
-0.00264613
0.364449
0.326453
0.289105
0.25325
0.220273
0.191246
0.16561
0.142829
0.122339
0.102491
0.081628
0.044868
0.0616676
0.0627509
0.0627509
0.0620763
0.0609179
0.0594136
0.0576702
0.0557675
0.0537636
0.051701
0.0496115
0.0475197
0.0454448
0.0434017
0.0414021
0.0394546
0.0375655
0.0357389
0.0339771
0.0322807
0.0306496
0.0290824
0.0275773
0.0261321
0.0247444
0.0234115
0.0221309
0.0209001
0.0197167
0.0185784
0.017483
0.0164288
0.0154137
0.0144362
0.0134948
0.012588
0.0117145
0.0108732
0.0100629
0.00928282
0.00853187
0.00780929
0.00711431
0.00644624
0.00580446
0.00518839
0.00459753
0.00403141
0.00348961
0.00297177
0.00247757
0.00200673
0.001559
0.00113418
0.000732098
0.000352606
-4.4078e-06
-0.000339029
-0.000651323
-0.000941334
-0.00120909
-0.0014546
-0.00167788
-0.0018789
-0.00205765
-0.00221412
-0.00234828
-0.00246011
-0.00254958
-0.00261668
-0.0026614
-0.00268372
0.363815
0.324522
0.285856
0.248879
0.215122
0.186033
0.161261
0.139457
0.11978
0.101648
0.0844284
0.0700666
0.0657656
0.064476
0.0637235
0.0627706
0.0614713
0.0598688
0.0580463
0.0560785
0.0540217
0.051917
0.0497942
0.0476761
0.0455799
0.0435193
0.0415049
0.0395445
0.0376437
0.0358062
0.0340342
0.0323282
0.0306879
0.029112
0.0275988
0.026146
0.0247511
0.0234116
0.0221249
0.0208885
0.0197
0.0185572
0.0174579
0.0164
0.0153818
0.0144016
0.0134578
0.0125489
0.0116737
0.0108309
0.0100195
0.00923844
0.00848674
0.00776359
0.00706821
0.00639989
0.00575798
0.00514189
0.0045511
0.00398513
0.00344355
0.00292599
0.00243211
0.00196162
0.00151426
0.00108982
0.00068813
0.000309029
-4.75986e-05
-0.000381844
-0.000693778
-0.000983447
-0.00125088
-0.0014961
-0.0017191
-0.00191987
-0.00209841
-0.00225468
-0.00238868
-0.00250037
-0.00258973
-0.00265675
-0.00270141
-0.00272371
0.363028
0.322252
0.282427
0.244925
0.211351
0.182898
0.158929
0.13809
0.119172
0.101155
0.0843708
0.0713716
0.066432
0.0650405
0.0643178
0.0633542
0.0619959
0.060313
0.0584096
0.0563709
0.0542565
0.0521069
0.0499499
0.0478059
0.04569
0.043614
0.0415871
0.0396162
0.0377061
0.0358601
0.03408
0.0323662
0.0307184
0.0291353
0.027615
0.0261555
0.0247542
0.0234087
0.0221164
0.0208749
0.0196817
0.0185345
0.0174313
0.01637
0.0153487
0.0143657
0.0134195
0.0125086
0.0116317
0.0107874
0.0099748
0.00919271
0.00844022
0.00771645
0.00702062
0.00635199
0.0057099
0.00509374
0.00450298
0.00393712
0.00339572
0.00287839
0.00238478
0.0019146
0.00146757
0.00104348
0.000642139
0.000263392
-9.28868e-05
-0.000426794
-0.000738402
-0.00102776
-0.00129491
-0.00153986
-0.00176262
-0.00196317
-0.00214152
-0.00229762
-0.00243147
-0.00254305
-0.00263231
-0.00269926
-0.00274388
-0.00276615
0.362411
0.320491
0.279862
0.242256
0.209464
0.182084
0.159015
0.138562
0.119195
0.100092
0.0807418
0.0633792
0.0630042
0.0641826
0.064463
0.0637985
0.062469
0.0607255
0.0587429
0.0566317
0.0544585
0.0522641
0.0500741
0.0479061
0.0457729
0.0436843
0.0416478
0.0396691
0.0377523
0.0359002
0.0341142
0.0323946
0.0307409
0.0291519
0.0276259
0.0261606
0.0247538
0.0234029
0.0221056
0.0208593
0.0196617
0.0185104
0.0174035
0.0163388
0.0153145
0.0143289
0.0133803
0.0124674
0.0115886
0.0107429
0.00992896
0.00914581
0.00839247
0.00766803
0.00697169
0.0063027
0.00566037
0.0050441
0.00445331
0.0038875
0.00334622
0.00282907
0.00233569
0.00186576
0.00141901
0.000995216
0.000594179
0.000215737
-0.00014024
-0.000473854
-0.000785183
-0.00107428
-0.00134118
-0.00158591
-0.00180846
-0.00200883
-0.00218701
-0.00234298
-0.00247671
-0.00258819
-0.00267738
-0.00274427
-0.00278885
-0.0028111
0.36176
0.318761
0.27782
0.241015
0.209586
0.183749
0.162015
0.142269
0.122681
0.101569
0.0762838
0.0351028
0.0572193
0.0632588
0.0647493
0.0643161
0.0629532
0.0611163
0.0590406
0.0568523
0.0546204
0.0523832
0.050163
0.0479743
0.0458272
0.0437291
0.0416862
0.0397027
0.0377821
0.0359263
0.0341367
0.0324132
0.0307554
0.0291621
0.0276314
0.0261614
0.0247499
0.0233944
0.0220926
0.0208419
0.0196402
0.0184851
0.0173746
0.0163067
0.0152795
0.0142912
0.0133403
0.0124253
0.0115447
0.0106974
0.0098822
0.00909794
0.00834369
0.00761852
0.0069216
0.00625218
0.00560956
0.00499309
0.00440221
0.00383639
0.00329517
0.00277814
0.00228491
0.00181518
0.00136865
0.000945093
0.000544301
0.000166106
-0.000189627
-0.000523006
-0.00083411
-0.001123
-0.00138971
-0.00163425
-0.00185665
-0.00205688
-0.00223494
-0.0023908
-0.00252445
-0.00263586
-0.00272499
-0.00279184
-0.00283639
-0.00285863
0.361442
0.318349
0.278095
0.242411
0.212482
0.1883
0.167935
0.149103
0.129755
0.108386
0.0831675
0.04644
0.0622519
0.0656528
0.0661181
0.0651771
0.0635211
0.0614989
0.0592994
0.0570265
0.0547365
0.0524599
0.0502138
0.0480087
0.0458516
0.0437481
0.0417021
0.0397171
0.0377954
0.0359386
0.0341476
0.0324223
0.030762
0.0291658
0.0276318
0.0261582
0.0247428
0.0233833
0.0220775
0.020823
0.0196175
0.0184588
0.017345
0.0162739
0.0152438
0.014253
0.0132997
0.0123826
0.0115002
0.0106513
0.00983473
0.0090493
0.00829406
0.00756809
0.00687053
0.00620061
0.0055576
0.00494087
0.00434982
0.00378392
0.00324269
0.00272569
0.00223256
0.00176295
0.00131657
0.000893173
0.000492555
0.000114537
-0.000241022
-0.000574232
-0.000885178
-0.00117392
-0.0014405
-0.00168493
-0.00190722
-0.00210736
-0.00228535
-0.00244115
-0.00257475
-0.00268612
-0.00277523
-0.00284206
-0.00288659
-0.00290883
0.361344
0.318186
0.278538
0.244525
0.216889
0.194968
0.17614
0.15853
0.140188
0.120321
0.0989491
0.0793497
0.0732286
0.0703035
0.0682828
0.0662831
0.064131
0.061852
0.0595072
0.0571466
0.0548019
0.0524912
0.0502247
0.0480083
0.045846
0.043741
0.0416958
0.0397125
0.0377927
0.0359375
0.0341473
0.032422
0.0307611
0.0291634
0.0276273
0.026151
0.0247326
0.0233699
0.0220607
0.0208027
0.0195937
0.0184318
0.0173147
0.0162407
0.0152078
0.0142144
0.0132588
0.0123396
0.0114554
0.0106048
0.00978676
0.00900009
0.0082438
0.00751694
0.00681865
0.00614814
0.00550468
0.0048876
0.0042963
0.00373022
0.00318889
0.00267185
0.00217872
0.00170914
0.00126283
0.000839516
0.000438989
6.10666e-05
-0.000294398
-0.00062752
-0.000938385
-0.00122706
-0.00149357
-0.00173796
-0.00196021
-0.00216033
-0.0023383
-0.0024941
-0.00262769
-0.00273906
-0.00282817
-0.002895
-0.00293954
-0.00296178
0.361426
0.318877
0.280783
0.248882
0.223266
0.203177
0.185636
0.168968
0.151093
0.13164
0.111399
0.0929097
0.0806975
0.0739904
0.0701348
0.0672463
0.0646438
0.0621238
0.0596436
0.057204
0.0548127
0.0524753
0.0501949
0.047973
0.0458105
0.0437084
0.0416678
0.0396895
0.0377745
0.0359234
0.0341363
0.0324131
0.0307531
0.0291553
0.0276183
0.0261404
0.0247198
0.0233545
0.0220424
0.0207813
0.0195693
0.0184043
0.0172842
0.0162073
0.0151717
0.0141758
0.0132178
0.0122965
0.0114104
0.0105581
0.00973852
0.00895053
0.00819309
0.00746526
0.00676615
0.00609496
0.00545094
0.00483341
0.00424176
0.00367542
0.00313389
0.00261672
0.00212349
0.00165385
0.00120751
0.000784181
0.00038365
5.72857e-06
-0.000349735
-0.00068286
-0.000993734
-0.00128242
-0.00154896
-0.00179338
-0.00201567
-0.00221584
-0.00239386
-0.0025497
-0.00268335
-0.00279476
-0.00288391
-0.00295078
-0.00299534
-0.00301759
0.361999
0.320964
0.284675
0.25465
0.230963
0.212432
0.196119
0.180093
0.162218
0.142204
0.12072
0.0994362
0.082272
0.0750968
0.0709684
0.0677881
0.0649527
0.0622738
0.0596931
0.0571927
0.0547667
0.0524116
0.0501246
0.0479032
0.0457457
0.043651
0.0416188
0.0396489
0.0377416
0.0358971
0.0341153
0.032396
0.0307385
0.029142
0.0276053
0.0261267
0.0247047
0.0233375
0.022023
0.0207593
0.0195445
0.0183766
0.0172537
0.016174
0.0151358
0.0141373
0.0131771
0.0122536
0.0113654
0.0105114
0.00969023
0.00890083
0.00814216
0.00741325
0.00671322
0.00604124
0.00539656
0.00477848
0.00418637
0.00361965
0.00307782
0.00256039
0.00206696
0.00159716
0.00115067
0.000727224
0.000326582
-5.14468e-05
-0.000407016
-0.000740248
-0.00105123
-0.00134004
-0.0016067
-0.00185125
-0.00207367
-0.00227396
-0.00245211
-0.00260807
-0.00274183
-0.00285333
-0.00294257
-0.0030095
-0.0030541
-0.00307638
0.362734
0.323573
0.289553
0.261619
0.239637
0.222362
0.207108
0.191213
0.17296
0.151782
0.128024
0.102258
0.0468862
0.0735478
0.070915
0.0679561
0.0650666
0.0623017
0.0596548
0.0571127
0.0546645
0.0523009
0.0500146
0.0477999
0.0456526
0.0435698
0.0415499
0.0395917
0.037695
0.0358595
0.0340851
0.0323715
0.0307182
0.0291243
0.0275889
0.0261106
0.024688
0.0233193
0.022003
0.0207371
0.0195198
0.0183492
0.0172236
0.0161412
0.0151004
0.0140994
0.0131368
0.0122111
0.0113209
0.010465
0.00964214
0.00885123
0.00809121
0.00736112
0.00666004
0.00598716
0.00534169
0.00472294
0.00413025
0.00356305
0.00302078
0.00250299
0.00200923
0.00153914
0.00109239
0.000668699
0.000267823
-0.000110433
-0.000466228
-0.000799686
-0.0011109
-0.00139994
-0.00166683
-0.00191161
-0.00213426
-0.00233478
-0.00251313
-0.0026693
-0.00280323
-0.0029149
-0.00300426
-0.00307129
-0.00311596
-0.00313827
0.364
0.327334
0.295351
0.269109
0.248649
0.232393
0.217601
0.201424
0.182437
0.159924
0.134294
0.106339
0.0476217
0.0741114
0.0711909
0.0680762
0.0650772
0.062235
0.0595379
0.0569678
0.054508
0.0521445
0.0498661
0.0476643
0.0455324
0.043466
0.0414621
0.039519
0.0376356
0.0358117
0.0340467
0.0323406
0.0306928
0.0291028
0.0275698
0.0260926
0.02467
0.0233006
0.0219828
0.020715
0.0194954
0.0183224
0.0171943
0.0161092
0.0150658
0.0140623
0.0130972
0.0121693
0.011277
0.0104191
0.00959447
0.00880194
0.00804045
0.00730905
0.00660681
0.00593289
0.00528652
0.00466696
0.00407356
0.00350573
0.0029629
0.0024446
0.00195039
0.00147988
0.00103273
0.000608657
0.000207412
-0.000171207
-0.000527362
-0.00086118
-0.00117276
-0.00146215
-0.0017294
-0.00197453
-0.00219753
-0.00239838
-0.00257704
-0.00273349
-0.00286769
-0.00297958
-0.00306913
-0.0031363
-0.00318107
-0.00320343
0.365619
0.331444
0.301226
0.276588
0.257356
0.241877
0.22718
0.210594
0.190669
0.166701
0.139343
0.110512
0.085094
0.0764007
0.0717498
0.0681708
0.0650064
0.0620863
0.0593491
0.0567613
0.0542991
0.0519437
0.0496803
0.0474973
0.0453861
0.0433405
0.0413566
0.0394318
0.0375647
0.0357546
0.0340012
0.0323042
0.0306634
0.0290784
0.0275487
0.0260734
0.0246516
0.0232819
0.021963
0.0206936
0.019472
0.0182967
0.017166
0.0160784
0.0150324
0.0140263
0.0130588
0.0121285
0.011234
0.010374
0.00954747
0.00875318
0.0079901
0.00725725
0.00655371
0.00587862
0.00523119
0.00461069
0.00401644
0.00344783
0.0029043
0.00238535
0.00189053
0.00141945
0.000971752
0.000547147
0.000145383
-0.00023375
-0.000590415
-0.000924742
-0.00123682
-0.00152672
-0.00179448
-0.00204009
-0.00226356
-0.00246486
-0.00264395
-0.00280079
-0.00293533
-0.00304753
-0.00313733
-0.00320469
-0.00324959
-0.00327202
0.366788
0.334921
0.306857
0.283881
0.265729
0.250855
0.23595
0.218777
0.197758
0.17232
0.143031
0.111332
0.0420014
0.0753369
0.0715235
0.0680203
0.0648134
0.0618502
0.0590883
0.0564937
0.0540383
0.0516991
0.0494577
0.0472998
0.0452146
0.0431946
0.0412347
0.0393316
0.0374835
0.0356896
0.0339496
0.0322634
0.0306309
0.0290521
0.0275266
0.0260539
0.0246333
0.0232638
0.0219442
0.0206734
0.01945
0.0182724
0.0171393
0.0160491
0.0150004
0.0139918
0.0130217
0.0120889
0.0111921
0.01033
0.00950137
0.00870519
0.00794037
0.00720592
0.00650093
0.00582451
0.00517587
0.00455427
0.00395901
0.00338947
0.00284508
0.00232532
0.00182974
0.00135792
0.000909513
0.000484214
8.17642e-05
-0.000298048
-0.00065539
-0.000990391
-0.00130314
-0.00159371
-0.00186212
-0.00210837
-0.00233246
-0.00253435
-0.00271399
-0.00287134
-0.00300633
-0.00311891
-0.00320903
-0.00327665
-0.00332172
-0.00334423
0.367911
0.338301
0.312323
0.290936
0.273586
0.258841
0.243164
0.22489
0.202858
0.176497
0.14593
0.112403
0.041683
0.0746922
0.071209
0.0677575
0.0645232
0.0615302
0.0587548
0.0561635
0.0537243
0.0514099
0.0491982
0.0470721
0.0450188
0.0430293
0.0410975
0.0392195
0.0373933
0.035618
0.0338934
0.0322195
0.0305966
0.0290249
0.0275044
0.0260349
0.024616
0.023247
0.021927
0.020655
0.0194298
0.0182501
0.0171145
0.0160218
0.0149704
0.013959
0.0129863
0.012051
0.0111517
0.0102872
0.0094564
0.00865817
0.00789145
0.00715526
0.00644864
0.00577074
0.00512073
0.00449785
0.00390142
0.00333078
0.00278536
0.00226462
0.00176809
0.00129537
0.000846073
0.0004199
1.65835e-05
-0.00036409
-0.000722292
-0.00105815
-0.00137176
-0.00166317
-0.00193241
-0.00217947
-0.00240434
-0.00260697
-0.00278731
-0.00294529
-0.00308085
-0.00319392
-0.00328445
-0.00335237
-0.00339765
-0.00342027
0.36904
0.34161
0.317474
0.297284
0.280559
0.265358
0.248468
0.228919
0.205739
0.178528
0.147649
0.113743
0.0418486
0.0748026
0.0710706
0.0674706
0.0641547
0.0611251
0.0583436
0.0557664
0.0533542
0.0510745
0.0489012
0.0468145
0.0447995
0.0428458
0.0409464
0.0390972
0.0372958
0.0355414
0.0338339
0.0321738
0.0305616
0.0289979
0.0274831
0.0260173
0.0246005
0.0232323
0.0219121
0.020639
0.0194121
0.0182302
0.0170922
0.0159967
0.0149426
0.0139284
0.0129529
0.0120148
0.0111129
0.0102459
0.00941279
0.00861235
0.00784356
0.00710544
0.00639703
0.00571746
0.0050659
0.00444159
0.0038438
0.00327188
0.00272524
0.00220334
0.00170569
0.00123186
0.000781487
0.000354244
-5.01361e-05
-0.000431871
-0.000791133
-0.00112805
-0.00144271
-0.00173516
-0.00200543
-0.00225349
-0.00247932
-0.00268287
-0.00286406
-0.00302283
-0.00315909
-0.00327277
-0.00336379
-0.00343209
-0.00347763
-0.00350038
0.369935
0.344369
0.322083
0.302956
0.286459
0.270106
0.251648
0.230719
0.20663
0.178929
0.147761
0.114365
0.0424185
0.0755396
0.0710327
0.067113
0.0636785
0.0606166
0.0578431
0.0552951
0.0529238
0.0506907
0.048566
0.0465271
0.0445575
0.0426454
0.0407832
0.0389664
0.0371928
0.0354615
0.0337729
0.0321279
0.0305274
0.0289724
0.0274638
0.0260022
0.0245878
0.0232205
0.0219001
0.0206259
0.0193973
0.0182132
0.0170726
0.0159744
0.0149173
0.0139002
0.0129218
0.0119808
0.0110761
0.0102064
0.00937076
0.00856792
0.00779688
0.00705664
0.00634626
0.00566484
0.00501155
0.0043856
0.00378627
0.00321288
0.00266484
0.00214157
0.0016426
0.00116747
0.000715806
0.000287283
-0.000118374
-0.000501388
-0.000861929
-0.00120013
-0.00151606
-0.00180977
-0.00208128
-0.00233056
-0.00255755
-0.00276221
-0.00294444
-0.00310416
-0.00324126
-0.00335567
-0.00344729
-0.00351606
-0.00356191
-0.00358482
0.371168
0.347726
0.326775
0.307852
0.290407
0.272191
0.252021
0.229453
0.204455
0.176945
0.146857
0.115034
0.0867912
0.0763927
0.070704
0.0665145
0.0630248
0.0599734
0.0572378
0.0547414
0.0524285
0.0502564
0.0481921
0.0462108
0.0442942
0.04243
0.0406099
0.0388294
0.0370863
0.0353804
0.0337123
0.0320835
0.0304955
0.0289498
0.0274479
0.0259906
0.0245786
0.0232123
0.0218917
0.0206165
0.019386
0.0181996
0.0170563
0.0159551
0.014895
0.0138747
0.0128932