/*--------------------------------*- C++ -*----------------------------------*\
  =========                 |
  \\      /  F ield         | OpenFOAM: The Open Source CFD Toolbox
   \\    /   O peration     | Website:  https://openfoam.org
    \\  /    A nd           | Version:  6
     \\/     M anipulation  |
\*---------------------------------------------------------------------------*/
FoamFile
{
    version     2.0;
    format      ascii;
    class       volVectorField;
    location    "210";
    object      U;
}
// * * * * * * * * * * * * * * * * * * * * * * * * * * * * * * * * * * * * * //

dimensions      [0 1 -1 0 0 0 0];

internalField   nonuniform List<vector> 
5964
(
(-0.00200473 0 -0.000834934)
(-0.00296331 0 0.000776965)
(-0.00359826 0 -0.000266191)
(-0.00367868 0 -0.000487064)
(-0.00301409 0 -0.00106398)
(-0.00248692 0 -0.000873966)
(-0.00143372 0 -0.00137793)
(6.40471e-05 0 -0.00124107)
(-0.000480603 0 -0.000538408)
(-0.000268848 0 4.67654e-06)
(-2.67486e-06 0 -0.000436312)
(8.24006e-09 0 5.04697e-08)
(3.09815e-09 0 1.0878e-09)
(5.33071e-09 0 5.76289e-10)
(4.32774e-09 0 3.63592e-10)
(3.6688e-09 0 2.53443e-10)
(3.19641e-09 0 1.88739e-10)
(2.83698e-09 0 1.47603e-10)
(2.5511e-09 0 1.19858e-10)
(2.31584e-09 0 1.00211e-10)
(2.11707e-09 0 8.57098e-11)
(1.94564e-09 0 7.46238e-11)
(1.79541e-09 0 6.58915e-11)
(1.66206e-09 0 5.88363e-11)
(1.54249e-09 0 5.30119e-11)
(1.4344e-09 0 4.81143e-11)
(1.33603e-09 0 4.39307e-11)
(1.24602e-09 0 4.03084e-11)
(1.16329e-09 0 3.71353e-11)
(1.08696e-09 0 3.43278e-11)
(1.01633e-09 0 3.18219e-11)
(9.50788e-10 0 2.95683e-11)
(8.89847e-10 0 2.75285e-11)
(8.33078e-10 0 2.56715e-11)
(7.80116e-10 0 2.39726e-11)
(7.30643e-10 0 2.24118e-11)
(6.84379e-10 0 2.09724e-11)
(6.41078e-10 0 1.96409e-11)
(6.00521e-10 0 1.84056e-11)
(5.62511e-10 0 1.72569e-11)
(5.26871e-10 0 1.61867e-11)
(4.9344e-10 0 1.51878e-11)
(4.62071e-10 0 1.42541e-11)
(4.3263e-10 0 1.33804e-11)
(4.04993e-10 0 1.25621e-11)
(3.79046e-10 0 1.17949e-11)
(3.54684e-10 0 1.10753e-11)
(3.31807e-10 0 1.04001e-11)
(3.10325e-10 0 9.76629e-12)
(2.90151e-10 0 9.17125e-12)
(2.71206e-10 0 8.61259e-12)
(2.53414e-10 0 8.08811e-12)
(2.36704e-10 0 7.59579e-12)
(2.2101e-10 0 7.13378e-12)
(2.06269e-10 0 6.70036e-12)
(1.92423e-10 0 6.29394e-12)
(1.79415e-10 0 5.91301e-12)
(1.67193e-10 0 5.55619e-12)
(1.55706e-10 0 5.22217e-12)
(1.44908e-10 0 4.90973e-12)
(1.34754e-10 0 4.61771e-12)
(1.25202e-10 0 4.34503e-12)
(1.16211e-10 0 4.09063e-12)
(1.07745e-10 0 3.85351e-12)
(9.97661e-11 0 3.63271e-12)
(9.22422e-11 0 3.42724e-12)
(8.51414e-11 0 3.23602e-12)
(7.84348e-11 0 3.05772e-12)
(7.20971e-11 0 2.89021e-12)
(6.61101e-11 0 2.72892e-12)
(6.04191e-11 0 2.61293e-12)
(5.4968e-11 0 2.50414e-12)
(4.97423e-11 0 2.40182e-12)
(4.4726e-11 0 2.30781e-12)
(3.9901e-11 0 2.2227e-12)
(3.52481e-11 0 2.1466e-12)
(3.07481e-11 0 2.07945e-12)
(2.6382e-11 0 2.02113e-12)
(2.21313e-11 0 1.97149e-12)
(1.79773e-11 0 1.93038e-12)
(1.39022e-11 0 1.8977e-12)
(9.88793e-12 0 1.87338e-12)
(5.91662e-12 0 1.85747e-12)
(1.96973e-12 0 1.85052e-12)
(-0.00201605 0 0.00258436)
(-0.00241347 0 0.00179527)
(-0.00325446 0 0.000754187)
(-0.0033911 0 0.000267437)
(-0.00276384 0 -0.00157413)
(-0.00265624 0 -0.000692906)
(-0.00159406 0 -0.00166048)
(-0.000733782 0 -0.00107168)
(-0.00038719 0 -0.000432405)
(-0.000135651 0 0.000509993)
(-8.11579e-07 0 -0.000538937)
(5.07895e-09 0 1.1004e-07)
(2.56349e-09 0 2.23138e-09)
(4.6518e-09 0 1.46576e-09)
(4.02536e-09 0 1.00031e-09)
(3.5053e-09 0 7.20124e-10)
(3.09769e-09 0 5.45283e-10)
(2.77297e-09 0 4.30853e-10)
(2.50726e-09 0 3.523e-10)
(2.28443e-09 0 2.95975e-10)
(2.09369e-09 0 2.54015e-10)
(1.92768e-09 0 2.21707e-10)
(1.78122e-09 0 1.96121e-10)
(1.65059e-09 0 1.75362e-10)
(1.53304e-09 0 1.58169e-10)
(1.42648e-09 0 1.43675e-10)
(1.32929e-09 0 1.31269e-10)
(1.24022e-09 0 1.20509e-10)
(1.15823e-09 0 1.11072e-10)
(1.08252e-09 0 1.02712e-10)
(1.01238e-09 0 9.52433e-11)
(9.47267e-10 0 8.85217e-11)
(8.86683e-10 0 8.24331e-11)
(8.3022e-10 0 7.68872e-11)
(7.77521e-10 0 7.1811e-11)
(7.28276e-10 0 6.7145e-11)
(6.82213e-10 0 6.28403e-11)
(6.3909e-10 0 5.88566e-11)
(5.98692e-10 0 5.51597e-11)
(5.60824e-10 0 5.17212e-11)
(5.25312e-10 0 4.85164e-11)
(4.91997e-10 0 4.55246e-11)
(4.60733e-10 0 4.27277e-11)
(4.31389e-10 0 4.011e-11)
(4.03841e-10 0 3.76576e-11)
(3.77976e-10 0 3.53584e-11)
(3.53689e-10 0 3.32016e-11)
(3.30883e-10 0 3.11775e-11)
(3.09466e-10 0 2.92775e-11)
(2.89352e-10 0 2.74936e-11)
(2.70464e-10 0 2.58187e-11)
(2.52724e-10 0 2.42462e-11)
(2.36064e-10 0 2.27702e-11)
(2.20416e-10 0 2.13851e-11)
(2.05719e-10 0 2.00857e-11)
(1.91913e-10 0 1.88672e-11)
(1.78943e-10 0 1.77253e-11)
(1.66756e-10 0 1.66556e-11)
(1.55302e-10 0 1.56544e-11)
(1.44535e-10 0 1.47178e-11)
(1.3441e-10 0 1.38426e-11)
(1.24885e-10 0 1.30253e-11)
(1.1592e-10 0 1.22629e-11)
(1.07477e-10 0 1.15524e-11)
(9.95202e-11 0 1.08909e-11)
(9.20161e-11 0 1.02754e-11)
(8.49329e-11 0 9.70294e-12)
(7.82406e-11 0 9.16993e-12)
(7.1911e-11 0 8.67149e-12)
(6.59155e-11 0 8.19929e-12)
(6.02146e-11 0 7.84101e-12)
(5.47701e-11 0 7.50955e-12)
(4.95582e-11 0 7.201e-12)
(4.45581e-11 0 6.91853e-12)
(3.97499e-11 0 6.66313e-12)
(3.51138e-11 0 6.43491e-12)
(3.06305e-11 0 6.23361e-12)
(2.62808e-11 0 6.05879e-12)
(2.20462e-11 0 5.91001e-12)
(1.79082e-11 0 5.78682e-12)
(1.38488e-11 0 5.68884e-12)
(9.85022e-12 0 5.61581e-12)
(5.8952e-12 0 5.56764e-12)
(1.96321e-12 0 5.54464e-12)
(-0.00127637 0 0.00409289)
(-0.00207056 0 0.00245512)
(-0.00249298 0 0.00135482)
(-0.00282888 0 0.000122164)
(-0.00278811 0 -0.00125459)
(-0.00240665 0 -0.00192458)
(-0.00239672 0 -0.00192872)
(-0.000954109 0 -0.00246441)
(-9.51595e-05 0 -0.0013216)
(-9.00481e-05 0 0.000840925)
(1.24594e-06 0 -0.00074766)
(6.23001e-09 0 1.58638e-07)
(2.32241e-09 0 3.13631e-09)
(4.17694e-09 0 2.09094e-09)
(3.62945e-09 0 1.47391e-09)
(3.24317e-09 0 1.094e-09)
(2.9263e-09 0 8.4856e-10)
(2.65722e-09 0 6.8243e-10)
(2.42586e-09 0 5.65091e-10)
(2.22493e-09 0 4.7902e-10)
(2.04868e-09 0 4.13757e-10)
(1.89261e-09 0 3.62821e-10)
(1.75319e-09 0 3.22057e-10)
(1.6277e-09 0 2.88716e-10)
(1.51399e-09 0 2.60926e-10)
(1.41037e-09 0 2.37381e-10)
(1.31547e-09 0 2.17148e-10)
(1.22822e-09 0 1.99543e-10)
(1.14771e-09 0 1.84061e-10)
(1.0732e-09 0 1.70318e-10)
(1.00407e-09 0 1.58018e-10)
(9.3979e-10 0 1.46931e-10)
(8.79921e-10 0 1.36877e-10)
(8.24072e-10 0 1.27708e-10)
(7.71905e-10 0 1.19308e-10)
(7.23127e-10 0 1.11581e-10)
(6.77474e-10 0 1.04447e-10)
(6.34716e-10 0 9.78413e-11)
(5.94644e-10 0 9.17081e-11)
(5.5707e-10 0 8.60008e-11)
(5.21824e-10 0 8.06796e-11)
(4.88751e-10 0 7.57103e-11)
(4.57709e-10 0 7.10633e-11)
(4.28568e-10 0 6.67129e-11)
(4.01208e-10 0 6.26364e-11)
(3.75516e-10 0 5.88139e-11)
(3.51391e-10 0 5.52275e-11)
(3.28734e-10 0 5.18614e-11)
(3.07457e-10 0 4.87013e-11)
(2.87474e-10 0 4.57341e-11)
(2.68708e-10 0 4.2948e-11)
(2.51083e-10 0 4.03323e-11)
(2.34531e-10 0 3.78769e-11)
(2.18984e-10 0 3.55726e-11)
(2.04382e-10 0 3.34109e-11)
(1.90666e-10 0 3.1384e-11)
(1.7778e-10 0 2.94843e-11)
(1.65673e-10 0 2.7705e-11)
(1.54294e-10 0 2.60395e-11)
(1.43598e-10 0 2.44818e-11)
(1.33539e-10 0 2.3026e-11)
(1.24076e-10 0 2.16668e-11)
(1.1517e-10 0 2.0399e-11)
(1.06782e-10 0 1.92175e-11)
(9.88763e-11 0 1.81178e-11)
(9.14201e-11 0 1.7095e-11)
(8.43808e-11 0 1.61444e-11)
(7.77279e-11 0 1.5261e-11)
(7.14315e-11 0 1.4439e-11)
(6.54615e-11 0 1.36714e-11)
(5.97842e-11 0 1.30585e-11)
(5.4368e-11 0 1.24969e-11)
(4.91882e-11 0 1.19794e-11)
(4.42218e-11 0 1.15076e-11)
(3.94476e-11 0 1.10818e-11)
(3.48454e-11 0 1.07017e-11)
(3.03955e-11 0 1.03667e-11)
(2.60787e-11 0 1.00758e-11)
(2.18763e-11 0 9.82824e-12)
(1.777e-11 0 9.62329e-12)
(1.37419e-11 0 9.46027e-12)
(9.77431e-12 0 9.33861e-12)
(5.8499e-12 0 9.2579e-12)
(1.94817e-12 0 9.21768e-12)
(-0.00151793 0 0.00500254)
(-0.00167858 0 0.00323943)
(-0.00250647 0 0.00157938)
(-0.00277034 0 0.000432745)
(-0.00275663 0 -0.00140652)
(-0.00225197 0 -0.00226054)
(-0.00199763 0 -0.00271991)
(-0.00100358 0 -0.00301884)
(-0.00151031 0 -0.000997828)
(0.00011636 0 0.000983966)
(1.38507e-06 0 -0.000831941)
(8.59479e-10 0 2.09618e-09)
(2.37341e-09 0 3.3725e-09)
(3.09443e-09 0 2.33945e-09)
(3.09189e-09 0 1.73917e-09)
(2.92023e-09 0 1.34975e-09)
(2.71306e-09 0 1.08219e-09)
(2.50845e-09 0 8.91172e-10)
(2.31782e-09 0 7.50443e-10)
(2.14382e-09 0 6.43816e-10)
(1.98602e-09 0 5.60944e-10)
(1.84297e-09 0 4.95029e-10)
(1.713e-09 0 4.41502e-10)
(1.59452e-09 0 3.97221e-10)
(1.48613e-09 0 3.59981e-10)
(1.38663e-09 0 3.28205e-10)
(1.29499e-09 0 3.00741e-10)
(1.21034e-09 0 2.76735e-10)
(1.13194e-09 0 2.55544e-10)
(1.05918e-09 0 2.36674e-10)
(9.91508e-10 0 2.19743e-10)
(9.28465e-10 0 2.0445e-10)
(8.69647e-10 0 1.90554e-10)
(8.14705e-10 0 1.77865e-10)
(7.63328e-10 0 1.66224e-10)
(7.15241e-10 0 1.55504e-10)
(6.70201e-10 0 1.45598e-10)
(6.27989e-10 0 1.36418e-10)
(5.88406e-10 0 1.27889e-10)
(5.51273e-10 0 1.19948e-10)
(5.16428e-10 0 1.1254e-10)
(4.83721e-10 0 1.05619e-10)
(4.53014e-10 0 9.91444e-11)
(4.24181e-10 0 9.30811e-11)
(3.97106e-10 0 8.73981e-11)
(3.71679e-10 0 8.20679e-11)
(3.47798e-10 0 7.7066e-11)
(3.25371e-10 0 7.23706e-11)
(3.04307e-10 0 6.79619e-11)
(2.84525e-10 0 6.38219e-11)
(2.65946e-10 0 5.99343e-11)
(2.48498e-10 0 5.6284e-11)
(2.32111e-10 0 5.28574e-11)
(2.1672e-10 0 4.96416e-11)
(2.02265e-10 0 4.66247e-11)
(1.88687e-10 0 4.37958e-11)
(1.75932e-10 0 4.11445e-11)
(1.63948e-10 0 3.86612e-11)
(1.52685e-10 0 3.63369e-11)
(1.42098e-10 0 3.4163e-11)
(1.32143e-10 0 3.21315e-11)
(1.22778e-10 0 3.02349e-11)
(1.13963e-10 0 2.84659e-11)
(1.05662e-10 0 2.68178e-11)
(9.78377e-11 0 2.52839e-11)
(9.04576e-11 0 2.38579e-11)
(8.34893e-11 0 2.25337e-11)
(7.69018e-11 0 2.13049e-11)
(7.06651e-11 0 2.01653e-11)
(6.47493e-11 0 1.91087e-11)
(5.91233e-11 0 1.82393e-11)
(5.37584e-11 0 1.74447e-11)
(4.86307e-11 0 1.67168e-11)
(4.37166e-11 0 1.60553e-11)
(3.89944e-11 0 1.54595e-11)
(3.44434e-11 0 1.49281e-11)
(3.00436e-11 0 1.446e-11)
(2.57761e-11 0 1.40538e-11)
(2.1622e-11 0 1.37081e-11)
(1.75632e-11 0 1.3422e-11)
(1.35819e-11 0 1.31944e-11)
(9.6605e-12 0 1.30245e-11)
(5.78183e-12 0 1.29116e-11)
(1.92551e-12 0 1.28553e-11)
(-0.00129607 0 0.00601707)
(-0.00126295 0 0.00413005)
(-0.0020297 0 0.00239019)
(-0.00247485 0 0.000630426)
(-0.00192542 0 -0.00228724)
(-0.00225381 0 -0.0023027)
(-0.00141749 0 -0.00337491)
(-0.00160993 0 -0.00344517)
(-0.000383311 0 -0.00304919)
(0.000243586 0 0.0011452)
(3.2236e-06 0 -0.000498194)
(1.07775e-09 0 2.29597e-09)
(2.36642e-09 0 2.56324e-09)
(2.64775e-09 0 2.20762e-09)
(2.70321e-09 0 1.81922e-09)
(2.62867e-09 0 1.49845e-09)
(2.49773e-09 0 1.24858e-09)
(2.34752e-09 0 1.05572e-09)
(2.19527e-09 0 9.05822e-10)
(2.04857e-09 0 7.87734e-10)
(1.91049e-09 0 6.93228e-10)
(1.78192e-09 0 6.16354e-10)
(1.66277e-09 0 5.52827e-10)
(1.55253e-09 0 4.99545e-10)
(1.45052e-09 0 4.54244e-10)
(1.35604e-09 0 4.15249e-10)
(1.2684e-09 0 3.81306e-10)
(1.187e-09 0 3.51466e-10)
(1.11127e-09 0 3.24999e-10)
(1.04072e-09 0 3.01339e-10)
(9.74912e-10 0 2.80041e-10)
(9.1345e-10 0 2.60751e-10)
(8.5599e-10 0 2.43185e-10)
(8.02224e-10 0 2.27111e-10)
(7.51873e-10 0 2.12343e-10)
(7.04691e-10 0 1.98723e-10)
(6.60454e-10 0 1.86123e-10)
(6.18958e-10 0 1.74434e-10)
(5.8002e-10 0 1.63565e-10)
(5.43471e-10 0 1.53436e-10)
(5.09156e-10 0 1.43982e-10)
(4.76933e-10 0 1.35145e-10)
(4.46672e-10 0 1.26874e-10)
(4.1825e-10 0 1.19125e-10)
(3.91554e-10 0 1.11859e-10)
(3.66479e-10 0 1.05043e-10)
(3.42927e-10 0 9.86444e-11)
(3.20806e-10 0 9.2637e-11)
(3.00029e-10 0 8.69953e-11)
(2.80515e-10 0 8.16967e-11)
(2.62189e-10 0 7.67206e-11)
(2.44977e-10 0 7.20479e-11)
(2.28813e-10 0 6.76611e-11)
(2.13633e-10 0 6.35441e-11)
(1.99375e-10 0 5.96816e-11)
(1.85984e-10 0 5.60597e-11)
(1.73405e-10 0 5.26652e-11)
(1.61587e-10 0 4.94858e-11)
(1.50482e-10 0 4.65101e-11)
(1.40043e-10 0 4.3727e-11)
(1.30228e-10 0 4.11264e-11)
(1.20995e-10 0 3.86986e-11)
(1.12305e-10 0 3.64344e-11)
(1.04122e-10 0 3.43252e-11)
(9.64088e-11 0 3.23627e-11)
(8.91333e-11 0 3.0539e-11)
(8.22631e-11 0 2.88465e-11)
(7.57675e-11 0 2.7278e-11)
(6.96167e-11 0 2.58263e-11)
(6.37813e-11 0 2.44854e-11)
(5.82314e-11 0 2.33615e-11)
(5.29406e-11 0 2.23339e-11)
(4.78857e-11 0 2.13959e-11)
(4.30431e-11 0 2.05455e-11)
(3.83909e-11 0 1.97806e-11)
(3.39084e-11 0 1.90991e-11)
(2.95758e-11 0 1.8499e-11)
(2.53738e-11 0 1.79785e-11)
(2.1284e-11 0 1.75358e-11)
(1.72884e-11 0 1.71694e-11)
(1.33692e-11 0 1.68779e-11)
(9.50921e-12 0 1.66603e-11)
(5.69132e-12 0 1.65157e-11)
(1.89539e-12 0 1.64436e-11)
(-0.00103569 0 0.00686417)
(-0.0014777 0 0.00455456)
(-0.00210268 0 0.00243253)
(-0.00180495 0 0.00114311)
(-0.0012004 0 -0.00259537)
(-0.00216724 0 -0.00250834)
(-0.00123386 0 -0.00365857)
(-0.00118397 0 -0.00384904)
(-0.00121503 0 -0.00315509)
(0.000322314 0 -0.000429468)
(5.9086e-06 0 -0.00019107)
(1.11086e-09 0 2.2963e-09)
(2.29443e-09 0 2.30211e-09)
(2.39936e-09 0 2.10494e-09)
(2.42889e-09 0 1.83997e-09)
(2.38682e-09 0 1.58493e-09)
(2.29944e-09 0 1.36489e-09)
(2.1885e-09 0 1.18253e-09)
(2.06793e-09 0 1.03324e-09)
(1.94585e-09 0 9.10924e-10)
(1.82668e-09 0 8.10014e-10)
(1.71266e-09 0 7.25948e-10)
(1.60479e-09 0 6.55149e-10)
(1.50338e-09 0 5.94861e-10)
(1.40836e-09 0 5.42972e-10)
(1.31948e-09 0 4.9786e-10)
(1.23639e-09 0 4.58274e-10)
(1.15872e-09 0 4.23241e-10)
(1.08608e-09 0 3.91998e-10)
(1.01813e-09 0 3.6394e-10)
(9.54523e-10 0 3.38586e-10)
(8.94945e-10 0 3.15549e-10)
(8.3911e-10 0 2.94514e-10)
(7.86759e-10 0 2.75223e-10)
(7.3765e-10 0 2.57463e-10)
(6.91567e-10 0 2.41057e-10)
(6.48307e-10 0 2.25858e-10)
(6.07688e-10 0 2.11741e-10)
(5.69541e-10 0 1.98599e-10)
(5.33709e-10 0 1.86343e-10)
(5.00048e-10 0 1.74894e-10)
(4.68424e-10 0 1.64184e-10)
(4.38714e-10 0 1.54154e-10)
(4.10801e-10 0 1.44753e-10)
(3.84576e-10 0 1.35935e-10)
(3.5994e-10 0 1.27659e-10)
(3.36797e-10 0 1.19889e-10)
(3.15058e-10 0 1.12591e-10)
(2.94638e-10 0 1.05736e-10)
(2.7546e-10 0 9.92973e-11)
(2.57448e-10 0 9.32493e-11)
(2.40533e-10 0 8.75694e-11)
(2.24649e-10 0 8.22366e-11)
(2.09731e-10 0 7.72314e-11)
(1.95722e-10 0 7.25356e-11)
(1.82566e-10 0 6.81321e-11)
(1.70208e-10 0 6.40051e-11)
(1.58599e-10 0 6.01398e-11)
(1.47691e-10 0 5.6522e-11)
(1.37439e-10 0 5.31387e-11)
(1.27801e-10 0 4.99774e-11)
(1.18735e-10 0 4.70264e-11)
(1.10202e-10 0 4.42746e-11)
(1.02168e-10 0 4.17116e-11)
(9.45954e-11 0 3.93274e-11)
(8.74526e-11 0 3.71126e-11)
(8.07077e-11 0 3.50582e-11)
(7.43303e-11 0 3.31559e-11)
(6.82911e-11 0 3.13979e-11)
(6.25604e-11 0 2.97789e-11)
(5.711e-11 0 2.84029e-11)
(5.19157e-11 0 2.71446e-11)
(4.69541e-11 0 2.59984e-11)
(4.22023e-11 0 2.49609e-11)
(3.76384e-11 0 2.40286e-11)
(3.32419e-11 0 2.31987e-11)
(2.89931e-11 0 2.24684e-11)
(2.4873e-11 0 2.18351e-11)
(2.08634e-11 0 2.12966e-11)
(1.69464e-11 0 2.0851e-11)
(1.31046e-11 0 2.04966e-11)
(9.32095e-12 0 2.0232e-11)
(5.57869e-12 0 2.00562e-11)
(1.85791e-12 0 1.99686e-11)
(-0.00123883 0 0.00759707)
(-0.00113622 0 0.00514628)
(-0.00157585 0 0.00278022)
(-0.00178824 0 0.000620818)
(-0.00106653 0 -0.00257908)
(-0.00144889 0 -0.00295377)
(-0.00103532 0 -0.00376356)
(-0.00106956 0 -0.00394031)
(-0.0010261 0 -0.00364992)
(-4.19555e-05 0 -0.00217355)
(1.3698e-05 0 0.00100695)
(1.08105e-09 0 2.20238e-09)
(2.19025e-09 0 2.22004e-09)
(2.21672e-09 0 2.06212e-09)
(2.21749e-09 0 1.85212e-09)
(2.18486e-09 0 1.64069e-09)
(2.12196e-09 0 1.44809e-09)
(2.03802e-09 0 1.2803e-09)
(1.94201e-09 0 1.13695e-09)
(1.84066e-09 0 1.0153e-09)
(1.73842e-09 0 9.11992e-10)
(1.63807e-09 0 8.2388e-10)
(1.54119e-09 0 7.48233e-10)
(1.44866e-09 0 6.82797e-10)
(1.36086e-09 0 6.25748e-10)
(1.27788e-09 0 5.75622e-10)
(1.19966e-09 0 5.3125e-10)
(1.12605e-09 0 4.91696e-10)
(1.05682e-09 0 4.56206e-10)
(9.91762e-10 0 4.24175e-10)
(9.30624e-10 0 3.95107e-10)
(8.73176e-10 0 3.686e-10)
(8.19193e-10 0 3.44322e-10)
(7.68464e-10 0 3.21999e-10)
(7.20786e-10 0 3.01403e-10)
(6.75974e-10 0 2.82342e-10)
(6.33852e-10 0 2.64653e-10)
(5.94256e-10 0 2.482e-10)
(5.57034e-10 0 2.32867e-10)
(5.22044e-10 0 2.18551e-10)
(4.89153e-10 0 2.05165e-10)
(4.58236e-10 0 1.92635e-10)
(4.29177e-10 0 1.80892e-10)
(4.01867e-10 0 1.6988e-10)
(3.76202e-10 0 1.59545e-10)
(3.52087e-10 0 1.49842e-10)
(3.29431e-10 0 1.40728e-10)
(3.08147e-10 0 1.32166e-10)
(2.88154e-10 0 1.24121e-10)
(2.69377e-10 0 1.16563e-10)
(2.51742e-10 0 1.09463e-10)
(2.35182e-10 0 1.02795e-10)
(2.19632e-10 0 9.65331e-11)
(2.0503e-10 0 9.06557e-11)
(1.91319e-10 0 8.51412e-11)
(1.78443e-10 0 7.99701e-11)
(1.66351e-10 0 7.51236e-11)
(1.54993e-10 0 7.05844e-11)
(1.44323e-10 0 6.63362e-11)
(1.34296e-10 0 6.23635e-11)
(1.24869e-10 0 5.86517e-11)
(1.16004e-10 0 5.51872e-11)
(1.07662e-10 0 5.19569e-11)
(9.98067e-11 0 4.89487e-11)
(9.24044e-11 0 4.61511e-11)
(8.54223e-11 0 4.35529e-11)
(7.88293e-11 0 4.11441e-11)
(7.25957e-11 0 3.8915e-11)
(6.66931e-11 0 3.68566e-11)
(6.10909e-11 0 3.49672e-11)
(5.57627e-11 0 3.33423e-11)
(5.06864e-11 0 3.1857e-11)
(4.58384e-11 0 3.05059e-11)
(4.11964e-11 0 2.9284e-11)
(3.67389e-11 0 2.8187e-11)
(3.24457e-11 0 2.72111e-11)
(2.82974e-11 0 2.63527e-11)
(2.42753e-11 0 2.56086e-11)
(2.03615e-11 0 2.49761e-11)
(1.65383e-11 0 2.44528e-11)
(1.27889e-11 0 2.40366e-11)
(9.09636e-12 0 2.37259e-11)
(5.44433e-12 0 2.35195e-11)
(1.8132e-12 0 2.34166e-11)
(-0.00100749 0 0.00844815)
(-0.00089527 0 0.00573332)
(-0.00100389 0 0.0033023)
(-0.00113645 0 0.00164697)
(-0.000313876 0 -0.00257189)
(6.44052e-06 0 -0.00330378)
(-0.00041853 0 -0.0037444)
(-0.000465134 0 -0.00394095)
(-0.00126001 0 -0.00342815)
(-0.000965336 0 -0.000550596)
(-1.01463e-06 0 1.11045e-05)
(1.13067e-09 0 2.62388e-09)
(2.16454e-09 0 2.29223e-09)
(2.05605e-09 0 2.0651e-09)
(2.03535e-09 0 1.86557e-09)
(2.00954e-09 0 1.67991e-09)
(1.96303e-09 0 1.5095e-09)
(1.89822e-09 0 1.35658e-09)
(1.82088e-09 0 1.2216e-09)
(1.73633e-09 0 1.10353e-09)
(1.64859e-09 0 1.00061e-09)
(1.56049e-09 0 9.10855e-10)
(1.47386e-09 0 8.32344e-10)
(1.38986e-09 0 7.63366e-10)
(1.30917e-09 0 7.02443e-10)
(1.23215e-09 0 6.48333e-10)
(1.15894e-09 0 6e-10)
(1.08956e-09 0 5.56587e-10)
(1.02395e-09 0 5.17386e-10)
(9.61978e-10 0 4.81814e-10)
(9.03512e-10 0 4.49387e-10)
(8.48389e-10 0 4.19702e-10)
(7.96442e-10 0 3.92423e-10)
(7.47507e-10 0 3.6727e-10)
(7.01422e-10 0 3.44006e-10)
(6.58032e-10 0 3.2243e-10)
(6.17188e-10 0 3.02373e-10)
(5.78746e-10 0 2.83688e-10)
(5.42573e-10 0 2.6625e-10)
(5.0854e-10 0 2.4995e-10)
(4.76526e-10 0 2.34696e-10)
(4.46417e-10 0 2.20403e-10)
(4.18104e-10 0 2.06999e-10)
(3.91487e-10 0 1.94421e-10)
(3.66466e-10 0 1.8261e-10)
(3.42952e-10 0 1.71515e-10)
(3.20857e-10 0 1.61091e-10)
(3.00099e-10 0 1.51295e-10)
(2.806e-10 0 1.42088e-10)
(2.62287e-10 0 1.33437e-10)
(2.45089e-10 0 1.25308e-10)
(2.28941e-10 0 1.17672e-10)
(2.13779e-10 0 1.10501e-10)
(1.99544e-10 0 1.0377e-10)
(1.86179e-10 0 9.74539e-11)
(1.7363e-10 0 9.15313e-11)
(1.61848e-10 0 8.59805e-11)
(1.50783e-10 0 8.07819e-11)
(1.40389e-10 0 7.59166e-11)
(1.30623e-10 0 7.13672e-11)
(1.21444e-10 0 6.71169e-11)
(1.12813e-10 0 6.31502e-11)
(1.04693e-10 0 5.94522e-11)
(9.70476e-11 0 5.6009e-11)
(8.98438e-11 0 5.28073e-11)
(8.30498e-11 0 4.98349e-11)
(7.6635e-11 0 4.708e-11)
(7.05703e-11 0 4.45318e-11)
(6.4828e-11 0 4.21802e-11)
(5.93778e-11 0 4.00287e-11)
(5.41942e-11 0 3.81594e-11)
(4.92566e-11 0 3.6452e-11)
(4.45419e-11 0 3.49001e-11)
(4.00283e-11 0 3.34977e-11)
(3.5695e-11 0 3.22394e-11)
(3.15222e-11 0 3.11205e-11)
(2.74908e-11 0 3.01367e-11)
(2.35825e-11 0 2.92843e-11)
(1.97798e-11 0 2.85599e-11)
(1.60656e-11 0 2.79606e-11)
(1.24232e-11 0 2.74841e-11)
(8.83621e-12 0 2.71284e-11)
(5.28871e-12 0 2.68921e-11)
(1.76141e-12 0 2.67743e-11)
(-0.000498306 0 0.00917054)
(-0.00104498 0 0.00610595)
(-0.000715432 0 0.00334594)
(-0.000858401 0 0.0016296)
(-0.000221225 0 -0.00226755)
(-0.000259072 0 -0.00328181)
(-0.000342794 0 -0.00372886)
(-0.000568503 0 -0.00384607)
(-0.000192177 0 -0.00354691)
(-4.7034e-05 0 -0.00245842)
(3.36782e-10 0 1.89157e-09)
(1.10309e-09 0 2.71975e-09)
(1.66672e-09 0 2.27172e-09)
(1.81783e-09 0 2.04362e-09)
(1.8577e-09 0 1.86676e-09)
(1.85244e-09 0 1.70571e-09)
(1.82024e-09 0 1.55552e-09)
(1.76952e-09 0 1.41709e-09)
(1.70618e-09 0 1.29138e-09)
(1.63487e-09 0 1.17845e-09)
(1.55917e-09 0 1.07766e-09)
(1.48168e-09 0 9.8794e-10)
(1.40428e-09 0 9.08075e-10)
(1.32822e-09 0 8.36855e-10)
(1.25433e-09 0 7.73156e-10)
(1.18312e-09 0 7.15973e-10)
(1.1149e-09 0 6.64432e-10)
(1.04981e-09 0 6.17783e-10)
(9.87904e-10 0 5.75387e-10)
(9.29154e-10 0 5.36701e-10)
(8.73497e-10 0 5.01268e-10)
(8.20838e-10 0 4.68699e-10)
(7.71068e-10 0 4.38666e-10)
(7.24067e-10 0 4.10891e-10)
(6.79709e-10 0 3.85135e-10)
(6.37869e-10 0 3.61195e-10)
(5.98425e-10 0 3.38896e-10)
(5.61254e-10 0 3.18089e-10)
(5.26239e-10 0 2.98642e-10)
(4.93267e-10 0 2.80443e-10)
(4.62229e-10 0 2.63391e-10)
(4.33022e-10 0 2.474e-10)
(4.05544e-10 0 2.32391e-10)
(3.79703e-10 0 2.18297e-10)
(3.55406e-10 0 2.05055e-10)
(3.32568e-10 0 1.9261e-10)
(3.11106e-10 0 1.80912e-10)
(2.90942e-10 0 1.69915e-10)
(2.72002e-10 0 1.59577e-10)
(2.54214e-10 0 1.4986e-10)
(2.37512e-10 0 1.40728e-10)
(2.21831e-10 0 1.32149e-10)
(2.0711e-10 0 1.24091e-10)
(1.93291e-10 0 1.16527e-10)
(1.8032e-10 0 1.0943e-10)
(1.68143e-10 0 1.02774e-10)
(1.56713e-10 0 9.65366e-11)
(1.4598e-10 0 9.06948e-11)
(1.35902e-10 0 8.52279e-11)
(1.26434e-10 0 8.01163e-11)
(1.17538e-10 0 7.53412e-11)
(1.09174e-10 0 7.08852e-11)
(1.01306e-10 0 6.67317e-11)
(9.39e-11 0 6.28649e-11)
(8.69231e-11 0 5.92702e-11)
(8.03439e-11 0 5.59337e-11)
(7.41329e-11 0 5.28423e-11)
(6.82616e-11 0 4.99838e-11)
(6.2703e-11 0 4.73471e-11)
(5.74272e-11 0 4.4942e-11)
(5.24096e-11 0 4.28345e-11)
(4.76309e-11 0 4.09109e-11)
(4.30687e-11 0 3.91634e-11)
(3.87019e-11 0 3.75851e-11)
(3.45103e-11 0 3.61697e-11)
(3.04744e-11 0 3.49116e-11)
(2.65759e-11 0 3.38058e-11)
(2.2797e-11 0 3.28479e-11)
(1.91205e-11 0 3.2034e-11)
(1.55298e-11 0 3.13609e-11)
(1.20087e-11 0 3.08257e-11)
(8.54141e-12 0 3.04262e-11)
(5.11236e-12 0 3.01609e-11)
(1.70273e-12 0 3.00286e-11)
(-0.00133001 0 0.00958007)
(-0.000293154 0 0.00652773)
(-0.000632243 0 0.00329434)
(-0.000504694 0 0.00140954)
(-2.28372e-05 0 -0.00211605)
(-4.01187e-06 0 -0.00333979)
(7.45075e-05 0 -0.00375983)
(-0.000247915 0 -0.00386583)
(4.34979e-05 0 -0.0034721)
(1.08786e-05 0 -0.00236012)
(3.38655e-10 0 1.86867e-09)
(1.05301e-09 0 1.9558e-09)
(1.53134e-09 0 2.05734e-09)
(1.67745e-09 0 1.97693e-09)
(1.71982e-09 0 1.854e-09)
(1.71909e-09 0 1.72193e-09)
(1.69382e-09 0 1.5912e-09)
(1.65197e-09 0 1.46641e-09)
(1.59855e-09 0 1.3499e-09)
(1.53737e-09 0 1.2427e-09)
(1.47138e-09 0 1.14497e-09)
(1.40289e-09 0 1.05636e-09)
(1.33359e-09 0 9.76204e-10)
(1.26473e-09 0 9.03734e-10)
(1.19718e-09 0 8.38143e-10)
(1.13152e-09 0 7.78658e-10)
(1.06816e-09 0 7.24573e-10)
(1.00731e-09 0 6.75251e-10)
(9.49127e-10 0 6.30135e-10)
(8.93649e-10 0 5.88739e-10)
(8.40879e-10 0 5.50641e-10)
(7.90779e-10 0 5.15478e-10)
(7.43288e-10 0 4.82937e-10)
(6.98325e-10 0 4.52748e-10)
(6.55801e-10 0 4.24678e-10)
(6.15618e-10 0 3.98527e-10)
(5.77677e-10 0 3.7412e-10)
(5.41877e-10 0 3.51305e-10)
(5.08118e-10 0 3.29949e-10)
(4.76301e-10 0 3.09936e-10)
(4.46329e-10 0 2.91164e-10)
(4.18109e-10 0 2.73542e-10)
(3.91549e-10 0 2.56989e-10)
(3.66562e-10 0 2.41433e-10)
(3.43064e-10 0 2.26809e-10)
(3.20974e-10 0 2.13058e-10)
(3.00214e-10 0 2.00126e-10)
(2.80709e-10 0 1.87965e-10)
(2.62389e-10 0 1.76529e-10)
(2.45186e-10 0 1.65778e-10)
(2.29035e-10 0 1.55672e-10)
(2.13874e-10 0 1.46176e-10)
(1.99645e-10 0 1.37257e-10)
(1.86292e-10 0 1.28884e-10)
(1.7376e-10 0 1.21027e-10)
(1.62e-10 0 1.13659e-10)
(1.50962e-10 0 1.06754e-10)
(1.40602e-10 0 1.00287e-10)
(1.30876e-10 0 9.42356e-11)
(1.21742e-10 0 8.8578e-11)
(1.13162e-10 0 8.32936e-11)
(1.05097e-10 0 7.83628e-11)
(9.75126e-11 0 7.37674e-11)
(9.03751e-11 0 6.949e-11)
(8.36525e-11 0 6.55144e-11)
(7.73144e-11 0 6.18251e-11)
(7.1332e-11 0 5.84078e-11)
(6.56779e-11 0 5.5249e-11)
(6.03257e-11 0 5.23364e-11)
(5.5246e-11 0 4.96868e-11)
(5.04151e-11 0 4.73487e-11)
(4.58149e-11 0 4.52156e-11)
(4.14239e-11 0 4.32785e-11)
(3.72217e-11 0 4.15298e-11)
(3.31886e-11 0 3.99621e-11)
(2.9306e-11 0 3.85692e-11)
(2.55561e-11 0 3.73452e-11)
(2.19215e-11 0 3.62852e-11)
(1.83857e-11 0 3.53848e-11)
(1.49328e-11 0 3.46402e-11)
(1.1547e-11 0 3.40482e-11)
(8.21302e-12 0 3.36065e-11)
(4.91594e-12 0 3.33131e-11)
(1.63737e-12 0 3.31668e-11)
(-0.000675223 0 0.00999378)
(-0.000474636 0 0.00670165)
(-0.000609327 0 0.0031921)
(-0.000168247 0 0.000159921)
(-2.21396e-05 0 -0.0023726)
(0.000114885 0 -0.00337153)
(-2.5861e-05 0 -0.00383697)
(4.20598e-05 0 -0.00393237)
(0.000437651 0 -0.00351226)
(0.000576099 0 -0.00263145)
(1.35361e-07 0 6.53013e-06)
(8.71282e-10 0 1.92503e-09)
(1.68756e-09 0 2.00305e-09)
(1.62837e-09 0 1.94756e-09)
(1.61992e-09 0 1.84922e-09)
(1.60739e-09 0 1.73696e-09)
(1.58204e-09 0 1.62163e-09)
(1.54467e-09 0 1.50842e-09)
(1.49784e-09 0 1.40022e-09)
(1.44415e-09 0 1.2986e-09)
(1.38588e-09 0 1.20426e-09)
(1.32487e-09 0 1.11733e-09)
(1.26259e-09 0 1.03758e-09)
(1.20016e-09 0 9.64567e-10)
(1.13842e-09 0 8.97764e-10)
(1.07797e-09 0 8.36604e-10)
(1.01924e-09 0 7.80532e-10)
(9.62529e-10 0 7.2903e-10)
(9.08012e-10 0 6.81623e-10)
(8.55801e-10 0 6.37887e-10)
(8.05947e-10 0 5.97444e-10)
(7.58458e-10 0 5.59962e-10)
(7.13312e-10 0 5.2515e-10)
(6.70464e-10 0 4.92752e-10)
(6.29854e-10 0 4.62546e-10)
(5.91413e-10 0 4.34338e-10)
(5.55061e-10 0 4.07955e-10)
(5.20718e-10 0 3.83248e-10)
(4.883e-10 0 3.60085e-10)
(4.5772e-10 0 3.3835e-10)
(4.28895e-10 0 3.17937e-10)
(4.0174e-10 0 2.98755e-10)
(3.76174e-10 0 2.80722e-10)
(3.52115e-10 0 2.63761e-10)
(3.29486e-10 0 2.47806e-10)
(3.08211e-10 0 2.32796e-10)
(2.88217e-10 0 2.18673e-10)
(2.69433e-10 0 2.05387e-10)
(2.51793e-10 0 1.9289e-10)
(2.35232e-10 0 1.81138e-10)
(2.19686e-10 0 1.70089e-10)
(2.05098e-10 0 1.59706e-10)
(1.9141e-10 0 1.49953e-10)
(1.78568e-10 0 1.40796e-10)
(1.66521e-10 0 1.32203e-10)
(1.55219e-10 0 1.24145e-10)
(1.44616e-10 0 1.16594e-10)
(1.34666e-10 0 1.09522e-10)
(1.25329e-10 0 1.02906e-10)
(1.16564e-10 0 9.67204e-11)
(1.08332e-10 0 9.09436e-11)
(1.00598e-10 0 8.55541e-11)
(9.33262e-11 0 8.0532e-11)
(8.64852e-11 0 7.58583e-11)
(8.00436e-11 0 7.15151e-11)
(7.39721e-11 0 6.74856e-11)
(6.82426e-11 0 6.37542e-11)
(6.28286e-11 0 6.03061e-11)
(5.77048e-11 0 5.71275e-11)
(5.28421e-11 0 5.42438e-11)
(4.82178e-11 0 5.16835e-11)
(4.3815e-11 0 4.93484e-11)
(3.96133e-11 0 4.72288e-11)
(3.55928e-11 0 4.53158e-11)
(3.17347e-11 0 4.36015e-11)
(2.80211e-11 0 4.20787e-11)
(2.44347e-11 0 4.0741e-11)
(2.09591e-11 0 3.95828e-11)
(1.75782e-11 0 3.8599e-11)
(1.42768e-11 0 3.77857e-11)
(1.10396e-11 0 3.71391e-11)
(7.85223e-12 0 3.66567e-11)
(4.70014e-12 0 3.63363e-11)
(1.56557e-12 0 3.61766e-11)
(-0.00088582 0 0.0100279)
(-0.000566504 0 0.00664443)
(-0.000561928 0 0.00313375)
(-0.000109446 0 -0.000339355)
(-0.000263847 0 -0.00260472)
(8.60137e-05 0 -0.00338927)
(3.61951e-05 0 -0.00391343)
(6.87396e-05 0 -0.00397923)
(0.000658306 0 -0.00322934)
(-0.000967461 0 -0.00192536)
(-6.42299e-06 0 0.000456367)
(7.86567e-10 0 2.26024e-09)
(1.55364e-09 0 2.06633e-09)
(1.53457e-09 0 1.95587e-09)
(1.52371e-09 0 1.85668e-09)
(1.50704e-09 0 1.75468e-09)
(1.48089e-09 0 1.65018e-09)
(1.44575e-09 0 1.54602e-09)
(1.40322e-09 0 1.44475e-09)
(1.35504e-09 0 1.34809e-09)
(1.30285e-09 0 1.25702e-09)
(1.24803e-09 0 1.17198e-09)
(1.19178e-09 0 1.09302e-09)
(1.13505e-09 0 1.01994e-09)
(1.07858e-09 0 9.52428e-10)
(1.02296e-09 0 8.9008e-10)
(9.68613e-10 0 8.3248e-10)
(9.15857e-10 0 7.79216e-10)
(8.64911e-10 0 7.29894e-10)
(8.1592e-10 0 6.84151e-10)
(7.68971e-10 0 6.41656e-10)
(7.24109e-10 0 6.02111e-10)
(6.81343e-10 0 5.65251e-10)
(6.40659e-10 0 5.30841e-10)
(6.02024e-10 0 4.9867e-10)
(5.65388e-10 0 4.68553e-10)
(5.30695e-10 0 4.40327e-10)
(4.97881e-10 0 4.13845e-10)
(4.66875e-10 0 3.88977e-10)
(4.37606e-10 0 3.6561e-10)
(4.09999e-10 0 3.43638e-10)
(3.83981e-10 0 3.2297e-10)
(3.59476e-10 0 3.03521e-10)
(3.36413e-10 0 2.85215e-10)
(3.14718e-10 0 2.67983e-10)
(2.94321e-10 0 2.51763e-10)
(2.75155e-10 0 2.36495e-10)
(2.57152e-10 0 2.22126e-10)
(2.40248e-10 0 2.08606e-10)
(2.24382e-10 0 1.95888e-10)
(2.09495e-10 0 1.83931e-10)
(1.95528e-10 0 1.72692e-10)
(1.82429e-10 0 1.62134e-10)
(1.70145e-10 0 1.52221e-10)
(1.58625e-10 0 1.42919e-10)
(1.47823e-10 0 1.34196e-10)
(1.37693e-10 0 1.26021e-10)
(1.28192e-10 0 1.18367e-10)
(1.19279e-10 0 1.11206e-10)
(1.10916e-10 0 1.04512e-10)
(1.03065e-10 0 9.82617e-11)
(9.56908e-11 0 9.24311e-11)
(8.87611e-11 0 8.69988e-11)
(8.2244e-11 0 8.19444e-11)
(7.61094e-11 0 7.72483e-11)
(7.03289e-11 0 7.28925e-11)
(6.48757e-11 0 6.88598e-11)
(5.97241e-11 0 6.51343e-11)
(5.48499e-11 0 6.1701e-11)
(5.02243e-11 0 5.85941e-11)
(4.58256e-11 0 5.5821e-11)
(4.16386e-11 0 5.32925e-11)
(3.76434e-11 0 5.0998e-11)
(3.38212e-11 0 4.89279e-11)
(3.01539e-11 0 4.70732e-11)
(2.66243e-11 0 4.54261e-11)
(2.32161e-11 0 4.39796e-11)
(1.99134e-11 0 4.27273e-11)
(1.67009e-11 0 4.1664e-11)
(1.35641e-11 0 4.07849e-11)
(1.04886e-11 0 4.00862e-11)
(7.46038e-12 0 3.95649e-11)
(4.46579e-12 0 3.92187e-11)
(1.4876e-12 0 3.90461e-11)
(-0.000806244 0 0.0101231)
(-0.000597842 0 0.00662557)
(-0.00065375 0 0.00293598)
(-0.000259383 0 -0.000516364)
(-0.000233023 0 -0.00268138)
(-5.78836e-05 0 -0.00337385)
(-8.16748e-05 0 -0.00393294)
(8.28461e-05 0 -0.0039656)
(0.000588562 0 -0.00302943)
(-0.000906682 0 -0.00138915)
(-8.50338e-06 0 6.47329e-06)
(6.93736e-10 0 2.28474e-09)
(1.40439e-09 0 2.05667e-09)
(1.43344e-09 0 1.95443e-09)
(1.43269e-09 0 1.86666e-09)
(1.4151e-09 0 1.77461e-09)
(1.38771e-09 0 1.67841e-09)
(1.3534e-09 0 1.58106e-09)
(1.31363e-09 0 1.4852e-09)
(1.26955e-09 0 1.39264e-09)
(1.22219e-09 0 1.30448e-09)
(1.17253e-09 0 1.22129e-09)
(1.12147e-09 0 1.14328e-09)
(1.06976e-09 0 1.07043e-09)
(1.01806e-09 0 1.00255e-09)
(9.66878e-10 0 9.39385e-10)
(9.16634e-10 0 8.80624e-10)
(8.67642e-10 0 8.25945e-10)
(8.20135e-10 0 7.75028e-10)
(7.74282e-10 0 7.27569e-10)
(7.30196e-10 0 6.83283e-10)
(6.87948e-10 0 6.4191e-10)
(6.47573e-10 0 6.03211e-10)
(6.09079e-10 0 5.66971e-10)
(5.72456e-10 0 5.32998e-10)
(5.37674e-10 0 5.01118e-10)
(5.04694e-10 0 4.71175e-10)
(4.73466e-10 0 4.43032e-10)
(4.43934e-10 0 4.16562e-10)
(4.16038e-10 0 3.91653e-10)
(3.89714e-10 0 3.68204e-10)
(3.64895e-10 0 3.46122e-10)
(3.41516e-10 0 3.25325e-10)
(3.1951e-10 0 3.05734e-10)
(2.9881e-10 0 2.87282e-10)
(2.79352e-10 0 2.69902e-10)