0 	-3.62956e-21 	0 	2.54069e-20
0.010101 	8.12743e-20 	3.72075e-22 	3.04939e-20
0.020202 	1.93771e-20 	-5.10982e-25 	-3.12771e-20
0.030303 	-1.07152e-19 	1.69141e-22 	3.98612e-20
0.040404 	2.10004e-20 	2.02594e-22 	6.20469e-20
0.0505051 	-6.36075e-20 	-2.37069e-22 	5.07899e-20
