0.010101 	-5.57615e-13 	5.73116e-16 	-5.40024e-15
0.020202 	-2.17606e-14 	5.39955e-17 	-3.22731e-16
