/*--------------------------------*- C++ -*----------------------------------*\
  =========                 |
  \\      /  F ield         | OpenFOAM: The Open Source CFD Toolbox
   \\    /   O peration     | Website:  https://openfoam.org
    \\  /    A nd           | Version:  6
     \\/     M anipulation  |
\*---------------------------------------------------------------------------*/
FoamFile
{
    version     2.0;
    format      ascii;
    class       surfaceScalarField;
    location    "4600";
    object      phi;
}
// * * * * * * * * * * * * * * * * * * * * * * * * * * * * * * * * * * * * * //

dimensions      [0 3 -1 0 0 0 0];

internalField   nonuniform List<scalar> 
9440
(
-2.22492e-14
2.22494e-14
-4.43679e-14
2.2144e-14
-6.61691e-14
2.18211e-14
-8.73777e-14
2.12279e-14
-1.07753e-13
2.03947e-14
-1.27068e-13
1.93337e-14
-1.45196e-13
1.8148e-14
-1.62027e-13
1.68489e-14
-1.77453e-13
1.54447e-14
-1.91341e-13
1.3909e-14
-2.03707e-13
1.23853e-14
-2.1447e-13
1.07828e-14
-2.23523e-13
9.07246e-15
-2.31296e-13
7.79159e-15
-2.37874e-13
6.59697e-15
-2.43574e-13
5.71961e-15
-2.48103e-13
4.54672e-15
-2.50015e-13
1.93315e-15
-2.51237e-13
1.23976e-15
-2.52414e-13
1.19762e-15
-2.53286e-13
8.89894e-16
-2.5041e-13
-2.85949e-15
-2.48654e-13
-1.73958e-15
-2.45895e-13
-2.74273e-15
-2.42202e-13
-3.6776e-15
-2.37956e-13
-4.23191e-15
-2.33117e-13
-4.82321e-15
-2.27608e-13
-5.49619e-15
-2.21583e-13
-6.01469e-15
-2.14846e-13
-6.72582e-15
-2.07442e-13
-7.39333e-15
-1.99407e-13
-8.02736e-15
-1.90677e-13
-8.72203e-15
-1.81291e-13
-9.38025e-15
-1.71156e-13
-1.01302e-14
-1.60366e-13
-1.0786e-14
-1.48866e-13
-1.14977e-14
-1.36745e-13
-1.2121e-14
-1.23964e-13
-1.27814e-14
-1.10635e-13
-1.33314e-14
-9.67834e-14
-1.38564e-14
-8.25283e-14
-1.42597e-14
-6.79596e-14
-1.45742e-14
-5.31089e-14
-1.48606e-14
-3.82008e-14
-1.4917e-14
-2.32498e-14
-1.49596e-14
-8.45578e-15
-1.48065e-14
6.0623e-15
-1.45301e-14
2.01188e-14
-1.40704e-14
3.36825e-14
-1.35807e-14
4.65527e-14
-1.28865e-14
5.86708e-14
-1.21355e-14
6.98705e-14
-1.12199e-14
8.00665e-14
-1.02149e-14
8.91695e-14
-9.12448e-15
9.72201e-14
-8.07129e-15
1.04112e-13
-6.91216e-15
1.09861e-13
-5.77219e-15
1.14356e-13
-4.51891e-15
1.178e-13
-3.46878e-15
1.20156e-13
-2.37987e-15
1.21492e-13
-1.36047e-15
1.21839e-13
-3.72354e-16
1.21329e-13
4.84509e-16
1.20021e-13
1.284e-15
1.18128e-13
1.86479e-15
1.15621e-13
2.48015e-15
1.12674e-13
2.91808e-15
1.09473e-13
3.17161e-15
1.06269e-13
3.17382e-15
1.03194e-13
3.04663e-15
1.00631e-13
2.53249e-15
9.9162e-14
1.43833e-15
1.003e-13
-1.16945e-15
1.07868e-13
-7.59793e-15
1.34095e-13
-2.62558e-14
2.17224e-13
-8.31606e-14
9.9423e-14
1.1777e-13
1.92166e-17
9.9374e-14
5.34362e-22
-1.35659e-22
5.35599e-22
-1.08567e-24
5.34204e-22
1.13737e-24
5.28879e-22
2.79173e-24
5.22365e-22
4.291e-24
5.14817e-22
5.53177e-24
5.06596e-22
6.92764e-24
4.97911e-22
8.3752e-24
4.88243e-22
9.61598e-24
4.778e-22
1.07533e-23
4.6653e-22
1.1839e-23
4.54536e-22
1.28213e-23
4.41663e-22
1.36485e-23
4.28376e-22
1.44757e-23
4.14004e-22
1.50443e-23
3.9927e-22
1.55613e-23
3.84019e-22
1.58715e-23
3.68095e-22
1.62851e-23
3.52017e-22
1.65436e-23
3.35629e-22
1.6647e-23
3.18982e-22
1.65436e-23
3.02076e-22
1.64919e-23
2.8486e-22
1.62851e-23
2.678e-22
1.60783e-23
2.50636e-22
1.57164e-23
2.33472e-22
1.54062e-23
2.16411e-22
1.4941e-23
1.99299e-22
1.4424e-23
1.82393e-22
1.3907e-23
1.65746e-22
1.339e-23
1.49306e-22
1.28213e-23
1.32969e-22
1.23043e-23
1.16943e-22
1.18907e-23
1.01175e-22
1.14254e-23
8.57166e-23
1.0805e-23
7.04655e-23
1.03915e-23
5.54211e-23
1.00296e-23
4.07386e-23
9.82277e-24
2.64181e-23
9.40918e-24
1.24077e-23
8.7371e-24
7.18613e-24
-2.1692e-14
4.39681e-14
-4.47006e-14
4.5193e-14
-6.73323e-14
4.4487e-14
-8.90817e-14
4.30116e-14
-1.09756e-13
4.11053e-14
-1.2932e-13
3.89353e-14
-1.47623e-13
3.64863e-14
-1.64526e-13
3.37881e-14
-1.79902e-13
3.08554e-14
-1.93799e-13
2.784e-14
-2.06029e-13
2.46495e-14
-2.166e-13
2.13879e-14
-2.25549e-13
1.8055e-14
-2.33113e-13
1.53881e-14
-2.39533e-13
1.30507e-14
-2.45415e-13
1.16362e-14
-2.49353e-13
8.51755e-15
-2.51143e-13
3.75618e-15
-2.52368e-13
2.49698e-15
-2.53655e-13
2.51856e-15
-2.5387e-13
1.13517e-15
-2.51361e-13
-5.34027e-15
-2.4943e-13
-3.64029e-15
-2.4671e-13
-5.43399e-15
-2.42834e-13
-7.52858e-15
-2.38592e-13
-8.44954e-15
-2.33783e-13
-9.60782e-15
-2.28302e-13
-1.09565e-14
-2.22203e-13
-1.2094e-14
-2.1546e-13
-1.34516e-14
-2.08076e-13
-1.47626e-14
-2.00047e-13
-1.60468e-14
-1.91316e-13
-1.74436e-14
-1.81913e-13
-1.87756e-14
-1.71889e-13
-2.01506e-14
-1.61008e-13
-2.1663e-14
-1.49497e-13
-2.30084e-14
-1.37346e-13
-2.42734e-14
-1.24526e-13
-2.56037e-14
-1.11132e-13
-2.6731e-14
-9.72403e-14
-2.77577e-14
-8.28725e-14
-2.86413e-14
-6.81754e-14
-2.92866e-14
-5.32622e-14
-2.97889e-14
-3.81602e-14
-3.00393e-14
-2.30997e-14
-3.00414e-14
-8.14111e-15
-2.97859e-14
6.47218e-15
-2.91695e-14
2.0747e-14
-2.83708e-14
3.44138e-14
-2.72769e-14
4.74292e-14
-2.59327e-14
5.95929e-14
-2.43302e-14
7.08579e-14
-2.25188e-14
8.11442e-14
-2.05382e-14
9.03275e-14
-1.83449e-14
9.8386e-14
-1.61679e-14
1.05291e-13
-1.38582e-14
1.10973e-13
-1.14959e-14
1.15497e-13
-9.08557e-15
1.1889e-13
-6.90441e-15
1.21176e-13
-4.71008e-15
1.22479e-13
-2.70615e-15
1.2276e-13
-6.99133e-16
1.22134e-13
1.06332e-15
1.20778e-13
2.59259e-15
1.18677e-13
3.91779e-15
1.16008e-13
5.09887e-15
1.12931e-13
5.94434e-15
1.09636e-13
6.41634e-15
1.06172e-13
6.58278e-15
1.02741e-13
6.42295e-15
9.95393e-14
5.68057e-15
9.68025e-14
4.12254e-15
9.43597e-14
1.21745e-15
9.09843e-14
-4.27745e-15
7.89728e-14
-1.4297e-14
2.74837e-14
-3.17243e-14
2.47569e-14
1.20441e-13
1.5127e-17
1.24071e-13
5.42634e-22
-2.87861e-22
5.37823e-22
-2.84343e-24
5.35961e-22
1.03398e-24
5.30326e-22
4.4978e-24
5.23709e-22
7.96161e-24
5.16212e-22
1.11669e-23
5.07941e-22
1.42689e-23
4.99152e-22
1.71123e-23
4.89381e-22
1.97489e-23
4.78886e-22
2.22822e-23
4.67409e-22
2.45052e-23
4.55466e-22
2.64698e-23
4.42438e-22
2.81241e-23
4.28841e-22
2.96234e-23
4.14521e-22
3.07608e-23
3.99632e-22
3.16397e-23
3.84381e-22
3.23117e-23
3.68457e-22
3.25702e-23
3.52069e-22
3.2777e-23
3.35577e-22
3.2777e-23
3.18878e-22
3.25702e-23
3.01869e-22
3.20016e-23
2.84654e-22
3.13812e-23
2.67438e-22
3.05023e-23
2.50326e-22
2.95717e-23
2.33058e-22
2.85377e-23
2.15894e-22
2.74004e-23
1.98782e-22
2.61596e-23
1.81876e-22
2.49705e-23
1.65229e-22
2.37814e-23
1.48789e-22
2.25407e-23
1.32556e-22
2.11448e-23
1.16426e-22
1.9904e-23
1.00658e-22
1.87667e-23
8.52513e-23
1.78361e-23
7.01553e-23
1.69572e-23
5.52143e-23
1.60783e-23
4.03768e-23
1.53545e-23
2.56943e-23
1.47342e-23
1.08567e-23
1.43206e-23
1.40104e-23
-2.38688e-14
6.78557e-14
-4.64547e-14
6.78157e-14
-6.85452e-14
6.66087e-14
-9.01135e-14
6.46105e-14
-1.10874e-13
6.18979e-14
-1.30515e-13
5.86069e-14
-1.48981e-13
5.49845e-14
-1.66038e-13
5.08775e-14
-1.8167e-13
4.65199e-14
-1.95659e-13
4.18576e-14
-2.08095e-13
3.7114e-14
-2.1874e-13
3.20634e-14
-2.27781e-13
2.71289e-14
-2.3538e-13
2.30171e-14
-2.42009e-13
1.971e-14
-2.48276e-13
1.79331e-14
-2.51379e-13
1.16502e-14
-2.52963e-13
5.36817e-15
-2.54497e-13
4.06084e-15
-2.56057e-13
4.10428e-15
-2.54829e-13
-6.59399e-17
-2.52937e-13
-7.20671e-15
-2.50865e-13
-5.68812e-15
-2.48024e-13
-8.25079e-15
-2.43989e-13
-1.15427e-14
-2.3984e-13
-1.25781e-14
-2.35008e-13
-1.44217e-14
-2.29547e-13
-1.63995e-14
-2.23486e-13
-1.81384e-14
-2.16804e-13
-2.012e-14
-2.09499e-13
-2.20547e-14
-2.01473e-13
-2.40634e-14
-1.92751e-13
-2.61571e-14
-1.83324e-13
-2.81941e-14
-1.73245e-13
-3.02234e-14
-1.62384e-13
-3.25253e-14
-1.50851e-13
-3.45403e-14
-1.38614e-13
-3.65137e-14
-1.25648e-13
-3.8574e-14
-1.12121e-13
-4.0265e-14
-9.80845e-14
-4.18039e-14
-8.35579e-14
-4.31784e-14
-6.8616e-14
-4.42423e-14
-5.34496e-14
-4.49694e-14
-3.80958e-14
-4.54101e-14
-2.28134e-14
-4.53395e-14
-7.63655e-15
-4.49826e-14
7.28367e-15
-4.41098e-14
2.17944e-14
-4.29017e-14
3.57459e-14
-4.12534e-14
4.89631e-14
-3.91748e-14
6.1387e-14
-3.67836e-14
7.28423e-14
-3.40044e-14
8.3222e-14
-3.09477e-14
9.24995e-14
-2.76523e-14
1.00706e-13
-2.44068e-14
1.07636e-13
-2.082e-14
1.13336e-13
-1.72324e-14
1.17837e-13
-1.36242e-14
1.21129e-13
-1.02341e-14
1.23323e-13
-6.94187e-15
1.24384e-13
-3.80495e-15
1.24458e-13
-8.13616e-16
1.23681e-13
1.80004e-15
1.22054e-13
4.17636e-15
1.19698e-13
6.23174e-15
1.1683e-13
7.9246e-15
1.13469e-13
9.26117e-15
1.09787e-13
1.00534e-14
1.05941e-13
1.0386e-14
1.01978e-13
1.03395e-14
9.80304e-14
9.58329e-15
9.38608e-14
8.24731e-15
8.8842e-14
6.19096e-15
8.05547e-14
3.96153e-15
6.28578e-14
3.35426e-15
1.92021e-14
1.18834e-14
1.56911e-14
1.23902e-13
1.42409e-17
1.3971e-13
5.40979e-22
-4.33446e-22
5.417e-22
-4.1876e-24
5.39374e-22
1.34417e-24
5.33738e-22
6.72084e-24
5.26914e-22
1.18907e-23
5.19263e-22
1.69572e-23
5.10836e-22
2.16101e-23
5.0184e-22
2.61596e-23
4.91914e-22
3.01404e-23
4.81057e-22
3.38627e-23
4.69477e-22
3.71714e-23
4.57069e-22
4.01183e-23
4.43989e-22
4.26515e-23
4.29979e-22
4.46678e-23
4.154e-22
4.62704e-23
4.00304e-22
4.76146e-23
3.84639e-22
4.85452e-23
3.68561e-22
4.90622e-23
3.5212e-22
4.92173e-23
3.3537e-22
4.90622e-23
3.18361e-22
4.85452e-23
3.01197e-22
4.77697e-23
2.83826e-22
4.6684e-23
2.66456e-22
4.54432e-23
2.49292e-22
4.38923e-23
2.31921e-22
4.21862e-23
2.14602e-22
4.03768e-23
1.97644e-22
3.85673e-23
1.80687e-22
3.66027e-23
1.63937e-22
3.46899e-23
1.47393e-22
3.27253e-23
1.31367e-22
3.09159e-23
1.1534e-22
2.90547e-23
9.96236e-23
2.74004e-23
8.43724e-23
2.59011e-23
6.92764e-23
2.45569e-23
5.44388e-23
2.33679e-23
3.97047e-23
2.22822e-23
2.52807e-23
2.15584e-23
1.05466e-23
2.09897e-23
2.07829e-23
-2.42303e-14
9.21063e-14
-4.76714e-14
9.129e-14
-7.04822e-14
8.94514e-14
-9.25886e-14
8.67459e-14
-1.13811e-13
8.315e-14
-1.33954e-13
7.87791e-14
-1.52777e-13
7.38349e-14
-1.70149e-13
6.82788e-14
-1.85936e-13
6.23347e-14
-2.00153e-13
5.61046e-14
-2.12541e-13
4.95305e-14
-2.23148e-13
4.27017e-14
-2.32372e-13
3.63847e-14
-2.39644e-13
3.03167e-14
-2.46344e-13
2.64399e-14
-2.52941e-13
2.45585e-14
-2.54615e-13
1.33518e-14
-2.56036e-13
6.81439e-15
-2.57796e-13
5.84768e-15
-2.60124e-13
6.46107e-15
-2.5603e-13
-4.13664e-15
-2.55521e-13
-7.69108e-15
-2.52988e-13
-8.19637e-15
-2.49956e-13
-1.12615e-14
-2.45899e-13
-1.55778e-14
-2.41764e-13
-1.66926e-14
-2.36859e-13
-1.93068e-14
-2.31415e-13
-2.18266e-14
-2.25418e-13
-2.41196e-14
-2.18831e-13
-2.66944e-14
-2.11511e-13
-2.93631e-14
-2.03516e-13
-3.20517e-14
-1.94852e-13
-3.48108e-14
-1.85462e-13
-3.75769e-14
-1.75392e-13
-4.02898e-14
-1.64512e-13
-4.34015e-14
-1.52898e-13
-4.61542e-14
-1.40525e-13
-4.88838e-14
-1.27489e-13
-5.16122e-14
-1.13744e-13
-5.40145e-14
-9.93705e-14
-5.61839e-14
-8.45727e-14
-5.79874e-14
-6.937e-14
-5.94582e-14
-5.38301e-14
-6.05249e-14
-3.81607e-14
-6.10952e-14
-2.23859e-14
-6.11319e-14
-6.7536e-15
-6.06305e-14
8.58269e-15
-5.94663e-14
2.34613e-14
-5.78032e-14
3.77756e-14
-5.55891e-14
5.13608e-14
-5.27831e-14
6.40665e-14
-4.95144e-14
7.58074e-14
-4.57735e-14
8.64622e-14
-4.16311e-14
9.5944e-14
-3.71655e-14
1.04177e-13
-3.26715e-14
1.11118e-13
-2.77937e-14
1.16815e-13
-2.2962e-14
1.21279e-13
-1.81233e-14
1.24443e-13
-1.34352e-14
1.26407e-13
-8.94407e-15
1.27303e-13
-4.73821e-15
1.27156e-13
-7.01705e-16
1.2605e-13
2.86735e-15
1.24104e-13
6.0838e-15
1.21387e-13
8.90787e-15
1.18085e-13
1.11838e-14
1.14296e-13
1.30082e-14
1.10163e-13
1.41434e-14
1.05774e-13
1.47317e-14
1.01259e-13
1.48093e-14
9.66589e-14
1.4138e-14
9.19001e-14
1.29632e-14
8.643e-14
1.16121e-14
7.95762e-14
1.07687e-14
7.06889e-14
1.21949e-14
6.35746e-14
1.89516e-14
1.47237e-14
1.72705e-13
1.39868e-17
1.54379e-13
5.44288e-22
-5.82339e-22
5.47283e-22
-5.73857e-24
5.4475e-22
1.80946e-24
5.38908e-22
9.25408e-24
5.31981e-22
1.62851e-23
5.23916e-22
2.28509e-23
5.15385e-22
2.92615e-23
5.05821e-22
3.52069e-23
4.95636e-22
4.07386e-23
4.84469e-22
4.57017e-23
4.7232e-22
5.00961e-23
4.59602e-22
5.39735e-23
4.46057e-22
5.7334e-23
4.31633e-22
6.0074e-23
4.16692e-22
6.24004e-23
4.01234e-22
6.39514e-23
3.85208e-22
6.49337e-23
3.68716e-22
6.55541e-23
3.51965e-22
6.57092e-23
3.34853e-22
6.5399e-23
3.17586e-22
6.46235e-23
3.00111e-22
6.35378e-23
2.82586e-22
6.19869e-23
2.64956e-22
6.02808e-23
2.47637e-22
5.82645e-23
2.3006e-22
5.59381e-23
2.12844e-22
5.36116e-23
1.95732e-22
5.10267e-23
1.78774e-22
4.83384e-23
1.61972e-22
4.57534e-23
1.45636e-22
4.32202e-23
1.29454e-22
4.0687e-23
1.13634e-22
3.83605e-23
9.8176e-23
3.61892e-23
8.30283e-23
3.40178e-23
6.80873e-23
3.22083e-23
5.34049e-23
3.06057e-23
3.90326e-23
2.93649e-23
2.4712e-23
2.8486e-23
1.03398e-23
2.77623e-23
2.75555e-23
-2.48954e-14
1.17022e-13
-4.9381e-14
1.15812e-13
-7.32787e-14
1.13379e-13
-9.62564e-14
1.09756e-13
-1.18265e-13
1.05188e-13
-1.39071e-13
9.96148e-14
-1.58402e-13
9.31965e-14
-1.7618e-13
8.6088e-14
-1.92269e-13
7.8454e-14
-2.06533e-13
7.03974e-14
-2.18922e-13
6.19493e-14
-2.29519e-13
5.33272e-14
-2.38685e-13
4.55774e-14
-2.45471e-13
3.71321e-14
-2.52671e-13
3.36692e-14
-2.58209e-13
3.01218e-14
-2.59085e-13
1.42548e-14
-2.60655e-13
8.40996e-15
-2.62502e-13
7.72477e-15
-2.64169e-13
8.15233e-15
-2.58906e-13
-9.37323e-15
-2.58672e-13
-7.90103e-15
-2.5587e-13
-1.09763e-14
-2.52354e-13
-1.47531e-14
-2.48452e-13
-1.94595e-14
-2.44177e-13
-2.09472e-14
-2.3927e-13
-2.41968e-14
-2.33862e-13
-2.72169e-14
-2.27953e-13
-3.00127e-14
-2.21372e-13
-3.32618e-14
-2.14163e-13
-3.65618e-14
-2.06327e-13
-3.98777e-14
-1.97759e-13
-4.33711e-14
-1.88398e-13
-4.69326e-14
-1.78338e-13
-5.03476e-14
-1.67359e-13
-5.4378e-14
-1.55674e-13
-5.78377e-14
-1.43119e-13
-6.1441e-14
-1.29834e-13
-6.4898e-14
-1.15888e-13
-6.79657e-14
-1.01246e-13
-7.08296e-14
-8.6036e-14
-7.32078e-14
-7.04014e-14
-7.51034e-14
-5.43572e-14
-7.65815e-14
-3.81329e-14
-7.73314e-14
-2.18402e-14
-7.74382e-14
-5.66594e-15
-7.68242e-14
1.02535e-14
-7.54051e-14
2.56914e-14
-7.32623e-14
4.05396e-14
-7.04597e-14
5.46989e-14
-6.69643e-14
6.78163e-14
-6.26573e-14
7.99808e-14
-5.79681e-14
9.09155e-14
-5.25933e-14
1.00595e-13
-4.68747e-14
1.08991e-13
-4.10992e-14
1.1597e-13
-3.48023e-14
1.21632e-13
-2.86592e-14
1.25954e-13
-2.24772e-14
1.28994e-13
-1.65114e-14
1.30693e-13
-1.06775e-14
1.31288e-13
-5.37064e-15
1.3071e-13
-1.62274e-16
1.29234e-13
4.30604e-15
1.26874e-13
8.40435e-15
1.2363e-13
1.21119e-14
1.19786e-13
1.49869e-14
1.15495e-13
1.72609e-14
1.10765e-13
1.88308e-14
1.05698e-13
1.97547e-14
1.00612e-13
1.98517e-14
9.54517e-14
1.92537e-14
9.04393e-14
1.79304e-14
8.56882e-14
1.63193e-14
8.12927e-14
1.51167e-14
7.82096e-14
1.52315e-14
7.33967e-14
2.37183e-14
1.39942e-14
2.32062e-13
1.40132e-17
1.68323e-13
5.50905e-22
-6.78293e-22
5.54831e-22
-6.56575e-24
5.52143e-22
2.79173e-24
5.45991e-22
1.19941e-23
5.38546e-22
2.08346e-23
5.30326e-22
2.94166e-23
5.21279e-22
3.74816e-23
5.11353e-22
4.4978e-23
5.00599e-22
5.19056e-23
4.88864e-22
5.81094e-23
4.76198e-22
6.35378e-23
4.62963e-22
6.83975e-23
4.48797e-22
7.23783e-23
4.33908e-22
7.57904e-23
4.18295e-22
7.83754e-23
4.02217e-22
8.04433e-23
3.85828e-22
8.17875e-23
3.68871e-22
8.23562e-23
3.51603e-22
8.23562e-23
3.34129e-22
8.17875e-23
3.16448e-22
8.08052e-23
2.98612e-22
7.93059e-23
2.80828e-22
7.74448e-23
2.6294e-22
7.50149e-23
2.45259e-22
7.25334e-23
2.27733e-22
6.96383e-23
2.10207e-22
6.66397e-23
1.92992e-22
6.3331e-23
1.76189e-22
6.01257e-23
1.59439e-22
5.67653e-23
1.43051e-22
5.34566e-23
1.27127e-22
5.04063e-23
1.11514e-22
4.74078e-23
9.60564e-23
4.46161e-23
8.12705e-23
4.22379e-23
6.64846e-23
4.00149e-23
5.22158e-23
3.8102e-23
3.8102e-23
3.66027e-23
2.40399e-23
3.54654e-23
1.0133e-23
3.47933e-23
3.45865e-23
-2.61219e-14
1.43165e-13
-5.18005e-14
1.41522e-13
-7.68187e-14
1.38426e-13
-1.00915e-13
1.33883e-13
-1.2388e-13
1.28183e-13
-1.45484e-13
1.21248e-13
-1.65477e-13
1.13219e-13
-1.83799e-13
1.04436e-13
-2.00224e-13
9.49109e-14
-2.14557e-13
8.47593e-14
-2.26876e-13
7.42951e-14
-2.37848e-13
6.43288e-14
-2.46054e-13
5.38138e-14
-2.53296e-13
4.4399e-14
-2.61705e-13
4.21041e-14
-2.6333e-13
3.17755e-14
-2.64636e-13
1.55863e-14
-2.66498e-13
1.02989e-14
-2.68934e-13
1.01858e-14
-2.66958e-13
6.20467e-15
-2.63431e-13
-1.28765e-14
-2.62222e-13
-9.08516e-15
-2.59328e-13
-1.38483e-14
-2.55128e-13
-1.89321e-14
-2.51589e-13
-2.29804e-14
-2.471e-13
-2.54196e-14
-2.42247e-13
-2.90353e-14
-2.36931e-13
-3.25166e-14
-2.31104e-13
-3.58259e-14
-2.24616e-13
-3.97366e-14
-2.17555e-13
-4.36107e-14
-2.09803e-13
-4.76191e-14
-2.01312e-13
-5.18535e-14
-1.92023e-13
-5.62154e-14
-1.81906e-13
-6.04602e-14
-1.71004e-13
-6.52805e-14
-1.59224e-13
-6.96171e-14
-1.4648e-13
-7.41854e-14
-1.32985e-13
-7.83945e-14
-1.18704e-13
-8.22503e-14
-1.03666e-13
-8.58714e-14
-8.79488e-14
-8.89316e-14
-7.17114e-14
-9.13528e-14
-5.50898e-14
-9.32131e-14
-3.82194e-14
-9.4218e-14
-2.12164e-14
-9.44576e-14
-4.37982e-15
-9.36809e-14
1.22521e-14
-9.20529e-14
2.84817e-14
-8.95121e-14
4.40826e-14
-8.60809e-14
5.87798e-14
-8.16885e-14
7.25965e-14
-7.6498e-14
8.52271e-14
-7.0625e-14
9.652e-14
-6.39152e-14
1.06555e-13
-5.69381e-14
1.15099e-13
-4.96724e-14
1.22201e-13
-4.19337e-14
1.27786e-13
-3.42751e-14
1.32017e-13
-2.67428e-14
1.34728e-13
-1.92557e-14
1.3612e-13
-1.21024e-14
1.36348e-13
-5.63836e-15
1.35415e-13
7.34412e-16
1.33342e-13
6.33958e-15
1.30364e-13
1.13476e-14
1.26582e-13
1.5855e-14
1.22147e-13
1.93805e-14
1.17127e-13
2.22411e-14
1.11643e-13
2.42751e-14
1.05908e-13
2.54482e-14
1.00021e-13
2.56927e-14
9.42204e-14
2.50119e-14
8.88585e-14
2.32472e-14
8.4538e-14
2.05975e-14
8.2307e-14
1.73017e-14
8.33787e-14
1.41149e-14
7.34747e-14
3.35765e-14
-4.78849e-16
3.0597e-13
1.39637e-17
1.67794e-13
5.6414e-22
-7.61012e-22
5.64189e-22
-7.54802e-24
5.61345e-22
3.87741e-24
5.54831e-22
1.49927e-23
5.47128e-22
2.59011e-23
5.38391e-22
3.62409e-23
5.28775e-22
4.60119e-23
5.1828e-22
5.51109e-23
5.06803e-22
6.33827e-23
4.94292e-22
7.0879e-23
4.81109e-22
7.75999e-23
4.66944e-22
8.32351e-23
4.52209e-22
8.80947e-23
4.36441e-22
9.19205e-23
4.20363e-22
9.50224e-23
4.03509e-22
9.71937e-23
3.86397e-22
9.85896e-23
3.68871e-22
9.921e-23
3.51035e-22
9.91066e-23
3.33147e-22
9.83311e-23
3.14897e-22
9.69869e-23
2.96803e-22
9.49707e-23
2.7845e-22
9.25925e-23
2.60407e-22
8.97491e-23
2.42364e-22
8.66472e-23
2.24735e-22
8.31317e-23
2.0695e-22
7.93059e-23
1.89786e-22
7.55836e-23
1.72829e-22
7.16028e-23
1.56182e-22
6.76737e-23
1.39949e-22
6.38997e-23
1.24129e-22
6.0074e-23
1.08723e-22
5.66102e-23
9.36265e-23
5.33532e-23
7.89958e-23
5.04063e-23
6.45718e-23
4.7718e-23
5.06648e-23
4.55466e-23
3.69129e-23
4.38923e-23
2.33679e-23
4.26515e-23
9.87447e-24
4.19794e-23
4.16692e-23
-2.76096e-14
1.70794e-13
-5.47493e-14
1.68697e-13
-8.11759e-14
1.64883e-13
-1.06652e-13
1.59386e-13
-1.30792e-13
1.52355e-13
-1.5344e-13
1.43923e-13
-1.74282e-13
1.34089e-13
-1.93193e-13
1.23377e-13
-2.09931e-13
1.11678e-13
-2.24367e-13
9.92221e-14
-2.37185e-13
8.71424e-14
-2.47829e-13
7.49989e-14
-2.5491e-13
6.09231e-14
-2.63941e-13
5.34535e-14
-2.72032e-13
5.02254e-14
-2.69861e-13
2.96297e-14
-2.71586e-13
1.73373e-14
-2.7361e-13
1.23489e-14
-2.77694e-13
1.4293e-14
-2.68067e-13
-3.39736e-15
-2.6945e-13
-1.14674e-14
-2.66332e-13
-1.21788e-14
-2.63356e-13
-1.6803e-14
-2.5838e-13
-2.38865e-14
-2.55176e-13
-2.61653e-14
-2.5056e-13
-3.00172e-14
-2.45751e-13
-3.38271e-14
-2.40497e-13
-3.77552e-14
-2.34766e-13
-4.15406e-14
-2.28509e-13
-4.59805e-14
-2.21616e-13
-5.0492e-14
-2.14053e-13
-5.51717e-14
-2.05701e-13
-6.01956e-14
-1.96531e-13
-6.53796e-14
-1.86526e-13
-7.0462e-14
-1.75513e-13
-7.62899e-14
-1.63674e-13
-8.14569e-14
-1.50774e-13
-8.70854e-14
-1.36945e-13
-9.22245e-14
-1.22219e-13
-9.69798e-14
-1.06688e-13
-1.01409e-13
-9.03652e-14
-1.05262e-13
-7.34784e-14
-1.08247e-13
-5.61486e-14
-1.10554e-13
-3.83912e-14
-1.11988e-13
-2.05419e-14
-1.1232e-13
-2.67453e-15
-1.11564e-13
1.49109e-14
-1.09653e-13
3.20582e-14
-1.06678e-13
4.84732e-14
-1.02515e-13
6.40288e-14
-9.72676e-14
7.84917e-14
-9.09852e-14
9.17056e-14
-8.38626e-14
1.03528e-13
-7.57627e-14
1.13959e-13
-6.73958e-14
1.22671e-13
-5.84123e-14
1.29882e-13
-4.91726e-14
1.35436e-13
-3.98586e-14
1.39434e-13
-3.07704e-14
1.41839e-13
-2.16944e-14
1.42905e-13
-1.32056e-14
1.42577e-13
-5.3463e-15
1.41004e-13
2.27308e-15
1.38402e-13
8.90135e-15
1.34705e-13
1.50042e-14
1.3023e-13
2.02893e-14
1.24991e-13
2.45804e-14
1.19206e-13
2.79875e-14
1.12867e-13
3.05721e-14
1.06146e-13
3.21266e-14
9.92426e-14
3.25542e-14
9.24059e-14
3.18038e-14
8.61074e-14
2.95035e-14
8.13149e-14
2.53476e-14
7.93327e-14
1.92379e-14
8.22451e-14
1.11603e-14
5.14803e-15
1.1063e-13
-8.09221e-15
3.19164e-13
1.31662e-17
1.59651e-13
5.74067e-22
-8.40422e-22
5.75614e-22
-8.5303e-24
5.72461e-22
5.11818e-24
5.6574e-22
1.84048e-23
5.57416e-22
3.11744e-23
5.48162e-22
4.35821e-23
5.37874e-22
5.50592e-23
5.26604e-22
6.57609e-23
5.143e-22
7.55836e-23
5.01013e-22
8.43207e-23
4.86744e-22
9.20756e-23
4.71751e-22
9.8693e-23
4.56035e-22
1.04225e-22
4.39595e-22
1.08619e-22
4.22534e-22
1.12083e-22
4.04957e-22
1.14409e-22
3.86965e-22
1.15857e-22
3.68767e-22
1.16426e-22
3.50259e-22
1.16167e-22
3.31751e-22
1.15133e-22
3.12933e-22
1.1322e-22
2.94373e-22
1.10946e-22
2.75606e-22
1.07999e-22
2.57305e-22
1.04587e-22
2.38848e-22
1.00709e-22
2.20909e-22
9.66767e-23
2.03228e-22
9.22306e-23
1.85857e-22
8.77846e-23
1.689e-22
8.32351e-23
1.52356e-22
7.86856e-23
1.36226e-22
7.41361e-23
1.20665e-22
6.98968e-23
1.05414e-22
6.58126e-23
9.06797e-23
6.20386e-23
7.63074e-23
5.87298e-23
6.24521e-23
5.58347e-23
4.90105e-23
5.34049e-23
3.56722e-23
5.1492e-23
2.26958e-23
5.00961e-23
9.61598e-24
4.91139e-23
4.90105e-23
-2.94805e-14
2.00294e-13
-5.84535e-14
1.97706e-13
-8.66305e-14
1.93089e-13
-1.1371e-13
1.86494e-13
-1.39283e-13
1.77955e-13
-1.6308e-13
1.67749e-13
-1.84992e-13
1.56031e-13
-2.04574e-13
1.42987e-13
-2.21661e-13
1.28789e-13
-2.36719e-13
1.14309e-13
-2.49834e-13
1.00282e-13
-2.58741e-13
8.39311e-14
-2.66865e-13
6.90751e-14
-2.78565e-13
6.51803e-14
-2.80144e-13
5.18324e-14
-2.79293e-13
2.88058e-14
-2.80352e-13
1.8422e-14
-2.83188e-13
1.52111e-14
-2.83616e-13
1.47444e-14
-2.72974e-13
-1.40153e-14
-2.75468e-13
-8.95072e-15
-2.71039e-13
-1.65832e-14
-2.67059e-13
-2.07615e-14
-2.62696e-13
-2.82269e-14
-2.58919e-13
-2.99227e-14
-2.5441e-13
-3.45084e-14
-2.49557e-13
-3.86621e-14
-2.44596e-13
-4.27014e-14
-2.39071e-13
-4.70506e-14
-2.33038e-13
-5.20002e-14
-2.26471e-13
-5.70481e-14
-2.19069e-13
-6.2565e-14
-2.10932e-13
-6.83259e-14
-2.01883e-13
-7.44215e-14
-1.9198e-13
-8.03593e-14
-1.81125e-13
-8.71405e-14
-1.68976e-13
-9.36056e-14
-1.55914e-13
-1.00144e-13
-1.41771e-13
-1.06369e-13
-1.26583e-13
-1.12173e-13
-1.10532e-13
-1.17465e-13
-9.35489e-14
-1.22251e-13
-7.57692e-14
-1.26037e-13
-5.74718e-14
-1.28862e-13
-3.88328e-14
-1.30637e-13
-1.98374e-14
-1.31332e-13
-8.19215e-16
-1.30599e-13
1.79303e-14
-1.2842e-13
3.61299e-14
-1.24894e-13
5.36681e-14
-1.20074e-13
7.02504e-14
-1.13871e-13
8.57064e-14
-1.06461e-13
9.96188e-14
-9.78e-14
1.12078e-13
-8.82469e-14
1.22877e-13
-7.82215e-14
1.31815e-13
-6.73776e-14
1.39078e-13
-5.64631e-14
1.44594e-13
-4.54038e-14
1.48322e-13
-3.45323e-14
1.50385e-13
-2.37872e-14
1.5098e-13
-1.38344e-14
1.50085e-13
-4.48466e-15
1.47831e-13
4.49065e-15
1.44359e-13
1.23394e-14
1.39884e-13
1.94411e-14
1.34609e-13
2.55267e-14
1.28515e-13
3.06343e-14
1.21703e-13
3.47579e-14
1.14382e-13
3.78509e-14
1.06579e-13
3.98879e-14
9.84442e-14
4.06459e-14
9.01371e-14
4.00689e-14
8.1898e-14
3.77006e-14
7.47505e-14
3.24503e-14
7.2165e-14
2.17802e-14
8.52219e-14
-1.94015e-15
-2.93339e-14
2.25142e-13
-2.97167e-15
2.92759e-13
1.32539e-17
1.56632e-13
5.85647e-22
-8.80128e-22
5.89263e-22
-8.89219e-24
5.85799e-22
6.82424e-24
5.78509e-22
2.21788e-23
5.69824e-22
3.71714e-23
5.59639e-22
5.13886e-23
5.48576e-22
6.48303e-23
5.36323e-22
7.7238e-23
5.23037e-22
8.856e-23
5.08768e-22
9.85896e-23
4.9331e-22
1.07378e-22
4.77283e-22
1.14978e-22
4.60429e-22
1.21182e-22
4.42955e-22
1.26093e-22
4.24912e-22
1.29764e-22
4.06353e-22
1.32246e-22
3.87586e-22
1.33693e-22
3.68509e-22
1.34158e-22
3.49225e-22
1.33486e-22
3.2989e-22
1.3209e-22
3.10658e-22
1.29919e-22
2.91426e-22
1.26921e-22
2.72194e-22
1.23405e-22
2.53376e-22
1.19476e-22
2.34868e-22
1.1503e-22
2.16463e-22
1.1017e-22
1.98834e-22
1.05207e-22
1.81204e-22
1.00037e-22
1.64402e-22
9.48156e-23
1.47807e-22
8.9594e-23
1.31935e-22
8.44758e-23
1.16529e-22
7.96678e-23
1.01692e-22
7.517e-23
8.7371e-23
7.10341e-23
7.34123e-23
6.72601e-23
6.00223e-23
6.41065e-23
4.70976e-23
6.14699e-23
3.42763e-23
5.92985e-23
2.17652e-23
5.77476e-23
9.46088e-24
5.69721e-23
5.67653e-23
-3.17803e-14
2.32092e-13
-6.30092e-14
2.28968e-13
-9.3283e-14
2.23393e-13
-1.22239e-13
2.15478e-13
-1.49546e-13
2.05293e-13
-1.74753e-13
1.92985e-13
-1.97768e-13
1.79075e-13
-2.18245e-13
1.63491e-13
-2.36041e-13
1.46611e-13
-2.51854e-13
1.30151e-13
-2.6405e-13
1.12507e-13
-2.7155e-13
9.14548e-14
-2.83686e-13
8.12375e-14
-2.93493e-13
7.50135e-14
-2.88828e-13
4.7192e-14
-2.90801e-13
3.08046e-14
-2.91677e-13
1.93258e-14
-2.94418e-13
1.79742e-14
-2.8369e-13
4.04143e-15
-2.83868e-13
-1.3816e-14
-2.79936e-13
-1.28589e-14
-2.76546e-13
-1.99492e-14
-2.70641e-13
-2.66437e-14
-2.67602e-13
-3.12422e-14
-2.62977e-13
-3.45296e-14
-2.58476e-13
-3.89913e-14
-2.53868e-13
-4.32538e-14
-2.49116e-13
-4.74368e-14
-2.43821e-13
-5.23309e-14
-2.38188e-13
-5.76213e-14
-2.31904e-13
-6.33209e-14
-2.24933e-13
-6.95273e-14
-2.17046e-13
-7.62045e-14
-2.08259e-13
-8.3203e-14
-1.98488e-13
-9.01274e-14
-1.87611e-13
-9.80136e-14
-1.75371e-13
-1.05842e-13
-1.62181e-13
-1.13335e-13
-1.47679e-13
-1.20871e-13
-1.31978e-13
-1.27879e-13
-1.15159e-13
-1.34285e-13
-9.74474e-14
-1.39967e-13
-7.87612e-14
-1.4473e-13
-5.92498e-14
-1.48383e-13
-3.92911e-14
-1.50605e-13
-1.90791e-14
-1.51555e-13
1.29797e-15
-1.50989e-13
2.15031e-14
-1.48638e-13
4.11212e-14
-1.44528e-13
5.99444e-14
-1.38914e-13
7.77721e-14
-1.3172e-13
9.41665e-14
-1.22877e-13
1.08946e-13
-1.12603e-13
1.22299e-13
-1.01622e-13
1.33509e-13
-8.94573e-14
1.42811e-13
-7.67078e-14
1.50126e-13
-6.38042e-14
1.55537e-13
-5.08426e-14
1.58885e-13
-3.79098e-14
1.60582e-13
-2.55149e-14
1.60526e-13
-1.38112e-14
1.58801e-13
-2.79311e-15
1.55771e-13
7.48673e-15
1.51377e-13
1.66964e-14
1.46011e-13
2.47692e-14
1.39773e-13
3.17277e-14
1.32616e-13
3.7752e-14
1.24822e-13
4.25139e-14
1.16339e-13
4.6293e-14
1.07406e-13
4.87817e-14
9.78916e-14
5.01197e-14
8.77529e-14
5.01636e-14
7.68086e-14
4.86045e-14
6.43246e-14
4.48914e-14
4.87522e-14
3.73093e-14
2.2833e-14
2.39342e-14
-1.86588e-14
2.66589e-13
-1.75036e-15
2.75807e-13
1.22096e-17
1.54836e-13
6.08808e-22
-8.80128e-22
6.05031e-22
-9.20239e-24
6.01154e-22
8.78879e-24
5.9345e-22
2.65215e-23
5.84145e-22
4.36338e-23
5.73029e-22
5.99189e-23
5.60984e-22
7.53768e-23
5.47697e-22
8.96457e-23
5.33066e-22
1.02467e-22
5.17608e-22
1.13841e-22
5.0091e-22
1.23715e-22
4.83487e-22
1.3209e-22
4.65393e-22
1.38915e-22
4.46626e-22
1.4424e-22
4.27342e-22
1.48169e-22
4.07852e-22
1.50754e-22
3.88051e-22
1.51994e-22
3.67837e-22
1.52046e-22
3.47829e-22
1.51271e-22
3.27719e-22
1.49306e-22
3.07608e-22
1.46566e-22
2.87911e-22
1.43154e-22
2.68317e-22
1.3907e-22
2.4893e-22
1.34417e-22
2.30008e-22
1.29402e-22
2.11551e-22
1.2387e-22
1.93612e-22
1.18339e-22
1.75983e-22
1.12548e-22
1.59129e-22
1.06758e-22
1.4274e-22
1.01019e-22
1.27076e-22
9.54877e-23
1.12083e-22
9.02144e-23
9.75556e-23
8.51996e-23
8.35452e-23
8.06501e-23
7.03104e-23
7.66693e-23
5.7334e-23
7.29987e-23
4.49263e-23
7.01036e-23
3.26736e-23
6.77771e-23
2.09897e-23
6.61745e-23
9.25408e-24
6.52956e-23
6.50888e-23
-3.45432e-14
2.66655e-13
-6.83492e-14
2.62809e-13
-1.011e-13
2.56172e-13
-1.32404e-13
2.46812e-13
-1.61714e-13
2.34632e-13
-1.88704e-13
2.20004e-13
-2.13272e-13
2.03674e-13
-2.33896e-13
1.8414e-13
-2.53585e-13
1.66327e-13
-2.69737e-13
1.46325e-13
-2.77854e-13
1.20649e-13
-2.91451e-13
1.05079e-13
-3.05661e-13
9.54743e-14
-3.02056e-13
7.14329e-14
-3.0386e-13
4.90228e-14
-3.02649e-13
2.96138e-14
-3.08303e-13
2.50038e-14
-2.99158e-13
8.85091e-15
-2.90979e-13
-4.11431e-15
-2.92133e-13
-1.26399e-14
-2.86146e-13
-1.88226e-14
-2.81071e-13
-2.5e-14
-2.75585e-13
-3.2109e-14
-2.71945e-13
-3.48637e-14
-2.67175e-13
-3.92816e-14
-2.62796e-13
-4.33549e-14
-2.58485e-13
-4.75495e-14
-2.53937e-13
-5.19691e-14
-2.4909e-13
-5.71617e-14
-2.43873e-13
-6.28268e-14
-2.3808e-13
-6.91029e-14
-2.31499e-13
-7.60987e-14
-2.24091e-13
-8.36041e-14
-2.15616e-13
-9.16732e-14
-2.06156e-13
-9.95809e-14
-1.95145e-13
-1.09021e-13
-1.82971e-13
-1.18014e-13
-1.6944e-13
-1.26865e-13
-1.54711e-13
-1.35601e-13
-1.38471e-13
-1.4412e-13
-1.2093e-13
-1.51832e-13
-1.02155e-13
-1.58746e-13
-8.24109e-14
-1.64478e-13
-6.16635e-14
-1.6914e-13
-4.01412e-14
-1.72138e-13
-1.83119e-14
-1.73396e-13
3.71913e-15
-1.73029e-13
2.54715e-14
-1.70405e-13
4.6794e-14
-1.65866e-13
6.72944e-14
-1.59432e-13
8.65256e-14
-1.50969e-13
1.04194e-13
-1.40566e-13
1.20326e-13
-1.28756e-13
1.34351e-13
-1.1567e-13
1.46059e-13
-1.01194e-13
1.55799e-13
-8.64715e-14
1.63184e-13
-7.12144e-14
1.68343e-13
-5.60256e-14
1.71291e-13
-4.08857e-14
1.72356e-13
-2.66061e-14
1.71532e-13
-1.30185e-14
1.68971e-13
-2.65852e-16
1.64921e-13
1.15036e-14
1.59584e-13
2.19967e-14
1.53151e-13
3.11712e-14
1.45694e-13
3.91474e-14
1.37458e-13
4.59528e-14
1.2846e-13
5.14742e-14
1.18877e-13
5.58366e-14
1.08696e-13
5.89217e-14
9.78613e-14
6.09155e-14
8.62114e-14
6.17738e-14
7.30157e-14
6.17603e-14
5.66042e-14
6.1262e-14
3.2268e-14
6.16048e-14
-1.68781e-14
7.30376e-14
-1.1651e-14
2.61321e-13
-4.47872e-15
2.68593e-13
1.22169e-17
1.50313e-13
6.25352e-22
-8.83437e-22
6.23074e-22
-9.40918e-24
6.18835e-22
1.12186e-23
6.10563e-22
3.14329e-23
6.00378e-22
5.11301e-23
5.88539e-22
6.97417e-23
5.75201e-22
8.71642e-23
5.60518e-22
1.03139e-22
5.44543e-22
1.1746e-22
5.27431e-22
1.30229e-22
5.09233e-22
1.41189e-22
4.90363e-22
1.50288e-22
4.70718e-22
1.57733e-22
4.50607e-22
1.63316e-22
4.29979e-22
1.67452e-22
4.09093e-22
1.69934e-22
3.88103e-22
1.71175e-22
3.67061e-22
1.70968e-22
3.45917e-22
1.69572e-22
3.24979e-22
1.67194e-22
3.04144e-22
1.63885e-22
2.83826e-22
1.59904e-22
2.63612e-22
1.55096e-22
2.43967e-22
1.49875e-22
2.24528e-22
1.44188e-22
2.05916e-22
1.38243e-22
1.87822e-22
1.31935e-22
1.70192e-22
1.25576e-22
1.5339e-22
1.19269e-22
1.37209e-22
1.13065e-22
1.21802e-22
1.07068e-22
1.07068e-22
1.01175e-22
9.30061e-23
9.58496e-23
7.95127e-23
9.08865e-23
6.66397e-23
8.64404e-23
5.44905e-23
8.2563e-23
4.25481e-23
7.93576e-23
3.11227e-23
7.68244e-23
2.00591e-23