/*--------------------------------*- C++ -*----------------------------------*\
  =========                 |
  \\      /  F ield         | OpenFOAM: The Open Source CFD Toolbox
   \\    /   O peration     | Website:  https://openfoam.org
    \\  /    A nd           | Version:  6
     \\/     M anipulation  |
\*---------------------------------------------------------------------------*/
FoamFile
{
    version     2.0;
    format      ascii;
    class       surfaceScalarField;
    location    "2700";
    object      phi;
}
// * * * * * * * * * * * * * * * * * * * * * * * * * * * * * * * * * * * * * //

dimensions      [0 3 -1 0 0 0 0];

internalField   nonuniform List<scalar> 
9440
(
-3.21302e-14
3.21298e-14
-6.46284e-14
3.23959e-14
-9.7439e-14
3.27291e-14
-1.30571e-13
3.30558e-14
-1.64032e-13
3.33807e-14
-1.97821e-13
3.37097e-14
-2.31943e-13
3.40429e-14
-2.66363e-13
3.43397e-14
-3.0102e-13
3.45785e-14
-3.35739e-13
3.46403e-14
-3.70428e-13
3.46101e-14
-4.04885e-13
3.43745e-14
-4.38827e-13
3.38592e-14
-4.72447e-13
3.3537e-14
-5.05542e-13
3.3012e-14
-5.38378e-13
3.27524e-14
-5.70558e-13
3.20965e-14
-6.00117e-13
2.9475e-14
-6.28506e-13
2.83033e-14
-6.56484e-13
2.78938e-14
-6.84096e-13
2.7524e-14
-7.07123e-13
2.29399e-14
-7.30081e-13
2.28711e-14
-7.51365e-13
2.1197e-14
-7.70563e-13
1.9113e-14
-7.88036e-13
1.73874e-14
-8.03793e-13
1.56687e-14
-8.17741e-13
1.38622e-14
-8.2986e-13
1.20338e-14
-8.401e-13
1.01551e-14
-8.48459e-13
8.27687e-15
-8.54948e-13
6.40827e-15
-8.59569e-13
4.54106e-15
-8.62277e-13
2.63225e-15
-8.63079e-13
7.24492e-16
-8.62026e-13
-1.12687e-15
-8.59056e-13
-3.04204e-15
-8.54245e-13
-4.87929e-15
-8.47542e-13
-6.76792e-15
-8.39026e-13
-8.57722e-15
-8.28688e-13
-1.03948e-14
-8.16587e-13
-1.2156e-14
-8.02769e-13
-1.38675e-14
-7.87271e-13
-1.55473e-14
-7.70221e-13
-1.70882e-14
-7.51628e-13
-1.86302e-14
-7.31585e-13
-2.00753e-14
-7.10253e-13
-2.13575e-14
-6.87672e-13
-2.26041e-14
-6.63984e-13
-2.37046e-14
-6.39328e-13
-2.46644e-14
-6.13804e-13
-2.55288e-14
-5.87585e-13
-2.62188e-14
-5.60816e-13
-2.67633e-14
-5.33634e-13
-2.71683e-14
-5.06138e-13
-2.74777e-14
-4.78477e-13
-2.76368e-14
-4.50761e-13
-2.76879e-14
-4.23157e-13
-2.75667e-14
-3.95686e-13
-2.74315e-14
-3.6846e-13
-2.71767e-14
-3.41542e-13
-2.68638e-14
-3.14987e-13
-2.64979e-14
-2.88818e-13
-2.61069e-14
-2.63078e-13
-2.56698e-14
-2.3769e-13
-2.53146e-14
-2.12681e-13
-2.4932e-14
-1.87982e-13
-2.4618e-14
-1.63475e-13
-2.44213e-14
-1.38972e-13
-2.44129e-14
-1.14332e-13
-2.45477e-14
-8.91995e-14
-2.50366e-14
-6.29839e-14
-2.6116e-14
-3.4122e-14
-2.87607e-14
1.46524e-15
-3.54848e-14
5.63375e-14
-5.47651e-14
1.70413e-13
-1.13969e-13
7.04967e-14
1.00026e-13
-6.82005e-17
7.06749e-14
1.78681e-21
-9.52968e-22
1.76872e-21
-1.18907e-24
1.76748e-21
1.29247e-24
1.76991e-21
6.25555e-24
1.76722e-21
1.16839e-23
1.75848e-21
1.70089e-23
1.74385e-21
2.21271e-23
1.72343e-21
2.69868e-23
1.69779e-21
3.1588e-23
1.66713e-21
3.58273e-23
1.63187e-21
3.9653e-23
1.59258e-21
4.31685e-23
1.54941e-21
4.62704e-23
1.50283e-21
4.88554e-23
1.45341e-21
5.12335e-23
1.40155e-21
5.31464e-23
1.34753e-21
5.46973e-23
1.29185e-21
5.58347e-23
1.23488e-21
5.67653e-23
1.17677e-21
5.7334e-23
1.11793e-21
5.77993e-23
1.05879e-21
5.79543e-23
9.99338e-22
5.77993e-23
9.39729e-22
5.76959e-23
8.80586e-22
5.7334e-23
8.21494e-22
5.6817e-23
7.62971e-22
5.63517e-23
7.04861e-22
5.5783e-23
6.47217e-22
5.52143e-23
5.90452e-22
5.45939e-23
5.34152e-22
5.39735e-23
4.78472e-22
5.34049e-23
4.23361e-22
5.29396e-23
3.68767e-22
5.24226e-23
3.14897e-22
5.2009e-23
2.61596e-22
5.15954e-23
2.08553e-22
5.12335e-23
1.55872e-22
5.10784e-23
1.03553e-22
5.08716e-23
5.15437e-23
5.06648e-23
5.03546e-23
-3.13804e-14
6.34087e-14
-6.43909e-14
6.52422e-14
-9.76459e-14
6.58424e-14
-1.31011e-13
6.62818e-14
-1.64589e-13
6.68168e-14
-1.98462e-13
6.74427e-14
-2.32668e-13
6.81073e-14
-2.67172e-13
6.87022e-14
-3.01834e-13
6.90972e-14
-3.36632e-13
6.92921e-14
-3.71365e-13
6.91946e-14
-4.05852e-13
6.87175e-14
-4.39854e-13
6.77152e-14
-4.7347e-13
6.70062e-14
-5.06641e-13
6.60304e-14
-5.39946e-13
6.59074e-14
-5.71761e-13
6.37594e-14
-6.01355e-13
5.89154e-14
-6.29919e-13
5.67133e-14
-6.58291e-13
5.61105e-14
-6.85395e-13
5.4472e-14
-7.08857e-13
4.62481e-14
-7.318e-13
4.56588e-14
-7.53167e-13
4.24083e-14
-7.72312e-13
3.81025e-14
-7.89872e-13
3.47931e-14
-8.05638e-13
3.12822e-14
-8.19605e-13
2.7677e-14
-8.31698e-13
2.39772e-14
-8.4194e-13
2.02528e-14
-8.50326e-13
1.65166e-14
-8.56852e-13
1.27896e-14
-8.61416e-13
8.96416e-15
-8.64139e-13
5.21922e-15
-8.6501e-13
1.46805e-15
-8.63881e-13
-2.38162e-15
-8.60909e-13
-6.13583e-15
-8.56094e-13
-9.80795e-15
-8.49379e-13
-1.35927e-14
-8.40814e-13
-1.72422e-14
-8.30453e-13
-2.08502e-14
-8.18293e-13
-2.44036e-14
-8.04429e-13
-2.78091e-14
-7.88917e-13
-3.11317e-14
-7.7171e-13
-3.43603e-14
-7.53023e-13
-3.737e-14
-7.32883e-13
-4.02603e-14
-7.11423e-13
-4.28558e-14
-6.88721e-13
-4.53328e-14
-6.6491e-13
-4.75313e-14
-6.40122e-13
-4.94609e-14
-6.1451e-13
-5.11357e-14
-5.88171e-13
-5.25463e-14
-5.61239e-13
-5.36714e-14
-5.33925e-13
-5.44468e-14
-5.06271e-13
-5.50869e-14
-4.78474e-13
-5.53801e-14
-4.50679e-13
-5.5418e-14
-4.22986e-13
-5.51836e-14
-3.95424e-13
-5.49079e-14
-3.68129e-13
-5.43775e-14
-3.41134e-13
-5.37541e-14
-3.14552e-13
-5.29648e-14
-2.88424e-13
-5.21125e-14
-2.62655e-13
-5.13058e-14
-2.37326e-13
-5.05055e-14
-2.1241e-13
-4.96991e-14
-1.87794e-13
-4.90819e-14
-1.63359e-13
-4.86949e-14
-1.39061e-13
-4.85454e-14
-1.14774e-13
-4.86601e-14
-9.03266e-14
-4.93071e-14
-6.54546e-14
-5.0807e-14
-4.03578e-14
-5.36717e-14
-1.6464e-14
-5.91861e-14
-1.62126e-15
-6.94142e-14
-2.89906e-14
-8.64051e-14
5.26746e-16
7.07049e-14
-5.25283e-17
7.14087e-14
1.80005e-21
-2.17068e-21
1.77115e-21
-2.74004e-24
1.77249e-21
7.65142e-24
1.77534e-21
1.83014e-23
1.7726e-21
2.88996e-23
1.76365e-21
3.91877e-23
1.74866e-21
4.89071e-23
1.72803e-21
5.81094e-23
1.70198e-21
6.67948e-23
1.67101e-21
7.47048e-23
1.63544e-21
8.19426e-23
1.59558e-21
8.83532e-23
1.55205e-21
9.39884e-23
1.50516e-21
9.88998e-23
1.45527e-21
1.03139e-22
1.40305e-21
1.06603e-22
1.34877e-21
1.09343e-22
1.29268e-21
1.11514e-22
1.2355e-21
1.13117e-22
1.17723e-21
1.13944e-22
1.11809e-21
1.14409e-22
1.05869e-21
1.14565e-22
9.99183e-22
1.14358e-22
9.3947e-22
1.13737e-22
8.80069e-22
1.13065e-22
8.2108e-22
1.12135e-22
7.62402e-22
1.10997e-22
7.04241e-22
1.0986e-22
6.46649e-22
1.08671e-22
5.89832e-22
1.07482e-22
5.33583e-22
1.06396e-22
4.77955e-22
1.05207e-22
4.22844e-22
1.04225e-22
3.68354e-22
1.03346e-22
3.14484e-22
1.02726e-22
2.61234e-22
1.02209e-22
2.08398e-22
1.01795e-22
1.55665e-22
1.0133e-22
1.03398e-22
1.01175e-22
5.12335e-23
1.01019e-22
1.01123e-22
-3.27991e-14
9.61274e-14
-6.47427e-14
9.70435e-14
-9.69423e-14
9.79166e-14
-1.29661e-13
9.88797e-14
-1.62891e-13
9.99257e-14
-1.96599e-13
1.01029e-13
-2.30808e-13
1.02194e-13
-2.65416e-13
1.03187e-13
-3.00371e-13
1.03929e-13
-3.35491e-13
1.04287e-13
-3.70647e-13
1.04225e-13
-4.05517e-13
1.0346e-13
-4.40092e-13
1.02165e-13
-4.74178e-13
1.00964e-13
-5.07969e-13
9.96929e-14
-5.42276e-13
1.00081e-13
-5.7374e-13
9.50909e-14
-6.03503e-13
8.85478e-14
-6.32715e-13
8.57946e-14
-6.61959e-13
8.52208e-14
-6.87904e-13
8.02817e-14
-7.12104e-13
7.0313e-14
-7.35192e-13
6.86134e-14
-7.56647e-13
6.37275e-14
-7.75753e-13
5.70761e-14
-7.9346e-13
5.23683e-14
-8.09294e-13
4.69839e-14
-8.23287e-13
4.1539e-14
-8.35425e-13
3.59827e-14
-8.45722e-13
3.04199e-14
-8.54126e-13
2.47969e-14
-8.60626e-13
1.91641e-14
-8.65221e-13
1.34374e-14
-8.67924e-13
7.80455e-15
-8.68753e-13
2.18361e-15
-8.67658e-13
-3.58542e-15
-8.64668e-13
-9.22946e-15
-8.59803e-13
-1.47728e-14
-8.53011e-13
-2.04812e-14
-8.44372e-13
-2.59692e-14
-8.33938e-13
-3.13682e-14
-8.21756e-13
-3.66622e-14
-8.07718e-13
-4.19177e-14
-7.92036e-13
-4.68733e-14
-7.74711e-13
-5.17398e-14
-7.55879e-13
-5.62501e-14
-7.35564e-13
-6.06154e-14
-7.13863e-13
-6.45883e-14
-6.90936e-13
-6.82832e-14
-6.66868e-13
-7.16157e-14
-6.41825e-13
-7.45099e-14
-6.15887e-13
-7.70688e-14
-5.89274e-13
-7.91464e-14
-5.621e-13
-8.0825e-14
-5.34512e-13
-8.20035e-14
-5.06558e-13
-8.30017e-14
-4.78528e-13
-8.33638e-14
-4.50501e-13
-8.33871e-14
-4.22575e-13
-8.30452e-14
-3.94866e-13
-8.25417e-14
-3.6743e-13
-8.17331e-14
-3.40393e-13
-8.07005e-14
-3.13785e-13
-7.94752e-14
-2.87562e-13
-7.82285e-14
-2.61876e-13
-7.68761e-14
-2.36668e-13
-7.55954e-14
-2.11833e-13
-7.44041e-14
-1.87378e-13
-7.34013e-14
-1.63206e-13
-7.2725e-14
-1.39253e-13
-7.23512e-14
-1.15479e-13
-7.22852e-14
-9.17379e-14
-7.28916e-14
-6.83395e-14
-7.40463e-14
-4.59444e-14
-7.59051e-14
-2.69737e-14
-7.79923e-14
-1.79265e-14
-7.82932e-14
-3.54441e-14
-6.8718e-14
-1.16056e-14
4.70381e-14
-5.11642e-17
5.99905e-14
1.78681e-21
-2.91191e-21
1.78154e-21
-3.56722e-24
1.78309e-21
1.26662e-23
1.78588e-21
2.9003e-23
1.78283e-21
4.48229e-23
1.77342e-21
6.01257e-23
1.75786e-21
7.48082e-23
1.73672e-21
8.86634e-23
1.70989e-21
1.01588e-22
1.67819e-21
1.13479e-22
1.6418e-21
1.24181e-22
1.60127e-21
1.33848e-22
1.55696e-21
1.42172e-22
1.5094e-21
1.4941e-22
1.45873e-21
1.55458e-22
1.40574e-21
1.60628e-22
1.35084e-21
1.64609e-22
1.29433e-21
1.67607e-22
1.23638e-21
1.69779e-22
1.1777e-21
1.71278e-22
1.11819e-21
1.71898e-22
1.05848e-21
1.7195e-22
9.98562e-22
1.71537e-22
9.38747e-22
1.70658e-22
8.79138e-22
1.6952e-22
8.19943e-22
1.68073e-22
7.61265e-22
1.66418e-22
7.03052e-22
1.64816e-22
6.45511e-22
1.63058e-22
5.88694e-22
1.61352e-22
5.32446e-22
1.59749e-22
4.77025e-22
1.58198e-22
4.21966e-22
1.56699e-22
3.67734e-22
1.55458e-22
3.13967e-22
1.54476e-22
2.60769e-22
1.53597e-22
2.07933e-22
1.5308e-22
1.55458e-22
1.52615e-22
1.03294e-22
1.52408e-22
5.12852e-23
1.52408e-22
1.52718e-22
-3.2062e-14
1.28112e-13
-6.39188e-14
1.28761e-13
-9.59191e-14
1.29794e-13
-1.28419e-13
1.31259e-13
-1.61502e-13
1.32886e-13
-1.95258e-13
1.34666e-13
-2.29591e-13
1.36401e-13
-2.64445e-13
1.37918e-13
-2.99724e-13
1.39087e-13
-3.35312e-13
1.39751e-13
-3.70915e-13
1.39705e-13
-4.06273e-13
1.38689e-13
-4.41654e-13
1.37418e-13
-4.76075e-13
1.35257e-13
-5.10631e-13
1.34121e-13
-5.46159e-13
1.35482e-13
-5.77005e-13
1.25808e-13
-6.07006e-13
1.18418e-13
-6.3698e-13
1.15638e-13
-6.67871e-13
1.15983e-13
-6.91461e-13
1.03739e-13
-7.17164e-13
9.58873e-14
-7.40346e-13
9.16633e-14
-7.61838e-13
8.50873e-14
-7.81036e-13
7.61439e-14
-7.98886e-13
7.00887e-14
-8.14783e-13
6.27519e-14
-8.2886e-13
5.54873e-14
-8.41039e-13
4.80331e-14
-8.51399e-13
4.06538e-14
-8.59805e-13
3.30824e-14
-8.66296e-13
2.55353e-14
-8.70917e-13
1.79436e-14
-8.73597e-13
1.03683e-14
-8.74434e-13
2.91041e-15
-8.73315e-13
-4.8098e-15
-8.70314e-13
-1.23339e-14
-8.65375e-13
-1.9807e-14
-8.58556e-13
-2.73932e-14
-8.49862e-13
-3.47497e-14
-8.39252e-13
-4.20592e-14
-8.26864e-13
-4.91238e-14
-8.1275e-13
-5.61004e-14
-7.96851e-13
-6.28326e-14
-7.79332e-13
-6.93125e-14
-7.60174e-13
-7.54555e-14
-7.39556e-13
-8.12716e-14
-7.17558e-13
-8.66151e-14
-6.94282e-13
-9.15814e-14
-6.69827e-13
-9.60854e-14
-6.44355e-13
-9.99861e-14
-6.18047e-13
-1.03372e-13
-5.90986e-13
-1.06197e-13
-5.63351e-13
-1.08438e-13
-5.35299e-13
-1.10025e-13
-5.07016e-13
-1.11246e-13
-4.78653e-13
-1.11679e-13
-4.50255e-13
-1.11731e-13
-4.21999e-13
-1.11234e-13
-3.94022e-13
-1.10445e-13
-3.66406e-13
-1.09267e-13
-3.39176e-13
-1.0784e-13
-3.12453e-13
-1.06099e-13
-2.86263e-13
-1.04314e-13
-2.60588e-13
-1.02439e-13
-2.35478e-13
-1.00589e-13
-2.10823e-13
-9.89355e-14
-1.86632e-13
-9.74602e-14
-1.6283e-13
-9.63866e-14
-1.39324e-13
-9.57169e-14
-1.16022e-13
-9.54365e-14
-9.29427e-14
-9.58156e-14
-7.01622e-14
-9.66677e-14
-4.81527e-14
-9.7756e-14
-2.76799e-14
-9.83007e-14
-9.07642e-15
-9.67331e-14
1.23724e-14
-8.99989e-14
-1.39934e-14
7.35727e-14
-5.13977e-17
4.61822e-14
1.82651e-21
-3.73254e-21
1.79788e-21
-4.65289e-24
1.79938e-21
1.75259e-23
1.80175e-21
3.94979e-23
1.79814e-21
6.10563e-23
1.78811e-21
8.18392e-23
1.77177e-21
1.0164e-22
1.74964e-21
1.20303e-22
1.72172e-21
1.37415e-22
1.689e-21
1.53339e-22
1.65141e-21
1.67659e-22
1.60959e-21
1.80377e-22
1.56415e-21
1.91544e-22
1.5155e-21
2.01108e-22
1.4639e-21
2.09122e-22
1.40983e-21
2.15687e-22
1.35384e-21
2.20961e-22
1.2965e-21
2.24941e-22
1.23782e-21
2.2763e-22
1.17827e-21
2.29284e-22
1.11835e-21
2.30111e-22
1.05802e-21
2.30163e-22
9.97683e-22
2.29439e-22
9.37661e-22
2.28198e-22
8.7769e-22
2.26544e-22
8.18288e-22
2.24631e-22
7.5961e-22
2.22563e-22
7.01346e-22
2.20237e-22
6.43805e-22
2.17962e-22
5.87091e-22
2.15636e-22
5.30895e-22
2.13464e-22
4.75525e-22
2.11603e-22
4.20776e-22
2.09897e-22
3.667e-22
2.08346e-22
3.1314e-22
2.07105e-22
2.602e-22
2.06123e-22
2.07519e-22
2.05399e-22
1.55251e-22
2.05037e-22
1.03294e-22
2.04986e-22
5.15437e-23
2.05244e-22
2.05606e-22
-3.13113e-14
1.59344e-13
-6.27538e-14
1.60065e-13
-9.45525e-14
1.6147e-13
-1.2681e-13
1.63399e-13
-1.59851e-13
1.65808e-13
-1.93638e-13
1.68335e-13
-2.2815e-13
1.70795e-13
-2.6335e-13
1.72993e-13
-2.99104e-13
1.7472e-13
-3.35217e-13
1.75743e-13
-3.71391e-13
1.75755e-13
-4.07551e-13
1.74726e-13
-4.43827e-13
1.73568e-13
-4.78696e-13
1.7e-13
-5.14942e-13
1.7024e-13
-5.50289e-13
1.70699e-13
-5.81363e-13
1.56756e-13
-6.1229e-13
1.4922e-13
-6.43415e-13
1.46633e-13
-6.74447e-13
1.46885e-13
-6.97443e-13
1.26606e-13
-7.23873e-13
1.22187e-13
-7.47305e-13
1.14968e-13
-7.68602e-13
1.06253e-13
-7.88216e-13
9.56298e-14
-8.06135e-13
8.78781e-14
-8.22134e-13
7.86256e-14
-8.36245e-13
6.94698e-14
-8.48544e-13
6.0209e-14
-8.58898e-13
5.08869e-14
-8.67328e-13
4.13921e-14
-8.73907e-13
3.19951e-14
-8.78556e-13
2.24786e-14
-8.81238e-13
1.29386e-14
-8.82058e-13
3.62047e-15
-8.80882e-13
-6.08919e-15
-8.77859e-13
-1.54569e-14
-8.72825e-13
-2.49364e-14
-8.65885e-13
-3.44248e-14
-8.57097e-13
-4.36232e-14
-8.46393e-13
-5.28416e-14
-8.33824e-13
-6.17649e-14
-8.19476e-13
-7.05126e-14
-8.03305e-13
-7.90632e-14
-7.85437e-13
-8.7233e-14
-7.65951e-13
-9.49849e-14
-7.44946e-13
-1.02313e-13
-7.22472e-13
-1.09117e-13
-6.98713e-13
-1.15366e-13
-6.73764e-13
-1.21049e-13
-6.47708e-13
-1.26047e-13
-6.20857e-13
-1.30221e-13
-5.93185e-13
-1.33856e-13
-5.64998e-13
-1.36603e-13
-5.3642e-13
-1.38575e-13
-5.07559e-13
-1.40067e-13
-4.78657e-13
-1.40532e-13
-4.49812e-13
-1.40521e-13
-4.21123e-13
-1.39858e-13
-3.92814e-13
-1.38679e-13
-3.64933e-13
-1.37066e-13
-3.37513e-13
-1.35169e-13
-3.107e-13
-1.32815e-13
-2.84436e-13
-1.30471e-13
-2.5881e-13
-1.27951e-13
-2.33838e-13
-1.2544e-13
-2.09442e-13
-1.23207e-13
-1.85549e-13
-1.21221e-13
-1.62108e-13
-1.19688e-13
-1.39145e-13
-1.18538e-13
-1.16363e-13
-1.18068e-13
-9.38112e-14
-1.18214e-13
-7.12716e-14
-1.19048e-13
-4.8679e-14
-1.20185e-13
-2.57585e-14
-1.21058e-13
-1.62021e-15
-1.20704e-13
2.15078e-14
-1.12961e-13
-1.44958e-14
1.09746e-13
-5.13358e-17
3.18719e-14
1.83975e-21
-4.36787e-21
1.82011e-21
-5.48007e-24
1.82135e-21
2.28509e-23
1.82321e-21
5.08199e-23
1.81892e-21
7.80652e-23
1.80791e-21
1.0438e-22
1.79043e-21
1.29402e-22
1.7667e-21
1.52822e-22
1.73765e-21
1.7469e-22
1.70332e-21
1.94543e-22
1.66413e-21
2.12534e-22
1.62086e-21
2.28354e-22
1.57371e-21
2.42261e-22
1.52351e-21
2.54151e-22
1.47042e-21
2.64026e-22
1.4151e-21
2.72091e-22
1.35782e-21
2.7845e-22
1.29919e-21
2.83258e-22
1.23948e-21
2.86515e-22
1.17909e-21
2.88479e-22
1.11835e-21
2.89358e-22
1.05734e-21
2.89151e-22
9.96443e-22
2.88169e-22
9.35955e-22
2.86515e-22
8.75829e-22
2.84447e-22
8.16221e-22
2.82017e-22
7.57284e-22
2.79277e-22
6.99071e-22
2.7633e-22
6.41479e-22
2.73487e-22
5.8492e-22
2.70747e-22
5.28982e-22
2.68162e-22
4.73768e-22
2.65939e-22
4.19226e-22
2.63922e-22
3.65459e-22
2.62268e-22
3.12209e-22
2.60924e-22
2.59528e-22
2.60045e-22
2.07105e-22
2.59425e-22
1.552e-22
2.59218e-22
1.03604e-22
2.59269e-22
5.19573e-23
2.59683e-22
2.60459e-22
-3.0553e-14
1.8982e-13
-6.1304e-14
1.90679e-13
-9.25345e-14
1.9258e-13
-1.24496e-13
1.95241e-13
-1.57347e-13
1.9854e-13
-1.91152e-13
2.02022e-13
-2.25912e-13
2.05434e-13
-2.61601e-13
2.08562e-13
-2.97998e-13
2.10996e-13
-3.34785e-13
2.12409e-13
-3.71731e-13
2.12577e-13
-4.09387e-13
2.12259e-13
-4.45814e-13
2.09871e-13
-4.82154e-13
2.06215e-13
-5.21569e-13
2.09531e-13
-5.5431e-13
2.03312e-13
-5.86711e-13
1.8903e-13
-6.19024e-13
1.81405e-13
-6.5239e-13
1.79871e-13
-6.80478e-13
1.74846e-13
-7.05825e-13
1.51824e-13
-7.32166e-13
1.48399e-13
-7.56055e-13
1.38728e-13
-7.77121e-13
1.2719e-13
-7.97304e-13
1.15688e-13
-8.15236e-13
1.05683e-13
-8.31364e-13
9.4626e-14
-8.456e-13
8.35831e-14
-8.57927e-13
7.24131e-14
-8.68295e-13
6.11337e-14
-8.76814e-13
4.97943e-14
-8.83386e-13
3.84499e-14
-8.88027e-13
2.70053e-14
-8.90759e-13
1.55617e-14
-8.91517e-13
4.27147e-15
-8.90391e-13
-7.31605e-15
-8.87338e-13
-1.86093e-14
-8.82196e-13
-3.0172e-14
-8.75204e-13
-4.15054e-14
-8.66244e-13
-5.2667e-14
-8.55371e-13
-6.37892e-14
-8.42556e-13
-7.46519e-14
-8.27903e-13
-8.52332e-14
-8.11433e-13
-9.55902e-14
-7.93234e-13
-1.05483e-13
-7.73289e-13
-1.14974e-13
-7.51809e-13
-1.23826e-13
-7.28805e-13
-1.32149e-13
-7.04388e-13
-1.398e-13
-6.78756e-13
-1.46694e-13
-6.52078e-13
-1.52726e-13
-6.24401e-13
-1.57891e-13
-5.95988e-13
-1.62255e-13
-5.67094e-13
-1.65473e-13
-5.3773e-13
-1.67908e-13
-5.08192e-13
-1.69565e-13
-4.78627e-13
-1.70046e-13
-4.49167e-13
-1.69925e-13
-4.19954e-13
-1.69006e-13
-3.9117e-13
-1.67388e-13
-3.62964e-13
-1.65188e-13
-3.3525e-13
-1.62794e-13
-3.08224e-13
-1.5974e-13
-2.81975e-13
-1.56614e-13
-2.56408e-13
-1.53404e-13
-2.316e-13
-1.50126e-13
-2.07435e-13
-1.47245e-13
-1.839e-13
-1.4462e-13
-1.61026e-13
-1.42423e-13
-1.3858e-13
-1.4084e-13
-1.16507e-13
-1.39992e-13
-9.45726e-14
-1.39994e-13
-7.2446e-14
-1.41018e-13
-4.94707e-14
-1.42999e-13
-2.46818e-14
-1.45682e-13
2.93576e-15
-1.48156e-13
1.89832e-14
-1.28841e-13
-2.74267e-14
1.56326e-13
-5.09513e-17
4.63043e-15
1.85298e-21
-5.21495e-21
1.84839e-21
-6.56575e-24
1.84932e-21
2.83826e-23
1.85051e-21
6.27106e-23
1.84518e-21
9.62115e-23
1.83293e-21
1.28265e-22
1.81385e-21
1.58612e-22
1.78857e-21
1.87253e-22
1.75755e-21
2.13671e-22
1.72121e-21
2.37814e-22
1.68006e-21
2.59425e-22
1.63477e-21
2.78553e-22
1.58555e-21
2.95097e-22
1.53344e-21
3.09159e-22
1.47853e-21
3.20894e-22
1.42146e-21
3.30459e-22
1.36263e-21
3.378e-22
1.3025e-21
3.43228e-22
1.24144e-21
3.46951e-22
1.17997e-21
3.4907e-22
1.11819e-21
3.49794e-22
1.05636e-21
3.49432e-22
9.9484e-22
3.47985e-22
9.33835e-22
3.45865e-22
8.73348e-22
3.43228e-22
8.13481e-22
3.40126e-22
7.54389e-22
3.36818e-22
6.96176e-22
3.33509e-22
6.38739e-22
3.30148e-22
5.82335e-22
3.27098e-22
5.26759e-22
3.24203e-22
4.717e-22
3.21618e-22
4.17623e-22
3.19499e-22
3.64166e-22
3.17844e-22
3.11227e-22
3.16655e-22
2.58908e-22
3.15776e-22
2.06899e-22
3.15466e-22
1.55303e-22
3.15621e-22
1.03966e-22
3.15983e-22
5.27845e-23
3.1681e-22
3.17999e-22
-2.94907e-14
2.19233e-13
-5.93383e-14
2.2039e-13
-8.97946e-14
2.22917e-13
-1.21241e-13
2.26569e-13
-1.53808e-13
2.3099e-13
-1.87672e-13
2.35766e-13
-2.22801e-13
2.40446e-13
-2.59068e-13
2.44707e-13
-2.96215e-13
2.48022e-13
-3.33841e-13
2.49912e-13
-3.72472e-13
2.51086e-13
-4.11177e-13
2.5084e-13
-4.47875e-13
2.46444e-13
-4.87707e-13
2.45925e-13
-5.2882e-13
2.50519e-13
-5.59742e-13
2.3411e-13
-5.93529e-13
2.22691e-13
-6.27243e-13
2.14995e-13
-6.6476e-13
2.17261e-13
-6.86266e-13
1.96225e-13
-7.16443e-13
1.81875e-13
-7.42392e-13
1.74222e-13
-7.6668e-13
1.62889e-13
-7.87507e-13
1.47893e-13
-8.08202e-13
1.36257e-13
-8.26267e-13
1.23623e-13
-8.42539e-13
1.10778e-13
-8.56836e-13
9.77567e-14
-8.69203e-13
8.46597e-14
-8.7969e-13
7.15014e-14
-8.88207e-13
5.8195e-14
-8.9482e-13
4.49476e-14
-8.99501e-13
3.15747e-14
-9.02209e-13
1.81617e-14
-9.03022e-13
4.97961e-15
-9.01836e-13
-8.60336e-15
-8.98721e-13
-2.18209e-14
-8.93594e-13
-3.53912e-14
-8.86431e-13
-4.87532e-14
-8.77308e-13
-6.18709e-14
-8.66237e-13
-7.49356e-14
-8.53117e-13
-8.78386e-14
-8.38168e-13
-1.00245e-13
-8.21376e-13
-1.12437e-13
-8.02669e-13
-1.24238e-13
-7.82221e-13
-1.35464e-13
-7.60068e-13
-1.46014e-13
-7.36379e-13
-1.55863e-13
-7.11218e-13
-1.64982e-13
-6.8481e-13
-1.7311e-13
-6.57231e-13
-1.80306e-13
-6.28675e-13
-1.86439e-13
-5.99383e-13
-1.91533e-13
-5.69564e-13
-1.95267e-13
-5.39234e-13
-1.98203e-13
-5.08872e-13
-1.99883e-13
-4.78395e-13
-2.0047e-13
-4.48212e-13
-2.00048e-13
-4.1834e-13
-1.9881e-13
-3.89034e-13
-1.96618e-13
-3.6026e-13
-1.93878e-13
-3.32259e-13
-1.90701e-13
-3.05125e-13
-1.86774e-13
-2.78728e-13
-1.82902e-13
-2.53249e-13
-1.7877e-13
-2.286e-13
-1.74654e-13
-2.04768e-13
-1.70946e-13
-1.81706e-13
-1.67545e-13
-1.59393e-13
-1.64595e-13
-1.37745e-13
-1.62344e-13
-1.16581e-13
-1.61005e-13
-9.56087e-14
-1.60811e-13
-7.44702e-14
-1.61995e-13
-5.21217e-14
-1.65183e-13
-2.72143e-14
-1.70423e-13
2.10866e-15
-1.77309e-13
-5.47849e-14
-7.17795e-14
-3.2119e-14
1.33832e-13
-5.10827e-17
-2.73e-14
1.89269e-21
-5.50617e-21
1.88334e-21
-6.87594e-24
1.8837e-21
3.47416e-23
1.8839e-21
7.56353e-23
1.87729e-21
1.15392e-22
1.86333e-21
1.53597e-22
1.84249e-21
1.89838e-22
1.81499e-21
2.23752e-22
1.78159e-21
2.55082e-22
1.74292e-21
2.83464e-22
1.69918e-21
3.08849e-22
1.65126e-21
3.31286e-22
1.59972e-21
3.5057e-22
1.54512e-21
3.66958e-22
1.48805e-21
3.80348e-22
1.42875e-21
3.9105e-22
1.36805e-21
3.9927e-22
1.30617e-21
4.05215e-22
1.24356e-21
4.09144e-22
1.1807e-21
4.11161e-22
1.11778e-21
4.11626e-22
1.05491e-21
4.1085e-22
9.92669e-22
4.09041e-22
9.31199e-22
4.06353e-22
8.70194e-22
4.03044e-22
8.10223e-22
3.99321e-22
7.51028e-22
3.95547e-22
6.92867e-22
3.91618e-22
6.35637e-22
3.87948e-22
5.79492e-22
3.84484e-22
5.24174e-22
3.81382e-22
4.69632e-22
3.78797e-22
4.15917e-22
3.76781e-22
3.62926e-22
3.75437e-22
3.104e-22
3.74506e-22
2.58546e-22
3.74248e-22
2.07002e-22
3.74299e-22
1.55665e-22
3.7492e-22
1.04793e-22
3.75902e-22
5.39218e-23
3.77143e-22
3.78745e-22
-2.81307e-14
2.47286e-13
-5.66791e-14
2.48801e-13
-8.60978e-14
2.52216e-13
-1.16823e-13
2.57178e-13
-1.49025e-13
2.63071e-13
-1.829e-13
2.69526e-13
-2.18479e-13
2.75906e-13
-2.55511e-13
2.81619e-13
-2.93549e-13
2.85939e-13
-3.32877e-13
2.8912e-13
-3.73418e-13
2.91507e-13
-4.12153e-13
2.89454e-13
-4.51202e-13
2.85371e-13
-4.97019e-13
2.91616e-13
-5.33376e-13
2.86754e-13
-5.67377e-13
2.67986e-13
-6.02202e-13
2.57392e-13
-6.39469e-13
2.52137e-13
-6.74989e-13
2.52655e-13
-6.96041e-13
2.17155e-13
-7.28664e-13
2.14373e-13
-7.54645e-13
2.0008e-13
-7.78513e-13
1.86632e-13
-8.00337e-13
1.69595e-13
-8.20952e-13
1.56751e-13
-8.39247e-13
1.41798e-13
-8.55556e-13
1.26965e-13
-8.69986e-13
1.1207e-13
-8.82461e-13
9.7017e-14
-8.92943e-13
8.18677e-14
-9.01575e-13
6.67171e-14
-9.08188e-13
5.14521e-14
-9.1289e-13
3.61711e-14
-9.15615e-13
2.07827e-14
-9.16398e-13
5.66266e-15
-9.15338e-13
-9.75949e-15
-9.12089e-13
-2.51609e-14
-9.06871e-13
-4.06953e-14
-8.99646e-13
-5.60624e-14
-8.90343e-13
-7.12544e-14
-8.79083e-13
-8.62665e-14
-8.65767e-13
-1.0122e-13
-8.50366e-13
-1.15706e-13
-8.33063e-13
-1.29794e-13
-8.13927e-13
-1.43422e-13
-7.92836e-13
-1.56595e-13
-7.69934e-13
-1.6895e-13
-7.45425e-13
-1.80395e-13
-7.19469e-13
-1.90954e-13
-6.92015e-13
-2.00574e-13
-6.63381e-13
-2.08942e-13
-6.33695e-13
-2.16115e-13
-6.03348e-13
-2.21863e-13
-5.72326e-13
-2.26265e-13
-5.40913e-13
-2.29584e-13
-5.09513e-13
-2.31239e-13
-4.78108e-13
-2.31826e-13
-4.46957e-13
-2.31139e-13
-4.16282e-13
-2.29415e-13
-3.86234e-13
-2.26589e-13
-3.56904e-13
-2.23123e-13
-3.28493e-13
-2.19019e-13
-3.01098e-13
-2.14067e-13
-2.74686e-13
-2.09205e-13
-2.49275e-13
-2.04062e-13
-2.24757e-13
-1.99049e-13
-2.01302e-13
-1.94271e-13
-1.78826e-13
-1.89886e-13
-1.57211e-13
-1.86067e-13
-1.36403e-13
-1.83007e-13
-1.16339e-13
-1.80918e-13
-9.68513e-14
-1.80143e-13
-7.76316e-14
-1.81056e-13
-5.77054e-14
-1.84946e-13
-3.35747e-14
-1.94388e-13
7.01061e-15
-2.17727e-13
-8.77404e-14
2.31417e-14
-2.8787e-14
7.505e-14
-5.18329e-17
-5.58962e-14
1.95886e-21
-5.71795e-21
1.92495e-21
-7.28953e-24
1.92449e-21
4.17726e-23
1.92371e-21
8.99042e-23
1.91544e-21
1.36485e-22
1.89957e-21
1.81308e-22
1.87641e-21
2.23597e-22
1.84627e-21
2.63095e-22
1.81003e-21
2.99284e-22
1.76825e-21
3.32061e-22
1.72157e-21
3.61323e-22
1.67059e-21
3.86914e-22
1.61605e-21
4.08886e-22
1.55851e-21
4.27394e-22
1.49875e-21
4.42438e-22
1.43702e-21
4.54329e-22
1.37395e-21
4.63221e-22
1.31015e-21
4.69425e-22
1.24558e-21
4.73354e-22
1.18116e-21
4.75319e-22
1.11695e-21
4.75525e-22
1.05316e-21
4.7413e-22
9.90032e-22
4.71545e-22
9.2789e-22
4.68184e-22
8.66575e-22
4.64203e-22
8.06398e-22
4.59912e-22
7.47099e-22
4.55415e-22
6.89197e-22
4.51175e-22
6.32225e-22
4.47195e-22
5.7639e-22
4.43627e-22
5.21589e-22
4.40681e-22
4.67616e-22
4.38251e-22
4.14573e-22
4.36545e-22
3.62047e-22
4.35614e-22
3.10193e-22
4.352e-22
2.58649e-22
4.35614e-22
2.07674e-22
4.36596e-22
1.56647e-22
4.37992e-22
1.06034e-22
4.39698e-22
5.55245e-23
4.41663e-22
4.43782e-22
-2.62898e-14
2.73501e-13
-5.31791e-14
2.75555e-13
-8.11734e-14
2.80092e-13
-1.10883e-13
2.86773e-13
-1.42643e-13
2.94716e-13
-1.76452e-13
3.03218e-13
-2.12566e-13
3.11901e-13
-2.50522e-13
3.19457e-13
-2.90159e-13
3.25459e-13
-3.3185e-13
3.30696e-13
-3.73331e-13
3.32868e-13
-4.12756e-13
3.2876e-13
-4.5865e-13
3.31144e-13
-5.0515e-13
3.37995e-13
-5.37897e-13
3.19378e-13
-5.76736e-13
3.06704e-13
-6.13972e-13
2.94506e-13
-6.55671e-13
2.93715e-13
-6.79111e-13
2.75976e-13
-7.1278e-13
2.50701e-13
-7.41801e-13
2.43275e-13
-7.6902e-13
2.27177e-13
-7.92059e-13
2.09549e-13
-8.15386e-13
1.92802e-13
-8.35719e-13
1.76964e-13
-8.54156e-13
1.6012e-13
-8.70643e-13
1.43333e-13
-8.85122e-13
1.26432e-13
-8.97627e-13
1.09409e-13
-9.08199e-13
9.23298e-14
-9.16815e-13
7.52215e-14
-9.23545e-13
5.80772e-14
-9.28251e-13
4.07724e-14
-9.31039e-13
2.3469e-14
-9.31888e-13
6.41341e-15
-9.30766e-13
-1.09744e-14
-9.27409e-13
-2.86078e-14
-9.22254e-13
-4.59332e-14
-9.14928e-13
-6.34672e-14
-9.05448e-13
-8.08092e-14
-8.93863e-13
-9.79205e-14
-8.80316e-13
-1.14833e-13
-8.6456e-13
-1.31519e-13
-8.46693e-13
-1.47711e-13
-8.2688e-13
-1.63278e-13
-8.05155e-13
-1.78356e-13
-7.81477e-13
-1.92656e-13
-7.55953e-13
-2.05943e-13
-7.28881e-13
-2.18037e-13
-7.00379e-13
-2.29081e-13
-6.70489e-13
-2.38828e-13
-6.39598e-13
-2.46995e-13
-6.07943e-13
-2.53499e-13
-5.7542e-13
-2.58759e-13
-5.42786e-13
-2.62182e-13
-5.10035e-13
-2.63943e-13
-4.77425e-13
-2.64383e-13
-4.45127e-13
-2.63375e-13
-4.13524e-13
-2.60948e-13
-3.82573e-13
-2.57463e-13
-3.52646e-13
-2.52963e-13
-3.23871e-13
-2.47699e-13
-2.96081e-13
-2.41757e-13
-2.69585e-13
-2.35589e-13
-2.44197e-13
-2.29335e-13
-2.19952e-13
-2.23167e-13
-1.96929e-13
-2.17165e-13
-1.74991e-13
-2.11684e-13
-1.5417e-13
-2.06747e-13
-1.34316e-13
-2.02714e-13
-1.15504e-13
-1.99576e-13
-9.77971e-14
-1.97692e-13
-8.13773e-14
-1.97317e-13
-6.7032e-14
-1.99127e-13
-5.65106e-14
-2.04742e-13
-5.62158e-14
-2.17852e-13
-6.7355e-14
3.44531e-14
-2.80524e-14
3.59175e-14
-5.22499e-17
-8.37564e-14
1.98533e-21
-5.47974e-21
1.97407e-21
-6.97934e-24
1.97262e-21
4.95791e-23
1.97034e-21
1.05362e-22
1.96026e-21
1.59542e-22
1.94186e-21
2.11293e-22
1.91591e-21
2.60148e-22
1.88251e-21
3.0554e-22
1.84286e-21
3.47106e-22
1.79752e-21
3.84587e-22
1.74711e-21
4.17726e-22
1.69257e-21
4.46522e-22
1.63456e-21
4.70976e-22
1.57361e-21
4.91345e-22
1.51064e-21
5.07786e-22
1.44591e-21
5.20555e-22
1.3802e-21
5.29913e-22
1.31408e-21
5.36272e-22
1.24749e-21
5.40046e-22
1.18137e-21
5.41493e-22
1.11556e-21
5.40976e-22
1.05057e-21
5.3896e-22
9.86671e-22
5.35806e-22
9.23857e-22
5.3167e-22
8.62284e-22
5.27017e-22
8.019e-22
5.22003e-22
7.4286e-22
5.17091e-22
6.85216e-22
5.1249e-22
6.28709e-22
5.08251e-22
5.73391e-22
5.04735e-22
5.19108e-22
5.02099e-22
4.65961e-22
5.00186e-22
4.13539e-22
4.99307e-22
3.61736e-22
4.99152e-22
3.10555e-22
4.99824e-22
2.5958e-22
5.01323e-22
2.09018e-22
5.03339e-22
1.58405e-22
5.05666e-22
1.07895e-22
5.08303e-22
5.76959e-23
5.11043e-22
5.13731e-22
-2.38134e-14
2.9724e-13
-4.83741e-14
2.99979e-13
-7.45046e-14
3.06106e-13
-1.02926e-13
3.15079e-13
-1.34005e-13
3.25678e-13
-1.67811e-13
3.36909e-13
-2.04843e-13
3.48816e-13
-2.43459e-13
3.57954e-13
-2.85978e-13
3.6786e-13
-3.29909e-13
3.74508e-13
-3.70174e-13
3.73017e-13
-4.1744e-13
3.75908e-13
-4.71063e-13
3.84649e-13
-5.06005e-13
3.7282e-13
-5.47486e-13
3.60743e-13
-5.86061e-13
3.45158e-13
-6.34382e-13
3.42707e-13
-6.64112e-13
3.23326e-13
-6.91754e-13
3.03498e-13
-7.2955e-13
2.8838e-13
-7.57994e-13
2.71598e-13
-7.84552e-13
2.53618e-13
-8.08671e-13
2.3355e-13
-8.32074e-13
2.16086e-13
-8.52572e-13
1.97346e-13
-8.71169e-13
1.78602e-13
-8.87698e-13
1.59747e-13
-9.02199e-13
1.40821e-13
-9.14746e-13
1.21845e-13
-9.25325e-13
1.02802e-13
-9.34016e-13
8.38061e-14
-9.40696e-13
6.46537e-14
-9.4555e-13
4.55258e-14
-9.48388e-13
2.62113e-14
-9.49358e-13
7.2918e-15
-9.48096e-13
-1.23281e-14
-9.44846e-13
-3.19452e-14
-9.395e-13
-5.136e-14
-9.32203e-13
-7.08419e-14
-9.22672e-13
-9.0409e-14
-9.10884e-13
-1.09773e-13
-8.96902e-13
-1.28873e-13
-8.8083e-13
-1.47645e-13
-8.62453e-13
-1.66139e-13
-8.41852e-13
-1.83919e-13
-8.19282e-13
-2.00958e-13
-7.94662e-13
-2.17305e-13
-7.68197e-13
-2.32427e-13
-7.39875e-13
-2.46372e-13
-7.09953e-13
-2.59005e-13
-6.78703e-13
-2.70073e-13
-6.46347e-13
-2.79338e-13
-6.12898e-13
-2.86928e-13
-5.78899e-13
-2.92727e-13
-5.44773e-13
-2.96269e-13
-5.10383e-13
-2.98287e-13
-4.76329e-13
-2.98383e-13
-4.42743e-13
-2.96896e-13
-4.09975e-13
-2.93645e-13
-3.78124e-13
-2.8923e-13
-3.47411e-13
-2.83587e-13
-3.1799e-13
-2.77024e-13
-2.89914e-13
-2.69727e-13
-2.63252e-13
-2.62137e-13
-2.37952e-13
-2.54517e-13
-2.1401e-13
-2.46984e-13
-1.9144e-13
-2.39604e-13
-1.70159e-13
-2.32827e-13
-1.50078e-13
-2.26684e-13
-1.31249e-13
-2.21393e-13
-1.13612e-13
-2.17062e-13
-9.73995e-14
-2.13744e-13
-8.32587e-14
-2.11294e-13
-7.28976e-14
-2.09322e-13
-7.10586e-14
-2.06413e-13
-9.50105e-14
-1.93731e-13
-6.058e-14
1.95543e-16
-2.98382e-14
5.34651e-15
-5.20458e-17
-1.13403e-13
2.05151e-21
-5.21506e-21
2.03068e-21
-6.66914e-24
2.0283e-21
5.84713e-23
2.02452e-21
1.22681e-22
2.01207e-21
1.84978e-22
1.99066e-21
2.44432e-22
1.9613e-21
3.00318e-22
1.92407e-21
3.52017e-22
1.88034e-21
3.99166e-22
1.8306e-21
4.41353e-22
1.77596e-21
4.78421e-22
1.71702e-21
5.10422e-22
1.65493e-21
5.37409e-22
1.59005e-21
5.59433e-22
1.52341e-21
5.7701e-22
1.45522e-21
5.90349e-22
1.38661e-21
6.00016e-22
1.31775e-21
6.0622e-22
1.24894e-21
6.09425e-22
1.18085e-21
6.10149e-22
1.11354e-21
6.08805e-22
1.04742e-21
6.05806e-22
9.82484e-22
6.01619e-22
9.19205e-22
5.96759e-22
8.57269e-22
5.91227e-22
7.96989e-22
5.85747e-22