/*--------------------------------*- C++ -*----------------------------------*\
  =========                 |
  \\      /  F ield         | OpenFOAM: The Open Source CFD Toolbox
   \\    /   O peration     | Website:  https://openfoam.org
    \\  /    A nd           | Version:  6
     \\/     M anipulation  |
\*---------------------------------------------------------------------------*/
FoamFile
{
    version     2.0;
    format      ascii;
    class       volVectorField;
    location    "2700";
    object      U;
}
// * * * * * * * * * * * * * * * * * * * * * * * * * * * * * * * * * * * * * //

dimensions      [0 1 -1 0 0 0 0];

internalField   nonuniform List<vector> 
4800
(
(-5.6884e-09 0 6.9633e-09)
(-1.96375e-08 0 4.39803e-09)
(-3.25579e-08 0 3.53973e-09)
(-4.57762e-08 0 3.43496e-09)
(-5.91223e-08 0 3.61825e-09)
(-7.25954e-08 0 3.9395e-09)
(-8.61931e-08 0 4.33207e-09)
(-9.99104e-08 0 4.74962e-09)
(-1.13728e-07 0 5.15902e-09)
(-1.276e-07 0 5.51878e-09)
(-1.41477e-07 0 5.83207e-09)
(-1.55305e-07 0 6.06654e-09)
(-1.69008e-07 0 6.20004e-09)
(-1.82542e-07 0 6.31184e-09)
(-1.95887e-07 0 6.34372e-09)
(-2.08984e-07 0 6.38424e-09)
(-2.21976e-07 0 6.33769e-09)
(-2.34243e-07 0 5.86303e-09)
(-2.45772e-07 0 5.655e-09)
(-2.57088e-07 0 5.59786e-09)
(-2.68092e-07 0 5.55333e-09)
(-2.78078e-07 0 4.62726e-09)
(-2.87298e-07 0 4.64272e-09)
(-2.96151e-07 0 4.31619e-09)
(-3.04247e-07 0 3.9263e-09)
(-3.11575e-07 0 3.5843e-09)
(-3.18246e-07 0 3.25534e-09)
(-3.24205e-07 0 2.90466e-09)
(-3.29434e-07 0 2.54796e-09)
(-3.3392e-07 0 2.17915e-09)
(-3.37652e-07 0 1.80879e-09)
(-3.40634e-07 0 1.43769e-09)
(-3.42866e-07 0 1.06519e-09)
(-3.44345e-07 0 6.82297e-10)
(-3.45051e-07 0 2.99145e-10)
(-3.45006e-07 0 -7.37216e-11)
(-3.44207e-07 0 -4.61062e-10)
(-3.42664e-07 0 -8.34387e-10)
(-3.40352e-07 0 -1.2172e-09)
(-3.37317e-07 0 -1.58605e-09)
(-3.33552e-07 0 -1.95659e-09)
(-3.2906e-07 0 -2.31648e-09)
(-3.23882e-07 0 -2.66584e-09)
(-3.1802e-07 0 -3.00912e-09)
(-3.11513e-07 0 -3.32509e-09)
(-3.04381e-07 0 -3.64135e-09)
(-2.96658e-07 0 -3.93788e-09)
(-2.88382e-07 0 -4.20143e-09)
(-2.79599e-07 0 -4.45794e-09)
(-2.70346e-07 0 -4.68514e-09)
(-2.60676e-07 0 -4.88363e-09)
(-2.50641e-07 0 -5.06283e-09)
(-2.40292e-07 0 -5.20696e-09)
(-2.29694e-07 0 -5.32172e-09)
(-2.18901e-07 0 -5.40857e-09)
(-2.07967e-07 0 -5.47503e-09)
(-1.96928e-07 0 -5.51191e-09)
(-1.85857e-07 0 -5.52694e-09)
(-1.74782e-07 0 -5.50779e-09)
(-1.63769e-07 0 -5.48528e-09)
(-1.52824e-07 0 -5.43961e-09)
(-1.41995e-07 0 -5.38214e-09)
(-1.313e-07 0 -5.3147e-09)
(-1.20755e-07 0 -5.24278e-09)
(-1.10374e-07 0 -5.16205e-09)
(-1.00148e-07 0 -5.09778e-09)
(-9.00687e-08 0 -5.02862e-09)
(-8.01252e-08 0 -4.9733e-09)
(-7.02843e-08 0 -4.93944e-09)
(-6.04801e-08 0 -4.94436e-09)
(-5.06503e-08 0 -4.97602e-09)
(-4.06924e-08 0 -5.07071e-09)
(-3.04099e-08 0 -5.27412e-09)
(-1.93826e-08 0 -5.76514e-09)
(-6.40576e-09 0 -7.06756e-09)
(1.18607e-08 0 -1.08463e-08)
(4.2865e-08 0 -2.32846e-08)
(2.46585e-08 0 1.25263e-08)
(-5.79714e-11 0 1.36398e-08)
(1.18307e-15 0 -1.90989e-16)
(3.54636e-16 0 -2.37814e-19)
(7.07239e-16 0 2.58494e-19)
(7.07477e-16 0 1.25111e-18)
(7.07426e-16 0 2.33679e-18)
(7.05141e-16 0 3.40178e-18)
(7.00467e-16 0 4.42542e-18)
(6.93457e-16 0 5.39735e-18)
(6.84244e-16 0 6.31759e-18)
(6.72984e-16 0 7.16545e-18)
(6.59801e-16 0 7.93059e-18)
(6.44891e-16 0 8.6337e-18)
(6.28399e-16 0 9.25408e-18)
(6.10449e-16 0 9.77107e-18)
(5.91248e-16 0 1.02467e-17)
(5.70992e-16 0 1.06293e-17)
(5.49817e-16 0 1.09395e-17)
(5.27876e-16 0 1.11669e-17)
(5.05345e-16 0 1.13531e-17)
(4.82329e-16 0 1.14668e-17)
(4.58941e-16 0 1.15599e-17)
(4.35345e-16 0 1.15909e-17)
(4.11626e-16 0 1.15599e-17)
(3.87813e-16 0 1.15392e-17)
(3.64063e-16 0 1.14668e-17)
(3.40416e-16 0 1.13634e-17)
(3.16893e-16 0 1.12703e-17)
(2.93566e-16 0 1.11566e-17)
(2.70416e-16 0 1.10429e-17)
(2.47534e-16 0 1.09188e-17)
(2.24921e-16 0 1.07947e-17)
(2.02525e-16 0 1.0681e-17)
(1.80367e-16 0 1.05879e-17)
(1.58426e-16 0 1.04845e-17)
(1.36733e-16 0 1.04018e-17)
(1.15299e-16 0 1.03191e-17)
(9.40298e-17 0 1.02467e-17)
(7.2885e-17 0 1.02157e-17)
(5.18849e-17 0 1.01743e-17)
(3.10193e-17 0 1.0133e-17)
(1.03087e-17 0 1.00709e-17)
(-5.55367e-09 0 1.95456e-08)
(-1.94073e-08 0 2.17519e-08)
(-3.25751e-08 0 2.25464e-08)
(-4.5928e-08 0 2.27797e-08)
(-5.93449e-08 0 2.28266e-08)
(-7.28595e-08 0 2.2793e-08)
(-8.64935e-08 0 2.27119e-08)
(-1.00244e-07 0 2.25829e-08)
(-1.14077e-07 0 2.23975e-08)
(-1.27966e-07 0 2.2146e-08)
(-1.41866e-07 0 2.18393e-08)
(-1.5571e-07 0 2.14483e-08)
(-1.69421e-07 0 2.09279e-08)
(-1.82961e-07 0 2.05507e-08)
(-1.96331e-07 0 2.01239e-08)
(-2.09515e-07 0 1.98912e-08)
(-2.22528e-07 0 1.94229e-08)
(-2.34725e-07 0 1.77922e-08)
(-2.4633e-07 0 1.70613e-08)
(-2.57715e-07 0 1.68355e-08)
(-2.68728e-07 0 1.6535e-08)
(-2.78676e-07 0 1.37934e-08)
(-2.87995e-07 0 1.37255e-08)
(-2.96848e-07 0 1.27206e-08)
(-3.04947e-07 0 1.14641e-08)
(-3.12291e-07 0 1.04247e-08)
(-3.18981e-07 0 9.38351e-09)
(-3.24943e-07 0 8.29614e-09)
(-3.30171e-07 0 7.18652e-09)
(-3.34653e-07 0 6.06128e-09)
(-3.38394e-07 0 4.93535e-09)
(-3.41387e-07 0 3.81508e-09)
(-3.43615e-07 0 2.67517e-09)
(-3.45087e-07 0 1.54358e-09)
(-3.45809e-07 0 4.11665e-10)
(-3.45764e-07 0 -7.2883e-10)
(-3.4495e-07 0 -1.86244e-09)
(-3.43407e-07 0 -2.965e-09)
(-3.41089e-07 0 -4.09703e-09)
(-3.38045e-07 0 -5.18847e-09)
(-3.34263e-07 0 -6.27279e-09)
(-3.29754e-07 0 -7.33487e-09)
(-3.24558e-07 0 -8.35634e-09)
(-3.18683e-07 0 -9.35542e-09)
(-3.12142e-07 0 -1.03072e-08)
(-3.04959e-07 0 -1.12156e-08)
(-2.97198e-07 0 -1.20809e-08)
(-2.88878e-07 0 -1.28548e-08)
(-2.80044e-07 0 -1.35976e-08)
(-2.70742e-07 0 -1.42551e-08)
(-2.61022e-07 0 -1.48313e-08)
(-2.50942e-07 0 -1.53373e-08)
(-2.40552e-07 0 -1.57557e-08)
(-2.29897e-07 0 -1.60872e-08)
(-2.19046e-07 0 -1.63221e-08)
(-2.08053e-07 0 -1.65089e-08)
(-1.96955e-07 0 -1.65981e-08)
(-1.85841e-07 0 -1.66137e-08)
(-1.74731e-07 0 -1.65412e-08)
(-1.63683e-07 0 -1.64559e-08)
(-1.52706e-07 0 -1.62959e-08)
(-1.41848e-07 0 -1.61051e-08)
(-1.31132e-07 0 -1.587e-08)
(-1.20589e-07 0 -1.56167e-08)
(-1.10211e-07 0 -1.53621e-08)
(-9.99904e-08 0 -1.51253e-08)
(-8.9941e-08 0 -1.48815e-08)
(-8.00331e-08 0 -1.46901e-08)
(-7.02234e-08 0 -1.45641e-08)
(-6.04753e-08 0 -1.45275e-08)
(-5.07588e-08 0 -1.45698e-08)
(-4.10143e-08 0 -1.47901e-08)
(-3.11565e-08 0 -1.52986e-08)
(-2.1178e-08 0 -1.6376e-08)
(-1.1437e-08 0 -1.87846e-08)
(-3.222e-09 0 -2.46522e-08)
(-6.60008e-09 0 -4.07868e-08)
(-2.2274e-09 0 3.58994e-08)
(-4.54462e-11 0 2.6712e-08)
(1.11402e-15 0 -6.24956e-16)
(3.55132e-16 0 -7.85822e-19)
(7.08728e-16 0 1.78878e-18)
(7.09566e-16 0 4.91139e-18)
(7.09587e-16 0 8.11671e-18)
(7.0725e-16 0 1.12393e-17)
(7.02463e-16 0 1.42068e-17)
(6.95338e-16 0 1.70192e-17)
(6.86002e-16 0 1.96766e-17)
(6.74597e-16 0 2.21064e-17)
(6.6129e-16 0 2.43191e-17)
(6.46204e-16 0 2.63043e-17)
(6.29526e-16 0 2.80518e-17)
(6.11442e-16 0 2.9551e-17)
(5.92086e-16 0 3.08745e-17)
(5.71665e-16 0 3.19499e-17)
(5.50365e-16 0 3.28081e-17)
(5.28289e-16 0 3.34698e-17)
(5.05635e-16 0 3.39764e-17)
(4.82546e-16 0 3.42556e-17)
(4.59065e-16 0 3.44417e-17)
(4.35356e-16 0 3.45038e-17)
(4.11574e-16 0 3.44314e-17)
(3.87731e-16 0 3.42866e-17)
(3.63908e-16 0 3.40798e-17)
(3.4023e-16 0 3.37903e-17)
(3.16696e-16 0 3.34698e-17)
(2.93329e-16 0 3.31286e-17)
(2.70178e-16 0 3.2777e-17)
(2.47296e-16 0 3.24151e-17)
(2.24683e-16 0 3.20739e-17)
(2.02308e-16 0 3.17224e-17)
(1.8016e-16 0 3.14329e-17)
(1.5824e-16 0 3.11537e-17)
(1.36568e-16 0 3.09469e-17)
(1.15144e-16 0 3.07608e-17)
(9.39264e-17 0 3.06057e-17)
(7.28126e-17 0 3.04816e-17)
(5.18125e-17 0 3.04092e-17)
(3.09262e-17 0 3.03369e-17)
(1.02467e-17 0 3.02955e-17)
(-5.80387e-09 0 3.17506e-08)
(-1.98053e-08 0 3.19109e-08)
(-3.25162e-08 0 3.20841e-08)
(-4.55455e-08 0 3.23583e-08)
(-5.87772e-08 0 3.27073e-08)
(-7.2196e-08 0 3.31038e-08)
(-8.57992e-08 0 3.35351e-08)
(-9.95734e-08 0 3.39258e-08)
(-1.13487e-07 0 3.42303e-08)
(-1.27496e-07 0 3.44199e-08)
(-1.41542e-07 0 3.44672e-08)
(-1.55549e-07 0 3.42987e-08)
(-1.69436e-07 0 3.38799e-08)
(-1.83181e-07 0 3.35649e-08)
(-1.9678e-07 0 3.31267e-08)
(-2.10245e-07 0 3.31754e-08)
(-2.23379e-07 0 3.18752e-08)
(-2.35543e-07 0 2.95949e-08)
(-2.47379e-07 0 2.85587e-08)
(-2.58974e-07 0 2.82505e-08)
(-2.69965e-07 0 2.71339e-08)
(-2.79826e-07 0 2.32853e-08)
(-2.89335e-07 0 2.28924e-08)
(-2.98217e-07 0 2.12574e-08)
(-3.06315e-07 0 1.90868e-08)
(-3.13702e-07 0 1.74514e-08)
(-3.20428e-07 0 1.56794e-08)
(-3.26411e-07 0 1.38663e-08)
(-3.31653e-07 0 1.20132e-08)
(-3.36156e-07 0 1.01557e-08)
(-3.3991e-07 0 8.28334e-09)
(-3.42902e-07 0 6.40868e-09)
(-3.45132e-07 0 4.49695e-09)
(-3.46606e-07 0 2.61933e-09)
(-3.47315e-07 0 7.43357e-10)
(-3.47269e-07 0 -1.18053e-09)
(-3.46458e-07 0 -3.06128e-09)
(-3.44902e-07 0 -4.9062e-09)
(-3.42556e-07 0 -6.80604e-09)
(-3.39485e-07 0 -8.63504e-09)
(-3.35674e-07 0 -1.04361e-08)
(-3.31143e-07 0 -1.22076e-08)
(-3.25911e-07 0 -1.39389e-08)
(-3.19965e-07 0 -1.55953e-08)
(-3.13367e-07 0 -1.72152e-08)
(-3.0613e-07 0 -1.87199e-08)
(-2.98306e-07 0 -2.01708e-08)
(-2.89903e-07 0 -2.14847e-08)
(-2.80975e-07 0 -2.27196e-08)
(-2.71577e-07 0 -2.38265e-08)
(-2.61754e-07 0 -2.47913e-08)
(-2.51558e-07 0 -2.56386e-08)
(-2.41048e-07 0 -2.63361e-08)
(-2.3029e-07 0 -2.68969e-08)
(-2.19336e-07 0 -2.72897e-08)
(-2.08228e-07 0 -2.76156e-08)
(-1.97023e-07 0 -2.77494e-08)
(-1.85817e-07 0 -2.77631e-08)
(-1.74611e-07 0 -2.7646e-08)
(-1.6349e-07 0 -2.74927e-08)
(-1.52455e-07 0 -2.72245e-08)
(-1.41558e-07 0 -2.68964e-08)
(-1.3083e-07 0 -2.64937e-08)
(-1.20263e-07 0 -2.60757e-08)
(-1.09882e-07 0 -2.56454e-08)
(-9.97018e-08 0 -2.52315e-08)
(-8.9693e-08 0 -2.4834e-08)
(-7.98335e-08 0 -2.45129e-08)
(-7.01087e-08 0 -2.43019e-08)
(-6.04832e-08 0 -2.41973e-08)
(-5.0939e-08 0 -2.42088e-08)
(-4.14394e-08 0 -2.44573e-08)
(-3.20195e-08 0 -2.49788e-08)
(-2.2868e-08 0 -2.5929e-08)
(-1.46067e-08 0 -2.74325e-08)
(-8.69047e-09 0 -2.95736e-08)
(-1.09421e-08 0 -3.1001e-08)
(-8.29637e-09 0 2.51819e-08)
(-4.37212e-11 0 2.49946e-08)
(1.0551e-15 0 -1.01678e-15)
(3.57206e-16 0 -1.26145e-18)
(7.12926e-16 0 4.06353e-18)
(7.13795e-16 0 9.46088e-18)
(7.13743e-16 0 1.47445e-17)
(7.11251e-16 0 1.98627e-17)
(7.06257e-16 0 2.4743e-17)
(6.98916e-16 0 2.93546e-17)
(6.89321e-16 0 3.36766e-17)
(6.77616e-16 0 3.76367e-17)
(6.63999e-16 0 4.12246e-17)
(6.48613e-16 0 4.44403e-17)
(6.31646e-16 0 4.7232e-17)
(6.13272e-16 0 4.96619e-17)
(5.93626e-16 0 5.17195e-17)
(5.72895e-16 0 5.34462e-17)
(5.51316e-16 0 5.47904e-17)
(5.29034e-16 0 5.58244e-17)
(5.06142e-16 0 5.65792e-17)
(4.82815e-16 0 5.70444e-17)
(4.59178e-16 0 5.72616e-17)
(4.35335e-16 0 5.73029e-17)
(4.11409e-16 0 5.71789e-17)
(3.87462e-16 0 5.6879e-17)
(3.63577e-16 0 5.65171e-17)
(3.39816e-16 0 5.60415e-17)
(3.16242e-16 0 5.54831e-17)
(2.92863e-16 0 5.49351e-17)
(2.69713e-16 0 5.43458e-17)
(2.46841e-16 0 5.37667e-17)
(2.24228e-16 0 5.32291e-17)
(2.01894e-16 0 5.26811e-17)
(1.79798e-16 0 5.21848e-17)
(1.5794e-16 0 5.17608e-17)
(1.3634e-16 0 5.14403e-17)
(1.14947e-16 0 5.11611e-17)
(9.37403e-17 0 5.0975e-17)
(7.26782e-17 0 5.07889e-17)
(5.17505e-17 0 5.07165e-17)
(3.09159e-17 0 5.06855e-17)
(1.0257e-17 0 5.07682e-17)
(-5.62773e-09 0 4.50057e-08)
(-1.95146e-08 0 4.52087e-08)
(-3.21506e-08 0 4.55392e-08)
(-4.50937e-08 0 4.60143e-08)
(-5.82521e-08 0 4.65611e-08)
(-7.16528e-08 0 4.71612e-08)
(-8.52939e-08 0 4.77673e-08)
(-9.91413e-08 0 4.82951e-08)
(-1.1317e-07 0 4.87004e-08)
(-1.27338e-07 0 4.89248e-08)
(-1.4157e-07 0 4.89222e-08)
(-1.55782e-07 0 4.85845e-08)
(-1.699e-07 0 4.8005e-08)
(-1.83885e-07 0 4.7432e-08)
(-1.97733e-07 0 4.68705e-08)
(-2.11541e-07 0 4.70131e-08)
(-2.24759e-07 0 4.45196e-08)
(-2.36869e-07 0 4.15746e-08)
(-2.49046e-07 0 4.02641e-08)
(-2.60953e-07 0 4.00112e-08)
(-2.71814e-07 0 3.75286e-08)
(-2.81592e-07 0 3.30951e-08)
(-2.91375e-07 0 3.21338e-08)
(-3.00282e-07 0 2.98464e-08)
(-3.08387e-07 0 2.6679e-08)
(-3.15855e-07 0 2.45338e-08)
(-3.22609e-07 0 2.19898e-08)
(-3.28623e-07 0 1.94458e-08)
(-3.3389e-07 0 1.68408e-08)
(-3.38414e-07 0 1.42506e-08)
(-3.4218e-07 0 1.16072e-08)
(-3.45172e-07 0 8.96932e-09)
(-3.47406e-07 0 6.3033e-09)
(-3.48881e-07 0 3.65925e-09)
(-3.49586e-07 0 1.04254e-09)
(-3.49536e-07 0 -1.65918e-09)
(-3.4872e-07 0 -4.29665e-09)
(-3.4715e-07 0 -6.89366e-09)
(-3.44777e-07 0 -9.55909e-09)
(-3.41693e-07 0 -1.21297e-08)
(-3.3784e-07 0 -1.46729e-08)
(-3.3322e-07 0 -1.7145e-08)
(-3.27944e-07 0 -1.95933e-08)
(-3.21933e-07 0 -2.19308e-08)
(-3.15256e-07 0 -2.42009e-08)
(-3.0791e-07 0 -2.63314e-08)
(-2.99965e-07 0 -2.83702e-08)
(-2.91441e-07 0 -3.02329e-08)
(-2.82384e-07 0 -3.19647e-08)
(-2.72838e-07 0 -3.35329e-08)
(-2.62853e-07 0 -3.48922e-08)
(-2.52497e-07 0 -3.60813e-08)
(-2.41823e-07 0 -3.7062e-08)
(-2.30883e-07 0 -3.78469e-08)
(-2.19745e-07 0 -3.83989e-08)
(-2.08476e-07 0 -3.88429e-08)
(-1.97141e-07 0 -3.90038e-08)
(-1.85792e-07 0 -3.90199e-08)
(-1.74449e-07 0 -3.88478e-08)
(-1.63202e-07 0 -3.85957e-08)
(-1.52085e-07 0 -3.81942e-08)
(-1.41108e-07 0 -3.77029e-08)
(-1.30322e-07 0 -3.7111e-08)
(-1.19736e-07 0 -3.65028e-08)
(-1.09364e-07 0 -3.58588e-08)
(-9.92068e-08 0 -3.52316e-08)
(-8.92528e-08 0 -3.46619e-08)
(-7.94824e-08 0 -3.41672e-08)
(-6.98831e-08 0 -3.38177e-08)
(-6.04209e-08 0 -3.36101e-08)
(-5.10616e-08 0 -3.35402e-08)
(-4.17868e-08 0 -3.37416e-08)
(-3.26163e-08 0 -3.41515e-08)
(-2.36542e-08 0 -3.47521e-08)
(-1.51349e-08 0 -3.53484e-08)
(-7.10269e-09 0 -3.52373e-08)
(2.75242e-10 0 -3.19723e-08)
(-9.90752e-09 0 2.3877e-08)
(-4.37131e-11 0 2.02623e-08)
(1.03721e-15 0 -1.32937e-15)
(3.60497e-16 0 -1.64402e-18)
(7.19451e-16 0 6.03842e-18)
(7.20226e-16 0 1.37002e-17)
(7.19978e-16 0 2.11758e-17)
(7.17248e-16 0 2.8393e-17)
(7.11975e-16 0 3.52896e-17)
(7.04282e-16 0 4.17933e-17)
(6.94273e-16 0 4.78007e-17)
(6.82145e-16 0 5.33635e-17)
(6.68083e-16 0 5.83679e-17)
(6.52201e-16 0 6.28451e-17)
(6.34747e-16 0 6.67431e-17)
(6.15929e-16 0 7.01036e-17)
(5.9588e-16 0 7.2916e-17)
(5.74746e-16 0 7.52631e-17)
(5.52732e-16 0 7.71139e-17)
(5.30068e-16 0 7.85098e-17)
(5.06865e-16 0 7.94817e-17)
(4.83218e-16 0 8.01124e-17)
(4.59323e-16 0 8.0402e-17)
(4.35273e-16 0 8.04226e-17)
(4.1114e-16 0 8.01952e-17)
(3.87069e-16 0 7.97712e-17)
(3.6307e-16 0 7.92129e-17)
(3.39196e-16 0 7.85408e-17)
(3.1558e-16 0 7.77963e-17)
(2.92191e-16 0 7.70105e-17)
(2.6903e-16 0 7.6204e-17)
(2.46179e-16 0 7.53975e-17)
(2.23597e-16 0 7.46427e-17)
(2.01284e-16 0 7.39603e-17)
(1.7926e-16 0 7.33192e-17)
(1.57495e-16 0 7.27609e-17)
(1.35968e-16 0 7.23163e-17)
(1.14668e-16 0 7.1944e-17)
(9.35438e-17 0 7.16959e-17)
(7.25541e-17 0 7.15304e-17)
(5.17091e-17 0 7.14788e-17)
(3.09676e-17 0 7.15304e-17)
(1.03087e-17 0 7.16649e-17)
(-5.41497e-09 0 5.78174e-08)
(-1.91435e-08 0 5.81294e-08)
(-3.16527e-08 0 5.86264e-08)
(-4.45061e-08 0 5.93005e-08)
(-5.76069e-08 0 6.00946e-08)
(-7.10052e-08 0 6.09385e-08)
(-8.46885e-08 0 6.17579e-08)
(-9.86433e-08 0 6.24836e-08)
(-1.12837e-07 0 6.30453e-08)
(-1.27206e-07 0 6.33685e-08)
(-1.41666e-07 0 6.33643e-08)
(-1.56166e-07 0 6.28862e-08)
(-1.70574e-07 0 6.23663e-08)
(-1.84903e-07 0 6.13777e-08)
(-1.99141e-07 0 6.10268e-08)
(-2.1316e-07 0 6.17796e-08)
(-2.26392e-07 0 5.64777e-08)
(-2.38818e-07 0 5.3503e-08)
(-2.51358e-07 0 5.26954e-08)
(-2.63535e-07 0 5.29964e-08)
(-2.74108e-07 0 4.57107e-08)
(-2.84212e-07 0 4.38215e-08)
(-2.94065e-07 0 4.13983e-08)
(-3.03033e-07 0 3.83862e-08)
(-3.11161e-07 0 3.4347e-08)
(-3.18748e-07 0 3.16715e-08)
(-3.25524e-07 0 2.83289e-08)
(-3.31572e-07 0 2.50448e-08)
(-3.3687e-07 0 2.16986e-08)
(-3.41415e-07 0 1.83547e-08)
(-3.45185e-07 0 1.49389e-08)
(-3.48201e-07 0 1.15456e-08)
(-3.50457e-07 0 8.12206e-09)
(-3.51938e-07 0 4.69578e-09)
(-3.52641e-07 0 1.33776e-09)
(-3.52571e-07 0 -2.15147e-09)
(-3.51747e-07 0 -5.53661e-09)
(-3.50149e-07 0 -8.91973e-09)
(-3.47735e-07 0 -1.23427e-08)
(-3.44602e-07 0 -1.56569e-08)
(-3.40724e-07 0 -1.89617e-08)
(-3.36034e-07 0 -2.21571e-08)
(-3.30683e-07 0 -2.53122e-08)
(-3.24569e-07 0 -2.83648e-08)
(-3.17769e-07 0 -3.12961e-08)
(-3.1029e-07 0 -3.40761e-08)
(-3.02192e-07 0 -3.67059e-08)
(-2.93505e-07 0 -3.91357e-08)
(-2.84254e-07 0 -4.13792e-08)
(-2.74511e-07 0 -4.34168e-08)
(-2.64311e-07 0 -4.51971e-08)
(-2.5373e-07 0 -4.67095e-08)
(-2.42826e-07 0 -4.80005e-08)
(-2.31652e-07 0 -4.90082e-08)
(-2.20301e-07 0 -4.97032e-08)
(-2.08807e-07 0 -5.02533e-08)
(-1.97255e-07 0 -5.04373e-08)
(-1.85698e-07 0 -5.04423e-08)
(-1.74194e-07 0 -5.02146e-08)
(-1.62777e-07 0 -4.98129e-08)
(-1.51553e-07 0 -4.92672e-08)
(-1.40482e-07 0 -4.85901e-08)
(-1.29637e-07 0 -4.778e-08)
(-1.19022e-07 0 -4.69501e-08)
(-1.08642e-07 0 -4.60693e-08)
(-9.85232e-08 0 -4.52011e-08)
(-8.86481e-08 0 -4.44307e-08)
(-7.89901e-08 0 -4.37221e-08)
(-6.95219e-08 0 -4.3203e-08)
(-6.024e-08 0 -4.28437e-08)
(-5.10922e-08 0 -4.26956e-08)
(-4.20261e-08 0 -4.28019e-08)
(-3.30063e-08 0 -4.31471e-08)
(-2.39757e-08 0 -4.36071e-08)
(-1.48776e-08 0 -4.38966e-08)
(-5.37251e-09 0 -4.34062e-08)
(3.72359e-09 0 -4.03297e-08)
(-1.05094e-08 0 3.58415e-08)
(-4.34759e-11 0 1.67025e-08)
(1.02182e-15 0 -1.62099e-15)
(3.64953e-16 0 -2.02659e-18)
(7.28291e-16 0 8.07535e-18)
(7.28912e-16 0 1.80636e-17)
(7.28426e-16 0 2.78243e-17)
(7.25365e-16 0 3.72438e-17)
(7.19668e-16 0 4.62084e-17)
(7.11427e-16 0 5.46249e-17)
(7.0087e-16 0 6.24211e-17)
(6.88194e-16 0 6.95762e-17)
(6.73491e-16 0 7.60386e-17)
(6.56999e-16 0 8.17461e-17)
(6.38914e-16 0 8.67609e-17)
(6.19445e-16 0 9.10519e-17)
(5.98786e-16 0 9.46295e-17)
(5.77103e-16 0 9.75556e-17)
(5.54583e-16 0 9.98821e-17)
(5.31402e-16 0 1.0164e-16)
(5.07734e-16 0 1.02829e-16)
(4.83715e-16 0 1.03553e-16)
(4.59489e-16 0 1.03894e-16)
(4.35138e-16 0 1.03863e-16)
(4.10757e-16 0 1.03522e-16)
(3.86479e-16 0 1.02943e-16)
(3.62357e-16 0 1.02198e-16)
(3.3841e-16 0 1.0133e-16)
(3.14701e-16 0 1.00368e-16)
(2.91271e-16 0 9.93134e-17)
(2.6811e-16 0 9.82897e-17)
(2.4528e-16 0 9.72764e-17)
(2.2278e-16 0 9.63252e-17)
(2.0055e-16 0 9.55084e-17)
(1.78599e-16 0 9.47639e-17)
(1.56937e-16 0 9.41228e-17)
(1.35534e-16 0 9.36058e-17)
(1.14347e-16 0 9.32336e-17)
(9.33267e-17 0 9.29648e-17)
(7.2461e-17 0 9.2851e-17)
(5.17608e-17 0 9.2851e-17)
(3.11123e-17 0 9.29854e-17)
(1.03915e-17 0 9.32129e-17)
(-5.18403e-09 0 7.02315e-08)
(-1.87222e-08 0 7.05742e-08)
(-3.0968e-08 0 7.12396e-08)
(-4.36519e-08 0 7.21522e-08)
(-5.66539e-08 0 7.3282e-08)
(-7.00187e-08 0 7.44705e-08)
(-8.37563e-08 0 7.56296e-08)
(-9.78619e-08 0 7.66765e-08)
(-1.12281e-07 0 7.74926e-08)
(-1.26916e-07 0 7.79808e-08)
(-1.41708e-07 0 7.80123e-08)
(-1.56603e-07 0 7.74937e-08)
(-1.71312e-07 0 7.72531e-08)
(-1.86143e-07 0 7.53732e-08)
(-2.01149e-07 0 7.56173e-08)
(-2.15291e-07 0 7.56049e-08)
(-2.28274e-07 0 6.94773e-08)
(-2.41442e-07 0 6.63694e-08)
(-2.54406e-07 0 6.51344e-08)
(-2.66529e-07 0 6.48556e-08)
(-2.76988e-07 0 5.57957e-08)
(-2.87581e-07 0 5.42016e-08)
(-2.97453e-07 0 5.08111e-08)
(-3.06475e-07 0 4.68515e-08)
(-3.14704e-07 0 4.23244e-08)
(-3.2238e-07 0 3.87921e-08)
(-3.29194e-07 0 3.47225e-08)
(-3.35289e-07 0 3.06793e-08)
(-3.40617e-07 0 2.65889e-08)
(-3.45172e-07 0 2.24625e-08)
(-3.48962e-07 0 1.82894e-08)
(-3.51996e-07 0 1.41402e-08)
(-3.54247e-07 0 9.94135e-09)
(-3.55736e-07 0 5.74228e-09)
(-3.56448e-07 0 1.61682e-09)
(-3.56355e-07 0 -2.64197e-09)
(-3.55551e-07 0 -6.78242e-09)
(-3.53915e-07 0 -1.09925e-08)
(-3.51482e-07 0 -1.51571e-08)
(-3.48289e-07 0 -1.92348e-08)
(-3.44348e-07 0 -2.33033e-08)
(-3.39595e-07 0 -2.72607e-08)
(-3.34093e-07 0 -3.1131e-08)
(-3.27889e-07 0 -3.49151e-08)
(-3.20954e-07 0 -3.85279e-08)
(-3.13322e-07 0 -4.19753e-08)
(-3.05025e-07 0 -4.52118e-08)
(-2.96146e-07 0 -4.82425e-08)
(-2.86658e-07 0 -5.10206e-08)
(-2.76645e-07 0 -5.35353e-08)
(-2.66183e-07 0 -5.57424e-08)
(-2.55313e-07 0 -5.76098e-08)
(-2.44097e-07 0 -5.92108e-08)
(-2.3263e-07 0 -6.0404e-08)
(-2.20982e-07 0 -6.12852e-08)
(-2.09197e-07 0 -6.19268e-08)
(-1.97374e-07 0 -6.20964e-08)
(-1.85565e-07 0 -6.20809e-08)
(-1.73831e-07 0 -6.17625e-08)
(-1.6222e-07 0 -6.12052e-08)
(-1.50819e-07 0 -6.04401e-08)
(-1.39644e-07 0 -5.95967e-08)
(-1.28688e-07 0 -5.84931e-08)
(-1.18033e-07 0 -5.74089e-08)
(-1.07671e-07 0 -5.62644e-08)
(-9.7594e-08 0 -5.51228e-08)
(-8.77964e-08 0 -5.40577e-08)
(-7.82572e-08 0 -5.31562e-08)
(-6.89737e-08 0 -5.24221e-08)
(-5.99109e-08 0 -5.18687e-08)
(-5.1007e-08 0 -5.1604e-08)
(-4.22044e-08 0 -5.16338e-08)
(-3.33903e-08 0 -5.20072e-08)
(-2.43647e-08 0 -5.26356e-08)
(-1.48802e-08 0 -5.33508e-08)
(-4.26037e-09 0 -5.39188e-08)
(4.30415e-09 0 -4.78294e-08)
(-1.33735e-08 0 5.12511e-08)
(-4.33378e-11 0 8.83331e-09)
(1.03858e-15 0 -1.91792e-15)
(3.7062e-16 0 -2.40916e-18)
(7.39541e-16 0 1.02467e-17)
(7.39965e-16 0 2.27061e-17)
(7.39138e-16 0 3.48553e-17)
(7.35622e-16 0 4.65289e-17)
(7.29356e-16 0 5.76028e-17)
(7.20485e-16 0 6.80149e-17)
(7.09225e-16 0 7.76723e-17)
(6.95752e-16 0 8.64714e-17)
(6.80253e-16 0 9.43917e-17)
(6.62965e-16 0 1.01381e-16)
(6.44064e-16 0 1.07471e-16)
(6.23798e-16 0 1.12662e-16)
(6.02394e-16 0 1.16984e-16)
(5.79998e-16 0 1.2051e-16)
(5.56817e-16 0 1.2325e-16)
(5.33025e-16 0 1.25297e-16)
(5.08789e-16 0 1.26693e-16)
(4.84283e-16 0 1.2751e-16)
(4.59633e-16 0 1.2783e-16)
(4.34911e-16 0 1.27717e-16)
(4.1024e-16 0 1.27231e-16)
(3.85735e-16 0 1.26476e-16)
(3.61437e-16 0 1.25535e-16)
(3.37366e-16 0 1.24429e-16)
(3.13574e-16 0 1.23219e-16)
(2.90113e-16 0 1.21968e-16)
(2.66983e-16 0 1.20727e-16)
(2.44215e-16 0 1.19569e-16)
(2.21819e-16 0 1.18473e-16)
(1.99692e-16 0 1.17511e-16)
(1.77865e-16 0 1.16684e-16)
(1.56358e-16 0 1.16022e-16)
(1.35079e-16 0 1.15516e-16)
(1.14027e-16 0 1.15164e-16)
(9.31612e-17 0 1.14978e-16)
(7.24403e-17 0 1.14968e-16)
(5.18539e-17 0 1.1505e-16)
(3.13501e-17 0 1.15299e-16)
(1.05569e-17 0 1.15692e-16)
(-4.87246e-09 0 8.23163e-08)
(-1.81437e-08 0 8.27479e-08)
(-3.00417e-08 0 8.36336e-08)
(-4.24627e-08 0 8.48867e-08)
(-5.53104e-08 0 8.64203e-08)
(-6.86316e-08 0 8.8056e-08)
(-8.24587e-08 0 8.96588e-08)
(-9.67524e-08 0 9.11153e-08)
(-1.11433e-07 0 9.22554e-08)
(-1.26416e-07 0 9.29638e-08)
(-1.41773e-07 0 9.28544e-08)
(-1.56978e-07 0 9.31422e-08)
(-1.72208e-07 0 9.17354e-08)
(-1.87877e-07 0 9.03547e-08)
(-2.03501e-07 0 9.23865e-08)
(-2.17747e-07 0 8.80328e-08)
(-2.30728e-07 0 8.26315e-08)
(-2.44772e-07 0 7.94042e-08)
(-2.58281e-07 0 7.88539e-08)
(-2.70101e-07 0 7.62301e-08)
(-2.80329e-07 0 6.58933e-08)
(-2.91765e-07 0 6.48779e-08)
(-3.01597e-07 0 6.04005e-08)
(-3.10629e-07 0 5.52157e-08)
(-3.19005e-07 0 5.04644e-08)
(-3.26756e-07 0 4.59633e-08)
(-3.33638e-07 0 4.11756e-08)
(-3.39769e-07 0 3.63532e-08)
(-3.45122e-07 0 3.14937e-08)
(-3.49709e-07 0 2.65997e-08)
(-3.53522e-07 0 2.16678e-08)
(-3.56562e-07 0 1.67411e-08)
(-3.5883e-07 0 1.17735e-08)
(-3.60324e-07 0 6.79631e-09)
(-3.61044e-07 0 1.89879e-09)
(-3.60944e-07 0 -3.14373e-09)
(-3.60118e-07 0 -8.03982e-09)
(-3.58466e-07 0 -1.30784e-08)
(-3.56031e-07 0 -1.80232e-08)
(-3.52727e-07 0 -2.28709e-08)
(-3.48733e-07 0 -2.77213e-08)
(-3.43907e-07 0 -3.2478e-08)
(-3.38238e-07 0 -3.70588e-08)
(-3.31939e-07 0 -4.1595e-08)
(-3.24823e-07 0 -4.59258e-08)
(-3.17004e-07 0 -5.00716e-08)
(-3.08466e-07 0 -5.39484e-08)
(-2.99303e-07 0 -5.75889e-08)
(-2.89544e-07 0 -6.0941e-08)
(-2.79223e-07 0 -6.39461e-08)
(-2.68425e-07 0 -6.65916e-08)
(-2.57199e-07 0 -6.88523e-08)
(-2.45631e-07 0 -7.07421e-08)
(-2.33803e-07 0 -7.21374e-08)
(-2.21778e-07 0 -7.32071e-08)
(-2.09632e-07 0 -7.38826e-08)
(-1.97464e-07 0 -7.40943e-08)
(-1.85332e-07 0 -7.39813e-08)
(-1.73312e-07 0 -7.35504e-08)
(-1.6148e-07 0 -7.28036e-08)
(-1.49853e-07 0 -7.17881e-08)
(-1.38494e-07 0 -7.06741e-08)
(-1.27477e-07 0 -6.93094e-08)
(-1.16767e-07 0 -6.78984e-08)
(-1.06388e-07 0 -6.64406e-08)
(-9.63546e-08 0 -6.48962e-08)
(-8.66648e-08 0 -6.36438e-08)
(-7.72856e-08 0 -6.24346e-08)
(-6.82087e-08 0 -6.13914e-08)
(-5.94173e-08 0 -6.06232e-08)
(-5.08551e-08 0 -6.01843e-08)
(-4.24264e-08 0 -6.01441e-08)
(-3.40002e-08 0 -6.05838e-08)
(-2.52982e-08 0 -6.16198e-08)
(-1.57925e-08 0 -6.32386e-08)
(-5.44135e-09 0 -6.50014e-08)
(-1.02651e-08 0 -3.86068e-08)
(-1.65046e-08 0 7.14281e-08)
(-4.34707e-11 0 -4.98252e-09)
(1.02017e-15 0 -2.14547e-15)
(3.77637e-16 0 -2.68834e-18)
(7.53407e-16 0 1.26248e-17)
(7.5352e-16 0 2.76692e-17)
(7.52238e-16 0 4.23206e-17)
(7.48123e-16 0 5.63724e-17)
(7.41164e-16 0 6.969e-17)
(7.31497e-16 0 8.22011e-17)
(7.19316e-16 0 9.37506e-17)
(7.04903e-16 0 1.04256e-16)
(6.88421e-16 0 1.13655e-16)
(6.70089e-16 0 1.21968e-16)
(6.50195e-16 0 1.29133e-16)
(6.28968e-16 0 1.35223e-16)
(6.06634e-16 0 1.40248e-16)
(5.83359e-16 0 1.44302e-16)
(5.5936e-16 0 1.47414e-16)
(5.34845e-16 0 1.49689e-16)
(5.09947e-16 0 1.51219e-16)
(4.84852e-16 0 1.52046e-16)
(4.59695e-16 0 1.52284e-16)
(4.34539e-16 0 1.52056e-16)
(4.09516e-16 0 1.51405e-16)
(3.84773e-16 0 1.50443e-16)
(3.60279e-16 0 1.49254e-16)
(3.36084e-16 0 1.4789e-16)
(3.1225e-16 0 1.46473e-16)
(2.88779e-16 0 1.45025e-16)
(2.65701e-16 0 1.43619e-16)
(2.43026e-16 0 1.42316e-16)
(2.20733e-16 0 1.41117e-16)
(1.98761e-16 0 1.40083e-16)
(1.7711e-16 0 1.39256e-16)
(1.55768e-16 0 1.38656e-16)
(1.34665e-16 0 1.38232e-16)
(1.13789e-16 0 1.38005e-16)
(9.31095e-17 0 1.37953e-16)
(7.25334e-17 0 1.38108e-16)
(5.20917e-17 0 1.38377e-16)
(3.17431e-17 0 1.38791e-16)
(1.07844e-17 0 1.39349e-16)
(-4.47601e-09 0 9.39549e-08)
(-1.73732e-08 0 9.45273e-08)
(-2.87903e-08 0 9.57165e-08)
(-4.08535e-08 0 9.74283e-08)
(-5.34903e-08 0 9.94752e-08)
(-6.6741e-08 0 1.01703e-07)
(-8.06708e-08 0 1.03879e-07)
(-9.51962e-08 0 1.05862e-07)
(-1.10201e-07 0 1.0746e-07)
(-1.2589e-07 0 1.08055e-07)
(-1.4166e-07 0 1.09001e-07)
(-1.57289e-07 0 1.08945e-07)
(-1.73421e-07 0 1.06743e-07)
(-1.90373e-07 0 1.06905e-07)
(-2.0602e-07 0 1.09414e-07)
(-2.20118e-07 0 1.00225e-07)
(-2.34269e-07 0 9.66023e-08)
(-2.48803e-07 0 9.31622e-08)
(-2.62782e-07 0 9.51851e-08)
(-2.73511e-07 0 8.17606e-08)
(-2.85258e-07 0 8.00064e-08)
(-2.96373e-07 0 7.48904e-08)
(-3.06513e-07 0 7.03087e-08)
(-3.15457e-07 0 6.33526e-08)
(-3.24182e-07 0 5.88201e-08)
(-3.3188e-07 0 5.31882e-08)
(-3.3884e-07 0 4.76596e-08)
(-3.45008e-07 0 4.20665e-08)
(-3.50404e-07 0 3.643e-08)
(-3.55013e-07 0 3.07611e-08)
(-3.58848e-07 0 2.5062e-08)
(-3.61913e-07 0 1.93525e-08)
(-3.64184e-07 0 1.36165e-08)
(-3.65684e-07 0 7.85181e-09)
(-3.664e-07 0 2.18905e-09)
(-3.6634e-07 0 -3.64141e-09)
(-3.65472e-07 0 -9.32306e-09)
(-3.63805e-07 0 -1.51886e-08)
(-3.61324e-07 0 -2.09241e-08)
(-3.57997e-07 0 -2.65829e-08)
(-3.53895e-07 0 -3.22109e-08)
(-3.49001e-07 0 -3.77841e-08)
(-3.43248e-07 0 -4.31662e-08)
(-3.36679e-07 0 -4.84021e-08)
(-3.29427e-07 0 -5.35225e-08)
(-3.21372e-07 0 -5.83954e-08)
(-3.12581e-07 0 -6.29759e-08)
(-3.03066e-07 0 -6.72215e-08)
(-2.93009e-07 0 -7.11815e-08)
(-2.82315e-07 0 -7.47201e-08)
(-2.71097e-07 0 -7.7832e-08)
(-2.59434e-07 0 -8.04905e-08)
(-2.47428e-07 0 -8.26868e-08)
(-2.35149e-07 0 -8.4268e-08)
(-2.22669e-07 0 -8.55436e-08)
(-2.10094e-07 0 -8.62142e-08)
(-1.97536e-07 0 -8.64509e-08)
(-1.85021e-07 0 -8.62207e-08)
(-1.72652e-07 0 -8.56335e-08)
(-1.60504e-07 0 -8.46191e-08)
(-1.48627e-07 0 -8.33997e-08)
(-1.37081e-07 0 -8.19419e-08)
(-1.25912e-07 0 -8.01428e-08)
(-1.15151e-07 0 -7.84135e-08)
(-1.0478e-07 0 -7.65172e-08)
(-9.47986e-08 0 -7.47602e-08)
(-8.52046e-08 0 -7.30309e-08)
(-7.60142e-08 0 -7.14704e-08)
(-6.71982e-08 0 -7.01158e-08)
(-5.87143e-08 0 -6.90529e-08)
(-5.05398e-08 0 -6.83647e-08)
(-4.2628e-08 0 -6.8165e-08)
(-3.48819e-08 0 -6.85717e-08)
(-2.70285e-08 0 -6.99636e-08)
(-1.81996e-08 0 -7.28657e-08)
(-5.37691e-09 0 -7.91762e-08)
(-2.3214e-08 0 -1.37012e-08)
(-1.86834e-08 0 3.68198e-08)
(-4.36792e-11 0 -1.79909e-08)
(9.93198e-16 0 -2.24644e-15)
(3.86003e-16 0 -2.83309e-18)
(7.69888e-16 0 1.53028e-17)
(7.6964e-16 0 3.31079e-17)
(7.6783e-16 0 5.03753e-17)
(7.63002e-16 0 6.6981e-17)
(7.55195e-16 0 8.2687e-17)
(7.44535e-16 0 9.73695e-17)
(7.31259e-16 0 1.10873e-16)
(7.15656e-16 0 1.23105e-16)
(6.97965e-16 0 1.34034e-16)
(6.78433e-16 0 1.4364e-16)
(6.57329e-16 0 1.51891e-16)
(6.34913e-16 0 1.5887e-16)
(6.11452e-16 0 1.64557e-16)
(5.87154e-16 0 1.69076e-16)
(5.62193e-16 0 1.72498e-16)
(5.3682e-16 0 1.74928e-16)
(5.11146e-16 0 1.765e-16)
(4.85348e-16 0 1.77296e-16)
(4.59623e-16 0 1.7743e-16)
(4.34022e-16 0 1.76996e-16)
(4.08638e-16 0 1.76117e-16)
(3.83584e-16 0 1.74907e-16)
(3.58893e-16 0 1.73449e-16)
(3.34595e-16 0 1.71847e-16)
(3.10699e-16 0 1.70192e-16)
(2.87259e-16 0 1.68559e-16)
(2.64284e-16 0 1.67028e-16)
(2.41723e-16 0 1.65622e-16)
(2.19596e-16 0 1.64413e-16)
(1.97841e-16 0 1.6341e-16)
(1.76438e-16 0 1.62665e-16)
(1.55324e-16 0 1.6221e-16)
(1.34448e-16 0 1.61941e-16)
(1.13768e-16 0 1.61972e-16)
(9.32646e-17 0 1.62179e-16)
(7.28643e-17 0 1.62582e-16)
(5.25363e-17 0 1.6312e-16)
(3.23117e-17 0 1.63761e-16)
(1.11049e-17 0 1.64506e-16)
(-3.95544e-09 0 1.0499e-07)
(-1.63419e-08 0 1.05753e-07)
(-2.71349e-08 0 1.07347e-07)
(-3.86976e-08 0 1.09663e-07)
(-5.10499e-08 0 1.12398e-07)
(-6.42192e-08 0 1.15371e-07)
(-7.82156e-08 0 1.18377e-07)
(-9.30183e-08 0 1.20979e-07)
(-1.08767e-07 0 1.22747e-07)
(-1.24983e-07 0 1.2451e-07)
(-1.41204e-07 0 1.25752e-07)
(-1.57686e-07 0 1.24806e-07)
(-1.75609e-07 0 1.2255e-07)
(-1.92758e-07 0 1.26958e-07)
(-2.08494e-07 0 1.22082e-07)
(-2.23199e-07 0 1.1535e-07)
(-2.39171e-07 0 1.10226e-07)
(-2.53438e-07 0 1.08491e-07)
(-2.67139e-07 0 1.09671e-07)
(-2.77833e-07 0 9.14015e-08)
(-2.91178e-07 0 9.23462e-08)
(-3.018e-07 0 8.55615e-08)
(-3.12049e-07 0 7.95643e-08)
(-3.2128e-07 0 7.2592e-08)
(-3.30094e-07 0 6.69142e-08)
(-3.37827e-07 0 6.05272e-08)
(-3.44841e-07 0 5.41942e-08)
(-3.51054e-07 0 4.78268e-08)
(-3.56468e-07 0 4.14017e-08)
(-3.611e-07 0 3.49462e-08)
(-3.6495e-07 0 2.84839e-08)
(-3.68034e-07 0 2.19966e-08)
(-3.70331e-07 0 1.54725e-08)
(-3.71848e-07 0 8.92447e-09)
(-3.7257e-07 0 2.46183e-09)
(-3.72562e-07 0 -4.05736e-09)
(-3.71599e-07 0 -1.07012e-08)
(-3.69945e-07 0 -1.72756e-08)
(-3.67452e-07 0 -2.38663e-08)
(-3.64122e-07 0 -3.03842e-08)
(-3.59836e-07 0 -3.6777e-08)
(-3.54868e-07 0 -4.31828e-08)
(-3.49012e-07 0 -4.94214e-08)
(-3.42267e-07 0 -5.54731e-08)
(-3.34716e-07 0 -6.12898e-08)
(-3.26432e-07 0 -6.69712e-08)
(-3.17351e-07 0 -7.23123e-08)
(-3.07512e-07 0 -7.72565e-08)
(-2.9696e-07 0 -8.17564e-08)
(-2.85885e-07 0 -8.59284e-08)
(-2.74192e-07 0 -8.95373e-08)
(-2.62039e-07 0 -9.26089e-08)
(-2.49521e-07 0 -9.50499e-08)
(-2.36692e-07 0 -9.69755e-08)
(-2.23662e-07 0 -9.83688e-08)
(-2.10572e-07 0 -9.90045e-08)