/*--------------------------------*- C++ -*----------------------------------*\
  =========                 |
  \\      /  F ield         | OpenFOAM: The Open Source CFD Toolbox
   \\    /   O peration     | Website:  https://openfoam.org
    \\  /    A nd           | Version:  6
     \\/     M anipulation  |
\*---------------------------------------------------------------------------*/
FoamFile
{
    version     2.0;
    format      ascii;
    class       volVectorField;
    location    "8900";
    object      U;
}
// * * * * * * * * * * * * * * * * * * * * * * * * * * * * * * * * * * * * * //

dimensions      [0 1 -1 0 0 0 0];

internalField   nonuniform List<vector> 
4800
(
(6.00157e-08 0 -5.67444e-08)
(1.73741e-07 0 -5.85264e-08)
(2.85351e-07 0 -5.84771e-08)
(3.94551e-07 0 -5.63972e-08)
(4.97941e-07 0 -5.33745e-08)
(5.94755e-07 0 -4.98089e-08)
(6.8444e-07 0 -4.58564e-08)
(7.66513e-07 0 -4.16844e-08)
(8.4073e-07 0 -3.74232e-08)
(9.07047e-07 0 -3.31859e-08)
(9.65544e-07 0 -2.90077e-08)
(1.01639e-06 0 -2.49517e-08)
(1.05982e-06 0 -2.11002e-08)
(1.09612e-06 0 -1.73963e-08)
(1.12559e-06 0 -1.38743e-08)
(1.14848e-06 0 -1.04847e-08)
(1.16488e-06 0 -7.05477e-09)
(1.17514e-06 0 -4.29399e-09)
(1.18008e-06 0 -1.71727e-09)
(1.18005e-06 0 9.87612e-10)
(1.17475e-06 0 3.8913e-09)
(1.16486e-06 0 5.51123e-09)
(1.15105e-06 0 7.39599e-09)
(1.13408e-06 0 9.12483e-09)
(1.11388e-06 0 1.05406e-08)
(1.09087e-06 0 1.19023e-08)
(1.0655e-06 0 1.29173e-08)
(1.03846e-06 0 1.36354e-08)
(1.01006e-06 0 1.42831e-08)
(9.80544e-07 0 1.476e-08)
(9.50292e-07 0 1.50404e-08)
(9.19639e-07 0 1.51823e-08)
(8.88834e-07 0 1.52132e-08)
(8.58104e-07 0 1.51187e-08)
(8.27661e-07 0 1.4929e-08)
(7.9764e-07 0 1.47144e-08)
(7.68141e-07 0 1.44329e-08)
(7.39239e-07 0 1.41461e-08)
(7.10994e-07 0 1.38093e-08)
(6.83454e-07 0 1.34655e-08)
(6.56627e-07 0 1.31175e-08)
(6.30507e-07 0 1.27647e-08)
(6.05094e-07 0 1.24411e-08)
(5.8038e-07 0 1.20835e-08)
(5.56348e-07 0 1.18009e-08)
(5.32971e-07 0 1.14741e-08)
(5.1016e-07 0 1.12367e-08)
(4.87893e-07 0 1.09089e-08)
(4.66217e-07 0 1.06438e-08)
(4.45116e-07 0 1.03712e-08)
(4.24556e-07 0 1.00981e-08)
(4.04524e-07 0 9.86149e-09)
(3.84977e-07 0 9.61072e-09)
(3.65908e-07 0 9.35228e-09)
(3.47332e-07 0 9.11323e-09)
(3.29235e-07 0 8.84951e-09)
(3.11626e-07 0 8.60949e-09)
(2.94501e-07 0 8.34228e-09)
(2.77842e-07 0 8.11538e-09)
(2.61627e-07 0 7.86105e-09)
(2.45861e-07 0 7.59787e-09)
(2.30573e-07 0 7.34258e-09)
(2.15745e-07 0 7.10088e-09)
(2.01353e-07 0 6.85435e-09)
(1.8739e-07 0 6.60695e-09)
(1.73858e-07 0 6.35695e-09)
(1.60753e-07 0 6.11256e-09)
(1.48061e-07 0 5.86719e-09)
(1.35751e-07 0 5.64813e-09)
(1.23845e-07 0 5.39558e-09)
(1.12394e-07 0 5.14563e-09)
(1.01427e-07 0 4.89294e-09)
(9.10612e-08 0 4.59449e-09)
(8.16222e-08 0 4.16087e-09)
(7.40591e-08 0 3.57642e-09)
(7.06258e-08 0 2.22955e-09)
(7.41946e-08 0 -1.20452e-08)
(6.55693e-08 0 3.09465e-09)
(-1.44848e-09 0 2.46146e-08)
(2.2802e-15 0 -2.23674e-15)
(-4.23827e-16 0 -8.5303e-18)
(-8.16841e-16 0 -2.32955e-17)
(-7.22067e-16 0 -2.4071e-17)
(-5.81322e-16 0 -2.15791e-17)
(-4.46243e-16 0 -1.85805e-17)
(-3.23035e-16 0 -1.5613e-17)
(-2.12224e-16 0 -1.27489e-17)
(-1.1351e-16 0 -1.00813e-17)
(-2.64284e-17 0 -7.58938e-18)
(4.95688e-17 0 -5.29396e-18)
(1.15019e-16 0 -3.17431e-18)
(1.70503e-16 0 -1.28213e-18)
(2.16639e-16 0 4.2393e-19)
(2.54079e-16 0 1.93354e-18)
(2.83475e-16 0 3.24668e-18)
(3.0553e-16 0 4.38406e-18)
(3.20987e-16 0 5.37667e-18)
(3.3051e-16 0 6.18318e-18)
(3.34791e-16 0 6.82424e-18)
(3.34491e-16 0 7.36191e-18)
(3.30262e-16 0 7.7755e-18)
(3.22704e-16 0 8.08569e-18)
(3.12354e-16 0 8.32351e-18)
(2.99729e-16 0 8.46826e-18)
(2.85233e-16 0 8.55098e-18)
(2.69309e-16 0 8.62336e-18)
(2.52259e-16 0 8.6337e-18)
(2.3433e-16 0 8.60268e-18)
(2.15842e-16 0 8.56132e-18)
(1.96972e-16 0 8.49928e-18)
(1.77875e-16 0 8.43724e-18)
(1.58695e-16 0 8.38554e-18)
(1.39494e-16 0 8.30283e-18)
(1.20344e-16 0 8.22011e-18)
(1.01319e-16 0 8.15807e-18)
(8.24286e-17 0 8.09603e-18)
(6.36516e-17 0 8.04433e-18)
(4.50193e-17 0 7.96161e-18)
(2.66145e-17 0 7.8272e-18)
(8.7371e-18 0 7.45497e-18)
(5.75598e-08 0 -1.7712e-07)
(1.79244e-07 0 -1.71601e-07)
(2.89221e-07 0 -1.66701e-07)
(3.99761e-07 0 -1.59137e-07)
(5.04152e-07 0 -1.49966e-07)
(6.01612e-07 0 -1.39686e-07)
(6.91716e-07 0 -1.2861e-07)
(7.74011e-07 0 -1.17087e-07)
(8.48287e-07 0 -1.05412e-07)
(9.14529e-07 0 -9.38019e-08)
(9.7286e-07 0 -8.24192e-08)
(1.0235e-06 0 -7.13333e-08)
(1.06672e-06 0 -6.07238e-08)
(1.10279e-06 0 -5.03443e-08)
(1.132e-06 0 -4.04182e-08)
(1.15461e-06 0 -3.06152e-08)
(1.17067e-06 0 -2.06089e-08)
(1.18059e-06 0 -1.26673e-08)
(1.18532e-06 0 -5.11841e-09)
(1.18486e-06 0 2.97861e-09)
(1.17911e-06 0 1.14877e-08)
(1.16885e-06 0 1.639e-08)
(1.15468e-06 0 2.19766e-08)
(1.13725e-06 0 2.71953e-08)
(1.1166e-06 0 3.14094e-08)
(1.09315e-06 0 3.55526e-08)
(1.06737e-06 0 3.86275e-08)
(1.03994e-06 0 4.08401e-08)
(1.01117e-06 0 4.28411e-08)
(9.81309e-07 0 4.43196e-08)
(9.50762e-07 0 4.52137e-08)
(9.19855e-07 0 4.56825e-08)
(8.88828e-07 0 4.58273e-08)
(8.57913e-07 0 4.55739e-08)
(8.27321e-07 0 4.50945e-08)
(7.9718e-07 0 4.44715e-08)
(7.67592e-07 0 4.36835e-08)
(7.3864e-07 0 4.28401e-08)
(7.10363e-07 0 4.18863e-08)
(6.82797e-07 0 4.08901e-08)
(6.5596e-07 0 3.99642e-08)
(6.29846e-07 0 3.89502e-08)
(6.04462e-07 0 3.79964e-08)
(5.79783e-07 0 3.70192e-08)
(5.55754e-07 0 3.62035e-08)
(5.324e-07 0 3.53255e-08)
(5.09636e-07 0 3.46845e-08)
(4.87409e-07 0 3.37964e-08)
(4.6575e-07 0 3.30254e-08)
(4.44676e-07 0 3.22949e-08)
(4.24141e-07 0 3.15572e-08)
(4.04118e-07 0 3.0958e-08)
(3.84575e-07 0 3.03415e-08)
(3.65516e-07 0 2.96599e-08)
(3.46942e-07 0 2.90686e-08)
(3.2885e-07 0 2.83893e-08)
(3.11238e-07 0 2.77962e-08)
(2.94113e-07 0 2.71534e-08)
(2.7745e-07 0 2.66422e-08)
(2.6124e-07 0 2.60276e-08)
(2.45481e-07 0 2.54035e-08)
(2.30206e-07 0 2.47782e-08)
(2.154e-07 0 2.421e-08)
(2.01027e-07 0 2.3645e-08)
(1.87074e-07 0 2.30968e-08)
(1.73557e-07 0 2.25224e-08)
(1.60449e-07 0 2.2023e-08)
(1.47729e-07 0 2.15124e-08)
(1.35415e-07 0 2.10204e-08)
(1.2352e-07 0 2.04428e-08)
(1.12018e-07 0 1.98849e-08)
(1.00924e-07 0 1.92551e-08)
(9.02495e-08 0 1.84824e-08)
(7.9973e-08 0 1.74371e-08)
(6.97917e-08 0 1.52248e-08)
(6.02344e-08 0 9.7996e-09)
(3.69127e-08 0 -5.81045e-09)
(2.49172e-08 0 5.51166e-08)
(-1.12134e-09 0 5.64877e-08)
(1.61747e-15 0 -6.74969e-15)
(-4.38743e-16 0 -2.57253e-17)
(-8.32392e-16 0 -4.03664e-17)
(-7.2034e-16 0 -3.85259e-17)
(-5.75821e-16 0 -3.25185e-17)
(-4.40277e-16 0 -2.59011e-17)
(-3.17203e-16 0 -1.94594e-17)
(-2.06681e-16 0 -1.33796e-17)
(-1.0833e-16 0 -7.76516e-18)
(-2.16308e-17 0 -2.6263e-18)
(5.39736e-17 0 2.03693e-18)
(1.19021e-16 0 6.1625e-18)
(1.74101e-16 0 9.84345e-18)
(2.19844e-16 0 1.30281e-17)
(2.56891e-16 0 1.57681e-17)
(2.85925e-16 0 1.80636e-17)
(3.07639e-16 0 2.00074e-17)
(3.22756e-16 0 2.15998e-17)
(3.31937e-16 0 2.28302e-17)
(3.35959e-16 0 2.37918e-17)
(3.35442e-16 0 2.44742e-17)
(3.30996e-16 0 2.49602e-17)
(3.23252e-16 0 2.52497e-17)
(3.12736e-16 0 2.54358e-17)
(2.99977e-16 0 2.54668e-17)
(2.85398e-16 0 2.54151e-17)
(2.69402e-16 0 2.53221e-17)
(2.52249e-16 0 2.51463e-17)
(2.34258e-16 0 2.49705e-17)
(2.15739e-16 0 2.4743e-17)
(1.96848e-16 0 2.45052e-17)
(1.77751e-16 0 2.42778e-17)
(1.5855e-16 0 2.4071e-17)
(1.39339e-16 0 2.38228e-17)
(1.202e-16 0 2.3616e-17)
(1.01185e-16 0 2.34402e-17)
(8.23252e-17 0 2.32541e-17)
(6.35275e-17 0 2.3099e-17)
(4.47918e-17 0 2.29232e-17)
(2.61079e-17 0 2.26648e-17)
(8.3752e-18 0 2.22305e-17)
(5.77665e-08 0 -2.98979e-07)
(1.84766e-07 0 -2.93997e-07)
(2.97198e-07 0 -2.85949e-07)
(4.10855e-07 0 -2.73366e-07)
(5.17569e-07 0 -2.57583e-07)
(6.16578e-07 0 -2.39633e-07)
(7.07654e-07 0 -2.20257e-07)
(7.90419e-07 0 -2.00139e-07)
(8.64757e-07 0 -1.79833e-07)
(9.30787e-07 0 -1.59711e-07)
(9.88726e-07 0 -1.40012e-07)
(1.03885e-06 0 -1.20967e-07)
(1.08149e-06 0 -1.02762e-07)
(1.11695e-06 0 -8.49873e-08)
(1.14553e-06 0 -6.83172e-08)
(1.16746e-06 0 -5.11493e-08)
(1.1827e-06 0 -3.47559e-08)
(1.1919e-06 0 -2.1466e-08)
(1.19606e-06 0 -8.53162e-09)
(1.19469e-06 0 5.71463e-09)
(1.18798e-06 0 1.88679e-08)
(1.17693e-06 0 2.77032e-08)
(1.16205e-06 0 3.70355e-08)
(1.1437e-06 0 4.57984e-08)
(1.12208e-06 0 5.26364e-08)
(1.09772e-06 0 5.97507e-08)
(1.0711e-06 0 6.46101e-08)
(1.04285e-06 0 6.83109e-08)
(1.01331e-06 0 7.15909e-08)
(9.82761e-07 0 7.39422e-08)
(9.51625e-07 0 7.53705e-08)
(9.202e-07 0 7.60657e-08)
(8.88704e-07 0 7.6249e-08)
(8.57434e-07 0 7.57285e-08)
(8.26587e-07 0 7.489e-08)
(7.96236e-07 0 7.37906e-08)
(7.66468e-07 0 7.24441e-08)
(7.37382e-07 0 7.1022e-08)
(7.09041e-07 0 6.94029e-08)
(6.8148e-07 0 6.76729e-08)
(6.54664e-07 0 6.61161e-08)
(6.2858e-07 0 6.44125e-08)
(6.03215e-07 0 6.2832e-08)
(5.78564e-07 0 6.13007e-08)
(5.54588e-07 0 5.98432e-08)
(5.31305e-07 0 5.8365e-08)
(5.08601e-07 0 5.73241e-08)
(4.86422e-07 0 5.59292e-08)
(4.64776e-07 0 5.46328e-08)
(4.43711e-07 0 5.3454e-08)
(4.23202e-07 0 5.22154e-08)
(4.03209e-07 0 5.11972e-08)
(3.8369e-07 0 5.01619e-08)
(3.64626e-07 0 4.90055e-08)
(3.46034e-07 0 4.80156e-08)
(3.27942e-07 0 4.68823e-08)
(3.10336e-07 0 4.58465e-08)
(2.93238e-07 0 4.47243e-08)
(2.76588e-07 0 4.37987e-08)
(2.60387e-07 0 4.27346e-08)
(2.44638e-07 0 4.16503e-08)
(2.29364e-07 0 4.05699e-08)
(2.14542e-07 0 3.95867e-08)
(2.00165e-07 0 3.86038e-08)
(1.86227e-07 0 3.7625e-08)
(1.72718e-07 0 3.66306e-08)
(1.59617e-07 0 3.57119e-08)
(1.46919e-07 0 3.47702e-08)
(1.34606e-07 0 3.38413e-08)
(1.22685e-07 0 3.28716e-08)
(1.11135e-07 0 3.19127e-08)
(9.99226e-08 0 3.08852e-08)
(8.89456e-08 0 2.97736e-08)
(7.80698e-08 0 2.83046e-08)
(6.66722e-08 0 2.62787e-08)
(5.48862e-08 0 2.37825e-08)
(3.22225e-08 0 2.06603e-08)
(1.9683e-08 0 6.60416e-08)
(-1.06905e-09 0 7.4641e-08)
(1.49841e-15 0 -1.13517e-14)
(-4.38622e-16 0 -4.30548e-17)
(-8.29631e-16 0 -3.83295e-17)
(-7.14208e-16 0 -3.04919e-17)
(-5.68707e-16 0 -2.16411e-17)
(-4.33184e-16 0 -1.28523e-17)
(-3.10503e-16 0 -4.54949e-18)
(-2.0054e-16 0 3.08125e-18)
(-1.02756e-16 0 1.00192e-17)
(-1.6616e-17 0 1.61714e-17)
(5.8368e-17 0 2.15998e-17)
(1.22816e-16 0 2.62526e-17)
(1.77337e-16 0 3.02645e-17)
(2.22553e-16 0 3.35835e-17)
(2.59114e-16 0 3.63132e-17)
(2.87714e-16 0 3.84846e-17)
(3.09045e-16 0 4.01803e-17)
(3.238e-16 0 4.14314e-17)
(3.32702e-16 0 4.22896e-17)
(3.36435e-16 0 4.2848e-17)
(3.3566e-16 0 4.31065e-17)
(3.31038e-16 0 4.31582e-17)
(3.2319e-16 0 4.30444e-17)
(3.12581e-16 0 4.27859e-17)
(2.99729e-16 0 4.24654e-17)
(2.85098e-16 0 4.20518e-17)
(2.69041e-16 0 4.15865e-17)
(2.51908e-16 0 4.11005e-17)
(2.33927e-16 0 4.06663e-17)
(2.15377e-16 0 4.02217e-17)
(1.96497e-16 0 3.97771e-17)
(1.7742e-16 0 3.93428e-17)
(1.58229e-16 0 3.89189e-17)
(1.39049e-16 0 3.85466e-17)
(1.19972e-16 0 3.82157e-17)
(1.00968e-16 0 3.79159e-17)
(8.20873e-17 0 3.7616e-17)
(6.33103e-17 0 3.73575e-17)
(4.4585e-17 0 3.71301e-17)
(2.59218e-17 0 3.69233e-17)
(8.30283e-18 0 3.67889e-17)
(5.99082e-08 0 -4.24551e-07)
(1.93869e-07 0 -4.17053e-07)
(3.10326e-07 0 -4.04621e-07)
(4.28195e-07 0 -3.85954e-07)
(5.38153e-07 0 -3.62756e-07)
(6.39299e-07 0 -3.36586e-07)
(7.31604e-07 0 -3.08579e-07)
(8.14863e-07 0 -2.79736e-07)
(8.89149e-07 0 -2.50836e-07)
(9.54744e-07 0 -2.22388e-07)
(1.01202e-06 0 -1.94699e-07)
(1.06137e-06 0 -1.6806e-07)
(1.10317e-06 0 -1.42495e-07)
(1.13775e-06 0 -1.1775e-07)
(1.16542e-06 0 -9.45014e-08)
(1.18646e-06 0 -6.98321e-08)
(1.20059e-06 0 -4.78136e-08)
(1.20885e-06 0 -2.89069e-08)
(1.21204e-06 0 -1.09619e-08)
(1.20937e-06 0 1.03492e-08)
(1.20133e-06 0 2.71432e-08)
(1.18902e-06 0 4.04379e-08)
(1.17308e-06 0 5.33998e-08)
(1.15337e-06 0 6.57762e-08)
(1.13029e-06 0 7.51255e-08)
(1.10451e-06 0 8.54138e-08)
(1.07666e-06 0 9.18453e-08)
(1.04718e-06 0 9.70568e-08)
(1.01647e-06 0 1.01576e-07)
(9.84886e-07 0 1.04709e-07)
(9.52866e-07 0 1.06551e-07)
(9.20659e-07 0 1.07469e-07)
(8.88481e-07 0 1.0754e-07)
(8.56671e-07 0 1.06635e-07)
(8.25403e-07 0 1.05401e-07)
(7.94731e-07 0 1.03771e-07)
(7.64741e-07 0 1.01783e-07)
(7.35502e-07 0 9.96978e-08)
(7.07072e-07 0 9.73359e-08)
(6.79465e-07 0 9.49219e-08)
(6.5263e-07 0 9.27297e-08)
(6.26595e-07 0 9.03336e-08)
(6.01328e-07 0 8.80417e-08)
(5.76772e-07 0 8.59048e-08)
(5.52848e-07 0 8.38616e-08)
(5.29631e-07 0 8.18017e-08)
(5.07048e-07 0 8.03662e-08)
(4.84992e-07 0 7.84361e-08)
(4.63374e-07 0 7.65939e-08)
(4.42324e-07 0 7.49769e-08)
(4.21871e-07 0 7.31992e-08)
(4.01888e-07 0 7.18355e-08)
(3.82375e-07 0 7.04547e-08)
(3.63334e-07 0 6.88251e-08)
(3.44748e-07 0 6.74587e-08)
(3.26691e-07 0 6.58345e-08)
(3.09084e-07 0 6.43909e-08)
(2.91966e-07 0 6.28735e-08)
(2.75292e-07 0 6.15969e-08)
(2.59118e-07 0 6.01037e-08)
(2.43391e-07 0 5.85937e-08)
(2.28123e-07 0 5.71217e-08)
(2.13318e-07 0 5.57073e-08)
(1.98974e-07 0 5.43019e-08)
(1.85072e-07 0 5.29211e-08)
(1.71583e-07 0 5.15794e-08)
(1.58479e-07 0 5.02976e-08)
(1.45776e-07 0 4.90336e-08)
(1.33481e-07 0 4.77478e-08)
(1.21567e-07 0 4.64232e-08)
(1.09976e-07 0 4.51571e-08)
(9.86944e-08 0 4.38264e-08)
(8.76539e-08 0 4.24805e-08)
(7.66952e-08 0 4.10572e-08)
(6.54221e-08 0 3.96316e-08)
(5.48399e-08 0 3.84022e-08)
(3.87831e-08 0 3.99782e-08)
(2.039e-08 0 8.00802e-08)
(-1.05288e-09 0 9.00204e-08)
(1.46279e-15 0 -1.6014e-14)
(-4.34018e-16 0 -6.05703e-17)
(-8.19839e-16 0 -4.81833e-17)
(-7.03662e-16 0 -3.51138e-17)
(-5.58192e-16 0 -2.23752e-17)
(-4.23196e-16 0 -1.03191e-17)
(-3.0128e-16 0 8.47863e-19)
(-1.92133e-16 0 1.09912e-17)
(-9.52602e-17 0 2.01005e-17)
(-1.00502e-17 0 2.80931e-17)
(6.40652e-17 0 3.50414e-17)
(1.27686e-16 0 4.10178e-17)
(1.81421e-16 0 4.60326e-17)
(2.25913e-16 0 5.01478e-17)
(2.61813e-16 0 5.34566e-17)
(2.89792e-16 0 5.60415e-17)
(3.10586e-16 0 5.79854e-17)
(3.24886e-16 0 5.93606e-17)
(3.33364e-16 0 6.02394e-17)
(3.36787e-16 0 6.07047e-17)
(3.35763e-16 0 6.08495e-17)
(3.30914e-16 0 6.07461e-17)
(3.2288e-16 0 6.04566e-17)
(3.12157e-16 0 5.99603e-17)
(2.99233e-16 0 5.94019e-17)
(2.84519e-16 0 5.87298e-17)
(2.68441e-16 0 5.80371e-17)
(2.51318e-16 0 5.73133e-17)
(2.33379e-16 0 5.65998e-17)
(2.1484e-16 0 5.59381e-17)
(1.95959e-16 0 5.52867e-17)
(1.76893e-16 0 5.46456e-17)
(1.57764e-16 0 5.40356e-17)
(1.38646e-16 0 5.34979e-17)
(1.19559e-16 0 5.30119e-17)
(1.00596e-16 0 5.25673e-17)
(8.17772e-17 0 5.21537e-17)
(6.30415e-17 0 5.17712e-17)
(4.43679e-17 0 5.14506e-17)
(2.57563e-17 0 5.12232e-17)
(8.23045e-18 0 5.10267e-17)
(6.32899e-08 0 -5.57257e-07)
(2.06457e-07 0 -5.46681e-07)
(3.2901e-07 0 -5.29149e-07)
(4.5268e-07 0 -5.03293e-07)
(5.66971e-07 0 -4.71356e-07)
(6.70805e-07 0 -4.35764e-07)
(7.64514e-07 0 -3.98145e-07)
(8.48181e-07 0 -3.59805e-07)
(9.22136e-07 0 -3.21783e-07)
(9.86949e-07 0 -2.84661e-07)
(1.04322e-06 0 -2.48762e-07)
(1.09139e-06 0 -2.14565e-07)
(1.13209e-06 0 -1.81282e-07)
(1.16549e-06 0 -1.49881e-07)
(1.19184e-06 0 -1.19865e-07)
(1.21173e-06 0 -8.66394e-08)
(1.22448e-06 0 -5.99579e-08)
(1.23175e-06 0 -3.58355e-08)
(1.23339e-06 0 -1.18998e-08)
(1.22907e-06 0 1.79336e-08)
(1.21936e-06 0 3.52106e-08)
(1.2054e-06 0 5.46747e-08)
(1.18781e-06 0 7.13249e-08)
(1.16615e-06 0 8.72902e-08)
(1.14118e-06 0 9.93905e-08)
(1.11349e-06 0 1.12509e-07)
(1.08394e-06 0 1.20472e-07)
(1.05281e-06 0 1.2727e-07)
(1.02053e-06 0 1.32778e-07)
(9.87553e-07 0 1.36523e-07)
(9.54328e-07 0 1.38649e-07)
(9.2107e-07 0 1.39691e-07)
(8.88016e-07 0 1.39454e-07)
(8.55506e-07 0 1.38011e-07)
(8.23668e-07 0 1.3629e-07)
(7.92583e-07 0 1.33955e-07)
(7.62304e-07 0 1.31285e-07)
(7.3288e-07 0 1.28444e-07)
(7.04377e-07 0 1.2526e-07)
(6.76763e-07 0 1.22117e-07)
(6.49959e-07 0 1.1912e-07)
(6.23991e-07 0 1.15997e-07)
(5.98811e-07 0 1.13069e-07)
(5.7435e-07 0 1.10371e-07)
(5.50538e-07 0 1.07776e-07)
(5.27454e-07 0 1.04877e-07)
(5.04974e-07 0 1.03165e-07)
(4.83092e-07 0 1.00885e-07)
(4.61553e-07 0 9.84323e-08)
(4.40482e-07 0 9.63769e-08)
(4.20075e-07 0 9.41431e-08)
(4.00147e-07 0 9.23666e-08)
(3.80675e-07 0 9.0608e-08)
(3.6168e-07 0 8.85202e-08)
(3.43092e-07 0 8.67745e-08)
(3.2503e-07 0 8.47295e-08)
(3.07409e-07 0 8.2898e-08)
(2.90301e-07 0 8.09477e-08)
(2.73622e-07 0 7.92509e-08)
(2.57462e-07 0 7.73328e-08)
(2.41758e-07 0 7.54095e-08)
(2.26514e-07 0 7.35154e-08)
(2.11732e-07 0 7.17079e-08)
(1.97398e-07 0 6.994e-08)
(1.83511e-07 0 6.81585e-08)
(1.7004e-07 0 6.64964e-08)
(1.5697e-07 0 6.48314e-08)
(1.44288e-07 0 6.31873e-08)
(1.32015e-07 0 6.15453e-08)
(1.20097e-07 0 5.99201e-08)
(1.08507e-07 0 5.8338e-08)
(9.72611e-08 0 5.67277e-08)
(8.63155e-08 0 5.51726e-08)
(7.56674e-08 0 5.37195e-08)
(6.50956e-08 0 5.27112e-08)
(5.57212e-08 0 5.23706e-08)
(4.22989e-08 0 5.53021e-08)
(2.12329e-08 0 1.02693e-07)
(-1.03922e-09 0 1.07806e-07)
(1.4525e-15 0 -2.07577e-14)
(-4.26126e-16 0 -7.83547e-17)
(-8.04175e-16 0 -5.98982e-17)
(-6.8839e-16 0 -4.16485e-17)
(-5.43892e-16 0 -2.46396e-17)
(-4.09971e-16 0 -8.96457e-18)
(-2.89213e-16 0 5.33532e-18)
(-1.81297e-16 0 1.81566e-17)
(-8.56752e-17 0 2.95717e-17)
(-1.68536e-18 0 3.95599e-17)
(7.12927e-17 0 4.81833e-17)
(1.33817e-16 0 5.55245e-17)
(1.86488e-16 0 6.1625e-17)
(2.29987e-16 0 6.6588e-17)
(2.65018e-16 0 7.05482e-17)
(2.92243e-16 0 7.35674e-17)
(3.12343e-16 0 7.58008e-17)
(3.26044e-16 0 7.73e-17)
(3.34036e-16 0 7.82306e-17)
(3.37035e-16 0 7.86649e-17)
(3.35711e-16 0 7.86856e-17)
(3.30624e-16 0 7.84167e-17)
(3.22383e-16 0 7.79101e-17)
(3.11527e-16 0 7.72173e-17)
(2.98488e-16 0 7.63798e-17)
(2.83733e-16 0 7.54906e-17)
(2.67634e-16 0 7.45393e-17)
(2.5047e-16 0 7.35674e-17)
(2.32531e-16 0 7.25851e-17)
(2.14064e-16 0 7.16338e-17)
(1.95225e-16 0 7.07239e-17)
(1.76179e-16 0 6.98451e-17)
(1.57092e-16 0 6.90592e-17)
(1.38036e-16 0 6.83044e-17)
(1.19021e-16 0 6.76013e-17)
(1.00089e-16 0 6.70016e-17)
(8.12912e-17 0 6.64123e-17)
(6.26279e-17 0 6.58953e-17)
(4.40474e-17 0 6.54714e-17)
(2.54875e-17 0 6.51198e-17)
(8.10637e-18 0 6.48613e-17)
(6.80459e-08 0 -6.99735e-07)
(2.23607e-07 0 -6.85253e-07)
(3.54583e-07 0 -6.61358e-07)
(4.85865e-07 0 -6.26567e-07)
(6.056e-07 0 -5.83972e-07)
(7.12554e-07 0 -5.37194e-07)
(8.07572e-07 0 -4.88591e-07)
(8.91266e-07 0 -4.39717e-07)
(9.64343e-07 0 -3.91907e-07)
(1.02778e-06 0 -3.45808e-07)
(1.08248e-06 0 -3.01629e-07)
(1.12906e-06 0 -2.59654e-07)
(1.16833e-06 0 -2.18714e-07)
(1.20016e-06 0 -1.81004e-07)
(1.22499e-06 0 -1.43214e-07)
(1.24312e-06 0 -1.03028e-07)
(1.25448e-06 0 -7.09537e-08)
(1.26075e-06 0 -4.11305e-08)
(1.26022e-06 0 -9.31722e-09)
(1.25375e-06 0 2.50308e-08)
(1.24216e-06 0 4.64151e-08)
(1.22624e-06 0 7.09812e-08)
(1.20627e-06 0 9.1362e-08)
(1.18209e-06 0 1.10724e-07)
(1.15473e-06 0 1.26247e-07)
(1.12461e-06 0 1.41599e-07)
(1.09284e-06 0 1.51142e-07)
(1.05961e-06 0 1.593e-07)
(1.02535e-06 0 1.65703e-07)
(9.90607e-07 0 1.69723e-07)
(9.55823e-07 0 1.72099e-07)
(9.2126e-07 0 1.72969e-07)
(8.87132e-07 0 1.72251e-07)
(8.53774e-07 0 1.70084e-07)
(8.21259e-07 0 1.67708e-07)
(7.89706e-07 0 1.64477e-07)
(7.59084e-07 0 1.61062e-07)
(7.29461e-07 0 1.57254e-07)
(7.0087e-07 0 1.53186e-07)
(6.73261e-07 0 1.49286e-07)
(6.4652e-07 0 1.45491e-07)
(6.20647e-07 0 1.41615e-07)
(5.9563e-07 0 1.37951e-07)
(5.71341e-07 0 1.34651e-07)
(5.47718e-07 0 1.31416e-07)
(5.24757e-07 0 1.28003e-07)
(5.02405e-07 0 1.25499e-07)
(4.80653e-07 0 1.23337e-07)
(4.59297e-07 0 1.20252e-07)
(4.38209e-07 0 1.17703e-07)
(4.17837e-07 0 1.15039e-07)
(3.97964e-07 0 1.12826e-07)
(3.78517e-07 0 1.10716e-07)
(3.59571e-07 0 1.08208e-07)
(3.40982e-07 0 1.06112e-07)
(3.22936e-07 0 1.0356e-07)
(3.05313e-07 0 1.01333e-07)
(2.88232e-07 0 9.89611e-08)
(2.71544e-07 0 9.68915e-08)
(2.55394e-07 0 9.44828e-08)
(2.39682e-07 0 9.21905e-08)
(2.2448e-07 0 8.9805e-08)
(2.0973e-07 0 8.76177e-08)
(1.95464e-07 0 8.54115e-08)
(1.81627e-07 0 8.32285e-08)
(1.6818e-07 0 8.12121e-08)
(1.55135e-07 0 7.92111e-08)
(1.42498e-07 0 7.71834e-08)
(1.30243e-07 0 7.5212e-08)
(1.18331e-07 0 7.32839e-08)
(1.0677e-07 0 7.13691e-08)
(9.55676e-08 0 6.94566e-08)
(8.47758e-08 0 6.7563e-08)
(7.45143e-08 0 6.57711e-08)
(6.44364e-08 0 6.46149e-08)
(5.64666e-08 0 6.32975e-08)
(4.64085e-08 0 6.63684e-08)
(2.26901e-08 0 1.28416e-07)
(-1.02409e-09 0 1.24275e-07)
(1.42742e-15 0 -2.54123e-14)
(-4.15379e-16 0 -9.6046e-17)
(-7.83123e-16 0 -7.20164e-17)
(-6.68403e-16 0 -4.87106e-17)
(-5.25498e-16 0 -2.72763e-17)
(-3.93231e-16 0 -7.78583e-18)
(-2.74159e-16 0 9.82277e-18)
(-1.67876e-16 0 2.55082e-17)
(-7.38569e-17 0 3.93118e-17)
(8.551e-18 0 5.13472e-17)
(8.00298e-17 0 6.1656e-17)
(1.41117e-16 0 7.0331e-17)
(1.92485e-16 0 7.75172e-17)
(2.34826e-16 0 8.33281e-17)
(2.68772e-16 0 8.7919e-17)
(2.95035e-16 0 9.13931e-17)
(3.14308e-16 0 9.38643e-17)
(3.27315e-16 0 9.5498e-17)
(3.34739e-16 0 9.64699e-17)
(3.37242e-16 0 9.68525e-17)
(3.35504e-16 0 9.67595e-17)
(3.30138e-16 0 9.62838e-17)
(3.2167e-16 0 9.5529e-17)
(3.10637e-16 0 9.45778e-17)
(2.97527e-16 0 9.34611e-17)
(2.82679e-16 0 9.22927e-17)
(2.66528e-16 0 9.10312e-17)
(2.49364e-16 0 8.97388e-17)
(2.31414e-16 0 8.8467e-17)
(2.12978e-16 0 8.72262e-17)
(1.94201e-16 0 8.60061e-17)
(1.75238e-16 0 8.48687e-17)
(1.56223e-16 0 8.38244e-17)
(1.37198e-16 0 8.28215e-17)
(1.18256e-16 0 8.18805e-17)
(9.94064e-17 0 8.10327e-17)
(8.06708e-17 0 8.02572e-17)
(6.20903e-17 0 7.96161e-17)
(4.35821e-17 0 7.90475e-17)
(2.51463e-17 0 7.85925e-17)
(7.98229e-18 0 7.82823e-17)
(7.44885e-08 0 -8.55378e-07)
(2.46968e-07 0 -8.3557e-07)
(3.89077e-07 0 -8.03316e-07)
(5.30007e-07 0 -7.56949e-07)
(6.56265e-07 0 -7.00837e-07)
(7.66342e-07 0 -6.40439e-07)
(8.62055e-07 0 -5.79122e-07)
(9.44937e-07 0 -5.18651e-07)
(1.01628e-06 0 -4.6035e-07)
(1.07747e-06 0 -4.04989e-07)
(1.12968e-06 0 -3.52855e-07)
(1.17447e-06 0 -3.02225e-07)
(1.21163e-06 0 -2.55384e-07)
(1.2415e-06 0 -2.10787e-07)
(1.265e-06 0 -1.62328e-07)
(1.28086e-06 0 -1.19266e-07)
(1.29106e-06 0 -8.10504e-08)
(1.29555e-06 0 -4.5059e-08)
(1.29274e-06 0 -3.26569e-09)
(1.2838e-06 0 3.30856e-08)
(1.26975e-06 0 6.06985e-08)
(1.25154e-06 0 8.97896e-08)
(1.22863e-06 0 1.14342e-07)
(1.20128e-06 0 1.36559e-07)
(1.17085e-06 0 1.56104e-07)
(1.1377e-06 0 1.73092e-07)
(1.10316e-06 0 1.84283e-07)
(1.06741e-06 0 1.93585e-07)
(1.0307e-06 0 2.00817e-07)
(9.93793e-07 0 2.04893e-07)
(9.57127e-07 0 2.07076e-07)
(9.20975e-07 0 2.0759e-07)
(8.85619e-07 0 2.0602e-07)
(8.51299e-07 0 2.03e-07)
(8.18019e-07 0 1.99719e-07)
(7.8591e-07 0 1.95476e-07)
(7.54919e-07 0 1.91074e-07)
(7.25112e-07 0 1.86226e-07)
(6.9646e-07 0 1.8114e-07)
(6.68863e-07 0 1.76423e-07)
(6.42269e-07 0 1.71695e-07)
(6.16591e-07 0 1.6703e-07)
(5.91793e-07 0 1.62592e-07)
(5.67663e-07 0 1.58853e-07)
(5.44311e-07 0 1.54756e-07)
(5.2145e-07 0 1.51314e-07)
(4.99364e-07 0 1.47459e-07)
(4.77699e-07 0 1.45585e-07)
(4.56649e-07 0 1.42042e-07)
(4.35657e-07 0 1.38865e-07)
(4.15252e-07 0 1.35882e-07)
(3.95428e-07 0 1.33173e-07)
(3.76007e-07 0 1.30765e-07)
(3.57108e-07 0 1.27827e-07)
(3.3847e-07 0 1.25402e-07)
(3.20408e-07 0 1.22404e-07)
(3.02772e-07 0 1.19747e-07)
(2.85702e-07 0 1.16963e-07)
(2.69033e-07 0 1.14472e-07)
(2.52903e-07 0 1.11637e-07)
(2.37193e-07 0 1.08889e-07)
(2.22012e-07 0 1.06087e-07)
(2.07305e-07 0 1.03452e-07)
(1.93063e-07 0 1.00873e-07)
(1.7931e-07 0 9.82484e-08)
(1.65888e-07 0 9.59781e-08)
(1.52942e-07 0 9.35101e-08)
(1.40365e-07 0 9.11179e-08)
(1.28144e-07 0 8.88606e-08)
(1.1625e-07 0 8.66284e-08)
(1.04693e-07 0 8.44e-08)
(9.34933e-08 0 8.21715e-08)
(8.27372e-08 0 7.98492e-08)
(7.27525e-08 0 7.74298e-08)
(6.30928e-08 0 7.54257e-08)
(5.62374e-08 0 7.1484e-08)
(3.99588e-08 0 8.6446e-08)
(1.88589e-08 0 1.6645e-07)
(-1.00614e-09 0 1.34301e-07)
(1.40807e-15 0 -2.98647e-14)
(-4.01929e-16 0 -1.13582e-16)
(-7.5686e-16 0 -8.4176e-17)
(-6.43671e-16 0 -5.5814e-17)
(-5.02957e-16 0 -2.99129e-17)
(-3.72883e-16 0 -6.49336e-18)
(-2.5593e-16 0 1.4517e-17)
(-1.51777e-16 0 3.31699e-17)
(-5.98155e-17 0 4.94654e-17)
(2.06589e-17 0 6.35895e-17)
(9.02661e-17 0 7.56043e-17)
(1.49668e-16 0 8.56649e-17)
(1.99485e-16 0 9.39367e-17)
(2.40379e-16 0 1.00585e-16)
(2.73063e-16 0 1.05755e-16)
(2.98188e-16 0 1.09622e-16)
(3.16479e-16 0 1.12362e-16)
(3.2867e-16 0 1.1412e-16)
(3.35391e-16 0 1.1505e-16)
(3.37314e-16 0 1.1534e-16)
(3.35132e-16 0 1.15082e-16)
(3.29404e-16 0 1.14389e-16)
(3.20677e-16 0 1.13365e-16)
(3.09459e-16 0 1.12093e-16)
(2.96213e-16 0 1.10656e-16)
(2.81303e-16 0 1.09115e-16)
(2.6507e-16 0 1.07523e-16)
(2.47906e-16 0 1.05879e-16)
(2.30018e-16 0 1.04266e-16)
(2.11582e-16 0 1.02684e-16)
(1.92868e-16 0 1.01133e-16)
(1.73997e-16 0 9.96753e-17)
(1.55045e-16 0 9.82794e-17)
(1.36102e-16 0 9.69663e-17)
(1.17222e-16 0 9.57255e-17)
(9.84655e-17 0 9.45881e-17)
(7.9885e-17 0 9.36369e-17)
(6.14078e-17 0 9.27787e-17)
(4.30134e-17 0 9.20342e-17)
(2.47224e-17 0 9.14862e-17)
(7.79618e-18 0 9.10726e-17)
(8.31442e-08 0 -1.02881e-06)
(2.78458e-07 0 -1.00229e-06)
(4.35832e-07 0 -9.57972e-07)
(5.88169e-07 0 -8.95758e-07)
(7.21904e-07 0 -8.22181e-07)
(8.34561e-07 0 -7.44871e-07)
(9.29564e-07 0 -6.68531e-07)
(1.01013e-06 0 -5.95265e-07)
(1.0783e-06 0 -5.2591e-07)
(1.13573e-06 0 -4.6166e-07)
(1.18504e-06 0 -4.00608e-07)
(1.22709e-06 0 -3.43287e-07)
(1.26184e-06 0 -2.90092e-07)
(1.28965e-06 0 -2.37384e-07)
(1.31135e-06 0 -1.80537e-07)
(1.32545e-06 0 -1.34178e-07)
(1.33455e-06 0 -8.92791e-08)
(1.336e-06 0 -4.60422e-08)
(1.33136e-06 0 8.21829e-09)
(1.31936e-06 0 3.90452e-08)
(1.30274e-06 0 7.92845e-08)
(1.28141e-06 0 1.10758e-07)
(1.25457e-06 0 1.41306e-07)
(1.2237e-06 0 1.65057e-07)
(1.18941e-06 0 1.90829e-07)
(1.15287e-06 0 2.07062e-07)
(1.11482e-06 0 2.20326e-07)
(1.07592e-06 0 2.30793e-07)
(1.03629e-06 0 2.38321e-07)
(9.96832e-07 0 2.42294e-07)
(9.57994e-07 0 2.43915e-07)
(9.19947e-07 0 2.4372e-07)
(8.83163e-07 0 2.41e-07)
(8.47767e-07 0 2.36891e-07)
(8.13664e-07 0 2.32388e-07)
(7.80991e-07 0 2.26933e-07)
(7.49635e-07 0 2.21358e-07)
(7.19698e-07 0 2.15287e-07)
(6.91084e-07 0 2.09068e-07)
(6.63568e-07 0 2.03412e-07)
(6.37173e-07 0 1.97678e-07)
(6.11755e-07 0 1.92271e-07)
(5.87252e-07 0 1.87015e-07)
(5.63342e-07 0 1.82779e-07)
(5.40348e-07 0 1.77812e-07)
(5.17698e-07 0 1.74396e-07)
(4.95963e-07 0 1.69156e-07)
(4.74211e-07 0 1.67667e-07)
(4.53545e-07 0 1.63844e-07)
(4.32817e-07 0 1.59874e-07)
(4.12235e-07 0 1.56801e-07)
(3.92455e-07 0 1.53485e-07)
(3.73064e-07 0 1.50817e-07)
(3.54219e-07 0 1.47496e-07)
(3.35545e-07 0 1.44713e-07)
(3.17484e-07 0 1.41266e-07)
(2.99814e-07 0 1.38125e-07)
(2.82709e-07 0 1.34956e-07)
(2.66048e-07 0 1.32011e-07)
(2.49941e-07 0 1.28839e-07)
(2.34311e-07 0 1.25492e-07)
(2.19131e-07 0 1.22268e-07)
(2.0449e-07 0 1.19225e-07)
(1.90362e-07 0 1.16163e-07)
(1.76614e-07 0 1.13262e-07)
(1.6327e-07 0 1.10547e-07)
(1.50407e-07 0 1.07694e-07)
(1.37892e-07 0 1.05005e-07)
(1.25727e-07 0 1.02455e-07)
(1.13859e-07 0 9.99533e-08)
(1.02268e-07 0 9.74381e-08)
(9.0976e-08 0 9.4904e-08)
(8.00484e-08 0 9.22126e-08)
(6.97072e-08 0 8.92396e-08)
(6.08418e-08 0 8.55259e-08)
(5.31444e-08 0 7.94889e-08)
(3.4925e-08 0 1.08543e-07)
(1.43619e-08 0 1.87685e-07)
(-9.85835e-10 0 1.39821e-07)
(1.36895e-15 0 -3.3972e-14)
(-3.85791e-16 0 -1.31005e-16)
(-7.25355e-16 0 -9.62011e-17)
(-6.1414e-16 0 -6.27727e-17)
(-4.76156e-16 0 -3.22911e-17)
(-3.48801e-16 0 -4.82866e-18)
(-2.34506e-16 0 1.96662e-17)
(-1.32928e-16 0 4.12867e-17)
(-4.34373e-17 0 6.01671e-17)
(3.46899e-17 0 7.64212e-17)
(1.02105e-16 0 9.01834e-17)
(1.5946e-16 0 1.0164e-16)
(2.07405e-16 0 1.10997e-16)
(2.46634e-16 0 1.18442e-16)
(2.77819e-16 0 1.2417e-16)
(3.01652e-16 0 1.28389e-16)
(3.18816e-16 0 1.31346e-16)
(3.30004e-16 0 1.33176e-16)
(3.35939e-16 0 1.34045e-16)
(3.37262e-16 0 1.34169e-16)
(3.34564e-16 0 1.33693e-16)
(3.28422e-16 0 1.32711e-16)
(3.19374e-16 0 1.31356e-16)
(3.07939e-16 0 1.29733e-16)
(2.94538e-16 0 1.27934e-16)
(2.79535e-16 0 1.26e-16)
(2.63281e-16 0 1.24005e-16)
(2.46097e-16 0 1.21988e-16)
(2.28219e-16 0 1.19941e-16)
(2.09835e-16 0 1.17956e-16)
(1.91182e-16 0 1.16012e-16)
(1.72374e-16 0 1.1413e-16)
(1.53514e-16 0 1.12352e-16)
(1.34665e-16 0 1.10646e-16)
(1.15888e-16 0 1.09033e-16)
(9.72971e-17 0 1.07606e-16)
(7.8851e-17 0 1.06355e-16)
(6.05083e-17 0 1.05228e-16)
(4.23103e-17 0 1.04297e-16)
(2.41847e-17 0 1.03594e-16)
(7.55836e-18 0 1.03098e-16)
(9.56452e-08 0 -1.22622e-06)
(3.17876e-07 0 -1.19306e-06)
(5.04196e-07 0 -1.12569e-06)
(6.64512e-07 0 -1.04344e-06)
(8.05864e-07 0 -9.47804e-07)
(9.20456e-07 0 -8.49306e-07)
(1.01198e-06 0 -7.56036e-07)
(1.08776e-06 0 -6.67857e-07)
(1.15023e-06 0 -5.87003e-07)
(1.20251e-06 0 -5.13264e-07)
(1.24787e-06 0 -4.44594e-07)
(1.28645e-06 0 -3.82202e-07)
(1.31794e-06 0 -3.24197e-07)
(1.34507e-06 0 -2.58196e-07)
(1.36379e-06 0 -2.0075e-07)
(1.37724e-06 0 -1.47117e-07)
(1.38402e-06 0 -9.67084e-08)
(1.38313e-06 0 -3.99555e-08)
(1.3758e-06 0 1.52847e-08)
(1.36136e-06 0 5.38299e-08)
(1.34143e-06 0 1.00392e-07)
(1.31586e-06 0 1.36181e-07)
(1.28444e-06 0 1.71245e-07)
(1.24925e-06 0 1.99373e-07)
(1.21049e-06 0 2.27831e-07)
(1.16978e-06 0 2.45504e-07)
(1.12759e-06 0 2.6014e-07)
(1.08477e-06 0 2.71614e-07)
(1.04177e-06 0 2.78745e-07)
(9.99367e-07 0 2.82187e-07)
(9.5796e-07 0 2.83206e-07)
(9.1786e-07 0 2.81498e-07)
(8.7953e-07 0 2.77175e-07)
(8.42917e-07 0 2.71821e-07)
(8.07987e-07 0 2.6564e-07)
(7.74711e-07 0 2.58973e-07)
(7.43086e-07 0 2.51742e-07)
(7.1309e-07 0 2.44302e-07)
(6.84579e-07 0 2.37001e-07)
(6.57257e-07 0 2.30174e-07)
(6.31158e-07 0 2.23396e-07)
(6.06155e-07 0 2.1702e-07)
(5.82001e-07 0 2.11313e-07)
(5.58497e-07 0 2.06159e-07)
(5.35786e-07 0 2.00739e-07)
(5.13554e-07 0 1.96657e-07)
(4.91903e-07 0 1.91911e-07)
(4.70635e-07 0 1.88176e-07)
(4.49884e-07 0 1.85767e-07)
(4.29673e-07 0 1.81011e-07)
(4.08988e-07 0 1.77569e-07)
(3.89151e-07 0 1.73768e-07)
(3.6978e-07 0 1.70756e-07)
(3.50904e-07 0 1.67264e-07)
(3.32266e-07 0 1.63888e-07)
(3.14107e-07 0 1.60277e-07)
(2.96469e-07 0 1.56457e-07)
(2.79214e-07 0 1.53088e-07)
(2.6268e-07 0 1.49336e-07)
(2.46528e-07 0 1.45959e-07)
(2.30938e-07 0 1.42182e-07)
(2.15846e-07 0 1.3831e-07)
(2.01218e-07 0 1.3488e-07)
(1.87158e-07 0 1.31489e-07)
(1.73548e-07 0 1.28108e-07)
(1.6029e-07 0 1.24994e-07)
(1.47555e-07 0 1.21794e-07)
(1.35137e-07 0 1.18799e-07)
(1.2302e-07 0 1.15959e-07)
(1.1118e-07 0 1.1322e-07)
(9.95938e-08 0 1.10471e-07)
(8.81785e-08 0 1.07706e-07)
(7.69052e-08 0 1.04793e-07)
(6.57182e-08 0 1.01523e-07)
(5.51508e-08 0 9.73838e-08)
(4.1142e-08 0 9.07828e-08)
(3.03822e-08 0 1.3866e-07)
(4.20388e-09 0 1.92219e-07)
(-9.63003e-10 0 1.45845e-07)
(1.31114e-15 0 -3.74865e-14)
(-3.66975e-16 0 -1.48241e-16)
(-6.88628e-16 0 -1.07957e-16)
(-5.79761e-16 0 -6.93281e-17)
(-4.45003e-16 0 -3.41936e-17)