/*--------------------------------*- C++ -*----------------------------------*\
  =========                 |
  \\      /  F ield         | OpenFOAM: The Open Source CFD Toolbox
   \\    /   O peration     | Website:  https://openfoam.org
    \\  /    A nd           | Version:  6
     \\/     M anipulation  |
\*---------------------------------------------------------------------------*/
FoamFile
{
    version     2.0;
    format      ascii;
    class       volScalarField;
    location    "4700";
    object      dmdt;
}
// * * * * * * * * * * * * * * * * * * * * * * * * * * * * * * * * * * * * * //

dimensions      [0 0 0 0 0 0 0];

internalField   nonuniform List<scalar> 
4800
(
-0.219279
-0.216689
-0.214186
-0.211795
-0.209534
-0.207415
-0.205443
-0.203602
-0.201859
-0.2002
-0.198613
-0.197086
-0.19562
-0.194219
-0.192883
-0.191615
-0.190405
-0.189251
-0.188145
-0.187076
-0.186042
-0.185041
-0.184071
-0.183128
-0.182209
-0.181314
-0.180446
-0.179605
-0.178789
-0.177997
-0.177226
-0.176472
-0.175735
-0.175014
-0.174309
-0.173619
-0.172946
-0.172289
-0.171648
-0.17102
-0.170406
-0.169802
-0.169207
-0.16862
-0.16804
-0.167467
-0.166901
-0.16634
-0.165784
-0.165231
-0.164678
-0.164122
-0.16356
-0.162989
-0.162406
-0.161805
-0.161186
-0.160545
-0.15988
-0.159187
-0.158463
-0.157706
-0.156911
-0.156075
-0.155194
-0.154261
-0.153269
-0.152204
-0.15105
-0.149786
-0.148384
-0.146796
-0.144963
-0.142804
-0.140209
-0.137058
-0.133191
-0.12842
-0.122574
-0.115537
-0.107283
-0.0980022
-0.0879704
-0.0773854
-0.0666848
-0.0563575
-0.0469381
-0.0389047
-0.0318937
-0.0254757
-0.0194042
-0.01356
-0.007892
-0.00237944
0.0029866
0.00821147
0.0133006
0.01826
0.0230967
0.0278178
0.0324313
0.0369448
0.0413661
0.0457027
0.0499617
0.0541502
0.0582746
0.062341
0.0663552
0.0703226
0.0742484
0.0781373
0.0819939
0.0858224
0.0896271
0.0934118
0.0971803
0.100936
0.104683
0.108425
-0.219277
-0.216679
-0.214162
-0.211754
-0.209469
-0.207312
-0.205266
-0.203344
-0.201539
-0.199832
-0.198208
-0.196659
-0.195174
-0.193754
-0.192397
-0.191112
-0.189885
-0.18872
-0.187615
-0.186549
-0.185524
-0.184537
-0.18358
-0.182652
-0.181747
-0.180865
-0.180008
-0.179177
-0.178371
-0.177588
-0.176828
-0.176086
-0.17536
-0.174651
-0.173955
-0.173274
-0.172609
-0.171958
-0.171322
-0.1707
-0.170091
-0.169495
-0.168908
-0.168329
-0.167756
-0.16719
-0.166629
-0.166073
-0.165519
-0.164967
-0.164415
-0.163859
-0.163296
-0.162723
-0.162138
-0.161535
-0.160911
-0.160266
-0.159596
-0.158896
-0.158163
-0.157395
-0.156587
-0.155738
-0.154843
-0.153895
-0.152888
-0.151812
-0.150648
-0.149376
-0.147968
-0.146376
-0.144541
-0.142381
-0.139795
-0.13666
-0.132833
-0.128136
-0.122429
-0.115591
-0.107608
-0.098573
-0.0884822
-0.0776449
-0.0665229
-0.0555565
-0.045572
-0.0379115
-0.0313239
-0.0251694
-0.0192319
-0.0134492
-0.00780768
-0.00230651
0.00305412
0.00827555
0.0133616
0.0183179
0.0231511
0.0278687
0.0324785
0.0369884
0.0414061
0.0457393
0.0499951
0.0541804
0.0583019
0.0623655
0.0663772
0.0703422
0.0742657
0.0781525
0.082007
0.0858336
0.0896364
0.0934193
0.097186
0.10094
0.104686
0.108426
-0.219262
-0.216631
-0.21407
-0.2116
-0.209232
-0.206983
-0.204835
-0.202789
-0.200866
-0.199063
-0.197359
-0.195748
-0.194214
-0.192759
-0.191378
-0.190078
-0.188837
-0.187659
-0.186558
-0.185505
-0.184496
-0.18353
-0.182597
-0.181695
-0.180819
-0.17996
-0.179123
-0.178311
-0.177523
-0.176758
-0.176015
-0.175293
-0.174589
-0.173901
-0.173225
-0.172561
-0.171911
-0.171275
-0.170653
-0.170045
-0.169449
-0.168866
-0.168293
-0.167726
-0.167166
-0.166612
-0.166062
-0.165515
-0.164969
-0.164422
-0.163874
-0.163319
-0.162755
-0.162179
-0.161589
-0.160979
-0.160346
-0.159689
-0.159004
-0.158289
-0.157538
-0.15675
-0.155919
-0.155047
-0.154128
-0.153155
-0.152124
-0.151025
-0.149839
-0.148545
-0.147122
-0.145519
-0.143677
-0.141523
-0.13895
-0.135842
-0.132061
-0.127471
-0.121927
-0.115332
-0.107585
-0.0986734
-0.0886868
-0.0778087
-0.066148
-0.0538838
-0.0419489
-0.0358732
-0.0303409
-0.0246842
-0.0189588
-0.013262
-0.00765429
-0.00216681
0.00318694
0.00840308
0.0134836
0.0184336
0.02326
0.0279704
0.0325728
0.0370754
0.0414859
0.0458122
0.0500615
0.0542406
0.0583562
0.0624144
0.0664209
0.0703811
0.0743001
0.0781825
0.082033
0.0858558
0.0896548
0.0934342
0.0971975
0.100949
0.104691
0.108428
-0.219226
-0.216519
-0.213865
-0.211284
-0.208784
-0.206374
-0.204081
-0.201882
-0.1998
-0.197862
-0.19605
-0.194358
-0.19276
-0.191253
-0.189845
-0.188526
-0.187283
-0.186112
-0.18502
-0.183983
-0.182997
-0.182058
-0.181158
-0.180288
-0.179443
-0.178617
-0.177811
-0.177029
-0.176269
-0.175531
-0.174815
-0.174117
-0.173439
-0.172778
-0.172129
-0.17149
-0.170863
-0.170249
-0.169648
-0.169059
-0.168484
-0.167921
-0.167366
-0.166817
-0.166274
-0.165736
-0.1652
-0.164666
-0.164132
-0.163593
-0.16305
-0.162496
-0.161932
-0.161352
-0.160754
-0.160132
-0.159483
-0.158807
-0.158098
-0.157358
-0.156581
-0.155763
-0.154899
-0.153991
-0.153038
-0.15203
-0.150965
-0.149834
-0.148613
-0.147292
-0.145841
-0.144219
-0.142368
-0.140214
-0.137651
-0.13458
-0.130857
-0.126365
-0.120953
-0.114533
-0.106985
-0.0982262
-0.0883327
-0.0773315
-0.0651474
-0.051212
-0.0172964
-0.033335
-0.0295021
-0.0243032
-0.0187094
-0.0130497
-0.00745146
-0.00196679
0.00338384
0.00859466
0.0136676
0.0186083
0.0234241
0.0281234
0.0327145
0.0372058
0.0416055
0.0459214
0.0501608
0.0543306
0.0584375
0.0624874
0.0664862
0.0704392
0.0743514
0.0782274
0.0820718
0.0858888
0.0896824
0.0934564
0.0972146
0.100961
0.104698
0.10843
-0.21916
-0.216316
-0.213518
-0.21077
-0.208087
-0.20546
-0.202945
-0.200556
-0.198312
-0.196228
-0.194294
-0.192514
-0.190841
-0.189278
-0.187849
-0.186521
-0.185285
-0.184131
-0.183059
-0.182051
-0.181094
-0.180187
-0.179322
-0.178489
-0.177683
-0.176897
-0.176131
-0.175386
-0.174662
-0.173957
-0.173272
-0.172605
-0.171956
-0.171324
-0.170705
-0.170096
-0.169497
-0.16891
-0.168335
-0.167772
-0.167222
-0.166683
-0.166151
-0.165622
-0.165097
-0.164576
-0.164057
-0.163538
-0.163017
-0.162487
-0.161951
-0.161398
-0.16083
-0.160245
-0.159633
-0.158994
-0.158324
-0.157622
-0.156882
-0.156106
-0.155294
-0.154436
-0.15353
-0.152577
-0.151579
-0.150526
-0.149415
-0.148239
-0.146971
-0.145618
-0.144125
-0.142476
-0.140612
-0.138446
-0.135901
-0.132874
-0.129222
-0.124834
-0.119562
-0.113293
-0.105954
-0.0974896
-0.0879277
-0.077322
-0.0657418
-0.0534592
-0.0416279
-0.0356131
-0.0300583
-0.0243541
-0.0185783
-0.0128404
-0.00720576
-0.00170596
0.00364735
0.00885305
0.0139159
0.0188436
0.0236447
0.0283284
0.0329039
0.0373799
0.0417649
0.0460666
0.0502927
0.0544501
0.0585453
0.0625843
0.0665728
0.0705162
0.0744193
0.0782869
0.0821232
0.0859325
0.0897188
0.0934858
0.0972373
0.100977
0.104708
0.108433
-0.219061
-0.216008
-0.212989
-0.210001
-0.207063
-0.204196
-0.201451
-0.19885
-0.196423
-0.194189
-0.192132
-0.190271
-0.188538
-0.18693
-0.185477
-0.184144
-0.182922
-0.181795
-0.180755
-0.179785
-0.178868
-0.178
-0.177174
-0.176381
-0.175617
-0.174875
-0.174152
-0.173448
-0.172761
-0.172093
-0.171442
-0.170808
-0.170193
-0.169593
-0.169007
-0.16843
-0.167862
-0.167304
-0.166757
-0.166221
-0.165696
-0.165183
-0.164676
-0.16417
-0.163666
-0.163164
-0.162661
-0.16216
-0.161649
-0.161129
-0.160596
-0.160042
-0.159468
-0.158875
-0.158244
-0.157584
-0.156885
-0.156151
-0.155373
-0.15455
-0.153693
-0.152788
-0.151827
-0.150815
-0.149761
-0.148653
-0.147488
-0.146256
-0.144934
-0.143541
-0.142001
-0.140314
-0.138426
-0.136234
-0.133691
-0.130692
-0.127104
-0.122798
-0.117656
-0.111549
-0.104407
-0.0961681
-0.0868699
-0.0766597
-0.0658163
-0.0549908
-0.0451166
-0.0374643
-0.0307906
-0.0245171
-0.0184651
-0.0125937
-0.00689678
-0.00137202
0.00398555
0.0091837
0.0142323
0.0191418
0.0239231
0.0285863
0.0331415
0.0375977
0.0419638
0.0462477
0.050457
0.0545987
0.0586792
0.0627045
0.0666802
0.0706116
0.0745035
0.0783605
0.0821869
0.0859867
0.0897639
0.0935223
0.0972653
0.100997
0.104719
0.108437
-0.21893
-0.215599
-0.212281
-0.208988
-0.205747
-0.202588
-0.199576
-0.196759
-0.194159
-0.191784
-0.189618
-0.187689
-0.185909
-0.184279
-0.182816
-0.181485
-0.180285
-0.179191
-0.17819
-0.177262
-0.176392
-0.175569
-0.174786
-0.174038
-0.173317
-0.172618
-0.171938
-0.171275
-0.170628
-0.169998
-0.169383
-0.168783
-0.1682
-0.167632
-0.167077
-0.166532
-0.165995
-0.165468
-0.16495
-0.164442
-0.163944
-0.163455
-0.162972
-0.162489
-0.162007
-0.161526
-0.161041
-0.160556
-0.160054
-0.159542
-0.159009
-0.158452
-0.157868
-0.157259
-0.156607
-0.155919
-0.155188
-0.154415
-0.153591
-0.152714
-0.151799
-0.15084
-0.149815
-0.148734
-0.14761
-0.146438
-0.145213
-0.143915
-0.142533
-0.141086
-0.139495
-0.13776
-0.135835
-0.133625
-0.13109
-0.128119
-0.124595
-0.120387
-0.115389
-0.109455
-0.102525
-0.0945645
-0.0856302
-0.0759365
-0.0658051
-0.0557611
-0.0464395
-0.0383625
-0.0311577
-0.0245079
-0.0182328
-0.0122419
-0.00648872
-0.000944793
0.00441039
0.00959387
0.014621
0.0195058
0.0242608
0.0288978
0.0334273
0.0378591
0.042202
0.0464641
0.0506531
0.0547758
0.0588387
0.0628475
0.066808
0.070725
0.0746035
0.0784479
0.0822624
0.086051
0.0898174
0.0935655
0.0972985
0.10102
0.104734
0.108442
-0.218767
-0.215091
-0.211397
-0.207725
-0.204127
-0.200662
-0.197386
-0.194353
-0.191591
-0.18909
-0.186842
-0.184855
-0.183046
-0.181409
-0.17994
-0.178622
-0.177454
-0.176397
-0.17544
-0.174557
-0.173734
-0.17296
-0.172225
-0.171523
-0.170848
-0.17019
-0.16955
-0.168923
-0.168314
-0.16772
-0.167139
-0.166574
-0.166023
-0.165485
-0.164959
-0.164441
-0.163932
-0.163435
-0.162944
-0.162463
-0.161991
-0.161526
-0.161064
-0.160605
-0.160143
-0.159683
-0.159218
-0.158745
-0.158253
-0.157743
-0.157209
-0.156643
-0.156045
-0.155413
-0.154736
-0.154014
-0.153245
-0.152425
-0.151547
-0.150613
-0.149626
-0.148607
-0.147514
-0.14636
-0.145153
-0.143906
-0.142611
-0.141244
-0.139795
-0.138282
-0.136627
-0.13483
-0.132846
-0.130592
-0.128043
-0.125073
-0.121582
-0.117444
-0.11257
-0.106833
-0.100177
-0.0925767
-0.084066
-0.0748526
-0.0652346
-0.0556316
-0.0465799
-0.0384273
-0.0310192
-0.0241841
-0.0177842
-0.0117257
-0.00594642
-0.000403507
0.00493417
0.0100908
0.0150863
0.0199376
0.024659
0.0292632
0.0337614
0.0381636
0.0424788
0.0467151
0.0508802
0.0549807
0.0590229
0.0630126
0.0669553
0.0708558
0.0747187
0.0785486
0.0823493
0.0861249
0.089879
0.0936151
0.0973368
0.101047
0.10475
0.108447
-0.21856
-0.214456
-0.210318
-0.206223
-0.202246
-0.198463
-0.194936
-0.191713
-0.188812
-0.186206
-0.183885
-0.181848
-0.180023
-0.178388
-0.176924
-0.175627
-0.1745
-0.173486
-0.172571
-0.171735
-0.170961
-0.170234
-0.169547
-0.168892
-0.168259
-0.167641
-0.167037
-0.166444
-0.165866
-0.165303
-0.164753
-0.164219
-0.163696
-0.163184
-0.162684
-0.162191
-0.161707
-0.161233
-0.160766
-0.160309
-0.159859
-0.159413
-0.158971
-0.158533
-0.158091
-0.157647
-0.1572
-0.156738
-0.156253
-0.15574
-0.155203
-0.154622
-0.154005
-0.153346
-0.152632
-0.151873
-0.151062
-0.150188
-0.149253
-0.148258
-0.147193
-0.146105
-0.144942
-0.143713
-0.142422
-0.141093
-0.139718
-0.138274
-0.136757
-0.135174
-0.133458
-0.131599
-0.129557
-0.127257
-0.12469
-0.121713
-0.118249
-0.114191
-0.109404
-0.103807
-0.0973698
-0.0900758
-0.0819436
-0.0731479
-0.0639747
-0.0547702
-0.0459009
-0.0378021
-0.0303696
-0.0234937
-0.0170683
-0.011007
-0.00524467
0.000267557
0.00556624
0.0106798
0.015631
0.0204385
0.0251177
0.029682
0.0341428
0.0385102
0.0427931
0.0469997
0.0511372
0.0552122
0.0592309
0.0631989
0.0671214
0.071003
0.0748485
0.0786618
0.0824471
0.086208
0.0899482
0.0936709
0.0973797
0.101078
0.104768
0.108453
-0.218297
-0.213683
-0.209058
-0.204507
-0.200133
-0.196029
-0.192259
-0.188864
-0.185843
-0.183164
-0.180787
-0.178724
-0.176911
-0.175294
-0.173849
-0.172578
-0.171491
-0.170518
-0.169646
-0.168857
-0.16813
-0.16745
-0.166808
-0.166194
-0.165598
-0.165013
-0.164441
-0.163878
-0.163325
-0.162787
-0.162262
-0.161751
-0.161251
-0.16076
-0.160279
-0.159806
-0.159342
-0.158887
-0.158437
-0.157998
-0.157565
-0.157135
-0.156708
-0.156286
-0.155861
-0.155431
-0.154996
-0.154541
-0.154058
-0.153541
-0.152992
-0.152393
-0.15175
-0.151059
-0.150308
-0.149501
-0.148641
-0.147711
-0.146716
-0.145654
-0.144514
-0.143341
-0.142099
-0.140787
-0.139422
-0.138018
-0.136566
-0.135044
-0.133454
-0.131785
-0.129998
-0.12807
-0.125958
-0.123606
-0.121012
-0.118048
-0.114622
-0.110672
-0.106021
-0.10056
-0.094257
-0.0871681
-0.0793567
-0.070923
-0.0620976
-0.0532131
-0.0445411
-0.0365738
-0.0292316
-0.0224262
-0.0160652
-0.0100681
-0.00437081
0.00107622
0.00631083
0.0113627
0.0162553
0.0210078
0.0256359
0.0301529
0.0345701
0.0388974
0.0431435
0.0473163
0.0514227
0.0554692
0.0594616
0.0634052
0.0673052
0.0711659
0.0749919
0.078787
0.0825551
0.0862998
0.0900245
0.0937325
0.097427
0.101111
0.104788
0.10846
-0.218007
-0.212827
-0.207671
-0.202641
-0.197861
-0.193433
-0.189428
-0.185883
-0.182781
-0.180063
-0.177656
-0.17557
-0.173766
-0.172175
-0.170762
-0.16953
-0.168481
-0.167547
-0.166716
-0.165969
-0.165286
-0.164651
-0.16405
-0.163471
-0.162905
-0.162347
-0.161799
-0.161257
-0.160723
-0.160202
-0.159695
-0.1592
-0.158714
-0.158237
-0.157771
-0.157311
-0.156859
-0.156414
-0.155975
-0.155546
-0.155123
-0.154703
-0.154287
-0.153876
-0.153462
-0.153043
-0.152613
-0.152163
-0.151675
-0.15115
-0.150579
-0.149961
-0.149286
-0.148557
-0.147767
-0.146911
-0.145992
-0.145008
-0.143952
-0.142826
-0.141619
-0.140369
-0.139045
-0.137641
-0.136203
-0.134722
-0.133192
-0.131599
-0.129942
-0.128198
-0.126337
-0.124322
-0.122128
-0.119714
-0.117037
-0.114037
-0.110603
-0.106675
-0.102111
-0.0968072
-0.0906983
-0.0838079
-0.076254
-0.0681591
-0.0596926
-0.0510762
-0.0425622
-0.0347804
-0.0276221
-0.0209854
-0.0147737
-0.00890722
-0.00332433
0.00202164
0.00716611
0.012137
0.0169565
0.0216428
0.0262108
0.0306733
0.0350409
0.039323
0.043528
0.0476631
0.0517351
0.05575
0.0597134
0.0636303
0.0675055
0.0713434
0.075148
0.0789231
0.0826725
0.0863995
0.0901074
0.0937994
0.0974784
0.101148
0.10481
0.108467
-0.217694
-0.211918
-0.206223
-0.200723
-0.195548
-0.190803
-0.186564
-0.182861
-0.179681
-0.176941
-0.17453
-0.172433
-0.17064
-0.169085
-0.167713
-0.166526
-0.165512
-0.164619
-0.163828
-0.163117
-0.162471
-0.161873
-0.161306
-0.160753
-0.160213
-0.159677
-0.159143
-0.158613
-0.158089
-0.157575
-0.157074
-0.156587
-0.156109
-0.155638
-0.155178
-0.154724
-0.154277
-0.153834
-0.153399
-0.152972
-0.15255
-0.152132
-0.15172
-0.151312
-0.150904
-0.150489
-0.15006
-0.149609
-0.14911
-0.148568
-0.147965
-0.147318
-0.146606
-0.145837
-0.145003
-0.144098
-0.143114
-0.142072
-0.140953
-0.139756
-0.138488
-0.137168
-0.13577
-0.134289
-0.132775
-0.13121
-0.129591
-0.127928
-0.126208
-0.124404
-0.122495
-0.120426
-0.118163
-0.115696
-0.112962
-0.109908
-0.106451
-0.102525
-0.0980027
-0.0927904
-0.086815
-0.080062
-0.0726935
-0.0648283
-0.0566033
-0.0482284
-0.039921
-0.0324089
-0.0255413
-0.0191782
-0.0132038
-0.00753516
-0.00211552
0.00309456
0.00812403
0.0129958
0.0177288
0.0223385
0.0268383
0.0312395
0.035552
0.0397842
0.0439439
0.0480378
0.0520723
0.0560528
0.0599846
0.0638726
0.067721
0.0715341
0.0753156
0.0790693
0.0827985
0.0865065
0.0901964
0.0938711
0.0975335
0.101187
0.104833
0.108475
-0.21738
-0.210995
-0.204747
-0.19877
-0.193209
-0.188171
-0.183727
-0.179879
-0.176608
-0.173848
-0.171471
-0.169388
-0.167601
-0.166074
-0.164745
-0.163603
-0.162623
-0.161767
-0.161011
-0.160333
-0.159717
-0.159144
-0.158602
-0.158069
-0.157548
-0.157026
-0.156499
-0.155969
-0.155443
-0.154927
-0.154424
-0.153933
-0.153452
-0.152977
-0.152513
-0.152057
-0.151606
-0.15116
-0.15072
-0.150287
-0.149858
-0.149433
-0.149016
-0.148604
-0.148195
-0.147777
-0.147343
-0.146883
-0.146371
-0.145803
-0.145172
-0.144487
-0.143737
-0.142915
-0.142026
-0.141074
-0.140037
-0.138932
-0.13775
-0.13648
-0.135146
-0.133752
-0.132294
-0.130764
-0.12919
-0.127555
-0.125843
-0.124085
-0.122285
-0.120417
-0.118444
-0.11632
-0.114009
-0.111485
-0.108696
-0.105593
-0.102104
-0.0981633
-0.0936635
-0.0885134
-0.0826443
-0.0759615
-0.0686395
-0.0608604
-0.052775
-0.0445919
-0.0365345
-0.0294135
-0.0229792
-0.0170164
-0.0113766
-0.0059746
-0.000764886
0.00427788
0.00917084
0.0139284
0.0185635
0.023088
0.0275126
0.0318469
0.0360993
0.0402775
0.0443883
0.0484378
0.0524318
0.0563754
0.0602734
0.0641303
0.0679501
0.0717367
0.0754937
0.0792244
0.0829322
0.0866199
0.0902906
0.093947
0.0975919
0.101228
0.104857
0.108483
-0.217058
-0.210057
-0.203258
-0.196814
-0.190883
-0.185577
-0.180954
-0.176997
-0.173652
-0.170858
-0.168499
-0.166447
-0.164686
-0.163185
-0.161893
-0.160792
-0.159846
-0.15902
-0.158293
-0.157642
-0.157049
-0.156492
-0.155961
-0.15544
-0.154928
-0.154412
-0.153882
-0.153343
-0.152805
-0.152275
-0.151757
-0.151252
-0.150755
-0.150265
-0.149786
-0.149318
-0.148856
-0.1484
-0.147947
-0.1475
-0.147058
-0.146617
-0.146185
-0.14576
-0.145339
-0.144911
-0.144467
-0.143987
-0.14344
-0.142823
-0.142157
-0.141447
-0.140674
-0.1398
-0.138849
-0.137839
-0.136754
-0.135597
-0.134364
-0.133036
-0.131632
-0.130154
-0.128617
-0.127033
-0.1254
-0.123709
-0.121937
-0.120103
-0.118219
-0.116284
-0.114254
-0.112077
-0.109726
-0.107174
-0.104352
-0.1012
-0.0976685
-0.0936878
-0.0891572
-0.0839959
-0.0781609
-0.0715117
-0.0641122
-0.0561894
-0.0480317
-0.039961
-0.0322654
-0.0257366
-0.0199363
-0.0145301
-0.00933116
-0.00426245
0.000696781
0.00554736
0.0102879
0.0149203
0.0194496
0.0238826
0.0282268
0.0324897
0.0366782
0.0407989
0.0448576
0.04886
0.0528111
0.0567155
0.0605776
0.0644016
0.0681911
0.0719497
0.0756807
0.0793873
0.0830724
0.0867389
0.0903894
0.0940266
0.097653
0.101271
0.104883
0.108492
-0.216736
-0.209124
-0.201807
-0.194954
-0.188704
-0.183145
-0.178319
-0.174233
-0.170823
-0.168013
-0.165668
-0.163644
-0.161917
-0.160443
-0.159185
-0.158121
-0.157204
-0.156401
-0.155697
-0.155065
-0.154485
-0.153933
-0.153401
-0.15288
-0.152365
-0.151844
-0.151306
-0.150749
-0.150188
-0.149632
-0.149086
-0.148552
-0.148026
-0.147509
-0.147004
-0.146511
-0.146029
-0.145555
-0.145085
-0.144619
-0.144156
-0.143692
-0.143237
-0.142789
-0.142347
-0.141901
-0.141439
-0.140936
-0.140358
-0.139698
-0.138981
-0.138218
-0.137399
-0.136482
-0.135475
-0.134399
-0.133256
-0.132043
-0.130757
-0.129382
-0.127925
-0.126391
-0.124792
-0.123147
-0.121461
-0.119724
-0.117904
-0.116008
-0.11405
-0.112043
-0.109952
-0.10773
-0.105351
-0.102777
-0.0999404
-0.0967604
-0.0931821
-0.0891514
-0.0845588
-0.0793113
-0.0733511
-0.0665629
-0.0589435
-0.0506618
-0.0421471
-0.0340588
-0.0269864
-0.021378
-0.016476
-0.0117982
-0.00713814
-0.0024545
0.00222794
0.00687278
0.0114533
0.0159555
0.0203749
0.0247128
0.0289734
0.0331618
0.0372836
0.041344
0.0453483
0.0493011
0.0532071
0.0570704
0.0608949
0.0646843
0.0684421
0.0721713
0.0758752
0.0795566
0.0832181
0.0868624
0.090492
0.0941092
0.0977164
0.101316
0.10491
0.108501
-0.216488
-0.208376
-0.200591
-0.19334
-0.186769
-0.180981
-0.175992
-0.171766
-0.16824
-0.165368
-0.163018
-0.161016
-0.159326
-0.157882
-0.156649
-0.155615
-0.154711
-0.153924
-0.153233
-0.152614
-0.152037
-0.15148
-0.150937
-0.1504
-0.149864
-0.149327
-0.148771
-0.148192
-0.1476
-0.147006
-0.146416
-0.145837
-0.145271
-0.144716
-0.144171
-0.143642
-0.143126
-0.142623
-0.142131
-0.141641
-0.141154
-0.140665
-0.140181
-0.139707
-0.139236
-0.138758
-0.138262
-0.13772
-0.137109
-0.136423
-0.135669
-0.134848
-0.133964
-0.132995
-0.131935
-0.130799
-0.129597
-0.12833
-0.126992
-0.125569
-0.124063
-0.122479
-0.120828
-0.119128
-0.117394
-0.115617
-0.113767
-0.11183
-0.109814
-0.107739
-0.105589
-0.103323
-0.100922
-0.098329
-0.0954751
-0.0922823
-0.0886793
-0.0846064
-0.0799555
-0.0746159
-0.0684987
-0.0614702
-0.0534431
-0.0444865
-0.0351094
-0.026582
-0.0207225
-0.0165363
-0.0128123
-0.0089893
-0.0049149
-0.000628312
0.00377776
0.00822024
0.0126436
0.0170171
0.021327
0.0255692
0.0297448
0.0338571
0.0379102
0.0419084
0.0458562
0.0497577
0.0536168
0.0574373
0.0612227
0.0649762
0.068701
0.0723999
0.0760757
0.0797309
0.083368
0.0869894
0.0905974
0.094194
0.0977815
0.101362
0.104937
0.10851
-0.216265
-0.207729
-0.199557
-0.191962
-0.185097
-0.179047
-0.17384
-0.169459
-0.165832
-0.162895
-0.160543
-0.158582
-0.156931
-0.155517
-0.154317
-0.153307
-0.152422
-0.151639
-0.150948
-0.150318
-0.149722
-0.149147
-0.148579
-0.14801
-0.147436
-0.146859
-0.146267
-0.145656
-0.145029
-0.144394
-0.143755
-0.143121
-0.1425
-0.141891
-0.141293
-0.140717
-0.140156
-0.139611
-0.139087
-0.138564
-0.138046
-0.137531
-0.137016
-0.13651
-0.136006
-0.135491
-0.134955
-0.134373
-0.133728
-0.133008
-0.13221
-0.131336
-0.130389
-0.129364
-0.12825
-0.127057
-0.125798
-0.124477
-0.123088
-0.12162
-0.120072
-0.118447
-0.116754
-0.115009
-0.113231
-0.111417
-0.109544
-0.107589
-0.105541
-0.10341
-0.101206
-0.0989022
-0.0964814
-0.0938803
-0.0910179
-0.0878133
-0.0841959
-0.0800938
-0.0754241
-0.0700469
-0.0638228
-0.0565804
-0.0480635
-0.0380681
-0.0269965
-0.0167671
-0.0138514
-0.0117979
-0.00939123
-0.00638194
-0.00282284
0.00112408
0.00529258
0.00955688
0.0138373
0.0180902
0.0222947
0.026443
0.030534
0.0345696
0.0385529
0.0424876
0.0463774
0.050226
0.0540369
0.0578133
0.0615584
0.0652749
0.0689657
0.0726334
0.0762802
0.0799087
0.0835208
0.0871188
0.0907047
0.0942804
0.0978478
0.101409
0.104965
0.108519
-0.216067
-0.207173
-0.198712
-0.190855
-0.18373
-0.177449
-0.172047
-0.167521
-0.163801
-0.160776
-0.15835
-0.156379
-0.154752
-0.153364
-0.152194
-0.151184
-0.150309
-0.149529
-0.148833
-0.148185
-0.147562
-0.146956
-0.14635
-0.145734
-0.145108
-0.144472
-0.14382
-0.143152
-0.142471
-0.141779
-0.141084
-0.140392
-0.139707
-0.139035
-0.138371
-0.137739
-0.13712
-0.136525
-0.13596
-0.135399
-0.134843
-0.134298
-0.133751
-0.133209
-0.132672
-0.132118
-0.131538
-0.130915
-0.130231
-0.12947
-0.128629
-0.127704
-0.126699
-0.125619
-0.124453
-0.123206
-0.121891
-0.120517
-0.119079
-0.117571
-0.115987
-0.114327
-0.112602
-0.110826
-0.109014
-0.10717
-0.105276
-0.10331
-0.101253
-0.0990924
-0.0968475
-0.0945107
-0.0920704
-0.0894626
-0.0865991
-0.0834006
-0.0798108
-0.0757089
-0.0710104
-0.065636
-0.059443
-0.052244
-0.0436993
-0.0331017
-0.0185303
-0.000828057
-0.00774896
-0.00832127
-0.00684864
-0.00429566
-0.00102011
0.0027227
0.00672981
0.010858
0.0150187
0.0191635
0.0232694
0.0273271
0.0313348
0.0352937
0.0392067
0.043077
0.0469078
0.0507025
0.054464
0.0581953
0.061899
0.0655778
0.0692339
0.0728697
0.0764872
0.0800884
0.0836752
0.0872494
0.090813
0.0943674
0.0979146
0.101456
0.104993
0.108528
-0.216031
-0.207007
-0.198295
-0.190142
-0.182748
-0.176225
-0.17061
-0.165898
-0.162031
-0.158909
-0.156422
-0.154427
-0.152798
-0.151426
-0.15028
-0.149284
-0.148411
-0.147621
-0.146897
-0.146216
-0.145552
-0.144901
-0.144242
-0.143567
-0.142877
-0.142171
-0.141446
-0.140705
-0.13995
-0.139188
-0.13842
-0.137653
-0.136891
-0.136146
-0.13541
-0.134713
-0.13403
-0.133378
-0.132763
-0.13216
-0.131563
-0.130985
-0.130403
-0.129825
-0.129254
-0.128662
-0.128038
-0.127372
-0.126649
-0.125843
-0.124956
-0.123981
-0.122926
-0.121791
-0.120575
-0.11928
-0.117914
-0.116491
-0.115008
-0.113465
-0.111855
-0.110165
-0.108416
-0.106618
-0.104784
-0.102918
-0.101005
-0.0990313
-0.0969728
-0.0948077
-0.092546
-0.0901887
-0.0877317
-0.0851282
-0.0822889
-0.0791138
-0.0755632
-0.0715514
-0.0669609
-0.0617044
-0.0556937
-0.0488101
-0.0408737
-0.0316716
-0.0215449
-0.0118441
-0.00951186
-0.00781002
-0.00566038
-0.00288924
0.000430836
0.00413924
0.00807449
0.0121141
0.0161805
0.020231
0.0242454
0.0282162
0.0321421
0.0360249
0.0398673
0.0436724
0.0474434
0.0511832
0.0548945
0.05858
0.0622418
0.0658822
0.0695032
0.0731067
0.0766945
0.0802683
0.0838296
0.08738
0.0909211
0.0944544
0.0979812
0.101503
0.105021
0.108538
-0.216045
-0.206984
-0.198133
-0.189779
-0.182141
-0.17537
-0.169524
-0.164608
-0.160578
-0.157341
-0.154777
-0.152746
-0.151114
-0.149751
-0.148607
-0.147617
-0.146734
-0.145926
-0.145167
-0.144437
-0.143716
-0.142999
-0.142267
-0.141515
-0.140745
-0.139955
-0.139142
-0.138312
-0.137469
-0.136619
-0.135765
-0.134911
-0.134061
-0.13323
-0.132416
-0.131643
-0.130894
-0.130182
-0.129512
-0.128864
-0.128226
-0.127611
-0.126997
-0.126385
-0.125779
-0.125151
-0.124486
-0.123779
-0.123017
-0.122167
-0.121234
-0.120214
-0.119111
-0.117925
-0.116662
-0.115332
-0.113912
-0.112451
-0.110926
-0.109352
-0.10772
-0.106014
-0.104246
-0.102434
-0.100588
-0.0987048
-0.0967787
-0.0947999
-0.0927396
-0.09058
-0.0883188
-0.0859519
-0.083478
-0.0808756
-0.0780757
-0.0749798
-0.0715368
-0.0676675
-0.0632695
-0.0582597
-0.0525841
-0.0462089
-0.0391255
-0.0314175
-0.0235124
-0.0162078
-0.0116507
-0.00830557
-0.00520804
-0.001932
0.00162606
0.00541609
0.00934548
0.0133331
0.0173251
0.021292
0.0252205
0.029107
0.0329522
0.0367589
0.0405303
0.0442697
0.0479801
0.0516644
0.055325
0.058964
0.0625835
0.0661853
0.069771
0.0733422
0.0769003
0.0804466
0.0839825
0.0875093
0.0910282
0.0945404
0.0980471
0.10155
0.105049
0.108547
-0.216064
-0.207046
-0.198212
-0.189777
-0.181955
-0.174944
-0.168853
-0.16372
-0.159505
-0.156127
-0.153454
-0.151346
-0.149674
-0.148302
-0.147153
-0.146162
-0.145265
-0.144431
-0.14363
-0.142843
-0.142053
-0.141256
-0.140437
-0.139593
-0.138726
-0.137835
-0.13692
-0.135986
-0.13504
-0.134087
-0.133133
-0.132177
-0.13123
-0.1303
-0.129401
-0.128545
-0.127728
-0.126955
-0.126227
-0.125533
-0.124859
-0.124206
-0.123562
-0.122921
-0.122283
-0.121621
-0.120919
-0.120173
-0.119375
-0.118487
-0.117511
-0.116446
-0.115296
-0.114059
-0.112753
-0.111406
-0.109937
-0.108449
-0.106891
-0.105285
-0.103638
-0.101926
-0.100146
-0.0983204
-0.096463
-0.0945644
-0.0926294
-0.090647
-0.0885878
-0.086438
-0.0841879
-0.0818166
-0.079331
-0.07674
-0.074001
-0.0710216
-0.0677136
-0.0640582
-0.0599314
-0.0552666
-0.0500285
-0.0442201
-0.0378939
-0.031222
-0.0244743
-0.0181
-0.0129595
-0.00871642
-0.00487518
-0.00110665
0.00272481
0.00663279
0.0105826
0.0145347
0.0184618
0.0223499
0.0261949
0.0299978
0.0337621
0.0374921
0.0411917
0.0448646
0.0485138
0.052142
0.0557514
0.0593439
0.062921
0.0664842
0.0700347
0.0735738
0.0771024
0.0806216
0.0841324
0.0876359
0.0911329
0.0946245
0.0981116
0.101595
0.105076
0.108556
-0.216124
-0.207249
-0.198533
-0.190096
-0.182132
-0.174888
-0.168558
-0.163208
-0.158818
-0.155297
-0.152509
-0.150307
-0.148567
-0.14715
-0.145973
-0.144957
-0.144032
-0.143155
-0.142299
-0.141444
-0.140572
-0.139682
-0.138762
-0.137811
-0.136834
-0.135828
-0.134796
-0.133743
-0.13268
-0.131613
-0.130549
-0.129477
-0.128419
-0.127383
-0.126388
-0.125444
-0.124554
-0.123721
-0.122938
-0.122198
-0.12149
-0.120806
-0.120135
-0.119472
-0.118805
-0.118113
-0.117379
-0.116597
-0.115771
-0.11485
-0.113835
-0.112731
-0.111537
-0.110256
-0.108908
-0.107535
-0.106054
-0.104542
-0.102968
-0.101333
-0.0996737
-0.0979617
-0.0961821
-0.0943349
-0.0924555
-0.0905331
-0.088581
-0.0865891
-0.0845287
-0.0823871
-0.0801584
-0.0778045
-0.0753369
-0.0727731
-0.0701022
-0.0672776
-0.0641674
-0.0607679
-0.0569645
-0.0527
-0.047951
-0.0427233
-0.0370475
-0.0310188
-0.0247807
-0.0187515
-0.0133912
-0.00865544
-0.00432097
-0.000186193
0.00386271
0.00786647
0.0118286
0.0157422
0.0196026
0.0234105
0.0271701
0.0308876
0.0345693
0.038221
0.0418475
0.0454529
0.0490402
0.0526119
0.05617
0.0597159
0.0632508
0.0667757
0.0702915
0.0737989
0.0772986
0.0807913
0.0842777
0.0877585
0.0912342
0.0947058
0.0981738
0.101639
0.105102
0.108565
-0.216205
-0.207441
-0.198761
-0.190343
-0.182387
-0.175076
-0.168597
-0.163078
-0.158529
-0.154863
-0.151947
-0.149634
-0.147795
-0.146305
-0.145066
-0.143997
-0.143026
-0.142096
-0.141176
-0.140241
-0.139279
-0.138283
-0.137252
-0.136184
-0.135083
-0.133951
-0.13279
-0.131607
-0.130415
-0.129225
-0.128044
-0.126846
-0.125663
-0.124512
-0.123413
-0.122379
-0.121414
-0.120518
-0.119684
-0.118905
-0.118166
-0.117457
-0.116766
-0.116084
-0.115394
-0.114675
-0.113908
-0.113094
-0.112248
-0.111305
-0.110259
-0.109118
-0.107886
-0.106576
-0.105204
-0.103798
-0.102322
-0.100799
-0.0992221
-0.0975669
-0.0958904
-0.0941806
-0.0924124
-0.0905396
-0.0886169
-0.0866486
-0.0846572
-0.08264
-0.0805706
-0.078427
-0.0762194
-0.0739054
-0.0715061
-0.0690353
-0.0664972
-0.0638639
-0.061018
-0.0579184
-0.0544645
-0.0506091
-0.0463182
-0.0415804
-0.0363438
-0.0306665
-0.0246328
-0.0186362
-0.0130908
-0.0080541
-0.00341631
0.000945986
0.00512481
0.00917333
0.0131187
0.0169765
0.0207593
0.0244792
0.0281477
0.0317753
0.0353709
0.0389417
0.0424932
0.0460299
0.0495546
0.0530696
0.0565764
0.0600761
0.0635694
0.0670568
0.0705386
0.0740152
0.0774869
0.0809539
0.0844167
0.0878756
0.091331
0.0947834
0.0982332
0.101681
0.105127
0.108573
-0.216195
-0.207455
-0.198884
-0.190622
-0.182802
-0.175534
-0.168977
-0.163313
-0.158608
-0.154807
-0.151781
-0.149366
-0.147429
-0.145847
-0.144518
-0.143359
-0.142302
-0.141287
-0.140277
-0.139248
-0.138184
-0.137078
-0.135927
-0.134729
-0.133493
-0.132222
-0.130923
-0.129602
-0.128272
-0.12695
-0.125649
-0.124327
-0.123006
-0.121731
-0.120522
-0.119397
-0.11836
-0.1174
-0.116519
-0.115706
-0.114946
-0.114221
-0.113516
-0.112815
-0.112103
-0.111356
-0.110555
-0.109714
-0.108848
-0.107901
-0.106845
-0.105674
-0.104413
-0.103089
-0.101712
-0.100296
-0.0988277
-0.0973095
-0.0957325
-0.0940754
-0.0923753
-0.0906652
-0.0889135
-0.0870261
-0.0850205
-0.082964
-0.0809041
-0.0788303
-0.0767392
-0.074574
-0.0723946
-0.070168
-0.0679164
-0.0656392
-0.0633274
-0.0609816
-0.0584958
-0.0557707
-0.0526637
-0.0491333
-0.0451536
-0.0407142
-0.0357162
-0.0302354
-0.0242034
-0.0179756
-0.012172
-0.00693784
-0.00213093
0.00233727
0.00655548
0.0105881
0.0144773
0.0182534
0.0219407
0.0255598
0.0291278
0.0326586
0.036163
0.0396494
0.0431237
0.0465902
0.0500517
0.0535101
0.0569661
0.0604204
0.0638731
0.067324
0.070773
0.07422
0.0776649
0.0811075
0.0845479
0.0879861
0.0914222
0.0948565
0.0982891
0.10172
0.105151
0.108581
-0.21613
-0.207315
-0.198779
-0.190646
-0.183004
-0.17591
-0.169467
-0.16382
-0.159043
-0.155132
-0.151985
-0.14946
-0.147422
-0.145751
-0.144336
-0.143082
-0.141915
-0.14078
-0.139654
-0.138515
-0.137335
-0.136105
-0.134821
-0.133477
-0.132084
-0.130661
-0.129217
-0.127758
-0.126291
-0.12483
-0.1234
-0.121967
-0.120505
-0.119106
-0.117792