/*--------------------------------*- C++ -*----------------------------------*\
  =========                 |
  \\      /  F ield         | OpenFOAM: The Open Source CFD Toolbox
   \\    /   O peration     | Website:  https://openfoam.org
    \\  /    A nd           | Version:  6
     \\/     M anipulation  |
\*---------------------------------------------------------------------------*/
FoamFile
{
    version     2.0;
    format      ascii;
    class       surfaceScalarField;
    location    "4700";
    object      phi;
}
// * * * * * * * * * * * * * * * * * * * * * * * * * * * * * * * * * * * * * //

dimensions      [0 3 -1 0 0 0 0];

internalField   nonuniform List<scalar> 
9440
(
-3.92452e-10
3.92452e-10
-5.51992e-10
1.5954e-10
-5.77679e-10
2.56868e-11
-5.88301e-10
1.06221e-11
-4.06972e-10
-1.81328e-10
-1.54342e-10
-2.5263e-10
1.24112e-09
-1.39546e-09
2.09836e-09
-8.57245e-10
2.90642e-09
-8.08057e-10
3.78273e-09
-8.76307e-10
4.25231e-09
-4.69587e-10
4.62108e-09
-3.68761e-10
5.06918e-09
-4.48102e-10
5.4595e-09
-3.90325e-10
6.13313e-09
-6.73626e-10
6.62963e-09
-4.96494e-10
7.26934e-09
-6.39714e-10
7.7762e-09
-5.06858e-10
8.04419e-09
-2.67993e-10
8.26292e-09
-2.18722e-10
8.38069e-09
-1.17769e-10
8.45949e-09
-7.88002e-11
8.61607e-09
-1.56588e-10
8.5532e-09
6.28774e-11
8.52393e-09
2.92677e-11
8.49448e-09
2.94505e-11
8.56393e-09
-6.94495e-11
8.66551e-09
-1.01582e-10
8.74302e-09
-7.7504e-11
8.81302e-09
-6.99988e-11
8.80787e-09
5.15285e-12
8.78327e-09
2.46011e-11
8.7367e-09
4.65686e-11
8.63483e-09
1.01864e-10
8.56453e-09
7.03104e-11
8.54804e-09
1.64817e-11
8.5576e-09
-9.55479e-12
8.59758e-09
-3.9977e-11
8.66641e-09
-6.88291e-11
8.69355e-09
-2.71414e-11
8.68742e-09
6.1369e-12
8.63094e-09
5.64721e-11
8.53566e-09
9.52809e-11
8.41956e-09
1.16103e-10
8.27478e-09
1.44787e-10
8.14982e-09
1.24959e-10
8.05417e-09
9.56451e-11
8.00596e-09
4.82125e-11
7.9781e-09
2.78659e-11
7.96961e-09
8.48661e-12
7.96946e-09
1.47725e-13
7.94116e-09
2.83023e-11
7.90759e-09
3.35696e-11
7.88672e-09
2.08689e-11
7.78023e-09
1.0649e-10
7.67036e-09
1.09872e-10
7.6055e-09
6.48667e-11
7.47834e-09
1.2716e-10
7.38804e-09
9.03051e-11
7.32018e-09
6.7856e-11
7.30844e-09
1.17426e-11
7.24771e-09
6.07297e-11
7.28838e-09
-4.06704e-11
7.26098e-09
2.74017e-11
7.2648e-09
-3.81103e-12
7.27269e-09
-7.89267e-12
7.26754e-09
5.1497e-12
7.15011e-09
1.1743e-10
6.97561e-09
1.745e-10
6.86393e-09
1.11688e-10
6.75197e-09
1.11955e-10
6.50215e-09
2.49829e-10
6.3563e-09
1.45841e-10
6.14135e-09
2.14951e-10
5.61995e-09
5.21406e-10
5.50471e-09
1.15235e-10
4.80045e-09
7.04266e-10
4.24406e-09
5.56387e-10
3.09556e-09
1.1485e-09
2.30488e-09
7.90676e-10
5.41268e-10
1.76362e-09
1.71339e-10
3.69929e-10
2.90744e-11
1.42265e-10
-4.45718e-10
4.74793e-10
-2.38362e-10
-2.07356e-10
-1.47725e-10
-9.06372e-11
5.69305e-17
-1.47725e-10
-1.71013e-18
-6.10014e-19
-1.40021e-18
-3.09918e-19
-1.2966e-18
-1.03747e-19
-1.27216e-18
-2.45677e-20
-1.25138e-18
-2.08951e-20
-1.19954e-18
-5.19181e-20
-1.105e-18
-9.45926e-20
-9.68e-19
-1.37002e-19
-7.94128e-19
-1.73815e-19
-5.91067e-19
-2.02921e-19
-3.67356e-19
-2.2347e-19
-1.31607e-19
-2.35397e-19
1.07906e-19
-2.39044e-19
3.43471e-19
-2.34989e-19
5.68101e-19
-2.23959e-19
7.75638e-19
-2.0679e-19
9.60832e-19
-1.8439e-19
1.11939e-18
-1.57716e-19
1.24801e-18
-1.27746e-19
1.34435e-18
-9.5452e-20
1.40702e-18
-6.17744e-20
1.43553e-18
-2.76026e-20
1.43019e-18
6.24455e-21
1.39207e-18
3.90302e-20
1.32287e-18
7.01068e-20
1.22485e-18
9.89183e-20
1.10076e-18
1.24999e-19
9.53691e-19
1.47967e-19
7.87071e-19
1.6752e-19
6.04545e-19
1.83425e-19
4.09929e-19
1.95515e-19
2.07126e-19
2.037e-19
2.08022e-19
-2.06609e-10
5.99061e-10
-3.24452e-10
2.77384e-10
-1.25607e-10
-1.73158e-10
1.21093e-10
-2.36078e-10
8.2563e-10
-8.85865e-10
1.38079e-09
-8.07787e-10
1.61531e-09
-1.62998e-09
2.54201e-09
-1.78394e-09
3.50478e-09
-1.77083e-09
4.09878e-09
-1.4703e-09
4.92719e-09
-1.298e-09
5.59254e-09
-1.03411e-09
6.1142e-09
-9.69767e-10
6.47608e-09
-7.52197e-10
6.94606e-09
-1.1436e-09
7.18546e-09
-7.35897e-10
7.52325e-09
-9.775e-10
8.04675e-09
-1.03036e-09
8.07383e-09
-2.95069e-10
8.2025e-09
-3.47394e-10
8.50221e-09
-4.17475e-10
8.69492e-09
-2.7151e-10
8.69532e-09
-1.56982e-10
8.77011e-09
-1.19093e-11
8.70784e-09
9.15302e-11
8.88043e-09
-1.43132e-10
9.02741e-09
-2.16428e-10
9.12589e-09
-2.00061e-10
9.18124e-09
-1.32849e-10
9.26205e-09
-1.50808e-10
9.314e-09
-4.68003e-11
9.31934e-09
1.92617e-11
9.29786e-09
6.80534e-11
9.25046e-09
1.49262e-10
9.26896e-09
5.18198e-11
9.2619e-09
2.35372e-11
9.26064e-09
-8.29198e-12
9.21564e-09
5.02456e-12
9.13491e-09
1.19002e-11
9.11319e-09
-5.4159e-12
9.10761e-09
1.17222e-11
9.07821e-09
8.58697e-11
9.04379e-09
1.29698e-10
9.00246e-09
1.57441e-10
8.95234e-09
1.94908e-10
8.89923e-09
1.78064e-10
8.80556e-09
1.89317e-10
8.70851e-09
1.45269e-10
8.5754e-09
1.60973e-10
8.4984e-09
8.54886e-11
8.36179e-09
1.36757e-10
8.28495e-09
1.0515e-10
8.18666e-09
1.31856e-10
8.12148e-09
8.60521e-11
8.07336e-09
1.54616e-10
7.94594e-09
2.37294e-10
7.94e-09
7.08097e-11
7.94992e-09
1.1724e-10
7.88278e-09
1.5745e-10
7.81321e-09
1.37427e-10
7.75325e-09
7.1708e-11
7.62701e-09
1.86965e-10
7.56629e-09
2.00563e-11
7.46904e-09
1.24656e-10
7.35865e-09
1.06578e-10
7.23995e-09
1.10813e-10
7.14101e-09
1.04087e-10
7.02966e-09
2.28791e-10
6.90492e-09
2.99242e-10
6.94168e-09
7.49292e-11
6.74415e-09
3.0948e-10
6.60779e-09
3.8619e-10
6.40535e-09
3.48282e-10
5.95796e-09
6.62347e-10
5.73067e-09
7.48696e-10
5.35511e-09
4.90796e-10
5.03732e-09
1.02205e-09
4.23749e-09
1.35622e-09
4.05679e-09
1.32921e-09
2.90233e-09
1.94513e-09
3.01177e-09
1.65418e-09
2.63983e-09
7.41871e-10
9.33274e-10
1.84882e-09
3.22611e-10
1.08546e-09
-1.48303e-10
2.63558e-10
-1.98773e-10
-4.0167e-11
1.2944e-17
-3.46498e-10
-1.40907e-18
-1.75308e-18
-1.19313e-18
-5.25994e-19
-1.21654e-18
-8.04966e-20
-1.26763e-18
2.63975e-20
-1.28157e-18
-7.04542e-21
-1.24141e-18
-9.20973e-20
-1.14707e-18
-1.88873e-19
-1.00481e-18
-2.7908e-19
-8.23234e-19
-3.55079e-19
-6.11616e-19
-4.14055e-19
-3.79283e-19
-4.55133e-19
-1.35254e-19
-4.78566e-19
1.11962e-19
-4.85218e-19
3.54501e-19
-4.76329e-19
5.85271e-19
-4.534e-19
7.98038e-19
-4.18128e-19
9.87505e-19
-3.72356e-19
1.14936e-18
-3.18022e-19
1.2803e-18
-2.57106e-19
1.37803e-18
-1.91574e-19
1.4412e-18
-1.23329e-19
1.46938e-18
-5.41671e-20
1.46298e-18
1.42632e-20
1.42315e-18
8.04808e-20
1.35168e-18
1.43188e-19
1.25093e-18
2.01277e-19
1.12373e-18
2.53818e-19
9.73244e-19
3.00058e-19
8.02975e-19
3.39395e-19
6.16635e-19
3.71369e-19
4.18114e-19
3.9564e-19
2.11449e-19
4.11967e-19
4.20175e-19
-8.41082e-11
6.83169e-10
7.22315e-11
1.21044e-10
3.70474e-10
-4.71401e-10
7.00774e-10
-5.66378e-10
1.22108e-09
-1.40617e-09
2.35893e-09
-1.94565e-09
2.58026e-09
-1.85131e-09
3.24864e-09
-2.45232e-09
4.15572e-09
-2.67791e-09
4.73482e-09
-2.04941e-09
5.29693e-09
-1.8601e-09
5.73281e-09
-1.46998e-09
6.14465e-09
-1.3816e-09
6.86274e-09
-1.47029e-09
7.19093e-09
-1.4718e-09
7.52751e-09
-1.07247e-09
7.51509e-09
-9.65086e-10
7.49473e-09
-1.00999e-09
7.86506e-09
-6.65404e-10
8.14641e-09
-6.2874e-10
8.24587e-09
-5.1694e-10
8.31018e-09
-3.35812e-10
8.40912e-09
-2.55922e-10
8.63702e-09
-2.39813e-10
8.84875e-09
-1.20199e-10
8.92718e-09
-2.21554e-10
8.92128e-09
-2.10534e-10
8.91278e-09
-1.91558e-10
8.92307e-09
-1.43132e-10
8.91346e-09
-1.41195e-10
8.94823e-09
-8.15769e-11
9.04804e-09
-8.0548e-11
9.13476e-09
-1.86635e-11
9.20441e-09
7.96185e-11
9.2214e-09
3.48254e-11
9.22416e-09
2.07851e-11
9.20754e-09
8.32599e-12
9.18274e-09
2.98236e-11
9.1608e-09
3.38478e-11
9.11673e-09
3.8654e-11
9.05257e-09
7.58877e-11
8.99017e-09
1.48262e-10
8.91857e-09
2.01299e-10
8.86173e-09
2.14285e-10
8.84684e-09
2.09795e-10
8.79051e-09
2.34397e-10
8.75323e-09
2.26603e-10
8.69086e-09
2.07635e-10
8.62789e-09
2.23941e-10
8.56537e-09
1.48014e-10
8.44594e-09
2.56188e-10
8.39824e-09
1.52854e-10
8.24548e-09
2.84609e-10
8.12207e-09
2.09472e-10
8.05603e-09
2.20651e-10
7.97571e-09
3.17618e-10
7.90872e-09
1.37803e-10
7.86623e-09
1.59731e-10
7.87008e-09
1.53602e-10
7.77176e-09
2.35747e-10
7.66065e-09
1.82821e-10
7.61952e-09
2.28097e-10
7.48208e-09
1.57496e-10
7.42823e-09
1.78507e-10
7.28554e-09
2.49273e-10
7.13977e-09
2.56587e-10
7.03333e-09
2.10529e-10
6.88898e-09
3.73138e-10
6.84052e-09
3.47707e-10
6.73632e-09
1.79127e-10
6.5534e-09
4.92408e-10
6.43301e-09
5.06583e-10
6.20543e-09
5.75857e-10
5.81285e-09
1.05493e-09
5.81534e-09
7.46205e-10
5.08811e-09
1.21803e-09
4.81696e-09
1.2932e-09
4.33797e-09
1.83521e-09
4.14928e-09
1.5179e-09
3.88231e-09
2.2121e-09
3.4419e-09
2.09458e-09
2.58267e-09
1.6011e-09
2.28872e-09
2.14278e-09
2.1059e-09
1.26827e-09
1.38246e-09
9.87004e-10
3.76513e-10
9.65778e-10
-1.86798e-17
3.00148e-11
-1.81222e-19
-1.14955e-18
-7.46789e-19
3.94764e-20
-1.10878e-18
2.81492e-19
-1.30023e-18
2.17882e-19
-1.3658e-18
5.85956e-20
-1.33739e-18
-1.20391e-19
-1.23695e-18
-2.89147e-19
-1.08081e-18
-4.34983e-19
-8.8221e-19
-5.53341e-19
-6.52694e-19
-6.43108e-19
-4.02716e-19
-7.04506e-19
-1.41906e-19
-7.38623e-19
1.2085e-19
-7.47076e-19
3.7743e-19
-7.3188e-19
6.20543e-19
-6.95373e-19
8.4381e-19
-6.40168e-19
1.04184e-18
-5.69094e-19
1.21028e-18
-4.85125e-19
1.34584e-18
-3.91297e-19
1.44627e-18
-2.90625e-19
1.51036e-18
-1.8602e-19
1.53781e-18
-8.02164e-20
1.5292e-18
2.4278e-20
1.48585e-18
1.25225e-19
1.40977e-18
2.20674e-19
1.30348e-18
3.08967e-19
1.16996e-18
3.88726e-19
1.01258e-18
4.58836e-19
8.34949e-19
5.1842e-19
6.40905e-19
5.66804e-19
4.34441e-19
6.03494e-19
2.19657e-19
6.28139e-19
6.40512e-19
6.60082e-11
6.17161e-10
4.71276e-10
-2.84223e-10
6.69975e-10
-6.701e-10
1.38955e-09
-1.28596e-09
1.7365e-09
-1.75311e-09
2.82938e-09
-3.03852e-09
3.78377e-09
-2.8057e-09
4.21203e-09
-2.88058e-09
4.47926e-09
-2.94514e-09
4.97507e-09
-2.54522e-09
5.45746e-09
-2.34249e-09
5.92909e-09
-1.94161e-09
6.40913e-09
-1.86164e-09
6.86477e-09
-1.92592e-09
6.82606e-09
-1.43309e-09
7.01271e-09
-1.25911e-09
7.14735e-09
-1.09973e-09
7.23626e-09
-1.0989e-09
7.37741e-09
-8.06545e-10
7.43826e-09
-6.89591e-10
7.55323e-09
-6.31913e-10
7.78429e-09
-5.66869e-10
7.94898e-09
-4.20606e-10
8.01915e-09
-3.09983e-10
8.13004e-09
-2.31091e-10
8.13589e-09
-2.27402e-10
8.15532e-09
-2.29962e-10
8.17574e-09
-2.11976e-10
8.20472e-09
-1.72109e-10
8.2247e-09
-1.61182e-10
8.24894e-09
-1.0581e-10
8.28766e-09
-1.19266e-10
8.38559e-09
-1.16594e-10
8.53097e-09
-6.57571e-11
8.55608e-09
9.71258e-12
8.55167e-09
2.5199e-11
8.52701e-09
3.2983e-11
8.50804e-09
4.87972e-11
8.47627e-09
6.56201e-11
8.4312e-09
8.37283e-11
8.38262e-09
1.2447e-10
8.35451e-09
1.76373e-10
8.35776e-09
1.98046e-10
8.38874e-09
1.83311e-10
8.41219e-09
1.86345e-10
8.415e-09
2.31587e-10
8.40875e-09
2.32859e-10
8.36594e-09
2.50437e-10
8.29288e-09
2.9701e-10
8.21401e-09
2.26884e-10
8.10658e-09
3.63617e-10
7.95965e-09
2.99788e-10
7.91897e-09
3.25284e-10
7.85217e-09
2.7628e-10
7.68841e-09
3.84414e-10
7.74082e-09
2.65212e-10
7.63306e-09
2.45563e-10
7.46684e-09
3.25952e-10
7.42202e-09
1.98423e-10
7.36228e-09
2.95487e-10
7.25752e-09
2.87583e-10
7.14669e-09
3.38928e-10
6.99311e-09
3.11081e-10
6.85325e-09
3.18366e-10
6.75511e-09
3.47415e-10
6.73216e-09
2.79541e-10
6.64249e-09
3.00198e-10
6.51967e-09
4.95961e-10
6.60448e-09
2.62896e-10
6.29618e-09
4.87438e-10
6.2467e-09
5.4188e-10
6.11116e-09
6.42127e-10
5.77203e-09
9.14989e-10
5.63525e-09
1.19172e-09
5.31012e-09
1.07133e-09
4.84912e-09
1.67903e-09
4.41171e-09
1.73061e-09
4.11962e-09
2.1273e-09
3.65164e-09
1.98587e-09
3.57716e-09
2.28658e-09
2.99929e-09
2.67246e-09
2.07624e-09
2.52415e-09
1.56929e-09
2.64974e-09
5.07176e-10
2.33038e-09
-1.16773e-10
1.61095e-09
-3.00153e-11
8.7902e-10
4.68138e-18
-3.291e-16
1.00842e-18
2.52497e-18
-5.03947e-19
1.55183e-18
-1.17152e-18
9.49282e-19
-1.45865e-18
5.05265e-19
-1.54396e-18
1.44163e-19
-1.50536e-18
-1.58704e-19
-1.3825e-18
-4.11698e-19
-1.19917e-18
-6.17958e-19
-9.71977e-19
-7.80112e-19
-7.14092e-19
-9.00477e-19
-4.36832e-19
-9.81137e-19
-1.50359e-19
-1.02434e-18
1.36046e-19
-1.0326e-18
4.13937e-19
-1.00877e-18
6.75748e-19
-9.56075e-19
9.14884e-19
-8.78111e-19
1.12581e-18
-7.78762e-19
1.30411e-18
-6.62121e-19
1.44651e-18
-5.32367e-19
1.55088e-18
-3.93643e-19
1.61616e-18
-2.49939e-19
1.6423e-18
-1.04989e-19
1.63014e-18
3.78092e-20
1.5813e-18
1.75437e-19
1.49806e-18
3.05287e-19
1.38323e-18
4.2516e-19
1.24008e-18
5.33251e-19
1.07216e-18
6.28111e-19
8.83334e-19
7.08613e-19
6.77595e-19
7.73904e-19
4.59087e-19
8.23362e-19
2.32029e-19
8.56555e-19
8.73213e-19
1.52874e-10
4.64287e-10
7.46758e-10
-8.78106e-10
1.21658e-09
-1.13992e-09
2.14261e-09
-2.21199e-09
2.92291e-09
-2.53341e-09
3.11714e-09
-3.23276e-09
3.66972e-09
-3.35829e-09
4.3245e-09
-3.53535e-09
4.68962e-09
-3.31026e-09
5.0273e-09
-2.8829e-09
5.46229e-09
-2.77748e-09
5.70169e-09
-2.18101e-09
5.83731e-09
-1.99727e-09
6.04054e-09
-2.12915e-09
6.22148e-09
-1.61403e-09
6.37631e-09
-1.41394e-09
6.51844e-09
-1.24186e-09
6.53622e-09
-1.11668e-09
6.64451e-09
-9.14835e-10
6.69583e-09
-7.40907e-10
6.77389e-09
-7.09978e-10
6.81715e-09
-6.1013e-10
6.85724e-09
-4.60693e-10
6.95761e-09
-4.10353e-10
7.06362e-09
-3.37095e-10
7.1255e-09
-2.89282e-10
7.18987e-09
-2.94331e-10
7.23743e-09
-2.59531e-10
7.28617e-09
-2.20856e-10
7.34266e-09
-2.17664e-10
7.41169e-09
-1.74835e-10
7.46995e-09
-1.77532e-10
7.47631e-09
-1.22949e-10
7.46773e-09
-5.71745e-11
7.47494e-09
2.5067e-12
7.48621e-09
1.39267e-11
7.50088e-09
1.83102e-11
7.51882e-09
3.08583e-11
7.54174e-09
4.27041e-11
7.56752e-09
5.79525e-11
7.61506e-09
7.69331e-11
7.63774e-09
1.53694e-10
7.58006e-09
2.55727e-10
7.51407e-09
2.49295e-10
7.4589e-09
2.41516e-10
7.45756e-09
2.32929e-10
7.44967e-09
2.40747e-10
7.40971e-09
2.90399e-10
7.35523e-09
3.51493e-10
7.29382e-09
2.88292e-10
7.23369e-09
4.23755e-10
7.18062e-09
3.52854e-10
7.20299e-09
3.02912e-10
6.94745e-09
5.31821e-10
6.96951e-09
3.62364e-10
6.82322e-09
4.115e-10
6.74067e-09
3.28114e-10
6.65893e-09
4.07689e-10
6.51374e-09
3.43618e-10
6.53254e-09
2.76685e-10
6.36873e-09
4.51397e-10
6.26675e-09
4.40911e-10
6.20018e-09
3.77655e-10
6.23624e-09
2.82309e-10
6.16327e-09
4.20389e-10
6.07826e-09
3.64553e-10
5.95821e-09
4.20248e-10
5.86097e-09
5.93203e-10
5.89942e-09
2.24452e-10
5.55367e-09
8.33183e-10
5.55924e-09
5.36316e-10
5.4568e-09
7.44571e-10
5.14643e-09
1.22536e-09
5.25169e-09
1.08646e-09
4.91309e-09
1.40993e-09
4.6567e-09
1.93542e-09
4.33442e-09
2.05289e-09
4.26367e-09
2.19805e-09
3.75306e-09
2.49649e-09
3.30309e-09
2.73655e-09
3.12932e-09
2.84623e-09
2.85966e-09
2.7938e-09
2.77291e-09
2.73649e-09
2.37988e-09
2.72341e-09
1.39976e-09
2.59107e-09
1.40514e-16
2.27878e-09
2.89246e-18
1.33057e-17
3.62004e-20
5.38123e-18
-1.10555e-18
2.694e-18
-1.6146e-18
1.45881e-18
-1.81887e-18
7.09995e-19
-1.84599e-18
1.71754e-19
-1.75757e-18
-2.4665e-19
-1.58851e-18
-5.80295e-19
-1.36132e-18
-8.44657e-19
-1.09234e-18
-1.04858e-18
-7.94752e-19
-1.19749e-18
-4.80034e-19
-1.29519e-18
-1.58618e-19
-1.34498e-18
1.59877e-19
-1.35021e-18
4.66629e-19
-1.31453e-18
7.53712e-19
-1.24207e-18
1.01423e-18
-1.13746e-18
1.24245e-18
-1.00574e-18
1.43386e-18
-8.5225e-19
1.58523e-18
-6.82425e-19
1.69458e-18
-5.0166e-19
1.76111e-18
-3.15124e-19
1.7851e-18
-1.27624e-19
1.76777e-18
5.64937e-20
1.71115e-18
2.33411e-19
1.61793e-18
3.9986e-19
1.49132e-18
5.53122e-19
1.33494e-18
6.90991e-19
1.15267e-18
8.11729e-19
9.48625e-19
9.14002e-19
7.27052e-19
9.96822e-19
4.9228e-19
1.05948e-18
2.48687e-19
1.10149e-18
1.12256e-18
2.35911e-10
2.28377e-10
7.92527e-10
-1.43472e-09
1.61604e-09
-1.96344e-09
2.14905e-09
-2.74499e-09
2.89503e-09
-3.27939e-09
3.61422e-09
-3.95194e-09
4.188e-09
-3.93207e-09
4.42043e-09
-3.76777e-09
4.68216e-09
-3.57199e-09
4.88003e-09
-3.08077e-09
5.24245e-09
-3.1399e-09
5.3431e-09
-2.28166e-09
5.40431e-09
-2.05847e-09
5.37291e-09
-2.09775e-09
5.44258e-09
-1.6837e-09
5.56407e-09
-1.53542e-09
5.67237e-09
-1.35016e-09
5.75401e-09
-1.19832e-09
5.86466e-09
-1.02548e-09
5.92396e-09
-8.00214e-10
5.92102e-09
-7.0703e-10
5.90823e-09
-5.97337e-10
5.99157e-09
-5.44035e-10
6.08199e-09
-5.00771e-10
6.20189e-09
-4.56997e-10
6.3073e-09
-3.94687e-10
6.34008e-09
-3.2711e-10
6.34739e-09
-2.66839e-10
6.38204e-09
-2.55506e-10
6.39766e-09
-2.33276e-10
6.4312e-09
-2.08375e-10
6.47113e-09
-2.17461e-10
6.51873e-09
-1.70547e-10
6.56928e-09
-1.07728e-10
6.6245e-09
-5.27038e-11
6.64309e-09
-4.66355e-12
6.63962e-09
2.17793e-11
6.61675e-09
5.37287e-11
6.60544e-09
5.40132e-11
6.59813e-09
6.52646e-11
6.59197e-09
8.30924e-11
6.58775e-09
1.57918e-10
6.58702e-09
2.56457e-10
6.59274e-09
2.43579e-10
6.5676e-09
2.66658e-10
6.50393e-09
2.966e-10
6.50703e-09
2.37646e-10
6.39551e-09
4.0192e-10
6.41515e-09
3.31848e-10
6.29689e-09
4.0656e-10
6.26598e-09
4.54665e-10
6.18072e-09
4.38114e-10
6.11186e-09
3.71769e-10
6.01126e-09
6.32424e-10
5.99899e-09
3.74634e-10
5.83634e-09
5.74157e-10
5.72995e-09
4.34508e-10
5.65663e-09
4.81008e-10
5.48733e-09
5.12917e-10
5.50537e-09
2.58646e-10
5.45296e-09
5.03808e-10
5.37561e-09
5.18266e-10
5.33643e-09
4.16832e-10
5.25269e-09
3.66056e-10
5.24143e-09
4.31647e-10
5.13138e-09
4.74606e-10
5.0287e-09
5.22933e-10
5.07525e-09
5.46657e-10
4.93547e-09
3.64227e-10
4.92616e-09
8.425e-10
4.78223e-09
6.80245e-10
4.67682e-09
8.49982e-10
4.48697e-09
1.4152e-09
4.23497e-09
1.33847e-09
3.90488e-09
1.74002e-09
3.83829e-09
2.00202e-09
3.57228e-09
2.3189e-09
3.35871e-09
2.41162e-09
2.99355e-09
2.86165e-09
2.75496e-09
2.97514e-09
2.49359e-09
3.1076e-09
1.88672e-09
3.40068e-09
1.34955e-09
3.27365e-09
4.73367e-10
3.59959e-09
-1.73337e-10
3.23778e-09
-2.08166e-16
2.10545e-09
-5.02969e-18
9.01218e-19
-2.64962e-18
3.00137e-18
-2.33961e-18
2.3846e-18
-2.36241e-18
1.48227e-18
-2.35619e-18
7.04431e-19
-2.26355e-18
7.97592e-20
-2.09044e-18
-4.19129e-19
-1.85266e-18
-8.17471e-19
-1.56524e-18
-1.13148e-18
-1.24125e-18
-1.37197e-18
-8.92453e-19
-1.54565e-18
-5.29829e-19
-1.65711e-18
-1.63842e-19
-1.71019e-18
1.95561e-19
-1.70873e-18
5.39086e-19
-1.65707e-18
8.5832e-19
-1.56023e-18
1.14595e-18
-1.42394e-18
1.39594e-18
-1.25453e-18
1.60369e-18
-1.05873e-18
1.766e-18
-8.43444e-19
1.88112e-18
-6.15469e-19
1.94861e-18
-3.81291e-19
1.96922e-18
-1.46896e-19
1.94469e-18
8.23615e-20
1.8776e-18
3.01835e-19
1.7712e-18
5.07603e-19
1.62919e-18
6.96458e-19
1.45567e-18
8.65845e-19
1.25494e-18
1.01379e-18
1.03144e-18
1.13883e-18
7.89709e-19
1.23988e-18
5.34293e-19
1.31622e-18
2.6976e-19
1.36735e-18
1.39298e-18
4.49724e-10
-2.21347e-10
9.13033e-10
-1.89803e-09
1.75493e-09
-2.80533e-09
2.53876e-09
-3.52882e-09
3.18478e-09
-3.92541e-09
3.4423e-09
-4.20946e-09
3.80442e-09
-4.29419e-09
4.10881e-09
-4.07216e-09
4.24164e-09
-3.70482e-09
4.4191e-09
-3.25824e-09
4.50457e-09
-3.22536e-09
4.52189e-09
-2.29897e-09
4.66648e-09
-2.20307e-09
4.70366e-09
-2.13493e-09
4.74819e-09
-1.72823e-09
4.87299e-09
-1.66022e-09
4.9481e-09
-1.42527e-09
5.01617e-09
-1.26639e-09
5.02311e-09
-1.03241e-09
5.10029e-09
-8.77397e-10
5.14657e-09
-7.5331e-10
5.20342e-09
-6.54179e-10
5.2867e-09
-6.27315e-10
5.35251e-09
-5.66584e-10
5.37313e-09
-4.77614e-10
5.41009e-09
-4.31647e-10
5.46161e-09
-3.78626e-10
5.55291e-09
-3.58141e-10
5.6113e-09
-3.13897e-10
5.62895e-09
-2.5092e-10
5.64023e-09
-2.19654e-10
5.63197e-09
-2.09196e-10
5.65552e-09
-1.94101e-10
5.69687e-09
-1.49071e-10
5.73283e-09
-8.86612e-11
5.77431e-09
-4.61433e-11
5.84812e-09
-5.20293e-11
5.85638e-09
4.54725e-11
5.863e-09
4.73905e-11
5.84685e-09
8.14172e-11
5.80554e-09
1.24399e-10
5.77414e-09
1.89319e-10
5.79527e-09
2.35328e-10
5.74929e-09
2.89565e-10
5.77933e-09
2.36615e-10
5.69592e-09
3.80009e-10
5.64292e-09
2.90645e-10
5.56047e-09
4.84371e-10
5.52834e-09
3.63988e-10
5.43438e-09
5.00514e-10
5.42526e-09
4.63785e-10
5.33268e-09
5.30695e-10
5.24094e-09
4.63519e-10
5.24589e-09
6.27476e-10
4.98595e-09
6.34574e-10
5.0514e-09
5.0871e-10
4.99633e-09
4.89579e-10
4.87392e-09
6.03411e-10
4.83847e-09
5.48373e-10
4.6351e-09
4.62022e-10
4.70341e-09
4.35497e-10
4.55898e-09
6.62695e-10
4.40636e-09
5.69458e-10
4.35178e-09
4.20638e-10
4.34761e-09
4.35817e-10
4.36855e-09
4.53665e-10
4.29689e-09
5.94594e-10
4.24205e-09
6.01504e-10
4.21555e-09
3.90726e-10
4.21959e-09
8.38458e-10
4.14508e-09
7.54761e-10
3.99345e-09
1.00161e-09
4.03708e-09
1.37157e-09
3.97426e-09
1.40129e-09
3.95396e-09
1.76032e-09
3.89418e-09
2.0618e-09
3.76333e-09
2.44975e-09
3.67199e-09
2.50296e-09
3.25051e-09
3.28314e-09
2.90822e-09
3.31743e-09
2.36091e-09
3.6549e-09
1.79766e-09
3.96393e-09
1.29625e-09
3.77506e-09
9.25942e-10
3.9699e-09
6.95696e-10
3.46802e-09
-1.74926e-16
2.80114e-09
-2.92814e-18
3.72998e-18
-3.26499e-18
3.33855e-18
-3.24072e-18
2.36103e-18
-3.13919e-18
1.38149e-18
-2.97992e-18
5.4592e-19
-2.7616e-18
-1.37823e-19
-2.48802e-18
-6.91979e-19
-2.16651e-18
-1.13829e-18
-1.80573e-18
-1.49158e-18
-1.41494e-18
-1.7621e-18
-1.00392e-18
-1.95599e-18
-5.82902e-19
-2.0774e-18
-1.62382e-19
-2.12991e-18
2.4722e-19
-2.11744e-18
6.35926e-19
-2.0448e-18
9.94611e-19
-1.91785e-18
1.31536e-18
-1.74355e-18
1.59174e-18
-1.52971e-18
1.81897e-18
-1.28473e-18
1.99397e-18
-1.01717e-18
2.1153e-18
-7.35502e-19
2.18301e-18
-4.47698e-19
2.19848e-18
-1.61053e-19
2.16416e-18
1.17993e-19
2.08337e-18
3.83942e-19
1.96005e-18
6.32241e-19
1.79858e-18
8.59242e-19
1.60362e-18
1.06212e-18
1.37998e-18
1.23875e-18
1.1325e-18
1.38761e-18
8.66045e-19
1.50765e-18
5.85421e-19
1.59815e-18
2.95388e-19
1.65869e-18
1.68901e-18
7.18562e-10
-9.39909e-10
1.30581e-09
-2.48527e-09
1.93762e-09
-3.43715e-09
2.41538e-09
-4.00658e-09
2.93766e-09
-4.44769e-09
3.24758e-09
-4.51939e-09
3.37976e-09
-4.42636e-09
3.51044e-09
-4.20283e-09
3.54191e-09
-3.73629e-09
3.82928e-09
-3.54562e-09
3.75962e-09
-3.1557e-09
3.98798e-09
-2.52733e-09
4.10337e-09
-2.31846e-09
3.9499e-09
-1.98146e-09
4.06361e-09
-1.84195e-09
4.17316e-09
-1.76977e-09
4.19047e-09
-1.44258e-09
4.24263e-09
-1.31854e-09
4.2897e-09
-1.07949e-09
4.37349e-09
-9.61181e-10
4.46721e-09
-8.47033e-10
4.56389e-09
-7.50859e-10
4.62131e-09
-6.84736e-10
4.64834e-09
-5.93614e-10
4.64455e-09
-4.73814e-10
4.66735e-09
-4.5445e-10
4.70212e-09
-4.13393e-10
4.74686e-09
-4.02883e-10
4.78244e-09
-3.49474e-10
4.84272e-09
-3.11199e-10
4.93757e-09
-3.14501e-10
4.97033e-09
-2.41953e-10
4.96808e-09
-1.91858e-10
4.97971e-09
-1.60693e-10
4.99466e-09
-1.03608e-10
5.02071e-09
-7.21908e-11
5.06551e-09
-9.68319e-11
5.09968e-09
1.13003e-11
5.12147e-09
2.56043e-11
5.12303e-09
7.98593e-11
5.10191e-09
1.45521e-10
5.10623e-09
1.85001e-10
5.133e-09
2.08555e-10
5.11668e-09
3.05889e-10
5.09626e-09
2.57033e-10
5.13639e-09
3.39879e-10
5.00757e-09
4.19472e-10
4.99841e-09
4.93526e-10
4.8603e-09
5.02098e-10
4.8669e-09
4.93922e-10
4.71609e-09
6.14588e-10
4.69996e-09
5.46826e-10
4.5425e-09
6.20979e-10
4.50041e-09
6.6957e-10
4.5621e-09
5.72883e-10
4.40697e-09
6.63846e-10
4.23193e-09
6.64623e-10
4.13544e-09
6.999e-10
4.02479e-09
6.59023e-10
3.78706e-09
6.99753e-10
3.90222e-09
3.20339e-10
3.70649e-09
8.58431e-10
3.66247e-09
6.13479e-10
3.45424e-09
6.28862e-10
3.46384e-09
4.2622e-10
3.48201e-09
4.35501e-10
3.47193e-09
6.04674e-10
3.46093e-09
6.12509e-10
3.35173e-09
4.99924e-10
3.15301e-09
1.03718e-09
2.93352e-09
9.74247e-10
2.79373e-09
1.14141e-09
2.65649e-09
1.50881e-09
2.76655e-09
1.29123e-09
2.65948e-09
1.8674e-09
2.57081e-09
2.15047e-09
2.53555e-09
2.48502e-09
2.22795e-09
2.81055e-09
2.35038e-09
3.1607e-09
2.24706e-09
3.42075e-09
2.1315e-09
3.77046e-09
1.95207e-09
4.14336e-09
1.50676e-09
4.22038e-09
1.24782e-09
4.22884e-09
5.71694e-10
4.14415e-09
-1.09082e-16
3.37284e-09
-3.31776e-18
8.62897e-18
-4.24098e-18
4.26217e-18
-4.21897e-18
2.33968e-18
-3.97366e-18
1.13689e-18
-3.66272e-18
2.3573e-19
-3.31492e-18
-4.84862e-19
-2.9336e-18
-1.07256e-18
-2.5197e-18
-1.55147e-18
-2.07626e-18
-1.93434e-18
-1.60883e-18
-2.22885e-18
-1.12532e-18
-2.4388e-18
-6.35412e-19
-2.56657e-18
-1.4992e-19
-2.6146e-18
3.19864e-19
-2.58635e-18
7.62874e-19
-2.48685e-18
1.16891e-18
-2.32285e-18
1.52919e-18
-2.10272e-18
1.83673e-18
-1.83608e-18
2.08652e-18
-1.53331e-18
2.27564e-18
-1.20505e-18
2.4031e-18
-8.61693e-19
2.46965e-18
-5.12968e-19
2.47752e-18
-1.67637e-19
2.43011e-18
1.667e-19
2.33167e-18
4.83676e-19
2.18705e-18
7.78151e-19
2.00146e-18
1.04613e-18
1.78026e-18
1.28461e-18
1.52884e-18
1.49146e-18
1.25253e-18
1.66521e-18
9.56548e-19
1.80492e-18
6.45956e-19
1.91003e-18
3.25706e-19
1.98022e-18
2.01534e-18
9.64331e-10
-1.90424e-09
1.3667e-09
-2.88764e-09
1.78814e-09
-3.85858e-09
2.31388e-09
-4.53232e-09
2.69737e-09
-4.83118e-09
2.92845e-09
-4.75047e-09
3.14237e-09
-4.64029e-09
3.31841e-09
-4.37887e-09
3.49114e-09
-3.90901e-09
3.37439e-09
-3.42887e-09
3.35185e-09
-3.13316e-09
3.29882e-09
-2.4743e-09
3.16753e-09
-2.18717e-09
3.16233e-09
-1.97625e-09
3.26633e-09
-1.94594e-09
3.47073e-09
-1.97418e-09
3.52338e-09
-1.49523e-09
3.53151e-09
-1.32668e-09
3.63246e-09
-1.18043e-09
3.69765e-09
-1.02637e-09
3.74239e-09
-8.91775e-10
3.81749e-09
-8.25954e-10
3.86705e-09
-7.34295e-10
3.90146e-09
-6.28023e-10
3.94596e-09
-5.1831e-10
3.98284e-09
-4.91329e-10
3.99847e-09
-4.29026e-10
4.01247e-09
-4.16875e-10
4.09758e-09
-4.3458e-10
4.16206e-09
-3.75684e-10
4.19389e-09
-3.46333e-10
4.23798e-09
-2.86035e-10
4.27707e-09
-2.30954e-10
4.32457e-09
-2.08191e-10
4.38785e-09
-1.66881e-10
4.43383e-09
-1.18173e-10
4.41717e-09
-8.01689e-11
4.44597e-09
-1.74958e-11
4.46992e-09
1.65514e-12
4.48951e-09
6.02667e-11
4.48704e-09
1.47997e-10
4.5124e-09
1.59641e-10
4.52385e-09
1.97098e-10
4.5414e-09
2.88348e-10
4.47461e-09
3.2382e-10
4.5058e-09
3.08692e-10
4.42387e-09
5.01397e-10
4.40639e-09
5.11003e-10
4.29878e-09
6.09717e-10
4.26039e-09
5.32307e-10
4.1315e-09
7.43478e-10
4.02238e-09
6.55948e-10
3.96998e-09
6.73384e-10
3.82953e-09
8.10022e-10
3.73732e-09
6.65091e-10
3.69669e-09
7.04476e-10
3.47903e-09
8.82288e-10
3.39924e-09
7.79691e-10
3.34843e-09
7.09829e-10
3.23963e-09
8.08562e-10
3.12998e-09
4.29991e-10
3.27693e-09
7.11482e-10
3.14702e-09
7.43382e-10
3.0188e-09
7.5709e-10
2.89125e-09
5.53774e-10
2.70258e-09
6.2417e-10
2.63357e-09
6.73681e-10
2.62552e-09
6.20563e-10
2.45171e-09
6.7374e-10
2.53629e-09
9.52601e-10
2.44855e-09
1.06199e-09
2.4058e-09
1.18415e-09
2.53157e-09
1.38305e-09
2.48254e-09
1.34026e-09
2.19221e-09
2.15772e-09
2.04497e-09
2.29771e-09
2.00326e-09
2.52673e-09
1.63353e-09
3.18028e-09
1.40136e-09
3.39287e-09
1.39332e-09
3.42879e-09
1.50679e-09
3.657e-09
1.33474e-09
4.31541e-09
1.01447e-09
4.54065e-09
6.92205e-10
4.5511e-09
4.77887e-10
4.35847e-09
9.62351e-17
3.85072e-09
-7.68214e-18
3.6237e-18
-6.16177e-18
2.74216e-18
-5.42042e-18
1.59866e-18
-4.87371e-18
5.90627e-19
-4.38237e-18
-2.55066e-19
-3.90181e-18
-9.64801e-19
-3.41183e-18
-1.56191e-18
-2.90254e-18
-2.06012e-18
-2.37077e-18
-2.46547e-18
-1.81878e-18
-2.78021e-18
-1.25309e-18
-3.00382e-18
-6.83441e-19
-3.1355e-18
-1.21671e-19
-3.17558e-18
4.19367e-19
-3.12652e-18
9.2687e-19
-2.9934e-18
1.38904e-18
-2.784e-18
1.79584e-18
-2.50843e-18
2.1395e-18
-2.17859e-18
2.41478e-18
-1.80741e-18
2.619e-18
-1.40805e-18
2.75183e-18
-9.93279e-19
2.81498e-18
-5.74873e-19
2.81186e-18
-1.63251e-19
2.74709e-18
2.32739e-19
2.62614e-18
6.05883e-19
2.45503e-18
9.50535e-19
2.23994e-18
1.26248e-18
1.9871e-18
1.53871e-18
1.70259e-18
1.77723e-18
1.39225e-18
1.97681e-18
1.06166e-18
2.13676e-18
7.16149e-19
2.25679e-18
3.60827e-19
2.33679e-18
2.37678e-18
6.20467e-10
-2.52471e-09
1.11611e-09
-3.38329e-09
1.52804e-09
-4.27051e-09
1.89757e-09
-4.90185e-09
2.13664e-09
-5.07025e-09
2.43402e-09
-5.04784e-09
2.67003e-09
-4.8763e-09
2.66613e-09
-4.37497e-09
2.59452e-09
-3.8374e-09
2.31487e-09
-3.14922e-09
2.30947e-09
-3.12776e-09
2.63743e-09
-2.80227e-09
2.74592e-09
-2.29566e-09
2.79399e-09
-2.02433e-09
2.82146e-09
-1.97341e-09
2.85613e-09
-2.00884e-09
2.89082e-09
-1.52991e-09
2.98243e-09
-1.41829e-09
3.07725e-09
-1.27525e-09
3.14837e-09
-1.09749e-09
3.2129e-09
-9.56304e-10
3.2278e-09
-8.40853e-10
3.22642e-09
-7.32913e-10
3.21242e-09
-6.14025e-10
3.25272e-09
-5.58609e-10
3.32012e-09
-5.58729e-10
3.39578e-09
-5.04682e-10
3.45401e-09
-4.75104e-10
3.48284e-09
-4.63414e-10
3.52953e-09
-4.22376e-10
3.55621e-09
-3.73008e-10
3.57991e-09
-3.09737e-10
3.63261e-09
-2.8365e-10
3.67275e-09
-2.48333e-10
3.68788e-09
-1.82011e-10
3.74593e-09
-1.76215e-10
3.7832e-09
-1.17438e-10
3.81431e-09
-4.86101e-11
3.84751e-09
-3.15416e-11
3.86454e-09
4.32401e-11
3.89883e-09
1.13709e-10
3.90242e-09
1.56044e-10
3.91034e-09
1.8918e-10
3.89516e-09
3.03534e-10
3.86244e-09
3.5654e-10
3.77455e-09
3.96577e-10
3.76823e-09
5.07718e-10
3.65412e-09
6.25118e-10
3.62388e-09
6.39957e-10
3.50106e-09
6.55132e-10
3.41734e-09
8.27195e-10
3.29471e-09
7.78579e-10
3.16316e-09
8.04937e-10
3.11491e-09
8.58274e-10
2.87236e-09
9.07636e-10
2.76195e-09
8.14885e-10
2.69797e-09
9.46274e-10
2.6231e-09
8.5456e-10
2.42528e-09
9.07652e-10
2.29891e-09
9.34933e-10
2.05229e-09
6.76613e-10
1.93288e-09
8.30894e-10
1.80878e-09
8.67479e-10
1.93813e-09
6.27744e-10
1.85735e-09
6.34554e-10
1.85755e-09
6.2397e-10
1.75912e-09
7.72117e-10
1.59783e-09
7.81854e-10
1.34783e-09
9.23744e-10
1.3719e-09
9.28529e-10
1.55113e-09
8.82756e-10
1.59776e-09
1.13752e-09
1.59971e-09
1.38111e-09
1.59417e-09
1.3458e-09
1.98733e-09
1.76455e-09
2.03133e-09
2.25371e-09
2.3194e-09
2.23866e-09
2.48349e-09
3.01619e-09
2.2915e-09
3.58486e-09
1.71963e-09
4.00067e-09
1.10779e-09
4.26884e-09
1.05647e-09
4.36673e-09
8.55165e-10
4.74195e-09
3.3891e-10
5.06735e-09
-8.14543e-11
4.77884e-09
3.02881e-16
3.76927e-09
-8.5617e-18
1.27131e-18
-7.30366e-18
1.48439e-18
-6.42713e-18
7.22052e-19
-5.71832e-18
-1.18137e-19
-5.0912e-18
-8.8198e-19
-4.49815e-18
-1.5575e-18
-3.90949e-18
-2.15015e-18
-3.30789e-18
-2.66125e-18
-2.68551e-18
-3.08736e-18
-2.04239e-18
-3.42279e-18
-1.38477e-18
-3.66085e-18
-7.23522e-19
-3.79608e-18
-7.26104e-20
-3.82574e-18
5.52483e-19
-3.75078e-18
1.13627e-18
-3.57627e-18
1.66461e-18
-3.31133e-18
2.12567e-18
-2.96843e-18
2.51069e-18
-2.56249e-18
2.81414e-18
-2.1097e-18
3.03377e-18
-1.62649e-18
3.17023e-18
-1.12853e-18
3.22661e-18
-6.30024e-19
3.20785e-18
-1.43265e-19
3.12023e-18
3.21595e-19
2.9708e-18
7.5655e-19
2.76697e-18
1.1556e-18
2.51617e-18
1.51451e-18
2.22562e-18
1.83049e-18
1.90217e-18
2.10192e-18
1.5522e-18
2.328e-18
1.18168e-18
2.50851e-18
7.96153e-19
2.64355e-18
4.00811e-19
2.73336e-18
2.77819e-18
5.22115e-10
-3.04682e-09
8.08664e-10
-3.66984e-09
1.07196e-09
-4.53381e-09
1.23989e-09
-5.06978e-09
1.4139e-09
-5.24426e-09
1.61123e-09
-5.24517e-09
1.78597e-09
-5.05103e-09
2.01057e-09
-4.59957e-09
1.98388e-09