/*--------------------------------*- C++ -*----------------------------------*\
  =========                 |
  \\      /  F ield         | OpenFOAM: The Open Source CFD Toolbox
   \\    /   O peration     | Website:  https://openfoam.org
    \\  /    A nd           | Version:  6
     \\/     M anipulation  |
\*---------------------------------------------------------------------------*/
FoamFile
{
    version     2.0;
    format      ascii;
    class       volScalarField;
    location    "4700";
    object      T;
}
// * * * * * * * * * * * * * * * * * * * * * * * * * * * * * * * * * * * * * //

dimensions      [0 0 0 1 0 0 0];

internalField   nonuniform List<scalar> 
4800
(
552.502
552.409
552.318
552.231
552.149
552.072
552.001
551.934
551.871
551.811
551.753
551.698
551.644
551.594
551.545
551.499
551.455
551.413
551.373
551.335
551.297
551.261
551.226
551.191
551.158
551.126
551.094
551.064
551.034
551.005
550.977
550.95
550.923
550.897
550.872
550.847
550.822
550.798
550.775
550.752
550.73
550.708
550.687
550.665
550.644
550.623
550.603
550.583
550.562
550.542
550.522
550.502
550.482
550.461
550.44
550.418
550.396
550.372
550.348
550.323
550.297
550.269
550.241
550.21
550.178
550.144
550.108
550.07
550.028
549.982
549.931
549.874
549.807
549.729
549.635
549.521
549.38
549.207
548.995
548.74
548.441
548.104
547.74
547.357
546.968
546.594
546.252
545.962
545.707
545.474
545.254
545.042
544.836
544.636
544.442
544.252
544.068
543.888
543.713
543.541
543.374
543.21
543.05
542.893
542.738
542.586
542.437
542.289
542.144
542
541.857
541.716
541.576
541.438
541.3
541.162
541.026
540.889
540.754
540.618
552.502
552.408
552.317
552.23
552.147
552.068
551.994
551.925
551.859
551.797
551.738
551.682
551.628
551.577
551.528
551.481
551.436
551.394
551.354
551.315
551.278
551.242
551.208
551.174
551.141
551.109
551.078
551.048
551.019
550.99
550.963
550.936
550.91
550.884
550.859
550.834
550.81
550.786
550.763
550.741
550.719
550.697
550.676
550.655
550.634
550.613
550.593
550.573
550.553
550.533
550.513
550.493
550.472
550.451
550.43
550.408
550.386
550.362
550.338
550.313
550.286
550.258
550.229
550.198
550.166
550.131
550.095
550.056
550.013
549.967
549.916
549.858
549.792
549.714
549.62
549.506
549.367
549.197
548.99
548.742
548.453
548.125
547.759
547.366
546.963
546.565
546.203
545.925
545.686
545.463
545.248
545.038
544.833
544.634
544.439
544.25
544.066
543.886
543.711
543.539
543.372
543.209
543.048
542.891
542.737
542.585
542.436
542.288
542.143
541.999
541.857
541.716
541.576
541.437
541.299
541.162
541.025
540.889
540.753
540.618
552.502
552.406
552.314
552.224
552.138
552.057
551.979
551.904
551.835
551.769
551.708
551.649
551.593
551.541
551.491
551.443
551.398
551.356
551.316
551.278
551.241
551.206
551.172
551.139
551.108
551.076
551.046
551.017
550.988
550.96
550.933
550.907
550.882
550.857
550.832
550.808
550.785
550.762
550.739
550.717
550.695
550.674
550.653
550.633
550.612
550.592
550.572
550.553
550.533
550.513
550.493
550.473
550.452
550.432
550.41
550.388
550.365
550.341
550.316
550.29
550.263
550.235
550.205
550.173
550.14
550.104
550.067
550.027
549.984
549.937
549.886
549.827
549.761
549.682
549.589
549.477
549.339
549.173
548.972
548.733
548.452
548.129
547.766
547.372
546.949
546.504
546.071
545.852
545.651
545.446
545.238
545.031
544.828
544.629
544.435
544.245
544.061
543.882
543.707
543.536
543.369
543.206
543.046
542.889
542.735
542.583
542.434
542.287
542.141
541.998
541.855
541.715
541.575
541.436
541.299
541.162
541.025
540.889
540.753
540.618
552.5
552.402
552.306
552.213
552.122
552.034
551.951
551.872
551.796
551.726
551.66
551.599
551.541
551.486
551.435
551.387
551.342
551.3
551.26
551.222
551.187
551.153
551.12
551.088
551.058
551.028
550.999
550.97
550.943
550.916
550.89
550.865
550.84
550.816
550.792
550.769
550.747
550.724
550.702
550.681
550.66
550.64
550.62
550.6
550.58
550.561
550.541
550.522
550.502
550.483
550.463
550.443
550.423
550.402
550.38
550.357
550.334
550.309
550.284
550.257
550.229
550.199
550.168
550.135
550.1
550.064
550.025
549.984
549.94
549.892
549.839
549.78
549.713
549.635
549.542
549.431
549.296
549.133
548.937
548.704
548.43
548.112
547.754
547.355
546.913
546.407
545.727
545.76
545.62
545.432
545.229
545.023
544.82
544.621
544.427
544.238
544.054
543.875
543.701
543.53
543.364
543.201
543.041
542.885
542.731
542.58
542.431
542.284
542.139
541.995
541.854
541.713
541.574
541.435
541.298
541.161
541.024
540.889
540.753
540.618
552.498
552.395
552.293
552.194
552.097
552.001
551.91
551.823
551.742
551.666
551.596
551.532
551.471
551.414
551.363
551.314
551.27
551.228
551.189
551.152
551.118
551.085
551.053
551.023
550.994
550.965
550.938
550.911
550.884
550.859
550.834
550.81
550.786
550.763
550.741
550.719
550.697
550.676
550.655
550.634
550.615
550.595
550.576
550.556
550.537
550.519
550.5
550.481
550.462
550.443
550.423
550.403
550.383
550.361
550.339
550.316
550.292
550.266
550.239
550.211
550.182
550.151
550.118
550.083
550.047
550.009
549.969
549.926
549.88
549.831
549.777
549.717
549.649
549.571
549.479
549.369
549.236
549.077
548.886
548.659
548.393
548.086
547.739
547.354
546.934
546.489
546.061
545.842
545.641
545.434
545.224
545.016
544.812
544.612
544.418
544.229
544.045
543.867
543.693
543.523
543.357
543.194
543.035
542.879
542.726
542.575
542.427
542.28
542.136
541.993
541.851
541.711
541.572
541.434
541.296
541.16
541.024
540.888
540.753
540.618
552.494
552.384
552.274
552.166
552.059
551.955
551.856
551.762
551.674
551.593
551.518
551.45
551.388
551.329
551.277
551.228
551.184
551.143
551.105
551.07
551.037
551.005
550.975
550.947
550.919
550.892
550.866
550.84
550.815
550.791
550.768
550.745
550.722
550.701
550.679
550.658
550.638
550.617
550.598
550.578
550.559
550.541
550.522
550.504
550.486
550.467
550.449
550.431
550.412
550.393
550.374
550.354
550.333
550.312
550.289
550.265
550.24
550.213
550.185
550.155
550.124
550.091
550.056
550.019
549.981
549.941
549.899
549.854
549.806
549.756
549.7
549.639
549.57
549.491
549.399
549.29
549.16
549.003
548.817
548.596
548.337
548.038
547.701
547.33
546.937
546.544
546.187
545.909
545.667
545.439
545.22
545.007
544.8
544.6
544.406
544.217
544.034
543.856
543.683
543.513
543.348
543.187
543.028
542.873
542.72
542.57
542.422
542.276
542.132
541.989
541.848
541.708
541.569
541.432
541.295
541.158
541.023
540.887
540.752
540.617
552.49
552.369
552.249
552.129
552.012
551.897
551.788
551.686
551.591
551.505
551.427
551.357
551.292
551.233
551.18
551.132
551.088
551.049
551.012
550.979
550.947
550.917
550.889
550.862
550.836
550.81
550.786
550.762
550.738
550.715
550.693
550.671
550.65
550.629
550.609
550.589
550.57
550.551
550.532
550.514
550.496
550.478
550.46
550.443
550.425
550.408
550.39
550.373
550.355
550.336
550.317
550.296
550.275
550.253
550.23
550.205
550.178
550.15
550.12
550.088
550.055
550.02
549.983
549.944
549.903
549.861
549.816
549.769
549.719
549.667
549.609
549.546
549.476
549.396
549.304
549.196
549.069
548.916
548.735
548.52
548.268
547.98
547.656
547.304
546.937
546.572
546.235
545.942
545.68
545.439
545.212
544.994
544.785
544.584
544.39
544.202
544.02
543.843
543.67
543.502
543.338
543.177
543.02
542.865
542.713
542.564
542.416
542.271
542.127
541.985
541.844
541.705
541.567
541.429
541.293
541.157
541.021
540.886
540.752
540.617
552.484
552.351
552.217
552.083
551.953
551.827
551.708
551.598
551.498
551.408
551.326
551.254
551.188
551.129
551.076
551.028
550.986
550.947
550.913
550.881
550.851
550.823
550.796
550.771
550.746
550.722
550.699
550.676
550.654
550.633
550.612
550.591
550.571
550.551
550.532
550.514
550.495
550.477
550.459
550.442
550.425
550.408
550.391
550.374
550.358
550.341
550.324
550.307
550.289
550.271
550.251
550.231
550.209
550.186
550.162
550.135
550.108
550.078
550.046
550.012
549.976
549.939
549.9
549.858
549.814
549.769
549.722
549.672
549.62
549.565
549.505
549.44
549.368
549.286
549.194
549.086
548.959
548.809
548.633
548.425
548.183
547.908
547.599
547.265
546.916
546.568
546.24
545.944
545.675
545.427
545.195
544.975
544.766
544.565
544.371
544.184
544.003
543.827
543.656
543.489
543.326
543.166
543.01
542.856
542.705
542.556
542.41
542.265
542.122
541.98
541.84
541.701
541.564
541.427
541.29
541.155
541.02
540.885
540.751
540.617
552.476
552.328
552.177
552.029
551.885
551.747
551.62
551.503
551.398
551.303
551.219
551.145
551.079
551.02
550.966
550.919
550.878
550.842
550.809
550.778
550.75
550.724
550.699
550.675
550.652
550.63
550.608
550.586
550.565
550.545
550.525
550.506
550.487
550.468
550.45
550.432
550.414
550.397
550.38
550.364
550.347
550.331
550.315
550.299
550.283
550.267
550.251
550.234
550.217
550.198
550.179
550.157
550.135
550.111
550.085
550.058
550.028
549.997
549.963
549.927
549.888
549.849
549.806
549.762
549.715
549.667
549.617
549.565
549.51
549.452
549.39
549.323
549.249
549.165
549.072
548.964
548.839
548.691
548.518
548.315
548.081
547.817
547.522
547.203
546.87
546.536
546.216
545.922
545.652
545.402
545.169
544.949
544.74
544.54
544.348
544.163
543.983
543.809
543.639
543.474
543.312
543.153
542.998
542.846
542.696
542.548
542.402
542.258
542.116
541.975
541.836
541.697
541.56
541.424
541.288
541.153
541.018
540.884
540.75
540.617
552.467
552.299
552.132
551.967
551.808
551.659
551.522
551.399
551.29
551.193
551.106
551.032
550.966
550.907
550.855
550.809
550.769
550.734
550.702
550.674
550.647
550.623
550.6
550.577
550.556
550.534
550.514
550.493
550.473
550.454
550.435
550.416
550.398
550.38
550.363
550.346
550.329
550.312
550.296
550.28
550.264
550.249
550.233
550.218
550.202
550.187
550.171
550.155
550.137
550.118
550.098
550.077
550.053
550.028
550.001
549.972
549.941
549.907
549.871
549.832
549.791
549.748
549.703
549.656
549.606
549.555
549.503
549.448
549.39
549.329
549.265
549.195
549.118
549.033
548.939
548.831
548.707
548.564
548.395
548.197
547.969
547.711
547.428
547.122
546.802
546.48
546.166
545.877
545.611
545.364
545.133
544.915
544.709
544.511
544.321
544.138
543.961
543.788
543.62
543.457
543.296
543.139
542.985
542.834
542.685
542.538
542.394
542.251
542.109
541.969
541.83
541.693
541.556
541.42
541.285
541.151
541.017
540.883
540.75
540.617
552.456
552.268
552.081
551.899
551.726
551.565
551.42
551.291
551.179
551.08
550.993
550.917
550.852
550.794
550.743
550.698
550.66
550.626
550.596
550.569
550.544
550.521
550.499
550.478
550.458
550.438
550.418
550.398
550.379
550.36
550.341
550.324
550.306
550.289
550.272
550.255
550.239
550.222
550.207
550.191
550.176
550.16
550.145
550.13
550.115
550.1
550.085
550.068
550.051
550.032
550.011
549.988
549.964
549.938
549.909
549.878
549.845
549.809
549.771
549.73
549.686
549.641
549.593
549.542
549.49
549.436
549.38
549.323
549.263
549.199
549.132
549.059
548.979
548.892
548.795
548.686
548.561
548.419
548.253
548.061
547.839
547.59
547.316
547.022
546.715
546.402
546.094
545.812
545.552
545.311
545.086
544.873
544.671
544.477
544.29
544.11
543.935
543.765
543.6
543.438
543.279
543.124
542.971
542.822
542.674
542.528
542.384
542.242
542.102
541.963
541.825
541.688
541.552
541.417
541.282
541.148
541.015
540.882
540.749
540.616
552.445
552.235
552.029
551.829
551.642
551.47
551.316
551.182
551.066
550.967
550.88
550.804
550.739
550.682
550.632
550.589
550.553
550.52
550.491
550.466
550.442
550.421
550.4
550.38
550.36
550.341
550.322
550.302
550.283
550.265
550.246
550.229
550.211
550.194
550.178
550.161
550.145
550.129
550.113
550.098
550.082
550.067
550.052
550.037
550.023
550.008
549.992
549.976
549.958
549.938
549.916
549.893
549.867
549.839
549.809
549.776
549.74
549.702
549.662
549.618
549.572
549.525
549.474
549.42
549.365
549.309
549.25
549.189
549.127
549.062
548.992
548.917
548.835
548.746
548.647
548.536
548.411
548.268
548.104
547.915
547.699
547.454
547.186
546.901
546.603
546.299
545.998
545.726
545.477
545.246
545.029
544.823
544.627
544.438
544.256
544.079
543.907
543.74
543.577
543.417
543.261
543.107
542.956
542.808
542.662
542.517
542.375
542.234
542.094
541.956
541.819
541.682
541.547
541.413
541.279
541.146
541.013
540.88
540.748
540.616
552.434
552.202
551.975
551.759
551.557
551.374
551.213
551.074
550.955
550.855
550.769
550.693
550.628
550.573
550.525
550.483
550.448
550.417
550.389
550.365
550.342
550.322
550.302
550.283
550.264
550.245
550.226
550.206
550.187
550.169
550.15
550.133
550.115
550.098
550.081
550.064
550.048
550.032
550.016
550
549.985
549.969
549.954
549.939
549.924
549.909
549.893
549.877
549.858
549.838
549.815
549.79
549.763
549.733
549.701
549.666
549.629
549.588
549.546
549.5
549.451
549.401
549.348
549.292
549.235
549.176
549.114
549.05
548.985
548.917
548.846
548.769
548.685
548.593
548.492
548.38
548.253
548.11
547.947
547.76
547.547
547.305
547.039
546.757
546.464
546.167
545.876
545.617
545.384
545.167
544.963
544.767
544.578
544.395
544.218
544.045
543.877
543.713
543.552
543.395
543.241
543.089
542.94
542.793
542.649
542.506
542.364
542.224
542.086
541.948
541.812
541.677
541.542
541.409
541.276
541.143
541.011
540.879
540.747
540.616
552.422
552.168
551.921
551.688
551.473
551.28
551.113
550.969
550.848
550.746
550.661
550.586
550.523
550.468
550.421
550.381
550.347
550.317
550.291
550.267
550.246
550.225
550.206
550.187
550.169
550.15
550.131
550.111
550.092
550.072
550.054
550.035
550.017
549.999
549.982
549.965
549.948
549.932
549.915
549.899
549.883
549.867
549.851
549.836
549.821
549.805
549.789
549.772
549.752
549.73
549.705
549.68
549.652
549.62
549.585
549.549
549.51
549.468
549.423
549.375
549.324
549.27
549.214
549.157
549.098
549.036
548.972
548.906
548.837
548.767
548.694
548.615
548.529
548.437
548.335
548.22
548.092
547.948
547.784
547.596
547.385
547.144
546.875
546.588
546.292
546
545.721
545.484
545.273
545.077
544.888
544.705
544.525
544.349
544.177
544.009
543.845
543.684
543.526
543.372
543.22
543.07
542.923
542.778
542.635
542.493
542.353
542.214
542.077
541.941
541.805
541.671
541.537
541.404
541.272
541.14
541.009
540.877
540.746
540.615
552.41
552.134
551.869
551.62
551.394
551.192
551.017
550.869
550.745
550.643
550.558
550.485
550.422
550.369
550.323
550.285
550.251
550.222
550.197
550.174
550.153
550.133
550.113
550.094
550.076
550.057
550.037
550.017
549.997
549.976
549.957
549.937
549.918
549.899
549.881
549.863
549.846
549.829
549.812
549.795
549.778
549.761
549.745
549.728
549.712
549.696
549.679
549.661
549.64
549.616
549.59
549.563
549.533
549.5
549.463
549.424
549.383
549.339
549.292
549.242
549.189
549.134
549.076
549.016
548.955
548.892
548.826
548.757
548.686
548.613
548.538
548.457
548.371
548.277
548.175
548.059
547.93
547.783
547.617
547.427
547.21
546.964
546.688
546.387
546.079
545.786
545.53
545.326
545.148
544.978
544.809
544.639
544.469
544.301
544.135
543.971
543.811
543.654
543.499
543.347
543.198
543.051
542.905
542.762
542.62
542.48
542.342
542.204
542.068
541.933
541.798
541.665
541.532
541.4
541.268
541.137
541.006
540.876
540.745
540.615
552.401
552.107
551.825
551.562
551.324
551.114
550.933
550.779
550.652
550.547
550.462
550.39
550.328
550.276
550.231
550.194
550.161
550.132
550.107
550.085
550.064
550.044
550.024
550.004
549.985
549.965
549.945
549.924
549.903
549.881
549.86
549.839
549.818
549.798
549.778
549.759
549.74
549.722
549.704
549.687
549.669
549.651
549.634
549.617
549.599
549.582
549.564
549.544
549.522
549.497
549.47
549.44
549.408
549.373
549.335
549.294
549.25
549.204
549.155
549.104
549.049
548.992
548.932
548.87
548.807
548.743
548.676
548.606
548.533
548.457
548.379
548.297
548.21
548.116
548.013
547.897
547.766
547.619
547.45
547.256
547.034
546.779
546.488
546.163
545.824
545.516
545.304
545.151
545.015
544.876
544.728
544.573
544.413
544.252
544.092
543.933
543.777
543.623
543.471
543.322
543.175
543.03
542.887
542.746
542.606
542.467
542.33
542.194
542.059
541.924
541.791
541.658
541.527
541.395
541.264
541.134
541.004
540.874
540.744
540.615
552.393
552.084
551.787
551.512
551.263
551.043
550.855
550.696
550.564
550.458
550.372
550.301
550.241
550.19
550.147
550.11
550.078
550.049
550.024
550.001
549.98
549.959
549.938
549.918
549.897
549.876
549.854
549.832
549.81
549.786
549.763
549.74
549.718
549.696
549.674
549.653
549.633
549.613
549.594
549.575
549.556
549.538
549.519
549.501
549.482
549.464
549.444
549.423
549.4
549.374
549.345
549.313
549.279
549.241
549.201
549.158
549.112
549.064
549.014
548.961
548.905
548.846
548.784
548.721
548.656
548.591
548.523
548.452
548.378
548.3
548.22
548.137
548.049
547.955
547.851
547.735
547.604
547.455
547.286
547.091
546.865
546.602
546.292
545.93
545.53
545.161
545.056
544.98
544.891
544.781
544.652
544.509
544.358
544.203
544.048
543.894
543.742
543.591
543.443
543.296
543.152
543.009
542.868
542.729
542.59
542.453
542.318
542.183
542.049
541.916
541.784
541.652
541.521
541.391
541.261
541.131
541.001
540.872
540.743
540.614
552.386
552.063
551.757
551.472
551.213
550.986
550.79
550.626
550.491
550.381
550.293
550.221
550.162
550.112
550.07
550.033
550.001
549.973
549.948
549.924
549.901
549.879
549.857
549.835
549.812
549.789
549.766
549.741
549.717
549.692
549.666
549.641
549.616
549.592
549.568
549.545
549.523
549.501
549.481
549.46
549.44
549.42
549.401
549.381
549.361
549.341
549.32
549.298
549.273
549.245
549.215
549.181
549.145
549.106
549.063
549.018
548.97
548.921
548.869
548.814
548.756
548.696
548.634
548.569
548.504
548.437
548.368
548.297
548.222
548.144
548.062
547.978
547.889
547.795
547.691
547.575
547.445
547.296
547.125
546.931
546.706
546.444
546.133
545.749
545.243
544.586
544.834
544.854
544.799
544.706
544.587
544.451
544.306
544.156
544.005
543.855
543.706
543.559
543.414
543.27
543.128
542.988
542.849
542.711
542.575
542.44
542.305
542.172
542.039
541.907
541.776
541.646
541.515
541.386
541.257
541.128
540.999
540.871
540.742
540.614
552.385
552.058
551.742
551.446
551.178
550.941
550.738
550.567
550.426
550.313
550.223
550.151
550.092
550.042
550
549.964
549.932
549.904
549.877
549.853
549.829
549.805
549.781
549.756
549.731
549.706
549.679
549.653
549.625
549.598
549.57
549.542
549.514
549.487
549.461
549.435
549.411
549.387
549.365
549.343
549.321
549.3
549.279
549.258
549.237
549.216
549.193
549.169
549.143
549.114
549.082
549.046
549.008
548.967
548.923
548.876
548.826
548.775
548.721
548.665
548.607
548.545
548.482
548.417
548.35
548.282
548.213
548.142
548.067
547.988
547.906
547.821
547.732
547.637
547.534
547.419
547.291
547.145
546.979
546.788
546.57
546.319
546.031
545.697
545.331
544.981
544.897
544.834
544.756
544.655
544.534
544.4
544.257
544.111
543.963
543.816
543.671
543.527
543.384
543.244
543.104
542.966
542.829
542.694
542.559
542.426
542.293
542.161
542.029
541.899
541.769
541.639
541.51
541.381
541.253
541.125
540.997
540.869
540.741
540.614
552.385
552.057
551.736
551.433
551.156
550.91
550.698
550.52
550.374
550.256
550.163
550.09
550.03
549.981
549.939
549.904
549.872
549.842
549.815
549.788
549.762
549.736
549.709
549.682
549.654
549.625
549.596
549.566
549.535
549.504
549.473
549.442
549.412
549.381
549.352
549.324
549.297
549.271
549.247
549.223
549.2
549.178
549.156
549.133
549.111
549.089
549.065
549.039
549.011
548.98
548.947
548.91
548.87
548.827
548.781
548.733
548.681
548.628
548.573
548.516
548.457
548.395
548.331
548.265
548.198
548.13
548.06
547.988
547.913
547.835
547.753
547.667
547.577
547.483
547.382
547.269
547.145
547.004
546.845
546.663
546.457
546.225
545.968
545.688
545.402
545.138
544.973
544.852
544.739
544.62
544.491
544.353
544.211
544.066
543.922
543.778
543.635
543.494
543.355
543.217
543.08
542.945
542.81
542.676
542.544
542.412
542.28
542.15
542.02
541.89
541.761
541.633
541.504
541.376
541.249
541.121
540.994
540.867
540.74
540.613
552.386
552.059
551.739
551.433
551.149
550.895
550.674
550.488
550.335
550.212
550.115
550.039
549.978
549.928
549.887
549.851
549.818
549.788
549.759
549.73
549.702
549.673
549.643
549.612
549.581
549.548
549.515
549.481
549.447
549.412
549.378
549.343
549.309
549.275
549.243
549.212
549.182
549.154
549.128
549.102
549.078
549.054
549.031
549.008
548.985
548.961
548.935
548.908
548.879
548.847
548.812
548.773
548.731
548.686
548.639
548.59
548.537
548.483
548.427
548.368
548.309
548.246
548.182
548.116
548.048
547.979
547.909
547.837
547.763
547.685
547.603
547.517
547.427
547.333
547.234
547.126
547.006
546.873
546.724
546.554
546.364
546.153
545.924
545.682
545.437
545.207
545.02
544.866
544.727
544.59
544.451
544.309
544.166
544.023
543.881
543.74
543.6
543.462
543.326
543.19
543.056
542.923
542.791
542.659
542.528
542.398
542.268
542.139
542.01
541.882
541.754
541.626
541.499
541.372
541.245
541.118
540.992
540.866
540.739
540.613
552.388
552.066
551.75
551.444
551.156
550.893
550.663
550.469
550.31
550.182
550.081
550.001
549.938
549.887
549.844
549.807
549.773
549.742
549.711
549.679
549.648
549.615
549.582
549.548
549.512
549.476
549.438
549.4
549.361
549.323
549.284
549.245
549.207
549.169
549.133
549.099
549.067
549.037
549.008
548.982
548.956
548.931
548.907
548.883
548.859
548.834
548.807
548.779
548.749
548.715
548.678
548.638
548.595
548.549
548.5
548.45
548.396
548.341
548.284
548.225
548.165
548.103
548.038
547.971
547.903
547.833
547.762
547.69
547.615
547.538
547.457
547.371
547.282
547.189
547.093
546.99
546.877
546.754
546.616
546.462
546.289
546.099
545.893
545.675
545.448
545.23
545.035
544.864
544.706
544.556
544.41
544.265
544.121
543.979
543.839
543.701
543.565
543.43
543.296
543.164
543.032
542.902
542.772
542.642
542.513
542.384
542.256
542.128
542.001
541.874
541.747
541.62
541.494
541.367
541.241
541.115
540.99
540.864
540.738
540.613
552.391
552.073
551.759
551.453
551.165
550.9
550.665
550.465
550.3
550.167
550.061
549.977
549.91
549.856
549.811
549.772
549.737
549.703
549.67
549.636
549.601
549.565
549.527
549.488
549.448
549.407
549.365
549.322
549.279
549.236
549.193
549.15
549.107
549.065
549.025
548.988
548.953
548.921
548.89
548.862
548.835
548.81
548.785
548.76
548.735
548.709
548.681
548.652
548.621
548.587
548.549
548.507
548.463
548.415
548.365
548.314
548.261
548.206
548.148
548.088
548.028
547.966
547.901
547.833
547.764
547.692
547.62
547.547
547.472
547.394
547.314
547.23
547.143
547.054
546.962
546.867
546.764
546.651
546.526
546.386
546.23
546.058
545.868
545.662
545.443
545.226
545.025
544.842
544.674
544.516
544.364
544.217
544.074
543.934
543.797
543.662
543.529
543.398
543.267
543.138
543.009
542.881
542.753
542.625
542.498
542.371
542.245
542.118
541.992
541.866
541.74
541.614
541.489
541.363
541.238
541.113
540.987
540.862
540.737
540.612
552.391
552.074
551.763
551.463
551.18
550.916
550.679
550.473
550.303
550.165
550.055
549.967
549.897
549.839
549.791
549.749
549.711
549.674
549.637
549.6
549.561
549.521
549.479
549.436
549.391
549.345
549.298
549.25
549.201
549.153
549.106
549.058
549.011
548.964
548.921
548.88
548.842
548.808
548.776
548.746
548.719
548.693
548.667
548.642
548.616
548.589
548.559
548.529
548.498
548.463
548.425
548.383
548.337
548.289
548.239
548.188
548.134
548.079
548.022
547.962
547.9
547.838
547.775
547.706
547.633
547.559
547.484
547.408
547.333
547.254
547.175
547.095
547.013
546.931
546.847
546.762
546.672
546.573
546.461
546.333
546.188
546.027
545.846
545.647
545.428
545.202
544.991
544.801
544.627
544.465
544.312
544.166
544.025
543.888
543.754
543.623
543.494
543.366
543.239
543.112
542.986
542.86
542.735
542.609
542.484
542.359
542.234
542.108
541.983
541.858
541.733
541.609
541.484
541.359
541.234
541.11
540.985
540.861
540.737
540.612
552.388
552.069
551.759
551.464
551.187
550.93
550.696
550.492
550.318
550.176
550.062
549.971
549.897
549.836
549.785
549.739
549.697
549.655
549.614
549.573
549.53
549.486
549.439
549.39
549.34
549.288
549.236
549.183
549.13
549.077
549.025
548.973
548.92
548.869
548.822
548.778
548.738
548.7
548.667
548.637
548.609
548.583
548.557
548.53
548.503
548.475
548.444
548.413
548.381
548.348
548.311
548.269
548.222
548.175
548.125
548.075
548.022
547.967
547.909
547.85
547.788
547.726
547.662
547.594
547.517
547.437
547.358
547.277
547.198
547.119
547.044
546.969
546.897
546.827
546.755
546.683
546.608
546.531
546.428
546.307
546.173
546.019
545.838
545.645
545.416
545.161
544.935
544.743
544.567
544.405
544.254
544.11
543.973
543.84
543.71
543.583
543.458
543.334
543.21
543.087
542.964
542.841
542.718
542.594
542.471
542.347
542.223
542.099
541.975
541.851
541.727
541.603
541.479
541.355
541.231
541.107
540.984
540.86
540.736
540.612
552.383
552.057
551.746
551.456
551.189
550.944
550.718
550.517
550.344
550.201
550.084
549.989
549.911
549.847
549.792
549.742
549.696
549.65
549.606
549.56
549.513
549.464
549.411
549.355
549.297
549.239
549.181
549.124
549.066
549.008
548.951
548.896
548.84
548.786
548.736
548.689
548.644
548.604
548.569
548.539
548.512
548.486
548.458
548.43
548.4
548.371
548.34
548.308
548.277
548.247
548.216
548.174
548.127
548.08
548.032
547.983
547.931
547.876
547.817
547.76
547.7
547.636
547.57
547.5
547.418
547.333
547.245
547.148
547.055
546.984
546.923
546.856
546.788
546.752
546.686
546.617
546.55
546.515
546.381
546.265
546.19
546.053
545.848
545.656
545.419
545.037
544.844
544.669
544.491
544.334
544.188
544.049
543.917
543.79
543.666
543.544
543.423
543.303
543.183
543.063
542.943
542.823
542.702
542.58
542.458
542.336
542.214
542.091
541.968
541.845
541.722
541.599
541.475
541.352
541.229
541.105
540.982
540.858
540.735
540.612
552.379
552.044
551.728
551.44
551.181
550.948
550.736
550.543
550.376
550.235
550.117
550.02
549.94
549.873
549.815
549.762
549.711
549.662
549.616
549.569
549.519
549.465
549.405
549.34
549.272
549.205
549.142
549.08
549.017
548.953
548.891
548.836
548.782
548.728
548.675
548.623
548.57
548.523
548.489
548.463
548.438
548.41
548.378
548.344
548.312
548.285
548.257
548.226
548.195
548.171
548.143
548.102
548.053
548.005
547.96
547.915
547.867
547.812
547.755
547.698
547.644
547.571
547.493
547.417
547.349
547.282
547.176
547.042
546.9
546.858
546.855
546.721
546.616
546.628
546.629
546.565
546.482
546.498
546.388
546.27
546.16
546.018
545.838
545.664
545.45
544.99
544.793
544.554
544.394
544.253
544.116
543.984
543.858
543.738
543.62
543.504
543.388
543.273
543.157
543.04
542.923
542.806
542.687
542.567
542.447
542.326
542.205
542.084
541.962
541.84
541.717
541.595
541.472
541.349
541.226
541.103
540.98
540.857
540.734
540.611
552.376
552.034
551.712
551.421
551.164
550.942
550.746
550.568
550.409
550.273
550.159
550.063
549.986
549.919
549.858
549.799
549.745
549.695
549.656
549.611
549.562
549.507
549.438
549.358
549.276
549.201
549.135
549.067
548.995
548.924
548.86
548.811
548.765
548.714
548.655
548.586
548.51
548.456
548.438
548.422
548.393
548.353
548.309
548.267
548.241
548.229
548.211
548.18
548.148
548.119
548.06
547.994
547.936
547.883
547.84
547.806
547.783
547.746
547.71
547.659
547.572
547.491
547.452
547.426
547.384
547.343
547.157
546.967
546.841
546.839
546.836
546.746
546.65
546.622
546.588
546.544
546.483
546.46
546.371
546.255
546.12
545.961
545.783
545.613
545.394
544.889
544.719
544.54
544.293
544.162
544.039
543.913
543.796
543.684
543.574
543.464
543.354
543.244
543.132
543.02
542.906
542.79
542.674
542.556
542.437
542.318
542.198
542.077
541.956
541.835
541.713
541.591
541.469
541.346
541.224
541.102
540.979
540.857
540.734
540.611
552.373
552.026
551.699
551.403
551.144
550.924
550.74
550.58
550.436
550.311
550.206
550.122
550.061
549.997
549.929
549.86
549.8
549.757
549.746
549.691
549.648
549.595
549.513
549.412
549.31
549.233
549.177
549.103
549.004
548.927
548.866
548.839
548.806
548.758
548.678
548.585
548.474
548.406
548.418
548.416
548.367
548.272
548.204
548.168
548.193
548.222
548.195
548.152
548.131
548.081
547.91
547.76
547.711
547.665
547.693
547.704
547.751
547.728
547.638
547.561
547.434
547.399
547.367
547.346
547.293
547.261
547.144
547.022
546.91
546.847
546.795
546.728
546.657
546.604
546.554
546.509
546.458
546.402
546.307
546.182
546.045
545.865
545.643
545.262
545.017
544.818
544.633
544.527
544.311
544.101
543.948
543.835
543.73
543.63
543.529
543.426
543.322
543.217
543.11
543.001
542.89
542.777
542.663
542.547
542.429
542.311
542.192
542.072
541.952
541.831
541.709
541.588
541.466
541.344
541.222
541.1
540.978
540.856
540.733
540.611
552.372
552.025
551.699
551.401
551.135
550.916
550.739
550.597
550.471
550.359
550.266
550.204
550.172
550.113
550.028
549.946
549.872
549.836
549.899
549.753
549.691
549.667
549.57
549.487
549.389
549.311
549.255
549.203
549.116
549.034
548.965
548.917
548.885
548.866
548.814
548.678
548.53
548.426
548.476
548.528
548.435
548.223
548.098
548.051
548.132
548.209
548.199
548.178
548.108
548.03
547.902
547.755
547.677
547.592
547.619
547.604
547.618
547.617
547.576
547.535
547.447
547.403
547.346
547.289
547.228
547.18
547.103
547.022
546.93
546.843
546.764
546.696
546.633
546.576
546.521
546.471
546.415
546.347
546.228
546.096
545.981
545.76
545.474
545.1
544.835
544.658
544.494
544.428
544.226
543.971
543.89
543.752
543.661
543.577
543.487
543.391
543.292
543.193
543.091
542.986
542.878
542.767
542.654
542.539
542.423
542.305
542.187
542.068
541.948
541.828
541.707
541.586
541.464
541.343
541.221
541.099
540.977
540.855
540.733
540.611
552.375
552.039
551.723
551.424
551.145
550.929
550.74
550.617
550.518
550.42
550.336
550.294
550.247
550.179
550.084
549.997
549.952
549.942
550.051
549.874
549.789
549.681
549.564
549.467
549.364
549.304
549.26
549.22
549.116
549.04
549.018
548.968
548.931
548.903
548.819
548.729
548.548
548.395
548.376
548.405
548.347
548.255
548.165
548.134
548.086
548.113
548.078
548.098
548.058
548.012
547.95
547.868
547.777
547.672
547.629
547.585
547.564
547.548
547.516
547.483
547.433
547.387
547.323
547.26
547.201
547.143
547.079
547.008
546.928
546.844
546.761
546.691
546.629
546.564
546.495
546.432
546.376
546.312
546.151
545.938
545.771
545.572
545.314
545.016
544.743
544.535
544.375
544.256
544.108
543.93
543.786
543.694
543.598
543.53
543.453
543.359
543.265
543.173
543.076
542.974
542.868
542.759
542.648
542.534
542.418
542.302
542.184
542.065
541.946
541.826
541.705
541.584
541.463
541.342
541.22