0 	100003
0.010101 	100002
0.020202 	100002
0.030303 	100004
0.040404 	100001
0.0505051 	100000
