0 	0.000782357 	0 	0.00225659
0.010101 	0.0122733 	-3.99819e-06 	0.0116362
0.020202 	0.0153377 	1.26183e-06 	0.00297897
0.030303 	-0.000223845 	-2.66375e-13 	-3.56397e-05
0.040404 	4.94092e-11 	2.5919e-15 	1.59582e-11
0.0505051 	7.65209e-12 	2.60848e-16 	7.32298e-12
