/*--------------------------------*- C++ -*----------------------------------*\
  =========                 |
  \\      /  F ield         | OpenFOAM: The Open Source CFD Toolbox
   \\    /   O peration     | Website:  https://openfoam.org
    \\  /    A nd           | Version:  6
     \\/     M anipulation  |
\*---------------------------------------------------------------------------*/
FoamFile
{
    version     2.0;
    format      ascii;
    class       surfaceScalarField;
    location    "2600";
    object      phi;
}
// * * * * * * * * * * * * * * * * * * * * * * * * * * * * * * * * * * * * * //

dimensions      [0 3 -1 0 0 0 0];

internalField   nonuniform List<scalar> 
9440
(
8.02673e-11
-8.02673e-11
1.00746e-12
7.92601e-11
-2.10619e-10
2.11627e-10
-4.98521e-10
2.87902e-10
-1.03857e-09
5.40047e-10
-1.68752e-09
6.48948e-10
-1.89801e-09
2.10496e-10
-2.16575e-09
2.67743e-10
-2.27002e-09
1.04264e-10
-2.45277e-09
1.8275e-10
-2.57177e-09
1.19006e-10
-2.69374e-09
1.21973e-10
-2.71004e-09
1.63002e-11
-2.7067e-09
-3.34325e-12
-2.62031e-09
-8.63874e-11
-2.57569e-09
-4.46191e-11
-2.36515e-09
-2.10544e-10
-2.20367e-09
-1.61478e-10
-2.3027e-09
9.90262e-11
-1.75347e-09
-5.49225e-10
-1.34446e-09
-4.09011e-10
-1.06872e-09
-2.75741e-10
-7.19987e-10
-3.48728e-10
-4.09424e-10
-3.10562e-10
1.80811e-10
-5.90234e-10
5.58382e-10
-3.7757e-10
9.95738e-10
-4.37355e-10
1.40496e-09
-4.09222e-10
1.78984e-09
-3.84879e-10
1.94541e-09
-1.55571e-10
2.19892e-09
-2.53505e-10
2.30877e-09
-1.09849e-10
2.4265e-09
-1.17733e-10
2.62693e-09
-2.00435e-10
2.83585e-09
-2.08921e-10
3.10071e-09
-2.64857e-10
3.30235e-09
-2.01637e-10
3.40464e-09
-1.02288e-10
3.55751e-09
-1.5287e-10
3.58642e-09
-2.89139e-11
3.74155e-09
-1.55135e-10
3.86847e-09
-1.26914e-10
3.99315e-09
-1.24687e-10
4.00465e-09
-1.14935e-11
4.03993e-09
-3.52779e-11
4.13544e-09
-9.55168e-11
4.23663e-09
-1.01181e-10
4.31939e-09
-8.27672e-11
4.40142e-09
-8.20249e-11
4.42691e-09
-2.54943e-11
4.41594e-09
1.09742e-11
4.40276e-09
1.31805e-11
4.38358e-09
1.91767e-11
4.36396e-09
1.96239e-11
4.33479e-09
2.91679e-11
4.31206e-09
2.27321e-11
4.28258e-09
2.94832e-11
4.24528e-09
3.73008e-11
4.20166e-09
4.36187e-11
4.17259e-09
2.90692e-11
4.15571e-09
1.68751e-11
4.14729e-09
8.42431e-12
4.13872e-09
8.5713e-12
4.07807e-09
6.06451e-11
3.98457e-09
9.3504e-11
3.80824e-09
1.76332e-10
3.49005e-09
3.18188e-10
3.27974e-09
2.10314e-10
2.456e-09
8.23735e-10
1.57623e-09
8.79769e-10
6.66074e-10
9.1016e-10
-4.83739e-10
1.14981e-09
-1.26454e-09
7.80801e-10
-1.68779e-09
4.23253e-10
-1.76482e-09
7.70318e-11
-1.62535e-09
-1.39469e-10
-1.49762e-09
-1.2773e-10
-1.11695e-09
-3.80673e-10
-4.50431e-10
-6.66517e-10
2.21703e-15
-4.50434e-10
-6.02408e-18
6.69989e-19
-5.95056e-18
-7.35211e-20
-5.59775e-18
-3.5341e-19
-5.23314e-18
-3.64446e-19
-4.9036e-18
-3.29179e-19
-4.59299e-18
-3.105e-19
-4.27936e-18
-3.13816e-19
-3.94802e-18
-3.31699e-19
-3.59226e-18
-3.56194e-19
-3.21087e-18
-3.8181e-19
-2.80652e-18
-4.04727e-19
-2.38439e-18
-4.22463e-19
-1.95113e-18
-4.33518e-19
-1.5142e-18
-4.37129e-19
-1.08128e-18
-4.33089e-19
-6.59917e-19
-4.21604e-19
-2.57134e-19
-4.03176e-19
1.20796e-19
-3.78528e-19
4.68533e-19
-3.48541e-19
7.81757e-19
-3.14194e-19
1.05722e-18
-2.76506e-19
1.29274e-18
-2.3649e-19
1.48712e-18
-1.95127e-19
1.64004e-18
-1.53332e-19
1.75191e-18
-1.11919e-19
1.82374e-18
-7.15801e-20
1.85716e-18
-3.28796e-20
1.85424e-18
3.72651e-21
1.81743e-18
3.78764e-20
1.74943e-18
6.92961e-20
1.65309e-18
9.77996e-20
1.53136e-18
1.23288e-19
1.38725e-18
1.45743e-19
1.22382e-18
1.65204e-19
1.04413e-18
1.8175e-19
8.51179e-19
1.95475e-19
6.47824e-19
2.06476e-19
4.36736e-19
2.14863e-19
2.20262e-19
2.20833e-19
2.25015e-19
4.44802e-11
-1.24747e-10
-3.0177e-10
4.25511e-10
-9.18214e-10
8.28071e-10
-1.26282e-09
6.32509e-10
-1.36769e-09
6.44919e-10
-1.46947e-09
7.5073e-10
-1.93629e-09
6.77317e-10
-2.10664e-09
4.38094e-10
-2.4105e-09
4.08121e-10
-2.49705e-09
2.69305e-10
-2.67444e-09
2.96394e-10
-2.73836e-09
1.85891e-10
-2.77178e-09
4.97212e-11
-2.69861e-09
-7.65077e-11
-2.5823e-09
-2.02699e-10
-2.54949e-09
-7.74295e-11
-2.46319e-09
-2.96843e-10
-2.29957e-09
-3.25091e-10
-2.11417e-09
-8.6378e-11
-1.9137e-09
-7.49688e-10
-1.44748e-09
-8.75233e-10
-1.19854e-09
-5.24675e-10
-8.99159e-10
-6.48111e-10
-3.47241e-10
-8.62478e-10
-9.4625e-12
-9.28012e-10
3.54179e-10
-7.4121e-10
7.7484e-10
-8.58016e-10
1.17957e-09
-8.13951e-10
1.54379e-09
-7.49103e-10
1.7421e-09
-3.53875e-10
1.90444e-09
-4.15848e-10
2.02881e-09
-2.34217e-10
2.21471e-09
-3.03633e-10
2.36614e-09
-3.51857e-10
2.46573e-09
-3.0852e-10
2.60224e-09
-4.0136e-10
2.71476e-09
-3.14161e-10
2.89065e-09
-2.78175e-10
2.98532e-09
-2.47543e-10
3.01666e-09
-6.02495e-11
3.05629e-09
-1.94766e-10
3.21934e-09
-2.8996e-10
3.31918e-09
-2.24531e-10
3.40156e-09
-9.38664e-11
3.47009e-09
-1.03816e-10
3.47546e-09
-1.00878e-10
3.46738e-09
-9.31032e-11
3.4498e-09
-6.51894e-11
3.49556e-09
-1.27786e-10
3.52827e-09
-5.82047e-11
3.56714e-09
-2.7889e-11
3.6022e-09
-2.188e-11
3.61848e-09
2.89849e-12
3.63977e-09
-1.66436e-12
3.63779e-09
3.11457e-11
3.634e-09
2.65192e-11
3.62035e-09
4.31345e-11
3.60488e-09
5.27686e-11
3.59035e-09
5.81532e-11
3.58068e-09
3.87365e-11
3.57291e-09
2.46495e-11
3.60434e-09
-2.30136e-11
3.62272e-09
-9.80776e-12
3.60036e-09
8.30129e-11
3.58479e-09
1.09067e-10
3.42213e-09
3.38994e-10
3.28876e-09
4.51559e-10
2.77919e-09
7.19887e-10
2.45268e-09
1.15025e-09
2.37349e-09
9.58965e-10
1.97708e-09
1.30657e-09
1.80046e-09
1.32644e-09
1.33889e-09
1.24237e-09
6.86811e-10
1.07533e-09
2.50178e-11
7.38826e-10
-5.52786e-10
4.38335e-10
-5.90638e-10
-8.98776e-11
-3.3622e-10
-6.35089e-10
-2.04782e-11
-9.82257e-10
-2.55682e-16
-4.70905e-10
-6.78575e-18
1.68676e-18
-6.23526e-18
-6.21876e-19
-5.61253e-18
-9.75054e-19
-5.20055e-18
-7.7649e-19
-4.88655e-18
-6.43623e-19
-4.59693e-18
-6.00758e-19
-4.2972e-18
-6.14294e-19
-3.97252e-18
-6.57189e-19
-3.61788e-18
-7.11646e-19
-3.23378e-18
-7.66665e-19
-2.82426e-18
-8.14963e-19
-2.39544e-18
-8.51943e-19
-1.95474e-18
-8.74885e-19
-1.51016e-18
-8.82443e-19
-1.0698e-18
-8.74309e-19
-6.41489e-19
-8.50956e-19
-2.32485e-19
-8.13444e-19
1.50783e-19
-7.63266e-19
5.02879e-19
-7.02227e-19
8.19446e-19
-6.32327e-19
1.09724e-18
-5.55668e-19
1.3341e-18
-4.74364e-19
1.52891e-18
-3.90452e-19
1.68146e-18
-3.05805e-19
1.79224e-18
-2.22061e-19
1.86244e-18
-1.40608e-19
1.89376e-18
-6.25904e-20
1.88839e-18
1.10652e-20
1.84885e-18
7.96458e-20
1.77794e-18
1.42653e-19
1.67858e-18
1.99794e-19
1.55382e-18
2.50958e-19
1.40671e-18
2.9616e-19
1.24037e-18
3.35488e-19
1.05786e-18
3.69051e-19
8.6218e-19
3.96953e-19
6.5621e-19
4.19276e-19
4.42706e-19
4.36084e-19
2.24444e-19
4.47404e-19
4.53068e-19
-7.56118e-10
6.31372e-10
-1.03797e-09
7.07364e-10
-1.13175e-09
9.2185e-10
-1.47169e-09
9.72453e-10
-1.85149e-09
1.02472e-09
-1.79455e-09
6.93787e-10
-1.97533e-09
8.581e-10
-2.13143e-09
5.94193e-10
-2.34463e-09
6.21327e-10
-2.50717e-09
4.31843e-10
-2.63592e-09
4.25146e-10
-2.72274e-09
2.72714e-10
-2.74646e-09
7.3438e-11
-2.81174e-09
-1.12253e-11
-2.88783e-09
-1.26609e-10
-2.78464e-09
-1.8062e-10
-2.59391e-09
-4.87575e-10
-2.35061e-09
-5.68383e-10
-2.04559e-09
-3.91399e-10
-1.94986e-09
-8.45419e-10
-1.4804e-09
-1.34469e-09
-1.15592e-09
-8.49154e-10
-8.05527e-10
-9.985e-10
-5.32548e-10
-1.13546e-09
-3.49252e-10
-1.11131e-09
4.57321e-11
-1.13619e-09
3.75732e-10
-1.18801e-09
7.23003e-10
-1.16122e-09
9.36463e-10
-9.62563e-10
1.1717e-09
-5.89115e-10
1.35859e-09
-6.02737e-10
1.57254e-09
-4.48165e-10
1.68208e-09
-4.13173e-10
1.8982e-09
-5.67972e-10
2.1066e-09
-5.1692e-10
2.22547e-09
-5.20231e-10
2.36267e-09
-4.51361e-10
2.48544e-09
-4.00947e-10
2.54514e-09
-3.0724e-10
2.73979e-09
-2.54905e-10
2.80292e-09
-2.57889e-10
2.88232e-09
-3.69362e-10
3.01546e-09
-3.57675e-10
3.07214e-09
-1.50539e-10
3.10022e-09
-1.319e-10
3.10826e-09
-1.08918e-10
3.09266e-09
-7.75053e-11
3.09638e-09
-6.89041e-11
3.08048e-09
-1.11887e-10
3.08539e-09
-6.31139e-11
3.10305e-09
-4.55446e-11
3.12575e-09
-4.45875e-11
3.17575e-09
-4.71003e-11
3.22982e-09
-5.57347e-11
3.28772e-09
-2.67492e-11
3.31409e-09
1.48062e-13
3.32537e-09
3.18566e-11
3.32871e-09
4.9426e-11
3.33332e-09
5.35436e-11
3.35742e-09
1.46331e-11
3.32964e-09
5.24332e-11
3.31799e-09
-1.13643e-11
3.24108e-09
6.71021e-11
3.19794e-09
1.2616e-10
3.08443e-09
2.22571e-10
2.89652e-09
5.2691e-10
2.85082e-09
4.97259e-10
2.51544e-09
1.05527e-09
2.71212e-09
9.53568e-10
2.38403e-09
1.28705e-09
2.24909e-09
1.44151e-09
2.07162e-09
1.5039e-09
1.74516e-09
1.56884e-09
1.38037e-09
1.44011e-09
9.97403e-10
1.1218e-09
7.97648e-10
6.38091e-10
6.10868e-10
9.69024e-11
4.63526e-10
-4.87748e-10
4.37117e-10
-9.5585e-10
8.55147e-11
-1.19304e-10
-6.50969e-18
8.55149e-11
-6.58791e-18
-5.42981e-19
-5.41345e-18
-2.14865e-18
-5.06715e-18
-1.12262e-18
-4.84315e-18
-8.67934e-19
-4.60994e-18
-8.34614e-19
-4.33974e-18
-8.85342e-19
-4.02698e-18
-9.70988e-19
-3.67289e-18
-1.06692e-18
-3.28208e-18
-1.15876e-18
-2.86124e-18
-1.23718e-18
-2.41838e-18
-1.29624e-18
-1.9623e-18
-1.33246e-18
-1.50202e-18
-1.34421e-18
-1.04644e-18
-1.33132e-18
-6.03976e-19
-1.29475e-18
-1.82307e-19
-1.23632e-18
2.11823e-19
-1.15849e-18
5.72779e-19
-1.06415e-18
8.96105e-19
-9.56473e-19
1.17854e-18
-8.38748e-19
1.41801e-18
-7.1423e-19
1.61356e-18
-5.8604e-19
1.7652e-18
-4.57047e-19
1.8737e-18
-3.29761e-19
1.94046e-18
-2.06282e-19
1.96742e-18
-8.83047e-20
1.95697e-18
2.28497e-20
1.91186e-18
1.26201e-19
1.83508e-18
2.2108e-19
1.72975e-18
3.07099e-19
1.59902e-18
3.84104e-19
1.44604e-18
4.5211e-19
1.27393e-18
5.11229e-19
1.08576e-18
5.61612e-19
8.84504e-19
6.03407e-19
6.73018e-19
6.36733e-19
4.54026e-19
6.61676e-19
2.30108e-19
6.78268e-19
6.86469e-19
-3.87034e-10
1.01841e-09
-9.70606e-10
1.29094e-09
-1.40144e-09
1.35268e-09
-1.64994e-09
1.22096e-09
-1.52448e-09
8.99258e-10
-1.7402e-09
9.09503e-10
-2.02309e-09
1.141e-09
-2.26934e-09
8.40438e-10
-2.41894e-09
7.70929e-10
-2.6503e-09
6.63201e-10
-2.74864e-09
5.23491e-10
-2.78734e-09
3.11419e-10
-2.83905e-09
1.25148e-10
-2.95173e-09
1.01448e-10
-3.01085e-09
-6.74848e-11
-2.87812e-09
-3.13343e-10
-2.86971e-09
-4.95993e-10
-2.45561e-09
-9.82474e-10
-2.13392e-09
-7.13088e-10
-1.79998e-09
-1.17936e-09
-1.5478e-09
-1.59687e-09
-1.1057e-09
-1.29126e-09
-7.42002e-10
-1.3622e-09
-2.71612e-10
-1.60584e-09
2.97296e-11
-1.41265e-09
1.27992e-10
-1.23446e-09
2.40713e-10
-1.30073e-09
4.05473e-10
-1.32598e-09
5.52089e-10
-1.10918e-09
7.7168e-10
-8.08706e-10
9.20752e-10
-7.51809e-10
1.19679e-09
-7.24204e-10
1.41031e-09
-6.26697e-10
1.65709e-09
-8.14748e-10
1.89853e-09
-7.58362e-10
2.04204e-09
-6.63741e-10
2.23693e-09
-6.46246e-10
2.38464e-09
-5.48657e-10
2.53714e-09
-4.59746e-10
2.66178e-09
-3.79544e-10
2.78109e-09
-3.77202e-10
2.82733e-09
-4.156e-10
2.89909e-09
-4.29434e-10
2.95868e-09
-2.10129e-10
2.98635e-09
-1.59569e-10
2.99349e-09
-1.16052e-10
2.99413e-09
-7.81432e-11
3.00748e-09
-8.2259e-11
2.97073e-09
-7.51397e-11
2.99218e-09
-8.45598e-11
3.03263e-09
-8.59923e-11
3.07778e-09
-8.97428e-11
3.1375e-09
-1.06815e-10
3.15218e-09
-7.04098e-11
3.16341e-09
-3.79849e-11
3.15604e-09
7.51894e-12
3.15382e-09
3.408e-11
3.14135e-09
6.18921e-11
3.11548e-09
7.94153e-11
3.10036e-09
2.97499e-11
3.06261e-09
9.01911e-11
3.02299e-09
2.82556e-11
2.91995e-09
1.70144e-10
2.84289e-09
2.03213e-10
2.67563e-09
3.8983e-10
2.59243e-09
6.10114e-10
2.444e-09
6.45692e-10
2.41364e-09
1.08562e-09
2.30464e-09
1.06258e-09
2.28921e-09
1.30248e-09
2.24666e-09
1.48405e-09
2.19657e-09
1.554e-09
2.17858e-09
1.58684e-09
2.10634e-09
1.51235e-09
1.90634e-09
1.32179e-09
1.53807e-09
1.00636e-09
7.50896e-10
8.84078e-10
-3.67442e-10
6.30592e-10
-1.24073e-09
-8.25576e-11
-6.607e-10
-6.99338e-10
1.1153e-17
-5.75185e-10
-2.0716e-18
5.75779e-18
-4.38696e-18
1.6653e-19
-4.81195e-18
-6.97967e-19
-4.80931e-18
-8.71153e-19
-4.66015e-18
-9.84643e-19
-4.42506e-18
-1.12155e-18
-4.1229e-18
-1.27452e-18
-3.76474e-18
-1.42676e-18
-3.3605e-18
-1.56495e-18
-2.9203e-18
-1.67951e-18
-2.4546e-18
-1.76419e-18
-1.97405e-18
-1.81531e-18
-1.48913e-18
-1.83135e-18
-1.00988e-18
-1.81258e-18
-5.45547e-19
-1.76073e-18
-1.04471e-19
-1.67864e-18
3.06163e-19
-1.56998e-18
6.80452e-19
-1.43897e-18
1.01383e-18
-1.29013e-18
1.30306e-18
-1.1281e-18
1.5462e-18
-9.57386e-19
1.74255e-18
-7.82265e-19
1.89248e-18
-6.06635e-19
1.99718e-18
-4.3388e-19
2.05844e-18
-2.668e-19
2.07857e-18
-1.07606e-19
2.06032e-18
4.20247e-20
2.00673e-18
1.8088e-19
1.9211e-18
3.08149e-19
1.80675e-18
4.2337e-19
1.66702e-18
5.26364e-19
1.50516e-18
6.17165e-19
1.32432e-18
6.9594e-19
1.12756e-18
7.62917e-19
9.1783e-19
8.18332e-19
6.97962e-19
8.62391e-19
4.70618e-19
8.95256e-19
2.38308e-19
9.17033e-19
9.27782e-19
-3.35454e-10
1.35386e-09
-6.43382e-10
1.59887e-09
-9.87621e-10
1.69692e-09
-1.41211e-09
1.64545e-09
-1.80805e-09
1.2952e-09
-1.97041e-09
1.07186e-09
-2.07515e-09
1.24574e-09
-2.37204e-09
1.13732e-09
-2.61006e-09
1.00895e-09
-2.71435e-09
7.6749e-10
-2.8633e-09
6.72442e-10
-2.90323e-09
3.51347e-10
-2.9696e-09
1.91523e-10
-3.05025e-09
1.82098e-10
-2.98088e-09
-1.3685e-10
-2.87065e-09
-4.2358e-10
-2.86434e-09
-5.02301e-10
-2.51906e-09
-1.32775e-09
-2.10338e-09
-1.12877e-09
-1.81896e-09
-1.46378e-09
-1.49284e-09
-1.92299e-09
-9.91347e-10
-1.79275e-09
-5.18531e-10
-1.83501e-09
-1.36329e-10
-1.98805e-09
-5.04879e-12
-1.54393e-09
1.06584e-10
-1.34609e-09
1.62571e-10
-1.35672e-09
2.47575e-10
-1.41098e-09
2.67325e-10
-1.12893e-09
5.16462e-10
-1.05784e-09
6.78355e-10
-9.13701e-10
9.85659e-10
-1.03151e-09
1.28294e-09
-9.23978e-10
1.48724e-09
-1.01904e-09
1.72642e-09
-9.97549e-10
1.92706e-09
-8.64373e-10
2.16959e-09
-8.8878e-10
2.32794e-09
-7.07006e-10
2.45595e-09
-5.87754e-10
2.52075e-09
-4.44345e-10
2.61959e-09
-4.76049e-10
2.58185e-09
-3.7786e-10
2.60965e-09
-4.57229e-10
2.72274e-09
-3.23213e-10
2.79329e-09
-2.30126e-10
2.84474e-09
-1.67496e-10
2.88055e-09
-1.13956e-10
2.87207e-09
-7.37807e-11
2.86626e-09
-6.93281e-11
2.89563e-09
-1.13929e-10
2.93953e-09
-1.29887e-10
2.95897e-09
-1.09181e-10
2.94957e-09
-9.74234e-11
2.95403e-09
-7.48622e-11
2.95382e-09
-3.77744e-11
2.93141e-09
2.99273e-11
2.91094e-09
5.45465e-11
2.8786e-09
9.4237e-11
2.84274e-09
1.15271e-10
2.75988e-09
1.12614e-10
2.72147e-09
1.28604e-10
2.7005e-09
4.92187e-11
2.63339e-09
2.37257e-10
2.51985e-09
3.16756e-10
2.4176e-09
4.92075e-10
2.39093e-09
6.36791e-10
2.20285e-09
8.3377e-10
2.22576e-09
1.06271e-09
2.17534e-09
1.113e-09
2.15605e-09
1.32177e-09
2.16575e-09
1.47436e-09
2.18813e-09
1.53161e-09
2.23029e-09
1.54468e-09
2.24851e-09
1.49413e-09
2.1918e-09
1.3785e-09
1.88563e-09
1.31253e-09
1.68667e-09
1.08304e-09
1.24773e-09
1.06954e-09
5.38817e-10
6.26352e-10
-8.31058e-11
-7.74144e-11
-1.58647e-16
-6.5829e-10
-7.32875e-18
-7.00006e-18
-5.25086e-18
-1.91151e-18
-4.9846e-18
-9.64595e-19
-4.92228e-18
-9.34154e-19
-4.79656e-18
-1.11136e-18
-4.57773e-18
-1.34165e-18
-4.27514e-18
-1.57862e-18
-3.90293e-18
-1.80078e-18
-3.47507e-18
-1.99498e-18
-3.00497e-18
-2.15208e-18
-2.50572e-18
-2.26609e-18
-1.99009e-18
-2.33365e-18
-1.47036e-18
-2.35372e-18
-9.58025e-19
-2.32732e-18
-4.63462e-19
-2.25725e-18
4.18843e-21
-2.14769e-18
4.37176e-19
-2.00382e-18
8.29284e-19
-1.83149e-18
1.17586e-18
-1.63683e-18
1.47377e-18
-1.42603e-18
1.72132e-18
-1.20499e-18
1.91818e-18
-9.79258e-19
2.06524e-18
-7.53777e-19
2.16426e-18
-5.3282e-19
2.21763e-18
-3.19884e-19
2.2282e-18
-1.17683e-19
2.19917e-18
7.17713e-20
2.134e-18
2.47074e-19
2.03632e-18
4.07322e-19
1.90975e-18
5.52031e-19
1.75783e-18
6.81058e-19
1.58393e-18
7.94511e-19
1.39129e-18
8.9267e-19
1.18297e-18
9.75895e-19
9.6189e-19
1.04456e-18
7.30827e-19
1.09901e-18
4.92395e-19
1.13952e-18
2.49058e-19
1.16631e-18
1.17953e-18
-3.51658e-10
1.70552e-09
-6.06257e-10
1.85346e-09
-8.70519e-10
1.96118e-09
-1.09728e-09
1.87221e-09
-1.43429e-09
1.63221e-09
-1.88625e-09
1.52382e-09
-2.24464e-09
1.60413e-09
-2.46188e-09
1.35457e-09
-2.56275e-09
1.10983e-09
-2.69302e-09
8.97761e-10
-2.86956e-09
8.48979e-10
-2.95272e-09
4.34508e-10
-3.00262e-09
2.41421e-10
-3.10347e-09
2.8295e-10
-3.00283e-09
-2.37488e-10
-2.87846e-09
-5.47946e-10
-2.54739e-09
-8.33376e-10
-2.56716e-09
-1.30797e-09
-2.06672e-09
-1.62921e-09
-1.85303e-09
-1.67747e-09
-1.56122e-09
-2.21479e-09
-1.15534e-09
-2.19863e-09
-5.68399e-10
-2.42195e-09
-2.4519e-10
-2.31125e-09
-1.05626e-10
-1.68349e-09
-4.50646e-11
-1.40665e-09
-7.45849e-11
-1.3272e-09
-1.03351e-10
-1.38222e-09
-1.2589e-10
-1.10639e-09
-6.5774e-11
-1.11796e-09
3.36317e-10
-1.31579e-09
6.05947e-10
-1.30114e-09
1.02072e-09
-1.33875e-09
1.26781e-09
-1.26613e-09
1.58408e-09
-1.31381e-09
1.83473e-09
-1.11503e-09
1.90274e-09
-9.56789e-10
2.05249e-09
-8.56752e-10
2.13312e-09
-6.68381e-10
2.18766e-09
-4.98892e-10
2.2112e-09
-4.99588e-10
2.27654e-09
-4.43193e-10
2.26406e-09
-4.44758e-10
2.28391e-09
-3.4306e-10
2.30884e-09
-2.55055e-10
2.35965e-09
-2.18299e-10
2.43137e-09
-1.85678e-10
2.51328e-09
-1.55692e-10
2.57711e-09
-1.3316e-10
2.59647e-09
-1.33284e-10
2.58227e-09
-1.15687e-10
2.58234e-09
-1.09251e-10
2.57009e-09
-8.51773e-11
2.58945e-09
-9.42232e-11
2.59724e-09
-4.55567e-11
2.57495e-09
5.22097e-11
2.57546e-09
5.40402e-11
2.56688e-09
1.02817e-10
2.54979e-09
1.32366e-10
2.47342e-09
1.88982e-10
2.38305e-09
2.18968e-10
2.28071e-09
1.51563e-10
2.19004e-09
3.27931e-10
2.09365e-09
4.1314e-10
2.08116e-09
5.04567e-10
1.98346e-09
7.34495e-10
1.98395e-09
8.3328e-10
2.04852e-09
9.98139e-10
2.01524e-09
1.14628e-09
2.0131e-09
1.32391e-09
2.04482e-09
1.44264e-09
2.08571e-09
1.49073e-09
2.13582e-09
1.49457e-09
2.17194e-09
1.45801e-09
2.10976e-09
1.44069e-09
1.96213e-09
1.46015e-09
1.83612e-09
1.20905e-09
1.69275e-09
1.21291e-09
1.78907e-09
5.3003e-10
1.25018e-09
4.61477e-10
-2.23918e-16
5.91891e-10
-1.7683e-18
5.01111e-18
-4.30346e-18
6.23452e-19
-4.95362e-18
-3.14516e-19
-5.09897e-18
-7.89176e-19
-5.02636e-18
-1.18466e-18
-4.81444e-18
-1.55454e-18
-4.4973e-18
-1.89697e-18
-4.09713e-18
-2.20242e-18
-3.63217e-18
-2.46174e-18
-3.11898e-18
-2.66742e-18
-2.57328e-18
-2.81421e-18
-2.01016e-18
-2.89937e-18
-1.44396e-18
-2.92258e-18
-8.87951e-19
-2.88591e-18
-3.53902e-19
-2.79354e-18
1.48053e-19
-2.65136e-18
6.09513e-19
-2.46645e-18
1.02394e-18
-2.24661e-18
1.38667e-18
-1.99995e-18
1.6948e-18
-1.73444e-18
1.94706e-18
-1.45763e-18
2.14367e-18
-1.17642e-18
2.2862e-18
-8.9689e-19
2.37719e-18
-6.24217e-19
2.41983e-18
-3.62584e-19
2.41766e-18
-1.15188e-19
2.37447e-18
1.1567e-19
2.29425e-18
3.28452e-19
2.18103e-18
5.2224e-19
2.03877e-18
6.96618e-19
1.87128e-18
8.51566e-19
1.68209e-18
9.87356e-19
1.47452e-18
1.10446e-18
1.25164e-18
1.20343e-18
1.01634e-18
1.28484e-18
7.71341e-19
1.34923e-18
5.19185e-19
1.39703e-18
2.62271e-19
1.42859e-18
1.44415e-18
-5.16997e-10
2.22252e-09
-9.05467e-10
2.24193e-09
-1.16554e-09
2.22126e-09
-1.37057e-09
2.07724e-09
-1.68925e-09
1.9509e-09
-1.9095e-09
1.74406e-09
-2.1146e-09
1.80923e-09
-2.3495e-09
1.58947e-09
-2.47876e-09
1.23909e-09
-2.67552e-09
1.09453e-09
-2.73439e-09
9.0785e-10
-2.8719e-09
5.72017e-10
-2.9088e-09
2.78321e-10
-2.90377e-09
2.77915e-10
-2.79495e-09
-3.46302e-10
-2.70899e-09
-6.33901e-10
-2.38988e-09
-1.15249e-09
-2.48885e-09
-1.209e-09
-1.98452e-09
-2.13354e-09
-1.92674e-09
-1.73525e-09
-1.54907e-09
-2.59246e-09
-1.03937e-09
-2.70832e-09
-6.52062e-10
-2.80927e-09
-5.02911e-10
-2.4604e-09
-3.25475e-10
-1.86093e-09
-2.19596e-10
-1.51253e-09
-1.91744e-10
-1.35505e-09
-2.15991e-10
-1.35797e-09
1.00124e-10
-1.4225e-09
3.67031e-10
-1.38486e-09
4.33306e-10
-1.38207e-09
5.98999e-10
-1.46683e-09
9.43002e-10
-1.68276e-09
1.23302e-09
-1.55616e-09
1.28697e-09
-1.36776e-09
1.50887e-09
-1.33693e-09
1.56715e-09
-1.01507e-09
1.69419e-09
-9.83786e-10
1.74482e-09
-7.19015e-10
1.85657e-09
-6.10644e-10
1.88226e-09
-5.25279e-10
1.89506e-09
-4.55986e-10
1.85227e-09
-4.01973e-10
1.85296e-09
-3.43741e-10
1.8702e-09
-2.72298e-10
1.89541e-09
-2.43514e-10
1.94214e-09
-2.32408e-10
1.99663e-09
-2.10178e-10
2.06357e-09
-2.00095e-10
2.11412e-09
-1.83834e-10
2.15031e-09
-1.51883e-10
2.19989e-09
-1.58829e-10
2.16843e-09
-5.37204e-11
2.20509e-09
-1.30873e-10
2.23384e-09
-7.43099e-11
2.19477e-09
9.12751e-11
2.18547e-09
6.33485e-11
2.20999e-09
7.8291e-11
2.25177e-09
9.05923e-11
2.24456e-09
1.96185e-10
2.21661e-09
2.46917e-10
2.14211e-09
2.2607e-10
2.10005e-09
3.6999e-10
2.00513e-09
5.08061e-10
1.93102e-09
5.78676e-10
1.87594e-09
7.89572e-10
1.8876e-09
8.21623e-10
1.91689e-09
9.68846e-10
1.86311e-09
1.20007e-09
1.86579e-09
1.32123e-09
1.89218e-09
1.41625e-09
1.9287e-09
1.4542e-09
1.96299e-09
1.46028e-09
1.94358e-09
1.47742e-09
1.92089e-09
1.46338e-09
1.88065e-09
1.5004e-09
1.7167e-09
1.373e-09
1.62155e-09
1.30806e-09
1.09822e-09
1.05336e-09
5.05829e-10
1.05387e-09
-1.93974e-16
1.09772e-09
-5.47632e-18
9.57677e-19
-5.24077e-18
3.87751e-19
-5.42771e-18
-1.27479e-19
-5.49392e-18
-7.22894e-19
-5.39575e-18
-1.28291e-18
-5.15664e-18
-1.79395e-18
-4.80274e-18
-2.25141e-18
-4.35646e-18
-2.64946e-18
-3.83784e-18
-2.98139e-18
-3.26578e-18
-3.24086e-18
-2.65844e-18
-3.42327e-18
-2.03337e-18
-3.52644e-18
-1.40729e-18
-3.55094e-18
-7.95583e-19
-3.5001e-18
-2.11726e-19
-3.37985e-18
3.32963e-19
-3.19818e-18
8.29352e-19
-2.96454e-18
1.2706e-18
-2.68914e-18
1.65218e-18
-2.38245e-18
1.97161e-18
-2.0546e-18
2.22827e-18
-1.71505e-18
2.4232e-18
-1.37223e-18
2.55887e-18
-1.03346e-18
2.63883e-18
-7.04833e-19
2.66723e-18
-3.91191e-19
2.64852e-18
-9.6147e-20
2.58726e-18
1.77792e-19
2.48804e-18
4.29054e-19
2.35541e-18
6.5682e-19
2.19372e-18
8.60864e-19
2.00707e-18
1.04141e-18
1.79919e-18
1.19899e-18
1.57349e-18
1.33437e-18
1.33305e-18
1.44839e-18
1.08073e-18
1.54188e-18
8.19144e-19
1.61562e-18
5.50744e-19
1.67024e-18
2.77828e-19
1.70625e-18
1.72399e-18
-1.72971e-10
2.39549e-09
-6.71531e-10
2.7405e-09
-1.04144e-09
2.59116e-09
-1.3841e-09
2.4199e-09
-1.61464e-09
2.18144e-09
-1.83837e-09
1.96779e-09
-1.94049e-09
1.91136e-09
-2.16208e-09
1.81106e-09
-2.34106e-09
1.41807e-09
-2.44717e-09
1.20064e-09
-2.52035e-09
9.81026e-10
-2.62243e-09
6.741e-10
-2.63282e-09
2.88714e-10
-2.52685e-09
1.71946e-10
-2.41886e-09
-4.54291e-10
-2.35434e-09
-6.98421e-10
-2.11213e-09
-1.3947e-09
-2.26532e-09
-1.05581e-09
-1.93575e-09
-2.46311e-09
-1.7811e-09
-1.8899e-09
-1.36293e-09
-3.01063e-09
-1.08439e-09
-2.98686e-09
-8.79955e-10
-3.0137e-09
-7.50818e-10
-2.58954e-09
-6.45984e-10
-1.96576e-09
-5.5377e-10
-1.60474e-09
-4.46357e-10
-1.46246e-09
-3.33832e-10
-1.47049e-09
-3.81017e-10
-1.37531e-09
-2.78468e-10
-1.48741e-09
1.13525e-10
-1.77406e-09
4.49192e-10
-1.80249e-09
6.00704e-10
-1.83427e-09
7.92687e-10
-1.74814e-09
9.89519e-10
-1.56459e-09
1.15864e-09
-1.50604e-09
1.22719e-09
-1.08363e-09
1.32041e-09
-1.07701e-09
1.38888e-09
-7.87476e-10
1.41468e-09
-6.36445e-10
1.45977e-09
-5.7037e-10
1.50068e-09
-4.96903e-10
1.49069e-09
-3.91981e-10
1.49657e-09
-3.49613e-10
1.52793e-09
-3.03661e-10
1.57219e-09
-2.87773e-10
1.61409e-09
-2.74314e-10
1.66056e-09
-2.56644e-10
1.69765e-09
-2.3719e-10
1.73288e-09
-2.19058e-10
1.7509e-09
-1.69903e-10
1.76698e-09
-1.74911e-10
1.80716e-09
-9.38969e-11
1.82701e-09
-1.50721e-10
1.82749e-09
-7.47981e-11
1.89279e-09
2.5975e-11
1.95859e-09
-2.446e-12
2.00906e-09
2.78191e-11
2.0433e-09
5.63576e-11
2.05981e-09
1.79677e-10
2.03682e-09
2.69906e-10
2.01848e-09
2.44409e-10
2.02305e-09
3.65421e-10
1.96076e-09
5.70353e-10
1.89384e-09
6.45594e-10
1.88071e-09
8.02705e-10
1.81228e-09
8.90054e-10
1.73827e-09
1.04285e-09
1.74801e-09
1.19033e-09
1.77044e-09
1.2988e-09
1.7642e-09
1.42249e-09
1.74226e-09
1.47614e-09
1.7036e-09
1.49895e-09
1.70762e-09
1.47339e-09
1.62133e-09
1.54968e-09
1.54665e-09
1.57508e-09
1.4921e-09
1.42755e-09
1.35448e-09
1.44569e-09
9.49998e-10
1.45784e-09
5.47279e-10
1.45659e-09
-2.5208e-16
1.645e-09
-5.06721e-18
3.36227e-18
-5.75534e-18
1.07603e-18
-6.02252e-18
1.40138e-19
-6.05341e-18
-6.91587e-19
-5.9063e-18
-1.4296e-18
-5.61391e-18
-2.08605e-18
-5.20079e-18
-2.66445e-18
-4.68839e-18
-3.16205e-18
-4.09731e-18
-3.57292e-18
-3.44819e-18
-3.89075e-18
-2.76161e-18
-4.11091e-18
-2.05787e-18
-4.23155e-18
-1.35645e-18
-4.25412e-18
-6.75327e-19
-4.18347e-18
-3.00602e-20
-4.02767e-18
5.66607e-19
-3.79736e-18
1.10475e-18
-3.50493e-18
1.5773e-18
-3.16361e-18
1.98002e-18
-2.78671e-18
2.31117e-18
-2.38697e-18
2.57109e-18
-1.97604e-18
2.76197e-18
-1.56415e-18
2.88749e-18
-1.15995e-18
2.95247e-18
-7.70477e-19
2.96227e-18
-4.01139e-19
2.92246e-18
-5.5854e-20
2.83852e-18
2.62807e-19
2.71581e-18
5.53393e-19
2.55945e-18
8.15342e-19
2.37426e-18
1.04877e-18
2.16466e-18
1.25428e-18
1.93457e-18
1.43283e-18
1.6875e-18
1.58555e-18
1.42655e-18
1.71366e-18
1.15446e-18
1.81835e-18
8.73764e-19
1.90066e-18
5.86751e-19
1.96149e-18
2.95574e-19
2.00153e-18
2.02126e-18
-2.79426e-10
2.67491e-09
-2.30813e-10
2.69188e-09
-4.48703e-10
2.80906e-09
-7.97993e-10
2.76919e-09
-1.20249e-09
2.58594e-09
-1.73383e-09
2.49913e-09
-2.01059e-09
2.18812e-09
-2.03792e-09
1.83839e-09
-2.21338e-09
1.59352e-09
-2.15383e-09
1.1411e-09
-2.1738e-09
1.00099e-09
-2.27099e-09
7.71298e-10
-2.29332e-09
3.11043e-10
-2.1828e-09
6.14229e-11
-2.26405e-09
-3.73035e-10
-2.12632e-09
-8.36149e-10
-2.06063e-09
-1.46039e-09
-2.05667e-09
-1.05977e-09
-1.99317e-09
-2.5266e-09
-1.6724e-09
-2.21067e-09
-1.49392e-09
-3.18912e-09
-1.26947e-09
-3.21131e-09
-1.08279e-09
-3.20038e-09
-9.76e-10
-2.69633e-09
-8.72728e-10
-2.06903e-09
-7.7969e-10
-1.69778e-09
-6.559e-10
-1.58625e-09
-5.49207e-10
-1.57719e-09
-2.1672e-10
-1.7078e-09
3.28686e-11
-1.737e-09
1.36328e-10
-1.87752e-09
3.13568e-10
-1.97973e-09
4.70177e-10
-1.99088e-09
6.24387e-10
-1.90235e-09
7.79905e-10
-1.72011e-09
8.02151e-10
-1.52829e-09
9.40481e-10
-1.22196e-09
9.49535e-10
-1.08606e-09
1.0134e-09
-8.51336e-10
1.03519e-09
-6.58239e-10
1.04238e-09
-5.77557e-10
1.06475e-09
-5.19271e-10
1.11109e-09
-4.38321e-10
1.15606e-09
-3.94583e-10
1.21658e-09
-3.64189e-10
1.26901e-09
-3.40202e-10
1.31042e-09
-3.15719e-10
1.34889e-09
-2.95115e-10
1.3821e-09
-2.70397e-10
1.41349e-09
-2.50455e-10
1.47355e-09
-2.2996e-10
1.50227e-09
-2.03634e-10
1.55771e-09
-1.49332e-10
1.58987e-09
-1.82877e-10
1.62339e-09
-1.0832e-10
1.70298e-09
-5.36209e-11
1.772e-09
-7.14645e-11
1.8091e-09
-9.28126e-12
1.79649e-09
6.89674e-11
1.82032e-09
1.55856e-10
1.8414e-09
2.48819e-10
1.86302e-09
2.22794e-10
1.86502e-09
3.63417e-10
1.8601e-09
5.7528e-10
1.83836e-09
6.67335e-10
1.81106e-09
8.30007e-10
1.72718e-09
9.73928e-10
1.65659e-09
1.11344e-09
1.61058e-09
1.23634e-09
1.57873e-09
1.33064e-09
1.5524e-09
1.44882e-09
1.50845e-09
1.5201e-09
1.53945e-09
1.46795e-09
1.4592e-09
1.55365e-09
1.39691e-09
1.61196e-09
1.39177e-09
1.58022e-09
1.26185e-09
1.55747e-09
1.0159e-09
1.69163e-09
8.95243e-10
1.5785e-09
5.94561e-10
1.75727e-09
-2.60242e-16
2.23956e-09
-6.09331e-18
5.36725e-18
-6.69052e-18
1.67364e-18
-6.85362e-18
3.03941e-19
-6.79087e-18
-7.5384e-19
-6.56227e-18
-1.65785e-18
-6.19216e-18
-2.45597e-18
-5.69839e-18
-3.15827e-18
-5.09925e-18
-3.7615e-18
-4.41515e-18
-4.25764e-18
-3.66835e-18
-4.63844e-18
-2.88225e-18
-4.89809e-18
-2.08044e-18
-5.03457e-18
-1.2858e-18
-5.05023e-18
-5.19521e-19
-4.95178e-18
2.00244e-19
-4.75e-18
8.59034e-19
-4.45892e-18
1.44607e-18
-4.09465e-18
1.9542e-18
-3.67416e-18
2.37976e-18
-3.2143e-18
2.72209e-18
-2.7309e-18
2.98298e-18
-2.2382e-18
3.16616e-18
-1.74843e-18
3.27697e-18
-1.27168e-18
3.32181e-18
-8.15861e-19
3.30756e-18
-3.86873e-19
3.24112e-18
1.12576e-20
3.1291e-18
3.76106e-19
2.97775e-18
7.0656e-19
2.79288e-18
1.00252e-18
2.57978e-18
1.26464e-18
2.3432e-18
1.49409e-18
2.0873e-18
1.69237e-18
1.81562e-18
1.86114e-18
1.53123e-18
2.00208e-18
1.23677e-18
2.11679e-18
9.34595e-19
2.20669e-18
6.26791e-19
2.27295e-18
3.15304e-19
2.3165e-18
2.33795e-18
-3.28604e-10
3.00352e-09
-6.45558e-10
3.00884e-09
-8.21124e-10
2.98462e-09
-9.67956e-10
2.91602e-09
-1.2045e-09
2.82248e-09
-1.37376e-09
2.66839e-09
-1.60089e-09
2.41525e-09
-1.69061e-09
1.92811e-09
-1.80453e-09
1.70744e-09
-1.92754e-09
1.26411e-09
-1.957e-09
1.03045e-09
-1.95204e-09
7.66333e-10
-1.99664e-09
3.55641e-10
-1.9595e-09
2.42878e-11
-2.05586e-09
-2.76673e-10
-2.13512e-09
-7.56895e-10
-1.96924e-09
-1.62627e-09
-2.03154e-09
-9.97473e-10
-1.86632e-09
-2.69181e-09
-1.64972e-09
-2.42728e-09
-1.59335e-09
-3.24548e-09
-1.50863e-09
-3.29603e-09
-1.46213e-09
-3.24688e-09
-1.40755e-09
-2.75091e-09
-1.22484e-09
-2.25174e-09
-9.80631e-10
-1.94199e-09
-7.92056e-10
-1.77483e-09
-6.42777e-10
-1.72647e-09
-5.60667e-10
-1.78991e-09
-3.91824e-10
-1.90584e-09
-1.55036e-10
-2.1143e-09
3.84852e-11
-2.17326e-09
2.43444e-10
-2.19583e-09
2.35769e-10
-1.89467e-09
3.47906e-10
-1.83225e-09
4.99676e-10
-1.68006e-09
6.46515e-10
-1.3688e-09
6.43023e-10
-1.08257e-09
6.89043e-10
-8.97356e-10
7.55502e-10
-7.24698e-10
7.76624e-10
-5.98678e-10
7.91759e-10
-5.34406e-10
8.4389e-10
-4.90451e-10
8.8421e-10
-4.34903e-10
9.305e-10
-4.10479e-10
9.66356e-10
-3.76058e-10
1.00659e-09
-3.55954e-10
1.04954e-09
-3.38068e-10
1.11569e-09
-3.36545e-10
1.15523e-09
-2.89996e-10
1.21159e-09
-2.86312e-10
1.2775e-09
-2.69552e-10
1.32284e-09
-1.94665e-10
1.37756e-09
-2.37602e-10
1.43593e-09
-1.66684e-10
1.46291e-09
-8.06054e-11
1.46655e-09
-7.51077e-11
1.46305e-09
-5.77303e-12
1.49978e-09
3.2237e-11
1.59279e-09
6.28504e-11
1.65987e-09
1.81734e-10
1.66495e-09
2.17711e-10
1.62264e-09
4.05729e-10
1.64745e-09
5.50478e-10
1.66043e-09
6.5435e-10
1.58868e-09
9.01764e-10
1.52263e-09
1.03997e-09
1.47606e-09
1.16001e-09
1.48186e-09
1.23055e-09
1.49649e-09
1.31601e-09
1.47032e-09
1.47499e-09
1.42837e-09
1.56205e-09
1.34469e-09
1.55163e-09
1.24481e-09
1.65352e-09
1.23498e-09
1.62179e-09
1.09007e-09
1.72513e-09
9.60955e-10
1.68658e-09
7.43428e-10
1.90916e-09
2.59239e-10
2.06269e-09
7.99222e-11
1.93659e-09
-1.80049e-17
2.31948e-09
-8.27654e-18
5.04874e-18
-8.05944e-18
1.45695e-18
-7.91076e-18
1.55588e-19
-7.69433e-18
-9.70271e-19
-7.35994e-18
-1.99265e-18
-6.89435e-18
-2.92234e-18
-6.30162e-18
-3.75211e-18
-5.5954e-18
-4.46906e-18
-4.79595e-18
-5.05869e-18
-3.928e-18
-5.50825e-18
-3.01873e-18
-5.80927e-18
-2.09609e-18
-5.95894e-18
-1.18735e-18
-5.96058e-18
-3.17744e-19
-5.82334e-18
4.91321e-19
-5.56158e-18
1.22331e-18
-5.19375e-18
1.86656e-18
-4.74074e-18
2.41407e-18
-4.2243e-18
2.86316e-18
-3.66563e-18
3.21479e-18
-3.0843e-18
3.47275e-18
-2.49751e-18
3.64292e-18
-1.91968e-18
3.73279e-18
-1.36236e-18
3.75079e-18
-8.3429e-19
3.70569e-18
-3.41609e-19
3.60597e-18
1.11794e-19
3.45956e-18
5.23932e-19
3.27372e-18
8.94315e-19
3.055e-18
1.22358e-18
2.80923e-18