/*--------------------------------*- C++ -*----------------------------------*\
  =========                 |
  \\      /  F ield         | OpenFOAM: The Open Source CFD Toolbox
   \\    /   O peration     | Website:  https://openfoam.org
    \\  /    A nd           | Version:  6
     \\/     M anipulation  |
\*---------------------------------------------------------------------------*/
FoamFile
{
    version     2.0;
    format      ascii;
    class       volScalarField;
    location    "2600";
    object      Su;
}
// * * * * * * * * * * * * * * * * * * * * * * * * * * * * * * * * * * * * * //

dimensions      [0 0 -1 0 0 0 0];

internalField   nonuniform List<scalar> 
4800
(
0.217308
0.210763
0.204301
0.198026
0.192031
0.186401
0.18122
0.176518
0.172281
0.168482
0.165082
0.162044
0.159324
0.15688
0.154666
0.152641
0.150772
0.149027
0.147377
0.145811
0.144308
0.142841
0.141398
0.139972
0.138558
0.137149
0.135738
0.134325
0.132908
0.131482
0.130049
0.128616
0.127185
0.125766
0.124361
0.122973
0.1216
0.120237
0.118885
0.117541
0.116205
0.114881
0.113566
0.112256
0.110948
0.109644
0.108344
0.107046
0.105749
0.104454
0.103157
0.101858
0.100556
0.0992488
0.0979333
0.0966055
0.0952605
0.0938923
0.092494
0.0910578
0.0895739
0.0880289
0.0864054
0.08468
0.0828248
0.0808067
0.0785886
0.0761343
0.0734003
0.0703583
0.0670142
0.0633872
0.0595384
0.0555508
0.0514885
0.0473974
0.0433054
0.0392376
0.0351989
0.0311535
0.0270575
0.0229427
0.0188333
0.0147491
0.0107017
0.00669713
0.00273853
-0.0011724
-0.00503464
-0.00884793
-0.0126126
-0.0163294
-0.0199997
-0.0236251
-0.0272078
-0.0307497
-0.0342531
-0.0377204
-0.0411538
-0.0445555
-0.0479277
-0.0512725
-0.054592
-0.057888
-0.0611625
-0.0644172
-0.0676539
-0.0708741
-0.0740793
-0.0772712
-0.080451
-0.0836201
-0.0867798
-0.0899313
-0.0930758
-0.0962145
-0.0993485
-0.102479
-0.105606
-0.108733
0.217274
0.210666
0.204159
0.197877
0.191934
0.186386
0.18126
0.176583
0.172361
0.168573
0.165185
0.162156
0.159445
0.157005
0.154793
0.152767
0.150895
0.149145
0.147491
0.145915
0.144395
0.142909
0.141444
0.139993
0.138548
0.137102
0.135656
0.134209
0.13276
0.131307
0.12985
0.128396
0.126949
0.125514
0.124094
0.122691
0.121305
0.119934
0.118574
0.117225
0.115883
0.114552
0.113232
0.11192
0.110611
0.109304
0.107998
0.106695
0.105395
0.104098
0.102802
0.101505
0.100206
0.0989021
0.0975906
0.0962665
0.0949251
0.0935602
0.092165
0.0907315
0.0892496
0.0877068
0.0860866
0.0843669
0.082521
0.0805183
0.0783243
0.0759032
0.0732292
0.0702882
0.0670712
0.0635891
0.0598757
0.0559686
0.0519242
0.0477999
0.043654
0.0395209
0.0353969
0.0312598
0.0270982
0.022952
0.0188236
0.0147273
0.0106722
0.00666326
0.00270247
-0.00120918
-0.00507116
-0.00888354
-0.0126468
-0.016362
-0.0200306
-0.0236542
-0.027235
-0.0307751
-0.0342767
-0.0377423
-0.0411739
-0.044574
-0.0479447
-0.0512881
-0.0546062
-0.057901
-0.0611743
-0.0644279
-0.0676635
-0.0708827
-0.074087
-0.077278
-0.080457
-0.0836253
-0.0867843
-0.0899351
-0.093079
-0.0962171
-0.0993505
-0.10248
-0.105607
-0.108733
0.217209
0.210521
0.204021
0.197782
0.191884
0.186399
0.181342
0.17672
0.172535
0.168774
0.165407
0.162396
0.159696
0.157259
0.155044
0.153015
0.151142
0.149388
0.147724
0.146128
0.144579
0.143056
0.141549
0.140046
0.138538
0.137025
0.13551
0.133994
0.13248
0.130972
0.129469
0.127976
0.126496
0.125031
0.123587
0.122163
0.120758
0.119371
0.117999
0.116639
0.115288
0.113946
0.112617
0.111299
0.109985
0.108673
0.107364
0.106057
0.104753
0.103453
0.102156
0.10086
0.0995642
0.098265
0.0969594
0.0956418
0.0943066
0.0929478
0.0915582
0.0901298
0.0886529
0.087114
0.0854993
0.0837879
0.0819559
0.079977
0.0778215
0.0754643
0.072882
0.070057
0.0669751
0.0636462
0.060084
0.05631
0.0523641
0.0482903
0.0441264
0.0398997
0.0356441
0.0313854
0.0271274
0.0229523
0.0187958
0.0146788
0.0106104
0.00659374
0.00262922
-0.00128346
-0.00514465
-0.00895502
-0.0127155
-0.0164274
-0.0200924
-0.0237123
-0.0272894
-0.0308257
-0.0343238
-0.0377858
-0.0412141
-0.044611
-0.0479787
-0.0513192
-0.0546346
-0.0579268
-0.0611977
-0.064449
-0.0676825
-0.0708998
-0.0741023
-0.0772915
-0.0804689
-0.0836357
-0.0867933
-0.0899428
-0.0930854
-0.0962222
-0.0993544
-0.102483
-0.105609
-0.108733
0.21722
0.210534
0.204028
0.197815
0.191977
0.186548
0.181532
0.17695
0.172807
0.169083
0.165748
0.162764
0.160082
0.157654
0.155442
0.153414
0.151531
0.149765
0.14808
0.146454
0.144861
0.143284
0.141715
0.140141
0.138553
0.136948
0.135332
0.133716
0.132111
0.130522
0.128949
0.127396
0.125867
0.124358
0.122878
0.121422
0.119991
0.118582
0.117191
0.115815
0.114448
0.11309
0.111747
0.11042
0.109099
0.107782
0.106469
0.105159
0.103853
0.102551
0.101254
0.0999595
0.0986661
0.0973709
0.0960702
0.0947587
0.0934304
0.0920789
0.0906966
0.089275
0.0878062
0.0862763
0.0846743
0.0829788
0.0811703
0.079226
0.0771185
0.0748321
0.0723373
0.0696246
0.0666811
0.0635045
0.0601018
0.0564873
0.05267
0.0486644
0.0444855
0.0401628
0.0357716
0.0314142
0.0268968
0.02292
0.0187373
0.0145956
0.010511
0.0064851
0.00251648
-0.00139676
-0.0052561
-0.00906301
-0.012819
-0.0165258
-0.0201853
-0.0237995
-0.0273709
-0.0309017
-0.0343942
-0.037851
-0.0412743
-0.0446663
-0.0480294
-0.0513656
-0.0546769
-0.0579653
-0.0612326
-0.0644806
-0.067711
-0.0709253
-0.0741251
-0.0773118
-0.0804867
-0.0836513
-0.0868067
-0.0899542
-0.0930949
-0.0962299
-0.0993603
-0.102487
-0.105611
-0.108734
0.21725
0.210628
0.204183
0.198013
0.192198
0.186795
0.181828
0.1773
0.173205
0.169529
0.166235
0.163282
0.160622
0.158208
0.156006
0.153979
0.152083
0.150293
0.148571
0.146895
0.145241
0.143591
0.141939
0.140271
0.138574
0.136855
0.135123
0.133392
0.131675
0.129983
0.12832
0.126687
0.12509
0.123521
0.121988
0.120489
0.11902
0.117579
0.116161
0.11476
0.113371
0.111994
0.110631
0.10929
0.10796
0.106638
0.105322
0.10401
0.102702
0.101399
0.100102
0.0988096
0.0975185
0.0962274
0.0949331
0.09363
0.0923106
0.0909695
0.0895985
0.0881886
0.0867325
0.0852179
0.083637
0.0819665
0.0801909
0.0782889
0.0762364
0.0740189
0.0716111
0.0690018
0.0661795
0.0631387
0.0598796
0.0564024
0.0527105
0.0488067
0.0447071
0.0404409
0.0360525
0.0316159
0.0272068
0.0228869
0.0186416
0.0144686
0.010367
0.00633266
0.00236118
-0.0015511
-0.00540685
-0.00920839
-0.0129579
-0.0166574
-0.0203093
-0.0239159
-0.0274795
-0.0310027
-0.034488
-0.0379376
-0.0413542
-0.0447398
-0.0480968
-0.0514272
-0.0547331
-0.0580164
-0.061279
-0.0645225
-0.0677487
-0.0709591
-0.0741552
-0.0773385
-0.0805103
-0.0836719
-0.0868244
-0.0899692
-0.0931074
-0.0962399
-0.099368
-0.102493
-0.105615
-0.108735
0.217287
0.210745
0.204384
0.198297
0.192551
0.187194
0.182268
0.177795
0.173766
0.170147
0.166896
0.163977
0.161341
0.158941
0.156748
0.154716
0.152803
0.150975
0.149198
0.147451
0.145714
0.143968
0.142208
0.140419
0.138596
0.136748
0.134887
0.133026
0.131185
0.129374
0.127601
0.12587
0.124182
0.122538
0.120936
0.11938
0.11786
0.116375
0.114922
0.11349
0.112074
0.110675
0.109293
0.107932
0.106587
0.105254
0.103932
0.102618
0.10131
0.100008
0.0987126
0.0974221
0.0961355
0.0948501
0.0935648
0.0922731
0.090966
0.0896395
0.0882857
0.0868956
0.0854589
0.0839652
0.0824101
0.0807713
0.0790335
0.0771775
0.0751821
0.0730329
0.0707063
0.0681892
0.0654709
0.0625436
0.0594032
0.0560458
0.0524672
0.0486673
0.0446611
0.0404769
0.0361511
0.0317149
0.0272158
0.0227799
0.0184826
0.0142844
0.0101704
0.00613121
0.00215986
-0.00174876
-0.00559837
-0.00939208
-0.0131326
-0.0168226
-0.0204647
-0.0240613
-0.0276152
-0.0311288
-0.0346048
-0.0380456
-0.0414536
-0.0448312
-0.0481805
-0.0515038
-0.0548029
-0.0580799
-0.0613365
-0.0645745
-0.0677955
-0.071001
-0.0741926
-0.0773717
-0.0805395
-0.0836973
-0.0868464
-0.0899879
-0.0931229
-0.0962524
-0.0993776
-0.102499
-0.105619
-0.108737
0.217331
0.210877
0.204606
0.198613
0.192957
0.187693
0.182857
0.178465
0.174506
0.170945
0.167744
0.164864
0.162253
0.159868
0.157681
0.155633
0.153687
0.151802
0.149959
0.14812
0.146283
0.144422
0.142527
0.14059
0.138621
0.136633
0.134636
0.132643
0.130674
0.128739
0.126838
0.124983
0.12318
0.121437
0.119748
0.118114
0.116534
0.114996
0.1135
0.112033
0.110588
0.109164
0.10776
0.106378
0.105016
0.103669
0.102336
0.101015
0.0997049
0.0984039
0.0971116
0.095826
0.0945466
0.0932679
0.0919932
0.0907154
0.0894222
0.088113
0.0867807
0.0854173
0.0840094
0.0825463
0.0810252
0.0794249
0.0777274
0.0759185
0.073976
0.0718872
0.0696319
0.0671943
0.0645638
0.0617302
0.058687
0.0554281
0.0519493
0.0482503
0.0443344
0.0402201
0.035922
0.0314843
0.0269918
0.0225498
0.0182383
0.0140311
0.00991383
0.00587584
0.00190924
-0.00199192
-0.00583206
-0.00961494
-0.0133438
-0.0170217
-0.0206514
-0.0242358
-0.0277776
-0.0312796
-0.0347444
-0.0381744
-0.0415722
-0.0449401
-0.0482803
-0.0515949
-0.0548859
-0.0581553
-0.0614048
-0.0646362
-0.067851
-0.0710507
-0.074237
-0.077411
-0.080574
-0.0837275
-0.0868724
-0.09001
-0.0931412
-0.0962672
-0.099389
-0.102507
-0.105624
-0.108738
0.217414
0.211104
0.204952
0.199061
0.193506
0.188341
0.183602
0.179301
0.17542
0.171927
0.168782
0.165942
0.163358
0.160985
0.158791
0.156715
0.154723
0.152763
0.150842
0.148898
0.146946
0.144944
0.14289
0.14079
0.138661
0.136522
0.134382
0.132249
0.130135
0.128052
0.126012
0.124026
0.122095
0.120234
0.118444
0.116723
0.115073
0.113473
0.111928
0.11042
0.10894
0.107489
0.106063
0.104661
0.10328
0.101919
0.100574
0.0992442
0.097929
0.0966267
0.0953363
0.0940547
0.0927828
0.0915122
0.0902483
0.0889846
0.087708
0.0864181
0.0851085
0.0837726
0.0823962
0.0809679
0.0794853
0.0779286
0.0762759
0.0745147
0.0726227
0.0705876
0.0683944
0.0660273
0.0634728
0.0607184
0.0577568
0.0545837
0.0511931
0.0475817
0.0437517
0.0397131
0.0354779
0.0310941
0.0266394
0.0222093
0.0179045
0.013703
0.00959244
0.005563
0.00160684
-0.00228221
-0.00610896
-0.00987757
-0.0135917
-0.0172545
-0.0208694
-0.0244391
-0.0279667
-0.0314549
-0.0349064
-0.0383239
-0.0417097
-0.0450662
-0.0483957
-0.0517003
-0.0549819
-0.0582424
-0.0614837
-0.0647073
-0.0679149
-0.071108
-0.074288
-0.0774562
-0.0806138
-0.0837622
-0.0869023
-0.0900353
-0.0931623
-0.0962842
-0.099402
-0.102517
-0.105629
-0.10874
0.217493
0.21136
0.205382
0.199635
0.194198
0.189132
0.184487
0.180284
0.176494
0.17308
0.169994
0.167193
0.164632
0.162262
0.160046
0.157931
0.155882
0.15384
0.15183
0.149771
0.147685
0.145523
0.1433
0.14103
0.138737
0.136442
0.134151
0.13187
0.12961
0.127378
0.125181
0.123038
0.120962
0.118968
0.117061
0.11524
0.113507
0.11184
0.110238
0.108684
0.107167
0.105684
0.104232
0.102808
0.101409
0.100031
0.0986738
0.0973348
0.0960136
0.0947089
0.0934195
0.0921424
0.0908766
0.0896145
0.0883611
0.0871086
0.0858468
0.0845753
0.0832874
0.0819769
0.0806319
0.0792388
0.0777951
0.0762823
0.0746759
0.0729624
0.0711208
0.0691381
0.0670007
0.0646951
0.0622086
0.0595271
0.0566432
0.0535518
0.0502457
0.046722
0.0429767
0.0390164
0.0348614
0.0305576
0.0261641
0.0217639
0.0174816
0.0132983
0.00920414
0.00519088
0.00125131
-0.00262055
-0.0064296
-0.0101802
-0.0138762
-0.0175211
-0.0211183
-0.0246709
-0.0281819
-0.0316542
-0.0350905
-0.0384934
-0.0418655
-0.045209
-0.0485263
-0.0518193
-0.0550902
-0.0583407
-0.0615726
-0.0647875
-0.067987
-0.0711725
-0.0743454
-0.077507
-0.0806585
-0.0838011
-0.0869359
-0.0900638
-0.093186
-0.0963033
-0.0994167
-0.102527
-0.105635
-0.108742
0.217573
0.21159
0.205766
0.200187
0.194918
0.190013
0.185511
0.181423
0.177724
0.174383
0.17135
0.168587
0.166046
0.163673
0.161427
0.159265
0.157153
0.155026
0.15292
0.15074
0.148503
0.146173
0.143771
0.141324
0.138865
0.136415
0.133973
0.131537
0.129111
0.126706
0.124339
0.122029
0.119796
0.117657
0.115619
0.113689
0.111864
0.110125
0.108461
0.106858
0.105301
0.103783
0.102301
0.100853
0.0994321
0.0980369
0.0966648
0.0953147
0.093986
0.0926783
0.0913881
0.0901139
0.088853
0.0875979
0.0863529
0.0851098
0.0838602
0.0826044
0.0813361
0.0800489
0.0787335
0.0773743
0.0759668
0.0744942
0.0729312
0.0712637
0.0694701
0.0675381
0.0654552
0.0632101
0.0607903
0.0581805
0.0553713
0.052361
0.0491417
0.0457067
0.0420502
0.0381809
0.034106
0.0298767
0.0255654
0.0212205
0.0169736
0.0128183
0.00874916
0.00475931
0.000842471
-0.00300699
-0.00679388
-0.0105226
-0.0141971
-0.0178211
-0.0213979
-0.0249307
-0.0284228
-0.0318769
-0.0352959
-0.0386824
-0.042039
-0.0453679
-0.0486714
-0.0519516
-0.0552104
-0.0584496
-0.061671
-0.0648762
-0.0680666
-0.0712437
-0.0744088
-0.0775632
-0.0807079
-0.0838441
-0.0869729
-0.0900952
-0.093212
-0.0963242
-0.0994328
-0.102538
-0.105642
-0.108744
0.217671
0.211871
0.206216
0.200807
0.19571
0.190975
0.186627
0.182661
0.179063
0.175801
0.172829
0.170107
0.167583
0.165203
0.16293
0.160713
0.158542
0.156324
0.154111
0.151803
0.149412
0.146912
0.144334
0.141712
0.139087
0.136478
0.13388
0.131282
0.128685
0.126098
0.12354
0.121043
0.118632
0.116334
0.114157
0.112104
0.110172
0.108352
0.106622
0.104965
0.103365
0.10181
0.100296
0.0988211
0.097378
0.0959636
0.0945752
0.093212
0.0918731
0.0905604
0.0892684
0.0879951
0.0867369
0.0854868
0.0842471
0.0830116
0.0817735
0.0805321
0.0792809
0.0780129
0.0767215
0.0753927
0.0740163
0.0725843
0.0710588
0.0694323
0.0676829
0.0657987
0.0637664
0.0615766
0.0592189
0.0566804
0.053952
0.0510316
0.0479076
0.0445736
0.0410225
0.0372656
0.0333053
0.029167
0.0249111
0.0205979
0.0163873
0.0122665
0.00822935
0.00426953
0.000381238
-0.00344076
-0.00720111
-0.0109041
-0.0145537
-0.0181536
-0.0217072
-0.0252178
-0.0286885
-0.0321223
-0.035522
-0.0388902
-0.0422295
-0.0455422
-0.0488304
-0.0520963
-0.0553418
-0.0585686
-0.0617785
-0.064973
-0.0681535
-0.0713213
-0.0744778
-0.0776242
-0.0807615
-0.0838908
-0.087013
-0.0901293
-0.0932403
-0.096347
-0.0994502
-0.102551
-0.105649
-0.108747
0.217782
0.212209
0.206777
0.201565
0.196639
0.192055
0.187839
0.183995
0.180503
0.177319
0.174407
0.171718
0.169199
0.166808
0.164509
0.162235
0.160006
0.15771
0.155404
0.152969
0.150419
0.147761
0.145022
0.142238
0.139447
0.136669
0.133902
0.131134
0.128354
0.125571
0.122813
0.120119
0.117522
0.115049
0.112715
0.110527
0.108478
0.106558
0.104748
0.10303
0.101383
0.0997894
0.0982416
0.0967375
0.0952704
0.0938352
0.0924287
0.0910504
0.0896989
0.0883774
0.0870812
0.085808
0.0845513
0.0833061
0.082071
0.0808413
0.0796126
0.0783822
0.0771458
0.0758961
0.0746258
0.0733227
0.0719713
0.070572
0.0690746
0.0674802
0.0657674
0.063922
0.0619331
0.0597946
0.0575001
0.0550386
0.0523974
0.0495703
0.0465471
0.0433212
0.0398807
0.0362314
0.0323762
0.0283337
0.024156
0.019891
0.015725
0.0116459
0.00764742
0.00372371
-0.000130645
-0.00392044
-0.00765009
-0.0113237
-0.0149451
-0.0185179
-0.0220455
-0.0255313
-0.0289783
-0.0323896
-0.0357679
-0.0391159
-0.0424362
-0.045731
-0.0490025
-0.0522528
-0.0554837
-0.058697
-0.0618943
-0.0650771
-0.0682468
-0.0714047
-0.0745519
-0.0776897
-0.080819
-0.0839408
-0.0870561
-0.0901657
-0.0932705
-0.0963714
-0.0994689
-0.102564
-0.105657
-0.10875
0.217897
0.212549
0.207328
0.202313
0.197576
0.193168
0.189109
0.185397
0.182009
0.178905
0.176049
0.173386
0.170866
0.168459
0.166132
0.163818
0.161535
0.159169
0.156748
0.154196
0.15153
0.148746
0.145865
0.142932
0.139974
0.137012
0.134054
0.131099
0.128131
0.125149
0.12218
0.119273
0.116469
0.113804
0.111302
0.108974
0.106805
0.104777
0.102873
0.101077
0.099373
0.0977384
0.0961569
0.094624
0.0931325
0.0916749
0.0902485
0.0888527
0.0874873
0.0861551
0.0848518
0.0835757
0.082319
0.0810773
0.0798459
0.0786217
0.0774012
0.0761807
0.0749561
0.0737225
0.0724704
0.0711856
0.0698597
0.068487
0.0670139
0.0654418
0.0637567
0.0619451
0.0599954
0.0579024
0.0556629
0.0532687
0.0507094
0.0479757
0.0450546
0.0419329
0.0386005
0.0350662
0.0313324
0.0274017
0.0233127
0.0191042
0.0149908
0.0109604
0.00700689
0.00312478
-0.000690773
-0.00444407
-0.00813917
-0.0117799
-0.0153699
-0.0189128
-0.0224117
-0.0258702
-0.0292912
-0.0326777
-0.0360326
-0.0393586
-0.0426581
-0.0459334
-0.0491868
-0.0524201
-0.0556353
-0.058834
-0.0620178
-0.065188
-0.0683461
-0.0714933
-0.0746306
-0.0777591
-0.0808799
-0.0839938
-0.0871016
-0.0902043
-0.0933026
-0.0963971
-0.0994887
-0.102578
-0.105666
-0.108752
0.218008
0.212881
0.207876
0.203066
0.198527
0.194305
0.190412
0.186841
0.183561
0.180537
0.177729
0.175091
0.172582
0.170169
0.167822
0.165472
0.16313
0.160707
0.158196
0.15555
0.152777
0.149886
0.146893
0.143819
0.14069
0.137533
0.134369
0.131207
0.128038
0.124845
0.121654
0.118524
0.115509
0.112646
0.109962
0.107473
0.105168
0.103027
0.101027
0.0991498
0.0973772
0.0956866
0.0940617
0.092496
0.090979
0.0895004
0.0880554
0.0866414
0.0852599
0.0839149
0.0826027
0.0813207
0.0800617
0.0788208
0.077592
0.0763725
0.0751592
0.0739477
0.0727337
0.0715126
0.0702752
0.0690054
0.0676964
0.0663315
0.0648724
0.0633215
0.0616596
0.0598731
0.0579533
0.0558962
0.0537021
0.051368
0.048888
0.0462501
0.0434386
0.040438
0.0372314
0.0338129
0.0301925
0.0263777
0.0223868
0.0182435
0.0141905
0.0102152
0.00631209
0.00247631
-0.00129626
-0.0050093
-0.00866643
-0.0122711
-0.0158268
-0.0193369
-0.0228046
-0.0262332
-0.0296259
-0.0329855
-0.036315
-0.0396171
-0.0428941
-0.0461484
-0.0493822
-0.0525973
-0.0557956
-0.0589786
-0.062148
-0.0653049
-0.0684506
-0.0715864
-0.0747132
-0.0778321
-0.0809438
-0.0840493
-0.0871494
-0.0902447
-0.093336
-0.096424
-0.0995093
-0.102593
-0.105674
-0.108755
0.218122
0.213223
0.208442
0.203851
0.199517
0.195475
0.191736
0.188288
0.185107
0.182163
0.179415
0.176813
0.174322
0.171907
0.169543
0.167163
0.164771
0.16229
0.1597
0.156984
0.154144
0.151175
0.148082
0.144879
0.141588
0.138234
0.134851
0.131466
0.128077
0.124667
0.121249
0.117896
0.114667
0.111598
0.108712
0.106041
0.103591
0.101338
0.0992349
0.097269
0.0954202
0.0936707
0.091998
0.0903919
0.0888396
0.087333
0.0858686
0.0844371
0.0830391
0.0816793
0.0803551
0.0790634
0.0777985
0.0765549
0.0753267
0.0741108
0.0729038
0.0717001
0.0704962
0.0692854
0.0680606
0.0668077
0.0655157
0.0641562
0.0626992
0.0611495
0.0594944
0.0577208
0.0558197
0.0537902
0.0516361
0.0493582
0.0469539
0.0444111
0.0417069
0.0388175
0.0357307
0.0324408
0.0289492
0.0252607
0.0213818
0.0173159
0.013331
0.00941645
0.00556808
0.00178234
-0.00194391
-0.0056136
-0.00922979
-0.0127956
-0.0163142
-0.0197888
-0.0232227
-0.0266191
-0.0299811
-0.0333117
-0.0366138
-0.0398901
-0.043143
-0.0463748
-0.0495876
-0.0527833
-0.0559636
-0.05913
-0.062284
-0.0654268
-0.0685596
-0.0716834
-0.0747992
-0.0779078
-0.0810102
-0.0841069
-0.0871989
-0.0902866
-0.0933707
-0.0964519
-0.0995307
-0.102608
-0.105683
-0.108758
0.218239
0.213576
0.209029
0.204661
0.200527
0.196663
0.193076
0.189757
0.18668
0.183814
0.181116
0.178548
0.176076
0.173665
0.171284
0.16888
0.166439
0.163907
0.161263
0.158502
0.155613
0.152579
0.149396
0.146075
0.142634
0.139094
0.135496
0.131878
0.128264
0.124642
0.121009
0.11742
0.113953
0.110664
0.107583
0.10473
0.102109
0.0997123
0.0975037
0.0954532
0.0935304
0.0917174
0.0899909
0.0883396
0.0867482
0.0852078
0.083716
0.0822622
0.0808437
0.0794637
0.0781232
0.07682
0.0755477
0.0742984
0.0730681
0.0718538
0.0706512
0.0694542
0.0682585
0.0670571
0.0658421
0.0646024
0.0633205
0.0619654
0.0605146
0.0589668
0.0573125
0.0555452
0.0536592
0.0516518
0.0495273
0.0472916
0.0449477
0.0424887
0.0398861
0.0371096
0.0341479
0.0309875
0.0276234
0.0240665
0.0203116
0.016333
0.0124215
0.00857132
0.00478047
0.00104718
-0.00263043
-0.00625439
-0.00982721
-0.0133516
-0.0168306
-0.0202672
-0.0236648
-0.0270265
-0.0303555
-0.0336549
-0.0369276
-0.0401763
-0.0434034
-0.0466112
-0.0498017
-0.0529768
-0.0561381
-0.059287
-0.0624249
-0.0655529
-0.0686721
-0.0717834
-0.0748878
-0.0779859
-0.0810784
-0.0841662
-0.0872497
-0.0903296
-0.0934063
-0.0964805
-0.0995526
-0.102623
-0.105693
-0.108761
0.21836
0.213934
0.209617
0.205468
0.201537
0.197852
0.194418
0.191222
0.188243
0.185453
0.182812
0.180284
0.177831
0.175425
0.173032
0.170609
0.168133
0.165565
0.162889
0.160092
0.157153
0.154057
0.150793
0.147367
0.143792
0.140088
0.136291
0.132447
0.128594
0.124737
0.120887
0.117073
0.113374
0.109861
0.106571
0.103525
0.100733
0.0981874
0.09586
0.0937155
0.0917142
0.0898339
0.088052
0.0863535
0.0847228
0.0831496
0.0816285
0.0801532
0.0787173
0.0773176
0.075955
0.0746286
0.0733367
0.0720732
0.0708341
0.0696162
0.068415
0.0672236
0.0660351
0.0648417
0.0636344
0.0624027
0.0611259
0.0597747
0.0583312
0.056789
0.0551389
0.053379
0.0515074
0.0495223
0.047426
0.045226
0.0429284
0.0405372
0.0380293
0.0353616
0.0325178
0.0294868
0.0262576
0.0228363
0.0192046
0.0153094
0.0114724
0.00768761
0.00395508
0.000275077
-0.00335269
-0.00692935
-0.0104568
-0.0139376
-0.0173744
-0.0207705
-0.0241292
-0.0274537
-0.0307474
-0.0340134
-0.0372547
-0.040474
-0.0436737
-0.0468561
-0.0500231
-0.0531765
-0.0563178
-0.0594484
-0.0625695
-0.0656822
-0.0687873
-0.0718857
-0.0749782
-0.0780654
-0.081148
-0.0842265
-0.0873014
-0.0903733
-0.0934425
-0.0965096
-0.0995749
-0.102639
-0.105702
-0.108764
0.218479
0.214291
0.210204
0.206275
0.202543
0.199031
0.195743
0.192669
0.189786
0.187072
0.18449
0.182001
0.179571
0.177177
0.17478
0.172345
0.169848
0.167259
0.164559
0.161726
0.158746
0.155599
0.152267
0.148747
0.145048
0.141191
0.137216
0.133165
0.129081
0.124998
0.120922
0.116876
0.112953
0.109221
0.10572
0.102479
0.0995063
0.0967972
0.094328
0.0920708
0.0899858
0.0880392
0.0861984
0.084446
0.0827687
0.0811569
0.0796015
0.0780976
0.0766382
0.075219
0.0738389
0.0724958
0.0711865
0.0699068
0.0686553
0.0674286
0.0662221
0.0650297
0.0638446
0.0626579
0.0614579
0.0602295
0.0589519
0.0575993
0.0561605
0.0546253
0.0529855
0.0512363
0.0493784
0.0474159
0.0453511
0.0431907
0.0409401
0.0386057
0.0361764
0.0336071
0.0308747
0.0279669
0.0248646
0.0215688
0.0180626
0.0142521
0.0104914
0.00677235
0.00309728
-0.000530148
-0.00410808
-0.00763661
-0.0111172
-0.0145522
-0.0179445
-0.0212974
-0.0246145
-0.0278993
-0.0311552
-0.0343856
-0.0375934
-0.0407814
-0.0439522
-0.0471077
-0.05025
-0.0533808
-0.0565013
-0.0596129
-0.0627167
-0.0658135
-0.0689041
-0.0719893
-0.0750697
-0.0781458
-0.0812182
-0.0842873
-0.0873535
-0.0904173
-0.0934789
-0.0965388
-0.0995973
-0.102655
-0.105711
-0.108767
0.218601
0.214651
0.210793
0.207074
0.20353
0.200183
0.197039
0.194088
0.191308
0.188676
0.186154
0.183706
0.181304
0.178929
0.176536
0.174097
0.171588
0.168985
0.166266
0.163413
0.160407
0.157214
0.153814
0.150193
0.146366
0.142363
0.138224
0.133982
0.12969
0.125401
0.12111
0.116849
0.112705
0.108749
0.105031
0.101584
0.098418
0.0955335
0.0929147
0.0905359
0.0883549
0.0863324
0.0844303
0.0826263
0.0809059
0.0792569
0.0776691
0.076136
0.0746511
0.0732101
0.0718087
0.0704444
0.0691141
0.0678153
0.0665477
0.065309
0.0640944
0.062897
0.0617092
0.0605242
0.0593275
0.058099
0.0568174
0.0554594
0.0540214
0.0524889
0.0508593
0.0491274
0.0472911
0.0453524
0.0433189
0.0411984
0.0389978
0.0367203
0.0343588
0.0318755
0.0292425
0.0264472
0.0234708
0.0202953
0.0168976
0.0131566
0.009481
0.00583046
0.00221128
-0.00136568
-0.00489487
-0.00837506
-0.0118074
-0.0151945
-0.0185397
-0.0218466
-0.0251192
-0.0283615
-0.031577
-0.0347693
-0.0379416
-0.0410966
-0.0442368
-0.0473643
-0.0504809
-0.053588
-0.0566871
-0.0597791
-0.062865
-0.0659456
-0.0690215
-0.0720933
-0.0751614
-0.0782263
-0.0812884
-0.0843481
-0.0874056
-0.0904612
-0.0935152
-0.096568
-0.0996196
-0.10267
-0.105721
-0.108771
0.218719
0.215002
0.211365
0.207852
0.204496
0.201315
0.198314
0.195481
0.192805
0.190258
0.187798
0.185403
0.183036
0.180685
0.178302
0.175867
0.173355
0.170742
0.168009
0.165138
0.162091
0.158835
0.155351
0.151624
0.147674
0.143531
0.139237
0.134831
0.130362
0.125882
0.121405
0.116958
0.112601
0.108428
0.104503
0.100853
0.0974938
0.0944279
0.0916406
0.0891149
0.0868192
0.0847109
0.0827434
0.0808869
0.0791218
0.0774357
0.0758178
0.074259
0.0727512
0.0712895
0.0698684
0.0684841
0.0671338
0.0658159
0.0645307
0.063277
0.0620508
0.0608448
0.0596504
0.0584628
0.0572628
0.0560298
0.0547443
0.0533807
0.051943
0.0504139
0.0487933
0.0470753
0.0452662
0.0433592
0.0413625
0.0392828
0.037129
0.0349057
0.0326059
0.030199
0.0276537
0.0249478
0.0220617
0.0189882
0.0156873
0.0119598
0.0084283
0.00486323
0.0012995
-0.00223024
-0.00571271
-0.00914476
-0.0125276
-0.0158644
-0.0191593
-0.0224169
-0.0256418
-0.0288383
-0.0320107
-0.0351625
-0.0382971
-0.0414173
-0.0445255
-0.0476237
-0.0507135
-0.0537964
-0.0568734
-0.0599454
-0.0630132
-0.0660773
-0.0691383
-0.0721965
-0.0752524
-0.0783061
-0.081358
-0.0844082
-0.087457
-0.0905046
-0.0935511
-0.0965967
-0.0996416
-0.102686
-0.10573
-0.108774
0.218834
0.215344
0.211924
0.208612
0.205439
0.202425
0.199571
0.196867
0.194296
0.191831
0.189435
0.187095
0.184765
0.182446
0.180086
0.177666
0.175154
0.172534
0.169789
0.166894
0.163796
0.160461
0.156871
0.153015
0.148919
0.144624
0.140173
0.135604
0.130968
0.126325
0.121701
0.117108
0.11259
0.108241
0.104119
0.100267
0.0967113
0.0934579
0.090496
0.0878149
0.0853904
0.0831808
0.0811373
0.0792246
0.0774161
0.0756956
0.0740499
0.0724674
0.0709391
0.069461
0.0680242
0.0666235
0.0652561
0.0639203
0.0626173
0.0613474
0.0601077
0.0588909
0.0576888
0.0564948
0.0552875
0.054045
0.0527539
0.051385
0.0499508
0.0484331
0.0468241
0.045125
0.0433429
0.041471
0.0395161
0.0374822
0.0353764
0.0332039
0.030957
0.0286078
0.0261297
0.0235063
0.0207152
0.0177256
0.0144506
0.0100567
0.00732507
0.00387676
0.000364206
-0.00312418
-0.00656303
-0.00994721
-0.0132786
-0.016562
-0.0198029
-0.0230072
-0.0261804
-0.0293277
-0.0324538
-0.0355625
-0.0386573
-0.0417409
-0.0448157
-0.0478835
-0.0509459
-0.0540038
-0.0570584
-0.0601101
-0.0631596
-0.0662072
-0.0692533
-0.0722981
-0.0753417
-0.0783843
-0.081426
-0.084467
-0.0875073
-0.0905469
-0.0935861
-0.0966247
-0.0996631
-0.102701
-0.105739
-0.108777
0.218946
0.215677
0.21247
0.209358
0.206367
0.203518
0.200812
0.198235
0.19577
0.193396
0.191077
0.188799
0.186516
0.184233
0.181894
0.17948
0.176967
0.174338
0.171572
0.168625
0.165444
0.16202
0.158321
0.154332
0.150084
0.145619
0.14098
0.136218
0.131413
0.126633
0.121898
0.117209
0.112588
0.1081
0.103819
0.0997977
0.0960533
0.0926071
0.0894602
0.0866076
0.0840342
0.081707
0.079578
0.0776042
0.0757531
0.0740027
0.0723373
0.0707382
0.0691975
0.0677103
0.0662639
0.0648533
0.0634739
0.0621239
0.0608064
0.059524
0.0582735
0.0570484
0.0558412
0.0546397
0.0534269
0.0521784
0.0508839
0.0495137
0.0480806
0.0465794
0.0449881
0.0433161
0.0415675
0.0397378
0.0378306
0.035848
0.0337931
0.0316645
0.029457
0.0271483
0.02472
0.0221543
0.0194328
0.0165418
0.0134378
0.00989181
0.00642234
0.00291564
-0.000588876
-0.00404978
-0.00744962
-0.0107858
-0.0140629
-0.0172883
-0.0204701
-0.023616
-0.026733
-0.0298271
-0.0329034
-0.0359663
-0.039019
-0.0420644
-0.0451046
-0.0481412
-0.0511754
-0.0542081
-0.05724
-0.0602714
-0.0633027
-0.0663339
-0.0693653
-0.0723968
-0.0754284
-0.0784601
-0.081492
-0.0845239
-0.0875559
-0.0905878
-0.0936198
-0.0966518
-0.0996838
-0.102716
-0.105748
-0.10878
0.219057
0.216007
0.213011
0.210099
0.207294
0.204611
0.202046
0.199595
0.197244
0.194969
0.192731
0.190519
0.188294
0.186051
0.183737
0.181336
0.178834
0.176184
0.173374
0.170341
0.167043
0.163486
0.159642
0.155515
0.151116
0.146467
0.14162
0.136661
0.131696
0.126786
0.121951
0.117186
0.112499
0.107935
0.103551
0.099387
0.0954714
0.0918378
0.0885012
0.0854673
0.08273
0.0802666
0.0780365
0.0759927
0.0740949
0.0723153
0.070635
0.0690288
0.0674866
0.0659994
0.0645527
0.0631416
0.0617601
0.0604058
0.0590832
0.0577977
0.0565466
0.0553229
0.0541198
0.0529188
0.0517065
0.0504602
0.049166
0.0478097
0.0463881
0.0449036
0.0433402
0.0417038
0.0399993
0.0382272
0.0363881
0.0344807
0.0324979
0.0304168
0.0282274
0.0259067
0.023468
0.0209185
0.0182494
0.0154227
0.0124083
0.00900967
0.00547201
0.0019369
-0.00157113
-0.00501551
-0.00838024
-0.0116665
-0.014884
-0.0180448
-0.0211606
-0.0242418
-0.027297
-0.0303332
-0.0333561
-0.0363702
-0.0393788
-0.0423844
-0.045389
-0.0483937
-0.0513995
-0.0544069
-0.0574162
-0.0604275
-0.0634408
-0.0664559
-0.0694729
-0.0724914
-0.0755114
-0.0785327
-0.081555
-0.0845782
-0.0876022
-0.0906269
-0.093652
-0.0966776
-0.0997035
-0.10273
-0.105756
-0.108782
0.219165
0.216327
0.213535
0.210818
0.208195
0.205679
0.203269
0.200958
0.198732
0.196562
0.194419
0.192283
0.190125
0.187924
0.185634
0.183233
0.18071
0.178014
0.175138
0.172011
0.168602
0.164891
0.160858
0.156538
0.151942
0.147084
0.142015
0.136862
0.131756
0.126744
0.121827
0.117
0.112272
0.107669
0.103216
0.0989415
0.0948813
0.0910744
0.087555
0.0843423
0.0814345
0.0788184
0.0764675
0.0743357
0.0723799
0.0705688
0.0688758
0.0672694
0.0657348
0.0642563
0.0628206
0.0614227
0.0600577
0.0587193
0.0574141
0.0561456
0.0549142
0.0537098
0.0525279
0.0513473
0.0501552
0.0489351
0.0476643
0.0463403
0.0449489
0.0434916
0.0419589
0.0403557
0.0387048
0.0370169
0.035299
0.0335379
0.031703
0.0296776
0.027465
0.0250408
0.0224761
0.0198355
0.0171319
0.0143302
0.0113839
0.00805223
0.00446779
0.000925476
-0.00259794
-0.00603737
-0.00936833
-0.0125986
-0.015747
-0.018833
-0.0218735
-0.024882
-0.0278687
-0.0308419
-0.0338075
-0.0367699
-0.0397324
-0.042697
-0.0456653
-0.0486379
-0.0516153
-0.0545976
-0.0575847
-0.0605763
-0.0635721
-0.0665717
-0.0695748
-0.072581
-0.0755899
-0.0786011
-0.0816144
-0.0846294
-0.0876458
-0.0906635
-0.0936822
-0.0967018
-0.099722
-0.102743
-0.105764
-0.108785
0.21927
0.21664
0.21405
0.211526
0.209084
0.20674
0.204492
0.202333
0.200246
0.19819
0.196157
0.194114
0.19203
0.189874
0.187605
0.185194
0.182628
0.179867
0.17689
0.173622
0.170034
0.166106
0.161863
0.157345
0.152534
0.147424
0.142108
0.136759
0.131524
0.126428
0.121459
0.116601
0.111874
0.107254
0.102744
0.0983744
0.0941932
0.0902437
0.0865661
0.0831918
0.0801198
0.0773409
0.074849
0.0726053
0.0705651
0.0686979
0.0669754
0.0653619
0.0638337
0.0623698
0.0609554
0.0595894
0.0582744
0.056995
0.0557549
0.0545319
0.0533548
0.0521886
0.0510516
0.0499156
0.0487836
0.0476379
0.0464571
0.0452071
0.0438627
0.0424676
0.0409574
0.0393525
0.0377466
0.0361696
0.0347131
0.0332499
0.0317699
0.029795
0.0274608
0.0248193
0.0219527
0.0190406
0.0161691
0.0132684
0.0103082
0.00700018
0.00323829
-0.000181517
-0.00370912
-0.00714698
-0.010436
-0.0135947
-0.0166573
-0.0196536
-0.0226065
-0.0255324
-0.0284432
-0.0313477
-0.0342519
-0.0371601
-0.0400749
-0.0429978
-0.0459295