0 	1.45182e-20 	0 	-4.71843e-20
0.010101 	-2.01464e-20 	1.35517e-22 	-1.08489e-19
0.020202 	-2.80328e-20 	-3.36237e-23 	-1.11871e-19
0.030303 	-1.14044e-20 	-2.02764e-22 	-2.12666e-20
0.040404 	6.59713e-20 	1.69141e-22 	-2.55753e-20
0.0505051 	-1.99127e-22 	-3.41347e-23 	5.92472e-20
