0 	-11.4976
0.010101 	-7.27868
0.020202 	-6.8466
0.030303 	-7.25876
0.040404 	-7.27868
0.0505051 	-7.27868
0.0606061 	-7.27868
0.0707071 	-7.27868
