0 	1.51961e-10 	0 	-3.2964e-10
0.010101 	3.60833e-10 	0 	1.83266e-11
0.020202 	1.7559e-11 	0 	1.04781e-12
0.030303 	9.97882e-13 	0 	6.12875e-14
0.040404 	6.07575e-14 	0 	3.7841e-15
0.0505051 	3.82282e-15 	0 	2.40211e-16
0.0606061 	2.44589e-16 	0 	1.57613e-17
0.0707071 	1.566e-17 	0 	1.34765e-18
