0 	1.08887e-20 	0 	-4.71843e-20
0.010101 	2.97792e-20 	3.04657e-22 	1.00172e-20
0.020202 	2.29644e-20 	6.8099e-23 	-7.44625e-20
0.030303 	-4.968e-20 	-2.03105e-22 	-1.93756e-20
0.040404 	-2.73768e-21 	-1.35517e-22 	-1.92355e-20
0.0505051 	-8.03752e-20 	6.74177e-23 	3.80351e-20
