0.010101 	6.30767e-23 	-1.44186e-26 	-2.61623e-24
0.020202 	1.27824e-23 	2.60389e-26 	2.63076e-24
