/*--------------------------------*- C++ -*----------------------------------*\
  =========                 |
  \\      /  F ield         | OpenFOAM: The Open Source CFD Toolbox
   \\    /   O peration     | Website:  https://openfoam.org
    \\  /    A nd           | Version:  6
     \\/     M anipulation  |
\*---------------------------------------------------------------------------*/
FoamFile
{
    version     2.0;
    format      ascii;
    class       surfaceScalarField;
    location    "7900";
    object      phi;
}
// * * * * * * * * * * * * * * * * * * * * * * * * * * * * * * * * * * * * * //

dimensions      [0 3 -1 0 0 0 0];

internalField   nonuniform List<scalar> 
9440
(
1.32642e-13
-1.32642e-13
2.63312e-13
-1.3109e-13
3.92549e-13
-1.29572e-13
5.18642e-13
-1.26415e-13
6.40957e-13
-1.22633e-13
7.59069e-13
-1.18429e-13
8.72563e-13
-1.13811e-13
9.81315e-13
-1.09063e-13
1.0852e-12
-1.04189e-13
1.18434e-12
-9.94503e-14
1.27879e-12
-9.4752e-14
1.36869e-12
-9.01881e-14
1.4543e-12
-8.59068e-14
1.53543e-12
-8.14098e-14
1.61195e-12
-7.68029e-14
1.6834e-12
-7.1717e-14
1.74962e-12
-6.64869e-14
1.81254e-12
-6.31799e-14
1.87052e-12
-5.82254e-14
1.92234e-12
-5.20593e-14
1.96705e-12
-4.4946e-14
2.009e-12
-4.21729e-14
2.04383e-12
-3.50489e-14
2.07199e-12
-2.83664e-14
2.09429e-12
-2.24901e-14
2.11033e-12
-1.62245e-14
2.12003e-12
-9.87991e-15
2.12371e-12
-3.84379e-15
2.12119e-12
2.36501e-15
2.1131e-12
7.95447e-15
2.09984e-12
1.31332e-14
2.0817e-12
1.80243e-14
2.0591e-12
2.24919e-14
2.03263e-12
2.63759e-14
2.00268e-12
2.98692e-14
1.96951e-12
3.31114e-14
1.93363e-12
3.58233e-14
1.89533e-12
3.82543e-14
1.8551e-12
4.02044e-14
1.81318e-12
4.19016e-14
1.7698e-12
4.33763e-14
1.72522e-12
4.45903e-14
1.67966e-12
4.55938e-14
1.63336e-12
4.63335e-14
1.58621e-12
4.72094e-14
1.53847e-12
4.78049e-14
1.48996e-12
4.85819e-14
1.44137e-12
4.86853e-14
1.39237e-12
4.91064e-14
1.34315e-12
4.93326e-14
1.2938e-12
4.94881e-14
1.24417e-12
4.97678e-14
1.1945e-12
4.98336e-14
1.14486e-12
4.98022e-14
1.09525e-12
4.97882e-14
1.04592e-12
4.95214e-14
9.96718e-13
4.94091e-14
9.47924e-13
4.90086e-14
8.99289e-13
4.886e-14
8.5119e-13
4.83337e-14
8.03654e-13
4.77796e-14
7.56672e-13
4.72367e-14
7.1032e-13
4.66149e-14
6.64603e-13
4.59894e-14
6.19585e-13
4.52995e-14
5.75347e-13
4.45244e-14
5.31867e-13
4.37768e-14
4.89157e-13
4.30114e-14
4.47211e-13
4.22557e-14
4.06264e-13
4.12631e-14
3.66331e-13
4.02525e-14
3.27591e-13
3.9065e-14
2.9044e-13
3.7481e-14
2.56108e-13
3.46668e-14
2.27954e-13
2.84882e-14
2.17111e-13
1.11837e-14
2.62406e-13
-4.49533e-14
1.36365e-13
1.26385e-13
-2.13831e-16
1.36924e-13
1.29372e-21
-7.94072e-23
1.29169e-21
-4.65289e-25
1.29759e-21
-4.80799e-24
1.32514e-21
-1.03398e-24
1.34784e-21
4.4461e-24
1.36278e-21
1.00813e-23
1.37002e-21
1.55613e-23
1.36945e-21
2.05244e-23
1.36195e-21
2.52807e-23
1.34779e-21
2.95717e-23
1.32768e-21
3.33457e-23
1.30219e-21
3.67578e-23
1.27184e-21
3.9653e-23
1.23731e-21
4.21345e-23
1.1991e-21
4.41508e-23
1.15779e-21
4.58051e-23
1.11406e-21
4.7201e-23
1.06815e-21
4.81833e-23
1.02053e-21
4.89071e-23
9.71834e-22
4.9424e-23
9.22255e-22
4.95791e-23
8.72107e-22
4.96825e-23
8.21959e-22
4.95791e-23
7.71915e-22
4.92173e-23
7.2187e-22
4.88037e-23
6.72395e-22
4.84418e-23
6.23332e-22
4.79765e-23
5.74942e-22
4.74595e-23
5.27379e-22
4.70459e-23
4.80385e-22
4.65806e-23
4.34166e-22
4.62187e-23
3.88723e-22
4.58568e-23
3.439e-22
4.55983e-23
2.99646e-22
4.52881e-23
2.56012e-22
4.51847e-23
2.12741e-22
4.50296e-23
1.69934e-22
4.49779e-23
1.27593e-22
4.50296e-23
8.54581e-23
4.51847e-23
4.32202e-23
4.55466e-23
4.65806e-23
1.34499e-13
-2.67562e-13
2.66039e-13
-2.63296e-13
3.95186e-13
-2.59301e-13
5.21527e-13
-2.53325e-13
6.4424e-13
-2.4591e-13
7.62589e-13
-2.3734e-13
8.76266e-13
-2.28044e-13
9.85059e-13
-2.18405e-13
1.08902e-12
-2.08693e-13
1.18807e-12
-1.99032e-13
1.28248e-12
-1.89688e-13
1.37247e-12
-1.80698e-13
1.45813e-12
-1.72078e-13
1.53932e-12
-1.63095e-13
1.6161e-12
-1.54073e-13
1.68733e-12
-1.43416e-13
1.75417e-12
-1.33778e-13
1.81755e-12
-1.27008e-13
1.87571e-12
-1.16817e-13
1.92748e-12
-1.04246e-13
1.97311e-12
-9.09722e-14
2.01494e-12
-8.439e-14
2.04997e-12
-7.04389e-14
2.07816e-12
-5.69051e-14
2.10062e-12
-4.52796e-14
2.11664e-12
-3.25495e-14
2.12614e-12
-1.96713e-14
2.1296e-12
-7.57297e-15
2.12678e-12
4.93044e-15
2.11838e-12
1.61313e-14
2.10473e-12
2.65749e-14
2.08618e-12
3.63919e-14
2.06316e-12
4.535e-14
2.03629e-12
5.31097e-14
2.00578e-12
6.02563e-14
1.97227e-12
6.65322e-14
1.936e-12
7.20174e-14
1.89739e-12
7.68166e-14
1.85683e-12
8.07394e-14
1.81466e-12
8.4075e-14
1.77095e-12
8.71082e-14
1.7263e-12
8.92927e-14
1.68059e-12
9.13665e-14
1.63402e-12
9.29986e-14
1.58682e-12
9.45357e-14
1.53902e-12
9.57417e-14
1.49051e-12
9.72554e-14
1.44175e-12
9.76462e-14
1.3928e-12
9.82695e-14
1.34349e-12
9.88711e-14
1.29408e-12
9.91551e-14
1.24439e-12
9.97381e-14
1.1946e-12
9.99256e-14
1.14494e-12
9.97889e-14
1.09526e-12
9.98151e-14
1.04578e-12
9.93619e-14
9.9657e-13
9.90051e-14
9.47622e-13
9.83574e-14
8.98981e-13
9.79212e-14
8.50806e-13
9.69499e-14
8.03186e-13
9.58547e-14
7.56241e-13
9.46536e-14
7.09838e-13
9.35087e-14
6.64093e-13
9.22392e-14
6.19074e-13
9.08347e-14
5.74818e-13
8.93109e-14
5.31194e-13
8.79402e-14
4.88424e-13
8.6336e-14
4.46535e-13
8.47078e-14
4.05493e-13
8.28774e-14
3.65327e-13
8.10011e-14
3.26172e-13
7.88099e-14
2.88103e-13
7.61462e-14
2.50968e-13
7.24016e-14
2.13881e-13
6.61836e-14
1.69538e-13
5.61427e-14
8.8181e-14
3.702e-14
4.9292e-14
1.65892e-13
-1.65436e-16
1.86867e-13
1.28049e-21
-3.37488e-22
1.28735e-21
-1.86116e-24
1.30131e-21
6.46235e-24
1.33057e-21
1.59749e-23
1.35353e-21
2.58494e-23
1.36821e-21
3.54137e-23
1.37498e-21
4.44093e-23
1.37421e-21
5.27845e-23
1.36624e-21
6.04876e-23
1.35156e-21
6.73635e-23
1.33114e-21
7.36191e-23
1.30503e-21
7.89958e-23
1.27427e-21
8.37003e-23
1.23927e-21
8.76295e-23
1.20081e-21
9.08865e-23
1.15924e-21
9.34714e-23
1.11504e-21
9.53843e-23
1.06882e-21
9.68318e-23
1.021e-21
9.78141e-23
9.72041e-22
9.82277e-23
9.22358e-22
9.85379e-23
8.72055e-22
9.84862e-23
8.21597e-22
9.82277e-23
7.71449e-22
9.77107e-23
7.21508e-22
9.70386e-23
6.71981e-22
9.63149e-23
6.22815e-22
9.56428e-23
5.74529e-22
9.50224e-23
5.26914e-22
9.4402e-23
4.80075e-22
9.38333e-23
4.33753e-22
9.33163e-23
3.88465e-22
9.30061e-23
3.4359e-22
9.27476e-23
2.99491e-22
9.25408e-23
2.55806e-22
9.24374e-23
2.12689e-22
9.24891e-23
1.69934e-22
9.26442e-23
1.27799e-22
9.29027e-23
8.582e-23
9.32646e-23
4.41508e-23
9.36782e-23
9.39884e-23
1.34787e-13
-4.02684e-13
2.69265e-13
-3.98355e-13
4.01295e-13
-3.91833e-13
5.29747e-13
-3.82271e-13
6.53862e-13
-3.70516e-13
7.73185e-13
-3.57147e-13
8.87363e-13
-3.42704e-13
9.96286e-13
-3.27802e-13
1.10003e-12
-3.12914e-13
1.19887e-12
-2.98326e-13
1.29287e-12
-2.84155e-13
1.3825e-12
-2.70776e-13
1.46785e-12
-2.57863e-13
1.54897e-12
-2.44645e-13
1.62564e-12
-2.31174e-13
1.69627e-12
-2.14458e-13
1.76415e-12
-2.02058e-13
1.82811e-12
-1.91346e-13
1.88647e-12
-1.75549e-13
1.93791e-12
-1.56046e-13
1.98547e-12
-1.38883e-13
2.02736e-12
-1.26608e-13
2.0625e-12
-1.05902e-13
2.0909e-12
-8.56062e-14
2.11357e-12
-6.8237e-14
2.12931e-12
-4.85639e-14
2.13854e-12
-2.91535e-14
2.14144e-12
-1.07092e-14
2.13804e-12
8.10969e-15
2.12899e-12
2.49864e-14
2.11448e-12
4.09072e-14
2.095e-12
5.57104e-14
2.07113e-12
6.90711e-14
2.04345e-12
8.0671e-14
2.0121e-12
9.15028e-14
1.97767e-12
1.00878e-13
1.94063e-12
1.0899e-13
1.90128e-12
1.16132e-13
1.86019e-12
1.218e-13
1.81753e-12
1.26741e-13
1.7734e-12
1.31255e-13
1.72826e-12
1.34478e-13
1.68224e-12
1.37439e-13
1.6354e-12
1.39919e-13
1.58804e-12
1.41997e-13
1.54015e-12
1.43751e-13
1.49137e-12
1.46181e-13
1.44243e-12
1.46754e-13
1.39326e-12
1.47625e-13
1.34383e-12
1.48505e-13
1.29431e-12
1.48896e-13
1.24451e-12
1.49776e-13
1.19455e-12
1.50138e-13
1.14469e-12
1.49938e-13
1.09477e-12
1.50021e-13
1.04521e-12
1.4924e-13
9.95837e-13
1.48711e-13
9.4682e-13
1.47723e-13
8.98011e-13
1.47092e-13
8.49725e-13
1.45616e-13
8.02023e-13
1.43952e-13
7.54855e-13
1.42229e-13
7.08338e-13
1.4045e-13
6.62532e-13
1.3848e-13
6.17427e-13
1.36385e-13
5.73011e-13
1.34187e-13
5.29446e-13
1.31974e-13
4.86603e-13
1.29659e-13
4.44591e-13
1.27208e-13
4.03451e-13
1.24514e-13
3.63099e-13
1.21858e-13
3.2344e-13
1.18978e-13
2.84257e-13
1.15846e-13
2.44888e-13
1.12293e-13
2.03038e-13
1.08561e-13
1.53519e-13
1.06193e-13
8.01468e-14
1.10924e-13
4.56042e-14
2.00973e-13
-1.57962e-16
2.3306e-13
1.29372e-21
-5.02924e-22
1.29573e-21
-2.94683e-24
1.31082e-21
1.20458e-23
1.34045e-21
2.72453e-23
1.36309e-21
4.20311e-23
1.3772e-21
5.61966e-23
1.3833e-21
6.95349e-23
1.38181e-21
8.18392e-23
1.37312e-21
9.31095e-23
1.35782e-21
1.03346e-22
1.33647e-21
1.12445e-22
1.30984e-21
1.20355e-22
1.2782e-21
1.27076e-22
1.24248e-21
1.32814e-22
1.20339e-21
1.37364e-22
1.16115e-21
1.41034e-22
1.11649e-21
1.43878e-22
1.0698e-21
1.45791e-22
1.02146e-21
1.47031e-22
9.72299e-22
1.47807e-22
9.22255e-22
1.48014e-22
8.71745e-22
1.47807e-22
8.21132e-22
1.47342e-22
7.70829e-22
1.46669e-22
7.20785e-22
1.45791e-22
6.71257e-22
1.4486e-22
6.22195e-22
1.43826e-22
5.73908e-22
1.42895e-22
5.26345e-22
1.41965e-22
4.79506e-22
1.41189e-22
4.33546e-22
1.40672e-22
3.88206e-22
1.40207e-22
3.43435e-22
1.39897e-22
2.99388e-22
1.39897e-22
2.55857e-22
1.39897e-22
2.12844e-22
1.4e-22
1.70244e-22
1.40311e-22
1.28161e-22
1.40724e-22
8.62336e-23
1.41241e-22
4.4461e-23
1.41706e-22
1.42275e-22
1.38687e-13
-5.4169e-13
2.76123e-13
-5.36355e-13
4.10956e-13
-5.27157e-13
5.41729e-13
-5.13527e-13
6.67544e-13
-4.96811e-13
7.87905e-13
-4.77984e-13
9.02521e-13
-4.57794e-13
1.01149e-12
-4.37233e-13
1.11495e-12
-4.16832e-13
1.2132e-12
-3.97037e-13
1.30679e-12
-3.78195e-13
1.39609e-12
-3.60509e-13
1.48086e-12
-3.4307e-13
1.56224e-12
-3.26442e-13
1.63881e-12
-3.08156e-13
1.70909e-12
-2.85146e-13
1.77857e-12
-2.71924e-13
1.84332e-12
-2.56477e-13
1.90262e-12
-2.3521e-13
1.95313e-12
-2.06916e-13
2.00414e-12
-1.90231e-13
2.04575e-12
-1.68546e-13
2.08139e-12
-1.41853e-13
2.11026e-12
-1.14772e-13
2.13297e-12
-9.1229e-14
2.1485e-12
-6.43489e-14
2.1573e-12
-3.82048e-14
2.15935e-12
-1.29849e-14
2.15512e-12
1.21216e-14
2.14493e-12
3.49765e-14
2.12926e-12
5.64062e-14
2.10835e-12
7.64685e-14
2.08315e-12
9.41316e-14
2.05415e-12
1.09543e-13
2.02144e-12
1.24118e-13
1.9858e-12
1.36432e-13
1.94753e-12
1.47198e-13
1.9072e-12
1.56421e-13
1.86515e-12
1.63833e-13
1.82153e-12
1.70354e-13
1.77684e-12
1.75964e-13
1.7312e-12
1.80167e-13
1.68473e-12
1.83966e-13
1.63744e-12
1.87287e-13
1.58965e-12
1.89891e-13
1.54172e-12
1.91798e-13
1.49284e-12
1.95209e-13
1.44346e-12
1.96295e-13
1.39417e-12
1.97094e-13
1.34451e-12
1.98362e-13
1.29478e-12
1.9885e-13
1.24474e-12
2.00047e-13
1.19453e-12
2.0061e-13
1.14444e-12
2.00296e-13
1.09441e-12
2.00345e-13
1.04456e-12
1.99396e-13
9.94923e-13
1.98676e-13
9.45589e-13
1.97398e-13
8.96647e-13
1.96391e-13
8.48198e-13
1.94437e-13
8.00262e-13
1.92276e-13
7.52972e-13
1.89921e-13
7.06359e-13
1.87474e-13
6.60442e-13
1.84821e-13
6.15268e-13
1.81998e-13
5.70727e-13
1.79176e-13
5.26992e-13
1.76168e-13
4.8407e-13
1.73051e-13
4.42022e-13
1.69732e-13
4.00693e-13
1.66332e-13
3.60098e-13
1.62947e-13
3.20225e-13
1.59353e-13
2.8076e-13
1.55817e-13
2.40975e-13
1.52592e-13
1.99935e-13
1.50119e-13
1.57395e-13
1.49254e-13
1.15163e-13
1.53677e-13
4.89204e-14
2.67739e-13
-1.55964e-16
2.82557e-13
1.31027e-21
-6.41891e-22
1.31067e-21
-3.72231e-24
1.32607e-21
1.72674e-23
1.35518e-21
3.79986e-23
1.37726e-21
5.8006e-23
1.39054e-21
7.69795e-23
1.39571e-21
9.4919e-23
1.39313e-21
1.11411e-22
1.38336e-21
1.26507e-22
1.36692e-21
1.4e-22
1.34432e-21
1.51891e-22
1.31651e-21
1.62283e-22
1.28389e-21
1.71071e-22
1.24708e-21
1.78568e-22
1.20706e-21
1.84565e-22
1.164e-21
1.89373e-22
1.11835e-21
1.9294e-22
1.07099e-21
1.95473e-22
1.02224e-21
1.97024e-22
9.72506e-22
1.97851e-22
9.22048e-22
1.98058e-22
8.7128e-22
1.97748e-22
8.2046e-22
1.97076e-22
7.6995e-22
1.96094e-22
7.19854e-22
1.94956e-22
6.70171e-22
1.93664e-22
6.21316e-22
1.92371e-22
5.72978e-22
1.91286e-22
5.2557e-22
1.90252e-22
4.78938e-22
1.89373e-22
4.33081e-22
1.88701e-22
3.87844e-22
1.88235e-22
3.43435e-22
1.87977e-22
2.99388e-22
1.87873e-22
2.56064e-22
1.88132e-22
2.13154e-22
1.88545e-22
1.70658e-22
1.89011e-22
1.28627e-22
1.89735e-22
8.66989e-23
1.90407e-22
4.49779e-23
1.91079e-22
1.91751e-22
1.4397e-13
-6.85976e-13
2.85885e-13
-6.7883e-13
4.24467e-13
-6.66227e-13
5.5839e-13
-6.47927e-13
6.86351e-13
-6.2525e-13
8.07886e-13
-5.99986e-13
9.22986e-13
-5.7336e-13
1.03176e-12
-5.4647e-13
1.13465e-12
-5.20178e-13
1.23222e-12
-4.9505e-13
1.32502e-12
-4.71445e-13
1.41356e-12
-4.49479e-13
1.49793e-12
-4.27871e-13
1.57938e-12
-4.08307e-13
1.65517e-12
-3.84354e-13
1.72667e-12
-3.57047e-13
1.79759e-12
-3.43229e-13
1.86347e-12
-3.22729e-13
1.9232e-12
-2.95302e-13
1.97511e-12
-2.59177e-13
2.02823e-12
-2.43684e-13
2.07062e-12
-2.11256e-13
2.10671e-12
-1.78255e-13
2.13654e-12
-1.44897e-13
2.15919e-12
-1.14153e-13
2.17442e-12
-7.98444e-14
2.1827e-12
-4.6724e-14
2.18359e-12
-1.41001e-14
2.17803e-12
1.74675e-14
2.16654e-12
4.62708e-14
2.149e-12
7.37803e-14
2.12626e-12
9.90505e-14
2.09922e-12
1.21029e-13
2.06831e-12
1.40335e-13
2.03373e-12
1.58597e-13
1.99646e-12
1.73625e-13
1.95657e-12
1.87026e-13
1.9149e-12
1.98046e-13
1.87163e-12
2.07085e-13
1.82697e-12
2.15016e-13
1.78135e-12
2.21607e-13
1.73496e-12
2.26593e-13
1.68786e-12
2.31121e-13
1.64011e-12
2.35119e-13
1.59198e-12
2.38124e-13
1.54362e-12
2.40275e-13
1.49491e-12
2.44051e-13
1.44489e-12
2.46481e-13
1.39524e-12
2.46919e-13
1.34539e-12
2.48414e-13
1.29537e-12
2.49092e-13
1.24508e-12
2.50567e-13
1.19465e-12
2.51285e-13
1.14431e-12
2.50914e-13
1.09386e-12
2.51083e-13
1.04373e-12
2.49828e-13
9.93763e-13
2.48968e-13
9.44147e-13
2.47351e-13
8.94863e-13
2.46027e-13
8.46214e-13
2.43453e-13
7.98024e-13
2.40846e-13
7.50565e-13
2.37777e-13
7.03703e-13
2.34742e-13
6.57585e-13
2.31361e-13
6.12277e-13
2.27738e-13
5.67619e-13
2.24278e-13
5.23784e-13
2.20459e-13
4.80829e-13
2.1647e-13
4.3862e-13
2.12414e-13
3.97144e-13
2.08293e-13
3.56514e-13
2.04067e-13
3.16581e-13
1.99779e-13
2.77376e-13
1.95527e-13
2.38865e-13
1.9161e-13
2.00381e-13
1.89114e-13
1.63272e-13
1.86882e-13
1.25221e-13
1.92247e-13
5.12288e-14
3.42251e-13
-1.54215e-16
3.34357e-13
1.32681e-21
-8.00709e-22
1.33166e-21
-4.54949e-24
1.34675e-21
2.2489e-23
1.37524e-21
4.90622e-23
1.39623e-21
7.46531e-23
1.40843e-21
9.87964e-23
1.41215e-21
1.21389e-22
1.40822e-21
1.42172e-22
1.39685e-21
1.61145e-22
1.37881e-21
1.77947e-22
1.35477e-21
1.92785e-22
1.32535e-21
2.05658e-22
1.29133e-21
2.16566e-22
1.25313e-21
2.25614e-22
1.21182e-21
2.3311e-22
1.16757e-21
2.38848e-22
1.12093e-21
2.43036e-22
1.07259e-21
2.46035e-22
1.02302e-21
2.47896e-22
9.72764e-22
2.48826e-22
9.21738e-22
2.4893e-22
8.70608e-22
2.48464e-22
8.19529e-22
2.47482e-22
7.68813e-22
2.46293e-22
7.18613e-22
2.44845e-22
6.68879e-22
2.43295e-22
6.20179e-22
2.4195e-22
5.71944e-22
2.40399e-22
5.24691e-22
2.39262e-22
4.78317e-22
2.38435e-22
4.32564e-22
2.37763e-22
3.87586e-22
2.37349e-22
3.43332e-22
2.37194e-22
2.99646e-22
2.37401e-22
2.56478e-22
2.37814e-22
2.13619e-22
2.38435e-22
1.71381e-22
2.39262e-22
1.29299e-22
2.40089e-22
8.7371e-23
2.4102e-22
4.57017e-23
2.42054e-22
2.42778e-22
1.50802e-13
-8.37091e-13
2.98961e-13
-8.27539e-13
4.42943e-13
-8.10689e-13
5.80835e-13
-7.86287e-13
7.1154e-13
-7.56421e-13
8.34529e-13
-7.23439e-13
9.49922e-13
-6.89215e-13
1.05802e-12
-6.5502e-13
1.15977e-12
-6.22379e-13
1.25617e-12
-5.91894e-13
1.34779e-12
-5.63502e-13
1.4347e-12
-5.36815e-13
1.51934e-12
-5.12941e-13
1.59989e-12
-4.89256e-13
1.67369e-12
-4.58558e-13
1.74952e-12
-4.33272e-13
1.82158e-12
-4.15668e-13
1.8885e-12
-3.90026e-13
1.94732e-12
-3.54479e-13
2.00536e-12
-3.1756e-13
2.05797e-12
-2.96618e-13
2.10213e-12
-2.55745e-13
2.13898e-12
-2.15408e-13
2.17021e-12
-1.76408e-13
2.19266e-12
-1.36879e-13
2.20763e-12
-9.50753e-14
2.21502e-12
-5.43506e-14
2.21455e-12
-1.38565e-14
2.20727e-12
2.45372e-14
2.19375e-12
5.96093e-14
2.17395e-12
9.3406e-14
2.1488e-12
1.24043e-13
2.11937e-12
1.50329e-13
2.08595e-12
1.73641e-13
2.04909e-12
1.95361e-13
2.00951e-12
2.13122e-13
1.96759e-12
2.2888e-13
1.92418e-12
2.41423e-13
1.8794e-12
2.51838e-13
1.83335e-12
2.61071e-13
1.7867e-12
2.68273e-13
1.73939e-12
2.73944e-13
1.69171e-12
2.78859e-13
1.64329e-12
2.83615e-13
1.5949e-12
2.86619e-13
1.54566e-12
2.89635e-13
1.49737e-12
2.92475e-13
1.44676e-12
2.97248e-13
1.39657e-12
2.97284e-13
1.34652e-12
2.98661e-13
1.29599e-12
2.99831e-13
1.24554e-12
3.01251e-13
1.19472e-12
3.02358e-13
1.14396e-12
3.01939e-13
1.09312e-12
3.02216e-13
1.04261e-12
3.00641e-13
9.92299e-13
2.99595e-13
9.42267e-13
2.97717e-13
8.9266e-13
2.95986e-13
8.43559e-13
2.92922e-13
7.95129e-13
2.89655e-13
7.47433e-13
2.85865e-13
7.00424e-13
2.82156e-13
6.54123e-13
2.78079e-13
6.08644e-13
2.73645e-13
5.63843e-13
2.6952e-13
5.19918e-13
2.64834e-13
4.76804e-13
2.60042e-13
4.34464e-13
2.55224e-13
3.92915e-13
2.50319e-13
3.52205e-13
2.45261e-13
3.12374e-13
2.40102e-13
2.73641e-13
2.34758e-13
2.36231e-13
2.29522e-13
2.00042e-13
2.25809e-13
1.68522e-13
2.18911e-13
1.36134e-13
2.2515e-13
3.98087e-14
4.3909e-13
-1.5287e-16
3.74728e-13
1.35659e-21
-8.93353e-22
1.35875e-21
-5.06648e-24
1.37333e-21
2.82275e-23
1.40078e-21
6.09012e-23
1.42042e-21
9.21789e-23
1.43107e-21
1.21802e-22
1.43288e-21
1.49306e-22
1.4272e-21
1.74742e-22
1.41365e-21
1.97489e-22
1.39364e-21
2.17807e-22
1.36764e-21
2.3554e-22
1.33626e-21
2.50843e-22
1.30043e-21
2.63767e-22
1.26062e-21
2.74417e-22
1.21761e-21
2.83051e-22
1.1717e-21
2.89617e-22
1.12398e-21
2.9458e-22
1.07446e-21
2.97837e-22
1.02395e-21
3.00008e-22
9.72764e-22
3.00939e-22
9.21272e-22
3.00784e-22
8.69625e-22
3.00008e-22
8.1834e-22
2.98922e-22
7.67365e-22
2.97371e-22
7.17011e-22
2.95665e-22
6.67535e-22
2.93804e-22
6.18679e-22
2.92098e-22
5.70806e-22
2.90651e-22
5.23812e-22
2.89358e-22
4.77593e-22
2.88376e-22
4.32202e-22
2.87807e-22
3.87482e-22
2.876e-22
3.4359e-22
2.87755e-22
3.00008e-22
2.88221e-22
2.57098e-22
2.88945e-22
2.14395e-22
2.89979e-22
1.72209e-22
2.91168e-22
1.30229e-22
2.92408e-22
8.84049e-23
2.93546e-22
4.64255e-23
2.9458e-22
2.95665e-22
1.60011e-13
-9.97411e-13
3.16573e-13
-9.84644e-13
4.67614e-13
-9.62202e-13
6.10664e-13
-9.29802e-13
7.44533e-13
-8.90749e-13
8.68814e-13
-8.48176e-13
9.83941e-13
-8.04797e-13
1.09086e-12
-7.62383e-13
1.19079e-12
-7.22753e-13
1.285e-12
-6.86544e-13
1.37403e-12
-6.52961e-13
1.45975e-12
-6.22956e-13
1.54396e-12
-5.97563e-13
1.62219e-12
-5.67901e-13
1.69605e-12
-5.32814e-13
1.77572e-12
-5.13326e-13
1.84947e-12
-4.89791e-13
1.91815e-12
-4.59072e-13
1.97567e-12
-4.12352e-13
2.04302e-12
-3.85249e-13
2.09378e-12
-3.47705e-13
2.14066e-12
-3.02931e-13
2.17881e-12
-2.5386e-13
2.21129e-12
-2.09176e-13
2.23385e-12
-1.59704e-13
2.24843e-12
-1.0991e-13
2.25463e-12
-6.07919e-14
2.25243e-12
-1.18715e-14
2.24307e-12
3.36934e-14
2.22678e-12
7.57096e-14
2.20413e-12
1.15879e-13
2.17599e-12
1.52034e-13
2.14358e-12
1.82607e-13
2.10694e-12
2.10168e-13
2.06711e-12
2.35092e-13
2.02477e-12
2.5539e-13
1.98046e-12
2.73134e-13
1.93478e-12
2.87061e-13
1.88808e-12
2.9852e-13
1.84055e-12
3.08594e-13
1.79273e-12
3.16118e-13
1.74439e-12
3.22314e-13
1.69585e-12
3.27459e-13
1.64682e-12
3.32723e-13
1.5981e-12
3.35446e-13
1.54808e-12
3.39768e-13
1.49978e-12
3.40915e-13
1.44927e-12
3.47916e-13
1.39833e-12
3.48394e-13
1.34801e-12
3.49177e-13
1.29701e-12
3.51045e-13
1.24622e-12
3.52271e-13
1.19491e-12
3.53913e-13
1.14363e-12
3.53487e-13
1.09227e-12
3.53857e-13
1.04117e-12
3.52032e-13
9.90434e-13
3.50646e-13
9.39938e-13
3.48543e-13
8.89955e-13
3.46314e-13
8.40363e-13
3.42874e-13
7.91622e-13
3.3877e-13
7.43555e-13
3.34316e-13
6.96261e-13
3.29847e-13
6.49829e-13
3.24926e-13
6.04126e-13
3.19768e-13
5.59182e-13
3.14899e-13
5.15217e-13
3.09244e-13
4.72037e-13
3.03678e-13
4.29553e-13
2.98172e-13
3.87852e-13
2.92488e-13
3.46992e-13
2.866e-13
3.07062e-13
2.80517e-13
2.68409e-13
2.73905e-13
2.31838e-13
2.66588e-13
1.99256e-13
2.58894e-13
1.68629e-13
2.50044e-13
9.13709e-14
3.02915e-13
2.39925e-14
5.06976e-13
-1.50202e-16
3.99276e-13
1.38968e-21
-1.09849e-21
1.39204e-21
-6.20385e-24
1.40595e-21
3.42246e-23
1.43211e-21
7.35674e-23
1.45e-21
1.10997e-22
1.45863e-21
1.46308e-22
1.45832e-21
1.79085e-22
1.44994e-21
2.0907e-22
1.43402e-21
2.36005e-22
1.41138e-21
2.59838e-22
1.38289e-21
2.80673e-22
1.34918e-21
2.98457e-22
1.31113e-21
3.13346e-22
1.26926e-21
3.25547e-22
1.22412e-21
3.35163e-22
1.17661e-21
3.42505e-22
1.12719e-21
3.47778e-22
1.07663e-21
3.51397e-22
1.02493e-21
3.53361e-22
9.72661e-22
3.54137e-22
9.20497e-22
3.53878e-22
8.6854e-22
3.52844e-22
8.16789e-22
3.51138e-22
7.65659e-22
3.49174e-22
7.15149e-22
3.47157e-22
6.65777e-22
3.45245e-22
6.17232e-22
3.4328e-22
5.69514e-22
3.41677e-22
5.22882e-22
3.40437e-22
4.77025e-22
3.39661e-22
4.31943e-22
3.39299e-22
3.87689e-22
3.39299e-22
3.44004e-22
3.39816e-22
3.00732e-22
3.40643e-22
2.5808e-22
3.41936e-22
2.15636e-22
3.43383e-22
1.73449e-22
3.44831e-22
1.31315e-22
3.46382e-22
8.94389e-23
3.47881e-22
4.75112e-23
3.4907e-22
3.50053e-22
1.7235e-13
-1.17006e-12
3.40119e-13
-1.15295e-12
5.00129e-13
-1.12268e-12
6.49538e-13
-1.07967e-12
7.86976e-13
-1.02864e-12
9.12356e-13
-9.74002e-13
1.02632e-12
-9.19204e-13
1.13084e-12
-8.67344e-13
1.22764e-12
-8.1999e-13
1.31803e-12
-7.7736e-13
1.40363e-12
-7.38988e-13
1.48854e-12
-7.08283e-13
1.57031e-12
-6.7973e-13
1.64444e-12
-6.4243e-13
1.72459e-12
-6.13355e-13
1.80433e-12
-5.9345e-13
1.88055e-12
-5.66378e-13
1.94903e-12
-5.27911e-13
2.01397e-12
-4.77633e-13
2.08363e-12
-4.55248e-13
2.13722e-12
-4.01609e-13
2.18606e-12
-3.52086e-13
2.22739e-12
-2.95481e-13
2.26024e-12
-2.42308e-13
2.28351e-12
-1.83241e-13
2.2976e-12
-1.24248e-13
2.30235e-12
-6.57722e-14
2.29783e-12
-7.57423e-15
2.28586e-12
4.54633e-14
2.26617e-12
9.52106e-14
2.2396e-12
1.42285e-13
2.20793e-12
1.83561e-13
2.17163e-12
2.18777e-13
2.1311e-12
2.5058e-13
2.08777e-12
2.78328e-13
2.0418e-12
3.01291e-13
1.99473e-12
3.20148e-13
1.94654e-12
3.35214e-13
1.89752e-12
3.47522e-13
1.84827e-12
3.57841e-13
1.79906e-12
3.65352e-13
1.74974e-12
3.71678e-13
1.70009e-12
3.77163e-13
1.65075e-12
3.82138e-13
1.60135e-12
3.84942e-13
1.55151e-12
3.89731e-13
1.50149e-12
3.91068e-13
1.45252e-12
3.97034e-13
1.40049e-12
4.00593e-13
1.34957e-12
4.00291e-13
1.29812e-12
4.02708e-13
1.24692e-12
4.03691e-13
1.1952e-12
4.05875e-13
1.14315e-12
4.05795e-13
1.09142e-12
4.05869e-13
1.03949e-12
4.04255e-13
9.88214e-13
4.02232e-13
9.37012e-13
4.0007e-13
8.8673e-13
3.96936e-13
8.36571e-13
3.93387e-13
7.87367e-13
3.88341e-13
7.39067e-13
3.82997e-13
6.91488e-13
3.7782e-13
6.4475e-13
3.7207e-13
5.98787e-13
3.66147e-13
5.53841e-13
3.60271e-13
5.09734e-13
3.53788e-13
4.66414e-13
3.47444e-13
4.23887e-13
3.41153e-13
3.81992e-13
3.34844e-13
3.40839e-13
3.28224e-13
3.00493e-13
3.21339e-13
2.61031e-13
3.13849e-13
2.23266e-13
3.04841e-13
1.90263e-13
2.9239e-13
1.70055e-13
2.70749e-13
6.42917e-14
4.09177e-13
2.58987e-14
5.45869e-13
-1.48137e-16
4.25722e-13
1.43269e-21
-1.16467e-21
1.43252e-21
-6.51405e-24
1.44529e-21
4.10488e-23
1.46959e-21
8.74744e-23
1.48531e-21
1.31832e-22
1.49136e-21
1.73243e-22
1.4883e-21
2.11345e-22
1.47688e-21
2.46086e-22
1.45785e-21
2.77209e-22
1.43221e-21
3.04609e-22
1.40062e-21
3.28391e-22
1.36407e-21
3.48708e-22
1.32333e-21
3.65407e-22
1.27887e-21
3.78952e-22
1.23147e-21
3.89447e-22
1.18194e-21
3.9746e-22
1.13081e-21
4.02992e-22
1.07854e-21
4.06611e-22
1.0257e-21
4.08524e-22
9.72454e-22
4.08834e-22
9.19463e-22
4.08265e-22
8.66834e-22
4.06766e-22
8.14825e-22
4.04802e-22
7.63643e-22
4.0232e-22
7.13288e-22
3.99942e-22
6.63864e-22
3.97615e-22
6.15578e-22
3.95703e-22
5.68273e-22
3.94048e-22
5.22054e-22
3.92911e-22
4.76611e-22
3.92084e-22
4.31943e-22
3.92084e-22
3.88206e-22
3.92549e-22
3.44883e-22
3.93531e-22
3.02024e-22
3.94824e-22
2.59528e-22
3.96581e-22
2.17135e-22
3.98184e-22
1.75e-22
4.00097e-22
1.32814e-22
4.01906e-22
9.06797e-23
4.03509e-22
4.84935e-23
4.04802e-22
4.05732e-22
1.88929e-13
-1.35929e-12
3.71593e-13
-1.33613e-12
5.43267e-13
-1.2948e-12
7.0033e-13
-1.23717e-12
8.41481e-13
-1.17023e-12
9.67068e-13
-1.10003e-12
1.0784e-12
-1.03098e-12
1.17876e-12
-9.68128e-13
1.27014e-12
-9.11804e-13
1.3547e-12
-8.62335e-13
1.43709e-12
-8.21797e-13
1.51954e-12
-7.9113e-13
1.59481e-12
-7.55401e-13
1.66993e-12
-7.17942e-13
1.75495e-12
-6.98746e-13
1.8357e-12
-6.74573e-13
1.9123e-12
-6.43339e-13
1.98339e-12
-5.99349e-13
2.06296e-12
-5.57538e-13
2.12725e-12
-5.19873e-13
2.1884e-12
-4.63063e-13
2.23968e-12
-4.03671e-13
2.28487e-12
-3.40961e-13
2.31827e-12
-2.75973e-13
2.34225e-12
-2.07485e-13
2.35605e-12
-1.38287e-13
2.35847e-12
-6.84196e-14
2.35156e-12
-8.80141e-16
2.33607e-12
6.0766e-14
2.31204e-12
1.19058e-13
2.28091e-12
1.73256e-13
2.24483e-12
2.19492e-13
2.20347e-12
2.60008e-13
2.15834e-12
2.95597e-13
2.11051e-12
3.26071e-13
2.06058e-12
3.51147e-13
2.01008e-12
3.70595e-13
1.95891e-12
3.86342e-13
1.90732e-12
3.99096e-13
1.85621e-12
4.08949e-13
1.80544e-12
4.16146e-13
1.75507e-12
4.22084e-13
1.70453e-12
4.27757e-13
1.6547e-12
4.32049e-13
1.60482e-12
4.3492e-13
1.55513e-12
4.39531e-13
1.50381e-12
4.42525e-13
1.45585e-12
4.45151e-13
1.40345e-12
4.53156e-13
1.35148e-12
4.5245e-13
1.29977e-12
4.54623e-13
1.24772e-12
4.55967e-13
1.19558e-12
4.58258e-13
1.14277e-12
4.58861e-13
1.09032e-12
4.58582e-13
1.03752e-12
4.57341e-13
9.85575e-13
4.54483e-13
9.33633e-13
4.52328e-13
8.82932e-13
4.47971e-13
8.32077e-13
4.44587e-13
7.82406e-13
4.38374e-13
7.33645e-13
4.32132e-13
6.85767e-13
4.26085e-13
6.38797e-13
4.19439e-13
5.92623e-13
4.12732e-13
5.47667e-13
4.05647e-13
5.03474e-13
3.98413e-13
4.6008e-13
3.91278e-13
4.17383e-13
3.84297e-13
3.75454e-13
3.77234e-13
3.34015e-13
3.70123e-13
2.93057e-13
3.62768e-13
2.52476e-13
3.54908e-13
2.11778e-13
3.46021e-13
1.70737e-13
3.33915e-13
1.23937e-13
3.1804e-13
4.81074e-14
4.85498e-13
2.72681e-14
5.672e-13
-1.45194e-16
4.53529e-13
1.48232e-21
-1.19775e-21
1.48003e-21
-6.61744e-24
1.49172e-21
4.88554e-23
1.51395e-21
1.03087e-22
1.52672e-21
1.54424e-22
1.52951e-21
2.02504e-22
1.52305e-21
2.46707e-22
1.508e-21
2.86463e-22
1.48525e-21
3.21877e-22
1.45599e-21
3.52948e-22
1.42089e-21
3.79676e-22
1.38082e-21
4.01958e-22
1.33688e-21
4.20466e-22
1.28937e-21
4.35097e-22
1.23953e-21
4.46419e-22
1.18747e-21
4.54691e-22
1.13437e-21
4.60481e-22
1.0805e-21
4.63842e-22
1.02601e-21
4.65341e-22
9.71834e-22
4.65289e-22
9.17964e-22
4.64048e-22
8.64817e-22
4.62032e-22
8.12395e-22
4.59499e-22
7.61265e-22
4.56707e-22
7.10858e-22
4.53915e-22
6.61951e-22
4.5133e-22
6.13975e-22
4.49056e-22
5.67136e-22
4.47298e-22
5.21331e-22
4.46316e-22
4.76611e-22
4.46005e-22
4.32512e-22
4.46367e-22
3.89189e-22
4.47246e-22
3.46175e-22
4.48539e-22
3.0373e-22
4.50348e-22
2.61182e-22
4.52209e-22
2.18996e-22
4.54484e-22
1.7681e-22
4.56604e-22
1.34417e-22
4.58517e-22
9.19722e-23
4.60119e-22
4.9424e-23
4.61257e-22
4.61929e-22
2.11141e-13
-1.57072e-12
4.14617e-13
-1.54011e-12
6.01333e-13
-1.48196e-12
7.66957e-13
-1.40323e-12
9.1155e-13
-1.31525e-12
1.03584e-12
-1.22475e-12
1.14184e-12
-1.13739e-12
1.23555e-12
-1.06226e-12
1.31754e-12
-9.94212e-13
1.39522e-12
-9.4042e-13
1.47491e-12
-9.01895e-13
1.54704e-12
-8.63658e-13
1.61738e-12
-8.26124e-13
1.7012e-12
-8.02139e-13
1.78416e-12
-7.82082e-13
1.86777e-12
-7.58545e-13
1.94342e-12
-7.19343e-13
2.02815e-12
-6.84426e-13
2.11078e-12
-6.40491e-13
2.18036e-12
-5.89775e-13
2.2459e-12
-5.2891e-13
2.30348e-12
-4.61548e-13
2.35118e-12
-3.88943e-13
2.38695e-12
-3.12007e-13
2.41149e-12
-2.3228e-13
2.42458e-12
-1.51615e-13
2.42432e-12
-6.8381e-14
2.4145e-12
8.73566e-15
2.39443e-12
8.06383e-14
2.36464e-12
1.48668e-13
2.32835e-12
2.09394e-13
2.2866e-12
2.61095e-13
2.23901e-12
3.07475e-13
2.1883e-12
3.46203e-13
2.1349e-12
3.79382e-13
2.08064e-12
4.05343e-13
2.02584e-12
4.25336e-13
1.97141e-12
4.40743e-13
1.91703e-12
4.5345e-13
1.86395e-12
4.62039e-13
1.81155e-12
4.68567e-13
1.75975e-12
4.73919e-13
1.70898e-12
4.78581e-13
1.65858e-12
4.8253e-13
1.60835e-12
4.85241e-13
1.5586e-12
4.89401e-13
1.50775e-12
4.93501e-13
1.45816e-12
4.9489e-13
1.40712e-12
5.04367e-13
1.35401e-12
5.05735e-13
1.30191e-12
5.06926e-13
1.24866e-12
5.09444e-13
1.19631e-12
5.10836e-13
1.14261e-12
5.12813e-13
1.08914e-12
5.12326e-13
1.03526e-12
5.11502e-13
9.82488e-13
5.07548e-13
9.29825e-13
5.05303e-13
8.7821e-13
4.99913e-13
8.26925e-13
4.96212e-13
7.7641e-13
4.89244e-13
7.27283e-13
4.81624e-13
6.79082e-13
4.74666e-13
6.31984e-13
4.66929e-13
5.85686e-13
4.59433e-13
5.40561e-13
4.51185e-13
4.96358e-13
4.43038e-13
4.52966e-13
4.35098e-13
4.10297e-13
4.27406e-13
3.6829e-13
4.19685e-13
3.26654e-13
4.12212e-13
2.85193e-13
4.04688e-13
2.4315e-13
3.97419e-13
1.9903e-13
3.90612e-13
1.49958e-13
3.8346e-13
8.1121e-14
3.87355e-13
3.77652e-14
5.29331e-13
2.31271e-14
5.82323e-13
-1.41233e-16
4.77182e-13
1.53195e-21
-1.27716e-21
1.53556e-21
-6.92764e-24
1.5459e-21
5.76959e-23
1.56528e-21
1.20458e-22
1.5748e-21
1.79912e-22
1.57371e-21
2.34971e-22
1.5628e-21
2.85377e-22
1.54347e-21
3.30665e-22
1.51633e-21
3.70525e-22
1.48272e-21
4.05163e-22
1.44322e-21
4.34632e-22
1.39928e-21
4.59137e-22
1.35151e-21
4.78989e-22
1.30069e-21
4.94602e-22
1.2478e-21
5.06441e-22
1.19326e-21
5.14817e-22
1.13774e-21
5.2009e-22
1.08195e-21
5.2314e-22
1.02596e-21
5.24071e-22
9.70593e-22
5.23399e-22
9.15948e-22
5.21486e-22
8.62336e-22
5.18642e-22
8.09603e-22
5.15437e-22
7.58421e-22
5.12128e-22
7.08325e-22
5.08871e-22
6.59677e-22
5.05924e-22
6.12165e-22
5.0365e-22
5.66153e-22
5.01995e-22
5.2102e-22
5.01116e-22
4.76921e-22
5.01065e-22
4.33339e-22
5.01582e-22
3.90481e-22
5.02874e-22
3.47933e-22
5.0458e-22
3.05592e-22
5.06803e-22
2.63405e-22
5.09078e-22
2.21167e-22
5.11404e-22
1.78671e-22
5.13472e-22
1.3602e-22
5.15282e-22
9.31095e-23
5.16626e-22
5.00444e-23
5.17402e-22
5.17453e-22
2.421e-13
-1.81311e-12
4.71516e-13
-1.77002e-12
6.7903e-13
-1.6899e-12
8.55986e-13
-1.58061e-12
1.00204e-12
-1.46173e-12
1.12199e-12
-1.34511e-12
1.2193e-12
-1.23512e-12
1.2986e-12
-1.14197e-12
1.37035e-12
-1.06636e-12
1.44201e-12
-1.01248e-12
1.50693e-12
-9.67203e-13
1.57019e-12
-9.27304e-13
1.6459e-12
-9.02216e-13
1.7276e-12
-8.84204e-13
1.81259e-12
-8.67426e-13
1.89498e-12
-8.41286e-13
1.98374e-12
-8.0845e-13
2.07585e-12
-7.76866e-13
2.1608e-12
-7.25764e-13
2.24048e-12
-6.69763e-13
2.31312e-12
-6.01853e-13
2.37693e-12
-5.25639e-13
2.42814e-12
-4.40431e-13