/*--------------------------------*- C++ -*----------------------------------*\
  =========                 |
  \\      /  F ield         | OpenFOAM: The Open Source CFD Toolbox
   \\    /   O peration     | Website:  https://openfoam.org
    \\  /    A nd           | Version:  6
     \\/     M anipulation  |
\*---------------------------------------------------------------------------*/
FoamFile
{
    version     2.0;
    format      ascii;
    class       volVectorField;
    location    "3300";
    object      U;
}
// * * * * * * * * * * * * * * * * * * * * * * * * * * * * * * * * * * * * * //

dimensions      [0 1 -1 0 0 0 0];

internalField   nonuniform List<vector> 
4800
(
(-0.000111201 0 -8.21718e-05)
(0.000136065 0 -7.87664e-05)
(0.000179248 0 -3.78064e-05)
(0.000186312 0 -4.58427e-05)
(0.000185061 0 -3.43822e-05)
(0.0001791 0 -2.09471e-05)
(0.000147109 0 -5.15177e-05)
(0.000147172 0 -3.82418e-05)
(-6.40845e-05 0 -2.08145e-05)
(-0.000110019 0 -3.26154e-05)
(-0.000143113 0 -6.57154e-05)
(-0.000149163 0 -9.68768e-05)
(-0.000155933 0 -9.56826e-05)
(-0.000194245 0 -6.05429e-05)
(-0.000267883 0 -3.4602e-05)
(-0.000456407 0 -4.54125e-05)
(-0.000659932 0 -8.79766e-05)
(-0.000721669 0 -6.19401e-05)
(-0.000764283 0 0.00010592)
(-0.000882482 0 -9.33483e-05)
(-0.000978536 0 -9.25174e-05)
(-0.00106606 0 9.65499e-05)
(-0.0011465 0 7.2418e-07)
(-0.00119744 0 -2.59386e-05)
(-0.00124407 0 6.43663e-05)
(-0.00129817 0 -9.86326e-06)
(-0.0013638 0 7.16987e-05)
(-0.00146887 0 0.000109287)
(-0.00159671 0 9.00136e-05)
(-0.00169888 0 4.53713e-05)
(-0.00176032 0 2.01359e-05)
(-0.0017924 0 1.92421e-05)
(-0.00181382 0 -1.36293e-05)
(-0.00182545 0 -1.06111e-05)
(-0.00178444 0 -5.21328e-05)
(-0.00170687 0 -6.22961e-05)
(-0.00165601 0 -3.98142e-05)
(-0.00158579 0 -2.68065e-05)
(-0.00147964 0 -5.89785e-05)
(-0.00138691 0 -7.34039e-05)
(-0.00128996 0 -2.48388e-05)
(-0.0011483 0 -6.66637e-05)
(-0.00101575 0 -7.44654e-05)
(-0.000908618 0 -5.75013e-05)
(-0.000784159 0 -5.37638e-05)
(-0.000639403 0 -6.31128e-05)
(-0.000468439 0 -2.24123e-05)
(-0.00027554 0 -1.02937e-05)
(-0.00013229 0 -1.16541e-05)
(-6.3748e-05 0 -8.15637e-05)
(4.90282e-05 0 -0.000114364)
(5.01368e-05 0 -9.70264e-05)
(1.87324e-05 0 -8.24337e-05)
(2.78643e-05 0 -7.24759e-05)
(2.05755e-05 0 3.24604e-05)
(1.5983e-05 0 -2.82649e-05)
(5.11372e-05 0 1.76645e-05)
(9.27075e-05 0 -1.33274e-05)
(0.000150045 0 -2.43092e-05)
(0.000222679 0 -4.25997e-05)
(0.000301194 0 -5.43865e-05)
(0.000378557 0 -6.16523e-05)
(0.000462801 0 -7.48761e-05)
(0.000540487 0 -6.49135e-05)
(0.000590268 0 -5.54965e-05)
(0.00062743 0 -4.54352e-05)
(0.000677109 0 -4.13268e-05)
(0.000736531 0 -1.33959e-05)
(0.0007403 0 2.86957e-06)
(0.000730633 0 5.32019e-06)
(0.000708132 0 2.67518e-05)
(0.000671052 0 2.44119e-05)
(0.000613679 0 3.64481e-05)
(0.000534749 0 7.87143e-05)
(0.00044653 0 -1.06479e-05)
(0.000138861 0 7.31126e-05)
(-0.000419524 0 -0.000317896)
(-0.000417789 0 -0.000282417)
(-0.000431517 0 -0.000191384)
(-0.000559309 0 -0.000272727)
(-0.000687587 0 -0.000290974)
(7.2322e-06 0 -0.000222984)
(-6.13748e-13 0 -5.33799e-14)
(-2.02287e-12 0 -1.54982e-13)
(-4.15934e-13 0 -1.27179e-13)
(-1.85308e-13 0 -1.02535e-13)
(1.05006e-15 0 -8.37554e-14)
(1.55001e-13 0 -7.00605e-14)
(2.85565e-13 0 -6.00912e-14)
(3.98696e-13 0 -5.2663e-14)
(4.98486e-13 0 -4.6799e-14)
(5.87325e-13 0 -4.17977e-14)
(6.66477e-13 0 -3.72016e-14)
(7.36461e-13 0 -3.27422e-14)
(7.97377e-13 0 -2.82861e-14)
(8.49146e-13 0 -2.37868e-14)
(8.91664e-13 0 -1.92421e-14)
(9.24913e-13 0 -1.46714e-14)
(9.49007e-13 0 -1.01111e-14)
(9.64175e-13 0 -5.61302e-15)
(9.70695e-13 0 -1.23701e-15)
(9.68868e-13 0 2.96127e-15)
(9.59034e-13 0 6.93979e-15)
(9.41611e-13 0 1.06717e-14)
(9.17109e-13 0 1.41428e-14)
(8.86095e-13 0 1.73454e-14)
(8.49145e-13 0 2.02746e-14)
(8.06797e-13 0 2.29247e-14)
(7.59534e-13 0 2.52909e-14)
(7.07784e-13 0 2.73741e-14)
(6.51948e-13 0 2.91839e-14)
(5.92427e-13 0 3.07389e-14)
(5.29647e-13 0 3.20624e-14)
(4.64062e-13 0 3.31773e-14)
(3.9614e-13 0 3.41029e-14)
(3.26341e-13 0 3.48529e-14)
(2.55095e-13 0 3.54359e-14)
(1.82795e-13 0 3.5854e-14)
(1.0982e-13 0 3.60943e-14)
(3.66057e-14 0 3.60916e-14)
(7.42176e-05 0 -0.000124769)
(8.25218e-05 0 -8.96033e-05)
(0.000115988 0 -5.41384e-05)
(0.000120232 0 -1.8862e-05)
(7.42479e-05 0 2.28321e-05)
(5.19366e-06 0 8.13638e-05)
(-4.87195e-05 0 9.2771e-05)
(-0.000117762 0 0.000116147)
(-0.000156827 0 9.84973e-05)
(-0.000160986 0 0.000100919)
(-0.000199534 0 9.39216e-05)
(-0.000266113 0 4.75524e-05)
(-0.000321854 0 7.98752e-05)
(-0.000439342 0 0.000108242)
(-0.000511713 0 0.000251821)
(-0.000649264 0 0.000247756)
(-0.000727938 0 0.00021371)
(-0.000742273 0 0.000140962)
(-0.000776855 0 -0.00020691)
(-0.000893106 0 0.000250413)
(-0.000980019 0 0.000190108)
(-0.00106109 0 1.65212e-05)
(-0.00112699 0 0.000150052)
(-0.00120552 0 6.3292e-05)
(-0.0012865 0 5.60064e-05)
(-0.0013936 0 0.000150546)
(-0.00148843 0 0.000109798)
(-0.0015587 0 0.000167144)
(-0.00163492 0 0.000119148)
(-0.00168594 0 0.000123752)
(-0.00171794 0 8.36172e-05)
(-0.00173592 0 2.50251e-05)
(-0.00174805 0 7.55561e-06)
(-0.00175429 0 6.03592e-06)
(-0.00174075 0 -4.54233e-05)
(-0.00169471 0 -8.21552e-05)
(-0.0016696 0 -0.000102079)
(-0.00166297 0 -0.000108921)
(-0.00162637 0 -0.000247024)
(-0.00154424 0 -0.000172301)
(-0.00143344 0 -4.85661e-05)
(-0.00126458 0 -0.000266096)
(-0.00111613 0 -0.00021445)
(-0.000992904 0 -0.000151749)
(-0.000845611 0 -0.000260416)
(-0.000691027 0 -0.000275816)
(-0.00056049 0 -0.000221126)
(-0.000353332 0 -0.000387553)
(-0.000322596 0 -0.0002492)
(-0.000126191 0 -0.000319779)
(-7.56276e-05 0 -0.000176597)
(-0.000155781 0 0.000101889)
(-7.24081e-05 0 -4.18204e-05)
(-9.6005e-05 0 3.98308e-05)
(-7.64336e-05 0 -1.14428e-05)
(-7.12493e-05 0 -7.03928e-05)
(-1.36439e-05 0 -6.51086e-05)
(2.21281e-05 0 -9.41568e-05)
(0.000101699 0 -0.000105677)
(0.000180902 0 -0.000129105)
(0.00028193 0 -9.54438e-05)
(0.000334866 0 -0.0001375)
(0.000418362 0 -0.000100138)
(0.000480985 0 -8.66126e-05)
(0.00051771 0 -7.46941e-05)
(0.000554686 0 -0.000109822)
(0.00061443 0 -0.000104267)
(0.000644269 0 -2.74418e-05)
(0.000639271 0 -2.64754e-05)
(0.000631124 0 1.36066e-05)
(0.00061653 0 -9.51531e-06)
(0.000594865 0 8.58746e-05)
(0.000576944 0 3.99754e-05)
(0.000521935 0 0.000162346)
(0.000518224 0 0.000261057)
(0.000447006 0 0.000276174)
(0.000332826 0 0.000346901)
(0.000364863 0 0.000342792)
(0.000201922 0 0.000241387)
(1.70772e-05 0 -7.41759e-05)
(-0.000482648 0 -0.000293839)
(7.40859e-06 0 -0.000184469)
(-6.04852e-13 0 -2.74962e-13)
(-2.00459e-12 0 -4.86405e-13)
(-3.64767e-13 0 -3.79731e-13)
(-1.42485e-13 0 -3.01876e-13)
(3.34551e-14 0 -2.45985e-13)
(1.78765e-13 0 -2.06187e-13)
(3.02963e-13 0 -1.77588e-13)
(4.11988e-13 0 -1.56354e-13)
(5.09351e-13 0 -1.39514e-13)
(5.96922e-13 0 -1.25012e-13)
(6.75532e-13 0 -1.11544e-13)
(7.45376e-13 0 -9.83637e-14)
(8.06333e-13 0 -8.51007e-14)
(8.5819e-13 0 -7.16163e-14)
(9.0078e-13 0 -5.79105e-14)
(9.34044e-13 0 -4.40722e-14)
(9.58066e-13 0 -3.0255e-14)
(9.73049e-13 0 -1.66473e-14)
(9.79269e-13 0 -3.43316e-15)
(9.77044e-13 0 9.2376e-15)
(9.66744e-13 0 2.12562e-14)
(9.48814e-13 0 3.25432e-14)
(9.23783e-13 0 4.30368e-14)
(8.92227e-13 0 5.26861e-14)
(8.54724e-13 0 6.14528e-14)
(8.11813e-13 0 6.93145e-14)
(7.63983e-13 0 7.62728e-14)
(7.11677e-13 0 8.23591e-14)
(6.55313e-13 0 8.76335e-14)
(5.95306e-13 0 9.21738e-14)
(5.32085e-13 0 9.6058e-14)
(4.66102e-13 0 9.93514e-14)
(3.97816e-13 0 1.02101e-13)
(3.27674e-13 0 1.04337e-13)
(2.56096e-13 0 1.06081e-13)
(1.83453e-13 0 1.07344e-13)
(1.10058e-13 0 1.08126e-13)
(3.6603e-14 0 1.08387e-13)
(1.43294e-05 0 -0.000198793)
(3.44768e-05 0 -0.00012865)
(9.36698e-05 0 -2.12877e-05)
(3.73939e-05 0 1.75887e-05)
(-1.88501e-05 0 9.70898e-05)
(-5.6746e-05 0 0.000150689)
(-0.000131713 0 0.000140005)
(-0.000196427 0 0.000131434)
(-0.000222256 0 0.000125933)
(-0.000249598 0 8.42694e-05)
(-0.000298939 0 6.57937e-05)
(-0.000326716 0 0.00019671)
(-0.000528846 0 0.000148268)
(-0.000577624 0 0.000347904)
(-0.000652306 0 0.000343979)
(-0.000685016 0 0.000325603)
(-0.000734175 0 0.000222598)
(-0.000799649 0 0.000130213)
(-0.000863672 0 0.000147819)
(-0.00088878 0 0.000215231)
(-0.000966933 0 0.000215656)
(-0.00108028 0 0.000130567)
(-0.00114414 0 0.000188572)
(-0.0012321 0 0.00022161)
(-0.00136914 0 0.000161828)
(-0.00147575 0 0.000230827)
(-0.00155221 0 0.000250966)
(-0.00160415 0 0.000200507)
(-0.00163575 0 0.000198109)
(-0.00166868 0 0.000127353)
(-0.00168598 0 9.7238e-05)
(-0.00168983 0 5.42912e-05)
(-0.00168827 0 1.81174e-05)
(-0.00169687 0 -3.8207e-05)
(-0.0017036 0 -4.78935e-05)
(-0.00168744 0 -0.000165066)
(-0.00162905 0 -0.000191449)
(-0.00160976 0 -0.000156249)
(-0.001607 0 -0.00018988)
(-0.00159738 0 -0.000208366)
(-0.00149917 0 -0.000261479)
(-0.00137714 0 -0.0003264)
(-0.00122848 0 -0.000344316)
(-0.00111406 0 -0.000285076)
(-0.00100753 0 -0.000301526)
(-0.000918448 0 -0.000312208)
(-0.000752794 0 -0.000487278)
(-0.000554751 0 -0.000553462)
(-0.000621439 0 -0.000181659)
(-0.000499455 0 -6.08648e-05)
(-0.000339137 0 4.22893e-05)
(-0.000215881 0 6.52268e-05)
(-0.000111207 0 -0.000134186)
(-0.000157413 0 1.9753e-05)
(-0.000119735 0 -3.65438e-05)
(-7.80575e-05 0 -7.05416e-05)
(-7.37814e-05 0 -9.96537e-05)
(5.85002e-06 0 -0.000176007)
(9.99763e-05 0 -0.000229562)
(0.000145518 0 -0.000296165)
(0.000286997 0 -0.000192924)
(0.000288642 0 -0.000253828)
(0.00036178 0 -0.000167735)
(0.000404526 0 -0.000115106)
(0.000409868 0 -0.000207532)
(0.000487718 0 -0.000118273)
(0.000511349 0 -5.07233e-05)
(0.000513076 0 -2.76697e-05)
(0.000513134 0 -1.18832e-05)
(0.000510563 0 3.6939e-05)
(0.000503486 0 4.67005e-05)
(0.000498767 0 9.19705e-05)
(0.000489913 0 0.000140794)
(0.000492477 0 0.000181309)
(0.000510508 0 0.000246805)
(0.000535544 0 0.000344781)
(0.000471056 0 0.000401308)
(0.000513616 0 0.000286825)
(0.000287115 0 0.000384944)
(0.000442814 0 6.06491e-05)
(-3.41858e-05 0 -0.000121649)
(7.98914e-06 0 -0.000137759)
(-5.63475e-13 0 -4.41697e-13)
(-1.81622e-12 0 -7.87791e-13)
(-2.32421e-13 0 -6.04454e-13)
(-5.18963e-14 0 -4.79317e-13)
(9.68768e-14 0 -3.91846e-13)
(2.23572e-13 0 -3.30768e-13)
(3.35398e-13 0 -2.87542e-13)
(4.36769e-13 0 -2.55524e-13)
(5.29828e-13 0 -2.29799e-13)
(6.15296e-13 0 -2.07124e-13)
(6.93125e-13 0 -1.85545e-13)
(7.62904e-13 0 -1.64016e-13)
(8.24125e-13 0 -1.42063e-13)
(8.76336e-13 0 -1.19551e-13)
(9.19208e-13 0 -9.65534e-14)
(9.52568e-13 0 -7.32796e-14)
(9.76432e-13 0 -5.00319e-14)
(9.90997e-13 0 -2.71497e-14)
(9.9658e-13 0 -4.94604e-15)
(9.93557e-13 0 1.63327e-14)
(9.82339e-13 0 3.65051e-14)
(9.63392e-13 0 5.54286e-14)
(9.37252e-13 0 7.29804e-14)
(9.04511e-13 0 8.90594e-14)
(8.65773e-13 0 1.03597e-13)
(8.21617e-13 0 1.1657e-13)
(7.72578e-13 0 1.28007e-13)
(7.19145e-13 0 1.37988e-13)
(6.61763e-13 0 1.46636e-13)
(6.00852e-13 0 1.54088e-13)
(5.36824e-13 0 1.60473e-13)
(4.70104e-13 0 1.65894e-13)
(4.01126e-13 0 1.70419e-13)
(3.30321e-13 0 1.74097e-13)
(2.58102e-13 0 1.76966e-13)
(1.8484e-13 0 1.79059e-13)
(1.10863e-13 0 1.80415e-13)
(3.68664e-14 0 1.81084e-13)
(8.21813e-06 0 -0.000215311)
(-6.44105e-06 0 -0.000100531)
(5.24114e-06 0 3.57018e-06)
(-0.000114367 0 6.1097e-05)
(-0.000146768 0 0.000118905)
(-0.000187535 0 0.000158741)
(-0.000190726 0 0.000199767)
(-0.000210023 0 0.000203105)
(-0.000261935 0 0.000156415)
(-0.000336004 0 0.000154335)
(-0.000402654 0 0.000152278)
(-0.000417965 0 0.000259262)
(-0.00064487 0 0.00017367)
(-0.000702663 0 0.000286173)
(-0.000733449 0 0.000295148)
(-0.000731696 0 0.00029765)
(-0.000731256 0 0.000263468)
(-0.000777407 0 0.00024938)
(-0.000898738 0 0.000231932)
(-0.000953694 0 0.00023398)
(-0.000986135 0 0.000312852)
(-0.0010842 0 0.000324951)
(-0.00119055 0 0.000288163)
(-0.00130508 0 0.000293064)
(-0.00143218 0 0.000256666)
(-0.00148812 0 0.000336278)
(-0.00155143 0 0.000250438)
(-0.00158847 0 0.000235163)
(-0.0016158 0 0.000194192)
(-0.00163734 0 0.000155424)
(-0.00165115 0 0.000133295)
(-0.00165051 0 1.04413e-05)
(-0.00163956 0 1.52496e-05)
(-0.0016425 0 -3.09516e-06)
(-0.00165356 0 -6.58117e-05)
(-0.001664 0 -5.94957e-05)
(-0.00162232 0 -0.000158763)
(-0.00154773 0 -0.000220173)
(-0.00151525 0 -0.000221984)
(-0.0015002 0 -0.000246631)
(-0.0014955 0 -0.00027699)
(-0.00142604 0 -0.000448034)
(-0.00129622 0 -0.000489968)
(-0.00120314 0 -0.000389284)
(-0.00109035 0 -0.000453841)
(-0.00104549 0 -0.000458872)
(-0.000794761 0 -0.000786905)
(-0.000866562 0 -0.000364622)
(-0.000704799 0 -0.000272428)
(-0.000470223 0 -0.000428726)
(-0.000354512 0 -0.000343202)
(-0.000313113 0 -0.000183576)
(-0.000280596 0 -2.69419e-05)
(-0.000205562 0 6.3124e-05)
(-0.000131239 0 -7.64309e-05)
(-7.39072e-05 0 -8.2966e-05)
(4.72187e-06 0 -0.000144378)
(7.06999e-05 0 -0.000223937)
(0.000140658 0 -0.000261203)
(0.000154149 0 -0.000310154)
(0.000249383 0 -0.000241404)
(0.000271294 0 -0.000198144)
(0.000259664 0 -0.000188404)
(0.000259291 0 -0.000204473)
(0.000316362 0 -0.000133489)
(0.000333467 0 -0.000114554)
(0.000321653 0 -0.000142423)
(0.000341205 0 -5.30631e-05)
(0.000346759 0 -1.50501e-05)
(0.000355105 0 1.99401e-05)
(0.000366272 0 5.76206e-05)
(0.000378231 0 0.000100976)
(0.000405748 0 0.000112312)
(0.000437927 0 0.00015819)
(0.000462714 0 0.000229673)
(0.000503868 0 0.000304254)
(0.000526223 0 0.000334417)
(0.000540112 0 0.000308891)
(0.000482229 0 0.000317792)
(0.000479904 0 0.00020096)
(-2.43046e-05 0 2.78218e-05)
(8.76143e-06 0 0.000164416)
(-5.72353e-13 0 -2.45316e-13)
(-1.55567e-12 0 -9.72874e-13)
(-5.57348e-14 0 -7.70592e-13)
(7.06865e-14 0 -6.19059e-13)
(1.82428e-13 0 -5.11151e-13)
(2.83212e-13 0 -4.37339e-13)
(3.78206e-13 0 -3.86241e-13)
(4.69731e-13 0 -3.48333e-13)
(5.57751e-13 0 -3.16949e-13)
(6.41176e-13 0 -2.88013e-13)
(7.1864e-13 0 -2.59293e-13)
(7.88859e-13 0 -2.29761e-13)
(8.50798e-13 0 -1.99102e-13)
(9.03699e-13 0 -1.67383e-13)
(9.47051e-13 0 -1.34875e-13)
(9.80565e-13 0 -1.01959e-13)
(1.0042e-12 0 -6.90865e-14)
(1.01813e-12 0 -3.67403e-14)
(1.02275e-12 0 -5.37296e-15)
(1.0185e-12 0 2.46432e-14)
(1.00584e-12 0 5.30286e-14)
(9.85289e-13 0 7.95739e-14)
(9.57413e-13 0 1.04117e-13)
(9.22844e-13 0 1.26544e-13)
(8.82235e-13 0 1.46793e-13)
(8.36223e-13 0 1.64865e-13)
(7.85401e-13 0 1.80818e-13)
(7.30306e-13 0 1.94763e-13)
(6.71412e-13 0 2.06853e-13)
(6.09143e-13 0 2.17256e-13)
(5.43891e-13 0 2.26139e-13)
(4.76048e-13 0 2.3364e-13)
(4.06019e-13 0 2.39868e-13)
(3.34221e-13 0 2.44907e-13)
(2.61058e-13 0 2.48828e-13)
(1.86902e-13 0 2.51695e-13)
(1.12083e-13 0 2.53571e-13)
(3.72726e-14 0 2.54512e-13)
(-2.73889e-05 0 -0.00020841)
(-6.09847e-05 0 -7.20336e-05)
(4.64229e-06 0 4.83079e-05)
(-0.000131472 0 0.000165989)
(-0.000111831 0 0.000226031)
(-0.000208979 0 0.000212046)
(-0.000210415 0 0.00023303)
(-0.000251177 0 0.000193803)
(-0.000272907 0 0.000207296)
(-0.000383379 0 0.00023588)
(-0.000461237 0 0.000268394)
(-0.000535901 0 0.000260114)
(-0.000599898 0 0.000349043)
(-0.000687355 0 0.000346698)
(-0.000717127 0 0.000357733)
(-0.000740765 0 0.000327957)
(-0.000736818 0 0.000314348)
(-0.000840354 0 0.0001974)
(-0.0009471 0 0.000268538)
(-0.000943807 0 0.00047288)
(-0.0010472 0 0.00038524)
(-0.0011728 0 0.000328579)
(-0.00125749 0 0.000389255)
(-0.00136113 0 0.000332236)
(-0.00141208 0 0.000391996)
(-0.00147654 0 0.000343835)
(-0.00151482 0 0.000310518)
(-0.00152922 0 0.000288091)
(-0.0015478 0 0.000215404)
(-0.0015673 0 0.000160661)
(-0.00157475 0 0.00013533)
(-0.00156257 0 -5.71859e-06)
(-0.00153095 0 -7.14337e-06)
(-0.00151932 0 -1.79776e-05)
(-0.00151331 0 -8.16573e-05)
(-0.00150963 0 -0.000168257)
(-0.00151777 0 -0.000185598)
(-0.00148739 0 -0.00030068)
(-0.00144394 0 -0.000347737)
(-0.00143551 0 -0.000331045)
(-0.00140356 0 -0.000419146)
(-0.0014023 0 -0.000435223)
(-0.00132446 0 -0.00054997)
(-0.00122718 0 -0.000493102)
(-0.00112715 0 -0.000565058)
(-0.00110487 0 -0.000565669)
(-0.000913184 0 -0.000814187)
(-0.000873737 0 -0.000553372)
(-0.000672038 0 -0.000538977)
(-0.000600955 0 -0.000403327)
(-0.000573186 0 -0.00020753)
(-0.000431155 0 -0.000216224)
(-0.000368287 0 -0.000132072)
(-0.000257632 0 -0.000163256)
(-0.000188754 0 -0.000128116)
(-0.000149833 0 -0.000115781)
(-2.34099e-05 0 -0.000236197)
(-1.54819e-05 0 -0.00032264)
(4.95019e-05 0 -0.000342145)
(0.00012616 0 -0.000319041)
(7.98672e-05 0 -0.000311713)
(0.000119936 0 -0.00024166)
(0.000122288 0 -0.000204757)
(0.000163798 0 -0.000161666)
(0.000182385 0 -0.000149249)
(0.000186782 0 -0.000136258)
(0.000188063 0 -8.33613e-05)
(0.000191645 0 -3.24301e-05)
(0.000202161 0 -5.36141e-06)
(0.000230572 0 4.72854e-06)
(0.000261277 0 5.45808e-05)
(0.000305873 0 4.61011e-05)
(0.000345354 0 9.80691e-05)
(0.00038464 0 0.000122699)
(0.000396295 0 0.00019775)
(0.000440888 0 0.000233042)
(0.0004645 0 0.000333803)
(0.000529049 0 0.000275894)
(0.000485482 0 0.000300422)
(0.000487358 0 0.000202292)
(3.19202e-05 0 0.000123774)
(9.32667e-06 0 0.000328426)
(-6.73684e-13 0 6.3734e-13)
(-1.32184e-12 0 -1.0481e-12)
(1.21892e-13 0 -8.85814e-13)
(2.08053e-13 0 -7.15227e-13)
(2.78958e-13 0 -5.9628e-13)
(3.48592e-13 0 -5.21177e-13)
(4.24404e-13 0 -4.71848e-13)
(5.0606e-13 0 -4.34719e-13)
(5.90148e-13 0 -4.01733e-13)
(6.72952e-13 0 -3.68717e-13)
(7.51377e-13 0 -3.3381e-13)
(8.23095e-13 0 -2.96484e-13)
(8.86503e-13 0 -2.56907e-13)
(9.40563e-13 0 -2.1557e-13)
(9.84632e-13 0 -1.73076e-13)
(1.01836e-12 0 -1.30058e-13)
(1.04165e-12 0 -8.71575e-14)
(1.05471e-12 0 -4.50144e-14)
(1.05796e-12 0 -4.22931e-15)
(1.05196e-12 0 3.46944e-14)
(1.03727e-12 0 7.13832e-14)
(1.01448e-12 0 1.05578e-13)
(9.84221e-13 0 1.37104e-13)
(9.47186e-13 0 1.65856e-13)
(9.04094e-13 0 1.91797e-13)
(8.55642e-13 0 2.14958e-13)
(8.02477e-13 0 2.3542e-13)
(7.4518e-13 0 2.53315e-13)
(6.84256e-13 0 2.68811e-13)
(6.20138e-13 0 2.82103e-13)
(5.53208e-13 0 2.9339e-13)
(4.83833e-13 0 3.02859e-13)
(4.12393e-13 0 3.10672e-13)
(3.39281e-13 0 3.16964e-13)
(2.6489e-13 0 3.2185e-13)
(1.89584e-13 0 3.25427e-13)
(1.1368e-13 0 3.27779e-13)
(3.78075e-14 0 3.28971e-13)
(-4.52027e-05 0 -0.000160027)
(-0.00013742 0 -4.19767e-05)
(-0.000198506 0 9.38492e-05)
(-0.000252725 0 0.000108343)
(-0.000199639 0 0.000221141)
(-0.000224196 0 0.000216287)
(-0.000260095 0 0.000190285)
(-0.00026392 0 0.000213424)
(-0.000243192 0 0.000298122)
(-0.000430319 0 0.000281371)
(-0.000466565 0 0.000385585)
(-0.000479399 0 0.000465186)
(-0.000604262 0 0.000400353)
(-0.000639 0 0.000435753)
(-0.00071199 0 0.000377901)
(-0.000726404 0 0.000381544)
(-0.000803088 0 0.000298781)
(-0.00086964 0 0.000372317)
(-0.00090338 0 0.00050492)
(-0.00104492 0 0.000395009)
(-0.00114197 0 0.000441368)
(-0.0012606 0 0.000399009)
(-0.00127223 0 0.000527835)
(-0.00134571 0 0.000434552)
(-0.00138978 0 0.000398532)
(-0.00142083 0 0.000400754)
(-0.001437 0 0.000376789)
(-0.00143695 0 0.000253712)
(-0.00142322 0 0.000214523)
(-0.00141578 0 0.000187126)
(-0.00140756 0 0.000127544)
(-0.0014024 0 1.82399e-06)
(-0.00137326 0 -4.45386e-05)
(-0.00135595 0 -3.13136e-05)
(-0.00135163 0 -7.78721e-05)
(-0.00134921 0 -0.000150162)
(-0.00134422 0 -0.000182404)
(-0.00134334 0 -0.000186955)
(-0.00136028 0 -0.000249589)
(-0.00137917 0 -0.000280789)
(-0.00131764 0 -0.000449741)
(-0.0013103 0 -0.000451635)
(-0.00131608 0 -0.000457955)
(-0.00118139 0 -0.000647869)
(-0.00112459 0 -0.000658345)
(-0.00107751 0 -0.000716096)
(-0.00101986 0 -0.000775064)
(-0.000847343 0 -0.000775586)
(-0.000763804 0 -0.000619862)
(-0.000681894 0 -0.000460824)
(-0.000567747 0 -0.000364462)
(-0.000416415 0 -0.000363263)
(-0.000402394 0 -0.000232768)
(-0.000362239 0 -0.000160586)
(-0.000285034 0 -0.000183229)
(-0.000223207 0 -0.000213139)
(-6.69416e-05 0 -0.00033919)
(-7.57777e-05 0 -0.000365457)
(-7.17499e-05 0 -0.000380187)
(7.85036e-06 0 -0.000359122)
(3.30474e-05 0 -0.000281704)
(2.92386e-05 0 -0.000226245)
(3.02931e-05 0 -0.000215221)
(5.1038e-05 0 -0.000199581)
(7.58353e-05 0 -0.000169559)
(7.99008e-05 0 -0.000131189)
(8.87655e-05 0 -9.94956e-05)
(0.000104929 0 -7.72067e-05)
(0.00013292 0 -6.9951e-05)
(0.000175426 0 -1.90934e-05)
(0.000219561 0 -1.35172e-05)
(0.000263421 0 2.96478e-05)
(0.000294049 0 6.98057e-05)
(0.0003081 0 0.000109946)
(0.000323003 0 0.000156168)
(0.000354968 0 0.000191873)
(0.000405583 0 0.00023866)
(0.000402682 0 0.00035916)
(0.000422542 0 0.000338075)
(0.000426244 0 0.00030599)
(-5.52398e-05 0 0.000263032)
(9.45154e-06 0 0.000568341)
(-9.88385e-13 0 1.84661e-12)
(-1.46775e-12 0 -1.35422e-12)
(2.77586e-13 0 -1.0095e-12)
(3.60676e-13 0 -7.60103e-13)
(3.76775e-13 0 -6.37776e-13)
(4.07715e-13 0 -5.79549e-13)
(4.64664e-13 0 -5.45642e-13)
(5.39846e-13 0 -5.17314e-13)
(6.23753e-13 0 -4.86833e-13)
(7.09099e-13 0 -4.51521e-13)
(7.90873e-13 0 -4.10913e-13)
(8.65762e-13 0 -3.65571e-13)
(9.31713e-13 0 -3.16483e-13)
(9.87531e-13 0 -2.64762e-13)
(1.03256e-12 0 -2.11488e-13)
(1.06648e-12 0 -1.57641e-13)
(1.08924e-12 0 -1.04101e-13)
(1.10106e-12 0 -5.16772e-14)
(1.10246e-12 0 -1.10419e-15)
(1.09411e-12 0 4.69998e-14)
(1.07672e-12 0 9.21803e-14)
(1.05101e-12 0 1.34142e-13)
(1.01769e-12 0 1.72711e-13)
(9.77537e-13 0 2.07805e-13)
(9.31337e-13 0 2.39419e-13)
(8.79846e-13 0 2.67612e-13)
(8.23759e-13 0 2.92498e-13)
(7.63697e-13 0 3.14231e-13)
(7.002e-13 0 3.33003e-13)
(6.33722e-13 0 3.49039e-13)
(5.64647e-13 0 3.6258e-13)
(4.9333e-13 0 3.73871e-13)
(4.20124e-13 0 3.83134e-13)
(3.45398e-13 0 3.90563e-13)
(2.6952e-13 0 3.96321e-13)
(1.92832e-13 0 4.00542e-13)
(1.15627e-13 0 4.0333e-13)
(3.84647e-14 0 4.04757e-13)
(-5.81344e-05 0 -0.000132894)
(-0.000130462 0 8.79959e-05)
(-7.9391e-05 0 0.000203333)
(-0.000217917 0 0.000194235)
(-0.000217843 0 0.000217264)
(-0.000231957 0 0.000218578)
(-0.000220372 0 0.000255515)
(-0.000205019 0 0.000320212)
(-0.000333864 0 0.000291579)
(-0.000391152 0 0.000414106)
(-0.000509336 0 0.000431713)
(-0.000597726 0 0.000425457)
(-0.000697592 0 0.00035563)
(-0.000660579 0 0.00046283)
(-0.000712211 0 0.000429451)
(-0.000749722 0 0.000397935)
(-0.00076688 0 0.000466469)
(-0.000838754 0 0.000545076)
(-0.00105761 0 0.00035007)
(-0.00110404 0 0.000459086)
(-0.0011938 0 0.000464233)
(-0.00120748 0 0.000579847)
(-0.00127809 0 0.000500181)
(-0.00129775 0 0.000492624)
(-0.00130511 0 0.000465429)
(-0.00131401 0 0.000417823)
(-0.00133668 0 0.00034357)
(-0.00129997 0 0.000174465)
(-0.00123995 0 0.000195358)
(-0.00121779 0 0.000141136)
(-0.00120286 0 7.10317e-05)
(-0.00119725 0 4.11458e-05)
(-0.00119168 0 -1.29289e-05)
(-0.00116911 0 -4.46227e-05)
(-0.00115856 0 -6.6371e-05)
(-0.00115061 0 -0.000136005)
(-0.00113532 0 -0.000220598)
(-0.00112494 0 -0.000275859)
(-0.00114069 0 -0.000373104)
(-0.00121671 0 -0.000250044)
(-0.00111135 0 -0.00058946)
(-0.00114455 0 -0.000593348)
(-0.0011962 0 -0.000552114)
(-0.00117033 0 -0.000611307)
(-0.00110096 0 -0.000719724)
(-0.00106698 0 -0.000766816)
(-0.00102918 0 -0.000819953)
(-0.000935615 0 -0.00084021)
(-0.000794516 0 -0.000780539)
(-0.000723146 0 -0.000597399)
(-0.000618799 0 -0.00044551)
(-0.000520667 0 -0.000337153)
(-0.00046113 0 -0.000227891)
(-0.000340699 0 -0.00027167)
(-0.000287233 0 -0.000269081)
(-0.000240812 0 -0.000292205)
(-0.000153021 0 -0.000389511)
(-0.000143548 0 -0.000407495)
(-0.000127782 0 -0.000413983)
(-0.000111277 0 -0.000371224)
(-3.61776e-05 0 -0.000278368)
(-3.04717e-05 0 -0.000225413)
(-2.68174e-05 0 -0.000216771)
(-2.38988e-05 0 -0.000203104)
(7.39762e-06 0 -0.00018109)
(1.7731e-05 0 -0.000151625)
(4.46628e-05 0 -0.000121831)
(6.61062e-05 0 -0.000110362)
(0.000102472 0 -8.7933e-05)
(0.000131897 0 -8.81798e-05)
(0.00017483 0 -5.10703e-05)
(0.000206832 0 -3.92772e-06)
(0.000223173 0 4.09574e-05)
(0.000231768 0 8.90145e-05)
(0.000248651 0 0.000135573)
(0.000269436 0 0.000181572)
(0.000302524 0 0.000247002)
(0.000458735 0 9.66002e-05)
(0.000351687 0 0.000345202)
(0.000329277 0 0.000395716)
(-0.000219086 0 0.000369278)
(1.05489e-05 0 0.000899555)
(-1.43606e-12 0 4.80467e-12)
(-1.52878e-12 0 -2.57319e-12)
(7.16348e-13 0 -1.03843e-12)
(5.80176e-13 0 -6.78395e-13)
(4.5975e-13 0 -6.15501e-13)
(4.40761e-13 0 -6.14099e-13)
(4.86639e-13 0 -6.1438e-13)
(5.64868e-13 0 -6.0253e-13)
(6.55941e-13 0 -5.77129e-13)
(7.48872e-13 0 -5.39872e-13)
(8.37327e-13 0 -4.92988e-13)
(9.17526e-13 0 -4.38683e-13)
(9.87311e-13 0 -3.78993e-13)
(1.04556e-12 0 -3.1575e-13)
(1.09175e-12 0 -2.50583e-13)
(1.12574e-12 0 -1.84891e-13)
(1.14761e-12 0 -1.19846e-13)
(1.15771e-12 0 -5.64399e-14)
(1.15664e-12 0 4.47159e-15)
(1.14524e-12 0 6.21791e-14)
(1.12441e-12 0 1.16163e-13)
(1.09501e-12 0 1.66098e-13)
(1.05788e-12 0 2.11818e-13)
(1.01389e-12 0 2.53272e-13)
(9.63901e-13 0 2.90492e-13)
(9.08722e-13 0 3.23586e-13)
(8.49096e-13 0 3.52711e-13)
(7.85685e-13 0 3.78068e-13)
(7.19063e-13 0 3.99892e-13)
(6.49715e-13 0 4.18456e-13)
(5.7804e-13 0 4.34055e-13)
(5.04387e-13 0 4.46993e-13)
(4.29084e-13 0 4.57558e-13)
(3.52468e-13 0 4.66002e-13)
(2.74869e-13 0 4.72537e-13)
(1.96593e-13 0 4.7733e-13)
(1.17895e-13 0 4.80506e-13)
(3.92349e-14 0 4.82146e-13)
(-0.000130405 0 -2.99832e-05)
(-0.000180147 0 0.000112676)
(-4.50501e-05 0 0.000266666)
(-0.000205514 0 0.000222399)
(-0.000214901 0 0.000226543)
(-0.000232962 0 0.000225857)
(-0.000245952 0 0.000239669)
(-0.000295441 0 0.000269567)
(-0.000270622 0 0.000437209)
(-0.00037285 0 0.000510509)
(-0.000467785 0 0.000538161)
(-0.000536085 0 0.000544856)
(-0.000594253 0 0.00054703)
(-0.000702104 0 0.000485969)
(-0.000776147 0 0.000433467)
(-0.00077856 0 0.000456137)
(-0.000788722 0 0.000547996)
(-0.000959923 0 0.000473878)
(-0.000991923 0 0.000608242)
(-0.00106392 0 0.000617821)
(-0.00113103 0 0.000603945)
(-0.00118391 0 0.000572792)
(-0.00121192 0 0.000540343)
(-0.00122506 0 0.000512326)
(-0.00126156 0 0.000323638)
(-0.00120796 0 0.000360622)
(-0.00116098 0 0.000423861)
(-0.00115648 0 0.000130611)
(-0.00105738 0 0.000181469)
(-0.0010304 0 0.000177747)
(-0.00104105 0 8.42748e-05)
(-0.00102534 0 -6.23855e-05)
(-0.000997509 0 -2.11615e-05)
(-0.000991081 0 -4.75584e-05)
(-0.000994004 0 -0.000103739)
(-0.000992821 0 -0.000140484)
(-0.000987862 0 -0.00018159)
(-0.00101397 0 -0.000191134)
(-0.00102783 0 -0.000207163)
(-0.00100902 0 -0.000302055)
(-0.000998971 0 -0.000397054)
(-0.00102781 0 -0.000518264)
(-0.00107225 0 -0.000563033)
(-0.000990288 0 -0.000782386)
(-0.0010022 0 -0.000819469)
(-0.00104777 0 -0.000798695)
(-0.000988747 0 -0.00088251)
(-0.000975933 0 -0.000883442)
(-0.000839325 0 -0.000897813)
(-0.000807155 0 -0.000719993)
(-0.000664291 0 -0.000616113)
(-0.000568705 0 -0.000460908)
(-0.000423158 0 -0.000397673)
(-0.000377756 0 -0.000313784)
(-0.000325715 0 -0.000312054)
(-0.000275148 0 -0.000345858)
(-0.000209697 0 -0.000430058)
(-0.000201617 0 -0.000455334)
(-0.000147736 0 -0.000467664)
(-0.000161711 0 -0.000381198)
(-0.000161438 0 -0.000276605)
(-0.000133873 0 -0.000228514)
(-7.81079e-05 0 -0.000213867)
(-9.32114e-05 0 -0.000199023)
(-8.33465e-05 0 -0.000203321)
(-7.66576e-05 0 -0.000190134)
(-5.14368e-05 0 -0.000173836)
(6.52126e-07 0 -0.0001545)
(4.05698e-05 0 -0.000134597)
(7.13324e-05 0 -0.000116871)
(0.000108425 0 -7.55525e-05)
(0.000132483 0 -3.81407e-05)
(0.000150259 0 1.96676e-05)
(0.000177383 0 4.42555e-05)
(0.000190458 0 0.00011056)
(0.00023238 0 0.000141249)
(0.000164482 0 0.000284524)
(0.00023816 0 0.000292925)
(0.000370097 0 0.000268999)
(0.000352436 0 0.000370642)
(-3.58791e-05 0 0.000420435)
(4.01919e-05 0 0.000939912)
(-1.03474e-10 0 4.85696e-10)
(-1.71901e-12 0 2.0751e-12)
(2.1725e-12 0 1.59922e-13)
(7.83946e-13 0 -3.00051e-13)
(4.41274e-13 0 -5.31992e-13)
(4.08847e-13 0 -6.47368e-13)
(4.76233e-13 0 -6.95617e-13)
(5.77097e-13 0 -7.01596e-13)
(6.86411e-13 0 -6.79469e-13)
(7.9324e-13 0 -6.37898e-13)
(8.92062e-13 0 -5.82524e-13)
(9.79757e-13 0 -5.17335e-13)
(1.05464e-12 0 -4.45369e-13)
(1.11594e-12 0 -3.69093e-13)
(1.16342e-12 0 -2.90632e-13)
(1.19722e-12 0 -2.11812e-13)
(1.21769e-12 0 -1.34141e-13)
(1.22538e-12 0 -5.88257e-14)
(1.22108e-12 0 1.31555e-14)
(1.2058e-12 0 8.10193e-14)
(1.18064e-12 0 1.44198e-13)
(1.14667e-12 0 2.02348e-13)
(1.10486e-12 0 2.55322e-13)
(1.05621e-12 0 3.0311e-13)
(1.00165e-12 0 3.45807e-13)
(9.42065e-13 0 3.83587e-13)
(8.78241e-13 0 4.1668e-13)
(8.10878e-13 0 4.45363e-13)
(7.40588e-13 0 4.69943e-13)
(6.67884e-13 0 4.90759e-13)
(5.93185e-13 0 5.08174e-13)
(5.16833e-13 0 5.22555e-13)
(4.39133e-13 0 5.34252e-13)
(3.60378e-13 0 5.43572e-13)
(2.80849e-13 0 5.50773e-13)
(2.00801e-13 0 5.56053e-13)
(1.20443e-13 0 5.59557e-13)
(4.01039e-14 0 5.61373e-13)
(-4.63423e-05 0 3.23473e-05)
(-0.000200008 0 0.000161012)
(-0.000165497 0 0.000252544)
(-0.000199935 0 0.000253253)
(-0.000206261 0 0.000254344)
(-0.000237567 0 0.000243548)
(-0.000235481 0 0.000280215)
(-0.000314646 0 0.000325358)
(-0.000336609 0 0.000494264)
(-0.000505471 0 0.000489984)
(-0.000448399 0 0.000620649)
(-0.000528389 0 0.000592208)
(-0.000560631 0 0.000598985)
(-0.000654056 0 0.000568702)
(-0.000665475 0 0.000607691)
(-0.000731124 0 0.000580224)
(-0.000821453 0 0.00060731)
(-0.000907735 0 0.000642694)
(-0.000972301 0 0.000650803)
(-0.00105839 0 0.000606626)
(-0.00111632 0 0.000584982)
(-0.00114156 0 0.000567048)
(-0.00113803 0 0.000553024)
(-0.00111214 0 0.000523357)
(-0.00106209 0 0.000502195)
(-0.0010324 0 0.000383425)
(-0.00101087 0 0.000331868)
(-0.00102126 0 0.000251984)
(-0.00101828 0 -3.01139e-05)
(-0.000924577 0 9.97045e-05)
(-0.000899778 0 0.000116625)
(-0.000904777 0 7.68939e-05)
(-0.000890618 0 -0.000124648)
(-0.00086976 0 -6.74762e-05)
(-0.000867266 0 -7.16236e-05)
(-0.000876731 0 -0.000130188)
(-0.00086564 0 -0.000226307)
(-0.000864621 0 -0.000265218)
(-0.000873708 0 -0.000252648)
(-0.000864511 0 -0.000281751)
(-0.000871635 0 -0.00038629)
(-0.000926826 0 -0.000390382)
(-0.000951608 0 -0.000479924)
(-0.00101782 0 -0.000551632)
(-0.000953367 0 -0.000790327)
(-0.000949886 0 -0.000889402)
(-0.000977186 0 -0.000898632)
(-0.00096991 0 -0.000914625)
(-0.000918076 0 -0.000919624)
(-0.0008325 0 -0.00084178)
(-0.0007455 0 -0.000713557)
(-0.00065967 0 -0.000549545)
(-0.000503279 0 -0.000472373)
(-0.000429291 0 -0.000377802)
(-0.000345858 0 -0.000379113)
(-0.000317398 0 -0.000388122)
(-0.000275181 0 -0.0004503)
(-0.000274246 0 -0.000478211)
(-0.000261983 0 -0.000485364)
(-0.000241926 0 -0.000417498)
(-0.00018412 0 -0.000345619)
(-0.000150736 0 -0.000275022)
(-0.000169902 0 -0.000211163)