0.010101 	-3.74414e-13 	3.87027e-16 	-3.70157e-15
0.020202 	-1.36468e-14 	3.38531e-17 	-2.2285e-16
