/*--------------------------------*- C++ -*----------------------------------*\
  =========                 |
  \\      /  F ield         | OpenFOAM: The Open Source CFD Toolbox
   \\    /   O peration     | Website:  https://openfoam.org
    \\  /    A nd           | Version:  6
     \\/     M anipulation  |
\*---------------------------------------------------------------------------*/
FoamFile
{
    version     2.0;
    format      ascii;
    class       surfaceScalarField;
    location    "4300";
    object      phi;
}
// * * * * * * * * * * * * * * * * * * * * * * * * * * * * * * * * * * * * * //

dimensions      [0 3 -1 0 0 0 0];

internalField   nonuniform List<scalar> 
9440
(
3.07843e-10
-3.07843e-10
1.49917e-09
-1.19133e-09
2.6444e-09
-1.14524e-09
3.54053e-09
-8.96132e-10
4.23711e-09
-6.96576e-10
4.74462e-09
-5.07512e-10
5.22957e-09
-4.84948e-10
5.36425e-09
-1.34681e-10
5.54274e-09
-1.78486e-10
5.74545e-09
-2.02712e-10
5.85381e-09
-1.08364e-10
5.9426e-09
-8.87921e-11
6.12611e-09
-1.83509e-10
6.3142e-09
-1.88091e-10
6.264e-09
5.02058e-11
6.47253e-09
-2.0853e-10
6.58927e-09
-1.16741e-10
6.67189e-09
-8.26229e-11
6.80671e-09
-1.34817e-10
7.00911e-09
-2.02406e-10
7.17484e-09
-1.65722e-10
7.33046e-09
-1.55624e-10
7.4421e-09
-1.11638e-10
7.57835e-09
-1.36251e-10
7.76175e-09
-1.83395e-10
7.8962e-09
-1.34453e-10
8.05714e-09
-1.60944e-10
8.19962e-09
-1.42471e-10
8.31157e-09
-1.11953e-10
8.33931e-09
-2.77412e-11
8.40798e-09
-6.86643e-11
8.51183e-09
-1.03852e-10
8.57024e-09
-5.84099e-11
8.61074e-09
-4.0501e-11
8.69973e-09
-8.89872e-11
8.78898e-09
-8.92546e-11
8.80399e-09
-1.50083e-11
8.79943e-09
4.56717e-12
8.76854e-09
3.08868e-11
8.72311e-09
4.54265e-11
8.6545e-09
6.86144e-11
8.60765e-09
4.68469e-11
8.54648e-09
6.11757e-11
8.52485e-09
2.16339e-11
8.47962e-09
4.52313e-11
8.44627e-09
3.33445e-11
8.3477e-09
9.85688e-11
8.22991e-09
1.17798e-10
8.06226e-09
1.67644e-10
7.86379e-09
1.98477e-10
7.61097e-09
2.5282e-10
7.34799e-09
2.62981e-10
7.07616e-09
2.71827e-10
6.81003e-09
2.66127e-10
6.49423e-09
3.15799e-10
6.31403e-09
1.80208e-10
6.04936e-09
2.64666e-10
5.66846e-09
3.80903e-10
5.31441e-09
3.54048e-10
4.78429e-09
5.30119e-10
3.85992e-09
9.24368e-10
3.14896e-09
7.10959e-10
2.23791e-09
9.11049e-10
1.07774e-09
1.16017e-09
4.58967e-10
6.18773e-10
-1.94245e-10
6.53213e-10
-7.01516e-10
5.07271e-10
-1.17117e-09
4.69651e-10
-1.46691e-09
2.95742e-10
-1.59384e-09
1.26935e-10
-1.64574e-09
5.1895e-11
-1.60149e-09
-4.42517e-11
-1.5229e-09
-7.8582e-11
-1.43518e-09
-8.77193e-11
-1.33481e-09
-1.00377e-10
-1.30157e-09
-3.3238e-11
-1.29049e-09
-1.10751e-11
-1.2618e-09
-2.86964e-11
-1.22176e-09
-4.00388e-11
-1.07804e-09
-1.43713e-10
-9.08916e-10
-1.69127e-10
-7.20783e-10
-1.88133e-10
-5.91771e-10
-1.29012e-10
-2.83709e-10
-3.08061e-10
1.9693e-14
-2.83728e-10
-8.56734e-18
2.01888e-14
4.62724e-18
3.05118e-19
4.40563e-18
2.21608e-19
4.22004e-18
1.85759e-19
4.04515e-18
1.74388e-19
3.86971e-18
1.74979e-19
3.69035e-18
1.7915e-19
3.50835e-18
1.82129e-19
3.32713e-18
1.8167e-19
3.15083e-18
1.77166e-19
2.98327e-18
1.68955e-19
2.82717e-18
1.5788e-19
2.68392e-18
1.45045e-19
2.55378e-18
1.31643e-19
2.43608e-18
1.18791e-19
2.32939e-18
1.07406e-19
2.23174e-18
9.81435e-20
2.14076e-18
9.1395e-20
2.05396e-18
8.73293e-20
1.96877e-18
8.59288e-20
1.88274e-18
8.70157e-20
1.79362e-18
9.02859e-20
1.69942e-18
9.53622e-20
1.5986e-18
1.01841e-19
1.49006e-18
1.09329e-19
1.37317e-18
1.17463e-19
1.24765e-18
1.2591e-19
1.11365e-18
1.34346e-19
9.71586e-19
1.42433e-19
8.22138e-19
1.49842e-19
6.66148e-19
1.56297e-19
5.04638e-19
1.61609e-19
3.38816e-19
1.65654e-19
1.70076e-19
1.68334e-19
1.69547e-19
4.26534e-10
-7.34377e-10
2.0219e-09
-2.78669e-09
2.92907e-09
-2.05241e-09
3.41707e-09
-1.38413e-09
4.00579e-09
-1.2853e-09
4.45544e-09
-9.57161e-10
4.94625e-09
-9.75764e-10
5.15786e-09
-3.46291e-10
5.37586e-09
-3.96481e-10
5.5669e-09
-3.93757e-10
5.51962e-09
-6.10818e-11
5.67578e-09
-2.44954e-10
5.82421e-09
-3.31937e-10
5.92856e-09
-2.9244e-10
6.14152e-09
-1.62756e-10
6.28944e-09
-3.56454e-10
6.49368e-09
-3.20974e-10
6.59189e-09
-1.8084e-10
6.57257e-09
-1.15497e-10
6.6654e-09
-2.95234e-10
6.74623e-09
-2.46544e-10
6.87493e-09
-2.84331e-10
7.07438e-09
-3.11088e-10
7.19124e-09
-2.53106e-10
7.26225e-09
-2.54399e-10
7.45867e-09
-3.30874e-10
7.59906e-09
-3.01333e-10
7.70201e-09
-2.45418e-10
7.7722e-09
-1.82143e-10
7.87304e-09
-1.2858e-10
7.96093e-09
-1.56557e-10
8.05703e-09
-1.99944e-10
8.20637e-09
-2.07754e-10
8.31217e-09
-1.46297e-10
8.32035e-09
-9.71707e-11
8.32421e-09
-9.31045e-11
8.31731e-09
-8.11018e-12
8.29092e-09
3.09551e-11
8.28e-09
4.18065e-11
8.23596e-09
8.94674e-11
8.1952e-09
1.09379e-10
8.13684e-09
1.05211e-10
8.09034e-09
1.07674e-10
8.02384e-09
8.81359e-11
7.98882e-09
8.02517e-11
7.93946e-09
8.27092e-11
7.89386e-09
1.4417e-10
7.84608e-09
1.65578e-10
7.67505e-09
3.38668e-10
7.6247e-09
2.48832e-10
7.37777e-09
4.99751e-10
7.15156e-09
4.89193e-10
7.09069e-09
3.32699e-10
6.74206e-09
6.14753e-10
6.55272e-09
5.05139e-10
6.47332e-09
2.59609e-10
6.08518e-09
6.52801e-10
5.76437e-09
7.01717e-10
5.57813e-09
5.40285e-10
5.02427e-09
1.08398e-09
4.7663e-09
1.18234e-09
4.01098e-09
1.46628e-09
3.21227e-09
1.70976e-09
2.38426e-09
1.98818e-09
1.40864e-09
1.5944e-09
6.49919e-10
1.41193e-09
3.16701e-10
8.40489e-10
-1.40939e-11
8.00445e-10
-4.04262e-10
6.85911e-10
-6.99405e-10
4.22077e-10
-8.05765e-10
1.58256e-10
-8.68886e-10
1.88691e-11
-9.0322e-10
-4.42466e-11
-1.03001e-09
3.9076e-11
-1.12759e-09
-2.79905e-12
-1.15524e-09
-5.58532e-12
-1.13159e-09
-3.47229e-11
-1.11469e-09
-4.56024e-11
-1.06665e-09
-8.80698e-11
-1.00534e-09
-2.05026e-10
-9.09946e-10
-2.64521e-10
-8.00812e-10
-2.97265e-10
-5.66082e-10
-3.63741e-10
-2.49625e-10
-6.24517e-10
5.4079e-11
-5.87432e-10
-1.79704e-16
5.41002e-11
4.54375e-18
4.30171e-19
4.36978e-18
3.94238e-19
4.20867e-18
3.46677e-19
4.04574e-18
3.37394e-19
3.87388e-18
3.4731e-19
3.69333e-18
3.60752e-19
3.50789e-18
3.69308e-19
3.32262e-18
3.6934e-19
3.14262e-18
3.60105e-19
2.9722e-18
3.42629e-19
2.81433e-18
3.19004e-19
2.67051e-18
2.9181e-19
2.54093e-18
2.63662e-19
2.4247e-18
2.36896e-19
2.32013e-18
2.1338e-19
2.22499e-18
1.94429e-19
2.1367e-18
1.80802e-19
2.05256e-18
1.72739e-19
1.96985e-18
1.70076e-19
1.88601e-18
1.72366e-19
1.79869e-18
1.7901e-19
1.7059e-18
1.89324e-19
1.60609e-18
2.02584e-19
1.4982e-18
2.1804e-19
1.38161e-18
2.3491e-19
1.25609e-18
2.52384e-19
1.12173e-18
2.69646e-19
9.78995e-19
2.85951e-19
8.28593e-19
3.0071e-19
6.7146e-19
3.13508e-19
5.08683e-19
3.24064e-19
3.41496e-19
3.32159e-19
1.7129e-19
3.37627e-19
3.40405e-19
1.56767e-09
-2.30205e-09
1.11312e-09
-2.33214e-09
1.88141e-09
-2.8207e-09
2.79175e-09
-2.29447e-09
3.33391e-09
-1.82746e-09
3.77484e-09
-1.39809e-09
3.97001e-09
-1.17093e-09
4.45659e-09
-8.32874e-10
4.63828e-09
-5.78168e-10
4.8002e-09
-5.55683e-10
4.99129e-09
-2.52172e-10
5.02854e-09
-2.822e-10
5.17356e-09
-4.76961e-10
5.40223e-09
-5.2111e-10
5.64642e-09
-4.06944e-10
5.69711e-09
-4.07145e-10
5.76101e-09
-3.84877e-10
5.84773e-09
-2.67559e-10
5.96131e-09
-2.29077e-10
6.13671e-09
-4.70632e-10
6.29378e-09
-4.03609e-10
6.41221e-09
-4.02765e-10
6.561e-09
-4.59873e-10
6.6597e-09
-3.51807e-10
6.85186e-09
-4.46554e-10
6.92028e-09
-3.99291e-10
6.88824e-09
-2.69299e-10
7.05795e-09
-4.15123e-10
7.17494e-09
-2.99137e-10
7.30976e-09
-2.63394e-10
7.35644e-09
-2.03242e-10
7.3573e-09
-2.00797e-10
7.37543e-09
-2.25886e-10
7.35701e-09
-1.2787e-10
7.37643e-09
-1.16591e-10
7.39595e-09
-1.12621e-10
7.41319e-09
-2.53559e-11
7.43372e-09
1.04304e-11
7.46538e-09
1.01466e-11
7.47545e-09
7.94014e-11
7.48613e-09
9.86998e-11
7.46488e-09
1.26459e-10
7.45142e-09
1.21134e-10
7.37983e-09
1.59723e-10
7.31089e-09
1.4919e-10
7.25629e-09
1.37314e-10
7.16675e-09
2.33714e-10
7.10502e-09
2.27306e-10
7.06576e-09
3.7793e-10
6.95797e-09
3.56615e-10
6.90606e-09
5.51663e-10
6.76921e-09
6.26043e-10
6.65647e-09
4.45439e-10
6.51304e-09
7.58184e-10
6.29119e-09
7.26991e-10
6.2051e-09
3.45695e-10
5.96449e-09
8.93419e-10
5.64082e-09
1.02538e-09
5.49365e-09
6.87454e-10
5.12183e-09
1.4558e-09
4.75953e-09
1.54463e-09
4.48774e-09
1.73807e-09
3.86331e-09
2.33419e-09
3.14077e-09
2.71072e-09
2.09847e-09
2.6367e-09
1.34409e-09
2.16632e-09
6.04117e-10
1.58046e-09
3.25102e-10
1.07946e-09
2.46486e-10
7.64526e-10
1.0642e-10
5.62143e-10
-1.65325e-10
4.30001e-10
-4.12475e-10
2.66019e-10
-5.47066e-10
9.03451e-11
-6.30855e-10
1.22866e-10
-6.9225e-10
5.85975e-11
-7.62379e-10
6.45448e-11
-8.14304e-10
1.72032e-11
-8.39206e-10
-2.07001e-11
-8.23495e-10
-1.0378e-10
-8.43067e-10
-1.85453e-10
-7.38769e-10
-3.68819e-10
-6.27814e-10
-4.08221e-10
-3.57282e-10
-6.34273e-10
-2.42423e-10
-7.39375e-10
-1.16491e-12
-8.28689e-10
-8.60532e-16
5.29374e-11
4.50794e-18
1.27427e-18
4.32222e-18
5.79601e-19
4.19938e-18
4.71275e-19
4.05566e-18
4.83394e-19
3.88732e-18
5.18285e-19
3.70189e-18
5.49245e-19
3.50792e-18
5.66685e-19
3.31339e-18
5.67491e-19
3.12514e-18
5.52121e-19
2.94857e-18
5.23198e-19
2.78714e-18
4.84553e-19
2.64237e-18
4.40486e-19
2.51416e-18
3.95212e-19
2.40118e-18
3.52443e-19
2.30118e-18
3.15115e-19
2.21136e-18
2.8525e-19
2.12864e-18
2.63953e-19
2.04989e-18
2.51526e-19
1.97214e-18
2.4767e-19
1.89266e-18
2.51696e-19
1.80901e-18
2.62682e-19
1.71916e-18
2.7954e-19
1.62154e-18
3.01029e-19
1.51507e-18
3.25785e-19
1.39909e-18
3.52404e-19
1.27335e-18
3.79548e-19
1.13804e-18
4.06037e-19
9.93753e-19
4.30897e-19
8.41391e-19
4.5337e-19
6.82015e-19
4.72885e-19
5.16778e-19
4.88998e-19
3.46965e-19
5.01367e-19
1.74067e-19
5.09759e-19
5.13984e-19
8.64458e-10
-3.16651e-09
2.14081e-09
-3.6085e-09
2.20019e-09
-2.88007e-09
2.65083e-09
-2.74511e-09
2.79708e-09
-1.97372e-09
3.18255e-09
-1.78356e-09
3.57869e-09
-1.56708e-09
3.87595e-09
-1.13013e-09
4.10984e-09
-8.12058e-10
4.22758e-09
-6.73426e-10
4.40623e-09
-4.30823e-10
4.64358e-09
-5.19551e-10
4.80736e-09
-6.40743e-10
4.85099e-09
-5.64739e-10
4.95357e-09
-5.0952e-10
5.06566e-09
-5.19234e-10
5.14986e-09
-4.69077e-10
5.25747e-09
-3.75168e-10
5.42157e-09
-3.93185e-10
5.52991e-09
-5.78973e-10
5.72486e-09
-5.98551e-10
5.82535e-09
-5.03258e-10
5.8998e-09
-5.34323e-10
6.00212e-09
-4.54124e-10
6.06459e-09
-5.09023e-10
6.08931e-09
-4.24015e-10
6.11397e-09
-2.9395e-10
6.23102e-09
-5.32181e-10
6.36939e-09
-4.375e-10
6.45936e-09
-3.53363e-10
6.52327e-09
-2.67154e-10
6.5448e-09
-2.22324e-10
6.58871e-09
-2.69795e-10
6.62489e-09
-1.64046e-10
6.63387e-09
-1.2557e-10
6.61723e-09
-9.59793e-11
6.61748e-09
-2.56063e-11
6.63302e-09
-5.11444e-12
6.65049e-09
-7.31838e-12
6.65748e-09
7.24147e-11
6.65152e-09
1.04653e-10
6.63255e-09
1.45437e-10
6.61694e-09
1.36738e-10
6.59063e-09
1.86037e-10
6.52481e-09
2.15011e-10
6.44089e-09
2.21237e-10
6.37947e-09
2.95133e-10
6.23743e-09
3.69341e-10
6.24139e-09
3.73976e-10
6.13727e-09
4.60738e-10
6.09588e-09
5.93046e-10
6.0548e-09
6.67129e-10
5.97718e-09
5.23055e-10
5.91238e-09
8.22986e-10
5.81286e-09
8.2651e-10
5.64484e-09
5.13712e-10
5.47266e-09
1.0656e-09
5.29058e-09
1.20746e-09
5.12073e-09
8.57308e-10
4.89307e-09
1.68346e-09
4.66492e-09
1.77279e-09
4.36623e-09
2.03675e-09
3.99807e-09
2.70236e-09
3.61055e-09
3.09823e-09
2.99229e-09
3.25496e-09
2.22873e-09
2.92988e-09
1.43755e-09
2.37164e-09
9.69275e-10
1.54774e-09
5.30222e-10
1.20358e-09
3.32658e-10
7.59706e-10
2.94795e-10
4.67865e-10
2.97327e-10
2.63488e-10
1.33169e-10
2.54504e-10
-5.07748e-11
3.06811e-10
-2.23083e-10
2.30907e-10
-3.98696e-10
2.40159e-10
-5.1526e-10
1.33767e-10
-5.36746e-10
7.862e-13
-5.67178e-10
-7.33477e-11
-6.18866e-10
-1.33765e-10
-6.23865e-10
-3.6382e-10
-5.73386e-10
-4.587e-10
-4.07815e-10
-7.99844e-10
-2.21679e-10
-9.2551e-10
-5.28646e-11
-9.97501e-10
1.58674e-18
7.40729e-14
3.81344e-18
-9.52092e-19
4.2139e-18
1.81357e-19
4.2115e-18
4.76797e-19
4.09055e-18
6.08194e-19
3.91828e-18
6.94763e-19
3.71933e-18
7.52678e-19
3.50873e-18
7.81974e-19
3.29802e-18
7.8302e-19
3.09622e-18
7.58824e-19
2.90993e-18
7.14532e-19
2.74307e-18
6.56456e-19
2.59709e-18
5.91198e-19
2.47139e-18
5.24961e-19
2.36385e-18
4.63045e-19
2.27132e-18
4.09533e-19
2.19006e-18
3.67186e-19
2.11621e-18
3.37481e-19
2.04604e-18
3.20763e-19
1.97617e-18
3.16509e-19
1.90364e-18
3.23605e-19
1.82587e-18
3.40557e-19
1.74065e-18
3.65608e-19
1.6463e-18
3.9681e-19
1.54169e-18
4.3212e-19
1.42623e-18
4.69546e-19
1.29984e-18
5.073e-19
1.1629e-18
5.43883e-19
1.01623e-18
5.78086e-19
8.60906e-19
6.08951e-19
6.98129e-19
6.35709e-19
5.29147e-19
6.57748e-19
3.55356e-19
6.74618e-19
1.78293e-19
6.86016e-19
6.91715e-19
8.76041e-10
-4.04255e-09
1.01974e-09
-3.7522e-09
1.40548e-09
-3.26581e-09
1.99045e-09
-3.33009e-09
2.41121e-09
-2.39447e-09
2.68292e-09
-2.05527e-09
3.04186e-09
-1.92602e-09
3.23672e-09
-1.325e-09
3.42449e-09
-9.99828e-10
3.55404e-09
-8.02979e-10
3.79366e-09
-6.7044e-10
3.90124e-09
-6.27128e-10
3.92648e-09
-6.65985e-10
4.00976e-09
-6.48017e-10
4.11981e-09
-6.19575e-10
4.22697e-09
-6.26397e-10
4.34529e-09
-5.87399e-10
4.51941e-09
-5.49288e-10
4.69085e-09
-5.64617e-10
4.7498e-09
-6.37921e-10
4.83868e-09
-6.87433e-10
4.97082e-09
-6.35397e-10
5.05472e-09
-6.18223e-10
5.18934e-09
-5.88743e-10
5.25815e-09
-5.77834e-10
5.35494e-09
-5.20804e-10
5.51356e-09
-4.52572e-10
5.50742e-09
-5.26038e-10
5.53575e-09
-4.65828e-10
5.58041e-09
-3.98025e-10
5.64635e-09
-3.33091e-10
5.70392e-09
-2.79894e-10
5.70985e-09
-2.75716e-10
5.75036e-09
-2.04558e-10
5.76814e-09
-1.43349e-10
5.80027e-09
-1.28112e-10
5.83404e-09
-5.93708e-11
5.81329e-09
1.56313e-11
5.78653e-09
1.94496e-11
5.78481e-09
7.41274e-11
5.77081e-09
1.18656e-10
5.75668e-09
1.59565e-10
5.70364e-09
1.89781e-10
5.69858e-09
1.91093e-10
5.64275e-09
2.70841e-10
5.55871e-09
3.05285e-10
5.513e-09
3.40835e-10
5.41497e-09
4.67377e-10
5.38218e-09
4.06765e-10
5.29848e-09
5.44436e-10
5.26348e-09
6.28043e-10
5.27621e-09
6.54405e-10
5.15697e-09
6.42293e-10
5.14678e-09
8.33174e-10
5.11574e-09
8.57555e-10
4.91303e-09
7.16419e-10
4.88295e-09
1.09568e-09
4.83552e-09
1.25489e-09
4.59444e-09
1.09839e-09
4.49839e-09
1.77951e-09
4.37992e-09
1.89126e-09
4.10731e-09
2.30936e-09
4.00243e-09
2.80724e-09
3.88926e-09
3.2114e-09
3.64292e-09
3.50131e-09
3.01893e-09
3.55387e-09
2.11715e-09
3.27342e-09
1.40045e-09
2.26444e-09
1.04797e-09
1.55606e-09
9.72225e-10
8.35451e-10
8.39486e-10
6.00605e-10
6.55528e-10
4.47446e-10
4.81779e-10
4.28253e-10
2.13281e-10
5.75309e-10
1.0698e-11
4.3349e-10
-1.25635e-10
3.76492e-10
-1.90752e-10
1.98885e-10
-2.19886e-10
2.99203e-11
-2.99696e-10
6.46282e-12
-4.34694e-10
1.23266e-12
-5.17693e-10
-2.80821e-10
-4.56322e-10
-5.20071e-10
-3.68861e-10
-8.87305e-10
-2.00233e-10
-1.09414e-09
1.35375e-13
-1.19787e-09
6.23551e-17
2.09032e-13
4.94699e-18
1.29706e-18
4.50934e-18
6.21413e-19
4.3429e-18
6.4634e-19
4.17712e-18
7.7815e-19
3.97619e-18
9.00204e-19
3.74862e-18
9.8496e-19
3.50978e-18
1.02572e-18
3.27382e-18
1.02392e-18
3.05193e-18
9.85638e-19
2.85185e-18
9.19576e-19
2.67781e-18
8.35466e-19
2.53086e-18
7.42907e-19
2.40948e-18
6.50526e-19
2.31034e-18
5.65432e-19
2.22897e-18
4.92947e-19
2.16036e-18
4.36568e-19
2.09949e-18
3.98067e-19
2.04178e-18
3.7767e-19
1.98327e-18
3.74374e-19
1.9206e-18
3.86326e-19
1.85092e-18
4.1117e-19
1.77185e-18
4.46285e-19
1.68161e-18
4.88943e-19
1.57911e-18
5.36426e-19
1.46399e-18
5.86183e-19
1.33642e-18
6.3597e-19
1.1971e-18
6.83927e-19
1.04709e-18
7.28556e-19
8.87663e-19
7.68656e-19
7.20169e-19
8.03267e-19
5.46016e-19
8.3165e-19
3.66754e-19
8.53298e-19
1.83992e-19
8.6788e-19
8.75187e-19
5.11521e-10
-4.55407e-09
9.21256e-10
-4.16193e-09
1.28863e-09
-3.63319e-09
1.49356e-09
-3.53502e-09
1.79231e-09
-2.69322e-09
2.47839e-09
-2.74135e-09
2.32736e-09
-1.77499e-09
2.51257e-09
-1.51021e-09
2.61488e-09
-1.10214e-09
2.73338e-09
-9.21478e-10
2.86487e-09
-8.01926e-10
3.0677e-09
-8.2996e-10
3.13208e-09
-7.3037e-10
3.18965e-09
-7.05589e-10
3.27868e-09
-7.08602e-10
3.36251e-09
-7.10227e-10
3.48794e-09
-7.1283e-10
3.66086e-09
-7.2221e-10
3.81739e-09
-7.21139e-10
3.89774e-09
-7.18276e-10
3.95291e-09
-7.42602e-10
4.053e-09
-7.35485e-10
4.17044e-09
-7.35658e-10
4.30271e-09
-7.21012e-10
4.41585e-09
-6.90973e-10
4.5275e-09
-6.3246e-10
4.61297e-09
-5.38043e-10
4.64502e-09
-5.58086e-10
4.696e-09
-5.16804e-10
4.78119e-09
-4.83213e-10
4.80439e-09
-3.56295e-10
4.81781e-09
-2.93307e-10
4.88615e-09
-3.44054e-10
4.92628e-09
-2.44684e-10
4.97015e-09
-1.87219e-10
4.98091e-09
-1.38872e-10
5.02333e-09
-1.01788e-10
4.99325e-09
4.5713e-11
4.94683e-09
6.58662e-11
4.96045e-09
6.0503e-11
4.94052e-09
1.38591e-10
4.91525e-09
1.84835e-10
4.85098e-09
2.54053e-10
4.82807e-09
2.14007e-10
4.78363e-09
3.15279e-10
4.68711e-09
4.01805e-10
4.61664e-09
4.11307e-10
4.61138e-09
4.72636e-10
4.51748e-09
5.00667e-10
4.4906e-09
5.71309e-10
4.50049e-09
6.18158e-10
4.50253e-09
6.52361e-10
4.45468e-09
6.90142e-10
4.4596e-09
8.28257e-10
4.46079e-09
8.56367e-10
4.35014e-09
8.27072e-10
4.3099e-09
1.13593e-09
4.28788e-09
1.27691e-09
4.03077e-09
1.3555e-09
4.03065e-09
1.77964e-09
4.00413e-09
1.91778e-09
3.9641e-09
2.34939e-09
3.90898e-09
2.86235e-09
3.81085e-09
3.30954e-09
3.6123e-09
3.69986e-09
3.47415e-09
3.69202e-09
3.12448e-09
3.62309e-09
2.49857e-09
2.89035e-09
1.68453e-09
2.3701e-09
1.31175e-09
1.20823e-09
1.16951e-09
7.42849e-10
8.30329e-10
7.86625e-10
4.80929e-10
7.77654e-10
2.33033e-10
8.23204e-10
2.29304e-10
4.37219e-10
9.22636e-11
5.13533e-10
7.09229e-11
2.20226e-10
-5.33799e-11
1.54223e-10
-2.38031e-10
1.91115e-10
-3.26303e-10
8.95053e-11
-3.8718e-10
-2.19944e-10
-3.91277e-10
-5.15973e-10
-3.31336e-10
-9.47246e-10
-1.89857e-10
-1.23562e-09
1.97206e-11
-1.40745e-09
1.37294e-16
1.99287e-11
4.27141e-18
-4.2737e-19
4.53426e-18
3.60787e-19
4.47471e-18
7.07981e-19
4.29917e-18
9.56634e-19
4.06095e-18
1.14183e-18
3.78938e-18
1.26003e-18
3.50798e-18
1.31066e-18
3.23554e-18
1.2999e-18
2.98587e-18
1.23889e-18
2.76774e-18
1.14141e-18
2.58525e-18
1.0218e-18
2.43847e-18
8.93539e-19
2.32438e-18
7.68224e-19
2.23786e-18
6.55036e-19
2.17259e-18
5.60529e-19
2.12186e-18
4.88756e-19
2.07909e-18
4.41496e-19
2.03848e-18
4.18534e-19
1.99522e-18
4.18056e-19
1.94544e-18
4.37168e-19
1.88603e-18
4.72397e-19
1.81451e-18
5.20078e-19
1.72909e-18
5.76588e-19
1.62887e-18
6.38482e-19
1.51377e-18
7.02611e-19
1.38438e-18
7.66238e-19
1.24173e-18
8.27102e-19
1.08719e-18
8.83393e-19
9.22273e-19
9.33683e-19
7.48552e-19
9.76869e-19
5.67664e-19
1.01215e-18
3.81336e-19
1.039e-18
1.91298e-19
1.05707e-18
1.0662e-18
2.38875e-10
-4.79295e-09
4.9899e-10
-4.42205e-09
9.29981e-10
-4.06418e-09
1.06148e-09
-3.66651e-09
8.16942e-10
-2.44869e-09
6.5961e-10
-2.58402e-09
1.17211e-09
-2.28749e-09
1.73263e-09
-2.07073e-09
1.87087e-09
-1.24038e-09
2.0055e-09
-1.05611e-09
2.09602e-09
-8.92449e-10
2.1371e-09
-8.71036e-10
2.23481e-09
-8.28078e-10
2.31688e-09
-7.87659e-10
2.38522e-09
-7.76949e-10
2.50188e-09
-8.26887e-10
2.63312e-09
-8.44071e-10
2.7503e-09
-8.3939e-10
2.84832e-09
-8.19158e-10
2.94906e-09
-8.19013e-10
3.05033e-09
-8.43869e-10
3.16558e-09
-8.50735e-10
3.28302e-09
-8.53103e-10
3.40394e-09
-8.41925e-10
3.52805e-09
-8.15083e-10
3.61908e-09
-7.23485e-10
3.73838e-09
-6.57342e-10
3.81475e-09
-6.34462e-10
3.89305e-09
-5.95095e-10
3.93585e-09
-5.26017e-10
3.97581e-09
-3.96252e-10
4.05191e-09
-3.69409e-10
4.08841e-09
-3.80548e-10
4.12985e-09
-2.86126e-10
4.15798e-09
-2.15349e-10
4.17302e-09
-1.53914e-10
4.22332e-09
-1.52078e-10
4.21085e-09
5.81841e-11
4.17829e-09
9.84252e-11
4.16602e-09
7.27731e-11
4.11931e-09
1.85294e-10
4.09964e-09
2.04508e-10
4.06554e-09
2.88159e-10
3.99529e-09
2.84256e-10
3.93648e-09
3.74089e-10
3.90438e-09
4.33906e-10
3.86552e-09
4.50163e-10
3.85957e-09
4.78592e-10
3.85031e-09
5.09927e-10
3.86484e-09
5.56779e-10
3.88763e-09
5.95369e-10
3.89678e-09
6.43212e-10
3.89072e-09
6.96199e-10
3.92115e-09
7.97831e-10
3.91903e-09
8.58492e-10
3.80987e-09
9.36224e-10
3.83579e-09
1.11001e-09
3.78959e-09
1.32311e-09
3.63961e-09
1.50548e-09
3.61784e-09
1.8014e-09
3.52753e-09
2.00809e-09
3.45476e-09
2.42216e-09
3.47724e-09
2.83988e-09
3.53074e-09
3.25603e-09
3.5217e-09
3.70891e-09
3.47035e-09
3.74336e-09
3.51231e-09
3.58113e-09
3.27843e-09
3.12422e-09
2.95106e-09
2.69748e-09
2.30182e-09
1.85747e-09
1.63372e-09
1.41095e-09
1.30912e-09
1.11122e-09
1.0073e-09
1.07947e-09
1.03188e-09
7.98627e-10
7.34215e-10
7.3488e-10
6.48825e-10
5.98922e-10
4.98151e-10
3.709e-10
2.71039e-10
3.81336e-10
5.06913e-12
4.57086e-10
-1.95287e-10
2.89862e-10
-2.84514e-10
-1.30715e-10
-2.8042e-10
-5.20066e-10
-2.80143e-10
-9.47523e-10
-1.86476e-10
-1.32928e-09
7.42407e-13
-1.59467e-09
6.71527e-16
2.06692e-11
5.05965e-18
5.7505e-19
4.88146e-18
5.40341e-19
4.72336e-18
8.66817e-19
4.48437e-18
1.19677e-18
4.17915e-18
1.44817e-18
3.84001e-18
1.60039e-18
3.49721e-18
1.65485e-18
3.17453e-18
1.62411e-18
2.88839e-18
1.52673e-18
2.64814e-18
1.38354e-18
2.45699e-18
1.21508e-18
2.31316e-18
1.03973e-18
2.21119e-18
8.72706e-19
2.14335e-18
7.25444e-19
2.10082e-18
6.05566e-19
2.0746e-18
5.17273e-19
2.05613e-18
4.61863e-19
2.03801e-18
4.38201e-19
2.01433e-18
4.43257e-19
1.98067e-18
4.72753e-19
1.93371e-18
5.21813e-19
1.87102e-18
5.8549e-19
1.79098e-18
6.59089e-19
1.693e-18
7.38316e-19
1.5774e-18
8.19364e-19
1.44524e-18
8.98985e-19
1.29802e-18
9.74527e-19
1.13748e-18
1.0439e-18
9.6546e-19
1.1055e-18
7.83833e-19
1.15816e-18
5.94512e-19
1.20104e-18
3.99411e-19
1.23363e-18
2.00427e-19
1.25559e-18
1.26676e-18
1.88989e-10
-4.98194e-09
2.92202e-10
-4.52526e-09
3.86436e-10
-4.15841e-09
2.7871e-10
-3.55879e-09
8.16787e-10
-2.98676e-09
9.93613e-10
-2.76085e-09
9.70816e-10
-2.2647e-09
9.52135e-10
-2.05205e-09
1.07829e-09
-1.36653e-09
1.21434e-09
-1.19215e-09
1.33021e-09
-1.00833e-09
1.36521e-09
-9.06033e-10
1.42387e-09
-8.8674e-10
1.55814e-09
-9.21923e-10
1.65951e-09
-8.78325e-10
1.72255e-09
-8.8992e-10
1.80937e-09
-9.30889e-10
1.93203e-09
-9.62057e-10
2.05453e-09
-9.41656e-10
2.16867e-09
-9.33155e-10
2.26942e-09
-9.44615e-10
2.38111e-09
-9.62425e-10
2.53238e-09
-1.00437e-09
2.6969e-09
-1.00645e-09
2.81501e-09
-9.33195e-10
2.90028e-09
-8.08755e-10
2.99075e-09
-7.47815e-10
3.07131e-09
-7.15018e-10
3.14054e-09
-6.64326e-10
3.18455e-09
-5.70025e-10
3.24639e-09
-4.58092e-10
3.33158e-09
-4.54598e-10
3.34589e-09
-3.94849e-10
3.36188e-09
-3.02115e-10
3.39607e-09
-2.49547e-10
3.43653e-09
-1.94369e-10
3.40717e-09
-1.22714e-10
3.42592e-09
3.94272e-11
3.42614e-09
9.82119e-11
3.4123e-09
8.66147e-11
3.38317e-09
2.1442e-10
3.35618e-09
2.31501e-10
3.32777e-09
3.16574e-10
3.27452e-09
3.37503e-10
3.26274e-09
3.85874e-10
3.25983e-09
4.36813e-10
3.24875e-09
4.61246e-10
3.26364e-09
4.63701e-10
3.27974e-09
4.93824e-10
3.29961e-09
5.36915e-10
3.31651e-09
5.78465e-10
3.34526e-09
6.14463e-10
3.40617e-09
6.35295e-10
3.41648e-09
7.87516e-10
3.39154e-09
8.83439e-10
3.40654e-09
9.21229e-10
3.39636e-09
1.12018e-09
3.39338e-09
1.32609e-09
3.35065e-09
1.54821e-09
3.35441e-09
1.79764e-09
3.314e-09
2.0485e-09
3.17617e-09
2.55999e-09
3.0879e-09
2.92815e-09
2.99684e-09
3.34709e-09
3.0221e-09
3.68364e-09
3.08136e-09
3.6841e-09
3.11638e-09
3.54612e-09
2.85234e-09
3.38826e-09
3.07153e-09
2.4783e-09
2.45085e-09
2.47815e-09
2.02239e-09
1.83941e-09
1.79703e-09
1.33659e-09
1.6941e-09
1.1824e-09
1.49174e-09
1.00098e-09
1.2677e-09
9.58924e-10
1.06024e-09
8.06383e-10
6.54065e-10
7.77072e-10
3.80576e-10
6.54825e-10
1.14707e-10
7.22955e-10
1.62604e-11
3.8831e-10
-7.78467e-11
-3.66069e-11
-1.45408e-10
-4.52504e-10
-1.80856e-10
-9.12074e-10
-1.2051e-10
-1.38963e-09
-6.86837e-12
-1.70831e-09
3.7197e-18
1.37992e-11
5.02497e-18
-7.39053e-19
5.20793e-18
3.57287e-19
5.05332e-18
1.02124e-18
4.73577e-18
1.5145e-18
4.33137e-18
1.85262e-18
3.89447e-18
2.03729e-18
3.46647e-18
2.08284e-18
3.07715e-18
2.01356e-18
2.7452e-18
1.85895e-18
2.47967e-18
1.64953e-18
2.28164e-18
1.41382e-18
2.14614e-18
1.17631e-18
2.06393e-18
9.56385e-19
2.02347e-18
7.67804e-19
2.01252e-18
6.18913e-19
2.01919e-18
5.13435e-19
2.03247e-18
4.51449e-19
2.04306e-18
4.30199e-19
2.04383e-18
4.44857e-19
2.02973e-18
4.893e-19
1.99739e-18
5.56886e-19
1.94461e-18
6.41099e-19
1.87021e-18
7.35957e-19
1.77405e-18
8.36185e-19
1.65702e-18
9.37265e-19
1.52078e-18
1.03545e-18
1.3674e-18
1.12775e-18
1.19908e-18
1.21186e-18
1.01811e-18
1.28608e-18
8.26718e-19
1.34923e-18
6.27102e-19
1.40051e-18
4.21368e-19
1.43941e-18
2.11597e-19
1.46563e-18
1.479e-18
1.07172e-10
-5.08911e-09
1.81212e-10
-4.5993e-09
1.23117e-10
-4.10032e-09
6.17533e-11
-3.49743e-09
9.43226e-11
-3.01933e-09
5.23986e-11
-2.71893e-09
3.4405e-10
-2.55635e-09
4.87471e-10
-2.19547e-09
8.21483e-10
-1.70055e-09
7.80424e-10
-1.1511e-09
7.03845e-10
-9.31746e-10
7.41029e-10
-9.43217e-10
7.71451e-10
-9.17163e-10
8.33508e-10
-9.8398e-10
9.04638e-10
-9.49456e-10
9.88611e-10
-9.73893e-10
1.11872e-09
-1.061e-09
1.27527e-09
-1.11861e-09
1.40583e-09
-1.07221e-09
1.52042e-09
-1.04774e-09
1.62158e-09
-1.04577e-09
1.7449e-09
-1.08575e-09
1.89919e-09
-1.15865e-09
2.06411e-09
-1.17137e-09
2.16301e-09
-1.0321e-09
2.23913e-09
-8.8487e-10
2.33644e-09
-8.45129e-10
2.44566e-09
-8.24241e-10
2.54197e-09
-7.60628e-10
2.56766e-09
-5.95719e-10
2.63189e-09
-5.22313e-10
2.64223e-09
-4.64945e-10
2.67809e-09
-4.30706e-10
2.72897e-09
-3.52993e-10
2.7522e-09
-2.72776e-10
2.76224e-09
-2.04408e-10
2.7402e-09
-1.00674e-10
2.7544e-09
2.52248e-11
2.74554e-09
1.07081e-10
2.72651e-09
1.05644e-10
2.72681e-09
2.14118e-10
2.68015e-09
2.78163e-10
2.67569e-09
3.21033e-10
2.65956e-09
3.53633e-10
2.66893e-09
3.76514e-10
2.68792e-09
4.17821e-10
2.71195e-09
4.37212e-10
2.72671e-09
4.48951e-10
2.7398e-09
4.80732e-10
2.75585e-09
5.20861e-10
2.78452e-09
5.49799e-10
2.83862e-09
5.60368e-10
2.84878e-09
6.25132e-10
2.89519e-09
7.41107e-10
2.95887e-09
8.19756e-10
2.97321e-09
9.06892e-10
2.89057e-09
1.20283e-09
2.7862e-09
1.43046e-09
2.63054e-09
1.70387e-09
2.62888e-09
1.7993e-09
2.62193e-09
2.05545e-09
2.94481e-09
2.23711e-09
3.12108e-09
2.75188e-09
3.2278e-09
3.24037e-09
3.23009e-09
3.68135e-09
3.16201e-09
3.75218e-09
3.04111e-09
3.66702e-09
2.8348e-09
3.59457e-09
2.34455e-09
2.96855e-09
2.26716e-09
2.55554e-09
2.09943e-09
2.00713e-09
1.66766e-09
1.76836e-09
1.5275e-09
1.32256e-09
1.26262e-09
1.26586e-09
1.05639e-09
1.16515e-09
7.29649e-10
1.13313e-09
4.97755e-10
1.00897e-09
3.4629e-10
8.06289e-10
3.43919e-10
7.25326e-10
4.82107e-10
2.50122e-10
3.07228e-10
1.38273e-10
1.10233e-10
-2.55509e-10
-5.18242e-11
-7.50016e-10
-6.81391e-11
-1.37331e-09
-3.10178e-13
-1.77614e-09
7.0756e-16
1.3488e-11
6.12141e-18
3.68107e-19
5.87188e-18
6.05809e-19
5.54658e-18
1.34692e-18
5.07389e-18
1.98763e-18
4.51604e-18
2.41052e-18
3.94002e-18
2.61329e-18
3.39719e-18
2.62556e-18
2.92254e-18
2.48827e-18
2.53578e-18
2.24588e-18
2.24396e-18
1.94161e-18
2.04413e-18
1.61408e-18
1.92621e-18
1.29502e-18
1.87535e-18
1.00837e-18
1.87458e-18
7.70073e-19
1.90705e-18
5.88569e-19
1.9572e-18
4.66185e-19
2.01122e-18
4.00738e-19
2.05772e-18
3.86864e-19
2.08827e-18
4.17097e-19
2.09732e-18
4.82832e-19
2.0816e-18
5.75199e-19
2.03947e-18
6.85794e-19
1.97044e-18
8.07138e-19
1.87513e-18
9.32862e-19
1.75521e-18
1.05771e-18
1.61308e-18
1.17748e-18
1.45151e-18
1.28892e-18
1.27331e-18
1.38962e-18
1.08126e-18
1.47789e-18
8.77994e-19
1.55258e-18
6.66005e-19
1.613e-18
4.47585e-19
1.65871e-18
2.24971e-19
1.68946e-18
1.70512e-18
-2.23868e-10
-4.86524e-09
-4.19527e-10
-4.40365e-09
-5.1227e-10
-4.00758e-09
-5.34234e-10
-3.47546e-09
-5.79799e-10
-2.97377e-09
-6.23433e-10
-2.67529e-09
-7.5185e-10
-2.42793e-09
-8.83356e-10
-2.06396e-09
-5.54148e-10
-2.02975e-09
-1.13251e-10
-1.59199e-09
1.18357e-10
-1.16336e-09
2.57571e-10
-1.08243e-09
3.38528e-10
-9.9812e-10
4.1986e-10
-1.06531e-09
5.36399e-10
-1.06599e-09
5.96379e-10
-1.03387e-09
6.46459e-10
-1.11108e-09
7.17342e-10
-1.1895e-09
8.55468e-10
-1.21034e-09
1.02007e-09
-1.21235e-09
1.10697e-09
-1.13267e-09
1.21139e-09
-1.19018e-09
1.34983e-09
-1.29709e-09
1.5024e-09
-1.32394e-09
1.62404e-09
-1.15373e-09
1.72653e-09
-9.87367e-10
1.83433e-09
-9.52923e-10
1.93072e-09
-9.20627e-10
2.06352e-09
-8.93431e-10
2.08314e-09
-6.15334e-10
2.1135e-09
-5.52672e-10
2.13903e-09
-4.90478e-10
2.16009e-09
-4.51763e-10
2.19933e-09
-3.92233e-10
2.22794e-09
-3.01391e-10
2.22423e-09
-2.00696e-10
2.19989e-09
-7.63315e-11
2.22669e-09
-1.57009e-12
2.21075e-09
1.23023e-10
2.16381e-09
1.5258e-10
2.15e-09
2.27931e-10
2.13557e-09
2.92593e-10
2.1338e-09
3.22807e-10
2.13661e-09
3.50818e-10
2.1343e-09
3.78827e-10
2.15758e-09
3.94542e-10
2.17653e-09
4.18259e-10
2.18245e-09
4.43037e-10
2.18669e-09
4.76491e-10
2.21987e-09
4.87678e-10
2.26577e-09
5.03906e-10
2.27866e-09
5.47471e-10
2.27164e-09
6.32151e-10
2.34487e-09
6.67879e-10
2.44543e-09
7.19196e-10
2.43002e-09
9.223e-10
2.60063e-09
1.03223e-09
2.64353e-09
1.38756e-09
2.69457e-09
1.65282e-09
2.58441e-09
1.90947e-09
2.32018e-09
2.31967e-09
1.80184e-09
2.75545e-09
1.70199e-09
2.85174e-09
1.88397e-09
3.05838e-09
2.09449e-09
3.47084e-09
2.24454e-09
3.60212e-09
2.34592e-09
3.56565e-09
2.45135e-09
3.48913e-09
2.2912e-09
3.1287e-09
2.11219e-09
2.73455e-09
1.89826e-09
2.22106e-09
1.56921e-09
2.0974e-09
1.39013e-09
1.50165e-09
1.02852e-09
1.62748e-09
8.45362e-10
1.3483e-09
6.15724e-10
1.36276e-09
6.25809e-10
9.98881e-10
7.14408e-10
7.17688e-10
7.2967e-10
7.10062e-10
5.69834e-10
4.09955e-10
4.14343e-10
2.93763e-10
2.56978e-10
-9.81451e-11
1.10338e-10
-6.03376e-10
9.53187e-12
-1.27251e-09
-1.34884e-11
-1.75312e-09
4.13186e-18
-3.13672e-17
6.35923e-18
-1.85926e-18
6.613e-18
3.52814e-19
6.18728e-18
1.77417e-18
5.49679e-18
2.67902e-18
4.71881e-18
3.18943e-18
3.95229e-18
3.3809e-18
3.25991e-18
3.31902e-18
2.68015e-18
3.0692e-18
2.23152e-18
2.69571e-18
1.91643e-18
2.25788e-18
1.72507e-18
1.80662e-18
1.63956e-18
1.38198e-18
1.63705e-18
1.01251e-18
1.69308e-18
7.15651e-19
1.78466e-18
4.9886e-19
1.89175e-18
3.6172e-19
1.99735e-18
2.98356e-19
2.08795e-18
2.99455e-19
2.154e-18
3.53807e-19
2.18968e-18
4.49491e-19
2.1922e-18
5.74839e-19
2.16082e-18
7.19211e-19
2.09616e-18
8.73451e-19
1.99998e-18
1.03003e-18
1.87497e-18
1.18298e-18
1.72452e-18
1.32772e-18
1.55221e-18
1.46087e-18
1.36158e-18
1.58007e-18
1.15596e-18
1.68373e-18
9.38411e-19
1.7709e-18
7.11714e-19
1.84105e-18
4.78338e-19
1.8939e-18
2.40626e-19
1.92933e-18
1.94726e-18
-1.17605e-10
-4.74764e-09
-3.72892e-10
-4.14836e-09
-5.7148e-10
-3.80899e-09
-7.40961e-10
-3.30598e-09
-9.26187e-10
-2.78854e-09
-1.11822e-09
-2.48326e-09
-1.41602e-09
-2.13013e-09
-1.53351e-09
-1.94647e-09
-1.74519e-09
-1.81808e-09
-1.69915e-09
-1.63803e-09
-1.5898e-09
-1.27271e-09
-1.34342e-09
-1.32881e-09
-1.0564e-09
-1.28514e-09