/*--------------------------------*- C++ -*----------------------------------*\
  =========                 |
  \\      /  F ield         | OpenFOAM: The Open Source CFD Toolbox
   \\    /   O peration     | Website:  https://openfoam.org
    \\  /    A nd           | Version:  6
     \\/     M anipulation  |
\*---------------------------------------------------------------------------*/
FoamFile
{
    version     2.0;
    format      ascii;
    class       volScalarField;
    location    "4300";
    object      Su;
}
// * * * * * * * * * * * * * * * * * * * * * * * * * * * * * * * * * * * * * //

dimensions      [0 0 -1 0 0 0 0];

internalField   nonuniform List<scalar> 
4800
(
0.21964
0.217763
0.215927
0.214112
0.21231
0.210522
0.208749
0.206993
0.20525
0.20353
0.201834
0.200164
0.198528
0.196935
0.195382
0.193871
0.192407
0.190986
0.189608
0.188275
0.186992
0.185758
0.184573
0.183435
0.182345
0.181299
0.180295
0.17933
0.178402
0.177505
0.176638
0.175797
0.174981
0.174187
0.173411
0.17265
0.1719
0.171157
0.170418
0.16968
0.168941
0.1682
0.167455
0.166704
0.165946
0.165179
0.1644
0.163607
0.162797
0.161967
0.161114
0.160235
0.159327
0.158383
0.157392
0.15634
0.155199
0.153929
0.152476
0.150772
0.148725
0.146251
0.143274
0.13974
0.135672
0.131133
0.126182
0.120887
0.115304
0.109485
0.103463
0.0972561
0.0908766
0.0843375
0.0776629
0.0708813
0.0640283
0.0571456
0.050272
0.0434417
0.0366721
0.0299595
0.0232836
0.0166068
0.0098402
0.0022145
-6.72643e-07
-0.00305859
-0.00624096
-0.00948803
-0.0127669
-0.0160616
-0.0193645
-0.0226718
-0.0259814
-0.0292923
-0.0326035
-0.0359145
-0.039225
-0.0425346
-0.0458433
-0.049151
-0.0524578
-0.0557637
-0.059069
-0.0623736
-0.0656779
-0.0689819
-0.0722858
-0.0755897
-0.0788938
-0.082198
-0.0855026
-0.0888074
-0.0921126
-0.095418
-0.0987238
-0.10203
-0.105336
-0.108642
0.219593
0.217613
0.215667
0.213747
0.211855
0.209997
0.208172
0.206385
0.204619
0.20288
0.201172
0.19949
0.197844
0.196245
0.194696
0.193187
0.191728
0.190314
0.188941
0.187611
0.186334
0.185109
0.183937
0.182814
0.181736
0.180704
0.179715
0.178766
0.177854
0.176976
0.176125
0.1753
0.1745
0.173722
0.172959
0.172211
0.171474
0.170743
0.170015
0.169289
0.16856
0.167828
0.16709
0.166345
0.165592
0.16483
0.164057
0.163271
0.162468
0.161646
0.160803
0.159933
0.159034
0.158102
0.157121
0.15608
0.154955
0.153704
0.152279
0.150617
0.148634
0.146244
0.143361
0.139933
0.135961
0.131491
0.126615
0.121395
0.115872
0.110091
0.104085
0.0978759
0.0914748
0.0848972
0.0781749
0.0713497
0.0644626
0.0575481
0.0506391
0.0437653
0.0369471
0.030194
0.023503
0.0168392
0.0100774
0.00237858
0.000176675
-0.00293784
-0.0061776
-0.0094561
-0.0127504
-0.0160528
-0.0193601
-0.0226703
-0.0259822
-0.0292948
-0.0326075
-0.0359198
-0.0392312
-0.0425415
-0.0458506
-0.0491586
-0.0524654
-0.0557713
-0.0590764
-0.0623808
-0.0656847
-0.0689883
-0.0722918
-0.0755952
-0.0788987
-0.0822025
-0.0855065
-0.0888108
-0.0921155
-0.0954204
-0.0987256
-0.102031
-0.105337
-0.108643
0.2195
0.217298
0.215114
0.213001
0.210953
0.208967
0.207039
0.205182
0.20337
0.201597
0.199869
0.198168
0.196505
0.194898
0.193348
0.191842
0.190389
0.188987
0.18763
0.186314
0.185057
0.183855
0.182705
0.181609
0.18056
0.179558
0.178599
0.177678
0.176799
0.175954
0.175137
0.174342
0.17357
0.172819
0.172084
0.171361
0.170649
0.169942
0.169237
0.168531
0.167822
0.167106
0.166383
0.165651
0.164908
0.164155
0.163391
0.162614
0.161823
0.161013
0.160185
0.15933
0.158446
0.157533
0.156571
0.155548
0.154452
0.153236
0.151854
0.150259
0.148365
0.146097
0.143368
0.140115
0.13631
0.131988
0.127228
0.122105
0.116687
0.110996
0.105043
0.0988463
0.0924336
0.0858317
0.0790792
0.0722128
0.0652745
0.0583022
0.0513278
0.0443767
0.0374784
0.0306546
0.0239217
0.017289
0.0108339
0.00490059
0.000842627
-0.00269529
-0.00607588
-0.00940699
-0.0127235
-0.0160371
-0.0193513
-0.0226667
-0.0259829
-0.0292993
-0.0326151
-0.0359299
-0.0392433
-0.042555
-0.0458652
-0.0491737
-0.0524807
-0.0557865
-0.0590912
-0.0623951
-0.0656983
-0.0690011
-0.0723037
-0.0756062
-0.0789087
-0.0822115
-0.0855144
-0.0888177
-0.0921213
-0.0954252
-0.0987293
-0.102034
-0.105338
-0.108643
0.219336
0.216834
0.214361
0.211963
0.209678
0.207497
0.205425
0.203461
0.201576
0.199749
0.197984
0.196257
0.194576
0.192955
0.191398
0.189897
0.188456
0.187073
0.185737
0.184445
0.183217
0.182049
0.180936
0.179881
0.178873
0.177917
0.177006
0.176127
0.175295
0.174497
0.173727
0.172978
0.172248
0.171539
0.170843
0.170158
0.16948
0.168804
0.168128
0.16745
0.166765
0.166071
0.165367
0.164651
0.163924
0.163184
0.162432
0.161666
0.160885
0.160089
0.159276
0.158439
0.157573
0.156682
0.155745
0.154748
0.153688
0.152515
0.151188
0.149672
0.147882
0.145749
0.143199
0.14016
0.136595
0.132498
0.127917
0.122933
0.117615
0.112007
0.106135
0.100006
0.0936247
0.0870172
0.0802385
0.0733317
0.0663438
0.0593122
0.0522604
0.0452113
0.0381995
0.0312523
0.0243932
0.0176402
0.0110899
0.00512471
0.00097897
-0.00261291
-0.00602203
-0.00936848
-0.0126946
-0.0160159
-0.0193371
-0.0226594
-0.0259821
-0.0293043
-0.0326252
-0.0359442
-0.0392609
-0.042575
-0.0458868
-0.0491963
-0.0525037
-0.0558093
-0.0591135
-0.0624166
-0.0657188
-0.0690204
-0.0723216
-0.0756227
-0.0789237
-0.0822249
-0.0855263
-0.088828
-0.09213
-0.0954323
-0.0987349
-0.102038
-0.105341
-0.108644
0.219122
0.216196
0.21334
0.210606
0.208046
0.20563
0.203371
0.201269
0.199284
0.197387
0.195569
0.193807
0.192104
0.190473
0.188913
0.187419
0.185995
0.184636
0.183331
0.182076
0.180886
0.179765
0.178703
0.177702
0.176754
0.17586
0.175011
0.174192
0.173417
0.172678
0.171967
0.171275
0.170598
0.16994
0.169293
0.168652
0.168017
0.167381
0.166738
0.166091
0.165434
0.164765
0.164082
0.163385
0.162675
0.161949
0.16121
0.160456
0.159686
0.158903
0.158103
0.157282
0.156436
0.155568
0.154658
0.153693
0.152673
0.151551
0.150285
0.148851
0.147169
0.145179
0.142813
0.140003
0.136696
0.132866
0.128518
0.123719
0.118546
0.113061
0.10728
0.101203
0.0948495
0.0882587
0.0814875
0.0745788
0.0675744
0.0604987
0.0533681
0.0462117
0.0390706
0.031971
0.0249213
0.0179005
0.0108543
0.00313908
0.000552904
-0.00271418
-0.00602597
-0.00934235
-0.0126615
-0.0159853
-0.0193137
-0.0226449
-0.025977
-0.0293079
-0.0326364
-0.0359617
-0.0392833
-0.0426011
-0.0459153
-0.0492262
-0.0525342
-0.0558398
-0.0591434
-0.0624454
-0.0657462
-0.0690461
-0.0723456
-0.0756447
-0.0789437
-0.0822429
-0.0855422
-0.0888417
-0.0921416
-0.0954418
-0.0987422
-0.102043
-0.105344
-0.108645
0.218865
0.215452
0.212152
0.209014
0.206106
0.203403
0.20093
0.198657
0.196555
0.194574
0.192693
0.190894
0.189175
0.187536
0.185977
0.184495
0.183092
0.181761
0.180497
0.179295
0.178158
0.177093
0.176094
0.175159
0.174283
0.173463
0.172688
0.171946
0.171242
0.170572
0.169929
0.169301
0.168685
0.168084
0.167491
0.166901
0.166312
0.16572
0.165116
0.164501
0.163873
0.163229
0.162569
0.161889
0.161196
0.160484
0.159756
0.159012
0.158252
0.157479
0.156691
0.155885
0.155059
0.154214
0.153332
0.152403
0.151424
0.150354
0.149155
0.147801
0.146225
0.144375
0.142184
0.139586
0.136524
0.132966
0.128914
0.124373
0.119386
0.114025
0.108333
0.102323
0.0960239
0.0894898
0.0827796
0.075909
0.0689104
0.0617991
0.0545941
0.0473437
0.0400857
0.0328271
0.0255674
0.0182855
0.0109304
0.00275053
0.000395664
-0.00276842
-0.0060154
-0.00929978
-0.0126086
-0.0159352
-0.0192735
-0.0226178
-0.0259635
-0.0293072
-0.0326469
-0.0359812
-0.0393098
-0.0426327
-0.0459504
-0.0492634
-0.0525723
-0.0558779
-0.0591807
-0.0624814
-0.0657805
-0.0690784
-0.0723756
-0.0756723
-0.0789688
-0.0822653
-0.0855619
-0.0888589
-0.0921561
-0.0954536
-0.0987514
-0.10205
-0.105348
-0.108646
0.218578
0.21461
0.210804
0.20722
0.203918
0.200865
0.198136
0.195679
0.193462
0.191392
0.189448
0.187606
0.185869
0.184228
0.182678
0.181214
0.179838
0.178546
0.177333
0.176193
0.175123
0.174126
0.1732
0.172342
0.171549
0.170813
0.170122
0.169465
0.168842
0.16825
0.167681
0.167122
0.166571
0.166031
0.165495
0.164957
0.164416
0.16387
0.163305
0.162721
0.162122
0.161502
0.160862
0.160198
0.159517
0.158816
0.158095
0.157357
0.156604
0.155838
0.155059
0.154265
0.153457
0.152633
0.151779
0.150888
0.149951
0.148935
0.147804
0.146528
0.14505
0.143325
0.141289
0.138883
0.136049
0.132744
0.128959
0.124703
0.119976
0.11481
0.109242
0.103342
0.0971658
0.090758
0.0841371
0.0773174
0.0703398
0.0632104
0.0559615
0.0486418
0.0412776
0.0338625
0.0263841
0.0188396
0.0113026
0.00425934
0.000509567
-0.00273313
-0.00595029
-0.00921108
-0.0125151
-0.0158509
-0.0192064
-0.022571
-0.025937
-0.0292991
-0.0326543
-0.0360012
-0.0393395
-0.0426695
-0.0459919
-0.0493078
-0.052618
-0.0559237
-0.0592257
-0.0625248
-0.0658218
-0.0691172
-0.0724116
-0.0757054
-0.0789988
-0.0822922
-0.0855857
-0.0888794
-0.0921734
-0.0954677
-0.0987624
-0.102057
-0.105353
-0.108648
0.218274
0.213711
0.209342
0.205264
0.201553
0.198173
0.19515
0.192459
0.190086
0.187915
0.185909
0.184033
0.182278
0.180636
0.179104
0.177669
0.176329
0.175086
0.173936
0.172867
0.171874
0.170955
0.170109
0.169338
0.168636
0.167993
0.167392
0.166824
0.166288
0.165778
0.165286
0.164798
0.164314
0.163835
0.163354
0.162868
0.162373
0.161869
0.16134
0.160786
0.160212
0.159612
0.158986
0.158333
0.157659
0.156962
0.156243
0.155506
0.154755
0.153991
0.153215
0.15243
0.151635
0.15083
0.150004
0.149149
0.148255
0.147293
0.14623
0.145031
0.143649
0.14204
0.140143
0.137901
0.135259
0.132175
0.128628
0.124599
0.120116
0.11519
0.109838
0.104142
0.0981562
0.0919068
0.0854061
0.0786831
0.0717605
0.0646686
0.0574449
0.050124
0.042696
0.0351308
0.0274086
0.0194907
0.0112331
0.00131223
0.000107342
-0.00271138
-0.00581474
-0.00904684
-0.0123566
-0.015715
-0.0191004
-0.0224965
-0.0258921
-0.02928
-0.0326567
-0.0360206
-0.0393717
-0.042711
-0.0460397
-0.0493593
-0.0526714
-0.0559773
-0.0592783
-0.0625756
-0.0658701
-0.0691626
-0.0724537
-0.075744
-0.0790338
-0.0823235
-0.0856132
-0.0889032
-0.0921935
-0.0954842
-0.0987751
-0.102066
-0.105358
-0.10865
0.217952
0.212763
0.20781
0.203213
0.199036
0.195278
0.191952
0.189036
0.186495
0.184226
0.182156
0.180245
0.178479
0.176843
0.175336
0.17394
0.172649
0.171465
0.170387
0.169399
0.168492
0.16766
0.166902
0.166222
0.165618
0.165072
0.164564
0.164086
0.163637
0.163213
0.162797
0.16238
0.16196
0.161538
0.161109
0.16067
0.160219
0.159749
0.159251
0.158721
0.158165
0.157577
0.156959
0.156309
0.155633
0.154932
0.154208
0.153465
0.152708
0.151939
0.151161
0.150378
0.149591
0.148801
0.148
0.14718
0.146331
0.145423
0.144424
0.143297
0.142007
0.140508
0.138746
0.136662
0.134199
0.13131
0.127971
0.124169
0.119898
0.1152
0.110115
0.104661
0.0988892
0.0928317
0.086506
0.0799395
0.0731644
0.0662161
0.0591086
0.0518533
0.044392
0.0366925
0.0287458
0.0205506
0.0121968
0.00436492
0.000695374
-0.00238383
-0.00551104
-0.00875953
-0.012104
-0.0155087
-0.0189436
-0.0223869
-0.0258242
-0.0292474
-0.0326524
-0.0360384
-0.0394061
-0.0427572
-0.0460937
-0.0494181
-0.0527325
-0.0560387
-0.0593387
-0.0626339
-0.0659255
-0.0692146
-0.0725019
-0.0757881
-0.0790738
-0.0823592
-0.0856446
-0.0889303
-0.0922164
-0.0955028
-0.0987896
-0.102077
-0.105364
-0.108652
0.217614
0.211766
0.206209
0.201079
0.196438
0.192291
0.188638
0.185462
0.182718
0.180344
0.178228
0.176296
0.174533
0.172918
0.171448
0.170103
0.16887
0.167757
0.166758
0.165859
0.165048
0.16431
0.163645
0.163059
0.162555
0.162106
0.161689
0.1613
0.160938
0.160598
0.160255
0.159904
0.159542
0.159171
0.158788
0.158389
0.157972
0.157529
0.157053
0.156539
0.155992
0.155407
0.154785
0.154128
0.15344
0.152725
0.151987
0.15123
0.150459
0.149678
0.148891
0.148104
0.14732
0.14654
0.145759
0.144973
0.144169
0.143322
0.142393
0.141346
0.140147
0.138742
0.137082
0.135125
0.132816
0.130111
0.126987
0.123429
0.119426
0.115003
0.110191
0.105019
0.0995214
0.0937156
0.0876333
0.0813014
0.0747563
0.0680116
0.0610451
0.0538402
0.0463453
0.0385456
0.0303941
0.0218104
0.012645
0.00181135
0.00069158
-0.00197456
-0.00503174
-0.00831626
-0.0117319
-0.0152159
-0.0187265
-0.0222367
-0.0257305
-0.0291996
-0.0326409
-0.0360545
-0.0394427
-0.0428082
-0.0461543
-0.0494845
-0.0528016
-0.0561083
-0.0594071
-0.0626998
-0.0659881
-0.0692732
-0.0725561
-0.0758377
-0.0791186
-0.0823992
-0.0856798
-0.0889607
-0.0922419
-0.0955236
-0.0988057
-0.102088
-0.105371
-0.108654
0.217291
0.210805
0.20464
0.19896
0.193845
0.189307
0.185337
0.181899
0.178939
0.176406
0.174208
0.172243
0.170486
0.168907
0.167488
0.166204
0.165044
0.164021
0.163113
0.162304
0.161594
0.160959
0.160394
0.159902
0.159491
0.159135
0.158807
0.158502
0.158222
0.157957
0.157683
0.15739
0.157077
0.156747
0.1564
0.156032
0.155638
0.155211
0.154747
0.154239
0.153689
0.153095
0.152458
0.151782
0.15107
0.15033
0.149567
0.148786
0.147995
0.147194
0.146391
0.145595
0.144809
0.144036
0.143276
0.142521
0.141761
0.140971
0.14011
0.139148
0.13806
0.136784
0.135257
0.13344
0.131267
0.128735
0.125824
0.122514
0.118796
0.114683
0.1102
0.105373
0.100223
0.0947524
0.0889947
0.0829583
0.0766666
0.0701098
0.0632704
0.0561357
0.048653
0.0407939
0.0324975
0.0236338
0.0139214
0.00189561
0.0014235
-0.00112762
-0.00425634
-0.00766734
-0.0112176
-0.0148262
-0.0184445
-0.0220443
-0.0256107
-0.0291371
-0.0326227
-0.0360698
-0.0394822
-0.0428647
-0.046222
-0.0495588
-0.052879
-0.0561863
-0.0594836
-0.0627734
-0.0660578
-0.0693383
-0.0726163
-0.0758927
-0.0791682
-0.0824434
-0.0857186
-0.0889941
-0.0922701
-0.0955465
-0.0988235
-0.102101
-0.105379
-0.108656
0.216958
0.209832
0.203067
0.196841
0.191263
0.186354
0.182092
0.178414
0.17527
0.172587
0.170292
0.168274
0.166499
0.16495
0.163582
0.162355
0.161263
0.160335
0.159517
0.158796
0.15818
0.157643
0.157184
0.156786
0.15646
0.156187
0.155943
0.155714
0.155508
0.155306
0.155089
0.154841
0.154566
0.154265
0.15394
0.153588
0.153203
0.15278
0.152315
0.151802
0.151237
0.150621
0.149955
0.149246
0.148498
0.147721
0.146923
0.14611
0.14529
0.144466
0.143641
0.142831
0.14204
0.141274
0.140539
0.13982
0.13912
0.138402
0.137623
0.136754
0.135768
0.134604
0.133212
0.131575
0.129607
0.127287
0.124606
0.121563
0.118156
0.11439
0.110283
0.105843
0.101077
0.0959892
0.0906035
0.0849088
0.0789117
0.0725935
0.0659229
0.0588779
0.0514206
0.0435422
0.0351895
0.0262529
0.0166606
0.00691772
0.0035538
0.000361773
-0.00311379
-0.00678949
-0.0105564
-0.0143415
-0.0181017
-0.0218142
-0.0254688
-0.0290633
-0.0326007
-0.0360861
-0.0395262
-0.0429279
-0.0462977
-0.0496417
-0.0529653
-0.0562729
-0.0595684
-0.0628548
-0.0661347
-0.0694101
-0.0726824
-0.0759529
-0.0792224
-0.0824916
-0.0857609
-0.0890305
-0.0923006
-0.0955714
-0.0988427
-0.102115
-0.105387
-0.108659
0.216607
0.208831
0.201516
0.194803
0.188778
0.183489
0.178939
0.175042
0.171735
0.168924
0.166539
0.164473
0.162676
0.161143
0.15982
0.158648
0.157628
0.15679
0.156056
0.155413
0.15488
0.154427
0.154058
0.153742
0.153485
0.153275
0.1531
0.152936
0.152791
0.152642
0.152465
0.152248
0.151993
0.151706
0.151386
0.151032
0.150639
0.150205
0.149723
0.149188
0.148596
0.147946
0.147238
0.146483
0.145685
0.144858
0.144015
0.143163
0.142309
0.141459
0.140613
0.13979
0.138995
0.138239
0.137528
0.13685
0.136216
0.135589
0.134922
0.134187
0.13334
0.132326
0.131091
0.129619
0.127858
0.125788
0.123402
0.120696
0.117667
0.114322
0.110651
0.106664
0.102353
0.0977121
0.0927436
0.0874311
0.0817599
0.0757088
0.0692108
0.0622577
0.0548281
0.0469194
0.0384933
0.0294417
0.0194145
0.00468309
0.00559544
0.00223042
-0.00166867
-0.00571546
-0.00977299
-0.0137815
-0.0177135
-0.0215578
-0.0253133
-0.0289846
-0.0325794
-0.0361071
-0.0395774
-0.0429997
-0.0463827
-0.0497342
-0.0530609
-0.0563685
-0.0596616
-0.062944
-0.0662188
-0.0694883
-0.0727543
-0.0760183
-0.0792812
-0.0825437
-0.0858065
-0.0890697
-0.0923335
-0.0955981
-0.0988634
-0.102129
-0.105396
-0.108662
0.21633
0.20797
0.200058
0.192816
0.18637
0.180746
0.175939
0.171844
0.168386
0.16547
0.163003
0.160894
0.159079
0.157548
0.156259
0.155131
0.154177
0.153411
0.152748
0.152176
0.15172
0.151342
0.15104
0.150784
0.150583
0.15042
0.150286
0.15016
0.150052
0.149936
0.149782
0.149581
0.149329
0.149033
0.148698
0.148322
0.147901
0.147435
0.146917
0.146343
0.145708
0.145011
0.14425
0.143435
0.142575
0.141688
0.14079
0.139891
0.139002
0.138128
0.137267
0.136439
0.135654
0.134926
0.134259
0.133648
0.133099
0.132588
0.132067
0.131494
0.130815
0.130002
0.12899
0.127757
0.12627
0.124512
0.12248
0.120177
0.117604
0.114734
0.111577
0.108113
0.104327
0.10019
0.0956875
0.0907883
0.0854528
0.0796508
0.0732877
0.0663669
0.0588664
0.0508359
0.042325
0.0334026
0.0241973
0.0152022
0.00964079
0.00473681
3.97677e-05
-0.00451202
-0.00892072
-0.0131847
-0.0173067
-0.0212942
-0.0251578
-0.0289104
-0.0325657
-0.0361375
-0.0396389
-0.0430823
-0.0464786
-0.0498373
-0.0531667
-0.0564736
-0.0597635
-0.0630411
-0.0663099
-0.0695727
-0.0728317
-0.0760885
-0.0793441
-0.0825995
-0.0858551
-0.0891114
-0.0923685
-0.0956265
-0.0988853
-0.102145
-0.105405
-0.108665
0.216028
0.207085
0.198646
0.190942
0.184127
0.178212
0.173178
0.168919
0.165334
0.162323
0.159786
0.157634
0.1558
0.154256
0.152977
0.151877
0.150968
0.150241
0.14962
0.149097
0.1487
0.148368
0.148102
0.147888
0.147724
0.147589
0.147474
0.147361
0.147265
0.147158
0.147001
0.146794
0.146523
0.146195
0.145816
0.145393
0.144914
0.144397
0.143823
0.14319
0.142495
0.141735
0.140911
0.140031
0.139105
0.138151
0.137193
0.136245
0.13532
0.134426
0.133561
0.132745
0.131993
0.131319
0.130735
0.130233
0.129819
0.12947
0.129144
0.128788
0.128338
0.127778
0.127059
0.12615
0.125033
0.123692
0.122124
0.120321
0.118263
0.115962
0.113395
0.110526
0.107321
0.103732
0.0997232
0.0952453
0.0902238
0.0846146
0.0782994
0.0712941
0.063588
0.0552961
0.0465345
0.0375081
0.028506
0.0200286
0.0131285
0.00715355
0.0017278
-0.00332342
-0.00808514
-0.0126057
-0.0169181
-0.0210484
-0.0250196
-0.0288529
-0.032568
-0.0361832
-0.0397151
-0.0431788
-0.0465873
-0.0499523
-0.0532833
-0.0565884
-0.0598742
-0.063146
-0.066408
-0.0696633
-0.0729144
-0.0761632
-0.0794109
-0.0826586
-0.0859066
-0.0891555
-0.0924055
-0.0956564
-0.0989084
-0.102161
-0.105415
-0.108668
0.215767
0.206324
0.197435
0.18934
0.182196
0.176022
0.170785
0.166384
0.162693
0.159599
0.156995
0.154792
0.152924
0.151352
0.150046
0.14894
0.148036
0.147305
0.14669
0.146183
0.145799
0.145473
0.145212
0.145009
0.144849
0.144712
0.144594
0.144478
0.144377
0.144252
0.144066
0.143833
0.143519
0.143136
0.142686
0.142181
0.14161
0.141008
0.14035
0.139636
0.138863
0.138024
0.137124
0.136173
0.135181
0.134166
0.133154
0.13216
0.131206
0.130303
0.129452
0.128676
0.127994
0.127422
0.126977
0.126649
0.12644
0.126328
0.126266
0.126208
0.126084
0.125872
0.125536
0.125056
0.124421
0.123619
0.122612
0.121409
0.120005
0.118375
0.116485
0.114276
0.111703
0.108693
0.105183
0.101099
0.0963296
0.0908216
0.0844347
0.077182
0.0690668
0.0602603
0.0509411
0.0414263
0.0320908
0.023379
0.0157939
0.00913532
0.00316475
-0.00229447
-0.00735882
-0.0121056
-0.0165886
-0.0208486
-0.0249184
-0.028826
-0.0325962
-0.0362511
-0.0398106
-0.0432921
-0.046711
-0.0500803
-0.0534114
-0.0567133
-0.0599937
-0.0632586
-0.0665126
-0.0697595
-0.073002
-0.0762421
-0.0794813
-0.0827206
-0.0859606
-0.0892017
-0.092444
-0.0956877
-0.0989325
-0.102178
-0.105425
-0.108672
0.215586
0.20575
0.196471
0.188047
0.180636
0.174262
0.168864
0.164342
0.16056
0.157388
0.154712
0.152442
0.150512
0.148883
0.147512
0.146356
0.145404
0.144619
0.143961
0.143418
0.142985
0.142614
0.142314
0.142071
0.141877
0.141709
0.141562
0.141428
0.141295
0.141125
0.140894
0.140604
0.140222
0.139761
0.139217
0.138603
0.137918
0.137193
0.136416
0.135588
0.134711
0.133777
0.132788
0.131763
0.130708
0.129643
0.128593
0.127572
0.12661
0.125725
0.124923
0.124232
0.123678
0.123277
0.123051
0.122982
0.123076
0.123304
0.123613
0.123965
0.124287
0.124556
0.124747
0.124849
0.124834
0.124684
0.124391
0.123933
0.123293
0.122437
0.121304
0.119822
0.117909
0.115478
0.112419
0.108646
0.104022
0.0984769
0.0918394
0.0841107
0.075315
0.0656598
0.0553944
0.0449642
0.034875
0.0256613
0.0176017
0.010519
0.00419802
-0.00153979
-0.0068228
-0.0117408
-0.0163582
-0.020723
-0.0248741
-0.0288437
-0.0326601
-0.0363482
-0.0399302
-0.0434256
-0.0468515
-0.0502227
-0.0535516
-0.0568486
-0.060122
-0.0633785
-0.0666235
-0.069861
-0.073094
-0.0763247
-0.0795548
-0.0827852
-0.0860166
-0.0892495
-0.0924839
-0.0957199
-0.0989573
-0.102196
-0.105435
-0.108675
0.21545
0.205342
0.195789
0.187118
0.179503
0.17298
0.167477
0.16287
0.159012
0.155762
0.152999
0.150637
0.14861
0.146874
0.14539
0.144126
0.143069
0.142173
0.141413
0.140769
0.140221
0.139745
0.139344
0.138998
0.138717
0.138479
0.138281
0.138105
0.137918
0.137686
0.137392
0.137012
0.136536
0.135966
0.135298
0.134546
0.133723
0.132848
0.131919
0.130954
0.129944
0.128898
0.127811
0.12671
0.1256
0.124501
0.123439
0.122423
0.121493
0.120672
0.119976
0.119442
0.119098
0.118968
0.119066
0.119378
0.119904
0.120608
0.121438
0.122348
0.123272
0.124195
0.125078
0.125904
0.126688
0.127407
0.127993
0.128416
0.128653
0.128671
0.128377
0.12766
0.126387
0.124467
0.121759
0.118177
0.113555
0.107781
0.100658
0.0921724
0.0823597
0.071434
0.0597153
0.0478119
0.0365259
0.0267605
0.0184361
0.0111851
0.00472413
-0.00114064
-0.00653828
-0.011557
-0.0162602
-0.0206964
-0.0249049
-0.0289194
-0.0327693
-0.0364811
-0.0400784
-0.0435821
-0.0470108
-0.0503804
-0.0537044
-0.0569941
-0.0602586
-0.0635054
-0.0667401
-0.0699671
-0.0731898
-0.0764104
-0.0796307
-0.0828518
-0.0860743
-0.0892986
-0.0925248
-0.0957529
-0.0989827
-0.102214
-0.105446
-0.108679
0.215353
0.205062
0.195351
0.186563
0.178857
0.172259
0.166695
0.162031
0.158107
0.15477
0.151898
0.149403
0.147225
0.145319
0.143664
0.142225
0.140998
0.139928
0.139
0.138186
0.137461
0.136812
0.136238
0.135723
0.135294
0.134931
0.134649
0.134401
0.134142
0.133833
0.133453
0.132964
0.132365
0.131652
0.130829
0.129911
0.128915
0.127859
0.126753
0.125624
0.124465
0.123295
0.122111
0.120941
0.119792
0.118681
0.117643
0.116679
0.115837
0.115148
0.114642
0.114365
0.114344
0.114612
0.11518
0.116034
0.117166
0.118528
0.120068
0.121728
0.123451
0.125191
0.12695
0.128735
0.13054
0.132321
0.133965
0.13542
0.136633
0.137599
0.138216
0.138259
0.137556
0.136015
0.133501
0.129927
0.125101
0.118852
0.110987
0.101449
0.0902474
0.077564
0.063754
0.0495585
0.0363361
0.026263
0.0181072
0.0110391
0.00468374
-0.00114205
-0.00654192
-0.0115841
-0.0163191
-0.0207878
-0.0250257
-0.0290642
-0.0329321
-0.0366557
-0.0402592
-0.0437643
-0.0471903
-0.050554
-0.0538698
-0.0571495
-0.0604032
-0.0636385
-0.0668616
-0.0700771
-0.0732886
-0.0764985
-0.0797085
-0.0829198
-0.086133
-0.0893485
-0.0925663
-0.0957864
-0.0990085
-0.102232
-0.105457
-0.108683
0.215316
0.204979
0.195243
0.186429
0.178718
0.17213
0.166561
0.161858
0.157861
0.154417
0.151399
0.148718
0.146327
0.144188
0.14229
0.140605
0.139131
0.137821
0.136659
0.135608
0.134647
0.133757
0.132945
0.1322
0.131559
0.131016
0.130605
0.130247
0.129899
0.129495
0.128998
0.12838
0.12762
0.126733
0.125719
0.124597
0.12339
0.122123
0.120818
0.1195
0.118185
0.116895
0.115622
0.114403
0.113243
0.112158
0.111192
0.110346
0.109668
0.109202
0.108995
0.109092
0.109543
0.110376
0.111596
0.113195
0.115148
0.117397
0.11988
0.122503
0.125223
0.128048
0.130932
0.133902
0.13695
0.139985
0.142839
0.145438
0.14772
0.149677
0.151264
0.152058
0.151797
0.150397
0.147824
0.143998
0.138706
0.13172
0.122852
0.111963
0.0990147
0.0840936
0.0674128
0.0495446
0.0324411
0.0235369
0.0164902
0.0100806
0.00408741
-0.00154358
-0.00684197
-0.0118345
-0.016548
-0.0210097
-0.0252468
-0.0292863
-0.0331545
-0.0368763
-0.0404755
-0.0439738
-0.0473908
-0.0507437
-0.0540473
-0.0573143
-0.0605547
-0.0637768
-0.066987
-0.07019
-0.0733895
-0.076588
-0.0797873
-0.0829885
-0.0861922
-0.0893987
-0.092608
-0.09582
-0.0990342
-0.10225
-0.105468
-0.108686
0.215334
0.205047
0.195406
0.186702
0.17908
0.172546
0.166979
0.162228
0.158132
0.15454
0.151329
0.148419
0.14577
0.143351
0.141152
0.139162
0.137378
0.135767
0.134309
0.13296
0.131709
0.130526
0.129427
0.128406
0.127506
0.126741
0.126145
0.125642
0.125178
0.124659
0.124015
0.123227
0.122268
0.12116
0.119905
0.118529
0.117069
0.115567
0.114038
0.112518
0.111045
0.109654
0.108313
0.107075
0.105952
0.10495
0.104121
0.103475
0.103062
0.102926
0.103129
0.103762
0.104857
0.106453
0.108546
0.111128
0.114154
0.117554
0.121226
0.125101
0.12912
0.133294
0.137545
0.141954
0.146469
0.150926
0.155088
0.158848
0.162225
0.165179
0.167772
0.169362
0.169355
0.167738
0.164786
0.160378
0.154319
0.146285
0.136109
0.123555
0.108593
0.091165
0.0710683
0.0477766
0.00999805
0.0185086
0.013939
0.00853584
0.00304799
-0.00229482
-0.00741936
-0.0123043
-0.0169499
-0.0213672
-0.0255738
-0.0295906
-0.0334402
-0.0371455
-0.0407287
-0.0442111
-0.047612
-0.0509487
-0.0542362
-0.0574872
-0.0607121
-0.0639192
-0.0671151
-0.0703046
-0.0734914
-0.0766781
-0.0798663
-0.0830572
-0.0862512
-0.0894487
-0.0926495
-0.0958533
-0.0990598
-0.102268
-0.105479
-0.10869
0.215532
0.205562
0.196094
0.187478
0.179913
0.173395
0.167786
0.162939
0.158689
0.154897
0.151445
0.148263
0.14531
0.142561
0.140019
0.137681
0.135552
0.133611
0.131827
0.130146
0.128575
0.127071
0.125663
0.12435
0.123177
0.122187
0.121374
0.1207
0.120076
0.119404
0.118567
0.117554
0.116347
0.114948
0.113376
0.111683
0.109927
0.108157
0.106385
0.104666
0.103048
0.101582
0.100214
0.0990041
0.0979753
0.0971315
0.0965215
0.0961735
0.0961228
0.0964385
0.0971896
0.0985186
0.100449
0.103022
0.106232
0.110056
0.114429
0.119245
0.12443
0.129874
0.135498
0.14129
0.147182
0.153293
0.159519
0.165554
0.171011
0.175832
0.180234
0.184171
0.187754
0.190263
0.190304
0.188006
0.184376
0.178902
0.171724
0.162181
0.150333
0.135726
0.118614
0.0988691
0.0758753
0.0491868
0.0161454
0.0163363
0.011881
0.00687066
0.00174483
-0.00331831
-0.00823933
-0.0129787
-0.0175192
-0.0218592
-0.0260073
-0.0299781
-0.03379
-0.0374633
-0.0410184
-0.0444753
-0.0478528
-0.0511676
-0.0544347
-0.0576666
-0.0608736
-0.064064
-0.0672444
-0.0704196
-0.0735932
-0.0767676
-0.0799446
-0.083125
-0.0863094
-0.0894978
-0.0926901
-0.0958859
-0.0990848
-0.102286
-0.105489
-0.108693
0.215574
0.205779
0.196607
0.188301
0.180948
0.174491
0.168813
0.163802
0.159306
0.155209
0.151437
0.147915
0.144608
0.141491
0.138574
0.135852
0.133355
0.131082
0.128994
0.127002
0.125128
0.12333
0.121633
0.12007
0.118657
0.117485
0.116491
0.115652
0.114842
0.113963
0.112858
0.111534
0.109988
0.108194
0.106206
0.104118
0.102007
0.0999241
0.0979021
0.0959991
0.0942672
0.0927565
0.0914228
0.0903085
0.0894436
0.0888352
0.088537
0.0885607
0.0889853
0.0898655
0.0912954
0.0934831
0.0964368
0.100208
0.104786
0.110125
0.116118
0.122672
0.129687
0.137046
0.144598
0.152239
0.160039
0.168097
0.176276
0.184067
0.190695
0.196303
0.201547
0.206463
0.211005
0.214577
0.214727
0.211315
0.206786
0.199391
0.190582
0.17883
0.164888
0.147378
0.127711
0.106232
0.0803161
0.0498007
0.0106817
0.0147841
0.00997605
0.00510943
0.000244637
-0.0045634
-0.00927035
-0.0138392
-0.0182457
-0.02248
-0.0265436
-0.030446
-0.0342016
-0.0378275
-0.0413422
-0.044764
-0.0481105
-0.0513979
-0.0546404
-0.0578501
-0.061037
-0.0642093
-0.0673732
-0.0705334
-0.0736934
-0.0768554
-0.080021
-0.0831911
-0.0863659
-0.0895454
-0.0927294
-0.0959175
-0.0991089
-0.102303
-0.105499
-0.108697
0.215746
0.20631
0.19749
0.189429
0.182167
0.175658
0.169798
0.164479
0.159592
0.155077
0.150877
0.14694
0.143237
0.139727
0.136417
0.133287
0.130408
0.127819
0.125487
0.123262
0.121154
0.119158
0.117281
0.115601
0.114079
0.11284
0.111775
0.110841
0.109871
0.108741
0.107284
0.105512
0.103462
0.101112
0.0985771
0.095992
0.0934462
0.0910089
0.0887401
0.086674
0.0848658
0.0833576
0.0821162
0.0811698
0.080538
0.0802374
0.0802857
0.0807754
0.0817555
0.0832747
0.0855138
0.0886901
0.0928468
0.0980255
0.10421
0.11132
0.119236
0.127825
0.136973
0.146595
0.156424
0.166109
0.176012
0.186267
0.196612
0.206427
0.214111
0.219995
0.225892
0.231794
0.237333
0.241705
0.243189
0.238429
0.231132
0.22128
0.208034
0.194903
0.176307
0.156128
0.131069
0.111802
0.0801767
0.0385883
0.00591984
0.0109801
0.00749088
0.00310014
-0.00145688
-0.00600561
-0.0104885
-0.0148676
-0.0191158
-0.0232193
-0.0271749
-0.0309879
-0.0346692
-0.038233
-0.0416953
-0.0450727
-0.0483813
-0.051636
-0.05485
-0.0580348
-0.0611999
-0.0643528
-0.0674995
-0.0706443
-0.0737905
-0.0769402
-0.0800946
-0.0832544
-0.0864199
-0.0895909
-0.0927669
-0.0959475
-0.0991318
-0.102319
-0.105509
-0.1087
0.215998
0.20697
0.198372
0.190388
0.183083
0.176402
0.170231
0.164441
0.158957
0.153837
0.149109
0.144747
0.140674
0.136785
0.133109
0.129583
0.126315
0.123437
0.120964
0.118664
0.11644
0.114393
0.112537
0.110963
0.109605
0.108536
0.107621
0.106742
0.10571
0.10434
0.102468
0.100078
0.0972771
0.0941323
0.0908399
0.0876042
0.0845193
0.0817075
0.0791932
0.0769811
0.0751211
0.0736553
0.0725354
0.0717982
0.0714412
0.0714427
0.0718878
0.0728518
0.0744239
0.0766757
0.0798156
0.0840966
0.0896385
0.0964441
0.104484
0.113604
0.123682
0.134619
0.146181
0.15839
0.17099
0.182992
0.19492
0.207451
0.219759
0.232165
0.241122
0.245303
0.251116
0.256724
0.262981
0.264911
0.269337
0.263518
0.246061
0.231718
0.207146
0.198734
0.164184
0.13997
0.100779
0.0989478
0.0413386
0.0147127
0
0.00549198
0.00485199
0.000932294
-0.00332927
-0.00762237
-0.0118732
-0.0160452
-0.0201133
-0.024063
-0.027889
-0.0315934
-0.0351838
-0.0386717
-0.0420707
-0.0453952
-0.0486595
-0.0518769
-0.0550593
-0.0582172
-0.061359
-0.0644918
-0.067621
-0.0707504
-0.073883
-0.0770205
-0.080164
-0.0833141
-0.0864706
-0.0896335
-0.092802
-0.0959755
-0.0991533
-0.102334
-0.105518
-0.108703
0.216012
0.207001
0.198392
0.190339
0.182865
0.175877
0.169223
0.16274
0.156375
0.150444
0.145186
0.140535
0.13626
0.132109
0.128185
0.124381
0.120789
0.117674
0.115178
0.113045
0.110928
0.109061
0.107524
0.106378
0.105583
0.105069
0.104638
0.104076
0.103178
0.101675
0.0993372
0.0961549
0.0923266
0.0880687
0.0836919
0.079535
0.0757587
0.0725145
0.0697271
0.0673465
0.0654095
0.0639542
0.0629294
0.062371
0.0622219
0.0625204
0.0633234
0.0647272
0.0668869
0.069984
0.0740871
0.079627
0.0867953
0.095578
0.105783
0.117037
0.129278
0.142829
0.15705
0.17194
0.187813
0.202751
0.214551
0.227413
0.237576