/*--------------------------------*- C++ -*----------------------------------*\
  =========                 |
  \\      /  F ield         | OpenFOAM: The Open Source CFD Toolbox
   \\    /   O peration     | Website:  https://openfoam.org
    \\  /    A nd           | Version:  6
     \\/     M anipulation  |
\*---------------------------------------------------------------------------*/
FoamFile
{
    version     2.0;
    format      ascii;
    class       volScalarField;
    location    "4300";
    object      T;
}
// * * * * * * * * * * * * * * * * * * * * * * * * * * * * * * * * * * * * * //

dimensions      [0 0 0 1 0 0 0];

internalField   nonuniform List<scalar> 
4800
(
552.516
552.447
552.381
552.315
552.25
552.185
552.12
552.057
551.994
551.931
551.87
551.809
551.75
551.692
551.636
551.581
551.528
551.476
551.426
551.378
551.331
551.287
551.244
551.202
551.163
551.125
551.088
551.053
551.02
550.987
550.956
550.925
550.896
550.867
550.839
550.811
550.784
550.757
550.73
550.704
550.677
550.65
550.623
550.596
550.568
550.54
550.512
550.483
550.454
550.424
550.393
550.361
550.328
550.294
550.258
550.22
550.179
550.133
550.08
550.018
549.944
549.854
549.746
549.618
549.47
549.306
549.126
548.934
548.731
548.52
548.302
548.077
547.845
547.608
547.366
547.12
546.872
546.622
546.373
546.125
545.88
545.636
545.394
545.152
544.907
544.654
544.55
544.439
544.324
544.206
544.087
543.968
543.848
543.728
543.608
543.488
543.368
543.248
543.127
543.007
542.887
542.767
542.648
542.528
542.408
542.288
542.168
542.048
541.928
541.809
541.689
541.569
541.449
541.329
541.209
541.09
540.97
540.85
540.73
540.61
552.514
552.442
552.371
552.302
552.233
552.166
552.099
552.035
551.971
551.908
551.846
551.785
551.725
551.667
551.611
551.556
551.503
551.452
551.402
551.354
551.307
551.263
551.22
551.18
551.141
551.103
551.067
551.033
551
550.968
550.937
550.907
550.878
550.85
550.822
550.795
550.769
550.742
550.716
550.689
550.663
550.636
550.61
550.583
550.555
550.528
550.5
550.471
550.442
550.412
550.382
550.35
550.318
550.284
550.248
550.211
550.17
550.124
550.073
550.012
549.94
549.854
549.749
549.625
549.481
549.319
549.142
548.952
548.752
548.542
548.324
548.099
547.867
547.629
547.385
547.137
546.888
546.637
546.386
546.137
545.89
545.645
545.402
545.161
544.915
544.651
544.556
544.443
544.326
544.207
544.088
543.968
543.848
543.728
543.608
543.488
543.367
543.247
543.127
543.007
542.887
542.767
542.647
542.527
542.408
542.288
542.168
542.048
541.928
541.808
541.689
541.569
541.449
541.329
541.209
541.089
540.97
540.85
540.73
540.61
552.51
552.431
552.351
552.275
552.2
552.128
552.058
551.991
551.925
551.861
551.798
551.737
551.676
551.618
551.562
551.507
551.454
551.404
551.354
551.307
551.261
551.217
551.176
551.136
551.098
551.062
551.027
550.994
550.962
550.931
550.901
550.873
550.845
550.817
550.791
550.765
550.739
550.713
550.688
550.662
550.636
550.61
550.584
550.558
550.531
550.503
550.476
550.447
550.419
550.389
550.359
550.328
550.296
550.263
550.228
550.191
550.152
550.107
550.057
549.999
549.931
549.848
549.749
549.631
549.493
549.337
549.164
548.978
548.782
548.575
548.359
548.134
547.902
547.662
547.418
547.169
546.917
546.664
546.411
546.159
545.909
545.662
545.417
545.177
544.943
544.728
544.581
544.452
544.33
544.209
544.089
543.968
543.848
543.728
543.608
543.487
543.367
543.247
543.127
543.007
542.887
542.767
542.647
542.527
542.407
542.287
542.167
542.048
541.928
541.808
541.688
541.568
541.449
541.329
541.209
541.089
540.969
540.85
540.73
540.61
552.504
552.414
552.324
552.237
552.154
552.075
552
551.929
551.86
551.794
551.73
551.667
551.606
551.548
551.491
551.437
551.384
551.334
551.286
551.239
551.194
551.152
551.112
551.073
551.037
551.002
550.969
550.937
550.907
550.878
550.85
550.823
550.797
550.771
550.746
550.721
550.696
550.672
550.647
550.623
550.598
550.573
550.547
550.521
550.495
550.468
550.441
550.413
550.385
550.356
550.326
550.296
550.265
550.232
550.198
550.162
550.124
550.081
550.033
549.978
549.913
549.836
549.743
549.633
549.504
549.355
549.189
549.008
548.815
548.612
548.399
548.177
547.945
547.706
547.46
547.209
546.956
546.701
546.445
546.19
545.935
545.683
545.435
545.19
544.952
544.736
544.585
544.455
544.332
544.21
544.09
543.969
543.849
543.728
543.608
543.487
543.367
543.246
543.126
543.006
542.886
542.766
542.646
542.526
542.406
542.286
542.167
542.047
541.927
541.807
541.688
541.568
541.448
541.329
541.209
541.089
540.969
540.849
540.73
540.61
552.497
552.391
552.287
552.188
552.095
552.007
551.925
551.849
551.777
551.708
551.642
551.578
551.517
551.457
551.401
551.347
551.295
551.246
551.198
551.153
551.11
551.069
551.031
550.994
550.96
550.928
550.897
550.867
550.839
550.812
550.786
550.761
550.737
550.713
550.69
550.666
550.643
550.62
550.597
550.573
550.55
550.525
550.501
550.475
550.45
550.423
550.397
550.369
550.341
550.313
550.284
550.254
550.223
550.192
550.159
550.124
550.087
550.046
550
549.948
549.887
549.815
549.729
549.627
549.507
549.368
549.211
549.037
548.849
548.65
548.44
548.22
547.99
547.751
547.505
547.255
547.001
546.744
546.485
546.226
545.967
545.709
545.454
545.199
544.944
544.678
544.57
544.452
544.331
544.211
544.091
543.97
543.85
543.729
543.608
543.487
543.366
543.246
543.125
543.005
542.885
542.765
542.645
542.525
542.405
542.285
542.166
542.046
541.926
541.807
541.687
541.567
541.448
541.328
541.208
541.089
540.969
540.849
540.73
540.61
552.487
552.364
552.244
552.13
552.024
551.926
551.837
551.754
551.678
551.606
551.538
551.473
551.41
551.351
551.294
551.241
551.19
551.142
551.096
551.052
551.011
550.972
550.936
550.902
550.87
550.841
550.813
550.786
550.76
550.736
550.713
550.69
550.667
550.646
550.624
550.603
550.581
550.56
550.538
550.516
550.493
550.47
550.446
550.421
550.396
550.37
550.344
550.317
550.289
550.261
550.233
550.203
550.173
550.143
550.111
550.077
550.042
550.003
549.959
549.91
549.853
549.786
549.706
549.612
549.501
549.372
549.225
549.06
548.88
548.685
548.479
548.261
548.032
547.795
547.552
547.303
547.049
546.791
546.53
546.267
546.004
545.741
545.477
545.213
544.946
544.669
544.564
544.45
544.332
544.213
544.093
543.972
543.851
543.73
543.608
543.487
543.366
543.245
543.124
543.004
542.884
542.763
542.643
542.524
542.404
542.284
542.164
542.045
541.925
541.806
541.686
541.567
541.447
541.327
541.208
541.088
540.969
540.849
540.729
540.61
552.477
552.333
552.195
552.065
551.945
551.834
551.735
551.646
551.566
551.491
551.42
551.353
551.29
551.231
551.175
551.122
551.072
551.025
550.981
550.94
550.901
550.865
550.831
550.8
550.771
550.745
550.72
550.696
550.673
550.652
550.631
550.611
550.591
550.571
550.552
550.532
550.513
550.493
550.472
550.451
550.43
550.407
550.384
550.36
550.335
550.31
550.283
550.257
550.229
550.202
550.173
550.145
550.115
550.085
550.055
550.022
549.988
549.951
549.91
549.864
549.81
549.748
549.674
549.587
549.484
549.364
549.227
549.072
548.901
548.714
548.512
548.298
548.074
547.841
547.601
547.354
547.101
546.843
546.58
546.314
546.047
545.778
545.507
545.233
544.96
544.704
544.568
544.451
544.334
544.216
544.096
543.975
543.854
543.731
543.609
543.487
543.366
543.244
543.123
543.003
542.882
542.762
542.642
542.522
542.402
542.282
542.163
542.043
541.924
541.804
541.685
541.566
541.446
541.327
541.207
541.088
540.968
540.849
540.729
540.61
552.466
552.3
552.142
551.994
551.859
551.737
551.627
551.529
551.443
551.365
551.292
551.224
551.16
551.101
551.045
550.993
550.944
550.899
550.858
550.819
550.783
550.75
550.719
550.691
550.666
550.642
550.62
550.6
550.58
550.562
550.544
550.526
550.509
550.492
550.474
550.457
550.439
550.42
550.401
550.381
550.36
550.338
550.316
550.292
550.268
550.242
550.216
550.19
550.162
550.135
550.107
550.078
550.049
550.02
549.99
549.959
549.927
549.892
549.853
549.81
549.76
549.701
549.632
549.551
549.455
549.343
549.215
549.069
548.906
548.728
548.533
548.327
548.11
547.883
547.648
547.404
547.153
546.896
546.634
546.368
546.099
545.824
545.544
545.257
544.957
544.621
544.554
544.452
544.339
544.222
544.102
543.98
543.857
543.734
543.611
543.488
543.366
543.244
543.122
543.001
542.88
542.76
542.64
542.52
542.4
542.281
542.161
542.042
541.922
541.803
541.684
541.564
541.445
541.326
541.206
541.087
540.968
540.848
540.729
540.61
552.454
552.266
552.086
551.92
551.768
551.632
551.511
551.405
551.313
551.231
551.156
551.086
551.022
550.963
550.908
550.858
550.811
550.768
550.729
550.693
550.66
550.63
550.603
550.578
550.556
550.536
550.518
550.501
550.484
550.469
550.454
550.439
550.424
550.408
550.393
550.377
550.36
550.343
550.325
550.306
550.286
550.265
550.242
550.219
550.194
550.169
550.142
550.116
550.088
550.06
550.032
550.004
549.975
549.946
549.917
549.888
549.857
549.824
549.788
549.747
549.7
549.646
549.582
549.506
549.417
549.312
549.191
549.053
548.898
548.728
548.544
548.346
548.137
547.917
547.688
547.45
547.204
546.952
546.694
546.431
546.16
545.881
545.593
545.296
544.992
544.708
544.575
544.464
544.35
544.232
544.111
543.988
543.863
543.738
543.614
543.489
543.366
543.243
543.121
542.999
542.878
542.758
542.638
542.518
542.398
542.278
542.159
542.04
541.921
541.801
541.682
541.563
541.444
541.325
541.206
541.086
540.967
540.848
540.729
540.61
552.442
552.23
552.028
551.842
551.674
551.523
551.391
551.276
551.176
551.09
551.013
550.943
550.879
550.821
550.767
550.719
550.674
550.634
550.597
550.565
550.535
550.509
550.485
550.463
550.445
550.429
550.414
550.4
550.386
550.374
550.362
550.349
550.336
550.322
550.308
550.294
550.279
550.263
550.246
550.227
550.207
550.186
550.163
550.139
550.115
550.089
550.062
550.034
550.006
549.978
549.95
549.921
549.893
549.864
549.836
549.808
549.778
549.748
549.714
549.676
549.633
549.582
549.521
549.451
549.367
549.269
549.155
549.026
548.881
548.721
548.547
548.359
548.16
547.949
547.729
547.499
547.262
547.017
546.764
546.503
546.231
545.948
545.653
545.341
545.009
544.645
544.575
544.478
544.368
544.249
544.125
543.998
543.871
543.744
543.617
543.491
543.366
543.243
543.12
542.998
542.876
542.755
542.635
542.515
542.396
542.276
542.157
542.038
541.919
541.8
541.681
541.562
541.443
541.324
541.205
541.086
540.967
540.848
540.729
540.61
552.43
552.195
551.971
551.765
551.58
551.415
551.271
551.146
551.039
550.947
550.868
550.796
550.733
550.675
550.624
550.577
550.535
550.498
550.465
550.436
550.41
550.387
550.367
550.349
550.334
550.321
550.309
550.298
550.288
550.278
550.268
550.258
550.246
550.234
550.222
550.208
550.194
550.179
550.162
550.143
550.123
550.102
550.079
550.054
550.028
550.002
549.974
549.946
549.917
549.888
549.859
549.83
549.802
549.773
549.746
549.719
549.691
549.662
549.631
549.596
549.557
549.511
549.455
549.39
549.311
549.219
549.113
548.993
548.859
548.71
548.547
548.372
548.185
547.987
547.778
547.559
547.331
547.093
546.845
546.587
546.315
546.03
545.729
545.407
545.055
544.642
544.602
544.509
544.396
544.272
544.143
544.013
543.881
543.751
543.621
543.493
543.367
543.242
543.118
542.996
542.874
542.753
542.632
542.512
542.393
542.273
542.154
542.035
541.916
541.798
541.679
541.56
541.441
541.323
541.204
541.085
540.966
540.847
540.728
540.609
552.418
552.16
551.914
551.689
551.486
551.308
551.154
551.02
550.906
550.809
550.726
550.652
550.588
550.532
550.482
550.438
550.398
550.364
550.335
550.309
550.286
550.267
550.25
550.236
550.224
550.214
550.205
550.197
550.189
550.182
550.174
550.165
550.155
550.144
550.132
550.12
550.106
550.09
550.074
550.055
550.034
550.012
549.988
549.962
549.935
549.907
549.878
549.848
549.819
549.789
549.759
549.73
549.701
549.673
549.647
549.621
549.595
549.569
549.541
549.51
549.474
549.432
549.381
549.322
549.251
549.167
549.069
548.959
548.836
548.699
548.55
548.389
548.217
548.032
547.837
547.63
547.413
547.184
546.942
546.686
546.416
546.13
545.827
545.503
545.155
544.802
544.679
544.563
544.437
544.304
544.167
544.03
543.894
543.759
543.627
543.496
543.368
543.241
543.117
542.993
542.871
542.75
542.629
542.509
542.39
542.27
542.152
542.033
541.914
541.795
541.677
541.558
541.44
541.321
541.203
541.084
540.965
540.847
540.728
540.609
552.405
552.123
551.858
551.615
551.396
551.204
551.039
550.898
550.778
550.676
550.589
550.515
550.449
550.394
550.346
550.303
550.266
550.236
550.209
550.186
550.167
550.15
550.137
550.125
550.116
550.108
550.102
550.096
550.091
550.085
550.079
550.071
550.062
550.051
550.04
550.027
550.013
549.997
549.979
549.96
549.938
549.915
549.889
549.862
549.833
549.803
549.772
549.741
549.711
549.68
549.649
549.619
549.591
549.563
549.537
549.513
549.49
549.467
549.443
549.417
549.386
549.349
549.305
549.251
549.188
549.113
549.026
548.928
548.818
548.697
548.564
548.419
548.263
548.095
547.915
547.722
547.516
547.297
547.061
546.809
546.539
546.252
545.947
545.618
545.254
544.803
544.753
544.631
544.49
544.343
544.196
544.05
543.908
543.768
543.632
543.499
543.369
543.241
543.115
542.991
542.868
542.746
542.626
542.506
542.386
542.267
542.148
542.03
541.911
541.793
541.675
541.556
541.438
541.32
541.201
541.083
540.965
540.846
540.728
540.609
552.395
552.092
551.805
551.543
551.309
551.105
550.93
550.782
550.657
550.551
550.461
550.385
550.319
550.263
550.217
550.176
550.141
550.113
550.089
550.069
550.052
550.038
550.027
550.018
550.011
550.005
550
549.995
549.991
549.987
549.981
549.974
549.965
549.954
549.942
549.928
549.913
549.896
549.877
549.857
549.834
549.808
549.781
549.751
549.72
549.688
549.655
549.623
549.59
549.559
549.528
549.498
549.469
549.443
549.419
549.397
549.377
549.359
549.34
549.319
549.295
549.265
549.229
549.184
549.13
549.067
548.993
548.91
548.816
548.712
548.598
548.472
548.335
548.185
548.022
547.844
547.65
547.44
547.209
546.958
546.686
546.394
546.085
545.762
545.428
545.102
544.9
544.722
544.552
544.387
544.227
544.072
543.923
543.778
543.638
543.502
543.369
543.24
543.113
542.988
542.864
542.743
542.622
542.502
542.383
542.264
542.145
542.027
541.909
541.791
541.672
541.554
541.436
541.318
541.2
541.082
540.964
540.846
540.727
540.609
552.384
552.06
551.754
551.475
551.228
551.013
550.83
550.676
550.546
550.437
550.345
550.267
550.2
550.144
550.098
550.058
550.025
549.998
549.976
549.957
549.942
549.93
549.92
549.913
549.907
549.902
549.898
549.893
549.89
549.886
549.88
549.873
549.863
549.851
549.837
549.822
549.804
549.786
549.765
549.742
549.717
549.689
549.659
549.627
549.594
549.559
549.525
549.49
549.457
549.424
549.393
549.364
549.337
549.312
549.291
549.273
549.258
549.246
549.234
549.221
549.205
549.185
549.159
549.126
549.086
549.037
548.981
548.915
548.841
548.757
548.664
548.56
548.444
548.314
548.168
548.006
547.823
547.62
547.391
547.136
546.857
546.556
546.238
545.911
545.584
545.277
545.026
544.81
544.613
544.43
544.257
544.093
543.937
543.787
543.643
543.504
543.369
543.238
543.11
542.984
542.861
542.738
542.618
542.498
542.379
542.26
542.142
542.024
541.906
541.788
541.67
541.552
541.434
541.317
541.199
541.081
540.963
540.845
540.727
540.609
552.375
552.033
551.71
551.417
551.158
550.934
550.744
550.584
550.45
550.338
550.244
550.164
550.096
550.039
549.992
549.951
549.918
549.892
549.869
549.851
549.837
549.825
549.815
549.808
549.802
549.797
549.793
549.789
549.785
549.78
549.774
549.765
549.754
549.74
549.723
549.705
549.684
549.663
549.639
549.613
549.585
549.554
549.522
549.487
549.451
549.415
549.378
549.342
549.307
549.275
549.244
549.216
549.192
549.171
549.155
549.144
549.136
549.132
549.13
549.128
549.124
549.116
549.104
549.087
549.064
549.035
548.999
548.955
548.904
548.845
548.777
548.697
548.603
548.494
548.366
548.218
548.045
547.845
547.613
547.35
547.055
546.736
546.398
546.052
545.714
545.398
545.123
544.882
544.665
544.467
544.283
544.111
543.949
543.794
543.647
543.505
543.368
543.235
543.106
542.98
542.856
542.734
542.613
542.493
542.374
542.256
542.138
542.02
541.902
541.785
541.668
541.55
541.433
541.315
541.197
541.08
540.962
540.844
540.727
540.609
552.368
552.012
551.675
551.37
551.101
550.87
550.674
550.51
550.373
550.258
550.161
550.079
550.009
549.949
549.9
549.858
549.823
549.794
549.77
549.75
549.735
549.721
549.71
549.701
549.694
549.688
549.682
549.678
549.673
549.667
549.658
549.648
549.634
549.617
549.597
549.575
549.55
549.524
549.496
549.466
549.434
549.4
549.364
549.327
549.289
549.25
549.212
549.176
549.141
549.109
549.08
549.055
549.035
549.021
549.013
549.011
549.015
549.023
549.035
549.048
549.06
549.07
549.077
549.081
549.08
549.075
549.064
549.048
549.024
548.993
548.952
548.898
548.828
548.74
548.629
548.491
548.323
548.122
547.881
547.6
547.281
546.931
546.559
546.18
545.815
545.481
545.188
544.932
544.702
544.494
544.303
544.124
543.957
543.799
543.648
543.504
543.366
543.232
543.102
542.975
542.851
542.729
542.608
542.488
542.37
542.252
542.134
542.016
541.899
541.782
541.665
541.548
541.43
541.313
541.196
541.079
540.961
540.844
540.726
540.609
552.364
551.997
551.651
551.336
551.06
550.824
550.624
550.457
550.317
550.199
550.099
550.013
549.94
549.877
549.823
549.777
549.738
549.705
549.678
549.654
549.634
549.617
549.602
549.589
549.579
549.57
549.563
549.557
549.55
549.541
549.531
549.517
549.5
549.479
549.455
549.427
549.398
549.366
549.332
549.297
549.261
549.223
549.183
549.144
549.103
549.064
549.025
548.989
548.955
548.926
548.901
548.882
548.87
548.865
548.869
548.881
548.9
548.926
548.957
548.99
549.024
549.057
549.09
549.12
549.148
549.174
549.196
549.211
549.219
549.22
549.209
549.183
549.136
549.066
548.967
548.837
548.669
548.459
548.2
547.892
547.536
547.14
546.715
546.283
545.874
545.52
545.219
544.956
544.721
544.509
544.313
544.131
543.961
543.8
543.647
543.501
543.362
543.227
543.097
542.97
542.845
542.723
542.602
542.483
542.365
542.247
542.13
542.013
541.896
541.779
541.662
541.545
541.428
541.311
541.194
541.077
540.96
540.843
540.726
540.609
552.36
551.987
551.635
551.316
551.037
550.798
550.596
550.427
550.284
550.163
550.059
549.968
549.889
549.82
549.76
549.708
549.663
549.624
549.59
549.56
549.534
549.51
549.489
549.47
549.454
549.441
549.431
549.422
549.413
549.401
549.387
549.37
549.348
549.322
549.292
549.259
549.223
549.184
549.144
549.104
549.062
549.019
548.977
548.934
548.893
548.853
548.815
548.781
548.75
548.726
548.708
548.698
548.698
548.708
548.729
548.761
548.802
548.852
548.908
548.969
549.031
549.095
549.159
549.224
549.289
549.354
549.413
549.466
549.509
549.544
549.566
549.567
549.541
549.484
549.393
549.262
549.087
548.86
548.574
548.228
547.821
547.361
546.861
546.346
545.867
545.502
545.206
544.95
544.72
544.509
544.313
544.13
543.958
543.796
543.643
543.496
543.356
543.221
543.09
542.963
542.839
542.717
542.596
542.477
542.359
542.242
542.125
542.009
541.892
541.776
541.659
541.543
541.426
541.31
541.193
541.076
540.959
540.842
540.725
540.608
552.359
551.984
551.631
551.311
551.032
550.793
550.591
550.42
550.275
550.15
550.041
549.944
549.857
549.779
549.71
549.649
549.595
549.547
549.505
549.466
549.431
549.399
549.369
549.342
549.318
549.299
549.284
549.271
549.258
549.244
549.226
549.203
549.176
549.143
549.106
549.066
549.022
548.976
548.929
548.881
548.834
548.787
548.741
548.697
548.655
548.616
548.582
548.551
548.527
548.511
548.504
548.508
548.525
548.555
548.6
548.659
548.73
548.812
548.903
548.998
549.097
549.2
549.304
549.412
549.523
549.633
549.736
549.83
549.912
549.982
550.039
550.068
550.057
550.006
549.912
549.772
549.579
549.325
549.003
548.607
548.138
547.597
546.992
546.345
545.725
545.403
545.147
544.915
544.698
544.494
544.302
544.121
543.95
543.788
543.635
543.488
543.348
543.213
543.082
542.955
542.831
542.71
542.59
542.471
542.354
542.237
542.121
542.004
541.888
541.772
541.656
541.54
541.424
541.308
541.191
541.075
540.958
540.842
540.725
540.608
552.359
551.986
551.637
551.321
551.045
550.808
550.606
550.434
550.285
550.155
550.038
549.932
549.836
549.748
549.668
549.596
549.531
549.472
549.419
549.37
549.324
549.281
549.241
549.204
549.171
549.143
549.122
549.104
549.087
549.068
549.045
549.016
548.981
548.941
548.895
548.845
548.792
548.738
548.683
548.628
548.575
548.524
548.476
548.432
548.391
548.355
548.325
548.303
548.288
548.284
548.292
548.315
548.356
548.414
548.491
548.585
548.696
548.82
548.953
549.094
549.24
549.391
549.546
549.705
549.869
550.03
550.181
550.316
550.438
550.545
550.638
550.695
550.694
550.634
550.526
550.365
550.144
549.851
549.481
549.026
548.483
547.851
547.123
546.279
545.268
545.22
545.055
544.859
544.66
544.467
544.281
544.104
543.935
543.775
543.623
543.477
543.337
543.203
543.073
542.947
542.823
542.702
542.583
542.465
542.348
542.232
542.116
542
541.885
541.769
541.654
541.538
541.422
541.306
541.19
541.074
540.957
540.841
540.725
540.608
552.367
552.005
551.662
551.349
551.075
550.839
550.635
550.459
550.305
550.167
550.042
549.926
549.819
549.719
549.627
549.542
549.464
549.394
549.329
549.267
549.21
549.155
549.104
549.057
549.014
548.978
548.949
548.925
548.902
548.877
548.847
548.81
548.766
548.715
548.658
548.597
548.533
548.469
548.405
548.343
548.285
548.232
548.183
548.139
548.102
548.072
548.05
548.038
548.037
548.049
548.077
548.126
548.197
548.291
548.409
548.548
548.707
548.883
549.071
549.269
549.473
549.683
549.896
550.118
550.343
550.561
550.758
550.932
551.091
551.233
551.363
551.453
551.453
551.369
551.235
551.036
550.773
550.426
549.995
549.464
548.843
548.127
547.292
546.325
545.247
545.14
544.98
544.799
544.613
544.429
544.251
544.079
543.915
543.757
543.607
543.463
543.325
543.192
543.063
542.937
542.815
542.694
542.576
542.459
542.342
542.227
542.111
541.996
541.881
541.766
541.651
541.535
541.42
541.304
541.188
541.073
540.957
540.84
540.724
540.608
552.368
552.013
551.68
551.379
551.112
550.878
550.671
550.489
550.326
550.177
550.04
549.912
549.793
549.679
549.574
549.475
549.384
549.301
549.226
549.153
549.085
549.02
548.958
548.902
548.85
548.808
548.772
548.742
548.713
548.681
548.64
548.592
548.536
548.47
548.398
548.323
548.246
548.171
548.098
548.029
547.967
547.912
547.864
547.825
547.794
547.772
547.762
547.763
547.779
547.812
547.865
547.945
548.053
548.191
548.358
548.552
548.771
549.009
549.264
549.531
549.805
550.082
550.364
550.656
550.952
551.234
551.473
551.675
551.864
552.042
552.206
552.335
552.341
552.215
552.045
551.776
551.454
551.027
550.517
549.881
549.167
548.388
547.444
546.335
545.263
545.082
544.91
544.735
544.559
544.384
544.214
544.048
543.888
543.735
543.588
543.446
543.31
543.178
543.051
542.927
542.805
542.686
542.568
542.452
542.336
542.221
542.107
541.992
541.877
541.763
541.648
541.533
541.418
541.303
541.187
541.071
540.956
540.84
540.724
540.608
552.374
552.032
551.712
551.419
551.155
550.919
550.706
550.513
550.335
550.171
550.018
549.876
549.742
549.614
549.495
549.381
549.277
549.183
549.098
549.017
548.941
548.869
548.801
548.74
548.685
548.641
548.602
548.569
548.533
548.492
548.439
548.374
548.299
548.214
548.122
548.028
547.936
547.848
547.766
547.692
547.627
547.572
547.528
547.494
547.471
547.461
547.463
547.482
547.518
547.574
547.656
547.773
547.925
548.114
548.339
548.598
548.886
549.198
549.53
549.88
550.236
550.587
550.945
551.316
551.69
552.045
552.322
552.532
552.745
552.96
553.159
553.316
553.376
553.197
552.942
552.561
552.14
551.608
550.976
550.186
549.336
548.583
547.441
545.96
544.933
544.94
544.819
544.662
544.497
544.332
544.169
544.011
543.857
543.708
543.565
543.426
543.293
543.164
543.038
542.916
542.796
542.677
542.561
542.445
542.331
542.216
542.102
541.988
541.874
541.76
541.645
541.531
541.416
541.301
541.186
541.07
540.955
540.839
540.724
540.608
552.383
552.055
551.743
551.453
551.187
550.944
550.72
550.509
550.31
550.123
549.952
549.794
549.647
549.506
549.374
549.246
549.128
549.024
548.934
548.851
548.77
548.697
548.63
548.573
548.525
548.487
548.454
548.422
548.384
548.334
548.265
548.178
548.076
547.961
547.842
547.725
547.613
547.512
547.421
547.341
547.274
547.221
547.181
547.155
547.142
547.142
547.159
547.195
547.253
547.336
547.451
547.608
547.811
548.06
548.352
548.684
549.05
549.447
549.867
550.311
550.768
551.201
551.63
552.08
552.525
552.975
553.3
553.483
553.703
553.96
554.187
554.335
554.597
554.361
553.85
553.253
552.688
552.195
551.373
550.136
549.55
548.77
547.364
545.592
545.06
544.79
544.723
544.583
544.429
544.273
544.119
543.968
543.821
543.677
543.539
543.404
543.274
543.148
543.024
542.904
542.785
542.669
542.553
542.439
542.325
542.211
542.098
541.984
541.871
541.757
541.643
541.529
541.414
541.299
541.184
541.069
540.954
540.839
540.723
540.608
552.383
552.056
551.742
551.449
551.177
550.923
550.681
550.444
550.213
549.997
549.807
549.639
549.485
549.336
549.194
549.057
548.927
548.815
548.725
548.648
548.572
548.505
548.45
548.41
548.382
548.364
548.349
548.328
548.295
548.24
548.154
548.038
547.898
547.743
547.584
547.434
547.297
547.18
547.079
546.993
546.923
546.87
546.833
546.813
546.808
546.819
546.849
546.9
546.98
547.093
547.244
547.448
547.711
548.032
548.404
548.813
549.256
549.746
550.262
550.803
551.377
551.916
552.387
552.884
553.323
553.906
554.373
554.718
554.798
555.194
555.291
555.133
555.849
555.698
554.504
553.722
553.384
553.485
551.901
549.796
549.936
549.285
547.804
546.09
545.2
544.774
544.652
544.504
544.356
544.209
544.064
543.921
543.781
543.644
543.51
543.381
543.254
543.131
543.01
542.892
542.775
542.66
542.546
542.432
542.319
542.206
542.094
541.981
541.867
541.754
541.64
541.527
541.412
541.298
541.183
541.068
540.953
540.838
540.723
540.608
552.37
552.018
551.686
551.376
551.085
550.809
550.539
550.269
549.999
549.753
549.551
549.384
549.233
549.083
548.942
548.805
548.672
548.557
548.472
548.413
548.353
548.307
548.28
548.274
548.288
548.308
548.321
548.32
548.298
548.244
548.142
547.993
547.811
547.607
547.394
547.196
547.025
546.884
546.767
546.669
546.589
546.53
546.491
546.473
546.47
546.487
546.525
546.587
546.684
546.827
547.015
547.276
547.618
548.041
548.518
549.009
549.475
550.043
550.671
551.284
551.938
552.645
553.224
553.658
554.185
554.645
555.313
555.951
555.826
556.328
556.37
556.345
557.587
556.354
554.407
554.172
553.672
553.358
552.442
551.103
550.389
549.453
548.092
546.695
545.624
544.719
544.552
544.411
544.275
544.139
544.003
543.869
543.737
543.608
543.48
543.356
543.234
543.114
542.996
542.88
542.766
542.652
542.539
542.426
542.314
542.202
542.09
541.977
541.865
541.752
541.638
541.525
541.411
541.297
541.182
541.068
540.953
540.838
540.723
540.608
552.329
551.905
551.516
551.163
550.836
550.526
550.223
549.915
549.611
549.345
549.15
549.005
548.872
548.735
548.611
548.49
548.371
548.264
548.191
548.159
548.125
548.122
548.142
548.197
548.284
548.366
548.419
548.44
548.439
548.394
548.273
548.08
547.855
547.599
547.321
547.059
546.84
546.659
546.512
546.387
546.287
546.212
546.159
546.133
546.122
546.134
546.159
546.211
546.321
546.486
546.72
547.052
547.508
548.07
548.706
549.317
549.472
549.781
550.563
551.483
552.144
552.952
553.895
553.992
554.31
555.142
555.99
556.779
556.461
556.869
556.485
556.282
557.179
556.472
555.283
554.69
554.057
553.363
552.551
551.576
550.633
549.626
548.586
547.596
546.514
545.047
544.433
544.311
544.189
544.063
543.939
543.815
543.693
543.57
543.45
543.331
543.213
543.097
542.983
542.869
542.756
542.644
542.533
542.421
542.31
542.198
542.086
541.974
541.862
541.75
541.637
541.523
541.41
541.296
541.181
541.067
540.952
540.837
540.722
540.607
552.236
551.649
551.142
550.709
550.327
549.976
549.643
549.3
548.975
548.725
548.575
548.486
548.385
548.276
548.194
548.113
548.027
547.944
547.884
547.865
547.869
547.92
548.016
548.153
548.334
548.514
548.628
548.668
548.671
548.647
548.552
548.365
548.157
547.935
547.664
547.399
547.123
546.836
546.59
546.375
546.192
546.067
546.016
545.965
545.892
545.876
545.764
545.699
545.83
546.053
546.421
546.751
547.364
547.666
548.405
549.776
549.65
549.125
549.967
551.138
551.659
552.862
554.123
553.733
553.798
555.174
556.008
556.619
556.358
556.564
556.531
556.298
556.43
556.135
555.482
554.911
554.29
553.504
552.688
551.792
550.821
549.789
548.713
547.649
546.545
545.228
544.393
544.233
544.096
543.982
543.871
543.76
543.648
543.533
543.419
543.306
543.194
543.082
542.97
542.859
542.748
542.638
542.527
542.416
542.306
542.195
542.084
541.972
541.86
541.748
541.635
541.522
541.408
541.295
541.181
541.066
540.952
540.837
540.722
540.607
552.041
551.136
550.425
549.869
549.423
549.04
548.708
548.357
548.048
547.867
547.805
547.8
547.749
547.678
547.629
547.595
547.568
547.553
547.53
547.553
547.635
547.77
547.976
548.199
548.457
548.727
548.898
548.98
549.01
549.048
549.031
548.831
548.632
548.453
548.169
547.942
547.613
547.251
546.936
546.583
546.383
546.366
546.469
546.332
546.033
546.064
545.713
545.405
545.727
545.678
546.112
546.457
547.043
547.286
548.01
549.202
549.167
548.927
549.747
550.567
551.088
552.251
553.312
553.515
553.84
554.815
555.592
556.075
556.182
556.343
556.42
556.309
556.163
555.898
555.518
555.048
554.451
553.664
552.773
551.848
550.844
549.711
548.543
547.369
546.374
545.526
544.896
544.241
544.022
543.902
543.802
543.706
543.605
543.498
543.389
543.283
543.176
543.068
542.96
542.851
542.742
542.632
542.523
542.413
542.303
542.192
542.081
541.97
541.858
541.746
541.634
541.521
541.408
541.294
541.18
541.066
540.951
540.837
540.722
540.607
551.667
550.208
549.209
548.484
547.973
547.598
547.345
547.033
546.79
546.747
546.787
546.824
546.829
546.819
546.876
546.96
547.039
547.085
547.144
547.292
547.524
547.752
548.179
548.464
548.66
548.893
549.059
549.239
549.423
549.707
549.821
549.464
549.458
549.651
549.287
549.186
548.599
548.201
547.686
546.66
546.724
547.004
547.439
547.361
546.323
546.467
546.019
545.775
545.866
545.528
545.987
546.371
546.753
547.09
547.681
548.32
548.575
548.933
549.624
550.303
550.902
551.678
552.502
553.146
553.747
554.48
555.082
555.504
555.852
556.112
556.237
556.229
556.116
555.915
555.601
555.074
554.387
553.59
552.739
551.768
550.565
549.381
548.34
547.298
546.354
545.617
545.066
544.415
544.038
543.864
543.737
543.658
543.57
543.464
543.36
543.262
543.161
543.058
542.952
542.845
542.737
542.628
542.52
542.41
542.301
542.19
542.08
541.969
541.857
541.745
541.633
541.52
541.407
541.293
541.18
541.065
540.951
540.837