/*--------------------------------*- C++ -*----------------------------------*\
  =========                 |
  \\      /  F ield         | OpenFOAM: The Open Source CFD Toolbox
   \\    /   O peration     | Website:  https://openfoam.org
    \\  /    A nd           | Version:  6
     \\/     M anipulation  |
\*---------------------------------------------------------------------------*/
FoamFile
{
    version     2.0;
    format      ascii;
    class       volVectorField;
    location    "4300";
    object      U;
}
// * * * * * * * * * * * * * * * * * * * * * * * * * * * * * * * * * * * * * //

dimensions      [0 1 -1 0 0 0 0];

internalField   nonuniform List<vector> 
4800
(
(-6.90958e-05 0 -0.000245676)
(0.000424957 0 -0.000554135)
(0.000827376 0 -0.000452923)
(0.00119213 0 -0.000354356)
(0.00151033 0 -0.000376456)
(0.00178119 0 -0.000306005)
(0.00196254 0 -0.000266121)
(0.00209622 0 -0.000385662)
(0.00223482 0 -0.000153942)
(0.00231207 0 -0.000169494)
(0.00238805 0 -0.000260814)
(0.00239323 0 -0.000211809)
(0.00240628 0 -0.000175828)
(0.00246821 0 -0.00016575)
(0.00258104 0 -0.000146769)
(0.00265248 0 -0.000259437)
(0.00269844 0 -0.00017318)
(0.00275238 0 -0.00025465)
(0.00276155 0 -0.000135115)
(0.00276791 0 -0.000121654)
(0.00281521 0 -0.000108428)
(0.00289303 0 -0.000111236)
(0.00296653 0 -0.000127631)
(0.00302849 0 -0.000118993)
(0.00309323 0 -0.000138233)
(0.00317016 0 -7.21748e-05)
(0.0032222 0 -9.1518e-05)
(0.00325403 0 -9.4886e-05)
(0.00329462 0 -0.000119357)
(0.00335174 0 -5.6912e-05)
(0.00338201 0 -9.15287e-05)
(0.00338849 0 -0.000121112)
(0.00340644 0 -0.000118489)
(0.0034321 0 -0.000148638)
(0.00345829 0 -0.000196607)
(0.00350243 0 -0.000170175)
(0.0035272 0 -8.93212e-05)
(0.00352353 0 -7.62517e-05)
(0.00351535 0 -4.66129e-05)
(0.0035011 0 -4.45128e-05)
(0.00347765 0 -2.01195e-05)
(0.00344596 0 -9.79723e-06)
(0.00342299 0 -3.78312e-06)
(0.00341259 0 -3.10554e-05)
(0.00340249 0 -1.44706e-05)
(0.00338509 0 -5.32779e-05)
(0.00335968 0 -2.18746e-05)
(0.00331937 0 -3.67514e-05)
(0.0032609 0 -8.13093e-05)
(0.00318554 0 7.57134e-05)
(0.00309231 0 -7.41404e-05)
(0.00298427 0 -1.74132e-05)
(0.00286927 0 0.000132706)
(0.00277093 0 -0.000150033)
(0.0026698 0 6.83424e-05)
(0.00255263 0 6.77491e-05)
(0.00246329 0 -0.000156672)
(0.00236489 0 0.000149764)
(0.00222459 0 4.4431e-05)
(0.00206126 0 -0.000158007)
(0.00181701 0 0.000238469)
(0.00143756 0 -0.000150613)
(0.000981486 0 -5.22483e-05)
(0.000555701 0 0.000175356)
(0.000308508 0 5.5844e-05)
(5.81563e-05 0 5.23585e-05)
(-0.000187695 0 2.07761e-05)
(-0.00035465 0 9.3635e-05)
(-0.000532017 0 -6.62945e-05)
(-0.000612687 0 -9.84472e-05)
(-0.000653598 0 -9.5836e-05)
(-0.000663534 0 -9.34228e-05)
(-0.00063429 0 -4.92588e-05)
(-0.000586758 0 -2.24148e-06)
(-0.000542711 0 -3.63646e-05)
(-0.000524964 0 -1.27945e-05)
(-0.000517478 0 -2.05332e-05)
(-0.00051916 0 -3.32913e-05)
(-0.000523945 0 -4.35232e-05)
(-0.000458093 0 -8.71524e-05)
(-0.000375772 0 -9.7113e-05)
(-0.00031841 0 -9.16355e-05)
(-0.000268539 0 -4.98686e-05)
(-0.000150636 0 -0.000115178)
(-1.72899e-07 0 -0.000101578)
(3.25183e-10 0 2.45122e-09)
(9.25296e-13 0 6.10236e-14)
(1.80657e-12 0 4.43217e-14)
(1.72513e-12 0 3.71518e-14)
(1.65304e-12 0 3.48775e-14)
(1.58297e-12 0 3.49957e-14)
(1.51201e-12 0 3.58299e-14)
(1.43974e-12 0 3.64258e-14)
(1.3671e-12 0 3.6334e-14)
(1.29559e-12 0 3.54332e-14)
(1.22682e-12 0 3.3791e-14)
(1.16209e-12 0 3.15761e-14)
(1.10222e-12 0 2.9009e-14)
(1.04754e-12 0 2.63286e-14)
(9.97972e-13 0 2.37582e-14)
(9.53095e-13 0 2.14813e-14)
(9.12226e-13 0 1.96287e-14)
(8.745e-13 0 1.8279e-14)
(8.38944e-13 0 1.74659e-14)
(8.04545e-13 0 1.71858e-14)
(7.70302e-13 0 1.74031e-14)
(7.35272e-13 0 1.80572e-14)
(6.98607e-13 0 1.90724e-14)
(6.59603e-13 0 2.03682e-14)
(6.17732e-13 0 2.18658e-14)
(5.72646e-13 0 2.34926e-14)
(5.24164e-13 0 2.5182e-14)
(4.7226e-13 0 2.68693e-14)
(4.17047e-13 0 2.84867e-14)
(3.58745e-13 0 2.99684e-14)
(2.97657e-13 0 3.12594e-14)
(2.34157e-13 0 3.23218e-14)
(1.68691e-13 0 3.31307e-14)
(1.01778e-13 0 3.36667e-14)
(3.40152e-14 0 3.39095e-14)
(-0.00098799 0 0.000452811)
(0.000875425 0 -0.000654471)
(0.00100708 0 -0.000553513)
(0.00123218 0 -0.000468135)
(0.00147362 0 -0.000354254)
(0.00168036 0 -0.000285407)
(0.00183243 0 -0.000325131)
(0.00200432 0 2.00723e-05)
(0.00207916 0 -0.000152972)
(0.00214535 0 -0.000145816)
(0.00225398 0 -3.64143e-05)
(0.00232952 0 -5.26289e-05)
(0.00232813 0 -5.48266e-05)
(0.00235307 0 -3.67199e-05)
(0.00243621 0 5.07515e-05)
(0.00253292 0 -6.38885e-05)
(0.00258745 0 -4.8035e-05)
(0.00263624 0 -9.77577e-05)
(0.00267045 0 -0.000120665)
(0.00266237 0 -8.15493e-05)
(0.00267489 0 -5.00284e-05)
(0.00271402 0 -5.44517e-05)
(0.00277962 0 -6.29199e-05)
(0.00285619 0 -9.59383e-05)
(0.00292613 0 -4.18437e-05)
(0.00298258 0 -7.54443e-05)
(0.00302921 0 -0.000110749)
(0.00307091 0 -9.11302e-05)
(0.00310702 0 -3.22681e-05)
(0.00313504 0 -3.06547e-05)
(0.00315966 0 -4.76288e-05)
(0.00319095 0 -3.47812e-05)
(0.00324235 0 -2.31461e-05)
(0.00331807 0 3.52838e-05)
(0.00333775 0 8.03213e-05)
(0.00332861 0 8.33652e-05)
(0.00332542 0 6.91116e-05)
(0.00332305 0 6.34272e-05)
(0.00331508 0 5.7703e-05)
(0.00330418 0 6.91534e-05)
(0.00328696 0 7.21688e-05)
(0.00326273 0 5.03683e-05)
(0.00324209 0 5.28454e-05)
(0.00322299 0 4.57137e-05)
(0.00320174 0 5.31674e-05)
(0.00318264 0 6.79923e-05)
(0.00316637 0 8.99677e-05)
(0.00314833 0 0.000109768)
(0.00311238 0 0.000178739)
(0.0030579 0 7.51091e-05)
(0.00299185 0 0.000225785)
(0.00291442 0 0.000193038)
(0.00282886 0 7.02605e-05)
(0.00274945 0 0.000287378)
(0.00265774 0 0.000137321)
(0.00255166 0 5.07471e-05)
(0.00248522 0 0.00026279)
(0.00239329 0 0.000164085)
(0.00222742 0 0.000205094)
(0.00209003 0 0.000346726)
(0.00196568 0 0.000220654)
(0.00175378 0 0.000304629)
(0.00149711 0 0.00045637)
(0.00106014 0 0.000649187)
(0.00078892 0 0.000390989)
(0.000270595 0 0.000365172)
(0.00022206 0 0.000255695)
(4.46755e-05 0 0.000220435)
(-0.00010959 0 0.000192306)
(-0.000245436 0 8.08224e-05)
(-0.000328543 0 6.63218e-05)
(-0.000347227 0 -7.87334e-07)
(-0.000355953 0 -3.72122e-05)
(-0.000398549 0 -2.65485e-05)
(-0.000429633 0 -2.37627e-05)
(-0.000467298 0 -8.33817e-06)
(-0.000460299 0 7.36231e-06)
(-0.00045687 0 2.70124e-06)
(-0.000460047 0 -6.55635e-06)
(-0.000429767 0 -8.61951e-05)
(-0.000370522 0 -0.000122527)
(-0.000318356 0 -0.000111515)
(-0.000285544 0 -6.65373e-05)
(-0.00016974 0 -0.000189182)
(4.31002e-05 0 -0.000223482)
(1.00575e-09 0 1.69704e-08)
(9.0423e-13 0 1.47057e-13)
(1.78271e-12 0 1.23169e-13)
(1.71569e-12 0 1.06487e-13)
(1.65088e-12 0 1.02356e-13)
(1.58392e-12 0 1.04458e-13)
(1.51344e-12 0 1.0798e-13)
(1.44024e-12 0 1.10287e-13)
(1.3661e-12 0 1.10202e-13)
(1.29305e-12 0 1.07454e-13)
(1.22296e-12 0 1.02317e-13)
(1.15731e-12 0 9.53769e-14)
(1.09697e-12 0 8.7371e-14)
(1.04229e-12 0 7.90609e-14)
(9.93125e-13 0 7.11375e-14)
(9.48966e-13 0 6.41573e-14)
(9.09024e-13 0 5.85146e-14)
(8.72337e-13 0 5.44393e-14)
(8.37851e-13 0 5.20137e-14)
(8.04482e-13 0 5.12009e-14)
(7.71174e-13 0 5.18764e-14)
(7.36942e-13 0 5.38592e-14)
(7.00918e-13 0 5.69372e-14)
(6.62396e-13 0 6.08849e-14)
(6.20857e-13 0 6.54737e-14)
(5.75963e-13 0 7.04746e-14)
(5.27541e-13 0 7.56589e-14)
(4.75565e-13 0 8.07984e-14)
(4.20146e-13 0 8.5677e-14)
(3.61517e-13 0 9.01104e-14)
(3.00011e-13 0 9.39611e-14)
(2.36029e-13 0 9.71346e-14)
(1.70036e-13 0 9.95625e-14)
(1.02557e-13 0 1.01192e-13)
(3.42579e-14 0 1.01991e-13)
(0.000625016 0 -0.00104133)
(0.000243764 0 -0.0011833)
(0.000475869 0 -0.00116221)
(0.00105531 0 -0.000762173)
(0.00121037 0 -0.000673162)
(0.00142214 0 -0.000478323)
(0.00154262 0 -0.000498715)
(0.00170026 0 -0.000241617)
(0.00182196 0 -0.000226987)
(0.00193472 0 -0.000331166)
(0.00202614 0 -0.00016227)
(0.00205575 0 -0.000108794)
(0.00209475 0 -0.000194075)
(0.00217843 0 -0.00023283)
(0.00226518 0 -0.000147877)
(0.00228771 0 -0.000167726)
(0.00230779 0 -0.00018091)
(0.00235696 0 -9.95403e-05)
(0.00243303 0 -7.13259e-06)
(0.00246626 0 -0.000174208)
(0.0024978 0 -0.000155853)
(0.00254226 0 -0.000169827)
(0.0026074 0 -0.000150753)
(0.00267683 0 -0.000114523)
(0.00271732 0 -0.000164221)
(0.00276498 0 -0.000124788)
(0.00282106 0 -0.000132415)
(0.00283938 0 -0.000111251)
(0.00285282 0 -8.69136e-05)
(0.00288211 0 -7.00242e-05)
(0.0029253 0 -5.98289e-05)
(0.00295117 0 -9.29789e-05)
(0.00294932 0 -9.60633e-05)
(0.00294589 0 -0.000101638)
(0.00294563 0 -0.000118608)
(0.00295455 0 -0.00013158)
(0.00296466 0 -5.28474e-05)
(0.00296764 0 -1.69324e-05)
(0.00297599 0 -1.37959e-05)
(0.00299306 0 7.79794e-06)
(0.00299435 0 1.93937e-05)
(0.00299178 0 2.75169e-05)
(0.00298407 0 2.33828e-05)
(0.00296869 0 1.6515e-05)
(0.00294168 0 2.57493e-07)
(0.00290853 0 2.00315e-06)
(0.00288264 0 1.82215e-05)
(0.00285513 0 3.13021e-05)
(0.00282979 0 0.000107838)
(0.00280388 0 9.97779e-05)
(0.00276986 0 0.000199791)
(0.00273164 0 0.000205809)
(0.00268223 0 0.00017763)
(0.00262928 0 0.000231637)
(0.00256247 0 0.000229861)
(0.00248369 0 0.000108722)
(0.0024182 0 0.000258951)
(0.0023326 0 0.000305942)
(0.0022092 0 0.000130981)
(0.00206461 0 0.000416826)
(0.00199479 0 0.000529419)
(0.0018597 0 0.000729893)
(0.00172246 0 0.000816476)
(0.00142223 0 0.000953303)
(0.00104991 0 0.000908838)
(0.000556335 0 0.000770112)
(0.000434677 0 0.000405734)
(0.000142565 0 0.000399278)
(6.03574e-05 0 0.000317276)
(8.24223e-05 0 0.000175063)
(8.57293e-06 0 8.45383e-05)
(-0.000160317 0 9.59556e-05)
(-0.000192961 0 5.10684e-05)
(-0.000262241 0 5.59026e-05)
(-0.000271629 0 1.79673e-05)
(-0.000292999 0 2.69972e-06)
(-0.000320233 0 -2.40311e-05)
(-0.000345018 0 -3.12171e-05)
(-0.000345519 0 -6.54782e-05)
(-0.000347218 0 -8.49986e-05)
(-0.000321531 0 -0.000113773)
(-0.000271563 0 -0.000159203)
(-0.000187909 0 -0.000234706)
(-7.63418e-05 0 -0.000291167)
(-8.82203e-05 0 -0.000285142)
(1.35325e-07 0 4.2774e-05)
(8.66714e-13 0 3.40889e-13)
(1.76602e-12 0 1.94768e-13)
(1.70432e-12 0 1.6359e-13)
(1.65101e-12 0 1.64158e-13)
(1.5886e-12 0 1.73119e-13)
(1.51784e-12 0 1.81999e-13)
(1.44196e-12 0 1.87199e-13)
(1.36426e-12 0 1.87366e-13)
(1.28771e-12 0 1.82445e-13)
(1.21474e-12 0 1.73165e-13)
(1.14714e-12 0 1.60711e-13)
(1.0859e-12 0 1.46459e-13)
(1.03131e-12 0 1.31775e-13)
(9.83068e-13 0 1.17868e-13)
(9.40472e-13 0 1.05699e-13)
(9.02508e-13 0 9.59358e-14)
(8.67999e-13 0 8.89508e-14)
(8.35706e-13 0 8.48531e-14)
(8.04407e-13 0 8.3549e-14)
(7.72961e-13 0 8.48123e-14)
(7.40333e-13 0 8.83384e-14)
(7.05633e-13 0 9.37728e-14)
(6.6814e-13 0 1.00723e-13)
(6.27322e-13 0 1.08765e-13)
(5.82832e-13 0 1.17463e-13)
(5.34488e-13 0 1.26386e-13)
(4.82278e-13 0 1.35137e-13)
(4.26359e-13 0 1.4337e-13)
(3.67029e-13 0 1.50816e-13)
(3.04681e-13 0 1.57279e-13)
(2.39759e-13 0 1.62612e-13)
(1.72749e-13 0 1.66705e-13)
(1.04206e-13 0 1.69477e-13)
(3.48135e-14 0 1.70878e-13)
(-0.000611012 0 -0.00119046)
(0.000632262 0 -0.00122421)
(0.000978751 0 -0.000959212)
(0.000887874 0 -0.000987672)
(0.00108331 0 -0.000791821)
(0.00119186 0 -0.000712706)
(0.00137523 0 -0.000477896)
(0.00145443 0 -0.00053005)
(0.00161915 0 -0.000353473)
(0.00173725 0 -0.00023852)
(0.00178402 0 -0.000193468)
(0.0018077 0 -0.000228622)
(0.00187705 0 -0.000214069)
(0.00196735 0 -0.00016258)
(0.00197663 0 -0.000169281)
(0.00198927 0 -0.000177126)
(0.00203442 0 -0.000177649)
(0.00209231 0 -0.000104524)
(0.0021492 0 -6.94027e-05)
(0.0022083 0 -0.000136332)
(0.00226334 0 -0.000156071)
(0.00231328 0 -0.000152312)
(0.00234964 0 -0.000205429)
(0.00239074 0 -0.000124343)
(0.00241817 0 -0.000181469)
(0.0024565 0 -0.000151541)
(0.00250882 0 -4.85956e-05)
(0.00252904 0 -0.000257479)
(0.00255091 0 -0.00016728)
(0.00256341 0 -0.000129454)
(0.00258801 0 -8.03447e-05)
(0.00262273 0 -8.42953e-05)
(0.0026484 0 -0.000124655)
(0.00265177 0 -3.66819e-05)
(0.00265231 0 -5.64403e-06)
(0.00265135 0 9.52319e-06)
(0.00264696 0 1.1586e-05)
(0.00264715 0 8.75964e-06)
(0.0026558 0 5.37691e-06)
(0.00266516 0 4.79254e-05)
(0.00266344 0 5.61691e-05)
(0.00265832 0 7.50496e-05)
(0.0026479 0 7.11305e-05)
(0.00263809 0 0.000101419)
(0.00262583 0 0.00010282)
(0.00259893 0 9.40892e-05)
(0.00256161 0 0.000157866)
(0.00252796 0 0.000114393)
(0.00248776 0 0.000181995)
(0.00246695 0 0.000182148)
(0.00245144 0 0.000220377)
(0.00242823 0 0.000279949)
(0.00241119 0 0.000164799)
(0.00237156 0 0.000332379)
(0.00233594 0 0.000312386)
(0.00229086 0 9.22275e-05)
(0.0022161 0 0.000393246)
(0.00215983 0 0.000434003)
(0.00211631 0 0.000214138)
(0.00196412 0 0.000644726)
(0.0019088 0 0.000727759)
(0.00186739 0 0.000723793)
(0.00164428 0 0.00109105)
(0.00154185 0 0.001165)
(0.00134253 0 0.00118723)
(0.00104665 0 0.00105738)
(0.000608813 0 0.000846106)
(0.000515391 0 0.000374018)
(0.000317392 0 0.000316612)
(8.20533e-05 0 0.000347634)
(0.000117292 0 0.000191316)
(0.000127333 0 4.10242e-05)
(8.65364e-05 0 3.93832e-05)
(-1.4825e-05 0 8.8178e-05)
(-6.11782e-05 0 7.17437e-05)
(-0.000148389 0 6.27501e-05)
(-0.000182991 0 2.3117e-05)
(-0.000220178 0 3.7525e-07)
(-0.000244193 0 -3.18538e-05)
(-0.000259802 0 -6.73524e-05)
(-0.000216653 0 -0.000169048)
(-0.000266883 0 -0.000150948)
(-0.000151974 0 -0.000295355)
(-0.00014045 0 -0.000335363)
(-4.22453e-05 0 -0.000368341)
(2.13508e-13 0 3.74754e-14)
(1.07996e-12 0 6.44358e-14)
(1.60546e-12 0 1.52191e-13)
(1.68508e-12 0 1.89614e-13)
(1.66041e-12 0 2.18318e-13)
(1.60177e-12 0 2.4261e-13)
(1.52752e-12 0 2.60384e-13)
(1.44561e-12 0 2.69732e-13)
(1.36135e-12 0 2.70102e-13)
(1.27885e-12 0 2.62189e-13)
(1.20123e-12 0 2.47546e-13)
(1.1306e-12 0 2.28202e-13)
(1.06803e-12 0 2.06337e-13)
(1.0137e-12 0 1.84035e-13)
(9.67049e-13 0 1.63097e-13)
(9.27034e-13 0 1.44929e-13)
(8.92276e-13 0 1.30487e-13)
(8.61254e-13 0 1.20287e-13)
(8.32449e-13 0 1.14458e-13)
(8.04441e-13 0 1.12836e-13)
(7.75963e-13 0 1.1506e-13)
(7.45902e-13 0 1.20648e-13)
(7.13302e-13 0 1.2903e-13)
(6.77389e-13 0 1.39568e-13)
(6.37597e-13 0 1.51581e-13)
(5.93584e-13 0 1.6439e-13)
(5.45215e-13 0 1.7737e-13)
(4.92548e-13 0 1.89984e-13)
(4.35825e-13 0 2.01797e-13)
(3.75426e-13 0 2.12464e-13)
(3.11807e-13 0 2.21719e-13)
(2.45455e-13 0 2.29349e-13)
(1.76901e-13 0 2.35197e-13)
(1.0673e-13 0 2.39155e-13)
(3.56585e-14 0 2.4114e-13)
(0.00021878 0 -0.00154538)
(0.00030806 0 -0.00149877)
(0.000586235 0 -0.0013436)
(0.00039087 0 -0.0013195)
(0.00100412 0 -0.000881804)
(0.00106453 0 -0.000728086)
(0.00107113 0 -0.00078122)
(0.00127923 0 -0.000494869)
(0.00138173 0 -0.000347916)
(0.00140803 0 -0.000352222)
(0.0014666 0 -0.000238603)
(0.00152264 0 -0.000241577)
(0.00159306 0 -0.000293004)
(0.00162455 0 -0.000267634)
(0.00163205 0 -0.000245408)
(0.00165918 0 -0.000247146)
(0.00173166 0 -0.000167334)
(0.00179781 0 -0.000154689)
(0.00184358 0 -0.000217166)
(0.00188395 0 -0.000308589)
(0.00192478 0 -0.000325531)
(0.00197011 0 -0.000247657)
(0.00200726 0 -0.00022127)
(0.00204603 0 -0.000248848)
(0.00209296 0 -0.000248957)
(0.00213481 0 -0.000223319)
(0.00217717 0 -0.000229817)
(0.00221587 0 -0.000196126)
(0.00221549 0 -0.00018212)
(0.00221913 0 -0.000162175)
(0.00223776 0 -0.000150759)
(0.00227399 0 -0.000115475)
(0.00228764 0 -9.29373e-05)
(0.00229102 0 -8.31805e-05)
(0.00230207 0 -8.42629e-05)
(0.0023178 0 -7.61219e-05)
(0.00233106 0 -2.53262e-05)
(0.00233189 0 -4.95313e-06)
(0.0023216 0 2.23647e-06)
(0.00231101 0 1.3364e-05)
(0.00231061 0 2.5512e-05)
(0.00230779 0 4.0266e-05)
(0.00229489 0 4.82727e-05)
(0.00227234 0 7.30028e-05)
(0.00226215 0 8.46254e-05)
(0.00224777 0 8.29608e-05)
(0.00221819 0 9.35289e-05)
(0.00217765 0 0.000199109)
(0.00215092 0 0.000105923)
(0.0021282 0 0.000180996)
(0.00210968 0 0.000240342)
(0.00209994 0 0.000243768)
(0.00208748 0 0.00023672)
(0.00206242 0 0.000316723)
(0.00204891 0 0.00032249)
(0.0020229 0 0.000280718)
(0.00195282 0 0.000431562)
(0.00192171 0 0.00050618)
(0.00191837 0 0.00043825)
(0.00180302 0 0.000699733)
(0.00179391 0 0.000723589)
(0.00170641 0 0.00091573)
(0.00162115 0 0.00109848)
(0.00156118 0 0.00130822)
(0.00151862 0 0.00135057)
(0.00142744 0 0.00126668)
(0.00098226 0 0.00118388)
(0.000542378 0 0.000888842)
(0.000488424 0 0.000466389)
(0.000446123 0 0.00017171)
(0.00031272 0 0.000228108)
(0.000297181 0 0.000118877)
(0.000222139 0 0.000117847)
(0.00010333 0 0.000132993)
(4.22657e-05 0 0.000112789)
(-7.8588e-05 0 0.000120811)
(-4.50452e-05 0 6.29116e-05)
(-7.39279e-05 0 6.52164e-06)
(-0.000131211 0 1.4184e-07)
(-0.000167443 0 -2.54687e-05)
(-0.000149494 0 -0.000125601)
(-0.000232212 0 -0.000195097)
(-0.000132359 0 -0.000344906)
(-0.000115967 0 -0.000403255)
(-8.40347e-08 0 -0.000444126)
(-4.55776e-09 0 8.77825e-08)
(9.91009e-13 0 6.89958e-14)
(1.89126e-12 0 1.60554e-13)
(1.77045e-12 0 2.24627e-13)
(1.704e-12 0 2.77269e-13)
(1.63066e-12 0 3.18993e-13)
(1.54496e-12 0 3.47528e-13)
(1.45168e-12 0 3.61538e-13)
(1.35672e-12 0 3.61388e-13)
(1.26515e-12 0 3.48892e-13)
(1.18076e-12 0 3.26821e-13)
(1.10593e-12 0 2.98384e-13)
(1.04173e-12 0 2.66821e-13)
(9.88066e-13 0 2.35097e-13)
(9.43963e-13 0 2.05695e-13)
(9.07862e-13 0 1.80496e-13)
(8.77865e-13 0 1.60751e-13)
(8.5197e-13 0 1.4711e-13)
(8.28254e-13 0 1.39687e-13)
(8.0501e-13 0 1.38176e-13)
(7.80773e-13 0 1.41986e-13)
(7.54303e-13 0 1.50345e-13)
(7.24553e-13 0 1.62379e-13)
(6.90691e-13 0 1.77151e-13)
(6.52144e-13 0 1.93709e-13)
(6.0862e-13 0 2.11146e-13)
(5.60082e-13 0 2.28654e-13)
(5.06705e-13 0 2.45562e-13)
(4.48839e-13 0 2.61328e-13)
(3.86951e-13 0 2.75521e-13)
(3.21566e-13 0 2.87795e-13)
(2.53237e-13 0 2.9788e-13)
(1.82554e-13 0 3.05583e-13)
(1.10149e-13 0 3.10779e-13)
(3.67983e-14 0 3.1338e-13)
(1.7212e-05 0 -0.00174823)
(0.00026853 0 -0.00161563)
(0.000532095 0 -0.0014231)
(0.000250413 0 -0.00139483)
(0.0008677 0 -0.00102683)
(0.000861225 0 -0.000883089)
(0.000894889 0 -0.000723571)
(0.00098121 0 -0.000517292)
(0.00103039 0 -0.000448232)
(0.00108323 0 -0.000351345)
(0.00112506 0 -0.000307542)
(0.00118075 0 -0.000317265)
(0.00127074 0 -0.000252635)
(0.00128218 0 -0.0002449)
(0.00129005 0 -0.00024393)
(0.00132747 0 -0.000235565)
(0.00137665 0 -0.000277718)
(0.00142596 0 -0.000293875)
(0.00148449 0 -0.000277162)
(0.00154916 0 -0.000243014)
(0.00158347 0 -0.00024021)
(0.00160042 0 -0.000260642)
(0.0016318 0 -0.00027879)
(0.00169161 0 -0.000241804)
(0.00174991 0 -0.000219598)
(0.00179482 0 -0.000214897)
(0.00183466 0 -0.000164577)
(0.00185009 0 -0.000194412)
(0.00186513 0 -0.000185456)
(0.00188754 0 -0.000158007)
(0.00192588 0 -0.000122514)
(0.00193576 0 -9.32835e-05)
(0.00193597 0 -9.76975e-05)
(0.00195536 0 -9.32118e-05)
(0.00199206 0 -4.88997e-05)
(0.00199374 0 -2.97899e-05)
(0.00199718 0 -2.05746e-05)
(0.00200676 0 1.17114e-05)
(0.00199655 0 9.19465e-06)
(0.00197562 0 5.28318e-05)
(0.00197735 0 6.79938e-05)
(0.00197498 0 7.92622e-05)
(0.00196118 0 8.64892e-05)
(0.00192899 0 6.12849e-05)
(0.00190555 0 0.000129772)
(0.00189561 0 0.000158503)
(0.00187155 0 0.000166861)
(0.00183884 0 0.000176699)
(0.00181625 0 0.000204531)
(0.00180241 0 0.000255048)
(0.00179788 0 0.000267879)
(0.00180052 0 0.000274866)
(0.00179576 0 0.000278484)
(0.00178068 0 0.000346458)
(0.00178105 0 0.000359)
(0.00177458 0 0.000316086)
(0.00171924 0 0.000458305)
(0.00171217 0 0.000507243)
(0.00170458 0 0.000488345)
(0.00158027 0 0.000753459)
(0.0016092 0 0.00074955)
(0.0016093 0 0.000884756)
(0.00156913 0 0.00109736)
(0.00157703 0 0.00126436)
(0.00146048 0 0.00148453)
(0.00140718 0 0.00150632)
(0.00139578 0 0.00125943)
(0.00112201 0 0.000994847)
(0.000658317 0 0.000813174)
(0.000567591 0 0.000441791)
(0.000510696 0 0.000277487)
(0.000372344 0 0.00026652)
(0.000313936 0 0.000228248)
(2.5303e-05 0 0.000324331)
(0.000130037 0 0.000209577)
(2.30748e-05 0 0.00016724)
(4.17129e-05 0 0.000120632)
(4.97694e-05 0 3.43101e-05)
(-0.000131186 0 1.63282e-05)
(-0.000104365 0 2.56237e-05)
(-0.00013236 0 -7.71055e-05)
(-0.000203177 0 -0.000208892)
(-0.000126502 0 -0.000370658)
(-7.71591e-05 0 -0.000465195)
(1.51327e-05 0 -0.000517795)
(1.59227e-08 0 1.24324e-08)
(8.50275e-13 0 1.73938e-13)
(1.76113e-12 0 1.9644e-13)
(1.80179e-12 0 2.70864e-13)
(1.75478e-12 0 3.46957e-13)
(1.67202e-12 0 4.08406e-13)
(1.57007e-12 0 4.48998e-13)
(1.45947e-12 0 4.67276e-13)
(1.3487e-12 0 4.64763e-13)
(1.24428e-12 0 4.44905e-13)
(1.15072e-12 0 4.12197e-13)
(1.0706e-12 0 3.71454e-13)
(1.00475e-12 0 3.27289e-13)
(9.52571e-13 0 2.8375e-13)
(9.12448e-13 0 2.44094e-13)
(8.82089e-13 0 2.10695e-13)
(8.58889e-13 0 1.85065e-13)
(8.4019e-13 0 1.67913e-13)
(8.23516e-13 0 1.59241e-13)
(8.06741e-13 0 1.58486e-13)
(7.88132e-13 0 1.64699e-13)
(7.66294e-13 0 1.76713e-13)
(7.40107e-13 0 1.93273e-13)
(7.08719e-13 0 2.13106e-13)
(6.71592e-13 0 2.34982e-13)
(6.28529e-13 0 2.57759e-13)
(5.79631e-13 0 2.80442e-13)
(5.25222e-13 0 3.02206e-13)
(4.65785e-13 0 3.2239e-13)
(4.01893e-13 0 3.40468e-13)
(3.34165e-13 0 3.56027e-13)
(2.63243e-13 0 3.6876e-13)
(1.898e-13 0 3.78459e-13)
(1.14527e-13 0 3.8499e-13)
(3.82596e-14 0 3.88277e-13)
(-5.993e-05 0 -0.00188731)
(0.000152965 0 -0.00173488)
(0.000314854 0 -0.00158065)
(0.00018101 0 -0.00144889)
(0.000903483 0 -0.000901101)
(-0.000300229 0 -0.00119634)
(0.000565938 0 -0.00085393)
(0.000584486 0 -0.000747972)
(0.000751252 0 -0.000453703)
(0.000782033 0 -0.00037918)
(0.0008073 0 -0.000372231)
(0.000851367 0 -0.00034847)
(0.00089652 0 -0.000310414)
(0.000916258 0 -0.000314085)
(0.000943179 0 -0.000338224)
(0.000985238 0 -0.00036066)
(0.00103568 0 -0.000334075)
(0.00107374 0 -0.000315424)
(0.00111903 0 -0.000303156)
(0.0011672 0 -0.0003099)
(0.00120274 0 -0.00033149)
(0.00124046 0 -0.000325321)
(0.00128709 0 -0.000309305)
(0.00133668 0 -0.000321115)
(0.001392 0 -0.00031953)
(0.00144705 0 -0.000286016)
(0.00148838 0 -0.000254841)
(0.00151489 0 -0.000250493)
(0.00154526 0 -0.00021552)
(0.00157051 0 -0.000212484)
(0.00159485 0 -0.000135627)
(0.00161041 0 -0.000131036)
(0.00163142 0 -0.00019756)
(0.00166121 0 -9.72625e-05)
(0.00166029 0 -7.9347e-05)
(0.00166241 0 -7.44957e-05)
(0.00167572 0 -6.17844e-05)
(0.00169211 0 2.11537e-05)
(0.00168451 0 3.98343e-05)
(0.00166546 0 -7.45708e-06)
(0.00165272 0 6.02883e-05)
(0.00164476 0 8.3758e-05)
(0.00163622 0 0.000113687)
(0.00161772 0 9.9322e-05)
(0.00158779 0 0.000137411)
(0.00156827 0 0.000173031)
(0.00155599 0 0.000170496)
(0.00154352 0 0.000188881)
(0.00154028 0 0.000198494)
(0.00154255 0 0.000203027)
(0.00154975 0 0.000221949)
(0.00155713 0 0.000248654)
(0.00155608 0 0.000273819)
(0.0015584 0 0.000317752)
(0.00157106 0 0.000327664)
(0.00155623 0 0.000343713)
(0.00151987 0 0.000465976)
(0.00152616 0 0.000521148)
(0.00149077 0 0.00058855)
(0.00145748 0 0.000667176)
(0.00142246 0 0.000823693)
(0.00139781 0 0.00101985)
(0.00138385 0 0.00119962)
(0.00141015 0 0.0013501)
(0.00142338 0 0.00146641)
(0.0014127 0 0.00147241)
(0.00131767 0 0.00148168)
(0.00152798 0 0.000988528)
(0.00107639 0 0.00100189)
(0.000960145 0 0.000555893)
(0.000769306 0 0.000307445)
(0.000506696 0 0.000370675)
(0.000442755 0 0.000316728)
(0.000375834 0 0.000259104)
(0.000411578 0 0.000105001)
(0.000189081 0 0.000251833)
(0.000296494 0 5.41784e-05)
(0.000150939 0 9.6166e-05)
(-4.60499e-06 0 0.00013641)
(1.3801e-06 0 6.50439e-05)
(-0.000157479 0 -8.79203e-05)
(-0.000101416 0 -0.000232128)
(-0.000123071 0 -0.000378534)
(-6.76664e-05 0 -0.000519875)
(-3.17312e-05 0 -0.000601186)
(-1.19685e-08 0 1.62851e-05)
(1.01634e-12 0 2.95365e-14)
(1.98822e-12 0 1.80226e-13)
(1.92096e-12 0 3.1496e-13)
(1.84155e-12 0 4.30681e-13)
(1.7327e-12 0 5.18e-13)
(1.60383e-12 0 5.72084e-13)
(1.46744e-12 0 5.93103e-13)
(1.33435e-12 0 5.84802e-13)
(1.21258e-12 0 5.53123e-13)
(1.1073e-12 0 5.0499e-13)
(1.02102e-12 0 4.47376e-13)
(9.5403e-13 0 3.86654e-13)
(9.04871e-13 0 3.28186e-13)
(8.70909e-13 0 2.76096e-13)
(8.48833e-13 0 2.33219e-13)
(8.35083e-13 0 2.01206e-13)
(8.26146e-13 0 1.80672e-13)
(8.18828e-13 0 1.71347e-13)
(8.10468e-13 0 1.72263e-13)
(7.99e-13 0 1.81984e-13)
(7.82876e-13 0 1.98842e-13)
(7.60945e-13 0 2.21114e-13)
(7.324e-13 0 2.47135e-13)
(6.96797e-13 0 2.7536e-13)
(6.5408e-13 0 3.04395e-13)
(6.04529e-13 0 3.33045e-13)
(5.48653e-13 0 3.60326e-13)
(4.87101e-13 0 3.85459e-13)
(4.20588e-13 0 4.07837e-13)
(3.49859e-13 0 4.27005e-13)
(2.75669e-13 0 4.42638e-13)
(1.98785e-13 0 4.54526e-13)
(1.19967e-13 0 4.62532e-13)
(4.00853e-14 0 4.66592e-13)
(-6.70563e-06 0 -0.00198669)
(0.000119453 0 -0.00181502)
(0.000143488 0 -0.00165765)
(6.30211e-05 0 -0.00142349)
(0.000263883 0 -0.001188)
(0.0002876 0 -0.00104537)
(0.000532621 0 -0.000867556)
(0.00020582 0 -0.000879736)
(0.000523239 0 -0.000503411)
(0.000420121 0 -0.000499559)
(0.000529511 0 -0.000353892)
(0.000548523 0 -0.00033398)
(0.00055836 0 -0.000354803)
(0.000584416 0 -0.00035061)
(0.000652951 0 -0.00031365)
(0.000688415 0 -0.000317464)
(0.000703204 0 -0.000344355)
(0.000740622 0 -0.000355065)
(0.000803201 0 -0.000345122)
(0.000853696 0 -0.000343555)
(0.000887851 0 -0.000348255)
(0.000927502 0 -0.000354434)
(0.000979639 0 -0.00036615)
(0.00104901 0 -0.000350449)
(0.00111074 0 -0.000338691)
(0.00115648 0 -0.000295266)
(0.00118035 0 -0.000271303)
(0.00120603 0 -0.000258378)
(0.00123695 0 -0.000259257)
(0.0012748 0 -0.00019448)
(0.00129415 0 -0.000182755)
(0.00131757 0 -0.00018402)
(0.00134449 0 -0.000107255)
(0.00134628 0 -0.00011663)
(0.00134962 0 -9.91276e-05)
(0.00135963 0 -4.78753e-05)
(0.0013704 0 -6.95486e-05)
(0.00137526 0 3.19901e-05)
(0.00137246 0 4.75063e-05)
(0.00136795 0 6.51792e-05)
(0.00136221 0 7.93853e-05)
(0.00134854 0 8.08947e-05)
(0.00133438 0 0.000127718)
(0.00132184 0 0.000136683)
(0.00130907 0 0.00015876)
(0.00130356 0 0.000173395)
(0.00130132 0 0.000187615)
(0.00130172 0 0.000194544)
(0.00130876 0 0.000206735)
(0.00131733 0 0.000235814)
(0.00132347 0 0.000253321)
(0.00132951 0 0.000267231)
(0.00134309 0 0.000280683)
(0.0013687 0 0.000308767)
(0.00136656 0 0.000358751)
(0.00135019 0 0.000413802)
(0.00136821 0 0.000401748)
(0.00135797 0 0.000526097)
(0.00134925 0 0.000598029)
(0.00132529 0 0.000705198)
(0.0013682 0 0.000715257)
(0.00129883 0 0.000932411)
(0.00125174 0 0.00114533)
(0.0012373 0 0.00135544)
(0.001195 0 0.00154861)
(0.00123095 0 0.00153886)
(0.00126846 0 0.00146947)
(0.00112189 0 0.00144348)
(0.00136973 0 0.000797099)
(0.00094641 0 0.000865144)
(0.000784981 0 0.000634114)
(0.000823082 0 0.000314343)
(0.000675464 0 0.0003736)
(0.000640972 0 0.000296287)
(0.000515409 0 0.000348603)
(0.00053443 0 0.000151195)
(0.000314627 0 0.00024628)
(0.000203239 0 0.000194932)
(8.42422e-06 0 0.000200189)
(7.22242e-05 0 0.000129316)
(-4.3132e-05 0 -3.90959e-05)
(-3.73814e-05 0 -0.000186239)
(-8.33447e-05 0 -0.000382345)
(-4.65987e-05 0 -0.000552903)
(-5.6732e-06 0 -0.000666157)
(1.46404e-12 0 -1.60249e-14)
(1.09994e-12 0 -3.28e-14)
(2.04658e-12 0 1.79526e-13)
(2.05225e-12 0 3.77611e-13)
(1.95782e-12 0 5.42254e-13)
(1.81343e-12 0 6.60159e-13)
(1.64517e-12 0 7.27537e-13)
(1.47219e-12 0 7.47538e-13)
(1.30872e-12 0 7.27534e-13)
(1.16447e-12 0 6.77135e-13)
(1.04497e-12 0 6.06614e-13)
(9.52262e-13 0 5.2578e-13)
(8.85555e-13 0 4.43208e-13)
(8.42014e-13 0 3.65818e-13)
(8.17481e-13 0 2.9865e-13)
(8.07199e-13 0 2.44896e-13)
(8.06342e-13 0 2.06142e-13)
(8.10331e-13 0 1.82662e-13)
(8.15107e-13 0 1.7368e-13)
(8.17378e-13 0 1.77623e-13)
(8.14711e-13 0 1.92411e-13)
(8.05424e-13 0 2.1574e-13)
(7.88401e-13 0 2.45318e-13)
(7.62965e-13 0 2.79009e-13)
(7.28852e-13 0 3.149e-13)
(6.86214e-13 0 3.51326e-13)
(6.35562e-13 0 3.86887e-13)
(5.77636e-13 0 4.20455e-13)
(5.13296e-13 0 4.51151e-13)
(4.43439e-13 0 4.78318e-13)
(3.68966e-13 0 5.01477e-13)
(2.90764e-13 0 5.2031e-13)
(2.09694e-13 0 5.34608e-13)
(1.26593e-13 0 5.44243e-13)
(4.23194e-14 0 5.49152e-13)
(-5.94257e-05 0 -0.00202765)
(6.39939e-05 0 -0.00185925)
(0.000112186 0 -0.00168533)
(-2.59623e-05 0 -0.00141411)
(9.68375e-05 0 -0.00120196)
(-9.92381e-05 0 -0.00110718)
(0.000151714 0 -0.00100326)
(9.67421e-05 0 -0.000848044)
(0.000333841 0 -0.000608761)
(0.000322104 0 -0.000442195)
(0.000280875 0 -0.000374544)
(0.000284664 0 -0.000368252)
(0.000317634 0 -0.000354117)
(0.000304486 0 -0.000377187)
(0.000353383 0 -0.000372828)
(0.000384009 0 -0.000380537)
(0.00041351 0 -0.00040315)
(0.000473548 0 -0.000414173)
(0.000546742 0 -0.000399696)
(0.000593405 0 -0.000394934)
(0.000624907 0 -0.000405098)
(0.000669547 0 -0.000421325)
(0.000725736 0 -0.000444359)
(0.000783924 0 -0.000448744)
(0.000854117 0 -0.000396211)
(0.000893993 0 -0.00034208)
(0.00091502 0 -0.000321812)
(0.000945476 0 -0.000307658)
(0.00099387 0 -0.000261555)
(0.00103042 0 -0.000259262)
(0.00105738 0 -0.000187527)
(0.00105816 0 -0.000165912)
(0.00105678 0 -0.000178613)
(0.00107393 0 -0.000119873)
(0.00109076 0 -0.000103006)
(0.0011029 0 -0.000105465)
(0.0011046 0 -2.90872e-05)
(0.00110067 0 1.30068e-06)
(0.00109694 0 3.01283e-05)
(0.00109015 0 1.60227e-05)
(0.00108422 0 9.09723e-05)
(0.00107822 0 0.000101758)
(0.00106957 0 0.000122805)
(0.00106582 0 0.000137048)
(0.00106542 0 0.000150572)
(0.00106848 0 0.00017864)
(0.00107968 0 0.000185402)
(0.00109063 0 0.000179273)
(0.00109417 0 0.00019233)
(0.00109923 0 0.000197147)
(0.00110562 0 0.000211998)
(0.00111926 0 0.000226136)
(0.00114389 0 0.00022761)
(0.00114316 0 0.000330258)
(0.00115966 0 0.000341068)
(0.00120122 0 0.000305371)
(0.00116956 0 0.000494078)
(0.00115649 0 0.000591362)
(0.00109747 0 0.000749631)
(0.00105059 0 0.000884134)
(0.00101813 0 0.000986421)
(0.00109058 0 0.00100432)
(0.00125727 0 0.000995322)
(0.00130036 0 0.00113978)
(0.0013071 0 0.00133206)
(0.00127963 0 0.00139685)
(0.00128531 0 0.0013662)
(0.00114128 0 0.00137945)
(0.00108846 0 0.00117716)
(0.000881682 0 0.00104338)
(0.000849243 0 0.000794218)
(0.000747187 0 0.000714798)
(0.000669089 0 0.000574227)
(0.000530086 0 0.000484253)
(0.000467163 0 0.000429644)
(0.000356411 0 0.000428016)
(0.000259699 0 0.000343933)
(0.000153529 0 0.000343887)
(-5.78572e-06 0 0.000326902)
(0.000233007 0 0.000113094)
(0.000206902 0 3.30755e-06)
(4.65096e-05 0 -0.000134131)
(1.46252e-05 0 -0.000346223)
(-3.16441e-05 0 -0.000561201)
(-9.68185e-06 0 -0.000704479)
(1.0204e-07 0 1.09149e-05)
(1.19829e-12 0 -7.41901e-14)
(2.39865e-12 0 1.92619e-13)
(2.28369e-12 0 4.73632e-13)
(2.12409e-12 0 7.00425e-13)
(1.91799e-12 0 8.52629e-13)
(1.69121e-12 0 9.30116e-13)
(1.46744e-12 0 9.41678e-13)
(1.26395e-12 0 9.00365e-13)
(1.09166e-12 0 8.20966e-13)
(9.55949e-13 0 7.18229e-13)
(8.57619e-13 0 6.0558e-13)
(7.94068e-13 0 4.94266e-13)