0 	-1.31856e-28 	0 	-1.45182e-20
0.010101 	-2.70747e-20 	-3.04828e-22 	-3.22861e-20
0.020202 	-4.37503e-20 	1.01382e-22 	-2.97328e-20
0.030303 	-7.29948e-20 	-2.36899e-22 	-8.72077e-20
0.040404 	6.52153e-20 	-4.0621e-22 	-2.79155e-20
0.0505051 	-4.20997e-20 	-1.69481e-22 	1.23765e-20
