0 	-3.38204e-15 	0 	8.60364e-16
0.010101 	-4.44038e-13 	0 	2.55254e-14
0.020202 	-7.79568e-12 	0 	4.60435e-13
0.030303 	-1.51219e-10 	0 	7.00384e-12
0.040404 	-4.02446e-10 	0 	-9.8704e-11
