/*--------------------------------*- C++ -*----------------------------------*\
  =========                 |
  \\      /  F ield         | OpenFOAM: The Open Source CFD Toolbox
   \\    /   O peration     | Website:  https://openfoam.org
    \\  /    A nd           | Version:  6
     \\/     M anipulation  |
\*---------------------------------------------------------------------------*/
FoamFile
{
    version     2.0;
    format      ascii;
    class       surfaceScalarField;
    location    "2500";
    object      phi;
}
// * * * * * * * * * * * * * * * * * * * * * * * * * * * * * * * * * * * * * //

dimensions      [0 3 -1 0 0 0 0];

internalField   nonuniform List<scalar> 
9440
(
2.11609e-14
-2.11605e-14
4.05742e-14
-2.08751e-14
5.96221e-14
-2.02191e-14
7.78809e-14
-1.9382e-14
9.50929e-14
-1.83221e-14
1.1107e-13
-1.70806e-14
1.25654e-13
-1.56803e-14
1.38701e-13
-1.4132e-14
1.50113e-13
-1.2485e-14
1.59919e-13
-1.0866e-14
1.68083e-13
-9.20907e-15
1.74687e-13
-7.63494e-15
1.79916e-13
-6.24281e-15
1.83504e-13
-4.58024e-15
1.85588e-13
-3.05342e-15
1.85847e-13
-1.20676e-15
1.84659e-13
2.64762e-16
1.83959e-13
-1.97444e-16
1.8235e-13
7.40207e-16
1.79057e-13
2.45383e-15
1.74041e-13
4.20662e-15
1.71589e-13
1.67453e-15
1.67235e-13
3.60593e-15
1.62616e-13
3.9062e-15
1.58195e-13
3.7435e-15
1.53689e-13
3.86522e-15
1.49135e-13
3.95073e-15
1.44664e-13
3.90545e-15
1.40385e-13
3.75428e-15
1.36386e-13
3.5131e-15
1.32713e-13
3.22833e-15
1.29413e-13
2.89766e-15
1.26526e-13
2.52779e-15
1.24126e-13
2.08374e-15
1.22291e-13
1.56178e-15
1.2094e-13
1.12008e-15
1.20208e-13
5.46255e-16
1.20032e-13
3.38857e-17
1.20501e-13
-5.64531e-16
1.21556e-13
-1.10607e-15
1.23228e-13
-1.68031e-15
1.2548e-13
-2.21122e-15
1.28294e-13
-2.72903e-15
1.31641e-13
-3.21674e-15
1.35413e-13
-3.5989e-15
1.39642e-13
-4.01161e-15
1.44247e-13
-4.34308e-15
1.4908e-13
-4.52625e-15
1.5413e-13
-4.70093e-15
1.59274e-13
-4.75213e-15
1.64421e-13
-4.71447e-15
1.6948e-13
-4.58139e-15
1.74312e-13
-4.31832e-15
1.78804e-13
-3.93305e-15
1.82853e-13
-3.45233e-15
1.86396e-13
-2.90818e-15
1.89312e-13
-2.24564e-15
1.91529e-13
-1.50758e-15
1.92924e-13
-6.53578e-16
1.93509e-13
1.92382e-16
1.93208e-13
1.10964e-15
1.92006e-13
2.04525e-15
1.89876e-13
2.99945e-15
1.86839e-13
3.93651e-15
1.82891e-13
4.87432e-15
1.78144e-13
5.70009e-15
1.72614e-13
6.50629e-15
1.6642e-13
7.19469e-15
1.59701e-13
7.74152e-15
1.52671e-13
8.07052e-15
1.45534e-13
8.19568e-15
1.38656e-13
7.95361e-15
1.32679e-13
7.06734e-15
1.29195e-13
4.58619e-15
1.32325e-13
-2.01475e-15
1.54712e-13
-2.12628e-14
2.36477e-13
-8.06316e-14
1.02705e-13
1.34908e-13
-7.07283e-16
1.04555e-13
1.79982e-21
5.18963e-21
1.80532e-21
5.22158e-24
1.82326e-21
-1.73708e-23
1.92252e-21
-1.30798e-23
2.01217e-21
-2.99853e-24
2.08201e-21
7.59973e-24
2.13159e-21
1.77327e-23
2.1622e-21
2.73487e-23
2.1744e-21
3.60341e-23
2.17016e-21
4.38923e-23
2.15057e-21
5.0975e-23
2.11753e-21
5.70755e-23
2.07266e-21
6.21936e-23
2.01755e-21
6.64846e-23
1.95375e-21
6.97934e-23
1.88303e-21
7.24817e-23
1.80703e-21
7.44463e-23
1.7271e-21
7.5687e-23
1.64438e-21
7.63591e-23
1.55986e-21
7.67727e-23
1.47455e-21
7.68761e-23
1.38894e-21
7.65142e-23
1.3039e-21
7.59455e-23
1.21952e-21
7.50666e-23
1.13613e-21
7.41878e-23
1.0544e-21
7.31538e-23
9.7416e-22
7.19647e-23
8.95423e-22
7.07756e-23
8.18392e-22
6.94832e-23
7.42808e-22
6.82941e-23
6.69189e-22
6.72084e-23
5.97018e-22
6.60711e-23
5.26449e-22
6.50371e-23
4.57121e-22
6.40548e-23
3.89033e-22
6.32276e-23
3.22135e-22
6.25038e-23
2.56116e-22
6.17801e-23
1.91027e-22
6.13665e-23
1.26507e-22
6.08495e-23
6.27106e-23
6.03325e-23
5.92985e-23
2.19135e-14
-4.45376e-14
4.11097e-14
-4.24044e-14
5.99628e-14
-4.11015e-14
7.81576e-14
-3.956e-14
9.54352e-14
-3.75715e-14
1.11515e-13
-3.511e-14
1.26181e-13
-3.22811e-14
1.39292e-13
-2.91606e-14
1.50851e-13
-2.59359e-14
1.60719e-13
-2.25996e-14
1.68956e-13
-1.9282e-14
1.75638e-13
-1.61191e-14
1.80891e-13
-1.32607e-14
1.84534e-13
-9.94944e-15
1.86585e-13
-6.79e-15
1.86402e-13
-2.66315e-15
1.85585e-13
-5.14068e-16
1.8488e-13
-1.03695e-15
1.83065e-13
1.06217e-15
1.79341e-13
4.73662e-15
1.74799e-13
7.36694e-15
1.71875e-13
3.27575e-15
1.67481e-13
6.73631e-15
1.62726e-13
7.46501e-15
1.58318e-13
7.01733e-15
1.53658e-13
7.46017e-15
1.49028e-13
7.58285e-15
1.44502e-13
7.50254e-15
1.40194e-13
7.20622e-15
1.36132e-13
6.79041e-15
1.32388e-13
6.2641e-15
1.28998e-13
5.65389e-15
1.26127e-13
4.84167e-15
1.23678e-13
4.05032e-15
1.21744e-13
3.0951e-15
1.20436e-13
2.10522e-15
1.19676e-13
1.06459e-15
1.19485e-13
6.04993e-17
1.19938e-13
-1.10132e-15
1.21025e-13
-2.19764e-15
1.22681e-13
-3.25679e-15
1.24981e-13
-4.3522e-15
1.27817e-13
-5.32645e-15
1.31163e-13
-6.24364e-15
1.35076e-13
-7.11157e-15
1.39364e-13
-7.82074e-15
1.44035e-13
-8.45699e-15
1.48978e-13
-8.83602e-15
1.54127e-13
-9.13925e-15
1.59373e-13
-9.21101e-15
1.64606e-13
-9.08879e-15
1.69726e-13
-8.769e-15
1.74647e-13
-8.2355e-15
1.79273e-13
-7.48719e-15
1.8342e-13
-6.4593e-15
1.87078e-13
-5.35867e-15
1.90092e-13
-3.98578e-15
1.9236e-13
-2.44199e-15
1.93808e-13
-7.07179e-16
1.94444e-13
1.00684e-15
1.9417e-13
2.88965e-15
1.93001e-13
4.77687e-15
1.90846e-13
6.76642e-15
1.87737e-13
8.70835e-15
1.83772e-13
1.05433e-14
1.78934e-13
1.22879e-14
1.73283e-13
1.39469e-14
1.66953e-13
1.53494e-14
1.60112e-13
1.64448e-14
1.52862e-13
1.72147e-14
1.45326e-13
1.76546e-14
1.37736e-13
1.74913e-14
1.30366e-13
1.64101e-14
1.2306e-13
1.38855e-14
1.1441e-13
8.64363e-15
9.65448e-14
-1.37519e-15
3.61171e-14
-1.81722e-14
3.33831e-14
1.39682e-13
-5.4677e-16
1.40092e-13
1.74695e-21
6.46118e-21
1.78273e-21
6.66915e-24
1.8276e-21
1.55096e-23
1.9326e-21
2.85377e-23
2.02277e-21
4.30134e-23
2.09215e-21
5.71272e-23
2.14121e-21
7.05172e-23
2.17078e-21
8.30283e-23
2.18231e-21
9.4402e-23
2.17724e-21
1.04483e-22
2.15667e-21
1.13479e-22
2.12265e-21
1.21337e-22
2.07695e-21
1.27955e-22
2.02085e-21
1.33331e-22
1.95649e-21
1.37726e-22
1.88499e-21
1.41034e-22
1.80832e-21
1.43619e-22
1.72777e-21
1.45325e-22
1.6448e-21
1.46359e-22
1.55996e-21
1.46618e-22
1.47424e-21
1.46359e-22
1.38842e-21
1.45842e-22
1.30302e-21
1.4486e-22
1.21859e-21
1.43412e-22
1.13515e-21
1.41861e-22
1.05321e-21
1.40155e-22
9.72971e-22
1.38243e-22
8.94079e-22
1.36278e-22
8.17151e-22
1.34158e-22
7.41723e-22
1.31987e-22
6.68052e-22
1.30022e-22
5.95984e-22
1.28213e-22
5.25467e-22
1.26507e-22
4.56242e-22
1.24853e-22
3.88258e-22
1.23353e-22
3.21463e-22
1.22113e-22
2.55599e-22
1.21027e-22
1.9051e-22
1.20045e-22
1.26042e-22
1.19321e-22
6.16767e-23
1.187e-22
1.18494e-22
2.08174e-14
-6.65253e-14
4.14785e-14
-6.50885e-14
6.17499e-14
-6.31262e-14
8.09827e-14
-6.05132e-14
9.8958e-14
-5.72557e-14
1.15556e-13
-5.3402e-14
1.30545e-13
-4.89538e-14
1.43893e-13
-4.41705e-14
1.55449e-13
-3.91332e-14
1.65261e-13
-3.40316e-14
1.73318e-13
-2.89289e-14
1.79807e-13
-2.41749e-14
1.8466e-13
-1.96464e-14
1.87975e-13
-1.47643e-14
1.895e-13
-9.78026e-15
1.88374e-13
-2.96412e-15
1.87925e-13
-1.45028e-15
1.8703e-13
-1.48728e-15
1.84559e-13
2.23635e-15
1.79895e-13
8.14815e-15
1.76444e-13
9.61326e-15
1.727e-13
5.86618e-15
1.68069e-13
1.02682e-14
1.63107e-13
1.138e-14
1.58614e-13
1.05215e-14
1.53707e-13
1.14363e-14
1.48897e-13
1.1518e-14
1.44229e-13
1.13611e-14
1.39764e-13
1.09212e-14
1.35559e-13
1.03118e-14
1.31695e-13
9.50473e-15
1.2825e-13
8.54337e-15
1.25258e-13
7.3457e-15
1.2276e-13
6.12717e-15
1.20788e-13
4.71172e-15
1.19391e-13
3.21823e-15
1.18593e-13
1.64442e-15
1.18381e-13
1.22717e-16
1.18875e-13
-1.67351e-15
1.19972e-13
-3.30239e-15
1.21692e-13
-4.91359e-15
1.23962e-13
-6.49063e-15
1.26913e-13
-8.07703e-15
1.30376e-13
-9.43696e-15
1.34376e-13
-1.07708e-14
1.38778e-13
-1.18146e-14
1.43569e-13
-1.27718e-14
1.48704e-13
-1.34283e-14
1.54009e-13
-1.3838e-14
1.59466e-13
-1.39941e-14
1.64914e-13
-1.3797e-14
1.70287e-13
-1.33392e-14
1.75415e-13
-1.25008e-14
1.80221e-13
-1.13671e-14
1.8457e-13
-9.82419e-15
1.88458e-13
-8.20416e-15
1.91629e-13
-6.0617e-15
1.94041e-13
-3.70354e-15
1.95639e-13
-1.10199e-15
1.96345e-13
1.55682e-15
1.96131e-13
4.40745e-15
1.94913e-13
7.34126e-15
1.92726e-13
1.03476e-14
1.89618e-13
1.32524e-14
1.85495e-13
1.61438e-14
1.80456e-13
1.88391e-14
1.74637e-13
2.13129e-14
1.68077e-13
2.34928e-14
1.60902e-13
2.52312e-14
1.53216e-13
2.65417e-14
1.45108e-13
2.7427e-14
1.36729e-13
2.75572e-14
1.27825e-13
2.70233e-14
1.17754e-13
2.56845e-14
1.04105e-13
2.40332e-14
8.03898e-14
2.4093e-14
2.99926e-14
3.39851e-14
2.10506e-14
1.50392e-13
-5.21269e-16
1.63082e-13
1.77343e-21
8.89771e-21
1.79152e-21
9.15069e-24
1.84068e-21
2.98819e-23
1.94708e-21
5.12852e-23
2.03688e-21
7.23783e-23
2.10554e-21
9.26959e-23
2.15372e-21
1.11824e-22
2.18221e-21
1.29454e-22
2.19244e-21
1.45429e-22
2.18614e-21
1.59853e-22
2.16453e-21
1.72467e-22
2.12932e-21
1.83376e-22
2.08232e-21
1.92733e-22
2.02525e-21
2.00436e-22
1.95985e-21
2.0664e-22
1.88757e-21
2.11345e-22
1.81003e-21
2.14808e-22
1.72886e-21
2.17238e-22
1.64506e-21
2.18634e-22
1.55975e-21
2.19203e-22
1.47367e-21
2.18841e-22
1.38739e-21
2.17755e-22
1.30157e-21
2.16204e-22
1.21699e-21
2.14291e-22
1.13339e-21
2.1181e-22
1.05129e-21
2.09225e-22
9.70955e-22
2.0633e-22
8.92011e-22
2.03435e-22
8.15031e-22
2.00488e-22
7.39758e-22
1.97489e-22
6.66242e-22
1.94594e-22
5.94278e-22
1.91647e-22
5.23812e-22
1.89114e-22
4.54743e-22
1.86581e-22
3.87017e-22
1.84461e-22
3.20377e-22
1.82497e-22
2.54668e-22
1.80842e-22
1.89786e-22
1.79653e-22
1.25421e-22
1.78619e-22
6.14182e-23
1.78154e-22
1.77792e-22
2.20864e-14
-8.97323e-14
4.3402e-14
-8.83782e-14
6.44227e-14
-8.58608e-14
8.44193e-14
-8.21941e-14
1.03104e-13
-7.76134e-14
1.20178e-13
-7.21336e-14
1.35578e-13
-6.59972e-14
1.49163e-13
-5.93823e-14
1.60845e-13
-5.24205e-14
1.70597e-13
-4.53696e-14
1.7857e-13
-3.84607e-14
1.84886e-13
-3.20241e-14
1.89175e-13
-2.54378e-14
1.92359e-13
-1.94169e-14
1.93249e-13
-1.21051e-14
1.90983e-13
-2.09453e-15
1.91181e-13
-3.0055e-15
1.90045e-13
-1.66715e-15
1.86744e-13
4.26561e-15
1.80337e-13
1.33305e-14
1.7913e-13
9.64124e-15
1.73748e-13
1.01189e-14
1.68867e-13
1.40699e-14
1.63718e-13
1.55061e-14
1.58965e-13
1.4305e-14
1.53738e-13
1.57503e-14
1.48706e-13
1.56985e-14
1.4378e-13
1.54922e-14
1.39123e-13
1.48453e-14
1.34691e-13
1.40721e-14
1.3068e-13
1.29068e-14
1.27108e-13
1.15702e-14
1.23963e-13
1.00088e-14
1.21371e-13
8.30289e-15
1.19301e-13
6.43157e-15
1.17831e-13
4.40759e-15
1.16949e-13
2.31399e-15
1.16755e-13
1.74119e-16
1.17189e-13
-2.1852e-15
1.18283e-13
-4.40564e-15
1.20086e-13
-6.65739e-15
1.22497e-13
-8.76991e-15
1.25486e-13
-1.08693e-14
1.29112e-13
-1.27989e-14
1.33231e-13
-1.45599e-14
1.37877e-13
-1.60623e-14
1.42914e-13
-1.73425e-14
1.48255e-13
-1.82365e-14
1.53861e-13
-1.88487e-14
1.59609e-13
-1.90837e-14
1.65386e-13
-1.88514e-14
1.71044e-13
-1.8215e-14
1.76534e-13
-1.71474e-14
1.81682e-13
-1.56114e-14
1.86391e-13
-1.35714e-14
1.90497e-13
-1.129e-14
1.93895e-13
-8.38539e-15
1.96562e-13
-5.24209e-15
1.98365e-13
-1.72786e-15
1.99217e-13
1.93469e-15
1.99065e-13
5.83415e-15
1.97928e-13
9.79818e-15
1.95714e-13
1.39234e-14
1.92448e-13
1.79254e-14
1.88193e-13
2.18423e-14
1.82939e-13
2.55754e-14
1.76815e-13
2.89528e-14
1.69876e-13
3.19784e-14
1.62227e-13
3.44581e-14
1.53989e-13
3.63827e-14
1.45294e-13
3.77563e-14
1.36152e-13
3.83505e-14
1.26524e-13
3.83216e-14
1.15977e-13
3.79192e-14
1.03768e-13
3.79448e-14
8.96311e-14
3.99424e-14
7.83433e-14
4.6997e-14
1.85804e-14
2.11885e-13
-5.13671e-16
1.83558e-13
1.77343e-21
1.19166e-20
1.8123e-21
1.2356e-23
1.86204e-21
4.21345e-23
1.96817e-21
7.18096e-23
2.05715e-21
1.00296e-22
2.12467e-21
1.27386e-22
2.1713e-21
1.52615e-22
2.19823e-21
1.75828e-22
2.20681e-21
1.96766e-22
2.19875e-21
2.15687e-22
2.17543e-21
2.32231e-22
2.13868e-21
2.465e-22
2.09003e-21
2.58546e-22
2.0314e-21
2.6842e-22
1.96461e-21
2.76537e-22
1.89094e-21
2.82637e-22
1.8124e-21
2.8729e-22
1.73026e-21
2.90289e-22
1.64557e-21
2.91995e-22
1.55939e-21
2.92615e-22
1.47259e-21
2.92098e-22
1.38589e-21
2.90599e-22
1.29966e-21
2.88531e-22
1.21456e-21
2.85739e-22
1.13081e-21
2.82586e-22
1.0484e-21
2.78967e-22
9.68008e-22
2.75244e-22
8.89064e-22
2.7116e-22
8.12085e-22
2.67179e-22
7.36863e-22
2.6325e-22
6.63347e-22
2.59321e-22
5.91693e-22
2.55651e-22
5.21227e-22
2.5198e-22
4.52675e-22
2.48826e-22
3.85053e-22
2.45776e-22
3.18723e-22
2.43346e-22
2.53427e-22
2.41227e-22
1.88804e-22
2.39572e-22
1.24853e-22
2.38435e-22
6.11597e-23
2.37556e-22
2.37401e-22
2.3571e-14
-1.14408e-13
4.60255e-14
-1.12783e-13
6.80028e-14
-1.09534e-13
8.89787e-14
-1.04834e-13
1.08438e-13
-9.87254e-14
1.26213e-13
-9.15501e-14
1.42127e-13
-8.35365e-14
1.56025e-13
-7.48878e-14
1.67856e-13
-6.58413e-14
1.77652e-13
-5.67309e-14
1.85535e-13
-4.78856e-14
1.91474e-13
-3.94784e-14
1.95209e-13
-3.06574e-14
1.98193e-13
-2.38521e-14
1.97566e-13
-1.28947e-14
1.95571e-13
-1.48016e-15
1.95594e-13
-4.3703e-15
1.93505e-13
-8.78091e-16
1.88974e-13
7.53866e-15
1.82311e-13
1.87823e-14
1.81529e-13
9.25959e-15
1.75232e-13
1.53024e-14
1.69871e-13
1.83653e-14
1.64702e-13
1.96638e-14
1.59312e-13
1.87409e-14
1.53776e-13
2.03823e-14
1.484e-13
2.0233e-14
1.43214e-13
1.98921e-14
1.3821e-13
1.91238e-14
1.33574e-13
1.8046e-14
1.2935e-13
1.65283e-14
1.25517e-13
1.48655e-14
1.22193e-13
1.28604e-14
1.19447e-13
1.06392e-14
1.17245e-13
8.28923e-15
1.15712e-13
5.66374e-15
1.14743e-13
3.07259e-15
1.14529e-13
2.45169e-16
1.14987e-13
-2.71953e-15
1.16085e-13
-5.51198e-15
1.17907e-13
-8.41994e-15
1.20415e-13
-1.11491e-14
1.23547e-13
-1.38061e-14
1.27361e-13
-1.63503e-14
1.31742e-13
-1.86123e-14
1.36647e-13
-2.05735e-14
1.41975e-13
-2.22098e-14
1.47702e-13
-2.344e-14
1.53672e-13
-2.42273e-14
1.59815e-13
-2.45745e-14
1.66057e-13
-2.43805e-14
1.72148e-13
-2.35315e-14
1.78101e-13
-2.22625e-14
1.83675e-13
-2.02907e-14
1.88764e-13
-1.77087e-14
1.93304e-13
-1.48205e-14
1.97079e-13
-1.10998e-14
2.00048e-13
-7.09718e-15
2.02122e-13
-2.63567e-15
2.03133e-13
2.13455e-15
2.03077e-13
7.15247e-15
2.01959e-13
1.22216e-14
1.99675e-13
1.75599e-14
1.96329e-13
2.26579e-14
1.91858e-13
2.77434e-14
1.86294e-13
3.26028e-14
1.79762e-13
3.69855e-14
1.72366e-13
4.09065e-14
1.64192e-13
4.41931e-14
1.55263e-13
4.69007e-14
1.45902e-13
4.87304e-14
1.36103e-13
4.97846e-14
1.26112e-13
4.99648e-14
1.16011e-13
4.96908e-14
1.06131e-13
4.95086e-14
9.73627e-14
5.04086e-14
8.76398e-14
5.84226e-14
1.82254e-14
2.83011e-13
-5.06798e-16
2.03654e-13
1.77344e-21
1.47236e-20
1.84203e-21
1.54062e-23
1.89176e-21
5.40769e-23
1.99666e-21
9.22823e-23
2.08429e-21
1.28575e-22
2.14984e-21
1.62541e-22
2.19451e-21
1.94284e-22
2.21922e-21
2.23287e-22
2.22574e-21
2.4955e-22
2.21529e-21
2.7297e-22
2.1897e-21
2.93546e-22
2.15072e-21
3.11123e-22
2.09995e-21
3.26064e-22
2.03947e-21
3.38317e-22
1.97076e-21
3.48191e-22
1.89559e-21
3.55688e-22
1.8154e-21
3.61219e-22
1.73196e-21
3.6489e-22
1.64614e-21
3.66751e-22
1.55887e-21
3.67165e-22
1.47109e-21
3.66338e-22
1.38377e-21
3.64528e-22
1.29692e-21
3.61685e-22
1.2113e-21
3.58221e-22
1.12729e-21
3.54033e-22
1.04473e-21
3.49432e-22
9.63924e-22
3.44521e-22
8.85083e-22
3.39558e-22
8.08156e-22
3.34336e-22
7.32882e-22
3.29218e-22
6.59677e-22
3.24358e-22
5.8797e-22
3.19499e-22
5.18125e-22
3.15104e-22
4.49676e-22
3.1102e-22
3.82623e-22
3.07556e-22
3.16603e-22
3.04454e-22
2.51825e-22
3.01869e-22
1.87667e-22
2.9975e-22
1.24025e-22
2.98302e-22
6.09529e-23
2.97371e-22
2.97216e-22
2.52343e-14
-1.40735e-13
4.93178e-14
-1.3879e-13
7.27987e-14
-1.34686e-13
9.50074e-14
-1.28688e-13
1.15586e-13
-1.20931e-13
1.34264e-13
-1.11848e-13
1.50823e-13
-1.017e-13
1.65076e-13
-9.07271e-14
1.77063e-13
-7.9395e-14
1.86883e-13
-6.80959e-14
1.94633e-13
-5.71598e-14
1.99591e-13
-4.59319e-14
2.03606e-13
-3.61369e-14
2.05451e-13
-2.71296e-14
2.01849e-13
-1.06923e-14
2.02598e-13
-3.5938e-15
2.01333e-13
-4.4301e-15
1.97814e-13
1.3584e-15
1.90897e-13
1.32159e-14
1.87027e-13
2.14546e-14
1.83671e-13
1.14651e-14
1.77214e-13
2.06569e-14
1.71125e-13
2.3404e-14
1.65888e-13
2.39018e-14
1.59616e-13
2.40685e-14
1.53768e-13
2.53399e-14
1.47964e-13
2.52037e-14
1.42377e-13
2.47055e-14
1.37061e-13
2.37242e-14
1.32159e-13
2.22926e-14
1.27603e-13
2.04944e-14
1.23552e-13
1.83844e-14
1.20026e-13
1.59173e-14
1.17036e-13
1.32289e-14
1.1474e-13
1.02507e-14
1.12998e-13
7.13331e-15
1.11915e-13
3.9488e-15
1.11686e-13
3.32545e-16
1.12081e-13
-3.18739e-15
1.1325e-13
-6.68927e-15
1.15135e-13
-1.0245e-14
1.17792e-13
-1.36807e-14
1.21126e-13
-1.69453e-14
1.25136e-13
-2.01007e-14
1.2975e-13
-2.29014e-14
1.35007e-13
-2.54405e-14
1.40687e-13
-2.74333e-14
1.46832e-13
-2.90628e-14
1.53326e-13
-3.01383e-14
1.60012e-13
-3.06178e-14
1.66748e-13
-3.04071e-14
1.73485e-13
-2.94999e-14
1.80027e-13
-2.79779e-14
1.86132e-13
-2.55124e-14
1.91827e-13
-2.24631e-14
1.96861e-13
-1.88584e-14
2.01108e-13
-1.42965e-14
2.04484e-13
-9.37185e-15
2.06881e-13
-3.88424e-15
2.08178e-13
2.03861e-15
2.0824e-13
8.33813e-15
2.07208e-13
1.45465e-14
2.04931e-13
2.11685e-14
2.01346e-13
2.76188e-14
1.9661e-13
3.38882e-14
1.90676e-13
3.99849e-14
1.83713e-13
4.54294e-14
1.75756e-13
5.03795e-14
1.66831e-13
5.46565e-14
1.57206e-13
5.80929e-14
1.46959e-13
6.05687e-14
1.36367e-13
6.19929e-14
1.25787e-13
6.21793e-14
1.15904e-13
6.12232e-14
1.07714e-13
5.93606e-14
1.02231e-13
5.75685e-14
8.50894e-14
7.72472e-14
5.61379e-15
3.64178e-13
-4.98762e-16
2.11113e-13
1.85285e-21
1.68954e-20
1.88075e-21
1.76293e-23
1.92986e-21
6.56575e-23
2.033e-21
1.12755e-22
2.11825e-21
1.57268e-22
2.18159e-21
1.98885e-22
2.22351e-21
2.37297e-22
2.24549e-21
2.72504e-22
2.2491e-21
3.04247e-22
2.23587e-21
3.32372e-22
2.20733e-21
3.56928e-22
2.16566e-21
3.78125e-22
2.11221e-21
3.95754e-22
2.04924e-21
4.10488e-22
1.97825e-21
4.22017e-22
1.90112e-21
4.30806e-22
1.81907e-21
4.37113e-22
1.73377e-21
4.41146e-22
1.64661e-21
4.43162e-22
1.55805e-21
4.43317e-22
1.46923e-21
4.42025e-22
1.38093e-21
4.39543e-22
1.29345e-21
4.35873e-22
1.20717e-21
4.31323e-22
1.12264e-21
4.26101e-22
1.03982e-21
4.20466e-22
9.58858e-22
4.14418e-22
8.7981e-22
4.0811e-22
8.03037e-22
4.01958e-22
7.28022e-22
3.95703e-22
6.54869e-22
3.89654e-22
5.83628e-22
3.83967e-22
5.14041e-22
3.78745e-22
4.46161e-22
3.73937e-22
3.79521e-22
3.69595e-22
3.14018e-22
3.65872e-22
2.49653e-22
3.62822e-22
1.86167e-22
3.60444e-22
1.23147e-22
3.58686e-22
6.07978e-23
3.57807e-22
3.57601e-22
2.73776e-14
-1.6919e-13
5.3481e-14
-1.66788e-13
7.88496e-14
-1.61702e-13
1.02724e-13
-1.5418e-13
1.24731e-13
-1.44545e-13
1.4448e-13
-1.3319e-13
1.61774e-13
-1.20573e-13
1.76514e-13
-1.0703e-13
1.88721e-13
-9.31461e-14
1.98604e-13
-7.94995e-14
2.05436e-13
-6.54862e-14
2.09987e-13
-5.19566e-14
2.14257e-13
-4.18497e-14
2.12953e-13
-2.72374e-14
2.07912e-13
-7.02714e-15
2.10606e-13
-7.62813e-15
2.07974e-13
-3.10105e-15
2.02999e-13
5.07022e-15
1.91746e-13
2.3249e-14
1.94196e-13
1.78267e-14
1.85786e-13
1.87446e-14
1.79371e-13
2.59874e-14
1.72547e-13
2.91935e-14
1.67165e-13
2.83019e-14
1.60022e-13
3.02807e-14
1.53652e-13
3.08357e-14
1.47341e-13
3.0695e-14
1.41329e-13
2.99536e-14
1.35634e-13
2.87136e-14
1.30289e-13
2.69933e-14
1.2544e-13
2.47603e-14
1.21078e-13
2.22242e-14
1.17271e-13
1.92626e-14
1.14088e-13
1.60177e-14
1.1153e-13
1.24741e-14
1.09662e-13
8.7341e-15
1.08489e-13
4.91981e-15
1.08103e-13
5.83199e-16
1.08542e-13
-3.69913e-15
1.09742e-13
-7.8963e-15
1.11705e-13
-1.21481e-14
1.14548e-13
-1.6398e-14
1.18067e-13
-2.02765e-14
1.22284e-13
-2.4059e-14
1.2728e-13
-2.75763e-14
1.329e-13
-3.06754e-14
1.3914e-13
-3.32244e-14
1.45811e-13
-3.52206e-14
1.52902e-13
-3.66554e-14
1.6021e-13
-3.72879e-14
1.67659e-13
-3.71614e-14
1.75097e-13
-3.6181e-14
1.82326e-13
-3.43911e-14
1.89148e-13
-3.14641e-14
1.95589e-13
-2.79773e-14
2.01217e-13
-2.35045e-14
2.06143e-13
-1.81885e-14
2.09999e-13
-1.21444e-14
2.12818e-13
-5.57007e-15
2.14383e-13
1.65718e-15
2.14771e-13
9.17575e-15
2.13765e-13
1.68237e-14
2.1134e-13
2.49086e-14
2.07655e-13
3.26579e-14
2.02573e-13
4.03612e-14
1.9624e-13
4.77446e-14
1.88697e-13
5.44308e-14
1.80038e-13
6.0527e-14
1.70323e-13
6.58922e-14
1.5968e-13
7.028e-14
1.48305e-13
7.35111e-14
1.36546e-13
7.53405e-14
1.24782e-13
7.55508e-14
1.14084e-13
7.35448e-14
1.05838e-13
6.9245e-14
1.01925e-13
6.31296e-14
1.0977e-14
1.69855e-13
1.38139e-15
3.75438e-13
-4.90087e-16
2.14312e-13
1.9058e-21
1.91729e-20
1.92883e-21
2.01625e-23
1.97696e-21
7.75999e-23
2.07752e-21
1.33848e-22
2.15987e-21
1.86943e-22
2.22e-21
2.36625e-22
2.25867e-21
2.82379e-22
2.27723e-21
3.23893e-22
2.27723e-21
3.61271e-22
2.26048e-21
3.94358e-22
2.22848e-21
4.23155e-22
2.18334e-21
4.4797e-22
2.12694e-21
4.68598e-22
2.06082e-21
4.85297e-22
1.98709e-21
4.98583e-22
1.90743e-21
5.08458e-22
1.82305e-21
5.15385e-22
1.73584e-21
5.19676e-22
1.64676e-21
5.21486e-22
1.55675e-21
5.21279e-22
1.46675e-21
5.19521e-22
1.37726e-21
5.16057e-22
1.28895e-21
5.11404e-22
1.20195e-21
5.05769e-22
1.117e-21
4.9941e-22
1.03377e-21
4.92379e-22
9.52602e-22
4.8509e-22
8.73606e-22
4.77593e-22
7.96782e-22
4.70045e-22
7.22025e-22
4.62704e-22
6.49182e-22
4.55621e-22
5.78406e-22
4.49004e-22
5.09233e-22
4.42852e-22
4.41818e-22
4.37217e-22
3.7585e-22
4.32254e-22
3.10917e-22
4.27911e-22
2.47275e-22
4.24447e-22
1.84513e-22
4.2181e-22
1.22216e-22
4.19949e-22
6.06427e-23
4.19019e-22
4.19019e-22
3.00122e-14
-2.00264e-13
5.87011e-14
-1.97335e-13
8.64191e-14
-1.91042e-13
1.12347e-13
-1.81701e-13
1.36083e-13
-1.69858e-13
1.572e-13
-1.55876e-13
1.75388e-13
-1.40313e-13
1.90647e-13
-1.23823e-13
2.03163e-13
-1.07177e-13
2.12394e-13
-9.02237e-14
2.18238e-13
-7.28007e-14
2.23563e-13
-5.87249e-14
2.2609e-13
-4.57926e-14
2.19178e-13
-2.17084e-14
2.1921e-13
-8.41195e-15
2.18942e-13
-8.67846e-15
2.15257e-13
-6.96249e-16
2.06554e-13
1.25354e-14
1.9712e-13
3.14859e-14
1.99712e-13
1.40788e-14
1.88485e-13
2.88596e-14
1.81629e-13
3.17806e-14
1.74784e-13
3.50217e-14
1.67974e-13
3.41471e-14
1.60439e-13
3.69019e-14
1.53389e-13
3.70269e-14
1.46593e-13
3.66874e-14
1.40017e-13
3.57812e-14
1.33819e-13
3.42182e-14
1.2811e-13
3.20705e-14
1.22798e-13
2.94964e-14
1.18114e-13
2.63979e-14
1.13993e-13
2.29356e-14
1.10538e-13
1.90818e-14
1.07767e-13
1.4921e-14
1.056e-13
1.06387e-14
1.04385e-13
5.93747e-15
1.03909e-13
9.2581e-16
1.04255e-13
-4.11532e-15
1.0549e-13
-9.13679e-15
1.0751e-13
-1.4109e-14
1.10429e-13
-1.91939e-14
1.14266e-13
-2.3929e-14
1.1887e-13
-2.84111e-14
1.24169e-13
-3.25615e-14
1.30293e-13
-3.64202e-14
1.37117e-13
-3.96058e-14
1.44459e-13
-4.20575e-14
1.52172e-13
-4.38031e-14
1.60317e-13
-4.48057e-14
1.68622e-13
-4.47824e-14
1.7698e-13
-4.3795e-14
1.85019e-13
-4.16295e-14
1.92804e-13
-3.83912e-14
2.00076e-13
-3.43385e-14
2.06471e-13
-2.89321e-14
2.1205e-13
-2.27487e-14
2.16599e-13
-1.56315e-14
2.19925e-13
-7.77865e-15
2.21933e-13
8.10832e-16
2.22585e-13
9.73171e-15
2.21698e-13
1.89604e-14
2.19227e-13
2.8668e-14
2.15276e-13
3.79385e-14
2.09833e-13
4.71705e-14
2.03069e-13
5.5908e-14
1.94869e-13
6.40649e-14
1.85335e-13
7.15245e-14
1.74646e-13
7.80726e-14
1.62898e-13
8.35464e-14
1.50185e-13
8.7766e-14
1.36702e-13
9.03851e-14
1.22794e-13
9.10359e-14
1.09476e-13
8.84603e-14
1.0027e-13
8.00607e-14
1.07612e-13
5.74054e-14
-2.14371e-14
3.00533e-13
4.65035e-15
3.50983e-13
-4.80056e-16
2.20744e-13
1.93228e-21
2.09739e-20
1.98622e-21
2.22822e-23
2.03321e-21
8.98525e-23
2.13061e-21
1.55924e-22
2.20955e-21
2.18221e-22
2.26575e-21
2.76227e-22
2.30023e-21
3.29632e-22
2.31461e-21
3.7828e-22
2.31026e-21
4.21655e-22
2.28927e-21
4.60016e-22
2.25329e-21
4.93258e-22
2.20397e-21
5.21382e-22
2.14369e-21
5.44905e-22
2.074e-21
5.63775e-22
1.99697e-21
5.78509e-22
1.91435e-21
5.89315e-22
1.82735e-21
5.96552e-22
1.73765e-21
6.00843e-22
1.64655e-21
6.02446e-22
1.555e-21
6.01671e-22
1.46333e-21
5.98672e-22
1.37255e-21
5.94174e-22
1.28332e-21
5.88384e-22
1.19559e-21
5.81405e-22
1.11002e-21
5.73702e-22
1.02643e-21
5.65223e-22
9.45106e-22
5.56589e-22
8.6611e-22
5.47645e-22
7.89441e-22
5.38908e-22
7.14943e-22
5.3043e-22
6.42616e-22
5.2221e-22
5.72151e-22
5.14506e-22
5.0365e-22
5.07475e-22
4.36855e-22
5.0122e-22
3.71456e-22
4.95688e-22
3.07504e-22
4.91087e-22
2.44639e-22
4.87209e-22
1.82548e-22
4.84366e-22
1.21337e-22
4.82557e-22
6.05393e-23
4.81678e-22
4.81884e-22
3.32539e-14
-2.34562e-13
6.50757e-14
-2.30977e-13
9.57276e-14
-2.23275e-13
1.2423e-13
-2.11758e-13
1.50024e-13
-1.97194e-13
1.72813e-13
-1.80195e-13
1.92079e-13
-1.61098e-13
2.07955e-13
-1.41201e-13
2.20307e-13
-1.21014e-13
2.28484e-13
-9.98627e-14
2.34497e-13
-8.02513e-14
2.40016e-13
-6.56542e-14
2.36311e-13
-4.34732e-14
2.29297e-13
-1.60489e-14
2.332e-13
-1.36343e-14
2.28175e-13
-4.94094e-15
2.22038e-13
4.18838e-15
2.08683e-13
2.46771e-14
2.11038e-13
2.79565e-14
2.00662e-13
2.33235e-14
1.92536e-13
3.5898e-14
1.83957e-13
3.93214e-14
1.77402e-13
4.05852e-14
1.68537e-13
4.20671e-14
1.60727e-13
4.38183e-14
1.52996e-13
4.39177e-14
1.45486e-13
4.34076e-14
1.38354e-13
4.21798e-14
1.31661e-13
4.02356e-14
1.25424e-13
3.76897e-14
1.19741e-13
3.46207e-14
1.14581e-13
3.10591e-14
1.1013e-13
2.69487e-14
1.0632e-13
2.25129e-14
1.03212e-13
1.77089e-14
1.00889e-13
1.27061e-14
9.95708e-14
7.06016e-15
9.88661e-14
1.50102e-15
9.91502e-14
-4.46724e-15
1.00416e-13
-1.04089e-14
1.02624e-13
-1.62572e-14
1.05628e-13
-2.20763e-14
1.09693e-13
-2.78122e-14
1.14714e-13
-3.31833e-14
1.20545e-13
-3.8081e-14
1.27142e-13
-4.26439e-14
1.34572e-13
-4.66018e-14
1.42733e-13
-4.97242e-14
1.51359e-13
-5.18756e-14
1.60347e-13
-5.31795e-14
1.69675e-13
-5.34388e-14
1.78988e-13
-5.23789e-14
1.88071e-13
-4.99301e-14
1.97066e-13
-4.65453e-14
2.05265e-13
-4.16465e-14
2.12705e-13
-3.54259e-14
2.19181e-13
-2.82271e-14
2.24541e-13
-1.99443e-14
2.28469e-13
-1.06133e-14
2.31037e-13
-6.16167e-16
2.31951e-13
1.00014e-14
2.31089e-13
2.10484e-14
2.28674e-13
3.23478e-14
2.24432e-13
4.34845e-14
2.18634e-13
5.431e-14
2.11265e-13
6.46502e-14
2.02282e-13
7.44511e-14
1.91901e-13
8.33397e-14
1.80108e-13
9.13276e-14
1.67101e-13
9.80396e-14
1.52852e-13
1.03525e-13
1.37315e-13
1.07451e-13
1.20358e-13
1.09541e-13
1.01186e-13
1.09196e-13
7.80326e-14
1.04788e-13
4.46663e-14
9.23587e-14
3.22004e-16
3.4647e-13
5.51082e-15
3.47394e-13
-4.68355e-16
2.27997e-13
1.99846e-21
2.20601e-20
2.05373e-21
2.37298e-23
2.09933e-21
1.02312e-22
2.19286e-21
1.78981e-22
2.26756e-21
2.51256e-22
2.31921e-21
3.18413e-22
2.34878e-21
3.79986e-22
2.35803e-21
4.35924e-22
2.34868e-21
4.85814e-22
2.32252e-21
5.29551e-22
2.28142e-21
5.67187e-22
2.22749e-21
5.99034e-22
2.16256e-21
6.25142e-22
2.08879e-21
6.4608e-22
2.00783e-21
6.62158e-22
1.92159e-21
6.73687e-22
1.83169e-21
6.81132e-22
1.73925e-21
6.85164e-22
1.64573e-21
6.86095e-22
1.55205e-21
6.84234e-22
1.45884e-21
6.80098e-22
1.36676e-21
6.74307e-22
1.27634e-21
6.66966e-22
1.18788e-21
6.58488e-22
1.10155e-21
6.49182e-22
1.01779e-21
6.39307e-22
9.36162e-22
6.29019e-22
8.57373e-22
6.18783e-22
7.8091e-22
6.08598e-22
7.06723e-22
5.98931e-22
6.34913e-22
5.89625e-22
5.65171e-22
5.81043e-22
4.97342e-22
5.73185e-22
4.31375e-22
5.66309e-22
3.66855e-22
5.60363e-22
3.03627e-22
5.554e-22
2.41795e-22
5.51626e-22
1.80791e-22
5.48783e-22
1.20406e-22
5.47232e-22
6.07461e-23
5.46715e-22
5.47232e-22
3.72826e-14
-2.72867e-13
7.30286e-14
-2.68498e-13
1.07228e-13
-2.59022e-13
1.38808e-13
-2.44857e-13
1.67139e-13
-2.27032e-13
1.91868e-13
-2.06418e-13
2.12129e-13
-1.8284e-13
2.29214e-13
-1.59752e-13
2.40403e-13
-1.33651e-13
2.47869e-13
-1.08754e-13
2.56407e-13
-9.01931e-14
2.55093e-13
-6.57189e-14
2.44431e-13
-3.41626e-14
2.49554e-13
-2.24943e-14
2.44914e-13
-1.02831e-14
2.40311e-13
-1.59426e-15
2.22804e-13
2.04729e-14
2.21249e-13
2.50458e-14
2.18956e-13
2.91055e-14
2.03953e-13
3.72228e-14
1.95852e-13
4.29392e-14
1.87326e-13
4.68312e-14
1.7905e-13
4.78907e-14
1.69439e-13
5.07613e-14
1.60804e-13
5.1581e-14
1.52273e-13
5.16273e-14
1.44107e-13
5.08074e-14
1.36374e-13
4.92006e-14
1.29084e-13
4.6868e-14
1.22327e-13
4.38422e-14
1.16115e-13
4.02844e-14
1.10586e-13
3.60989e-14
1.05637e-13
3.14672e-14
1.01463e-13
2.63202e-14
9.79603e-14
2.09015e-14
9.55331e-14
1.48844e-14
9.39025e-14
8.50579e-15
9.3198e-14
2.07787e-15
9.32791e-14
-4.61322e-15
9.44394e-14
-1.15738e-14
9.67074e-14
-1.84665e-14
1.00009e-13
-2.52572e-14
1.04232e-13
-3.18518e-14
1.09614e-13
-3.83242e-14
1.16071e-13
-4.42344e-14
1.23351e-13
-4.95588e-14
1.31541e-13
-5.43663e-14
1.40454e-13
-5.81551e-14
1.50105e-13
-6.09845e-14
1.6027e-13
-6.27438e-14
1.70687e-13
-6.31988e-14
1.81169e-13
-6.21482e-14
1.91749e-13
-5.97455e-14
2.01915e-13
-5.58896e-14
2.11275e-13
-5.01324e-14
2.20007e-13
-4.32352e-14
2.27557e-13
-3.4804e-14
2.3384e-13
-2.52043e-14
2.38555e-13
-1.42627e-14
2.41629e-13
-2.57647e-15
2.42935e-13
9.85123e-15
2.42329e-13
2.28513e-14
2.39805e-13
3.61068e-14
2.35341e-13
4.92215e-14
2.2906e-13
6.18983e-14
2.20989e-13
7.40617e-14
2.11192e-13
8.56181e-14
1.99782e-13
9.61506e-14
1.86895e-13
1.05642e-13
1.72523e-13
1.13865e-13
1.56769e-13
1.2075e-13
1.39441e-13
1.26273e-13
1.19927e-13
1.30568e-13
9.65284e-14
1.34121e-13
6.45049e-14
1.38347e-13
6.54132e-15
1.51871e-13
7.41928e-15
3.47147e-13
4.00696e-15
3.52368e-13
-4.54971e-16
2.33704e-13
2.09111e-21
2.28814e-20
2.13232e-21
2.50222e-23
2.17605e-21
1.15392e-22
2.26513e-21
2.03538e-22
2.33467e-21
2.8667e-22
2.38083e-21
3.63753e-22
2.40467e-21
4.34425e-22
2.40792e-21
4.98118e-22
2.39241e-21
5.54625e-22
2.36015e-21
6.03997e-22
2.31326e-21
6.4639e-22
2.25355e-21
6.81752e-22
2.18345e-21
7.10548e-22
2.10476e-21
7.33192e-22
2.01935e-21
7.50149e-22
1.92914e-21
7.61989e-22
1.83562e-21
7.69381e-22
1.74018e-21
7.72638e-22
1.64392e-21
7.72483e-22
1.54786e-21
7.69433e-22
1.45299e-21
7.64056e-22
1.35937e-21
7.56405e-22
1.26786e-21
7.47358e-22
1.17863e-21
7.37121e-22
1.09167e-21
7.26006e-22
1.00745e-21
7.14322e-22
9.26029e-22
7.02535e-22
8.47136e-22
6.90748e-22
7.71191e-22
6.79219e-22
6.9752e-22
6.68155e-22
6.26279e-22
6.57919e-22
5.57313e-22
6.4851e-22
4.90466e-22
6.40134e-22
4.25378e-22
6.32897e-22
3.6184e-22
6.26744e-22
2.99853e-22
6.21936e-22
2.39004e-22
6.18369e-22
1.7924e-22
6.16043e-22
1.19941e-22
6.14905e-22
6.13148e-23
6.15009e-22
6.16198e-22
4.22808e-14
-3.16142e-13
8.26887e-14
-3.10631e-13
1.21277e-13
-2.99112e-13
1.56503e-13
-2.81558e-13
1.87914e-13
-2.59909e-13
2.15589e-13
-2.35545e-13
2.37271e-13
-2.05963e-13
2.53052e-13
-1.76959e-13
2.63365e-13
-1.45371e-13
2.75862e-13
-1.22638e-13
2.77201e-13
-9.28979e-14
2.65096e-13
-5.49529e-14
2.68864e-13
-3.92432e-14
2.64896e-13
-1.98129e-14
2.6069e-13
-7.33017e-15
2.4312e-13
1.47564e-14
2.36609e-13
2.57959e-14
2.33725e-13
2.67812e-14
2.2034e-13