/*--------------------------------*- C++ -*----------------------------------*\
  =========                 |
  \\      /  F ield         | OpenFOAM: The Open Source CFD Toolbox
   \\    /   O peration     | Website:  https://openfoam.org
    \\  /    A nd           | Version:  6
     \\/     M anipulation  |
\*---------------------------------------------------------------------------*/
FoamFile
{
    version     2.0;
    format      ascii;
    class       volVectorField;
    location    "2500";
    object      U;
}
// * * * * * * * * * * * * * * * * * * * * * * * * * * * * * * * * * * * * * //

dimensions      [0 1 -1 0 0 0 0];

internalField   nonuniform List<vector> 
4800
(
(4.96879e-09 0 -3.69602e-09)
(1.20613e-08 0 -6.25505e-09)
(1.98953e-08 0 -7.04723e-09)
(2.73265e-08 0 -7.04888e-09)
(3.43933e-08 0 -6.71806e-09)
(4.10078e-08 0 -6.21409e-09)
(4.71046e-08 0 -5.60797e-09)
(5.26222e-08 0 -4.94013e-09)
(5.75121e-08 0 -4.2492e-09)
(6.17586e-08 0 -3.57814e-09)
(6.53578e-08 0 -2.92764e-09)
(6.8312e-08 0 -2.33137e-09)
(7.0655e-08 0 -1.8165e-09)
(7.23979e-08 0 -1.30764e-09)
(7.35293e-08 0 -8.65326e-10)
(7.40892e-08 0 -4.03425e-10)
(7.39129e-08 0 -2.4516e-11)
(7.36144e-08 0 -6.79659e-11)
(7.32141e-08 0 1.45776e-10)
(7.21936e-08 0 5.13276e-10)
(7.06435e-08 0 8.93586e-10)
(6.92902e-08 0 3.76329e-10)
(6.79092e-08 0 7.91853e-10)
(6.61088e-08 0 8.59961e-10)
(6.43007e-08 0 8.53916e-10)
(6.25217e-08 0 8.81122e-10)
(6.06849e-08 0 9.12702e-10)
(5.88622e-08 0 9.13995e-10)
(5.70964e-08 0 8.92576e-10)
(5.54272e-08 0 8.51152e-10)
(5.38799e-08 0 7.99373e-10)
(5.24736e-08 0 7.35772e-10)
(5.12268e-08 0 6.62796e-10)
(5.01575e-08 0 5.72976e-10)
(4.93022e-08 0 4.66646e-10)
(4.86616e-08 0 3.75349e-10)
(4.82383e-08 0 2.56547e-10)
(4.80437e-08 0 1.48195e-10)
(4.81118e-08 0 2.34327e-11)
(4.84075e-08 0 -9.18923e-11)
(4.89474e-08 0 -2.13793e-10)
(4.97363e-08 0 -3.27679e-10)
(5.07435e-08 0 -4.38353e-10)
(5.19743e-08 0 -5.43291e-10)
(5.33956e-08 0 -6.27578e-10)
(5.49998e-08 0 -7.18012e-10)
(5.67622e-08 0 -7.91911e-10)
(5.86502e-08 0 -8.35714e-10)
(6.06279e-08 0 -8.77873e-10)
(6.2666e-08 0 -8.9529e-10)
(6.4725e-08 0 -8.94342e-10)
(6.67657e-08 0 -8.74063e-10)
(6.87438e-08 0 -8.27587e-10)
(7.06095e-08 0 -7.56416e-10)
(7.23199e-08 0 -6.66149e-10)
(7.38371e-08 0 -5.61884e-10)
(7.51372e-08 0 -4.3443e-10)
(7.61586e-08 0 -2.9162e-10)
(7.68924e-08 0 -1.25807e-10)
(7.72856e-08 0 3.88489e-11)
(7.73487e-08 0 2.17045e-10)
(7.70479e-08 0 3.99102e-10)
(7.63817e-08 0 5.84235e-10)
(7.53486e-08 0 7.65454e-10)
(7.39513e-08 0 9.46441e-10)
(7.22122e-08 0 1.10488e-09)
(7.01572e-08 0 1.25886e-09)
(6.78142e-08 0 1.38918e-09)
(6.52311e-08 0 1.49312e-09)
(6.24835e-08 0 1.55234e-09)
(5.96514e-08 0 1.57271e-09)
(5.68516e-08 0 1.52666e-09)
(5.42926e-08 0 1.36146e-09)
(5.2412e-08 0 9.02193e-10)
(5.24204e-08 0 -3.70959e-10)
(5.76835e-08 0 -4.15052e-09)
(7.58909e-08 0 -1.65613e-08)
(4.36188e-08 0 1.99653e-08)
(-5.31898e-10 0 2.04146e-08)
(-8.6473e-16 0 1.0399e-15)
(3.61797e-16 0 1.04432e-18)
(7.25717e-16 0 -3.47416e-18)
(7.49157e-16 0 -2.61596e-18)
(7.86938e-16 0 -5.99705e-19)
(8.18837e-16 0 1.51995e-18)
(8.42721e-16 0 3.54654e-18)
(8.58758e-16 0 5.46973e-18)
(8.6732e-16 0 7.20681e-18)
(8.68912e-16 0 8.77846e-18)
(8.64145e-16 0 1.0195e-17)
(8.53619e-16 0 1.14151e-17)
(8.38037e-16 0 1.24387e-17)
(8.1804e-16 0 1.32969e-17)
(7.94259e-16 0 1.39587e-17)
(7.67355e-16 0 1.44963e-17)
(7.38011e-16 0 1.48893e-17)
(7.06826e-16 0 1.51374e-17)
(6.74297e-16 0 1.52718e-17)
(6.40848e-16 0 1.53545e-17)
(6.06882e-16 0 1.53752e-17)
(5.72699e-16 0 1.53028e-17)
(5.38567e-16 0 1.51891e-17)
(5.04684e-16 0 1.50133e-17)
(4.71131e-16 0 1.48376e-17)
(4.38106e-16 0 1.46308e-17)
(4.05711e-16 0 1.43929e-17)
(3.73917e-16 0 1.41551e-17)
(3.42763e-16 0 1.38966e-17)
(3.1224e-16 0 1.36588e-17)
(2.82399e-16 0 1.34417e-17)
(2.53241e-16 0 1.32142e-17)
(2.24693e-16 0 1.30074e-17)
(1.96714e-16 0 1.2811e-17)
(1.69231e-16 0 1.26455e-17)
(1.42234e-16 0 1.25008e-17)
(1.1565e-16 0 1.2356e-17)
(8.94286e-17 0 1.22733e-17)
(6.35068e-17 0 1.21699e-17)
(3.78435e-17 0 1.20665e-17)
(1.25421e-17 0 1.18597e-17)
(5.10638e-09 0 -1.27011e-08)
(1.23495e-08 0 -1.0432e-08)
(2.00481e-08 0 -9.4327e-09)
(2.74275e-08 0 -8.87742e-09)
(3.44939e-08 0 -8.39297e-09)
(4.1141e-08 0 -7.87707e-09)
(4.72719e-08 0 -7.31183e-09)
(5.28193e-08 0 -6.68549e-09)
(5.77533e-08 0 -6.02331e-09)
(6.20419e-08 0 -5.3352e-09)
(6.5669e-08 0 -4.62149e-09)
(6.86526e-08 0 -3.92279e-09)
(7.10264e-08 0 -3.28986e-09)
(7.27891e-08 0 -2.4666e-09)
(7.39151e-08 0 -1.65636e-09)
(7.44022e-08 0 -6.18736e-10)
(7.42104e-08 0 1.98095e-10)
(7.39908e-08 0 -1.35191e-10)
(7.3513e-08 0 4.15123e-10)
(7.2411e-08 0 1.46857e-09)
(7.08353e-08 0 2.44797e-09)
(6.95098e-08 0 9.43956e-10)
(6.80085e-08 0 2.08531e-09)
(6.61872e-08 0 2.2718e-09)
(6.4358e-08 0 2.17162e-09)
(6.25414e-08 0 2.25249e-09)
(6.06589e-08 0 2.29894e-09)
(5.88118e-08 0 2.26915e-09)
(5.70292e-08 0 2.1759e-09)
(5.534e-08 0 2.04007e-09)
(5.37643e-08 0 1.87495e-09)
(5.23263e-08 0 1.68572e-09)
(5.10646e-08 0 1.44803e-09)
(4.99872e-08 0 1.20041e-09)
(4.91034e-08 0 9.04552e-10)
(4.84509e-08 0 6.17636e-10)
(4.80296e-08 0 2.95138e-10)
(4.78256e-08 0 -8.8071e-12)
(4.78895e-08 0 -3.5815e-10)
(4.81862e-08 0 -6.85382e-10)
(4.87308e-08 0 -1.01125e-09)
(4.95267e-08 0 -1.33567e-09)
(5.05455e-08 0 -1.63218e-09)
(5.17821e-08 0 -1.91174e-09)
(5.32306e-08 0 -2.15959e-09)
(5.48753e-08 0 -2.38201e-09)
(5.66629e-08 0 -2.57381e-09)
(5.85855e-08 0 -2.6845e-09)
(6.0605e-08 0 -2.77823e-09)
(6.26837e-08 0 -2.80045e-09)
(6.47801e-08 0 -2.76682e-09)
(6.68508e-08 0 -2.67436e-09)
(6.8859e-08 0 -2.51336e-09)
(7.07691e-08 0 -2.28422e-09)
(7.25257e-08 0 -1.98132e-09)
(7.40861e-08 0 -1.6492e-09)
(7.54287e-08 0 -1.2409e-09)
(7.64802e-08 0 -7.82501e-10)
(7.72358e-08 0 -2.63059e-10)
(7.76488e-08 0 2.51931e-10)
(7.77274e-08 0 8.14895e-10)
(7.74391e-08 0 1.38301e-09)
(7.6775e-08 0 1.97587e-09)
(7.57225e-08 0 2.55618e-09)
(7.43068e-08 0 3.11658e-09)
(7.25469e-08 0 3.63628e-09)
(7.04496e-08 0 4.13532e-09)
(6.80549e-08 0 4.55847e-09)
(6.54202e-08 0 4.89618e-09)
(6.26033e-08 0 5.12087e-09)
(5.96456e-08 0 5.24147e-09)
(5.66181e-08 0 5.16755e-09)
(5.36198e-08 0 4.78204e-09)
(5.06696e-08 0 3.80458e-09)
(4.7424e-08 0 1.47165e-09)
(4.25631e-08 0 -4.34391e-09)
(2.60975e-08 0 -2.04324e-08)
(1.73345e-08 0 5.653e-08)
(-4.16713e-10 0 4.72495e-08)
(-3.45793e-16 0 2.3298e-15)
(3.57259e-16 0 2.37815e-18)
(7.22067e-16 0 -3.7223e-19)
(7.52042e-16 0 3.09159e-18)
(7.91074e-16 0 8.00297e-18)
(8.22983e-16 0 1.29454e-17)
(8.46671e-16 0 1.765e-17)
(8.62398e-16 0 2.20754e-17)
(8.70618e-16 0 2.60872e-17)
(8.7191e-16 0 2.96751e-17)
(8.66782e-16 0 3.28908e-17)
(8.55863e-16 0 3.56825e-17)
(8.39919e-16 0 3.80296e-17)
(8.1956e-16 0 3.99632e-17)
(7.95469e-16 0 4.15038e-17)
(7.68296e-16 0 4.27032e-17)
(7.38662e-16 0 4.36131e-17)
(7.07219e-16 0 4.42025e-17)
(6.74514e-16 0 4.45437e-17)
(6.40951e-16 0 4.46781e-17)
(6.0684e-16 0 4.46471e-17)
(5.72533e-16 0 4.44713e-17)
(5.38288e-16 0 4.41611e-17)
(5.04322e-16 0 4.36958e-17)
(4.70749e-16 0 4.32099e-17)
(4.37672e-16 0 4.26618e-17)
(4.05236e-16 0 4.20415e-17)
(3.7341e-16 0 4.14107e-17)
(3.42246e-16 0 4.07283e-17)
(3.11775e-16 0 4.00562e-17)
(2.81955e-16 0 3.94462e-17)
(2.52807e-16 0 3.88568e-17)
(2.2429e-16 0 3.83088e-17)
(1.96342e-16 0 3.77815e-17)
(1.689e-16 0 3.73162e-17)
(1.41944e-16 0 3.69233e-17)
(1.15412e-16 0 3.65614e-17)
(8.92218e-17 0 3.62822e-17)
(6.33103e-17 0 3.60341e-17)
(3.75437e-17 0 3.58066e-17)
(1.23353e-17 0 3.55584e-17)
(4.92062e-09 0 -2.23699e-08)
(1.21604e-08 0 -2.20464e-08)
(2.04676e-08 0 -2.15155e-08)
(2.83215e-08 0 -2.06913e-08)
(3.57213e-08 0 -1.96097e-08)
(4.26049e-08 0 -1.82962e-08)
(4.89023e-08 0 -1.67757e-08)
(5.45589e-08 0 -1.51219e-08)
(5.95384e-08 0 -1.33924e-08)
(6.38187e-08 0 -1.16255e-08)
(6.7402e-08 0 -9.86207e-09)
(7.03083e-08 0 -8.19815e-09)
(7.25794e-08 0 -6.67939e-09)
(7.42e-08 0 -4.97287e-09)
(7.51458e-08 0 -3.33229e-09)
(7.53808e-08 0 -1.14799e-09)
(7.50815e-08 0 -2.86888e-10)
(7.48963e-08 0 -4.01189e-10)
(7.41831e-08 0 7.17681e-10)
(7.28552e-08 0 2.56186e-09)
(7.12711e-08 0 3.58115e-09)
(7.00076e-08 0 1.80241e-09)
(6.82784e-08 0 3.43937e-09)
(6.63867e-08 0 3.79992e-09)
(6.45092e-08 0 3.55942e-09)
(6.26057e-08 0 3.79897e-09)
(6.06443e-08 0 3.84665e-09)
(5.87309e-08 0 3.79603e-09)
(5.68885e-08 0 3.64686e-09)
(5.51386e-08 0 3.44168e-09)
(5.35115e-08 0 3.17446e-09)
(5.20386e-08 0 2.85744e-09)
(5.07408e-08 0 2.45411e-09)
(4.96294e-08 0 2.05003e-09)
(4.87281e-08 0 1.57438e-09)
(4.80496e-08 0 1.07744e-09)
(4.76033e-08 0 5.53443e-10)
(4.73857e-08 0 4.64775e-11)
(4.74573e-08 0 -5.46258e-10)
(4.77609e-08 0 -1.09286e-09)
(4.83211e-08 0 -1.62665e-09)
(4.91269e-08 0 -2.16305e-09)
(5.01586e-08 0 -2.67438e-09)
(5.14436e-08 0 -3.13052e-09)
(5.29328e-08 0 -3.5717e-09)
(5.46193e-08 0 -3.92305e-09)
(5.64513e-08 0 -4.2415e-09)
(5.84369e-08 0 -4.44882e-09)
(6.05267e-08 0 -4.59193e-09)
(6.26784e-08 0 -4.63828e-09)
(6.48599e-08 0 -4.5744e-09)
(6.70242e-08 0 -4.41942e-09)
(6.91241e-08 0 -4.14483e-09)
(7.11121e-08 0 -3.7685e-09)
(7.29449e-08 0 -3.2565e-09)
(7.4592e-08 0 -2.71059e-09)
(7.60117e-08 0 -2.01014e-09)
(7.71222e-08 0 -1.23097e-09)
(7.79402e-08 0 -3.62386e-10)
(7.83945e-08 0 5.09984e-10)
(7.84994e-08 0 1.45697e-09)
(7.82149e-08 0 2.41813e-09)
(7.75334e-08 0 3.41697e-09)
(7.64752e-08 0 4.38459e-09)
(7.50285e-08 0 5.32843e-09)
(7.31969e-08 0 6.21411e-09)
(7.10258e-08 0 7.03861e-09)
(6.85516e-08 0 7.75232e-09)
(6.58038e-08 0 8.31735e-09)
(6.28322e-08 0 8.73343e-09)
(5.96723e-08 0 8.99665e-09)
(5.63716e-08 0 8.99207e-09)
(5.29071e-08 0 8.67738e-09)
(4.91048e-08 0 7.89953e-09)
(4.43509e-08 0 6.53811e-09)
(3.71838e-08 0 4.51334e-09)
(2.18118e-08 0 3.1751e-09)
(1.13254e-08 0 5.9575e-08)
(-3.9638e-10 0 5.93331e-08)
(-2.76106e-16 0 3.07245e-15)
(3.5903e-16 0 3.16397e-18)
(7.2644e-16 0 9.07831e-18)
(7.57553e-16 0 1.59646e-17)
(7.96792e-16 0 2.30783e-17)
(8.28484e-16 0 2.99646e-17)
(8.51851e-16 0 3.64683e-17)
(8.67185e-16 0 4.24964e-17)
(8.7493e-16 0 4.79661e-17)
(8.75716e-16 0 5.28672e-17)
(8.70132e-16 0 5.71892e-17)
(8.58769e-16 0 6.09425e-17)
(8.42328e-16 0 6.41375e-17)
(8.21515e-16 0 6.67535e-17)
(7.9702e-16 0 6.88731e-17)
(7.69485e-16 0 7.04758e-17)
(7.3952e-16 0 7.16855e-17)
(7.07777e-16 0 7.25127e-17)
(6.74783e-16 0 7.29987e-17)
(6.40962e-16 0 7.31641e-17)
(6.06685e-16 0 7.30401e-17)
(5.72213e-16 0 7.27195e-17)
(5.37792e-16 0 7.22129e-17)
(5.03712e-16 0 7.15408e-17)
(4.70076e-16 0 7.07343e-17)
(4.36938e-16 0 6.98761e-17)
(4.0445e-16 0 6.89145e-17)
(3.72593e-16 0 6.79426e-17)
(3.41408e-16 0 6.69293e-17)
(3.10958e-16 0 6.58953e-17)
(2.812e-16 0 6.49233e-17)
(2.52104e-16 0 6.39721e-17)
(2.23618e-16 0 6.31242e-17)
(1.95711e-16 0 6.22867e-17)
(1.68352e-16 0 6.15629e-17)
(1.41479e-16 0 6.09219e-17)
(1.15009e-16 0 6.03739e-17)
(8.88909e-17 0 5.99396e-17)
(6.30415e-17 0 5.9588e-17)
(3.73679e-17 0 5.93709e-17)
(1.22836e-17 0 5.92572e-17)
(5.20348e-09 0 -3.10932e-08)
(1.27771e-08 0 -3.06443e-08)
(2.13832e-08 0 -2.97985e-08)
(2.95421e-08 0 -2.85525e-08)
(3.72368e-08 0 -2.69724e-08)
(4.43557e-08 0 -2.5082e-08)
(5.08271e-08 0 -2.29388e-08)
(5.66142e-08 0 -2.06334e-08)
(6.16657e-08 0 -1.82104e-08)
(6.59572e-08 0 -1.576e-08)
(6.95093e-08 0 -1.3339e-08)
(7.23467e-08 0 -1.1083e-08)
(7.44981e-08 0 -8.92694e-09)
(7.59669e-08 0 -6.64725e-09)
(7.6732e-08 0 -4.26793e-09)
(7.66647e-08 0 -1.11191e-09)
(7.63031e-08 0 -5.51611e-10)
(7.61787e-08 0 -4.47625e-10)
(7.5111e-08 0 1.27991e-09)
(7.34345e-08 0 4.06345e-09)
(7.19396e-08 0 4.57289e-09)
(7.07146e-08 0 3.05498e-09)
(6.86496e-08 0 4.94515e-09)
(6.66714e-08 0 5.46084e-09)
(6.47261e-08 0 5.00018e-09)
(6.26707e-08 0 5.47971e-09)
(6.06148e-08 0 5.4858e-09)
(5.86029e-08 0 5.41125e-09)
(5.66704e-08 0 5.19086e-09)
(5.48367e-08 0 4.91266e-09)
(5.31359e-08 0 4.51367e-09)
(5.16063e-08 0 4.05216e-09)
(5.02521e-08 0 3.49803e-09)
(4.90912e-08 0 2.91083e-09)
(4.81528e-08 0 2.25219e-09)
(4.74402e-08 0 1.54495e-09)
(4.69608e-08 0 8.07476e-10)
(4.67281e-08 0 8.14702e-11)
(4.67975e-08 0 -7.5611e-10)
(4.70853e-08 0 -1.52759e-09)
(4.76557e-08 0 -2.30184e-09)
(4.85205e-08 0 -3.04011e-09)
(4.95746e-08 0 -3.77906e-09)
(5.09067e-08 0 -4.43703e-09)
(5.24485e-08 0 -5.05674e-09)
(5.42123e-08 0 -5.56589e-09)
(5.6139e-08 0 -6.01587e-09)
(5.82147e-08 0 -6.32543e-09)
(6.04071e-08 0 -6.52925e-09)
(6.26772e-08 0 -6.60848e-09)
(6.49824e-08 0 -6.52289e-09)
(6.72696e-08 0 -6.30413e-09)
(6.94989e-08 0 -5.92312e-09)
(7.16273e-08 0 -5.39024e-09)
(7.35997e-08 0 -4.67242e-09)
(7.53642e-08 0 -3.89241e-09)
(7.68713e-08 0 -2.88483e-09)
(7.80812e-08 0 -1.7856e-09)
(7.89869e-08 0 -5.58107e-10)
(7.95181e-08 0 6.9999e-10)
(7.96563e-08 0 2.0539e-09)
(7.9407e-08 0 3.433e-09)
(7.87325e-08 0 4.85809e-09)
(7.76397e-08 0 6.24122e-09)
(7.61341e-08 0 7.60137e-09)
(7.42329e-08 0 8.88808e-09)
(7.19582e-08 0 1.00592e-08)
(6.93467e-08 0 1.10994e-08)
(6.64297e-08 0 1.19425e-08)
(6.3253e-08 0 1.25884e-08)
(5.98641e-08 0 1.30409e-08)
(5.62954e-08 0 1.31815e-08)
(5.25401e-08 0 1.30609e-08)
(4.85093e-08 0 1.27011e-08)
(4.3981e-08 0 1.23071e-08)
(3.89225e-08 0 1.25791e-08)
(3.32065e-08 0 1.59742e-08)
(9.71808e-09 0 7.22199e-08)
(-3.89519e-10 0 6.83537e-08)
(-2.81632e-16 0 4.16424e-15)
(3.63188e-16 0 4.30134e-18)
(7.34867e-16 0 1.44033e-17)
(7.66042e-16 0 2.4619e-17)
(8.05064e-16 0 3.45348e-17)
(8.36362e-16 0 4.40164e-17)
(8.59193e-16 0 5.28879e-17)
(8.73906e-16 0 6.10563e-17)
(8.81009e-16 0 6.84389e-17)
(8.81113e-16 0 7.5108e-17)
(8.74837e-16 0 8.09396e-17)
(8.62822e-16 0 8.59751e-17)
(8.45741e-16 0 9.02558e-17)
(8.24286e-16 0 9.37713e-17)
(7.99201e-16 0 9.66354e-17)
(7.71108e-16 0 9.87964e-17)
(7.40668e-16 0 1.0042e-16)
(7.08532e-16 0 1.01505e-16)
(6.75166e-16 0 1.02126e-16)
(6.40993e-16 0 1.02364e-16)
(6.06396e-16 0 1.02188e-16)
(5.71696e-16 0 1.01671e-16)
(5.37109e-16 0 1.00947e-16)
(5.02843e-16 0 1.00006e-16)
(4.69073e-16 0 9.88791e-17)
(4.35842e-16 0 9.76383e-17)
(4.03282e-16 0 9.63149e-17)
(3.71414e-16 0 9.4919e-17)
(3.4023e-16 0 9.35335e-17)
(3.0979e-16 0 9.21479e-17)
(2.80042e-16 0 9.07831e-17)
(2.51008e-16 0 8.94596e-17)
(2.22584e-16 0 8.82188e-17)
(1.9478e-16 0 8.70814e-17)
(1.67545e-16 0 8.60475e-17)
(1.40755e-16 0 8.51686e-17)
(1.1443e-16 0 8.44138e-17)
(8.84463e-17 0 8.38451e-17)
(6.27313e-17 0 8.34108e-17)
(3.72025e-17 0 8.3142e-17)
(1.22319e-17 0 8.30386e-17)
(5.56341e-09 0 -4.05022e-08)
(1.35862e-08 0 -3.98685e-08)
(2.26157e-08 0 -3.87059e-08)
(3.11625e-08 0 -3.70372e-08)
(3.92088e-08 0 -3.49125e-08)
(4.66231e-08 0 -3.23992e-08)
(5.33375e-08 0 -2.95888e-08)
(5.92874e-08 0 -2.65536e-08)
(6.44307e-08 0 -2.33693e-08)
(6.87597e-08 0 -2.01512e-08)
(7.22924e-08 0 -1.69977e-08)
(7.50246e-08 0 -1.40983e-08)
(7.70383e-08 0 -1.10508e-08)
(7.82803e-08 0 -8.32671e-09)
(7.87448e-08 0 -4.84784e-09)
(7.85083e-08 0 -1.69386e-10)
(7.81717e-08 0 -1.50925e-09)
(7.77312e-08 0 -5.37265e-10)
(7.62892e-08 0 2.60112e-09)
(7.42815e-08 0 6.85082e-09)
(7.30434e-08 0 3.42118e-09)
(7.14045e-08 0 5.28873e-09)
(6.9192e-08 0 6.55928e-09)
(6.70614e-08 0 7.15214e-09)
(6.50083e-08 0 6.60136e-09)
(6.27389e-08 0 7.3042e-09)
(6.05657e-08 0 7.23971e-09)
(5.84272e-08 0 7.13006e-09)
(5.63733e-08 0 6.84392e-09)
(5.4431e-08 0 6.47003e-09)
(5.26458e-08 0 5.9311e-09)
(5.10207e-08 0 5.32686e-09)
(4.95793e-08 0 4.61154e-09)
(4.83509e-08 0 3.8229e-09)
(4.73542e-08 0 2.97556e-09)
(4.66086e-08 0 2.04262e-09)
(4.60918e-08 0 1.09831e-09)
(4.58418e-08 0 1.12695e-10)
(4.59094e-08 0 -9.6026e-10)
(4.62092e-08 0 -1.96597e-09)
(4.67708e-08 0 -2.99712e-09)
(4.76744e-08 0 -3.96356e-09)
(4.87686e-08 0 -4.92483e-09)
(5.01689e-08 0 -5.81579e-09)
(5.17995e-08 0 -6.62164e-09)
(5.36647e-08 0 -7.31541e-09)
(5.57113e-08 0 -7.89964e-09)
(5.79135e-08 0 -8.3248e-09)
(6.02574e-08 0 -8.60529e-09)
(6.2681e-08 0 -8.72174e-09)
(6.51574e-08 0 -8.63714e-09)
(6.76242e-08 0 -8.34039e-09)
(7.00321e-08 0 -7.87207e-09)
(7.23401e-08 0 -7.18075e-09)
(7.44709e-08 0 -6.23951e-09)
(7.64019e-08 0 -5.2131e-09)
(7.80651e-08 0 -3.89241e-09)
(7.94208e-08 0 -2.45971e-09)
(8.04265e-08 0 -8.69407e-10)
(8.10622e-08 0 8.26117e-10)
(8.12382e-08 0 2.59667e-09)
(8.10149e-08 0 4.4155e-09)
(8.0332e-08 0 6.29935e-09)
(7.92061e-08 0 8.12341e-09)
(7.76442e-08 0 9.92578e-09)
(7.56367e-08 0 1.16404e-08)
(7.3219e-08 0 1.31852e-08)
(7.04337e-08 0 1.4591e-08)
(6.73212e-08 0 1.57421e-08)
(6.39017e-08 0 1.66638e-08)
(6.02425e-08 0 1.73028e-08)
(5.64097e-08 0 1.7631e-08)
(5.24532e-08 0 1.76537e-08)
(4.8439e-08 0 1.75042e-08)
(4.44389e-08 0 1.74677e-08)
(4.08006e-08 0 1.81514e-08)
(3.6739e-08 0 2.13521e-08)
(9.15573e-09 0 9.81826e-08)
(-3.83634e-10 0 7.85458e-08)
(-2.70564e-16 0 5.33101e-15)
(3.69136e-16 0 5.55245e-18)
(7.46758e-16 0 1.92423e-17)
(7.77684e-16 0 3.28184e-17)
(8.1619e-16 0 4.57741e-17)
(8.46826e-16 0 5.79854e-17)
(8.68871e-16 0 6.93798e-17)
(8.82747e-16 0 7.98229e-17)
(8.88992e-16 0 8.92631e-17)
(8.88206e-16 0 9.77314e-17)
(8.80999e-16 0 1.05155e-16)
(8.68085e-16 0 1.11525e-16)
(8.50135e-16 0 1.16922e-16)
(8.27884e-16 0 1.21347e-16)
(8.02045e-16 0 1.24946e-16)
(7.73269e-16 0 1.27665e-16)
(7.42198e-16 0 1.29702e-16)
(7.09473e-16 0 1.31036e-16)
(6.75621e-16 0 1.31749e-16)
(6.41003e-16 0 1.31956e-16)
(6.05993e-16 0 1.31687e-16)
(5.70972e-16 0 1.31025e-16)
(5.36137e-16 0 1.30043e-16)
(5.01644e-16 0 1.28792e-16)
(4.67719e-16 0 1.27324e-16)
(4.34404e-16 0 1.2568e-16)
(4.01731e-16 0 1.23953e-16)
(3.69801e-16 0 1.22144e-16)
(3.38648e-16 0 1.20303e-16)
(3.08208e-16 0 1.18494e-16)
(2.78512e-16 0 1.16736e-16)
(2.49529e-16 0 1.1503e-16)
(2.21219e-16 0 1.13417e-16)
(1.9356e-16 0 1.11969e-16)
(1.6646e-16 0 1.10666e-16)
(1.39845e-16 0 1.0956e-16)
(1.13686e-16 0 1.08619e-16)
(8.78983e-17 0 1.07864e-16)
(6.23384e-17 0 1.07347e-16)
(3.69957e-17 0 1.06985e-16)
(1.21906e-17 0 1.06923e-16)
(5.97574e-09 0 -5.06305e-08)
(1.45565e-08 0 -4.98896e-08)
(2.42248e-08 0 -4.8415e-08)
(3.33153e-08 0 -4.62807e-08)
(4.18334e-08 0 -4.35195e-08)
(4.96511e-08 0 -4.02812e-08)
(5.6674e-08 0 -3.66641e-08)
(6.28208e-08 0 -3.27581e-08)
(6.80674e-08 0 -2.86985e-08)
(7.24305e-08 0 -2.46154e-08)
(7.58976e-08 0 -2.06637e-08)
(7.84671e-08 0 -1.69866e-08)
(8.03648e-08 0 -1.27934e-08)
(8.12627e-08 0 -1.00643e-08)
(8.10629e-08 0 -5.06227e-09)
(8.07631e-08 0 -2.10128e-10)
(8.0721e-08 0 -1.43816e-09)
(7.95301e-08 0 3.43332e-10)
(7.76333e-08 0 3.98017e-09)
(7.56095e-08 0 8.55924e-09)
(7.44247e-08 0 4.25597e-09)
(7.21912e-08 0 7.27583e-09)
(6.98606e-08 0 8.42503e-09)
(6.75614e-08 0 8.87575e-09)
(6.52853e-08 0 8.62313e-09)
(6.28043e-08 0 9.22397e-09)
(6.04733e-08 0 9.1595e-09)
(5.81721e-08 0 8.98819e-09)
(5.5976e-08 0 8.63395e-09)
(5.39169e-08 0 8.12612e-09)
(5.2013e-08 0 7.45673e-09)
(5.02763e-08 0 6.70105e-09)
(4.87525e-08 0 5.8003e-09)
(4.7436e-08 0 4.81605e-09)
(4.63606e-08 0 3.74675e-09)
(4.5575e-08 0 2.59736e-09)
(4.49758e-08 0 1.43505e-09)
(4.47116e-08 0 1.44854e-10)
(4.47511e-08 0 -1.1532e-09)
(4.50673e-08 0 -2.41704e-09)
(4.56509e-08 0 -3.71044e-09)
(4.65749e-08 0 -4.94367e-09)
(4.77821e-08 0 -6.13236e-09)
(4.92298e-08 0 -7.27484e-09)
(5.09566e-08 0 -8.2878e-09)
(5.29334e-08 0 -9.18667e-09)
(5.51329e-08 0 -9.91308e-09)
(5.74795e-08 0 -1.04904e-08)
(6.00123e-08 0 -1.08609e-08)
(6.2651e-08 0 -1.10256e-08)
(6.53355e-08 0 -1.09458e-08)
(6.80292e-08 0 -1.05941e-08)
(7.06831e-08 0 -1.0037e-08)
(7.32181e-08 0 -9.14978e-09)
(7.55742e-08 0 -8.02328e-09)
(7.7725e-08 0 -6.7365e-09)
(7.95835e-08 0 -5.06037e-09)
(8.11117e-08 0 -3.28586e-09)
(8.22659e-08 0 -1.29486e-09)
(8.30168e-08 0 8.43437e-10)
(8.32907e-08 0 3.10863e-09)
(8.30883e-08 0 5.34909e-09)
(8.24347e-08 0 7.76356e-09)
(8.12615e-08 0 1.00633e-08)
(7.95967e-08 0 1.23329e-08)
(7.74648e-08 0 1.45077e-08)
(7.48882e-08 0 1.65156e-08)
(7.19034e-08 0 1.82692e-08)
(6.85287e-08 0 1.97699e-08)
(6.48177e-08 0 2.10055e-08)
(6.08433e-08 0 2.18681e-08)
(5.66766e-08 0 2.23633e-08)
(5.24439e-08 0 2.2435e-08)
(4.83559e-08 0 2.21844e-08)
(4.46767e-08 0 2.17711e-08)
(4.20707e-08 0 2.14515e-08)
(3.73923e-08 0 2.76799e-08)
(6.33228e-09 0 1.27637e-07)
(-3.77818e-10 0 8.44804e-08)
(-1.78499e-16 0 6.32752e-15)
(3.76917e-16 0 6.60711e-18)
(7.62123e-16 0 2.39469e-17)
(7.92574e-16 0 4.10075e-17)
(8.30252e-16 0 5.71685e-17)
(8.59968e-16 0 7.22853e-17)
(8.8102e-16 0 8.63163e-17)
(8.938e-16 0 9.91583e-17)
(8.98918e-16 0 1.10759e-16)
(8.96995e-16 0 1.21068e-16)
(8.8864e-16 0 1.30095e-16)
(8.74599e-16 0 1.3785e-16)
(8.55574e-16 0 1.44364e-16)
(8.32289e-16 0 1.49761e-16)
(8.05498e-16 0 1.54042e-16)
(7.75875e-16 0 1.57299e-16)
(7.44039e-16 0 1.59667e-16)
(7.10569e-16 0 1.61207e-16)
(6.76075e-16 0 1.61983e-16)
(6.40931e-16 0 1.62096e-16)
(6.05455e-16 0 1.61672e-16)
(5.70031e-16 0 1.60814e-16)
(5.34876e-16 0 1.59511e-16)
(5.00124e-16 0 1.57909e-16)
(4.65961e-16 0 1.56027e-16)
(4.32491e-16 0 1.5398e-16)
(3.99735e-16 0 1.51788e-16)
(3.67734e-16 0 1.49534e-16)
(3.36569e-16 0 1.47259e-16)
(3.06212e-16 0 1.44984e-16)
(2.76578e-16 0 1.42802e-16)
(2.47699e-16 0 1.40693e-16)
(2.19534e-16 0 1.3877e-16)
(1.9204e-16 0 1.36991e-16)
(1.65136e-16 0 1.3543e-16)
(1.38708e-16 0 1.34065e-16)
(1.12734e-16 0 1.32938e-16)
(8.71642e-17 0 1.32039e-16)
(6.18628e-17 0 1.31398e-16)
(3.67889e-17 0 1.31036e-16)
(1.21596e-17 0 1.30963e-16)
(6.50402e-09 0 -6.14799e-08)
(1.57899e-08 0 -6.0582e-08)
(2.62533e-08 0 -5.8744e-08)
(3.60588e-08 0 -5.60496e-08)
(4.51904e-08 0 -5.25814e-08)
(5.35068e-08 0 -4.85099e-08)
(6.0887e-08 0 -4.39724e-08)
(6.72792e-08 0 -3.90906e-08)
(7.26715e-08 0 -3.40571e-08)
(7.70601e-08 0 -2.90199e-08)
(8.02991e-08 0 -2.4409e-08)
(8.28356e-08 0 -1.90553e-08)
(8.44466e-08 0 -1.51217e-08)
(8.46895e-08 0 -1.09607e-08)
(8.39733e-08 0 -3.15292e-09)
(8.36626e-08 0 -1.69756e-09)
(8.36456e-08 0 -1.21916e-09)
(8.15762e-08 0 1.41512e-09)
(7.90812e-08 0 6.7182e-09)
(7.72649e-08 0 9.85878e-09)
(7.62347e-08 0 5.20143e-09)
(7.30251e-08 0 9.67996e-09)
(7.06019e-08 0 1.05985e-08)
(6.81508e-08 0 1.06382e-08)
(6.55758e-08 0 1.09462e-08)
(6.2872e-08 0 1.13366e-08)
(6.03223e-08 0 1.12744e-08)
(5.78399e-08 0 1.10169e-08)
(5.54794e-08 0 1.05667e-08)
(5.32549e-08 0 9.92985e-09)
(5.1204e-08 0 9.12077e-09)
(4.93483e-08 0 8.18347e-09)
(4.77054e-08 0 7.09351e-09)
(4.6293e-08 0 5.90136e-09)
(4.51231e-08 0 4.59481e-09)
(4.4267e-08 0 3.21156e-09)
(4.36229e-08 0 1.81972e-09)
(4.3315e-08 0 2.16506e-10)
(4.3302e-08 0 -1.34842e-09)
(4.36778e-08 0 -2.88118e-09)
(4.42649e-08 0 -4.45506e-09)
(4.5213e-08 0 -5.9957e-09)
(4.65425e-08 0 -7.40832e-09)
(4.80385e-08 0 -8.82152e-09)
(4.98991e-08 0 -1.00775e-08)
(5.20096e-08 0 -1.12075e-08)
(5.43991e-08 0 -1.21124e-08)
(5.69765e-08 0 -1.28437e-08)
(5.9718e-08 0 -1.33437e-08)
(6.26045e-08 0 -1.35668e-08)
(6.55572e-08 0 -1.34992e-08)
(6.85333e-08 0 -1.31228e-08)
(7.14654e-08 0 -1.24586e-08)
(7.42806e-08 0 -1.13854e-08)
(7.69287e-08 0 -1.00734e-08)
(7.93503e-08 0 -8.46606e-09)
(8.14616e-08 0 -6.48805e-09)
(8.32184e-08 0 -4.29012e-09)
(8.45622e-08 0 -1.87727e-09)
(8.54353e-08 0 7.34866e-10)
(8.58367e-08 0 3.52834e-09)
(8.57163e-08 0 6.2986e-09)
(8.50203e-08 0 9.20852e-09)
(8.38025e-08 0 1.20599e-08)
(8.20528e-08 0 1.48436e-08)
(7.97779e-08 0 1.76059e-08)
(7.69959e-08 0 1.99661e-08)
(7.37562e-08 0 2.21795e-08)
(7.00833e-08 0 2.41221e-08)
(6.60109e-08 0 2.56881e-08)
(6.16069e-08 0 2.68311e-08)
(5.69816e-08 0 2.74836e-08)
(5.22806e-08 0 2.75649e-08)
(4.77928e-08 0 2.69712e-08)
(4.40592e-08 0 2.57067e-08)
(4.11309e-08 0 2.42295e-08)
(2.28439e-08 0 5.08603e-08)
(3.39874e-09 0 1.61442e-07)
(-3.71641e-10 0 8.46248e-08)
(-1.27903e-16 0 7.21842e-15)
(3.86559e-16 0 7.55837e-18)
(7.81158e-16 0 2.86515e-17)
(8.10896e-16 0 4.93207e-17)
(8.47478e-16 0 6.88421e-17)
(8.75974e-16 0 8.71021e-17)
(8.95733e-16 0 1.03935e-16)
(9.07179e-16 0 1.19279e-16)
(9.10891e-16 0 1.33104e-16)
(9.07541e-16 0 1.45346e-16)
(8.97791e-16 0 1.56017e-16)
(8.82364e-16 0 1.65219e-16)
(8.62057e-16 0 1.7287e-16)
(8.37551e-16 0 1.79157e-16)
(8.09582e-16 0 1.8412e-16)
(7.78904e-16 0 1.87853e-16)
(7.46096e-16 0 1.905e-16)
(7.11779e-16 0 1.92164e-16)
(6.7652e-16 0 1.9293e-16)
(6.40703e-16 0 1.92919e-16)
(6.047e-16 0 1.92309e-16)
(5.688e-16 0 1.9112e-16)
(5.33242e-16 0 1.89455e-16)
(4.9818e-16 0 1.87418e-16)
(4.6379e-16 0 1.85102e-16)
(4.30155e-16 0 1.82569e-16)
(3.97274e-16 0 1.79901e-16)
(3.65242e-16 0 1.77141e-16)
(3.34078e-16 0 1.74401e-16)
(3.03761e-16 0 1.71681e-16)
(2.74241e-16 0 1.69055e-16)
(2.45518e-16 0 1.66594e-16)
(2.17528e-16 0 1.64319e-16)
(1.9021e-16 0 1.62231e-16)
(1.63534e-16 0 1.6037e-16)
(1.37353e-16 0 1.58757e-16)
(1.11638e-16 0 1.57454e-16)
(8.63577e-17 0 1.56451e-16)
(6.13458e-17 0 1.55727e-16)
(3.65717e-17 0 1.55365e-16)
(1.21285e-17 0 1.55324e-16)
(7.15609e-09 0 -7.32407e-08)
(1.73265e-08 0 -7.21364e-08)
(2.87922e-08 0 -6.98597e-08)
(3.94835e-08 0 -6.64983e-08)
(4.93656e-08 0 -6.22183e-08)
(5.83008e-08 0 -5.71694e-08)
(6.61227e-08 0 -5.15689e-08)
(7.28092e-08 0 -4.55744e-08)
(7.83722e-08 0 -3.93983e-08)
(8.25074e-08 0 -3.36979e-08)
(8.57265e-08 0 -2.71757e-08)
(8.81825e-08 0 -2.1246e-08)
(8.91746e-08 0 -1.71561e-08)
(8.83432e-08 0 -1.03912e-08)
(8.77116e-08 0 -1.12447e-09)
(8.76783e-08 0 -3.45844e-09)
(8.64652e-08 0 -1.73755e-10)
(8.39368e-08 0 3.25078e-09)
(8.07906e-08 0 1.21672e-08)
(8.00947e-08 0 5.46636e-09)
(7.73093e-08 0 1.02782e-08)
(7.43227e-08 0 1.15822e-08)
(7.13909e-08 0 1.32473e-08)
(6.88737e-08 0 1.23458e-08)
(6.57552e-08 0 1.36533e-08)
(6.29268e-08 0 1.36771e-08)
(6.01169e-08 0 1.35871e-08)
(5.74235e-08 0 1.32481e-08)
(5.48534e-08 0 1.26809e-08)
(5.24544e-08 0 1.19001e-08)
(5.02387e-08 0 1.09311e-08)
(4.82233e-08 0 9.79692e-09)
(4.64546e-08 0 8.50711e-09)
(4.49265e-08 0 7.08342e-09)
(4.36609e-08 0 5.53224e-09)
(4.26811e-08 0 3.91164e-09)
(4.20085e-08 0 2.24465e-09)
(4.16456e-08 0 3.30372e-10)
(4.16116e-08 0 -1.52405e-09)
(4.19492e-08 0 -3.36528e-09)
(4.25902e-08 0 -5.22204e-09)
(4.3556e-08 0 -7.09125e-09)
(4.49167e-08 0 -8.81727e-09)
(4.66347e-08 0 -1.04507e-08)
(4.85783e-08 0 -1.20183e-08)
(5.08735e-08 0 -1.34035e-08)
(5.34538e-08 0 -1.45495e-08)
(5.63213e-08 0 -1.5426e-08)
(5.92949e-08 0 -1.60866e-08)
(6.24788e-08 0 -1.64025e-08)
(6.57698e-08 0 -1.63716e-08)
(6.9102e-08 0 -1.59754e-08)
(7.23797e-08 0 -1.52121e-08)
(7.55507e-08 0 -1.39331e-08)
(7.85544e-08 0 -1.24496e-08)
(8.13009e-08 0 -1.04777e-08)
(8.36921e-08 0 -8.17961e-09)
(8.57219e-08 0 -5.53883e-09)
(8.73005e-08 0 -2.65849e-09)
(8.83711e-08 0 5.14294e-10)
(8.89039e-08 0 3.78235e-09)
(8.88545e-08 0 7.15846e-09)
(8.8191e-08 0 1.07405e-08)
(8.6906e-08 0 1.41273e-08)
(8.50343e-08 0 1.75552e-08)
(8.25877e-08 0 2.07102e-08)
(7.95947e-08 0 2.37118e-08)
(7.60521e-08 0 2.6426e-08)
(7.20054e-08 0 2.88095e-08)
(6.75173e-08 0 3.07823e-08)
(6.26251e-08 0 3.22753e-08)
(5.7387e-08 0 3.31708e-08)
(5.19115e-08 0 3.33559e-08)
(4.64931e-08 0 3.24627e-08)
(4.19967e-08 0 2.99572e-08)
(4.15128e-08 0 2.3974e-08)
(1.0056e-08 0 9.01985e-08)
(1.34539e-09 0 1.39965e-07)
(-3.64085e-10 0 8.56567e-08)
(-8.67037e-17 0 8.0357e-15)
(3.98054e-16 0 8.48895e-18)
(8.03885e-16 0 3.34905e-17)
(8.32764e-16 0 5.79543e-17)
(8.68033e-16 0 8.10327e-17)
(8.95061e-16 0 1.0257e-16)
(9.13197e-16 0 1.22402e-16)
(9.22968e-16 0 1.40435e-16)
(9.24974e-16 0 1.56585e-16)
(9.19908e-16 0 1.70875e-16)
(9.08513e-16 0 1.83283e-16)
(8.91453e-16 0 1.9387e-16)
(8.69532e-16 0 2.02701e-16)
(8.43538e-16 0 2.09814e-16)
(8.14194e-16 0 2.15419e-16)
(7.82265e-16 0 2.19554e-16)
(7.4834e-16 0 2.22388e-16)
(7.12999e-16 0 2.24104e-16)
(6.76841e-16 0 2.24786e-16)
(6.4031e-16 0 2.2459e-16)
(6.03666e-16 0 2.23639e-16)
(5.67177e-16 0 2.22046e-16)
(5.31174e-16 0 2.19958e-16)
(4.95781e-16 0 2.17435e-16)
(4.61122e-16 0 2.14622e-16)
(4.27291e-16 0 2.1152e-16)
(3.94307e-16 0 2.08336e-16)
(3.62243e-16 0 2.05048e-16)
(3.3111e-16 0 2.01791e-16)
(3.00877e-16 0 1.98627e-16)
(2.71512e-16 0 1.95566e-16)
(2.42953e-16 0 1.92702e-16)
(2.1516e-16 0 1.90065e-16)
(1.88101e-16 0 1.87687e-16)
(1.61662e-16 0 1.85588e-16)
(1.35792e-16 0 1.838e-16)
(1.10429e-16 0 1.82331e-16)
(8.54374e-17 0 1.81235e-16)
(6.07771e-17 0 1.80501e-16)
(3.63753e-17 0 1.80139e-16)
(1.21079e-17 0 1.80181e-16)
(7.95771e-09 0 -8.61342e-08)
(1.92113e-08 0 -8.47821e-08)
(3.19008e-08 0 -8.19793e-08)
(4.37044e-08 0 -7.78205e-08)
(5.45066e-08 0 -7.25704e-08)
(6.41676e-08 0 -6.63935e-08)
(7.25664e-08 0 -5.94675e-08)
(7.96061e-08 0 -5.22424e-08)
(8.5022e-08 0 -4.51728e-08)
(8.91775e-08 0 -3.74701e-08)
(9.24298e-08 0 -2.97298e-08)
(9.44213e-08 0 -2.37181e-08)
(9.39475e-08 0 -1.86159e-08)
(9.3116e-08 0 -6.48702e-09)
(9.26084e-08 0 -3.56603e-09)
(9.20133e-08 0 -2.30388e-09)
(8.89871e-08 0 5.51744e-10)
(8.66945e-08 0 6.75636e-09)
(8.36925e-08 0 1.58258e-08)
(8.29381e-08 0 5.32015e-09)
(7.83507e-08 0 1.3758e-08)
(7.56744e-08 0 1.43375e-08)
(7.24321e-08 0 1.54453e-08)
(6.94027e-08 0 1.53582e-08)
(6.59772e-08 0 1.63137e-08)
(6.28937e-08 0 1.63328e-08)
(5.98159e-08 0 1.61535e-08)
(5.68674e-08 0 1.57185e-08)
(5.40855e-08 0 1.50073e-08)
(5.14834e-08 0 1.40587e-08)
(4.90865e-08 0 1.29198e-08)
(4.69033e-08 0 1.15823e-08)
(4.49715e-08 0 1.00609e-08)
(4.33035e-08 0 8.39348e-09)
(4.19203e-08 0 6.57862e-09)
(4.079e-08 0 4.75387e-09)
(4.01274e-08 0 2.64818e-09)
(3.96738e-08 0 5.36459e-10)
(3.95887e-08 0 -1.67819e-09)
(3.98642e-08 0 -3.87968e-09)
(4.06357e-08 0 -6.0147e-09)
(4.16178e-08 0 -8.22627e-09)
(4.30271e-08 0 -1.03249e-08)
(4.48645e-08 0 -1.22915e-08)
(4.70508e-08 0 -1.40792e-08)
(4.95117e-08 0 -1.57942e-08)
(5.23183e-08 0 -1.72335e-08)
(5.54338e-08 0 -1.83459e-08)
(5.88255e-08 0 -1.90947e-08)
(6.23069e-08 0 -1.95952e-08)
(6.59859e-08 0 -1.96282e-08)
(6.97113e-08 0 -1.92216e-08)
(7.33984e-08 0 -1.82909e-08)
(7.70079e-08 0 -1.69586e-08)
(8.04456e-08 0 -1.52131e-08)
(8.35866e-08 0 -1.28405e-08)
(8.63634e-08 0 -1.01751e-08)
(8.87362e-08 0 -7.09852e-09)
(9.05985e-08 0 -3.68388e-09)
(9.18991e-08 0 7.21285e-11)
(9.25939e-08 0 3.96624e-09)
(9.26088e-08 0 7.99994e-09)
(9.19565e-08 0 1.22256e-08)
(9.06262e-08 0 1.63165e-08)
(8.86235e-08 0 2.02895e-08)
(8.59857e-08 0 2.41368e-08)
(8.27182e-08 0 2.77216e-08)
(7.88456e-08 0 3.0992e-08)
(7.44104e-08 0 3.38989e-08)
(6.945e-08 0 3.63377e-08)
(6.39966e-08 0 3.8281e-08)
(5.80366e-08 0 3.95965e-08)
(5.15286e-08 0 4.01618e-08)
(4.4289e-08 0 3.96361e-08)
(3.59999e-08 0 3.72565e-08)
(2.49339e-08 0 3.04837e-08)
(1.29166e-08 0 1.28443e-07)
(-8.40331e-11 0 1.36467e-07)
(-3.55668e-10 0 8.78991e-08)
(2.646e-17 0 8.61483e-15)
(4.11594e-16 0 9.20239e-18)