0 	-1.43391e-11 	2.15365e-27 	7.73398e-12
0.010101 	6.31831e-10 	7.37783e-27 	-3.90986e-11
