0.010101 	-5.30213e-13 	5.56514e-16 	-5.40334e-15
0.020202 	-1.81923e-14 	4.9384e-17 	-3.21643e-16
