0 	-15.0056
0.010101 	-7.94446
0.020202 	-7.3997
0.030303 	-8.25025
0.040404 	-9.53196
0.0505051 	-9.60005
0.0606061 	-9.60391
0.0707071 	-9.60415
0.0808081 	-9.60417
0.0909091 	-9.60417
