/*--------------------------------*- C++ -*----------------------------------*\
  =========                 |
  \\      /  F ield         | OpenFOAM: The Open Source CFD Toolbox
   \\    /   O peration     | Website:  https://openfoam.org
    \\  /    A nd           | Version:  6
     \\/     M anipulation  |
\*---------------------------------------------------------------------------*/
FoamFile
{
    version     2.0;
    format      ascii;
    class       volScalarField;
    location    "540";
    object      dmdt;
}
// * * * * * * * * * * * * * * * * * * * * * * * * * * * * * * * * * * * * * //

dimensions      [0 0 0 0 0 0 0];

internalField   nonuniform List<scalar> 
5964
(
-0.354991
-0.300987
-0.254815
-0.219912
-0.19549
-0.178642
-0.166901
-0.158221
-0.151111
-0.144683
-0.138278
-0.131431
-0.123939
-0.116049
-0.107896
-0.0997383
-0.0921114
-0.0860608
-0.0800984
-0.0753461
-0.0715573
-0.0684621
-0.0658475
-0.0635677
-0.0615292
-0.0596738
-0.0579648
-0.0563783
-0.0548977
-0.0535102
-0.0522053
-0.0509739
-0.0498071
-0.048697
-0.0476358
-0.0466163
-0.0456319
-0.0446764
-0.0437442
-0.0428306
-0.041931
-0.0410418
-0.0401596
-0.0392815
-0.0384051
-0.0375283
-0.0366493
-0.0357666
-0.0348789
-0.0339852
-0.0330845
-0.0321763
-0.0312599
-0.0303349
-0.0294011
-0.0284582
-0.0275062
-0.026545
-0.0255748
-0.0245956
-0.0236077
-0.0226112
-0.0216065
-0.0205937
-0.0195734
-0.0185458
-0.0175114
-0.0164705
-0.0154236
-0.0143711
-0.0133134
-0.0122511
-0.0111843
-0.010113
-0.00903695
-0.00795463
-0.00686363
-0.00576112
-0.00464731
-0.00353279
-0.0024489
-0.00145526
-0.000642392
-0.000146631
-0.353484
-0.298855
-0.254378
-0.22057
-0.196608
-0.180192
-0.168811
-0.160364
-0.153297
-0.146771
-0.140023
-0.132687
-0.124833
-0.116645
-0.108059
-0.099439
-0.0913022
-0.0849234
-0.0789874
-0.0744484
-0.0708928
-0.0679823
-0.0654959
-0.0633008
-0.0613184
-0.0595015
-0.0578206
-0.0562557
-0.0547926
-0.0534198
-0.0521275
-0.0509069
-0.0497496
-0.0486477
-0.0475936
-0.0465804
-0.0456013
-0.0446505
-0.0437224
-0.0428123
-0.0419159
-0.0410294
-0.0401495
-0.0392735
-0.0383989
-0.0375237
-0.0366461
-0.0357645
-0.0348779
-0.033985
-0.0330851
-0.0321775
-0.0312616
-0.0303371
-0.0294037
-0.0284611
-0.0275093
-0.0265483
-0.0255782
-0.0245991
-0.0236111
-0.0226146
-0.0216099
-0.0205971
-0.0195767
-0.018549
-0.0175144
-0.0164734
-0.0154264
-0.0143738
-0.0133161
-0.0122537
-0.0111868
-0.0101156
-0.00903969
-0.00795778
-0.00686769
-0.00576692
-0.00465566
-0.00354271
-0.00245147
-0.00141918
-0.000502155
0.000138833
-0.353967
-0.299025
-0.254671
-0.221948
-0.198948
-0.183345
-0.17258
-0.164528
-0.157574
-0.15093
-0.143658
-0.135689
-0.127221
-0.118267
-0.1087
-0.0989425
-0.089578
-0.0823474
-0.0766128
-0.0726444
-0.0696127
-0.0670761
-0.0648331
-0.0627932
-0.0609124
-0.0591659
-0.057537
-0.0560131
-0.0545837
-0.0532397
-0.0519722
-0.0507731
-0.0496346
-0.0485491
-0.0475093
-0.0465085
-0.0455402
-0.0445988
-0.0436789
-0.0427759
-0.0418857
-0.0410046
-0.0401295
-0.0392576
-0.0383866
-0.0375145
-0.0366396
-0.0357605
-0.0348759
-0.0339848
-0.0330864
-0.0321801
-0.0312653
-0.0303416
-0.0294089
-0.0284668
-0.0275155
-0.0265548
-0.0255849
-0.0246059
-0.023618
-0.0226215
-0.0216166
-0.0206037
-0.0195831
-0.0185553
-0.0175205
-0.0164792
-0.015432
-0.0143792
-0.0133213
-0.0122587
-0.0111918
-0.0101207
-0.00904493
-0.00796362
-0.0068749
-0.00577676
-0.00466914
-0.00355692
-0.00244684
-0.00132748
-0.000174243
0.000807855
-0.354457
-0.300581
-0.25701
-0.225067
-0.202998
-0.188282
-0.178168
-0.170568
-0.163785
-0.157016
-0.149298
-0.140684
-0.131141
-0.120839
-0.10975
-0.0981726
-0.086609
-0.0774252
-0.0726752
-0.0699941
-0.0678615
-0.0658664
-0.0639412
-0.0620945
-0.0603396
-0.0586826
-0.0571227
-0.0556552
-0.0542738
-0.0529713
-0.0517402
-0.050573
-0.0494625
-0.0484014
-0.047383
-0.0464007
-0.0454487
-0.0445214
-0.0436138
-0.0427215
-0.0418406
-0.0409677
-0.0400997
-0.039234
-0.0383684
-0.0375011
-0.0366303
-0.0357547
-0.0348732
-0.0339847
-0.0330886
-0.0321841
-0.0312709
-0.0303485
-0.0294168
-0.0284756
-0.0275249
-0.0265647
-0.0255951
-0.0246163
-0.0236284
-0.0226319
-0.0216269
-0.0206138
-0.0195929
-0.0185647
-0.0175296
-0.016488
-0.0154404
-0.0143873
-0.0133291
-0.0122663
-0.0111992
-0.0101279
-0.00905228
-0.00797143
-0.0068839
-0.00578799
-0.00468317
-0.00357042
-0.00244145
-0.0012408
0.000135018
0.0014507
-0.35532
-0.303121
-0.260806
-0.229817
-0.208728
-0.195021
-0.185438
-0.178289
-0.171647
-0.164729
-0.156522
-0.147051
-0.13618
-0.124272
-0.111314
-0.0973588
-0.0821612
-0.0675963
-0.0669496
-0.0668653
-0.0659703
-0.0645598
-0.0629356
-0.0612664
-0.0596328
-0.0580692
-0.056587
-0.0551872
-0.0538656
-0.0526162
-0.0514324
-0.0503071
-0.0492335
-0.0482049
-0.0472148
-0.0462574
-0.045327
-0.0444185
-0.0435274
-0.0426494
-0.041781
-0.040919
-0.0400605
-0.0392031
-0.0383448
-0.0374838
-0.0366184
-0.0357476
-0.0348701
-0.0339851
-0.0330919
-0.03219
-0.0312788
-0.0303582
-0.0294278
-0.0284877
-0.0275378
-0.0265781
-0.0256089
-0.0246303
-0.0236425
-0.0226459
-0.0216407
-0.0206273
-0.019606
-0.0185774
-0.0175418
-0.0164997
-0.0154516
-0.014398
-0.0133394
-0.0122761
-0.0112087
-0.0101371
-0.00906133
-0.0079805
-0.00689334
-0.00579823
-0.00469439
-0.00358341
-0.00246557
-0.00132316
-0.0001347
0.000870252
-0.356439
-0.306719
-0.266414
-0.236601
-0.21627
-0.203216
-0.193997
-0.187347
-0.180741
-0.173687
-0.164892
-0.154461
-0.142348
-0.128923
-0.114226
-0.0979581
-0.0778289
-0.0287707
-0.0608233
-0.0644835
-0.0645294
-0.0634151
-0.06193
-0.0603606
-0.0588165
-0.057338
-0.0559367
-0.0546127
-0.0533613
-0.0521759
-0.0510497
-0.049976
-0.0489481
-0.0479598
-0.0470052
-0.0460788
-0.0451754
-0.0442906
-0.0434201
-0.0425601
-0.0417074
-0.040859
-0.0400125
-0.0391655
-0.0383162
-0.037463
-0.0366045
-0.0357396
-0.0348671
-0.0339865
-0.0330969
-0.032198
-0.0312894
-0.0303708
-0.0294421
-0.0285033
-0.0275543
-0.0265953
-0.0256265
-0.0246481
-0.0236604
-0.0226636
-0.0216581
-0.0206443
-0.0196226
-0.0185934
-0.0175572
-0.0165145
-0.0154657
-0.0144114
-0.013352
-0.0122882
-0.0112201
-0.0101481
-0.00907169
-0.00799029
-0.00690243
-0.00580612
-0.00469988
-0.00358579
-0.0024752
-0.00139545
-0.000411284
0.000279313
-0.358568
-0.311792
-0.273013
-0.244415
-0.224999
-0.212421
-0.203581
-0.197195
-0.190447
-0.183199
-0.173819
-0.16253
-0.149302
-0.134471
-0.118563
-0.10185
-0.0842
-0.0597579
-0.0659228
-0.0653349
-0.0641154
-0.0625753
-0.0609611
-0.059387
-0.0578938
-0.0564905
-0.0551729
-0.053933
-0.0527619
-0.0516512
-0.050593
-0.0495803
-0.0486069
-0.0476667
-0.0467545
-0.0458653
-0.0449945
-0.0441381
-0.0432924
-0.0424541
-0.0416203
-0.0407884
-0.0399563
-0.0391218
-0.0382834
-0.0374396
-0.0365893
-0.0357313
-0.0348649
-0.0339893
-0.0331041
-0.0322088
-0.0313031
-0.0303869
-0.0294601
-0.0285227
-0.0275749
-0.0266166
-0.0256483
-0.0246701
-0.0236823
-0.0226853
-0.0216794
-0.0206651
-0.0196428
-0.0186128
-0.0175758
-0.0165322
-0.0154825
-0.0144273
-0.0133671
-0.0123024
-0.0112334
-0.0101605
-0.00908312
-0.00800056
-0.00691112
-0.00581223
-0.00470119
-0.00357899
-0.0024609
-0.00139603
-0.000491835
6.74094e-05
-0.360182
-0.316599
-0.280234
-0.253105
-0.234532
-0.222263
-0.213711
-0.207383
-0.20044
-0.192785
-0.182796
-0.170618
-0.156321
-0.140282
-0.123371
-0.106387
-0.090195
-0.0766409
-0.0707622
-0.0667798
-0.0639862
-0.0617781
-0.0599189
-0.0582949
-0.0568412
-0.0555161
-0.0542913
-0.0531467
-0.0520676
-0.0510426
-0.0500628
-0.0491209
-0.0482105
-0.0473263
-0.0464635
-0.0456177
-0.0447849
-0.0439618
-0.0431452
-0.0423323
-0.0415207
-0.0407081
-0.0398927
-0.0390729
-0.0382472
-0.0374144
-0.0365735
-0.0357236
-0.0348641
-0.0339944
-0.0331141
-0.0322228
-0.0313205
-0.030407
-0.0294823
-0.0285465
-0.0275998
-0.0266424
-0.0256744
-0.0246963
-0.0237084
-0.0227111
-0.0217047
-0.0206897
-0.0196666
-0.0186358
-0.0175978
-0.0165531
-0.0155023
-0.0144459
-0.0133845
-0.0123186
-0.0112485
-0.0101742
-0.00909552
-0.00801137
-0.00691992
-0.00581821
-0.00470264
-0.00357274
-0.00244332
-0.00136941
-0.000474021
5.64819e-05
-0.361859
-0.321297
-0.287332
-0.261865
-0.244172
-0.232214
-0.223858
-0.217488
-0.210207
-0.20191
-0.191175
-0.178028
-0.162688
-0.145592
-0.127705
-0.11015
-0.0941452
-0.0811848
-0.0731042
-0.0671983
-0.0633345
-0.0606458
-0.0586273
-0.0570025
-0.0556207
-0.054398
-0.053285
-0.0522516
-0.0512781
-0.050351
-0.0494603
-0.0485987
-0.0477601
-0.0469396
-0.0461331
-0.0453368
-0.0445477
-0.0437627
-0.0429795
-0.0421957
-0.0414095
-0.0406191
-0.039823
-0.0390199
-0.0382086
-0.0373883
-0.0365581
-0.0357174
-0.0348657
-0.0340025
-0.0331276
-0.0322409
-0.0313422
-0.0304317
-0.0295092
-0.0285751
-0.0276296
-0.0266729
-0.0257053
-0.0247273
-0.0237391
-0.0227413
-0.0217342
-0.0207184
-0.0196943
-0.0186623
-0.0176231
-0.0165771
-0.015525
-0.0144672
-0.0134043
-0.0123369
-0.0112652
-0.0101893
-0.0091089
-0.00802286
-0.00692935
-0.0058254
-0.00470724
-0.00357349
-0.00243701
-0.00135152
-0.000443708
9.23864e-05
-0.363512
-0.325843
-0.294216
-0.270384
-0.253585
-0.241991
-0.233777
-0.226957
-0.219057
-0.209833
-0.198059
-0.183838
-0.167487
-0.149482
-0.1307
-0.112386
-0.0957687
-0.0820557
-0.0725769
-0.065823
-0.0616312
-0.0588889
-0.056942
-0.0554411
-0.0542015
-0.0531231
-0.0521496
-0.0512471
-0.0503945
-0.0495778
-0.0487871
-0.0480153
-0.047257
-0.0465079
-0.0457646
-0.0450241
-0.044284
-0.0435421
-0.0427965
-0.0420457
-0.0412882
-0.0405227
-0.0397483
-0.038964
-0.0381689
-0.0373625
-0.0365443
-0.0357137
-0.0348706
-0.0340146
-0.0331457
-0.0322638
-0.031369
-0.0304615
-0.0295414
-0.028609
-0.0276647
-0.0267086
-0.0257413
-0.0247632
-0.0237746
-0.0227762
-0.0217682
-0.0207513
-0.019726
-0.0186927
-0.017652
-0.0166045
-0.0155507
-0.0144912
-0.0134266
-0.0123573
-0.0112837
-0.0102058
-0.00912333
-0.00803517
-0.00693962
-0.00583408
-0.00471511
-0.00358079
-0.002441
-0.00134418
-0.000415613
0.00013937
-0.364939
-0.330075
-0.300902
-0.278721
-0.262852
-0.251669
-0.243334
-0.235531
-0.226559
-0.215889
-0.202819
-0.187578
-0.170355
-0.151655
-0.132335
-0.113184
-0.0953045
-0.0798357
-0.0686344
-0.0621895
-0.0586331
-0.0563962
-0.054815
-0.0535916
-0.0525772
-0.0516913
-0.0508871
-0.050136
-0.0494198
-0.0487259
-0.0480457
-0.0473731
-0.0467034
-0.0460332
-0.0453598
-0.0446812
-0.0439955
-0.0433015
-0.0425979
-0.0418837
-0.0411582
-0.0404205
-0.0396702
-0.0389067
-0.0381295
-0.0373385
-0.0365333
-0.0357138
-0.0348799
-0.0340317
-0.0331691
-0.0322924
-0.0314017
-0.0304974
-0.0295796
-0.0286489
-0.0277056
-0.0267501
-0.0257829
-0.0248044
-0.0238153
-0.0228159
-0.0218069
-0.0207887
-0.0197619
-0.0187271
-0.0176847
-0.0166353
-0.0155796
-0.0145181
-0.0134514
-0.0123799
-0.0113041
-0.0102239
-0.00913896
-0.00804842
-0.00695076
-0.00584386
-0.00472487
-0.00359131
-0.00244906
-0.00133845
-0.00038063
0.000203639
-0.366393
-0.334192
-0.307266
-0.286675
-0.271575
-0.260572
-0.251398
-0.242091
-0.23167
-0.219601
-0.205396
-0.189227
-0.171183
-0.151576
-0.131292
-0.111351
-0.0923154
-0.0744034
-0.0594622
-0.0560283
-0.0544755
-0.0533053
-0.0523304
-0.0515005
-0.0507744
-0.0501185
-0.0495083
-0.0489261
-0.0483597
-0.0477998
-0.0472398
-0.046675
-0.0461018
-0.0455177
-0.044921
-0.0443101
-0.0436844
-0.0430431
-0.0423857
-0.0417119
-0.0410215
-0.0403144
-0.0395905
-0.0388498
-0.0380922
-0.0373178
-0.0365267
-0.035719
-0.0348951
-0.034055
-0.0331991
-0.0323277
-0.0314412
-0.03054
-0.0296246
-0.0286954
-0.0277529
-0.0267978
-0.0258304
-0.0248515
-0.0238615
-0.022861
-0.0218506
-0.0208308
-0.0198023
-0.0187655
-0.0177212
-0.0166697
-0.0156118
-0.014548
-0.0134789
-0.012405
-0.0113265
-0.0102437
-0.00915605
-0.00806286
-0.00696287
-0.00585455
-0.00473579
-0.00360379
-0.00246008
-0.00133472
-0.000341263
0.000281587
-0.367939
-0.338604
-0.313934
-0.294688
-0.279925
-0.268611
-0.258141
-0.247232
-0.235083
-0.221322
-0.205846
-0.188703
-0.170013
-0.149997
-0.129407
-0.108898
-0.0886218
-0.0673478
-0.0228091
-0.048286
-0.0500468
-0.050065
-0.0496977
-0.0492686
-0.0488448
-0.0484338
-0.0480306
-0.0476288
-0.0472221
-0.0468053
-0.046374
-0.0459249
-0.0454556
-0.0449646
-0.0444507
-0.0439136
-0.0433531
-0.0427692
-0.0421622
-0.0415325
-0.0408805
-0.0402066
-0.0395114
-0.0387952
-0.0380587
-0.0373021
-0.036526
-0.035731
-0.0349174
-0.0340858
-0.0332367
-0.0323707
-0.0314884
-0.0305903
-0.029677
-0.0287491
-0.0278073
-0.0268522
-0.0258845
-0.0249047
-0.0239135
-0.0229116
-0.0218995
-0.0208778
-0.0198472
-0.0188083
-0.0177617
-0.0167078
-0.0156475
-0.0145811
-0.0135093
-0.0124326
-0.0113513
-0.0102655
-0.00917493
-0.00807886
-0.00697633
-0.00586638
-0.00474777
-0.00361758
-0.00247246
-0.00132892
-0.000287605
0.000390723
-0.369451
-0.34296
-0.320383
-0.302145
-0.287341
-0.275101
-0.262901
-0.24994
-0.235846
-0.22031
-0.203375
-0.185255
-0.1663
-0.146557
-0.126093
-0.10562
-0.0856623
-0.0661506
-0.0412412
-0.0472108
-0.0473479
-0.0472696
-0.047141
-0.0469996
-0.0468437
-0.0466691
-0.046474
-0.0462571
-0.0460164
-0.0457494
-0.0454537
-0.0451273
-0.0447687
-0.0443772
-0.0439525
-0.0434948
-0.0430046
-0.0424828
-0.0419304
-0.0413483
-0.0407377
-0.0400996
-0.0394352
-0.0387454
-0.0380312
-0.0372935
-0.0365333
-0.0357513
-0.0349485
-0.0341256
-0.0332834
-0.0324228
-0.0315444
-0.0306491
-0.0297377
-0.0288109
-0.0278694
-0.026914
-0.0259455
-0.0249645
-0.0239718
-0.022968
-0.0219539
-0.02093
-0.0198971
-0.0188556
-0.0178064
-0.0167499
-0.0156867
-0.0146175
-0.0135427
-0.012463
-0.0113786
-0.0102897
-0.00919596
-0.00809686
-0.00699162
-0.00587974
-0.00476058
-0.00363067
-0.00248068
-0.00131041
-0.000203458
0.00055157
-0.370873
-0.346962
-0.326042
-0.308389
-0.293308
-0.279643
-0.265454
-0.25047
-0.234206
-0.216855
-0.198682
-0.179584
-0.159776
-0.1399
-0.120127
-0.10083
-0.0822951
-0.0651869
-0.0514101
-0.0469887
-0.045246
-0.0447404
-0.0446736
-0.0447344
-0.0448058
-0.0448495
-0.044856
-0.0448237
-0.0447518
-0.0446393
-0.0444848
-0.0442872
-0.0440456
-0.0437598
-0.0434301
-0.0430573
-0.0426427
-0.0421875
-0.0416936
-0.0411626
-0.0405963
-0.0399964
-0.0393648
-0.0387028
-0.0380122
-0.0372943
-0.0365505
-0.035782
-0.0349901
-0.0341759
-0.0333405
-0.032485
-0.0316103
-0.0307176
-0.0298076
-0.0288814
-0.0279399
-0.0269838
-0.026014
-0.0250314
-0.0240367
-0.0230307
-0.0220141
-0.0209876
-0.0199519
-0.0189076
-0.0178554
-0.0167959
-0.0157296
-0.0146573
-0.0135793
-0.0124963
-0.0114086
-0.0103164
-0.00921949
-0.00811733
-0.00700935
-0.00589539
-0.00477537
-0.0036463
-0.00249696
-0.00131871
-0.000181483
0.000620719
-0.372135
-0.350417
-0.330775
-0.31317
-0.297165
-0.281666
-0.265416
-0.248053
-0.229769
-0.210997
-0.192056
-0.172894
-0.153438
-0.133958
-0.114722
-0.0960983
-0.0782763
-0.0620818
-0.0495852
-0.0446212
-0.0426339
-0.0421457
-0.0422207
-0.0424714
-0.0427458
-0.0429906
-0.0431897
-0.0433389
-0.0434368
-0.0434821
-0.0434736
-0.0434102
-0.0432914
-0.0431172
-0.0428883
-0.0426058
-0.0422715
-0.0418874
-0.0414558
-0.0409791
-0.0404598
-0.0399004
-0.0393032
-0.0386705
-0.0380044
-0.0373069
-0.0365798
-0.035825
-0.0350439
-0.0342383
-0.0334094
-0.0325587
-0.0316873
-0.0307966
-0.0298877
-0.0289616
-0.0280194
-0.0270621
-0.0260906
-0.0251058
-0.0241087
-0.0231
-0.0220804
-0.0210509
-0.020012
-0.0189645
-0.0179089
-0.0168461
-0.0157764
-0.0147006
-0.0136192
-0.0125327
-0.0114416
-0.0103459
-0.00924573
-0.00814053
-0.00702993
-0.00591402
-0.00479377
-0.00366962
-0.00253886
-0.00140352
-0.000317433
0.000513888
-0.373002
-0.352677
-0.333664
-0.315683
-0.298286
-0.280766
-0.262255
-0.242719
-0.222806
-0.203163
-0.184183
-0.165603
-0.147048
-0.12842
-0.109892
-0.0916667
-0.073698
-0.0564491
-0.0422255
-0.0399201
-0.0393388
-0.0394112
-0.0397578
-0.0402069
-0.0406684
-0.0410999
-0.0414834
-0.0418112
-0.0420793
-0.0422852
-0.0424268
-0.0425027
-0.0425122
-0.0424552
-0.0423325
-0.0421455
-0.0418962
-0.0415873
-0.0412216
-0.0408022
-0.0403324
-0.0398153
-0.0392541
-0.0386516
-0.0380106
-0.0373339
-0.0366238
-0.0358825
-0.0351121
-0.0343146
-0.0334918
-0.0326452
-0.0317766
-0.0308873
-0.0299787
-0.0290521
-0.0281087
-0.0271495
-0.0261757
-0.0251882
-0.024188
-0.023176
-0.0221531
-0.02112
-0.0200775
-0.0190263
-0.0179671
-0.0169005
-0.0158271
-0.0147476
-0.0136625
-0.0125723
-0.0114775
-0.0103783
-0.0092747
-0.00816648
-0.00705328
-0.00593532
-0.0048142
-0.00369374
-0.00258037
-0.00147698
-0.000316813
0.00114823
-0.373585
-0.353895
-0.334618
-0.315656
-0.296393
-0.276471
-0.255729
-0.234517
-0.213663
-0.193914
-0.175448
-0.157786
-0.140425
-0.123048
-0.105488
-0.0876718
-0.069288
-0.0446622
-0.0133348
-0.0340156
-0.036027
-0.0367491
-0.0373306
-0.037944
-0.038572
-0.0391794
-0.0397424
-0.0402474
-0.0406869
-0.0410561
-0.0413519
-0.0415719
-0.041715
-0.0417806
-0.0417694
-0.0416827
-0.0415229
-0.041293
-0.0409964
-0.040637
-0.0402187
-0.0397455
-0.0392213
-0.0386497
-0.0380343
-0.0373784
-0.0366849
-0.0359568
-0.0351966
-0.0344066
-0.0335891
-0.0327461
-0.0318794
-0.0309908
-0.0300818
-0.0291538
-0.0282084
-0.0272466
-0.0262698
-0.0252789
-0.0242751
-0.0232593
-0.0222324
-0.0211952
-0.0201486
-0.0190933
-0.0180299
-0.0169592
-0.0158818
-0.0147982
-0.0137091
-0.012615
-0.0115163
-0.0104133
-0.00930626
-0.00819492
-0.00707903
-0.00595864
-0.00483501
-0.00371252
-0.00259837
-0.00145404
0.000213781
0.00453274
-0.373527
-0.353506
-0.333247
-0.312693
-0.29086
-0.268227
-0.24547
-0.223455
-0.2027
-0.183684
-0.166318
-0.150077
-0.134286
-0.118405
-0.102066
-0.0851608
-0.0678921
-0.0510996
-0.0373228
-0.0347204
-0.0342543
-0.034438
-0.0349608
-0.0356663
-0.0364452
-0.0372269
-0.0379707
-0.038655
-0.0392684
-0.0398041
-0.0402579
-0.0406267
-0.0409083
-0.0411016
-0.0412067
-0.0412249
-0.0411586
-0.0410112
-0.0407866
-0.0404893
-0.0401241
-0.0396959
-0.0392092
-0.0386688
-0.0380788
-0.0374434
-0.0367661
-0.0360504
-0.0352995
-0.0345162
-0.0337032
-0.0328627
-0.031997
-0.031108
-0.0301977
-0.0292675
-0.0283192
-0.027354
-0.0263734
-0.0253784
-0.0243703
-0.02335
-0.0223185
-0.0212767
-0.0202255
-0.0191655
-0.0180976
-0.0170224
-0.0159405
-0.0148526
-0.0137591
-0.0126607
-0.0115579
-0.010451
-0.00934015
-0.00822546
-0.00710667
-0.00598354
-0.00485644
-0.003729
-0.00261493
-0.00153906
-0.000450726
0.00093734
-0.373046
-0.351746
-0.329279
-0.305633
-0.28098
-0.255802
-0.231536
-0.209514
-0.189847
-0.172546
-0.157057
-0.142661
-0.12872
-0.114599
-0.0997056
-0.0838542
-0.0674594
-0.0517379
-0.0392847
-0.0339232
-0.0321817
-0.0319769
-0.0324799
-0.0333107
-0.0342678
-0.0352415
-0.0361758
-0.0370445
-0.037835
-0.0385406
-0.0391563
-0.039678
-0.0401027
-0.0404283
-0.0406542
-0.0407813
-0.0408119
-0.0407497
-0.0405992
-0.0403656
-0.0400546
-0.0396717
-0.0392228
-0.0387132
-0.0381481
-0.0375323
-0.0368702
-0.036166
-0.0354233
-0.0346454
-0.0338356
-0.0329964
-0.0321305
-0.0312401
-0.0303273
-0.029394
-0.0284418
-0.0274723
-0.026487
-0.0254871
-0.0244738
-0.0234483
-0.0224116
-0.0213646
-0.0203081
-0.0192431
-0.0181701
-0.0170899
-0.0160032
-0.0149105
-0.0138124
-0.0127095
-0.0116022
-0.010491
-0.00937608
-0.00825769
-0.00713568
-0.00600961
-0.00487891
-0.00374526
-0.00262185
-0.00155371
-0.000631882
2.25775e-05
-0.371902
-0.348086
-0.322446
-0.29437
-0.266531
-0.2396
-0.214881
-0.193846
-0.176026
-0.160912
-0.14766
-0.135342
-0.123416
-0.111225
-0.0979449
-0.083172
-0.066999
-0.050026
-0.0345065
-0.0302311
-0.0289552
-0.0289985
-0.0297443
-0.0308313
-0.0320357
-0.0332348
-0.0343739
-0.0354325
-0.036403
-0.0372808
-0.0380613
-0.0387397
-0.0393114
-0.0397732
-0.0401236
-0.0403627
-0.0404929
-0.0405178
-0.0404428
-0.0402736
-0.0400168
-0.0396792
-0.0392673
-0.0387876
-0.0382462
-0.0376487
-0.0370005
-0.0363061
-0.03557
-0.0347961
-0.033988
-0.0331488
-0.0322813
-0.0313881
-0.0304717
-0.0295339
-0.0285768
-0.0276019
-0.026611
-0.0256052
-0.0245861
-0.0235546
-0.0225119
-0.021459
-0.0203968
-0.019326
-0.0182475
-0.0171619
-0.0160699
-0.0149721
-0.013869
-0.0127612
-0.0116491
-0.0105332
-0.00941381
-0.00829127
-0.00716558
-0.00603631
-0.0049023
-0.0037633
-0.0026289
-0.00154307
-0.00062019
-5.27335e-05
-0.370382
-0.343287
-0.313715
-0.280378
-0.24842
-0.22071
-0.197419
-0.178318
-0.162551
-0.149535
-0.138441
-0.128157
-0.118072
-0.107714
-0.0960767
-0.0825194
-0.0666265
-0.0471972
-0.00985209
-0.0241984
-0.0247565
-0.0255057
-0.0267512
-0.0282511
-0.0297855
-0.031243
-0.0325953
-0.0338441
-0.0349939
-0.0360444
-0.0369915
-0.037829
-0.0385507
-0.0391516
-0.0396289
-0.0399822
-0.0402133
-0.0403263
-0.0403268
-0.0402217
-0.0400185
-0.0397248
-0.0393485
-0.038897
-0.0383775
-0.0377964
-0.0371599
-0.0364735
-0.0357422
-0.0349704
-0.0341621
-0.0333211
-0.0324504
-0.031553
-0.0306314
-0.029688
-0.0287246
-0.0277433
-0.0267457
-0.0257332
-0.0247072
-0.023669
-0.0226196
-0.0215601
-0.0204914
-0.0194144
-0.0183298
-0.0172383
-0.0161406
-0.0150372
-0.0139287
-0.0128156
-0.0116984
-0.0105774
-0.00945319
-0.00832602
-0.00719613
-0.00606329
-0.00492628
-0.00378355
-0.00264013
-0.00153117
-0.000567194
3.33264e-05
-0.368486
-0.337492
-0.304287
-0.268174
-0.233365
-0.203924
-0.181413
-0.164466
-0.151093
-0.140061
-0.130547
-0.121722
-0.11296
-0.103939
-0.0939506
-0.0820261
-0.0676395
-0.0505789
-0.0290659
-0.0222012
-0.0206175
-0.0217124
-0.0236088
-0.0256738
-0.0276093
-0.0293328
-0.0308852
-0.0323123
-0.0336349
-0.034856
-0.0359698
-0.0369676
-0.0378408
-0.0385822
-0.0391875
-0.0396553
-0.0399872
-0.0401874
-0.0402623
-0.0402196
-0.0400678
-0.0398158
-0.0394726
-0.0390467
-0.0385464
-0.0379792
-0.0373519
-0.036671
-0.035942
-0.03517
-0.0343596
-0.0335148
-0.0326391
-0.0317357
-0.0308074
-0.0298568
-0.0288859
-0.0278969
-0.0268914
-0.0258711
-0.0248374
-0.0237915
-0.0227346
-0.0216678
-0.0205921
-0.0195082
-0.0184169
-0.017319
-0.0162151
-0.0151058
-0.0139915
-0.0128728
-0.0117501
-0.0106237
-0.00949418
-0.0083619
-0.00722726
-0.00609033
-0.00495014
-0.00380401
-0.00265037
-0.00150677
-0.000465294
0.00022435
-0.366398
-0.331224
-0.294061
-0.255321
-0.219985
-0.191404
-0.170194
-0.154926
-0.143514
-0.134403
-0.126444
-0.118823
-0.111036
-0.102644
-0.0933261
-0.0825946
-0.0699455
-0.0548218
-0.036807
-0.00712878
-0.0144161
-0.017413
-0.0204467
-0.0232905
-0.0256667
-0.0275994
-0.0292974
-0.0308736
-0.0323571
-0.0337447
-0.0350241
-0.036182
-0.0372063
-0.0380876
-0.0388196
-0.0394002
-0.0398306
-0.0401154
-0.0402616
-0.0402779
-0.0401739
-0.03996
-0.0396462
-0.0392424
-0.0387578
-0.0382009
-0.0375797
-0.0369012
-0.0361717
-0.0353969
-0.0345819
-0.033731
-0.0328482
-0.0319369
-0.0310002
-0.0300408
-0.029061
-0.0280629
-0.0270484
-0.0260192
-0.0249767
-0.0239222
-0.0228571
-0.0217822
-0.0206987
-0.0196073
-0.0185088
-0.017404
-0.0162935
-0.0151778
-0.0140573
-0.0129326
-0.011804
-0.010672
-0.00953682
-0.00839904
-0.00725911
-0.00611732
-0.00497286
-0.00382142
-0.00265202
-0.00145586
-0.000294379
0.000538203
-0.364336
-0.325259
-0.285011
-0.245107
-0.209967
-0.182708
-0.163342
-0.150093
-0.140648
-0.133293
-0.126851
-0.120525
-0.113805
-0.106229
-0.0975631
-0.0876765
-0.0762711
-0.0629478
-0.0476202
-0.0271767
-0.0050217
-0.0133926
-0.0176621
-0.0214622
-0.0242158
-0.026147
-0.0278734
-0.0295588
-0.0311932
-0.0327447
-0.0341881
-0.0355041
-0.0366769
-0.0376945
-0.0385493
-0.039238
-0.039762
-0.0401261
-0.0403382
-0.0404081
-0.0403467
-0.0401656
-0.0398763
-0.0394897
-0.0390163
-0.0384656
-0.0378465
-0.0371668
-0.0364335
-0.0356529
-0.0348304
-0.0339709
-0.0330787
-0.0321574
-0.0312104
-0.0302405
-0.0292501
-0.0282416
-0.0272168
-0.0261775
-0.0251252
-0.0240613
-0.0229869
-0.0219032
-0.0208112
-0.0197117
-0.0186054
-0.0174932
-0.0163755
-0.015253
-0.014126
-0.0129949
-0.0118602
-0.0107222
-0.00958119
-0.00843765
-0.00729205
-0.00614479
-0.00499541
-0.00383949
-0.00266185
-0.00143812
-0.00020755
0.000712644
-0.3624
-0.319863
-0.277324
-0.237042
-0.202878
-0.177486
-0.160297
-0.149179
-0.141767
-0.13631
-0.131541
-0.126615
-0.121223
-0.114721
-0.106957
-0.098085
-0.0876157
-0.0757931
-0.0627703
-0.0470524
-0.0264917
-0.00675785
-0.0156173
-0.0207796
-0.023655
-0.0250091
-0.0265977
-0.0283825
-0.030178
-0.031897
-0.0335026
-0.0349719
-0.0362871
-0.0374341
-0.0384039
-0.0391927
-0.0398019
-0.0402371
-0.040507
-0.0406227
-0.0405965
-0.0404413
-0.0401699
-0.0397945
-0.0393267
-0.0387772
-0.0381555
-0.0374703
-0.0367294
-0.0359394
-0.0351063
-0.0342354
-0.0333313
-0.0323977
-0.0314383
-0.0304561
-0.0294535
-0.0284331
-0.0273967
-0.0263461
-0.0252829
-0.0242085
-0.023124
-0.0220307
-0.0209295
-0.0198212
-0.0187066
-0.0175863
-0.0164611
-0.0153313
-0.0141973
-0.0130597
-0.0119186
-0.0107744
-0.00962738
-0.00847796
-0.00732654
-0.00617368
-0.00502011
-0.003866
-0.00270839
-0.00154567
-0.000434552
0.000354537
-0.360759
-0.315313
-0.271061
-0.230877
-0.198216
-0.174983
-0.160209
-0.151272
-0.145868
-0.142285
-0.139271
-0.135818
-0.132017
-0.126911
-0.120417
-0.112805
-0.103454
-0.0929253
-0.0814024
-0.0673679
-0.0512771
-0.0329697
-0.00663057
-0.0224339
-0.0246719
-0.0238705
-0.0253288
-0.0273521
-0.0293606
-0.0312544
-0.0330162
-0.0346297
-0.0360767
-0.0373416
-0.0384143
-0.0392907
-0.0399729
-0.0404672
-0.0407836
-0.0409347
-0.040934
-0.0407957
-0.040534
-0.0401625
-0.0396936
-0.0391391
-0.0385094
-0.0378139
-0.037061
-0.0362578
-0.0354107
-0.0345253
-0.0336064
-0.0326582
-0.0316842
-0.0306877
-0.0296713
-0.0286373
-0.0275879
-0.0265248
-0.0254496
-0.0243637
-0.0232683
-0.0221645
-0.0210533
-0.0199356
-0.018812
-0.0176833
-0.0165499
-0.0154125
-0.0142713
-0.0131267
-0.011979
-0.0108284
-0.00967536
-0.00852002
-0.00736272
-0.00620403
-0.00504585
-0.00389384
-0.00276171
-0.00168096
-0.000734252
-0.000122973
-0.359066
-0.310833
-0.265574
-0.226507
-0.196069
-0.175008
-0.162275
-0.155409
-0.151836
-0.150027
-0.148714
-0.146744
-0.144587
-0.14099
-0.13592
-0.129756
-0.121842
-0.112705
-0.102154
-0.0892861
-0.0743996
-0.0579258
-0.0385167
-0.0180924
-0.0286699
-0.0210369
-0.0238233
-0.026561
-0.028836
-0.0308862
-0.0327846
-0.0345259
-0.036089
-0.0374552
-0.0386136
-0.0395604
-0.0402987
-0.0408362
-0.0411845
-0.0413573
-0.0413698
-0.0412375
-0.0409757
-0.0405991
-0.0401212
-0.0395548
-0.0389109
-0.0381996
-0.0374297
-0.036609
-0.0357442
-0.034841
-0.0339045
-0.0329389
-0.0319482
-0.0309353
-0.0299032
-0.0288541
-0.0277903
-0.0267134
-0.0256251
-0.0245267
-0.0234194
-0.0223044
-0.0211826
-0.0200547
-0.0189216
-0.0177838
-0.0166419
-0.0154964
-0.0143476
-0.0131957
-0.0120412
-0.0108842
-0.00972492
-0.00856361
-0.00740028
-0.00623519
-0.00507051
-0.00391497
-0.00279304
-0.00175822
-0.000910021
-0.000405583
-0.358215
-0.30856
-0.262384
-0.223337
-0.194656
-0.176319
-0.166006
-0.160906
-0.158901
-0.158556
-0.15868
-0.158183
-0.157469
-0.155299
-0.151756
-0.147109
-0.140779
-0.133084
-0.123555
-0.111981
-0.0983631
-0.0827281
-0.0667076
-0.0522917
-0.0372388
-0.00605963
-0.0227215
-0.0264824
-0.0287664
-0.0308635
-0.0328606
-0.0347088
-0.0363681
-0.0378145
-0.0390363
-0.040031
-0.0408036
-0.041364
-0.0417255
-0.0419035
-0.0419143
-0.0417747
-0.0415011
-0.0411091
-0.0406133
-0.0400269
-0.0393619
-0.0386287
-0.0378367
-0.0369939
-0.0361072
-0.0351826
-0.0342254
-0.0332399
-0.0322299
-0.0311987
-0.030149
-0.0290833
-0.0280035
-0.0269116
-0.025809
-0.0246971
-0.0235772
-0.0224501
-0.0213169
-0.0201783
-0.019035
-0.0178877
-0.0167368
-0.0155828
-0.0144259
-0.0132666
-0.012105
-0.0109413
-0.00977572
-0.00860828
-0.00743865
-0.00626646
-0.00509321
-0.00392807
-0.00279959
-0.0017711
-0.000951078
-0.000481943
-0.35706
-0.305717
-0.259804
-0.223109
-0.196524
-0.179901
-0.171
-0.167214
-0.16633
-0.167131
-0.168283
-0.169169
-0.169482
-0.168714
-0.16679
-0.163586
-0.158961
-0.152711
-0.144587
-0.13445
-0.122122
-0.107495
-0.0918531
-0.0750287
-0.0566621
-0.0334089
-0.0304428
-0.0280919
-0.0291817
-0.0311907
-0.0332775
-0.0352207
-0.0369562
-0.038458
-0.0397161
-0.0407311
-0.0415114
-0.0420698
-0.0424221
-0.0425852
-0.0425768
-0.0424146
-0.0421158
-0.0416968
-0.0411728
-0.0405577
-0.0398639
-0.0391023
-0.0382824
-0.0374125
-0.0364997
-0.0355501
-0.034569
-0.0335607
-0.0325291
-0.0314774
-0.0304084
-0.0293243
-0.0282273
-0.027119
-0.0260011
-0.0248747
-0.0237411
-0.0226012
-0.0214559
-0.0203059
-0.0191519
-0.0179946
-0.0168342
-0.0156713
-0.0145062
-0.013339
-0.01217
-0.0109994
-0.00982735
-0.00865356
-0.00747737
-0.00629765
-0.00511477
-0.00393671
-0.00279152
-0.001744
-0.000906608
-0.000426948
-0.356793
-0.305361
-0.260208
-0.224592
-0.199657
-0.184476
-0.176672
-0.173832
-0.17366
-0.175247
-0.17716
-0.179106
-0.180184
-0.180745
-0.180313
-0.178476
-0.175557
-0.170855
-0.164301
-0.15573
-0.144744
-0.131301
-0.115873
-0.0979575
-0.0778005
-0.0561654
-0.0301943
-0.0271414
-0.0291703
-0.0317525
-0.03406
-0.0361014
-0.0378907
-0.0394197
-0.0406831
-0.0416864
-0.0424432
-0.0429707
-0.0432876
-0.0434129
-0.0433652
-0.0431629
-0.0428239
-0.0423649
-0.0418017
-0.0411483
-0.0404175
-0.0396204
-0.0387666
-0.0378646
-0.0369213
-0.0359429
-0.0349346
-0.0339008
-0.0328452
-0.0317708
-0.0306806
-0.0295766
-0.0284609
-0.0273351
-0.0262007
-0.0250588
-0.0239107
-0.0227572
-0.0215991
-0.0204372
-0.019272
-0.0181041
-0.0169339
-0.0157617
-0.0145879
-0.0134126
-0.012236
-0.0110583
-0.00987941
-0.00869908
-0.00751624
-0.00632919
-0.00513715
-0.00394583
-0.00277865
-0.00169319
-0.000799252
-0.000266848
-0.357006
-0.30644
-0.262402
-0.227793
-0.203968
-0.189703
-0.182735
-0.180487
-0.180824
-0.182761
-0.185154
-0.187702
-0.189597
-0.191147
-0.191813
-0.191424
-0.190014
-0.18707
-0.182187
-0.175297
-0.16594
-0.153826
-0.13906
-0.121197
-0.100368
-0.0770901
-0.0513401
-0.0092295
-0.0291364
-0.0328929
-0.0353298
-0.0373951
-0.0391991
-0.0407245
-0.0419608
-0.0429177
-0.0436162
-0.0440802
-0.0443325
-0.0443942
-0.044285
-0.0440236
-0.043628
-0.0431151
-0.0425007
-0.0417989
-0.0410225
-0.0401826
-0.0392888
-0.0383492
-0.037371
-0.03636
-0.0353214
-0.0342592
-0.0331771
-0.0320781
-0.0309648
-0.0298394
-0.0287036
-0.0275591
-0.0264072
-0.025249
-0.0240855
-0.0229177
-0.0217462
-0.0205717
-0.0193948
-0.0182159
-0.0170354
-0.0158536
-0.0146708
-0.013487
-0.0123026
-0.0111175
-0.00993162
-0.00874462
-0.00755532
-0.00636175
-0.00516219
-0.00395877
-0.00276454
-0.0016167
-0.000610544
3.80853e-05
-0.357492
-0.307805
-0.264812
-0.231482
-0.208782
-0.195431
-0.189109
-0.18719
-0.187827
-0.189887
-0.192462
-0.195204
-0.197724
-0.199884
-0.201489
-0.202278
-0.202283
-0.200973
-0.197915