/*--------------------------------*- C++ -*----------------------------------*\
  =========                 |
  \\      /  F ield         | OpenFOAM: The Open Source CFD Toolbox
   \\    /   O peration     | Website:  https://openfoam.org
    \\  /    A nd           | Version:  6
     \\/     M anipulation  |
\*---------------------------------------------------------------------------*/
FoamFile
{
    version     2.0;
    format      ascii;
    class       volVectorField;
    location    "540";
    object      U;
}
// * * * * * * * * * * * * * * * * * * * * * * * * * * * * * * * * * * * * * //

dimensions      [0 1 -1 0 0 0 0];

internalField   nonuniform List<vector> 
5964
(
(0.00232856 0 -0.00386201)
(-0.0019734 0 0.00118723)
(-0.00445559 0 -0.000830186)
(-0.00519 0 0.000615908)
(-0.00600806 0 -0.000869908)
(-0.00665613 0 -0.00030467)
(-0.00694243 0 -0.000733683)
(-0.00705019 0 -0.000728224)
(-0.00635638 0 -0.00145735)
(-0.00458743 0 -0.00161132)
(-0.00284697 0 -0.00179041)
(-0.00130395 0 -0.00202591)
(-0.00170133 0 -0.00059893)
(-0.000262432 0 -0.00177085)
(-0.00079771 0 -0.000249547)
(-0.000306609 0 -0.000335881)
(-2.68766e-06 0 0.000142156)
(2.95596e-09 0 1.15225e-09)
(5.34261e-09 0 5.3186e-10)
(4.45971e-09 0 2.95899e-10)
(3.93859e-09 0 1.92687e-10)
(3.58203e-09 0 1.41569e-10)
(3.31047e-09 0 1.12943e-10)
(3.08864e-09 0 9.49069e-11)
(2.89942e-09 0 8.23508e-11)
(2.7336e-09 0 7.29343e-11)
(2.58573e-09 0 6.55023e-11)
(2.45225e-09 0 5.94322e-11)
(2.33064e-09 0 5.4357e-11)
(2.21904e-09 0 5.00422e-11)
(2.116e-09 0 4.63276e-11)
(2.02037e-09 0 4.30985e-11)
(1.93119e-09 0 4.02691e-11)
(1.84771e-09 0 3.77736e-11)
(1.76925e-09 0 3.55602e-11)
(1.69527e-09 0 3.35872e-11)
(1.62528e-09 0 3.18205e-11)
(1.55889e-09 0 3.02317e-11)
(1.49573e-09 0 2.8797e-11)
(1.4355e-09 0 2.74964e-11)
(1.37793e-09 0 2.63126e-11)
(1.32279e-09 0 2.52308e-11)
(1.26987e-09 0 2.42384e-11)
(1.219e-09 0 2.33243e-11)
(1.17001e-09 0 2.24792e-11)
(1.12276e-09 0 2.16948e-11)
(1.07715e-09 0 2.09641e-11)
(1.03304e-09 0 2.02809e-11)
(9.90355e-10 0 1.964e-11)
(9.49002e-10 0 1.90369e-11)
(9.08905e-10 0 1.84675e-11)
(8.69995e-10 0 1.79285e-11)
(8.3221e-10 0 1.74171e-11)
(7.95493e-10 0 1.69308e-11)
(7.59794e-10 0 1.64674e-11)
(7.25064e-10 0 1.60252e-11)
(6.91261e-10 0 1.56027e-11)
(6.58342e-10 0 1.51985e-11)
(6.26272e-10 0 1.48116e-11)
(5.95013e-10 0 1.44411e-11)
(5.64531e-10 0 1.40863e-11)
(5.34793e-10 0 1.37465e-11)
(5.05769e-10 0 1.34212e-11)
(4.77428e-10 0 1.31101e-11)
(4.49739e-10 0 1.28129e-11)
(4.22673e-10 0 1.25293e-11)
(3.96202e-10 0 1.22592e-11)
(3.70298e-10 0 1.20025e-11)
(3.4493e-10 0 1.17591e-11)
(3.20073e-10 0 1.15289e-11)
(2.95696e-10 0 1.13121e-11)
(2.71772e-10 0 1.11085e-11)
(2.48272e-10 0 1.09182e-11)
(2.25168e-10 0 1.07411e-11)
(2.02432e-10 0 1.05772e-11)
(1.80036e-10 0 1.04262e-11)
(1.57952e-10 0 1.02876e-11)
(1.36155e-10 0 1.01603e-11)
(1.14622e-10 0 1.00431e-11)
(9.33331e-11 0 9.9345e-12)
(7.22705e-11 0 9.83301e-12)
(5.14203e-11 0 9.73746e-12)
(3.07664e-11 0 9.6506e-12)
(1.02431e-11 0 9.61622e-12)
(-0.00308272 0 0.00340577)
(-0.00453086 0 -0.000896838)
(-0.00291729 0 0.00433511)
(-0.00572362 0 0.000562031)
(-0.00594972 0 0.0021363)
(-0.00664468 0 0.00124262)
(-0.00672985 0 0.0007316)
(-0.00652759 0 -0.000335557)
(-0.00628093 0 -0.000495184)
(-0.0051594 0 -0.00196035)
(-0.00360409 0 -0.00263794)
(-0.00297593 0 -0.00154884)
(-0.00261127 0 0.0010726)
(-0.00124709 0 -0.00117051)
(-0.00112615 0 0.000561242)
(-0.000400634 0 -0.000309396)
(1.08171e-07 0 -0.000438935)
(2.3742e-09 0 2.30623e-09)
(4.54186e-09 0 1.25797e-09)
(4.14334e-09 0 7.7117e-10)
(3.79518e-09 0 5.32349e-10)
(3.50833e-09 0 4.0496e-10)
(3.26764e-09 0 3.29506e-10)
(3.06078e-09 0 2.79867e-10)
(2.87956e-09 0 2.4424e-10)
(2.71849e-09 0 2.16996e-10)
(2.57371e-09 0 1.9524e-10)
(2.44239e-09 0 1.77348e-10)
(2.32239e-09 0 1.62327e-10)
(2.21203e-09 0 1.49522e-10)
(2.10998e-09 0 1.3848e-10)
(2.01515e-09 0 1.28869e-10)
(1.92664e-09 0 1.2044e-10)
(1.84371e-09 0 1.13002e-10)
(1.76573e-09 0 1.06401e-10)
(1.69215e-09 0 1.00515e-10)
(1.62251e-09 0 9.52424e-11)
(1.55642e-09 0 9.05e-11)
(1.49352e-09 0 8.62169e-11)
(1.43352e-09 0 8.23331e-11)
(1.37615e-09 0 7.87975e-11)
(1.32119e-09 0 7.55661e-11)
(1.26843e-09 0 7.2601e-11)
(1.21769e-09 0 6.98696e-11)
(1.16882e-09 0 6.73436e-11)
(1.12168e-09 0 6.49988e-11)
(1.07616e-09 0 6.28139e-11)
(1.03214e-09 0 6.07707e-11)
(9.89533e-10 0 5.88536e-11)
(9.48249e-10 0 5.7049e-11)
(9.08215e-10 0 5.53453e-11)
(8.69363e-10 0 5.37323e-11)
(8.3163e-10 0 5.22016e-11)
(7.94962e-10 0 5.07458e-11)
(7.59308e-10 0 4.93586e-11)
(7.2462e-10 0 4.80347e-11)
(6.90855e-10 0 4.67695e-11)
(6.57974e-10 0 4.55592e-11)
(6.25938e-10 0 4.44007e-11)
(5.94713e-10 0 4.32913e-11)
(5.64263e-10 0 4.22287e-11)
(5.34557e-10 0 4.12112e-11)
(5.05562e-10 0 4.02373e-11)
(4.7725e-10 0 3.93058e-11)
(4.4959e-10 0 3.84159e-11)
(4.22552e-10 0 3.75669e-11)
(3.96109e-10 0 3.67584e-11)
(3.70232e-10 0 3.59899e-11)
(3.44892e-10 0 3.52613e-11)
(3.20061e-10 0 3.45725e-11)
(2.95711e-10 0 3.39235e-11)
(2.71814e-10 0 3.33143e-11)
(2.4834e-10 0 3.27448e-11)
(2.25263e-10 0 3.2215e-11)
(2.02554e-10 0 3.17246e-11)
(1.80184e-10 0 3.12728e-11)
(1.58126e-10 0 3.08583e-11)
(1.36354e-10 0 3.04788e-11)
(1.1484e-10 0 3.01311e-11)
(9.35611e-11 0 2.98119e-11)
(7.24913e-11 0 2.95178e-11)
(5.16118e-11 0 2.92422e-11)
(3.0916e-11 0 2.89827e-11)
(1.03071e-11 0 2.89061e-11)
(-0.00209981 0 0.00454413)
(-0.00292492 0 0.00407092)
(-0.00493621 0 0.0025931)
(-0.00549025 0 0.00234861)
(-0.00640004 0 0.00147764)
(-0.00670445 0 0.00124495)
(-0.00670585 0 -0.000334037)
(-0.0063645 0 -0.0010873)
(-0.00623719 0 -0.0012108)
(-0.00549578 0 -0.00319518)
(-0.00466907 0 -0.00309741)
(-0.00411912 0 -0.000851668)
(-0.00258748 0 -0.00141982)
(-0.000959639 0 -0.00170493)
(-0.000697293 0 -0.000431521)
(-0.000191821 0 -0.000422502)
(-4.50707e-08 0 -0.000742084)
(1.9746e-09 0 2.3071e-09)
(3.9075e-09 0 1.49116e-09)
(3.78247e-09 0 1.02882e-09)
(3.59768e-09 0 7.74257e-10)
(3.39389e-09 0 6.228e-10)
(3.19497e-09 0 5.23423e-10)
(3.0103e-09 0 4.52525e-10)
(2.84193e-09 0 3.98755e-10)
(2.689e-09 0 3.56217e-10)
(2.54981e-09 0 3.21558e-10)
(2.42256e-09 0 2.92712e-10)
(2.30565e-09 0 2.68314e-10)
(2.19771e-09 0 2.47417e-10)
(2.09761e-09 0 2.29335e-10)
(2.00437e-09 0 2.1356e-10)
(1.91719e-09 0 1.99702e-10)
(1.83538e-09 0 1.87454e-10)
(1.75834e-09 0 1.76574e-10)
(1.68558e-09 0 1.66864e-10)
(1.61664e-09 0 1.58161e-10)
(1.55115e-09 0 1.50328e-10)
(1.48879e-09 0 1.4325e-10)
(1.42924e-09 0 1.3683e-10)
(1.37228e-09 0 1.30982e-10)
(1.31767e-09 0 1.25635e-10)
(1.26521e-09 0 1.20728e-10)
(1.21475e-09 0 1.16205e-10)
(1.16612e-09 0 1.1202e-10)
(1.1192e-09 0 1.08135e-10)
(1.07386e-09 0 1.04512e-10)
(1.03001e-09 0 1.01124e-10)
(9.87554e-10 0 9.79436e-11)
(9.46406e-10 0 9.49487e-11)
(9.06494e-10 0 9.21202e-11)
(8.67753e-10 0 8.94417e-11)
(8.30122e-10 0 8.6899e-11)
(7.93547e-10 0 8.448e-11)
(7.57978e-10 0 8.21745e-11)
(7.2337e-10 0 7.99737e-11)
(6.8968e-10 0 7.78702e-11)
(6.56869e-10 0 7.58577e-11)
(6.24899e-10 0 7.39309e-11)
(5.93737e-10 0 7.20855e-11)
(5.63348e-10 0 7.03178e-11)
(5.337e-10 0 6.8625e-11)
(5.04763e-10 0 6.70046e-11)
(4.76506e-10 0 6.54548e-11)
(4.489e-10 0 6.3974e-11)
(4.21916e-10 0 6.25613e-11)
(3.95526e-10 0 6.12158e-11)
(3.69701e-10 0 5.9937e-11)
(3.44413e-10 0 5.87246e-11)
(3.19634e-10 0 5.75785e-11)
(2.95335e-10 0 5.64986e-11)
(2.71489e-10 0 5.54849e-11)
(2.48067e-10 0 5.45374e-11)
(2.25041e-10 0 5.36559e-11)
(2.02382e-10 0 5.28401e-11)
(1.80063e-10 0 5.20888e-11)
(1.58054e-10 0 5.14003e-11)
(1.36328e-10 0 5.07719e-11)
(1.14856e-10 0 5.02001e-11)
(9.36107e-11 0 4.96818e-11)
(7.25624e-11 0 4.92121e-11)
(5.16888e-11 0 4.87752e-11)
(3.09796e-11 0 4.83541e-11)
(1.03329e-11 0 4.82776e-11)
(-0.002025 0 0.00574694)
(-0.00262891 0 0.00511267)
(-0.00441446 0 0.00436689)
(-0.00538343 0 0.00356473)
(-0.00619657 0 0.00261364)
(-0.00656757 0 0.00138465)
(-0.0066489 0 7.96691e-05)
(-0.00644731 0 -0.00182307)
(-0.00596657 0 -0.00227298)
(-0.00550645 0 -0.00347018)
(-0.00498342 0 -0.0039247)
(-0.00232565 0 -0.00481477)
(-0.00301994 0 -0.00296178)
(-0.000692136 0 -0.00313932)
(-0.000688871 0 -0.00153497)
(-3.15513e-05 0 -0.000394427)
(-1.29411e-06 0 -0.000665348)
(1.61218e-09 0 2.30359e-09)
(3.34699e-09 0 1.41424e-09)
(3.47374e-09 0 1.10413e-09)
(3.41657e-09 0 9.2571e-10)
(3.27495e-09 0 7.94974e-10)
(3.10962e-09 0 6.92394e-10)
(2.94539e-09 0 6.10202e-10)
(2.79065e-09 0 5.43469e-10)
(2.6474e-09 0 4.88577e-10)
(2.51538e-09 0 4.4283e-10)
(2.39361e-09 0 4.04227e-10)
(2.28099e-09 0 3.71283e-10)
(2.17649e-09 0 3.42892e-10)
(2.07919e-09 0 3.18217e-10)
(1.98826e-09 0 2.96617e-10)
(1.90302e-09 0 2.77592e-10)
(1.82285e-09 0 2.60746e-10)
(1.74721e-09 0 2.45757e-10)
(1.67565e-09 0 2.32364e-10)
(1.60775e-09 0 2.20346e-10)
(1.54316e-09 0 2.09521e-10)
(1.48157e-09 0 1.99732e-10)
(1.42271e-09 0 1.90845e-10)
(1.36635e-09 0 1.82746e-10)
(1.31226e-09 0 1.75337e-10)
(1.26026e-09 0 1.68532e-10)
(1.2102e-09 0 1.62256e-10)
(1.16193e-09 0 1.56447e-10)
(1.11532e-09 0 1.5105e-10)
(1.07027e-09 0 1.46016e-10)
(1.02667e-09 0 1.41304e-10)
(9.84431e-10 0 1.36878e-10)
(9.43483e-10 0 1.32709e-10)
(9.03751e-10 0 1.2877e-10)
(8.65173e-10 0 1.25037e-10)
(8.27691e-10 0 1.21493e-10)
(7.91252e-10 0 1.18119e-10)
(7.55809e-10 0 1.14903e-10)
(7.21317e-10 0 1.11831e-10)
(6.87737e-10 0 1.08894e-10)
(6.55028e-10 0 1.06084e-10)
(6.23156e-10 0 1.03392e-10)
(5.92087e-10 0 1.00814e-10)
(5.61787e-10 0 9.83432e-11)
(5.32225e-10 0 9.59768e-11)
(5.03371e-10 0 9.37113e-11)
(4.75196e-10 0 9.1544e-11)
(4.4767e-10 0 8.94731e-11)
(4.20765e-10 0 8.7497e-11)
(3.94452e-10 0 8.56147e-11)
(3.68704e-10 0 8.38256e-11)
(3.43493e-10 0 8.21292e-11)
(3.1879e-10 0 8.05255e-11)
(2.94568e-10 0 7.90143e-11)
(2.70798e-10 0 7.75959e-11)
(2.47452e-10 0 7.62701e-11)
(2.24502e-10 0 7.50368e-11)
(2.01918e-10 0 7.38956e-11)
(1.79673e-10 0 7.28455e-11)
(1.57737e-10 0 7.18844e-11)
(1.36081e-10 0 7.10097e-11)
(1.14677e-10 0 7.02183e-11)
(9.34937e-11 0 6.95074e-11)
(7.25023e-11 0 6.88722e-11)
(5.16706e-11 0 6.82925e-11)
(3.09626e-11 0 6.77474e-11)
(1.03175e-11 0 6.76591e-11)
(-0.0013379 0 0.00744907)
(-0.00267028 0 0.00626047)
(-0.00417267 0 0.00508984)
(-0.00605312 0 0.00316715)
(-0.00611734 0 0.00262143)
(-0.00578596 0 0.00197433)
(-0.00597373 0 0.000791668)
(-0.00617335 0 -0.00129712)
(-0.00556085 0 -0.00316569)
(-0.00514624 0 -0.00401138)
(-0.00479174 0 -0.00429665)
(-0.00246698 0 -0.00506416)
(-0.00264546 0 -0.00402698)
(-0.00186301 0 -0.00329834)
(-0.00122223 0 -0.00213229)
(-0.00034411 0 -0.000435997)
(-7.35287e-08 0 -0.000649578)
(1.14214e-09 0 2.15831e-09)
(2.78525e-09 0 8.28828e-10)
(3.326e-09 0 1.06374e-09)
(3.30931e-09 0 1.03524e-09)
(3.17661e-09 0 9.42411e-10)
(3.02317e-09 0 8.43471e-10)
(2.87205e-09 0 7.54325e-10)
(2.7292e-09 0 6.77811e-10)
(2.59588e-09 0 6.12936e-10)
(2.47189e-09 0 5.57857e-10)
(2.35657e-09 0 5.10798e-10)
(2.24917e-09 0 4.70279e-10)
(2.14893e-09 0 4.35126e-10)
(2.05514e-09 0 4.04418e-10)
(1.96716e-09 0 3.7743e-10)
(1.8844e-09 0 3.53586e-10)
(1.80633e-09 0 3.3242e-10)
(1.73251e-09 0 3.13551e-10)
(1.6625e-09 0 2.96664e-10)
(1.59595e-09 0 2.81492e-10)
(1.53254e-09 0 2.67809e-10)
(1.47197e-09 0 2.55424e-10)
(1.41401e-09 0 2.44171e-10)
(1.35842e-09 0 2.33907e-10)
(1.30501e-09 0 2.24509e-10)
(1.25362e-09 0 2.1587e-10)
(1.20409e-09 0 2.07898e-10)
(1.15628e-09 0 2.00512e-10)
(1.11009e-09 0 1.93644e-10)
(1.0654e-09 0 1.87234e-10)
(1.02213e-09 0 1.81229e-10)
(9.80183e-10 0 1.75586e-10)
(9.39496e-10 0 1.70265e-10)
(9e-10 0 1.65234e-10)
(8.61635e-10 0 1.60465e-10)
(8.24347e-10 0 1.55933e-10)
(7.88087e-10 0 1.51617e-10)
(7.52808e-10 0 1.475e-10)
(7.1847e-10 0 1.43567e-10)
(6.85032e-10 0 1.39804e-10)
(6.52458e-10 0 1.36202e-10)
(6.20713e-10 0 1.32751e-10)
(5.89765e-10 0 1.29444e-10)
(5.59582e-10 0 1.26274e-10)
(5.30133e-10 0 1.23237e-10)
(5.01389e-10 0 1.20329e-10)
(4.7332e-10 0 1.17546e-10)
(4.45899e-10 0 1.14886e-10)
(4.19098e-10 0 1.12348e-10)
(3.92888e-10 0 1.0993e-10)
(3.67242e-10 0 1.07631e-10)
(3.42132e-10 0 1.05451e-10)
(3.17531e-10 0 1.03389e-10)
(2.9341e-10 0 1.01447e-10)
(2.69741e-10 0 9.96241e-11)
(2.46496e-10 0 9.79202e-11)
(2.23646e-10 0 9.63355e-11)
(2.01162e-10 0 9.48697e-11)
(1.79016e-10 0 9.35217e-11)
(1.57177e-10 0 9.22898e-11)
(1.35617e-10 0 9.11715e-11)
(1.14305e-10 0 9.01636e-11)
(9.32124e-11 0 8.92636e-11)
(7.23077e-11 0 8.84682e-11)
(5.15512e-11 0 8.77658e-11)
(3.08818e-11 0 8.71493e-11)
(1.02799e-11 0 8.69918e-11)
(-0.00336338 0 0.00886032)
(-0.00172849 0 0.00763405)
(-0.00383421 0 0.00617782)
(-0.00395784 0 0.00571802)
(-0.00507131 0 0.00424579)
(-0.00606338 0 -0.00156945)
(-0.00535785 0 0.000629987)
(-0.00525246 0 -0.00223252)
(-0.00497485 0 -0.00325795)
(-0.00377616 0 -0.00502822)
(-0.00373516 0 -0.00525337)
(-0.00290946 0 -0.00532484)
(-0.00214844 0 -0.00502631)
(-0.00135012 0 -0.00403512)
(-0.00101227 0 -0.00284728)
(-0.000545668 0 -0.00129193)
(0.000302057 0 -0.000750513)
(5.12566e-09 0 3.28671e-08)
(2.19239e-09 0 1.09001e-09)
(3.66734e-09 0 1.25434e-09)
(3.30368e-09 0 1.20108e-09)
(3.09633e-09 0 1.09514e-09)
(2.93455e-09 0 9.85927e-10)
(2.79135e-09 0 8.87361e-10)
(2.65932e-09 0 8.01949e-10)
(2.53611e-09 0 7.28714e-10)
(2.42072e-09 0 6.65864e-10)
(2.31254e-09 0 6.11647e-10)
(2.21103e-09 0 5.64583e-10)
(2.11568e-09 0 5.23474e-10)
(2.02598e-09 0 4.87367e-10)
(1.94145e-09 0 4.55495e-10)
(1.86163e-09 0 4.27238e-10)
(1.78609e-09 0 4.02085e-10)
(1.71444e-09 0 3.79612e-10)
(1.64632e-09 0 3.59463e-10)
(1.58141e-09 0 3.41332e-10)
(1.51942e-09 0 3.2496e-10)
(1.4601e-09 0 3.10124e-10)
(1.40322e-09 0 2.96628e-10)
(1.34858e-09 0 2.84306e-10)
(1.29601e-09 0 2.73012e-10)
(1.24535e-09 0 2.6262e-10)
(1.19647e-09 0 2.53021e-10)
(1.14923e-09 0 2.44119e-10)
(1.10354e-09 0 2.35833e-10)
(1.0593e-09 0 2.28091e-10)
(1.01642e-09 0 2.20833e-10)
(9.74836e-10 0 2.14005e-10)
(9.34468e-10 0 2.07562e-10)
(8.9526e-10 0 2.01465e-10)
(8.57156e-10 0 1.9568e-10)
(8.20107e-10 0 1.90179e-10)
(7.84064e-10 0 1.84937e-10)
(7.48987e-10 0 1.79932e-10)
(7.14836e-10 0 1.75148e-10)
(6.81573e-10 0 1.7057e-10)
(6.49164e-10 0 1.66184e-10)
(6.17576e-10 0 1.6198e-10)
(5.86777e-10 0 1.57949e-10)
(5.56737e-10 0 1.54085e-10)
(5.27427e-10 0 1.50381e-10)
(4.98818e-10 0 1.46833e-10)
(4.70881e-10 0 1.43437e-10)
(4.4359e-10 0 1.4019e-10)
(4.16917e-10 0 1.3709e-10)
(3.90834e-10 0 1.34137e-10)
(3.65315e-10 0 1.31329e-10)
(3.40331e-10 0 1.28666e-10)
(3.15855e-10 0 1.26147e-10)
(2.9186e-10 0 1.23774e-10)
(2.68317e-10 0 1.21546e-10)
(2.45197e-10 0 1.19464e-10)
(2.22473e-10 0 1.17529e-10)
(2.00115e-10 0 1.15739e-10)
(1.78093e-10 0 1.14094e-10)
(1.56378e-10 0 1.12593e-10)
(1.34939e-10 0 1.11234e-10)
(1.13746e-10 0 1.10012e-10)
(9.27673e-11 0 1.08927e-10)
(7.19725e-11 0 1.07976e-10)
(5.13207e-11 0 1.07162e-10)
(3.07479e-11 0 1.06505e-10)
(1.02356e-11 0 1.06249e-10)
(0.00204728 0 0.0110342)
(-0.00265123 0 0.00850253)
(-0.00284547 0 0.00725153)
(-0.0036516 0 0.00587008)
(-0.00418064 0 0.00440849)
(-0.00484767 0 0.00180283)
(-0.00494025 0 0.000642783)
(-0.0037871 0 -0.00366089)
(-0.00507241 0 -0.0025194)
(-0.00291272 0 -0.00546287)
(-0.00321333 0 -0.005547)
(-0.00227071 0 -0.00619025)
(-0.00157572 0 -0.00593156)
(-0.00108855 0 -0.00443283)
(-0.00104016 0 -0.00309531)
(-0.000337458 0 -0.00191695)
(0.00110834 0 -0.0011378)
(3.33148e-06 0 0.000153746)
(1.79372e-09 0 2.04784e-09)
(3.42959e-09 0 1.63539e-09)
(3.1607e-09 0 1.41295e-09)
(2.97597e-09 0 1.25064e-09)
(2.82956e-09 0 1.11902e-09)
(2.70076e-09 0 1.00885e-09)
(2.58162e-09 0 9.15409e-10)
(2.46939e-09 0 8.35391e-10)
(2.36317e-09 0 7.66306e-10)
(2.2626e-09 0 7.06231e-10)
(2.16744e-09 0 6.5367e-10)
(2.07742e-09 0 6.07444e-10)
(1.99225e-09 0 5.66608e-10)
(1.91159e-09 0 5.30395e-10)
(1.8351e-09 0 4.9817e-10)
(1.76243e-09 0 4.69401e-10)
(1.69327e-09 0 4.43637e-10)
(1.62732e-09 0 4.2049e-10)
(1.5643e-09 0 3.99628e-10)
(1.50396e-09 0 3.80763e-10)
(1.44608e-09 0 3.63643e-10)
(1.39047e-09 0 3.48052e-10)
(1.33694e-09 0 3.33799e-10)
(1.28534e-09 0 3.20719e-10)
(1.23554e-09 0 3.0867e-10)
(1.1874e-09 0 2.97526e-10)
(1.14083e-09 0 2.8718e-10)
(1.09573e-09 0 2.77538e-10)
(1.05201e-09 0 2.68519e-10)
(1.0096e-09 0 2.60053e-10)
(9.68422e-10 0 2.52081e-10)
(9.28427e-10 0 2.4455e-10)
(8.89555e-10 0 2.37416e-10)
(8.51757e-10 0 2.30641e-10)
(8.14985e-10 0 2.24192e-10)
(7.79198e-10 0 2.18042e-10)
(7.44357e-10 0 2.12166e-10)
(7.10425e-10 0 2.06545e-10)
(6.77368e-10 0 2.01161e-10)
(6.45153e-10 0 1.96001e-10)
(6.13749e-10 0 1.91052e-10)
(5.83127e-10 0 1.86305e-10)
(5.53256e-10 0 1.81751e-10)
(5.2411e-10 0 1.77384e-10)
(4.95661e-10 0 1.732e-10)
(4.67882e-10 0 1.69193e-10)
(4.40745e-10 0 1.65361e-10)
(4.14224e-10 0 1.61702e-10)
(3.88292e-10 0 1.58214e-10)
(3.62923e-10 0 1.54898e-10)
(3.38089e-10 0 1.51751e-10)
(3.13764e-10 0 1.48776e-10)
(2.89919e-10 0 1.45971e-10)
(2.66526e-10 0 1.43339e-10)
(2.43558e-10 0 1.40879e-10)
(2.20985e-10 0 1.38593e-10)
(1.98778e-10 0 1.36479e-10)
(1.76907e-10 0 1.34539e-10)
(1.55341e-10 0 1.3277e-10)
(1.3405e-10 0 1.31172e-10)
(1.13002e-10 0 1.2974e-10)
(9.21658e-11 0 1.28473e-10)
(7.15071e-11 0 1.27372e-10)
(5.09882e-11 0 1.2645e-10)
(3.05589e-11 0 1.25748e-10)
(1.01798e-11 0 1.25413e-10)
(-0.00288018 0 0.0114153)
(-0.00158937 0 0.01006)
(-0.00188101 0 0.00806519)
(-0.00282002 0 0.00615638)
(-0.00305249 0 0.00392365)
(-0.00311916 0 0.00198485)
(-0.00369922 0 -0.000543245)
(-0.00276782 0 -0.00340683)
(-0.00392397 0 -0.00340837)
(-0.00196108 0 -0.00605039)
(-0.00157011 0 -0.00664728)
(-0.00134558 0 -0.00676996)
(-0.000851024 0 -0.00641354)
(-0.00034365 0 -0.00477869)
(-0.0010032 0 -0.00317607)
(-0.000520319 0 -0.00196485)
(-0.000527308 0 -0.000789034)
(-1.23261e-05 0 0.00146681)
(1.57306e-09 0 2.28428e-09)
(3.07289e-09 0 1.84917e-09)
(2.94412e-09 0 1.57191e-09)
(2.82201e-09 0 1.37918e-09)
(2.7091e-09 0 1.23327e-09)
(2.60163e-09 0 1.11569e-09)
(2.49779e-09 0 1.0171e-09)
(2.39735e-09 0 9.32488e-10)
(2.3006e-09 0 8.58854e-10)
(2.20785e-09 0 7.94232e-10)
(2.11928e-09 0 7.37206e-10)
(2.03488e-09 0 6.86688e-10)
(1.95454e-09 0 6.41796e-10)
(1.87805e-09 0 6.01797e-10)
(1.80518e-09 0 5.66071e-10)
(1.73568e-09 0 5.3408e-10)
(1.66928e-09 0 5.05362e-10)
(1.60574e-09 0 4.7951e-10)
(1.54483e-09 0 4.56169e-10)
(1.48634e-09 0 4.35029e-10)
(1.43008e-09 0 4.15817e-10)
(1.37589e-09 0 3.98296e-10)
(1.3236e-09 0 3.82256e-10)
(1.2731e-09 0 3.67516e-10)
(1.22426e-09 0 3.53919e-10)
(1.17697e-09 0 3.41325e-10)
(1.13115e-09 0 3.29617e-10)
(1.08671e-09 0 3.1869e-10)
(1.04357e-09 0 3.08455e-10)
(1.00168e-09 0 2.98835e-10)
(9.60979e-10 0 2.89763e-10)
(9.21405e-10 0 2.81184e-10)
(8.82913e-10 0 2.73046e-10)
(8.45459e-10 0 2.6531e-10)
(8.09003e-10 0 2.57938e-10)
(7.73506e-10 0 2.509e-10)
(7.38933e-10 0 2.44171e-10)
(7.05251e-10 0 2.37727e-10)
(6.72428e-10 0 2.31551e-10)
(6.40435e-10 0 2.25627e-10)
(6.09242e-10 0 2.19943e-10)
(5.78821e-10 0 2.14486e-10)
(5.49145e-10 0 2.09249e-10)
(5.20187e-10 0 2.04224e-10)
(4.91922e-10 0 1.99407e-10)
(4.64323e-10 0 1.94792e-10)
(4.37364e-10 0 1.90377e-10)
(4.11019e-10 0 1.8616e-10)
(3.85262e-10 0 1.82139e-10)
(3.60067e-10 0 1.78314e-10)
(3.35408e-10 0 1.74685e-10)
(3.11257e-10 0 1.71252e-10)
(2.87587e-10 0 1.68017e-10)
(2.6437e-10 0 1.64979e-10)
(2.41578e-10 0 1.62141e-10)
(2.19181e-10 0 1.59503e-10)
(1.97152e-10 0 1.57066e-10)
(1.75458e-10 0 1.54831e-10)
(1.54069e-10 0 1.52796e-10)
(1.32954e-10 0 1.5096e-10)
(1.1208e-10 0 1.49321e-10)
(9.14148e-11 0 1.47877e-10)
(7.09234e-11 0 1.4663e-10)
(5.05699e-11 0 1.45599e-10)
(3.03141e-11 0 1.44835e-10)
(1.01026e-11 0 1.44454e-10)
(-0.00208716 0 0.012191)
(-0.000584804 0 0.0108196)
(-0.00163287 0 0.00846583)
(-0.002232 0 0.00646168)
(-0.00164397 0 0.0045266)
(-0.00215286 0 0.00279095)
(-0.00277372 0 0.0015955)
(-0.00126798 0 -0.0038424)
(-0.00214163 0 -0.00428337)
(0.000268997 0 -0.00637545)
(0.000288473 0 -0.00710238)
(0.000443015 0 -0.00712243)
(0.000127289 0 -0.00663207)
(0.000649899 0 -0.00490843)
(-0.000262735 0 -0.00312244)
(-0.000569768 0 -0.00182818)
(-0.000356685 0 -0.00101025)
(-6.80399e-06 0 0.000196899)
(1.39236e-09 0 2.29578e-09)
(2.76438e-09 0 1.92465e-09)
(2.72202e-09 0 1.6568e-09)
(2.66004e-09 0 1.46672e-09)
(2.58384e-09 0 1.32273e-09)
(2.49925e-09 0 1.20588e-09)
(2.41091e-09 0 1.10656e-09)
(2.32199e-09 0 1.01997e-09)
(2.23444e-09 0 9.43503e-10)
(2.14939e-09 0 8.75572e-10)
(2.06741e-09 0 8.15036e-10)
(1.98873e-09 0 7.60996e-10)
(1.9134e-09 0 7.12688e-10)
(1.84131e-09 0 6.69449e-10)
(1.7723e-09 0 6.30689e-10)
(1.70619e-09 0 5.95884e-10)
(1.64277e-09 0 5.64567e-10)
(1.58185e-09 0 5.36319e-10)
(1.52323e-09 0 5.10771e-10)
(1.46676e-09 0 4.87595e-10)
(1.41227e-09 0 4.665e-10)
(1.35963e-09 0 4.47231e-10)
(1.30871e-09 0 4.29564e-10)
(1.25941e-09 0 4.13303e-10)
(1.21162e-09 0 3.98278e-10)
(1.16526e-09 0 3.8434e-10)
(1.12026e-09 0 3.7136e-10)
(1.07654e-09 0 3.59226e-10)
(1.03405e-09 0 3.47843e-10)
(9.92738e-10 0 3.37127e-10)
(9.52548e-10 0 3.27007e-10)
(9.13437e-10 0 3.17422e-10)
(8.75363e-10 0 3.08318e-10)
(8.38291e-10 0 2.99652e-10)
(8.02183e-10 0 2.91384e-10)
(7.67007e-10 0 2.83482e-10)
(7.32731e-10 0 2.75919e-10)
(6.99327e-10 0 2.6867e-10)
(6.66765e-10 0 2.61715e-10)
(6.35018e-10 0 2.55039e-10)
(6.0406e-10 0 2.48628e-10)
(5.73865e-10 0 2.4247e-10)
(5.44407e-10 0 2.36555e-10)
(5.15662e-10 0 2.30878e-10)
(4.87604e-10 0 2.25432e-10)
(4.60208e-10 0 2.20212e-10)
(4.3345e-10 0 2.15216e-10)
(4.07304e-10 0 2.10442e-10)
(3.81745e-10 0 2.05889e-10)
(3.56748e-10 0 2.01556e-10)
(3.32286e-10 0 1.97444e-10)
(3.08334e-10 0 1.93554e-10)
(2.84863e-10 0 1.89886e-10)
(2.61846e-10 0 1.86443e-10)
(2.39256e-10 0 1.83226e-10)
(2.17062e-10 0 1.80236e-10)
(1.95236e-10 0 1.77476e-10)
(1.73747e-10 0 1.74945e-10)
(1.52562e-10 0 1.72644e-10)
(1.31652e-10 0 1.70572e-10)
(1.10981e-10 0 1.68727e-10)
(9.05175e-11 0 1.67109e-10)
(7.02254e-11 0 1.6572e-10)
(5.00705e-11 0 1.6458e-10)
(3.00165e-11 0 1.63743e-10)
(1.0005e-11 0 1.63332e-10)
(0.000241547 0 0.0131044)
(-0.000794085 0 0.0107784)
(-0.00171156 0 0.00888409)
(-0.00136682 0 0.00692129)
(-0.00151439 0 0.00444866)
(-0.00213224 0 0.00217881)
(-0.00167944 0 0.00092923)
(-0.00116711 0 -0.00311217)
(-0.000859263 0 -0.00443887)
(0.00244696 0 -0.00591027)
(0.00184773 0 -0.00709945)
(0.00174937 0 -0.00707246)
(0.000942126 0 -0.00660458)
(0.00108737 0 -0.00491873)
(-0.00034349 0 -0.00290473)
(-0.000607698 0 -0.00142158)
(-0.000514558 0 -0.000714359)
(-2.98946e-06 0 -0.00100289)
(1.2243e-09 0 2.29755e-09)
(2.47764e-09 0 1.91016e-09)
(2.51728e-09 0 1.67378e-09)
(2.51056e-09 0 1.51398e-09)
(2.4659e-09 0 1.38847e-09)
(2.40007e-09 0 1.28076e-09)
(2.32445e-09 0 1.18489e-09)
(2.24534e-09 0 1.09857e-09)
(2.16602e-09 0 1.02067e-09)
(2.08816e-09 0 9.50425e-10)
(2.01257e-09 0 8.87166e-10)
(1.93961e-09 0 8.30269e-10)
(1.86937e-09 0 7.79127e-10)
(1.80182e-09 0 7.33162e-10)
(1.73685e-09 0 6.91829e-10)
(1.67431e-09 0 6.54619e-10)
(1.61405e-09 0 6.21068e-10)
(1.55592e-09 0 5.9075e-10)
(1.49976e-09 0 5.63283e-10)
(1.44544e-09 0 5.38324e-10)
(1.39285e-09 0 5.1557e-10)
(1.34187e-09 0 4.9475e-10)
(1.29241e-09 0 4.75627e-10)
(1.24439e-09 0 4.57996e-10)
(1.19773e-09 0 4.41673e-10)
(1.15236e-09 0 4.26503e-10)
(1.10824e-09 0 4.1235e-10)
(1.0653e-09 0 3.99095e-10)
(1.02351e-09 0 3.86636e-10)
(9.8281e-10 0 3.74888e-10)
(9.43174e-10 0 3.63773e-10)
(9.04561e-10 0 3.53229e-10)
(8.6694e-10 0 3.43199e-10)
(8.30279e-10 0 3.33637e-10)
(7.94549e-10 0 3.24502e-10)
(7.59721e-10 0 3.15761e-10)
(7.25769e-10 0 3.07384e-10)
(6.92667e-10 0 2.99347e-10)
(6.6039e-10 0 2.91629e-10)
(6.28914e-10 0 2.84213e-10)
(5.98214e-10 0 2.77086e-10)
(5.68267e-10 0 2.70234e-10)
(5.3905e-10 0 2.6365e-10)
(5.10538e-10 0 2.57325e-10)
(4.82709e-10 0 2.51253e-10)
(4.55539e-10 0 2.45432e-10)
(4.29004e-10 0 2.39857e-10)
(4.03079e-10 0 2.34528e-10)
(3.77741e-10 0 2.29443e-10)
(3.52965e-10 0 2.24602e-10)
(3.28725e-10 0 2.20006e-10)
(3.04994e-10 0 2.15658e-10)
(2.81747e-10 0 2.11557e-10)
(2.58956e-10 0 2.07707e-10)
(2.36592e-10 0 2.0411e-10)
(2.14627e-10 0 2.00768e-10)
(1.93031e-10 0 1.97682e-10)
(1.71773e-10 0 1.94855e-10)
(1.50821e-10 0 1.92288e-10)
(1.30144e-10 0 1.8998e-10)
(1.09707e-10 0 1.87931e-10)
(8.94749e-11 0 1.8614e-10)
(6.94139e-11 0 1.84611e-10)
(4.94899e-11 0 1.83362e-10)
(2.9669e-11 0 1.82447e-10)
(9.88995e-12 0 1.82013e-10)
(-0.000562183 0 0.0132216)
(-0.000845541 0 0.010985)
(-0.000794932 0 0.00957196)
(-0.000698391 0 0.00716667)
(-0.000951879 0 0.0046094)
(-0.000830431 0 0.00269583)
(0.000722471 0 -0.00151847)
(0.000905855 0 -0.00305769)
(0.00358989 0 -0.00396087)
(0.00234567 0 -0.00670465)
(0.00232409 0 -0.00751921)
(0.00242326 0 -0.0072393)
(0.00179839 0 -0.00645801)
(0.00197801 0 -0.00461303)
(0.00184616 0 -0.00221039)
(0.000679483 0 -0.00133281)
(0.000154678 0 -0.00034965)
(7.97666e-07 0 -0.000916851)
(1.02917e-09 0 2.29862e-09)
(2.18373e-09 0 1.76394e-09)
(2.35313e-09 0 1.62395e-09)
(2.39424e-09 0 1.53138e-09)
(2.36643e-09 0 1.4387e-09)
(2.30938e-09 0 1.3453e-09)
(2.24094e-09 0 1.25489e-09)
(2.16877e-09 0 1.16981e-09)
(2.09623e-09 0 1.09113e-09)
(2.02487e-09 0 1.01914e-09)
(1.95538e-09 0 9.53707e-10)
(1.88805e-09 0 8.94483e-10)
(1.82295e-09 0 8.41013e-10)
(1.76004e-09 0 7.928e-10)
(1.69924e-09 0 7.49337e-10)
(1.64042e-09 0 7.10131e-10)
(1.58346e-09 0 6.74717e-10)
(1.52824e-09 0 6.42665e-10)
(1.47466e-09 0 6.13579e-10)
(1.42261e-09 0 5.87106e-10)
(1.372e-09 0 5.62928e-10)
(1.32277e-09 0 5.40765e-10)
(1.27485e-09 0 5.2037e-10)
(1.22817e-09 0 5.01526e-10)
(1.1827e-09 0 4.84045e-10)
(1.13838e-09 0 4.67763e-10)
(1.09518e-09 0 4.5254e-10)
(1.05307e-09 0 4.38253e-10)
(1.012e-09 0 4.24797e-10)
(9.71957e-10 0 4.12082e-10)
(9.32905e-10 0 4.0003e-10)
(8.94821e-10 0 3.88575e-10)
(8.57679e-10 0 3.77661e-10)
(8.21455e-10 0 3.67239e-10)
(7.86127e-10 0 3.57268e-10)
(7.51671e-10 0 3.47713e-10)
(7.18065e-10 0 3.38544e-10)
(6.85288e-10 0 3.29738e-10)
(6.53318e-10 0 3.21272e-10)
(6.22133e-10 0 3.13129e-10)
(5.91712e-10 0 3.05295e-10)
(5.62035e-10 0 2.97759e-10)
(5.33078e-10 0 2.90511e-10)
(5.04821e-10 0 2.83544e-10)
(4.77242e-10 0 2.76852e-10)
(4.50318e-10 0 2.70431e-10)
(4.24027e-10 0 2.6428e-10)
(3.98346e-10 0 2.58396e-10)
(3.73251e-10 0 2.52779e-10)
(3.48718e-10 0 2.4743e-10)
(3.24722e-10 0 2.4235e-10)
(3.01238e-10 0 2.37542e-10)
(2.78238e-10 0 2.33007e-10)
(2.55697e-10 0 2.28748e-10)
(2.33585e-10 0 2.24769e-10)
(2.11875e-10 0 2.21073e-10)
(1.90536e-10 0 2.17661e-10)
(1.69536e-10 0 2.14537e-10)
(1.48846e-10 0 2.11701e-10)
(1.2843e-10 0 2.09157e-10)
(1.08256e-10 0 2.06903e-10)
(8.82871e-11 0 2.04941e-10)
(6.8489e-11 0 2.03273e-10)
(4.88282e-11 0 2.01915e-10)
(2.92725e-11 0 2.00918e-10)
(9.75847e-12 0 2.00463e-10)
(-0.00125487 0 0.0131581)
(-0.000374403 0 0.0115553)
(-0.00116023 0 0.00942255)
(-0.00105853 0 0.00691101)
(-0.00058174 0 0.00430994)
(-0.000402719 0 0.00205879)
(0.000684488 0 -0.00129829)
(0.000377966 0 -0.0041262)
(0.000975698 0 -0.00669126)
(0.00257175 0 -0.00805862)
(0.00331194 0 -0.00786573)
(0.00346323 0 -0.00725448)
(0.00213534 0 -0.0064333)
(0.00206816 0 -0.0039611)
(-0.000633544 0 -0.00114318)
(-3.13254e-05 0 -0.00022683)
(-0.000204459 0 0.000107263)
(-1.7441e-07 0 -0.00095053)
(7.24057e-10 0 2.11716e-09)
(1.84861e-09 0 1.27181e-09)
(2.30121e-09 0 1.53283e-09)
(2.33819e-09 0 1.54905e-09)
(2.29243e-09 0 1.48967e-09)
(2.22852e-09 0 1.4073e-09)
(2.16059e-09 0 1.32022e-09)
(2.09241e-09 0 1.23544e-09)
(2.02532e-09 0 1.15572e-09)
(1.95985e-09 0 1.0821e-09)
(1.89622e-09 0 1.01479e-09)
(1.83446e-09 0 9.5363e-10)
(1.77455e-09 0 8.98269e-10)
(1.71638e-09 0 8.48251e-10)
(1.65985e-09 0 8.0309e-10)
(1.60487e-09 0 7.62296e-10)
(1.55132e-09 0 7.25399e-10)
(1.49912e-09 0 6.91957e-10)
(1.4482e-09 0 6.61565e-10)
(1.3985e-09 0 6.33856e-10)
(1.34995e-09 0 6.08502e-10)
(1.30253e-09 0 5.85213e-10)
(1.25619e-09 0 5.63735e-10)
(1.21091e-09 0 5.43844e-10)
(1.16666e-09 0 5.25349e-10)
(1.12343e-09 0 5.08081e-10)
(1.08118e-09 0 4.91896e-10)
(1.03992e-09 0 4.76669e-10)
(9.99606e-10 0 4.62295e-10)
(9.60237e-10 0 4.48682e-10)
(9.21793e-10 0 4.35752e-10)
(8.84259e-10 0 4.23437e-10)
(8.47617e-10 0 4.11681e-10)
(8.11851e-10 0 4.00436e-10)
(7.76944e-10 0 3.8966e-10)
(7.42879e-10 0 3.79317e-10)
(7.09638e-10 0 3.6938e-10)
(6.77205e-10 0 3.59822e-10)
(6.4556e-10 0 3.50624e-10)
(6.14686e-10 0 3.41767e-10)
(5.84563e-10 0 3.33238e-10)
(5.55174e-10 0 3.25026e-10)
(5.26498e-10 0 3.17121e-10)
(4.98515e-10 0 3.09517e-10)
(4.71205e-10 0 3.02208e-10)
(4.44548e-10 0 2.9519e-10)
(4.18522e-10 0 2.88463e-10)
(3.93105e-10 0 2.82025e-10)
(3.68274e-10 0 2.75877e-10)
(3.44007e-10 0 2.70019e-10)
(3.20277e-10 0 2.64453e-10)
(2.97062e-10 0 2.59183e-10)
(2.74334e-10 0 2.54212e-10)
(2.52068e-10 0 2.49543e-10)
(2.30234e-10 0 2.4518e-10)
(2.08804e-10 0 2.41126e-10)
(1.87748e-10 0 2.37386e-10)
(1.67036e-10 0 2.33962e-10)
(1.46634e-10 0 2.30858e-10)
(1.2651e-10 0 2.28076e-10)
(1.06628e-10 0 2.25617e-10)
(8.69541e-11 0 2.23483e-10)
(6.74507e-11 0 2.21675e-10)
(4.80852e-11 0 2.20207e-10)
(2.88274e-11 0 2.19125e-10)
(9.61084e-12 0 2.18652e-10)
(-0.00147692 0 0.0134336)
(0.000642051 0 0.0121841)
(-0.000653029 0 0.00931658)
(-0.000185699 0 0.00677013)
(5.32704e-05 0 0.00434837)
(0.00130813 0 -0.000569034)
(0.00164966 0 -0.00217148)
(0.00256339 0 -0.00414675)
(0.00411349 0 -0.00637297)
(0.00429519 0 -0.00790221)
(0.00413506 0 -0.00786468)
(0.00372101 0 -0.00736321)
(0.00346194 0 -0.00580912)
(0.00247618 0 -0.00353216)
(2.91426e-05 0 -0.000876522)
(0.000361256 0 -7.23763e-05)
(-0.000149898 0 0.000116736)
(0.000226483 0 -0.00116623)
(3.70555e-09 0 7.6548e-08)
(1.47491e-09 0 1.53259e-09)
(2.61375e-09 0 1.65686e-09)
(2.35446e-09 0 1.63318e-09)
(2.23413e-09 0 1.5609e-09)
(2.15103e-09 0 1.47344e-09)
(2.08029e-09 0 1.38355e-09)
(2.01498e-09 0 1.29662e-09)
(1.95288e-09 0 1.21495e-09)
(1.89314e-09 0 1.13949e-09)
(1.83534e-09 0 1.07045e-09)
(1.77921e-09 0 1.00767e-09)
(1.72456e-09 0 9.50812e-10)
(1.67123e-09 0 8.99416e-10)
(1.61909e-09 0 8.52986e-10)
(1.56803e-09 0 8.11019e-10)
(1.51797e-09 0 7.73026e-10)
(1.46887e-09 0 7.38551e-10)
(1.42067e-09 0 7.07174e-10)
(1.37336e-09 0 6.78517e-10)
(1.32692e-09 0 6.52242e-10)
(1.28133e-09 0 6.28052e-10)
(1.23661e-09 0 6.05687e-10)
(1.19275e-09 0 5.84921e-10)
(1.14974e-09 0 5.65559e-10)
(1.10761e-09 0 5.47431e-10)
(1.06633e-09 0 5.30394e-10)
(1.02593e-09 0 5.14323e-10)
(9.86389e-10 0 4.99112e-10)
(9.4771e-10 0 4.84671e-10)
(9.09889e-10 0 4.70921e-10)