/*--------------------------------*- C++ -*----------------------------------*\
  =========                 |
  \\      /  F ield         | OpenFOAM: The Open Source CFD Toolbox
   \\    /   O peration     | Website:  https://openfoam.org
    \\  /    A nd           | Version:  6
     \\/     M anipulation  |
\*---------------------------------------------------------------------------*/
FoamFile
{
    version     2.0;
    format      ascii;
    class       surfaceScalarField;
    location    "9300";
    object      phi;
}
// * * * * * * * * * * * * * * * * * * * * * * * * * * * * * * * * * * * * * //

dimensions      [0 3 -1 0 0 0 0];

internalField   nonuniform List<scalar> 
9440
(
3.58199e-13
-3.58199e-13
7.06517e-13
-3.48349e-13
1.04541e-12
-3.38918e-13
1.36437e-12
-3.18979e-13
1.65863e-12
-2.9429e-13
1.92566e-12
-2.67054e-13
2.16375e-12
-2.38107e-13
2.37221e-12
-2.08482e-13
2.55132e-12
-1.7913e-13
2.70201e-12
-1.50712e-13
2.82557e-12
-1.23586e-13
2.92355e-12
-9.79937e-14
2.99796e-12
-7.44387e-14
3.0503e-12
-5.23637e-14
3.08254e-12
-3.22614e-14
3.09672e-12
-1.41927e-14
3.08995e-12
6.7455e-15
3.07103e-12
1.89021e-14
3.03928e-12
3.17282e-14
2.99647e-12
4.27939e-14
2.94084e-12
5.56071e-14
2.8784e-12
6.24236e-14
2.80956e-12
6.88293e-14
2.73503e-12
7.45127e-14
2.65684e-12
7.81725e-14
2.57522e-12
8.16055e-14
2.4917e-12
8.35062e-14
2.40786e-12
8.38318e-14
2.32405e-12
8.37915e-14
2.24085e-12
8.31876e-14
2.15899e-12
8.18492e-14
2.07899e-12
7.99863e-14
2.00113e-12
7.78571e-14
1.92576e-12
7.53581e-14
1.85313e-12
7.26311e-14
1.78306e-12
7.00603e-14
1.7157e-12
6.73557e-14
1.65084e-12
6.4864e-14
1.58853e-12
6.23084e-14
1.52864e-12
5.98897e-14
1.47094e-12
5.77029e-14
1.41529e-12
5.56454e-14
1.36156e-12
5.37369e-14
1.30969e-12
5.18711e-14
1.25929e-12
5.0406e-14
1.21041e-12
4.88912e-14
1.16252e-12
4.78975e-14
1.11603e-12
4.65049e-14
1.07061e-12
4.54333e-14
1.02628e-12
4.43445e-14
9.82965e-13
4.33211e-14
9.40426e-13
4.25536e-14
8.98674e-13
4.17681e-14
8.57771e-13
4.09198e-14
8.17585e-13
4.02048e-14
7.78233e-13
3.9372e-14
7.39588e-13
3.86656e-14
7.01761e-13
3.78499e-14
6.6449e-13
3.72949e-14
6.27959e-13
3.6555e-14
5.92197e-13
3.57883e-14
5.57207e-13
3.50159e-14
5.22909e-13
3.43249e-14
4.89318e-13
3.36182e-14
4.56416e-13
3.29311e-14
4.24284e-13
3.21629e-14
3.92843e-13
3.14735e-14
3.62084e-13
3.07891e-14
3.31977e-13
3.01396e-14
3.02741e-13
2.92681e-14
2.74381e-13
2.83966e-14
2.47029e-13
2.73863e-14
2.21105e-13
2.596e-14
1.9761e-13
2.3531e-14
1.7987e-13
1.7779e-14
1.7874e-13
1.16635e-15
2.2988e-13
-5.11028e-14
1.24372e-13
1.05548e-13
-2.39418e-17
1.24433e-13
8.669e-22
6.88229e-22
8.66937e-22
2.17135e-24
8.6337e-22
3.67061e-24
8.6032e-22
6.04876e-24
8.54374e-22
8.5303e-24
8.45637e-22
1.10635e-23
8.34057e-22
1.34934e-23
8.19736e-22
1.5613e-23
8.03141e-22
1.77327e-23
7.84167e-22
1.94904e-23
7.63384e-22
2.11965e-23
7.4074e-22
2.25407e-23
7.167e-22
2.37297e-23
6.91368e-22
2.46603e-23
6.65053e-22
2.54358e-23
6.38067e-22
2.61079e-23
6.10253e-22
2.65215e-23
5.82335e-22
2.68317e-23
5.53953e-22
2.69351e-23
5.25518e-22
2.69351e-23
4.96929e-22
2.678e-23
4.6865e-22
2.65215e-23
4.4037e-22
2.61079e-23
4.12401e-22
2.5746e-23
3.84898e-22
2.53841e-23
3.57445e-22
2.49188e-23
3.30614e-22
2.44535e-23
3.04247e-22
2.38848e-23
2.7814e-22
2.32645e-23
2.52807e-22
2.26958e-23
2.27785e-22
2.20754e-23
2.03176e-22
2.15584e-23
1.79136e-22
2.11965e-23
1.55407e-22
2.07829e-23
1.32142e-22
2.02659e-23
1.09188e-22
1.9904e-23
8.66472e-23
1.96455e-23
6.4365e-23
1.93353e-23
4.23413e-23
1.90252e-23
2.07312e-23
1.86633e-23
1.77327e-23
3.66377e-13
-7.24608e-13
7.23872e-13
-7.0589e-13
1.06599e-12
-6.8108e-13
1.38828e-12
-6.41312e-13
1.68543e-12
-5.91479e-13
1.95409e-12
-5.35756e-13
2.19271e-12
-4.76767e-13
2.40089e-12
-4.1671e-13
2.57912e-12
-3.57401e-13
2.72844e-12
-3.00065e-13
2.85042e-12
-2.45603e-13
2.9468e-12
-1.94416e-13
3.01953e-12
-1.47201e-13
3.07007e-12
-1.02951e-13
3.10112e-12
-6.33409e-14
3.11248e-12
-2.55952e-14
3.10439e-12
1.48026e-14
3.0843e-12
3.8962e-14
3.05114e-12
6.4854e-14
3.00603e-12
8.78765e-14
2.94933e-12
1.12265e-13
2.88534e-12
1.26383e-13
2.8151e-12
1.39043e-13
2.73912e-12
1.50462e-13
2.65986e-12
1.57405e-13
2.57701e-12
1.64433e-13
2.49253e-12
1.67969e-13
2.40787e-12
1.6847e-13
2.3233e-12
1.68338e-13
2.23952e-12
1.66949e-13
2.15723e-12
1.64127e-13
2.07689e-12
1.60311e-13
1.99875e-12
1.55983e-13
1.92327e-12
1.50834e-13
1.85045e-12
1.45441e-13
1.78041e-12
1.40095e-13
1.71306e-12
1.34698e-13
1.64839e-12
1.29532e-13
1.58617e-12
1.24526e-13
1.52645e-12
1.19615e-13
1.4688e-12
1.15354e-13
1.4134e-12
1.11051e-13
1.35989e-12
1.07256e-13
1.30807e-12
1.03708e-13
1.25781e-12
1.00678e-13
1.20912e-12
9.76021e-14
1.16143e-12
9.55965e-14
1.11495e-12
9.30033e-14
1.06976e-12
9.06501e-14
1.02547e-12
8.86519e-14
9.82236e-13
8.65876e-14
9.3974e-13
8.5078e-14
8.97995e-13
8.35443e-14
8.5717e-13
8.17802e-14
8.16985e-13
8.04241e-14
7.77612e-13
7.87811e-14
7.3899e-13
7.73296e-14
7.01097e-13
7.57838e-14
6.63853e-13
7.45834e-14
6.27341e-13
7.31142e-14
5.9159e-13
7.15869e-14
5.56651e-13
7.00038e-14
5.22386e-13
6.86411e-14
4.88787e-13
6.7273e-14
4.55932e-13
6.584e-14
4.23806e-13
6.43416e-14
3.92256e-13
6.30818e-14
3.61452e-13
6.16506e-14
3.31418e-13
6.02362e-14
3.02108e-13
5.86399e-14
2.73539e-13
5.70278e-14
2.45858e-13
5.51335e-14
2.19107e-13
5.2778e-14
1.93299e-13
4.94043e-14
1.67598e-13
4.3546e-14
1.34715e-13
3.41163e-14
6.83247e-14
1.53547e-14
3.81771e-14
1.35763e-13
-1.84454e-17
1.62681e-13
8.669e-22
1.13823e-21
8.68436e-22
3.61892e-24
8.65851e-22
8.6854e-24
8.62749e-22
1.37002e-23
8.56907e-22
1.85599e-23
8.48067e-22
2.32645e-23
8.36176e-22
2.77623e-23
8.21804e-22
3.20533e-23
8.0495e-22
3.58273e-23
7.85822e-22
3.92394e-23
7.64677e-22
4.21345e-23
7.41981e-22
4.47195e-23
7.17579e-22
4.68391e-23
6.92092e-22
4.86486e-23
6.65725e-22
5.00444e-23
6.3848e-22
5.10267e-23
6.10614e-22
5.17505e-23
5.82439e-22
5.22158e-23
5.53953e-22
5.23192e-23
5.25363e-22
5.22158e-23
4.96722e-22
5.19056e-23
4.68288e-22
5.13886e-23
4.40008e-22
5.05614e-23
4.11988e-22
4.97859e-23
3.84381e-22
4.88037e-23
3.5698e-22
4.77697e-23
3.30045e-22
4.66323e-23
3.03627e-22
4.55983e-23
2.77571e-22
4.4461e-23
2.52187e-22
4.33753e-23
2.27268e-22
4.21345e-23
2.02711e-22
4.10488e-23
1.78723e-22
4.00666e-23
1.5489e-22
3.89809e-23
1.31729e-22
3.82571e-23
1.08981e-22
3.75333e-23
8.6337e-23
3.68095e-23
6.40548e-23
3.63443e-23
4.19794e-23
3.5879e-23
1.97489e-23
3.54137e-23
3.5362e-23
3.79739e-13
-1.10437e-12
7.51374e-13
-1.07757e-12
1.10643e-12
-1.03617e-12
1.43828e-12
-9.73203e-13
1.74179e-12
-8.9502e-13
2.01406e-12
-8.08063e-13
2.25394e-12
-7.1668e-13
2.46147e-12
-6.24282e-13
2.63767e-12
-5.33631e-13
2.78424e-12
-4.46666e-13
2.90282e-12
-3.64221e-13
2.99572e-12
-2.87342e-13
3.06473e-12
-2.16245e-13
3.11163e-12
-1.49889e-13
3.13994e-12
-9.1678e-14
3.14455e-12
-3.02385e-14
3.13476e-12
2.45633e-14
3.11139e-12
6.22991e-14
3.07532e-12
1.00898e-13
3.02527e-12
1.37894e-13
2.96621e-12
1.71302e-13
2.89926e-12
1.93301e-13
2.82598e-12
2.123e-13
2.74719e-12
2.29231e-13
2.66569e-12
2.38879e-13
2.58021e-12
2.49891e-13
2.49394e-12
2.54223e-13
2.40754e-12
2.54848e-13
2.32149e-12
2.54371e-13
2.23656e-12
2.51865e-13
2.15335e-12
2.4732e-13
2.07229e-12
2.41364e-13
1.99367e-12
2.34585e-13
1.91799e-12
2.26515e-13
1.84517e-12
2.1825e-13
1.77504e-12
2.10217e-13
1.70785e-12
2.01882e-13
1.64325e-12
1.94138e-13
1.58138e-12
1.86387e-13
1.52202e-12
1.7898e-13
1.46475e-12
1.72624e-13
1.4096e-12
1.6621e-13
1.35642e-12
1.60447e-13
1.30488e-12
1.55257e-13
1.25496e-12
1.50606e-13
1.20657e-12
1.46004e-13
1.1591e-12
1.43088e-13
1.11283e-12
1.3929e-13
1.06772e-12
1.35781e-13
1.02354e-12
1.3285e-13
9.80419e-13
1.29731e-13
9.38072e-13
1.27451e-13
8.96352e-13
1.25291e-13
8.55497e-13
1.22665e-13
8.15303e-13
1.2065e-13
7.76003e-13
1.18113e-13
7.37401e-13
1.15967e-13
6.99575e-13
1.13645e-13
6.62338e-13
1.1186e-13
6.25827e-13
1.09663e-13
5.90116e-13
1.07339e-13
5.5506e-13
1.05103e-13
5.2075e-13
1.02993e-13
4.87207e-13
1.00862e-13
4.54338e-13
9.87566e-14
4.22127e-13
9.66041e-14
3.90683e-13
9.45743e-14
3.59855e-13
9.25291e-14
3.29734e-13
9.04088e-14
3.00346e-13
8.80809e-14
2.71604e-13
8.58234e-14
2.43471e-13
8.33262e-14
2.15604e-13
8.07001e-14
1.8758e-13
7.74873e-14
1.57002e-13
7.41822e-14
1.19121e-13
7.20587e-14
5.84771e-14
7.60568e-14
3.38733e-14
1.60427e-13
-1.77375e-17
1.9662e-13
8.80135e-22
1.72058e-21
8.73503e-22
5.42837e-24
8.70918e-22
1.31832e-23
8.67661e-22
2.0938e-23
8.61612e-22
2.8486e-23
8.52513e-22
3.55171e-23
8.40416e-22
4.22896e-23
8.2563e-22
4.84935e-23
8.08311e-22
5.41286e-23
7.8882e-22
5.92468e-23
7.67313e-22
6.37446e-23
7.44049e-22
6.74152e-23
7.19389e-22
7.06723e-23
6.93539e-22
7.33089e-23
6.66656e-22
7.53768e-23
6.39204e-22
7.68761e-23
6.11028e-22
7.7755e-23
5.82594e-22
7.83754e-23
5.53849e-22
7.84271e-23
5.25001e-22
7.82203e-23
4.96205e-22
7.77033e-23
4.67512e-22
7.68244e-23
4.3913e-22
7.58421e-23
4.11057e-22
7.45497e-23
3.83398e-22
7.30504e-23
3.55843e-22
7.13443e-23
3.29011e-22
6.96383e-23
3.0249e-22
6.78805e-23
2.76485e-22
6.61745e-23
2.50998e-22
6.44167e-23
2.26182e-22
6.2814e-23
2.01729e-22
6.11597e-23
1.77585e-22
5.96087e-23
1.54166e-22
5.82128e-23
1.31005e-22
5.69721e-23
1.08309e-22
5.5783e-23
8.58717e-23
5.4749e-23
6.35895e-23
5.40252e-23
4.15141e-23
5.34566e-23
1.96972e-23
5.31464e-23
5.29913e-23
4.04322e-13
-1.50872e-12
7.96946e-13
-1.47023e-12
1.17034e-12
-1.4096e-12
1.51623e-12
-1.31912e-12
1.8288e-12
-1.20763e-12
2.10563e-12
-1.08493e-12
2.34642e-12
-9.575e-13
2.55218e-12
-8.30076e-13
2.72485e-12
-7.06335e-13
2.86665e-12
-5.88505e-13
2.98012e-12
-4.77717e-13
3.06778e-12
-3.75034e-13
3.13088e-12
-2.79378e-13
3.17273e-12
-1.9177e-13
3.19615e-12
-1.15129e-13
3.19266e-12
-2.67819e-14
3.18017e-12
3.70226e-14
3.15085e-12
9.15929e-14
3.11126e-12
1.40454e-13
3.05372e-12
1.95412e-13
2.99136e-12
2.33625e-13
2.91966e-12
2.64983e-13
2.8421e-12
2.89831e-13
2.75931e-12
3.11997e-13
2.67393e-12
3.24243e-13
2.58498e-12
3.38815e-13
2.49581e-12
3.43371e-13
2.40678e-12
3.43861e-13
2.31855e-12
3.42581e-13
2.23184e-12
3.38566e-13
2.14739e-12
3.3175e-13
2.06523e-12
3.23517e-13
1.98591e-12
3.13893e-13
1.90995e-12
3.02459e-13
1.83681e-12
2.91389e-13
1.76686e-12
2.80158e-13
1.69983e-12
2.68909e-13
1.63561e-12
2.58354e-13
1.57414e-12
2.47862e-13
1.51512e-12
2.38001e-13
1.45844e-12
2.29311e-13
1.40384e-12
2.2081e-13
1.35122e-12
2.13074e-13
1.30018e-12
2.06303e-13
1.25057e-12
2.00233e-13
1.20274e-12
1.9385e-13
1.15577e-12
1.90069e-13
1.10965e-12
1.85427e-13
1.0648e-12
1.80651e-13
1.02082e-12
1.76847e-13
9.77848e-13
1.72729e-13
9.35587e-13
1.69736e-13
8.93949e-13
1.66955e-13
8.53165e-13
1.63477e-13
8.13113e-13
1.60735e-13
7.73787e-13
1.57471e-13
7.35168e-13
1.54619e-13
6.97294e-13
1.51555e-13
6.60098e-13
1.49094e-13
6.23626e-13
1.46174e-13
5.87878e-13
1.43126e-13
5.52864e-13
1.4016e-13
5.18618e-13
1.37284e-13
4.85074e-13
1.34453e-13
4.52258e-13
1.31618e-13
4.20037e-13
1.28874e-13
3.88493e-13
1.26168e-13
3.57657e-13
1.23417e-13
3.27551e-13
1.20568e-13
2.98039e-13
1.17649e-13
2.69097e-13
1.14822e-13
2.40673e-13
1.11803e-13
2.12561e-13
1.0887e-13
1.83945e-13
1.06161e-13
1.53968e-13
1.04216e-13
1.22435e-13
1.03648e-13
9.08039e-14
1.07746e-13
3.82511e-14
2.1304e-13
-1.74987e-17
2.34938e-13
8.86753e-22
2.31616e-21
8.81258e-22
7.23783e-24
8.78673e-22
1.77844e-23
8.75209e-22
2.82275e-23
8.68695e-22
3.84122e-23
8.59234e-22
4.81316e-23
8.46671e-22
5.71789e-23
8.31265e-22
6.55024e-23
8.13481e-22
7.30504e-23
7.93266e-22
7.97712e-23
7.71036e-22
8.57166e-23
7.47254e-22
9.07831e-23
7.22025e-22
9.50224e-23
6.95607e-22
9.84345e-23
6.68155e-22
1.01071e-22
6.40083e-22
1.03036e-22
6.11597e-22
1.0438e-22
5.82645e-22
1.05e-22
5.53642e-22
1.05207e-22
5.24484e-22
1.04742e-22
4.95378e-22
1.03811e-22
4.66427e-22
1.02622e-22
4.37889e-22
1.01071e-22
4.09506e-22
9.93134e-23
3.81692e-22
9.73488e-23
3.54188e-22
9.51775e-23
3.27305e-22
9.30061e-23
3.00784e-22
9.05763e-23
2.74727e-22
8.82498e-23
2.49395e-22
8.59751e-23
2.24528e-22
8.36486e-23
2.00229e-22
8.14773e-23
1.76241e-22
7.94093e-23
1.52873e-22
7.74965e-23
1.29764e-22
7.58421e-23
1.07327e-22
7.43946e-23
8.50962e-23
7.31538e-23
6.30208e-23
7.21198e-23
4.12039e-23
7.13443e-23
1.94904e-23
7.0879e-23
7.07239e-23
4.39116e-13
-1.94786e-12
8.62472e-13
-1.89363e-12
1.2618e-12
-1.80897e-12
1.62698e-12
-1.68434e-12
1.95116e-12
-1.53184e-12
2.23282e-12
-1.36663e-12
2.47353e-12
-1.19825e-12
2.67571e-12
-1.03228e-12
2.84248e-12
-8.7314e-13
2.97733e-12
-7.2339e-13
3.08342e-12
-5.83843e-13
3.1635e-12
-4.55142e-13
3.2192e-12
-3.35115e-13
3.25521e-12
-2.27815e-13
3.26665e-12
-1.26593e-13
3.25931e-12
-1.94745e-14
3.24053e-12
5.57697e-14
3.2043e-12
1.27799e-13
3.15683e-12
1.879e-13
3.09277e-12
2.59446e-13
3.0245e-12
3.01868e-13
2.94648e-12
3.42974e-13
2.86287e-12
3.73418e-13
2.77512e-12
3.99726e-13
2.6841e-12
4.15239e-13
2.59069e-12
4.32211e-13
2.49766e-12
4.36382e-13
2.40516e-12
4.36336e-13
2.31392e-12
4.33807e-13
2.22508e-12
4.27391e-13
2.13879e-12
4.18026e-13
2.05532e-12
4.06972e-13
1.97523e-12
3.93971e-13
1.89879e-12
3.78898e-13
1.82537e-12
3.64802e-13
1.75572e-12
3.49798e-13
1.68893e-12
3.35693e-13
1.62525e-12
3.22032e-13
1.56447e-12
3.08641e-13
1.50613e-12
2.96345e-13
1.45013e-12
2.85321e-13
1.3963e-12
2.74646e-13
1.34431e-12
2.65067e-13
1.29391e-12
2.56716e-13
1.24495e-12
2.49209e-13
1.19751e-12
2.41294e-13
1.15147e-12
2.36125e-13
1.10559e-12
2.31328e-13
1.06092e-12
2.25335e-13
1.01722e-12
2.2057e-13
9.7444e-13
2.15534e-13
9.32369e-13
2.11832e-13
8.90953e-13
2.08396e-13
8.50288e-13
2.0417e-13
8.10144e-13
2.00909e-13
7.70896e-13
1.9675e-13
7.32276e-13
1.93271e-13
6.94413e-13
1.89453e-13
6.57146e-13
1.86399e-13
6.2079e-13
1.8257e-13
5.85016e-13
1.7894e-13
5.50073e-13
1.75145e-13
5.158e-13
1.71599e-13
4.82207e-13
1.6809e-13
4.49416e-13
1.64457e-13
4.1717e-13
1.61167e-13
3.85624e-13
1.57763e-13
3.54815e-13
1.54279e-13
3.24629e-13
1.50808e-13
2.95002e-13
1.47326e-13
2.66035e-13
1.43843e-13
2.37632e-13
1.40262e-13
2.09749e-13
1.36808e-13
1.8237e-13
1.33596e-13
1.54789e-13
1.31857e-13
1.28288e-13
1.30205e-13
1.00847e-13
1.35245e-13
4.1471e-14
2.72473e-13
-1.79458e-17
2.76473e-13
8.9337e-22
2.87205e-21
8.91856e-22
8.99559e-24
8.89064e-22
2.26958e-23
8.85342e-22
3.59307e-23
8.78518e-22
4.88554e-23
8.6823e-22
6.1108e-23
8.55046e-22
7.26885e-23
8.38813e-22
8.32351e-23
8.2015e-22
9.29027e-23
7.9916e-22
1.01278e-22
7.76051e-22
1.08671e-22
7.51494e-22
1.1503e-22
7.25489e-22
1.20251e-22
6.98244e-22
1.24387e-22
6.70223e-22
1.27696e-22
6.41427e-22
1.30022e-22
6.12217e-22
1.3147e-22
5.82904e-22
1.32194e-22
5.53177e-22
1.32142e-22
5.23554e-22
1.31573e-22
4.94137e-22
1.30539e-22
4.64927e-22
1.28937e-22
4.36079e-22
1.26921e-22
4.07542e-22
1.24542e-22
3.79469e-22
1.22113e-22
3.51965e-22
1.19321e-22
3.24875e-22
1.16426e-22
2.98405e-22
1.13531e-22
2.72401e-22
1.10532e-22
2.47069e-22
1.07637e-22
2.22357e-22
1.04742e-22
1.98161e-22
1.02053e-22
1.74328e-22
9.94685e-23
1.51219e-22
9.71937e-23
1.28316e-22
9.50224e-23
1.06086e-22
9.32129e-23
8.40622e-23
9.16103e-23
6.22453e-23
9.02661e-23
4.07386e-23
8.94906e-23
1.9387e-23
8.89736e-23
8.88185e-23
4.8738e-13
-2.43526e-12
9.54068e-13
-2.36036e-12
1.3884e-12
-2.24333e-12
1.77787e-12
-2.07384e-12
2.11563e-12
-1.86964e-12
2.40115e-12
-1.65217e-12
2.63921e-12
-1.43634e-12
2.83464e-12
-1.22775e-12
2.99216e-12
-1.0307e-12
3.11692e-12
-8.48177e-13
3.21323e-12
-6.80187e-13
3.2827e-12
-5.24651e-13
3.33013e-12
-3.82572e-13
3.35727e-12
-2.54986e-13
3.35379e-12
-1.23156e-13
3.34365e-12
-9.35861e-15
3.31545e-12
8.39375e-14
3.27285e-12
1.70366e-13
3.21175e-12
2.48968e-13
3.14296e-12
3.28209e-13
3.06539e-12
3.79416e-13
2.97955e-12
4.28787e-13
2.88814e-12
4.64813e-13
2.79422e-12
4.93621e-13
2.69566e-12
5.13779e-13
2.59686e-12
5.30993e-13
2.49887e-12
5.34351e-13
2.40213e-12
5.33055e-13
2.30727e-12
5.28655e-13
2.21559e-12
5.19051e-13
2.12716e-12
5.0644e-13
2.04214e-12
4.91984e-13
1.96121e-12
4.7489e-13
1.88401e-12
4.56088e-13
1.81087e-12
4.37937e-13
1.74133e-12
4.19336e-13
1.67507e-12
4.01946e-13
1.61212e-12
3.84985e-13
1.55222e-12
3.68538e-13
1.49473e-12
3.53843e-13
1.43974e-12
3.40308e-13
1.38678e-12
3.27608e-13
1.33588e-12
3.15982e-13
1.28619e-12
3.06415e-13
1.23835e-12
2.97062e-13
1.19101e-12
2.88645e-13
1.14615e-12
2.81007e-13
1.10061e-12
2.76882e-13
1.05612e-12
2.69838e-13
1.01286e-12
2.63852e-13
9.70166e-13
2.5825e-13
9.28391e-13
2.5363e-13
8.87071e-13
2.49742e-13
8.46514e-13
2.44756e-13
8.06481e-13
2.4097e-13
7.67258e-13
2.36006e-13
7.287e-13
2.31863e-13
6.90816e-13
2.2737e-13
6.5359e-13
2.23661e-13
6.17113e-13
2.19085e-13
5.81391e-13
2.14701e-13
5.46511e-13
2.10068e-13
5.12304e-13
2.05848e-13
4.78794e-13
2.01647e-13
4.46018e-13
1.97278e-13
4.13781e-13
1.93454e-13
3.82238e-13
1.89354e-13
3.51397e-13
1.8517e-13
3.21138e-13
1.81119e-13
2.91473e-13
1.77043e-13
2.62474e-13
1.72897e-13
2.34159e-13
1.68631e-13
2.06781e-13
1.64242e-13
1.80523e-13
1.59909e-13
1.5515e-13
1.57285e-13
1.33895e-13
1.51518e-13
1.13238e-13
1.55958e-13
3.12742e-14
3.54497e-13
-1.73059e-17
3.07813e-13
8.99988e-22
3.4941e-21
9.05453e-22
1.10635e-23
9.02299e-22
2.76589e-23
8.98267e-22
4.42025e-23
8.9077e-22
6.0074e-23
8.7981e-22
7.51183e-23
8.65593e-22
8.91804e-23
8.48429e-22
1.0195e-22
8.28525e-22
1.13375e-22
8.06553e-22
1.23767e-22
7.82461e-22
1.32659e-22
7.56715e-22
1.40104e-22
7.29573e-22
1.46411e-22
7.01553e-22
1.51374e-22
6.72498e-22
1.55045e-22
6.42926e-22
1.57733e-22
6.13044e-22
1.59336e-22
5.828e-22
1.60059e-22
5.52608e-22
1.59956e-22
5.2252e-22
1.59077e-22
4.92586e-22
1.57578e-22
4.62963e-22
1.55613e-22
4.33753e-22
1.5308e-22
4.0506e-22
1.50288e-22
3.76677e-22
1.47083e-22
3.4907e-22
1.43723e-22
3.22032e-22
1.40207e-22
2.95407e-22
1.36588e-22
2.69506e-22
1.33073e-22
2.44225e-22
1.29505e-22
2.19668e-22
1.26145e-22
1.95628e-22
1.22836e-22
1.72054e-22
1.19683e-22
1.49099e-22
1.16943e-22
1.26559e-22
1.14358e-22
1.04432e-22
1.12341e-22
8.27698e-23
1.1048e-22
6.14699e-23
1.08981e-22
4.02217e-23
1.07895e-22
1.9232e-23
1.07327e-22
1.07275e-22
5.53741e-13
-2.98902e-12
1.08117e-12
-2.88783e-12
1.56118e-12
-2.72338e-12
1.97994e-12
-2.49263e-12
2.33172e-12
-2.22145e-12
2.6171e-12
-1.93759e-12
2.84726e-12
-1.66654e-12
3.03117e-12
-1.41169e-12
3.17491e-12
-1.17447e-12
3.28561e-12
-9.58902e-13
3.36824e-12
-7.62852e-13
3.42592e-12
-5.82364e-13
3.46278e-12
-4.19463e-13
3.47406e-12
-2.66298e-13
3.46394e-12
-1.13062e-13
3.44471e-12
9.84199e-15
3.404e-12
1.24622e-13
3.35471e-12
2.19625e-13
3.27722e-12
3.26429e-13
3.20337e-12
4.02038e-13
3.11322e-12
4.69539e-13
3.01874e-12
5.23233e-13
2.91741e-12
5.66124e-13
2.81604e-12
5.94975e-13
2.70775e-12
6.22043e-13
2.60262e-12
6.36108e-13
2.49871e-12
6.38242e-13
2.39677e-12
6.34974e-13
2.29777e-12
6.2764e-13
2.20262e-12
6.14185e-13
2.11173e-12
5.97324e-13
2.02504e-12
5.78655e-13
1.94319e-12
5.5673e-13
1.86571e-12
5.33568e-13
1.7927e-12
5.10935e-13
1.72356e-12
4.8847e-13
1.65807e-12
4.67431e-13
1.59604e-12
4.47022e-13
1.53723e-12
4.27342e-13
1.48095e-12
4.1013e-13
1.42729e-12
3.93974e-13
1.37555e-12
3.79347e-13
1.32572e-12
3.6582e-13
1.27699e-12
3.55159e-13
1.23034e-12
3.43724e-13
1.1834e-12
3.35599e-13
1.13951e-12
3.24908e-13
1.09502e-12
3.21389e-13
1.05079e-12
3.14086e-13
1.00792e-12
3.06747e-13
9.6537e-13
3.00818e-13
9.23834e-13
2.95192e-13
8.82683e-13
2.90917e-13
8.42156e-13
2.85312e-13
8.02117e-13
2.81039e-13
7.62824e-13
2.75332e-13
7.24348e-13
2.70372e-13
6.8645e-13
2.65304e-13
6.49342e-13
2.60804e-13
6.12748e-13
2.55717e-13
5.7709e-13
2.504e-13
5.42155e-13
2.45045e-13
5.07961e-13
2.40088e-13
4.74588e-13
2.35064e-13
4.41803e-13
2.3011e-13
4.09573e-13
2.25731e-13
3.78207e-13
2.2077e-13
3.47389e-13
2.1604e-13
3.17065e-13
2.11493e-13
2.87319e-13
2.06843e-13
2.58205e-13
2.02066e-13
2.29792e-13
1.97101e-13
2.02494e-13
1.91592e-13
1.77001e-13
1.85457e-13
1.55141e-13
1.79203e-13
1.35516e-13
1.71201e-13
7.51156e-14
2.16415e-13
1.42195e-14
4.15449e-13
-1.70833e-17
3.22097e-13
9.1984e-22
3.94411e-21
9.22048e-22
1.26662e-23
9.18894e-22
3.29838e-23
9.14138e-22
5.29396e-23
9.05866e-22
7.20164e-23
8.9382e-22
8.99042e-23
8.78362e-22
1.06603e-22
8.59906e-22
1.21906e-22
8.38916e-22
1.35658e-22
8.15445e-22
1.47652e-22
7.89958e-22
1.5794e-22
7.62971e-22
1.66677e-22
7.34536e-22
1.73863e-22
7.05223e-22
1.79447e-22
6.75186e-22
1.83582e-22
6.44477e-22
1.86426e-22
6.13665e-22
1.88235e-22
5.82697e-22
1.88752e-22
5.5173e-22
1.88339e-22
5.2102e-22
1.8715e-22
4.90622e-22
1.85237e-22
4.60429e-22
1.82807e-22
4.30961e-22
1.7986e-22
4.01906e-22
1.76448e-22
3.73369e-22
1.72674e-22
3.45503e-22
1.68641e-22
3.18413e-22
1.64454e-22
2.91891e-22
1.60266e-22
2.65939e-22
1.55975e-22
2.40813e-22
1.51891e-22
2.16308e-22
1.4791e-22
1.92475e-22
1.44085e-22
1.6921e-22
1.40569e-22
1.46566e-22
1.3726e-22
1.24491e-22
1.34365e-22
1.02622e-22
1.31729e-22
8.12705e-23
1.29661e-22
6.03325e-23
1.28006e-22
3.96013e-23
1.26921e-22
1.91803e-23
1.26404e-22
1.26248e-22
6.41678e-13
-3.63072e-12
1.25518e-12
-3.50138e-12
1.80411e-12
-3.27234e-12
2.24655e-12
-2.9351e-12
2.61032e-12
-2.58526e-12
2.8889e-12
-2.21619e-12
3.10252e-12
-1.88019e-12
3.26697e-12
-1.57617e-12
3.39033e-12
-1.29787e-12
3.48157e-12
-1.05017e-12
3.54797e-12
-8.29278e-13
3.59093e-12
-6.25356e-13
3.61549e-12
-4.44057e-13
3.60955e-12
-2.60388e-13
3.59473e-12
-9.82703e-14
3.56054e-12
4.40026e-14
3.51029e-12
1.74844e-13
3.44361e-12
2.86277e-13
3.35789e-12
4.12116e-13
3.2712e-12
4.88709e-13
3.16867e-12
5.72044e-13
3.06278e-12
6.29095e-13
2.95078e-12
6.78099e-13
2.83809e-12
7.07646e-13
2.72041e-12
7.39703e-13
2.6072e-12
7.493e-13
2.49638e-12
7.49047e-13
2.38807e-12
7.43261e-13
2.28433e-12
7.31361e-13
2.18565e-12
7.12857e-13
2.09179e-12
6.91167e-13
2.00359e-12
6.66852e-13
1.92061e-12
6.39696e-13
1.84319e-12
6.10988e-13
1.77051e-12
5.83603e-13
1.70188e-12
5.57092e-13
1.63756e-12
5.3175e-13
1.57704e-12
5.07545e-13
1.51955e-12
4.84835e-13
1.4648e-12
4.64879e-13
1.4126e-12
4.46176e-13
1.36255e-12
4.29402e-13
1.31386e-12
4.1452e-13
1.26671e-12
4.02318e-13
1.22094e-12
3.89512e-13
1.17582e-12
3.80733e-13
1.13127e-12
3.69473e-13
1.08886e-12
3.63813e-13
1.04487e-12
3.5809e-13
1.00222e-12
3.49423e-13
9.59857e-13
3.432e-13
9.18566e-13
3.36506e-13
8.77617e-13
3.3189e-13
8.37011e-13
3.25944e-13
7.9719e-13
3.20888e-13
7.57728e-13
3.14826e-13
7.19269e-13
3.08866e-13
6.81224e-13
3.03383e-13
6.44259e-13
2.97805e-13
6.0768e-13
2.92334e-13
5.72012e-13
2.86109e-13
5.37226e-13
2.79871e-13
5.03146e-13
2.74211e-13
4.69727e-13
2.68528e-13
4.36935e-13
2.62948e-13
4.04937e-13
2.57776e-13
3.73547e-13
2.52212e-13
3.4272e-13
2.46914e-13
3.1246e-13
2.41805e-13
2.82564e-13
2.36793e-13
2.53179e-13
2.31502e-13
2.24386e-13
2.25946e-13
1.9629e-13
2.19745e-13
1.69725e-13
2.12079e-13
1.47969e-13
2.01013e-13
1.38233e-13
1.80995e-13
5.12324e-14
3.03474e-13
1.55515e-14
4.51188e-13
-1.70781e-17
3.37713e-13
9.4631e-22
4.43381e-21
9.42366e-22
1.45791e-23
9.38798e-22
3.8619e-23
9.33215e-22
6.20386e-23
9.23702e-22
8.46826e-23
9.10519e-22
1.05983e-22
8.93665e-22
1.25576e-22
8.73606e-22
1.43412e-22
8.50962e-22
1.59181e-22
8.25733e-22
1.72881e-22
7.98695e-22
1.8472e-22
7.70105e-22
1.94594e-22
7.4012e-22
2.02608e-22
7.09411e-22
2.08811e-22
6.7803e-22
2.13309e-22
6.46287e-22
2.16308e-22
6.14233e-22
2.17859e-22
5.82335e-22
2.18324e-22
5.50489e-22
2.17652e-22
5.19108e-22
2.16101e-22
4.8814e-22
2.13619e-22
4.57483e-22
2.10673e-22
4.27497e-22
2.07002e-22
3.98132e-22
2.02969e-22
3.69336e-22
1.98523e-22
3.41367e-22
1.94026e-22
3.14174e-22
1.89166e-22
2.87652e-22
1.84254e-22
2.61803e-22
1.79498e-22
2.36884e-22
1.74639e-22
2.12534e-22
1.70037e-22
1.88907e-22
1.65746e-22
1.66005e-22
1.61714e-22
1.43568e-22
1.57992e-22
1.21906e-22
1.54579e-22
1.00502e-22
1.51736e-22
7.96161e-23
1.4941e-22
5.92468e-23
1.47755e-22
3.9136e-23
1.46618e-22
1.90769e-23
1.46049e-22
1.46049e-22
7.71105e-13
-4.40185e-12
1.50013e-12
-4.23044e-12
2.11865e-12
-3.89089e-12
2.60358e-12
-3.42006e-12
2.96577e-12
-2.94749e-12
3.22778e-12
-2.47824e-12
3.41119e-12
-2.06363e-12
3.54333e-12
-1.70835e-12
3.63591e-12
-1.39047e-12
3.70284e-12
-1.11715e-12
3.74788e-12
-8.74343e-13
3.77782e-12
-6.55324e-13
3.78426e-12
-4.5053e-13
3.76768e-12
-2.4384e-13
3.74209e-12
-7.27122e-14
3.69324e-12
9.28319e-14
3.63152e-12
2.36531e-13
3.54264e-12
3.7513e-13
3.4546e-12
5.00135e-13
3.34603e-12
5.97251e-13
3.23204e-12
6.86006e-13
3.11116e-12
7.49956e-13
2.98703e-12
8.02204e-13
2.85983e-12
8.3483e-13
2.73268e-12
8.6683e-13
2.60953e-12
8.72436e-13
2.49016e-12
8.6839e-13
2.37502e-12
8.58394e-13
2.26592e-12
8.40443e-13
2.1632e-12
8.15561e-13
2.06631e-12
7.88042e-13
1.97643e-12
7.56726e-13
1.89305e-12
7.23067e-13
1.81576e-12
6.88272e-13
1.74372e-12
6.55634e-13
1.67619e-12
6.24617e-13
1.61344e-12
5.94495e-13
1.55477e-12
5.6622e-13
1.49908e-12
5.40523e-13
1.4463e-12
5.17656e-13
1.39598e-12
4.96505e-13
1.34791e-12
4.7748e-13
1.30083e-12
4.61604e-13
1.25528e-12
4.47878e-13
1.21058e-12
4.34231e-13
1.16726e-12
4.2406e-13
1.12245e-12
4.14295e-13
1.08199e-12
4.0429e-13
1.03877e-12
4.01336e-13
9.96031e-13
3.92179e-13
9.54092e-13
3.85159e-13
9.12722e-13
3.77901e-13
8.72031e-13
3.72609e-13
8.31351e-13
3.66647e-13
7.91607e-13
3.6066e-13
7.51965e-13
3.545e-13
7.13475e-13
3.47387e-13
6.75258e-13
3.41634e-13
6.38533e-13
3.34565e-13
6.01838e-13
3.2907e-13
5.66204e-13
3.21783e-13
5.31448e-13
3.14668e-13
4.97415e-13
3.08287e-13
4.64137e-13
3.01849e-13
4.31464e-13
2.95668e-13
3.99665e-13
2.89622e-13
3.68377e-13
2.83548e-13
3.37616e-13
2.77723e-13
3.07262e-13
2.72211e-13
2.7735e-13
2.66756e-13
2.47709e-13
2.61197e-13
2.18302e-13
2.55406e-13
1.89123e-13
2.48979e-13
1.5978e-13
2.41478e-13
1.30086e-13
2.30763e-13
9.5581e-14
2.15555e-13
3.1101e-14
3.68012e-13
1.66017e-14
4.65743e-13
-1.6843e-17
3.54376e-13
9.7278e-22
4.8044e-21
9.66457e-22
1.63368e-23
9.62218e-22
4.47712e-23
9.55807e-22
7.23783e-23
9.44951e-22
9.87447e-23
9.30165e-22
1.2356e-22
9.1145e-22
1.46204e-22
8.89374e-22
1.66574e-22
8.64662e-22
1.84771e-22
8.37572e-22
2.00385e-22
8.08517e-22
2.13619e-22
7.7817e-22
2.24528e-22
7.46324e-22
2.3311e-22
7.13909e-22
2.39779e-22
6.81028e-22
2.44535e-22
6.47838e-22
2.47637e-22
6.1475e-22
2.49085e-22
5.81663e-22
2.49085e-22
5.48938e-22
2.48051e-22
5.16626e-22
2.45983e-22
4.85141e-22
2.43088e-22
4.53812e-22
2.39262e-22
4.23517e-22
2.35074e-22
3.93686e-22
2.30266e-22
3.64838e-22
2.25148e-22
3.36507e-22
2.19668e-22
3.09262e-22
2.14291e-22
2.82844e-22
2.08811e-22
2.57046e-22
2.0328e-22
2.32283e-22
1.98058e-22
2.08191e-22
1.92836e-22
1.84927e-22
1.87977e-22
1.62283e-22
1.83531e-22
1.40207e-22
1.79395e-22
1.18959e-22
1.75879e-22
9.82277e-23
1.72777e-22
7.79618e-23
1.70296e-22
5.80577e-23
1.68486e-22
3.85673e-23
1.67349e-22
1.90769e-23
1.66832e-22
1.67039e-22
9.43533e-13
-5.3454e-12
1.82188e-12
-5.10882e-12
2.54754e-12
-4.61658e-12
3.07985e-12
-3.9524e-12
3.41942e-12
-3.2871e-12
3.63858e-12
-2.69743e-12
3.77629e-12
-2.20138e-12
3.86354e-12
-1.79563e-12
3.91645e-12
-1.44341e-12
3.94886e-12
-1.14959e-12
3.96925e-12
-8.94764e-13
3.98127e-12
-6.67367e-13
3.9715e-12
-4.40789e-13
3.94771e-12
-2.2008e-13
3.90481e-12
-2.98426e-14
3.84758e-12
1.50036e-13
3.76065e-12
3.23439e-13
3.66395e-12
4.71805e-13
3.55714e-12
6.06917e-13
3.43216e-12
7.22198e-13
3.30118e-12
8.16962e-13
3.16343e-12
8.87691e-13
3.02418e-12
9.41433e-13
2.88174e-12
9.77246e-13
2.74229e-12
1.00627e-12
2.60793e-12
1.00677e-12
2.47873e-12
9.97576e-13
2.35616e-12
9.80954e-13
2.24149e-12
9.55091e-13
2.1341e-12
9.22945e-13
2.03456e-12
8.87567e-13
1.94333e-12
8.47947e-13
1.85997e-12
8.06421e-13
1.78293e-12
7.65306e-13
1.71166e-12
7.26894e-13
1.64615e-12
6.90125e-13
1.58541e-12
6.55228e-13
1.52911e-12
6.22518e-13
1.47571e-12
5.93931e-13
1.42551e-12
5.67852e-13
1.37762e-12
5.44399e-13
1.33127e-12
5.23836e-13
1.28652e-12
5.06363e-13
1.24274e-12
4.91666e-13
1.19959e-12
4.77388e-13
1.15761e-12
4.66061e-13
1.11461e-12
4.57306e-13
1.07379e-12
4.45127e-13
1.03237e-12
4.4277e-13
9.89564e-13
4.35005e-13
9.48132e-13
4.26614e-13
9.06344e-13
4.19714e-13
8.66052e-13
4.12925e-13
8.2538e-13
4.07346e-13
7.85435e-13
4.00633e-13
7.45499e-13
3.94465e-13
7.06883e-13
3.86034e-13
6.6876e-13
3.79793e-13
6.31832e-13
3.71531e-13
5.95281e-13
3.65661e-13
5.5947e-13
3.57633e-13
5.24783e-13
3.49394e-13
4.90933e-13
3.4218e-13
4.57969e-13
3.34859e-13
4.25404e-13
3.28278e-13
3.93739e-13
3.21333e-13
3.62651e-13
3.14683e-13
3.32001e-13
3.08422e-13
3.01706e-13
3.02557e-13
2.71776e-13
2.96737e-13
2.41864e-13
2.91162e-13
2.11889e-13
2.85438e-13
1.81143e-13
2.79779e-13
1.48208e-13
2.74466e-13
1.10749e-13
2.68277e-13
5.49596e-14
2.71401e-13
1.77582e-14
4.05268e-13
1.29523e-14
4.70606e-13
-1.67484e-17
3.67389e-13
9.92632e-22
5.05587e-21
9.94892e-22
1.83014e-23
9.89877e-22
5.14403e-23
9.82277e-22
8.38554e-23
9.69714e-22
1.14616e-22
9.52809e-22
1.43206e-22
9.31871e-22
1.69107e-22
9.07572e-22
1.92371e-22
8.80327e-22
2.12637e-22
8.50807e-22
2.3006e-22
8.19478e-22
2.44587e-22
7.86701e-22
2.56426e-22
7.52993e-22
2.6568e-22
7.18665e-22
2.72711e-22
6.84078e-22
2.77519e-22
6.49285e-22
2.80414e-22
6.1475e-22
2.81603e-22
5.80629e-22
2.81397e-22
5.4687e-22
2.7969e-22
5.13783e-22
2.7695e-22
4.81367e-22
2.7328e-22
4.49624e-22
2.68834e-22
4.18709e-22
2.63767e-22
3.88568e-22
2.58184e-22
3.5941e-22
2.52497e-22
3.31131e-22
2.46448e-22
3.0373e-22
2.40244e-22
2.77312e-22
2.3404e-22
2.51721e-22
2.2794e-22
2.27061e-22
2.21995e-22
2.03383e-22
2.16308e-22
1.80429e-22
2.10983e-22
1.58147e-22
2.06175e-22
1.3664e-22
2.01832e-22
1.15857e-22
1.98161e-22
9.57462e-23
1.95008e-22
7.61006e-23
1.92526e-22
5.69204e-23
1.90717e-22
3.80503e-23
1.89683e-22
1.92836e-23
1.89373e-22
1.89941e-22
1.20799e-12
-6.55341e-12
2.32892e-12
-6.22979e-12
3.1889e-12
-5.47659e-12
3.72157e-12
-4.4851e-12
3.99341e-12
-3.55897e-12
4.11928e-12
-2.82333e-12
4.17992e-12
-2.26205e-12
4.20802e-12
-1.82376e-12
4.22702e-12
-1.46244e-12
4.22349e-12
-1.14608e-12
4.21054e-12
-8.81844e-13
4.19359e-12
-6.50443e-13
4.17932e-12
-4.26547e-13
4.14525e-12
-1.86035e-13
4.08934e-12
2.60359e-14
4.01267e-12
2.26685e-13
3.9125e-12
4.2358e-13
3.80156e-12
5.82718e-13
3.66951e-12
7.38943e-13
3.52784e-12
8.63843e-13
3.3759e-12
9.68886e-13
3.21851e-12
1.04506e-12
3.06192e-12
1.098e-12
2.90116e-12
1.13799e-12
2.74745e-12
1.15996e-12
2.60065e-12
1.15356e-12
2.46072e-12
1.13748e-12
2.32984e-12
1.11182e-12
2.20919e-12
1.07573e-12
2.09688e-12
1.03524e-12
1.99458e-12