/*--------------------------------*- C++ -*----------------------------------*\
  =========                 |
  \\      /  F ield         | OpenFOAM: The Open Source CFD Toolbox
   \\    /   O peration     | Website:  https://openfoam.org
    \\  /    A nd           | Version:  6
     \\/     M anipulation  |
\*---------------------------------------------------------------------------*/
FoamFile
{
    version     2.0;
    format      ascii;
    class       volVectorField;
    location    "9300";
    object      U;
}
// * * * * * * * * * * * * * * * * * * * * * * * * * * * * * * * * * * * * * //

dimensions      [0 1 -1 0 0 0 0];

internalField   nonuniform List<vector> 
4800
(
(7.34802e-08 0 -6.91234e-08)
(2.13114e-07 0 -6.99938e-08)
(3.49229e-07 0 -6.92066e-08)
(4.81221e-07 0 -6.5718e-08)
(6.03946e-07 0 -6.09339e-08)
(7.16124e-07 0 -5.54728e-08)
(8.17123e-07 0 -4.95778e-08)
(9.06459e-07 0 -4.34867e-08)
(9.84015e-07 0 -3.74097e-08)
(1.05002e-06 0 -3.15034e-08)
(1.10491e-06 0 -2.58438e-08)
(1.14926e-06 0 -2.04918e-08)
(1.18373e-06 0 -1.55513e-08)
(1.20905e-06 0 -1.09655e-08)
(1.22591e-06 0 -6.7793e-09)
(1.23529e-06 0 -3.04146e-09)
(1.23711e-06 0 1.15641e-09)
(1.2321e-06 0 3.72213e-09)
(1.222e-06 0 6.3044e-09)
(1.20705e-06 0 8.53961e-09)
(1.18775e-06 0 1.11071e-08)
(1.16431e-06 0 1.24637e-08)
(1.13776e-06 0 1.37364e-08)
(1.10919e-06 0 1.48536e-08)
(1.07873e-06 0 1.5588e-08)
(1.04672e-06 0 1.62393e-08)
(1.01365e-06 0 1.66066e-08)
(9.80126e-07 0 1.66501e-08)
(9.46577e-07 0 1.66232e-08)
(9.13165e-07 0 1.64873e-08)
(8.80132e-07 0 1.62052e-08)
(8.47742e-07 0 1.58286e-08)
(8.16161e-07 0 1.53937e-08)
(7.85499e-07 0 1.48981e-08)
(7.55865e-07 0 1.43466e-08)
(7.273e-07 0 1.38225e-08)
(6.99794e-07 0 1.3301e-08)
(6.73331e-07 0 1.28136e-08)
(6.47884e-07 0 1.22935e-08)
(6.23424e-07 0 1.18093e-08)
(5.99894e-07 0 1.13547e-08)
(5.77221e-07 0 1.09104e-08)
(5.55343e-07 0 1.05384e-08)
(5.34208e-07 0 1.01532e-08)
(5.13759e-07 0 9.85513e-09)
(4.93936e-07 0 9.53294e-09)
(4.7462e-07 0 9.31694e-09)
(4.55749e-07 0 9.02839e-09)
(4.37349e-07 0 8.7991e-09)
(4.19406e-07 0 8.57671e-09)
(4.01866e-07 0 8.35621e-09)
(3.84701e-07 0 8.1813e-09)
(3.6786e-07 0 7.99453e-09)
(3.51329e-07 0 7.8005e-09)
(3.35116e-07 0 7.63375e-09)
(3.19204e-07 0 7.44279e-09)
(3.03602e-07 0 7.27044e-09)
(2.88311e-07 0 7.07707e-09)
(2.73307e-07 0 6.91959e-09)
(2.58568e-07 0 6.74189e-09)
(2.44098e-07 0 6.54933e-09)
(2.29941e-07 0 6.35735e-09)
(2.16086e-07 0 6.18332e-09)
(2.02509e-07 0 5.99919e-09)
(1.89209e-07 0 5.81555e-09)
(1.76195e-07 0 5.62038e-09)
(1.63476e-07 0 5.43091e-09)
(1.51042e-07 0 5.23597e-09)
(1.38872e-07 0 5.06179e-09)
(1.26997e-07 0 4.85366e-09)
(1.15478e-07 0 4.64181e-09)
(1.04354e-07 0 4.42543e-09)
(9.37483e-08 0 4.16279e-09)
(8.39865e-08 0 3.79082e-09)
(7.60088e-08 0 3.25218e-09)
(7.21074e-08 0 1.90286e-09)
(7.49235e-08 0 -1.20215e-08)
(6.67246e-08 0 2.33785e-09)
(-8.43514e-12 0 2.39307e-08)
(2.18421e-16 0 1.38273e-16)
(1.74462e-16 0 4.3427e-19)
(3.46061e-16 0 7.34123e-19)
(3.44738e-16 0 1.20975e-18)
(3.42939e-16 0 1.70606e-18)
(3.40002e-16 0 2.21271e-18)
(3.35939e-16 0 2.69868e-18)
(3.30759e-16 0 3.12261e-18)
(3.24575e-16 0 3.54654e-18)
(3.17462e-16 0 3.89809e-18)
(3.0951e-16 0 4.2393e-18)
(3.00825e-16 0 4.50813e-18)
(2.91488e-16 0 4.74595e-18)
(2.81614e-16 0 4.93206e-18)
(2.71284e-16 0 5.08716e-18)
(2.60624e-16 0 5.22158e-18)
(2.49664e-16 0 5.3043e-18)
(2.38518e-16 0 5.36633e-18)
(2.27258e-16 0 5.38701e-18)
(2.15894e-16 0 5.38701e-18)
(2.04489e-16 0 5.35599e-18)
(1.93116e-16 0 5.3043e-18)
(1.81804e-16 0 5.22158e-18)
(1.70554e-16 0 5.1492e-18)
(1.5946e-16 0 5.07682e-18)
(1.48469e-16 0 4.98376e-18)
(1.37612e-16 0 4.89071e-18)
(1.26972e-16 0 4.77697e-18)
(1.16477e-16 0 4.65289e-18)
(1.06189e-16 0 4.53915e-18)
(9.61184e-17 0 4.41508e-18)
(8.61922e-17 0 4.31168e-18)
(7.64625e-17 0 4.2393e-18)
(6.69086e-17 0 4.15658e-18)
(5.75097e-17 0 4.05319e-18)
(4.8266e-17 0 3.98081e-18)
(3.9167e-17 0 3.92911e-18)
(3.02024e-17 0 3.86707e-18)
(2.13413e-17 0 3.80503e-18)
(1.26145e-17 0 3.73265e-18)
(4.14624e-18 0 3.54654e-18)
(6.93979e-08 0 -2.16467e-07)
(2.22164e-07 0 -2.08648e-07)
(3.55794e-07 0 -2.01154e-07)
(4.89787e-07 0 -1.89001e-07)
(6.1408e-07 0 -1.74119e-07)
(7.27115e-07 0 -1.57681e-07)
(8.28533e-07 0 -1.40327e-07)
(9.17928e-07 0 -1.22668e-07)
(9.95254e-07 0 -1.05232e-07)
(1.06082e-06 0 -8.83757e-08)
(1.11513e-06 0 -7.2358e-08)
(1.15883e-06 0 -5.72714e-08)
(1.19264e-06 0 -4.33573e-08)
(1.21729e-06 0 -3.03219e-08)
(1.2335e-06 0 -1.84401e-08)
(1.24217e-06 0 -7.65792e-09)
(1.24314e-06 0 4.72492e-09)
(1.23763e-06 0 1.19393e-08)
(1.22695e-06 0 1.95497e-08)
(1.2114e-06 0 2.61778e-08)
(1.19138e-06 0 3.38048e-08)
(1.16733e-06 0 3.79162e-08)
(1.14028e-06 0 4.17204e-08)
(1.11115e-06 0 4.51473e-08)
(1.08015e-06 0 4.73633e-08)
(1.04767e-06 0 4.94109e-08)
(1.01418e-06 0 5.0565e-08)
(9.80302e-07 0 5.07492e-08)
(9.46435e-07 0 5.07238e-08)
(9.12751e-07 0 5.03505e-08)
(8.7951e-07 0 4.95237e-08)
(8.4697e-07 0 4.83953e-08)
(8.15266e-07 0 4.70972e-08)
(7.8452e-07 0 4.55611e-08)
(7.54835e-07 0 4.39397e-08)
(7.26236e-07 0 4.23623e-08)
(6.98725e-07 0 4.07601e-08)
(6.72305e-07 0 3.92118e-08)
(6.46918e-07 0 3.77038e-08)
(6.22513e-07 0 3.62529e-08)
(5.99033e-07 0 3.49451e-08)
(5.76413e-07 0 3.36823e-08)
(5.5461e-07 0 3.25289e-08)
(5.33556e-07 0 3.14223e-08)
(5.13146e-07 0 3.05528e-08)
(4.93369e-07 0 2.96586e-08)
(4.74128e-07 0 2.90553e-08)
(4.55326e-07 0 2.82474e-08)
(4.36967e-07 0 2.75601e-08)
(4.19064e-07 0 2.69437e-08)
(4.01564e-07 0 2.63354e-08)
(3.84418e-07 0 2.58949e-08)
(3.67591e-07 0 2.54507e-08)
(3.51073e-07 0 2.4944e-08)
(3.34865e-07 0 2.45407e-08)
(3.18965e-07 0 2.40546e-08)
(3.0336e-07 0 2.36497e-08)
(2.88062e-07 0 2.32075e-08)
(2.73048e-07 0 2.28897e-08)
(2.58313e-07 0 2.248e-08)
(2.43856e-07 0 2.20488e-08)
(2.2971e-07 0 2.16042e-08)
(2.15869e-07 0 2.12141e-08)
(2.02304e-07 0 2.08264e-08)
(1.89006e-07 0 2.04452e-08)
(1.76003e-07 0 2.00253e-08)
(1.63274e-07 0 1.9675e-08)
(1.50806e-07 0 1.93067e-08)
(1.38624e-07 0 1.89413e-08)
(1.26754e-07 0 1.84813e-08)
(1.15177e-07 0 1.80306e-08)
(1.03918e-07 0 1.7499e-08)
(9.30014e-08 0 1.68159e-08)
(8.24193e-08 0 1.58488e-08)
(7.18873e-08 0 1.3708e-08)
(6.1979e-08 0 8.40405e-09)
(3.83029e-08 0 -7.13546e-09)
(2.62601e-08 0 5.25716e-08)
(-5.03185e-12 0 5.46476e-08)
(2.43213e-16 0 3.64698e-16)
(1.74771e-16 0 1.15805e-18)
(3.46858e-16 0 2.4712e-18)
(3.4572e-16 0 3.94979e-18)
(3.43931e-16 0 5.41803e-18)
(3.40995e-16 0 6.8656e-18)
(3.36849e-16 0 8.25113e-18)
(3.31596e-16 0 9.53326e-18)
(3.25351e-16 0 1.0712e-17)
(3.18154e-16 0 1.1746e-17)
(3.101e-16 0 1.26662e-17)
(3.01332e-16 0 1.3452e-17)
(2.91912e-16 0 1.41138e-17)
(2.81934e-16 0 1.46618e-17)
(2.71563e-16 0 1.5096e-17)
(2.60841e-16 0 1.54269e-17)
(2.49819e-16 0 1.56544e-17)
(2.38611e-16 0 1.58095e-17)
(2.27278e-16 0 1.58509e-17)
(2.15863e-16 0 1.58302e-17)
(2.04417e-16 0 1.57371e-17)
(1.93002e-16 0 1.5582e-17)
(1.81659e-16 0 1.53339e-17)
(1.70399e-16 0 1.51064e-17)
(1.59274e-16 0 1.48376e-17)
(1.48272e-16 0 1.45377e-17)
(1.37405e-16 0 1.42172e-17)
(1.26734e-16 0 1.38966e-17)
(1.1624e-16 0 1.35451e-17)
(1.05952e-16 0 1.32142e-17)
(9.58909e-17 0 1.2842e-17)
(8.59958e-17 0 1.25214e-17)
(7.62867e-17 0 1.22526e-17)
(6.67225e-17 0 1.19528e-17)
(5.73236e-17 0 1.17046e-17)
(4.81419e-17 0 1.14875e-17)
(3.90636e-17 0 1.1291e-17)
(3.00784e-17 0 1.11359e-17)
(2.12068e-17 0 1.09808e-17)
(1.23457e-17 0 1.08154e-17)
(3.94979e-18 0 1.06189e-17)
(6.98077e-08 0 -3.65433e-07)
(2.3189e-07 0 -3.56924e-07)
(3.69017e-07 0 -3.43776e-07)
(5.0764e-07 0 -3.2329e-07)
(6.35322e-07 0 -2.97737e-07)
(7.50337e-07 0 -2.69221e-07)
(8.52708e-07 0 -2.39136e-07)
(9.42231e-07 0 -2.08618e-07)
(1.01903e-06 0 -1.78589e-07)
(1.08363e-06 0 -1.4968e-07)
(1.13672e-06 0 -1.22233e-07)
(1.17905e-06 0 -9.65225e-08)
(1.21142e-06 0 -7.28356e-08)
(1.2346e-06 0 -5.06049e-08)
(1.24945e-06 0 -3.09012e-08)
(1.25649e-06 0 -1.16593e-08)
(1.25561e-06 0 8.3084e-09)
(1.24909e-06 0 2.03103e-08)
(1.23706e-06 0 3.33189e-08)
(1.22023e-06 0 4.49779e-08)
(1.19866e-06 0 5.68401e-08)
(1.17332e-06 0 6.39475e-08)
(1.14526e-06 0 7.02536e-08)
(1.11502e-06 0 7.59052e-08)
(1.08292e-06 0 7.92847e-08)
(1.04945e-06 0 8.27998e-08)
(1.01514e-06 0 8.43837e-08)
(9.80522e-07 0 8.45944e-08)
(9.46013e-07 0 8.44561e-08)
(9.11791e-07 0 8.36758e-08)
(8.7814e-07 0 8.22026e-08)
(8.45289e-07 0 8.02239e-08)
(8.13335e-07 0 7.80221e-08)
(7.82436e-07 0 7.53903e-08)
(7.52708e-07 0 7.26618e-08)
(7.24112e-07 0 6.99359e-08)
(6.96619e-07 0 6.71708e-08)
(6.70235e-07 0 6.46005e-08)
(6.44927e-07 0 6.20451e-08)
(6.20659e-07 0 5.95563e-08)
(5.97326e-07 0 5.7467e-08)
(5.74855e-07 0 5.53113e-08)
(5.53164e-07 0 5.3443e-08)
(5.32217e-07 0 5.17183e-08)
(5.11927e-07 0 5.01579e-08)
(4.92282e-07 0 4.86093e-08)
(4.73151e-07 0 4.76227e-08)
(4.54445e-07 0 4.63648e-08)
(4.36136e-07 0 4.52129e-08)
(4.18268e-07 0 4.42224e-08)
(4.00812e-07 0 4.32001e-08)
(3.83715e-07 0 4.2429e-08)
(3.66927e-07 0 4.16675e-08)
(3.5042e-07 0 4.07995e-08)
(3.34205e-07 0 4.01107e-08)
(3.18308e-07 0 3.92947e-08)
(3.02712e-07 0 3.85699e-08)
(2.87444e-07 0 3.77665e-08)
(2.72444e-07 0 3.71522e-08)
(2.57714e-07 0 3.6415e-08)
(2.43258e-07 0 3.56424e-08)
(2.29105e-07 0 3.48673e-08)
(2.15236e-07 0 3.4175e-08)
(2.01659e-07 0 3.34824e-08)
(1.88369e-07 0 3.27725e-08)
(1.75362e-07 0 3.20338e-08)
(1.62624e-07 0 3.13597e-08)
(1.50166e-07 0 3.06396e-08)
(1.37976e-07 0 2.99215e-08)
(1.26067e-07 0 2.91413e-08)
(1.14428e-07 0 2.83605e-08)
(1.03038e-07 0 2.74891e-08)
(9.18011e-08 0 2.65218e-08)
(8.06075e-08 0 2.51745e-08)
(6.88338e-08 0 2.32846e-08)
(5.66899e-08 0 2.08623e-08)
(3.361e-08 0 1.77812e-08)
(2.07034e-08 0 6.25296e-08)
(-4.31764e-12 0 7.15089e-08)
(2.45895e-16 0 5.71322e-16)
(1.75802e-16 0 1.80946e-18)
(3.48884e-16 0 4.37372e-18)
(3.47716e-16 0 6.92764e-18)
(3.45855e-16 0 9.40918e-18)
(3.42825e-16 0 1.17563e-17)
(3.38586e-16 0 1.40104e-17)
(3.33209e-16 0 1.61093e-17)
(3.26788e-16 0 1.79912e-17)
(3.19426e-16 0 1.96972e-17)
(3.11227e-16 0 2.11758e-17)
(3.02273e-16 0 2.24269e-17)
(2.92688e-16 0 2.35023e-17)
(2.82586e-16 0 2.43915e-17)
(2.72039e-16 0 2.50843e-17)
(2.61172e-16 0 2.55806e-17)
(2.50046e-16 0 2.59011e-17)
(2.38724e-16 0 2.61182e-17)
(2.27289e-16 0 2.61492e-17)
(2.1577e-16 0 2.60872e-17)
(2.04241e-16 0 2.59218e-17)
(1.92743e-16 0 2.56426e-17)
(1.81328e-16 0 2.52807e-17)
(1.70037e-16 0 2.48671e-17)
(1.58891e-16 0 2.43708e-17)
(1.47848e-16 0 2.38228e-17)
(1.36971e-16 0 2.32541e-17)
(1.263e-16 0 2.26958e-17)
(1.15795e-16 0 2.21271e-17)
(1.05497e-16 0 2.15584e-17)
(9.5436e-17 0 2.09897e-17)
(8.55822e-17 0 2.04417e-17)
(7.58628e-17 0 1.99351e-17)
(6.63502e-17 0 1.94387e-17)
(5.70341e-17 0 1.90458e-17)
(4.78627e-17 0 1.86633e-17)
(3.88361e-17 0 1.83117e-17)
(2.98922e-17 0 1.80739e-17)
(2.10207e-17 0 1.78671e-17)
(1.22423e-17 0 1.7712e-17)
(3.93945e-18 0 1.76706e-17)
(7.30813e-08 0 -5.21726e-07)
(2.47133e-07 0 -5.08787e-07)
(3.90616e-07 0 -4.88354e-07)
(5.3581e-07 0 -4.5773e-07)
(6.68308e-07 0 -4.19893e-07)
(7.86047e-07 0 -3.78052e-07)
(8.89504e-07 0 -3.34363e-07)
(9.78862e-07 0 -2.90465e-07)
(1.0546e-06 0 -2.47638e-07)
(1.11755e-06 0 -2.06706e-07)
(1.16866e-06 0 -1.68094e-07)
(1.20886e-06 0 -1.32142e-07)
(1.23906e-06 0 -9.89068e-08)
(1.26002e-06 0 -6.79388e-08)
(1.27279e-06 0 -4.07754e-08)
(1.27754e-06 0 -1.16722e-08)
(1.27444e-06 0 1.25936e-08)
(1.266e-06 0 3.07843e-08)
(1.25197e-06 0 4.87764e-08)
(1.23327e-06 0 6.62829e-08)
(1.20952e-06 0 8.14595e-08)
(1.1822e-06 0 9.18555e-08)
(1.15261e-06 0 1.00527e-07)
(1.12074e-06 0 1.08362e-07)
(1.08702e-06 0 1.12692e-07)
(1.05201e-06 0 1.17847e-07)
(1.01648e-06 0 1.19608e-07)
(9.80763e-07 0 1.19778e-07)
(9.4527e-07 0 1.19456e-07)
(9.10255e-07 0 1.1815e-07)
(8.76003e-07 0 1.15861e-07)
(8.42691e-07 0 1.12993e-07)
(8.10379e-07 0 1.09711e-07)
(7.79269e-07 0 1.05811e-07)
(7.49433e-07 0 1.01887e-07)
(7.20792e-07 0 9.81467e-08)
(6.93379e-07 0 9.41909e-08)
(6.67098e-07 0 9.0525e-08)
(6.41942e-07 0 8.68985e-08)
(6.17845e-07 0 8.3429e-08)
(5.94683e-07 0 8.04075e-08)
(5.72412e-07 0 7.74532e-08)
(5.50968e-07 0 7.4711e-08)
(5.30249e-07 0 7.22883e-08)
(5.10125e-07 0 7.01431e-08)
(4.90627e-07 0 6.80362e-08)
(4.71674e-07 0 6.66694e-08)
(4.53161e-07 0 6.49323e-08)
(4.34943e-07 0 6.33005e-08)
(4.17128e-07 0 6.19526e-08)
(3.99761e-07 0 6.04781e-08)
(3.82705e-07 0 5.94559e-08)
(3.65947e-07 0 5.84704e-08)
(3.4948e-07 0 5.7246e-08)
(3.33282e-07 0 5.62969e-08)
(3.17428e-07 0 5.51169e-08)
(3.01836e-07 0 5.41061e-08)
(2.86552e-07 0 5.30349e-08)
(2.71529e-07 0 5.22023e-08)
(2.56821e-07 0 5.1164e-08)
(2.4238e-07 0 5.00869e-08)
(2.28222e-07 0 4.90442e-08)
(2.14363e-07 0 4.80346e-08)
(2.00804e-07 0 4.70247e-08)
(1.8753e-07 0 4.60234e-08)
(1.74526e-07 0 4.50354e-08)
(1.61772e-07 0 4.40947e-08)
(1.4929e-07 0 4.31399e-08)
(1.37094e-07 0 4.21509e-08)
(1.2517e-07 0 4.10889e-08)
(1.1347e-07 0 4.00681e-08)
(1.01989e-07 0 3.89551e-08)
(9.06678e-08 0 3.77997e-08)
(7.93659e-08 0 3.65287e-08)
(6.76796e-08 0 3.52258e-08)
(5.6669e-08 0 3.40797e-08)
(4.00122e-08 0 3.5625e-08)
(2.14431e-08 0 7.5121e-08)
(-3.804e-12 0 8.56036e-08)
(2.50921e-16 0 8.07066e-16)
(1.77358e-16 0 2.53324e-18)
(3.51986e-16 0 6.19352e-18)
(3.50776e-16 0 9.83311e-18)
(3.48781e-16 0 1.33796e-17)
(3.45586e-16 0 1.67297e-17)
(3.41181e-16 0 1.98937e-17)
(3.35587e-16 0 2.27992e-17)
(3.28949e-16 0 2.54358e-17)
(3.21349e-16 0 2.78036e-17)
(3.1286e-16 0 2.98922e-17)
(3.03658e-16 0 3.16397e-17)
(2.93856e-16 0 3.31389e-17)
(2.83527e-16 0 3.43487e-17)
(2.72752e-16 0 3.52896e-17)
(2.61648e-16 0 3.59824e-17)
(2.50336e-16 0 3.6427e-17)
(2.38848e-16 0 3.66751e-17)
(2.27258e-16 0 3.67268e-17)
(2.15625e-16 0 3.65924e-17)
(2.03972e-16 0 3.63029e-17)
(1.92361e-16 0 3.58893e-17)
(1.80863e-16 0 3.53827e-17)
(1.69479e-16 0 3.47726e-17)
(1.5824e-16 0 3.40798e-17)
(1.47176e-16 0 3.33044e-17)
(1.36299e-16 0 3.25289e-17)
(1.25618e-16 0 3.16914e-17)
(1.15102e-16 0 3.08849e-17)
(1.04824e-16 0 3.00784e-17)
(9.47846e-17 0 2.92925e-17)
(8.49515e-17 0 2.85274e-17)
(7.52941e-17 0 2.78036e-17)
(6.58229e-17 0 2.71419e-17)
(5.65275e-17 0 2.65628e-17)
(4.74181e-17 0 2.60355e-17)
(3.84846e-17 0 2.55806e-17)
(2.96234e-17 0 2.5229e-17)
(2.0845e-17 0 2.49602e-17)
(1.21389e-17 0 2.48051e-17)
(3.89809e-18 0 2.4743e-17)
(7.83545e-08 0 -6.8989e-07)
(2.68468e-07 0 -6.71406e-07)
(4.21687e-07 0 -6.42245e-07)
(5.76001e-07 0 -5.99329e-07)
(7.14942e-07 0 -5.46717e-07)
(8.3597e-07 0 -4.89329e-07)
(9.40354e-07 0 -4.30323e-07)
(1.02899e-06 0 -3.71775e-07)
(1.10284e-06 0 -3.15315e-07)
(1.16321e-06 0 -2.61878e-07)
(1.21144e-06 0 -2.11811e-07)
(1.24862e-06 0 -1.65685e-07)
(1.27588e-06 0 -1.22519e-07)
(1.29402e-06 0 -8.32042e-08)
(1.30337e-06 0 -4.93712e-08)
(1.30513e-06 0 -7.55699e-09)
(1.29991e-06 0 1.88548e-08)
(1.28867e-06 0 4.41299e-08)
(1.27197e-06 0 6.5407e-08)
(1.25041e-06 0 9.15691e-08)
(1.22399e-06 0 1.07043e-07)
(1.19409e-06 0 1.21639e-07)
(1.16225e-06 0 1.32771e-07)
(1.12805e-06 0 1.42566e-07)
(1.09222e-06 0 1.47948e-07)
(1.05518e-06 0 1.54331e-07)
(1.01799e-06 0 1.56038e-07)
(9.80816e-07 0 1.56158e-07)
(9.44044e-07 0 1.55356e-07)
(9.07971e-07 0 1.53303e-07)
(8.72922e-07 0 1.50024e-07)
(8.39001e-07 0 1.46171e-07)
(8.06265e-07 0 1.41626e-07)
(7.74911e-07 0 1.36328e-07)
(7.44896e-07 0 1.3128e-07)
(7.16282e-07 0 1.26006e-07)
(6.88961e-07 0 1.2094e-07)
(6.62844e-07 0 1.16123e-07)
(6.37928e-07 0 1.11337e-07)
(6.14107e-07 0 1.06907e-07)
(5.91221e-07 0 1.02977e-07)
(5.69247e-07 0 9.91078e-08)
(5.48077e-07 0 9.5663e-08)
(5.27607e-07 0 9.26634e-08)
(5.07723e-07 0 8.99675e-08)
(4.88479e-07 0 8.70271e-08)
(4.69723e-07 0 8.53937e-08)
(4.5147e-07 0 8.33716e-08)
(4.33415e-07 0 8.12318e-08)
(4.15628e-07 0 7.95382e-08)
(3.98347e-07 0 7.77075e-08)
(3.81387e-07 0 7.63681e-08)
(3.647e-07 0 7.51232e-08)
(3.48306e-07 0 7.35677e-08)
(3.32119e-07 0 7.23697e-08)
(3.1627e-07 0 7.09021e-08)
(3.00673e-07 0 6.96372e-08)
(2.854e-07 0 6.82587e-08)
(2.70367e-07 0 6.71387e-08)
(2.55665e-07 0 6.58063e-08)
(2.41239e-07 0 6.44481e-08)
(2.27094e-07 0 6.31052e-08)
(2.13243e-07 0 6.18221e-08)
(1.99671e-07 0 6.05731e-08)
(1.86391e-07 0 5.92808e-08)
(1.7338e-07 0 5.80754e-08)
(1.60632e-07 0 5.68461e-08)
(1.48142e-07 0 5.56064e-08)
(1.35942e-07 0 5.43404e-08)
(1.23989e-07 0 5.30557e-08)
(1.12258e-07 0 5.17908e-08)
(1.00783e-07 0 5.04544e-08)
(8.95318e-08 0 4.91444e-08)
(7.85053e-08 0 4.78985e-08)
(6.74852e-08 0 4.70689e-08)
(5.763e-08 0 4.68577e-08)
(4.35688e-08 0 4.98592e-08)
(2.23927e-08 0 9.62189e-08)
(-3.66544e-12 0 1.02194e-07)
(2.50617e-16 0 1.03818e-15)
(1.79483e-16 0 3.24668e-18)
(3.56184e-16 0 8.09603e-18)
(3.54881e-16 0 1.28316e-17)
(3.52772e-16 0 1.74535e-17)
(3.49349e-16 0 2.18479e-17)
(3.44655e-16 0 2.59735e-17)
(3.38772e-16 0 2.97475e-17)
(3.31793e-16 0 3.31906e-17)
(3.23862e-16 0 3.62098e-17)
(3.15042e-16 0 3.88775e-17)
(3.05509e-16 0 4.11626e-17)
(2.95397e-16 0 4.30548e-17)
(2.84747e-16 0 4.45644e-17)
(2.73693e-16 0 4.57534e-17)
(2.6233e-16 0 4.66116e-17)
(2.50729e-16 0 4.717e-17)
(2.39024e-16 0 4.74388e-17)
(2.27216e-16 0 4.74698e-17)
(2.15346e-16 0 4.7263e-17)
(2.03538e-16 0 4.68701e-17)
(1.91813e-16 0 4.63118e-17)
(1.80201e-16 0 4.55983e-17)
(1.68724e-16 0 4.47712e-17)
(1.57402e-16 0 4.38923e-17)
(1.46287e-16 0 4.28997e-17)
(1.35368e-16 0 4.18864e-17)
(1.24656e-16 0 4.08214e-17)
(1.14161e-16 0 3.97564e-17)
(1.03894e-16 0 3.87224e-17)
(9.3885e-17 0 3.76781e-17)
(8.41036e-17 0 3.67061e-17)
(7.4498e-17 0 3.57756e-17)
(6.51095e-17 0 3.4938e-17)
(5.59071e-17 0 3.41729e-17)
(4.68805e-17 0 3.35215e-17)
(3.80296e-17 0 3.29528e-17)
(2.92615e-17 0 3.24772e-17)
(2.05968e-17 0 3.2167e-17)
(1.20251e-17 0 3.19705e-17)
(3.87741e-18 0 3.19085e-17)
(8.58222e-08 0 -8.74564e-07)
(2.98103e-07 0 -8.48647e-07)
(4.64912e-07 0 -8.08393e-07)
(6.31144e-07 0 -7.49792e-07)
(7.78073e-07 0 -6.78717e-07)
(9.02574e-07 0 -6.02504e-07)
(1.00713e-06 0 -5.2591e-07)
(1.09392e-06 0 -4.51164e-07)
(1.1646e-06 0 -3.80075e-07)
(1.22107e-06 0 -3.13726e-07)
(1.26524e-06 0 -2.52226e-07)
(1.29843e-06 0 -1.95732e-07)
(1.32192e-06 0 -1.42703e-07)
(1.33621e-06 0 -9.62909e-08)
(1.34166e-06 0 -5.01002e-08)
(1.33958e-06 0 -4.9956e-09)
(1.33144e-06 0 2.83506e-08)
(1.31707e-06 0 6.03626e-08)
(1.29712e-06 0 8.69085e-08)
(1.27152e-06 0 1.18271e-07)
(1.24181e-06 0 1.36363e-07)
(1.209e-06 0 1.54482e-07)
(1.17409e-06 0 1.67722e-07)
(1.13684e-06 0 1.78982e-07)
(1.09832e-06 0 1.85911e-07)
(1.05878e-06 0 1.92856e-07)
(1.01945e-06 0 1.94313e-07)
(9.80461e-07 0 1.94049e-07)
(9.42113e-07 0 1.92589e-07)
(9.04756e-07 0 1.89358e-07)
(8.6869e-07 0 1.85003e-07)
(8.34037e-07 0 1.79861e-07)
(8.00819e-07 0 1.73863e-07)
(7.69174e-07 0 1.66967e-07)
(7.39006e-07 0 1.60706e-07)
(7.10511e-07 0 1.53884e-07)
(6.83313e-07 0 1.47595e-07)
(6.57445e-07 0 1.41448e-07)
(6.32834e-07 0 1.35486e-07)
(6.09369e-07 0 1.30074e-07)
(5.86871e-07 0 1.2517e-07)
(5.65258e-07 0 1.20507e-07)
(5.44473e-07 0 1.16278e-07)
(5.24372e-07 0 1.12633e-07)
(5.04845e-07 0 1.0932e-07)
(4.85871e-07 0 1.05926e-07)
(4.67354e-07 0 1.03559e-07)
(4.49309e-07 0 1.01712e-07)
(4.31528e-07 0 9.90825e-08)
(4.13805e-07 0 9.69957e-08)
(3.96608e-07 0 9.48389e-08)
(3.79745e-07 0 9.31831e-08)
(3.63115e-07 0 9.17145e-08)
(3.46795e-07 0 8.98738e-08)
(3.30631e-07 0 8.84577e-08)
(3.14816e-07 0 8.66162e-08)
(2.99222e-07 0 8.50906e-08)
(2.83977e-07 0 8.34266e-08)
(2.6893e-07 0 8.20758e-08)
(2.54232e-07 0 8.03877e-08)
(2.39782e-07 0 7.87968e-08)
(2.25662e-07 0 7.70899e-08)
(2.11818e-07 0 7.55499e-08)
(1.98293e-07 0 7.39824e-08)
(1.8504e-07 0 7.23973e-08)
(1.72025e-07 0 7.09463e-08)
(1.59268e-07 0 6.94809e-08)
(1.46788e-07 0 6.79518e-08)
(1.3457e-07 0 6.644e-08)
(1.22581e-07 0 6.49313e-08)
(1.10847e-07 0 6.34017e-08)
(9.93873e-08 0 6.18223e-08)
(8.82525e-08 0 6.02322e-08)
(7.75796e-08 0 5.86981e-08)
(6.70147e-08 0 5.77726e-08)
(5.84964e-08 0 5.66474e-08)
(4.7852e-08 0 5.97632e-08)
(2.39975e-08 0 1.20402e-07)
(-2.9184e-12 0 1.17688e-07)
(2.55845e-16 0 1.27494e-15)
(1.8221e-16 0 4.01183e-18)
(3.6155e-16 0 1.00709e-17)
(3.60113e-16 0 1.60266e-17)
(3.57807e-16 0 2.17859e-17)
(3.54116e-16 0 2.72453e-17)
(3.49081e-16 0 3.23738e-17)
(3.42804e-16 0 3.7037e-17)
(3.35391e-16 0 4.12556e-17)
(3.27016e-16 0 4.5009e-17)
(3.17803e-16 0 4.8266e-17)
(3.07835e-16 0 5.10267e-17)
(2.97258e-16 0 5.33325e-17)
(2.86225e-16 0 5.51523e-17)
(2.7481e-16 0 5.65481e-17)
(2.63085e-16 0 5.75511e-17)
(2.51194e-16 0 5.81611e-17)
(2.39169e-16 0 5.84507e-17)
(2.27082e-16 0 5.84196e-17)
(2.15026e-16 0 5.81301e-17)
(2.03021e-16 0 5.76235e-17)
(1.9111e-16 0 5.691e-17)
(1.79343e-16 0 5.60001e-17)
(1.67763e-16 0 5.49662e-17)
(1.56347e-16 0 5.38391e-17)
(1.4515e-16 0 5.26087e-17)
(1.3422e-16 0 5.13266e-17)
(1.23488e-16 0 5.00238e-17)
(1.12983e-16 0 4.87209e-17)
(1.02746e-16 0 4.74285e-17)
(9.27787e-17 0 4.61774e-17)
(8.30593e-17 0 4.49779e-17)
(7.35364e-17 0 4.38302e-17)
(6.42306e-17 0 4.28273e-17)
(5.51316e-17 0 4.1876e-17)
(4.6198e-17 0 4.11109e-17)
(3.74403e-17 0 4.04181e-17)
(2.88479e-17 0 3.98494e-17)
(2.03383e-17 0 3.94772e-17)
(1.18907e-17 0 3.92601e-17)
(3.84639e-18 0 3.92187e-17)
(9.59451e-08 0 -1.08172e-06)
(3.39058e-07 0 -1.04621e-06)
(5.24481e-07 0 -9.91041e-07)
(7.05605e-07 0 -9.10823e-07)
(8.61737e-07 0 -8.16008e-07)
(9.89157e-07 0 -7.164e-07)
(1.09192e-06 0 -6.19374e-07)
(1.17482e-06 0 -5.26859e-07)
(1.24049e-06 0 -4.40239e-07)
(1.29135e-06 0 -3.60703e-07)
(1.32986e-06 0 -2.88384e-07)
(1.35828e-06 0 -2.20532e-07)
(1.37675e-06 0 -1.60138e-07)
(1.38598e-06 0 -1.04876e-07)
(1.38765e-06 0 -4.51619e-08)
(1.38185e-06 0 3.35719e-10)
(1.36906e-06 0 4.13278e-08)
(1.35082e-06 0 7.90722e-08)
(1.32705e-06 0 1.14135e-07)
(1.29682e-06 0 1.47599e-07)
(1.2629e-06 0 1.69854e-07)
(1.2266e-06 0 1.90918e-07)
(1.18796e-06 0 2.06267e-07)
(1.14699e-06 0 2.18221e-07)
(1.10507e-06 0 2.26993e-07)
(1.06246e-06 0 2.33778e-07)
(1.02048e-06 0 2.34795e-07)
(9.79386e-07 0 2.33766e-07)
(9.39157e-07 0 2.31458e-07)
(9.00276e-07 0 2.2678e-07)
(8.63027e-07 0 2.20883e-07)
(8.27515e-07 0 2.14238e-07)
(7.93811e-07 0 2.0642e-07)
(7.61845e-07 0 1.98122e-07)
(7.31762e-07 0 1.89781e-07)
(7.03313e-07 0 1.81628e-07)
(6.76345e-07 0 1.73923e-07)
(6.50818e-07 0 1.66456e-07)
(6.26634e-07 0 1.59227e-07)
(6.036e-07 0 1.52843e-07)
(5.81609e-07 0 1.46906e-07)
(5.60502e-07 0 1.4141e-07)
(5.40212e-07 0 1.36387e-07)
(5.20482e-07 0 1.32371e-07)
(5.01419e-07 0 1.28239e-07)
(4.82699e-07 0 1.24915e-07)
(4.64589e-07 0 1.21284e-07)
(4.4673e-07 0 1.19752e-07)
(4.29357e-07 0 1.16806e-07)
(4.11826e-07 0 1.14225e-07)
(3.94647e-07 0 1.11866e-07)
(3.77874e-07 0 1.09847e-07)
(3.61311e-07 0 1.08205e-07)
(3.45075e-07 0 1.06083e-07)
(3.28886e-07 0 1.04482e-07)
(3.13067e-07 0 1.02347e-07)
(2.97468e-07 0 1.00535e-07)
(2.82237e-07 0 9.86039e-08)
(2.67205e-07 0 9.6973e-08)
(2.52517e-07 0 9.49995e-08)
(2.38051e-07 0 9.30957e-08)
(2.23928e-07 0 9.11049e-08)
(2.101e-07 0 8.92499e-08)
(1.96566e-07 0 8.743e-08)
(1.83366e-07 0 8.55212e-08)
(1.70334e-07 0 8.39257e-08)
(1.57637e-07 0 8.20965e-08)
(1.45176e-07 0 8.02981e-08)
(1.32945e-07 0 7.85819e-08)
(1.20939e-07 0 7.68482e-08)
(1.09166e-07 0 7.50719e-08)
(9.76596e-08 0 7.32386e-08)
(8.65183e-08 0 7.12785e-08)
(7.60858e-08 0 6.91635e-08)
(6.58998e-08 0 6.74611e-08)
(5.83938e-08 0 6.37717e-08)
(4.19691e-08 0 7.8345e-08)
(2.03548e-08 0 1.56917e-07)
(-2.42299e-12 0 1.26868e-07)
(2.66848e-16 0 1.49094e-15)
(1.85559e-16 0 4.74595e-18)
(3.68188e-16 0 1.21285e-17)
(3.66606e-16 0 1.94284e-17)
(3.64001e-16 0 2.64181e-17)
(3.59937e-16 0 3.30045e-17)
(3.54437e-16 0 3.91567e-17)
(3.47654e-16 0 4.47712e-17)
(3.39764e-16 0 4.98066e-17)
(3.30872e-16 0 5.42837e-17)
(3.21081e-16 0 5.81198e-17)
(3.10586e-16 0 6.13561e-17)
(2.99501e-16 0 6.40548e-17)
(2.87952e-16 0 6.61641e-17)
(2.76082e-16 0 6.77254e-17)
(2.63933e-16 0 6.88318e-17)
(2.51628e-16 0 6.95142e-17)
(2.39272e-16 0 6.97624e-17)
(2.26885e-16 0 6.9659e-17)
(2.1455e-16 0 6.92454e-17)
(2.02328e-16 0 6.85629e-17)
(1.9021e-16 0 6.76841e-17)
(1.78278e-16 0 6.6588e-17)
(1.66574e-16 0 6.53473e-17)
(1.55055e-16 0 6.39514e-17)
(1.43774e-16 0 6.24728e-17)
(1.32783e-16 0 6.09322e-17)
(1.22061e-16 0 5.93709e-17)
(1.11566e-16 0 5.78096e-17)
(1.0135e-16 0 5.62793e-17)
(9.14241e-17 0 5.48111e-17)
(8.17565e-17 0 5.33842e-17)
(7.2337e-17 0 5.20503e-17)
(6.31552e-17 0 5.08406e-17)
(5.42114e-17 0 4.97446e-17)
(4.54226e-17 0 4.8814e-17)
(3.67785e-17 0 4.80282e-17)
(2.83206e-17 0 4.73975e-17)
(1.99868e-17 0 4.69632e-17)
(1.17563e-17 0 4.6746e-17)
(3.83605e-18 0 4.67047e-17)
(1.09922e-07 0 -1.31946e-06)
(3.91811e-07 0 -1.27568e-06)
(6.10587e-07 0 -1.19188e-06)
(8.05779e-07 0 -1.08287e-06)
(9.70381e-07 0 -9.58396e-07)
(1.09988e-06 0 -8.29257e-07)
(1.19752e-06 0 -7.08286e-07)
(1.27297e-06 0 -5.96467e-07)
(1.33075e-06 0 -4.93573e-07)
(1.37345e-06 0 -4.01702e-07)
(1.40525e-06 0 -3.17614e-07)
(1.42714e-06 0 -2.41418e-07)
(1.43995e-06 0 -1.7102e-07)
(1.44413e-06 0 -1.04882e-07)
(1.44138e-06 0 -4.13811e-08)
(1.43071e-06 0 1.0639e-08)
(1.41333e-06 0 6.18482e-08)
(1.39033e-06 0 9.94376e-08)
(1.36121e-06 0 1.50239e-07)
(1.32641e-06 0 1.77265e-07)
(1.28742e-06 0 2.0871e-07)
(1.24689e-06 0 2.30669e-07)
(1.20327e-06 0 2.49538e-07)
(1.15822e-06 0 2.6041e-07)
(1.11193e-06 0 2.73058e-07)
(1.06608e-06 0 2.77262e-07)
(1.02088e-06 0 2.77682e-07)
(9.77193e-07 0 2.75808e-07)
(9.34783e-07 0 2.72019e-07)
(8.94172e-07 0 2.65631e-07)
(8.5568e-07 0 2.5776e-07)
(8.19235e-07 0 2.4924e-07)
(7.84977e-07 0 2.39262e-07)
(7.52837e-07 0 2.28997e-07)
(7.22797e-07 0 2.19036e-07)
(6.94548e-07 0 2.0914e-07)
(6.67906e-07 0 1.99944e-07)
(6.42879e-07 0 1.91012e-07)
(6.19299e-07 0 1.82475e-07)
(5.96826e-07 0 1.75082e-07)
(5.75441e-07 0 1.68099e-07)
(5.5493e-07 0 1.61907e-07)
(5.35259e-07 0 1.56106e-07)
(5.16013e-07 0 1.51627e-07)
(4.97525e-07 0 1.46667e-07)
(4.79174e-07 0 1.43494e-07)
(4.61613e-07 0 1.38589e-07)
(4.43743e-07 0 1.37531e-07)
(4.26821e-07 0 1.3447e-07)
(4.09678e-07 0 1.3125e-07)
(3.92398e-07 0 1.2894e-07)
(3.75705e-07 0 1.2646e-07)
(3.59209e-07 0 1.24692e-07)
(3.43069e-07 0 1.22329e-07)
(3.26871e-07 0 1.2053e-07)
(3.11072e-07 0 1.18094e-07)
(2.95451e-07 0 1.15958e-07)
(2.80182e-07 0 1.13791e-07)
(2.65144e-07 0 1.11858e-07)
(2.50463e-07 0 1.09697e-07)
(2.36065e-07 0 1.07342e-07)
(2.21918e-07 0 1.05069e-07)
(2.08122e-07 0 1.02939e-07)
(1.94667e-07 0 1.00758e-07)
(1.81427e-07 0 9.86966e-08)
(1.68429e-07 0 9.67764e-08)
(1.55764e-07 0 9.46679e-08)
(1.43314e-07 0 9.26659e-08)
(1.31093e-07 0 9.07439e-08)
(1.19057e-07 0 8.88156e-08)
(1.07203e-07 0 8.68236e-08)
(9.5556e-08 0 8.47494e-08)
(8.41971e-08 0 8.24688e-08)
(7.33639e-08 0 7.98561e-08)
(6.39423e-08 0 7.64741e-08)
(5.56794e-08 0 7.06578e-08)
(3.72374e-08 0 9.88391e-08)
(1.62033e-08 0 1.78327e-07)
(-1.70348e-12 0 1.31447e-07)
(2.73418e-16 0 1.6814e-15)
(1.8967e-16 0 5.44905e-18)
(3.76233e-16 0 1.43206e-17)
(3.74403e-16 0 2.29956e-17)
(3.71383e-16 0 3.13398e-17)
(3.66844e-16 0 3.91773e-17)
(3.60837e-16 0 4.64359e-17)
(3.53454e-16 0 5.30636e-17)
(3.44914e-16 0 5.89676e-17)
(3.35339e-16 0 6.41065e-17)
(3.24886e-16 0 6.85319e-17)
(3.1376e-16 0 7.22542e-17)
(3.02045e-16 0 7.52941e-17)
(2.89906e-16 0 7.76516e-17)
(2.77488e-16 0 7.93783e-17)
(2.64863e-16 0 8.05467e-17)
(2.52104e-16 0 8.12188e-17)
(2.39314e-16 0 8.14153e-17)
(2.26565e-16 0 8.11981e-17)
(2.13919e-16 0 8.06501e-17)
(2.0145e-16 0 7.97712e-17)
(1.89125e-16 0 7.86959e-17)
(1.76996e-16 0 7.73724e-17)
(1.65126e-16 0 7.58835e-17)
(1.53494e-16 0 7.42395e-17)
(1.42141e-16 0 7.25334e-17)
(1.31108e-16 0 7.07239e-17)
(1.20365e-16 0 6.89042e-17)
(1.09891e-16 0 6.70947e-17)
(9.97373e-17 0 6.53059e-17)
(8.98835e-17 0 6.35895e-17)
(8.02882e-17 0 6.19662e-17)
(7.09824e-17 0 6.04566e-17)
(6.19145e-17 0 5.90504e-17)
(5.30947e-17 0 5.77889e-17)
(4.44816e-17 0 5.66929e-17)
(3.60237e-17 0 5.5814e-17)
(2.77726e-17 0 5.51523e-17)
(1.96766e-17 0 5.47077e-17)
(1.16426e-17 0 5.44905e-17)
(3.81537e-18 0 5.44595e-17)
(1.31531e-07 0 -1.60168e-06)
(4.79689e-07 0 -1.53589e-06)
(7.08767e-07 0 -1.42661e-06)
(9.47471e-07 0 -1.26404e-06)
(1.11028e-06 0 -1.10339e-06)
(1.24017e-06 0 -9.35639e-07)
(1.32764e-06 0 -7.87527e-07)
(1.3899e-06 0 -6.56813e-07)
(1.43521e-06 0 -5.38238e-07)
(1.46729e-06 0 -4.32573e-07)
(1.48952e-06 0 -3.40756e-07)
(1.50463e-06 0 -2.53415e-07)
(1.51051e-06 0 -1.80724e-07)
(1.51087e-06 0 -1.00234e-07)
(1.50215e-06 0 -3.36624e-08)
(1.48608e-06 0 2.80969e-08)
(1.46376e-06 0 8.20699e-08)
(1.43537e-06 0 1.32282e-07)
(1.4e-06 0 1.84962e-07)
(1.36002e-06 0 2.167e-07)
(1.31574e-06 0 2.5262e-07)
(1.26944e-06 0 2.76118e-07)
(1.22e-06 0 2.96562e-07)
(1.16985e-06 0 3.08902e-07)
(1.1188e-06 0 3.21786e-07)
(1.06896e-06 0 3.24628e-07)
(1.0202e-06 0 3.23758e-07)
(9.73337e-07 0 3.20705e-07)
(9.28496e-07 0 3.14614e-07)
(8.8603e-07 0 3.05923e-07)
(8.46124e-07 0 2.96021e-07)
(8.08775e-07 0 2.84893e-07)
(7.73874e-07 0 2.72944e-07)
(7.41914e-07 0 2.59931e-07)
(7.11965e-07 0 2.47914e-07)
(6.84015e-07 0 2.3645e-07)
(6.57942e-07 0 2.25333e-07)
(6.3359e-07 0 2.14823e-07)
(6.10752e-07 0 2.05118e-07)
(5.89028e-07 0 1.96556e-07)
(5.68376e-07 0 1.88605e-07)
(5.48696e-07 0 1.81415e-07)
(5.29697e-07 0 1.75301e-07)
(5.11136e-07 0 1.7008e-07)
(4.93139e-07 0 1.64811e-07)
(4.7539e-07 0 1.61078e-07)
(4.58055e-07 0 1.56843e-07)
(4.40807e-07 0 1.53749e-07)
(4.23877e-07 0 1.52097e-07)
(4.0736e-07 0 1.48318e-07)
(3.90075e-07 0 1.4581e-07)
(3.73366e-07 0 1.43004e-07)
(3.56933e-07 0 1.41032e-07)
(3.40794e-07 0 1.38657e-07)
(3.2466e-07 0 1.3644e-07)
(3.08779e-07 0 1.33998e-07)
(2.93199e-07 0 1.31347e-07)
(2.77775e-07 0 1.29142e-07)
(2.62855e-07 0 1.26572e-07)
(2.48119e-07 0 1.24342e-07)
(2.3373e-07 0 1.21724e-07)
(2.19642e-07 0 1.18952e-07)
(2.05818e-07 0 1.16573e-07)
(1.92383e-07 0 1.142e-07)
(1.79236e-07 0 1.11784e-07)
(1.66267e-07 0 1.09584e-07)
(1.53673e-07 0 1.07235e-07)
(1.41265e-07 0 1.05017e-07)
(1.29035e-07 0 1.029e-07)
(1.16965e-07 0 1.00816e-07)
(1.05048e-07 0 9.8653e-08)
(9.32176e-08 0 9.64103e-08)
(8.14603e-08 0 9.39524e-08)
(6.973e-08 0 9.10788e-08)
(5.86028e-08 0 8.72952e-08)
(4.39421e-08 0 8.1043e-08)
(3.27848e-08 0 1.27362e-07)
(5.59291e-09 0 1.82548e-07)
(-7.49878e-13 0 1.3649e-07)
(2.83881e-16 0 1.85639e-15)
(1.94552e-16 0 6.18318e-18)
(3.85735e-16 0 1.6678e-17)
(3.83605e-16 0 2.68834e-17)
(3.80152e-16 0 3.66855e-17)
(3.75023e-16 0 4.59085e-17)
(3.68323e-16 0 5.43561e-17)
(3.60165e-16 0 6.19972e-17)
(3.50807e-16 0 6.87904e-17)
(3.40447e-16 0 7.46531e-17)