/*--------------------------------*- C++ -*----------------------------------*\
  =========                 |
  \\      /  F ield         | OpenFOAM: The Open Source CFD Toolbox
   \\    /   O peration     | Website:  https://openfoam.org
    \\  /    A nd           | Version:  6
     \\/     M anipulation  |
\*---------------------------------------------------------------------------*/
FoamFile
{
    version     2.0;
    format      ascii;
    class       surfaceScalarField;
    location    "3800";
    object      phi;
}
// * * * * * * * * * * * * * * * * * * * * * * * * * * * * * * * * * * * * * //

dimensions      [0 3 -1 0 0 0 0];

internalField   nonuniform List<scalar> 
9440
(
9.75499e-11
-9.75499e-11
1.90502e-10
-9.29502e-11
2.46182e-10
-5.56793e-11
2.72946e-10
-2.67634e-11
2.69747e-10
3.19996e-12
2.37209e-10
3.25391e-11
1.94828e-10
4.23815e-11
1.32778e-10
6.2051e-11
6.61871e-11
6.65919e-11
3.83423e-11
2.78458e-11
-4.66629e-11
8.50062e-11
-2.81612e-10
2.34951e-10
-3.42668e-10
6.10565e-11
-3.75924e-10
3.32576e-11
-4.07115e-10
3.1193e-11
-4.78629e-10
7.15156e-11
-4.76242e-10
-2.38479e-12
-8.11251e-10
3.35011e-10
-1.11527e-09
3.04024e-10
-1.41948e-09
3.04212e-10
-1.75499e-09
3.35512e-10
-1.94395e-09
1.88954e-10
-2.14034e-09
1.96395e-10
-2.34166e-09
2.01321e-10
-2.47857e-09
1.36915e-10
-2.53698e-09
5.84043e-11
-2.49126e-09
-4.57168e-11
-2.40328e-09
-8.79837e-11
-2.29791e-09
-1.05368e-10
-2.23591e-09
-6.20021e-11
-2.18829e-09
-4.76226e-11
-2.1791e-09
-9.18323e-12
-2.19169e-09
1.25976e-11
-2.22858e-09
3.68871e-11
-2.17195e-09
-5.66278e-11
-2.15669e-09
-1.52524e-11
-2.09498e-09
-6.17087e-11
-1.98559e-09
-1.09383e-10
-1.92671e-09
-5.88769e-11
-1.92146e-09
-5.24866e-12
-1.93458e-09
1.3116e-11
-1.97638e-09
4.18031e-11
-2.04989e-09
7.35115e-11
-2.11919e-09
6.92933e-11
-2.20844e-09
8.92481e-11
-2.28508e-09
7.66443e-11
-2.35972e-09
7.46402e-11
-2.44311e-09
8.33886e-11
-2.5465e-09
1.03385e-10
-2.67846e-09
1.31966e-10
-2.8318e-09
1.53333e-10
-2.99799e-09
1.66194e-10
-3.11547e-09
1.17483e-10
-3.19588e-09
8.04121e-11
-3.10075e-09
-9.51252e-11
-2.94467e-09
-1.56086e-10
-2.77896e-09
-1.65703e-10
-2.53594e-09
-2.43025e-10
-2.18571e-09
-3.50224e-10
-1.81998e-09
-3.65731e-10
-1.50159e-09
-3.18386e-10
-1.22606e-09
-2.75536e-10
-9.98001e-10
-2.28055e-10
-8.12377e-10
-1.85623e-10
-6.19911e-10
-1.92464e-10
-4.56743e-10
-1.63167e-10
-1.49047e-10
-3.07694e-10
1.19171e-10
-2.68216e-10
6.30583e-10
-5.1141e-10
7.35657e-10
-1.05072e-10
9.0109e-10
-1.65431e-10
1.16127e-09
-2.60173e-10
1.27072e-09
-1.09453e-10
1.18946e-09
8.12634e-11
1.08266e-09
1.06799e-10
8.71552e-10
2.1111e-10
6.983e-10
1.73253e-10
6.44975e-10
5.33252e-11
6.03198e-10
4.17767e-11
3.3094e-10
2.72258e-10
2.82256e-10
4.86831e-11
-1.33017e-15
2.82258e-10
-7.36172e-18
-6.31718e-16
3.88705e-18
-1.12488e-17
4.04495e-18
-1.58678e-19
2.8894e-18
1.1543e-18
1.97494e-18
9.13073e-19
1.41499e-18
5.58794e-19
1.11116e-18
3.03093e-19
9.71572e-19
1.39321e-19
9.34544e-19
3.7257e-20
9.61019e-19
-2.57969e-20
1.02607e-18
-6.39988e-20
1.11327e-18
-8.58339e-20
1.21131e-18
-9.64246e-20
1.3121e-18
-9.89634e-20
1.40968e-18
-9.55419e-20
1.49955e-18
-8.76235e-20
1.57832e-18
-7.63049e-20
1.64347e-18
-6.24633e-20
1.69318e-18
-4.68351e-20
1.7262e-18
-3.00544e-20
1.74185e-18
-1.2667e-20
1.73985e-18
4.86594e-21
1.72036e-18
2.21689e-20
1.68388e-18
3.89409e-20
1.63122e-18
5.49455e-20
1.56339e-18
7.00008e-20
1.48155e-18
8.39746e-20
1.38695e-18
9.67812e-20
1.28088e-18
1.08376e-19
1.1646e-18
1.18742e-19
1.03931e-18
1.2788e-19
9.06158e-19
1.35799e-19
7.66178e-19
1.42514e-19
6.20377e-19
1.48044e-19
4.69762e-19
1.52408e-19
3.15396e-19
1.55631e-19
1.58415e-19
1.57746e-19
1.58825e-19
8.76372e-11
-1.85186e-10
1.29004e-10
-1.34315e-10
1.54949e-10
-8.16224e-11
1.88343e-10
-6.01563e-11
1.77737e-10
1.38076e-11
1.3342e-10
7.68578e-11
1.0533e-10
7.04731e-11
3.32457e-11
1.34137e-10
-1.89131e-10
2.8897e-10
-3.66867e-10
2.05584e-10
-4.18551e-10
1.36692e-10
-3.88331e-10
2.04733e-10
-5.68184e-10
2.40912e-10
-7.24708e-10
1.89785e-10
-8.96779e-10
2.03267e-10
-1.08033e-09
2.55071e-10
-1.35008e-09
2.67368e-10
-1.52383e-09
5.08765e-10
-1.85714e-09
6.37333e-10
-2.02388e-09
4.70955e-10
-2.21569e-09
5.27326e-10
-2.43942e-09
4.12684e-10
-2.58854e-09
3.45522e-10
-2.67097e-09
2.83744e-10
-2.71444e-09
1.80388e-10
-2.67596e-09
1.99229e-11
-2.62555e-09
-9.61303e-11
-2.52563e-09
-1.87897e-10
-2.40425e-09
-2.26749e-10
-2.33344e-09
-1.3281e-10
-2.27486e-09
-1.06203e-10
-2.27703e-09
-7.00277e-12
-2.29422e-09
2.97918e-11
-2.27739e-09
2.00702e-11
-2.24816e-09
-8.58574e-11
-2.26254e-09
-8.61896e-13
-2.23169e-09
-9.25518e-11
-2.23804e-09
-1.03036e-10
-2.24727e-09
-4.96408e-11
-2.28991e-09
3.73926e-11
-2.34585e-09
6.90542e-11
-2.41185e-09
1.07801e-10
-2.48508e-09
1.4674e-10
-2.55918e-09
1.43394e-10
-2.6017e-09
1.3177e-10
-2.64433e-09
1.19272e-10
-2.71338e-09
1.43682e-10
-2.80786e-09
1.77876e-10
-2.89833e-09
1.9385e-10
-2.96246e-09
1.96102e-10
-3.0019e-09
1.9277e-10
-3.02928e-09
1.93573e-10
-3.05511e-09
1.43321e-10
-3.02296e-09
4.82581e-11
-2.87515e-09
-2.42929e-10
-2.63267e-09
-3.98563e-10
-2.3694e-09
-4.28979e-10
-2.07273e-09
-5.39686e-10
-1.65857e-09
-7.64389e-10
-1.26563e-09
-7.58666e-10
-9.87192e-10
-5.9682e-10
-7.52775e-10
-5.09951e-10
-5.51955e-10
-4.28873e-10
-3.42584e-10
-3.94991e-10
-1.32497e-10
-4.02547e-10
9.21325e-11
-3.87793e-10
3.07066e-10
-5.22624e-10
4.5579e-10
-4.16936e-10
6.58676e-10
-7.14292e-10
8.88254e-10
-3.34647e-10
1.07295e-09
-3.50128e-10
1.2508e-09
-4.38014e-10
1.37137e-09
-2.30023e-10
1.38676e-09
6.5881e-11
1.26711e-09
2.26449e-10
1.10313e-09
3.75094e-10
9.0629e-10
3.70091e-10
7.77045e-10
1.82571e-10
5.99158e-10
2.19663e-10
5.17285e-10
3.54129e-10
5.29388e-11
5.13025e-10
-6.0912e-11
3.96103e-10
5.2086e-17
-6.09127e-11
1.44264e-17
2.64317e-17
5.3581e-18
8.90793e-18
2.64817e-18
3.86264e-18
1.62066e-18
1.93918e-18
1.15929e-18
1.01928e-18
9.47384e-19
5.14844e-19
8.69508e-19
2.17824e-19
8.7149e-19
3.66349e-20
9.22817e-19
-7.5138e-20
1.00424e-18
-1.42932e-19
1.10268e-18
-1.81377e-19
1.20877e-18
-1.99252e-19
1.31552e-18
-2.02094e-19
1.4176e-18
-1.93619e-19
1.51086e-18
-1.76515e-19
1.59216e-18
-1.52866e-19
1.6591e-18
-1.24381e-19
1.70996e-18
-9.25122e-20
1.74359e-18
-5.85009e-20
1.75938e-18
-2.34021e-20
1.75715e-18
1.19088e-20
1.73713e-18
4.67173e-20
1.69989e-18
8.04461e-20
1.64627e-18
1.12635e-19
1.57736e-18
1.42923e-19
1.49436e-18
1.71041e-19
1.39855e-18
1.96795e-19
1.29125e-18
2.20054e-19
1.17374e-18
2.4074e-19
1.04723e-18
2.58829e-19
9.12873e-19
2.74352e-19
7.71708e-19
2.87385e-19
6.24741e-19
2.98036e-19
4.72985e-19
3.06423e-19
3.17511e-19
3.12643e-19
1.59494e-19
3.16772e-19
3.18893e-19
4.44814e-11
-2.29666e-10
5.70868e-11
-1.46919e-10
3.35741e-11
-5.81085e-11
4.36799e-11
-7.02609e-11
6.91666e-11
-1.1678e-11
-2.90409e-11
1.75066e-10
-1.66194e-10
2.07627e-10
-2.53175e-10
2.21119e-10
-3.00172e-10
3.35968e-10
-4.11842e-10
3.17255e-10
-5.47668e-10
2.72519e-10
-6.20962e-10
2.78029e-10
-6.79744e-10
2.99695e-10
-9.54421e-10
4.64464e-10
-1.31697e-09
5.65817e-10
-1.48704e-09
4.25139e-10
-1.88365e-09
6.6398e-10
-1.9885e-09
6.13623e-10
-2.12055e-09
7.69379e-10
-2.32649e-09
6.76902e-10
-2.41223e-09
6.13064e-10
-2.53137e-09
5.31829e-10
-2.61661e-09
4.30756e-10
-2.68032e-09
3.4746e-10
-2.67995e-09
1.80018e-10
-2.67315e-09
1.31228e-11
-2.67833e-09
-9.09485e-11
-2.68296e-09
-1.83264e-10
-2.70547e-09
-2.04237e-10
-2.64968e-09
-1.88596e-10
-2.56753e-09
-1.88354e-10
-2.54687e-09
-2.76566e-11
-2.53412e-09
1.70469e-11
-2.50547e-09
-8.57407e-12
-2.5644e-09
-2.69204e-11
-2.55338e-09
-1.18783e-11
-2.58403e-09
-6.18941e-11
-2.62231e-09
-6.47563e-11
-2.60862e-09
-6.33236e-11
-2.67121e-09
9.99786e-11
-2.71658e-09
1.14428e-10
-2.7619e-09
1.53116e-10
-2.80607e-09
1.90913e-10
-2.85787e-09
1.95194e-10
-2.885e-09
1.58895e-10
-2.94315e-09
1.77422e-10
-2.99214e-09
1.92667e-10
-3.05483e-09
2.40573e-10
-3.11123e-09
2.50252e-10
-3.12033e-09
2.05201e-10
-3.06237e-09
1.34806e-10
-2.98501e-09
1.1622e-10
-2.91521e-09
7.35162e-11
-2.82262e-09
-4.43224e-11
-2.78011e-09
-2.85437e-10
-2.57726e-09
-6.01413e-10
-2.19331e-09
-8.12933e-10
-1.91123e-09
-8.21764e-10
-1.38038e-09
-1.29524e-09
-8.5066e-10
-1.28838e-09
-5.70663e-10
-8.76816e-10
-3.03309e-10
-7.77303e-10
1.8522e-11
-7.50702e-10
3.97694e-10
-7.74161e-10
6.8539e-10
-6.90241e-10
8.05617e-10
-5.08018e-10
7.69681e-10
-4.86685e-10
8.54201e-10
-5.01454e-10
7.84169e-10
-6.44257e-10
9.71919e-10
-5.22394e-10
1.14361e-09
-5.21818e-10
1.23019e-09
-5.24588e-10
1.27622e-09
-2.76053e-10
1.37195e-09
-2.98467e-11
1.36032e-09
2.38079e-10
1.24273e-09
4.92689e-10
1.02715e-09
5.85671e-10
8.19328e-10
3.90388e-10
5.15805e-10
5.23186e-10
2.55437e-10
6.14497e-10
-2.32049e-10
1.00051e-09
-1.01079e-09
1.17484e-09
-2.41369e-16
-1.0717e-09
-2.88759e-18
2.54742e-18
3.1362e-19
5.70571e-18
7.24717e-19
3.45079e-18
7.00756e-19
1.9626e-18
6.54859e-19
1.065e-18
6.50365e-19
5.19658e-19
6.88318e-19
1.80724e-19
7.59717e-19
-3.34161e-20
8.55024e-19
-1.68694e-19
9.65794e-19
-2.51633e-19
1.08481e-18
-2.98048e-19
1.20593e-18
-3.17766e-19
1.324e-18
-3.17257e-19
1.4347e-18
-3.01093e-19
1.53451e-18
-2.72759e-19
1.62065e-18
-2.35094e-19
1.69097e-18
-1.90509e-19
1.74397e-18
-1.411e-19
1.77869e-18
-8.86936e-20
1.79469e-18
-3.48606e-20
1.79196e-18
1.90873e-20
1.77086e-18
7.20818e-20
1.73207e-18
1.23272e-19
1.67656e-18
1.71985e-19
1.60548e-18
2.17701e-19
1.52011e-18
2.6003e-19
1.42181e-18
2.98697e-19
1.31193e-18
3.33531e-19
1.19183e-18
3.64453e-19
1.06276e-18
3.91465e-19
9.25906e-19
4.14643e-19
7.8236e-19
4.3412e-19
6.33128e-19
4.50058e-19
4.79205e-19
4.62622e-19
3.2164e-19
4.71955e-19
1.61616e-19
4.78173e-19
4.81367e-19
1.81428e-11
-2.47808e-10
2.63361e-11
-1.55111e-10
2.79366e-11
-5.9708e-11
-1.29173e-11
-2.9406e-11
-8.88106e-11
6.42162e-11
-1.66293e-10
2.5255e-10
-3.02715e-10
3.4405e-10
-4.17953e-10
3.36358e-10
-4.51552e-10
3.69568e-10
-4.72947e-10
3.38651e-10
-5.27817e-10
3.2739e-10
-7.71633e-10
5.21846e-10
-1.0076e-09
5.3566e-10
-1.23922e-09
6.96087e-10
-1.53449e-09
8.61093e-10
-1.82313e-09
7.1378e-10
-1.98032e-09
8.21168e-10
-2.17216e-09
8.05457e-10
-2.2524e-09
8.4963e-10
-2.38518e-09
8.09683e-10
-2.49443e-09
7.22308e-10
-2.63078e-09
6.68184e-10
-2.71977e-09
5.19747e-10
-2.79653e-09
4.24223e-10
-2.7287e-09
1.1219e-10
-2.73655e-09
2.09762e-11
-2.80713e-09
-2.03665e-11
-2.8869e-09
-1.03491e-10
-2.92324e-09
-1.67902e-10
-2.92897e-09
-1.82855e-10
-2.95348e-09
-1.63846e-10
-2.91509e-09
-6.60424e-11
-2.8705e-09
-2.75422e-11
-2.84387e-09
-3.5203e-11
-2.85127e-09
-1.95073e-11
-2.81015e-09
-5.30016e-11
-2.81153e-09
-6.05113e-11
-2.82596e-09
-5.03211e-11
-2.86128e-09
-2.8001e-11
-2.88793e-09
1.26638e-10
-2.932e-09
1.58497e-10
-2.9664e-09
1.8752e-10
-3.03112e-09
2.55628e-10
-3.0901e-09
2.54173e-10
-3.14066e-09
2.09465e-10
-3.19057e-09
2.27329e-10
-3.21774e-09
2.19834e-10
-3.24898e-09
2.71817e-10
-3.28111e-09
2.82386e-10
-3.19656e-09
1.20653e-10
-3.07439e-09
1.26292e-11
-2.96594e-09
7.7786e-12
-2.84665e-09
-4.57759e-11
-2.76383e-09
-1.27141e-10
-2.71982e-09
-3.29449e-10
-2.5628e-09
-7.58424e-10
-2.13483e-09
-1.2409e-09
-1.61733e-09
-1.33927e-09
-9.07065e-10
-2.0055e-09
-4.11291e-10
-1.78416e-09
5.85523e-12
-1.29396e-09
4.04769e-10
-1.17622e-09
6.07892e-10
-9.53825e-10
7.39222e-10
-9.05489e-10
8.71978e-10
-8.22995e-10
9.68862e-10
-6.04901e-10
9.70587e-10
-4.88407e-10
1.00217e-09
-5.33037e-10
9.56117e-10
-5.982e-10
1.00714e-09
-5.73411e-10
1.10185e-09
-6.16534e-10
1.20798e-09
-6.30714e-10
1.24715e-09
-3.15224e-10
1.2718e-09
-5.44892e-11
1.2576e-09
2.52282e-10
1.17712e-09
5.73166e-10
1.07225e-09
6.9054e-10
8.23142e-10
6.39497e-10
4.04582e-10
9.41745e-10
-1.4808e-10
1.16716e-09
-6.02836e-10
1.45527e-09
-5.20372e-10
1.09238e-09
-4.84432e-16
-1.59207e-09
-4.30122e-18
4.59154e-19
-1.94035e-18
3.3444e-18
-7.63389e-19
2.27393e-18
-1.96842e-19
1.39629e-18
1.09514e-19
7.59119e-19
3.11431e-19
3.18524e-19
4.74178e-19
1.91007e-20
6.24439e-19
-1.82231e-19
7.72084e-19
-3.14647e-19
9.1938e-19
-3.97054e-19
1.06509e-18
-4.41727e-19
1.20644e-18
-4.56925e-19
1.34016e-18
-4.48579e-19
1.46303e-18
-4.21298e-19
1.57218e-18
-3.78925e-19
1.66523e-18
-3.24818e-19
1.74038e-18
-2.61984e-19
1.79637e-18
-1.9312e-19
1.83252e-18
-1.20628e-19
1.84864e-18
-4.66014e-20
1.84495e-18
2.71988e-20
1.82205e-18
9.93425e-20
1.78079e-18
1.68705e-19
1.72228e-18
2.34424e-19
1.64781e-18
2.95854e-19
1.55878e-18
3.52534e-19
1.45664e-18
4.04166e-19
1.34285e-18
4.50588e-19
1.21884e-18
4.91751e-19
1.08593e-18
5.27702e-19
9.45383e-19
5.58561e-19
7.98298e-19
5.84504e-19
6.45691e-19
6.05732e-19
4.88538e-19
6.22453e-19
3.27859e-19
6.34856e-19
1.64809e-19
6.43105e-19
6.47322e-19
1.86725e-12
-2.49674e-10
1.343e-11
-1.66673e-10
3.95512e-11
-8.58285e-11
2.77211e-11
-1.75751e-11
-1.87134e-10
2.79072e-10
-3.74065e-10
4.39481e-10
-5.01064e-10
4.7105e-10
-5.63801e-10
3.99095e-10
-5.37009e-10
3.42777e-10
-5.599e-10
3.61543e-10
-7.60989e-10
5.28479e-10
-9.20189e-10
6.81047e-10
-1.21452e-09
8.29988e-10
-1.44167e-09
9.23239e-10
-1.62743e-09
1.04686e-09
-1.91947e-09
1.00582e-09
-2.04615e-09
9.47845e-10
-2.21436e-09
9.7366e-10
-2.3211e-09
9.56379e-10
-2.39582e-09
8.84396e-10
-2.53729e-09
8.63783e-10
-2.63204e-09
7.62937e-10
-2.75806e-09
6.45763e-10
-2.83609e-09
5.02259e-10
-2.8828e-09
1.58905e-10
-2.95593e-09
9.41055e-11
-3.03871e-09
6.24241e-11
-3.03052e-09
-1.11685e-10
-3.05919e-09
-1.39224e-10
-3.1102e-09
-1.31843e-10
-3.14021e-09
-1.33836e-10
-3.11091e-09
-9.53439e-11
-3.06275e-09
-7.56907e-11
-3.03222e-09
-6.57317e-11
-3.01979e-09
-3.19365e-11
-3.03138e-09
-4.14107e-11
-3.02723e-09
-6.46597e-11
-3.0378e-09
-3.97422e-11
-3.09565e-09
2.98506e-11
-3.0924e-09
1.2339e-10
-3.1441e-09
2.10203e-10
-3.15448e-09
1.97898e-10
-3.21747e-09
3.18617e-10
-3.26556e-09
3.02263e-10
-3.31966e-09
2.63572e-10
-3.3243e-09
2.31968e-10
-3.33455e-09
2.30086e-10
-3.3276e-09
2.64864e-10
-3.32868e-09
2.83471e-10
-3.19751e-09
-1.05161e-11
-3.06341e-09
-1.21475e-10
-2.88982e-09
-1.65804e-10
-2.76139e-09
-1.74205e-10
-2.65805e-09
-2.30479e-10
-2.63152e-09
-3.55979e-10
-2.50456e-09
-8.85385e-10
-2.10729e-09
-1.63817e-09
-1.46315e-09
-1.98341e-09
-9.30925e-10
-2.53772e-09
-3.72273e-10
-2.34281e-09
1.98976e-10
-1.86521e-09
4.2875e-10
-1.40599e-09
4.90552e-10
-1.01563e-09
5.80532e-10
-9.95468e-10
7.13057e-10
-9.55519e-10
8.3597e-10
-7.27813e-10
8.9965e-10
-5.52086e-10
9.41759e-10
-5.75145e-10
9.76611e-10
-6.33051e-10
1.04423e-09
-6.41026e-10
1.07514e-09
-6.47445e-10
1.12186e-09
-6.77431e-10
1.20954e-09
-4.02899e-10
1.15225e-09
2.79309e-12
1.1187e-09
2.85838e-10
1.08422e-09
6.07651e-10
9.74374e-10
8.00382e-10
7.90313e-10
8.23558e-10
7.4183e-10
9.90229e-10
6.91162e-10
1.21783e-09
6.79302e-10
1.46713e-09
1.77595e-10
1.59408e-09
-6.26208e-16
-1.41447e-09
-5.39728e-18
-2.79515e-18
-3.00993e-18
9.57094e-19
-1.64079e-18
9.05568e-19
-8.34015e-19
5.90377e-19
-3.3108e-19
2.5715e-19
1.20068e-20
-2.34487e-20
2.72846e-19
-2.40455e-19
4.92024e-19
-3.99959e-19
6.89677e-19
-5.10755e-19
8.74707e-19
-5.80505e-19
1.04989e-18
-6.15326e-19
1.21479e-18
-6.20223e-19
1.36744e-18
-5.99575e-19
1.50541e-18
-5.57451e-19
1.62629e-18
-4.97749e-19
1.72807e-18
-4.24215e-19
1.80924e-18
-3.40402e-19
1.86887e-18
-2.49606e-19
1.90655e-18
-1.54821e-19
1.92244e-18
-5.8685e-20
1.9171e-18
3.65702e-20
1.89141e-18
1.29144e-19
1.84651e-18
2.1765e-19
1.78371e-18
3.01064e-19
1.70449e-18
3.78665e-19
1.61041e-18
4.49977e-19
1.50306e-18
5.14727e-19
1.38402e-18
5.72804e-19
1.25479e-18
6.2422e-19
1.11679e-18
6.6908e-19
9.71325e-19
7.07557e-19
8.19526e-19
7.39874e-19
6.62412e-19
7.6628e-19
5.00941e-19
7.87036e-19
3.36108e-19
8.02392e-19
1.69027e-19
8.12571e-19
8.17741e-19
-7.63469e-12
-2.42039e-10
3.01914e-11
-2.04498e-10
6.63886e-11
-1.22025e-10
3.57355e-11
1.30783e-11
-1.37652e-10
4.5246e-10
-2.94146e-10
5.95976e-10
-4.29853e-10
6.06757e-10
-5.68761e-10
5.38004e-10
-6.33974e-10
4.07989e-10
-6.78147e-10
4.05717e-10
-9.04806e-10
7.55138e-10
-1.13339e-09
9.09635e-10
-1.37347e-09
1.07006e-09
-1.64517e-09
1.19495e-09
-1.79511e-09
1.19679e-09
-1.93008e-09
1.1408e-09
-2.04952e-09
1.06728e-09
-2.18329e-09
1.10743e-09
-2.3381e-09
1.11119e-09
-2.46322e-09
1.00952e-09
-2.53836e-09
9.38918e-10
-2.6114e-09
8.35984e-10
-2.71874e-09
7.53107e-10
-2.75055e-09
5.34069e-10
-2.92303e-09
3.31389e-10
-3.03708e-09
2.0816e-10
-3.0531e-09
7.8447e-11
-3.09867e-09
-6.6109e-11
-3.19981e-09
-3.80844e-11
-3.24537e-09
-8.62752e-11
-3.25273e-09
-1.26479e-10
-3.22057e-09
-1.27496e-10
-3.17105e-09
-1.25215e-10
-3.13502e-09
-1.01763e-10
-3.12793e-09
-3.90173e-11
-3.13279e-09
-3.65448e-11
-3.16326e-09
-3.41883e-11
-3.19758e-09
-5.42497e-12
-3.22628e-09
5.85597e-11
-3.24738e-09
1.44496e-10
-3.25663e-09
2.19449e-10
-3.30109e-09
2.42364e-10
-3.30777e-09
3.253e-10
-3.3352e-09
3.29698e-10
-3.33936e-09
2.6773e-10
-3.29595e-09
1.88555e-10
-3.29439e-09
2.28527e-10
-3.24662e-09
2.17095e-10
-3.13654e-09
1.73395e-10
-2.98713e-09
-1.59919e-10
-2.84598e-09
-2.62624e-10
-2.71535e-09
-2.96441e-10
-2.59288e-09
-2.96665e-10
-2.46257e-09
-3.60794e-10
-2.39763e-09
-4.20918e-10
-2.09666e-09
-1.18635e-09
-1.663e-09
-2.07183e-09
-1.16058e-09
-2.48583e-09
-8.70032e-10
-2.82827e-09
-3.9346e-10
-2.81938e-09
6.64385e-11
-2.32511e-09
2.92637e-10
-1.63219e-09
3.38825e-10
-1.06182e-09
3.77908e-10
-1.03455e-09
4.46729e-10
-1.02434e-09
5.4454e-10
-8.25623e-10
6.6239e-10
-6.69935e-10
7.78835e-10
-6.91589e-10
8.5926e-10
-7.13474e-10
9.45916e-10
-7.27681e-10
9.26554e-10
-6.28083e-10
9.74823e-10
-7.25699e-10
1.04182e-09
-4.69896e-10
1.04645e-09
-1.83459e-12
1.03959e-09
2.92698e-10
9.56987e-10
6.90254e-10
8.15536e-10
9.41834e-10
6.84661e-10
9.54434e-10
6.80745e-10
9.94146e-10
6.88437e-10
1.21014e-09
5.33897e-10
1.62167e-09
2.77728e-10
1.85025e-09
-5.95218e-16
-1.13674e-09
-4.46341e-18
-2.87313e-18
-3.06068e-18
-4.45201e-19
-1.95562e-18
-1.98321e-19
-1.16724e-18
-1.9679e-19
-6.11679e-19
-2.97172e-19
-2.04999e-19
-4.28856e-19
1.13342e-19
-5.57478e-19
3.81229e-19
-6.66484e-19
6.19927e-19
-7.48116e-19
8.39886e-19
-7.99225e-19
1.04499e-18
-8.19338e-19
1.23543e-18
-8.09729e-19
1.40957e-18
-7.72899e-19
1.56511e-18
-7.12212e-19
1.69982e-18
-6.31572e-19
1.81188e-18
-5.35139e-19
1.90004e-18
-4.27073e-19
1.96365e-18
-3.11332e-19
2.00269e-18
-1.91553e-19
2.01769e-18
-7.09534e-20
2.00967e-18
4.77435e-20
1.97992e-18
1.62361e-19
1.92992e-18
2.71262e-19
1.86131e-18
3.7329e-19
1.7758e-18
4.67689e-19
1.67516e-18
5.54019e-19
1.56114e-18
6.32082e-19
1.43543e-18
7.01861e-19
1.29965e-18
7.63465e-19
1.15527e-18
8.17087e-19
1.00364e-18
8.62983e-19
8.45932e-19
9.01445e-19
6.83168e-19
9.32798e-19
5.16297e-19
9.57373e-19
3.46286e-19
9.75501e-19
1.74197e-19
9.87473e-19
9.93511e-19
-5.97345e-11
-1.82304e-10
-1.41301e-10
-1.22933e-10
-2.43658e-10
-1.96682e-11
-3.35378e-10
1.04798e-10
-3.51153e-10
4.68235e-10
-4.48841e-10
6.93664e-10
-5.34253e-10
6.92169e-10
-6.00568e-10
6.04319e-10
-6.66766e-10
4.74188e-10
-8.1193e-10
5.50881e-10
-1.05375e-09
9.96958e-10
-1.21306e-09
1.06895e-09
-1.40989e-09
1.26689e-09
-1.64023e-09
1.42529e-09
-1.77295e-09
1.32952e-09
-1.95525e-09
1.3231e-09
-2.11092e-09
1.22296e-09
-2.22511e-09
1.22162e-09
-2.31908e-09
1.20516e-09
-2.41758e-09
1.10802e-09
-2.46946e-09
9.90799e-10
-2.52901e-09
8.9554e-10
-2.62103e-09
8.45133e-10
-2.67196e-09
5.84998e-10
-2.82571e-09
4.85143e-10
-2.97673e-09
3.59183e-10
-3.08134e-09
1.8306e-10
-3.19859e-09
5.11528e-11
-3.26032e-09
2.36476e-11
-3.24173e-09
-1.04867e-10
-3.24552e-09
-1.22689e-10
-3.25433e-09
-1.18685e-10
-3.21601e-09
-1.63531e-10
-3.17782e-09
-1.39955e-10
-3.16825e-09
-4.85826e-11
-3.16022e-09
-4.45699e-11
-3.19075e-09
-3.66277e-12
-3.22404e-09
2.787e-11
-3.24617e-09
8.06947e-11
-3.24925e-09
1.4758e-10
-3.24091e-09
2.11118e-10
-3.26926e-09
2.70713e-10
-3.24194e-09
2.97984e-10
-3.24468e-09
3.32441e-10
-3.26911e-09
2.92159e-10
-3.20585e-09
1.25292e-10
-3.19032e-09
2.13005e-10
-3.10832e-09
1.35096e-10
-2.98517e-09
5.02503e-11
-2.92673e-09
-2.18359e-10
-2.75465e-09
-4.34702e-10
-2.54302e-09
-5.08073e-10
-2.3297e-09
-5.09983e-10
-2.11883e-09
-5.71665e-10
-1.84973e-09
-6.90014e-10
-1.65748e-09
-1.3786e-09
-1.40211e-09
-2.3272e-09
-9.88174e-10
-2.89977e-09
-5.03949e-10
-3.31249e-09
-2.51992e-10
-3.07134e-09
-6.189e-11
-2.51521e-09
1.65212e-10
-1.85929e-09
1.77528e-10
-1.07413e-09
1.88238e-10
-1.04526e-09
2.36278e-10
-1.07238e-09
3.21711e-10
-9.11055e-10
4.35228e-10
-7.83453e-10
5.52907e-10
-8.09267e-10
6.29784e-10
-7.90351e-10
7.41021e-10
-8.38918e-10
8.09007e-10
-6.96068e-10
8.29331e-10
-7.46023e-10
9.02275e-10
-5.4284e-10
8.78076e-10
2.23647e-11
8.08377e-10
3.62398e-10
6.90359e-10
8.08273e-10
5.82733e-10
1.04946e-09
5.10761e-10
1.02641e-09
4.60695e-10
1.04421e-09
3.63162e-10
1.30767e-09
2.24443e-10
1.76039e-09
2.72717e-10
1.80198e-09
-4.57254e-16
-8.64023e-10
-3.69438e-18
-1.94475e-18
-2.81311e-18
-1.32581e-18
-1.95369e-18
-1.05645e-18
-1.26762e-18
-8.81498e-19
-7.43363e-19
-8.20061e-19
-3.33621e-19
-8.37265e-19
4.3355e-21
-8.94108e-19
2.99596e-19
-9.60439e-19
5.68818e-19
-1.01612e-18
8.19773e-19
-1.04914e-18
1.0546e-18
-1.05338e-18
1.27226e-18
-1.02693e-18
1.47025e-18
-9.70757e-19
1.64575e-18
-8.87819e-19
1.79625e-18
-7.8228e-19
1.91995e-18
-6.58936e-19
2.01578e-18
-5.22745e-19
2.08343e-18
-3.78475e-19
2.12328e-18
-2.30493e-19
2.13639e-18
-8.26469e-20
2.12429e-18
6.18319e-20
2.08882e-18
2.00391e-19
2.03195e-18
3.31159e-19
1.95571e-18
4.52874e-19
1.86213e-18
5.64786e-19
1.75322e-18
6.66539e-19
1.63092e-18
7.58064e-19
1.49704e-18
8.39492e-19
1.35327e-18
9.1108e-19
1.20117e-18
9.73162e-19
1.0421e-18
1.02612e-18
8.77284e-19
1.07035e-18
7.07744e-19
1.10629e-18
5.34424e-19
1.13438e-18
3.58258e-19
1.15503e-18
1.80236e-19
1.16862e-18
1.17543e-18
-6.55986e-11
-1.16706e-10
-2.08304e-10
1.97719e-11
-4.44167e-10
2.16194e-10
-6.56303e-10
3.16934e-10
-5.97846e-10
4.09777e-10
-5.14681e-10
6.10497e-10
-5.45109e-10
7.22596e-10
-6.39553e-10
6.98763e-10
-8.43916e-10
6.7855e-10
-1.00695e-09
7.13911e-10
-1.15439e-09
1.1444e-09
-1.45428e-09
1.36884e-09
-1.54511e-09
1.35772e-09
-1.65909e-09
1.53927e-09
-1.81382e-09
1.48425e-09
-1.93128e-09
1.44057e-09
-2.0621e-09
1.35378e-09
-2.171e-09
1.33052e-09
-2.26295e-09
1.29712e-09
-2.31146e-09
1.15653e-09
-2.35632e-09
1.03565e-09
-2.37868e-09
9.17911e-10
-2.40138e-09
8.67836e-10
-2.52008e-09
7.03698e-10
-2.62614e-09
5.91208e-10
-2.73988e-09
4.72922e-10
-2.87558e-09
3.18765e-10
-2.99386e-09
1.69435e-10
-3.06221e-09
9.20056e-11
-3.1502e-09
-1.68784e-11
-3.21952e-09
-5.33609e-11
-3.22516e-09
-1.13051e-10
-3.20794e-09
-1.80753e-10
-3.20009e-09
-1.47801e-10
-3.14143e-09
-1.07245e-10
-3.08332e-09
-1.02672e-10
-3.09731e-09
1.03288e-11
-3.0929e-09
2.34571e-11
-3.09353e-09
8.13334e-11
-3.11766e-09
1.71709e-10
-3.12011e-09
2.13571e-10
-3.10807e-09
2.58682e-10
-3.10402e-09
2.93937e-10
-3.09465e-09
3.23073e-10
-3.11335e-09
3.10866e-10
-3.13131e-09
1.43254e-10
-3.07415e-09
1.55842e-10
-2.9788e-09
3.97453e-11
-2.81104e-09
-1.17501e-10
-2.76892e-09
-2.60483e-10
-2.52259e-09
-6.81025e-10
-2.20851e-09
-8.22159e-10
-1.92723e-09
-7.91254e-10
-1.65885e-09
-8.40051e-10
-1.35617e-09
-9.92695e-10
-1.00089e-09
-1.73388e-09
-9.52285e-10
-2.37581e-09
-8.56486e-10
-2.99557e-09
-6.05555e-10
-3.56342e-09
-4.1355e-10
-3.26334e-09
-2.61852e-10
-2.66691e-09
-1.56441e-10
-1.9647e-09
-7.85834e-11
-1.15199e-09
-5.71016e-11
-1.06674e-09
-2.62642e-11
-1.10322e-09
5.60245e-11
-9.93344e-10
2.14104e-10
-9.41532e-10
3.3665e-10
-9.31813e-10
4.39454e-10
-8.93155e-10
5.13571e-10
-9.13034e-10
6.21062e-10
-8.03559e-10
6.48967e-10
-7.73927e-10
7.03637e-10
-5.97509e-10
6.78429e-10
4.75732e-11
6.57145e-10
3.83683e-10
5.98222e-10
8.67196e-10
4.84647e-10
1.16304e-09
3.90372e-10
1.12068e-09
3.10866e-10
1.12372e-09
2.43668e-10
1.37487e-09
1.86048e-10
1.81801e-09
3.50081e-10
1.63795e-09
-3.35538e-16
-5.1394e-10
-3.59882e-18
-2.44208e-18
-2.54313e-18
-2.38077e-18
-1.77832e-18
-1.81995e-18
-1.20619e-18
-1.45218e-18
-7.60567e-19
-1.26415e-18
-3.90465e-19
-1.20591e-18
-6.19947e-20
-1.22112e-18
2.43911e-19
-1.26492e-18
5.35802e-19
-1.3067e-18
8.1553e-19
-1.32776e-18
1.08106e-18
-1.31812e-18
1.32843e-18
-1.27394e-18
1.55319e-18
-1.19566e-18
1.75129e-18
-1.08652e-18
1.9196e-18
-9.51495e-19
2.05614e-18
-7.96463e-19
2.16005e-18
-6.27504e-19
2.23141e-18
-4.50425e-19
2.27113e-18
-2.70465e-19
2.28087e-18
-9.21629e-20
2.26285e-18
8.07347e-20
2.21959e-18
2.45321e-19
2.15366e-18
3.9952e-19
2.06762e-18
5.42015e-19
1.96388e-18
6.72113e-19
1.84475e-18
7.89598e-19
1.71235e-18
8.94596e-19
1.56863e-18
9.87452e-19
1.41535e-18
1.06864e-18
1.25412e-18
1.13869e-18
1.08634e-18
1.19817e-18
9.13226e-19
1.24765e-18
7.35829e-19
1.28769e-18
5.55076e-19
1.31888e-18
3.71851e-19
1.34175e-18
1.87047e-19
1.35675e-18
1.36422e-18
-3.24722e-11
-8.42341e-11
-1.03089e-10
9.03869e-11
-3.37365e-10
4.50468e-10
-6.72533e-10
6.521e-10
-9.12707e-10
6.49949e-10
-8.67582e-10
5.65371e-10
-7.96159e-10
6.51171e-10
-7.87614e-10
6.90216e-10
-8.92119e-10
7.83054e-10
-1.20932e-09
1.03112e-09
-1.43705e-09
1.37212e-09
-1.54879e-09
1.48058e-09
-1.71172e-09
1.52065e-09
-1.77163e-09
1.59918e-09
-1.86994e-09
1.58256e-09
-1.98706e-09
1.55769e-09
-2.02972e-09
1.39644e-09
-2.1052e-09
1.406e-09
-2.17389e-09
1.36582e-09
-2.19416e-09
1.1768e-09
-2.2082e-09
1.04969e-09
-2.22808e-09
9.37796e-10
-2.20311e-09
8.42872e-10
-2.23775e-09
7.38342e-10
-2.31758e-09
6.71036e-10
-2.4035e-09
5.58846e-10
-2.4954e-09
4.10671e-10
-2.62145e-09
2.95482e-10
-2.7507e-09
2.21264e-10
-2.90675e-09
1.39174e-10
-3.00031e-09
4.01983e-11
-3.01283e-09
-1.00525e-10
-3.067e-09
-1.26589e-10
-3.11794e-09
-9.68628e-11
-3.06762e-09
-1.57558e-10
-3.04985e-09
-1.20447e-10
-3.02127e-09
-1.82467e-11
-2.9698e-09
-2.8006e-11
-2.928e-09
3.95356e-11
-2.98776e-09
2.31476e-10
-2.96313e-09
1.88945e-10
-2.96378e-09
2.59333e-10
-3.00784e-09
3.38002e-10
-3.01265e-09
3.27881e-10
-3.01981e-09
3.18029e-10
-2.96209e-09
8.55404e-11
-2.80853e-09
2.28569e-12
-2.70324e-09
-6.5541e-11
-2.52048e-09
-3.00268e-10
-2.30382e-09
-4.7714e-10
-2.11673e-09
-8.68108e-10
-1.86098e-09
-1.07792e-09
-1.70574e-09
-9.46493e-10
-1.48028e-09
-1.0655e-09
-1.09353e-09
-1.37945e-09
-8.97115e-10
-1.93029e-09
-9.08336e-10
-2.36458e-09
-6.55343e-10
-3.24856e-09
-5.57616e-10
-3.66115e-09
-5.13353e-10
-3.30761e-09
-4.7584e-10
-2.70442e-09
-4.55351e-10
-1.98519e-09
-3.28492e-10
-1.27885e-09
-2.98566e-10
-1.09667e-09
-3.23806e-10
-1.07798e-09
-2.87898e-10
-1.02925e-09
-1.20462e-10
-1.10897e-09
7.92983e-11
-1.13157e-09
2.70061e-10
-1.08392e-09
3.64439e-10
-1.00741e-09
4.45935e-10
-8.85055e-10
5.09953e-10
-8.37945e-10
5.279e-10
-6.15456e-10
5.32386e-10
4.30877e-11
5.37257e-10
3.78813e-10
5.33495e-10
8.70959e-10
4.36066e-10
1.26047e-09
3.3026e-10
1.22649e-09
2.45947e-10
1.20803e-09
2.51047e-10
1.36977e-09
3.88666e-10
1.68039e-09
6.14656e-10
1.41196e-09
-3.47643e-16
1.00717e-10
-2.79844e-18
-1.39385e-18
-1.98177e-18
-3.19675e-18
-1.41018e-18
-2.39006e-18
-1.01816e-18
-1.84246e-18
-7.02327e-19
-1.57814e-18
-4.05679e-19
-1.50078e-18
-1.05791e-19
-1.51929e-18
2.02126e-19
-1.57119e-18
5.14741e-19
-1.6178e-18
8.25173e-19
-1.63688e-18
1.12524e-18
-1.61718e-18
1.40672e-18
-1.5549e-18
1.66233e-18
-1.45134e-18
1.88631e-18
-1.31115e-18
2.07463e-18
-1.14094e-18
2.2251e-18
-9.48284e-19
2.33713e-18
-7.40848e-19
2.41137e-18
-5.25789e-19
2.44943e-18
-3.09401e-19
2.45377e-18
-9.6981e-20
2.42743e-18
1.0722e-19
2.37378e-18
2.99997e-19
2.29616e-18
4.79153e-19
2.19772e-18
6.4339e-19
2.08137e-18
7.92156e-19
1.94975e-18
9.25461e-19
1.8052e-18
1.04371e-18
1.64981e-18
1.14753e-18
1.4854e-18
1.2377e-18
1.3136e-18
1.31502e-18
1.13582e-18
1.3803e-18
9.53275e-19
1.43432e-18
7.67017e-19
1.47786e-18
5.77939e-19
1.51165e-18
3.86852e-19
1.53633e-18
1.94521e-19
1.55248e-18
1.56048e-18
6.16168e-11
-1.45852e-10
1.83301e-11
1.33671e-10
-2.06976e-10
6.75771e-10
-4.80287e-10
9.25408e-10
-7.46996e-10
9.16656e-10
-8.90764e-10
7.09136e-10
-8.84598e-10
6.45004e-10
-1.04851e-09
8.54131e-10
-1.27133e-09
1.00587e-09
-1.50977e-09
1.26956e-09
-1.55647e-09
1.41881e-09
-1.59344e-09
1.51755e-09
-1.69112e-09
1.61833e-09
-1.74415e-09
1.65221e-09
-1.79285e-09
1.63126e-09
-1.87717e-09
1.64201e-09
-1.97541e-09
1.49468e-09
-2.04117e-09
1.47176e-09
-2.06413e-09
1.38879e-09
-2.05383e-09
1.1665e-09
-2.04009e-09
1.03596e-09
-2.05071e-09
9.48416e-10
-2.06215e-09
8.54317e-10
-2.07445e-09
7.50642e-10
-2.08885e-09
6.85448e-10
-2.15861e-09
6.28608e-10
-2.2273e-09
4.79365e-10
-2.34338e-09
4.11561e-10
-2.44463e-09
3.22518e-10
-2.54525e-09
2.39795e-10
-2.6349e-09
1.29847e-10
-2.71215e-09
-2.32737e-11
-2.81149e-09
-2.7247e-11
-2.89621e-09
-1.21452e-11
-2.89619e-09
-1.57582e-10
-2.95785e-09
-5.8787e-11
-2.92298e-09
-5.31088e-11
-2.88969e-09
-6.12917e-11
-2.86656e-09
1.64005e-11
-2.85769e-09
2.22615e-10
-2.84848e-09
1.79733e-10
-2.87904e-09
2.89906e-10
-2.94651e-09
4.05476e-10
-2.8355e-09
2.16866e-10
-2.78941e-09
2.71944e-10
-2.60478e-09
-9.90806e-11
-2.41708e-09
-1.85416e-10
-2.26371e-09
-2.18914e-10
-2.09441e-09
-4.69564e-10
-1.96149e-09
-6.10051e-10
-1.87733e-09
-9.52273e-10
-1.71142e-09
-1.24382e-09
-1.46915e-09
-1.18877e-09
-1.12222e-09
-1.41243e-09
-7.70698e-10
-1.73098e-09
-7.99955e-10
-1.90104e-09
-7.30371e-10
-2.43417e-09
-6.18743e-10
-3.36019e-09
-6.12864e-10
-3.66703e-09
-6.86599e-10
-3.23387e-09
-7.46296e-10
-2.64473e-09
-8.14747e-10
-1.91674e-09
-7.00149e-10
-1.39345e-09
-6.32351e-10
-1.16447e-09
-6.11282e-10
-1.09905e-09
-5.40186e-10
-1.10035e-09
-4.17454e-10
-1.2317e-09
-2.60038e-10
-1.28899e-09
-5.6137e-11
-1.28782e-09
1.5642e-10
-1.21997e-09
3.09227e-10
-1.03786e-09
3.49619e-10
-8.78336e-10
3.78986e-10
-6.44824e-10
4.38593e-10
-1.65184e-11
4.69701e-10
3.47705e-10
5.06351e-10
8.3431e-10
4.58887e-10
1.30793e-09
3.42879e-10
1.3425e-09
2.59227e-10
1.29169e-09
2.32067e-10
1.39693e-09
4.27752e-10
1.48471e-09
6.26563e-10
1.21315e-09
-5.14723e-16
7.27281e-10
-2.11287e-18
2.06015e-18
-1.17463e-18
-4.13424e-18
-8.6227e-19
-2.7005e-18
-7.53833e-19
-1.94866e-18
-6.24971e-19
-1.70493e-18
-4.24191e-19
-1.69962e-18
-1.57682e-19
-1.78398e-18
1.55513e-19
-1.88268e-18
4.95657e-19
-1.95641e-18
8.44874e-19
-1.98476e-18
1.18752e-18
-1.95874e-18
1.51028e-18
-1.87701e-18
1.80253e-18
-1.74352e-18
2.05652e-18
-1.56567e-18
2.26729e-18
-1.35277e-18
2.43253e-18
-1.11488e-18
2.55219e-18
-8.61825e-19
2.62776e-18
-6.0248e-19
2.66185e-18
-3.44403e-19
2.65797e-18
-9.37037e-20
2.62021e-18
1.44907e-19
2.55294e-18
3.68041e-19
2.4604e-18