/*--------------------------------*- C++ -*----------------------------------*\
  =========                 |
  \\      /  F ield         | OpenFOAM: The Open Source CFD Toolbox
   \\    /   O peration     | Website:  https://openfoam.org
    \\  /    A nd           | Version:  6
     \\/     M anipulation  |
\*---------------------------------------------------------------------------*/
FoamFile
{
    version     2.0;
    format      ascii;
    class       volScalarField;
    location    "3800";
    object      Su;
}
// * * * * * * * * * * * * * * * * * * * * * * * * * * * * * * * * * * * * * //

dimensions      [0 0 -1 0 0 0 0];

internalField   nonuniform List<scalar> 
4800
(
0.218909
0.215545
0.212177
0.208808
0.205442
0.202087
0.198756
0.195462
0.192218
0.189039
0.185938
0.18292
0.18
0.177191
0.174499
0.171928
0.169482
0.167157
0.164956
0.162889
0.160957
0.159157
0.157482
0.155918
0.154454
0.153077
0.151771
0.15052
0.149306
0.148116
0.146938
0.145762
0.144581
0.143392
0.142192
0.140978
0.139746
0.138494
0.137218
0.135915
0.134585
0.13323
0.131851
0.130452
0.129034
0.127601
0.126151
0.124687
0.123207
0.121712
0.120202
0.118675
0.117133
0.115576
0.114003
0.112403
0.110764
0.109068
0.1073
0.105438
0.103459
0.101347
0.0990927
0.0966897
0.0941341
0.0914218
0.0885519
0.0855169
0.0823064
0.0788897
0.0752379
0.0713351
0.0671397
0.062602
0.057692
0.0523963
0.0467165
0.0406649
0.034231
0.0273793
0.0201168
0.0125849
0.0056481
0.00317338
0.00113945
-0.00114531
-0.00370824
-0.00647585
-0.00938184
-0.01238
-0.0154402
-0.0185429
-0.0216752
-0.0248288
-0.027998
-0.0311792
-0.0343697
-0.0375676
-0.0407716
-0.0439809
-0.0471945
-0.0504121
-0.0536331
-0.0568572
-0.060084
-0.0633133
-0.0665448
-0.0697783
-0.0730136
-0.0762505
-0.0794888
-0.0827284
-0.0859691
-0.0892107
-0.0924532
-0.0956963
-0.09894
-0.102184
-0.105429
-0.108673
0.218902
0.215523
0.212141
0.20876
0.205385
0.202023
0.198686
0.195388
0.19214
0.188957
0.185857
0.182849
0.179936
0.177125
0.174429
0.171855
0.16941
0.167099
0.164921
0.162879
0.160972
0.159195
0.157538
0.155993
0.154545
0.15318
0.151882
0.150634
0.149424
0.148235
0.147058
0.145883
0.144705
0.143518
0.142321
0.141107
0.139875
0.138621
0.137343
0.136038
0.134708
0.133354
0.131979
0.130585
0.129175
0.12775
0.12631
0.124856
0.123387
0.121906
0.120412
0.118904
0.11738
0.11584
0.114281
0.112695
0.111067
0.109382
0.107621
0.10576
0.103773
0.101648
0.0993787
0.0969605
0.0943881
0.091655
0.088756
0.0856826
0.0824277
0.0789745
0.0753016
0.0713805
0.0671744
0.0626428
0.0577519
0.0524839
0.0468386
0.0408242
0.0344324
0.0276275
0.0202835
0.011769
0.000647073
0.00272217
0.00138616
-0.000863744
-0.00349603
-0.00632867
-0.00928121
-0.0123107
-0.0153917
-0.0185082
-0.0216499
-0.0248099
-0.0279837
-0.031168
-0.0343608
-0.0375604
-0.0407657
-0.0439759
-0.0471904
-0.0504086
-0.0536301
-0.0568545
-0.0600817
-0.0633113
-0.0665431
-0.0697768
-0.0730123
-0.0762494
-0.0794879
-0.0827276
-0.0859684
-0.0892101
-0.0924527
-0.0956959
-0.0989397
-0.102184
-0.105428
-0.108673
0.21889
0.215486
0.212081
0.20868
0.205289
0.201913
0.198563
0.19526
0.192019
0.188848
0.185756
0.182753
0.179847
0.177042
0.174349
0.171786
0.169359
0.167076
0.164937
0.162935
0.161066
0.159325
0.157699
0.15618
0.154754
0.153406
0.152118
0.150876
0.149666
0.148479
0.147305
0.146133
0.144959
0.143777
0.142583
0.141371
0.140141
0.138887
0.137609
0.136306
0.13498
0.133633
0.132267
0.130884
0.129488
0.128078
0.126655
0.125219
0.123772
0.122316
0.120849
0.119367
0.117868
0.11635
0.114808
0.113237
0.111623
0.109947
0.108192
0.106324
0.104317
0.102166
0.0998672
0.0974168
0.0948071
0.0920269
0.0890691
0.0859319
0.0826108
0.0790972
0.0753793
0.0714228
0.0671946
0.0626651
0.0578037
0.052586
0.0470069
0.0410773
0.0348084
0.0282218
0.0213539
0.0143509
0.00799789
0.00513628
0.00254321
-0.00019615
-0.00307595
-0.00605306
-0.00909556
-0.0121829
-0.0153018
-0.0184436
-0.0216025
-0.0247744
-0.0279565
-0.0311468
-0.0343439
-0.0375467
-0.0407544
-0.0439664
-0.0471823
-0.0504017
-0.0536241
-0.0568494
-0.0600772
-0.0633074
-0.0665397
-0.0697738
-0.0730097
-0.0762471
-0.0794859
-0.0827259
-0.0859669
-0.0892089
-0.0924517
-0.0956951
-0.0989391
-0.102183
-0.105428
-0.108673
0.218875
0.215444
0.212016
0.208592
0.205177
0.201784
0.198426
0.195122
0.191889
0.188733
0.185657
0.182664
0.179765
0.176976
0.174308
0.171775
0.169386
0.167146
0.165052
0.163097
0.161273
0.159571
0.157981
0.156493
0.155093
0.153764
0.152489
0.151255
0.150052
0.14887
0.147699
0.146532
0.145364
0.144188
0.142999
0.141793
0.140567
0.139317
0.138043
0.136745
0.135426
0.134089
0.132735
0.131368
0.12999
0.1286
0.1272
0.125789
0.124371
0.122946
0.12151
0.120055
0.118579
0.117078
0.115549
0.113989
0.112384
0.110709
0.108947
0.107052
0.105006
0.102808
0.100449
0.097927
0.0952414
0.0923882
0.0893618
0.0861584
0.0827723
0.079197
0.0754231
0.071426
0.0671761
0.0626441
0.0578059
0.0526447
0.0471581
0.0413594
0.0352785
0.0289891
0.0226423
0.0165602
0.0112998
0.00727848
0.00384667
0.000616865
-0.00255111
-0.00570415
-0.00885785
-0.0120173
-0.015184
-0.0183581
-0.021539
-0.0247263
-0.0279193
-0.0311175
-0.0343203
-0.0375274
-0.0407384
-0.043953
-0.0471709
-0.0503918
-0.0536156
-0.0568419
-0.0600707
-0.0633017
-0.0665347
-0.0697695
-0.0730059
-0.0762438
-0.079483
-0.0827234
-0.0859648
-0.0892072
-0.0924502
-0.095694
-0.0989382
-0.102183
-0.105428
-0.108673
0.218861
0.215402
0.21195
0.208506
0.205071
0.20166
0.198296
0.194998
0.191778
0.188639
0.185578
0.182603
0.179728
0.17697
0.174345
0.171859
0.169522
0.167335
0.165293
0.16339
0.161614
0.159957
0.158407
0.156953
0.15558
0.154271
0.153012
0.151794
0.150603
0.149429
0.148265
0.147106
0.145945
0.144776
0.143593
0.142393
0.141172
0.139927
0.138659
0.137368
0.136059
0.134735
0.133397
0.132049
0.130692
0.129328
0.127954
0.126573
0.125185
0.123792
0.122383
0.12095
0.119487
0.117994
0.116468
0.114908
0.113295
0.111599
0.109795
0.107838
0.105721
0.103441
0.100988
0.0983708
0.0955943
0.092658
0.0895577
0.0862881
0.0828432
0.0792153
0.0753914
0.0713541
0.0670848
0.0625546
0.0577418
0.0526403
0.0472534
0.0416072
0.0357642
0.0298189
0.023914
0.0182817
0.0132472
0.00883501
0.00495211
0.00137414
-0.00203416
-0.0053478
-0.00860843
-0.0118397
-0.0150551
-0.0182627
-0.0214672
-0.0246711
-0.0278761
-0.031083
-0.0342923
-0.0375043
-0.040719
-0.0439365
-0.0471567
-0.0503795
-0.0536049
-0.0568326
-0.0600625
-0.0632944
-0.0665283
-0.0697638
-0.073001
-0.0762395
-0.0794793
-0.0827202
-0.0859621
-0.0892048
-0.0924483
-0.0956924
-0.098937
-0.102182
-0.105427
-0.108673
0.218846
0.215361
0.211884
0.20842
0.204976
0.201566
0.198209
0.194922
0.191714
0.188592
0.185552
0.182606
0.179769
0.177058
0.174487
0.172065
0.169792
0.167666
0.165682
0.163835
0.162114
0.160507
0.159001
0.157584
0.156241
0.154955
0.153717
0.152516
0.151337
0.150175
0.149023
0.147874
0.146721
0.145559
0.144381
0.143186
0.14197
0.140731
0.139469
0.138187
0.136889
0.135579
0.134258
0.132931
0.131599
0.130261
0.128914
0.12756
0.126201
0.124835
0.123444
0.122021
0.12056
0.11906
0.117522
0.115945
0.1143
0.112547
0.110659
0.108605
0.106384
0.103993
0.10143
0.0987061
0.0958266
0.0927968
0.0896176
0.086282
0.0827805
0.0791035
0.0752377
0.0711697
0.0668889
0.0623708
0.0575946
0.0525548
0.0472616
0.0417575
0.0361133
0.0304188
0.0247874
0.0193892
0.0144233
0.00986977
0.00575814
0.00196758
-0.00160609
-0.00503938
-0.00838433
-0.0116747
-0.0149318
-0.0181692
-0.021395
-0.0246145
-0.027831
-0.0310465
-0.0342622
-0.0374791
-0.0406976
-0.0439181
-0.0471408
-0.0503656
-0.0535926
-0.0568217
-0.0600529
-0.0632859
-0.0665207
-0.0697572
-0.0729951
-0.0762343
-0.0794748
-0.0827163
-0.0859587
-0.089202
-0.092446
-0.0956906
-0.0989356
-0.102181
-0.105427
-0.108673
0.218833
0.215319
0.211813
0.208328
0.204882
0.201489
0.198157
0.194897
0.191715
0.188617
0.185609
0.182706
0.179925
0.177277
0.174775
0.172422
0.170219
0.168161
0.166244
0.164461
0.1628
0.161247
0.159788
0.158411
0.1571
0.155841
0.154625
0.153441
0.152278
0.151131
0.149991
0.148851
0.147706
0.146549
0.145376
0.144185
0.142973
0.141739
0.140484
0.13921
0.137923
0.136626
0.135321
0.134012
0.132702
0.131387
0.130062
0.12873
0.127389
0.126035
0.12465
0.123224
0.12175
0.120228
0.118655
0.117028
0.11531
0.11346
0.111459
0.109282
0.106929
0.104411
0.10173
0.098893
0.0959091
0.0927847
0.0895215
0.086115
0.0825556
0.0788338
0.074939
0.0708549
0.0665735
0.062076
0.0573403
0.0523652
0.047166
0.0417862
0.0362931
0.0307646
0.0253014
0.0200376
0.0150883
0.0104703
0.00624771
0.00234827
-0.00131476
-0.00481661
-0.00821304
-0.011542
-0.0148282
-0.0180875
-0.02133
-0.0245622
-0.0277883
-0.0310111
-0.0342325
-0.0374538
-0.0406758
-0.0438991
-0.047124
-0.0503507
-0.0535793
-0.0568099
-0.0600423
-0.0632764
-0.0665123
-0.0697496
-0.0729884
-0.0762284
-0.0794696
-0.0827118
-0.0859549
-0.0891988
-0.0924433
-0.0956884
-0.0989339
-0.10218
-0.105426
-0.108672
0.218829
0.215304
0.211782
0.208283
0.20484
0.20147
0.198174
0.19495
0.191802
0.18874
0.185779
0.182934
0.180222
0.177653
0.175232
0.17296
0.170836
0.168855
0.167012
0.165299
0.163702
0.162206
0.160796
0.159461
0.158183
0.156952
0.155761
0.154597
0.153449
0.152315
0.151184
0.150052
0.148912
0.147758
0.146588
0.1454
0.144189
0.142959
0.141708
0.140439
0.139159
0.13787
0.136577
0.135281
0.133985
0.132687
0.131375
0.130055
0.128719
0.12736
0.125966
0.124517
0.123006
0.121434
0.119795
0.118081
0.116247
0.114261
0.112112
0.109785
0.107289
0.104637
0.10184
0.0988955
0.0958073
0.0925866
0.0892404
0.0857654
0.0821525
0.0783918
0.0744751
0.0703872
0.0661191
0.0616571
0.0569802
0.052087
0.0469857
0.0417135
0.0363333
0.0309203
0.0255589
0.0203478
0.0153572
0.0106801
0.00641624
0.00249421
-0.00118374
-0.0046994
-0.00811026
-0.0114538
-0.0147537
-0.0180252
-0.021278
-0.0245187
-0.0277517
-0.03098
-0.0342057
-0.0374304
-0.0406552
-0.0438807
-0.0471075
-0.0503358
-0.0535658
-0.0567976
-0.0600311
-0.0632663
-0.0665032
-0.0697414
-0.0729811
-0.0762219
-0.0794639
-0.0827068
-0.0859506
-0.0891951
-0.0924403
-0.0956859
-0.0989321
-0.102179
-0.105425
-0.108672
0.218837
0.215329
0.211821
0.208331
0.204894
0.201541
0.198282
0.195106
0.192011
0.189003
0.186103
0.183335
0.180708
0.178227
0.175897
0.173714
0.171679
0.169783
0.16802
0.166383
0.164854
0.163416
0.162055
0.160761
0.159517
0.158316
0.157148
0.156002
0.154868
0.153744
0.15262
0.151494
0.150356
0.1492
0.148028
0.146836
0.145622
0.144391
0.143139
0.141868
0.14059
0.139303
0.138012
0.136723
0.135435
0.134145
0.132839
0.131514
0.130165
0.128781
0.12735
0.125848
0.124265
0.122606
0.120865
0.11902
0.117034
0.11489
0.112574
0.110081
0.107435
0.104652
0.101736
0.0986849
0.095495
0.0921787
0.0887482
0.0852067
0.0815476
0.0777589
0.073831
0.0697518
0.0655127
0.0611035
0.0565024
0.0517041
0.0467071
0.0415354
0.0362457
0.030906
0.0255886
0.0203537
0.015253
0.0104772
0.0062428
0.00239532
-0.001217
-0.00469031
-0.00807907
-0.0114138
-0.0147126
-0.0179865
-0.0212432
-0.0244879
-0.0277245
-0.0309558
-0.0341841
-0.0374108
-0.0406373
-0.0438642
-0.0470922
-0.0503216
-0.0535527
-0.0567854
-0.0600199
-0.063256
-0.0664937
-0.0697329
-0.0729733
-0.076215
-0.0794577
-0.0827014
-0.0859459
-0.0891911
-0.0924369
-0.0956833
-0.09893
-0.102177
-0.105424
-0.108672
0.218856
0.215386
0.211919
0.208472
0.205077
0.201762
0.198544
0.195418
0.192382
0.189448
0.186639
0.183968
0.181439
0.179057
0.176824
0.174737
0.172796
0.170989
0.169312
0.167754
0.166293
0.164913
0.1636
0.162343
0.161131
0.159955
0.158807
0.157675
0.156553
0.155436
0.154318
0.153194
0.152049
0.150886
0.149708
0.148504
0.147281
0.146041
0.144779
0.143498
0.142214
0.140921
0.139626
0.138338
0.137048
0.135756
0.134437
0.133086
0.131698
0.130258
0.128755
0.127166
0.125481
0.123706
0.121826
0.119813
0.117647
0.115318
0.112813
0.110153
0.107354
0.104434
0.1014
0.0982441
0.0949594
0.0915547
0.0880412
0.0844282
0.0807179
0.0769053
0.0729792
0.0689229
0.0647286
0.0603904
0.055882
0.0511919
0.0463091
0.0412404
0.0360288
0.0307301
0.0253936
0.0200447
0.0147194
0.00973208
0.00568197
0.00205911
-0.00139401
-0.00477259
-0.00810977
-0.0114182
-0.0147044
-0.017973
-0.0212278
-0.0244722
-0.0277091
-0.0309409
-0.0341697
-0.0373968
-0.0406236
-0.0438509
-0.0470793
-0.0503091
-0.0535407
-0.056774
-0.0600091
-0.0632459
-0.0664843
-0.0697242
-0.0729654
-0.0762078
-0.0794513
-0.0826957
-0.0859409
-0.0891868
-0.0924334
-0.0956804
-0.0989278
-0.102175
-0.105423
-0.108671
0.218877
0.215456
0.212056
0.208691
0.205376
0.202132
0.198982
0.195932
0.192985
0.190151
0.187449
0.184885
0.182462
0.180186
0.178057
0.176073
0.174232
0.172522
0.170936
0.169458
0.168064
0.16674
0.165471
0.164249
0.163064
0.161907
0.160774
0.159651
0.158535
0.157418
0.156297
0.155168
0.154011
0.152835
0.151642
0.15042
0.14918
0.147922
0.146641
0.145345
0.144045
0.142738
0.141429
0.140133
0.138826
0.13751
0.136152
0.134748
0.133292
0.131766
0.130162
0.128455
0.126636
0.124706
0.122646
0.120439
0.118075
0.115541
0.112839
0.109995
0.107043
0.103993
0.100843
0.0975837
0.0942049
0.090713
0.0871183
0.083433
0.0796664
0.0758219
0.0718949
0.0678713
0.0637361
0.0594823
0.055081
0.0505128
0.0457577
0.0408038
0.0356737
0.0304052
0.0250134
0.0194673
0.0137134
0.00804885
0.00469443
0.00154986
-0.00165358
-0.00490732
-0.00818142
-0.0114571
-0.0147258
-0.0179845
-0.0212333
-0.0244738
-0.0277078
-0.0309374
-0.0341643
-0.03739
-0.0406156
-0.0438419
-0.0470696
-0.0502991
-0.0535304
-0.0567638
-0.0599991
-0.0632363
-0.0664751
-0.0697156
-0.0729574
-0.0762005
-0.0794447
-0.0826898
-0.0859357
-0.0891824
-0.0924296
-0.0956773
-0.0989254
-0.102174
-0.105422
-0.108671
0.218921
0.215582
0.212259
0.208985
0.205784
0.202663
0.19963
0.196695
0.193865
0.191155
0.188575
0.18613
0.183826
0.181666
0.179649
0.177774
0.17604
0.174433
0.17294
0.171543
0.170217
0.168946
0.167719
0.166527
0.165364
0.164221
0.163096
0.161974
0.160854
0.159726
0.158593
0.157447
0.156267
0.155068
0.153849
0.152602
0.151337
0.150055
0.148747
0.147428
0.146102
0.144773
0.143438
0.142115
0.14077
0.139402
0.137981
0.1365
0.134949
0.133314
0.131583
0.12973
0.127746
0.125626
0.123358
0.120936
0.118356
0.115607
0.112702
0.109679
0.106566
0.103375
0.100099
0.0967282
0.0932497
0.0896641
0.0859824
0.0822203
0.0783913
0.074507
0.0705712
0.0665795
0.0625085
0.0583451
0.0540596
0.0496224
0.0450065
0.0401864
0.0351643
0.02996
0.0245558
0.0188389
0.0124212
0.00218533
0.00349306
0.00109105
-0.00187689
-0.00503881
-0.00826919
-0.0115203
-0.0147731
-0.0180205
-0.0212607
-0.0244941
-0.0277223
-0.0309469
-0.0341695
-0.0373917
-0.0406143
-0.0438383
-0.0470642
-0.0502922
-0.0535226
-0.0567554
-0.0599904
-0.0632275
-0.0664665
-0.0697073
-0.0729496
-0.0761932
-0.079438
-0.0826838
-0.0859304
-0.0891778
-0.0924257
-0.0956741
-0.0989229
-0.102172
-0.105421
-0.108671
0.218997
0.215809
0.21263
0.209486
0.206409
0.203421
0.200532
0.197742
0.195059
0.192496
0.190057
0.18775
0.185578
0.183545
0.181652
0.179896
0.178277
0.176781
0.175386
0.174068
0.172806
0.171586
0.170396
0.169229
0.168082
0.166947
0.165819
0.164689
0.163553
0.162402
0.161244
0.160065
0.158849
0.157616
0.15636
0.155078
0.153781
0.152466
0.151124
0.149772
0.148411
0.147044
0.145669
0.144298
0.142895
0.141456
0.139954
0.138377
0.136712
0.134948
0.133065
0.131038
0.128862
0.126532
0.124043
0.121393
0.11858
0.115602
0.112478
0.109256
0.105966
0.102619
0.0992026
0.0957065
0.0921146
0.0884235
0.0846448
0.080798
0.0768998
0.0729688
0.0690154
0.0650465
0.0610396
0.0569689
0.0528037
0.0485058
0.0440381
0.0393735
0.0345013
0.0294356
0.0241705
0.0186667
0.0128767
0.006857
0.00411642
0.00117443
-0.00193212
-0.00512805
-0.00836111
-0.0116046
-0.0148465
-0.0180825
-0.0213117
-0.0245351
-0.0277543
-0.030971
-0.0341868
-0.0374031
-0.0406209
-0.0438409
-0.0470636
-0.0502892
-0.0535178
-0.0567492
-0.0599833
-0.06322
-0.0664588
-0.0696996
-0.0729422
-0.0761862
-0.0794315
-0.0826778
-0.0859251
-0.0891731
-0.0924217
-0.0956708
-0.0989203
-0.10217
-0.10542
-0.10867
0.219091
0.216093
0.213106
0.210153
0.207259
0.204447
0.201732
0.199116
0.196606
0.194209
0.191934
0.189785
0.187763
0.185873
0.184116
0.182489
0.180995
0.179613
0.178316
0.177079
0.17588
0.174707
0.173549
0.172403
0.171263
0.170126
0.168987
0.167836
0.166672
0.165485
0.164285
0.163058
0.161796
0.160518
0.159211
0.157887
0.156548
0.155191
0.153805
0.152409
0.151003
0.149587
0.148161
0.146725
0.145251
0.143729
0.142135
0.140451
0.138659
0.136747
0.134688
0.132469
0.130085
0.127531
0.124806
0.121915
0.118859
0.11564
0.112288
0.108841
0.105345
0.101811
0.098227
0.0945792
0.0908484
0.0870296
0.0831338
0.0791853
0.0752044
0.0712121
0.0672242
0.0632579
0.0593014
0.0553212
0.0512776
0.0471304
0.042828
0.0383408
0.0336516
0.0287815
0.0237522
0.0186042
0.013451
0.0085989
0.00480377
0.00137523
-0.00194102
-0.00521825
-0.00847603
-0.0117198
-0.0149519
-0.0181743
-0.0213892
-0.0245989
-0.0278055
-0.0310111
-0.0342173
-0.0374254
-0.0406362
-0.0438506
-0.0470686
-0.0502906
-0.0535163
-0.0567456
-0.0599783
-0.0632139
-0.0664521
-0.0696927
-0.0729352
-0.0761794
-0.0794251
-0.0826719
-0.0859197
-0.0891684
-0.0924177
-0.0956675
-0.0989177
-0.102168
-0.105419
-0.10867
0.21921
0.216448
0.213693
0.210969
0.208301
0.205713
0.203215
0.200814
0.198512
0.196315
0.194232
0.192265
0.190415
0.188687
0.187082
0.185597
0.184237
0.182972
0.181776
0.180617
0.179475
0.178342
0.177211
0.176079
0.17494
0.173792
0.172629
0.171448
0.170243
0.169009
0.167751
0.166466
0.165146
0.163808
0.162444
0.16107
0.159683
0.158275
0.156838
0.155392
0.153932
0.15246
0.150974
0.149465
0.147915
0.146308
0.144615
0.142816
0.140886
0.138812
0.136572
0.134156
0.131555
0.128771
0.125805
0.122664
0.119354
0.115884
0.112287
0.108604
0.104861
0.101089
0.0972908
0.0934497
0.0895422
0.08556
0.0815094
0.0774193
0.0733158
0.0692292
0.0651931
0.0612348
0.0573309
0.0534325
0.0494925
0.0454814
0.041342
0.0370438
0.0325632
0.0279227
0.023159
0.0183375
0.0135761
0.00906074
0.00504018
0.00139078
-0.00204939
-0.00537821
-0.00864733
-0.0118828
-0.0150982
-0.018301
-0.0214963
-0.0246875
-0.0278775
-0.0310684
-0.0342618
-0.0374591
-0.0406609
-0.0438677
-0.0470796
-0.0502967
-0.0535186
-0.056745
-0.0599754
-0.0632095
-0.0664467
-0.0696867
-0.0729289
-0.0761732
-0.079419
-0.0826662
-0.0859145
-0.0891637
-0.0924136
-0.0956641
-0.0989151
-0.102166
-0.105418
-0.10867
0.21935
0.216865
0.214382
0.211926
0.209526
0.207206
0.204973
0.202832
0.20078
0.198822
0.196963
0.195209
0.193556
0.192009
0.190574
0.189245
0.188026
0.186876
0.18578
0.184694
0.183608
0.182511
0.1814
0.180275
0.179131
0.177963
0.17677
0.175548
0.174291
0.172999
0.171674
0.170322
0.168934
0.167529
0.166106
0.164676
0.163233
0.161769
0.16028
0.158782
0.157266
0.155736
0.154186
0.152608
0.150986
0.149294
0.147502
0.145588
0.143521
0.141289
0.138872
0.136258
0.133443
0.130431
0.127228
0.123842
0.120285
0.116566
0.112704
0.108732
0.104699
0.100641
0.0965608
0.0924619
0.0883199
0.0841187
0.0798611
0.0755809
0.0713129
0.0670944
0.0629685
0.0589806
0.0551129
0.0512925
0.0474464
0.0435555
0.039568
0.0354519
0.0311869
0.0267842
0.0222762
0.0177246
0.0132224
0.00885786
0.00479523
0.00110525
-0.00234405
-0.00565936
-0.0089033
-0.012109
-0.0152937
-0.0184673
-0.0216355
-0.0248025
-0.0279711
-0.0311434
-0.0343209
-0.0375046
-0.0406951
-0.0438925
-0.0470969
-0.0503078
-0.0535248
-0.0567474
-0.059975
-0.063207
-0.0664427
-0.0696817
-0.0729234
-0.0761674
-0.0794133
-0.0826607
-0.0859094
-0.0891591
-0.0924096
-0.0956608
-0.0989124
-0.102164
-0.105417
-0.108669
0.219506
0.217332
0.215162
0.213025
0.210945
0.208935
0.207005
0.205158
0.203393
0.201709
0.200108
0.198595
0.197165
0.195821
0.194569
0.193412
0.192338
0.191298
0.190297
0.189287
0.188256
0.18719
0.186098
0.184978
0.183823
0.182631
0.181403
0.180136
0.178824
0.177468
0.176073
0.17465
0.173194
0.171722
0.17024
0.168754
0.167259
0.165742
0.164206
0.16266
0.161092
0.159509
0.157903
0.156265
0.154576
0.152803
0.150918
0.148892
0.146697
0.144316
0.141731
0.138933
0.13592
0.132699
0.12928
0.125673
0.121889
0.117927
0.113783
0.109491
0.105106
0.100685
0.0962577
0.0918215
0.0873582
0.0828557
0.0783141
0.0737762
0.0692872
0.0648866
0.0606252
0.056562
0.0526874
0.0489125
0.0451324
0.0413346
0.0374845
0.0335361
0.0294732
0.0252943
0.0210215
0.0167014
0.0123941
0.00812765
0.00405058
0.000472819
-0.00285989
-0.00608351
-0.00925676
-0.0124055
-0.0155426
-0.0186751
-0.0218079
-0.0249442
-0.0280863
-0.031236
-0.0343943
-0.0375618
-0.0407388
-0.0439251
-0.0471203
-0.0503238
-0.053535
-0.056753
-0.059977
-0.0632064
-0.0664402
-0.0696778
-0.0729187
-0.0761622
-0.079408
-0.0826555
-0.0859045
-0.0891546
-0.0924057
-0.0956575
-0.0989098
-0.102163
-0.105416
-0.108669
0.219687
0.217876
0.216066
0.214279
0.212539
0.210864
0.209266
0.207743
0.206292
0.204913
0.203598
0.202353
0.201169
0.200054
0.199006
0.198035
0.197107
0.19618
0.195269
0.194334
0.193355
0.192324
0.191251
0.190136
0.18897
0.187757
0.186496
0.185187
0.183824
0.18241
0.180952
0.179464
0.177949
0.176423
0.174894
0.173364
0.171826
0.170271
0.168701
0.167118
0.165511
0.163888
0.162239
0.160553
0.158806
0.156963
0.154996
0.152874
0.150568
0.148058
0.145329
0.142377
0.139199
0.135806
0.132206
0.128403
0.124409
0.120214
0.11581
0.111203
0.106427
0.101561
0.0966531
0.0917451
0.0868484
0.0819374
0.0770244
0.0721488
0.0673623
0.0627043
0.0582263
0.0540006
0.05004
0.0462624
0.0425253
0.0387972
0.0350597
0.0312584
0.027381
0.0234162
0.0193709
0.0152642
0.0111153
0.00688865
0.00266378
-0.000524166
-0.00358314
-0.00663889
-0.00970137
-0.0127693
-0.0158427
-0.0189231
-0.0220121
-0.0251113
-0.0282221
-0.0313453
-0.0344813
-0.0376301
-0.0407916
-0.043965
-0.0471497
-0.0503447
-0.0535491
-0.0567617
-0.0599815
-0.0632077
-0.0664391
-0.0696751
-0.0729149
-0.0761577
-0.0794031
-0.0826506
-0.0858998
-0.0891503
-0.0924018
-0.0956542
-0.0989072
-0.102161
-0.105414
-0.108668
0.219875
0.218438
0.216999
0.215578
0.214202
0.212887
0.211643
0.210468
0.209357
0.208305
0.207304
0.206352
0.205437
0.204565
0.203737
0.202946
0.202162
0.201357
0.200537
0.199678
0.198759
0.197775
0.196731
0.195629
0.194467
0.193246
0.191966
0.19063
0.189234
0.187783
0.186286
0.184759
0.183212
0.181658
0.180107
0.178557
0.177002
0.175434
0.173853
0.172255
0.170635
0.168995
0.167322
0.165603
0.163812
0.161915
0.159881
0.157682
0.155292
0.152687
0.149858
0.146801
0.143513
0.140003
0.136283
0.132353
0.128226
0.123875
0.11925
0.114311
0.10909
0.103659
0.0980993
0.0925415
0.0870333
0.0815884
0.0761992
0.0708858
0.0656996
0.0606639
0.055838
0.0513302
0.0471871
0.0433326
0.0395984
0.0359149
0.032271
0.0286128
0.024918
0.0211613
0.0173389
0.013452
0.00947432
0.00523052
6.20353e-05
-0.00178397
-0.00441832
-0.00727649
-0.0102137
-0.0131882
-0.0161871
-0.0192062
-0.0222443
-0.025301
-0.0283762
-0.0314694
-0.0345804
-0.0377084
-0.0408525
-0.0440117
-0.0471846
-0.0503701
-0.0535668
-0.0567733
-0.0599884
-0.0632108
-0.0664396
-0.0696735
-0.0729119
-0.0761539
-0.0793988
-0.0826461
-0.0858953
-0.0891461
-0.0923981
-0.095651
-0.0989046
-0.102159
-0.105413
-0.108668
0.220049
0.218963
0.217879
0.216818
0.215805
0.214854
0.213973
0.213157
0.212399
0.211686
0.21101
0.210361
0.209724
0.209097
0.20849
0.207885
0.20726
0.206588
0.205869
0.205098
0.204255
0.203335
0.202342
0.20128
0.20015
0.19895
0.197683
0.196351
0.194959
0.193513
0.192024
0.190505
0.188971
0.187435
0.185904
0.184377
0.182848
0.181311
0.17976
0.178191
0.176595
0.174967
0.173295
0.171561
0.16974
0.167802
0.16572
0.163472
0.161035
0.158384
0.155511
0.152417
0.149093
0.145549
0.141801
0.137842
0.133679
0.129255
0.124467
0.119207
0.113444
0.10728
0.100926
0.0945724
0.0882834
0.0821146
0.076092
0.0702224
0.0645056
0.0589588
0.0536385
0.048686
0.044205
0.0401423
0.0363364
0.0326606
0.0290808
0.0255536
0.0220455
0.0185134
0.0149461
0.0113544
0.00774189
0.00407245
0.000374748
-0.00241838
-0.00514706
-0.00793029
-0.0107671
-0.0136478
-0.0165658
-0.0195171
-0.0224988
-0.0255087
-0.0285448
-0.0316056
-0.0346896
-0.037795
-0.0409204
-0.0440641
-0.0472243
-0.0503994
-0.0535877
-0.0567876
-0.0599974
-0.0632157
-0.0664413
-0.069673
-0.0729097
-0.0761506
-0.0793949
-0.0826419
-0.0858911
-0.0891421
-0.0923944
-0.0956479
-0.0989021
-0.102157
-0.105412
-0.108668
0.220185
0.219378
0.21859
0.217843
0.217158
0.216545
0.216006
0.215533
0.215112
0.214727
0.214365
0.214009
0.213645
0.213269
0.212883
0.212471
0.212013
0.211489
0.210898
0.210242
0.209505
0.208684
0.207783
0.206806
0.205754
0.204625
0.203421
0.202153
0.200828
0.199456
0.198047
0.196612
0.195164
0.193718
0.192282
0.190854
0.189427
0.187992
0.186541
0.185061
0.183541
0.181967
0.180323
0.178592
0.176755
0.174788
0.172674
0.170399
0.167953
0.165312
0.162466
0.159422
0.156166
0.152705
0.14906
0.145212
0.141154
0.136793
0.131971
0.126447
0.120051
0.113
0.105658
0.0983188
0.0910859
0.083993
0.0771143
0.0704784
0.0640797
0.0578811
0.0518838
0.0462667
0.0412245
0.036776
0.0327746
0.0290268
0.0254604
0.0220441
0.0187267
0.0154534
0.0121926
0.00895091
0.00574561
0.00259289
-0.000470821
-0.0032589
-0.0059408
-0.00862894
-0.0113582
-0.014138
-0.0169686
-0.0198468
-0.0227682
-0.0257284
-0.0287235
-0.0317503
-0.0348059
-0.0378877
-0.0409935
-0.0441209
-0.0472678
-0.0504319
-0.0536113
-0.056804
-0.0600082
-0.0632221
-0.0664443
-0.0696735
-0.0729084
-0.076148
-0.0793915
-0.0826381
-0.0858872
-0.0891383
-0.0923909
-0.0956448
-0.0988996
-0.102155
-0.105411
-0.108667
0.220244
0.219571
0.218951
0.21841
0.217964
0.217615
0.217356
0.217172
0.217045
0.216952
0.216873
0.216786
0.216679
0.216545
0.216377
0.216163
0.215888
0.215543
0.215119
0.214619
0.214035
0.213364
0.212612
0.211782
0.210876
0.209892
0.208839
0.207729
0.206575
0.205385
0.204169
0.202933
0.201691
0.200455
0.199232
0.19802
0.196808
0.195581
0.194324
0.193018
0.191641
0.190172
0.188592
0.186885
0.185039
0.183048
0.180911
0.178636
0.176224
0.173656
0.170922
0.168035
0.164972
0.161728
0.158336
0.154763
0.150979
0.146848
0.14216
0.136435
0.129266
0.121144
0.112662
0.104236
0.095967
0.0877714
0.079777
0.0721212
0.0648143
0.0577798
0.0509704
0.0444604
0.038546
0.0333939
0.0289599
0.0249876
0.0213563
0.018022
0.014901
0.0119178
0.00901883
0.0061835
0.0034089
0.000723711
-0.00184782
-0.00434452
-0.00684391
-0.00938393
-0.0119819
-0.014648
-0.0173837
-0.0201847
-0.0230436
-0.0259531
-0.0289067
-0.0318992
-0.0349261
-0.0379841
-0.0410699
-0.0441808
-0.0473139
-0.0504668
-0.0536369
-0.0568222
-0.0600204
-0.0632297
-0.0664483
-0.0696747
-0.0729076
-0.0761458
-0.0793884
-0.0826345
-0.0858834
-0.0891346
-0.0923875
-0.0956418
-0.0988972
-0.102153
-0.10541
-0.108667
0.220174
0.219383
0.218703
0.21817
0.217793
0.217566
0.217474
0.217488
0.217575
0.217706
0.217854
0.217995
0.218114
0.2182
0.218245
0.218241
0.218178
0.218045
0.217835
0.217547
0.217177
0.216725
0.216198
0.215601
0.21494
0.214219
0.213449
0.212643
0.211813
0.210966
0.210107
0.209241
0.208378
0.207524
0.20668
0.205846
0.205002
0.204124
0.203189
0.202166
0.201023
0.199729
0.198258
0.196604
0.194765
0.192762
0.190622
0.188381
0.186052
0.183625
0.181102
0.178497
0.175763
0.172875
0.169882
0.166749
0.1634
0.159644
0.155232
0.149303
0.141208
0.131913
0.122285
0.112806
0.103539
0.0941069
0.0846431
0.0756052
0.067158
0.0591068
0.0512227
0.0435259
0.0363108
0.0300112
0.0248316
0.0204448
0.0166659
0.0133765
0.010471
0.00781761
0.00535046
0.00302053
0.000756088
-0.00143098
-0.0034925
-0.00554393
-0.00780798
-0.0101724
-0.0126203
-0.0151611
-0.0177965
-0.0205185
-0.0233154
-0.0261753
-0.0290886
-0.0320477
-0.0350469
-0.0380815
-0.0411476
-0.044242
-0.0473614
-0.0505029
-0.0536638
-0.0568415
-0.0600336
-0.0632381
-0.066453
-0.0696766
-0.0729074
-0.0761441
-0.0793857
-0.0826312
-0.0858799
-0.0891311
-0.0923843
-0.095639
-0.0988948
-0.102152
-0.105409
-0.108667
0.219905
0.218616
0.217541
0.216734
0.216191
0.215884
0.215775
0.215821
0.215982
0.216216
0.216491
0.216777
0.217057
0.21732
0.217559
0.217768
0.217939
0.218061
0.218123
0.218118
0.218042
0.217899
0.217699
0.217455
0.21718
0.216883
0.216575
0.21627
0.215974
0.21569
0.215418
0.215154
0.214901
0.214656
0.214412
0.214166
0.213888
0.213541
0.21309
0.212496
0.211712
0.210695
0.209415
0.207875
0.206092
0.204118
0.202008
0.199853
0.197686
0.195503
0.19332
0.191148
0.1889
0.186489
0.18399
0.181406
0.178612
0.175406
0.171464
0.165369
0.156296
0.145761
0.135084
0.124814
0.114859
0.104052
0.0925281
0.0816094
0.0717428
0.0624651
0.0532474
0.0439117
0.0348729
0.0267408
0.0202942
0.0152367
0.0111974
0.00791959
0.00529544
0.00302371
0.00104676
-0.000637956
-0.00225903
-0.00380676
-0.00521147
-0.00660393
-0.00874632
-0.0109575
-0.0132472
-0.0156559
-0.0181897
-0.0208351
-0.0235734
-0.0263874
-0.0292634
-0.0321916
-0.0351647
-0.0381771
-0.0412245
-0.0443029
-0.0474089
-0.0505393
-0.053691
-0.0568612
-0.0600473
-0.063247
-0.0664581
-0.0696788
-0.0729075
-0.0761427
-0.0793833
-0.0826282
-0.0858766
-0.0891277
-0.0923811
-0.0956362
-0.0988925
-0.10215
-0.105408
-0.108666
0.219349
0.217004
0.215027
0.21351
0.212442
0.21176
0.211395
0.211279
0.211347
0.211545
0.211828
0.21216
0.212524
0.212906
0.213307
0.213725
0.214152
0.214565
0.214947
0.215287
0.215582
0.215838
0.216073
0.216311
0.216579
0.216893
0.217272
0.217719
0.218231
0.218798
0.219408
0.220044
0.220695
0.221344
0.22197
0.222564
0.223086
0.223486
0.223719
0.223733
0.223479
0.222898
0.221953
0.220654
0.219042
0.217202
0.215216
0.213269
0.211433
0.209678
0.208025
0.206495
0.204911
0.203063
0.201069
0.199065
0.196916
0.194513
0.191416
0.185393
0.17535
0.16356
0.152092
0.141673
0.131869
0.119411
0.10453
0.0909571
0.0793148
0.0685344
0.057693
0.0462764
0.0347837
0.0237646
0.0152277
0.00902525
0.00457036
0.00128538
-0.0008191
-0.00257364
-0.00404822
-0.00479473
-0.00566189
-0.00634438
-0.00691313
-0.00353276
-0.00965783
-0.011732
-0.0138374
-0.0161079
-0.0185451
-0.0211217
-0.0238088
-0.0265827
-0.0294262
-0.0323269
-0.0352763
-0.0382685
-0.0412983
-0.0443618
-0.0474552
-0.050575
-0.0537178
-0.0568808
-0.060061
-0.063256
-0.0664634
-0.0696813
-0.0729079
-0.0761415
-0.0793811
-0.0826253
-0.0858734
-0.0891245
-0.092378
-0.0956334
-0.0988903
-0.102148
-0.105407
-0.108666
0.218404
0.214253
0.210696
0.207894
0.205833
0.204402
0.203477
0.202945
0.202705
0.202676
0.202798
0.203028
0.203345
0.203736
0.204223
0.204819
0.205508
0.20625
0.207012
0.207776
0.20853
0.209283
0.210069
0.210929
0.211915