/*--------------------------------*- C++ -*----------------------------------*\
  =========                 |
  \\      /  F ield         | OpenFOAM: The Open Source CFD Toolbox
   \\    /   O peration     | Website:  https://openfoam.org
    \\  /    A nd           | Version:  6
     \\/     M anipulation  |
\*---------------------------------------------------------------------------*/
FoamFile
{
    version     2.0;
    format      ascii;
    class       volScalarField;
    location    "3800";
    object      T;
}
// * * * * * * * * * * * * * * * * * * * * * * * * * * * * * * * * * * * * * //

dimensions      [0 0 0 1 0 0 0];

internalField   nonuniform List<scalar> 
4800
(
552.489
552.367
552.245
552.123
552.001
551.879
551.758
551.639
551.521
551.406
551.293
551.184
551.078
550.976
550.878
550.785
550.696
550.612
550.532
550.457
550.387
550.322
550.261
550.204
550.151
550.101
550.054
550.009
549.965
549.922
549.879
549.836
549.793
549.75
549.707
549.663
549.618
549.573
549.526
549.479
549.431
549.382
549.332
549.281
549.229
549.177
549.125
549.072
549.018
548.964
548.909
548.854
548.798
548.741
548.684
548.626
548.567
548.505
548.441
548.374
548.302
548.225
548.144
548.057
547.964
547.865
547.761
547.651
547.535
547.411
547.279
547.137
546.985
546.82
546.642
546.45
546.244
546.025
545.791
545.543
545.28
545.006
544.755
544.665
544.591
544.508
544.416
544.315
544.21
544.101
543.99
543.878
543.764
543.65
543.535
543.419
543.304
543.188
543.071
542.955
542.838
542.722
542.605
542.488
542.371
542.254
542.137
542.019
541.902
541.785
541.667
541.55
541.432
541.315
541.197
541.079
540.962
540.844
540.727
540.609
552.489
552.366
552.244
552.121
551.999
551.877
551.756
551.636
551.518
551.403
551.29
551.181
551.076
550.974
550.876
550.783
550.694
550.61
550.531
550.457
550.388
550.323
550.263
550.207
550.155
550.105
550.058
550.013
549.969
549.926
549.883
549.841
549.798
549.755
549.711
549.667
549.623
549.577
549.531
549.483
549.435
549.386
549.336
549.286
549.235
549.183
549.131
549.078
549.025
548.971
548.917
548.862
548.807
548.751
548.694
548.637
548.578
548.517
548.453
548.385
548.313
548.236
548.154
548.066
547.973
547.874
547.769
547.657
547.539
547.414
547.281
547.139
546.986
546.822
546.644
546.453
546.249
546.031
545.799
545.552
545.286
544.983
544.593
544.649
544.6
544.519
544.423
544.321
544.213
544.104
543.992
543.879
543.765
543.65
543.535
543.42
543.304
543.188
543.072
542.955
542.839
542.722
542.605
542.488
542.371
542.254
542.137
542.019
541.902
541.785
541.667
541.55
541.432
541.315
541.197
541.079
540.962
540.844
540.727
540.609
552.488
552.365
552.241
552.118
551.995
551.873
551.751
551.631
551.514
551.399
551.287
551.178
551.072
550.971
550.873
550.78
550.692
550.609
550.532
550.459
550.391
550.328
550.269
550.214
550.162
550.113
550.067
550.022
549.978
549.935
549.892
549.85
549.807
549.764
549.721
549.677
549.632
549.587
549.54
549.493
549.445
549.396
549.347
549.296
549.246
549.195
549.143
549.091
549.039
548.986
548.933
548.879
548.824
548.769
548.713
548.656
548.598
548.537
548.474
548.406
548.333
548.255
548.172
548.083
547.988
547.887
547.78
547.666
547.546
547.418
547.284
547.14
546.987
546.823
546.646
546.457
546.255
546.04
545.812
545.574
545.324
545.07
544.84
544.736
544.642
544.543
544.438
544.331
544.22
544.108
543.995
543.881
543.767
543.652
543.536
543.42
543.304
543.188
543.072
542.956
542.839
542.722
542.605
542.488
542.371
542.254
542.137
542.02
541.902
541.785
541.667
541.55
541.432
541.315
541.197
541.079
540.962
540.844
540.727
540.609
552.488
552.363
552.239
552.115
551.991
551.868
551.746
551.626
551.509
551.395
551.283
551.175
551.069
550.968
550.871
550.78
550.693
550.612
550.536
550.465
550.399
550.337
550.279
550.225
550.175
550.126
550.08
550.035
549.992
549.949
549.906
549.864
549.822
549.779
549.736
549.692
549.648
549.602
549.556
549.509
549.461
549.413
549.364
549.314
549.264
549.214
549.163
549.112
549.06
549.009
548.957
548.904
548.85
548.796
548.74
548.684
548.625
548.565
548.501
548.432
548.358
548.278
548.193
548.101
548.004
547.9
547.791
547.674
547.552
547.422
547.285
547.14
546.986
546.822
546.646
546.459
546.26
546.05
545.829
545.601
545.371
545.151
544.96
544.814
544.69
544.572
544.458
544.343
544.229
544.114
543.999
543.884
543.769
543.653
543.537
543.421
543.305
543.189
543.073
542.956
542.839
542.722
542.606
542.489
542.371
542.254
542.137
542.02
541.902
541.785
541.667
541.55
541.432
541.315
541.197
541.08
540.962
540.844
540.727
540.609
552.487
552.362
552.237
552.112
551.987
551.864
551.742
551.622
551.505
551.391
551.28
551.172
551.068
550.968
550.873
550.783
550.698
550.619
550.545
550.476
550.411
550.351
550.295
550.242
550.192
550.145
550.099
550.055
550.012
549.969
549.927
549.885
549.843
549.8
549.757
549.714
549.67
549.624
549.578
549.532
549.484
549.436
549.388
549.339
549.29
549.24
549.19
549.14
549.09
549.039
548.988
548.936
548.883
548.829
548.774
548.717
548.658
548.597
548.531
548.46
548.384
548.301
548.212
548.117
548.016
547.91
547.798
547.679
547.554
547.423
547.284
547.137
546.983
546.818
546.644
546.459
546.264
546.059
545.847
545.631
545.417
545.213
545.03
544.87
544.73
544.6
544.476
544.356
544.238
544.121
544.004
543.888
543.771
543.655
543.539
543.423
543.306
543.19
543.073
542.957
542.84
542.723
542.606
542.489
542.372
542.255
542.137
542.02
541.903
541.785
541.668
541.55
541.432
541.315
541.197
541.08
540.962
540.844
540.727
540.609
552.487
552.36
552.234
552.109
551.984
551.86
551.738
551.619
551.503
551.39
551.279
551.173
551.07
550.971
550.878
550.79
550.708
550.631
550.559
550.492
550.429
550.371
550.316
550.265
550.216
550.17
550.125
550.081
550.038
549.996
549.955
549.913
549.871
549.829
549.786
549.743
549.699
549.654
549.608
549.561
549.514
549.467
549.419
549.371
549.322
549.274
549.225
549.176
549.127
549.077
549.027
548.975
548.922
548.867
548.812
548.754
548.695
548.631
548.563
548.488
548.407
548.321
548.228
548.129
548.025
547.915
547.8
547.679
547.552
547.418
547.278
547.131
546.976
546.812
546.639
546.456
546.264
546.064
545.86
545.653
545.449
545.253
545.073
544.908
544.759
544.621
544.492
544.367
544.246
544.127
544.008
543.891
543.774
543.657
543.541
543.424
543.307
543.191
543.074
542.957
542.84
542.723
542.606
542.489
542.372
542.255
542.138
542.02
541.903
541.785
541.668
541.55
541.433
541.315
541.197
541.08
540.962
540.844
540.727
540.609
552.486
552.359
552.232
552.105
551.98
551.857
551.737
551.618
551.503
551.391
551.281
551.176
551.075
550.979
550.889
550.803
550.723
550.649
550.579
550.515
550.454
550.398
550.345
550.295
550.248
550.202
550.158
550.115
550.073
550.031
549.99
549.948
549.907
549.865
549.822
549.779
549.735
549.69
549.645
549.598
549.552
549.505
549.457
549.41
549.362
549.315
549.267
549.218
549.17
549.12
549.07
549.018
548.965
548.91
548.853
548.794
548.731
548.664
548.591
548.512
548.427
548.336
548.238
548.136
548.027
547.914
547.796
547.672
547.543
547.408
547.267
547.119
546.964
546.801
546.629
546.449
546.26
546.065
545.866
545.666
545.468
545.277
545.097
544.93
544.777
544.635
544.502
544.375
544.252
544.131
544.012
543.894
543.776
543.659
543.542
543.425
543.309
543.192
543.075
542.958
542.841
542.724
542.607
542.49
542.372
542.255
542.138
542.02
541.903
541.785
541.668
541.55
541.433
541.315
541.197
541.08
540.962
540.844
540.727
540.609
552.486
552.358
552.231
552.104
551.979
551.857
551.737
551.62
551.506
551.395
551.288
551.185
551.086
550.993
550.905
550.823
550.746
550.674
550.607
550.545
550.487
550.433
550.382
550.333
550.287
550.242
550.199
550.157
550.115
550.074
550.033
549.992
549.951
549.909
549.866
549.823
549.779
549.734
549.689
549.643
549.597
549.55
549.503
549.456
549.409
549.362
549.314
549.266
549.218
549.168
549.118
549.065
549.01
548.953
548.894
548.832
548.765
548.693
548.615
548.53
548.44
548.344
548.242
548.135
548.024
547.907
547.785
547.659
547.529
547.392
547.25
547.102
546.947
546.786
546.616
546.439
546.254
546.063
545.868
545.671
545.477
545.288
545.107
544.937
544.783
544.64
544.507
544.38
544.256
544.135
544.015
543.896
543.778
543.661
543.544
543.426
543.309
543.193
543.076
542.959
542.842
542.725
542.607
542.49
542.373
542.256
542.138
542.021
541.903
541.786
541.668
541.551
541.433
541.315
541.198
541.08
540.962
540.844
540.727
540.609
552.486
552.359
552.232
552.105
551.981
551.859
551.741
551.626
551.514
551.405
551.3
551.199
551.104
551.014
550.929
550.85
550.776
550.708
550.644
550.584
550.529
550.477
550.427
550.381
550.335
550.292
550.249
550.208
550.167
550.126
550.085
550.044
550.003
549.961
549.918
549.875
549.831
549.786
549.741
549.695
549.648
549.602
549.555
549.508
549.461
549.415
549.367
549.319
549.27
549.22
549.168
549.113
549.056
548.996
548.933
548.866
548.793
548.716
548.631
548.541
548.445
548.344
548.238
548.128
548.012
547.892
547.767
547.639
547.506
547.369
547.227
547.079
546.925
546.765
546.599
546.425
546.244
546.056
545.864
545.671
545.478
545.288
545.103
544.93
544.776
544.637
544.506
544.38
544.257
544.136
544.016
543.898
543.78
543.662
543.545
543.427
543.31
543.193
543.076
542.959
542.842
542.725
542.608
542.491
542.373
542.256
542.139
542.021
541.904
541.786
541.668
541.551
541.433
541.315
541.198
541.08
540.962
540.844
540.727
540.609
552.487
552.361
552.236
552.111
551.988
551.867
551.751
551.637
551.527
551.421
551.319
551.222
551.13
551.044
550.963
550.887
550.817
550.752
550.691
550.634
550.581
550.531
550.484
550.438
550.394
550.351
550.31
550.269
550.228
550.187
550.147
550.106
550.064
550.022
549.979
549.936
549.891
549.846
549.801
549.754
549.707
549.661
549.614
549.567
549.52
549.473
549.425
549.376
549.326
549.274
549.219
549.161
549.1
549.036
548.967
548.894
548.816
548.731
548.64
548.543
548.442
548.336
548.226
548.111
547.992
547.869
547.742
547.611
547.476
547.338
547.196
547.049
546.897
546.739
546.576
546.406
546.229
546.045
545.856
545.664
545.471
545.277
545.084
544.903
544.756
544.625
544.499
544.377
544.256
544.136
544.017
543.898
543.78
543.662
543.545
543.428
543.311
543.194
543.077
542.96
542.843
542.725
542.608
542.491
542.374
542.256
542.139
542.021
541.904
541.786
541.669
541.551
541.433
541.316
541.198
541.08
540.962
540.844
540.727
540.609
552.488
552.364
552.241
552.119
551.998
551.881
551.767
551.656
551.549
551.446
551.348
551.255
551.168
551.085
551.008
550.936
550.869
550.807
550.75
550.696
550.646
550.598
550.552
550.507
550.464
550.422
550.381
550.34
550.3
550.259
550.219
550.178
550.136
550.093
550.05
550.005
549.96
549.915
549.868
549.821
549.774
549.727
549.679
549.632
549.585
549.537
549.487
549.437
549.384
549.328
549.27
549.208
549.142
549.072
548.997
548.917
548.831
548.739
548.641
548.538
548.431
548.32
548.206
548.087
547.965
547.838
547.708
547.574
547.438
547.298
547.156
547.01
546.86
546.706
546.547
546.381
546.209
546.029
545.843
545.652
545.457
545.256
545.047
544.842
544.72
544.606
544.49
544.372
544.253
544.134
544.016
543.898
543.78
543.662
543.545
543.428
543.311
543.194
543.077
542.96
542.843
542.726
542.609
542.491
542.374
542.257
542.139
542.022
541.904
541.786
541.669
541.551
541.433
541.316
541.198
541.08
540.962
540.845
540.727
540.609
552.489
552.368
552.248
552.129
552.013
551.9
551.79
551.684
551.581
551.483
551.389
551.301
551.217
551.139
551.066
550.998
550.935
550.877
550.822
550.772
550.724
550.678
550.633
550.59
550.548
550.506
550.465
550.425
550.384
550.343
550.302
550.26
550.218
550.174
550.13
550.085
550.039
549.992
549.945
549.897
549.849
549.8
549.752
549.704
549.655
549.606
549.554
549.5
549.444
549.385
549.322
549.254
549.182
549.105
549.023
548.935
548.841
548.742
548.636
548.526
548.413
548.297
548.179
548.056
547.93
547.8
547.667
547.53
547.391
547.251
547.108
546.963
546.816
546.665
546.51
546.349
546.182
546.007
545.825
545.636
545.44
545.233
545
544.697
544.677
544.589
544.482
544.367
544.25
544.132
544.014
543.896
543.779
543.662
543.545
543.428
543.311
543.194
543.077
542.96
542.843
542.726
542.609
542.492
542.374
542.257
542.14
542.022
541.904
541.787
541.669
541.551
541.434
541.316
541.198
541.08
540.962
540.845
540.727
540.609
552.492
552.377
552.261
552.147
552.036
551.928
551.823
551.722
551.624
551.532
551.443
551.36
551.281
551.207
551.138
551.075
551.016
550.962
550.911
550.863
550.818
550.773
550.73
550.688
550.646
550.605
550.564
550.523
550.482
550.44
550.398
550.356
550.311
550.267
550.221
550.175
550.127
550.08
550.031
549.982
549.933
549.883
549.833
549.783
549.732
549.68
549.626
549.568
549.508
549.444
549.376
549.302
549.223
549.138
549.048
548.952
548.85
548.742
548.628
548.511
548.392
548.27
548.146
548.019
547.889
547.755
547.618
547.479
547.337
547.195
547.051
546.908
546.762
546.615
546.464
546.308
546.146
545.977
545.801
545.617
545.426
545.227
545.017
544.802
544.699
544.592
544.48
544.364
544.247
544.129
544.011
543.894
543.777
543.66
543.543
543.427
543.31
543.193
543.077
542.96
542.843
542.726
542.609
542.492
542.375
542.257
542.14
542.022
541.905
541.787
541.669
541.552
541.434
541.316
541.198
541.08
540.963
540.845
540.727
540.609
552.496
552.387
552.279
552.172
552.067
551.965
551.866
551.772
551.681
551.594
551.511
551.433
551.36
551.292
551.228
551.169
551.115
551.065
551.018
550.973
550.929
550.887
550.845
550.803
550.762
550.721
550.679
550.638
550.595
550.552
550.509
550.464
550.418
550.372
550.325
550.277
550.228
550.179
550.128
550.078
550.027
549.975
549.924
549.872
549.818
549.763
549.705
549.644
549.579
549.51
549.435
549.354
549.268
549.175
549.076
548.971
548.86
548.743
548.622
548.497
548.37
548.241
548.111
547.979
547.843
547.705
547.563
547.42
547.276
547.131
546.986
546.843
546.699
546.555
546.408
546.258
546.102
545.94
545.77
545.593
545.411
545.224
545.037
544.862
544.724
544.6
544.479
544.361
544.242
544.125
544.008
543.891
543.774
543.658
543.542
543.425
543.309
543.193
543.076
542.96
542.843
542.726
542.609
542.492
542.375
542.257
542.14
542.023
541.905
541.787
541.67
541.552
541.434
541.316
541.198
541.081
540.963
540.845
540.727
540.609
552.5
552.4
552.3
552.201
552.105
552.011
551.92
551.833
551.75
551.67
551.594
551.523
551.456
551.394
551.335
551.281
551.232
551.186
551.143
551.101
551.06
551.019
550.978
550.936
550.895
550.854
550.811
550.769
550.725
550.68
550.634
550.588
550.54
550.491
550.442
550.392
550.342
550.291
550.239
550.186
550.133
550.08
550.026
549.971
549.915
549.857
549.795
549.73
549.66
549.585
549.504
549.416
549.322
549.221
549.113
548.999
548.879
548.753
548.622
548.489
548.353
548.216
548.078
547.938
547.796
547.652
547.505
547.356
547.207
547.059
546.913
546.769
546.628
546.486
546.344
546.198
546.048
545.893
545.73
545.562
545.389
545.215
545.042
544.878
544.732
544.6
544.475
544.355
544.236
544.119
544.002
543.886
543.77
543.655
543.539
543.423
543.307
543.191
543.075
542.959
542.843
542.726
542.609
542.492
542.375
542.258
542.14
542.023
541.905
541.787
541.67
541.552
541.434
541.316
541.199
541.081
540.963
540.845
540.727
540.609
552.505
552.415
552.325
552.236
552.149
552.065
551.984
551.906
551.832
551.761
551.693
551.63
551.57
551.514
551.462
551.414
551.369
551.328
551.288
551.249
551.209
551.17
551.129
551.089
551.047
551.005
550.961
550.917
550.872
550.825
550.777
550.728
550.677
550.627
550.575
550.523
550.471
550.418
550.364
550.309
550.254
550.199
550.143
550.086
550.027
549.965
549.9
549.831
549.756
549.675
549.588
549.493
549.391
549.281
549.165
549.043
548.913
548.779
548.638
548.494
548.348
548.2
548.052
547.903
547.752
547.6
547.445
547.29
547.135
546.982
546.832
546.688
546.547
546.409
546.269
546.128
545.984
545.835
545.68
545.521
545.357
545.192
545.029
544.871
544.724
544.59
544.465
544.345
544.227
544.111
543.995
543.88
543.765
543.65
543.536
543.42
543.305
543.19
543.074
542.958
542.842
542.725
542.609
542.492
542.375
542.258
542.14
542.023
541.905
541.788
541.67
541.552
541.434
541.317
541.199
541.081
540.963
540.845
540.727
540.609
552.511
552.432
552.353
552.276
552.2
552.127
552.057
551.99
551.926
551.865
551.807
551.752
551.7
551.652
551.606
551.565
551.526
551.488
551.452
551.415
551.378
551.339
551.299
551.259
551.217
551.174
551.129
551.083
551.036
550.987
550.936
550.885
550.832
550.779
550.725
550.671
550.617
550.562
550.506
550.45
550.394
550.336
550.278
550.219
550.157
550.093
550.025
549.951
549.872
549.786
549.692
549.59
549.481
549.365
549.241
549.11
548.973
548.829
548.679
548.523
548.363
548.203
548.042
547.881
547.718
547.555
547.39
547.225
547.062
546.902
546.747
546.6
546.459
546.323
546.185
546.048
545.908
545.765
545.618
545.466
545.312
545.155
544.999
544.844
544.696
544.567
544.446
544.329
544.214
544.1
543.986
543.873
543.759
543.645
543.531
543.417
543.303
543.188
543.073
542.957
542.841
542.725
542.608
542.492
542.375
542.258
542.14
542.023
541.906
541.788
541.67
541.552
541.435
541.317
541.199
541.081
540.963
540.845
540.727
540.609
552.517
552.451
552.386
552.321
552.258
552.197
552.139
552.084
552.031
551.981
551.933
551.888
551.845
551.805
551.767
551.732
551.698
551.664
551.631
551.598
551.562
551.525
551.486
551.446
551.403
551.359
551.314
551.266
551.217
551.166
551.113
551.059
551.005
550.949
550.894
550.839
550.783
550.727
550.67
550.612
550.554
550.495
550.436
550.375
550.311
550.244
550.173
550.096
550.013
549.922
549.823
549.716
549.601
549.478
549.348
549.21
549.065
548.913
548.754
548.586
548.413
548.236
548.058
547.879
547.701
547.522
547.344
547.167
546.993
546.823
546.661
546.507
546.364
546.226
546.091
545.956
545.82
545.683
545.542
545.398
545.252
545.103
544.953
544.799
544.646
544.531
544.42
544.309
544.198
544.087
543.975
543.864
543.752
543.639
543.526
543.413
543.299
543.185
543.071
542.956
542.84
542.724
542.608
542.491
542.375
542.258
542.14
542.023
541.906
541.788
541.67
541.553
541.435
541.317
541.199
541.081
540.963
540.845
540.727
540.609
552.524
552.472
552.419
552.368
552.318
552.27
552.225
552.182
552.142
552.103
552.067
552.033
551.999
551.968
551.938
551.909
551.881
551.852
551.822
551.791
551.757
551.722
551.684
551.644
551.602
551.558
551.512
551.464
551.413
551.361
551.306
551.251
551.195
551.139
551.083
551.027
550.971
550.914
550.857
550.799
550.74
550.681
550.62
550.558
550.493
550.425
550.351
550.271
550.185
550.091
549.988
549.877
549.759
549.632
549.497
549.355
549.205
549.048
548.88
548.701
548.511
548.314
548.112
547.91
547.709
547.511
547.315
547.122
546.933
546.75
546.575
546.411
546.26
546.12
545.985
545.851
545.719
545.587
545.453
545.316
545.178
545.037
544.893
544.739
544.552
544.485
544.389
544.286
544.179
544.072
543.963
543.853
543.743
543.632
543.521
543.409
543.296
543.182
543.068
542.954
542.839
542.723
542.607
542.491
542.374
542.258
542.14
542.023
541.906
541.788
541.67
541.553
541.435
541.317
541.199
541.081
540.963
540.845
540.727
540.609
552.53
552.491
552.451
552.412
552.375
552.341
552.308
552.279
552.251
552.225
552.201
552.177
552.154
552.131
552.109
552.087
552.064
552.04
552.014
551.986
551.956
551.923
551.887
551.848
551.808
551.764
551.718
551.67
551.62
551.568
551.514
551.459
551.404
551.349
551.293
551.238
551.183
551.127
551.071
551.015
550.957
550.898
550.837
550.775
550.709
550.639
550.563
550.482
550.394
550.298
550.194
550.082
549.962
549.834
549.698
549.555
549.404
549.244
549.071
548.88
548.671
548.447
548.216
547.985
547.757
547.532
547.313
547.099
546.891
546.69
546.496
546.316
546.153
546.005
545.867
545.733
545.603
545.476
545.348
545.22
545.091
544.961
544.83
544.697
544.563
544.462
544.363
544.262
544.159
544.055
543.949
543.842
543.734
543.625
543.515
543.404
543.292
543.179
543.066
542.952
542.837
542.722
542.607
542.49
542.374
542.257
542.14
542.023
541.906
541.788
541.671
541.553
541.435
541.317
541.199
541.081
540.963
540.845
540.727
540.609
552.535
552.505
552.476
552.449
552.424
552.401
552.381
552.364
552.348
552.334
552.321
552.308
552.295
552.281
552.267
552.252
552.235
552.217
552.195
552.172
552.145
552.115
552.083
552.048
552.01
551.969
551.926
551.88
551.832
551.783
551.732
551.681
551.628
551.576
551.525
551.473
551.422
551.37
551.318
551.264
551.209
551.152
551.093
551.03
550.964
550.892
550.816
550.734
550.645
550.55
550.447
550.337
550.219
550.094
549.963
549.824
549.677
549.519
549.345
549.145
548.913
548.657
548.39
548.123
547.86
547.602
547.352
547.111
546.878
546.652
546.434
546.229
546.046
545.883
545.738
545.602
545.472
545.348
545.228
545.109
544.991
544.874
544.758
544.643
544.532
544.431
544.334
544.237
544.138
544.037
543.934
543.83
543.724
543.617
543.508
543.398
543.288
543.176
543.063
542.95
542.836
542.721
542.606
542.49
542.374
542.257
542.14
542.023
541.906
541.788
541.671
541.553
541.435
541.317
541.199
541.081
540.963
540.845
540.727
540.609
552.537
552.512
552.489
552.469
552.452
552.439
552.429
552.422
552.417
552.413
552.41
552.407
552.403
552.398
552.392
552.384
552.374
552.362
552.346
552.328
552.307
552.283
552.256
552.227
552.194
552.159
552.121
552.081
552.04
551.997
551.953
551.909
551.865
551.82
551.776
551.733
551.689
551.645
551.6
551.553
551.503
551.45
551.393
551.331
551.265
551.193
551.115
551.033
550.946
550.853
550.755
550.651
550.54
550.423
550.3
550.171
550.035
549.886
549.716
549.509
549.249
548.954
548.646
548.34
548.04
547.742
547.451
547.173
546.907
546.65
546.402
546.165
545.95
545.762
545.6
545.455
545.323
545.202
545.089
544.981
544.876
544.773
544.673
544.576
544.483
544.392
544.302
544.209
544.115
544.019
543.919
543.818
543.714
543.609
543.502
543.393
543.283
543.172
543.06
542.948
542.834
542.72
542.605
542.489
542.373
542.257
542.14
542.023
541.906
541.788
541.671
541.553
541.435
541.317
541.199
541.081
540.963
540.845
540.727
540.609
552.534
552.505
552.479
552.459
552.445
552.436
552.432
552.432
552.435
552.439
552.444
552.449
552.453
552.456
552.457
552.457
552.455
552.45
552.443
552.432
552.419
552.403
552.384
552.363
552.339
552.314
552.286
552.258
552.228
552.198
552.168
552.137
552.106
552.076
552.046
552.016
551.986
551.955
551.921
551.884
551.843
551.797
551.744
551.684
551.618
551.545
551.468
551.387
551.304
551.216
551.125
551.031
550.933
550.828
550.72
550.607
550.487
550.352
550.192
549.978
549.684
549.346
548.998
548.654
548.318
547.976
547.631
547.302
546.994
546.701
546.414
546.133
545.87
545.64
545.451
545.291
545.153
545.034
544.928
544.832
544.743
544.659
544.577
544.498
544.423
544.349
544.267
544.181
544.092
544
543.904
543.806
543.704
543.601
543.495
543.388
543.279
543.169
543.058
542.945
542.832
542.718
542.604
542.489
542.373
542.257
542.14
542.023
541.906
541.789
541.671
541.553
541.435
541.318
541.2
541.082
540.963
540.845
540.727
540.609
552.525
552.477
552.437
552.407
552.386
552.374
552.369
552.37
552.375
552.383
552.392
552.402
552.412
552.421
552.43
552.437
552.443
552.448
552.45
552.45
552.448
552.443
552.436
552.427
552.418
552.408
552.397
552.387
552.377
552.367
552.358
552.349
552.341
552.333
552.325
552.316
552.307
552.295
552.279
552.258
552.23
552.193
552.147
552.092
552.028
551.957
551.881
551.804
551.727
551.648
551.57
551.492
551.411
551.324
551.233
551.141
551.04
550.926
550.784
550.563
550.233
549.851
549.465
549.095
548.735
548.342
547.922
547.524
547.165
546.826
546.49
546.15
545.821
545.524
545.288
545.103
544.955
544.836
544.741
544.658
544.587
544.526
544.468
544.412
544.361
544.31
544.233
544.152
544.069
543.982
543.89
543.794
543.695
543.593
543.489
543.382
543.275
543.165
543.055
542.943
542.831
542.717
542.603
542.488
542.372
542.256
542.14
542.023
541.906
541.789
541.671
541.553
541.436
541.318
541.2
541.082
540.964
540.845
540.727
540.609
552.504
552.418
552.345
552.289
552.249
552.223
552.209
552.204
552.205
552.212
552.221
552.233
552.245
552.259
552.273
552.288
552.303
552.318
552.332
552.345
552.355
552.365
552.374
552.383
552.393
552.405
552.419
552.436
552.455
552.477
552.5
552.524
552.548
552.572
552.596
552.618
552.638
552.653
552.662
552.662
552.654
552.634
552.6
552.554
552.496
552.431
552.36
552.291
552.226
552.164
552.105
552.05
551.993
551.926
551.855
551.783
551.707
551.622
551.511
551.292
550.927
550.5
550.088
549.715
549.362
548.909
548.366
547.87
547.445
547.05
546.653
546.239
545.821
545.42
545.107
544.879
544.715
544.595
544.518
544.455
544.402
544.375
544.345
544.319
544.299
544.298
544.2
544.124
544.048
543.966
543.877
543.784
543.686
543.586
543.483
543.378
543.271
543.162
543.052
542.941
542.829
542.716
542.602
542.487
542.372
542.256
542.14
542.023
541.906
541.789
541.671
541.553
541.436
541.318
541.2
541.082
540.964
540.845
540.727
540.609
552.47
552.318
552.188
552.085
552.009
551.956
551.921
551.901
551.891
551.889
551.893
551.9
551.911
551.924
551.941
551.962
551.987
552.014
552.041
552.069
552.096
552.124
552.152
552.184
552.22
552.261
552.308
552.362
552.421
552.486
552.554
552.623
552.693
552.762
552.828
552.89
552.948
552.998
553.039
553.07
553.088
553.093
553.081
553.052
553.01
552.958
552.901
552.849
552.809
552.775
552.748
552.729
552.705
552.659
552.603
552.553
552.503
552.462
552.413
552.226
551.815
551.339
550.917
550.585
550.319
549.784
549.026
548.398
547.872
547.396
546.934
546.437
545.917
545.331
544.897
544.625
544.442
544.335
544.288
544.266
544.209
544.26
544.221
544.229
544.226
544.152
544.141
544.095
544.029
543.952
543.866
543.775
543.679
543.579
543.477
543.373
543.267
543.159
543.05
542.939
542.827
542.715
542.601
542.486
542.371
542.256
542.139
542.023
541.906
541.789
541.671
541.554
541.436
541.318
541.2
541.082
540.964
540.846
540.727
540.609
552.418
552.167
551.948
551.774
551.642
551.546
551.479
551.434
551.404
551.386
551.376
551.373
551.375
551.382
551.396
551.42
551.453
551.491
551.533
551.577
551.622
551.669
551.719
551.776
551.842
551.919
552.007
552.107
552.219
552.339
552.465
552.594
552.722
552.848
552.968
553.08
553.182
553.274
553.354
553.422
553.477
553.518
553.54
553.544
553.532
553.509
553.481
553.464
553.469
553.486
553.512
553.549
553.573
553.544
553.499
553.478
553.451
553.477
553.551
553.479
552.956
552.412
552.01
551.736
551.69
551.02
549.995
549.246
548.467
547.84
547.244
546.607
545.834
545.179
544.706
544.45
544.254
544.154
544.141
544.127
544.133
544.153
544.103
544.137
544.093
544.096
544.116
544.08
544.018
543.942
543.858
543.768
543.673
543.574
543.473
543.369
543.263
543.156
543.047
542.937
542.826
542.713
542.6
542.486
542.371
542.255
542.139
542.023
541.906
541.789
541.671
541.554
541.436
541.318
541.2
541.082
540.964
540.846
540.727
540.609
552.344
551.951
551.609
551.334
551.126
550.975
550.867
550.789
550.733
550.691
550.66
550.637
550.621
550.611
550.615
550.634
550.67
550.716
550.769
550.828
550.889
550.954
551.025
551.105
551.202
551.315
551.448
551.601
551.774
551.961
552.159
552.36
552.56
552.753
552.935
553.102
553.254
553.39
553.512
553.621
553.721
553.814
553.89
553.945
553.982
554.008
554.037
554.086
554.166
554.267
554.374
554.501
554.596
554.572
554.544
554.598
554.567
554.68
554.926
555.126
554.276
553.691
553.399
553.017
552.314
551.482
550.616
549.739
548.841
548.112
547.436
546.715
545.904
545.169
544.608
544.304
544.178
544.139
544.092
544.131
544.135
544.137
544.088
544.093
544.075
544.101
544.143
544.09
544.017
543.937
543.852
543.762
543.667
543.569
543.469
543.366
543.261
543.154
543.045
542.936
542.825
542.712
542.599
542.485
542.37
542.255
542.139
542.023
541.906
541.789
541.671
541.554
541.436
541.318
541.2
541.082
540.964
540.846
540.727
540.609
552.24
551.655
551.15
550.748
550.452
550.239
550.088
549.977
549.892
549.822
549.762
549.711
549.668
549.628
549.605
549.607
549.634
549.679
549.735
549.801
549.873
549.95
550.034
550.131
550.25
550.394
550.565
550.769
551.003
551.263
551.54
551.825
552.107
552.377
552.625
552.847
553.043
553.217
553.375
553.524
553.675
553.839
553.99
554.108
554.212
554.303
554.432
554.595
554.793
555.017
555.233
555.491
555.68
555.63
555.672
555.953
555.804
556.014
556.347
556.186
555.399
554.847
554.54
554.032
553.075
552.091
551.143
550.106
549.083
548.243
547.461
546.591
545.696
545.002
544.531
544.228
544.156
544.174
544.157
544.166
544.162
544.148
544.109
544.095
544.103
544.161
544.27
544.117
544.019
543.933
543.847
543.757
543.663
543.565
543.465
543.363
543.258
543.152
543.044
542.934
542.824
542.712
542.599
542.485
542.37
542.255
542.139
542.023
541.906
541.789
541.671
541.554
541.436
541.318
541.2
541.082
540.964
540.846
540.727
540.609
552.086
551.243
550.541
549.998
549.618
549.354
549.168
549.033
548.926
548.835
548.747
548.661
548.583
548.5
548.43
548.39
548.389
548.412
548.453
548.51
548.579
548.657
548.742
548.843
548.969
549.123
549.313
549.548
549.829
550.153
550.507
550.874
551.24
551.59
551.899
552.164
552.391
552.587
552.769
552.955
553.154
553.407
553.623
553.774
553.944
554.073
554.365
554.71
555.085
555.48
555.797
556.248
556.579
556.739
556.994
557.287
557.225
557.387
557.644
557.394
556.719
556.235
555.711
555.11
554.205
552.986
551.738
550.486
549.292
548.299
547.247
546.2
545.41
544.904
544.599
544.381
544.273
544.244
544.247
544.238
544.22
544.194
544.168
544.116
544.125
544.169
544.168
544.089
544.007
543.926
543.841
543.752
543.659
543.562
543.463
543.361
543.256
543.15
543.042
542.933
542.823
542.711
542.598
542.484
542.37
542.255
542.139
542.023
541.906
541.789
541.672
541.554
541.436
541.318
541.2
541.082
540.964
540.846
540.727
540.609
551.835
550.654
549.734
549.054
548.633
548.34
548.138
548.005
547.907
547.827
547.732
547.604
547.494
547.375
547.23
547.115
547.047
547.015
546.997
547.013
547.052
547.115
547.176
547.271
547.383
547.521
547.691
547.916
548.203
548.555
548.961
549.39
549.82
550.236
550.577
550.855
551.07
551.258
551.422
551.681
551.914
552.208
552.458
552.676
552.94
553.153
553.715
554.298
555.01
555.652
556.336
556.976
557.483
558.044
558.537
558.873
558.708
558.795
559.011
558.959
558.389
557.753
556.82
556.284
555.812
554.548
552.919
551.172
549.626
548.499
546.975
545.861
545.366
544.973
544.736
544.576
544.476
544.422
544.381
544.358
544.295
544.242
544.241
544.209
544.242
544.17
544.156
544.067
543.994
543.918
543.836
543.749
543.656
543.56
543.461
543.359
543.255
543.149
543.042
542.933
542.822
542.711
542.598
542.484
542.37
542.255
542.139
542.023
541.906
541.789
541.672
541.554
541.436
541.318
541.2