/*--------------------------------*- C++ -*----------------------------------*\
  =========                 |
  \\      /  F ield         | OpenFOAM: The Open Source CFD Toolbox
   \\    /   O peration     | Website:  https://openfoam.org
    \\  /    A nd           | Version:  6
     \\/     M anipulation  |
\*---------------------------------------------------------------------------*/
FoamFile
{
    version     2.0;
    format      ascii;
    class       volVectorField;
    location    "3800";
    object      U;
}
// * * * * * * * * * * * * * * * * * * * * * * * * * * * * * * * * * * * * * //

dimensions      [0 1 -1 0 0 0 0];

internalField   nonuniform List<vector> 
4800
(
(-3.72931e-06 0 -3.75277e-05)
(3.00496e-05 0 -6.4623e-05)
(8.58606e-05 0 -5.0187e-05)
(0.000113244 0 -2.67191e-05)
(0.000114262 0 -1.20569e-05)
(0.000105335 0 -1.1885e-05)
(9.24429e-05 0 -5.3443e-06)
(7.70495e-05 0 -1.47127e-05)
(2.66998e-05 0 -0.000107446)
(2.75634e-05 0 -9.48644e-05)
(4.86152e-05 0 -2.63727e-05)
(-7.57198e-05 0 5.26166e-05)
(-0.000134352 0 -4.45699e-05)
(-0.000141019 0 1.31271e-05)
(-0.00016408 0 -2.87575e-05)
(-0.000169665 0 -6.61884e-05)
(-0.000176554 0 -3.39501e-05)
(-0.000244082 0 3.20322e-05)
(-0.00037532 0 -4.41094e-05)
(-0.000509355 0 8.77248e-05)
(-0.000646555 0 4.79624e-05)
(-0.000742804 0 -2.48601e-05)
(-0.000817754 0 2.37692e-05)
(-0.00090951 0 1.41022e-05)
(-0.000981506 0 4.0444e-06)
(-0.0010082 0 4.76269e-06)
(-0.00100886 0 8.10578e-06)
(-0.000995466 0 -1.73389e-05)
(-0.00095586 0 -4.43938e-05)
(-0.000901426 0 -4.23863e-05)
(-0.000873565 0 -3.08607e-05)
(-0.000869383 0 -2.76831e-05)
(-0.000883615 0 -4.4679e-05)
(-0.000888234 0 -4.3786e-05)
(-0.000872842 0 -2.43224e-05)
(-0.000862094 0 -2.4503e-05)
(-0.000842795 0 -3.47038e-05)
(-0.000816719 0 -3.21584e-05)
(-0.000793766 0 -1.42501e-07)
(-0.00077541 0 -1.95248e-07)
(-0.00077164 0 -1.78019e-05)
(-0.000781881 0 -8.77117e-06)
(-0.000806052 0 1.37592e-05)
(-0.00083658 0 -3.92467e-06)
(-0.000870246 0 2.23056e-05)
(-0.000902012 0 1.67418e-05)
(-0.000929679 0 1.57371e-06)
(-0.000961441 0 -8.95228e-06)
(-0.0010013 0 1.23274e-06)
(-0.00104403 0 2.58238e-06)
(-0.00109511 0 -1.00789e-05)
(-0.00116801 0 -7.90774e-06)
(-0.00123643 0 1.01937e-06)
(-0.00126704 0 -1.39908e-06)
(-0.0012677 0 -1.18951e-05)
(-0.00121757 0 -6.41875e-05)
(-0.00115198 0 -6.51526e-05)
(-0.00105478 0 -7.62389e-05)
(-0.000932439 0 -0.000116727)
(-0.000808818 0 -0.000121863)
(-0.000684982 0 -0.000122612)
(-0.000558434 0 -0.000120596)
(-0.000445558 0 -0.000102896)
(-0.00035054 0 -6.73245e-05)
(-0.000265429 0 -6.26911e-05)
(-0.000202639 0 -5.60763e-05)
(-0.000137122 0 -5.6084e-05)
(1.95306e-05 0 -4.28424e-05)
(0.000121897 0 -0.000109045)
(0.000253645 0 -2.92122e-05)
(0.000330577 0 -5.20608e-05)
(0.000395402 0 -7.43754e-05)
(0.000489878 0 -2.74685e-05)
(0.000504024 0 -7.74785e-06)
(0.000471507 0 -1.08465e-06)
(0.000400987 0 -7.59998e-06)
(0.000301623 0 -5.01029e-05)
(0.000256362 0 -2.49321e-05)
(0.000148965 0 -1.24326e-05)
(0.000535085 0 5.83479e-05)
(-0.000704717 0 2.53491e-05)
(1.45451e-05 0 0.000251102)
(-3.97824e-12 0 1.24028e-12)
(-2.15089e-12 0 -2.14993e-12)
(1.58637e-12 0 -3.17391e-14)
(1.38683e-12 0 2.3086e-13)
(9.72868e-13 0 1.82615e-13)
(6.77987e-13 0 1.11759e-13)
(5.0523e-13 0 6.06185e-14)
(4.16546e-13 0 2.78643e-14)
(3.81223e-13 0 7.45139e-15)
(3.79113e-13 0 -5.15939e-15)
(3.97419e-13 0 -1.27998e-14)
(4.2787e-13 0 -1.71668e-14)
(4.64917e-13 0 -1.92849e-14)
(5.04683e-13 0 -1.97927e-14)
(5.44356e-13 0 -1.91084e-14)
(5.81845e-13 0 -1.75247e-14)
(6.15573e-13 0 -1.5261e-14)
(6.44359e-13 0 -1.24927e-14)
(6.6733e-13 0 -9.36702e-15)
(6.83876e-13 0 -6.01088e-15)
(6.9361e-13 0 -2.53341e-15)
(6.96339e-13 0 9.73189e-16)
(6.92041e-13 0 4.43378e-15)
(6.80848e-13 0 7.78818e-15)
(6.6302e-13 0 1.09891e-14)
(6.38921e-13 0 1.40002e-14)
(6.08987e-13 0 1.67949e-14)
(5.73701e-13 0 1.93562e-14)
(5.33567e-13 0 2.16752e-14)
(4.89096e-13 0 2.37484e-14)
(4.40782e-13 0 2.55759e-14)
(3.89094e-13 0 2.71598e-14)
(3.34467e-13 0 2.85028e-14)
(2.77311e-13 0 2.96087e-14)
(2.18028e-13 0 3.04817e-14)
(1.57032e-13 0 3.11262e-14)
(9.47622e-14 0 3.15491e-14)
(3.16829e-14 0 3.17651e-14)
(1.55632e-06 0 -7.05621e-05)
(3.74469e-05 0 -5.28828e-05)
(6.0754e-05 0 -3.9776e-05)
(7.4214e-05 0 -1.87602e-05)
(7.74745e-05 0 -3.0252e-06)
(6.37553e-05 0 1.95847e-05)
(5.43907e-05 0 2.1232e-05)
(4.87638e-05 0 4.79948e-05)
(-1.52163e-05 0 0.000122757)
(-0.000141037 0 5.69174e-05)
(-0.000147939 0 2.08137e-05)
(-0.000141877 0 9.54031e-05)
(-0.000184747 0 7.2663e-05)
(-0.000271183 0 -7.32452e-06)
(-0.000324454 0 3.45614e-05)
(-0.000382066 0 0.000114298)
(-0.000503943 0 1.05366e-06)
(-0.000555882 0 0.000214595)
(-0.00067117 0 0.000238484)
(-0.00078433 0 0.000116714)
(-0.000832502 0 0.000171828)
(-0.000928773 0 0.000117659)
(-0.00101322 0 7.68701e-05)
(-0.00106192 0 9.94497e-05)
(-0.00108094 0 7.45313e-05)
(-0.0010797 0 3.27447e-05)
(-0.00105428 0 -5.61772e-05)
(-0.00103315 0 -6.40441e-05)
(-0.00100592 0 -7.87252e-05)
(-0.000953773 0 -2.62346e-05)
(-0.000918543 0 -3.06328e-06)
(-0.000915697 0 1.20734e-05)
(-0.000922768 0 3.19564e-05)
(-0.000907448 0 7.25746e-05)
(-0.000900992 0 -1.07968e-05)
(-0.000898757 0 9.33464e-06)
(-0.000898042 0 -3.09447e-05)
(-0.000892073 0 -6.71388e-05)
(-0.00089272 0 -3.91912e-05)
(-0.00090841 0 -1.17208e-05)
(-0.000930285 0 6.56203e-06)
(-0.00095223 0 2.36331e-05)
(-0.000985195 0 3.81888e-05)
(-0.00101496 0 4.14995e-05)
(-0.00103303 0 3.29811e-05)
(-0.00104696 0 3.58551e-05)
(-0.00106799 0 4.40964e-05)
(-0.00110484 0 5.79505e-05)
(-0.00114548 0 6.92717e-05)
(-0.00117404 0 8.52109e-05)
(-0.00119085 0 0.00010604)
(-0.00120583 0 0.000112373)
(-0.00122441 0 6.9951e-05)
(-0.00123239 0 4.23509e-05)
(-0.00117899 0 -0.00010505)
(-0.00109397 0 -0.000102982)
(-0.00100641 0 -0.00010934)
(-0.000887906 0 -0.000166854)
(-0.000729943 0 -0.000224874)
(-0.000575053 0 -0.000222034)
(-0.000460638 0 -0.000179023)
(-0.000362385 0 -0.000154725)
(-0.000272765 0 -0.00013789)
(-0.000184825 0 -0.000129391)
(-7.57426e-05 0 -0.000125184)
(-2.22737e-05 0 -0.000118511)
(0.000115946 0 -0.000232222)
(0.000191172 0 -0.000161672)
(0.000131457 0 -0.000327589)
(0.000335526 0 -6.88252e-05)
(0.00038542 0 -7.59151e-05)
(0.000438843 0 -0.00015262)
(0.000530738 0 -7.53294e-05)
(0.000565767 0 6.58804e-05)
(0.000553053 0 6.88612e-05)
(0.000483364 0 0.000137286)
(0.000386123 0 0.000101147)
(0.000320904 0 3.05572e-05)
(0.000232935 0 4.85389e-05)
(0.000310241 0 0.000106393)
(-0.000133773 0 0.000149919)
(-3.27949e-05 0 3.07539e-06)
(-4.33302e-10 0 2.73697e-10)
(-7.01314e-13 0 3.5027e-12)
(3.96713e-12 0 1.74982e-12)
(1.60123e-12 0 1.00339e-12)
(8.53767e-13 0 5.70451e-13)
(5.55991e-13 0 3.15614e-13)
(4.21335e-13 0 1.63587e-13)
(3.63378e-13 0 7.14291e-14)
(3.482e-13 0 1.47784e-14)
(3.58861e-13 0 -2.0187e-14)
(3.85411e-13 0 -4.13861e-14)
(4.21384e-13 0 -5.34422e-14)
(4.62291e-13 0 -5.91354e-14)
(5.04859e-13 0 -6.02114e-14)
(5.46624e-13 0 -5.78322e-14)
(5.85692e-13 0 -5.28278e-14)
(6.20606e-13 0 -4.58342e-14)
(6.50253e-13 0 -3.7369e-14)
(6.73811e-13 0 -2.78695e-14)
(6.90709e-13 0 -1.77111e-14)
(7.00594e-13 0 -7.21383e-15)
(7.03306e-13 0 3.35495e-15)
(6.98856e-13 0 1.37772e-14)
(6.87403e-13 0 2.38774e-14)
(6.69232e-13 0 3.3516e-14)
(6.44727e-13 0 4.25847e-14)
(6.14343e-13 0 5.10031e-14)
(5.78581e-13 0 5.87153e-14)
(5.37959e-13 0 6.56859e-14)
(4.92997e-13 0 7.18963e-14)
(4.44194e-13 0 7.73418e-14)
(3.92021e-13 0 8.20301e-14)
(3.36916e-13 0 8.59797e-14)
(2.7929e-13 0 8.9216e-14)
(2.19545e-13 0 9.17663e-14)
(1.58099e-13 0 9.36547e-14)
(9.54011e-14 0 9.49035e-14)
(3.18989e-14 0 9.55438e-14)
(-1.93659e-05 0 -8.62558e-05)
(2.54918e-05 0 -5.71436e-05)
(3.65726e-05 0 -2.01788e-05)
(5.49582e-06 0 -2.59347e-05)
(1.57625e-05 0 1.87211e-05)
(2.87111e-05 0 5.1363e-05)
(-3.10903e-05 0 5.1877e-05)
(-9.48097e-05 0 7.83145e-05)
(-9.55607e-05 0 0.00014224)
(-0.000153564 0 0.00013689)
(-0.000193361 0 0.000107436)
(-0.000228844 0 3.63821e-05)
(-0.000244675 0 0.000111146)
(-0.000332464 0 0.000162928)
(-0.000439038 0 0.000165964)
(-0.000577231 0 0.000151703)
(-0.000688846 0 0.000226146)
(-0.000778406 0 0.000205731)
(-0.000823029 0 0.00028017)
(-0.000893566 0 0.000218907)
(-0.000931642 0 0.00019272)
(-0.000991559 0 0.000149347)
(-0.00103623 0 0.000159907)
(-0.00106684 0 0.000117205)
(-0.00107448 0 6.93639e-05)
(-0.00106943 0 -2.25012e-05)
(-0.00106479 0 -1.51882e-05)
(-0.00107283 0 -7.23624e-05)
(-0.00108331 0 -8.46603e-05)
(-0.00108037 0 -8.73503e-05)
(-0.00104544 0 -0.000115602)
(-0.00102533 0 -4.05072e-05)
(-0.00101346 0 -8.00414e-06)
(-0.00101048 0 -4.20902e-05)
(-0.00101518 0 -6.44009e-05)
(-0.00101934 0 -8.50414e-06)
(-0.00102863 0 -4.75723e-05)
(-0.00103741 0 -3.33771e-05)
(-0.00104451 0 -1.64094e-05)
(-0.00106052 0 3.49542e-05)
(-0.00108037 0 6.34026e-05)
(-0.00109828 0 6.24871e-05)
(-0.00111465 0 6.83692e-05)
(-0.00112984 0 6.86834e-05)
(-0.0011466 0 7.04715e-05)
(-0.00116579 0 5.50288e-05)
(-0.00118563 0 6.46318e-05)
(-0.00121296 0 7.95684e-05)
(-0.0012378 0 8.35443e-05)
(-0.00124578 0 7.88692e-05)
(-0.00123987 0 6.91747e-05)
(-0.0012147 0 5.67776e-05)
(-0.00118404 0 4.7369e-05)
(-0.00115545 0 1.48034e-05)
(-0.00112983 0 -5.72725e-05)
(-0.00105972 0 -0.000183957)
(-0.000957014 0 -0.000204803)
(-0.000831992 0 -0.000245032)
(-0.000630896 0 -0.000334833)
(-0.000425075 0 -0.000332796)
(-0.000289112 0 -0.000271185)
(-0.000186702 0 -0.000211983)
(-8.30471e-05 0 -0.000201749)
(6.53565e-05 0 -0.000230068)
(0.000254483 0 -0.000261747)
(0.000346839 0 -0.000226147)
(0.000326138 0 -0.000219254)
(0.000327615 0 -0.000207736)
(0.000289194 0 -0.000290323)
(0.000373211 0 -0.000187601)
(0.000403507 0 -0.00019217)
(0.000456562 0 -0.000208807)
(0.000518129 0 -0.000120862)
(0.000545367 0 5.84753e-06)
(0.000552243 0 0.000125614)
(0.000537823 0 0.000154644)
(0.000454347 0 0.000167762)
(0.000346811 0 0.000120789)
(0.000239585 0 0.000145451)
(0.000249303 0 0.000208623)
(-0.000160626 0 0.00028162)
(-0.000459787 0 0.000313439)
(2.00981e-06 0 -5.69989e-05)
(-1.847e-12 0 5.10456e-12)
(-1.31187e-12 0 2.92274e-12)
(2.07665e-13 0 1.46268e-12)
(2.85095e-13 0 7.80357e-13)
(2.71123e-13 0 4.16856e-13)
(2.61045e-13 0 2.069e-13)
(2.67737e-13 0 7.97096e-14)
(2.89607e-13 0 6.43748e-16)
(3.22948e-13 0 -4.87664e-14)
(3.64164e-13 0 -7.8913e-14)
(4.1012e-13 0 -9.58849e-14)
(4.58148e-13 0 -1.03404e-13)
(5.05986e-13 0 -1.0387e-13)
(5.51739e-13 0 -9.89424e-14)
(5.93843e-13 0 -8.9855e-14)
(6.31032e-13 0 -7.75921e-14)
(6.62323e-13 0 -6.29781e-14)
(6.86987e-13 0 -4.67223e-14)
(7.04531e-13 0 -2.94389e-14)
(7.14676e-13 0 -1.16525e-14)
(7.1733e-13 0 6.19921e-15)
(7.12563e-13 0 2.37598e-14)
(7.00587e-13 0 4.07436e-14)
(6.81727e-13 0 5.6924e-14)
(6.56408e-13 0 7.21249e-14)
(6.25117e-13 0 8.62142e-14)
(5.88383e-13 0 9.90985e-14)
(5.46748e-13 0 1.10717e-13)
(5.00752e-13 0 1.21039e-13)
(4.50916e-13 0 1.30059e-13)
(3.97732e-13 0 1.37799e-13)
(3.41653e-13 0 1.44301e-13)
(2.83097e-13 0 1.49619e-13)
(2.22466e-13 0 1.53809e-13)
(1.60169e-13 0 1.56919e-13)
(9.66512e-14 0 1.58989e-13)
(3.23232e-14 0 1.60052e-13)
(-2.47508e-05 0 -9.50635e-05)
(1.17657e-05 0 -5.76657e-05)
(3.57168e-05 0 -1.7752e-05)
(1.23069e-05 0 -1.14932e-05)
(-5.47246e-05 0 -2.41157e-05)
(-3.93012e-05 0 7.88348e-05)
(-7.59078e-05 0 0.000118691)
(-0.000163013 0 0.000113197)
(-0.000164499 0 0.000132231)
(-0.000193597 0 0.000130919)
(-0.000228793 0 0.000133307)
(-0.000233688 0 0.000203241)
(-0.000373206 0 0.000128108)
(-0.000438423 0 0.000222413)
(-0.00051831 0 0.000302101)
(-0.000712625 0 0.000168316)
(-0.000756831 0 0.000338573)
(-0.00085442 0 0.00026943)
(-0.000878843 0 0.000313311)
(-0.000920291 0 0.000335143)
(-0.000975708 0 0.000308731)
(-0.00102581 0 0.000269497)
(-0.00108459 0 0.000157221)
(-0.00110548 0 0.000126572)
(-0.00110047 0 7.59969e-05)
(-0.00108957 0 5.22086e-05)
(-0.00111403 0 -4.52e-05)
(-0.00113698 0 -7.95366e-05)
(-0.00115249 0 -6.57741e-05)
(-0.00117689 0 -4.3042e-05)
(-0.00119001 0 -2.95569e-05)
(-0.00116943 0 1.28747e-05)
(-0.00114561 0 1.13646e-05)
(-0.00114467 0 1.85372e-05)
(-0.00114789 0 2.16632e-05)
(-0.00114101 0 -2.00783e-05)
(-0.00113574 0 -1.1247e-05)
(-0.00113662 0 -2.15481e-05)
(-0.00113962 0 -4.17348e-05)
(-0.00114968 0 5.21127e-05)
(-0.00116613 0 3.2553e-05)
(-0.00118265 0 6.74062e-05)
(-0.00120293 0 8.84739e-05)
(-0.00122738 0 9.78502e-05)
(-0.00125142 0 6.73415e-05)
(-0.0012661 0 9.20129e-05)
(-0.00128023 0 9.09353e-05)
(-0.0012972 0 0.000113919)
(-0.00131076 0 0.000120035)
(-0.00130651 0 9.00879e-05)
(-0.00125193 0 3.77325e-05)
(-0.00120134 0 3.92294e-05)
(-0.00115841 0 2.28052e-05)
(-0.00113385 0 -3.02798e-05)
(-0.00111529 0 -0.000121184)
(-0.00105396 0 -0.000236722)
(-0.000924568 0 -0.000371788)
(-0.000817386 0 -0.000365035)
(-0.000459866 0 -0.000678419)
(-0.000128864 0 -0.000615929)
(-0.000204062 0 -0.000347295)
(0.000119171 0 -0.000377479)
(0.000198923 0 -0.000348235)
(0.000236865 0 -0.000344784)
(0.000314785 0 -0.000296288)
(0.000402051 0 -0.000203647)
(0.000405433 0 -0.000178916)
(0.000384247 0 -0.000206669)
(0.000393081 0 -0.000221099)
(0.000397631 0 -0.000234116)
(0.000402426 0 -0.000250489)
(0.000451848 0 -0.000225625)
(0.000502006 0 -9.91393e-05)
(0.0005052 0 -3.77709e-05)
(0.000523576 0 6.25328e-05)
(0.000490178 0 0.000239159)
(0.000445591 0 0.00027948)
(0.000405377 0 0.000175566)
(0.000199541 0 0.000292021)
(0.000280054 0 0.000346998)
(-0.000358371 0 0.000430036)
(-0.000744674 0 0.000244999)
(7.92405e-06 0 -0.000479388)
(-2.26167e-12 0 5.64787e-13)
(-2.33744e-12 0 1.81003e-12)
(-5.40731e-13 0 1.14495e-12)
(-1.92045e-13 0 6.71778e-13)
(-1.74655e-14 0 3.64824e-13)
(8.4189e-14 0 1.67637e-13)
(1.57122e-13 0 3.9965e-14)
(2.19723e-13 0 -4.31295e-14)
(2.79305e-13 0 -9.66681e-14)
(3.38293e-13 0 -1.29737e-13)
(3.96894e-13 0 -1.47955e-13)
(4.54306e-13 0 -1.54938e-13)
(5.09321e-13 0 -1.53167e-13)
(5.60639e-13 0 -1.44478e-13)
(6.07042e-13 0 -1.30337e-13)
(6.47482e-13 0 -1.11983e-13)
(6.81122e-13 0 -9.04986e-14)
(7.07351e-13 0 -6.6844e-14)
(7.25779e-13 0 -4.18644e-14)
(7.36232e-13 0 -1.62924e-14)
(7.38718e-13 0 9.25721e-15)
(7.334e-13 0 3.42849e-14)
(7.20567e-13 0 5.83955e-14)
(7.00613e-13 0 8.12819e-14)
(6.74017e-13 0 1.02711e-13)
(6.41317e-13 0 1.22513e-13)
(6.03084e-13 0 1.40573e-13)
(5.59899e-13 0 1.56824e-13)
(5.12338e-13 0 1.71241e-13)
(4.60954e-13 0 1.83833e-13)
(4.06263e-13 0 1.94641e-13)
(3.48736e-13 0 2.03725e-13)
(2.88798e-13 0 2.11158e-13)
(2.26846e-13 0 2.17015e-13)
(1.63279e-13 0 2.21362e-13)
(9.85336e-14 0 2.24256e-13)
(3.29618e-14 0 2.25738e-13)
(-2.92397e-05 0 -9.99682e-05)
(7.37818e-06 0 -6.05357e-05)
(2.45138e-05 0 -3.32856e-05)
(2.97163e-05 0 -1.57871e-05)
(-3.60748e-05 0 7.13165e-05)
(-0.000115234 0 0.000122486)
(-0.000177922 0 0.00014025)
(-0.00022354 0 0.00013032)
(-0.000209574 0 0.000151435)
(-0.0002228 0 0.000147455)
(-0.000278242 0 0.00013584)
(-0.000319212 0 0.000226158)
(-0.000418854 0 0.000310061)
(-0.000539723 0 0.000317834)
(-0.00059632 0 0.000381717)
(-0.000688249 0 0.00038553)
(-0.000812504 0 0.00029849)
(-0.000857598 0 0.000358558)
(-0.000895619 0 0.000364056)
(-0.000933996 0 0.000348603)
(-0.000993986 0 0.000301222)
(-0.0010421 0 0.000295264)
(-0.00108633 0 0.000259979)
(-0.001099 0 0.000235866)
(-0.00112754 0 3.46875e-05)
(-0.00117233 0 -4.4176e-05)
(-0.00120273 0 -6.02446e-06)
(-0.0012067 0 -1.12082e-05)
(-0.0012101 0 -6.13332e-05)
(-0.00124251 0 -9.13449e-05)
(-0.00125693 0 -7.7005e-05)
(-0.00125498 0 -4.35185e-05)
(-0.00122678 0 -2.65872e-05)
(-0.00121296 0 -3.92906e-05)
(-0.00120872 0 -1.85661e-05)
(-0.00120843 0 -1.31097e-05)
(-0.0012125 0 -2.88655e-05)
(-0.00122269 0 -8.68173e-06)
(-0.00123049 0 1.88122e-05)
(-0.00123738 0 3.87344e-05)
(-0.00124837 0 7.06685e-05)
(-0.00125698 0 7.1365e-05)
(-0.00127131 0 0.000116917)
(-0.00130159 0 0.000112901)
(-0.00132147 0 9.57406e-05)
(-0.00132751 0 8.76551e-05)
(-0.00132836 0 8.61999e-05)
(-0.00133591 0 0.000104924)
(-0.00134643 0 0.000102759)
(-0.00132343 0 -2.88533e-06)
(-0.00123885 0 -4.00512e-05)
(-0.00117379 0 -1.72753e-05)
(-0.00112182 0 -3.89719e-05)
(-0.00109881 0 -5.49982e-05)
(-0.00109844 0 -0.000112256)
(-0.00105252 0 -0.000342951)
(-0.000864319 0 -0.000573566)
(-0.000766599 0 -0.000607532)
(-0.000454839 0 -0.00086733)
(-0.000167182 0 -0.000825109)
(-4.51343e-05 0 -0.000666805)
(0.000121936 0 -0.000500125)
(0.000163776 0 -0.000404179)
(0.000198147 0 -0.000385066)
(0.000243806 0 -0.00036062)
(0.000325822 0 -0.000268014)
(0.000363857 0 -0.000210092)
(0.00037002 0 -0.000212469)
(0.000376724 0 -0.000246402)
(0.000403626 0 -0.000241875)
(0.000416798 0 -0.000241996)
(0.000412537 0 -0.000256432)
(0.000468223 0 -0.000148994)
(0.000480919 0 -2.30996e-05)
(0.000461428 0 0.000126263)
(0.000455654 0 0.000233672)
(0.00042593 0 0.00030258)
(0.000341696 0 0.000311627)
(0.00027883 0 0.000366227)
(0.000407266 0 0.000451986)
(0.000317379 0 0.000570896)
(-0.000377835 0 0.000650339)
(9.50821e-06 0 -0.000430922)
(-2.0525e-12 0 -4.45061e-13)
(-2.8936e-12 0 8.60307e-13)
(-9.30118e-13 0 6.35903e-13)
(-4.94954e-13 0 3.97334e-13)
(-2.33019e-13 0 2.03254e-13)
(-6.38147e-14 0 5.90152e-14)
(5.69706e-14 0 -4.42708e-14)
(1.52974e-13 0 -1.16438e-13)
(2.3634e-13 0 -1.6508e-13)
(3.12877e-13 0 -1.95512e-13)
(3.8492e-13 0 -2.11411e-13)
(4.52935e-13 0 -2.15429e-13)
(5.16446e-13 0 -2.09631e-13)
(5.7457e-13 0 -1.9575e-13)
(6.26338e-13 0 -1.75335e-13)
(6.7087e-13 0 -1.49807e-13)
(7.07462e-13 0 -1.20477e-13)
(7.35622e-13 0 -8.85453e-14)
(7.55083e-13 0 -5.50899e-14)
(7.65797e-13 0 -2.10573e-14)
(7.67907e-13 0 1.27538e-14)
(7.61702e-13 0 4.56973e-14)
(7.47584e-13 0 7.7271e-14)
(7.26043e-13 0 1.07098e-13)
(6.97639e-13 0 1.34904e-13)
(6.62979e-13 0 1.60502e-13)
(6.22694e-13 0 1.83779e-13)
(5.77416e-13 0 2.04678e-13)
(5.27761e-13 0 2.23194e-13)
(4.74316e-13 0 2.39356e-13)
(4.17624e-13 0 2.53224e-13)
(3.5817e-13 0 2.64876e-13)
(2.96387e-13 0 2.74402e-13)
(2.3267e-13 0 2.81898e-13)
(1.6741e-13 0 2.8745e-13)
(1.01027e-13 0 2.91135e-13)
(3.38053e-14 0 2.93013e-13)
(-4.40824e-05 0 -9.20801e-05)
(6.97899e-06 0 -7.77237e-05)
(5.66776e-05 0 -4.48052e-05)
(2.05386e-06 0 -1.64466e-05)
(6.6753e-06 0 0.00013783)
(-9.24011e-05 0 0.000221719)
(-0.000135959 0 0.000242668)
(-0.000196922 0 0.000208946)
(-0.000255486 0 0.000132116)
(-0.000294075 0 0.000114108)
(-0.000290589 0 0.00027069)
(-0.000356108 0 0.000347189)
(-0.000519903 0 0.000362303)
(-0.000612805 0 0.000416301)
(-0.000681432 0 0.000425427)
(-0.000754812 0 0.000387861)
(-0.000781913 0 0.000422418)
(-0.000831333 0 0.000438799)
(-0.000892555 0 0.000427907)
(-0.000969662 0 0.000341221)
(-0.000993249 0 0.00035822)
(-0.00103472 0 0.000307925)
(-0.00105511 0 0.000285436)
(-0.00107609 0 0.000213756)
(-0.00115292 0 7.55552e-05)
(-0.00119555 0 8.45938e-05)
(-0.0012 0 7.58e-05)
(-0.00121873 0 -4.07815e-05)
(-0.00126944 0 -4.60941e-05)
(-0.00129423 0 -3.68762e-05)
(-0.00130042 0 -4.44207e-05)
(-0.00129895 0 -4.30789e-05)
(-0.00127835 0 -4.18805e-05)
(-0.0012586 0 -2.13273e-05)
(-0.00124985 0 -1.65765e-05)
(-0.00124918 0 -2.03623e-05)
(-0.00125939 0 -2.4852e-05)
(-0.00127423 0 -1.48533e-05)
(-0.00128567 0 1.65794e-05)
(-0.00129364 0 6.78324e-05)
(-0.00130072 0 0.000110937)
(-0.00131232 0 8.72584e-05)
(-0.00132093 0 0.000128725)
(-0.0013342 0 0.000118627)
(-0.00133789 0 0.000113341)
(-0.00132183 0 0.00010168)
(-0.00131453 0 0.000101751)
(-0.00131159 0 0.000110472)
(-0.00131829 0 0.000112145)
(-0.00131326 0 -3.83431e-05)
(-0.00122088 0 -6.55125e-05)
(-0.0011281 0 -0.000110445)
(-0.00105676 0 -0.000100232)
(-0.00101521 0 -0.000135422)
(-0.00100921 0 -0.000186208)
(-0.000951138 0 -0.000401868)
(-0.000714671 0 -0.000788738)
(-0.000515483 0 -0.000973018)
(-0.000400189 0 -0.00104604)
(-0.000323323 0 -0.00100942)
(3.44119e-05 0 -0.000864003)
(3.09563e-05 0 -0.000619279)
(0.000136212 0 -0.000418357)
(0.000132587 0 -0.000411487)
(0.000151413 0 -0.000405169)
(0.000203499 0 -0.000324247)
(0.000267427 0 -0.00024475)
(0.000283202 0 -0.000252439)
(0.000322351 0 -0.000278165)
(0.000370887 0 -0.000264023)
(0.00037592 0 -0.0002704)
(0.000339323 0 -0.000308133)
(0.000398644 0 -0.000204226)
(0.000436118 0 2.01355e-05)
(0.000428535 0 9.66228e-05)
(0.00041745 0 0.000229934)
(0.000383849 0 0.0003324)
(0.000280528 0 0.000367962)
(0.000238685 0 0.000425511)
(0.000346053 0 0.00049865)
(0.000377336 0 0.000663972)
(-0.000382503 0 0.000748173)
(9.44197e-06 0 -0.000389309)
(-1.63191e-12 0 -1.11452e-12)
(-2.77106e-12 0 1.02381e-13)
(-1.00324e-12 0 1.41451e-13)
(-6.24562e-13 0 7.87174e-14)
(-3.55784e-13 0 -8.00434e-15)
(-1.63336e-13 0 -9.04609e-14)
(-1.83316e-14 0 -1.59587e-13)
(9.8914e-14 0 -2.13289e-13)
(2.00231e-13 0 -2.51774e-13)
(2.91963e-13 0 -2.75946e-13)
(3.76976e-13 0 -2.86933e-13)
(4.56086e-13 0 -2.8599e-13)
(5.29e-13 0 -2.74495e-13)
(5.94935e-13 0 -2.53933e-13)
(6.52986e-13 0 -2.25864e-13)
(7.0234e-13 0 -1.91871e-13)
(7.42384e-13 0 -1.53495e-13)
(7.72738e-13 0 -1.12188e-13)
(7.93267e-13 0 -6.92748e-14)
(8.04076e-13 0 -2.59277e-14)
(8.05473e-13 0 1.68627e-14)
(7.97918e-13 0 5.8301e-14)
(7.81968e-13 0 9.77823e-14)
(7.58246e-13 0 1.34871e-13)
(7.27421e-13 0 1.69271e-13)
(6.90192e-13 0 2.00799e-13)
(6.4726e-13 0 2.29362e-13)
(5.99315e-13 0 2.54933e-13)
(5.47016e-13 0 2.77537e-13)
(4.90984e-13 0 2.97234e-13)
(4.31782e-13 0 3.14108e-13)
(3.69915e-13 0 3.28264e-13)
(3.0582e-13 0 3.39816e-13)
(2.39893e-13 0 3.48882e-13)
(1.72517e-13 0 3.55579e-13)
(1.04097e-13 0 3.60009e-13)
(3.48394e-14 0 3.6225e-13)
(-4.44302e-05 0 -7.57257e-05)
(-2.41282e-05 0 -5.93831e-05)
(-3.35306e-05 0 -2.3067e-05)
(-0.000179874 0 3.80448e-05)
(-9.50495e-05 0 0.000217339)
(-0.000160632 0 0.000253958)
(-0.000193477 0 0.00024656)
(-0.000227515 0 0.000211892)
(-0.0002543 0 0.00018533)
(-0.000305076 0 0.000230605)
(-0.000327908 0 0.000371017)
(-0.000468909 0 0.000392404)
(-0.000532646 0 0.000489322)
(-0.000611183 0 0.000541631)
(-0.000689989 0 0.000529344)
(-0.000728318 0 0.000519468)
(-0.000801938 0 0.000453166)
(-0.000849171 0 0.000457505)
(-0.000903845 0 0.000454911)
(-0.000939335 0 0.000442107)
(-0.000979199 0 0.000382071)
(-0.000999416 0 0.000353915)
(-0.0010215 0 0.000302911)
(-0.00106442 0 0.000173163)
(-0.00110472 0 0.000184688)
(-0.00115382 0 0.000116767)
(-0.00119992 0 1.44394e-05)
(-0.00126583 0 -3.17643e-05)
(-0.00129634 0 -1.04565e-05)
(-0.00129745 0 -2.36686e-05)
(-0.00129689 0 -4.29306e-05)
(-0.00130192 0 -5.08955e-05)
(-0.00130099 0 -4.68605e-05)
(-0.00128417 0 -4.66985e-05)
(-0.00126806 0 -1.75232e-05)
(-0.00126281 0 -1.53141e-05)
(-0.00126794 0 -2.01546e-06)
(-0.00128486 0 8.18853e-06)
(-0.00129567 0 3.0656e-05)
(-0.00129952 0 5.59494e-05)
(-0.00129975 0 8.35685e-05)
(-0.00129927 0 0.000114576)
(-0.00130126 0 0.000137275)
(-0.00130578 0 0.000148214)
(-0.00130807 0 0.000117439)
(-0.00129217 0 6.58566e-05)
(-0.00127422 0 8.15542e-05)
(-0.00125913 0 6.10911e-05)
(-0.00125473 0 4.11418e-05)
(-0.00125182 0 -4.63382e-05)
(-0.00116922 0 -0.000115638)
(-0.00105804 0 -0.00012713)
(-0.000955981 0 -0.000139867)
(-0.000885222 0 -0.000154201)
(-0.000864796 0 -0.000178391)
(-0.000705632 0 -0.000587743)
(-0.00058756 0 -0.000887335)
(-0.000461211 0 -0.00110854)
(-0.000241867 0 -0.00127333)
(-0.00015879 0 -0.00121515)
(-9.73934e-05 0 -0.000988147)
(3.7028e-05 0 -0.000719867)
(8.50711e-05 0 -0.000432246)
(5.5988e-05 0 -0.000423959)
(6.55614e-05 0 -0.00042733)
(0.000123671 0 -0.000345615)
(0.000172306 0 -0.000283329)
(0.000181608 0 -0.000302652)
(0.000249798 0 -0.000297015)
(0.000248724 0 -0.000335112)
(0.00032421 0 -0.000260778)
(0.000306289 0 -0.000282823)
(0.00033921 0 -0.000158976)
(0.000368285 0 -9.77545e-06)
(0.000359766 0 0.000143228)
(0.000309087 0 0.000327498)
(0.000266618 0 0.000412389)
(0.000206824 0 0.000396388)
(0.000194612 0 0.00041326)
(0.000172086 0 0.000526976)
(0.000268012 0 0.000699889)
(-0.000418202 0 0.000752035)
(1.01377e-05 0 -0.000319639)
(-1.55188e-12 0 -9.60429e-13)
(-2.59338e-12 0 -3.54202e-13)
(-9.53341e-13 0 -2.50955e-13)
(-6.44249e-13 0 -2.15658e-13)
(-4.02197e-13 0 -2.23446e-13)
(-2.15397e-13 0 -2.53224e-13)
(-6.58572e-14 0 -2.90317e-13)
(6.07864e-14 0 -3.25385e-13)
(1.73683e-13 0 -3.52848e-13)
(2.77718e-13 0 -3.69673e-13)
(3.74875e-13 0 -3.74544e-13)
(4.65373e-13 0 -3.67331e-13)
(5.48503e-13 0 -3.48731e-13)
(6.232e-13 0 -3.20006e-13)
(6.884e-13 0 -2.8277e-13)
(7.4324e-13 0 -2.38815e-13)
(7.87145e-13 0 -1.89964e-13)
(8.19842e-13 0 -1.37961e-13)
(8.41343e-13 0 -8.44091e-14)
(8.51935e-13 0 -3.07201e-14)
(8.52136e-13 0 2.19151e-14)
(8.42621e-13 0 7.25505e-14)
(8.24153e-13 0 1.20484e-13)
(7.97531e-13 0 1.65233e-13)
(7.63567e-13 0 2.06495e-13)
(7.2307e-13 0 2.44112e-13)
(6.76828e-13 0 2.78029e-13)
(6.25591e-13 0 3.08271e-13)
(5.70062e-13 0 3.34909e-13)
(5.10887e-13 0 3.5805e-13)
(4.48654e-13 0 3.7782e-13)
(3.83878e-13 0 3.94359e-13)
(3.17006e-13 0 4.07818e-13)
(2.48433e-13 0 4.1835e-13)
(1.78536e-13 0 4.26106e-13)
(1.07699e-13 0 4.31219e-13)
(3.60471e-14 0 4.33789e-13)
(-3.50794e-05 0 -6.06007e-05)
(-4.47568e-05 0 -1.85391e-05)
(-7.22017e-05 0 4.2114e-05)
(-0.000272707 0 0.000101757)
(-0.000268226 0 0.000196616)
(-0.000204102 0 0.000306905)
(-0.000205127 0 0.000304134)
(-0.000215079 0 0.000278489)
(-0.000291241 0 0.000211862)
(-0.000417879 0 0.000225555)
(-0.000394475 0 0.000456214)
(-0.000539794 0 0.000473077)
(-0.000616294 0 0.000519995)
(-0.000612236 0 0.000619236)
(-0.000715552 0 0.000552684)
(-0.000727461 0 0.000562474)
(-0.00078801 0 0.000523773)
(-0.000859278 0 0.000493928)
(-0.000887631 0 0.000498342)
(-0.00091692 0 0.00045679)
(-0.000935385 0 0.000417175)
(-0.000950595 0 0.000366482)
(-0.000947226 0 0.000365921)
(-0.00098678 0 0.000265442)
(-0.0010295 0 0.000197736)
(-0.00106684 0 0.000153628)
(-0.00112892 0 8.96097e-05)
(-0.0011774 0 5.75315e-05)
(-0.00120706 0 5.38473e-05)
(-0.00124715 0 -5.16262e-05)
(-0.00127851 0 -6.49098e-05)
(-0.00128801 0 -5.26044e-05)
(-0.00128874 0 -8.23596e-05)
(-0.00129063 0 -6.00839e-05)
(-0.00126273 0 -1.09683e-05)
(-0.00123876 0 -9.384e-06)
(-0.00123436 0 -6.36322e-06)
(-0.00123383 0 1.07043e-05)
(-0.00123575 0 3.86465e-05)
(-0.00124763 0 6.13883e-05)
(-0.00125024 0 7.06604e-05)
(-0.0012414 0 9.72297e-05)
(-0.00123958 0 0.000103454)
(-0.00124419 0 0.000131775)
(-0.00125353 0 0.000125018)
(-0.0012552 0 1.60375e-05)
(-0.0012309 0 8.55743e-05)
(-0.00120828 0 5.21679e-05)
(-0.00119614 0 3.53618e-06)
(-0.00117922 0 -0.000109333)
(-0.00106995 0 -0.000226268)
(-0.000932598 0 -0.000260803)
(-0.000806857 0 -0.000270424)
(-0.000701068 0 -0.00030422)
(-0.000647795 0 -0.000356497)
(-0.000534226 0 -0.000583056)
(-0.000239668 0 -0.00101045)
(-0.000444454 0 -0.00118459)
(-0.000184628 0 -0.00140232)
(-0.000282701 0 -0.0012864)
(-0.000106048 0 -0.00105604)
(-0.00012656 0 -0.000788705)
(-6.17918e-06 0 -0.00046042)
(-4.87038e-05 0 -0.000436102)
(-3.43929e-05 0 -0.000441196)
(2.27184e-05 0 -0.000379135)
(6.67837e-05 0 -0.000340461)
(0.000103704 0 -0.000341746)
(0.000163037 0 -0.000335124)
(0.000168 0 -0.000353095)
(0.000243591 0 -0.000293397)
(0.00023523 0 -0.000307423)
(0.00024735 0 -0.000278192)
(0.000295403 0 3.60249e-06)
(0.00028837 0 0.000138685)
(0.000261413 0 0.000327166)
(0.000232153 0 0.000434235)
(0.000153816 0 0.000424397)
(0.000158403 0 0.000423714)
(8.83352e-05 0 0.000537876)
(0.00021342 0 0.000721768)
(-0.000370477 0 0.000692484)
(1.07309e-05 0 -0.000238086)
(-1.61166e-12 0 -8.99508e-13)
(-2.53494e-12 0 -7.41318e-13)
(-8.64274e-13 0 -5.75282e-13)
(-5.96889e-13 0 -4.66735e-13)
(-3.93351e-13 0 -4.16842e-13)
(-2.30206e-13 0 -4.08635e-13)
(-9.04919e-14 0 -4.23046e-13)
(3.63832e-14 0 -4.45071e-13)
(1.55943e-13 0 -4.64565e-13)
(2.70266e-13 0 -4.75381e-13)
(3.79318e-13 0 -4.74301e-13)
(4.81899e-13 0 -4.60174e-13)
(5.76325e-13 0 -4.33283e-13)
(6.60896e-13 0 -3.94867e-13)
(7.34177e-13 0 -3.46755e-13)
(7.95147e-13 0 -2.9108e-13)
(8.43237e-13 0 -2.3005e-13)
(8.78292e-13 0 -1.6578e-13)
(9.00508e-13 0 -1.00192e-13)
(9.104e-13 0 -3.4962e-14)
(9.08743e-13 0 2.85133e-14)
(8.96487e-13 0 8.91424e-14)
(8.7465e-13 0 1.46136e-13)
(8.44257e-13 0 1.98978e-13)
(8.063e-13 0 2.4738e-13)
(7.61726e-13 0 2.91227e-13)
(7.11419e-13 0 3.30532e-13)
(6.56194e-13 0 3.65389e-13)
(5.96796e-13 0 3.95944e-13)
(5.33895e-13 0 4.2237e-13)
(4.68092e-13 0 4.44857e-13)
(3.99913e-13 0 4.63599e-13)
(3.29811e-13 0 4.78797e-13)
(2.58181e-13 0 4.90652e-13)
(1.85385e-13 0 4.99355e-13)
(1.1178e-13 0 5.05074e-13)
(3.74094e-14 0 5.07931e-13)
(-1.93939e-05 0 -4.1048e-05)
(-3.43928e-05 0 2.09093e-05)
(-3.84664e-05 0 0.000118822)
(-0.000196518 0 0.000194392)
(-0.000367396 0 0.000168993)
(-0.000372537 0 0.000186027)
(-0.000320769 0 0.000263385)
(-0.000305765 0 0.000273327)
(-0.000294264 0 0.000342406)
(-0.000448636 0 0.000366055)
(-0.000533766 0 0.000453352)
(-0.000566301 0 0.000580142)
(-0.000668275 0 0.000573503)
(-0.000697223 0 0.000602402)
(-0.000715972 0 0.000611176)
(-0.000757192 0 0.000567146)
(-0.000808365 0 0.000523278)
(-0.000831759 0 0.000549453)
(-0.000851073 0 0.000539001)
(-0.000878453 0 0.000470214)
(-0.000885888 0 0.000409268)
(-0.000890727 0 0.000359783)
(-0.000884986 0 0.000326062)
(-0.000883762 0 0.000307387)
(-0.000907152 0 0.000272696)
(-0.00094816 0 0.000214538)
(-0.000981024 0 0.000174855)
(-0.00101427 0 0.000114168)
(-0.00107443 0 3.1835e-05)
(-0.0011397 0 2.40955e-05)
(-0.00117306 0 2.17604e-05)
(-0.00119318 0 -3.02399e-05)
(-0.00122312 0 -6.8968e-05)
(-0.00123759 0 -6.2941e-05)
(-0.00123688 0 -6.63618e-05)
(-0.0012358 0 -5.99323e-05)
(-0.001217 0 3.51978e-05)
(-0.00118803 0 1.79064e-05)
(-0.00118341 0 2.5953e-05)
(-0.00118833 0 5.31712e-05)
(-0.00118343 0 9.56361e-05)
(-0.00118274 0 0.000106527)
(-0.00119609 0 0.000132871)
(-0.00120964 0 0.000119726)
(-0.00121635 0 0.000112522)
(-0.00119596 0 8.2219e-05)
(-0.00115183 0 4.58973e-05)
(-0.00109242 0 -1.4573e-05)
(-0.00104474 0 -7.39211e-05)
(-0.0010298 0 -0.00011512)
(-0.000929231 0 -0.000412612)
(-0.00077962 0 -0.000458399)
(-0.000705367 0 -0.000358248)
(-0.000636286 0 -0.000353005)
(-0.000570849 0 -0.000429782)
(-0.000351935 0 -0.000736522)
(-0.000398329 0 -0.000923205)
(-0.000309508 0 -0.0012687)
(-0.000156108 0 -0.00146311)
(-0.000289351 0 -0.00133277)
(-0.000157408 0 -0.00108617)
(-0.000242467 0 -0.000801603)
(-0.000121424 0 -0.000498719)
(-0.000140939 0 -0.000446425)
(-0.000121669 0 -0.000440477)
(-0.00010898 0 -0.000416331)
(-9.06245e-05 0 -0.000423163)