0 	0 	0 	0
0.010101 	-3.63044e-28 	-6.76777e-29 	-2.77586e-28
0.020202 	2.53119e-29 	-6.94516e-29 	-2.90098e-28
