0 	301.645
0.010101 	310.696
0.020202 	313.856
