/*--------------------------------*- C++ -*----------------------------------*\
  =========                 |
  \\      /  F ield         | OpenFOAM: The Open Source CFD Toolbox
   \\    /   O peration     | Website:  https://openfoam.org
    \\  /    A nd           | Version:  6
     \\/     M anipulation  |
\*---------------------------------------------------------------------------*/
FoamFile
{
    version     2.0;
    format      ascii;
    class       volScalarField;
    location    "5000";
    object      dmdt;
}
// * * * * * * * * * * * * * * * * * * * * * * * * * * * * * * * * * * * * * //

dimensions      [0 0 0 0 0 0 0];

internalField   nonuniform List<scalar> 
4800
(
-0.219107
-0.216136
-0.213153
-0.210148
-0.207121
-0.204075
-0.201019
-0.197964
-0.194922
-0.19191
-0.188951
-0.186076
-0.183327
-0.180751
-0.178387
-0.176247
-0.174325
-0.172608
-0.171073
-0.169694
-0.168448
-0.167312
-0.166265
-0.165288
-0.164366
-0.163485
-0.162635
-0.161803
-0.160979
-0.160152
-0.159316
-0.15846
-0.157579
-0.156668
-0.155724
-0.154744
-0.153728
-0.152669
-0.151559
-0.150392
-0.149153
-0.147844
-0.146468
-0.14502
-0.143501
-0.141908
-0.140231
-0.138462
-0.136594
-0.134619
-0.13253
-0.130325
-0.128009
-0.125584
-0.123055
-0.120427
-0.117706
-0.114902
-0.112032
-0.109106
-0.106127
-0.103093
-0.0999973
-0.0968333
-0.0935924
-0.0902639
-0.0868345
-0.0832946
-0.0796328
-0.0758379
-0.0719007
-0.0678117
-0.0635607
-0.0591381
-0.0545359
-0.0497452
-0.0447569
-0.039563
-0.034147
-0.0284576
-0.0224404
-0.016005
-0.00859088
-4.91911e-05
-0.00121906
-0.000179353
0.0018256
0.00432299
0.00710027
0.0100495
0.0131101
0.0162457
0.019433
0.0226567
0.0259062
0.0291743
0.0324558
0.035747
0.0390453
0.0423487
0.0456558
0.0489656
0.0522773
0.0555903
0.0589042
0.0622188
0.0655337
0.068849
0.0721644
0.0754799
0.0787955
0.0821112
0.0854269
0.0887427
0.0920585
0.0953743
0.0986901
0.102006
0.105322
0.108638
-0.2191
-0.216114
-0.213115
-0.210098
-0.207062
-0.20401
-0.200949
-0.197889
-0.194845
-0.191838
-0.188894
-0.186044
-0.183327
-0.180781
-0.178442
-0.176328
-0.174427
-0.172725
-0.171201
-0.169832
-0.168593
-0.167463
-0.16642
-0.165446
-0.164528
-0.163649
-0.162799
-0.161967
-0.16114
-0.160312
-0.159473
-0.158614
-0.157732
-0.156821
-0.155876
-0.154895
-0.153873
-0.152803
-0.151676
-0.150488
-0.149237
-0.147923
-0.146537
-0.14508
-0.143549
-0.14194
-0.140247
-0.138463
-0.136582
-0.134597
-0.132503
-0.130299
-0.127984
-0.125562
-0.123039
-0.120419
-0.117711
-0.114924
-0.112067
-0.109147
-0.106168
-0.103133
-0.100034
-0.0968662
-0.0936211
-0.0902872
-0.0868528
-0.0833068
-0.0796377
-0.0758355
-0.0718911
-0.0677943
-0.0635358
-0.0591079
-0.0545025
-0.0497083
-0.0447137
-0.039502
-0.0340503
-0.0283703
-0.0225461
-0.0167032
-0.0109453
-0.00580995
-0.00338748
-0.00115026
0.00132232
0.00403128
0.00691735
0.0099284
0.0130269
0.0161868
0.0193905
0.0226253
0.0258827
0.0291564
0.0324419
0.0357362
0.0390367
0.0423418
0.0456502
0.048961
0.0522734
0.055587
0.0589014
0.0622164
0.0655317
0.0688472
0.0721628
0.0754785
0.0787943
0.0821101
0.085426
0.0887419
0.0920578
0.0953737
0.0986896
0.102006
0.105322
0.108637
-0.219086
-0.216073
-0.213049
-0.210013
-0.206962
-0.203897
-0.200831
-0.197774
-0.194738
-0.191741
-0.188811
-0.185989
-0.183321
-0.180839
-0.178561
-0.176493
-0.174628
-0.172955
-0.171454
-0.1701
-0.168874
-0.167753
-0.166716
-0.165748
-0.164834
-0.16396
-0.163114
-0.162284
-0.161458
-0.160628
-0.159786
-0.158924
-0.15804
-0.157125
-0.156175
-0.155186
-0.154153
-0.153067
-0.151924
-0.150719
-0.149451
-0.14812
-0.146714
-0.145235
-0.143676
-0.142033
-0.140306
-0.138492
-0.136584
-0.134576
-0.132467
-0.130256
-0.127941
-0.125526
-0.123014
-0.120413
-0.117727
-0.114964
-0.112127
-0.109223
-0.106255
-0.103223
-0.100126
-0.0969556
-0.0937056
-0.0903651
-0.0869236
-0.083369
-0.0796889
-0.0758749
-0.0719185
-0.0678102
-0.0635421
-0.0591075
-0.0544991
-0.0497067
-0.0447133
-0.0395071
-0.0341109
-0.028623
-0.0231831
-0.0179388
-0.0130627
-0.00879507
-0.00537733
-0.00236738
0.00056957
0.00354946
0.00659774
0.00970971
0.0128734
0.0160768
0.01931
0.0225656
0.0258376
0.0291218
0.0324151
0.035715
0.0390198
0.0423281
0.045639
0.0489518
0.0522657
0.0555805
0.0588959
0.0622116
0.0655275
0.0688435
0.0721596
0.0754757
0.0787918
0.082108
0.0854241
0.0887403
0.0920564
0.0953726
0.0986888
0.102005
0.105321
0.108637
-0.219069
-0.216023
-0.212971
-0.209912
-0.206846
-0.203777
-0.200711
-0.197658
-0.194632
-0.191657
-0.188759
-0.185982
-0.183372
-0.180958
-0.178748
-0.176738
-0.17492
-0.173285
-0.171812
-0.170479
-0.169269
-0.16816
-0.167132
-0.166174
-0.165268
-0.1644
-0.163561
-0.162736
-0.161913
-0.161087
-0.160248
-0.159388
-0.158503
-0.157582
-0.156627
-0.15563
-0.154586
-0.153486
-0.152329
-0.151108
-0.149824
-0.14847
-0.147039
-0.145529
-0.143935
-0.142253
-0.140483
-0.138622
-0.136667
-0.134621
-0.132486
-0.130257
-0.127933
-0.125517
-0.123016
-0.120435
-0.117775
-0.115039
-0.112227
-0.109346
-0.106395
-0.103374
-0.100282
-0.0971151
-0.0938636
-0.0905173
-0.0870663
-0.0834991
-0.0798051
-0.0759762
-0.0720034
-0.0678808
-0.063602
-0.0591625
-0.0545575
-0.0497818
-0.0448333
-0.0397255
-0.0345085
-0.0292875
-0.024201
-0.0193576
-0.0148726
-0.0107662
-0.00697615
-0.00352759
-0.000241979
0.00298465
0.0062015
0.00942819
0.0126705
0.0159285
0.0192001
0.0224829
0.0257745
0.029073
0.0323768
0.0356846
0.0389954
0.0423083
0.0456227
0.0489382
0.0522544
0.0555709
0.0588877
0.0622045
0.0655214
0.0688382
0.0721549
0.0754716
0.0787882
0.0821048
0.0854213
0.0887378
0.0920544
0.0953709
0.0986875
0.102004
0.105321
0.108637
-0.219054
-0.215976
-0.212895
-0.209811
-0.206729
-0.203653
-0.20059
-0.197548
-0.194546
-0.191606
-0.188761
-0.186048
-0.183504
-0.181154
-0.179005
-0.177053
-0.175286
-0.173692
-0.172251
-0.170943
-0.169753
-0.168659
-0.167644
-0.1667
-0.165806
-0.164949
-0.164121
-0.163305
-0.162491
-0.161674
-0.160842
-0.159987
-0.159104
-0.158184
-0.157227
-0.156227
-0.155176
-0.154068
-0.152902
-0.151668
-0.15037
-0.148996
-0.147542
-0.146001
-0.144369
-0.142644
-0.140825
-0.138912
-0.136909
-0.134819
-0.132646
-0.13039
-0.128049
-0.125629
-0.123132
-0.12056
-0.117914
-0.115196
-0.112408
-0.109548
-0.106615
-0.103607
-0.100524
-0.0973594
-0.0941058
-0.0907513
-0.0872863
-0.0837004
-0.0799852
-0.0761352
-0.0721443
-0.0680087
-0.0637234
-0.0592857
-0.0546942
-0.0499546
-0.0450788
-0.040087
-0.0350447
-0.0300599
-0.0252435
-0.020675
-0.0163677
-0.0122425
-0.00825724
-0.00454537
-0.00101333
0.00241279
0.0057807
0.00911833
0.012441
0.0157571
0.0190707
0.022384
0.025698
0.0290131
0.0323293
0.0356464
0.0389644
0.0422829
0.0456017
0.0489207
0.0522396
0.0555584
0.0588769
0.0621952
0.0655133
0.0688311
0.0721487
0.0754661
0.0787833
0.0821005
0.0854176
0.0887347
0.0920517
0.0953687
0.0986858
0.102003
0.10532
0.108637
-0.219039
-0.215932
-0.212822
-0.209711
-0.206605
-0.203519
-0.200457
-0.197428
-0.19445
-0.191549
-0.188763
-0.186128
-0.183668
-0.181397
-0.179318
-0.177426
-0.175712
-0.17416
-0.172753
-0.171473
-0.170305
-0.169231
-0.168234
-0.167306
-0.166427
-0.165584
-0.16477
-0.163967
-0.163168
-0.162365
-0.161546
-0.160703
-0.15983
-0.158917
-0.157963
-0.156965
-0.155915
-0.154807
-0.153637
-0.152396
-0.151089
-0.149702
-0.148229
-0.146663
-0.144998
-0.143234
-0.14137
-0.139411
-0.137361
-0.135227
-0.133016
-0.130725
-0.128357
-0.125922
-0.123424
-0.120857
-0.118218
-0.115507
-0.112728
-0.109877
-0.106953
-0.103955
-0.100875
-0.0977052
-0.0944375
-0.0910624
-0.0875712
-0.083957
-0.0802159
-0.0763439
-0.0723363
-0.06819
-0.0639041
-0.0594791
-0.0549197
-0.0502426
-0.0454716
-0.0406402
-0.0358019
-0.031036
-0.0264055
-0.0219489
-0.0176395
-0.0134206
-0.00929423
-0.00540792
-0.00170082
0.00187944
0.005373
0.00880848
0.0122054
0.015577
0.0189318
0.0222758
0.0256128
0.0289452
0.0322746
0.0356019
0.0389278
0.0422526
0.0455764
0.0488994
0.0522215
0.055543
0.0588637
0.0621838
0.0655033
0.0688224
0.072141
0.0754593
0.0787774
0.0820953
0.085413
0.0887307
0.0920484
0.095366
0.0986837
0.102001
0.105319
0.108637
-0.219022
-0.215884
-0.212746
-0.20961
-0.206486
-0.20339
-0.200331
-0.197325
-0.194386
-0.191541
-0.188824
-0.186263
-0.183881
-0.181688
-0.17968
-0.17785
-0.176184
-0.174673
-0.1733
-0.172048
-0.170905
-0.169853
-0.168877
-0.167968
-0.167107
-0.166282
-0.165486
-0.1647
-0.16392
-0.163137
-0.162336
-0.161514
-0.160656
-0.159758
-0.158816
-0.15783
-0.156789
-0.15569
-0.154524
-0.15329
-0.151984
-0.150592
-0.149109
-0.147524
-0.145835
-0.144042
-0.142147
-0.140153
-0.138065
-0.135894
-0.133646
-0.131318
-0.128921
-0.126467
-0.123961
-0.121384
-0.118735
-0.116019
-0.113237
-0.110384
-0.107457
-0.10445
-0.101355
-0.0981608
-0.0948608
-0.0914489
-0.0879194
-0.0842683
-0.0804945
-0.0765977
-0.0725743
-0.0684217
-0.0641423
-0.0597404
-0.0552282
-0.0506253
-0.0459513
-0.0412425
-0.0365485
-0.0319231
-0.0273966
-0.0229866
-0.0186438
-0.0143438
-0.0101252
-0.0061198
-0.00228718
0.00140967
0.00500302
0.00851945
0.0119799
0.0154002
0.0187923
0.0221646
0.0255232
0.0288724
0.0322148
0.0355525
0.0388866
0.042218
0.0455473
0.0488747
0.0522005
0.0555249
0.0588481
0.0621703
0.0654915
0.068812
0.0721319
0.0754513
0.0787703
0.0820891
0.0854077
0.0887261
0.0920445
0.0953628
0.0986812
0.102
0.105318
0.108636
-0.219006
-0.215837
-0.21267
-0.20951
-0.206371
-0.203268
-0.200218
-0.197234
-0.194333
-0.191544
-0.188904
-0.186432
-0.184136
-0.182018
-0.180076
-0.178302
-0.176686
-0.175216
-0.173878
-0.172656
-0.171538
-0.170509
-0.169555
-0.168666
-0.167825
-0.167021
-0.166245
-0.165481
-0.164725
-0.163966
-0.16319
-0.162393
-0.161558
-0.160681
-0.159762
-0.158798
-0.157777
-0.1567
-0.155552
-0.154337
-0.153042
-0.151655
-0.150172
-0.148579
-0.146882
-0.145077
-0.143168
-0.141155
-0.139045
-0.136851
-0.134576
-0.132215
-0.129793
-0.127323
-0.1248
-0.122194
-0.119518
-0.116781
-0.113977
-0.111101
-0.108149
-0.105111
-0.101977
-0.0987397
-0.0953922
-0.0919288
-0.0883485
-0.0846516
-0.0808387
-0.0769112
-0.072868
-0.0687101
-0.0644402
-0.0600631
-0.055592
-0.0510442
-0.0464454
-0.0418306
-0.0372362
-0.0326943
-0.0282119
-0.0237983
-0.0194162
-0.0150596
-0.0107803
-0.00669059
-0.00276688
0.00101664
0.0046859
0.00826524
0.011776
0.0152358
0.0186587
0.022055
0.0254326
0.0287968
0.0321515
0.0354991
0.0388414
0.0421796
0.0455146
0.0488467
0.0521765
0.0555043
0.0588303
0.0621548
0.065478
0.0688002
0.0721215
0.0754421
0.0787622
0.082082
0.0854015
0.0887208
0.09204
0.0953592
0.0986784
0.101998
0.105317
0.108636
-0.218991
-0.215794
-0.212608
-0.20944
-0.206297
-0.203185
-0.200134
-0.197168
-0.194313
-0.191593
-0.189031
-0.18664
-0.184424
-0.182381
-0.180504
-0.178784
-0.177211
-0.175778
-0.174472
-0.173279
-0.172186
-0.171181
-0.170249
-0.169381
-0.168561
-0.16778
-0.167026
-0.166288
-0.165558
-0.164826
-0.164081
-0.163314
-0.162508
-0.161663
-0.160778
-0.159847
-0.158859
-0.157818
-0.1567
-0.155518
-0.154247
-0.152879
-0.15141
-0.149827
-0.148138
-0.146339
-0.144436
-0.142426
-0.140313
-0.138112
-0.135819
-0.133435
-0.130995
-0.128503
-0.125945
-0.123293
-0.120577
-0.117802
-0.114958
-0.112041
-0.109043
-0.105955
-0.102767
-0.0994727
-0.0960656
-0.0925399
-0.0888976
-0.0851444
-0.0812841
-0.0773191
-0.0732496
-0.0690802
-0.064814
-0.0604562
-0.0560175
-0.0515112
-0.0469628
-0.0424034
-0.0378646
-0.0333689
-0.0289125
-0.0244816
-0.0200435
-0.0156212
-0.0112832
-0.00712774
-0.00313758
0.000707808
0.00443081
0.00805458
0.0116011
0.0150894
0.0185351
0.02195
0.0253429
0.0287199
0.0320854
0.0354423
0.0387926
0.0421377
0.0454785
0.0488156
0.0521497
0.0554811
0.0588102
0.0621373
0.0654628
0.0687868
0.0721097
0.0754318
0.0787532
0.082074
0.0853946
0.0887149
0.0920351
0.0953552
0.0986752
0.101995
0.105315
0.108635
-0.218975
-0.215747
-0.212535
-0.209353
-0.206215
-0.203124
-0.200098
-0.197164
-0.194354
-0.191696
-0.189204
-0.186884
-0.184737
-0.182756
-0.180935
-0.179265
-0.177738
-0.176342
-0.175068
-0.173903
-0.172835
-0.171852
-0.170942
-0.170095
-0.169297
-0.16854
-0.167811
-0.1671
-0.166399
-0.165699
-0.164989
-0.164256
-0.163487
-0.162682
-0.161839
-0.160949
-0.160008
-0.159015
-0.157943
-0.156809
-0.155575
-0.154245
-0.152805
-0.151252
-0.149591
-0.14782
-0.145945
-0.143957
-0.141861
-0.139665
-0.137364
-0.134971
-0.132515
-0.129991
-0.12738
-0.124678
-0.121914
-0.11909
-0.116194
-0.113224
-0.110171
-0.107022
-0.103769
-0.100407
-0.0969267
-0.0933256
-0.0896102
-0.0857894
-0.0818707
-0.0778577
-0.0737527
-0.069562
-0.0652879
-0.0609349
-0.0565092
-0.0520229
-0.0475002
-0.0429681
-0.0384552
-0.0339765
-0.0295195
-0.0250578
-0.0205639
-0.0160571
-0.0116344
-0.00742731
-0.00339383
0.000489338
0.00424351
0.00789212
0.0114585
0.0149632
0.0184229
0.0218502
0.0252544
0.0286418
0.0320167
0.0353821
0.0387401
0.0420921
0.0454389
0.0487814
0.0521201
0.0554554
0.0587879
0.0621179
0.0654458
0.068772
0.0720967
0.0754204
0.0787431
0.0820653
0.085387
0.0887084
0.0920296
0.0953507
0.0986718
0.101993
0.105314
0.108635
-0.218965
-0.215716
-0.212483
-0.209287
-0.206147
-0.203077
-0.200085
-0.197195
-0.194439
-0.191843
-0.189414
-0.187157
-0.185072
-0.183148
-0.181379
-0.179753
-0.178263
-0.1769
-0.175654
-0.174513
-0.173467
-0.172505
-0.171617
-0.170791
-0.170016
-0.169283
-0.168581
-0.167899
-0.16723
-0.166564
-0.165891
-0.165198
-0.164473
-0.163715
-0.162924
-0.162087
-0.161205
-0.160269
-0.159259
-0.158182
-0.157002
-0.15573
-0.154341
-0.152841
-0.151229
-0.149508
-0.147677
-0.145726
-0.143661
-0.141484
-0.139191
-0.136797
-0.134318
-0.131753
-0.129094
-0.126349
-0.123534
-0.120654
-0.117698
-0.114666
-0.111543
-0.108321
-0.10499
-0.101545
-0.0979795
-0.0942972
-0.090507
-0.086616
-0.0826311
-0.0785592
-0.0744076
-0.0701829
-0.0658867
-0.0615206
-0.0570864
-0.0525961
-0.0480709
-0.0435351
-0.0390168
-0.0345228
-0.0300345
-0.0255256
-0.0209635
-0.0163416
-0.0117776
-0.00756712
-0.00352479
0.000367634
0.00412732
0.00777884
0.0113477
0.0148558
0.0183205
0.0217543
0.0251659
0.0285613
0.0319444
0.0353179
0.0386835
0.0420425
0.0453957
0.0487438
0.0520875
0.0554272
0.0587634
0.0620966
0.0654273
0.0687558
0.0720825
0.0754079
0.0787322
0.0820557
0.0853787
0.0887013
0.0920237
0.0953459
0.0986681
0.10199
0.105312
0.108634
-0.218961
-0.215706
-0.212473
-0.209274
-0.206128
-0.203065
-0.200101
-0.197257
-0.194559
-0.192022
-0.189652
-0.187449
-0.185414
-0.183537
-0.18181
-0.180222
-0.178766
-0.177432
-0.17621
-0.175091
-0.174067
-0.173126
-0.172259
-0.171454
-0.170701
-0.169993
-0.16932
-0.16867
-0.168035
-0.167407
-0.166776
-0.166128
-0.165454
-0.164753
-0.16402
-0.163246
-0.162431
-0.161565
-0.160629
-0.159619
-0.158514
-0.157313
-0.155994
-0.154568
-0.153032
-0.151382
-0.149611
-0.147717
-0.145701
-0.14356
-0.141287
-0.138892
-0.13639
-0.133787
-0.131085
-0.128295
-0.125428
-0.122486
-0.119464
-0.116358
-0.113154
-0.109848
-0.106432
-0.102903
-0.0992541
-0.0954894
-0.0916182
-0.0876509
-0.0835954
-0.0794588
-0.0752492
-0.0709724
-0.0666318
-0.0622291
-0.0577638
-0.0532439
-0.0486868
-0.0441187
-0.0395626
-0.0350156
-0.0304566
-0.0258498
-0.0211581
-0.016402
-0.0111892
-0.00752399
-0.00352129
0.00034739
0.00408208
0.00771118
0.0112636
0.0147622
0.0182234
0.0216583
0.0250744
0.0284763
0.031867
0.0352485
0.0386219
0.0419883
0.0453484
0.0487027
0.0520518
0.0553963
0.0587366
0.0620734
0.065407
0.0687381
0.0720671
0.0753944
0.0787204
0.0820455
0.0853699
0.0886938
0.0920173
0.0953408
0.0986641
0.101987
0.105311
0.108634
-0.218951
-0.215681
-0.212445
-0.209263
-0.206142
-0.2031
-0.200167
-0.197367
-0.194717
-0.192229
-0.189909
-0.187756
-0.185762
-0.183919
-0.182222
-0.180663
-0.179234
-0.177927
-0.176731
-0.175634
-0.174629
-0.173704
-0.172856
-0.172072
-0.171343
-0.170663
-0.17002
-0.169404
-0.168806
-0.168219
-0.167633
-0.167036
-0.166419
-0.165782
-0.165114
-0.164414
-0.163676
-0.162888
-0.162034
-0.161107
-0.160091
-0.158974
-0.157747
-0.156414
-0.154972
-0.15341
-0.151721
-0.149904
-0.147958
-0.14587
-0.143628
-0.141235
-0.138711
-0.136071
-0.133331
-0.130498
-0.127579
-0.124572
-0.121476
-0.118286
-0.114994
-0.111598
-0.108091
-0.104471
-0.100733
-0.0968844
-0.0929351
-0.0888948
-0.0847689
-0.0805638
-0.076287
-0.0719442
-0.0675378
-0.063071
-0.0585469
-0.0539712
-0.0493545
-0.0447196
-0.040084
-0.0354446
-0.030783
-0.0260685
-0.021291
-0.0164978
-0.0117752
-0.00743319
-0.00339197
0.000429388
0.00410206
0.00767922
0.0111956
0.0146728
0.0181239
0.0215567
0.0249758
0.0283839
0.0317824
0.0351724
0.0385545
0.0419291
0.0452967
0.0486578
0.0520129
0.0553626
0.0587075
0.0620482
0.0653852
0.0687191
0.0720505
0.07538
0.0787078
0.0820346
0.0853604
0.0886857
0.0920106
0.0953353
0.0986599
0.101984
0.105309
0.108633
-0.218952
-0.215682
-0.212439
-0.209253
-0.206146
-0.203136
-0.200242
-0.197487
-0.194884
-0.192441
-0.190158
-0.188036
-0.186077
-0.184272
-0.18261
-0.181081
-0.179678
-0.178389
-0.177207
-0.176126
-0.175137
-0.174233
-0.173406
-0.172645
-0.171943
-0.171291
-0.170679
-0.170099
-0.169542
-0.168999
-0.168462
-0.16792
-0.167366
-0.166796
-0.166202
-0.165581
-0.164926
-0.164225
-0.163462
-0.162629
-0.161711
-0.160695
-0.159575
-0.158349
-0.157018
-0.155561
-0.153975
-0.152261
-0.150407
-0.14839
-0.146184
-0.143791
-0.141242
-0.138572
-0.135799
-0.132929
-0.129963
-0.126893
-0.123714
-0.120429
-0.117042
-0.11355
-0.10995
-0.106239
-0.102417
-0.0984886
-0.0944652
-0.0903528
-0.0861549
-0.081877
-0.0775247
-0.0731013
-0.0686084
-0.0640507
-0.059434
-0.0547692
-0.0500684
-0.0453443
-0.0405998
-0.0358298
-0.0310208
-0.026154
-0.0212294
-0.0163023
-0.0114927
-0.00703055
-0.00306041
0.000623878
0.00417358
0.00766362
0.011126
0.0145736
0.0180116
0.0214419
0.0248649
0.0282805
0.0316884
0.0350883
0.0384802
0.041864
0.0452401
0.0486088
0.0519707
0.0553262
0.0586761
0.062021
0.0653617
0.0686987
0.0720329
0.0753646
0.0786945
0.082023
0.0853505
0.0886773
0.0920036
0.0953296
0.0986555
0.101981
0.105307
0.108633
-0.218948
-0.215676
-0.212438
-0.209258
-0.206163
-0.203177
-0.200319
-0.197605
-0.195043
-0.192642
-0.190401
-0.188318
-0.186387
-0.184604
-0.182962
-0.181452
-0.180067
-0.178798
-0.177638
-0.17658
-0.175612
-0.174729
-0.173923
-0.173185
-0.172509
-0.171886
-0.171308
-0.170766
-0.170251
-0.169755
-0.169269
-0.168785
-0.168297
-0.167799
-0.167282
-0.166743
-0.166176
-0.165566
-0.164901
-0.16417
-0.163359
-0.162455
-0.161451
-0.160348
-0.159139
-0.157804
-0.156341
-0.154747
-0.153005
-0.151071
-0.148905
-0.146515
-0.143947
-0.141252
-0.138455
-0.135554
-0.132541
-0.129404
-0.126138
-0.122757
-0.11927
-0.115678
-0.111984
-0.108188
-0.104288
-0.100288
-0.0961948
-0.0920133
-0.0877443
-0.0833904
-0.0789553
-0.0744392
-0.0698438
-0.0651755
-0.0604439
-0.055664
-0.0508477
-0.0459987
-0.0411098
-0.0361669
-0.0311544
-0.0260785
-0.0209506
-0.0158064
-0.0107661
-0.0061442
-0.00246489
0.000916007
0.00426002
0.00763013
0.0110289
0.0144468
0.0178749
0.0213065
0.024737
0.0281632
0.031583
0.034995
0.0383984
0.0417929
0.0451786
0.0485558
0.0519251
0.055287
0.0586424
0.061992
0.0653367
0.0686771
0.0720141
0.0753484
0.0786805
0.0820109
0.0853401
0.0886685
0.0919963
0.0953237
0.0986509
0.101978
0.105305
0.108632
-0.218947
-0.215674
-0.212441
-0.209274
-0.206197
-0.203235
-0.200408
-0.197729
-0.195204
-0.192836
-0.190625
-0.188571
-0.186668
-0.184909
-0.183286
-0.181796
-0.180432
-0.179185
-0.178045
-0.177006
-0.17606
-0.1752
-0.174418
-0.173708
-0.173062
-0.172472
-0.17193
-0.171426
-0.170954
-0.170505
-0.170071
-0.169646
-0.169223
-0.168796
-0.168357
-0.167901
-0.167421
-0.166906
-0.16634
-0.165713
-0.165014
-0.164229
-0.163351
-0.16238
-0.1613
-0.160094
-0.15876
-0.157294
-0.15567
-0.153823
-0.151707
-0.149335
-0.146754
-0.144046
-0.141236
-0.138313
-0.13526
-0.132059
-0.128707
-0.125224
-0.121631
-0.117938
-0.114156
-0.110281
-0.106313
-0.10225
-0.0980981
-0.0938545
-0.0895166
-0.0850845
-0.0805602
-0.0759433
-0.0712361
-0.0664458
-0.0615867
-0.0566754
-0.0517245
-0.0467379
-0.0417064
-0.0366114
-0.0314233
-0.0261194
-0.0206955
-0.015162
-0.00954533
-0.0043085
-0.00157384
0.00121967
0.00428159
0.0075255
0.0108721
0.0142736
0.0177028
0.0211442
0.0245885
0.0280301
0.0314653
0.0348919
0.0383089
0.0417156
0.0451122
0.0484988
0.0518763
0.0552452
0.0586066
0.0619613
0.0653103
0.0686544
0.0719945
0.0753314
0.0786658
0.0819982
0.0853293
0.0886593
0.0919887
0.0953176
0.0986462
0.101975
0.105303
0.108631
-0.218947
-0.215677
-0.212453
-0.2093
-0.206242
-0.203303
-0.200504
-0.197857
-0.195366
-0.193032
-0.190851
-0.18882
-0.186939
-0.185203
-0.183608
-0.182143
-0.1808
-0.179574
-0.178457
-0.177442
-0.176522
-0.17569
-0.174939
-0.174261
-0.173647
-0.173091
-0.172584
-0.172119
-0.171688
-0.171284
-0.1709
-0.170529
-0.170166
-0.169805
-0.169438
-0.169061
-0.168665
-0.168238
-0.167768
-0.167246
-0.166657
-0.165991
-0.165242
-0.164401
-0.163448
-0.16237
-0.161164
-0.159822
-0.158315
-0.156562
-0.154511
-0.152176
-0.149602
-0.146907
-0.144108
-0.141183
-0.138097
-0.134827
-0.131372
-0.127768
-0.124064
-0.120282
-0.116426
-0.112489
-0.108467
-0.104353
-0.100148
-0.0958442
-0.0914374
-0.086924
-0.0823056
-0.0775825
-0.0727587
-0.067844
-0.0628535
-0.0578034
-0.0527092
-0.0475769
-0.0424037
-0.0371788
-0.0318776
-0.026459
-0.0208482
-0.0148743
-0.00785184
6.87337e-05
-0.000680183
0.00125978
0.00409747
0.00728428
0.0106257
0.0140403
0.0174893
0.0209527
0.0244189
0.0278813
0.0313358
0.0347799
0.0382124
0.0416329
0.0450414
0.0484384
0.0518247
0.0552012
0.0585689
0.0619291
0.0652826
0.0686306
0.071974
0.0753137
0.0786506
0.0819852
0.0853181
0.0886499
0.0919809
0.0953113
0.0986413
0.101971
0.105301
0.108631
-0.21895
-0.215686
-0.212473
-0.209336
-0.206305
-0.203399
-0.200633
-0.198017
-0.195555
-0.19325
-0.1911
-0.189102
-0.18725
-0.185539
-0.183966
-0.182525
-0.181211
-0.180016
-0.17893
-0.177948
-0.177063
-0.176265
-0.175548
-0.174903
-0.174324
-0.173803
-0.17333
-0.172899
-0.172504
-0.172137
-0.171794
-0.171468
-0.171155
-0.170848
-0.170543
-0.170232
-0.169908
-0.16956
-0.169179
-0.168752
-0.168266
-0.167713
-0.167085
-0.166365
-0.165535
-0.16458
-0.163493
-0.162264
-0.160871
-0.159214
-0.157235
-0.154949
-0.152417
-0.149767
-0.147003
-0.144075
-0.140941
-0.137591
-0.134026
-0.130304
-0.126502
-0.122649
-0.118739
-0.114758
-0.110696
-0.106543
-0.10229
-0.0979309
-0.0934548
-0.0888578
-0.0841424
-0.0793099
-0.0743661
-0.0693221
-0.0641925
-0.0589955
-0.0537487
-0.0484591
-0.0431288
-0.0377638
-0.0323669
-0.0269268
-0.021408
-0.0157826
-0.0101161
-0.00507354
-0.00237266
0.000446783
0.00356098
0.00686812
0.010281
0.0137473
0.0172377
0.0207357
0.0242317
0.02772
0.031197
0.0346608
0.0381105
0.0415459
0.0449672
0.0483751
0.0517708
0.0551553
0.0585298
0.0618956
0.0652539
0.068606
0.0719528
0.0752955
0.0786349
0.0819718
0.0853067
0.0886403
0.0919729
0.0953049
0.0986364
0.101968
0.105299
0.10863
-0.21897
-0.215742
-0.21256
-0.209455
-0.206456
-0.203582
-0.20085
-0.198269
-0.195843
-0.193572
-0.191455
-0.189489
-0.187669
-0.185992
-0.184452
-0.183046
-0.181768
-0.18061
-0.179563
-0.17862
-0.177774
-0.177014
-0.176332
-0.175722
-0.175176
-0.174683
-0.174237
-0.17383
-0.173458
-0.173116
-0.172799
-0.172502
-0.172221
-0.171951
-0.171688
-0.171426
-0.171158
-0.170873
-0.170563
-0.170215
-0.16982
-0.169367
-0.168844
-0.168232
-0.167512
-0.166667
-0.165689
-0.164565
-0.163272
-0.161709
-0.159805
-0.157582
-0.155122
-0.152538
-0.149797
-0.146841
-0.143638
-0.140204
-0.13654
-0.132726
-0.128859
-0.124965
-0.121026
-0.117022
-0.112936
-0.108751
-0.104455
-0.100039
-0.095492
-0.0908118
-0.0860012
-0.0810614
-0.0759974
-0.0708206
-0.0655481
-0.0602028
-0.0548077
-0.0493799
-0.043938
-0.0385018
-0.0330884
-0.027708
-0.0223715
-0.0171394
-0.0121646
-0.00777292
-0.00407459
-0.000613045
0.00284416
0.00634186
0.00987115
0.0134156
0.0169627
0.0205041
0.0240349
0.027552
0.0310534
0.0345381
0.0380057
0.0414564
0.0448909
0.0483102
0.0517155
0.0551082
0.0584896
0.0618612
0.0652245
0.0685808
0.0719312
0.0752769
0.078619
0.0819581
0.0852951
0.0886305
0.0919648
0.0952984
0.0986314
0.101964
0.105297
0.108629
-0.219009
-0.21586
-0.212751
-0.209708
-0.206762
-0.203938
-0.201253
-0.198717
-0.196333
-0.194103
-0.192026
-0.190098
-0.188317
-0.186682
-0.185187
-0.183827
-0.182596
-0.181484
-0.180483
-0.179583
-0.178776
-0.178052
-0.177403
-0.176823
-0.176299
-0.175821
-0.175385
-0.174985
-0.174618
-0.17428
-0.173965
-0.173672
-0.173398
-0.17314
-0.172895
-0.172657
-0.17242
-0.172175
-0.171914
-0.171626
-0.171301
-0.170925
-0.170487
-0.169965
-0.169341
-0.168597
-0.167717
-0.166687
-0.165479
-0.163998
-0.162164
-0.160005
-0.157626
-0.155101
-0.152358
-0.149351
-0.146069
-0.142547
-0.138799
-0.134928
-0.131031
-0.127124
-0.123181
-0.119172
-0.115073
-0.110863
-0.106528
-0.102056
-0.0974404
-0.0926808
-0.0877816
-0.082743
-0.0775682
-0.0722707
-0.0668723
-0.0614015
-0.0558886
-0.0503647
-0.0448613
-0.0394042
-0.0340179
-0.0287216
-0.0235489
-0.018565
-0.0138604
-0.009526
-0.00544487
-0.00160853
0.00211943
0.00579927
0.00945114
0.0130802
0.0166878
0.0202744
0.0238403
0.0273858
0.030911
0.034416
0.0379011
0.0413669
0.0448145
0.048245
0.0516598
0.0550606
0.0584489
0.0618265
0.0651947
0.0685552
0.0719093
0.0752581
0.0786028
0.0819443
0.0852834
0.0886207
0.0919567
0.0952919
0.0986264
0.101961
0.105295
0.108629
-0.219084
-0.216079
-0.213103
-0.210184
-0.207349
-0.204619
-0.202014
-0.199545
-0.197219
-0.195041
-0.193013
-0.191134
-0.189404
-0.187821
-0.186378
-0.18507
-0.183889
-0.182827
-0.18187
-0.181008
-0.180232
-0.179533
-0.1789
-0.178329
-0.177802
-0.177314
-0.17686
-0.176437
-0.176044
-0.175676
-0.175332
-0.175011
-0.174714
-0.174438
-0.174181
-0.173939
-0.173706
-0.173476
-0.173239
-0.172986
-0.172706
-0.172386
-0.172011
-0.171561
-0.171017
-0.170359
-0.169565
-0.168613
-0.167471
-0.166054
-0.164278
-0.162172
-0.159853
-0.157344
-0.154552
-0.151461
-0.14809
-0.144479
-0.140669
-0.136772
-0.132878
-0.128985
-0.125051
-0.121044
-0.116939
-0.112711
-0.10834
-0.103817
-0.0991369
-0.0943062
-0.08933
-0.084208
-0.0789408
-0.0735441
-0.0680448
-0.0624769
-0.0568795
-0.051294
-0.045756
-0.040295
-0.0349326
-0.0296933
-0.0246244
-0.019768
-0.0151295
-0.0107098
-0.00645161
-0.00240842
0.00150202
0.00532323
0.00907815
0.0127807
0.0164408
0.020066
0.0236618
0.0272315
0.0307771
0.0342999
0.0378006
0.0412802
0.0447398
0.0481808
0.0516048
0.0550134
0.0584085
0.0617918
0.065165
0.0685296
0.0718873
0.0752392
0.0785866
0.0819305
0.0852717
0.0886108
0.0919486
0.0952854
0.0986215
0.101957
0.105293
0.108628
-0.219221
-0.216482
-0.213754
-0.211058
-0.208416
-0.205849
-0.203378
-0.20102
-0.198787
-0.196688
-0.194728
-0.192912
-0.19124
-0.189713
-0.188322
-0.187064
-0.185929
-0.184906
-0.183977
-0.183131
-0.182358
-0.181647
-0.180991
-0.180381
-0.179805
-0.179256
-0.178735
-0.178241
-0.177774
-0.177333
-0.17692
-0.176536
-0.176182
-0.175858
-0.175563
-0.175292
-0.17504
-0.174801
-0.174567
-0.174329
-0.174075
-0.173791
-0.173461
-0.173067
-0.172587
-0.171994
-0.171265
-0.170368
-0.169265
-0.167878
-0.166125
-0.164031
-0.161704
-0.159134
-0.156241
-0.153031
-0.149557
-0.145874
-0.142045
-0.138161
-0.134276
-0.130374
-0.126426
-0.122402
-0.118278
-0.114029
-0.109632
-0.105071
-0.100344
-0.0954586
-0.0904274
-0.0852487
-0.0799175
-0.0744509
-0.0688833
-0.0632542
-0.0576042
-0.0519773
-0.0464138
-0.0409343
-0.0355499
-0.0302954
-0.025222
-0.0203752
-0.0157688
-0.0113553
-0.00708138
-0.00294996
0.00106538
0.00497795
0.00880224
0.012554
0.0162485
0.0198985
0.0235134
0.027099
0.0306589
0.0341948
0.0377079
0.0411989
0.0446689
0.0481193
0.0515516
0.0549675
0.0583689
0.0617577
0.0651356
0.0685044
0.0718655
0.0752205
0.0785705
0.0819167
0.08526
0.0886011
0.0919405
0.0952789
0.0986165
0.101954
0.10529
0.108627
-0.219461
-0.217187
-0.214887
-0.212569
-0.210253
-0.207958
-0.20571
-0.203531
-0.20144
-0.199453
-0.197586
-0.195847
-0.194239
-0.192766
-0.191423
-0.190204
-0.189096
-0.188084
-0.187147
-0.186267
-0.185433
-0.184636
-0.183875
-0.183143
-0.182432
-0.18174
-0.181073
-0.180432
-0.179826
-0.179256
-0.178727
-0.178244
-0.177806
-0.177414
-0.177064
-0.176751
-0.176469
-0.176212
-0.175972
-0.175739
-0.175501
-0.175244
-0.17495
-0.174597
-0.174159
-0.173605
-0.172908
-0.172027
-0.170914
-0.169497
-0.167695
-0.165529
-0.163087
-0.160356
-0.157298
-0.153949
-0.150367
-0.146613
-0.142755
-0.138853
-0.134938
-0.130995
-0.126997
-0.122923
-0.118758
-0.114478
-0.110063
-0.10549
-0.100747
-0.0958399
-0.0907857
-0.0855823
-0.0802192
-0.0747108
-0.0690996
-0.0634339
-0.057756
-0.0520985
-0.0464854
-0.0409398
-0.0354972
-0.0302063
-0.0251277
-0.020325
-0.0158153
-0.0115164
-0.00734726
-0.0032008
0.000860516
0.00481303
0.00866392
0.0124311
0.0161337
0.0197883
0.0234069
0.0269971
0.0305627
0.0341056
0.0376264
0.0411256
0.0446037
0.0480618
0.0515013
0.0549237
0.0583309
0.0617247
0.065107
0.0684796
0.0718442
0.0752021
0.0785547
0.0819032
0.0852485
0.0885914
0.0919325
0.0952725
0.0986116
0.10195
0.105288
0.108626
-0.219855
-0.218345
-0.216746
-0.215045
-0.213251
-0.211389
-0.209489
-0.207586
-0.20571
-0.203887
-0.202144
-0.200501
-0.198968
-0.197545
-0.196235
-0.195025
-0.1939
-0.192846
-0.191834
-0.19083
-0.189822
-0.188817
-0.187821
-0.186835
-0.185857
-0.184893
-0.183959
-0.183066
-0.182229
-0.18146
-0.180766
-0.180151
-0.179611
-0.179142
-0.178738
-0.178389
-0.178085
-0.177816
-0.177575
-0.177352
-0.177135
-0.176906
-0.176644
-0.176322
-0.175903
-0.17535
-0.174631
-0.173696
-0.17249
-0.17094
-0.168973
-0.16661
-0.163919
-0.160917
-0.157643
-0.154125
-0.150397
-0.146524
-0.142567
-0.138572
-0.134553
-0.1305
-0.126394
-0.122223
-0.117982
-0.113652
-0.109218
-0.104655
-0.099938
-0.0950549
-0.0900249
-0.0848394
-0.0794803
-0.0739536
-0.0683072
-0.0625993
-0.0568745
-0.0511643
-0.0455001
-0.0399164
-0.0344511
-0.0291562
-0.0241087
-0.019412
-0.015115
-0.0111186
-0.00728024
-0.00312666
0.000937359
0.00487058
0.00869395
0.0124333
0.0161114
0.0197462
0.0233504
0.0269316
0.030493
0.0340355
0.0375588
0.0410623
0.0445458
0.0480096
0.0514548
0.0548827
0.0582949
0.0616932
0.0650796
0.0684558
0.0718235
0.0751842
0.0785393
0.0818899
0.0852372
0.0885819
0.0919247
0.0952662
0.0986067
0.101947
0.105286
0.108626
-0.220486
-0.220192
-0.219687
-0.21893
-0.217922
-0.216698
-0.215304
-0.213793
-0.212217
-0.210618
-0.209041
-0.207524
-0.206074
-0.20469
-0.20338
-0.202133
-0.200937
-0.199773
-0.19859
-0.197335
-0.196006