/*--------------------------------*- C++ -*----------------------------------*\
  =========                 |
  \\      /  F ield         | OpenFOAM: The Open Source CFD Toolbox
   \\    /   O peration     | Website:  https://openfoam.org
    \\  /    A nd           | Version:  6
     \\/     M anipulation  |
\*---------------------------------------------------------------------------*/
FoamFile
{
    version     2.0;
    format      ascii;
    class       volScalarField;
    location    "5000";
    object      T;
}
// * * * * * * * * * * * * * * * * * * * * * * * * * * * * * * * * * * * * * //

dimensions      [0 0 0 1 0 0 0];

internalField   nonuniform List<scalar> 
4800
(
552.496
552.388
552.28
552.171
552.061
551.951
551.84
551.729
551.619
551.51
551.402
551.298
551.198
551.105
551.019
550.942
550.872
550.81
550.754
550.704
550.659
550.618
550.58
550.544
550.511
550.479
550.448
550.418
550.388
550.358
550.328
550.297
550.265
550.232
550.197
550.162
550.125
550.087
550.046
550.004
549.959
549.912
549.862
549.809
549.754
549.696
549.636
549.571
549.504
549.432
549.356
549.276
549.192
549.105
549.013
548.918
548.819
548.717
548.613
548.507
548.399
548.289
548.177
548.062
547.944
547.824
547.699
547.571
547.438
547.301
547.158
547.009
546.855
546.695
546.528
546.354
546.173
545.985
545.789
545.582
545.364
545.131
544.868
544.553
544.594
544.557
544.484
544.393
544.293
544.186
544.075
543.961
543.845
543.728
543.61
543.492
543.373
543.254
543.134
543.014
542.894
542.774
542.654
542.534
542.414
542.294
542.173
542.053
541.933
541.813
541.692
541.572
541.452
541.332
541.211
541.091
540.971
540.851
540.73
540.61
552.496
552.388
552.279
552.169
552.059
551.949
551.838
551.727
551.616
551.507
551.4
551.297
551.198
551.106
551.021
550.945
550.876
550.814
550.759
550.709
550.664
550.623
550.585
550.55
550.517
550.485
550.454
550.424
550.394
550.364
550.333
550.302
550.27
550.237
550.203
550.167
550.13
550.092
550.051
550.008
549.962
549.915
549.864
549.811
549.756
549.698
549.636
549.572
549.503
549.431
549.355
549.275
549.192
549.104
549.012
548.917
548.819
548.718
548.614
548.508
548.4
548.29
548.178
548.063
547.945
547.825
547.7
547.571
547.438
547.3
547.157
547.009
546.854
546.694
546.527
546.353
546.172
545.983
545.785
545.579
545.368
545.156
544.947
544.761
544.673
544.592
544.502
544.404
544.299
544.19
544.078
543.963
543.847
543.729
543.611
543.493
543.373
543.254
543.134
543.014
542.894
542.774
542.654
542.534
542.414
542.294
542.173
542.053
541.933
541.813
541.692
541.572
541.452
541.332
541.211
541.091
540.971
540.851
540.73
540.61
552.495
552.386
552.276
552.166
552.056
551.945
551.833
551.722
551.612
551.504
551.397
551.295
551.198
551.108
551.026
550.951
550.883
550.822
550.768
550.719
550.674
550.634
550.596
550.561
550.528
550.496
550.465
550.435
550.405
550.375
550.345
550.313
550.281
550.248
550.214
550.178
550.14
550.101
550.06
550.016
549.97
549.922
549.871
549.817
549.761
549.701
549.638
549.573
549.503
549.431
549.354
549.274
549.19
549.102
549.011
548.917
548.82
548.719
548.617
548.511
548.404
548.294
548.181
548.066
547.949
547.827
547.703
547.574
547.44
547.302
547.158
547.009
546.855
546.694
546.527
546.353
546.172
545.983
545.787
545.588
545.391
545.201
545.024
544.869
544.745
544.636
544.529
544.421
544.311
544.198
544.083
543.967
543.85
543.732
543.613
543.494
543.374
543.255
543.135
543.015
542.895
542.775
542.655
542.534
542.414
542.294
542.174
542.053
541.933
541.813
541.693
541.572
541.452
541.332
541.211
541.091
540.971
540.851
540.73
540.61
552.495
552.384
552.274
552.163
552.051
551.94
551.829
551.718
551.608
551.501
551.395
551.295
551.2
551.113
551.032
550.96
550.894
550.834
550.781
550.733
550.689
550.648
550.611
550.576
550.544
550.512
550.482
550.452
550.422
550.392
550.361
550.33
550.298
550.265
550.23
550.194
550.156
550.116
550.074
550.03
549.983
549.934
549.882
549.828
549.77
549.709
549.645
549.577
549.506
549.432
549.355
549.274
549.19
549.102
549.011
548.918
548.821
548.722
548.62
548.516
548.409
548.299
548.187
548.072
547.954
547.833
547.708
547.578
547.444
547.306
547.162
547.012
546.857
546.696
546.529
546.356
546.176
545.991
545.802
545.612
545.428
545.252
545.089
544.941
544.803
544.678
544.559
544.442
544.325
544.208
544.091
543.972
543.854
543.735
543.615
543.496
543.376
543.256
543.136
543.016
542.895
542.775
542.655
542.535
542.414
542.294
542.174
542.054
541.933
541.813
541.693
541.572
541.452
541.332
541.212
541.091
540.971
540.851
540.73
540.61
552.494
552.383
552.271
552.159
552.047
551.936
551.825
551.714
551.605
551.499
551.396
551.297
551.205
551.12
551.042
550.971
550.907
550.849
550.797
550.749
550.706
550.667
550.63
550.595
550.563
550.532
550.502
550.472
550.443
550.413
550.383
550.352
550.32
550.287
550.252
550.216
550.178
550.137
550.095
550.05
550.003
549.953
549.901
549.845
549.786
549.723
549.657
549.588
549.515
549.439
549.361
549.279
549.194
549.106
549.016
548.922
548.826
548.728
548.627
548.523
548.417
548.308
548.196
548.081
547.963
547.841
547.716
547.586
547.451
547.311
547.167
547.017
546.861
546.7
546.534
546.362
546.185
546.004
545.821
545.64
545.466
545.3
545.144
544.994
544.85
544.715
544.587
544.463
544.34
544.219
544.099
543.979
543.858
543.738
543.618
543.498
543.378
543.257
543.137
543.017
542.896
542.776
542.655
542.535
542.415
542.294
542.174
542.054
541.933
541.813
541.693
541.573
541.452
541.332
541.212
541.091
540.971
540.851
540.73
540.61
552.494
552.381
552.268
552.155
552.043
551.931
551.82
551.71
551.602
551.497
551.396
551.3
551.211
551.129
551.053
550.984
550.922
550.866
550.815
550.769
550.726
550.687
550.651
550.617
550.586
550.555
550.525
550.496
550.467
550.438
550.408
550.378
550.346
550.313
550.279
550.242
550.204
550.164
550.122
550.077
550.029
549.979
549.926
549.869
549.809
549.745
549.677
549.606
549.532
549.454
549.374
549.291
549.205
549.117
549.026
548.933
548.838
548.739
548.638
548.535
548.429
548.32
548.209
548.094
547.975
547.853
547.726
547.595
547.459
547.319
547.174
547.023
546.868
546.707
546.542
546.372
546.199
546.024
545.849
545.676
545.508
545.346
545.19
545.037
544.887
544.746
544.612
544.482
544.355
544.231
544.107
543.985
543.863
543.742
543.621
543.5
543.38
543.259
543.138
543.018
542.897
542.777
542.656
542.536
542.415
542.295
542.174
542.054
541.934
541.813
541.693
541.573
541.452
541.332
541.212
541.091
540.971
540.851
540.73
540.61
552.493
552.379
552.265
552.152
552.038
551.926
551.815
551.706
551.6
551.496
551.398
551.305
551.219
551.139
551.066
551
550.939
550.885
550.835
550.789
550.748
550.71
550.674
550.641
550.61
550.58
550.551
550.523
550.495
550.466
550.437
550.407
550.376
550.344
550.31
550.274
550.236
550.196
550.154
550.109
550.062
550.011
549.958
549.9
549.839
549.774
549.705
549.633
549.557
549.478
549.397
549.313
549.226
549.137
549.046
548.952
548.856
548.758
548.657
548.554
548.447
548.338
548.226
548.11
547.991
547.867
547.739
547.606
547.47
547.328
547.182
547.032
546.877
546.717
546.553
546.386
546.217
546.046
545.876
545.708
545.544
545.384
545.226
545.07
544.917
544.772
544.633
544.499
544.369
544.241
544.116
543.992
543.869
543.746
543.624
543.503
543.382
543.261
543.14
543.019
542.898
542.778
542.657
542.536
542.416
542.295
542.175
542.054
541.934
541.814
541.693
541.573
541.453
541.332
541.212
541.092
540.971
540.851
540.731
540.61
552.493
552.378
552.263
552.148
552.034
551.922
551.811
551.703
551.598
551.497
551.401
551.311
551.228
551.151
551.081
551.016
550.958
550.904
550.856
550.811
550.771
550.734
550.699
550.667
550.636
550.607
550.579
550.551
550.524
550.496
550.468
550.439
550.409
550.377
550.344
550.309
550.272
550.233
550.191
550.147
550.1
550.05
549.996
549.938
549.877
549.811
549.742
549.669
549.593
549.513
549.431
549.345
549.257
549.168
549.076
548.982
548.885
548.786
548.684
548.58
548.472
548.362
548.249
548.131
548.01
547.884
547.754
547.62
547.482
547.34
547.193
547.042
546.887
546.729
546.566
546.401
546.235
546.067
545.901
545.736
545.573
545.413
545.254
545.096
544.941
544.793
544.65
544.513
544.38
544.25
544.123
543.998
543.873
543.75
543.628
543.506
543.384
543.263
543.141
543.02
542.899
542.779
542.658
542.537
542.416
542.296
542.175
542.055
541.934
541.814
541.694
541.573
541.453
541.332
541.212
541.092
540.971
540.851
540.731
540.61
552.492
552.376
552.26
552.146
552.032
551.919
551.808
551.7
551.597
551.498
551.405
551.319
551.238
551.164
551.096
551.034
550.977
550.925
550.877
550.834
550.794
550.758
550.724
550.693
550.663
550.635
550.607
550.58
550.554
550.527
550.5
550.473
550.443
550.413
550.381
550.347
550.311
550.273
550.233
550.19
550.144
550.094
550.041
549.984
549.922
549.857
549.788
549.715
549.639
549.559
549.476
549.389
549.301
549.211
549.118
549.022
548.923
548.823
548.719
548.614
548.505
548.393
548.277
548.158
548.034
547.906
547.774
547.638
547.498
547.354
547.207
547.056
546.901
546.743
546.582
546.418
546.253
546.088
545.923
545.76
545.599
545.438
545.277
545.117
544.959
544.809
544.664
544.524
544.389
544.258
544.129
544.003
543.878
543.754
543.631
543.508
543.386
543.265
543.143
543.022
542.901
542.78
542.659
542.538
542.417
542.297
542.176
542.055
541.935
541.814
541.694
541.573
541.453
541.333
541.212
541.092
540.971
540.851
540.731
540.61
552.491
552.374
552.258
552.142
552.029
551.916
551.807
551.7
551.598
551.502
551.412
551.327
551.25
551.178
551.112
551.051
550.996
550.945
550.899
550.857
550.818
550.782
550.749
550.719
550.69
550.662
550.636
550.61
550.584
550.559
550.533
550.507
550.479
550.45
550.419
550.387
550.353
550.317
550.278
550.237
550.192
550.144
550.092
550.035
549.975
549.911
549.843
549.771
549.695
549.615
549.532
549.445
549.356
549.265
549.17
549.072
548.972
548.869
548.764
548.657
548.546
548.432
548.314
548.192
548.066
547.935
547.8
547.662
547.52
547.374
547.225
547.073
546.918
546.76
546.6
546.437
546.273
546.109
545.945
545.782
545.621
545.459
545.296
545.132
544.972
544.819
544.673
544.532
544.396
544.264
544.135
544.007
543.882
543.758
543.634
543.511
543.389
543.267
543.145
543.024
542.902
542.781
542.66
542.539
542.418
542.297
542.177
542.056
541.935
541.815
541.694
541.574
541.453
541.333
541.212
541.092
540.972
540.851
540.731
540.61
552.491
552.373
552.256
552.14
552.026
551.915
551.806
551.701
551.601
551.507
551.419
551.337
551.262
551.192
551.128
551.069
551.015
550.965
550.92
550.879
550.841
550.806
550.774
550.744
550.716
550.689
550.664
550.639
550.615
550.59
550.566
550.541
550.515
550.487
550.458
550.428
550.396
550.362
550.326
550.287
550.244
550.198
550.147
550.093
550.035
549.972
549.906
549.835
549.76
549.681
549.598
549.511
549.422
549.329
549.232
549.133
549.031
548.926
548.819
548.709
548.596
548.479
548.358
548.233
548.104
547.97
547.833
547.692
547.547
547.399
547.249
547.096
546.94
546.781
546.621
546.458
546.294
546.129
545.965
545.802
545.639
545.476
545.31
545.143
544.977
544.824
544.678
544.537
544.4
544.268
544.139
544.011
543.886
543.761
543.637
543.514
543.392
543.269
543.147
543.025
542.904
542.782
542.661
542.54
542.419
542.298
542.177
542.056
541.936
541.815
541.695
541.574
541.454
541.333
541.213
541.092
540.972
540.851
540.731
540.61
552.491
552.373
552.256
552.14
552.025
551.914
551.807
551.704
551.606
551.514
551.428
551.348
551.274
551.206
551.143
551.086
551.033
550.985
550.94
550.9
550.863
550.828
550.797
550.768
550.74
550.715
550.69
550.667
550.644
550.621
550.598
550.575
550.55
550.525
550.498
550.47
550.441
550.409
550.375
550.339
550.299
550.255
550.207
550.156
550.1
550.04
549.976
549.907
549.834
549.757
549.674
549.587
549.497
549.402
549.304
549.203
549.099
548.993
548.883
548.77
548.654
548.534
548.41
548.282
548.15
548.013
547.873
547.729
547.582
547.432
547.279
547.124
546.967
546.807
546.645
546.481
546.316
546.15
545.985
545.82
545.655
545.488
545.317
545.145
544.968
544.823
544.678
544.537
544.402
544.27
544.142
544.015
543.889
543.765
543.641
543.517
543.394
543.272
543.149
543.027
542.905
542.784
542.662
542.541
542.42
542.299
542.178
542.057
541.936
541.816
541.695
541.575
541.454
541.333
541.213
541.092
540.972
540.851
540.731
540.61
552.491
552.372
552.255
552.139
552.026
551.916
551.809
551.708
551.612
551.521
551.437
551.359
551.287
551.22
551.158
551.102
551.05
551.003
550.959
550.919
550.883
550.849
550.819
550.79
550.764
550.739
550.716
550.693
550.672
550.651
550.629
550.608
550.585
550.562
550.538
550.513
550.486
550.457
550.426
550.393
550.356
550.315
550.271
550.223
550.17
550.114
550.053
549.987
549.916
549.84
549.759
549.672
549.581
549.485
549.386
549.283
549.177
549.068
548.956
548.84
548.721
548.598
548.47
548.339
548.204
548.064
547.921
547.774
547.625
547.472
547.317
547.159
547
546.838
546.673
546.508
546.34
546.172
546.004
545.836
545.666
545.495
545.322
545.148
544.977
544.82
544.673
544.535
544.401
544.272
544.144
544.018
543.893
543.768
543.644
543.521
543.397
543.274
543.152
543.029
542.907
542.785
542.664
542.542
542.421
542.3
542.179
542.058
541.937
541.816
541.696
541.575
541.454
541.334
541.213
541.093
540.972
540.851
540.731
540.61
552.491
552.372
552.254
552.139
552.026
551.917
551.812
551.712
551.618
551.529
551.446
551.369
551.298
551.233
551.172
551.117
551.066
551.019
550.977
550.937
550.901
550.869
550.839
550.811
550.786
550.762
550.74
550.719
550.699
550.679
550.659
550.64
550.62
550.599
550.577
550.555
550.531
550.506
550.478
550.448
550.415
550.378
550.337
550.293
550.245
550.192
550.134
550.072
550.005
549.932
549.852
549.765
549.673
549.576
549.475
549.371
549.264
549.152
549.037
548.918
548.795
548.668
548.538
548.403
548.265
548.122
547.976
547.827
547.675
547.52
547.362
547.201
547.038
546.873
546.706
546.536
546.366
546.195
546.022
545.849
545.675
545.499
545.32
545.141
544.967
544.805
544.661
544.527
544.399
544.272
544.147
544.022
543.897
543.772
543.648
543.524
543.401
543.278
543.155
543.032
542.909
542.787
542.665
542.544
542.422
542.301
542.18
542.059
541.938
541.817
541.696
541.575
541.455
541.334
541.213
541.093
540.972
540.852
540.731
540.61
552.49
552.372
552.254
552.139
552.027
551.918
551.815
551.716
551.623
551.536
551.455
551.38
551.31
551.245
551.185
551.131
551.08
551.034
550.992
550.954
550.919
550.887
550.858
550.831
550.806
550.784
550.763
550.743
550.724
550.706
550.689
550.671
550.654
550.635
550.617
550.597
550.577
550.554
550.53
550.504
550.474
550.442
550.405
550.365
550.321
550.273
550.22
550.162
550.099
550.029
549.95
549.864
549.771
549.673
549.572
549.466
549.357
549.243
549.125
549.002
548.876
548.745
548.611
548.474
548.332
548.187
548.039
547.887
547.732
547.574
547.413
547.25
547.083
546.914
546.742
546.569
546.394
546.218
546.041
545.862
545.68
545.496
545.31
545.123
544.941
544.773
544.639
544.517
544.396
544.273
544.15
544.026
543.902
543.777
543.653
543.529
543.405
543.281
543.157
543.034
542.912
542.789
542.667
542.545
542.423
542.302
542.181
542.059
541.938
541.817
541.697
541.576
541.455
541.334
541.214
541.093
540.972
540.852
540.731
540.61
552.49
552.372
552.254
552.14
552.028
551.921
551.818
551.721
551.629
551.543
551.463
551.389
551.32
551.256
551.197
551.143
551.094
551.049
551.007
550.97
550.935
550.904
550.876
550.85
550.827
550.805
550.785
550.767
550.75
550.734
550.718
550.703
550.687
550.672
550.656
550.639
550.622
550.603
550.583
550.56
550.534
550.506
550.474
550.439
550.4
550.356
550.308
550.255
550.196
550.129
550.052
549.966
549.872
549.774
549.672
549.566
549.456
549.34
549.218
549.092
548.961
548.827
548.69
548.55
548.406
548.258
548.108
547.954
547.796
547.636
547.472
547.304
547.133
546.96
546.783
546.605
546.426
546.245
546.062
545.878
545.69
545.497
545.301
545.1
544.897
544.706
544.607
544.506
544.395
544.277
544.156
544.032
543.908
543.783
543.658
543.534
543.409
543.285
543.161
543.037
542.914
542.791
542.669
542.546
542.425
542.303
542.181
542.06
541.939
541.818
541.697
541.576
541.455
541.335
541.214
541.093
540.972
540.852
540.731
540.61
552.49
552.372
552.255
552.141
552.03
551.923
551.822
551.726
551.635
551.551
551.472
551.398
551.33
551.267
551.209
551.156
551.107
551.063
551.022
550.986
550.952
550.922
550.895
550.87
550.848
550.828
550.809
550.793
550.777
550.762
550.748
550.735
550.722
550.708
550.695
550.681
550.667
550.651
550.634
550.615
550.594
550.57
550.543
550.512
550.478
550.438
550.395
550.346
550.291
550.228
550.153
550.069
549.976
549.878
549.776
549.67
549.558
549.44
549.314
549.184
549.049
548.912
548.772
548.63
548.484
548.334
548.182
548.026
547.866
547.702
547.535
547.363
547.188
547.01
546.829
546.646
546.461
546.275
546.088
545.898
545.706
545.509
545.306
545.09
544.842
544.543
544.574
544.504
544.401
544.286
544.165
544.041
543.916
543.79
543.664
543.539
543.414
543.289
543.164
543.04
542.917
542.793
542.671
542.548
542.426
542.304
542.182
542.061
541.94
541.819
541.698
541.577
541.456
541.335
541.214
541.093
540.973
540.852
540.731
540.61
552.491
552.372
552.256
552.142
552.032
551.927
551.827
551.732
551.642
551.559
551.481
551.409
551.341
551.279
551.222
551.17
551.122
551.079
551.04
551.004
550.972
550.943
550.917
550.894
550.873
550.854
550.837
550.821
550.807
550.793
550.781
550.769
550.758
550.746
550.735
550.724
550.712
550.699
550.686
550.67
550.652
550.632
550.609
550.583
550.553
550.518
550.479
550.434
550.384
550.324
550.252
550.169
550.077
549.981
549.881
549.775
549.661
549.54
549.411
549.276
549.138
548.998
548.856
548.712
548.564
548.414
548.259
548.101
547.939
547.772
547.601
547.426
547.246
547.064
546.878
546.689
546.499
546.307
546.114
545.919
545.723
545.526
545.326
545.122
544.917
544.733
544.636
544.534
544.421
544.301
544.177
544.051
543.925
543.798
543.671
543.545
543.419
543.293
543.168
543.043
542.919
542.796
542.673
542.55
542.427
542.305
542.184
542.062
541.941
541.819
541.698
541.577
541.456
541.335
541.214
541.094
540.973
540.852
540.731
540.61
552.491
552.374
552.259
552.147
552.038
551.934
551.835
551.741
551.653
551.571
551.494
551.423
551.357
551.296
551.24
551.189
551.143
551.101
551.063
551.029
550.998
550.971
550.946
550.924
550.904
550.886
550.87
550.855
550.841
550.829
550.817
550.807
550.796
550.786
550.777
550.767
550.757
550.747
550.736
550.723
550.709
550.692
550.673
550.651
550.625
550.594
550.559
550.518
550.471
550.414
550.345
550.264
550.175
550.082
549.982
549.875
549.759
549.634
549.501
549.363
549.223
549.082
548.939
548.793
548.645
548.493
548.337
548.177
548.012
547.843
547.668
547.489
547.305
547.118
546.926
546.733
546.537
546.34
546.143
545.946
545.749
545.554
545.361
545.171
544.991
544.832
544.697
544.572
544.447
544.32
544.192
544.063
543.935
543.806
543.678
543.551
543.424
543.297
543.172
543.047
542.922
542.798
542.675
542.551
542.429
542.307
542.185
542.063
541.941
541.82
541.699
541.578
541.457
541.336
541.215
541.094
540.973
540.852
540.731
540.61
552.493
552.379
552.266
552.156
552.049
551.947
551.85
551.758
551.672
551.591
551.515
551.446
551.381
551.322
551.268
551.218
551.174
551.133
551.097
551.064
551.035
551.009
550.985
550.964
550.945
550.928
550.912
550.897
550.884
550.871
550.86
550.849
550.839
550.83
550.821
550.812
550.803
550.794
550.785
550.774
550.762
550.749
550.733
550.714
550.691
550.664
550.632
550.595
550.551
550.497
550.43
550.352
550.266
550.174
550.075
549.966
549.847
549.719
549.583
549.443
549.301
549.159
549.016
548.871
548.722
548.569
548.412
548.25
548.082
547.91
547.732
547.55
547.362
547.17
546.974
546.776
546.576
546.376
546.176
545.978
545.783
545.591
545.403
545.223
545.052
544.895
544.747
544.608
544.473
544.34
544.207
544.076
543.945
543.815
543.685
543.557
543.429
543.302
543.176
543.05
542.925
542.8
542.677
542.553
542.43
542.308
542.186
542.064
541.942
541.821
541.699
541.578
541.457
541.336
541.215
541.094
540.973
540.852
540.731
540.61
552.496
552.387
552.279
552.174
552.071
551.972
551.878
551.789
551.704
551.625
551.552
551.484
551.421
551.364
551.312
551.264
551.221
551.183
551.148
551.117
551.089
551.063
551.04
551.019
551
550.982
550.965
550.95
550.936
550.922
550.91
550.898
550.887
550.877
550.867
550.859
550.85
550.842
550.833
550.824
550.813
550.802
550.788
550.772
550.752
550.728
550.699
550.664
550.623
550.571
550.507
550.43
550.346
550.255
550.154
550.042
549.919
549.788
549.65
549.509
549.368
549.226
549.083
548.938
548.789
548.636
548.477
548.313
548.143
547.968
547.788
547.602
547.411
547.215
547.016
546.814
546.611
546.409
546.208
546.01
545.816
545.626
545.442
545.266
545.098
544.938
544.784
544.637
544.495
544.357
544.221
544.086
543.954
543.822
543.692
543.562
543.434
543.306
543.179
543.053
542.928
542.803
542.679
542.555
542.432
542.309
542.187
542.065
541.943
541.821
541.7
541.579
541.458
541.336
541.215
541.094
540.973
540.852
540.731
540.61
552.501
552.402
552.303
552.206
552.11
552.018
551.928
551.843
551.762
551.686
551.615
551.549
551.489
551.434
551.383
551.338
551.296
551.259
551.225
551.195
551.166
551.14
551.116
551.094
551.073
551.053
551.034
551.016
550.999
550.982
550.967
550.953
550.94
550.928
550.918
550.908
550.899
550.89
550.881
550.873
550.863
550.853
550.841
550.827
550.809
550.788
550.761
550.728
550.688
550.638
550.574
550.498
550.413
550.32
550.215
550.098
549.972
549.838
549.699
549.558
549.417
549.276
549.132
548.986
548.836
548.682
548.523
548.357
548.186
548.009
547.827
547.639
547.446
547.248
547.046
546.842
546.637
546.433
546.231
546.033
545.838
545.647
545.463
545.288
545.121
544.961
544.806
544.656
544.511
544.369
544.231
544.095
543.961
543.828
543.697
543.567
543.438
543.31
543.183
543.056
542.93
542.805
542.68
542.557
542.433
542.31
542.188
542.066
541.944
541.822
541.701
541.579
541.458
541.337
541.216
541.095
540.974
540.853
540.732
540.611
552.509
552.427
552.345
552.261
552.178
552.095
552.014
551.935
551.859
551.788
551.72
551.657
551.599
551.546
551.497
551.453
551.413
551.376
551.342
551.309
551.279
551.25
551.222
551.195
551.169
551.143
551.119
551.095
551.073
551.052
551.033
551.015
550.999
550.985
550.972
550.961
550.951
550.941
550.933
550.924
550.916
550.906
550.896
550.883
550.867
550.846
550.821
550.789
550.748
550.696
550.63
550.552
550.463
550.363
550.252
550.131
550.001
549.864
549.724
549.583
549.44
549.297
549.152
549.004
548.853
548.697
548.537
548.371
548.2
548.022
547.839
547.65
547.456
547.256
547.053
546.848
546.642
546.437
546.233
546.032
545.835
545.644
545.46
545.286
545.122
544.967
544.816
544.665
544.518
544.375
544.236
544.099
543.965
543.832
543.701
543.571
543.442
543.313
543.185
543.059
542.932
542.807
542.682
542.558
542.435
542.312
542.189
542.067
541.945
541.823
541.701
541.58
541.458
541.337
541.216
541.095
540.974
540.853
540.732
540.611
552.524
552.47
552.413
552.352
552.287
552.22
552.152
552.083
552.015
551.95
551.887
551.827
551.772
551.72
551.673
551.629
551.588
551.55
551.513
551.476
551.44
551.403
551.366
551.33
551.294
551.259
551.225
551.192
551.161
551.133
551.108
551.085
551.066
551.048
551.034
551.021
551.01
551
550.991
550.983
550.975
550.967
550.958
550.946
550.93
550.91
550.884
550.849
550.805
550.748
550.676
550.59
550.492
550.383
550.264
550.136
550.001
549.86
549.716
549.571
549.425
549.278
549.129
548.977
548.823
548.666
548.505
548.34
548.169
547.992
547.81
547.622
547.428
547.227
547.023
546.816
546.609
546.402
546.197
545.994
545.796
545.605
545.422
545.252
545.096
544.952
544.813
544.662
544.515
544.373
544.234
544.099
543.966
543.834
543.703
543.573
543.444
543.316
543.188
543.061
542.935
542.809
542.684
542.56
542.436
542.313
542.19
542.067
541.945
541.823
541.702
541.58
541.459
541.337
541.216
541.095
540.974
540.853
540.732
540.611
552.547
552.537
552.52
552.493
552.457
552.414
552.363
552.309
552.252
552.195
552.138
552.083
552.03
551.98
551.933
551.888
551.845
551.803
551.76
551.714
551.666
551.616
551.565
551.513
551.461
551.41
551.36
551.313
551.27
551.232
551.198
551.169
551.145
551.125
551.108
551.094
551.082
551.072
551.063
551.056
551.049
551.041
551.033
551.021
551.006
550.983
550.953
550.912
550.859
550.792
550.708
550.609
550.496
550.372
550.241
550.105
549.963
549.816
549.665
549.513
549.36
549.206
549.051
548.893
548.735
548.574
548.412
548.247
548.079
547.904
547.725
547.539
547.345
547.144
546.937
546.727
546.517
546.308
546.101
545.9
545.705
545.517
545.34
545.178
545.035
544.909
544.802
544.644
544.499
544.361
544.226
544.094
543.963
543.833
543.703
543.574
543.446
543.317
543.19
543.063
542.936
542.811
542.685
542.561
542.437
542.314
542.191
542.068
541.946
541.824
541.702
541.581
541.459
541.338
541.217
541.095
540.974
540.853
540.732
540.611
552.583
552.643
552.686
552.709
552.712
552.699
552.673
552.636
552.592
552.544
552.494
552.444
552.394
552.345
552.297
552.249
552.201
552.153
552.102
552.044
551.98
551.912
551.841
551.768
551.695
551.622
551.553
551.487
551.427
551.374
551.329
551.291
551.259
551.232
551.21
551.192
551.178
551.165
551.155
551.145
551.137
551.13
551.121
551.109
551.091
551.063
551.024
550.971
550.902
550.817
550.714
550.596
550.464
550.321
550.176
550.03
549.878
549.722
549.561
549.399
549.236
549.074
548.912
548.748
548.583
548.416
548.249
548.083
547.917
547.746
547.57
547.385
547.189
546.984
546.772
546.557
546.341
546.127
545.92
545.723
545.537
545.361
545.196
545.049
544.927
544.82
544.716
544.593
544.467
544.34
544.212
544.084
543.957
543.829
543.702
543.574
543.446
543.318
543.191
543.064
542.938
542.812
542.687
542.562
542.438
542.315
542.192
542.069
541.947
541.825
541.703
541.581
541.46
541.338
541.217
541.096
540.974
540.853
540.732
540.611
552.641
552.809
552.942
553.033
553.086
553.107
553.103
553.082
553.049
553.007
552.962
552.916
552.867
552.817
552.766
552.714
552.663
552.61
552.552
552.483
552.406
552.323
552.233
552.14
552.046
551.953
551.864
551.778
551.697
551.626
551.564
551.51
551.462
551.418
551.379
551.345
551.316
551.291
551.269
551.25
551.233
551.219
551.205
551.189
551.165
551.128
551.075
551.002
550.91
550.799
550.672
550.532
550.378
550.216
550.057
549.904
549.744
549.581
549.415
549.242
549.068
548.901
548.735
548.565
548.391
548.208
548.028
547.856
547.689
547.518
547.347
547.153
546.941
546.726
546.505
546.273
546.045
545.822
545.615
545.428
545.261
545.106
544.96
544.843
544.756
544.686
544.615
544.528
544.424
544.311
544.192
544.071
543.948
543.824
543.698
543.572
543.446
543.319
543.192
543.065
542.939
542.813
542.688
542.563
542.439
542.316
542.192
542.07
541.947
541.825
541.703
541.582
541.46
541.338
541.217
541.096
540.974
540.853
540.732
540.611
552.74
553.084
553.348
553.525
553.627
553.672
553.677
553.655
553.618
553.571
553.52
553.468
553.414
553.358
553.301
553.248
553.198
553.151
553.098
553.037
552.967
552.89
552.8
552.703
552.605
552.51
552.417
552.321
552.222
552.127
552.039
551.954
551.87
551.783
551.696
551.613
551.538
551.47
551.41
551.355
551.308
551.267
551.234
551.206
551.172
551.124
551.053
550.953
550.831
550.699
550.553
550.39
550.22
550.05
549.887
549.732
549.573
549.419
549.273
549.095
548.904
548.741
548.583
548.407
548.216
547.996
547.782
547.593
547.422
547.241
547.071
546.841
546.569
546.346
546.123
545.845
545.588
545.345
545.132
544.966
544.832
544.709
544.596
544.53
544.507
544.502
544.491
544.459
544.377
544.278
544.17
544.056
543.938
543.817
543.695
543.57
543.445
543.319
543.192
543.066
542.94
542.814
542.689
542.564
542.44
542.316
542.193
542.07
541.948
541.826
541.704
541.582
541.46
541.339
541.217
541.096
540.975
540.853
540.732
540.611
552.913
553.553
554.011
554.286
554.416
554.444
554.41
554.343
554.263
554.178
554.093
554.014
553.936
553.861
553.795
553.745
553.714
553.697
553.688
553.682
553.675
553.665
553.623
553.568
553.512
553.468
553.421
553.346
553.24
553.115
552.98
552.838
552.688
552.516
552.327
552.129
551.936
551.763
551.606
551.46
551.328
551.208
551.111
551.046
550.996
550.945
550.859
550.731
550.585
550.455
550.319
550.149
549.979
549.83
549.682
549.53
549.382
549.259
549.152
548.924
548.708
548.593
548.467
548.267
548.043
547.761
547.502
547.289
547.091
546.858
546.669
546.386
546.078
545.812
545.555
545.209
544.911
544.696
544.499
544.29
544.187
544.105
544.038
544.058
544.149
544.253
544.339
544.418
544.333
544.244
544.146
544.04
543.928
543.811
543.69
543.568
543.444
543.318
543.193
543.067
542.941
542.815
542.69
542.565
542.441
542.317
542.194
542.071
541.948
541.826
541.704
541.582
541.461
541.339
541.218
541.096
540.975
540.853
540.732
540.611
553.234
554.377
555.115
555.474
555.567
555.487
555.314
555.108
554.911
554.731
554.555
554.408
554.266
554.145
554.059
554.029
554.056
554.119
554.226
554.371
554.552
554.731
554.82
554.89
554.953
555.068
555.165
555.17
555.083
554.921
554.701
554.457
554.218
553.931
553.575
553.161
552.737
552.354
551.999
551.647
551.323
550.995
550.703
550.536
550.449
550.408
550.321
550.174
550.031
549.901
549.769
549.648
549.522
549.46
549.387
549.305
549.179
549.11
549.137
548.902
548.628
548.575
548.522
548.261
548.036
547.668
547.34
547.065
546.765
546.396
546.12
545.774
545.462
545.153
544.743
544.354
544.016
543.841
543.774
543.634
543.504
543.441
543.384
543.52
543.742
543.939
544.141
544.34
544.278
544.208
544.123
544.025
543.918
543.804
543.686
543.565
543.442
543.318
543.193
543.067
542.941
542.816
542.69
542.566
542.441
542.318
542.194
542.072
541.949
541.827
541.705
541.583
541.461
541.339
541.218
541.097
540.975
540.854
540.732
540.611
553.807
555.755
556.858
557.243
557.195
556.865
556.392
555.898
555.479
555.16
554.797
554.54
554.255
554.043
553.917
553.946
554.13
554.347
554.671
555.079
555.64
556.199
556.523
556.861
557.095
557.524
557.899
558.06
558.006
557.832
557.493
557.061
556.766
556.425
555.9
555.178
554.378
553.662
552.974
552.228
551.599
550.809
549.943
549.455
549.217
549.103
549.02
548.951
548.866
548.792
548.78
548.818
548.929
548.991
548.953
548.986
548.978
549.04
549.239
549.158
548.877
548.678
548.636
548.451
548.285
547.899
547.494
547.056
546.565
545.933
545.505
545.08
544.707
544.295
543.694
543.308
542.976
542.829
543.126
543.274
543.016
542.811
542.867
543.078
543.214
543.627
543.9
544.212
544.217
544.175
544.104
544.013
543.91
543.8
543.683
543.564
543.441
543.318
543.193
543.067
542.942
542.816
542.691
542.566
542.442
542.318
542.195
542.072
541.949
541.827
541.705
541.583