0 	3.64585e-16 	0 	-4.63328e-16
0.010101 	5.15636e-16 	0 	-8.78533e-16
0.020202 	9.55302e-17 	0 	-9.18586e-16
0.030303 	-3.98357e-15 	0 	-7.06524e-16
0.040404 	-6.45693e-14 	0 	3.04372e-15
0.0505051 	-1.09821e-12 	0 	6.58811e-14
0.0606061 	-1.99212e-11 	0 	1.19433e-12
0.0707071 	-4.53218e-10 	0 	-7.03397e-13
