/*--------------------------------*- C++ -*----------------------------------*\
  =========                 |
  \\      /  F ield         | OpenFOAM: The Open Source CFD Toolbox
   \\    /   O peration     | Website:  https://openfoam.org
    \\  /    A nd           | Version:  6
     \\/     M anipulation  |
\*---------------------------------------------------------------------------*/
FoamFile
{
    version     2.0;
    format      ascii;
    class       surfaceScalarField;
    location    "10000";
    object      phi;
}
// * * * * * * * * * * * * * * * * * * * * * * * * * * * * * * * * * * * * * //

dimensions      [0 3 -1 0 0 0 0];

internalField   nonuniform List<scalar> 
9440
(
5.40271e-13
-5.40272e-13
1.05642e-12
-5.15728e-13
1.55154e-12
-4.94792e-13
2.00234e-12
-4.50478e-13
2.3978e-12
-3.95133e-13
2.73438e-12
-3.36274e-13
3.01172e-12
-2.77026e-13
3.23178e-12
-2.19743e-13
3.39844e-12
-1.66354e-13
3.5168e-12
-1.18065e-13
3.5925e-12
-7.53935e-14
3.63113e-12
-3.83447e-14
3.63619e-12
-4.76689e-15
3.61392e-12
2.25521e-14
3.57e-12
4.41876e-14
3.5079e-12
6.23693e-14
3.42862e-12
7.95472e-14
3.33815e-12
9.07265e-14
3.23878e-12
9.96107e-14
3.13385e-12
1.05178e-13
3.0215e-12
1.12572e-13
2.90689e-12
1.1484e-13
2.79195e-12
1.15142e-13
2.67701e-12
1.15147e-13
2.56398e-12
1.13225e-13
2.45301e-12
1.11146e-13
2.3447e-12
1.08483e-13
2.24038e-12
1.04484e-13
2.14024e-12
1.00288e-13
2.0442e-12
9.61786e-14
1.95253e-12
9.18021e-14
1.86531e-12
8.73334e-14
1.78248e-12
8.29329e-14
1.70394e-12
7.86326e-14
1.62975e-12
7.42619e-14
1.55943e-12
7.03837e-14
1.49295e-12
6.65394e-14
1.4298e-12
6.31801e-14
1.36988e-12
5.99525e-14
1.3129e-12
5.69966e-14
1.25857e-12
5.43238e-14
1.2067e-12
5.18554e-14
1.15705e-12
4.96266e-14
1.10958e-12
4.74341e-14
1.06378e-12
4.5744e-14
1.01975e-12
4.39685e-14
9.76902e-13
4.27701e-14
9.35574e-13
4.12362e-14
8.95488e-13
3.99828e-14
8.56636e-13
3.87378e-14
8.18962e-13
3.7546e-14
7.82199e-13
3.66259e-14
7.46314e-13
3.57353e-14
7.11371e-13
3.47821e-14
6.77246e-13
3.39517e-14
6.44005e-13
3.30604e-14
6.11519e-13
3.22922e-14
5.79903e-13
3.1412e-14
5.48857e-13
3.08317e-14
5.18553e-13
3.00831e-14
4.8899e-13
2.93301e-14
4.60187e-13
2.85622e-14
4.32053e-13
2.78855e-14
4.04564e-13
2.72332e-14
3.77726e-13
2.65739e-14
3.51576e-13
2.58769e-14
3.2604e-13
2.52576e-14
3.01135e-13
2.4623e-14
2.76782e-13
2.4061e-14
2.53215e-13
2.3271e-14
2.30455e-13
2.24581e-14
2.08595e-13
2.15543e-14
1.88068e-13
2.02177e-14
1.69784e-13
1.79721e-14
1.57099e-13
1.23684e-14
1.6067e-13
-3.89102e-15
2.14713e-13
-5.43644e-14
1.18513e-13
9.58765e-14
2.00848e-16
1.17988e-13
8.8015e-22
-9.39699e-22
8.80379e-22
-2.06795e-24
8.73141e-22
6.82424e-24
8.41967e-22
8.89219e-24
8.11774e-22
9.97787e-24
7.84477e-22
1.10118e-23
7.59507e-22
1.22009e-23
7.36191e-22
1.35451e-23
7.1396e-22
1.48376e-23
6.92402e-22
1.60783e-23
6.71257e-22
1.73191e-23
6.50267e-22
1.84048e-23
6.29226e-22
1.9387e-23
6.08081e-22
2.02659e-23
5.86781e-22
2.10414e-23
5.65068e-22
2.16101e-23
5.43044e-22
2.21788e-23
5.20865e-22
2.25407e-23
4.9848e-22
2.27992e-23
4.75525e-22
2.29026e-23
4.52623e-22
2.29543e-23
4.29462e-22
2.29543e-23
4.06197e-22
2.27475e-23
3.82623e-22
2.2489e-23
3.59152e-22
2.20754e-23
3.35577e-22
2.17135e-23
3.11899e-22
2.12482e-23
2.88376e-22
2.08346e-23
2.64956e-22
2.03176e-23
2.4164e-22
1.97489e-23
2.18479e-22
1.90769e-23
1.95421e-22
1.85082e-23
1.72467e-22
1.78878e-23
1.4972e-22
1.72674e-23
1.27179e-22
1.68021e-23
1.05e-22
1.62334e-23
8.29249e-23
1.57164e-23
6.10046e-23
1.51994e-23
3.9653e-23
1.46308e-23
1.88184e-23
1.37519e-23
1.16322e-23
5.58673e-13
-1.09852e-12
1.09681e-12
-1.0532e-12
1.59986e-12
-9.97256e-13
2.05694e-12
-9.06994e-13
2.45657e-12
-7.94194e-13
2.79377e-12
-6.72913e-13
3.06887e-12
-5.51569e-13
3.2849e-12
-4.35227e-13
3.4465e-12
-3.2741e-13
3.5592e-12
-2.30236e-13
3.62923e-12
-1.449e-13
3.66261e-12
-7.12189e-14
3.66199e-12
-3.64578e-15
3.63582e-12
4.92161e-14
3.58885e-12
9.1633e-14
3.52258e-12
1.29112e-13
3.44039e-12
1.62181e-13
3.34743e-12
1.84124e-13
3.24608e-12
2.01391e-13
3.13835e-12
2.13314e-13
3.02434e-12
2.26972e-13
2.90814e-12
2.31419e-13
2.7919e-12
2.31741e-13
2.67564e-12
2.3175e-13
2.56183e-12
2.27359e-13
2.45002e-12
2.23268e-13
2.34111e-12
2.17677e-13
2.23643e-12
2.09424e-13
2.13594e-12
2.01029e-13
2.03976e-12
1.92581e-13
1.94803e-12
1.83736e-13
1.86091e-12
1.74632e-13
1.77813e-12
1.65874e-13
1.69987e-12
1.57029e-13
1.62577e-12
1.48478e-13
1.55574e-12
1.40501e-13
1.48939e-12
1.32954e-13
1.42658e-12
1.26034e-13
1.36687e-12
1.19683e-13
1.31028e-12
1.13587e-13
1.25611e-12
1.08472e-13
1.20447e-12
1.03442e-13
1.15512e-12
9.88995e-14
1.10769e-12
9.4775e-14
1.06205e-12
9.12621e-14
1.01821e-12
8.76695e-14
9.75601e-13
8.52147e-14
9.34309e-13
8.23411e-14
8.94465e-13
7.96229e-14
8.55697e-13
7.72767e-14
8.18096e-13
7.48991e-14
7.81399e-13
7.30525e-14
7.4555e-13
7.12908e-14
7.10702e-13
6.9319e-14
6.76554e-13
6.77692e-14
6.43313e-13
6.59538e-14
6.10879e-13
6.436e-14
5.79217e-13
6.26898e-14
5.48206e-13
6.14432e-14
5.17933e-13
5.99399e-14
4.88414e-13
5.8417e-14
4.59675e-13
5.68566e-14
4.31555e-13
5.55429e-14
4.04087e-13
5.42274e-14
3.77268e-13
5.29073e-14
3.5114e-13
5.15058e-14
3.25515e-13
5.0373e-14
3.00548e-13
4.90689e-14
2.7628e-13
4.78018e-14
2.52661e-13
4.63518e-14
2.29684e-13
4.4889e-14
2.07537e-13
4.31479e-14
1.86235e-13
4.09608e-14
1.65922e-13
3.77215e-14
1.45634e-13
3.20871e-14
1.18272e-13
2.28988e-14
5.89421e-14
4.38963e-15
3.30584e-14
1.2118e-13
1.55162e-16
1.5044e-13
8.93384e-22
-1.53528e-21
8.89219e-22
-3.51552e-24
8.75261e-22
2.22305e-24
8.42949e-22
6.97934e-24
8.12808e-22
1.12703e-23
7.85718e-22
1.55096e-23
7.60851e-22
1.96972e-23
7.37432e-22
2.35746e-23
7.15201e-22
2.72453e-23
6.93591e-22
3.07091e-23
6.72395e-22
3.37593e-23
6.5125e-22
3.64476e-23
6.30105e-22
3.87741e-23
6.08857e-22
4.07903e-23
5.8735e-22
4.23413e-23
5.65636e-22
4.36855e-23
5.43406e-22
4.45644e-23
5.21176e-22
4.52364e-23
4.98635e-22
4.55466e-23
4.75577e-22
4.55466e-23
4.52571e-22
4.53398e-23
4.29307e-22
4.48746e-23
4.05836e-22
4.42542e-23
3.82313e-22
4.33236e-23
3.58738e-22
4.23413e-23
3.35112e-22
4.11005e-23
3.11485e-22
3.97564e-23
2.87911e-22
3.84122e-23
2.64439e-22
3.69646e-23
2.40916e-22
3.54654e-23
2.1791e-22
3.40178e-23
1.94801e-22
3.24151e-23
1.71898e-22
3.08125e-23
1.49254e-22
2.952e-23
1.26662e-22
2.81758e-23
1.04432e-22
2.70385e-23
8.24079e-23
2.59011e-23
6.04876e-23
2.48154e-23
3.87224e-23
2.40399e-23
1.66987e-23
2.32645e-23
2.28509e-23
5.93877e-13
-1.69207e-12
1.16342e-12
-1.62216e-12
1.69354e-12
-1.52688e-12
2.1688e-12
-1.38175e-12
2.57753e-12
-1.20243e-12
2.9157e-12
-1.0106e-12
3.18606e-12
-8.21447e-13
3.39369e-12
-6.42383e-13
3.54479e-12
-4.78034e-13
3.6462e-12
-3.31185e-13
3.70521e-12
-2.03457e-13
3.72598e-12
-9.15403e-14
3.71623e-12
6.53638e-15
3.68163e-12
8.42472e-14
3.6275e-12
1.4618e-13
3.55276e-12
2.04255e-13
3.46447e-12
2.50864e-13
3.36587e-12
2.83106e-13
3.26033e-12
3.07298e-13
3.14682e-12
3.2718e-13
3.02933e-12
3.44803e-13
2.91022e-12
3.50859e-13
2.79112e-12
3.51161e-13
2.67248e-12
3.50687e-13
2.55713e-12
3.42995e-13
2.44353e-12
3.37127e-13
2.33365e-12
3.27808e-13
2.22822e-12
3.15092e-13
2.12725e-12
3.02212e-13
2.03081e-12
2.89213e-13
1.93906e-12
2.75668e-13
1.85202e-12
2.61829e-13
1.76944e-12
2.48593e-13
1.69159e-12
2.35004e-13
1.618e-12
2.22162e-13
1.54835e-12
2.10235e-13
1.48257e-12
1.98795e-13
1.42009e-12
1.88548e-13
1.36095e-12
1.78848e-13
1.30482e-12
1.69717e-13
1.25125e-12
1.62017e-13
1.20003e-12
1.54623e-13
1.15107e-12
1.47791e-13
1.10402e-12
1.41749e-13
1.05876e-12
1.36418e-13
1.01528e-12
1.31031e-13
9.72926e-13
1.2743e-13
9.31885e-13
1.23224e-13
8.92134e-13
1.19196e-13
8.53478e-13
1.15737e-13
8.16005e-13
1.12156e-13
7.79497e-13
1.0933e-13
7.43681e-13
1.06856e-13
7.08842e-13
1.0389e-13
6.74741e-13
1.01587e-13
6.41595e-13
9.87998e-14
6.09198e-13
9.64398e-14
5.77606e-13
9.39536e-14
5.4667e-13
9.20318e-14
5.16416e-13
8.98391e-14
4.86957e-13
8.75042e-14
4.58132e-13
8.52956e-14
4.30006e-13
8.32707e-14
4.02593e-13
8.12313e-14
3.75809e-13
7.9269e-14
3.49595e-13
7.72891e-14
3.24091e-13
7.54377e-14
2.99118e-13
7.35915e-14
2.7477e-13
7.16924e-14
2.5107e-13
6.95868e-14
2.27934e-13
6.75528e-14
2.05331e-13
6.5273e-14
1.82934e-13
6.28716e-14
1.60312e-13
5.98538e-14
1.35119e-13
5.6786e-14
1.02789e-13
5.4731e-14
4.82005e-14
5.84781e-14
2.83935e-14
1.40488e-13
1.47185e-16
1.78285e-13
8.86767e-22
-2.22353e-21
8.94958e-22
-4.96308e-24
8.80017e-22
2.11965e-24
8.47292e-22
9.09899e-24
8.17099e-22
1.60266e-23
7.89802e-22
2.27992e-23
7.6478e-22
2.93132e-23
7.41102e-22
3.5362e-23
7.18665e-22
4.11005e-23
6.96641e-22
4.63221e-23
6.75135e-22
5.10267e-23
6.53576e-22
5.51626e-23
6.32173e-22
5.87815e-23
6.10459e-22
6.16767e-23
5.88642e-22
6.41582e-23
5.66567e-22
6.60194e-23
5.44026e-22
6.72601e-23
5.21434e-22
6.8139e-23
4.98635e-22
6.85526e-23
4.7537e-22
6.84492e-23
4.52106e-22
6.79839e-23
4.28686e-22
6.72084e-23
4.04957e-22
6.59677e-23
3.81279e-22
6.46752e-23
3.57497e-22
6.29691e-23
3.33767e-22
6.10563e-23
3.10141e-22
5.89883e-23
2.86411e-22
5.67653e-23
2.62888e-22
5.44905e-23
2.39469e-22
5.20607e-23
2.16308e-22
4.97342e-23
1.9325e-22
4.74078e-23
1.70606e-22
4.5133e-23
1.47962e-22
4.28583e-23
1.25421e-22
4.0842e-23
1.03346e-22
3.90326e-23
8.13222e-23
3.73782e-23
5.96604e-23
3.60341e-23
3.79986e-23
3.4845e-23
1.62334e-23
3.40178e-23
3.35525e-23
6.53594e-13
-2.34534e-12
1.27243e-12
-2.24042e-12
1.84387e-12
-2.09783e-12
2.34661e-12
-1.884e-12
2.76803e-12
-1.62338e-12
3.10478e-12
-1.34687e-12
3.36515e-12
-1.08134e-12
3.55792e-12
-8.34686e-13
3.69191e-12
-6.11558e-13
3.77467e-12
-4.13492e-13
3.8152e-12
-2.43545e-13
3.818e-12
-9.38967e-14
3.79537e-12
2.95933e-14
3.74832e-12
1.31706e-13
3.68255e-12
2.12362e-13
3.59677e-12
2.90435e-13
3.49986e-12
3.48156e-13
3.39205e-12
3.91296e-13
3.28093e-12
4.18778e-13
3.15865e-12
4.49809e-13
3.03635e-12
4.67438e-13
2.91259e-12
4.74943e-13
2.78946e-12
4.74594e-13
2.66751e-12
4.7293e-13
2.54947e-12
4.61314e-13
2.43358e-12
4.53275e-13
2.32213e-12
4.39508e-13
2.21557e-12
4.21873e-13
2.11385e-12
4.0415e-13
2.01696e-12
3.86292e-13
1.92531e-12
3.67488e-13
1.8384e-12
3.489e-13
1.75615e-12
3.30979e-13
1.67882e-12
3.12449e-13
1.60584e-12
2.95242e-13
1.53708e-12
2.79071e-13
1.47203e-12
2.63906e-13
1.41042e-12
2.50195e-13
1.35208e-12
2.37215e-13
1.29657e-12
2.25221e-13
1.24363e-12
2.14936e-13
1.19327e-12
2.04949e-13
1.14501e-12
1.95985e-13
1.0986e-12
1.88082e-13
1.05374e-12
1.81176e-13
1.01081e-12
1.73843e-13
9.68992e-13
1.69117e-13
9.28163e-13
1.639e-13
8.88712e-13
1.58471e-13
8.50282e-13
1.53973e-13
8.13016e-13
1.49212e-13
7.76596e-13
1.45524e-13
7.40914e-13
1.42296e-13
7.06205e-13
1.38341e-13
6.72314e-13
1.35201e-13
6.3918e-13
1.31643e-13
6.06826e-13
1.28487e-13
5.75267e-13
1.25188e-13
5.4437e-13
1.22591e-13
5.14217e-13
1.1964e-13
4.84757e-13
1.16602e-13
4.56008e-13
1.13667e-13
4.27991e-13
1.109e-13
4.00611e-13
1.08212e-13
3.7389e-13
1.05578e-13
3.4772e-13
1.03038e-13
3.22118e-13
1.00608e-13
2.97133e-13
9.8136e-14
2.72799e-13
9.5579e-14
2.48979e-13
9.29522e-14
2.2565e-13
9.04185e-14
2.02754e-13
8.77019e-14
1.80058e-13
8.50923e-14
1.56806e-13
8.26268e-14
1.32144e-13
8.09671e-14
1.05876e-13
8.05155e-14
7.93528e-14
8.45102e-14
3.31623e-14
1.86188e-13
1.4504e-16
2.10909e-13
8.93384e-22
-3.11029e-21
9.02092e-22
-6.97934e-24
8.86996e-22
2.68834e-24
8.54271e-22
1.20975e-23
8.2382e-22
2.15067e-23
7.96317e-22
3.07091e-23
7.70932e-22
3.95496e-23
7.46789e-22
4.78731e-23
7.23835e-22
5.55762e-23
7.01346e-22
6.25555e-23
6.7927e-22
6.89145e-23
6.57195e-22
7.43946e-23
6.35068e-22
7.90992e-23
6.12837e-22
8.308e-23
5.90504e-22
8.62853e-23
5.6786e-22
8.856e-23
5.44957e-22
9.02661e-23
5.21848e-22
9.13001e-23
4.98531e-22
9.1662e-23
4.74957e-22
9.15586e-23
4.5133e-22
9.07831e-23
4.27394e-22
8.95423e-23
4.03664e-22
8.79396e-23
3.79573e-22
8.58717e-23
3.55584e-22
8.37003e-23
3.31751e-22
8.11154e-23
3.07918e-22
7.81686e-23
2.84085e-22
7.50666e-23
2.6051e-22
7.1913e-23
2.37142e-22
6.87077e-23
2.1393e-22
6.5399e-23
1.90975e-22
6.21936e-23
1.6828e-22
5.90917e-23
1.45894e-22
5.60932e-23
1.23612e-22
5.33015e-23
1.0164e-22
5.08199e-23
8.00297e-23
4.86486e-23
5.84713e-23
4.68391e-23
3.71197e-23
4.53398e-23
1.58198e-23
4.43059e-23
4.37889e-23
7.3931e-13
-3.08433e-12
1.43437e-12
-2.93492e-12
2.06516e-12
-2.72813e-12
2.60433e-12
-2.42269e-12
3.04114e-12
-2.05971e-12
3.36976e-12
-1.67501e-12
3.61172e-12
-1.32284e-12
3.78077e-12
-1.00327e-12
3.89031e-12
-7.2064e-13
3.9421e-12
-4.64829e-13
3.95792e-12
-2.58924e-13
3.94138e-12
-7.69297e-14
3.89928e-12
7.21286e-14
3.8359e-12
1.95504e-13
3.75223e-12
2.96431e-13
3.65334e-12
3.89718e-13
3.54512e-12
4.56757e-13
3.42671e-12
5.10076e-13
3.30507e-12
5.4078e-13
3.17379e-12
5.81429e-13
3.04477e-12
5.96791e-13
2.91474e-12
6.0529e-13
2.78589e-12
6.03752e-13
2.66015e-12
5.9896e-13
2.5382e-12
5.83536e-13
2.4194e-12
5.72333e-13
2.30603e-12
5.53114e-13
2.19805e-12
5.30082e-13
2.09524e-12
5.07174e-13
1.99816e-12
4.83561e-13
1.9064e-12
4.59422e-13
1.81981e-12
4.35634e-13
1.73824e-12
4.12687e-13
1.66175e-12
3.89055e-13
1.58966e-12
3.67435e-13
1.52203e-12
3.46775e-13
1.458e-12
3.27994e-13
1.3975e-12
3.1074e-13
1.34032e-12
2.94411e-13
1.28593e-12
2.79611e-13
1.23403e-12
2.66811e-13
1.18452e-12
2.54422e-13
1.13708e-12
2.43365e-13
1.09138e-12
2.33712e-13
1.04723e-12
2.25222e-13
1.00474e-12
2.16214e-13
9.63889e-13
2.0984e-13
9.2341e-13
2.04225e-13
8.84197e-13
1.97513e-13
8.46047e-13
1.91935e-13
8.0903e-13
1.86024e-13
7.72855e-13
1.81472e-13
7.37467e-13
1.77446e-13
7.02912e-13
1.72636e-13
6.68994e-13
1.68847e-13
6.36018e-13
1.6433e-13
6.03726e-13
1.60473e-13
5.7224e-13
1.56358e-13
5.41343e-13
1.53154e-13
5.11375e-13
1.49264e-13
4.81979e-13
1.45639e-13
4.53348e-13
1.41927e-13
4.25347e-13
1.38516e-13
3.97931e-13
1.35235e-13
3.71297e-13
1.31807e-13
3.45094e-13
1.28828e-13
3.19524e-13
1.25755e-13
2.9458e-13
1.22646e-13
2.70174e-13
1.19543e-13
2.46253e-13
1.16421e-13
2.22872e-13
1.13343e-13
1.99979e-13
1.10135e-13
1.77553e-13
1.07051e-13
1.55485e-13
1.04221e-13
1.3315e-13
1.02823e-13
1.11762e-13
1.01422e-13
8.93807e-14
1.06411e-13
3.67535e-14
2.38331e-13
1.43297e-16
2.47131e-13
9.0662e-22
-3.98383e-21
9.11708e-22
-8.84049e-24
8.96457e-22
3.30872e-24
8.63628e-22
1.54579e-23
8.33074e-22
2.74521e-23
8.05157e-22
3.92394e-23
7.79153e-22
5.05097e-23
7.54492e-22
6.1108e-23
7.30762e-22
7.0879e-23
7.07705e-22
7.96678e-23
6.84751e-22
8.74227e-23
6.619e-22
9.42986e-23
6.38997e-22
1.00037e-22
6.16095e-22
1.04897e-22
5.9283e-22
1.08826e-22
5.69514e-22
1.11669e-22
5.45939e-22
1.13686e-22
5.2221e-22
1.14823e-22
4.98428e-22
1.15185e-22
4.74181e-22
1.1472e-22
4.50141e-22
1.13789e-22
4.25791e-22
1.12135e-22
4.01596e-22
1.09912e-22
3.77349e-22
1.07275e-22
3.52999e-22
1.04173e-22
3.28804e-22
1.00813e-22
3.04868e-22
9.70903e-23
2.80931e-22
9.31612e-23
2.57305e-22
8.90253e-23
2.33834e-22
8.48894e-23
2.10724e-22
8.07535e-23
1.87873e-22
7.66693e-23
1.65333e-22
7.26368e-23
1.43051e-22
6.88628e-23
1.21182e-22
6.53473e-23
9.95202e-23
6.21419e-23
7.81686e-23
5.94536e-23
5.70238e-23
5.71789e-23
3.61375e-23
5.53694e-23
1.52511e-23
5.41286e-23
5.34566e-23
8.60362e-13
-3.94437e-12
1.66908e-12
-3.74308e-12
2.38314e-12
-3.4417e-12
2.96485e-12
-3.00391e-12
3.41732e-12
-2.51171e-12
3.72099e-12
-1.97821e-12
3.93357e-12
-1.53496e-12
4.06527e-12
-1.13451e-12
4.13244e-12
-7.87351e-13
4.15161e-12
-4.8355e-13
4.13543e-12
-2.42311e-13
4.09254e-12
-3.36043e-14
4.02525e-12
1.39836e-13
3.94169e-12
2.7948e-13
3.8361e-12
4.02419e-13
3.72153e-12
5.04679e-13
3.59812e-12
5.80541e-13
3.46941e-12
6.39148e-13
3.33145e-12
6.79095e-13
3.19194e-12
7.21286e-13
3.05359e-12
7.35471e-13
2.91557e-12
7.43614e-13
2.77981e-12
7.39818e-13
2.64956e-12
7.2949e-13
2.52246e-12
7.1091e-13
2.40037e-12
6.94677e-13
2.28465e-12
6.69072e-13
2.1752e-12
6.39753e-13
2.07129e-12
6.11287e-13
1.97374e-12
5.81304e-13
1.88227e-12
5.51062e-13
1.79609e-12
5.21969e-13
1.71541e-12
4.93498e-13
1.63999e-12
4.64589e-13
1.56934e-12
4.38177e-13
1.503e-12
4.13198e-13
1.44041e-12
3.90633e-13
1.38139e-12
3.698e-13
1.32564e-12
3.5019e-13
1.27246e-12
3.32785e-13
1.2221e-12
3.1715e-13
1.1736e-12
3.02888e-13
1.1274e-12
2.89509e-13
1.08251e-12
2.78529e-13
1.03961e-12
2.68021e-13
9.973e-13
2.58412e-13
9.5757e-13
2.49437e-13
9.17529e-13
2.44114e-13
8.78559e-13
2.36313e-13
8.40928e-13
2.2938e-13
8.04015e-13
2.22734e-13
7.68211e-13
2.17055e-13
7.33003e-13
2.12419e-13
6.9864e-13
2.06745e-13
6.64886e-13
2.02331e-13
6.32043e-13
1.96888e-13
5.99892e-13
1.92324e-13
5.68464e-13
1.87475e-13
5.37738e-13
1.83549e-13
5.07719e-13
1.78942e-13
4.78408e-13
1.74596e-13
4.49888e-13
1.70079e-13
4.22009e-13
1.66016e-13
3.94773e-13
1.62083e-13
3.68171e-13
1.5801e-13
3.42034e-13
1.54555e-13
3.16467e-13
1.50901e-13
2.91542e-13
1.47145e-13
2.67076e-13
1.43571e-13
2.43109e-13
1.39944e-13
2.19712e-13
1.36289e-13
1.96897e-13
1.32493e-13
1.74921e-13
1.28564e-13
1.5401e-13
1.24665e-13
1.33837e-13
1.22525e-13
1.175e-13
1.17286e-13
1.02262e-13
1.21172e-13
2.7122e-14
3.12992e-13
1.41192e-16
2.73732e-13
9.26472e-22
-4.7912e-21
9.23909e-22
-1.07017e-23
9.08555e-22
4.3427e-24
8.75622e-22
1.92836e-23
8.44862e-22
3.41212e-23
8.16479e-22
4.85969e-23
7.89751e-22
6.22453e-23
7.64315e-22
7.517e-23
7.39603e-22
8.70091e-23
7.15511e-22
9.77107e-23
6.91575e-22
1.0712e-22
6.6769e-22
1.15288e-22
6.43857e-22
1.22164e-22
6.19972e-22
1.27748e-22
5.95673e-22
1.32142e-22
5.7153e-22
1.35451e-22
5.47077e-22
1.37622e-22
5.22571e-22
1.38863e-22
4.97963e-22
1.3907e-22
4.73251e-22
1.38346e-22
4.48487e-22
1.36847e-22
4.23568e-22
1.34727e-22
3.9896e-22
1.32039e-22
3.74248e-22
1.28627e-22
3.49587e-22
1.24697e-22
3.25134e-22
1.20458e-22
3.00887e-22
1.15857e-22
2.76795e-22
1.10946e-22
2.53169e-22
1.06034e-22
2.29698e-22
1.00864e-22
2.06588e-22
9.57462e-23
1.83893e-22
9.07831e-23
1.61559e-22
8.582e-23
1.39587e-22
8.12188e-23
1.17925e-22
7.69278e-23
9.68318e-23
7.31538e-23
7.58938e-23
6.98451e-23
5.51626e-23
6.70533e-23
3.48967e-23
6.49337e-23
1.46308e-23
6.33827e-23
6.26072e-23
1.02018e-12
-4.96424e-12
1.99174e-12
-4.7141e-12
2.86139e-12
-4.31086e-12
3.4621e-12
-3.60415e-12
3.90804e-12
-2.95718e-12
4.18216e-12
-2.25186e-12
4.33547e-12
-1.68781e-12
4.40759e-12
-1.20617e-12
4.41819e-12
-7.97504e-13
4.39851e-12
-4.63423e-13
4.3431e-12
-1.86469e-13
4.26555e-12
4.4369e-14
4.17067e-12
2.35137e-13
4.06076e-12
3.89794e-13
3.9327e-12
5.30884e-13
3.80096e-12
6.36803e-13
3.65696e-12
7.24922e-13
3.51731e-12
7.79153e-13
3.3593e-12
8.37455e-13
3.21125e-12
8.69668e-13
3.06075e-12
8.86299e-13
2.91415e-12
8.90523e-13
2.76989e-12
8.84374e-13
2.63485e-12
8.64804e-13
2.50111e-12
8.44922e-13
2.37534e-12
8.20701e-13
2.2571e-12
7.87545e-13
2.14586e-12
7.51214e-13
2.04132e-12
7.16023e-13
1.94332e-12
6.79494e-13
1.85225e-12
6.42296e-13
1.76667e-12
6.07704e-13
1.68747e-12
5.7283e-13
1.61374e-12
5.38429e-13
1.54483e-12
5.07184e-13
1.48022e-12
4.77883e-13
1.41942e-12
4.51491e-13
1.36212e-12
4.27137e-13
1.30814e-12
4.04191e-13
1.25663e-12
3.84298e-13
1.20783e-12
3.6593e-13
1.16088e-12
3.49796e-13
1.11591e-12
3.34421e-13
1.07203e-12
3.22337e-13
1.03042e-12
3.09541e-13
9.88527e-13
3.00189e-13
9.49821e-13
2.88015e-13
9.10858e-13
2.8293e-13
8.72219e-13
2.74787e-13
8.35031e-13
2.66385e-13
7.98359e-13
2.59205e-13
7.62822e-13
2.52373e-13
7.27858e-13
2.4715e-13
6.93656e-13
2.40698e-13
6.60024e-13
2.357e-13
6.27196e-13
2.29438e-13
5.95252e-13
2.23976e-13
5.6393e-13
2.18488e-13
5.33392e-13
2.13767e-13
5.03353e-13
2.08644e-13
4.74211e-13
2.0339e-13
4.45753e-13
1.98179e-13
4.1794e-13
1.93459e-13
3.90909e-13
1.88731e-13
3.64341e-13
1.84184e-13
3.38227e-13
1.80265e-13
3.12885e-13
1.75829e-13
2.87979e-13
1.7163e-13
2.63476e-13
1.67644e-13
2.39432e-13
1.63554e-13
2.1591e-13
1.59366e-13
1.93001e-13
1.54953e-13
1.71109e-13
1.50003e-13
1.50909e-13
1.44407e-13
1.34176e-13
1.38794e-13
1.19766e-13
1.31229e-13
6.67905e-14
1.7368e-13
9.56887e-15
3.69743e-13
1.38385e-16
2.82788e-13
9.3309e-22
-5.54564e-21
9.38953e-22
-1.24077e-23
9.23496e-22
5.73857e-24
8.9046e-22
2.37297e-23
8.59337e-22
4.15658e-23
8.30128e-22
5.87815e-23
8.02624e-22
7.517e-23
7.76206e-22
9.04729e-23
7.50305e-22
1.0438e-22
7.2492e-22
1.16891e-22
6.99743e-22
1.27903e-22
6.74566e-22
1.37364e-22
6.4944e-22
1.45274e-22
6.24366e-22
1.51581e-22
5.98931e-22
1.56492e-22
5.7365e-22
1.60163e-22
5.48369e-22
1.62334e-22
5.22778e-22
1.63368e-22
4.97239e-22
1.63368e-22
4.71803e-22
1.62283e-22
4.46316e-22
1.60318e-22
4.2088e-22
1.57526e-22
3.95547e-22
1.54062e-22
3.7037e-22
1.49978e-22
3.45348e-22
1.45222e-22
3.20533e-22
1.40052e-22
2.95976e-22
1.34417e-22
2.71832e-22
1.2873e-22
2.47999e-22
1.22681e-22
2.2458e-22
1.16477e-22
2.01574e-22
1.1048e-22
1.7893e-22
1.04432e-22
1.56906e-22
9.8693e-23
1.35296e-22
9.31612e-23
1.14151e-22
8.80947e-23
9.34714e-23
8.34419e-23
7.31021e-23
7.94093e-23
5.3043e-23
7.61523e-23
3.33457e-23
7.36708e-23
1.3907e-23
7.1913e-23
7.11375e-23
1.27692e-12
-6.24085e-12
2.48099e-12
-5.91763e-12
3.46432e-12
-5.29372e-12
4.15203e-12
-4.29139e-12
4.53997e-12
-3.34466e-12
4.75035e-12
-2.46178e-12
4.81811e-12
-1.75512e-12
4.80933e-12
-1.19695e-12
4.75482e-12
-7.42546e-13
4.67359e-12
-3.81762e-13
4.57376e-12
-8.62106e-14
4.45616e-12
1.62392e-13
4.33337e-12
3.58341e-13
4.19002e-12
5.33548e-13
4.04107e-12
6.80223e-13
3.88586e-12
7.9239e-13
3.72452e-12
8.86632e-13
3.56286e-12
9.41171e-13
3.39031e-12
1.01035e-12
3.22912e-12
1.03118e-12
3.06532e-12
1.05042e-12
2.90823e-12
1.04792e-12
2.75581e-12
1.03708e-12
2.61318e-12
1.00771e-12
2.47326e-12
9.85104e-13
2.34347e-12
9.50738e-13
2.22285e-12
9.08387e-13
2.10956e-12
8.64721e-13
2.00419e-12
8.21597e-13
1.90659e-12
7.77275e-13
1.81586e-12
7.33195e-13
1.7317e-12
6.92009e-13
1.65432e-12
6.50341e-13
1.58261e-12
6.10246e-13
1.51598e-12
5.73913e-13
1.45337e-12
5.40564e-13
1.39478e-12
5.10137e-13
1.33987e-12
4.82085e-13
1.28787e-12
4.56218e-13
1.23838e-12
4.33783e-13
1.19122e-12
4.13073e-13
1.14623e-12
3.9475e-13
1.10255e-12
3.78043e-13
1.06035e-12
3.64463e-13
1.01962e-12
3.50185e-13
9.79674e-13
3.40025e-13
9.40378e-13
3.27184e-13
9.03319e-13
3.19845e-13
8.65097e-13
3.12845e-13
8.2824e-13
3.03062e-13
7.91801e-13
2.9545e-13
7.56572e-13
2.87391e-13
7.21935e-13
2.81558e-13
6.8776e-13
2.74631e-13
6.54466e-13
2.68735e-13
6.21615e-13
2.62016e-13
5.89833e-13
2.55471e-13
5.58481e-13
2.49537e-13
5.28205e-13
2.43727e-13
4.98324e-13
2.38198e-13
4.6927e-13
2.32104e-13
4.41035e-13
2.26062e-13
4.13482e-13
2.20649e-13
3.86444e-13
2.15393e-13
3.59952e-13
2.1029e-13
3.34113e-13
2.05709e-13
3.08775e-13
2.00763e-13
2.83888e-13
1.96104e-13
2.59445e-13
1.91667e-13
2.35229e-13
1.87344e-13
2.11446e-13
1.82713e-13
1.88148e-13
1.77808e-13
1.65451e-13
1.72252e-13
1.44212e-13
1.65194e-13
1.278e-13
1.54748e-13
1.23073e-13
1.35497e-13
4.46608e-14
2.51632e-13
1.07092e-14
4.03232e-13
1.36173e-16
2.92991e-13
9.46325e-22
-6.27359e-21
9.57151e-22
-1.42172e-23
9.41435e-22
7.34123e-24
9.08296e-22
2.87445e-23
8.76501e-22
4.98376e-23
8.46568e-22
7.0207e-23
8.17875e-22
8.95423e-23
7.90113e-22
1.07223e-22
7.62816e-22
1.23353e-22
7.35932e-22
1.37622e-22
7.09204e-22
1.50082e-22
6.82476e-22
1.6068e-22
6.55799e-22
1.6952e-22
6.29226e-22
1.765e-22
6.02601e-22
1.81773e-22
5.75873e-22
1.85495e-22
5.49403e-22
1.8777e-22
5.22726e-22
1.88597e-22
4.96153e-22
1.88184e-22
4.69839e-22
1.86684e-22
4.43524e-22
1.84151e-22
4.17416e-22
1.80636e-22
3.91412e-22
1.76448e-22
3.65666e-22
1.71381e-22
3.40126e-22
1.65746e-22
3.14949e-22
1.59698e-22
2.90185e-22
1.53132e-22
2.65835e-22
1.46204e-22
2.41847e-22
1.39173e-22
2.18531e-22
1.32039e-22
1.95577e-22
1.24853e-22
1.73243e-22
1.17822e-22
1.51374e-22
1.10997e-22
1.30229e-22
1.04587e-22
1.0955e-22
9.8693e-23
8.93872e-23
9.32646e-23
6.98451e-23
8.86117e-23
5.05614e-23
8.47343e-23
3.1588e-23
8.17875e-23
1.30798e-23
7.9978e-23
7.90475e-23
1.63154e-12
-7.87208e-12
3.15023e-12
-7.43578e-12
4.31382e-12
-6.45685e-12
5.07217e-12
-5.04929e-12
5.37668e-12
-3.64872e-12
5.44846e-12
-2.53311e-12
5.38226e-12
-1.68848e-12
5.2654e-12
-1.07964e-12
5.1221e-12
-5.98817e-13
4.9708e-12
-2.30025e-13
4.81549e-12
6.95144e-14
4.66375e-12
3.14554e-13
4.50518e-12
5.17318e-13
4.32917e-12
7.09954e-13
4.15775e-12
8.5202e-13
3.97569e-12
9.74835e-13
3.79757e-12
1.06511e-12
3.60463e-12
1.13445e-12
3.42458e-12
1.19074e-12
3.2427e-12
1.2134e-12
3.06603e-12
1.2274e-12
2.89657e-12
1.21767e-12
2.73559e-12
1.19835e-12
2.58282e-12
1.16075e-12
2.43773e-12
1.13045e-12
2.3038e-12
1.08492e-12
2.18043e-12
1.03198e-12
2.06539e-12
9.79966e-13
1.95916e-12
9.28028e-13
1.86256e-12
8.74051e-13
1.77228e-12
8.23636e-13
1.69041e-12
7.74022e-13
1.61551e-12
7.25372e-13
1.54644e-12
6.79423e-13
1.48249e-12
6.37957e-13
1.42253e-12
6.00606e-13
1.36674e-12
5.65983e-13
1.31457e-12
5.34281e-13
1.26501e-12
5.05801e-13
1.21791e-12
4.8088e-13
1.17282e-12
4.58151e-13
1.13011e-12
4.37421e-13
1.08807e-12
4.20032e-13
1.04752e-12
4.04942e-13
1.00778e-12
3.89836e-13
9.69701e-13
3.77996e-13
9.30068e-13
3.66693e-13
8.94926e-13
3.54846e-13
8.57574e-13
3.50039e-13
8.20742e-13
3.39722e-13
7.8479e-13
3.31213e-13
7.49613e-13
3.22363e-13
7.15328e-13
3.1562e-13
6.81225e-13
3.08496e-13
6.4816e-13
3.01547e-13
6.15323e-13
2.94587e-13
5.83658e-13
2.86857e-13
5.52265e-13
2.80635e-13
5.22372e-13
2.73315e-13
4.92549e-13
2.67702e-13
4.63672e-13
2.60648e-13
4.35615e-13
2.53774e-13
4.08156e-13
2.47754e-13
3.81349e-13
2.41834e-13
3.55024e-13
2.36239e-13
3.29453e-13
2.30894e-13
3.04264e-13
2.25556e-13
2.79445e-13
2.20519e-13
2.54915e-13
2.15784e-13
2.30702e-13
2.11137e-13
2.06639e-13
2.0635e-13
1.82699e-13
2.01317e-13
1.58927e-13
1.95585e-13
1.34939e-13
1.88738e-13
1.10609e-13
1.78633e-13
8.18212e-14
1.63837e-13
2.29658e-14
3.10035e-13
1.15052e-14
4.14238e-13
1.33486e-16
3.04001e-13
9.72794e-22
-7.01476e-21
9.78658e-22
-1.63368e-23
9.6289e-22
9.25408e-24
9.29389e-22
3.46899e-23
8.96922e-22
5.9557e-23
8.65851e-22
8.31317e-23
8.35659e-22
1.05362e-22
8.06191e-22
1.25731e-22
7.77033e-22
1.44033e-22
7.48392e-22
1.60266e-22
7.19751e-22
1.74122e-22
6.91316e-22
1.85805e-22
6.6283e-22
1.95318e-22
6.34551e-22
2.02918e-22
6.06375e-22
2.0845e-22
5.78148e-22
2.12224e-22
5.5023e-22
2.14291e-22
5.22313e-22
2.14705e-22
4.94654e-22
2.13826e-22
4.67254e-22
2.11655e-22
4.40008e-22
2.08346e-22
4.13177e-22
2.0421e-22
3.86345e-22
1.98937e-22
3.59979e-22
1.93043e-22
3.34078e-22
1.86374e-22
3.08383e-22
1.79291e-22
2.83309e-22
1.71692e-22
2.58804e-22
1.6373e-22
2.34713e-22
1.5551e-22
2.11345e-22
1.47393e-22
1.88597e-22
1.3907e-22
1.66315e-22
1.30953e-22
1.45015e-22
1.23043e-22
1.24336e-22
1.15702e-22
1.04121e-22
1.08826e-22
8.4786e-23
1.02777e-22
6.59677e-23
9.73488e-23
4.76146e-23
9.29544e-23
2.97785e-23
8.96974e-23
1.21492e-23
8.7371e-23
8.64404e-23
2.28586e-12
-1.01576e-11
4.31229e-12
-9.46169e-12
5.67696e-12
-7.82107e-12
6.35539e-12
-5.72729e-12
6.44556e-12
-3.73844e-12
6.25365e-12
-2.34077e-12
5.99385e-12
-1.42824e-12
5.7387e-12
-8.24057e-13
5.50531e-12
-3.65009e-13
5.2801e-12
-4.38564e-15
5.06625e-12
2.83777e-13
4.87487e-12
5.06332e-13
4.67805e-12
7.1454e-13
4.47992e-12
9.0847e-13
4.27515e-12
1.05717e-12
4.07553e-12
1.17482e-12
3.8638e-12
1.2772e-12
3.65262e-12
1.34599e-12
3.45323e-12
1.39045e-12
3.25203e-12
1.41492e-12
3.06029e-12
1.41943e-12
2.87719e-12
1.40107e-12
2.70573e-12
1.37009e-12
2.54352e-12
1.32322e-12
2.39253e-12
1.28168e-12
2.25424e-12
1.22344e-12
2.12739e-12
1.15905e-12
2.01127e-12
1.09629e-12
1.90593e-12
1.03356e-12
1.80993e-12
9.70226e-13
1.72183e-12
9.11894e-13
1.643e-12
8.52987e-13
1.57117e-12
7.97334e-13
1.50527e-12
7.45429e-13
1.44419e-12
6.99121e-13
1.3878e-12
6.57077e-13
1.3352e-12
6.18638e-13
1.28626e-12
5.83262e-13
1.23951e-12
5.52566e-13
1.19527e-12
5.25119e-13
1.15301e-12
5.00394e-13
1.112e-12
4.78398e-13
1.07221e-12
4.59778e-13
1.0334e-12
4.43684e-13
9.95229e-13
4.27917e-13
9.58433e-13
4.1469e-13
9.20541e-13
4.04466e-13
8.85165e-13
3.90084e-13
8.49536e-13
3.85516e-13
8.12705e-13
3.76383e-13
7.77376e-13
3.66356e-13
7.41936e-13
3.57604e-13
7.08126e-13
3.49213e-13
6.74218e-13
3.4217e-13
6.41206e-13
3.34315e-13
6.0824e-13
3.27295e-13
5.76603e-13
3.1822e-13
5.45516e-13
3.11435e-13
5.15638e-13
3.02894e-13
4.86079e-13
2.96947e-13
4.57191e-13
2.89213e-13
4.29313e-13
2.81319e-13
4.02165e-13
2.74556e-13
3.7579e-13
2.67853e-13
3.49672e-13
2.61988e-13
3.24275e-13
2.55912e-13
2.99306e-13
2.5014e-13
2.74636e-13
2.44793e-13
2.50152e-13
2.39865e-13
2.25914e-13
2.34963e-13
2.01516e-13
2.30332e-13
1.76979e-13
2.25428e-13
1.51601e-13
2.20535e-13
1.23958e-13
2.1595e-13
9.1951e-14
2.10204e-13
4.22777e-14
2.13069e-13
8.45017e-15
3.43422e-13
8.11575e-15
4.14128e-13
1.30343e-16
3.11632e-13
9.99264e-22
-7.45152e-21
1.0042e-21
-1.81463e-23
9.88274e-22
1.22009e-23
9.54205e-22
4.17726e-23
9.20549e-22
7.05689e-23
8.87978e-22
9.79692e-23
8.56029e-22
1.23302e-22
8.24492e-22
1.46411e-22
7.93318e-22
1.66935e-22
7.62299e-22
1.84875e-22
7.31383e-22
2.00126e-22
7.00881e-22
2.12792e-22
6.70327e-22
2.23029e-22
6.40134e-22
2.30887e-22
6.10097e-22
2.36522e-22
5.80216e-22
2.40037e-22
5.50696e-22
2.41795e-22
5.21434e-22
2.41899e-22
4.92483e-22
2.40296e-22
4.63945e-22
2.37401e-22
4.35873e-22
2.33368e-22
4.07955e-22
2.28095e-22
3.80451e-22
2.21891e-22
3.53413e-22
2.1486e-22
3.26995e-22
2.0726e-22
3.00835e-22
1.98937e-22
2.75348e-22
1.90252e-22
2.50584e-22
1.81204e-22
2.26596e-22
1.7195e-22
2.03073e-22
1.62489e-22
1.80429e-22
1.53184e-22
1.58457e-22
1.43929e-22
1.37622e-22
1.35089e-22
1.17408e-22
1.26662e-22
9.80209e-23
1.18856e-22
7.94093e-23
1.11721e-22
6.15733e-23
1.05621e-22
4.43576e-23
1.00709e-22
2.75038e-23
9.68318e-23
1.11669e-23
9.4402e-23
9.34197e-23
3.40074e-12
-1.35581e-11
6.18549e-12
-1.22459e-11
7.93358e-12
-9.56872e-12
8.15997e-12
-5.95324e-12
7.76653e-12
-3.34458e-12
7.14162e-12
-1.71544e-12
6.61725e-12
-9.0345e-13
6.17987e-12
-3.86263e-13
5.85869e-12
-4.34133e-14
5.58835e-12
2.66364e-13
5.32915e-12
5.43376e-13
5.0779e-12
7.57982e-13
4.85594e-12
9.36892e-13
4.6315e-12
1.13329e-12
4.40123e-12
1.28781e-12
4.17107e-12
1.40534e-12
3.93109e-12
1.51752e-12
3.70269e-12
1.57472e-12
3.47431e-12
1.61917e-12
3.25498e-12
1.63456e-12
3.04559e-12
1.62912e-12
2.84711e-12
1.59983e-12
2.66501e-12
1.55246e-12
2.49262e-12
1.49587e-12
2.33521e-12
1.43933e-12
2.1931e-12
1.36578e-12
2.06409e-12
1.28828e-12
1.94745e-12
1.21313e-12
1.84351e-12
1.13769e-12
1.74819e-12
1.06572e-12
1.66343e-12
9.9681e-13
1.58817e-12
9.28379e-13
1.52041e-12