/*--------------------------------*- C++ -*----------------------------------*\
  =========                 |
  \\      /  F ield         | OpenFOAM: The Open Source CFD Toolbox
   \\    /   O peration     | Website:  https://openfoam.org
    \\  /    A nd           | Version:  6
     \\/     M anipulation  |
\*---------------------------------------------------------------------------*/
FoamFile
{
    version     2.0;
    format      ascii;
    class       volVectorField;
    location    "10000";
    object      U;
}
// * * * * * * * * * * * * * * * * * * * * * * * * * * * * * * * * * * * * * //

dimensions      [0 1 -1 0 0 0 0];

internalField   nonuniform List<vector> 
4800
(
(1.10949e-07 0 -1.03042e-07)
(3.19943e-07 0 -1.01112e-07)
(5.18965e-07 0 -9.80246e-08)
(7.08727e-07 0 -8.99844e-08)
(8.78414e-07 0 -7.94506e-08)
(1.02482e-06 0 -6.80425e-08)
(1.14764e-06 0 -5.64412e-08)
(1.24728e-06 0 -4.51252e-08)
(1.32481e-06 0 -3.44825e-08)
(1.38195e-06 0 -2.47861e-08)
(1.42084e-06 0 -1.61497e-08)
(1.44376e-06 0 -8.57065e-09)
(1.45287e-06 0 -1.83489e-09)
(1.44933e-06 0 4.00604e-09)
(1.43666e-06 0 8.38075e-09)
(1.41563e-06 0 1.20814e-08)
(1.38766e-06 0 1.55756e-08)
(1.35384e-06 0 1.78424e-08)
(1.31564e-06 0 1.96183e-08)
(1.27457e-06 0 2.07213e-08)
(1.23146e-06 0 2.21338e-08)
(1.18639e-06 0 2.25399e-08)
(1.14014e-06 0 2.25627e-08)
(1.09407e-06 0 2.25155e-08)
(1.0486e-06 0 2.21223e-08)
(1.00378e-06 0 2.16673e-08)
(9.59878e-07 0 2.11203e-08)
(9.17271e-07 0 2.03175e-08)
(8.76322e-07 0 1.9485e-08)
(8.37086e-07 0 1.86594e-08)
(7.99524e-07 0 1.78686e-08)
(7.63713e-07 0 1.70311e-08)
(7.29686e-07 0 1.62691e-08)
(6.97398e-07 0 1.5463e-08)
(6.6681e-07 0 1.46929e-08)
(6.37879e-07 0 1.40195e-08)
(6.10499e-07 0 1.32997e-08)
(5.84556e-07 0 1.26328e-08)
(5.59934e-07 0 1.19101e-08)
(5.36533e-07 0 1.11977e-08)
(5.1426e-07 0 1.05642e-08)
(4.93019e-07 0 1.00437e-08)
(4.72715e-07 0 9.59244e-09)
(4.53275e-07 0 9.14596e-09)
(4.34624e-07 0 8.8061e-09)
(4.16691e-07 0 8.43435e-09)
(3.9936e-07 0 8.17937e-09)
(3.82535e-07 0 7.8685e-09)
(3.66232e-07 0 7.60823e-09)
(3.5045e-07 0 7.36242e-09)
(3.35135e-07 0 7.11472e-09)
(3.20251e-07 0 6.91366e-09)
(3.05741e-07 0 6.70828e-09)
(2.91576e-07 0 6.49636e-09)
(2.77767e-07 0 6.30929e-09)
(2.6429e-07 0 6.1099e-09)
(2.51142e-07 0 5.92854e-09)
(2.38323e-07 0 5.72528e-09)
(2.25807e-07 0 5.56338e-09)
(2.1356e-07 0 5.38574e-09)
(2.01576e-07 0 5.19835e-09)
(1.89895e-07 0 5.00953e-09)
(1.7851e-07 0 4.84099e-09)
(1.67387e-07 0 4.67021e-09)
(1.5652e-07 0 4.49347e-09)
(1.45915e-07 0 4.31485e-09)
(1.35574e-07 0 4.14136e-09)
(1.25491e-07 0 3.95653e-09)
(1.15644e-07 0 3.80043e-09)
(1.06053e-07 0 3.61119e-09)
(9.67878e-08 0 3.41248e-09)
(8.78842e-08 0 3.21891e-09)
(7.94609e-08 0 2.9777e-09)
(7.18297e-08 0 2.68819e-09)
(6.58981e-08 0 2.19832e-09)
(6.39984e-08 0 8.38011e-10)
(6.8383e-08 0 -1.25053e-08)
(6.35797e-08 0 6.34066e-10)
(1.52251e-10 0 2.24046e-08)
(6.14396e-16 0 -1.88761e-16)
(1.76867e-16 0 -4.1359e-19)
(3.50704e-16 0 1.36485e-18)
(3.43021e-16 0 1.77844e-18)
(3.30748e-16 0 1.99557e-18)
(3.1925e-16 0 2.20237e-18)
(3.08797e-16 0 2.44018e-18)
(2.9914e-16 0 2.70902e-18)
(2.9003e-16 0 2.96751e-18)
(2.81272e-16 0 3.21566e-18)
(2.72732e-16 0 3.46382e-18)
(2.64305e-16 0 3.68095e-18)
(2.55899e-16 0 3.87741e-18)
(2.47461e-16 0 4.05319e-18)
(2.38973e-16 0 4.20828e-18)
(2.3037e-16 0 4.32202e-18)
(2.21622e-16 0 4.43576e-18)
(2.12782e-16 0 4.50813e-18)
(2.03869e-16 0 4.55983e-18)
(1.94801e-16 0 4.58051e-18)
(1.8563e-16 0 4.59085e-18)
(1.76417e-16 0 4.59085e-18)
(1.67132e-16 0 4.54949e-18)
(1.57764e-16 0 4.4978e-18)
(1.48355e-16 0 4.41508e-18)
(1.38946e-16 0 4.3427e-18)
(1.29495e-16 0 4.24964e-18)
(1.20055e-16 0 4.16692e-18)
(1.10666e-16 0 4.06353e-18)
(1.01319e-16 0 3.94979e-18)
(9.20239e-17 0 3.81537e-18)
(8.27801e-17 0 3.70163e-18)
(7.35777e-17 0 3.57756e-18)
(6.44374e-17 0 3.45348e-18)
(5.53797e-17 0 3.36042e-18)
(4.64359e-17 0 3.24668e-18)
(3.7585e-17 0 3.14329e-18)
(2.87859e-17 0 3.03989e-18)
(2.01315e-17 0 2.92615e-18)
(1.16943e-17 0 2.75038e-18)
(3.76367e-18 0 2.32645e-18)
(1.0072e-07 0 -3.27686e-07)
(3.40636e-07 0 -3.11531e-07)
(5.34855e-07 0 -2.95584e-07)
(7.28273e-07 0 -2.68422e-07)
(9.01022e-07 0 -2.34742e-07)
(1.04838e-06 0 -1.98813e-07)
(1.17081e-06 0 -1.62884e-07)
(1.26922e-06 0 -1.28397e-07)
(1.34494e-06 0 -9.64243e-08)
(1.39996e-06 0 -6.75953e-08)
(1.43659e-06 0 -4.22627e-08)
(1.45736e-06 0 -2.02815e-08)
(1.4643e-06 0 -6.4331e-10)
(1.45895e-06 0 1.51806e-08)
(1.44479e-06 0 2.79097e-08)
(1.42235e-06 0 3.86322e-08)
(1.393e-06 0 4.88029e-08)
(1.358e-06 0 5.54514e-08)
(1.31886e-06 0 6.06906e-08)
(1.277e-06 0 6.40165e-08)
(1.23297e-06 0 6.84201e-08)
(1.18713e-06 0 6.97988e-08)
(1.14036e-06 0 6.99337e-08)
(1.09383e-06 0 6.99474e-08)
(1.04791e-06 0 6.87934e-08)
(1.00273e-06 0 6.75201e-08)
(9.58567e-07 0 6.59097e-08)
(9.15771e-07 0 6.34671e-08)
(8.74676e-07 0 6.09145e-08)
(8.35336e-07 0 5.84328e-08)
(7.97733e-07 0 5.56952e-08)
(7.61926e-07 0 5.2984e-08)
(7.2794e-07 0 5.02214e-08)
(6.95703e-07 0 4.75972e-08)
(6.65203e-07 0 4.4902e-08)
(6.36348e-07 0 4.24506e-08)
(6.09042e-07 0 4.01604e-08)
(5.83192e-07 0 3.81249e-08)
(5.5868e-07 0 3.63124e-08)
(5.354e-07 0 3.46461e-08)
(5.13247e-07 0 3.30419e-08)
(4.92081e-07 0 3.14939e-08)
(4.71857e-07 0 3.01494e-08)
(4.52517e-07 0 2.8831e-08)
(4.33913e-07 0 2.78197e-08)
(4.16026e-07 0 2.67845e-08)
(3.9877e-07 0 2.60527e-08)
(3.82031e-07 0 2.51502e-08)
(3.65778e-07 0 2.43447e-08)
(3.50044e-07 0 2.36194e-08)
(3.34776e-07 0 2.29058e-08)
(3.19919e-07 0 2.23658e-08)
(3.05432e-07 0 2.18548e-08)
(2.9129e-07 0 2.12818e-08)
(2.77483e-07 0 2.08143e-08)
(2.64018e-07 0 2.02777e-08)
(2.50877e-07 0 1.98288e-08)
(2.38062e-07 0 1.93477e-08)
(2.25542e-07 0 1.90163e-08)
(2.13302e-07 0 1.8597e-08)
(2.0134e-07 0 1.81665e-08)
(1.89678e-07 0 1.77249e-08)
(1.78306e-07 0 1.73435e-08)
(1.67198e-07 0 1.6974e-08)
(1.56333e-07 0 1.66202e-08)
(1.45736e-07 0 1.62318e-08)
(1.35391e-07 0 1.59187e-08)
(1.25277e-07 0 1.5586e-08)
(1.15415e-07 0 1.52675e-08)
(1.05836e-07 0 1.48512e-08)
(9.65169e-08 0 1.44411e-08)
(8.74822e-08 0 1.3962e-08)
(7.87603e-08 0 1.33302e-08)
(7.03613e-08 0 1.24089e-08)
(6.20062e-08 0 1.03309e-08)
(5.43245e-08 0 5.20118e-09)
(3.29179e-08 0 -1.02206e-08)
(2.36939e-08 0 4.74941e-08)
(1.1754e-10 0 5.08772e-08)
(5.59424e-16 0 -4.9402e-16)
(1.78654e-16 0 -1.11669e-18)
(3.52896e-16 0 1.80946e-18)
(3.43642e-16 0 3.17431e-18)
(3.31151e-16 0 4.24964e-18)
(3.19705e-16 0 5.3043e-18)
(3.09314e-16 0 6.37963e-18)
(2.99657e-16 0 7.42395e-18)
(2.90527e-16 0 8.41656e-18)
(2.81758e-16 0 9.35748e-18)
(2.73197e-16 0 1.02157e-17)
(2.64729e-16 0 1.09705e-17)
(2.56271e-16 0 1.16322e-17)
(2.47792e-16 0 1.22113e-17)
(2.39241e-16 0 1.26765e-17)
(2.30597e-16 0 1.30591e-17)
(2.21809e-16 0 1.33486e-17)
(2.12916e-16 0 1.35554e-17)
(2.03962e-16 0 1.36692e-17)
(1.94842e-16 0 1.36898e-17)
(1.8563e-16 0 1.36588e-17)
(1.76376e-16 0 1.35658e-17)
(1.67028e-16 0 1.34003e-17)
(1.5763e-16 0 1.31625e-17)
(1.4821e-16 0 1.28833e-17)
(1.3877e-16 0 1.25628e-17)
(1.29319e-16 0 1.22009e-17)
(1.19879e-16 0 1.18494e-17)
(1.1047e-16 0 1.14565e-17)
(1.01071e-16 0 1.10429e-17)
(9.17654e-17 0 1.06189e-17)
(8.25423e-17 0 1.01847e-17)
(7.33399e-17 0 9.74005e-18)
(6.42306e-17 0 9.35748e-18)
(5.51833e-17 0 8.99559e-18)
(4.62187e-17 0 8.65438e-18)
(3.73679e-17 0 8.32351e-18)
(2.85791e-17 0 8.00297e-18)
(1.9842e-17 0 7.73414e-18)
(1.10842e-17 0 7.40327e-18)
(3.33974e-18 0 6.89662e-18)
(1.01133e-07 0 -5.56402e-07)
(3.65303e-07 0 -5.34275e-07)
(5.66148e-07 0 -5.04005e-07)
(7.6857e-07 0 -4.57055e-07)
(9.47517e-07 0 -3.98889e-07)
(1.09695e-06 0 -3.36528e-07)
(1.21855e-06 0 -2.74592e-07)
(1.31433e-06 0 -2.15602e-07)
(1.3863e-06 0 -1.61209e-07)
(1.43693e-06 0 -1.12406e-07)
(1.46906e-06 0 -6.96975e-08)
(1.48519e-06 0 -3.32846e-08)
(1.48762e-06 0 8.10097e-10)
(1.47909e-06 0 2.67196e-08)
(1.46158e-06 0 4.75057e-08)
(1.43619e-06 0 6.63282e-08)
(1.40397e-06 0 8.24881e-08)
(1.36639e-06 0 9.34008e-08)
(1.32523e-06 0 1.01812e-07)
(1.28167e-06 0 1.07829e-07)
(1.2358e-06 0 1.14291e-07)
(1.18838e-06 0 1.16342e-07)
(1.14057e-06 0 1.16416e-07)
(1.09313e-06 0 1.16293e-07)
(1.04636e-06 0 1.13962e-07)
(1.00046e-06 0 1.11885e-07)
(9.55792e-07 0 1.08906e-07)
(9.12635e-07 0 1.04734e-07)
(8.71287e-07 0 1.00498e-07)
(8.318e-07 0 9.61546e-08)
(7.94126e-07 0 9.17569e-08)
(7.58367e-07 0 8.70837e-08)
(7.24423e-07 0 8.27683e-08)
(6.92302e-07 0 7.82302e-08)
(6.61968e-07 0 7.40132e-08)
(6.33316e-07 0 7.00427e-08)
(6.06206e-07 0 6.62201e-08)
(5.8053e-07 0 6.27302e-08)
(5.56194e-07 0 5.94097e-08)
(5.33119e-07 0 5.62691e-08)
(5.11162e-07 0 5.38994e-08)
(4.90225e-07 0 5.14465e-08)
(4.70173e-07 0 4.91982e-08)
(4.50963e-07 0 4.7245e-08)
(4.32508e-07 0 4.54435e-08)
(4.14775e-07 0 4.36057e-08)
(3.97646e-07 0 4.23878e-08)
(3.8102e-07 0 4.10012e-08)
(3.64832e-07 0 3.96765e-08)
(3.49133e-07 0 3.8516e-08)
(3.33912e-07 0 3.73452e-08)
(3.19112e-07 0 3.63973e-08)
(3.04675e-07 0 3.55229e-08)
(2.90555e-07 0 3.45464e-08)
(2.76759e-07 0 3.37629e-08)
(2.63312e-07 0 3.28658e-08)
(2.50188e-07 0 3.20725e-08)
(2.37407e-07 0 3.12091e-08)
(2.24915e-07 0 3.0554e-08)
(2.12697e-07 0 2.9811e-08)
(2.00743e-07 0 2.90402e-08)
(1.89086e-07 0 2.82759e-08)
(1.777e-07 0 2.76128e-08)
(1.66586e-07 0 2.69519e-08)
(1.55739e-07 0 2.62942e-08)
(1.45149e-07 0 2.56108e-08)
(1.34798e-07 0 2.49984e-08)
(1.24699e-07 0 2.43423e-08)
(1.14834e-07 0 2.36975e-08)
(1.05217e-07 0 2.2993e-08)
(9.58365e-08 0 2.2288e-08)
(8.66736e-08 0 2.14917e-08)
(7.76344e-08 0 2.0609e-08)
(6.86225e-08 0 1.93334e-08)
(5.89905e-08 0 1.75898e-08)
(4.90863e-08 0 1.52119e-08)
(2.82161e-08 0 1.2187e-08)
(1.76504e-08 0 5.58447e-08)
(1.11798e-10 0 6.54993e-08)
(5.38858e-16 0 -7.50966e-16)
(1.79795e-16 0 -1.69572e-18)
(3.54995e-16 0 8.6854e-19)
(3.45462e-16 0 3.21566e-18)
(3.32878e-16 0 5.45939e-18)
(3.2138e-16 0 7.66176e-18)
(3.10917e-16 0 9.80209e-18)
(3.01176e-16 0 1.17873e-17)
(2.91953e-16 0 1.36692e-17)
(2.83061e-16 0 1.54062e-17)
(2.74355e-16 0 1.69572e-17)
(2.65742e-16 0 1.83221e-17)
(2.5715e-16 0 1.95111e-17)
(2.48526e-16 0 2.04934e-17)
(2.3982e-16 0 2.12999e-17)
(2.31042e-16 0 2.1941e-17)
(2.22119e-16 0 2.23649e-17)
(2.13092e-16 0 2.26751e-17)
(2.04014e-16 0 2.28198e-17)
(1.94801e-16 0 2.27992e-17)
(1.85495e-16 0 2.26648e-17)
(1.76158e-16 0 2.24166e-17)
(1.66729e-16 0 2.20444e-17)
(1.57247e-16 0 2.15998e-17)
(1.47755e-16 0 2.10621e-17)
(1.38253e-16 0 2.04314e-17)
(1.28782e-16 0 1.97489e-17)
(1.1931e-16 0 1.90355e-17)
(1.0986e-16 0 1.8291e-17)
(1.00471e-16 0 1.75052e-17)
(9.11553e-17 0 1.67504e-17)
(8.19116e-17 0 1.59646e-17)
(7.27712e-17 0 1.51891e-17)
(6.37136e-17 0 1.44757e-17)
(5.46766e-17 0 1.38036e-17)
(4.57534e-17 0 1.32142e-17)
(3.69336e-17 0 1.26559e-17)
(2.81965e-17 0 1.21699e-17)
(1.95318e-17 0 1.1777e-17)
(1.08464e-17 0 1.14565e-17)
(3.24668e-18 0 1.12807e-17)
(1.07229e-07 0 -8.04531e-07)
(4.02963e-07 0 -7.69993e-07)
(6.17303e-07 0 -7.22019e-07)
(8.33325e-07 0 -6.50452e-07)
(1.02111e-06 0 -5.62873e-07)
(1.17294e-06 0 -4.69744e-07)
(1.29217e-06 0 -3.79187e-07)
(1.38296e-06 0 -2.94283e-07)
(1.44854e-06 0 -2.16973e-07)
(1.49201e-06 0 -1.48058e-07)
(1.51671e-06 0 -8.94331e-08)
(1.5258e-06 0 -3.65303e-08)
(1.52189e-06 0 7.90443e-09)
(1.50851e-06 0 4.34035e-08)
(1.4859e-06 0 7.19286e-08)
(1.45605e-06 0 9.89242e-08)
(1.41991e-06 0 1.19803e-07)
(1.37867e-06 0 1.34715e-07)
(1.33436e-06 0 1.45782e-07)
(1.28821e-06 0 1.55061e-07)
(1.2398e-06 0 1.62713e-07)
(1.19006e-06 0 1.65424e-07)
(1.14066e-06 0 1.65265e-07)
(1.09186e-06 0 1.64824e-07)
(1.04391e-06 0 1.60914e-07)
(9.96887e-07 0 1.58133e-07)
(9.5149e-07 0 1.53512e-07)
(9.07823e-07 0 1.47384e-07)
(8.66088e-07 0 1.4126e-07)
(8.26335e-07 0 1.35144e-07)
(7.88609e-07 0 1.28599e-07)
(7.52885e-07 0 1.22165e-07)
(7.19055e-07 0 1.15877e-07)
(6.87081e-07 0 1.0951e-07)
(6.56977e-07 0 1.03485e-07)
(6.28621e-07 0 9.79196e-08)
(6.01845e-07 0 9.2595e-08)
(5.76483e-07 0 8.7844e-08)
(5.52468e-07 0 8.3403e-08)
(5.29702e-07 0 7.91393e-08)
(5.08011e-07 0 7.53338e-08)
(4.87317e-07 0 7.19944e-08)
(4.67596e-07 0 6.87759e-08)
(4.48682e-07 0 6.5902e-08)
(4.30438e-07 0 6.34478e-08)
(4.12873e-07 0 6.10142e-08)
(3.95918e-07 0 5.93403e-08)
(3.79501e-07 0 5.74068e-08)
(3.63434e-07 0 5.55361e-08)
(3.47797e-07 0 5.39409e-08)
(3.32679e-07 0 5.22413e-08)
(3.17936e-07 0 5.09728e-08)
(3.03538e-07 0 4.98421e-08)
(2.89482e-07 0 4.84549e-08)
(2.75727e-07 0 4.73676e-08)
(2.62343e-07 0 4.60757e-08)
(2.49244e-07 0 4.4959e-08)
(2.36476e-07 0 4.38093e-08)
(2.23976e-07 0 4.29256e-08)
(2.1179e-07 0 4.18824e-08)
(1.99874e-07 0 4.08045e-08)
(1.88226e-07 0 3.97737e-08)
(1.76864e-07 0 3.88028e-08)
(1.65784e-07 0 3.78374e-08)
(1.54962e-07 0 3.69038e-08)
(1.44387e-07 0 3.59907e-08)
(1.34033e-07 0 3.51405e-08)
(1.23909e-07 0 3.42829e-08)
(1.14036e-07 0 3.33976e-08)
(1.04406e-07 0 3.24381e-08)
(9.49667e-08 0 3.15204e-08)
(8.57137e-08 0 3.05116e-08)
(7.65804e-08 0 2.94621e-08)
(6.744e-08 0 2.82726e-08)
(5.7885e-08 0 2.70437e-08)
(4.90451e-08 0 2.59186e-08)
(3.43228e-08 0 2.73534e-08)
(1.84172e-08 0 6.58127e-08)
(1.1007e-10 0 7.71748e-08)
(5.45939e-16 0 -1.06606e-15)
(1.81224e-16 0 -2.38848e-18)
(3.57818e-16 0 9.61598e-19)
(3.48253e-16 0 4.2393e-18)
(3.35618e-16 0 7.50666e-18)
(3.24027e-16 0 1.07017e-17)
(3.1345e-16 0 1.37726e-17)
(3.03544e-16 0 1.6647e-17)
(2.94125e-16 0 1.93353e-17)
(2.85036e-16 0 2.17755e-17)
(2.76123e-16 0 2.39882e-17)
(2.67293e-16 0 2.59114e-17)
(2.58453e-16 0 2.75761e-17)
(2.49581e-16 0 2.89513e-17)
(2.40668e-16 0 3.00887e-17)
(2.31673e-16 0 3.09159e-17)
(2.22563e-16 0 3.15052e-17)
(2.13361e-16 0 3.18878e-17)
(2.04076e-16 0 3.20429e-17)
(1.94698e-16 0 3.20016e-17)
(1.85257e-16 0 3.17534e-17)
(1.75745e-16 0 3.13501e-17)
(1.66212e-16 0 3.07815e-17)
(1.56647e-16 0 3.01094e-17)
(1.47031e-16 0 2.93339e-17)
(1.37467e-16 0 2.84343e-17)
(1.27934e-16 0 2.74314e-17)
(1.18401e-16 0 2.63664e-17)
(1.08919e-16 0 2.52807e-17)
(9.95305e-17 0 2.41537e-17)
(9.02144e-17 0 2.30266e-17)
(8.0981e-17 0 2.19203e-17)
(7.1851e-17 0 2.0845e-17)
(6.28347e-17 0 1.97903e-17)
(5.39012e-17 0 1.88287e-17)
(4.50503e-17 0 1.79705e-17)
(3.63339e-17 0 1.72054e-17)
(2.77002e-17 0 1.65746e-17)
(1.91182e-17 0 1.6037e-17)
(1.05879e-17 0 1.56647e-17)
(3.16397e-18 0 1.54683e-17)
(1.16983e-07 0 -1.08137e-06)
(4.5739e-07 0 -1.02989e-06)
(6.93023e-07 0 -9.60351e-07)
(9.28014e-07 0 -8.5726e-07)
(1.12713e-06 0 -7.32935e-07)
(1.28078e-06 0 -6.01799e-07)
(1.39449e-06 0 -4.79035e-07)
(1.47676e-06 0 -3.65919e-07)
(1.53271e-06 0 -2.64646e-07)
(1.56505e-06 0 -1.77133e-07)
(1.57908e-06 0 -9.91062e-08)
(1.57892e-06 0 -3.24408e-08)
(1.56779e-06 0 2.02964e-08)
(1.54673e-06 0 6.57998e-08)
(1.51747e-06 0 1.01215e-07)
(1.48143e-06 0 1.36473e-07)
(1.44017e-06 0 1.61388e-07)
(1.3945e-06 0 1.80561e-07)
(1.34639e-06 0 1.91598e-07)
(1.29616e-06 0 2.06684e-07)
(1.24464e-06 0 2.12949e-07)
(1.19204e-06 0 2.1607e-07)
(1.14045e-06 0 2.15758e-07)
(1.08969e-06 0 2.14617e-07)
(1.04021e-06 0 2.0906e-07)
(9.91783e-07 0 2.05235e-07)
(9.45432e-07 0 1.9862e-07)
(9.011e-07 0 1.90514e-07)
(8.58887e-07 0 1.82356e-07)
(8.18857e-07 0 1.74059e-07)
(7.81038e-07 0 1.65463e-07)
(7.45407e-07 0 1.56934e-07)
(7.11745e-07 0 1.48784e-07)
(6.80089e-07 0 1.40315e-07)
(6.50318e-07 0 1.32523e-07)
(6.2237e-07 0 1.25147e-07)
(5.96017e-07 0 1.1835e-07)
(5.71089e-07 0 1.12171e-07)
(5.47529e-07 0 1.06288e-07)
(5.25216e-07 0 1.01003e-07)
(5.03923e-07 0 9.65208e-08)
(4.83678e-07 0 9.17899e-08)
(4.64262e-07 0 8.78694e-08)
(4.45644e-07 0 8.44237e-08)
(4.27664e-07 0 8.13865e-08)
(4.10381e-07 0 7.80278e-08)
(3.93635e-07 0 7.59449e-08)
(3.775e-07 0 7.36549e-08)
(3.61644e-07 0 7.12276e-08)
(3.46051e-07 0 6.92349e-08)
(3.31019e-07 0 6.7105e-08)
(3.16397e-07 0 6.54524e-08)
(3.02096e-07 0 6.3998e-08)
(2.88134e-07 0 6.22306e-08)
(2.74412e-07 0 6.08478e-08)
(2.61061e-07 0 5.92519e-08)
(2.47985e-07 0 5.78536e-08)
(2.35253e-07 0 5.63697e-08)
(2.2277e-07 0 5.51905e-08)
(2.10619e-07 0 5.38395e-08)
(1.98748e-07 0 5.2483e-08)
(1.87141e-07 0 5.11616e-08)
(1.75805e-07 0 4.99276e-08)
(1.64724e-07 0 4.8755e-08)
(1.5391e-07 0 4.7546e-08)
(1.43339e-07 0 4.64443e-08)
(1.32996e-07 0 4.53356e-08)
(1.22874e-07 0 4.42264e-08)
(1.13001e-07 0 4.30923e-08)
(1.03347e-07 0 4.19373e-08)
(9.3874e-08 0 4.08119e-08)
(8.4619e-08 0 3.9609e-08)
(7.55611e-08 0 3.84349e-08)
(6.66921e-08 0 3.73116e-08)
(5.77769e-08 0 3.65961e-08)
(5.0037e-08 0 3.64534e-08)
(3.78723e-08 0 3.94889e-08)
(1.95114e-08 0 8.40626e-08)
(1.08509e-10 0 9.14303e-08)
(5.55899e-16 0 -1.41926e-15)
(1.83155e-16 0 -3.16397e-18)
(3.61633e-16 0 1.19941e-18)
(3.52017e-16 0 5.51109e-18)
(3.39341e-16 0 9.79175e-18)
(3.27646e-16 0 1.39897e-17)
(3.16862e-16 0 1.80119e-17)
(3.06729e-16 0 2.17962e-17)
(2.97051e-16 0 2.5291e-17)
(2.87693e-16 0 2.84447e-17)
(2.78491e-16 0 3.12674e-17)
(2.6933e-16 0 3.37386e-17)
(2.60179e-16 0 3.58273e-17)
(2.51018e-16 0 3.75954e-17)
(2.41785e-16 0 3.90222e-17)
(2.32469e-16 0 4.00459e-17)
(2.23091e-16 0 4.07903e-17)
(2.1363e-16 0 4.12246e-17)
(2.04128e-16 0 4.13694e-17)
(1.94522e-16 0 4.12556e-17)
(1.84865e-16 0 4.09144e-17)
(1.75187e-16 0 4.03354e-17)
(1.65477e-16 0 3.95703e-17)
(1.55789e-16 0 3.86293e-17)
(1.4607e-16 0 3.75747e-17)
(1.36361e-16 0 3.63856e-17)
(1.26734e-16 0 3.50518e-17)
(1.1716e-16 0 3.36456e-17)
(1.07647e-16 0 3.21877e-17)
(9.82277e-17 0 3.07194e-17)
(8.89116e-17 0 2.92305e-17)
(7.97195e-17 0 2.77726e-17)
(7.06412e-17 0 2.63457e-17)
(6.16767e-17 0 2.49912e-17)
(5.28465e-17 0 2.37297e-17)
(4.41404e-17 0 2.25924e-17)
(3.55378e-17 0 2.16204e-17)
(2.70385e-17 0 2.08036e-17)
(1.86322e-17 0 2.01418e-17)
(1.02777e-17 0 1.96869e-17)
(3.05023e-18 0 1.94491e-17)
(1.30199e-07 0 -1.39791e-06)
(5.35417e-07 0 -1.32631e-06)
(8.02265e-07 0 -1.22821e-06)
(1.06268e-06 0 -1.07969e-06)
(1.27372e-06 0 -9.07445e-07)
(1.42677e-06 0 -7.3033e-07)
(1.52922e-06 0 -5.69378e-07)
(1.5977e-06 0 -4.2626e-07)
(1.63762e-06 0 -3.02114e-07)
(1.65636e-06 0 -1.84616e-07)
(1.65634e-06 0 -9.9311e-08)
(1.64512e-06 0 -2.2448e-08)
(1.62334e-06 0 4.254e-08)
(1.59287e-06 0 9.51665e-08)
(1.55555e-06 0 1.39523e-07)
(1.51207e-06 0 1.78855e-07)
(1.46408e-06 0 2.0773e-07)
(1.41306e-06 0 2.30693e-07)
(1.36063e-06 0 2.43623e-07)
(1.30535e-06 0 2.61101e-07)
(1.24965e-06 0 2.66683e-07)
(1.19389e-06 0 2.69877e-07)
(1.13963e-06 0 2.68775e-07)
(1.08633e-06 0 2.65996e-07)
(1.03488e-06 0 2.59038e-07)
(9.84871e-07 0 2.53574e-07)
(9.37347e-07 0 2.44572e-07)
(8.9224e-07 0 2.34129e-07)
(8.49534e-07 0 2.23713e-07)
(8.09204e-07 0 2.1302e-07)
(7.7131e-07 0 2.02214e-07)
(7.35823e-07 0 1.91579e-07)
(7.0243e-07 0 1.81276e-07)
(6.71173e-07 0 1.70777e-07)
(6.41869e-07 0 1.61252e-07)
(6.14499e-07 0 1.52077e-07)
(5.88696e-07 0 1.43812e-07)
(5.64346e-07 0 1.36172e-07)
(5.41349e-07 0 1.28982e-07)
(5.19583e-07 0 1.22478e-07)
(4.98871e-07 0 1.16808e-07)
(4.79066e-07 0 1.11627e-07)
(4.60135e-07 0 1.06675e-07)
(4.41928e-07 0 1.02454e-07)
(4.24349e-07 0 9.87056e-08)
(4.07383e-07 0 9.48445e-08)
(3.9089e-07 0 9.19662e-08)
(3.74951e-07 0 8.97466e-08)
(3.59404e-07 0 8.68237e-08)
(3.43919e-07 0 8.43818e-08)
(3.28979e-07 0 8.18415e-08)
(3.14472e-07 0 7.98019e-08)
(3.00261e-07 0 7.80688e-08)
(2.86407e-07 0 7.59725e-08)
(2.72736e-07 0 7.43229e-08)
(2.59454e-07 0 7.23106e-08)
(2.46416e-07 0 7.06229e-08)
(2.33743e-07 0 6.8828e-08)
(2.21288e-07 0 6.74047e-08)
(2.09181e-07 0 6.56994e-08)
(1.97306e-07 0 6.41171e-08)
(1.85739e-07 0 6.24519e-08)
(1.74433e-07 0 6.09692e-08)
(1.63427e-07 0 5.9498e-08)
(1.52666e-07 0 5.80139e-08)
(1.42105e-07 0 5.6698e-08)
(1.31763e-07 0 5.53873e-08)
(1.21662e-07 0 5.40214e-08)
(1.11785e-07 0 5.26785e-08)
(1.02095e-07 0 5.1332e-08)
(9.26213e-08 0 4.99811e-08)
(8.33829e-08 0 4.85699e-08)
(7.44277e-08 0 4.71443e-08)
(6.59094e-08 0 4.57729e-08)
(5.74457e-08 0 4.50048e-08)
(5.09755e-08 0 4.40296e-08)
(4.23498e-08 0 4.71105e-08)
(2.13289e-08 0 1.0531e-07)
(1.0664e-10 0 1.04904e-07)
(5.6442e-16 0 -1.75721e-15)
(1.8561e-16 0 -3.90843e-18)
(3.66493e-16 0 1.53028e-18)
(3.56835e-16 0 6.94832e-18)
(3.44097e-16 0 1.23147e-17)
(3.32268e-16 0 1.75672e-17)
(3.21246e-16 0 2.2551e-17)
(3.10813e-16 0 2.72556e-17)
(3.00784e-16 0 3.15776e-17)
(2.91023e-16 0 3.54757e-17)
(2.81417e-16 0 3.89085e-17)
(2.71853e-16 0 4.19174e-17)
(2.62309e-16 0 4.44403e-17)
(2.52766e-16 0 4.65289e-17)
(2.43129e-16 0 4.81936e-17)
(2.33441e-16 0 4.9424e-17)
(2.23721e-16 0 5.02616e-17)
(2.1393e-16 0 5.07372e-17)
(2.04107e-16 0 5.08509e-17)
(1.94243e-16 0 5.06131e-17)
(1.84348e-16 0 5.01271e-17)
(1.74411e-16 0 4.93723e-17)
(1.64506e-16 0 4.83901e-17)
(1.54641e-16 0 4.71803e-17)
(1.44767e-16 0 4.57741e-17)
(1.34944e-16 0 4.42542e-17)
(1.25204e-16 0 4.25895e-17)
(1.15536e-16 0 4.08214e-17)
(1.05993e-16 0 3.90119e-17)
(9.65733e-17 0 3.71508e-17)
(8.72572e-17 0 3.52999e-17)
(7.80962e-17 0 3.34905e-17)
(6.90903e-17 0 3.16914e-17)
(6.02291e-17 0 3.00163e-17)
(5.15023e-17 0 2.8455e-17)
(4.29514e-17 0 2.70591e-17)
(3.45451e-17 0 2.58597e-17)
(2.62113e-17 0 2.48464e-17)
(1.80119e-17 0 2.40606e-17)
(9.90549e-18 0 2.35023e-17)
(2.92615e-18 0 2.32128e-17)
(1.4874e-07 0 -1.77008e-06)
(6.32279e-07 0 -1.69129e-06)
(9.70019e-07 0 -1.52847e-06)
(1.25514e-06 0 -1.31462e-06)
(1.4649e-06 0 -1.09031e-06)
(1.62301e-06 0 -8.36362e-07)
(1.70123e-06 0 -6.40878e-07)
(1.74691e-06 0 -4.66163e-07)
(1.76464e-06 0 -3.14758e-07)
(1.76282e-06 0 -1.90442e-07)
(1.74766e-06 0 -8.65559e-08)
(1.72141e-06 0 1.99504e-09)
(1.68681e-06 0 7.51334e-08)
(1.64561e-06 0 1.33739e-07)
(1.59889e-06 0 1.86876e-07)
(1.54726e-06 0 2.29151e-07)
(1.49158e-06 0 2.60324e-07)
(1.43392e-06 0 2.84998e-07)
(1.37595e-06 0 3.02346e-07)
(1.3152e-06 0 3.19361e-07)
(1.25446e-06 0 3.2466e-07)
(1.195e-06 0 3.27385e-07)
(1.13759e-06 0 3.24905e-07)
(1.08142e-06 0 3.19438e-07)
(1.0276e-06 0 3.11052e-07)
(9.75711e-07 0 3.03324e-07)
(9.26762e-07 0 2.91627e-07)
(8.80879e-07 0 2.78374e-07)
(8.37646e-07 0 2.65778e-07)
(7.97159e-07 0 2.52206e-07)
(7.59255e-07 0 2.38771e-07)
(7.23917e-07 0 2.2599e-07)
(6.90926e-07 0 2.13445e-07)
(6.60293e-07 0 2.00759e-07)
(6.31733e-07 0 1.89115e-07)
(6.05044e-07 0 1.78268e-07)
(5.79926e-07 0 1.68455e-07)
(5.56276e-07 0 1.59429e-07)
(5.3401e-07 0 1.50922e-07)
(5.12887e-07 0 1.43463e-07)
(4.92841e-07 0 1.36616e-07)
(4.73655e-07 0 1.30468e-07)
(4.55303e-07 0 1.24787e-07)
(4.37513e-07 0 1.20214e-07)
(4.20433e-07 0 1.15601e-07)
(4.03733e-07 0 1.11798e-07)
(3.87679e-07 0 1.07621e-07)
(3.71933e-07 0 1.05504e-07)
(3.56799e-07 0 1.02236e-07)
(3.41556e-07 0 9.92548e-08)
(3.26664e-07 0 9.64361e-08)
(3.12261e-07 0 9.39596e-08)
(2.98136e-07 0 9.19826e-08)
(2.8441e-07 0 8.95558e-08)
(2.70768e-07 0 8.76842e-08)
(2.57522e-07 0 8.53469e-08)
(2.4452e-07 0 8.33492e-08)
(2.31912e-07 0 8.12629e-08)
(2.19509e-07 0 7.95427e-08)
(2.07446e-07 0 7.7555e-08)
(1.95595e-07 0 7.5672e-08)
(1.84071e-07 0 7.37324e-08)
(1.72814e-07 0 7.19572e-08)
(1.61823e-07 0 7.02556e-08)
(1.51137e-07 0 6.84847e-08)
(1.40572e-07 0 6.70517e-08)
(1.30301e-07 0 6.54195e-08)
(1.20228e-07 0 6.38123e-08)
(1.10344e-07 0 6.23032e-08)
(1.00643e-07 0 6.07708e-08)
(9.11294e-08 0 5.92108e-08)
(8.18431e-08 0 5.75826e-08)
(7.28815e-08 0 5.58284e-08)
(6.46025e-08 0 5.39033e-08)
(5.65007e-08 0 5.2438e-08)
(5.09344e-08 0 4.89721e-08)
(3.72749e-08 0 6.27986e-08)
(1.79301e-08 0 1.38747e-07)
(1.04369e-10 0 1.12248e-07)
(5.6666e-16 0 -2.07215e-15)
(1.88627e-16 0 -4.62187e-18)
(3.7249e-16 0 2.01625e-18)
(3.62791e-16 0 8.60268e-18)
(3.49959e-16 0 1.51374e-17)
(3.37893e-16 0 2.14757e-17)
(3.2655e-16 0 2.74831e-17)
(3.15766e-16 0 3.31286e-17)
(3.05302e-16 0 3.82778e-17)
(2.95045e-16 0 4.29203e-17)
(2.84933e-16 0 4.70045e-17)
(2.74862e-16 0 5.05304e-17)
(2.64801e-16 0 5.34876e-17)
(2.54761e-16 0 5.58657e-17)
(2.44659e-16 0 5.77269e-17)
(2.34516e-16 0 5.91227e-17)
(2.24404e-16 0 5.99913e-17)
(2.14229e-16 0 6.04462e-17)
(2.04003e-16 0 6.04876e-17)
(1.93808e-16 0 6.01257e-17)
(1.83624e-16 0 5.94329e-17)
(1.73439e-16 0 5.84507e-17)
(1.63285e-16 0 5.72202e-17)
(1.53184e-16 0 5.5721e-17)
(1.43144e-16 0 5.39839e-17)
(1.33176e-16 0 5.2102e-17)
(1.23302e-16 0 5.00548e-17)
(1.13562e-16 0 4.79351e-17)
(1.03966e-16 0 4.57431e-17)
(9.45157e-17 0 4.34683e-17)
(8.52306e-17 0 4.12453e-17)
(7.61006e-17 0 3.90429e-17)
(6.71671e-17 0 3.69026e-17)
(5.84403e-17 0 3.4876e-17)
(4.98893e-17 0 3.30045e-17)
(4.15245e-17 0 3.13191e-17)
(3.33147e-17 0 2.98509e-17)
(2.5229e-17 0 2.86411e-17)
(1.72777e-17 0 2.77209e-17)
(9.45054e-18 0 2.70591e-17)
(2.7814e-18 0 2.6749e-17)
(1.78503e-07 0 -2.22828e-06)
(8.32277e-07 0 -2.09454e-06)
(1.14035e-06 0 -1.9084e-06)
(1.5347e-06 0 -1.55637e-06)
(1.73078e-06 0 -1.24975e-06)
(1.86093e-06 0 -9.37693e-07)
(1.9131e-06 0 -6.88313e-07)
(1.92417e-06 0 -4.80417e-07)
(1.91212e-06 0 -3.07249e-07)
(1.88456e-06 0 -1.69453e-07)
(1.84869e-06 0 -5.34741e-08)
(1.80558e-06 0 4.06284e-08)
(1.75693e-06 0 1.20219e-07)
(1.7041e-06 0 1.83489e-07)
(1.64665e-06 0 2.43326e-07)
(1.58577e-06 0 2.85445e-07)
(1.52121e-06 0 3.24633e-07)
(1.45754e-06 0 3.42584e-07)
(1.39099e-06 0 3.71531e-07)
(1.32532e-06 0 3.80072e-07)
(1.25855e-06 0 3.87539e-07)
(1.1951e-06 0 3.87871e-07)
(1.13342e-06 0 3.85055e-07)
(1.07455e-06 0 3.74482e-07)
(1.01749e-06 0 3.66519e-07)
(9.63955e-07 0 3.54529e-07)
(9.1351e-07 0 3.39451e-07)
(8.66723e-07 0 3.2338e-07)
(8.23094e-07 0 3.07639e-07)
(7.82271e-07 0 2.91722e-07)
(7.44697e-07 0 2.75113e-07)
(7.09592e-07 0 2.60038e-07)
(6.77297e-07 0 2.44568e-07)
(6.47433e-07 0 2.29731e-07)
(6.19707e-07 0 2.16325e-07)
(5.93912e-07 0 2.03706e-07)
(5.69627e-07 0 1.92407e-07)
(5.46855e-07 0 1.81938e-07)
(5.25503e-07 0 1.72119e-07)
(5.05177e-07 0 1.63708e-07)
(4.85882e-07 0 1.55888e-07)
(4.67344e-07 0 1.49135e-07)
(4.49731e-07 0 1.42554e-07)
(4.32461e-07 0 1.37516e-07)
(4.15996e-07 0 1.31955e-07)
(3.99649e-07 0 1.2828e-07)
(3.8423e-07 0 1.22738e-07)
(3.68448e-07 0 1.20998e-07)
(3.53715e-07 0 1.17596e-07)
(3.38949e-07 0 1.13913e-07)
(3.24006e-07 0 1.11069e-07)
(3.09685e-07 0 1.08079e-07)
(2.9566e-07 0 1.05879e-07)
(2.82083e-07 0 1.03145e-07)
(2.68478e-07 0 1.01031e-07)
(2.55304e-07 0 9.83545e-08)
(2.42338e-07 0 9.60018e-08)
(2.29746e-07 0 9.36576e-08)
(2.17383e-07 0 9.1632e-08)
(2.05377e-07 0 8.94602e-08)
(1.93646e-07 0 8.71386e-08)
(1.82132e-07 0 8.49332e-08)
(1.70946e-07 0 8.29017e-08)
(1.60075e-07 0 8.08602e-08)
(1.49375e-07 0 7.89755e-08)
(1.38865e-07 0 7.72696e-08)
(1.28643e-07 0 7.53913e-08)
(1.18592e-07 0 7.36222e-08)
(1.08722e-07 0 7.19463e-08)
(9.89858e-08 0 7.02684e-08)
(8.93886e-08 0 6.8528e-08)
(7.9961e-08 0 6.66963e-08)
(7.07824e-08 0 6.46585e-08)
(6.20974e-08 0 6.22848e-08)
(5.47817e-08 0 5.91589e-08)
(4.8637e-08 0 5.35154e-08)
(3.29709e-08 0 8.00808e-08)
(1.4344e-08 0 1.59765e-07)
(1.02477e-10 0 1.14729e-07)
(5.69928e-16 0 -2.37254e-15)
(1.92287e-16 0 -5.32498e-18)
(3.79717e-16 0 2.61596e-18)
(3.69946e-16 0 1.04949e-17)
(3.56959e-16 0 1.82807e-17)
(3.44614e-16 0 2.57977e-17)
(3.32889e-16 0 3.29425e-17)
(3.21598e-16 0 3.95392e-17)
(3.10586e-16 0 4.55466e-17)
(2.9975e-16 0 5.09026e-17)
(2.89027e-16 0 5.55969e-17)
(2.78336e-16 0 5.96087e-17)
(2.67655e-16 0 6.29588e-17)
(2.57005e-16 0 6.56161e-17)
(2.46365e-16 0 6.7653e-17)
(2.35695e-16 0 6.91316e-17)
(2.25055e-16 0 7.00208e-17)
(2.14426e-16 0 7.03931e-17)
(2.03776e-16 0 7.03104e-17)
(1.93198e-16 0 6.97934e-17)
(1.82673e-16 0 6.88938e-17)
(1.72188e-16 0 6.76324e-17)
(1.61766e-16 0 6.61021e-17)
(1.51415e-16 0 6.42719e-17)
(1.41158e-16 0 6.21936e-17)
(1.31015e-16 0 5.99499e-17)
(1.21027e-16 0 5.75097e-17)
(1.11204e-16 0 5.49868e-17)
(1.01536e-16 0 5.23709e-17)
(9.20756e-17 0 4.97032e-17)
(8.28215e-17 0 4.70666e-17)
(7.37638e-17 0 4.44506e-17)
(6.49233e-17 0 4.19381e-17)
(5.63207e-17 0 3.95496e-17)
(4.79558e-17 0 3.73575e-17)
(3.97874e-17 0 3.53413e-17)
(3.18465e-17 0 3.36042e-17)
(2.40813e-17 0 3.21773e-17)
(1.64299e-17 0 3.10917e-17)
(8.93355e-18 0 3.03782e-17)
(2.61596e-18 0 3.0037e-17)
(3.85359e-07 0 -2.78346e-06)
(9.71198e-07 0 -2.62662e-06)
(1.45803e-06 0 -2.31323e-06)
(1.88048e-06 0 -1.83997e-06)
(2.09262e-06 0 -1.38634e-06)
(2.16569e-06 0 -9.92753e-07)
(2.16581e-06 0 -6.85938e-07)
(2.12798e-06 0 -4.54289e-07)
(2.07598e-06 0 -2.70495e-07)
(2.01745e-06 0 -1.22356e-07)
(1.95611e-06 0 -4.08397e-09)
(1.89457e-06 0 9.95792e-08)
(1.83194e-06 0 1.73258e-07)
(1.76675e-06 0 2.48846e-07)
(1.69804e-06 0 3.07428e-07)
(1.62617e-06 0 3.54128e-07)
(1.55327e-06 0 3.91063e-07)
(1.48132e-06 0 4.14323e-07)
(1.40622e-06 0 4.42928e-07)
(1.33414e-06 0 4.48812e-07)
(1.26171e-06 0 4.56379e-07)
(1.19337e-06 0 4.53589e-07)
(1.1269e-06 0 4.47646e-07)
(1.06445e-06 0 4.34067e-07)
(1.00433e-06 0 4.23646e-07)
(9.48875e-07 0 4.07472e-07)
(8.97182e-07 0 3.88299e-07)
(8.49445e-07 0 3.6905e-07)
(8.05229e-07 0 3.50005e-07)
(7.64525e-07 0 3.30455e-07)
(7.27164e-07 0 3.11447e-07)
(6.92634e-07 0 2.93504e-07)
(6.61157e-07 0 2.75476e-07)
(6.32449e-07 0 2.58047e-07)
(6.05822e-07 0 2.42411e-07)
(5.81003e-07 0 2.28316e-07)
(5.57835e-07 0 2.15311e-07)
(5.36172e-07 0 2.03335e-07)
(5.15862e-07 0 1.92442e-07)
(4.96514e-07 0 1.82949e-07)
(4.78062e-07 0 1.74271e-07)
(4.60459e-07 0 1.66486e-07)
(4.43575e-07 0 1.59641e-07)
(4.27022e-07 0 1.53893e-07)
(4.1103e-07 0 1.48059e-07)
(3.95281e-07 0 1.43736e-07)
(3.8008e-07 0 1.38843e-07)
(3.64926e-07 0 1.35106e-07)
(3.50174e-07 0 1.328e-07)
(3.36062e-07 0 1.28559e-07)
(3.21197e-07 0 1.2546e-07)
(3.06875e-07 0 1.22085e-07)
(2.92951e-07 0 1.19563e-07)
(2.79429e-07 0 1.16763e-07)
(2.65948e-07 0 1.14194e-07)
(2.52758e-07 0 1.11458e-07)
(2.39909e-07 0 1.08559e-07)
(2.27215e-07 0 1.06167e-07)
(2.15017e-07 0 1.03515e-07)
(2.03028e-07 0 1.01239e-07)
(1.91361e-07 0 9.86961e-08)
(1.79973e-07 0 9.60105e-08)
(1.68797e-07 0 9.37495e-08)
(1.57967e-07 0 9.15695e-08)
(1.47392e-07 0 8.93691e-08)
(1.36934e-07 0 8.74258e-08)
(1.26805e-07 0 8.53463e-08)
(1.16806e-07 0 8.34138e-08)
(1.0693e-07 0 8.15871e-08)
(9.71638e-08 0 7.98027e-08)
(8.75021e-08 0 7.79277e-08)
(7.78801e-08 0 7.59675e-08)
(6.8297e-08 0 7.37813e-08)
(5.87141e-08 0 7.1167e-08)
(4.97604e-08 0 6.76404e-08)
(3.72119e-08 0 6.17032e-08)
(2.85505e-08 0 1.05265e-07)
(2.95123e-09 0 1.62985e-07)
(1.00132e-10 0 1.17493e-07)
(5.90274e-16 0 -2.67177e-15)
(1.96633e-16 0 -6.1108e-18)
(3.8831e-16 0 3.31906e-18)
(3.78456e-16 0 1.26869e-17)
(3.65262e-16 0 2.18789e-17)
(3.52555e-16 0 3.06677e-17)
(3.40302e-16 0 3.89809e-17)
(3.2837e-16 0 4.6591e-17)
(3.16645e-16 0 5.34772e-17)
(3.05085e-16 0 5.95777e-17)