0 	100005
0.010101 	100001
0.020202 	100000
0.030303 	100000
0.040404 	100000
0.0505051 	100000
