/*--------------------------------*- C++ -*----------------------------------*\
  =========                 |
  \\      /  F ield         | OpenFOAM: The Open Source CFD Toolbox
   \\    /   O peration     | Website:  https://openfoam.org
    \\  /    A nd           | Version:  6
     \\/     M anipulation  |
\*---------------------------------------------------------------------------*/
FoamFile
{
    version     2.0;
    format      ascii;
    class       surfaceScalarField;
    location    "4100";
    object      phi;
}
// * * * * * * * * * * * * * * * * * * * * * * * * * * * * * * * * * * * * * //

dimensions      [0 3 -1 0 0 0 0];

internalField   nonuniform List<scalar> 
9440
(
-4.71075e-10
4.71075e-10
-1.00729e-09
5.36215e-10
-1.37774e-09
3.70447e-10
-1.62421e-09
2.46473e-10
-1.97986e-09
3.55652e-10
-2.19981e-09
2.19954e-10
-2.38806e-09
1.88251e-10
-2.50087e-09
1.12808e-10
-2.58404e-09
8.31704e-11
-2.41814e-09
-1.65898e-10
-2.40513e-09
-1.30157e-11
-2.09715e-09
-3.07976e-10
-1.47118e-09
-6.25968e-10
-1.21848e-09
-2.52698e-10
-6.57482e-10
-5.60999e-10
-2.44153e-10
-4.13328e-10
6.70431e-10
-9.14583e-10
1.11013e-09
-4.39695e-10
1.49762e-09
-3.87496e-10
1.80888e-09
-3.11262e-10
2.98219e-09
-1.1733e-09
3.39249e-09
-4.10299e-10
3.66843e-09
-2.75944e-10
4.44213e-09
-7.73697e-10
4.62954e-09
-1.87415e-10
4.9129e-09
-2.83356e-10
5.5478e-09
-6.34902e-10
5.94668e-09
-3.98881e-10
6.4169e-09
-4.70217e-10
6.94342e-09
-5.26513e-10
7.21513e-09
-2.71714e-10
7.51261e-09
-2.97485e-10
7.73537e-09
-2.22754e-10
7.9935e-09
-2.5813e-10
8.38909e-09
-3.95593e-10
8.55072e-09
-1.61624e-10
8.6473e-09
-9.65814e-11
8.77638e-09
-1.29079e-10
8.88062e-09
-1.04239e-10
8.99371e-09
-1.13098e-10
9.09497e-09
-1.0126e-10
9.16131e-09
-6.63393e-11
9.3331e-09
-1.71789e-10
9.42126e-09
-8.8158e-11
9.4544e-09
-3.3137e-11
9.46245e-09
-8.05839e-12
9.46521e-09
-2.7583e-12
9.49615e-09
-3.09332e-11
9.55547e-09
-5.93199e-11
9.62134e-09
-6.58789e-11
9.66151e-09
-4.01662e-11
9.70192e-09
-4.04066e-11
9.75207e-09
-5.01528e-11
9.81047e-09
-5.84049e-11
9.88902e-09
-7.85435e-11
9.97807e-09
-8.9055e-11
1.00604e-08
-8.23673e-11
1.00948e-08
-3.43492e-11
1.01018e-08
-7.02649e-12
1.00643e-08
3.7537e-11
1.00346e-08
2.97111e-11
9.90705e-09
1.27511e-10
9.80098e-09
1.06073e-10
9.57397e-09
2.27007e-10
9.29656e-09
2.77411e-10
9.02925e-09
2.67304e-10
8.56186e-09
4.67393e-10
8.25115e-09
3.10701e-10
7.77141e-09
4.79739e-10
7.36394e-09
4.07469e-10
6.90355e-09
4.60397e-10
6.16378e-09
7.39764e-10
5.45129e-09
7.12495e-10
4.91675e-09
5.34536e-10
4.62036e-09
2.96386e-10
4.28719e-09
3.33177e-10
3.84124e-09
4.45947e-10
3.78779e-09
5.34536e-11
2.9236e-09
8.64187e-10
2.48031e-09
4.4329e-10
1.84106e-09
6.3925e-10
1.80355e-09
3.75065e-11
1.01979e-09
7.83764e-10
5.98476e-10
4.2131e-10
1.0152e-16
5.98476e-10
6.9451e-18
4.40217e-18
5.34876e-18
1.59635e-18
4.51787e-18
8.30786e-19
3.94995e-18
5.67884e-19
3.51338e-18
4.36661e-19
3.16739e-18
3.46221e-19
2.89372e-18
2.74039e-19
2.68021e-18
2.14002e-19
2.51698e-18
1.63828e-19
2.3955e-18
1.22206e-19
2.30817e-18
8.81596e-20
2.24757e-18
6.15574e-20
2.20734e-18
4.13147e-20
2.18156e-18
2.69631e-20
2.16474e-18
1.80665e-20
2.15186e-18
1.41474e-20
2.13844e-18
1.46791e-20
2.12055e-18
1.90881e-20
2.09492e-18
2.67664e-20
2.05888e-18
3.70892e-20
2.01043e-18
4.94349e-20
1.94815e-18
6.32055e-20
1.87117e-18
7.78425e-20
1.77916e-18
9.28397e-20
1.67219e-18
1.07752e-19
1.55076e-18
1.22197e-19
1.41565e-18
1.35857e-19
1.26791e-18
1.48474e-19
1.10879e-18
1.59843e-19
9.39692e-19
1.69809e-19
7.62147e-19
1.78255e-19
5.77754e-19
1.85098e-19
3.88167e-19
1.9029e-19
1.95051e-19
1.93817e-19
1.9575e-19
-3.13795e-10
7.84871e-10
-8.31665e-10
1.05409e-09
-1.1443e-09
6.83086e-10
-1.47908e-09
5.81249e-10
-1.62806e-09
5.04638e-10
-1.75432e-09
3.46214e-10
-1.89728e-09
3.31208e-10
-1.94724e-09
1.62775e-10
-1.82437e-09
-3.9702e-11
-1.66433e-09
-3.2594e-10
-1.27875e-09
-3.98594e-10
-9.71207e-10
-6.15516e-10
-1.02216e-09
-5.75013e-10
-5.48101e-10
-7.26756e-10
9.57933e-11
-1.20489e-09
5.64361e-10
-8.81895e-10
1.30507e-09
-1.65529e-09
1.89407e-09
-1.02869e-09
2.41075e-09
-9.0418e-10
2.8351e-09
-7.3561e-10
3.19375e-09
-1.53195e-09
4.11441e-09
-1.33095e-09
4.60339e-09
-7.64923e-10
4.95265e-09
-1.12297e-09
5.50453e-09
-7.39286e-10
5.9077e-09
-6.86526e-10
6.30135e-09
-1.02855e-09
6.67192e-09
-7.69456e-10
7.00511e-09
-8.03403e-10
7.40848e-09
-9.29883e-10
7.74794e-09
-6.11171e-10
8.08958e-09
-6.39131e-10
7.97593e-09
-1.091e-10
7.91587e-09
-1.98075e-10
8.45037e-09
-9.30089e-10
8.51374e-09
-2.24998e-10
8.65491e-09
-2.37744e-10
8.79625e-09
-2.70418e-10
8.82092e-09
-1.28908e-10
8.88831e-09
-1.80491e-10
8.94811e-09
-1.61058e-10
9.04291e-09
-1.61145e-10
9.178e-09
-3.06877e-10
9.32935e-09
-2.3951e-10
9.48662e-09
-1.90402e-10
9.61595e-09
-1.37393e-10
9.69048e-09
-7.72858e-11
9.73415e-09
-7.46084e-11
9.75633e-09
-8.14965e-11
9.76512e-09
-7.46648e-11
9.7917e-09
-6.67525e-11
9.83797e-09
-8.66755e-11
9.92504e-09
-1.37229e-10
9.9867e-09
-1.20062e-10
9.97353e-09
-6.53739e-11
9.91707e-09
-3.25987e-11
9.81148e-09
2.32201e-11
9.69926e-09
7.78698e-11
9.60233e-09
8.9902e-11
9.51892e-09
1.20944e-10
9.39647e-09
1.52161e-10
9.41665e-09
1.07334e-10
9.4046e-09
1.18117e-10
9.30679e-09
3.2482e-10
9.1143e-09
4.69903e-10
8.86946e-09
5.12143e-10
8.57691e-09
7.59936e-10
8.14809e-09
7.39521e-10
7.75443e-09
8.73395e-10
7.10426e-09
1.05765e-09
6.76158e-09
8.03071e-10
6.20514e-09
1.29621e-09
5.90717e-09
1.01046e-09
5.52535e-09
9.16356e-10
4.96878e-09
8.52952e-10
4.36637e-09
9.35588e-10
4.08517e-09
7.27152e-10
3.46328e-09
6.75338e-10
3.00596e-09
1.32151e-09
2.29361e-09
1.15563e-09
1.96769e-09
9.65177e-10
1.23307e-09
7.72121e-10
1.17256e-09
8.44273e-10
3.10256e-10
1.28362e-09
4.18396e-17
9.08732e-10
4.14084e-18
1.16864e-19
4.58442e-18
1.15273e-18
4.25607e-18
1.1592e-18
3.81977e-18
1.00445e-18
3.42393e-18
8.32963e-19
3.09616e-18
6.7468e-19
2.83459e-18
5.36509e-19
2.63091e-18
4.18787e-19
2.47621e-18
3.1983e-19
2.36227e-18
2.37635e-19
2.28164e-18
1.70475e-19
2.22733e-18
1.17736e-19
2.19299e-18
7.76862e-20
2.17266e-18
4.94239e-20
2.16082e-18
3.20876e-20
2.15239e-18
2.47371e-20
2.14284e-18
2.63257e-20
2.12823e-18
3.57024e-20
2.10524e-18
5.16376e-20
2.07123e-18
7.28635e-20
2.0242e-18
9.81188e-20
1.96279e-18
1.2619e-19
1.88617e-18
1.55946e-19
1.79407e-18
1.86368e-19
1.68664e-18
2.16559e-19
1.56442e-18
2.45757e-19
1.42827e-18
2.73327e-19
1.27928e-18
2.98759e-19
1.11875e-18
3.21649e-19
9.48138e-19
3.41693e-19
7.68991e-19
3.58664e-19
5.82946e-19
3.72401e-19
3.91693e-19
3.82795e-19
1.96984e-19
3.89776e-19
3.93282e-19
-5.66502e-10
1.35137e-09
-6.83134e-10
1.17072e-09
-8.19682e-10
8.19635e-10
-9.11382e-10
6.72949e-10
-1.01404e-09
6.07295e-10
-1.18978e-09
5.21953e-10
-1.19798e-09
3.39414e-10
-1.11857e-09
8.33631e-11
-1.03774e-09
-1.20533e-10
-1.02037e-09
-3.43302e-10
-7.57528e-10
-6.61439e-10
-3.91421e-10
-9.81622e-10
3.48525e-12
-9.69918e-10
4.5731e-10
-1.18058e-09
8.75867e-10
-1.62345e-09
1.27989e-09
-1.28592e-09
1.63317e-09
-2.00857e-09
2.31705e-09
-1.71257e-09
2.95365e-09
-1.54078e-09
3.78896e-09
-1.57092e-09
3.71702e-09
-1.46e-09
4.39057e-09
-2.0045e-09
5.258e-09
-1.63235e-09
5.36722e-09
-1.23219e-09
5.78736e-09
-1.15942e-09
6.17593e-09
-1.0751e-09
6.41791e-09
-1.27054e-09
6.90563e-09
-1.25717e-09
7.35539e-09
-1.25317e-09
7.41209e-09
-9.86576e-10
7.54725e-09
-7.46328e-10
7.6667e-09
-7.58582e-10
8.01983e-09
-4.6223e-10
8.23402e-09
-4.12265e-10
8.01708e-09
-7.13147e-10
8.30144e-09
-5.09358e-10
8.44087e-09
-3.77174e-10
8.48946e-09
-3.19016e-10
8.59266e-09
-2.32103e-10
8.79148e-09
-3.79316e-10
8.90317e-09
-2.72742e-10
8.87902e-09
-1.37001e-10
9.00406e-09
-4.31912e-10
9.10003e-09
-3.35483e-10
9.1515e-09
-2.41873e-10
9.17379e-09
-1.59678e-10
9.1909e-09
-9.43961e-11
9.22215e-09
-1.05863e-10
9.26948e-09
-1.28825e-10
9.30319e-09
-1.08379e-10
9.28727e-09
-5.08265e-11
9.22949e-09
-2.88998e-11
9.12468e-09
-3.24199e-11
9.03859e-09
-3.3975e-11
9.00568e-09
-3.24618e-11
9.02314e-09
-5.00626e-11
9.04562e-09
7.42778e-13
9.0849e-09
3.85837e-11
9.11894e-09
5.58633e-11
9.10873e-09
1.3115e-10
9.0392e-09
2.21696e-10
8.96929e-09
1.77238e-10
8.91652e-09
1.70886e-10
8.74635e-09
4.94989e-10
8.62962e-09
5.86636e-10
8.4509e-09
6.90856e-10
8.25477e-09
9.56069e-10
7.95044e-09
1.04385e-09
7.57085e-09
1.25298e-09
7.16562e-09
1.46288e-09
6.65926e-09
1.30943e-09
6.20487e-09
1.7506e-09
5.76459e-09
1.45074e-09
5.4503e-09
1.23065e-09
4.8762e-09
1.42705e-09
4.29485e-09
1.51694e-09
3.79134e-09
1.23066e-09
3.14178e-09
1.3249e-09
2.82451e-09
1.63878e-09
2.32387e-09
1.65627e-09
1.95907e-09
1.32997e-09
1.30351e-09
1.42769e-09
9.50673e-10
1.19711e-09
5.36966e-10
1.69732e-09
2.48166e-17
1.4457e-09
5.17787e-18
2.53223e-18
4.59209e-18
1.73848e-18
4.10247e-18
1.64894e-18
3.64937e-18
1.45784e-18
3.26668e-18
1.2161e-18
2.95897e-18
9.82995e-19
2.7178e-18
7.78421e-19
2.53285e-18
6.04624e-19
2.39487e-18
4.58814e-19
2.29593e-18
3.37713e-19
2.22894e-18
2.38754e-19
2.18728e-18
1.60835e-19
2.16473e-18
1.0182e-19
2.15533e-18
6.05189e-20
2.15347e-18
3.57144e-20
2.15398e-18
2.60277e-20
2.15222e-18
2.98787e-20
2.14416e-18
4.55028e-20
2.12646e-18
7.1004e-20
2.09649e-18
1.04425e-19
2.05228e-18
1.43822e-19
1.99254e-18
1.87333e-19
1.91659e-18
2.33234e-19
1.82426e-18
2.79975e-19
1.71584e-18
3.26207e-19
1.59199e-18
3.70788e-19
1.4537e-18
4.12778e-19
1.30217e-18
4.51423e-19
1.1388e-18
4.86139e-19
9.65109e-19
5.16485e-19
7.82728e-19
5.42141e-19
5.9334e-19
5.62879e-19
3.98674e-19
5.78547e-19
2.0049e-19
5.89044e-19
5.94303e-19
3.59551e-13
1.35101e-09
-1.80699e-10
1.35178e-09
-4.20157e-10
1.05909e-09
-6.34819e-10
8.87613e-10
-6.99236e-10
6.71712e-10
-6.13581e-10
4.36299e-10
-5.27902e-10
2.53737e-10
-4.63709e-10
1.91714e-11
-4.54549e-10
-1.29693e-10
-4.20663e-10
-3.77187e-10
-2.07314e-10
-8.74787e-10
1.54864e-10
-1.3438e-09
7.01202e-10
-1.51626e-09
1.07042e-09
-1.5498e-09
1.4094e-09
-1.96243e-09
1.95437e-09
-1.83088e-09
2.08133e-09
-2.13553e-09
2.74573e-09
-2.37698e-09
3.53191e-09
-2.32696e-09
4.27751e-09
-2.31652e-09
4.69142e-09
-1.87391e-09
5.0127e-09
-2.32578e-09
5.5265e-09
-2.14615e-09
5.73436e-09
-1.44005e-09
6.09385e-09
-1.51891e-09
6.62544e-09
-1.60668e-09
6.93649e-09
-1.58159e-09
7.05847e-09
-1.37915e-09
7.06834e-09
-1.26304e-09
7.27441e-09
-1.19264e-09
7.41472e-09
-8.86641e-10
7.41303e-09
-7.5689e-10
7.61216e-09
-6.61365e-10
7.68999e-09
-4.90088e-10
7.62933e-09
-6.52486e-10
7.68203e-09
-5.62057e-10
7.78845e-09
-4.83596e-10
7.88014e-09
-4.1071e-10
8.04389e-09
-3.95852e-10
8.088e-09
-4.23427e-10
8.21705e-09
-4.01786e-10
8.40036e-09
-3.20318e-10
8.30719e-09
-3.38745e-10
8.27385e-09
-3.02139e-10
8.24478e-09
-2.12805e-10
8.22782e-09
-1.42712e-10
8.2277e-09
-9.42828e-11
8.22812e-09
-1.06282e-10
8.24305e-09
-1.43755e-10
8.27754e-09
-1.42873e-10
8.2749e-09
-4.8184e-11
8.26779e-09
-2.17885e-11
8.23987e-09
-4.50052e-12
8.18646e-09
1.94284e-11
8.12263e-09
3.13721e-11
8.06012e-09
1.24442e-11
8.072e-09
-1.11414e-11
8.13335e-09
-2.27594e-11
8.19714e-09
-7.93693e-12
8.27353e-09
5.47601e-11
8.2907e-09
2.04533e-10
8.18513e-09
2.82798e-10
8.06865e-09
2.87366e-10
7.96414e-09
5.99503e-10
7.69527e-09
8.55503e-10
7.78768e-09
5.98444e-10
7.6857e-09
1.05804e-09
7.45562e-09
1.27393e-09
7.15202e-09
1.55658e-09
7.03897e-09
1.57592e-09
6.52039e-09
1.82801e-09
6.11223e-09
2.15875e-09
5.81064e-09
1.75233e-09
5.24622e-09
1.79507e-09
4.73657e-09
1.93671e-09
4.08591e-09
2.16759e-09
3.54085e-09
1.77572e-09
2.9757e-09
1.89005e-09
2.43457e-09
2.17991e-09
2.14579e-09
1.94505e-09
1.42422e-09
2.05154e-09
9.93026e-10
1.85888e-09
6.96948e-10
1.49319e-09
4.33995e-10
1.96028e-09
-1.46556e-17
1.87969e-09
4.38549e-18
-4.19837e-18
4.50381e-18
1.62019e-18
3.91257e-18
2.24042e-18
3.40876e-18
1.96206e-18
3.03463e-18
1.59075e-18
2.75539e-18
1.26286e-18
2.54495e-18
9.89576e-19
2.38793e-18
7.62444e-19
2.27463e-18
5.73003e-19
2.19779e-18
4.15525e-19
2.15104e-18
2.86593e-19
2.12827e-18
1.8481e-19
2.12343e-18
1.08002e-19
2.13052e-18
5.48965e-20
2.14378e-18
2.40381e-20
2.15783e-18
1.36421e-20
2.16785e-18
2.157e-20
2.16966e-18
4.53835e-20
2.15989e-18
8.24434e-20
2.13588e-18
1.30026e-19
2.09579e-18
1.85438e-19
2.03844e-18
2.46117e-19
1.96333e-18
3.09706e-19
1.87049e-18
3.74109e-19
1.76042e-18
4.37517e-19
1.63398e-18
4.98414e-19
1.49234e-18
5.55568e-19
1.33688e-18
6.08005e-19
1.16914e-18
6.54983e-19
9.90764e-19
6.95951e-19
8.03466e-19
7.30515e-19
6.09008e-19
7.58406e-19
4.09171e-19
7.79447e-19
2.05749e-19
7.93525e-19
8.00575e-19
2.35727e-11
1.32744e-09
-3.13529e-11
1.40671e-09
-1.44807e-10
1.17255e-09
-1.28928e-10
8.71736e-10
-1.41251e-10
6.84036e-10
-1.84606e-10
4.79655e-10
-6.16221e-11
1.30754e-10
6.32073e-11
-1.05657e-10
2.67285e-10
-3.33769e-10
5.8795e-10
-6.97852e-10
8.8577e-10
-1.17261e-09
7.90003e-10
-1.24803e-09
9.53724e-10
-1.67998e-09
1.43314e-09
-2.02921e-09
1.76224e-09
-2.29153e-09
2.45322e-09
-2.52186e-09
3.1576e-09
-2.8399e-09
3.31952e-09
-2.53889e-09
3.89823e-09
-2.90566e-09
4.4316e-09
-2.8499e-09
4.96436e-09
-2.40667e-09
5.14683e-09
-2.50825e-09
5.6532e-09
-2.65251e-09
5.94507e-09
-1.73193e-09
6.31085e-09
-1.88468e-09
6.45766e-09
-1.7535e-09
6.52493e-09
-1.64885e-09
6.5963e-09
-1.45052e-09
6.70924e-09
-1.37598e-09
6.7169e-09
-1.20031e-09
6.76401e-09
-9.3375e-10
6.86015e-09
-8.53024e-10
6.91585e-09
-7.1707e-10
6.95373e-09
-5.27969e-10
6.88652e-09
-5.85268e-10
6.95239e-09
-6.27935e-10
7.03338e-09
-5.64579e-10
7.15526e-09
-5.32595e-10
7.24669e-09
-4.87276e-10
7.28883e-09
-4.65567e-10
7.25308e-09
-3.66039e-10
7.29406e-09
-3.61295e-10
7.28448e-09
-3.29162e-10
7.29579e-09
-3.13455e-10
7.33831e-09
-2.55327e-10
7.38566e-09
-1.90062e-10
7.42804e-09
-1.36662e-10
7.42369e-09
-1.01929e-10
7.37114e-09
-9.1207e-11
7.31019e-09
-8.19253e-11
7.25035e-09
1.16531e-11
7.20904e-09
1.95242e-11
7.18179e-09
2.27515e-11
7.14267e-09
5.85427e-11
7.08737e-09
8.66768e-11
7.02647e-09
7.33363e-11
6.95624e-09
5.90894e-11
6.95601e-09
-2.25266e-11
6.96225e-09
-1.41852e-11
7.02418e-09
-7.1679e-12
7.08283e-09
1.45884e-10
7.10874e-09
2.56882e-10
7.06486e-09
3.31246e-10
7.06495e-09
5.99417e-10
6.93573e-09
9.84717e-10
6.81956e-09
7.14612e-10
6.79924e-09
1.07836e-09
6.68286e-09
1.39032e-09
6.55471e-09
1.68472e-09
6.42824e-09
1.70239e-09
6.11127e-09
2.14499e-09
6.02573e-09
2.24429e-09
5.65437e-09
2.12369e-09
5.05036e-09
2.39907e-09
4.50525e-09
2.48182e-09
4.24072e-09
2.43212e-09
3.95371e-09
2.06272e-09
3.26102e-09
2.58274e-09
2.80091e-09
2.64002e-09
2.4849e-09
2.26106e-09
2.4854e-09
2.05104e-09
2.41021e-09
1.93407e-09
1.78196e-09
2.12144e-09
1.02705e-09
2.71518e-09
-1.06704e-17
2.90674e-09
1.02048e-17
1.69404e-17
5.1253e-18
6.69979e-18
3.63546e-18
3.73063e-18
3.03863e-18
2.55942e-18
2.70783e-18
1.9222e-18
2.48313e-18
1.48828e-18
2.31878e-18
1.1547e-18
2.1994e-18
8.82632e-19
2.11801e-18
6.5523e-19
2.06964e-18
4.64773e-19
2.04925e-18
3.07911e-19
2.05146e-18
1.83614e-19
2.07032e-18
9.02632e-20
2.09966e-18
2.68086e-20
2.13339e-18
-8.2955e-21
2.16576e-18
-1.722e-20
2.19166e-18
-2.72494e-21
2.20672e-18
3.19682e-20
2.20747e-18
8.33535e-20
2.19129e-18
1.47822e-19
2.15647e-18
2.21832e-19
2.10203e-18
3.02041e-19
2.02774e-18
3.85414e-19
1.9339e-18
4.69282e-19
1.82132e-18
5.51371e-19
1.69113e-18
6.29806e-19
1.54478e-18
7.03087e-19
1.38386e-18
7.70054e-19
1.21011e-18
8.29838e-19
1.02533e-18
8.81816e-19
8.31358e-19
9.25555e-19
6.30048e-19
9.60775e-19
4.23249e-19
9.87297e-19
2.128e-19
1.00502e-18
1.01389e-18
5.30622e-11
1.27438e-09
1.35405e-10
1.32437e-09
1.8233e-10
1.12562e-09
1.72479e-10
8.81588e-10
1.73492e-10
6.83024e-10
2.46117e-10
4.07031e-10
2.89582e-10
8.72904e-11
4.1367e-10
-2.29745e-10
6.59192e-10
-5.7929e-10
8.13763e-10
-8.52422e-10
9.59882e-10
-1.31872e-09
1.31611e-09
-1.60426e-09
1.61815e-09
-1.98201e-09
2.15638e-09
-2.56744e-09
2.70402e-09
-2.83916e-09
2.78294e-09
-2.60079e-09
3.4457e-09
-3.50266e-09
3.80883e-09
-2.90202e-09
4.30293e-09
-3.39976e-09
4.63315e-09
-3.18012e-09
5.20058e-09
-2.9741e-09
5.28335e-09
-2.59102e-09
5.57284e-09
-2.942e-09
5.98665e-09
-2.14574e-09
5.90719e-09
-1.80522e-09
6.05682e-09
-1.90312e-09
6.06938e-09
-1.66141e-09
6.05835e-09
-1.43949e-09
6.15932e-09
-1.47695e-09
6.01091e-09
-1.0519e-09
5.98884e-09
-9.11672e-10
6.01184e-09
-8.76025e-10
5.99932e-09
-7.0455e-10
6.11471e-09
-6.43358e-10
6.17362e-09
-6.44183e-10
6.27223e-09
-7.2654e-10
6.30897e-09
-6.01318e-10
6.33521e-09
-5.58837e-10
6.3602e-09
-5.12267e-10
6.40287e-09
-5.08238e-10
6.44496e-09
-4.08125e-10
6.48638e-09
-4.0272e-10
6.48424e-09
-3.27025e-10
6.46463e-09
-2.93844e-10
6.45609e-09
-2.46782e-10
6.46556e-09
-1.99536e-10
6.46958e-09
-1.40679e-10
6.47039e-09
-1.02745e-10
6.46119e-09
-8.20076e-11
6.41976e-09
-4.0495e-11
6.3885e-09
4.29193e-11
6.34901e-09
5.90061e-11
6.28609e-09
8.56699e-11
6.22481e-09
1.19823e-10
6.15093e-09
1.60561e-10
6.08347e-09
1.4079e-10
6.00877e-09
1.33796e-10
5.9627e-09
2.35353e-11
5.91918e-09
2.93337e-11
5.85258e-09
5.94343e-11
5.83838e-09
1.6008e-10
5.89349e-09
2.01774e-10
6.00638e-09
2.18351e-10
5.96768e-09
6.38117e-10
6.06389e-09
8.88503e-10
5.88751e-09
8.90993e-10
5.84492e-09
1.12095e-09
5.73217e-09
1.50307e-09
5.59759e-09
1.8193e-09
5.39773e-09
1.90225e-09
5.28568e-09
2.25704e-09
5.10964e-09
2.42033e-09
4.68572e-09
2.5476e-09
4.18622e-09
2.89858e-09
3.76472e-09
2.90332e-09
3.71676e-09
2.48008e-09
3.15686e-09
2.62262e-09
2.67625e-09
3.06335e-09
2.46497e-09
2.8513e-09
2.00484e-09
2.72118e-09
1.65849e-09
2.39739e-09
9.10224e-10
2.68234e-09
3.59782e-10
2.67188e-09
1.51245e-12
3.07345e-09
-7.27395e-17
2.90825e-09
-3.29403e-20
5.08987e-18
2.15791e-18
4.50914e-18
2.46564e-18
3.42342e-18
2.40263e-18
2.62311e-18
2.27503e-18
2.05061e-18
2.15057e-18
1.61362e-18
2.04767e-18
1.25851e-18
1.9729e-18
9.58318e-19
1.92841e-18
7.00617e-19
1.91347e-18
4.8058e-19
1.92495e-18
2.97291e-19
1.95811e-18
1.51344e-19
2.00687e-18
4.24499e-20
2.06456e-18
-2.98349e-20
2.12446e-18
-6.70145e-20
2.18026e-18
-7.16812e-20
2.22635e-18
-4.73547e-20
2.25811e-18
1.77648e-21
2.27194e-18
7.11455e-20
2.2653e-18
1.56084e-19
2.23668e-18
2.52058e-19
2.18541e-18
3.54849e-19
2.1116e-18
4.60678e-19
2.01599e-18
5.66278e-19
1.89975e-18
6.68916e-19
1.76442e-18
7.66379e-19
1.61175e-18
8.5694e-19
1.44365e-18
9.39295e-19
1.26209e-18
1.0125e-18
1.06907e-18
1.07591e-18
8.66577e-19
1.12911e-18
6.56571e-19
1.17183e-18
4.40973e-19
1.20393e-18
2.2167e-19
1.22536e-18
1.23607e-18
9.23148e-11
1.18207e-09
2.0665e-10
1.21003e-09
2.71716e-10
1.06056e-09
3.59284e-10
7.94021e-10
4.24479e-10
6.1783e-10
4.99555e-10
3.31956e-10
6.09769e-10
-2.2923e-11
7.2515e-10
-3.45124e-10
8.74115e-10
-7.28254e-10
1.18555e-09
-1.16386e-09
1.35898e-09
-1.49215e-09
1.65146e-09
-1.89674e-09
2.07441e-09
-2.40496e-09
2.44198e-09
-2.93501e-09
2.86975e-09
-3.26693e-09
3.37717e-09
-3.1082e-09
3.78427e-09
-3.90977e-09
4.22313e-09
-3.34088e-09
4.48998e-09
-3.66661e-09
4.72756e-09
-3.41769e-09
5.1081e-09
-3.35464e-09
5.28308e-09
-2.766e-09
5.24813e-09
-2.90705e-09
5.53536e-09
-2.43297e-09
5.68253e-09
-1.95239e-09
5.57584e-09
-1.79643e-09
5.45932e-09
-1.5449e-09
5.31556e-09
-1.29573e-09
5.2712e-09
-1.4326e-09
5.31393e-09
-1.09462e-09
5.30045e-09
-8.98188e-10
5.25091e-09
-8.26491e-10
5.29429e-09
-7.4793e-10
5.35701e-09
-7.06077e-10
5.42328e-09
-7.10457e-10
5.45279e-09
-7.56049e-10
5.53447e-09
-6.82994e-10
5.58899e-09
-6.13361e-10
5.61566e-09
-5.38927e-10
5.60887e-09
-5.01452e-10
5.64093e-09
-4.4019e-10
5.65579e-09
-4.17576e-10
5.69026e-09
-3.61492e-10
5.68277e-09
-2.86359e-10
5.68383e-09
-2.47838e-10
5.69838e-09
-2.14093e-10
5.70446e-09
-1.46761e-10
5.69711e-09
-9.53863e-11
5.6872e-09
-7.21082e-11
5.63802e-09
8.6908e-12
5.5772e-09
1.03735e-10
5.54575e-09
9.04581e-11
5.46012e-09
1.71302e-10
5.39799e-09
1.81945e-10
5.32298e-09
2.35576e-10
5.26335e-09
2.00418e-10
5.13995e-09
2.57188e-10
4.99343e-09
1.70059e-10
4.90949e-09
1.13273e-10
4.83455e-09
1.34372e-10
4.85705e-09
1.37574e-10
4.89344e-09
1.65386e-10
4.88548e-09
2.26312e-10
4.85655e-09
6.67046e-10
4.86588e-09
8.79166e-10
5.05575e-09
7.01129e-10
4.88025e-09
1.29645e-09
4.85664e-09
1.52668e-09
4.83362e-09
1.84231e-09
4.74159e-09
1.99429e-09
4.62024e-09
2.37838e-09
4.46698e-09
2.57359e-09
4.12518e-09
2.8894e-09
3.90095e-09
3.1228e-09
3.76933e-09
3.03494e-09
3.41096e-09
2.83845e-09
2.66206e-09
3.37153e-09
2.30941e-09
3.416e-09
1.85374e-09
3.30697e-09
1.46298e-09
3.11194e-09
9.50115e-10
2.91026e-09
6.00087e-10
3.03237e-09
3.02741e-10
2.96922e-09
2.15603e-10
3.16059e-09
-1.7566e-17
3.12385e-09
-6.11802e-19
1.20679e-18
1.07379e-18
2.82383e-18
1.66671e-18
2.83108e-18
1.83136e-18
2.45927e-18
1.83915e-18
2.04375e-18
1.79649e-18
1.65734e-18
1.74843e-18
1.30766e-18
1.71609e-18
9.91749e-19
1.70921e-18
7.08541e-19
1.73077e-18
4.59999e-19
1.77901e-18
2.4996e-19
1.84921e-18
8.19953e-20
1.93458e-18
-4.20709e-20
2.02738e-18
-1.21737e-19
2.1198e-18
-1.5843e-19
2.20458e-18
-1.5532e-19
2.27548e-18
-1.16949e-19
2.32748e-18
-4.87705e-20
2.35688e-18
4.32994e-20
2.36128e-18
1.53287e-19
2.33947e-18
2.75478e-19
2.29123e-18
4.04651e-19
2.2172e-18
5.36216e-19
2.11863e-18
6.66283e-19
1.99721e-18
7.91675e-19
1.85498e-18
9.09887e-19
1.6941e-18
1.01902e-18
1.51685e-18
1.11769e-18
1.3255e-18
1.20497e-18
1.12226e-18
1.28023e-18
9.09297e-19
1.34313e-18
6.88677e-19
1.39349e-18
4.62396e-19
1.43124e-18
2.32382e-19
1.45639e-18
1.46895e-18
1.35174e-10
1.04689e-09
3.18238e-10
1.02697e-09
4.39513e-10
9.39285e-10
5.21262e-10
7.12273e-10
6.35341e-10
5.03752e-10
7.31309e-10
2.35989e-10
8.60907e-10
-1.52521e-10
1.02721e-09
-5.11426e-10
1.21898e-09
-9.20022e-10
1.38389e-09
-1.32877e-09
1.81794e-09
-1.9262e-09
2.34067e-09
-2.41947e-09
2.58438e-09
-2.64867e-09
2.87942e-09
-3.23005e-09
3.28353e-09
-3.67104e-09
3.84179e-09
-3.66646e-09
3.95297e-09
-4.02095e-09
4.34847e-09
-3.73637e-09
4.46272e-09
-3.78086e-09
4.70673e-09
-3.66171e-09
4.92196e-09
-3.56988e-09
4.92299e-09
-2.76702e-09
4.87977e-09
-2.86384e-09
4.93992e-09
-2.49311e-09
5.05987e-09
-2.07233e-09
4.90387e-09
-1.64044e-09
4.74678e-09
-1.3878e-09
4.70619e-09
-1.25513e-09
4.52081e-09
-1.24722e-09
4.54489e-09
-1.1187e-09
4.5753e-09
-9.28606e-10
4.5917e-09
-8.4289e-10
4.65802e-09
-8.1425e-10
4.74345e-09
-7.91505e-10
4.78647e-09
-7.53469e-10
4.8004e-09
-7.69982e-10
4.86615e-09
-7.4874e-10
4.90637e-09
-6.53584e-10
4.88861e-09
-5.21171e-10
4.85424e-09
-4.67081e-10
4.84731e-09
-4.33259e-10
4.84573e-09
-4.15996e-10
4.86134e-09
-3.77104e-10
4.88471e-09
-3.09726e-10
4.91793e-09
-2.81064e-10
4.94178e-09
-2.37941e-10
4.96444e-09
-1.69417e-10
4.96294e-09
-9.38915e-11
4.97155e-09
-8.07172e-11
4.92315e-09
5.70919e-11
4.87571e-09
1.51175e-10
4.79506e-09
1.71105e-10
4.73063e-09
2.35731e-10
4.65818e-09
2.54394e-10
4.55443e-09
3.3932e-10
4.49853e-09
2.56315e-10
4.3841e-09
3.71624e-10
4.27828e-09
2.75869e-10
4.19417e-09
1.97383e-10
4.11787e-09
2.10676e-10
4.09141e-09
1.64034e-10
4.01153e-09
2.45258e-10
3.81688e-09
4.20965e-10
3.79695e-09
6.86976e-10
3.89507e-09
7.81046e-10
3.84252e-09
7.53675e-10
3.72598e-09
1.41299e-09
3.75084e-09
1.50182e-09
4.01276e-09
1.58039e-09
4.08976e-09
1.91729e-09
3.97868e-09
2.48946e-09
3.85088e-09
2.7014e-09
3.61192e-09
3.12836e-09
3.59936e-09
3.13536e-09
3.36178e-09
3.27252e-09
2.59786e-09
3.60237e-09
2.24858e-09
3.72081e-09
2.06105e-09
3.60352e-09
1.75877e-09
3.60925e-09
1.50248e-09
3.36823e-09
1.08397e-09
3.32876e-09
7.14617e-10
3.40172e-09
3.83389e-10
3.30045e-09
2.21066e-10
3.32292e-09
7.49537e-17
3.34492e-09
1.00663e-18
2.676e-18
1.08246e-18
2.74837e-18
1.29621e-18
2.61784e-18
1.41704e-18
2.33922e-18
1.45384e-18
2.00795e-18
1.44782e-18
1.6645e-18
1.43347e-18
1.32326e-18
1.43377e-18
9.92718e-19
1.4615e-18
6.82042e-19
1.5212e-18
4.01455e-19
1.61104e-18
1.61163e-19
1.72515e-18
-3.11693e-20
1.85491e-18
-1.70983e-19
1.99069e-18
-2.56679e-19
2.12291e-18
-2.89773e-19
2.24295e-18
-2.74379e-19
2.34366e-18
-2.16509e-19
2.41955e-18
-1.23345e-19
2.46686e-18
-2.56121e-21
2.48347e-18
1.38232e-19
2.46864e-18
2.91904e-19
2.4228e-18
4.52078e-19
2.34727e-18
6.13282e-19
2.24402e-18
7.71002e-19
2.11542e-18
9.21652e-19
1.96411e-18
1.0625e-18
1.79278e-18
1.19157e-18
1.60413e-18
1.30751e-18
1.40076e-18
1.40944e-18
1.18516e-18
1.4969e-18
9.59656e-19
1.56968e-18
7.26432e-19
1.62774e-18
4.87545e-19
1.67114e-18
2.44945e-19
1.69999e-18
1.71439e-18
1.59985e-10
8.86909e-10
3.38674e-10
8.48281e-10
4.94714e-10
7.83246e-10
5.71908e-10
6.35079e-10
7.00831e-10
3.7483e-10
8.64755e-10
7.20667e-11
1.01637e-09
-3.0413e-10
1.17738e-09
-6.72441e-10
1.4032e-09
-1.14584e-09
1.74593e-09
-1.6715e-09
1.93746e-09
-2.11773e-09
2.31811e-09
-2.80012e-09
2.92919e-09
-3.25975e-09
3.14484e-09
-3.4457e-09
3.38832e-09
-3.91452e-09
3.87196e-09
-4.1501e-09
4.03656e-09
-4.18554e-09
4.31702e-09
-4.01683e-09
4.36946e-09
-3.83331e-09
4.1239e-09
-3.41614e-09
4.21717e-09
-3.66315e-09
4.26479e-09
-2.81463e-09
4.21149e-09
-2.81054e-09
4.1263e-09
-2.40793e-09
4.09326e-09
-2.03929e-09
4.14422e-09
-1.6914e-09
3.95193e-09
-1.19551e-09
3.97466e-09
-1.27786e-09
3.92112e-09
-1.19368e-09
3.90405e-09
-1.10163e-09
3.92159e-09
-9.4615e-10
3.92787e-09
-8.49169e-10
3.93973e-09
-8.26105e-10
4.05756e-09
-9.09342e-10
4.12204e-09
-8.1794e-10
4.10798e-09
-7.55925e-10
4.1038e-09
-7.44565e-10
4.13873e-09
-6.88511e-10
4.12956e-09
-5.11997e-10
4.11177e-09
-4.493e-10
4.09276e-09
-4.14248e-10
4.0594e-09
-3.82631e-10
4.03603e-09
-3.5374e-10
4.05585e-09
-3.29544e-10
4.09682e-09
-3.22036e-10
4.16241e-09
-3.0353e-10
4.23139e-09
-2.38397e-10
4.28752e-09
-1.50017e-10
4.36408e-09
-1.57281e-10
4.35906e-09
6.21118e-11
4.33382e-09
1.76412e-10
4.26378e-09
2.41147e-10
4.18785e-09
3.11655e-10
4.0805e-09
3.61745e-10
3.97183e-09
4.47987e-10
3.81263e-09
4.15515e-10
3.7728e-09
4.11451e-10
3.61809e-09
4.30579e-10
3.43929e-09
3.76183e-10
3.32314e-09
3.26821e-10
3.26562e-09
2.21555e-10
3.23405e-09
2.76824e-10
3.15618e-09
4.98843e-10
3.20681e-09
6.3634e-10
3.30178e-09
6.8607e-10
3.07504e-09
9.80416e-10
3.18828e-09
1.29975e-09
3.07462e-09
1.61548e-09
2.78081e-09
1.87419e-09
2.14732e-09
2.55078e-09
1.96714e-09
2.66964e-09
1.86773e-09
2.8008e-09
2.20988e-09
2.78621e-09
2.31298e-09
3.03226e-09
1.97166e-09
3.61383e-09
1.9353e-09
3.63874e-09
1.98346e-09
3.67265e-09
1.96872e-09
3.61826e-09
1.92523e-09
3.65275e-09
1.67112e-09
3.62234e-09
1.35765e-09
3.64223e-09
8.76945e-10
3.88243e-09
4.25425e-10
3.75197e-09
2.53451e-10
3.49489e-09
1.86265e-16
3.59837e-09
1.08045e-18
3.2413e-18
9.53306e-19
2.87586e-18
1.01885e-18
2.55263e-18
1.08694e-18
2.27175e-18
1.11147e-18
1.98432e-18
1.10758e-18
1.66951e-18
1.10385e-18
1.32828e-18
1.12396e-18
9.73982e-19
1.18172e-18
6.25661e-19
1.28123e-18
3.03282e-19
1.41871e-18
2.4922e-20
1.58533e-18
-1.96691e-19
1.76922e-18
-3.53908e-19
1.95759e-18
-4.44191e-19
2.1383e-18
-4.69648e-19
2.30082e-18
-4.36013e-19
2.43683e-18
-3.51494e-19
2.54033e-18
-2.25672e-19
2.60766e-18
-6.85423e-20
2.63714e-18
1.10223e-19
2.62881e-18
3.0179e-19
2.584e-18
4.98468e-19
2.50499e-18
6.9385e-19
2.39467e-18
8.82817e-19
2.25628e-18
1.06146e-18
2.09318e-18
1.22693e-18
1.90871e-18
1.37729e-18
1.70606e-18
1.51133e-18
1.48822e-18
1.6284e-18
1.25794e-18
1.72826e-18
1.01771e-18
1.81094e-18
7.69836e-19
1.87662e-18
5.16398e-19
1.92557e-18
2.5934e-19
1.95803e-18
1.97421e-18
1.96903e-10
6.90006e-10
4.3234e-10
6.12846e-10
6.0538e-10
6.10207e-10
7.32035e-10
5.08426e-10
8.48164e-10
2.58701e-10
9.68747e-10
-4.85149e-11
1.14186e-09
-4.77241e-10
1.40926e-09
-9.39841e-10
1.72191e-09
-1.45848e-09
2.07111e-09
-2.0207e-09
2.46599e-09
-2.51261e-09
2.72437e-09
-3.05851e-09
2.95874e-09
-3.49412e-09
3.25663e-09
-3.74358e-09
3.51631e-09
-4.17421e-09
3.85887e-09
-4.49265e-09
4.01284e-09
-4.33951e-09
4.12759e-09
-4.13159e-09
4.04528e-09
-3.75099e-09
4.08828e-09
-3.45913e-09
4.01636e-09
-3.59123e-09
4.03195e-09
-2.83023e-09
3.73632e-09
-2.5149e-09
3.41923e-09
-2.09084e-09
2.99309e-09
-1.61315e-09
3.11718e-09
-1.81549e-09
3.26307e-09
-1.3414e-09
3.36357e-09
-1.37837e-09
3.34048e-09
-1.17059e-09
3.30309e-09
-1.06423e-09
3.27474e-09
-9.17798e-10
3.32232e-09
-8.96752e-10
3.36672e-09
-8.70506e-10
3.37533e-09
-9.17949e-10
3.39825e-09
-8.40862e-10
3.39761e-09
-7.55289e-10
3.36358e-09
-7.10529e-10
3.35852e-09
-6.83456e-10
3.3668e-09
-5.20277e-10
3.33811e-09
-4.20608e-10
3.31095e-09
-3.87085e-10
3.29452e-09
-3.66204e-10
3.30706e-09
-3.66276e-10
3.34814e-09
-3.70625e-10
3.41023e-09
-3.8413e-10
3.49162e-09
-3.84921e-10
3.56973e-09
-3.16512e-10
3.61689e-09
-1.97174e-10
3.69499e-09
-2.35378e-10
3.69849e-09
5.8611e-11
3.69594e-09
1.78961e-10
3.6581e-09
2.78979e-10
3.60659e-09
3.6317e-10
3.51259e-09
4.55739e-10
3.44338e-09
5.172e-10
3.28993e-09
5.68965e-10
3.1911e-09
5.10272e-10
3.04324e-09
5.78439e-10
2.96178e-09
4.57642e-10
2.68882e-09
5.99784e-10
2.5792e-09
3.31174e-10
2.1841e-09
6.71921e-10
2.08944e-09
5.93507e-10
2.16345e-09
5.62327e-10
2.14379e-09
7.05729e-10
2.23361e-09
8.90592e-10
2.44111e-09
1.09225e-09
2.68873e-09
1.36786e-09
2.83638e-09
1.72653e-09
3.00109e-09
2.38607e-09
3.05631e-09
2.61442e-09
2.79286e-09
3.06426e-09
2.38619e-09
3.19287e-09
1.75829e-09
3.66017e-09
1.70291e-09
3.66921e-09
1.62035e-09
3.7213e-09
1.39342e-09
3.89957e-09
1.13192e-09
3.87976e-09
8.92201e-10
3.89247e-09
6.55967e-10
3.85857e-09
5.52325e-10
3.74587e-09
6.20538e-10
3.81422e-09
4.78284e-10
3.89422e-09
1.3609e-10
3.83708e-09
3.22459e-16
3.73446e-09
7.16496e-19
4.61036e-18
6.31421e-19
2.96115e-18
7.39211e-19
2.44487e-18
8.00649e-19
2.21067e-18
7.97713e-19
1.98791e-18
7.67333e-19
1.70083e-18
7.50458e-19
1.34631e-18
7.76481e-19
9.49268e-19
8.6013e-19
5.43415e-19
1.00305e-18
1.6179e-19
1.1971e-18
-1.67742e-19
1.42812e-18
-4.26442e-19
1.67894e-18
-6.03613e-19
1.93213e-18
-6.96428e-19
2.17194e-18
-7.08583e-19
2.38534e-18
-6.48563e-19
2.56265e-18
-5.27867e-19
2.69746e-18
-3.59416e-19
2.78642e-18
-1.56267e-19
2.82871e-18
6.93261e-20
2.82549e-18
3.06507e-19
2.77939e-18
5.46128e-19
2.69396e-18
7.80831e-19
2.57331e-18
1.00497e-18
2.42175e-18
1.21446e-18
2.24354e-18
1.40648e-18
2.04275e-18
1.57934e-18
1.82313e-18
1.73213e-18
1.58808e-18
1.86457e-18
1.34061e-18
1.97679e-18
1.0834e-18
2.06918e-18
8.18784e-19
2.14223e-18
5.48861e-19
2.19647e-18
2.75514e-19
2.23235e-18
2.25019e-18
2.6051e-10
4.29497e-10
5.33352e-10
3.40005e-10
7.53896e-10
3.89664e-10
9.77907e-10
2.84416e-10
1.13388e-09
1.02733e-10
1.26509e-09
-1.79732e-10
1.42553e-09
-6.37673e-10
1.66494e-09
-1.17926e-09
1.92613e-09
-1.71967e-09
2.20702e-09
-2.30159e-09
2.40928e-09
-2.71487e-09
2.70305e-09
-3.35227e-09
2.93843e-09
-3.72949e-09