/*--------------------------------*- C++ -*----------------------------------*\
  =========                 |
  \\      /  F ield         | OpenFOAM: The Open Source CFD Toolbox
   \\    /   O peration     | Website:  https://openfoam.org
    \\  /    A nd           | Version:  6
     \\/     M anipulation  |
\*---------------------------------------------------------------------------*/
FoamFile
{
    version     2.0;
    format      ascii;
    class       surfaceScalarField;
    location    "1050";
    object      phi;
}
// * * * * * * * * * * * * * * * * * * * * * * * * * * * * * * * * * * * * * //

dimensions      [0 3 -1 0 0 0 0];

internalField   nonuniform List<scalar> 
9440
(
6.4146e-12
-6.4146e-12
-3.64506e-11
4.28655e-11
-2.14351e-10
1.779e-10
-3.04687e-10
9.03368e-11
-4.49535e-10
1.44848e-10
-5.68957e-10
1.19422e-10
-7.43692e-10
1.74735e-10
-8.11261e-10
6.7569e-11
-8.55261e-10
4.40001e-11
-8.09e-10
-4.62611e-11
-7.31618e-10
-7.73818e-11
-6.71456e-10
-6.0162e-11
-5.98205e-10
-7.32514e-11
-5.0227e-10
-9.59345e-11
-4.21164e-10
-8.11066e-11
-4.04783e-10
-1.63807e-11
-3.9799e-10
-6.79292e-12
-4.247e-10
2.67106e-11
-4.5238e-10
2.76795e-11
-4.71197e-10
1.88175e-11
-4.62377e-10
-8.82029e-12
-4.34611e-10
-2.77655e-11
-4.32271e-10
-2.33954e-12
-4.26626e-10
-5.64544e-12
-3.60229e-10
-6.63967e-11
-3.45686e-10
-1.45426e-11
-4.21424e-10
7.57385e-11
-7.15044e-10
2.9362e-10
-1.13442e-09
4.19373e-10
-1.56901e-09
4.34598e-10
-1.99111e-09
4.22095e-10
-2.32107e-09
3.29956e-10
-2.51508e-09
1.94017e-10
-2.64694e-09
1.31856e-10
-2.67801e-09
3.1074e-11
-2.68914e-09
1.11255e-11
-2.67823e-09
-1.091e-11
-2.65983e-09
-1.83972e-11
-2.65697e-09
-2.86643e-12
-2.67162e-09
1.46581e-11
-2.66888e-09
-2.74269e-12
-2.65895e-09
-9.93261e-12
-2.67702e-09
1.80647e-11
-2.63544e-09
-4.15812e-11
-2.61729e-09
-1.81497e-11
-2.59453e-09
-2.27566e-11
-2.56938e-09
-2.51523e-11
-2.57634e-09
6.96098e-12
-2.59781e-09
2.14697e-11
-2.57049e-09
-2.73251e-11
-2.42155e-09
-1.48942e-10
-2.12175e-09
-2.99802e-10
-2.02332e-09
-9.84238e-11
-1.91926e-09
-1.04061e-10
-1.80147e-09
-1.17795e-10
-1.69952e-09
-1.01954e-10
-1.58114e-09
-1.18375e-10
-1.05009e-09
-5.31055e-10
-8.01906e-10
-2.48187e-10
-4.35286e-10
-3.66622e-10
-1.84593e-10
-2.50695e-10
1.73869e-10
-3.58464e-10
5.05947e-10
-3.32079e-10
7.01306e-10
-1.95361e-10
8.59525e-10
-1.5822e-10
8.7106e-10
-1.15358e-11
7.04578e-10
1.66481e-10
2.18984e-10
4.85593e-10
-3.42749e-10
5.61732e-10
-6.8403e-10
3.4128e-10
-9.99709e-10
3.15677e-10
-1.08344e-09
8.37258e-11
-9.6573e-10
-1.17709e-10
-8.72342e-10
-9.33895e-11
-8.77548e-10
5.20496e-12
-1.04308e-09
1.65527e-10
-1.18649e-09
1.4341e-10
-1.01151e-09
-1.74973e-10
-6.1263e-10
-3.98888e-10
1.84697e-14
-6.12662e-10
-3.50515e-18
-1.84181e-19
-3.48047e-18
-2.46779e-20
-3.39022e-18
-9.59996e-20
-3.23943e-18
-1.50332e-19
-3.05082e-18
-1.87454e-19
-2.83379e-18
-2.16854e-19
-2.59217e-18
-2.42333e-19
-2.3291e-18
-2.64323e-19
-2.04863e-18
-2.82101e-19
-1.75576e-18
-2.94822e-19
-1.45611e-18
-3.01903e-19
-1.15544e-18
-3.03132e-19
-8.59375e-19
-2.98646e-19
-5.73123e-19
-2.88859e-19
-3.01259e-19
-2.74386e-19
-4.76301e-20
-2.55971e-19
1.84698e-19
-2.34424e-19
3.93441e-19
-2.10559e-19
5.77057e-19
-1.85157e-19
7.34685e-19
-1.58933e-19
8.66075e-19
-1.32523e-19
9.71497e-19
-1.06465e-19
1.05166e-18
-8.1198e-20
1.10764e-18
-5.70636e-20
1.14081e-18
-3.43177e-20
1.15271e-18
-1.31401e-20
1.14502e-18
6.35482e-21
1.11948e-18
2.41105e-20
1.07781e-18
4.012e-20
1.02171e-18
5.44159e-20
9.52838e-19
6.70595e-20
8.72805e-19
7.813e-20
7.83156e-19
8.77131e-20
6.85366e-19
9.58947e-20
5.8082e-19
1.02755e-19
4.70821e-19
1.08364e-19
3.56586e-19
1.12781e-19
2.39268e-19
1.16041e-19
1.19996e-19
1.1814e-19
1.18958e-19
-1.69107e-10
1.62693e-10
-2.56161e-10
1.2992e-10
-2.50383e-10
1.72122e-10
-4.05268e-10
2.45223e-10
-4.60618e-10
2.00199e-10
-6.27754e-10
2.86559e-10
-6.39492e-10
1.86473e-10
-6.86377e-10
1.14453e-10
-6.55328e-10
1.29514e-11
-6.21719e-10
-7.98695e-11
-5.70353e-10
-1.28748e-10
-4.82718e-10
-1.47797e-10
-3.95837e-10
-1.60132e-10
-3.26833e-10
-1.64939e-10
-2.83932e-10
-1.24008e-10
-2.45519e-10
-5.47935e-11
-2.37361e-10
-1.4951e-11
-2.62347e-10
5.16972e-11
-3.15982e-10
8.13145e-11
-3.91291e-10
9.41272e-11
-4.70939e-10
7.08284e-11
-4.9934e-10
6.3551e-13
-5.03665e-10
1.98578e-12
-5.40708e-10
3.13974e-11
-6.2357e-10
1.64659e-11
-8.4562e-10
2.07508e-10
-1.13227e-09
3.62386e-10
-1.43861e-09
5.99964e-10
-1.70722e-09
6.87983e-10
-2.04816e-09
7.75539e-10
-2.32339e-09
6.97324e-10
-2.34119e-09
3.47757e-10
-2.46993e-09
3.22758e-10
-2.62717e-09
2.8909e-10
-2.64199e-09
4.5899e-11
-2.70169e-09
7.08222e-11
-2.74762e-09
3.5023e-11
-2.75446e-09
-1.156e-11
-2.74845e-09
-8.87776e-12
-2.71409e-09
-1.96999e-11
-2.69342e-09
-2.34186e-11
-2.68637e-09
-1.69871e-11
-2.68403e-09
1.57228e-11
-2.68193e-09
-4.36808e-11
-2.65517e-09
-4.49102e-11
-2.61852e-09
-5.94094e-11
-2.56979e-09
-7.38872e-11
-2.53356e-09
-2.92715e-11
-2.48566e-09
-2.6427e-11
-2.43098e-09
-8.20064e-11
-2.34891e-09
-2.31016e-10
-2.22114e-09
-4.27567e-10
-2.08913e-09
-2.30442e-10
-1.9313e-09
-2.61892e-10
-1.70525e-09
-3.43849e-10
-1.56584e-09
-2.41365e-10
-1.39421e-09
-2.90002e-10
-1.17552e-09
-7.49758e-10
-8.24808e-10
-5.98898e-10
-5.91306e-10
-6.00127e-10
-2.00518e-10
-6.41486e-10
1.07405e-10
-6.6639e-10
2.79429e-10
-5.04106e-10
4.87653e-10
-4.03588e-10
5.82563e-10
-2.53132e-10
6.72568e-10
-1.01543e-10
7.73806e-10
6.52407e-11
8.80553e-10
3.78843e-10
1.14994e-09
2.9234e-10
1.1239e-09
3.67315e-10
1.01612e-09
4.23461e-10
7.23477e-10
3.76363e-10
3.83054e-10
2.22711e-10
-7.83805e-11
3.68042e-10
-5.73616e-10
5.00438e-10
-8.05454e-10
3.97363e-10
-8.76192e-10
2.14146e-10
-7.51962e-10
-2.99202e-10
-4.36106e-10
-7.14727e-10
1.89702e-16
-1.04872e-09
-3.41052e-18
1.19288e-18
-3.55179e-18
1.28666e-19
-3.44455e-18
-2.00847e-19
-3.27656e-18
-3.19085e-19
-3.08022e-18
-3.85226e-19
-2.85927e-18
-4.39613e-19
-2.61416e-18
-4.89748e-19
-2.34687e-18
-5.34451e-19
-2.06135e-18
-5.70995e-19
-1.76284e-18
-5.97131e-19
-1.45733e-18
-6.11543e-19
-1.15095e-18
-6.13826e-19
-8.49588e-19
-6.04332e-19
-5.5865e-19
-5.83989e-19
-2.82844e-19
-5.54124e-19
-2.60826e-20
-5.16312e-19
2.08563e-19
-4.72245e-19
4.18844e-19
-4.23615e-19
6.0328e-19
-3.72027e-19
7.61096e-19
-3.18938e-19
8.92133e-19
-2.65617e-19
9.96764e-19
-2.13125e-19
1.0758e-18
-1.6232e-19
1.13039e-18
-1.1387e-19
1.16198e-18
-6.82755e-20
1.1722e-18
-2.58891e-20
1.16278e-18
1.30723e-20
1.13549e-18
4.85153e-20
1.09211e-18
8.04507e-20
1.03435e-18
1.08969e-19
9.63908e-19
1.34213e-19
8.82388e-19
1.56347e-19
7.91338e-19
1.75542e-19
6.92226e-19
1.9196e-19
5.8643e-19
2.05745e-19
4.75238e-19
2.17024e-19
3.59847e-19
2.25905e-19
2.41368e-19
2.32471e-19
1.20813e-19
2.36787e-19
2.38914e-19
-1.4196e-10
3.04653e-10
-2.80837e-10
2.68798e-10
-3.44955e-10
2.36241e-10
-4.00829e-10
3.01097e-10
-4.83855e-10
2.83225e-10
-5.05007e-10
3.07711e-10
-5.13885e-10
1.95351e-10
-5.09905e-10
1.10474e-10
-4.4968e-10
-4.72736e-11
-4.12442e-10
-1.17107e-10
-3.67164e-10
-1.74026e-10
-2.90512e-10
-2.24448e-10
-1.92362e-10
-2.58282e-10
-9.17083e-11
-2.65593e-10
1.02836e-11
-2.26e-10
1.08913e-10
-1.53422e-10
1.50557e-10
-5.65954e-11
1.34798e-10
6.74565e-11
7.88998e-11
1.37213e-10
-2.54017e-11
1.98429e-10
-1.57314e-10
2.02741e-10
-3.16729e-10
1.6005e-10
-4.58773e-10
1.44031e-10
-5.87626e-10
1.6025e-10
-7.15644e-10
1.44485e-10
-8.86909e-10
3.78773e-10
-1.30564e-09
7.81117e-10
-1.62242e-09
9.16746e-10
-1.85913e-09
9.24695e-10
-2.00808e-09
9.24486e-10
-2.11322e-09
8.0246e-10
-2.26386e-09
4.98399e-10
-2.37968e-09
4.38578e-10
-2.40325e-09
3.12659e-10
-2.45384e-09
9.64875e-11
-2.55042e-09
1.67403e-10
-2.61047e-09
9.50725e-11
-2.59447e-09
-2.75626e-11
-2.5757e-09
-2.764e-11
-2.52056e-09
-7.4848e-11
-2.44814e-09
-9.58356e-11
-2.38798e-09
-7.71485e-11
-2.3718e-09
-4.58738e-13
-2.33784e-09
-7.76447e-11
-2.26386e-09
-1.18892e-10
-2.28607e-09
-3.72027e-11
-2.24305e-09
-1.16908e-10
-2.1635e-09
-1.08824e-10
-2.06668e-09
-1.23241e-10
-2.01317e-09
-1.35525e-10
-2.01507e-09
-2.2911e-10
-2.07343e-09
-3.69215e-10
-1.93499e-09
-3.68878e-10
-1.71494e-09
-4.81949e-10
-1.55466e-09
-5.04134e-10
-1.39276e-09
-4.03261e-10
-1.2001e-09
-4.82663e-10
-1.13533e-09
-8.14538e-10
-9.0015e-10
-8.34076e-10
-5.8986e-10
-9.1042e-10
-2.54025e-10
-9.77324e-10
-1.8332e-10
-7.37098e-10
-4.21506e-11
-6.45278e-10
1.91059e-10
-6.36801e-10
4.12904e-10
-4.74979e-10
5.23412e-10
-2.12054e-10
6.49832e-10
-6.11816e-11
1.02645e-09
2.22569e-12
1.38952e-09
-7.07358e-11
1.34807e-09
4.08761e-10
1.29959e-09
4.71937e-10
1.14256e-09
5.33394e-10
8.71442e-10
4.93827e-10
7.03592e-10
5.3589e-10
5.59462e-10
6.44565e-10
5.60786e-10
3.96037e-10
3.45855e-10
4.29072e-10
1.36636e-10
-8.99971e-11
6.04296e-12
-5.8416e-10
-2.27701e-16
-1.04269e-09
-4.57352e-18
-9.27423e-19
-3.88131e-18
-5.63219e-19
-3.56279e-18
-5.19299e-19
-3.3427e-18
-5.40054e-19
-3.13461e-18
-5.9463e-19
-2.90941e-18
-6.6636e-19
-2.65886e-18
-7.4208e-19
-2.38342e-18
-8.11952e-19
-2.08748e-18
-8.69282e-19
-1.77726e-18
-9.09991e-19
-1.45962e-18
-9.32062e-19
-1.14146e-18
-9.35055e-19
-8.29245e-19
-9.1972e-19
-5.28784e-19
-8.87657e-19
-2.45033e-19
-8.41038e-19
1.79844e-20
-7.82374e-19
2.57193e-19
-7.14324e-19
4.70432e-19
-6.39518e-19
6.56369e-19
-5.60431e-19
8.14417e-19
-4.79288e-19
9.44625e-19
-3.98018e-19
1.04757e-18
-3.18222e-19
1.12425e-18
-2.4118e-19
1.17598e-18
-1.67875e-19
1.20437e-18
-9.90286e-20
1.21116e-18
-3.51396e-20
1.19822e-18
2.34953e-20
1.16743e-18
7.67568e-20
1.12063e-18
1.24677e-19
1.0596e-18
1.67403e-19
9.86043e-19
2.0516e-19
9.01583e-19
2.3821e-19
8.07755e-19
2.66823e-19
7.06011e-19
2.91257e-19
5.97709e-19
3.11743e-19
4.84118e-19
3.28484e-19
3.66413e-19
3.41653e-19
2.45684e-19
3.51388e-19
1.22941e-19
3.578e-19
3.6097e-19
-1.28844e-10
4.33497e-10
-2.50962e-10
3.90917e-10
-3.41384e-10
3.26663e-10
-3.65796e-10
3.25509e-10
-4.04554e-10
3.21983e-10
-4.13803e-10
3.16961e-10
-3.62825e-10
1.44373e-10
-3.28251e-10
7.59002e-11
-3.18823e-10
-5.67018e-11
-2.77562e-10
-1.58368e-10
-1.83994e-10
-2.67594e-10
-3.27582e-11
-3.75684e-10
1.09871e-10
-4.00912e-10
1.71035e-10
-3.26757e-10
2.08851e-10
-2.63815e-10
1.95907e-10
-1.40479e-10
2.43929e-10
-1.04617e-10
2.07387e-10
1.03998e-10
1.29401e-10
2.152e-10
2.794e-11
2.9989e-10
-9.62271e-11
3.26909e-10
-2.66251e-10
3.30075e-10
-4.61139e-10
3.38918e-10
-6.87111e-10
3.86222e-10
-1.00339e-09
4.6076e-10
-1.28756e-09
6.62945e-10
-1.50045e-09
9.94008e-10
-1.71425e-09
1.13055e-09
-1.87669e-09
1.08714e-09
-1.9434e-09
9.91189e-10
-1.99841e-09
8.57475e-10
-2.03444e-09
5.34429e-10
-2.16229e-09
5.66426e-10
-2.18155e-09
3.31915e-10
-2.27851e-09
1.93448e-10
-2.31282e-09
2.01711e-10
-2.34462e-09
1.26878e-10
-2.30847e-09
-6.37146e-11
-2.27664e-09
-5.94699e-11
-2.25106e-09
-1.00427e-10
-2.19974e-09
-1.47155e-10
-2.14233e-09
-1.34568e-10
-2.06036e-09
-8.24302e-11
-1.98975e-09
-1.48252e-10
-1.91438e-09
-1.9426e-10
-1.86792e-09
-8.36649e-11
-1.85253e-09
-1.32306e-10
-1.83713e-09
-1.24223e-10
-1.81513e-09
-1.45237e-10
-1.74177e-09
-2.08886e-10
-1.73583e-09
-2.35054e-10
-1.7066e-09
-3.98451e-10
-1.62908e-09
-4.46397e-10
-1.57074e-09
-5.40288e-10
-1.52118e-09
-5.53702e-10
-1.30408e-09
-6.20355e-10
-1.0839e-09
-7.02853e-10
-9.51714e-10
-9.46722e-10
-7.12938e-10
-1.07286e-09
-4.75042e-10
-1.14832e-09
-3.37751e-10
-1.11462e-09
-2.05979e-11
-1.05425e-09
3.38502e-10
-1.00438e-09
3.36899e-10
-6.352e-10
3.44417e-10
-4.82499e-10
5.58765e-10
-4.26404e-10
6.41739e-10
-1.44158e-10
1.12206e-09
-4.78096e-10
1.1318e-09
-8.04772e-11
1.2926e-09
2.4796e-10
1.36248e-09
4.02053e-10
1.33965e-09
5.56221e-10
1.28316e-09
5.50312e-10
1.16146e-09
6.57583e-10
1.02965e-09
7.76375e-10
8.97579e-10
5.2811e-10
7.04855e-10
6.218e-10
5.82187e-10
3.26761e-11
3.01177e-10
-3.03153e-10
7.09378e-16
-7.41512e-10
-4.30396e-18
-1.54795e-18
-3.83739e-18
-1.03094e-18
-3.58354e-18
-7.74551e-19
-3.39727e-18
-7.27663e-19
-3.20634e-18
-7.86932e-19
-2.98513e-18
-8.88957e-19
-2.72873e-18
-9.99897e-19
-2.44075e-18
-1.10143e-18
-2.12819e-18
-1.18346e-18
-1.79933e-18
-1.24065e-18
-1.46261e-18
-1.27078e-18
-1.12612e-18
-1.27378e-18
-7.97182e-19
-1.25111e-18
-4.82165e-19
-1.20531e-18
-1.86369e-19
-1.13962e-18
8.6035e-20
-1.05767e-18
3.31999e-19
-9.63202e-19
5.49519e-19
-8.59903e-19
7.37512e-19
-7.51196e-19
8.95687e-19
-6.40129e-19
1.02442e-18
-5.2932e-19
1.12461e-18
-4.20918e-19
1.19755e-18
-3.16617e-19
1.24483e-18
-2.17689e-19
1.26826e-18
-1.25045e-19
1.2698e-18
-3.929e-20
1.25148e-18
3.92293e-20
1.21535e-18
1.10392e-19
1.16335e-18
1.7427e-19
1.09735e-18
2.31084e-19
1.01909e-18
2.81159e-19
9.30196e-19
3.24875e-19
8.32189e-19
3.62624e-19
7.26497e-19
3.94781e-19
6.1445e-19
4.21686e-19
4.97287e-19
4.43635e-19
3.76149e-19
4.60877e-19
2.52095e-19
4.73614e-19
1.26111e-19
4.81999e-19
4.86141e-19
-1.20425e-10
5.53923e-10
-2.20433e-10
4.90925e-10
-2.86175e-10
3.92406e-10
-3.26134e-10
3.65469e-10
-3.36482e-10
3.32331e-10
-2.87455e-10
2.67935e-10
-2.637e-10
1.20617e-10
-2.49677e-10
6.18777e-11
-2.04862e-10
-1.01517e-10
-9.91608e-11
-2.64069e-10
2.39548e-11
-3.90709e-10
1.1652e-10
-4.68249e-10
2.02618e-10
-4.87009e-10
2.75296e-10
-3.99435e-10
3.0796e-10
-2.96479e-10
2.86813e-10
-1.19331e-10
3.01975e-10
-1.19779e-10
2.41592e-10
1.64381e-10
1.47656e-10
3.09136e-10
5.61474e-11
3.91399e-10
-8.47243e-11
4.67781e-10
-2.85475e-10
5.30825e-10
-5.18454e-10
5.71898e-10
-7.97466e-10
6.65234e-10
-1.10629e-09
7.69585e-10
-1.35235e-09
9.09005e-10
-1.49787e-09
1.13953e-09
-1.58124e-09
1.21391e-09
-1.63716e-09
1.14305e-09
-1.60869e-09
9.62719e-10
-1.76748e-09
1.01627e-09
-1.91325e-09
6.802e-10
-1.95823e-09
6.11404e-10
-2.03873e-09
4.1242e-10
-2.09469e-09
2.49402e-10
-2.10886e-09
2.15878e-10
-2.14897e-09
1.66994e-10
-2.08147e-09
-1.31221e-10
-2.02631e-09
-1.1463e-10
-2.00884e-09
-1.17892e-10
-1.91096e-09
-2.45042e-10
-1.81275e-09
-2.32779e-10
-1.71427e-09
-1.80911e-10
-1.64316e-09
-2.19364e-10
-1.68045e-09
-1.56965e-10
-1.60246e-09
-1.61661e-10
-1.59684e-09
-1.37922e-10
-1.58353e-09
-1.37533e-10
-1.57763e-09
-1.51141e-10
-1.56695e-09
-2.19567e-10
-1.53102e-09
-2.70987e-10
-1.5647e-09
-3.6477e-10
-1.42811e-09
-5.82994e-10
-1.35714e-09
-6.11259e-10
-1.29502e-09
-6.15827e-10
-1.18771e-09
-7.27661e-10
-1.03052e-09
-8.60043e-10
-9.1359e-10
-1.06366e-09
-7.27997e-10
-1.25845e-09
-5.42131e-10
-1.33419e-09
-2.77531e-10
-1.37922e-09
1.85345e-11
-1.35032e-09
7.13603e-11
-1.05721e-09
2.72066e-10
-8.3591e-10
5.59766e-10
-7.70202e-10
7.07063e-10
-5.73704e-10
8.74833e-10
-3.1193e-10
1.08223e-09
-6.85496e-10
1.1193e-09
-1.17548e-10
1.27555e-09
9.17065e-11
1.40515e-09
2.72454e-10
1.42052e-09
5.40848e-10
1.40851e-09
5.62319e-10
1.35221e-09
7.13885e-10
1.33753e-09
7.9105e-10
1.19818e-09
6.67453e-10
1.10506e-09
7.14913e-10
6.60702e-10
4.77037e-10
2.78626e-10
7.89213e-11
1.11401e-15
-4.62889e-10
-3.8283e-18
-3.30954e-18
-3.581e-18
-1.27917e-18
-3.53665e-18
-8.21004e-19
-3.45654e-18
-8.09539e-19
-3.30836e-18
-9.36592e-19
-3.09607e-18
-1.10252e-18
-2.83027e-18
-1.26681e-18
-2.52277e-18
-1.40994e-18
-2.18539e-18
-1.52183e-18
-1.82946e-18
-1.59763e-18
-1.46561e-18
-1.63584e-18
-1.10345e-18
-1.63738e-18
-7.51385e-19
-1.6049e-18
-4.16479e-19
-1.54225e-18
-1.04414e-19
-1.45404e-18
1.80501e-19
-1.34523e-18
4.35298e-19
-1.22086e-18
6.58227e-19
-1.0858e-18
8.48578e-19
-9.44528e-19
1.0065e-18
-8.00975e-19
1.13282e-18
-6.58479e-19
1.22891e-18
-5.19745e-19
1.29648e-18
-3.86861e-19
1.33747e-18
-2.61353e-19
1.35401e-18
-1.44271e-19
1.34832e-18
-3.62746e-20
1.32265e-18
6.2294e-20
1.27923e-18
1.51357e-19
1.22017e-18
2.31059e-19
1.14743e-18
3.01727e-19
1.06281e-18
3.6381e-19
9.67945e-19
4.1783e-19
8.64346e-19
4.64326e-19
7.53401e-19
5.03815e-19
6.36399e-19
5.36767e-19
5.14529e-19
5.63591e-19
3.88886e-19
5.84626e-19
2.60481e-19
6.00146e-19
1.30252e-19
6.10356e-19
6.15398e-19
1.02946e-11
5.43629e-10
-4.40172e-11
5.45237e-10
-1.53226e-10
5.01615e-10
-2.15529e-10
4.27772e-10
-2.23043e-10
3.39845e-10
-1.61894e-10
2.06787e-10
-1.71556e-10
1.30279e-10
-1.78405e-10
6.87275e-11
-1.34299e-10
-1.45623e-10
-3.42259e-11
-3.64142e-10
8.20086e-11
-5.06943e-10
2.23658e-10
-6.09898e-10
3.37641e-10
-6.00992e-10
3.95657e-10
-4.57451e-10
4.13342e-10
-3.14164e-10
3.99491e-10
-1.0548e-10
3.43944e-10
-6.42312e-11
2.5464e-10
2.53685e-10
1.52119e-10
4.11657e-10
5.52916e-11
4.88227e-10
-7.59611e-11
5.99034e-10
-2.51269e-10
7.06134e-10
-4.25317e-10
7.45945e-10
-6.22524e-10
8.62442e-10
-9.47698e-10
1.09476e-09
-1.29384e-09
1.25514e-09
-1.44153e-09
1.28723e-09
-1.55344e-09
1.32583e-09
-1.70898e-09
1.29859e-09
-1.77913e-09
1.03288e-09
-1.73459e-09
9.71725e-10
-1.82649e-09
7.72095e-10
-1.74524e-09
5.30154e-10
-1.82486e-09
4.9204e-10
-1.89708e-09
3.21624e-10
-1.93584e-09
2.54634e-10
-1.9494e-09
1.80554e-10
-1.84841e-09
-2.32205e-10
-1.74037e-09
-2.22672e-10
-1.59884e-09
-2.59422e-10
-1.5044e-09
-3.39481e-10
-1.44335e-09
-2.93833e-10
-1.35648e-09
-2.6778e-10
-1.31889e-09
-2.5696e-10
-1.33288e-09
-1.42976e-10
-1.27433e-09
-2.20214e-10
-1.25661e-09
-1.55637e-10
-1.26848e-09
-1.25663e-10
-1.28035e-09
-1.39278e-10
-1.29848e-09
-2.01433e-10
-1.30062e-09
-2.68847e-10
-1.31012e-09
-3.55279e-10
-1.21756e-09
-6.75551e-10
-1.21345e-09
-6.15377e-10
-1.17367e-09
-6.55606e-10
-1.12304e-09
-7.78297e-10
-9.73002e-10
-1.01008e-09
-9.13114e-10
-1.12355e-09
-7.57465e-10
-1.4141e-09
-5.39468e-10
-1.55218e-09
-3.27521e-10
-1.59117e-09
-2.03405e-10
-1.47444e-09
1.20024e-10
-1.38064e-09
4.74773e-10
-1.19066e-09
6.33604e-10
-9.29035e-10
8.69647e-10
-8.09751e-10
1.24998e-09
-6.92265e-10
1.04454e-09
-4.80063e-10
1.23975e-09
-3.12761e-10
1.38994e-09
-5.84807e-11
1.47083e-09
1.91562e-10
1.43148e-09
5.80193e-10
1.47147e-09
5.22327e-10
1.42776e-09
7.57594e-10
1.38951e-09
8.29306e-10
1.27746e-09
7.79491e-10
1.20765e-09
7.8472e-10
1.26591e-09
4.18781e-10
8.81576e-10
4.63251e-10
1.16963e-15
4.18683e-10
-1.73048e-18
2.01596e-18
-3.12284e-18
1.12274e-19
-3.52519e-18
-4.21029e-19
-3.5836e-18
-7.53159e-19
-3.47429e-18
-1.04751e-18
-3.26035e-18
-1.31772e-18
-2.9734e-18
-1.55473e-18
-2.63466e-18
-1.74941e-18
-2.26118e-18
-1.89591e-18
-1.86767e-18
-1.99166e-18
-1.46715e-18
-2.03696e-18
-1.07097e-18
-2.03435e-18
-6.88738e-19
-1.98821e-18
-3.28265e-19
-1.90415e-18
4.39544e-21
-1.78851e-18
3.04866e-19
-1.64794e-18
5.70355e-19
-1.48898e-18
7.99502e-19
-1.31784e-18
9.92131e-19
-1.14016e-18
1.14899e-18
-9.60842e-19
1.27156e-18
-7.83956e-19
1.3618e-18
-6.12758e-19
1.42199e-18
-4.49701e-19
1.45456e-18
-2.96515e-19
1.46201e-18
-1.54319e-19
1.44689e-18
-2.37502e-20
1.41171e-18
9.49279e-20
1.35893e-18
2.01749e-19
1.29083e-18
2.9699e-19
1.20951e-18
3.8112e-19
1.11683e-18
4.54752e-19
1.01444e-18
5.18577e-19
9.03835e-19
5.73307e-19
7.86354e-19
6.19627e-19
6.63223e-19
6.58157e-19
5.35564e-19
6.89437e-19
4.04406e-19
7.13914e-19
2.70692e-19
7.31946e-19
1.35294e-19
7.43798e-19
7.49651e-19
-1.04928e-10
6.48557e-10
-1.67831e-10
6.08141e-10
-1.89701e-10
5.23486e-10
-1.82658e-10
4.20728e-10
-2.00213e-10
3.57401e-10
-1.91178e-10
1.97752e-10
-1.61439e-10
1.0054e-10
-1.41899e-10
4.91873e-11
-1.20362e-10
-1.67159e-10
2.38721e-11
-5.08376e-10
2.32401e-10
-7.15472e-10
3.39279e-10
-7.16776e-10
3.9217e-10
-6.53883e-10
4.33238e-10
-4.98519e-10
4.47813e-10
-3.28739e-10
4.57968e-10
-1.15635e-10
3.42874e-10
5.08633e-11
2.57368e-10
3.39191e-10
1.62701e-10
5.06325e-10
4.50944e-11
6.05834e-10
-9.064e-11
7.34768e-10
-2.73111e-10
8.88604e-10
-5.01524e-10
9.74359e-10
-6.8451e-10
1.04543e-09
-8.21702e-10
1.23195e-09
-1.06199e-09
1.49543e-09
-1.26912e-09
1.49435e-09
-1.37749e-09
1.4342e-09
-1.37413e-09
1.29522e-09
-1.39775e-09
1.05649e-09
-1.39e-09
9.63978e-10
-1.56361e-09
9.45708e-10
-1.67451e-09
6.4105e-10
-1.7347e-09
5.5223e-10
-1.7479e-09
3.34824e-10
-1.77149e-09
2.78226e-10
-1.74358e-09
1.52644e-10
-1.49331e-09
-4.82479e-10
-1.40722e-09
-3.08767e-10
-1.2211e-09
-4.4554e-10
-1.13906e-09
-4.21522e-10
-1.05e-09
-3.82898e-10
-9.68411e-10
-3.49365e-10
-9.45366e-10
-2.80005e-10
-8.85093e-10
-2.0325e-10
-9.06455e-10
-1.98853e-10
-8.77179e-10
-1.84913e-10
-8.7826e-10
-1.24584e-10
-8.78996e-10
-1.38544e-10
-8.94691e-10
-1.8574e-10
-9.00401e-10
-2.63139e-10
-9.09418e-10
-3.46263e-10
-9.88529e-10
-5.96442e-10
-9.80594e-10
-6.23315e-10
-8.85226e-10
-7.50976e-10
-8.35792e-10
-8.27733e-10
-8.46325e-10
-9.99545e-10
-8.25278e-10
-1.1446e-09
-7.1492e-10
-1.52446e-09
-5.45552e-10
-1.72155e-09
-3.71242e-10
-1.76548e-09
-5.31691e-11
-1.79252e-09
2.01242e-10
-1.63506e-09
3.6163e-10
-1.35105e-09
5.22902e-10
-1.09031e-09
7.5311e-10
-1.03996e-09
1.06763e-09
-1.00679e-09
1.05761e-09
-4.70044e-10
1.29271e-09
-5.47866e-10
1.33587e-09
-1.01645e-10
1.39486e-09
1.32575e-10
1.42791e-09
5.4714e-10
1.4666e-09
4.83634e-10
1.40552e-09
8.18677e-10
1.32063e-09
9.14188e-10
1.19185e-09
9.08274e-10
1.01471e-09
9.61858e-10
6.87347e-10
7.46137e-10
3.4103e-10
8.09564e-10
1.04877e-15
7.59709e-10
-3.46113e-18
7.09173e-19
-3.65614e-18
3.06174e-19
-3.85732e-18
-2.22315e-19
-3.87795e-18
-7.34695e-19
-3.7445e-18
-1.18271e-18
-3.49737e-18
-1.56623e-18
-3.16808e-18
-1.88506e-18
-2.78116e-18
-2.13709e-18
-2.35694e-18
-2.32065e-18
-1.91296e-18
-2.43599e-18
-1.46454e-18
-2.48568e-18
-1.02483e-18
-2.47448e-18
-6.04673e-19
-2.409e-18
-2.12632e-19
-2.29711e-18
1.4497e-19
-2.1474e-18
4.63827e-19
-1.96853e-18
7.41491e-19
-1.76887e-18
9.77179e-19
-1.55615e-18
1.17145e-18
-1.33729e-18
1.32588e-18
-1.11819e-18
1.44275e-18
-9.03673e-19
1.52485e-18
-6.97516e-19
1.57517e-18
-5.02482e-19
1.59675e-18
-3.20429e-19
1.59258e-18
-1.5246e-19
1.56556e-18
9.09391e-22
1.51853e-18
1.39596e-19
1.45417e-18
2.63839e-19
1.37497e-18
3.74122e-19
1.28314e-18
4.71121e-19
1.18065e-18
5.55654e-19
1.06917e-18
6.28615e-19
9.50155e-19
6.90917e-19
8.24884e-19
7.43436e-19
6.94503e-19
7.86963e-19
5.60041e-19
8.22189e-19
4.22438e-19
8.49683e-19
2.82544e-19
8.69898e-19
1.41147e-19
8.8317e-19
8.89725e-19
-9.34356e-11
7.41993e-10
-9.16858e-11
6.06391e-10
-8.08057e-11
5.12606e-10
-7.17808e-11
4.11703e-10
-2.97239e-11
3.15344e-10
-4.33571e-11
2.11385e-10
-5.53294e-11
1.12513e-10
-9.31169e-11
8.6975e-11
-9.23825e-11
-1.67894e-10
5.1041e-11
-6.51799e-10
2.25962e-10
-8.90392e-10
3.5146e-10
-8.42273e-10
4.16351e-10
-7.18774e-10
4.56371e-10
-5.38537e-10
4.61298e-10
-3.33666e-10
4.51853e-10
-1.06189e-10
3.26214e-10
1.76503e-10
2.56887e-10
4.08518e-10
1.70622e-10
5.92589e-10
3.95771e-11
7.36879e-10
-1.30759e-10
9.05105e-10
-3.06425e-10
1.06427e-09
-4.80167e-10
1.1481e-09
-7.16101e-10
1.28136e-09
-9.18924e-10
1.43478e-09
-9.97063e-10
1.57357e-09
-1.08643e-09
1.58372e-09
-1.18235e-09
1.53013e-09
-1.32298e-09
1.43586e-09
-1.48921e-09
1.22273e-09
-1.5668e-09
1.04157e-09
-1.55903e-09
9.37933e-10
-1.63487e-09
7.16892e-10
-1.68608e-09
6.03439e-10
-1.55438e-09
2.03118e-10
-1.51798e-09
2.4183e-10
-1.40281e-09
3.74768e-11
-1.278e-09
-6.07295e-10
-1.08381e-09
-5.02951e-10
-8.82304e-10
-6.47051e-10
-7.16576e-10
-5.87251e-10
-6.34899e-10
-4.64575e-10
-5.91667e-10
-3.92598e-10
-5.71418e-10
-3.00254e-10
-5.33842e-10
-2.40827e-10
-5.66175e-10
-1.66521e-10
-5.18653e-10
-2.32436e-10
-4.985e-10
-1.44738e-10
-4.79242e-10
-1.57804e-10
-4.89033e-10
-1.75951e-10
-4.98201e-10
-2.53972e-10
-5.31912e-10
-3.12555e-10
-6.71011e-10
-4.57344e-10
-6.92519e-10
-6.0181e-10
-6.96273e-10
-7.47224e-10
-7.47079e-10
-7.76928e-10
-7.52329e-10
-9.94297e-10
-6.83419e-10
-1.21351e-09
-6.82446e-10
-1.52544e-09
-4.91964e-10
-1.91204e-09
-2.60404e-10
-1.99704e-09
-8.65867e-11
-1.96634e-09
5.20195e-11
-1.77367e-09
2.68318e-10
-1.56735e-09
5.14271e-10
-1.33627e-09
6.94132e-10
-1.21983e-09
8.9454e-10
-1.2072e-09
9.48592e-10
-5.24098e-10
1.25325e-09
-8.52523e-10
1.25016e-09
-9.85592e-11
1.30474e-09
7.79983e-11
1.38862e-09
4.63258e-10
1.31543e-09
5.56824e-10
1.30658e-09
8.27527e-10
1.20662e-09
1.01414e-09
1.05892e-09
1.05597e-09
9.5373e-10
1.06705e-09
8.4833e-10
8.51535e-10
6.10567e-10
1.04733e-09
8.48295e-16
1.37027e-09
-3.5485e-18
2.90596e-18
-4.18463e-18
9.41037e-19
-4.3697e-18
-3.96693e-20
-4.32596e-18
-7.80652e-19
-4.12802e-18
-1.38255e-18
-3.8162e-18
-1.87963e-18
-3.4201e-18
-2.28243e-18
-2.96472e-18
-2.59347e-18
-2.47228e-18
-2.81385e-18
-1.96265e-18
-2.94614e-18
-1.45335e-18
-2.99532e-18
-9.59343e-19
-2.96882e-18
-4.92785e-19
-2.876e-18
-6.2915e-20
-2.72762e-18
3.23837e-19
-2.53501e-18
6.6349e-19
-2.30939e-18
9.54205e-19
-2.06128e-18
1.19604e-18
-1.80018e-18
1.39056e-18
-1.53436e-18
1.54039e-18
-1.27074e-18
1.64891e-18
-1.01488e-18
1.71989e-18
-7.70983e-19
1.75722e-18
-5.42036e-19
1.76472e-18
-3.29921e-19
1.74595e-18
-1.35609e-19
1.70425e-18
4.06256e-20
1.64277e-18
1.99003e-19
1.56445e-18
3.40079e-19
1.47196e-18
4.64646e-19
1.36768e-18
5.73664e-19
1.25361e-18
6.68213e-19
1.13147e-18
7.49432e-19
1.00267e-18
8.18464e-19
8.68412e-19
8.76397e-19
7.29728e-19
9.24214e-19
5.87536e-19
9.62771e-19
4.42652e-19
9.92774e-19
2.95816e-19
1.01478e-18
1.47702e-19
1.02921e-18
1.03634e-18
2.07739e-11
7.21219e-10
-1.97377e-11
6.46902e-10
-1.93019e-11
5.1217e-10
-1.43196e-11
4.06721e-10
-1.98021e-12
3.03004e-10
6.97849e-12
2.02426e-10
1.43746e-11
1.05117e-10
2.64864e-12
9.87012e-11
2.1147e-11
-1.86392e-10
1.33598e-10
-7.64249e-10
2.4061e-10
-9.97403e-10
3.23943e-10
-9.25605e-10
3.8976e-10
-7.8459e-10
4.15501e-10
-5.64277e-10
3.95955e-10
-3.1412e-10
3.33482e-10
-4.37157e-11
2.48445e-10
2.6154e-10
1.95994e-10
4.6097e-10
1.08457e-10
6.80126e-10
-1.18778e-11
8.57214e-10
-1.36838e-10
1.03006e-09
-3.21833e-10
1.24926e-09
-5.50318e-10
1.37659e-09
-6.91952e-10
1.423e-09
-8.6114e-10
1.60396e-09
-1.02168e-09
1.73411e-09
-1.13081e-09
1.69285e-09
-1.19573e-09
1.59504e-09
-1.21008e-09
1.45021e-09
-1.22441e-09
1.23706e-09
-1.23608e-09
1.05323e-09
-1.24926e-09
9.5112e-10
-1.3775e-09
8.45125e-10
-1.45829e-09
6.84228e-10
-1.40694e-09
1.51769e-10
-1.24551e-09
8.03978e-11
-1.09526e-09
-1.12773e-10
-1.14678e-09
-5.55774e-10
-8.91266e-10
-7.58466e-10
-6.02179e-10
-9.36139e-10
-3.89677e-10
-7.99753e-10
-2.52594e-10
-6.01659e-10
-1.98063e-10
-4.47129e-10
-2.1452e-10
-2.83798e-10
-2.72832e-10
-1.82516e-10
-2.85867e-10
-1.53485e-10
-2.88934e-10
-2.2937e-10
-2.70432e-10
-1.6324e-10
-2.46543e-10
-1.81695e-10
-2.16843e-10
-2.05652e-10
-2.16138e-10
-2.54679e-10
-2.38916e-10
-2.89778e-10
-3.09437e-10
-3.86826e-10
-3.84395e-10
-5.26853e-10
-4.57915e-10
-6.73705e-10
-3.9266e-10
-8.42185e-10
-4.28573e-10
-9.58385e-10
-6.28059e-10
-1.01402e-09
-5.69432e-10
-1.58406e-09
-4.38805e-10
-2.04267e-09
-3.05746e-10
-2.1301e-09
-1.32727e-10
-2.13936e-09
3.59271e-11
-1.94232e-09
1.91266e-10
-1.7227e-09
4.31241e-10
-1.57624e-09
6.20167e-10
-1.40875e-09
7.10789e-10
-1.29782e-09
8.90487e-10
-7.03798e-10
8.72966e-10
-8.35003e-10
9.67016e-10
-1.92611e-10
1.09366e-09
-4.86471e-11
1.2193e-09
3.37617e-10
1.17523e-09
6.00898e-10
1.17626e-09
8.26496e-10
1.05981e-09
1.13059e-09
9.08784e-10
1.207e-09
6.66862e-10
1.30897e-09
1.72387e-10
1.34601e-09
2.54784e-11
1.19423e-09
5.84429e-16
1.39575e-09
-5.08852e-18
3.2889e-18
-5.16534e-18
1.01655e-18
-5.11068e-18
-9.6571e-20
-4.92787e-18
-9.65664e-19
-4.62509e-18
-1.68734e-18
-4.21901e-18
-2.28752e-18
-3.73114e-18
-2.77185e-18
-3.18509e-18
-3.14085e-18
-2.60457e-18
-3.39552e-18
-2.01183e-18
-3.53976e-18
-1.42684e-18
-3.58093e-18
-8.6653e-19
-3.52958e-18
-3.44398e-19
-3.39859e-18
1.29695e-19
-3.20226e-18
5.49453e-19
-2.95538e-18
9.11596e-19
-2.67229e-18
1.21531e-18
-2.36611e-18
1.46186e-18
-2.04836e-18
1.65417e-18
-1.72875e-18
1.79626e-18
-1.41522e-18
1.89281e-18
-1.1139e-18
1.94883e-18
-8.29331e-19
1.96934e-18
-5.64545e-19
1.95903e-18
-3.21298e-19
1.92218e-18
-1.00277e-19
1.86263e-18
9.86293e-20
1.78385e-18
2.76083e-19
1.68902e-18
4.3309e-19
1.58098e-18
5.70864e-19
1.46223e-18
6.90744e-19
1.33483e-18
7.94142e-19
1.20051e-18
8.82492e-19
1.0606e-18
9.57199e-19
9.16229e-19
1.01958e-18
7.68285e-19
1.07084e-18
6.17539e-19
1.112e-18
4.64662e-19
1.14391e-18
3.10245e-19
1.16726e-18
1.5483e-19
1.18254e-18
1.19009e-18
2.27377e-11
6.98481e-10
7.4004e-12
6.62239e-10
1.51857e-11
5.04384e-10
2.05102e-11
4.01396e-10
2.61931e-11
2.97321e-10
4.85856e-11
1.80034e-10
7.68348e-11
7.68677e-11
1.15049e-10
6.0487e-11
1.78486e-10
-2.49828e-10
2.38261e-10
-8.24023e-10
2.8261e-10
-1.04175e-09
3.20149e-10
-9.63143e-10
3.01223e-10
-7.65664e-10
2.32712e-10
-4.95765e-10
1.74572e-10
-2.5598e-10
1.46937e-10
-1.60797e-11
1.41261e-10
2.67216e-10
1.06215e-10
4.96016e-10
1.43704e-11
7.7197e-10
-9.52335e-11
9.66817e-10
-2.15288e-10
1.15012e-09
-2.78162e-10
1.31214e-09
-3.43929e-10
1.44235e-09
-5.74047e-10
1.65311e-09
-7.90191e-10
1.82011e-09
-8.85969e-10
1.82989e-09
-9.91016e-10
1.79789e-09
-1.02786e-09
1.63189e-09
-1.02184e-09
1.44419e-09
-1.08442e-09
1.29963e-09
-1.20878e-09
1.1776e-09
-1.19864e-09
9.40975e-10
-1.209e-09
8.55484e-10
-1.20099e-09
6.76219e-10
-1.24524e-09
1.96013e-10
-1.15152e-09
-1.3324e-11
-1.02412e-09
-2.40165e-10
-9.95898e-10
-5.84002e-10
-7.29609e-10
-1.02475e-09
-4.074e-10
-1.25835e-09
-1.23208e-10
-1.08395e-09
1.36581e-10
-8.61448e-10
1.43035e-10
-4.53582e-10
5.25969e-11
-1.9336e-10
-6.88946e-11
-6.10244e-11
-1.54934e-10
-6.74461e-11
-1.72919e-10
-2.11386e-10
-1.61756e-10
-1.74404e-10
-1.54552e-10
-1.889e-10
-9.39959e-11
-2.6621e-10
-3.11915e-11
-3.17486e-10
-1.47439e-11
-3.06228e-10
-5.02948e-11
-3.51277e-10
-1.27755e-10
-4.49395e-10
-1.93034e-10
-6.08428e-10
-3.01473e-10
-7.33749e-10
-4.57789e-10
-8.0207e-10
-5.3778e-10
-9.34035e-10
-4.79402e-10
-1.64244e-09
-3.52436e-10
-2.16963e-09
-2.1544e-10
-2.2671e-09
-1.34523e-10
-2.22028e-09
-3.93662e-11
-2.03748e-09
1.13774e-10
-1.87584e-09
3.02319e-10
-1.76479e-09
4.34964e-10
-1.5414e-09
3.91313e-10
-1.25417e-09
6.3557e-10
-9.48057e-10
5.98728e-10
-7.98163e-10
8.75561e-10
-4.69444e-10
8.74839e-10
-4.7925e-11
9.44907e-10
2.67549e-10
9.19108e-10
6.26698e-10
8.61497e-10
8.84108e-10
8.91714e-10
1.10037e-09
8.12642e-10
1.28607e-09
6.14011e-10
1.5076e-09
4.9824e-10
1.46178e-09
2.76733e-10
1.41574e-09
3.31007e-16
1.67248e-09
-6.81274e-18
1.53336e-18
-6.27846e-18
4.81062e-19
-5.97978e-18
-3.97212e-19
-5.64954e-18
-1.29794e-18
-5.22527e-18
-2.1136e-18
-4.70334e-18
-2.81135e-18
-4.10014e-18
-3.37679e-18
-3.43976e-18
-3.80277e-18
-2.74881e-18
-4.08791e-18
-2.05301e-18
-4.23678e-18
-1.37549e-18
-4.25937e-18
-7.35539e-19
-4.17017e-18
-1.48063e-19
-3.98658e-18
3.76576e-19
-3.72745e-18
8.3254e-19
-3.41187e-18
1.21777e-18
-3.05797e-18
1.53306e-18
-2.68198e-18
1.78147e-18
-2.29772e-18
1.96771e-18
-1.91643e-18
2.09757e-18
-1.54695e-18
2.17738e-18