/*--------------------------------*- C++ -*----------------------------------*\
  =========                 |
  \\      /  F ield         | OpenFOAM: The Open Source CFD Toolbox
   \\    /   O peration     | Website:  https://openfoam.org
    \\  /    A nd           | Version:  6
     \\/     M anipulation  |
\*---------------------------------------------------------------------------*/
FoamFile
{
    version     2.0;
    format      ascii;
    class       volScalarField;
    location    "1050";
    object      Su;
}
// * * * * * * * * * * * * * * * * * * * * * * * * * * * * * * * * * * * * * //

dimensions      [0 0 -1 0 0 0 0];

internalField   nonuniform List<scalar> 
4800
(
0.218554
0.214485
0.21043
0.206408
0.202435
0.198523
0.194682
0.190924
0.187249
0.183653
0.180118
0.176626
0.173154
0.169683
0.166193
0.162666
0.159089
0.155459
0.151778
0.148055
0.144303
0.140538
0.136773
0.133021
0.129299
0.125618
0.12199
0.118435
0.114984
0.111678
0.10855
0.105622
0.102894
0.100353
0.0979791
0.0957464
0.0936301
0.0916077
0.0896582
0.0877635
0.0859093
0.0840843
0.0822794
0.0804897
0.078711
0.0769399
0.0751754
0.073417
0.0716667
0.0699288
0.0682075
0.0665028
0.0648072
0.0631179
0.0614368
0.0597645
0.0581029
0.0564564
0.054814
0.0531635
0.0514963
0.0498019
0.0480681
0.0462784
0.044418
0.0424719
0.0404234
0.038258
0.0359715
0.0335722
0.0310657
0.0284604
0.0257672
0.022988
0.0201286
0.017209
0.0142621
0.0113256
0.00841562
0.00551876
0.00259461
-0.000369616
-0.00335226
-0.0063405
-0.00932673
-0.0123065
-0.0152771
-0.0182372
-0.021186
-0.0241233
-0.0270492
-0.029964
-0.032868
-0.0357618
-0.0386457
-0.0415205
-0.0443865
-0.0472444
-0.0500946
-0.0529376
-0.0557739
-0.0586041
-0.0614284
-0.0642474
-0.0670614
-0.0698708
-0.072676
-0.0754774
-0.0782752
-0.0810699
-0.0838617
-0.0866509
-0.0894378
-0.0922228
-0.0950061
-0.0977879
-0.100569
-0.103348
-0.106127
-0.108906
0.218548
0.214474
0.210429
0.206422
0.202464
0.198569
0.194748
0.191009
0.18735
0.183763
0.180234
0.176745
0.173276
0.169806
0.166315
0.162786
0.159209
0.155577
0.15189
0.148157
0.14439
0.140606
0.136823
0.133053
0.12931
0.125608
0.121966
0.118416
0.114993
0.111728
0.108647
0.105765
0.103075
0.100559
0.0982034
0.0959837
0.0938773
0.0918641
0.0899236
0.0880378
0.0861913
0.0843711
0.0825686
0.0807792
0.0789984
0.0772237
0.0754546
0.0736909
0.0719346
0.0701883
0.0684537
0.0667306
0.0650156
0.0633108
0.0616156
0.0599279
0.0582488
0.0565792
0.0549119
0.0532398
0.0515531
0.0498405
0.0480873
0.0462827
0.0444148
0.0424711
0.0404413
0.0383164
0.0360899
0.0337498
0.0312875
0.0287067
0.0260134
0.0232167
0.0203347
0.0173994
0.0144416
0.0114843
0.00853806
0.00559702
0.00263561
-0.000350113
-0.00334526
-0.00634082
-0.00933134
-0.0123135
-0.0152855
-0.0182461
-0.0211951
-0.0241322
-0.0270578
-0.0299722
-0.0328757
-0.0357689
-0.0386524
-0.0415266
-0.0443921
-0.0472495
-0.0500992
-0.0529419
-0.0557778
-0.0586076
-0.0614316
-0.0642502
-0.0670639
-0.0698731
-0.0726781
-0.0754792
-0.0782769
-0.0810713
-0.083863
-0.086652
-0.0894388
-0.0922236
-0.0950067
-0.0977884
-0.100569
-0.103349
-0.106128
-0.108906
0.218553
0.214487
0.210453
0.206465
0.202532
0.198666
0.194875
0.191161
0.187522
0.183949
0.18043
0.176947
0.173484
0.170016
0.166526
0.162997
0.159419
0.155783
0.152089
0.148344
0.144559
0.14075
0.136937
0.133139
0.129374
0.125663
0.122027
0.118501
0.115125
0.111924
0.108912
0.106089
0.103446
0.100973
0.0986525
0.0964588
0.0943757
0.0923848
0.0904637
0.0885943
0.0867608
0.0849495
0.0831513
0.0813629
0.0795789
0.0777956
0.076015
0.0742377
0.0724658
0.0706997
0.0689392
0.0671839
0.0654351
0.063698
0.0619683
0.0602446
0.0585292
0.0568192
0.0551085
0.0533961
0.0516715
0.0499209
0.0481347
0.0463064
0.0444253
0.0424806
0.0404638
0.0383709
0.036189
0.0338936
0.0314748
0.0289338
0.0262733
0.0235057
0.0206513
0.0177338
0.0147671
0.0117672
0.00875024
0.00572735
0.00270173
-0.000320197
-0.00333651
-0.00634459
-0.00934245
-0.0123288
-0.0153029
-0.0182645
-0.0212136
-0.0241503
-0.0270752
-0.0299886
-0.0328911
-0.0357833
-0.0386656
-0.0415388
-0.0444033
-0.0472598
-0.0501086
-0.0529504
-0.0557855
-0.0586146
-0.0614379
-0.0642559
-0.0670691
-0.0698777
-0.0726822
-0.0754829
-0.0782802
-0.0810743
-0.0838655
-0.0866543
-0.0894407
-0.0922253
-0.0950081
-0.0977895
-0.10057
-0.103349
-0.106128
-0.108906
0.218563
0.214519
0.210506
0.206542
0.202639
0.198803
0.195041
0.191352
0.187731
0.184172
0.180666
0.177195
0.173737
0.170269
0.166771
0.163231
0.159642
0.155997
0.152294
0.148539
0.144744
0.140921
0.137091
0.133274
0.129495
0.125784
0.122177
0.118707
0.1154
0.112276
0.109339
0.106586
0.104002
0.101581
0.0993054
0.0971519
0.0951073
0.093152
0.0912598
0.0894128
0.0875951
0.0857933
0.0839991
0.0822096
0.0804179
0.0786211
0.0768231
0.0750227
0.0732231
0.0714257
0.0696301
0.0678366
0.0660451
0.0642579
0.0624733
0.0606956
0.058927
0.0571622
0.0553964
0.0536279
0.0518484
0.0500516
0.04823
0.0463694
0.0444613
0.0425039
0.0404882
0.0384068
0.0362413
0.0339724
0.0315943
0.0290982
0.0264838
0.0237579
0.0209338
0.0180283
0.0150518
0.0120208
0.00894694
0.00585122
0.00276475
-0.000295117
-0.00333483
-0.00635714
-0.00936342
-0.0123545
-0.0153309
-0.0182933
-0.0212421
-0.024178
-0.0271016
-0.0300135
-0.0329144
-0.0358049
-0.0386857
-0.0415572
-0.0444202
-0.0472752
-0.0501226
-0.0529631
-0.0557971
-0.058625
-0.0614474
-0.0642645
-0.0670768
-0.0698846
-0.0726884
-0.0754885
-0.0782851
-0.0810786
-0.0838694
-0.0866576
-0.0894436
-0.0922277
-0.0950101
-0.0977912
-0.100571
-0.10335
-0.106129
-0.108907
0.218579
0.214565
0.210582
0.206646
0.202771
0.198963
0.195225
0.191554
0.187948
0.184405
0.180911
0.177445
0.173987
0.170513
0.167008
0.163458
0.159859
0.156204
0.152493
0.148734
0.144937
0.141112
0.137281
0.133468
0.129701
0.126017
0.122459
0.119056
0.115829
0.112786
0.109924
0.107238
0.10472
0.10236
0.100139
0.0980384
0.0960432
0.0941349
0.0922811
0.0904635
0.0886673
0.0868768
0.0850846
0.0832879
0.0814801
0.0796634
0.0778408
0.0760111
0.0741772
0.0723404
0.0705004
0.068658
0.0668139
0.0649661
0.0631155
0.0612682
0.0594265
0.0575882
0.0557504
0.0539115
0.0520673
0.0502124
0.048337
0.0464349
0.0445017
0.042527
0.0405008
0.0384122
0.0362464
0.0339927
0.0316416
0.0291801
0.0266036
0.0239151
0.0211223
0.0182333
0.0152564
0.0122008
0.00908086
0.00593262
0.00280145
-0.000289681
-0.00334964
-0.00638451
-0.00939816
-0.0123931
-0.0153712
-0.0183336
-0.0212815
-0.0242158
-0.0271375
-0.0300472
-0.0329458
-0.035834
-0.0387125
-0.0415818
-0.0444427
-0.0472957
-0.0501413
-0.0529801
-0.0558125
-0.058639
-0.0614599
-0.0642758
-0.067087
-0.0698938
-0.0726966
-0.0754958
-0.0782916
-0.0810844
-0.0838744
-0.086662
-0.0894474
-0.0922309
-0.0950128
-0.0977934
-0.100573
-0.103351
-0.106129
-0.108907
0.2186
0.214624
0.210673
0.206765
0.202915
0.199131
0.19541
0.19175
0.188155
0.18462
0.181133
0.177671
0.17421
0.170732
0.167219
0.163662
0.160054
0.156392
0.15268
0.148925
0.145136
0.141326
0.137517
0.133734
0.130005
0.126367
0.122866
0.119533
0.11638
0.113414
0.110631
0.108024
0.105582
0.103291
0.101134
0.0990954
0.0971598
0.0953097
0.0935028
0.0917222
0.0899503
0.0881689
0.0863741
0.0845642
0.0827358
0.080896
0.0790435
0.0771794
0.075306
0.0734241
0.0715327
0.0696324
0.0677247
0.0658023
0.0638722
0.0619412
0.0600123
0.0580847
0.0561601
0.0542382
0.0523157
0.0503873
0.0484505
0.0465006
0.0445264
0.0425199
0.0404738
0.0383669
0.0361911
0.0339437
0.0316062
0.0291654
0.0266158
0.0239561
0.0211865
0.0183118
0.0153407
0.0122864
0.00915506
0.00596837
0.00279809
-0.0003152
-0.00338894
-0.00643216
-0.0094504
-0.0124473
-0.0154254
-0.0183867
-0.0213326
-0.0242644
-0.0271832
-0.0300899
-0.0329855
-0.0358707
-0.0387462
-0.0416128
-0.044471
-0.0473215
-0.0501647
-0.0530013
-0.0558317
-0.0586563
-0.0614756
-0.0642899
-0.0670996
-0.0699051
-0.0727068
-0.0755048
-0.0782996
-0.0810915
-0.0838807
-0.0866675
-0.0894521
-0.0922349
-0.0950162
-0.097796
-0.100575
-0.103353
-0.10613
-0.108907
0.218613
0.214667
0.21075
0.206875
0.203051
0.199284
0.195576
0.191926
0.188336
0.184806
0.181322
0.177858
0.17439
0.170902
0.167382
0.163821
0.160211
0.156551
0.152848
0.149108
0.145338
0.141555
0.137779
0.134041
0.130373
0.126809
0.123385
0.12013
0.117061
0.114179
0.111475
0.108941
0.10657
0.104349
0.102267
0.1003
0.0984334
0.0966506
0.0948948
0.0931537
0.0914039
0.0896301
0.0878298
0.0860024
0.0841508
0.0822828
0.0803972
0.078496
0.076581
0.0746512
0.0727044
0.0707391
0.0687555
0.0667483
0.0647299
0.0627036
0.0606729
0.0586412
0.0566164
0.0545981
0.0525845
0.0505737
0.0485618
0.0465417
0.0445081
0.0424543
0.0403711
0.0382406
0.0360524
0.0338007
0.0314668
0.0290411
0.0265118
0.0238731
0.0211208
0.0182571
0.0152888
0.0122254
0.00908593
0.00590436
0.00273747
-0.000380371
-0.00345841
-0.00650415
-0.00952306
-0.0125191
-0.0154952
-0.0184537
-0.0213962
-0.0243243
-0.0272392
-0.030142
-0.0330337
-0.0359151
-0.0387869
-0.04165
-0.044505
-0.0473524
-0.0501928
-0.0530267
-0.0558547
-0.058677
-0.0614942
-0.0643067
-0.0671147
-0.0699187
-0.0727188
-0.0755156
-0.0783092
-0.0810999
-0.0838881
-0.0866739
-0.0894577
-0.0922397
-0.0950201
-0.0977992
-0.100577
-0.103354
-0.106131
-0.108907
0.218629
0.214716
0.21083
0.206983
0.203182
0.19943
0.195729
0.192082
0.188491
0.184957
0.181465
0.177991
0.174512
0.171014
0.167488
0.163926
0.160321
0.156676
0.152994
0.149281
0.145543
0.141799
0.138074
0.134395
0.130796
0.127315
0.123982
0.120818
0.117834
0.115031
0.112406
0.109953
0.107664
0.105522
0.103521
0.101631
0.0998384
0.098121
0.0964172
0.0947178
0.0929904
0.0912219
0.089411
0.0875609
0.0856808
0.0837792
0.0818601
0.0799207
0.0779632
0.0759836
0.0739783
0.071943
0.0698768
0.0677794
0.0656612
0.0635261
0.0613831
0.0592394
0.0571035
0.0549782
0.0528629
0.0507541
0.0486491
0.0465473
0.0444451
0.0423321
0.0401974
0.0380302
0.0358182
0.0335546
0.0312185
0.0288019
0.0262868
0.0236659
0.0209331
0.0180853
0.0151305
0.012081
0.00895802
0.00578895
0.00262716
-0.000485737
-0.00356013
-0.00660255
-0.00961789
-0.0126099
-0.0155816
-0.0185353
-0.0214728
-0.0243959
-0.0273058
-0.0302036
-0.0330905
-0.0359672
-0.0388347
-0.0416936
-0.0445446
-0.0473884
-0.0502255
-0.0530563
-0.0558813
-0.0587011
-0.0615159
-0.0643261
-0.0671321
-0.0699343
-0.0727328
-0.075528
-0.0783202
-0.0811097
-0.0838966
-0.0866814
-0.0894641
-0.0922451
-0.0950246
-0.0978028
-0.10058
-0.103356
-0.106132
-0.108908
0.218646
0.214762
0.210898
0.207069
0.203282
0.199541
0.195849
0.192207
0.188615
0.185073
0.181564
0.178069
0.174572
0.171062
0.167531
0.163972
0.160382
0.156763
0.153115
0.149441
0.145751
0.142063
0.1384
0.134794
0.131278
0.127885
0.124645
0.121575
0.118686
0.115977
0.113442
0.111073
0.108862
0.106799
0.104877
0.103061
0.101338
0.0996796
0.0980314
0.0963741
0.0946684
0.0929023
0.0910762
0.0891974
0.0872822
0.0853442
0.08339
0.0814113
0.0794104
0.0773811
0.0753166
0.0732096
0.0710594
0.0688678
0.0666428
0.0643943
0.0621317
0.0598625
0.0576052
0.0553642
0.0531344
0.0509161
0.0487102
0.046517
0.0443337
0.0421504
0.0399541
0.0377393
0.0354894
0.0332021
0.0308601
0.0284491
0.0259479
0.0233461
0.020636
0.0178109
0.0148744
0.0118364
0.00873149
0.0055989
0.00246706
-0.00063022
-0.00369397
-0.00672781
-0.0097355
-0.0127203
-0.015685
-0.0186319
-0.0215628
-0.0244794
-0.027383
-0.0302748
-0.0331559
-0.0360272
-0.0388894
-0.0417435
-0.04459
-0.0474295
-0.0502627
-0.0530899
-0.0559117
-0.0587284
-0.0615404
-0.0643481
-0.0671519
-0.0699519
-0.0727485
-0.075542
-0.0783326
-0.0811206
-0.0839062
-0.0866897
-0.0894713
-0.0922512
-0.0950297
-0.0978069
-0.100583
-0.103359
-0.106134
-0.108908
0.218656
0.21479
0.210942
0.207125
0.203346
0.199612
0.195926
0.192289
0.188698
0.185144
0.181614
0.178095
0.174577
0.171052
0.167516
0.163968
0.160405
0.156822
0.153218
0.149595
0.145964
0.142345
0.138762
0.135242
0.131816
0.128521
0.125381
0.122411
0.119617
0.116998
0.114546
0.112261
0.110132
0.10815
0.106302
0.104555
0.102895
0.101293
0.0997031
0.0980856
0.0963994
0.0946334
0.0927852
0.0908707
0.0889165
0.0869423
0.0849535
0.082938
0.0808951
0.0788172
0.0766939
0.0745142
0.0722766
0.0699847
0.0676476
0.0652761
0.0628829
0.060486
0.0581063
0.0557426
0.0533918
0.0510561
0.0487396
0.0464472
0.0441751
0.0419124
0.0396465
0.037375
0.035084
0.0327696
0.030415
0.0280003
0.0255093
0.0229267
0.0202452
0.0174562
0.0145578
0.0115626
0.00849525
0.00538623
0.00227127
-0.000808949
-0.00385794
-0.00687906
-0.0098755
-0.0128501
-0.0158054
-0.0187434
-0.021666
-0.0245747
-0.0274708
-0.0303555
-0.0332298
-0.0360948
-0.0389511
-0.0417996
-0.0446409
-0.0474757
-0.0503044
-0.0531275
-0.0559455
-0.0587588
-0.0615677
-0.0643726
-0.0671738
-0.0699714
-0.0727659
-0.0755575
-0.0783463
-0.0811327
-0.0839168
-0.0866989
-0.0894792
-0.0922579
-0.0950352
-0.0978114
-0.100587
-0.103361
-0.106135
-0.108909
0.218659
0.2148
0.210958
0.207144
0.203368
0.199636
0.195952
0.192317
0.188724
0.185158
0.181608
0.178068
0.174532
0.171
0.167471
0.163942
0.16041
0.15687
0.153319
0.149759
0.146195
0.142643
0.139135
0.135708
0.132393
0.129209
0.126175
0.123305
0.120605
0.118074
0.115709
0.113509
0.111461
0.109554
0.107771
0.106085
0.104483
0.102938
0.101399
0.0998143
0.0981443
0.0963737
0.0945005
0.0925469
0.0905551
0.0885497
0.0865323
0.0844845
0.0824035
0.0802788
0.0780964
0.0758403
0.0735093
0.0711099
0.0686538
0.0661556
0.0636337
0.0611076
0.058596
0.0561005
0.0536215
0.0511637
0.0487351
0.0463407
0.0439769
0.0416326
0.0392965
0.0369641
0.0346245
0.0322717
0.0298968
0.0274775
0.0249973
0.0224381
0.0197867
0.0170353
0.014182
0.0112345
0.00820882
0.00513175
0.00203958
-0.00101955
-0.00404988
-0.00705466
-0.0100367
-0.0129984
-0.015942
-0.0188693
-0.021782
-0.0246814
-0.0275688
-0.0304454
-0.0333121
-0.0361698
-0.0390195
-0.0418617
-0.0446972
-0.0475266
-0.0503503
-0.0531689
-0.0559828
-0.0587922
-0.0615977
-0.0643994
-0.0671977
-0.0699928
-0.0727849
-0.0755744
-0.0783612
-0.0811458
-0.0839283
-0.0867089
-0.0894878
-0.0922652
-0.0950413
-0.0978163
-0.10059
-0.103364
-0.106137
-0.108909
0.218659
0.214799
0.210953
0.207134
0.203352
0.199614
0.195926
0.192286
0.188686
0.18511
0.181545
0.177992
0.174452
0.170926
0.167412
0.16391
0.160417
0.156925
0.153429
0.149934
0.146448
0.142992
0.139587
0.136259
0.133039
0.129953
0.127019
0.124248
0.121644
0.119204
0.116927
0.114807
0.112832
0.110988
0.109258
0.107626
0.106077
0.104576
0.103063
0.101492
0.0998246
0.0980407
0.0961474
0.0941667
0.0921525
0.0901221
0.0880746
0.0859928
0.083873
0.0816982
0.079456
0.0771284
0.0747132
0.0722138
0.0696392
0.0670096
0.0643535
0.0616939
0.0590497
0.0564245
0.0538192
0.0512419
0.0487024
0.0462055
0.0437475
0.0413215
0.0389164
0.0365235
0.0341342
0.0317386
0.029335
0.026907
0.0244324
0.0218924
0.0192694
0.0165564
0.0137506
0.0108515
0.00787228
0.00483627
0.00177393
-0.00125929
-0.00426712
-0.00725232
-0.0102172
-0.0131637
-0.0160937
-0.0190086
-0.0219099
-0.0247988
-0.0276765
-0.0305439
-0.0334022
-0.036252
-0.0390942
-0.0419296
-0.0447587
-0.0475821
-0.0504004
-0.0532139
-0.0560232
-0.0588285
-0.0616302
-0.0644284
-0.0672236
-0.0700159
-0.0728054
-0.0755925
-0.0783773
-0.0811599
-0.0839406
-0.0867196
-0.089497
-0.092273
-0.0950477
-0.0978214
-0.100594
-0.103367
-0.106138
-0.10891
0.218653
0.214781
0.210923
0.207092
0.203299
0.19955
0.195849
0.192199
0.188589
0.185004
0.181433
0.17788
0.17435
0.170844
0.167363
0.1639
0.160446
0.156998
0.153558
0.150132
0.146726
0.143359
0.140054
0.136832
0.133718
0.130736
0.127907
0.125236
0.122728
0.12038
0.118187
0.116143
0.114234
0.112444
0.110759
0.109172
0.107662
0.106182
0.104675
0.103103
0.101425
0.0996186
0.0976966
0.0956858
0.0936507
0.0916042
0.0895359
0.0874274
0.085273
0.0830472
0.0807383
0.0783299
0.0758207
0.0732164
0.0705295
0.0677818
0.0650027
0.0622184
0.0594525
0.0567082
0.0539867
0.0513005
0.0486605
0.0460687
0.0435209
0.0410123
0.0385355
0.0360816
0.0336427
0.0312078
0.0287707
0.026323
0.0238458
0.0213191
0.0187247
0.0160462
0.0132776
0.0104215
0.00749189
0.00450472
0.00147883
-0.00152407
-0.00450608
-0.007469
-0.0104144
-0.0133439
-0.0162585
-0.0191597
-0.0220485
-0.0249259
-0.0277929
-0.0306505
-0.0334995
-0.0363407
-0.0391749
-0.0420027
-0.0448249
-0.0476419
-0.0504542
-0.0532624
-0.0560666
-0.0588674
-0.0616649
-0.0644595
-0.0672512
-0.0700404
-0.0728272
-0.0756118
-0.0783943
-0.0811749
-0.0839537
-0.0867309
-0.0895067
-0.0922812
-0.0950545
-0.0978269
-0.100599
-0.10337
-0.10614
-0.10891
0.218642
0.21475
0.210877
0.20703
0.203218
0.199449
0.195731
0.192066
0.188444
0.18485
0.181281
0.177742
0.174234
0.170756
0.167307
0.163882
0.160474
0.157082
0.153705
0.150348
0.147024
0.14375
0.140544
0.137428
0.134423
0.131551
0.128827
0.126258
0.123847
0.121588
0.119477
0.117505
0.115658
0.113917
0.112268
0.110711
0.109228
0.10775
0.106237
0.10465
0.102948
0.101112
0.0991481
0.0971035
0.0950465
0.0929877
0.0909029
0.0887743
0.0865832
0.0843007
0.0819165
0.07942
0.0768106
0.0740974
0.0712986
0.0684395
0.0655507
0.0626613
0.0597941
0.0569521
0.0541379
0.051364
0.048637
0.0459544
0.0433165
0.0407264
0.0381803
0.0356651
0.0331691
0.0306854
0.0282085
0.025733
0.0232438
0.020717
0.0181391
0.0154931
0.0127688
0.0099641
0.00708669
0.00414826
0.00116132
-0.00180852
-0.00476231
-0.00770093
-0.0106253
-0.0135361
-0.0164343
-0.0193207
-0.0221961
-0.0250612
-0.0279169
-0.030764
-0.0336032
-0.0364352
-0.0392609
-0.0420807
-0.0448955
-0.0477056
-0.0505116
-0.0533138
-0.0561128
-0.0589087
-0.0617018
-0.0644923
-0.0672805
-0.0700664
-0.0728502
-0.0756321
-0.0784122
-0.0811906
-0.0839674
-0.0867428
-0.0895169
-0.0922898
-0.0950617
-0.0978326
-0.100603
-0.103373
-0.106142
-0.108911
0.218631
0.214719
0.210823
0.206953
0.203116
0.199323
0.195584
0.191903
0.188269
0.184672
0.18111
0.177589
0.174112
0.170674
0.167267
0.163886
0.160525
0.157185
0.153869
0.150588
0.147351
0.144171
0.14107
0.138063
0.135169
0.132404
0.129783
0.127312
0.124992
0.122818
0.120785
0.118879
0.117087
0.115389
0.113773
0.112238
0.110765
0.109273
0.10774
0.106125
0.104389
0.102512
0.100501
0.098427
0.0963474
0.0942689
0.0921629
0.0900089
0.0877677
0.0854131
0.0829403
0.0803501
0.0776441
0.0748356
0.0719454
0.0689993
0.0660272
0.0630572
0.0601109
0.057191
0.0543015
0.0514554
0.0486528
0.0458916
0.0431734
0.0405059
0.0378827
0.0352916
0.0327291
0.0301917
0.0276711
0.0251588
0.0226484
0.0201166
0.0175463
0.0149253
0.0122415
0.00948763
0.00666273
0.00377386
0.000828354
-0.00210666
-0.00503074
-0.00794381
-0.010846
-0.0137374
-0.0166184
-0.0194894
-0.0223508
-0.0252032
-0.0280472
-0.0308833
-0.0337123
-0.0365348
-0.0393514
-0.0421629
-0.0449698
-0.0477727
-0.0505719
-0.053368
-0.0561613
-0.058952
-0.0617404
-0.0645267
-0.067311
-0.0700935
-0.0728742
-0.0756533
-0.0784309
-0.0812069
-0.0839817
-0.0867551
-0.0895274
-0.0922987
-0.095069
-0.0978386
-0.100607
-0.103376
-0.106144
-0.108912
0.218621
0.214685
0.210767
0.206874
0.203013
0.199193
0.195427
0.191722
0.188074
0.184476
0.180928
0.177429
0.17398
0.170577
0.167216
0.163886
0.160582
0.157303
0.154058
0.150854
0.147705
0.144626
0.14163
0.138731
0.135945
0.133286
0.130765
0.12839
0.12616
0.124067
0.122105
0.120258
0.118511
0.116846
0.115256
0.113732
0.112256
0.110744
0.109179
0.107527
0.105749
0.10383
0.101778
0.0996713
0.0975595
0.0954452
0.0932948
0.0910786
0.0887597
0.0863226
0.0837643
0.0810841
0.078289
0.0754017
0.072448
0.0694515
0.0664336
0.0634139
0.0604159
0.0574448
0.0545024
0.0516006
0.0487367
0.0459063
0.0431134
0.0403624
0.0376543
0.0349853
0.0323509
0.0297475
0.0271719
0.024617
0.0220778
0.0195365
0.0169716
0.0143721
0.0117212
0.00900918
0.00623328
0.00339242
0.000487664
-0.00241214
-0.00530597
-0.00819297
-0.0110725
-0.0139442
-0.0168078
-0.0196632
-0.0225105
-0.02535
-0.028182
-0.0310071
-0.0338256
-0.0366383
-0.0394458
-0.0422486
-0.0450474
-0.0478426
-0.0506349
-0.0534245
-0.0562118
-0.0589971
-0.0617806
-0.0645625
-0.0673427
-0.0701216
-0.072899
-0.0756752
-0.0784501
-0.0812238
-0.0839963
-0.0867678
-0.0895382
-0.0923078
-0.0950766
-0.0978446
-0.100612
-0.103379
-0.106146
-0.108912
0.218617
0.21467
0.210732
0.206815
0.20293
0.199088
0.195299
0.191577
0.187924
0.184336
0.180812
0.177344
0.173926
0.170554
0.167222
0.163927
0.160668
0.157447
0.154275
0.151158
0.148105
0.145124
0.142229
0.139433
0.136749
0.134191
0.131769
0.129485
0.127337
0.125317
0.123417
0.121621
0.119914
0.11828
0.116707
0.115181
0.113682
0.112138
0.110533
0.108839
0.107017
0.105049
0.102954
0.100808
0.0986508
0.0964728
0.0942431
0.0919346
0.0895227
0.0869977
0.0843612
0.0816069
0.0787456
0.0758056
0.0728117
0.0697847
0.06675
0.0637236
0.0607152
0.0577269
0.054762
0.0518273
0.0489167
0.0460228
0.0431479
0.0403031
0.0374969
0.0347361
0.0320224
0.0293517
0.0267184
0.0241166
0.0215401
0.0189764
0.0164039
0.0138151
0.0111934
0.00852412
0.00579952
0.00300906
0.000145872
-0.0027188
-0.00558252
-0.0084436
-0.0113007
-0.0141529
-0.0169992
-0.0198393
-0.0226727
-0.0254995
-0.0283197
-0.0311337
-0.0339419
-0.0367447
-0.0395428
-0.0423369
-0.0451273
-0.0479148
-0.0506999
-0.0534828
-0.0562639
-0.0590436
-0.061822
-0.0645992
-0.0673753
-0.0701504
-0.0729245
-0.0756976
-0.0784697
-0.0812409
-0.0840112
-0.0867806
-0.0895492
-0.0923171
-0.0950842
-0.0978508
-0.100617
-0.103382
-0.106148
-0.108913
0.218606
0.214641
0.210695
0.206774
0.202884
0.199035
0.195237
0.191505
0.187848
0.184263
0.180746
0.177292
0.173897
0.170557
0.167262
0.16401
0.160804
0.157649
0.15455
0.151514
0.148549
0.145662
0.142864
0.140165
0.13758
0.135117
0.132787
0.130587
0.128515
0.126562
0.124716
0.122962
0.121282
0.119664
0.118095
0.116558
0.115023
0.113436
0.111777
0.110025
0.108144
0.106118
0.103972
0.101771
0.0995449
0.0972798
0.0949511
0.0925389
0.0900307
0.0874252
0.0847231
0.0819218
0.0790349
0.0760864
0.0731042
0.0701064
0.0670983
0.0640837
0.0610807
0.058098
0.0551318
0.0521781
0.0492263
0.0462673
0.0433053
0.0403583
0.0374477
0.0345853
0.0317759
0.0290204
0.0263168
0.0236591
0.0210395
0.0184505
0.0158702
0.0132879
0.0106905
0.00806047
0.00538207
0.00263611
-0.000189568
-0.00302057
-0.00585508
-0.00869103
-0.0115265
-0.0143598
-0.0171896
-0.0200149
-0.0228351
-0.0256496
-0.0284584
-0.0312617
-0.0340596
-0.0368528
-0.0396416
-0.0424268
-0.0452089
-0.0479886
-0.0507662
-0.0535423
-0.0563171
-0.059091
-0.0618642
-0.0646366
-0.0674084
-0.0701796
-0.0729502
-0.0757202
-0.0784896
-0.0812582
-0.0840263
-0.0867936
-0.0895603
-0.0923264
-0.0950919
-0.0978569
-0.100622
-0.103386
-0.10615
-0.108914
0.218606
0.214642
0.210692
0.206764
0.202873
0.199028
0.195237
0.191512
0.187864
0.184293
0.180792
0.177355
0.173978
0.170654
0.167384
0.164168
0.16101
0.157915
0.154885
0.151926
0.149044
0.146244
0.143536
0.14093
0.138436
0.136061
0.133813
0.131689
0.129684
0.127786
0.125984
0.124262
0.122603
0.120992
0.119412
0.117842
0.116253
0.11461
0.11289
0.111068
0.109109
0.107005
0.104789
0.102519
0.100215
0.0978586
0.0954331
0.0929277
0.0903387
0.0876721
0.084921
0.0820889
0.0792002
0.0762725
0.0733285
0.0703834
0.0674446
0.0645106
0.0615727
0.0586298
0.055675
0.0527041
0.0497032
0.0466663
0.0436032
0.0405376
0.0375002
0.0345158
0.0315954
0.0287459
0.0259649
0.0232455
0.0205802
0.0179638
0.015373
0.0127905
0.0102071
0.00760728
0.00497219
0.00227274
-0.000513991
-0.00331212
-0.00611874
-0.00893085
-0.0117459
-0.0145615
-0.0173758
-0.0201874
-0.0229951
-0.0257981
-0.0285962
-0.0313892
-0.0341774
-0.0369611
-0.0397409
-0.0425174
-0.0452913
-0.048063
-0.0508333
-0.0536024
-0.0563709
-0.059139
-0.0619067
-0.0646743
-0.0674417
-0.070209
-0.0729761
-0.0757429
-0.0785095
-0.0812756
-0.0840413
-0.0868066
-0.0895714
-0.0923357
-0.0950996
-0.0978631
-0.100626
-0.103389
-0.106152
-0.108914
0.218606
0.214646
0.210708
0.206798
0.202927
0.199102
0.19533
0.191619
0.187982
0.184423
0.180935
0.177512
0.174151
0.170849
0.167605
0.164424
0.161311
0.158269
0.155301
0.152409
0.149599
0.146876
0.144249
0.141725
0.139311
0.137014
0.134836
0.132777
0.130825
0.128971
0.127201
0.125497
0.123843
0.122222
0.120615
0.118998
0.117344
0.115626
0.113818
0.111905
0.109863
0.107685
0.1054
0.103066
0.10069
0.0982576
0.0957593
0.0931923
0.0905542
0.0878489
0.0850757
0.0822509
0.0793958
0.0765227
0.0736485
0.070788
0.0679431
0.0651019
0.0622468
0.0593672
0.0564331
0.0534375
0.050368
0.0472279
0.0440372
0.0408309
0.0376479
0.0345255
0.0314842
0.0285299
0.0256617
0.0228743
0.0201603
0.017512
0.014907
0.0123208
0.00974762
0.00717551
0.00457994
0.00192526
-0.000820508
-0.00358775
-0.00636891
-0.00915913
-0.0119553
-0.0147548
-0.0175551
-0.0203542
-0.0231506
-0.0259431
-0.0287313
-0.0315148
-0.0342938
-0.0370686
-0.0398397
-0.0426077
-0.0453734
-0.0481374
-0.0509003
-0.0536626
-0.0564247
-0.0591868
-0.0619492
-0.0647119
-0.067475
-0.0702383
-0.0730019
-0.0757655
-0.0785292
-0.0812928
-0.0840562
-0.0868194
-0.0895823
-0.0923449
-0.0951072
-0.0978691
-0.100631
-0.103392
-0.106154
-0.108915
0.218622
0.21469
0.210774
0.206885
0.203036
0.199241
0.195505
0.191826
0.188211
0.18467
0.181198
0.177789
0.174443
0.171159
0.167939
0.16479
0.161714
0.158715
0.155797
0.152962
0.150214
0.147557
0.145
0.142548
0.140205
0.137972
0.135852
0.133839
0.131924
0.130096
0.128337
0.126632
0.124966
0.123322
0.121676
0.120003
0.118275
0.116472
0.114576
0.112573
0.110442
0.108185
0.105845
0.103463
0.10104
0.098565
0.0960328
0.0934404
0.0907905
0.0880826
0.085323
0.0825386
0.0797421
0.076947
0.0741682
0.0714128
0.0686752
0.0659333
0.0631622
0.0603456
0.0574305
0.0543995
0.0512389
0.0479628
0.0446106
0.0412349
0.0378854
0.0346092
0.0314322
0.028362
0.0254
0.0225409
0.0197751
0.0170904
0.0144666
0.0118779
0.00931099
0.00675125
0.00418495
0.00158587
-0.00109872
-0.0038413
-0.00660159
-0.00937257
-0.012152
-0.0149371
-0.017725
-0.0205132
-0.0232996
-0.0260828
-0.028862
-0.0316369
-0.0344073
-0.0371737
-0.0399366
-0.0426965
-0.0454544
-0.0482108
-0.0509665
-0.0537221
-0.0564778
-0.0592342
-0.0619912
-0.0647491
-0.0675078
-0.0702672
-0.0730272
-0.0757877
-0.0785486
-0.0813096
-0.0840708
-0.0868319
-0.0895929
-0.0923538
-0.0951145
-0.097875
-0.100635
-0.103396
-0.106156
-0.108916
0.218633
0.214724
0.210838
0.20699
0.203188
0.199441
0.195754
0.192122
0.188543
0.185024
0.18157
0.178178
0.17485
0.171587
0.168392
0.16527
0.16222
0.159251
0.156371
0.153581
0.150885
0.148284
0.145786
0.143391
0.141101
0.138914
0.13683
0.134847
0.132951
0.131127
0.129361
0.12764
0.125947
0.124263
0.122561
0.120822
0.119014
0.117123
0.115137
0.113052
0.110853
0.108552
0.106195
0.103808
0.101379
0.0989016
0.0963744
0.0937931
0.0911622
0.0884891
0.085784
0.0830672
0.0803488
0.0776518
0.0749891
0.0723599
0.0697434
0.0671022
0.0644064
0.0616308
0.0587036
0.0556039
0.0523181
0.0488697
0.0453196
0.041741
0.0381957
0.0347409
0.0314127
0.0282232
0.0251677
0.0222366
0.019418
0.0166949
0.0140488
0.0114541
0.0088936
0.00635038
0.00381549
0.00127407
-0.00110716
-0.00406995
-0.00681514
-0.00956892
-0.0123334
-0.0151062
-0.0178837
-0.0206626
-0.0234405
-0.0262156
-0.028987
-0.0317541
-0.0345168
-0.0372754
-0.0400305
-0.0427829
-0.0455332
-0.0482824
-0.0510312
-0.0537801
-0.0565297
-0.0592804
-0.0620322
-0.0647853
-0.0675397
-0.0702953
-0.0730518
-0.0758093
-0.0785673
-0.0813259
-0.0840849
-0.086844
-0.0896032
-0.0923625
-0.0951216
-0.0978807
-0.10064
-0.103399
-0.106157
-0.108916
0.218654
0.214786
0.210941
0.207135
0.203381
0.199687
0.196053
0.192474
0.188941
0.185458
0.182033
0.178667
0.175362
0.172122
0.168952
0.165852
0.162823
0.15988
0.15703
0.154274
0.151615
0.149054
0.146595
0.144237
0.14198
0.13982
0.137755
0.135777
0.133874
0.132035
0.130241
0.128478
0.126735
0.124995
0.12323
0.121417
0.119528
0.117556
0.115496
0.113357
0.111136
0.108845
0.106524
0.104187
0.101813
0.0993927
0.0969263
0.0944122
0.0918571
0.0892651
0.0866487
0.0840281
0.0814075
0.0788175
0.0762707
0.0737629
0.0712543
0.0686931
0.0660434
0.0632686
0.0602888
0.0570751
0.0536091
0.0499346
0.04614
0.0423233
0.0385619
0.0349127
0.0314174
0.0280966
0.0249451
0.02195
0.0190907
0.0163389
0.0136746
0.0110733
0.00851706
0.00598856
0.00347874
0.000966596
-0.00163704
-0.00430651
-0.0070136
-0.0097467
-0.0124977
-0.0152604
-0.0180296
-0.0208011
-0.023572
-0.0263404
-0.029105
-0.0318651
-0.0346209
-0.0373724
-0.0401204
-0.0428656
-0.045609
-0.0483513
-0.0510934
-0.0538361
-0.0565798
-0.0593249
-0.0620717
-0.0648202
-0.0675704
-0.0703222
-0.0730755
-0.0758299
-0.0785853
-0.0813416
-0.0840984
-0.0868556
-0.0896131
-0.0923707
-0.0951284
-0.0978861
-0.100644
-0.103401
-0.106159
-0.108917
0.21867
0.214841
0.211043
0.20729
0.203592
0.199958
0.196384
0.192863
0.189386
0.185954
0.18257
0.179238
0.175964
0.172752
0.169606
0.166527
0.163522
0.160604
0.157776
0.155042
0.152403
0.149861
0.147417
0.145071
0.142818
0.140656
0.138579
0.136581
0.134647
0.13276
0.130909
0.129084
0.127276
0.125471
0.123639
0.121752
0.119791
0.117759
0.115668
0.113542
0.111374
0.10917
0.106966
0.10476
0.102526
0.100253
0.0979376
0.0955595
0.0931321
0.0906643
0.0881743
0.0856685
0.0831314
0.0806281
0.0781782
0.0757611
0.0733251
0.0708089
0.068158
0.0653266
0.0622237
0.0588136
0.0550875
0.051121
0.0470208
0.0429174
0.0389102
0.0350488
0.0313758
0.0279212
0.0246851
0.0216499
0.0187781
0.0160206
0.0133427
0.0107232
0.00815705
0.00563604
0.00315017
0.000680883
-0.00188118
-0.00450374
-0.00718265
-0.0098998
-0.0126416
-0.015398
-0.0181618
-0.0209281
-0.0236936
-0.0264563
-0.0292151
-0.0319692
-0.0347186
-0.0374638
-0.0402053
-0.0429439
-0.0456807
-0.0484165
-0.0511524
-0.0538891
-0.0566272
-0.0593671
-0.0621091
-0.0648533
-0.0675995
-0.0703478
-0.0730978
-0.0758494
-0.0786023
-0.0813563
-0.0841111
-0.0868665
-0.0896223
-0.0923784
-0.0951348
-0.0978912
-0.100648
-0.103404
-0.106161
-0.108917
0.218691
0.214901
0.211145
0.207446
0.203811
0.200241
0.196734
0.19328
0.18987
0.186499
0.183168
0.179882
0.176648
0.17347
0.170352
0.167299
0.164317
0.161416
0.158601
0.155872
0.153233
0.150683
0.148223
0.145851
0.143566
0.141366
0.139245
0.137192
0.13519
0.133227
0.131292
0.129381
0.127496
0.125628
0.123746
0.121812
0.119809
0.117759
0.115708
0.113695
0.111694
0.109693
0.107716
0.105749
0.103758
0.101727
0.0996356
0.0974425
0.0952073
0.0929404
0.0906442
0.0882888
0.0858008
0.0833221
0.0809057
0.0785009
0.0760783
0.0735551
0.0708245
0.0678231
0.0644597
0.0607268
0.0566451
0.0523118
0.0478531
0.0434417
0.0391915
0.0351199
0.0312542
0.0276581
0.0243483
0.0213068
0.0184684
0.0157463
0.0130803