0 	-15.1913
0.010101 	-9.36514
0.020202 	-8.3327
0.030303 	-9.8272
0.040404 	-7.88355
0.0505051 	-9.48213
0.0606061 	-9.59729
0.0707071 	-9.60375
0.0808081 	-9.60414
0.0909091 	-9.60417
