/*--------------------------------*- C++ -*----------------------------------*\
  =========                 |
  \\      /  F ield         | OpenFOAM: The Open Source CFD Toolbox
   \\    /   O peration     | Website:  https://openfoam.org
    \\  /    A nd           | Version:  6
     \\/     M anipulation  |
\*---------------------------------------------------------------------------*/
FoamFile
{
    version     2.0;
    format      ascii;
    class       volScalarField;
    location    "1900";
    object      dmdt;
}
// * * * * * * * * * * * * * * * * * * * * * * * * * * * * * * * * * * * * * //

dimensions      [0 0 0 0 0 0 0];

internalField   nonuniform List<scalar> 
4800
(
-0.21906
-0.216013
-0.213008
-0.210079
-0.207246
-0.204512
-0.201879
-0.199336
-0.196868
-0.194472
-0.192144
-0.189883
-0.187684
-0.185547
-0.183476
-0.181473
-0.179538
-0.177678
-0.175894
-0.174182
-0.172541
-0.170965
-0.169448
-0.167984
-0.166562
-0.165172
-0.163803
-0.162445
-0.161094
-0.159743
-0.158385
-0.157017
-0.155638
-0.154247
-0.152844
-0.15143
-0.150006
-0.148573
-0.147129
-0.145674
-0.144208
-0.142736
-0.141254
-0.139754
-0.138221
-0.136645
-0.135015
-0.133321
-0.131551
-0.12969
-0.12772
-0.125622
-0.123374
-0.120955
-0.118346
-0.11553
-0.112495
-0.109226
-0.105726
-0.102021
-0.0981328
-0.0940807
-0.0899065
-0.0856403
-0.0812924
-0.0768822
-0.0724411
-0.0680045
-0.0636021
-0.0592554
-0.0549792
-0.0507768
-0.0466458
-0.0425816
-0.0385782
-0.0346211
-0.0307033
-0.0268295
-0.0230025
-0.0192025
-0.0154107
-0.0116505
-0.00793278
-0.00426418
-0.000646892
0.00291899
0.0064346
0.00990194
0.0133235
0.016702
0.0200403
0.0233413
0.0266079
0.0298428
0.0330488
0.0362284
0.039384
0.0425179
0.0456322
0.0487287
0.0518093
0.0548756
0.057929
0.060971
0.0640026
0.0670251
0.0700394
0.0730465
0.0760472
0.0790422
0.0820323
0.0850181
0.0880001
0.090979
0.0939551
0.096929
0.0999012
0.102872
0.105842
0.108811
-0.219057
-0.216006
-0.213009
-0.210089
-0.207261
-0.204529
-0.201892
-0.199342
-0.19687
-0.194469
-0.192134
-0.189862
-0.187653
-0.185509
-0.183433
-0.181426
-0.179492
-0.177632
-0.175847
-0.174136
-0.172494
-0.170918
-0.169402
-0.167938
-0.166516
-0.165127
-0.163757
-0.162397
-0.16104
-0.159681
-0.158315
-0.156939
-0.155552
-0.154152
-0.152742
-0.15132
-0.149889
-0.148449
-0.147
-0.14554
-0.144067
-0.142586
-0.141096
-0.139591
-0.138056
-0.136482
-0.134855
-0.133165
-0.131398
-0.129539
-0.127573
-0.12548
-0.12324
-0.120833
-0.118241
-0.115448
-0.112437
-0.109199
-0.105739
-0.102062
-0.0981862
-0.0941468
-0.0899814
-0.0857104
-0.0813559
-0.0769501
-0.072522
-0.0680991
-0.0637105
-0.0593782
-0.0551102
-0.0509099
-0.0467799
-0.0427188
-0.0387231
-0.0347798
-0.0308735
-0.0269873
-0.0231081
-0.0192428
-0.0154121
-0.0116361
-0.00791148
-0.00423983
-0.000621438
0.00294453
0.00645964
0.00992619
0.0133468
0.0167242
0.0200614
0.0233613
0.0266267
0.0298605
0.0330654
0.036244
0.0393986
0.0425315
0.0456448
0.0487404
0.0518201
0.0548855
0.0579382
0.0609793
0.0640103
0.0670321
0.0700458
0.0730522
0.0760523
0.0790468
0.0820364
0.0850217
0.0880032
0.0909816
0.0939573
0.0969308
0.0999026
0.102873
0.105842
0.108811
-0.219058
-0.216014
-0.213027
-0.210115
-0.20729
-0.204555
-0.201908
-0.199344
-0.196859
-0.194444
-0.192092
-0.189804
-0.18758
-0.185425
-0.18334
-0.181328
-0.179393
-0.177533
-0.175749
-0.174037
-0.172397
-0.170822
-0.169307
-0.167844
-0.166422
-0.16503
-0.163657
-0.162291
-0.160924
-0.159552
-0.158171
-0.156779
-0.155375
-0.153958
-0.152531
-0.151093
-0.149647
-0.148192
-0.146732
-0.145262
-0.143777
-0.142283
-0.14078
-0.139265
-0.137723
-0.136145
-0.13452
-0.132833
-0.131072
-0.129223
-0.127266
-0.125187
-0.122964
-0.120577
-0.118009
-0.115246
-0.112272
-0.109076
-0.105661
-0.102029
-0.0981946
-0.0941897
-0.0900365
-0.0857593
-0.0814076
-0.0770251
-0.0726329
-0.0682444
-0.0638755
-0.0595456
-0.0552691
-0.0510592
-0.0469236
-0.0428592
-0.0388585
-0.0349072
-0.0309839
-0.0270703
-0.0231576
-0.0192547
-0.0153929
-0.0115994
-0.00786581
-0.00418999
-0.000570229
0.00299549
0.00650944
0.0099743
0.0133929
0.0167682
0.0201032
0.0234008
0.026664
0.0298957
0.0330984
0.0362749
0.0394274
0.0425584
0.0456698
0.0487636
0.0518416
0.0549053
0.0579564
0.0609961
0.0640256
0.067046
0.0700584
0.0730637
0.0760627
0.0790561
0.0820446
0.0850289
0.0880095
0.090987
0.0939618
0.0969344
0.0999053
0.102875
0.105844
0.108812
-0.219066
-0.216037
-0.213059
-0.210151
-0.207325
-0.204583
-0.201924
-0.199342
-0.196834
-0.194393
-0.192017
-0.189705
-0.187461
-0.185291
-0.183196
-0.181179
-0.17924
-0.177379
-0.175595
-0.173887
-0.172251
-0.170682
-0.169171
-0.167709
-0.166286
-0.164889
-0.163509
-0.162132
-0.160752
-0.159362
-0.15796
-0.156543
-0.155113
-0.15367
-0.152218
-0.150757
-0.149288
-0.147811
-0.14633
-0.144846
-0.143344
-0.141829
-0.140307
-0.138779
-0.137226
-0.135641
-0.134015
-0.13233
-0.130576
-0.128738
-0.126796
-0.124734
-0.122533
-0.120173
-0.117635
-0.114906
-0.111976
-0.108831
-0.105465
-0.101877
-0.0980847
-0.0941164
-0.0899919
-0.0857436
-0.0814227
-0.0770677
-0.0726988
-0.0683299
-0.0639756
-0.0596535
-0.0553803
-0.0511709
-0.0470321
-0.0429617
-0.0389489
-0.0349787
-0.0310341
-0.0270943
-0.0231506
-0.0192217
-0.0153403
-0.0115333
-0.00779205
-0.00411292
-0.000492619
0.00307195
0.00658376
0.0100459
0.0134615
0.0168336
0.0201653
0.0234597
0.0267196
0.029948
0.0331476
0.0363209
0.0394704
0.0425984
0.045707
0.0487982
0.0518736
0.0549349
0.0579836
0.061021
0.0640484
0.0670668
0.0700773
0.0730808
0.076078
0.0790698
0.0820568
0.0850396
0.0880188
0.0909949
0.0939684
0.0969398
0.0999095
0.102878
0.105845
0.108812
-0.219077
-0.216065
-0.213096
-0.21019
-0.20736
-0.20461
-0.201937
-0.199336
-0.196802
-0.194331
-0.191924
-0.189585
-0.18732
-0.185134
-0.183026
-0.181001
-0.179059
-0.177199
-0.17542
-0.173719
-0.172093
-0.170531
-0.169024
-0.167562
-0.166135
-0.164731
-0.163339
-0.161945
-0.160543
-0.159126
-0.157691
-0.15624
-0.154776
-0.1533
-0.151814
-0.150321
-0.148821
-0.147313
-0.145801
-0.144292
-0.142771
-0.141231
-0.139684
-0.138136
-0.136568
-0.134972
-0.13334
-0.131657
-0.129906
-0.128077
-0.126152
-0.124111
-0.121936
-0.119608
-0.117107
-0.114416
-0.111529
-0.108433
-0.105121
-0.101597
-0.0978733
-0.0939644
-0.0898908
-0.0856861
-0.0813967
-0.0770616
-0.0727053
-0.0683469
-0.0640034
-0.0596909
-0.055428
-0.0512261
-0.0470855
-0.0430047
-0.0389752
-0.0349846
-0.0310163
-0.0270529
-0.0230913
-0.019147
-0.0152502
-0.0114336
-0.00768765
-0.00400742
-0.000388342
0.00317362
0.00668203
0.0101403
0.0135519
0.0169198
0.0202472
0.0235373
0.0267929
0.0300171
0.0332125
0.0363817
0.0395273
0.0426515
0.0457564
0.0488439
0.0519159
0.054974
0.0580196
0.061054
0.0640786
0.0670944
0.0701024
0.0731034
0.0760984
0.079088
0.0820729
0.0850538
0.0880311
0.0910054
0.0939772
0.0969469
0.099915
0.102882
0.105848
0.108813
-0.219087
-0.216089
-0.21313
-0.210229
-0.207397
-0.204639
-0.201954
-0.199335
-0.196777
-0.194278
-0.191843
-0.189479
-0.187194
-0.184991
-0.182872
-0.180841
-0.178898
-0.177042
-0.175271
-0.173581
-0.171965
-0.170411
-0.168907
-0.167442
-0.166005
-0.164585
-0.163172
-0.161751
-0.160315
-0.158858
-0.157379
-0.155883
-0.154375
-0.152856
-0.151328
-0.149794
-0.148252
-0.146706
-0.145155
-0.143608
-0.142057
-0.140487
-0.13891
-0.137337
-0.135751
-0.13414
-0.132497
-0.130812
-0.129063
-0.12724
-0.125329
-0.123312
-0.121166
-0.118874
-0.116415
-0.113771
-0.110932
-0.107891
-0.104638
-0.101179
-0.0975245
-0.0936809
-0.0896653
-0.0855133
-0.0812635
-0.0769561
-0.0726227
-0.0682816
-0.063952
-0.0596521
-0.0554004
-0.0512036
-0.0470597
-0.042969
-0.0389247
-0.0349157
-0.0309296
-0.0269543
-0.0229853
-0.0190298
-0.0151196
-0.0112978
-0.00755138
-0.0038733
-0.000257842
0.0032997
0.00680332
0.0102566
0.0136631
0.0170258
0.0203481
0.0236329
0.0268834
0.0301024
0.0332927
0.036457
0.0395977
0.0427171
0.0458175
0.0489006
0.0519684
0.0550224
0.0580641
0.0610949
0.064116
0.0671285
0.0701334
0.0731314
0.0761236
0.0791105
0.0820929
0.0850713
0.0880463
0.0910184
0.0939881
0.0969557
0.0999217
0.102887
0.10585
0.108814
-0.219093
-0.216108
-0.21316
-0.210267
-0.207437
-0.204676
-0.201981
-0.199346
-0.196766
-0.194242
-0.191784
-0.189402
-0.187103
-0.184889
-0.182766
-0.180734
-0.178796
-0.17695
-0.175193
-0.173517
-0.171911
-0.170359
-0.168851
-0.167374
-0.165917
-0.16447
-0.163021
-0.161559
-0.160074
-0.158565
-0.157033
-0.155483
-0.153921
-0.15235
-0.15077
-0.149183
-0.147591
-0.145996
-0.1444
-0.142806
-0.141214
-0.139607
-0.137996
-0.136389
-0.134777
-0.133146
-0.131486
-0.129794
-0.128044
-0.126227
-0.12433
-0.122333
-0.120218
-0.117964
-0.115553
-0.112963
-0.110181
-0.1072
-0.104012
-0.100621
-0.0970316
-0.0932567
-0.089318
-0.0852431
-0.0810571
-0.0767879
-0.0724712
-0.068142
-0.0638244
-0.0595356
-0.0552899
-0.0510938
-0.0469465
-0.0428465
-0.0387884
-0.0347637
-0.0307651
-0.0267807
-0.0228073
-0.018854
-0.0149434
-0.0111249
-0.00738363
-0.00371162
-0.000102505
0.00344875
0.00694622
0.0103935
0.013794
0.0171508
0.020467
0.0237459
0.0269904
0.0302034
0.0333878
0.0365462
0.0396812
0.042795
0.04589
0.0489679
0.0520307
0.0550799
0.058117
0.0611435
0.0641605
0.067169
0.0701701
0.0731647
0.0761534
0.0791372
0.0821165
0.0850921
0.0880643
0.0910338
0.0940009
0.0969661
0.0999298
0.102892
0.105854
0.108815
-0.219099
-0.216129
-0.213195
-0.210312
-0.20749
-0.204728
-0.202025
-0.199376
-0.196778
-0.194235
-0.191763
-0.18937
-0.187064
-0.184848
-0.182726
-0.180703
-0.178779
-0.176954
-0.175217
-0.173556
-0.171957
-0.170403
-0.168884
-0.167385
-0.165896
-0.164404
-0.162901
-0.161381
-0.159832
-0.158259
-0.156663
-0.15505
-0.153425
-0.151792
-0.150151
-0.148502
-0.146849
-0.145195
-0.143544
-0.141897
-0.140257
-0.138609
-0.136959
-0.135311
-0.133664
-0.132005
-0.13032
-0.128614
-0.126858
-0.125043
-0.123159
-0.121182
-0.119096
-0.116881
-0.114521
-0.111992
-0.109273
-0.106359
-0.103244
-0.0999269
-0.0964137
-0.092716
-0.0888528
-0.0848443
-0.08071
-0.0764806
-0.0722002
-0.0679038
-0.0636103
-0.059336
-0.0550953
-0.0508983
-0.046747
-0.0426403
-0.0385717
-0.0345295
-0.0305049
-0.0264987
-0.0225321
-0.0186123
-0.014722
-0.010917
-0.00718711
-0.00352509
7.52369e-05
0.00361866
0.00710896
0.0105495
0.0139433
0.0172936
0.0206032
0.0238754
0.0271132
0.0303194
0.0334971
0.0366489
0.0397773
0.0428848
0.0459735
0.0490454
0.0521024
0.0551461
0.058178
0.0611994
0.0642116
0.0672156
0.0702124
0.0732029
0.0761878
0.0791679
0.0821437
0.085116
0.088085
0.0910515
0.0940157
0.096978
0.099939
0.102899
0.105858
0.108816
-0.219111
-0.216163
-0.213249
-0.21038
-0.207563
-0.204798
-0.202088
-0.199427
-0.196817
-0.194265
-0.191788
-0.189393
-0.187089
-0.184879
-0.182771
-0.180768
-0.178872
-0.177074
-0.17536
-0.173714
-0.172119
-0.17056
-0.169023
-0.167489
-0.165952
-0.164401
-0.16283
-0.161232
-0.159607
-0.157962
-0.156296
-0.15461
-0.152911
-0.151204
-0.14949
-0.14777
-0.146047
-0.144324
-0.142609
-0.140901
-0.139201
-0.137503
-0.135809
-0.134116
-0.13243
-0.130738
-0.129024
-0.127296
-0.125528
-0.123709
-0.121832
-0.119872
-0.117814
-0.115639
-0.113327
-0.11086
-0.10821
-0.105368
-0.10233
-0.0990914
-0.0956587
-0.0920433
-0.0882588
-0.0843224
-0.0802547
-0.0760874
-0.071859
-0.0675978
-0.0633258
-0.0590612
-0.0548203
-0.0506189
-0.0464631
-0.0423522
-0.0382794
-0.0342363
-0.0302224
-0.0262413
-0.0222848
-0.0183607
-0.0144621
-0.0106797
-0.00696676
-0.00331782
0.000272112
0.00380687
0.00728956
0.010723
0.0141099
0.0174532
0.0207558
0.0240208
0.0272512
0.03045
0.0336202
0.0367646
0.0398857
0.042986
0.0460677
0.0491329
0.0521833
0.0552208
0.0582467
0.0612624
0.0642692
0.067268
0.07026
0.0732458
0.0762264
0.0792023
0.0821743
0.0851428
0.0881083
0.0910713
0.0940322
0.0969914
0.0999493
0.102906
0.105862
0.108818
-0.219126
-0.216206
-0.213312
-0.210455
-0.207646
-0.204883
-0.202168
-0.199501
-0.196887
-0.194337
-0.191866
-0.189479
-0.187186
-0.184995
-0.182914
-0.180944
-0.179084
-0.177319
-0.175629
-0.173998
-0.172406
-0.170835
-0.169267
-0.167687
-0.166091
-0.164469
-0.162811
-0.16112
-0.159406
-0.157677
-0.155931
-0.154169
-0.152391
-0.150604
-0.148808
-0.147007
-0.145204
-0.143403
-0.141611
-0.139836
-0.138071
-0.136312
-0.134566
-0.132826
-0.131093
-0.129364
-0.127619
-0.125863
-0.124077
-0.122251
-0.120374
-0.118427
-0.116391
-0.114254
-0.111994
-0.109588
-0.107009
-0.104241
-0.101281
-0.0981235
-0.0947767
-0.0912503
-0.0875547
-0.0837056
-0.079723
-0.0756279
-0.0714494
-0.0672212
-0.0629702
-0.0587143
-0.0544717
-0.0502611
-0.0460919
-0.0419665
-0.0378828
-0.0338378
-0.0298305
-0.0258696
-0.0219375
-0.0180431
-0.0138022
-0.0104159
-0.00672841
-0.00309456
0.000484598
0.00401082
0.00748613
0.0109126
0.0142926
0.0176288
0.0209241
0.0241814
0.0274039
0.0305947
0.0337567
0.0368929
0.0400059
0.0430983
0.0461722
0.0492298
0.052273
0.0553035
0.0583227
0.0613321
0.0643328
0.067326
0.0703125
0.0732933
0.076269
0.0792403
0.0822079
0.0851723
0.0881339
0.0910931
0.0940505
0.0970062
0.0999606
0.102914
0.105867
0.108819
-0.219137
-0.216239
-0.213366
-0.210528
-0.207732
-0.204978
-0.202267
-0.199602
-0.196992
-0.194455
-0.192001
-0.189637
-0.18737
-0.185211
-0.183168
-0.181241
-0.179422
-0.177689
-0.176024
-0.174406
-0.172812
-0.17122
-0.169609
-0.167971
-0.166301
-0.164589
-0.162833
-0.161043
-0.159235
-0.157415
-0.155582
-0.153735
-0.151873
-0.150002
-0.148122
-0.146236
-0.144348
-0.142463
-0.140587
-0.138731
-0.136894
-0.13507
-0.13326
-0.131463
-0.129679
-0.127907
-0.126127
-0.124339
-0.122527
-0.120691
-0.11881
-0.116869
-0.114853
-0.112746
-0.110527
-0.108171
-0.105659
-0.102971
-0.100095
-0.0970273
-0.0937713
-0.0903347
-0.0867277
-0.0829657
-0.0790667
-0.0750499
-0.0709408
-0.0667626
-0.06254
-0.0582992
-0.0540589
-0.0498377
-0.045647
-0.041491
-0.0373779
-0.0333216
-0.0293268
-0.0254028
-0.0215338
-0.0177149
-0.0139052
-0.0101583
-0.00648169
-0.00286006
0.000709683
0.0042285
0.00769729
0.0111174
0.0144908
0.0178199
0.0211076
0.0243568
0.0275709
0.030753
0.0339062
0.0370335
0.0401376
0.0432212
0.0462865
0.0493359
0.052371
0.0553938
0.0584057
0.0614081
0.0644022
0.0673891
0.0703697
0.0733449
0.0763153
0.0792816
0.0822445
0.0852044
0.0881617
0.0911168
0.0940702
0.0970222
0.0999729
0.102923
0.105872
0.108821
-0.219152
-0.216284
-0.213437
-0.210616
-0.207832
-0.205089
-0.20239
-0.19974
-0.19715
-0.194637
-0.192208
-0.189875
-0.187646
-0.185532
-0.183539
-0.181661
-0.179884
-0.178183
-0.176538
-0.174926
-0.173322
-0.171694
-0.17003
-0.168325
-0.166567
-0.164753
-0.162888
-0.160992
-0.159082
-0.157165
-0.155243
-0.153311
-0.151366
-0.14941
-0.147445
-0.145474
-0.143497
-0.141522
-0.139558
-0.137614
-0.135693
-0.133796
-0.131916
-0.130055
-0.128212
-0.12639
-0.124568
-0.122744
-0.120902
-0.119047
-0.117155
-0.115212
-0.113208
-0.111129
-0.108957
-0.10666
-0.104214
-0.101601
-0.0988044
-0.0958193
-0.0926495
-0.0893024
-0.0857879
-0.0821168
-0.0783016
-0.0743612
-0.0703206
-0.0662062
-0.062041
-0.0578397
-0.0536137
-0.049383
-0.045163
-0.0409654
-0.0368086
-0.0327196
-0.0287245
-0.0248333
-0.0210232
-0.0172817
-0.013571
-0.00987733
-0.00622495
-0.00261627
0.000945709
0.00445886
0.00792245
0.0113371
0.0147043
0.0180264
0.0213063
0.0245471
0.0277522
0.0309249
0.0340685
0.037186
0.0402804
0.0433544
0.0464104
0.0494506
0.052477
0.0554914
0.0584953
0.0614901
0.064477
0.0674571
0.0704312
0.0734003
0.076365
0.079326
0.0822837
0.0852387
0.0881914
0.0911422
0.0940914
0.0970392
0.0999861
0.102932
0.105878
0.108823
-0.219167
-0.216323
-0.213497
-0.210702
-0.207941
-0.205218
-0.20254
-0.199913
-0.197352
-0.194874
-0.192486
-0.190199
-0.188024
-0.185968
-0.184031
-0.182205
-0.180467
-0.178793
-0.177162
-0.175548
-0.173918
-0.172245
-0.17052
-0.168733
-0.166875
-0.164949
-0.16297
-0.160967
-0.158957
-0.156947
-0.154935
-0.152916
-0.150886
-0.148844
-0.146792
-0.144732
-0.142666
-0.140598
-0.138539
-0.136499
-0.134486
-0.132505
-0.130551
-0.12862
-0.126714
-0.124834
-0.122965
-0.121099
-0.119222
-0.117339
-0.115429
-0.113478
-0.111479
-0.109416
-0.107273
-0.10502
-0.102637
-0.1001
-0.0973899
-0.0944979
-0.0914224
-0.0881707
-0.0847516
-0.0811744
-0.0774503
-0.0735965
-0.0696376
-0.0656012
-0.0615033
-0.0573525
-0.0531614
-0.0489493
-0.0447292
-0.0405106
-0.0363258
-0.0322199
-0.0282218
-0.0243392
-0.0205664
-0.0168897
-0.0132586
-0.00960415
-0.00596804
-0.0023666
0.00119164
0.00470184
0.00816197
0.011572
0.0149335
0.0182486
0.0215205
0.0247524
0.0279479
0.0311104
0.0342435
0.0373504
0.0404342
0.0434977
0.0465434
0.0495737
0.0525906
0.0555958
0.058591
0.0615776
0.0645567
0.0675294
0.0704967
0.0734592
0.0764178
0.079373
0.0823252
0.0852751
0.0882229
0.091169
0.0941137
0.0970573
0.1
0.102942
0.105884
0.108825
-0.219182
-0.21637
-0.213578
-0.210812
-0.208077
-0.20538
-0.202728
-0.200134
-0.197614
-0.195183
-0.192849
-0.190623
-0.188509
-0.186515
-0.184639
-0.182865
-0.181166
-0.179515
-0.17789
-0.176263
-0.174593
-0.172861
-0.171057
-0.169173
-0.167208
-0.165168
-0.163078
-0.160971
-0.158863
-0.156761
-0.154661
-0.152556
-0.150441
-0.148315
-0.146177
-0.14403
-0.141871
-0.139707
-0.137549
-0.135412
-0.133305
-0.131235
-0.129196
-0.127186
-0.125204
-0.123257
-0.121336
-0.119425
-0.117511
-0.115593
-0.113659
-0.111696
-0.109703
-0.107657
-0.105542
-0.103326
-0.101
-0.0985341
-0.0959033
-0.0930965
-0.090113
-0.086959
-0.0836398
-0.0801639
-0.0765393
-0.07278
-0.0689097
-0.0649536
-0.0609308
-0.056852
-0.052725
-0.0485634
-0.044385
-0.040206
-0.0360556
-0.0319709
-0.0279793
-0.0240985
-0.0203302
-0.0166564
-0.0128351
-0.00936614
-0.00571982
-0.00211336
0.00144769
0.00495852
0.00841714
0.0118237
0.0151797
0.0184878
0.0217511
0.0249734
0.0281583
0.0313097
0.0344313
0.0375265
0.0405987
0.0436507
0.0466852
0.0497047
0.0527112
0.0557066
0.0586924
0.0616701
0.0646408
0.0676057
0.0705656
0.0735212
0.0764732
0.0794223
0.0823688
0.0853132
0.0882559
0.0911971
0.0941371
0.0970762
0.100015
0.102952
0.10589
0.108827
-0.219197
-0.216416
-0.213656
-0.210924
-0.208224
-0.205564
-0.202954
-0.200407
-0.19794
-0.195569
-0.193301
-0.191141
-0.189096
-0.18717
-0.185357
-0.183634
-0.181968
-0.180332
-0.178705
-0.177052
-0.175329
-0.173523
-0.171626
-0.169637
-0.167561
-0.165408
-0.163214
-0.161013
-0.158817
-0.156626
-0.154439
-0.152247
-0.150047
-0.147837
-0.145613
-0.143376
-0.141122
-0.138862
-0.136609
-0.134375
-0.13217
-0.130002
-0.127871
-0.125775
-0.123715
-0.121689
-0.119699
-0.117735
-0.115783
-0.113835
-0.111876
-0.109893
-0.107891
-0.105852
-0.103761
-0.101582
-0.0992966
-0.096887
-0.0943352
-0.0916244
-0.0887408
-0.0856849
-0.0824636
-0.0790861
-0.0755632
-0.0719089
-0.0681415
-0.0642822
-0.0603513
-0.0563597
-0.0523144
-0.048228
-0.0441236
-0.040027
-0.0359616
-0.0319414
-0.0279831
-0.0241039
-0.0203045
-0.0165584
-0.0128396
-0.00914114
-0.00547541
-0.00185386
0.0017164
0.00523146
0.00869039
0.0120941
0.0154447
0.0187453
0.0219994
0.025211
0.0283842
0.0315233
0.0346321
0.0377144
0.0407737
0.0438132
0.0468355
0.0498432
0.0528385
0.0558232
0.0587989
0.0617671
0.0647289
0.0676854
0.0706375
0.0735858
0.076531
0.0794736
0.0824141
0.0853528
0.0882901
0.0912262
0.0941613
0.0970958
0.10003
0.102963
0.105896
0.108829
-0.219216
-0.216472
-0.213749
-0.21106
-0.208407
-0.205795
-0.203237
-0.200748
-0.198345
-0.196043
-0.193846
-0.191759
-0.189785
-0.187926
-0.186169
-0.184488
-0.182848
-0.181222
-0.179585
-0.177897
-0.176117
-0.174232
-0.172238
-0.170141
-0.167955
-0.1657
-0.16341
-0.16112
-0.158838
-0.156562
-0.154287
-0.152006
-0.149718
-0.14742
-0.145105
-0.142776
-0.140431
-0.138076
-0.135723
-0.133386
-0.131079
-0.128812
-0.126588
-0.124403
-0.122259
-0.120154
-0.118089
-0.11606
-0.114056
-0.112067
-0.110079
-0.108079
-0.106068
-0.104029
-0.101949
-0.0998016
-0.0975677
-0.0952166
-0.092728
-0.0900941
-0.0873
-0.0843406
-0.0812225
-0.0779535
-0.0745423
-0.0709992
-0.0673407
-0.0635863
-0.0597547
-0.0558581
-0.0519049
-0.0479065
-0.0438828
-0.039859
-0.0358585
-0.0318953
-0.0279742
-0.0240979
-0.0202686
-0.0164549
-0.0126506
-0.00891868
-0.00522424
-0.00158098
0.00200288
0.00552472
0.00898518
0.0123864
0.0157312
0.0190234
0.022267
0.0254666
0.0286266
0.0317518
0.0348463
0.0379142
0.0409593
0.0439849
0.0469938
0.0499887
0.0529718
0.055945
0.05891
0.061868
0.0648204
0.0677681
0.0707119
0.0736525
0.0765906
0.0795265
0.0824607
0.0853935
0.0883252
0.0912561
0.0941862
0.0971158
0.100045
0.102974
0.105903
0.108831
-0.21924
-0.216544
-0.213869
-0.211228
-0.208627
-0.206073
-0.203579
-0.201158
-0.198828
-0.196599
-0.194474
-0.192459
-0.190553
-0.188757
-0.187054
-0.18541
-0.18379
-0.182167
-0.180513
-0.178782
-0.176939
-0.174973
-0.172885
-0.170694
-0.168415
-0.166069
-0.163693
-0.161317
-0.15895
-0.15659
-0.154226
-0.151853
-0.14947
-0.147075
-0.144666
-0.142242
-0.139802
-0.13735
-0.134897
-0.132459
-0.130056
-0.127696
-0.125375
-0.123093
-0.120855
-0.118666
-0.11653
-0.114433
-0.112369
-0.110329
-0.108305
-0.10628
-0.104255
-0.102213
-0.100139
-0.0980087
-0.0958096
-0.0935117
-0.091088
-0.0885293
-0.0858241
-0.082966
-0.079956
-0.0767974
-0.0734976
-0.0700667
-0.0665189
-0.0628724
-0.059144
-0.0553458
-0.051486
-0.0475763
-0.0436334
-0.0396755
-0.035722
-0.0317883
-0.02788
-0.0239947
-0.0201253
-0.0162675
-0.01208
-0.00866878
-0.0049508
-0.00128514
0.00231377
0.00584352
0.00930597
0.0127043
0.0160425
0.0193249
0.0225563
0.0257418
0.0288867
0.0319959
0.0350742
0.038126
0.0411552
0.0441655
0.0471597
0.0501407
0.0531107
0.0560715
0.0590249
0.0619723
0.0649147
0.0678531
0.0707883
0.0737209
0.0766515
0.0795805
0.0825082
0.085435
0.088361
0.0912865
0.0942115
0.0971362
0.100061
0.102985
0.105909
0.108833
-0.219268
-0.216629
-0.214012
-0.211429
-0.208887
-0.206397
-0.203976
-0.201635
-0.199386
-0.197237
-0.195189
-0.193245
-0.191408
-0.189672
-0.188012
-0.186393
-0.184783
-0.183152
-0.181465
-0.17968
-0.177769
-0.175726
-0.173561
-0.171298
-0.168951
-0.166538
-0.164091
-0.161636
-0.159185
-0.156736
-0.15428
-0.151815
-0.149336
-0.146836
-0.14432
-0.14179
-0.139245
-0.136692
-0.134142
-0.131608
-0.129103
-0.126641
-0.124226
-0.121862
-0.119542
-0.117263
-0.115037
-0.112864
-0.110735
-0.108642
-0.106576
-0.104522
-0.10248
-0.100431
-0.0983525
-0.0962345
-0.0940645
-0.0918108
-0.0894479
-0.0869645
-0.0843459
-0.0815826
-0.0786747
-0.0756245
-0.0724365
-0.0691188
-0.0656829
-0.0621452
-0.058521
-0.0548215
-0.0510539
-0.0472296
-0.0433625
-0.039466
-0.0355535
-0.0316393
-0.0277333
-0.0238389
-0.0199588
-0.0160944
-0.0122286
-0.00840799
-0.00464884
-0.000958845
0.00265562
0.00619371
0.00965804
0.0130527
0.0163826
0.019653
0.0228697
0.0260386
0.0291657
0.0322564
0.0353162
0.0383497
0.0413613
0.0443545
0.0473327
0.0502985
0.0532543
0.0562019
0.0591431
0.0620791
0.065011
0.0679397
0.0708659
0.0737903
0.0767133
0.0796351
0.0825563
0.0854769
0.0883971
0.0913171
0.0942369
0.0971567
0.100076
0.102996
0.105916
0.108836
-0.219296
-0.216716
-0.21416
-0.211641
-0.209172
-0.206764
-0.204428
-0.202174
-0.200011
-0.197947
-0.195981
-0.194113
-0.192339
-0.190649
-0.189022
-0.187425
-0.185818
-0.184171
-0.182443
-0.180602
-0.178622
-0.176508
-0.174283
-0.171974
-0.169586
-0.167128
-0.164624
-0.162098
-0.159564
-0.157023
-0.154473
-0.151913
-0.149331
-0.14672
-0.144081
-0.141426
-0.138769
-0.136117
-0.133473
-0.130846
-0.128246
-0.125685
-0.123171
-0.120708
-0.118298
-0.11594
-0.113634
-0.111386
-0.109186
-0.107038
-0.104922
-0.102834
-0.100767
-0.0987065
-0.0966175
-0.0945039
-0.0923568
-0.0901409
-0.087826
-0.0854027
-0.0828594
-0.0801872
-0.0773806
-0.0744394
-0.0713643
-0.0681607
-0.0648374
-0.0614086
-0.0578883
-0.0542865
-0.0506088
-0.0468642
-0.0430662
-0.0392272
-0.0353569
-0.0314646
-0.0275634
-0.023662
-0.0197655
-0.0158716
-0.0119716
-0.00810028
-0.00430894
-0.000596175
0.0030345
0.00658159
0.0100474
0.0134369
0.016756
0.0200114
0.0232101
0.026359
0.0294649
0.0325342
0.0355726
0.0385854
0.041577
0.0445514
0.0475119
0.0504612
0.0534018
0.0563353
0.0592635
0.0621876
0.0651086
0.0680273
0.0709443
0.0738602
0.0767753
0.07969
0.0826044
0.0855188
0.0884332
0.0913477
0.0942623
0.0971772
0.100092
0.103007
0.105923
0.108838
-0.219331
-0.216822
-0.214339
-0.211894
-0.209505
-0.207184
-0.204939
-0.202775
-0.2007
-0.198716
-0.196824
-0.195024
-0.193311
-0.191674
-0.190084
-0.188504
-0.18689
-0.185213
-0.183443
-0.181556
-0.179535
-0.177386
-0.175125
-0.172783
-0.170364
-0.167869
-0.165317
-0.16273
-0.160114
-0.157477
-0.154824
-0.152158
-0.149471
-0.146746
-0.143978
-0.141186
-0.1384
-0.135637
-0.132899
-0.130185
-0.127497
-0.124847
-0.122242
-0.119687
-0.117185
-0.114739
-0.11235
-0.110024
-0.107755
-0.105545
-0.103378
-0.101247
-0.099149
-0.0970684
-0.0949633
-0.092847
-0.0907093
-0.0885199
-0.0862447
-0.0838733
-0.0813952
-0.0788029
-0.076089
-0.0732505
-0.0702848
-0.0671927
-0.063981
-0.0606612
-0.0572445
-0.0537383
-0.0501479
-0.0464813
-0.042751
-0.0389679
-0.0351393
-0.0312711
-0.0273749
-0.0234612
-0.0195357
-0.0156048
-0.0116636
-0.00774004
-0.00392402
-0.000190524
0.00345764
0.00701476
0.0104815
0.0138634
0.0171681
0.0204043
0.0235805
0.026705
0.0297856
0.0328296
0.0358434
0.0388325
0.0418018
0.0447553
0.0476965
0.050628
0.0535522
0.0564708
0.0593853
0.062297
0.0652066
0.068115
0.0710226
0.0739298
0.076837
0.0797444
0.0826521
0.0855603
0.0884688
0.0913779
0.0942874
0.0971974
0.100108
0.103018
0.105929
0.10884
-0.219371
-0.216942
-0.214542
-0.212184
-0.209884
-0.207653
-0.205501
-0.203433
-0.201451
-0.199557
-0.197745
-0.196014
-0.194357
-0.192757
-0.191183
-0.189599
-0.187962
-0.186251
-0.184445
-0.182521
-0.180469
-0.178299
-0.17603
-0.173685
-0.171261
-0.168757
-0.166185
-0.163553
-0.160858
-0.158115
-0.155343
-0.15256
-0.149766
-0.146931
-0.144029
-0.141092
-0.138167
-0.135277
-0.132435
-0.129636
-0.12687
-0.124135
-0.12144
-0.118798
-0.116212
-0.113683
-0.111215
-0.108812
-0.106474
-0.104199
-0.101977
-0.0997978
-0.0976597
-0.0955499
-0.0934232
-0.0912908
-0.0891457
-0.0869628
-0.0847115
-0.0823779
-0.0799524
-0.0774287
-0.0747976
-0.072054
-0.0691914
-0.0662062
-0.0631028
-0.059889
-0.0565743
-0.0531649
-0.0496641
-0.0460773
-0.0424153
-0.0386886
-0.0349025
-0.0310607
-0.0271706
-0.0232429
-0.0192889
-0.0153195
-0.0113158
-0.00728544
-0.00347627
0.000268898
0.00393518
0.00750316
0.0109692
0.0143398
0.0176251
0.0208362
0.0239839
0.0270784
0.0301286
0.0331428
0.0361281
0.0390903
0.0420346
0.0449651
0.0478851
0.0507974
0.0537042
0.0566071
0.0595074
0.0624062
0.0653042
0.068202
0.0711
0.0739986
0.0768978
0.079798
0.082699
0.0856009
0.0885038
0.0914075
0.0943119
0.0972171
0.100123
0.103029
0.105935
0.108842
-0.219414
-0.217073
-0.214762
-0.212499
-0.210295
-0.208161
-0.206105
-0.204133
-0.202245
-0.200439
-0.198708
-0.197044
-0.195433
-0.193854
-0.192283
-0.190685
-0.189024
-0.187285
-0.18545
-0.183498
-0.181428
-0.179251
-0.176985
-0.174653
-0.172257
-0.16978
-0.16722
-0.164568
-0.161808
-0.158958
-0.156049
-0.15313
-0.150215
-0.147271
-0.144242
-0.14116
-0.138096
-0.135084
-0.132132
-0.129241
-0.126395
-0.123581
-0.120802
-0.118075
-0.115406
-0.112798
-0.110256
-0.107782
-0.105377
-0.103037
-0.100757
-0.0985282
-0.0963426
-0.0941866
-0.0920288
-0.0898653
-0.0876903
-0.0854871
-0.0832315
-0.0809131
-0.0785207
-0.0760497
-0.0734875
-0.0708274
-0.0680617
-0.0651791
-0.0621793
-0.0590685
-0.0558562
-0.0525469
-0.0491416
-0.045643
-0.0420566
-0.0383912
-0.0346515
-0.0308396
-0.0269594
-0.02302
-0.0190333
-0.0150054
-0.01091
-0.00635257
-0.00295495
0.000789567
0.00447902
0.00805946
0.0115219
0.0148751
0.0181334
0.0213115
0.0244232
0.0274806
0.0304943
0.0334735
0.0364258
0.0393575
0.0422739
0.045179
0.0480762
0.050968
0.0538564
0.0567428
0.0596284
0.062514
0.0654001
0.0682873
0.0711758
0.0740656
0.076957
0.07985
0.0827444
0.0856403
0.0885376
0.091436
0.0943356
0.0972361
0.100137
0.103039
0.105942
0.108844
-0.219459
-0.217209
-0.214995
-0.212832
-0.21073
-0.208696
-0.20674
-0.204861
-0.203061
-0.201336
-0.199675
-0.198063
-0.196487
-0.194925
-0.193355
-0.191742
-0.190064
-0.188304
-0.186446
-0.184477
-0.182402
-0.180237
-0.178003
-0.175714
-0.17336
-0.170919
-0.16838
-0.165718
-0.162909
-0.159963
-0.156927
-0.153868
-0.150819
-0.14776
-0.144603
-0.141398
-0.138211
-0.135079
-0.132017
-0.129029
-0.126103
-0.123214
-0.120352
-0.117541
-0.114796
-0.112114
-0.1095
-0.106957
-0.104487
-0.102087
-0.0997527
-0.0974743
-0.095241
-0.0930259
-0.090813
-0.0885942
-0.086363
-0.0841082
-0.0818116
-0.0794709
-0.0770765
-0.0746313
-0.0721236
-0.0695349
-0.066852
-0.0640622
-0.0611597
-0.0581487
-0.0550425
-0.0518445
-0.0485506
-0.0451597
-0.0416669
-0.0380743
-0.0343841
-0.0306025
-0.026734
-0.0227886
-0.0187814
-0.0147367
-0.0106529
-0.00649688
-0.00251482
0.00135756
0.00510248
0.00870003
0.0121534
0.0154798
0.0187002
0.0218347
0.0249005
0.0279123
0.0308822
0.0338202
0.0367347
0.0396321
0.0425175
0.0453951
0.0482678
0.0511378
0.054007
0.0568764
0.0597469
0.0626191
0.0654934
0.06837
0.0712489
0.0741302
0.0770139
0.0798999
0.082788
0.085678
0.0885699
0.0914633
0.0943582
0.0972542
0.100151
0.103049
0.105947
0.108846
-0.219509
-0.217356
-0.21524
-0.213177
-0.211173
-0.20924
-0.207382
-0.205599
-0.203887
-0.202235
-0.200629
-0.199056
-0.197506
-0.195957
-0.194384
-0.192762
-0.191073
-0.189301
-0.187431
-0.185459
-0.183391
-0.18125
-0.179054
-0.176819
-0.174533
-0.172154
-0.169645
-0.166965
-0.164097
-0.161059
-0.157914
-0.15473
-0.151558
-0.148383
-0.14511
-0.141827
-0.138553
-0.13531
-0.132123
-0.129019
-0.126
-0.123035
-0.120105
-0.117229
-0.114419
-0.111669
-0.108983
-0.10637
-0.103833
-0.101373
-0.0989878
-0.0966594
-0.0943668
-0.0920777
-0.0897857
-0.087488
-0.0851765
-0.0828384
-0.0804637
-0.0780576
-0.0756156
-0.073147
-0.0706561
-0.0681216
-0.0655145
-0.0628096
-0.0599928
-0.0570702
-0.0540672
-0.0509905
-0.047832
-0.0445775
-0.0411997
-0.0377019
-0.03407
-0.0303183
-0.0264526
-0.0224936
-0.0184574
-0.0143692
-0.0102415
-0.00606844
-0.00193354
0.00204309
0.0058425
0.00945032
0.0128815
0.0161653
0.0193322
0.0224088
0.0254166
0.0283725
0.0312903
0.0341806
0.037052
0.0399111
0.0427627
0.0456105
0.0484572
0.0513046
0.0541539
0.057006
0.0598613
0.0627202
0.0655827
0.0684489
0.0713185
0.0741916
0.0770678
0.0799471
0.0828291
0.0857135
0.0886003
0.0914889
0.0943794
0.0972712
0.100164
0.103058
0.105953
0.108848
-0.219558
-0.217503
-0.215484
-0.213516
-0.21161
-0.209773
-0.208007
-0.206312
-0.204677
-0.203087
-0.201525
-0.199984