/*--------------------------------*- C++ -*----------------------------------*\
  =========                 |
  \\      /  F ield         | OpenFOAM: The Open Source CFD Toolbox
   \\    /   O peration     | Website:  https://openfoam.org
    \\  /    A nd           | Version:  6
     \\/     M anipulation  |
\*---------------------------------------------------------------------------*/
FoamFile
{
    version     2.0;
    format      ascii;
    class       volScalarField;
    location    "1900";
    object      T;
}
// * * * * * * * * * * * * * * * * * * * * * * * * * * * * * * * * * * * * * //

dimensions      [0 0 0 1 0 0 0];

internalField   nonuniform List<scalar> 
4800
(
552.494
552.384
552.275
552.169
552.066
551.967
551.871
551.779
551.69
551.603
551.518
551.436
551.356
551.279
551.204
551.131
551.061
550.994
550.929
550.867
550.807
550.75
550.695
550.642
550.59
550.54
550.49
550.441
550.392
550.343
550.294
550.244
550.194
550.144
550.093
550.042
549.99
549.938
549.886
549.833
549.78
549.726
549.673
549.618
549.563
549.505
549.446
549.385
549.321
549.253
549.182
549.106
549.024
548.937
548.842
548.74
548.63
548.511
548.384
548.25
548.109
547.962
547.811
547.656
547.498
547.338
547.177
547.016
546.857
546.699
546.544
546.392
546.242
546.094
545.949
545.806
545.664
545.523
545.384
545.246
545.109
544.973
544.838
544.705
544.574
544.444
544.317
544.191
544.067
543.944
543.823
543.704
543.585
543.468
543.351
543.236
543.122
543.008
542.895
542.783
542.671
542.56
542.449
542.339
542.229
542.119
542.01
541.901
541.792
541.683
541.575
541.467
541.359
541.251
541.143
541.035
540.927
540.819
540.712
540.604
552.494
552.384
552.275
552.169
552.067
551.967
551.872
551.779
551.69
551.603
551.518
551.435
551.355
551.278
551.202
551.13
551.059
550.992
550.927
550.865
550.806
550.748
550.693
550.64
550.589
550.538
550.489
550.439
550.39
550.341
550.291
550.242
550.191
550.14
550.089
550.038
549.986
549.934
549.881
549.828
549.775
549.721
549.667
549.612
549.557
549.5
549.441
549.379
549.315
549.248
549.176
549.101
549.019
548.932
548.838
548.737
548.628
548.51
548.385
548.251
548.111
547.964
547.813
547.658
547.5
547.341
547.18
547.02
546.861
546.703
546.549
546.396
546.247
546.099
545.954
545.811
545.67
545.529
545.388
545.248
545.109
544.972
544.837
544.704
544.573
544.443
544.316
544.19
544.066
543.944
543.822
543.703
543.584
543.467
543.351
543.236
543.121
543.008
542.895
542.782
542.671
542.56
542.449
542.339
542.229
542.119
542.01
541.901
541.792
541.683
541.575
541.467
541.358
541.25
541.143
541.035
540.927
540.819
540.711
540.604
552.494
552.384
552.276
552.17
552.068
551.968
551.872
551.779
551.689
551.602
551.516
551.433
551.353
551.275
551.199
551.126
551.056
550.988
550.924
550.862
550.802
550.745
550.69
550.637
550.585
550.535
550.485
550.436
550.386
550.336
550.286
550.236
550.185
550.133
550.082
550.029
549.977
549.924
549.871
549.818
549.764
549.71
549.655
549.601
549.545
549.487
549.428
549.367
549.303
549.236
549.165
549.09
549.009
548.923
548.83
548.729
548.622
548.506
548.382
548.25
548.111
547.966
547.815
547.66
547.502
547.343
547.184
547.025
546.867
546.71
546.554
546.402
546.252
546.104
545.959
545.816
545.674
545.532
545.39
545.248
545.108
544.971
544.835
544.702
544.571
544.441
544.314
544.188
544.064
543.942
543.821
543.701
543.583
543.466
543.35
543.234
543.12
543.007
542.894
542.782
542.67
542.559
542.448
542.338
542.228
542.118
542.009
541.9
541.791
541.683
541.575
541.466
541.358
541.25
541.142
541.035
540.927
540.819
540.711
540.604
552.495
552.385
552.277
552.171
552.069
551.969
551.873
551.779
551.688
551.6
551.514
551.43
551.348
551.27
551.194
551.121
551.05
550.983
550.918
550.856
550.797
550.74
550.685
550.632
550.58
550.53
550.48
550.43
550.38
550.329
550.279
550.227
550.175
550.123
550.07
550.017
549.964
549.91
549.857
549.803
549.748
549.694
549.638
549.583
549.527
549.469
549.41
549.349
549.285
549.219
549.148
549.074
548.994
548.908
548.816
548.717
548.611
548.497
548.375
548.245
548.107
547.963
547.814
547.66
547.503
547.345
547.187
547.028
546.87
546.713
546.558
546.406
546.256
546.108
545.963
545.819
545.676
545.533
545.39
545.247
545.107
544.968
544.833
544.699
544.568
544.439
544.311
544.186
544.062
543.94
543.819
543.699
543.581
543.464
543.348
543.233
543.119
543.005
542.892
542.78
542.669
542.558
542.447
542.337
542.227
542.118
542.009
541.9
541.791
541.682
541.574
541.466
541.358
541.25
541.142
541.034
540.927
540.819
540.711
540.604
552.495
552.386
552.278
552.173
552.07
551.97
551.873
551.779
551.687
551.598
551.51
551.425
551.343
551.264
551.188
551.114
551.044
550.976
550.912
550.85
550.791
550.734
550.68
550.627
550.575
550.524
550.474
550.423
550.372
550.321
550.269
550.216
550.163
550.11
550.056
550.001
549.947
549.892
549.838
549.783
549.728
549.672
549.616
549.56
549.503
549.445
549.386
549.325
549.261
549.195
549.125
549.051
548.972
548.888
548.797
548.699
548.595
548.482
548.362
548.234
548.099
547.958
547.81
547.658
547.502
547.345
547.187
547.029
546.871
546.715
546.56
546.408
546.258
546.11
545.964
545.819
545.675
545.531
545.388
545.244
545.103
544.965
544.829
544.695
544.564
544.435
544.308
544.182
544.059
543.936
543.816
543.696
543.578
543.461
543.346
543.231
543.117
543.003
542.891
542.779
542.667
542.556
542.446
542.336
542.226
542.117
542.008
541.899
541.79
541.682
541.574
541.465
541.357
541.25
541.142
541.034
540.926
540.819
540.711
540.604
552.495
552.387
552.279
552.174
552.071
551.971
551.874
551.779
551.686
551.596
551.507
551.422
551.339
551.259
551.182
551.108
551.038
550.971
550.906
550.845
550.786
550.73
550.676
550.622
550.57
550.519
550.468
550.416
550.364
550.311
550.257
550.203
550.148
550.093
550.038
549.982
549.926
549.87
549.814
549.758
549.702
549.645
549.588
549.531
549.473
549.415
549.355
549.294
549.231
549.164
549.095
549.022
548.944
548.861
548.772
548.676
548.573
548.463
548.345
548.219
548.087
547.947
547.802
547.651
547.497
547.341
547.184
547.026
546.869
546.713
546.559
546.407
546.257
546.108
545.962
545.816
545.672
545.528
545.384
545.24
545.099
544.96
544.824
544.691
544.559
544.43
544.303
544.178
544.055
543.933
543.812
543.693
543.575
543.458
543.343
543.228
543.114
543.001
542.888
542.777
542.665
542.555
542.444
542.334
542.225
542.116
542.007
541.898
541.789
541.681
541.573
541.465
541.357
541.249
541.141
541.034
540.926
540.819
540.711
540.604
552.496
552.387
552.281
552.176
552.073
551.973
551.875
551.779
551.686
551.594
551.505
551.419
551.335
551.255
551.178
551.104
551.034
550.967
550.903
550.843
550.784
550.728
550.674
550.62
550.567
550.515
550.462
550.409
550.355
550.3
550.245
550.189
550.132
550.075
550.018
549.96
549.902
549.845
549.787
549.729
549.671
549.613
549.554
549.496
549.438
549.379
549.318
549.257
549.194
549.128
549.059
548.986
548.91
548.828
548.741
548.647
548.546
548.438
548.322
548.199
548.069
547.932
547.789
547.641
547.49
547.335
547.178
547.021
546.865
546.709
546.555
546.403
546.253
546.104
545.957
545.811
545.666
545.521
545.377
545.234
545.092
544.954
544.818
544.685
544.554
544.425
544.298
544.173
544.05
543.928
543.808
543.689
543.571
543.455
543.339
543.225
543.111
542.998
542.886
542.774
542.663
542.552
542.442
542.333
542.223
542.114
542.005
541.897
541.788
541.68
541.572
541.464
541.356
541.249
541.141
541.033
540.926
540.818
540.711
540.604
552.496
552.388
552.282
552.177
552.075
551.975
551.877
551.781
551.686
551.594
551.504
551.418
551.334
551.254
551.177
551.103
551.034
550.967
550.904
550.844
550.786
550.73
550.675
550.62
550.566
550.512
550.458
550.403
550.346
550.289
550.231
550.173
550.114
550.055
549.995
549.936
549.876
549.816
549.756
549.696
549.636
549.577
549.517
549.457
549.397
549.337
549.276
549.214
549.151
549.085
549.016
548.945
548.869
548.789
548.703
548.611
548.513
548.407
548.294
548.174
548.047
547.912
547.772
547.627
547.477
547.324
547.168
547.013
546.857
546.702
546.548
546.396
546.245
546.096
545.949
545.802
545.656
545.511
545.367
545.225
545.084
544.946
544.811
544.678
544.547
544.419
544.292
544.167
544.044
543.923
543.803
543.684
543.567
543.45
543.335
543.221
543.107
542.995
542.883
542.771
542.66
542.55
542.44
542.331
542.221
542.112
542.004
541.895
541.787
541.679
541.571
541.463
541.355
541.248
541.14
541.033
540.926
540.818
540.711
540.604
552.496
552.389
552.284
552.18
552.077
551.977
551.879
551.782
551.688
551.595
551.505
551.419
551.335
551.255
551.178
551.106
551.037
550.972
550.91
550.85
550.792
550.736
550.68
550.624
550.568
550.512
550.455
550.397
550.338
550.279
550.218
550.157
550.095
550.033
549.971
549.909
549.846
549.784
549.722
549.66
549.598
549.537
549.475
549.414
549.353
549.291
549.229
549.166
549.102
549.036
548.968
548.897
548.823
548.744
548.66
548.57
548.474
548.371
548.261
548.144
548.019
547.888
547.751
547.608
547.461
547.309
547.156
547.002
546.847
546.692
546.538
546.386
546.235
546.086
545.938
545.792
545.646
545.502
545.358
545.216
545.075
544.937
544.803
544.67
544.54
544.412
544.286
544.161
544.038
543.917
543.797
543.679
543.562
543.446
543.331
543.217
543.104
542.991
542.879
542.768
542.658
542.547
542.438
542.328
542.219
542.11
542.002
541.894
541.786
541.678
541.57
541.462
541.355
541.247
541.14
541.032
540.925
540.818
540.711
540.604
552.497
552.391
552.286
552.182
552.08
551.98
551.882
551.785
551.69
551.598
551.508
551.422
551.338
551.259
551.184
551.112
551.045
550.981
550.919
550.86
550.802
550.745
550.689
550.631
550.573
550.515
550.454
550.393
550.331
550.268
550.205
550.141
550.077
550.012
549.947
549.881
549.816
549.751
549.686
549.621
549.557
549.493
549.43
549.367
549.304
549.241
549.178
549.114
549.05
548.983
548.915
548.845
548.771
548.693
548.612
548.524
548.431
548.33
548.223
548.109
547.987
547.859
547.725
547.586
547.441
547.293
547.141
546.988
546.834
546.679
546.526
546.373
546.222
546.072
545.924
545.777
545.632
545.488
545.346
545.204
545.063
544.928
544.794
544.662
544.533
544.405
544.279
544.154
544.032
543.911
543.791
543.673
543.556
543.44
543.326
543.212
543.099
542.987
542.876
542.765
542.654
542.544
542.435
542.326
542.217
542.108
542
541.892
541.784
541.676
541.569
541.461
541.354
541.246
541.139
541.032
540.925
540.818
540.711
540.604
552.497
552.392
552.288
552.185
552.084
551.984
551.885
551.789
551.694
551.602
551.513
551.427
551.345
551.267
551.193
551.123
551.057
550.994
550.934
550.875
550.817
550.759
550.701
550.642
550.581
550.519
550.455
550.39
550.325
550.259
550.192
550.125
550.058
549.99
549.922
549.853
549.785
549.717
549.648
549.581
549.515
549.448
549.383
549.318
549.253
549.189
549.124
549.059
548.993
548.927
548.859
548.788
548.715
548.639
548.558
548.473
548.382
548.284
548.18
548.069
547.951
547.826
547.695
547.559
547.417
547.272
547.123
546.971
546.818
546.664
546.511
546.357
546.206
546.055
545.906
545.759
545.614
545.471
545.331
545.193
545.054
544.919
544.785
544.654
544.524
544.397
544.271
544.147
544.025
543.904
543.785
543.667
543.55
543.435
543.32
543.207
543.094
542.983
542.871
542.761
542.651
542.541
542.432
542.323
542.214
542.106
541.998
541.89
541.782
541.675
541.567
541.46
541.353
541.246
541.138
541.031
540.924
540.817
540.71
540.603
552.498
552.394
552.291
552.188
552.087
551.988
551.89
551.794
551.7
551.609
551.521
551.436
551.355
551.278
551.206
551.138
551.074
551.012
550.952
550.894
550.836
550.777
550.716
550.654
550.591
550.525
550.457
550.388
550.319
550.25
550.18
550.11
550.039
549.968
549.897
549.826
549.754
549.682
549.611
549.541
549.471
549.402
549.334
549.266
549.2
549.134
549.068
549.001
548.935
548.867
548.799
548.728
548.656
548.58
548.501
548.418
548.329
548.235
548.133
548.025
547.91
547.789
547.661
547.528
547.39
547.247
547.1
546.951
546.8
546.648
546.494
546.341
546.188
546.036
545.885
545.737
545.592
545.451
545.313
545.177
545.042
544.908
544.776
544.645
544.516
544.388
544.263
544.139
544.017
543.896
543.777
543.66
543.544
543.429
543.315
543.201
543.089
542.978
542.867
542.757
542.647
542.538
542.429
542.32
542.212
542.104
541.996
541.888
541.781
541.673
541.566
541.459
541.352
541.245
541.138
541.031
540.924
540.817
540.71
540.603
552.498
552.395
552.293
552.191
552.091
551.992
551.895
551.8
551.707
551.617
551.531
551.448
551.369
551.294
551.224
551.158
551.095
551.034
550.975
550.916
550.857
550.797
550.734
550.669
550.602
550.532
550.46
550.388
550.315
550.242
550.169
550.096
550.022
549.948
549.873
549.799
549.724
549.649
549.574
549.5
549.427
549.355
549.284
549.214
549.145
549.077
549.009
548.942
548.874
548.805
548.736
548.665
548.593
548.518
548.44
548.359
548.272
548.18
548.082
547.977
547.865
547.748
547.624
547.494
547.359
547.219
547.076
546.929
546.781
546.63
546.478
546.325
546.172
546.019
545.867
545.719
545.574
545.433
545.296
545.163
545.031
544.898
544.767
544.636
544.507
544.38
544.254
544.13
544.008
543.888
543.77
543.652
543.536
543.422
543.308
543.195
543.084
542.973
542.862
542.752
542.643
542.534
542.425
542.317
542.209
542.101
541.993
541.886
541.779
541.671
541.564
541.457
541.35
541.244
541.137
541.03
540.923
540.817
540.71
540.603
552.499
552.397
552.296
552.195
552.096
551.998
551.902
551.808
551.717
551.629
551.544
551.463
551.386
551.314
551.246
551.182
551.12
551.06
551.001
550.942
550.882
550.819
550.754
550.685
550.614
550.54
550.464
550.388
550.311
550.235
550.159
550.083
550.006
549.929
549.851
549.773
549.695
549.617
549.538
549.461
549.384
549.309
549.235
549.162
549.091
549.02
548.95
548.881
548.812
548.742
548.672
548.601
548.528
548.454
548.377
548.297
548.213
548.123
548.028
547.926
547.818
547.704
547.583
547.457
547.326
547.189
547.049
546.906
546.76
546.612
546.462
546.311
546.16
546.008
545.858
545.71
545.565
545.424
545.287
545.154
545.024
544.89
544.758
544.627
544.498
544.37
544.245
544.121
544
543.88
543.761
543.644
543.529
543.415
543.301
543.189
543.078
542.967
542.857
542.747
542.638
542.53
542.421
542.313
542.206
542.098
541.991
541.884
541.777
541.67
541.563
541.456
541.349
541.243
541.136
541.029
540.923
540.816
540.71
540.603
552.499
552.399
552.298
552.199
552.101
552.005
551.91
551.818
551.729
551.643
551.56
551.482
551.408
551.338
551.272
551.21
551.149
551.09
551.031
550.971
550.908
550.843
550.774
550.702
550.627
550.549
550.469
550.389
550.31
550.23
550.151
550.071
549.992
549.911
549.831
549.75
549.668
549.586
549.504
549.423
549.343
549.265
549.187
549.111
549.037
548.963
548.891
548.82
548.749
548.678
548.607
548.535
548.463
548.389
548.313
548.234
548.151
548.064
547.971
547.873
547.768
547.657
547.541
547.418
547.29
547.158
547.021
546.881
546.739
546.594
546.447
546.299
546.15
546.002
545.854
545.708
545.565
545.424
545.286
545.151
545.016
544.882
544.749
544.617
544.488
544.36
544.235
544.111
543.99
543.87
543.752
543.636
543.521
543.407
543.294
543.182
543.071
542.961
542.851
542.742
542.634
542.526
542.418
542.31
542.203
542.095
541.988
541.881
541.775
541.668
541.561
541.455
541.348
541.242
541.135
541.029
540.922
540.816
540.71
540.603
552.5
552.401
552.302
552.204
552.108
552.013
551.921
551.83
551.743
551.66
551.58
551.504
551.433
551.365
551.302
551.241
551.181
551.122
551.063
551.002
550.937
550.869
550.796
550.72
550.641
550.559
550.476
550.393
550.31
550.228
550.145
550.063
549.98
549.896
549.812
549.728
549.643
549.557
549.472
549.387
549.304
549.221
549.141
549.062
548.984
548.907
548.833
548.759
548.686
548.614
548.542
548.47
548.397
548.323
548.247
548.169
548.088
548.003
547.913
547.817
547.716
547.609
547.496
547.377
547.253
547.125
546.992
546.856
546.717
546.576
546.432
546.287
546.142
545.996
545.851
545.707
545.565
545.424
545.285
545.147
545.009
544.874
544.74
544.607
544.477
544.35
544.224
544.101
543.98
543.86
543.743
543.626
543.512
543.399
543.286
543.175
543.065
542.955
542.846
542.737
542.629
542.521
542.414
542.306
542.199
542.092
541.986
541.879
541.772
541.666
541.559
541.453
541.347
541.24
541.134
541.028
540.922
540.816
540.709
540.603
552.501
552.403
552.306
552.21
552.116
552.023
551.933
551.845
551.761
551.68
551.603
551.53
551.461
551.396
551.334
551.274
551.215
551.156
551.096
551.034
550.967
550.895
550.82
550.74
550.658
550.573
550.486
550.4
550.314
550.229
550.143
550.057
549.971
549.884
549.796
549.708
549.62
549.531
549.442
549.354
549.267
549.181
549.097
549.014
548.933
548.853
548.776
548.7
548.625
548.551
548.478
548.404
548.331
548.257
548.182
548.104
548.025
547.941
547.853
547.761
547.662
547.559
547.45
547.335
547.215
547.091
546.962
546.83
546.695
546.557
546.417
546.275
546.133
545.989
545.846
545.703
545.561
545.42
545.28
545.14
544.999
544.864
544.73
544.597
544.466
544.338
544.213
544.089
543.968
543.849
543.732
543.616
543.502
543.39
543.278
543.167
543.057
542.948
542.84
542.732
542.624
542.517
542.409
542.303
542.196
542.089
541.983
541.876
541.77
541.664
541.558
541.452
541.345
541.239
541.133
541.027
540.921
540.815
540.709
540.603
552.502
552.406
552.311
552.218
552.126
552.035
551.947
551.863
551.781
551.703
551.629
551.558
551.492
551.429
551.368
551.31
551.251
551.192
551.131
551.066
550.997
550.923
550.844
550.762
550.677
550.59
550.501
550.412
550.323
550.234
550.145
550.056
549.966
549.875
549.784
549.692
549.6
549.507
549.415
549.323
549.232
549.143
549.055
548.969
548.885
548.803
548.722
548.643
548.566
548.49
548.415
548.341
548.266
548.192
548.117
548.04
547.961
547.88
547.794
547.704
547.609
547.509
547.403
547.293
547.177
547.057
546.932
546.804
546.672
546.538
546.402
546.263
546.123
545.981
545.84
545.698
545.556
545.415
545.274
545.134
544.993
544.855
544.719
544.585
544.454
544.325
544.2
544.077
543.956
543.837
543.721
543.606
543.492
543.38
543.269
543.159
543.05
542.941
542.833
542.726
542.619
542.512
542.405
542.299
542.192
542.086
541.98
541.874
541.768
541.662
541.556
541.45
541.344
541.238
541.132
541.026
540.921
540.815
540.709
540.603
552.503
552.409
552.317
552.225
552.136
552.049
551.964
551.882
551.804
551.729
551.657
551.59
551.525
551.464
551.405
551.347
551.289
551.229
551.166
551.1
551.028
550.951
550.87
550.787
550.7
550.611
550.52
550.429
550.337
550.244
550.152
550.059
549.966
549.871
549.775
549.679
549.582
549.486
549.39
549.295
549.201
549.108
549.017
548.927
548.84
548.755
548.671
548.589
548.51
548.432
548.355
548.279
548.204
548.13
548.054
547.977
547.899
547.819
547.735
547.647
547.555
547.458
547.356
547.25
547.138
547.022
546.901
546.777
546.649
546.519
546.385
546.25
546.112
545.973
545.832
545.691
545.55
545.408
545.267
545.126
544.984
544.844
544.706
544.572
544.44
544.311
544.186
544.063
543.942
543.824
543.708
543.594
543.481
543.37
543.26
543.151
543.042
542.934
542.827
542.72
542.613
542.507
542.401
542.295
542.189
542.083
541.977
541.871
541.766
541.66
541.554
541.449
541.343
541.237
541.131
541.026
540.92
540.814
540.709
540.603
552.504
552.413
552.323
552.235
552.148
552.064
551.982
551.904
551.829
551.757
551.688
551.623
551.561
551.501
551.444
551.386
551.328
551.267
551.203
551.134
551.061
550.983
550.901
550.816
550.728
550.638
550.545
550.451
550.357
550.261
550.165
550.068
549.971
549.872
549.771
549.67
549.569
549.469
549.37
549.271
549.174
549.078
548.983
548.89
548.8
548.711
548.624
548.54
548.458
548.378
548.299
548.222
548.146
548.07
547.994
547.917
547.84
547.76
547.678
547.592
547.502
547.408
547.309
547.206
547.099
546.987
546.87
546.75
546.626
546.499
546.369
546.236
546.1
545.963
545.824
545.684
545.543
545.401
545.259
545.116
544.973
544.831
544.692
544.557
544.425
544.296
544.17
544.047
543.927
543.81
543.695
543.582
543.47
543.359
543.25
543.142
543.034
542.927
542.82
542.714
542.608
542.502
542.396
542.291
542.185
542.08
541.974
541.869
541.763
541.658
541.553
541.447
541.342
541.236
541.131
541.025
540.919
540.814
540.708
540.603
552.506
552.418
552.331
552.245
552.162
552.081
552.003
551.928
551.856
551.787
551.721
551.659
551.599
551.541
551.483
551.426
551.367
551.305
551.239
551.169
551.095
551.016
550.934
550.849
550.761
550.67
550.577
550.481
550.384
550.284
550.184
550.083
549.981
549.879
549.773
549.667
549.561
549.456
549.353
549.251
549.151
549.052
548.954
548.858
548.764
548.673
548.583
548.496
548.411
548.329
548.248
548.169
548.092
548.015
547.938
547.861
547.783
547.704
547.622
547.537
547.449
547.358
547.262
547.163
547.059
546.951
546.838
546.722
546.602
546.478
546.351
546.221
546.088
545.953
545.816
545.677
545.535
545.393
545.25
545.106
544.96
544.814
544.676
544.54
544.407
544.278
544.152
544.03
543.911
543.794
543.68
543.568
543.457
543.348
543.24
543.132
543.026
542.919
542.813
542.708
542.602
542.497
542.392
542.287
542.182
542.077
541.971
541.866
541.761
541.656
541.551
541.446
541.34
541.235
541.13
541.024
540.919
540.814
540.708
540.603
552.507
552.422
552.339
552.257
552.177
552.099
552.025
551.953
551.885
551.819
551.756
551.696
551.638
551.58
551.523
551.465
551.405
551.342
551.275
551.205
551.13
551.051
550.969
550.884
550.797
550.707
550.614
550.518
550.418
550.315
550.209
550.103
549.998
549.891
549.781
549.669
549.558
549.449
549.342
549.237
549.134
549.032
548.931
548.832
548.735
548.641
548.548
548.459
548.372
548.287
548.204
548.123
548.044
547.966
547.888
547.809
547.73
547.65
547.568
547.484
547.397
547.308
547.215
547.118
547.018
546.914
546.805
546.692
546.576
546.456
546.332
546.205
546.075
545.942
545.807
545.668
545.528
545.385
545.24
545.094
544.946
544.789
544.657
544.521
544.388
544.258
544.132
544.011
543.892
543.777
543.664
543.553
543.444
543.336
543.229
543.123
543.017
542.912
542.806
542.702
542.597
542.492
542.388
542.283
542.178
542.073
541.969
541.864
541.759
541.654
541.549
541.444
541.339
541.234
541.129
541.024
540.918
540.813
540.708
540.603
552.509
552.427
552.347
552.269
552.192
552.119
552.048
551.979
551.914
551.852
551.791
551.733
551.676
551.619
551.562
551.504
551.443
551.379
551.312
551.24
551.165
551.086
551.005
550.922
550.837
550.749
550.657
550.56
550.458
550.351
550.241
550.13
550.02
549.909
549.794
549.678
549.562
549.449
549.338
549.229
549.123
549.019
548.915
548.813
548.713
548.616
548.521
548.429
548.339
548.252
548.168
548.085
548.004
547.924
547.843
547.763
547.682
547.6
547.517
547.432
547.345
547.256
547.165
547.071
546.974
546.873
546.768
546.659
546.546
546.43
546.311
546.188
546.061
545.931
545.797
545.66
545.519
545.376
545.231
545.084
544.936
544.785
544.641
544.501
544.365
544.235
544.109
543.989
543.872
543.758
543.647
543.538
543.43
543.323
543.218
543.113
543.008
542.904
542.8
542.695
542.591
542.487
542.383
542.279
542.175
542.07
541.966
541.862
541.757
541.652
541.548
541.443
541.338
541.233
541.128
541.023
540.918
540.813
540.708
540.603
552.511
552.433
552.356
552.281
552.208
552.138
552.071
552.006
551.944
551.884
551.826
551.769
551.713
551.656
551.599
551.541
551.479
551.415
551.347
551.276
551.201
551.123
551.044
550.963
550.88
550.794
550.702
550.605
550.501
550.391
550.277
550.162
550.047
549.931
549.813
549.694
549.575
549.457
549.342
549.229
549.12
549.012
548.906
548.802
548.7
548.6
548.503
548.408
548.316
548.226
548.14
548.055
547.972
547.889
547.806
547.723
547.639
547.554
547.468
547.381
547.292
547.203
547.112
547.02
546.926
546.828
546.725
546.619
546.51
546.399
546.284
546.166
546.044
545.917
545.785
545.649
545.509
545.365
545.219
545.071
544.921
544.77
544.62
544.476
544.338
544.207
544.083
543.964
543.849
543.737
543.628
543.521
543.415
543.31
543.206
543.103
542.999
542.896
542.793
542.689
542.586
542.483
542.379
542.275
542.172
542.068
541.964
541.859
541.755
541.651
541.546
541.441
541.337
541.232
541.127
541.022
540.917
540.812
540.707
540.602
552.513
552.438
552.365
552.293
552.224
552.158
552.093
552.032
551.973
551.915
551.858
551.802
551.747
551.691
551.634
551.575
551.514
551.45
551.383
551.312
551.237
551.161
551.083
551.004
550.923
550.839
550.748
550.649
550.543
550.43
550.313
550.194
550.076
549.957
549.835
549.715
549.595
549.474
549.354
549.237
549.123
549.013
548.905
548.8
548.697
548.595
548.495
548.397
548.302
548.21
548.122
548.036
547.951
547.864
547.777
547.689
547.601
547.512
547.421
547.33
547.238
547.147
547.056
546.966
546.874
546.778
546.678
546.574
546.467
546.359
546.249
546.135
546.016
545.894
545.765
545.631
545.492
545.348
545.202
545.052
544.9
544.746
544.591
544.445
544.305
544.175
544.052
543.936
543.823
543.715
543.608
543.503
543.4
543.297
543.195
543.092
542.99
542.888
542.786
542.684
542.581
542.478
542.375
542.272
542.169
542.065
541.961
541.857
541.753
541.649
541.545
541.44
541.336
541.231
541.127
541.022
540.917
540.812
540.707
540.602
552.514
552.443
552.373
552.305
552.239
552.176
552.115
552.056
551.998
551.942
551.886
551.831
551.776
551.721
551.665
551.607
551.547
551.484
551.417
551.348
551.275
551.201
551.125
551.047
550.968
550.883
550.791
550.69
550.581
550.465
550.345
550.225
550.105
549.984
549.86
549.74
549.62
549.497
549.373
549.251
549.133
549.021
548.914
548.812
548.71
548.605
548.502
548.402
548.303
548.206
548.117
548.03
547.942
547.853
547.76
547.665
547.569
547.472
547.375
547.279
547.183
547.09
547.003
546.916
546.827
546.732
546.63
546.528
546.42
546.306
546.195
546.078
545.95
545.837
545.714
545.588
545.454
545.318
545.175
545.027
544.872
544.715
544.544
544.404
544.264
544.136
544.016
543.904
543.795
543.69
543.587
543.485
543.384
543.283
543.183
543.082
542.982
542.881
542.78
542.678
542.576
542.474
542.371
542.269
542.166
542.062
541.959
541.855
541.752
541.648
541.543
541.439
541.335
541.23
541.126
541.021
540.917
540.812
540.707
540.602
552.516
552.447
552.38
552.315
552.252
552.191
552.132
552.075
552.018
551.962
551.906
551.851
551.797
551.743
551.689
551.632
551.574
551.513
551.45
551.384
551.315
551.243
551.169
551.093
551.017
550.932
550.836
550.732
550.617
550.496
550.376
550.257
550.136
550.013
549.89
549.769
549.647
549.52
549.392
549.269
549.151
549.037
548.935
548.839
548.739
548.626
548.523
548.428
548.323
548.217
548.125
548.037
547.948
547.861
547.764
547.656
547.542
547.427
547.321
547.218
547.122
547.037
546.969
546.892
546.808
546.712
546.592
546.506
546.385
546.244
546.118
545.956
545.769
545.678
545.555
545.466
545.356
545.269
545.154
545.019
544.858
544.693
544.517
544.357
544.21
544.088
543.975
543.868
543.765
543.664
543.565
543.466
543.368
543.27
543.172
543.073
542.974
542.874
542.774
542.673
542.572
542.47
542.368
542.266
542.163
542.06
541.957
541.854
541.75
541.646
541.542
541.438
541.334
541.23
541.125
541.021
540.916
540.812
540.707
540.602
552.517
552.451
552.386
552.323
552.262
552.203
552.144
552.087
552.028
551.97
551.914
551.861
551.808
551.756
551.703
551.648
551.593
551.538
551.48
551.418
551.353
551.283
551.213
551.145
551.077
550.995
550.897
550.786
550.659
550.532
550.419
550.304
550.176
550.046
549.927
549.8
549.665
549.53
549.398
549.289
549.18
549.06
548.962
548.872
548.764
548.625
548.544
548.483
548.375
548.246
548.151
548.049
547.955
547.897
547.812
547.672
547.53
547.365
547.246
547.13
547.03
546.983
547.002
546.919
546.844
546.752
546.607
546.555
546.425
546.214
545.95
545.7
545.469
545.285
545.04
545.083
544.972
545.113
545.102
545.054
544.924
544.729
544.478
544.261
544.129
544.03
543.928
543.829
543.733
543.637
543.542
543.447
543.353
543.257
543.161
543.064
542.966
542.868
542.768
542.668
542.568
542.467
542.365
542.263
542.161
542.058
541.955
541.852
541.749
541.645
541.541
541.437
541.333
541.229
541.125
541.02
540.916
540.811
540.707
540.602
552.517
552.453
552.39
552.328
552.267
552.208
552.149
552.088
552.024
551.962
551.908
551.859
551.809
551.758
551.704
551.649
551.602
551.559
551.507
551.444
551.374
551.301
551.239
551.195
551.159
551.092
550.997
550.881
550.723
550.593
550.518
550.403
550.235
550.091
549.991
549.811
549.631
549.493
549.362
549.322
549.247
549.1
549.017
548.91
548.792
548.636
548.587
548.569
548.451
548.313
548.173
548.022
547.939
547.898
547.865
547.697
547.507
547.305
547.126
547.019
546.946
546.88
546.997
546.97
546.931
546.875
546.763
546.635
546.453
546.206
545.904
545.689
545.458
545.292
545.152
545.136
545.042
545.052
545.05
544.985
544.825
544.681
544.455
544.12
544.059
543.975
543.88
543.789
543.7
543.61
543.519
543.429
543.338
543.245
543.151
543.056
542.96
542.862
542.764
542.665
542.565
542.464
542.363
542.261
542.159
542.057
541.954
541.851
541.748
541.644
541.541
541.437
541.333
541.229
541.124
541.02
540.916
540.811
540.707
540.602
552.517
552.453
552.39
552.329
552.269
552.211
552.147
552.077
552.001
551.933
551.893
551.862
551.809
551.744
551.68
551.63
551.614
551.604
551.546
551.451
551.343
551.244
551.196
551.213
551.266
551.235
551.171
551.055
550.804
550.708
550.787
550.614
550.3
550.156
550.005
549.762
549.553
549.46
549.341
549.277
549.301
549.16
548.962
548.815
548.763
548.612
548.568
548.692
548.541
548.455
548.183
548.01
547.936
547.805
547.893
547.69
547.533
547.36
547.062
546.902
546.811
546.805
546.966
546.925
546.954
546.887
546.788
546.574
546.345
546.132
545.95
545.766
545.608
545.453
545.355
545.273
545.169
545.095
545.028
544.929
544.793
544.678
544.394
544.097
544.023
543.91
543.827
543.748
543.668
543.583
543.497
543.412
543.324
543.235
543.143
543.05
542.955
542.858
542.76
542.662
542.562
542.462
542.361
542.26
542.158
542.056
541.953
541.85
541.747
541.644
541.54
541.436
541.332
541.228
541.124
541.02
540.916
540.811
540.707
540.602
552.516
552.451
552.388
552.328
552.271
552.222
552.14
552.046
551.945
551.876
551.896
551.914
551.812
551.684
551.587
551.586
551.701
551.774
551.637
551.406
551.196
551.015
551.011
551.167
551.4
551.429
551.389
551.345
551.089
550.935
551.003
550.78
550.295
550.159
549.979
549.49
549.296
549.371
549.308
549.319
549.409
549.2
548.922
548.715
548.717
548.505
548.549
548.701
548.518
548.442
548.148
548.113
548.078
547.777
547.802
547.586
547.396
547.291
547.065
546.909
546.837
546.818
546.869
546.847
546.849
546.755
546.637
546.468
546.267
546.103
545.976
545.846
545.726
545.613
545.5
545.383
545.252
545.13
545.011
544.873
544.665
544.355
544.124
544.022
543.96
543.876
543.774
543.71
543.641
543.558
543.475
543.396
543.314
543.227
543.137
543.045
542.951
542.855
542.758
542.66
542.56
542.46
542.36
542.259
542.157
542.055
541.952
541.85
541.746
541.643
541.54
541.436
541.332
541.228
541.124
541.02
540.915