/*--------------------------------*- C++ -*----------------------------------*\
  =========                 |
  \\      /  F ield         | OpenFOAM: The Open Source CFD Toolbox
   \\    /   O peration     | Website:  https://openfoam.org
    \\  /    A nd           | Version:  6
     \\/     M anipulation  |
\*---------------------------------------------------------------------------*/
FoamFile
{
    version     2.0;
    format      ascii;
    class       volVectorField;
    location    "1900";
    object      U;
}
// * * * * * * * * * * * * * * * * * * * * * * * * * * * * * * * * * * * * * //

dimensions      [0 1 -1 0 0 0 0];

internalField   nonuniform List<vector> 
4800
(
(6.15625e-05 0 -0.000139823)
(-8.62846e-05 0 -0.000156584)
(-0.000242439 0 8.47488e-05)
(-0.000281634 0 -7.57608e-05)
(-0.000314344 0 9.81706e-06)
(-0.000322967 0 -2.8448e-05)
(-0.000277048 0 -3.99551e-05)
(-0.000256577 0 -3.57505e-05)
(-0.000261019 0 -1.8248e-05)
(-0.000243695 0 -2.63057e-05)
(-0.000228115 0 -3.66847e-05)
(-0.000226889 0 -3.29957e-05)
(-0.000240156 0 -2.72674e-05)
(-0.000206596 0 0.000102308)
(-0.000198957 0 -8.74688e-05)
(-0.000226272 0 -1.1634e-05)
(-0.000273037 0 -3.5478e-06)
(-0.000283337 0 -3.09156e-05)
(-0.000285733 0 -2.99521e-05)
(-0.000275641 0 -3.03587e-05)
(-0.000269464 0 -2.41091e-05)
(-0.000249734 0 -3.01643e-05)
(-0.000218382 0 -4.46981e-05)
(-0.000182681 0 -4.03695e-05)
(-0.000115493 0 -4.5163e-05)
(-6.61043e-05 0 -2.10454e-05)
(-8.85862e-06 0 -2.84808e-05)
(4.62929e-05 0 -4.03269e-05)
(9.33473e-05 0 -0.000129674)
(0.000190846 0 -4.19603e-05)
(0.00022939 0 -4.20481e-05)
(0.000274873 0 -3.34994e-05)
(0.000324465 0 2.02806e-05)
(0.000364602 0 -1.94541e-05)
(0.000392084 0 -3.37845e-05)
(0.000414493 0 -4.36816e-05)
(0.00043616 0 -3.63149e-05)
(0.000465451 0 -5.21417e-05)
(0.000506097 0 -5.94091e-05)
(0.000520826 0 -1.50726e-05)
(0.000521733 0 -3.18304e-05)
(0.000547559 0 -5.10699e-05)
(0.000618644 0 -8.0595e-05)
(0.000724005 0 -7.08405e-05)
(0.000772578 0 -3.31283e-05)
(0.000770989 0 -2.697e-05)
(0.00077368 0 -2.04961e-05)
(0.000778905 0 -4.25862e-05)
(0.000785166 0 -4.87133e-05)
(0.000794304 0 -6.60148e-05)
(0.000817197 0 -4.04051e-05)
(0.000822171 0 -1.33689e-05)
(0.000811003 0 2.96042e-05)
(0.000782804 0 -3.52186e-05)
(0.000741917 0 4.80304e-06)
(0.000683447 0 7.28145e-05)
(0.000615456 0 -7.5905e-05)
(0.000506148 0 6.2995e-05)
(0.000358167 0 7.61813e-05)
(0.000170965 0 -0.000190487)
(0.000179811 0 -0.000137582)
(7.99609e-05 0 1.40547e-05)
(2.76813e-05 0 2.41944e-05)
(3.35965e-05 0 2.18686e-05)
(1.6407e-05 0 3.749e-05)
(-3.06956e-05 0 3.67699e-05)
(-0.00011809 0 3.00879e-05)
(-0.000184409 0 -3.38794e-05)
(-0.000246193 0 -4.77431e-05)
(-0.000288726 0 -5.15675e-05)
(-0.000302071 0 -6.17419e-05)
(-0.000304778 0 -6.02657e-05)
(-0.000299537 0 -4.77732e-05)
(-0.000293244 0 -3.91107e-05)
(-0.000278303 0 -4.62141e-05)
(-0.000270439 0 -8.47943e-05)
(-0.000262494 0 -0.000230619)
(-0.000406392 0 -0.000160646)
(-0.000535961 0 -0.000173367)
(5.6209e-06 0 -6.60989e-05)
(-5.31056e-13 0 -9.06764e-15)
(-1.88418e-12 0 -3.43146e-15)
(-7.7456e-13 0 -2.69435e-15)
(-7.64428e-13 0 -6.28745e-15)
(-7.45197e-13 0 -1.16326e-14)
(-7.1443e-13 0 -1.75404e-14)
(-6.71712e-13 0 -2.34939e-14)
(-6.1725e-13 0 -2.91875e-14)
(-5.51779e-13 0 -3.44084e-14)
(-4.76426e-13 0 -3.89996e-14)
(-3.92599e-13 0 -4.2837e-14)
(-3.01936e-13 0 -4.58212e-14)
(-2.06254e-13 0 -4.78768e-14)
(-1.07496e-13 0 -4.89545e-14)
(-7.67783e-15 0 -4.90339e-14)
(9.11795e-14 0 -4.81255e-14)
(1.87113e-13 0 -4.62704e-14)
(2.7828e-13 0 -4.35385e-14)
(3.63018e-13 0 -4.00245e-14)
(4.3988e-13 0 -3.58422e-14)
(5.07674e-13 0 -3.11186e-14)
(5.65475e-13 0 -2.59868e-14)
(6.12628e-13 0 -2.05801e-14)
(6.4874e-13 0 -1.50263e-14)
(6.73662e-13 0 -9.44336e-15)
(6.87462e-13 0 -3.93634e-15)
(6.90401e-13 0 1.40453e-15)
(6.82898e-13 0 6.50456e-15)
(6.65503e-13 0 1.13042e-14)
(6.38869e-13 0 1.57583e-14)
(6.03721e-13 0 1.98342e-14)
(5.60838e-13 0 2.35104e-14)
(5.11031e-13 0 2.67743e-14)
(4.5513e-13 0 2.96204e-14)
(3.9397e-13 0 3.20482e-14)
(3.2838e-13 0 3.4061e-14)
(2.59184e-13 0 3.56646e-14)
(1.87189e-13 0 3.68676e-14)
(1.13179e-13 0 3.76848e-14)
(3.78834e-14 0 3.81571e-14)
(-6.1921e-05 0 0.000166431)
(-0.000157406 0 0.000186911)
(-0.00025034 0 0.000115807)
(-0.00027776 0 5.67982e-05)
(-0.000288397 0 5.72144e-05)
(-0.000298563 0 4.5818e-05)
(-0.00026351 0 -0.000143066)
(-0.000230712 0 -4.2389e-05)
(-0.000206251 0 2.29967e-05)
(-0.000181113 0 -2.61062e-05)
(-0.000167578 0 -1.94681e-05)
(-0.000164317 0 -2.0572e-05)
(-0.000184706 0 6.20332e-06)
(-0.000194224 0 3.59299e-05)
(-0.000195281 0 3.01127e-05)
(-0.000223021 0 5.14006e-05)
(-0.00024446 0 5.13561e-05)
(-0.000258205 0 3.46425e-05)
(-0.00026493 0 2.6507e-05)
(-0.000258154 0 -4.28938e-06)
(-0.000246379 0 -1.91363e-05)
(-0.000231298 0 -1.28466e-05)
(-0.000201966 0 -4.0703e-05)
(-0.000161685 0 -5.65786e-05)
(-0.000100462 0 -7.5291e-05)
(-5.67756e-06 0 -0.00012602)
(5.09609e-05 0 -5.40307e-05)
(0.000131256 0 -2.63837e-05)
(0.000104694 0 -0.000165554)
(0.000234229 0 -4.59517e-05)
(0.000265864 0 -6.36906e-05)
(0.000295286 0 -7.56543e-05)
(0.000336519 0 -5.12095e-05)
(0.000370712 0 -7.82297e-05)
(0.000418623 0 -2.88442e-05)
(0.00044921 0 -3.24293e-05)
(0.000470669 0 -2.52748e-05)
(0.000492674 0 -5.09353e-05)
(0.000547151 0 -5.98976e-06)
(0.000568529 0 7.14464e-06)
(0.000560096 0 -2.41502e-05)
(0.000572866 0 -7.32409e-05)
(0.000634478 0 -0.000113314)
(0.000731813 0 -0.000102091)
(0.000784899 0 -2.56741e-05)
(0.000803146 0 2.40196e-06)
(0.000824496 0 3.84956e-07)
(0.000855686 0 8.04035e-06)
(0.000874372 0 5.61532e-06)
(0.000865549 0 2.56841e-06)
(0.000845928 0 2.0384e-05)
(0.000837497 0 3.36701e-05)
(0.000829842 0 2.08283e-05)
(0.000803024 0 8.03348e-05)
(0.000762398 0 9.71999e-05)
(0.000733336 0 2.27959e-05)
(0.000694297 0 0.000127016)
(0.000621328 0 0.000197556)
(0.000526322 0 0.000139097)
(0.000473637 0 9.99984e-05)
(0.00036878 0 0.000166322)
(0.000205747 0 0.000191418)
(0.000220348 0 5.94741e-05)
(0.00018759 0 4.0215e-06)
(9.43856e-05 0 5.95362e-05)
(5.87726e-05 0 0.000101849)
(-1.41977e-05 0 0.000132863)
(-0.000166306 0 6.98907e-05)
(-0.000154626 0 7.23764e-05)
(-0.000151235 0 5.27888e-05)
(-0.000112776 0 3.56686e-05)
(-9.8105e-05 0 3.1208e-05)
(-9.17858e-05 0 1.77436e-05)
(-6.14713e-05 0 2.63785e-05)
(-2.29527e-05 0 -7.2126e-06)
(3.77364e-05 0 7.41111e-05)
(2.59599e-05 0 5.68015e-05)
(0.000380192 0 5.05979e-05)
(-0.000363133 0 -0.000131782)
(6.16017e-06 0 -7.94257e-05)
(-5.15355e-13 0 2.04876e-14)
(-1.87981e-12 0 2.54816e-15)
(-7.78098e-13 0 -3.35306e-15)
(-7.73599e-13 0 -1.66626e-14)
(-7.56364e-13 0 -3.36409e-14)
(-7.26268e-13 0 -5.1829e-14)
(-6.83359e-13 0 -6.99766e-14)
(-6.28164e-13 0 -8.72544e-14)
(-5.61591e-13 0 -1.0307e-13)
(-4.84854e-13 0 -1.16974e-13)
(-3.99421e-13 0 -1.28605e-13)
(-3.06976e-13 0 -1.37666e-13)
(-2.09387e-13 0 -1.43927e-13)
(-1.08653e-13 0 -1.47236e-13)
(-6.84877e-15 0 -1.47526e-13)
(9.39431e-14 0 -1.44826e-13)
(1.917e-13 0 -1.39256e-13)
(2.84526e-13 0 -1.31027e-13)
(3.70714e-13 0 -1.20425e-13)
(4.48786e-13 0 -1.07797e-13)
(5.17529e-13 0 -9.35292e-14)
(5.76013e-13 0 -7.80271e-14)
(6.23589e-13 0 -6.16971e-14)
(6.59877e-13 0 -4.49284e-14)
(6.84752e-13 0 -2.80795e-14)
(6.9831e-13 0 -1.14689e-14)
(7.00841e-13 0 4.63083e-15)
(6.92797e-13 0 1.99946e-14)
(6.74757e-13 0 3.4444e-14)
(6.47399e-13 0 4.78441e-14)
(6.11473e-13 0 6.00988e-14)
(5.67778e-13 0 7.1145e-14)
(5.17141e-13 0 8.09466e-14)
(4.60404e-13 0 8.94887e-14)
(3.9841e-13 0 9.67717e-14)
(3.31997e-13 0 1.02806e-13)
(2.6199e-13 0 1.0761e-13)
(1.89209e-13 0 1.11205e-13)
(1.14469e-13 0 1.13616e-13)
(3.83557e-14 0 1.14885e-13)
(-0.000124562 0 0.000199844)
(-0.000183095 0 0.000206281)
(-0.000228151 0 0.000149238)
(-0.000234363 0 0.000103327)
(-0.000256392 0 1.45516e-05)
(-0.000251344 0 -1.42134e-05)
(-0.00026049 0 -2.20175e-05)
(-0.00024034 0 -6.58629e-05)
(-0.0001855 0 -9.66466e-05)
(-0.000179726 0 -7.66669e-06)
(-0.00015695 0 -1.93058e-05)
(-0.00015583 0 -1.23536e-05)
(-0.000178504 0 5.15547e-06)
(-0.000197872 0 2.18546e-06)
(-0.000212881 0 1.20595e-05)
(-0.000232007 0 6.94104e-05)
(-0.000239077 0 5.42657e-05)
(-0.000235294 0 2.87238e-05)
(-0.000247799 0 8.76219e-06)
(-0.000260148 0 3.06695e-06)
(-0.000261074 0 -2.40569e-05)
(-0.000247504 0 -7.39961e-05)
(-0.000222952 0 -9.24749e-05)
(-0.000163911 0 -0.000130559)
(-0.000102805 0 -0.000158452)
(-6.22469e-05 0 -0.000204661)
(6.48418e-05 0 -0.000124739)
(0.000115621 0 -0.000108891)
(0.000152827 0 -0.000134578)
(0.000201952 0 -0.000144487)
(0.00024213 0 -0.000131126)
(0.000280245 0 -0.000110574)
(0.000325353 0 -6.74319e-05)
(0.000337214 0 -0.000119094)
(0.000388685 0 -3.1259e-05)
(0.000404864 0 -9.95236e-05)
(0.000447204 0 -3.61396e-05)
(0.000443826 0 -0.000158145)
(0.000508062 0 -5.78104e-05)
(0.000564577 0 -3.52858e-05)
(0.000554188 0 -6.34914e-05)
(0.000566812 0 -9.5951e-05)
(0.000621419 0 -0.000195315)
(0.000728413 0 -0.000100844)
(0.000746969 0 -0.000101212)
(0.000763321 0 -7.82822e-05)
(0.000810089 0 -1.59725e-06)
(0.000852336 0 -7.18312e-05)
(0.000859216 0 2.13219e-05)
(0.00086548 0 -1.08098e-05)
(0.000862979 0 -2.63526e-05)
(0.000855128 0 2.23745e-05)
(0.00084993 0 5.59992e-05)
(0.000831111 0 6.51173e-05)
(0.000783551 0 7.409e-05)
(0.000760684 0 0.000125846)
(0.000742441 0 0.0001558)
(0.000677844 0 0.00021734)
(0.000608528 0 0.000238969)
(0.000554504 0 0.000253129)
(0.000470316 0 0.000262059)
(0.000425322 0 0.000137351)
(0.000441699 0 -3.64386e-05)
(0.00022074 0 0.000106525)
(6.77399e-05 0 0.000166345)
(0.000108735 0 0.000134226)
(5.92998e-05 0 0.000150437)
(9.27323e-05 0 0.000151992)
(7.4207e-05 0 0.000112351)
(4.48959e-05 0 3.85327e-05)
(1.15143e-05 0 1.70798e-05)
(-2.93832e-05 0 -8.69206e-07)
(-3.10845e-05 0 -2.09491e-05)
(4.01596e-05 0 -3.24572e-05)
(1.99907e-06 0 -0.000126395)
(0.000106331 0 -7.24757e-05)
(8.80944e-05 0 -8.29876e-05)
(0.000285536 0 -0.000101959)
(-0.000269921 0 -9.67342e-05)
(6.00495e-06 0 3.77694e-05)
(-4.79415e-13 0 8.45941e-14)
(-1.89844e-12 0 2.27298e-14)
(-7.94173e-13 0 3.66768e-15)
(-7.94675e-13 0 -2.30934e-14)
(-7.8012e-13 0 -5.38415e-14)
(-7.5072e-13 0 -8.56213e-14)
(-7.07138e-13 0 -1.1681e-13)
(-6.50343e-13 0 -1.46259e-13)
(-5.81499e-13 0 -1.73112e-13)
(-5.01961e-13 0 -1.96689e-13)
(-4.13291e-13 0 -2.16408e-13)
(-3.17258e-13 0 -2.31777e-13)
(-2.15824e-13 0 -2.42403e-13)
(-1.11095e-13 0 -2.48021e-13)
(-5.26755e-15 0 -2.48512e-13)
(9.94498e-14 0 -2.43922e-13)
(2.00911e-13 0 -2.34458e-13)
(2.97111e-13 0 -2.20482e-13)
(3.86247e-13 0 -2.02487e-13)
(4.66776e-13 0 -1.81068e-13)
(5.37444e-13 0 -1.5689e-13)
(5.97307e-13 0 -1.30649e-13)
(6.45727e-13 0 -1.03038e-13)
(6.82358e-13 0 -7.47213e-14)
(7.07121e-13 0 -4.63073e-14)
(7.20172e-13 0 -1.83337e-14)
(7.21864e-13 0 8.74152e-15)
(7.12711e-13 0 3.45428e-14)
(6.93353e-13 0 5.8775e-14)
(6.64524e-13 0 8.12173e-14)
(6.27021e-13 0 1.01715e-13)
(5.81685e-13 0 1.20169e-13)
(5.29375e-13 0 1.36525e-13)
(4.70955e-13 0 1.50764e-13)
(4.07287e-13 0 1.62893e-13)
(3.39219e-13 0 1.72934e-13)
(2.67582e-13 0 1.80917e-13)
(1.93194e-13 0 1.86876e-13)
(1.1686e-13 0 1.90839e-13)
(3.91527e-14 0 1.92817e-13)
(-0.000165774 0 0.000294833)
(-0.000134883 0 0.000286636)
(-0.000169 0 0.000228259)
(-0.000243686 0 8.52767e-05)
(-0.000217674 0 6.33967e-05)
(-0.000225782 0 -9.24993e-06)
(-0.000224769 0 -7.05594e-05)
(-0.000228185 0 -6.8521e-05)
(-0.000223786 0 -7.66148e-05)
(-0.000204326 0 -8.03345e-05)
(-0.000204778 0 -7.52995e-05)
(-0.000234607 0 -3.47039e-05)
(-0.000277242 0 1.3599e-05)
(-0.000303082 0 3.88622e-05)
(-0.000310609 0 4.86004e-05)
(-0.000310301 0 5.39764e-05)
(-0.000334039 0 2.82762e-05)
(-0.000363027 0 2.30998e-05)
(-0.000392575 0 2.69758e-06)
(-0.000409701 0 -5.20163e-06)
(-0.000405138 0 -3.0795e-05)
(-0.000371648 0 -5.67107e-05)
(-0.000340521 0 -0.000107657)
(-0.000262705 0 -0.000205297)
(-0.000217413 0 -0.000201959)
(-0.000148346 0 -0.000266319)
(-3.65285e-05 0 -0.000185413)
(1.26426e-05 0 -0.000211735)
(8.54135e-05 0 -0.000221165)
(0.000173505 0 -0.00017978)
(0.00022193 0 -0.000146831)
(0.000244524 0 -0.000133559)
(0.000274969 0 -0.000115645)
(0.00029355 0 -0.000128052)
(0.00033389 0 -9.07398e-05)
(0.000356992 0 -0.000115758)
(0.000410053 0 -5.85431e-05)
(0.000416007 0 -0.00015773)
(0.000457099 0 -0.00013191)
(0.000544744 0 6.99282e-05)
(0.000575669 0 -0.000104648)
(0.000572065 0 -0.000207592)
(0.000609921 0 -0.000284512)
(0.000713125 0 -0.000147155)
(0.000732765 0 -0.000133355)
(0.000749858 0 -0.000148228)
(0.000798885 0 -5.46043e-05)
(0.000831887 0 -4.03767e-05)
(0.000852687 0 -9.42362e-05)
(0.000894963 0 -2.65153e-05)
(0.000900706 0 1.87516e-05)
(0.000883924 0 5.59064e-06)
(0.000854273 0 8.51919e-05)
(0.000837757 0 0.000136617)
(0.000813331 0 0.000129579)
(0.000767443 0 0.000144197)
(0.000722108 0 0.000269761)
(0.000719936 0 0.000260951)
(0.000713326 0 0.000223976)
(0.000559146 0 0.000370888)
(0.000377607 0 0.000451093)
(0.000410336 0 0.000333063)
(0.000309652 0 0.00032615)
(0.000160153 0 0.000249595)
(0.000157254 0 0.000175891)
(9.3294e-05 0 0.000161714)
(9.77845e-05 0 0.000149274)
(0.000115878 0 0.000145103)
(9.33859e-05 0 0.000111509)
(7.07363e-05 0 4.93512e-05)
(3.2352e-05 0 3.6916e-05)
(1.27192e-05 0 -3.06564e-05)
(1.29237e-05 0 -6.72587e-05)
(6.75007e-05 0 -8.483e-05)
(6.1217e-05 0 -0.000158151)
(0.000125669 0 -0.000136584)
(9.90367e-05 0 -0.000107677)
(0.000357722 0 -7.41503e-05)
(-0.000350497 0 -6.48399e-07)
(5.92694e-06 0 0.000142908)
(-4.72504e-13 0 1.68363e-13)
(-1.91811e-12 0 5.39969e-14)
(-8.23357e-13 0 1.82272e-14)
(-8.30556e-13 0 -2.57591e-14)
(-8.18575e-13 0 -7.3055e-14)
(-7.89195e-13 0 -1.20272e-13)
(-7.43997e-13 0 -1.65719e-13)
(-6.84466e-13 0 -2.08202e-13)
(-6.12021e-13 0 -2.4677e-13)
(-5.28151e-13 0 -2.80575e-13)
(-4.34509e-13 0 -3.08832e-13)
(-3.32971e-13 0 -3.30838e-13)
(-2.25631e-13 0 -3.46017e-13)
(-1.14762e-13 0 -3.53974e-13)
(-2.74955e-15 0 -3.54536e-13)
(1.07997e-13 0 -3.47771e-13)
(2.1514e-13 0 -3.33991e-13)
(3.16497e-13 0 -3.13736e-13)
(4.10127e-13 0 -2.87737e-13)
(4.94382e-13 0 -2.56871e-13)
(5.67949e-13 0 -2.2211e-13)
(6.29866e-13 0 -1.84469e-13)
(6.79516e-13 0 -1.44954e-13)
(7.16608e-13 0 -1.04521e-13)
(7.41139e-13 0 -6.40399e-14)
(7.53359e-13 0 -2.42763e-14)
(7.53718e-13 0 1.41245e-14)
(7.42831e-13 0 5.06386e-14)
(7.21431e-13 0 8.48592e-14)
(6.90339e-13 0 1.16488e-13)
(6.50424e-13 0 1.45319e-13)
(6.02588e-13 0 1.71229e-13)
(5.47737e-13 0 1.94154e-13)
(4.86772e-13 0 2.14082e-13)
(4.2058e-13 0 2.31032e-13)
(3.5002e-13 0 2.45046e-13)
(2.75933e-13 0 2.56175e-13)
(1.99131e-13 0 2.6447e-13)
(1.20409e-13 0 2.69975e-13)
(4.03332e-14 0 2.72717e-13)
(2.66942e-05 0 0.000420193)
(-0.000133776 0 0.000338141)
(-0.000149579 0 0.00025995)
(-0.000209926 0 0.000126881)
(-0.000215314 0 5.06083e-05)
(-0.00022146 0 -5.19946e-06)
(-0.000228621 0 -6.52815e-05)
(-0.000232557 0 -7.38892e-05)
(-0.000238476 0 -7.1454e-05)
(-0.00026314 0 -2.54894e-05)
(-0.000317746 0 3.23117e-05)
(-0.000364008 0 6.93997e-05)
(-0.000393959 0 7.41656e-05)
(-0.000427067 0 7.54125e-05)
(-0.000458688 0 9.59009e-05)
(-0.000492119 0 9.41536e-05)
(-0.000526267 0 8.44906e-05)
(-0.000552579 0 8.4856e-05)
(-0.000581799 0 5.38027e-05)
(-0.000593859 0 2.88509e-05)
(-0.00058718 0 -8.90487e-05)
(-0.000540635 0 -0.000133157)
(-0.000500023 0 -0.000133557)
(-0.000393356 0 -0.000307564)
(-0.000350174 0 -0.00026947)
(-0.000222991 0 -0.000381466)
(-0.000153284 0 -0.000242265)
(-3.04498e-05 0 -0.000277766)
(6.94651e-05 0 -0.000285682)
(0.000128222 0 -0.00020145)
(0.000151371 0 -0.000216113)
(0.000204478 0 -0.000159242)
(0.000228285 0 -0.000140769)
(0.000259047 0 -0.000131508)
(0.00028382 0 -0.000144588)
(0.000328951 0 -0.000128998)
(0.000367077 0 -0.000134378)
(0.000420187 0 -0.000118131)
(0.000404373 0 -0.000248488)
(0.000500448 0 -6.25929e-05)
(0.000593912 0 -9.65511e-06)
(0.000605706 0 -0.000217477)
(0.000616125 0 -0.000367742)
(0.000723532 0 -0.000188049)
(0.000731274 0 -0.000181258)
(0.000750638 0 -0.000158136)
(0.000788929 0 -0.000109933)
(0.000834281 0 -0.000100758)
(0.000882303 0 -9.92669e-05)
(0.000888464 0 2.08706e-06)
(0.000890701 0 2.27876e-05)
(0.000890124 0 4.3754e-05)
(0.000872661 0 6.97585e-05)
(0.000840274 0 0.00015333)
(0.000821051 0 0.000157137)
(0.000787735 0 0.000127361)
(0.000721657 0 0.000248718)
(0.000686693 0 0.000335369)
(0.000650422 0 0.000379148)
(0.000594663 0 0.000365831)
(0.000479608 0 0.000395806)
(0.000495424 0 0.000282159)
(0.000434355 0 0.000259099)
(0.000262211 0 0.000323738)
(0.000308156 0 0.000162595)
(0.000191412 0 0.000121573)
(0.000133429 0 0.000144816)
(0.000129274 0 0.000150098)
(0.000105715 0 0.000127864)
(8.06328e-05 0 7.77329e-05)
(4.2328e-05 0 7.13288e-05)
(7.42503e-05 0 -2.02128e-05)
(8.35458e-05 0 -5.89709e-05)
(0.00010525 0 -0.000108422)
(8.50351e-05 0 -0.000190713)
(0.000153427 0 -0.000175714)
(0.000149368 0 -0.000126231)
(0.000281086 0 -4.01731e-05)
(-0.000358966 0 8.36906e-05)
(6.14706e-06 0 0.000222604)
(-5.13877e-13 0 2.69282e-13)
(-1.96457e-12 0 9.86014e-14)
(-8.73358e-13 0 4.09435e-14)
(-8.85405e-13 0 -2.52259e-14)
(-8.74321e-13 0 -9.22716e-14)
(-8.43348e-13 0 -1.56845e-13)
(-7.95068e-13 0 -2.17804e-13)
(-7.31393e-13 0 -2.74282e-13)
(-6.53871e-13 0 -3.25401e-13)
(-5.64024e-13 0 -3.70192e-13)
(-4.63554e-13 0 -4.07643e-13)
(-3.54443e-13 0 -4.36793e-13)
(-2.3896e-13 0 -4.56835e-13)
(-1.19614e-13 0 -4.67213e-13)
(9.35996e-16 0 -4.67683e-13)
(1.19995e-13 0 -4.58347e-13)
(2.34946e-13 0 -4.39648e-13)
(3.43365e-13 0 -4.12343e-13)
(4.43113e-13 0 -3.77449e-13)
(5.32403e-13 0 -3.36176e-13)
(6.09846e-13 0 -2.89854e-13)
(6.74463e-13 0 -2.39856e-13)
(7.25675e-13 0 -1.87537e-13)
(7.63272e-13 0 -1.34171e-13)
(7.87366e-13 0 -8.0909e-14)
(7.98337e-13 0 -2.87521e-14)
(7.96779e-13 0 2.14642e-14)
(7.83445e-13 0 6.90716e-14)
(7.59202e-13 0 1.13561e-13)
(7.24984e-13 0 1.54566e-13)
(6.81762e-13 0 1.91848e-13)
(6.3052e-13 0 2.25269e-13)
(5.72228e-13 0 2.54774e-13)
(5.07834e-13 0 2.80368e-13)
(4.38252e-13 0 3.02097e-13)
(3.64362e-13 0 3.20032e-13)
(2.87006e-13 0 3.34255e-13)
(2.06994e-13 0 3.44842e-13)
(1.25106e-13 0 3.51859e-13)
(4.18947e-14 0 3.55354e-13)
(2.74824e-05 0 0.000489059)
(-0.000105183 0 0.000393708)
(-0.000147101 0 0.000291909)
(-0.000172403 0 0.000188814)
(-0.000218786 0 7.59475e-05)
(-0.000227969 0 1.04229e-05)
(-0.000234591 0 -5.91977e-05)
(-0.000235949 0 -7.0479e-05)
(-0.00024313 0 -6.95573e-05)
(-0.000290974 0 -3.40095e-06)
(-0.000352714 0 4.86111e-05)
(-0.000414034 0 8.95638e-05)
(-0.000473378 0 9.8437e-05)
(-0.000528736 0 0.00011816)
(-0.000579414 0 0.000123623)
(-0.0006237 0 0.000122529)
(-0.000669858 0 0.000117072)
(-0.000728272 0 9.66857e-05)
(-0.000769312 0 5.43354e-05)
(-0.000771905 0 2.60319e-05)
(-0.000725032 0 -9.47047e-05)
(-0.000668027 0 -0.000137936)
(-0.000604363 0 -0.000244019)
(-0.000470236 0 -0.0004508)
(-0.000451739 0 -0.000373669)
(-0.000190504 0 -0.000557595)
(-0.000205784 0 -0.000316185)
(-1.82283e-05 0 -0.000373559)
(0.000140716 0 -0.00039441)
(7.35236e-05 0 -0.000240802)
(0.000151789 0 -0.000231243)
(0.000145857 0 -0.000197832)
(0.000172742 0 -0.000181737)
(0.000222725 0 -0.000163592)
(0.000248726 0 -0.000185962)
(0.000310837 0 -0.000150803)
(0.000327377 0 -0.000199631)
(0.000403214 0 -0.000157318)
(0.000402127 0 -0.000247851)
(0.000454944 0 -0.000202408)
(0.000546881 0 -0.000116642)
(0.000585511 0 -0.00024464)
(0.000606946 0 -0.000411886)
(0.000725567 0 -0.000187497)
(0.000730019 0 -0.000189766)
(0.000750769 0 -0.000178086)
(0.000793519 0 -0.000151362)
(0.000865781 0 -9.16922e-05)
(0.000870625 0 -7.49127e-05)
(0.000860215 0 -4.75148e-05)
(0.000863967 0 -2.48605e-05)
(0.000879604 0 6.53842e-05)
(0.000872489 0 0.000114393)
(0.000843039 0 0.000168901)
(0.000817906 0 0.000209859)
(0.000783314 0 0.000239339)
(0.000723681 0 0.000276574)
(0.000687046 0 0.000312522)
(0.000627764 0 0.000389813)
(0.000557701 0 0.000442794)
(0.000560112 0 0.000360533)
(0.000538562 0 0.000323822)
(0.000380378 0 0.000420251)
(0.000278538 0 0.000446972)
(0.000234739 0 0.00035754)
(9.61448e-05 0 0.000226559)
(0.000118105 0 0.000189325)
(0.000121988 0 0.000180888)
(9.64763e-05 0 0.000158454)
(7.40453e-05 0 0.000115553)
(8.34499e-05 0 3.55878e-05)
(9.83144e-05 0 -3.44768e-06)
(0.000115467 0 -5.1746e-05)
(0.00011244 0 -0.000126307)
(0.000146946 0 -0.000178448)
(0.000157587 0 -0.000201659)
(0.000176984 0 -0.000156927)
(0.000237139 0 -2.73832e-05)
(-0.000183872 0 0.000116503)
(6.12285e-06 0 0.000305507)
(-5.35769e-13 0 3.91279e-13)
(-2.01677e-12 0 1.65634e-13)
(-9.46606e-13 0 7.20382e-14)
(-9.63217e-13 0 -2.40089e-14)
(-9.4989e-13 0 -1.13966e-13)
(-9.14699e-13 0 -1.97292e-13)
(-8.61433e-13 0 -2.74683e-13)
(-7.92063e-13 0 -3.46054e-13)
(-7.07931e-13 0 -4.10693e-13)
(-6.10393e-13 0 -4.67464e-13)
(-5.0111e-13 0 -5.15028e-13)
(-3.82163e-13 0 -5.52058e-13)
(-2.56051e-13 0 -5.7743e-13)
(-1.2561e-13 0 -5.90365e-13)
(6.11655e-15 0 -5.90527e-13)
(1.36033e-13 0 -5.78062e-13)
(2.61143e-13 0 -5.53588e-13)
(3.78696e-13 0 -5.18144e-13)
(4.86294e-13 0 -4.73104e-13)
(5.81978e-13 0 -4.20087e-13)
(6.64269e-13 0 -3.60848e-13)
(7.32182e-13 0 -2.97185e-13)
(7.85201e-13 0 -2.30846e-13)
(8.23236e-13 0 -1.63457e-13)
(8.46558e-13 0 -9.64735e-14)
(8.55732e-13 0 -3.11408e-14)
(8.51542e-13 0 3.15158e-14)
(8.34927e-13 0 9.06917e-14)
(8.06926e-13 0 1.45789e-13)
(7.68626e-13 0 1.96394e-13)
(7.21127e-13 0 2.4225e-13)
(6.65513e-13 0 2.8323e-13)
(6.02835e-13 0 3.19304e-13)
(5.34096e-13 0 3.50513e-13)
(4.60244e-13 0 3.76949e-13)
(3.82178e-13 0 3.98724e-13)
(3.00742e-13 0 4.15961e-13)
(2.16736e-13 0 4.28774e-13)
(1.30921e-13 0 4.37257e-13)
(4.38276e-14 0 4.41479e-13)
(-8.23032e-05 0 0.000509764)
(-9.29313e-05 0 0.00045224)
(-0.000165792 0 0.000328714)
(-0.000181054 0 0.000213393)
(-0.000224435 0 9.00228e-05)
(-0.00023506 0 2.50511e-06)
(-0.000235213 0 -4.80937e-05)
(-0.000230265 0 -7.07368e-05)
(-0.000263038 0 -1.72977e-06)
(-0.00033009 0 7.53337e-05)
(-0.000407285 0 0.00013219)
(-0.000474787 0 0.000148166)
(-0.000537949 0 0.000157847)
(-0.000594619 0 0.000177174)
(-0.000648937 0 0.000194934)
(-0.00071285 0 0.000192131)
(-0.000789691 0 0.000183363)
(-0.00085638 0 0.000153302)
(-0.000876679 0 0.000131357)
(-0.000850877 0 -2.41242e-05)
(-0.000792268 0 -0.000155022)
(-0.000749928 0 -0.000207898)
(-0.000690739 0 -0.000327613)
(-0.000599023 0 -0.000477007)
(-0.000577476 0 -0.000480288)
(-7.37811e-05 0 -0.000731244)
(-0.000261009 0 -0.000465389)
(-4.8397e-05 0 -0.000545545)
(0.000106942 0 -0.000455384)
(3.05158e-05 0 -0.000255209)
(0.000102216 0 -0.00024681)
(0.000112708 0 -0.000196388)
(0.000133192 0 -0.000200404)
(0.000176288 0 -0.000213926)
(0.000222154 0 -0.000213049)
(0.000245377 0 -0.000230286)
(0.00029499 0 -0.000227684)
(0.000335888 0 -0.000232434)
(0.000395525 0 -0.000232655)
(0.000408304 0 -0.00028089)
(0.000530291 0 -0.000160033)
(0.000496616 0 -0.000363593)
(0.000609235 0 -0.000336834)
(0.000637785 0 -0.000348724)
(0.000677911 0 -0.000256114)
(0.00070948 0 -0.000215912)
(0.000743646 0 -0.000244923)
(0.0008189 0 -0.000138151)
(0.000818787 0 -0.000102775)
(0.000823913 0 -6.47698e-05)
(0.000833621 0 -4.14833e-05)
(0.000833479 0 3.43551e-05)
(0.000822582 0 0.000121122)
(0.000811597 0 0.000155941)
(0.000784653 0 0.000252042)
(0.000758275 0 0.000292366)
(0.00071119 0 0.000319812)
(0.000628814 0 0.000409985)
(0.000592374 0 0.000451559)
(0.0005537 0 0.000479404)
(0.00050186 0 0.000480032)
(0.000428635 0 0.000485676)
(0.000359244 0 0.000524423)
(0.000354245 0 0.00050783)
(0.000375775 0 0.000367446)
(0.000276829 0 0.000214515)
(0.000174487 0 0.000217035)
(0.000149858 0 0.000208192)
(0.000113651 0 0.000183859)
(8.63948e-05 0 0.000137011)
(9.65155e-05 0 2.36161e-05)
(0.000105117 0 -1.39166e-05)
(0.000117655 0 -6.37363e-05)
(0.000132059 0 -0.000130315)
(0.000158821 0 -0.000191325)
(0.000148427 0 -0.000215296)
(0.000213546 0 -0.000168648)
(0.000286003 0 -9.16461e-05)
(-9.91433e-05 0 0.00013085)
(6.28317e-06 0 0.000403994)
(-6.50826e-13 0 7.33732e-13)
(-2.1037e-12 0 2.82353e-13)
(-1.06241e-12 0 1.05335e-13)
(-1.07085e-12 0 -2.91923e-14)
(-1.04731e-12 0 -1.42407e-13)
(-1.00405e-12 0 -2.44062e-13)
(-9.43831e-13 0 -3.38025e-13)
(-8.67404e-13 0 -4.2503e-13)
(-7.75281e-13 0 -5.04341e-13)
(-6.68358e-13 0 -5.74427e-13)
(-5.48148e-13 0 -6.33405e-13)
(-4.16845e-13 0 -6.79389e-13)
(-2.77267e-13 0 -7.10786e-13)
(-1.32711e-13 0 -7.26504e-13)
(1.32387e-14 0 -7.26082e-13)
(1.56933e-13 0 -7.09732e-13)
(2.94864e-13 0 -6.78312e-13)
(4.2385e-13 0 -6.33235e-13)
(5.4117e-13 0 -5.76346e-13)
(6.44659e-13 0 -5.0978e-13)
(7.32747e-13 0 -4.35821e-13)
(8.04465e-13 0 -3.56769e-13)
(8.59403e-13 0 -2.7483e-13)
(8.97644e-13 0 -1.92026e-13)
(9.19682e-13 0 -1.10139e-13)
(9.26326e-13 0 -3.06659e-14)
(9.18611e-13 0 4.51832e-14)
(8.97719e-13 0 1.16483e-13)
(8.64904e-13 0 1.8257e-13)
(8.21445e-13 0 2.43007e-13)
(7.68599e-13 0 2.9755e-13)
(7.07573e-13 0 3.46106e-13)
(6.39512e-13 0 3.88699e-13)
(5.65479e-13 0 4.2543e-13)
(4.86462e-13 0 4.56454e-13)
(4.03374e-13 0 4.81945e-13)
(3.17056e-13 0 5.02081e-13)
(2.2829e-13 0 5.17024e-13)
(1.37812e-13 0 5.26906e-13)
(4.61167e-14 0 5.3182e-13)
(-0.000115752 0 0.000561118)
(-9.50307e-05 0 0.000518921)
(-0.000216009 0 0.000368606)
(-0.000233528 0 0.000215875)
(-0.000206801 0 0.000130085)
(-0.00022421 0 2.48195e-05)
(-0.000226081 0 -5.22694e-05)
(-0.000227874 0 -4.29941e-05)
(-0.000268277 0 3.29581e-05)
(-0.000363333 0 0.000148405)
(-0.000442251 0 0.000194566)
(-0.000509272 0 0.000205426)
(-0.000570256 0 0.000224843)
(-0.000634495 0 0.000256061)
(-0.000720255 0 0.000259554)
(-0.00081197 0 0.000262154)
(-0.00088971 0 0.000223813)
(-0.000911809 0 0.000201704)
(-0.000907386 0 7.75214e-05)
(-0.000871838 0 -0.000122182)
(-0.000819573 0 -0.000223135)
(-0.000780253 0 -0.000272183)
(-0.000694702 0 -0.00044103)
(-0.000596251 0 -0.000591939)
(-0.00050105 0 -0.000680447)
(-0.000240526 0 -0.000780415)
(-0.000249514 0 -0.000702164)
(-9.52084e-05 0 -0.000649191)
(3.60566e-05 0 -0.000462132)
(-7.93809e-05 0 -0.000258261)
(2.38453e-05 0 -0.000237234)
(-5.10754e-05 0 -0.000236607)
(4.10827e-05 0 -0.000274666)
(9.96263e-05 0 -0.00027319)
(0.000169364 0 -0.000248618)
(0.000184782 0 -0.000253117)
(0.000223765 0 -0.00025581)
(0.000247374 0 -0.00028955)
(0.000332837 0 -0.000283888)
(0.00034975 0 -0.000344911)
(0.00047118 0 -0.000262649)
(0.000495272 0 -0.000346693)
(0.000576487 0 -0.000368262)
(0.000586106 0 -0.000355143)
(0.000603984 0 -0.000314052)
(0.000649053 0 -0.000239711)
(0.000623134 0 -0.000369251)
(0.000718942 0 -0.000108161)
(0.000716637 0 -8.49379e-05)
(0.000730004 0 -7.74604e-05)
(0.000763446 0 2.44861e-05)
(0.000755723 0 6.75297e-05)
(0.000738208 0 0.000136808)
(0.000725643 0 0.000197407)
(0.0007308 0 0.00023238)
(0.000709644 0 0.000328749)
(0.000691748 0 0.000339225)
(0.000600984 0 0.000443368)
(0.000558855 0 0.000500674)
(0.000554154 0 0.000498111)
(0.000507787 0 0.000491719)
(0.000413248 0 0.000523632)
(0.000399973 0 0.00053462)
(0.000391147 0 0.000504919)
(0.000316635 0 0.000426404)
(0.000147648 0 0.000347843)
(0.000110092 0 0.000306022)
(0.000104694 0 0.000262545)
(0.000101282 0 0.000213473)
(8.29275e-05 0 0.000151866)
(0.000102186 0 2.92963e-05)
(0.000104419 0 -2.51387e-05)
(0.000119259 0 -8.19209e-05)
(0.000120025 0 -0.000169945)
(0.00015492 0 -0.000229537)
(0.000143063 0 -0.000208414)
(0.000223673 0 -0.00012836)
(-0.000183123 0 0.000221594)
(-0.000504712 0 0.000139128)
(6.00268e-06 0 0.000624836)
(-7.56987e-13 0 7.149e-13)
(-2.41195e-12 0 3.51829e-13)
(-1.25755e-12 0 9.57578e-14)
(-1.2104e-12 0 -5.61059e-14)
(-1.16447e-12 0 -1.82614e-13)
(-1.11031e-12 0 -2.99013e-13)
(-1.0424e-12 0 -4.0886e-13)
(-9.58379e-13 0 -5.12269e-13)
(-8.57329e-13 0 -6.0781e-13)
(-7.39457e-13 0 -6.93115e-13)
(-6.06071e-13 0 -7.65392e-13)
(-4.59544e-13 0 -8.21902e-13)
(-3.03167e-13 0 -8.60362e-13)
(-1.40906e-13 0 -8.79237e-13)
(2.28886e-14 0 -8.77895e-13)
(1.83803e-13 0 -8.56655e-13)
(3.37641e-13 0 -8.16714e-13)
(4.80662e-13 0 -7.60003e-13)
(6.09749e-13 0 -6.88996e-13)
(7.22503e-13 0 -6.06502e-13)
(8.1728e-13 0 -5.15469e-13)
(8.93173e-13 0 -4.18812e-13)
(9.49944e-13 0 -3.19275e-13)
(9.87927e-13 0 -2.19328e-13)
(1.00792e-12 0 -1.21098e-13)
(1.01105e-12 0 -2.63404e-14)
(9.98691e-13 0 6.35681e-14)
(9.72314e-13 0 1.47607e-13)
(9.3345e-13 0 2.2508e-13)
(8.83606e-13 0 2.95564e-13)
(8.24226e-13 0 3.58864e-13)
(7.56662e-13 0 4.1496e-13)
(6.82159e-13 0 4.63958e-13)
(6.01851e-13 0 5.06053e-13)
(5.16759e-13 0 5.41484e-13)
(4.27806e-13 0 5.70511e-13)
(3.35822e-13 0 5.93384e-13)
(2.41561e-13 0 6.10323e-13)
(1.45717e-13 0 6.2151e-13)
(4.87416e-14 0 6.27067e-13)
(1.4079e-05 0 0.000672241)
(-0.000179622 0 0.000579886)
(-0.000140628 0 0.000455403)
(-0.000148979 0 0.000292921)
(-0.000184006 0 0.000133083)
(-0.000198353 0 2.658e-05)
(-0.000215366 0 -5.10478e-05)
(-0.000220854 0 -2.38596e-05)
(-0.000295002 0 0.000126325)
(-0.000390267 0 0.000229589)
(-0.000463029 0 0.000259184)
(-0.000519673 0 0.00027948)
(-0.000590378 0 0.000298085)
(-0.000689382 0 0.000322057)
(-0.000781979 0 0.000360059)
(-0.000861019 0 0.0003396)
(-0.000893209 0 0.000301954)
(-0.000896446 0 0.000167239)
(-0.0008798 0 6.85457e-05)
(-0.000874217 0 -6.74383e-05)
(-0.000803302 0 -0.000310011)
(-0.000775311 0 -0.000298947)
(-0.000608509 0 -0.000603755)
(-0.000570559 0 -0.000679236)
(-0.000402865 0 -0.000826352)
(-0.000392458 0 -0.000844848)
(-8.83619e-05 0 -0.000898453)
(-0.000174429 0 -0.00066312)
(-0.000107553 0 -0.00045093)
(-1.00472e-05 0 -0.000322704)
(-2.60598e-05 0 -0.00022913)
(-2.87493e-05 0 -0.000266443)
(1.77159e-05 0 -0.000310814)
(2.33199e-05 0 -0.000316697)
(8.30236e-05 0 -0.000312973)
(0.000119123 0 -0.000286812)
(0.000159105 0 -0.000284653)
(0.000164859 0 -0.000344047)
(0.000286244 0 -0.000317226)
(0.000340828 0 -0.000342597)
(0.000339385 0 -0.000414797)
(0.00047114 0 -0.000356687)
(0.000522088 0 -0.000378175)
(0.000492745 0 -0.0004114)
(0.00053962 0 -0.000327806)
(0.000576162 0 -0.000271671)
(0.00057467 0 -0.000251063)
(0.000588686 0 -0.000181244)
(0.000605174 0 -0.000141037)
(0.000610796 0 -0.000168798)
(0.000640165 0 1.30816e-05)
(0.000635586 0 6.76019e-05)
(0.000624476 0 0.000152401)
(0.000636068 0 0.000170898)
(0.000657581 0 0.000223219)
(0.000614948 0 0.000407026)
(0.000592117 0 0.000452727)
(0.000541248 0 0.00050921)
(0.000520684 0 0.00053729)
(0.000497218 0 0.00055153)