/*--------------------------------*- C++ -*----------------------------------*\
  =========                 |
  \\      /  F ield         | OpenFOAM: The Open Source CFD Toolbox
   \\    /   O peration     | Website:  https://openfoam.org
    \\  /    A nd           | Version:  6
     \\/     M anipulation  |
\*---------------------------------------------------------------------------*/
FoamFile
{
    version     2.0;
    format      ascii;
    class       volScalarField;
    location    "4850";
    object      dmdt;
}
// * * * * * * * * * * * * * * * * * * * * * * * * * * * * * * * * * * * * * //

dimensions      [0 0 0 0 0 0 0];

internalField   nonuniform List<scalar> 
4800
(
-0.219041
-0.215953
-0.212906
-0.209937
-0.207077
-0.204345
-0.20176
-0.199338
-0.197086
-0.19501
-0.193112
-0.191384
-0.189817
-0.188396
-0.187107
-0.185933
-0.184859
-0.183868
-0.182946
-0.182079
-0.181254
-0.180461
-0.179687
-0.178924
-0.178162
-0.177396
-0.176618
-0.175822
-0.175002
-0.174157
-0.17328
-0.172367
-0.171413
-0.170408
-0.169349
-0.168232
-0.16705
-0.165795
-0.164459
-0.163033
-0.161504
-0.159869
-0.158122
-0.156253
-0.154253
-0.152119
-0.149848
-0.147451
-0.14495
-0.14237
-0.139733
-0.137053
-0.13434
-0.131607
-0.128865
-0.126118
-0.123369
-0.120614
-0.117846
-0.115057
-0.112241
-0.109391
-0.106504
-0.103577
-0.100608
-0.0975935
-0.0945105
-0.0913123
-0.0879694
-0.0844656
-0.080764
-0.0768272
-0.0726268
-0.068148
-0.0633882
-0.0583609
-0.0530928
-0.0476291
-0.0420503
-0.0364507
-0.030926
-0.0255744
-0.0204843
-0.0156323
-0.0110015
-0.00657034
-0.00231545
0.00178663
0.00575758
0.00961715
0.0133825
0.0170683
0.0206866
0.0242475
0.027759
0.0312279
0.0346593
0.0380577
0.0414268
0.0447695
0.0480885
0.0513859
0.0546638
0.0579241
0.0611682
0.0643978
0.0676142
0.0708187
0.0740127
0.0771971
0.0803731
0.0835417
0.0867038
0.0898603
0.093012
0.0961597
0.0993043
0.102446
0.105587
0.108726
-0.219027
-0.21592
-0.212866
-0.209889
-0.207022
-0.204286
-0.201703
-0.199285
-0.197042
-0.19498
-0.193095
-0.191381
-0.189825
-0.188415
-0.187137
-0.185974
-0.184908
-0.183926
-0.183012
-0.182154
-0.181337
-0.180549
-0.179781
-0.179023
-0.178265
-0.177501
-0.176724
-0.175928
-0.175108
-0.174259
-0.173373
-0.172452
-0.171484
-0.170467
-0.169397
-0.168269
-0.167075
-0.165809
-0.164463
-0.163027
-0.161493
-0.159854
-0.158102
-0.156232
-0.154238
-0.152115
-0.149865
-0.147493
-0.145015
-0.142458
-0.139843
-0.137187
-0.1345
-0.131791
-0.129069
-0.126338
-0.123597
-0.120844
-0.118073
-0.115279
-0.112457
-0.109602
-0.106709
-0.103776
-0.100794
-0.0977469
-0.0946175
-0.091374
-0.0879835
-0.0844173
-0.0806481
-0.0766531
-0.072408
-0.0678965
-0.0631196
-0.0580897
-0.0528346
-0.0474014
-0.0418491
-0.036255
-0.030722
-0.0253594
-0.0202746
-0.0154363
-0.0108237
-0.0064127
-0.00217796
0.00190528
0.00585939
0.00970438
0.0134574
0.0171328
0.0207424
0.0242961
0.0278017
0.0312655
0.0346927
0.0380876
0.0414536
0.0447936
0.0481102
0.0514056
0.0546816
0.0579401
0.0611827
0.0644109
0.067626
0.0708293
0.0740221
0.0772055
0.0803805
0.0835481
0.0867093
0.089865
0.0930159
0.0961629
0.0993067
0.102448
0.105588
0.108726
-0.219016
-0.215885
-0.21281
-0.209822
-0.206947
-0.20421
-0.201633
-0.199227
-0.197003
-0.19496
-0.193096
-0.191401
-0.189865
-0.188475
-0.187216
-0.18607
-0.185022
-0.184057
-0.18316
-0.182318
-0.181516
-0.180742
-0.179985
-0.179238
-0.178489
-0.177732
-0.176961
-0.176166
-0.175345
-0.174489
-0.173593
-0.172656
-0.171664
-0.170623
-0.169528
-0.168375
-0.167158
-0.16587
-0.164502
-0.163045
-0.161495
-0.159844
-0.158085
-0.156215
-0.154228
-0.152125
-0.149906
-0.147578
-0.145154
-0.142649
-0.140081
-0.137466
-0.134819
-0.132148
-0.129458
-0.126751
-0.124027
-0.121281
-0.118511
-0.115713
-0.112881
-0.110014
-0.107107
-0.104154
-0.101138
-0.0980343
-0.0948206
-0.0914771
-0.087978
-0.08429
-0.0804008
-0.0763018
-0.0719768
-0.0674093
-0.062601
-0.0575611
-0.0523167
-0.0468952
-0.0413552
-0.0357816
-0.0302683
-0.0249135
-0.0198477
-0.0150403
-0.0104667
-0.0060981
-0.00190494
0.00213997
0.00606025
0.00987621
0.0136047
0.0172597
0.0208525
0.0243921
0.027886
0.0313401
0.034759
0.0381469
0.0415068
0.0448416
0.0481535
0.0514447
0.0547171
0.0579722
0.0612117
0.064437
0.0676494
0.0708504
0.0740409
0.0772221
0.0803952
0.0835609
0.0867204
0.0898744
0.0930237
0.0961692
0.0993116
0.102452
0.10559
0.108727
-0.219001
-0.215844
-0.212752
-0.209755
-0.206879
-0.204146
-0.201577
-0.19919
-0.196987
-0.194969
-0.193131
-0.191463
-0.189954
-0.188591
-0.187357
-0.186236
-0.185214
-0.184273
-0.1834
-0.182582
-0.181802
-0.181048
-0.18031
-0.179579
-0.178844
-0.178098
-0.177335
-0.176545
-0.175724
-0.174864
-0.173959
-0.173004
-0.171987
-0.170918
-0.169789
-0.168597
-0.16734
-0.166016
-0.164613
-0.163125
-0.161549
-0.159877
-0.158106
-0.156234
-0.154259
-0.152181
-0.150001
-0.147725
-0.145363
-0.142925
-0.140425
-0.137873
-0.135283
-0.132662
-0.130014
-0.12734
-0.124637
-0.121903
-0.119137
-0.116334
-0.113492
-0.110608
-0.107675
-0.104676
-0.101592
-0.0983969
-0.0950593
-0.0915632
-0.0879044
-0.0840574
-0.0800133
-0.0757787
-0.0713473
-0.0666987
-0.06184
-0.0567754
-0.0515266
-0.0461205
-0.0406022
-0.0350542
-0.0295689
-0.0242257
-0.0191917
-0.0144367
-0.00992816
-0.00562812
-0.00150064
0.00248521
0.00635444
0.0101273
0.01382
0.0174454
0.0210137
0.0245331
0.0280101
0.03145
0.0348571
0.0382347
0.0415858
0.0449128
0.0482179
0.051503
0.0547698
0.0580199
0.0612548
0.0644759
0.0676845
0.0708817
0.0740689
0.077247
0.0804171
0.0835801
0.0867369
0.0898884
0.0930354
0.0961786
0.0993188
0.102457
0.105593
0.108728
-0.218998
-0.215833
-0.212723
-0.209711
-0.206831
-0.204109
-0.201557
-0.19919
-0.197012
-0.195023
-0.193215
-0.191578
-0.190103
-0.188774
-0.187573
-0.186484
-0.185493
-0.184583
-0.183741
-0.182952
-0.182202
-0.181473
-0.180756
-0.180047
-0.179329
-0.178598
-0.177846
-0.177064
-0.176245
-0.175382
-0.174467
-0.173493
-0.172458
-0.171361
-0.170198
-0.168964
-0.16766
-0.166282
-0.164827
-0.163297
-0.161685
-0.159988
-0.158203
-0.156329
-0.154367
-0.152317
-0.150179
-0.147959
-0.145664
-0.143301
-0.140877
-0.138402
-0.135881
-0.133322
-0.130724
-0.128088
-0.125411
-0.122692
-0.119928
-0.117116
-0.114255
-0.111335
-0.108343
-0.105262
-0.102071
-0.0987427
-0.095251
-0.0915796
-0.0877301
-0.083702
-0.0794916
-0.0751001
-0.0705329
-0.0657828
-0.0608595
-0.0557639
-0.050505
-0.0451133
-0.039626
-0.0341018
-0.0286249
-0.0232761
-0.0182873
-0.0136143
-0.00920551
-0.00500718
-0.000973311
0.00293132
0.00673248
0.0104493
0.0140961
0.017684
0.0212214
0.0247154
0.0281712
0.0315933
0.0349851
0.0383497
0.0416895
0.0450065
0.0483027
0.0515799
0.0548395
0.058083
0.0613118
0.0645273
0.0677308
0.0709232
0.0741059
0.0772798
0.080446
0.0836053
0.0867587
0.0899069
0.0930508
0.096191
0.0993283
0.102463
0.105597
0.108729
-0.218992
-0.215816
-0.212707
-0.209701
-0.206828
-0.204116
-0.201586
-0.199243
-0.19709
-0.195132
-0.19336
-0.191762
-0.190325
-0.189034
-0.18787
-0.186818
-0.185864
-0.184991
-0.184184
-0.183429
-0.18271
-0.182008
-0.181316
-0.18063
-0.17993
-0.179215
-0.178475
-0.177702
-0.176888
-0.176024
-0.175104
-0.17412
-0.173068
-0.171944
-0.170746
-0.169469
-0.168114
-0.166679
-0.165167
-0.163584
-0.16193
-0.160205
-0.158407
-0.156534
-0.154586
-0.152562
-0.150466
-0.148301
-0.146075
-0.143792
-0.141454
-0.139063
-0.13662
-0.134126
-0.131581
-0.128984
-0.126334
-0.123628
-0.120861
-0.118031
-0.115131
-0.112151
-0.109075
-0.105883
-0.102552
-0.0990565
-0.0953754
-0.0915032
-0.0874425
-0.0832102
-0.0788159
-0.0742612
-0.0695592
-0.0647068
-0.0597016
-0.0545466
-0.0492477
-0.0438338
-0.0383388
-0.0328224
-0.0273649
-0.0220153
-0.0171
-0.0125571
-0.00829917
-0.00424578
-0.000337998
0.00346256
0.00717996
0.0108299
0.0144231
0.0179676
0.0214697
0.0249344
0.0283657
0.0317671
0.0351412
0.0384904
0.0418166
0.0451217
0.0484072
0.0516746
0.0549254
0.0581609
0.0613823
0.0645909
0.067788
0.0709745
0.0741517
0.0773205
0.0804818
0.0836366
0.0867856
0.0899298
0.0930698
0.0962063
0.0993401
0.102472
0.105602
0.108731
-0.218992
-0.215818
-0.212715
-0.20972
-0.206864
-0.204169
-0.201659
-0.199346
-0.19723
-0.195309
-0.193577
-0.19202
-0.190626
-0.189376
-0.188251
-0.187239
-0.186325
-0.185492
-0.184721
-0.184001
-0.183313
-0.182637
-0.181971
-0.181305
-0.180625
-0.179927
-0.1792
-0.178438
-0.177632
-0.176771
-0.175849
-0.174858
-0.173792
-0.172648
-0.171419
-0.170101
-0.168694
-0.167203
-0.165636
-0.164
-0.162303
-0.160546
-0.158732
-0.156858
-0.154922
-0.152927
-0.150877
-0.148775
-0.146625
-0.144426
-0.142176
-0.13987
-0.137505
-0.135077
-0.132584
-0.130024
-0.127397
-0.124697
-0.121919
-0.119057
-0.116101
-0.113038
-0.109851
-0.106518
-0.103016
-0.0993204
-0.0954246
-0.0913338
-0.087058
-0.0826217
-0.0780433
-0.0733328
-0.0685036
-0.063551
-0.0584608
-0.0532295
-0.0478594
-0.0423831
-0.0368339
-0.0312648
-0.0257658
-0.0203734
-0.0155787
-0.0112493
-0.0072197
-0.00336732
0.000378808
0.0040544
0.00767626
0.0112526
0.0147882
0.0182866
0.0217512
0.0251847
0.0285897
0.0319685
0.035323
0.0386549
0.0419659
0.0452573
0.0485304
0.0517866
0.055027
0.058253
0.0614657
0.0646662
0.0678558
0.0710353
0.0742059
0.0773686
0.0805242
0.0836735
0.0868175
0.0899569
0.0930923
0.0962245
0.0993541
0.102482
0.105608
0.108733
-0.218999
-0.21584
-0.212751
-0.209774
-0.206943
-0.204278
-0.2018
-0.19952
-0.197442
-0.195563
-0.193872
-0.192358
-0.191006
-0.189796
-0.188713
-0.187741
-0.186868
-0.186073
-0.185338
-0.184649
-0.183989
-0.183342
-0.182699
-0.182053
-0.181394
-0.180714
-0.180001
-0.179253
-0.178456
-0.177602
-0.176682
-0.175689
-0.174615
-0.173453
-0.172196
-0.170838
-0.169383
-0.16784
-0.166222
-0.16454
-0.162805
-0.161022
-0.159193
-0.157319
-0.155399
-0.153438
-0.151438
-0.149404
-0.147334
-0.145222
-0.143058
-0.140834
-0.138541
-0.136174
-0.133729
-0.131203
-0.128592
-0.125891
-0.12309
-0.120182
-0.117153
-0.113987
-0.110667
-0.107168
-0.103467
-0.0995515
-0.0954313
-0.0911208
-0.0866369
-0.0820055
-0.0772526
-0.0723993
-0.0674503
-0.0623962
-0.0572189
-0.0519071
-0.0464495
-0.040857
-0.0351542
-0.0293972
-0.0237225
-0.0181974
-0.0136425
-0.00968781
-0.00600415
-0.00241981
0.00113252
0.00467044
0.00819339
0.0116966
0.015176
0.0186299
0.0220577
0.0254602
0.0288386
0.0321941
0.035528
0.0388414
0.0421357
0.045412
0.0486713
0.0519148
0.0551436
0.0583588
0.0615615
0.0647527
0.0679336
0.0711051
0.0742682
0.0774238
0.0805728
0.083716
0.0868542
0.089988
0.0931182
0.0962453
0.0993701
0.102493
0.105614
0.108735
-0.219013
-0.21588
-0.212817
-0.209868
-0.207069
-0.204441
-0.202001
-0.199762
-0.197728
-0.195893
-0.194246
-0.192774
-0.191462
-0.190291
-0.189248
-0.188316
-0.187481
-0.186724
-0.186021
-0.18536
-0.184727
-0.184108
-0.183488
-0.182862
-0.182222
-0.181558
-0.18086
-0.180128
-0.179343
-0.1785
-0.177587
-0.176595
-0.175513
-0.174333
-0.173048
-0.171655
-0.170159
-0.168573
-0.166913
-0.165194
-0.163429
-0.161626
-0.15979
-0.157921
-0.156025
-0.154106
-0.152166
-0.150204
-0.148214
-0.146186
-0.144105
-0.141957
-0.139732
-0.13742
-0.135016
-0.132516
-0.129913
-0.127199
-0.124365
-0.121397
-0.118281
-0.114998
-0.111528
-0.107847
-0.103939
-0.099806
-0.0954685
-0.0909475
-0.0862681
-0.0814613
-0.076553
-0.0715641
-0.0665028
-0.0613577
-0.0561059
-0.050718
-0.0451548
-0.0393949
-0.03343
-0.0272845
-0.0211194
-0.0151369
-0.0111834
-0.00792472
-0.00475003
-0.00149367
0.00185333
0.00526043
0.00869608
0.0121372
0.0155694
0.0189851
0.0223806
0.0257549
0.029108
0.0324406
0.0357536
0.039048
0.0423247
0.0455847
0.0488289
0.0520585
0.0552743
0.0584775
0.061669
0.0648498
0.068021
0.0711835
0.0743381
0.0774858
0.0806274
0.0837636
0.0868952
0.0900229
0.0931472
0.0962687
0.099388
0.102506
0.105622
0.108738
-0.219035
-0.215945
-0.212924
-0.21001
-0.207244
-0.204658
-0.202266
-0.200075
-0.198089
-0.196298
-0.194696
-0.193265
-0.191992
-0.19086
-0.189855
-0.188959
-0.188159
-0.187434
-0.18676
-0.186126
-0.185518
-0.184923
-0.184323
-0.183714
-0.18309
-0.18244
-0.181757
-0.181036
-0.180258
-0.179421
-0.17851
-0.177516
-0.176427
-0.175234
-0.173928
-0.172509
-0.170986
-0.169375
-0.167688
-0.165946
-0.164163
-0.162351
-0.160516
-0.158664
-0.156801
-0.154932
-0.153057
-0.151172
-0.149264
-0.147318
-0.145317
-0.143241
-0.141076
-0.138811
-0.136441
-0.133957
-0.131352
-0.128616
-0.125736
-0.122698
-0.119485
-0.116075
-0.112446
-0.108583
-0.104483
-0.100151
-0.0956096
-0.0908935
-0.0860429
-0.0810898
-0.0760615
-0.0709763
-0.0658373
-0.0606258
-0.0553098
-0.0498457
-0.0441716
-0.0382304
-0.0319544
-0.0252385
-0.0179819
-0.0101796
-0.00815851
-0.00619092
-0.003673
-0.000739077
0.00244453
0.00576282
0.00914467
0.0125484
0.0159508
0.0193403
0.0227115
0.0260626
0.0293936
0.0327049
0.0359977
0.0392728
0.0425312
0.045774
0.0490022
0.0522167
0.0554184
0.0586084
0.0617876
0.064957
0.0681174
0.0712699
0.0744152
0.0775541
0.0806875
0.0838161
0.0869405
0.0900613
0.0931791
0.0962944
0.0994077
0.10252
0.10563
0.108741
-0.219064
-0.216033
-0.213065
-0.210202
-0.207481
-0.204939
-0.202595
-0.200455
-0.198518
-0.196774
-0.195215
-0.193825
-0.192591
-0.191495
-0.190525
-0.189661
-0.188889
-0.188191
-0.187545
-0.186934
-0.186349
-0.185772
-0.185187
-0.184591
-0.183977
-0.183334
-0.182658
-0.181939
-0.181165
-0.18033
-0.179421
-0.178426
-0.177333
-0.176134
-0.174819
-0.17339
-0.171853
-0.170222
-0.168521
-0.16677
-0.164986
-0.16318
-0.161361
-0.159537
-0.15772
-0.155912
-0.154107
-0.152303
-0.150477
-0.148611
-0.146683
-0.144674
-0.142564
-0.140337
-0.137989
-0.135512
-0.132897
-0.130129
-0.127195
-0.124081
-0.120767
-0.117231
-0.113451
-0.10942
-0.105136
-0.100614
-0.0958909
-0.091012
-0.0860264
-0.0809738
-0.0758806
-0.0707631
-0.0656139
-0.0603993
-0.0550683
-0.0495581
-0.0437958
-0.0377125
-0.0312153
-0.0240463
-0.0148946
0.000163932
-0.00530289
-0.00519042
-0.00316042
-0.000356614
0.00279856
0.00611639
0.00950221
0.0129067
0.0163048
0.0196851
0.0230432
0.0263784
0.0296916
0.0329843
0.036258
0.0395141
0.042754
0.045979
0.0491901
0.0523885
0.055575
0.0587507
0.0619165
0.0650734
0.0682222
0.0713637
0.0744988
0.0776283
0.0807528
0.083873
0.0869895
0.0901029
0.0932136
0.0963222
0.0994291
0.102535
0.105639
0.108744
-0.219089
-0.216108
-0.213198
-0.2104
-0.207748
-0.205267
-0.20298
-0.200893
-0.199006
-0.19731
-0.195797
-0.194448
-0.193251
-0.192189
-0.191248
-0.190412
-0.189667
-0.188993
-0.188369
-0.187776
-0.187205
-0.186637
-0.18606
-0.185469
-0.184856
-0.184215
-0.183539
-0.18282
-0.182047
-0.181212
-0.180304
-0.179309
-0.178214
-0.177011
-0.175694
-0.174261
-0.172726
-0.171095
-0.169393
-0.167647
-0.165876
-0.164093
-0.162306
-0.160529
-0.158772
-0.157034
-0.155306
-0.153585
-0.151842
-0.150052
-0.148193
-0.146243
-0.144175
-0.141973
-0.139637
-0.137155
-0.134521
-0.131716
-0.128725
-0.125534
-0.12212
-0.118462
-0.11454
-0.110343
-0.105879
-0.101193
-0.0963318
-0.0913388
-0.0862793
-0.081201
-0.0761329
-0.0710831
-0.0660259
-0.0609081
-0.0556519
-0.0501724
-0.0443953
-0.0382906
-0.0318574
-0.0250636
-0.0178227
-0.0106297
-0.00854401
-0.00637911
-0.00363802
-0.000502321
0.00284381
0.00628205
0.00974478
0.0131964
0.0166207
0.020012
0.0233703
0.0266984
0.0299994
0.0332766
0.0365328
0.0397706
0.0429919
0.0461985
0.0493918
0.052573
0.0557432
0.0589036
0.062055
0.0651984
0.0683346
0.0714644
0.0745885
0.0777077
0.0808227
0.0839339
0.087042
0.0901474
0.0932506
0.096352
0.099452
0.102551
0.105649
0.108747
-0.219122
-0.21621
-0.213367
-0.210634
-0.208048
-0.205633
-0.203412
-0.201386
-0.199554
-0.197905
-0.196435
-0.195124
-0.193962
-0.19293
-0.192016
-0.191205
-0.190481
-0.189828
-0.189219
-0.18864
-0.188075
-0.187507
-0.186929
-0.186335
-0.185717
-0.18507
-0.184387
-0.183659
-0.182881
-0.182042
-0.181133
-0.180136
-0.179041
-0.177839
-0.176526
-0.175095
-0.17357
-0.171952
-0.170271
-0.168549
-0.166809
-0.165066
-0.163332
-0.16162
-0.159937
-0.158278
-0.156634
-0.154996
-0.153333
-0.151611
-0.149811
-0.147905
-0.145862
-0.143671
-0.141336
-0.138844
-0.136184
-0.133339
-0.130289
-0.127021
-0.12351
-0.119737
-0.115687
-0.111356
-0.10677
-0.10198
-0.0970414
-0.0920099
-0.0869521
-0.0819428
-0.0770214
-0.0721706
-0.0673414
-0.0624559
-0.0573928
-0.0520457
-0.04635
-0.040343
-0.0341435
-0.0279234
-0.0219366
-0.0166333
-0.0122747
-0.00848968
-0.00479747
-0.00109672
0.00259976
0.00626211
0.00986966
0.0134137
0.0168945
0.0203175
0.0236901
0.0270202
0.0303149
0.0335801
0.0368209
0.0400411
0.0432438
0.0464315
0.0496061
0.0527692
0.0559222
0.0590662
0.0622022
0.0653312
0.0684539
0.0715712
0.0746836
0.0777919
0.0808966
0.0839983
0.0870974
0.0901944
0.0932896
0.0963834
0.0994761
0.102568
0.105659
0.10875
-0.219157
-0.216316
-0.213551
-0.210897
-0.208388
-0.206045
-0.203888
-0.201918
-0.20014
-0.198542
-0.197116
-0.195845
-0.194715
-0.193713
-0.192824
-0.192033
-0.191327
-0.190689
-0.190088
-0.189515
-0.188946
-0.188372
-0.187784
-0.187177
-0.186545
-0.185882
-0.185181
-0.184435
-0.183643
-0.182793
-0.181875
-0.180875
-0.17978
-0.178581
-0.177279
-0.175864
-0.174362
-0.172771
-0.171127
-0.16945
-0.167762
-0.16608
-0.164417
-0.162785
-0.161186
-0.159614
-0.158057
-0.156495
-0.154903
-0.153236
-0.151475
-0.149589
-0.147552
-0.145362
-0.143022
-0.140517
-0.137832
-0.134945
-0.131833
-0.128487
-0.124882
-0.121006
-0.116852
-0.112427
-0.107772
-0.10296
-0.0980577
-0.0931109
-0.0882009
-0.0834264
-0.0788146
-0.0743363
-0.0699208
-0.0654426
-0.0607011
-0.0555789
-0.0500183
-0.0441173
-0.0381001
-0.0321991
-0.0266158
-0.0214846
-0.0159145
-0.0109242
-0.00632025
-0.00198569
0.00214078
0.00609291
0.00989464
0.013567
0.0171301
0.020603
0.0240025
0.0273433
0.0306373
0.0338941
0.0371213
0.0403246
0.0435087
0.046677
0.0498321
0.0529762
0.0561109
0.0592376
0.0623573
0.065471
0.0685794
0.0716834
0.0747834
0.0778802
0.0809742
0.0840658
0.0871555
0.0902436
0.0933305
0.0964163
0.0995013
0.102586
0.10567
0.108754
-0.219202
-0.216448
-0.213766
-0.211193
-0.208762
-0.206495
-0.204407
-0.202502
-0.200778
-0.199226
-0.197839
-0.196604
-0.195506
-0.194531
-0.193664
-0.192891
-0.192198
-0.191569
-0.19097
-0.190391
-0.189811
-0.18922
-0.188612
-0.187982
-0.187325
-0.186633
-0.185901
-0.185127
-0.18431
-0.18344
-0.182507
-0.181498
-0.180402
-0.179211
-0.177927
-0.17654
-0.175076
-0.173535
-0.171947
-0.170332
-0.168717
-0.167117
-0.165542
-0.164001
-0.162492
-0.16101
-0.159532
-0.158037
-0.156498
-0.154864
-0.153115
-0.151222
-0.149176
-0.146974
-0.144622
-0.142097
-0.139381
-0.136447
-0.133275
-0.129849
-0.126154
-0.122184
-0.117949
-0.113487
-0.108872
-0.104176
-0.0994591
-0.0947702
-0.0902151
-0.0858969
-0.0818254
-0.0779542
-0.0741798
-0.070305
-0.0660264
-0.0612121
-0.0557893
-0.0498882
-0.0438234
-0.037811
-0.0319288
-0.0262465
-0.0195098
-0.0134369
-0.00797651
-0.00301161
0.00156469
0.00583291
0.00985398
0.013676
0.0173386
0.0208745
0.0243108
0.0276692
0.0309671
0.0342184
0.0374334
0.0406204
0.0437857
0.046934
0.0500689
0.053193
0.0563084
0.0594168
0.0625192
0.0656168
0.0687102
0.0718001
0.0748872
0.0779719
0.0810547
0.0841358
0.0872157
0.0902946
0.0933728
0.0964503
0.0995274
0.102604
0.105681
0.108757
-0.219252
-0.216594
-0.214
-0.211511
-0.209164
-0.206978
-0.204961
-0.20312
-0.20145
-0.199946
-0.1986
-0.197401
-0.196334
-0.195384
-0.194536
-0.193776
-0.193091
-0.192461
-0.191857
-0.191263
-0.190663
-0.190045
-0.189406
-0.188741
-0.188045
-0.18731
-0.186533
-0.185718
-0.184864
-0.183963
-0.183006
-0.181984
-0.180886
-0.179707
-0.178448
-0.177106
-0.175696
-0.174224
-0.172713
-0.171186
-0.169662
-0.168156
-0.166678
-0.165232
-0.163814
-0.162413
-0.161002
-0.159556
-0.158041
-0.156414
-0.154649
-0.152729
-0.150655
-0.148426
-0.146046
-0.143492
-0.140736
-0.13775
-0.13451
-0.131004
-0.127227
-0.123195
-0.118948
-0.114551
-0.110083
-0.105633
-0.101276
-0.0970673
-0.0931074
-0.0894984
-0.0862378
-0.0832445
-0.0803719
-0.0773046
-0.0736683
-0.0692605
-0.0639749
-0.0579333
-0.0514719
-0.0447981
-0.0379822
-0.0311325
-0.0229604
-0.0157954
-0.00954671
-0.00400937
0.000984814
0.00555651
0.00979516
0.0137704
0.0175379
0.0211427
0.0246207
0.0280009
0.0313057
0.0345532
0.037757
0.0409279
0.044074
0.0472016
0.0503152
0.0534184
0.0565136
0.0596026
0.062687
0.0657676
0.0688452
0.0719206
0.0749942
0.0780663
0.0811374
0.0842077
0.0872775
0.0903469
0.0934161
0.0964852
0.0995541
0.102623
0.105692
0.108761
-0.219297
-0.216733
-0.214234
-0.211841
-0.209584
-0.20748
-0.205538
-0.203764
-0.202152
-0.2007
-0.1994
-0.198237
-0.1972
-0.196271
-0.195436
-0.194683
-0.193998
-0.193357
-0.192736
-0.192119
-0.191487
-0.190832
-0.190152
-0.189439
-0.18869
-0.187898
-0.187063
-0.186193
-0.185291
-0.184349
-0.183362
-0.182326
-0.181232
-0.180075
-0.178852
-0.177565
-0.176222
-0.17483
-0.173409
-0.171976
-0.170552
-0.16915
-0.167777
-0.166428
-0.165096
-0.163761
-0.162397
-0.160974
-0.159457
-0.157809
-0.156
-0.154023
-0.151889
-0.149606
-0.147178
-0.14458
-0.141773
-0.138722
-0.135401
-0.131805
-0.127953
-0.123887
-0.119688
-0.115458
-0.111301
-0.107305
-0.10355
-0.100088
-0.097005
-0.0943837
-0.0922138
-0.0903749
-0.0886633
-0.0866183
-0.0838279
-0.0799531
-0.0748129
-0.0684833
-0.0612342
-0.0533026
-0.0448961
-0.0360243
-0.0258054
-0.0176132
-0.0107637
-0.0047966
0.00052694
0.00534985
0.00977593
0.0138877
0.0177518
0.0214219
0.024941
0.0283432
0.0316555
0.0348995
0.038092
0.0412463
0.0443726
0.0474785
0.0505699
0.0536511
0.056725
0.0597939
0.0628593
0.0659223
0.0689836
0.0720438
0.0751034
0.0781626
0.0812217
0.084281
0.0873404
0.0904001
0.0934602
0.0965206
0.0995813
0.102642
0.105703
0.108765
-0.219347
-0.216885
-0.214491
-0.2122
-0.210036
-0.208016
-0.206152
-0.204447
-0.202898
-0.201498
-0.20024
-0.19911
-0.198096
-0.197182
-0.196354
-0.195599
-0.194902
-0.19424
-0.19359
-0.192937
-0.192263
-0.19156
-0.190826
-0.190054
-0.18924
-0.188378
-0.187475
-0.186543
-0.185585
-0.184598
-0.183582
-0.182534
-0.181447
-0.180319
-0.179143
-0.177919
-0.176651
-0.175348
-0.174022
-0.172689
-0.171367
-0.170069
-0.168795
-0.167534
-0.166272
-0.164987
-0.163648
-0.162224
-0.160678
-0.158973
-0.157084
-0.15501
-0.152768
-0.150378
-0.147861
-0.145194
-0.142321
-0.139185
-0.135763
-0.132067
-0.128148
-0.124094
-0.120034
-0.116118
-0.11247
-0.109176
-0.106305
-0.103912
-0.102046
-0.100727
-0.0999312
-0.0995071
-0.0991753
-0.0983605
-0.0965837
-0.0933834
-0.0884751
-0.0817807
-0.0734444
-0.0637576
-0.0529373
-0.0406731
-0.0268078
-0.0183076
-0.0113488
-0.00520137
0.000314286
0.0053026
0.0098593
0.0140704
0.0180078
0.0217296
0.0252821
0.0287021
0.0320196
0.0352587
0.0384388
0.0415753
0.0446805
0.0477636
0.0508316
0.0538897
0.0569414
0.0599893
0.0630349
0.0660796
0.069124
0.0721687
0.0752139
0.07826
0.0813069
0.0843548
0.0874038
0.0904537
0.0935045
0.0965562
0.0996086
0.102662
0.105715
0.108769
-0.219406
-0.21706
-0.214776
-0.212587
-0.210518
-0.208586
-0.206803
-0.205167
-0.203679
-0.202329
-0.201111
-0.20001
-0.199011
-0.198101
-0.197267
-0.196495
-0.195771
-0.195074
-0.194383
-0.193682
-0.192955
-0.192196
-0.1914
-0.190562
-0.189676
-0.188742
-0.187768
-0.186772
-0.185761
-0.184736
-0.183697
-0.182642
-0.181569
-0.180474
-0.17935
-0.178193
-0.177004
-0.175788
-0.174554
-0.173317
-0.172091
-0.170881
-0.169685
-0.168489
-0.167275
-0.166016
-0.16468
-0.16323
-0.161628
-0.159836
-0.157826
-0.155597
-0.153176
-0.150608
-0.147931
-0.145144
-0.142176
-0.138934
-0.13539
-0.131588
-0.127627
-0.123655
-0.119867
-0.116473
-0.113617
-0.11136
-0.109733
-0.10879
-0.108508
-0.108821
-0.109646
-0.110819
-0.111984
-0.112531
-0.111885
-0.10951
-0.105002
-0.0980041
-0.0885042
-0.0766859
-0.0624865
-0.0451461
-0.0135488
-0.0174889
-0.0112356
-0.00513832
0.000441769
0.00549595
0.010106
0.0143607
0.018334
0.0220837
0.025655
0.0290842
0.0324015
0.0356322
0.0387973
0.0419141
0.0449965
0.0480553
0.0510987
0.0541326
0.0571611
0.0601871
0.0632124
0.0662383
0.0692654
0.0722942
0.0753248
0.0783575
0.0813921
0.0844287
0.0874671
0.0905071
0.0935488
0.0965917
0.0996358
0.102681
0.105726
0.108772
-0.219468
-0.217243
-0.215074
-0.212992
-0.211022
-0.209182
-0.20748
-0.205915
-0.204484
-0.203179
-0.201992
-0.200907
-0.199908
-0.198986
-0.198129
-0.197323
-0.196555
-0.195807
-0.195059
-0.194297
-0.19351
-0.192692
-0.191837
-0.190936
-0.189985
-0.188986
-0.187953
-0.186906
-0.185854
-0.184805
-0.183758
-0.182712
-0.181663
-0.180603
-0.179526
-0.178428
-0.177306
-0.176164
-0.175008
-0.173847
-0.17269
-0.171541
-0.170392
-0.169229
-0.168033
-0.166773
-0.165416
-0.163918
-0.162235
-0.160324
-0.158152
-0.155714
-0.153031
-0.150164
-0.147193
-0.144181
-0.141088
-0.137733
-0.134059
-0.130171
-0.126249
-0.122518
-0.119242
-0.116702
-0.115035
-0.114232
-0.114276
-0.115191
-0.116841
-0.119041
-0.121617
-0.124446
-0.127146
-0.129078
-0.129594
-0.128103
-0.12405
-0.116724
-0.105852
-0.0915078
-0.0736338
-0.0518394
-0.0147127
-0.0179146
-0.0109619
-0.00463443
0.000975893
0.00599566
0.0105653
0.014793
0.0187537
0.0224997
0.0260696
0.0294953
0.0328043
0.0360211
0.0391675
0.0422617
0.0453192
0.048352
0.0513693
0.0543778
0.0573822
0.0603856
0.0633901
0.0663968
0.0694063
0.072419
0.075435
0.0784542
0.0814765
0.0845017
0.0875296
0.0905599
0.0935924
0.0966267
0.0996626
0.1027
0.105738
0.108776
-0.219529
-0.217426
-0.215373
-0.2134
-0.211532
-0.209784
-0.208163
-0.206663
-0.205281
-0.204009
-0.202835
-0.201744
-0.200724
-0.199768
-0.198863
-0.198
-0.197165
-0.196344
-0.195525
-0.1947
-0.193859
-0.192995
-0.192097
-0.191155
-0.190164
-0.189127
-0.188061
-0.186989
-0.185926
-0.184879
-0.183848
-0.182829
-0.181811
-0.180781
-0.179735
-0.178671
-0.177588
-0.176487
-0.17537
-0.174245
-0.173114
-0.171979
-0.170833
-0.169664
-0.168455
-0.167174
-0.16578
-0.164222
-0.162445
-0.160393
-0.158026
-0.155322
-0.152279
-0.148946
-0.145492
-0.142082
-0.138784
-0.135324
-0.131565
-0.127698
-0.12401
-0.120826
-0.118483
-0.117316
-0.117389
-0.118559
-0.120772
-0.123941
-0.12777
-0.131854
-0.135989
-0.140356
-0.144605
-0.147878
-0.149545
-0.148882
-0.145168
-0.137366
-0.124848
-0.10756
-0.0855812
-0.0593676
-0.0317593
-0.0185907
-0.0100088
-0.00345387
0.00201935
0.00684908
0.0112633
0.0153847
0.0192799
0.0229872
0.026533
0.02994
0.0332304
0.0364264
0.0395489
0.042617
0.0456468
0.0486515
0.0516412
0.0546232
0.0576028
0.0605831
0.0635663
0.0665535
0.0695454
0.072542
0.0755433
0.0785492
0.0815593
0.0845733
0.0875908
0.0906115
0.093635
0.0966609
0.0996888
0.102718
0.105749
0.10878
-0.219589
-0.217601
-0.21566
-0.213792
-0.212018
-0.210352
-0.208795
-0.207346
-0.205994
-0.204729
-0.20354
-0.202415
-0.201346
-0.200327
-0.199349
-0.198403
-0.197482
-0.196581
-0.195697
-0.194826
-0.193958
-0.193081
-0.192181
-0.191243
-0.190258
-0.189228
-0.188174
-0.187126
-0.186097
-0.185092
-0.184105
-0.18312
-0.182121
-0.181095
-0.180039
-0.178961
-0.177862
-0.176742
-0.175603
-0.174448
-0.173279
-0.172096
-0.170897
-0.16968
-0.168436
-0.167132
-0.165713
-0.164106
-0.16224
-0.16005
-0.157477
-0.154457
-0.15094
-0.146946
-0.14279
-0.138786
-0.135156
-0.131571
-0.127842
-0.124235
-0.121147
-0.119005
-0.118233
-0.119221
-0.12178
-0.125588
-0.130481
-0.13609
-0.142064
-0.14758
-0.152489
-0.158137
-0.164078
-0.168701
-0.171549
-0.171737
-0.16785
-0.159201
-0.144911
-0.12433
-0.0976456
-0.0643287
-0.0207675
-0.0145071
-0.00704567
-0.00128107
0.00361173
0.00803702
0.01218
0.0161256
0.01991
0.0235476
0.0270474
0.0304201
0.0336807
0.0368475
0.0399403
0.0429778
0.0459769
0.0489513
0.0519119
0.0548665
0.0578204
0.0607773
0.063739
0.0667068
0.0696811
0.0726617
0.0756486
0.0786414
0.0816395
0.0846425
0.08765
0.0906614
0.0936762
0.0966939
0.099714
0.102736
0.105759
0.108783
-0.219639
-0.217749
-0.215901
-0.214119
-0.21242
-0.210812
-0.209294
-0.207861
-0.206501
-0.205202
-0.203956
-0.202758
-0.201602
-0.200488
-0.199412
-0.198373
-0.197369
-0.196404
-0.195486
-0.194618
-0.193788
-0.192974
-0.192149
-0.191286
-0.19037
-0.189404
-0.18842
-0.187457
-0.186518
-0.185595
-0.184666
-0.183705
-0.182689
-0.181608
-0.180468
-0.17929
-0.17808
-0.176848
-0.1756
-0.174336
-0.173055
-0.171756
-0.170453
-0.169161
-0.167889
-0.166597
-0.165201
-0.163591
-0.161679
-0.159381
-0.156598
-0.153217
-0.149134
-0.144329
-0.13925
-0.134452
-0.130352
-0.126602
-0.123102
-0.120174
-0.118302
-0.117945
-0.119636
-0.123837
-0.129796
-0.136898
-0.144827
-0.152477
-0.159988
-0.165779
-0.169623
-0.176523
-0.184947
-0.191295
-0.195673
-0.197257
-0.191595
-0.181302
-0.164676
-0.140062
-0.110053
-0.0716518
-0.0221847
-0.00840781
-0.00263117
0.00154474
0.00551944
0.00941763
0.0132382
0.0169775
0.020627
0.0241745
0.0276108
0.0309348
0.0341541
0.0372831
0.0403394
0.0433416
0.0463065
0.0492485
0.0521785
0.0551047
0.0580327
0.0609659
0.0639063
0.0668549
0.0698118
0.0727768
0.0757497
0.0787297
0.0817162
0.0847087
0.0877065
0.090709
0.0937155
0.0967254
0.0997381
0.102753
0.105769
0.108787
-0.219669
-0.217837
-0.21604
-0.214298
-0.212625
-0.211024
-0.209489
-0.208012
-0.206583
-0.205195
-0.203844
-0.202528
-0.201251
-0.200019
-0.198842
-0.197729
-0.19669
-0.195738
-0.194887
-0.194138
-0.19347
-0.192835
-0.192188
-0.191492
-0.190719
-0.18988
-0.189027
-0.188207
-0.187392
-0.186557
-0.185663
-0.18467
-0.183549
-0.182294
-0.180935
-0.179511
-0.178054
-0.176591
-0.175144
-0.173701
-0.172259
-0.170818
-0.169409
-0.168083
-0.166863
-0.165683
-0.1644
-0.162847
-0.160952
-0.158605
-0.155621
-0.151826
-0.147084
-0.141369
-0.1352
-0.129434
-0.124756
-0.120928
-0.11807
-0.116591
-0.11689
-0.119278
-0.124391
-0.132904
-0.143189
-0.1539
-0.164691
-0.172586
-0.180285
-0.184454
-0.182576
-0.191402
-0.20413
-0.212177
-0.219932
-0.223877
-0.213562
-0.200356
-0.179827
-0.151364
-0.128868
-0.0849487
-0.0431252
0.00415765
0.00282114
0.00421256
0.00729542
0.0107769
0.0143371
0.017893
0.0214091
0.0248577
0.0282182
0.0314809
0.0346478
0.0377297
0.0407428
0.0437047
0.0466321
0.0495393
0.0524375
0.0553349
0.0582368
0.0611465
0.064066
0.0669958
0.0699359
0.0728859
0.0758452
0.078813
0.0817886
0.0847711
0.0877597
0.0907537
0.0937524
0.0967549
0.0997606
0.102769
0.105779
0.10879
-0.219663
-0.217814
-0.215989
-0.214204
-0.212465
-0.210775
-0.209131
-0.207525
-0.205952
-0.204407
-0.202892
-0.20142
-0.200006
-0.198672
-0.197454
-0.196372
-0.195447
-0.194693
-0.194115
-0.19369
-0.193347
-0.193028
-0.192675
-0.192229
-0.191652
-0.190967
-0.190265
-0.189581
-0.18885
-0.188032
-0.187065
-0.185898
-0.184498
-0.18289
-0.181135
-0.179279
-0.177404
-0.175592
-0.173897