/*--------------------------------*- C++ -*----------------------------------*\
  =========                 |
  \\      /  F ield         | OpenFOAM: The Open Source CFD Toolbox
   \\    /   O peration     | Website:  https://openfoam.org
    \\  /    A nd           | Version:  6
     \\/     M anipulation  |
\*---------------------------------------------------------------------------*/
FoamFile
{
    version     2.0;
    format      ascii;
    class       surfaceScalarField;
    location    "4850";
    object      phi;
}
// * * * * * * * * * * * * * * * * * * * * * * * * * * * * * * * * * * * * * //

dimensions      [0 3 -1 0 0 0 0];

internalField   nonuniform List<scalar> 
9440
(
7.43084e-11
-7.43084e-11
-1.27028e-11
8.70121e-11
-2.00887e-10
1.88185e-10
-2.03936e-10
3.04964e-12
-3.0071e-10
9.67752e-11
-3.63326e-10
6.26169e-11
-5.30777e-10
1.67452e-10
-5.73601e-10
4.28258e-11
-8.81795e-10
3.08195e-10
-9.56898e-10
7.5105e-11
-1.17538e-09
2.18481e-10
-1.2614e-09
8.60233e-11
-1.41571e-09
1.54316e-10
-1.51026e-09
9.45454e-11
-1.59671e-09
8.64499e-11
-1.65359e-09
5.68823e-11
-1.7033e-09
4.97151e-11
-1.77183e-09
6.85273e-11
-1.82395e-09
5.21112e-11
-1.829e-09
5.05678e-12
-1.80802e-09
-2.09846e-11
-1.78182e-09
-2.62035e-11
-1.72256e-09
-5.92624e-11
-1.61271e-09
-1.09855e-10
-1.633e-09
2.02914e-11
-1.42395e-09
-2.09052e-10
-1.27709e-09
-1.46867e-10
-1.16987e-09
-1.07219e-10
-1.14487e-09
-2.5e-11
-6.12128e-10
-5.32749e-10
-6.32212e-10
2.00813e-11
-4.11395e-11
-5.91077e-10
2.31202e-10
-2.72346e-10
4.49062e-10
-2.17864e-10
6.8948e-10
-2.40423e-10
9.45588e-10
-2.56112e-10
1.20499e-09
-2.59402e-10
1.35037e-09
-1.45386e-10
1.61099e-09
-2.60622e-10
1.6938e-09
-8.28192e-11
1.64275e-09
5.10518e-11
1.71726e-09
-7.45097e-11
1.74616e-09
-2.88967e-11
1.68549e-09
6.06685e-11
1.57158e-09
1.13916e-10
1.36414e-09
2.07442e-10
9.77434e-10
3.86709e-10
6.53374e-10
3.24063e-10
3.18118e-10
3.35258e-10
6.75669e-11
2.50554e-10
-1.10719e-10
1.78289e-10
-3.43984e-10
2.33266e-10
-5.65146e-10
2.21164e-10
-7.29273e-10
1.64128e-10
-8.43563e-10
1.1429e-10
-9.09046e-10
6.54812e-11
-8.79066e-10
-2.99809e-11
-8.17564e-10
-6.15052e-11
-7.31303e-10
-8.62647e-11
-6.42653e-10
-8.8654e-11
-5.93075e-10
-4.9582e-11
-5.17564e-10
-7.55146e-11
-4.84441e-10
-3.31264e-11
-4.63157e-10
-2.12863e-11
-2.80703e-10
-1.82455e-10
1.14316e-10
-3.95018e-10
7.19058e-10
-6.04741e-10
8.48675e-10
-1.29616e-10
1.24899e-09
-4.00308e-10
1.6653e-09
-4.16311e-10
2.00862e-09
-3.43318e-10
2.15726e-09
-1.48646e-10
2.20577e-09
-4.85133e-11
2.14903e-09
5.67424e-11
1.97852e-09
1.70511e-10
1.77254e-09
2.05976e-10
1.43788e-09
3.3466e-10
9.7287e-10
4.65015e-10
6.45846e-10
3.27026e-10
3.38769e-10
3.07082e-10
-1.84368e-14
3.38802e-10
-6.34354e-18
2.36978e-19
-6.37373e-18
3.01893e-20
-6.32626e-18
-4.24462e-20
-6.13765e-18
-1.87753e-19
-5.82612e-18
-3.11225e-19
-5.42262e-18
-4.02474e-19
-4.95283e-18
-4.68002e-19
-4.43533e-18
-5.15301e-19
-3.88263e-18
-5.50103e-19
-3.30448e-18
-5.75327e-19
-2.70928e-18
-5.92047e-19
-2.10538e-18
-6.00339e-19
-1.50145e-18
-5.99951e-19
-9.06529e-19
-5.9075e-19
-3.29965e-19
-5.72773e-19
2.19263e-19
-5.46232e-19
7.33173e-19
-5.11717e-19
1.20464e-18
-4.70211e-19
1.62746e-18
-4.22876e-19
1.99676e-18
-3.70851e-19
2.30925e-18
-3.1524e-19
2.56325e-18
-2.57199e-19
2.75845e-18
-1.97961e-19
2.89557e-18
-1.38798e-19
2.97597e-18
-8.09505e-20
3.00145e-18
-2.55103e-20
2.97433e-18
2.67142e-20
2.89768e-18
7.5248e-20
2.77535e-18
1.19876e-19
2.61175e-18
1.60506e-19
2.41149e-18
1.97086e-19
2.17912e-18
2.29582e-19
1.91905e-18
2.57989e-19
1.63542e-18
2.82317e-19
1.33218e-18
3.02553e-19
1.01313e-18
3.18649e-19
6.82061e-19
3.30548e-19
3.42919e-19
3.38216e-19
3.41605e-19
-2.06818e-10
1.32511e-10
-2.22965e-10
1.0316e-10
-2.78761e-10
2.43981e-10
-4.53155e-10
1.77444e-10
-5.17475e-10
1.61097e-10
-7.73562e-10
3.18706e-10
-7.87225e-10
1.81118e-10
-1.14275e-09
3.98358e-10
-1.14462e-09
3.10064e-10
-1.3827e-09
3.13189e-10
-1.4173e-09
2.53078e-10
-1.60937e-09
2.78097e-10
-1.68157e-09
2.26523e-10
-1.79677e-09
2.09739e-10
-1.85343e-09
1.43117e-10
-1.91743e-09
1.20876e-10
-1.99065e-09
1.22929e-10
-2.05102e-09
1.28894e-10
-2.09787e-09
9.89564e-11
-2.12303e-09
3.02176e-11
-2.12291e-09
-2.11059e-11
-2.12085e-09
-2.82676e-11
-2.09981e-09
-8.03103e-11
-2.04716e-09
-1.62508e-10
-1.95142e-09
-7.54524e-11
-2.02791e-09
-1.32564e-10
-1.76586e-09
-4.08923e-10
-1.72322e-09
-1.49868e-10
-1.46142e-09
-2.868e-10
-1.38644e-09
-6.07732e-10
-1.18001e-09
-1.86356e-10
-7.53887e-10
-1.01721e-09
-5.17903e-10
-5.08338e-10
-1.60788e-10
-5.74988e-10
2.24356e-10
-6.25575e-10
4.89548e-10
-5.21312e-10
6.83481e-10
-4.53342e-10
9.68533e-10
-4.30443e-10
1.17029e-09
-4.62379e-10
1.35124e-09
-2.63778e-10
1.40698e-09
-4.6804e-12
1.50799e-09
-1.75522e-10
1.46471e-09
1.4388e-11
1.44736e-09
7.80272e-11
1.33992e-09
2.21356e-10
1.19004e-09
3.57323e-10
1.05706e-09
5.19702e-10
6.26421e-10
7.54702e-10
2.6019e-10
7.01495e-10
-4.45796e-11
5.55327e-10
-2.12896e-10
3.46608e-10
-3.40585e-10
3.60958e-10
-4.73148e-10
3.53728e-10
-5.82694e-10
2.73674e-10
-6.47038e-10
1.78632e-10
-6.8145e-10
9.98903e-11
-6.8895e-10
-2.24851e-11
-6.81291e-10
-6.91703e-11
-6.59132e-10
-1.0843e-10
-6.00542e-10
-1.4725e-10
-5.40782e-10
-1.09348e-10
-4.742e-10
-1.42101e-10
-4.04907e-10
-1.02422e-10
-2.17489e-10
-2.08704e-10
-2.58501e-11
-3.74094e-10
1.79619e-10
-6.00485e-10
6.74815e-10
-1.09993e-09
1.08879e-09
-5.4359e-10
1.4741e-09
-7.85617e-10
1.76642e-09
-7.08629e-10
1.95526e-09
-5.32154e-10
2.10649e-09
-2.99878e-10
2.08655e-09
-2.85695e-11
2.00122e-09
1.42063e-10
1.84237e-09
3.29362e-10
1.66317e-09
3.85178e-10
1.37727e-09
6.20568e-10
1.3168e-09
5.25489e-10
9.42592e-10
7.01235e-10
5.78126e-10
6.71536e-10
-7.15527e-16
9.16882e-10
-5.90929e-18
2.96259e-18
-6.4539e-18
5.67582e-19
-6.4766e-18
-1.95315e-20
-6.26397e-18
-3.97681e-19
-5.91829e-18
-6.53564e-19
-5.48813e-18
-8.28955e-19
-5.00013e-18
-9.51785e-19
-4.47013e-18
-1.04079e-18
-3.90785e-18
-1.10728e-18
-3.3212e-18
-1.15636e-18
-2.71758e-18
-1.18952e-18
-2.105e-18
-1.20651e-18
-1.49225e-18
-1.20645e-18
-8.88552e-19
-1.1887e-18
-3.03423e-19
-1.15307e-18
2.53778e-19
-1.10009e-18
7.74678e-19
-1.031e-18
1.25198e-18
-9.47534e-19
1.67949e-18
-8.5182e-19
2.05237e-18
-7.46176e-19
2.36729e-18
-6.3305e-19
2.62249e-18
-5.15098e-19
2.81761e-18
-3.95208e-19
2.95342e-18
-2.76246e-19
3.03141e-18
-1.6066e-19
3.05367e-18
-5.02102e-20
3.02286e-18
5.39858e-20
2.94231e-18
1.51237e-19
2.81598e-18
2.4106e-19
2.64833e-18
3.23083e-19
2.44398e-18
3.97021e-19
2.20753e-18
4.62678e-19
1.94338e-18
5.19926e-19
1.65566e-18
5.68681e-19
1.34828e-18
6.08904e-19
1.02503e-18
6.40633e-19
6.8973e-19
6.64014e-19
3.46308e-19
6.79308e-19
6.86878e-19
-1.10031e-10
2.42542e-10
-2.99425e-10
2.92554e-10
-4.26389e-10
3.70946e-10
-6.04627e-10
3.55682e-10
-8.20626e-10
3.77095e-10
-9.3868e-10
4.36761e-10
-1.13756e-09
3.79995e-10
-1.28155e-09
5.42356e-10
-1.39751e-09
4.26022e-10
-1.55391e-09
4.69593e-10
-1.66044e-09
3.5961e-10
-1.76435e-09
3.82007e-10
-1.90495e-09
3.67119e-10
-2.0008e-09
3.05594e-10
-2.07981e-09
2.22122e-10
-2.17416e-09
2.15222e-10
-2.2629e-09
2.11669e-10
-2.31287e-09
1.7886e-10
-2.35561e-09
1.41691e-10
-2.37743e-09
5.20436e-11
-2.37186e-09
-2.66826e-11
-2.3921e-09
-8.03055e-12
-2.40259e-09
-6.98176e-11
-2.30918e-09
-2.55922e-10
-2.22434e-09
-1.60291e-10
-2.1775e-09
-1.79409e-10
-2.05418e-09
-5.32248e-10
-1.88465e-09
-3.19405e-10
-1.70274e-09
-4.68713e-10
-1.74992e-09
-5.60548e-10
-1.40659e-09
-5.29698e-10
-1.33642e-09
-1.08739e-09
-1.22957e-09
-6.15191e-10
-9.91459e-10
-8.13107e-10
-6.63393e-10
-9.53648e-10
-2.49672e-10
-9.35039e-10
1.12781e-10
-8.158e-10
4.9563e-10
-8.13296e-10
6.41834e-10
-6.08586e-10
7.99275e-10
-4.2122e-10
9.97072e-10
-2.02478e-10
1.05027e-09
-2.28717e-10
1.08595e-09
-2.12976e-11
1.08544e-09
7.85436e-11
9.79509e-10
3.27291e-10
8.91989e-10
4.44847e-10
7.32731e-10
6.78964e-10
6.10271e-10
8.77166e-10
4.35112e-10
8.76658e-10
2.14792e-10
7.75651e-10
-4.82938e-11
6.09698e-10
-2.36495e-10
5.49163e-10
-3.23452e-10
4.40686e-10
-4.11254e-10
3.61477e-10
-4.77572e-10
2.4495e-10
-4.99937e-10
1.22254e-10
-5.2199e-10
-4.3536e-13
-5.21702e-10
-6.94611e-11
-4.9324e-10
-1.36895e-10
-4.65831e-10
-1.74661e-10
-4.30463e-10
-1.44718e-10
-3.86437e-10
-1.86129e-10
-2.08115e-10
-2.80744e-10
5.18424e-11
-4.6866e-10
3.80301e-10
-7.0255e-10
6.27821e-10
-8.48002e-10
8.99958e-10
-1.37207e-09
1.43699e-09
-1.08062e-09
1.6476e-09
-9.96233e-10
1.76251e-09
-8.23528e-10
1.84831e-09
-6.17958e-10
1.92993e-09
-3.81495e-10
1.90222e-09
-8.63216e-13
1.83936e-09
2.0493e-10
1.71971e-09
4.49008e-10
1.56969e-09
5.35197e-10
1.45683e-09
7.3343e-10
1.07485e-09
9.07474e-10
7.97884e-10
9.7822e-10
4.62137e-10
1.00731e-09
-1.89375e-16
1.37903e-09
-7.00932e-18
3.97312e-18
-7.03977e-18
5.98659e-19
-6.85364e-18
-2.03882e-19
-6.51885e-18
-7.29558e-19
-6.09277e-18
-1.07623e-18
-5.61053e-18
-1.30763e-18
-5.08913e-18
-1.46926e-18
-4.53662e-18
-1.58947e-18
-3.95693e-18
-1.68299e-18
-3.35436e-18
-1.75496e-18
-2.73456e-18
-1.80536e-18
-2.10494e-18
-1.83208e-18
-1.47449e-18
-1.83279e-18
-8.52924e-19
-1.80601e-18
-2.50447e-19
-1.75134e-18
3.22873e-19
-1.66954e-18
8.5814e-19
-1.56266e-18
1.34769e-18
-1.4337e-18
1.78513e-18
-1.2863e-18
2.16549e-18
-1.12442e-18
2.48524e-18
-9.52117e-19
2.74238e-18
-7.73395e-19
2.93658e-18
-5.92245e-19
3.069e-18
-4.12494e-19
3.14186e-18
-2.37533e-19
3.15787e-18
-7.00539e-20
3.12011e-18
8.802e-20
3.03213e-18
2.35412e-19
2.89801e-18
3.71292e-19
2.72227e-18
4.95103e-19
2.50964e-18
6.06456e-19
2.26478e-18
7.05073e-19
1.99213e-18
7.9078e-19
1.69588e-18
8.6352e-19
1.38001e-18
9.23367e-19
1.04841e-18
9.70548e-19
7.05023e-19
1.00542e-18
3.53878e-19
1.02841e-18
1.03988e-18
-3.53362e-10
5.95904e-10
-5.78762e-10
5.17953e-10
-6.47264e-10
4.39447e-10
-7.56385e-10
4.64803e-10
-9.11097e-10
5.31807e-10
-1.16156e-09
6.87226e-10
-1.36061e-09
5.79047e-10
-1.42241e-09
6.0415e-10
-1.60728e-09
6.10889e-10
-1.72723e-09
5.8955e-10
-1.83051e-09
4.62882e-10
-1.98473e-09
5.36228e-10
-2.10333e-09
4.8572e-10
-2.20448e-09
4.06745e-10
-2.30081e-09
3.18451e-10
-2.41999e-09
3.34399e-10
-2.47265e-09
2.64319e-10
-2.51194e-09
2.18154e-10
-2.58291e-09
2.1266e-10
-2.56489e-09
3.40192e-11
-2.5133e-09
-7.82737e-11
-2.50821e-09
-1.31162e-11
-2.46865e-09
-1.0938e-10
-2.37276e-09
-3.51819e-10
-2.24739e-09
-2.85663e-10
-2.11783e-09
-3.08963e-10
-2.17313e-09
-4.76951e-10
-1.91754e-09
-5.75001e-10
-1.78453e-09
-6.01721e-10
-1.64206e-09
-7.03027e-10
-1.3655e-09
-8.06259e-10
-1.46671e-09
-9.86189e-10
-1.30331e-09
-7.78591e-10
-1.17716e-09
-9.39262e-10
-1.0525e-09
-1.07832e-09
-8.87226e-10
-1.10032e-09
-5.64577e-10
-1.13845e-09
-7.83727e-11
-1.29951e-09
1.92428e-10
-8.79391e-10
3.96307e-10
-6.25102e-10
5.8034e-10
-3.86512e-10
5.77404e-10
-2.2578e-10
6.09971e-10
-5.38639e-11
6.0491e-10
8.36077e-11
5.8932e-10
3.42883e-10
5.57776e-10
4.76396e-10
4.92534e-10
7.44212e-10
4.21919e-10
9.47786e-10
3.33664e-10
9.64918e-10
2.15402e-10
8.93917e-10
6.37842e-11
7.61319e-10
-6.93407e-11
6.82291e-10
-1.83334e-10
5.54682e-10
-2.47095e-10
4.25239e-10
-2.94643e-10
2.92499e-10
-3.36679e-10
1.64291e-10
-3.74152e-10
3.70374e-11
-3.65335e-10
-7.82775e-11
-3.2609e-10
-1.7614e-10
-3.04957e-10
-1.95793e-10
-2.07315e-10
-2.42358e-10
-2.59397e-12
-3.90848e-10
2.68667e-10
-5.52002e-10
5.5351e-10
-7.535e-10
8.88103e-10
-1.03714e-09
1.2834e-09
-1.2433e-09
1.27268e-09
-1.36134e-09
1.54888e-09
-1.35681e-09
1.73256e-09
-1.17992e-09
1.69862e-09
-7.89581e-10
1.60798e-09
-5.27315e-10
1.76412e-09
-5.37633e-10
1.68999e-09
7.3266e-11
1.61762e-09
2.77303e-10
1.50476e-09
5.61872e-10
1.33687e-09
7.03082e-10
1.2013e-09
8.68999e-10
9.06349e-10
1.20243e-09
5.69301e-10
1.31526e-09
3.45445e-10
1.23117e-09
-1.30611e-15
1.72448e-09
-8.38641e-18
2.88803e-18
-7.84102e-18
5.4907e-20
-7.37822e-18
-6.6341e-19
-6.86455e-18
-1.23917e-18
-6.3233e-18
-1.61291e-18
-5.7718e-18
-1.85475e-18
-5.20935e-18
-2.0272e-18
-4.63014e-18
-2.16494e-18
-4.0289e-18
-2.28103e-18
-3.40477e-18
-2.37634e-18
-2.76128e-18
-2.44636e-18
-2.10565e-18
-2.48521e-18
-1.44771e-18
-2.48801e-18
-7.9825e-19
-2.45207e-18
-1.68651e-19
-2.37684e-18
4.29753e-19
-2.26366e-18
9.87101e-19
-2.11563e-18
1.49509e-18
-1.93732e-18
1.94701e-18
-1.73421e-18
2.3378e-18
-1.51217e-18
2.66396e-18
-1.27692e-18
2.92353e-18
-1.03386e-18
3.11633e-18
-7.88092e-19
3.24396e-18
-5.44498e-19
3.30934e-18
-3.07522e-19
3.31594e-18
-8.08428e-20
3.26751e-18
1.32812e-19
3.16801e-18
3.31605e-19
3.02182e-18
5.14372e-19
2.83362e-18
6.80385e-19
2.60826e-18
8.29187e-19
2.35049e-18
9.60521e-19
2.06487e-18
1.07431e-18
1.75573e-18
1.17066e-18
1.42719e-18
1.24985e-18
1.08329e-18
1.31234e-18
7.28016e-19
1.35863e-18
3.6535e-19
1.38926e-18
1.40459e-18
-1.20584e-10
7.16488e-10
-3.24959e-10
7.22327e-10
-7.03286e-10
8.17773e-10
-9.9353e-10
7.55046e-10
-1.1332e-09
6.7148e-10
-1.28075e-09
8.34769e-10
-1.49926e-09
7.97561e-10
-1.63595e-09
7.40832e-10
-1.73491e-09
7.0985e-10
-1.8578e-09
7.1244e-10
-2.05295e-09
6.58033e-10
-2.18109e-09
6.6436e-10
-2.30407e-09
6.08705e-10
-2.34382e-09
4.46485e-10
-2.45002e-09
4.24655e-10
-2.55928e-09
4.43656e-10
-2.62328e-09
3.28319e-10
-2.6491e-09
2.4397e-10
-2.69494e-09
2.58507e-10
-2.61983e-09
-4.10917e-11
-2.43751e-09
-2.60603e-10
-2.31993e-09
-1.30691e-10
-2.37381e-09
-5.55025e-11
-2.18467e-09
-5.40954e-10
-2.05541e-09
-4.14927e-10
-1.87555e-09
-4.88819e-10
-1.75331e-09
-5.99202e-10
-1.63001e-09
-6.98301e-10
-1.46232e-09
-7.69415e-10
-1.3596e-09
-8.0575e-10
-1.31401e-09
-8.51858e-10
-1.40787e-09
-8.92331e-10
-1.20065e-09
-9.85812e-10
-1.13328e-09
-1.00664e-09
-1.0161e-09
-1.19551e-09
-8.63731e-10
-1.2527e-09
-6.65377e-10
-1.33681e-09
-5.46328e-10
-1.41856e-09
-2.82177e-10
-1.14355e-09
-1.19585e-11
-8.95324e-10
1.40158e-10
-5.3863e-10
1.64327e-10
-2.4995e-10
1.72503e-10
-6.20378e-11
1.93432e-10
6.26811e-11
2.41134e-10
2.95185e-10
2.2971e-10
4.87824e-10
2.65931e-10
7.07996e-10
2.5842e-10
9.55302e-10
2.23118e-10
1.00022e-09
1.60364e-10
9.56676e-10
6.45088e-11
8.57179e-10
-2.02936e-11
7.67097e-10
-9.67514e-11
6.31144e-10
-1.30812e-10
4.59303e-10
-1.49392e-10
3.11083e-10
-1.73895e-10
1.88797e-10
-1.92677e-10
5.5823e-11
-1.84795e-10
-8.61564e-11
-1.76888e-10
-1.84042e-10
-6.87869e-11
-3.0389e-10
9.67663e-11
-4.07907e-10
2.7722e-10
-5.71297e-10
4.85142e-10
-7.5992e-10
7.27578e-10
-9.95933e-10
9.87612e-10
-1.29717e-09
1.31649e-09
-1.57217e-09
1.4858e-09
-1.53065e-09
1.53644e-09
-1.40745e-09
1.66137e-09
-1.30484e-09
1.6394e-09
-7.67604e-10
1.65739e-09
-5.45307e-10
1.52721e-09
-4.07448e-10
1.36519e-09
2.35292e-10
1.26397e-09
3.78526e-10
1.27524e-09
5.50598e-10
1.21441e-09
7.63914e-10
1.10861e-09
9.74801e-10
1.02156e-09
1.28948e-09
8.97206e-10
1.43962e-09
5.80918e-10
1.54746e-09
-1.90131e-15
2.30541e-09
-8.43166e-18
6.97023e-18
-8.55807e-18
1.83259e-19
-7.9529e-18
-1.26406e-18
-7.23737e-18
-1.94949e-18
-6.56432e-18
-2.28013e-18
-5.944e-18
-2.47001e-18
-5.34709e-18
-2.61902e-18
-4.74623e-18
-2.76181e-18
-4.12421e-18
-2.9003e-18
-3.47478e-18
-3.02395e-18
-2.80013e-18
-3.11964e-18
-2.10846e-18
-3.17568e-18
-1.41177e-18
-3.1837e-18
-7.23022e-19
-3.13947e-18
-5.54665e-20
-3.04241e-18
5.77777e-19
-2.8948e-18
1.16541e-18
-2.70122e-18
1.6982e-18
-2.46806e-18
2.16905e-18
-2.20296e-18
2.57305e-18
-1.91407e-18
2.90703e-18
-1.60935e-18
3.1693e-18
-1.29604e-18
3.35992e-18
-9.80662e-19
3.48094e-18
-6.69158e-19
3.53602e-18
-3.66895e-19
3.5296e-18
-7.84104e-20
3.4663e-18
1.92816e-19
3.35078e-18
4.44393e-19
3.18783e-18
6.7484e-19
2.98242e-18
8.83332e-19
2.73959e-18
1.06948e-18
2.46428e-18
1.23322e-18
2.16122e-18
1.3747e-18
1.83492e-18
1.4943e-18
1.48967e-18
1.59255e-18
1.12959e-18
1.67012e-18
7.58645e-19
1.72766e-18
3.80674e-19
1.76577e-18
1.78484e-18
-2.96214e-10
1.0127e-09
-5.34411e-10
9.60524e-10
-7.07456e-10
9.90817e-10
-9.27203e-10
9.74793e-10
-1.24904e-09
9.93315e-10
-1.35462e-09
9.40345e-10
-1.426e-09
8.68945e-10
-1.72282e-09
1.03765e-09
-1.94992e-09
9.36943e-10
-2.04532e-09
8.07838e-10
-2.18717e-09
7.99875e-10
-2.28848e-09
7.65674e-10
-2.40753e-09
7.27752e-10
-2.48375e-09
5.22705e-10
-2.55809e-09
4.98991e-10
-2.61821e-09
5.03777e-10
-2.60182e-09
3.1193e-10
-2.59063e-09
2.32772e-10
-2.51378e-09
1.81657e-10
-2.47263e-09
-8.2237e-11
-2.25297e-09
-4.80261e-10
-2.11065e-09
-2.73015e-10
-1.91811e-09
-2.48038e-10
-1.80809e-09
-6.50972e-10
-1.68811e-09
-5.3491e-10
-1.51113e-09
-6.65798e-10
-1.4147e-09
-6.95641e-10
-1.31998e-09
-7.93024e-10
-1.18647e-09
-9.02925e-10
-1.08263e-09
-9.09589e-10
-9.87944e-10
-9.46554e-10
-9.17502e-10
-9.62778e-10
-8.90927e-10
-1.01239e-09
-8.65513e-10
-1.03206e-09
-8.6499e-10
-1.19604e-09
-8.16554e-10
-1.30114e-09
-7.21145e-10
-1.43223e-09
-6.94175e-10
-1.44554e-09
-5.63398e-10
-1.27433e-09
-4.60527e-10
-9.98199e-10
-2.80432e-10
-7.18726e-10
-1.36734e-10
-3.93649e-10
-5.27958e-11
-1.45974e-10
6.46113e-12
3.42724e-12
6.49396e-11
2.3671e-10
7.73369e-11
4.75431e-10
4.91247e-11
7.36214e-10
3.66034e-11
9.67828e-10
1.61064e-11
1.02073e-09
5.76e-12
9.67027e-10
1.0956e-11
8.51988e-10
2.47245e-11
7.53333e-10
3.06095e-12
6.52812e-10
-2.69069e-11
4.89275e-10
-3.91043e-11
3.23285e-10
-5.72984e-11
2.06997e-10
-3.7314e-11
3.58443e-11
-4.06198e-11
-8.28449e-11
-1.01593e-11
-2.14497e-10
9.01803e-11
-4.04225e-10
2.26041e-10
-5.43763e-10
3.9471e-10
-7.3996e-10
6.18155e-10
-9.83361e-10
8.38945e-10
-1.21672e-09
1.13919e-09
-1.59741e-09
1.32969e-09
-1.76265e-09
1.47939e-09
-1.68035e-09
1.49328e-09
-1.42133e-09
1.37879e-09
-1.19035e-09
1.31141e-09
-7.0022e-10
1.29083e-09
-5.24725e-10
1.02823e-09
-1.44849e-10
9.84464e-10
2.79059e-10
8.85116e-10
4.77874e-10
8.54316e-10
5.81399e-10
7.8088e-10
8.3735e-10
6.93805e-10
1.06188e-09
5.96216e-10
1.38707e-09
4.70804e-10
1.56503e-09
3.89626e-10
1.62864e-09
-1.72072e-15
2.69504e-09
-1.15291e-17
6.44961e-18
-1.00041e-17
-1.33908e-18
-8.63729e-18
-2.62596e-18
-7.56715e-18
-3.01468e-18
-6.75345e-18
-3.08764e-18
-6.09284e-18
-3.12563e-18
-5.48988e-18
-3.21698e-18
-4.88473e-18
-3.36283e-18
-4.24786e-18
-3.53456e-18
-3.57046e-18
-3.70019e-18
-2.85617e-18
-3.83344e-18
-2.11648e-18
-3.91525e-18
-1.36753e-18
-3.93338e-18
-6.25966e-19
-3.88217e-18
9.21426e-20
-3.76138e-18
7.71361e-19
-3.57485e-18
1.39857e-18
-3.32931e-18
1.9633e-18
-3.03362e-18
2.45793e-18
-2.69808e-18
2.87777e-18
-2.33364e-18
3.22034e-18
-1.95093e-18
3.48468e-18
-1.55957e-18
3.67142e-18
-1.16791e-18
3.7832e-18
-7.83132e-19
3.8245e-18
-4.11473e-19
3.80082e-18
-5.81501e-20
3.71788e-18
2.72781e-19
3.58123e-18
5.78513e-19
3.39632e-18
8.57368e-19
3.16857e-18
1.10856e-18
2.90332e-18
1.33193e-18
2.60576e-18
1.52772e-18
2.28082e-18
1.69645e-18
1.93318e-18
1.83884e-18
1.56723e-18
1.95572e-18
1.18713e-18
2.04795e-18
7.96757e-19
2.11638e-18
3.99746e-19
2.16168e-18
2.18432e-18
-2.83685e-10
1.29638e-09
-5.87888e-10
1.26473e-09
-8.04265e-10
1.2072e-09
-9.69991e-10
1.14052e-09
-1.21989e-09
1.24321e-09
-1.54844e-09
1.2689e-09
-1.74583e-09
1.06633e-09
-1.8384e-09
1.13022e-09
-2.05557e-09
1.15411e-09
-2.20033e-09
9.52596e-10
-2.29418e-09
8.93722e-10
-2.38771e-09
8.59197e-10
-2.37525e-09
7.15294e-10
-2.47112e-09
6.1857e-10
-2.53333e-09
5.61205e-10
-2.58395e-09
5.544e-10
-2.51253e-09
2.40503e-10
-2.39571e-09
1.15952e-10
-2.25148e-09
3.74345e-11
-2.14003e-09
-1.93689e-10
-2.01824e-09
-6.02055e-10
-1.80172e-09
-4.89527e-10
-1.56183e-09
-4.87932e-10
-1.58899e-09
-6.23819e-10
-1.42295e-09
-7.00944e-10
-1.25026e-09
-8.38492e-10
-1.16678e-09
-7.79126e-10
-1.04143e-09
-9.18372e-10
-9.27425e-10
-1.01693e-09
-8.15039e-10
-1.02198e-09
-7.41718e-10
-1.01988e-09
-7.04588e-10
-9.99914e-10
-6.67303e-10
-1.04968e-09
-5.93238e-10
-1.10613e-09
-5.66943e-10
-1.22234e-09
-5.88511e-10
-1.27958e-09
-6.52133e-10
-1.36862e-09
-7.15922e-10
-1.38175e-09
-6.45024e-10
-1.34523e-09
-6.32756e-10
-1.01047e-09
-5.78976e-10
-7.72507e-10
-4.84065e-10
-4.88559e-10
-3.60424e-10
-2.69613e-10
-3.13179e-10
-4.38146e-11
-3.21924e-10
2.4546e-10
-2.77455e-10
4.30967e-10
-2.42953e-10
7.01716e-10
-1.9697e-10
9.2185e-10
-1.41683e-10
9.65444e-10
-7.35513e-11
8.989e-10
-6.97221e-12
7.85413e-10
5.90329e-11
6.87333e-10
1.12339e-10
5.99511e-10
1.08278e-10
4.93342e-10
7.06165e-11
3.60953e-10
6.13576e-11
2.16261e-10
6.76071e-11
2.96007e-11
1.03382e-10
-1.18614e-10
1.40256e-10
-2.51366e-10
2.01665e-10
-4.65629e-10
3.19402e-10
-6.61496e-10
4.56262e-10
-8.76817e-10
6.47716e-10
-1.17481e-09
8.50854e-10
-1.41986e-09
1.06198e-09
-1.80853e-09
1.17796e-09
-1.87864e-09
1.19757e-09
-1.69996e-09
1.18105e-09
-1.4048e-09
9.70905e-10
-9.80207e-10
9.42188e-10
-6.715e-10
7.95496e-10
-3.78031e-10
6.26553e-10
2.40957e-11
6.38373e-10
2.67239e-10
6.25552e-10
4.90696e-10
5.88127e-10
6.18823e-10
4.32093e-10
9.93384e-10
3.07783e-10
1.18619e-09
3.44958e-10
1.34989e-09
4.00124e-10
1.50987e-09
4.97808e-10
1.53096e-09
-5.97817e-16
3.19285e-09
-1.44564e-17
4.71428e-18
-1.12897e-17
-4.50269e-18
-9.0251e-18
-4.88699e-18
-7.63937e-18
-4.39849e-18
-6.79085e-18
-3.93153e-18
-6.18413e-18
-3.7286e-18
-5.63574e-18
-3.76127e-18
-5.05645e-18
-3.9383e-18
-4.41348e-18
-4.17517e-18
-3.70372e-18
-4.40944e-18
-2.93799e-18
-4.59944e-18
-2.1346e-18
-4.71898e-18
-1.31633e-18
-4.75293e-18
-5.05178e-19
-4.69533e-18
2.78675e-19
-4.54718e-18
1.0169e-18
-4.31488e-18
1.69426e-18
-4.00842e-18
2.29884e-18
-3.64007e-18
2.82238e-18
-3.2235e-18
3.26048e-18
-2.7729e-18
3.61169e-18
-2.30201e-18
3.87634e-18
-1.82323e-18
4.0562e-18
-1.34716e-18
4.15486e-18
-8.82555e-19
4.17782e-18
-4.36565e-19
4.13175e-18
-1.49384e-20
4.02361e-18
3.77973e-19
3.86008e-18
7.39218e-19
3.64752e-18
1.06715e-18
3.39194e-18
1.3612e-18
3.09911e-18
1.62156e-18
2.77449e-18
1.84893e-18
2.42321e-18
2.04428e-18
2.05005e-18
2.20875e-18
1.65947e-18
2.34352e-18
1.25556e-18
2.44975e-18
8.4206e-19
2.52846e-18
4.22379e-19
2.58051e-18
2.60644e-18
-2.95328e-10
1.59171e-09
-5.61734e-10
1.53114e-09
-8.41284e-10
1.48675e-09
-1.0791e-09
1.37833e-09
-1.25812e-09
1.42224e-09
-1.50556e-09
1.51634e-09
-1.71e-09
1.27077e-09
-1.90688e-09
1.3271e-09
-2.08322e-09
1.33045e-09
-2.22815e-09
1.09752e-09
-2.31473e-09
9.80291e-10
-2.39142e-09
9.35884e-10
-2.39403e-09
7.17903e-10
-2.42775e-09
6.52292e-10
-2.45841e-09
5.91868e-10
-2.43871e-09
5.34702e-10
-2.40416e-09
2.05948e-10
-2.25658e-09
-3.16185e-11
-2.06981e-09
-1.49343e-10
-1.9238e-09
-3.39698e-10
-1.98404e-09
-5.4181e-10
-1.65144e-09
-8.22135e-10
-1.49582e-09
-6.43553e-10
-1.3778e-09
-7.41842e-10
-1.19479e-09
-8.83959e-10
-1.04228e-09
-9.90998e-10
-9.33371e-10
-8.88042e-10
-8.01915e-10
-1.04983e-09
-7.7544e-10
-1.04341e-09
-6.98944e-10
-1.09848e-09
-6.01739e-10
-1.11709e-09
-4.63243e-10
-1.13842e-09
-3.3153e-10
-1.1814e-09
-2.2679e-10
-1.21088e-09
-2.0951e-10
-1.23962e-09
-2.93818e-10
-1.19528e-09
-4.97667e-10
-1.16477e-09
-6.82307e-10
-1.19712e-09
-7.47238e-10
-1.2803e-09
-7.30508e-10
-1.0272e-09
-7.11295e-10
-7.91721e-10
-6.51017e-10
-5.48835e-10
-5.87076e-10
-3.33551e-10
-5.47975e-10
-8.29124e-11
-5.27238e-10
2.24726e-10
-5.40179e-10
4.43912e-10
-4.83728e-10
6.45269e-10
-3.54441e-10
7.92568e-10
-2.19735e-10
8.30741e-10
-1.02386e-10
7.81556e-10
5.88811e-12
6.77143e-10
9.64206e-11
5.96804e-10
1.58893e-10
5.37043e-10
2.01199e-10
4.5104e-10
1.93073e-10
3.69083e-10
1.98511e-10
2.10827e-10
1.70254e-10
5.7861e-11
2.18618e-10
-1.66974e-10
2.59468e-10
-2.92214e-10
2.96994e-10
-5.03153e-10
3.66947e-10
-7.31449e-10
4.64082e-10
-9.73953e-10
6.01406e-10
-1.31214e-09
7.70544e-10
-1.58899e-09
8.07163e-10
-1.84515e-09
7.63186e-10
-1.83466e-09
7.92756e-10
-1.72953e-09
7.11712e-10
-1.32375e-09
5.70302e-10
-8.38795e-10
4.2694e-10
-5.28135e-10
3.11615e-10
-2.62704e-10
3.08444e-10
2.7267e-11
2.95019e-10
2.80664e-10
3.00157e-10
4.85558e-10
2.12132e-10
7.06847e-10
1.31175e-10
1.07434e-09
9.81911e-11
1.21917e-09
7.91122e-11
1.36897e-09
1.62165e-10
1.42682e-09
2.10749e-10
1.48238e-09
7.76954e-16
3.4036e-09
-1.71272e-17
3.68114e-18
-1.16731e-17
-9.95492e-18
-8.53591e-18
-8.02289e-18
-7.17181e-18
-5.76635e-18
-6.58754e-18
-4.51459e-18
-6.2168e-18
-4.09811e-18
-5.81277e-18
-4.16299e-18
-5.29332e-18
-4.45445e-18
-4.64776e-18
-4.8179e-18
-3.89371e-18
-5.16248e-18
-3.05753e-18
-5.43549e-18
-2.16854e-18
-5.60739e-18
-1.25874e-18
-5.6628e-18
-3.57026e-19
-5.59769e-18
5.10978e-19
-5.41589e-18
1.32336e-18
-5.12769e-18
2.06262e-18
-4.74776e-18
2.71541e-18
-4.29315e-18
3.27298e-18
-3.78193e-18
3.73137e-18
-3.2322e-18
4.09047e-18
-2.66117e-18
4.35241e-18
-2.08426e-18
4.52081e-18
-1.51456e-18
4.60085e-18
-9.62598e-19
4.59945e-18
-4.36594e-19
4.52467e-18
5.72867e-20
4.38485e-18
5.1466e-19
4.18802e-18
9.32765e-19
3.94157e-18
1.31029e-18
3.6523e-18
1.6471e-18
3.32648e-18
1.94393e-18
2.96985e-18
2.20205e-18
2.58768e-18
2.42299e-18
2.18482e-18
2.60842e-18
1.76569e-18
2.75997e-18
1.33427e-18
2.87916e-18
8.94105e-19
2.96731e-18
4.48309e-19
3.02547e-18
3.05436e-18
-3.10862e-10
1.90258e-09
-6.18059e-10
1.83834e-09
-9.23657e-10
1.79235e-09
-1.15008e-09
1.60476e-09
-1.2528e-09
1.52496e-09
-1.5091e-09
1.77265e-09
-1.80087e-09
1.56253e-09
-1.94203e-09
1.46826e-09
-2.04287e-09
1.43128e-09
-2.19973e-09
1.25438e-09
-2.2823e-09
1.06286e-09
-2.34885e-09
1.00243e-09
-2.42919e-09
7.98243e-10
-2.47555e-09
6.98654e-10
-2.4424e-09
5.58717e-10
-2.35912e-09
4.51428e-10
-2.33846e-09
1.85284e-10
-2.12054e-09
-2.49532e-10
-1.95185e-09
-3.18036e-10
-1.85884e-09
-4.3271e-10
-1.78657e-09
-6.14082e-10
-1.64845e-09
-9.60261e-10
-1.3503e-09
-9.41709e-10
-1.15724e-09
-9.34905e-10
-9.81766e-10
-1.05943e-09
-9.15273e-10
-1.0575e-09
-7.19371e-10
-1.08395e-09
-4.58922e-10
-1.31028e-09
-2.33009e-10
-1.26933e-09
5.0373e-11
-1.38186e-09
2.59816e-10
-1.32654e-09
4.1639e-10
-1.29499e-09
4.60785e-10
-1.2258e-09
4.03781e-10
-1.15388e-09
2.99498e-10
-1.13535e-09
1.46008e-10
-1.04179e-09
-1.74398e-10
-8.4437e-10
-4.65783e-10
-9.05737e-10
-7.52217e-10
-9.93873e-10
-7.76206e-10
-1.00322e-09
-8.00918e-10
-7.6701e-10
-7.98308e-10
-5.51445e-10
-7.84788e-10
-3.47069e-10
-7.81849e-10
-8.5848e-11
-7.59079e-10
2.01959e-10
-7.09526e-10
3.94363e-10
-6.02986e-10
5.38732e-10
-4.48673e-10
6.38257e-10
-2.68864e-10
6.50936e-10
-1.24006e-10
6.367e-10
1.49057e-11
5.38234e-10
1.36365e-10
4.75347e-10
2.22015e-10
4.51394e-10
2.69373e-10
4.03683e-10
2.98807e-10
3.3965e-10
3.04435e-10
2.052e-10
2.80269e-10
8.2027e-11
2.84223e-10
-1.70929e-10
3.24496e-10
-3.32489e-10
3.41656e-10
-5.20316e-10
3.69731e-10
-7.59527e-10
4.40807e-10
-1.04503e-09
5.33559e-10
-1.40489e-09
5.50866e-10
-1.60631e-09
4.33281e-10
-1.72757e-09
4.06795e-10
-1.80817e-09
3.95014e-10
-1.71775e-09
2.9889e-10
-1.22763e-09
1.71782e-10
-7.11686e-10
4.58735e-11
-4.02225e-10
-1.07178e-10
-1.09651e-10
-1.81883e-10
1.01973e-10
-1.93929e-10
2.9271e-10
-1.44471e-10
4.36098e-10
-9.90647e-11
6.61439e-10
-6.09264e-11
1.0362e-09
-1.23419e-10
1.28166e-09
-1.93938e-10
1.43949e-09
-3.20002e-10
1.55288e-09
-5.35811e-10
1.69819e-09
1.57092e-15
2.86778e-09
-2.11738e-17
6.54599e-18
-9.74053e-18
-2.13896e-17
-6.27901e-18
-1.14837e-17
-5.91962e-18
-6.13554e-18
-6.1708e-18
-4.26602e-18
-6.28168e-18
-3.9887e-18
-6.10423e-18
-4.34141e-18
-5.65677e-18
-4.90157e-18
-4.99234e-18
-5.48094e-18
-4.16672e-18
-5.98757e-18
-3.22943e-18
-6.37278e-18
-2.22396e-18
-6.61149e-18
-1.19363e-18
-6.69206e-18
-1.75228e-19
-6.61501e-18
7.99178e-19
-6.38929e-18
1.70329e-18
-6.03065e-18
2.51723e-18
-5.55992e-18
3.22663e-18
-5.0006e-18
3.8227e-18
-4.3767e-18
4.3024e-18
-3.71126e-18
4.66738e-18
-3.02546e-18
4.92212e-18
-2.33794e-18
5.07277e-18
-1.66424e-18
5.12686e-18
-1.01667e-18
5.09333e-18
-4.04436e-19
4.98204e-18
1.65981e-19
4.80296e-18
6.904e-19
4.56554e-18
1.16657e-18
4.27838e-18
1.59386e-18
3.94913e-18
1.97285e-18
3.58459e-18
2.30505e-18
3.19079e-18
2.59246e-18
2.77311e-18
2.83738e-18
2.33637e-18
3.0421e-18
1.88488e-18
3.20882e-18
1.42242e-18
3.33956e-18
9.5227e-19
3.436e-18
4.77198e-19
3.49949e-18
3.53093e-18
-2.93582e-10
2.19616e-09
-5.68681e-10
2.11344e-09
-8.49945e-10
2.07362e-09
-1.20567e-09
1.96048e-09
-1.43557e-09
1.75486e-09
-1.52452e-09
1.86159e-09
-1.7204e-09
1.75841e-09
-1.8764e-09
1.62425e-09
-1.97523e-09
1.53011e-09
-2.13332e-09
1.41247e-09
-2.17807e-09
1.10761e-09
-2.24194e-09
1.0663e-09
-2.32243e-09
8.78732e-10
-2.35783e-09
7.34052e-10
-2.30538e-09
5.06271e-10
-2.21588e-09
3.61927e-10
-2.07802e-09
4.74296e-11
-1.99596e-09
-3.31597e-10
-1.82003e-09
-4.93969e-10
-1.71076e-09
-5.41982e-10
-1.54535e-09
-7.79491e-10
-1.37927e-09
-1.12634e-09
-1.17787e-09
-1.14312e-09
-9.88598e-10
-1.12418e-09
-7.42815e-10
-1.30522e-09
-4.68846e-10
-1.33147e-09
-1.79157e-10
-1.37364e-09
5.52963e-11
-1.54474e-09
2.02836e-10
-1.41687e-09
3.06689e-10
-1.48572e-09
4.71703e-10
-1.49156e-09
5.86174e-10
-1.40947e-09
6.63104e-10
-1.30274e-09
6.92703e-10
-1.18348e-09
4.72331e-10
-9.14977e-10
1.79568e-10
-7.49033e-10
3.81489e-11
-7.02953e-10
-2.00833e-10
-6.66757e-10
-5.3615e-10
-6.58559e-10
-7.50622e-10
-7.88744e-10
-8.38035e-10
-6.79598e-10
-8.79327e-10
-5.10153e-10
-9.1435e-10
-3.12046e-10
-9.64171e-10
-3.60255e-11
-9.2736e-10
1.65149e-10
-8.71085e-10
3.3809e-10
-7.54233e-10
4.21881e-10
-5.52507e-10
4.36532e-10
-3.51817e-10
4.50247e-10
-1.3518e-10
4.20063e-10
3.82244e-11
3.6483e-10
1.69269e-10
3.44302e-10
2.9831e-10
3.22351e-10
3.65604e-10
3.36388e-10
4.22406e-10
2.82846e-10
4.11892e-10
2.15711e-10
4.20839e-10
7.30766e-11
3.46037e-10
-9.61311e-11
3.47812e-10
-3.34268e-10
3.48937e-10
-5.21446e-10
3.3721e-10
-7.47806e-10
3.3982e-10
-1.04765e-09
2.2865e-10
-1.29373e-09
2.25714e-10
-1.60338e-09
2.65978e-10
-1.76784e-09
2.26036e-10
-1.76824e-09
1.25206e-10
-1.61693e-09
1.44591e-11
-1.11688e-09
-1.01601e-10
-5.95626e-10
-2.24985e-10
-2.78839e-10
-3.58952e-10
2.43184e-11
-4.47217e-10
1.90239e-10
-4.85409e-10
3.30902e-10
-5.02842e-10
4.53531e-10
-4.59518e-10
6.18114e-10
-3.83583e-10
9.60264e-10
-4.42571e-10
1.34065e-09
-5.04259e-10
1.50118e-09
-7.89228e-10
1.83785e-09
-1.17244e-09
2.0814e-09
-8.3737e-15
1.69535e-09
-3.03731e-17
-9.14507e-15
1.64873e-19
-5.19337e-17
-9.30848e-19
-1.03801e-17
-4.04978e-18
-3.02161e-18
-5.8933e-18
-2.42077e-18
-6.6344e-18
-3.24373e-18
-6.66439e-18
-4.30909e-18
-6.23615e-18
-5.32895e-18
-5.49896e-18
-6.21721e-18
-4.55193e-18
-6.93489e-18
-3.46814e-18
-7.45804e-18
-2.30453e-18
-7.77431e-18
-1.11657e-18
-7.87963e-18
5.04894e-20
-7.78109e-18
1.15782e-18
-7.49536e-18
2.17402e-18
-7.04584e-18
3.07654e-18
-6.46112e-18
3.85053e-18
-5.77283e-18
4.48814e-18
-5.01265e-18
4.9882e-18
-4.21001e-18
5.35491e-18
-3.39096e-18
5.59582e-18
-2.57762e-18
5.72033e-18