/*--------------------------------*- C++ -*----------------------------------*\
  =========                 |
  \\      /  F ield         | OpenFOAM: The Open Source CFD Toolbox
   \\    /   O peration     | Website:  https://openfoam.org
    \\  /    A nd           | Version:  6
     \\/     M anipulation  |
\*---------------------------------------------------------------------------*/
FoamFile
{
    version     2.0;
    format      ascii;
    class       surfaceScalarField;
    location    "4600";
    object      phi;
}
// * * * * * * * * * * * * * * * * * * * * * * * * * * * * * * * * * * * * * //

dimensions      [0 3 -1 0 0 0 0];

internalField   nonuniform List<scalar> 
9440
(
1.89354e-10
-1.89354e-10
3.40974e-10
-1.51619e-10
3.14134e-10
2.68402e-11
2.77899e-10
3.62353e-11
2.00544e-10
7.73557e-11
4.63801e-11
1.54164e-10
-5.22671e-11
9.86475e-11
-1.82378e-10
1.30111e-10
-3.68432e-10
1.86054e-10
-6.55978e-10
2.87546e-10
-1.02019e-09
3.64212e-10
-1.40071e-09
3.80523e-10
-1.75198e-09
3.51266e-10
-1.9416e-09
1.89624e-10
-2.15751e-09
2.15912e-10
-2.2976e-09
1.4009e-10
-2.39512e-09
9.75134e-11
-2.46699e-09
7.1877e-11
-2.49644e-09
2.94448e-11
-2.51635e-09
1.99166e-11
-2.38822e-09
-1.28136e-10
-2.10232e-09
-2.85893e-10
-1.86136e-09
-2.40962e-10
-1.80764e-09
-5.37206e-11
-1.02289e-09
-7.84748e-10
-8.49817e-10
-1.73073e-10
-9.82197e-10
1.32381e-10
-5.19009e-10
-4.63188e-10
-3.14926e-10
-2.04082e-10
-8.15747e-11
-2.3335e-10
3.55455e-10
-4.37029e-10
3.72099e-10
-1.66434e-11
6.64211e-10
-2.92111e-10
7.68675e-10
-1.04463e-10
7.3034e-10
3.83349e-11
6.60491e-10
6.98493e-11
5.15883e-10
1.44609e-10
3.63767e-10
1.52116e-10
2.1332e-10
1.50447e-10
5.68995e-11
1.56421e-10
-1.30777e-10
1.87677e-10
-3.2223e-10
1.91452e-10
-4.87778e-10
1.65548e-10
-6.27799e-10
1.40021e-10
-7.08977e-10
8.1178e-11
-7.63392e-10
5.44147e-11
-8.7102e-10
1.07628e-10
-1.04845e-09
1.77431e-10
-1.22619e-09
1.77742e-10
-1.30688e-09
8.06827e-11
-1.43929e-09
1.3241e-10
-1.68559e-09
2.46304e-10
-1.98466e-09
2.99069e-10
-2.20019e-09
2.15531e-10
-2.40041e-09
2.0022e-10
-2.54898e-09
1.48568e-10
-2.58486e-09
3.58779e-11
-2.59983e-09
1.49752e-11
-2.59533e-09
-4.50531e-12
-2.54308e-09
-5.22536e-11
-2.26613e-09
-2.76949e-10
-2.26904e-09
2.9076e-12
-2.11527e-09
-1.53768e-10
-1.91018e-09
-2.05093e-10
-1.82344e-09
-8.6738e-11
-1.60963e-09
-2.13817e-10
-1.29382e-09
-3.15811e-10
-1.01482e-09
-2.79e-10
-7.32291e-10
-2.82527e-10
-3.13137e-10
-4.19155e-10
1.58835e-10
-4.71973e-10
5.08204e-10
-3.49369e-10
8.23392e-10
-3.15189e-10
1.27493e-09
-4.51541e-10
1.38003e-09
-1.05095e-10
1.49809e-09
-1.18064e-10
1.46125e-09
3.6842e-11
1.38183e-09
7.94201e-11
1.2105e-09
1.71326e-10
8.93216e-10
3.17284e-10
4.70296e-15
8.93207e-10
-8.21893e-20
3.18719e-18
-1.3707e-18
1.28851e-18
-1.93182e-18
5.59159e-19
-2.16056e-18
2.28166e-19
-2.21717e-18
5.62507e-20
-2.17423e-18
-4.32972e-20
-2.06811e-18
-1.06539e-19
-1.91871e-18
-1.50058e-19
-1.73771e-18
-1.81888e-19
-1.53264e-18
-2.06014e-19
-1.30911e-18
-2.24375e-19
-1.07203e-18
-2.37801e-19
-8.25932e-19
-2.46563e-19
-5.75356e-19
-2.5074e-19
-3.24973e-19
-2.50361e-19
-7.94752e-20
-2.45457e-19
1.56703e-19
-2.36169e-19
3.79464e-19
-2.22815e-19
5.85067e-19
-2.05839e-19
7.70278e-19
-1.85746e-19
9.32487e-19
-1.63072e-19
1.06972e-18
-1.38371e-19
1.18067e-18
-1.12213e-19
1.26463e-18
-8.51815e-20
1.32144e-18
-5.78504e-20
1.35145e-18
-3.07534e-20
1.35549e-18
-4.37863e-21
1.33476e-18
2.08194e-20
1.2907e-18
4.44359e-20
1.22491e-18
6.61609e-20
1.1392e-18
8.58194e-20
1.03563e-18
1.03358e-19
9.16448e-19
1.18785e-19
7.83961e-19
1.32105e-19
6.40458e-19
1.43289e-19
4.88142e-19
1.52282e-19
3.29172e-19
1.59028e-19
1.65717e-19
1.63498e-19
1.65706e-19
1.95414e-10
-3.84768e-10
2.61373e-10
-2.17576e-10
2.04282e-10
8.39317e-11
1.13042e-10
1.27476e-10
-8.66941e-13
1.91265e-10
-1.27375e-10
2.80673e-10
-3.28275e-10
2.99548e-10
-5.20762e-10
3.22598e-10
-9.53525e-10
6.18818e-10
-1.30097e-09
6.34993e-10
-1.53434e-09
5.97577e-10
-1.71782e-09
5.6401e-10
-1.93639e-09
5.69832e-10
-2.17246e-09
4.25696e-10
-2.33512e-09
3.78571e-10
-2.54792e-09
3.52891e-10
-2.67863e-09
2.28234e-10
-2.78583e-09
1.7907e-10
-2.82923e-09
7.28535e-11
-2.81311e-09
3.79047e-12
-2.77155e-09
-1.69693e-10
-2.49394e-09
-5.63503e-10
-2.40333e-09
-3.31572e-10
-2.15483e-09
-3.02218e-10
-1.73458e-09
-1.20499e-09
-1.5671e-09
-3.40552e-10
-1.34339e-09
-9.13345e-11
-1.05381e-09
-7.52762e-10
-7.27137e-10
-5.30754e-10
-4.66364e-10
-4.94122e-10
-1.26873e-10
-7.76519e-10
1.91307e-10
-3.34823e-10
2.46509e-10
-3.47313e-10
3.2483e-10
-1.82783e-10
2.41904e-10
1.21262e-10
1.79547e-10
1.32207e-10
1.52048e-10
1.72108e-10
7.44587e-11
2.29706e-10
-4.30055e-11
2.67911e-10
-1.65927e-10
2.79343e-10
-2.81936e-10
3.03685e-10
-4.30469e-10
3.39986e-10
-6.01115e-10
3.36194e-10
-7.46888e-10
2.85794e-10
-9.18243e-10
2.52533e-10
-1.14677e-09
2.82944e-10
-1.34392e-09
3.04776e-10
-1.53601e-09
3.69515e-10
-1.69125e-09
3.32987e-10
-1.90715e-09
2.96576e-10
-2.26461e-09
4.89876e-10
-2.50522e-09
4.86912e-10
-2.61855e-09
4.12398e-10
-2.69172e-09
2.88696e-10
-2.74737e-09
2.55871e-10
-2.73849e-09
1.39687e-10
-2.70127e-09
-1.34387e-12
-2.70048e-09
1.41809e-11
-2.66384e-09
-4.11418e-11
-2.60628e-09
-1.09816e-10
-2.56597e-09
-3.1726e-10
-2.36408e-09
-1.98989e-10
-2.23778e-09
-2.80069e-10
-2.05063e-09
-3.92241e-10
-1.8549e-09
-2.82467e-10
-1.62349e-09
-4.45234e-10
-1.45667e-09
-4.82631e-10
-1.23399e-09
-5.01677e-10
-9.51107e-10
-5.65416e-10
-6.3851e-10
-7.31754e-10
-3.46725e-10
-7.6376e-10
4.59388e-11
-7.42035e-10
5.13918e-10
-7.83169e-10
7.77665e-10
-7.15289e-10
1.05755e-09
-3.84985e-10
1.1801e-09
-2.40608e-10
1.17977e-09
3.71651e-11
1.05644e-09
2.02754e-10
7.63367e-10
4.64397e-10
3.18896e-10
7.61758e-10
3.01653e-16
1.21211e-09
-1.96618e-18
2.4892e-18
-2.10005e-18
1.42465e-18
-2.26281e-18
7.21603e-19
-2.33247e-18
2.96906e-19
-2.31672e-18
3.94017e-20
-2.23747e-18
-1.23734e-19
-2.11162e-18
-2.3358e-19
-1.95054e-18
-3.1237e-19
-1.76184e-18
-3.71872e-19
-1.551e-18
-4.18078e-19
-1.32254e-18
-4.53825e-19
-1.08079e-18
-4.80252e-19
-8.30108e-19
-4.97665e-19
-5.74977e-19
-5.06038e-19
-3.20069e-19
-5.05303e-19
-7.01873e-20
-4.95501e-19
1.70057e-19
-4.76907e-19
3.9644e-19
-4.50078e-19
6.05159e-19
-4.15818e-19
7.92952e-19
-3.75111e-19
9.57188e-19
-3.29055e-19
1.09588e-18
-2.78817e-19
1.20771e-18
-2.2561e-19
1.29196e-18
-1.70658e-19
1.34854e-18
-1.15169e-19
1.37782e-18
-6.03193e-20
1.38069e-18
-7.20247e-21
1.35838e-18
4.32563e-20
1.31243e-18
9.0381e-20
1.24457e-18
1.33761e-19
1.15674e-18
1.73183e-19
1.05106e-18
2.0853e-19
9.29768e-19
2.39692e-19
7.95146e-19
2.66546e-19
6.49451e-19
2.88977e-19
4.94888e-19
3.06903e-19
3.33642e-19
3.20299e-19
1.67925e-19
3.29186e-19
3.33622e-19
5.22164e-11
-4.36984e-10
3.61091e-11
-2.01468e-10
2.63369e-11
9.37044e-11
-1.64522e-10
3.18335e-10
-3.33107e-10
3.59851e-10
-4.18619e-10
3.66185e-10
-6.7541e-10
5.56339e-10
-1.063e-09
7.10186e-10
-1.36083e-09
9.16651e-10
-1.72378e-09
9.97945e-10
-2.07634e-09
9.50136e-10
-2.15814e-09
6.4581e-10
-2.31264e-09
7.24335e-10
-2.58397e-09
6.97023e-10
-2.75056e-09
5.45166e-10
-2.86659e-09
4.68918e-10
-2.98133e-09
3.42971e-10
-3.07416e-09
2.71905e-10
-3.04487e-09
4.35597e-11
-2.94813e-09
-9.29459e-11
-2.86119e-09
-2.5663e-10
-2.66887e-09
-7.55819e-10
-2.43609e-09
-5.6435e-10
-2.20058e-09
-5.37725e-10
-2.18815e-09
-1.21742e-09
-1.94966e-09
-5.7905e-10
-1.44587e-09
-5.95116e-10
-1.29252e-09
-9.06111e-10
-9.88166e-10
-8.3511e-10
-8.23747e-10
-6.5854e-10
-6.24783e-10
-9.75482e-10
-3.3782e-10
-6.21786e-10
-3.31827e-10
-3.53305e-10
-1.80983e-10
-3.33627e-10
-1.34166e-10
7.44461e-11
-1.39224e-10
1.37266e-10
-1.31668e-10
1.64552e-10
-1.34108e-10
2.32146e-10
-1.83813e-10
3.17617e-10
-2.74792e-10
3.70322e-10
-4.11808e-10
4.40701e-10
-5.50851e-10
4.79028e-10
-6.96497e-10
4.8184e-10
-8.37207e-10
4.26504e-10
-1.03322e-09
4.48547e-10
-1.30159e-09
5.51315e-10
-1.58582e-09
5.88997e-10
-1.79162e-09
5.75316e-10
-2.01071e-09
5.52076e-10
-2.29279e-09
5.78664e-10
-2.45876e-09
6.55839e-10
-2.58706e-09
6.1521e-10
-2.663e-09
4.8834e-10
-2.68149e-09
3.07184e-10
-2.71742e-09
2.91806e-10
-2.65869e-09
8.09487e-11
-2.56082e-09
-9.92118e-11
-2.56557e-09
1.89339e-11
-2.56267e-09
-4.40482e-11
-2.52845e-09
-1.4403e-10
-2.52895e-09
-3.16769e-10
-2.24267e-09
-4.85266e-10
-2.06892e-09
-4.53826e-10
-1.91318e-09
-5.47982e-10
-1.73489e-09
-4.60751e-10
-1.54046e-09
-6.39667e-10
-1.39065e-09
-6.32446e-10
-1.20397e-09
-6.88352e-10
-1.00636e-09
-7.63032e-10
-8.12678e-10
-9.25437e-10
-5.76474e-10
-9.99964e-10
-2.41231e-10
-1.07728e-09
7.04227e-11
-1.09482e-09
2.65697e-10
-9.10564e-10
5.73278e-10
-6.92567e-10
7.6312e-10
-4.30451e-10
7.79079e-10
2.1206e-11
6.70938e-10
3.10893e-10
4.97133e-10
6.38198e-10
2.38206e-10
1.02068e-09
6.80503e-18
1.45032e-09
-3.00755e-18
2.11665e-18
-2.80309e-18
1.21977e-18
-2.68751e-18
6.05584e-19
-2.58998e-18
1.98767e-19
-2.47985e-18
-7.14443e-20
-2.34732e-18
-2.56944e-19
-2.19041e-18
-3.9102e-19
-2.01004e-18
-4.93268e-19
-1.80805e-18
-5.74455e-19
-1.58674e-18
-6.39991e-19
-1.34897e-18
-6.92184e-19
-1.0982e-18
-7.316e-19
-8.38482e-19
-7.57983e-19
-5.74242e-19
-7.70865e-19
-3.10267e-19
-7.69883e-19
-5.15936e-20
-7.54941e-19
1.96887e-19
-7.26363e-19
4.307e-19
-6.84957e-19
6.45866e-19
-6.31986e-19
8.39009e-19
-5.69066e-19
1.00743e-18
-4.98028e-19
1.14909e-18
-4.20801e-19
1.26266e-18
-3.39344e-19
1.34745e-18
-2.55595e-19
1.40339e-18
-1.71403e-19
1.43094e-18
-8.84574e-20
1.43115e-18
-8.2384e-21
1.4055e-18
6.80261e-20
1.35581e-18
1.39387e-19
1.28399e-18
2.05168e-19
1.19209e-18
2.64926e-19
1.08222e-18
3.18372e-19
9.56623e-19
3.65312e-19
8.17576e-19
4.0561e-19
6.67377e-19
4.39177e-19
5.08283e-19
4.65973e-19
3.4253e-19
4.8601e-19
1.7236e-19
4.99336e-19
5.05997e-19
-5.81888e-11
-3.78795e-10
-1.35263e-10
-1.24394e-10
-1.82141e-10
1.40583e-10
-2.46631e-10
3.82825e-10
-4.13495e-10
5.26716e-10
-7.18458e-10
6.71149e-10
-1.2776e-09
1.11548e-09
-1.64095e-09
1.07354e-09
-1.86279e-09
1.13849e-09
-1.92917e-09
1.06433e-09
-2.15185e-09
1.17282e-09
-2.55243e-09
1.04639e-09
-2.80789e-09
9.79787e-10
-2.96802e-09
8.57153e-10
-3.01635e-09
5.93504e-10
-3.1614e-09
6.13963e-10
-3.23643e-09
4.18004e-10
-3.23987e-09
2.75342e-10
-3.11535e-09
-8.09546e-11
-3.10957e-09
-9.87286e-11
-2.93559e-09
-4.30601e-10
-2.89125e-09
-8.00166e-10
-2.67624e-09
-7.7936e-10
-2.22402e-09
-9.89938e-10
-2.23071e-09
-1.21073e-09
-1.90058e-09
-9.09182e-10
-1.58683e-09
-9.08869e-10
-1.52915e-09
-9.63784e-10
-1.39362e-09
-9.70643e-10
-1.22053e-09
-8.31624e-10
-1.01582e-09
-1.1802e-09
-8.7473e-10
-7.62875e-10
-6.09375e-10
-6.18659e-10
-5.5513e-10
-3.87872e-10
-4.95532e-10
1.48486e-11
-3.77024e-10
1.87588e-11
-3.89412e-10
1.76941e-10
-3.68635e-10
2.11369e-10
-4.10573e-10
3.59556e-10
-4.69663e-10
4.29412e-10
-5.92702e-10
5.63741e-10
-7.09861e-10
5.96187e-10
-8.31774e-10
6.03753e-10
-1.00075e-09
5.95475e-10
-1.24583e-09
6.93631e-10
-1.50551e-09
8.10993e-10
-1.71811e-09
8.01603e-10
-1.92201e-09
7.79212e-10
-2.14666e-09
7.76725e-10
-2.37157e-09
8.03576e-10
-2.46251e-09
7.4678e-10
-2.52463e-09
6.77322e-10
-2.52564e-09
4.89348e-10
-2.52385e-09
3.05398e-10
-2.4876e-09
2.55555e-10
-2.41107e-09
4.41428e-12
-2.35361e-09
-1.56671e-10
-2.29051e-09
-4.417e-11
-2.25249e-09
-8.20641e-11
-2.20879e-09
-1.87732e-10
-2.17979e-09
-3.45774e-10
-2.07755e-09
-5.87509e-10
-1.85839e-09
-6.72982e-10
-1.76243e-09
-6.43947e-10
-1.59521e-09
-6.27973e-10
-1.44115e-09
-7.93722e-10
-1.30503e-09
-7.68574e-10
-1.14884e-09
-8.44537e-10
-1.01919e-09
-8.92682e-10
-8.48223e-10
-1.09641e-09
-6.49707e-10
-1.19848e-09
-4.72472e-10
-1.25452e-09
-2.75316e-10
-1.29198e-09
3.02677e-11
-1.21615e-09
2.16051e-10
-8.78351e-10
3.31436e-10
-5.45837e-10
4.098e-10
-5.71583e-11
4.29145e-10
2.91549e-10
4.34138e-10
6.33206e-10
2.98251e-10
1.15656e-09
-2.85822e-17
1.74857e-09
-3.90868e-18
1.28549e-18
-3.41727e-18
7.27681e-19
-3.09433e-18
2.82403e-19
-2.86019e-18
-3.54008e-20
-2.66535e-18
-2.66369e-19
-2.48139e-18
-4.40981e-19
-2.29266e-18
-5.79631e-19
-2.09123e-18
-6.94509e-19
-1.87358e-18
-7.92026e-19
-1.63894e-18
-8.74776e-19
-1.38838e-18
-9.4309e-19
-1.12458e-18
-9.96029e-19
-8.51364e-19
-1.03213e-18
-5.7326e-19
-1.05005e-18
-2.95325e-19
-1.04889e-18
-2.30152e-20
-1.02836e-18
2.38292e-19
-9.88822e-19
4.83671e-19
-9.31389e-19
7.08786e-19
-8.57876e-19
9.10048e-19
-7.70676e-19
1.08465e-18
-6.72532e-19
1.23055e-18
-5.66309e-19
1.34641e-18
-4.54819e-19
1.43164e-18
-3.40712e-19
1.48633e-18
-2.26412e-19
1.51116e-18
-1.14073e-19
1.50741e-18
-5.56696e-21
1.47687e-18
9.75238e-20
1.42159e-18
1.93924e-19
1.34375e-18
2.82678e-19
1.24553e-18
3.63129e-19
1.12916e-18
4.34872e-19
9.96921e-19
4.97683e-19
8.51143e-19
5.51455e-19
6.94173e-19
5.96158e-19
5.28321e-19
6.3181e-19
3.55856e-19
6.58467e-19
1.79021e-19
6.762e-19
6.85065e-19
-9.70429e-11
-2.81752e-10
-1.03135e-10
-1.18301e-10
-2.34666e-10
2.72114e-10
-4.06406e-10
5.54566e-10
-6.59894e-10
7.80204e-10
-8.5474e-10
8.65995e-10
-1.09789e-09
1.35863e-09
-1.55173e-09
1.52737e-09
-1.97052e-09
1.55729e-09
-2.32216e-09
1.41596e-09
-2.39668e-09
1.24735e-09
-2.67576e-09
1.32547e-09
-2.96053e-09
1.26456e-09
-3.05128e-09
9.47902e-10
-3.19626e-09
7.38489e-10
-3.29473e-09
7.12431e-10
-3.35252e-09
4.75791e-10
-3.28882e-09
2.1165e-10
-3.36058e-09
-9.2019e-12
-3.31583e-09
-1.4347e-10
-3.18476e-09
-5.61676e-10
-2.90925e-09
-1.07567e-09
-2.78979e-09
-8.9882e-10
-2.68626e-09
-1.09347e-09
-2.50233e-09
-1.39465e-09
-2.08243e-09
-1.32909e-09
-1.82409e-09
-1.1672e-09
-1.69926e-09
-1.08862e-09
-1.55694e-09
-1.11297e-09
-1.4076e-09
-9.80961e-10
-1.33074e-09
-1.25706e-09
-1.4457e-09
-6.47913e-10
-1.28528e-09
-7.79081e-10
-1.22019e-09
-4.52953e-10
-9.86797e-10
-2.18549e-10
-8.13378e-10
-1.5466e-10
-7.29073e-10
9.26354e-11
-6.99062e-10
1.81359e-10
-6.52852e-10
3.13346e-10
-6.70546e-10
4.47105e-10
-7.52834e-10
6.4603e-10
-8.52677e-10
6.9603e-10
-9.62557e-10
7.13633e-10
-1.16878e-09
8.01697e-10
-1.41555e-09
9.40404e-10
-1.69292e-09
1.08836e-09
-1.92488e-09
1.03356e-09
-2.07694e-09
9.31277e-10
-2.19869e-09
8.98466e-10
-2.27256e-09
8.77453e-10
-2.34589e-09
8.20111e-10
-2.34496e-09
6.76385e-10
-2.26337e-09
4.07763e-10
-2.21479e-09
2.56809e-10
-2.12509e-09
1.65863e-10
-2.1664e-09
4.57187e-11
-2.21774e-09
-1.05332e-10
-2.07838e-09
-1.83527e-10
-1.9732e-09
-1.87248e-10
-1.93367e-09
-2.27261e-10
-1.84316e-09
-4.36292e-10
-1.82508e-09
-6.05584e-10
-1.77259e-09
-7.25475e-10
-1.64959e-09
-7.66945e-10
-1.46507e-09
-8.12502e-10
-1.35918e-09
-8.99608e-10
-1.24083e-09
-8.86925e-10
-1.12444e-09
-9.60926e-10
-1.01921e-09
-9.97918e-10
-9.18549e-10
-1.19707e-09
-8.16275e-10
-1.30076e-09
-6.68276e-10
-1.40252e-09
-5.03536e-10
-1.45672e-09
-3.73642e-10
-1.34604e-09
-1.86389e-10
-1.0656e-09
-3.03017e-11
-7.01925e-10
1.27171e-10
-2.14632e-10
2.07553e-10
2.11167e-10
2.31555e-10
6.09204e-10
2.36916e-10
1.1512e-09
-1.34665e-16
1.98548e-09
-4.53963e-18
-1.1133e-20
-3.86255e-18
5.03091e-20
-3.41213e-18
-1.67955e-19
-3.09116e-18
-3.55915e-19
-2.83996e-18
-5.16969e-19
-2.62004e-18
-6.60297e-19
-2.40754e-18
-7.91375e-19
-2.18874e-18
-9.12564e-19
-1.95633e-18
-1.02392e-18
-1.70725e-18
-1.12373e-18
-1.44132e-18
-1.20923e-18
-1.16069e-18
-1.27722e-18
-8.69281e-19
-1.32449e-18
-5.72103e-19
-1.34842e-18
-2.74793e-19
-1.34734e-18
1.65224e-20
-1.3207e-18
2.95725e-19
-1.269e-18
5.57183e-19
-1.19376e-18
7.95987e-19
-1.09747e-18
1.00819e-18
-9.8342e-19
1.19088e-18
-8.55389e-19
1.34204e-18
-7.17318e-19
1.46051e-18
-5.73003e-19
1.54594e-18
-4.25933e-19
1.59867e-18
-2.79205e-19
1.61967e-18
-1.35512e-19
1.6105e-18
2.84537e-21
1.57327e-18
1.33939e-19
1.51034e-18
2.56219e-19
1.4242e-18
3.68514e-19
1.31728e-18
4.70032e-19
1.19198e-18
5.60306e-19
1.05069e-18
6.39119e-19
8.95845e-19
7.06419e-19
7.29825e-19
7.62251e-19
5.54978e-19
8.06712e-19
3.7359e-19
8.39924e-19
1.87886e-19
8.62002e-19
8.73031e-19
-1.95032e-10
-8.67199e-11
-4.50563e-10
1.37231e-10
-6.72541e-10
4.94093e-10
-8.86685e-10
7.6871e-10
-9.03562e-10
7.97081e-10
-1.08513e-09
1.04756e-09
-1.42396e-09
1.69746e-09
-1.77759e-09
1.88101e-09
-2.01092e-09
1.79062e-09
-2.23233e-09
1.63737e-09
-2.48491e-09
1.49993e-09
-2.71618e-09
1.55675e-09
-2.95959e-09
1.50796e-09
-3.02335e-09
1.01166e-09
-3.21951e-09
9.34656e-10
-3.36953e-09
8.62446e-10
-3.36719e-09
4.73455e-10
-3.38529e-09
2.29744e-10
-3.41432e-09
1.98317e-11
-3.30543e-09
-2.52357e-10
-3.24055e-09
-6.2655e-10
-3.18643e-09
-1.1298e-09
-2.95919e-09
-1.12605e-09
-2.76845e-09
-1.2842e-09
-2.58035e-09
-1.58276e-09
-2.34316e-09
-1.56628e-09
-2.05462e-09
-1.45573e-09
-1.92146e-09
-1.22178e-09
-1.84783e-09
-1.18659e-09
-1.78832e-09
-1.04048e-09
-1.77371e-09
-1.27166e-09
-1.43375e-09
-9.87875e-10
-1.29867e-09
-9.14161e-10
-1.15636e-09
-5.95265e-10
-1.06078e-09
-3.14125e-10
-1.03281e-09
-1.82624e-10
-9.76894e-10
3.67158e-11
-9.54305e-10
1.5877e-10
-8.8236e-10
2.41402e-10
-8.83496e-10
4.48241e-10
-9.97902e-10
7.60436e-10
-1.15093e-09
8.49058e-10
-1.33028e-09
8.92987e-10
-1.54236e-09
1.01377e-09
-1.69128e-09
1.08933e-09
-1.76047e-09
1.15755e-09
-1.86497e-09
1.13806e-09
-2.0074e-09
1.0737e-09
-2.09926e-09
9.90328e-10
-2.07748e-09
8.55666e-10
-2.14648e-09
8.89113e-10
-2.07102e-09
6.00918e-10
-2.03037e-09
3.67114e-10
-1.94838e-09
1.7482e-10
-1.87741e-09
9.48936e-11
-1.8161e-09
-1.55955e-11
-1.78848e-09
-1.32946e-10
-1.76244e-09
-2.09571e-10
-1.73452e-09
-2.15173e-10
-1.71173e-09
-2.5005e-10
-1.6697e-09
-4.78323e-10
-1.65668e-09
-6.18605e-10
-1.63153e-09
-7.50628e-10
-1.54844e-09
-8.50028e-10
-1.41772e-09
-9.43229e-10
-1.32311e-09
-9.94219e-10
-1.19805e-09
-1.01198e-09
-1.11571e-09
-1.04326e-09
-1.01939e-09
-1.09424e-09
-9.49605e-10
-1.26685e-09
-8.7971e-10
-1.37065e-09
-8.11877e-10
-1.47035e-09
-7.26874e-10
-1.54172e-09
-5.7056e-10
-1.50236e-09
-4.98917e-10
-1.13725e-09
-4.18526e-10
-7.82317e-10
-1.28865e-10
-5.04293e-10
9.31491e-11
-1.08474e-11
-3.95717e-11
7.41925e-10
-1.97286e-10
1.30892e-09
-1.91232e-16
1.7882e-09
-4.66591e-18
-4.72593e-20
-4.08082e-18
-5.34527e-19
-3.60009e-18
-6.48354e-19
-3.25221e-18
-7.03173e-19
-2.98329e-18
-7.85082e-19
-2.75112e-18
-8.91653e-19
-2.52873e-18
-1.01277e-18
-2.3001e-18
-1.14024e-18
-2.05614e-18
-1.26715e-18
-1.79275e-18
-1.38683e-18
-1.50931e-18
-1.49277e-18
-1.20796e-18
-1.57888e-18
-8.93207e-19
-1.6398e-18
-5.71029e-19
-1.67134e-18
-2.48154e-19
-1.67088e-18
6.82252e-20
-1.63757e-18
3.70964e-19
-1.57217e-18
6.53472e-19
-1.47683e-18
9.10041e-19
-1.35488e-18
1.13622e-18
-1.21063e-18
1.32895e-18
-1.04907e-18
1.48635e-18
-8.75349e-19
1.60758e-18
-6.94466e-19
1.69267e-18
-5.10948e-19
1.74236e-18
-3.28739e-19
1.75802e-18
-1.5117e-19
1.7416e-18
1.89971e-20
1.69555e-18
1.7953e-19
1.62264e-18
3.28681e-19
1.52572e-18
4.65172e-19
1.40755e-18
5.88162e-19
1.27079e-18
6.97191e-19
1.11799e-18
7.92097e-19
9.51677e-19
8.72917e-19
7.74286e-19
9.39801e-19
5.8819e-19
9.92958e-19
3.95668e-19
1.0326e-18
1.98915e-19
1.05892e-18
1.07206e-18
-9.69799e-11
1.02603e-11
-2.72321e-10
3.12572e-10
-3.78245e-10
6.00017e-10
-5.64283e-10
9.54749e-10
-9.36175e-10
1.16897e-09
-1.39045e-09
1.50184e-09
-1.61547e-09
1.92248e-09
-1.76531e-09
2.03085e-09
-2.12238e-09
2.14768e-09
-2.3473e-09
1.86229e-09
-2.51599e-09
1.66862e-09
-2.74819e-09
1.78895e-09
-2.91541e-09
1.67519e-09
-3.01322e-09
1.10947e-09
-3.18276e-09
1.1042e-09
-3.30063e-09
9.80311e-10
-3.32852e-09
5.01348e-10
-3.43027e-09
3.31492e-10
-3.36586e-09
-4.45775e-11
-3.30717e-09
-3.1104e-10
-3.12271e-09
-8.11013e-10
-3.29976e-09
-9.52745e-10
-3.06518e-09
-1.36063e-09
-2.88322e-09
-1.46616e-09
-2.75253e-09
-1.71345e-09
-2.5789e-09
-1.73991e-09
-2.41097e-09
-1.62366e-09
-2.19805e-09
-1.4347e-09
-2.05567e-09
-1.32897e-09
-1.85956e-09
-1.23659e-09
-1.79705e-09
-1.33417e-09
-1.84678e-09
-9.38153e-10
-1.80816e-09
-9.5278e-10
-1.62254e-09
-7.80881e-10
-1.3631e-09
-5.73564e-10
-1.29044e-09
-2.55282e-10
-1.18803e-09
-6.56981e-11
-1.11687e-09
8.7613e-11
-1.0491e-09
1.73638e-10
-1.02577e-09
4.24903e-10
-1.09916e-09
8.33826e-10
-1.17756e-09
9.27458e-10
-1.27977e-09
9.95198e-10
-1.46228e-09
1.19628e-09
-1.64146e-09
1.26851e-09
-1.74953e-09
1.26563e-09
-1.83336e-09
1.22188e-09
-1.89452e-09
1.13487e-09
-1.95929e-09
1.05509e-09
-1.90705e-09
8.03427e-10
-1.81784e-09
7.99899e-10
-1.75027e-09
5.33345e-10
-1.7374e-09
3.54252e-10
-1.67248e-09
1.09894e-10
-1.62194e-09
4.43569e-11
-1.56419e-09
-7.33534e-11
-1.5305e-09
-1.66634e-10
-1.49567e-09
-2.44399e-10
-1.45762e-09
-2.53226e-10
-1.42447e-09
-2.83202e-10
-1.44269e-09
-4.60103e-10
-1.44441e-09
-6.16885e-10
-1.4188e-09
-7.76235e-10
-1.36659e-09
-9.02244e-10
-1.32089e-09
-9.88929e-10
-1.25752e-09
-1.05759e-09
-1.17472e-09
-1.09478e-09
-1.10915e-09
-1.10883e-09
-1.03177e-09
-1.17162e-09
-9.8077e-10
-1.31785e-09
-9.35664e-10
-1.41576e-09
-9.03702e-10
-1.50231e-09
-8.77967e-10
-1.56746e-09
-8.25214e-10
-1.55511e-09
-6.81188e-10
-1.28127e-09
-5.41962e-10
-9.21542e-10
-3.23421e-10
-7.22834e-10
1.29388e-10
-4.63655e-10
1.38115e-10
7.33198e-10
-9.62236e-12
1.45666e-09
-7.06977e-17
1.77858e-09
-5.49064e-18
-4.65519e-18
-4.19464e-18
-1.82996e-18
-3.65491e-18
-1.18795e-18
-3.33412e-18
-1.02375e-18
-3.08986e-18
-1.02898e-18
-2.87224e-18
-1.10892e-18
-2.6562e-18
-1.2281e-18
-2.42701e-18
-1.36858e-18
-2.17582e-18
-1.5175e-18
-1.89869e-18
-1.66347e-18
-1.59542e-18
-1.79591e-18
-1.26888e-18
-1.90535e-18
-9.24745e-19
-1.98388e-18
-5.7057e-19
-2.02548e-18
-2.14841e-19
-2.02646e-18
1.33625e-19
-1.98569e-18
4.66305e-19
-1.90441e-18
7.75422e-19
-1.7857e-18
1.05428e-18
-1.63409e-18
1.29779e-18
-1.4552e-18
1.50267e-18
-1.2554e-18
1.66723e-18
-1.04129e-18
1.7911e-18
-8.19267e-19
1.87488e-18
-5.95091e-19
1.91993e-18
-3.73719e-19
1.92819e-18
-1.59233e-19
1.90213e-18
4.5116e-20
1.8447e-18
2.36822e-19
1.75913e-18
4.14027e-19
1.64871e-18
5.7545e-19
1.51658e-18
7.20309e-19
1.36569e-18
8.48244e-19
1.19881e-18
9.59222e-19
1.01856e-18
1.05343e-18
8.27443e-19
1.13117e-18
6.27833e-19
1.1928e-18
4.21988e-19
1.23868e-18
2.1205e-19
1.26909e-18
1.28425e-18
-6.45515e-11
7.4812e-11
-1.43452e-10
3.91473e-10
-2.45797e-10
7.02363e-10
-4.03392e-10
1.11234e-09
-7.33163e-10
1.49875e-09
-1.09919e-09
1.86787e-09
-1.70051e-09
2.5238e-09
-2.01306e-09
2.34339e-09
-2.1598e-09
2.29443e-09
-2.32639e-09
2.02888e-09
-2.591e-09
1.93322e-09
-2.721e-09
1.91895e-09
-2.77181e-09
1.72599e-09
-3.01356e-09
1.35123e-09
-3.09961e-09
1.19025e-09
-3.105e-09
9.85704e-10
-3.27649e-09
6.72835e-10
-3.2994e-09
3.54406e-10
-3.23673e-09
-1.07249e-10
-3.20999e-09
-3.37773e-10
-3.19658e-09
-8.24424e-10
-3.19558e-09
-9.53752e-10
-3.04951e-09
-1.5067e-09
-2.90262e-09
-1.61305e-09
-2.8602e-09
-1.75587e-09
-2.7058e-09
-1.89431e-09
-2.47137e-09
-1.85809e-09
-2.22751e-09
-1.67856e-09
-2.13719e-09
-1.41929e-09
-2.09021e-09
-1.28357e-09
-2.18547e-09
-1.2389e-09
-1.81248e-09
-1.31114e-09
-1.6862e-09
-1.07906e-09
-1.55883e-09
-9.08254e-10
-1.48687e-09
-6.45524e-10
-1.43196e-09
-3.10189e-10
-1.32695e-09
-1.70709e-10
-1.24757e-09
8.23505e-12
-1.16414e-09
9.02073e-11
-1.18574e-09
4.46506e-10
-1.23398e-09
8.82059e-10
-1.25929e-09
9.5277e-10
-1.40722e-09
1.14313e-09
-1.56116e-09
1.35021e-09
-1.63933e-09
1.34668e-09
-1.70004e-09
1.32634e-09
-1.7298e-09
1.25164e-09
-1.76809e-09
1.17316e-09
-1.74727e-09
1.03427e-09
-1.77034e-09
8.26493e-10
-1.57935e-09
6.08915e-10
-1.46003e-09
4.14024e-10
-1.35281e-09
2.47028e-10
-1.30539e-09
6.24787e-11
-1.25288e-09
-8.15859e-12
-1.23625e-09
-8.99844e-11
-1.25827e-09
-1.4461e-10
-1.27276e-09
-2.2991e-10
-1.27706e-09
-2.48925e-10
-1.24303e-09
-3.1724e-10
-1.23291e-09
-4.70222e-10
-1.26479e-09
-5.85002e-10
-1.26326e-09
-7.7777e-10
-1.2035e-09
-9.62006e-10
-1.12784e-09
-1.06458e-09
-1.07161e-09
-1.11382e-09
-1.07649e-09
-1.0899e-09
-1.06942e-09
-1.1159e-09
-1.02062e-09
-1.22042e-09
-1.01329e-09
-1.32518e-09
-9.7516e-10
-1.45389e-09
-9.70059e-10
-1.50741e-09
-9.89987e-10
-1.54753e-09
-9.87439e-10
-1.55766e-09
-8.96025e-10
-1.37269e-09
-7.71517e-10
-1.04605e-09
-6.80616e-10
-8.13734e-10
-6.65615e-10
-4.78656e-10
-9.00372e-10
9.67955e-10
-3.89237e-10
9.45521e-10
6.38175e-17
1.38934e-09
-3.21342e-18
-2.77588e-18
-3.55263e-18
-1.49034e-18
-3.49071e-18
-1.25026e-18
-3.33936e-18
-1.17557e-18
-3.1698e-18
-1.19893e-18
-2.99142e-18
-1.2877e-18
-2.79668e-18
-1.42272e-18
-2.57593e-18
-1.58873e-18
-2.32179e-18
-1.77067e-18
-2.03112e-18
-1.95328e-18
-1.70486e-18
-2.12165e-18
-1.34741e-18
-2.26237e-18
-9.66349e-19
-2.36439e-18
-5.71551e-19
-2.41963e-18
-1.74072e-19
-2.42318e-18
2.14909e-19
-2.37374e-18
5.8501e-19
-2.27333e-18
9.27032e-19
-2.1265e-18
1.23317e-18
-1.93953e-18
1.4976e-18
-1.71986e-18
1.71677e-18
-1.47566e-18
1.88926e-18
-1.21525e-18
2.01528e-18
-9.46598e-19
2.09625e-18
-6.76859e-19
2.13442e-18
-4.12108e-19
2.13254e-18
-1.57244e-19
2.09384e-18
8.39747e-20
2.0219e-18
3.08802e-19
1.92055e-18
5.15354e-19
1.79357e-18
7.02452e-19
1.64452e-18
8.69499e-19
1.47667e-18
1.01635e-18
1.29302e-18
1.14321e-18
1.0963e-18
1.25049e-18
8.89076e-19
1.33872e-18
6.73707e-19
1.40848e-18
4.52399e-19
1.46028e-18
2.27212e-19
1.49456e-18
1.51164e-18
-2.08655e-10
2.83467e-10
-2.58526e-10
4.41345e-10
-5.13769e-10
9.57607e-10
-6.75062e-10
1.27364e-09
-1.04815e-09
1.87183e-09
-1.31325e-09
2.13297e-09
-1.31868e-09
2.52924e-09
-1.54245e-09
2.56717e-09
-2.03892e-09
2.7909e-09
-2.41733e-09
2.40729e-09
-2.56138e-09
2.07728e-09
-2.62262e-09
1.98019e-09
-2.7016e-09
1.80497e-09
-2.86541e-09
1.51504e-09
-2.90326e-09
1.2281e-09
-2.83362e-09
9.16066e-10
-2.87677e-09
7.15985e-10
-2.88351e-09
3.61147e-10
-2.93625e-09
-5.45057e-11
-2.82002e-09
-4.5401e-10
-3.00954e-09
-6.34901e-10
-3.08531e-09
-8.77981e-10
-3.05164e-09
-1.54036e-09
-2.86972e-09
-1.79498e-09
-2.8835e-09
-1.74208e-09
-2.79775e-09
-1.98006e-09
-2.73195e-09
-1.92388e-09
-2.56666e-09
-1.84385e-09
-2.36761e-09
-1.61834e-09
-2.20672e-09
-1.44446e-09
-2.03213e-09
-1.41348e-09
-2.05544e-09
-1.28783e-09
-2.08031e-09
-1.05419e-09
-1.7957e-09
-1.19287e-09
-1.7163e-09
-7.24918e-10
-1.57897e-09
-4.47516e-10
-1.47136e-09
-2.78325e-10
-1.36551e-09
-9.76137e-11
-1.33259e-09
5.72917e-11
-1.34803e-09
4.61948e-10
-1.36952e-09
9.03544e-10
-1.42568e-09
1.00893e-09
-1.4564e-09
1.17385e-09
-1.50701e-09
1.40082e-09
-1.56622e-09
1.40589e-09
-1.64152e-09
1.40163e-09
-1.65169e-09
1.26182e-09
-1.58957e-09
1.11104e-09
-1.48849e-09
9.33191e-10
-1.42598e-09
7.63984e-10
-1.26754e-09
4.50479e-10
-1.15704e-09
3.03523e-10
-1.06883e-09
1.58811e-10
-1.06199e-09
5.56468e-11
-1.05192e-09
-1.82373e-11
-1.05067e-09
-9.12271e-11
-1.05894e-09
-1.36343e-10
-1.08866e-09
-2.00191e-10
-1.10905e-09
-2.28533e-10
-1.07701e-09
-3.49278e-10
-1.07399e-09
-4.73243e-10
-1.05405e-09
-6.04946e-10
-1.06274e-09
-7.69081e-10
-1.07749e-09
-9.47252e-10
-1.10849e-09
-1.03359e-09
-1.13988e-09
-1.08243e-09
-1.1139e-09
-1.11588e-09
-1.02004e-09
-1.20977e-09
-9.59155e-10
-1.2813e-09
-9.77019e-10
-1.30732e-09
-9.5429e-10
-1.47662e-09
-1.02782e-09
-1.43388e-09
-1.08689e-09
-1.48846e-09
-1.11152e-09
-1.53303e-09
-1.04144e-09
-1.44276e-09
-9.81415e-10
-1.10608e-09
-1.0332e-09
-7.61947e-10
-1.1513e-09
-3.60554e-10
-1.07782e-09
8.94476e-10
-6.20898e-10
4.88596e-10
-3.85723e-17
7.68443e-10
-2.69562e-18
-6.95814e-19
-3.31255e-18
-8.7358e-19
-3.41602e-18
-1.14748e-18
-3.36271e-18
-1.22959e-18
-3.25857e-18
-1.30376e-18
-3.12644e-18
-1.42055e-18
-2.96269e-18
-1.58682e-18
-2.75788e-18
-1.79317e-18
-2.5044e-18
-2.02306e-18
-2.19949e-18
-2.25691e-18
-1.84558e-18
-2.47465e-18
-1.44944e-18
-2.65792e-18
-1.02158e-18
-2.79174e-18
-5.75109e-19
-2.86547e-18
-1.24633e-19
-2.87301e-18
3.15322e-19
-2.81304e-18
7.31842e-19
-2.68882e-18
1.114e-18
-2.50709e-18
1.45284e-18
-2.27675e-18
1.7418e-18
-2.00787e-18
1.97718e-18
-1.71103e-18
2.15791e-18
-1.39671e-18
2.28502e-18
-1.0747e-18
2.361e-18
-7.53647e-19
2.38928e-18
-4.40763e-19
2.37376e-18
-1.41745e-19
2.31866e-18
1.39187e-19
2.22845e-18
3.99125e-19
2.10765e-18
6.36259e-19
1.96061e-18
8.49647e-19
1.79137e-18
1.03901e-18
1.60353e-18
1.20457e-18
1.4003e-18
1.34687e-18
1.18454e-18
1.46667e-18
9.58832e-19
1.56483e-18
7.25509e-19
1.64218e-18
4.86682e-19
1.69947e-18
2.44288e-19
1.73732e-18
1.75615e-18
-2.14324e-10
4.97791e-10
-3.72771e-10
5.99793e-10
-4.69595e-10
1.05443e-09
-9.61675e-10
1.76572e-09
-1.30701e-09
2.21717e-09
-1.87178e-09
2.69773e-09
-2.15592e-09
2.81338e-09
-2.34079e-09
2.75204e-09
-2.13478e-09
2.58489e-09
-2.04427e-09
2.31678e-09
-2.37175e-09
2.40476e-09
-2.39888e-09
2.00732e-09
-2.48595e-09
1.89204e-09
-2.58129e-09
1.61038e-09
-2.52752e-09
1.17432e-09
-2.51735e-09
9.05897e-10
-2.42345e-09
6.22088e-10
-2.45346e-09
3.91155e-10
-2.62167e-09
1.13711e-10
-2.67548e-09
-4.00204e-10
-2.70327e-09
-6.07111e-10
-2.78596e-09
-7.95283e-10
-2.87337e-09
-1.45295e-09
-2.81175e-09
-1.85659e-09
-2.88439e-09
-1.66944e-09
-2.79678e-09
-2.06767e-09
-2.69553e-09
-2.02512e-09
-2.64551e-09
-1.89388e-09
-2.55244e-09
-1.71141e-09
-2.45896e-09
-1.53794e-09
-2.32085e-09
-1.55159e-09
-2.14774e-09
-1.46095e-09
-1.84937e-09
-1.35256e-09
-1.94596e-09
-1.09627e-09
-1.80721e-09
-8.6367e-10
-1.72935e-09
-5.25378e-10
-1.64206e-09
-3.65611e-10
-1.53458e-09
-2.05097e-10
-1.57675e-09
9.9465e-11
-1.52757e-09
4.12763e-10
-1.39591e-09
7.71891e-10
-1.49613e-09
1.10915e-09
-1.472e-09
1.14972e-09
-1.44587e-09
1.37468e-09
-1.43544e-09
1.39547e-09
-1.42925e-09
1.39544e-09
-1.4142e-09
1.24677e-09
-1.35202e-09
1.04886e-09
-1.26105e-09
8.42215e-10
-1.1398e-09
6.42743e-10
-1.04758e-09
3.5825e-10
-9.78333e-10
2.34279e-10
-9.49117e-10
1.29594e-10
-9.679e-10
7.44294e-11
-9.8809e-10
1.95295e-12
-1.00779e-09
-7.15291e-11
-9.83892e-10
-1.60239e-10
-9.8181e-10
-2.02274e-10
-9.78107e-10
-2.32236e-10
-9.43206e-10
-3.8418e-10
-9.07184e-10
-5.09264e-10
-8.84156e-10
-6.27975e-10
-9.29401e-10
-7.23837e-10
-9.54778e-10
-9.21875e-10
-9.5669e-10
-1.03168e-09
-9.32785e-10
-1.10633e-09
-8.62709e-10
-1.18596e-09
-8.0492e-10
-1.26756e-09
-7.92248e-10
-1.29398e-09
-8.42728e-10
-1.25683e-09
-1.01228e-09
-1.30707e-09
-9.77128e-10
-1.46903e-09
-9.67337e-10
-1.49825e-09
-1.03235e-09
-1.46801e-09
-1.10078e-09
-1.37434e-09
-1.12211e-09
-1.08475e-09
-1.19356e-09
-6.9049e-10
-1.21162e-09
-3.42495e-10
-9.45992e-10
6.28846e-10
-5.8545e-10
1.28053e-10
-3.81441e-16
1.82993e-10
-3.83196e-18
-2.06695e-18
-3.58645e-18
-1.11968e-18
-3.49813e-18
-1.23616e-18
-3.43687e-18
-1.29087e-18
-3.37536e-18
-1.36553e-18
-3.29271e-18
-1.50347e-18
-3.16905e-18
-1.71076e-18
-2.98777e-18
-1.97424e-18
-2.73825e-18
-2.27159e-18
-2.41723e-18
-2.57647e-18
-2.02885e-18
-2.86186e-18