/*--------------------------------*- C++ -*----------------------------------*\
  =========                 |
  \\      /  F ield         | OpenFOAM: The Open Source CFD Toolbox
   \\    /   O peration     | Website:  https://openfoam.org
    \\  /    A nd           | Version:  6
     \\/     M anipulation  |
\*---------------------------------------------------------------------------*/
FoamFile
{
    version     2.0;
    format      ascii;
    class       volScalarField;
    location    "4600";
    object      Su;
}
// * * * * * * * * * * * * * * * * * * * * * * * * * * * * * * * * * * * * * //

dimensions      [0 0 -1 0 0 0 0];

internalField   nonuniform List<scalar> 
4800
(
0.217653
0.211767
0.205856
0.199937
0.194051
0.188245
0.182579
0.177111
0.171894
0.166983
0.162431
0.158276
0.154538
0.151215
0.14828
0.145695
0.143417
0.1414
0.139599
0.137971
0.136478
0.135083
0.133748
0.132443
0.131151
0.129838
0.12848
0.127079
0.125623
0.124095
0.122489
0.120785
0.11897
0.117034
0.114963
0.112753
0.110404
0.107921
0.105308
0.102575
0.0997313
0.0967939
0.093784
0.0907257
0.0876428
0.0845566
0.0814857
0.0784489
0.075468
0.0725631
0.0697441
0.0670157
0.064386
0.0618618
0.0594415
0.0571177
0.0548812
0.0527186
0.0506174
0.0485694
0.046567
0.0445937
0.0426396
0.0406992
0.0387617
0.0368232
0.034881
0.0329276
0.0309571
0.0289669
0.0269494
0.0248897
0.0227732
0.0205862
0.0183052
0.0159088
0.0133855
0.0107271
0.00793574
0.00502264
0.00201527
-0.00100987
-0.00400136
-0.00697195
-0.00992833
-0.0128742
-0.0158118
-0.0187423
-0.021666
-0.0245831
-0.0274934
-0.0303965
-0.033292
-0.0361796
-0.0390589
-0.0419298
-0.0447921
-0.0476458
-0.050491
-0.0533279
-0.0561567
-0.0589779
-0.0617916
-0.0645984
-0.0673987
-0.070193
-0.0729816
-0.0757651
-0.0785438
-0.0813184
-0.0840891
-0.0868564
-0.0896207
-0.0923824
-0.0951419
-0.0978996
-0.100656
-0.103411
-0.106165
-0.108919
0.217631
0.211699
0.205748
0.199796
0.193884
0.188062
0.182381
0.1769
0.171678
0.166778
0.162262
0.158159
0.154473
0.15119
0.14829
0.145734
0.143482
0.141489
0.139709
0.138099
0.13662
0.135234
0.133903
0.132599
0.131302
0.129977
0.128613
0.127204
0.125734
0.124191
0.122566
0.120845
0.119012
0.117057
0.114973
0.112755
0.110406
0.107927
0.10532
0.102593
0.0997567
0.0968272
0.0938237
0.0907694
0.0876866
0.0845963
0.0815232
0.078492
0.0755231
0.0726306
0.0698234
0.0671151
0.0645163
0.0620262
0.0596364
0.0573386
0.0551213
0.0529688
0.0508719
0.0488234
0.046815
0.0448353
0.0428765
0.0409266
0.0389772
0.0370247
0.0350607
0.0330804
0.0310815
0.0290592
0.0270051
0.0249108
0.0227655
0.0205501
0.0182465
0.0158372
0.0133059
0.0106439
0.00785262
0.00494704
0.00196668
-0.00102964
-0.00400802
-0.00697205
-0.0099251
-0.0128695
-0.0158066
-0.0187373
-0.0216616
-0.0245795
-0.0274907
-0.0303947
-0.0332911
-0.0361795
-0.0390596
-0.0419311
-0.0447939
-0.047648
-0.0504935
-0.0533307
-0.0561597
-0.0589809
-0.0617947
-0.0646015
-0.0674017
-0.0701958
-0.0729843
-0.0757676
-0.0785462
-0.0813206
-0.0840911
-0.0868582
-0.0896223
-0.0923838
-0.0951431
-0.0979006
-0.100657
-0.103411
-0.106165
-0.108919
0.217585
0.21157
0.205556
0.199555
0.193603
0.187753
0.182053
0.176561
0.171358
0.166505
0.162047
0.158011
0.154396
0.151182
0.148343
0.145846
0.143646
0.141698
0.13996
0.138385
0.136934
0.135567
0.134245
0.132944
0.13164
0.130297
0.12892
0.127493
0.125993
0.124415
0.122753
0.120993
0.119126
0.117144
0.115042
0.112815
0.110462
0.107985
0.105384
0.102665
0.0998374
0.0969171
0.0939246
0.0908811
0.0878074
0.0847263
0.0816663
0.0786556
0.0757141
0.0728538
0.0700888
0.0674316
0.0648841
0.062441
0.0600906
0.0578248
0.0556301
0.0534889
0.0513955
0.0493444
0.0473283
0.0453388
0.0433658
0.0413956
0.0394197
0.0374357
0.035433
0.0334081
0.0313582
0.0292785
0.0271628
0.0250061
0.0227987
0.0205263
0.018177
0.0157366
0.0131882
0.0105227
0.00774291
0.00486352
0.00191636
-0.00105213
-0.00401362
-0.00696802
-0.00991605
-0.0128583
-0.0157951
-0.0187265
-0.0216523
-0.024572
-0.0274851
-0.0303911
-0.0332893
-0.0361794
-0.039061
-0.0419337
-0.0447976
-0.0476525
-0.0504987
-0.0533363
-0.0561656
-0.058987
-0.0618008
-0.0646075
-0.0674076
-0.0702016
-0.0729898
-0.0757728
-0.0785511
-0.081325
-0.0840952
-0.0868619
-0.0896256
-0.0923867
-0.0951455
-0.0979025
-0.100658
-0.103412
-0.106166
-0.108919
0.217533
0.211424
0.205334
0.199282
0.193294
0.187412
0.181686
0.176197
0.171035
0.166258
0.161888
0.15793
0.15439
0.151257
0.148503
0.14608
0.143948
0.142062
0.140377
0.138845
0.137428
0.136086
0.134777
0.133482
0.132172
0.130816
0.129416
0.127953
0.126411
0.124787
0.123078
0.121268
0.119358
0.117341
0.11521
0.112967
0.110605
0.108123
0.105524
0.10281
0.0999917
0.0970838
0.0941067
0.09108
0.088025
0.0849695
0.0819457
0.0789795
0.0760882
0.0732849
0.0705838
0.0679923
0.0655075
0.0631184
0.060811
0.0585776
0.0564021
0.0542701
0.0521803
0.0501259
0.0480996
0.0460922
0.0440922
0.0420894
0.0400753
0.038047
0.0359921
0.0339085
0.0317921
0.0296398
0.0274459
0.0252059
0.0229146
0.0205666
0.0181528
0.0156616
0.0130839
0.0104132
0.00764848
0.00479766
0.00188046
-0.00106381
-0.00400864
-0.00695332
-0.00989672
-0.0128377
-0.0157754
-0.0187089
-0.0216375
-0.0245603
-0.0274766
-0.0303857
-0.0332868
-0.0361795
-0.0390633
-0.041938
-0.0448034
-0.0476596
-0.0505067
-0.0533449
-0.0561747
-0.0589963
-0.0618101
-0.0646168
-0.0674166
-0.0702102
-0.0729981
-0.0757806
-0.0785583
-0.0813318
-0.0841013
-0.0868674
-0.0896304
-0.0923909
-0.0951491
-0.0979055
-0.10066
-0.103414
-0.106167
-0.108919
0.217487
0.211292
0.205126
0.199011
0.192983
0.187091
0.181392
0.175943
0.170827
0.16611
0.161825
0.157966
0.154522
0.151485
0.148819
0.146477
0.144421
0.142603
0.140973
0.139487
0.13811
0.136796
0.135502
0.134209
0.13289
0.13152
0.130091
0.128588
0.127001
0.125327
0.123563
0.121693
0.11973
0.117668
0.115504
0.113237
0.110858
0.108367
0.105766
0.103057
0.100248
0.0973541
0.0943958
0.0913929
0.08837
0.0853582
0.0823891
0.0794871
0.0766679
0.073943
0.0713198
0.0688017
0.0663838
0.0640494
0.0617833
0.0595756
0.0574129
0.0552877
0.053198
0.0511359
0.0490954
0.0470643
0.0450302
0.0429863
0.0409275
0.0388457
0.0367292
0.0345769
0.0323841
0.0301482
0.0278634
0.0255283
0.0231417
0.020701
0.018205
0.0156513
0.0130354
0.0103498
0.00758768
0.00475465
0.00186551
-0.00105303
-0.00398246
-0.00691974
-0.0098612
-0.0128037
-0.0157447
-0.0186827
-0.0216161
-0.0245438
-0.027465
-0.0303785
-0.0332838
-0.0361801
-0.039067
-0.0419443
-0.0448118
-0.0476696
-0.0505179
-0.053357
-0.0561872
-0.059009
-0.0618229
-0.0646293
-0.0674288
-0.070222
-0.0730092
-0.0757911
-0.0785681
-0.0813408
-0.0841095
-0.0868747
-0.089637
-0.0923966
-0.0951539
-0.0979094
-0.100663
-0.103416
-0.106168
-0.10892
0.217445
0.211165
0.204924
0.198757
0.192708
0.18682
0.181145
0.175755
0.170723
0.166103
0.161913
0.158154
0.154818
0.151885
0.149312
0.147056
0.145079
0.14333
0.141759
0.140324
0.138986
0.137697
0.136416
0.135127
0.1338
0.132409
0.130944
0.129396
0.12776
0.126032
0.124213
0.122294
0.120286
0.118178
0.115974
0.113669
0.111261
0.108752
0.106142
0.103434
0.10063
0.0977497
0.094813
0.0918423
0.088868
0.0859221
0.0830302
0.0802089
0.0774728
0.0748336
0.0722915
0.0698487
0.0674932
0.0652069
0.0629757
0.0607908
0.0586419
0.0565204
0.0544222
0.0523451
0.0502848
0.0482257
0.046157
0.0440713
0.0419623
0.0398207
0.0376379
0.0354113
0.0331369
0.0308125
0.0284318
0.0259951
0.0235043
0.0209634
0.0183751
0.0157441
0.0130759
0.0103636
0.0075893
0.00475567
0.00188729
-0.00100394
-0.0039221
-0.00685746
-0.00980244
-0.0127513
-0.0157
-0.0186458
-0.021587
-0.0245222
-0.0274501
-0.0303699
-0.0332806
-0.0361817
-0.0390726
-0.0419531
-0.0448232
-0.047683
-0.0505327
-0.0533727
-0.0562035
-0.0590255
-0.0618393
-0.0646454
-0.0674444
-0.0702369
-0.0730233
-0.0758043
-0.0785804
-0.0813521
-0.0841198
-0.086884
-0.0896451
-0.0924036
-0.0951599
-0.0979143
-0.100667
-0.103419
-0.10617
-0.10892
0.217429
0.211116
0.204848
0.198656
0.192575
0.186664
0.18101
0.175691
0.170751
0.16623
0.162151
0.158507
0.155287
0.152464
0.14999
0.147824
0.145929
0.144247
0.142737
0.141352
0.14005
0.138782
0.137517
0.136227
0.134888
0.133471
0.131968
0.130374
0.128689
0.12691
0.125039
0.123064
0.121
0.118844
0.116598
0.114257
0.111821
0.109294
0.106675
0.103964
0.101168
0.09831
0.0954079
0.0924826
0.0895661
0.0866897
0.0838768
0.0811416
0.0784943
0.0759428
0.0734824
0.0711116
0.0688104
0.0665647
0.0643601
0.062191
0.0600488
0.0579266
0.0558199
0.053728
0.0516461
0.0495589
0.0474568
0.0453304
0.0431701
0.0409673
0.0387157
0.0364123
0.0340544
0.0316391
0.0291608
0.0266205
0.0240223
0.0213745
0.0186878
0.0159733
0.0132371
0.0104788
0.00768179
0.00484597
0.00198667
-0.000894559
-0.0038126
-0.0067559
-0.00971309
-0.0126756
-0.0156379
-0.0185964
-0.0215492
-0.0244948
-0.027432
-0.03036
-0.0332778
-0.0361848
-0.0390806
-0.0419651
-0.0448383
-0.0477003
-0.0505517
-0.0533927
-0.0562239
-0.059046
-0.0618596
-0.0646652
-0.0674635
-0.0702551
-0.0730405
-0.0758204
-0.0785953
-0.0813657
-0.0841322
-0.0868951
-0.0896549
-0.0924121
-0.0951671
-0.0979202
-0.100672
-0.103422
-0.106172
-0.108921
0.217419
0.21109
0.20481
0.19861
0.192531
0.186642
0.181026
0.175766
0.170923
0.166519
0.162558
0.159036
0.15594
0.15323
0.150857
0.148787
0.146971
0.145357
0.143905
0.142563
0.141291
0.14004
0.13879
0.137498
0.13614
0.134697
0.133157
0.131518
0.12978
0.127946
0.126019
0.123999
0.121891
0.11969
0.117396
0.115012
0.112546
0.109997
0.107367
0.104652
0.101867
0.0990353
0.0961724
0.0932998
0.0904521
0.0876545
0.0849264
0.0822793
0.0797205
0.0772519
0.0748669
0.0725577
0.070303
0.0680899
0.0659047
0.0637446
0.0616028
0.0594755
0.0573587
0.0552527
0.0531514
0.0510392
0.0489065
0.0467426
0.0445356
0.0422764
0.0399583
0.0375802
0.0351408
0.0326351
0.03006
0.0274163
0.0247104
0.0219542
0.0191626
0.016351
0.0135272
0.010691
0.00784048
0.00500115
0.00216253
-0.000710662
-0.00364141
-0.0066061
-0.00958713
-0.0125728
-0.015556
-0.0185331
-0.021502
-0.0244616
-0.027411
-0.0303493
-0.0332758
-0.0361902
-0.0390919
-0.0419811
-0.0448578
-0.0477224
-0.0505754
-0.0534174
-0.0562491
-0.0590711
-0.0618842
-0.064689
-0.0674864
-0.0702768
-0.0730609
-0.0758395
-0.0786129
-0.0813818
-0.0841467
-0.0869081
-0.0896664
-0.0924221
-0.0951755
-0.097927
-0.100677
-0.103426
-0.106174
-0.108922
0.217404
0.211056
0.204764
0.198561
0.192502
0.186665
0.181148
0.176008
0.171275
0.166983
0.163147
0.159756
0.156782
0.154186
0.151921
0.149944
0.148205
0.146656
0.145253
0.143947
0.142694
0.141456
0.140215
0.138918
0.137538
0.136067
0.134486
0.132799
0.131009
0.129125
0.127151
0.125083
0.122921
0.120674
0.118337
0.115916
0.113422
0.110854
0.108212
0.105498
0.102729
0.0999298
0.0971145
0.0943056
0.0915321
0.0888135
0.0861689
0.083608
0.0811333
0.0787395
0.0764189
0.0741543
0.0719306
0.0697361
0.0675619
0.0654066
0.0632654
0.061135
0.0590115
0.0568955
0.0547783
0.0526457
0.0504869
0.0482887
0.0460374
0.0437256
0.0413497
0.0389086
0.0363958
0.0338043
0.0311357
0.0283907
0.0255796
0.0227166
0.0198186
0.0169033
0.0139842
0.0110698
0.00817199
0.00531583
0.0024629
-0.000433121
-0.00339994
-0.00640387
-0.00942235
-0.0124415
-0.0154538
-0.0184556
-0.0214456
-0.0244231
-0.0273876
-0.0303386
-0.0332758
-0.0361988
-0.0391074
-0.0420019
-0.0448825
-0.0477498
-0.0506046
-0.0534474
-0.0562793
-0.059101
-0.0619134
-0.0647172
-0.0675132
-0.0703021
-0.0730847
-0.0758615
-0.0786332
-0.0814004
-0.0841635
-0.086923
-0.0896795
-0.0924334
-0.095185
-0.0979348
-0.100683
-0.10343
-0.106177
-0.108923
0.217405
0.211058
0.204778
0.198593
0.192568
0.186791
0.181358
0.176335
0.171753
0.167626
0.163932
0.160671
0.157821
0.155338
0.153178
0.151287
0.149617
0.148122
0.146757
0.145479
0.144241
0.143013
0.141776
0.140471
0.139065
0.137565
0.135946
0.134211
0.132368
0.130431
0.128407
0.126293
0.124091
0.1218
0.119418
0.116961
0.114439
0.111853
0.109204
0.1065
0.10376
0.101
0.098239
0.0954962
0.0927973
0.0901571
0.0875924
0.0851082
0.0827025
0.0803674
0.0780922
0.0758561
0.0736498
0.071465
0.0692981
0.0671471
0.0650088
0.0628788
0.060753
0.0586318
0.0565034
0.0543549
0.0521737
0.0499485
0.0476648
0.0453151
0.0428945
0.0403967
0.0378128
0.0351394
0.0323813
0.0295439
0.0266375
0.0236721
0.020666
0.0176442
0.0146325
0.0116489
0.00870529
0.00581072
0.00290301
-6.24174e-05
-0.00309416
-0.0061554
-0.0092235
-0.0122851
-0.0153335
-0.0183658
-0.0213814
-0.0243805
-0.0273632
-0.0303293
-0.0332789
-0.0362118
-0.0391282
-0.0420286
-0.0449134
-0.0477836
-0.0506399
-0.0534835
-0.0563153
-0.0591364
-0.0619476
-0.0647499
-0.0675443
-0.0703313
-0.0731119
-0.0758867
-0.0786563
-0.0814214
-0.0841824
-0.0869399
-0.0896943
-0.0924461
-0.0951957
-0.0979435
-0.10069
-0.103435
-0.10618
-0.108924
0.217426
0.21111
0.204863
0.198742
0.192808
0.187145
0.181841
0.176944
0.172474
0.168458
0.164893
0.161769
0.159044
0.156677
0.154613
0.152797
0.151186
0.149737
0.148405
0.147148
0.145925
0.144694
0.143451
0.142138
0.140707
0.139179
0.137519
0.135736
0.133844
0.131857
0.129783
0.12762
0.125371
0.123037
0.12062
0.118133
0.115588
0.11299
0.110342
0.107661
0.104958
0.102242
0.0995401
0.0968621
0.0942313
0.0916605
0.0891647
0.0867442
0.0843915
0.0820972
0.0798482
0.0776282
0.0754314
0.0732541
0.0710944
0.0689495
0.0668159
0.0646875
0.0625615
0.0604363
0.0582993
0.0561388
0.0539427
0.0516998
0.049393
0.0470141
0.0445547
0.042004
0.0393552
0.0366117
0.0337817
0.0308631
0.0278611
0.0247947
0.0216851
0.0185616
0.015462
0.0124085
0.00940985
0.00645072
0.0034491
0.000364924
-0.00275414
-0.0058817
-0.00900436
-0.0121127
-0.0152013
-0.018268
-0.0213129
-0.0243367
-0.0273401
-0.0303234
-0.0332869
-0.0362309
-0.0391558
-0.0420624
-0.0449516
-0.0478245
-0.0506823
-0.0535262
-0.0563575
-0.0591775
-0.0619871
-0.0647876
-0.0675797
-0.0703645
-0.0731427
-0.0759151
-0.0786822
-0.0814448
-0.0842034
-0.0869586
-0.0897107
-0.0924602
-0.0952076
-0.0979532
-0.100697
-0.10344
-0.106183
-0.108925
0.217467
0.211225
0.205041
0.19898
0.193124
0.18757
0.182391
0.177626
0.173305
0.169444
0.166029
0.163046
0.160447
0.158187
0.156212
0.154465
0.152906
0.151494
0.150188
0.148943
0.147728
0.146495
0.14524
0.143913
0.142456
0.140896
0.139198
0.137375
0.13544
0.133404
0.131276
0.129063
0.126768
0.124392
0.121941
0.119427
0.116865
0.114265
0.111635
0.108989
0.106326
0.103658
0.101015
0.0983978
0.0958255
0.0933106
0.0908671
0.088491
0.0861715
0.0838986
0.0816608
0.0794487
0.0772576
0.0750862
0.0729318
0.0707914
0.0686608
0.0665336
0.064407
0.0622786
0.0601366
0.057968
0.0557609
0.0535035
0.0511789
0.0487753
0.0462808
0.0436866
0.0409909
0.0381958
0.0353003
0.0323021
0.0292135
0.0260499
0.0228354
0.0196121
0.016419
0.0132791
0.0101986
0.00714213
0.00402228
0.000764224
-0.00243713
-0.00561715
-0.008786
-0.011938
-0.0150668
-0.0181694
-0.0212456
-0.0242962
-0.027322
-0.0303239
-0.0333023
-0.0362581
-0.0391919
-0.0421049
-0.0449983
-0.0478737
-0.0507325
-0.0535763
-0.0564066
-0.0592248
-0.0620323
-0.0648303
-0.0676198
-0.0704018
-0.0731771
-0.0759466
-0.078711
-0.0814708
-0.0842267
-0.0869791
-0.0897286
-0.0924756
-0.0952205
-0.0979637
-0.100705
-0.103446
-0.106186
-0.108926
0.217518
0.211376
0.205283
0.199318
0.193569
0.188134
0.183091
0.178482
0.174325
0.170622
0.167356
0.164505
0.162025
0.159861
0.157966
0.156283
0.15477
0.153389
0.152101
0.150865
0.149652
0.148421
0.147142
0.145798
0.144314
0.142726
0.140996
0.13914
0.137168
0.135086
0.132908
0.130643
0.128295
0.125873
0.123387
0.12085
0.118282
0.115696
0.113095
0.110492
0.107874
0.105256
0.102666
0.100102
0.097575
0.0950996
0.0926854
0.0903289
0.0880194
0.08575
0.0835129
0.0813014
0.0791113
0.0769406
0.0747865
0.072646
0.0705138
0.0683849
0.0662555
0.0641227
0.0619742
0.059797
0.0575806
0.0553109
0.0529688
0.0505416
0.0480179
0.0453886
0.0426506
0.0398033
0.0368454
0.0337773
0.0306079
0.0273545
0.0240452
0.0207159
0.0174058
0.0141475
0.0109426
0.0077486
0.00442952
0.000975348
-0.00221571
-0.00539582
-0.00858932
-0.0117766
-0.0149426
-0.0180802
-0.0211876
-0.0242652
-0.027314
-0.0303348
-0.0333285
-0.036296
-0.0392386
-0.0421577
-0.0450549
-0.0479322
-0.0507913
-0.0536343
-0.0564629
-0.0592788
-0.0620835
-0.0648783
-0.0676646
-0.0704432
-0.0732152
-0.0759814
-0.0787425
-0.0814991
-0.084252
-0.0870015
-0.0897481
-0.0924923
-0.0952345
-0.097975
-0.100714
-0.103452
-0.10619
-0.108927
0.217578
0.211566
0.205607
0.199772
0.194164
0.188876
0.183977
0.179512
0.175506
0.171958
0.168841
0.166124
0.163762
0.161698
0.159883
0.15826
0.156788
0.15543
0.154159
0.15293
0.151719
0.150474
0.14917
0.147805
0.146298
0.14469
0.142939
0.141061
0.139058
0.136939
0.134716
0.1324
0.13
0.127532
0.125013
0.122459
0.119893
0.117332
0.114768
0.112212
0.109639
0.107066
0.104514
0.101983
0.0994774
0.0970135
0.0946002
0.0922392
0.089921
0.0876418
0.085395
0.0831744
0.080976
0.0787965
0.0766335
0.0744841
0.0723425
0.0702047
0.0680662
0.0659223
0.0637615
0.061572
0.0593418
0.0570529
0.0546877
0.0522342
0.0496799
0.0470162
0.0442388
0.0413442
0.0383306
0.0351998
0.0319603
0.0286274
0.0252288
0.0217997
0.0183727
0.0149689
0.0115836
0.00816804
0.00461476
0.000635132
-0.00211097
-0.00521878
-0.00842471
-0.0116435
-0.0148437
-0.0180136
-0.02115
-0.024253
-0.0273232
-0.0303617
-0.0333696
-0.036348
-0.0392984
-0.0422227
-0.0451229
-0.0480011
-0.0508598
-0.0537011
-0.0565271
-0.0593398
-0.0621409
-0.0649319
-0.0677141
-0.0704888
-0.0732569
-0.0760193
-0.0787767
-0.0815298
-0.0842793
-0.0870255
-0.089769
-0.0925102
-0.0952495
-0.0979872
-0.100724
-0.103459
-0.106194
-0.108928
0.217646
0.211774
0.205959
0.200272
0.194823
0.189708
0.184988
0.180699
0.176858
0.173468
0.170506
0.167931
0.16569
0.163721
0.161976
0.160408
0.158972
0.157635
0.156372
0.15515
0.153935
0.152674
0.151355
0.149964
0.148442
0.146821
0.145062
0.143175
0.141158
0.13902
0.136769
0.134418
0.131984
0.129487
0.126946
0.124384
0.121825
0.119292
0.116764
0.114245
0.1117
0.109149
0.106613
0.104093
0.10158
0.0990949
0.0966499
0.0942529
0.0918986
0.089586
0.0873105
0.0850654
0.0828442
0.0806426
0.0784572
0.0762848
0.0741202
0.0719594
0.0697976
0.0676293
0.0654443
0.0632288
0.0609683
0.0586445
0.0562428
0.0537514
0.051158
0.0484521
0.0456274
0.0426804
0.0396094
0.0364165
0.0331106
0.0297103
0.0262439
0.0227435
0.0192375
0.0157333
0.012218
0.00867792
0.00510354
0.00151578
-0.00175525
-0.00502222
-0.00829697
-0.011558
-0.0147904
-0.0179875
-0.0211476
-0.024271
-0.0273587
-0.0304117
-0.033431
-0.036418
-0.0393744
-0.0423023
-0.0452039
-0.0480818
-0.0509387
-0.0537772
-0.0565996
-0.059408
-0.0622046
-0.064991
-0.0677685
-0.0705386
-0.0733022
-0.0760603
-0.0788136
-0.0815628
-0.0843084
-0.0870511
-0.0897912
-0.0925291
-0.0952653
-0.098
-0.100733
-0.103466
-0.106198
-0.10893
0.217718
0.211992
0.206328
0.200808
0.195545
0.190625
0.186105
0.182021
0.178381
0.175173
0.172364
0.169918
0.167784
0.16591
0.164241
0.162728
0.161327
0.160011
0.158757
0.15754
0.15632
0.15505
0.153719
0.15231
0.150784
0.149161
0.147411
0.145535
0.143533
0.141406
0.139161
0.13681
0.134373
0.13188
0.12935
0.126806
0.124269
0.121761
0.119245
0.116724
0.114172
0.111609
0.109067
0.106532
0.103968
0.101411
0.0988795
0.0964004
0.0939783
0.0916102
0.0892872
0.086998
0.0847341
0.0824905
0.0802621
0.0780449
0.0758346
0.0736272
0.0714183
0.0692014
0.0669646
0.0646918
0.0623675
0.0599759
0.0575044
0.0549424
0.0522785
0.0495026
0.0466101
0.0435974
0.0404648
0.0372174
0.0338651
0.0304242
0.0269194
0.0233789
0.0198264
0.0162704
0.0127015
0.00910695
0.00549028
0.00190038
-0.00155231
-0.00493083
-0.0082648
-0.0115589
-0.0148125
-0.0180255
-0.0211988
-0.0243338
-0.0274315
-0.030493
-0.033519
-0.0365108
-0.03947
-0.0423988
-0.0452997
-0.0481754
-0.0510289
-0.0538631
-0.0566805
-0.0594837
-0.0622747
-0.0650555
-0.0678276
-0.0705924
-0.0733509
-0.0761042
-0.0788529
-0.0815978
-0.0843393
-0.0870782
-0.0898146
-0.0925491
-0.0952819
-0.0980134
-0.100744
-0.103473
-0.106202
-0.108931
0.2178
0.212241
0.206758
0.201444
0.196406
0.191712
0.187401
0.183508
0.18004
0.176999
0.174352
0.172054
0.170046
0.168273
0.166677
0.165216
0.163853
0.162562
0.16132
0.160107
0.158887
0.157618
0.156281
0.15487
0.153355
0.151747
0.150026
0.148195
0.146251
0.144185
0.142
0.139705
0.13732
0.134881
0.13241
0.129926
0.127437
0.124948
0.12241
0.11984
0.117225
0.114614
0.112053
0.109478
0.106794
0.10408
0.101388
0.0987731
0.0962425
0.0937858
0.0913871
0.0890287
0.0866967
0.084383
0.0820808
0.0797868
0.0774969
0.0752067
0.0729107
0.0706008
0.0682641
0.0658858
0.0634499
0.0609423
0.0583514
0.0556693
0.052889
0.0500088
0.0470229
0.0439295
0.0407294
0.0374286
0.0340386
0.0305742
0.0270526
0.0234944
0.0199163
0.0163268
0.0127235
0.00910581
0.00548312
0.00188478
-0.00162177
-0.00504075
-0.00839419
-0.0116937
-0.0149459
-0.0181554
-0.0213253
-0.0244579
-0.0275543
-0.030615
-0.0336404
-0.0366312
-0.0395887
-0.0425148
-0.045412
-0.0482831
-0.0511311
-0.0539592
-0.0567702
-0.0595668
-0.0623512
-0.0651254
-0.0678912
-0.07065
-0.0734028
-0.0761507
-0.0788944
-0.0816346
-0.0843718
-0.0871064
-0.089839
-0.0925698
-0.0952991
-0.0980273
-0.100754
-0.103481
-0.106207
-0.108933
0.217898
0.21254
0.207275
0.202194
0.197387
0.192923
0.188839
0.185163
0.181893
0.17903
0.176538
0.17437
0.172471
0.170785
0.169258
0.167852
0.166532
0.165271
0.16405
0.162848
0.161637
0.160382
0.159059
0.157666
0.156185
0.15462
0.152967
0.151226
0.149391
0.147448
0.145393
0.143229
0.140974
0.138666
0.136321
0.13395
0.131542
0.129075
0.126491
0.123822
0.1211
0.118431
0.115848
0.113199
0.110293
0.107305
0.104354
0.101531
0.0988349
0.0962447
0.0937318
0.0912672
0.0888295
0.0864062
0.0839884
0.0815726
0.0791528
0.0767244
0.0742807
0.0718141
0.0693126
0.0667621
0.0641474
0.0614561
0.0586858
0.0558279
0.0528792
0.049839
0.0467123
0.0435043
0.0402179
0.0368583
0.0334351
0.0299591
0.0264396
0.0228927
0.0193279
0.0157546
0.0121724
0.00858459
0.00500385
0.00144625
-0.00202872
-0.00542037
-0.00874273
-0.0120082
-0.0152267
-0.0184054
-0.021549
-0.0246603
-0.0277398
-0.0307874
-0.0338023
-0.0367844
-0.0397341
-0.0426527
-0.0455424
-0.0484057
-0.0512459
-0.0540658
-0.0568687
-0.0596572
-0.0624337
-0.0652004
-0.067959
-0.070711
-0.0734575
-0.0761995
-0.0789378
-0.0816729
-0.0844054
-0.0871357
-0.0898642
-0.0925912
-0.0953169
-0.0980416
-0.100765
-0.103489
-0.106212
-0.108934
0.218002
0.212859
0.207833
0.203011
0.198459
0.194232
0.190371
0.186907
0.183837
0.181157
0.178823
0.176782
0.174989
0.173392
0.171941
0.170596
0.169324
0.168104
0.166915
0.165736
0.164548
0.163324
0.162042
0.160701
0.15929
0.157812
0.156272
0.154671
0.153005
0.151262
0.149424
0.147489
0.145468
0.143379
0.141236
0.139029
0.13674
0.134335
0.131721
0.128925
0.126075
0.123362
0.12077
0.118016
0.114805
0.111372
0.108033
0.104905
0.101972
0.0991937
0.0965187
0.0939007
0.0913086
0.0887224
0.0861314
0.0835296
0.0809087
0.0782649
0.0755922
0.0728845
0.0701313
0.0673191
0.0644365
0.0614795
0.0584376
0.0553127
0.0521127
0.0488486
0.045531
0.0421731
0.0387793
0.0353523
0.0319004
0.0284296
0.0249391
0.0214415
0.017941
0.0144481
0.0109605
0.00747823
0.00401167
0.000565937
-0.00281274
-0.00611473
-0.00935247
-0.0125388
-0.0156851
-0.0188001
-0.0218895
-0.0249561
-0.0279997
-0.0310188
-0.0340111
-0.0369749
-0.0399093
-0.0428146
-0.0456921
-0.0485441
-0.0513734
-0.0541829
-0.0569756
-0.0597544
-0.0625218
-0.0652799
-0.0680305
-0.070775
-0.0735146
-0.0762502
-0.0789827
-0.0817124
-0.08444
-0.0871657
-0.08989
-0.092613
-0.0953349
-0.0980561
-0.100777
-0.103497
-0.106216
-0.108936
0.218113
0.213205
0.208431
0.203867
0.199569
0.195587
0.191953
0.188696
0.185816
0.183303
0.181114
0.179197
0.177516
0.176013
0.174638
0.173353
0.172136
0.17097
0.169829
0.168696
0.167556
0.166394
0.16519
0.163945
0.162653
0.161319
0.159952
0.15856
0.157145
0.155695
0.154179
0.152594
0.150931
0.149172
0.14731
0.145321
0.143208
0.140928
0.138314
0.135385
0.132377
0.129624
0.12705
0.124199
0.120666
0.116589
0.112726
0.109186
0.105941
0.102915
0.100022
0.0971953
0.0943892
0.0915743
0.0887383
0.0858702
0.0829574
0.0799974
0.0769885
0.0739295
0.0708116
0.0676221
0.0643563
0.061013
0.0575948
0.0541115
0.0505808
0.0470247
0.0434608
0.0399113
0.0363821
0.0328706
0.0293872
0.0259334
0.0224967
0.0190855
0.0157048
0.0123594
0.00904261
0.0057485
0.00248169
-0.000764343
-0.00398621
-0.00713951
-0.0102413
-0.0133038
-0.0163384
-0.0193549
-0.02236
-0.0253562
-0.0283425
-0.0313158
-0.0342717
-0.0372062
-0.0401167
-0.0430019
-0.045862
-0.0486984
-0.0515135
-0.0543099
-0.0570905
-0.059858
-0.0626149
-0.0653633
-0.068105
-0.0708413
-0.0735735
-0.0763024
-0.0790286
-0.0817527
-0.0844751
-0.0871961
-0.089916
-0.0926349
-0.0953531
-0.0980707
-0.100788
-0.103505
-0.106221
-0.108937
0.218227
0.213549
0.209004
0.204666
0.200598
0.196843
0.193431
0.190381
0.187686
0.185329
0.183272
0.181472
0.17989
0.17847
0.177166
0.17595
0.174805
0.173712
0.172646
0.171592
0.170541
0.169486
0.168415
0.167327
0.166223
0.165108
0.163999
0.16291
0.161843
0.160781
0.159696
0.158585
0.157412
0.156111
0.154632
0.152943
0.151088
0.149
0.146397
0.143333
0.14012
0.137323
0.134821
0.131986
0.128175
0.123315
0.118774
0.114714
0.111083
0.107748
0.104576
0.101481
0.0983952
0.0952816
0.092125
0.0889003
0.0855884
0.0821889
0.0787103
0.0751601
0.0715319
0.0678202
0.0640304
0.0601806
0.0562869
0.0523643
0.0484359
0.0445309
0.0406722
0.0368873
0.0331851
0.0295594
0.0260211
0.0225726
0.0191901
0.0158829
0.0126695
0.00953489
0.00646113
0.00343241
0.000443707
-0.00252883
-0.00551439
-0.00846591
-0.0113921
-0.0142958
-0.0171856
-0.0200723
-0.0229641
-0.0258645
-0.028772
-0.0316815
-0.0345862
-0.0374798
-0.0403571
-0.0432149
-0.0460517
-0.0488681
-0.0516655
-0.0544461
-0.0572124
-0.0599669
-0.062712
-0.0654497
-0.0681817
-0.0709093
-0.0736335
-0.0763553
-0.079075
-0.0817933
-0.0845104
-0.0872266
-0.089942
-0.0926569
-0.0953712
-0.0980852
-0.100799
-0.103512
-0.106226
-0.108939
0.218298
0.213772
0.209408
0.205268
0.201396
0.197831
0.194604
0.19173
0.189197
0.186977
0.185036
0.183336
0.181838
0.180493
0.179265
0.178133
0.177081
0.176091
0.175139
0.174217
0.173319
0.172442
0.171581
0.170735
0.169909
0.169112
0.168364
0.167683
0.167067
0.166496
0.165954
0.165434
0.164865
0.164133
0.163128
0.161819
0.16029
0.158441
0.155853
0.152678
0.149269
0.146444
0.144083
0.141439
0.137406
0.131693
0.126395
0.121763
0.117708
0.114027
0.110527
0.107114
0.103696
0.100232
0.0966955
0.0930301
0.089204
0.0852216
0.0811177
0.0769089
0.0725819
0.0681546
0.0636828
0.0592257
0.0548135
0.0504333
0.0460914
0.0418151
0.037633
0.0335751
0.0296444
0.025835
0.0221655
0.0186595
0.015283
0.0120591
0.00903497
0.00615589
0.0033889
0.000694701
-0.00194906
-0.00457659
-0.00726852
-0.01
-0.0127435
-0.0154771
-0.0182041
-0.0209387
-0.0236942
-0.0264768
-0.0292857
-0.0321144
-0.0349539
-0.037795
-0.0406297
-0.0434525
-0.0462604
-0.0490521
-0.0518281
-0.0545901
-0.05734
-0.0600799
-0.062812
-0.0655381
-0.0682597
-0.070978
-0.073694
-0.0764083
-0.0791214
-0.0818337
-0.0845455
-0.0872568
-0.0899677
-0.0926785
-0.0953891
-0.0980995
-0.10081
-0.10352
-0.10623
-0.10894
0.218313
0.213816
0.209493
0.205429
0.20167
0.198241
0.195154
0.192409
0.189991
0.187871
0.186016
0.184393
0.182965
0.181698
0.180565
0.179545
0.178625
0.177789
0.177021
0.176312
0.17566
0.175063
0.174519
0.174028
0.173595
0.173233
0.172959
0.172792
0.172728
0.172751
0.17284
0.172985
0.173091
0.172973
0.172479
0.171612
0.170501
0.168954
0.166341
0.163027
0.159519
0.156748
0.154631
0.152323
0.148087
0.141543
0.135554
0.130408
0.125982
0.121969
0.118113
0.114368
0.110612
0.106825
0.102916
0.0987711
0.0943159
0.0895853
0.0846909
0.0796448
0.0743876
0.0689966
0.0636626
0.0585791
0.0537379
0.0489977
0.0443212
0.039722
0.0352229
0.0308682
0.0266167
0.0224694
0.0184824
0.0147393
0.011234
0.00801802
0.00516684
0.00256327
0.000162478
-0.00214518
-0.00438186
-0.006616
-0.00900045
-0.0115768
-0.0141946
-0.016785
-0.0193529
-0.0219267
-0.0245313
-0.0271801
-0.0298747
-0.0326084
-0.0353703
-0.0381482
-0.0409316
-0.0437124
-0.0464854
-0.049248
-0.0519993
-0.05474
-0.0574715
-0.0601954
-0.0629134
-0.0656271
-0.0683377
-0.0710464
-0.0737538
-0.0764606
-0.079167
-0.0818733
-0.0845797
-0.0872862
-0.0899927
-0.0926995
-0.0954063
-0.0981133
-0.10082
-0.103527
-0.106235
-0.108942
0.218191
0.213474
0.208983
0.204814
0.201012
0.197592
0.194548
0.191861
0.189501
0.187439
0.185642
0.184078
0.182722
0.181554
0.180559
0.179717
0.17901
0.178426
0.177954
0.177586
0.177315
0.177141
0.177058
0.177066
0.177162
0.177361
0.177673
0.178115
0.178688
0.179378
0.180143
0.180967
0.181753
0.182221
0.182186
0.181737
0.181069
0.179792
0.177066
0.173611
0.17023
0.167677
0.165879
0.163868
0.159396
0.152292
0.145867
0.140434
0.135839
0.131558
0.127314
0.123298
0.119303
0.115403
0.111311
0.106748
0.101516
0.0958175
0.0900325
0.0840694
0.0776086
0.0709047
0.0644853
0.058852
0.0538719
0.0490101
0.0442208
0.0394612
0.0347023
0.0300976
0.025402
0.0206271
0.0159228
0.0115307
0.00764866
0.00430005
0.00157972
-0.000744441
-0.00266252
-0.00448677
-0.00627257
-0.00813655
-0.0102974
-0.012981
-0.0156355
-0.0181524
-0.0205846
-0.0230006
-0.0254488
-0.0279545
-0.0305245
-0.0331528
-0.0358272
-0.0385332
-0.0412576
-0.0439901
-0.0467232
-0.0494526
-0.0521761
-0.0548933
-0.0576047
-0.0603113
-0.0630144
-0.0657152
-0.0684146
-0.0711134
-0.0738122
-0.0765114
-0.0792111
-0.0819115
-0.0846126
-0.0873144
-0.0900167
-0.0927195
-0.0954228
-0.0981265
-0.10083
-0.103535
-0.106239
-0.108943
0.217854
0.2125
0.207476
0.202904
0.198824
0.195235
0.192106
0.189388
0.187034
0.184996
0.18324
0.18174
0.180482
0.179462
0.178693
0.17814
0.177783
0.177612
0.177614
0.177773
0.178078
0.178517
0.179076
0.179746
0.180519
0.181396
0.182384
0.183496
0.18475
0.186133
0.18756
0.188993
0.190366
0.191308
0.191612
0.191433
0.191038
0.189825
0.186935
0.183456
0.180399
0.178129
0.176562
0.174599
0.170056
0.162944
0.156632
0.15133
0.14706
0.142537
0.137706
0.133606
0.129586
0.126166
0.122471
0.117706
0.111409
0.104444
0.0980684
0.091514
0.0834051
0.0747908
0.0669447
0.0610276
0.0564991
0.0517516
0.0472716
0.0426733
0.0376646
0.0330367
0.0277002
0.0217729
0.0155564
0.00972263
0.00516926
0.00143262
-0.00116768
-0.00306355
-0.00414825
-0.00546535
-0.00676922
-0.00830848
-0.0104848
-0.0140544
-0.0170243
-0.0195434
-0.0218604
-0.0241245
-0.0264164
-0.0287762
-0.0312165
-0.0337334
-0.0363137
-0.0389412
-0.0416007
-0.0442796
-0.0469686