/*--------------------------------*- C++ -*----------------------------------*\
  =========                 |
  \\      /  F ield         | OpenFOAM: The Open Source CFD Toolbox
   \\    /   O peration     | Website:  https://openfoam.org
    \\  /    A nd           | Version:  6
     \\/     M anipulation  |
\*---------------------------------------------------------------------------*/
FoamFile
{
    version     2.0;
    format      ascii;
    class       volScalarField;
    location    "4600";
    object      T;
}
// * * * * * * * * * * * * * * * * * * * * * * * * * * * * * * * * * * * * * //

dimensions      [0 0 0 1 0 0 0];

internalField   nonuniform List<scalar> 
4800
(
552.443
552.23
552.016
551.801
551.587
551.377
551.171
550.973
550.784
550.606
550.441
550.29
550.155
550.034
549.928
549.834
549.751
549.678
549.613
549.554
549.5
549.449
549.401
549.353
549.306
549.259
549.21
549.159
549.106
549.05
548.992
548.93
548.865
548.794
548.719
548.639
548.554
548.464
548.369
548.27
548.167
548.06
547.951
547.84
547.728
547.616
547.505
547.395
547.287
547.181
547.079
546.98
546.885
546.793
546.706
546.621
546.54
546.462
546.386
546.311
546.239
546.167
546.096
546.026
545.956
545.885
545.815
545.744
545.673
545.601
545.527
545.453
545.376
545.297
545.214
545.127
545.035
544.939
544.838
544.732
544.623
544.513
544.405
544.297
544.19
544.083
543.977
543.87
543.764
543.658
543.553
543.448
543.343
543.238
543.133
543.029
542.926
542.822
542.719
542.616
542.513
542.411
542.309
542.207
542.106
542.004
541.903
541.802
541.702
541.601
541.5
541.4
541.3
541.2
541.1
541
540.9
540.8
540.7
540.6
552.443
552.228
552.012
551.796
551.581
551.37
551.164
550.965
550.776
550.598
550.435
550.286
550.152
550.033
549.928
549.835
549.754
549.681
549.617
549.558
549.505
549.455
549.406
549.359
549.312
549.264
549.214
549.163
549.11
549.054
548.995
548.933
548.866
548.795
548.72
548.639
548.554
548.464
548.369
548.27
548.168
548.061
547.952
547.842
547.73
547.618
547.506
547.396
547.289
547.184
547.082
546.984
546.89
546.799
546.713
546.629
546.549
546.471
546.395
546.321
546.248
546.176
546.105
546.034
545.964
545.893
545.822
545.75
545.677
545.604
545.529
545.453
545.376
545.295
545.212
545.124
545.033
544.936
544.835
544.729
544.621
544.513
544.405
544.297
544.19
544.083
543.977
543.87
543.764
543.659
543.553
543.448
543.343
543.238
543.133
543.029
542.926
542.822
542.719
542.616
542.513
542.411
542.309
542.207
542.106
542.004
541.903
541.802
541.701
541.601
541.5
541.4
541.3
541.2
541.1
541
540.9
540.8
540.7
540.6
552.441
552.223
552.005
551.787
551.571
551.359
551.152
550.953
550.765
550.589
550.427
550.28
550.149
550.033
549.93
549.839
549.76
549.689
549.626
549.569
549.516
549.467
549.419
549.371
549.324
549.275
549.225
549.174
549.119
549.062
549.002
548.938
548.87
548.798
548.722
548.641
548.556
548.466
548.372
548.273
548.171
548.065
547.956
547.846
547.734
547.623
547.512
547.402
547.296
547.192
547.092
546.995
546.903
546.814
546.729
546.647
546.567
546.49
546.414
546.34
546.266
546.194
546.123
546.051
545.98
545.908
545.835
545.762
545.687
545.612
545.535
545.457
545.377
545.294
545.209
545.121
545.028
544.932
544.831
544.726
544.62
544.512
544.404
544.297
544.19
544.084
543.977
543.871
543.765
543.659
543.553
543.448
543.343
543.238
543.133
543.029
542.925
542.822
542.719
542.616
542.513
542.411
542.309
542.207
542.105
542.004
541.903
541.802
541.701
541.601
541.5
541.4
541.3
541.199
541.099
540.999
540.9
540.8
540.7
540.6
552.439
552.218
551.997
551.777
551.56
551.347
551.139
550.94
550.753
550.58
550.421
550.278
550.149
550.036
549.936
549.848
549.771
549.702
549.641
549.585
549.534
549.485
549.438
549.391
549.343
549.294
549.243
549.19
549.134
549.076
549.014
548.948
548.879
548.805
548.728
548.647
548.561
548.471
548.377
548.278
548.176
548.071
547.963
547.853
547.742
547.631
547.522
547.414
547.309
547.208
547.11
547.016
546.926
546.839
546.755
546.674
546.595
546.518
546.442
546.368
546.294
546.222
546.149
546.076
546.003
545.93
545.855
545.78
545.703
545.625
545.545
545.464
545.381
545.296
545.208
545.118
545.025
544.928
544.827
544.724
544.618
544.511
544.405
544.298
544.191
544.084
543.978
543.872
543.765
543.659
543.554
543.448
543.343
543.238
543.133
543.029
542.925
542.822
542.718
542.615
542.513
542.41
542.308
542.207
542.105
542.004
541.903
541.802
541.701
541.6
541.5
541.4
541.299
541.199
541.099
540.999
540.899
540.8
540.7
540.6
552.437
552.213
551.989
551.767
551.549
551.335
551.128
550.931
550.745
550.574
550.419
550.279
550.154
550.044
549.947
549.862
549.788
549.722
549.663
549.609
549.559
549.511
549.464
549.417
549.369
549.32
549.268
549.213
549.156
549.095
549.031
548.963
548.892
548.817
548.739
548.657
548.57
548.48
548.386
548.287
548.185
548.08
547.973
547.864
547.755
547.645
547.538
547.433
547.33
547.232
547.136
547.045
546.957
546.873
546.791
546.711
546.632
546.555
546.479
546.405
546.331
546.257
546.183
546.109
546.034
545.959
545.882
545.804
545.724
545.643
545.561
545.476
545.389
545.301
545.21
545.118
545.023
544.925
544.825
544.722
544.618
544.512
544.406
544.299
544.192
544.086
543.979
543.872
543.766
543.66
543.554
543.448
543.343
543.238
543.133
543.029
542.925
542.821
542.718
542.615
542.512
542.41
542.308
542.206
542.105
542.003
541.902
541.801
541.701
541.6
541.5
541.399
541.299
541.199
541.099
540.999
540.899
540.799
540.7
540.6
552.436
552.208
551.982
551.758
551.539
551.325
551.119
550.924
550.742
550.574
550.422
550.286
550.165
550.058
549.965
549.883
549.812
549.748
549.691
549.639
549.591
549.544
549.497
549.451
549.402
549.352
549.299
549.243
549.183
549.121
549.055
548.985
548.912
548.836
548.756
548.672
548.585
548.494
548.399
548.301
548.199
548.095
547.988
547.881
547.773
547.666
547.561
547.459
547.36
547.264
547.172
547.083
546.998
546.915
546.834
546.755
546.677
546.6
546.524
546.448
546.374
546.299
546.224
546.148
546.072
545.994
545.915
545.834
545.752
545.668
545.581
545.493
545.402
545.31
545.216
545.121
545.024
544.926
544.825
544.723
544.619
544.514
544.408
544.301
544.195
544.088
543.981
543.874
543.767
543.661
543.555
543.449
543.343
543.238
543.133
543.029
542.924
542.821
542.717
542.614
542.512
542.409
542.307
542.206
542.104
542.003
541.902
541.801
541.7
541.6
541.499
541.399
541.299
541.199
541.099
540.999
540.899
540.799
540.7
540.6
552.435
552.206
551.979
551.755
551.534
551.32
551.115
550.922
550.743
550.579
550.431
550.299
550.182
550.079
549.99
549.911
549.842
549.781
549.727
549.676
549.629
549.583
549.537
549.49
549.442
549.39
549.336
549.278
549.217
549.152
549.084
549.013
548.938
548.86
548.778
548.693
548.605
548.513
548.418
548.32
548.219
548.115
548.01
547.904
547.798
547.694
547.592
547.493
547.397
547.304
547.215
547.129
547.045
546.964
546.884
546.805
546.728
546.651
546.574
546.499
546.423
546.347
546.271
546.194
546.116
546.036
545.954
545.871
545.785
545.698
545.608
545.516
545.421
545.325
545.228
545.129
545.03
544.93
544.829
544.726
544.622
544.518
544.412
544.305
544.198
544.09
543.983
543.876
543.769
543.662
543.555
543.449
543.343
543.238
543.133
543.028
542.924
542.82
542.717
542.614
542.511
542.409
542.307
542.205
542.103
542.002
541.901
541.8
541.7
541.599
541.499
541.399
541.299
541.199
541.099
540.999
540.899
540.799
540.7
540.6
552.435
552.205
551.978
551.753
551.532
551.319
551.115
550.924
550.749
550.589
550.445
550.318
550.205
550.107
550.021
549.946
549.88
549.822
549.769
549.72
549.674
549.629
549.583
549.536
549.487
549.435
549.379
549.319
549.256
549.19
549.12
549.047
548.97
548.89
548.807
548.721
548.631
548.539
548.444
548.345
548.244
548.141
548.038
547.933
547.83
547.729
547.63
547.534
547.441
547.352
547.265
547.181
547.1
547.019
546.94
546.862
546.784
546.707
546.63
546.554
546.478
546.401
546.324
546.245
546.165
546.083
545.999
545.913
545.825
545.734
545.64
545.544
545.446
545.346
545.245
545.143
545.041
544.938
544.834
544.731
544.629
544.524
544.418
544.311
544.202
544.094
543.986
543.878
543.77
543.663
543.556
543.449
543.343
543.238
543.132
543.028
542.923
542.819
542.716
542.613
542.51
542.408
542.306
542.204
542.103
542.001
541.9
541.8
541.699
541.599
541.498
541.398
541.298
541.198
541.098
540.999
540.899
540.799
540.699
540.6
552.434
552.204
551.976
551.751
551.531
551.32
551.12
550.933
550.762
550.606
550.467
550.344
550.236
550.142
550.06
549.988
549.925
549.869
549.818
549.77
549.725
549.68
549.635
549.588
549.538
549.484
549.427
549.366
549.301
549.233
549.161
549.086
549.008
548.926
548.841
548.754
548.663
548.57
548.474
548.376
548.275
548.174
548.072
547.97
547.869
547.771
547.675
547.582
547.492
547.405
547.321
547.239
547.159
547.079
547
546.922
546.844
546.767
546.69
546.613
546.537
546.459
546.381
546.301
546.22
546.136
546.05
545.961
545.87
545.776
545.679
545.58
545.478
545.374
545.269
545.163
545.057
544.952
544.846
544.743
544.639
544.534
544.427
544.318
544.208
544.099
543.99
543.881
543.772
543.664
543.557
543.45
543.343
543.237
543.132
543.027
542.922
542.818
542.715
542.612
542.509
542.407
542.305
542.203
542.102
542
541.899
541.799
541.698
541.598
541.498
541.398
541.298
541.198
541.098
540.998
540.899
540.799
540.699
540.6
552.434
552.204
551.977
551.752
551.534
551.324
551.127
550.945
550.779
550.629
550.495
550.377
550.274
550.184
550.105
550.037
549.976
549.922
549.872
549.826
549.781
549.737
549.692
549.644
549.593
549.539
549.48
549.417
549.35
549.28
549.206
549.13
549.05
548.967
548.88
548.791
548.7
548.606
548.51
548.412
548.313
548.213
548.112
548.013
547.915
547.819
547.726
547.636
547.549
547.464
547.382
547.301
547.221
547.142
547.063
546.985
546.908
546.83
546.753
546.676
546.599
546.521
546.442
546.361
546.279
546.193
546.106
546.015
545.921
545.824
545.724
545.622
545.516
545.409
545.3
545.19
545.081
544.973
544.866
544.761
544.655
544.548
544.438
544.327
544.216
544.105
543.994
543.884
543.775
543.666
543.558
543.45
543.343
543.237
543.131
543.026
542.921
542.817
542.713
542.61
542.508
542.405
542.303
542.202
542.1
541.999
541.899
541.798
541.697
541.597
541.497
541.397
541.297
541.197
541.098
540.998
540.898
540.799
540.699
540.6
552.435
552.206
551.98
551.758
551.542
551.337
551.145
550.967
550.805
550.659
550.53
550.417
550.318
550.232
550.157
550.092
550.033
549.98
549.932
549.887
549.842
549.798
549.752
549.705
549.653
549.597
549.537
549.472
549.404
549.332
549.256
549.178
549.096
549.012
548.924
548.834
548.742
548.647
548.551
548.454
548.356
548.258
548.16
548.063
547.967
547.874
547.783
547.696
547.61
547.527
547.446
547.365
547.285
547.207
547.128
547.05
546.973
546.896
546.819
546.742
546.664
546.586
546.506
546.425
546.341
546.255
546.166
546.073
545.977
545.878
545.775
545.669
545.56
545.449
545.336
545.223
545.111
545
544.891
544.784
544.675
544.563
544.45
544.337
544.223
544.111
543.999
543.888
543.777
543.667
543.559
543.45
543.343
543.236
543.13
543.025
542.92
542.816
542.712
542.609
542.506
542.404
542.302
542.2
542.099
541.998
541.897
541.797
541.696
541.596
541.496
541.396
541.297
541.197
541.097
540.998
540.898
540.799
540.699
540.6
552.437
552.21
551.986
551.766
551.554
551.353
551.165
550.992
550.835
550.695
550.571
550.463
550.369
550.287
550.215
550.152
550.095
550.044
549.997
549.952
549.908
549.863
549.817
549.769
549.716
549.66
549.598
549.532
549.462
549.388
549.311
549.23
549.147
549.061
548.972
548.881
548.788
548.694
548.598
548.502
548.406
548.309
548.213
548.118
548.025
547.934
547.845
547.759
547.675
547.592
547.511
547.431
547.352
547.273
547.195
547.117
547.04
546.963
546.886
546.808
546.731
546.652
546.572
546.49
546.406
546.319
546.228
546.134
546.036
545.935
545.83
545.721
545.609
545.495
545.378
545.261
545.145
545.031
544.92
544.809
544.695
544.577
544.461
544.346
544.231
544.117
544.004
543.891
543.78
543.669
543.559
543.45
543.342
543.235
543.129
543.023
542.918
542.814
542.71
542.607
542.504
542.402
542.3
542.199
542.098
541.997
541.896
541.796
541.695
541.595
541.495
541.396
541.296
541.196
541.097
540.997
540.898
540.798
540.699
540.6
552.439
552.216
551.995
551.779
551.57
551.373
551.19
551.023
550.872
550.738
550.62
550.516
550.426
550.348
550.279
550.218
550.163
550.113
550.066
550.021
549.977
549.933
549.886
549.838
549.784
549.726
549.663
549.596
549.524
549.449
549.37
549.288
549.203
549.115
549.025
548.933
548.839
548.746
548.651
548.557
548.462
548.367
548.273
548.18
548.089
547.999
547.911
547.826
547.742
547.66
547.579
547.498
547.419
547.34
547.262
547.184
547.107
547.03
546.953
546.875
546.797
546.718
546.638
546.556
546.471
546.383
546.291
546.196
546.097
545.993
545.886
545.775
545.66
545.542
545.422
545.301
545.181
545.063
544.946
544.83
544.713
544.585
544.469
544.354
544.238
544.123
544.008
543.894
543.782
543.67
543.559
543.45
543.341
543.234
543.127
543.021
542.916
542.812
542.708
542.605
542.502
542.4
542.298
542.197
542.096
541.995
541.895
541.794
541.694
541.594
541.495
541.395
541.295
541.196
541.096
540.997
540.897
540.798
540.699
540.6
552.441
552.223
552.007
551.795
551.592
551.4
551.222
551.06
550.915
550.786
550.673
550.575
550.489
550.414
550.349
550.29
550.236
550.187
550.141
550.096
550.052
550.007
549.96
549.91
549.856
549.797
549.734
549.666
549.593
549.516
549.436
549.352
549.265
549.175
549.084
548.991
548.898
548.805
548.712
548.62
548.526
548.433
548.34
548.249
548.158
548.068
547.981
547.895
547.811
547.728
547.647
547.566
547.487
547.407
547.329
547.251
547.173
547.096
547.018
546.94
546.862
546.783
546.702
546.619
546.533
546.444
546.351
546.255
546.154
546.049
545.94
545.826
545.709
545.588
545.464
545.34
545.216
545.092
544.97
544.846
544.717
544.573
544.473
544.361
544.244
544.128
544.012
543.897
543.783
543.67
543.559
543.449
543.34
543.232
543.125
543.019
542.914
542.809
542.706
542.602
542.5
542.398
542.296
542.195
542.094
541.994
541.893
541.793
541.693
541.593
541.494
541.394
541.294
541.195
541.096
540.996
540.897
540.798
540.699
540.6
552.443
552.23
552.019
551.813
551.616
551.43
551.259
551.103
550.964
550.841
550.734
550.64
550.559
550.488
550.425
550.368
550.316
550.267
550.221
550.177
550.133
550.087
550.039
549.989
549.934
549.875
549.811
549.743
549.669
549.592
549.51
549.425
549.337
549.246
549.154
549.061
548.969
548.877
548.785
548.694
548.601
548.509
548.417
548.325
548.234
548.144
548.055
547.968
547.883
547.799
547.716
547.635
547.554
547.474
547.395
547.316
547.238
547.159
547.081
547.002
546.923
546.843
546.761
546.676
546.589
546.499
546.405
546.306
546.204
546.097
545.986
545.87
545.75
545.627
545.501
545.374
545.247
545.12
544.992
544.864
544.735
544.605
544.486
544.368
544.249
544.131
544.014
543.898
543.783
543.67
543.558
543.447
543.338
543.229
543.122
543.016
542.911
542.806
542.703
542.6
542.497
542.396
542.294
542.193
542.092
541.992
541.892
541.792
541.692
541.592
541.492
541.393
541.294
541.194
541.095
540.996
540.897
540.798
540.699
540.6
552.446
552.238
552.033
551.833
551.642
551.463
551.3
551.151
551.019
550.903
550.801
550.713
550.635
550.567
550.507
550.452
550.401
550.353
550.308
550.264
550.219
550.173
550.125
550.074
550.019
549.96
549.896
549.828
549.756
549.679
549.597
549.512
549.424
549.334
549.242
549.15
549.058
548.967
548.876
548.784
548.692
548.599
548.506
548.414
548.321
548.228
548.136
548.046
547.959
547.873
547.788
547.705
547.623
547.542
547.461
547.38
547.3
547.22
547.14
547.059
546.978
546.896
546.811
546.724
546.635
546.542
546.445
546.344
546.239
546.13
546.016
545.898
545.777
545.652
545.525
545.397
545.268
545.139
545.01
544.88
544.748
544.618
544.493
544.371
544.25
544.131
544.013
543.896
543.781
543.667
543.555
543.444
543.334
543.226
543.119
543.012
542.907
542.803
542.699
542.597
542.494
542.393
542.292
542.191
542.09
541.99
541.89
541.79
541.69
541.591
541.491
541.392
541.293
541.194
541.094
540.995
540.896
540.797
540.698
540.599
552.449
552.247
552.048
551.856
551.673
551.503
551.346
551.205
551.08
550.969
550.873
550.79
550.717
550.653
550.595
550.542
550.493
550.446
550.401
550.357
550.312
550.266
550.218
550.167
550.112
550.054
549.991
549.925
549.855
549.78
549.701
549.618
549.531
549.443
549.353
549.263
549.173
549.083
548.991
548.898
548.803
548.708
548.615
548.522
548.424
548.326
548.228
548.133
548.041
547.952
547.865
547.779
547.695
547.611
547.527
547.444
547.361
547.277
547.194
547.11
547.025
546.939
546.85
546.759
546.665
546.568
546.467
546.362
546.254
546.141
546.025
545.906
545.783
545.657
545.53
545.401
545.271
545.141
545.01
544.879
544.748
544.618
544.491
544.367
544.245
544.126
544.008
543.891
543.776
543.663
543.551
543.44
543.33
543.222
543.114
543.008
542.903
542.799
542.696
542.593
542.491
542.39
542.289
542.188
542.088
541.988
541.888
541.788
541.689
541.589
541.49
541.391
541.292
541.193
541.094
540.995
540.896
540.797
540.698
540.599
552.452
552.258
552.067
551.883
551.709
551.547
551.399
551.265
551.147
551.043
550.952
550.874
550.805
550.744
550.688
550.637
550.59
550.544
550.5
550.456
550.412
550.367
550.319
550.268
550.215
550.158
550.098
550.035
549.969
549.899
549.824
549.746
549.664
549.581
549.496
549.41
549.323
549.234
549.14
549.043
548.944
548.848
548.754
548.658
548.552
548.443
548.336
548.234
548.136
548.042
547.95
547.861
547.772
547.684
547.597
547.509
547.421
547.333
547.244
547.154
547.063
546.971
546.876
546.778
546.677
546.573
546.466
546.356
546.242
546.126
546.006
545.885
545.76
545.635
545.507
545.379
545.249
545.12
544.99
544.86
544.731
544.602
544.476
544.353
544.232
544.114
543.997
543.882
543.768
543.656
543.544
543.433
543.324
543.216
543.109
543.003
542.898
542.795
542.692
542.589
542.488
542.386
542.286
542.185
542.085
541.986
541.886
541.787
541.687
541.588
541.489
541.39
541.291
541.192
541.093
540.994
540.896
540.797
540.698
540.599
552.456
552.27
552.087
551.912
551.747
551.594
551.454
551.328
551.217
551.12
551.035
550.961
550.896
550.838
550.786
550.737
550.691
550.646
550.603
550.561
550.518
550.473
550.427
550.378
550.327
550.274
550.218
550.16
550.1
550.037
549.971
549.901
549.828
549.752
549.675
549.595
549.512
549.425
549.33
549.229
549.126
549.027
548.933
548.833
548.717
548.592
548.47
548.357
548.25
548.149
548.052
547.957
547.863
547.769
547.675
547.58
547.485
547.389
547.292
547.193
547.093
546.991
546.886
546.779
546.668
546.554
546.438
546.32
546.199
546.077
545.954
545.83
545.705
545.579
545.452
545.326
545.199
545.072
544.946
544.82
544.694
544.57
544.447
544.328
544.21
544.095
543.981
543.868
543.756
543.645
543.534
543.425
543.316
543.209
543.103
542.997
542.893
542.79
542.687
542.585
542.484
542.383
542.283
542.183
542.083
541.983
541.884
541.785
541.686
541.587
541.488
541.389
541.29
541.191
541.093
540.994
540.895
540.797
540.698
540.599
552.46
552.282
552.109
551.943
551.787
551.643
551.511
551.393
551.289
551.197
551.118
551.048
550.987
550.933
550.883
550.836
550.792
550.75
550.709
550.668
550.626
550.584
550.541
550.496
550.449
550.401
550.352
550.302
550.251
550.198
550.144
550.086
550.026
549.963
549.896
549.824
549.747
549.665
549.57
549.464
549.355
549.255
549.162
549.058
548.93
548.782
548.641
548.513
548.395
548.285
548.18
548.077
547.975
547.873
547.77
547.666
547.56
547.453
547.343
547.232
547.118
547.002
546.884
546.762
546.638
546.511
546.383
546.254
546.124
545.996
545.868
545.74
545.614
545.489
545.364
545.24
545.118
544.997
544.877
544.757
544.639
544.522
544.405
544.291
544.178
544.067
543.957
543.848
543.739
543.63
543.522
543.414
543.307
543.201
543.095
542.99
542.887
542.784
542.682
542.58
542.48
542.379
542.279
542.18
542.08
541.981
541.882
541.783
541.684
541.585
541.486
541.388
541.289
541.19
541.092
540.993
540.895
540.796
540.698
540.599
552.464
552.294
552.13
551.972
551.825
551.688
551.564
551.454
551.356
551.27
551.196
551.13
551.073
551.021
550.974
550.93
550.889
550.849
550.81
550.772
550.734
550.696
550.658
550.618
550.579
550.538
550.499
550.459
550.421
550.383
550.344
550.304
550.262
550.215
550.161
550.1
550.033
549.958
549.863
549.752
549.636
549.535
549.444
549.341
549.203
549.026
548.861
548.714
548.582
548.461
548.346
548.233
548.121
548.009
547.894
547.777
547.657
547.533
547.407
547.277
547.145
547.01
546.873
546.733
546.591
546.449
546.306
546.165
546.025
545.887
545.753
545.621
545.493
545.367
545.245
545.125
545.008
544.895
544.784
544.674
544.566
544.458
544.35
544.243
544.136
544.031
543.926
543.822
543.717
543.612
543.506
543.401
543.296
543.191
543.086
542.983
542.88
542.778
542.676
542.575
542.475
542.375
542.276
542.176
542.077
541.978
541.88
541.781
541.682
541.584
541.485
541.387
541.288
541.19
541.091
540.993
540.894
540.796
540.698
540.599
552.467
552.302
552.144
551.994
551.853
551.724
551.606
551.502
551.41
551.329
551.259
551.197
551.143
551.094
551.05
551.009
550.97
550.935
550.9
550.867
550.835
550.803
550.772
550.742
550.712
550.684
550.657
550.632
550.61
550.59
550.571
550.552
550.532
550.506
550.469
550.422
550.367
550.3
550.206
550.091
549.967
549.865
549.779
549.683
549.537
549.33
549.138
548.97
548.822
548.689
548.562
548.438
548.314
548.189
548.061
547.928
547.789
547.644
547.495
547.342
547.185
547.024
546.861
546.699
546.539
546.381
546.223
546.068
545.917
545.769
545.626
545.488
545.354
545.227
545.104
544.987
544.877
544.773
544.673
544.575
544.479
544.384
544.286
544.187
544.088
543.988
543.889
543.79
543.69
543.59
543.488
543.385
543.282
543.179
543.076
542.974
542.872
542.771
542.67
542.57
542.471
542.371
542.272
542.173
542.074
541.976
541.877
541.779
541.681
541.582
541.484
541.386
541.287
541.189
541.091
540.992
540.894
540.796
540.697
540.599
552.467
552.304
552.147
551.999
551.862
551.738
551.626
551.526
551.438
551.361
551.294
551.235
551.183
551.137
551.096
551.059
551.026
550.995
550.968
550.942
550.919
550.898
550.878
550.861
550.846
550.833
550.823
550.817
550.815
550.816
550.82
550.825
550.829
550.825
550.807
550.776
550.736
550.679
550.585
550.464
550.337
550.237
550.16
550.076
549.922
549.685
549.469
549.283
549.122
548.977
548.837
548.701
548.566
548.429
548.288
548.138
547.976
547.804
547.627
547.444
547.252
547.056
546.863
546.678
546.503
546.331
546.162
545.995
545.832
545.674
545.52
545.369
545.223
545.086
544.959
544.842
544.739
544.644
544.557
544.473
544.392
544.311
544.224
544.13
544.035
543.941
543.848
543.755
543.66
543.564
543.466
543.367
543.267
543.166
543.066
542.965
542.864
542.764
542.664
542.565
542.466
542.367
542.268
542.17
542.072
541.973
541.875
541.777
541.679
541.581
541.483
541.384
541.286
541.188
541.09
540.992
540.894
540.795
540.697
540.599
552.463
552.291
552.128
551.976
551.838
551.713
551.603
551.505
551.419
551.344
551.279
551.222
551.173
551.13
551.094
551.064
551.039
551.018
551.001
550.988
550.979
550.973
550.97
550.971
550.975
550.982
550.994
551.01
551.031
551.056
551.084
551.114
551.142
551.159
551.158
551.141
551.117
551.07
550.971
550.846
550.723
550.63
550.564
550.49
550.328
550.072
549.841
549.645
549.479
549.324
549.17
549.025
548.881
548.741
548.594
548.429
548.239
548.033
547.824
547.607
547.373
547.129
546.896
546.692
546.511
546.335
546.162
545.99
545.817
545.65
545.479
545.305
545.133
544.972
544.831
544.709
544.61
544.526
544.456
544.39
544.325
544.257
544.178
544.08
543.983
543.892
543.803
543.716
543.627
543.536
543.443
543.347
543.251
543.152
543.054
542.955
542.856
542.757
542.658
542.559
542.461
542.363
542.265
542.167
542.069
541.971
541.873
541.775
541.677
541.579
541.481
541.383
541.285
541.187
541.089
540.991
540.893
540.795
540.697
540.599
552.45
552.255
552.073
551.906
551.758
551.627
551.513
551.414
551.328
551.254
551.19
551.136
551.09
551.053
551.026
551.006
550.993
550.988
550.988
550.995
551.006
551.023
551.043
551.068
551.096
551.128
551.164
551.204
551.25
551.3
551.352
551.403
551.453
551.487
551.497
551.49
551.475
551.43
551.325
551.199
551.087
551.004
550.946
550.874
550.71
550.454
550.228
550.038
549.884
549.72
549.545
549.397
549.252
549.131
549
548.828
548.6
548.348
548.119
547.882
547.588
547.275
546.991
546.776
546.609
546.436
546.275
546.109
545.928
545.76
545.566
545.351
545.124
544.909
544.743
544.607
544.512
544.444
544.405
544.357
544.31
544.253
544.172
544.042
543.933
543.842
543.757
543.675
543.592
543.506
543.418
543.326
543.233
543.138
543.041
542.944
542.847
542.749
542.651
542.554
542.456
542.359
542.261
542.164
542.066
541.969
541.871
541.773
541.676
541.578
541.48
541.382
541.285
541.187
541.089
540.991
540.893
540.795
540.697
540.599
552.426
552.185
551.962
551.763
551.59
551.443
551.319
551.214
551.126
551.052
550.991
550.941
550.903
550.877
550.865
550.864
550.874
550.893
550.921
550.957
550.998
551.045
551.096
551.151
551.208
551.267
551.328
551.393
551.461
551.535
551.607
551.674
551.738
551.783
551.801
551.795
551.775
551.716
551.601
551.477
551.373
551.295
551.235
551.152
551.001
550.763
550.591
550.421
550.326
550.131
549.906
549.774
549.636
549.586
549.525
549.368
549.079
548.762
548.57
548.356
547.957
547.544
547.202
546.98
546.848
546.653
546.543
546.41
546.204
546.054
545.839
545.575
545.239
544.9
544.718
544.552
544.465
544.418
544.462
544.42
544.398
544.348
544.253
544.003
543.879
543.79
543.71
543.634
543.556
543.476
543.392
543.305
543.215
543.122
543.028
542.933
542.838
542.741
542.645
542.548
542.451
542.355
542.258
542.161
542.064
541.966
541.869
541.772
541.674
541.577
541.479
541.382
541.284
541.186
541.088
540.99
540.893
540.795
540.697
540.599
552.384
552.063
551.769
551.513
551.297
551.119
550.975
550.861
550.77
550.697
550.641
550.603
550.581
550.577
550.592
550.624
550.67
550.729
550.799
550.876
550.958
551.043
551.131
551.218
551.305
551.391
551.476
551.561
551.649
551.74
551.827
551.902
551.969
552.021
552.045
552.028
551.979
551.881
551.738
551.603
551.483
551.397
551.342
551.235
551.12
550.97
550.871
550.706
550.618
550.442
550.254
550.121
550.018
549.998
549.947
549.817
549.55
549.163
549.006
548.756
548.296
547.861
547.561
547.327
547.262
547.017
546.874
546.747
546.439
546.19
545.994
545.687
545.313
544.859
544.709
544.621
544.558
544.585
544.739
544.718
544.677
544.687
544.255
543.869
543.808
543.736
543.664
543.593
543.52
543.445
543.366
543.283
543.196
543.107
543.016
542.923
542.829
542.734
542.639
542.543
542.447
542.351
542.255
542.158
542.061
541.964
541.867
541.77
541.673
541.576
541.478
541.381
541.283
541.186
541.088
540.99
540.892
540.795
540.697
540.599
552.318
551.869
551.464
551.117
550.834
550.609
550.437
550.309
550.216
550.149
550.108
550.092
550.102
550.139
550.202
550.286
550.388
550.504
550.631
550.762
550.894
551.022
551.144
551.262
551.373
551.479
551.581
551.682
551.785
551.889
551.983
552.054
552.111
552.162
552.198
552.146
552.04
551.873
551.693
551.518
551.411
551.363
551.256
551.122
551.034
550.969
550.892
550.782
550.685
550.561
550.465
550.339
550.318
550.39
550.325
550.135
549.934
549.542
549.461
549.166
548.759
548.389
548.168
547.889
547.756
547.392
547.297
547.11
546.509
546.021
545.932
545.674
545.35
544.984
544.806
544.651
544.575
544.593
544.764
544.65
544.541
544.487
544.232
543.882
543.767
543.693
543.62
543.553
543.485
543.415
543.34
543.261
543.178
543.092
543.004
542.913
542.821
542.727
542.633
542.538
542.443
542.348
542.252
542.156
542.059
541.963
541.866
541.769
541.672
541.575
541.478
541.38
541.283
541.185
541.087
540.99
540.892
540.794
540.697
540.599
552.218
551.582
551.015
550.542
550.166
549.88
549.674
549.533
549.443
549.393
549.381
549.408
549.475
549.581
549.718
549.877
550.054
550.245
550.442
550.634
550.812
550.972
551.117
551.249
551.366
551.478
551.587
551.698
551.808
551.923
552.027
552.076
552.108
552.144
552.132
552.034
551.903
551.757
551.616
551.414
551.178
551.042
550.883
550.698
550.601
550.585
550.598
550.545
550.456
550.423
550.459
550.35
550.399
550.604
550.602
550.321
550.13
549.907
549.786
549.601
549.417
549.251
549.13
548.732
548.291
547.693
547.469
547.132
546.435
546.209
546.14
545.865
545.455
545.003
544.821
544.625
544.585
544.524
544.575
544.531
544.481
544.435
544.252
543.898
543.739
543.639
543.573
543.513
543.452
543.387
543.316
543.241
543.161
543.079
542.993
542.904
542.814
542.721
542.628
542.534
542.44
542.345
542.249
542.154
542.058
541.961
541.865
541.768
541.671
541.574
541.477
541.38
541.282
541.185
541.087
540.99
540.892
540.794
540.697
540.599
552.078
551.181
550.403
549.774
549.289
548.936
548.701
548.56
548.492
548.477
548.515
548.615
548.774
548.981
549.217
549.465
549.729
550.006
550.272
550.506
550.697
550.853
550.985
551.095
551.18
551.281
551.387
551.484
551.582
551.695
551.845
551.938
552.009
551.992
551.886
551.721
551.531
551.378
551.247
551.015
550.672
550.42
550.207
550.039
549.91
549.956
550.033
549.981
549.936
550.037
550.155
550.064
550.151
550.452
550.525
550.226
550.062
550.33
550.085
549.969
549.803
549.619
549.334
548.87
548.658
548.035
547.469
546.986
546.623
546.315
545.941
545.574
545.25
544.89
544.673
544.555
544.504
544.47
544.476
544.471
544.45
544.382
544.052
543.747
543.675
543.598
543.526
543.472
543.419
543.36
543.293
543.221
543.146
543.066
542.983
542.897
542.808
542.717
542.624
542.531
542.437
542.343
542.248
542.152
542.056
541.96
541.864
541.767
541.67
541.573
541.476
541.379
541.282
541.184
541.087
540.989
540.892
540.794
540.696
540.599
551.895
550.658
549.645
548.858
548.28
547.873
547.63
547.534
547.539
547.589
547.694
547.917
548.189
548.5
548.824
549.144
549.503
549.881
550.173
550.362
550.483
550.558
550.592
550.62
550.643
550.765
550.826
550.917
551.114
551.204
551.391
551.657
551.869
551.837
551.556
551.267
551.037
550.762
550.635
550.463
550.045
549.597
549.298
549.294
549.334
549.502
549.555
549.513
549.556
549.665
549.807
549.738
549.788
550.031
550.181
549.91
549.609
549.714
549.603
549.479
549.332
549.047
548.728
548.395
548.203
547.768
547.272
546.775
546.394
546.042
545.665
545.329
545.028
544.745
544.562
544.47
544.432
544.421
544.41
544.419
544.398
544.278
543.947
543.743
543.624
543.548
543.495
543.434
543.391
543.338
543.272
543.202
543.132
543.057
542.976
542.891
542.803
542.713
542.622
542.529
542.435
542.341
542.246
542.151
542.055
541.959
541.863
541.767
541.67
541.573
541.476
541.379
541.282
541.184
541.087
540.989
540.892
540.794
540.696
540.599
551.721
550.055
548.832
547.927
547.335
546.939