/*--------------------------------*- C++ -*----------------------------------*\
  =========                 |
  \\      /  F ield         | OpenFOAM: The Open Source CFD Toolbox
   \\    /   O peration     | Website:  https://openfoam.org
    \\  /    A nd           | Version:  6
     \\/     M anipulation  |
\*---------------------------------------------------------------------------*/
FoamFile
{
    version     2.0;
    format      ascii;
    class       volScalarField;
    location    "1100";
    object      dmdt;
}
// * * * * * * * * * * * * * * * * * * * * * * * * * * * * * * * * * * * * * //

dimensions      [0 0 0 0 0 0 0];

internalField   nonuniform List<scalar> 
4800
(
-0.219448
-0.21717
-0.21491
-0.212675
-0.210477
-0.208323
-0.206215
-0.204156
-0.202133
-0.200148
-0.198208
-0.196295
-0.194405
-0.192537
-0.190694
-0.188875
-0.187084
-0.185325
-0.183595
-0.181893
-0.180217
-0.178562
-0.176925
-0.175302
-0.173687
-0.172076
-0.170462
-0.168842
-0.167207
-0.165553
-0.163872
-0.162159
-0.160406
-0.158605
-0.156749
-0.154831
-0.152845
-0.150785
-0.148644
-0.14642
-0.144107
-0.141698
-0.139189
-0.136583
-0.133893
-0.131134
-0.128323
-0.125469
-0.12258
-0.119663
-0.11672
-0.113748
-0.110747
-0.107712
-0.10463
-0.101486
-0.0982667
-0.0949621
-0.0915653
-0.088076
-0.0844931
-0.0808157
-0.0770527
-0.0732127
-0.069303
-0.0653322
-0.0613043
-0.0572232
-0.0530963
-0.0489298
-0.0447317
-0.0405068
-0.036268
-0.0320402
-0.0278442
-0.0236974
-0.0196127
-0.0156018
-0.0116833
-0.00787418
-0.00418363
-0.000618868
0.00282093
0.00614439
0.00936298
0.0124897
0.0155381
0.0185215
0.0214525
0.0243423
0.0272006
0.0300355
0.0328536
0.0356603
0.0384596
0.0412548
0.0440482
0.0468417
0.0496363
0.0524332
0.0552327
0.0580352
0.060841
0.0636499
0.066462
0.0692771
0.0720949
0.0749153
0.0777381
0.0805629
0.0833896
0.0862178
0.0890475
0.0918784
0.0947102
0.0975428
0.100376
0.10321
0.106044
0.108878
-0.219442
-0.217147
-0.214867
-0.212613
-0.210395
-0.208223
-0.206097
-0.204018
-0.201983
-0.199977
-0.19801
-0.196076
-0.194169
-0.192288
-0.190435
-0.188609
-0.18681
-0.185041
-0.183305
-0.181597
-0.179916
-0.178257
-0.176614
-0.174987
-0.173371
-0.171758
-0.170145
-0.168524
-0.166891
-0.165238
-0.163559
-0.161849
-0.160099
-0.158301
-0.156449
-0.154535
-0.152552
-0.150496
-0.148361
-0.146142
-0.143837
-0.14144
-0.138945
-0.136351
-0.13367
-0.13092
-0.128118
-0.125274
-0.122395
-0.119484
-0.116543
-0.113571
-0.110564
-0.10752
-0.104425
-0.101268
-0.0980384
-0.0947267
-0.0913268
-0.0878348
-0.0842526
-0.0805781
-0.0768161
-0.072979
-0.0690761
-0.0651124
-0.0610926
-0.0570206
-0.0529013
-0.0487427
-0.0445532
-0.040339
-0.0361076
-0.0318825
-0.0276901
-0.0235501
-0.0194757
-0.0154772
-0.0115674
-0.00775929
-0.00406695
-0.000503825
0.00292998
0.00624532
0.0094546
0.0125714
0.0156099
0.0185837
0.0215058
0.0243876
0.0272389
0.0300677
0.0328807
0.0356831
0.0384789
0.0412712
0.0440622
0.0468537
0.0496468
0.0524422
0.0552406
0.0580422
0.0608472
0.0636554
0.0664669
0.0692814
0.0720988
0.0749188
0.0777411
0.0805656
0.083392
0.0862199
0.0890493
0.0918799
0.0947115
0.0975439
0.100377
0.10321
0.106044
0.108878
-0.219425
-0.217096
-0.214781
-0.212492
-0.210238
-0.208027
-0.205862
-0.203737
-0.201665
-0.199622
-0.19761
-0.195638
-0.193699
-0.191792
-0.189918
-0.188074
-0.18626
-0.184475
-0.182724
-0.181003
-0.179312
-0.177647
-0.175999
-0.174367
-0.172747
-0.171133
-0.169519
-0.167899
-0.166266
-0.164614
-0.162938
-0.161231
-0.159486
-0.157694
-0.155849
-0.153943
-0.15197
-0.149923
-0.147798
-0.14559
-0.143298
-0.140918
-0.138446
-0.13588
-0.133226
-0.130495
-0.127706
-0.124874
-0.122008
-0.119106
-0.116168
-0.113194
-0.110178
-0.107116
-0.104003
-0.100829
-0.0975845
-0.0942611
-0.0908532
-0.0873556
-0.0837743
-0.0801053
-0.0763505
-0.0725221
-0.0686283
-0.0646748
-0.0606675
-0.0566094
-0.0525061
-0.0483652
-0.0441909
-0.0399934
-0.0357828
-0.0315751
-0.0273952
-0.0232646
-0.0191988
-0.0152108
-0.0113097
-0.00750962
-0.0038269
-0.000274356
0.00314549
0.00644414
0.00963481
0.0127321
0.0157509
0.0187059
0.0216105
0.0244766
0.027314
0.030131
0.032934
0.0357281
0.038517
0.0413036
0.0440899
0.0468775
0.0496674
0.0524602
0.0552564
0.0580561
0.0608594
0.0636663
0.0664766
0.0692901
0.0721065
0.0749257
0.0777473
0.080571
0.0833967
0.0862241
0.0890529
0.091883
0.094714
0.0975459
0.100379
0.103212
0.106045
0.108879
-0.2194
-0.217022
-0.214656
-0.212315
-0.210006
-0.207734
-0.205505
-0.203313
-0.201172
-0.199069
-0.197005
-0.194982
-0.192997
-0.19105
-0.189144
-0.187274
-0.185439
-0.183634
-0.181864
-0.180129
-0.178426
-0.176752
-0.175098
-0.173462
-0.17184
-0.170226
-0.168612
-0.166991
-0.165357
-0.163705
-0.162029
-0.160324
-0.158583
-0.156797
-0.15496
-0.153065
-0.151104
-0.149071
-0.146961
-0.14477
-0.142497
-0.140141
-0.137698
-0.135166
-0.132545
-0.129845
-0.127081
-0.124265
-0.121409
-0.118516
-0.115581
-0.112603
-0.109575
-0.106495
-0.103362
-0.100171
-0.0969117
-0.0935755
-0.0901598
-0.0866553
-0.0830719
-0.07941
-0.0756703
-0.0718572
-0.0679784
-0.0640406
-0.0600511
-0.0560141
-0.0519315
-0.0478084
-0.0436536
-0.0394802
-0.0352972
-0.0311157
-0.0269562
-0.0228405
-0.0187856
-0.0148069
-0.0109178
-0.00713406
-0.00347032
6.29238e-05
0.00346069
0.00673411
0.00989717
0.0129656
0.0159557
0.0188831
0.0217623
0.0246054
0.0274229
0.0302228
0.0330113
0.0357933
0.0385723
0.0413507
0.0441303
0.0469123
0.0496976
0.0524866
0.0552795
0.0580766
0.0608776
0.0636824
0.066491
0.0693029
0.072118
0.0749359
0.0777564
0.0805791
0.0834039
0.0862303
0.0890583
0.0918876
0.0947179
0.097549
0.100381
0.103213
0.106046
0.108879
-0.219368
-0.216925
-0.214491
-0.212074
-0.209683
-0.207326
-0.205011
-0.202738
-0.200514
-0.198336
-0.196202
-0.194119
-0.192079
-0.190083
-0.188134
-0.18623
-0.184368
-0.182541
-0.180749
-0.178999
-0.177287
-0.175605
-0.173945
-0.172304
-0.170679
-0.169062
-0.167449
-0.165827
-0.164193
-0.162539
-0.160862
-0.159157
-0.157419
-0.155638
-0.153809
-0.151923
-0.149976
-0.147959
-0.145868
-0.143699
-0.14145
-0.139123
-0.136712
-0.134216
-0.131634
-0.128971
-0.126238
-0.123444
-0.1206
-0.117713
-0.114778
-0.111792
-0.108752
-0.105655
-0.102502
-0.099291
-0.0960169
-0.0926669
-0.0892474
-0.085744
-0.0821655
-0.0785132
-0.07479
-0.0709981
-0.067141
-0.0632248
-0.059257
-0.0552429
-0.0511864
-0.0470925
-0.0429682
-0.0388233
-0.034668
-0.0305151
-0.0263826
-0.0222898
-0.0182523
-0.0142882
-0.0104163
-0.0066534
-0.00301266
0.000495595
0.00386411
0.00710437
0.0102315
0.0132626
0.0162158
0.019108
0.0219546
0.0247688
0.0275609
0.0303391
0.0331095
0.0358763
0.0386427
0.0414108
0.0441819
0.046957
0.0497364
0.0525206
0.0553095
0.0581031
0.0609011
0.0637034
0.0665097
0.0693197
0.072133
0.0749493
0.0777683
0.0805897
0.0834132
0.0862385
0.0890654
0.0918936
0.0947229
0.0975531
0.100384
0.103215
0.106047
0.108879
-0.219323
-0.21679
-0.214266
-0.211755
-0.209264
-0.206804
-0.204388
-0.202018
-0.199699
-0.197436
-0.195224
-0.193071
-0.19097
-0.188921
-0.186922
-0.184974
-0.183079
-0.181226
-0.17941
-0.177642
-0.17592
-0.174229
-0.172563
-0.170918
-0.169289
-0.167669
-0.166054
-0.164432
-0.162796
-0.161144
-0.159466
-0.15776
-0.156024
-0.154248
-0.152424
-0.150549
-0.148614
-0.146613
-0.144543
-0.142397
-0.140175
-0.137877
-0.135499
-0.133038
-0.130494
-0.127869
-0.125169
-0.122399
-0.11957
-0.116687
-0.113749
-0.110754
-0.107704
-0.104596
-0.101429
-0.098202
-0.094916
-0.0915583
-0.0881374
-0.0846414
-0.0810767
-0.0774444
-0.0737417
-0.0699699
-0.066136
-0.0622485
-0.0583121
-0.0543299
-0.0503042
-0.0462393
-0.0421441
-0.0380319
-0.0339139
-0.0297991
-0.0256999
-0.0216344
-0.0176197
-0.013676
-0.00982445
-0.00608421
-0.00247018
0.00100755
0.00433998
0.00753974
0.0106235
0.0136102
0.0165196
0.0193703
0.022179
0.0249593
0.027722
0.0304751
0.0332244
0.0359737
0.0387256
0.0414818
0.0442431
0.04701
0.0497828
0.0525613
0.0553454
0.058135
0.0609295
0.0637288
0.0665324
0.06934
0.0721512
0.0749656
0.0777828
0.0806026
0.0834246
0.0862485
0.089074
0.091901
0.0947291
0.0975581
0.100388
0.103218
0.106049
0.10888
-0.219269
-0.216627
-0.213989
-0.21136
-0.208752
-0.206174
-0.20364
-0.20116
-0.19874
-0.196382
-0.194085
-0.191854
-0.189683
-0.187572
-0.185523
-0.183531
-0.181598
-0.179719
-0.177872
-0.176085
-0.174348
-0.172645
-0.170972
-0.16932
-0.167687
-0.166066
-0.164452
-0.16283
-0.161193
-0.159542
-0.157866
-0.156159
-0.154426
-0.152653
-0.150834
-0.148967
-0.147045
-0.14506
-0.143009
-0.140889
-0.138696
-0.136429
-0.134081
-0.131651
-0.129139
-0.126545
-0.123873
-0.121127
-0.118314
-0.115439
-0.112503
-0.109502
-0.106442
-0.103323
-0.100145
-0.0969092
-0.0936196
-0.0902666
-0.0868512
-0.0833689
-0.0798233
-0.0762149
-0.0725393
-0.0688001
-0.0650009
-0.0611446
-0.0572369
-0.0532849
-0.049293
-0.0452659
-0.0412111
-0.0371401
-0.0330634
-0.0289902
-0.0249294
-0.0208958
-0.0169079
-0.0129876
-0.00915826
-0.00544316
-0.00186067
0.00157948
0.00486843
0.00802083
0.011055
0.0139918
0.0168526
0.0196577
0.0224247
0.0251681
0.0278988
0.0306247
0.0333511
0.0360815
0.0388178
0.0415611
0.0443117
0.0470698
0.0498352
0.0526076
0.0553865
0.0581715
0.0609622
0.0637581
0.0665587
0.0693636
0.0721724
0.0749846
0.0777998
0.0806177
0.0834379
0.0862602
0.0890842
0.0919096
0.0947363
0.0975639
0.100392
0.103221
0.106051
0.108881
-0.219202
-0.216423
-0.213649
-0.210887
-0.208145
-0.205437
-0.202777
-0.200178
-0.197648
-0.195191
-0.192804
-0.19049
-0.188245
-0.186068
-0.183961
-0.18192
-0.179943
-0.178034
-0.176162
-0.174346
-0.172589
-0.170873
-0.16919
-0.167535
-0.165898
-0.164278
-0.162664
-0.161043
-0.159406
-0.157759
-0.156085
-0.154379
-0.152648
-0.150879
-0.149066
-0.147205
-0.145294
-0.143324
-0.141291
-0.139196
-0.137031
-0.134789
-0.132468
-0.130064
-0.127579
-0.125011
-0.122363
-0.119636
-0.116838
-0.113975
-0.111046
-0.108049
-0.104988
-0.101867
-0.098686
-0.0954521
-0.0921651
-0.0888182
-0.0854131
-0.0819493
-0.0784284
-0.0748522
-0.0712139
-0.0675102
-0.0637442
-0.0599242
-0.0560576
-0.0521475
-0.048196
-0.0442099
-0.0401992
-0.0361741
-0.0321438
-0.0281141
-0.0240913
-0.020091
-0.0161326
-0.0122378
-0.0084324
-0.00474572
-0.0012024
0.00218949
0.00542591
0.00852433
0.0115044
0.014388
0.0171978
0.0199555
0.0226796
0.0253851
0.0280831
0.0307812
0.0334844
0.0361955
0.0389158
0.0416459
0.0443856
0.0471346
0.0498923
0.0526582
0.0554316
0.0582119
0.0609985
0.0637907
0.0665881
0.0693901
0.0721962
0.0750059
0.0778189
0.0806347
0.083453
0.0862734
0.0890957
0.0919194
0.0947445
0.0975706
0.100398
0.103225
0.106053
0.108881
-0.219124
-0.216191
-0.213262
-0.210348
-0.207458
-0.204609
-0.201815
-0.19909
-0.196442
-0.193877
-0.191395
-0.188995
-0.186673
-0.184426
-0.182257
-0.180163
-0.178141
-0.176185
-0.174291
-0.172451
-0.170672
-0.168939
-0.167246
-0.165586
-0.163945
-0.162326
-0.160715
-0.159097
-0.157461
-0.155817
-0.154147
-0.152445
-0.150716
-0.148951
-0.147143
-0.145288
-0.143385
-0.141428
-0.139411
-0.137336
-0.135196
-0.132976
-0.130679
-0.128296
-0.125833
-0.123287
-0.120658
-0.11795
-0.115166
-0.112314
-0.109392
-0.106405
-0.103355
-0.100246
-0.0970766
-0.0938506
-0.0905748
-0.0872471
-0.0838692
-0.0804356
-0.0769423
-0.0733913
-0.0697828
-0.066118
-0.0623995
-0.0586283
-0.054806
-0.0509378
-0.0470315
-0.0430948
-0.0391352
-0.0351606
-0.0311769
-0.0271907
-0.0232109
-0.0192495
-0.0153219
-0.0114495
-0.00766212
-0.00400175
-0.000510604
0.0028138
0.00598559
0.00902376
0.0119471
0.014777
0.0175366
0.0202481
0.0229307
0.0255997
0.0282663
0.0309379
0.0336187
0.0363112
0.0390161
0.0417333
0.0444623
0.0472024
0.0499526
0.052712
0.0554798
0.0582553
0.0610376
0.063826
0.06662
0.0694189
0.0722222
0.0750294
0.0778399
0.0806535
0.0834696
0.086288
0.0891083
0.0919303
0.0947535
0.0975779
0.100403
0.103229
0.106055
0.108882
-0.219036
-0.215929
-0.212831
-0.209751
-0.206701
-0.203698
-0.200758
-0.197898
-0.195129
-0.192456
-0.189877
-0.187389
-0.184987
-0.18267
-0.180436
-0.178286
-0.176218
-0.174219
-0.17229
-0.170424
-0.168624
-0.166873
-0.165169
-0.163503
-0.161858
-0.160238
-0.158629
-0.157015
-0.155384
-0.153743
-0.152079
-0.150383
-0.148657
-0.146895
-0.145091
-0.14324
-0.141341
-0.139392
-0.137388
-0.135328
-0.133207
-0.131006
-0.128729
-0.126364
-0.123919
-0.121392
-0.11878
-0.116087
-0.113322
-0.110486
-0.107582
-0.104609
-0.101574
-0.0984795
-0.09533
-0.0921271
-0.0888767
-0.0855762
-0.0822261
-0.0788228
-0.0753637
-0.07185
-0.0682839
-0.0646654
-0.0609948
-0.0572733
-0.0535046
-0.0496925
-0.0458417
-0.0419593
-0.0380547
-0.0341353
-0.0302036
-0.0262641
-0.0223286
-0.0184092
-0.014516
-0.0106642
-0.00688189
-0.00322773
0.000196431
0.00342409
0.00651706
0.00949056
0.0123578
0.015137
0.0178504
0.02052
0.0231653
0.0258017
0.0284402
0.0310879
0.0337487
0.0364244
0.0391152
0.0418207
0.0445398
0.0472714
0.0500144
0.0527676
0.0555301
0.0583007
0.0610788
0.0638634
0.0666539
0.0694497
0.07225
0.0750545
0.0778625
0.0806737
0.0834876
0.0863038
0.0891221
0.091942
0.0947634
0.0975859
0.100409
0.103233
0.106058
0.108883
-0.218942
-0.215648
-0.212366
-0.209106
-0.205884
-0.202718
-0.199628
-0.196629
-0.193731
-0.190943
-0.188263
-0.185685
-0.183203
-0.180815
-0.17852
-0.176315
-0.174197
-0.172157
-0.170194
-0.168301
-0.166477
-0.164709
-0.162992
-0.161315
-0.159664
-0.158041
-0.156432
-0.154821
-0.153196
-0.151559
-0.1499
-0.148211
-0.14649
-0.144732
-0.142932
-0.141083
-0.139186
-0.13724
-0.135242
-0.133192
-0.131083
-0.128899
-0.126639
-0.124292
-0.121864
-0.119353
-0.116759
-0.114086
-0.111342
-0.108529
-0.105645
-0.102694
-0.0996827
-0.0966133
-0.0934896
-0.0903138
-0.0870913
-0.0838223
-0.0805071
-0.0771446
-0.0737317
-0.0702675
-0.0667529
-0.0631877
-0.0595721
-0.0559074
-0.0521959
-0.0484413
-0.044649
-0.0408255
-0.0369783
-0.0331151
-0.0292403
-0.025358
-0.0214765
-0.0176056
-0.0137521
-0.00991972
-0.00611447
-0.00239039
0.00089151
0.0039819
0.00698544
0.00989568
0.0127123
0.0154479
0.0181225
0.0207574
0.0233721
0.0259819
0.0285974
0.0312255
0.0338697
0.0365312
0.0392101
0.0419054
0.0446159
0.04734
0.0500765
0.052824
0.0555813
0.0583475
0.0611214
0.0639023
0.0666894
0.0694819
0.0722793
0.075081
0.0778864
0.0806951
0.0835066
0.0863206
0.0891367
0.0919545
0.0947738
0.0975944
0.100416
0.103238
0.106061
0.108884
-0.218843
-0.215352
-0.211876
-0.208425
-0.205019
-0.201681
-0.198432
-0.195291
-0.192266
-0.189358
-0.186574
-0.183905
-0.181342
-0.178884
-0.17653
-0.174273
-0.172109
-0.17003
-0.168032
-0.16611
-0.16426
-0.162474
-0.160743
-0.159055
-0.157397
-0.155767
-0.154154
-0.152542
-0.150922
-0.149288
-0.147634
-0.145952
-0.144235
-0.142482
-0.140685
-0.13884
-0.136945
-0.135001
-0.133007
-0.13096
-0.128856
-0.126683
-0.124433
-0.122099
-0.119682
-0.117185
-0.11461
-0.11196
-0.109243
-0.106459
-0.103604
-0.100682
-0.0977
-0.0946661
-0.0915836
-0.0884525
-0.0852736
-0.0820462
-0.0787725
-0.0754553
-0.0720937
-0.0686853
-0.0652272
-0.0617181
-0.0581588
-0.0545511
-0.0508982
-0.0472042
-0.0434745
-0.0397155
-0.0359322
-0.0321296
-0.0283154
-0.0244959
-0.0206777
-0.0168683
-0.0130711
-0.00927614
-0.00542831
-0.00126934
0.000793203
0.00442921
0.00735193
0.0102129
0.0129912
0.0156942
0.0183401
0.0209499
0.0235427
0.0261333
0.0287323
0.031346
0.0339778
0.0366287
0.0392983
0.0419855
0.0446888
0.0474066
0.0501375
0.05288
0.0556327
0.0583947
0.0611647
0.063942
0.0667258
0.0695152
0.0723096
0.0751085
0.0779113
0.0807174
0.0835265
0.0863381
0.089152
0.0919676
0.0947848
0.0976033
0.100423
0.103243
0.106064
0.108885
-0.218741
-0.215049
-0.211372
-0.20772
-0.20412
-0.2006
-0.197185
-0.193894
-0.190741
-0.187718
-0.184826
-0.182062
-0.17942
-0.176894
-0.174481
-0.172178
-0.169974
-0.167859
-0.165827
-0.163877
-0.162005
-0.160199
-0.158453
-0.156751
-0.155083
-0.153444
-0.151822
-0.150206
-0.148585
-0.14695
-0.145297
-0.14362
-0.141909
-0.140159
-0.138365
-0.136522
-0.134629
-0.132686
-0.130691
-0.128643
-0.126538
-0.124368
-0.122124
-0.119802
-0.117402
-0.114924
-0.112371
-0.109744
-0.107053
-0.1043
-0.101484
-0.0986041
-0.0956687
-0.0926834
-0.0896496
-0.0865679
-0.08344
-0.0802653
-0.0770444
-0.07378
-0.0704719
-0.0671189
-0.0637184
-0.0602678
-0.0567676
-0.0532209
-0.049631
-0.046002
-0.0423394
-0.0386475
-0.034931
-0.0311946
-0.0274464
-0.0236954
-0.0199488
-0.0162153
-0.0125019
-0.00881204
-0.00514812
-0.00154837
0.00162795
0.00464775
0.00758121
0.0104259
0.0131835
0.0158671
0.0184961
0.0210915
0.0236718
0.0262516
0.0288411
0.0314464
0.0340705
0.0367145
0.0393778
0.0420592
0.0447572
0.0474702
0.0501965
0.0529347
0.0556834
0.0584416
0.0612082
0.0639821
0.0667627
0.0695491
0.0723406
0.0751367
0.0779368
0.0807404
0.083547
0.0863563
0.0891678
0.0919812
0.0947963
0.0976126
0.10043
0.103248
0.106067
0.108886
-0.218639
-0.214741
-0.210862
-0.207011
-0.20322
-0.199517
-0.195931
-0.19248
-0.189183
-0.186042
-0.183048
-0.180194
-0.177472
-0.174878
-0.172409
-0.170058
-0.167817
-0.165669
-0.163606
-0.161631
-0.159734
-0.157907
-0.156143
-0.154425
-0.152744
-0.151092
-0.14946
-0.147834
-0.146206
-0.144566
-0.14291
-0.141232
-0.139523
-0.137775
-0.135983
-0.134141
-0.132248
-0.130303
-0.128306
-0.126254
-0.124148
-0.121981
-0.119745
-0.117438
-0.115054
-0.112594
-0.110061
-0.107458
-0.104797
-0.102082
-0.0993141
-0.0964906
-0.0936122
-0.0906828
-0.0877049
-0.0846793
-0.0816072
-0.0784906
-0.0753285
-0.0721208
-0.0688688
-0.0655728
-0.0622309
-0.0588418
-0.0554047
-0.0519228
-0.0484006
-0.0448414
-0.0412494
-0.0376283
-0.0339833
-0.0303206
-0.026646
-0.0229698
-0.019302
-0.0156533
-0.0120336
-0.00845514
-0.00493729
-0.00152064
0.00169618
0.00475831
0.00770186
0.0105416
0.0132906
0.0159665
0.0185898
0.0211811
0.0237584
0.0263356
0.0289226
0.0315253
0.0341466
0.0367876
0.0394476
0.0421257
0.0448202
0.0475297
0.0502526
0.0529874
0.0557328
0.0584878
0.0612511
0.064022
0.0667996
0.0695831
0.0723719
0.0751653
0.0779628
0.0807638
0.083568
0.0863748
0.089184
0.0919952
0.0948079
0.0976221
0.100437
0.103253
0.10607
0.108887
-0.218539
-0.214439
-0.210354
-0.206301
-0.202313
-0.198423
-0.194665
-0.191062
-0.187625
-0.18436
-0.181253
-0.178307
-0.17551
-0.172853
-0.170333
-0.16794
-0.165663
-0.163483
-0.161389
-0.159391
-0.157469
-0.155617
-0.153831
-0.152092
-0.150395
-0.148728
-0.147082
-0.145444
-0.143805
-0.142154
-0.140488
-0.138802
-0.137088
-0.135338
-0.133543
-0.1317
-0.129804
-0.127856
-0.125855
-0.123799
-0.12169
-0.119524
-0.117297
-0.115006
-0.112646
-0.110217
-0.107721
-0.105162
-0.102543
-0.0998711
-0.0971487
-0.0943763
-0.0915544
-0.0886844
-0.0857672
-0.0828033
-0.0797927
-0.0767366
-0.0736358
-0.0704891
-0.0672971
-0.0640611
-0.06078
-0.0574538
-0.0540827
-0.0506696
-0.0472191
-0.0437342
-0.0402167
-0.03667
-0.0330996
-0.0295138
-0.0259198
-0.0223264
-0.0187434
-0.0151821
-0.0116548
-0.00817537
-0.00476347
-0.00144639
0.00174028
0.00479756
0.00773802
0.0105744
0.013322
0.015999
0.0186259
0.0212221
0.0238048
0.0263869
0.0289778
0.0315833
0.0342062
0.0368477
0.0395073
0.0421843
0.0448773
0.0475847
0.0503052
0.0530375
0.0557803
0.0585326
0.0612932
0.0640614
0.0668362
0.069617
0.0724031
0.0751939
0.0779888
0.0807874
0.0835891
0.0863936
0.0892004
0.0920093
0.0948198
0.0976317
0.100445
0.103259
0.106073
0.108888
-0.21845
-0.214164
-0.209877
-0.20561
-0.201419
-0.197345
-0.193415
-0.189651
-0.186072
-0.182688
-0.179484
-0.176454
-0.173588
-0.170871
-0.168297
-0.16586
-0.163547
-0.161339
-0.159219
-0.157195
-0.155248
-0.153373
-0.151562
-0.149798
-0.148076
-0.146388
-0.144724
-0.143071
-0.141416
-0.139751
-0.138072
-0.136373
-0.134648
-0.132889
-0.131087
-0.129238
-0.127339
-0.125388
-0.123384
-0.121328
-0.11922
-0.117059
-0.114842
-0.112569
-0.110236
-0.10784
-0.105383
-0.10287
-0.1003
-0.0976792
-0.0950076
-0.092288
-0.0895221
-0.0867118
-0.0838577
-0.0809581
-0.0780124
-0.0750211
-0.071984
-0.0689004
-0.0657714
-0.0625978
-0.0593798
-0.0561184
-0.0528155
-0.0494747
-0.0460994
-0.0426912
-0.0392515
-0.035784
-0.0322947
-0.0287916
-0.0252817
-0.0217733
-0.0182761
-0.0148019
-0.0113628
-0.00797226
-0.00464521
-0.00140057
0.00174231
0.00477721
0.00770695
0.0105403
0.0132908
0.0159756
0.0186133
0.0212216
0.0238163
0.0264093
0.0290094
0.0316221
0.0342504
0.0368954
0.0395573
0.0422352
0.0449282
0.0476349
0.0503542
0.0530848
0.0558256
0.0585757
0.061334
0.0640997
0.0668721
0.0696504
0.072434
0.0752223
0.0780148
0.0808109
0.0836102
0.0864123
0.0892168
0.0920234
0.0948317
0.0976414
0.100452
0.103264
0.106076
0.108889
-0.21837
-0.21392
-0.209456
-0.205
-0.20061
-0.19634
-0.192234
-0.188315
-0.184601
-0.181097
-0.177792
-0.174671
-0.171726
-0.168941
-0.166313
-0.163833
-0.161484
-0.159244
-0.157102
-0.155053
-0.153082
-0.151181
-0.149343
-0.147555
-0.145808
-0.144095
-0.142407
-0.140733
-0.139058
-0.137376
-0.13568
-0.133966
-0.132226
-0.130455
-0.128642
-0.126785
-0.12488
-0.122925
-0.12092
-0.118865
-0.11676
-0.114607
-0.112404
-0.110151
-0.107845
-0.105484
-0.103069
-0.100602
-0.0980845
-0.0955177
-0.0929023
-0.0902418
-0.0875367
-0.0847877
-0.0819957
-0.0791598
-0.0762794
-0.0733548
-0.0703845
-0.0673668
-0.0643033
-0.0611954
-0.0580441
-0.0548516
-0.0516207
-0.0483548
-0.0450561
-0.041726
-0.0383663
-0.0349813
-0.0315762
-0.0281581
-0.0247336
-0.0213104
-0.0178983
-0.0145081
-0.0111512
-0.00783894
-0.00458436
-0.00140155
0.00169756
0.00470632
0.0076237
0.0104554
0.0132125
0.0159096
0.018563
0.0211886
0.0238
0.0264082
0.0290213
0.0316446
0.0342811
0.0369322
0.0395982
0.0422788
0.0449731
0.0476803
0.0503992
0.0531289
0.0558684
0.0586168
0.0613732
0.0641368
0.066907
0.069683
0.0724643
0.0752502
0.0780403
0.0808341
0.0836311
0.0864309
0.0892331
0.0920375
0.0948435
0.0976511
0.10046
0.103269
0.10608
0.10889
-0.218294
-0.213687
-0.209054
-0.204421
-0.199854
-0.195413
-0.191141
-0.187068
-0.183208
-0.179573
-0.176159
-0.172951
-0.169939
-0.167097
-0.164418
-0.161889
-0.159495
-0.157217
-0.155048
-0.152973
-0.150981
-0.149059
-0.147195
-0.14538
-0.143608
-0.141867
-0.140153
-0.138453
-0.136755
-0.135052
-0.133336
-0.131604
-0.129846
-0.128059
-0.126234
-0.124368
-0.122455
-0.120497
-0.118491
-0.116438
-0.114338
-0.112195
-0.110007
-0.107775
-0.105497
-0.103174
-0.1008
-0.0983816
-0.0959159
-0.0934065
-0.0908505
-0.0882502
-0.0856082
-0.0829236
-0.0801957
-0.0774237
-0.0746084
-0.0717506
-0.0688483
-0.0658992
-0.0629043
-0.0598658
-0.0567854
-0.0536659
-0.05051
-0.0473203
-0.0440989
-0.0408478
-0.0375694
-0.0342684
-0.0309483
-0.0276144
-0.0242736
-0.0209336
-0.0176037
-0.0142937
-0.0110134
-0.0077724
-0.00458108
-0.00145036
0.00161017
0.00459551
0.00750277
0.0103354
0.0131019
0.0158146
0.018487
0.0211326
0.0237636
0.0263897
0.0290183
0.0316543
0.0343009
0.0369597
0.0396313
0.0423158
0.0450126
0.047721
0.0504404
0.0531698
0.0559085
0.0586557
0.0614105
0.0641724
0.0669406
0.0697146
0.0724937
0.0752774
0.0780653
0.0808568
0.0836516
0.0864491
0.0892491
0.0920513
0.0948552
0.0976606
0.100467
0.103275
0.106083
0.108891
-0.218224
-0.213473
-0.208693
-0.203911
-0.199193
-0.194599
-0.190173
-0.185952
-0.181955
-0.178194
-0.17467
-0.171368
-0.168276
-0.165366
-0.162628
-0.160048
-0.157613
-0.155299
-0.153095
-0.150988
-0.148965
-0.147018
-0.145127
-0.143285
-0.141485
-0.139717
-0.137974
-0.136247
-0.134523
-0.132796
-0.13106
-0.129308
-0.127532
-0.125728
-0.123889
-0.12201
-0.12009
-0.118126
-0.11612
-0.114069
-0.111976
-0.109845
-0.107676
-0.105466
-0.103215
-0.100931
-0.098602
-0.096234
-0.0938212
-0.0913675
-0.0888721
-0.0863336
-0.0837547
-0.0811351
-0.0784733
-0.0757676
-0.0730174
-0.0702255
-0.0673912
-0.0645122
-0.0615884
-0.0586224
-0.0556166
-0.0525732
-0.0494939
-0.0463808
-0.0432367
-0.0400652
-0.0368692
-0.0336513
-0.0304149
-0.0271643
-0.0239055
-0.0206457
-0.0173933
-0.0141569
-0.0109458
-0.00776798
-0.00463036
-0.00154245
0.00148797
0.0044561
0.00735775
0.0101946
0.0129732
0.0157032
0.0183961
0.0210632
0.0237149
0.0263599
0.0290049
0.0316546
0.0343123
0.0369798
0.0396579
0.0423471
0.0450471
0.0477576
0.050478
0.0532076
0.0559459
0.0586922
0.0614459
0.0642063
0.0669728
0.0697449
0.072522
0.0753037
0.0780894
0.0808788
0.0836714
0.0864669
0.0892647
0.0920647
0.0948665
0.0976698
0.100474
0.10328
0.106086
0.108892
-0.218164
-0.213297
-0.208402
-0.2035
-0.198656
-0.193935
-0.189375
-0.185016
-0.180885
-0.176997
-0.173353
-0.169943
-0.166759
-0.163778
-0.160976
-0.158335
-0.155842
-0.153482
-0.151241
-0.1491
-0.147044
-0.145064
-0.143144
-0.141274
-0.139447
-0.137652
-0.135881
-0.134127
-0.132377
-0.130627
-0.128868
-0.127095
-0.125301
-0.12348
-0.121625
-0.119734
-0.117806
-0.115836
-0.113827
-0.111778
-0.109692
-0.107575
-0.105426
-0.103245
-0.101026
-0.0987783
-0.0964958
-0.0941782
-0.091822
-0.0894261
-0.0869903
-0.0845122
-0.0819956
-0.079441
-0.0768457
-0.0742077
-0.071525
-0.0687997
-0.0660327
-0.0632236
-0.0603724
-0.057481
-0.0545516
-0.0515852
-0.0485831
-0.0455478
-0.0424825
-0.039391
-0.0362765
-0.0331407
-0.0299862
-0.0268162
-0.023636
-0.0204521
-0.0172721
-0.0141034
-0.0109524
-0.00782572
-0.00473004
-0.00167226
0.00133952
0.00429877
0.00720062
0.0100454
0.0128381
0.0155865
0.0183
0.0209884
0.0236606
0.0263243
0.0289856
0.0316491
0.034318
0.0369944
0.0396795
0.0423737
0.0450774
0.0477903
0.0505121
0.0532423
0.0559806
0.0587264
0.0614791
0.0642382
0.0670033
0.0697737
0.072549
0.0753288
0.0781126
0.0809
0.0836906
0.0864839
0.0892798
0.0920777
0.0948775
0.0976788
0.100481
0.103285
0.106089
0.108893
-0.218122
-0.21317
-0.208198
-0.203223
-0.198284
-0.193446
-0.188762
-0.184277
-0.18002
-0.176003
-0.172234
-0.168707
-0.165415
-0.162341
-0.159461
-0.156754
-0.154202
-0.151787
-0.149493
-0.147307
-0.145212
-0.143197
-0.141246
-0.139349
-0.137497
-0.135678
-0.133882
-0.132102
-0.13033
-0.128559
-0.126779
-0.124986
-0.123173
-0.121336
-0.119464
-0.117559
-0.11562
-0.113642
-0.11163
-0.109583
-0.107505
-0.105402
-0.103276
-0.101123
-0.0989411
-0.0967337
-0.094501
-0.0922366
-0.0899382
-0.087603
-0.0852301
-0.0828154
-0.0803621
-0.0778714
-0.0753415
-0.0727698
-0.0701539
-0.067496
-0.0647969
-0.062057
-0.0592775
-0.0564593
-0.053604
-0.0507129
-0.0477872
-0.0448298
-0.0418442
-0.0388336
-0.0358009
-0.0327468
-0.0296729
-0.026582
-0.0234785
-0.020367
-0.0172524
-0.0141398
-0.0110349
-0.00794382
-0.00487308
-0.00183072
0.00117362
0.00413316
0.00704159
0.00989808
0.0127064
0.0154732
0.0182066
0.020915
0.0236063
0.0262874
0.028964
0.0316406
0.0343203
0.0370054
0.0396972
0.0423967
0.0451041
0.0478196
0.050543
0.0532741
0.0560126
0.0587581
0.0615101
0.0642682
0.0670319
0.0698009
0.0725746
0.0753526
0.0781346
0.0809201
0.0837088
0.0865002
0.0892941
0.0920902
0.094888
0.0976873
0.100488
0.103289
0.106092
0.108894
-0.218091
-0.213084
-0.208063
-0.203035
-0.198036
-0.193126
-0.188352
-0.183765
-0.179396
-0.175255
-0.171358
-0.167703
-0.164284
-0.161093
-0.158107
-0.155309
-0.152675
-0.150189
-0.147836
-0.145599
-0.143463
-0.141411
-0.139429
-0.137506
-0.135631
-0.133794
-0.131979
-0.130182
-0.128393
-0.126605
-0.12481
-0.122999
-0.12117
-0.119314
-0.117425
-0.115504
-0.11355
-0.111562
-0.109545
-0.107497
-0.105427
-0.103341
-0.101238
-0.0991193
-0.0969794
-0.0948196
-0.0926406
-0.0904347
-0.0881984
-0.0859281
-0.0836206
-0.0812709
-0.0788836
-0.0764575
-0.0739918
-0.0714842
-0.068933
-0.066341
-0.0637088
-0.0610371
-0.0583255
-0.0555749
-0.0527875
-0.0499667
-0.0471151
-0.0442351
-0.0413297
-0.0384016
-0.035452
-0.0324809
-0.0294887
-0.0264767
-0.0234467
-0.0204002
-0.0173392
-0.0142675
-0.0111901
-0.00811441
-0.00504988
-0.00200868
0.000998608
0.00396843
0.00688991
0.00976126
0.012586
0.0153705
0.018122
0.0208483
0.0235565
0.026253
0.0289433
0.0316316
0.0343211
0.0370141
0.0397123
0.0424167
0.0451278
0.0478459
0.050571
0.0533031
0.056042
0.0587873
0.0615388
0.064296
0.0670587
0.0698263
0.0725985
0.075375
0.0781553
0.0809391
0.083726
0.0865156
0.0893077
0.0921019
0.0948979
0.0976954
0.100494
0.103294
0.106094
0.108895
-0.21806
-0.212993
-0.207928
-0.202878
-0.197865
-0.192938
-0.188133
-0.183478
-0.179009
-0.174747
-0.170711
-0.166911
-0.163346
-0.160012
-0.156898
-0.153987
-0.151256
-0.148688
-0.146265
-0.14397
-0.141785
-0.139695
-0.137682
-0.135738
-0.133849
-0.132003
-0.13018
-0.128377
-0.126583
-0.124788
-0.122983
-0.121161
-0.119315
-0.11744
-0.11553
-0.113589
-0.111614
-0.109612
-0.107586
-0.105536
-0.103476
-0.101409
-0.0993365
-0.0972565
-0.0951648
-0.0930607
-0.0909428
-0.0888019
-0.0866331
-0.0844324
-0.0821962
-0.0799147
-0.0775933
-0.0752318
-0.0728294
-0.0703854
-0.067897
-0.0653676
-0.0627974
-0.0601865
-0.0575344
-0.0548433
-0.0521167
-0.0493595
-0.0465764
-0.0437711
-0.040946
-0.0381014
-0.0352366
-0.0323501
-0.0294407
-0.0265062
-0.0235446
-0.0205537
-0.0175321
-0.0144816
-0.0114093
-0.00832669
-0.00524917
-0.00219467
0.000822773
0.003816
0.00675635
0.00964385
0.0124841
0.0152839
0.0180509
0.0207921
0.0235144
0.0262238
0.0289255
0.0316238
0.0343217
0.0370218
0.0397257
0.0424345
0.0451489
0.0478695
0.0505963
0.0533295
0.0560688
0.0588141
0.0615652
0.0643217
0.0670833
0.0698498
0.0726207
0.0753958
0.0781745
0.0809567
0.083742
0.0865299
0.0893203
0.0921129
0.0949072
0.097703
0.1005
0.103298
0.106097
0.108896
-0.218051
-0.212975
-0.207905
-0.202842
-0.19781
-0.192857
-0.188028
-0.183334
-0.178797
-0.174439
-0.170272
-0.166318
-0.162588
-0.159087
-0.155813
-0.15276
-0.149911
-0.147248
-0.144748
-0.142389
-0.140156
-0.138031
-0.135998
-0.134045
-0.132158
-0.130321
-0.128507
-0.126717
-0.124935
-0.123145
-0.12134
-0.119509
-0.117645
-0.115745
-0.113808
-0.111836
-0.109834
-0.107812
-0.105776
-0.103727
-0.101679
-0.0996365
-0.0976005
-0.0955695
-0.0935371
-0.0914985
-0.0894494
-0.0873799
-0.0852832
-0.0831542
-0.0809896
-0.07878
-0.0765254
-0.0742265
-0.0718834
-0.069498
-0.0670687
-0.0645966
-0.0620819
-0.0595242
-0.056923
-0.0542814
-0.0516051
-0.0489019
-0.046179
-0.0434417
-0.0406921
-0.0379292
-0.0351495
-0.0323491
-0.0295226
-0.0266647
-0.0237673
-0.020821
-0.017821
-0.0147692
-0.011677
-0.00856198
-0.00544798
-0.00236415
0.000375792
0.00369647
0.00665723
0.00955716
0.0124082
0.0152189
0.017997
0.0207492
0.0234821
0.0262015
0.0289122
0.0316185
0.0343233
0.0370292
0.0397379
0.0424506
0.045168
0.0478908
0.0506192
0.0533532
0.056093
0.0588384
0.0615891
0.064345
0.0671059
0.0698713
0.0726411
0.0754148
0.0781922
0.0809729
0.0837567
0.0865431
0.089332
0.0921229
0.0949157
0.09771
0.100505
0.103302
0.106099
0.108897
-0.218033
-0.212933
-0.207852
-0.202782
-0.197751