/*--------------------------------*- C++ -*----------------------------------*\
  =========                 |
  \\      /  F ield         | OpenFOAM: The Open Source CFD Toolbox
   \\    /   O peration     | Website:  https://openfoam.org
    \\  /    A nd           | Version:  6
     \\/     M anipulation  |
\*---------------------------------------------------------------------------*/
FoamFile
{
    version     2.0;
    format      ascii;
    class       surfaceScalarField;
    location    "1100";
    object      phi;
}
// * * * * * * * * * * * * * * * * * * * * * * * * * * * * * * * * * * * * * //

dimensions      [0 3 -1 0 0 0 0];

internalField   nonuniform List<scalar> 
9440
(
-4.3495e-11
4.3495e-11
8.74082e-11
-1.30903e-10
1.5026e-10
-6.2852e-11
2.03059e-10
-5.27984e-11
3.19536e-10
-1.16477e-10
4.58888e-10
-1.39352e-10
5.91178e-10
-1.32289e-10
1.02151e-09
-4.30327e-10
7.70258e-10
2.51247e-10
1.28364e-09
-5.13382e-10
1.60018e-09
-3.16537e-10
1.77056e-09
-1.70384e-10
1.91932e-09
-1.48755e-10
2.04962e-09
-1.30303e-10
2.11061e-09
-6.09916e-11
2.17358e-09
-6.29666e-11
2.25663e-09
-8.30517e-11
2.45559e-09
-1.98962e-10
2.4684e-09
-1.28104e-11
2.64186e-09
-1.73458e-10
2.73982e-09
-9.79675e-11
2.83057e-09
-9.07446e-11
2.98439e-09
-1.53823e-10
3.08745e-09
-1.03061e-10
3.1342e-09
-4.67489e-11
3.17667e-09
-4.24679e-11
3.25788e-09
-8.12089e-11
3.27845e-09
-2.05786e-11
3.29194e-09
-1.34902e-11
3.29134e-09
6.01489e-13
3.29869e-09
-7.34982e-12
3.28358e-09
1.51147e-11
3.25218e-09
3.13912e-11
3.21663e-09
3.55521e-11
3.16372e-09
5.291e-11
3.10419e-09
5.95326e-11
3.04661e-09
5.75812e-11
2.95185e-09
9.47526e-11
2.84963e-09
1.02228e-10
2.77101e-09
7.86148e-11
2.67779e-09
9.32271e-11
2.51163e-09
1.6616e-10
2.31251e-09
1.99114e-10
2.0823e-09
2.30218e-10
1.8682e-09
2.14102e-10
1.70713e-09
1.6107e-10
1.55504e-09
1.52091e-10
1.4119e-09
1.43139e-10
1.30655e-09
1.05353e-10
1.24542e-09
6.11306e-11
1.21704e-09
2.83822e-11
1.21038e-09
6.66562e-12
1.27014e-09
-5.97579e-11
1.39452e-09
-1.24382e-10
1.52601e-09
-1.31492e-10
1.6037e-09
-7.76872e-11
1.66825e-09
-6.45511e-11
1.67444e-09
-6.18351e-12
1.62991e-09
4.45284e-11
1.64433e-09
-1.4424e-11
1.5659e-09
7.84382e-11
1.4749e-09
9.09993e-11
1.42339e-09
5.15076e-11
1.33867e-09
8.47238e-11
1.24517e-09
9.34972e-11
1.20653e-09
3.86365e-11
1.10744e-09
9.90893e-11
1.03753e-09
6.99102e-11
9.66698e-10
7.08356e-11
8.87833e-10
7.8865e-11
8.47326e-10
4.05066e-11
6.89989e-10
1.57336e-10
5.88471e-10
1.01518e-10
5.08054e-10
8.04158e-11
4.34596e-10
7.34566e-11
3.62121e-10
7.24741e-11
2.71e-10
9.11199e-11
1.13351e-10
1.57648e-10
5.76296e-11
5.57206e-11
2.41357e-11
3.34927e-11
3.50669e-15
2.41293e-11
-1.97996e-18
-8.75264e-20
-1.93494e-18
-4.50193e-20
-1.87185e-18
-6.43135e-20
-1.77644e-18
-9.55927e-20
-1.65009e-18
-1.26446e-19
-1.49742e-18
-1.53083e-19
-1.324e-18
-1.74239e-19
-1.13564e-18
-1.89576e-19
-9.38036e-19
-1.99167e-19
-7.36533e-19
-2.03307e-19
-5.35964e-19
-2.02442e-19
-3.40577e-19
-1.97145e-19
-1.5402e-19
-1.88068e-19
2.06651e-20
-1.75907e-19
1.81059e-19
-1.61354e-19
3.25354e-19
-1.45074e-19
4.52321e-19
-1.27681e-19
5.61264e-19
-1.09711e-19
6.51974e-19
-9.16183e-20
7.24673e-19
-7.37767e-20
7.79937e-19
-5.64821e-20
8.18607e-19
-3.99583e-20
8.41727e-19
-2.43615e-20
8.50477e-19
-9.79548e-21
8.46102e-19
3.67098e-21
8.29844e-19
1.5992e-20
8.02892e-19
2.71409e-20
7.66354e-19
3.71108e-20
7.21264e-19
4.5918e-20
6.68602e-19
5.36023e-20
6.09319e-19
6.02241e-20
5.44349e-19
6.58616e-20
4.74611e-19
7.06035e-20
4.00996e-19
7.45417e-20
3.24338e-19
7.77621e-20
2.45386e-19
8.03414e-20
1.64773e-19
8.23478e-20
8.29524e-20
8.38802e-20
8.5232e-20
1.08485e-10
-6.49898e-11
9.26992e-11
-1.15116e-10
1.20236e-10
-9.03883e-11
1.63862e-10
-9.64237e-11
2.64949e-10
-2.17564e-10
4.74762e-10
-3.49165e-10
5.94604e-10
-2.5213e-10
1.03006e-09
-8.65785e-10
1.15286e-09
1.28449e-10
1.34126e-09
-7.01779e-10
1.59762e-09
-5.72901e-10
1.74728e-09
-3.20042e-10
1.88561e-09
-2.87085e-10
2.03777e-09
-2.82464e-10
2.12415e-09
-1.47373e-10
2.22727e-09
-1.66082e-10
2.31405e-09
-1.69837e-10
2.39563e-09
-2.80539e-10
2.57946e-09
-1.96645e-10
2.67249e-09
-2.66485e-10
2.81561e-09
-2.41094e-10
2.85121e-09
-1.26343e-10
2.88195e-09
-1.84566e-10
2.97287e-09
-1.93975e-10
3.04266e-09
-1.16545e-10
3.10822e-09
-1.08031e-10
3.12991e-09
-1.02898e-10
3.1924e-09
-8.30621e-11
3.22168e-09
-4.27759e-11
3.22929e-09
-7.00958e-12
3.25506e-09
-3.31163e-11
3.24167e-09
2.85011e-11
3.22098e-09
5.20744e-11
3.19293e-09
6.36069e-11
3.13528e-09
1.1056e-10
3.05586e-09
1.38954e-10
2.96499e-09
1.48449e-10
2.88719e-09
1.72551e-10
2.80302e-09
1.86397e-10
2.71326e-09
1.68379e-10
2.64517e-09
1.61317e-10
2.56661e-09
2.44723e-10
2.35721e-09
4.08517e-10
2.04079e-09
5.46641e-10
1.81801e-09
4.36888e-10
1.66507e-09
3.14012e-10
1.56434e-09
2.52823e-10
1.48845e-09
2.19037e-10
1.41757e-09
1.76234e-10
1.37203e-09
1.06671e-10
1.38225e-09
1.81654e-11
1.346e-09
4.29136e-11
1.42438e-09
-1.38127e-10
1.51782e-09
-2.17825e-10
1.5623e-09
-1.75969e-10
1.60553e-09
-1.20918e-10
1.6175e-09
-7.6518e-11
1.63866e-09
-2.73445e-11
1.6218e-09
6.13914e-11
1.58958e-09
1.78045e-11
1.56101e-09
1.07002e-10
1.45126e-09
2.0075e-10
1.34451e-09
1.58259e-10
1.27054e-09
1.58696e-10
1.24158e-09
1.22452e-10
1.17386e-09
1.06362e-10
1.13259e-09
1.40357e-10
1.06416e-09
1.38339e-10
9.73458e-10
1.61539e-10
8.93997e-10
1.58325e-10
8.67429e-10
6.70735e-11
7.61652e-10
2.63112e-10
5.77921e-10
2.85248e-10
4.48063e-10
2.10271e-10
3.6252e-10
1.58998e-10
3.46389e-10
8.86036e-11
3.09606e-10
1.279e-10
2.72325e-10
1.94927e-10
2.2845e-10
9.95947e-11
9.60748e-11
1.6587e-10
3.41594e-16
1.20212e-10
-1.93735e-18
9.23954e-20
-1.95423e-18
-2.63922e-20
-1.90313e-18
-1.156e-19
-1.80729e-18
-1.92285e-19
-1.67673e-18
-2.58298e-19
-1.51858e-18
-3.13009e-19
-1.33934e-18
-3.5578e-19
-1.14523e-18
-3.86417e-19
-9.42175e-19
-4.052e-19
-7.35669e-19
-4.12811e-19
-5.30666e-19
-4.1026e-19
-3.31501e-19
-3.98793e-19
-1.41859e-19
-3.79806e-19
3.52183e-20
-3.54743e-19
1.97338e-19
-3.25023e-19
3.42747e-19
-2.91977e-19
4.70291e-19
-2.56803e-19
5.79357e-19
-2.20536e-19
6.69816e-19
-1.84046e-19
7.41968e-19
-1.4804e-19
7.9646e-19
-1.13083e-19
8.34204e-19
-7.96096e-20
8.56293e-19
-4.79562e-20
8.63944e-19
-1.83817e-20
8.58423e-19
8.91449e-21
8.40993e-19
3.37929e-20
8.12862e-19
5.61833e-20
7.75161e-19
7.60923e-20
7.28948e-19
9.36009e-20
6.75224e-19
1.08852e-19
6.14957e-19
1.22029e-19
5.49091e-19
1.3333e-19
4.7855e-19
1.42943e-19
4.04216e-19
1.51026e-19
3.26917e-19
1.57699e-19
2.47393e-19
1.63039e-19
1.66306e-19
1.67089e-19
8.43042e-20
1.69853e-19
1.7123e-19
6.7409e-11
-1.32399e-10
6.46227e-11
-1.1233e-10
1.09575e-10
-1.3534e-10
2.00415e-10
-1.87264e-10
2.82022e-10
-2.99171e-10
5.54472e-10
-6.21615e-10
7.84068e-10
-4.81726e-10
8.98952e-10
-9.80669e-10
1.5165e-09
-4.89097e-10
1.46246e-09
-6.47743e-10
1.55541e-09
-6.65851e-10
1.72856e-09
-4.93192e-10
1.85802e-09
-4.16543e-10
1.99625e-09
-4.20693e-10
2.12931e-09
-2.80436e-10
2.23624e-09
-2.73009e-10
2.29633e-09
-2.29927e-10
2.33406e-09
-3.18276e-10
2.47221e-09
-3.34788e-10
2.52183e-09
-3.16109e-10
2.58987e-09
-3.0914e-10
2.70149e-09
-2.37962e-10
2.72916e-09
-2.1223e-10
2.77118e-09
-2.35996e-10
2.81589e-09
-1.61257e-10
2.86719e-09
-1.59332e-10
2.9064e-09
-1.42108e-10
2.93561e-09
-1.12278e-10
2.97108e-09
-7.82463e-11
3.01702e-09
-5.29474e-11
3.05737e-09
-7.34684e-11
3.08106e-09
4.81154e-12
3.07361e-09
5.95243e-11
3.04853e-09
8.86882e-11
3.01701e-09
1.42077e-10
2.96659e-09
1.89376e-10
2.89172e-09
2.23317e-10
2.80956e-09
2.54715e-10
2.70515e-09
2.90803e-10
2.60358e-09
2.69954e-10
2.51183e-09
2.53066e-10
2.39469e-09
3.6187e-10
2.23828e-09
5.64925e-10
2.09559e-09
6.89338e-10
1.91924e-09
6.1324e-10
1.70011e-09
5.33141e-10
1.55222e-09
4.00716e-10
1.51423e-09
2.57028e-10
1.51535e-09
1.75113e-10
1.48492e-09
1.37102e-10
1.48476e-09
1.83349e-11
1.50586e-09
2.18113e-11
1.53997e-09
-1.72231e-10
1.55275e-09
-2.30604e-10
1.56427e-09
-1.87489e-10
1.57746e-09
-1.34103e-10
1.56002e-09
-5.90773e-11
1.56834e-09
-3.56685e-11
1.49822e-09
1.31518e-10
1.49093e-09
2.50938e-11
1.4757e-09
1.22229e-10
1.36018e-09
3.16274e-10
1.25474e-09
2.63701e-10
1.19326e-09
2.20176e-10
1.13025e-09
1.85456e-10
1.06961e-09
1.67007e-10
1.02184e-09
1.88123e-10
9.3416e-10
2.26016e-10
9.00056e-10
1.95642e-10
8.91189e-10
1.67191e-10
7.8496e-10
1.73302e-10
7.14447e-10
3.33624e-10
6.0374e-10
3.95954e-10
4.75177e-10
3.38833e-10
4.05168e-10
2.29005e-10
3.47935e-10
1.45836e-10
3.06155e-10
1.69679e-10
3.07287e-10
1.93793e-10
1.9306e-10
2.13819e-10
9.5132e-11
2.63793e-10
3.06901e-16
2.15341e-10
-2.05606e-18
1.36743e-19
-2.04344e-18
-3.91427e-20
-1.97982e-18
-1.80044e-19
-1.87331e-18
-2.99993e-19
-1.73144e-18
-4.01637e-19
-1.56135e-18
-4.84795e-19
-1.36997e-18
-5.49033e-19
-1.16401e-18
-5.9439e-19
-9.49787e-19
-6.21511e-19
-7.33117e-19
-6.31588e-19
-5.19199e-19
-6.26255e-19
-3.12514e-19
-6.07469e-19
-1.16796e-19
-5.77385e-19
6.49383e-20
-5.38217e-19
2.30384e-19
-4.92122e-19
3.77921e-19
-4.41121e-19
5.06558e-19
-3.87031e-19
6.15847e-19
-3.31424e-19
7.05822e-19
-2.75614e-19
7.76925e-19
-2.20681e-19
8.29933e-19
-1.6749e-19
8.65857e-19
-1.16719e-19
8.85868e-19
-6.88824e-20
8.9124e-19
-2.43604e-20
8.83301e-19
1.65804e-20
8.63383e-19
5.37797e-20
8.32771e-19
8.71861e-20
7.9267e-19
1.16859e-19
7.44199e-19
1.42956e-19
6.88401e-19
1.65713e-19
6.26257e-19
1.85407e-19
5.58704e-19
2.02322e-19
4.86633e-19
2.16718e-19
4.1089e-19
2.28811e-19
3.32257e-19
2.38759e-19
2.51442e-19
2.46665e-19
1.6907e-19
2.52577e-19
8.56808e-20
2.565e-19
2.58399e-19
6.45163e-11
-1.96915e-10
8.60304e-11
-1.33844e-10
1.49813e-10
-1.99123e-10
3.4427e-10
-3.81721e-10
5.35406e-10
-4.90306e-10
7.06447e-10
-7.92656e-10
9.89855e-10
-7.65133e-10
9.78505e-10
-9.6932e-10
1.27726e-09
-7.8785e-10
1.4272e-09
-7.97682e-10
1.55652e-09
-7.95169e-10
1.62264e-09
-5.59312e-10
1.71007e-09
-5.03973e-10
1.7947e-09
-5.05322e-10
1.92273e-09
-4.08472e-10
2.06417e-09
-4.1445e-10
2.1366e-09
-3.02354e-10
2.18481e-09
-3.66492e-10
2.22798e-09
-3.77956e-10
2.30545e-09
-3.93582e-10
2.34115e-09
-3.44842e-10
2.38621e-09
-2.8302e-10
2.43389e-09
-2.59907e-10
2.47447e-09
-2.76579e-10
2.56442e-09
-2.5121e-10
2.6668e-09
-2.61714e-10
2.67326e-09
-1.4856e-10
2.68837e-09
-1.27389e-10
2.70695e-09
-9.68336e-11
2.73423e-09
-8.02235e-11
2.7433e-09
-8.25413e-11
2.76558e-09
-1.74695e-11
2.76614e-09
5.89602e-11
2.7476e-09
1.07236e-10
2.72814e-09
1.61529e-10
2.70042e-09
2.17104e-10
2.64632e-09
2.77409e-10
2.57885e-09
3.22187e-10
2.49598e-09
3.73674e-10
2.40201e-09
3.63933e-10
2.29855e-09
3.56521e-10
2.18815e-09
4.72275e-10
2.0702e-09
6.82874e-10
1.98077e-09
7.78773e-10
1.82692e-09
7.67091e-10
1.68788e-09
6.72179e-10
1.57694e-09
5.11664e-10
1.50948e-09
3.24485e-10
1.52909e-09
1.5551e-10
1.55192e-09
1.14273e-10
1.54728e-09
2.29833e-11
1.61211e-09
-4.30254e-11
1.58396e-09
-1.44077e-10
1.54752e-09
-1.94156e-10
1.57619e-09
-2.16164e-10
1.59692e-09
-1.54832e-10
1.5615e-09
-2.36543e-11
1.56439e-09
-3.85538e-11
1.44406e-09
2.51848e-10
1.38777e-09
8.13797e-11
1.26634e-09
2.43663e-10
1.25197e-09
3.30644e-10
1.18227e-09
3.33405e-10
1.11592e-09
2.86524e-10
1.0422e-09
2.59178e-10
9.83065e-10
2.26139e-10
9.47378e-10
2.2381e-10
9.222e-10
2.51193e-10
8.49229e-10
2.68613e-10
7.51755e-10
2.64665e-10
6.49577e-10
2.75479e-10
6.16295e-10
3.66906e-10
5.65812e-10
4.46435e-10
4.70288e-10
4.34356e-10
4.0495e-10
2.94342e-10
3.22444e-10
2.2834e-10
2.65668e-10
2.26455e-10
2.0722e-10
2.52241e-10
1.1221e-10
3.0883e-10
6.02762e-11
3.15725e-10
4.92347e-16
2.75615e-10
-2.23191e-18
9.70402e-20
-2.18434e-18
-8.73347e-20
-2.09977e-18
-2.66032e-19
-1.97495e-18
-4.26361e-19
-1.8146e-18
-5.63572e-19
-1.62559e-18
-6.75366e-19
-1.41533e-18
-7.60828e-19
-1.19113e-18
-8.20125e-19
-9.59865e-19
-8.54344e-19
-7.27784e-19
-8.65302e-19
-5.00413e-19
-8.55364e-19
-2.8243e-19
-8.27289e-19
-7.76272e-20
-7.84065e-19
1.11033e-19
-7.28742e-19
2.81385e-19
-6.64281e-19
4.32011e-19
-5.93449e-19
5.62165e-19
-5.18735e-19
6.71657e-19
-4.42294e-19
7.60755e-19
-3.6593e-19
8.30116e-19
-2.91111e-19
8.80704e-19
-2.19004e-19
9.13694e-19
-1.50505e-19
9.3039e-19
-8.62715e-20
9.32181e-19
-2.67525e-20
9.205e-19
2.77742e-20
8.9679e-19
7.71799e-20
8.62443e-19
1.21472e-19
8.18768e-19
1.60783e-19
7.66957e-19
1.95352e-19
7.08095e-19
2.25498e-19
6.43172e-19
2.51579e-19
5.731e-19
2.73957e-19
4.98726e-19
2.92963e-19
4.20838e-19
3.08874e-19
3.40162e-19
3.21902e-19
2.57355e-19
3.32191e-19
1.72993e-19
3.39826e-19
8.75796e-20
3.44844e-19
3.47262e-19
1.40892e-10
-3.37807e-10
2.59666e-10
-2.52618e-10
3.70216e-10
-3.09673e-10
4.48404e-10
-4.59909e-10
6.08451e-10
-6.50353e-10
7.57462e-10
-9.41667e-10
9.29808e-10
-9.37478e-10
1.03795e-09
-1.07746e-09
1.21953e-09
-9.69434e-10
1.25891e-09
-8.37063e-10
1.34059e-09
-8.7685e-10
1.4194e-09
-6.38119e-10
1.48273e-09
-5.67303e-10
1.5287e-09
-5.51291e-10
1.65563e-09
-5.35409e-10
1.78478e-09
-5.43595e-10
1.87046e-09
-3.88032e-10
1.91348e-09
-4.09511e-10
1.97686e-09
-4.41341e-10
2.09262e-09
-5.09342e-10
2.14519e-09
-3.97413e-10
2.18887e-09
-3.26698e-10
2.25594e-09
-3.26983e-10
2.32593e-09
-3.4657e-10
2.36607e-09
-2.91354e-10
2.44199e-09
-3.37636e-10
2.45495e-09
-1.61514e-10
2.46974e-09
-1.42185e-10
2.47961e-09
-1.06704e-10
2.45679e-09
-5.73995e-11
2.43502e-09
-6.07719e-11
2.44064e-09
-2.30913e-11
2.43575e-09
6.38453e-11
2.41856e-09
1.24425e-10
2.40145e-09
1.78641e-10
2.3703e-09
2.48259e-10
2.33087e-09
3.16834e-10
2.27149e-09
3.81573e-10
2.21931e-09
4.25853e-10
2.17381e-09
4.09438e-10
2.09146e-09
4.38872e-10
1.96654e-09
5.9719e-10
1.87272e-09
7.76704e-10
1.82431e-09
8.27182e-10
1.76062e-09
8.30779e-10
1.72867e-09
7.04136e-10
1.66536e-09
5.74972e-10
1.60675e-09
3.831e-10
1.60581e-09
1.5645e-10
1.65147e-09
6.86227e-11
1.64805e-09
2.64047e-11
1.67265e-09
-6.76238e-11
1.6343e-09
-1.05722e-10
1.57239e-09
-1.3225e-10
1.50803e-09
-1.51803e-10
1.53198e-09
-1.78778e-10
1.42639e-09
8.19346e-11
1.35664e-09
3.12019e-11
1.33987e-09
2.68617e-10
1.22903e-09
1.92215e-10
1.10082e-09
3.71878e-10
1.03504e-09
3.96423e-10
1.03017e-09
3.38277e-10
1.00417e-09
3.12519e-10
9.41311e-10
3.22039e-10
8.68311e-10
2.99139e-10
7.96389e-10
2.95731e-10
7.3865e-10
3.08932e-10
7.06981e-10
3.00282e-10
6.88594e-10
2.83052e-10
6.37918e-10
3.26155e-10
5.55568e-10
4.49254e-10
4.55979e-10
5.46024e-10
3.83027e-10
5.07308e-10
3.52186e-10
3.25182e-10
2.92682e-10
2.87844e-10
2.1848e-10
3.00656e-10
1.38304e-10
3.32417e-10
9.43921e-11
3.52741e-10
4.85424e-11
3.61574e-10
5.45535e-16
3.24156e-10
-2.41629e-18
1.01696e-19
-2.36304e-18
-1.41384e-19
-2.26009e-18
-3.7068e-19
-2.11216e-18
-5.76007e-19
-1.92639e-18
-7.50901e-19
-1.71105e-18
-8.92083e-19
-1.47463e-18
-9.98478e-19
-1.22535e-18
-1.07058e-18
-9.70823e-19
-1.11007e-18
-7.17845e-19
-1.11956e-18
-4.72338e-19
-1.10232e-18
-2.39206e-19
-1.06206e-18
-2.23043e-20
-1.00272e-18
1.75494e-19
-9.28328e-19
3.52217e-19
-8.42737e-19
5.06725e-19
-7.49543e-19
6.38606e-19
-6.51973e-19
7.48021e-19
-5.52811e-19
8.35574e-19
-4.54368e-19
9.02224e-19
-3.58501e-19
9.49203e-19
-2.66647e-19
9.77928e-19
-1.79876e-19
9.89909e-19
-9.89333e-20
9.86707e-19
-2.4285e-20
9.69906e-19
4.383e-20
9.41081e-19
1.05357e-19
9.01754e-19
1.60393e-19
8.53337e-19
2.09163e-19
7.97103e-19
2.52e-19
7.34176e-19
2.89306e-19
6.6555e-19
3.21526e-19
5.92106e-19
3.49103e-19
5.14637e-19
3.72445e-19
4.33866e-19
3.91905e-19
3.50452e-19
4.07762e-19
2.64989e-19
4.2022e-19
1.78012e-19
4.29414e-19
8.99969e-20
4.35429e-19
4.3832e-19
8.31284e-11
-4.20935e-10
2.34537e-10
-4.04027e-10
3.80266e-10
-4.55402e-10
5.00938e-10
-5.80581e-10
6.22043e-10
-7.71458e-10
7.29426e-10
-1.04905e-09
9.40106e-10
-1.14816e-09
9.95968e-10
-1.13332e-09
1.08526e-09
-1.05872e-09
1.1707e-09
-9.22503e-10
1.22074e-09
-9.26892e-10
1.29652e-09
-7.13899e-10
1.392e-09
-6.62783e-10
1.46639e-09
-6.25676e-10
1.49687e-09
-5.6589e-10
1.55006e-09
-5.96784e-10
1.66975e-09
-5.07732e-10
1.63796e-09
-3.77721e-10
1.81276e-09
-6.16138e-10
1.9244e-09
-6.20984e-10
1.99319e-09
-4.662e-10
2.08259e-09
-4.16103e-10
2.14613e-09
-3.90521e-10
2.22467e-09
-4.25115e-10
2.25848e-09
-3.25162e-10
2.23238e-09
-3.11533e-10
2.23043e-09
-1.59565e-10
2.21064e-09
-1.22398e-10
2.23465e-09
-1.30717e-10
2.21013e-09
-3.28828e-11
2.15259e-09
-3.23054e-12
2.15611e-09
-2.6611e-11
2.14e-09
7.99592e-11
2.10337e-09
1.61056e-10
2.08483e-09
1.97177e-10
2.05413e-09
2.78957e-10
2.00081e-09
3.70157e-10
1.98477e-09
3.97619e-10
1.94824e-09
4.62379e-10
1.88371e-09
4.73966e-10
1.76526e-09
5.5733e-10
1.65495e-09
7.07496e-10
1.63583e-09
7.95832e-10
1.63251e-09
8.30495e-10
1.65332e-09
8.0998e-10
1.68729e-09
6.70165e-10
1.67251e-09
5.89757e-10
1.68904e-09
3.66567e-10
1.6743e-09
1.71195e-10
1.64922e-09
9.37071e-11
1.60984e-09
6.57791e-11
1.61072e-09
-6.84966e-11
1.59499e-09
-8.99922e-11
1.56329e-09
-1.00549e-10
1.51613e-09
-1.04637e-10
1.426e-09
-8.86509e-11
1.30846e-09
1.99472e-10
1.19315e-09
1.46519e-10
1.17936e-09
2.82406e-10
1.03251e-09
3.39067e-10
1.00108e-09
4.03303e-10
9.88262e-10
4.09245e-10
9.17917e-10
4.08623e-10
7.84164e-10
4.46272e-10
7.38883e-10
3.67319e-10
7.33464e-10
3.04558e-10
7.28552e-10
3.00644e-10
7.14347e-10
3.23136e-10
6.66577e-10
3.48051e-10
5.71342e-10
3.78287e-10
4.60425e-10
4.37071e-10
3.98401e-10
5.11278e-10
3.69803e-10
5.74621e-10
3.48085e-10
5.29026e-10
3.10998e-10
3.62269e-10
2.58966e-10
3.39875e-10
1.87455e-10
3.72167e-10
1.31412e-10
3.88459e-10
8.39549e-11
4.00198e-10
4.42944e-11
4.01233e-10
4.84244e-16
3.68448e-10
-2.65936e-18
9.87143e-20
-2.59233e-18
-2.0931e-19
-2.46542e-18
-4.99309e-19
-2.28706e-18
-7.56062e-19
-2.06757e-18
-9.7186e-19
-1.81744e-18
-1.14344e-18
-1.54673e-18
-1.27023e-18
-1.26485e-18
-1.35343e-18
-9.80318e-19
-1.39559e-18
-7.00605e-19
-1.40034e-18
-4.32071e-19
-1.37206e-18
-1.79874e-19
-1.31563e-18
5.2091e-20
-1.23619e-18
2.61086e-19
-1.13886e-18
4.4541e-19
-1.02856e-18
6.04295e-19
-9.09801e-19
7.37769e-19
-7.86604e-19
8.46463e-19
-6.62411e-19
9.31441e-19
-5.40046e-19
9.94078e-19
-4.21727e-19
1.03597e-18
-3.09118e-19
1.05887e-18
-2.03405e-19
1.06456e-18
-1.05359e-19
1.05482e-18
-1.54064e-20
1.03143e-18
6.63006e-20
9.96117e-19
1.39822e-19
9.50525e-19
2.05379e-19
8.96173e-19
2.63319e-19
8.34409e-19
3.14084e-19
7.66396e-19
3.58184e-19
6.93126e-19
3.96162e-19
6.15448e-19
4.28554e-19
5.34097e-19
4.55863e-19
4.49723e-19
4.78527e-19
3.62909e-19
4.96907e-19
2.74184e-19
5.1128e-19
1.84027e-19
5.21842e-19
9.28876e-20
5.28732e-19
5.32042e-19
1.7993e-10
-6.00866e-10
3.46501e-10
-5.70598e-10
4.43438e-10
-5.52339e-10
5.27248e-10
-6.64391e-10
6.50015e-10
-8.94225e-10
7.51892e-10
-1.15093e-09
8.41178e-10
-1.23744e-09
9.04949e-10
-1.19709e-09
9.74071e-10
-1.12785e-09
1.03439e-09
-9.82825e-10
1.05369e-09
-9.46185e-10
1.08392e-09
-7.44136e-10
1.13824e-09
-7.17099e-10
1.21897e-09
-7.06407e-10
1.32546e-09
-6.72382e-10
1.37776e-09
-6.49079e-10
1.59946e-09
-7.2944e-10
1.49552e-09
-2.7378e-10
1.72235e-09
-8.42967e-10
1.818e-09
-7.16634e-10
1.87254e-09
-5.20741e-10
1.96861e-09
-5.12174e-10
2.0328e-09
-4.54707e-10
1.9969e-09
-3.89216e-10
2.02561e-09
-3.53879e-10
2.00502e-09
-2.90947e-10
2.01521e-09
-1.69751e-10
1.97346e-09
-8.06497e-11
1.97708e-09
-1.34338e-10
1.94311e-09
1.09115e-12
1.88525e-09
5.46244e-11
1.88065e-09
-2.201e-11
1.82398e-09
1.36634e-10
1.77447e-09
2.10564e-10
1.73263e-09
2.39017e-10
1.73857e-09
2.73017e-10
1.70795e-09
4.00772e-10
1.66176e-09
4.43812e-10
1.66123e-09
4.62913e-10
1.60402e-09
5.31172e-10
1.54371e-09
6.17646e-10
1.50517e-09
7.46039e-10
1.47698e-09
8.24025e-10
1.49443e-09
8.13046e-10
1.55324e-09
7.51169e-10
1.59321e-09
6.30192e-10
1.63321e-09
5.49762e-10
1.68708e-09
3.12697e-10
1.6787e-09
1.79581e-10
1.64093e-09
1.31477e-10
1.59616e-09
1.10557e-10
1.51121e-09
1.64521e-11
1.4424e-09
-2.11854e-11
1.35521e-09
-1.33496e-11
1.28631e-09
-3.57378e-11
1.10254e-09
9.51231e-11
1.11575e-09
1.86262e-10
1.03958e-09
2.22682e-10
9.65927e-10
3.56064e-10
8.75755e-10
4.29239e-10
8.61417e-10
4.17641e-10
7.93499e-10
4.77164e-10
7.07154e-10
4.94968e-10
7.30398e-10
4.23028e-10
7.29181e-10
3.68536e-10
6.39165e-10
3.94575e-10
5.5483e-10
3.84978e-10
4.97614e-10
3.80352e-10
4.63511e-10
3.82154e-10
4.04218e-10
4.37579e-10
3.45024e-10
4.96264e-10
2.89156e-10
5.67146e-10
2.73135e-10
5.90642e-10
3.10934e-10
4.91227e-10
3.01483e-10
3.7172e-10
2.46345e-10
3.95013e-10
1.90735e-10
4.27778e-10
1.33971e-10
4.45222e-10
8.05909e-11
4.53577e-10
3.87941e-11
4.43028e-10
3.53745e-16
4.07241e-10
-2.96739e-18
1.05227e-19
-2.88233e-18
-2.95268e-19
-2.72217e-18
-6.61e-19
-2.50285e-18
-9.76931e-19
-2.23915e-18
-1.23694e-18
-1.94423e-18
-1.43952e-18
-1.62993e-18
-1.58551e-18
-1.30701e-18
-1.67728e-18
-9.85069e-19
-1.71853e-18
-6.72324e-19
-1.71413e-18
-3.75641e-19
-1.66986e-18
-1.0043e-19
-1.59206e-18
1.49418e-19
-1.48732e-18
3.71389e-19
-1.36213e-18
5.6417e-19
-1.22261e-18
7.27492e-19
-1.07432e-18
8.61962e-19
-9.2212e-19
9.68828e-19
-7.70123e-19
1.04976e-18
-6.21642e-19
1.10669e-18
-4.79217e-19
1.14169e-18
-3.44683e-19
1.15692e-18
-2.19269e-19
1.15451e-18
-1.03702e-19
1.13653e-18
1.69847e-21
1.10495e-18
9.69237e-20
1.06167e-18
1.82199e-19
1.00846e-18
2.57913e-19
9.46938e-19
3.24573e-19
8.7851e-19
3.82769e-19
8.04374e-19
4.33143e-19
7.25519e-19
4.76359e-19
6.42757e-19
5.13067e-19
5.56761e-19
5.43877e-19
4.68103e-19
5.69326e-19
3.77282e-19
5.89868e-19
2.84746e-19
6.0586e-19
1.90916e-19
6.17571e-19
9.61977e-20
6.25192e-19
6.28856e-19
1.55705e-10
-7.5657e-10
2.44197e-10
-6.5909e-10
3.52236e-10
-6.60378e-10
4.53664e-10
-7.65818e-10
5.68295e-10
-1.00886e-09
6.53539e-10
-1.23617e-09
6.92339e-10
-1.27624e-09
7.52554e-10
-1.25731e-09
8.29926e-10
-1.20522e-09
8.98019e-10
-1.05092e-09
8.89248e-10
-9.37415e-10
9.4711e-10
-8.01998e-10
1.00974e-09
-7.79726e-10
1.08225e-09
-7.78923e-10
1.16944e-09
-7.5957e-10
1.27257e-09
-7.52206e-10
1.33294e-09
-7.89816e-10
1.69862e-09
-6.39461e-10
1.5265e-09
-6.70843e-10
1.59202e-09
-7.82153e-10
1.69034e-09
-6.1907e-10
1.72651e-09
-5.48343e-10
1.77304e-09
-5.01233e-10
1.76608e-09
-3.82259e-10
1.79046e-09
-3.78263e-10
1.76032e-09
-2.608e-10
1.74417e-09
-1.53609e-10
1.7086e-09
-4.50754e-11
1.70814e-09
-1.33882e-10
1.66681e-09
4.24199e-11
1.61053e-09
1.1091e-10
1.54545e-09
4.30665e-11
1.51693e-09
1.65153e-10
1.48873e-09
2.38766e-10
1.45413e-09
2.73613e-10
1.42053e-09
3.06623e-10
1.40555e-09
4.15747e-10
1.37748e-09
4.71888e-10
1.39363e-09
4.46756e-10
1.38731e-09
5.37495e-10
1.30338e-09
7.01577e-10
1.28747e-09
7.61948e-10
1.28063e-09
8.30875e-10
1.36504e-09
7.28634e-10
1.42653e-09
6.89681e-10
1.45382e-09
6.02898e-10
1.54102e-09
4.62564e-10
1.55832e-09
2.95404e-10
1.5649e-09
1.73001e-10
1.54667e-09
1.49707e-10
1.51636e-09
1.40867e-10
1.43736e-09
9.54519e-11
1.32396e-09
9.22186e-11
1.2031e-09
1.07517e-10
1.06446e-09
1.029e-10
1.00477e-09
1.5481e-10
9.11175e-10
2.79863e-10
7.48641e-10
3.85216e-10
6.15787e-10
4.88919e-10
5.69857e-10
4.7517e-10
6.00954e-10
3.86546e-10
6.48598e-10
4.2952e-10
6.71611e-10
4.71955e-10
6.03925e-10
4.90715e-10
4.75513e-10
4.96948e-10
4.36732e-10
4.33356e-10
4.46435e-10
3.75276e-10
4.25678e-10
4.01108e-10
3.4635e-10
4.61481e-10
2.76094e-10
5.07836e-10
2.16085e-10
5.56272e-10
1.98493e-10
5.84738e-10
2.52787e-10
5.36348e-10
2.80188e-10
4.63826e-10
2.23599e-10
4.28309e-10
1.76944e-10
4.41667e-10
1.4848e-10
4.56242e-10
1.08713e-10
4.84988e-10
7.7774e-11
4.84515e-10
3.53596e-11
4.85441e-10
2.06555e-16
4.42599e-10
-3.36788e-18
1.0794e-19
-3.24806e-18
-4.15914e-19
-3.03811e-18
-8.722e-19
-2.76287e-18
-1.2535e-18
-2.44173e-18
-1.55936e-18
-2.09022e-18
-1.79219e-18
-1.7217e-18
-1.95505e-18
-1.34826e-18
-2.05175e-18
-9.80669e-19
-2.08727e-18
-6.28051e-19
-2.06797e-18
-2.97844e-19
-2.00131e-18
4.30913e-21
-1.89548e-18
2.74609e-19
-1.75887e-18
5.1091e-19
-1.59963e-18
7.12463e-19
-1.42532e-18
8.79691e-19
-1.24266e-18
1.01396e-18
-1.05742e-18
1.11731e-18
-8.74359e-19
1.19219e-18
-6.97238e-19
1.24122e-18
-5.28849e-19
1.2671e-18
-3.71119e-19
1.27248e-18
-2.25236e-19
1.25991e-18
-9.1793e-20
1.23175e-18
2.90791e-20
1.19023e-18
1.37592e-19
1.13739e-18
2.34199e-19
1.07512e-18
3.19515e-19
1.00513e-18
3.94257e-19
9.28884e-19
4.59203e-19
8.4759e-19
5.15165e-19
7.62227e-19
5.62955e-19
6.73566e-19
6.03357e-19
5.82211e-19
6.37103e-19
4.88645e-19
6.64842e-19
3.93274e-19
6.87125e-19
2.96457e-19
7.04399e-19
1.98537e-19
7.17004e-19
9.98625e-20
7.25192e-19
7.29135e-19
1.53016e-10
-9.09586e-10
2.31383e-10
-7.37457e-10
2.94494e-10
-7.23489e-10
3.84778e-10
-8.56101e-10
5.04523e-10
-1.1286e-09
5.92359e-10
-1.32401e-09
6.81373e-10
-1.36526e-09
7.32107e-10
-1.30804e-09
7.14891e-10
-1.188e-09
7.19844e-10
-1.05587e-09
7.36386e-10
-9.53956e-10
7.86413e-10
-8.52026e-10
8.3619e-10
-8.29502e-10
9.03751e-10
-8.46484e-10
9.97073e-10
-8.52892e-10
1.13511e-09
-8.90238e-10
1.03567e-09
-6.90379e-10
1.30463e-09
-9.08427e-10
1.4149e-09
-7.81113e-10
1.41027e-09
-7.77516e-10
1.41112e-09
-6.19921e-10
1.46103e-09
-5.98255e-10
1.47806e-09
-5.18268e-10
1.47481e-09
-3.79009e-10
1.50363e-09
-4.0708e-10
1.50352e-09
-2.60691e-10
1.469e-09
-1.19087e-10
1.42701e-09
-3.08513e-12
1.37005e-09
-7.69301e-11
1.33175e-09
8.0726e-11
1.29688e-09
1.45774e-10
1.20952e-09
1.30428e-10
1.19333e-09
1.81348e-10
1.17466e-09
2.57435e-10
1.14773e-09
3.00538e-10
1.10988e-09
3.44473e-10
1.13779e-09
3.8784e-10
1.16888e-09
4.40799e-10
1.16864e-09
4.46996e-10
1.16598e-09
5.40152e-10
1.09373e-09
7.73828e-10
1.13501e-09
7.20675e-10
1.16113e-09
8.04756e-10
1.2221e-09
6.67657e-10
1.28863e-09
6.23156e-10
1.36787e-09
5.23661e-10
1.44109e-09
3.89347e-10
1.44748e-09
2.89014e-10
1.39773e-09
2.2275e-10
1.3081e-09
2.39345e-10
1.24242e-09
2.06549e-10
1.19493e-09
1.42938e-10
1.15129e-09
1.35858e-10
1.09039e-09
1.68426e-10
9.2179e-10
2.71497e-10
7.79601e-10
2.97e-10
6.44428e-10
4.15038e-10
5.9437e-10
4.35275e-10
6.12657e-10
4.70633e-10
6.30918e-10
4.5691e-10
5.51322e-10
4.66142e-10
4.61762e-10
5.19081e-10
3.92266e-10
5.41452e-10
3.71044e-10
5.11938e-10
3.98519e-10
4.69473e-10
3.88897e-10
4.42979e-10
2.91922e-10
4.72252e-10
1.94405e-10
4.98625e-10
1.43062e-10
5.12824e-10
1.05913e-10
5.44985e-10
8.34671e-11
5.78719e-10
8.60532e-11
5.82152e-10
1.03809e-10
5.18592e-10
1.27061e-10
4.40573e-10
1.23685e-10
4.31686e-10
9.23876e-11
4.72964e-10
3.8131e-11
5.10498e-10
-2.0516e-11
5.43634e-10
-7.38081e-11
5.37806e-10
-6.1461e-11
4.73093e-10
1.25058e-16
3.81137e-10
-3.89173e-18
1.39374e-20
-3.70435e-18
-6.03998e-19
-3.4194e-18
-1.15809e-18
-3.06873e-18
-1.60522e-18
-2.67456e-18
-1.95463e-18
-2.25309e-18
-2.21475e-18
-1.8184e-18
-2.39075e-18
-1.38378e-18
-2.48744e-18
-9.61362e-19
-2.51097e-18
-5.61395e-19
-2.46937e-18
-1.92015e-19
-2.37219e-18
1.40921e-19
-2.22992e-18
4.33851e-19
-2.05322e-18
6.85224e-19
-1.85228e-18
8.95122e-19
-1.63637e-18
1.06493e-18
-1.41356e-18
1.19702e-18
-1.19055e-18
1.29443e-18
-9.72716e-19
1.36057e-18
-7.64173e-19
1.39895e-18
-5.6786e-19
1.41298e-18
-3.85679e-19
1.40593e-18
-2.18661e-19
1.38078e-18
-6.71555e-20
1.34027e-18
6.90026e-20
1.28684e-18
1.90339e-19
1.2227e-18
2.97616e-19
1.14987e-18
3.91743e-19
1.07008e-18
4.73705e-19
9.84846e-19
5.44519e-19
8.95379e-19
6.05203e-19
8.0263e-19
6.56749e-19
7.07312e-19
7.00096e-19
6.0995e-19
7.3611e-19
5.10928e-19
7.6556e-19
4.10547e-19
7.891e-19
3.09063e-19
8.07268e-19
2.06725e-19
8.20481e-19
1.03805e-19
8.29047e-19
8.33179e-19
7.50107e-11
-9.84597e-10
1.71157e-10
-8.33602e-10
2.18457e-10
-7.70788e-10
3.11987e-10
-9.49631e-10
4.20452e-10
-1.23707e-09
4.54552e-10
-1.35811e-09
4.56758e-10
-1.36746e-09
4.7288e-10
-1.32416e-09
5.3566e-10
-1.25078e-09
5.90553e-10
-1.11076e-09
6.03869e-10
-9.67273e-10
6.66569e-10
-9.14726e-10
7.31959e-10
-8.94893e-10
7.72155e-10
-8.8668e-10
8.53733e-10
-9.3447e-10
8.64604e-10
-9.0111e-10
1.07838e-09
-9.04159e-10
1.0592e-09
-8.89238e-10
1.06264e-09
-7.84556e-10
1.07089e-09
-7.8577e-10
1.10891e-09
-6.57937e-10
1.14702e-09
-6.36371e-10
1.16831e-09
-5.39554e-10
1.1789e-09
-3.89604e-10
1.17778e-09
-4.05964e-10
1.1726e-09
-2.55508e-10
1.14393e-09
-9.04131e-11
1.12681e-09
1.40312e-11
1.05974e-09
-9.86369e-12
1.06006e-09
8.04118e-11
1.04091e-09
1.64917e-10
9.88885e-10
1.82454e-10
9.59135e-10
2.11098e-10
9.25387e-10
2.91182e-10
8.90099e-10
3.35826e-10
8.80599e-10
3.53973e-10
8.93865e-10
3.74575e-10
9.25703e-10
4.08962e-10
9.13732e-10
4.58968e-10
8.91852e-10
5.62033e-10
9.30663e-10
7.35017e-10
9.51198e-10
7.00142e-10
1.00874e-09
7.47217e-10
1.06325e-09
6.13142e-10
1.15222e-09
5.34195e-10
1.20622e-09
4.69654e-10
1.1961e-09
3.99474e-10
1.18454e-09
3.0057e-10
1.11517e-09
2.92123e-10
1.08426e-09
2.70256e-10
1.05396e-09
2.36848e-10
9.53988e-10
2.42916e-10
8.51869e-10
2.37979e-10
7.2809e-10
2.92206e-10
6.47599e-10
3.51989e-10
5.66461e-10
3.78139e-10
5.26733e-10
4.54767e-10
4.79324e-10
4.82685e-10
4.52927e-10
4.9703e-10
3.9139e-10
5.18448e-10
2.89624e-10
5.6791e-10
2.2571e-10
5.82995e-10
2.07613e-10
5.5955e-10
1.95908e-10
5.23644e-10
1.67647e-10
4.97736e-10
1.27325e-10
4.83302e-10
1.07121e-10
4.92455e-10
8.8301e-11
5.17446e-10
4.20968e-11
5.59029e-10
6.94113e-12
5.8014e-10
2.5812e-11
5.59847e-10
7.25829e-11
5.35381e-10
6.99354e-11
5.21239e-10
3.31603e-11
4.77348e-10
2.34973e-11
4.41349e-10
1.42611e-11
4.822e-10
-3.21438e-11
5.56902e-10
-9.66275e-11
6.08117e-10
-1.77934e-10
6.19112e-10
-1.2837e-10
4.23528e-10
1.66699e-16
2.52766e-10
-4.50967e-18
3.08963e-19
-4.25845e-18
-8.55752e-19
-3.86654e-18
-1.55078e-18
-3.41813e-18
-2.05434e-18
-2.93468e-18
-2.43888e-18
-2.42909e-18
-2.72119e-18
-1.91509e-18
-2.90557e-18
-1.40732e-18
-2.99609e-18
-9.19758e-19
-2.99968e-18
-4.64218e-19
-2.92633e-18
-4.97472e-20
-2.7883e-18
3.17622e-19
-2.59902e-18
6.3479e-19
-2.37205e-18
9.01129e-19
-2.12009e-18
1.11794e-18
-1.85445e-18
1.28794e-18
-1.58469e-18
1.41485e-18
-1.31849e-18
1.50297e-18
-1.06179e-18
1.55689e-18
-8.18904e-19
1.58113e-18
-5.92746e-19
1.58e-18
-3.85021e-19
1.55743e-18
-1.96448e-19
1.51694e-18
-2.69849e-20
1.4616e-18
1.23959e-19
1.39411e-18
2.57336e-19
1.31683e-18
3.74316e-19
1.23183e-18
4.76181e-19
1.1409e-18
5.64248e-19
1.04553e-18
6.39824e-19
9.46925e-19
7.04173e-19
8.45977e-19
7.58492e-19
7.43326e-19
8.03897e-19
6.39399e-19
8.41399e-19
5.34469e-19
8.71891e-19
4.28715e-19
8.96136e-19
3.22275e-19
9.14759e-19
2.15291e-19
9.28253e-19
1.07937e-19
9.36984e-19
9.412e-19
6.83934e-11
-1.05299e-09
1.10754e-10
-8.75962e-10
1.30678e-10
-7.90712e-10
2.32926e-10
-1.05188e-09
3.18222e-10
-1.32236e-09
3.52322e-10
-1.39221e-09
3.70217e-10
-1.38536e-09
3.68433e-10