/*--------------------------------*- C++ -*----------------------------------*\
  =========                 |
  \\      /  F ield         | OpenFOAM: The Open Source CFD Toolbox
   \\    /   O peration     | Website:  https://openfoam.org
    \\  /    A nd           | Version:  6
     \\/     M anipulation  |
\*---------------------------------------------------------------------------*/
FoamFile
{
    version     2.0;
    format      ascii;
    class       volScalarField;
    location    "1100";
    object      T;
}
// * * * * * * * * * * * * * * * * * * * * * * * * * * * * * * * * * * * * * //

dimensions      [0 0 0 1 0 0 0];

internalField   nonuniform List<scalar> 
4800
(
552.509
552.426
552.344
552.263
552.183
552.105
552.029
551.954
551.881
551.809
551.738
551.669
551.6
551.533
551.466
551.4
551.335
551.271
551.208
551.147
551.086
551.026
550.966
550.907
550.849
550.79
550.732
550.673
550.614
550.554
550.493
550.431
550.367
550.302
550.235
550.165
550.093
550.018
549.941
549.86
549.776
549.689
549.598
549.503
549.406
549.306
549.204
549.1
548.996
548.89
548.783
548.675
548.566
548.456
548.345
548.231
548.114
547.994
547.871
547.744
547.614
547.481
547.344
547.205
547.063
546.919
546.773
546.625
546.476
546.325
546.172
546.019
545.865
545.712
545.56
545.409
545.261
545.116
544.974
544.836
544.702
544.572
544.448
544.327
544.21
544.097
543.986
543.878
543.772
543.667
543.563
543.461
543.358
543.257
543.155
543.054
542.953
542.851
542.75
542.648
542.547
542.445
542.344
542.242
542.14
542.038
541.935
541.833
541.731
541.628
541.526
541.423
541.321
541.218
541.115
541.012
540.91
540.807
540.704
540.601
552.508
552.425
552.342
552.261
552.18
552.101
552.024
551.949
551.875
551.802
551.731
551.661
551.592
551.524
551.456
551.39
551.325
551.261
551.198
551.136
551.075
551.015
550.955
550.896
550.837
550.779
550.72
550.662
550.602
550.542
550.482
550.42
550.356
550.291
550.224
550.154
550.082
550.008
549.93
549.85
549.766
549.68
549.589
549.495
549.398
549.298
549.196
549.093
548.989
548.883
548.777
548.669
548.56
548.449
548.337
548.223
548.105
547.985
547.862
547.735
547.606
547.472
547.336
547.197
547.055
546.911
546.766
546.618
546.469
546.318
546.166
546.013
545.86
545.706
545.554
545.404
545.256
545.111
544.97
544.831
544.698
544.568
544.444
544.324
544.207
544.094
543.984
543.876
543.77
543.666
543.562
543.46
543.357
543.256
543.154
543.053
542.952
542.851
542.749
542.648
542.547
542.445
542.343
542.241
542.139
542.037
541.935
541.833
541.731
541.628
541.526
541.423
541.321
541.218
541.115
541.012
540.91
540.807
540.704
540.601
552.508
552.423
552.339
552.256
552.175
552.094
552.016
551.939
551.864
551.79
551.717
551.645
551.575
551.506
551.438
551.371
551.305
551.24
551.177
551.114
551.053
550.993
550.933
550.874
550.815
550.756
550.698
550.639
550.58
550.52
550.459
550.397
550.334
550.269
550.202
550.133
550.061
549.987
549.91
549.83
549.747
549.661
549.571
549.478
549.382
549.283
549.181
549.079
548.975
548.87
548.763
548.655
548.546
548.435
548.322
548.207
548.089
547.968
547.845
547.718
547.588
547.455
547.319
547.18
547.039
546.896
546.75
546.603
546.454
546.304
546.153
546
545.848
545.695
545.544
545.394
545.246
545.102
544.96
544.822
544.689
544.56
544.436
544.316
544.201
544.088
543.979
543.872
543.766
543.662
543.559
543.457
543.356
543.254
543.153
543.052
542.951
542.85
542.749
542.647
542.546
542.444
542.343
542.241
542.139
542.037
541.935
541.833
541.73
541.628
541.526
541.423
541.32
541.218
541.115
541.012
540.91
540.807
540.704
540.601
552.507
552.421
552.335
552.25
552.166
552.084
552.003
551.923
551.846
551.769
551.695
551.621
551.549
551.479
551.409
551.342
551.275
551.21
551.145
551.083
551.021
550.96
550.9
550.841
550.782
550.723
550.665
550.606
550.547
550.487
550.426
550.364
550.301
550.236
550.17
550.101
550.03
549.956
549.88
549.8
549.718
549.632
549.544
549.452
549.357
549.259
549.159
549.057
548.953
548.848
548.742
548.634
548.524
548.412
548.299
548.183
548.065
547.944
547.82
547.693
547.563
547.43
547.294
547.156
547.015
546.873
546.728
546.581
546.433
546.284
546.133
545.982
545.83
545.678
545.528
545.378
545.231
545.087
544.946
544.809
544.676
544.548
544.425
544.306
544.191
544.08
543.971
543.865
543.761
543.658
543.555
543.454
543.353
543.252
543.151
543.05
542.95
542.849
542.748
542.646
542.545
542.444
542.342
542.24
542.139
542.037
541.935
541.832
541.73
541.628
541.525
541.423
541.32
541.218
541.115
541.012
540.91
540.807
540.704
540.601
552.506
552.417
552.329
552.241
552.154
552.069
551.985
551.903
551.822
551.743
551.665
551.59
551.516
551.444
551.373
551.304
551.236
551.17
551.105
551.042
550.979
550.918
550.858
550.799
550.74
550.681
550.623
550.564
550.505
550.445
550.384
550.322
550.259
550.194
550.128
550.06
549.989
549.916
549.84
549.761
549.68
549.595
549.508
549.418
549.324
549.227
549.128
549.027
548.924
548.819
548.713
548.604
548.494
548.382
548.267
548.151
548.032
547.911
547.787
547.66
547.53
547.397
547.262
547.125
546.985
546.843
546.699
546.553
546.406
546.258
546.108
545.958
545.807
545.657
545.507
545.358
545.212
545.068
544.928
544.791
544.659
544.532
544.41
544.292
544.179
544.069
543.962
543.857
543.754
543.652
543.55
543.45
543.349
543.249
543.149
543.048
542.948
542.847
542.746
542.645
542.544
542.443
542.341
542.24
542.138
542.036
541.934
541.832
541.73
541.627
541.525
541.422
541.32
541.217
541.115
541.012
540.909
540.807
540.704
540.601
552.504
552.412
552.321
552.23
552.139
552.05
551.962
551.876
551.792
551.71
551.63
551.552
551.476
551.401
551.329
551.258
551.19
551.122
551.056
550.992
550.93
550.869
550.808
550.748
550.689
550.631
550.572
550.513
550.454
550.394
550.333
550.271
550.208
550.144
550.078
550.01
549.94
549.867
549.792
549.714
549.634
549.55
549.464
549.375
549.283
549.187
549.089
548.989
548.886
548.782
548.675
548.567
548.456
548.343
548.228
548.111
547.992
547.87
547.746
547.62
547.49
547.359
547.224
547.088
546.949
546.808
546.665
546.52
546.374
546.227
546.078
545.929
545.78
545.631
545.482
545.335
545.189
545.046
544.906
544.771
544.64
544.514
544.393
544.277
544.165
544.057
543.951
543.848
543.746
543.645
543.545
543.445
543.345
543.245
543.146
543.046
542.945
542.845
542.745
542.644
542.543
542.442
542.34
542.239
542.137
542.035
541.933
541.831
541.729
541.627
541.524
541.422
541.32
541.217
541.115
541.012
540.909
540.807
540.704
540.601
552.502
552.406
552.311
552.215
552.121
552.027
551.935
551.845
551.758
551.672
551.589
551.508
551.429
551.353
551.278
551.206
551.136
551.068
551.001
550.936
550.873
550.811
550.75
550.691
550.631
550.573
550.514
550.455
550.396
550.336
550.275
550.213
550.15
550.086
550.02
549.952
549.883
549.811
549.736
549.66
549.58
549.498
549.413
549.324
549.233
549.139
549.042
548.943
548.841
548.737
548.63
548.521
548.41
548.297
548.182
548.065
547.945
547.824
547.7
547.573
547.445
547.314
547.181
547.045
546.907
546.768
546.626
546.482
546.338
546.192
546.045
545.897
545.749
545.601
545.454
545.308
545.163
545.021
544.882
544.748
544.618
544.493
544.374
544.259
544.149
544.043
543.939
543.837
543.737
543.637
543.538
543.439
543.34
543.241
543.142
543.043
542.943
542.843
542.743
542.642
542.541
542.44
542.339
542.238
542.136
542.034
541.933
541.831
541.728
541.626
541.524
541.422
541.319
541.217
541.114
541.012
540.909
540.807
540.704
540.601
552.5
552.399
552.298
552.198
552.099
552
551.904
551.81
551.718
551.629
551.542
551.458
551.377
551.298
551.222
551.148
551.076
551.007
550.939
550.873
550.809
550.747
550.686
550.626
550.566
550.508
550.449
550.39
550.331
550.271
550.211
550.149
550.086
550.022
549.956
549.889
549.819
549.748
549.674
549.598
549.52
549.438
549.354
549.267
549.177
549.084
548.988
548.889
548.787
548.683
548.577
548.469
548.358
548.244
548.129
548.012
547.893
547.771
547.648
547.522
547.394
547.265
547.133
546.998
546.862
546.723
546.583
546.441
546.298
546.153
546.008
545.862
545.716
545.57
545.424
545.279
545.135
544.994
544.856
544.722
544.594
544.471
544.354
544.241
544.133
544.028
543.926
543.826
543.728
543.629
543.532
543.434
543.336
543.237
543.139
543.04
542.94
542.841
542.741
542.64
542.54
542.439
542.338
542.237
542.135
542.033
541.932
541.83
541.728
541.626
541.523
541.421
541.319
541.216
541.114
541.011
540.909
540.806
540.704
540.601
552.497
552.39
552.284
552.179
552.074
551.97
551.869
551.77
551.674
551.581
551.491
551.404
551.32
551.238
551.16
551.084
551.01
550.94
550.871
550.804
550.74
550.677
550.615
550.555
550.496
550.437
550.378
550.32
550.26
550.201
550.14
550.079
550.016
549.952
549.886
549.819
549.75
549.679
549.606
549.531
549.453
549.373
549.289
549.203
549.113
549.021
548.926
548.828
548.727
548.623
548.517
548.409
548.298
548.186
548.071
547.954
547.835
547.714
547.592
547.467
547.34
547.212
547.081
546.948
546.813
546.676
546.538
546.397
546.256
546.113
545.969
545.825
545.681
545.536
545.392
545.248
545.106
544.966
544.828
544.696
544.569
544.448
544.333
544.223
544.117
544.014
543.914
543.816
543.718
543.622
543.525
543.428
543.331
543.233
543.135
543.036
542.937
542.838
542.738
542.638
542.538
542.437
542.336
542.235
542.134
542.032
541.931
541.829
541.727
541.625
541.523
541.421
541.318
541.216
541.114
541.011
540.909
540.806
540.704
540.601
552.494
552.381
552.269
552.157
552.046
551.937
551.831
551.727
551.627
551.53
551.436
551.346
551.259
551.175
551.094
551.016
550.941
550.868
550.798
550.731
550.665
550.602
550.54
550.48
550.42
550.361
550.303
550.244
550.185
550.126
550.065
550.004
549.941
549.877
549.812
549.745
549.676
549.605
549.532
549.458
549.381
549.301
549.219
549.133
549.044
548.952
548.858
548.76
548.66
548.557
548.452
548.344
548.234
548.122
548.007
547.891
547.773
547.654
547.532
547.409
547.283
547.156
547.026
546.895
546.762
546.627
546.49
546.352
546.213
546.072
545.93
545.788
545.645
545.503
545.36
545.218
545.077
544.937
544.8
544.667
544.543
544.426
544.314
544.206
544.102
544.001
543.903
543.806
543.71
543.614
543.519
543.423
543.326
543.229
543.131
543.033
542.935
542.836
542.736
542.636
542.536
542.436
542.335
542.234
542.133
542.031
541.93
541.828
541.726
541.624
541.522
541.42
541.318
541.216
541.113
541.011
540.909
540.806
540.704
540.601
552.49
552.371
552.252
552.133
552.017
551.902
551.79
551.681
551.576
551.475
551.378
551.284
551.194
551.107
551.024
550.944
550.867
550.793
550.722
550.654
550.587
550.523
550.461
550.4
550.34
550.282
550.223
550.165
550.106
550.046
549.986
549.925
549.863
549.799
549.734
549.667
549.598
549.527
549.455
549.38
549.304
549.225
549.143
549.058
548.97
548.878
548.784
548.687
548.588
548.486
548.381
548.274
548.165
548.054
547.941
547.825
547.709
547.59
547.47
547.348
547.224
547.098
546.971
546.842
546.71
546.578
546.443
546.307
546.169
546.031
545.891
545.751
545.611
545.47
545.329
545.189
545.049
544.91
544.772
544.637
544.518
544.406
544.297
544.192
544.089
543.99
543.893
543.797
543.702
543.608
543.513
543.418
543.322
543.225
543.128
543.03
542.932
542.833
542.734
542.634
542.534
542.434
542.333
542.232
542.131
542.03
541.929
541.827
541.725
541.623
541.522
541.419
541.317
541.215
541.113
541.011
540.908
540.806
540.704
540.601
552.487
552.36
552.234
552.109
551.985
551.864
551.746
551.632
551.523
551.417
551.316
551.22
551.127
551.037
550.952
550.87
550.792
550.716
550.644
550.574
550.507
550.442
550.379
550.318
550.258
550.199
550.141
550.082
550.023
549.964
549.904
549.843
549.781
549.717
549.652
549.585
549.516
549.446
549.374
549.299
549.223
549.144
549.063
548.978
548.89
548.8
548.707
548.61
548.512
548.411
548.307
548.201
548.093
547.983
547.871
547.758
547.643
547.526
547.407
547.287
547.165
547.041
546.916
546.788
546.659
546.528
546.396
546.262
546.127
545.99
545.853
545.715
545.577
545.439
545.3
545.162
545.024
544.887
544.747
544.597
544.494
544.39
544.284
544.18
544.079
543.981
543.885
543.79
543.696
543.602
543.508
543.413
543.318
543.222
543.125
543.027
542.929
542.831
542.732
542.632
542.532
542.432
542.332
542.231
542.13
542.029
541.928
541.826
541.724
541.623
541.521
541.419
541.317
541.215
541.113
541.01
540.908
540.806
540.703
540.601
552.483
552.349
552.216
552.083
551.953
551.825
551.701
551.582
551.467
551.358
551.253
551.153
551.057
550.965
550.878
550.794
550.714
550.638
550.564
550.493
550.425
550.36
550.296
550.235
550.174
550.115
550.056
549.997
549.939
549.879
549.819
549.758
549.696
549.633
549.568
549.501
549.432
549.362
549.29
549.215
549.139
549.06
548.979
548.895
548.808
548.718
548.625
548.53
548.432
548.333
548.23
548.126
548.02
547.911
547.801
547.69
547.576
547.461
547.344
547.226
547.106
546.984
546.861
546.736
546.609
546.48
546.35
546.218
546.086
545.952
545.817
545.681
545.546
545.41
545.274
545.138
545.004
544.87
544.737
544.607
544.491
544.382
544.276
544.172
544.072
543.975
543.879
543.785
543.692
543.598
543.504
543.41
543.314
543.218
543.122
543.025
542.927
542.828
542.73
542.63
542.531
542.431
542.33
542.23
542.129
542.028
541.926
541.825
541.724
541.622
541.52
541.418
541.316
541.214
541.112
541.01
540.908
540.806
540.703
540.601
552.479
552.338
552.197
552.057
551.92
551.786
551.656
551.53
551.411
551.297
551.188
551.085
550.986
550.892
550.803
550.717
550.636
550.558
550.483
550.412
550.343
550.277
550.213
550.15
550.089
550.029
549.97
549.911
549.852
549.793
549.733
549.672
549.61
549.547
549.482
549.415
549.346
549.276
549.203
549.129
549.052
548.974
548.893
548.809
548.723
548.633
548.542
548.447
548.351
548.252
548.152
548.049
547.945
547.839
547.731
547.621
547.51
547.397
547.282
547.166
547.048
546.928
546.807
546.684
546.559
546.433
546.305
546.176
546.046
545.915
545.783
545.65
545.516
545.383
545.25
545.118
544.987
544.857
544.729
544.606
544.489
544.378
544.271
544.168
544.068
543.971
543.876
543.782
543.688
543.595
543.501
543.407
543.312
543.216
543.119
543.022
542.925
542.826
542.728
542.628
542.529
542.429
542.329
542.228
542.127
542.026
541.925
541.824
541.723
541.621
541.519
541.418
541.316
541.214
541.112
541.01
540.908
540.805
540.703
540.601
552.476
552.327
552.179
552.032
551.887
551.746
551.61
551.479
551.354
551.236
551.123
551.017
550.915
550.819
550.727
550.641
550.558
550.479
550.403
550.33
550.261
550.194
550.129
550.066
550.004
549.944
549.884
549.825
549.765
549.705
549.645
549.584
549.522
549.458
549.393
549.326
549.257
549.187
549.114
549.04
548.963
548.885
548.804
548.721
548.635
548.547
548.457
548.364
548.269
548.172
548.073
547.973
547.87
547.766
547.661
547.553
547.444
547.333
547.221
547.106
546.991
546.873
546.754
546.634
546.511
546.388
546.263
546.136
546.009
545.88
545.75
545.62
545.49
545.36
545.23
545.101
544.973
544.847
544.723
544.603
544.487
544.376
544.27
544.167
544.067
543.97
543.875
543.78
543.687
543.593
543.499
543.405
543.309
543.214
543.117
543.02
542.922
542.824
542.726
542.627
542.527
542.427
542.327
542.227
542.126
542.025
541.924
541.823
541.722
541.62
541.519
541.417
541.315
541.213
541.111
541.009
540.907
540.805
540.703
540.601
552.472
552.317
552.161
552.007
551.855
551.707
551.564
551.428
551.298
551.175
551.059
550.949
550.845
550.747
550.653
550.565
550.481
550.401
550.324
550.251
550.18
550.112
550.047
549.983
549.92
549.859
549.799
549.739
549.679
549.618
549.557
549.496
549.433
549.369
549.304
549.237
549.168
549.097
549.025
548.95
548.874
548.795
548.715
548.632
548.548
548.461
548.372
548.281
548.188
548.093
547.996
547.897
547.797
547.695
547.591
547.486
547.379
547.271
547.161
547.049
546.935
546.82
546.704
546.585
546.465
546.344
546.222
546.098
545.974
545.848
545.721
545.594
545.467
545.34
545.213
545.087
544.962
544.839
544.719
544.601
544.487
544.377
544.271
544.168
544.068
543.971
543.875
543.78
543.686
543.592
543.498
543.403
543.308
543.212
543.115
543.018
542.921
542.822
542.724
542.625
542.525
542.426
542.326
542.225
542.125
542.024
541.923
541.822
541.721
541.619
541.518
541.416
541.314
541.213
541.111
541.009
540.907
540.805
540.703
540.601
552.469
552.308
552.146
551.985
551.825
551.671
551.522
551.379
551.245
551.118
550.998
550.885
550.778
550.677
550.582
550.492
550.406
550.325
550.247
550.173
550.102
550.033
549.966
549.901
549.838
549.776
549.714
549.654
549.593
549.532
549.471
549.408
549.345
549.281
549.215
549.148
549.079
549.008
548.935
548.861
548.784
548.706
548.626
548.545
548.461
548.376
548.288
548.199
548.107
548.014
547.919
547.823
547.725
547.625
547.524
547.421
547.316
547.21
547.103
546.993
546.882
546.769
546.655
546.539
546.422
546.304
546.184
546.063
545.941
545.819
545.695
545.571
545.447
545.323
545.199
545.076
544.955
544.835
544.717
544.601
544.489
544.38
544.274
544.171
544.071
543.973
543.877
543.782
543.687
543.592
543.498
543.402
543.307
543.211
543.114
543.017
542.919
542.821
542.722
542.623
542.524
542.424
542.324
542.224
542.124
542.023
541.922
541.821
541.72
541.618
541.517
541.415
541.314
541.212
541.11
541.009
540.907
540.805
540.703
540.601
552.467
552.3
552.132
551.964
551.798
551.637
551.482
551.334
551.194
551.062
550.939
550.822
550.713
550.61
550.513
550.421
550.334
550.252
550.173
550.098
550.025
549.956
549.888
549.822
549.758
549.695
549.633
549.571
549.509
549.448
549.386
549.323
549.259
549.194
549.128
549.06
548.991
548.92
548.847
548.773
548.697
548.619
548.54
548.459
548.376
548.292
548.206
548.118
548.029
547.938
547.845
547.751
547.655
547.557
547.458
547.358
547.256
547.152
547.047
546.94
546.831
546.721
546.609
546.496
546.382
546.266
546.149
546.031
545.913
545.793
545.672
545.552
545.43
545.309
545.189
545.069
544.95
544.832
544.716
544.603
544.492
544.384
544.278
544.175
544.075
543.977
543.88
543.784
543.688
543.593
543.498
543.402
543.306
543.21
543.113
543.015
542.918
542.819
542.721
542.622
542.522
542.423
542.323
542.223
542.122
542.022
541.921
541.82
541.719
541.618
541.516
541.415
541.313
541.212
541.11
541.008
540.906
540.805
540.703
540.601
552.464
552.292
552.119
551.945
551.774
551.607
551.447
551.294
551.149
551.012
550.885
550.765
550.653
550.547
550.448
550.354
550.266
550.182
550.102
550.026
549.952
549.882
549.813
549.746
549.681
549.617
549.554
549.491
549.429
549.366
549.303
549.239
549.175
549.11
549.043
548.975
548.905
548.834
548.761
548.687
548.611
548.534
548.455
548.375
548.293
548.21
548.126
548.04
547.953
547.864
547.773
547.681
547.588
547.493
547.396
547.298
547.198
547.097
546.994
546.89
546.784
546.676
546.567
546.457
546.345
546.232
546.118
546.003
545.887
545.771
545.653
545.535
545.417
545.299
545.181
545.064
544.947
544.832
544.718
544.606
544.496
544.389
544.283
544.18
544.08
543.981
543.883
543.786
543.69
543.594
543.498
543.402
543.306
543.209
543.112
543.014
542.916
542.818
542.719
542.62
542.521
542.421
542.322
542.221
542.121
542.021
541.92
541.819
541.718
541.617
541.516
541.414
541.313
541.211
541.11
541.008
540.906
540.804
540.703
540.601
552.462
552.285
552.108
551.93
551.755
551.583
551.418
551.26
551.11
550.969
550.837
550.713
550.598
550.49
550.388
550.292
550.202
550.116
550.035
549.957
549.883
549.811
549.741
549.673
549.607
549.542
549.478
549.414
549.351
549.287
549.223
549.159
549.094
549.028
548.961
548.892
548.822
548.751
548.678
548.604
548.528
548.451
548.373
548.294
548.214
548.132
548.05
547.966
547.88
547.793
547.705
547.615
547.524
547.431
547.337
547.241
547.144
547.045
546.945
546.843
546.74
546.635
546.528
546.421
546.312
546.202
546.091
545.979
545.866
545.752
545.638
545.523
545.407
545.292
545.177
545.062
544.947
544.834
544.722
544.611
544.502
544.394
544.289
544.186
544.085
543.985
543.886
543.789
543.692
543.595
543.499
543.402
543.305
543.208
543.111
543.013
542.915
542.817
542.718
542.619
542.52
542.42
542.32
542.22
542.12
542.02
541.919
541.818
541.717
541.616
541.515
541.414
541.312
541.211
541.109
541.008
540.906
540.804
540.703
540.601
552.46
552.281
552.101
551.92
551.741
551.566
551.396
551.233
551.079
550.933
550.796
550.668
550.549
550.437
550.333
550.235
550.142
550.055
549.971
549.892
549.816
549.743
549.672
549.604
549.536
549.47
549.405
549.341
549.276
549.212
549.148
549.083
549.017
548.95
548.882
548.813
548.743
548.671
548.598
548.524
548.449
548.373
548.295
548.217
548.138
548.058
547.977
547.895
547.812
547.727
547.641
547.554
547.465
547.374
547.283
547.189
547.094
546.998
546.9
546.801
546.7
546.598
546.494
546.389
546.283
546.176
546.068
545.958
545.848
545.738
545.626
545.514
545.402
545.289
545.176
545.063
544.95
544.838
544.727
544.617
544.508
544.4
544.295
544.191
544.089
543.989
543.89
543.792
543.694
543.597
543.5
543.403
543.305
543.208
543.11
543.012
542.914
542.816
542.717
542.618
542.519
542.419
542.319
542.219
542.119
542.019
541.918
541.817
541.716
541.615
541.514
541.413
541.312
541.21
541.109
541.007
540.906
540.804
540.702
540.601
552.459
552.278
552.096
551.913
551.732
551.554
551.381
551.214
551.056
550.906
550.764
550.632
550.508
550.392
550.284
550.182
550.087
549.997
549.911
549.83
549.753
549.678
549.606
549.537
549.469
549.402
549.336
549.271
549.206
549.141
549.076
549.011
548.944
548.877
548.808
548.739
548.668
548.596
548.523
548.448
548.373
548.298
548.222
548.145
548.067
547.989
547.91
547.83
547.749
547.666
547.583
547.498
547.411
547.323
547.234
547.143
547.05
546.956
546.861
546.764
546.665
546.566
546.465
546.362
546.259
546.154
546.049
545.943
545.836
545.728
545.62
545.51
545.4
545.29
545.179
545.068
544.956
544.844
544.733
544.623
544.514
544.406
544.3
544.196
544.094
543.993
543.893
543.794
543.696
543.598
543.5
543.403
543.305
543.208
543.11
543.012
542.913
542.815
542.716
542.617
542.518
542.418
542.318
542.218
542.118
542.018
541.917
541.816
541.716
541.615
541.514
541.412
541.311
541.21
541.108
541.007
540.905
540.804
540.702
540.601
552.458
552.274
552.091
551.908
551.726
551.547
551.373
551.204
551.042
550.887
550.741
550.603
550.474
550.353
550.24
550.134
550.035
549.942
549.854
549.771
549.692
549.616
549.543
549.473
549.404
549.337
549.271
549.206
549.141
549.076
549.01
548.944
548.877
548.809
548.74
548.669
548.598
548.525
548.452
548.377
548.303
548.228
548.153
548.077
548.001
547.925
547.848
547.771
547.692
547.612
547.531
547.448
547.364
547.279
547.192
547.103
547.013
546.921
546.828
546.733
546.637
546.539
546.44
546.34
546.239
546.138
546.035
545.932
545.828
545.723
545.618
545.511
545.404
545.295
545.186
545.075
544.964
544.852
544.74
544.63
544.52
544.412
544.305
544.2
544.097
543.996
543.895
543.796
543.697
543.599
543.501
543.403
543.305
543.207
543.109
543.011
542.913
542.814
542.715
542.616
542.517
542.417
542.317
542.217
542.117
542.017
541.916
541.816
541.715
541.614
541.513
541.412
541.311
541.209
541.108
541.007
540.905
540.804
540.702
540.601
552.458
552.274
552.09
551.906
551.724
551.544
551.369
551.199
551.034
550.876
550.725
550.581
550.446
550.319
550.2
550.09
549.986
549.89
549.799
549.714
549.633
549.556
549.482
549.411
549.343
549.276
549.211
549.146
549.081
549.016
548.951
548.884
548.817
548.748
548.677
548.606
548.533
548.46
548.386
548.312
548.238
548.164
548.09
548.016
547.943
547.869
547.794
547.719
547.643
547.566
547.487
547.407
547.326
547.242
547.157
547.071
546.983
546.893
546.802
546.709
546.615
546.519
546.422
546.324
546.225
546.126
546.026
545.926
545.825
545.723
545.621
545.517
545.412
545.305
545.196
545.086
544.973
544.86
544.748
544.636
544.526
544.416
544.309
544.203
544.1
543.998
543.897
543.798
543.698
543.6
543.501
543.403
543.305
543.207
543.109
543.01
542.912
542.813
542.714
542.615
542.516
542.416
542.316
542.216
542.116
542.016
541.916
541.815
541.714
541.613
541.512
541.411
541.31
541.209
541.108
541.006
540.905
540.804
540.702
540.601
552.457
552.272
552.088
551.904
551.722
551.542
551.366
551.195
551.028
550.867
550.712
550.563
550.422
550.289
550.164
550.047
549.939
549.838
549.745
549.657
549.575
549.497
549.423
549.353
549.286
549.221
549.157
549.093
549.03
548.966
548.9
548.833
548.765
548.694
548.623
548.55
548.476
548.402
548.328
548.254
548.18
548.107
548.035
547.964
547.893
547.821
547.75
547.677
547.603
547.529
547.453
547.375
547.296
547.214
547.131
547.046
546.96
546.872
546.783
546.692
546.599
546.505
546.409
546.313
546.216
546.118
546.021
545.923
545.825
545.727
545.627
545.526
545.423
545.318
545.209
545.097
544.984
544.869
544.753
544.639
544.527
544.417
544.31
544.205
544.101
543.999
543.899
543.799
543.699
543.6
543.502
543.403
543.305
543.207
543.108
543.01
542.911
542.812
542.713
542.614
542.515
542.415
542.316
542.216
542.116
542.015
541.915
541.814
541.714
541.613
541.512
541.411
541.31
541.209
541.107
541.006
540.905
540.804
540.702
540.601
552.456
552.269
552.083
551.898
551.715
551.535
551.359
551.186
551.018
550.854
550.696
550.543
550.396
550.257
550.126
550.004
549.891
549.786
549.69
549.6
549.518
549.441
549.369
549.301
549.237
549.176
549.114
549.053
548.991
548.928
548.862
548.794
548.724
548.651
548.578
548.503
548.428
548.353
548.279
548.206
548.134
548.063
547.993
547.924
547.855
547.786
547.717
547.646
547.574
547.502
547.428
547.353
547.275
547.195
547.114
547.03
546.945
546.859
546.771
546.682
546.591
546.498
546.404
546.308
546.212
546.115
546.019
545.923
545.828
545.732
545.635
545.536
545.435
545.33
545.221
545.109
544.993
544.875
544.757
544.64
544.525
544.415
544.308
544.204
544.101
544
543.899
543.799
543.7
543.601
543.502
543.403
543.305
543.207
543.108
543.009
542.911
542.812
542.713
542.614
542.514
542.415
542.315
542.215
542.115
542.015
541.914
541.814
541.713
541.612
541.512
541.411
541.31
541.208
541.107
541.006
540.905
540.803
540.702
540.601
552.454
552.263
552.074
551.886
551.701
551.52
551.342
551.168
550.997
550.831
550.669
550.512
550.362
550.218
550.083
549.956
549.84
549.733
549.635
549.546
549.464
549.39
549.322
549.26
549.203
549.147
549.092
549.034
548.974
548.91
548.843
548.772
548.698
548.622
548.546
548.47
548.395
548.32
548.248
548.176
548.106
548.038
547.971
547.904
547.837
547.769
547.7
547.63
547.559
547.487
547.414
547.34
547.264
547.186
547.106
547.023
546.939
546.853
546.766
546.678
546.588
546.498
546.405
546.31
546.213
546.114
546.018
545.923
545.83
545.737
545.642
545.545
545.444
545.339
545.229
545.115
544.998
544.878
544.759
544.639
544.519
544.409
544.304
544.201
544.099
543.999
543.898
543.799
543.699
543.6
543.502
543.403
543.305
543.206
543.108
543.009
542.91
542.811
542.712
542.613
542.514
542.414
542.314
542.214
542.114
542.014
541.914
541.813
541.713
541.612
541.511
541.41
541.309
541.208
541.107
541.006
540.905
540.803
540.702
540.601
552.452
552.255
552.059
551.865
551.675
551.49
551.31
551.133
550.961
550.793
550.628
550.466
550.312
550.166
550.03
549.902
549.784
549.677
549.582
549.499
549.425
549.358
549.296
549.242
549.195
549.149
549.102
549.05
548.99
548.923
548.852
548.777
548.695
548.612
548.536
548.462
548.388
548.317
548.247
548.177
548.111
548.05
547.986
547.919
547.852
547.781
547.71
547.638
547.563
547.488
547.414
547.339
547.264
547.189
547.112
547.031
546.947
546.859
546.77
546.679
546.587
546.497
546.406
546.315
546.217
546.115
546.017
545.923
545.834
545.742
545.651
545.553
545.446
545.336
545.222
545.108
544.995
544.878
544.763
544.644
544.51
544.4
544.297
544.196
544.096
543.997
543.897
543.798
543.699
543.6
543.502
543.403
543.304
543.206
543.107
543.009
542.91
542.811
542.712
542.613
542.513
542.414
542.314
542.214
542.114
542.014
541.913
541.813
541.712
541.612
541.511
541.41
541.309
541.208
541.107
541.006
540.904
540.803
540.702
540.601
552.448
552.244
552.04
551.834
551.632
551.443
551.263
551.083
550.908
550.74
550.574
550.406
550.247
550.102
549.968
549.842
549.725
549.618
549.532
549.472
549.426
549.378
549.319
549.266
549.227
549.19
549.154
549.112
549.052
548.984
548.908
548.827
548.728
548.626
548.558
548.49
548.417
548.358
548.299
548.227
548.166
548.131
548.072
547.995
547.922
547.838
547.759
547.682
547.594
547.51
547.43
547.346
547.271
547.209
547.146
547.074
546.989
546.892
546.788
546.675
546.564
546.47
546.378
546.31
546.22
546.115
546.027
545.933
545.854
545.758
545.68
545.573
545.438
545.312
545.176
545.067
544.971
544.866
544.779
544.678
544.498
544.395
544.29
544.19
544.091
543.994
543.895
543.797
543.698
543.6
543.501
543.403
543.304
543.206
543.107
543.008
542.909
542.81
542.711
542.612
542.513
542.413
542.313
542.214
542.114
542.013
541.913
541.813
541.712
541.611
541.511
541.41
541.309
541.208
541.107
541.006
540.904
540.803
540.702
540.601
552.442
552.224
552.018
551.797
551.577
551.394
551.225
551.039
550.855
550.679
550.519
550.344
550.19
550.052
549.909
549.786
549.67
549.553
549.475
549.473
549.51
549.531
549.449
549.355
549.299
549.241
549.206
549.181
549.131
549.092
549.024
548.958
548.815
548.643
548.611
548.543
548.43
548.409
548.399
548.321
548.288
548.355
548.295
548.16
548.065
547.935
547.834
547.746
547.624
547.53
547.443
547.337
547.283
547.264
547.245
547.189
547.082
546.957
546.816
546.608
546.428
546.329
546.208
546.254
546.213
546.108
546.102
545.983
545.934
545.784
545.812
545.617
545.396
545.293
545.041
544.976
544.916
544.788
544.799
544.77
544.523
544.405
544.288
544.184
544.087
543.99
543.893
543.796
543.698
543.599
543.501
543.402
543.304
543.205
543.107
543.008
542.909
542.81
542.711
542.612
542.512
542.413
542.313
542.213
542.113
542.013
541.913
541.812
541.712
541.611
541.51
541.41
541.309
541.208
541.107
541.005
540.904
540.803
540.702
540.601
552.424
552.17
551.999
551.761
551.525
551.392
551.256
551.057
550.86
550.561
550.405
550.265
550.227
550.15
549.873
549.699
549.63
549.501
549.366
549.44
549.665
549.907
549.733
549.551
549.394
549.148
549.025
548.982
549.043
549.144
549.22
549.244
548.943
548.632
548.704
548.526
548.213
548.268
548.341
548.36
548.545
548.718
548.565
548.41
548.266
547.999
547.879
547.684
547.498
547.425
547.306
547.248
547.509
547.545
547.377
547.361
547.102
546.935
546.784
546.278
546.023
545.924
545.601
545.924
545.96
546.079
546.059
546.159
546.134
545.81
546.071
545.669
545.071
545.397
544.671
544.731
545.09
544.58
544.861
544.801
544.496
544.402
544.279
544.176
544.082
543.987
543.892
543.795
543.697
543.599
543.501
543.402
543.304
543.205
543.107
543.008
542.909
542.81
542.711
542.612
542.512
542.413
542.313
542.213
542.113
542.013
541.913
541.812
541.712
541.611
541.51
541.409
541.309
541.208
541.107
541.005