/*--------------------------------*- C++ -*----------------------------------*\
  =========                 |
  \\      /  F ield         | OpenFOAM: The Open Source CFD Toolbox
   \\    /   O peration     | Website:  https://openfoam.org
    \\  /    A nd           | Version:  6
     \\/     M anipulation  |
\*---------------------------------------------------------------------------*/
FoamFile
{
    version     2.0;
    format      ascii;
    class       volVectorField;
    location    "1100";
    object      U;
}
// * * * * * * * * * * * * * * * * * * * * * * * * * * * * * * * * * * * * * //

dimensions      [0 1 -1 0 0 0 0];

internalField   nonuniform List<vector> 
4800
(
(-6.73387e-05 0 8.35157e-05)
(2.44344e-05 0 -9.9092e-05)
(5.26546e-05 0 -6.65919e-05)
(7.2221e-05 0 -5.64396e-05)
(0.000103688 0 -5.04738e-05)
(0.000159563 0 -3.76179e-05)
(0.000216336 0 -4.7362e-05)
(0.00031194 0 -5.46912e-05)
(0.000375228 0 9.90838e-06)
(0.000398737 0 -0.000171314)
(0.00053098 0 -0.00015181)
(0.000717252 0 -0.000136436)
(0.000791072 0 -7.66214e-05)
(0.000794666 0 -1.24152e-05)
(0.000819701 0 1.44849e-05)
(0.000866412 0 1.28403e-05)
(0.000903549 0 -6.76892e-05)
(0.000948913 0 -6.44351e-05)
(0.0010086 0 1.8968e-05)
(0.00105959 0 -6.66558e-05)
(0.00112232 0 -1.17656e-05)
(0.00120325 0 5.39602e-05)
(0.00120903 0 -4.83073e-05)
(0.00121132 0 -5.07037e-05)
(0.00123531 0 -2.30185e-05)
(0.00126912 0 -5.11974e-05)
(0.00130189 0 -0.000100518)
(0.00131869 0 -4.78705e-05)
(0.00131602 0 -4.09298e-05)
(0.00131467 0 -2.1741e-05)
(0.0013169 0 -1.9971e-05)
(0.00131705 0 -1.70461e-05)
(0.0013113 0 -8.93393e-06)
(0.00129508 0 -1.14569e-05)
(0.00127322 0 -2.17606e-05)
(0.00124988 0 -6.34022e-06)
(0.00122463 0 1.58807e-05)
(0.00119837 0 1.42462e-05)
(0.00116272 0 -3.40444e-05)
(0.0011214 0 -4.94844e-05)
(0.00108913 0 5.10637e-06)
(0.00105117 0 1.75408e-05)
(0.000976152 0 -8.21072e-05)
(0.000873137 0 -0.000155945)
(0.000773408 0 -0.000101031)
(0.000701943 0 -5.312e-05)
(0.000653623 0 -2.66876e-05)
(0.000596804 0 -1.30218e-05)
(0.000535856 0 4.96206e-06)
(0.000503241 0 1.72399e-05)
(0.000491436 0 -4.49558e-07)
(0.000484671 0 -9.01063e-06)
(0.00048982 0 -1.55735e-05)
(0.000519963 0 -3.69653e-05)
(0.000583541 0 -5.55652e-05)
(0.000643669 0 -2.0248e-05)
(0.000652979 0 -4.31522e-05)
(0.000661098 0 -1.64149e-05)
(0.000659066 0 -2.91128e-06)
(0.00063291 0 -5.92903e-05)
(0.000597931 0 1.04135e-05)
(0.000595921 0 4.84803e-05)
(0.000587178 0 3.40488e-05)
(0.000558434 0 2.65993e-05)
(0.000506408 0 6.54107e-05)
(0.000444146 0 -5.04097e-05)
(0.000437374 0 8.39303e-06)
(0.00043117 0 2.75562e-05)
(0.000411554 0 -1.90952e-05)
(0.000371004 0 -4.90848e-07)
(0.000336522 0 8.78184e-05)
(0.000317386 0 -8.91891e-06)
(0.000233863 0 -0.000150441)
(0.000212141 0 -0.000108138)
(0.00019115 0 -3.26213e-05)
(0.000160671 0 3.27996e-05)
(0.000140567 0 -4.96991e-06)
(0.000100613 0 1.3465e-05)
(1.17209e-06 0 -2.59194e-05)
(9.4581e-06 0 -7.84214e-05)
(8.18035e-09 0 -4.81322e-05)
(-3.96824e-13 0 -1.75054e-14)
(-7.82975e-13 0 -9.00386e-15)
(-7.61358e-13 0 -1.28627e-14)
(-7.29659e-13 0 -1.91185e-14)
(-6.85306e-13 0 -2.52893e-14)
(-6.29502e-13 0 -3.06166e-14)
(-5.64284e-13 0 -3.48477e-14)
(-4.91928e-13 0 -3.79152e-14)
(-4.14735e-13 0 -3.98335e-14)
(-3.34914e-13 0 -4.06614e-14)
(-2.54499e-13 0 -4.04885e-14)
(-1.75308e-13 0 -3.9429e-14)
(-9.89195e-14 0 -3.76136e-14)
(-2.66711e-14 0 -3.51814e-14)
(4.03448e-14 0 -3.22707e-14)
(1.01283e-13 0 -2.90148e-14)
(1.55535e-13 0 -2.55362e-14)
(2.02717e-13 0 -2.19422e-14)
(2.42648e-13 0 -1.83237e-14)
(2.7533e-13 0 -1.47553e-14)
(3.00922e-13 0 -1.12964e-14)
(3.19709e-13 0 -7.99166e-15)
(3.32067e-13 0 -4.8723e-15)
(3.38441e-13 0 -1.9591e-15)
(3.39316e-13 0 7.34196e-16)
(3.35189e-13 0 3.1984e-15)
(3.26547e-13 0 5.42817e-15)
(3.13849e-13 0 7.42215e-15)
(2.97524e-13 0 9.18361e-15)
(2.77973e-13 0 1.07205e-14)
(2.55584e-13 0 1.20448e-14)
(2.30734e-13 0 1.31723e-14)
(2.03792e-13 0 1.41207e-14)
(1.75121e-13 0 1.49083e-14)
(1.45067e-13 0 1.55524e-14)
(1.13945e-13 0 1.60683e-14)
(8.20319e-14 0 1.64696e-14)
(4.95451e-14 0 1.6776e-14)
(1.65905e-14 0 1.70464e-14)
(3.31171e-06 0 -1.78627e-05)
(3.18096e-05 0 -3.8444e-05)
(5.01088e-05 0 -1.89709e-05)
(6.63716e-05 0 -6.77874e-06)
(8.59713e-05 0 -3.69464e-05)
(0.000144351 0 -4.81779e-05)
(0.00023739 0 -4.57264e-05)
(0.00027609 0 -0.000277681)
(0.00049588 0 0.000143581)
(0.000430196 0 -0.000367802)
(0.000601738 0 -0.000206678)
(0.000702933 0 -3.35426e-05)
(0.000757567 0 -9.35613e-05)
(0.000797691 0 -0.000115515)
(0.000832372 0 -6.46423e-05)
(0.000864512 0 -8.60495e-05)
(0.000917654 0 -4.92739e-05)
(0.000954508 0 -0.000151208)
(0.00100673 0 -6.46217e-05)
(0.00105469 0 -0.000121161)
(0.00110893 0 -9.46234e-05)
(0.00114348 0 -5.63787e-05)
(0.00115888 0 -7.6002e-05)
(0.00117574 0 -5.93504e-05)
(0.00119978 0 -3.94114e-05)
(0.00122614 0 -1.9012e-06)
(0.00124847 0 2.21171e-05)
(0.00126942 0 9.6863e-06)
(0.00128937 0 1.0238e-05)
(0.00129171 0 1.48254e-05)
(0.00129371 0 1.55461e-05)
(0.00129992 0 2.73272e-05)
(0.00129629 0 3.13617e-05)
(0.00128412 0 3.18867e-05)
(0.00126715 0 5.24074e-05)
(0.00124387 0 4.86901e-05)
(0.0012097 0 2.5637e-05)
(0.00117068 0 4.26141e-05)
(0.00113717 0 7.25631e-05)
(0.00110559 0 6.3048e-05)
(0.00107326 0 3.01749e-05)
(0.00104486 0 5.82775e-05)
(0.000994194 0 0.000158855)
(0.000873386 0 0.000267001)
(0.000728628 0 0.000219666)
(0.000679939 0 0.000126241)
(0.000653353 0 0.000107253)
(0.000613485 0 0.000105817)
(0.000576421 0 7.01477e-05)
(0.000551129 0 1.95407e-05)
(0.000547455 0 1.96499e-06)
(0.000544332 0 -1.46973e-05)
(0.000548904 0 -4.30778e-05)
(0.000575677 0 -7.72672e-05)
(0.000625491 0 -6.46597e-05)
(0.000641666 0 -3.76384e-05)
(0.000642291 0 -1.49915e-05)
(0.000648465 0 1.49054e-06)
(0.000650653 0 2.33682e-05)
(0.000641156 0 2.37161e-05)
(0.000608241 0 7.22458e-05)
(0.000566647 0 7.24073e-05)
(0.000540481 0 4.54631e-05)
(0.000521166 0 4.67536e-05)
(0.000496425 0 -7.38671e-06)
(0.000452062 0 5.93889e-05)
(0.000420328 0 7.58914e-05)
(0.000426335 0 1.58684e-05)
(0.000414571 0 4.22868e-05)
(0.00037007 0 2.88481e-05)
(0.000330015 0 -7.06085e-05)
(0.000312875 0 9.02377e-05)
(0.000277519 0 0.000151441)
(0.000201092 0 0.000119906)
(0.000144627 0 6.07841e-05)
(0.000147125 0 1.55046e-05)
(0.000130753 0 4.61297e-05)
(0.00010458 0 6.67273e-05)
(9.67738e-05 0 1.66263e-05)
(7.03316e-05 0 6.57421e-05)
(3.75342e-08 0 5.17966e-05)
(-4.0835e-13 0 9.73917e-16)
(-7.78313e-13 0 -1.42823e-14)
(-7.71472e-13 0 -3.59828e-14)
(-7.42085e-13 0 -5.75756e-14)
(-6.96804e-13 0 -7.69488e-14)
(-6.39061e-13 0 -9.32184e-14)
(-5.71583e-13 0 -1.06004e-13)
(-4.96913e-13 0 -1.15199e-13)
(-4.17481e-13 0 -1.20873e-13)
(-3.35569e-13 0 -1.23224e-13)
(-2.53267e-13 0 -1.2254e-13)
(-1.72433e-13 0 -1.19188e-13)
(-9.4672e-14 0 -1.13575e-13)
(-2.13281e-14 0 -1.0613e-13)
(4.65113e-14 0 -9.72752e-14)
(1.08017e-13 0 -8.74102e-14)
(1.62608e-13 0 -7.68968e-14)
(2.0993e-13 0 -6.60495e-14)
(2.49834e-13 0 -5.51329e-14)
(2.82357e-13 0 -4.43633e-14)
(3.07686e-13 0 -3.39129e-14)
(3.26133e-13 0 -2.39136e-14)
(3.38099e-13 0 -1.44635e-14)
(3.44047e-13 0 -5.63543e-15)
(3.44473e-13 0 2.51709e-15)
(3.39883e-13 0 9.95699e-15)
(3.30771e-13 0 1.66648e-14)
(3.17605e-13 0 2.26406e-14)
(3.00822e-13 0 2.79038e-14)
(2.80834e-13 0 3.24909e-14)
(2.58036e-13 0 3.64506e-14)
(2.3281e-13 0 3.98383e-14)
(2.05528e-13 0 4.27092e-14)
(1.76553e-13 0 4.51135e-14)
(1.46227e-13 0 4.70922e-14)
(1.14862e-13 0 4.86761e-14)
(8.27397e-14 0 4.98873e-14)
(5.0122e-14 0 5.07467e-14)
(1.68608e-14 0 5.12924e-14)
(-5.49803e-06 0 -6.73007e-05)
(1.86938e-05 0 -4.75269e-05)
(3.92719e-05 0 -3.6672e-05)
(7.60304e-05 0 -4.45454e-05)
(0.000103253 0 -0.000134143)
(0.000146328 0 -0.000237062)
(0.000336069 0 -0.000139438)
(0.000242206 0 -0.000446857)
(0.000530466 0 -3.34903e-05)
(0.000585527 0 -0.0001629)
(0.000618141 0 -0.000257715)
(0.000661451 0 -0.000209378)
(0.000714563 0 -0.000177914)
(0.000787614 0 -0.000211182)
(0.000866641 0 -0.000139013)
(0.000894152 0 -7.79313e-05)
(0.000912029 0 -0.000105997)
(0.000940031 0 -0.000116927)
(0.000966477 0 -0.000139874)
(0.0010038 0 -0.000115302)
(0.00103981 0 -0.000117742)
(0.00106596 0 -0.000119538)
(0.00108231 0 -0.000102256)
(0.00109571 0 -8.88447e-05)
(0.00112148 0 -6.95138e-05)
(0.00115328 0 -0.000101876)
(0.00116552 0 -7.79686e-05)
(0.00116724 0 -4.6612e-05)
(0.00117563 0 -2.31226e-05)
(0.0011923 0 -1.45309e-05)
(0.00121136 0 -4.83287e-05)
(0.00123318 0 -4.61068e-06)
(0.00123364 0 1.04411e-05)
(0.0012273 0 2.01756e-05)
(0.00121441 0 4.05683e-05)
(0.00119826 0 5.84906e-05)
(0.00117517 0 7.36072e-05)
(0.00113898 0 7.93847e-05)
(0.00109627 0 7.62439e-05)
(0.00105986 0 6.95741e-05)
(0.00102542 0 9.7478e-05)
(0.000986691 0 0.00015374)
(0.000934825 0 0.000206056)
(0.000859879 0 0.000207617)
(0.000791611 0 0.00013016)
(0.000727894 0 0.000128785)
(0.000648047 0 0.000113478)
(0.000601068 0 8.08238e-05)
(0.0006037 0 6.168e-05)
(0.000602459 0 5.24159e-05)
(0.000592345 0 1.77655e-05)
(0.000593878 0 6.52099e-05)
(0.000601133 0 -7.37227e-05)
(0.000614248 0 -0.000103964)
(0.000626246 0 -7.29038e-05)
(0.000628264 0 -5.66301e-05)
(0.000628627 0 -3.81671e-05)
(0.000624243 0 -1.00569e-05)
(0.00061426 0 4.44891e-05)
(0.000594957 0 3.56445e-05)
(0.000554768 0 8.32726e-05)
(0.000505211 0 0.000129011)
(0.000507075 0 8.50396e-05)
(0.000497835 0 7.8949e-05)
(0.000467665 0 9.52712e-05)
(0.000437053 0 3.3601e-05)
(0.000414406 0 4.55617e-05)
(0.000381758 0 0.000117628)
(0.000363502 0 0.000106798)
(0.000355087 0 6.56934e-05)
(0.000343674 0 5.06232e-05)
(0.000300312 0 0.000119617)
(0.000266852 0 0.000132242)
(0.000216132 0 9.51928e-05)
(0.000155609 0 8.14281e-05)
(0.000149807 0 3.97165e-05)
(0.000137238 0 4.81765e-05)
(0.000113624 0 7.07458e-05)
(0.000112398 0 7.43065e-05)
(7.11961e-05 0 9.14709e-05)
(-1.25126e-08 0 6.92107e-05)
(-4.16484e-13 0 4.58277e-14)
(-8.19898e-13 0 -1.3107e-14)
(-8.04651e-13 0 -5.91289e-14)
(-7.70625e-13 0 -9.84557e-14)
(-7.20949e-13 0 -1.31987e-13)
(-6.58557e-13 0 -1.59561e-13)
(-5.86264e-13 0 -1.80963e-13)
(-5.06797e-13 0 -1.96161e-13)
(-4.2276e-13 0 -2.05342e-13)
(-3.36581e-13 0 -2.0888e-13)
(-2.50463e-13 0 -2.07303e-13)
(-1.66343e-13 0 -2.01252e-13)
(-8.58619e-14 0 -1.91438e-13)
(-1.03715e-14 0 -1.78592e-13)
(5.90645e-14 0 -1.63429e-13)
(1.21661e-13 0 -1.4662e-13)
(1.76896e-13 0 -1.28767e-13)
(2.24481e-13 0 -1.10392e-13)
(2.64334e-13 0 -9.1932e-14)
(2.96549e-13 0 -7.37442e-14)
(3.21372e-13 0 -5.61146e-14)
(3.39158e-13 0 -3.92657e-14)
(3.50345e-13 0 -2.33677e-14)
(3.55422e-13 0 -8.54841e-15)
(3.54908e-13 0 5.09899e-15)
(3.49337e-13 0 1.75145e-14)
(3.39231e-13 0 2.86739e-14)
(3.25088e-13 0 3.85902e-14)
(3.07374e-13 0 4.73114e-14)
(2.8652e-13 0 5.49131e-14)
(2.62932e-13 0 6.14872e-14)
(2.36992e-13 0 6.71303e-14)
(2.09067e-13 0 7.19321e-14)
(1.79504e-13 0 7.59673e-14)
(1.48629e-13 0 7.92916e-14)
(1.1674e-13 0 8.19408e-14)
(8.41025e-14 0 8.39332e-14)
(5.09502e-14 0 8.52707e-14)
(1.71362e-14 0 8.59258e-14)
(-4.17384e-05 0 -6.33673e-05)
(4.11934e-05 0 -3.77755e-05)
(5.80469e-05 0 -7.22262e-05)
(9.39435e-05 0 -0.000141302)
(0.000221966 0 -0.000139787)
(0.000233009 0 -0.000274546)
(0.000344642 0 -0.000276993)
(0.000392633 0 -0.000340349)
(0.000449075 0 -0.000335283)
(0.000523905 0 -0.000324855)
(0.000617719 0 -0.000263577)
(0.000642757 0 -0.000196659)
(0.000662567 0 -0.000154134)
(0.000706359 0 -0.000109855)
(0.000769365 0 -9.1979e-05)
(0.000811724 0 -0.000159865)
(0.000864118 0 -0.000114628)
(0.000882153 0 -0.000145962)
(0.000893716 0 -0.000154425)
(0.000910708 0 -0.000135547)
(0.00093135 0 -0.0001283)
(0.000950935 0 -9.26414e-05)
(0.000964263 0 -7.98786e-05)
(0.000978413 0 -0.000112307)
(0.00100933 0 -5.22677e-05)
(0.00105392 0 -2.50929e-05)
(0.00107822 0 -5.16786e-05)
(0.00107366 0 -5.20784e-05)
(0.00107551 0 -4.84659e-05)
(0.00108504 0 -3.5464e-05)
(0.00109605 0 -2.16774e-05)
(0.00110426 0 2.00206e-06)
(0.00110791 0 3.32028e-05)
(0.00110612 0 4.3007e-05)
(0.00109862 0 5.35244e-05)
(0.00108713 0 6.62761e-05)
(0.00107221 0 8.37502e-05)
(0.00105024 0 0.000101693)
(0.00101806 0 0.000133017)
(0.00097889 0 0.000138579)
(0.000937833 0 0.000109236)
(0.000898921 0 0.000130618)
(0.000852919 0 0.000208001)
(0.00080251 0 0.000287306)
(0.000763704 0 0.000312628)
(0.000706059 0 0.000281632)
(0.000641452 0 0.000191722)
(0.000610509 0 0.000103358)
(0.000606578 0 7.72501e-05)
(0.000613812 0 6.33666e-05)
(0.000624834 0 -7.12459e-06)
(0.000630375 0 -4.46355e-05)
(0.000639578 0 -5.60052e-05)
(0.000632426 0 -6.10941e-05)
(0.000617971 0 -6.29741e-05)
(0.000629058 0 -5.95362e-05)
(0.000634743 0 -2.94706e-05)
(0.000622895 0 -4.31808e-05)
(0.000599617 0 2.95845e-05)
(0.000554084 0 -3.7125e-05)
(0.000500032 0 -1.65228e-05)
(0.000490709 0 6.25279e-05)
(0.000488095 0 8.3322e-05)
(0.000466575 0 8.86202e-05)
(0.000419406 0 6.43433e-05)
(0.000387547 0 9.14089e-05)
(0.000384117 0 9.41221e-05)
(0.000378645 0 5.00796e-05)
(0.000358612 0 4.59108e-05)
(0.00032752 0 9.29112e-05)
(0.00028272 0 0.00013964)
(0.000249856 0 0.000160837)
(0.000230263 0 0.000159672)
(0.00020586 0 0.000140191)
(0.000160595 0 9.27481e-05)
(0.000131907 0 8.05434e-05)
(0.000118837 0 8.73061e-05)
(0.000107095 0 9.47699e-05)
(5.56131e-05 0 0.000124147)
(4.44211e-05 0 0.000118697)
(-2.66163e-08 0 9.3725e-05)
(-4.43657e-13 0 4.67565e-14)
(-8.8325e-13 0 -2.52955e-14)
(-8.56821e-13 0 -8.92153e-14)
(-8.14943e-13 0 -1.45271e-13)
(-7.57909e-13 0 -1.93042e-13)
(-6.88036e-13 0 -2.32032e-13)
(-6.08183e-13 0 -2.61972e-13)
(-5.21293e-13 0 -2.82903e-13)
(-4.302e-13 0 -2.95171e-13)
(-3.3753e-13 0 -2.99378e-13)
(-2.45639e-13 0 -2.96324e-13)
(-1.56569e-13 0 -2.86952e-13)
(-7.20114e-14 0 -2.7229e-13)
(6.68126e-15 0 -2.53392e-13)
(7.84836e-14 0 -2.31281e-13)
(1.42679e-13 0 -2.06914e-13)
(1.98835e-13 0 -1.81153e-13)
(2.46764e-13 0 -1.54744e-13)
(2.86482e-13 0 -1.28309e-13)
(3.18174e-13 0 -1.02358e-13)
(3.42164e-13 0 -7.72989e-14)
(3.5888e-13 0 -5.34448e-14)
(3.68817e-13 0 -3.10308e-14)
(3.72514e-13 0 -1.02226e-14)
(3.70536e-13 0 8.87092e-15)
(3.63458e-13 0 2.61919e-14)
(3.51847e-13 0 4.17316e-14)
(3.36242e-13 0 5.55282e-14)
(3.17145e-13 0 6.76616e-14)
(2.9501e-13 0 7.82422e-14)
(2.70253e-13 0 8.73973e-14)
(2.43254e-13 0 9.52558e-14)
(2.14365e-13 0 1.01936e-13)
(1.83913e-13 0 1.07537e-13)
(1.522e-13 0 1.12132e-13)
(1.19503e-13 0 1.15771e-13)
(8.60697e-14 0 1.18481e-13)
(5.21146e-14 0 1.20269e-13)
(1.75159e-14 0 1.21132e-13)
(-3.16927e-05 0 -0.000112734)
(0.0001062 0 -6.36438e-05)
(0.000134085 0 -8.15307e-05)
(0.000165983 0 -0.000160897)
(0.000234992 0 -0.000233137)
(0.000239711 0 -0.000364694)
(0.000371944 0 -0.000353605)
(0.000353862 0 -0.000442978)
(0.000466339 0 -0.000343642)
(0.000507853 0 -0.000314124)
(0.000502927 0 -0.000370002)
(0.000569372 0 -0.000267258)
(0.000582103 0 -0.000248524)
(0.000591648 0 -0.000289008)
(0.000649529 0 -0.000263564)
(0.000697816 0 -0.000193994)
(0.000739261 0 -0.000125924)
(0.000758112 0 -0.000127884)
(0.000779777 0 -0.000134172)
(0.000807644 0 -0.000169273)
(0.000847432 0 -0.000152735)
(0.000869144 0 -0.000136133)
(0.000883875 0 -0.00012368)
(0.000912457 0 -0.000103386)
(0.000944376 0 -0.000144931)
(0.000969446 0 -0.000161789)
(0.000986556 0 -5.91089e-05)
(0.000985728 0 -4.85207e-05)
(0.000988801 0 -3.31172e-05)
(0.000988549 0 -3.65093e-05)
(0.000979577 0 -4.09729e-05)
(0.000973112 0 -1.68931e-05)
(0.000975116 0 1.23793e-05)
(0.000973204 0 4.39271e-05)
(0.000965455 0 7.77124e-05)
(0.00095457 0 0.000110248)
(0.000941007 0 0.000140196)
(0.000922517 0 0.000157392)
(0.000900281 0 0.000158079)
(0.000879958 0 0.000128918)
(0.000857434 0 0.000117725)
(0.000817509 0 0.000176819)
(0.000757674 0 0.000298163)
(0.000739209 0 0.000330598)
(0.000720607 0 0.000327217)
(0.000690566 0 0.000276699)
(0.000675041 0 0.000220559)
(0.000654224 0 0.000165447)
(0.000639916 0 5.47991e-05)
(0.000645245 0 3.21551e-05)
(0.000659211 0 7.96638e-06)
(0.000662031 0 -2.2995e-05)
(0.000657646 0 -6.4171e-05)
(0.00064723 0 -9.43681e-05)
(0.000614417 0 -0.00010674)
(0.000585096 0 -3.65694e-05)
(0.00058386 0 2.3789e-05)
(0.000568375 0 3.039e-05)
(0.000498804 0 0.000191468)
(0.000488695 0 5.83986e-06)
(0.000451331 0 0.000140284)
(0.00042476 0 0.000188065)
(0.000406276 0 0.000193964)
(0.000410971 0 0.000112168)
(0.00039065 0 9.01598e-05)
(0.000366394 0 8.5638e-05)
(0.000335627 0 0.000106563)
(0.000294307 0 0.000161926)
(0.000285085 0 0.000160128)
(0.00028922 0 0.000101946)
(0.000283154 0 5.98369e-05)
(0.000249483 0 0.000120242)
(0.000187201 0 0.000198328)
(0.000162554 0 0.000197033)
(0.00014505 0 0.000120653)
(0.000123572 0 9.93008e-05)
(0.000107543 0 0.000105053)
(7.38505e-05 0 0.000124597)
(4.29746e-05 0 0.00013351)
(3.14888e-05 0 0.000133106)
(-1.44345e-08 0 0.000115562)
(-4.8206e-13 0 3.97471e-14)
(-9.55865e-13 0 -4.57438e-14)
(-9.24626e-13 0 -1.27342e-13)
(-8.74451e-13 0 -2.00474e-13)
(-8.0771e-13 0 -2.62895e-13)
(-7.27488e-13 0 -3.1349e-13)
(-6.37135e-13 0 -3.51861e-13)
(-5.39996e-13 0 -3.7814e-13)
(-4.39235e-13 0 -3.92883e-13)
(-3.37734e-13 0 -3.96973e-13)
(-2.38037e-13 0 -3.91537e-13)
(-1.42309e-13 0 -3.77869e-13)
(-5.23021e-14 0 -3.57358e-13)
(3.0638e-14 0 -3.31414e-13)
(1.05542e-13 0 -3.01404e-13)
(1.71788e-13 0 -2.68598e-13)
(2.29066e-13 0 -2.34142e-13)
(2.77325e-13 0 -1.99021e-13)
(3.16719e-13 0 -1.6406e-13)
(3.47559e-13 0 -1.29922e-13)
(3.70285e-13 0 -9.71302e-14)
(3.85426e-13 0 -6.60763e-14)
(3.93567e-13 0 -3.7041e-14)
(3.95323e-13 0 -1.02075e-14)
(3.91323e-13 0 1.43208e-14)
(3.82197e-13 0 3.65074e-14)
(3.68567e-13 0 5.6373e-14)
(3.51018e-13 0 7.39892e-14)
(3.30088e-13 0 8.94703e-14)
(3.06256e-13 0 1.02961e-13)
(2.79945e-13 0 1.14621e-13)
(2.51531e-13 0 1.24612e-13)
(2.21349e-13 0 1.33082e-13)
(1.89701e-13 0 1.40156e-13)
(1.56864e-13 0 1.45933e-13)
(1.23088e-13 0 1.50482e-13)
(8.86003e-14 0 1.53848e-13)
(5.36017e-14 0 1.56055e-13)
(1.79994e-14 0 1.57116e-13)
(-6.43541e-05 0 -0.000141181)
(0.000100048 0 -0.000148116)
(0.000124145 0 -0.000180073)
(0.000194356 0 -0.000213081)
(0.000233183 0 -0.000298601)
(0.000236986 0 -0.000419409)
(0.000354043 0 -0.000423452)
(0.000376511 0 -0.000435253)
(0.000425599 0 -0.000397827)
(0.000458947 0 -0.000366014)
(0.00045914 0 -0.000362121)
(0.000514464 0 -0.000266942)
(0.000535919 0 -0.00022977)
(0.000570522 0 -0.000185872)
(0.000601777 0 -0.000172555)
(0.000600803 0 -0.000228999)
(0.000645276 0 -0.000170568)
(0.000663433 0 -0.000191808)
(0.000685714 0 -0.000205402)
(0.000721596 0 -0.000262318)
(0.000796215 0 -0.000179839)
(0.000828734 0 -0.000127121)
(0.000845758 0 -0.00014781)
(0.000869337 0 -0.000175503)
(0.000905625 0 -8.93331e-05)
(0.000898712 0 -0.000116673)
(0.000894784 0 -7.14661e-05)
(0.000890296 0 -6.74728e-05)
(0.000886074 0 -4.50477e-05)
(0.000886561 0 -1.71358e-06)
(0.000880309 0 -2.4902e-06)
(0.000858065 0 8.44039e-06)
(0.0008538 0 3.86065e-05)
(0.000851191 0 4.54185e-05)
(0.000840701 0 5.0141e-05)
(0.000826828 0 7.69543e-05)
(0.000813083 0 0.000112125)
(0.000795718 0 0.00015418)
(0.000785801 0 0.000173926)
(0.000771489 0 0.000190903)
(0.000736511 0 0.000234768)
(0.000676693 0 0.000311383)
(0.000655317 0 0.000341761)
(0.000655256 0 0.000344199)
(0.000651871 0 0.000334828)
(0.000666916 0 0.000275513)
(0.000669014 0 0.000234878)
(0.000668302 0 0.00014765)
(0.000671478 0 7.40275e-05)
(0.000668484 0 3.77302e-05)
(0.000650253 0 7.58091e-05)
(0.000629702 0 9.87847e-06)
(0.000633792 0 -2.26644e-05)
(0.000632376 0 -3.8669e-05)
(0.000607618 0 -5.58637e-05)
(0.000551803 0 -0.000133776)
(0.000538959 0 2.46984e-05)
(0.000504623 0 -4.29195e-05)
(0.000450696 0 -1.36418e-06)
(0.000426775 0 9.49842e-05)
(0.000405346 0 0.00016195)
(0.000398289 0 0.000142568)
(0.000389076 0 0.000102682)
(0.000322254 0 0.000178322)
(0.000289861 0 0.000196374)
(0.000296609 0 0.000138938)
(0.000295756 0 8.25881e-05)
(0.000290125 0 5.55963e-05)
(0.000278292 0 7.15213e-05)
(0.000251362 0 0.000104922)
(0.000204852 0 0.000159519)
(0.00017508 0 0.000198297)
(0.000149907 0 0.000224156)
(0.000139868 0 0.000208717)
(0.0001331 0 0.000142095)
(0.000109597 0 0.000127999)
(9.21503e-05 0 0.000130733)
(6.64684e-05 0 0.00014002)
(4.59069e-05 0 0.000144797)
(2.33623e-05 0 0.000148336)
(-1.10307e-08 0 0.000134546)
(-5.30937e-13 0 4.0082e-14)
(-1.05034e-12 0 -7.01388e-14)
(-1.01155e-12 0 -1.73998e-13)
(-9.50495e-13 0 -2.66414e-13)
(-8.70926e-13 0 -3.44552e-13)
(-7.77003e-13 0 -4.07104e-13)
(-6.72834e-13 0 -4.53741e-13)
(-5.62314e-13 0 -4.84801e-13)
(-4.49033e-13 0 -5.01133e-13)
(-3.36184e-13 0 -5.03982e-13)
(-2.26535e-13 0 -4.94877e-13)
(-1.22389e-13 0 -4.75538e-13)
(-2.55566e-14 0 -4.47783e-13)
(6.26354e-14 0 -4.13439e-13)
(1.41299e-13 0 -3.74259e-13)
(2.09941e-13 0 -3.31869e-13)
(2.68413e-13 0 -2.87715e-13)
(3.16846e-13 0 -2.43044e-13)
(3.55581e-13 0 -1.98883e-13)
(3.85104e-13 0 -1.56046e-13)
(4.0601e-13 0 -1.15153e-13)
(4.18969e-13 0 -7.66563e-14)
(4.24686e-13 0 -4.08584e-14)
(4.23876e-13 0 -7.93828e-15)
(4.17251e-13 0 2.20261e-14)
(4.0551e-13 0 4.90358e-14)
(3.89328e-13 0 7.31544e-14)
(3.6934e-13 0 9.44964e-14)
(3.46116e-13 0 1.13217e-13)
(3.20161e-13 0 1.29498e-13)
(2.91905e-13 0 1.43538e-13)
(2.61715e-13 0 1.55531e-13)
(2.29909e-13 0 1.65662e-13)
(1.96764e-13 0 1.74086e-13)
(1.62526e-13 0 1.80934e-13)
(1.27419e-13 0 1.863e-13)
(9.16421e-14 0 1.90251e-13)
(5.53829e-14 0 1.92832e-13)
(1.85775e-14 0 1.94072e-13)
(-2.62258e-05 0 -0.000208719)
(0.000129336 0 -0.000192331)
(0.000182207 0 -0.000186954)
(0.000192331 0 -0.00024911)
(0.000226527 0 -0.000331777)
(0.00027595 0 -0.000421748)
(0.000319715 0 -0.000473767)
(0.000356815 0 -0.000454069)
(0.000363633 0 -0.000444131)
(0.000411016 0 -0.000386587)
(0.00039957 0 -0.000370939)
(0.000437823 0 -0.000296378)
(0.000446318 0 -0.00028596)
(0.000462125 0 -0.000288022)
(0.000508369 0 -0.000261344)
(0.000543894 0 -0.0002563)
(0.000581005 0 -0.000236129)
(0.000645053 0 -0.000156958)
(0.000631843 0 -0.00027929)
(0.00070574 0 -0.000195165)
(0.000750323 0 -0.000213436)
(0.000772904 0 -0.000218638)
(0.000806783 0 -0.000163009)
(0.000807845 0 -0.000162467)
(0.000802241 0 -0.000158941)
(0.000802747 0 -0.000126009)
(0.000807676 0 -5.6731e-05)
(0.00080266 0 -3.28523e-05)
(0.000785265 0 -6.25297e-05)
(0.000780308 0 -2.4594e-05)
(0.00077343 0 -4.44744e-06)
(0.000750359 0 -3.593e-05)
(0.0007339 0 3.5831e-05)
(0.00072162 0 9.35306e-05)
(0.000707241 0 0.000108833)
(0.000692333 0 0.000145977)
(0.000685415 0 0.000170224)
(0.000683624 0 0.000157745)
(0.000657055 0 0.000207733)
(0.000654755 0 0.000193516)
(0.000635733 0 0.000224514)
(0.000607656 0 0.000269366)
(0.000596642 0 0.000298369)
(0.000591337 0 0.00031956)
(0.000603516 0 0.000312218)
(0.000634036 0 0.000262573)
(0.000639503 0 0.000241561)
(0.000662707 0 0.000129507)
(0.000671821 0 3.82944e-05)
(0.000660774 0 2.4266e-05)
(0.000638346 0 4.23104e-06)
(0.000605862 0 -3.21321e-05)
(0.000574134 0 -6.60394e-06)
(0.000548706 0 -3.30729e-06)
(0.000528718 0 -6.37626e-06)
(0.000485362 0 5.7924e-05)
(0.000420741 0 0.000125934)
(0.000405413 0 8.67786e-05)
(0.000392358 0 0.000132859)
(0.000378938 0 0.000142078)
(0.000345384 0 0.000157995)
(0.000284285 0 0.000205354)
(0.000260615 0 0.000219599)
(0.000272816 0 0.000161119)
(0.000296755 0 7.57927e-05)
(0.000279722 0 9.57923e-05)
(0.000238487 0 0.000129463)
(0.000202504 0 0.00016404)
(0.000193337 0 0.000173512)
(0.000179142 0 0.000180157)
(0.000152112 0 0.000197171)
(0.000130417 0 0.000220229)
(0.000105288 0 0.000239448)
(0.000107196 0 0.000212721)
(0.000127704 0 0.00014235)
(0.000111293 0 0.00014227)
(7.89306e-05 0 0.000159764)
(7.58982e-05 0 0.000160658)
(4.39852e-05 0 0.000166378)
(3.2009e-05 0 0.000162899)
(-1.62053e-08 0 0.000149203)
(-5.91462e-13 0 4.07882e-14)
(-1.16994e-12 0 -1.00916e-13)
(-1.1209e-12 0 -2.32062e-13)
(-1.04501e-12 0 -3.46599e-13)
(-9.48401e-13 0 -4.41761e-13)
(-8.36676e-13 0 -5.16592e-13)
(-7.14832e-13 0 -5.71148e-13)
(-5.87388e-13 0 -6.06142e-13)
(-4.58416e-13 0 -6.22825e-13)
(-3.31478e-13 0 -6.22896e-13)
(-2.09593e-13 0 -6.08385e-13)
(-9.52144e-14 0 -5.8154e-13)
(9.79747e-15 0 -5.44703e-13)
(1.04161e-13 0 -5.00199e-13)
(1.87112e-13 0 -4.50235e-13)
(2.58332e-13 0 -3.96824e-13)
(3.17891e-13 0 -3.41745e-13)
(3.66158e-13 0 -2.86507e-13)
(4.03718e-13 0 -2.32338e-13)
(4.31289e-13 0 -1.80189e-13)
(4.49675e-13 0 -1.3076e-13)
(4.59721e-13 0 -8.45349e-14)
(4.62285e-13 0 -4.18121e-14)
(4.58208e-13 0 -2.74159e-15)
(4.48297e-13 0 3.26449e-14)
(4.33326e-13 0 6.44041e-14)
(4.14028e-13 0 9.26584e-14)
(3.91081e-13 0 1.17578e-13)
(3.6509e-13 0 1.39371e-13)
(3.36577e-13 0 1.58266e-13)
(3.05979e-13 0 1.74504e-13)
(2.73655e-13 0 1.88324e-13)
(2.39904e-13 0 1.99948e-13)
(2.04973e-13 0 2.09571e-13)
(1.69077e-13 0 2.17355e-13)
(1.32406e-13 0 2.23428e-13)
(9.51325e-14 0 2.27883e-13)
(5.74228e-14 0 2.30785e-13)
(1.92395e-14 0 2.3218e-13)
(2.4707e-05 0 -0.000274716)
(8.32346e-05 0 -0.00024911)
(0.000129334 0 -0.000253059)
(0.000165946 0 -0.000288992)
(0.000211188 0 -0.000367489)
(0.000227084 0 -0.000476911)
(0.00027958 0 -0.000513528)
(0.000285419 0 -0.000505766)
(0.000304419 0 -0.000476792)
(0.000369694 0 -0.000394025)
(0.000336714 0 -0.000375694)
(0.000381484 0 -0.000301854)
(0.000391555 0 -0.000292846)
(0.000413472 0 -0.000286595)
(0.000445756 0 -0.000282439)
(0.000501381 0 -0.000247598)
(0.000473256 0 -0.000372764)
(0.000672782 0 3.18897e-05)
(0.000552157 0 -0.00040583)
(0.000576791 0 -0.000436998)
(0.000682152 0 -0.000234848)
(0.000690944 0 -0.000194029)
(0.000692695 0 -0.000193416)
(0.000711577 0 -0.000149243)
(0.000711829 0 -0.000135232)
(0.000709632 0 -0.000113409)
(0.000705669 0 -7.82908e-05)
(0.000697694 0 -2.98067e-05)
(0.00067716 0 -5.34315e-05)
(0.000672757 0 1.5513e-05)
(0.000662423 0 4.03159e-05)
(0.000632516 0 1.42905e-06)
(0.000604587 0 5.74688e-05)
(0.000598196 0 7.18905e-05)
(0.000589998 0 8.61665e-05)
(0.00058268 0 8.67916e-05)
(0.000560578 0 0.00017074)
(0.000553292 0 0.000197885)
(0.000565578 0 0.000158721)
(0.000542898 0 0.0002346)
(0.000548569 0 0.000253159)
(0.000519193 0 0.0003146)
(0.000504616 0 0.00034915)
(0.000528312 0 0.000321782)
(0.000559428 0 0.000285438)
(0.000577718 0 0.000248758)
(0.000592631 0 0.000217269)
(0.000619274 0 0.000144187)
(0.00061563 0 0.000132488)
(0.000611238 0 5.91761e-05)
(0.000599623 0 1.15816e-05)
(0.000575452 0 9.94679e-06)
(0.000541063 0 -8.58164e-07)
(0.000487743 0 4.67316e-05)
(0.00044598 0 3.01062e-05)
(0.000397214 0 8.76275e-05)
(0.000376787 0 5.95481e-05)
(0.000330594 0 0.000127207)
(0.000259172 0 0.000215803)
(0.000220067 0 0.000241276)
(0.0002305 0 0.000179841)
(0.000247618 0 0.000152541)
(0.00026424 0 0.000140125)
(0.000258679 0 0.000143737)
(0.000213043 0 0.000188568)
(0.000173648 0 0.000207532)
(0.00017414 0 0.000180186)
(0.000181059 0 0.000160018)
(0.0001688 0 0.0001646)
(0.000109203 0 0.000192504)
(0.000110054 0 0.000212129)
(7.04128e-05 0 0.000239799)
(8.59916e-05 0 0.000232886)
(0.00011281 0 0.000186375)
(9.67283e-05 0 0.000161553)
(7.53231e-05 0 0.000172142)
(6.67055e-05 0 0.00017896)
(4.90724e-05 0 0.000193702)
(4.52995e-05 0 0.000192055)
(4.27265e-05 0 0.00018408)
(-5.23521e-08 0 0.000171935)
(-6.63434e-13 0 4.26334e-14)
(-1.32319e-12 0 -1.42236e-13)
(-1.25723e-12 0 -3.0664e-13)
(-1.16019e-12 0 -4.46086e-13)
(-1.04092e-12 0 -5.5926e-13)
(-9.0639e-13 0 -6.46342e-13)
(-7.62384e-13 0 -7.08113e-13)
(-6.13992e-13 0 -7.45807e-13)
(-4.65786e-13 0 -7.61162e-13)
(-3.21744e-13 0 -7.5642e-13)
(-1.85179e-13 0 -7.34235e-13)
(-5.87069e-14 0 -6.97509e-13)
(5.57836e-14 0 -6.49239e-13)
(1.57104e-13 0 -5.92352e-13)
(2.44675e-13 0 -5.29586e-13)
(3.18431e-13 0 -4.63395e-13)
(3.7873e-13 0 -3.95908e-13)
(4.26254e-13 0 -3.28896e-13)
(4.61899e-13 0 -2.63776e-13)
(4.86681e-13 0 -2.01613e-13)
(5.01664e-13 0 -1.4316e-13)
(5.07917e-13 0 -8.8901e-14)
(5.06479e-13 0 -3.90989e-14)
(4.98333e-13 0 6.15552e-15)
(4.84397e-13 0 4.69032e-14)
(4.65524e-13 0 8.32796e-14)
(4.42503e-13 0 1.15486e-13)
(4.16052e-13 0 1.43766e-13)
(3.86804e-13 0 1.68394e-13)
(3.55295e-13 0 1.89662e-13)
(3.21963e-13 0 2.07863e-13)
(2.87159e-13 0 2.23285e-13)
(2.51155e-13 0 2.36196e-13)
(2.14171e-13 0 2.46834e-13)
(1.76384e-13 0 2.55399e-13)
(1.37946e-13 0 2.62052e-13)
(9.89989e-14 0 2.66915e-13)
(5.96799e-14 0 2.70077e-13)
(1.99725e-14 0 2.71598e-13)
(4.72087e-05 0 -0.000340292)
(7.78438e-05 0 -0.000283232)
(0.000110366 0 -0.000282213)
(0.000146812 0 -0.000316591)
(0.000188955 0 -0.000413472)
(0.000180203 0 -0.000523527)
(0.000272507 0 -0.000524724)
(0.000284982 0 -0.000507637)
(0.00029142 0 -0.000467357)
(0.00028352 0 -0.000431972)
(0.000284808 0 -0.000370731)
(0.000314938 0 -0.000332448)
(0.000326247 0 -0.000326348)
(0.000337321 0 -0.000337018)
(0.000385109 0 -0.000321559)
(0.000392644 0 -0.000357308)
(0.000525984 0 -0.000199704)
(0.000335762 0 -0.00052776)
(0.000566021 0 -0.000266216)
(0.000586826 0 -0.00021989)
(0.000567343 0 -0.000232208)
(0.000568162 0 -0.000227982)
(0.00058032 0 -0.000213363)
(0.000601378 0 -0.000158772)
(0.000590906 0 -0.000171862)
(0.000601528 0 -0.000106626)
(0.000601825 0 -5.798e-05)
(0.000589473 0 -9.92561e-06)
(0.00055516 0 -4.60732e-05)
(0.000536076 0 2.99364e-05)
(0.000524728 0 6.18504e-05)
(0.000508407 0 5.54306e-05)
(0.000475458 0 0.000106746)
(0.000468768 0 0.000126703)
(0.000466579 0 0.000132299)
(0.000451386 0 0.000148627)
(0.000447932 0 0.000158867)
(0.000451459 0 0.000185183)
(0.00047167 0 0.000184138)
(0.000488659 0 0.000204398)
(0.000428776 0 0.000333192)
(0.00045776 0 0.000301695)
(0.000449593 0 0.000329382)
(0.000483704 0 0.000277147)
(0.00049354 0 0.000271428)
(0.000526732 0 0.000222429)
(0.000568474 0 0.000129861)
(0.000576217 0 8.21327e-05)
(0.000564425 0 1.40637e-05)
(0.000528934 0 7.58894e-05)
(0.000492877 0 0.000112552)
(0.000482788 0 3.56804e-05)
(0.000467757 0 1.95153e-05)
(0.00044546 0 6.37108e-06)
(0.00040324 0 3.70799e-05)
(0.000340131 0 6.8975e-05)
(0.000247563 0 0.00018091)
(0.000254378 0 0.000163869)
(0.000237497 0 0.000170706)
(0.000250635 0 0.000129896)
(0.000240555 0 0.000137297)
(0.000202041 0 0.000189645)
(0.000161976 0 0.00022174)
(0.00014331 0 0.000231052)
(0.000148284 0 0.000215175)
(0.000170676 0 0.000169575)
(0.000142656 0 0.000161879)
(8.74762e-05 0 0.000183557)
(6.06112e-05 0 0.000200086)
(6.26808e-05 0 0.000210859)
(2.20128e-05 0 0.00023604)
(4.51918e-05 0 0.000232579)
(3.1068e-05 0 0.000207291)
(4.1282e-05 0 0.000178192)
(5.38153e-05 0 0.000175573)