/*--------------------------------*- C++ -*----------------------------------*\
  =========                 |
  \\      /  F ield         | OpenFOAM: The Open Source CFD Toolbox
   \\    /   O peration     | Website:  https://openfoam.org
    \\  /    A nd           | Version:  6
     \\/     M anipulation  |
\*---------------------------------------------------------------------------*/
FoamFile
{
    version     2.0;
    format      ascii;
    class       volScalarField;
    location    "5000";
    object      T;
}
// * * * * * * * * * * * * * * * * * * * * * * * * * * * * * * * * * * * * * //

dimensions      [0 0 0 1 0 0 0];

internalField   nonuniform List<scalar> 
4800
(
552.524
552.472
552.421
552.37
552.321
552.272
552.225
552.179
552.134
552.091
552.049
552.008
551.968
551.929
551.892
551.856
551.821
551.786
551.753
551.721
551.689
551.657
551.627
551.597
551.567
551.538
551.51
551.483
551.456
551.43
551.404
551.378
551.353
551.328
551.303
551.277
551.251
551.225
551.197
551.169
551.138
551.107
551.073
551.036
550.997
550.955
550.91
550.86
550.806
550.746
550.681
550.609
550.53
550.444
550.349
550.246
550.135
550.017
549.893
549.764
549.63
549.49
549.346
549.196
549.041
548.881
548.715
548.542
548.363
548.177
547.984
547.783
547.577
547.364
547.148
546.929
546.709
546.491
546.277
546.069
545.866
545.667
545.475
545.29
545.112
544.942
544.779
544.622
544.47
544.323
544.179
544.039
543.902
543.767
543.634
543.503
543.374
543.246
543.12
542.994
542.87
542.746
542.624
542.502
542.381
542.26
542.14
542.02
541.901
541.782
541.664
541.546
541.428
541.311
541.193
541.076
540.959
540.842
540.725
540.608
552.524
552.473
552.422
552.371
552.321
552.273
552.226
552.18
552.135
552.092
552.05
552.009
551.969
551.93
551.893
551.856
551.821
551.787
551.753
551.72
551.688
551.657
551.627
551.597
551.567
551.538
551.51
551.483
551.456
551.43
551.404
551.379
551.354
551.329
551.304
551.278
551.253
551.226
551.199
551.17
551.14
551.108
551.074
551.038
550.998
550.956
550.91
550.861
550.806
550.746
550.681
550.609
550.531
550.445
550.352
550.25
550.141
550.023
549.9
549.77
549.635
549.495
549.351
549.201
549.047
548.887
548.721
548.549
548.37
548.184
547.992
547.793
547.587
547.376
547.16
546.941
546.722
546.505
546.29
546.078
545.869
545.667
545.474
545.288
545.11
544.94
544.777
544.619
544.468
544.321
544.177
544.037
543.9
543.766
543.633
543.502
543.373
543.245
543.119
542.993
542.869
542.746
542.623
542.501
542.38
542.259
542.139
542.02
541.901
541.782
541.664
541.546
541.428
541.31
541.193
541.076
540.959
540.842
540.725
540.608
552.524
552.473
552.423
552.372
552.323
552.275
552.228
552.182
552.137
552.094
552.051
552.01
551.97
551.931
551.894
551.857
551.821
551.787
551.753
551.72
551.688
551.657
551.626
551.596
551.567
551.538
551.51
551.483
551.456
551.43
551.405
551.38
551.355
551.331
551.306
551.281
551.256
551.229
551.202
551.173
551.143
551.111
551.077
551.04
551.001
550.958
550.912
550.862
550.807
550.747
550.682
550.61
550.532
550.447
550.355
550.255
550.147
550.031
549.908
549.779
549.644
549.504
549.36
549.211
549.057
548.897
548.732
548.561
548.383
548.198
548.006
547.808
547.603
547.393
547.177
546.959
546.739
546.519
546.3
546.083
545.871
545.666
545.47
545.283
545.105
544.935
544.772
544.615
544.464
544.317
544.174
544.034
543.897
543.763
543.631
543.5
543.371
543.243
543.117
542.992
542.868
542.744
542.622
542.5
542.379
542.258
542.138
542.019
541.9
541.781
541.663
541.545
541.427
541.31
541.193
541.076
540.959
540.842
540.725
540.608
552.525
552.474
552.424
552.374
552.325
552.277
552.23
552.184
552.139
552.096
552.053
552.012
551.971
551.932
551.894
551.857
551.821
551.786
551.752
551.719
551.687
551.655
551.625
551.595
551.566
551.537
551.51
551.483
551.457
551.432
551.407
551.382
551.358
551.334
551.31
551.286
551.261
551.235
551.207
551.179
551.148
551.116
551.082
551.045
551.005
550.962
550.915
550.865
550.809
550.749
550.683
550.612
550.534
550.449
550.358
550.259
550.153
550.039
549.917
549.789
549.655
549.516
549.372
549.223
549.07
548.911
548.747
548.577
548.4
548.216
548.026
547.828
547.623
547.413
547.197
546.977
546.755
546.532
546.309
546.088
545.872
545.663
545.465
545.277
545.098
544.928
544.765
544.609
544.458
544.311
544.169
544.03
543.893
543.759
543.627
543.497
543.368
543.24
543.114
542.989
542.865
542.742
542.62
542.498
542.377
542.257
542.137
542.018
541.899
541.78
541.662
541.544
541.427
541.309
541.192
541.075
540.958
540.842
540.725
540.608
552.525
552.475
552.426
552.377
552.328
552.28
552.233
552.186
552.141
552.097
552.054
552.012
551.971
551.932
551.893
551.856
551.82
551.784
551.75
551.717
551.685
551.653
551.623
551.593
551.564
551.536
551.509
551.483
551.458
551.434
551.41
551.386
551.363
551.34
551.316
551.293
551.268
551.243
551.216
551.187
551.157
551.124
551.09
551.052
551.012
550.968
550.921
550.869
550.813
550.752
550.686
550.615
550.537
550.452
550.361
550.263
550.158
550.046
549.927
549.8
549.667
549.529
549.385
549.238
549.085
548.928
548.765
548.596
548.42
548.237
548.047
547.85
547.645
547.434
547.217
546.995
546.769
546.543
546.316
546.091
545.87
545.658
545.458
545.269
545.09
544.92
544.757
544.601
544.451
544.305
544.163
544.024
543.888
543.754
543.622
543.492
543.364
543.236
543.111
542.986
542.862
542.739
542.617
542.496
542.375
542.255
542.135
542.016
541.897
541.779
541.661
541.543
541.426
541.309
541.192
541.075
540.958
540.841
540.725
540.608
552.525
552.476
552.427
552.378
552.33
552.282
552.234
552.188
552.142
552.097
552.054
552.011
551.97
551.93
551.891
551.853
551.817
551.781
551.747
551.713
551.681
551.65
551.62
551.591
551.562
551.535
551.509
551.484
551.46
551.437
551.414
551.392
551.37
551.348
551.325
551.302
551.279
551.254
551.227
551.199
551.168
551.136
551.1
551.062
551.021
550.977
550.929
550.876
550.819
550.758
550.691
550.619
550.541
550.456
550.366
550.269
550.165
550.054
549.936
549.811
549.68
549.543
549.401
549.254
549.103
548.946
548.784
548.616
548.441
548.259
548.069
547.872
547.667
547.454
547.235
547.01
546.781
546.55
546.319
546.09
545.866
545.652
545.45
545.26
545.081
544.91
544.748
544.592
544.442
544.297
544.155
544.017
543.881
543.748
543.616
543.487
543.358
543.232
543.106
542.982
542.858
542.735
542.614
542.492
542.372
542.252
542.133
542.014
541.895
541.777
541.659
541.542
541.425
541.308
541.191
541.074
540.957
540.841
540.725
540.608
552.526
552.477
552.428
552.379
552.33
552.282
552.234
552.187
552.141
552.096
552.051
552.008
551.967
551.926
551.887
551.849
551.812
551.776
551.742
551.709
551.677
551.646
551.616
551.588
551.561
551.535
551.51
551.486
551.463
551.441
551.42
551.399
551.379
551.358
551.338
551.316
551.293
551.269
551.242
551.214
551.183
551.15
551.114
551.076
551.034
550.988
550.939
550.885
550.827
550.765
550.697
550.624
550.546
550.462
550.371
550.275
550.172
550.062
549.946
549.823
549.694
549.558
549.417
549.272
549.122
548.966
548.805
548.637
548.462
548.28
548.09
547.893
547.687
547.474
547.252
547.024
546.79
546.553
546.316
546.084
545.859
545.644
545.442
545.251
545.071
544.901
544.738
544.583
544.433
544.288
544.147
544.009
543.873
543.74
543.609
543.48
543.352
543.226
543.101
542.976
542.853
542.731
542.61
542.489
542.369
542.249
542.13
542.011
541.893
541.775
541.658
541.54
541.423
541.306
541.19
541.073
540.957
540.841
540.724
540.608
552.525
552.476
552.427
552.378
552.329
552.28
552.232
552.184
552.138
552.092
552.047
552.003
551.961
551.92
551.881
551.842
551.805
551.77
551.735
551.703
551.671
551.641
551.612
551.585
551.559
551.534
551.511
551.489
551.468
551.448
551.429
551.41
551.392
551.373
551.354
551.334
551.312
551.288
551.261
551.233
551.202
551.168
551.131
551.092
551.048
551.002
550.951
550.897
550.838
550.774
550.705
550.632
550.553
550.468
550.378
550.282
550.18
550.072
549.957
549.836
549.709
549.575
549.436
549.292
549.143
548.988
548.827
548.659
548.484
548.301
548.111
547.913
547.706
547.491
547.267
547.036
546.799
546.56
546.321
546.085
545.855
545.637
545.434
545.243
545.063
544.892
544.729
544.573
544.423
544.278
544.137
544
543.865
543.732
543.601
543.472
543.345
543.219
543.094
542.971
542.848
542.726
542.605
542.485
542.365
542.245
542.127
542.008
541.89
541.773
541.655
541.538
541.422
541.305
541.189
541.072
540.956
540.84
540.724
540.608
552.525
552.475
552.425
552.375
552.326
552.277
552.228
552.18
552.132
552.086
552.04
551.996
551.953
551.912
551.872
551.834
551.797
551.761
551.728
551.696
551.665
551.636
551.609
551.583
551.558
551.535
551.514
551.494
551.475
551.458
551.441
551.425
551.409
551.392
551.374
551.355
551.334
551.311
551.285
551.256
551.224
551.189
551.152
551.111
551.066
551.018
550.966
550.91
550.85
550.785
550.716
550.641
550.562
550.477
550.387
550.291
550.19
550.083
549.97
549.851
549.726
549.594
549.457
549.314
549.166
549.011
548.85
548.681
548.505
548.322
548.131
547.932
547.724
547.507
547.281
547.047
546.807
546.563
546.318
546.077
545.846
545.627
545.427
545.236
545.055
544.883
544.72
544.563
544.413
544.268
544.127
543.989
543.855
543.722
543.592
543.464
543.337
543.211
543.087
542.964
542.842
542.72
542.6
542.48
542.36
542.241
542.123
542.005
541.887
541.77
541.653
541.536
541.42
541.304
541.187
541.071
540.955
540.839
540.724
540.608
552.524
552.473
552.422
552.371
552.321
552.271
552.221
552.173
552.125
552.078
552.032
551.987
551.944
551.902
551.862
551.823
551.787
551.752
551.719
551.688
551.659
551.631
551.606
551.582
551.559
551.538
551.519
551.502
551.486
551.471
551.457
551.444
551.43
551.415
551.399
551.382
551.361
551.338
551.312
551.283
551.25
551.214
551.175
551.133
551.087
551.037
550.984
550.926
550.864
550.798
550.727
550.652
550.572
550.487
550.398
550.303
550.202
550.096
549.985
549.868
549.744
549.615
549.48
549.339
549.191
549.037
548.875
548.705
548.528
548.343
548.151
547.951
547.742
547.523
547.296
547.06
546.817
546.568
546.319
546.076
545.845
545.629
545.426
545.232
545.049
544.875
544.71
544.553
544.402
544.257
544.116
543.978
543.844
543.712
543.582
543.454
543.328
543.203
543.079
542.957
542.835
542.714
542.594
542.474
542.355
542.237
542.119
542.001
541.884
541.767
541.651
541.534
541.418
541.302
541.186
541.07
540.954
540.839
540.723
540.608
552.524
552.471
552.418
552.366
552.315
552.264
552.213
552.164
552.115
552.067
552.021
551.976
551.932
551.89
551.85
551.812
551.776
551.742
551.711
551.681
551.654
551.628
551.604
551.582
551.562
551.543
551.527
551.513
551.5
551.489
551.478
551.468
551.456
551.444
551.429
551.413
551.394
551.371
551.344
551.314
551.281
551.244
551.203
551.16
551.112
551.06
551.005
550.945
550.881
550.814
550.742
550.666
550.585
550.5
550.411
550.316
550.217
550.112
550.002
549.886
549.765
549.638
549.505
549.366
549.219
549.064
548.901
548.73
548.553
548.368
548.175
547.973
547.763
547.543
547.315
547.077
546.832
546.581
546.33
546.086
545.854
545.636
545.428
545.23
545.044
544.867
544.701
544.542
544.39
544.244
544.103
543.966
543.832
543.7
543.571
543.444
543.318
543.194
543.07
542.948
542.827
542.707
542.587
542.468
542.35
542.232
542.115
541.997
541.881
541.764
541.648
541.532
541.416
541.3
541.184
541.069
540.954
540.838
540.723
540.608
552.523
552.468
552.414
552.36
552.307
552.255
552.204
552.153
552.104
552.055
552.008
551.963
551.919
551.877
551.837
551.8
551.765
551.733
551.703
551.676
551.65
551.627
551.605
551.585
551.568
551.552
551.539
551.528
551.519
551.512
551.504
551.497
551.488
551.477
551.465
551.45
551.432
551.409
551.382
551.352
551.317
551.279
551.237
551.191
551.141
551.088
551.03
550.968
550.902
550.833
550.759
550.682
550.601
550.516
550.426
550.332
550.234
550.13
550.021
549.908
549.789
549.664
549.532
549.394
549.248
549.093
548.93
548.76
548.582
548.397
548.203
548.001
547.789
547.568
547.338
547.099
546.853
546.602
546.352
546.108
545.873
545.648
545.432
545.228
545.037
544.858
544.689
544.529
544.377
544.23
544.089
543.952
543.818
543.687
543.558
543.432
543.307
543.183
543.061
542.939
542.819
542.699
542.58
542.462
542.344
542.227
542.11
541.993
541.877
541.761
541.645
541.529
541.414
541.298
541.183
541.068
540.953
540.838
540.722
540.607
552.522
552.465
552.409
552.354
552.3
552.246
552.193
552.142
552.091
552.042
551.994
551.949
551.905
551.863
551.825
551.789
551.756
551.726
551.698
551.673
551.65
551.628
551.609
551.592
551.577
551.565
551.555
551.548
551.543
551.539
551.536
551.531
551.525
551.517
551.507
551.493
551.476
551.454
551.427
551.395
551.359
551.32
551.276
551.228
551.176
551.12
551.06
550.995
550.927
550.856
550.781
550.703
550.621
550.535
550.446
550.352
550.254
550.151
550.044
549.931
549.814
549.691
549.562
549.425
549.28
549.127
548.965
548.795
548.618
548.433
548.238
548.035
547.822
547.599
547.368
547.128
546.882
546.632
546.381
546.133
545.891
545.657
545.433
545.224
545.028
544.846
544.675
544.514
544.36
544.214
544.073
543.936
543.803
543.673
543.545
543.419
543.295
543.172
543.05
542.93
542.81
542.691
542.573
542.455
542.338
542.221
542.105
541.989
541.873
541.757
541.642
541.526
541.411
541.296
541.181
541.066
540.952
540.837
540.722
540.607
552.521
552.462
552.404
552.347
552.291
552.236
552.182
552.129
552.078
552.028
551.98
551.934
551.891
551.851
551.814
551.78
551.749
551.721
551.696
551.673
551.653
551.634
551.618
551.603
551.592
551.583
551.577
551.574
551.573
551.573
551.572
551.571
551.568
551.563
551.555
551.543
551.526
551.505
551.478
551.446
551.409
551.367
551.322
551.272
551.217
551.158
551.095
551.028
550.958
550.885
550.808
550.728
550.645
550.559
550.469
550.375
550.277
550.175
550.069
549.958
549.842
549.721
549.593
549.458
549.316
549.164
549.004
548.836
548.66
548.475
548.28
548.075
547.861
547.637
547.404
547.163
546.915
546.663
546.409
546.156
545.906
545.662
545.43
545.214
545.014
544.828
544.656
544.494
544.341
544.195
544.054
543.918
543.786
543.656
543.529
543.405
543.281
543.16
543.039
542.919
542.801
542.682
542.565
542.448
542.331
542.215
542.099
541.984
541.868
541.753
541.638
541.523
541.409
541.294
541.179
541.065
540.95
540.836
540.722
540.607
552.52
552.459
552.4
552.341
552.283
552.226
552.171
552.117
552.065
552.015
551.967
551.921
551.879
551.84
551.805
551.774
551.746
551.721
551.699
551.679
551.661
551.645
551.632
551.62
551.612
551.606
551.604
551.605
551.608
551.611
551.615
551.617
551.617
551.615
551.609
551.598
551.583
551.562
551.535
551.502
551.464
551.421
551.374
551.321
551.264
551.203
551.137
551.067
550.994
550.918
550.839
550.758
550.673
550.586
550.495
550.401
550.303
550.202
550.097
549.987
549.873
549.753
549.627
549.495
549.354
549.204
549.046
548.88
548.706
548.521
548.326
548.12
547.904
547.679
547.444
547.201
546.951
546.695
546.436
546.175
545.916
545.661
545.417
545.194
544.99
544.803
544.631
544.469
544.317
544.172
544.032
543.898
543.767
543.638
543.513
543.389
543.267
543.146
543.027
542.908
542.79
542.673
542.557
542.44
542.325
542.209
542.094
541.979
541.864
541.749
541.635
541.52
541.406
541.292
541.178
541.063
540.949
540.835
540.721
540.607
552.519
552.457
552.395
552.335
552.275
552.217
552.16
552.106
552.053
552.003
551.956
551.912
551.871
551.834
551.802
551.773
551.748
551.727
551.708
551.692
551.677
551.664
551.653
551.644
551.638
551.636
551.637
551.642
551.648
551.656
551.663
551.668
551.672
551.672
551.669
551.66
551.646
551.625
551.598
551.565
551.526
551.481
551.431
551.377
551.317
551.252
551.183
551.11
551.034
550.956
550.874
550.791
550.705
550.616
550.525
550.43
550.332
550.231
550.127
550.018
549.906
549.787
549.663
549.533
549.394
549.246
549.091
548.927
548.754
548.57
548.374
548.168
547.951
547.724
547.487
547.24
546.986
546.724
546.457
546.187
545.915
545.646
545.391
545.161
544.955
544.769
544.598
544.438
544.288
544.145
544.007
543.875
543.745
543.619
543.495
543.372
543.252
543.132
543.014
542.897
542.78
542.664
542.548
542.432
542.317
542.203
542.088
541.974
541.859
541.745
541.631
541.517
541.403
541.289
541.176
541.062
540.948
540.834
540.721
540.607
552.518
552.455
552.392
552.33
552.269
552.21
552.152
552.097
552.045
551.996
551.95
551.907
551.869
551.835
551.805
551.78
551.759
551.742
551.727
551.714
551.703
551.692
551.683
551.676
551.673
551.673
551.677
551.685
551.695
551.706
551.716
551.725
551.732
551.735
551.734
551.727
551.714
551.694
551.667
551.633
551.592
551.546
551.494
551.436
551.374
551.306
551.233
551.157
551.078
550.996
550.912
550.826
550.738
550.648
550.556
550.461
550.364
550.263
550.159
550.052
549.94
549.823
549.7
549.571
549.434
549.289
549.136
548.974
548.803
548.62
548.424
548.217
547.998
547.768
547.527
547.276
547.017
546.748
546.471
546.187
545.9
545.614
545.343
545.108
544.904
544.722
544.555
544.4
544.254
544.114
543.979
543.849
543.722
543.597
543.475
543.354
543.235
543.117
543
542.884
542.769
542.653
542.539
542.424
542.31
542.196
542.082
541.968
541.855
541.741
541.628
541.514
541.401
541.287
541.174
541.06
540.947
540.833
540.72
540.607
552.518
552.454
552.39
552.327
552.266
552.206
552.149
552.095
552.043
551.995
551.951
551.911
551.874
551.843
551.817
551.796
551.78
551.768
551.758
551.749
551.74
551.731
551.723
551.718
551.717
551.719
551.725
551.735
551.748
551.762
551.776
551.788
551.797
551.803
551.804
551.798
551.786
551.766
551.739
551.704
551.662
551.613
551.558
551.498
551.432
551.361
551.285
551.205
551.123
551.038
550.951
550.863
550.773
550.682
550.589
550.493
550.396
550.296
550.192
550.086
549.974
549.858
549.737
549.608
549.472
549.328
549.177
549.017
548.846
548.663
548.468
548.259
548.038
547.804
547.56
547.305
547.039
546.762
546.475
546.176
545.868
545.557
545.263
545.028
544.833
544.661
544.504
544.356
544.214
544.079
543.948
543.82
543.696
543.574
543.454
543.335
543.218
543.102
542.986
542.871
542.757
542.643
542.529
542.416
542.302
542.189
542.076
541.963
541.85
541.737
541.624
541.511
541.398
541.285
541.172
541.059
540.946
540.833
540.72
540.607
552.518
552.454
552.391
552.329
552.268
552.21
552.154
552.1
552.051
552.004
551.962
551.924
551.891
551.863
551.841
551.825
551.814
551.807
551.802
551.797
551.791
551.784
551.777
551.772
551.771
551.774
551.782
551.794
551.809
551.825
551.841
551.856
551.868
551.876
551.878
551.873
551.861
551.841
551.813
551.776
551.732
551.681
551.623
551.559
551.489
551.415
551.335
551.252
551.166
551.078
550.989
550.899
550.807
550.715
550.621
550.526
550.428
550.328
550.225
550.118
550.007
549.891
549.768
549.639
549.503
549.359
549.207
549.046
548.875
548.691
548.494
548.283
548.058
547.821
547.572
547.312
547.041
546.758
546.461
546.144
545.808
545.46
545.125
544.907
544.739
544.587
544.443
544.305
544.171
544.04
543.914
543.79
543.669
543.549
543.432
543.315
543.2
543.085
542.972
542.858
542.745
542.632
542.52
542.407
542.295
542.182
542.07
541.958
541.845
541.733
541.62
541.508
541.395
541.282
541.17
541.057
540.944
540.832
540.719
540.606
552.519
552.458
552.397
552.337
552.279
552.222
552.168
552.118
552.07
552.027
551.987
551.952
551.922
551.897
551.879
551.868
551.863
551.862
551.862
551.861
551.858
551.852
551.845
551.839
551.838
551.842
551.85
551.863
551.879
551.896
551.913
551.93
551.944
551.953
551.955
551.951
551.938
551.917
551.887
551.848
551.801
551.746
551.684
551.616
551.543
551.464
551.381
551.294
551.205
551.115
551.024
550.932
550.839
550.746
550.652
550.556
550.458
550.358
550.255
550.147
550.035
549.916
549.792
549.66
549.52
549.372
549.216
549.05
548.875
548.688
548.487
548.271
548.04
547.797
547.544
547.281
547.008
546.722
546.421
546.095
545.734
545.322
544.831
544.74
544.628
544.505
544.378
544.25
544.123
543.999
543.877
543.757
543.639
543.523
543.408
543.294
543.181
543.069
542.957
542.845
542.733
542.622
542.51
542.399
542.287
542.175
542.064
541.952
541.84
541.728
541.616
541.504
541.392
541.28
541.168
541.056
540.943
540.831
540.719
540.606
552.522
552.465
552.408
552.353
552.298
552.246
552.196
552.149
552.106
552.065
552.029
551.997
551.97
551.95
551.937
551.93
551.931
551.936
551.941
551.944
551.943
551.938
551.931
551.924
551.921
551.924
551.932
551.944
551.959
551.977
551.995
552.013
552.027
552.035
552.037
552.031
552.018
551.995
551.962
551.919
551.867
551.808
551.741
551.667
551.589
551.505
551.418
551.328
551.237
551.144
551.052
550.959
550.865
550.772
550.677
550.582
550.484
550.383
550.278
550.169
550.053
549.931
549.8
549.661
549.513
549.356
549.189
549.012
548.828
548.633
548.425
548.2
547.961
547.71
547.451
547.185
546.912
546.628
546.332
546.01
545.647
545.208
544.61
544.592
544.525
544.425
544.312
544.193
544.074
543.955
543.838
543.723
543.609
543.496
543.384
543.273
543.162
543.052
542.941
542.831
542.721
542.611
542.5
542.39
542.279
542.169
542.058
541.947
541.836
541.724
541.613
541.501
541.39
541.278
541.166
541.054
540.942
540.83
540.718
540.606
552.525
552.476
552.426
552.378
552.33
552.284
552.24
552.198
552.159
552.123
552.091
552.063
552.041
552.025
552.016
552.014
552.02
552.03
552.04
552.047
552.049
552.045
552.038
552.029
552.024
552.024
552.03
552.041
552.054
552.07
552.089
552.107
552.119
552.124
552.124
552.117
552.101
552.074
552.037
551.989
551.931
551.864
551.79
551.71
551.625
551.536
551.445
551.352
551.258
551.164
551.07
550.977
550.884
550.791
550.697
550.601
550.502
550.4
550.292
550.178
550.057
549.928
549.788
549.636
549.472
549.295
549.108
548.911
548.709
548.5
548.279
548.043
547.789
547.525
547.258
546.993
546.72
546.443
546.171
545.873
545.553
545.163
544.822
544.459
544.451
544.357
544.249
544.136
544.023
543.91
543.798
543.688
543.578
543.469
543.36
543.251
543.143
543.035
542.926
542.818
542.709
542.6
542.491
542.382
542.272
542.162
542.052
541.942
541.831
541.72
541.609
541.498
541.387
541.276
541.164
541.053
540.941
540.829
540.718
540.606
552.53
552.491
552.452
552.413
552.375
552.337
552.301
552.267
552.234
552.205
552.178
552.156
552.139
552.128
552.124
552.126
552.134
552.149
552.164
552.175
552.181
552.179
552.171
552.161
552.151
552.147
552.15
552.157
552.168
552.183
552.201
552.217
552.225
552.224
552.22
552.209
552.19
552.16
552.116
552.061
551.994
551.918
551.835
551.746
551.653
551.558
551.462
551.365
551.269
551.173
551.079
550.986
550.894
550.802
550.709
550.613
550.513
550.407
550.294
550.173
550.044
549.905
549.75
549.579
549.388
549.177
548.95
548.718
548.488
548.26
548.021
547.764
547.492
547.214
546.935
546.68
546.395
546.113
545.877
545.581
545.366
544.945
544.88
544.668
544.432
544.3
544.187
544.078
543.971
543.864
543.757
543.652
543.546
543.441
543.335
543.23
543.124
543.018
542.911
542.804
542.697
542.59
542.482
542.373
542.265
542.156
542.046
541.937
541.827
541.716
541.606
541.495
541.385
541.274
541.162
541.051
540.94
540.829
540.717
540.606
552.537
552.512
552.486
552.46
552.434
552.407
552.381
552.357
552.333
552.312
552.293
552.279
552.27
552.264
552.264
552.268
552.279
552.296
552.316
552.333
552.343
552.346
552.339
552.326
552.309
552.298
552.296
552.299
552.306
552.32
552.338
552.352
552.353
552.342
552.33
552.316
552.293
552.257
552.205
552.14
552.063
551.976
551.881
551.782
551.681
551.579
551.478
551.377
551.278
551.18
551.085
550.992
550.902
550.812
550.72
550.623
550.518
550.405
550.283
550.15
550.01
549.862
549.69
549.49
549.261
549
548.709
548.411
548.132
547.878
547.605
547.307
547.007
546.699
546.376
546.169
545.854
545.615
545.333
545.073
545.182
545.001
544.657
544.542
544.329
544.219
544.117
544.017
543.917
543.816
543.716
543.615
543.514
543.413
543.311
543.208
543.105
543.001
542.897
542.792
542.686
542.58
542.473
542.366
542.258
542.15
542.041
541.932
541.822
541.713
541.603
541.493
541.382
541.272
541.161
541.05
540.939
540.828
540.717
540.606
552.546
552.538
552.529
552.519
552.507
552.494
552.48
552.468
552.456
552.445
552.438
552.436
552.436
552.439
552.441
552.447
552.459
552.478
552.502
552.526
552.544
552.553
552.55
552.534
552.508
552.487
552.478
552.477
552.481
552.493
552.511
552.521
552.513
552.488
552.465
552.447
552.42
552.378
552.317
552.241
552.153
552.055
551.948
551.837
551.727
551.619
551.513
551.407
551.304
551.203
551.105
551.01
550.922
550.84
550.748
550.646
550.531
550.404
550.264
550.113
549.958
549.812
549.619
549.378
549.095
548.78
548.401
548.025
547.659
547.321
546.988
546.687
546.401
546.127
545.805
545.661
545.404
545.408
545.242
545.083
545.001
544.94
544.886
544.274
544.201
544.128
544.043
543.954
543.862
543.769
543.675
543.579
543.483
543.385
543.287
543.187
543.087
542.985
542.883
542.779
542.675
542.57
542.465
542.358
542.251
542.144
542.036
541.927
541.819
541.709
541.6
541.49
541.38
541.27
541.159
541.049
540.938
540.827
540.716
540.605
552.557
552.569
552.579
552.587
552.591
552.593
552.594
552.595
552.598
552.603
552.611
552.624
552.64
552.653
552.659
552.664
552.676
552.699
552.729
552.761
552.788
552.806
552.811
552.793
552.755
552.722
552.707
552.703
552.707
552.718
552.735
552.738
552.719
552.678
552.642
552.619
552.589
552.54
552.469
552.383
552.286
552.178
552.061
551.942
551.826
551.714
551.605
551.494
551.392
551.287
551.181
551.079
550.992
550.927
550.835
550.72
550.582
550.428
550.257
550.068
549.875
549.666
549.441
549.11
548.742
548.285
547.827
547.448
547.125
546.745
546.534
546.292
546.148
545.981
545.843
545.673
545.505
545.402
545.242
545.082
544.922
544.806
544.734
544.136
544.109
544.045
543.971
543.891
543.808
543.722
543.634
543.544
543.452
543.359
543.264
543.167
543.069
542.97
542.87
542.768
542.665
542.561
542.457
542.352
542.245
542.139
542.031
541.923
541.815
541.706
541.597
541.488
541.378
541.268
541.158
541.048
540.937
540.827
540.716
540.605
552.569
552.604
552.635
552.661
552.682
552.699
552.714
552.731
552.75
552.773
552.802
552.837
552.874
552.903
552.915
552.92
552.933
552.96
553
553.043
553.081
553.112
553.125
553.106
553.06
553.015
552.996
552.995
553.002
553.013
553.026
553.022
552.992
552.937
552.89
552.865
552.83
552.775
552.694
552.599
552.497
552.386
552.27
552.151
552.038
551.927
551.822
551.711
551.629
551.52
551.4
551.268
551.151
551.042
550.924
550.794
550.634
550.455
550.254
550.014
549.77
549.519
549.188
548.79
548.289
547.837
547.535
547.223
547.098
546.765
546.567
546.35
546.225
546.083
545.946
545.763
545.58
545.399
545.223
545.062
544.892
544.779
544.671
544.045
544.033
543.968
543.902
543.83
543.755
543.676
543.595
543.51
543.423
543.334
543.242
543.149
543.054
542.956
542.858
542.758
542.656
542.554
542.45
542.345
542.24
542.134
542.027
541.92
541.812
541.704
541.595
541.486
541.376
541.267
541.157
541.047
540.936
540.826
540.716
540.605
552.581
552.641
552.692
552.734
552.768
552.797
552.826
552.858
552.896
552.94
552.994
553.058
553.124
553.175
553.2
553.21
553.229
553.265
553.316
553.37
553.422
553.466
553.487
553.47
553.423
553.374
553.362
553.369
553.384
553.399
553.411
553.403
553.366
553.306
553.261
553.243
553.203
553.14
553.05
552.952
552.848
552.745
552.657
552.551
552.451
552.354
552.242
552.119
551.998
551.853
551.73
551.569
551.414
551.26
551.09
550.947
550.763
550.541
550.228
549.85
549.446
549.263
548.9
548.651
548.199
547.886
547.637
547.373
547.181
546.919
546.703
546.51
546.345
546.181
546.007
545.824
545.632
545.436
545.254
545.085
544.915
544.751
544.371
543.987
543.939
543.898
543.836
543.771
543.704
543.633
543.558
543.479
543.396
543.311
543.223
543.132
543.039
542.944
542.847
542.749
542.648
542.547
542.444
542.34
542.236
542.13
542.024
541.917
541.809
541.701
541.593
541.484
541.375
541.265
541.156
541.046
540.936
540.826
540.715
540.605
552.596
552.679
552.745
552.795
552.834
552.868
552.906
552.953
553.01
553.079
553.163
553.262
553.365
553.447
553.497
553.527
553.562
553.61
553.673
553.738
553.8
553.854
553.882
553.872
553.834
553.805
553.819
553.844
553.876
553.903
553.932
553.935
553.905
553.855
553.837
553.853
553.814
553.755
553.658
553.576
553.454
553.326
553.171
553.023
552.855
552.724
552.651
552.561
552.441
552.302
552.148
551.951
551.823
551.616
551.321
551.121
550.674
550.425
550.082
549.751
549.406
549.222
548.895
548.646
548.332
548.041
547.796
547.542
547.314
547.087
546.878
546.684
546.494
546.304
546.102
545.894
545.685
545.481
545.299
545.123
544.912
544.565
544.252
544
543.889
543.829
543.772
543.713
543.657
543.594
543.524
543.45
543.372
543.291
543.206
543.118
543.027
542.934
542.839
542.741
542.642
542.541
542.439
542.336
542.232
542.127
542.021
541.914
541.807
541.699
541.591
541.483
541.374
541.264
541.155
541.045
540.935
540.825
540.715
540.605
552.619
552.728
552.793
552.832
552.86
552.887
552.929
552.99
553.066
553.161
553.278
553.418
553.568
553.699
553.793
553.868
553.929
553.993
554.065
554.136
554.204
554.26
554.289
554.294
554.277
554.29
554.374
554.428
554.493
554.544
554.642
554.717
554.712
554.664
554.6
554.587
554.56
554.523
554.423
554.34
554.282
554.131
553.774
553.5
553.27
553.118
553.024
553.005
552.588
552.31
552.08
551.85
551.679
551.452
551.11
550.9
550.57
550.314
550.025
549.746
549.444
549.18
548.882
548.617
548.372
548.134
547.906
547.674
547.451
547.234
547.022
546.81
546.598
546.384
546.166
545.948
545.736
545.526
545.319
545.093
544.867
544.65
544.388
544.012
543.861
543.756
543.702
543.665
543.617
543.561
543.495
543.425
543.352
543.274
543.192
543.107
543.018
542.926
542.832
542.735
542.637
542.537
542.435
542.333
542.229
542.124
542.019
541.912
541.805
541.698
541.59
541.482
541.373
541.264
541.154
541.045
540.935
540.825
540.715
540.605
552.678
552.821
552.844
552.828
552.82
552.821
552.865
552.952
553.049
553.164
553.32
553.499
553.702
553.906
554.071
554.224
554.317
554.395
554.489
554.557
554.623
554.672
554.701
554.713
554.702
554.754
554.859
554.972
555.072
555.181
555.383
555.53
555.607
555.75
555.611
555.67
555.61
555.54
555.316
554.985
554.477
554.04
553.748
553.475
553.235
553.14
552.796
552.658
552.328
552.062
551.846
551.608
551.373
551.132
550.838
550.597
550.343
550.107
549.869
549.631
549.384
549.141
548.897
548.657
548.422
548.186
547.957
547.736
547.52
547.308
547.096
546.887
546.673
546.454
546.229
545.995
545.772
545.542
545.33
545.149
545.019
544.943
544.763
544.485
544.179
543.798
543.677
543.627
543.586
543.535
543.471
543.403
543.335
543.261
543.182
543.099
543.011
542.92
542.827
542.731
542.633
542.534
542.433
542.33
542.227
542.122
542.017
541.911
541.804
541.697
541.589
541.481
541.372
541.263
541.154
541.044
540.935