/*--------------------------------*- C++ -*----------------------------------*\
  =========                 |
  \\      /  F ield         | OpenFOAM: The Open Source CFD Toolbox
   \\    /   O peration     | Website:  https://openfoam.org
    \\  /    A nd           | Version:  6
     \\/     M anipulation  |
\*---------------------------------------------------------------------------*/
FoamFile
{
    version     2.0;
    format      ascii;
    class       volVectorField;
    location    "5000";
    object      U;
}
// * * * * * * * * * * * * * * * * * * * * * * * * * * * * * * * * * * * * * //

dimensions      [0 1 -1 0 0 0 0];

internalField   nonuniform List<vector> 
4800
(
(-2.40426e-06 0 2.45299e-05)
(-0.000127675 0 -2.80347e-06)
(-0.000180221 0 1.87933e-05)
(-0.000217616 0 2.70855e-05)
(-0.000259694 0 -4.00882e-06)
(-0.000288398 0 -1.89317e-05)
(-0.000306806 0 -2.31466e-05)
(-0.000316049 0 -1.93582e-05)
(-0.0002999 0 -9.38278e-06)
(-0.000276764 0 -1.63468e-05)
(-0.00027116 0 -2.19188e-05)
(-0.00026939 0 -3.67442e-05)
(-0.000220992 0 -9.5555e-05)
(-0.000177581 0 -9.42248e-05)
(-0.000173088 0 6.45525e-05)
(-0.000109618 0 -6.13252e-05)
(-9.04405e-05 0 -2.4584e-05)
(1.59389e-05 0 -0.000121601)
(0.000112021 0 -1.88176e-05)
(0.000168355 0 -7.8449e-06)
(0.00023103 0 -7.14564e-06)
(0.00028447 0 -7.87258e-05)
(0.000368669 0 -5.68157e-05)
(0.000401173 0 -7.26086e-05)
(0.000400479 0 -5.35044e-05)
(0.000419812 0 -5.96901e-05)
(0.000476616 0 -4.01874e-05)
(0.000537717 0 -1.95616e-05)
(0.000565402 0 -5.23218e-05)
(0.000602501 0 -4.60152e-05)
(0.000667997 0 -3.49958e-05)
(0.000737792 0 -5.89241e-05)
(0.000773655 0 -9.05682e-05)
(0.000806037 0 -8.95214e-05)
(0.000855545 0 -8.16643e-05)
(0.000925252 0 -4.2943e-05)
(0.000991916 0 -6.20902e-05)
(0.0010476 0 -8.72407e-05)
(0.00110603 0 -2.51093e-05)
(0.00115527 0 -2.14581e-05)
(0.00118953 0 -6.10432e-05)
(0.00124731 0 2.43683e-05)
(0.00133192 0 -4.18872e-05)
(0.00134238 0 -5.0406e-05)
(0.00134652 0 -1.46242e-05)
(0.00136842 0 -1.18065e-05)
(0.00140041 0 -2.99987e-05)
(0.00140344 0 -2.90931e-05)
(0.00139232 0 -2.51763e-05)
(0.00136722 0 -5.92066e-06)
(0.00133743 0 -4.36527e-06)
(0.00129826 0 -1.22994e-05)
(0.00123072 0 4.54907e-05)
(0.00113475 0 -4.55121e-05)
(0.00100243 0 -0.000121447)
(0.000804872 0 -1.35283e-07)
(0.000573022 0 4.13354e-05)
(0.000449085 0 -2.95388e-05)
(0.000409539 0 -5.00104e-05)
(0.000389215 0 -4.95616e-05)
(0.000372564 0 -3.83411e-05)
(0.000352714 0 -2.8786e-05)
(0.000333871 0 -2.45805e-05)
(0.000315189 0 -1.66112e-05)
(0.000296044 0 -1.29951e-05)
(0.000280597 0 -9.2918e-06)
(0.000262276 0 -2.07837e-05)
(0.000241875 0 -2.15614e-05)
(0.000229401 0 -1.3397e-05)
(0.000215835 0 -1.66943e-05)
(0.000164124 0 1.69169e-05)
(3.02304e-05 0 -2.35358e-05)
(-2.32093e-05 0 -4.89061e-06)
(-6.93308e-05 0 -3.55284e-05)
(-0.000134572 0 4.80829e-05)
(-0.000205639 0 -2.02713e-05)
(-0.000229587 0 -0.000171236)
(-0.000333013 0 -0.000172794)
(-0.000552789 0 -0.000190611)
(-0.000691056 0 -0.000263413)
(5.42998e-06 0 -6.12434e-05)
(-2.95756e-12 0 -1.80447e-13)
(-6.79511e-12 0 -1.18678e-13)
(-5.01388e-12 0 -8.79252e-14)
(-4.84205e-12 0 -8.35184e-14)
(-4.66487e-12 0 -9.31407e-14)
(-4.46124e-12 0 -1.09873e-13)
(-4.22126e-12 0 -1.29441e-13)
(-3.94209e-12 0 -1.48982e-13)
(-3.62568e-12 0 -1.66609e-13)
(-3.27706e-12 0 -1.81151e-13)
(-2.90313e-12 0 -1.91904e-13)
(-2.51187e-12 0 -1.98524e-13)
(-2.11162e-12 0 -2.0095e-13)
(-1.71062e-12 0 -1.99336e-13)
(-1.31664e-12 0 -1.93999e-13)
(-9.3674e-13 0 -1.8536e-13)
(-5.77067e-13 0 -1.73903e-13)
(-2.42754e-13 0 -1.60156e-13)
(6.2116e-14 0 -1.44655e-13)
(3.34463e-13 0 -1.27901e-13)
(5.7221e-13 0 -1.10343e-13)
(7.74289e-13 0 -9.23906e-14)
(9.40546e-13 0 -7.44382e-14)
(1.07153e-12 0 -5.68503e-14)
(1.16825e-12 0 -3.99345e-14)
(1.23211e-12 0 -2.39201e-14)
(1.26482e-12 0 -8.96091e-15)
(1.26838e-12 0 4.8478e-15)
(1.24506e-12 0 1.74516e-14)
(1.1973e-12 0 2.88257e-14)
(1.12766e-12 0 3.89678e-14)
(1.03873e-12 0 4.78913e-14)
(9.33059e-13 0 5.56175e-14)
(8.13092e-13 0 6.21696e-14)
(6.81173e-13 0 6.75683e-14)
(5.39549e-13 0 7.18296e-14)
(3.90427e-13 0 7.49588e-14)
(2.36056e-13 0 7.69273e-14)
(7.89227e-14 0 7.75752e-14)
(-2.87611e-05 0 7.40588e-05)
(5.76422e-05 0 0.000130571)
(-0.000160425 0 7.50277e-05)
(-0.000205102 0 3.93775e-05)
(-0.000249727 0 7.24416e-05)
(-0.000285453 0 5.35601e-05)
(-0.000300075 0 2.98828e-05)
(-0.000304975 0 1.48897e-05)
(-0.000285999 0 -4.60846e-05)
(-0.000245083 0 -5.81847e-05)
(-0.000222028 0 -2.42794e-05)
(-0.000205553 0 -7.00282e-06)
(-0.000188569 0 3.12966e-05)
(-0.000101802 0 -0.00013474)
(-0.00013441 0 1.9396e-06)
(-5.20459e-05 0 -8.81205e-05)
(5.42819e-06 0 -0.000123399)
(8.12352e-05 0 -0.00010932)
(0.000129288 0 -0.000129922)
(0.000199061 0 -0.000113061)
(0.000271238 0 -2.89295e-05)
(0.000304361 0 -0.000187734)
(0.000385548 0 1.96835e-05)
(0.000422448 0 5.38283e-05)
(0.000453275 0 -5.02931e-05)
(0.000483723 0 -3.87975e-05)
(0.000510739 0 -1.79534e-05)
(0.000533765 0 -3.92548e-05)
(0.000560585 0 -6.96008e-05)
(0.000595869 0 -8.1198e-05)
(0.000640945 0 -3.23581e-05)
(0.000688445 0 -2.94964e-05)
(0.00072736 0 -8.6162e-05)
(0.000773252 0 -5.44007e-05)
(0.000818527 0 -7.54361e-05)
(0.000876067 0 -6.81855e-05)
(0.000935033 0 -7.42682e-05)
(0.000999176 0 -7.69083e-05)
(0.00104324 0 -0.000142435)
(0.0010955 0 -1.75897e-05)
(0.00113097 0 -0.000131063)
(0.00117518 0 -0.000120654)
(0.00122824 0 3.91967e-05)
(0.00126834 0 -0.000152184)
(0.0013099 0 -7.6582e-05)
(0.00132154 0 -1.48788e-05)
(0.00134656 0 -1.43012e-05)
(0.00137699 0 3.83698e-05)
(0.00136897 0 5.23971e-05)
(0.00134451 0 4.66065e-05)
(0.00131935 0 4.91072e-05)
(0.00128322 0 0.000106334)
(0.00121599 0 4.69427e-05)
(0.00115351 0 8.2556e-05)
(0.00112371 0 0.000257639)
(0.00107878 0 0.000276157)
(0.000961219 0 0.000258315)
(0.000805818 0 0.000189299)
(0.000604501 0 0.000107911)
(0.000506181 0 3.9705e-05)
(0.000477665 0 3.61694e-05)
(0.000440994 0 4.33119e-05)
(0.000397442 0 5.89828e-05)
(0.000362788 0 4.87219e-05)
(0.00033097 0 3.41574e-05)
(0.000306373 0 3.2754e-05)
(0.000281526 0 5.42399e-05)
(0.000256498 0 4.37331e-05)
(0.00024182 0 2.46444e-05)
(0.000223347 0 6.64346e-05)
(0.000199341 0 8.81879e-05)
(0.000165989 0 7.962e-05)
(0.000138738 0 8.69466e-05)
(0.000143617 0 8.96046e-05)
(8.44728e-05 0 8.97996e-05)
(4.71224e-05 0 0.000119381)
(2.96625e-05 0 0.000122148)
(-3.33336e-05 0 7.09615e-05)
(0.000543908 0 4.84665e-05)
(-0.000441603 0 -0.000214308)
(6.01761e-06 0 -0.000129143)
(-2.92912e-12 0 -4.30585e-13)
(-6.70491e-12 0 -3.04868e-13)
(-4.98074e-12 0 -2.37491e-13)
(-4.84868e-12 0 -2.36572e-13)
(-4.69209e-12 0 -2.72304e-13)
(-4.49794e-12 0 -3.26717e-13)
(-4.2604e-12 0 -3.88133e-13)
(-3.97921e-12 0 -4.48548e-13)
(-3.65785e-12 0 -5.02626e-13)
(-3.30235e-12 0 -5.46985e-13)
(-2.92051e-12 0 -5.79608e-13)
(-2.52092e-12 0 -5.99554e-13)
(-2.11243e-12 0 -6.06708e-13)
(-1.70367e-12 0 -6.0159e-13)
(-1.30267e-12 0 -5.85194e-13)
(-9.16644e-13 0 -5.58831e-13)
(-5.51863e-13 0 -5.24002e-13)
(-2.13506e-13 0 -4.82299e-13)
(9.43711e-14 0 -4.35303e-13)
(3.68776e-13 0 -3.84513e-13)
(6.0772e-13 0 -3.31323e-13)
(8.10193e-13 0 -2.77048e-13)
(9.76086e-13 0 -2.22917e-13)
(1.10603e-12 0 -1.70021e-13)
(1.20118e-12 0 -1.19242e-13)
(1.26309e-12 0 -7.12271e-14)
(1.29359e-12 0 -2.64031e-14)
(1.2948e-12 0 1.49683e-14)
(1.26904e-12 0 5.27412e-14)
(1.21882e-12 0 8.68469e-14)
(1.14673e-12 0 1.17269e-13)
(1.05538e-12 0 1.44029e-13)
(9.47337e-13 0 1.67171e-13)
(8.25043e-13 0 1.8676e-13)
(6.90833e-13 0 2.02869e-13)
(5.4694e-13 0 2.15575e-13)
(3.95525e-13 0 2.24944e-13)
(2.38673e-13 0 2.31001e-13)
(7.95706e-14 0 2.33676e-13)
(-9.40941e-05 0 8.69939e-05)
(-6.42182e-05 0 0.000145544)
(-0.000127243 0 0.000138145)
(-0.000175559 0 8.66144e-05)
(-0.000197154 0 0.000103536)
(-0.000212901 0 7.74026e-05)
(-0.000194096 0 -2.30068e-05)
(-0.000174282 0 -3.10341e-05)
(-0.000163549 0 -4.30038e-05)
(-0.000146569 0 -4.81118e-05)
(-0.000108804 0 -6.4195e-05)
(-7.48813e-05 0 -8.40165e-05)
(-6.67269e-05 0 -8.99515e-05)
(-4.22914e-05 0 -9.41427e-05)
(5.2626e-05 0 -0.000149611)
(0.000100428 0 -0.000194175)
(0.000147173 0 -0.000199701)
(0.000191788 0 -0.000198248)
(0.000222561 0 -0.000218274)
(0.000289012 0 -0.00018352)
(0.000337532 0 -0.000150577)
(0.0003661 0 -0.000173186)
(0.000402011 0 -0.000135326)
(0.000442189 0 -7.64739e-05)
(0.000473351 0 -0.000129683)
(0.000505649 0 -4.01671e-05)
(0.000504214 0 -8.53751e-05)
(0.000516617 0 -0.000112645)
(0.000558426 0 -8.90839e-05)
(0.000589317 0 -0.000103702)
(0.000599719 0 -0.000135057)
(0.000624236 0 -0.000139459)
(0.000658455 0 -0.000169216)
(0.000716431 0 -0.000138454)
(0.000760737 0 -0.000197149)
(0.000831459 0 -9.25323e-05)
(0.000865207 0 -0.000163066)
(0.000931461 0 -0.000136681)
(0.000993293 0 -0.000113299)
(0.00101901 0 -0.000114349)
(0.00106042 0 -8.12045e-05)
(0.00109861 0 -0.000119391)
(0.00113894 0 -0.000133293)
(0.00120303 0 -5.16743e-05)
(0.00125105 0 1.34547e-05)
(0.00125246 0 -9.29749e-05)
(0.00127649 0 -0.00010971)
(0.00130538 0 2.18863e-06)
(0.00129643 0 2.88303e-05)
(0.00127637 0 3.48478e-05)
(0.00125592 0 4.7603e-05)
(0.00122927 0 0.000136368)
(0.00118734 0 0.000126318)
(0.00114903 0 5.66145e-05)
(0.00110616 0 0.000271)
(0.00107454 0 0.000349526)
(0.00103166 0 0.000376262)
(0.000938207 0 0.000380934)
(0.00080842 0 0.000249791)
(0.000634443 0 0.000173566)
(0.000524348 0 0.000110038)
(0.000474107 0 6.84038e-05)
(0.000440283 0 7.63218e-05)
(0.000409932 0 7.11511e-05)
(0.000375611 0 5.9689e-05)
(0.000356987 0 4.50645e-05)
(0.000342697 0 5.17791e-05)
(0.000319208 0 5.66062e-05)
(0.000290619 0 6.63829e-05)
(0.000272485 0 7.30833e-05)
(0.000263183 0 9.50085e-05)
(0.00024808 0 0.000125156)
(0.000240562 0 0.000122943)
(0.000235825 0 0.000110256)
(0.000196142 0 0.000114559)
(0.000185186 0 0.000111973)
(0.000167471 0 0.000130945)
(0.000158909 0 -1.86086e-05)
(0.00046836 0 -0.000131469)
(-0.000597442 0 -0.000120848)
(6.51688e-06 0 5.3492e-05)
(-2.96401e-12 0 -4.49451e-13)
(-6.58248e-12 0 -3.70527e-13)
(-4.94736e-12 0 -3.20667e-13)
(-4.87805e-12 0 -3.53063e-13)
(-4.75567e-12 0 -4.32869e-13)
(-4.57728e-12 0 -5.36647e-13)
(-4.34299e-12 0 -6.47763e-13)
(-4.0565e-12 0 -7.54336e-13)
(-3.72412e-12 0 -8.48302e-13)
(-3.35404e-12 0 -9.24501e-13)
(-2.9557e-12 0 -9.79927e-13)
(-2.53897e-12 0 -1.01329e-12)
(-2.11366e-12 0 -1.02462e-12)
(-1.68911e-12 0 -1.01497e-12)
(-1.27388e-12 0 -9.86151e-13)
(-8.75549e-13 0 -9.40485e-13)
(-5.00534e-13 0 -8.80603e-13)
(-1.54054e-13 0 -8.09266e-13)
(1.59902e-13 0 -7.29198e-13)
(4.38443e-13 0 -6.42968e-13)
(6.79675e-13 0 -5.52965e-13)
(8.82695e-13 0 -4.6141e-13)
(1.04757e-12 0 -3.70341e-13)
(1.1752e-12 0 -2.81531e-13)
(1.26705e-12 0 -1.96407e-13)
(1.32495e-12 0 -1.16014e-13)
(1.35102e-12 0 -4.10462e-14)
(1.34753e-12 0 2.8079e-14)
(1.31694e-12 0 9.11354e-14)
(1.26183e-12 0 1.48019e-13)
(1.18484e-12 0 1.98707e-13)
(1.08863e-12 0 2.43231e-13)
(9.7579e-13 0 2.81672e-13)
(8.4879e-13 0 3.14154e-13)
(7.09988e-13 0 3.40832e-13)
(5.61624e-13 0 3.61875e-13)
(4.05853e-13 0 3.77448e-13)
(2.44788e-13 0 3.87702e-13)
(8.15969e-14 0 3.92806e-13)
(-8.33784e-05 0 0.000158749)
(-0.000111455 0 0.000180154)
(-4.86468e-05 0 0.000182233)
(-0.000142446 0 0.000116618)
(-0.000167483 0 6.97087e-05)
(-0.000143399 0 -8.11264e-07)
(-8.18797e-05 0 -3.10485e-05)
(-6.89557e-05 0 -3.57085e-05)
(-6.57244e-05 0 -6.72041e-05)
(-5.44635e-05 0 -8.31303e-05)
(-1.3192e-05 0 -0.000100147)
(2.73424e-05 0 -0.000101262)
(9.46484e-05 0 -0.000117536)
(0.000149733 0 -0.000171113)
(0.000209253 0 -0.00016893)
(0.000236374 0 -0.000184564)
(0.000264439 0 -0.000205707)
(0.000284628 0 -0.000232536)
(0.00032641 0 -0.000230511)
(0.00036444 0 -0.000221212)
(0.000411201 0 -0.000159347)
(0.000415005 0 -0.000181134)
(0.000439217 0 -0.000128045)
(0.000456297 0 -9.49256e-05)
(0.000488021 0 8.33958e-06)
(0.000480286 0 -0.000124065)
(0.000487422 0 -0.000135515)
(0.000509795 0 -9.6579e-05)
(0.000525707 0 -9.96496e-05)
(0.000541305 0 -0.000121257)
(0.000564483 0 -0.000120797)
(0.000592163 0 -0.000114204)
(0.000628582 0 -0.00012233)
(0.000674679 0 -0.000151239)
(0.000726026 0 -0.000165739)
(0.000771634 0 -0.000165436)
(0.000789321 0 -0.000237023)
(0.000837777 0 -0.000225855)
(0.000916332 0 -0.000169421)
(0.000935064 0 -0.000190139)
(0.000957822 0 -0.000154216)
(0.00100099 0 -0.000173813)
(0.00107542 0 -0.00017883)
(0.0011307 0 -0.000103837)
(0.00114322 0 -0.000100022)
(0.00115877 0 -9.44742e-05)
(0.00119942 0 -7.78478e-05)
(0.00122903 0 2.979e-05)
(0.00122069 0 5.0173e-05)
(0.0012103 0 5.92822e-05)
(0.0011992 0 9.17029e-05)
(0.00117581 0 0.000181632)
(0.00114872 0 0.000202556)
(0.00111628 0 0.000153391)
(0.00105212 0 0.000332994)
(0.0010388 0 0.000377228)
(0.00100864 0 0.000403646)
(0.000959615 0 0.000394444)
(0.000872494 0 0.00037117)
(0.0007537 0 0.000258699)
(0.000597042 0 0.000177136)
(0.000514125 0 0.000103392)
(0.000480966 0 9.66294e-05)
(0.000445916 0 0.000119061)
(0.000414078 0 6.46765e-05)
(0.000393265 0 6.68871e-05)
(0.000380892 0 9.51668e-05)
(0.000375024 0 7.64918e-05)
(0.000367334 0 6.31802e-05)
(0.00035822 0 7.47796e-05)
(0.000348406 0 9.2575e-05)
(0.000339651 0 0.000104526)
(0.00031845 0 0.000135524)
(0.000305805 0 0.000145984)
(0.000297083 0 0.000141963)
(0.000290058 0 0.000134052)
(0.000291488 0 5.9295e-05)
(0.000280397 0 -3.8371e-05)
(0.00029696 0 -2.11096e-05)
(-0.000214937 0 -2.09137e-05)
(6.14354e-06 0 0.000154431)
(-2.84676e-12 0 -1.77595e-13)
(-6.5062e-12 0 -2.93588e-13)
(-4.9628e-12 0 -3.21656e-13)
(-4.96042e-12 0 -4.22245e-13)
(-4.87525e-12 0 -5.69621e-13)
(-4.71245e-12 0 -7.3947e-13)
(-4.47782e-12 0 -9.12133e-13)
(-4.17968e-12 0 -1.07299e-12)
(-3.82801e-12 0 -1.21207e-12)
(-3.43398e-12 0 -1.32309e-12)
(-3.00929e-12 0 -1.40255e-12)
(-2.56561e-12 0 -1.44923e-12)
(-2.11412e-12 0 -1.4636e-12)
(-1.6652e-12 0 -1.4475e-12)
(-1.22818e-12 0 -1.40377e-12)
(-8.11096e-13 0 -1.33598e-12)
(-4.20645e-13 0 -1.24807e-12)
(-6.21004e-14 0 -1.14417e-12)
(2.60669e-13 0 -1.02833e-12)
(5.45009e-13 0 -9.04324e-13)
(7.89278e-13 0 -7.75574e-13)
(9.92817e-13 0 -6.45144e-13)
(1.15597e-12 0 -5.1578e-13)
(1.27996e-12 0 -3.89869e-13)
(1.3667e-12 0 -2.6936e-13)
(1.41845e-12 0 -1.55713e-13)
(1.43768e-12 0 -4.99123e-14)
(1.42698e-12 0 4.74477e-14)
(1.38898e-12 0 1.36059e-13)
(1.32639e-12 0 2.15804e-13)
(1.24194e-12 0 2.86694e-13)
(1.13835e-12 0 3.48829e-13)
(1.01826e-12 0 4.0238e-13)
(8.84202e-13 0 4.47574e-13)
(7.38553e-13 0 4.84671e-13)
(5.83556e-13 0 5.13939e-13)
(4.21352e-13 0 5.35633e-13)
(2.54031e-13 0 5.49971e-13)
(8.46752e-14 0 5.57128e-13)
(-1.96429e-05 0 0.000201405)
(7.91581e-05 0 0.000215857)
(-1.26822e-05 0 0.000206266)
(5.78721e-05 0 0.00015911)
(4.66122e-05 0 0.000113163)
(5.06917e-05 0 7.31771e-05)
(8.07208e-05 0 2.70025e-05)
(7.55497e-05 0 -3.36941e-05)
(6.01157e-05 0 -8.23047e-05)
(8.3845e-05 0 -0.000109689)
(0.000147997 0 -0.000137219)
(0.000192047 0 -0.000155889)
(0.000224168 0 -0.000159948)
(0.000238855 0 -0.000179257)
(0.000269357 0 -0.000173263)
(0.00031404 0 -0.000167278)
(0.0003296 0 -0.000236703)
(0.000371089 0 -0.000253688)
(0.000391123 0 -0.000262594)
(0.000412238 0 -0.000243952)
(0.000444272 0 -0.000179683)
(0.000437464 0 -0.000181265)
(0.000438277 0 -0.000149906)
(0.000442869 0 -0.00010149)
(0.000444439 0 -0.000105703)
(0.000460381 0 -8.78389e-05)
(0.000456618 0 -9.18139e-05)
(0.000455901 0 -0.000106421)
(0.000467436 0 -0.000132942)
(0.000493819 0 -0.000157986)
(0.000529287 0 -0.000134412)
(0.000539122 0 -0.000188505)
(0.000563902 0 -0.000215177)
(0.000590937 0 -0.000231681)
(0.000620196 0 -0.000232717)
(0.000645106 0 -0.000251229)
(0.000699796 0 -0.000203609)
(0.000715687 0 -0.000380117)
(0.000866996 0 -0.000119861)
(0.000893266 0 -0.000145369)
(0.000902321 0 -0.000218098)
(0.000958577 0 -0.000253752)
(0.00106032 0 -0.000159879)
(0.00107056 0 -0.00012451)
(0.00108 0 -0.000101879)
(0.00110315 0 -0.000187359)
(0.00115275 0 -0.000114879)
(0.00116091 0 2.5556e-05)
(0.00115742 0 4.85085e-05)
(0.00114887 0 9.34604e-05)
(0.00113852 0 0.000100442)
(0.001115 0 0.000208556)
(0.00110184 0 0.00024566)
(0.00108211 0 0.000197414)
(0.00101529 0 0.000314538)
(0.000985375 0 0.000403176)
(0.00096191 0 0.000438283)
(0.000927542 0 0.000448426)
(0.000856142 0 0.000471352)
(0.000749954 0 0.000442001)
(0.000622885 0 0.000340678)
(0.000518547 0 0.000215151)
(0.000474565 0 0.000154556)
(0.000452229 0 0.000145077)
(0.000434122 0 8.63924e-05)
(0.000420521 0 8.64548e-05)
(0.000416044 0 6.181e-05)
(0.000418338 0 6.29293e-05)
(0.000431759 0 7.78574e-05)
(0.000429354 0 9.63199e-05)
(0.000419138 0 0.000118899)
(0.000416278 0 0.000125028)
(0.000417241 0 0.000105561)
(0.000403389 0 0.000113271)
(0.000375008 0 0.000144693)
(0.000357491 0 0.000142803)
(0.000356699 0 0.000112269)
(0.000355059 0 -1.95072e-05)
(0.000371891 0 -4.53771e-06)
(-5.54638e-05 0 7.85775e-05)
(5.98306e-06 0 0.000304119)
(-2.8297e-12 0 3.5876e-14)
(-6.59968e-12 0 -1.33466e-13)
(-5.07553e-12 0 -2.50071e-13)
(-5.12556e-12 0 -4.44583e-13)
(-5.07249e-12 0 -6.83863e-13)
(-4.91942e-12 0 -9.39484e-13)
(-4.67626e-12 0 -1.18827e-12)
(-4.35638e-12 0 -1.41343e-12)
(-3.97422e-12 0 -1.60399e-12)
(-3.54452e-12 0 -1.75332e-12)
(-3.08185e-12 0 -1.85808e-12)
(-2.60002e-12 0 -1.91757e-12)
(-2.11193e-12 0 -1.93314e-12)
(-1.62928e-12 0 -1.90774e-12)
(-1.16236e-12 0 -1.84554e-12)
(-7.19843e-13 0 -1.7516e-12)
(-3.08724e-13 0 -1.63147e-12)
(6.56866e-14 0 -1.49086e-12)
(3.99744e-13 0 -1.33533e-12)
(6.91195e-13 0 -1.17e-12)
(9.38855e-13 0 -9.99404e-13)
(1.14249e-12 0 -8.27501e-13)
(1.30285e-12 0 -6.57727e-13)
(1.42162e-12 0 -4.9302e-13)
(1.5012e-12 0 -3.3579e-13)
(1.5444e-12 0 -1.87865e-13)
(1.55418e-12 0 -5.05014e-14)
(1.5335e-12 0 7.55494e-14)
(1.4853e-12 0 1.89926e-13)
(1.41246e-12 0 2.92543e-13)
(1.31787e-12 0 3.83501e-13)
(1.20432e-12 0 4.63028e-13)
(1.07454e-12 0 5.31434e-13)
(9.3108e-13 0 5.89081e-13)
(7.76353e-13 0 6.36357e-13)
(6.12586e-13 0 6.73641e-13)
(4.41885e-13 0 7.01278e-13)
(2.66283e-13 0 7.19553e-13)
(8.8754e-14 0 7.28667e-13)
(-1.17957e-05 0 0.000173168)
(9.96302e-05 0 0.000200108)
(0.000121889 0 0.000182766)
(0.000128265 0 0.000151013)
(0.000109173 0 0.000128919)
(0.000156335 0 3.2529e-05)
(0.000148953 0 -7.38371e-06)
(0.000163262 0 -4.65241e-05)
(0.00019346 0 -8.80081e-05)
(0.000217877 0 -0.000118163)
(0.000226962 0 -0.000149227)
(0.00025164 0 -0.000150589)
(0.000260605 0 -0.000177417)
(0.000295283 0 -0.000169309)
(0.00032423 0 -0.000188834)
(0.000348193 0 -0.000243077)
(0.000390976 0 -0.000281716)
(0.000420461 0 -0.000290101)
(0.000436386 0 -0.000267002)
(0.000424908 0 -0.000270471)
(0.000449068 0 -0.000203091)
(0.000447958 0 -0.000173581)
(0.000418681 0 -0.000155083)
(0.000409131 0 -0.00010144)
(0.000396982 0 -8.53899e-05)
(0.000396417 0 -8.76601e-05)
(0.000387128 0 -0.000116245)
(0.000400154 0 -0.00011159)
(0.000406427 0 -0.000170379)
(0.000470175 0 -9.65306e-05)
(0.000445689 0 -0.000215041)
(0.000461642 0 -0.000204688)
(0.000482732 0 -0.000177476)
(0.00047153 0 -0.000224891)
(0.000493172 0 -0.00026838)
(0.000564058 0 -0.000270648)
(0.000641669 0 -0.000259706)
(0.000685581 0 -0.000438477)
(0.000873116 0 -0.000114202)
(0.000869504 0 -0.000280127)
(0.000927761 0 -0.000252805)
(0.00099362 0 -0.000268749)
(0.00104268 0 -0.000173475)
(0.00105844 0 -0.000155186)
(0.00108225 0 -0.000218064)
(0.00114093 0 -8.91556e-05)
(0.00113096 0 -0.000121925)
(0.00112788 0 2.37346e-06)
(0.00112876 0 5.20721e-05)
(0.00110721 0 7.1383e-05)
(0.00105742 0 0.000158002)
(0.00105332 0 0.000190743)
(0.00104295 0 0.000261143)
(0.00103426 0 0.000247729)
(0.000971164 0 0.000347428)
(0.000927334 0 0.000443968)
(0.000914744 0 0.000465921)
(0.000885013 0 0.000495927)
(0.000839562 0 0.000523024)
(0.000807545 0 0.000467123)
(0.000697634 0 0.000412718)
(0.000559503 0 0.000267533)
(0.000463853 0 0.00021186)
(0.000445132 0 0.000163352)
(0.000437867 0 8.17782e-05)
(0.000436349 0 6.18436e-05)
(0.000426524 0 0.000165581)
(0.000459346 0 -4.04657e-05)
(0.000466779 0 6.03706e-05)
(0.000467052 0 9.55143e-05)
(0.000476689 0 9.1398e-05)
(0.000465979 0 0.000133392)
(0.000451214 0 0.000181508)
(0.000445732 0 0.000200716)
(0.00044757 0 0.000174309)
(0.000398948 0 0.000194845)
(0.00039247 0 0.0001587)
(0.000384431 0 -1.26507e-05)
(0.000425352 0 -2.22076e-05)
(7.08583e-05 0 0.000111045)
(6.48136e-06 0 0.000447373)
(-3.04887e-12 0 1.00694e-12)
(-6.60713e-12 0 1.95103e-13)
(-5.2734e-12 0 -1.00408e-13)
(-5.39376e-12 0 -4.21924e-13)
(-5.36976e-12 0 -7.81533e-13)
(-5.21651e-12 0 -1.14613e-12)
(-4.95155e-12 0 -1.48773e-12)
(-4.59537e-12 0 -1.78826e-12)
(-4.1679e-12 0 -2.037e-12)
(-3.68806e-12 0 -2.228e-12)
(-3.17354e-12 0 -2.35881e-12)
(-2.64068e-12 0 -2.42981e-12)
(-2.10428e-12 0 -2.44371e-12)
(-1.5776e-12 0 -2.40495e-12)
(-1.07204e-12 0 -2.31941e-12)
(-5.97028e-13 0 -2.19394e-12)
(-1.59906e-13 0 -2.03597e-12)
(2.34042e-13 0 -1.85306e-12)
(5.81535e-13 0 -1.65251e-12)
(8.80937e-13 0 -1.44099e-12)
(1.13178e-12 0 -1.2243e-12)
(1.33449e-12 0 -1.00736e-12)
(1.49045e-12 0 -7.94301e-13)
(1.6019e-12 0 -5.88579e-13)
(1.67185e-12 0 -3.92979e-13)
(1.70374e-12 0 -2.09616e-13)
(1.7011e-12 0 -3.9935e-14)
(1.6674e-12 0 1.15223e-13)
(1.60597e-12 0 2.55506e-13)
(1.51996e-12 0 3.80926e-13)
(1.41242e-12 0 4.91736e-13)
(1.28628e-12 0 5.88342e-13)
(1.14431e-12 0 6.71241e-13)
(9.89126e-13 0 7.40971e-13)
(8.23113e-13 0 7.98073e-13)
(6.48477e-13 0 8.43058e-13)
(4.67263e-13 0 8.76379e-13)
(2.8142e-13 0 8.98399e-13)
(9.37899e-14 0 9.09371e-13)
(-8.92353e-07 0 0.000107062)
(0.000116446 0 0.000144265)
(0.000180493 0 0.000140897)
(0.000206915 0 0.000122013)
(0.000209417 0 9.94669e-05)
(0.000225181 0 8.71611e-05)
(0.000242816 0 -4.044e-05)
(0.000244778 0 -7.38432e-05)
(0.000253021 0 -0.000109448)
(0.000258312 0 -0.000143983)
(0.000256628 0 -0.000174244)
(0.00026213 0 -0.00019503)
(0.0002837 0 -0.000210554)
(0.000319922 0 -0.000226895)
(0.000369642 0 -0.000244339)
(0.000406299 0 -0.000281718)
(0.000441406 0 -0.000298152)
(0.000438983 0 -0.000306386)
(0.000447734 0 -0.000283118)
(0.000432025 0 -0.000276033)
(0.000427784 0 -0.000208716)
(0.000424647 0 -0.000143692)
(0.000368073 0 -0.000149364)
(0.000329356 0 -4.90335e-05)
(0.000313155 0 -7.08354e-05)
(0.000325399 0 -5.52435e-05)
(0.000329942 0 -0.000104068)
(0.000328109 0 -0.000162372)
(0.000342715 0 -0.000153873)
(0.000332749 0 -0.000197221)
(0.000323871 0 -0.000200148)
(0.000321739 0 -0.000194166)
(0.000339021 0 -0.00019795)
(0.000391547 0 -0.000210819)
(0.000457839 0 -0.000298771)
(0.000592909 0 -0.000295412)
(0.00073297 0 -0.00030887)
(0.000673542 0 -0.000692152)
(0.000950046 0 -0.000176715)
(0.000945569 0 -0.000290357)
(0.00100105 0 -0.000294903)
(0.00104018 0 -0.000314723)
(0.0010478 0 -0.000277207)
(0.00106627 0 -0.000235717)
(0.00111202 0 -0.000181841)
(0.00113741 0 -0.000124998)
(0.00111527 0 -0.000194333)
(0.00111225 0 1.56565e-06)
(0.00111355 0 9.65601e-05)
(0.00109009 0 0.000152098)
(0.00105969 0 0.000107428)
(0.00102862 0 0.000213955)
(0.00100892 0 0.000252157)
(0.000987743 0 0.000262842)
(0.000901786 0 0.000415374)
(0.000883448 0 0.000460524)
(0.000867781 0 0.000500968)
(0.000847288 0 0.00052394)
(0.000796066 0 0.000575205)
(0.000749138 0 0.00058834)
(0.00067555 0 0.000540555)
(0.00056482 0 0.000388843)
(0.0004483 0 0.000267644)
(0.000417004 0 0.000187745)
(0.000427235 0 0.000107852)
(0.000431578 0 6.70856e-05)
(0.000436446 0 6.71564e-05)
(0.000455145 0 8.40219e-05)
(0.000475073 0 4.71214e-05)
(0.000483392 0 2.9187e-05)
(0.000480402 0 0.000123992)
(0.000478087 0 0.000137464)
(0.000491392 0 8.63902e-05)
(0.000495577 0 0.000142738)
(0.000475816 0 0.000189183)
(0.000454967 0 0.000174641)
(0.000390214 0 0.000185839)
(0.000306099 0 4.72479e-05)
(-0.000289494 0 5.51769e-05)
(-0.000472797 0 0.000374985)
(5.81578e-06 0 0.000726909)
(-3.23311e-12 0 -5.11904e-13)
(-7.47565e-12 0 2.60477e-13)
(-5.69201e-12 0 7.54948e-14)
(-5.80622e-12 0 -3.60861e-13)
(-5.7963e-12 0 -8.73859e-13)
(-5.62531e-12 0 -1.37536e-12)
(-5.3182e-12 0 -1.82773e-12)
(-4.90563e-12 0 -2.21438e-12)
(-4.41395e-12 0 -2.52723e-12)
(-3.86634e-12 0 -2.76237e-12)
(-3.28366e-12 0 -2.91891e-12)
(-2.68492e-12 0 -2.99881e-12)
(-2.08706e-12 0 -3.00659e-12)
(-1.50498e-12 0 -2.94877e-12)
(-9.51353e-13 0 -2.83332e-12)
(-4.36394e-13 0 -2.66926e-12)
(3.21638e-14 0 -2.4662e-12)
(4.49141e-13 0 -2.23387e-12)
(8.11808e-13 0 -1.98159e-12)
(1.11941e-12 0 -1.71775e-12)
(1.37249e-12 0 -1.4496e-12)
(1.57249e-12 0 -1.18312e-12)
(1.72163e-12 0 -9.23195e-13)
(1.82294e-12 0 -6.73742e-13)
(1.88016e-12 0 -4.37836e-13)
(1.89745e-12 0 -2.17751e-13)
(1.87902e-12 0 -1.49948e-14)
(1.82894e-12 0 1.69616e-13)
(1.751e-12 0 3.35841e-13)
(1.64869e-12 0 4.83865e-13)
(1.52528e-12 0 6.14164e-13)
(1.38383e-12 0 7.27384e-13)
(1.22716e-12 0 8.24258e-13)
(1.05791e-12 0 9.05543e-13)
(8.7844e-13 0 9.71973e-13)
(6.90892e-13 0 1.02422e-12)
(4.97226e-13 0 1.06287e-12)
(2.99275e-13 0 1.08839e-12)
(9.9726e-14 0 1.10109e-12)
(5.24221e-05 0 -1.09565e-05)
(0.000128805 0 3.25899e-05)
(0.000169918 0 0.000109407)
(0.000234307 0 9.08885e-05)
(0.000254558 0 8.2631e-05)
(0.000275493 0 4.3586e-06)
(0.000287205 0 -2.80572e-05)
(0.000287605 0 -8.05276e-05)
(0.00028668 0 -0.000112965)
(0.000287136 0 -0.000144934)
(0.000288803 0 -0.000178122)
(0.000307102 0 -0.000196793)
(0.000339174 0 -0.000217505)
(0.00036783 0 -0.000260354)
(0.000414517 0 -0.000275321)
(0.000430189 0 -0.000309056)
(0.000449545 0 -0.000310814)
(0.000436515 0 -0.000318633)
(0.000446935 0 -0.000257974)
(0.000406655 0 -0.000223924)
(0.000306065 0 -0.000249676)
(0.000349346 0 -4.67784e-05)
(0.000312975 0 7.52864e-06)
(0.00024393 0 -5.0135e-05)
(0.000242959 0 -6.27515e-05)
(0.000241998 0 -9.91491e-05)
(0.000260312 0 -0.000117334)
(0.000252424 0 -0.000127564)
(0.000230579 0 -0.000146352)
(0.000223488 0 -0.000138217)
(0.000187673 0 -0.000172224)
(0.000198217 0 -0.000191853)
(0.00028521 0 -0.000209441)
(0.000391961 0 -0.000355501)
(0.000501287 0 -0.000515527)
(0.000615326 0 -0.00056515)
(0.000816277 0 -0.000431209)
(0.000744309 0 -0.000670097)
(0.000919072 0 -0.000393157)
(0.000951576 0 -0.000383707)
(0.00101052 0 -0.000372022)
(0.00106431 0 -0.000301491)
(0.00106663 0 -0.000269535)
(0.00107314 0 -0.000248059)
(0.00108389 0 -0.000238247)
(0.0011176 0 -0.000127189)
(0.00112208 0 -8.45911e-05)
(0.00110966 0 -5.49587e-05)
(0.00108466 0 0.000138842)
(0.00106854 0 0.000164467)
(0.00104264 0 0.00017739)
(0.00099682 0 0.000275922)
(0.000968033 0 0.000313102)
(0.000926058 0 0.000343434)
(0.00084759 0 0.000453441)
(0.000837693 0 0.000485572)
(0.000812001 0 0.000539442)
(0.000792412 0 0.000564064)
(0.000751479 0 0.000612289)
(0.000714913 0 0.000634409)
(0.000642896 0 0.000627346)
(0.000590174 0 0.000486867)
(0.000478878 0 0.000325031)
(0.000401881 0 0.000179057)
(0.000402831 0 9.53351e-05)
(0.000415536 0 6.11076e-05)
(0.000432494 0 5.51073e-05)
(0.000450283 0 3.4545e-05)
(0.000458821 0 2.31171e-05)
(0.00045533 0 4.57516e-05)
(0.000451919 0 0.000102717)
(0.000460147 0 0.000121315)
(0.000506414 0 6.48692e-05)
(0.000467427 0 0.000227999)
(0.000455131 0 0.000227716)
(0.000429797 0 0.000223288)
(0.000377458 0 0.00026325)
(0.000426644 0 0.000118626)
(0.000525822 0 8.80204e-05)
(0.000111716 0 0.000168967)
(8.72606e-05 0 0.000837773)
(-9.13242e-13 0 3.78238e-12)
(-5.76805e-12 0 2.22486e-12)
(-5.89418e-12 0 5.02848e-13)
(-6.34263e-12 0 -2.22892e-13)
(-6.38387e-12 0 -9.77301e-13)
(-6.1701e-12 0 -1.65319e-12)
(-5.7904e-12 0 -2.23278e-12)
(-5.29485e-12 0 -2.71355e-12)
(-4.71589e-12 0 -3.09436e-12)
(-4.07974e-12 0 -3.37447e-12)
(-3.40998e-12 0 -3.55481e-12)
(-2.72836e-12 0 -3.63912e-12)
(-2.05425e-12 0 -3.63422e-12)
(-1.40432e-12 0 -3.54929e-12)
(-7.9253e-13 0 -3.39505e-12)
(-2.29907e-13 0 -3.1832e-12)
(2.75478e-13 0 -2.92592e-12)
(7.18653e-13 0 -2.63539e-12)
(1.09766e-12 0 -2.32318e-12)
(1.41293e-12 0 -1.99969e-12)
(1.66641e-12 0 -1.67371e-12)
(1.8609e-12 0 -1.35242e-12)
(1.99982e-12 0 -1.04145e-12)
(2.08726e-12 0 -7.45151e-13)
(2.12784e-12 0 -4.66772e-13)
(2.12658e-12 0 -2.086e-13)
(2.08846e-12 0 2.79504e-14)
(2.01824e-12 0 2.4224e-13)
(1.92022e-12 0 4.34262e-13)
(1.79829e-12 0 6.04484e-13)
(1.65594e-12 0 7.53687e-13)
(1.49637e-12 0 8.82828e-13)
(1.32247e-12 0 9.92941e-13)
(1.13684e-12 0 1.08505e-12)
(9.41792e-13 0 1.16014e-12)
(7.39376e-13 0 1.21907e-12)
(5.31429e-13 0 1.26259e-12)
(3.19635e-13 0 1.29128e-12)
(1.0649e-13 0 1.30554e-12)
(8.5303e-06 0 -0.000125331)
(0.000118708 0 -3.11525e-05)
(0.000151978 0 3.35197e-05)
(0.000212125 0 5.05168e-05)
(0.000244226 0 6.69505e-05)
(0.000267079 0 -1.25351e-05)
(0.000286694 0 -2.60032e-05)
(0.000300021 0 -7.92838e-05)
(0.000299882 0 -0.000124495)
(0.000300593 0 -0.000153237)
(0.000312188 0 -0.000182453)
(0.000337127 0 -0.000222777)
(0.000366456 0 -0.000266184)
(0.000388167 0 -0.000310544)
(0.000419499 0 -0.000310688)
(0.000427326 0 -0.000321523)
(0.000419613 0 -0.000306675)
(0.000370101 0 -0.000294094)
(0.000327968 0 -0.000237589)
(0.000273585 0 -0.000178668)
(0.000239345 0 -9.05072e-05)
(0.0002138 0 -4.06369e-05)
(0.00018363 0 -5.04398e-05)
(0.000194692 0 -4.59284e-05)
(0.000201623 0 -7.95406e-05)
(0.000186543 0 -8.98346e-05)
(0.000160502 0 -0.000104095)
(9.51438e-05 0 -0.000113683)
(9.6312e-05 0 -0.000126387)
(9.35073e-05 0 -0.0001435)
(0.000113503 0 -0.000165557)
(0.000175058 0 -0.000232273)
(0.000329353 0 -0.000402818)
(0.000483236 0 -0.000515798)
(0.00056394 0 -0.000599862)
(0.000605449 0 -0.00065932)
(0.000793865 0 -0.000497947)
(0.000753779 0 -0.000658413)
(0.000888288 0 -0.000457213)
(0.000916354 0 -0.000440336)
(0.000985488 0 -0.000355157)
(0.000993578 0 -0.000331762)
(0.000993338 0 -0.000296115)
(0.00100831 0 -0.000237272)
(0.00101396 0 -0.000220985)
(0.00101802 0 -0.000193056)
(0.00103285 0 -0.000124199)
(0.00104474 0 -2.49237e-06)
(0.00103266 0 0.000104188)
(0.00101698 0 0.000169531)
(0.00100075 0 0.000188236)
(0.000956838 0 0.000285108)
(0.000919041 0 0.000344944)
(0.000868357 0 0.000389096)
(0.000804962 0 0.000475226)
(0.000807391 0 0.000484076)
(0.000758578 0 0.000564192)
(0.000746834 0 0.000586275)
(0.000703912 0 0.000647847)
(0.000670553 0 0.000680846)
(0.00065893 0 0.000655558)
(0.000567683 0 0.000612877)
(0.000468433 0 0.000476557)
(0.000410288 0 0.000229251)
(0.000401227 0 6.7484e-05)
(0.000413075 0 5.05358e-05)
(0.000420255 0 4.94605e-05)
(0.00041126 0 4.8545e-05)
(0.00039703 0 5.72879e-05)