/*--------------------------------*- C++ -*----------------------------------*\
  =========                 |
  \\      /  F ield         | OpenFOAM: The Open Source CFD Toolbox
   \\    /   O peration     | Website:  https://openfoam.org
    \\  /    A nd           | Version:  6
     \\/     M anipulation  |
\*---------------------------------------------------------------------------*/
FoamFile
{
    version     2.0;
    format      ascii;
    class       volScalarField;
    location    "5000";
    object      US;
}
// * * * * * * * * * * * * * * * * * * * * * * * * * * * * * * * * * * * * * //

dimensions      [0 0 -1 0 0 0 0];

internalField   nonuniform List<scalar> 
4800
(
-0.0728886
0.0361986
-0.0295368
-0.01718
-0.00496947
-0.0180661
-0.00714264
0.0142863
-0.00307604
-0.0212435
-0.0504448
-0.0200692
-0.069792
-0.207172
-0.074966
0.0437904
-0.0712848
0.0291887
-0.0351277
-0.00394624
0.00204976
0.019964
-0.0234756
-0.0252062
0.030302
-0.0759603
-0.03758
0.0418024
-0.052034
-0.140831
-0.0641261
0.125701
-0.157421
-0.0266813
-0.0821984
-0.031165
-0.0458648
-0.00910096
0.025453
-0.0991329
0.0333356
-0.0239146
0.00334625
0.00604992
-0.00347769
0.000929964
-0.00526078
-0.00045412
-0.00266276
-0.0189328
-0.0147736
-0.0755362
-0.0450474
-0.0782296
-0.028226
-0.076283
0.00321636
-0.0186561
-7.114e-05
-0.0246775
-0.0149681
-0.0211916
-0.0188293
0.0133475
-0.0327001
-0.0268965
-0.0254696
-0.0724225
0.0020304
-0.0292785
-0.115767
-0.0144766
-0.0549545
-0.0203788
-0.0395635
0.0142307
-0.00698437
-0.0361822
-0.0633339
-0.120912
0.104038
-0.000916712
9.48148e-11
3.00942e-10
-2.17878e-11
-1.22671e-11
-7.31798e-12
-4.61036e-12
-3.05812e-12
-2.12592e-12
-1.53268e-12
-1.1228e-12
-8.086e-13
-5.4076e-13
-2.9536e-13
-6.624e-14
1.4196e-13
3.1752e-13
4.4824e-13
5.2556e-13
5.4376e-13
5.072e-13
4.2728e-13
3.2304e-13
2.1748e-13
1.306e-13
7.8256e-14
6.7264e-14
9.4548e-14
1.514e-13
2.2504e-13
3.0328e-13
3.7704e-13
4.3992e-13
4.8864e-13
5.2364e-13
5.4596e-13
5.5688e-13
5.5316e-13
5.5324e-13
-0.028027
0.0411727
-0.00056896
0.0101842
0.00610907
0.0189916
0.00620388
-0.00557616
0.031844
-0.00795928
-0.0280957
0.0952896
0.357052
0.351391
-0.134455
-0.0133484
0.0556332
-0.101406
0.0596437
0.00703108
0.00943832
0.000652308
0.0135718
0.0216967
0.031347
0.0375643
0.0675652
0.051514
0.0040392
0.0474536
0.146026
-0.0655686
0.012458
0.123834
0.150936
-0.0357905
0.0649996
0.0131276
0.0897147
0.0359676
-0.00148736
0.034192
0.00088784
0.00905524
0.00714237
0.0136618
0.0230886
0.0220552
0.0277802
0.0455428
0.0644912
0.0935592
0.0499443
0.100033
0.00531
0.0829242
-0.00550068
0.0443873
-0.0016533
0.0158728
0.0193412
0.0408997
0.0174508
-0.0732087
0.0829108
-0.00756312
0.0904056
-0.012142
-0.0130479
-0.0882594
0.0579346
-0.0003414
-0.0304019
-0.034404
0.0649911
0.0267104
-0.0231647
0.0561451
-0.101337
-0.0430284
0.117822
-0.000956968
-3.59036e-11
3.2066e-10
-1.19378e-11
-7.7008e-12
-5.0765e-12
-3.4438e-12
-2.41188e-12
-1.73768e-12
-1.27212e-12
-9.212e-13
-6.306e-13
-3.6844e-13
-1.2064e-13
1.1128e-13
3.1888e-13
4.8784e-13
6.0452e-13
6.6044e-13
6.5304e-13
5.872e-13
4.7956e-13
3.5236e-13
2.2968e-13
1.3388e-13
7.9224e-14
7.1268e-14
1.05252e-13
1.7e-13
2.5216e-13
3.3836e-13
4.1884e-13
4.8584e-13
5.3808e-13
5.7536e-13
6.0004e-13
6.1792e-13
5.9604e-13
5.2596e-13
0.0057222
0.00606348
0.0213454
0.00184156
0.0165544
0.00699308
0.00599559
-0.0101916
0.0022964
-0.0261304
-0.00894116
0.0324028
0.0092992
-0.0023804
0.0284864
-0.0790844
0.0107732
0.0533729
-0.02286
-0.00387364
-0.00929624
-0.0336786
0.0117664
-0.00332988
-0.0778256
0.0202788
-0.0278916
-0.0587792
0.01836
0.067288
-0.0898267
-0.129376
0.160192
0.0834712
0.0528544
-0.0618333
-0.0443344
-0.0323138
-0.0287637
0.0585702
-0.0567577
0.0427512
-0.0160693
-0.00289264
-0.00116611
-0.014779
0.00195634
-0.00226416
-0.0195552
-0.0209588
-0.006666
0.009044
0.0089796
0.0106492
0.0146356
0.032156
-0.0371484
-0.0115172
-0.00014256
-0.0188819
-0.0124815
-0.0117313
0.0444326
0.0214276
-0.0556835
0.0087004
0.0218844
0.05105
-0.039692
0.0441702
0.0198251
0.0104994
0.0409865
-0.0265488
0.0071748
0.0394342
-0.00556548
-0.0103905
-0.054809
-0.0241367
0.121577
-0.000936509
-2.51229e-10
3.40891e-10
5.76e-13
-1.22364e-12
-1.59992e-12
-1.49784e-12
-1.286e-12
-1.0868e-12
-9.18e-13
-7.692e-13
-6.244e-13
-4.7e-13
-2.988e-13
-1.12388e-13
7.84e-14
2.59988e-13
4.148e-13
5.264e-13
5.868e-13
5.916e-13
5.4636e-13
4.662e-13
3.7e-13
2.8032e-13
2.1584e-13
1.8596e-13
1.9352e-13
2.33e-13
2.9336e-13
3.6236e-13
4.3092e-13
4.9144e-13
5.3968e-13
5.754e-13
6e-13
6.156e-13
5.8812e-13
5.1468e-13
-0.0095403
0.0423389
-0.0382715
-0.0394507
0.062022
-0.00097872
0.00262564
0.0333432
-0.0205156
-0.0123948
-0.0219036
0.0371716
-0.0261948
-0.24873
-0.0339236
0.0829336
-0.0139752
-0.0333476
-0.0199668
0.0101184
0.0210632
-0.00311333
-0.0102493
-0.0143783
-0.0247906
0.0025316
-0.0319416
-0.0278024
0.0106312
0.0096596
-0.0465284
0.0139144
0.0722168
-0.157475
-0.122196
0.13671
-0.0338116
0.0084356
-0.0370476
0.0200797
-0.0326664
-0.00337488
0.0479288
0.00163292
0.0199074
0.0092492
-0.00375093
-0.0130904
0.00278853
0.00985364
-0.0157264
-0.0523876
-0.0377568
-0.0301016
-0.017066
-0.0391456
-0.00942
0.0240852
0.00666212
0.0162888
-0.016572
-0.022886
-0.00417448
0.0753704
-0.0514496
-0.0345136
-0.0113064
0.015142
-0.0190812
0.0121216
-0.0304216
-0.0572284
0.0096712
0.0799196
-0.0400024
0.026748
0.0293432
0.047388
-0.16768
-0.0624176
0.180944
-0.000893569
-4.54438e-10
3.57513e-10
1.00927e-11
4.01036e-12
1.5584e-12
4.804e-13
-4.8e-14
-3.496e-13
-5.388e-13
-6.604e-13
-7.256e-13
-7.324e-13
-6.764e-13
-5.57956e-13
-3.852e-13
-1.76044e-13
4.64e-14
2.572e-13
4.34e-13
5.608e-13
6.264e-13
6.3e-13
5.8524e-13
5.1196e-13
4.3272e-13
3.68828e-13
3.3228e-13
3.2572e-13
3.4584e-13
3.828e-13
4.276e-13
4.736e-13
5.132e-13
5.448e-13
5.676e-13
5.824e-13
5.5852e-13
4.9828e-13
-0.0186764
0.0306187
-0.00823624
0.0383192
0.00168924
-0.00148332
0.03291
-0.0256296
-0.0326712
-0.0398228
0.0367068
0.02614
-0.036368
-0.0599588
0.0407384
-0.0072024
-0.027924
0.0095508
0.0265004
0.0436604
0.00239392
-0.00964388
0.0214637
0.0208218
0.0155145
0.0435704
0.0876152
-0.023072
-0.0173016
-0.0043412
-0.0302636
0.0712312
0.030736
-0.038188
-0.0106228
0.0292328
0.0285344
0.0053436
0.0060948
-0.0150356
-0.0400168
0.0044884
0.067737
-0.0673523
-0.0001264
-0.0265204
-0.0261424
0.0180392
-0.00800764
-0.058051
-0.0044148
0.0257588
-0.003052
-0.0055688
-0.0065196
0.023378
0.108052
-0.0285672
0.00063372
0.0186659
0.00875093
0.00611136
0.0067478
0.0741039
0.0774453
-0.103357
0.0532692
-0.0160252
-0.0034836
0.0173988
0.0135872
0.00622964
0.115268
0.162924
-0.0321132
-0.105573
-0.0180496
0.0695716
-0.117362
-0.0922493
0.15429
-0.000936717
-5.43125e-10
3.40889e-10
9.2616e-12
5.6304e-12
3.394e-12
1.9844e-12
1.0396e-12
3.64e-13
-1.34e-13
-5.068e-13
-7.724e-13
-9.344e-13
-9.888e-13
-9.3656e-13
-7.856e-13
-5.5664e-13
-2.796e-13
1.4e-14
2.94e-13
5.304e-13
7e-13
7.904e-13
8.028e-13
7.5292e-13
6.6676e-13
5.7284e-13
4.9284e-13
4.3908e-13
4.152e-13
4.172e-13
4.36e-13
4.636e-13
4.936e-13
5.2e-13
5.4e-13
5.528e-13
5.3184e-13
4.7656e-13
-0.0203547
0.0152264
-0.0073154
0.0342643
0.0075176
-0.0434163
-0.0367388
0.0892528
-0.0230436
-0.0016688
0.0978688
-0.0530252
-0.127699
-0.0316884
0.007888
0.022848
0.0394508
-0.0277392
-0.0106284
-0.0308732
-0.0380412
-0.0139705
-0.0213688
-0.0280444
-0.0212572
-0.0977668
0.0730664
0.0147
0.01904
-0.0378924
0.017598
0.017268
0.0275228
-0.0248072
-0.036846
0.0022056
-0.0316228
-0.0465064
0.0033328
0.025432
0.0087096
-0.00767928
-0.0772078
-0.0380621
0.0530897
-0.006478
-0.0053554
-0.0168564
-0.0100831
0.0412679
0.0515465
-0.0351031
-0.0128768
0.0166308
0.049492
0.0509208
-0.0685724
-0.0465924
0.0242282
-0.00887748
0.000495212
-0.0100986
-0.0215787
-0.0145392
0.129902
-0.0302116
-0.006082
-0.0165564
-0.034526
0.013832
-0.0765656
-0.0913408
-0.0726444
0.149152
0.165707
-0.0469035
-0.025114
0.0802413
-0.144826
-0.0974695
0.193254
-0.00108414
-5.19134e-10
3.29513e-10
6.87092e-12
5.8188e-12
4.4168e-12
3.07e-12
1.9304e-12
1.0048e-12
2.62e-13
-3.244e-13
-7.668e-13
-1.0672e-12
-1.22512e-12
-1.23916e-12
-1.11848e-12
-8.8524e-13
-5.732e-13
-2.196e-13
1.392e-13
4.684e-13
7.368e-13
9.172e-13
9.984e-13
9.8832e-13
9.0968e-13
7.9648e-13
6.7848e-13
5.78e-13
5.076e-13
4.688e-13
4.556e-13
4.604e-13
4.752e-13
4.92e-13
5.076e-13
5.188e-13
4.9924e-13
4.4916e-13
-0.00976384
0.00918232
-0.0190583
0.0100106
-0.00255428
0.0287035
0.100303
-0.0382152
-0.0859803
-0.0072284
-0.010426
0.016534
-0.0007092
0.1018
0.0485804
-0.0266964
-0.0552896
-0.0096108
0.0371836
0.0005728
0.0370107
0.00883532
0.0184273
0.0417409
0.03018
0.0102212
-0.089342
-0.0141728
-0.004438
-0.0633336
-0.0005692
0.0189272
0.0248104
0.050774
-0.0847356
0.0048328
0.018396
-0.0133952
-0.0202448
0.0329284
0.0334976
-0.00824572
-0.0825764
0.0677801
0.0574448
-0.0223076
-0.0033252
0.0560365
-0.0181561
-0.0064017
-0.0244892
-0.0128888
0.0205685
-0.018444
-0.0306668
-0.029844
-0.026776
0.0702972
-0.00960508
-0.00857796
0.00300712
0.0101201
0.0119876
-0.0320666
0.005943
-0.0124948
0.0523284
0.0272464
-0.0824556
0.0253208
0.0054024
0.0068504
-0.0033124
-0.17958
-0.106442
0.107556
0.00327188
0.0629008
-0.146785
-0.0451441
0.17928
-0.00134832
-4.49729e-10
3.04377e-10
4.1284e-12
6.2056e-12
5.2988e-12
3.9192e-12
2.626e-12
1.516e-12
5.844e-13
-1.704e-13
-7.544e-13
-1.1652e-12
-1.40604e-12
-1.473e-12
-1.37796e-12
-1.1442e-12
-8.096e-13
-4.156e-13
-1.2e-15
3.984e-13
7.472e-13
1.01e-12
1.1644e-12
1.206e-12
1.15012e-12
1.0306e-12
8.8268e-13
7.396e-13
6.216e-13
5.38e-13
4.876e-13
4.636e-13
4.584e-13
4.624e-13
4.708e-13
4.784e-13
4.5972e-13
4.1468e-13
-0.0142006
0.0184701
0.00113196
0.0154236
0.0338226
-0.0279376
-0.0959844
0.022462
0.132299
-0.0373404
0.0336884
-0.0393128
0.0543668
0.0152256
-0.0795904
-0.0388028
0.0158536
0.06498
-0.0130048
0.0037944
-0.0147628
0.0244122
0.0358728
-0.0205044
-0.0048056
0.100582
0.0244236
0.0583324
0.020902
0.0145052
-0.0417656
-0.0398304
0.000282
0.162957
-0.0706992
-0.0324036
0.0187324
-0.0171536
0.0062184
-0.0073096
-0.008342
0.00469
-0.0476896
0.0263868
-0.0323372
0.040476
-0.0533032
-0.0592204
0.08421
0.0046396
-0.003251
-0.0263424
-0.0220458
0.0284676
0.0266511
-0.00594673
0.0195193
-0.0205081
-0.0170368
0.00246756
-0.0114614
-0.0100106
0.0312214
-0.0104324
-0.0523854
-0.0117384
0.0613816
0.140185
-0.0139364
-0.0382524
0.0270228
-0.0498176
0.0510644
0.199411
-0.040704
-0.11831
0.0504756
-0.101901
-0.0535548
0.00788194
0.137622
-0.00131358
-5.09523e-10
3.38738e-10
1.49652e-11
9.3172e-12
6.4384e-12
4.5444e-12
3.0508e-12
1.7956e-12
7.328e-13
-1.456e-13
-8.324e-13
-1.324e-12
-1.61108e-12
-1.7008e-12
-1.60772e-12
-1.3536e-12
-9.844e-13
-5.508e-13
-9.32e-14
3.564e-13
7.628e-13
1.0924e-12
1.3128e-12
1.4072e-12
1.38272e-12
1.2672e-12
1.0992e-12
9.184e-13
7.54e-13
6.232e-13
5.316e-13
4.744e-13
4.44e-13
4.316e-13
4.292e-13
4.3e-13
4.1184e-13
3.7256e-13
-0.0216718
-0.0039392
-0.0118879
-0.0228316
-0.0366384
0.0620612
0.0680024
0.0130644
-0.083214
0.0266464
0.0090964
-0.046498
0.0065324
-0.0300284
-0.0157796
0.088312
0.0653972
0.0095896
0.021312
0.0086196
-0.001368
0.00273604
-0.0135928
-0.0315497
-0.0290792
-0.0456484
0.0081252
-0.0055424
0.028142
0.0829368
0.0267444
-0.0163896
-0.119542
0.044566
0.0687992
-0.0584272
0.0311592
-0.0473476
0.000912
0.0390444
0.0181808
-0.0120588
0.0240212
-0.0506472
0.0031168
0.0275919
0.0665032
-0.112514
-0.0601276
0.0254328
0.009338
0.021907
0.0117312
-0.00816996
-0.0187413
-0.0071198
0.0156833
8.636e-05
0.0027844
0.0119328
-0.0103622
-0.00452512
0.00302804
0.00147484
-0.038263
-0.0080572
-0.0539952
-0.0109236
0.0225496
0.0448696
0.0014692
0.0267704
-0.0917936
-0.0299352
0.170883
0.0007488
-0.0444268
0.191126
-0.0573808
-0.0645654
0.104027
-0.0011327
-4.88171e-10
3.71288e-10
1.87976e-11
9.3488e-12
6.3168e-12
4.5152e-12
3.044e-12
1.7504e-12
6.12e-13
-3.588e-13
-1.1228e-12
-1.6552e-12
-1.9538e-12
-2.0244e-12
-1.8886e-12
-1.5692e-12
-1.13e-12
-6.268e-13
-1.164e-13
3.76e-13
8.26e-13
1.2004e-12
1.4652e-12
1.6056e-12
1.61106e-12
1.501e-12
1.3228e-12
1.1096e-12
9e-13
7.22e-13
5.852e-13
4.908e-13
4.316e-13
3.988e-13
3.82e-13
3.748e-13
3.5504e-13
3.2256e-13
-0.00338346
0.00709276
-0.0126496
-0.0138323
0.0250333
-0.0309304
-0.038926
0.0356972
-0.0037588
0.0615988
-0.001582
0.0131156
0.0172988
-0.0195848
0.0264144
-0.02603
-0.0859988
0.0065924
0.0162964
0.0085676
0.0134016
-0.0032448
-0.004014
0.0142312
0.0171864
-0.0083116
0.0114004
-0.056742
-0.0516908
0.0329388
0.0202524
0.0624012
0.0470848
-0.0736888
-0.007128
-0.0224796
0.060626
-0.005462
-0.064142
-0.0147808
0.041324
-0.00937244
-0.00935492
-0.00477812
0.0784313
-0.0925786
0.0633664
0.0496012
-0.030874
0.0295584
-0.05305
-0.0204544
0.0203848
0.015392
0.00370856
0.0124291
-0.00692904
-0.00522068
0.0149441
-0.00994096
0.001683
0.0140578
0.0106919
0.00453584
-0.00851976
0.00910996
-0.0268576
0.0108336
-0.044846
-0.0363956
-0.0177652
0.0196664
0.0285272
-0.0934968
-0.0525416
0.107148
0.0450652
0.1361
-0.253794
-0.0210355
0.142024
-0.00135734
-1.81272e-10
2.26564e-10
-1.22564e-11
2.7136e-12
4.6792e-12
3.8792e-12
2.6304e-12
1.372e-12
1.88e-13
-8.616e-13
-1.6924e-12
-2.2504e-12
-2.52696e-12
-2.5328e-12
-2.29304e-12
-1.856e-12
-1.29e-12
-6.716e-13
-7.08e-14
4.784e-13
9.62e-13
1.366e-12
1.6588e-12
1.8224e-12
1.84864e-12
1.74296e-12
1.5444e-12
1.302e-12
1.0524e-12
8.26e-13
6.44e-13
5.1e-13
4.188e-13
3.616e-13
3.288e-13
3.112e-13
2.8996e-13
2.6284e-13
-0.0149832
0.0313977
-0.00361083
-0.0063758
-0.0178334
0.0347896
0.0411752
-0.0828
-0.0332592
-0.0005448
-0.00636
-0.0077304
-0.0189444
-0.027652
-0.0298644
-0.0222232
0.0971084
-0.00816
-0.0520156
-0.0144288
-0.0335628
0.0104604
0.0236358
-0.0069004
-0.0477761
-0.00702328
-0.007296
-0.0060228
-0.0126524
0.0234856
-0.0106812
-0.0104296
0.0268464
0.0314984
0.0231336
-0.0527824
0.029398
0.0303096
-0.0392684
-0.0081384
0.0116656
-0.00095412
-0.0170396
0.0391861
-0.0350447
-0.0199959
0.0532045
-0.0074692
-0.043638
0.038666
0.0200564
-0.0338564
-0.038202
-0.0166728
0.0146408
0.00966856
0.0111638
-0.0067856
-0.0141165
-0.0101831
-0.001668
-0.0128033
0.01638
0.0299442
-0.0164614
0.0130775
0.0186407
-0.0308628
0.0120364
-0.0025232
-0.0628384
-0.0087996
0.0337804
0.0562504
-0.0647212
-0.0527168
0.0213568
-0.1135
-0.276774
0.113676
0.136232
-0.0012405
-3.19348e-10
2.77368e-10
9.8668e-12
9.0016e-12
5.6448e-12
3.5016e-12
2.044e-12
7.68e-13
-4.768e-13
-1.6284e-12
-2.5536e-12
-3.1488e-12
-3.3696e-12
-3.2612e-12
-2.86e-12
-2.2416e-12
-1.4764e-12
-6.88e-13
5.24e-14
6.82e-13
1.2032e-12
1.6204e-12
1.9164e-12
2.0788e-12
2.09854e-12
1.9884e-12
1.774e-12
1.4952e-12
1.2016e-12
9.304e-13
7.024e-13
5.264e-13
4.008e-13
3.188e-13
2.664e-13
2.392e-13
2.1356e-13
1.9204e-13
-0.00682974
0.0358624
-0.00975458
-0.0178355
-0.00843004
0.0470552
-0.02598
-0.016748
0.0126732
-0.018756
-0.0253324
-0.035016
-0.0034608
0.0040432
-0.0073048
0.0479768
-0.0020984
-0.0361952
0.0271744
-0.0090296
-0.009794
-0.0272748
-0.0187079
0.0182584
-0.00376352
-0.0161228
0.0257916
-0.0310108
-0.0391672
0.010316
0.0026308
0.0089516
0.0263752
-0.04148
0.0027496
-0.0004936
0.0156548
0.0010848
-0.0383852
0.0366232
-0.0023316
0.00125004
0.000438
-0.013192
-0.0228573
0.0700492
-0.101977
0.0509768
-0.0052684
-0.0111092
0.0405536
0.0108352
-0.029284
-0.000134
0.0199032
-0.0158836
-0.0004244
-0.00112788
0.0282034
-0.0104818
-0.0311522
0.0126487
0.00782112
-0.0041504
0.0042144
-0.0127995
-0.00124296
0.0500316
-0.00195812
-0.0159724
0.0181534
-0.0541396
-0.0404168
-0.0022104
0.0498904
0.0123204
0.0178744
-0.059262
-0.201672
0.0509657
0.0474447
-0.00109567
2.38048e-10
6.51952e-10
7.33984e-11
1.79728e-11
5.396e-12
2.352e-12
1.18e-12
5.2e-14
-1.284e-12
-2.628e-12
-3.7204e-12
-4.3756e-12
-4.5216e-12
-4.2224e-12
-3.5784e-12
-2.6848e-12
-1.6596e-12
-6.332e-13
2.8e-13
1.008e-12
1.5748e-12
1.9884e-12
2.2608e-12
2.39324e-12
2.38508e-12
2.2476e-12
1.996e-12
1.6808e-12
1.3424e-12
1.0232e-12
7.528e-13
5.336e-13
3.732e-13
2.648e-13
1.956e-13
1.528e-13
1.254e-13
1.114e-13
-0.0233236
0.011458
0.00813648
0.0323197
0.0280819
-0.0677132
-0.0758096
0.113725
0.0188756
-0.0373144
0.0243416
0.0304524
-0.0367688
-0.0473564
0.0156648
0.0464172
-0.0568308
-0.0093152
0.0065988
0.0228976
0.0096716
0.002526
-0.0221102
0.00449272
0.024964
-0.0219344
0.0238576
0.0089312
-0.0265164
-0.0030484
-0.009194
-0.0108912
0.0137172
0.0339012
0.0065264
-0.023048
0.0312156
0.0200456
-0.0457236
0.0112272
-0.0125064
-0.012398
0.0138016
0.0134668
0.0088484
-0.0558468
-0.00997788
0.0854836
-0.0342844
-0.0147804
-0.0071048
0.0257252
-0.0016744
-0.008156
0.0173552
-0.0153968
-0.0112268
0.023014
-0.0298748
0.0158733
0.0123546
0.00429992
-0.00620907
0.00933664
-0.000255328
-0.00670556
-0.0210562
-0.0207948
0.0398589
0.00101052
-0.0047064
0.042548
-0.0395916
-0.0235504
-0.0353308
0.02329
-0.0024232
0.0254396
0.094266
0.0305988
0.0141096
-0.00236123
5.52056e-10
-3.10454e-10
-7.43412e-11
-1.56356e-11
-4.2904e-12
-6.96e-13
2.16e-13
-5.12e-13
-2.108e-12
-3.8776e-12
-5.3072e-12
-6.0672e-12
-6.0812e-12
-5.4728e-12
-4.434e-12
-3.1344e-12
-1.7496e-12
-4.32e-13
6.88e-13
1.534e-12
2.1264e-12
2.508e-12
2.7176e-12
2.78096e-12
2.70816e-12
2.51e-12
2.2116e-12
1.8508e-12
1.4676e-12
1.1e-12
7.796e-13
5.252e-13
3.336e-13
2.024e-13
1.132e-13
5.44e-14
2.624e-14
1.496e-14
-0.00951376
0.00724928
-0.00954144
-0.00596532
0.0525678
-0.06268
0.104405
0.0638076
-0.157123
0.0747172
0.069756
-0.0088336
0.0223112
0.0658516
0.0414072
-0.040818
-0.0118184
0.0498244
0.0125552
-0.0197176
-0.0064076
0.0239716
0.0072496
0.0212698
-0.00632684
0.013054
0.0099948
0.030654
-0.0348664
-0.0183652
0.0040268
0.0032388
-0.0143072
0.0286524
0.0087744
-0.0216276
0.0073504
-0.004226
-0.0236412
0.0165504
0.0049732
-0.0159684
0.0221004
0.0256005
-0.0038796
-0.0169175
0.0922132
-0.0503634
0.004426
-0.0067036
-0.0121916
-0.006498
0.0168068
-0.0164632
-0.011152
0.0253768
-0.032136
-0.0137656
0.008686
-0.0180837
-6.964e-05
0.00367224
0.00959668
0.00967406
-0.0198819
-0.00703078
0.0124286
-0.00021584
-0.0350617
0.0234188
-0.0277944
0.0033012
0.0044924
0.0236744
0.0143812
-0.0159664
-0.0282888
-0.0691324
-0.0510384
-0.0984668
0.156793
-0.0387616
0.00114956
-1.89116e-10
4.34242e-10
-1.6396e-12
-6.194e-12
-1.148e-12
7.68e-13
-3.2e-13
-2.868e-12
-5.5744e-12
-7.6092e-12
-8.532e-12
-8.2944e-12
-7.1596e-12
-5.4804e-12
-3.558e-12
-1.648e-12
4.4e-14
1.392e-12
2.344e-12
2.9204e-12
3.2184e-12
3.3112e-12
3.25056e-12
3.0728e-12
2.7844e-12
2.4128e-12
1.9932e-12
1.554e-12
1.1436e-12
7.864e-13
4.964e-13
2.768e-13
1.2e-13
1.56e-14
-5.04e-14
-8.6e-14
-9.6e-14
-0.0050037
0.00168972
-0.0240958
-0.010847
0.00901796
0.0587228
0.0615765
-0.0959788
-0.0419908
0.0198344
-0.0317964
-0.0240304
-0.0150788
0.0089984
0.00813
-0.0131736
0.0418088
0.008722
0.022558
-0.0238432
0.0214356
-0.0167957
-0.0103865
-0.013268
0.0096376
-0.0061968
0.0010036
0.0179404
-0.0313068
-0.0045628
0.0307388
-0.0091372
-0.0270736
0.0080024
0.0292112
-0.025036
-0.013618
-0.0171632
-0.0119656
0.0312092
-0.009906
-0.042972
0.0241696
0.036036
-0.0195656
-0.0119788
0.0320272
-0.00295156
0.018606
-0.0026932
0.0015104
0.0153484
0.0186392
-0.001284
-0.0049988
0.0070264
0.0279236
-0.0240752
-0.0230852
-0.0330968
0.0266936
-0.0081064
0.0013162
-0.0074342
-0.0098026
0.0153252
0.00986861
0.00200255
0.00927084
-0.0302959
0.0076202
-0.0114
0.0054568
-0.0050464
0.0317892
0.0174568
0.0102944
0.006354
-0.0365976
-0.177516
0.0435872
-0.0290176
-0.00128687
5.19324e-10
-1.01425e-10
-9.61132e-11
-1.77868e-11
1.332e-12
4.08e-12
1.096e-12
-3.676e-12
-8.132e-12
-1.1166e-11
-1.22724e-11
-1.1542e-11
-9.4968e-12
-6.768e-12
-3.8908e-12
-1.236e-12
9.6e-13
2.548e-12
3.544e-12
4.0368e-12
4.1676e-12
4.0604e-12
3.80984e-12
3.4684e-12
3.0488e-12
2.5792e-12
2.0828e-12
1.5956e-12
1.142e-12
7.48e-13
4.304e-13
1.872e-13
8e-15
-1.056e-13
-1.776e-13
-2.1176e-13
-2.1864e-13
0.00226228
0.0377146
0.0217373
-0.0113105
-0.0492907
-0.0233208
0.0195165
-0.0286913
-0.00606416
0.0076804
-0.0246652
-0.005078
-0.0096532
-0.0008544
-0.0727452
-0.0020148
0.0726784
-0.0236564
-0.105795
0.0051148
0.010316
-0.00925456
-0.018418
-0.0150609
0.0063844
-0.0031292
-0.0070252
-0.018238
-0.007054
0.0154156
0.0160068
-0.0077632
-0.0427908
0.0133572
0.0313064
-0.0640048
0.002698
0.0660336
0.0285208
0.0293208
-0.0309652
-0.0318212
0.0657888
0.0330212
-0.0524792
-0.0164168
0.0323814
0.0578859
-0.0295918
-0.0101179
-0.00719524
-0.0436388
0.0055308
0.0038864
-0.0046032
-0.0091816
0.001408
0.015548
0.0256512
-0.025698
-0.0448932
0.0127915
0.00707132
0.013094
0.0256303
0.00578196
-0.0332244
-0.0296928
-0.0322042
-0.00213784
-0.026297
-0.00648432
-0.0048036
0.00074288
0.0088136
-0.0028748
-0.0455596
-0.016956
0.114647
-0.0399084
0.0661275
0.131194
-0.000865486
-3.9587e-10
6.62303e-10
7.33e-11
2.97056e-11
1.9968e-11
1.286e-11
4.076e-12
-4.984e-12
-1.2328e-11
-1.6774e-11
-1.796e-11
-1.62684e-11
-1.2672e-11
-8.2736e-12
-3.952e-12
-2.52e-13
2.54e-12
4.352e-12
5.292e-12
5.5624e-12
5.3916e-12
4.96744e-12
4.4398e-12
3.8648e-12
3.2772e-12
2.6868e-12
2.1068e-12
1.572e-12
1.076e-12
6.56e-13
3.168e-13
5.96e-14
-1.248e-13
-2.492e-13
-3.236e-13
-3.566e-13
-3.542e-13
0.0047561
-0.0140801
0.00501284
0.0333185
0.00231192
-0.0313411
0.00770575
-0.010353
0.0317676
-0.003754
-0.0005276
0.0242984
-0.0148172
0.0107188
0.015582
0.038848
-0.0990872
-0.11005
0.0350856
0.0861168
-0.0121168
0.00035548
0.0086386
0.00674972
-0.00491172
-0.0201307
-0.00973364
-0.00463736
0.0149157
0.0323511
0.000268944
-0.0192637
-0.0408153
0.0698738
-0.0207364
0.040527
0.0604172
-0.0577388
0.0155836
0.0196256
0.030602
-0.0391628
-0.0055872
0.0529548
-0.0166928
-0.0544352
0.004466
0.006428
0.0102627
-0.0181168
0.00946808
0.0286152
-0.0237548
-0.0137232
-0.0130444
-0.0001948
-0.0126836
-0.0048232
-0.0101376
0.0338492
0.03204
-0.0126076
-0.0089108
0.00041224
0.00748664
-0.0180523
-0.0234614
-0.0178717
-0.00488078
0.0307638
0.0429401
0.0332083
0.0379023
-0.0101301
-0.00638072
-0.0126392
0.098196
-0.0277729
0.030302
-0.14667
-0.0406968
0.132095
-0.00175357
-6.2804e-10
4.10741e-10
4.91753e-11
4.33988e-11
3.59452e-11
2.3236e-11
7.232e-12
-8.024e-12
-1.9492e-11
-2.57212e-11
-2.65788e-11
-2.30252e-11
-1.68172e-11
-9.7936e-12
-3.356e-12
1.724e-12
5.172e-12
7.08e-12
7.756e-12
7.5788e-12
6.9052e-12
6.0208e-12
5.0944e-12
4.2232e-12
3.424e-12
2.6944e-12
2.036e-12
1.444e-12
9.28e-13
4.96e-13
1.56e-13
-1.016e-13
-2.844e-13
-4.1e-13
-4.84e-13
-5.1592e-13
-5.0808e-13
0.0115218
-0.0299728
-0.0394486
0.0431718
0.0312519
-0.0180999
-0.0109343
-0.0131039
0.0401555
-0.01767
0.0065506
0.0212468
0.0082612
0.0081762
0.00496588
-0.0313634
-0.0204815
0.030332
0.09921
0.0394282
-0.0360816
-0.024075
-0.00284228
-0.0130282
-0.00547888
0.00818848
0.00464104
-0.0143819
0.059031
-0.00852117
0.0085296
0.0280515
-0.142009
-0.0309823
0.082093
0.0216281
-0.0442744
-0.0598054
-0.0373596
-0.0495764
0.0705832
0.0796932
0.015424
0.0396924
0.0002672
-0.0462208
-0.0146468
0.0180304
0.00817852
-0.0062282
0.00770064
0.0593408
0.0438492
0.0244264
-0.0125568
-0.0082168
0.0025856
-0.017246
0.0040224
-0.0491152
0.0140276
0.0211564
0.037676
-0.0201786
-0.01055
-0.0074186
0.0125647
0.00552926
0.0438197
0.0452996
0.0123277
-0.0401512
-0.062735
-0.0510742
0.053823
0.0253077
-0.0303348
-0.0374715
0.117259
-0.135362
-0.0890352
0.198404
-0.00211525
-3.74935e-10
3.68552e-10
3.65332e-11
5.91076e-11
5.74544e-11
3.7072e-11
9.712e-12
-1.4836e-11
-3.1912e-11
-4.008e-11
-3.9654e-11
-3.25896e-11
-2.197e-11
-1.08544e-11
-1.396e-12
5.392e-12
9.416e-12
1.1108e-11
1.1128e-11
1.01444e-11
8.6864e-12
7.13616e-12
5.6992e-12
4.4588e-12
3.422e-12
2.556e-12
1.82e-12
1.196e-12
6.84e-13
2.6e-13
-6.8e-14
-3.116e-13
-4.792e-13
-5.916e-13
-6.604e-13
-6.8428e-13
-6.7292e-13
0.00810982
0.00470164
-0.0328739
-0.0202643
0.0152794
0.0437888
-0.00945104
-0.0246895
0.0102349
-0.0112888
0.00304836
-0.0161724
-0.0532954
-0.0226574
0.011485
0.0137304
0.0264193
0.0115259
0.0382285
-0.00277564
-0.0172867
-0.00627484
0.00054568
0.0128277
-0.0093406
-0.0299891
-0.0073656
0.0787147
-0.0539783
-0.0625316
0.00193692
-0.0799396
0.0278582
0.100923
0.0496824
0.0124468
-0.0364267
0.0437292
0.0910087
-0.0753214
-0.111725
-0.0535358
0.040476
0.0132776
-0.0239592
0.0079344
-0.012996
0.019222
0.0615524
0.020472
0.0292169
0.0047494
-0.0189782
0.054765
0.0696194
-0.0217236
0.0053644
0.0077544
-0.0036848
-0.000224
-0.0274676
0.0460916
0.0106832
0.0342616
-0.0120036
0.0042386
0.0124404
0.00458268
0.000414
-0.0141086
-0.0655532
-0.0158549
0.0173393
0.0710731
0.0220086
0.0296508
0.0143456
-0.0375648
0.0715588
-0.178271
-0.126697
0.21663
-0.00200231
-4.18679e-10
3.9276e-10
5.12015e-11
9.93984e-11
9.8024e-11
5.80976e-11
9.484e-12
-2.9164e-11
-5.3332e-11
-6.304e-11
-5.93995e-11
-4.5888e-11
-2.78445e-11
-1.0404e-11
3.2e-12
1.1872e-11
1.6044e-11
1.6856e-11
1.5564e-11
1.32364e-11
1.0626e-11
8.1792e-12
6.1124e-12
4.4604e-12
3.18e-12
2.196e-12
1.42e-12
8.04e-13
3.16e-13
-6.4e-14
-3.56e-13
-5.676e-13
-7.032e-13
-7.948e-13
-8.512e-13
-8.5968e-13
-8.3952e-13
-0.0207592
0.0225984
0.0100869
-0.0194665
-0.0159
0.0323725
-0.00459412
-0.0177786
0.0090222
-0.025694
0.0001182
0.00455244
0.0345412
-0.00937185
-0.0163717
0.0433375
0.0291109
-0.0469525
0.0078948
0.0202253
-0.0295353
-0.00191928
-0.00435212
0.0030728
0.0171908
-0.0107056
0.028834
-0.0450684
-0.0787784
0.0756496
0.0823348
0.0400504
-0.071416
-0.0162024
-0.0435496
-0.0937456
-0.0353732
0.0022796
0.034452
0.00391584
-0.00783628
-0.126777
0.0068428
0.0647196
-0.004776
-0.016348
0.0229464
-0.0547996
0.016712
0.00095416
0.00722028
0.0176019
-0.00416816
0.0102453
0.0226994
-0.0338712
-0.0071888
0.006966
0.0123052
0.018374
-0.0373528
0.010628
0.0255888
0.0447594
0.003714
0.0106572
0.00232268
-0.0032194
-0.0119714
-0.0060444
0.0264905
0.0727813
0.00173188
0.0123616
-0.0129884
-0.0045716
-0.0349752
-0.0150879
0.0962256
-0.183204
-0.09944
0.217524
-0.00186082
-4.36433e-10
3.37191e-10
7.18728e-11
1.89249e-10
1.77234e-10
8.78948e-11
-4.48e-13
-5.7924e-11
-8.926e-11
-9.9268e-11
-8.90132e-11
-6.384e-11
-3.33228e-11
-6.272e-12
1.2668e-11
2.2876e-11
2.6084e-11
2.4752e-11
2.1088e-11
1.66732e-11
1.24576e-11
8.896e-12
6.1136e-12
4.06e-12
2.588e-12
1.536e-12
7.84e-13
2.32e-13
-1.8e-13
-4.84e-13
-7.12e-13
-8.612e-13
-9.556e-13
-1.0136e-12
-1.0416e-12
-1.03668e-12
-1.00732e-12
0.0129824
0.0277769
-0.0176892
-0.0187205
-0.0119254
-0.0015024
-0.013935
0.00979552
-0.0006632
0.00110128
0.0160583
-0.0008184
0.0242705
-0.000604
0.0195664
-0.0016892
-0.0333604
0.0352056
-0.0437588
0.0130796
0.00274317
-0.002042
-0.0051246
0.001028
0.0174312
-0.0082196
-0.0285024
-0.0423892
0.100309
0.129628
-0.142498
-0.161249
-0.0901324
0.205501
0.181994
-0.0224292
0.0775388
0.0287716
-0.0053508
-0.075304
-0.177814
0.0163524
0.0458908
-0.0339504
0.0027332
-0.0482676
0.0948424
-0.0253596
-0.0404836
-0.00474128
0.0207799
0.0384605
-0.0327963
-0.00986412
0.0130385
-0.0229922
0.0416923
0.031592
-0.0359816
0.0034404
0.0206924
-0.0071692
0.0025776
-0.00072516
0.00278104
-0.00047984
0.00127208
-0.004841
-0.00526656
0.00486412
0.00080016
-0.0242836
-0.024142
-0.0682647
-0.0357189
0.0441532
0.0170044
0.071834
0.0422684
-0.173794
-0.0614972
0.185716
-0.00182562
-3.82839e-10
9.11536e-11
1.1924e-10
4.0826e-10
3.33787e-10
1.16758e-10
-4.0904e-11
-1.12612e-10
-1.46468e-10
-1.55708e-10
-1.33506e-10
-8.7192e-11
-3.55336e-11
5.828e-12
3.0824e-11
4.0888e-11
4.0692e-11
3.5024e-11
2.74188e-11
1.99756e-11
1.36976e-11
8.874e-12
5.408e-12
3.056e-12
1.508e-12
5.16e-13
-1.2e-13
-5.36e-13
-8.12e-13
-1e-12
-1.116e-12
-1.188e-12
-1.2244e-12
-1.2356e-12
-1.2308e-12
-1.2092e-12
-1.168e-12
-0.029191
-0.0553056
0.084244
0.0636524
-0.0265116
0.0179564
-0.0104268
0.00730105
0.00945332
-0.00950193
0.0147355
-0.0615275
-0.0506428
0.02985
0.0086168
0.0326816
-0.0098444
0.0173824
0.024356
0.0488764
-0.0133908
-0.00721608
-0.0067548
-0.010952
-0.0186188
0.0158764
0.0346872
-0.0003124
0.0720652
-0.139045
-0.0740008
0.165362
0.121154
0.0779024
-0.143317
-0.0944632
-0.0406148
-0.0641484
0.0204228
-0.0229472
-0.131384
0.0716337
0.236166
0.00207912
-0.17746
-0.162812
0.063252
-0.028846
0.0034022
-0.0012816
0.0189727
-0.0125995
-0.0150017
-0.0121241
-0.0622738
0.00256332
-0.0461612
0.0107622
0.0370343
-0.0256712
-0.0084828
0.0255604
0.016304
0.0200248
0.0330476
0.00728876
-0.0085759
-0.00226348
0.00814016
0.00857164
0.00791574
-0.00174215
0.0223801
-0.0127985
0.0461811
0.0261979
0.0379675
-0.0186696
0.0219836
-0.161126
-0.0854134
0.141082
-0.00195739
-3.78923e-10
-7.57312e-10
3.2974e-10
9.90818e-10
6.329e-10
8.63892e-11
-1.67208e-10
-2.05132e-10
-2.2822e-10
-2.43532e-10
-2.02108e-10
-1.15996e-10
-2.764e-11
3.4204e-11
6.3876e-11
6.916e-11
6.0796e-11
4.7272e-11
3.36256e-11
2.2176e-11
1.35544e-11
7.544e-12
3.624e-12
1.22e-12
-1.72e-13
-9.28e-13
-1.312e-12
-1.492e-12
-1.564e-12
-1.58e-12
-1.564e-12
-1.5332e-12
-1.4992e-12
-1.4504e-12
-1.4124e-12
-1.36044e-12
-1.31236e-12
0.0327322
0.00694824
-0.0160512
-0.0235444
0.0352336
0.0032908
-0.00329132
0.0130054
-0.0165808
-0.0154286
0.0110733
0.0221888
0.024454
-0.029766
0.0046648
-0.0374572
-0.0171188
-0.0309152
0.0523636
-0.0108704
0.0377913
-0.00530516
0.0151123
0.0008648
-0.0046556
0.0262104
-0.0045868
0.0454132
-0.107672
-0.0878552
0.204511
-0.034858
-0.209493
0.0318536
-0.0078948
0.0554612
0.0774576
0.0722912
-0.0478656
0.134431
-0.0282988
-0.132109
0.147598
0.271698
-0.0872808
-0.249767
0.139407
-0.0268044
-0.0272368
-0.059022
-0.036402
-0.0352461
-0.0508141
-0.0857513
-0.0523348
0.0243114
0.0174745
0.0285561
-0.0272173
0.0092412
-0.0265014
0.019526
-0.056516
-0.025732
-0.00163956
0.0043144
-0.00210368
-0.00859988
-0.00880344
-0.00669104
-0.00393308
0.000342
0.0101261
-0.00130478
0.019689
-0.0412852
0.0306246
-0.0324228
0.0329193
-0.158792
-0.0773641
0.122602
-0.00190792
-1.61222e-10
-3.85451e-09
1.40574e-09
2.5925e-09
1.12022e-09
-2.36812e-10
-5.09172e-10
-3.12492e-10
-3.17464e-10
-3.88004e-10
-3.15476e-10
-1.47172e-10
6.568e-12
9.4596e-11
1.2128e-10
1.11092e-10
8.6096e-11
5.96472e-11
3.76772e-11
2.16124e-11
1.086e-11
4.184e-12
3.48e-13
-1.652e-12
-2.536e-12
-2.812e-12
-2.772e-12
-2.604e-12
-2.4e-12
-2.2e-12
-2.028e-12
-1.8752e-12
-1.746e-12
-1.64e-12
-1.5588e-12
-1.48348e-12
-1.42852e-12
0.0172395
0.00489768
-0.040232
-0.014686
0.0146444
0.0175891
-0.019338
-0.00964148