/*--------------------------------*- C++ -*----------------------------------*\
  =========                 |
  \\      /  F ield         | OpenFOAM: The Open Source CFD Toolbox
   \\    /   O peration     | Website:  https://openfoam.org
    \\  /    A nd           | Version:  6
     \\/     M anipulation  |
\*---------------------------------------------------------------------------*/
FoamFile
{
    version     2.0;
    format      ascii;
    class       GlobalVariablesRepository;
    location    "120/swak4Foam";
    object      global_variables;
}
// * * * * * * * * * * * * * * * * * * * * * * * * * * * * * * * * * * * * * //


0
(
)

// ************************************************************************* //
