/*--------------------------------*- C++ -*----------------------------------*\
  =========                 |
  \\      /  F ield         | OpenFOAM: The Open Source CFD Toolbox
   \\    /   O peration     | Website:  https://openfoam.org
    \\  /    A nd           | Version:  6
     \\/     M anipulation  |
\*---------------------------------------------------------------------------*/
FoamFile
{
    version     2.0;
    format      ascii;
    class       surfaceScalarField;
    location    "450";
    object      phi;
}
// * * * * * * * * * * * * * * * * * * * * * * * * * * * * * * * * * * * * * //

dimensions      [0 3 -1 0 0 0 0];

internalField   nonuniform List<scalar> 
9440
(
-2.58765e-12
2.58765e-12
-1.96288e-11
1.70414e-11
-6.41161e-11
4.44876e-11
-1.07658e-10
4.35424e-11
-1.48093e-10
4.04347e-11
-2.0547e-10
5.73777e-11
-2.69698e-10
6.42279e-11
-3.73047e-10
1.03349e-10
-5.07339e-10
1.34293e-10
-6.43478e-10
1.36139e-10
-7.36839e-10
9.33623e-11
-7.23037e-10
-1.38025e-11
-5.86386e-10
-1.3665e-10
-4.62531e-10
-1.23854e-10
-3.24827e-10
-1.37704e-10
-1.31296e-10
-1.93531e-10
1.37688e-10
-2.68984e-10
2.86002e-10
-1.48314e-10
4.17905e-10
-1.31904e-10
4.2952e-10
-1.16153e-11
6.43219e-10
-2.13699e-10
7.02796e-10
-5.9578e-11
7.41701e-10
-3.89059e-11
7.83355e-10
-4.16551e-11
7.7832e-10
5.03428e-12
7.32701e-10
4.56186e-11
6.83329e-10
4.93704e-11
6.15567e-10
6.77612e-11
5.4459e-10
7.09763e-11
4.8307e-10
6.15198e-11
4.30615e-10
5.24535e-11
3.97747e-10
3.28679e-11
2.99798e-10
9.79478e-11
-1.97941e-12
3.01777e-10
-1.56816e-10
1.54836e-10
-1.76335e-10
1.95169e-11
-2.55955e-10
7.96188e-11
-3.68024e-10
1.12068e-10
-4.89177e-10
1.21151e-10
-6.29782e-10
1.40604e-10
-8.29066e-10
1.99282e-10
-1.06095e-09
2.31882e-10
-1.38927e-09
3.28318e-10
-1.7803e-09
3.91029e-10
-2.08728e-09
3.06977e-10
-2.26356e-09
1.76287e-10
-2.42645e-09
1.62887e-10
-2.48018e-09
5.37243e-11
-2.48726e-09
7.07689e-12
-2.49694e-09
9.68303e-12
-2.50891e-09
1.19694e-11
-2.53325e-09
2.43374e-11
-2.59802e-09
6.47667e-11
-2.65245e-09
5.4433e-11
-2.67651e-09
2.40566e-11
-2.68702e-09
1.05018e-11
-2.67547e-09
-1.15495e-11
-2.644e-09
-3.14701e-11
-2.6745e-09
3.04983e-11
-2.71678e-09
4.22804e-11
-2.78295e-09
6.6177e-11
-2.82119e-09
3.82384e-11
-2.83415e-09
1.29588e-11
-2.8381e-09
3.95341e-12
-2.8449e-09
6.79311e-12
-2.84991e-09
5.01381e-12
-2.83764e-09
-1.22739e-11
-2.8404e-09
2.76602e-12
-2.8346e-09
-5.80431e-12
-2.7562e-09
-7.83995e-11
-2.64526e-09
-1.10936e-10
-2.51891e-09
-1.26355e-10
-2.47116e-09
-4.77518e-11
-2.2729e-09
-1.98252e-10
-2.08296e-09
-1.89947e-10
-2.0063e-09
-7.66551e-11
-1.70265e-09
-3.03651e-10
-1.30924e-09
-3.93407e-10
-8.33349e-10
-4.75889e-10
-1.17167e-14
-8.33328e-10
2.59059e-18
2.29546e-18
1.29556e-18
1.29503e-18
6.6733e-19
6.31528e-19
3.73861e-19
2.93313e-19
2.56142e-19
1.17089e-19
2.3598e-19
1.99982e-20
2.73011e-19
-3.67735e-20
3.4462e-19
-7.11082e-20
4.36909e-19
-9.16645e-20
5.40523e-19
-1.02969e-19
6.48678e-19
-1.07618e-19
7.5625e-19
-1.07261e-19
8.59297e-19
-1.03066e-19
9.54782e-19
-9.59264e-20
1.04042e-18
-8.65537e-20
1.11459e-18
-7.55404e-20
1.17625e-18
-6.33942e-20
1.2248e-18
-5.05503e-20
1.26005e-18
-3.73811e-20
1.28213e-18
-2.42072e-20
1.29141e-18
-1.12983e-20
1.28841e-18
1.1367e-21
1.27379e-18
1.29436e-20
1.24832e-18
2.40029e-20
1.2128e-18
3.42151e-20
1.16804e-18
4.35083e-20
1.11484e-18
5.18562e-20
1.05403e-18
5.92809e-20
9.86461e-19
6.5836e-20
9.12961e-19
7.15797e-20
8.3431e-19
7.65589e-20
7.51212e-19
8.08136e-20
6.64307e-19
8.43885e-20
5.74212e-19
8.73437e-20
4.81546e-19
8.97532e-20
3.86927e-19
9.16931e-20
2.90939e-19
9.32244e-20
1.94104e-19
9.43694e-20
9.69102e-20
9.50677e-20
9.50395e-20
-6.49147e-11
6.75027e-11
-1.02269e-10
5.43958e-11
-1.07474e-10
4.96931e-11
-1.22674e-10
5.87429e-11
-1.53693e-10
7.14547e-11
-1.73944e-10
7.76286e-11
-2.93781e-10
1.84066e-10
-4.15659e-10
2.25229e-10
-5.15696e-10
2.3433e-10
-5.75571e-10
1.96014e-10
-5.84693e-10
1.02485e-10
-5.27706e-10
-7.0789e-11
-4.39051e-10
-2.25305e-10
-2.72726e-10
-2.90179e-10
-1.05195e-10
-3.05234e-10
1.38691e-10
-4.37418e-10
3.23769e-10
-4.54061e-10
5.05355e-10
-3.299e-10
6.28381e-10
-2.54931e-10
7.13342e-10
-9.65774e-11
7.75981e-10
-2.76339e-10
8.28897e-10
-1.12495e-10
8.26404e-10
-3.6414e-11
8.07852e-10
-2.3105e-11
7.79888e-10
3.29967e-11
7.41963e-10
8.35427e-11
7.26833e-10
6.44985e-11
7.02993e-10
9.15993e-11
6.70277e-10
1.03691e-10
6.08172e-10
1.23624e-10
5.89624e-10
7.10001e-11
5.01376e-10
1.21114e-10
3.63681e-10
2.35642e-10
3.349e-10
3.30555e-10
2.78395e-10
2.11339e-10
9.80946e-11
1.99815e-10
-1.01273e-10
2.78984e-10
-2.7746e-10
2.88252e-10
-4.41101e-10
2.84791e-10
-6.13486e-10
3.12987e-10
-7.34859e-10
3.20653e-10
-9.2294e-10
4.1996e-10
-1.18541e-09
5.90789e-10
-1.42898e-09
6.34594e-10
-1.65194e-09
5.29932e-10
-1.7968e-09
3.21144e-10
-1.83255e-09
1.98632e-10
-1.80569e-09
2.68681e-11
-1.77341e-09
-2.52033e-11
-1.76754e-09
3.80346e-12
-1.75333e-09
-2.23988e-12
-1.76639e-09
3.73891e-11
-1.79372e-09
9.20991e-11
-1.80091e-09
6.16214e-11
-1.79609e-09
1.92324e-11
-1.76541e-09
-2.01811e-11
-1.75957e-09
-1.73835e-11
-1.70939e-09
-8.16513e-11
-1.7791e-09
1.00199e-10
-1.84963e-09
1.12818e-10
-1.8661e-09
8.26405e-11
-2.00812e-09
1.8026e-10
-1.98675e-09
-8.41289e-12
-2.11162e-09
1.28827e-10
-2.15799e-09
5.31667e-11
-2.21084e-09
5.78651e-11
-2.2218e-09
-1.32168e-12
-2.20001e-09
-1.90234e-11
-2.1784e-09
-2.74098e-11
-2.09191e-09
-1.6489e-10
-2.03256e-09
-1.7029e-10
-1.96241e-09
-1.96501e-10
-1.85972e-09
-1.5044e-10
-1.58067e-09
-4.77301e-10
-1.4298e-09
-3.40816e-10
-1.23513e-09
-2.71322e-10
-1.064e-09
-4.74788e-10
-9.29784e-10
-5.27619e-10
-5.81332e-10
-8.24351e-10
1.03863e-16
-1.41469e-09
1.38706e-18
4.61237e-18
6.31323e-19
2.04455e-18
3.28922e-19
9.32535e-19
1.97802e-19
4.24609e-19
1.59051e-19
1.56272e-19
1.79208e-19
3.75854e-22
2.38677e-19
-9.55784e-20
3.24063e-19
-1.55741e-19
4.25605e-19
-1.92474e-19
5.35874e-19
-2.12691e-19
6.49036e-19
-2.20613e-19
7.60445e-19
-2.19065e-19
8.66437e-19
-2.10115e-19
9.64155e-19
-1.9539e-19
1.05143e-18
-1.76229e-19
1.12674e-18
-1.53778e-19
1.18909e-18
-1.2904e-19
1.23797e-18
-1.02895e-19
1.27322e-18
-7.61071e-20
1.29504e-18
-4.93388e-20
1.30384e-18
-2.31457e-20
1.30021e-18
2.01796e-21
1.28485e-18
2.57917e-20
1.25853e-18
4.7907e-20
1.22209e-18
6.81935e-20
1.17638e-18
8.65797e-20
1.12226e-18
1.0308e-19
1.06059e-18
1.17757e-19
9.92204e-19
1.30691e-19
9.1794e-19
1.4197e-19
8.38565e-19
1.51692e-19
7.54787e-19
1.59988e-19
6.67262e-19
1.67016e-19
5.76622e-19
1.72944e-19
4.83486e-19
1.77918e-19
3.88459e-19
1.82041e-19
2.92084e-19
1.85362e-19
1.94803e-19
1.87877e-19
9.68819e-20
1.89551e-19
1.90354e-19
-4.20458e-11
1.09549e-10
-8.16462e-11
9.39964e-11
-1.04168e-10
7.22154e-11
-1.12661e-10
6.72356e-11
-1.48212e-10
1.07007e-10
-2.20217e-10
1.49634e-10
-2.8767e-10
2.51518e-10
-3.62822e-10
3.00381e-10
-4.04522e-10
2.7603e-10
-4.05847e-10
1.9734e-10
-3.41348e-10
3.79866e-11
-2.87762e-10
-1.24375e-10
-1.46275e-10
-3.66791e-10
8.71745e-11
-5.23629e-10
2.81176e-10
-4.99235e-10
3.64256e-10
-5.20498e-10
4.7069e-10
-5.60495e-10
6.46599e-10
-5.0581e-10
7.00788e-10
-3.09121e-10
8.37781e-10
-2.3357e-10
8.05019e-10
-2.43579e-10
8.95695e-10
-2.03171e-10
8.81473e-10
-2.2193e-11
8.6409e-10
-5.72311e-12
8.42435e-10
5.46508e-11
8.1566e-10
1.10316e-10
7.73372e-10
1.06785e-10
7.68966e-10
9.60045e-11
7.29801e-10
1.42855e-10
6.6442e-10
1.89004e-10
6.11521e-10
1.23898e-10
4.36976e-10
2.95657e-10
3.85503e-10
2.87113e-10
3.74884e-10
3.41172e-10
2.21059e-10
3.65163e-10
-2.11534e-11
4.42025e-10
-1.49951e-10
4.07779e-10
-2.51266e-10
3.89565e-10
-3.5758e-10
3.91103e-10
-4.86936e-10
4.42341e-10
-6.2604e-10
4.59755e-10
-7.63371e-10
5.5729e-10
-9.00421e-10
7.27837e-10
-1.10262e-09
8.3679e-10
-1.26046e-09
6.87771e-10
-1.3701e-09
4.30778e-10
-1.43387e-09
2.62406e-10
-1.52044e-09
1.13438e-10
-1.53112e-09
-1.4525e-11
-1.47752e-09
-4.98037e-11
-1.34101e-09
-1.38755e-10
-1.19988e-09
-1.0374e-10
-1.09381e-09
-1.39717e-11
-1.04794e-09
1.57523e-11
-1.06125e-09
3.25404e-11
-1.15457e-09
7.31325e-11
-1.11173e-09
-6.02215e-11
-1.21894e-09
2.55611e-11
-1.27456e-09
1.55815e-10
-1.39042e-09
2.28671e-10
-1.45822e-09
1.50449e-10
-1.57718e-09
2.99216e-10
-1.71822e-09
1.32622e-10
-1.83747e-09
2.48081e-10
-1.93465e-09
1.5035e-10
-2.01441e-09
1.37619e-10
-2.02919e-09
1.34551e-11
-2.01771e-09
-3.05018e-11
-1.97702e-09
-6.80971e-11
-1.95154e-09
-1.90367e-10
-1.82695e-09
-2.94882e-10
-1.76818e-09
-2.55271e-10
-1.64005e-09
-2.78566e-10
-1.41311e-09
-7.04241e-10
-1.14014e-09
-6.13783e-10
-8.19303e-10
-5.92163e-10
-5.34496e-10
-7.59593e-10
-3.66072e-10
-6.96035e-10
-3.52374e-10
-8.38033e-10
6.52427e-16
-1.76706e-09
-1.57026e-18
2.06239e-19
-4.8007e-19
9.54244e-19
-1.7843e-19
6.30176e-19
-7.01299e-20
3.15997e-19
3.15468e-21
8.28298e-20
8.32538e-20
-7.98409e-20
1.78514e-19
-1.90936e-19
2.87331e-19
-2.64647e-19
4.05388e-19
-3.10633e-19
5.27952e-19
-3.35422e-19
6.50584e-19
-3.43579e-19
7.69395e-19
-3.3848e-19
8.81162e-19
-3.22807e-19
9.83316e-19
-2.98801e-19
1.07388e-18
-2.68388e-19
1.15148e-18
-2.33257e-19
1.21524e-18
-1.94901e-19
1.26475e-18
-1.54637e-19
1.29999e-18
-1.13613e-19
1.32123e-18
-7.28277e-20
1.329e-18
-3.31207e-20
1.32399e-18
4.8401e-21
1.30697e-18
4.05631e-20
1.27882e-18
7.37143e-20
1.24048e-18
1.04091e-19
1.19288e-18
1.31607e-19
1.13694e-18
1.56268e-19
1.07352e-18
1.78158e-19
1.00348e-18
1.97405e-19
9.27662e-19
2.1417e-19
8.46861e-19
2.28641e-19
7.61816e-19
2.4103e-19
6.7319e-19
2.51569e-19
5.81596e-19
2.60482e-19
4.87609e-19
2.67955e-19
3.91779e-19
2.74123e-19
2.946e-19
2.79051e-19
1.96476e-19
2.82752e-19
9.76848e-20
2.85203e-19
2.86389e-19
-4.37076e-11
1.53256e-10
-5.93142e-11
1.09603e-10
-8.0982e-11
9.38833e-11
-8.90789e-11
7.53327e-11
-1.25439e-10
1.43367e-10
-1.97e-10
2.21195e-10
-2.50371e-10
3.04889e-10
-2.77702e-10
3.27713e-10
-2.76912e-10
2.7524e-10
-2.16979e-10
1.37407e-10
-1.63915e-10
-1.50768e-11
-1.163e-11
-2.7666e-10
1.08036e-10
-4.86457e-10
2.02802e-10
-6.18395e-10
4.20867e-10
-7.173e-10
5.3973e-10
-6.39361e-10
5.65267e-10
-5.86032e-10
6.5504e-10
-5.95583e-10
7.46557e-10
-4.00638e-10
8.31642e-10
-3.18655e-10
8.24085e-10
-2.36022e-10
8.79988e-10
-2.59075e-10
9.15767e-10
-5.79725e-11
8.90371e-10
1.96718e-11
8.76741e-10
6.82808e-11
8.62781e-10
1.24274e-10
8.05947e-10
1.63618e-10
7.6578e-10
1.3617e-10
7.08614e-10
2.00019e-10
6.35692e-10
2.61924e-10
5.40307e-10
2.1928e-10
4.67995e-10
3.67968e-10
3.74065e-10
3.81041e-10
2.49164e-10
4.66071e-10
3.72184e-11
5.77107e-10
-1.59953e-10
6.39194e-10
-2.38319e-10
4.86144e-10
-2.5308e-10
4.04324e-10
-2.9882e-10
4.36841e-10
-3.65501e-10
5.09019e-10
-4.60796e-10
5.55048e-10
-5.44494e-10
6.40986e-10
-5.12563e-10
6.95904e-10
-5.52992e-10
8.77217e-10
-8.11589e-10
9.46366e-10
-1.08629e-09
7.05479e-10
-1.18396e-09
3.60068e-10
-1.23074e-09
1.60223e-10
-1.2414e-09
-3.8654e-12
-1.19094e-09
-1.00274e-10
-1.10403e-09
-2.2566e-10
-9.65293e-10
-2.42482e-10
-8.61111e-10
-1.18155e-10
-8.60721e-10
1.53598e-11
-9.04001e-10
7.5819e-11
-1.03136e-09
2.00489e-10
-1.11019e-09
1.86057e-11
-1.2783e-09
1.93668e-10
-1.34698e-09
2.24496e-10
-1.40345e-09
2.85144e-10
-1.55055e-09
2.97543e-10
-1.58601e-09
3.34679e-10
-1.753e-09
2.99614e-10
-1.79547e-09
2.90548e-10
-1.85806e-09
2.12937e-10
-1.91104e-09
1.90602e-10
-1.89183e-09
-5.76209e-12
-1.86994e-09
-5.23872e-11
-1.83888e-09
-9.91529e-11
-1.8496e-09
-1.79654e-10
-1.75089e-09
-3.93593e-10
-1.6474e-09
-3.58755e-10
-1.46083e-09
-4.65141e-10
-1.41295e-09
-7.52118e-10
-1.12529e-09
-9.01444e-10
-8.76003e-10
-8.4145e-10
-8.09358e-10
-8.26241e-10
-5.95312e-10
-9.10086e-10
-2.58011e-10
-1.17533e-09
1.55745e-16
-2.02507e-09
-1.36971e-18
-7.43715e-19
-8.03563e-19
3.88376e-19
-4.92047e-19
3.18275e-19
-3.02882e-19
1.26301e-19
-1.59516e-19
-6.11522e-20
-2.7841e-20
-2.12217e-19
1.04802e-19
-3.24356e-19
2.41345e-19
-4.0201e-19
3.80598e-19
-4.50688e-19
5.19796e-19
-4.75339e-19
6.55683e-19
-4.80121e-19
7.85067e-19
-4.6853e-19
9.05168e-19
-4.43624e-19
1.01373e-18
-4.08145e-19
1.10902e-18
-3.64562e-19
1.18983e-18
-3.15101e-19
1.2555e-18
-2.61757e-19
1.30578e-18
-2.06286e-19
1.34077e-18
-1.50205e-19
1.36094e-18
-9.48017e-20
1.36697e-18
-4.11445e-20
1.35971e-18
9.92721e-21
1.34012e-18
5.78073e-20
1.3092e-18
1.02099e-19
1.268e-18
1.42579e-19
1.21755e-18
1.79169e-19
1.15883e-18
2.11905e-19
1.09277e-18
2.4092e-19
1.02025e-18
2.6641e-19
9.42133e-19
2.8861e-19
8.59251e-19
3.07781e-19
7.72355e-19
3.24203e-19
6.82102e-19
3.3816e-19
5.89069e-19
3.49926e-19
4.93777e-19
3.59737e-19
3.96707e-19
3.67769e-19
2.98301e-19
3.74132e-19
1.98927e-19
3.78871e-19
9.88704e-20
3.8199e-19
3.83492e-19
-5.45855e-11
2.07842e-10
-7.76895e-11
1.32707e-10
-8.85032e-11
1.04697e-10
-7.31427e-11
5.99723e-11
-1.27422e-10
1.97647e-10
-2.03907e-10
2.97679e-10
-2.19856e-10
3.20839e-10
-2.11637e-10
3.19493e-10
-1.64343e-10
2.27947e-10
-9.78339e-11
7.08982e-11
3.73821e-11
-1.50293e-10
2.0857e-10
-4.47848e-10
3.24505e-10
-6.02392e-10
3.80186e-10
-6.74076e-10
4.12136e-10
-7.49249e-10
4.96802e-10
-7.24026e-10
5.82361e-10
-6.71592e-10
6.49426e-10
-6.62648e-10
7.33591e-10
-4.84803e-10
8.14017e-10
-3.99081e-10
8.51751e-10
-2.73756e-10
8.4528e-10
-2.52604e-10
8.47864e-10
-6.05568e-11
8.44472e-10
2.30631e-11
8.45603e-10
6.71491e-11
8.19789e-10
1.50086e-10
7.85206e-10
1.98199e-10
7.24702e-10
1.96673e-10
6.46206e-10
2.78513e-10
5.3725e-10
3.70878e-10
4.48245e-10
3.08283e-10
3.62956e-10
4.53254e-10
2.17035e-10
5.2696e-10
6.9623e-11
6.13481e-10
-7.65524e-11
7.23281e-10
-1.48624e-10
7.11264e-10
-1.84285e-10
5.21803e-10
-2.05147e-10
4.25184e-10
-2.3293e-10
4.64621e-10
-2.33427e-10
5.09515e-10
-2.39657e-10
5.61276e-10
-3.09544e-10
7.10871e-10
-3.90023e-10
7.76381e-10
-2.88391e-10
7.75583e-10
-6.99144e-11
7.27888e-10
-9.5777e-11
7.3134e-10
-3.49107e-10
6.13396e-10
-6.00693e-10
4.11807e-10
-7.68365e-10
1.63806e-10
-7.42347e-10
-1.26294e-10
-7.3374e-10
-2.34269e-10
-7.43313e-10
-2.32911e-10
-7.50151e-10
-1.11319e-10
-7.70898e-10
3.61052e-11
-8.42369e-10
1.47288e-10
-8.97751e-10
2.5587e-10
-1.09334e-09
2.14191e-10
-1.20854e-09
3.08864e-10
-1.32486e-09
3.40822e-10
-1.39446e-09
3.54737e-10
-1.4876e-09
3.90686e-10
-1.55151e-09
3.98582e-10
-1.63311e-09
3.81214e-10
-1.6771e-09
3.34542e-10
-1.68995e-09
2.25781e-10
-1.67634e-09
1.76991e-10
-1.70232e-09
2.0221e-11
-1.62905e-09
-1.25658e-10
-1.60413e-09
-1.24076e-10
-1.57071e-09
-2.13069e-10
-1.52777e-09
-4.36532e-10
-1.41018e-09
-4.76347e-10
-1.22152e-09
-6.53804e-10
-1.06426e-09
-9.09373e-10
-8.81939e-10
-1.08376e-09
-6.3236e-10
-1.09103e-09
-2.00221e-10
-1.25838e-09
9.87543e-11
-1.20906e-09
-2.26972e-12
-1.07431e-09
-3.0599e-16
-2.02734e-09
-9.00167e-19
1.04982e-19
-8.73114e-19
3.61155e-19
-6.83471e-19
1.28566e-19
-4.89912e-19
-6.76479e-20
-3.10581e-19
-2.41189e-19
-1.3998e-19
-3.83771e-19
2.71474e-20
-4.92609e-19
1.92668e-19
-5.68763e-19
3.55947e-19
-6.15183e-19
5.15014e-19
-6.35438e-19
6.67273e-19
-6.33151e-19
8.09974e-19
-6.118e-19
9.40647e-19
-5.74724e-19
1.05731e-18
-5.25125e-19
1.15848e-18
-4.66016e-19
1.24318e-18
-4.00172e-19
1.31097e-18
-3.30096e-19
1.36186e-18
-2.57983e-19
1.39618e-18
-1.85702e-19
1.4146e-18
-1.14802e-19
1.41804e-18
-4.6539e-20
1.40759e-18
1.81113e-20
1.38441e-18
7.84514e-20
1.34968e-18
1.34044e-19
1.30458e-18
1.84673e-19
1.25028e-18
2.30299e-19
1.18785e-18
2.71025e-19
1.11826e-18
3.07053e-19
1.04245e-18
3.38658e-19
9.61304e-19
3.66151e-19
8.75673e-19
3.89861e-19
7.86312e-19
4.10127e-19
6.93868e-19
4.27293e-19
5.9888e-19
4.41689e-19
5.01809e-19
4.53611e-19
4.0307e-19
4.63294e-19
3.03039e-19
4.70903e-19
2.02047e-19
4.76532e-19
1.00372e-19
4.80223e-19
4.82004e-19
-4.26639e-11
2.50506e-10
-7.83199e-11
1.68363e-10
-1.2847e-10
1.54847e-10
-1.78737e-10
1.1024e-10
-1.88376e-10
2.07286e-10
-1.9282e-10
3.02124e-10
-1.90686e-10
3.18705e-10
-1.57508e-10
2.86315e-10
-9.75198e-11
1.67959e-10
2.18574e-11
-4.8479e-11
1.80293e-10
-3.08728e-10
2.44294e-10
-5.11849e-10
3.40391e-10
-6.98489e-10
4.04769e-10
-7.38455e-10
4.35626e-10
-7.80106e-10
4.8747e-10
-7.7587e-10
5.16232e-10
-7.00354e-10
5.35542e-10
-6.81957e-10
6.099e-10
-5.5916e-10
7.03825e-10
-4.93007e-10
6.93456e-10
-2.63387e-10
7.52681e-10
-3.1183e-10
7.35545e-10
-4.34207e-11
7.24605e-10
3.40022e-11
7.22822e-10
6.89314e-11
6.99942e-10
1.72965e-10
6.94635e-10
2.03505e-10
6.36139e-10
2.55168e-10
6.26691e-10
2.87959e-10
5.51127e-10
4.4644e-10
3.88895e-10
4.70513e-10
2.28157e-10
6.1399e-10
1.06494e-10
6.48622e-10
-4.01759e-12
7.23991e-10
-7.52764e-11
7.94538e-10
-1.11022e-10
7.47008e-10
-1.37738e-10
5.48518e-10
-1.55295e-10
4.42739e-10
-1.55499e-10
4.64823e-10
-1.32706e-10
4.86719e-10
-9.25058e-11
5.21073e-10
-1.54933e-11
6.33856e-10
3.35869e-11
7.27299e-10
4.12955e-11
7.67873e-10
-1.8035e-11
7.87217e-10
-5.14475e-12
7.18448e-10
6.60422e-11
5.42208e-10
7.56733e-11
4.02174e-10
2.10652e-11
2.18412e-10
-1.69059e-10
6.38288e-11
-3.72676e-10
-3.06537e-11
-5.47235e-10
-5.83536e-11
-6.58623e-10
6.73466e-14
-6.95852e-10
7.33327e-11
-7.45811e-10
1.97245e-10
-8.14522e-10
3.2458e-10
-9.96405e-10
3.96073e-10
-1.09765e-09
4.1011e-10
-1.19261e-09
4.35778e-10
-1.2799e-09
4.42025e-10
-1.34535e-09
4.5614e-10
-1.38859e-09
4.41819e-10
-1.4127e-09
4.05316e-10
-1.4062e-09
3.28048e-10
-1.38782e-09
2.07395e-10
-1.33584e-09
1.25015e-10
-1.34915e-09
3.35263e-11
-1.37232e-09
-1.02484e-10
-1.29936e-09
-1.97039e-10
-1.15955e-09
-3.52878e-10
-1.1533e-09
-4.42773e-10
-1.04835e-09
-5.81303e-10
-9.29991e-10
-7.72161e-10
-8.69466e-10
-9.69897e-10
-8.2641e-10
-1.12682e-09
-6.66331e-10
-1.25111e-09
-6.19283e-10
-1.30543e-09
-4.84473e-10
-1.34387e-09
-1.08678e-10
-1.45011e-09
-7.18028e-16
-2.13602e-09
-1.39713e-18
-7.70901e-19
-1.10515e-18
6.89339e-20
-8.79143e-19
-9.69591e-20
-6.63021e-19
-2.83654e-19
-4.53163e-19
-4.51409e-19
-2.48818e-19
-5.8889e-19
-4.90062e-20
-6.93474e-19
1.46247e-19
-7.6526e-19
3.35692e-19
-8.05938e-19
5.17301e-19
-8.18182e-19
6.88624e-19
-8.05254e-19
8.4705e-19
-7.70688e-19
9.90246e-19
-7.18152e-19
1.11642e-18
-6.51354e-19
1.22432e-18
-5.73896e-19
1.31325e-18
-4.89145e-19
1.38309e-18
-4.00143e-19
1.43414e-18
-3.09546e-19
1.46708e-18
-2.19581e-19
1.48286e-18
-1.32041e-19
1.48269e-18
-4.83324e-20
1.46793e-18
3.04841e-20
1.44e-18
1.03667e-19
1.40031e-18
1.70773e-19
1.35021e-18
2.31618e-19
1.29101e-18
2.86234e-19
1.22387e-18
3.34811e-19
1.14986e-18
3.77654e-19
1.06994e-18
4.1513e-19
9.85014e-19
4.47639e-19
8.95939e-19
4.7559e-19
8.03478e-19
4.99395e-19
7.08264e-19
5.19464e-19
6.10802e-19
5.36196e-19
5.11492e-19
5.49955e-19
4.10679e-19
5.61047e-19
3.08668e-19
5.69701e-19
2.05738e-19
5.76065e-19
1.02153e-19
5.80229e-19
5.82252e-19
7.15328e-12
2.43353e-10
-5.05837e-11
2.26101e-10
-7.9848e-11
1.84112e-10
-1.5236e-10
1.82752e-10
-1.92204e-10
2.4713e-10
-1.90993e-10
3.00913e-10
-1.74414e-10
3.02127e-10
-1.22913e-10
2.34814e-10
-1.14926e-11
5.65384e-11
1.33491e-10
-1.93462e-10
2.41e-10
-4.16237e-10
2.93931e-10
-5.64779e-10
3.30587e-10
-7.35145e-10
3.37073e-10
-7.4494e-10
3.06082e-10
-7.49115e-10
3.2168e-10
-7.91467e-10
3.85484e-10
-7.64158e-10
4.25345e-10
-7.21819e-10
4.60671e-10
-5.94486e-10
4.75914e-10
-5.08249e-10
4.70135e-10
-2.57609e-10
4.81889e-10
-3.23583e-10
5.01881e-10
-6.34132e-11
5.25466e-10
1.04162e-11
5.10554e-10
8.38432e-11
5.11972e-10
1.71546e-10
5.11677e-10
2.03799e-10
4.57798e-10
3.09046e-10
3.35613e-10
4.10141e-10
2.31324e-10
5.50728e-10
1.32193e-10
5.69642e-10
6.20044e-11
6.84177e-10
-2.76602e-11
7.38285e-10
-1.02799e-10
7.99128e-10
-1.02348e-10
7.94085e-10
-8.24406e-11
7.27099e-10
-1.20705e-10
5.86781e-10
-1.31551e-10
4.53583e-10
-8.33207e-11
4.16591e-10
-2.14086e-12
4.05537e-10
4.9097e-11
4.69833e-10
1.27227e-10
5.55723e-10
1.79628e-10
6.74897e-10
2.46438e-10
7.01061e-10
3.37085e-10
6.96568e-10
4.20294e-10
6.35237e-10
3.84885e-10
5.77615e-10
3.15743e-10
4.71315e-10
1.91535e-10
3.4262e-10
1.65203e-11
2.38842e-10
-1.45756e-10
1.31621e-10
-2.82864e-10
7.87529e-11
-4.13452e-10
1.30653e-10
-5.61596e-10
2.21475e-10
-6.68257e-10
3.03903e-10
-7.42304e-10
3.98625e-10
-8.40383e-10
4.9415e-10
-9.53642e-10
5.23368e-10
-1.03629e-09
5.18426e-10
-1.09462e-09
5.00357e-10
-1.1205e-09
4.82012e-10
-1.10146e-09
4.22776e-10
-1.06939e-09
3.73253e-10
-1.04744e-09
3.06097e-10
-1.03934e-09
1.99286e-10
-1.01138e-09
9.7059e-11
-9.95643e-10
1.77911e-11
-9.97762e-10
-1.00364e-10
-9.9186e-10
-2.02939e-10
-8.53068e-10
-4.91669e-10
-9.22426e-10
-3.73413e-10
-7.40122e-10
-7.63606e-10
-6.93731e-10
-8.1855e-10
-6.65378e-10
-9.98249e-10
-6.1093e-10
-1.18127e-09
-5.0261e-10
-1.35943e-09
-2.65251e-10
-1.54279e-09
-1.19699e-10
-1.48942e-09
-9.4979e-12
-1.5603e-09
-9.75287e-16
-2.14551e-09
-1.3573e-18
-4.07049e-19
-1.27051e-18
-1.77502e-20
-1.06531e-18
-3.00985e-19
-8.30336e-19
-5.17805e-19
-5.90643e-19
-6.90856e-19
-3.53402e-19
-8.26435e-19
-1.20792e-19
-9.26771e-19
1.05569e-19
-9.92586e-19
3.23449e-19
-1.025e-18
5.30229e-19
-1.02612e-18
7.2319e-19
-9.99052e-19
8.99586e-19
-9.47577e-19
1.05704e-18
-8.75864e-19
1.19388e-18
-7.88264e-19
1.30907e-18
-6.89084e-19
1.40226e-18
-5.8237e-19
1.47368e-18
-4.71762e-19
1.52411e-18
-3.60411e-19
1.55462e-18
-2.50921e-19
1.56657e-18
-1.45331e-19
1.5615e-18
-4.51631e-20
1.54111e-18
4.84954e-20
1.50711e-18
1.34928e-19
1.46115e-18
2.13739e-19
1.40483e-18
2.8482e-19
1.33959e-18
3.48297e-19
1.26672e-18
4.04483e-19
1.18734e-18
4.53807e-19
1.10245e-18
4.96765e-19
1.01296e-18
5.3387e-19
9.19744e-19
5.65634e-19
8.23547e-19
5.92561e-19
7.24996e-19
6.15142e-19
6.24561e-19
6.33854e-19
5.22584e-19
6.49136e-19
4.19332e-19
6.61369e-19
3.15033e-19
6.70847e-19
2.09902e-19
6.77782e-19
1.04176e-19
6.82312e-19
6.8453e-19
-8.28492e-11
3.26202e-10
-8.86084e-11
2.31861e-10
-1.11179e-10
2.06683e-10
-1.56687e-10
2.28262e-10
-1.7954e-10
2.69983e-10
-1.7372e-10
2.95093e-10
-1.29244e-10
2.57652e-10
-5.80822e-11
1.63652e-10
7.21104e-11
-7.36538e-11
1.54731e-10
-2.76083e-10
2.17217e-10
-4.78722e-10
2.75608e-10
-6.23171e-10
2.50013e-10
-7.0955e-10
2.31378e-10
-7.26305e-10
2.40745e-10
-7.58483e-10
2.40613e-10
-7.91335e-10
2.68582e-10
-7.92126e-10
2.785e-10
-7.31737e-10
3.0666e-10
-6.22646e-10
2.96443e-10
-4.98033e-10
3.29866e-10
-2.91032e-10
2.48699e-10
-2.42416e-10
2.24996e-10
-3.97106e-11
2.49234e-10
-1.38222e-11
2.52182e-10
8.08942e-11
2.38308e-10
1.85419e-10
1.45321e-10
2.96785e-10
5.56926e-11
3.98673e-10
-2.59496e-11
4.91782e-10
-3.21805e-11
5.56957e-10
-8.95972e-11
6.27057e-10
-1.51778e-10
7.46357e-10
-1.97084e-10
7.83589e-10
-2.33885e-10
8.35928e-10
-2.98835e-10
8.59034e-10
-2.75367e-10
7.03629e-10
-2.19183e-10
5.30595e-10
-1.42789e-10
3.77187e-10
-2.81133e-11
3.01913e-10
7.21127e-11
3.05309e-10
1.86894e-10
3.55049e-10
2.78486e-10
4.6413e-10
3.78724e-10
5.74656e-10
4.46013e-10
6.3377e-10
4.97876e-10
6.44703e-10
5.13525e-10
6.19587e-10
4.90431e-10
6.00707e-10
4.1667e-10
5.45075e-10
2.88539e-10
4.7075e-10
1.51072e-10
3.76307e-10
1.42953e-11
2.68397e-10
-1.34464e-10
2.27511e-10
-2.66195e-10
2.62382e-10
-3.82115e-10
3.37394e-10
-5.0794e-10
4.29726e-10
-5.78085e-10
4.68769e-10
-5.7867e-10
4.94733e-10
-5.73159e-10
5.17855e-10
-5.89373e-10
5.34638e-10
-6.13552e-10
5.24535e-10
-6.71933e-10
5.40392e-10
-7.37542e-10
4.88385e-10
-7.22132e-10
3.57842e-10
-6.87431e-10
2.71397e-10
-6.6217e-10
1.74025e-10
-6.76185e-10
1.11075e-10
-7.08687e-10
5.02941e-11
-6.48042e-10
-1.61008e-10
-5.98992e-10
-2.51987e-10
-5.01863e-10
-5.88797e-10
-4.25513e-10
-4.49762e-10
-3.86574e-10
-8.02543e-10
-3.60161e-10
-8.44962e-10
-2.7791e-10
-1.0805e-09
-2.23188e-10
-1.23599e-09
-2.08418e-10
-1.37419e-09
-1.74742e-10
-1.57646e-09
-1.0539e-10
-1.55877e-09
7.24936e-11
-1.73819e-09
-9.23741e-16
-2.07301e-09
-1.78826e-18
-5.26154e-19
-1.5532e-18
-2.52164e-19
-1.2816e-18
-5.70911e-19
-1.00294e-18
-7.95049e-19
-7.26223e-19
-9.66709e-19
-4.53738e-19
-1.0987e-18
-1.86608e-19
-1.19414e-18
7.31542e-20
-1.25292e-18
3.22331e-19
-1.27512e-18
5.57296e-19
-1.26224e-18
7.74665e-19
-1.21741e-18
9.713e-19
-1.14492e-18
1.14464e-18
-1.04971e-18
1.29306e-18
-9.37028e-19
1.41579e-18
-8.12088e-19
1.51286e-18
-6.79754e-19
1.58503e-18
-5.44349e-19
1.6336e-18
-4.09555e-19
1.66021e-18
-2.78368e-19
1.66673e-18
-1.53071e-19
1.65516e-18
-3.52824e-20
1.62755e-18
7.39425e-20
1.58592e-18
1.73991e-19
1.53223e-18
2.64601e-19
1.4683e-18
3.45801e-19
1.39577e-18
4.17865e-19
1.31604e-18
4.8126e-19
1.2303e-18
5.36578e-19
1.13955e-18
5.84474e-19
1.04473e-18
6.25612e-19
9.46671e-19
6.60636e-19
8.46129e-19
6.90161e-19
7.43708e-19
7.14779e-19
6.39843e-19
7.35051e-19
5.34817e-19
7.51496e-19
4.28811e-19
7.64566e-19
3.21967e-19
7.74628e-19
2.14432e-19
7.81951e-19
1.06394e-19
7.86727e-19
7.89084e-19
-1.34922e-11
3.39695e-10
-6.70414e-11
2.85411e-10
-1.24986e-10
2.64628e-10
-1.53543e-10
2.56819e-10
-1.63764e-10
2.80205e-10
-1.52295e-10
2.83625e-10
-1.01993e-10
2.07351e-10
-4.82481e-12
6.64842e-11
9.05267e-11
-1.69005e-10
1.50484e-10
-3.3604e-10
1.81901e-10
-5.10139e-10
1.85599e-10
-6.26869e-10
9.75056e-11
-6.21457e-10
1.02595e-10
-7.31394e-10
1.68515e-10
-8.24403e-10
1.91802e-10
-8.14623e-10
1.91365e-10
-7.91689e-10
1.93356e-10
-7.33728e-10
1.55916e-10
-5.85206e-10
1.17276e-10
-4.59393e-10
9.95424e-11
-2.73298e-10
4.10669e-11
-1.83941e-10
3.69944e-11
-3.56385e-11
-1.25713e-12
2.44288e-11
-6.83479e-11
1.47984e-10
-7.36536e-11
1.90724e-10
-1.04637e-10
3.27767e-10
-1.39313e-10
4.33348e-10
-2.06069e-10
5.58537e-10
-2.65955e-10
6.16841e-10
-3.51954e-10
7.13055e-10
-4.05895e-10
8.00297e-10
-4.74418e-10
8.52111e-10
-4.76656e-10
8.38164e-10
-4.06776e-10
7.89153e-10
-3.52264e-10
6.49115e-10
-2.48236e-10
4.26566e-10
-1.33282e-10
2.62231e-10
3.3958e-11
1.34672e-10
1.74112e-10
1.65153e-10
3.47779e-10
1.81381e-10
4.52817e-10
3.5909e-10
5.33428e-10
4.94043e-10
5.66311e-10
6.00885e-10
5.83979e-10
6.27034e-10
5.52867e-10
6.50697e-10
4.99608e-10
6.53966e-10
4.24146e-10
6.20535e-10
3.30603e-10
5.64292e-10
2.41475e-10
4.65434e-10
1.02978e-10
4.06893e-10
-5.95701e-11
3.90058e-10
-2.01204e-10
4.04015e-10
-2.81611e-10
4.17799e-10
-3.20584e-10
4.68698e-10
-3.5663e-10
5.04813e-10
-4.06262e-10
5.44365e-10
-4.54739e-10
5.66331e-10
-4.92025e-10
5.71924e-10
-4.99504e-10
5.32014e-10
-4.47854e-10
4.88742e-10
-3.43439e-10
3.8397e-10
-2.90081e-10
3.04484e-10
-3.04018e-10
2.85335e-10
-3.0049e-10
1.70497e-10
-2.7733e-10
8.79153e-11
-2.74905e-10
4.78704e-11
-2.72527e-10
-1.63384e-10
-3.13288e-10
-2.11224e-10
-4.15856e-10
-4.86227e-10
-2.13706e-10
-6.51911e-10
-1.23503e-10
-8.92745e-10
8.17588e-11
-1.05022e-09
2.872e-11
-1.02746e-09
-1.40903e-11
-1.19318e-09
-4.24603e-11
-1.34582e-09
2.76999e-11
-1.64662e-09
1.26712e-10
-1.65778e-09
1.18263e-10
-1.72974e-09
-5.69959e-16
-1.95475e-09
-2.32069e-18
-1.18926e-18
-1.87142e-18
-7.00348e-19
-1.50523e-18
-9.35355e-19
-1.17416e-18
-1.12443e-18
-8.5821e-19
-1.28133e-18
-5.49181e-19
-1.40704e-18
-2.45384e-19
-1.49777e-18
5.09525e-20
-1.54939e-18
3.35205e-19
-1.55996e-18
6.02123e-19
-1.53024e-18
8.47162e-19
-1.46361e-18
1.06651e-18
-1.36525e-18
1.25732e-18
-1.24137e-18
1.418e-18
-1.09845e-18
1.54812e-18
-9.42895e-19
1.64827e-18
-7.80603e-19
1.71983e-18
-6.16686e-19
1.76478e-18
-4.5539e-19
1.7855e-18
-3.00082e-19
1.78452e-18
-1.53264e-19
1.76439e-18
-1.66134e-20
1.7276e-18
1.08898e-19
1.67653e-18
2.22842e-19
1.61343e-18
3.25188e-19
1.54037e-18
4.16198e-19
1.45917e-18
4.96368e-19
1.37136e-18
5.66376e-19
1.27819e-18
6.27021e-19
1.18069e-18
6.79151e-19
1.07975e-18
7.23617e-19
9.76196e-19
7.6122e-19
8.70746e-19
7.92716e-19
7.6398e-19
8.18806e-19
6.56288e-19
8.40148e-19
5.47887e-19
8.57338e-19
4.38872e-19
8.70903e-19
3.29291e-19
8.81274e-19
2.19208e-19
8.88782e-19
1.08751e-19
8.93669e-19
8.96097e-19
-3.21156e-11
3.71811e-10
-7.71709e-11
3.30467e-10
-1.18511e-10
3.05969e-10
-1.44199e-10
2.82508e-10
-1.25934e-10
2.61941e-10
-8.25032e-11
2.40195e-10
-3.94956e-11
1.64344e-10
2.03888e-11
6.60034e-12
5.7789e-11
-2.06405e-10
9.92459e-11
-3.77496e-10
7.42128e-11
-4.85106e-10
-3.34011e-11
-5.19255e-10
-1.32525e-10
-5.22333e-10
-1.90382e-10
-6.73537e-10
-1.73389e-10
-8.41396e-10
-1.15374e-10
-8.72639e-10
-6.44247e-11
-8.42638e-10
-3.15946e-11
-7.66559e-10
-2.77828e-11
-5.89019e-10
-2.61147e-11
-4.61062e-10
-5.71209e-11
-2.42292e-10
-1.21471e-10
-1.19592e-10
-1.73106e-10
1.59964e-11
-2.15037e-10
6.63591e-11
-2.75399e-10
2.08347e-10
-2.9067e-10
2.05994e-10
-3.08894e-10
3.4599e-10
-3.10841e-10
4.35294e-10
-3.82865e-10
6.30559e-10
-4.60336e-10
6.94311e-10
-5.5669e-10
8.09409e-10
-5.92147e-10
8.35752e-10
-6.04447e-10
8.64409e-10
-6.05698e-10
8.39415e-10
-5.41983e-10
7.25437e-10
-4.04979e-10
5.1211e-10
-2.42428e-10
2.64014e-10
-4.23094e-11
6.21114e-11
1.74531e-10
-8.21705e-11
2.97143e-10
4.25387e-11
5.03215e-10
-2.46928e-11
5.3347e-10
3.28833e-10
6.22958e-10
4.04553e-10
6.8527e-10
5.38571e-10
6.98054e-10
6.14248e-10
6.51159e-10
6.97591e-10
5.82447e-10
7.22676e-10
4.87749e-10
7.15232e-10
3.74613e-10
6.77426e-10
2.66585e-10
5.73462e-10
1.44884e-10
5.28592e-10
8.56872e-12
5.26372e-10
-6.05554e-11
4.73138e-10
-1.04158e-10
4.61401e-10
-1.35441e-10
4.9998e-10
-1.45337e-10
5.14708e-10
-1.14264e-10
5.13291e-10
-7.9033e-11
5.311e-10
-8.15364e-11
5.74427e-10
-9.81422e-11
5.4862e-10
-4.40831e-11
4.34683e-10
-2.87645e-11
3.68651e-10
-3.29641e-11
3.08684e-10
1.88449e-11
2.33526e-10
3.9117e-11
1.50226e-10
7.66624e-11
5.03707e-11
1.14857e-10
9.6771e-12
8.35637e-11
-1.3209e-10
1.52927e-10
-2.80585e-10
2.44706e-10
-5.78004e-10
3.86461e-10
-7.93665e-10
3.65105e-10
-8.71387e-10
3.78547e-10
-1.06366e-09
3.41938e-10
-9.90851e-10
3.22586e-10
-1.17382e-09
2.86299e-10
-1.30954e-09
2.53959e-10
-1.61428e-09
1.85911e-10
-1.58973e-09
1.32129e-10
-1.67595e-09
-1.29625e-16
-1.82262e-09
-2.59061e-18
-1.39297e-18
-2.10592e-18
-1.18381e-18
-1.69382e-18
-1.34603e-18
-1.33062e-18
-1.48596e-18
-9.8392e-19
-1.6264e-18
-6.39911e-19
-1.74995e-18
-2.97009e-19
-1.84014e-18
4.0386e-20
-1.8865e-18
3.64928e-19
-1.88461e-18
6.68755e-19
-1.83485e-18
9.45515e-19
-1.74149e-18
1.1904e-18
-1.61128e-18
1.40024e-18
-1.45229e-18
1.57355e-18
-1.2728e-18
1.71041e-18
-1.08078e-18
1.81219e-18
-8.83398e-19
1.88112e-18
-6.86705e-19
1.92009e-18
-4.95528e-19
1.93232e-18
-3.13548e-19
1.92117e-18
-1.43388e-19
1.8899e-18
1.32996e-20
1.84154e-18
1.55703e-19
1.77888e-18
2.83662e-19
1.70444e-18
3.97477e-19
1.62054e-18
4.97754e-19
1.52917e-18
5.85306e-19
1.432e-18
6.61101e-19
1.33032e-18
7.26197e-19
1.22516e-18
7.81681e-19
1.11736e-18
8.28615e-19
1.00769e-18
8.67989e-19
8.96837e-19
9.00713e-19
7.85321e-19