/*--------------------------------*- C++ -*----------------------------------*\
  =========                 |
  \\      /  F ield         | OpenFOAM: The Open Source CFD Toolbox
   \\    /   O peration     | Website:  https://openfoam.org
    \\  /    A nd           | Version:  6
     \\/     M anipulation  |
\*---------------------------------------------------------------------------*/
FoamFile
{
    version     2.0;
    format      ascii;
    class       volScalarField;
    location    "450";
    object      Su;
}
// * * * * * * * * * * * * * * * * * * * * * * * * * * * * * * * * * * * * * //

dimensions      [0 0 -1 0 0 0 0];

internalField   nonuniform List<scalar> 
4800
(
0.219409
0.217047
0.21469
0.212339
0.209999
0.207672
0.205361
0.203071
0.20081
0.198587
0.19641
0.194284
0.192209
0.190175
0.188169
0.186181
0.1842
0.182211
0.180201
0.178159
0.176085
0.173969
0.171802
0.169579
0.167296
0.164949
0.162537
0.160057
0.15751
0.154893
0.152206
0.149447
0.146612
0.143699
0.14072
0.137688
0.134603
0.131464
0.128272
0.125027
0.121728
0.118377
0.114981
0.111558
0.108138
0.104751
0.10141
0.0981195
0.094876
0.0916692
0.0884897
0.0853307
0.0821883
0.0790649
0.0759665
0.072898
0.0698634
0.0668652
0.0639037
0.060984
0.0581144
0.0553024
0.0525546
0.0498723
0.0472554
0.0447029
0.0422122
0.0397784
0.037396
0.0350605
0.0327639
0.0304961
0.0282479
0.0260146
0.0237852
0.0215461
0.0192945
0.0170243
0.0147223
0.0123706
0.00992105
0.00735915
0.00470779
0.00198451
-0.000797635
-0.00362847
-0.00650007
-0.0094061
-0.0123415
-0.0153021
-0.0182846
-0.0212862
-0.0243046
-0.027338
-0.0303847
-0.0334435
-0.0365132
-0.0395928
-0.0426814
-0.0457783
-0.0488829
-0.0519945
-0.0551126
-0.0582366
-0.0613661
-0.0645007
-0.0676399
-0.0707833
-0.0739307
-0.0770815
-0.0802355
-0.0833923
-0.0865516
-0.0897131
-0.0928765
-0.0960414
-0.0992077
-0.102375
-0.105543
-0.108711
0.219408
0.217043
0.214686
0.212337
0.209999
0.207674
0.205365
0.203077
0.200821
0.198605
0.196434
0.194312
0.192235
0.190195
0.188182
0.186185
0.184192
0.182191
0.18017
0.178122
0.176037
0.173913
0.171739
0.16951
0.167224
0.164876
0.162466
0.159991
0.15745
0.154839
0.152158
0.149405
0.146579
0.143686
0.140729
0.13771
0.134636
0.131512
0.12834
0.12512
0.121851
0.118536
0.115178
0.111796
0.108416
0.105061
0.101746
0.0984756
0.0952446
0.0920456
0.0888729
0.0857198
0.0825821
0.0794621
0.0763636
0.0732914
0.0702504
0.0672439
0.0642726
0.0613446
0.0584694
0.0556512
0.0528972
0.0502073
0.0475831
0.045025
0.0425303
0.0400937
0.0377086
0.0353689
0.0330652
0.0307881
0.0285314
0.0262918
0.024052
0.0218004
0.0195304
0.0172292
0.0148896
0.0124975
0.0100096
0.00742279
0.00475388
0.00201757
-0.000774502
-0.00361302
-0.00649059
-0.00940126
-0.0123402
-0.0153036
-0.0182881
-0.0212913
-0.0243108
-0.0273449
-0.0303921
-0.0334511
-0.0365208
-0.0396003
-0.0426888
-0.0457855
-0.0488897
-0.0520009
-0.0551186
-0.0582422
-0.0613714
-0.0645055
-0.0676443
-0.0707874
-0.0739343
-0.0770848
-0.0802384
-0.0833948
-0.0865538
-0.089715
-0.0928781
-0.0960427
-0.0992087
-0.102376
-0.105543
-0.108711
0.219407
0.217043
0.214685
0.212337
0.210001
0.207677
0.205372
0.203092
0.200844
0.198637
0.196473
0.194351
0.192267
0.190216
0.188187
0.186167
0.184148
0.182123
0.180083
0.178017
0.175918
0.17378
0.171597
0.169363
0.167073
0.164726
0.162318
0.159848
0.157313
0.15471
0.152037
0.149296
0.146488
0.14362
0.140689
0.137697
0.134658
0.131579
0.12846
0.125295
0.122085
0.118831
0.115542
0.112229
0.108911
0.105606
0.102326
0.0990751
0.0958552
0.0926653
0.0895032
0.0863605
0.0832307
0.0801126
0.0770079
0.0739217
0.0708655
0.0678416
0.064855
0.0619175
0.0590357
0.0562123
0.0534536
0.0507584
0.0481324
0.0455723
0.0430765
0.0406374
0.0382473
0.0358991
0.033584
0.0312927
0.0290197
0.0267607
0.024497
0.0222201
0.0199181
0.0175742
0.0151787
0.0127227
0.0101734
0.00754298
0.0048417
0.00208075
-0.000730384
-0.00358376
-0.00647294
-0.00939265
-0.0123386
-0.0153073
-0.0182959
-0.021302
-0.0243236
-0.0273591
-0.0304071
-0.0334666
-0.0365364
-0.0396157
-0.0427037
-0.0457999
-0.0489035
-0.052014
-0.0551309
-0.0582537
-0.0613819
-0.0645153
-0.0676533
-0.0707955
-0.0739417
-0.0770914
-0.0802443
-0.0834
-0.0865583
-0.0897188
-0.0928813
-0.0960453
-0.0992107
-0.102377
-0.105544
-0.108712
0.219407
0.217042
0.214685
0.212338
0.210002
0.207681
0.205381
0.203108
0.200869
0.198668
0.196505
0.194378
0.19228
0.190205
0.188146
0.186096
0.184044
0.181988
0.17992
0.177832
0.175713
0.173559
0.171366
0.169125
0.166833
0.164486
0.162081
0.159615
0.157088
0.154495
0.151837
0.149117
0.146336
0.143496
0.140601
0.137656
0.134675
0.131665
0.128619
0.125533
0.122405
0.119237
0.116037
0.112814
0.109573
0.106326
0.103087
0.0998637
0.0966598
0.0934769
0.0903144
0.0871655
0.084026
0.080895
0.0777754
0.0746733
0.0716008
0.06856
0.0655646
0.0626252
0.0597447
0.0569259
0.0541741
0.0514877
0.0488714
0.0463186
0.0438275
0.0413878
0.0389914
0.0366309
0.0342992
0.0319863
0.0296878
0.0273934
0.0250864
0.0227599
0.0203999
0.0179952
0.0155393
0.0130169
0.0103961
0.00770957
0.00496457
0.00216939
-0.000668646
-0.0035432
-0.006449
-0.00938171
-0.0123377
-0.0153141
-0.0183085
-0.0213188
-0.0243434
-0.0273809
-0.0304301
-0.03349
-0.0365599
-0.0396389
-0.0427263
-0.0458216
-0.0489241
-0.0520335
-0.0551492
-0.0582708
-0.0613978
-0.0645299
-0.0676667
-0.0708077
-0.0739527
-0.0771013
-0.0802531
-0.0834078
-0.086565
-0.0897246
-0.0928861
-0.0960492
-0.0992137
-0.102379
-0.105545
-0.108712
0.219406
0.21704
0.214682
0.212334
0.209999
0.20768
0.205384
0.203118
0.200883
0.198682
0.196514
0.194372
0.192251
0.190143
0.188044
0.185953
0.183865
0.181773
0.179674
0.177559
0.175419
0.173246
0.171038
0.168788
0.166492
0.164146
0.161746
0.159288
0.156772
0.154195
0.151558
0.148865
0.146117
0.14332
0.140479
0.137603
0.1347
0.13177
0.128811
0.125818
0.122788
0.119718
0.116613
0.113485
0.110341
0.10718
0.103998
0.100806
0.0976145
0.0944329
0.0912594
0.0880895
0.0849257
0.0817742
0.0786401
0.0755289
0.072449
0.0694044
0.0664123
0.0634797
0.0606103
0.0578066
0.0550712
0.0524031
0.0498022
0.0472614
0.0447755
0.0423345
0.03993
0.0375555
0.0352025
0.0328596
0.0305238
0.0281817
0.0258173
0.0234238
0.0209975
0.0185229
0.0159826
0.013369
0.0106641
0.00791193
0.00511456
0.00227758
-0.000593771
-0.00349476
-0.00642144
-0.00937049
-0.0123392
-0.0153253
-0.0183268
-0.0213424
-0.0243707
-0.0274106
-0.0304612
-0.0335217
-0.0365915
-0.0396699
-0.0427564
-0.0458505
-0.0489517
-0.0520596
-0.0551737
-0.0582936
-0.0614189
-0.0645494
-0.0676845
-0.0708239
-0.0739673
-0.0771144
-0.0802647
-0.083418
-0.086574
-0.0897322
-0.0928924
-0.0960543
-0.0992176
-0.102382
-0.105547
-0.108713
0.219406
0.217038
0.214676
0.212324
0.209988
0.207672
0.205379
0.203114
0.200877
0.198669
0.196485
0.194317
0.192161
0.190013
0.187872
0.185738
0.183608
0.181477
0.179342
0.177196
0.17503
0.172836
0.170613
0.168352
0.166051
0.163706
0.161312
0.158866
0.156368
0.153815
0.151206
0.148547
0.145844
0.143104
0.140334
0.137539
0.134722
0.131884
0.129022
0.126131
0.123205
0.120242
0.117241
0.114206
0.11114
0.108047
0.104931
0.101793
0.0986347
0.0954595
0.092271
0.0890795
0.0858952
0.0827294
0.0795888
0.076478
0.0734031
0.0703716
0.0673963
0.0644827
0.0616344
0.0588546
0.0561433
0.0534984
0.0509154
0.0483859
0.0459026
0.0434564
0.0410403
0.0386498
0.0362691
0.0338884
0.0315014
0.0290932
0.026651
0.0241708
0.0216481
0.0190734
0.0164441
0.0137489
0.010962
0.00813903
0.00528317
0.00239865
-0.000510969
-0.00344254
-0.00639344
-0.0093615
-0.0123449
-0.0153422
-0.0183521
-0.0213737
-0.0244062
-0.0274487
-0.0305007
-0.0335618
-0.0366313
-0.0397089
-0.0427942
-0.0458867
-0.0489861
-0.052092
-0.0552041
-0.0583219
-0.0614452
-0.0645735
-0.0677065
-0.070844
-0.0739855
-0.0771306
-0.0802792
-0.0834307
-0.086585
-0.0897416
-0.0929003
-0.0960607
-0.0992225
-0.102385
-0.105549
-0.108713
0.219405
0.217035
0.214671
0.212316
0.209977
0.207658
0.205363
0.203093
0.200847
0.198623
0.196412
0.194209
0.19201
0.189816
0.187629
0.185448
0.183275
0.181105
0.178933
0.176752
0.174556
0.172337
0.170096
0.167824
0.165518
0.163174
0.160787
0.158354
0.155874
0.153347
0.150776
0.148166
0.145522
0.142851
0.140159
0.137453
0.134732
0.131994
0.129237
0.126455
0.123637
0.120778
0.117875
0.11493
0.111944
0.108921
0.105858
0.102757
0.0996219
0.096459
0.0932777
0.09009
0.0869074
0.0837423
0.0806058
0.0775076
0.0744541
0.0714509
0.0685051
0.0656222
0.062805
0.0600558
0.0573727
0.0547504
0.0521824
0.0496597
0.0471752
0.044722
0.0422912
0.0398775
0.0374588
0.0350349
0.0325875
0.0301042
0.0275771
0.0250033
0.022381
0.0197028
0.0169655
0.0141631
0.0112819
0.0083815
0.00546203
0.00252565
-0.000425889
-0.00339106
-0.00636861
-0.00935756
-0.0123571
-0.0153667
-0.0183856
-0.0214137
-0.0244505
-0.0274957
-0.0305491
-0.0336105
-0.0366795
-0.0397559
-0.0428395
-0.0459301
-0.0490272
-0.0521308
-0.0552403
-0.0583556
-0.0614764
-0.0646022
-0.0677328
-0.0708678
-0.074007
-0.0771499
-0.0802963
-0.0834458
-0.0865981
-0.0897528
-0.0929096
-0.0960683
-0.0992284
-0.10239
-0.105552
-0.108714
0.219402
0.217028
0.21466
0.212303
0.20996
0.207637
0.205335
0.203055
0.200792
0.19854
0.196292
0.194046
0.1918
0.189557
0.187323
0.185098
0.182882
0.180671
0.17846
0.176243
0.174018
0.171773
0.16951
0.167225
0.164912
0.162568
0.160188
0.15777
0.155314
0.152822
0.150296
0.147741
0.145161
0.142564
0.139956
0.137341
0.134721
0.132093
0.129448
0.126777
0.124067
0.12131
0.1185
0.115636
0.11272
0.109752
0.106732
0.103665
0.100557
0.097418
0.0942587
0.0910905
0.0879269
0.0847834
0.0816725
0.078605
0.0755888
0.072628
0.0697246
0.0668815
0.0640998
0.0613813
0.0587241
0.0561216
0.0535659
0.0510471
0.0485582
0.0460959
0.0436479
0.041207
0.0387485
0.0362748
0.0337587
0.0311956
0.0285766
0.0258978
0.0231599
0.0203611
0.0175067
0.0145914
0.011611
0.00862897
0.00564244
0.00265136
-0.000344454
-0.0033451
-0.00635077
-0.00936171
-0.0123782
-0.0154005
-0.0184288
-0.0214634
-0.0245045
-0.0275522
-0.0306067
-0.0336679
-0.036736
-0.0398109
-0.0428924
-0.0459805
-0.049075
-0.0521756
-0.0552823
-0.0583946
-0.0615124
-0.0646353
-0.067763
-0.0708953
-0.0740318
-0.0771721
-0.080316
-0.0834631
-0.0866131
-0.0897656
-0.0929204
-0.0960769
-0.099235
-0.102394
-0.105554
-0.108715
0.219401
0.217023
0.21465
0.212287
0.209939
0.207609
0.205295
0.202997
0.200708
0.19842
0.19613
0.193834
0.191536
0.189243
0.186963
0.184696
0.182438
0.180187
0.177937
0.175686
0.17343
0.171161
0.16888
0.166581
0.164261
0.161918
0.15955
0.157154
0.154728
0.152272
0.149792
0.147291
0.144778
0.142258
0.139739
0.137222
0.134706
0.132187
0.129653
0.127091
0.124485
0.121823
0.119098
0.116307
0.11345
0.110529
0.107547
0.104513
0.101437
0.09833
0.0952021
0.0920651
0.0889358
0.0858316
0.0827648
0.0797443
0.0767744
0.0738584
0.0709991
0.0681995
0.0654609
0.0627825
0.0601565
0.057573
0.0550278
0.0525129
0.050021
0.0475469
0.0450742
0.0425969
0.0400955
0.0375657
0.0349805
0.0323295
0.0296074
0.0268158
0.0239594
0.0210371
0.0180555
0.0150183
0.0119365
0.00887075
0.00581549
0.00276837
-0.000272718
-0.00330958
-0.00634385
-0.00937705
-0.0124105
-0.0154455
-0.0184829
-0.0215237
-0.0245687
-0.0276185
-0.0306736
-0.0337343
-0.036801
-0.0398737
-0.0429527
-0.0460378
-0.0491291
-0.0522264
-0.0553297
-0.0584386
-0.0615529
-0.0646725
-0.067797
-0.0709261
-0.0740596
-0.077197
-0.0803381
-0.0834826
-0.08663
-0.08978
-0.0929324
-0.0960867
-0.0992425
-0.1024
-0.105558
-0.108716
0.219398
0.217015
0.214637
0.212269
0.209914
0.207573
0.205243
0.20292
0.200598
0.19827
0.195932
0.193583
0.191231
0.188887
0.186558
0.184248
0.18195
0.17966
0.177375
0.175093
0.17281
0.17052
0.168222
0.165913
0.16359
0.161251
0.158898
0.156526
0.154132
0.151717
0.149285
0.146843
0.144398
0.141957
0.139525
0.137104
0.134691
0.132278
0.129851
0.12739
0.124881
0.122305
0.119656
0.116932
0.114131
0.111254
0.108309
0.105309
0.102266
0.0991935
0.0961035
0.0930095
0.0899291
0.0868775
0.083865
0.0809
0.0779867
0.0751268
0.0723203
0.069569
0.0668733
0.0642281
0.0616257
0.0590607
0.0565277
0.0540179
0.051523
0.0490364
0.0465428
0.0440346
0.0414883
0.0388875
0.0362178
0.033469
0.0306444
0.0277395
0.0247582
0.0217019
0.0185869
0.0154282
0.0122454
0.00909605
0.0059722
0.00286929
-0.000216736
-0.00328938
-0.00635176
-0.00940665
-0.0124565
-0.0155034
-0.0185493
-0.0215957
-0.024644
-0.0276952
-0.0307502
-0.0338097
-0.0368743
-0.0399444
-0.0430201
-0.0461018
-0.0491894
-0.0522829
-0.0553823
-0.0584873
-0.0615979
-0.0647137
-0.0678346
-0.0709602
-0.0740903
-0.0772245
-0.0803625
-0.083504
-0.0866485
-0.0897959
-0.0929456
-0.0960973
-0.0992508
-0.102405
-0.105561
-0.108717
0.219395
0.217006
0.214622
0.212248
0.209882
0.207526
0.205176
0.202826
0.20047
0.1981
0.195712
0.193311
0.190908
0.188516
0.186144
0.18379
0.181449
0.179117
0.176793
0.174477
0.172169
0.169862
0.167552
0.165237
0.162917
0.160586
0.158248
0.1559
0.153541
0.151171
0.148792
0.146411
0.144035
0.141671
0.139324
0.136993
0.134675
0.132359
0.130029
0.127663
0.125244
0.122749
0.120174
0.11751
0.114759
0.111922
0.109013
0.106047
0.10304
0.100008
0.0969633
0.0939204
0.0908951
0.0879003
0.0849478
0.0820443
0.0791913
0.0763893
0.073639
0.0709406
0.0682888
0.065677
0.0631011
0.0605558
0.0580329
0.0555263
0.0530281
0.0505293
0.048012
0.0454617
0.0428547
0.0401775
0.0374229
0.0345808
0.0316545
0.0286337
0.0255246
0.0223359
0.0190901
0.0158088
0.0125253
0.00929419
0.00610372
0.00294685
-0.000182415
-0.00328926
-0.00637823
-0.0094534
-0.0125183
-0.015576
-0.0186292
-0.0216801
-0.0247306
-0.0277823
-0.0308364
-0.033894
-0.0369558
-0.0400225
-0.0430945
-0.0461721
-0.0492555
-0.0523447
-0.0554397
-0.0585404
-0.0616468
-0.0647585
-0.0678754
-0.0709972
-0.0741236
-0.0772543
-0.0803889
-0.0835272
-0.0866687
-0.089813
-0.0929599
-0.0961089
-0.0992597
-0.102412
-0.105565
-0.108719
0.219392
0.216997
0.214607
0.212223
0.209847
0.207474
0.205102
0.202724
0.200334
0.197924
0.195494
0.193048
0.190599
0.18816
0.185741
0.183341
0.180956
0.178583
0.176222
0.173874
0.171538
0.169213
0.166892
0.164576
0.162261
0.159941
0.157622
0.155301
0.152979
0.150655
0.148333
0.146014
0.143707
0.141415
0.139145
0.136894
0.134658
0.132426
0.130182
0.127903
0.125567
0.123149
0.120639
0.118034
0.11533
0.112531
0.109657
0.106729
0.103763
0.100773
0.0977741
0.0947836
0.0918158
0.0888839
0.0859949
0.0831525
0.0803594
0.0776161
0.0749201
0.0722685
0.0696582
0.0670832
0.0645353
0.0620077
0.0594929
0.0569864
0.0544772
0.0519554
0.0494023
0.0468017
0.0441326
0.041384
0.0385468
0.0356143
0.0325846
0.0294511
0.0262222
0.0229073
0.0195355
0.0161388
0.0127622
0.00945445
0.00620144
0.0029941
-0.000175356
-0.00331365
-0.00642675
-0.00951996
-0.0125979
-0.0156646
-0.0187235
-0.0217775
-0.024829
-0.02788
-0.0309323
-0.033987
-0.0370453
-0.0401079
-0.0431755
-0.0462484
-0.049327
-0.0524114
-0.0555016
-0.0585976
-0.0616994
-0.0648066
-0.0679192
-0.0710369
-0.0741593
-0.0772862
-0.0804172
-0.083552
-0.0866902
-0.0898314
-0.0929752
-0.0961213
-0.0992692
-0.102419
-0.105569
-0.10872
0.219389
0.216986
0.214588
0.212194
0.209803
0.207412
0.205017
0.202612
0.200191
0.197749
0.195283
0.192798
0.190305
0.187817
0.185347
0.182899
0.180471
0.17806
0.175666
0.173287
0.170925
0.168583
0.166256
0.16394
0.161636
0.159334
0.157038
0.154748
0.152467
0.150193
0.147927
0.145672
0.143431
0.141207
0.139004
0.136822
0.134659
0.132502
0.130333
0.128127
0.12586
0.123501
0.121045
0.118486
0.115817
0.113059
0.110232
0.107349
0.104426
0.101482
0.0985352
0.0956023
0.0926963
0.0898245
0.0869925
0.0842082
0.0814731
0.0787842
0.0761374
0.0735318
0.0709623
0.0684191
0.0658927
0.0633796
0.0608742
0.0583646
0.0558386
0.0532886
0.0506952
0.0480431
0.0453135
0.0424956
0.0395772
0.0365507
0.0334149
0.0301745
0.0268352
0.023402
0.0199089
0.0164048
0.0129442
0.00956723
0.00625752
0.00300462
-0.000200685
-0.00336656
-0.00650034
-0.00960854
-0.0126969
-0.0157702
-0.0188328
-0.0218881
-0.0249391
-0.0279882
-0.0310374
-0.0340883
-0.0371422
-0.0402
-0.0432624
-0.0463301
-0.0494034
-0.0524825
-0.0555675
-0.0586584
-0.0617552
-0.0648576
-0.0679656
-0.0710789
-0.074197
-0.0773199
-0.0804471
-0.0835782
-0.0867128
-0.0898507
-0.0929913
-0.0961343
-0.0992792
-0.102426
-0.105573
-0.108721
0.219384
0.216971
0.214561
0.212154
0.209747
0.207337
0.204919
0.202488
0.200039
0.197568
0.195076
0.192562
0.190029
0.187491
0.18497
0.182475
0.180006
0.177557
0.175128
0.172722
0.170341
0.167988
0.165657
0.163344
0.161052
0.158772
0.156507
0.154256
0.15202
0.149798
0.14759
0.145397
0.143221
0.141062
0.138926
0.136812
0.134716
0.132623
0.130509
0.128354
0.126131
0.123809
0.121389
0.118861
0.116232
0.113521
0.110737
0.107894
0.105016
0.102123
0.0992332
0.0963606
0.0935153
0.090704
0.0879334
0.0852089
0.082528
0.0798876
0.0772847
0.0747189
0.0721822
0.0696637
0.067154
0.0646512
0.0621486
0.0596298
0.0570863
0.0545053
0.0518691
0.0491605
0.0463658
0.0434756
0.0404797
0.0373691
0.0341395
0.030788
0.0273241
0.0237722
0.0201773
0.01659
0.0130616
0.00962449
0.00626511
0.00297275
-0.000262912
-0.00345144
-0.00660152
-0.00972089
-0.0128163
-0.0158935
-0.0189573
-0.0220119
-0.0250607
-0.0281064
-0.0311514
-0.0341974
-0.0372459
-0.0402981
-0.0433548
-0.0464167
-0.0494841
-0.0525574
-0.0556368
-0.0587223
-0.0618137
-0.0649111
-0.0680142
-0.0711228
-0.0742365
-0.0773551
-0.0804782
-0.0836055
-0.0867365
-0.0898709
-0.0930081
-0.0961479
-0.0992897
-0.102433
-0.105578
-0.108723
0.219378
0.216952
0.214527
0.212103
0.209678
0.207248
0.204808
0.202351
0.199874
0.197376
0.194857
0.192316
0.189756
0.18718
0.184611
0.18207
0.179559
0.177074
0.174617
0.172189
0.169794
0.167432
0.165101
0.162796
0.16052
0.158267
0.156037
0.153829
0.151643
0.149476
0.147328
0.1452
0.143092
0.141005
0.138938
0.136885
0.134839
0.132782
0.130694
0.128557
0.126349
0.124052
0.121657
0.119156
0.116561
0.113887
0.111148
0.108365
0.105551
0.10272
0.0998855
0.0970675
0.0942783
0.0915269
0.0888168
0.0861493
0.0835186
0.080922
0.0783568
0.0758231
0.0733124
0.0708118
0.0683133
0.0658121
0.0633005
0.0607649
0.058196
0.0555736
0.0528901
0.0501234
0.0472622
0.0442987
0.0412229
0.0380241
0.0347025
0.0312565
0.0276982
0.0240518
0.0203671
0.016703
0.0131112
0.00962036
0.00621834
0.00289355
-0.000365858
-0.00357103
-0.00673212
-0.00985807
-0.0129566
-0.0160344
-0.0190968
-0.0221484
-0.0251931
-0.0282339
-0.0312733
-0.0343134
-0.0373557
-0.0404015
-0.0434518
-0.0465073
-0.0495685
-0.0526356
-0.055709
-0.0587887
-0.0618746
-0.0649666
-0.0680646
-0.0711682
-0.0742773
-0.0773915
-0.0805105
-0.0836337
-0.0867609
-0.0898917
-0.0930255
-0.0961619
-0.0993004
-0.102441
-0.105582
-0.108724
0.219369
0.216925
0.214482
0.212039
0.209594
0.207143
0.204679
0.202198
0.199696
0.197171
0.194626
0.192062
0.189477
0.18687
0.184259
0.181672
0.179122
0.176606
0.174126
0.171684
0.169279
0.166913
0.164585
0.162292
0.160035
0.157812
0.155623
0.153463
0.151332
0.149227
0.147146
0.14509
0.143057
0.141046
0.139045
0.137045
0.135035
0.132991
0.130903
0.128753
0.126528
0.124225
0.121839
0.119361
0.1168
0.114169
0.111483
0.108758
0.106006
0.10324
0.100475
0.097724
0.0949974
0.0923037
0.0896472
0.0870292
0.0844423
0.0818841
0.07935
0.076842
0.0743495
0.0718573
0.0693599
0.0668474
0.0643148
0.0617494
0.0591416
0.0564712
0.0537304
0.0508978
0.0479708
0.0449369
0.0417861
0.0385114
0.035112
0.0315888
0.0279584
0.0242496
0.0204982
0.0167527
0.0130884
0.00954832
0.00611145
0.00276258
-0.000512617
-0.00372725
-0.00689308
-0.0100203
-0.0131177
-0.0161924
-0.0192504
-0.0222967
-0.0253354
-0.0283697
-0.0314023
-0.0344354
-0.0374706
-0.0405094
-0.0435526
-0.0466012
-0.0496556
-0.0527163
-0.0557834
-0.0588569
-0.061937
-0.0650235
-0.0681162
-0.0712148
-0.0743191
-0.0774288
-0.0805434
-0.0836626
-0.0867859
-0.0899129
-0.0930431
-0.0961761
-0.0993114
-0.102448
-0.105587
-0.108726
0.219357
0.21689
0.214423
0.211957
0.209489
0.207014
0.204526
0.202021
0.199494
0.196946
0.194379
0.191791
0.189179
0.18654
0.183893
0.181271
0.178689
0.176148
0.173652
0.171199
0.16879
0.166423
0.164102
0.161827
0.159595
0.157408
0.155265
0.15316
0.151091
0.149056
0.147052
0.145077
0.143125
0.141189
0.139251
0.137298
0.135312
0.133269
0.131162
0.128974
0.126705
0.124363
0.121961
0.119495
0.116968
0.114385
0.111757
0.109091
0.1064
0.1037
0.101004
0.0983198
0.0956578
0.0930226
0.0904197
0.0878475
0.0852984
0.0827724
0.0802613
0.0777694
0.0752835
0.0727871
0.0702753
0.0677395
0.0651741
0.0625641
0.0599016
0.0571715
0.0543658
0.0514645
0.0484684
0.0453641
0.0421419
0.0387964
0.0353286
0.0317436
0.0280561
0.024294
0.0204871
0.0166872
0.0129744
0.00939852
0.00593818
0.00257585
-0.000705408
-0.00392096
-0.00708432
-0.0102069
-0.0132983
-0.0163661
-0.0194168
-0.0224554
-0.0254861
-0.0285124
-0.031537
-0.0345621
-0.0375895
-0.0406205
-0.0436562
-0.0466975
-0.0497448
-0.0527986
-0.0558592
-0.0589265
-0.0620006
-0.0650813
-0.0681686
-0.0712621
-0.0743615
-0.0774665
-0.0805767
-0.0836918
-0.0868111
-0.0899344
-0.093061
-0.0961906
-0.0993225
-0.102456
-0.105591
-0.108727
0.219342
0.216843
0.214345
0.211851
0.209355
0.206851
0.204336
0.201803
0.199249
0.196673
0.194078
0.191462
0.188824
0.186167
0.183499
0.180852
0.178247
0.175689
0.17318
0.170721
0.168315
0.165957
0.163649
0.161398
0.159202
0.157058
0.154968
0.152927
0.15093
0.148975
0.147056
0.145165
0.143293
0.141424
0.139542
0.137628
0.135658
0.133604
0.131458
0.129215
0.126889
0.124501
0.122071
0.1196
0.117089
0.114545
0.11197
0.109366
0.106746
0.104119
0.101494
0.0988764
0.0962757
0.0936949
0.0911408
0.0886076
0.0860889
0.0835863
0.0810883
0.0785995
0.0761025
0.0735847
0.0710432
0.0684699
0.0658561
0.0631899
0.0604624
0.0576622
0.0547815
0.0518058
0.048735
0.0455577
0.0422676
0.0388619
0.0353408
0.0317105
0.0279828
0.0241849
0.0203421
0.0165081
0.0127609
0.00916308
0.00569297
0.00233029
-0.000945203
-0.00415162
-0.00730433
-0.0104159
-0.0134962
-0.0165534
-0.0195937
-0.0226223
-0.0256434
-0.0286603
-0.0316758
-0.0346921
-0.0377109
-0.0407337
-0.0437615
-0.046795
-0.049835
-0.0528818
-0.0559356
-0.0589965
-0.0620645
-0.0651394
-0.0682212
-0.0713095
-0.074404
-0.0775043
-0.0806101
-0.083721
-0.0868363
-0.0899558
-0.0930789
-0.096205
-0.0993336
-0.102464
-0.105596
-0.108729
0.219322
0.216784
0.214249
0.211716
0.209184
0.206646
0.204098
0.201535
0.198948
0.196341
0.193716
0.191075
0.188419
0.18575
0.183074
0.180417
0.177801
0.175233
0.172717
0.170259
0.167862
0.165524
0.163243
0.161027
0.158876
0.156788
0.15476
0.15279
0.150871
0.148998
0.147162
0.145349
0.143546
0.141732
0.139892
0.138005
0.136037
0.133964
0.131774
0.129473
0.127087
0.124652
0.122189
0.119707
0.117209
0.114696
0.112168
0.109626
0.107073
0.104515
0.101957
0.0994043
0.0968619
0.0943312
0.0918189
0.0893169
0.0868207
0.0843284
0.0818312
0.0793297
0.0768032
0.0742471
0.0716588
0.069031
0.0663547
0.0636201
0.0608165
0.0579368
0.054973
0.0519155
0.0487634
0.0455108
0.0421534
0.038696
0.0351325
0.0314762
0.0277265
0.0239092
0.0200534
0.0162057
0.0124391
0.0088341
0.0053707
0.00202404
-0.00123123
-0.00441679
-0.00754987
-0.0106436
-0.0137081
-0.016751
-0.0197784
-0.022795
-0.025805
-0.0288114
-0.0318169
-0.0348237
-0.0378335
-0.0408476
-0.0438671
-0.0468928
-0.0499253
-0.0529649
-0.0560118
-0.0590663
-0.0621281
-0.0651972
-0.0682735
-0.0713565
-0.0744461
-0.0775418
-0.0806432
-0.0837499
-0.0868613
-0.089977
-0.0930965
-0.0962192
-0.0993445
-0.102472
-0.105601
-0.10873
0.219295
0.216704
0.214118
0.211539
0.208963
0.206386
0.203799
0.2012
0.19858
0.195939
0.193284
0.190619
0.187948
0.185275
0.182604
0.179954
0.177343
0.174781
0.172274
0.16983
0.167454
0.165147
0.162911
0.160746
0.158652
0.156626
0.154666
0.152766
0.150921
0.149122
0.147357
0.145608
0.143858
0.142085
0.140274
0.1384
0.136427
0.13433
0.132098
0.129743
0.127304
0.124826
0.122333
0.119839
0.117349
0.114864
0.112382
0.109897
0.107405
0.104908
0.102408
0.0999109
0.0974208
0.094936
0.0924595
0.0899812
0.0874983
0.0850037
0.0824924
0.0799595
0.0773869
0.0747743
0.0721202
0.0694217
0.0666714
0.0638587
0.0609721
0.058007
0.0549581
0.0518202
0.0485891
0.0452666
0.04185
0.0383506
0.0347598
0.0310908
0.0273404
0.0235208
0.0196583
0.0157912
0.0120004
0.0084014
0.00496594
0.00165687
-0.00156019
-0.00471143
-0.0078154
-0.010885
-0.0139292
-0.0169548
-0.0199672
-0.0229704
-0.0259682
-0.0289633
-0.0319583
-0.0349552
-0.0379556
-0.0409609
-0.0439719
-0.0469896
-0.0500145
-0.0530469
-0.0560871
-0.059135
-0.0621907
-0.0652541
-0.0683248
-0.0714027
-0.0744874
-0.0775785
-0.0806756
-0.0837781
-0.0868857
-0.0899978
-0.0931137
-0.0962331
-0.0993551
-0.102479
-0.105605
-0.108732
0.21926
0.216599
0.213947
0.211307
0.208676
0.206051
0.203419
0.200778
0.198124
0.195453
0.192772
0.190086
0.187404
0.184733
0.182077
0.179448
0.176859
0.174324
0.171852
0.169446
0.167113
0.164855
0.162673
0.160569
0.15854
0.156582
0.154691
0.152858
0.151076
0.149335
0.147621
0.145917
0.144204
0.142461
0.140665
0.138788
0.136794
0.134656
0.132376
0.129986
0.127523
0.125022
0.12251
0.120009
0.117531
0.11507
0.112621
0.110177
0.107737
0.105295
0.102852
0.100408
0.0979621
0.0955136
0.0930652
0.0906032
0.0881237
0.0856168
0.0830771
0.0804957
0.0778652
0.0751854
0.0724578
0.069682
0.0668511
0.0639567
0.0609894
0.0579442
0.0548167
0.0516048
0.0483041
0.0449207
0.041455
0.0379199
0.0343088
0.0306218
0.0268549
0.0230123
0.0191273
0.0152355
0.0114167
0.00784599
0.0044721
0.0012314
-0.00192479
-0.00502686
-0.00809261
-0.0111325
-0.0141533
-0.0171598
-0.020156
-0.0231451
-0.0261301
-0.0291136
-0.0320979
-0.0350847
-0.0380756
-0.0410719
-0.0440746
-0.0470843
-0.0501017
-0.0531269
-0.0561603
-0.0592019
-0.0622516
-0.0653093
-0.0683747
-0.0714475
-0.0745275
-0.0776141
-0.0807069
-0.0838055
-0.0869093
-0.0900178
-0.0931303
-0.0962464
-0.0993654
-0.102487
-0.10561
-0.108733
0.219214
0.216464
0.213726
0.211005
0.208302
0.205614
0.202927
0.200241
0.197554
0.194859
0.19216
0.189465
0.186784
0.184126
0.181495
0.178903
0.176359
0.173874
0.171456
0.169109
0.16684
0.164649
0.162537
0.160503
0.158546
0.156659
0.154837
0.153069
0.151341
0.149643
0.147961
0.146282
0.14459
0.142863
0.141068
0.139175
0.137148
0.13497
0.132654
0.130238
0.127758
0.125246
0.122731
0.120239
0.117777
0.115342
0.112921
0.110508
0.108103
0.105701
0.103298
0.100891
0.0984805
0.0960626
0.0936345
0.0911803
0.0886932
0.0861633
0.0835867
0.0809564
0.0782683
0.0755232
0.0727257
0.0698748
0.0669634
0.0639862
0.0609402
0.0578218
0.0546262
0.0513514
0.0479943
0.0445604
0.0410515
0.037478
0.0338386
0.030119
0.026306
0.0224039
0.0184573
0.0145053
0.0106332
0.00713628
0.00388417
0.000757048
-0.00231105
-0.0053495
-0.00836999
-0.0113771
-0.0143732
-0.0173602
-0.0203402
-0.0233152
-0.0262877
-0.0292597
-0.0322333
-0.0352102
-0.0381918
-0.0411793
-0.0441737
-0.0471757
-0.0501856
-0.053204
-0.0562308
-0.0592662
-0.0623101
-0.0653622
-0.0684225
-0.0714904
-0.0745658
-0.0776481
-0.0807368
-0.0838316
-0.0869318
-0.0900368
-0.0931461
-0.0962591
-0.0993752
-0.102494
-0.105614
-0.108735
0.219156
0.216292
0.213443
0.210618
0.20782
0.205048
0.202296
0.199561
0.196842
0.194132
0.191433
0.188748
0.186086
0.183458
0.18087
0.17833
0.175851
0.173439
0.1711
0.168836
0.166651
0.164542
0.16251
0.160554
0.158672
0.156859
0.155103
0.153389
0.151704
0.150034
0.14837
0.146703
0.145018
0.143288
0.141481
0.139562
0.137496
0.135281
0.132943
0.130514
0.128027
0.12552
0.123023
0.120553
0.118112
0.115699
0.113301
0.110906
0.108519
0.106136
0.103751
0.101363
0.0989714
0.0965725
0.0941535
0.0916998
0.0892008
0.0866453
0.0840278
0.0813467
0.0786058
0.0758071
0.0729491
0.0700296
0.0670451
0.0639948
0.0608797
0.0576986
0.054448
0.0511242
0.0477244
0.0442518
0.0407082
0.0370975
0.0334184
0.0296537
0.0257827
0.0217919
0.017707
0.0135718
0.00952299
0.00622504
0.00321007
0.000258911
-0.00269426
-0.00565978
-0.00863315
-0.0116083
-0.0145813
-0.0175503
-0.0205153
-0.0234773
-0.0264379
-0.0293991
-0.0323625
-0.0353298
-0.0383025
-0.0412816
-0.044268
-0.0472625
-0.0502654
-0.053277
-0.0562976
-0.0593271
-0.0623654
-0.0654123
-0.0684676
-0.0715309
-0.0746019
-0.0776801
-0.080765
-0.0838561
-0.0869528
-0.0900547
-0.0931609
-0.096271
-0.0993843
-0.1025
-0.105617
-0.108736
0.219083
0.216076
0.213089
0.210133
0.207216
0.204344
0.201518
0.198733
0.195982
0.193263
0.190581
0.187933
0.185317
0.182741
0.180217
0.177755
0.175364
0.17305
0.170813
0.168651
0.166564
0.164549
0.162604
0.16073
0.158925
0.157181
0.155484
0.153816
0.152158
0.150501
0.148842
0.147173
0.145479
0.143736
0.141912
0.139964
0.137864
0.13563
0.133291
0.13087
0.128401
0.12592
0.123449
0.121002
0.118579
0.116179
0.113787
0.111389
0.108995
0.106599
0.104205
0.101814
0.0994275
0.0970357
0.0946186
0.0921591
0.0896433
0.087062
0.0844116
0.0816926
0.0789089
0.0760701
0.073175
0.0702131
0.0671737
0.0640594
0.0608804
0.0576426
0.0543442
0.0509804
0.0475482
0.0440487
0.0404832
0.0368494
0.0331329
0.0293125
0.0253599
0.0212375
0.0169203
0.0123753
0.00771194
0.00507348
0.00250753
-0.000206301
-0.00303563
-0.00593331
-0.00886664
-0.0118159
-0.0147704
-0.0177247
-0.0206771
-0.0236278
-0.026578
-0.0295293
-0.0324834
-0.0354419
-0.0384061
-0.0413773
-0.0443562
-0.0473436
-0.0503398
-0.0533452
-0.0563598
-0.0593838
-0.0624168
-0.0654588
-0.0685095
-0.0715685
-0.0746353
-0.0777097
-0.080791
-0.0838787
-0.0869723
-0.0900711
-0.0931745
-0.0962819
-0.0993926
-0.102506
-0.105621
-0.108737
0.218999
0.215824
0.212676
0.209569
0.206518
0.203531
0.20062
0.197786
0.195019
0.192306
0.189647
0.187044
0.184492
0.181993
0.179557
0.177199
0.174923
0.172731
0.170617
0.168573
0.166596
0.164683
0.162832
0.161041
0.15931
0.157628
0.155979
0.154344
0.152699
0.151043
0.149378
0.147701
0.145996
0.144237
0.14239
0.140417
0.138308
0.136085
0.133774
0.131394
0.128966
0.126515
0.124069
0.121645
0.119243
0.116848
0.11443
0.111983
0.109536
0.107087
0.104648
0.102227
0.0998309
0.097446
0.0950418
0.0925896
0.0900628
0.0874505
0.0847587
0.0819998
0.0791845
0.0763325
0.0734404
0.0704834
0.0674399
0.0643076
0.0611033
0.0578361
0.0545083
0.0511149
0.0476544
0.0441266
0.0405256
0.0368426
0.0330575
0.0291501
0.0250978
0.0208496
0.0162906
0.0110713
0.00347848
0.0038889
0.00197808
-0.000536112
-0.00328788
-0.00614755
-0.00905858
-0.0119927
-0.0149354
-0.0178796
-0.0208227
-0.0237643
-0.0267057
-0.0296484
-0.0325941
-0.0355446
-0.0385012
-0.041465
-0.044437
-0.0474179
-0.050408
-0.0534076
-0.0564168
-0.0594356
-0.0624638
-0.0655013