/*--------------------------------*- C++ -*----------------------------------*\
  =========                 |
  \\      /  F ield         | OpenFOAM: The Open Source CFD Toolbox
   \\    /   O peration     | Website:  https://openfoam.org
    \\  /    A nd           | Version:  6
     \\/     M anipulation  |
\*---------------------------------------------------------------------------*/
FoamFile
{
    version     2.0;
    format      ascii;
    class       volScalarField;
    location    "450";
    object      T;
}
// * * * * * * * * * * * * * * * * * * * * * * * * * * * * * * * * * * * * * //

dimensions      [0 0 0 1 0 0 0];

internalField   nonuniform List<scalar> 
4800
(
552.507
552.421
552.336
552.251
552.166
552.081
551.998
551.915
551.833
551.752
551.673
551.596
551.521
551.447
551.374
551.302
551.23
551.158
551.085
551.011
550.936
550.859
550.781
550.7
550.617
550.532
550.444
550.355
550.262
550.167
550.07
549.97
549.867
549.761
549.653
549.543
549.431
549.318
549.202
549.084
548.964
548.843
548.72
548.596
548.472
548.349
548.228
548.108
547.991
547.874
547.759
547.644
547.531
547.417
547.305
547.194
547.084
546.975
546.867
546.762
546.657
546.555
546.456
546.359
546.264
546.171
546.081
545.993
545.906
545.821
545.738
545.656
545.574
545.493
545.413
545.331
545.25
545.167
545.084
544.999
544.91
544.817
544.721
544.622
544.521
544.418
544.314
544.209
544.102
543.995
543.887
543.778
543.669
543.558
543.448
543.337
543.226
543.114
543.002
542.89
542.777
542.664
542.551
542.438
542.324
542.211
542.097
541.983
541.869
541.755
541.64
541.526
541.411
541.296
541.182
541.067
540.952
540.837
540.722
540.607
552.507
552.421
552.336
552.251
552.166
552.082
551.998
551.915
551.833
551.753
551.674
551.597
551.522
551.448
551.375
551.302
551.23
551.157
551.084
551.01
550.934
550.857
550.778
550.697
550.614
550.529
550.442
550.352
550.26
550.165
550.068
549.968
549.866
549.761
549.654
549.544
549.433
549.319
549.204
549.087
548.969
548.849
548.727
548.604
548.482
548.36
548.24
548.121
548.004
547.888
547.773
547.659
547.545
547.432
547.319
547.208
547.098
546.989
546.881
546.775
546.67
546.568
546.468
546.371
546.276
546.183
546.092
546.004
545.917
545.833
545.749
545.666
545.585
545.503
545.422
545.341
545.258
545.175
545.09
545.003
544.913
544.819
544.722
544.623
544.522
544.419
544.315
544.209
544.102
543.995
543.887
543.778
543.668
543.558
543.448
543.337
543.225
543.114
543.002
542.889
542.777
542.664
542.551
542.438
542.324
542.211
542.097
541.983
541.869
541.754
541.64
541.526
541.411
541.296
541.182
541.067
540.952
540.837
540.722
540.607
552.507
552.421
552.336
552.251
552.166
552.082
551.998
551.915
551.834
551.754
551.675
551.598
551.523
551.448
551.375
551.302
551.228
551.155
551.081
551.006
550.93
550.852
550.773
550.692
550.609
550.524
550.437
550.347
550.255
550.161
550.064
549.964
549.862
549.758
549.652
549.544
549.433
549.322
549.209
549.094
548.977
548.859
548.74
548.62
548.5
548.38
548.261
548.143
548.026
547.91
547.796
547.682
547.568
547.455
547.343
547.231
547.12
547.01
546.902
546.795
546.691
546.589
546.488
546.391
546.295
546.203
546.112
546.024
545.937
545.852
545.768
545.685
545.602
545.52
545.438
545.356
545.272
545.187
545.1
545.011
544.919
544.824
544.726
544.625
544.523
544.42
544.315
544.209
544.102
543.995
543.886
543.777
543.668
543.558
543.447
543.336
543.225
543.113
543.001
542.889
542.776
542.664
542.551
542.437
542.324
542.21
542.096
541.982
541.868
541.754
541.64
541.525
541.411
541.296
541.182
541.067
540.952
540.837
540.722
540.607
552.507
552.421
552.336
552.251
552.166
552.082
551.998
551.916
551.835
551.755
551.676
551.599
551.523
551.448
551.373
551.299
551.225
551.15
551.075
550.999
550.922
550.844
550.765
550.683
550.6
550.515
550.428
550.339
550.247
550.153
550.056
549.958
549.857
549.754
549.649
549.542
549.434
549.325
549.214
549.102
548.989
548.874
548.758
548.641
548.524
548.406
548.288
548.172
548.055
547.94
547.825
547.711
547.597
547.484
547.37
547.258
547.147
547.036
546.928
546.821
546.717
546.614
546.515
546.417
546.322
546.23
546.139
546.051
545.964
545.878
545.794
545.71
545.627
545.543
545.46
545.375
545.29
545.203
545.113
545.022
544.927
544.83
544.73
544.629
544.526
544.421
544.316
544.21
544.102
543.995
543.886
543.777
543.667
543.557
543.446
543.335
543.224
543.112
543
542.888
542.776
542.663
542.55
542.437
542.323
542.21
542.096
541.982
541.868
541.754
541.64
541.525
541.411
541.296
541.181
541.067
540.952
540.837
540.722
540.607
552.507
552.421
552.336
552.251
552.166
552.082
551.998
551.916
551.835
551.755
551.677
551.599
551.522
551.446
551.37
551.294
551.218
551.142
551.066
550.989
550.912
550.833
550.753
550.671
550.588
550.503
550.416
550.327
550.235
550.142
550.046
549.949
549.849
549.748
549.644
549.54
549.435
549.329
549.221
549.113
549.003
548.892
548.779
548.665
548.551
548.437
548.321
548.206
548.09
547.975
547.859
547.745
547.63
547.516
547.402
547.289
547.177
547.067
546.958
546.852
546.748
546.646
546.547
546.45
546.356
546.264
546.174
546.085
545.998
545.912
545.827
545.742
545.657
545.572
545.486
545.399
545.311
545.222
545.13
545.035
544.937
544.837
544.735
544.633
544.528
544.423
544.317
544.21
544.102
543.994
543.885
543.776
543.666
543.556
543.445
543.334
543.223
543.111
542.999
542.887
542.775
542.662
542.549
542.436
542.323
542.209
542.095
541.981
541.867
541.753
541.639
541.525
541.41
541.296
541.181
541.066
540.952
540.837
540.722
540.607
552.507
552.421
552.335
552.25
552.165
552.081
551.998
551.916
551.835
551.755
551.676
551.597
551.519
551.441
551.363
551.286
551.209
551.131
551.054
550.976
550.898
550.818
550.737
550.655
550.572
550.487
550.4
550.311
550.221
550.128
550.034
549.937
549.839
549.74
549.639
549.538
549.436
549.333
549.229
549.124
549.018
548.911
548.802
548.692
548.58
548.468
548.355
548.241
548.127
548.012
547.896
547.78
547.665
547.55
547.436
547.323
547.212
547.102
546.994
546.888
546.785
546.684
546.586
546.49
546.396
546.305
546.215
546.126
546.038
545.952
545.865
545.779
545.692
545.605
545.517
545.427
545.335
545.242
545.146
545.049
544.948
544.845
544.742
544.637
544.531
544.425
544.318
544.21
544.102
543.994
543.884
543.775
543.665
543.554
543.444
543.333
543.221
543.11
542.998
542.886
542.773
542.661
542.548
542.435
542.322
542.208
542.095
541.981
541.867
541.753
541.639
541.524
541.41
541.295
541.181
541.066
540.952
540.837
540.722
540.607
552.507
552.421
552.335
552.25
552.165
552.081
551.998
551.915
551.834
551.753
551.673
551.593
551.513
551.434
551.355
551.275
551.197
551.118
551.039
550.96
550.88
550.8
550.719
550.636
550.553
550.468
550.381
550.293
550.203
550.111
550.018
549.923
549.827
549.731
549.633
549.535
549.436
549.337
549.237
549.136
549.034
548.93
548.825
548.718
548.61
548.5
548.389
548.276
548.163
548.048
547.933
547.817
547.702
547.587
547.473
547.361
547.25
547.141
547.034
546.93
546.828
546.728
546.631
546.536
546.442
546.351
546.261
546.172
546.084
545.996
545.908
545.821
545.732
545.642
545.55
545.457
545.362
545.265
545.165
545.064
544.959
544.854
544.748
544.642
544.535
544.427
544.319
544.211
544.102
543.993
543.883
543.773
543.663
543.553
543.442
543.331
543.22
543.108
542.996
542.884
542.772
542.659
542.547
542.434
542.32
542.207
542.094
541.98
541.866
541.752
541.638
541.524
541.409
541.295
541.181
541.066
540.951
540.837
540.722
540.607
552.507
552.421
552.335
552.249
552.164
552.08
551.997
551.914
551.832
551.75
551.669
551.587
551.506
551.424
551.343
551.263
551.182
551.102
551.022
550.942
550.861
550.779
550.697
550.614
550.531
550.446
550.359
550.272
550.183
550.092
550.001
549.908
549.814
549.72
549.626
549.531
549.436
549.34
549.244
549.148
549.049
548.949
548.847
548.744
548.638
548.53
548.421
548.309
548.197
548.083
547.968
547.853
547.739
547.625
547.512
547.401
547.291
547.184
547.079
546.975
546.875
546.776
546.68
546.585
546.493
546.401
546.311
546.222
546.133
546.044
545.955
545.866
545.774
545.681
545.586
545.489
545.39
545.288
545.185
545.079
544.971
544.863
544.755
544.646
544.537
544.429
544.32
544.21
544.101
543.991
543.882
543.772
543.661
543.551
543.44
543.329
543.218
543.106
542.994
542.882
542.77
542.658
542.545
542.432
542.319
542.206
542.092
541.979
541.865
541.751
541.637
541.523
541.409
541.295
541.18
541.066
540.951
540.837
540.722
540.607
552.507
552.421
552.335
552.249
552.164
552.079
551.995
551.912
551.829
551.746
551.663
551.58
551.496
551.413
551.33
551.248
551.166
551.085
551.003
550.921
550.84
550.757
550.675
550.591
550.507
550.422
550.336
550.249
550.161
550.072
549.982
549.892
549.8
549.709
549.618
549.526
549.435
549.344
549.252
549.159
549.064
548.968
548.869
548.768
548.664
548.558
548.45
548.34
548.229
548.116
548.003
547.889
547.775
547.663
547.551
547.442
547.334
547.229
547.125
547.023
546.924
546.827
546.732
546.638
546.546
546.454
546.364
546.274
546.185
546.095
546.004
545.912
545.819
545.723
545.624
545.523
545.419
545.313
545.205
545.095
544.983
544.872
544.761
544.65
544.54
544.43
544.32
544.21
544.1
543.99
543.88
543.769
543.659
543.548
543.438
543.327
543.215
543.104
542.992
542.88
542.768
542.656
542.543
542.431
542.318
542.205
542.091
541.978
541.864
541.75
541.636
541.522
541.408
541.294
541.18
541.065
540.951
540.836
540.722
540.607
552.507
552.42
552.334
552.248
552.163
552.078
551.993
551.909
551.825
551.74
551.656
551.57
551.485
551.4
551.316
551.232
551.149
551.065
550.983
550.9
550.817
550.734
550.651
550.567
550.483
550.398
550.313
550.226
550.14
550.052
549.964
549.875
549.787
549.698
549.61
549.522
549.435
549.347
549.259
549.17
549.079
548.985
548.889
548.791
548.689
548.585
548.478
548.369
548.259
548.147
548.035
547.923
547.811
547.701
547.591
547.484
547.378
547.275
547.173
547.073
546.975
546.879
546.785
546.692
546.6
546.509
546.419
546.328
546.238
546.147
546.055
545.96
545.864
545.764
545.661
545.556
545.448
545.337
545.224
545.11
544.994
544.88
544.767
544.654
544.542
544.431
544.32
544.209
544.098
543.988
543.877
543.767
543.656
543.546
543.435
543.324
543.213
543.101
542.99
542.878
542.766
542.654
542.541
542.429
542.316
542.203
542.09
541.977
541.863
541.749
541.636
541.522
541.408
541.293
541.179
541.065
540.951
540.836
540.722
540.607
552.507
552.42
552.334
552.247
552.162
552.076
551.991
551.906
551.82
551.734
551.648
551.561
551.473
551.387
551.301
551.215
551.13
551.046
550.962
550.878
550.794
550.71
550.626
550.542
550.458
550.374
550.289
550.204
550.118
550.032
549.946
549.86
549.773
549.688
549.603
549.518
549.434
549.35
549.266
549.18
549.092
549.002
548.908
548.812
548.712
548.609
548.503
548.396
548.287
548.177
548.066
547.956
547.846
547.738
547.631
547.525
547.422
547.32
547.221
547.123
547.027
546.932
546.838
546.746
546.655
546.564
546.473
546.383
546.291
546.199
546.104
546.007
545.907
545.804
545.698
545.589
545.476
545.36
545.242
545.123
545.004
544.887
544.771
544.657
544.543
544.431
544.319
544.207
544.096
543.985
543.874
543.764
543.653
543.542
543.432
543.321
543.21
543.098
542.987
542.875
542.764
542.652
542.539
542.427
542.314
542.201
542.088
541.975
541.862
541.748
541.635
541.521
541.407
541.293
541.179
541.064
540.95
540.836
540.722
540.607
552.507
552.42
552.333
552.247
552.16
552.074
551.988
551.902
551.815
551.728
551.64
551.551
551.462
551.374
551.286
551.199
551.112
551.026
550.941
550.856
550.771
550.687
550.602
550.518
550.434
550.35
550.266
550.182
550.098
550.014
549.929
549.845
549.762
549.678
549.596
549.515
549.433
549.352
549.271
549.188
549.104
549.016
548.925
548.831
548.733
548.631
548.527
548.421
548.313
548.205
548.096
547.987
547.88
547.773
547.669
547.566
547.464
547.365
547.267
547.171
547.076
546.983
546.891
546.799
546.708
546.617
546.526
546.434
546.342
546.247
546.151
546.051
545.948
545.842
545.732
545.618
545.501
545.381
545.259
545.135
545.013
544.893
544.775
544.659
544.544
544.43
544.317
544.205
544.093
543.982
543.871
543.76
543.65
543.539
543.428
543.317
543.206
543.095
542.984
542.873
542.761
542.649
542.537
542.425
542.312
542.2
542.087
541.974
541.861
541.747
541.634
541.52
541.406
541.292
541.178
541.064
540.95
540.836
540.721
540.607
552.506
552.419
552.332
552.245
552.159
552.072
551.985
551.898
551.81
551.722
551.632
551.542
551.452
551.361
551.272
551.183
551.095
551.007
550.921
550.834
550.749
550.664
550.579
550.495
550.412
550.328
550.245
550.162
550.079
549.997
549.915
549.833
549.752
549.671
549.591
549.512
549.433
549.355
549.277
549.197
549.114
549.029
548.94
548.847
548.75
548.65
548.548
548.443
548.337
548.23
548.123
548.017
547.912
547.808
547.705
547.604
547.505
547.407
547.311
547.217
547.124
547.031
546.94
546.849
546.758
546.667
546.575
546.483
546.389
546.292
546.193
546.091
545.985
545.876
545.762
545.644
545.523
545.399
545.272
545.145
545.02
544.897
544.777
544.659
544.543
544.428
544.314
544.202
544.09
543.978
543.867
543.756
543.646
543.535
543.424
543.314
543.203
543.092
542.981
542.87
542.758
542.647
542.535
542.423
542.31
542.198
542.085
541.972
541.859
541.746
541.632
541.519
541.405
541.291
541.178
541.064
540.95
540.835
540.721
540.607
552.506
552.419
552.331
552.244
552.157
552.069
551.982
551.893
551.805
551.715
551.625
551.533
551.442
551.349
551.258
551.168
551.078
550.989
550.901
550.814
550.727
550.642
550.558
550.474
550.391
550.308
550.226
550.144
550.063
549.982
549.902
549.823
549.744
549.666
549.588
549.512
549.436
549.36
549.283
549.205
549.124
549.04
548.952
548.861
548.765
548.667
548.566
548.463
548.358
548.254
548.149
548.045
547.941
547.839
547.739
547.64
547.543
547.447
547.353
547.26
547.168
547.077
546.986
546.895
546.804
546.713
546.62
546.527
546.431
546.333
546.232
546.127
546.018
545.905
545.788
545.667
545.541
545.412
545.282
545.152
545.024
544.899
544.777
544.658
544.54
544.425
544.311
544.197
544.085
543.974
543.862
543.752
543.641
543.531
543.42
543.31
543.199
543.089
542.978
542.867
542.755
542.644
542.532
542.42
542.308
542.196
542.083
541.971
541.858
541.745
541.631
541.518
541.404
541.291
541.177
541.063
540.949
540.835
540.721
540.607
552.506
552.418
552.33
552.242
552.154
552.066
551.978
551.888
551.799
551.708
551.617
551.524
551.432
551.338
551.245
551.153
551.062
550.972
550.883
550.794
550.708
550.622
550.537
550.454
550.371
550.29
550.209
550.129
550.049
549.971
549.893
549.816
549.739
549.664
549.589
549.514
549.44
549.365
549.29
549.212
549.132
549.049
548.962
548.871
548.777
548.68
548.581
548.48
548.378
548.275
548.172
548.07
547.969
547.869
547.771
547.674
547.579
547.485
547.392
547.3
547.209
547.118
547.028
546.937
546.846
546.754
546.661
546.566
546.468
546.368
546.264
546.157
546.045
545.929
545.809
545.684
545.555
545.422
545.289
545.156
545.026
544.899
544.776
544.655
544.537
544.421
544.306
544.192
544.08
543.968
543.857
543.747
543.636
543.526
543.416
543.306
543.195
543.085
542.974
542.863
542.752
542.641
542.53
542.418
542.306
542.194
542.082
541.969
541.856
541.743
541.63
541.517
541.403
541.29
541.176
541.063
540.949
540.835
540.721
540.607
552.506
552.417
552.328
552.24
552.151
552.062
551.973
551.883
551.792
551.701
551.608
551.515
551.421
551.327
551.232
551.138
551.046
550.955
550.865
550.776
550.689
550.603
550.519
550.436
550.354
550.273
550.194
550.115
550.038
549.962
549.886
549.812
549.738
549.665
549.593
549.52
549.447
549.373
549.297
549.219
549.139
549.055
548.969
548.879
548.786
548.69
548.593
548.494
548.394
548.294
548.194
548.094
547.995
547.898
547.801
547.706
547.612
547.52
547.428
547.337
547.247
547.156
547.066
546.974
546.883
546.79
546.695
546.598
546.499
546.396
546.29
546.18
546.066
545.947
545.824
545.696
545.564
545.43
545.293
545.158
545.025
544.896
544.772
544.65
544.531
544.415
544.3
544.187
544.074
543.963
543.852
543.741
543.631
543.521
543.411
543.301
543.191
543.081
542.97
542.86
542.749
542.638
542.527
542.415
542.304
542.192
542.08
541.967
541.855
541.742
541.629
541.516
541.403
541.289
541.176
541.062
540.948
540.835
540.721
540.607
552.505
552.416
552.326
552.237
552.147
552.058
551.967
551.876
551.785
551.692
551.599
551.505
551.411
551.315
551.219
551.124
551.03
550.938
550.848
550.759
550.671
550.585
550.501
550.419
550.338
550.258
550.181
550.104
550.029
549.956
549.883
549.811
549.741
549.67
549.6
549.529
549.457
549.383
549.307
549.227
549.145
549.06
548.973
548.884
548.792
548.698
548.603
548.506
548.409
548.311
548.213
548.116
548.019
547.924
547.829
547.736
547.644
547.552
547.461
547.371
547.28
547.19
547.099
547.007
546.914
546.819
546.723
546.624
546.522
546.417
546.308
546.195
546.078
545.957
545.831
545.701
545.568
545.431
545.293
545.155
545.021
544.891
544.765
544.643
544.524
544.408
544.293
544.18
544.068
543.956
543.846
543.736
543.626
543.516
543.406
543.297
543.187
543.077
542.967
542.856
542.746
542.635
542.524
542.413
542.301
542.19
542.078
541.966
541.853
541.741
541.628
541.515
541.402
541.288
541.175
541.062
540.948
540.834
540.721
540.607
552.505
552.414
552.323
552.233
552.142
552.052
551.96
551.869
551.776
551.682
551.588
551.493
551.398
551.301
551.205
551.109
551.014
550.921
550.83
550.741
550.654
550.568
550.485
550.403
550.324
550.246
550.17
550.096
550.024
549.953
549.883
549.815
549.747
549.679
549.611
549.541
549.47
549.395
549.317
549.236
549.152
549.065
548.977
548.887
548.796
548.704
548.611
548.516
548.421
548.326
548.231
548.136
548.042
547.948
547.855
547.764
547.672
547.581
547.491
547.401
547.31
547.219
547.127
547.033
546.939
546.842
546.743
546.641
546.537
546.429
546.318
546.202
546.083
545.96
545.832
545.7
545.565
545.427
545.288
545.149
545.013
544.882
544.757
544.635
544.516
544.399
544.285
544.172
544.061
543.95
543.839
543.73
543.62
543.511
543.401
543.292
543.182
543.073
542.963
542.853
542.743
542.632
542.521
542.41
542.299
542.188
542.076
541.964
541.852
541.739
541.627
541.514
541.401
541.288
541.174
541.061
540.948
540.834
540.72
540.607
552.504
552.412
552.32
552.228
552.136
552.044
551.952
551.859
551.765
551.67
551.575
551.479
551.383
551.286
551.189
551.093
550.998
550.905
550.814
550.725
550.638
550.553
550.47
550.39
550.312
550.236
550.162
550.091
550.021
549.954
549.887
549.821
549.756
549.69
549.623
549.555
549.483
549.408
549.329
549.245
549.159
549.071
548.981
548.891
548.801
548.71
548.618
548.526
548.433
548.34
548.248
548.155
548.063
547.971
547.88
547.789
547.699
547.608
547.518
547.427
547.335
547.243
547.149
547.054
546.957
546.857
546.756
546.651
546.544
546.433
546.319
546.201
546.079
545.954
545.824
545.692
545.556
545.417
545.277
545.138
545.001
544.871
544.745
544.623
544.505
544.39
544.276
544.164
544.053
543.943
543.833
543.723
543.614
543.505
543.396
543.287
543.178
543.069
542.959
542.849
542.739
542.629
542.519
542.408
542.297
542.186
542.074
541.962
541.85
541.738
541.625
541.513
541.4
541.287
541.174
541.06
540.947
540.834
540.72
540.607
552.503
552.409
552.315
552.222
552.128
552.035
551.941
551.847
551.752
551.656
551.56
551.463
551.366
551.269
551.172
551.076
550.981
550.889
550.798
550.709
550.623
550.539
550.458
550.38
550.304
550.23
550.159
550.09
550.023
549.958
549.894
549.831
549.767
549.703
549.637
549.569
549.498
549.422
549.341
549.255
549.167
549.077
548.986
548.896
548.806
548.716
548.626
548.535
548.445
548.355
548.264
548.173
548.083
547.993
547.903
547.813
547.723
547.633
547.542
547.45
547.357
547.262
547.166
547.068
546.968
546.866
546.761
546.654
546.543
546.429
546.312
546.192
546.068
545.941
545.811
545.678
545.542
545.403
545.263
545.123
544.985
544.855
544.73
544.61
544.494
544.379
544.267
544.155
544.045
543.935
543.826
543.717
543.608
543.5
543.391
543.282
543.173
543.064
542.955
542.846
542.736
542.626
542.516
542.405
542.295
542.183
542.072
541.96
541.849
541.737
541.624
541.512
541.399
541.286
541.173
541.06
540.947
540.833
540.72
540.607
552.502
552.405
552.309
552.213
552.118
552.023
551.927
551.831
551.735
551.638
551.541
551.444
551.346
551.249
551.153
551.058
550.964
550.872
550.782
550.695
550.611
550.529
550.45
550.373
550.3
550.229
550.16
550.094
550.029
549.966
549.904
549.842
549.78
549.716
549.651
549.583
549.511
549.433
549.351
549.264
549.175
549.084
548.993
548.902
548.812
548.723
548.634
548.546
548.457
548.369
548.28
548.191
548.103
548.014
547.925
547.836
547.746
547.655
547.563
547.469
547.374
547.277
547.178
547.077
546.974
546.87
546.762
546.651
546.538
546.422
546.302
546.179
546.054
545.925
545.794
545.661
545.524
545.385
545.244
545.103
544.964
544.835
544.712
544.595
544.48
544.368
544.257
544.146
544.037
543.928
543.819
543.711
543.602
543.494
543.386
543.278
543.169
543.06
542.952
542.842
542.733
542.623
542.513
542.403
542.292
542.181
542.07
541.959
541.847
541.735
541.623
541.511
541.398
541.285
541.173
541.059
540.946
540.833
540.72
540.607
552.5
552.4
552.301
552.202
552.104
552.007
551.909
551.812
551.714
551.617
551.519
551.421
551.324
551.227
551.132
551.038
550.946
550.856
550.768
550.683
550.601
550.521
550.445
550.371
550.3
550.231
550.165
550.101
550.039
549.977
549.916
549.855
549.794
549.731
549.666
549.597
549.524
549.445
549.361
549.273
549.183
549.092
549.001
548.91
548.821
548.733
548.645
548.558
548.47
548.383
548.296
548.209
548.121
548.034
547.946
547.857
547.766
547.675
547.581
547.486
547.388
547.289
547.187
547.084
546.978
546.87
546.76
546.647
546.531
546.412
546.291
546.166
546.039
545.909
545.777
545.642
545.504
545.363
545.219
545.076
544.936
544.809
544.691
544.578
544.466
544.356
544.247
544.137
544.029
543.92
543.812
543.704
543.597
543.489
543.381
543.273
543.165
543.057
542.948
542.839
542.73
542.62
542.511
542.401
542.29
542.18
542.069
541.957
541.846
541.734
541.622
541.51
541.397
541.285
541.172
541.059
540.946
540.833
540.72
540.607
552.498
552.394
552.291
552.188
552.087
551.986
551.886
551.787
551.689
551.59
551.492
551.395
551.299
551.203
551.109
551.017
550.927
550.84
550.755
550.673
550.594
550.517
550.444
550.373
550.305
550.239
550.175
550.113
550.052
549.991
549.931
549.87
549.809
549.747
549.681
549.611
549.536
549.456
549.371
549.283
549.193
549.102
549.011
548.922
548.833
548.746
548.659
548.572
548.485
548.399
548.312
548.226
548.139
548.052
547.964
547.875
547.785
547.692
547.597
547.5
547.4
547.299
547.195
547.089
546.981
546.871
546.758
546.642
546.525
546.404
546.281
546.155
546.026
545.895
545.762
545.626
545.485
545.34
545.192
545.042
544.896
544.776
544.667
544.559
544.452
544.345
544.237
544.129
544.021
543.914
543.806
543.699
543.591
543.484
543.376
543.269
543.161
543.053
542.945
542.836
542.727
542.618
542.508
542.398
542.288
542.178
542.067
541.956
541.844
541.733
541.621
541.509
541.397
541.284
541.171
541.059
540.946
540.833
540.72
540.607
552.495
552.386
552.278
552.171
552.065
551.961
551.858
551.757
551.658
551.559
551.462
551.366
551.271
551.177
551.086
550.997
550.91
550.826
550.745
550.666
550.591
550.518
550.447
550.379
550.314
550.251
550.189
550.128
550.068
550.008
549.948
549.887
549.826
549.763
549.697
549.626
549.55
549.469
549.384
549.296
549.207
549.117
549.027
548.938
548.85
548.763
548.676
548.589
548.503
548.416
548.329
548.242
548.156
548.069
547.981
547.892
547.801
547.707
547.611
547.512
547.411
547.308
547.203
547.096
546.986
546.873
546.758
546.64
546.521
546.399
546.274
546.148
546.018
545.886
545.752
545.613
545.47
545.32
545.164
544.999
544.83
544.734
544.641
544.543
544.44
544.335
544.229
544.122
544.014
543.907
543.8
543.693
543.586
543.479
543.372
543.265
543.157
543.049
542.941
542.833
542.724
542.615
542.506
542.396
542.286
542.176
542.065
541.954
541.843
541.732
541.62
541.508
541.396
541.283
541.171
541.058
540.945
540.832
540.72
540.607
552.492
552.377
552.263
552.15
552.04
551.931
551.826
551.723
551.623
551.524
551.428
551.333
551.241
551.15
551.062
550.976
550.894
550.814
550.738
550.664
550.592
550.523
550.455
550.391
550.328
550.267
550.207
550.148
550.088
550.028
549.968
549.907
549.845
549.781
549.714
549.643
549.566
549.485
549.402
549.315
549.227
549.138
549.049
548.962
548.874
548.788
548.7
548.611
548.522
548.433
548.345
548.257
548.17
548.084
547.996
547.907
547.816
547.721
547.623
547.523
547.421
547.317
547.213
547.105
546.995
546.882
546.766
546.647
546.527
546.404
546.278
546.15
546.02
545.886
545.749
545.607
545.46
545.306
545.141
544.952
544.693
544.691
544.622
544.531
544.431
544.327
544.222
544.115
544.008
543.902
543.795
543.688
543.582
543.475
543.368
543.261
543.154
543.046
542.938
542.83
542.722
542.613
542.504
542.394
542.285
542.175
542.064
541.953
541.842
541.731
541.619
541.507
541.395
541.283
541.17
541.058
540.945
540.832
540.719
540.606
552.489
552.367
552.246
552.128
552.013
551.901
551.792
551.687
551.586
551.488
551.393
551.301
551.211
551.124
551.04
550.959
550.881
550.806
550.735
550.665
550.598
550.533
550.469
550.407
550.346
550.287
550.228
550.169
550.11
550.05
549.99
549.93
549.869
549.806
549.739
549.667
549.591
549.512
549.431
549.346
549.259
549.17
549.082
548.995
548.908
548.821
548.731
548.638
548.545
548.453
548.361
548.272
548.184
548.099
548.012
547.923
547.83
547.733
547.632
547.53
547.426
547.323
547.22
547.115
547.007
546.895
546.78
546.662
546.541
546.418
546.292
546.164
546.032
545.895
545.754
545.608
545.458
545.304
545.143
544.975
544.811
544.717
544.624
544.527
544.426
544.322
544.216
544.11
544.003
543.897
543.79
543.684
543.577
543.471
543.364
543.258
543.151
543.043
542.936
542.828
542.72
542.611
542.502
542.393
542.283
542.173
542.063
541.952
541.841
541.73
541.618
541.507
541.395
541.282
541.17
541.058
540.945
540.832
540.719
540.606
552.485
552.356
552.228
552.104
551.984
551.869
551.758
551.653
551.551
551.454
551.361
551.271
551.185
551.102
551.022
550.945
550.872
550.803
550.736
550.671
550.609
550.547
550.487
550.428
550.369
550.31
550.252
550.193
550.134
550.077
550.021
549.964
549.905
549.844
549.779
549.71
549.636
549.559
549.48
549.395
549.305
549.215
549.128
549.042
548.955
548.867
548.773
548.675
548.575
548.477
548.382
548.29
548.203
548.119
548.034
547.943
547.847
547.743
547.635
547.53
547.425
547.321
547.22
547.119
547.015
546.906
546.795
546.68
546.562
546.44
546.314
546.186
546.053
545.913
545.767
545.616
545.463
545.309
545.155
545.003
544.859
544.739
544.631
544.527
544.422
544.318
544.212
544.106
543.999
543.893
543.786
543.68
543.574
543.468
543.361
543.255
543.148
543.041
542.934
542.826
542.718
542.609
542.501
542.391
542.282
542.172
542.062
541.951
541.84
541.729
541.618
541.506
541.394
541.282
541.17
541.057
540.945
540.832
540.719
540.606
552.481
552.344
552.21
552.081
551.958
551.84
551.728
551.622
551.521
551.425
551.334
551.247
551.165
551.086
551.01
550.938
550.87
550.804
550.741
550.68
550.622
550.565
550.509
550.453
550.396
550.338
550.279
550.221
550.166
550.114
550.066
550.018
549.965
549.907
549.845
549.78
549.707
549.636
549.563
549.473
549.375
549.283
549.205
549.118
549.031
548.942
548.838
548.732
548.62
548.518
548.425
548.329
548.241
548.164
548.076
547.979
547.878
547.763
547.635
547.529
547.423
547.315
547.216
547.116
547.016
546.905
546.805
546.692
546.581
546.461
546.335
546.21
546.077
545.938
545.793
545.638
545.482
545.326
545.171
545.02
544.877
544.747
544.632
544.524
544.418
544.313
544.208
544.102
543.996
543.889
543.783
543.677
543.571
543.465
543.359
543.252
543.146
543.039
542.932
542.824
542.716
542.608
542.499
542.39
542.281
542.171
542.061
541.95
541.84
541.729
541.617
541.506
541.394
541.282
541.17
541.057
540.945
540.832
540.719
540.606
552.476
552.332
552.192
552.06
551.935
551.816
551.704
551.598
551.498
551.404
551.317
551.234
551.156
551.081
551.009
550.94
550.874
550.81
550.748
550.689
550.634
550.583
550.533
550.483
550.432
550.376
550.317
550.261
550.212
550.175
550.15
550.121
550.071
550.015
549.957
549.897
549.823
549.769
549.723
549.616
549.497
549.403
549.375
549.271
549.172
549.083
548.954
548.843
548.71
548.611
548.546
548.429
548.341
548.277
548.181
548.062
547.959
547.828
547.641
547.549
547.464
547.331
547.226
547.113
547.013
546.873
546.801
546.682
546.59
546.482
546.348
546.228
546.105
545.978
545.846
545.685
545.524
545.36
545.181
545.011
544.861
544.733
544.621
544.515
544.412
544.309
544.204
544.099
543.993
543.887
543.78
543.674
543.569
543.463
543.357
543.25
543.144
543.037
542.93
542.823
542.715
542.607
542.498
542.389
542.28
542.17
542.06
541.95
541.839
541.728
541.617
541.505
541.394
541.282
541.169
541.057
540.944
540.832
540.719
540.606
552.472
552.321
552.179
552.046
551.92
551.802
551.69
551.585
551.487
551.397
551.314
551.235
551.161
551.09
551.021
550.952
550.886
550.818
550.753
550.695
550.642
550.598
550.559
550.528
550.496
550.447
550.389
550.336
550.3
550.291
550.323
550.341
550.286
550.222
550.164
550.1
549.993
549.877
549.791
549.673
549.526
549.431
549.35
549.244
549.168
549.068
548.959
548.873
548.782
548.701
548.584
548.457
548.337
548.237
548.132
547.994
547.877
547.777
547.567
547.471
547.383
547.215
547.089
546.951
546.866
546.731
546.689
546.576
546.494
546.42
546.267
546.131
546.023
545.918
545.84
545.715
545.538
545.398
545.159
544.917
544.776
544.679
544.593
544.5
544.403
544.303
544.2
544.096
543.99
543.884
543.779
543.673
543.567
543.461
543.355
543.249
543.143
543.036
542.929
542.822
542.714
542.606
542.497
542.389
542.279
542.17
542.06
541.949
541.839
541.728
541.617
541.505
541.393
541.281
541.169
541.057
540.944
540.832
540.719
540.606
552.468
552.313
552.17
552.038
551.915
551.798
551.687
551.584
551.492
551.406
551.336
551.257
551.19
551.121
551.052
550.982
550.914
550.832
550.756
550.705
550.658
550.624
550.609
550.631
550.652
550.628
550.567
550.502
550.488
550.513
550.477
550.455
550.447
550.408
550.304
550.172
550.018
549.894
549.754
549.637
549.5
549.392
549.3
549.184
549.115
548.994
548.9
548.846
548.778
548.74
548.618
548.431
548.286
548.133
548.002
547.889
547.777
547.655
547.429
547.325
547.185
547.018
546.935
546.781
546.737
546.516
546.428
546.323
546.181
546.292
546.127
545.88
545.794
545.787
545.636
545.383
545.366
545.84
544.898
544.549
544.635
544.573
544.551
544.481
544.393
544.298
544.197
544.094
543.989
543.883
543.777
543.671
543.566
543.46
543.354
543.248
543.142
543.035
542.928
542.821
542.714
542.605
542.497
542.388
542.279
542.169
542.06
541.949
541.839
541.728
541.616
541.505
541.393