/*--------------------------------*- C++ -*----------------------------------*\
  =========                 |
  \\      /  F ield         | OpenFOAM: The Open Source CFD Toolbox
   \\    /   O peration     | Website:  https://openfoam.org
    \\  /    A nd           | Version:  6
     \\/     M anipulation  |
\*---------------------------------------------------------------------------*/
FoamFile
{
    version     2.0;
    format      ascii;
    class       surfaceScalarField;
    location    "7300";
    object      phi;
}
// * * * * * * * * * * * * * * * * * * * * * * * * * * * * * * * * * * * * * //

dimensions      [0 3 -1 0 0 0 0];

internalField   nonuniform List<scalar> 
9440
(
5.80348e-14
-5.8035e-14
1.25094e-13
-5.60575e-14
1.89196e-13
-5.53238e-14
2.51883e-13
-5.43392e-14
3.13448e-13
-5.34134e-14
3.73997e-13
-5.26033e-14
4.33564e-13
-5.18743e-14
4.92337e-13
-5.13797e-14
5.50484e-13
-5.11022e-14
6.08367e-13
-5.12312e-14
6.6622e-13
-5.16383e-14
7.24394e-13
-5.24354e-14
7.83275e-13
-5.36548e-14
8.42809e-13
-5.48567e-14
9.02985e-13
-5.60742e-14
9.63548e-13
-5.70659e-14
1.0247e-12
-5.82787e-14
1.08816e-12
-6.12385e-14
1.15193e-12
-6.22089e-14
1.21496e-12
-6.21454e-14
1.27689e-12
-6.17149e-14
1.3411e-12
-6.4681e-14
1.40257e-12
-6.26172e-14
1.46212e-12
-6.13588e-14
1.51976e-12
-6.01239e-14
1.5744e-12
-5.77685e-14
1.6255e-12
-5.48412e-14
1.67259e-12
-5.14461e-14
1.71504e-12
-4.73892e-14
1.75261e-12
-4.30406e-14
1.78494e-12
-3.83228e-14
1.81173e-12
-3.32627e-14
1.83288e-12
-2.80529e-14
1.84822e-12
-2.26368e-14
1.85783e-12
-1.72567e-14
1.86169e-12
-1.18083e-14
1.86003e-12
-6.52807e-15
1.85288e-12
-1.25196e-15
1.84066e-12
3.68141e-15
1.82353e-12
8.49249e-15
1.80179e-12
1.30685e-14
1.77576e-12
1.73685e-14
1.74578e-12
2.1391e-14
1.71224e-12
2.50752e-14
1.67521e-12
2.87318e-14
1.63516e-12
3.19818e-14
1.59218e-12
3.51918e-14
1.54717e-12
3.75491e-14
1.49993e-12
4.01451e-14
1.45093e-12
4.23259e-14
1.4004e-12
4.43077e-14
1.34845e-12
4.6231e-14
1.2955e-12
4.77646e-14
1.24177e-12
4.91061e-14
1.18742e-12
5.0317e-14
1.13286e-12
5.11439e-14
1.07807e-12
5.20187e-14
1.02346e-12
5.2497e-14
9.6889e-13
5.3132e-14
9.1484e-13
5.32866e-14
8.61401e-13
5.33577e-14
8.08685e-13
5.33205e-14
7.56765e-13
5.32039e-14
7.05743e-13
5.2977e-14
6.55713e-13
5.2645e-14
6.0681e-13
5.21602e-14
5.58989e-13
5.16974e-14
5.12304e-13
5.11562e-14
4.66784e-13
5.05607e-14
4.22627e-13
4.97309e-14
3.79825e-13
4.8874e-14
3.38562e-13
4.77928e-14
2.99222e-13
4.62896e-14
2.63073e-13
4.34699e-14
2.33454e-13
3.7265e-14
2.21731e-13
1.96467e-14
2.6666e-13
-3.67804e-14
1.34326e-13
1.40659e-13
-5.2591e-15
1.48028e-13
-5.11213e-22
6.52158e-21
-5.56951e-22
5.0975e-23
-3.76471e-22
-1.45791e-22
3.90895e-22
-1.45739e-22
1.09498e-21
-1.08309e-22
1.67194e-21
-6.87077e-23
2.12461e-21
-3.26736e-23
2.46438e-21
-1.03397e-24
2.7025e-21
2.56426e-23
2.8516e-21
4.74078e-23
2.92465e-21
6.43133e-23
2.93448e-21
7.67727e-23
2.89368e-21
8.55098e-23
2.8135e-21
9.11967e-23
2.70431e-21
9.42986e-23
2.57434e-21
9.53843e-23
2.43083e-21
9.50224e-23
2.2793e-21
9.35748e-23
2.12456e-21
9.13518e-23
1.96967e-21
8.86117e-23
1.81763e-21
8.56132e-23
1.67044e-21
8.26147e-23
1.5292e-21
7.9461e-23
1.39468e-21
7.63074e-23
1.26776e-21
7.34123e-23
1.14828e-21
7.05689e-23
1.0363e-21
6.80356e-23
9.31612e-22
6.58126e-23
8.33902e-22
6.37963e-23
7.42446e-22
6.20386e-23
6.5704e-22
6.06944e-23
5.76959e-22
5.9557e-23
5.01375e-22
5.85747e-23
4.30031e-22
5.76959e-23
3.6215e-22
5.70238e-23
2.97527e-22
5.66102e-23
2.34971e-22
5.63e-23
1.74587e-22
5.60932e-23
1.15443e-22
5.59898e-23
5.72306e-23
5.58864e-23
5.55245e-23
6.05218e-14
-1.07597e-13
1.26502e-13
-1.04588e-13
1.89627e-13
-1.03418e-13
2.51878e-13
-1.02095e-13
3.13249e-13
-1.00685e-13
3.73588e-13
-9.9303e-14
4.32946e-13
-9.81382e-14
4.91454e-13
-9.74248e-14
5.49394e-13
-9.72878e-14
6.06946e-13
-9.78141e-14
6.64581e-13
-9.91591e-14
7.2263e-13
-1.0129e-13
7.81387e-13
-1.04202e-13
8.40796e-13
-1.0709e-13
9.01057e-13
-1.1024e-13
9.61336e-13
-1.1237e-13
1.02307e-12
-1.16194e-13
1.08688e-12
-1.2241e-13
1.15084e-12
-1.24722e-13
1.21409e-12
-1.25165e-13
1.27712e-12
-1.25721e-13
1.34145e-12
-1.31189e-13
1.40358e-12
-1.28129e-13
1.46367e-12
-1.26001e-13
1.52205e-12
-1.24198e-13
1.57733e-12
-1.19858e-13
1.62891e-12
-1.14303e-13
1.67651e-12
-1.07956e-13
1.71942e-12
-1.00166e-13
1.75737e-12
-9.17743e-14
1.79001e-12
-8.25735e-14
1.81703e-12
-7.26669e-14
1.83831e-12
-6.24045e-14
1.8537e-12
-5.17128e-14
1.8632e-12
-4.09555e-14
1.86704e-12
-3.02918e-14
1.8652e-12
-1.96719e-14
1.85791e-12
-9.20024e-15
1.84545e-12
7.59758e-16
1.8281e-12
1.03936e-14
1.80599e-12
1.9763e-14
1.77983e-12
2.82556e-14
1.7496e-12
3.65671e-14
1.71568e-12
4.42696e-14
1.67847e-12
5.16322e-14
1.63819e-12
5.84552e-14
1.59502e-12
6.51395e-14
1.54967e-12
7.03621e-14
1.50231e-12
7.57063e-14
1.45306e-12
8.0609e-14
1.40233e-12
8.49587e-14
1.35014e-12
8.9299e-14
1.29692e-12
9.28652e-14
1.24303e-12
9.59478e-14
1.18852e-12
9.88923e-14
1.13372e-12
1.0114e-13
1.07883e-12
1.03291e-13
1.02395e-12
1.04944e-13
9.69256e-13
1.06611e-13
9.15056e-13
1.07488e-13
8.61487e-13
1.08147e-13
8.08704e-13
1.0853e-13
7.56698e-13
1.08831e-13
7.05589e-13
1.08876e-13
6.55521e-13
1.08643e-13
6.0653e-13
1.08181e-13
5.58551e-13
1.07763e-13
5.11785e-13
1.07007e-13
4.6627e-13
1.06108e-13
4.21978e-13
1.04935e-13
3.78923e-13
1.03648e-13
3.37209e-13
1.01962e-13
2.96892e-13
9.97132e-14
2.57761e-13
9.62808e-14
2.18792e-13
9.0395e-14
1.72551e-13
8.04386e-14
8.88162e-14
6.18103e-14
4.94113e-14
1.95128e-13
-4.06752e-15
2.13452e-13
-7.77557e-22
7.17672e-21
-7.53717e-22
6.17801e-23
-3.76419e-22
4.68908e-23
4.28325e-22
5.87298e-23
1.13453e-21
7.88924e-23
1.70802e-21
9.87447e-23
2.15625e-21
1.15599e-22
2.49105e-21
1.29144e-22
2.72422e-21
1.39225e-22
2.86851e-21
1.45946e-22
2.93711e-21
1.49668e-22
2.94326e-21
1.5096e-22
2.89932e-21
1.50443e-22
2.81665e-21
1.48582e-22
2.7054e-21
1.45687e-22
2.57398e-21
1.4212e-22
2.42933e-21
1.38294e-22
2.27707e-21
1.34417e-22
2.12182e-21
1.30591e-22
1.96673e-21
1.26869e-22
1.81463e-21
1.23664e-22
1.66718e-21
1.20562e-22
1.52604e-21
1.17977e-22
1.39178e-21
1.1565e-22
1.26497e-21
1.13789e-22
1.14575e-21
1.1229e-22
1.03408e-21
1.11101e-22
9.29596e-22
1.10274e-22
8.32144e-22
1.09757e-22
7.41102e-22
1.0955e-22
6.55851e-22
1.09395e-22
5.75925e-22
1.09395e-22
5.00548e-22
1.09498e-22
4.29358e-22
1.09757e-22
3.61736e-22
1.09963e-22
2.97268e-22
1.1017e-22
2.34764e-22
1.10429e-22
1.74432e-22
1.10739e-22
1.1534e-22
1.10842e-22
5.69204e-23
1.10842e-22
1.10791e-22
5.95956e-14
-1.58416e-13
1.26715e-13
-1.56541e-13
1.91128e-13
-1.54795e-13
2.54126e-13
-1.52488e-13
3.15782e-13
-1.50066e-13
3.76097e-13
-1.47735e-13
4.3512e-13
-1.45744e-13
4.9307e-13
-1.44497e-13
5.5025e-13
-1.44201e-13
6.07083e-13
-1.45054e-13
6.63811e-13
-1.47033e-13
7.21103e-13
-1.50522e-13
7.79117e-13
-1.55004e-13
8.38068e-13
-1.5972e-13
8.97797e-13
-1.64589e-13
9.57358e-13
-1.67515e-13
1.02002e-12
-1.75441e-13
1.08422e-12
-1.84222e-13
1.14838e-12
-1.87531e-13
1.21186e-12
-1.88338e-13
1.27721e-12
-1.91822e-13
1.34206e-12
-1.97835e-13
1.40527e-12
-1.94174e-13
1.46663e-12
-1.9122e-13
1.52639e-12
-1.88813e-13
1.58269e-12
-1.81979e-13
1.63543e-12
-1.73796e-13
1.68403e-12
-1.64208e-13
1.72792e-12
-1.52543e-13
1.76665e-12
-1.39793e-13
1.79982e-12
-1.25761e-13
1.82732e-12
-1.10857e-13
1.84888e-12
-9.52654e-14
1.86448e-12
-7.91414e-14
1.87396e-12
-6.27379e-14
1.87761e-12
-4.66281e-14
1.87556e-12
-3.06098e-14
1.86791e-12
-1.47534e-14
1.85514e-12
1.76747e-16
1.83736e-12
1.47608e-14
1.81482e-12
2.89141e-14
1.78806e-12
4.1732e-14
1.75733e-12
5.42119e-14
1.72291e-12
6.58727e-14
1.68528e-12
7.67937e-14
1.6446e-12
8.71021e-14
1.60083e-12
9.73832e-14
1.55496e-12
1.05276e-13
1.5071e-12
1.13265e-13
1.45741e-12
1.20699e-13
1.40629e-12
1.27252e-13
1.35371e-12
1.33873e-13
1.30007e-12
1.39387e-13
1.24573e-12
1.44075e-13
1.19073e-12
1.48644e-13
1.13563e-12
1.51981e-13
1.08036e-12
1.55317e-13
1.0252e-12
1.57896e-13
9.70202e-13
1.6045e-13
9.15717e-13
1.61873e-13
8.61887e-13
1.62934e-13
8.08744e-13
1.63681e-13
7.56464e-13
1.64157e-13
7.05188e-13
1.64216e-13
6.54921e-13
1.63964e-13
6.05653e-13
1.63461e-13
5.57623e-13
1.62727e-13
5.10714e-13
1.61726e-13
4.64996e-13
1.60458e-13
4.20497e-13
1.58836e-13
3.77156e-13
1.57102e-13
3.34878e-13
1.54992e-13
2.93384e-13
1.52536e-13
2.51931e-13
1.49563e-13
2.08215e-13
1.46365e-13
1.56769e-13
1.44489e-13
8.13106e-14
1.5014e-13
4.5775e-14
2.43714e-13
-3.87882e-15
2.73638e-13
-7.72593e-22
1.06212e-20
-7.68606e-22
9.21273e-23
-3.64632e-22
1.12393e-22
4.48487e-22
1.37157e-22
1.15438e-21
1.60732e-22
1.72488e-21
1.80894e-22
2.1698e-21
1.96921e-22
2.50108e-21
2.08708e-22
2.73094e-21
2.16359e-22
2.87223e-21
2.2034e-22
2.93846e-21
2.21426e-22
2.9427e-21
2.2003e-22
2.89736e-21
2.16721e-22
2.81381e-21
2.12172e-22
2.70183e-21
2.0695e-22
2.5701e-21
2.01418e-22
2.42545e-21
1.9568e-22
2.2732e-21
1.90045e-22
2.1181e-21
1.84875e-22
1.96347e-21
1.80119e-22
1.81158e-21
1.75776e-22
1.6646e-21
1.72105e-22
1.52372e-21
1.68952e-22
1.38992e-21
1.6647e-22
1.26347e-21
1.64506e-22
1.14451e-21
1.63006e-22
1.03325e-21
1.62179e-22
9.29079e-22
1.61714e-22
8.31885e-22
1.6161e-22
7.40999e-22
1.61714e-22
6.55851e-22
1.61972e-22
5.76028e-22
1.62438e-22
5.00806e-22
1.62903e-22
4.29617e-22
1.63627e-22
3.61995e-22
1.64247e-22
2.97475e-22
1.64816e-22
2.35074e-22
1.65229e-22
1.74587e-22
1.6554e-22
1.1534e-22
1.6585e-22
5.68687e-23
1.6585e-22
1.65798e-22
6.10194e-14
-2.11026e-13
1.2861e-13
-2.09319e-13
1.93518e-13
-2.06946e-13
2.5683e-13
-2.03456e-13
3.1844e-13
-1.9965e-13
3.78361e-13
-1.96014e-13
4.3669e-13
-1.92887e-13
4.93709e-13
-1.90859e-13
5.49776e-13
-1.90204e-13
6.05287e-13
-1.91164e-13
6.60964e-13
-1.94032e-13
7.17214e-13
-1.98872e-13
7.7406e-13
-2.04781e-13
8.32643e-13
-2.12108e-13
8.91688e-13
-2.18353e-13
9.50587e-13
-2.22086e-13
1.01462e-12
-2.36123e-13
1.07937e-12
-2.46628e-13
1.14439e-12
-2.51217e-13
1.20775e-12
-2.51396e-13
1.27722e-12
-2.62026e-13
1.34243e-12
-2.64798e-13
1.40758e-12
-2.62095e-13
1.47099e-12
-2.58404e-13
1.53259e-12
-2.55172e-13
1.59071e-12
-2.45801e-13
1.64524e-12
-2.34937e-13
1.69541e-12
-2.21877e-13
1.74081e-12
-2.0626e-13
1.78059e-12
-1.88669e-13
1.81479e-12
-1.69777e-13
1.84297e-12
-1.4951e-13
1.86491e-12
-1.28283e-13
1.88072e-12
-1.06541e-13
1.89022e-12
-8.42881e-14
1.89368e-12
-6.25102e-14
1.89117e-12
-4.08225e-14
1.88309e-12
-1.9614e-14
1.86963e-12
5.42773e-16
1.85106e-12
2.01915e-14
1.82795e-12
3.89041e-14
1.80049e-12
5.61835e-14
1.769e-12
7.28757e-14
1.73374e-12
8.85757e-14
1.69533e-12
1.02987e-13
1.65419e-12
1.16454e-13
1.60978e-12
1.305e-13
1.56301e-12
1.41312e-13
1.51458e-12
1.51606e-13
1.4642e-12
1.61672e-13
1.4124e-12
1.70408e-13
1.3592e-12
1.79233e-13
1.30491e-12
1.86691e-13
1.25e-12
1.92901e-13
1.19452e-12
1.98977e-13
1.13879e-12
2.03537e-13
1.08295e-12
2.07976e-13
1.02723e-12
2.11454e-13
9.71811e-13
2.14738e-13
9.16889e-13
2.16691e-13
8.62601e-13
2.18157e-13
8.09117e-13
2.1913e-13
7.56542e-13
2.19712e-13
7.04951e-13
2.1978e-13
6.54404e-13
2.19457e-13
6.04876e-13
2.18873e-13
5.56529e-13
2.17859e-13
5.09356e-13
2.1654e-13
4.63447e-13
2.14819e-13
4.18633e-13
2.12851e-13
3.74966e-13
2.10666e-13
3.32343e-13
2.08144e-13
2.90468e-13
2.055e-13
2.48569e-13
2.03043e-13
2.05719e-13
2.01212e-13
1.61515e-13
2.01029e-13
1.17975e-13
2.06278e-13
4.88036e-14
3.25657e-13
-3.82175e-15
3.36539e-13
-7.51087e-22
1.44924e-20
-7.48288e-22
1.26455e-22
-3.3992e-22
1.63523e-22
4.72062e-22
1.99661e-22
1.17449e-21
2.29439e-22
1.74091e-21
2.53014e-22
2.18159e-21
2.70695e-22
2.50868e-21
2.82689e-22
2.73492e-21
2.8972e-22
2.87326e-21
2.92563e-22
2.93706e-21
2.92046e-22
2.93944e-21
2.88738e-22
2.89286e-21
2.83568e-22
2.80859e-21
2.77002e-22
2.69625e-21
2.69609e-22
2.56436e-21
2.62009e-22
2.41981e-21
2.54617e-22
2.26803e-21
2.47379e-22
2.11339e-21
2.4071e-22
1.95918e-21
2.34557e-22
1.80791e-21
2.29284e-22
1.66144e-21
2.24838e-22
1.52124e-21
2.21219e-22
1.38796e-21
2.18221e-22
1.26202e-21
2.16153e-22
1.14368e-21
2.14757e-22
1.03274e-21
2.13878e-22
9.28976e-22
2.13464e-22
8.31989e-22
2.13568e-22
7.41257e-22
2.1393e-22
6.56316e-22
2.14602e-22
5.76545e-22
2.15377e-22
5.01427e-22
2.16359e-22
4.30237e-22
2.1729e-22
3.62564e-22
2.18066e-22
2.97837e-22
2.18893e-22
2.35488e-22
2.19565e-22
1.74845e-22
2.2003e-22
1.15392e-22
2.20289e-22
5.6817e-23
2.20495e-22
2.20289e-22
6.28045e-14
-2.65521e-13
1.31395e-13
-2.63264e-13
1.96886e-13
-2.59813e-13
2.60569e-13
-2.54922e-13
3.22039e-13
-2.49221e-13
3.813e-13
-2.43756e-13
4.38604e-13
-2.39121e-13
4.9425e-13
-2.35958e-13
5.48722e-13
-2.34722e-13
6.02648e-13
-2.35789e-13
6.56647e-13
-2.39446e-13
7.11306e-13
-2.45716e-13
7.66873e-13
-2.53354e-13
8.24689e-13
-2.63799e-13
8.82344e-13
-2.70787e-13
9.41812e-13
-2.77277e-13
1.00675e-12
-2.97752e-13
1.07226e-12
-3.0982e-13
1.13796e-12
-3.15606e-13
1.20324e-12
-3.16389e-13
1.27569e-12
-3.35202e-13
1.34283e-12
-3.3368e-13
1.41035e-12
-3.3237e-13
1.47681e-12
-3.28605e-13
1.54081e-12
-3.23884e-13
1.60155e-12
-3.12203e-13
1.65853e-12
-2.98471e-13
1.71085e-12
-2.81619e-13
1.75812e-12
-2.61773e-13
1.79969e-12
-2.39255e-13
1.83509e-12
-2.14904e-13
1.86415e-12
-1.88944e-13
1.88668e-12
-1.61776e-13
1.90268e-12
-1.34032e-13
1.9121e-12
-1.05639e-13
1.91531e-12
-7.80239e-14
1.91224e-12
-5.03542e-14
1.90348e-12
-2.36697e-14
1.8892e-12
1.87035e-15
1.86969e-12
2.66883e-14
1.84555e-12
5.00574e-14
1.81707e-12
7.17807e-14
1.78454e-12
9.2714e-14
1.74832e-12
1.12362e-13
1.70896e-12
1.30264e-13
1.6668e-12
1.46942e-13
1.62191e-12
1.64206e-13
1.57375e-12
1.78865e-13
1.52441e-12
1.90956e-13
1.47323e-12
2.03543e-13
1.4206e-12
2.1449e-13
1.36657e-12
2.25504e-13
1.31154e-12
2.34817e-13
1.25586e-12
2.42566e-13
1.19952e-12
2.5024e-13
1.14307e-12
2.55855e-13
1.08649e-12
2.6142e-13
1.0301e-12
2.65706e-13
9.73982e-13
2.69745e-13
9.18531e-13
2.72052e-13
8.6366e-13
2.73961e-13
8.09714e-13
2.75025e-13
7.56624e-13
2.75756e-13
7.04591e-13
2.75755e-13
6.53685e-13
2.75262e-13
6.03798e-13
2.74589e-13
5.55119e-13
2.73259e-13
5.07715e-13
2.71513e-13
4.61457e-13
2.69445e-13
4.16342e-13
2.67078e-13
3.72441e-13
2.64366e-13
3.29605e-13
2.61399e-13
2.87828e-13
2.58252e-13
2.4706e-13
2.55273e-13
2.06695e-13
2.53448e-13
1.68058e-13
2.51874e-13
1.28669e-13
2.58131e-13
5.09692e-14
4.15992e-13
-3.77299e-15
4.01432e-13
-7.08073e-22
1.84431e-20
-7.1122e-22
1.61972e-22
-3.03782e-22
2.115e-22
5.01892e-22
2.5808e-22
1.19807e-21
2.9489e-22
1.75864e-21
3.22859e-22
2.19358e-21
3.42815e-22
2.51572e-21
3.55688e-22
2.73776e-21
3.62719e-22
2.8728e-21
3.64683e-22
2.93375e-21
3.62615e-22
2.93422e-21
3.57704e-22
2.88629e-21
3.5057e-22
2.8012e-21
3.42091e-22
2.68865e-21
3.32785e-22
2.55692e-21
3.23324e-22
2.41263e-21
3.13863e-22
2.26141e-21
3.04971e-22
2.10724e-21
2.96803e-22
1.95385e-21
2.89462e-22
1.80341e-21
2.83051e-22
1.65783e-21
2.77571e-22
1.51829e-21
2.73228e-22
1.38584e-21
2.69971e-22
1.26062e-21
2.67593e-22
1.1428e-21
2.6599e-22
1.03232e-21
2.65111e-22
9.29131e-22
2.64905e-22
8.32351e-22
2.65215e-22
7.41981e-22
2.65835e-22
6.57092e-22
2.66869e-22
5.77527e-22
2.68007e-22
5.02305e-22
2.69247e-22
4.31013e-22
2.70385e-22
3.63391e-22
2.71522e-22
2.98509e-22
2.72453e-22
2.35902e-22
2.73176e-22
1.75156e-22
2.73745e-22
1.15547e-22
2.74107e-22
5.66619e-23
2.74159e-22
2.73952e-22
6.48781e-14
-3.2217e-13
1.35139e-13
-3.19059e-13
2.01895e-13
-3.14094e-13
2.66084e-13
-3.07038e-13
3.27457e-13
-2.98836e-13
3.85949e-13
-2.90863e-13
4.41835e-13
-2.84072e-13
4.95431e-13
-2.79134e-13
5.47662e-13
-2.77118e-13
5.99398e-13
-2.78336e-13
6.51166e-13
-2.82736e-13
7.03166e-13
-2.89996e-13
7.5787e-13
-3.01149e-13
8.13472e-13
-3.13353e-13
8.68582e-13
-3.20744e-13
9.3152e-13
-3.35993e-13
9.96456e-13
-3.59425e-13
1.06244e-12
-3.73523e-13
1.1281e-12
-3.79978e-13
1.19957e-12
-3.8758e-13
1.2723e-12
-4.0867e-13
1.34312e-12
-4.06226e-13
1.41366e-12
-4.05649e-13
1.48422e-12
-4.02876e-13
1.55123e-12
-3.9556e-13
1.61542e-12
-3.8199e-13
1.67548e-12
-3.65029e-13
1.7307e-12
-3.4418e-13
1.78039e-12
-3.19621e-13
1.82414e-12
-2.91928e-13
1.86113e-12
-2.61516e-13
1.8913e-12
-2.29381e-13
1.91451e-12
-1.95834e-13
1.93077e-12
-1.6165e-13
1.94011e-12
-1.26781e-13
1.94276e-12
-9.28439e-14
1.93891e-12
-5.89634e-14
1.92921e-12
-2.66489e-14
1.91384e-12
4.43461e-15
1.89303e-12
3.46336e-14
1.86764e-12
6.26009e-14
1.83783e-12
8.88578e-14
1.80411e-12
1.13879e-13
1.76653e-12
1.37658e-13
1.72606e-12
1.58787e-13
1.6823e-12
1.79171e-13
1.63701e-12
1.98446e-13
1.5873e-12
2.18084e-13
1.53667e-12
2.31724e-13
1.48456e-12
2.46466e-13
1.43066e-12
2.59936e-13
1.37582e-12
2.72687e-13
1.31971e-12
2.84116e-13
1.263e-12
2.9334e-13
1.20569e-12
3.0254e-13
1.14834e-12
3.09141e-13
1.0909e-12
3.15769e-13
1.03361e-12
3.20896e-13
9.76716e-13
3.25541e-13
9.20397e-13
3.28289e-13
8.64895e-13
3.30394e-13
8.10361e-13
3.31495e-13
7.5677e-13
3.32275e-13
7.0418e-13
3.32247e-13
6.5281e-13
3.31484e-13
6.02508e-13
3.30658e-13
5.53496e-13
3.28916e-13
5.05684e-13
3.26809e-13
4.59062e-13
3.24337e-13
4.13647e-13
3.21499e-13
3.6945e-13
3.18245e-13
3.26514e-13
3.14635e-13
2.85011e-13
3.10603e-13
2.45158e-13
3.06453e-13
2.06883e-13
3.03456e-13
1.73789e-13
2.9703e-13
1.38803e-13
3.05431e-13
3.90312e-14
5.28248e-13
-3.7169e-15
4.54199e-13
-6.56787e-22
2.21191e-20
-6.61744e-22
1.96249e-22
-2.5715e-22
2.57718e-22
5.38753e-22
3.14535e-22
1.22604e-21
3.58738e-22
1.77854e-21
3.91412e-22
2.2065e-21
4.14159e-22
2.52275e-21
4.28531e-22
2.73973e-21
4.35821e-22
2.87068e-21
4.37165e-22
2.92884e-21
4.3396e-22
2.92708e-21
4.27394e-22
2.87787e-21
4.18192e-22
2.79194e-21
4.07697e-22
2.67919e-21
3.96375e-22
2.54756e-21
3.84846e-22
2.40374e-21
3.73575e-22
2.25319e-21
3.62719e-22
2.09995e-21
3.52948e-22
1.94749e-21
3.44262e-22
1.79793e-21
3.36663e-22
1.65343e-21
3.30407e-22
1.51498e-21
3.25341e-22
1.38341e-21
3.21463e-22
1.25907e-21
3.18723e-22
1.14192e-21
3.16965e-22
1.03211e-21
3.16086e-22
9.29338e-22
3.15983e-22
8.33023e-22
3.165e-22
7.43015e-22
3.17431e-22
6.58332e-22
3.18568e-22
5.78716e-22
3.19912e-22
5.03495e-22
3.21411e-22
4.3215e-22
3.22807e-22
3.64373e-22
3.24151e-22
2.99233e-22
3.25341e-22
2.36522e-22
3.26271e-22
1.75466e-22
3.2684e-22
1.15547e-22
3.2715e-22
5.64551e-23
3.27253e-22
3.27047e-22
6.7865e-14
-3.81902e-13
1.40588e-13
-3.77529e-13
2.09221e-13
-3.70434e-13
2.74262e-13
-3.60181e-13
3.35488e-13
-3.48475e-13
3.92794e-13
-3.36951e-13
4.46616e-13
-3.27116e-13
4.97694e-13
-3.19943e-13
5.46973e-13
-3.16708e-13
5.95441e-13
-3.17752e-13
6.43515e-13
-3.22454e-13
6.9309e-13
-3.31967e-13
7.45843e-13
-3.471e-13
7.97823e-13
-3.59375e-13
8.51636e-13
-3.69483e-13
9.17476e-13
-3.97676e-13
9.82595e-13
-4.21332e-13
1.04939e-12
-4.38075e-13
1.11436e-12
-4.43686e-13
1.1957e-12
-4.68659e-13
1.26703e-12
-4.80726e-13
1.34297e-12
-4.83884e-13
1.4174e-12
-4.82783e-13
1.49277e-12
-4.81918e-13
1.56391e-12
-4.71308e-13
1.63235e-12
-4.55964e-13
1.69636e-12
-4.35454e-13
1.7552e-12
-4.10271e-13
1.80801e-12
-3.80483e-13
1.85432e-12
-3.47044e-13
1.89334e-12
-3.10032e-13
1.92486e-12
-2.7103e-13
1.94888e-12
-2.30559e-13
1.96534e-12
-1.89317e-13
1.97434e-12
-1.47421e-13
1.9763e-12
-1.06805e-13
1.97144e-12
-6.63982e-14
1.96036e-12
-2.80714e-14
1.94345e-12
8.71403e-15
1.92119e-12
4.42032e-14
1.89427e-12
7.68678e-14
1.86279e-12
1.07774e-13
1.8274e-12
1.36897e-13
1.78829e-12
1.64652e-13
1.74642e-12
1.88883e-13
1.70088e-12
2.13343e-13
1.65459e-12
2.33843e-13
1.60394e-12
2.58404e-13
1.55146e-12
2.74482e-13
1.49819e-12
2.90681e-13
1.44294e-12
3.06864e-13
1.38694e-12
3.21153e-13
1.32954e-12
3.348e-13
1.27155e-12
3.45492e-13
1.21306e-12
3.56104e-13
1.15447e-12
3.63723e-13
1.09602e-12
3.71184e-13
1.03768e-12
3.77174e-13
9.79876e-13
3.82273e-13
9.22558e-13
3.85533e-13
8.6631e-13
3.87566e-13
8.10934e-13
3.88786e-13
7.56652e-13
3.89452e-13
7.03583e-13
3.89167e-13
6.5161e-13
3.88243e-13
6.00815e-13
3.87142e-13
5.51434e-13
3.84852e-13
5.0327e-13
3.8235e-13
4.56231e-13
3.79529e-13
4.10397e-13
3.76213e-13
3.65791e-13
3.72397e-13
3.22496e-13
3.6808e-13
2.80832e-13
3.62959e-13
2.41627e-13
3.56822e-13
2.06771e-13
3.49873e-13
1.73854e-13
3.41833e-13
9.07763e-14
4.00638e-13
2.42045e-14
6.07117e-13
-3.6518e-15
4.91917e-13
-6.00538e-22
2.55801e-20
-6.00223e-22
2.30939e-22
-2.00436e-22
3.03369e-22
5.82956e-22
3.69905e-22
1.25866e-21
4.21655e-22
1.80129e-21
4.59602e-22
2.22088e-21
4.85658e-22
2.52998e-21
5.01633e-22
2.74107e-21
5.09285e-22
2.86747e-21
5.10164e-22
2.92222e-21
5.05769e-22
2.91793e-21
4.97549e-22
2.86727e-21
4.86692e-22
2.78067e-21
4.74026e-22
2.66761e-21
4.60481e-22
2.53624e-21
4.46729e-22
2.39293e-21
4.33339e-22
2.24337e-21
4.20776e-22
2.09127e-21
4.09248e-22
1.93989e-21
3.99011e-22
1.79167e-21
3.90016e-22
1.64836e-21
3.82726e-22
1.5111e-21
3.76884e-22
1.38072e-21
3.72438e-22
1.25726e-21
3.69284e-22
1.14104e-21
3.67372e-22
1.03201e-21
3.66544e-22
9.29854e-22
3.66493e-22
8.33902e-22
3.66958e-22
7.44152e-22
3.68095e-22
6.59677e-22
3.69491e-22
5.80216e-22
3.71197e-22
5.0489e-22
3.72852e-22
4.33546e-22
3.74506e-22
3.6551e-22
3.76005e-22
3.00163e-22
3.77298e-22
2.37091e-22
3.7828e-22
1.75724e-22
3.79056e-22
1.1565e-22
3.79521e-22
5.61966e-23
3.79521e-22
3.79211e-22
7.21088e-14
-4.45995e-13
1.48406e-13
-4.3982e-13
2.19559e-13
-4.29507e-13
2.85875e-13
-4.14803e-13
3.46937e-13
-3.98152e-13
4.02769e-13
-3.81758e-13
4.538e-13
-3.67554e-13
5.0136e-13
-3.57415e-13
5.46539e-13
-3.52362e-13
5.90188e-13
-3.52508e-13
6.33768e-13
-3.57823e-13
6.80933e-13
-3.71664e-13
7.29434e-13
-3.88919e-13
7.75935e-13
-4.00025e-13
8.34136e-13
-4.22702e-13
8.97864e-13
-4.57327e-13
9.63874e-13
-4.84195e-13
1.03009e-12
-5.02089e-13
1.10162e-12
-5.13994e-13
1.18589e-12
-5.52676e-13
1.26094e-12
-5.56501e-13
1.3416e-12
-5.66239e-13
1.42227e-12
-5.66127e-13
1.50217e-12
-5.65431e-13
1.57915e-12
-5.52834e-13
1.65274e-12
-5.3501e-13
1.72182e-12
-5.10848e-13
1.78493e-12
-4.80521e-13
1.84148e-12
-4.44965e-13
1.89083e-12
-4.0505e-13
1.9323e-12
-3.60849e-13
1.9654e-12
-3.14101e-13
1.9902e-12
-2.65884e-13
2.00681e-12
-2.16953e-13
2.0154e-12
-1.67468e-13
2.01611e-12
-1.19323e-13
2.01007e-12
-7.24439e-14
1.99734e-12
-2.76327e-14
1.97842e-12
1.52016e-14
1.95424e-12
5.59092e-14
1.92533e-12
9.33293e-14
1.8919e-12
1.28853e-13
1.85434e-12
1.62289e-13
1.81373e-12
1.93361e-13
1.7699e-12
2.21129e-13
1.72305e-12
2.49021e-13
1.67397e-12
2.72228e-13
1.62375e-12
2.98462e-13
1.56866e-12
3.2002e-13
1.51376e-12
3.36684e-13
1.45709e-12
3.55368e-13
1.39971e-12
3.71124e-13
1.34099e-12
3.86937e-13
1.28141e-12
3.99337e-13
1.22169e-12
4.10979e-13
1.1615e-12
4.19993e-13
1.10182e-12
4.27889e-13
1.04214e-12
4.34837e-13
9.8344e-13
4.39927e-13
9.24932e-13
4.4398e-13
8.67669e-13
4.45746e-13
8.11571e-13
4.46774e-13
7.56508e-13
4.47368e-13
7.02675e-13
4.46794e-13
6.5003e-13
4.45596e-13
5.98873e-13
4.43896e-13
5.4898e-13
4.41193e-13
5.00329e-13
4.38255e-13
4.52931e-13
4.34948e-13
4.06587e-13
4.31286e-13
3.61397e-13
4.26971e-13
3.17392e-13
4.22062e-13
2.74626e-13
4.16234e-13
2.3387e-13
4.08549e-13
1.9807e-13
3.97033e-13
1.75637e-13
3.75947e-13
6.29886e-14
5.25208e-13
2.6933e-14
6.55257e-13
-3.57754e-15
5.32111e-13
-5.24437e-22
2.86076e-20
-5.27741e-22
2.64801e-22
-1.33848e-22
3.48346e-22
6.34654e-22
4.25016e-22
1.29666e-21
4.84314e-22
1.82735e-21
5.27638e-22
2.23685e-21
5.5721e-22
2.53764e-21
5.75201e-22
2.74205e-21
5.83473e-22
2.86303e-21
5.84093e-22
2.914e-21
5.78768e-22
2.90707e-21
5.68894e-22
2.8546e-21
5.56021e-22
2.76707e-21
5.41028e-22
2.65396e-21
5.25156e-22
2.52285e-21
5.09181e-22
2.38037e-21
4.9362e-22
2.23179e-21
4.78989e-22
2.08098e-21
4.65599e-22
1.93095e-21
4.53657e-22
1.78438e-21
4.43421e-22
1.64257e-21
4.34942e-22
1.50666e-21
4.28118e-22
1.37751e-21
4.23e-22
1.25535e-21
4.19432e-22
1.14022e-21
4.17158e-22
1.03196e-21
4.16124e-22
9.30371e-22
4.16124e-22
8.35039e-22
4.16796e-22
7.45548e-22
4.18088e-22
6.61383e-22
4.19794e-22
5.8187e-22
4.21604e-22
5.06545e-22
4.23465e-22
4.34994e-22
4.25274e-22
3.66803e-22
4.2698e-22
3.01197e-22
4.28376e-22
2.37866e-22
4.2941e-22
1.76189e-22
4.30082e-22
1.15702e-22
4.30444e-22
5.59381e-23
4.30548e-22
4.30237e-22
7.81326e-14
-5.1625e-13
1.59454e-13
-5.07423e-13
2.34303e-13
-4.92519e-13
3.02415e-13
-4.71459e-13
3.63265e-13
-4.47845e-13
4.16973e-13
-4.24665e-13
4.64221e-13
-4.04425e-13
5.06976e-13
-3.90284e-13
5.46237e-13
-3.82296e-13
5.83426e-13
-3.80983e-13
6.22282e-13
-3.88639e-13
6.6564e-13
-4.07705e-13
7.05776e-13
-4.2251e-13
7.5041e-13
-4.38932e-13
8.11757e-13
-4.79175e-13
8.72741e-13
-5.14321e-13
9.37808e-13
-5.46185e-13
1.00564e-12
-5.67779e-13
1.09053e-12
-5.97682e-13
1.1687e-12
-6.30614e-13
1.25372e-12
-6.42236e-13
1.33899e-12
-6.53193e-13
1.42745e-12
-6.5721e-13
1.51274e-12
-6.54279e-13
1.59682e-12
-6.41382e-13
1.67699e-12
-6.20524e-13
1.75194e-12
-5.92006e-13
1.82048e-12
-5.56065e-13
1.88169e-12
-5.13963e-13
1.93458e-12
-4.66437e-13
1.97889e-12
-4.14329e-13
2.01378e-12
-3.58777e-13
2.03932e-12
-3.01749e-13
2.05589e-12
-2.44339e-13
2.06362e-12
-1.86428e-13
2.06295e-12
-1.30229e-13
2.05508e-12
-7.64302e-14
2.04014e-12
-2.47419e-14
2.01874e-12
2.44152e-14
1.99224e-12
7.01807e-14
1.96081e-12
1.12547e-13
1.92504e-12
1.52528e-13
1.88514e-12
1.90255e-13
1.84244e-12
2.24399e-13
1.79658e-12
2.55634e-13
1.74821e-12
2.86447e-13
1.69641e-12
3.13546e-13
1.64573e-12
3.39193e-13
1.58879e-12
3.67594e-13
1.53153e-12
3.85237e-13
1.47348e-12
4.05414e-13
1.41411e-12
4.23249e-13
1.35394e-12
4.40656e-13
1.29259e-12
4.55079e-13
1.23128e-12
4.67553e-13
1.16935e-12
4.78086e-13
1.10824e-12
4.86093e-13
1.04709e-12
4.94016e-13
9.87214e-13
4.9879e-13
9.27372e-13
5.03769e-13
8.69008e-13
5.05019e-13
8.11873e-13
5.05772e-13
7.55982e-13
5.0606e-13
7.01411e-13
5.05089e-13
6.48108e-13
5.03521e-13
5.96482e-13
5.0101e-13
5.4608e-13
4.97917e-13
4.96997e-13
4.94451e-13
4.49063e-13
4.90741e-13
4.02348e-13
4.86557e-13
3.56569e-13
4.81947e-13
3.1162e-13
4.76789e-13
2.67368e-13
4.70782e-13
2.2322e-13
4.63445e-13
1.78814e-13
4.52571e-13
1.28276e-13
4.37927e-13
4.97947e-14
6.1537e-13
2.86139e-14
6.88276e-13
-3.49365e-15
5.73698e-13
-4.43372e-22
3.10594e-20
-4.44299e-22
2.98405e-22
-5.71788e-23
3.92963e-22
6.93953e-22
4.79817e-22
1.33998e-21
5.47077e-22
1.85687e-21
5.96087e-22
2.25484e-21
6.29485e-22
2.54591e-21
6.49647e-22
2.74262e-21
6.58901e-22
2.85775e-21
6.59315e-22
2.90413e-21
6.52801e-22
2.89415e-21
6.41272e-22
2.83966e-21
6.26279e-22
2.7512e-21
6.09115e-22
2.63793e-21
5.90866e-22
2.50724e-21
5.72254e-22
2.36574e-21
5.54211e-22
2.21845e-21
5.37357e-22
2.06904e-21
5.21951e-22
1.92077e-21
5.08251e-22
1.77585e-21
4.96515e-22
1.63575e-21
4.86589e-22
1.50154e-21
4.78783e-22
1.37395e-21
4.72785e-22
1.25308e-21
4.68753e-22
1.13913e-21
4.66168e-22
1.03196e-21
4.65031e-22
9.31044e-22
4.65031e-22
8.36331e-22
4.65858e-22
7.47203e-22
4.67357e-22
6.6314e-22
4.69218e-22
5.83783e-22
4.71235e-22
5.08354e-22
4.73302e-22
4.36648e-22
4.75215e-22
3.68199e-22
4.77076e-22
3.02283e-22
4.78524e-22
2.38538e-22
4.79661e-22
1.76603e-22
4.80282e-22
1.15754e-22
4.80695e-22
5.56279e-23
4.80799e-22
4.8054e-22
8.66797e-14
-5.95207e-13
1.75407e-13
-5.82754e-13
2.55565e-13
-5.61116e-13
3.25958e-13
-5.30659e-13
3.86376e-13
-4.97364e-13
4.3714e-13
-4.64877e-13
4.78816e-13
-4.35967e-13
5.1569e-13
-4.17504e-13
5.45691e-13
-4.03186e-13
5.75244e-13
-4.02027e-13
6.10941e-13
-4.16487e-13
6.41725e-13
-4.31345e-13
6.73958e-13
-4.48357e-13
7.25862e-13
-4.85244e-13
7.79647e-13
-5.28202e-13
8.41146e-13
-5.71929e-13
9.01744e-13
-6.03784e-13
9.8202e-13
-6.45968e-13
1.06791e-12
-6.8241e-13
1.15055e-12
-7.13034e-13
1.24203e-12
-7.34429e-13
1.3362e-12
-7.49009e-13
1.43153e-12
-7.55118e-13
1.52528e-12
-7.51517e-13
1.61736e-12
-7.37836e-13
1.70542e-12
-7.13827e-13
1.78754e-12
-6.80195e-13
1.86269e-12
-6.38077e-13
1.92941e-12
-5.88292e-13
1.98665e-12
-5.32001e-13
2.03393e-12
-4.70576e-13
2.07089e-12
-4.05293e-13
2.09714e-12
-3.38099e-13
2.11329e-12
-2.71059e-13
2.11964e-12
-2.03765e-13
2.11725e-12
-1.39148e-13
2.10672e-12
-7.74879e-14
2.08906e-12
-1.88724e-14
2.06465e-12
3.69205e-14
2.03521e-12
8.76678e-14
2.00064e-12
1.35191e-13
1.96183e-12
1.79515e-13
1.91982e-12
2.20606e-13
1.87445e-12
2.58369e-13
1.82629e-12
2.92702e-13
1.77595e-12
3.26097e-13
1.72265e-12
3.56603e-13
1.66869e-12
3.83428e-13
1.61173e-12
4.15406e-13
1.55166e-12
4.36808e-13
1.49185e-12
4.57406e-13
1.43007e-12
4.77949e-13
1.36865e-12
4.95785e-13
1.30527e-12
5.12979e-13
1.24186e-12
5.26338e-13
1.17796e-12
5.38252e-13
1.11513e-12
5.46086e-13
1.0524e-12
5.54837e-13
9.90864e-13
5.59344e-13
9.29854e-13
5.64735e-13
8.69942e-13
5.65824e-13
8.11816e-13
5.65722e-13
7.54991e-13
5.65628e-13
6.99713e-13
5.64012e-13
6.45754e-13
5.61998e-13
5.93492e-13
5.5864e-13
5.42654e-13
5.54935e-13
4.93134e-13
5.50926e-13
4.44842e-13
5.46716e-13
3.97691e-13
5.42068e-13
3.51365e-13
5.37262e-13
3.05616e-13
5.32092e-13
2.59597e-13
5.26862e-13
2.11779e-13
5.21764e-13
1.58961e-13
5.16264e-13
8.57891e-14
5.22278e-13
4.22542e-14
6.7031e-13
2.48072e-14
7.17287e-13
-3.40134e-15
6.1116e-13
-3.47419e-22
3.27568e-20
-3.49742e-22
3.31389e-22
2.97786e-23
4.37423e-22
7.61161e-22
5.34876e-22
1.38904e-21
6.10356e-22
1.89026e-21
6.65519e-22
2.27506e-21
7.03052e-22
2.55516e-21
7.25593e-22
2.74303e-21
7.35777e-22
2.85134e-21
7.35984e-22
2.8926e-21
7.28539e-22
2.87916e-21
7.15253e-22
2.8225e-21
6.97985e-22
2.73295e-21
6.7834e-22
2.61932e-21
6.57298e-22
2.48925e-21
6.36102e-22
2.34893e-21
6.15474e-22
2.20294e-21
5.95932e-22
2.05534e-21
5.78303e-22
1.90898e-21
5.62535e-22
1.76598e-21
5.48989e-22
1.62789e-21
5.37719e-22
1.49559e-21
5.28775e-22
1.36991e-21
5.22106e-22
1.25054e-21
5.17298e-22
1.13799e-21
5.14351e-22
1.03196e-21
5.13111e-22
9.31922e-22
5.13007e-22
8.37831e-22
5.13938e-22
7.49116e-22
5.15695e-22
6.65208e-22
5.17712e-22
5.85747e-22
5.20038e-22
5.10319e-22
5.22313e-22
4.38509e-22
5.24536e-22
3.69646e-22
5.26345e-22
3.0342e-22
5.27896e-22
2.39262e-22
5.29085e-22
1.76965e-22
5.29809e-22
1.15805e-22
5.30119e-22
5.53177e-23
5.30171e-22
5.29913e-22
9.89968e-14
-6.86662e-13
1.98152e-13
-6.68871e-13
2.8575e-13
-6.37451e-13
3.59212e-13
-5.93224e-13
4.18836e-13
-5.46375e-13
4.65903e-13
-5.01674e-13
5.00036e-13
-4.60233e-13
5.25849e-13
-4.33918e-13
5.44999e-13
-4.13467e-13
5.70536e-13
-4.19282e-13
5.8973e-13
-4.28041e-13
6.07994e-13
-4.42657e-13
6.44869e-13
-4.79016e-13
6.88537e-13
-5.23472e-13
7.41283e-13
-5.76323e-13
7.9543e-13
-6.22294e-13
8.66661e-13
-6.72102e-13
9.5002e-13
-7.27303e-13
1.03521e-12
-7.66481e-13