/*--------------------------------*- C++ -*----------------------------------*\
  =========                 |
  \\      /  F ield         | OpenFOAM: The Open Source CFD Toolbox
   \\    /   O peration     | Website:  https://openfoam.org
    \\  /    A nd           | Version:  6
     \\/     M anipulation  |
\*---------------------------------------------------------------------------*/
FoamFile
{
    version     2.0;
    format      ascii;
    class       surfaceScalarField;
    location    "4200";
    object      phi;
}
// * * * * * * * * * * * * * * * * * * * * * * * * * * * * * * * * * * * * * //

dimensions      [0 3 -1 0 0 0 0];

internalField   nonuniform List<scalar> 
9440
(
1.92233e-10
-1.92233e-10
3.31182e-10
-1.38951e-10
4.05831e-10
-7.46509e-11
4.44691e-10
-3.88615e-11
4.59163e-10
-1.44731e-11
4.93431e-10
-3.42696e-11
4.78456e-10
1.49736e-11
5.44562e-10
-6.6107e-11
5.13711e-10
3.08503e-11
4.72387e-10
4.13231e-11
4.51628e-10
2.07575e-11
3.99527e-10
5.21003e-11
3.16695e-10
8.28309e-11
2.13648e-10
1.03047e-10
8.07278e-11
1.32919e-10
-3.35169e-11
1.14244e-10
-1.3718e-10
1.03662e-10
-2.03681e-10
6.65007e-11
-2.44818e-10
4.11363e-11
-3.11505e-10
6.66874e-11
-3.74806e-10
6.32999e-11
-4.4848e-10
7.36741e-11
-5.22458e-10
7.3978e-11
-5.57401e-10
3.49428e-11
-6.99611e-10
1.4221e-10
-9.2777e-10
2.28159e-10
-1.09896e-09
1.71195e-10
-1.18444e-09
8.54725e-11
-1.23927e-09
5.48382e-11
-1.32164e-09
8.23643e-11
-1.418e-09
9.6359e-11
-1.53317e-09
1.15175e-10
-1.65472e-09
1.21551e-10
-1.75829e-09
1.03566e-10
-1.82364e-09
6.53552e-11
-1.87267e-09
4.90325e-11
-1.91216e-09
3.94853e-11
-1.95879e-09
4.66295e-11
-1.99809e-09
3.93087e-11
-2.05863e-09
6.05342e-11
-2.12475e-09
6.61207e-11
-2.18666e-09
6.19167e-11
-2.24361e-09
5.69449e-11
-2.28895e-09
4.53388e-11
-2.34468e-09
5.57345e-11
-2.3993e-09
5.46222e-11
-2.46905e-09
6.97521e-11
-2.54576e-09
7.67046e-11
-2.63671e-09
9.09565e-11
-2.70994e-09
7.32273e-11
-2.77366e-09
6.37189e-11
-2.82137e-09
4.77184e-11
-2.84726e-09
2.58921e-11
-2.85164e-09
4.37373e-12
-2.83149e-09
-2.01448e-11
-2.72779e-09
-1.03701e-10
-2.63064e-09
-9.71485e-11
-2.54346e-09
-8.71852e-11
-2.34982e-09
-1.93631e-10
-2.16139e-09
-1.88429e-10
-2.10091e-09
-6.04861e-11
-2.04718e-09
-5.37324e-11
-1.968e-09
-7.91758e-11
-1.89439e-09
-7.36089e-11
-1.74716e-09
-1.47234e-10
-1.55555e-09
-1.91605e-10
-1.26443e-09
-2.9112e-10
-6.06884e-10
-6.57549e-10
-4.76569e-10
-1.30315e-10
-2.48856e-10
-2.27713e-10
-2.79061e-10
3.02045e-11
-5.53796e-11
-2.23682e-10
9.73291e-11
-1.52709e-10
2.95945e-10
-1.98616e-10
3.58175e-10
-6.22309e-11
2.59181e-10
9.8993e-11
1.36321e-10
1.22858e-10
-4.55497e-11
1.8187e-10
-3.17017e-10
2.71466e-10
-5.46836e-10
2.29818e-10
6.46412e-16
-5.46838e-10
-2.10024e-18
-1.7471e-18
-1.89335e-18
-2.06894e-19
-1.88682e-18
-7.49178e-21
-1.86916e-18
-1.87196e-20
-1.81211e-18
-5.8086e-20
-1.71834e-18
-9.47704e-20
-1.59334e-18
-1.25969e-19
-1.44147e-18
-1.52789e-19
-1.26626e-18
-1.76084e-19
-1.07099e-18
-1.96093e-19
-8.59106e-19
-2.12652e-19
-6.34397e-19
-2.25424e-19
-4.01013e-19
-2.34045e-19
-1.63402e-19
-2.38218e-19
7.38161e-20
-2.37774e-19
3.06003e-19
-2.32696e-19
5.28665e-19
-2.2313e-19
7.37602e-19
-2.09371e-19
9.29046e-19
-1.91849e-19
1.09975e-18
-1.71096e-19
1.24709e-18
-1.47714e-19
1.36907e-18
-1.22344e-19
1.46433e-18
-9.56322e-20
1.53215e-18
-6.82027e-20
1.5724e-18
-4.06378e-20
1.58545e-18
-1.34602e-20
1.57215e-18
1.28754e-20
1.53372e-18
3.79872e-20
1.47169e-18
6.15653e-20
1.38784e-18
8.33685e-20
1.28412e-18
1.03217e-19
1.16261e-18
1.20983e-19
1.02548e-18
1.36583e-19
8.74943e-19
1.49969e-19
7.13247e-19
1.61116e-19
5.42638e-19
1.70016e-19
3.6537e-19
1.76666e-19
1.83709e-19
1.8105e-19
1.83095e-19
1.26345e-10
-3.1858e-10
2.54112e-10
-2.6672e-10
3.13946e-10
-1.34487e-10
3.65417e-10
-9.03348e-11
4.11246e-10
-6.03047e-11
4.15456e-10
-3.84818e-11
4.39348e-10
-8.92031e-12
5.14326e-10
-1.41087e-10
4.92834e-10
5.23398e-11
4.76293e-10
5.78623e-11
4.44412e-10
5.26369e-11
3.97188e-10
9.93232e-11
3.4479e-10
1.35227e-10
2.36896e-10
2.10939e-10
1.11464e-10
2.5835e-10
-1.1396e-11
2.37102e-10
-1.12142e-10
2.04407e-10
-2.34685e-10
1.89042e-10
-3.59792e-10
1.66243e-10
-4.16588e-10
1.23483e-10
-4.02644e-10
4.93552e-11
-4.43882e-10
1.14912e-10
-6.95672e-10
3.25768e-10
-9.56023e-10
2.95294e-10
-1.0234e-09
2.09591e-10
-1.07234e-09
2.77091e-10
-1.146e-09
2.44864e-10
-1.20175e-09
1.41216e-10
-1.24694e-09
1.00031e-10
-1.32275e-09
1.5818e-10
-1.43484e-09
2.0845e-10
-1.53849e-09
2.18823e-10
-1.63245e-09
2.15515e-10
-1.73321e-09
2.04322e-10
-1.78633e-09
1.18482e-10
-1.82756e-09
9.02618e-11
-1.87883e-09
9.07589e-11
-1.91443e-09
8.22296e-11
-1.93659e-09
6.14718e-11
-1.95992e-09
8.38616e-11
-2.04261e-09
1.48809e-10
-2.11342e-09
1.32729e-10
-2.21916e-09
1.62685e-10
-2.29105e-09
1.17235e-10
-2.37434e-09
1.39024e-10
-2.4277e-09
1.07982e-10
-2.49937e-09
1.41429e-10
-2.5708e-09
1.48133e-10
-2.61935e-09
1.39509e-10
-2.67535e-09
1.29228e-10
-2.7218e-09
1.10175e-10
-2.75622e-09
8.21391e-11
-2.78785e-09
5.75183e-11
-2.81098e-09
2.75025e-11
-2.82763e-09
-3.4859e-12
-2.79814e-09
-1.33191e-10
-2.78294e-09
-1.1235e-10
-2.69127e-09
-1.78855e-10
-2.57459e-09
-3.10312e-10
-2.45907e-09
-3.03948e-10
-2.35775e-09
-1.61808e-10
-2.21649e-09
-1.94987e-10
-2.0476e-09
-2.4807e-10
-1.89208e-09
-2.29124e-10
-1.69141e-09
-3.47911e-10
-1.49384e-09
-3.89169e-10
-1.26774e-09
-5.17225e-10
-8.1363e-10
-1.11166e-09
-7.41268e-10
-2.02678e-10
-5.5255e-10
-4.16432e-10
-2.73936e-10
-2.48411e-10
-1.15614e-10
-3.82006e-10
4.09732e-11
-3.09298e-10
1.40098e-10
-2.97742e-10
1.90299e-10
-1.12434e-10
6.58847e-11
2.23406e-10
-2.87374e-10
4.76115e-10
-7.92427e-10
6.86921e-10
-8.22036e-10
3.01073e-10
-5.21715e-10
-7.05042e-11
5.28076e-16
-1.06856e-09
-7.39985e-19
2.4646e-18
-1.69395e-18
7.46149e-19
-1.89805e-18
1.94783e-19
-1.90852e-18
-1.01056e-20
-1.84879e-18
-1.19617e-19
-1.74954e-18
-1.95751e-19
-1.62016e-18
-2.57002e-19
-1.46476e-18
-3.09746e-19
-1.28627e-18
-3.56057e-19
-1.08755e-18
-3.96191e-19
-8.71878e-19
-4.29606e-19
-6.43017e-19
-4.55474e-19
-4.05186e-19
-4.7297e-19
-1.62958e-19
-4.81451e-19
7.88934e-20
-4.80548e-19
3.15569e-19
-4.70222e-19
5.42423e-19
-4.50771e-19
7.55124e-19
-4.22811e-19
9.49799e-19
-3.87226e-19
1.12314e-18
-3.45114e-19
1.27246e-18
-2.97713e-19
1.39578e-18
-2.46334e-19
1.49176e-18
-1.92295e-19
1.55972e-18
-1.36868e-19
1.59958e-18
-8.12295e-20
1.61179e-18
-2.64361e-20
1.59727e-18
2.66003e-20
1.5573e-18
7.71165e-20
1.4935e-18
1.24498e-19
1.40769e-18
1.68269e-19
1.30188e-18
2.08077e-19
1.17821e-18
2.4368e-19
1.03886e-18
2.74919e-19
8.8609e-19
3.01706e-19
7.22147e-19
3.24002e-19
5.49288e-19
3.418e-19
3.69754e-19
3.55112e-19
1.85754e-19
3.63956e-19
3.68368e-19
5.93574e-11
-3.77939e-10
1.70043e-10
-3.77408e-10
2.36945e-10
-2.01392e-10
2.87665e-10
-1.41057e-10
3.4814e-10
-1.20782e-10
3.81845e-10
-7.21888e-11
5.02009e-10
-1.29086e-10
4.55648e-10
-9.47281e-11
4.8211e-10
2.58764e-11
5.07279e-10
3.26909e-11
4.98419e-10
6.14962e-11
4.31036e-10
1.66705e-10
3.66132e-10
2.00129e-10
2.5752e-10
3.19549e-10
1.47804e-10
3.68066e-10
1.90186e-11
3.65887e-10
-1.04668e-10
3.28092e-10
-2.24936e-10
3.0931e-10
-3.45408e-10
2.86714e-10
-4.96134e-10
2.74209e-10
-6.50394e-10
2.03614e-10
-8.02602e-10
2.6712e-10
-8.88069e-10
4.11234e-10
-1.05361e-09
4.60837e-10
-1.1951e-09
3.51084e-10
-1.21914e-09
3.01131e-10
-1.23383e-09
2.59549e-10
-1.23199e-09
1.39378e-10
-1.32661e-09
1.94651e-10
-1.37603e-09
2.07604e-10
-1.41741e-09
2.49824e-10
-1.47802e-09
2.79437e-10
-1.56542e-09
3.02917e-10
-1.66263e-09
3.01527e-10
-1.70965e-09
1.65507e-10
-1.76063e-09
1.41245e-10
-1.77964e-09
1.09773e-10
-1.82594e-09
1.28529e-10
-1.87623e-09
1.11762e-10
-1.94013e-09
1.47764e-10
-2.02212e-09
2.30801e-10
-2.08647e-09
1.97077e-10
-2.1805e-09
2.56722e-10
-2.27231e-09
2.09043e-10
-2.36813e-09
2.34849e-10
-2.47297e-09
2.1282e-10
-2.55337e-09
2.21833e-10
-2.62964e-09
2.24404e-10
-2.67358e-09
1.83446e-10
-2.7096e-09
1.65246e-10
-2.7144e-09
1.14981e-10
-2.71996e-09
8.77011e-11
-2.73676e-09
7.432e-11
-2.76033e-09
5.10663e-11
-2.73399e-09
-2.98248e-11
-2.68039e-09
-1.86788e-10
-2.66301e-09
-1.29727e-10
-2.64622e-09
-1.95648e-10
-2.64145e-09
-3.15078e-10
-2.56649e-09
-3.78914e-10
-2.37594e-09
-3.52351e-10
-2.24624e-09
-3.24689e-10
-2.10542e-09
-3.88887e-10
-1.92053e-09
-4.14013e-10
-1.75818e-09
-5.10261e-10
-1.5922e-09
-5.55152e-10
-1.1991e-09
-9.10325e-10
-1.0715e-09
-1.23926e-09
-9.12935e-10
-3.61243e-10
-5.80322e-10
-7.49045e-10
-3.52974e-10
-4.7576e-10
-1.64174e-10
-5.70807e-10
-5.99202e-11
-4.13553e-10
-1.19212e-11
-3.45743e-10
7.58987e-12
-1.31947e-10
5.41978e-11
1.76797e-10
1.90566e-10
3.39745e-10
4.23369e-10
4.54117e-10
3.39768e-10
3.84672e-10
-1.02366e-10
3.71628e-10
5.27655e-16
-1.17092e-09
-2.80018e-18
-5.87015e-19
-2.24531e-18
1.90519e-19
-2.10294e-18
5.07377e-20
-2.01804e-18
-9.67011e-20
-1.92493e-18
-2.14361e-19
-1.81079e-18
-3.11452e-19
-1.6729e-18
-3.9639e-19
-1.51108e-18
-4.72992e-19
-1.3264e-18
-5.42075e-19
-1.12096e-18
-6.02892e-19
-8.97746e-19
-6.54003e-19
-6.60514e-19
-6.938e-19
-4.13666e-19
-7.20828e-19
-1.62055e-19
-7.33989e-19
8.92193e-20
-7.3267e-19
3.3502e-19
-7.16799e-19
5.70384e-19
-6.8685e-19
7.90709e-19
-6.43801e-19
9.91911e-19
-5.89055e-19
1.17054e-18
-5.24343e-19
1.32384e-18
-4.51609e-19
1.44982e-18
-3.72898e-19
1.54719e-18
-2.90258e-19
1.61535e-18
-2.05649e-19
1.65437e-18
-1.20878e-19
1.66483e-18
-3.75506e-20
1.64778e-18
4.29547e-20
1.60468e-18
1.19495e-19
1.53727e-18
1.91161e-19
1.4475e-18
2.57256e-19
1.33748e-18
3.17275e-19
1.20945e-18
3.70874e-19
1.06565e-18
4.17844e-19
9.08386e-19
4.58075e-19
7.39945e-19
4.9153e-19
5.626e-19
5.18217e-19
3.78599e-19
5.38174e-19
1.90166e-19
5.51444e-19
5.58072e-19
1.21394e-11
-3.90079e-10
7.59018e-11
-4.41173e-10
1.87453e-10
-3.12945e-10
2.61973e-10
-2.15579e-10
3.38823e-10
-1.97633e-10
4.27263e-10
-1.60631e-10
5.37212e-10
-2.39037e-10
4.99903e-10
-5.74213e-11
5.29638e-10
-3.85962e-12
5.17704e-10
4.4623e-11
5.09615e-10
6.95834e-11
4.40935e-10
2.35384e-10
3.50052e-10
2.91011e-10
2.47432e-10
4.22168e-10
1.45987e-10
4.69509e-10
1.92756e-11
4.92597e-10
-1.6814e-10
5.15507e-10
-4.06268e-10
5.47437e-10
-5.73396e-10
4.53843e-10
-5.8891e-10
2.89721e-10
-6.5664e-10
2.71345e-10
-9.45274e-10
5.55753e-10
-1.11547e-09
5.81427e-10
-1.16841e-09
5.13783e-10
-1.23672e-09
4.19394e-10
-1.25652e-09
3.20927e-10
-1.31787e-09
3.20898e-10
-1.37038e-09
1.91887e-10
-1.41843e-09
2.42702e-10
-1.45397e-09
2.43144e-10
-1.45727e-09
2.53126e-10
-1.46164e-09
2.83814e-10
-1.4843e-09
3.25568e-10
-1.53114e-09
3.4837e-10
-1.61395e-09
2.48325e-10
-1.68864e-09
2.15937e-10
-1.7299e-09
1.51026e-10
-1.7917e-09
1.90337e-10
-1.85227e-09
1.72325e-10
-1.90442e-09
1.9992e-10
-1.96244e-09
2.88822e-10
-2.05966e-09
2.94302e-10
-2.15321e-09
3.50275e-10
-2.26386e-09
3.19692e-10
-2.35197e-09
3.22954e-10
-2.45936e-09
3.20215e-10
-2.53224e-09
2.94719e-10
-2.59421e-09
2.86366e-10
-2.64527e-09
2.34509e-10
-2.68717e-09
2.07154e-10
-2.66525e-09
9.30561e-11
-2.68014e-09
1.02597e-10
-2.70923e-09
1.03407e-10
-2.68006e-09
2.18948e-11
-2.61201e-09
-9.78667e-11
-2.59575e-09
-2.03051e-10
-2.53107e-09
-1.94405e-10
-2.47943e-09
-2.47287e-10
-2.46692e-09
-3.27588e-10
-2.45712e-09
-3.88713e-10
-2.42167e-09
-3.87804e-10
-2.32046e-09
-4.25902e-10
-2.2031e-09
-5.06242e-10
-1.99629e-09
-6.20824e-10
-1.80725e-09
-6.99303e-10
-1.54606e-09
-8.16344e-10
-1.2898e-09
-1.16658e-09
-1.34203e-09
-1.18704e-09
-8.69017e-10
-8.34255e-10
-6.98262e-10
-9.19801e-10
-4.32025e-10
-7.41998e-10
-1.98571e-10
-8.04262e-10
-1.71642e-10
-4.40483e-10
-1.59656e-10
-3.5773e-10
-1.42785e-10
-1.48819e-10
-3.4349e-11
6.83588e-11
2.93509e-11
2.76044e-10
1.90075e-10
2.93391e-10
-7.27746e-11
6.4752e-10
-9.29896e-11
3.91841e-10
5.67594e-16
-1.26391e-09
-2.52922e-18
-5.51579e-19
-2.3851e-18
4.56099e-20
-2.25038e-18
-8.57247e-20
-2.1357e-18
-2.13145e-19
-2.02202e-18
-3.29734e-19
-1.89573e-18
-4.39364e-19
-1.7495e-18
-5.44167e-19
-1.58016e-18
-6.43809e-19
-1.38722e-18
-7.36415e-19
-1.17207e-18
-8.19354e-19
-9.37543e-19
-8.89771e-19
-6.87541e-19
-9.44952e-19
-4.26827e-19
-9.82606e-19
-1.60736e-19
-1.00106e-18
1.0509e-19
-9.9939e-19
3.64969e-19
-9.77493e-19
6.13433e-19
-9.3606e-19
8.45454e-19
-8.76509e-19
1.05662e-18
-8.00865e-19
1.24327e-18
-7.11602e-19
1.40255e-18
-6.11481e-19
1.53246e-18
-5.03388e-19
1.63179e-18
-3.90183e-19
1.70013e-18
-2.74584e-19
1.7377e-18
-1.59071e-19
1.74533e-18
-4.58291e-20
1.72432e-18
6.32886e-20
1.67635e-18
1.66766e-19
1.60336e-18
2.63414e-19
1.50751e-18
3.52339e-19
1.39108e-18
4.32911e-19
1.25642e-18
5.04721e-19
1.10588e-18
5.67533e-19
9.4184e-19
6.21245e-19
7.66633e-19
6.65848e-19
5.82557e-19
7.01391e-19
3.91869e-19
7.27949e-19
1.96794e-19
7.45601e-19
7.54414e-19
-9.00346e-12
-3.81077e-10
-1.66575e-13
-4.50012e-10
1.30346e-10
-4.4346e-10
2.69541e-10
-3.54776e-10
3.82453e-10
-3.10547e-10
5.07528e-10
-2.85709e-10
5.58502e-10
-2.90012e-10
5.50842e-10
-4.97633e-11
5.47888e-10
-9.077e-13
5.16622e-10
7.58874e-11
4.64233e-10
1.21971e-10
4.02754e-10
2.96861e-10
3.161e-10
3.77664e-10
2.56443e-10
4.81824e-10
1.60935e-10
5.65017e-10
5.82151e-11
5.95316e-10
1.23636e-12
5.72485e-10
-1.71089e-10
7.19761e-10
-5.10556e-10
7.93309e-10
-9.14674e-10
6.93838e-10
-1.16334e-09
5.20015e-10
-1.20751e-09
5.99918e-10
-1.23502e-09
6.08942e-10
-1.26719e-09
5.4595e-10
-1.32276e-09
4.74962e-10
-1.38393e-09
3.82094e-10
-1.42595e-09
3.62923e-10
-1.47322e-09
2.39155e-10
-1.51097e-09
2.8045e-10
-1.5305e-09
2.62677e-10
-1.50962e-09
2.32244e-10
-1.4906e-09
2.64793e-10
-1.49216e-09
3.27129e-10
-1.51813e-09
3.74346e-10
-1.54979e-09
2.79983e-10
-1.59287e-09
2.59022e-10
-1.67011e-09
2.28261e-10
-1.73039e-09
2.50627e-10
-1.78365e-09
2.25585e-10
-1.85137e-09
2.6764e-10
-1.92482e-09
3.62275e-10
-2.02998e-09
3.99462e-10
-2.08965e-09
4.09946e-10
-2.20261e-09
4.32652e-10
-2.29148e-09
4.11823e-10
-2.36207e-09
3.90805e-10
-2.44468e-09
3.77332e-10
-2.49074e-09
3.32429e-10
-2.52893e-09
2.72697e-10
-2.57707e-09
2.553e-10
-2.50836e-09
2.43403e-11
-2.50166e-09
9.59073e-11
-2.4691e-09
7.08382e-11
-2.40077e-09
-4.64313e-11
-2.35981e-09
-1.38819e-10
-2.34477e-09
-2.18093e-10
-2.29622e-09
-2.42957e-10
-2.28181e-09
-2.61697e-10
-2.283e-09
-3.26395e-10
-2.26631e-09
-4.05409e-10
-2.22529e-09
-4.28821e-10
-2.1952e-09
-4.55993e-10
-2.10563e-09
-5.95805e-10
-1.91438e-09
-8.12084e-10
-1.72516e-09
-8.88522e-10
-1.45522e-09
-1.08628e-09
-1.35408e-09
-1.26772e-09
-1.24777e-09
-1.29334e-09
-8.74826e-10
-1.2072e-09
-6.93217e-10
-1.10141e-09
-2.79625e-10
-1.15559e-09
-2.32817e-10
-8.51071e-10
-1.63275e-10
-5.10027e-10
-2.02604e-10
-3.18402e-10
-3.92775e-10
4.13502e-11
-4.14358e-10
8.99402e-11
-4.18518e-10
2.80202e-10
-2.52717e-10
1.27589e-10
-3.25769e-10
7.20571e-10
-2.03274e-11
8.6398e-11
6.13864e-16
-1.28424e-09
-2.57769e-18
4.23136e-20
-2.51643e-18
-1.64799e-20
-2.3778e-18
-2.26221e-19
-2.25228e-18
-3.40536e-19
-2.13165e-18
-4.5217e-19
-2.00053e-18
-5.72195e-19
-1.84914e-18
-6.97189e-19
-1.67276e-18
-8.21743e-19
-1.47016e-18
-9.40501e-19
-1.24249e-18
-1.04842e-18
-9.92724e-19
-1.14086e-18
-7.25195e-19
-1.21372e-18
-4.4528e-19
-1.26367e-18
-1.59068e-19
-1.28833e-18
1.26987e-19
-1.28641e-18
4.06402e-19
-1.25779e-18
6.72983e-19
-1.20344e-18
9.21099e-19
-1.12536e-18
1.14589e-18
-1.02633e-18
1.34339e-18
-9.09742e-19
1.51065e-18
-7.79342e-19
1.64566e-18
-6.38997e-19
1.74739e-18
-4.92505e-19
1.81564e-18
-3.4343e-19
1.85094e-18
-1.9499e-19
1.85445e-18
-4.99777e-20
1.8278e-18
8.92705e-20
1.773e-18
2.20877e-19
1.69229e-18
3.434e-19
1.58809e-18
4.55786e-19
1.46289e-18
5.57324e-19
1.31923e-18
6.47579e-19
1.15959e-18
7.26335e-19
9.86444e-19
7.93539e-19
8.02176e-19
8.49244e-19
6.09114e-19
8.93566e-19
4.09521e-19
9.26646e-19
2.05606e-19
9.48616e-19
9.59578e-19
-1.53833e-11
-3.65695e-10
-7.92535e-12
-4.57472e-10
1.12903e-10
-5.64291e-10
2.70225e-10
-5.12099e-10
4.08383e-10
-4.48707e-10
5.02038e-10
-3.79366e-10
5.45329e-10
-3.33305e-10
5.87191e-10
-9.16275e-11
5.69763e-10
1.6519e-11
5.26639e-10
1.19009e-10
4.2859e-10
2.20019e-10
3.25101e-10
4.00349e-10
2.1891e-10
4.83854e-10
1.04818e-10
5.95915e-10
-9.22387e-11
7.62073e-10
-4.92798e-10
9.95874e-10
-8.53677e-10
9.33363e-10
-9.52767e-10
8.1885e-10
-8.90837e-10
7.31378e-10
-8.14484e-10
6.17486e-10
-9.75813e-10
6.81344e-10
-1.1657e-09
7.89807e-10
-1.34638e-09
7.89622e-10
-1.42742e-09
6.26983e-10
-1.46518e-09
5.12728e-10
-1.51867e-09
4.3558e-10
-1.5405e-09
3.84755e-10
-1.62037e-09
3.19022e-10
-1.65218e-09
3.12264e-10
-1.65679e-09
2.67294e-10
-1.59589e-09
1.7134e-10
-1.54941e-09
2.18314e-10
-1.57256e-09
3.50278e-10
-1.52629e-09
3.28081e-10
-1.52269e-09
2.76378e-10
-1.5464e-09
2.82731e-10
-1.60407e-09
2.85937e-10
-1.66945e-09
3.1601e-10
-1.72179e-09
2.77921e-10
-1.7893e-09
3.35153e-10
-1.85212e-09
4.251e-10
-1.91413e-09
4.61469e-10
-1.99327e-09
4.89086e-10
-2.0475e-09
4.86886e-10
-2.14898e-09
5.13308e-10
-2.21437e-09
4.56189e-10
-2.26723e-09
4.30196e-10
-2.29008e-09
3.55283e-10
-2.29422e-09
2.76837e-10
-2.28353e-09
2.44606e-10
-2.24168e-09
-1.75059e-11
-2.10478e-09
-4.09878e-11
-2.04534e-09
1.13942e-11
-2.01804e-09
-7.37276e-11
-1.99706e-09
-1.59803e-10
-1.97697e-09
-2.3818e-10
-1.94152e-09
-2.78408e-10
-1.91412e-09
-2.89097e-10
-1.88596e-09
-3.54554e-10
-1.88573e-09
-4.05638e-10
-1.87248e-09
-4.42074e-10
-1.8048e-09
-5.23667e-10
-1.71795e-09
-6.82653e-10
-1.55142e-09
-9.7862e-10
-1.50817e-09
-9.31774e-10
-1.33336e-09
-1.26109e-09
-1.24144e-09
-1.35963e-09
-1.04213e-09
-1.49265e-09
-7.21213e-10
-1.52813e-09
-4.85905e-10
-1.33672e-09
-4.19683e-10
-1.22181e-09
-2.91211e-10
-9.79544e-10
6.88192e-12
-8.08121e-10
2.4105e-10
-5.52571e-10
2.8754e-10
-5.14158e-12
2.80267e-10
9.72123e-11
1.98285e-10
3.62182e-10
6.82159e-11
2.57656e-10
1.34574e-10
6.54211e-10
2.20483e-10
4.86704e-13
6.51864e-16
-1.06376e-09
-3.40011e-18
-2.61446e-18
-2.72617e-18
-6.91303e-19
-2.49211e-18
-4.6228e-19
-2.36392e-18
-4.70744e-19
-2.25167e-18
-5.66337e-19
-2.12553e-18
-7.0016e-19
-1.9737e-18
-8.50741e-19
-1.79152e-18
-1.00555e-18
-1.57808e-18
-1.1555e-18
-1.33493e-18
-1.29305e-18
-1.06559e-18
-1.4116e-18
-7.75146e-19
-1.50548e-18
-4.6994e-19
-1.57012e-18
-1.57152e-19
-1.60227e-18
1.55611e-19
-1.60024e-18
4.60749e-19
-1.5639e-18
7.5107e-19
-1.49464e-18
1.02013e-18
-1.39521e-18
1.26247e-18
-1.26939e-18
1.47379e-18
-1.12173e-18
1.65099e-18
-9.57172e-19
1.79216e-18
-7.80768e-19
1.89647e-18
-5.97415e-19
1.96408e-18
-4.11644e-19
1.99595e-18
-2.27478e-19
1.9937e-18
-4.8356e-20
1.95941e-18
1.22903e-19
1.89552e-18
2.84083e-19
1.80467e-18
4.33533e-19
1.68962e-18
5.70096e-19
1.55315e-18
6.93035e-19
1.39798e-18
8.01952e-19
1.2268e-18
8.96708e-19
1.04215e-18
9.7735e-19
8.46498e-19
1.04404e-18
6.42194e-19
1.097e-18
4.31491e-19
1.13647e-18
2.16568e-19
1.16266e-18
1.17572e-18
-1.19393e-11
-3.53757e-10
5.70956e-12
-4.75124e-10
1.10758e-10
-6.69342e-10
2.55344e-10
-6.56687e-10
3.95179e-10
-5.88544e-10
4.78766e-10
-4.62954e-10
4.83896e-10
-3.38437e-10
5.7221e-10
-1.79943e-10
5.74894e-10
1.38335e-11
5.0095e-10
1.92951e-10
3.78644e-10
3.42323e-10
2.97203e-10
4.81788e-10
1.89119e-10
5.91937e-10
7.56985e-11
7.09334e-10
2.43418e-12
8.35336e-10
-1.11145e-11
1.00942e-09
-1.69955e-10
1.0922e-09
-3.94731e-10
1.04362e-09
-7.00618e-10
1.03727e-09
-1.05173e-09
9.68599e-10
-1.28627e-09
9.15877e-10
-1.30715e-09
8.10694e-10
-1.36666e-09
8.49132e-10
-1.47893e-09
7.39253e-10
-1.61206e-09
6.45848e-10
-1.66431e-09
4.87831e-10
-1.70956e-09
4.30007e-10
-1.77914e-09
3.88601e-10
-1.80232e-09
3.3545e-10
-1.7954e-09
2.60368e-10
-1.72018e-09
9.6124e-11
-1.62709e-09
1.25225e-10
-1.61301e-09
3.362e-10
-1.57619e-09
2.91263e-10
-1.53343e-09
2.33614e-10
-1.52284e-09
2.72148e-10
-1.52267e-09
2.85763e-10
-1.60101e-09
3.94357e-10
-1.64392e-09
3.20828e-10
-1.69013e-09
3.81361e-10
-1.70644e-09
4.41417e-10
-1.73822e-09
4.93248e-10
-1.84084e-09
5.9171e-10
-1.88489e-09
5.30933e-10
-1.94294e-09
5.71366e-10
-1.99436e-09
5.07609e-10
-1.98932e-09
4.25148e-10
-1.97425e-09
3.40218e-10
-1.93583e-09
2.38415e-10
-1.88153e-09
1.90308e-10
-1.9271e-09
2.80703e-11
-1.81698e-09
-1.51105e-10
-1.73661e-09
-6.89816e-11
-1.66633e-09
-1.44001e-10
-1.6347e-09
-1.9144e-10
-1.61051e-09
-2.62369e-10
-1.58299e-09
-3.05927e-10
-1.53799e-09
-3.34094e-10
-1.49244e-09
-4.00098e-10
-1.46352e-09
-4.3456e-10
-1.43846e-09
-4.67137e-10
-1.40023e-09
-5.61899e-10
-1.28579e-09
-7.97087e-10
-1.23654e-09
-1.02787e-09
-1.26162e-09
-9.06692e-10
-1.15162e-09
-1.37109e-09
-1.01418e-09
-1.49708e-09
-8.50752e-10
-1.65608e-09
-6.80907e-10
-1.69797e-09
-4.66131e-10
-1.5515e-09
-3.02834e-10
-1.38511e-09
-7.56698e-11
-1.20671e-09
2.99876e-11
-9.13779e-10
1.76417e-10
-6.99001e-10
3.25284e-10
-1.5401e-10
3.42267e-10
8.02284e-11
3.29413e-10
3.75034e-10
2.59126e-10
3.27941e-10
4.66234e-10
4.47101e-10
3.77516e-10
8.92024e-11
6.80918e-16
-6.86249e-10
-2.34446e-18
-1.7502e-18
-2.49715e-18
-5.3957e-19
-2.50058e-18
-4.60982e-19
-2.45951e-18
-5.13956e-19
-2.3855e-18
-6.42395e-19
-2.27611e-18
-8.11472e-19
-2.12851e-18
-1.00014e-18
-1.94147e-18
-1.19428e-18
-1.71562e-18
-1.38297e-18
-1.45348e-18
-1.55674e-18
-1.15947e-18
-1.70709e-18
-8.39779e-19
-1.82657e-18
-5.02094e-19
-1.90913e-18
-1.55118e-19
-1.9505e-18
1.91954e-19
-1.94847e-18
5.30003e-19
-1.90301e-18
8.50502e-19
-1.81611e-18
1.14594e-18
-1.69152e-18
1.41013e-18
-1.53437e-18
1.63835e-18
-1.35067e-18
1.8274e-18
-1.14688e-18
1.97551e-18
-9.29511e-19
2.08224e-18
-7.04756e-19
2.14824e-18
-4.78254e-19
2.17507e-18
-2.5492e-19
2.16495e-18
-3.88641e-20
2.12059e-18
1.66622e-19
2.04497e-18
3.59033e-19
1.94124e-18
5.36569e-19
1.81256e-18
6.98046e-19
1.66207e-18
8.42785e-19
1.49274e-18
9.70504e-19
1.30744e-18
1.08122e-18
1.10884e-18
1.17514e-18
8.99461e-19
1.25259e-18
6.81664e-19
1.31396e-18
4.57677e-19
1.35961e-18
2.29625e-19
1.38986e-18
1.40493e-18
2.38003e-11
-3.77559e-10
9.7583e-11
-5.48909e-10
2.21257e-10
-7.93018e-10
3.33995e-10
-7.69428e-10
4.2935e-10
-6.83901e-10
4.96513e-10
-5.30119e-10
4.90459e-10
-3.32385e-10
5.55306e-10
-2.44793e-10
5.04397e-10
6.4741e-11
4.16297e-10
2.8105e-10
3.52463e-10
4.06155e-10
2.62904e-10
5.71346e-10
1.39732e-10
7.15108e-10
1.74278e-11
8.31638e-10
-9.59089e-11
9.48672e-10
-2.21067e-10
1.13458e-09
-3.89265e-10
1.2604e-09
-5.7926e-10
1.23362e-09
-6.9447e-10
1.15247e-09
-8.5757e-10
1.1317e-09
-1.18407e-09
1.24237e-09
-1.43176e-09
1.05838e-09
-1.51171e-09
9.29079e-10
-1.56171e-09
7.89259e-10
-1.60381e-09
6.87943e-10
-1.73966e-09
6.23686e-10
-1.85527e-09
5.45615e-10
-1.88328e-09
4.1661e-10
-1.87195e-09
3.24122e-10
-1.84735e-09
2.35766e-10
-1.78093e-09
2.97041e-11
-1.73851e-09
8.28114e-11
-1.6114e-09
2.09086e-10
-1.58959e-09
2.69458e-10
-1.53828e-09
1.82306e-10
-1.51532e-09
2.49182e-10
-1.45101e-09
2.21457e-10
-1.48889e-09
4.32241e-10
-1.48361e-09
3.15539e-10
-1.48661e-09
3.84372e-10
-1.5385e-09
4.93308e-10
-1.57578e-09
5.30524e-10
-1.60117e-09
6.17097e-10
-1.66678e-09
5.96548e-10
-1.6967e-09
6.01285e-10
-1.72535e-09
5.36263e-10
-1.69304e-09
3.92835e-10
-1.65835e-09
3.05528e-10
-1.60922e-09
1.89286e-10
-1.56281e-09
1.43903e-10
-1.5647e-09
2.99632e-11
-1.60394e-09
-1.11866e-10
-1.52891e-09
-1.44008e-10
-1.45943e-09
-2.13486e-10
-1.41732e-09
-2.33547e-10
-1.36704e-09
-3.12647e-10
-1.31086e-09
-3.6211e-10
-1.26643e-09
-3.78518e-10
-1.21657e-09
-4.49957e-10
-1.15995e-09
-4.91177e-10
-1.09872e-09
-5.2837e-10
-1.04511e-09
-6.15513e-10
-1.03691e-09
-8.05287e-10
-1.11624e-09
-9.48534e-10
-1.03046e-09
-9.92477e-10
-9.63938e-10
-1.43761e-09
-8.25269e-10
-1.63575e-09
-7.02941e-10
-1.7784e-09
-5.77184e-10
-1.82373e-09
-3.54725e-10
-1.77396e-09
-1.98089e-10
-1.54175e-09
-2.92831e-11
-1.37552e-09
1.2989e-10
-1.07295e-09
1.73434e-10
-7.42546e-10
3.31172e-10
-3.11749e-10
3.32274e-10
7.91243e-11
4.63993e-10
2.43314e-10
4.49845e-10
3.42086e-10
5.30727e-10
3.66218e-10
3.35594e-10
2.84333e-10
6.74314e-16
-3.50658e-10
-2.0893e-18
-1.06393e-18
-2.41856e-18
-2.11342e-19
-2.55355e-18
-3.2822e-19
-2.58795e-18
-4.8182e-19
-2.55457e-18
-6.77926e-19
-2.46478e-18
-9.03279e-19
-2.32265e-18
-1.14413e-18
-2.13016e-18
-1.38851e-18
-1.88939e-18
-1.62536e-18
-1.60383e-18
-1.84385e-18
-1.27895e-18
-2.03347e-18
-9.22336e-19
-2.18463e-18
-5.43461e-19
-2.28939e-18
-1.53094e-19
-2.34218e-18
2.37415e-19
-2.34023e-18
6.16904e-19
-2.28366e-18
9.75088e-19
-2.17536e-18
1.3031e-18
-2.0205e-18
1.59384e-18
-1.82598e-18
1.84214e-18
-1.59975e-18
2.04476e-18
-1.35022e-18
2.20026e-18
-1.08567e-18
2.30874e-18
-8.13862e-19
2.37158e-18
-5.41703e-19
2.39113e-18
-2.75082e-19
2.37044e-18
-1.87967e-20
2.313e-18
2.23429e-19
2.2225e-18
4.48871e-19
2.10271e-18
6.55681e-19
1.9573e-18
8.42754e-19
1.78978e-18
1.00958e-18
1.60345e-18
1.15609e-18
1.40136e-18
1.28254e-18
1.18629e-18
1.38941e-18
9.60829e-19
1.47725e-18
7.27314e-19
1.54666e-18
4.87924e-19
1.59818e-18
2.44695e-19
1.63226e-18
1.64922e-18
4.59908e-11
-4.23551e-10
1.48206e-10
-6.51127e-10
2.50568e-10
-8.95383e-10
3.5021e-10
-8.69072e-10
4.20581e-10
-7.54274e-10
4.66648e-10
-5.76189e-10
4.88909e-10
-3.54648e-10
4.77342e-10
-2.33228e-10
4.22232e-10
1.19849e-10
3.76582e-10
3.26698e-10
2.81642e-10
5.01093e-10
1.55876e-10
6.9711e-10
2.91904e-11
8.41792e-10
-1.5603e-10
1.01686e-09
-3.46894e-10
1.13953e-09
-4.88444e-10
1.27613e-09
-6.62228e-10
1.43418e-09
-9.87452e-10
1.55884e-09
-1.22389e-09
1.38891e-09
-1.25098e-09
1.15879e-09
-1.19977e-09
1.19116e-09
-1.34027e-09
1.19888e-09
-1.52049e-09
1.10931e-09
-1.68442e-09
9.5319e-10
-1.79165e-09
7.95168e-10
-1.86999e-09
7.0203e-10
-1.95653e-09
6.32157e-10
-1.92338e-09
3.83451e-10
-1.90723e-09
3.07972e-10
-1.86092e-09
1.8946e-10
-1.77881e-09
-5.24093e-11
-1.72143e-09
2.54372e-11
-1.65789e-09
1.45543e-10
-1.60168e-09
2.13252e-10
-1.51317e-09
9.37967e-11
-1.49537e-09
2.31381e-10
-1.37625e-09
1.02342e-10
-1.3686e-09
4.24592e-10
-1.32369e-09
2.70629e-10
-1.31126e-09
3.71936e-10
-1.31449e-09
4.96543e-10
-1.37091e-09
5.86946e-10
-1.36983e-09
6.16016e-10
-1.39754e-09
6.24256e-10
-1.41904e-09
6.22794e-10
-1.41557e-09
5.32791e-10
-1.39093e-09
3.68199e-10
-1.37872e-09
2.93311e-10
-1.40244e-09
2.13011e-10
-1.4094e-09
1.50868e-10
-1.35974e-09
-1.96981e-11
-1.33518e-09
-1.36427e-10
-1.30096e-09
-1.78225e-10
-1.28288e-09
-2.31567e-10
-1.23546e-09
-2.80967e-10
-1.19001e-09
-3.58097e-10
-1.14462e-09
-4.07499e-10
-1.0791e-09
-4.44037e-10
-1.02775e-09
-5.01307e-10
-9.469e-10
-5.72029e-10
-8.70412e-10
-6.04858e-10
-8.38032e-10
-6.47893e-10
-8.31211e-10
-8.12108e-10
-8.35601e-10
-9.44144e-10
-7.3995e-10
-1.08813e-09
-7.64181e-10
-1.41338e-09
-6.83738e-10
-1.71619e-09
-5.39541e-10
-1.9226e-09
-4.00743e-10
-1.96253e-09
-2.43238e-10
-1.93146e-09
-9.4836e-11
-1.69015e-09
-3.52528e-11
-1.4351e-09
9.88332e-11
-1.20704e-09
1.93089e-10
-8.36803e-10
3.08528e-10
-4.27189e-10
3.54588e-10
3.30631e-11
4.46069e-10
1.51831e-10
4.03332e-10
3.84822e-10
3.88449e-10
3.81098e-10
2.75184e-10
3.97597e-10
6.17083e-16
-7.54765e-11
-2.26787e-18
-8.37904e-19
-2.53544e-18
5.51151e-20
-2.70715e-18
-1.58768e-19
-2.78406e-18
-4.07245e-19
-2.77993e-18
-6.84294e-19
-2.70563e-18
-9.79662e-19
-2.56704e-18
-1.28462e-18
-2.36701e-18
-1.59028e-18
-2.10788e-18
-1.8861e-18
-1.79345e-18
-2.1598e-18
-1.4301e-18
-2.39829e-18
-1.0271e-18
-2.58905e-18
-5.96256e-19
-2.72161e-18
-1.51141e-19
-2.78864e-18
2.9398e-19
-2.78664e-18
7.25206e-19
-2.71613e-18
1.12995e-18
-2.58126e-18
1.49762e-18
-2.38924e-18
1.82007e-18
-2.14938e-18
2.09167e-18
-1.87221e-18
2.30931e-18
-1.56862e-18
2.47207e-18
-1.24913e-18
2.5809e-18
-9.23342e-19
2.6382e-18
-5.99625e-19
2.64741e-18
-2.84909e-19
2.61267e-18
1.53358e-20
2.53844e-18
2.97032e-19
2.42931e-18
5.57355e-19
2.28979e-18
7.9455e-19
2.12412e-18
1.00773e-18
1.93629e-18
1.1967e-18
1.72991e-18
1.36175e-18
1.50822e-18
1.50349e-18
1.27414e-18
1.62273e-18
1.03024e-18
1.72037e-18
7.78833e-19
1.79727e-18
5.22005e-19
1.85421e-18
2.6166e-19
1.89181e-18
1.9105e-18
7.33133e-11
-4.96866e-10
1.86825e-10
-7.64642e-10
2.57211e-10
-9.65771e-10
3.22593e-10
-9.34456e-10
3.45077e-10
-7.7676e-10
3.39122e-10
-5.70236e-10
3.42728e-10
-3.58257e-10
2.90633e-10
-1.81134e-10
2.43106e-10
1.67374e-10
1.53764e-10
4.16039e-10
8.36564e-11
5.71199e-10
9.3831e-12
7.71382e-10
-1.17647e-10
9.68822e-10
-2.83292e-10
1.1825e-09
-4.05392e-10
1.26163e-09
-3.86711e-10
1.25745e-09
-3.10254e-10
1.35773e-09
-3.79402e-10
1.62799e-09
-7.19786e-10
1.72929e-09
-1.20732e-09
1.64633e-09
-1.43485e-09
1.41868e-09
-1.54692e-09
1.31095e-09
-1.69223e-09
1.25462e-09
-1.72941e-09
9.90365e-10
-1.81693e-09
8.82695e-10
-1.89508e-09
7.80176e-10
-1.95067e-09
6.87746e-10
-1.97063e-09
4.03408e-10
-1.78442e-09
1.21766e-10
-1.77733e-09
1.82374e-10
-1.70199e-09
-1.27749e-10
-1.62697e-09
-4.95876e-11
-1.58168e-09
1.0025e-10
-1.48369e-09
1.15263e-10
-1.45667e-09
6.67799e-11
-1.36316e-09
1.37874e-10
-1.30817e-09
4.73567e-11
-1.25425e-09
3.70668e-10
-1.17056e-09
1.86938e-10
-1.14683e-09
3.48205e-10
-1.08904e-09
4.38759e-10
-1.10409e-09
6.01997e-10
-1.11767e-09
6.29594e-10
-1.12735e-09
6.3394e-10
-1.13393e-09
6.29366e-10
-1.11895e-09
5.1782e-10
-1.10524e-09
3.54491e-10
-1.08471e-09
2.7278e-10
-1.0726e-09
2.00901e-10
-1.08319e-09
1.61452e-10
-1.13004e-09
2.7156e-11
-1.1561e-09
-1.10361e-10
-1.13074e-09
-2.03591e-10
-1.10965e-09
-2.52654e-10
-1.09551e-09
-2.95102e-10
-1.08776e-09
-3.65849e-10
-1.01089e-09
-4.84368e-10
-9.37211e-10
-5.17717e-10
-8.92565e-10
-5.45952e-10
-8.04019e-10
-6.60574e-10
-7.36657e-10
-6.7222e-10
-6.78492e-10
-7.06058e-10
-6.50811e-10
-8.39789e-10
-6.34284e-10
-9.60671e-10
-5.97265e-10
-1.12515e-09
-5.62482e-10
-1.44816e-09
-4.68362e-10
-1.81031e-09
-3.61345e-10
-2.02962e-09
-2.6257e-10
-2.0613e-09
-2.04979e-10
-1.98905e-09
-6.53847e-11
-1.82974e-09
3.74317e-11
-1.53792e-09
1.02736e-10
-1.27235e-09
2.21732e-10
-9.55799e-10
2.58081e-10
-4.63538e-10
3.03825e-10
-1.26821e-11
3.81361e-10
7.42938e-11
3.79212e-10
3.86969e-10
2.72791e-10
4.87518e-10
1.20687e-10
5.49699e-10
5.00704e-16
4.52083e-11
-2.48305e-18
-8.00432e-19
-2.74932e-18
3.2023e-19
-2.95563e-18
4.53571e-20
-3.0611e-18
-3.0409e-19
-3.0753e-18
-6.72387e-19
-3.01058e-18
-1.04651e-18
-2.87269e-18
-1.42444e-18
-2.66283e-18
-1.80187e-18
-2.38158e-18
-2.1689e-18
-2.03194e-18
-2.51089e-18
-1.62087e-18
-2.81073e-18
-1.15966e-18
-3.05159e-18
-6.63285e-19
-3.21929e-18
-1.49147e-19
-3.30407e-18
3.64496e-19
-3.30157e-18
8.60069e-19
-3.21296e-18
1.32197e-18
-3.04438e-18
1.73749e-18
-2.80589e-18
2.09723e-18
-2.51016e-18
2.39526e-18
-2.17117e-18
2.6288e-18