/*--------------------------------*- C++ -*----------------------------------*\
  =========                 |
  \\      /  F ield         | OpenFOAM: The Open Source CFD Toolbox
   \\    /   O peration     | Website:  https://openfoam.org
    \\  /    A nd           | Version:  6
     \\/     M anipulation  |
\*---------------------------------------------------------------------------*/
FoamFile
{
    version     2.0;
    format      ascii;
    class       volScalarField;
    location    "4200";
    object      Su;
}
// * * * * * * * * * * * * * * * * * * * * * * * * * * * * * * * * * * * * * //

dimensions      [0 0 -1 0 0 0 0];

internalField   nonuniform List<scalar> 
4800
(
0.218655
0.214772
0.210861
0.206909
0.20291
0.198858
0.194745
0.190566
0.186309
0.181965
0.177535
0.173019
0.168421
0.163751
0.159027
0.154275
0.149528
0.144814
0.140162
0.135594
0.131128
0.126778
0.122556
0.118473
0.11454
0.110759
0.107136
0.103672
0.100355
0.0971678
0.0940924
0.0911169
0.0882324
0.0854326
0.0827126
0.0800656
0.0774838
0.0749606
0.0724918
0.0700744
0.0677079
0.0653948
0.0631388
0.0609433
0.0588105
0.0567418
0.0547372
0.052796
0.0509171
0.0490984
0.0473367
0.0456277
0.0439668
0.0423491
0.0407699
0.039224
0.0377044
0.0362043
0.0347189
0.0332406
0.0317601
0.0302731
0.0287777
0.0272698
0.0257456
0.0241996
0.0226248
0.0210112
0.0193322
0.0175755
0.0157374
0.0138175
0.0118132
0.00971709
0.00752256
0.00522576
0.00283542
0.000369717
-0.00214674
-0.00467195
-0.00716709
-0.00964754
-0.0121754
-0.0147414
-0.0173346
-0.0199473
-0.0225739
-0.0252103
-0.0278533
-0.0305002
-0.0331489
-0.0357979
-0.0384458
-0.0410919
-0.0437353
-0.0463756
-0.0490126
-0.0516462
-0.0542761
-0.0569026
-0.0595257
-0.0621456
-0.0647624
-0.0673764
-0.0699879
-0.0725971
-0.0752042
-0.0778095
-0.0804131
-0.0830154
-0.0856165
-0.0882166
-0.0908159
-0.0934144
-0.0960124
-0.0986099
-0.101207
-0.103804
-0.106401
-0.108997
0.218642
0.214738
0.210811
0.206849
0.202845
0.198789
0.194675
0.190494
0.186236
0.181892
0.177461
0.172945
0.168348
0.16368
0.158957
0.154206
0.149456
0.144737
0.140076
0.135503
0.131039
0.126695
0.122475
0.118394
0.114474
0.110724
0.107135
0.1037
0.100408
0.0972428
0.0941884
0.0912336
0.0883689
0.0855869
0.0828819
0.080247
0.0776744
0.0751584
0.0726955
0.0702828
0.0679193
0.065608
0.0633525
0.0611574
0.0590255
0.0569587
0.0549575
0.0530211
0.0511487
0.0493374
0.0475831
0.0458808
0.0442252
0.0426114
0.0410344
0.0394889
0.0379667
0.0364634
0.0349738
0.0334896
0.0320047
0.0305168
0.0290218
0.0275139
0.0259884
0.0244377
0.0228536
0.0212243
0.0195233
0.0177517
0.0159037
0.0139741
0.0119534
0.00983883
0.00762702
0.00531821
0.00291873
0.000444966
-0.00207075
-0.0045876
-0.00708366
-0.00957875
-0.0121189
-0.0146948
-0.017296
-0.0199153
-0.0225475
-0.0251887
-0.0278357
-0.0304862
-0.0331379
-0.0357895
-0.0384396
-0.0410875
-0.0437324
-0.0463741
-0.0490121
-0.0516465
-0.0542771
-0.0569041
-0.0595276
-0.0621477
-0.0647648
-0.0673789
-0.0699904
-0.0725996
-0.0752066
-0.0778118
-0.0804154
-0.0830175
-0.0856184
-0.0882183
-0.0908174
-0.0934157
-0.0960135
-0.0986108
-0.101208
-0.103804
-0.106401
-0.108997
0.218621
0.214679
0.210725
0.206744
0.202728
0.198665
0.194548
0.19036
0.186094
0.181747
0.177315
0.172797
0.168198
0.16353
0.15881
0.15406
0.149309
0.144586
0.139921
0.135343
0.130874
0.126533
0.122333
0.118287
0.114406
0.110698
0.107156
0.103768
0.100519
0.0973942
0.0943827
0.0914701
0.0886439
0.0858953
0.0832187
0.0806065
0.0780523
0.0755503
0.0730972
0.0706912
0.0683329
0.0660269
0.063776
0.0615855
0.0594579
0.0573965
0.0554021
0.0534752
0.0516142
0.0498155
0.0480746
0.0463845
0.0447392
0.043134
0.0415642
0.0400233
0.038501
0.0369944
0.0354981
0.0340058
0.0325141
0.0310207
0.02952
0.0280061
0.0264726
0.0249097
0.0233103
0.0216547
0.0199204
0.0181255
0.0162521
0.0142942
0.0122411
0.0100927
0.00785149
0.00552646
0.00313037
0.000674957
-0.00183288
-0.00437388
-0.00691009
-0.00944302
-0.0120082
-0.0146031
-0.0172197
-0.019852
-0.0224952
-0.0251459
-0.0278011
-0.0304585
-0.0331162
-0.0357729
-0.0384274
-0.0410789
-0.0437269
-0.0463711
-0.0490113
-0.0516473
-0.0542793
-0.0569073
-0.0595315
-0.0621522
-0.0647696
-0.0673839
-0.0699955
-0.0726046
-0.0752115
-0.0778165
-0.0804198
-0.0830217
-0.0856223
-0.0882218
-0.0908205
-0.0934185
-0.0960158
-0.0986127
-0.101209
-0.103805
-0.106402
-0.108998
0.218595
0.214604
0.210612
0.206606
0.202572
0.198496
0.194366
0.190166
0.185887
0.181528
0.177086
0.172562
0.16796
0.163293
0.158577
0.153832
0.149082
0.144357
0.13969
0.135119
0.130668
0.126348
0.122179
0.118181
0.114359
0.110709
0.107223
0.103891
0.100698
0.0976316
0.0946794
0.091825
0.0890535
0.0863538
0.0837184
0.0811387
0.0786104
0.0761283
0.073691
0.0712976
0.0689497
0.0666526
0.0644098
0.0622279
0.0601099
0.0580596
0.0560784
0.0541664
0.0523218
0.0505397
0.0488162
0.0471411
0.0455087
0.0439157
0.0423562
0.0408207
0.0392998
0.0377919
0.0362908
0.0347906
0.0332882
0.031783
0.0302717
0.0287471
0.0271997
0.0256193
0.0239947
0.0223014
0.0205315
0.0187003
0.0167849
0.0147835
0.0126828
0.0104875
0.00820415
0.00584682
0.00342779
0.000955345
-0.00157196
-0.0041292
-0.00668532
-0.00925264
-0.0118486
-0.0144695
-0.0171082
-0.0197592
-0.0224186
-0.0250831
-0.0277502
-0.030418
-0.0330846
-0.0357488
-0.0384097
-0.0410666
-0.0437192
-0.0463671
-0.0490103
-0.0516488
-0.0542827
-0.0569122
-0.0595375
-0.062159
-0.0647769
-0.0673915
-0.0700032
-0.0726122
-0.0752189
-0.0778236
-0.0804265
-0.0830279
-0.085628
-0.088227
-0.0908252
-0.0934225
-0.0960193
-0.0986155
-0.101211
-0.103807
-0.106403
-0.108998
0.218566
0.214519
0.210479
0.206438
0.202376
0.198277
0.194123
0.189902
0.185604
0.181228
0.17677
0.172235
0.16763
0.162967
0.158258
0.153522
0.148786
0.144079
0.139428
0.134864
0.130427
0.126147
0.122037
0.118104
0.114348
0.110765
0.107347
0.104084
0.100962
0.0979686
0.0950886
0.0923037
0.0895967
0.0869562
0.0843739
0.0818394
0.0793468
0.0768927
0.0744787
0.0721035
0.0697703
0.0674861
0.0652567
0.0630885
0.0609853
0.0589517
0.056989
0.0550968
0.0532726
0.0515109
0.0498087
0.0481513
0.0465346
0.0449557
0.0434055
0.0418745
0.0403551
0.0388446
0.0373383
0.0358311
0.0343193
0.0328024
0.0312778
0.0297379
0.0281687
0.0265622
0.0249016
0.0231668
0.0213561
0.0194725
0.0175041
0.0154426
0.0132824
0.0110326
0.00869466
0.00628713
0.00382384
0.00131538
-0.0012401
-0.00381538
-0.00640055
-0.00901052
-0.0116443
-0.0142977
-0.0169642
-0.0196392
-0.0223193
-0.0250019
-0.0276846
-0.0303658
-0.0330439
-0.035718
-0.0383873
-0.0410513
-0.0437097
-0.0463625
-0.0490096
-0.0516513
-0.0542877
-0.0569191
-0.0595459
-0.0621683
-0.0647868
-0.0674018
-0.0700135
-0.0726224
-0.0752289
-0.0778331
-0.0804355
-0.0830363
-0.0856357
-0.088234
-0.0908314
-0.0934279
-0.0960239
-0.0986193
-0.101214
-0.103809
-0.106404
-0.108998
0.218535
0.214427
0.210331
0.20624
0.202135
0.197997
0.193807
0.189559
0.185239
0.180842
0.176367
0.17182
0.167211
0.162549
0.157847
0.153115
0.148383
0.143698
0.139098
0.134601
0.130227
0.126
0.121946
0.118075
0.11439
0.110884
0.107547
0.104365
0.101326
0.0984176
0.0956217
0.0929162
0.0902818
0.0877094
0.0851895
0.0827086
0.080261
0.0778437
0.0754602
0.0731096
0.0707971
0.0685315
0.0663196
0.0641688
0.0620843
0.0600712
0.0581308
0.0562624
0.0544618
0.0527228
0.0510426
0.0494039
0.0478024
0.0462347
0.0446914
0.0431646
0.0416471
0.0401351
0.0386253
0.0371118
0.0355907
0.0340622
0.0325231
0.0309629
0.0293623
0.0277208
0.0260171
0.0242375
0.0223765
0.0204284
0.0183884
0.016253
0.0140316
0.0117283
0.00934128
0.0068864
0.00437213
0.00181186
-0.000789788
-0.0034097
-0.00605393
-0.00872085
-0.0114001
-0.0140917
-0.0167911
-0.0194949
-0.0222001
-0.0249044
-0.0276061
-0.0303036
-0.0329958
-0.0356818
-0.0383613
-0.0410338
-0.0436993
-0.046358
-0.0490099
-0.0516554
-0.0542947
-0.0569284
-0.0595568
-0.0621804
-0.0647996
-0.0674149
-0.0700267
-0.0726354
-0.0752414
-0.0778451
-0.0804468
-0.0830468
-0.0856454
-0.0882427
-0.0908391
-0.0934347
-0.0960296
-0.098624
-0.101218
-0.103812
-0.106405
-0.108999
0.218502
0.214328
0.210165
0.20601
0.201845
0.197653
0.193417
0.189131
0.184785
0.180367
0.175876
0.171324
0.166718
0.16207
0.157396
0.152715
0.148041
0.143403
0.138834
0.134368
0.130038
0.125878
0.121903
0.118114
0.11451
0.111088
0.107841
0.104753
0.10181
0.0989978
0.0962953
0.093677
0.0911228
0.0886251
0.0861726
0.0837519
0.0813571
0.0789837
0.0766379
0.0743184
0.072032
0.0697884
0.0675951
0.0654639
0.0633998
0.0614099
0.0594947
0.0576513
0.0558741
0.0541558
0.0524924
0.0508692
0.0492783
0.0477196
0.0461828
0.0446605
0.0431455
0.0416333
0.0401207
0.0386011
0.0370707
0.0355287
0.033971
0.0323829
0.0307448
0.0290657
0.0273161
0.0254846
0.0235596
0.0215361
0.0194167
0.0172038
0.0149034
0.012522
0.010066
0.00755083
0.0049815
0.00237036
-0.00027856
-0.00295675
-0.00566881
-0.00839462
-0.0111227
-0.0138564
-0.016593
-0.0193296
-0.0220636
-0.0247932
-0.0275169
-0.0302333
-0.0329418
-0.0356417
-0.0383329
-0.0410153
-0.0436891
-0.0463544
-0.0490118
-0.0516616
-0.0543043
-0.0569405
-0.0595707
-0.0621955
-0.0648154
-0.067431
-0.0700427
-0.0726511
-0.0752566
-0.0778596
-0.0804604
-0.0830594
-0.0856569
-0.0882532
-0.0908484
-0.0934428
-0.0960365
-0.0986297
-0.101222
-0.103815
-0.106407
-0.108999
0.218466
0.21422
0.209982
0.205749
0.201509
0.197248
0.192954
0.188621
0.184239
0.179797
0.175297
0.170746
0.166148
0.161518
0.156873
0.152233
0.147614
0.143038
0.13854
0.134153
0.129903
0.125817
0.121922
0.118224
0.114719
0.111397
0.108249
0.105268
0.102435
0.0997294
0.0971276
0.0946006
0.0921318
0.0897132
0.0873325
0.0849758
0.0826396
0.0803155
0.0780144
0.0757306
0.0734713
0.0712493
0.069076
0.066965
0.0649212
0.0629536
0.0610622
0.0592403
0.0574818
0.0557789
0.0541279
0.0525165
0.050934
0.0493819
0.0478498
0.0463321
0.0448203
0.0433082
0.0417926
0.0402662
0.0387248
0.0371658
0.035583
0.0339601
0.0322859
0.030567
0.0287678
0.0268759
0.0248786
0.0227734
0.0205643
0.0182592
0.0158661
0.0133947
0.0108558
0.00826606
0.00563404
0.0029651
0.000257637
-0.00248844
-0.00526349
-0.00804157
-0.0108182
-0.0135966
-0.0163739
-0.0191469
-0.0219133
-0.0246713
-0.0274196
-0.0301574
-0.0328841
-0.0355995
-0.0383038
-0.0409972
-0.04368
-0.0463528
-0.0490161
-0.0516706
-0.0543169
-0.0569558
-0.0595879
-0.0622139
-0.0648345
-0.0674503
-0.0700619
-0.0726698
-0.0752745
-0.0778766
-0.0804763
-0.0830742
-0.0856704
-0.0882653
-0.0908592
-0.0934521
-0.0960444
-0.0986362
-0.101228
-0.103819
-0.106409
-0.109
0.218423
0.214091
0.209764
0.205439
0.20111
0.19677
0.19241
0.188022
0.183602
0.179138
0.174632
0.170084
0.165502
0.160897
0.156286
0.151695
0.147144
0.142645
0.138225
0.133929
0.129786
0.125812
0.122019
0.118421
0.115021
0.111812
0.108782
0.105923
0.103211
0.100619
0.098125
0.0956951
0.0933148
0.0909771
0.0886726
0.0863838
0.0841106
0.0818384
0.0795849
0.0773374
0.0751058
0.0729053
0.0707511
0.0686576
0.066632
0.0646834
0.062811
0.0610043
0.0592576
0.0575646
0.0559234
0.0543218
0.0527485
0.0512013
0.0496733
0.0481593
0.0466499
0.0451375
0.0436177
0.0420833
0.0405275
0.0389464
0.0373344
0.0356771
0.0339667
0.0321995
0.0303445
0.0283852
0.0263082
0.0241121
0.0218018
0.0193913
0.0168937
0.0143229
0.0116924
0.00901772
0.00631147
0.00357152
0.00079738
-0.00201167
-0.00484004
-0.00766518
-0.0104903
-0.0133161
-0.0161377
-0.018951
-0.0217531
-0.0245422
-0.0273175
-0.0300785
-0.032825
-0.0355574
-0.0382758
-0.040981
-0.0436735
-0.0463542
-0.0490238
-0.0516832
-0.0543333
-0.0569749
-0.0596089
-0.062236
-0.0648572
-0.067473
-0.0700842
-0.0726914
-0.0752953
-0.0778962
-0.0804947
-0.0830911
-0.0856858
-0.0882792
-0.0908715
-0.0934628
-0.0960535
-0.0986436
-0.101233
-0.103823
-0.106412
-0.109001
0.218373
0.213939
0.209506
0.205073
0.200643
0.196213
0.19178
0.187336
0.182876
0.178393
0.173882
0.169349
0.164796
0.16023
0.155671
0.151149
0.146691
0.142304
0.137994
0.133788
0.129733
0.125862
0.122185
0.11871
0.115435
0.112352
0.109451
0.10672
0.104138
0.101667
0.0992835
0.0969555
0.094669
0.0924183
0.0901913
0.0879744
0.0857668
0.0835483
0.081343
0.0791304
0.0769256
0.0747441
0.0726059
0.0705249
0.068512
0.0665767
0.0647167
0.0629208
0.0611837
0.0594991
0.0578644
0.0562684
0.0547017
0.0531595
0.0516362
0.0501259
0.0486196
0.0471062
0.0455802
0.0440356
0.0424613
0.0408543
0.0392099
0.0375145
0.0357605
0.033939
0.032023
0.0299885
0.0278208
0.0255217
0.0231016
0.0205787
0.0179699
0.0152913
0.012559
0.00979108
0.00700312
0.00418908
0.00134873
-0.00151912
-0.00439523
-0.00726403
-0.0101398
-0.0130178
-0.0158887
-0.0187463
-0.0215872
-0.02441
-0.0272142
-0.0299999
-0.0327675
-0.0355176
-0.0382509
-0.0409685
-0.0436711
-0.04636
-0.049036
-0.0517004
-0.0543542
-0.0569984
-0.0596341
-0.0622622
-0.0648836
-0.0674993
-0.0701099
-0.0727162
-0.0753189
-0.0779184
-0.0805153
-0.0831101
-0.0857032
-0.0882948
-0.0908852
-0.0934748
-0.0960636
-0.0986518
-0.10124
-0.103827
-0.106415
-0.109002
0.218314
0.213761
0.209206
0.204654
0.200114
0.195592
0.191086
0.186586
0.182092
0.177595
0.173085
0.16857
0.164054
0.159538
0.155032
0.150566
0.14618
0.141899
0.137725
0.133666
0.129747
0.126
0.12245
0.119105
0.115962
0.113014
0.110248
0.10765
0.105204
0.102853
0.100583
0.0983625
0.0961773
0.0940211
0.0918725
0.0897341
0.0875972
0.0854385
0.0832809
0.0811004
0.0789184
0.0767507
0.0746222
0.0725474
0.0705398
0.06861
0.0667552
0.0649665
0.0632373
0.0615601
0.0599311
0.0583411
0.0567806
0.0552438
0.0537265
0.0522224
0.0507194
0.0492026
0.0476695
0.0461113
0.0445149
0.0428786
0.041197
0.0394573
0.0376522
0.0357691
0.0337809
0.0316599
0.0293924
0.0269823
0.024445
0.0218017
0.0190743
0.0162811
0.013441
0.0105773
0.00770433
0.00481569
0.00191603
-0.000999176
-0.00391829
-0.00683144
-0.00976567
-0.0127049
-0.015632
-0.0185385
-0.0214212
-0.0242795
-0.0271138
-0.0299252
-0.0327145
-0.0354829
-0.0382315
-0.0409616
-0.0436745
-0.0463715
-0.0490539
-0.0517231
-0.0543803
-0.0570269
-0.059664
-0.0622928
-0.0649142
-0.0675294
-0.0701391
-0.0727442
-0.0753454
-0.0779433
-0.0805384
-0.0831313
-0.0857224
-0.088312
-0.0909004
-0.0934879
-0.0960747
-0.0986609
-0.101247
-0.103832
-0.106418
-0.109003
0.21825
0.213565
0.208879
0.204205
0.199555
0.194939
0.190357
0.185805
0.181277
0.176766
0.172263
0.167773
0.163298
0.158843
0.154415
0.150029
0.145723
0.141539
0.137489
0.133578
0.129815
0.126218
0.12281
0.119603
0.116598
0.113789
0.111161
0.108696
0.106378
0.104145
0.101994
0.0998954
0.097821
0.0957649
0.0936987
0.0916484
0.0895896
0.0874949
0.085383
0.0832305
0.0810631
0.0789012
0.0767723
0.0746954
0.0726863
0.070757
0.0689053
0.0671227
0.0654005
0.0637307
0.0621076
0.0605237
0.0589708
0.0574434
0.0559356
0.0544385
0.0529377
0.0514181
0.0498769
0.0483012
0.0466799
0.0450104
0.0432856
0.0414952
0.0396318
0.0376801
0.0356096
0.0333906
0.0310114
0.0284801
0.0258183
0.0230506
0.0201987
0.0172852
0.0143334
0.0113708
0.00841073
0.00544811
0.00249284
-0.000462344
-0.00341217
-0.00635455
-0.00936567
-0.012383
-0.0153756
-0.0183353
-0.0212616
-0.0241562
-0.0270211
-0.0298584
-0.0326695
-0.0354562
-0.03822
-0.0409625
-0.0436854
-0.0463902
-0.0490786
-0.0517522
-0.0544126
-0.0570611
-0.0596992
-0.0623282
-0.0649493
-0.0675635
-0.070172
-0.0727755
-0.0753748
-0.0779707
-0.0805638
-0.0831546
-0.0857434
-0.0883308
-0.090917
-0.0935022
-0.0960868
-0.0986708
-0.101254
-0.103838
-0.106421
-0.109004
0.218182
0.213363
0.208548
0.20375
0.198987
0.194274
0.189617
0.18501
0.180446
0.175923
0.171435
0.166984
0.162569
0.158194
0.153867
0.149595
0.145392
0.141298
0.137349
0.133565
0.129949
0.12651
0.123258
0.120198
0.11733
0.114655
0.11216
0.10983
0.107638
0.105531
0.103504
0.101537
0.0995841
0.0976318
0.0956571
0.0937
0.0917236
0.0896956
0.0876284
0.0854985
0.0833384
0.0811754
0.0790396
0.0769552
0.0749403
0.0730049
0.0711492
0.0693692
0.0676533
0.0659921
0.0643776
0.0628032
0.0612619
0.0597483
0.0582534
0.0567659
0.0552684
0.0537465
0.0521945
0.0505986
0.0489489
0.0472408
0.0454681
0.0436231
0.0416975
0.039671
0.0375067
0.0351793
0.0326798
0.0300181
0.0272216
0.0243194
0.0213343
0.0182936
0.0152252
0.012159
0.0091057
0.00606503
0.00304947
5.92005e-05
-0.002888
-0.00578887
-0.0089408
-0.0120659
-0.0151328
-0.0181469
-0.0211162
-0.0240463
-0.0269412
-0.0298037
-0.0326362
-0.0354407
-0.0382191
-0.0409735
-0.0437058
-0.0464178
-0.0491116
-0.051789
-0.0544518
-0.0571016
-0.0597401
-0.0623688
-0.0649889
-0.0676018
-0.0702085
-0.0728101
-0.0754073
-0.0780009
-0.0805915
-0.0831798
-0.0857662
-0.0883511
-0.0909348
-0.0935176
-0.0960998
-0.0986814
-0.101263
-0.103844
-0.106424
-0.109005
0.21811
0.21315
0.208199
0.203276
0.198403
0.193597
0.188866
0.184205
0.179611
0.175087
0.170618
0.166209
0.161857
0.157568
0.153345
0.149196
0.145129
0.141168
0.137345
0.133683
0.130199
0.1269
0.123793
0.120877
0.118149
0.115607
0.113243
0.111043
0.108982
0.107013
0.105116
0.103287
0.101456
0.0995997
0.0977252
0.095855
0.0939551
0.0919955
0.089973
0.0878602
0.0857037
0.0835356
0.0813883
0.0792881
0.0772576
0.0753107
0.073453
0.0716799
0.0699748
0.0683287
0.0667305
0.0651726
0.0636485
0.0621538
0.0606746
0.0591971
0.0577016
0.0561765
0.0546118
0.0529929
0.0513116
0.0495625
0.0477402
0.0458395
0.0438448
0.0417303
0.0394625
0.0370209
0.0343936
0.0315929
0.0286513
0.0256043
0.0224771
0.0193013
0.0161099
0.0129318
0.0097737
0.00664086
0.00355013
0.000520011
-0.00238302
-0.00385057
-0.00852878
-0.0117897
-0.0149243
-0.0179857
-0.0209933
-0.0239561
-0.026879
-0.0297656
-0.0326183
-0.0354396
-0.0382317
-0.040997
-0.0437376
-0.046456
-0.0491542
-0.0518344
-0.0544988
-0.0571491
-0.0597873
-0.0624149
-0.0650335
-0.0676445
-0.0702489
-0.072848
-0.0754426
-0.0780335
-0.0806215
-0.083207
-0.0857907
-0.0883729
-0.0909539
-0.0935341
-0.0961136
-0.0986926
-0.101271
-0.10385
-0.106428
-0.109006
0.218035
0.212928
0.207839
0.202795
0.197816
0.192921
0.188123
0.183423
0.178811
0.174294
0.169851
0.165487
0.161196
0.156992
0.152881
0.148858
0.144931
0.141115
0.137434
0.133909
0.130559
0.127396
0.124423
0.121641
0.119047
0.116639
0.114408
0.112343
0.110417
0.108589
0.106827
0.105125
0.103413
0.10165
0.0998797
0.098085
0.0962569
0.0943695
0.0923899
0.0902881
0.0881229
0.0859386
0.083768
0.0816462
0.0796016
0.0776518
0.075802
0.0740458
0.0723638
0.0707416
0.0691662
0.0676304
0.06613
0.0646575
0.0631954
0.0617272
0.0602333
0.058704
0.0571241
0.0554794
0.0537638
0.0519725
0.0501014
0.0481408
0.0460645
0.0438518
0.0414718
0.0389026
0.0361346
0.0331851
0.0300926
0.0268957
0.0236211
0.0203056
0.0169872
0.0136881
0.0104144
0.00717748
0.00399374
0.000876217
-0.0021702
-0.00517587
-0.00841637
-0.011625
-0.0147723
-0.0178617
-0.0208995
-0.0238909
-0.0268395
-0.0297482
-0.0326196
-0.0354562
-0.0382606
-0.0410354
-0.0437831
-0.0465063
-0.0492077
-0.0518896
-0.0545544
-0.0572042
-0.0598411
-0.0624669
-0.0650832
-0.0676915
-0.0702932
-0.0728893
-0.0754808
-0.0780687
-0.0806535
-0.083236
-0.0858167
-0.0883959
-0.0909741
-0.0935514
-0.0961281
-0.0987044
-0.10128
-0.103856
-0.106432
-0.109008
0.217969
0.212729
0.207513
0.20235
0.197268
0.192289
0.187429
0.182697
0.178076
0.173571
0.169167
0.164863
0.160649
0.15653
0.152518
0.148613
0.144819
0.141146
0.137609
0.134228
0.131018
0.127989
0.125145
0.122491
0.12003
0.117754
0.11566
0.113733
0.111938
0.110241
0.108608
0.107016
0.105422
0.103755
0.102081
0.100359
0.0986055
0.0967844
0.0948318
0.0927338
0.0905489
0.0883523
0.0861593
0.0840209
0.0819698
0.0800256
0.0781941
0.0764636
0.0748097
0.0732169
0.0716732
0.0701713
0.0687043
0.0672573
0.0658126
0.0643534
0.0628637
0.0613301
0.0597312
0.0580557
0.0563022
0.0544662
0.052541
0.0505099
0.0483475
0.0460284
0.0435178
0.040803
0.0378835
0.0347832
0.0315388
0.0281866
0.024762
0.0213081
0.017859
0.0144327
0.0110419
0.00770368
0.00442634
0.00120274
-0.00197712
-0.00513005
-0.00831866
-0.0115065
-0.014662
-0.0177732
-0.0208371
-0.0238544
-0.0268266
-0.0297557
-0.032644
-0.0354941
-0.0383089
-0.0410913
-0.0438442
-0.0465706
-0.0492735
-0.0519555
-0.0546194
-0.0572674
-0.0599019
-0.0625249
-0.065138
-0.067743
-0.0703412
-0.0729337
-0.0755217
-0.0781061
-0.0806875
-0.0832667
-0.0858441
-0.0884201
-0.0909952
-0.0935695
-0.0961433
-0.0987168
-0.10129
-0.103863
-0.106436
-0.109009
0.2179
0.212529
0.207195
0.201926
0.196753
0.191702
0.18679
0.182036
0.177419
0.172932
0.168568
0.164323
0.160193
0.15617
0.152259
0.148466
0.144801
0.141266
0.137873
0.134634
0.131562
0.128666
0.125951
0.123423
0.12109
0.118945
0.116986
0.115188
0.113516
0.11194
0.110428
0.108934
0.107444
0.105881
0.104293
0.10264
0.100951
0.0991703
0.0972337
0.0951414
0.0929458
0.0907395
0.0885298
0.0863873
0.084345
0.0824234
0.0806238
0.0789265
0.0773083
0.075758
0.0742582
0.0728004
0.0713715
0.0699539
0.068531
0.0670847
0.0655955
0.0640481
0.0624233
0.0607157
0.0589231
0.0570385
0.0550553
0.0529495
0.0506871
0.0482352
0.045578
0.0427098
0.0396309
0.0363665
0.0329584
0.0294513
0.025884
0.0222963
0.0187192
0.0151706
0.0116667
0.00822134
0.00483637
0.00150862
-0.00176596
-0.00499523
-0.00820321
-0.0114043
-0.0145797
-0.017716
-0.0208067
-0.0238495
-0.0268442
-0.029792
-0.0326953
-0.0355568
-0.0383797
-0.0411673
-0.0439231
-0.0466505
-0.0493528
-0.0520331
-0.0546944
-0.0573392
-0.05997
-0.062589
-0.065198
-0.0677988
-0.0703928
-0.0729812
-0.0755652
-0.0781457
-0.0807233
-0.0832988
-0.0858727
-0.0884453
-0.0910171
-0.0935883
-0.096159
-0.0987295
-0.1013
-0.10387
-0.10644
-0.10901
0.217836
0.212343
0.206902
0.201545
0.196298
0.191189
0.186236
0.181458
0.176847
0.17239
0.168074
0.163891
0.159838
0.155909
0.152106
0.148431
0.144887
0.141481
0.138221
0.135117
0.132177
0.129408
0.126816
0.124411
0.122204
0.120187
0.118353
0.116672
0.115112
0.113643
0.112237
0.110838
0.109445
0.107984
0.106466
0.104872
0.103234
0.101478
0.0995538
0.0974598
0.0952742
0.0930613
0.0908634
0.0887398
0.0867277
0.0848416
0.0830771
0.081427
0.0798597
0.0783688
0.0769284
0.075523
0.0741361
0.0727529
0.0713543
0.0699215
0.0684303
0.0668712
0.0652191
0.0634747
0.0616373
0.0597027
0.0576606
0.0554654
0.0530771
0.050479
0.0476642
0.0446268
0.0413766
0.0379408
0.0343664
0.0307027
0.0269935
0.0232761
0.0195774
0.0159145
0.0123026
0.00875327
0.00526527
0.00183789
-0.00152418
-0.00482107
-0.00807321
-0.0113096
-0.0145187
-0.017688
-0.0208095
-0.0238792
-0.0268963
-0.0298616
-0.0327778
-0.035648
-0.038476
-0.0412659
-0.0440218
-0.0467475
-0.0494468
-0.0521232
-0.0547799
-0.0574198
-0.0600454
-0.0626592
-0.065263
-0.0678587
-0.0704478
-0.0730315
-0.075611
-0.078187
-0.0807606
-0.0833321
-0.0859022
-0.0884713
-0.0910397
-0.0936075
-0.0961751
-0.0987425
-0.10131
-0.103877
-0.106445
-0.109012
0.21779
0.212205
0.206677
0.201242
0.195927
0.190767
0.185785
0.18099
0.176387
0.171958
0.16769
0.163573
0.159601
0.155768
0.152069
0.148503
0.145073
0.141786
0.138647
0.135665
0.132846
0.130196
0.127722
0.125436
0.123347
0.121447
0.119723
0.118146
0.116685
0.115314
0.114
0.112694
0.11139
0.110017
0.108567
0.107027
0.105434
0.1037
0.101784
0.0996904
0.0975258
0.095322
0.0931595
0.0910698
0.0891017
0.0872664
0.0855603
0.0839789
0.0824809
0.0810662
0.0796948
0.0783448
0.0770044
0.0756596
0.0742879
0.072867
0.0713709
0.0697909
0.068104
0.0663202
0.0644402
0.0624541
0.0603401
0.0580377
0.0555144
0.0527617
0.0497713
0.0465473
0.0431109
0.0395003
0.0357629
0.0319448
0.028096
0.024257
0.0204483
0.0166782
0.0129587
0.00930096
0.00570885
0.00218545
-0.00126117
-0.0046253
-0.00793305
-0.0112208
-0.0144775
-0.0176896
-0.020848
-0.0239478
-0.0269878
-0.0299693
-0.0328958
-0.0357715
-0.0386012
-0.0413898
-0.0441422
-0.046863
-0.0495563
-0.0522262
-0.0548761
-0.0575092
-0.0601281
-0.0627353
-0.0653328
-0.0679225
-0.0705059
-0.0730842
-0.0756586
-0.07823
-0.080799
-0.0833664
-0.0859325
-0.0884978
-0.0910626
-0.0936271
-0.0961914
-0.0987557
-0.10132
-0.103884
-0.106449
-0.109013
0.217754
0.212097
0.206496
0.201
0.195645
0.190455
0.185454
0.180653
0.176058
0.17166
0.167439
0.163386
0.159493
0.155746
0.15214
0.148675
0.145351
0.142171
0.13914
0.136264
0.133549
0.131005
0.128641
0.126462
0.124477
0.122679
0.121051
0.119566
0.118194
0.116911
0.115678
0.114464
0.113245
0.111957
0.110575
0.109095
0.107554
0.105843
0.103932
0.101856
0.0997177
0.0975539
0.0954437
0.0934108
0.0915069
0.0897414
0.0881111
0.0866064
0.0851963
0.08386
0.082558
0.0812677
0.0799798
0.0786753
0.0773316
0.0759203
0.0744215
0.0728224
0.0711068
0.0692848
0.0673515
0.0652906
0.0630769
0.0606417
0.0579586
0.0550296
0.0518541
0.0484398
0.044811
0.0410131
0.0371049
0.0331494
0.029191
0.0252524
0.021346
0.0174735
0.0136487
0.00988388
0.00618605
0.00256319
-0.000969716
-0.00440459
-0.00778039
-0.0111366
-0.0144568
-0.0177242
-0.0209275
-0.0240613
-0.0271248
-0.0301209
-0.0330545
-0.0359315
-0.0387584
-0.0415412
-0.044286
-0.046998
-0.0496821
-0.0523426
-0.0549832
-0.0576072
-0.0602176
-0.0628168
-0.0654069
-0.0679896
-0.0705665
-0.0731389
-0.0757077
-0.078274
-0.0808382
-0.0834012
-0.0859632
-0.0885246
-0.0910858
-0.0936468
-0.0962078
-0.098769
-0.10133
-0.103892
-0.106453
-0.109015
0.217725
0.212014
0.206365
0.200826
0.195443
0.190242
0.18524
0.180448
0.175871
0.171502
0.167326
0.16333
0.159502
0.155829
0.152306
0.14893
0.145697
0.142611
0.139673
0.136888
0.134263
0.131806
0.129529
0.127445
0.125554
0.123847
0.122301
0.120896
0.119606
0.118407
0.11726
0.116143
0.115019
0.113815
0.112507
0.111096
0.109616
0.107937
0.106043
0.10401
0.10193
0.0998431
0.0978013
0.0958372
0.0940041
0.0923141
0.090765
0.0893411
0.0880165
0.0867549
0.0855226
0.0842953
0.083064
0.0818021
0.0804877
0.0790885
0.0775878
0.075966
0.0742105
0.0723331
0.0703212
0.0681622
0.0658208
0.0632318
0.0603807
0.0572766
0.0539259
0.0503359
0.0465416
0.0425905
0.0385355
0.0344384
0.0303549
0.0263113
0.0223098
0.0183381
0.0144109
0.0105395
0.00673456
0.00301194
-0.000613595
-0.00413579
-0.00760521
-0.0110544
-0.0144595
-0.0177981
-0.0210562
-0.0242283
-0.0273156
-0.0303234
-0.0332595
-0.0361324
-0.0389508
-0.0417225
-0.0444545
-0.0471533
-0.0498242
-0.052472
-0.0551005
-0.0577134
-0.0603134
-0.0629031
-0.0654845
-0.0680593
-0.0706291
-0.0731949
-0.0757578
-0.0783186
-0.0808779
-0.0834362
-0.0859939
-0.0885514
-0.0911088
-0.0936664
-0.0962241
-0.0987821
-0.10134
-0.103899
-0.106457
-0.109016
0.217701
0.211948
0.206273
0.200716
0.19532
0.190118
0.185126
0.180356
0.175807
0.171472
0.167337
0.163388
0.159614
0.156003
0.152547
0.149241
0.146081
0.143069
0.140206
0.137496
0.134948
0.132568
0.130367
0.128355
0.126534
0.124897
0.123423
0.122096
0.120892
0.119779
0.11873
0.117721
0.116704
0.115599
0.114382
0.113059
0.111657
0.110033
0.108188
0.106231
0.104227
0.102213
0.100252
0.0983811
0.0966322
0.0950253
0.0935615
0.0922165
0.0909663
0.0897714
0.0885978
0.0874298
0.0862583
0.0850464
0.0837697
0.0823897
0.0808892
0.0792351
0.07741
0.0754323
0.0732853
0.0709709
0.0684536
0.0656927
0.0626746
0.0594063
0.055901
0.0521564
0.048216
0.044137
0.0399739
0.0357811
0.0316096
0.0274799
0.0233909
0.0193323
0.0153193
0.0113497
0.00742869
0.00358966
-0.000145057
-0.00378541
-0.00739394
-0.0109733
-0.0144927
-0.0179229
-0.0212471
-0.0244614
-0.0275707
-0.0305852
-0.0335171
-0.0363787
-0.0391813
-0.0419351
-0.0446485
-0.0473289
-0.0499823
-0.0526138
-0.0552274
-0.0578267
-0.0604145
-0.0629932
-0.0655648
-0.0681309
-0.0706928
-0.0732516
-0.0758082
-0.0783632
-0.0809173
-0.0834709
-0.0860243
-0.0885778
-0.0911315
-0.0936856
-0.09624
-0.0987949
-0.10135
-0.103906
-0.106462
-0.109017
0.217683
0.211901
0.206209
0.200652
0.195264
0.190077
0.185109
0.180368
0.175853
0.171554
0.167457
0.163549
0.159817
0.156249
0.152837
0.149576
0.146463
0.143499
0.140687
0.138032
0.135539
0.133219
0.13108
0.129128
0.127364
0.125782
0.124373
0.123124
0.122011
0.121005
0.120083
0.119211
0.118321
0.117331
0.116221
0.115011
0.113728
0.112202
0.110444
0.108585
0.106685
0.104772
0.102917
0.101147
0.0994719
0.0979349
0.0965469
0.0952734
0.0940806
0.0929206
0.091787
0.0906694
0.0895637
0.0884192
0.0872014
0.0858559
0.0843537
0.0826376
0.0806882
0.0785373
0.0761792
0.073641
0.0709083
0.0679537
0.064759
0.0613277
0.0576872
0.0538276
0.049809
0.045679
0.0414684
0.0372262
0.0330066
0.0288261
0.0246847
0.020583
0.0165171
0.0124721
0.00842551
0.00443246
0.000525935
-0.00331637
-0.0071371
-0.0108997
-0.0145725
-0.018119
-0.0215205
-0.0247779
-0.0279039
-0.0309165
-0.0338342
-0.0366745
-0.0394523
-0.04218
-0.0448679
-0.0475241
-0.0501553
-0.0527666
-0.0553623
-0.0579457
-0.0605195
-0.0630859
-0.0656467
-0.0682033
-0.0707568
-0.0733082
-0.0758581
-0.0784073
-0.0809561
-0.0835049
-0.086054
-0.0886035
-0.0911535
-0.0937042
-0.0962555
-0.0988073
-0.10136
-0.103912
-0.106466
-0.109019
0.217678
0.211886
0.206187
0.200634
0.195265
0.190109
0.185179
0.180477
0.176001
0.171738
0.167676
0.163798
0.160091
0.156542
0.153145
0.149897
0.146798
0.143849
0.141054
0.138423
0.135963
0.133681
0.131584
0.129677
0.127961
0.126435
0.125095
0.12393
0.122924
0.122049
0.121286
0.120584
0.119849
0.119005
0.118035
0.116983
0.115874
0.114502
0.112881
0.111164
0.109399
0.107613
0.105889
0.104237
0.102604
0.101082
0.0997604
0.0985717
0.0974132
0.096227
0.0950942
0.0940001
0.0929628
0.091914
0.0907831
0.0894929
0.0879784
0.0861613
0.0840327
0.0816308
0.0789585
0.0760886
0.0730593
0.0698453
0.0664373
0.0628448
0.0591213
0.0552536
0.0513161
0.0472751
0.0431009
0.0388478
0.0346077
0.0304077
0.0262718
0.0222303
0.01819
0.0141446
0.00993898
0.00572161
0.00151189
-0.002685
-0.0068456
-0.0108643
-0.0147357
-0.018422
-0.021907
-0.0252018
-0.0283323
-0.0313283
-0.0342175
-0.0370233
-0.0397647
-0.0424569
-0.0451113
-0.047737
-0.0503409
-0.0529283
-0.0555031
-0.0580684
-0.0606266
-0.0631796
-0.0657287
-0.0682752
-0.0708199
-0.0733637
-0.0759069
-0.0784501
-0.0809936
-0.0835377
-0.0860825
-0.0886281
-0.0911746
-0.093722
-0.0962701
-0.0988191
-0.101369
-0.103919
-0.106469
-0.10902
0.217667
0.211858
0.20616
0.200633
0.195309
0.190204
0.185327
0.180678
0.176248
0.172021
0.167983
0.164119
0.160413
0.156852
0.153433
0.150158
0.147028
0.144053
0.141241
0.138601
0.136147
0.133884
0.131816
0.129944
0.128271
0.126799
0.125531
0.124466
0.123596
0.122898
0.122347
0.121861
0.121308
0.120625
0.119835
0.118996
0.118119
0.116972
0.11556
0.114032
0.112442
0.110816
0.109295
0.107814
0.1061
0.104421
0.103213
0.102243
0.101089
0.0997442
0.0985052
0.0973413
0.0963325
0.0953972
0.0943877
0.0931816
0.0916794
0.0897866
0.0875191
0.0848638
0.081755
0.0783829