/*--------------------------------*- C++ -*----------------------------------*\
  =========                 |
  \\      /  F ield         | OpenFOAM: The Open Source CFD Toolbox
   \\    /   O peration     | Website:  https://openfoam.org
    \\  /    A nd           | Version:  6
     \\/     M anipulation  |
\*---------------------------------------------------------------------------*/
FoamFile
{
    version     2.0;
    format      ascii;
    class       volVectorField;
    location    "4200";
    object      U;
}
// * * * * * * * * * * * * * * * * * * * * * * * * * * * * * * * * * * * * * //

dimensions      [0 1 -1 0 0 0 0];

internalField   nonuniform List<vector> 
4800
(
(2.20185e-06 0 -5.97807e-05)
(9.68558e-05 0 -3.6943e-05)
(0.000146873 0 -1.87178e-05)
(0.000179832 0 -1.95188e-05)
(0.000195835 0 -1.44708e-05)
(0.000198088 0 -2.77336e-05)
(0.000197575 0 -1.46318e-05)
(0.000198091 0 -1.94889e-05)
(0.00021059 0 -1.65462e-05)
(0.000204515 0 -1.73154e-05)
(0.000181595 0 -1.09032e-05)
(0.000166282 0 -1.493e-06)
(0.000151601 0 -1.15516e-05)
(0.000112353 0 -2.25869e-05)
(5.61247e-05 0 -1.39291e-05)
(1.70283e-05 0 1.33749e-05)
(-2.5363e-05 0 5.86124e-06)
(-6.76041e-05 0 -2.94868e-05)
(-8.09795e-05 0 -2.4135e-05)
(-0.000107919 0 2.24944e-05)
(-0.000147925 0 -5.03864e-06)
(-0.000170268 0 -4.82885e-05)
(-0.00019071 0 -0.000117532)
(-0.000210099 0 -9.74276e-05)
(-0.000227498 0 -5.43697e-05)
(-0.000303073 0 -6.26271e-05)
(-0.000408166 0 -5.91982e-05)
(-0.000450995 0 -2.86001e-05)
(-0.000481348 0 -1.69024e-06)
(-0.000513745 0 -2.47951e-05)
(-0.000545167 0 -6.03136e-05)
(-0.000584479 0 -2.90472e-05)
(-0.000636399 0 -5.12339e-06)
(-0.000683876 0 -9.27669e-06)
(-0.000716113 0 2.15002e-05)
(-0.000737487 0 2.08474e-05)
(-0.000756311 0 -8.84676e-06)
(-0.000773528 0 -4.4807e-06)
(-0.000789237 0 -1.21605e-05)
(-0.000808154 0 -2.71445e-06)
(-0.0008342 0 -2.32713e-07)
(-0.00086297 0 5.68207e-06)
(-0.000886935 0 2.26284e-05)
(-0.000907142 0 2.96487e-05)
(-0.000929722 0 3.75798e-06)
(-0.000952426 0 1.79492e-05)
(-0.000974383 0 4.35657e-05)
(-0.00100284 0 2.60616e-05)
(-0.00103864 0 3.74711e-05)
(-0.00107286 0 2.74127e-05)
(-0.00109909 0 1.86011e-05)
(-0.00111899 0 1.30407e-05)
(-0.00113477 0 -2.06323e-06)
(-0.00114392 0 -5.01049e-06)
(-0.00114486 0 -2.04505e-05)
(-0.00110921 0 -8.03821e-05)
(-0.00106916 0 -7.61833e-05)
(-0.00102591 0 -8.67439e-05)
(-0.000965825 0 -0.000138049)
(-0.000922004 0 -0.000133353)
(-0.000896861 0 -3.28266e-05)
(-0.000844537 0 -3.3484e-05)
(-0.000796996 0 -8.30613e-05)
(-0.000777684 0 -9.08361e-05)
(-0.000761303 0 -0.000128782)
(-0.000694082 0 -0.00014958)
(-0.000551125 0 -0.000102348)
(-0.000361291 0 -0.000150158)
(-0.00020812 0 -0.000150772)
(-0.000125911 0 -0.00014434)
(-0.000135057 0 2.03016e-05)
(-5.51212e-05 0 -7.60294e-05)
(9.97128e-06 0 -4.66985e-05)
(3.8602e-05 0 -0.0001187)
(0.000139401 0 -2.62778e-05)
(0.000132217 0 -6.55808e-06)
(7.74297e-05 0 -1.64242e-05)
(0.000158643 0 2.64572e-06)
(-0.00018209 0 0.000104146)
(-0.000467821 0 5.62044e-05)
(1.6665e-06 0 -7.22103e-05)
(-1.43209e-13 0 -3.49689e-13)
(-1.53043e-12 0 -4.13787e-14)
(-7.56035e-13 0 -1.49836e-15)
(-7.51196e-13 0 -3.74392e-15)
(-7.36253e-13 0 -1.16172e-14)
(-7.0609e-13 0 -1.89541e-14)
(-6.62336e-13 0 -2.51939e-14)
(-6.06961e-13 0 -3.05578e-14)
(-5.41545e-13 0 -3.52169e-14)
(-4.67449e-13 0 -3.92185e-14)
(-3.86019e-13 0 -4.25304e-14)
(-2.98701e-13 0 -4.50849e-14)
(-2.07082e-13 0 -4.68089e-14)
(-1.12883e-13 0 -4.76435e-14)
(-1.79171e-14 0 -4.75548e-14)
(7.59638e-14 0 -4.65393e-14)
(1.66933e-13 0 -4.4626e-14)
(2.53253e-13 0 -4.18743e-14)
(3.3333e-13 0 -3.83699e-14)
(4.0576e-13 0 -3.42192e-14)
(4.6937e-13 0 -2.95429e-14)
(5.23232e-13 0 -2.44689e-14)
(5.66679e-13 0 -1.91264e-14)
(5.99296e-13 0 -1.36405e-14)
(6.2091e-13 0 -8.12757e-15)
(6.3157e-13 0 -2.69204e-15)
(6.31521e-13 0 2.57509e-15)
(6.21175e-13 0 7.59743e-15)
(6.01083e-13 0 1.23131e-14)
(5.71907e-13 0 1.66737e-14)
(5.34391e-13 0 2.06433e-14)
(4.89344e-13 0 2.41965e-14)
(4.37616e-13 0 2.73166e-14)
(3.80084e-13 0 2.99938e-14)
(3.17638e-13 0 3.22233e-14)
(2.51177e-13 0 3.40032e-14)
(1.81602e-13 0 3.53332e-14)
(1.09816e-13 0 3.62101e-14)
(3.67418e-14 0 3.6619e-14)
(-6.70287e-06 0 -0.000123699)
(7.64326e-05 0 -9.0352e-05)
(0.000116014 0 -5.67561e-05)
(0.000141489 0 -3.22634e-05)
(0.000157219 0 -1.55003e-05)
(0.000166167 0 -1.71922e-05)
(0.000172849 0 1.69799e-05)
(0.000180564 0 -3.94681e-05)
(0.000202059 0 2.93545e-05)
(0.000196556 0 3.86799e-05)
(0.000184547 0 1.64238e-05)
(0.000168381 0 3.98378e-05)
(0.000149446 0 6.56487e-05)
(0.000129821 0 7.17974e-05)
(7.20405e-05 0 9.82722e-05)
(3.1959e-05 0 8.29124e-05)
(-2.89702e-05 0 7.23928e-05)
(-5.70705e-05 0 6.26595e-05)
(-0.000112801 0 4.67685e-05)
(-0.000163853 0 3.22544e-05)
(-0.000177177 0 5.15584e-05)
(-0.00016579 0 0.000118579)
(-0.00017686 0 0.00018012)
(-0.000361402 0 9.56416e-05)
(-0.000402776 0 0.000105366)
(-0.000400882 0 0.000170092)
(-0.000442723 0 0.000129483)
(-0.000474336 0 5.53138e-05)
(-0.000487758 0 2.9789e-05)
(-0.000515564 0 7.95355e-05)
(-0.000547572 0 0.000108903)
(-0.000583807 0 9.06588e-05)
(-0.000633173 0 7.39073e-05)
(-0.000674191 0 6.23901e-05)
(-0.000699602 0 1.7708e-05)
(-0.000720593 0 1.82805e-05)
(-0.000745186 0 3.27543e-05)
(-0.000758688 0 2.96701e-05)
(-0.00076324 0 3.70035e-05)
(-0.000772824 0 4.95995e-05)
(-0.000798848 0 5.01631e-05)
(-0.000831551 0 4.90555e-05)
(-0.000869006 0 3.12048e-05)
(-0.000904942 0 5.0558e-06)
(-0.000934223 0 2.78484e-05)
(-0.000960539 0 2.82769e-05)
(-0.000987998 0 1.35929e-05)
(-0.00101426 0 3.26205e-05)
(-0.00104055 0 4.09361e-05)
(-0.00106391 0 3.52941e-05)
(-0.00107967 0 3.38409e-05)
(-0.00109268 0 2.53944e-05)
(-0.00110812 0 1.78174e-05)
(-0.00112309 0 1.79249e-06)
(-0.00113009 0 -5.5144e-06)
(-0.00112785 0 -2.24872e-05)
(-0.00110979 0 -3.54625e-05)
(-0.00109875 0 -1.84864e-05)
(-0.00107697 0 -0.000101745)
(-0.00103185 0 -8.90553e-05)
(-0.000978267 0 -2.52786e-05)
(-0.000924177 0 -3.73918e-05)
(-0.000866478 0 -7.4521e-06)
(-0.000794041 0 1.1191e-05)
(-0.000721444 0 -1.02017e-05)
(-0.000655915 0 -4.26955e-05)
(-0.000568039 0 -0.000139812)
(-0.000352639 0 -0.00037038)
(-0.000364181 0 -4.8377e-05)
(-0.000235041 0 -0.000100163)
(-0.000185152 0 -1.62766e-05)
(-5.96774e-05 0 -0.000149056)
(-2.3731e-05 0 -0.000122409)
(2.82841e-05 0 -0.000123464)
(4.00602e-05 0 -9.97431e-05)
(7.86251e-05 0 4.63996e-05)
(4.58139e-05 0 0.000130485)
(-0.000193243 0 0.000156221)
(-0.000458703 0 2.50791e-05)
(-0.000535367 0 -4.51376e-05)
(2.99514e-06 0 -0.00039025)
(-5.00926e-13 0 1.41434e-13)
(-1.22244e-12 0 1.07851e-13)
(-7.184e-13 0 3.74582e-14)
(-7.61315e-13 0 -5.76503e-15)
(-7.51464e-13 0 -3.55406e-14)
(-7.19667e-13 0 -5.81042e-14)
(-6.7394e-13 0 -7.65943e-14)
(-6.16984e-13 0 -9.25069e-14)
(-5.50206e-13 0 -1.06428e-13)
(-4.74763e-13 0 -1.18457e-13)
(-3.91885e-13 0 -1.28452e-13)
(-3.02979e-13 0 -1.3618e-13)
(-2.09641e-13 0 -1.41403e-13)
(-1.13629e-13 0 -1.43934e-13)
(-1.68129e-14 0 -1.43664e-13)
(7.88925e-14 0 -1.40584e-13)
(1.71598e-13 0 -1.3478e-13)
(2.59509e-13 0 -1.26436e-13)
(3.40985e-13 0 -1.15815e-13)
(4.14587e-13 0 -1.03242e-13)
(4.7912e-13 0 -8.90855e-14)
(5.33649e-13 0 -7.37357e-14)
(5.77508e-13 0 -5.75855e-14)
(6.10295e-13 0 -4.10141e-14)
(6.31859e-13 0 -2.43735e-14)
(6.42273e-13 0 -7.97925e-15)
(6.41811e-13 0 7.89515e-15)
(6.30913e-13 0 2.30207e-14)
(6.1016e-13 0 3.72126e-14)
(5.80237e-13 0 5.03274e-14)
(5.41914e-13 0 6.22588e-14)
(4.96018e-13 0 7.29324e-14)
(4.43414e-13 0 8.23003e-14)
(3.8499e-13 0 9.03349e-14)
(3.21647e-13 0 9.70236e-14)
(2.54287e-13 0 1.02363e-13)
(1.83808e-13 0 1.06356e-13)
(1.11102e-13 0 1.09001e-13)
(3.71508e-14 0 1.10293e-13)
(-2.54894e-05 0 -0.000149019)
(3.88003e-05 0 -0.000141692)
(9.23906e-05 0 -6.34607e-05)
(0.000106752 0 -4.35713e-05)
(0.000124635 0 -3.04061e-05)
(0.000147027 0 -4.35885e-06)
(0.000169529 0 -4.05879e-06)
(0.000184311 0 -7.18665e-05)
(0.000196073 0 2.62336e-05)
(0.000193054 0 2.16235e-05)
(0.000201055 0 3.34111e-05)
(0.000193065 0 4.29186e-05)
(0.000164665 0 6.21741e-05)
(0.000117467 0 0.000114563)
(9.41029e-05 0 0.000119124)
(4.6697e-05 0 0.00012084)
(-1.54953e-05 0 0.000115064)
(-6.30234e-05 0 0.000114626)
(-0.000103042 0 0.000116692)
(-0.000158694 0 9.57164e-05)
(-0.000244943 0 -1.42014e-06)
(-0.000302066 0 -1.73436e-05)
(-0.000320015 0 0.00012619)
(-0.000381856 0 0.000192474)
(-0.000467252 0 0.000100738)
(-0.000486263 0 7.07281e-05)
(-0.000485658 0 8.03513e-05)
(-0.000487355 0 8.66478e-05)
(-0.000518246 0 5.97023e-05)
(-0.00054441 0 5.16108e-05)
(-0.000557275 0 7.91858e-05)
(-0.000573756 0 9.75506e-05)
(-0.000606196 0 0.000102424)
(-0.000646338 0 0.000105849)
(-0.000676146 0 7.71593e-05)
(-0.000693734 0 4.41903e-05)
(-0.000705496 0 4.12277e-05)
(-0.000720864 0 3.97226e-05)
(-0.000739807 0 8.26572e-06)
(-0.000760777 0 6.49306e-06)
(-0.000786266 0 4.66085e-05)
(-0.000820074 0 4.25991e-05)
(-0.000858939 0 7.36738e-05)
(-0.000896539 0 7.39637e-05)
(-0.0009335 0 8.78129e-05)
(-0.000976417 0 5.39344e-05)
(-0.00101007 0 9.51544e-05)
(-0.00104162 0 8.45172e-05)
(-0.00106584 0 6.95524e-05)
(-0.00107963 0 6.6182e-05)
(-0.00108442 0 4.99839e-05)
(-0.00108515 0 3.78952e-05)
(-0.00109093 0 3.28419e-05)
(-0.00110135 0 2.54458e-05)
(-0.00110339 0 1.64507e-05)
(-0.00109456 0 -6.3315e-05)
(-0.00108061 0 -3.53978e-05)
(-0.00106285 0 -0.00010317)
(-0.00105633 0 -0.000105261)
(-0.00105588 0 -0.000104107)
(-0.00103926 0 -8.31679e-05)
(-0.000976775 0 -8.47828e-05)
(-0.000889768 0 -0.000170524)
(-0.000803126 0 -0.000150416)
(-0.000721494 0 -0.000211235)
(-0.000684926 0 -0.00020521)
(-0.000640972 0 -0.000248259)
(-0.000312604 0 -0.000569071)
(-0.000496934 0 -6.39061e-05)
(-0.000275639 0 -0.000205171)
(-0.000170077 0 -0.000198042)
(-0.000116959 0 -0.000149566)
(-3.6799e-05 0 -0.0001525)
(-5.52572e-06 0 -0.000137154)
(-7.7485e-05 0 -7.66047e-05)
(3.82034e-05 0 3.45167e-05)
(8.34602e-05 0 0.000126315)
(3.42227e-05 0 0.000236453)
(0.000349452 0 0.000187971)
(-0.000399596 0 0.000117645)
(3.21608e-06 0 -0.000468547)
(-6.81644e-13 0 3.73298e-13)
(-1.75394e-12 0 1.87334e-13)
(-8.69651e-13 0 4.91041e-14)
(-8.24195e-13 0 -2.13613e-14)
(-7.88593e-13 0 -6.67956e-14)
(-7.47144e-13 0 -1.01441e-13)
(-6.96738e-13 0 -1.30678e-13)
(-6.36795e-13 0 -1.56548e-13)
(-5.67495e-13 0 -1.79626e-13)
(-4.89473e-13 0 -1.99817e-13)
(-4.03742e-13 0 -2.16722e-13)
(-3.11652e-13 0 -2.29855e-13)
(-2.14836e-13 0 -2.3876e-13)
(-1.15144e-13 0 -2.43088e-13)
(-1.45671e-14 0 -2.42644e-13)
(8.48478e-14 0 -2.37404e-13)
(1.81081e-13 0 -2.27524e-13)
(2.72219e-13 0 -2.13322e-13)
(3.56524e-13 0 -1.95256e-13)
(4.3249e-13 0 -1.73892e-13)
(4.98876e-13 0 -1.49864e-13)
(5.54732e-13 0 -1.23846e-13)
(5.99401e-13 0 -9.65106e-14)
(6.32508e-13 0 -6.85034e-14)
(6.53945e-13 0 -4.04215e-14)
(6.63839e-13 0 -1.27973e-14)
(6.62521e-13 0 1.3911e-14)
(6.50493e-13 0 3.93224e-14)
(6.2839e-13 0 6.31318e-14)
(5.96953e-13 0 8.51049e-14)
(5.56996e-13 0 1.0507e-13)
(5.09386e-13 0 1.22911e-13)
(4.55019e-13 0 1.38553e-13)
(3.94807e-13 0 1.51956e-13)
(3.29666e-13 0 1.63106e-13)
(2.60509e-13 0 1.72003e-13)
(1.8824e-13 0 1.78657e-13)
(1.13753e-13 0 1.8308e-13)
(3.80332e-14 0 1.85288e-13)
(-3.44837e-05 0 -0.000155468)
(1.27678e-05 0 -0.000168291)
(6.72523e-05 0 -8.8192e-05)
(9.27968e-05 0 -6.44998e-05)
(0.000115441 0 -6.47394e-05)
(0.000156156 0 -4.76158e-05)
(0.000173106 0 -0.000111464)
(0.000219046 0 -1.67525e-05)
(0.00020992 0 -2.8068e-06)
(0.000199038 0 3.73297e-06)
(0.000205842 0 1.412e-05)
(0.000188689 0 8.50567e-05)
(0.000172263 0 9.05652e-05)
(0.000114863 0 0.000150236)
(7.36128e-05 0 0.000174071)
(5.73327e-05 0 0.000164087)
(-1.32695e-05 0 0.00016278)
(-0.000114503 0 0.00015831)
(-0.000216909 0 0.000109874)
(-0.000221675 0 0.000119797)
(-0.000232902 0 0.000184815)
(-0.000326139 0 0.000230776)
(-0.000415207 0 0.000184153)
(-0.000456812 0 0.000161595)
(-0.000487313 0 0.000165849)
(-0.000494549 0 0.000173493)
(-0.000503614 0 0.000138547)
(-0.000546302 0 2.57e-05)
(-0.000561678 0 9.62399e-05)
(-0.000576267 0 0.000106279)
(-0.000581736 0 0.000103097)
(-0.000582918 0 0.000110907)
(-0.000583176 0 0.000131388)
(-0.000595043 0 0.000135229)
(-0.000635064 0 5.88481e-05)
(-0.000658337 0 6.76547e-05)
(-0.000682293 0 4.29094e-05)
(-0.000704603 0 5.73259e-05)
(-0.000725245 0 6.85624e-05)
(-0.000745184 0 9.12389e-05)
(-0.000770326 0 0.000125411)
(-0.00080762 0 9.91751e-05)
(-0.000839745 0 0.000131475)
(-0.000884935 0 9.25962e-05)
(-0.000926865 0 9.3361e-05)
(-0.000964399 0 0.000108384)
(-0.00099945 0 8.56076e-05)
(-0.00102814 0 9.97391e-05)
(-0.00105516 0 7.55775e-05)
(-0.00106753 0 6.5034e-05)
(-0.00106845 0 4.97452e-05)
(-0.00106883 0 3.6282e-05)
(-0.00108016 0 1.97947e-05)
(-0.00108139 0 1.23167e-05)
(-0.00106557 0 -4.6463e-05)
(-0.0010415 0 -0.000100513)
(-0.00102551 0 -8.78948e-05)
(-0.00101292 0 -9.31373e-05)
(-0.000993961 0 -0.000166112)
(-0.000981587 0 -0.000172049)
(-0.000980644 0 -0.000148553)
(-0.000985735 0 -0.000130583)
(-0.00092549 0 -0.000136687)
(-0.000820885 0 -0.000207627)
(-0.000749481 0 -0.000231335)
(-0.000705053 0 -0.000279385)
(-0.000572715 0 -0.000487051)
(-0.00050488 0 -0.000435048)
(-0.000482855 0 -0.000235855)
(-0.000258184 0 -0.000355915)
(-0.000305106 0 -0.000156542)
(-4.90218e-05 0 -0.000282483)
(-8.43318e-05 0 -0.000132785)
(-5.76582e-05 0 -0.000105858)
(-0.000127985 0 2.9192e-05)
(-5.28914e-05 0 0.000140618)
(5.82807e-05 0 0.000193747)
(2.11327e-05 0 0.000250792)
(0.00018055 0 0.000193248)
(-0.00047011 0 0.000149482)
(4.14963e-06 0 -0.000520557)
(-8.72027e-13 0 -2.28754e-13)
(-1.73723e-12 0 4.72257e-14)
(-9.27095e-13 0 -6.9974e-15)
(-8.77215e-13 0 -6.19692e-14)
(-8.31543e-13 0 -1.08819e-13)
(-7.8355e-13 0 -1.50163e-13)
(-7.29046e-13 0 -1.88111e-13)
(-6.65932e-13 0 -2.2336e-13)
(-5.93475e-13 0 -2.55698e-13)
(-5.11858e-13 0 -2.84449e-13)
(-4.21923e-13 0 -3.08755e-13)
(-3.25017e-13 0 -3.2775e-13)
(-2.22874e-13 0 -3.40687e-13)
(-1.17513e-13 0 -3.47009e-13)
(-1.11291e-14 0 -3.46412e-13)
(9.40118e-14 0 -3.38858e-13)
(1.9568e-13 0 -3.24582e-13)
(2.91777e-13 0 -3.04062e-13)
(3.80415e-13 0 -2.77984e-13)
(4.59979e-13 0 -2.47189e-13)
(5.29165e-13 0 -2.12618e-13)
(5.87003e-13 0 -1.75257e-13)
(6.32851e-13 0 -1.36088e-13)
(6.66384e-13 0 -9.60465e-14)
(6.87565e-13 0 -5.59898e-14)
(6.96606e-13 0 -1.66759e-14)
(6.93931e-13 0 2.12487e-14)
(6.80134e-13 0 5.72524e-14)
(6.55942e-13 0 9.0915e-14)
(6.22175e-13 0 1.21919e-13)
(5.7972e-13 0 1.50037e-13)
(5.295e-13 0 1.75119e-13)
(4.72459e-13 0 1.97075e-13)
(4.09544e-13 0 2.15864e-13)
(3.41695e-13 0 2.31476e-13)
(2.69838e-13 0 2.43922e-13)
(1.94885e-13 0 2.53225e-13)
(1.17733e-13 0 2.59409e-13)
(3.93588e-14 0 2.62497e-13)
(-3.3892e-05 0 -0.00015525)
(-3.31997e-07 0 -0.000180397)
(2.26312e-05 0 -0.000164)
(9.78838e-05 0 -0.000109623)
(0.000130358 0 -9.08024e-05)
(0.000164184 0 -8.85371e-05)
(0.000205626 0 -9.34714e-05)
(0.000234092 0 -1.8209e-05)
(0.000223109 0 -5.2739e-06)
(0.000208734 0 2.02972e-05)
(0.000194329 0 2.71923e-05)
(0.000170942 0 9.63456e-05)
(0.0001446 0 0.000129835)
(0.00011394 0 0.000166803)
(9.69641e-05 0 0.000193931)
(4.29839e-05 0 0.000219069)
(2.58718e-05 0 0.000245369)
(-3.15965e-05 0 0.000293687)
(-8.80862e-05 0 0.000309247)
(-0.000293871 0 0.000163343)
(-0.000461684 0 9.43182e-06)
(-0.000481036 0 0.000184415)
(-0.000485864 0 0.000246326)
(-0.000493541 0 0.000229393)
(-0.000512439 0 0.00018352)
(-0.000553247 0 9.40229e-05)
(-0.000561418 0 0.000109662)
(-0.000582929 0 0.000118928)
(-0.000601972 0 0.000109479)
(-0.000610291 0 9.91288e-05)
(-0.000605929 0 0.000104416)
(-0.000599061 0 0.000119191)
(-0.000596056 0 0.000136288)
(-0.000602882 0 0.000121489)
(-0.000609361 0 0.000113425)
(-0.000621488 0 9.38772e-05)
(-0.000657094 0 7.20866e-05)
(-0.000682023 0 9.54567e-05)
(-0.000701804 0 8.67154e-05)
(-0.000724218 0 9.39669e-05)
(-0.000757194 0 0.000113951)
(-0.000788356 0 0.000133053)
(-0.000819042 0 0.000149603)
(-0.00085945 0 0.000151846)
(-0.000897516 0 0.00015233)
(-0.000931813 0 0.000149853)
(-0.000962966 0 0.000147739)
(-0.000990567 0 0.000125828)
(-0.00101082 0 0.00010832)
(-0.0010192 0 9.98024e-05)
(-0.00101638 0 1.96964e-05)
(-0.00100539 0 2.86707e-05)
(-0.000990885 0 6.47055e-05)
(-0.00097217 0 1.07229e-05)
(-0.000961082 0 -4.88809e-05)
(-0.000944018 0 -8.77276e-05)
(-0.000925246 0 -7.63839e-05)
(-0.000917173 0 -9.87439e-05)
(-0.000917271 0 -0.000116005)
(-0.000903972 0 -0.000170852)
(-0.000897484 0 -0.000177114)
(-0.000902379 0 -0.000192729)
(-0.00088278 0 -0.000215641)
(-0.000783578 0 -0.000263755)
(-0.000715339 0 -0.000307664)
(-0.000662655 0 -0.000367407)
(-0.000579133 0 -0.000491591)
(-0.000475711 0 -0.000489057)
(-0.000417836 0 -0.00041008)
(-0.00035145 0 -0.000378035)
(-0.000187579 0 -0.000387252)
(-8.42457e-05 0 -0.000319142)
(-5.89274e-05 0 -0.00016553)
(-6.69679e-05 0 -0.000105782)
(-0.0001461 0 -4.56073e-05)
(-0.000166355 0 4.72746e-05)
(-0.000121598 0 0.000112805)
(-0.000129896 0 -5.66145e-05)
(-3.5409e-06 0 0.000283692)
(-0.000498697 0 0.000114978)
(4.58972e-06 0 -0.000533818)
(-9.82281e-13 0 -1.04073e-13)
(-1.78496e-12 0 5.82601e-15)
(-9.78846e-13 0 -6.23892e-14)
(-9.26017e-13 0 -1.10736e-13)
(-8.76787e-13 0 -1.56381e-13)
(-8.26436e-13 0 -2.02312e-13)
(-7.69935e-13 0 -2.48271e-13)
(-7.04382e-13 0 -2.9311e-13)
(-6.28584e-13 0 -3.35383e-13)
(-5.42529e-13 0 -3.73555e-13)
(-4.47043e-13 0 -4.06126e-13)
(-3.43584e-13 0 -4.31734e-13)
(-2.34095e-13 0 -4.49255e-13)
(-1.20869e-13 0 -4.57878e-13)
(-6.41608e-15 0 -4.57161e-13)
(1.06678e-13 0 -4.47056e-13)
(2.15877e-13 0 -4.279e-13)
(3.18816e-13 0 -4.00373e-13)
(4.13397e-13 0 -3.65438e-13)
(4.97856e-13 0 -3.24269e-13)
(5.70808e-13 0 -2.78165e-13)
(6.31262e-13 0 -2.28477e-13)
(6.78611e-13 0 -1.76537e-13)
(7.12606e-13 0 -1.23603e-13)
(7.33316e-13 0 -7.08122e-14)
(7.41077e-13 0 -1.91614e-14)
(7.3645e-13 0 3.05118e-14)
(7.20159e-13 0 7.75287e-14)
(6.93057e-13 0 1.21363e-13)
(6.56075e-13 0 1.61625e-13)
(6.10196e-13 0 1.98047e-13)
(5.56424e-13 0 2.3046e-13)
(4.95764e-13 0 2.58774e-13)
(4.29207e-13 0 2.82957e-13)
(3.57724e-13 0 3.03018e-13)
(2.82258e-13 0 3.18991e-13)
(2.03727e-13 0 3.30919e-13)
(1.23026e-13 0 3.38843e-13)
(4.11212e-14 0 3.42798e-13)
(-2.99497e-05 0 -0.000144948)
(-9.21018e-06 0 -0.000180254)
(1.84906e-05 0 -0.000196365)
(9.60316e-05 0 -0.000166036)
(0.000134838 0 -0.00014283)
(0.000170639 0 -0.000122843)
(0.000198288 0 -0.000119689)
(0.000237277 0 -1.85828e-05)
(0.000233415 0 1.49089e-06)
(0.00021899 0 4.34976e-05)
(0.00019795 0 7.63356e-05)
(0.00013996 0 0.000148046)
(0.000108888 0 0.000177012)
(6.43228e-05 0 0.000219525)
(2.42044e-05 0 0.000264762)
(-5.96474e-05 0 0.000302145)
(-0.000333903 0 0.000226507)
(-0.000362621 0 0.000239746)
(-0.000383936 0 0.000214334)
(-0.000311629 0 0.000280084)
(-0.00034286 0 0.000365295)
(-0.000439355 0 0.000335871)
(-0.00051119 0 0.000282151)
(-0.000558643 0 0.000222781)
(-0.000585473 0 0.000179632)
(-0.000591874 0 0.000178471)
(-0.000589319 0 0.000193828)
(-0.000645017 0 8.9657e-05)
(-0.000660987 0 0.000111653)
(-0.00066409 0 0.000107912)
(-0.000642082 0 9.26711e-05)
(-0.000632381 0 9.84119e-05)
(-0.00063846 0 0.000103394)
(-0.000613088 0 0.000179077)
(-0.000609954 0 0.000119046)
(-0.000610719 0 0.000112416)
(-0.000625286 0 0.000111164)
(-0.00065286 0 0.000113254)
(-0.000683214 0 8.79198e-05)
(-0.000704931 0 9.77707e-05)
(-0.00071943 0 0.000162406)
(-0.00074708 0 0.000179784)
(-0.000782206 0 0.000162378)
(-0.000806396 0 0.000198323)
(-0.000844332 0 0.000181745)
(-0.000876822 0 0.000161635)
(-0.000900369 0 0.000148007)
(-0.000912287 0 0.000131461)
(-0.000920176 0 0.000105802)
(-0.000926809 0 9.31386e-05)
(-0.000905257 0 -2.69442e-05)
(-0.000858803 0 7.06573e-05)
(-0.000834843 0 -1.85404e-07)
(-0.000816255 0 -6.4712e-05)
(-0.000803369 0 -8.18394e-05)
(-0.000793172 0 -9.53917e-05)
(-0.000779042 0 -0.000120963)
(-0.000771701 0 -0.00011116)
(-0.00076129 0 -0.000134746)
(-0.000754357 0 -0.000152896)
(-0.000749742 0 -0.000172855)
(-0.000752658 0 -0.000193726)
(-0.000714527 0 -0.000286238)
(-0.000632171 0 -0.000387653)
(-0.000608508 0 -0.000415279)
(-0.000561073 0 -0.000479087)
(-0.000557632 0 -0.00049673)
(-0.000445002 0 -0.000547016)
(-0.000277606 0 -0.000585037)
(-0.000310766 0 -0.000480668)
(-8.2122e-05 0 -0.000498508)
(-0.000259828 0 -0.000297741)
(1.46005e-05 0 -0.000301401)
(-2.97699e-05 0 -0.00021928)
(0.000133986 0 3.05875e-05)
(0.000163152 0 4.77463e-05)
(3.64904e-05 0 0.000113974)
(9.02859e-05 0 8.47622e-05)
(6.66883e-05 0 0.000303128)
(-0.000261645 0 -2.76801e-05)
(3.7779e-06 0 -0.000414356)
(-7.97395e-13 0 -5.1746e-13)
(-2.00637e-12 0 -1.41556e-13)
(-1.04366e-12 0 -1.377e-13)
(-9.71206e-13 0 -1.62256e-13)
(-9.23118e-13 0 -2.03701e-13)
(-8.7544e-13 0 -2.54471e-13)
(-8.19845e-13 0 -3.09586e-13)
(-7.53044e-13 0 -3.65459e-13)
(-6.7392e-13 0 -4.19201e-13)
(-5.82601e-13 0 -4.68295e-13)
(-4.80102e-13 0 -5.10493e-13)
(-3.68146e-13 0 -5.43841e-13)
(-2.49017e-13 0 -5.66757e-13)
(-1.25418e-13 0 -5.7812e-13)
(-3.08063e-16 0 -5.7733e-13)
(1.23272e-13 0 -5.64337e-13)
(2.42364e-13 0 -5.39617e-13)
(3.5424e-13 0 -5.04113e-13)
(4.5652e-13 0 -4.59144e-13)
(5.47253e-13 0 -4.06294e-13)
(6.24957e-13 0 -3.47303e-13)
(6.8863e-13 0 -2.83953e-13)
(7.37725e-13 0 -2.17984e-13)
(7.72109e-13 0 -1.51015e-13)
(7.92006e-13 0 -8.44935e-14)
(7.9793e-13 0 -1.96667e-14)
(7.90621e-13 0 4.24346e-14)
(7.70985e-13 0 1.00992e-13)
(7.40038e-13 0 1.55387e-13)
(6.9886e-13 0 2.05176e-13)
(6.48555e-13 0 2.50072e-13)
(5.90226e-13 0 2.89906e-13)
(5.24956e-13 0 3.24609e-13)
(4.53789e-13 0 3.54178e-13)
(3.77729e-13 0 3.78657e-13)
(2.97738e-13 0 3.98114e-13)
(2.14737e-13 0 4.12624e-13)
(1.29612e-13 0 4.22255e-13)
(4.33136e-14 0 4.27059e-13)
(-1.51794e-05 0 -0.000139564)
(-1.27787e-05 0 -0.000178809)
(3.34482e-05 0 -0.000233301)
(8.85011e-05 0 -0.000240906)
(0.000130188 0 -0.000216507)
(0.000170521 0 -0.000176031)
(0.000181026 0 -0.00014961)
(0.000217702 0 -4.68333e-05)
(0.000229018 0 2.0137e-05)
(0.000220599 0 5.47094e-05)
(0.000185368 0 0.000113774)
(0.000125751 0 0.000183265)
(9.77395e-05 0 0.000214198)
(5.41652e-05 0 0.000258117)
(1.59182e-05 0 0.000316981)
(-9.27183e-06 0 0.000396887)
(-2.15213e-05 0 0.00043441)
(-0.000115319 0 0.000399738)
(-0.000145564 0 0.000434363)
(-0.000377486 0 0.0003216)
(-0.000511728 0 0.000248293)
(-0.000524954 0 0.000294498)
(-0.000517559 0 0.000343559)
(-0.000579938 0 0.000266583)
(-0.000615919 0 0.000227143)
(-0.000629838 0 0.000227563)
(-0.000677142 0 0.000151416)
(-0.00070391 0 0.00015356)
(-0.000720638 0 0.000132761)
(-0.000724525 0 0.000102923)
(-0.000697624 0 3.72337e-05)
(-0.000672806 0 7.091e-05)
(-0.0006431 0 0.000196099)
(-0.000637371 0 0.000100576)
(-0.000617155 0 0.000100206)
(-0.000608585 0 0.00011654)
(-0.000608407 0 0.000120185)
(-0.000625927 0 0.000125335)
(-0.000646984 0 0.000114559)
(-0.000656079 0 0.000156492)
(-0.000669473 0 0.000169702)
(-0.000691682 0 0.000181625)
(-0.000714339 0 0.000218182)
(-0.00074969 0 0.000181961)
(-0.000767518 0 0.000219036)
(-0.000794049 0 0.000190109)
(-0.000799876 0 0.000190917)
(-0.000795651 0 0.000157519)
(-0.000776418 0 0.000130581)
(-0.000771938 0 0.000125708)
(-0.000778399 0 2.24419e-05)
(-0.000740005 0 -0.000136049)
(-0.000710815 0 -2.13785e-05)
(-0.00068501 0 -1.70143e-05)
(-0.00066664 0 -5.51865e-05)
(-0.000654839 0 -9.12922e-05)
(-0.000643776 0 -0.000105396)
(-0.000624106 0 -0.000126519)
(-0.000602473 0 -0.000150903)
(-0.000589914 0 -0.000167963)
(-0.000582414 0 -0.000186183)
(-0.000576594 0 -0.000234998)
(-0.000560871 0 -0.000286437)
(-0.000456431 0 -0.000452956)
(-0.000559684 0 -0.000378188)
(-0.000426286 0 -0.000569798)
(-0.000461863 0 -0.000573797)
(-0.000391322 0 -0.000620009)
(-0.000252813 0 -0.000652606)
(-0.000230453 0 -0.000574571)
(-0.000189009 0 -0.000530494)
(-1.3613e-05 0 -0.000488758)
(-7.91983e-05 0 -0.000345129)
(3.77824e-05 0 -0.00026097)
(9.1042e-05 0 -3.67368e-05)
(0.000190632 0 -6.56896e-06)
(8.46753e-05 0 0.000166733)
(0.00011921 0 0.000165406)
(0.000146141 0 0.000233762)
(-2.0294e-05 0 6.49393e-05)
(3.48253e-06 0 -0.000305574)
(-5.94028e-13 0 -8.74862e-13)
(-1.76518e-12 0 -2.46174e-13)
(-9.99545e-13 0 -1.84652e-13)
(-9.92018e-13 0 -1.9694e-13)
(-9.69002e-13 0 -2.41746e-13)
(-9.32321e-13 0 -3.02326e-13)
(-8.80923e-13 0 -3.70176e-13)
(-8.13997e-13 0 -4.39967e-13)
(-7.3142e-13 0 -5.07694e-13)
(-6.33821e-13 0 -5.69958e-13)
(-5.22589e-13 0 -6.23739e-13)
(-3.99849e-13 0 -6.66412e-13)
(-2.68375e-13 0 -6.9585e-13)
(-1.31443e-13 0 -7.10554e-13)
(7.36726e-15 0 -7.09742e-13)
(1.44392e-13 0 -6.93381e-13)
(2.76101e-13 0 -6.6215e-13)
(3.99289e-13 0 -6.17347e-13)
(5.11215e-13 0 -5.60753e-13)
(6.09697e-13 0 -4.94479e-13)
(6.93149e-13 0 -4.2081e-13)
(7.60581e-13 0 -3.42056e-13)
(8.1155e-13 0 -2.60434e-13)
(8.46097e-13 0 -1.77979e-13)
(8.64664e-13 0 -9.64795e-14)
(8.68006e-13 0 -1.7444e-14)
(8.57109e-13 0 5.7905e-14)
(8.33111e-13 0 1.28623e-13)
(7.97241e-13 0 1.94021e-13)
(7.5076e-13 0 2.53628e-13)
(6.94926e-13 0 3.07164e-13)
(6.30961e-13 0 3.54491e-13)
(5.60036e-13 0 3.95585e-13)
(4.83255e-13 0 4.30497e-13)
(4.0166e-13 0 4.59326e-13)
(3.16225e-13 0 4.82192e-13)
(2.27868e-13 0 4.99216e-13)
(1.3746e-13 0 5.10503e-13)
(4.5925e-14 0 5.16128e-13)
(-1.14828e-05 0 -0.000139313)
(1.53034e-05 0 -0.000200166)
(7.20994e-05 0 -0.000290438)
(0.000128312 0 -0.000289172)
(0.000149873 0 -0.000261727)
(0.00017684 0 -0.000208251)
(0.000208123 0 -0.000131883)
(0.000188258 0 -0.000111187)
(0.000205472 0 -2.66485e-05)
(0.000189601 0 8.21068e-05)
(0.000152598 0 0.000150174)
(0.000130641 0 0.000197696)
(6.62905e-05 0 0.000257214)
(3.21272e-05 0 0.000304128)
(-7.89348e-06 0 0.000358739)
(-5.53494e-05 0 0.000450092)
(-0.000144238 0 0.000480791)
(-0.000165718 0 0.000455752)
(-0.000243086 0 0.000443441)
(-0.000336863 0 0.000446819)
(-0.000383355 0 0.000459631)
(-0.000555228 0 0.000345273)
(-0.000599419 0 0.000310155)
(-0.000607974 0 0.00031299)
(-0.00059106 0 0.000366418)
(-0.000689679 0 0.000228125)
(-0.000725174 0 0.000197116)
(-0.000747654 0 0.000163249)
(-0.000752396 0 0.000149686)
(-0.000752791 0 0.000117999)
(-0.000732365 0 3.8459e-05)
(-0.000693271 0 3.91403e-05)
(-0.000662019 0 9.22766e-05)
(-0.000634781 0 0.000133709)
(-0.000622247 0 8.53486e-05)
(-0.000608382 0 9.93848e-05)
(-0.000605316 0 9.94313e-05)
(-0.000588273 0 0.000170817)
(-0.000588392 0 0.000138627)
(-0.000590839 0 0.000156599)
(-0.000613867 0 0.000179943)
(-0.000624082 0 0.000199637)
(-0.000626552 0 0.000255135)
(-0.000660851 0 0.00023033)
(-0.000677286 0 0.000235644)
(-0.000684689 0 0.000222783)
(-0.000684576 0 0.000160679)
(-0.000673532 0 0.000111829)
(-0.00065415 0 4.37265e-05)
(-0.000631202 0 1.76502e-05)
(-0.000627878 0 1.83902e-05)
(-0.00063589 0 1.61284e-05)
(-0.000632154 0 -2.47332e-05)
(-0.000594218 0 -9.09713e-05)
(-0.000571196 0 -0.000100254)
(-0.000553347 0 -0.000113466)
(-0.00053544 0 -0.000128189)
(-0.000520696 0 -0.000137917)
(-0.000492804 0 -0.000167586)
(-0.000469883 0 -0.000176091)
(-0.000459686 0 -0.000180565)
(-0.000456316 0 -0.000217053)
(-0.000410522 0 -0.000333683)
(-0.000395343 0 -0.000385472)
(-0.000493426 0 -0.000353264)
(-0.000369874 0 -0.00056429)
(-0.000356609 0 -0.000642621)
(-0.000301635 0 -0.000694753)
(-0.000291411 0 -0.000697902)
(-0.000124344 0 -0.000693722)
(-0.000135855 0 -0.000600057)
(-4.11832e-05 0 -0.000533516)
(2.0479e-05 0 -0.000416886)
(2.68188e-05 0 -0.000300446)
(8.63623e-05 0 -0.000103945)
(0.000145811 0 3.24493e-05)
(0.000143599 0 0.0001208)
(0.000179535 0 0.000137033)
(0.000225704 0 0.000139436)
(-4.10614e-05 0 5.91249e-05)
(3.34637e-06 0 -0.000211276)
(-4.83765e-13 0 -5.63125e-13)
(-1.71318e-12 0 -1.50182e-13)
(-9.94422e-13 0 -1.5784e-13)
(-1.0283e-12 0 -1.99155e-13)
(-1.0285e-12 0 -2.64064e-13)
(-1.00387e-12 0 -3.4295e-13)
(-9.57486e-13 0 -4.28854e-13)
(-8.90562e-13 0 -5.16559e-13)
(-8.0391e-13 0 -6.01666e-13)
(-6.98646e-13 0 -6.80118e-13)
(-5.76556e-13 0 -7.48112e-13)
(-4.40257e-13 0 -8.0224e-13)
(-2.93159e-13 0 -8.39703e-13)
(-1.39311e-13 0 -8.58536e-13)
(1.68643e-14 0 -8.5774e-13)
(1.70864e-13 0 -8.37335e-13)
(3.18398e-13 0 -7.98295e-13)
(4.55637e-13 0 -7.42405e-13)
(5.79387e-13 0 -6.72069e-13)
(6.87195e-13 0 -5.90083e-13)
(7.77381e-13 0 -4.99419e-13)
(8.49006e-13 0 -4.03036e-13)
(9.01801e-13 0 -3.03724e-13)
(9.36064e-13 0 -2.03991e-13)
(9.52542e-13 0 -1.06e-13)
(9.52314e-13 0 -1.15322e-14)
(9.36688e-13 0 7.80104e-14)
(9.07101e-13 0 1.61581e-13)
(8.65044e-13 0 2.3845e-13)
(8.12003e-13 0 3.0816e-13)
(7.49417e-13 0 3.70472e-13)
(6.78647e-13 0 4.25318e-13)
(6.00962e-13 0 4.72752e-13)
(5.1753e-13 0 5.12909e-13)
(4.29425e-13 0 5.45968e-13)
(3.37629e-13 0 5.72123e-13)
(2.43048e-13 0 5.91557e-13)
(1.46524e-13 0 6.04422e-13)
(4.89391e-14 0 6.10829e-13)
(-3.13595e-05 0 -0.000159307)
(5.77733e-05 0 -0.000247752)
(6.56379e-05 0 -0.000350384)
(0.000133399 0 -0.000339286)
(0.000151783 0 -0.000296934)
(0.000171004 0 -0.000223361)
(0.00020034 0 -0.000138759)
(0.000155961 0 -0.000130919)
(0.000196471 0 3.15035e-05)
(0.000153215 0 0.000116642)
(0.000152714 0 0.000159444)
(7.09006e-05 0 0.000246389)
(4.99736e-05 0 0.000303607)
(-4.1952e-05 0 0.000363074)
(-8.03694e-05 0 0.000411193)
(-0.000169797 0 0.000471618)
(-0.000247904 0 0.000522049)
(-0.000282358 0 0.000518067)
(-0.000452788 0 0.000423711)
(-0.000547932 0 0.000375368)
(-0.000450979 0 0.000498355)
(-0.000510549 0 0.000487816)
(-0.000563151 0 0.000443413)
(-0.000610327 0 0.000383365)
(-0.00072436 0 0.00019753)
(-0.000741705 0 0.000232137)
(-0.000758215 0 0.000229681)
(-0.000769084 0 0.000187613)
(-0.000782041 0 9.05168e-05)
(-0.000760816 0 5.99753e-05)
(-0.000720957 0 4.25665e-06)
(-0.000693227 0 3.2526e-05)
(-0.000668279 0 7.87119e-05)
(-0.000641948 0 7.21892e-05)
(-0.000622708 0 5.67012e-05)
(-0.000601112 0 9.29558e-05)
(-0.000584903 0 7.61988e-05)
(-0.000543233 0 0.000183242)
(-0.00053648 0 0.000114662)
(-0.000524145 0 0.000146696)
(-0.000524411 0 0.000220794)
(-0.000539946 0 0.000228374)
(-0.000544518 0 0.000241827)
(-0.000554382 0 0.000254052)
(-0.000568111 0 0.000246221)
(-0.000576456 0 0.00020334)
(-0.000559157 0 0.00014635)
(-0.000549941 0 0.000136296)
(-0.000558629 0 0.000104217)
(-0.000563532 0 8.47095e-05)
(-0.000559012 0 -1.93984e-06)
(-0.000537496 0 -9.33143e-05)
(-0.000521294 0 -8.06252e-05)
(-0.00051532 0 -6.69018e-05)
(-0.000514982 0 -8.08304e-05)
(-0.00049604 0 -0.000147706)