0 	-13.5629
0.010101 	-8.35838
0.020202 	-8.35838
0.030303 	-8.18753
0.040404 	-5.29605
