/*--------------------------------*- C++ -*----------------------------------*\
  =========                 |
  \\      /  F ield         | OpenFOAM: The Open Source CFD Toolbox
   \\    /   O peration     | Website:  https://openfoam.org
    \\  /    A nd           | Version:  6
     \\/     M anipulation  |
\*---------------------------------------------------------------------------*/
FoamFile
{
    version     2.0;
    format      ascii;
    class       surfaceScalarField;
    location    "3500";
    object      phi;
}
// * * * * * * * * * * * * * * * * * * * * * * * * * * * * * * * * * * * * * //

dimensions      [0 3 -1 0 0 0 0];

internalField   nonuniform List<scalar> 
9440
(
3.81017e-11
-3.81017e-11
1.42213e-10
-1.04113e-10
2.42589e-10
-1.00377e-10
3.23536e-10
-8.09474e-11
3.5001e-10
-2.6476e-11
3.14345e-10
3.56648e-11
2.66862e-10
4.74816e-11
1.95106e-10
7.17549e-11
1.48069e-10
4.70361e-11
3.84945e-11
1.09573e-10
2.96381e-11
8.85534e-12
-2.41033e-10
2.7067e-10
-2.41579e-10
5.44388e-13
1.53332e-11
-2.56913e-10
2.00345e-10
-1.85013e-10
1.12622e-09
-9.25878e-10
9.30263e-10
1.95958e-10
1.0122e-09
-8.1933e-11
1.55691e-09
-5.44712e-10
2.23698e-09
-6.80071e-10
2.82125e-09
-5.8427e-10
3.53182e-09
-7.10578e-10
4.20071e-09
-6.68886e-10
4.73744e-09
-5.36737e-10
5.05247e-09
-3.15027e-10
5.48653e-09
-4.34056e-10
5.65372e-09
-1.67198e-10
5.82557e-09
-1.71845e-10
6.20464e-09
-3.7907e-10
6.76304e-09
-5.58401e-10
6.87544e-09
-1.12408e-10
7.16257e-09
-2.87132e-10
7.46404e-09
-3.01472e-10
7.7239e-09
-2.59853e-10
7.9949e-09
-2.71003e-10
8.18241e-09
-1.87511e-10
8.28214e-09
-9.97321e-11
8.25521e-09
2.693e-11
8.19941e-09
5.57971e-11
8.17221e-09
2.71992e-11
8.10348e-09
6.87263e-11
8.08643e-09
1.70572e-11
8.06703e-09
1.93911e-11
8.05681e-09
1.02224e-11
8.07632e-09
-1.95052e-11
8.08111e-09
-4.7913e-12
8.06537e-09
1.57369e-11
8.08115e-09
-1.57845e-11
8.05493e-09
2.62212e-11
8.03998e-09
1.49443e-11
8.01869e-09
2.12913e-11
7.98653e-09
3.21569e-11
7.95905e-09
2.74877e-11
7.92753e-09
3.15155e-11
7.88054e-09
4.69847e-11
7.82828e-09
5.22635e-11
7.73908e-09
8.91976e-11
7.65836e-09
8.07239e-11
7.56337e-09
9.49872e-11
7.38781e-09
1.75555e-10
7.24679e-09
1.41017e-10
7.10964e-09
1.37151e-10
6.99348e-09
1.16166e-10
6.8385e-09
1.54971e-10
6.64777e-09
1.90736e-10
6.53209e-09
1.15676e-10
6.34669e-09
1.854e-10
6.03579e-09
3.109e-10
5.71104e-09
3.24743e-10
5.1244e-09
5.86635e-10
4.70715e-09
4.17258e-10
4.16618e-09
5.40966e-10
3.39527e-09
7.70909e-10
2.71935e-09
6.7592e-10
1.96954e-09
7.49804e-10
1.19473e-09
7.7481e-10
8.60687e-10
3.34041e-10
7.40957e-10
1.19729e-10
6.26485e-10
1.14471e-10
4.57194e-10
1.6929e-10
2.94653e-10
1.62539e-10
1.78497e-10
1.16154e-10
7.68909e-11
1.01605e-10
1.13105e-15
7.68879e-11
-1.41788e-17
2.18392e-17
-1.44698e-17
2.90968e-19
-1.41878e-17
-2.82157e-19
-1.3552e-17
-6.37968e-19
-1.27006e-17
-8.53867e-19
-1.17104e-17
-9.92859e-19
-1.06257e-17
-1.08734e-18
-9.47819e-18
-1.15027e-18
-8.29462e-18
-1.18634e-18
-7.09984e-18
-1.19756e-18
-5.91698e-18
-1.18565e-18
-4.76704e-18
-1.15273e-18
-3.66842e-18
-1.10139e-18
-2.63657e-18
-1.03459e-18
-1.68382e-18
-9.55414e-19
-8.19431e-19
-8.66926e-19
-4.96988e-20
-7.72055e-19
6.21776e-19
-6.73494e-19
1.19376e-18
-5.73646e-19
1.66701e-18
-4.74584e-19
2.04398e-18
-3.78032e-19
2.32842e-18
-2.85376e-19
2.52517e-18
-1.97674e-19
2.63987e-18
-1.15701e-19
2.67872e-18
-3.9983e-20
2.6483e-18
2.91564e-20
2.55541e-18
9.1554e-20
2.40688e-18
1.4717e-19
2.20954e-18
1.96054e-19
1.97005e-18
2.3832e-19
1.69492e-18
2.74117e-19
1.39049e-18
3.03613e-19
1.06287e-18
3.26974e-19
7.18033e-19
3.44349e-19
3.61815e-19
3.55849e-19
3.6152e-19
1.04114e-10
-1.42217e-10
2.19982e-10
-2.19983e-10
2.62333e-10
-1.42731e-10
2.30664e-10
-4.92803e-11
1.15531e-10
8.86554e-11
-6.64165e-12
1.57835e-10
-1.49149e-10
1.89987e-10
-1.99487e-10
1.22092e-10
-1.78098e-10
2.56443e-11
-2.06806e-10
1.38279e-10
-2.39438e-10
4.14855e-11
-3.67723e-10
3.98953e-10
-2.51413e-10
-1.15767e-10
3.30274e-12
-5.11631e-10
3.57017e-10
-5.38729e-10
6.16192e-10
-1.18506e-09
1.61268e-09
-8.0053e-10
1.75201e-09
-2.21267e-10
2.01662e-09
-8.09325e-10
2.47175e-09
-1.13521e-09
2.99877e-09
-1.11129e-09
3.50701e-09
-1.21882e-09
4.06107e-09
-1.22295e-09
4.39669e-09
-8.7236e-10
4.84401e-09
-7.62343e-10
5.3707e-09
-9.60751e-10
5.65179e-09
-4.48286e-10
6.12388e-09
-6.43945e-10
6.44781e-09
-7.03001e-10
6.7761e-09
-8.86685e-10
7.18813e-09
-5.24446e-10
7.32895e-09
-4.27949e-10
7.59621e-09
-5.68737e-10
7.73572e-09
-3.99367e-10
7.76843e-09
-3.03708e-10
7.8095e-09
-2.28583e-10
7.87709e-09
-1.67324e-10
7.92299e-09
-1.89679e-11
7.95685e-09
2.19293e-11
7.95831e-09
2.57349e-11
7.9687e-09
5.83364e-11
7.94748e-09
3.82812e-11
7.92885e-09
3.80135e-11
7.92177e-09
1.73076e-11
7.91562e-09
-1.33582e-11
7.8916e-09
1.92199e-11
7.87821e-09
2.91332e-11
7.81812e-09
4.42992e-11
7.7841e-09
6.02383e-11
7.73875e-09
6.02924e-11
7.67214e-09
8.79023e-11
7.64079e-09
6.35016e-11
7.54166e-09
1.26616e-10
7.48474e-09
8.84336e-11
7.45036e-09
8.13691e-11
7.4022e-09
1.00422e-10
7.32895e-09
1.6244e-10
7.2773e-09
1.32379e-10
7.2329e-09
1.39385e-10
7.18466e-09
2.23787e-10
7.06421e-09
2.61462e-10
7.10076e-09
1.00603e-10
6.99866e-09
2.18265e-10
6.80628e-09
3.47352e-10
6.74123e-09
2.55781e-10
6.30946e-09
5.47443e-10
6.19378e-09
3.01078e-10
5.78185e-09
7.22833e-10
5.36325e-09
7.43333e-10
5.25768e-09
6.92205e-10
4.46144e-09
1.2135e-09
3.6587e-09
1.34371e-09
3.3692e-09
1.0604e-09
2.9965e-09
1.04862e-09
2.35595e-09
1.39035e-09
1.79778e-09
1.33298e-09
1.22538e-09
9.06443e-10
9.97842e-10
3.47261e-10
8.3856e-10
2.7375e-10
6.45193e-10
3.62654e-10
4.99915e-10
3.07814e-10
2.71626e-10
3.4444e-10
7.45466e-11
2.98681e-10
7.21454e-16
1.51431e-10
-1.49757e-17
2.94666e-17
-1.50427e-17
3.57737e-19
-1.45434e-17
-7.83994e-19
-1.37676e-17
-1.41794e-18
-1.28396e-17
-1.78635e-18
-1.18048e-17
-2.03223e-18
-1.06887e-17
-2.20822e-18
-9.51425e-18
-2.32944e-18
-8.30584e-18
-2.39954e-18
-7.08793e-18
-2.42025e-18
-5.88406e-18
-2.39428e-18
-4.71571e-18
-2.32578e-18
-3.60162e-18
-2.22009e-18
-2.55739e-18
-2.08327e-18
-1.59533e-18
-1.92167e-18
-7.2456e-19
-1.74156e-18
4.88616e-20
-1.54893e-18
7.21624e-19
-1.34927e-18
1.29282e-18
-1.14743e-18
1.76356e-18
-9.47578e-19
2.13663e-18
-7.53139e-19
2.41612e-18
-5.66829e-19
2.60715e-18
-3.90707e-19
2.71559e-18
-2.26256e-19
2.74786e-18
-7.44748e-20
2.7107e-18
6.40307e-20
2.61102e-18
1.88966e-19
2.45577e-18
3.00272e-19
2.2518e-18
3.98064e-19
2.00584e-18
4.82578e-19
1.72442e-18
5.54125e-19
1.41385e-18
6.13049e-19
1.08024e-18
6.59691e-19
7.29533e-19
6.94362e-19
3.67486e-19
7.17317e-19
7.28735e-19
1.24036e-10
-2.66254e-10
1.16619e-10
-2.12568e-10
6.57078e-11
-9.18214e-11
-4.98253e-11
6.62512e-11
-1.41614e-10
1.80442e-10
-2.40302e-10
2.56522e-10
-3.6187e-10
3.11553e-10
-4.98027e-10
2.58248e-10
-5.78508e-10
1.06123e-10
-5.15833e-10
7.56024e-11
-4.44931e-10
-2.94178e-11
-2.58089e-10
2.1211e-10
9.988e-12
-3.83846e-10
2.43548e-10
-7.45192e-10
7.30469e-10
-1.02565e-09
5.71383e-10
-1.02597e-09
1.32166e-09
-1.55081e-09
2.13363e-09
-1.03324e-09
2.6608e-09
-1.3365e-09
2.95918e-09
-1.43358e-09
3.28319e-09
-1.4353e-09
3.70247e-09
-1.6381e-09
4.12694e-09
-1.64742e-09
4.50313e-09
-1.24855e-09
4.98729e-09
-1.24651e-09
5.54585e-09
-1.51931e-09
5.79501e-09
-6.97457e-10
6.3271e-09
-1.17603e-09
6.7097e-09
-1.0856e-09
6.74895e-09
-9.25944e-10
7.09275e-09
-8.68242e-10
7.36065e-09
-6.95852e-10
7.35959e-09
-5.67677e-10
7.37469e-09
-4.14465e-10
7.40261e-09
-3.31635e-10
7.48583e-09
-3.11801e-10
7.42384e-09
-1.05332e-10
7.52377e-09
-1.18906e-10
7.63922e-09
-9.35163e-11
7.71688e-09
-5.19328e-11
7.76261e-09
1.26046e-11
7.75145e-09
4.94468e-11
7.72717e-09
6.229e-11
7.65412e-09
9.03543e-11
7.60039e-09
4.03724e-11
7.57607e-09
4.35424e-11
7.56603e-09
3.91664e-11
7.55508e-09
5.52508e-11
7.53068e-09
8.46362e-11
7.47863e-09
1.12341e-10
7.38836e-09
1.78169e-10
7.26296e-09
1.88898e-10
7.15883e-09
2.30747e-10
7.05656e-09
1.90699e-10
7.02888e-09
1.09049e-10
6.99262e-09
1.36687e-10
6.97544e-09
1.79617e-10
6.97303e-09
1.34787e-10
6.95246e-09
1.59952e-10
6.87202e-09
3.04218e-10
6.79085e-09
3.4263e-10
6.72348e-09
1.67979e-10
6.56095e-09
3.80786e-10
6.44985e-09
4.58451e-10
6.22221e-09
4.8342e-10
6.03752e-09
7.32133e-10
5.77752e-09
5.61072e-10
5.34447e-09
1.15588e-09
5.17753e-09
9.10269e-10
4.75598e-09
1.11375e-09
4.34947e-09
1.62001e-09
4.10442e-09
1.58876e-09
3.75285e-09
1.41196e-09
3.13906e-09
1.66241e-09
2.72052e-09
1.80889e-09
2.41484e-09
1.63865e-09
1.87885e-09
1.44244e-09
1.24602e-09
9.8009e-10
8.85526e-10
6.34237e-10
7.11757e-10
5.3642e-10
5.34901e-10
4.84667e-10
3.31492e-10
5.47846e-10
1.82634e-10
4.47537e-10
5.6106e-16
3.34063e-10
-1.60674e-17
7.63588e-17
-1.61844e-17
4.74427e-19
-1.51772e-17
-1.79308e-18
-1.41358e-17
-2.46241e-18
-1.30855e-17
-2.83999e-18
-1.19808e-17
-3.14027e-18
-1.08099e-17
-3.38263e-18
-9.58435e-18
-3.55846e-18
-8.32655e-18
-3.66085e-18
-7.06196e-18
-3.68834e-18
-5.81556e-18
-3.64416e-18
-4.61003e-18
-3.53477e-18
-3.4648e-18
-3.36873e-18
-2.39578e-18
-3.15567e-18
-1.41523e-18
-2.90557e-18
-5.31932e-19
-2.62817e-18
2.48526e-19
-2.33266e-18
9.23463e-19
-2.02735e-18
1.49267e-18
-1.71958e-18
1.958e-18
-1.41558e-18
2.32294e-18
-1.12046e-18
2.59224e-18
-8.38264e-19
2.7716e-18
-5.72015e-19
2.86737e-18
-3.23875e-19
2.88636e-18
-9.52672e-20
2.83563e-18
1.12986e-19
2.72233e-18
3.0053e-19
2.55356e-18
4.67366e-19
2.33632e-18
6.1375e-19
2.07739e-18
7.40108e-19
1.78334e-18
8.46968e-19
1.46049e-18
9.34896e-19
1.11492e-18
1.00445e-18
7.52487e-19
1.05612e-18
3.78904e-19
1.09032e-18
1.10732e-18
8.7463e-12
-2.75001e-10
-4.05494e-11
-1.63274e-10
-8.24747e-11
-4.98979e-11
-1.33643e-10
1.17418e-10
-2.20452e-10
2.6725e-10
-3.31311e-10
3.67379e-10
-4.97776e-10
4.78015e-10
-6.62016e-10
4.22486e-10
-8.28071e-10
2.72177e-10
-7.88648e-10
3.61772e-11
-7.80056e-10
-3.80107e-11
-3.219e-10
-2.46048e-10
4.40444e-11
-7.49793e-10
4.45066e-10
-1.14622e-09
8.83145e-10
-1.46373e-09
1.31159e-09
-1.45442e-09
1.36523e-09
-1.60445e-09
2.16256e-09
-1.83057e-09
2.89718e-09
-2.07112e-09
3.43631e-09
-1.97272e-09
3.78025e-09
-1.77924e-09
4.14614e-09
-2.004e-09
4.44733e-09
-1.94861e-09
4.92286e-09
-1.72408e-09
5.37367e-09
-1.69733e-09
5.64508e-09
-1.79071e-09
6.12931e-09
-1.18169e-09
6.18117e-09
-1.22789e-09
6.25653e-09
-1.16096e-09
6.50632e-09
-1.17573e-09
6.86177e-09
-1.22369e-09
6.89171e-09
-7.25793e-10
6.99307e-09
-6.6904e-10
7.06556e-09
-4.86954e-10
7.08608e-09
-3.52156e-10
7.10642e-09
-3.32146e-10
7.1058e-09
-1.04712e-10
7.10479e-09
-1.17898e-10
7.13472e-09
-1.23449e-10
7.18502e-09
-1.02237e-10
7.20789e-09
-1.02628e-11
7.20812e-09
4.92114e-11
7.24215e-09
2.82601e-11
7.28405e-09
4.84506e-11
7.28655e-09
3.78757e-11
7.27133e-09
5.87606e-11
7.23544e-09
7.50506e-11
7.19759e-09
9.30989e-11
7.14142e-09
1.40809e-10
7.07282e-09
1.80942e-10
7.02873e-09
2.22252e-10
6.96538e-09
2.52251e-10
6.95958e-09
2.36545e-10
6.94098e-09
2.093e-10
6.91661e-09
1.33414e-10
6.82118e-09
2.32114e-10
6.78215e-09
2.18643e-10
6.76965e-09
1.47288e-10
6.60176e-09
3.27841e-10
6.5497e-09
3.56281e-10
6.43609e-09
4.56234e-10
6.2462e-09
3.57873e-10
6.0454e-09
5.81576e-10
5.82631e-09
6.7754e-10
5.79381e-09
5.1592e-10
5.61475e-09
9.11197e-10
5.13371e-09
1.04211e-09
5.0866e-09
1.20299e-09
4.66031e-09
1.33656e-09
3.94665e-09
1.82741e-09
3.78346e-09
1.78319e-09
3.51286e-09
1.85936e-09
2.96872e-09
1.95609e-09
2.59348e-09
2.03765e-09
2.37198e-09
2.03038e-09
1.8863e-09
2.12434e-09
1.36718e-09
1.96156e-09
1.01065e-09
1.33662e-09
8.17993e-10
8.26888e-10
6.55596e-10
6.98815e-10
5.01019e-10
6.39242e-10
3.8874e-10
6.60124e-10
2.46982e-10
5.89293e-10
4.12582e-16
5.81042e-10
-2.71017e-17
1.3176e-16
-1.8452e-17
-8.17547e-18
-1.58465e-17
-4.40011e-18
-1.45133e-17
-3.79805e-18
-1.33857e-17
-3.97009e-18
-1.22232e-17
-4.30548e-18
-1.09857e-17
-4.62284e-18
-9.68674e-18
-4.86019e-18
-8.35405e-18
-4.99632e-18
-7.01777e-18
-5.0274e-18
-5.70617e-18
-4.95853e-18
-4.44399e-18
-4.79974e-18
-3.25175e-18
-4.56379e-18
-2.14568e-18
-4.26464e-18
-1.13783e-18
-3.91644e-18
-2.36416e-19
-3.5328e-18
5.53834e-19
-3.1263e-18
1.23123e-18
-2.70824e-18
1.79667e-18
-2.28846e-18
2.25312e-18
-1.87525e-18
2.60514e-18
-1.47537e-18
2.85849e-18
-1.0941e-18
3.01974e-18
-7.35375e-19
3.09598e-18
-4.01943e-19
3.09462e-18
-9.55421e-20
3.02318e-18
1.82897e-19
2.88916e-18
4.33076e-19
2.69994e-18
6.55163e-19
2.46267e-18
8.49656e-19
2.18425e-18
1.01726e-18
1.87127e-18
1.1588e-18
1.53004e-18
1.27512e-18
1.16659e-18
1.36704e-18
7.86683e-19
1.43528e-18
3.95911e-19
1.48042e-18
1.50285e-18
6.24171e-13
-2.75627e-10
-4.8798e-11
-1.13854e-10
-1.91613e-10
9.29156e-11
-2.68318e-10
1.94122e-10
-3.39982e-10
3.38911e-10
-4.3993e-10
4.67326e-10
-4.98188e-10
5.36272e-10
-5.94738e-10
5.19035e-10
-6.49554e-10
3.26991e-10
-6.71425e-10
5.80459e-11
-5.16538e-10
-1.92899e-10
-1.24537e-10
-6.38051e-10
1.58017e-10
-1.03235e-09
5.62517e-10
-1.55072e-09
8.56734e-10
-1.75795e-09
1.69168e-09
-2.28936e-09
2.24232e-09
-2.1551e-09
2.72832e-09
-2.31658e-09
2.96748e-09
-2.31028e-09
3.65706e-09
-2.66231e-09
4.05167e-09
-2.17384e-09
4.42356e-09
-2.37589e-09
4.7534e-09
-2.27845e-09
5.09149e-09
-2.06217e-09
5.53125e-09
-2.13709e-09
5.6765e-09
-1.93595e-09
5.96568e-09
-1.47088e-09
6.0984e-09
-1.36061e-09
6.29872e-09
-1.36128e-09
6.27168e-09
-1.1487e-09
6.28629e-09
-1.2383e-09
6.47792e-09
-9.17424e-10
6.56579e-09
-7.56917e-10
6.61738e-09
-5.38541e-10
6.60854e-09
-3.43317e-10
6.55127e-09
-2.74883e-10
6.55739e-09
-1.10831e-10
6.51918e-09
-7.96879e-11
6.48651e-09
-9.07818e-11
6.47395e-09
-8.9675e-11
6.5022e-09
-3.85213e-11
6.54401e-09
7.40686e-12
6.61995e-09
-4.76808e-11
6.7243e-09
-5.59077e-11
6.76507e-09
-2.89098e-12
6.77949e-09
4.43425e-11
6.75685e-09
9.76843e-11
6.71812e-09
1.31826e-10
6.67315e-09
1.85781e-10
6.5926e-09
2.61489e-10
6.5219e-09
2.92951e-10
6.49848e-09
2.7567e-10
6.43593e-09
2.99088e-10
6.41685e-09
2.28385e-10
6.36121e-09
1.89052e-10
6.31109e-09
2.82227e-10
6.23209e-09
2.97644e-10
6.20574e-09
1.73637e-10
6.0239e-09
5.09678e-10
6.0224e-09
3.57777e-10
5.94939e-09
5.29249e-10
5.66392e-09
6.43339e-10
5.51288e-09
7.32611e-10
5.25584e-09
9.34577e-10
5.31159e-09
4.60168e-10
5.17311e-09
1.04967e-09
4.83352e-09
1.3817e-09
4.71648e-09
1.32002e-09
4.23797e-09
1.81507e-09
4.08863e-09
1.97676e-09
3.87524e-09
1.99657e-09
3.42958e-09
2.30502e-09
3.03934e-09
2.34633e-09
2.70992e-09
2.36707e-09
2.29774e-09
2.44256e-09
1.76223e-09
2.65985e-09
1.27444e-09
2.44934e-09
9.62137e-10
1.64892e-09
7.56489e-10
1.03253e-09
6.20473e-10
8.34829e-10
5.01643e-10
7.58071e-10
3.85323e-10
7.76441e-10
1.79181e-10
7.95434e-10
1.95716e-16
7.60222e-10
-9.55274e-18
1.45794e-18
-1.46772e-17
-3.05103e-18
-1.52445e-17
-3.83453e-18
-1.46853e-17
-4.35931e-18
-1.37211e-17
-4.93636e-18
-1.25405e-17
-5.48825e-18
-1.12231e-17
-5.94261e-18
-9.82287e-18
-6.26275e-18
-8.38513e-18
-6.43645e-18
-6.9489e-18
-6.46604e-18
-5.54739e-18
-6.36245e-18
-4.20803e-18
-6.14153e-18
-2.9526e-18
-5.8217e-18
-1.79748e-18
-5.42232e-18
-7.54187e-19
-4.96245e-18
1.70082e-19
-4.46004e-18
9.71891e-19
-3.93139e-18
1.65101e-18
-3.39092e-18
2.20988e-18
-2.851e-18
2.653e-18
-2.32194e-18
2.98641e-18
-1.81204e-18
3.21722e-18
-1.32772e-18
3.35317e-18
-8.73661e-19
3.40238e-18
-4.53047e-19
3.37306e-18
-6.7786e-20
3.27336e-18
2.81238e-19
3.11125e-18
5.9393e-19
2.89444e-18
8.70769e-19
2.63028e-18
1.11262e-18
2.32579e-18
1.3206e-18
1.98759e-18
1.4959e-18
1.62196e-18
1.63974e-18
1.23482e-18
1.75326e-18
8.31818e-19
1.83745e-18
4.18349e-19
1.8931e-18
1.92075e-18
-4.95879e-11
-2.2604e-10
-1.15787e-10
-4.76573e-11
-2.03442e-10
1.8057e-10
-2.48157e-10
2.38835e-10
-2.42694e-10
3.33446e-10
-2.79167e-10
5.03798e-10
-3.25269e-10
5.82371e-10
-3.57667e-10
5.51431e-10
-3.37867e-10
3.0719e-10
-2.01789e-10
-7.80339e-11
1.56397e-10
-5.51086e-10
5.33828e-10
-1.01548e-09
7.79097e-10
-1.27762e-09
9.97433e-10
-1.76905e-09
1.3425e-09
-2.10302e-09
1.53325e-09
-2.48011e-09
2.15233e-09
-2.77417e-09
2.80354e-09
-2.96779e-09
3.08809e-09
-2.59483e-09
3.70988e-09
-3.2841e-09
4.18611e-09
-2.65007e-09
4.55761e-09
-2.74739e-09
4.90953e-09
-2.63038e-09
5.19343e-09
-2.34606e-09
5.37006e-09
-2.31373e-09
5.60521e-09
-2.1711e-09
5.74888e-09
-1.61456e-09
5.86931e-09
-1.48104e-09
6.05176e-09
-1.54372e-09
6.13535e-09
-1.23229e-09
5.98447e-09
-1.08742e-09
5.99895e-09
-9.31901e-10
6.00399e-09
-7.61964e-10
5.99613e-09
-5.30683e-10
5.9723e-09
-3.19481e-10
5.92269e-09
-2.25277e-10
5.90678e-09
-9.49209e-11
5.91383e-09
-8.67375e-11
5.93686e-09
-1.1382e-10
5.97238e-09
-1.25196e-10
6.05785e-09
-1.23986e-10
6.12386e-09
-5.86063e-11
6.12058e-09
-4.44018e-11
6.07307e-09
-8.39551e-12
6.05104e-09
1.91319e-11
6.05371e-09
4.167e-11
6.0489e-09
1.02499e-10
6.04597e-09
1.3475e-10
6.06494e-09
1.66816e-10
6.05538e-09
2.71041e-10
6.0409e-09
3.0743e-10
6.00262e-09
3.13946e-10
5.98291e-09
3.188e-10
5.92295e-09
2.88342e-10
5.81216e-09
2.99846e-10
5.76417e-09
3.30215e-10
5.59304e-09
4.68768e-10
5.43399e-09
3.32687e-10
5.33786e-09
6.0581e-10
5.16394e-09
5.31697e-10
5.15599e-09
5.37196e-10
5.01574e-09
7.83586e-10
4.87672e-09
8.71628e-10
4.80753e-09
1.00377e-09
4.03737e-09
1.23033e-09
3.92701e-09
1.16003e-09
3.80045e-09
1.50826e-09
3.63097e-09
1.4895e-09
3.45424e-09
1.99179e-09
3.41123e-09
2.01976e-09
3.12676e-09
2.28104e-09
2.89802e-09
2.53376e-09
2.61975e-09
2.6246e-09
2.19096e-09
2.79586e-09
1.74187e-09
2.89164e-09
1.55101e-09
2.85071e-09
1.64385e-09
2.3565e-09
1.4423e-09
1.85047e-09
9.54824e-10
1.52e-09
6.64948e-10
1.1247e-09
4.4386e-10
9.79157e-10
2.39566e-10
9.80734e-10
1.26561e-10
9.08438e-10
4.14393e-16
8.86782e-10
-1.40615e-17
1.251e-18
-1.54607e-17
-1.6525e-18
-1.57693e-17
-3.52773e-18
-1.52623e-17
-4.86828e-18
-1.4273e-17
-5.92772e-18
-1.29949e-17
-6.76855e-18
-1.15432e-17
-7.39663e-18
-9.99656e-18
-7.81181e-18
-8.41473e-18
-8.02076e-18
-6.84531e-18
-8.03794e-18
-5.32646e-18
-7.88375e-18
-3.88821e-18
-7.58223e-18
-2.55322e-18
-7.15914e-18
-1.33761e-18
-6.64039e-18
-2.5177e-19
-6.05078e-18
6.98729e-19
-5.41318e-18
1.51236e-18
-4.74796e-18
2.19094e-18
-4.07278e-18
2.73894e-18
-3.40256e-18
3.1629e-18
-2.74952e-18
3.47073e-18
-2.12333e-18
3.67127e-18
-1.53133e-18
3.77378e-18
-9.78728e-19
3.78764e-18
-4.68938e-19
3.72208e-18
-3.82085e-21
3.58605e-18
4.15987e-19
3.38809e-18
7.90784e-19
3.13629e-18
1.12153e-18
2.83825e-18
1.40963e-18
2.50109e-18
1.65672e-18
2.13144e-18
1.86451e-18
1.73549e-18
2.03467e-18
1.31902e-18
2.16876e-18
8.87465e-19
2.26807e-18
4.46001e-19
2.33366e-18
2.36624e-18
-7.0355e-11
-1.55686e-10
-1.5043e-10
3.24157e-11
-1.32734e-10
1.62872e-10
-1.56069e-10
2.62169e-10
-1.6397e-10
3.41345e-10
-1.34067e-10
4.73893e-10
-9.98203e-11
5.48123e-10
3.94378e-11
4.12171e-10
1.80259e-10
1.66367e-10
4.68529e-10
-3.66305e-10
7.41598e-10
-8.24156e-10
9.98241e-10
-1.27213e-09
1.27828e-09
-1.55766e-09
1.61801e-09
-2.10879e-09
2.00197e-09
-2.48699e-09
2.40464e-09
-2.88278e-09
2.83187e-09
-3.2014e-09
3.01063e-09
-3.14655e-09
3.7058e-09
-3.28999e-09
4.01157e-09
-3.58988e-09
4.48338e-09
-3.12188e-09
4.73192e-09
-2.99593e-09
4.92535e-09
-2.8238e-09
5.19637e-09
-2.61709e-09
5.29526e-09
-2.41262e-09
5.38863e-09
-2.26447e-09
5.51275e-09
-1.73867e-09
5.50275e-09
-1.47104e-09
5.51175e-09
-1.55273e-09
5.51374e-09
-1.23428e-09
5.39938e-09
-9.73063e-10
5.37142e-09
-9.03936e-10
5.31208e-09
-7.0263e-10
5.27723e-09
-4.95829e-10
5.27475e-09
-3.17012e-10
5.25743e-09
-2.07953e-10
5.25203e-09
-8.95206e-11
5.32844e-09
-1.63156e-10
5.40794e-09
-1.93317e-10
5.43954e-09
-1.56797e-10
5.46938e-09
-1.53828e-10
5.51038e-09
-9.9607e-11
5.52889e-09
-6.29091e-11
5.54547e-09
-2.49851e-11
5.53915e-09
2.54572e-11
5.52371e-09
5.71055e-11
5.52309e-09
1.03121e-10
5.51866e-09
1.39175e-10
5.52949e-09
1.55985e-10
5.53492e-09
2.65613e-10
5.52595e-09
3.16398e-10
5.47485e-09
3.65043e-10
5.4331e-09
3.60547e-10
5.32382e-09
3.97621e-10
5.14378e-09
4.7989e-10
5.00146e-09
4.72525e-10
5.01504e-09
4.55192e-10
4.78898e-09
5.58745e-10
4.63628e-09
7.58511e-10
4.45621e-09
7.11757e-10
4.45366e-09
5.39751e-10
4.43436e-09
8.02885e-10
4.29315e-09
1.01283e-09
4.15401e-09
1.14291e-09
3.87203e-09
1.51231e-09
3.84577e-09
1.18629e-09
3.69751e-09
1.65652e-09
3.44506e-09
1.74195e-09
3.18774e-09
2.24911e-09
2.94913e-09
2.25837e-09
2.7499e-09
2.48026e-09
2.60396e-09
2.6797e-09
2.33516e-09
2.89341e-09
2.06455e-09
3.06647e-09
1.85542e-09
3.10077e-09
1.78582e-09
2.9203e-09
1.25649e-09
2.88584e-09
6.62329e-10
2.44463e-09
5.15498e-10
1.66683e-09
4.97904e-10
1.1423e-09
4.97449e-10
9.79611e-10
4.65873e-10
1.01231e-09
2.18741e-10
1.15557e-09
6.3604e-16
1.10552e-09
-1.69643e-17
2.02803e-18
-1.73357e-17
-1.2819e-18
-1.71097e-17
-3.75588e-18
-1.63216e-17
-5.6587e-18
-1.51138e-17
-7.138e-18
-1.3623e-17
-8.262e-18
-1.19584e-17
-9.06398e-18
-1.02055e-17
-9.56754e-18
-8.43191e-18
-9.79725e-18
-6.69112e-18
-9.78163e-18
-5.02494e-18
-9.55276e-18
-3.46512e-18
-9.14483e-18
-2.03447e-18
-8.59252e-18
-7.48005e-19
-7.92947e-18
3.85832e-19
-7.18709e-18
1.36395e-18
-6.39371e-18
2.18754e-18
-5.57408e-18
2.86115e-18
-4.74923e-18
3.39198e-18
-3.93657e-18
3.78909e-18
-3.15002e-18
4.06274e-18
-2.4004e-18
4.22387e-18
-1.69563e-18
4.28357e-18
-1.04117e-18
4.25276e-18
-4.40337e-19
4.14189e-18
1.05339e-19
3.96085e-18
5.95724e-19
3.71884e-18
1.03174e-18
3.42439e-18
1.41506e-18
3.08534e-18
1.74778e-18
2.70888e-18
2.03223e-18
2.30161e-18
2.27079e-18
1.86957e-18
2.46569e-18
1.41833e-18
2.61897e-18
9.53053e-19
2.73233e-18
4.78578e-19
2.80711e-18
2.84423e-18
-2.93916e-11
-1.26296e-10
-6.69247e-11
6.99469e-11
-4.4574e-11
1.40519e-10
2.84611e-12
2.14747e-10
5.24229e-11
2.91766e-10
1.65435e-10
3.60879e-10
3.14474e-10
3.99082e-10
5.34558e-10
1.92087e-10
8.05035e-10
-1.04112e-10
1.0314e-09
-5.92674e-10
1.24857e-09
-1.04133e-09
1.57455e-09
-1.59811e-09
1.7963e-09
-1.77941e-09
1.97996e-09
-2.29246e-09
2.3049e-09
-2.81193e-09
2.53508e-09
-3.11296e-09
3.03455e-09
-3.70087e-09
3.38453e-09
-3.49654e-09
3.99275e-09
-3.89822e-09
3.92607e-09
-3.5232e-09
4.3168e-09
-3.51262e-09
4.62941e-09
-3.30854e-09
4.82313e-09
-3.01752e-09
4.98028e-09
-2.77424e-09
5.01084e-09
-2.44318e-09
5.04018e-09
-2.29382e-09
5.14628e-09
-1.84477e-09
4.92068e-09
-1.24544e-09
4.76192e-09
-1.39398e-09
4.83732e-09
-1.30969e-09
4.86768e-09
-1.00342e-09
4.75941e-09
-7.95663e-10
4.66498e-09
-6.08203e-10
4.64447e-09
-4.75321e-10
4.65099e-09
-3.23537e-10
4.71808e-09
-2.75044e-10
4.71809e-09
-8.95253e-11
4.78014e-09
-2.25216e-10
4.84377e-09
-2.56949e-10
4.89731e-09
-2.1033e-10
4.9794e-09
-2.35927e-10
5.05507e-09
-1.75277e-10
5.07545e-09
-8.32879e-11
5.06407e-09
-1.36016e-11
5.06493e-09
2.45972e-11
5.07673e-09
4.5302e-11
5.1203e-09
5.95426e-11
5.14934e-09
1.1014e-10
5.12041e-09
1.84913e-10
5.11474e-09
2.71279e-10
5.07288e-09
3.58263e-10
5.02437e-09
4.13548e-10
5.01496e-09
3.69953e-10
4.84126e-09
5.71325e-10
4.7569e-09
5.64243e-10
4.70461e-09
5.24815e-10
4.58117e-09
5.78629e-10
4.34348e-09
7.96434e-10
4.22935e-09
8.72642e-10
4.02751e-09
9.13599e-10
3.75654e-09
8.10714e-10
3.57187e-09
9.87557e-10
3.12892e-09
1.45578e-09
3.09068e-09
1.18114e-09
3.26542e-09
1.33758e-09
3.09486e-09
1.35684e-09
3.13493e-09
1.61645e-09
2.95849e-09
1.91838e-09
3.03414e-09
2.17346e-09
2.93877e-09
2.35374e-09
2.63141e-09
2.78761e-09
2.32616e-09
2.98495e-09
2.08493e-09
3.13463e-09
1.93274e-09
3.21866e-09
1.61797e-09
3.41554e-09
1.14901e-09
3.38926e-09
7.37941e-10
3.2969e-09
6.94445e-10
2.48812e-09
6.52681e-10
1.7086e-09
3.7807e-10
1.4169e-09
9.06154e-11
1.26706e-09
-1.82216e-10
1.28514e-09
-1.50966e-10
1.12432e-09
8.92926e-16
9.54553e-10
-2.02732e-17
1.52944e-18
-1.98091e-17
-1.74699e-18
-1.90122e-17
-4.55571e-18
-1.78008e-17
-6.87319e-18
-1.62378e-17
-8.70408e-18
-1.4425e-17
-1.0078e-17
-1.24619e-17
-1.10303e-17
-1.04352e-17
-1.15976e-17
-8.41629e-18
-1.18196e-17
-6.46224e-18
-1.1739e-17
-4.61701e-18
-1.14012e-17
-2.91281e-18
-1.08522e-17
-1.37141e-18
-1.0137e-17
-5.62596e-21
-9.29822e-18
1.17921e-18
-8.3746e-18
2.18358e-18
-7.40046e-18
3.01238e-18
-6.40513e-18
3.67382e-18
-5.41305e-18
4.17853e-18
-4.44394e-18
4.53871e-18
-3.51319e-18
4.76751e-18
-2.63235e-18
4.87833e-18
-1.80956e-18
4.88441e-18
-1.05008e-18
4.79843e-18
-3.56741e-19
4.63227e-18
2.69626e-19
4.39687e-18
8.29721e-19
4.10215e-18
1.32538e-18
3.75711e-18
1.75922e-18
3.36979e-18
2.13426e-18
2.94743e-18
2.45373e-18
2.49651e-18
2.72077e-18
2.02284e-18
2.93834e-18
1.53169e-18
3.10905e-18
1.02784e-18
3.23507e-18
5.15702e-19
3.31811e-18
3.3593e-18
2.69691e-11
-1.53266e-10
3.87418e-11
5.81723e-11
7.96438e-11
9.96158e-11
1.88903e-10
1.05486e-10
3.24543e-10
1.56125e-10
4.96514e-10
1.88907e-10
7.06184e-10
1.89411e-10
9.08292e-10
-1.00224e-11
1.16247e-09
-3.58292e-10
1.39597e-09
-8.26176e-10
1.66135e-09
-1.3067e-09
1.7744e-09
-1.71116e-09
2.16626e-09
-2.17127e-09
2.36976e-09
-2.49595e-09
2.62828e-09
-3.07045e-09
2.98868e-09
-3.47336e-09
3.22569e-09
-3.93788e-09
3.42762e-09
-3.69846e-09
3.80128e-09
-4.27188e-09
4.15535e-09
-3.87727e-09
4.29592e-09
-3.65318e-09
4.52267e-09
-3.53529e-09
4.62536e-09
-3.12021e-09
4.54033e-09
-2.68922e-09
4.49959e-09
-2.40245e-09
4.32207e-09
-2.11629e-09
4.37822e-09
-1.90093e-09
4.45279e-09
-1.32001e-09
4.20882e-09
-1.15001e-09
4.06091e-09
-1.16177e-09
4.0642e-09
-1.00672e-09
4.03033e-09
-7.61795e-10
4.03986e-09
-6.17728e-10
4.09518e-09
-5.30647e-10
4.15672e-09
-3.85071e-10
4.21191e-09
-3.30245e-10
4.35718e-09
-2.3479e-10
4.41816e-09
-2.86196e-10
4.45923e-09
-2.98023e-10
4.51506e-09
-2.66162e-10
4.5213e-09
-2.42171e-10
4.56318e-09
-2.17155e-10
4.65323e-09
-1.73341e-10
4.68692e-09
-4.72927e-11
4.71086e-09
6.56953e-13
4.72462e-09
3.15464e-11
4.73698e-09
4.71792e-11
4.76732e-09
7.97971e-11
4.74499e-09
2.07244e-10
4.75714e-09
2.5913e-10
4.74009e-09
3.75307e-10
4.64579e-09
5.0785e-10
4.5149e-09
5.00835e-10
4.44465e-09
6.41575e-10
4.23167e-09
7.77226e-10
4.01774e-09
7.3874e-10
4.05797e-09
5.38394e-10
3.96426e-09
8.90142e-10
3.8392e-09
9.97702e-10
3.77132e-09
9.81479e-10
3.65068e-09
9.31355e-10
3.45302e-09
1.18522e-09
3.31184e-09
1.59696e-09
3.31305e-09
1.17993e-09
3.10581e-09
1.54482e-09
2.67205e-09
1.7906e-09
2.42642e-09
1.86208e-09
2.19496e-09
2.14984e-09
2.03741e-09
2.331e-09
1.65366e-09
2.7375e-09
1.70635e-09
2.73491e-09
1.72268e-09
2.96862e-09
1.64152e-09
3.21579e-09
1.48436e-09
3.37581e-09
1.4542e-09
3.4457e-09
1.31818e-09
3.52527e-09
1.33971e-09
3.27538e-09
9.05831e-10
2.922e-09
4.46749e-10
2.16768e-09
2.78145e-10
1.58551e-09
1.1889e-10
1.42632e-09
2.03957e-10
1.20007e-09
1.77658e-10
1.15061e-09
1.02713e-15
1.13221e-09
-2.35483e-17
1.87873e-19
-2.2617e-17
-2.67965e-18
-2.13292e-17
-5.84703e-18
-1.96315e-17
-8.57457e-18
-1.76117e-17
-1.07274e-17
-1.53772e-17
-1.23161e-17
-1.30293e-17
-1.33817e-17
-1.06572e-17
-1.39732e-17
-8.33574e-18
-1.41446e-17
-6.12444e-18
-1.39538e-17
-4.068e-18
-1.3461e-17
-2.19763e-18
-1.27258e-17
-5.32612e-19
-1.18053e-17
9.17989e-19
-1.0752e-17
2.15336e-18
-9.61291e-18
3.1789e-18
-8.42851e-18
4.00446e-18
-7.23284e-18
4.64294e-18
-6.05358e-18
5.10927e-18
-4.91248e-18
5.41956e-18
-3.82597e-18
5.5903e-18
-2.80586e-18
5.63781e-18
-1.85997e-18
5.57775e-18
-9.92833e-19
5.4248e-18
-2.06274e-19
5.19237e-18
5.00022e-19
4.89253e-18
1.128e-18
4.53599e-18
1.68075e-18
4.13215e-18
2.16213e-18
3.68926e-18
2.57635e-18
3.21448e-18
2.92769e-18
2.71408e-18
3.22027e-18
2.19355e-18
3.45787e-18
1.65771e-18
3.64378e-18
1.11087e-18
3.78074e-18
5.56893e-19
3.87085e-18
3.91551e-18
2.77106e-11
-1.80977e-10
1.39175e-10
-5.32938e-11
2.58101e-10
-1.93114e-11
3.86873e-10
-2.3288e-11
5.39148e-10
3.8486e-12
7.27811e-10
2.42501e-13
9.94517e-10
-7.7297e-11
1.23185e-09
-2.47356e-10
1.46428e-09
-5.90722e-10
1.69604e-09
-1.05794e-09
1.89955e-09
-1.51022e-09
2.11584e-09
-1.92745e-09
2.26365e-09
-2.31909e-09
2.52374e-09
-2.75604e-09
2.77294e-09
-3.31965e-09
3.0572e-09
-3.75762e-09
3.50491e-09
-4.38559e-09
3.97283e-09
-4.16639e-09
3.88889e-09
-4.18795e-09
4.05897e-09
-4.04735e-09
4.09536e-09
-3.68957e-09
4.10806e-09
-3.548e-09
4.28468e-09
-3.29683e-09
4.1501e-09
-2.55464e-09
4.0595e-09
-2.31184e-09
3.91119e-09
-1.96799e-09
3.70463e-09
-1.69436e-09
3.67815e-09
-1.29352e-09
3.5801e-09
-1.05196e-09
3.51627e-09
-1.09794e-09
3.49513e-09
-9.85585e-10
3.49713e-09
-7.63792e-10
3.56734e-09
-6.87945e-10
3.63829e-09
-6.01596e-10
3.78102e-09
-5.27809e-10
3.77036e-09
-3.19579e-10
3.88352e-09
-3.47949e-10
3.97378e-09
-3.7646e-10
4.04299e-09
-3.67238e-10
4.1087e-09
-3.31869e-10
4.14002e-09
-2.73491e-10
4.18638e-09
-2.63521e-10
4.25484e-09
-2.41804e-10
4.27555e-09
-6.80005e-11
4.29196e-09
-1.57507e-11
4.30193e-09
2.15714e-11
4.28799e-09
6.11165e-11
4.28015e-09
8.76365e-11
4.28073e-09
2.06663e-10
4.27306e-09
2.66799e-10
4.24119e-09
4.07176e-10
4.1658e-09
5.83241e-10
4.06955e-09
5.97085e-10
4.06703e-09
6.44088e-10
3.88387e-09
9.60393e-10
3.74932e-09
8.73287e-10
3.5942e-09
6.93506e-10
3.33312e-09
1.15123e-09
3.09756e-09
1.23326e-09
2.96903e-09
1.11001e-09
2.85658e-09
1.0438e-09
2.69566e-09
1.34615e-09
2.80815e-09
1.48446e-09
2.64185e-09
1.34622e-09
2.61204e-09
1.57463e-09
2.54277e-09
1.85987e-09
2.41133e-09
1.99351e-09
2.18553e-09
2.37564e-09
1.98422e-09
2.53231e-09
2.01587e-09
2.70585e-09
1.93393e-09
2.81685e-09
1.58445e-09
3.31811e-09
1.42305e-09
3.37718e-09
1.26588e-09
3.53298e-09
1.10321e-09
3.60837e-09
9.41901e-10
3.68658e-09
5.1101e-10
3.70627e-09
3.73101e-10
3.05991e-09
5.14139e-10
2.02663e-09
4.40174e-10
1.65947e-09
2.09161e-10
1.65733e-09
-2.01203e-10
1.61043e-09
-2.6155e-10
1.21096e-09
1.00742e-15
8.70654e-10
-2.64142e-17
2.18908e-18
-2.57833e-17
-3.31228e-18
-2.40562e-17
-7.57792e-18
-2.17842e-17
-1.08503e-17
-1.92003e-17
-1.33148e-17
-1.64428e-17
-1.50769e-17
-1.36208e-17
-1.62069e-17
-1.08286e-17
-1.67688e-17
-8.14496e-18
-1.68317e-17
-5.6316e-18
-1.64706e-17
-3.33282e-18
-1.57629e-17
-1.27713e-18
-1.47845e-17
5.20657e-19
-1.36062e-17
2.05711e-18
-1.22917e-17
3.33777e-18
-1.08966e-17
4.37457e-18
-9.46795e-18
5.18372e-18
-8.04417e-18
5.78404e-18
-6.65579e-18
6.19578e-18
-5.32608e-18
6.43967e-18
-4.07191e-18
6.53618e-18
-2.90471e-18
6.50494e-18
-1.83131e-18
6.36431e-18
-8.54857e-19
6.1311e-18
2.44424e-20
5.82034e-18
8.08618e-19
5.44528e-18
1.50134e-18
5.01737e-18
2.10737e-18
4.54637e-18
2.63213e-18
4.0406e-18
3.08128e-18
3.50706e-18
3.46041e-18
2.95168e-18
3.77476e-18
2.37947e-18
4.02908e-18
1.79468e-18
4.22745e-18
1.20097e-18
4.37322e-18
6.01556e-19
4.46895e-18
4.51635e-18
1.32162e-10
-3.1314e-10
2.29901e-10
-1.51035e-10
3.57495e-10
-1.46906e-10