/*--------------------------------*- C++ -*----------------------------------*\
  =========                 |
  \\      /  F ield         | OpenFOAM: The Open Source CFD Toolbox
   \\    /   O peration     | Website:  https://openfoam.org
    \\  /    A nd           | Version:  6
     \\/     M anipulation  |
\*---------------------------------------------------------------------------*/
FoamFile
{
    version     2.0;
    format      ascii;
    class       volScalarField;
    location    "3500";
    object      Su;
}
// * * * * * * * * * * * * * * * * * * * * * * * * * * * * * * * * * * * * * //

dimensions      [0 0 -1 0 0 0 0];

internalField   nonuniform List<scalar> 
4800
(
0.220543
0.220445
0.220346
0.220242
0.220134
0.22002
0.219899
0.219767
0.219624
0.219464
0.219284
0.21908
0.21885
0.218589
0.218294
0.21796
0.21758
0.217153
0.216685
0.216176
0.215624
0.21503
0.214394
0.213714
0.21299
0.212227
0.211426
0.210589
0.209724
0.208835
0.207921
0.20698
0.206016
0.205029
0.20402
0.20299
0.201938
0.200867
0.19978
0.198683
0.197583
0.196484
0.19539
0.194307
0.193238
0.192185
0.191149
0.190131
0.189132
0.188152
0.187191
0.186247
0.18532
0.184408
0.183508
0.182615
0.181722
0.18082
0.179895
0.178933
0.17791
0.176801
0.175573
0.17418
0.172564
0.170656
0.168369
0.165596
0.162219
0.15811
0.153151
0.147245
0.140325
0.132389
0.123497
0.113778
0.103473
0.0928013
0.0818546
0.0706576
0.0592236
0.0475509
0.0356064
0.023337
0.00600846
0.00861602
0.00612652
0.00328084
0.00016229
-0.00315191
-0.00660099
-0.0101402
-0.0137372
-0.0173686
-0.0210174
-0.0246713
-0.0283214
-0.0319613
-0.0355867
-0.039195
-0.0427849
-0.0463558
-0.0499081
-0.0534426
-0.0569603
-0.0604627
-0.0639511
-0.067427
-0.0708917
-0.0743467
-0.0777931
-0.0812322
-0.084665
-0.0880924
-0.0915153
-0.0949346
-0.0983511
-0.101765
-0.105178
-0.10859
0.220548
0.22046
0.22037
0.220277
0.220178
0.220072
0.219959
0.219837
0.219702
0.219551
0.21938
0.219183
0.218961
0.218706
0.218413
0.218077
0.217692
0.21726
0.216782
0.216255
0.215681
0.21506
0.214395
0.213686
0.212935
0.212146
0.211322
0.210462
0.209573
0.208657
0.20772
0.206758
0.205772
0.204765
0.203736
0.202687
0.201622
0.200542
0.19945
0.198351
0.19725
0.19615
0.195056
0.193972
0.192903
0.191851
0.190817
0.189801
0.188806
0.187829
0.186871
0.18593
0.185006
0.184096
0.183198
0.182308
0.181418
0.180517
0.179594
0.178632
0.177608
0.176496
0.175263
0.173862
0.172236
0.170313
0.168008
0.165223
0.161835
0.157737
0.152795
0.146901
0.140039
0.132212
0.123432
0.113819
0.103569
0.0928925
0.0819419
0.0707705
0.0593959
0.0478012
0.0359405
0.0237397
0.00614179
0.00903554
0.00648122
0.00354444
0.0003452
-0.00302981
-0.00652144
-0.0100894
-0.0137056
-0.0173499
-0.0210076
-0.0246676
-0.028322
-0.0319649
-0.0355926
-0.0392025
-0.0427933
-0.0463649
-0.0499175
-0.053452
-0.0569696
-0.0604717
-0.0639597
-0.067435
-0.0708992
-0.0743536
-0.0777994
-0.0812378
-0.0846699
-0.0880966
-0.0915189
-0.0949375
-0.0983533
-0.101767
-0.105179
-0.10859
0.220558
0.22049
0.22042
0.220345
0.220264
0.220177
0.220082
0.219978
0.219862
0.219728
0.219573
0.219392
0.219184
0.218938
0.218647
0.218304
0.217907
0.217458
0.216957
0.216398
0.215781
0.215112
0.214394
0.213631
0.212827
0.211986
0.211111
0.210198
0.209257
0.20829
0.207304
0.206301
0.205276
0.204232
0.203171
0.202095
0.201007
0.199908
0.198803
0.197696
0.19659
0.195488
0.194393
0.19331
0.192242
0.191193
0.190164
0.189156
0.188168
0.187199
0.186249
0.185315
0.184398
0.183493
0.1826
0.181714
0.180828
0.179929
0.179006
0.178042
0.177011
0.175887
0.174639
0.173218
0.171569
0.169626
0.167296
0.16449
0.16109
0.156991
0.152081
0.146271
0.139511
0.131781
0.123127
0.113664
0.103522
0.0928768
0.0819361
0.0708321
0.0595922
0.0481963
0.0365939
0.0246383
0.00646612
0.00997564
0.0072118
0.00405587
0.000685855
-0.00280881
-0.00638046
-0.010001
-0.0136518
-0.0173191
-0.0209924
-0.0246633
-0.0283254
-0.0319739
-0.0356055
-0.0392181
-0.0428108
-0.0463834
-0.0499365
-0.0534711
-0.0569883
-0.0604897
-0.0639768
-0.0674511
-0.0709142
-0.0743673
-0.0778118
-0.0812489
-0.0846797
-0.0881051
-0.091526
-0.0949434
-0.0983578
-0.10177
-0.105181
-0.108591
0.220573
0.220535
0.220494
0.220448
0.220396
0.220336
0.220269
0.220191
0.220102
0.219994
0.219863
0.219703
0.219512
0.219275
0.218983
0.21863
0.218213
0.217731
0.217189
0.216579
0.215903
0.215165
0.214372
0.213531
0.212648
0.211726
0.210773
0.209781
0.20876
0.207718
0.206664
0.205602
0.204525
0.203437
0.202336
0.201224
0.200106
0.198979
0.19785
0.196726
0.195611
0.194504
0.193409
0.19233
0.191268
0.190226
0.189206
0.188208
0.187232
0.186276
0.185339
0.184418
0.183512
0.182618
0.181732
0.180853
0.179969
0.179069
0.178144
0.177172
0.176131
0.174988
0.173717
0.172267
0.170585
0.168614
0.166253
0.163422
0.160007
0.155894
0.150998
0.145242
0.138547
0.130911
0.12239
0.113053
0.103017
0.0924875
0.0816802
0.0707327
0.059711
0.048647
0.0375275
0.0262102
0.00722282
0.0116452
0.00831876
0.00475691
0.00112328
-0.00253779
-0.00621384
-0.00990027
-0.0135933
-0.0172884
-0.0209805
-0.0246645
-0.028336
-0.0319913
-0.0356277
-0.0392437
-0.0428386
-0.0464125
-0.049966
-0.0535003
-0.0570168
-0.0605171
-0.0640028
-0.0674755
-0.0709367
-0.074388
-0.0778305
-0.0812656
-0.0846944
-0.0881178
-0.0915367
-0.0949521
-0.0983646
-0.101775
-0.105184
-0.108592
0.220593
0.220595
0.220594
0.220586
0.220572
0.220548
0.220516
0.220474
0.22042
0.220346
0.220245
0.220111
0.219934
0.219703
0.219404
0.219034
0.218586
0.218059
0.217453
0.216769
0.216011
0.215183
0.214294
0.213352
0.212364
0.211338
0.210282
0.209193
0.208078
0.206947
0.205805
0.204668
0.203527
0.202384
0.201236
0.20008
0.198925
0.197766
0.19661
0.195465
0.194336
0.193223
0.192126
0.191051
0.189997
0.188965
0.187958
0.186974
0.186014
0.185076
0.184156
0.183251
0.182359
0.181476
0.1806
0.179728
0.178847
0.177945
0.177017
0.176032
0.174976
0.173815
0.172516
0.171032
0.169305
0.167295
0.164903
0.162039
0.158612
0.154514
0.149657
0.143951
0.137331
0.129798
0.121387
0.112169
0.10227
0.0918839
0.0812159
0.0704334
0.0596591
0.0489955
0.0385584
0.0285765
0.0196935
0.0141695
0.00963489
0.00549309
0.00154731
-0.00229147
-0.00607178
-0.009821
-0.0135531
-0.0172735
-0.0209828
-0.0246791
-0.0283595
-0.0320213
-0.0356624
-0.0392816
-0.0428785
-0.0464532
-0.0500068
-0.0535404
-0.0570557
-0.0605543
-0.0640379
-0.0675083
-0.070967
-0.0744156
-0.0778555
-0.0812879
-0.084714
-0.0881347
-0.091551
-0.0949637
-0.0983736
-0.101781
-0.105188
-0.108593
0.220618
0.22067
0.220717
0.220758
0.22079
0.220811
0.220823
0.220824
0.22081
0.220775
0.220709
0.220601
0.220436
0.220205
0.219892
0.219491
0.218995
0.218404
0.217716
0.216939
0.216075
0.215135
0.214127
0.21306
0.211945
0.210795
0.20962
0.208417
0.207193
0.205964
0.204729
0.203504
0.202288
0.201082
0.199879
0.198678
0.197482
0.196289
0.195105
0.19394
0.192797
0.191678
0.190579
0.189505
0.188457
0.187436
0.186443
0.185476
0.184536
0.18362
0.182721
0.181836
0.180961
0.180093
0.179228
0.178362
0.177483
0.176578
0.175642
0.174639
0.173561
0.172379
0.171051
0.169528
0.167748
0.165672
0.163235
0.160333
0.156889
0.152792
0.147957
0.142303
0.13577
0.128339
0.120043
0.110981
0.10128
0.0910695
0.0805187
0.0698576
0.0592857
0.0489567
0.0390714
0.0299148
0.0219406
0.0156927
0.0105257
0.00598638
0.00181044
-0.00215749
-0.00600966
-0.00979946
-0.0135555
-0.0172913
-0.0210113
-0.0247156
-0.0284021
-0.0320686
-0.0357131
-0.0393345
-0.0429324
-0.0465073
-0.0500601
-0.0535923
-0.0571055
-0.0606016
-0.0640824
-0.0675497
-0.0710051
-0.0744504
-0.0778869
-0.0813158
-0.0847385
-0.0881558
-0.0915688
-0.0949782
-0.0983848
-0.101789
-0.105192
-0.108595
0.220648
0.220759
0.220864
0.220961
0.221048
0.221122
0.221185
0.221234
0.221266
0.221272
0.22124
0.221153
0.220996
0.220758
0.220422
0.219979
0.219421
0.218744
0.217956
0.217061
0.21607
0.214992
0.21384
0.212628
0.211369
0.210077
0.20877
0.20744
0.206093
0.204755
0.203425
0.202111
0.200816
0.199542
0.198282
0.197034
0.195796
0.194567
0.193356
0.192171
0.191014
0.189888
0.18879
0.187722
0.186682
0.185673
0.184694
0.183745
0.182824
0.181931
0.181056
0.180193
0.179337
0.178487
0.177634
0.176773
0.175897
0.174991
0.174043
0.173021
0.171912
0.170702
0.169339
0.167773
0.165959
0.163831
0.161352
0.158412
0.154942
0.150828
0.146006
0.140399
0.133949
0.126636
0.118486
0.109566
0.0999537
0.0897874
0.0793284
0.0688191
0.0584408
0.0483784
0.0388463
0.0301243
0.022503
0.0161398
0.0107643
0.00606826
0.00180329
-0.00220589
-0.00607296
-0.00986591
-0.0136214
-0.0173564
-0.0210766
-0.0247818
-0.0284698
-0.0321378
-0.0357833
-0.039405
-0.0430026
-0.0465763
-0.0501272
-0.0536568
-0.057167
-0.0606596
-0.0641366
-0.0675999
-0.0710512
-0.0744923
-0.0779246
-0.0813494
-0.0847678
-0.0881811
-0.09159
-0.0949955
-0.0983982
-0.101799
-0.105198
-0.108596
0.220681
0.22086
0.221031
0.221193
0.221343
0.221477
0.221596
0.221699
0.221778
0.221825
0.221821
0.221751
0.221594
0.221338
0.220965
0.220462
0.219823
0.219044
0.218133
0.217098
0.215952
0.214715
0.213402
0.212029
0.210611
0.209165
0.207714
0.206254
0.20478
0.203325
0.201899
0.200498
0.199126
0.197782
0.196465
0.195167
0.19389
0.192625
0.191386
0.190183
0.189013
0.187882
0.186787
0.185725
0.184695
0.183698
0.182733
0.181802
0.180903
0.180032
0.179181
0.178341
0.177507
0.176677
0.175838
0.174982
0.174105
0.173198
0.172237
0.171193
0.17005
0.1688
0.167394
0.165771
0.163912
0.161736
0.159205
0.15623
0.152736
0.148623
0.143818
0.138246
0.131867
0.124661
0.116632
0.107805
0.0982841
0.0882344
0.0778765
0.0674156
0.057064
0.0470754
0.0377325
0.0292936
0.0219084
0.0156549
0.0103342
0.00568833
0.00148054
-0.00247025
-0.00628548
-0.0100374
-0.0137633
-0.0174785
-0.0211862
-0.0248841
-0.0285677
-0.0322329
-0.0358763
-0.0394959
-0.043091
-0.0466617
-0.0502092
-0.0537349
-0.0572407
-0.0607287
-0.0642008
-0.0676591
-0.0711054
-0.0745414
-0.0779686
-0.0813884
-0.084802
-0.0882105
-0.0916147
-0.0950155
-0.0984137
-0.10181
-0.105205
-0.108599
0.220719
0.220972
0.221218
0.221453
0.221672
0.221872
0.222053
0.222211
0.222338
0.222421
0.222441
0.222379
0.222212
0.221924
0.221498
0.220919
0.22018
0.219275
0.218217
0.217023
0.215706
0.214288
0.212796
0.211246
0.209657
0.208048
0.206444
0.204856
0.203263
0.201691
0.200162
0.198675
0.197228
0.195817
0.194443
0.193097
0.19178
0.190484
0.189221
0.188
0.186819
0.185682
0.184588
0.183535
0.182515
0.181529
0.180577
0.179663
0.178784
0.177935
0.177109
0.176295
0.17548
0.17467
0.173844
0.172988
0.172105
0.171196
0.17022
0.169153
0.167981
0.166697
0.165253
0.163574
0.161659
0.159428
0.156827
0.153797
0.150251
0.14611
0.141309
0.135794
0.129499
0.122396
0.114494
0.105821
0.0964483
0.0864833
0.0761171
0.0656256
0.0552426
0.0452272
0.0359017
0.0275737
0.0203951
0.0143939
0.00931497
0.00488496
0.000860856
-0.0029417
-0.00664382
-0.0103139
-0.0139832
-0.0176607
-0.021344
-0.0250261
-0.0286993
-0.0323571
-0.0359947
-0.0396093
-0.0431994
-0.0467651
-0.0503072
-0.0538273
-0.0573273
-0.0608093
-0.0642753
-0.0677275
-0.0711677
-0.0745977
-0.078019
-0.081433
-0.0848409
-0.0882439
-0.0916427
-0.0950382
-0.0984313
-0.101822
-0.105212
-0.108601
0.220761
0.221096
0.221423
0.221737
0.222032
0.222304
0.22255
0.222764
0.222936
0.223052
0.223087
0.223022
0.222832
0.222498
0.222002
0.221327
0.220467
0.219419
0.2182
0.216821
0.21531
0.213691
0.212003
0.210272
0.208507
0.206737
0.204979
0.203252
0.201546
0.199866
0.198239
0.196666
0.195142
0.193665
0.192234
0.190843
0.189484
0.188158
0.186876
0.18564
0.184451
0.183308
0.182213
0.181166
0.180155
0.179179
0.17824
0.177339
0.176478
0.175649
0.174845
0.174055
0.173261
0.172465
0.171653
0.170797
0.169903
0.168984
0.167985
0.166885
0.165677
0.164353
0.162858
0.161127
0.159158
0.156885
0.154241
0.151173
0.147598
0.143457
0.138672
0.133186
0.126936
0.119909
0.112095
0.103517
0.09422
0.0843179
0.07401
0.0635017
0.0529756
0.0427012
0.0331551
0.024904
0.0180895
0.0125259
0.00785467
0.00376904
2.06802e-05
-0.00357062
-0.0071176
-0.010678
-0.0142722
-0.0178994
-0.0215492
-0.0252088
-0.0288663
-0.0325124
-0.0361406
-0.0397469
-0.0433293
-0.0468875
-0.0504221
-0.0539347
-0.0574272
-0.0609016
-0.0643602
-0.0678051
-0.0712381
-0.0746611
-0.0780755
-0.0814829
-0.0848844
-0.0882811
-0.0916739
-0.0950636
-0.0984508
-0.101836
-0.10522
-0.108604
0.220805
0.221231
0.221646
0.222045
0.222421
0.222769
0.223082
0.223352
0.223567
0.223708
0.223749
0.223669
0.223443
0.223046
0.222459
0.221668
0.220662
0.219449
0.218046
0.216471
0.214754
0.212923
0.211022
0.209098
0.207158
0.205226
0.20332
0.20146
0.199642
0.197864
0.196145
0.194487
0.192887
0.191342
0.189854
0.188418
0.187021
0.18567
0.18437
0.183121
0.181926
0.180778
0.179681
0.178636
0.17763
0.176661
0.175733
0.174843
0.173996
0.173182
0.172397
0.171627
0.17085
0.170063
0.169255
0.168395
0.167491
0.166557
0.165534
0.164401
0.163156
0.161784
0.160229
0.158442
0.15641
0.154074
0.151379
0.148277
0.144687
0.140537
0.135762
0.130316
0.124139
0.117199
0.109477
0.100999
0.0918243
0.082019
0.0717011
0.0610652
0.0502784
0.0395586
0.0294865
0.0212338
0.0151327
0.010285
0.00617745
0.00251603
-0.000916192
-0.00427537
-0.00765582
-0.0110996
-0.0146136
-0.0181861
-0.0217983
-0.0254312
-0.0290691
-0.0326998
-0.0363151
-0.0399099
-0.0434817
-0.0470297
-0.0505545
-0.0540575
-0.0575406
-0.0610059
-0.0644556
-0.0678918
-0.0713165
-0.0747314
-0.0781381
-0.0815381
-0.0849324
-0.0883222
-0.0917082
-0.0950914
-0.0984722
-0.101851
-0.10523
-0.108607
0.220854
0.221375
0.221884
0.222375
0.222837
0.223264
0.223646
0.223972
0.224224
0.224382
0.224418
0.224308
0.224028
0.223546
0.222846
0.221913
0.22074
0.219342
0.217738
0.215954
0.214023
0.211981
0.20987
0.207745
0.205629
0.203541
0.201491
0.199499
0.197568
0.195692
0.193886
0.192147
0.190471
0.188861
0.187316
0.185835
0.184405
0.18303
0.181717
0.18046
0.179261
0.178112
0.177014
0.175968
0.174965
0.174001
0.173079
0.172194
0.171352
0.170549
0.169776
0.169019
0.168252
0.167466
0.16665
0.165776
0.164856
0.163893
0.162829
0.161655
0.160372
0.158958
0.157352
0.155515
0.153416
0.151008
0.148258
0.145111
0.141494
0.137338
0.132589
0.127185
0.121082
0.114259
0.106699
0.0983916
0.0893619
0.0796716
0.0694093
0.0586767
0.0475253
0.0359748
0.0244771
0.0160294
0.0117259
0.0080309
0.00459167
0.00134841
-0.00180053
-0.00496032
-0.00819947
-0.0115436
-0.0149874
-0.01851
-0.0220858
-0.0256913
-0.0293073
-0.0329196
-0.0365188
-0.040099
-0.0436572
-0.0471922
-0.0507047
-0.0541958
-0.0576676
-0.061122
-0.0645613
-0.0679875
-0.0714027
-0.0748085
-0.0782065
-0.0815982
-0.0849846
-0.0883667
-0.0917454
-0.0951215
-0.0984955
-0.101868
-0.105239
-0.10861
0.220904
0.221527
0.222137
0.222724
0.223277
0.223786
0.224237
0.224616
0.224902
0.225067
0.225084
0.224931
0.224575
0.223987
0.223147
0.22204
0.220677
0.219069
0.21725
0.215254
0.213102
0.210841
0.208529
0.206211
0.203925
0.201688
0.199502
0.197382
0.195337
0.193363
0.191472
0.189654
0.187909
0.186238
0.184638
0.183114
0.181655
0.180262
0.17894
0.177683
0.176484
0.175336
0.174239
0.17319
0.172189
0.171228
0.170305
0.169414
0.168566
0.167762
0.166997
0.166245
0.165478
0.164682
0.163851
0.162957
0.162014
0.161017
0.159904
0.158678
0.157338
0.15586
0.154207
0.152334
0.150195
0.14774
0.144946
0.141761
0.138109
0.133948
0.129233
0.123904
0.117914
0.111232
0.103831
0.095702
0.086858
0.077332
0.0671951
0.0565133
0.0451813
0.0326758
0.0168595
0.00418133
0.00861134
0.00639262
0.00347517
0.000489605
-0.00249749
-0.00554357
-0.00869936
-0.0119811
-0.0153772
-0.0188622
-0.0224073
-0.0259868
-0.0295799
-0.0331717
-0.0367519
-0.0403144
-0.0438558
-0.0473751
-0.0508726
-0.0543496
-0.0578079
-0.0612496
-0.0646769
-0.0680918
-0.0714963
-0.0748919
-0.0782804
-0.0816629
-0.0850406
-0.0884145
-0.0917853
-0.0951537
-0.0985203
-0.101886
-0.10525
-0.108614
0.220958
0.221688
0.222403
0.223091
0.22374
0.224332
0.224853
0.225282
0.225593
0.225757
0.225741
0.225525
0.225069
0.224346
0.223336
0.222034
0.220446
0.218602
0.21654
0.214321
0.211971
0.209514
0.20702
0.204526
0.202073
0.199687
0.19737
0.195126
0.192968
0.190898
0.188921
0.187028
0.185217
0.183493
0.181843
0.180286
0.178805
0.177397
0.17607
0.174816
0.17362
0.172475
0.17138
0.17033
0.169333
0.16837
0.167441
0.166528
0.165649
0.164831
0.164064
0.163312
0.16253
0.161707
0.16085
0.159931
0.158954
0.15791
0.156748
0.155473
0.154076
0.152525
0.150804
0.148871
0.146669
0.144161
0.141335
0.138151
0.134518
0.130391
0.125731
0.120499
0.114641
0.108122
0.100917
0.0930095
0.0844045
0.0751482
0.0653197
0.0549942
0.0441954
0.0329862
0.0217819
0.0137472
0.00978246
0.00635688
0.00313475
6.62618e-05
-0.00294197
-0.00598783
-0.00913341
-0.012399
-0.0157754
-0.0192384
-0.0227605
-0.0263166
-0.0298866
-0.0334557
-0.0370142
-0.0405558
-0.0440774
-0.047578
-0.0510579
-0.0545183
-0.0579612
-0.0613884
-0.0648021
-0.0682043
-0.0715968
-0.0749813
-0.0783593
-0.0817319
-0.0851003
-0.0884652
-0.0918276
-0.0951878
-0.0985465
-0.101904
-0.105261
-0.108617
0.221016
0.22186
0.222686
0.223479
0.224225
0.224904
0.225493
0.225968
0.226296
0.226446
0.226381
0.226079
0.225496
0.224609
0.2234
0.221872
0.22004
0.217945
0.215636
0.213179
0.210629
0.207995
0.205333
0.202683
0.20008
0.19755
0.195107
0.192748
0.190483
0.188322
0.186264
0.184301
0.182427
0.180654
0.178963
0.17738
0.175883
0.174464
0.173134
0.171882
0.17069
0.169548
0.168454
0.167405
0.166412
0.165453
0.164522
0.163596
0.162681
0.161825
0.161024
0.160244
0.15943
0.158568
0.157659
0.156702
0.155678
0.154572
0.153356
0.15203
0.150569
0.148949
0.147155
0.145165
0.142918
0.14037
0.137507
0.134311
0.130707
0.126639
0.122065
0.116953
0.111255
0.104938
0.0979711
0.090332
0.0820193
0.0730787
0.0636214
0.0538055
0.0437644
0.0337398
0.0243329
0.0167699
0.0113123
0.00698445
0.00329883
-2.22088e-05
-0.00318029
-0.00631731
-0.00951497
-0.0128049
-0.0161861
-0.0196409
-0.0231464
-0.026681
-0.030227
-0.0337713
-0.0373049
-0.0408225
-0.0443212
-0.0478002
-0.0512597
-0.0547013
-0.0581265
-0.0615374
-0.064936
-0.0683241
-0.0717036
-0.075076
-0.0784426
-0.0818047
-0.085163
-0.0885186
-0.0918719
-0.0952236
-0.098574
-0.101924
-0.105273
-0.108621
0.221078
0.222044
0.222987
0.223891
0.224737
0.225503
0.226159
0.226674
0.22701
0.227129
0.226996
0.226579
0.225839
0.224754
0.223324
0.221551
0.219467
0.217122
0.214576
0.211892
0.209134
0.206324
0.203501
0.200702
0.197958
0.195295
0.192733
0.190271
0.187914
0.185671
0.183535
0.181505
0.179578
0.177759
0.176036
0.174428
0.172914
0.171486
0.170153
0.168902
0.167714
0.166575
0.165479
0.164425
0.163423
0.162453
0.161509
0.160574
0.159648
0.158761
0.157913
0.157077
0.156214
0.155305
0.154336
0.153323
0.152236
0.151057
0.149782
0.148394
0.146867
0.145174
0.143297
0.141229
0.13893
0.136347
0.13346
0.130254
0.126687
0.122697
0.118236
0.113274
0.107768
0.101684
0.0949897
0.0876631
0.0797053
0.0711597
0.0621505
0.0528685
0.0434932
0.0342882
0.025726
0.0184176
0.0125056
0.00768517
0.00362066
2.45622e-05
-0.00333001
-0.00660204
-0.00988548
-0.0132228
-0.016623
-0.0200769
-0.0235685
-0.0270814
-0.0306014
-0.0341179
-0.0376234
-0.0411136
-0.0445861
-0.0480403
-0.051477
-0.0548972
-0.0583029
-0.0616957
-0.0650777
-0.0684506
-0.0718159
-0.0751753
-0.0785298
-0.0818806
-0.0852284
-0.0885741
-0.091918
-0.0952607
-0.0986025
-0.101944
-0.105285
-0.108625
0.221146
0.222245
0.223315
0.224335
0.225283
0.226135
0.226855
0.227404
0.227736
0.227805
0.227579
0.227016
0.226085
0.224777
0.223095
0.221065
0.21873
0.216139
0.213363
0.210468
0.207511
0.204528
0.201548
0.198603
0.195727
0.192945
0.19027
0.187714
0.185278
0.182973
0.180773
0.178675
0.176695
0.174836
0.173088
0.171459
0.169926
0.168483
0.167135
0.165879
0.164694
0.163564
0.162475
0.161418
0.160405
0.159418
0.15845
0.157495
0.156551
0.15563
0.154732
0.153834
0.152906
0.151934
0.150902
0.149818
0.148656
0.147398
0.146052
0.144586
0.142986
0.141213
0.139257
0.137107
0.13475
0.132132
0.12923
0.126022
0.122486
0.118575
0.114242
0.109457
0.104176
0.0983595
0.091978
0.0850089
0.0774532
0.0693477
0.0608073
0.0520124
0.0431502
0.0344797
0.0263814
0.0192322
0.0131865
0.00812749
0.00381772
4.67012e-06
-0.00352566
-0.00692801
-0.0102981
-0.0136845
-0.0171041
-0.0205562
-0.0240317
-0.0275196
-0.03101
-0.0344947
-0.0379682
-0.0414273
-0.0448703
-0.0482969
-0.051708
-0.0551048
-0.0584889
-0.0618621
-0.0652261
-0.0685825
-0.0719328
-0.0752784
-0.0786201
-0.0819591
-0.0852959
-0.0886312
-0.0919654
-0.0952989
-0.0986318
-0.101964
-0.105297
-0.108629
0.221226
0.222479
0.223689
0.224832
0.225883
0.226817
0.227596
0.228168
0.22848
0.228476
0.228127
0.22738
0.22622
0.224655
0.222711
0.220426
0.217848
0.215027
0.212032
0.208938
0.205798
0.202648
0.199516
0.196429
0.193421
0.190526
0.18775
0.185102
0.182585
0.180229
0.177984
0.175833
0.173802
0.17191
0.170148
0.1685
0.166958
0.165508
0.16415
0.162877
0.161679
0.16054
0.15945
0.158384
0.157357
0.156354
0.155357
0.154375
0.153403
0.152441
0.151485
0.15052
0.149524
0.148479
0.147375
0.146215
0.144971
0.14363
0.142204
0.14065
0.138968
0.137107
0.135072
0.132838
0.130412
0.127749
0.124833
0.121642
0.118149
0.114323
0.110128
0.105534
0.100499
0.0949758
0.0889324
0.0823467
0.075218
0.0675681
0.0594837
0.0511236
0.0426654
0.0343282
0.0264175
0.0192976
0.013227
0.00809995
0.00368942
-0.000239178
-0.00387936
-0.00737044
-0.0108009
-0.0142192
-0.0176464
-0.0210877
-0.0245399
-0.0279968
-0.031452
-0.0349001
-0.0383373
-0.0417615
-0.0451716
-0.0485678
-0.0519509
-0.0553221
-0.0586829
-0.0620349
-0.0653798
-0.0687188
-0.0720532
-0.0753842
-0.0787127
-0.0820393
-0.0853648
-0.0886894
-0.0920137
-0.0953377
-0.0986616
-0.101986
-0.105309
-0.108633
0.221324
0.222764
0.224138
0.225415
0.226568
0.227576
0.228403
0.228983
0.229252
0.229151
0.228638
0.227671
0.226247
0.224396
0.222171
0.21963
0.216825
0.213798
0.210606
0.207326
0.204011
0.200704
0.197432
0.194214
0.191079
0.188065
0.185192
0.182466
0.179883
0.177477
0.175208
0.173045
0.170987
0.169058
0.167269
0.165593
0.164024
0.162557
0.161189
0.1599
0.158685
0.15753
0.156425
0.155342
0.154298
0.153277
0.152245
0.151231
0.15022
0.14921
0.148194
0.14716
0.146093
0.144973
0.143793
0.142553
0.141223
0.139798
0.138278
0.136631
0.13486
0.13291
0.130792
0.128479
0.125982
0.123265
0.120315
0.117131
0.113688
0.109953
0.105899
0.101513
0.0967445
0.0915365
0.0858551
0.0796708
0.0729695
0.0657616
0.0580979
0.0500978
0.0419157
0.0337106
0.0257488
0.0184815
0.0124755
0.00746068
0.00311669
-0.000799979
-0.00445961
-0.00797708
-0.0114253
-0.0148462
-0.0182608
-0.0216768
-0.0250948
-0.0285122
-0.0319255
-0.0353315
-0.0387279
-0.0421133
-0.0454873
-0.0488503
-0.0522031
-0.0555469
-0.0588829
-0.0622125
-0.0655372
-0.0688579
-0.0721758
-0.0754918
-0.0788065
-0.0821206
-0.0854344
-0.0887482
-0.0920623
-0.0953767
-0.0986915
-0.102007
-0.105322
-0.108638
0.221448
0.223123
0.224698
0.226129
0.227382
0.228451
0.229304
0.229874
0.230071
0.22984
0.229131
0.227919
0.226214
0.224056
0.221527
0.21872
0.215696
0.212482
0.209117
0.205667
0.202184
0.198717
0.195308
0.19198
0.188759
0.185668
0.182718
0.179911
0.177252
0.174768
0.172429
0.170234
0.168159
0.166221
0.164419
0.162734
0.161144
0.159658
0.158272
0.156961
0.155724
0.154551
0.153423
0.152318
0.151252
0.150208
0.14914
0.148091
0.147038
0.145976
0.144899
0.143801
0.142661
0.141467
0.140212
0.138892
0.137477
0.13597
0.134351
0.132609
0.13074
0.128704
0.126501
0.124109
0.121543
0.11878
0.115789
0.112584
0.10919
0.105552
0.101636
0.0974453
0.09295
0.0880696
0.0827509
0.0769615
0.0706719
0.0638814
0.056608
0.048912
0.0408669
0.0325585
0.0242047
0.0164394
0.0107514
0.0061397
0.0020689
-0.00169843
-0.00528391
-0.00876214
-0.0121815
-0.0155719
-0.01895
-0.0223235
-0.0256947
-0.0290631
-0.0324272
-0.0357852
-0.0391361
-0.042479
-0.045814
-0.0491414
-0.0524619
-0.0557766
-0.0590866
-0.0623929
-0.0656965
-0.0689984
-0.0722993
-0.0755999
-0.0789006
-0.0822019
-0.085504
-0.0888069
-0.0921108
-0.0954157
-0.0987213
-0.102028
-0.105335
-0.108642
0.221608
0.223583
0.225406
0.227017
0.228373
0.229484
0.230335
0.230863
0.23096
0.230564
0.229627
0.228138
0.226136
0.223678
0.220854
0.217772
0.21452
0.211122
0.207606
0.204013
0.200389
0.196792
0.193279
0.189856
0.186544
0.18337
0.180351
0.177483
0.174764
0.172215
0.169812
0.167564
0.165454
0.163486
0.161649
0.15994
0.15833
0.156822
0.155413
0.154076
0.152813
0.151619
0.150467
0.149339
0.148249
0.147175
0.146078
0.144992
0.143899
0.142786
0.141656
0.1405
0.139293
0.138031
0.136706
0.135308
0.133814
0.132221
0.130509
0.128671
0.126703
0.124578
0.122289
0.119806
0.117172
0.114386
0.111353
0.108113
0.104734
0.101175
0.0974023
0.0934059
0.0891663
0.0846005
0.0796209
0.0741867
0.0682568
0.0618342
0.0548879
0.0474202
0.0394144
0.0308191
0.0215832
0.0122845
0.00789845
0.00420551
0.000627681
-0.00288078
-0.00632213
-0.00970937
-0.0130601
-0.0163897
-0.0197085
-0.0230225
-0.0263341
-0.0296439
-0.0329515
-0.0362562
-0.0395572
-0.0428543
-0.0461476
-0.0494373
-0.0527241
-0.0560085
-0.0592915
-0.0625737
-0.0658559
-0.0691385
-0.0724222
-0.0757072
-0.0789939
-0.0822824
-0.0855727
-0.0888648
-0.0921586
-0.095454
-0.0987507
-0.102048
-0.105347
-0.108646
0.221816
0.224176
0.226299
0.228118
0.229582
0.230719
0.23154
0.231986
0.231953
0.231365
0.230179
0.22839
0.226063
0.223297
0.220193
0.216848
0.213355
0.209773
0.206145
0.202465
0.198734
0.195008
0.19136
0.187824
0.184425
0.181176
0.178084
0.175149
0.172372
0.169769
0.167316
0.165018
0.162866
0.160865
0.158984
0.157237
0.155596
0.154058
0.152621
0.15126
0.149974
0.148757
0.147586
0.146438
0.145329
0.144229
0.143109
0.141995
0.140867
0.139715
0.138542
0.13734
0.136079
0.134762
0.133378
0.131919
0.130363
0.128692
0.126898
0.124968
0.122905
0.120698
0.118336
0.115759
0.113028
0.110219
0.107135
0.103875
0.100502
0.0970043
0.093351
0.0895245
0.0854851
0.0811776
0.0764719
0.0712941
0.0656058
0.0594457
0.0528043
0.0456047
0.0377263
0.0288904
0.0182558
0.00257988
0.0042839
0.00206206
-0.00098532
-0.00423283
-0.00751275
-0.0107831
-0.0140387
-0.017284
-0.0205245
-0.023764
-0.0270047
-0.0302473
-0.0334919
-0.0367381
-0.0399856
-0.0432341
-0.0464836
-0.0497341
-0.052986
-0.0562394
-0.0594949
-0.0627527
-0.0660131
-0.0692765
-0.0725429
-0.0758125
-0.0790852
-0.082361
-0.0856398
-0.0889213
-0.0922052
-0.0954913
-0.0987792
-0.102069
-0.105359
-0.10865
0.222082
0.224927
0.227416
0.229465
0.231041
0.232187
0.232955
0.233285
0.233101
0.232319
0.230897
0.228829
0.226193
0.223115
0.219716
0.216107
0.212397
0.208625
0.204842
0.20107
0.197263
0.19345
0.189694
0.186059
0.182577
0.179243
0.176066
0.173051
0.170204
0.167523
0.164991
0.162622
0.160401
0.15835
0.156415
0.154623
0.152946
0.151377
0.149911
0.148529
0.147223
0.145993
0.144811
0.143657
0.142538
0.141428
0.1403
0.13917
0.138021
0.136847
0.135647
0.134413
0.133121
0.131768
0.130351
0.128856
0.12726
0.125536
0.123671
0.121656
0.119494
0.117186
0.114732
0.112095
0.109296
0.106446
0.103345
0.100086
0.0967399
0.0933157
0.0897459
0.0860106
0.0819924
0.0777462
0.073177
0.0680522
0.0624337
0.0563465
0.0498715
0.0428634
0.035303
0.0267202
0.0179576
0.00826497
0.00392628
0.000643206
-0.00249932
-0.00564526
-0.00879626
-0.0119449
-0.0150902
-0.0182349
-0.0213825
-0.0245356
-0.0276958
-0.0308639
-0.0340399
-0.0372237
-0.0404147
-0.0436126
-0.0468169
-0.0500274
-0.0532438
-0.0564659
-0.0596938
-0.0629272
-0.0661661
-0.0694104
-0.0726598
-0.0759142
-0.0791733
-0.0824368
-0.0857043
-0.0889755
-0.0922499
-0.0955271
-0.0988065
-0.102088
-0.10537
-0.108654
0.2224
0.225829
0.228754
0.23106
0.232755
0.233909
0.234607
0.234807
0.23446
0.233493
0.231872
0.22959
0.226714
0.22336
0.219653
0.215735
0.211738
0.207734
0.203749
0.199815
0.195904
0.192023
0.188203
0.184501
0.180959
0.177569
0.174319
0.171214
0.168272
0.165497
0.162857
0.160392
0.158079
0.155947
0.153944
0.152096
0.15038
0.148785
0.147301
0.145911
0.144601
0.143375
0.142203
0.141061
0.139954
0.138852
0.137735
0.136607
0.135455
0.134278
0.133074
0.131836
0.130546
0.129199
0.127791
0.126305
0.124718
0.122986
0.121072
0.118981
0.116727
0.114317
0.111754
0.10904
0.1062
0.103334
0.100311
0.0971089
0.0938609
0.0905469
0.0869742
0.0831143
0.0786108
0.0737723
0.0691709
0.0636304
0.0580532
0.0514931
0.0447703
0.0367749
0.0308364
0.0204631
0.0160097
0.00887311
0.00173687
-0.00104718
-0.00411044
-0.00713311
-0.010149
-0.0131666
-0.0161897
-0.0192216
-0.0222653
-0.0253227
-0.0283951
-0.0314831
-0.0345865
-0.0377049
-0.0408376
-0.0439836
-0.0471422
-0.0503123
-0.0534934
-0.0566845
-0.0598851
-0.0630947
-0.0663126
-0.0695383
-0.0727713
-0.076011
-0.079257
-0.0825087
-0.0857655
-0.0890269
-0.0922922
-0.0955609
-0.0988324
-0.102106
-0.105381
-0.108657
0.222767
0.226857
0.230277
0.232887
0.234729
0.235902
0.236523
0.236598
0.236093
0.234968
0.233201
0.230756
0.227688
0.2241
0.220132
0.215962
0.211738
0.207507
0.203285
0.199138
0.195063
0.191042
0.187113
0.183334
0.179741
0.176292
0.17294
0.16971
0.166637
0.163732
0.160945
0.158334
0.155894
0.153647
0.151565
0.149655
0.147905
0.146311
0.144846
0.143482
0.142203
0.141008
0.139872
0.138767
0.137691
0.136614
0.135521
0.134411
0.133276
0.132119
0.130946
0.129756
0.128536
0.127276
0.125942
0.124512
0.123007
0.121336
0.119407
0.117231
0.11485
0.112299
0.109628
0.106868
0.104013
0.10118
0.0983115
0.0951117
0.092013
0.0887559
0.0846064
0.079807
0.0740038
0.0667798
0.0616707
0.0537017
0.047837
0.0369883
0.0305608
0.0195854
0.0192096
0.00929377
0.007662
0.00193565
-5.51033e-06
-0.00300941
-0.00585338
-0.00869478
-0.0115516
-0.0144242
-0.0173141
-0.0202238
-0.0231555
-0.0261105
-0.0290898
-0.0320936
-0.0351216
-0.038173
-0.0412465
-0.0443405
-0.0474536
-0.0505841
-0.0537305
-0.0568915
-0.0600658
-0.0632524
-0.0664502
-0.0696582
-0.0728756
-0.0761015
-0.0793352
-0.0825758
-0.0858225
-0.0890747
-0.0923315
-0.0955923
-0.0988563
-0.102123
-0.105391
-0.108661
0.223155
0.227955
0.231928
0.234897
0.236936
0.238168
0.23874
0.238718
0.238094
0.236872
0.235035
0.232501
0.229317
0.22555
0.221334
0.216857
0.212308
0.207787
0.203345
0.198994
0.194707
0.190509
0.186441
0.182585
0.178968
0.175483
0.17203
0.16864
0.165379
0.162278
0.159302
0.156481
0.153859
0.151463
0.149292
0.147343
0.145593
0.14406
0.142697
0.141432
0.140231
0.139098
0.138018
0.13696
0.135911
0.134859
0.133789
0.132709
0.131624
0.130547
0.129484
0.128446
0.127416
0.126371
0.125229
0.123825
0.122446
0.120593
0.118571
0.116165
0.113529
0.110675
0.107707
0.104788