/*--------------------------------*- C++ -*----------------------------------*\
  =========                 |
  \\      /  F ield         | OpenFOAM: The Open Source CFD Toolbox
   \\    /   O peration     | Website:  https://openfoam.org
    \\  /    A nd           | Version:  6
     \\/     M anipulation  |
\*---------------------------------------------------------------------------*/
FoamFile
{
    version     2.0;
    format      ascii;
    class       volScalarField;
    location    "3500";
    object      T;
}
// * * * * * * * * * * * * * * * * * * * * * * * * * * * * * * * * * * * * * //

dimensions      [0 0 0 1 0 0 0];

internalField   nonuniform List<scalar> 
4800
(
552.548
552.545
552.541
552.537
552.534
552.529
552.525
552.52
552.515
552.509
552.503
552.495
552.487
552.478
552.467
552.455
552.441
552.425
552.409
552.39
552.37
552.349
552.325
552.301
552.275
552.247
552.218
552.188
552.156
552.124
552.091
552.057
552.022
551.986
551.949
551.912
551.874
551.835
551.796
551.756
551.716
551.676
551.636
551.597
551.558
551.52
551.483
551.446
551.409
551.374
551.339
551.305
551.271
551.238
551.205
551.173
551.141
551.108
551.074
551.039
551.002
550.962
550.917
550.867
550.808
550.739
550.656
550.556
550.433
550.284
550.105
549.891
549.64
549.352
549.029
548.677
548.303
547.916
547.519
547.113
546.698
546.275
545.841
545.396
544.938
544.863
544.772
544.669
544.556
544.436
544.311
544.182
544.052
543.92
543.788
543.655
543.523
543.391
543.259
543.129
542.998
542.869
542.74
542.612
542.484
542.357
542.231
542.105
541.979
541.854
541.729
541.604
541.48
541.355
541.231
541.107
540.983
540.859
540.736
540.612
552.548
552.545
552.542
552.539
552.535
552.531
552.527
552.523
552.518
552.512
552.506
552.499
552.491
552.482
552.471
552.459
552.445
552.429
552.412
552.393
552.372
552.35
552.325
552.3
552.273
552.244
552.214
552.183
552.151
552.117
552.083
552.049
552.013
551.976
551.939
551.901
551.862
551.823
551.784
551.744
551.704
551.664
551.624
551.585
551.546
551.508
551.471
551.434
551.398
551.362
551.327
551.293
551.26
551.227
551.194
551.162
551.129
551.097
551.063
551.028
550.991
550.951
550.906
550.855
550.796
550.727
550.643
550.542
550.419
550.271
550.092
549.878
549.629
549.345
549.027
548.678
548.307
547.919
547.522
547.117
546.704
546.284
545.854
545.411
544.952
544.878
544.785
544.679
544.562
544.44
544.313
544.184
544.053
543.921
543.788
543.655
543.523
543.391
543.259
543.128
542.998
542.869
542.74
542.612
542.484
542.357
542.23
542.104
541.979
541.853
541.729
541.604
541.479
541.355
541.231
541.107
540.983
540.859
540.736
540.612
552.549
552.546
552.544
552.541
552.538
552.535
552.532
552.528
552.524
552.519
552.513
552.507
552.499
552.49
552.48
552.467
552.453
552.437
552.418
552.398
552.376
552.351
552.325
552.298
552.269
552.238
552.206
552.173
552.139
552.104
552.068
552.032
551.995
551.957
551.919
551.88
551.84
551.8
551.76
551.72
551.68
551.64
551.6
551.561
551.522
551.484
551.447
551.41
551.374
551.339
551.305
551.271
551.238
551.205
551.172
551.14
551.108
551.075
551.042
551.007
550.97
550.929
550.884
550.832
550.772
550.702
550.617
550.516
550.392
550.244
550.066
549.855
549.61
549.33
549.016
548.673
548.305
547.919
547.522
547.119
546.712
546.298
545.877
545.444
544.986
544.912
544.812
544.697
544.575
544.448
544.319
544.187
544.055
543.922
543.789
543.656
543.523
543.39
543.259
543.128
542.997
542.868
542.739
542.611
542.483
542.356
542.23
542.104
541.978
541.853
541.728
541.603
541.479
541.355
541.231
541.107
540.983
540.859
540.735
540.612
552.549
552.548
552.547
552.545
552.543
552.541
552.538
552.536
552.532
552.528
552.524
552.518
552.511
552.502
552.492
552.479
552.464
552.446
552.427
552.405
552.38
552.353
552.325
552.294
552.262
552.229
552.194
552.158
552.121
552.083
552.045
552.007
551.968
551.928
551.888
551.848
551.807
551.767
551.726
551.685
551.644
551.604
551.565
551.525
551.487
551.449
551.412
551.376
551.34
551.306
551.272
551.238
551.206
551.173
551.141
551.109
551.077
551.044
551.011
550.975
550.938
550.896
550.85
550.798
550.737
550.665
550.58
550.477
550.353
550.204
550.026
549.818
549.575
549.298
548.989
548.651
548.287
547.905
547.513
547.116
546.716
546.314
545.911
545.501
545.062
544.972
544.852
544.722
544.591
544.458
544.325
544.191
544.057
543.923
543.789
543.656
543.522
543.39
543.258
543.127
542.996
542.867
542.738
542.61
542.482
542.355
542.229
542.103
541.977
541.852
541.727
541.603
541.478
541.354
541.23
541.106
540.983
540.859
540.735
540.612
552.55
552.55
552.55
552.55
552.549
552.549
552.547
552.546
552.544
552.541
552.538
552.533
552.526
552.518
552.507
552.494
552.477
552.458
552.436
552.412
552.384
552.354
552.322
552.288
552.252
552.215
552.176
552.137
552.096
552.055
552.014
551.973
551.931
551.89
551.848
551.806
551.765
551.723
551.681
551.639
551.598
551.558
551.518
551.479
551.441
551.403
551.367
551.331
551.296
551.262
551.229
551.196
551.164
551.132
551.1
551.068
551.036
551.004
550.97
550.934
550.896
550.854
550.807
550.753
550.69
550.617
550.531
550.427
550.302
550.154
549.978
549.771
549.531
549.258
548.953
548.618
548.259
547.883
547.496
547.105
546.714
546.327
545.949
545.586
545.264
545.064
544.899
544.749
544.606
544.467
544.33
544.194
544.058
543.924
543.789
543.655
543.522
543.389
543.257
543.125
542.995
542.865
542.736
542.608
542.481
542.354
542.228
542.102
541.976
541.851
541.726
541.602
541.478
541.354
541.23
541.106
540.982
540.859
540.735
540.612
552.551
552.553
552.555
552.556
552.557
552.558
552.558
552.559
552.558
552.557
552.554
552.55
552.544
552.536
552.525
552.51
552.492
552.471
552.446
552.418
552.386
552.352
552.316
552.277
552.237
552.195
552.152
552.109
552.064
552.02
551.975
551.931
551.886
551.843
551.799
551.756
551.712
551.669
551.626
551.584
551.542
551.502
551.462
551.423
551.385
551.348
551.312
551.277
551.243
551.209
551.177
551.145
551.113
551.081
551.05
551.019
550.987
550.954
550.92
550.884
550.844
550.802
550.753
550.698
550.634
550.558
550.47
550.365
550.24
550.091
549.916
549.711
549.474
549.205
548.904
548.575
548.224
547.853
547.47
547.084
546.7
546.326
545.967
545.635
545.346
545.119
544.932
544.767
544.616
544.472
544.332
544.195
544.058
543.923
543.788
543.654
543.52
543.387
543.255
543.123
542.993
542.863
542.735
542.606
542.479
542.352
542.226
542.1
541.975
541.85
541.725
541.601
541.477
541.353
541.229
541.106
540.982
540.858
540.735
540.612
552.552
552.556
552.56
552.563
552.567
552.569
552.572
552.573
552.575
552.575
552.574
552.57
552.565
552.556
552.544
552.528
552.508
552.483
552.454
552.422
552.386
552.347
552.305
552.261
552.216
552.169
552.121
552.073
552.024
551.976
551.928
551.88
551.833
551.787
551.741
551.696
551.651
551.607
551.563
551.52
551.478
551.437
551.397
551.358
551.321
551.284
551.248
551.214
551.181
551.148
551.116
551.085
551.054
551.023
550.992
550.961
550.929
550.896
550.862
550.825
550.785
550.741
550.691
550.635
550.569
550.492
550.402
550.295
550.169
550.02
549.845
549.642
549.408
549.143
548.847
548.524
548.175
547.807
547.427
547.046
546.67
546.305
545.959
545.643
545.366
545.136
544.94
544.77
544.615
544.47
544.33
544.192
544.056
543.92
543.786
543.651
543.517
543.384
543.252
543.121
542.99
542.861
542.732
542.604
542.477
542.35
542.224
542.098
541.973
541.848
541.724
541.6
541.476
541.352
541.228
541.105
540.981
540.858
540.735
540.612
552.553
552.56
552.566
552.572
552.577
552.582
552.586
552.59
552.593
552.595
552.595
552.592
552.586
552.577
552.564
552.545
552.522
552.494
552.461
552.423
552.382
552.337
552.289
552.24
552.188
552.136
552.083
552.03
551.977
551.924
551.872
551.822
551.772
551.723
551.675
551.628
551.582
551.536
551.491
551.447
551.405
551.364
551.324
551.286
551.248
551.212
551.177
551.144
551.111
551.079
551.048
551.018
550.988
550.958
550.927
550.896
550.864
550.831
550.796
550.759
550.717
550.672
550.621
550.562
550.495
550.416
550.324
550.216
550.089
549.94
549.766
549.564
549.333
549.071
548.78
548.46
548.115
547.75
547.375
546.995
546.62
546.258
545.919
545.613
545.345
545.118
544.925
544.756
544.604
544.46
544.322
544.186
544.051
543.916
543.782
543.647
543.514
543.381
543.249
543.118
542.987
542.858
542.729
542.601
542.474
542.348
542.222
542.096
541.971
541.847
541.722
541.598
541.475
541.351
541.227
541.104
540.981
540.858
540.735
540.612
552.555
552.564
552.573
552.581
552.589
552.596
552.603
552.609
552.613
552.616
552.617
552.615
552.609
552.598
552.583
552.562
552.535
552.502
552.464
552.421
552.373
552.321
552.267
552.211
552.154
552.095
552.037
551.98
551.922
551.865
551.809
551.755
551.703
551.652
551.602
551.553
551.505
551.458
551.413
551.368
551.325
551.284
551.245
551.206
551.169
551.134
551.099
551.066
551.034
551.003
550.973
550.944
550.914
550.885
550.855
550.824
550.792
550.759
550.723
550.685
550.642
550.595
550.543
550.482
550.413
550.332
550.238
550.128
549.999
549.849
549.675
549.475
549.247
548.989
548.703
548.388
548.048
547.687
547.311
546.93
546.554
546.191
545.853
545.551
545.291
545.073
544.888
544.727
544.581
544.443
544.309
544.176
544.043
543.909
543.776
543.642
543.509
543.377
543.245
543.114
542.983
542.854
542.726
542.598
542.471
542.345
542.219
542.094
541.969
541.845
541.721
541.597
541.473
541.35
541.226
541.103
540.98
540.857
540.734
540.611
552.556
552.568
552.58
552.592
552.602
552.612
552.621
552.629
552.635
552.639
552.64
552.638
552.631
552.619
552.601
552.577
552.545
552.507
552.463
552.413
552.358
552.3
552.239
552.176
552.112
552.048
551.984
551.921
551.859
551.799
551.74
551.683
551.627
551.574
551.522
551.471
551.422
551.374
551.328
551.283
551.24
551.198
551.158
551.12
551.084
551.048
551.014
550.982
550.95
550.92
550.891
550.862
550.834
550.805
550.775
550.744
550.712
550.678
550.642
550.602
550.559
550.51
550.456
550.393
550.322
550.24
550.144
550.033
549.903
549.753
549.579
549.38
549.154
548.899
548.615
548.304
547.967
547.608
547.234
546.853
546.472
546.099
545.753
545.454
545.207
545.005
544.836
544.687
544.551
544.42
544.292
544.163
544.032
543.901
543.768
543.636
543.503
543.371
543.239
543.109
542.979
542.85
542.721
542.594
542.467
542.341
542.216
542.091
541.966
541.842
541.718
541.595
541.472
541.348
541.225
541.102
540.98
540.857
540.734
540.611
552.558
552.573
552.588
552.603
552.616
552.629
552.64
552.65
552.658
552.663
552.664
552.662
552.653
552.639
552.618
552.589
552.552
552.508
552.458
552.401
552.338
552.272
552.203
552.133
552.063
551.993
551.924
551.856
551.79
551.726
551.664
551.603
551.545
551.489
551.435
551.383
551.333
551.284
551.237
551.191
551.148
551.106
551.067
551.029
550.992
550.957
550.923
550.891
550.86
550.831
550.802
550.774
550.746
550.718
550.688
550.657
550.624
550.59
550.553
550.512
550.467
550.417
550.361
550.296
550.222
550.138
550.04
549.927
549.797
549.647
549.474
549.276
549.052
548.801
548.52
548.213
547.88
547.525
547.151
546.765
546.374
545.985
545.621
545.321
545.1
544.924
544.775
544.642
544.517
544.395
544.272
544.147
544.02
543.89
543.759
543.628
543.496
543.364
543.233
543.103
542.973
542.844
542.717
542.59
542.463
542.338
542.212
542.088
541.964
541.84
541.716
541.593
541.47
541.347
541.224
541.101
540.979
540.856
540.734
540.611
552.56
552.578
552.597
552.615
552.631
552.647
552.661
552.673
552.682
552.687
552.689
552.685
552.674
552.657
552.632
552.598
552.555
552.505
552.446
552.382
552.312
552.238
552.161
552.084
552.007
551.932
551.857
551.785
551.715
551.647
551.582
551.519
551.458
551.399
551.343
551.29
551.238
551.188
551.14
551.095
551.051
551.01
550.97
550.932
550.895
550.861
550.827
550.795
550.764
550.735
550.707
550.68
550.652
550.623
550.594
550.562
550.529
550.494
550.455
550.413
550.366
550.315
550.257
550.19
550.114
550.026
549.927
549.813
549.681
549.531
549.359
549.163
548.941
548.694
548.42
548.118
547.791
547.44
547.067
546.678
546.274
545.856
545.439
545.133
544.977
544.843
544.718
544.6
544.485
544.37
544.253
544.131
544.006
543.879
543.749
543.618
543.487
543.356
543.226
543.096
542.967
542.839
542.711
542.585
542.459
542.333
542.209
542.084
541.96
541.837
541.714
541.591
541.468
541.345
541.223
541.1
540.978
540.856
540.733
540.611
552.561
552.584
552.606
552.627
552.647
552.666
552.682
552.696
552.706
552.712
552.713
552.707
552.694
552.673
552.642
552.602
552.553
552.495
552.429
552.356
552.278
552.196
552.113
552.028
551.946
551.864
551.785
551.708
551.634
551.563
551.494
551.428
551.365
551.304
551.246
551.191
551.138
551.088
551.04
550.994
550.951
550.909
550.869
550.831
550.795
550.76
550.726
550.694
550.663
550.634
550.606
550.579
550.551
550.522
550.492
550.46
550.426
550.389
550.349
550.305
550.256
550.202
550.142
550.075
549.997
549.908
549.807
549.691
549.559
549.408
549.237
549.044
548.826
548.584
548.316
548.021
547.7
547.355
546.987
546.6
546.189
545.736
545.172
544.817
544.864
544.784
544.677
544.569
544.46
544.349
544.234
544.115
543.992
543.866
543.737
543.607
543.477
543.347
543.217
543.088
542.96
542.832
542.705
542.579
542.454
542.329
542.204
542.081
541.957
541.834
541.711
541.588
541.466
541.344
541.221
541.099
540.977
540.855
540.733
540.611
552.563
552.59
552.616
552.641
552.664
552.686
552.704
552.72
552.731
552.737
552.737
552.729
552.712
552.686
552.649
552.602
552.544
552.478
552.403
552.322
552.237
552.148
552.058
551.967
551.878
551.792
551.708
551.626
551.548
551.473
551.401
551.333
551.267
551.205
551.145
551.088
551.035
550.984
550.936
550.89
550.847
550.805
550.765
550.727
550.691
550.656
550.623
550.589
550.558
550.528
550.5
550.473
550.444
550.415
550.383
550.35
550.315
550.277
550.235
550.188
550.138
550.081
550.019
549.949
549.869
549.778
549.676
549.56
549.428
549.279
549.11
548.92
548.708
548.471
548.21
547.923
547.611
547.275
546.919
546.545
546.153
545.747
545.341
545.05
544.906
544.782
544.665
544.553
544.444
544.333
544.219
544.1
543.978
543.852
543.724
543.596
543.466
543.337
543.208
543.079
542.951
542.825
542.698
542.573
542.448
542.324
542.2
542.076
541.953
541.831
541.708
541.586
541.464
541.342
541.22
541.098
540.976
540.854
540.733
540.611
552.565
552.596
552.626
552.655
552.682
552.706
552.728
552.745
552.757
552.762
552.76
552.749
552.728
552.695
552.652
552.596
552.53
552.454
552.37
552.281
552.188
552.093
551.997
551.9
551.806
551.714
551.626
551.54
551.458
551.38
551.305
551.234
551.166
551.102
551.04
550.983
550.929
550.877
550.829
550.784
550.74
550.699
550.659
550.621
550.585
550.55
550.517
550.483
550.45
550.419
550.39
550.361
550.332
550.301
550.268
550.233
550.196
550.156
550.112
550.064
550.011
549.952
549.887
549.815
549.733
549.641
549.537
549.421
549.29
549.143
548.977
548.791
548.585
548.356
548.103
547.826
547.524
547.2
546.857
546.502
546.138
545.774
545.434
545.16
544.962
544.805
544.671
544.55
544.435
544.321
544.205
544.085
543.963
543.838
543.71
543.582
543.454
543.325
543.197
543.07
542.943
542.816
542.691
542.566
542.442
542.318
542.195
542.072
541.95
541.827
541.705
541.583
541.461
541.34
541.218
541.097
540.975
540.854
540.732
540.611
552.568
552.603
552.637
552.67
552.7
552.728
552.752
552.77
552.783
552.787
552.782
552.767
552.74
552.701
552.649
552.584
552.509
552.424
552.332
552.234
552.134
552.032
551.93
551.829
551.729
551.633
551.54
551.45
551.365
551.284
551.206
551.133
551.063
550.997
550.934
550.876
550.821
550.769
550.721
550.676
550.632
550.591
550.551
550.513
550.477
550.442
550.407
550.373
550.34
550.308
550.277
550.247
550.215
550.182
550.147
550.11
550.071
550.028
549.982
549.932
549.876
549.815
549.747
549.672
549.588
549.495
549.39
549.274
549.144
549
548.838
548.658
548.458
548.238
547.995
547.729
547.441
547.131
546.804
546.468
546.128
545.794
545.484
545.219
545.005
544.83
544.682
544.551
544.429
544.31
544.191
544.07
543.947
543.822
543.695
543.568
543.44
543.313
543.186
543.059
542.933
542.808
542.683
542.559
542.436
542.313
542.19
542.068
541.946
541.824
541.702
541.581
541.459
541.338
541.216
541.095
540.974
540.853
540.732
540.611
552.57
552.61
552.649
552.686
552.72
552.751
552.777
552.797
552.809
552.811
552.803
552.783
552.749
552.701
552.64
552.567
552.482
552.388
552.287
552.183
552.075
551.967
551.859
551.752
551.648
551.547
551.45
551.358
551.269
551.186
551.106
551.03
550.958
550.891
550.827
550.768
550.713
550.66
550.611
550.566
550.523
550.482
550.442
550.404
550.367
550.331
550.296
550.262
550.228
550.194
550.162
550.129
550.095
550.06
550.023
549.983
549.941
549.895
549.847
549.794
549.735
549.671
549.6
549.522
549.437
549.342
549.237
549.12
548.992
548.85
548.693
548.519
548.328
548.117
547.886
547.633
547.359
547.065
546.755
546.436
546.115
545.801
545.507
545.248
545.029
544.845
544.689
544.55
544.422
544.299
544.176
544.054
543.93
543.804
543.678
543.552
543.425
543.299
543.173
543.048
542.923
542.798
542.675
542.552
542.429
542.307
542.185
542.063
541.941
541.82
541.699
541.578
541.457
541.336
541.215
541.094
540.973
540.852
540.731
540.61
552.573
552.618
552.662
552.704
552.742
552.776
552.804
552.824
552.836
552.836
552.823
552.796
552.754
552.697
552.626
552.543
552.45
552.348
552.239
552.127
552.013
551.899
551.785
551.673
551.564
551.459
551.359
551.263
551.172
551.086
551.005
550.927
550.853
550.784
550.721
550.661
550.605
550.552
550.503
550.457
550.413
550.372
550.333
550.294
550.257
550.22
550.184
550.149
550.113
550.078
550.044
550.009
549.973
549.935
549.895
549.853
549.807
549.759
549.707
549.651
549.59
549.522
549.448
549.367
549.279
549.183
549.077
548.961
548.835
548.696
548.544
548.377
548.195
547.994
547.775
547.536
547.278
547
546.707
546.404
546.097
545.795
545.508
545.25
545.03
544.844
544.684
544.541
544.409
544.283
544.158
544.034
543.91
543.785
543.66
543.535
543.409
543.284
543.16
543.035
542.912
542.789
542.666
542.544
542.422
542.3
542.179
542.058
541.937
541.816
541.695
541.575
541.454
541.334
541.213
541.092
540.972
540.851
540.731
540.61
552.577
552.629
552.679
552.725
552.767
552.803
552.833
552.854
552.864
552.86
552.841
552.806
552.754
552.687
552.607
552.514
552.413
552.303
552.187
552.068
551.948
551.828
551.71
551.593
551.479
551.37
551.266
551.167
551.073
550.986
550.904
550.826
550.751
550.681
550.616
550.555
550.498
550.445
550.396
550.349
550.305
550.263
550.223
550.184
550.146
550.109
550.071
550.035
549.998
549.961
549.924
549.887
549.848
549.808
549.765
549.72
549.672
549.62
549.565
549.505
549.441
549.37
549.293
549.209
549.119
549.02
548.913
548.798
548.673
548.538
548.39
548.231
548.058
547.87
547.664
547.439
547.196
546.935
546.657
546.367
546.07
545.773
545.484
545.22
545.003
544.821
544.663
544.521
544.388
544.26
544.135
544.011
543.888
543.764
543.64
543.516
543.392
543.269
543.145
543.023
542.9
542.778
542.657
542.536
542.415
542.294
542.173
542.053
541.932
541.812
541.692
541.572
541.452
541.331
541.211
541.091
540.971
540.851
540.73
540.61
552.581
552.642
552.699
552.751
552.796
552.835
552.866
552.886
552.893
552.885
552.859
552.815
552.753
552.675
552.583
552.481
552.372
552.255
552.133
552.008
551.882
551.756
551.633
551.512
551.395
551.283
551.176
551.074
550.978
550.888
550.803
550.724
550.648
550.578
550.513
550.452
550.394
550.34
550.29
550.242
550.197
550.155
550.114
550.074
550.035
549.997
549.959
549.921
549.882
549.844
549.805
549.765
549.724
549.68
549.635
549.587
549.536
549.481
549.422
549.359
549.291
549.218
549.138
549.051
548.958
548.858
548.749
548.633
548.51
548.378
548.236
548.084
547.921
547.744
547.551
547.341
547.113
546.866
546.603
546.324
546.032
545.731
545.428
545.146
544.94
544.773
544.625
544.488
544.358
544.232
544.108
543.985
543.863
543.74
543.618
543.496
543.374
543.252
543.131
543.009
542.889
542.768
542.647
542.527
542.407
542.287
542.167
542.048
541.928
541.808
541.689
541.569
541.449
541.329
541.209
541.09
540.97
540.85
540.73
540.61
552.587
552.658
552.725
552.783
552.832
552.872
552.903
552.922
552.925
552.911
552.877
552.823
552.75
552.661
552.559
552.447
552.329
552.206
552.078
551.948
551.817
551.686
551.559
551.435
551.315
551.2
551.09
550.986
550.888
550.795
550.708
550.627
550.55
550.479
550.412
550.35
550.292
550.237
550.186
550.138
550.092
550.048
550.007
549.966
549.926
549.887
549.848
549.808
549.769
549.728
549.687
549.645
549.602
549.556
549.508
549.457
549.403
549.345
549.283
549.216
549.145
549.068
548.985
548.895
548.799
548.698
548.588
548.471
548.348
548.219
548.083
547.938
547.784
547.618
547.437
547.24
547.025
546.792
546.54
546.269
545.979
545.667
545.332
544.995
544.836
544.702
544.573
544.445
544.321
544.198
544.076
543.955
543.835
543.715
543.595
543.475
543.355
543.235
543.115
542.996
542.876
542.757
542.638
542.519
542.4
542.281
542.162
542.043
541.924
541.804
541.685
541.566
541.447
541.327
541.208
541.088
540.969
540.849
540.729
540.61
552.594
552.68
552.757
552.823
552.876
552.917
552.947
552.963
552.961
552.94
552.897
552.832
552.748
552.647
552.535
552.413
552.287
552.157
552.025
551.892
551.757
551.622
551.489
551.361
551.238
551.12
551.008
550.902
550.801
550.707
550.618
550.534
550.456
550.384
550.315
550.252
550.193
550.137
550.085
550.035
549.989
549.945
549.902
549.861
549.82
549.781
549.74
549.7
549.659
549.617
549.574
549.531
549.485
549.437
549.387
549.334
549.278
549.217
549.152
549.082
549.007
548.927
548.842
548.748
548.649
548.547
548.436
548.317
548.195
548.068
547.936
547.797
547.65
547.494
547.323
547.135
546.928
546.705
546.464
546.202
545.917
545.596
545.211
544.665
544.705
544.625
544.514
544.396
544.277
544.159
544.041
543.923
543.806
543.688
543.571
543.453
543.335
543.218
543.1
542.982
542.864
542.746
542.628
542.51
542.392
542.274
542.156
542.038
541.919
541.801
541.682
541.563
541.444
541.325
541.206
541.087
540.968
540.848
540.729
540.61
552.604
552.707
552.797
552.872
552.929
552.97
552.998
553.01
553.003
552.975
552.923
552.848
552.752
552.641
552.517
552.387
552.252
552.115
551.978
551.841
551.703
551.565
551.429
551.297
551.171
551.05
550.935
550.825
550.722
550.625
550.533
550.447
550.367
550.292
550.222
550.157
550.096
550.039
549.986
549.936
549.889
549.844
549.802
549.76
549.719
549.679
549.638
549.597
549.556
549.513
549.47
549.425
549.378
549.329
549.278
549.223
549.166
549.103
549.035
548.962
548.884
548.8
548.711
548.615
548.514
548.411
548.298
548.18
548.059
547.935
547.806
547.67
547.523
547.369
547.202
547.016
546.812
546.591
546.355
546.1
545.826
545.513
545.199
544.855
544.692
544.573
544.459
544.345
544.231
544.117
544.003
543.889
543.774
543.66
543.546
543.431
543.315
543.2
543.084
542.968
542.852
542.736
542.619
542.502
542.385
542.268
542.15
542.033
541.915
541.797
541.679
541.56
541.442
541.323
541.204
541.086
540.967
540.848
540.729
540.61
552.616
552.74
552.846
552.929
552.991
553.033
553.058
553.065
553.052
553.017
552.958
552.875
552.771
552.65
552.515
552.373
552.228
552.083
551.938
551.796
551.654
551.513
551.375
551.241
551.112
550.989
550.871
550.759
550.652
550.551
550.456
550.366
550.282
550.205
550.132
550.065
550.003
549.945
549.892
549.841
549.794
549.75
549.707
549.666
549.626
549.586
549.545
549.504
549.463
549.42
549.376
549.331
549.285
549.236
549.185
549.131
549.074
549.011
548.941
548.866
548.784
548.696
548.603
548.505
548.402
548.298
548.189
548.073
547.955
547.835
547.705
547.563
547.399
547.223
547.055
546.856
546.65
546.426
546.165
545.882
545.659
545.28
545.125
544.871
544.629
544.512
544.401
544.291
544.182
544.072
543.963
543.853
543.742
543.632
543.52
543.408
543.296
543.183
543.069
542.955
542.84
542.725
542.61
542.494
542.378
542.262
542.145
542.028
541.911
541.793
541.676
541.558
541.44
541.321
541.203
541.084
540.966
540.847
540.728
540.609
552.629
552.777
552.901
552.996
553.062
553.105
553.127
553.13
553.111
553.071
553.007
552.918
552.807
552.676
552.532
552.381
552.228
552.075
551.922
551.771
551.623
551.478
551.335
551.198
551.068
550.943
550.821
550.704
550.593
550.487
550.386
550.291
550.203
550.121
550.046
549.977
549.914
549.856
549.803
549.754
549.707
549.664
549.623
549.583
549.544
549.505
549.465
549.425
549.384
549.342
549.3
549.257
549.212
549.167
549.119
549.067
549.012
548.951
548.881
548.802
548.716
548.623
548.527
548.427
548.323
548.221
548.12
548.007
547.902
547.791
547.642
547.476
547.272
547.031
546.841
546.595
546.364
546.034
545.758
545.431
545.375
545.101
544.939
544.764
544.55
544.441
544.338
544.235
544.131
544.027
543.922
543.817
543.71
543.603
543.495
543.386
543.276
543.166
543.054
542.942
542.829
542.716
542.601
542.487
542.372
542.256
542.14
542.024
541.907
541.79
541.673
541.555
541.438
541.32
541.201
541.083
540.965
540.846
540.728
540.609
552.643
552.817
552.961
553.068
553.142
553.187
553.208
553.207
553.184
553.14
553.073
552.981
552.866
552.729
552.576
552.414
552.249
552.085
551.924
551.766
551.61
551.458
551.311
551.171
551.04
550.913
550.788
550.665
550.547
550.434
550.326
550.224
550.129
550.042
549.964
549.893
549.83
549.775
549.725
549.68
549.636
549.595
549.556
549.517
549.479
549.441
549.402
549.363
549.324
549.285
549.247
549.21
549.173
549.135
549.093
549.042
548.991
548.931
548.863
548.781
548.69
548.593
548.493
548.396
548.295
548.185
548.085
547.942
547.829
547.698
547.515
547.334
547.106
546.898
546.69
546.465
546.214
546.056
545.728
545.55
545.32
545.086
544.852
544.55
544.442
544.362
544.272
544.177
544.079
543.981
543.881
543.78
543.678
543.575
543.47
543.365
543.258
543.149
543.04
542.93
542.818
542.706
542.593
542.48
542.366
542.251
542.136
542.02
541.904
541.787
541.67
541.553
541.436
541.318
541.2
541.082
540.964
540.846
540.728
540.609
552.656
552.856
553.023
553.147
553.23
553.279
553.3
553.298
553.274
553.228
553.161
553.069
552.954
552.813
552.655
552.484
552.31
552.135
551.963
551.791
551.625
551.464
551.309
551.166
551.033
550.905
550.777
550.648
550.52
550.399
550.282
550.171
550.067
549.973
549.891
549.821
549.76
549.71
549.667
549.628
549.589
549.549
549.51
549.471
549.431
549.392
549.355
549.32
549.288
549.261
549.236
549.212
549.186
549.158
549.128
549.061
549.012
548.931
548.867
548.79
548.708
548.624
548.521
548.414
548.348
548.226
548.098
547.934
547.791
547.634
547.451
547.295
547.098
546.924
546.707
546.549
546.282
546.068
545.765
545.532
545.25
545.004
544.796
544.389
544.358
544.289
544.208
544.119
544.028
543.935
543.841
543.745
543.647
543.548
543.447
543.344
543.24
543.134
543.027
542.919
542.809
542.698
542.586
542.474
542.36
542.246
542.131
542.016
541.901
541.784
541.668
541.551
541.434
541.317
541.199
541.081
540.963
540.845
540.727
540.609
552.67
552.899
553.091
553.234
553.329
553.384
553.408
553.408
553.383
553.336
553.27
553.181
553.067
552.928
552.77
552.595
552.414
552.23
552.043
551.855
551.673
551.502
551.339
551.192
551.057
550.923
550.787
550.655
550.514
550.383
550.261
550.148
550.032
549.926
549.84
549.774
549.714
549.667
549.629
549.594
549.554
549.509
549.462
549.412
549.36
549.321
549.289
549.276
549.274
549.287
549.288
549.281
549.248
549.197
549.133
549.067
549.03
548.926
548.879
548.826
548.758
548.716
548.614
548.527
548.395
548.211
548.054
547.894
547.693
547.526
547.36
547.184
546.995
546.806
546.615
546.419
546.204
545.971
545.714
545.477
545.226
545.031
544.857
544.326
544.293
544.226
544.15
544.064
543.978
543.891
543.802
543.711
543.618
543.523
543.425
543.326
543.224
543.121
543.016
542.909
542.8
542.691
542.58
542.468
542.355
542.242
542.128
542.013
541.898
541.782
541.666
541.549
541.433
541.315
541.198
541.08
540.963
540.845
540.727
540.609
552.696
552.965
553.181
553.339
553.444
553.506
553.535
553.538
553.513
553.466
553.399
553.313
553.206
553.076
552.927
552.759
552.575
552.381
552.176
551.959
551.754
551.57
551.396
551.249
551.117
550.959
550.784
550.665
550.513
550.373
550.264
550.166
550.058
549.943
549.841
549.773
549.704
549.661
549.624
549.584
549.536
549.465
549.404
549.323
549.262
549.23
549.212
549.237
549.285
549.347
549.369
549.351
549.285
549.161
549.101
548.997
548.934
548.836
548.785
548.719
548.638
548.579
548.494
548.378
548.26
548.077
547.916
547.737
547.552
547.368
547.193
547.015
546.841
546.667
546.497
546.315
546.126
545.92
545.703
545.486
545.262
545.058
544.824
544.431
544.258
544.177
544.086
544.007
543.929
543.848
543.766
543.679
543.59
543.499
543.406
543.31
543.211
543.109
543.006
542.9
542.793
542.685
542.575
542.464
542.352
542.239
542.125
542.011
541.896
541.78
541.664
541.548
541.431
541.314
541.197
541.08
540.962
540.845
540.727
540.609
552.731
553.053
553.3
553.476
553.59
553.657
553.689
553.692
553.664
553.615
553.544
553.464
553.37
553.253
553.12
552.971
552.783
552.576
552.341
552.085
551.842
551.639
551.456
551.311
551.168
551.017
550.833
550.695
550.543
550.441
550.374
550.346
550.23
550.13
549.973
549.898
549.814
549.775
549.741
549.653
549.594
549.433
549.349
549.218
549.151
549.136
549.152
549.194
549.262
549.306
549.324
549.293
549.221
549.155
549.045
548.937
548.857
548.764
548.684
548.598
548.5
548.405
548.293
548.168
548.032
547.874
547.718
547.555
547.389
547.22
547.055
546.889
546.729
546.57
546.413
546.252
546.089
545.907
545.706
545.502
545.264
545.048
544.789
544.441
544.259
544.146
544.029
543.952
543.881
543.809
543.732
543.65
543.565
543.478
543.389
543.296
543.2
543.1
542.998
542.894
542.788
542.68
542.571
542.46
542.348
542.236
542.123
542.009
541.894
541.779
541.663
541.547
541.43
541.314
541.197
541.079
540.962
540.844
540.727
540.609
552.798
553.201
553.483
553.678
553.797
553.861
553.886
553.873
553.828
553.769
553.702
553.657
553.608
553.505
553.39
553.248
552.995
552.7
552.345
552.059
551.858
551.692
551.487
551.331
551.155
551.013
550.777
550.653
550.532
550.512
550.489
550.622
550.458
550.405
550.208
550.14
550.034
549.964
549.877
549.741
549.64
549.502
549.388
549.308
549.213
549.182
549.145
549.157
549.165
549.176
549.168
549.137
549.076
549.01
548.921
548.832
548.737
548.64
548.545
548.449
548.348
548.243
548.127
548.001
547.863
547.714
547.56
547.403
547.244
547.086
546.936
546.79
546.652
546.514
546.377
546.238
546.083
545.909
545.696
545.49
545.288
545.052
544.791
544.563
544.382
544.192
543.996
543.922
543.834
543.773
543.705
543.623
543.541
543.461
543.376
543.286
543.192
543.094
542.993
542.889
542.784
542.677
542.568
542.458
542.346
542.234
542.121
542.007
541.893
541.778
541.662
541.546
541.43
541.313
541.196