/*--------------------------------*- C++ -*----------------------------------*\
  =========                 |
  \\      /  F ield         | OpenFOAM: The Open Source CFD Toolbox
   \\    /   O peration     | Website:  https://openfoam.org
    \\  /    A nd           | Version:  6
     \\/     M anipulation  |
\*---------------------------------------------------------------------------*/
FoamFile
{
    version     2.0;
    format      ascii;
    class       volVectorField;
    location    "3500";
    object      U;
}
// * * * * * * * * * * * * * * * * * * * * * * * * * * * * * * * * * * * * * //

dimensions      [0 1 -1 0 0 0 0];

internalField   nonuniform List<vector> 
4800
(
(9.15018e-05 0 0.000110358)
(-5.03456e-05 0 -9.96903e-05)
(9.35785e-05 0 -9.92156e-05)
(0.00012467 0 -8.55076e-05)
(0.000121505 0 -0.000104329)
(0.000144537 0 -7.19314e-05)
(0.000120192 0 -7.90827e-05)
(0.000104342 0 -4.36485e-05)
(5.87813e-05 0 -3.49177e-05)
(7.12281e-05 0 1.36789e-05)
(-2.94545e-05 0 -4.08219e-05)
(-1.29256e-05 0 -0.000137289)
(-6.62261e-05 0 -0.000106701)
(-9.5395e-05 0 -0.000175432)
(0.000105125 0 -0.000122872)
(0.000177796 0 -0.000331815)
(0.000496326 0 -3.83235e-05)
(0.000442181 0 -0.000295001)
(0.000479606 0 -0.000337097)
(0.000715755 0 -0.000274506)
(0.00103344 0 -0.00030547)
(0.00133957 0 -0.000426125)
(0.00161922 0 -0.000408578)
(0.00182673 0 -0.000260044)
(0.0019765 0 -0.000116444)
(0.00212053 0 -0.000176787)
(0.0023123 0 -4.43012e-05)
(0.0024427 0 -4.32469e-05)
(0.00245606 0 -0.000187206)
(0.00253729 0 -0.000164367)
(0.00271436 0 -6.70424e-05)
(0.00285757 0 -0.000175761)
(0.00294756 0 -0.000162847)
(0.00305369 0 -0.000154735)
(0.00316941 0 -0.00011833)
(0.00323865 0 -7.44663e-05)
(0.00328992 0 -2.70543e-05)
(0.00331335 0 6.0957e-06)
(0.0033029 0 9.66618e-06)
(0.00327312 0 -1.909e-05)
(0.00325421 0 3.16656e-05)
(0.00324602 0 -2.11622e-05)
(0.00323583 0 -4.2629e-05)
(0.00322317 0 -5.8985e-05)
(0.00322246 0 -6.66817e-05)
(0.00323239 0 -5.23883e-05)
(0.00323355 0 -2.8994e-05)
(0.00322814 0 -6.16239e-05)
(0.00322339 0 3.65276e-05)
(0.00321939 0 2.73901e-05)
(0.00321255 0 -8.30335e-06)
(0.00320255 0 -4.19925e-05)
(0.00318928 0 -6.42876e-05)
(0.00317613 0 -8.62057e-05)
(0.00316325 0 -0.000112071)
(0.00314358 0 -0.000146095)
(0.00311538 0 -0.000143421)
(0.00307742 0 -0.000124274)
(0.00303853 0 -9.97265e-05)
(0.00299543 0 -4.72772e-05)
(0.00293018 0 -0.000115888)
(0.00286392 0 -5.98598e-05)
(0.00281044 0 -0.000122145)
(0.00276777 0 -0.000150536)
(0.0027131 0 -1.08951e-05)
(0.00262753 0 -0.000234668)
(0.0025616 0 6.0994e-05)
(0.002477 0 -4.03618e-06)
(0.00235507 0 -0.000131195)
(0.00216893 0 0.000366415)
(0.00192452 0 -0.000257119)
(0.00169283 0 -6.01837e-05)
(0.00151409 0 0.000286187)
(0.00123015 0 -0.000288882)
(0.000848209 0 -0.000447713)
(0.00055708 0 -4.01806e-05)
(0.00038371 0 -9.81155e-05)
(0.000328853 0 -4.991e-05)
(0.000271172 0 3.78705e-05)
(0.000229761 0 -1.00523e-05)
(0.000128404 0 -2.08956e-05)
(7.33224e-05 0 -7.76772e-05)
(7.34258e-05 0 -4.54398e-05)
(1.01102e-07 0 1.15864e-05)
(-8.60445e-12 0 4.0956e-12)
(-2.96669e-12 0 5.81933e-14)
(-5.73154e-12 0 -5.64312e-14)
(-5.54797e-12 0 -1.27593e-13)
(-5.25045e-12 0 -1.70773e-13)
(-4.88219e-12 0 -1.98572e-13)
(-4.46722e-12 0 -2.17467e-13)
(-4.02078e-12 0 -2.30055e-13)
(-3.55456e-12 0 -2.37268e-13)
(-3.07889e-12 0 -2.39512e-13)
(-2.60337e-12 0 -2.3713e-13)
(-2.13681e-12 0 -2.30545e-13)
(-1.68709e-12 0 -2.20279e-13)
(-1.261e-12 0 -2.06919e-13)
(-8.64077e-13 0 -1.91083e-13)
(-5.0065e-13 0 -1.73385e-13)
(-1.73826e-13 0 -1.54411e-13)
(1.14415e-13 0 -1.34699e-13)
(3.63107e-13 0 -1.14729e-13)
(5.72154e-13 0 -9.49168e-14)
(7.42198e-13 0 -7.56065e-14)
(8.74479e-13 0 -5.70751e-14)
(9.70719e-13 0 -3.95348e-14)
(1.03301e-12 0 -2.31402e-14)
(1.06372e-12 0 -7.99659e-15)
(1.0654e-12 0 5.83129e-15)
(1.04074e-12 0 1.83108e-14)
(9.92458e-13 0 2.9434e-14)
(9.23284e-13 0 3.92108e-14)
(8.35916e-13 0 4.76639e-14)
(7.32994e-13 0 5.48233e-14)
(6.17082e-13 0 6.07226e-14)
(4.90671e-13 0 6.53949e-14)
(3.5618e-13 0 6.88699e-14)
(2.1597e-13 0 7.11699e-14)
(7.23631e-14 0 7.2304e-14)
(-7.38572e-05 0 -7.90471e-05)
(8.3939e-05 0 -5.12633e-05)
(0.000114456 0 -2.39735e-05)
(0.000104435 0 -2.15088e-05)
(7.10705e-05 0 3.5395e-05)
(2.87749e-05 0 6.59984e-05)
(-3.90173e-05 0 8.48565e-05)
(-6.74909e-05 0 7.60755e-05)
(-6.43691e-05 0 8.78253e-05)
(-4.57253e-05 0 9.25268e-05)
(-0.000183201 0 -4.4118e-05)
(-5.30048e-05 0 0.00016468)
(-0.000123675 0 5.44306e-06)
(-8.68615e-05 0 -0.000124668)
(0.000152975 0 -7.1236e-05)
(9.60122e-05 0 -0.000500781)
(0.000519515 0 0.000125827)
(0.000698244 0 6.50961e-05)
(0.000739587 0 -0.000336487)
(0.000884504 0 -0.000386746)
(0.00110666 0 -0.000236416)
(0.00132704 0 -0.000223025)
(0.00155352 0 -0.000204223)
(0.00173278 0 -0.000233182)
(0.00188946 0 -0.000104544)
(0.00206793 0 -0.000182441)
(0.00227862 0 -0.000188194)
(0.00244731 0 -0.000153556)
(0.00257843 0 -0.000196943)
(0.00268226 0 -0.000393853)
(0.00281738 0 -4.85351e-05)
(0.00292569 0 -0.00018785)
(0.00304696 0 -0.00027905)
(0.00310756 0 -0.000128835)
(0.00310371 0 -0.000112799)
(0.00311139 0 -9.93338e-05)
(0.00314173 0 -9.80239e-05)
(0.00317938 0 1.01901e-05)
(0.00318002 0 3.89647e-05)
(0.00318069 0 3.31323e-05)
(0.00318612 0 4.18417e-05)
(0.00318573 0 5.11094e-05)
(0.00317798 0 7.16476e-05)
(0.00316508 0 6.56475e-05)
(0.0031645 0 3.95907e-05)
(0.00316258 0 3.34549e-05)
(0.00315453 0 2.47161e-05)
(0.00314069 0 2.70344e-05)
(0.00312002 0 2.20257e-06)
(0.00310167 0 -3.91274e-07)
(0.00308607 0 2.82767e-05)
(0.0030647 0 6.42053e-05)
(0.00303784 0 6.35412e-05)
(0.00300345 0 0.00010235)
(0.00297703 0 0.000132684)
(0.00296698 0 0.000157141)
(0.00295366 0 0.000171474)
(0.00292646 0 0.000132688)
(0.00289052 0 0.00012678)
(0.00287347 0 0.000158542)
(0.00285516 0 0.000188705)
(0.00282983 0 0.000158766)
(0.00281012 0 0.000175325)
(0.00277012 0 0.000224572)
(0.00271255 0 0.000128869)
(0.00262534 0 0.000231378)
(0.00251104 0 0.00011855)
(0.00237991 0 0.000237615)
(0.00222562 0 0.000278728)
(0.00207502 0 3.48543e-05)
(0.00190338 0 0.000376076)
(0.00169579 0 0.000434956)
(0.00133964 0 0.000390937)
(0.00120007 0 0.000598997)
(0.00112432 0 0.000644581)
(0.000828374 0 0.000543294)
(0.000482133 0 0.000348507)
(0.000423636 0 0.000109535)
(0.000379198 0 1.7288e-05)
(0.000288738 0 0.00010819)
(0.000221133 0 0.000109107)
(0.000157621 0 0.000129279)
(6.67616e-05 0 0.000105133)
(6.01397e-08 0 2.7588e-05)
(-7.86204e-12 0 9.64359e-12)
(-3.07646e-12 0 1.29741e-13)
(-5.91723e-12 0 -2.13229e-13)
(-5.6622e-12 0 -4.1118e-13)
(-5.32137e-12 0 -5.28043e-13)
(-4.92888e-12 0 -6.05018e-13)
(-4.4987e-12 0 -6.59111e-13)
(-4.04058e-12 0 -6.95943e-13)
(-3.56402e-12 0 -7.17175e-13)
(-3.07875e-12 0 -7.23562e-13)
(-2.5944e-12 0 -7.15985e-13)
(-2.11995e-12 0 -6.95701e-13)
(-1.66347e-12 0 -6.64297e-13)
(-1.2318e-12 0 -6.23573e-13)
(-8.30544e-13 0 -5.75416e-13)
(-4.63978e-13 0 -5.21698e-13)
(-1.3514e-13 0 -4.64198e-13)
(1.54097e-13 0 -4.04553e-13)
(4.02889e-13 0 -3.44215e-13)
(6.11277e-13 0 -2.84432e-13)
(7.8004e-13 0 -2.26234e-13)
(9.10551e-13 0 -1.70441e-13)
(1.00465e-12 0 -1.17676e-13)
(1.06455e-12 0 -6.83914e-14)
(1.09269e-12 0 -2.28916e-14)
(1.09171e-12 0 1.86374e-14)
(1.06434e-12 0 5.6104e-14)
(1.01336e-12 0 8.94883e-14)
(9.41514e-13 0 1.18824e-13)
(8.51529e-13 0 1.4418e-13)
(7.46052e-13 0 1.65648e-13)
(6.27654e-13 0 1.83332e-13)
(4.98819e-13 0 1.97333e-13)
(3.61955e-13 0 2.07742e-13)
(2.19404e-13 0 2.14633e-13)
(7.34972e-14 0 2.18051e-13)
(-2.1647e-05 0 -0.000103926)
(5.51491e-05 0 -0.00010094)
(5.34693e-05 0 -8.06544e-05)
(-5.91067e-06 0 -6.13878e-06)
(-3.34325e-05 0 4.99506e-05)
(-7.72507e-05 0 7.13299e-05)
(-0.000113087 0 9.80188e-05)
(-0.000148366 0 9.48706e-05)
(-0.000220507 0 -7.00669e-06)
(-0.000245501 0 1.92549e-05)
(-0.000230245 0 8.56175e-05)
(-3.68995e-05 0 0.000276716)
(-0.000105451 0 1.37993e-05)
(7.57095e-05 0 -0.000134925)
(0.00013447 0 -0.00031269)
(0.000335654 0 -0.000461082)
(0.000324738 0 -0.00064826)
(0.000705557 0 -0.000112456)
(0.000938298 0 -0.000232336)
(0.00115788 0 -0.00052603)
(0.00131776 0 -0.000602407)
(0.00140559 0 -0.00063488)
(0.00152553 0 -0.000641505)
(0.00174347 0 -0.000378025)
(0.0019098 0 -0.000467159)
(0.00213923 0 -0.000526112)
(0.00240172 0 -0.000193874)
(0.00249794 0 -0.000375934)
(0.00259917 0 -0.000329448)
(0.00269788 0 -0.000262533)
(0.00277233 0 -0.000327362)
(0.00290485 0 -0.000265568)
(0.00298528 0 -0.000134543)
(0.00296305 0 -0.000140108)
(0.00294671 0 -9.78588e-05)
(0.00296263 0 -7.57098e-05)
(0.00300897 0 -4.39309e-05)
(0.00304292 0 -6.68119e-05)
(0.00304583 0 -2.38609e-05)
(0.00306093 0 -5.81765e-06)
(0.00309725 0 -8.46942e-06)
(0.00310842 0 -3.57606e-05)
(0.00310026 0 -4.58461e-05)
(0.00307719 0 -3.59509e-05)
(0.00304639 0 -2.05705e-05)
(0.00303365 0 9.94529e-06)
(0.00302856 0 2.32003e-05)
(0.00302478 0 3.03902e-05)
(0.00301912 0 4.40713e-05)
(0.00300543 0 5.34474e-05)
(0.00297703 0 6.43344e-05)
(0.00292979 0 1.44803e-05)
(0.00287785 0 7.33988e-05)
(0.00284296 0 -1.22417e-05)
(0.00281868 0 -3.85439e-05)
(0.00280301 0 -3.21369e-05)
(0.00279243 0 3.21594e-06)
(0.00278641 0 5.17378e-06)
(0.00278404 0 2.94249e-07)
(0.00277309 0 1.84512e-05)
(0.00273766 0 4.32179e-05)
(0.00268219 0 -6.81965e-05)
(0.00264286 0 1.75153e-05)
(0.00259359 0 8.10593e-05)
(0.00252594 0 4.93239e-05)
(0.00243913 0 0.00025216)
(0.00236783 0 9.11394e-05)
(0.00222262 0 0.000351414)
(0.00202019 0 0.000326976)
(0.00189422 0 0.000335951)
(0.00181263 0 0.000480257)
(0.00168724 0 0.00046668)
(0.00150579 0 0.000269118)
(0.00134256 0 0.000372651)
(0.00110974 0 0.000662508)
(0.0010532 0 0.000554366)
(0.000861296 0 0.000440366)
(0.000561195 0 0.000254568)
(0.000380273 0 0.000201669)
(0.00031932 0 0.000176421)
(0.000260581 0 0.000153584)
(0.000174553 0 0.000177729)
(9.48663e-05 0 0.000158896)
(9.49795e-08 0 0.000113139)
(-1.1653e-11 0 1.71625e-11)
(-3.29081e-12 0 1.66432e-13)
(-6.27232e-12 0 -5.15413e-13)
(-5.86259e-12 0 -7.76069e-13)
(-5.44418e-12 0 -9.25268e-13)
(-5.01324e-12 0 -1.0345e-12)
(-4.55814e-12 0 -1.11817e-12)
(-4.07885e-12 0 -1.17758e-12)
(-3.58218e-12 0 -1.21208e-12)
(-3.0777e-12 0 -1.22172e-12)
(-2.5755e-12 0 -1.20769e-12)
(-2.08512e-12 0 -1.17211e-12)
(-1.61497e-12 0 -1.11776e-12)
(-1.17212e-12 0 -1.04779e-12)
(-7.62201e-13 0 -9.65447e-13)
(-3.89432e-13 0 -8.73947e-13)
(-5.66811e-14 0 -7.76318e-13)
(2.34398e-13 0 -6.75324e-13)
(4.83227e-13 0 -5.73402e-13)
(6.90135e-13 0 -4.72631e-13)
(8.56189e-13 0 -3.74721e-13)
(9.83037e-13 0 -2.81019e-13)
(1.07277e-12 0 -1.92544e-13)
(1.12779e-12 0 -1.10026e-13)
(1.15075e-12 0 -3.39484e-14)
(1.1444e-12 0 3.54033e-14)
(1.11159e-12 0 9.78992e-14)
(1.05518e-12 0 1.53528e-13)
(9.77975e-13 0 2.02363e-13)
(8.82741e-13 0 2.44537e-13)
(7.72146e-13 0 2.80219e-13)
(6.48767e-13 0 3.09589e-13)
(5.15081e-13 0 3.32828e-13)
(3.73481e-13 0 3.50096e-13)
(2.26278e-13 0 3.61526e-13)
(7.57809e-14 0 3.67211e-13)
(1.93286e-05 0 -0.000122367)
(-4.65924e-05 0 -7.33803e-05)
(-1.40817e-05 0 -1.85647e-05)
(-3.70863e-05 0 5.12983e-05)
(-7.05236e-05 0 0.000103725)
(-0.000107388 0 0.000145067)
(-0.00013946 0 0.000170206)
(-0.000236456 0 0.000118146)
(-0.000326599 0 7.44838e-05)
(-0.000351221 0 6.96831e-05)
(-0.000293168 0 -1.33017e-05)
(-0.000233435 0 -7.57635e-06)
(-5.66392e-05 0 -0.000281718)
(0.000119119 0 -0.000354608)
(0.000145345 0 -0.000532303)
(0.000663935 0 -0.000298324)
(0.000433092 0 -0.000760081)
(0.000741672 0 -0.000739764)
(0.000958247 0 -0.000789077)
(0.00131828 0 -0.000624572)
(0.00154038 0 -0.000633894)
(0.00160976 0 -0.000749337)
(0.00171969 0 -0.000716003)
(0.00187317 0 -0.000623132)
(0.00207569 0 -0.000582695)
(0.00226422 0 -0.000728251)
(0.0024744 0 -0.00022409)
(0.00248135 0 -0.000495093)
(0.00251787 0 -0.000515439)
(0.00257351 0 -0.000445205)
(0.00265917 0 -0.000373773)
(0.00278972 0 -0.00026905)
(0.00280597 0 -0.000270244)
(0.00281225 0 -0.000185492)
(0.00282446 0 -0.000199299)
(0.00284242 0 -0.000191586)
(0.00286523 0 -3.10999e-05)
(0.00286261 0 -6.36871e-05)
(0.00286064 0 -6.66012e-05)
(0.00286632 0 -4.52816e-05)
(0.0028776 0 2.49377e-05)
(0.00288136 0 7.86369e-05)
(0.00288434 0 9.71639e-05)
(0.00290229 0 9.4021e-05)
(0.00291874 0 1.89071e-05)
(0.00291471 0 6.77696e-07)
(0.00290302 0 -4.65917e-06)
(0.00288778 0 8.55499e-06)
(0.0028702 0 2.44073e-05)
(0.00284488 0 3.69018e-05)
(0.00281555 0 6.76629e-05)
(0.00279519 0 0.000113694)
(0.00278628 0 9.31904e-05)
(0.00277573 0 0.000129365)
(0.0027664 0 8.35944e-05)
(0.00274968 0 9.14503e-05)
(0.0027142 0 0.000106403)
(0.00267125 0 9.65257e-05)
(0.00264658 0 0.000101836)
(0.00260274 0 0.00020383)
(0.0025443 0 0.00015834)
(0.00248786 0 0.000123811)
(0.00244276 0 0.000217096)
(0.00238671 0 0.000201122)
(0.00228165 0 0.000269151)
(0.00221786 0 0.000214311)
(0.00213439 0 0.000315357)
(0.00196233 0 0.00058674)
(0.00190778 0 0.000390607)
(0.00171398 0 0.000692154)
(0.00144895 0 0.000987432)
(0.00145068 0 0.000838824)
(0.00134957 0 0.000815328)
(0.00108509 0 0.000887478)
(0.000992948 0 0.000803345)
(0.000866294 0 0.000823663)
(0.00064286 0 0.000730077)
(0.00040939 0 0.000476897)
(0.000360221 0 0.000289473)
(0.00028776 0 0.000257923)
(0.000242392 0 0.000227173)
(0.0001563 0 0.00024606)
(0.000157716 0 0.00019286)
(1.32978e-07 0 0.000180172)
(-3.03398e-11 0 7.26408e-11)
(-3.73747e-12 0 -1.54017e-12)
(-6.85968e-12 0 -1.23863e-12)
(-6.07194e-12 0 -1.25209e-12)
(-5.57973e-12 0 -1.36202e-12)
(-5.12176e-12 0 -1.48915e-12)
(-4.64178e-12 0 -1.60109e-12)
(-4.13449e-12 0 -1.68373e-12)
(-3.60816e-12 0 -1.73143e-12)
(-3.07436e-12 0 -1.74315e-12)
(-2.54479e-12 0 -1.72054e-12)
(-2.03003e-12 0 -1.6669e-12)
(-1.53915e-12 0 -1.5865e-12)
(-1.07949e-12 0 -1.48406e-12)
(-6.56702e-13 0 -1.3644e-12)
(-2.74849e-13 0 -1.23219e-12)
(6.34836e-14 0 -1.09179e-12)
(3.57013e-13 0 -9.47118e-13)
(6.05581e-13 0 -8.01608e-13)
(8.09958e-13 0 -6.58166e-13)
(9.71652e-13 0 -5.19166e-13)
(1.09273e-12 0 -3.86473e-13)
(1.17565e-12 0 -2.61478e-13)
(1.22314e-12 0 -1.45164e-13)
(1.23812e-12 0 -3.81619e-14)
(1.22356e-12 0 5.91765e-14)
(1.18247e-12 0 1.46721e-13)
(1.11782e-12 0 2.24506e-13)
(1.03252e-12 0 2.92681e-13)
(9.29385e-13 0 3.51474e-13)
(8.11104e-13 0 4.01154e-13)
(6.80263e-13 0 4.42004e-13)
(5.39326e-13 0 4.74298e-13)
(3.90654e-13 0 4.9828e-13)
(2.36519e-13 0 5.14146e-13)
(7.91822e-14 0 5.22035e-13)
(-6.25023e-05 0 -0.000110544)
(3.09399e-05 0 -7.22492e-05)
(-6.43757e-05 0 1.08524e-05)
(-9.77935e-05 0 6.66138e-05)
(-0.000117737 0 0.000110526)
(-0.000147232 0 0.000144142)
(-0.000184643 0 0.000186326)
(-0.000228503 0 0.000187206)
(-0.000265273 0 0.000141606)
(-0.000271798 0 -5.22042e-05)
(-0.000233687 0 -4.42866e-05)
(-5.02783e-05 0 -0.000314562)
(5.95733e-05 0 -0.000385856)
(1.97267e-05 0 -0.000612007)
(0.000436522 0 -0.000610259)
(0.000342212 0 -0.000875588)
(0.000940872 0 -0.000514943)
(0.00100478 0 -0.000708366)
(0.0010782 0 -0.000900657)
(0.00132371 0 -0.000879921)
(0.00159994 0 -0.000780369)
(0.00170415 0 -0.000901114)
(0.00182954 0 -0.000870752)
(0.00196819 0 -0.000780847)
(0.00210891 0 -0.000749732)
(0.00232374 0 -0.000619689)
(0.00237375 0 -0.000662154)
(0.00241287 0 -0.000498456)
(0.00245113 0 -0.000477103)
(0.00250538 0 -0.000546732)
(0.00256078 0 -0.00059918)
(0.00260407 0 -0.00036516)
(0.00261125 0 -0.000310539)
(0.00263191 0 -0.000241268)
(0.00265165 0 -0.000106519)
(0.002643 0 -7.46591e-05)
(0.0026191 0 -5.59793e-05)
(0.00261222 0 -3.95484e-05)
(0.00260763 0 -2.8175e-05)
(0.00259192 0 -2.2718e-05)
(0.00259047 0 -2.19368e-05)
(0.00260299 0 -4.60112e-05)
(0.00263053 0 -8.30189e-05)
(0.00267326 0 -5.54414e-05)
(0.00270749 0 1.57868e-05)
(0.00271214 0 4.54759e-05)
(0.0027098 0 5.49537e-05)
(0.00269788 0 5.85099e-05)
(0.00267759 0 8.57429e-05)
(0.00265249 0 0.000105889)
(0.00262291 0 0.000114166)
(0.00260001 0 0.000108824)
(0.00258478 0 0.000110843)
(0.00256469 0 7.65496e-05)
(0.00254332 0 4.97508e-05)
(0.00253348 0 8.85719e-05)
(0.00251341 0 4.53809e-05)
(0.00247506 0 3.75316e-05)
(0.00243234 0 0.000189988)
(0.00238125 0 0.000117182)
(0.00230181 0 0.000222508)
(0.00225721 0 0.000207809)
(0.00221141 0 0.000300909)
(0.00213213 0 0.000403729)
(0.00204734 0 0.000214596)
(0.0019623 0 0.000445616)
(0.00193019 0 0.000371312)
(0.00188456 0 0.000112428)
(0.00175843 0 0.000492976)
(0.00163076 0 0.000633886)
(0.00159143 0 0.000453138)
(0.00143484 0 0.000747827)
(0.00129363 0 0.000864213)
(0.00117034 0 0.000808282)
(0.00100102 0 0.000833798)
(0.000826773 0 0.000898428)
(0.000572196 0 0.000852299)
(0.000401258 0 0.000603982)
(0.000322822 0 0.000377197)
(0.000270655 0 0.000309925)
(0.000223491 0 0.000290528)
(0.00018066 0 0.000281339)
(0.000139141 0 0.000273341)
(5.79727e-08 0 0.000257301)
(-1.95819e-12 0 5.1989e-13)
(-4.84602e-12 0 -2.24533e-12)
(-5.98434e-12 0 -1.64693e-12)
(-5.98595e-12 0 -1.63147e-12)
(-5.68121e-12 0 -1.78129e-12)
(-5.25229e-12 0 -1.95875e-12)
(-4.75272e-12 0 -2.11309e-12)
(-4.20919e-12 0 -2.22459e-12)
(-3.6416e-12 0 -2.28655e-12)
(-3.06681e-12 0 -2.29869e-12)
(-2.49926e-12 0 -2.2642e-12)
(-1.95108e-12 0 -2.18825e-12)
(-1.43213e-12 0 -2.0771e-12)
(-9.50016e-13 0 -1.93739e-12)
(-5.10333e-13 0 -1.77578e-12)
(-1.16821e-13 0 -1.59857e-12)
(2.28395e-13 0 -1.41154e-12)
(5.24581e-13 0 -1.21983e-12)
(7.72179e-13 0 -1.02789e-12)
(9.72576e-13 0 -8.39437e-13)
(1.12788e-12 0 -6.57482e-13)
(1.24073e-12 0 -4.84364e-13)
(1.31408e-12 0 -3.21807e-13)
(1.35111e-12 0 -1.70998e-13)
(1.35509e-12 0 -3.26656e-14)
(1.32928e-12 0 9.2827e-14)
(1.27692e-12 0 2.05401e-13)
(1.20114e-12 0 3.05186e-13)
(1.10494e-12 0 3.92456e-13)
(9.91214e-13 0 4.67572e-13)
(8.62676e-13 0 5.3094e-13)
(7.21911e-13 0 5.82973e-13)
(5.71358e-13 0 6.24061e-13)
(4.13329e-13 0 6.54547e-13)
(2.50033e-13 0 6.74703e-13)
(8.36698e-14 0 6.84721e-13)
(-7.59304e-05 0 -8.51672e-05)
(-1.20836e-05 0 -2.07678e-05)
(-5.82474e-05 0 5.30282e-05)
(-0.000110218 0 7.177e-05)
(-9.72168e-05 0 0.000140215)
(-9.36656e-05 0 0.000205901)
(-0.000121016 0 0.000227446)
(-0.00015545 0 0.000213063)
(-0.00016108 0 8.39656e-05)
(-9.68791e-05 0 4.7838e-05)
(1.44033e-05 0 -0.00022212)
(0.000278169 0 -0.000340798)
(0.000290065 0 -0.000515723)
(0.00034738 0 -0.000724953)
(0.000490681 0 -0.000848626)
(0.000577889 0 -0.00100153)
(0.000724001 0 -0.00111488)
(0.000917494 0 -0.00114788)
(0.00127597 0 -0.000998956)
(0.00124218 0 -0.00133905)
(0.00163376 0 -0.00105491)
(0.00176802 0 -0.00105867)
(0.00189657 0 -0.00100465)
(0.00202622 0 -0.000902269)
(0.0020964 0 -0.000921068)
(0.00220111 0 -0.000885339)
(0.00232716 0 -0.000556875)
(0.00231355 0 -0.000600634)
(0.00233234 0 -0.000680205)
(0.00246828 0 -0.000416568)
(0.00245839 0 -0.000338434)
(0.00238436 0 -0.000296583)
(0.00238421 0 -0.000278664)
(0.00240609 0 -0.000181022)
(0.00240319 0 -0.000147629)
(0.00238034 0 -0.000126801)
(0.00236101 0 -4.3311e-05)
(0.00236239 0 -3.15864e-05)
(0.00236892 0 -5.53179e-05)
(0.0023798 0 -6.95974e-05)
(0.00240402 0 -4.28926e-05)
(0.00244244 0 2.03353e-05)
(0.00245322 0 3.72614e-05)
(0.00244385 0 1.9425e-05)
(0.00242172 0 1.18024e-06)
(0.00241856 0 4.38658e-06)
(0.00242013 0 3.59699e-05)
(0.00241819 0 5.61637e-05)
(0.00242105 0 6.85542e-05)
(0.00242576 0 9.7466e-05)
(0.00242195 0 0.000104908)
(0.00241048 0 8.78525e-05)
(0.00238991 0 0.000107394)
(0.0023677 0 7.64473e-05)
(0.00232547 0 0.000111286)
(0.00224881 0 0.000180438)
(0.00221579 0 0.000204217)
(0.00220317 0 7.86414e-05)
(0.00215744 0 0.000235329)
(0.00209968 0 0.000162368)
(0.00201424 0 0.000181319)
(0.00200683 0 0.000227246)
(0.00199378 0 0.000228798)
(0.00192224 0 0.000348564)
(0.00184574 0 0.000237159)
(0.00161698 0 0.000679387)
(0.00147252 0 0.000878575)
(0.00146966 0 0.000895372)
(0.00143555 0 0.000908048)
(0.00138841 0 0.000830713)
(0.00125965 0 0.000912516)
(0.0012083 0 0.000983038)
(0.00115557 0 0.000996217)
(0.000935544 0 0.00107268)
(0.000783072 0 0.0010836)
(0.00058457 0 0.00115117)
(0.000618259 0 0.000976701)
(0.000669249 0 0.000634962)
(0.000396481 0 0.000470622)
(0.000287608 0 0.000377024)
(0.000255172 0 0.000331103)
(0.000117214 0 0.000360708)
(7.78848e-05 0 0.000350483)
(4.62805e-08 0 0.000326886)
(-2.83703e-12 0 5.41792e-13)
(-5.90443e-12 0 -9.40713e-13)
(-6.24599e-12 0 -1.47246e-12)
(-6.2063e-12 0 -1.84552e-12)
(-5.90698e-12 0 -2.17282e-12)
(-5.45353e-12 0 -2.45136e-12)
(-4.90762e-12 0 -2.66785e-12)
(-4.30795e-12 0 -2.81491e-12)
(-3.68226e-12 0 -2.89144e-12)
(-3.05201e-12 0 -2.9008e-12)
(-2.43435e-12 0 -2.84924e-12)
(-1.84293e-12 0 -2.74475e-12)
(-1.28829e-12 0 -2.59617e-12)
(-7.78166e-13 0 -2.41254e-12)
(-3.17876e-13 0 -2.20265e-12)
(8.93918e-14 0 -1.97464e-12)
(4.42218e-13 0 -1.73587e-12)
(7.40659e-13 0 -1.49274e-12)
(9.85975e-13 0 -1.25071e-12)
(1.18037e-12 0 -1.01429e-12)
(1.32673e-12 0 -7.87075e-13)
(1.4284e-12 0 -5.71809e-13)
(1.48901e-12 0 -3.70478e-13)
(1.51228e-12 0 -1.84397e-13)
(1.50194e-12 0 -1.43214e-14)
(1.46163e-12 0 1.39445e-13)
(1.39483e-12 0 2.76943e-13)
(1.30488e-12 0 3.98461e-13)
(1.19491e-12 0 5.04451e-13)
(1.06787e-12 0 5.95463e-13)
(9.26505e-13 0 6.72081e-13)
(7.73384e-13 0 7.34883e-13)
(6.109e-13 0 7.84404e-13)
(4.41296e-13 0 8.21105e-13)
(2.66693e-13 0 8.45352e-13)
(8.92003e-14 0 8.57398e-13)
(-5.07905e-05 0 -7.29437e-05)
(-6.30364e-05 0 4.15212e-06)
(-5.56332e-05 0 7.45699e-05)
(-4.58814e-05 0 0.00010732)
(-7.03763e-05 0 0.000126952)
(-5.35953e-05 0 0.000196786)
(-5.0052e-05 0 0.000228507)
(-3.34752e-05 0 0.00022165)
(1.1034e-05 0 0.000139637)
(0.000158284 0 -0.00013403)
(0.000306172 0 -0.000325273)
(0.000398574 0 -0.000488172)
(0.000465589 0 -0.000644059)
(0.00060529 0 -0.000791592)
(0.000696774 0 -0.000982872)
(0.000940797 0 -0.001051)
(0.00105901 0 -0.00114142)
(0.00106515 0 -0.00129791)
(0.00140658 0 -0.00115181)
(0.00142545 0 -0.00141012)
(0.00177167 0 -0.00109276)
(0.00183319 0 -0.0011223)
(0.00192032 0 -0.00108992)
(0.00203929 0 -0.000957081)
(0.0021137 0 -0.000931308)
(0.00213987 0 -0.000849762)
(0.00218516 0 -0.000722654)
(0.00221394 0 -0.000604074)
(0.00219567 0 -0.000520761)
(0.0022024 0 -0.000514408)
(0.00219354 0 -0.000530379)
(0.00215883 0 -0.000503797)
(0.00214384 0 -0.000355226)
(0.00212545 0 -0.00024975)
(0.00211502 0 -0.000118098)
(0.00210986 0 -6.77677e-05)
(0.00210538 0 -2.76782e-05)
(0.00211039 0 -2.31416e-05)
(0.00213727 0 -1.99111e-05)
(0.00218451 0 -1.92785e-05)
(0.00219493 0 -2.81483e-05)
(0.00219452 0 -3.74522e-05)
(0.00220216 0 -5.27881e-05)
(0.00221842 0 -1.99459e-05)
(0.00221978 0 4.12292e-06)
(0.00221285 0 1.67037e-05)
(0.00220599 0 3.91051e-05)
(0.00220701 0 4.30928e-05)
(0.00221106 0 5.56576e-05)
(0.0022141 0 0.000120304)
(0.00221166 0 0.000145978)
(0.00219908 0 0.000168012)
(0.00217475 0 0.000147622)
(0.00215183 0 0.000159407)
(0.0021192 0 0.000136453)
(0.00203249 0 8.56668e-05)
(0.00194073 0 0.000202916)
(0.00193691 0 0.000206048)
(0.00190742 0 0.000254667)
(0.00180372 0 0.00034615)
(0.00174719 0 0.000309447)
(0.00174307 0 0.000383524)
(0.00173031 0 0.000412852)
(0.00171353 0 0.000271376)
(0.00163431 0 0.000363072)
(0.00156118 0 -0.000164087)
(0.0014542 0 0.000302827)
(0.00146598 0 0.000402553)
(0.00130143 0 0.000827018)
(0.00125734 0 0.000888053)
(0.00112264 0 0.0010299)
(0.00105124 0 0.00108565)
(0.00105323 0 0.00105795)
(0.000879495 0 0.00113578)
(0.000718855 0 0.00120858)
(0.000752988 0 0.00113955)
(0.000718801 0 0.00102668)
(0.000274385 0 0.000901053)
(0.00013836 0 0.000662814)
(0.000238968 0 0.000458446)
(0.00016763 0 0.000406146)
(0.000216466 0 0.000387106)
(0.000175586 0 0.00038923)
(5.00659e-08 0 0.000410365)
(-3.44108e-12 0 6.55809e-13)
(-6.85997e-12 0 -5.86882e-13)
(-6.88904e-12 0 -1.45673e-12)
(-6.68624e-12 0 -2.1054e-12)
(-6.287e-12 0 -2.61315e-12)
(-5.74731e-12 0 -3.00611e-12)
(-5.11627e-12 0 -3.29212e-12)
(-4.43278e-12 0 -3.47587e-12)
(-3.72748e-12 0 -3.5636e-12)
(-3.02461e-12 0 -3.56391e-12)
(-2.34321e-12 0 -3.4873e-12)
(-1.69801e-12 0 -3.34541e-12)
(-1.09992e-12 0 -3.15033e-12)
(-5.56494e-13 0 -2.91397e-12)
(-7.24346e-14 0 -2.64757e-12)
(3.49956e-13 0 -2.36138e-12)
(7.10297e-13 0 -2.06441e-12)
(1.00974e-12 0 -1.7644e-12)
(1.25063e-12 0 -1.46783e-12)
(1.43621e-12 0 -1.17991e-12)
(1.57037e-12 0 -9.04746e-13)
(1.65732e-12 0 -6.45391e-13)
(1.70149e-12 0 -4.0398e-13)
(1.70727e-12 0 -1.81855e-13)
(1.67893e-12 0 2.03037e-14)
(1.62055e-12 0 2.02342e-13)
(1.53594e-12 0 3.64506e-13)
(1.42865e-12 0 5.07318e-13)
(1.30195e-12 0 6.31482e-13)
(1.15884e-12 0 7.3779e-13)
(1.0021e-12 0 8.27059e-13)
(8.34235e-13 0 9.00073e-13)
(6.5758e-13 0 9.57545e-13)
(4.74277e-13 0 1.00008e-12)
(2.86326e-13 0 1.02815e-12)
(9.57156e-14 0 1.04209e-12)
(-4.35951e-05 0 -6.45812e-05)
(-2.90788e-05 0 2.66041e-05)
(-2.72465e-05 0 6.60138e-05)
(-8.27845e-06 0 9.70373e-05)
(1.83652e-05 0 0.000126254)
(4.53655e-05 0 0.000165941)
(7.22814e-05 0 0.00018071)
(0.000149251 0 7.06907e-05)
(0.000262447 0 -1.32669e-05)
(0.000390124 0 -0.000180059)
(0.000487772 0 -0.000384348)
(0.000541797 0 -0.000605735)
(0.000803228 0 -0.000593992)
(0.000681308 0 -0.000935585)
(0.000912548 0 -0.00103485)
(0.00100462 0 -0.00123867)
(0.000992628 0 -0.00146118)
(0.0013909 0 -0.00127275)
(0.00138101 0 -0.00145333)
(0.00159443 0 -0.00140437)
(0.00166731 0 -0.00139708)
(0.00177786 0 -0.00129129)
(0.00191222 0 -0.00114867)
(0.0019597 0 -0.00106599)
(0.00200915 0 -0.000959265)
(0.00198743 0 -0.000964585)
(0.0020493 0 -0.00068092)
(0.0020398 0 -0.000576105)
(0.00190575 0 -0.000743481)
(0.00191483 0 -0.00050471)
(0.00195686 0 -0.000279703)
(0.00194393 0 -0.000245346)
(0.00189459 0 -0.000207128)
(0.00185404 0 -0.000138503)
(0.00185872 0 -0.00012899)
(0.00188367 0 -7.77868e-05)
(0.00190313 0 -4.92153e-05)
(0.0019015 0 -0.000100064)
(0.00191587 0 -0.000116547)
(0.001953 0 -0.000122901)
(0.00198593 0 -0.000129985)
(0.00201331 0 -8.01019e-05)
(0.00203 0 -1.81286e-05)
(0.00202932 0 -6.5432e-06)
(0.00202412 0 1.55125e-05)
(0.00202417 0 2.67609e-05)
(0.00203356 0 3.91636e-05)
(0.00205839 0 6.64654e-05)
(0.00205827 0 6.82383e-05)
(0.00204768 0 9.46777e-05)
(0.00203912 0 0.000111747)
(0.00201569 0 0.000156638)
(0.00196964 0 0.000186058)
(0.00194511 0 0.00016932)
(0.00190646 0 0.000264888)
(0.0018406 0 0.000297686)
(0.00178837 0 0.000146703)
(0.00175984 0 0.000260615)
(0.00171608 0 0.000340698)
(0.00166135 0 0.000245702)
(0.00157342 0 0.000319533)
(0.0015055 0 0.000431494)
(0.0013878 0 0.000575228)
(0.00120008 0 0.000870425)
(0.00125239 0 0.000831692)
(0.00128948 0 0.000737964)
(0.00126415 0 0.000697754)
(0.00121416 0 0.000745489)
(0.00119536 0 0.000805667)
(0.00121175 0 0.000838309)
(0.00115889 0 0.00093137)
(0.000974297 0 0.00109646)
(0.00084084 0 0.00121494)
(0.000849802 0 0.00121918)
(0.000716523 0 0.00128312)
(0.000619648 0 0.00126747)
(0.000280401 0 0.00126761)
(0.000265393 0 0.00098624)
(0.000237473 0 0.000682357)
(0.000206328 0 0.000503355)
(0.000122224 0 0.000446649)
(-8.17349e-05 0 0.000464914)
(-8.37053e-05 0 0.000473051)
(-2.69674e-08 0 0.000410798)
(-4.05632e-12 0 7.11494e-13)
(-8.01641e-12 0 -6.05781e-13)
(-7.76421e-12 0 -1.66232e-12)
(-7.36256e-12 0 -2.50638e-12)
(-6.80762e-12 0 -3.16842e-12)
(-6.13251e-12 0 -3.66801e-12)
(-5.37738e-12 0 -4.01885e-12)
(-4.57943e-12 0 -4.23303e-12)
(-3.7703e-12 0 -4.32336e-12)
(-2.97571e-12 0 -4.30413e-12)
(-2.21585e-12 0 -4.19079e-12)
(-1.50596e-12 0 -3.99941e-12)
(-8.56844e-13 0 -3.74591e-12)
(-2.75408e-13 0 -3.44554e-12)
(2.34717e-13 0 -3.11234e-12)
(6.72559e-13 0 -2.75883e-12)
(1.03919e-12 0 -2.39584e-12)
(1.33724e-12 0 -2.03246e-12)
(1.57047e-12 0 -1.6761e-12)
(1.74345e-12 0 -1.33264e-12)
(1.86124e-12 0 -1.00655e-12)
(1.92917e-12 0 -7.01038e-13)
(1.95255e-12 0 -4.18251e-13)
(1.93657e-12 0 -1.59416e-13)
(1.88614e-12 0 7.49931e-14)
(1.80583e-12 0 2.85089e-13)
(1.6998e-12 0 4.71425e-13)
(1.57185e-12 0 6.34855e-13)
(1.42538e-12 0 7.76408e-13)
(1.26345e-12 0 8.97192e-13)
(1.08879e-12 0 9.98312e-13)
(9.0387e-13 0 1.08081e-12)
(7.10907e-13 0 1.1456e-12)
(5.11905e-13 0 1.19348e-12)
(3.08707e-13 0 1.22504e-12)
(1.0314e-13 0 1.24071e-12)
(-2.83073e-05 0 -5.59588e-05)
(1.97183e-05 0 2.64036e-05)
(7.24065e-06 0 4.37151e-05)
(4.76415e-05 0 6.19435e-05)
(0.000112346 0 9.27053e-05)
(0.000178981 0 0.000125945)
(0.00021592 0 0.000136533)
(0.000284168 0 5.13388e-05)
(0.000422329 0 -9.98815e-05)
(0.000538187 0 -0.000306791)
(0.000654248 0 -0.000463137)
(0.000728298 0 -0.000649006)
(0.000750333 0 -0.00084999)
(0.000977818 0 -0.000897735)
(0.000939213 0 -0.00121143)
(0.0011649 0 -0.00131065)
(0.00124427 0 -0.00147513)
(0.0013997 0 -0.00150088)
(0.00129858 0 -0.00172607)
(0.00164977 0 -0.00147874)
(0.00169604 0 -0.00142573)
(0.00176402 0 -0.00132145)
(0.0018312 0 -0.00122961)
(0.00182562 0 -0.00118965)
(0.00181311 0 -0.00105833)
(0.00177692 0 -0.000955647)
(0.00173554 0 -0.000836704)
(0.00180206 0 -0.000438145)
(0.00177019 0 -0.00036111)
(0.00165649 0 -0.000447543)
(0.00161328 0 -0.000422504)
(0.00162508 0 -0.000332806)
(0.00161837 0 -0.00024873)
(0.00162338 0 -0.000216299)
(0.00165915 0 -0.000122701)
(0.00168747 0 -0.000179038)
(0.00171595 0 -3.80269e-05)
(0.00173724 0 -0.000111065)
(0.00178421 0 -0.000112307)
(0.00181111 0 -4.92685e-05)
(0.00180893 0 -3.6961e-05)
(0.0018127 0 -3.11814e-05)
(0.00184156 0 -3.45958e-05)
(0.0018807 0 -1.12617e-06)
(0.00188215 0 1.21234e-05)
(0.00188405 0 1.9749e-05)
(0.00188799 0 2.19421e-05)
(0.00190051 0 3.27283e-05)
(0.00190479 0 8.30679e-05)
(0.00189941 0 0.000120923)
(0.00189673 0 0.000166877)
(0.00188618 0 0.000165561)
(0.00183703 0 0.000140136)
(0.00175878 0 0.000301686)
(0.00174567 0 0.000183232)
(0.00168266 0 0.000143898)
(0.00158283 0 0.000334978)
(0.00159765 0 0.00032925)
(0.00158221 0 0.000314106)
(0.0015024 0 0.000357855)
(0.00145747 0 0.000140615)
(0.00142375 0 0.000198132)
(0.00133609 0 0.000433212)
(0.00133967 0 2.42111e-05)
(0.0012808 0 0.000365167)
(0.00115615 0 0.000651133)
(0.000994417 0 0.000850019)
(0.000910847 0 0.000938491)
(0.000866637 0 0.00102134)
(0.000807074 0 0.00111271)
(0.000543323 0 0.00131046)
(0.000769299 0 0.00122208)
(0.000661288 0 0.00130193)
(0.000591397 0 0.00137356)
(0.000629834 0 0.00137468)
(0.000586011 0 0.00136493)
(0.000449612 0 0.00131485)
(0.0005773 0 0.00106682)
(0.000141019 0 0.000777251)
(0.000108547 0 0.000592378)
(9.87962e-05 0 0.000519723)
(-2.60269e-05 0 0.000506848)
(0.00020558 0 0.000472148)
(-3.12501e-07 0 0.000420485)
(-4.65433e-12 0 3.43458e-13)
(-9.233e-12 0 -8.85333e-13)
(-8.7892e-12 0 -2.08056e-12)