0 	-11.4976
0.010101 	-7.27868
0.020202 	-7.27868
0.030303 	-7.27868
0.040404 	-7.27868
0.0505051 	-5.52761
0.0606061 	-7.27868
0.0707071 	-7.27868
