0 	1.71527e-16 	0 	1.02503e-17
0.010101 	-8.6284e-15 	0 	3.99237e-16
0.020202 	-1.64403e-13 	0 	9.78231e-15
0.030303 	-2.93244e-12 	0 	1.75471e-13
0.040404 	-5.97725e-11 	0 	3.75247e-12
0.0505051 	1.83217e-11 	0 	-8.82044e-11
0.0606061 	6.69337e-11 	0 	3.44604e-12
0.0707071 	3.29383e-12 	0 	1.9867e-13
