0.010101 	4.73889e-23 	4.39563e-26 	-5.01958e-25
0.020202 	2.42474e-23 	-6.86807e-26 	1.61097e-24
