0 	-6.52838e-12 	9.69171e-28 	3.62324e-12
0.010101 	2.98756e-10 	3.56862e-27 	-1.86255e-11
