0 	0 	0 	0
0.010101 	-8.07789e-28 	-1.01073e-28 	-4.49834e-28
0.020202 	-2.04129e-28 	-1.10339e-28 	-3.76296e-28
