0 	-15.2176
0.010101 	-9.60391
0.020202 	-9.5999
0.030303 	-9.51872
0.040404 	-9.4547
0.0505051 	-9.59628
0.0606061 	-9.60372
0.0707071 	-9.60414
0.0808081 	-9.60417
0.0909091 	-9.60417
