0 	-1.09596e-11 	1.64243e-27 	6.04912e-12
0.010101 	5.0385e-10 	5.8464e-27 	-2.92226e-11
