0 	-5.8185e-14 	0 	1.62552e-14
0.010101 	-8.08254e-12 	0 	4.53528e-13
0.020202 	-1.5985e-10 	0 	5.8424e-12
0.030303 	1.99811e-12 	0 	-7.89236e-11
0.040404 	2.46811e-10 	0 	6.99575e-12
