/*--------------------------------*- C++ -*----------------------------------*\
  =========                 |
  \\      /  F ield         | OpenFOAM: The Open Source CFD Toolbox
   \\    /   O peration     | Website:  https://openfoam.org
    \\  /    A nd           | Version:  6
     \\/     M anipulation  |
\*---------------------------------------------------------------------------*/
FoamFile
{
    version     2.0;
    format      ascii;
    class       surfaceScalarField;
    location    "6500";
    object      phi;
}
// * * * * * * * * * * * * * * * * * * * * * * * * * * * * * * * * * * * * * //

dimensions      [0 3 -1 0 0 0 0];

internalField   nonuniform List<scalar> 
9440
(
1.12582e-13
-1.12582e-13
2.22831e-13
-1.10827e-13
3.30312e-13
-1.07942e-13
4.33257e-13
-1.03384e-13
5.30469e-13
-9.76394e-14
6.20998e-13
-9.09458e-14
7.03965e-13
-8.3371e-14
7.78795e-13
-7.52169e-14
8.45129e-13
-6.67009e-14
9.02927e-13
-5.8145e-14
9.52249e-13
-4.96461e-14
9.93524e-13
-4.15724e-14
1.02737e-12
-3.41134e-14
1.05415e-12
-2.70196e-14
1.07453e-12
-2.05866e-14
1.08912e-12
-1.47662e-14
1.09914e-12
-1.01565e-14
1.10729e-12
-8.25752e-15
1.1126e-12
-5.3755e-15
1.11535e-12
-2.78099e-15
1.11662e-12
-1.26142e-15
1.12077e-12
-4.11031e-15
1.12375e-12
-2.90465e-15
1.12787e-12
-4.00349e-15
1.13402e-12
-6.00025e-15
1.14192e-12
-7.72402e-15
1.15186e-12
-9.7202e-15
1.16398e-12
-1.18729e-14
1.17815e-12
-1.38898e-14
1.19442e-12
-1.5962e-14
1.21257e-12
-1.78096e-14
1.2323e-12
-1.93689e-14
1.25338e-12
-2.06892e-14
1.27533e-12
-2.15438e-14
1.29789e-12
-2.21324e-14
1.32054e-12
-2.22073e-14
1.34294e-12
-2.19461e-14
1.36453e-12
-2.11255e-14
1.38501e-12
-2.00066e-14
1.4039e-12
-1.84194e-14
1.42091e-12
-1.65285e-14
1.43553e-12
-1.4137e-14
1.44755e-12
-1.15407e-14
1.45676e-12
-8.7377e-15
1.46262e-12
-5.39993e-15
1.46507e-12
-2.00364e-15
1.46391e-12
1.59818e-15
1.45943e-12
4.89002e-15
1.45113e-12
8.70277e-15
1.43911e-12
1.23888e-14
1.4234e-12
1.60618e-14
1.4039e-12
1.98292e-14
1.38088e-12
2.33157e-14
1.35432e-12
2.68139e-14
1.32438e-12
3.01715e-14
1.29137e-12
3.32083e-14
1.25524e-12
3.62898e-14
1.21638e-12
3.89902e-14
1.17466e-12
4.18147e-14
1.13063e-12
4.40831e-14
1.08442e-12
4.62284e-14
1.03619e-12
4.82116e-14
9.86087e-13
5.00432e-14
9.34352e-13
5.16413e-14
8.81154e-13
5.30693e-14
8.2675e-13
5.42403e-14
7.71232e-13
5.53185e-14
7.14788e-13
5.62141e-14
6.57606e-13
5.69188e-14
6.00027e-13
5.72872e-14
5.42201e-13
5.75087e-14
4.84488e-13
5.737e-14
4.27494e-13
5.66298e-14
3.72695e-13
5.44099e-14
3.23723e-13
4.85685e-14
2.9232e-13
3.09825e-14
3.17579e-13
-2.56904e-14
1.58646e-13
1.58488e-13
2.78777e-16
1.57918e-13
2.41538e-21
-1.58816e-22
2.41769e-21
-9.30578e-25
2.40286e-21
1.18907e-23
2.3569e-21
1.613e-23
2.31238e-21
1.9387e-23
2.27077e-21
2.27992e-23
2.23054e-21
2.65215e-23
2.19074e-21
3.02955e-23
2.15015e-21
3.39661e-23
2.10864e-21
3.7585e-23
2.06542e-21
4.09454e-23
2.02008e-21
4.41508e-23
1.97303e-21
4.7201e-23
1.92366e-21
4.9941e-23
1.87248e-21
5.2526e-23
1.81918e-21
5.48524e-23
1.76386e-21
5.68687e-23
1.70668e-21
5.88332e-23
1.64759e-21
6.06427e-23
1.58658e-21
6.2297e-23
1.52393e-21
6.3848e-23
1.45951e-21
6.52956e-23
1.39344e-21
6.66397e-23
1.32571e-21
6.78805e-23
1.25654e-21
6.91213e-23
1.18576e-21
7.01036e-23
1.11349e-21
7.10858e-23
1.03992e-21
7.19647e-23
9.65061e-22
7.28953e-23
8.88857e-22
7.36191e-23
8.11516e-22
7.43429e-23
7.33037e-22
7.49633e-23
6.53628e-22
7.55836e-23
5.73391e-22
7.61006e-23
4.92224e-22
7.64625e-23
4.10644e-22
7.68761e-23
3.28442e-22
7.70312e-23
2.45931e-22
7.7238e-23
1.63213e-22
7.71863e-23
8.08569e-23
7.68244e-23
7.52217e-23
1.14977e-13
-2.28135e-13
2.26232e-13
-2.22998e-13
3.34297e-13
-2.16798e-13
4.38042e-13
-2.0789e-13
5.36161e-13
-1.96497e-13
6.27403e-13
-1.82901e-13
7.10943e-13
-1.67597e-13
7.86148e-13
-1.51075e-13
8.527e-13
-1.33864e-13
9.10388e-13
-1.16399e-13
9.59533e-13
-9.93122e-14
1.00046e-12
-8.297e-14
1.03374e-12
-6.78098e-14
1.0598e-12
-5.34411e-14
1.07948e-12
-4.05684e-14
1.09284e-12
-2.83673e-14
1.10242e-12
-1.99178e-14
1.10974e-12
-1.56973e-14
1.11403e-12
-9.71668e-15
1.11581e-12
-4.54546e-15
1.11691e-12
-2.28416e-15
1.11999e-12
-7.04759e-15
1.12257e-12
-5.26497e-15
1.12621e-12
-7.37672e-15
1.13218e-12
-1.16379e-14
1.13991e-12
-1.50607e-14
1.1497e-12
-1.90501e-14
1.16187e-12
-2.35424e-14
1.17615e-12
-2.76121e-14
1.19261e-12
-3.18156e-14
1.21102e-12
-3.55596e-14
1.23108e-12
-3.87397e-14
1.2525e-12
-4.13757e-14
1.27487e-12
-4.3154e-14
1.29774e-12
-4.42149e-14
1.32087e-12
-4.4524e-14
1.34365e-12
-4.38917e-14
1.36568e-12
-4.23106e-14
1.38656e-12
-4.00322e-14
1.40586e-12
-3.68651e-14
1.42313e-12
-3.29363e-14
1.43817e-12
-2.83377e-14
1.45049e-12
-2.30153e-14
1.45988e-12
-1.73089e-14
1.46601e-12
-1.07326e-14
1.46862e-12
-3.84556e-15
1.4676e-12
3.36041e-15
1.46311e-12
1.00827e-14
1.45495e-12
1.75213e-14
1.4429e-12
2.50595e-14
1.42716e-12
3.23631e-14
1.40755e-12
3.99597e-14
1.38436e-12
4.69698e-14
1.35773e-12
5.38479e-14
1.32766e-12
6.05893e-14
1.29444e-12
6.67134e-14
1.25818e-12
7.27708e-14
1.21901e-12
7.83213e-14
1.17713e-12
8.37756e-14
1.13293e-12
8.83122e-14
1.0865e-12
9.26094e-14
1.03812e-12
9.64892e-14
9.87849e-13
1.00135e-13
9.35922e-13
1.0333e-13
8.82601e-13
1.06091e-13
8.27982e-13
1.085e-13
7.72203e-13
1.10679e-13
7.15572e-13
1.12372e-13
6.58287e-13
1.13682e-13
6.0043e-13
1.1457e-13
5.42212e-13
1.15109e-13
4.83897e-13
1.1503e-13
4.25731e-13
1.14104e-13
3.67624e-13
1.11792e-13
3.08563e-13
1.06881e-13
2.4145e-13
9.73224e-14
1.35656e-13
7.93187e-14
7.53973e-14
2.17949e-13
2.1639e-16
2.32466e-13
2.43027e-21
-2.41528e-22
2.43046e-21
-2.48154e-24
2.40715e-21
9.40918e-24
2.36021e-21
1.9904e-23
2.3159e-21
2.99336e-23
2.27444e-21
3.97047e-23
2.23432e-21
4.91139e-23
2.19441e-21
5.82128e-23
2.15377e-21
6.67948e-23
2.11195e-21
7.49633e-23
2.06857e-21
8.24596e-23
2.02318e-21
8.92838e-23
1.97577e-21
9.56428e-23
1.9263e-21
1.0133e-22
1.87481e-21
1.065e-22
1.82119e-21
1.11152e-22
1.76582e-21
1.1534e-22
1.70849e-21
1.19011e-22
1.64929e-21
1.22423e-22
1.58814e-21
1.2537e-22
1.52542e-21
1.28161e-22
1.4608e-21
1.30643e-22
1.39468e-21
1.32918e-22
1.32695e-21
1.34986e-22
1.25752e-21
1.36847e-22
1.18675e-21
1.38708e-22
1.11447e-21
1.40311e-22
1.0408e-21
1.41913e-22
9.65733e-22
1.43309e-22
8.89581e-22
1.4455e-22
8.12085e-22
1.45636e-22
7.33606e-22
1.46721e-22
6.54145e-22
1.47548e-22
5.73753e-22
1.48324e-22
4.92586e-22
1.48944e-22
4.1085e-22
1.49461e-22
3.28649e-22
1.49875e-22
2.45879e-22
1.5003e-22
1.62799e-22
1.50133e-22
7.93059e-23
1.49978e-22
1.49927e-22
1.16172e-13
-3.44768e-13
2.31451e-13
-3.39075e-13
3.4343e-13
-3.29461e-13
4.50329e-13
-3.15453e-13
5.50902e-13
-2.97712e-13
6.44087e-13
-2.76712e-13
7.2892e-13
-2.53025e-13
8.04862e-13
-2.27582e-13
8.71518e-13
-2.01056e-13
9.28961e-13
-1.74341e-13
9.77204e-13
-1.48015e-13
1.01696e-12
-1.23139e-13
1.04865e-12
-9.98688e-14
1.07301e-12
-7.81223e-14
1.09054e-12
-5.8374e-14
1.10138e-12
-3.94212e-14
1.10975e-12
-2.84455e-14
1.11511e-12
-2.11674e-14
1.11716e-12
-1.18134e-14
1.1168e-12
-4.17658e-15
1.11775e-12
-3.17665e-15
1.11886e-12
-8.03998e-15
1.1203e-12
-6.52312e-15
1.12314e-12
-9.98494e-15
1.12859e-12
-1.6806e-14
1.13576e-12
-2.18908e-14
1.14539e-12
-2.82949e-14
1.15754e-12
-3.52559e-14
1.17205e-12
-4.16454e-14
1.18887e-12
-4.811e-14
1.20774e-12
-5.38648e-14
1.22845e-12
-5.88544e-14
1.25059e-12
-6.28935e-14
1.27381e-12
-6.5712e-14
1.29754e-12
-6.72578e-14
1.32149e-12
-6.77707e-14
1.34516e-12
-6.68463e-14
1.36802e-12
-6.44315e-14
1.38977e-12
-6.10478e-14
1.40985e-12
-5.6199e-14
1.42784e-12
-5.01816e-14
1.44342e-12
-4.31781e-14
1.45632e-12
-3.51936e-14
1.46621e-12
-2.64875e-14
1.47281e-12
-1.66408e-14
1.4758e-12
-6.15917e-15
1.47484e-12
4.96123e-15
1.47045e-12
1.50864e-14
1.46232e-12
2.62307e-14
1.45025e-12
3.76641e-14
1.43446e-12
4.8658e-14
1.41467e-12
6.01966e-14
1.39125e-12
7.08009e-14
1.36428e-12
8.11759e-14
1.33379e-12
9.13814e-14
1.30028e-12
1.00466e-13
1.26363e-12
1.09618e-13
1.22411e-12
1.17982e-13
1.18184e-12
1.26132e-13
1.13722e-12
1.32959e-13
1.0904e-12
1.39396e-13
1.04152e-12
1.45283e-13
9.90808e-13
1.50698e-13
9.38529e-13
1.55407e-13
8.84809e-13
1.59553e-13
8.2977e-13
1.63232e-13
7.73722e-13
1.6637e-13
7.16745e-13
1.68942e-13
6.59014e-13
1.7096e-13
6.00752e-13
1.7234e-13
5.42015e-13
1.73314e-13
4.82929e-13
1.73548e-13
4.23312e-13
1.73125e-13
3.62609e-13
1.7187e-13
2.98693e-13
1.70147e-13
2.25927e-13
1.69418e-13
1.28098e-13
1.76467e-13
7.01453e-14
2.75211e-13
2.05765e-16
3.01846e-13
2.44185e-21
-3.01081e-22
2.4423e-21
-3.25702e-24
2.41769e-21
1.29247e-23
2.37018e-21
2.87445e-23
2.32562e-21
4.43576e-23
2.28385e-21
5.9557e-23
2.24342e-21
7.42395e-23
2.20299e-21
8.80947e-23
2.16199e-21
1.01278e-22
2.1195e-21
1.13427e-22
2.07545e-21
1.24749e-22
2.02949e-21
1.35089e-22
1.98151e-21
1.44498e-22
1.93147e-21
1.52925e-22
1.87946e-21
1.60525e-22
1.82528e-21
1.67401e-22
1.76955e-21
1.73605e-22
1.71185e-21
1.79085e-22
1.65224e-21
1.83893e-22
1.59093e-21
1.88287e-22
1.52785e-21
1.92371e-22
1.46308e-21
1.95887e-22
1.39675e-21
1.99195e-22
1.32887e-21
2.02194e-22
1.25938e-21
2.04934e-22
1.1884e-21
2.07571e-22
1.11592e-21
2.09949e-22
1.0422e-21
2.1212e-22
9.67026e-22
2.14136e-22
8.90667e-22
2.16049e-22
8.13119e-22
2.176e-22
7.34536e-22
2.19099e-22
6.54869e-22
2.20444e-22
5.74374e-22
2.21529e-22
4.93103e-22
2.22512e-22
4.11212e-22
2.23235e-22
3.28804e-22
2.23907e-22
2.45931e-22
2.24321e-22
1.62696e-22
2.24476e-22
7.92026e-23
2.24631e-22
2.2458e-22
1.214e-13
-4.66609e-13
2.41157e-13
-4.5961e-13
3.57468e-13
-4.46441e-13
4.68368e-13
-4.27002e-13
5.72283e-13
-4.02256e-13
6.68038e-13
-3.73075e-13
7.54719e-13
-3.40293e-13
8.31694e-13
-3.05114e-13
8.98673e-13
-2.68561e-13
9.5552e-13
-2.31677e-13
1.00275e-12
-1.95689e-13
1.04079e-12
-1.61597e-13
1.07005e-12
-1.2949e-13
1.09209e-12
-1.00476e-13
1.10648e-12
-7.30272e-14
1.11377e-12
-4.69196e-14
1.12028e-12
-3.51167e-14
1.1226e-12
-2.35955e-14
1.12171e-12
-1.0971e-14
1.11757e-12
-3.21126e-17
1.11892e-12
-4.46532e-15
1.11656e-12
-5.56272e-15
1.11657e-12
-6.36046e-15
1.11825e-12
-1.14395e-14
1.12274e-12
-2.10179e-14
1.12926e-12
-2.80817e-14
1.13865e-12
-3.73076e-14
1.15079e-12
-4.69728e-14
1.16578e-12
-5.61573e-14
1.18303e-12
-6.4855e-14
1.20275e-12
-7.3039e-14
1.22446e-12
-7.99807e-14
1.2477e-12
-8.55162e-14
1.27214e-12
-8.94993e-14
1.29716e-12
-9.16168e-14
1.32244e-12
-9.23607e-14
1.34739e-12
-9.10823e-14
1.37158e-12
-8.79087e-14
1.3945e-12
-8.32342e-14
1.41571e-12
-7.6688e-14
1.43489e-12
-6.86279e-14
1.45148e-12
-5.90535e-14
1.46517e-12
-4.81657e-14
1.47573e-12
-3.63474e-14
1.48289e-12
-2.31258e-14
1.48663e-12
-9.23884e-15
1.48601e-12
6.21229e-15
1.4816e-12
2.00959e-14
1.47363e-12
3.47669e-14
1.46146e-12
5.03574e-14
1.44546e-12
6.51462e-14
1.42544e-12
8.06628e-14
1.4016e-12
9.50349e-14
1.37424e-12
1.0889e-13
1.34334e-12
1.22578e-13
1.30922e-12
1.34833e-13
1.27194e-12
1.47097e-13
1.2318e-12
1.58253e-13
1.18898e-12
1.69034e-13
1.14371e-12
1.78248e-13
1.09625e-12
1.86825e-13
1.04679e-12
1.94647e-13
9.95559e-13
2.01789e-13
9.42727e-13
2.08042e-13
8.88453e-13
2.13576e-13
8.32854e-13
2.18532e-13
7.76225e-13
2.22647e-13
7.18674e-13
2.26094e-13
6.60462e-13
2.28731e-13
6.01572e-13
2.30749e-13
5.42201e-13
2.32162e-13
4.82426e-13
2.32767e-13
4.22122e-13
2.32842e-13
3.60716e-13
2.32662e-13
2.97507e-13
2.32721e-13
2.32086e-13
2.34184e-13
1.66859e-13
2.41023e-13
7.24217e-14
3.68969e-13
2.03122e-16
3.7352e-13
2.45839e-21
-4.10267e-22
2.45848e-21
-4.4978e-24
2.43351e-21
1.72674e-23
2.3858e-21
3.8619e-23
2.34082e-21
5.97121e-23
2.29853e-21
8.02882e-23
2.25732e-21
1.00037e-22
2.21612e-21
1.18856e-22
2.17409e-21
1.36433e-22
2.13077e-21
1.52822e-22
2.08579e-21
1.67814e-22
2.03879e-21
1.81514e-22
1.98994e-21
1.93974e-22
1.93907e-21
2.05193e-22
1.88633e-21
2.15325e-22
1.83153e-21
2.24321e-22
1.77508e-21
2.32386e-22
1.71666e-21
2.39521e-22
1.65664e-21
2.45879e-22
1.59496e-21
2.51566e-22
1.53142e-21
2.56581e-22
1.46644e-21
2.61234e-22
1.39974e-21
2.65473e-22
1.33161e-21
2.69506e-22
1.26197e-21
2.73073e-22
1.19073e-21
2.7633e-22
1.11814e-21
2.79484e-22
1.04416e-21
2.82327e-22
9.68939e-22
2.84964e-22
8.92321e-22
2.87342e-22
8.14618e-22
2.89513e-22
7.35829e-22
2.91426e-22
6.55954e-22
2.93236e-22
5.75356e-22
2.94787e-22
4.93827e-22
2.96027e-22
4.11833e-22
2.97113e-22
3.2927e-22
2.97888e-22
2.46138e-22
2.98509e-22
1.62799e-22
2.98974e-22
7.92026e-23
2.99181e-22
2.99181e-22
1.2852e-13
-5.95565e-13
2.5467e-13
-5.86531e-13
3.76794e-13
-5.69229e-13
4.93005e-13
-5.43855e-13
6.01394e-13
-5.1127e-13
7.00651e-13
-4.72938e-13
7.89811e-13
-4.30033e-13
8.68194e-13
-3.84049e-13
9.35448e-13
-3.36335e-13
9.91692e-13
-2.88407e-13
1.03731e-12
-2.41752e-13
1.07291e-12
-1.97598e-13
1.09906e-12
-1.56001e-13
1.11774e-12
-1.19471e-13
1.12738e-12
-8.29241e-14
1.1312e-12
-5.09535e-14
1.13407e-12
-3.81503e-14
1.13218e-12
-2.18045e-14
1.12694e-12
-5.78833e-15
1.11953e-12
7.38235e-15
1.11871e-12
-3.58727e-15
1.1132e-12
5.93993e-17
1.11095e-12
-3.9407e-15
1.11128e-12
-1.15456e-14
1.11425e-12
-2.37093e-14
1.12006e-12
-3.35746e-14
1.12921e-12
-4.6077e-14
1.14142e-12
-5.87666e-14
1.15683e-12
-7.11049e-14
1.17508e-12
-8.25924e-14
1.19586e-12
-9.3277e-14
1.21886e-12
-1.02396e-13
1.24363e-12
-1.09675e-13
1.26974e-12
-1.1497e-13
1.29654e-12
-1.17755e-13
1.32371e-12
-1.18855e-13
1.35044e-12
-1.17115e-13
1.37646e-12
-1.13216e-13
1.40108e-12
-1.07137e-13
1.42388e-12
-9.87694e-14
1.44441e-12
-8.84389e-14
1.46232e-12
-7.62477e-14
1.47717e-12
-6.2309e-14
1.48871e-12
-4.71987e-14
1.49673e-12
-3.04673e-14
1.50108e-12
-1.29398e-14
1.50125e-12
6.65752e-15
1.49657e-12
2.53722e-14
1.48872e-12
4.31731e-14
1.47657e-12
6.30284e-14
1.46034e-12
8.18626e-14
1.43998e-12
1.01461e-13
1.41569e-12
1.19719e-13
1.38775e-12
1.37174e-13
1.35609e-12
1.54536e-13
1.32125e-12
1.69907e-13
1.28316e-12
1.85375e-13
1.24219e-12
1.99358e-13
1.19847e-12
2.12842e-13
1.15246e-12
2.24277e-13
1.10412e-12
2.35131e-13
1.0539e-12
2.44779e-13
1.00183e-12
2.53715e-13
9.48228e-13
2.61449e-13
8.9324e-13
2.68316e-13
8.36923e-13
2.74551e-13
7.79579e-13
2.79643e-13
7.21429e-13
2.8385e-13
6.62458e-13
2.87265e-13
6.02844e-13
2.89881e-13
5.42843e-13
2.91648e-13
4.82416e-13
2.92643e-13
4.21788e-13
2.92889e-13
3.61045e-13
2.92795e-13
2.99907e-13
2.93228e-13
2.39927e-13
2.93518e-13
1.78453e-13
3.01835e-13
7.43195e-14
4.72432e-13
2.00797e-16
4.47101e-13
2.48155e-21
-5.26071e-22
2.4802e-21
-5.73857e-24
2.45492e-21
2.1972e-23
2.40694e-21
4.91656e-23
2.36134e-21
7.60489e-23
2.31823e-21
1.02157e-22
2.27614e-21
1.27282e-22
2.23375e-21
1.50909e-22
2.19053e-21
1.72984e-22
2.14571e-21
1.93457e-22
2.09954e-21
2.12327e-22
2.0513e-21
2.29439e-22
2.00116e-21
2.44742e-22
1.9492e-21
2.58597e-22
1.89528e-21
2.70953e-22
1.8396e-21
2.81965e-22
1.78216e-21
2.91736e-22
1.72297e-21
3.00318e-22
1.66232e-21
3.08021e-22
1.59997e-21
3.14897e-22
1.53607e-21
3.20998e-22
1.47068e-21
3.26633e-22
1.40367e-21
3.31751e-22
1.33517e-21
3.36404e-22
1.26522e-21
3.40798e-22
1.19388e-21
3.44831e-22
1.12098e-21
3.48657e-22
1.0468e-21
3.52276e-22
9.71317e-22
3.55533e-22
8.94441e-22
3.58583e-22
8.16531e-22
3.61375e-22
7.37638e-22
3.63856e-22
6.57505e-22
3.65924e-22
5.76597e-22
3.67837e-22
4.94913e-22
3.6944e-22
4.1266e-22
3.70835e-22
3.29838e-22
3.71921e-22
2.46603e-22
3.728e-22
1.63006e-22
3.7342e-22
7.92543e-23
3.73886e-22
3.74092e-22
1.3746e-13
-7.33457e-13
2.72166e-13
-7.21999e-13
4.02277e-13
-6.99994e-13
5.25413e-13
-6.67626e-13
6.39696e-13
-6.26169e-13
7.43526e-13
-5.77367e-13
8.35883e-13
-5.22963e-13
9.1586e-13
-4.64571e-13
9.83431e-13
-4.04418e-13
1.0388e-12
-3.44256e-13
1.08222e-12
-2.85616e-13
1.11401e-12
-2.29788e-13
1.13694e-12
-1.79278e-13
1.14987e-12
-1.32719e-13
1.15256e-12
-8.58694e-14
1.15464e-12
-5.32439e-14
1.15147e-12
-3.51491e-14
1.14368e-12
-1.41141e-14
1.13203e-12
5.80641e-15
1.12383e-12
1.55865e-14
1.11664e-12
3.65643e-15
1.10839e-12
8.42401e-15
1.10307e-12
1.53948e-15
1.1019e-12
-1.01569e-14
1.1028e-12
-2.43405e-14
1.10789e-12
-3.83414e-14
1.11657e-12
-5.4383e-14
1.12901e-12
-7.07946e-14
1.14504e-12
-8.66732e-14
1.16455e-12
-1.01609e-13
1.18678e-12
-1.14969e-13
1.21157e-12
-1.26609e-13
1.2384e-12
-1.359e-13
1.26671e-12
-1.42654e-13
1.29587e-12
-1.46256e-13
1.32529e-12
-1.47597e-13
1.35435e-12
-1.45486e-13
1.38266e-12
-1.40825e-13
1.40945e-12
-1.3322e-13
1.43423e-12
-1.22832e-13
1.45665e-12
-1.10149e-13
1.47623e-12
-9.51209e-14
1.49259e-12
-7.79763e-14
1.50534e-12
-5.92691e-14
1.51437e-12
-3.88333e-14
1.51923e-12
-1.71544e-14
1.52067e-12
5.83245e-15
1.51574e-12
3.08797e-14
1.5079e-12
5.15733e-14
1.49577e-12
7.56644e-14
1.47903e-12
9.90796e-14
1.45843e-12
1.22501e-13
1.43337e-12
1.45162e-13
1.4046e-12
1.66289e-13
1.37207e-12
1.87351e-13
1.33632e-12
2.05901e-13
1.29724e-12
2.24642e-13
1.25519e-12
2.41539e-13
1.21044e-12
2.57664e-13
1.16324e-12
2.71494e-13
1.11392e-12
2.84415e-13
1.06274e-12
2.95881e-13
1.00976e-12
3.06548e-13
9.55156e-13
3.15858e-13
8.99245e-13
3.23981e-13
8.42061e-13
3.31439e-13
7.83918e-13
3.37442e-13
7.2487e-13
3.42507e-13
6.65051e-13
3.4665e-13
6.04629e-13
3.49827e-13
5.43786e-13
3.5198e-13
4.82732e-13
3.53152e-13
4.21804e-13
3.53242e-13
3.61418e-13
3.5258e-13
3.01849e-13
3.52174e-13
2.46951e-13
3.47775e-13
1.87387e-13
3.60745e-13
6.18723e-14
5.97284e-13
1.97624e-16
5.08241e-13
2.50637e-21
-6.15409e-22
2.50796e-21
-6.46235e-24
2.48206e-21
2.7297e-23
2.43382e-21
6.06944e-23
2.3875e-21
9.34714e-23
2.3433e-21
1.25266e-22
2.29977e-21
1.55665e-22
2.25588e-21
1.84358e-22
2.21095e-21
2.1119e-22
2.16458e-21
2.3585e-22
2.1166e-21
2.58339e-22
2.06666e-21
2.78656e-22
2.01501e-21
2.96958e-22
1.9615e-21
3.13295e-22
1.90634e-21
3.2777e-22
1.84937e-21
3.40488e-22
1.79074e-21
3.51707e-22
1.73072e-21
3.61736e-22
1.6692e-21
3.70629e-22
1.60613e-21
3.78539e-22
1.54166e-21
3.85621e-22
1.47579e-21
3.92032e-22
1.40838e-21
3.97926e-22
1.33957e-21
4.03406e-22
1.26931e-21
4.0842e-22
1.19771e-21
4.13228e-22
1.1246e-21
4.17675e-22
1.05005e-21
4.2181e-22
9.74367e-22
4.25843e-22
8.97233e-22
4.2941e-22
8.18961e-22
4.32822e-22
7.39706e-22
4.35873e-22
6.5947e-22
4.38561e-22
5.78251e-22
4.40991e-22
4.96257e-22
4.43059e-22
4.13745e-22
4.44816e-22
3.30717e-22
4.46264e-22
2.47224e-22
4.4735e-22
1.63472e-22
4.48125e-22
7.94093e-23
4.48746e-22
4.49004e-22
1.48865e-13
-8.8275e-13
2.94562e-13
-8.68442e-13
4.34848e-13
-8.40925e-13
5.66856e-13
-8.00259e-13
6.8853e-13
-7.4845e-13
7.98027e-13
-6.87449e-13
8.94181e-13
-6.1968e-13
9.76236e-13
-5.47161e-13
1.04407e-12
-4.72757e-13
1.09787e-12
-3.98528e-13
1.13776e-12
-3.25942e-13
1.16568e-12
-2.58093e-13
1.18349e-12
-1.97447e-13
1.18823e-12
-1.37764e-13
1.1841e-12
-8.1999e-14
1.18262e-12
-5.19648e-14
1.17181e-12
-2.44989e-14
1.15681e-12
7.7543e-16
1.13622e-12
2.63494e-14
1.12974e-12
2.20595e-14
1.11232e-12
2.114e-14
1.10146e-12
1.93879e-14
1.09229e-12
1.08695e-14
1.08912e-12
-6.76568e-15
1.0878e-12
-2.27532e-14
1.09183e-12
-4.20585e-14
1.10022e-12
-6.24064e-14
1.11302e-12
-8.31884e-14
1.13001e-12
-1.03209e-13
1.151e-12
-1.22106e-13
1.17521e-12
-1.38647e-13
1.2023e-12
-1.53129e-13
1.23171e-12
-1.64718e-13
1.26278e-12
-1.73107e-13
1.29479e-12
-1.77612e-13
1.32719e-12
-1.79338e-13
1.35916e-12
-1.76772e-13
1.39021e-12
-1.71181e-13
1.41967e-12
-1.61983e-13
1.44709e-12
-1.49546e-13
1.47176e-12
-1.34122e-13
1.49335e-12
-1.1602e-13
1.51149e-12
-9.54254e-14
1.52566e-12
-7.2765e-14
1.53598e-12
-4.85083e-14
1.54156e-12
-2.2102e-14
1.5439e-12
4.09604e-15
1.53982e-12
3.55396e-14
1.53143e-12
6.05e-14
1.51926e-12
8.83465e-14
1.50203e-12
1.16774e-13
1.48096e-12
1.44003e-13
1.45492e-12
1.71585e-13
1.42514e-12
1.96396e-13
1.39151e-12
2.21271e-13
1.35444e-12
2.43206e-13
1.31419e-12
2.6507e-13
1.27077e-12
2.85082e-13
1.22478e-12
3.03733e-13
1.17616e-12
3.20129e-13
1.1257e-12
3.34845e-13
1.07319e-12
3.48304e-13
1.019e-12
3.6059e-13
9.63414e-13
3.7125e-13
9.06384e-13
3.80765e-13
8.48155e-13
3.89373e-13
7.89075e-13
3.9618e-13
7.29085e-13
4.0211e-13
6.68242e-13
4.07064e-13
6.0677e-13
4.10831e-13
5.44887e-13
4.13361e-13
4.82807e-13
4.14692e-13
4.21066e-13
4.14417e-13
3.60712e-13
4.12341e-13
3.03832e-13
4.08441e-13
2.4782e-13
4.03154e-13
1.34809e-13
4.73108e-13
4.8893e-14
6.82544e-13
1.94326e-16
5.56414e-13
2.54442e-21
-6.91511e-22
2.54172e-21
-7.13443e-24
2.51546e-21
3.32423e-23
2.4666e-21
7.31021e-23
2.4193e-21
1.12238e-22
2.3737e-21
1.50133e-22
2.32851e-21
1.86116e-22
2.28266e-21
2.2003e-22
2.23561e-21
2.51463e-22
2.18712e-21
2.80259e-22
2.13697e-21
3.06419e-22
2.08491e-21
3.2989e-22
2.0313e-21
3.50983e-22
1.97603e-21
3.69543e-22
1.91901e-21
3.85931e-22
1.86059e-21
4.00304e-22
1.80082e-21
4.12918e-22
1.73956e-21
4.24034e-22
1.67711e-21
4.33753e-22
1.61316e-21
4.4249e-22
1.54812e-21
4.50452e-22
1.48169e-21
4.57534e-22
1.41386e-21
4.63997e-22
1.34463e-21
4.70097e-22
1.27412e-21
4.75939e-22
1.20215e-21
4.81367e-22
1.12874e-21
4.86486e-22
1.05403e-21
4.91294e-22
9.77934e-22
4.95947e-22
9.00593e-22
5.00341e-22
8.22011e-22
5.0427e-22
7.42498e-22
5.07941e-22
6.61848e-22
5.11198e-22
5.80267e-22
5.14093e-22
4.98066e-22
5.16729e-22
4.15193e-22
5.18849e-22
3.31803e-22
5.20607e-22
2.47999e-22
5.22054e-22
1.64092e-22
5.2314e-22
7.96678e-23
5.23812e-22
5.24329e-22
1.63196e-13
-1.04637e-12
3.22656e-13
-1.02863e-12
4.75537e-13
-9.94437e-13
6.18641e-13
-9.43973e-13
7.49487e-13
-8.79891e-13
8.66e-13
-8.0454e-13
9.66703e-13
-7.20937e-13
1.05109e-12
-6.32073e-13
1.11893e-12
-5.41088e-13
1.17002e-12
-4.50082e-13
1.20571e-12
-3.6206e-13
1.22901e-12
-2.81772e-13
1.23855e-12
-2.07332e-13
1.23229e-12
-1.31801e-13
1.22571e-12
-7.56754e-14
1.21363e-12
-4.0085e-14
1.19444e-12
-5.46235e-15
1.16926e-12
2.58415e-14
1.14466e-12
5.08979e-14
1.1311e-12
3.56184e-14
1.10665e-12
4.56466e-14
1.09104e-12
3.51023e-14
1.07868e-12
2.33883e-14
1.07159e-12
5.34956e-16
1.06864e-12
-1.95377e-14
1.07139e-12
-4.45034e-14
1.07965e-12
-7.031e-14
1.09283e-12
-9.59673e-14
1.11108e-12
-1.21009e-13
1.13396e-12
-1.44509e-13
1.16075e-12
-1.64907e-13
1.19074e-12
-1.82567e-13
1.22338e-12
-1.96771e-13
1.25791e-12
-2.0703e-13
1.29352e-12
-2.12591e-13
1.32934e-12
-2.145e-13
1.36504e-12
-2.11809e-13
1.39947e-12
-2.04931e-13
1.43215e-12
-1.93977e-13
1.4625e-12
-1.79209e-13
1.48989e-12
-1.6082e-13
1.5139e-12
-1.39345e-13
1.53412e-12
-1.14975e-13
1.55019e-12
-8.8179e-14
1.56178e-12
-5.94498e-14
1.5687e-12
-2.84045e-14
1.57081e-12
2.57682e-15
1.56916e-12
3.77587e-14
1.55935e-12
7.08442e-14
1.54703e-12
1.01162e-13
1.52936e-12
1.34903e-13
1.50752e-12
1.66264e-13
1.48055e-12
1.98926e-13
1.44938e-12
2.27895e-13
1.41452e-12
2.56408e-13
1.3757e-12
2.82249e-13
1.33398e-12
3.06975e-13
1.2889e-12
3.30286e-13
1.24156e-12
3.51139e-13
1.19122e-12
3.70486e-13
1.13922e-12
3.86814e-13
1.08543e-12
4.02006e-13
1.02986e-12
4.16015e-13
9.72862e-13
4.28061e-13
9.14545e-13
4.38841e-13
8.55308e-13
4.48323e-13
7.95064e-13
4.56085e-13
7.33897e-13
4.62896e-13
6.71996e-13
4.68544e-13
6.09333e-13
4.73034e-13
5.46127e-13
4.76071e-13
4.82585e-13
4.77704e-13
4.18906e-13
4.77536e-13
3.56082e-13
4.74583e-13
2.97125e-13
4.66794e-13
2.51361e-13
4.48295e-13
1.07051e-13
6.16783e-13
5.31834e-14
7.35767e-13
1.90924e-16
6.0889e-13
2.58247e-21
-8.00698e-22
2.5821e-21
-8.01331e-24
2.55537e-21
4.00149e-23
2.50574e-21
8.70091e-23
2.45714e-21
1.32969e-22
2.40973e-21
1.77223e-22
2.36238e-21
2.19151e-22
2.31409e-21
2.58235e-22
2.26446e-21
2.94321e-22
2.21323e-21
3.27305e-22
2.16044e-21
3.5698e-22
2.10605e-21
3.83605e-22
2.04991e-21
4.07076e-22
1.99242e-21
4.27808e-22
1.93333e-21
4.45799e-22
1.8732e-21
4.61515e-22
1.81189e-21
4.75215e-22
1.74928e-21
4.87003e-22
1.68579e-21
4.97653e-22
1.62112e-21
5.06855e-22
1.5552e-21
5.15178e-22
1.4882e-21
5.22882e-22
1.41996e-21
5.29964e-22
1.35042e-21
5.36582e-22
1.27955e-21
5.42941e-22
1.20727e-21
5.49041e-22
1.13355e-21
5.54935e-22
1.05869e-21
5.60673e-22
9.82329e-22
5.65895e-22
9.04574e-22
5.7091e-22
8.2563e-22
5.75666e-22
7.45703e-22
5.80112e-22
6.64795e-22
5.84196e-22
5.82904e-22
5.8766e-22
5.00238e-22
5.90814e-22
4.16951e-22
5.93502e-22
3.3325e-22
5.95777e-22
2.49085e-22
5.97535e-22
1.64764e-22
5.98931e-22
8.01848e-23
5.99964e-22
6.00533e-22
1.80951e-13
-1.22773e-12
3.57364e-13
-1.20576e-12
5.2591e-13
-1.1636e-12
6.82749e-13
-1.10141e-12
8.24747e-13
-1.02247e-12
9.49674e-13
-9.30026e-13
1.05583e-12
-8.27627e-13
1.14272e-12
-7.19482e-13
1.20968e-12
-6.08532e-13
1.25721e-12
-4.98061e-13
1.28798e-12
-3.93241e-13
1.30495e-12
-2.99121e-13
1.30126e-12
-2.03982e-13
1.28656e-12
-1.17384e-13
1.27447e-12
-6.38401e-14
1.24874e-12
-1.45542e-14
1.21787e-12
2.52556e-14
1.18185e-12
6.17573e-14
1.15883e-12
7.38754e-14
1.1255e-12
6.89434e-14
1.09957e-12
7.16301e-14
1.07624e-12
5.85332e-14
1.06085e-12
3.89423e-14
1.04869e-12
1.28941e-14
1.04408e-12
-1.46763e-14
1.04565e-12
-4.57637e-14
1.05366e-12
-7.79726e-14
1.06776e-12
-1.09675e-13
1.0878e-12
-1.40619e-13
1.11302e-12
-1.69251e-13
1.14308e-12
-1.94458e-13
1.17663e-12
-2.15573e-13
1.2132e-12
-2.32761e-13
1.25196e-12
-2.45194e-13
1.29184e-12
-2.51849e-13
1.33205e-12
-2.54068e-13
1.372e-12
-2.51105e-13
1.41046e-12
-2.42722e-13
1.44695e-12
-2.29794e-13
1.4808e-12
-2.12382e-13
1.51146e-12
-1.90799e-13
1.53828e-12
-1.65507e-13
1.56087e-12
-1.369e-13
1.57901e-12
-1.05676e-13
1.5923e-12
-7.21096e-14
1.60068e-12
-3.61707e-14
1.60309e-12
7.48153e-16
1.60293e-12
3.84719e-14
1.59286e-12
8.14392e-14
1.57958e-12
1.14927e-13
1.56164e-12
1.53288e-13
1.53822e-12
1.90098e-13
1.51035e-12
2.27157e-13
1.47752e-12
2.61041e-13
1.44101e-12
2.93191e-13
1.40023e-12
3.23258e-13
1.35672e-12
3.50649e-13
1.30974e-12
3.77389e-13
1.26063e-12
4.00316e-13
1.20837e-12
4.22772e-13
1.15462e-12
4.40522e-13
1.09909e-12
4.57452e-13
1.04202e-12
4.72949e-13
9.83547e-13
4.86342e-13
9.23838e-13
4.98313e-13
8.63394e-13
5.08483e-13
8.01856e-13
5.17292e-13
7.39506e-13
5.24871e-13
6.76291e-13
5.31342e-13
6.12445e-13
5.36428e-13
5.47819e-13
5.40208e-13
4.82459e-13
5.42543e-13
4.16322e-13
5.43128e-13
3.48972e-13
5.41361e-13
2.80006e-13
5.35164e-13
2.03119e-13
5.24574e-13
9.95639e-14
7.19714e-13
5.54606e-14
7.79239e-13
1.86682e-16
6.63657e-13
2.63044e-21
-8.50328e-22
2.63012e-21
-7.80652e-24
2.60236e-21
4.78731e-23
2.55165e-21
1.02415e-22
2.50139e-21
1.55768e-22
2.45166e-21
2.06847e-22
2.40146e-21
2.54823e-22
2.35023e-21
2.99388e-22
2.29744e-21
3.40333e-22
2.24295e-21
3.77453e-22
2.18701e-21
4.10747e-22
2.12952e-21
4.40008e-22
2.07064e-21
4.65754e-22
2.01041e-21
4.88088e-22
1.9491e-21
5.07527e-22
1.8869e-21
5.24226e-22
1.82378e-21
5.38805e-22
1.75988e-21
5.51264e-22
1.69505e-21
5.62173e-22
1.62944e-21
5.71789e-22
1.56285e-21
5.80371e-22
1.49528e-21
5.88384e-22
1.42663e-21
5.95777e-22
1.35673e-21
6.02911e-22
1.28565e-21
6.09891e-22
1.21316e-21
6.16663e-22
1.13929e-21
6.23177e-22
1.06396e-21
6.2964e-22
9.87344e-22
6.35947e-22
9.09382e-22
6.41789e-22
8.30076e-22
6.47527e-22
7.49736e-22
6.52801e-22
6.68207e-22
6.57557e-22
5.86006e-22
6.61848e-22
5.02978e-22
6.65674e-22
4.19226e-22
6.68879e-22
3.35008e-22
6.71671e-22
2.50481e-22
6.73945e-22
1.65746e-22
6.756e-22
8.07535e-23
6.76841e-22
6.77616e-22
2.02871e-13
-1.431e-12
4.00385e-13
-1.40396e-12
5.88227e-13
-1.35204e-12
7.6166e-13
-1.27542e-12
9.17276e-13
-1.17864e-12
1.05209e-12
-1.06538e-12
1.16443e-12
-9.40488e-13
1.2545e-12
-8.10048e-13
1.31858e-12
-6.73081e-13
1.36194e-12
-5.41855e-13
1.38924e-12
-4.20947e-13
1.39017e-12
-3.00415e-13
1.37296e-12
-1.87095e-13
1.35726e-12
-1.01974e-13
1.32595e-12
-3.27686e-14
1.28884e-12
2.2372e-14
1.23921e-12
7.47323e-14
1.20204e-12
9.88265e-14
1.16419e-12
1.11681e-13
1.12021e-12
1.12917e-13
1.08638e-12
1.05519e-13
1.05764e-12
8.73681e-14
1.03596e-12
6.07772e-14
1.02022e-12
2.88388e-14
1.01302e-12
-7.23572e-15
1.01348e-12
-4.5929e-14
1.02147e-12
-8.56221e-14
1.03698e-12
-1.248e-13
1.05925e-12
-1.62465e-13
1.08765e-12
-1.9718e-13
1.12147e-12
-2.27789e-13
1.15966e-12
-2.5323e-13
1.20101e-12
-2.73544e-13
1.24477e-12
-2.88378e-13
1.28981e-12
-2.96273e-13
1.3354e-12
-2.99043e-13
1.38024e-12
-2.95295e-13
1.42364e-12
-2.85469e-13
1.46451e-12
-2.70008e-13
1.50241e-12
-2.4963e-13
1.53665e-12
-2.24375e-13
1.56681e-12
-1.95016e-13
1.59226e-12
-1.61706e-13
1.61267e-12
-1.25459e-13
1.62783e-12
-8.6651e-14
1.63775e-12
-4.54987e-14
1.64148e-12
-2.42006e-15
1.6403e-12
4.01974e-14
1.63245e-12
8.97935e-14
1.61741e-12
1.30444e-13
1.59874e-12
1.72393e-13
1.57356e-12
2.15678e-13
1.5449e-12
2.56176e-13
1.50996e-12
2.96287e-13
1.47118e-12
3.32235e-13
1.42809e-12
3.66562e-13
1.38241e-12
3.96491e-13
1.33321e-12
4.26712e-13
1.2818e-12
4.51792e-13
1.22763e-12
4.76961e-13
1.17148e-12
4.96627e-13
1.11426e-12
5.14592e-13
1.05538e-12
5.31688e-13
9.95412e-13
5.46122e-13
9.34203e-13
5.59288e-13
8.72276e-13
5.70129e-13
8.09457e-13
5.79786e-13
7.45803e-13
5.88161e-13
6.81359e-13
5.95382e-13
6.16179e-13
6.01164e-13
5.50093e-13
6.05815e-13
4.83001e-13
6.09128e-13
4.14212e-13
6.11382e-13
3.4231e-13
6.12706e-13
2.63857e-13
6.13038e-13
1.63055e-13
6.2478e-13
9.75488e-14
7.84612e-13
5.28022e-14
8.23368e-13
1.81822e-16
7.15784e-13
2.68835e-21
-8.93341e-22
2.68575e-21
-7.34123e-24
2.65696e-21
5.71789e-23
2.605e-21
1.20251e-22
2.55247e-21
1.81463e-22
2.49964e-21
2.39676e-22
2.44608e-21
2.94321e-22
2.39112e-21
3.44624e-22
2.33456e-21
3.90429e-22
2.27625e-21
4.3153e-22
2.21633e-21
4.67874e-22
2.15532e-21
4.99824e-22
2.09292e-21
5.27483e-22
2.0298e-21
5.51264e-22
1.9659e-21
5.7153e-22
1.90138e-21
5.88953e-22
1.83619e-21
6.03532e-22
1.77079e-21
6.1625e-22
1.70472e-21
6.27055e-22
1.63808e-21
6.36826e-22
1.57087e-21
6.45511e-22
1.50273e-21
6.53628e-22
1.43376e-21
6.61331e-22
1.36371e-21
6.68879e-22
1.29242e-21
6.76272e-22
1.21978e-21
6.83717e-22
1.1457e-21
6.91213e-22
1.07027e-21
6.98657e-22
9.93237e-22
7.05844e-22
9.15069e-22
7.12978e-22
8.35349e-22
7.19596e-22
7.54492e-22
7.25903e-22
6.7255e-22
7.31641e-22
5.89883e-22
7.36915e-22
5.06183e-22
7.41361e-22
4.22069e-22
7.45445e-22
3.37231e-22
7.48702e-22
2.52187e-22
7.51442e-22
1.66987e-22
7.53613e-22
8.1529e-23
7.55113e-22
7.56198e-22
2.29998e-13
-1.66139e-12
4.53292e-13
-1.62793e-12
6.64692e-13
-1.56402e-12
8.58171e-13
-1.46945e-12
1.03035e-12
-1.35137e-12
1.17789e-12
-1.21345e-12
1.29673e-12
-1.05983e-12
1.38759e-12
-9.01391e-13
1.44956e-12
-7.35504e-13
1.49195e-12
-5.84669e-13
1.5022e-12
-4.31582e-13
1.48703e-12
-2.85592e-13
1.46709e-12
-1.67468e-13
1.43158e-12
-6.67426e-14
1.38624e-12
1.23437e-14
1.32576e-12
8.26668e-14
1.27123e-12
1.29127e-13
1.21927e-12
1.50694e-13
1.16268e-12