/*--------------------------------*- C++ -*----------------------------------*\
  =========                 |
  \\      /  F ield         | OpenFOAM: The Open Source CFD Toolbox
   \\    /   O peration     | Website:  https://openfoam.org
    \\  /    A nd           | Version:  6
     \\/     M anipulation  |
\*---------------------------------------------------------------------------*/
FoamFile
{
    version     2.0;
    format      ascii;
    class       volVectorField;
    location    "6500";
    object      U;
}
// * * * * * * * * * * * * * * * * * * * * * * * * * * * * * * * * * * * * * //

dimensions      [0 1 -1 0 0 0 0];

internalField   nonuniform List<vector> 
4800
(
(2.34665e-08 0 -2.17595e-08)
(6.6781e-08 0 -2.45209e-08)
(1.10395e-07 0 -2.50668e-08)
(1.52497e-07 0 -2.43867e-08)
(1.92489e-07 0 -2.31176e-08)
(2.30007e-07 0 -2.14915e-08)
(2.64686e-07 0 -1.96044e-08)
(2.96234e-07 0 -1.75644e-08)
(3.24466e-07 0 -1.5449e-08)
(3.49297e-07 0 -1.33402e-08)
(3.70728e-07 0 -1.12664e-08)
(3.88855e-07 0 -9.3295e-09)
(4.0386e-07 0 -7.56569e-09)
(4.15967e-07 0 -5.94505e-09)
(4.25405e-07 0 -4.49788e-09)
(4.32437e-07 0 -3.2248e-09)
(4.3744e-07 0 -2.20026e-09)
(4.41181e-07 0 -1.74091e-09)
(4.43887e-07 0 -1.13759e-09)
(4.45434e-07 0 -5.71422e-10)
(4.46454e-07 0 -2.40533e-10)
(4.4763e-07 0 -7.91817e-10)
(4.49004e-07 0 -5.20785e-10)
(4.50493e-07 0 -7.23049e-10)
(4.52523e-07 0 -1.08752e-09)
(4.55333e-07 0 -1.42289e-09)
(4.58892e-07 0 -1.80265e-09)
(4.63276e-07 0 -2.21582e-09)
(4.68517e-07 0 -2.60694e-09)
(4.74598e-07 0 -3.00735e-09)
(4.81469e-07 0 -3.36671e-09)
(4.89027e-07 0 -3.67039e-09)
(4.97178e-07 0 -3.92928e-09)
(5.05771e-07 0 -4.09707e-09)
(5.14663e-07 0 -4.21189e-09)
(5.23696e-07 0 -4.22538e-09)
(5.32696e-07 0 -4.17496e-09)
(5.41483e-07 0 -4.01398e-09)
(5.49895e-07 0 -3.79277e-09)
(5.5776e-07 0 -3.48e-09)
(5.6493e-07 0 -3.1108e-09)
(5.71251e-07 0 -2.64023e-09)
(5.7657e-07 0 -2.12614e-09)
(5.80801e-07 0 -1.57665e-09)
(5.83837e-07 0 -9.10056e-10)
(5.85508e-07 0 -2.51519e-10)
(5.8578e-07 0 4.56401e-10)
(5.84671e-07 0 1.10441e-09)
(5.82119e-07 0 1.85547e-09)
(5.78041e-07 0 2.58038e-09)
(5.725e-07 0 3.30014e-09)
(5.65461e-07 0 4.03513e-09)
(5.56963e-07 0 4.71172e-09)
(5.47062e-07 0 5.3913e-09)
(5.35762e-07 0 6.0406e-09)
(5.23173e-07 0 6.62474e-09)
(5.09351e-07 0 7.21245e-09)
(4.94354e-07 0 7.72277e-09)
(4.78253e-07 0 8.25108e-09)
(4.61119e-07 0 8.67416e-09)
(4.43066e-07 0 9.06434e-09)
(4.24178e-07 0 9.42116e-09)
(4.04513e-07 0 9.7456e-09)
(3.84145e-07 0 1.00182e-08)
(3.63157e-07 0 1.02547e-08)
(3.41634e-07 0 1.04393e-08)
(3.19647e-07 0 1.05998e-08)
(2.9726e-07 0 1.07229e-08)
(2.74533e-07 0 1.08154e-08)
(2.51577e-07 0 1.0843e-08)
(2.28497e-07 0 1.08432e-08)
(2.05399e-07 0 1.07914e-08)
(1.82485e-07 0 1.0643e-08)
(1.6018e-07 0 1.02491e-08)
(1.39676e-07 0 9.26191e-09)
(1.23481e-07 0 7.16014e-09)
(1.16125e-07 0 -7.04897e-09)
(8.44323e-08 0 1.47283e-08)
(2.31577e-10 0 3.12875e-08)
(1.00176e-15 0 -3.19704e-17)
(4.9642e-16 0 -1.86116e-19)
(9.6411e-16 0 2.37814e-18)
(9.51951e-16 0 3.226e-18)
(9.33856e-16 0 3.87741e-18)
(9.1663e-16 0 4.55983e-18)
(9.00262e-16 0 5.3043e-18)
(8.84256e-16 0 6.0591e-18)
(8.68178e-16 0 6.79322e-18)
(8.51758e-16 0 7.517e-18)
(8.34811e-16 0 8.18909e-18)
(8.17099e-16 0 8.83015e-18)
(7.98622e-16 0 9.4402e-18)
(7.79339e-16 0 9.98821e-18)
(7.59228e-16 0 1.05052e-17)
(7.38331e-16 0 1.09705e-17)
(7.16607e-16 0 1.13737e-17)
(6.94108e-16 0 1.17666e-17)
(6.70854e-16 0 1.21285e-17)
(6.46835e-16 0 1.24594e-17)
(6.22102e-16 0 1.27696e-17)
(5.96687e-16 0 1.30591e-17)
(5.70589e-16 0 1.33279e-17)
(5.4383e-16 0 1.35761e-17)
(5.1645e-16 0 1.38243e-17)
(4.88461e-16 0 1.40207e-17)
(4.5985e-16 0 1.42172e-17)
(4.30682e-16 0 1.43929e-17)
(4.00997e-16 0 1.45791e-17)
(3.70784e-16 0 1.47238e-17)
(3.40075e-16 0 1.48686e-17)
(3.08911e-16 0 1.49927e-17)
(2.77333e-16 0 1.51167e-17)
(2.45404e-16 0 1.52201e-17)
(2.13123e-16 0 1.52925e-17)
(1.80574e-16 0 1.53752e-17)
(1.47817e-16 0 1.54062e-17)
(1.14875e-16 0 1.54476e-17)
(8.18288e-17 0 1.54373e-17)
(4.8814e-17 0 1.53649e-17)
(1.61714e-17 0 1.50443e-17)
(2.35417e-08 0 -6.76737e-08)
(6.82787e-08 0 -6.42112e-08)
(1.11741e-07 0 -6.16851e-08)
(1.54222e-07 0 -5.88821e-08)
(1.9456e-07 0 -5.55878e-08)
(2.32396e-07 0 -5.17804e-08)
(2.6733e-07 0 -4.75201e-08)
(2.9907e-07 0 -4.2929e-08)
(3.27421e-07 0 -3.81313e-08)
(3.52274e-07 0 -3.32663e-08)
(3.7365e-07 0 -2.8469e-08)
(3.9167e-07 0 -2.3865e-08)
(4.06502e-07 0 -1.95845e-08)
(4.18363e-07 0 -1.54819e-08)
(4.27488e-07 0 -1.17703e-08)
(4.34168e-07 0 -8.32621e-09)
(4.38862e-07 0 -5.65493e-09)
(4.42309e-07 0 -4.56931e-09)
(4.4464e-07 0 -2.90292e-09)
(4.45834e-07 0 -1.3381e-09)
(4.46605e-07 0 -5.30457e-10)
(4.47514e-07 0 -2.23281e-09)
(4.4863e-07 0 -1.57628e-09)
(4.49925e-07 0 -2.24303e-09)
(4.51839e-07 0 -3.48015e-09)
(4.54567e-07 0 -4.54724e-09)
(4.5806e-07 0 -5.74728e-09)
(4.62427e-07 0 -7.07852e-09)
(4.67698e-07 0 -8.30936e-09)
(4.73837e-07 0 -9.57112e-09)
(4.80796e-07 0 -1.06945e-08)
(4.88472e-07 0 -1.16455e-08)
(4.96759e-07 0 -1.24415e-08)
(5.05499e-07 0 -1.29708e-08)
(5.14544e-07 0 -1.33025e-08)
(5.23736e-07 0 -1.33816e-08)
(5.32902e-07 0 -1.32034e-08)
(5.41855e-07 0 -1.27259e-08)
(5.50435e-07 0 -1.20449e-08)
(5.5846e-07 0 -1.10924e-08)
(5.65766e-07 0 -9.92845e-09)
(5.72221e-07 0 -8.53114e-09)
(5.77678e-07 0 -6.94371e-09)
(5.82012e-07 0 -5.23979e-09)
(5.85136e-07 0 -3.24533e-09)
(5.86891e-07 0 -1.18758e-09)
(5.87225e-07 0 9.65926e-10)
(5.86144e-07 0 2.97711e-09)
(5.83617e-07 0 5.23567e-09)
(5.79558e-07 0 7.48618e-09)
(5.74009e-07 0 9.69485e-09)
(5.66942e-07 0 1.19698e-08)
(5.58395e-07 0 1.40812e-08)
(5.48438e-07 0 1.61738e-08)
(5.37093e-07 0 1.82054e-08)
(5.24447e-07 0 2.00556e-08)
(5.10553e-07 0 2.19078e-08)
(4.95469e-07 0 2.35821e-08)
(4.79275e-07 0 2.52642e-08)
(4.62071e-07 0 2.66572e-08)
(4.43946e-07 0 2.79774e-08)
(4.24983e-07 0 2.91838e-08)
(4.05252e-07 0 3.03138e-08)
(3.84817e-07 0 3.13119e-08)
(3.63762e-07 0 3.21964e-08)
(3.42173e-07 0 3.2956e-08)
(3.20096e-07 0 3.36544e-08)
(2.97615e-07 0 3.42237e-08)
(2.74824e-07 0 3.4677e-08)
(2.51794e-07 0 3.49714e-08)
(2.28577e-07 0 3.51722e-08)
(2.05264e-07 0 3.51748e-08)
(1.81945e-07 0 3.49054e-08)
(1.58653e-07 0 3.41257e-08)
(1.35061e-07 0 3.2294e-08)
(1.11151e-07 0 2.6719e-08)
(7.40699e-08 0 1.09103e-08)
(4.60628e-08 0 7.96442e-08)
(1.86321e-10 0 7.56383e-08)
(9.86244e-16 0 -8.00432e-17)
(4.99221e-16 0 -6.82424e-19)
(9.67522e-16 0 4.25998e-18)
(9.53471e-16 0 7.20681e-18)
(9.35221e-16 0 9.86413e-18)
(9.18067e-16 0 1.25008e-17)
(9.01751e-16 0 1.51271e-17)
(8.85745e-16 0 1.77017e-17)
(8.69636e-16 0 2.01522e-17)
(8.53144e-16 0 2.25097e-17)
(8.36104e-16 0 2.4681e-17)
(8.18351e-16 0 2.66869e-17)
(7.99791e-16 0 2.85688e-17)
(7.80414e-16 0 3.02541e-17)
(7.6022e-16 0 3.18051e-17)
(7.392e-16 0 3.3201e-17)
(7.17403e-16 0 3.44417e-17)
(6.94863e-16 0 3.55688e-17)
(6.71557e-16 0 3.66131e-17)
(6.47486e-16 0 3.75333e-17)
(6.22712e-16 0 3.84019e-17)
(5.97245e-16 0 3.91877e-17)
(5.71096e-16 0 3.99115e-17)
(5.44326e-16 0 4.05732e-17)
(5.16895e-16 0 4.11936e-17)
(4.88853e-16 0 4.17623e-17)
(4.60243e-16 0 4.22793e-17)
(4.31054e-16 0 4.27756e-17)
(4.01307e-16 0 4.32409e-17)
(3.71063e-16 0 4.36338e-17)
(3.40333e-16 0 4.39957e-17)
(3.09138e-16 0 4.43369e-17)
(2.7755e-16 0 4.46264e-17)
(2.4558e-16 0 4.48849e-17)
(2.13268e-16 0 4.50813e-17)
(1.80687e-16 0 4.52675e-17)
(1.479e-16 0 4.53812e-17)
(1.14906e-16 0 4.54536e-17)
(8.17358e-17 0 4.54639e-17)
(4.84211e-17 0 4.53605e-17)
(1.58612e-17 0 4.50296e-17)
(2.3707e-08 0 -1.14724e-07)
(6.95925e-08 0 -1.12955e-07)
(1.1458e-07 0 -1.09906e-07)
(1.58477e-07 0 -1.05324e-07)
(1.99923e-07 0 -9.94643e-08)
(2.38632e-07 0 -9.24964e-08)
(2.74212e-07 0 -8.46347e-08)
(3.06352e-07 0 -7.61744e-08)
(3.34871e-07 0 -6.73568e-08)
(3.59697e-07 0 -5.84457e-08)
(3.80846e-07 0 -4.96872e-08)
(3.98455e-07 0 -4.13704e-08)
(4.1275e-07 0 -3.36462e-08)
(4.23957e-07 0 -2.63564e-08)
(4.32272e-07 0 -1.98208e-08)
(4.38108e-07 0 -1.36021e-08)
(4.4207e-07 0 -9.57128e-09)
(4.44818e-07 0 -7.325e-09)
(4.46263e-07 0 -4.22655e-09)
(4.46724e-07 0 -1.7993e-09)
(4.46977e-07 0 -8.92668e-10)
(4.47405e-07 0 -3.0637e-09)
(4.47979e-07 0 -2.33139e-09)
(4.48855e-07 0 -3.44636e-09)
(4.50507e-07 0 -5.6405e-09)
(4.5302e-07 0 -7.38189e-09)
(4.56369e-07 0 -9.4488e-09)
(4.60698e-07 0 -1.17391e-08)
(4.6601e-07 0 -1.38369e-08)
(4.72261e-07 0 -1.59701e-08)
(4.79391e-07 0 -1.78679e-08)
(4.87289e-07 0 -1.95022e-08)
(4.9585e-07 0 -2.08375e-08)
(5.04908e-07 0 -2.17571e-08)
(5.14289e-07 0 -2.22786e-08)
(5.23818e-07 0 -2.24425e-08)
(5.33327e-07 0 -2.21323e-08)
(5.42624e-07 0 -2.13301e-08)
(5.51543e-07 0 -2.02001e-08)
(5.59897e-07 0 -1.86003e-08)
(5.67504e-07 0 -1.66064e-08)
(5.74216e-07 0 -1.42887e-08)
(5.79896e-07 0 -1.16282e-08)
(5.84442e-07 0 -8.7469e-09)
(5.87758e-07 0 -5.45877e-09)
(5.89687e-07 0 -1.97162e-09)
(5.90112e-07 0 1.67091e-09)
(5.8906e-07 0 5.05446e-09)
(5.86561e-07 0 8.7804e-09)
(5.82506e-07 0 1.25602e-08)
(5.76939e-07 0 1.62263e-08)
(5.69826e-07 0 2.00443e-08)
(5.61196e-07 0 2.35607e-08)
(5.51128e-07 0 2.70195e-08)
(5.39636e-07 0 3.03848e-08)
(5.26841e-07 0 3.34332e-08)
(5.1281e-07 0 3.6464e-08)
(4.97588e-07 0 3.92316e-08)
(4.81243e-07 0 4.19457e-08)
(4.63878e-07 0 4.42074e-08)
(4.45587e-07 0 4.63439e-08)
(4.26452e-07 0 4.82817e-08)
(4.06535e-07 0 5.00843e-08)
(3.85933e-07 0 5.1655e-08)
(3.6473e-07 0 5.30239e-08)
(3.42986e-07 0 5.42246e-08)
(3.20763e-07 0 5.52703e-08)
(2.98156e-07 0 5.6104e-08)
(2.75214e-07 0 5.67554e-08)
(2.5201e-07 0 5.72019e-08)
(2.28602e-07 0 5.74932e-08)
(2.05024e-07 0 5.7523e-08)
(1.81261e-07 0 5.72567e-08)
(1.57172e-07 0 5.65253e-08)
(1.32224e-07 0 5.5024e-08)
(1.05972e-07 0 5.27664e-08)
(6.95541e-08 0 5.04891e-08)
(4.11971e-08 0 1.01165e-07)
(1.7831e-10 0 1.06056e-07)
(9.83296e-16 0 -1.08573e-16)
(5.01749e-16 0 -1.14771e-18)
(9.71999e-16 0 4.46678e-18)
(9.57575e-16 0 9.72971e-18)
(9.3916e-16 0 1.48582e-17)
(9.21893e-16 0 1.98523e-17)
(9.05453e-16 0 2.46707e-17)
(8.89281e-16 0 2.92615e-17)
(8.72996e-16 0 3.36146e-17)
(8.56297e-16 0 3.76781e-17)
(8.38989e-16 0 4.14418e-17)
(8.20987e-16 0 4.48746e-17)
(8.022e-16 0 4.80282e-17)
(7.82596e-16 0 5.08509e-17)
(7.62185e-16 0 5.34049e-17)
(7.40947e-16 0 5.57106e-17)
(7.18965e-16 0 5.77889e-17)
(6.96279e-16 0 5.9619e-17)
(6.72818e-16 0 6.12631e-17)
(6.48634e-16 0 6.27313e-17)
(6.23756e-16 0 6.41065e-17)
(5.98186e-16 0 6.53059e-17)
(5.71964e-16 0 6.64226e-17)
(5.45122e-16 0 6.74359e-17)
(5.1765e-16 0 6.83561e-17)
(4.89557e-16 0 6.92557e-17)
(4.60864e-16 0 7.00519e-17)
(4.31623e-16 0 7.08067e-17)
(4.01844e-16 0 7.14891e-17)
(3.71539e-16 0 7.21198e-17)
(3.40757e-16 0 7.26471e-17)
(3.09531e-16 0 7.31641e-17)
(2.77881e-16 0 7.35984e-17)
(2.45848e-16 0 7.39706e-17)
(2.13495e-16 0 7.42912e-17)
(1.80863e-16 0 7.45393e-17)
(1.48003e-16 0 7.47565e-17)
(1.14947e-16 0 7.48702e-17)
(8.17255e-17 0 7.49219e-17)
(4.83797e-17 0 7.49219e-17)
(1.58405e-17 0 7.49012e-17)
(2.47092e-08 0 -1.621e-07)
(7.26102e-08 0 -1.59721e-07)
(1.19306e-07 0 -1.55234e-07)
(1.64891e-07 0 -1.48563e-07)
(2.07806e-07 0 -1.40051e-07)
(2.47694e-07 0 -1.29984e-07)
(2.84156e-07 0 -1.18657e-07)
(3.16873e-07 0 -1.06493e-07)
(3.4566e-07 0 -9.38445e-08)
(3.70431e-07 0 -8.10922e-08)
(3.91256e-07 0 -6.86026e-08)
(4.08296e-07 0 -5.67828e-08)
(4.21803e-07 0 -4.57621e-08)
(4.32042e-07 0 -3.54973e-08)
(4.39183e-07 0 -2.61692e-08)
(4.43833e-07 0 -1.73198e-08)
(4.4673e-07 0 -1.2353e-08)
(4.484e-07 0 -8.75623e-09)
(4.4855e-07 0 -4.57468e-09)
(4.47928e-07 0 -1.00265e-09)
(4.47384e-07 0 -7.90467e-10)
(4.4709e-07 0 -2.88949e-09)
(4.46833e-07 0 -2.48007e-09)
(4.47119e-07 0 -4.18774e-09)
(4.48368e-07 0 -7.52304e-09)
(4.50558e-07 0 -9.93995e-09)
(4.53723e-07 0 -1.30619e-08)
(4.57995e-07 0 -1.64337e-08)
(4.63406e-07 0 -1.94877e-08)
(4.69834e-07 0 -2.2555e-08)
(4.77229e-07 0 -2.53449e-08)
(4.85491e-07 0 -2.77324e-08)
(4.94474e-07 0 -2.96463e-08)
(5.03995e-07 0 -3.10094e-08)
(5.13878e-07 0 -3.17433e-08)
(5.23933e-07 0 -3.19954e-08)
(5.33964e-07 0 -3.1559e-08)
(5.43778e-07 0 -3.04397e-08)
(5.53201e-07 0 -2.88294e-08)
(5.62019e-07 0 -2.65517e-08)
(5.70079e-07 0 -2.37397e-08)
(5.77235e-07 0 -2.042e-08)
(5.83281e-07 0 -1.66463e-08)
(5.88115e-07 0 -1.25484e-08)
(5.91667e-07 0 -7.92393e-09)
(5.93871e-07 0 -3.00382e-09)
(5.94505e-07 0 2.24813e-09)
(5.9352e-07 0 7.03679e-09)
(5.9106e-07 0 1.22485e-08)
(5.87013e-07 0 1.76453e-08)
(5.81383e-07 0 2.27801e-08)
(5.74177e-07 0 2.82212e-08)
(5.65421e-07 0 3.32001e-08)
(5.55193e-07 0 3.80441e-08)
(5.4353e-07 0 4.28304e-08)
(5.30545e-07 0 4.70928e-08)
(5.16265e-07 0 5.13733e-08)
(5.00787e-07 0 5.52754e-08)
(4.84201e-07 0 5.90701e-08)
(4.66607e-07 0 6.22665e-08)
(4.48061e-07 0 6.52725e-08)
(4.28678e-07 0 6.80144e-08)
(4.08537e-07 0 7.05178e-08)
(3.87725e-07 0 7.27094e-08)
(3.66303e-07 0 7.46399e-08)
(3.44329e-07 0 7.63616e-08)
(3.21882e-07 0 7.78188e-08)
(2.99044e-07 0 7.90208e-08)
(2.75888e-07 0 7.99524e-08)
(2.52465e-07 0 8.06243e-08)
(2.28804e-07 0 8.10991e-08)
(2.0497e-07 0 8.12589e-08)
(1.80945e-07 0 8.11693e-08)
(1.56621e-07 0 8.08338e-08)
(1.31744e-07 0 8.03778e-08)
(1.06863e-07 0 8.01799e-08)
(7.81588e-08 0 8.29096e-08)
(4.13068e-08 0 1.28979e-07)
(1.75407e-10 0 1.34175e-07)
(9.90762e-16 0 -1.42421e-16)
(5.05178e-16 0 -1.55096e-18)
(9.784e-16 0 6.03842e-18)
(9.63862e-16 0 1.34727e-17)
(9.45323e-16 0 2.08139e-17)
(9.27869e-16 0 2.7969e-17)
(9.11171e-16 0 3.48553e-17)
(8.94689e-16 0 4.13901e-17)
(8.78042e-16 0 4.75422e-17)
(8.60971e-16 0 5.32498e-17)
(8.43311e-16 0 5.85127e-17)
(8.24916e-16 0 6.33207e-17)
(8.05746e-16 0 6.76944e-17)
(7.85801e-16 0 7.16235e-17)
(7.6508e-16 0 7.517e-17)
(7.43573e-16 0 7.83444e-17)
(7.21322e-16 0 8.11981e-17)
(6.98347e-16 0 8.3721e-17)
(6.74659e-16 0 8.59544e-17)
(6.50319e-16 0 8.79707e-17)
(6.25276e-16 0 8.97905e-17)
(5.99572e-16 0 9.14241e-17)
(5.73236e-16 0 9.29338e-17)
(5.4627e-16 0 9.434e-17)
(5.18715e-16 0 9.56014e-17)
(4.90539e-16 0 9.67801e-17)
(4.61774e-16 0 9.78865e-17)
(4.3246e-16 0 9.88895e-17)
(4.0262e-16 0 9.982e-17)
(3.72252e-16 0 1.00678e-16)
(3.41388e-16 0 1.01423e-16)
(3.10089e-16 0 1.02105e-16)
(2.78357e-16 0 1.02736e-16)
(2.46262e-16 0 1.03263e-16)
(2.13837e-16 0 1.03708e-16)
(1.81132e-16 0 1.0407e-16)
(1.4822e-16 0 1.04359e-16)
(1.15082e-16 0 1.04566e-16)
(8.17875e-17 0 1.0469e-16)
(4.84004e-17 0 1.04762e-16)
(1.58405e-17 0 1.04752e-16)
(2.61389e-08 0 -2.12034e-07)
(7.6778e-08 0 -2.08786e-07)
(1.25844e-07 0 -2.02678e-07)
(1.73671e-07 0 -1.93722e-07)
(2.18547e-07 0 -1.82271e-07)
(2.60029e-07 0 -1.68789e-07)
(2.97687e-07 0 -1.53673e-07)
(3.31177e-07 0 -1.37463e-07)
(3.603e-07 0 -1.20625e-07)
(3.85009e-07 0 -1.03678e-07)
(4.05378e-07 0 -8.71547e-08)
(4.21593e-07 0 -7.15883e-08)
(4.34059e-07 0 -5.6848e-08)
(4.42868e-07 0 -4.35887e-08)
(4.48436e-07 0 -3.09926e-08)
(4.51692e-07 0 -1.91218e-08)
(4.52957e-07 0 -1.4564e-08)
(4.5305e-07 0 -9.0215e-09)
(4.51536e-07 0 -3.10945e-09)
(4.49538e-07 0 1.82195e-09)
(4.47751e-07 0 -1.90564e-09)
(4.46417e-07 0 -8.70413e-10)
(4.45051e-07 0 -1.97656e-09)
(4.44601e-07 0 -4.46005e-09)
(4.45279e-07 0 -8.94028e-09)
(4.47036e-07 0 -1.22376e-08)
(4.49992e-07 0 -1.66111e-08)
(4.54237e-07 0 -2.10679e-08)
(4.59756e-07 0 -2.54184e-08)
(4.66451e-07 0 -2.94342e-08)
(4.74251e-07 0 -3.32163e-08)
(4.82991e-07 0 -3.64278e-08)
(4.92536e-07 0 -3.89932e-08)
(5.02696e-07 0 -4.08498e-08)
(5.13273e-07 0 -4.18295e-08)
(5.24059e-07 0 -4.22025e-08)
(5.34826e-07 0 -4.16056e-08)
(5.45364e-07 0 -4.01761e-08)
(5.5549e-07 0 -3.80364e-08)
(5.64968e-07 0 -3.5058e-08)
(5.73617e-07 0 -3.13762e-08)
(5.81311e-07 0 -2.70205e-08)
(5.87847e-07 0 -2.20671e-08)
(5.93112e-07 0 -1.66761e-08)
(5.9702e-07 0 -1.06876e-08)
(5.99517e-07 0 -4.41527e-09)
(6.00442e-07 0 2.7353e-09)
(5.99547e-07 0 9.03813e-09)
(5.97088e-07 0 1.5639e-08)
(5.93055e-07 0 2.27244e-08)
(5.87382e-07 0 2.94454e-08)
(5.80065e-07 0 3.64784e-08)
(5.71145e-07 0 4.2997e-08)
(5.60713e-07 0 4.9249e-08)
(5.48784e-07 0 5.54681e-08)
(5.35505e-07 0 6.09996e-08)
(5.20914e-07 0 6.65337e-08)
(5.05115e-07 0 7.15641e-08)
(4.88179e-07 0 7.64093e-08)
(4.70257e-07 0 8.0554e-08)
(4.51385e-07 0 8.44217e-08)
(4.31676e-07 0 8.79275e-08)
(4.11214e-07 0 9.11382e-08)
(3.90082e-07 0 9.39434e-08)
(3.68361e-07 0 9.64211e-08)
(3.461e-07 0 9.86601e-08)
(3.23371e-07 0 1.00496e-07)
(3.00262e-07 0 1.02038e-07)
(2.76839e-07 0 1.03248e-07)
(2.53125e-07 0 1.04172e-07)
(2.29192e-07 0 1.04807e-07)
(2.05105e-07 0 1.05118e-07)
(1.80897e-07 0 1.05161e-07)
(1.56632e-07 0 1.05062e-07)
(1.32257e-07 0 1.05107e-07)
(1.08649e-07 0 1.05672e-07)
(8.2151e-08 0 1.09453e-07)
(4.24118e-08 0 1.67116e-07)
(1.73112e-10 0 1.64614e-07)
(1.00076e-15 0 -1.87588e-16)
(5.09774e-16 0 -2.04727e-18)
(9.87023e-16 0 7.84788e-18)
(9.72372e-16 0 1.75569e-17)
(9.53657e-16 0 2.71522e-17)
(9.35914e-16 0 3.6489e-17)
(9.18874e-16 0 4.54639e-17)
(9.01979e-16 0 5.39529e-17)
(8.84856e-16 0 6.18835e-17)
(8.67247e-16 0 6.92557e-17)
(8.49049e-16 0 7.60282e-17)
(8.30169e-16 0 8.21907e-17)
(8.10492e-16 0 8.77432e-17)
(7.90071e-16 0 9.2758e-17)
(7.68895e-16 0 9.72558e-17)
(7.46975e-16 0 1.01257e-16)
(7.24352e-16 0 1.04824e-16)
(7.01025e-16 0 1.07968e-16)
(6.77058e-16 0 1.1078e-16)
(6.52459e-16 0 1.13293e-16)
(6.2721e-16 0 1.15516e-16)
(6.0135e-16 0 1.17573e-16)
(5.7487e-16 0 1.19445e-16)
(5.47769e-16 0 1.21182e-16)
(5.2008e-16 0 1.22774e-16)
(4.91821e-16 0 1.24232e-16)
(4.62973e-16 0 1.25628e-16)
(4.33556e-16 0 1.26921e-16)
(4.03623e-16 0 1.28099e-16)
(3.73152e-16 0 1.29185e-16)
(3.42194e-16 0 1.30178e-16)
(3.10834e-16 0 1.31056e-16)
(2.79029e-16 0 1.31832e-16)
(2.4682e-16 0 1.32525e-16)
(2.14302e-16 0 1.33093e-16)
(1.81514e-16 0 1.3359e-16)
(1.485e-16 0 1.33962e-16)
(1.15288e-16 0 1.34262e-16)
(8.19219e-17 0 1.34479e-16)
(4.84521e-17 0 1.34613e-16)
(1.58509e-17 0 1.34655e-16)
(2.79503e-08 0 -2.65306e-07)
(8.21001e-08 0 -2.6117e-07)
(1.34409e-07 0 -2.533e-07)
(1.85229e-07 0 -2.41756e-07)
(2.32678e-07 0 -2.26962e-07)
(2.76252e-07 0 -2.09552e-07)
(3.15456e-07 0 -1.90109e-07)
(3.49905e-07 0 -1.6926e-07)
(3.79416e-07 0 -1.47711e-07)
(4.04006e-07 0 -1.26081e-07)
(4.23704e-07 0 -1.05064e-07)
(4.38815e-07 0 -8.52844e-08)
(4.49916e-07 0 -6.63591e-08)
(4.56554e-07 0 -5.04191e-08)
(4.6e-07 0 -3.3981e-08)
(4.61541e-07 0 -1.98059e-08)
(4.60941e-07 0 -1.43779e-08)
(4.58696e-07 0 -6.97366e-09)
(4.54972e-07 0 -1.38786e-10)
(4.51464e-07 0 5.26134e-09)
(4.48068e-07 0 2.15735e-12)
(4.45131e-07 0 1.8284e-09)
(4.42498e-07 0 -4.04924e-10)
(4.41152e-07 0 -4.11666e-09)
(4.41102e-07 0 -9.56316e-09)
(4.4233e-07 0 -1.42792e-08)
(4.45017e-07 0 -1.9998e-08)
(4.49232e-07 0 -2.58254e-08)
(4.54904e-07 0 -3.15176e-08)
(4.61986e-07 0 -3.6745e-08)
(4.7032e-07 0 -4.15912e-08)
(4.79715e-07 0 -4.57413e-08)
(4.90027e-07 0 -4.90595e-08)
(5.01044e-07 0 -5.14676e-08)
(5.12528e-07 0 -5.27504e-08)
(5.24241e-07 0 -5.32341e-08)
(5.35927e-07 0 -5.247e-08)
(5.4738e-07 0 -5.07649e-08)
(5.58399e-07 0 -4.80184e-08)
(5.68716e-07 0 -4.42733e-08)
(5.78131e-07 0 -3.96721e-08)
(5.86526e-07 0 -3.42318e-08)
(5.9372e-07 0 -2.80098e-08)
(5.99519e-07 0 -2.1255e-08)
(6.03868e-07 0 -1.38092e-08)
(6.06654e-07 0 -6.03633e-09)
(6.0796e-07 0 2.65968e-09)
(6.07226e-07 0 1.12629e-08)
(6.04774e-07 0 1.8987e-08)
(6.00726e-07 0 2.78328e-08)
(5.94971e-07 0 3.62348e-08)
(5.87499e-07 0 4.48668e-08)
(5.78364e-07 0 5.30216e-08)
(5.67632e-07 0 6.0756e-08)
(5.5535e-07 0 6.84332e-08)
(5.41714e-07 0 7.5211e-08)
(5.26746e-07 0 8.20651e-08)
(5.10535e-07 0 8.8236e-08)
(4.93169e-07 0 9.41548e-08)
(4.74815e-07 0 9.91979e-08)
(4.5551e-07 0 1.03969e-07)
(4.35406e-07 0 1.08163e-07)
(4.1456e-07 0 1.12111e-07)
(3.9306e-07 0 1.15504e-07)
(3.70955e-07 0 1.18508e-07)
(3.4833e-07 0 1.2122e-07)
(3.25263e-07 0 1.23482e-07)
(3.01825e-07 0 1.25327e-07)
(2.78052e-07 0 1.26828e-07)
(2.53998e-07 0 1.2799e-07)
(2.29744e-07 0 1.28772e-07)
(2.05364e-07 0 1.292e-07)
(1.80972e-07 0 1.29255e-07)
(1.56735e-07 0 1.29087e-07)
(1.32563e-07 0 1.29083e-07)
(1.1029e-07 0 1.2859e-07)
(8.5688e-08 0 1.33453e-07)
(4.26053e-08 0 2.09356e-07)
(1.70566e-10 0 1.92302e-07)
(1.00774e-15 0 -2.28746e-16)
(5.15649e-16 0 -2.44018e-18)
(9.98004e-16 0 9.85379e-18)
(9.83177e-16 0 2.1972e-17)
(9.64265e-16 0 3.39041e-17)
(9.4616e-16 0 4.54846e-17)
(9.28614e-16 0 5.65895e-17)
(9.11129e-16 0 6.70533e-17)
(8.93365e-16 0 7.68347e-17)
(8.75105e-16 0 8.58614e-17)
(8.56235e-16 0 9.41332e-17)
(8.36652e-16 0 1.01619e-16)
(8.16334e-16 0 1.0834e-16)
(7.95303e-16 0 1.14378e-16)
(7.73569e-16 0 1.19745e-16)
(7.51142e-16 0 1.24491e-16)
(7.28022e-16 0 1.28689e-16)
(7.04293e-16 0 1.32411e-16)
(6.79984e-16 0 1.3573e-16)
(6.55065e-16 0 1.38687e-16)
(6.29557e-16 0 1.41324e-16)
(6.0349e-16 0 1.43733e-16)
(5.76834e-16 0 1.45935e-16)
(5.49589e-16 0 1.47962e-16)
(5.21775e-16 0 1.49844e-16)
(4.93403e-16 0 1.51612e-16)
(4.64462e-16 0 1.53266e-16)
(4.34932e-16 0 1.54817e-16)
(4.04884e-16 0 1.56275e-16)
(3.7432e-16 0 1.57599e-16)
(3.43239e-16 0 1.58839e-16)
(3.11733e-16 0 1.59946e-16)
(2.79835e-16 0 1.60897e-16)
(2.47544e-16 0 1.61766e-16)
(2.14902e-16 0 1.625e-16)
(1.82e-16 0 1.6313e-16)
(1.48893e-16 0 1.63637e-16)
(1.15588e-16 0 1.6403e-16)
(8.2139e-17 0 1.64309e-16)
(4.85762e-17 0 1.64526e-16)
(1.58819e-17 0 1.64619e-16)
(3.02623e-08 0 -3.22618e-07)
(8.89028e-08 0 -3.1743e-07)
(1.45357e-07 0 -3.07521e-07)
(2.00019e-07 0 -2.92923e-07)
(2.50716e-07 0 -2.74282e-07)
(2.96901e-07 0 -2.52342e-07)
(3.37985e-07 0 -2.27927e-07)
(3.73621e-07 0 -2.01771e-07)
(4.03607e-07 0 -1.74844e-07)
(4.27874e-07 0 -1.47987e-07)
(4.46499e-07 0 -1.22085e-07)
(4.60503e-07 0 -9.68636e-08)
(4.69283e-07 0 -7.50099e-08)
(4.73258e-07 0 -5.39271e-08)
(4.74447e-07 0 -3.31088e-08)
(4.73431e-07 0 -2.04364e-08)
(4.7054e-07 0 -1.1662e-08)
(4.65063e-07 0 -2.56705e-09)
(4.58839e-07 0 5.99062e-09)
(4.53462e-07 0 9.6678e-09)
(4.48158e-07 0 4.00498e-09)
(4.43067e-07 0 6.02915e-09)
(4.38914e-07 0 2.53413e-09)
(4.36473e-07 0 -3.16614e-09)
(4.3553e-07 0 -9.32037e-09)
(4.36122e-07 0 -1.59601e-08)
(4.38535e-07 0 -2.32344e-08)
(4.42772e-07 0 -3.07054e-08)
(4.48695e-07 0 -3.78622e-08)
(4.56272e-07 0 -4.46816e-08)
(4.65291e-07 0 -5.06397e-08)
(4.75535e-07 0 -5.58756e-08)
(4.86831e-07 0 -6.00525e-08)
(4.98916e-07 0 -6.30831e-08)
(5.11522e-07 0 -6.47071e-08)
(5.24401e-07 0 -6.53282e-08)
(5.37267e-07 0 -6.4382e-08)
(5.49849e-07 0 -6.23406e-08)
(5.61945e-07 0 -5.89959e-08)
(5.73331e-07 0 -5.44094e-08)
(5.83725e-07 0 -4.88038e-08)
(5.92965e-07 0 -4.21785e-08)
(6.00921e-07 0 -3.46166e-08)
(6.07369e-07 0 -2.63542e-08)
(6.12252e-07 0 -1.74221e-08)
(6.1543e-07 0 -7.78983e-09)
(6.17076e-07 0 1.9804e-09)
(6.16665e-07 0 1.34553e-08)
(6.14299e-07 0 2.24141e-08)
(6.10154e-07 0 3.29066e-08)
(6.04265e-07 0 4.32343e-08)
(5.96606e-07 0 5.34171e-08)
(5.8718e-07 0 6.33992e-08)
(5.76065e-07 0 7.25994e-08)
(5.63342e-07 0 8.18005e-08)
(5.4923e-07 0 8.98841e-08)
(5.33766e-07 0 9.80181e-08)
(5.17043e-07 0 1.05376e-07)
(4.99155e-07 0 1.12354e-07)
(4.80269e-07 0 1.18359e-07)
(4.60449e-07 0 1.2393e-07)
(4.39854e-07 0 1.28917e-07)
(4.18515e-07 0 1.33476e-07)
(3.96549e-07 0 1.3748e-07)
(3.7404e-07 0 1.40985e-07)
(3.50977e-07 0 1.44264e-07)
(3.27528e-07 0 1.4678e-07)
(3.03695e-07 0 1.4897e-07)
(2.79529e-07 0 1.508e-07)
(2.55068e-07 0 1.52197e-07)
(2.30395e-07 0 1.53142e-07)
(2.05598e-07 0 1.53651e-07)
(1.80842e-07 0 1.53622e-07)
(1.5647e-07 0 1.53072e-07)
(1.32296e-07 0 1.52194e-07)
(1.11441e-07 0 1.49271e-07)
(7.53655e-08 0 1.7072e-07)
(3.83607e-08 0 2.63204e-07)
(1.67233e-10 0 2.13423e-07)
(1.02269e-15 0 -2.61999e-16)
(5.22881e-16 0 -2.71936e-18)
(1.01144e-15 0 1.21079e-17)
(9.96412e-16 0 2.67593e-17)
(9.7718e-16 0 4.11419e-17)
(9.58599e-16 0 5.50799e-17)
(9.40442e-16 0 6.83561e-17)
(9.22234e-16 0 8.08776e-17)
(9.03654e-16 0 9.25305e-17)
(8.84546e-16 0 1.03222e-16)
(8.64817e-16 0 1.12952e-16)
(8.44376e-16 0 1.21709e-16)
(8.23241e-16 0 1.29588e-16)
(8.01466e-16 0 1.36568e-16)
(7.79008e-16 0 1.4274e-16)
(7.55919e-16 0 1.48158e-16)
(7.32282e-16 0 1.52925e-16)
(7.08077e-16 0 1.57154e-16)
(6.83334e-16 0 1.60876e-16)
(6.58053e-16 0 1.64206e-16)
(6.32256e-16 0 1.67215e-16)
(6.05962e-16 0 1.69913e-16)
(5.79109e-16 0 1.72384e-16)
(5.51699e-16 0 1.74701e-16)
(5.2375e-16 0 1.76872e-16)
(4.95254e-16 0 1.78919e-16)
(4.66178e-16 0 1.80832e-16)
(4.36555e-16 0 1.82621e-16)
(4.06394e-16 0 1.84358e-16)
(3.75705e-16 0 1.8595e-16)
(3.44521e-16 0 1.87418e-16)
(3.12902e-16 0 1.88763e-16)
(2.80869e-16 0 1.89952e-16)
(2.48423e-16 0 1.91017e-16)
(2.15667e-16 0 1.91958e-16)
(1.82652e-16 0 1.92733e-16)
(1.49399e-16 0 1.93374e-16)
(1.1596e-16 0 1.93881e-16)
(8.24182e-17 0 1.94253e-16)
(4.8752e-17 0 1.94512e-16)
(1.59336e-17 0 1.94667e-16)
(3.31678e-08 0 -3.85021e-07)
(9.74419e-08 0 -3.78564e-07)
(1.59051e-07 0 -3.66215e-07)
(2.18499e-07 0 -3.48003e-07)
(2.73238e-07 0 -3.24841e-07)
(3.22662e-07 0 -2.9759e-07)
(3.66042e-07 0 -2.67363e-07)
(4.03094e-07 0 -2.35073e-07)
(4.33509e-07 0 -2.01966e-07)
(4.57e-07 0 -1.69358e-07)
(4.74763e-07 0 -1.36951e-07)
(4.8682e-07 0 -1.07141e-07)
(4.92396e-07 0 -8.0262e-08)
(4.9326e-07 0 -5.43549e-08)
(4.92113e-07 0 -2.95951e-08)
(4.87624e-07 0 -1.85737e-08)
(4.81179e-07 0 -5.38168e-09)
(4.72014e-07 0 5.07358e-09)
(4.63616e-07 0 1.70251e-08)
(4.55156e-07 0 1.00719e-08)
(4.47464e-07 0 1.4297e-08)
(4.39794e-07 0 1.09064e-08)
(4.34149e-07 0 7.338e-09)
(4.30255e-07 0 -1.39711e-09)
(4.28228e-07 0 -8.18138e-09)
(4.28178e-07 0 -1.7187e-08)
(4.3035e-07 0 -2.64082e-08)
(4.34621e-07 0 -3.57171e-08)
(4.40874e-07 0 -4.47321e-08)
(4.49069e-07 0 -5.32409e-08)
(4.58987e-07 0 -6.0589e-08)
(4.70317e-07 0 -6.706e-08)
(4.82845e-07 0 -7.22137e-08)
(4.96274e-07 0 -7.59466e-08)
(5.10282e-07 0 -7.79573e-08)
(5.24571e-07 0 -7.871e-08)
(5.38881e-07 0 -7.76128e-08)
(5.52871e-07 0 -7.5168e-08)
(5.66296e-07 0 -7.11206e-08)
(5.78899e-07 0 -6.56788e-08)
(5.9044e-07 0 -5.8919e-08)
(6.007e-07 0 -5.1007e-08)
(6.0954e-07 0 -4.20245e-08)
(6.16805e-07 0 -3.21086e-08)
(6.22319e-07 0 -2.15301e-08)
(6.26019e-07 0 -9.99573e-09)
(6.27844e-07 0 1.23365e-09)
(6.27974e-07 0 1.52177e-08)
(6.25694e-07 0 2.60066e-08)
(6.21349e-07 0 3.79725e-08)
(6.1527e-07 0 5.04627e-08)
(6.07392e-07 0 6.21058e-08)
(5.97606e-07 0 7.42194e-08)
(5.86053e-07 0 8.4932e-08)
(5.72793e-07 0 9.56707e-08)
(5.58098e-07 0 1.0513e-07)
(5.41979e-07 0 1.14506e-07)
(5.24636e-07 0 1.23131e-07)
(5.06141e-07 0 1.31115e-07)
(4.86629e-07 0 1.38169e-07)
(4.66192e-07 0 1.44371e-07)
(4.44992e-07 0 1.50145e-07)
(4.23125e-07 0 1.55396e-07)
(4.00638e-07 0 1.59917e-07)
(3.77563e-07 0 1.6402e-07)
(3.54039e-07 0 1.67599e-07)
(3.30145e-07 0 1.70516e-07)
(3.05862e-07 0 1.73075e-07)
(2.81245e-07 0 1.75202e-07)
(2.56323e-07 0 1.76855e-07)
(2.31152e-07 0 1.77981e-07)
(2.05794e-07 0 1.78592e-07)
(1.8036e-07 0 1.78546e-07)
(1.55148e-07 0 1.7762e-07)
(1.31096e-07 0 1.75351e-07)
(1.0826e-07 0 1.70603e-07)
(6.95538e-08 0 2.12244e-07)
(3.39482e-08 0 2.86543e-07)
(1.63935e-10 0 2.32049e-07)
(1.0385e-15 0 -2.99462e-16)
(5.3155e-16 0 -3.02955e-18)
(1.02749e-15 0 1.46514e-17)
(1.01222e-15 0 3.20222e-17)
(9.92575e-16 0 4.90415e-17)
(9.73375e-16 0 6.54714e-17)
(9.54422e-16 0 8.10534e-17)
(9.35293e-16 0 9.56531e-17)
(9.1571e-16 0 1.09157e-16)
(8.95537e-16 0 1.21513e-16)
(8.74733e-16 0 1.3268e-16)
(8.53299e-16 0 1.42699e-16)
(8.31193e-16 0 1.51612e-16)
(8.08466e-16 0 1.5947e-16)
(7.8515e-16 0 1.66346e-16)
(7.61306e-16 0 1.72364e-16)
(7.37018e-16 0 1.77627e-16)
(7.12234e-16 0 1.82207e-16)
(6.87015e-16 0 1.86281e-16)
(6.61383e-16 0 1.89869e-16)
(6.35264e-16 0 1.93126e-16)
(6.08681e-16 0 1.96083e-16)
(5.81632e-16 0 1.98792e-16)
(5.54077e-16 0 2.01336e-16)
(5.25994e-16 0 2.03776e-16)
(4.97363e-16 0 2.06082e-16)
(4.68164e-16 0 2.08284e-16)
(4.38447e-16 0 2.10393e-16)
(4.08203e-16 0 2.12368e-16)
(3.77381e-16 0 2.1425e-16)
(3.46041e-16 0 2.15987e-16)
(3.14267e-16 0 2.17611e-16)
(2.821e-16 0 2.19079e-16)
(2.4954e-16 0 2.20351e-16)
(2.16628e-16 0 2.21509e-16)
(1.83438e-16 0 2.2247e-16)
(1.5004e-16 0 2.23277e-16)
(1.16467e-16 0 2.23918e-16)
(8.27698e-17 0 2.24414e-16)
(4.89898e-17 0 2.24755e-16)
(1.6037e-17 0 2.24972e-16)
(3.67615e-08 0 -4.53792e-07)
(1.08008e-07 0 -4.45791e-07)
(1.75987e-07 0 -4.3051e-07)
(2.41375e-07 0 -4.07988e-07)
(3.01079e-07 0 -3.79417e-07)
(3.54384e-07 0 -3.45893e-07)
(4.00617e-07 0 -3.08685e-07)
(4.39217e-07 0 -2.69308e-07)
(4.69638e-07 0 -2.2928e-07)
(4.92686e-07 0 -1.88982e-07)
(5.09029e-07 0 -1.50191e-07)
(5.18016e-07 0 -1.14426e-07)
(5.19409e-07 0 -8.31381e-08)
(5.17999e-07 0 -4.87445e-08)
(5.12338e-07 0 -2.69793e-08)
(5.04062e-07 0 -1.04702e-08)
(4.9241e-07 0 3.68189e-09)
(4.80125e-07 0 1.7705e-08)
(4.6858e-07 0 2.77004e-08)
(4.56551e-07 0 1.9246e-08)
(4.45377e-07 0 2.45442e-08)
(4.35274e-07 0 1.87056e-08)
(4.27689e-07 0 1.29028e-08)
(4.22047e-07 0 2.76864e-09)
(4.18794e-07 0 -6.63094e-09)
(4.18094e-07 0 -1.78623e-08)
(4.20007e-07 0 -2.94994e-08)
(4.24415e-07 0 -4.09598e-08)
(4.31201e-07 0 -5.21859e-08)
(4.40226e-07 0 -6.26365e-08)
(4.51267e-07 0 -7.17654e-08)
(4.63946e-07 0 -7.95184e-08)
(4.7798e-07 0 -8.58079e-08)
(4.93039e-07 0 -9.03466e-08)
(5.08755e-07 0 -9.28158e-08)
(5.24761e-07 0 -9.35895e-08)
(5.40809e-07 0 -9.24995e-08)
(5.56479e-07 0 -8.94385e-08)
(5.71441e-07 0 -8.46762e-08)
(5.85497e-07 0 -7.82598e-08)
(5.98418e-07 0 -7.02275e-08)
(6.09894e-07 0 -6.08852e-08)
(6.19759e-07 0 -5.03026e-08)
(6.27904e-07 0 -3.87032e-08)
(6.34188e-07 0 -2.62327e-08)
(6.38518e-07 0 -1.27994e-08)
(6.40662e-07 0 7.85998e-10)
(6.41214e-07 0 1.51828e-08)
(6.39024e-07 0 3.07594e-08)
(6.34618e-07 0 4.31679e-08)
(6.28243e-07 0 5.78125e-08)
(6.19995e-07 0 7.13073e-08)
(6.09726e-07 0 8.53865e-08)
(5.97622e-07 0 9.78888e-08)
(5.83743e-07 0 1.09988e-07)
(5.683e-07 0 1.21213e-07)
(5.51449e-07 0 1.3163e-07)
(5.3333e-07 0 1.4167e-07)
(5.14164e-07 0 1.50329e-07)
(4.93839e-07 0 1.58732e-07)
(4.72713e-07 0 1.65609e-07)
(4.50825e-07 0 1.71926e-07)
(4.28286e-07 0 1.77883e-07)
(4.05198e-07 0 1.82999e-07)
(3.81574e-07 0 1.8747e-07)
(3.57504e-07 0 1.9147e-07)
(3.33124e-07 0 1.94761e-07)
(3.08345e-07 0 1.97643e-07)
(2.83225e-07 0 2.00068e-07)
(2.57803e-07 0 2.01991e-07)
(2.32101e-07 0 2.03359e-07)
(2.0609e-07 0 2.04171e-07)
(1.79763e-07 0 2.043e-07)
(1.53076e-07 0 2.03486e-07)
(1.26322e-07 0 2.01142e-07)
(9.58378e-08 0 1.95663e-07)
(6.69985e-08 0 2.62126e-07)
(2.76144e-08 0 3.0033e-07)
(1.60413e-10 0 2.52584e-07)
(1.05563e-15 0 -3.3142e-16)
(5.41975e-16 0 -3.16397e-18)
(1.0465e-15 0 1.75776e-17)