/*--------------------------------*- C++ -*----------------------------------*\
  =========                 |
  \\      /  F ield         | OpenFOAM: The Open Source CFD Toolbox
   \\    /   O peration     | Website:  https://openfoam.org
    \\  /    A nd           | Version:  6
     \\/     M anipulation  |
\*---------------------------------------------------------------------------*/
FoamFile
{
    version     2.0;
    format      ascii;
    class       volScalarField;
    location    "3050";
    object      T;
}
// * * * * * * * * * * * * * * * * * * * * * * * * * * * * * * * * * * * * * //

dimensions      [0 0 0 1 0 0 0];

internalField   nonuniform List<scalar> 
4800
(
552.479
552.338
552.2
552.067
551.94
551.822
551.713
551.612
551.521
551.438
551.362
551.294
551.231
551.173
551.12
551.07
551.023
550.977
550.933
550.89
550.847
550.805
550.761
550.717
550.673
550.627
550.579
550.531
550.48
550.428
550.373
550.316
550.257
550.196
550.132
550.065
549.998
549.929
549.86
549.79
549.719
549.648
549.576
549.503
549.43
549.358
549.285
549.213
549.142
549.07
548.999
548.928
548.857
548.786
548.716
548.646
548.576
548.507
548.437
548.368
548.298
548.228
548.156
548.083
548.007
547.929
547.847
547.761
547.67
547.574
547.471
547.36
547.241
547.112
546.974
546.825
546.667
546.5
546.324
546.144
545.962
545.783
545.608
545.439
545.273
545.112
544.953
544.798
544.645
544.495
544.348
544.203
544.059
543.918
543.778
543.641
543.504
543.369
543.236
543.104
542.973
542.843
542.714
542.585
542.458
542.332
542.206
542.081
541.956
541.832
541.709
541.586
541.463
541.341
541.219
541.097
540.975
540.853
540.732
540.611
552.48
552.339
552.201
552.068
551.943
551.826
551.717
551.618
551.527
551.444
551.369
551.301
551.239
551.182
551.129
551.079
551.031
550.986
550.942
550.898
550.855
550.812
550.768
550.723
550.678
550.631
550.583
550.533
550.481
550.428
550.372
550.314
550.254
550.191
550.127
550.06
549.992
549.922
549.852
549.781
549.71
549.638
549.565
549.492
549.419
549.346
549.273
549.2
549.128
549.056
548.985
548.914
548.843
548.773
548.703
548.633
548.563
548.494
548.425
548.356
548.286
548.215
548.144
548.07
547.995
547.916
547.834
547.748
547.657
547.56
547.457
547.346
547.228
547.1
546.962
546.814
546.657
546.491
546.317
546.138
545.957
545.778
545.605
545.436
545.27
545.109
544.951
544.796
544.643
544.494
544.346
544.201
544.058
543.917
543.777
543.639
543.503
543.368
543.235
543.103
542.972
542.842
542.713
542.585
542.458
542.331
542.206
542.08
541.956
541.832
541.709
541.585
541.463
541.34
541.218
541.097
540.975
540.853
540.732
540.611
552.48
552.342
552.206
552.075
551.95
551.834
551.727
551.629
551.539
551.457
551.383
551.316
551.255
551.198
551.145
551.095
551.048
551.002
550.958
550.914
550.87
550.825
550.781
550.735
550.688
550.64
550.59
550.538
550.484
550.428
550.37
550.31
550.248
550.184
550.117
550.049
549.98
549.909
549.837
549.764
549.692
549.618
549.545
549.471
549.397
549.322
549.249
549.175
549.102
549.03
548.959
548.888
548.817
548.747
548.678
548.608
548.539
548.47
548.402
548.332
548.263
548.192
548.12
548.047
547.971
547.892
547.81
547.724
547.632
547.535
547.432
547.321
547.202
547.075
546.939
546.793
546.638
546.473
546.301
546.125
545.946
545.77
545.597
545.429
545.265
545.104
544.946
544.791
544.639
544.49
544.343
544.198
544.055
543.914
543.775
543.637
543.501
543.366
543.233
543.101
542.97
542.84
542.712
542.584
542.457
542.33
542.205
542.08
541.955
541.831
541.708
541.585
541.462
541.34
541.218
541.096
540.975
540.853
540.732
540.611
552.481
552.343
552.21
552.082
551.961
551.847
551.742
551.645
551.557
551.477
551.404
551.338
551.277
551.221
551.169
551.119
551.072
551.026
550.981
550.936
550.891
550.846
550.8
550.752
550.704
550.653
550.6
550.545
550.488
550.429
550.367
550.304
550.239
550.172
550.104
550.034
549.962
549.888
549.814
549.74
549.665
549.59
549.515
549.439
549.364
549.289
549.214
549.14
549.066
548.994
548.922
548.852
548.781
548.712
548.642
548.573
548.505
548.436
548.368
548.299
548.229
548.159
548.087
548.014
547.938
547.859
547.777
547.69
547.599
547.501
547.397
547.286
547.168
547.042
546.907
546.764
546.611
546.45
546.282
546.108
545.932
545.757
545.586
545.419
545.256
545.096
544.939
544.785
544.633
544.484
544.338
544.193
544.051
543.91
543.771
543.634
543.498
543.364
543.23
543.099
542.968
542.838
542.71
542.582
542.455
542.329
542.203
542.078
541.954
541.83
541.707
541.584
541.462
541.34
541.218
541.096
540.974
540.853
540.732
540.611
552.483
552.35
552.219
552.094
551.975
551.864
551.761
551.666
551.58
551.502
551.431
551.366
551.306
551.25
551.198
551.149
551.101
551.055
551.009
550.964
550.918
550.871
550.824
550.774
550.723
550.669
550.613
550.554
550.493
550.429
550.364
550.297
550.228
550.157
550.086
550.012
549.938
549.862
549.785
549.708
549.631
549.554
549.476
549.399
549.323
549.246
549.171
549.096
549.022
548.95
548.878
548.807
548.737
548.668
548.599
548.53
548.462
548.394
548.326
548.257
548.188
548.118
548.046
547.973
547.897
547.819
547.737
547.65
547.558
547.46
547.357
547.246
547.128
547.003
546.87
546.729
546.579
546.422
546.258
546.088
545.915
545.742
545.572
545.407
545.245
545.085
544.929
544.776
544.625
544.477
544.331
544.187
544.045
543.904
543.766
543.629
543.494
543.36
543.227
543.095
542.965
542.836
542.707
542.58
542.453
542.327
542.202
542.077
541.953
541.829
541.706
541.583
541.461
541.339
541.217
541.095
540.974
540.853
540.732
540.611
552.485
552.357
552.23
552.108
551.993
551.884
551.784
551.692
551.608
551.531
551.462
551.398
551.339
551.284
551.232
551.183
551.135
551.089
551.043
550.996
550.949
550.901
550.851
550.799
550.744
550.686
550.626
550.563
550.497
550.429
550.359
550.287
550.214
550.139
550.063
549.986
549.908
549.829
549.749
549.67
549.59
549.51
549.431
549.352
549.274
549.197
549.121
549.046
548.972
548.899
548.827
548.756
548.686
548.617
548.548
548.48
548.412
548.344
548.276
548.208
548.139
548.069
547.998
547.925
547.85
547.772
547.69
547.604
547.512
547.415
547.311
547.201
547.084
546.959
546.828
546.689
546.542
546.389
546.228
546.063
545.894
545.723
545.556
545.392
545.231
545.073
544.918
544.765
544.615
544.468
544.322
544.179
544.037
543.898
543.76
543.623
543.488
543.355
543.222
543.091
542.961
542.832
542.704
542.577
542.45
542.325
542.199
542.075
541.951
541.828
541.705
541.582
541.46
541.338
541.216
541.095
540.974
540.852
540.731
540.61
552.487
552.363
552.241
552.123
552.011
551.906
551.809
551.719
551.638
551.563
551.496
551.433
551.375
551.321
551.269
551.22
551.173
551.126
551.079
551.032
550.983
550.933
550.88
550.825
550.766
550.704
550.639
550.57
550.5
550.427
550.352
550.275
550.196
550.117
550.037
549.956
549.874
549.792
549.709
549.626
549.543
549.462
549.381
549.3
549.221
549.143
549.067
548.991
548.916
548.843
548.771
548.699
548.629
548.559
548.491
548.422
548.355
548.287
548.22
548.152
548.083
548.014
547.943
547.871
547.796
547.719
547.638
547.552
547.462
547.365
547.263
547.153
547.037
546.913
546.783
546.647
546.504
546.354
546.198
546.036
545.87
545.701
545.536
545.374
545.214
545.058
544.904
544.753
544.604
544.457
544.312
544.17
544.029
543.89
543.752
543.617
543.482
543.349
543.217
543.086
542.957
542.828
542.7
542.573
542.447
542.322
542.197
542.073
541.949
541.826
541.703
541.581
541.459
541.337
541.215
541.094
540.973
540.852
540.731
540.61
552.489
552.369
552.251
552.138
552.03
551.929
551.836
551.749
551.67
551.598
551.532
551.471
551.414
551.36
551.31
551.261
551.213
551.166
551.118
551.069
551.018
550.965
550.909
550.85
550.787
550.719
550.649
550.576
550.5
550.421
550.341
550.26
550.176
550.092
550.007
549.922
549.836
549.75
549.663
549.578
549.493
549.409
549.326
549.245
549.164
549.085
549.008
548.931
548.856
548.782
548.709
548.637
548.566
548.496
548.427
548.359
548.291
548.224
548.157
548.089
548.021
547.952
547.882
547.811
547.737
547.66
547.58
547.496
547.407
547.312
547.21
547.102
546.987
546.866
546.738
546.603
546.463
546.316
546.164
546.006
545.843
545.677
545.514
545.354
545.196
545.041
544.888
544.738
544.59
544.445
544.301
544.159
544.019
543.881
543.744
543.609
543.475
543.342
543.211
543.081
542.952
542.823
542.696
542.569
542.444
542.318
542.194
542.07
541.947
541.824
541.701
541.579
541.457
541.336
541.214
541.093
540.972
540.852
540.731
540.61
552.491
552.376
552.262
552.154
552.05
551.953
551.863
551.78
551.704
551.634
551.57
551.51
551.454
551.402
551.351
551.303
551.255
551.207
551.158
551.107
551.053
550.997
550.938
550.873
550.805
550.732
550.656
550.577
550.496
550.412
550.327
550.241
550.153
550.064
549.974
549.884
549.795
549.705
549.615
549.527
549.439
549.354
549.269
549.186
549.104
549.024
548.945
548.867
548.791
548.716
548.643
548.57
548.498
548.428
548.358
548.29
548.222
548.155
548.088
548.021
547.953
547.885
547.816
547.745
547.672
547.597
547.518
547.435
547.347
547.254
547.155
547.049
546.936
546.817
546.691
546.559
546.421
546.278
546.129
545.975
545.815
545.651
545.49
545.332
545.176
545.022
544.871
544.722
544.575
544.431
544.288
544.147
544.008
543.87
543.734
543.6
543.467
543.335
543.204
543.074
542.946
542.818
542.691
542.565
542.44
542.315
542.191
542.067
541.944
541.821
541.699
541.577
541.456
541.334
541.213
541.092
540.972
540.851
540.731
540.61
552.494
552.383
552.275
552.171
552.072
551.978
551.892
551.812
551.739
551.671
551.609
551.551
551.496
551.444
551.394
551.345
551.297
551.247
551.196
551.143
551.087
551.027
550.962
550.893
550.819
550.74
550.658
550.574
550.487
550.399
550.309
550.218
550.125
550.032
549.938
549.844
549.751
549.658
549.565
549.474
549.384
549.296
549.209
549.124
549.041
548.958
548.878
548.799
548.722
548.646
548.571
548.498
548.425
548.354
548.284
548.216
548.148
548.081
548.014
547.947
547.88
547.812
547.744
547.674
547.603
547.528
547.451
547.37
547.284
547.193
547.095
546.992
546.881
546.764
546.641
546.512
546.378
546.238
546.092
545.941
545.785
545.623
545.464
545.308
545.154
545.002
544.852
544.704
544.559
544.415
544.274
544.134
543.996
543.859
543.724
543.59
543.458
543.327
543.196
543.067
542.939
542.812
542.686
542.56
542.435
542.311
542.187
542.064
541.941
541.819
541.697
541.575
541.454
541.333
541.212
541.091
540.971
540.851
540.73
540.61
552.497
552.391
552.288
552.188
552.093
552.004
551.921
551.844
551.773
551.708
551.648
551.591
551.538
551.487
551.437
551.388
551.338
551.287
551.234
551.178
551.118
551.053
550.983
550.908
550.828
550.743
550.655
550.565
550.473
550.38
550.286
550.19
550.094
549.997
549.9
549.802
549.705
549.609
549.514
549.42
549.328
549.237
549.147
549.06
548.974
548.89
548.808
548.728
548.649
548.572
548.496
548.421
548.348
548.277
548.206
548.137
548.069
548.002
547.936
547.869
547.802
547.735
547.668
547.599
547.529
547.456
547.38
547.301
547.217
547.128
547.033
546.932
546.824
546.709
546.589
546.463
546.331
546.195
546.053
545.906
545.753
545.594
545.437
545.282
545.13
544.979
544.831
544.685
544.541
544.399
544.258
544.119
543.982
543.847
543.712
543.579
543.448
543.317
543.188
543.06
542.932
542.806
542.68
542.555
542.43
542.306
542.183
542.06
541.938
541.816
541.694
541.573
541.452
541.331
541.211
541.09
540.97
540.85
540.73
540.61
552.499
552.399
552.301
552.206
552.115
552.03
551.95
551.877
551.809
551.746
551.688
551.632
551.58
551.529
551.479
551.429
551.378
551.325
551.269
551.21
551.146
551.075
550.999
550.918
550.831
550.741
550.647
550.551
550.454
550.356
550.258
550.159
550.059
549.959
549.859
549.758
549.659
549.56
549.462
549.365
549.27
549.176
549.084
548.993
548.905
548.819
548.735
548.653
548.573
548.494
548.417
548.342
548.268
548.195
548.125
548.055
547.987
547.92
547.854
547.788
547.721
547.655
547.588
547.52
547.451
547.38
547.305
547.228
547.146
547.06
546.968
546.869
546.764
546.653
546.535
546.412
546.284
546.151
546.012
545.868
545.719
545.562
545.407
545.255
545.104
544.955
544.809
544.664
544.521
544.381
544.241
544.104
543.968
543.833
543.7
543.568
543.437
543.308
543.179
543.051
542.925
542.799
542.673
542.549
542.425
542.302
542.179
542.056
541.935
541.813
541.692
541.571
541.45
541.33
541.209
541.089
540.969
540.849
540.73
540.61
552.502
552.407
552.314
552.224
552.137
552.056
551.98
551.909
551.844
551.784
551.727
551.673
551.622
551.571
551.521
551.47
551.417
551.361
551.303
551.239
551.17
551.094
551.011
550.922
550.829
550.733
550.634
550.533
550.432
550.33
550.227
550.125
550.022
549.92
549.817
549.714
549.612
549.509
549.408
549.308
549.21
549.113
549.018
548.925
548.834
548.746
548.66
548.576
548.495
548.415
548.336
548.26
548.185
548.111
548.04
547.971
547.903
547.836
547.769
547.703
547.637
547.571
547.505
547.438
547.37
547.3
547.227
547.152
547.072
546.988
546.898
546.803
546.701
546.594
546.48
546.36
546.235
546.105
545.97
545.83
545.683
545.529
545.376
545.226
545.077
544.93
544.785
544.642
544.501
544.361
544.223
544.087
543.952
543.819
543.686
543.556
543.426
543.297
543.169
543.043
542.917
542.791
542.667
542.543
542.419
542.297
542.174
542.052
541.931
541.81
541.689
541.568
541.448
541.328
541.208
541.088
540.968
540.849
540.729
540.61
552.505
552.415
552.327
552.241
552.159
552.082
552.009
551.942
551.879
551.821
551.766
551.714
551.663
551.612
551.561
551.509
551.454
551.396
551.334
551.265
551.19
551.108
551.018
550.923
550.824
550.722
550.618
550.513
550.408
550.302
550.196
550.091
549.985
549.88
549.775
549.67
549.564
549.459
549.355
549.252
549.15
549.049
548.951
548.855
548.762
548.671
548.583
548.498
548.415
548.333
548.254
548.176
548.1
548.026
547.954
547.884
547.815
547.748
547.682
547.616
547.55
547.485
547.42
547.353
547.286
547.218
547.147
547.073
546.996
546.914
546.827
546.735
546.636
546.532
546.421
546.306
546.184
546.058
545.927
545.789
545.646
545.494
545.344
545.195
545.049
544.903
544.76
544.619
544.479
544.341
544.204
544.069
543.935
543.803
543.672
543.542
543.414
543.286
543.159
543.033
542.908
542.783
542.66
542.536
542.414
542.291
542.17
542.048
541.927
541.806
541.686
541.566
541.446
541.326
541.206
541.087
540.967
540.848
540.729
540.61
552.507
552.423
552.339
552.258
552.18
552.107
552.038
551.974
551.914
551.858
551.805
551.754
551.703
551.652
551.6
551.546
551.489
551.428
551.362
551.289
551.208
551.119
551.023
550.922
550.818
550.71
550.602
550.493
550.383
550.274
550.166
550.058
549.95
549.842
549.734
549.626
549.517
549.409
549.301
549.195
549.089
548.986
548.885
548.786
548.69
548.597
548.506
548.419
548.334
548.251
548.171
548.092
548.014
547.939
547.867
547.796
547.727
547.66
547.594
547.528
547.462
547.397
547.332
547.267
547.201
547.134
547.064
546.992
546.917
546.838
546.754
546.665
546.569
546.468
546.362
546.25
546.132
546.01
545.882
545.748
545.608
545.459
545.31
545.164
545.019
544.876
544.734
544.594
544.456
544.319
544.184
544.05
543.918
543.787
543.657
543.529
543.401
543.274
543.148
543.023
542.899
542.775
542.652
542.53
542.408
542.286
542.165
542.044
541.923
541.803
541.683
541.563
541.443
541.324
541.205
541.085
540.966
540.847
540.728
540.609
552.51
552.43
552.351
552.275
552.201
552.132
552.066
552.005
551.948
551.894
551.843
551.793
551.742
551.691
551.639
551.583
551.524
551.46
551.39
551.311
551.223
551.128
551.027
550.92
550.811
550.699
550.586
550.473
550.361
550.249
550.138
550.027
549.916
549.806
549.695
549.583
549.472
549.36
549.249
549.139
549.031
548.924
548.819
548.718
548.619
548.523
548.43
548.341
548.254
548.169
548.087
548.007
547.929
547.853
547.779
547.707
547.638
547.571
547.504
547.439
547.373
547.308
547.244
547.179
547.114
547.048
546.98
546.91
546.837
546.76
546.679
546.593
546.501
546.404
546.301
546.193
546.079
545.961
545.837
545.706
545.569
545.422
545.276
545.131
544.988
544.846
544.707
544.568
544.432
544.296
544.163
544.03
543.9
543.77
543.641
543.514
543.388
543.262
543.137
543.013
542.89
542.767
542.645
542.523
542.401
542.28
542.16
542.039
541.919
541.799
541.68
541.56
541.441
541.322
541.203
541.084
540.965
540.847
540.728
540.609
552.512
552.437
552.363
552.291
552.222
552.156
552.094
552.036
551.981
551.93
551.88
551.831
551.781
551.73
551.676
551.619
551.558
551.491
551.415
551.331
551.238
551.137
551.03
550.919
550.804
550.688
550.572
550.456
550.341
550.226
550.112
549.999
549.885
549.771
549.657
549.543
549.428
549.314
549.2
549.087
548.975
548.865
548.757
548.653
548.551
548.452
548.357
548.265
548.175
548.089
548.005
547.923
547.844
547.767
547.692
547.62
547.549
547.481
547.415
547.349
547.284
547.22
547.155
547.091
547.027
546.962
546.895
546.827
546.755
546.681
546.603
546.52
546.431
546.338
546.239
546.135
546.025
545.911
545.79
545.663
545.529
545.384
545.24
545.097
544.956
544.816
544.678
544.541
544.406
544.273
544.141
544.01
543.88
543.752
543.625
543.499
543.374
543.249
543.126
543.003
542.88
542.758
542.637
542.516
542.395
542.274
542.154
542.035
541.915
541.796
541.677
541.558
541.439
541.32
541.201
541.083
540.964
540.846
540.728
540.609
552.514
552.444
552.374
552.307
552.242
552.18
552.122
552.067
552.015
551.965
551.917
551.869
551.819
551.768
551.714
551.655
551.591
551.521
551.441
551.352
551.253
551.146
551.034
550.918
550.799
550.679
550.56
550.441
550.323
550.206
550.09
549.973
549.857
549.74
549.623
549.506
549.388
549.271
549.154
549.038
548.923
548.81
548.699
548.591
548.486
548.385
548.286
548.192
548.1
548.011
547.925
547.842
547.761
547.682
547.606
547.533
547.462
547.394
547.326
547.261
547.196
547.131
547.067
547.004
546.94
546.876
546.81
546.744
546.674
546.602
546.526
546.446
546.361
546.271
546.176
546.076
545.97
545.859
545.743
545.619
545.488
545.345
545.203
545.063
544.923
544.785
544.648
544.513
544.38
544.248
544.117
543.988
543.86
543.734
543.608
543.483
543.359
543.236
543.114
542.992
542.87
542.749
542.629
542.508
542.388
542.269
542.149
542.03
541.911
541.792
541.673
541.555
541.436
541.318
541.2
541.081
540.963
540.845
540.727
540.609
552.517
552.451
552.386
552.323
552.262
552.204
552.149
552.097
552.048
552
551.954
551.906
551.857
551.806
551.751
551.691
551.625
551.551
551.467
551.372
551.268
551.156
551.04
550.919
550.796
550.672
550.549
550.427
550.306
550.186
550.068
549.949
549.83
549.71
549.591
549.471
549.352
549.232
549.113
548.994
548.876
548.76
548.646
548.535
548.427
548.322
548.22
548.122
548.028
547.937
547.849
547.764
547.681
547.601
547.524
547.449
547.377
547.308
547.24
547.174
547.109
547.044
546.981
546.917
546.854
546.791
546.726
546.661
546.594
546.523
546.45
546.373
546.291
546.205
546.113
546.017
545.915
545.808
545.694
545.574
545.446
545.303
545.165
545.027
544.889
544.753
544.618
544.484
544.352
544.222
544.093
543.966
543.84
543.715
543.59
543.467
543.345
543.223
543.101
542.981
542.86
542.74
542.62
542.501
542.382
542.263
542.144
542.025
541.907
541.788
541.67
541.552
541.434
541.316
541.198
541.08
540.962
540.844
540.727
540.609
552.519
552.458
552.398
552.339
552.282
552.228
552.177
552.128
552.08
552.035
551.989
551.943
551.895
551.843
551.787
551.726
551.658
551.581
551.493
551.394
551.285
551.168
551.047
550.922
550.795
550.668
550.54
550.414
550.29
550.167
550.046
549.925
549.804
549.683
549.562
549.44
549.319
549.198
549.077
548.956
548.836
548.717
548.6
548.485
548.373
548.264
548.159
548.058
547.96
547.866
547.776
547.688
547.604
547.523
547.444
547.368
547.296
547.225
547.157
547.09
547.024
546.96
546.897
546.834
546.771
546.708
546.644
546.58
546.514
546.446
546.375
546.3
546.221
546.138
546.05
545.957
545.859
545.756
545.645
545.528
545.399
545.247
545.122
544.989
544.854
544.719
544.586
544.454
544.324
544.195
544.068
543.943
543.818
543.695
543.572
543.451
543.33
543.209
543.089
542.969
542.85
542.731
542.612
542.494
542.375
542.257
542.139
542.021
541.903
541.785
541.667
541.549
541.431
541.314
541.196
541.079
540.961
540.844
540.726
540.609
552.522
552.465
552.409
552.355
552.302
552.252
552.204
552.157
552.112
552.068
552.024
551.979
551.931
551.88
551.824
551.761
551.692
551.612
551.52
551.416
551.303
551.183
551.057
550.929
550.799
550.667
550.536
550.405
550.276
550.15
550.026
549.903
549.782
549.66
549.537
549.415
549.293
549.17
549.047
548.924
548.802
548.68
548.56
548.441
548.326
548.213
548.105
548
547.898
547.801
547.708
547.618
547.532
547.449
547.368
547.291
547.217
547.146
547.076
547.009
546.944
546.879
546.816
546.754
546.691
546.628
546.566
546.502
546.437
546.37
546.301
546.228
546.152
546.072
545.987
545.898
545.803
545.703
545.596
545.48
545.343
545.133
545.07
544.95
544.818
544.685
544.553
544.422
544.294
544.167
544.042
543.919
543.796
543.675
543.554
543.434
543.314
543.195
543.077
542.958
542.84
542.722
542.604
542.486
542.369
542.251
542.133
542.016
541.899
541.781
541.664
541.546
541.429
541.312
541.195
541.077
540.96
540.843
540.726
540.609
552.524
552.472
552.42
552.37
552.322
552.275
552.229
552.186
552.143
552.101
552.058
552.014
551.967
551.916
551.86
551.797
551.726
551.643
551.547
551.44
551.323
551.2
551.072
550.941
550.808
550.673
550.537
550.403
550.27
550.14
550.013
549.888
549.764
549.642
549.519
549.396
549.272
549.148
549.024
548.899
548.775
548.65
548.527
548.405
548.285
548.169
548.056
547.947
547.842
547.742
547.645
547.553
547.464
547.378
547.296
547.218
547.142
547.07
547
546.933
546.867
546.803
546.74
546.678
546.616
546.554
546.492
546.429
546.365
546.299
546.23
546.16
546.085
546.008
545.926
545.84
545.748
545.652
545.548
545.437
545.314
545.168
545.045
544.914
544.781
544.649
544.518
544.389
544.263
544.138
544.015
543.894
543.773
543.654
543.535
543.417
543.299
543.182
543.064
542.947
542.83
542.713
542.596
542.479
542.362
542.245
542.128
542.012
541.895
541.778
541.661
541.544
541.427
541.31
541.193
541.076
540.959
540.842
540.725
540.608
552.526
552.479
552.432
552.385
552.34
552.297
552.255
552.214
552.173
552.133
552.092
552.048
552.002
551.952
551.896
551.833
551.76
551.675
551.577
551.467
551.347
551.221
551.091
550.958
550.823
550.686
550.547
550.409
550.272
550.138
550.008
549.88
549.755
549.631
549.508
549.384
549.259
549.134
549.008
548.881
548.754
548.627
548.501
548.375
548.252
548.131
548.014
547.901
547.792
547.688
547.588
547.492
547.4
547.312
547.228
547.148
547.071
546.998
546.928
546.861
546.796
546.732
546.67
546.609
546.548
546.486
546.425
546.362
546.299
546.233
546.166
546.096
546.023
545.947
545.868
545.784
545.695
545.601
545.502
545.394
545.278
545.146
545.011
544.877
544.743
544.611
544.482
544.355
544.23
544.108
543.987
543.868
543.75
543.633
543.516
543.4
543.284
543.168
543.052
542.936
542.82
542.704
542.588
542.472
542.356
542.24
542.124
542.007
541.891
541.774
541.658
541.541
541.425
541.308
541.192
541.075
540.958
540.842
540.725
540.608
552.528
552.485
552.442
552.4
552.359
552.319
552.279
552.241
552.202
552.164
552.124
552.082
552.036
551.987
551.931
551.868
551.795
551.708
551.607
551.496
551.375
551.247
551.115
550.981
550.846
550.708
550.566
550.424
550.283
550.146
550.011
549.881
549.753
549.627
549.503
549.378
549.252
549.125
548.997
548.869
548.739
548.61
548.48
548.351
548.224
548.1
547.979
547.862
547.749
547.64
547.537
547.437
547.342
547.252
547.165
547.083
547.005
546.931
546.861
546.795
546.731
546.668
546.607
546.547
546.486
546.426
546.365
546.303
546.239
546.174
546.107
546.038
545.966
545.891
545.813
545.731
545.645
545.553
545.456
545.351
545.238
545.11
544.974
544.838
544.703
544.572
544.443
544.318
544.196
544.076
543.958
543.842
543.726
543.611
543.497
543.383
543.269
543.155
543.04
542.926
542.811
542.696
542.581
542.466
542.35
542.235
542.119
542.003
541.887
541.771
541.655
541.539
541.423
541.306
541.19
541.074
540.957
540.841
540.725
540.608
552.531
552.492
552.453
552.415
552.377
552.34
552.304
552.268
552.231
552.194
552.155
552.114
552.069
552.021
551.966
551.903
551.829
551.74
551.639
551.528
551.407
551.279
551.147
551.011
550.874
550.735
550.593
550.449
550.305
550.163
550.024
549.888
549.756
549.628
549.502
549.376
549.249
549.12
548.991
548.86
548.728
548.596
548.463
548.331
548.2
548.073
547.949
547.829
547.712
547.6
547.492
547.389
547.291
547.198
547.11
547.027
546.948
546.874
546.805
546.739
546.675
546.613
546.553
546.493
546.433
546.373
546.312
546.25
546.185
546.12
546.053
545.984
545.912
545.838
545.76
545.681
545.597
545.508
545.413
545.31
545.199
545.074
544.939
544.799
544.662
544.53
544.402
544.279
544.16
544.043
543.928
543.815
543.702
543.59
543.478
543.366
543.254
543.142
543.029
542.916
542.802
542.688
542.574
542.46
542.345
542.23
542.115
541.999
541.884
541.768
541.653
541.537
541.421
541.305
541.189
541.073
540.957
540.84
540.724
540.608
552.533
552.498
552.463
552.429
552.395
552.362
552.328
552.294
552.26
552.224
552.186
552.145
552.102
552.054
552
551.937
551.861
551.772
551.67
551.56
551.44
551.313
551.18
551.044
550.907
550.768
550.626
550.482
550.336
550.189
550.043
549.901
549.763
549.629
549.498
549.371
549.244
549.113
548.982
548.85
548.717
548.584
548.448
548.313
548.18
548.052
547.927
547.805
547.684
547.568
547.457
547.349
547.247
547.155
547.068
546.988
546.909
546.835
546.767
546.7
546.634
546.571
546.51
546.449
546.39
546.327
546.265
546.199
546.131
546.064
545.997
545.926
545.854
545.779
545.702
545.627
545.548
545.463
545.372
545.272
545.163
545.042
544.914
544.76
544.617
544.484
544.358
544.237
544.121
544.008
543.897
543.787
543.678
543.569
543.46
543.35
543.24
543.129
543.018
542.906
542.794
542.681
542.568
542.454
542.34
542.226
542.111
541.996
541.881
541.766
541.65
541.535
541.419
541.303
541.188
541.072
540.956
540.84
540.724
540.608
552.535
552.505
552.474
552.444
552.414
552.384
552.353
552.322
552.289
552.254
552.216
552.176
552.133
552.086
552.032
551.968
551.891
551.8
551.699
551.59
551.472
551.347
551.216
551.08
550.94
550.798
550.656
550.513
550.367
550.215
550.064
549.916
549.77
549.628
549.49
549.357
549.247
549.113
548.978
548.848
548.716
548.584
548.445
548.306
548.176
548.052
547.929
547.802
547.677
547.556
547.444
547.329
547.223
547.139
547.057
546.993
546.913
546.837
546.772
546.696
546.62
546.553
546.491
546.426
546.368
546.291
546.219
546.15
546.071
546.002
545.948
545.856
545.78
545.7
545.623
545.557
545.491
545.416
545.331
545.238
545.134
545.015
544.877
544.715
544.564
544.432
544.308
544.191
544.08
543.972
543.865
543.76
543.654
543.548
543.442
543.335
543.227
543.118
543.008
542.898
542.786
542.674
542.562
542.449
542.335
542.222
542.108
541.993
541.878
541.763
541.648
541.533
541.418
541.302
541.187
541.071
540.955
540.84
540.724
540.608
552.537
552.511
552.486
552.46
552.434
552.408
552.38
552.35
552.318
552.284
552.247
552.206
552.163
552.116
552.062
551.995
551.916
551.824
551.722
551.612
551.496
551.374
551.245
551.109
550.965
550.818
550.673
550.552
550.408
550.25
550.095
549.941
549.789
549.641
549.494
549.35
549.212
549.073
548.935
548.802
548.67
548.541
548.406
548.275
548.149
548.024
547.899
547.777
547.653
547.534
547.414
547.311
547.209
547.124
547.039
546.961
546.888
546.823
546.752
546.681
546.617
546.531
546.47
546.394
546.343
546.258
546.2
546.097
546.023
545.907
545.844
545.746
545.668
545.569
545.513
545.438
545.392
545.347
545.257
545.158
545.08
544.988
544.852
544.625
544.494
544.374
544.251
544.14
544.036
543.934
543.833
543.732
543.631
543.529
543.425
543.321
543.215
543.108
542.999
542.89
542.78
542.669
542.557
542.445
542.332
542.218
542.105
541.99
541.876
541.761
541.647
541.532
541.416
541.301
541.186
541.07
540.955
540.839
540.723
540.608
552.54
552.519
552.498
552.477
552.456
552.433
552.407
552.38
552.349
552.315
552.277
552.236
552.192
552.144
552.087
552.017
551.935
551.841
551.736
551.623
551.504
551.407
551.276
551.141
550.995
550.842
550.688
550.532
550.383
550.227
550.067
549.909
549.751
549.596
549.446
549.296
549.152
549.008
548.87
548.738
548.608
548.483
548.356
548.239
548.125
548.012
547.892
547.769
547.644
547.53
547.414
547.315
547.222
547.132
547.043
546.964
546.888
546.82
546.747
546.673
546.619
546.532
546.469
546.386
546.338
546.251
546.186
546.09
546.008
545.899
545.835
545.749
545.662
545.571
545.503
545.439
545.391
545.331
545.252
545.166
545.071
544.974
544.877
544.603
544.442
544.294
544.183
544.083
543.989
543.896
543.801
543.705
543.609
543.51
543.41
543.308
543.204
543.099
542.992
542.884
542.774
542.664
542.553
542.441
542.328
542.215
542.102
541.988
541.874
541.76
541.645
541.53
541.415
541.3
541.185
541.07
540.954
540.839
540.723
540.608
552.542
552.526
552.511
552.495
552.478
552.459
552.437
552.411
552.383
552.349
552.311
552.267
552.222
552.172
552.111
552.034
551.946
551.878
551.764
551.652
551.518
551.385
551.244
551.105
550.958
550.796
550.638
550.468
550.312
550.151
549.988
549.833
549.676
549.525
549.376
549.222
549.073
548.926
548.786
548.66
548.542
548.43
548.326
548.219
548.117
548.011
547.921
547.796
547.699
547.571
547.466
547.349
547.267
547.163
547.094
547.006
546.931
546.829
546.763
546.667
546.602
546.51
546.446
546.372
546.311
546.246
546.176
546.095
546.009
545.918
545.841
545.757
545.67
545.583
545.505
545.432
545.367
545.296
545.225
545.151
545.072
544.99
544.914
544.797
544.422
544.247
544.107
544.021
543.942
543.859
543.771
543.68
543.588
543.494
543.398
543.298
543.196
543.092
542.986
542.879
542.77
542.66
542.55
542.438
542.326
542.213
542.1
541.987
541.873
541.759
541.644
541.529
541.415
541.3
541.184
541.069
540.954
540.839
540.723
540.608
552.544
552.533
552.523
552.516
552.505
552.489
552.475
552.45
552.426
552.39
552.353
552.303
552.259
552.204
552.168
552.076
551.972
551.858
551.737
551.595
551.458
551.316
551.171
551.028
550.877
550.705
550.541
550.367
550.199
550.042
549.877
549.738
549.576
549.438
549.28
549.131
548.972
548.822
548.688
548.56
548.468
548.352
548.278
548.167
548.103
547.987
547.913
547.791
547.688
547.557
547.435
547.315
547.218
547.112
547.024
546.933
546.853
546.762
546.685
546.595
546.531
546.45
546.388
546.316
546.256
546.193
546.129
546.06
545.984
545.906
545.827
545.745
545.661
545.577
545.499
545.426
545.361
545.295
545.231
545.163
545.044
544.836
544.667
544.642
544.36
544.166
544.054
543.963
543.9
543.829
543.742
543.655
543.571
543.482
543.388
543.291
543.19
543.087
542.982
542.875
542.767
542.658
542.547
542.436
542.324
542.212
542.099
541.986
541.872
541.758
541.643
541.529
541.414
541.299
541.184
541.069
540.954
540.838
540.723
540.608
552.546