0 	0 	0 	0
0.010101 	-3.61172e-28 	-4.98635e-28 	-1.33374e-27
0.020202 	-1.89053e-27 	-4.17761e-28 	-1.07738e-27
