/*--------------------------------*- C++ -*----------------------------------*\
  =========                 |
  \\      /  F ield         | OpenFOAM: The Open Source CFD Toolbox
   \\    /   O peration     | Website:  https://openfoam.org
    \\  /    A nd           | Version:  6
     \\/     M anipulation  |
\*---------------------------------------------------------------------------*/
FoamFile
{
    version     2.0;
    format      ascii;
    class       volScalarField;
    location    "930";
    object      p;
}
// * * * * * * * * * * * * * * * * * * * * * * * * * * * * * * * * * * * * * //

dimensions      [1 -1 -2 0 0 0 0];

internalField   nonuniform List<scalar> 
5964
(
103803
103803
103803
103803
103803
103803
103803
103803
103803
103803
103803
103803
103803
103803
103803
103803
103803
103803
103803
103803
103803
103803
103803
103798
103795
103792
103789
103787
103785
103783
103781
103779
103778
103776
103775
103773
103772
103770
103769
103768
103767
103765
103764
103763
103762
103761
103760
103759
103758
103757
103756
103755
103754
103753
103752
103751
103750
103750
103749
103748
103747
103747
103746
103745
103745
103744
103744
103743
103743
103742
103742
103741
103741
103741
103740
103740
103740
103740
103740
103739
103739
103739
103739
103739
103742
103742
103742
103742
103742
103742
103742
103742
103742
103742
103742
103742
103742
103742
103742
103742
103742
103742
103742
103742
103742
103742
103742
103739
103736
103733
103730
103728
103726
103724
103722
103721
103719
103717
103716
103714
103713
103712
103710
103709
103708
103707
103706
103704
103703
103702
103701
103700
103699
103698
103697
103696
103695
103694
103693
103693
103692
103691
103690
103689
103689
103688
103687
103687
103686
103686
103685
103685
103684
103684
103683
103683
103682
103682
103682
103682
103681
103681
103681
103681
103681
103681
103680
103680
103682
103682
103682
103682
103682
103682
103682
103682
103682
103682
103682
103682
103682
103682
103682
103682
103682
103682
103682
103682
103682
103682
103682
103679
103676
103674
103671
103669
103667
103665
103663
103662
103660
103659
103657
103656
103654
103653
103652
103651
103649
103648
103647
103646
103645
103644
103642
103641
103640
103639
103638
103637
103637
103636
103635
103634
103633
103632
103631
103631
103630
103629
103629
103628
103627
103627
103626
103626
103625
103625
103624
103624
103624
103623
103623
103623
103623
103622
103622
103622
103622
103622
103622
103622
103621
103621
103621
103621
103621
103621
103621
103621
103621
103621
103621
103621
103621
103621
103621
103621
103621
103621
103621
103621
103621
103621
103621
103619
103617
103614
103612
103610
103608
103606
103605
103603
103601
103600
103598
103597
103596
103594
103593
103592
103591
103589
103588
103587
103586
103585
103584
103583
103582
103581
103580
103579
103578
103577
103576
103575
103574
103574
103573
103572
103571
103571
103570
103569
103569
103568
103568
103567
103567
103566
103566
103565
103565
103565
103564
103564
103564
103564
103563
103563
103563
103563
103563
103563
103561
103561
103561
103561
103561
103561
103561
103561
103561
103561
103561
103561
103561
103561
103561
103561
103561
103561
103561
103561
103561
103561
103561
103559
103557
103555
103553
103551
103549
103547
103546
103544
103542
103541
103540
103538
103537
103536
103534
103533
103532
103531
103529
103528
103527
103526
103525
103524
103523
103522
103521
103520
103519
103518
103517
103516
103516
103515
103514
103513
103513
103512
103511
103511
103510
103509
103509
103508
103508
103507
103507
103507
103506
103506
103506
103505
103505
103505
103505
103505
103504
103504
103504
103504
103501
103501
103501
103501
103501
103501
103501
103500
103500
103500
103500
103500
103500
103500
103500
103500
103500
103500
103500
103500
103500
103500
103500
103499
103497
103495
103493
103492
103490
103488
103487
103485
103484
103482
103481
103479
103478
103477
103476
103474
103473
103472
103471
103470
103468
103467
103466
103465
103464
103463
103462
103461
103460
103459
103459
103458
103457
103456
103455
103455
103454
103453
103452
103452
103451
103451
103450
103450
103449
103449
103448
103448
103448
103447
103447
103447
103446
103446
103446
103446
103446
103446
103446
103446
103440
103440
103440
103440
103440
103440
103440
103440
103440
103440
103440
103440
103440
103440
103440
103440
103440
103440
103440
103440
103440
103440
103440
103440
103438
103436
103434
103432
103431
103429
103427
103426
103425
103423
103422
103420
103419
103418
103417
103416
103414
103413
103412
103411
103410
103409
103408
103407
103405
103404
103403
103403
103402
103401
103400
103399
103398
103397
103396
103396
103395
103394
103394
103393
103392
103392
103391
103391
103390
103390
103389
103389
103389
103388
103388
103388
103388
103387
103387
103387
103387
103387
103387
103387
103380
103380
103380
103380
103380
103380
103380
103380
103380
103380
103380
103380
103380
103380
103380
103380
103380
103380
103380
103380
103380
103380
103380
103380
103378
103376
103375
103373
103371
103370
103368
103367
103365
103364
103363
103362
103360
103359
103358
103357
103356
103354
103353
103352
103351
103350
103349
103348
103347
103346
103345
103344
103343
103342
103341
103340
103339
103338
103338
103337
103336
103336
103335
103334
103334
103333
103333
103332
103332
103331
103331
103330
103330
103330
103329
103329
103329
103329
103328
103328
103328
103328
103328
103328
103319
103319
103319
103319
103319
103319
103319
103319
103319
103319
103319
103319
103319
103319
103319
103319
103319
103319
103319
103319
103319
103319
103319
103319
103318
103317
103315
103313
103312
103310
103309
103308
103306
103305
103304
103303
103301
103300
103299
103298
103297
103296
103294
103293
103292
103291
103290
103289
103288
103287
103286
103285
103284
103283
103282
103281
103280
103280
103279
103278
103277
103277
103276
103275
103275
103274
103274
103273
103273
103272
103272
103271
103271
103271
103270
103270
103270
103270
103270
103269
103269
103269
103269
103269
103259
103259
103259
103259
103259
103259
103259
103259
103259
103259
103259
103259
103259
103259
103259
103259
103259
103259
103259
103259
103259
103259
103259
103259
103259
103257
103255
103254
103253
103251
103250
103249
103247
103246
103245
103244
103243
103241
103240
103239
103238
103237
103236
103235
103233
103232
103231
103230
103229
103228
103227
103226
103225
103224
103223
103222
103222
103221
103220
103219
103219
103218
103217
103217
103216
103215
103215
103214
103214
103213
103213
103213
103212
103212
103212
103211
103211
103211
103211
103210
103210
103210
103210
103210
103199
103198
103198
103198
103198
103198
103198
103198
103198
103198
103198
103198
103198
103198
103198
103198
103198
103198
103198
103198
103198
103198
103198
103198
103198
103197
103196
103194
103193
103192
103191
103189
103188
103187
103186
103185
103184
103183
103181
103180
103179
103178
103177
103176
103175
103173
103172
103171
103170
103169
103168
103167
103166
103165
103164
103164
103163
103162
103161
103160
103160
103159
103158
103158
103157
103156
103156
103155
103155
103154
103154
103154
103153
103153
103153
103152
103152
103152
103152
103152
103151
103151
103151
103151
103138
103138
103138
103138
103138
103138
103138
103138
103138
103138
103138
103138
103138
103138
103138
103138
103138
103138
103138
103138
103138
103138
103138
103138
103138
103138
103136
103135
103134
103132
103131
103130
103129
103128
103127
103126
103125
103124
103123
103121
103120
103119
103118
103117
103116
103115
103114
103112
103111
103110
103109
103108
103107
103106
103106
103105
103104
103103
103102
103101
103101
103100
103099
103099
103098
103098
103097
103096
103096
103096
103095
103095
103094
103094
103094
103093
103093
103093
103093
103093
103093
103092
103092
103092
103078
103078
103078
103078
103078
103078
103077
103077
103077
103077
103077
103077
103077
103077
103077
103077
103077
103077
103077
103077
103077
103077
103077
103077
103077
103077
103076
103075
103074
103073
103072
103071
103070
103069
103068
103067
103066
103065
103064
103063
103061
103060
103059
103058
103057
103056
103055
103054
103053
103052
103050
103049
103049
103048
103047
103046
103045
103044
103043
103042
103042
103041
103040
103040
103039
103039
103038
103037
103037
103037
103036
103036
103035
103035
103035
103034
103034
103034
103034
103034
103034
103033
103033
103033
103017
103017
103017
103017
103017
103017
103017
103017
103017
103017
103017
103017
103017
103017
103017
103017
103017
103017
103017
103017
103017
103017
103017
103017
103017
103017
103017
103016
103015
103014
103013
103012
103011
103010
103009
103008
103007
103006
103005
103004
103003
103002
103000
102999
102998
102997
102996
102995
102994
102993
102992
102991
102990
102989
102988
102987
102986
102985
102984
102984
102983
102982
102981
102981
102980
102980
102979
102979
102978
102978
102977
102977
102976
102976
102976
102975
102975
102975
102975
102975
102975
102975
102974
102974
102957
102957
102957
102957
102957
102957
102957
102957
102956
102956
102956
102956
102956
102956
102956
102956
102956
102956
102956
102956
102956
102956
102956
102956
102956
102956
102956
102956
102955
102954
102953
102953
102952
102951
102950
102949
102948
102947
102946
102945
102944
102943
102942
102940
102939
102938
102937
102936
102935
102934
102933
102932
102931
102930
102929
102928
102927
102926
102925
102925
102924
102923
102922
102922
102921
102921
102920
102919
102919
102919
102918
102918
102917
102917
102917
102916
102916
102916
102916
102916
102916
102916
102915
102915
102897
102897
102897
102896
102896
102896
102896
102896
102896
102896
102896
102896
102896
102896
102896
102896
102896
102896
102896
102896
102896
102896
102896
102896
102896
102896
102896
102896
102895
102894
102894
102893
102893
102892
102891
102890
102889
102888
102887
102886
102885
102884
102883
102882
102880
102879
102878
102877
102876
102875
102874
102873
102872
102871
102870
102869
102868
102867
102866
102866
102865
102864
102863
102863
102862
102862
102861
102860
102860
102860
102859
102859
102858
102858
102858
102857
102857
102857
102857
102857
102857
102856
102856
102856
102836
102836
102836
102836
102836
102836
102836
102836
102836
102836
102836
102836
102836
102836
102836
102836
102836
102836
102836
102836
102836
102835
102835
102836
102836
102836
102836
102835
102835
102835
102835
102834
102834
102833
102833
102832
102831
102830
102829
102827
102826
102825
102824
102823
102822
102820
102819
102818
102817
102816
102815
102814
102813
102812
102811
102810
102809
102808
102807
102806
102806
102805
102804
102804
102803
102802
102802
102801
102801
102800
102800
102800
102799
102799
102799
102798
102798
102798
102798
102798
102798
102797
102797
102797
102776
102776
102776
102776
102776
102776
102775
102775
102775
102775
102775
102775
102775
102775
102775
102775
102775
102775
102775
102775
102775
102775
102775
102775
102775
102775
102775
102775
102775
102775
102775
102775
102774
102774
102774
102773
102772
102771
102770
102769
102768
102766
102765
102764
102763
102761
102760
102759
102758
102757
102756
102755
102754
102753
102752
102751
102750
102749
102748
102747
102747
102746
102745
102745
102744
102743
102743
102742
102742
102741
102741
102741
102740
102740
102740
102739
102739
102739
102739
102739
102738
102738
102738
102738
102715
102715
102715
102715
102715
102715
102715
102715
102715
102715
102715
102715
102715
102715
102715
102715
102715
102715
102715
102715
102715
102715
102715
102715
102715
102715
102715
102715
102715
102715
102715
102715
102715
102715
102715
102714
102714
102712
102711
102710
102709
102708
102706
102705
102704
102703
102701
102700
102699
102698
102697
102696
102695
102694
102693
102692
102691
102690
102689
102688
102687
102687
102686
102685
102685
102684
102684
102683
102683
102682
102682
102681
102681
102681
102680
102680
102680
102680
102680
102679
102679
102679
102679
102679
102655
102655
102655
102655
102655
102655
102655
102654
102654
102654
102654
102654
102654
102654
102654
102654
102654
102654
102654
102654
102654
102654
102654
102654
102654
102654
102654
102654
102654
102654
102654
102654
102654
102654
102654
102654
102654
102654
102652
102651
102650
102649
102647
102646
102645
102644
102642
102641
102640
102639
102638
102637
102635
102634
102633
102633
102632
102631
102630
102629
102628
102628
102627
102626
102626
102625
102625
102624
102624
102623
102623
102622
102622
102622
102621
102621
102621
102621
102620
102620
102620
102620
102620
102620
102594
102594
102594
102594
102594
102594
102594
102594
102594
102594
102594
102594
102594
102594
102594
102594
102594
102594
102594
102594
102594
102594
102594
102594
102594
102594
102594
102594
102594
102594
102594
102594
102594
102594
102594
102594
102594
102594
102593
102593
102591
102590
102589
102587
102586
102585
102583
102582
102581
102580
102579
102577
102576
102575
102574
102573
102572
102572
102571
102570
102569
102568
102568
102567
102566
102566
102565
102565
102564
102564
102563
102563
102563
102562
102562
102562
102562
102561
102561
102561
102561
102561
102561
102561
102534
102534
102534
102534
102534
102534
102534
102533
102533
102533
102533
102533
102533
102533
102533
102533
102533
102533
102533
102533
102533
102533
102533
102533
102533
102533
102533
102533
102533
102533
102533
102533
102533
102533
102533
102533
102533
102533
102533
102533
102533
102531
102530
102528
102527
102526
102524
102523
102522
102521
102519
102518
102517
102516
102515
102514
102513
102512
102512
102511
102510
102509
102509
102508
102507
102507
102506
102506
102505
102505
102504
102504
102504
102503
102503
102503
102502
102502
102502
102502
102502
102502
102502
102502
102473
102473
102473
102473
102473
102473
102473
102473
102473
102473
102473
102473
102473
102473
102473
102473
102473
102473
102473
102473
102473
102473
102473
102473
102473
102473
102473
102473
102473
102473
102473
102473
102473
102473
102473
102473
102473
102473
102473
102473
102473
102472
102471
102469
102468
102467
102465
102464
102463
102462
102460
102459
102458
102457
102456
102455
102454
102453
102452
102451
102451
102450
102449
102449
102448
102447
102447
102446
102446
102445
102445
102445
102444
102444
102444
102443
102443
102443
102443
102443
102443
102443
102442
102442
102413
102413
102413
102413
102413
102413
102413
102412
102412
102412
102412
102412
102412
102412
102412
102412
102412
102412
102412
102412
102412
102412
102412
102412
102412
102412
102412
102412
102412
102412
102412
102412
102412
102412
102412
102412
102412
102413
102413
102413
102413
102413
102412
102411
102409
102408
102406
102405
102404
102402
102401
102400
102399
102398
102397
102396
102395
102394
102393
102392
102391
102391
102390
102389
102389
102388
102388
102387
102387
102386
102386
102385
102385
102385
102384
102384
102384
102384
102384
102383
102383
102383
102383
102383
102352
102352
102352
102352
102352
102352
102352
102352
102352
102352
102352
102352
102352
102352
102352
102352
102352
102352
102352
102352
102352
102352
102352
102352
102352
102352
102352
102352
102352
102352
102352
102352
102352
102352
102352
102352
102352
102352
102352
102352
102352
102352
102352
102352
102350
102349
102347
102346
102345
102343
102342
102341
102340
102338
102337
102336
102335
102335
102334
102333
102332
102331
102331
102330
102329
102329
102328
102328
102327
102327
102327
102326
102326
102325
102325
102325
102325
102325
102324
102324
102324
102324
102324
102324
102292
102292
102292
102292
102292
102292
102292
102291
102291
102291
102291
102291
102291
102291
102291
102291
102291
102291
102291
102291
102291
102291
102291
102291
102291
102291
102291
102291
102291
102291
102291
102291
102291
102291
102291
102291
102292
102292
102292
102292
102292
102292
102292
102292
102292
102290
102288
102287
102285
102284
102283
102281
102280
102279
102278
102277
102276
102275
102274
102274
102273
102272
102271
102271
102270
102270
102269
102268
102268
102268
102267
102267
102266
102266
102266
102266
102265
102265
102265
102265
102265
102265
102265
102265
102231
102231
102231
102231
102231
102231
102231
102231
102231
102231
102231
102231
102231
102231
102231
102231
102231
102231
102231
102231
102231
102231
102231
102231
102231
102231
102231
102231
102231
102231
102231
102231
102231
102231
102231
102231
102231
102231
102231
102231
102231
102231
102231
102231
102231
102231
102229
102228
102226
102225
102223
102222
102221
102220
102219
102218
102217
102216
102215
102214
102213
102213
102212
102211
102211
102210
102210
102209
102209
102208
102208
102207
102207
102207
102207
102206
102206
102206
102206
102206
102205
102205
102205
102205
102171
102171
102171
102171
102171
102171
102171
102171
102171
102171
102171
102171
102171
102171
102171
102171
102171
102171
102171
102171
102170
102170
102170
102170
102170
102170
102170
102170
102170
102170
102170
102170
102170
102170
102170
102171
102171
102171
102171
102171
102171
102171
102171
102171
102171
102171
102170
102168
102167
102165
102164
102163
102161
102160
102159
102158
102157
102156
102156
102155
102154
102153
102153
102152
102151
102151
102150
102150
102149
102149
102148
102148
102148
102147
102147
102147
102147
102147
102146
102146
102146
102146
102146
102146
102110
102110
102110
102110
102110
102110
102110
102110
102110
102110
102110
102110
102110
102110
102110
102110
102110
102110
102110
102110
102110
102110
102110
102110
102110
102110
102110
102110
102110
102110
102110
102110
102110
102110
102110
102110
102110
102110
102110
102110
102110
102110
102110
102111
102111
102110
102110
102109
102107
102106
102104
102103
102102
102101
102100
102099
102098
102097
102096
102095
102094
102094
102093
102092
102092
102091
102091
102090
102090
102089
102089
102089
102088
102088
102088
102088
102087
102087
102087
102087
102087
102087
102087
102087
102050
102050
102050
102050
102050
102050
102050
102050
102050
102050
102050
102050
102050
102050
102050
102050
102050
102050
102050
102050
102050
102050
102050
102050
102050
102050
102050
102050
102050
102050
102050
102050
102050
102050
102050
102050
102050
102050
102050
102050
102050
102050
102050
102050
102050
102050
102050
102049
102048
102046
102045
102044
102042
102041
102040
102039
102038
102037
102037
102036
102035
102034
102034
102033
102032
102032
102031
102031
102030
102030
102030
102029
102029
102029
102028
102028
102028
102028
102028
102028
102027
102027
102027
102027
101989
101989
101989
101989
101989
101989
101989
101989
101989
101989
101989
101989
101989
101989
101989
101989
101989
101989
101989
101989
101989
101989
101989
101989
101989
101989
101989
101989
101989
101989
101989
101989
101989
101989
101989
101989
101989
101989
101989
101989
101989
101989
101990
101990
101990
101990
101990
101990
101988
101987
101985
101984
101983
101982
101981
101980
101979
101978
101977
101976
101975
101975
101974
101974
101973
101972
101972
101971
101971
101971
101970
101970
101970
101969
101969
101969
101969
101968
101968
101968
101968
101968
101968
101968
101929
101929
101929
101929
101929
101929
101929
101929
101929
101929
101929
101929
101929
101929
101929
101929
101929
101929
101929
101929
101929
101929
101929
101929
101929
101929
101929
101929
101929
101929
101929
101929
101929
101929
101929
101929
101929
101929
101929
101929
101929
101929
101929
101929
101929
101929
101929
101929
101928
101927
101926
101924
101923
101922
101921
101920
101919
101918
101917
101917
101916
101915
101915
101914
101913
101913
101912
101912
101911
101911
101911
101910
101910
101910
101910
101909
101909
101909
101909
101909
101909
101908
101908
101908
101868
101868
101868
101868
101868
101868
101868
101868
101868
101868
101868
101868
101868
101868
101868
101868
101868
101868
101868
101868
101868
101868
101868
101868
101868
101868
101868
101868
101868
101868
101868
101868
101868
101868
101868
101868
101868
101868
101868
101868
101869
101869
101869
101869
101869
101869
101869
101869
101869
101867
101866
101865
101863
101862
101861
101860
101859
101859
101858
101857
101856
101856
101855
101854
101854
101853
101853
101852
101852
101852
101851
101851
101851
101850
101850
101850
101850
101849
101849
101849
101849
101849
101849
101849
101808
101808
101808
101808
101808
101808
101808
101808
101808
101808
101808
101808
101808
101808
101808
101808
101808
101808
101808
101808
101808
101808
101808
101808
101808
101808
101808
101808
101808
101808
101808
101808
101808
101808
101808
101808
101808
101808
101808
101808
101808
101808
101808
101808
101808
101808
101808
101808
101808
101807
101806
101805
101804
101803
101802
101801
101800
101799
101798
101797
101797
101796
101795
101795
101794
101794
101793
101793
101792
101792
101792
101791
101791
101791
101791
101790
101790
101790
101790
101790
101790
101790
101790
101789
101748
101748
101748
101748
101747
101747
101747
101747
101747
101747
101747
101747
101747
101747
101747
101747
101747
101747
101747
101747
101747
101747
101747
101747
101747
101747
101747
101747
101747
101747
101747
101747
101748
101748
101748
101748
101748
101748
101748
101748
101748
101748
101748
101748
101748
101748
101748
101748
101748
101747
101746
101745
101744
101743
101742
101741
101740
101739
101738
101738
101737
101736
101736
101735
101735
101734
101734
101733
101733
101732
101732
101732
101732
101731
101731
101731
101731
101730
101730
101730
101730
101730
101730
101730
101687
101687
101687
101687
101687
101687
101687
101687
101687
101687
101687
101687
101687
101687
101687
101687
101687
101687
101687
101687
101687
101687
101687
101687
101687
101687
101687
101687
101687
101687
101687
101687
101687
101687
101687
101687
101687
101687
101687
101687
101687
101687
101687
101687
101687
101687
101687
101687
101687
101687
101686
101685
101684
101683
101682
101681
101680
101679
101679
101678
101677
101677
101676
101676
101675
101675
101674
101674
101673
101673
101673
101672
101672
101672
101671
101671
101671
101671
101671
101671
101671
101671
101671
101670
101627
101627
101627
101627
101627
101627
101627
101627
101627
101627
101627
101627
101627
101627
101627
101627
101627
101627
101627
101627
101627
101627
101627
101627
101627
101627
101627
101627
101627
101627
101627
101627
101627
101627
101627
101627
101627
101627
101627
101627
101627
101627
101627
101627
101627
101627
101627
101627
101627
101627
101626
101625
101624
101623
101622
101621
101620
101620
101619
101618
101618
101617
101616
101616
101615
101615
101614
101614
101614
101613
101613
101613
101612
101612
101612
101612
101612
101611
101611
101611
101611
101611
101611
101611
101566
101566
101566
101566
101566
101566
101566
101566
101566
101566
101566
101566
101566
101566
101566
101566
101566
101566
101566
101566
101566
101566
101566
101566
101566
101566
101566
101566
101566
101566
101566
101566
101566
101566
101566
101566
101566
101566
101566
101566
101566
101566
101566
101566
101567
101567
101567
101567
101567
101567
101566
101565
101564
101563
101562
101561
101561
101560
101559
101558
101558
101557
101557
101556
101556
101555
101555
101554
101554
101554
101553
101553
101553
101553
101552
101552
101552
101552
101552
101552
101552
101551
101551
101551
101506
101506
101506
101506
101506
101506
101506
101506
101506
101506
101506
101506
101506
101506
101506
101506
101506
101506
101506
101506
101506
101506
101506
101506
101506
101506
101506
101506
101506
101506
101506
101506
101506
101506
101506
101506
101506
101506
101506
101506
101506
101506
101506
101506
101506
101506
101506
101506
101506
101506
101506
101505
101504
101503
101502
101501
101501
101500
101499
101499
101498
101497
101497
101496
101496
101495
101495
101495
101494
101494
101494
101493
101493
101493
101493
101493
101492
101492
101492
101492
101492
101492
101492
101492
101445
101445
101445
101445
101445
101445
101445
101445
101445
101445
101445
101445
101445
101445
101445
101445
101445
101445
101445
101445
101445
101445
101445
101445
101445
101445
101445
101445
101445
101445
101445
101445
101445
101445
101445
101445
101445
101445
101446
101446
101446
101446
101446
101446
101446
101446
101446
101446
101446
101446
101446
101445
101444
101443
101442
101442
101441
101440
101439
101439
101438
101438
101437
101437
101436
101436
101435
101435
101435
101434
101434
101434
101434
101433
101433
101433
101433
101433
101433
101432
101432
101432
101432
101432
101385
101385
101385
101385
101385
101385
101385
101385
101385
101385
101385
101385
101385
101385
101385
101385
101385
101385
101385
101385
101385
101385
101385
101385
101385
101385
101385
101385
101385
101385
101385
101385
101385
101385
101385
101385
101385
101385
101385
101385
101385
101385
101385
101385
101385
101385
101385
101385
101385
101385
101385
101385
101384
101383
101382
101382
101381
101380
101380
101379
101378
101378
101377
101377
101376
101376
101376
101375
101375
101375
101374
101374
101374
101374
101373
101373
101373
101373
101373
101373
101373
101373
101373
101373
101325
101325
101325
101325
101325
101325
101324
101324
101324
101324
101324
101324
101325
101325
101325
101325
101325
101325
101325
101325
101325
101325
101325
101325
101325
101325
101325
101325
101325
101325
101325
101325
101325
101325
101325
101325
101325
101325
101325
101325
101325
101325
101325
101325
101325
101325
101325
101325
101325
101325
101325
101325
101324
101323
101322
101322
101321
101320
101320
101319
101318
101318
101317
101317
101317
101316
101316
101316
101315
101315
101315
101314
101314
101314
101314
101314
101313
101313
101313
101313
101313
101313
101313
101313
101264
101264
101264
101264
101264
101264
101264
101264
101264
101264
101264
101264
101264
101264
101264
101264
101264
101264
101264
101264
101264
101264
101264
101264
101264
101264
101264
101264
101264
101264
101264
101264
101264
101264
101264
101264
101264
101264
101264
101264
101264
101264
101264
101264
101264
101264
101264
101264
101264
101264
101265
101265
101264
101263
101262
101262
101261
101260
101260
101259
101259
101258
101258
101257
101257
101256
101256
101256
101255
101255
101255
101255
101254
101254
101254
101254
101254
101254
101254
101254
101253
101253
101253
101253
101204
101204
101204
101204
101204
101204
101204
101204
101204
101204
101204
101204
101204
101204
101204
101204
101204
101204
101204
101204
101204
101204
101204
101204
101204
101204
101204
101204
101204
101204
101204
101204
101204
101204
101204
101204
101204
101204
101204
101204
101204
101204
101204
101204
101204
101204
101204
101204
101204
101204
101205
101204
101204
101203
101202
101202
101201
101200
101200
101199
101199
101198
101198
101197
101197
101197
101196
101196
101196
101195
101195
101195
101195
101195
101194
101194
101194
101194
101194
101194
101194
101194
101194
101194
101143
101143
101143
101143
101143
101143
101143
101143
101143
101143
101143
101143
101143
101143
101143
101143
101143
101143
101143
101143
101143
101143
101143
101143
101143
101143
101143
101143
101143
101143
101143
101143
101143
101143
101143
101143
101143
101143
101143
101143
101143
101143
101143
101143
101143
101144
101144
101144
101144
101144
101144
101144
101143
101143
101142
101141
101141
101140
101140
101139
101139
101138
101138
101137
101137
101137
101136
101136
101136
101136
101135
101135
101135
101135
101135
101135
101134
101134
101134
101134
101134
101134
101134
101134
101083
101083
101083
101083
101083
101083
101083
101083
101083
101083
101083
101083
101083
101083
101083
101083
101083
101083
101083
101083
101083
101083
101083
101083
101083
101083
101083
101083
101083
101083
101083
101083
101083
101083
101083
101083
101083
101083
101083
101083
101083
101083
101083
101083
101083
101083
101083
101083
101083
101084
101084
101084
101083
101083
101082
101081
101081
101080
101080
101079
101079
101078
101078
101078
101077
101077
101077
101076
101076
101076
101076
101075
101075
101075
101075
101075
101075
101075
101075
101074
101074
101074
101074
101074
101023
101023
101023
101023
101023
101023
101022
101022
101022
101022
101022
101022
101022
101022
101022
101022
101022
101022
101022
101022
101022
101022
101022
101022
101022
101022
101022
101022
101022
101022
101022
101022
101022
101022
101022
101022
101022
101022
101022
101022
101022
101023
101023
101023
101023
101023
101023
101023
101023
101023
101023
101023
101023
101022
101022
101021
101021
101020
101020
101019
101019
101018
101018
101018
101017
101017
101017
101016
101016
101016
101016
101016
101015
101015
101015
101015
101015
101015
101015
101015
101015
101015
101015
101015
100962
100962
100962
100962
100962
100962
100962
100962
100962
100962
100962
100962
100962
100962
100962
100962
100962
100962
100962
100962
100962
100962
100962
100962
100962
100962
100962
100962
100962
100962
100962
100962
100962
100962
100962
100962
100962
100962
100962
100962
100962
100962
100962
100962
100962
100962
100962
100962
100963
100963
100963
100963
100963
100962
100962
100961
100961
100960
100960
100959
100959
100958
100958
100958
100957
100957
100957
100957
100956
100956
100956
100956
100956
100956
100955
100955
100955
100955
100955
100955
100955
100955
100955
100955
100902
100902
100902
100902
100902
100902
100902
100902
100902
100902
100902
100902
100902
100902
100902
100902
100902
100902
100902
100902
100902
100902
100902
100902
100902
100902
100902
100902
100902
100902
100902
100902
100902
100902
100902
100902
100902
100902
100902
100902
100902
100902
100902
100902
100902
100902
100902
100902
100902
100902
100902
100902
100902
100902
100901
100901
100900
100900
100900
100899
100899
100898
100898
100898
100898
100897
100897
100897
100897
100896
100896
100896
100896
100896
100896
100896
100895
100895
100895
100895
100895
100895
100895
100895
100842
100842
100842
100841
100841
100841
100841
100841
100841
100841
100841
100841
100841
100841
100841
100841
100841
100841
100841
100841
100841
100841
100841
100841
100841
100841
100841
100841
100841
100841
100841
100841
100841
100841
100841
100841
100841
100841
100841
100841
100841
100841
100841
100841
100841
100842
100842
100842
100842
100842
100842
100842
100842
100841
100841
100841
100840
100840
100839
100839
100839
100838
100838
100838
100838
100837
100837
100837
100837
100837
100836