/*--------------------------------*- C++ -*----------------------------------*\
  =========                 |
  \\      /  F ield         | OpenFOAM: The Open Source CFD Toolbox
   \\    /   O peration     | Website:  https://openfoam.org
    \\  /    A nd           | Version:  6
     \\/     M anipulation  |
\*---------------------------------------------------------------------------*/
FoamFile
{
    version     2.0;
    format      ascii;
    class       volScalarField;
    location    "930";
    object      T;
}
// * * * * * * * * * * * * * * * * * * * * * * * * * * * * * * * * * * * * * //

dimensions      [0 0 0 1 0 0 0];

internalField   nonuniform List<scalar> 
5964
(
310.587
309.794
309.105
308.54
308.08
307.694
307.362
307.066
306.794
306.536
306.289
306.053
305.828
305.616
305.415
305.224
305.042
304.871
304.711
304.563
304.427
304.304
304.187
304.078
303.982
303.899
303.828
303.766
303.714
303.668
303.628
303.593
303.562
303.535
303.51
303.488
303.469
303.451
303.435
303.421
303.408
303.396
303.386
303.376
303.367
303.358
303.351
303.343
303.336
303.329
303.322
303.314
303.307
303.3
303.292
303.284
303.276
303.267
303.258
303.249
303.239
303.228
303.218
303.206
303.195
303.183
303.17
303.157
303.144
303.13
303.116
303.102
303.088
303.073
303.058
303.043
303.027
303.012
302.997
302.982
302.968
302.955
302.934
302.879
310.582
309.805
309.139
308.585
308.132
307.747
307.415
307.119
306.846
306.588
306.341
306.106
305.882
305.668
305.464
305.268
305.08
304.901
304.732
304.573
304.428
304.297
304.176
304.065
303.969
303.887
303.818
303.758
303.706
303.662
303.623
303.589
303.558
303.531
303.507
303.486
303.466
303.449
303.433
303.419
303.406
303.395
303.384
303.374
303.366
303.357
303.349
303.342
303.335
303.328
303.321
303.314
303.307
303.3
303.292
303.284
303.276
303.267
303.258
303.249
303.239
303.229
303.218
303.207
303.195
303.183
303.17
303.158
303.144
303.131
303.117
303.102
303.088
303.073
303.058
303.043
303.027
303.012
302.997
302.982
302.968
302.955
302.943
302.926
310.6
309.847
309.194
308.646
308.192
307.808
307.481
307.19
306.924
306.671
306.428
306.196
305.973
305.759
305.552
305.349
305.15
304.956
304.769
304.592
304.428
304.281
304.151
304.038
303.943
303.864
303.797
303.741
303.692
303.649
303.612
303.579
303.55
303.524
303.501
303.48
303.461
303.444
303.429
303.415
303.402
303.391
303.381
303.372
303.363
303.355
303.347
303.34
303.333
303.327
303.32
303.313
303.306
303.299
303.292
303.284
303.276
303.268
303.259
303.249
303.239
303.229
303.218
303.207
303.196
303.184
303.171
303.158
303.145
303.131
303.117
303.103
303.088
303.074
303.058
303.043
303.028
303.012
302.997
302.981
302.967
302.954
302.944
302.937
310.618
309.891
309.25
308.704
308.245
307.859
307.532
307.246
306.985
306.741
306.51
306.29
306.076
305.866
305.658
305.448
305.235
305.021
304.811
304.61
304.42
304.251
304.108
303.993
303.902
303.829
303.768
303.715
303.67
303.631
303.597
303.566
303.539
303.514
303.492
303.471
303.453
303.437
303.422
303.409
303.397
303.386
303.376
303.367
303.359
303.352
303.344
303.338
303.331
303.325
303.318
303.312
303.305
303.299
303.291
303.284
303.276
303.268
303.259
303.25
303.24
303.23
303.219
303.208
303.196
303.184
303.172
303.159
303.146
303.132
303.118
303.104
303.089
303.074
303.059
303.044
303.028
303.012
302.997
302.981
302.966
302.953
302.941
302.935
310.632
309.928
309.295
308.748
308.284
307.894
307.564
307.277
307.022
306.789
306.571
306.363
306.158
305.952
305.744
305.528
305.306
305.078
304.847
304.62
304.403
304.203
304.038
303.927
303.847
303.782
303.729
303.683
303.643
303.608
303.577
303.549
303.524
303.501
303.48
303.461
303.443
303.428
303.413
303.401
303.389
303.379
303.37
303.362
303.354
303.347
303.34
303.334
303.328
303.322
303.317
303.311
303.304
303.298
303.291
303.284
303.276
303.268
303.26
303.251
303.241
303.231
303.22
303.209
303.198
303.186
303.173
303.16
303.147
303.133
303.119
303.105
303.09
303.075
303.06
303.044
303.029
303.013
302.997
302.981
302.965
302.95
302.936
302.928
310.644
309.957
309.328
308.777
308.309
307.918
307.586
307.299
307.044
306.814
306.602
306.4
306.2
305.999
305.791
305.575
305.348
305.111
304.867
304.62
304.375
304.133
303.916
303.835
303.777
303.727
303.683
303.645
303.611
303.581
303.554
303.529
303.506
303.485
303.465
303.447
303.431
303.416
303.403
303.391
303.38
303.371
303.362
303.355
303.348
303.341
303.336
303.33
303.325
303.319
303.314
303.309
303.303
303.297
303.291
303.284
303.276
303.269
303.26
303.252
303.242
303.232
303.222
303.211
303.199
303.187
303.175
303.162
303.148
303.135
303.121
303.106
303.091
303.076
303.061
303.045
303.029
303.013
302.997
302.981
302.964
302.947
302.931
302.919
310.649
309.971
309.348
308.796
308.324
307.93
307.597
307.308
307.052
306.821
306.608
306.405
306.206
306.006
305.801
305.587
305.36
305.121
304.87
304.61
304.342
304.055
303.679
303.727
303.702
303.665
303.631
303.602
303.575
303.551
303.528
303.507
303.486
303.467
303.449
303.432
303.417
303.403
303.391
303.379
303.37
303.361
303.353
303.346
303.34
303.335
303.33
303.325
303.32
303.316
303.311
303.306
303.301
303.296
303.29
303.284
303.277
303.269
303.261
303.253
303.244
303.234
303.223
303.212
303.201
303.189
303.177
303.164
303.15
303.136
303.122
303.108
303.093
303.078
303.062
303.046
303.03
303.014
302.998
302.981
302.964
302.946
302.928
302.914
310.654
309.983
309.364
308.81
308.33
307.926
307.583
307.287
307.028
306.798
306.586
306.382
306.183
305.983
305.781
305.572
305.351
305.117
304.869
304.605
304.333
304.057
303.79
303.692
303.637
303.602
303.577
303.556
303.537
303.519
303.501
303.483
303.465
303.448
303.431
303.416
303.401
303.388
303.377
303.366
303.357
303.349
303.343
303.337
303.332
303.327
303.323
303.319
303.316
303.312
303.308
303.304
303.3
303.295
303.29
303.284
303.277
303.27
303.263
303.254
303.245
303.236
303.225
303.215
303.203
303.191
303.179
303.166
303.152
303.138
303.124
303.109
303.094
303.079
303.064
303.048
303.032
303.015
302.999
302.982
302.965
302.948
302.931
302.919
310.662
309.999
309.377
308.813
308.316
307.887
307.522
307.214
306.953
306.729
306.527
306.329
306.133
305.936
305.737
305.534
305.322
305.099
304.862
304.609
304.344
304.072
303.814
303.617
303.558
303.533
303.519
303.508
303.498
303.487
303.474
303.459
303.444
303.428
303.413
303.398
303.384
303.372
303.361
303.352
303.344
303.337
303.331
303.326
303.322
303.319
303.316
303.313
303.31
303.308
303.305
303.302
303.298
303.294
303.289
303.284
303.278
303.271
303.264
303.256
303.247
303.238
303.228
303.217
303.206
303.194
303.181
303.168
303.155
303.141
303.126
303.112
303.096
303.081
303.065
303.049
303.033
303.016
303
302.983
302.967
302.951
302.937
302.928
310.66
309.994
309.365
308.788
308.262
307.794
307.398
307.075
306.816
306.604
306.422
306.241
306.056
305.865
305.673
305.479
305.279
305.069
304.845
304.605
304.348
304.077
303.788
303.425
303.452
303.455
303.458
303.461
303.461
303.457
303.448
303.436
303.422
303.408
303.393
303.379
303.366
303.354
303.344
303.336
303.328
303.323
303.318
303.315
303.312
303.31
303.308
303.306
303.305
303.303
303.301
303.299
303.296
303.293
303.289
303.284
303.279
303.273
303.266
303.258
303.25
303.241
303.231
303.22
303.209
303.197
303.184
303.171
303.158
303.143
303.129
303.114
303.099
303.083
303.067
303.051
303.034
303.018
303.001
302.985
302.969
302.954
302.942
302.934
310.655
309.977
309.329
308.721
308.151
307.639
307.21
306.872
306.621
306.428
306.273
306.118
305.95
305.773
305.591
305.408
305.222
305.029
304.823
304.602
304.362
304.103
303.827
303.544
303.375
303.378
303.399
303.417
303.428
303.43
303.425
303.415
303.403
303.388
303.374
303.36
303.347
303.336
303.326
303.318
303.312
303.307
303.304
303.302
303.301
303.3
303.3
303.299
303.299
303.299
303.298
303.297
303.295
303.292
303.289
303.285
303.28
303.275
303.268
303.261
303.253
303.244
303.234
303.223
303.212
303.2
303.188
303.174
303.161
303.147
303.132
303.117
303.101
303.085
303.069
303.053
303.036
303.019
303.002
302.986
302.97
302.955
302.944
302.937
310.645
309.943
309.262
308.611
307.986
307.427
306.967
306.62
306.381
306.216
306.088
305.961
305.817
305.659
305.494
305.325
305.155
304.98
304.795
304.596
304.378
304.137
303.868
303.56
303.149
303.288
303.344
303.38
303.402
303.411
303.408
303.398
303.385
303.37
303.355
303.34
303.327
303.316
303.307
303.299
303.294
303.291
303.289
303.289
303.289
303.29
303.291
303.292
303.293
303.294
303.295
303.294
303.294
303.292
303.29
303.286
303.282
303.277
303.271
303.264
303.256
303.247
303.238
303.227
303.216
303.204
303.191
303.178
303.164
303.15
303.135
303.12
303.104
303.088
303.072
303.055
303.038
303.021
303.004
302.987
302.971
302.956
302.943
302.935
310.631
309.895
309.171
308.468
307.79
307.191
306.706
306.352
306.123
305.983
305.879
305.776
305.659
305.525
305.38
305.231
305.081
304.927
304.764
304.589
304.396
304.18
303.937
303.662
303.357
303.28
303.305
303.355
303.389
303.402
303.398
303.385
303.37
303.353
303.337
303.321
303.307
303.295
303.286
303.279
303.275
303.274
303.273
303.274
303.276
303.279
303.282
303.285
303.287
303.29
303.291
303.293
303.293
303.292
303.291
303.288
303.285
303.28
303.274
303.268
303.26
303.251
303.242
303.231
303.22
303.208
303.196
303.182
303.168
303.154
303.139
303.123
303.107
303.091
303.074
303.057
303.04
303.023
303.005
302.988
302.971
302.954
302.939
302.928
310.61
309.83
309.056
308.297
307.572
306.946
306.452
306.107
305.891
305.765
305.676
305.587
305.49
305.38
305.258
305.131
305.002
304.871
304.732
304.581
304.414
304.226
304.011
303.766
303.486
303.182
303.246
303.343
303.394
303.408
303.398
303.377
303.357
303.338
303.319
303.301
303.286
303.273
303.264
303.258
303.255
303.255
303.257
303.26
303.264
303.268
303.273
303.278
303.282
303.286
303.289
303.291
303.293
303.293
303.292
303.29
303.288
303.283
303.278
303.272
303.265
303.256
303.247
303.236
303.225
303.213
303.2
303.187
303.173
303.158
303.143
303.127
303.111
303.094
303.077
303.06
303.042
303.025
303.007
302.989
302.971
302.952
302.932
302.915
310.584
309.753
308.928
308.12
307.359
306.717
306.227
305.898
305.694
305.575
305.493
305.413
305.33
305.241
305.14
305.033
304.924
304.814
304.698
304.571
304.431
304.273
304.093
303.888
303.656
303.401
303.169
303.37
303.429
303.435
303.408
303.37
303.346
303.325
303.304
303.282
303.264
303.249
303.24
303.235
303.233
303.235
303.239
303.245
303.251
303.258
303.264
303.271
303.277
303.282
303.287
303.291
303.293
303.294
303.295
303.294
303.291
303.288
303.283
303.277
303.27
303.261
303.252
303.242
303.231
303.218
303.205
303.192
303.177
303.162
303.147
303.131
303.114
303.097
303.08
303.063
303.045
303.027
303.009
302.99
302.971
302.95
302.926
302.906
310.56
309.68
308.803
307.948
307.163
306.525
306.052
305.739
305.546
305.428
305.347
305.273
305.2
305.124
305.039
304.95
304.859
304.766
304.669
304.565
304.45
304.323
304.179
304.02
303.847
303.671
303.508
303.519
303.507
303.489
303.428
303.354
303.334
303.317
303.29
303.264
303.24
303.223
303.213
303.209
303.21
303.214
303.221
303.23
303.238
303.248
303.257
303.265
303.273
303.28
303.286
303.291
303.295
303.297
303.298
303.298
303.296
303.293
303.288
303.283
303.276
303.268
303.258
303.248
303.237
303.224
303.211
303.197
303.183
303.167
303.152
303.135
303.118
303.101
303.084
303.066
303.047
303.029
303.011
302.992
302.973
302.952
302.931
302.913
310.539
309.615
308.696
307.81
307.019
306.39
305.936
305.639
305.455
305.339
305.258
305.189
305.123
305.057
304.988
304.917
304.844
304.768
304.688
304.603
304.509
304.407
304.294
304.175
304.049
303.921
303.795
303.663
303.58
303.576
303.46
303.292
303.323
303.321
303.281
303.247
303.214
303.194
303.184
303.182
303.185
303.193
303.203
303.215
303.227
303.238
303.25
303.26
303.27
303.279
303.286
303.293
303.297
303.301
303.303
303.303
303.302
303.299
303.295
303.289
303.282
303.274
303.265
303.255
303.243
303.231
303.217
303.203
303.188
303.173
303.157
303.14
303.123
303.105
303.087
303.069
303.05
303.031
303.012
302.993
302.974
302.955
302.937
302.924
310.522
309.564
308.613
307.71
306.92
306.304
305.87
305.588
305.414
305.304
305.227
305.165
305.11
305.056
305.002
304.948
304.892
304.833
304.77
304.703
304.628
304.549
304.458
304.368
304.273
304.174
304.07
303.963
303.863
303.752
303.535
303.071
303.347
303.363
303.268
303.234
303.181
303.158
303.152
303.151
303.158
303.17
303.185
303.201
303.216
303.231
303.244
303.257
303.269
303.279
303.288
303.296
303.302
303.306
303.308
303.309
303.309
303.306
303.302
303.297
303.29
303.282
303.273
303.262
303.25
303.238
303.224
303.21
303.195
303.179
303.162
303.145
303.128
303.11
303.091
303.072
303.053
303.034
303.015
302.995
302.975
302.956
302.939
302.928
310.508
309.522
308.553
307.648
306.866
306.262
305.843
305.576
305.413
305.313
305.245
305.193
305.149
305.109
305.07
305.031
304.992
304.95
304.904
304.854
304.799
304.739
304.671
304.601
304.527
304.446
304.355
304.257
304.15
304.017
303.823
303.575
303.607
303.502
303.206
303.237
303.128
303.114
303.118
303.117
303.128
303.147
303.168
303.189
303.208
303.225
303.241
303.256
303.27
303.282
303.292
303.301
303.308
303.313
303.316
303.317
303.317
303.315
303.311
303.306
303.299
303.291
303.281
303.27
303.258
303.246
303.232
303.217
303.201
303.185
303.168
303.151
303.133
303.114
303.095
303.076
303.057
303.037
303.017
302.996
302.975
302.955
302.937
302.927
310.495
309.487
308.503
307.595
306.827
306.245
305.847
305.596
305.446
305.356
305.299
305.259
305.227
305.199
305.174
305.149
305.124
305.098
305.069
305.036
304.999
304.958
304.911
304.858
304.801
304.737
304.662
304.574
304.477
304.36
304.214
304.066
303.964
303.801
303.571
303.364
303.002
303.061
303.094
303.078
303.093
303.125
303.155
303.181
303.202
303.222
303.241
303.258
303.273
303.287
303.298
303.308
303.316
303.321
303.325
303.327
303.326
303.325
303.321
303.315
303.309
303.3
303.29
303.279
303.267
303.254
303.24
303.224
303.209
303.192
303.174
303.156
303.138
303.119
303.1
303.08
303.06
303.04
303.019
302.998
302.976
302.954
302.936
302.924
310.485
309.46
308.47
307.57
306.819
306.256
305.877
305.642
305.504
305.425
305.379
305.35
305.329
305.313
305.3
305.285
305.273
305.261
305.246
305.23
305.209
305.184
305.157
305.122
305.083
305.039
304.981
304.914
304.837
304.742
304.627
304.503
304.363
304.18
303.959
303.688
303.343
303.043
303.12
303.017
303.049
303.106
303.149
303.178
303.202
303.223
303.243
303.262
303.279
303.295
303.307
303.318
303.326
303.332
303.336
303.338
303.338
303.336
303.332
303.327
303.319
303.311
303.301
303.289
303.277
303.263
303.248
303.233
303.216
303.199
303.181
303.163
303.144
303.124
303.104
303.084
303.064
303.043
303.022
303
302.977
302.955
302.935
302.923
310.48
309.454
308.475
307.591
306.855
306.303
305.934
305.71
305.582
305.514
305.478
305.457
305.445
305.439
305.434
305.429
305.427
305.424
305.421
305.42
305.414
305.402
305.393
305.376
305.358
305.335
305.299
305.256
305.204
305.131
305.042
304.931
304.788
304.6
304.376
304.114
303.825
303.509
303.311
302.855
302.991
303.104
303.158
303.185
303.206
303.228
303.25
303.271
303.29
303.306
303.32
303.331
303.34
303.346
303.35
303.351
303.351
303.349
303.345
303.339
303.331
303.322
303.312
303.3
303.287
303.273
303.258
303.241
303.224
303.207
303.188
303.169
303.15
303.13
303.109
303.089
303.068
303.046
303.024
303.002
302.979
302.956
302.936
302.925
310.481
309.46
308.494
307.625
306.904
306.369
306.013
305.798
305.677
305.616
305.588
305.575
305.57
305.569
305.571
305.573
305.576
305.58
305.585
305.594
305.601
305.6
305.609
305.61
305.61
305.61
305.595
305.578
305.55
305.503
305.439
305.345
305.214
305.041
304.833
304.6
304.337
304.043
303.725
303.323
302.982
303.163
303.194
303.2
303.213
303.236
303.261
303.284
303.305
303.322
303.336
303.348
303.356
303.362
303.366
303.367
303.366
303.364
303.359
303.353
303.345
303.335
303.324
303.312
303.298
303.283
303.268
303.251
303.233
303.215
303.196
303.176
303.156
303.136
303.115
303.093
303.072
303.05
303.027
303.004
302.981
302.958
302.939
302.928
310.484
309.471
308.516
307.662
306.959
306.441
306.101
305.897
305.784
305.729
305.707
305.699
305.699
305.702
305.707
305.713
305.719
305.726
305.734
305.748
305.764
305.775
305.796
305.812
305.829
305.847
305.856
305.861
305.858
305.836
305.797
305.725
305.62
305.474
305.298
305.091
304.847
304.558
304.226
303.878
303.516
303.361
303.257
303.215
303.218
303.246
303.277
303.304
303.326
303.344
303.358
303.368
303.376
303.381
303.384
303.385
303.384
303.38
303.375
303.368
303.359
303.349
303.337
303.324
303.31
303.295
303.278
303.261
303.242
303.224
303.204
303.184
303.163
303.142
303.12
303.098
303.076
303.053
303.03
303.006
302.983
302.961
302.943
302.932
310.482
309.466
308.515
307.68
307.01
306.524
306.202
306.006
305.898
305.848
305.831
305.829
305.833
305.84
305.845
305.85
305.857
305.863
305.871
305.886
305.906
305.924
305.951
305.979
306.009
306.041
306.071
306.095
306.113
306.115
306.104
306.057
305.987
305.875
305.737
305.555
305.335
305.068
304.756
304.414
304.056
303.714
303.273
303.198
303.208
303.258
303.302
303.334
303.356
303.372
303.384
303.393
303.4
303.404
303.406
303.406
303.403
303.399
303.393
303.385
303.375
303.364
303.352
303.338
303.323
303.307
303.289
303.271
303.252
303.233
303.212
303.191
303.17
303.148
303.126
303.103
303.08
303.057
303.033
303.009
302.985
302.963
302.945
302.935
310.485
309.482
308.551
307.739
307.09
306.621
306.311
306.121
306.017
305.97
305.957
305.963
305.972
305.983
305.988
305.991
305.995
305.997
306.002
306.014
306.032
306.053
306.082
306.115
306.152
306.195
306.238
306.278
306.315
306.338
306.352
306.335
306.302
306.225
306.124
305.975
305.786
305.549
305.258
304.916
304.558
304.148
303.648
303.134
303.177
303.284
303.347
303.379
303.396
303.408
303.416
303.423
303.427
303.43
303.43
303.429
303.425
303.42
303.412
303.403
303.393
303.381
303.367
303.352
303.336
303.319
303.301
303.282
303.263
303.242
303.221
303.199
303.177
303.155
303.132
303.109
303.085
303.061
303.036
303.012
302.987
302.965
302.947
302.937
310.494
309.508
308.597
307.807
307.179
306.725
306.423
306.236
306.137
306.094
306.086
306.098
306.115
306.129
306.135
306.136
306.137
306.136
306.135
306.14
306.151
306.169
306.196
306.229
306.268
306.315
306.366
306.417
306.468
306.51
306.544
306.555
306.554
306.513
306.449
306.339
306.187
305.982
305.719
305.401
305.049
304.622
304.131
303.596
303.123
303.362
303.427
303.444
303.449
303.452
303.455
303.457
303.459
303.459
303.458
303.454
303.449
303.442
303.434
303.423
303.412
303.398
303.384
303.368
303.351
303.333
303.314
303.294
303.273
303.252
303.23
303.208
303.185
303.162
303.138
303.114
303.09
303.065
303.04
303.015
302.99
302.967
302.948
302.936
310.505
309.542
308.654
307.886
307.275
306.833
306.537
306.356
306.26
306.22
306.215
306.232
306.256
306.276
306.285
306.286
306.284
306.279
306.273
306.27
306.273
306.283
306.303
306.33
306.366
306.412
306.464
306.521
306.58
306.636
306.689
306.724
306.747
306.743
306.713
306.644
306.529
306.36
306.136
305.852
305.514
305.104
304.644
304.165
303.728
303.612
303.563
303.531
303.512
303.502
303.498
303.496
303.494
303.492
303.488
303.483
303.476
303.467
303.457
303.445
303.432
303.417
303.401
303.384
303.366
303.347
303.327
303.306
303.285
303.262
303.24
303.216
303.193
303.169
303.144
303.12
303.095
303.069
303.044
303.018
302.992
302.968
302.946
302.931
310.516
309.578
308.714
307.966
307.372
306.942
306.654
306.478
306.384
306.347
306.345
306.366
306.394
306.42
306.434
306.437
306.434
306.426
306.415
306.406
306.401
306.403
306.413
306.431
306.459
306.498
306.546
306.602
306.665
306.729
306.793
306.848
306.893
306.917
306.919
306.887
306.811
306.684
306.502
306.253
305.938
305.554
305.118
304.655
304.202
303.782
303.694
303.62
303.579
303.557
303.546
303.539
303.534
303.528
303.522
303.514
303.505
303.494
303.482
303.468
303.453
303.437
303.42
303.402
303.382
303.362
303.341
303.319
303.296
303.273
303.249
303.225
303.201
303.176
303.151
303.125
303.1
303.074
303.048
303.021
302.995
302.968
302.942
302.922
310.526
309.608
308.77
308.049
307.475
307.057
306.776
306.602
306.509
306.474
306.474
306.498
306.531
306.562
306.58
306.586
306.583
306.573
306.56
306.545
306.534
306.528
306.529
306.538
306.557
306.586
306.626
306.675
306.735
306.801
306.871
306.938
307
307.048
307.075
307.076
307.037
306.949
306.807
306.597
306.313
305.955
305.533
305.065
304.58
304.128
303.815
303.697
303.641
303.612
303.596
303.585
303.576
303.568
303.558
303.548
303.536
303.523
303.508
303.493
303.476
303.458
303.439
303.42
303.399
303.377
303.355
303.332
303.308
303.284
303.26
303.235
303.209
303.183
303.157
303.131
303.105
303.078
303.052
303.025
302.998
302.969
302.94
302.916
310.539
309.65
308.841
308.145
307.588
307.179
306.901
306.728
306.634
306.6
306.602
306.629
306.665
306.699
306.721
306.73
306.728
306.718
306.703
306.686
306.67
306.658
306.652
306.653
306.662
306.681
306.711
306.752
306.803
306.864
306.934
307.007
307.079
307.144
307.194
307.22
307.214
307.164
307.06
306.888
306.639
306.312
305.911
305.444
304.926
304.363
303.773
303.737
303.694
303.668
303.649
303.635
303.622
303.61
303.597
303.584
303.569
303.553
303.537
303.519
303.5
303.481
303.46
303.439
303.416
303.394
303.37
303.346
303.321
303.296
303.27
303.244
303.218
303.191
303.164
303.137
303.11
303.083
303.056
303.029
303.002
302.974
302.947
302.926
310.554
309.691
308.907
308.237
307.7
307.3
307.025
306.852
306.758
306.724
306.728
306.756
306.795
306.831
306.855
306.867
306.868
306.86
306.844
306.826
306.807
306.79
306.778
306.772
306.774
306.784
306.805
306.836
306.878
306.93
306.994
307.067
307.144
307.219
307.285
307.333
307.353
307.337
307.267
307.131
306.919
306.624
306.246
305.792
305.276
304.718
304.176
303.803
303.746
303.725
303.706
303.688
303.672
303.655
303.639
303.622
303.604
303.586
303.567
303.546
303.526
303.504
303.481
303.458
303.435
303.41
303.385
303.36
303.334
303.307
303.281
303.254
303.226
303.199
303.171
303.143
303.115
303.088
303.06
303.033
303.006
302.979
302.954
302.933
310.566
309.731
308.974
308.329
307.81
307.421
307.149
306.976
306.881
306.847
306.851
306.881
306.922
306.958
306.984
306.999
307.002
306.995
306.981
306.962
306.942
306.923
306.907
306.896
306.892
306.894
306.906
306.928
306.96
307.004
307.06
307.127
307.203
307.283
307.359
307.423
307.465
307.474
307.436
307.336
307.161
306.899
306.55
306.119
305.618
305.055
304.429
303.605
303.778
303.787
303.767
303.745
303.723
303.703
303.683
303.662
303.641
303.62
303.598
303.575
303.552
303.528
303.504
303.479
303.453
303.427
303.401
303.374
303.347
303.319
303.292
303.263
303.235
303.207
303.178
303.149
303.121
303.092
303.064
303.036
303.009
302.982
302.952
302.922
310.579
309.77
309.042
308.422
307.921
307.54
307.271
307.098
307.002
306.967
306.972
307.004
307.045
307.081
307.109
307.125
307.129
307.124
307.112
307.094
307.074
307.054
307.036
307.022
307.013
307.009
307.014
307.028
307.052
307.086
307.134
307.194
307.265
307.344
307.425
307.499
307.557
307.587
307.576
307.508
307.367
307.14
306.823
306.421
305.943
305.397
304.796
304.206
303.971
303.879
303.834
303.803
303.777
303.752
303.728
303.704
303.679
303.655
303.63
303.605
303.579
303.553
303.526
303.5
303.472
303.445
303.417
303.389
303.36
303.331
303.303
303.273
303.244
303.215
303.185
303.156
303.126
303.097
303.068
303.04
303.012
302.982
302.945
302.902
310.592
309.81
309.11
308.514
308.031
307.659
307.393
307.218
307.121
307.084
307.089
307.124
307.163
307.2
307.228
307.245
307.252
307.249
307.238
307.222
307.203
307.183
307.164
307.148
307.135
307.128
307.127
307.134
307.15
307.177
307.216
307.268
307.334
307.41
307.491
307.571
307.639
307.685
307.695
307.655
307.543
307.347
307.063
306.697
306.248
305.721
305.125
304.516
304.023
303.93
303.892
303.86
303.83
303.802
303.774
303.746
303.718
303.691
303.663
303.635
303.607
303.578
303.55
303.521
303.492
303.463
303.433
303.404
303.374
303.344
303.314
303.283
303.253
303.223
303.192
303.162
303.131
303.102
303.072
303.043
303.015
302.987
302.957
302.928
310.605
309.851
309.178
308.607
308.141
307.777
307.512
307.336
307.237
307.199
307.204
307.239
307.277
307.314
307.343
307.362
307.37
307.369
307.36
307.345
307.328
307.309
307.29
307.273
307.259
307.248
307.243
307.245
307.255
307.274
307.306
307.351
307.41
307.481
307.561
307.642
307.717
307.774
307.8
307.781
307.698
307.535
307.289
306.952
306.521
306
305.392
304.692
303.718
303.933
303.943
303.915
303.883
303.851
303.82
303.789
303.758
303.727
303.696
303.666
303.635
303.604
303.573
303.542
303.511
303.481
303.45
303.418
303.387
303.356
303.325
303.293
303.262
303.231
303.199
303.168
303.137
303.106
303.076
303.046
303.018
302.99
302.965
302.947
310.62
309.893
309.248
308.701
308.251
307.894
307.629
307.451
307.349
307.311
307.315
307.349
307.387
307.424
307.454
307.474
307.485
307.485
307.478
307.465
307.449
307.431
307.413
307.396
307.381
307.369
307.361
307.359
307.364
307.377
307.403
307.442
307.494
307.56
307.636
307.717
307.795
307.859
307.897
307.897
307.838
307.706
307.489
307.18
306.775
306.276
305.692
305.039
304.389
304.127
304.026
303.974
303.935
303.9
303.866
303.832
303.798
303.764
303.73
303.696
303.663
303.63
303.597
303.564
303.531
303.499
303.466
303.433
303.401
303.368
303.336
303.303
303.271
303.239
303.206
303.174
303.142
303.111
303.079
303.049
303.019
302.99
302.964
302.946
310.635
309.938
309.32
308.796
308.36
308.008
307.742
307.562
307.459
307.419
307.424
307.455
307.493
307.53
307.561
307.583
307.596
307.599
307.593
307.582
307.568
307.551
307.533
307.516
307.501
307.488
307.479
307.474
307.476
307.485
307.505
307.538
307.585
307.646
307.718
307.797
307.876
307.944
307.991
308.004
307.966
307.858
307.668
307.384
307.001
306.521
305.955
305.318
304.668
304.165
304.064
304.021
303.984
303.947
303.911
303.874
303.837
303.8
303.764
303.727
303.691
303.656
303.621
303.586
303.551
303.517
303.482
303.448
303.414
303.381
303.347
303.313
303.28
303.247
303.213
303.18
303.147
303.115
303.083
303.051
303.019
302.987
302.956
302.933
310.65
309.984
309.393
308.889
308.466
308.119
307.853
307.671
307.565
307.523
307.528
307.557
307.595
307.633
307.665
307.689
307.704
307.709
307.706
307.697
307.684
307.668
307.651
307.635
307.62
307.606
307.596
307.59
307.589
307.596
307.612
307.64
307.683
307.739
307.807
307.883
307.961
308.03
308.083
308.106
308.085
307.998
307.83
307.57
307.211
306.745
306.182
305.533
304.799
303.854
304.055
304.062
304.03
303.993
303.954
303.915
303.876
303.836
303.797
303.758
303.719
303.681
303.644
303.607
303.57
303.534
303.498
303.463
303.428
303.393
303.358
303.323
303.289
303.254
303.22
303.186
303.153
303.119
303.086
303.053
303.019
302.984
302.948
302.922
310.666
310.031
309.468
308.983
308.571
308.228
307.961
307.776
307.667
307.623
307.629
307.656
307.694
307.733
307.767
307.793
307.809
307.817
307.816
307.808
307.797
307.782
307.767
307.751
307.736
307.723
307.712
307.705
307.703
307.708
307.721
307.747
307.785
307.837
307.901
307.974
308.05
308.12
308.176
308.207
308.198
308.13
307.984
307.75
307.412
306.965
306.418
305.787
305.089
304.402
304.227
304.134
304.079
304.037
303.997
303.956
303.914
303.872
303.83
303.788
303.747
303.706
303.667
303.628
303.589
303.552
303.514
303.477
303.441
303.405
303.369
303.333
303.297
303.262
303.227
303.192
303.158
303.123
303.089
303.055
303.02
302.984
302.949
302.924
310.683
310.081
309.544
309.078
308.676
308.335
308.067
307.878
307.765
307.718
307.724
307.751
307.789
307.829
307.865
307.893
307.912
307.922
307.923
307.918
307.908
307.895
307.88
307.865
307.851
307.837
307.826
307.819
307.816
307.821
307.833
307.856
307.892
307.94
308
308.07
308.144
308.213
308.271
308.308
308.309
308.256
308.13
307.917
307.603
307.176
306.639
306.012
305.334
304.704
304.307
304.167
304.114
304.076
304.037
303.995
303.951
303.906
303.861
303.817
303.773
303.731
303.689
303.648
303.608
303.568
303.53
303.491
303.453
303.416
303.379
303.342
303.306
303.27
303.234
303.198
303.163
303.128
303.092
303.057
303.021
302.985
302.952
302.93
310.703
310.135
309.623
309.172
308.778
308.441
308.17
307.976
307.859
307.809
307.814
307.841
307.881
307.922
307.96
307.99
308.012
308.024
308.028
308.025
308.016
308.005
307.991
307.977
307.963
307.95
307.939
307.932
307.93
307.934
307.946
307.968
308.001
308.047
308.104
308.17
308.241
308.31
308.369
308.409
308.419
308.38
308.275
308.087
307.799
307.395
306.869
306.228
305.501
304.765
304.141
304.119
304.13
304.114
304.079
304.035
303.988
303.94
303.892
303.845
303.799
303.754
303.71
303.667
303.626
303.585
303.544
303.505
303.466
303.427
303.389
303.351
303.314
303.277
303.24
303.204
303.168
303.132
303.095
303.059
303.022
302.986
302.953
302.932
310.723
310.191
309.704
309.27
308.882
308.544
308.269
308.07
307.949
307.896
307.9
307.928
307.969
308.011
308.051
308.085
308.109
308.123
308.13
308.129
308.122
308.112
308.1
308.087
308.074
308.062
308.051
308.045
308.043
308.048
308.06
308.082
308.114
308.158
308.212
308.275
308.342
308.409
308.468
308.511
308.528
308.502
308.416
308.252
307.995
307.626
307.126
306.488
305.713
304.756
303.453
304.042
304.167
304.165
304.126
304.077
304.024
303.972
303.921
303.871
303.822
303.775
303.73
303.686
303.642
303.6
303.558
303.518
303.477
303.438
303.399
303.36
303.322
303.284
303.247
303.209
303.172
303.136
303.099
303.061
303.024
302.987
302.953
302.932
310.743
310.244
309.781
309.359
308.976
308.639
308.363
308.161
308.036
307.98
307.983
308.011
308.053
308.097
308.14
308.176
308.203
308.22
308.228
308.23
308.226
308.217
308.207
308.194
308.182
308.171
308.162
308.157
308.156
308.162
308.175
308.197
308.229
308.271
308.323
308.382
308.446
308.511
308.569
308.614
308.637
308.622
308.552
308.415
308.192
307.862
307.397
306.787
306.043
305.233
304.556
304.393
304.314
304.247
304.182
304.119
304.059
304.002
303.947
303.895
303.844
303.796
303.748
303.703
303.658
303.614
303.572
303.53
303.489
303.448
303.408
303.368
303.329
303.291
303.253
303.215
303.177
303.139
303.102
303.064
303.026
302.988
302.954
302.932
310.761
310.294
309.853
309.443
309.066
308.729
308.451
308.246
308.119
308.06
308.063
308.092
308.136
308.182
308.226
308.264
308.293