0 	2.60628e-27 	0 	2.37996e-11
0.010101 	2.40683e-26 	0 	1.43698e-11
