/*--------------------------------*- C++ -*----------------------------------*\
  =========                 |
  \\      /  F ield         | OpenFOAM: The Open Source CFD Toolbox
   \\    /   O peration     | Website:  https://openfoam.org
    \\  /    A nd           | Version:  6
     \\/     M anipulation  |
\*---------------------------------------------------------------------------*/
FoamFile
{
    version     2.0;
    format      ascii;
    class       volScalarField;
    location    "4400";
    object      T;
}
// * * * * * * * * * * * * * * * * * * * * * * * * * * * * * * * * * * * * * //

dimensions      [0 0 0 1 0 0 0];

internalField   nonuniform List<scalar> 
4800
(
552.499
552.397
552.294
552.189
552.082
551.973
551.863
551.751
551.637
551.523
551.41
551.296
551.185
551.076
550.971
550.871
550.779
550.694
550.617
550.549
550.488
550.434
550.385
550.342
550.302
550.265
550.23
550.196
550.164
550.132
550.101
550.068
550.036
550.003
549.969
549.933
549.896
549.858
549.817
549.775
549.73
549.682
549.631
549.577
549.52
549.459
549.395
549.326
549.252
549.173
549.088
548.999
548.904
548.806
548.705
548.603
548.5
548.397
548.292
548.188
548.083
547.979
547.874
547.77
547.664
547.557
547.449
547.338
547.224
547.107
546.986
546.861
546.731
546.597
546.457
546.311
546.161
546.005
545.845
545.681
545.515
545.348
545.181
545.02
544.869
544.726
544.591
544.46
544.333
544.207
544.084
543.961
543.84
543.719
543.599
543.479
543.359
543.239
543.12
543.001
542.881
542.762
542.643
542.524
542.404
542.285
542.166
542.046
541.927
541.807
541.688
541.568
541.448
541.329
541.209
541.089
540.969
540.85
540.73
540.61
552.499
552.396
552.292
552.187
552.08
551.971
551.86
551.748
551.635
551.521
551.407
551.294
551.183
551.074
550.969
550.87
550.778
550.695
550.62
550.552
550.492
550.439
550.391
550.347
550.308
550.271
550.236
550.203
550.171
550.139
550.108
550.076
550.043
550.01
549.976
549.941
549.903
549.865
549.824
549.781
549.735
549.687
549.635
549.581
549.523
549.462
549.396
549.327
549.252
549.173
549.089
548.999
548.905
548.808
548.707
548.606
548.503
548.399
548.295
548.191
548.087
547.982
547.878
547.773
547.668
547.561
547.452
547.341
547.227
547.11
546.988
546.863
546.732
546.597
546.457
546.311
546.159
546.002
545.841
545.675
545.507
545.338
545.17
545.009
544.859
544.719
544.586
544.457
544.331
544.206
544.083
543.961
543.84
543.719
543.599
543.479
543.359
543.239
543.12
543.001
542.882
542.762
542.643
542.524
542.404
542.285
542.166
542.046
541.927
541.807
541.688
541.568
541.448
541.329
541.209
541.089
540.969
540.85
540.73
540.61
552.498
552.394
552.289
552.183
552.075
551.966
551.855
551.743
551.63
551.517
551.404
551.291
551.18
551.073
550.969
550.871
550.781
550.699
550.625
550.559
550.501
550.449
550.402
550.359
550.32
550.284
550.25
550.217
550.185
550.154
550.122
550.091
550.058
550.025
549.991
549.955
549.918
549.879
549.837
549.794
549.747
549.697
549.645
549.589
549.53
549.468
549.401
549.33
549.255
549.175
549.091
549.002
548.908
548.812
548.713
548.612
548.509
548.406
548.302
548.198
548.094
547.99
547.885
547.78
547.674
547.567
547.458
547.346
547.231
547.113
546.99
546.864
546.732
546.596
546.455
546.308
546.156
545.997
545.833
545.664
545.491
545.318
545.148
544.985
544.839
544.705
544.577
544.451
544.327
544.204
544.081
543.96
543.839
543.718
543.598
543.479
543.359
543.24
543.12
543.001
542.882
542.762
542.643
542.524
542.405
542.285
542.166
542.046
541.927
541.807
541.688
541.568
541.448
541.329
541.209
541.089
540.969
540.85
540.73
540.61
552.497
552.392
552.286
552.178
552.07
551.96
551.849
551.737
551.624
551.511
551.399
551.287
551.177
551.071
550.969
550.874
550.786
550.707
550.635
550.571
550.514
550.464
550.418
550.377
550.339
550.303
550.27
550.238
550.206
550.175
550.144
550.113
550.081
550.048
550.014
549.978
549.941
549.901
549.859
549.814
549.766
549.715
549.661
549.604
549.543
549.479
549.411
549.338
549.262
549.181
549.096
549.008
548.915
548.82
548.722
548.622
548.52
548.417
548.314
548.21
548.105
548.001
547.895
547.789
547.682
547.573
547.462
547.349
547.233
547.113
546.989
546.862
546.73
546.593
546.451
546.303
546.15
545.991
545.825
545.653
545.476
545.296
545.115
544.943
544.807
544.684
544.564
544.443
544.322
544.201
544.08
543.959
543.838
543.718
543.598
543.479
543.359
543.24
543.12
543.001
542.882
542.763
542.643
542.524
542.405
542.286
542.166
542.047
541.927
541.808
541.688
541.568
541.449
541.329
541.209
541.089
540.969
540.85
540.73
540.61
552.497
552.389
552.282
552.173
552.064
551.954
551.842
551.73
551.618
551.506
551.394
551.283
551.175
551.071
550.972
550.879
550.795
550.718
550.649
550.587
550.533
550.484
550.44
550.4
550.363
550.329
550.297
550.265
550.235
550.204
550.174
550.143
550.112
550.079
550.045
550.009
549.971
549.931
549.888
549.842
549.792
549.74
549.684
549.625
549.563
549.496
549.426
549.352
549.274
549.192
549.107
549.019
548.927
548.832
548.735
548.636
548.535
548.433
548.329
548.225
548.12
548.014
547.908
547.799
547.69
547.578
547.465
547.35
547.232
547.11
546.985
546.856
546.723
546.586
546.443
546.296
546.142
545.983
545.817
545.644
545.462
545.271
545.069
544.864
544.76
544.659
544.55
544.435
544.317
544.198
544.078
543.958
543.838
543.718
543.598
543.479
543.359
543.24
543.121
543.002
542.882
542.763
542.644
542.525
542.405
542.286
542.166
542.047
541.927
541.808
541.688
541.568
541.449
541.329
541.209
541.089
540.969
540.85
540.73
540.61
552.496
552.387
552.278
552.168
552.058
551.947
551.836
551.725
551.613
551.501
551.39
551.281
551.174
551.072
550.976
550.887
550.806
550.732
550.667
550.608
550.556
550.509
550.467
550.429
550.393
550.361
550.329
550.299
550.27
550.24
550.211
550.181
550.15
550.118
550.084
550.048
550.01
549.969
549.925
549.878
549.827
549.773
549.716
549.655
549.59
549.522
549.449
549.373
549.294
549.211
549.125
549.036
548.945
548.851
548.754
548.656
548.555
548.453
548.35
548.245
548.139
548.031
547.922
547.811
547.698
547.584
547.467
547.349
547.228
547.105
546.978
546.848
546.714
546.576
546.433
546.286
546.133
545.973
545.808
545.634
545.45
545.249
545.014
544.681
544.707
544.639
544.54
544.429
544.314
544.195
544.076
543.957
543.837
543.717
543.598
543.479
543.359
543.24
543.121
543.002
542.883
542.764
542.644
542.525
542.406
542.286
542.167
542.047
541.928
541.808
541.688
541.569
541.449
541.329
541.209
541.089
540.97
540.85
540.73
540.61
552.495
552.385
552.274
552.163
552.053
551.942
551.831
551.72
551.608
551.498
551.388
551.281
551.176
551.077
550.984
550.899
550.821
550.751
550.688
550.633
550.583
550.539
550.499
550.463
550.429
550.398
550.368
550.34
550.311
550.283
550.255
550.226
550.195
550.163
550.13
550.094
550.056
550.015
549.97
549.922
549.87
549.814
549.755
549.693
549.626
549.555
549.481
549.403
549.322
549.238
549.151
549.062
548.97
548.876
548.78
548.682
548.582
548.48
548.375
548.269
548.161
548.051
547.94
547.826
547.71
547.592
547.472
547.349
547.225
547.098
546.97
546.838
546.703
546.565
546.422
546.274
546.122
545.963
545.799
545.626
545.445
545.254
545.05
544.849
544.747
544.648
544.541
544.428
544.312
544.194
544.075
543.956
543.836
543.717
543.598
543.479
543.36
543.241
543.122
543.002
542.883
542.764
542.645
542.525
542.406
542.287
542.167
542.047
541.928
541.808
541.689
541.569
541.449
541.329
541.209
541.089
540.97
540.85
540.73
540.61
552.494
552.383
552.271
552.16
552.049
551.938
551.827
551.716
551.605
551.495
551.388
551.282
551.181
551.085
550.995
550.914
550.84
550.774
550.715
550.662
550.615
550.574
550.536
550.502
550.47
550.441
550.413
550.386
550.359
550.332
550.305
550.276
550.247
550.216
550.183
550.147
550.109
550.068
550.023
549.974
549.921
549.864
549.804
549.739
549.671
549.599
549.522
549.443
549.36
549.275
549.187
549.096
549.003
548.909
548.813
548.715
548.615
548.512
548.407
548.299
548.189
548.078
547.963
547.847
547.727
547.604
547.479
547.352
547.223
547.093
546.961
546.828
546.692
546.553
546.409
546.262
546.11
545.952
545.789
545.62
545.445
545.265
545.084
544.916
544.783
544.663
544.546
544.429
544.311
544.192
544.074
543.955
543.836
543.717
543.598
543.479
543.36
543.241
543.122
543.003
542.884
542.765
542.645
542.526
542.407
542.287
542.168
542.048
541.928
541.809
541.689
541.569
541.449
541.329
541.209
541.09
540.97
540.85
540.73
540.61
552.494
552.381
552.269
552.158
552.046
551.935
551.824
551.714
551.604
551.496
551.39
551.287
551.188
551.096
551.01
550.933
550.863
550.801
550.745
550.696
550.652
550.613
550.578
550.546
550.517
550.489
550.463
550.438
550.412
550.387
550.361
550.334
550.305
550.275
550.243
550.207
550.169
550.128
550.083
550.033
549.98
549.923
549.861
549.795
549.725
549.651
549.574
549.492
549.408
549.322
549.232
549.14
549.046
548.952
548.855
548.757
548.655
548.552
548.445
548.336
548.224
548.11
547.993
547.873
547.749
547.622
547.492
547.359
547.226
547.091
546.956
546.819
546.682
546.541
546.397
546.249
546.097
545.94
545.779
545.614
545.445
545.273
545.104
544.944
544.802
544.672
544.549
544.429
544.31
544.191
544.073
543.954
543.835
543.717
543.598
543.479
543.361
543.242
543.123
543.004
542.885
542.765
542.646
542.527
542.407
542.288
542.168
542.048
541.929
541.809
541.689
541.569
541.449
541.33
541.21
541.09
540.97
540.85
540.73
540.61
552.494
552.381
552.269
552.157
552.046
551.935
551.824
551.715
551.606
551.499
551.395
551.294
551.199
551.111
551.03
550.957
550.891
550.833
550.781
550.735
550.694
550.658
550.625
550.596
550.569
550.543
550.519
550.495
550.472
550.448
550.423
550.397
550.37
550.341
550.309
550.274
550.236
550.195
550.15
550.101
550.047
549.989
549.926
549.86
549.789
549.714
549.635
549.553
549.467
549.379
549.288
549.194
549.1
549.005
548.907
548.807
548.705
548.599
548.491
548.38
548.267
548.15
548.03
547.905
547.776
547.644
547.51
547.373
547.234
547.095
546.956
546.815
546.674
546.531
546.386
546.237
546.084
545.928
545.769
545.606
545.44
545.274
545.109
544.952
544.805
544.672
544.547
544.426
544.307
544.189
544.071
543.953
543.835
543.717
543.598
543.48
543.361
543.242
543.124
543.005
542.885
542.766
542.647
542.527
542.408
542.288
542.169
542.049
541.929
541.809
541.689
541.57
541.45
541.33
541.21
541.09
540.97
540.85
540.73
540.61
552.494
552.381
552.269
552.158
552.047
551.936
551.826
551.717
551.61
551.505
551.403
551.306
551.215
551.131
551.054
550.985
550.924
550.869
550.821
550.779
550.742
550.708
550.678
550.652
550.627
550.604
550.581
550.559
550.537
550.515
550.492
550.467
550.441
550.413
550.381
550.348
550.31
550.269
550.225
550.175
550.121
550.063
550
549.933
549.862
549.786
549.707
549.623
549.537
549.447
549.355
549.26
549.165
549.069
548.969
548.867
548.763
548.656
548.546
548.433
548.317
548.197
548.073
547.943
547.81
547.673
547.533
547.392
547.249
547.105
546.96
546.815
546.67
546.524
546.376
546.225
546.072
545.916
545.757
545.596
545.432
545.267
545.103
544.943
544.793
544.661
544.538
544.42
544.303
544.187
544.07
543.952
543.835
543.717
543.599
543.48
543.362
543.243
543.124
543.005
542.886
542.767
542.648
542.528
542.409
542.289
542.169
542.049
541.93
541.81
541.69
541.57
541.45
541.33
541.21
541.09
540.97
540.85
540.73
540.61
552.494
552.382
552.271
552.16
552.05
551.94
551.831
551.723
551.618
551.516
551.417
551.323
551.236
551.156
551.084
551.02
550.963
550.912
550.868
550.829
550.795
550.764
550.738
550.713
550.691
550.67
550.65
550.629
550.609
550.588
550.567
550.543
550.518
550.491
550.461
550.427
550.391
550.35
550.306
550.256
550.203
550.145
550.082
550.015
549.943
549.868
549.788
549.705
549.617
549.527
549.433
549.338
549.241
549.143
549.041
548.937
548.83
548.722
548.61
548.494
548.375
548.251
548.122
547.987
547.849
547.707
547.562
547.416
547.268
547.119
546.969
546.819
546.669
546.518
546.367
546.214
546.059
545.903
545.744
545.583
545.42
545.255
545.088
544.921
544.763
544.637
544.523
544.411
544.298
544.183
544.068
543.951
543.834
543.717
543.599
543.481
543.363
543.244
543.125
543.006
542.887
542.768
542.649
542.529
542.409
542.29
542.17
542.05
541.93
541.81
541.69
541.57
541.45
541.33
541.21
541.09
540.97
540.85
540.73
540.61
552.495
552.385
552.275
552.165
552.056
551.948
551.841
551.735
551.632
551.532
551.436
551.347
551.264
551.188
551.12
551.06
551.007
550.961
550.92
550.885
550.854
550.827
550.803
550.782
550.762
550.743
550.724
550.706
550.687
550.668
550.647
550.626
550.602
550.575
550.546
550.513
550.477
550.437
550.393
550.344
550.291
550.233
550.171
550.104
550.033
549.958
549.879
549.795
549.708
549.617
549.523
549.427
549.329
549.228
549.124
549.017
548.908
548.797
548.682
548.563
548.439
548.31
548.176
548.036
547.892
547.745
547.595
547.444
547.291
547.136
546.981
546.825
546.669
546.513
546.358
546.202
546.046
545.888
545.73
545.569
545.407
545.24
545.067
544.884
544.7
544.602
544.506
544.402
544.293
544.18
544.066
543.95
543.834
543.717
543.599
543.481
543.363
543.245
543.126
543.007
542.888
542.769
542.65
542.53
542.41
542.291
542.171
542.051
541.931
541.811
541.691
541.571
541.451
541.331
541.211
541.09
540.97
540.85
540.73
540.61
552.496
552.388
552.281
552.173
552.066
551.96
551.855
551.752
551.651
551.555
551.463
551.377
551.299
551.227
551.164
551.108
551.059
551.017
550.98
550.948
550.921
550.897
550.876
550.857
550.839
550.822
550.805
550.789
550.771
550.753
550.734
550.714
550.691
550.665
550.636
550.605
550.569
550.529
550.485
550.437
550.385
550.328
550.266
550.201
550.13
550.056
549.977
549.894
549.807
549.716
549.622
549.525
549.425
549.322
549.216
549.107
548.996
548.881
548.762
548.638
548.509
548.375
548.234
548.088
547.938
547.785
547.629
547.472
547.313
547.154
546.993
546.831
546.67
546.509
546.349
546.19
546.031
545.873
545.714
545.554
545.392
545.226
545.05
544.847
544.558
544.568
544.495
544.397
544.29
544.178
544.064
543.949
543.833
543.717
543.6
543.482
543.364
543.246
543.127
543.008
542.889
542.77
542.651
542.531
542.411
542.291
542.171
542.052
541.931
541.811
541.691
541.571
541.451
541.331
541.211
541.091
540.971
540.85
540.73
540.61
552.498
552.393
552.289
552.185
552.081
551.977
551.875
551.775
551.678
551.585
551.498
551.416
551.342
551.275
551.215
551.164
551.119
551.08
551.047
551.019
550.995
550.974
550.955
550.939
550.923
550.908
550.893
550.877
550.862
550.845
550.827
550.807
550.785
550.76
550.732
550.7
550.665
550.626
550.582
550.535
550.484
550.428
550.367
550.302
550.233
550.16
550.082
550
549.914
549.823
549.729
549.631
549.53
549.425
549.316
549.205
549.09
548.972
548.848
548.719
548.585
548.444
548.296
548.143
547.987
547.827
547.665
547.501
547.336
547.17
547.003
546.836
546.669
546.503
546.338
546.175
546.014
545.855
545.696
545.537
545.378
545.217
545.055
544.894
544.768
544.624
544.51
544.4
544.289
544.177
544.063
543.948
543.833
543.717
543.6
543.483
543.365
543.247
543.128
543.01
542.89
542.771
542.652
542.532
542.412
542.292
542.172
542.052
541.932
541.812
541.692
541.572
541.451
541.331
541.211
541.091
540.971
540.85
540.73
540.61
552.5
552.4
552.3
552.2
552.1
552.001
551.903
551.807
551.714
551.625
551.542
551.465
551.394
551.331
551.276
551.228
551.188
551.153
551.123
551.098
551.077
551.059
551.043
551.028
551.015
551.001
550.987
550.973
550.958
550.942
550.924
550.905
550.883
550.859
550.831
550.8
550.765
550.726
550.683
550.636
550.586
550.531
550.471
550.408
550.34
550.268
550.192
550.111
550.026
549.936
549.842
549.744
549.641
549.534
549.423
549.309
549.191
549.068
548.94
548.806
548.664
548.515
548.36
548.2
548.037
547.87
547.701
547.53
547.358
547.186
547.013
546.839
546.666
546.495
546.325
546.159
545.995
545.834
545.675
545.518
545.362
545.207
545.055
544.909
544.775
544.642
544.519
544.403
544.289
544.176
544.062
543.947
543.832
543.717
543.6
543.483
543.366
543.248
543.129
543.011
542.892
542.772
542.653
542.533
542.413
542.293
542.173
542.053
541.933
541.813
541.692
541.572
541.452
541.332
541.211
541.091
540.971
540.851
540.73
540.61
552.503
552.41
552.316
552.222
552.127
552.033
551.94
551.848
551.76
551.676
551.597
551.524
551.458
551.399
551.348
551.304
551.267
551.235
551.209
551.187
551.169
551.153
551.139
551.126
551.114
551.101
551.087
551.074
551.059
551.043
551.026
551.007
550.985
550.96
550.933
550.901
550.866
550.828
550.785
550.739
550.689
550.635
550.577
550.515
550.449
550.378
550.304
550.225
550.142
550.053
549.959
549.86
549.756
549.647
549.535
549.419
549.297
549.17
549.036
548.895
548.746
548.589
548.426
548.258
548.087
547.913
547.737
547.56
547.381
547.202
547.022
546.842
546.662
546.485
546.31
546.14
545.974
545.811
545.653
545.497
545.344
545.194
545.048
544.908
544.773
544.643
544.52
544.402
544.287
544.174
544.06
543.946
543.832
543.716
543.6
543.484
543.366
543.249
543.13
543.012
542.893
542.773
542.654
542.534
542.414
542.294
542.174
542.054
541.934
541.813
541.693
541.573
541.452
541.332
541.212
541.091
540.971
540.851
540.73
540.61
552.507
552.422
552.336
552.249
552.161
552.073
551.986
551.9
551.817
551.738
551.664
551.596
551.534
551.479
551.432
551.391
551.358
551.329
551.306
551.287
551.271
551.257
551.245
551.233
551.221
551.208
551.195
551.181
551.166
551.15
551.132
551.112
551.089
551.064
551.035
551.003
550.968
550.929
550.886
550.841
550.791
550.738
550.681
550.62
550.556
550.487
550.415
550.338
550.256
550.168
550.074
549.975
549.871
549.762
549.647
549.528
549.403
549.27
549.13
548.981
548.825
548.661
548.491
548.316
548.138
547.958
547.776
547.592
547.407
547.22
547.033
546.846
546.66
546.477
546.297
546.123
545.953
545.789
545.629
545.475
545.325
545.179
545.036
544.898
544.763
544.633
544.512
544.396
544.283
544.17
544.058
543.945
543.831
543.716
543.6
543.484
543.367
543.249
543.131
543.013
542.894
542.775
542.655
542.535
542.415
542.295
542.175
542.055
541.934
541.814
541.694
541.573
541.453
541.332
541.212
541.092
540.971
540.851
540.731
540.61
552.512
552.436
552.359
552.281
552.202
552.122
552.042
551.963
551.886
551.812
551.744
551.68
551.623
551.573
551.529
551.492
551.462
551.436
551.416
551.399
551.385
551.372
551.361
551.349
551.337
551.323
551.309
551.295
551.278
551.261
551.241
551.219
551.195
551.168
551.138
551.104
551.068
551.028
550.984
550.938
550.889
550.836
550.78
550.72
550.657
550.59
550.52
550.444
550.363
550.276
550.183
550.085
549.981
549.87
549.753
549.631
549.501
549.363
549.216
549.061
548.898
548.727
548.551
548.371
548.189
548.004
547.818
547.629
547.439
547.247
547.053
546.859
546.667
546.476
546.29
546.11
545.936
545.769
545.608
545.454
545.305
545.162
545.022
544.885
544.746
544.613
544.497
544.387
544.277
544.166
544.055
543.943
543.829
543.715
543.6
543.484
543.368
543.25
543.132
543.014
542.895
542.776
542.656
542.536
542.416
542.296
542.176
542.055
541.935
541.815
541.694
541.574
541.453
541.333
541.212
541.092
540.971
540.851
540.731
540.61
552.517
552.452
552.386
552.318
552.249
552.178
552.107
552.036
551.967
551.9
551.837
551.78
551.728
551.681
551.641
551.608
551.58
551.558
551.54
551.525
551.512
551.5
551.489
551.476
551.463
551.448
551.433
551.416
551.398
551.377
551.355
551.33
551.303
551.273
551.24
551.203
551.164
551.122
551.077
551.03
550.979
550.926
550.87
550.81
550.748
550.682
550.611
550.536
550.455
550.369
550.277
550.179
550.075
549.963
549.844
549.719
549.585
549.443
549.291
549.131
548.963
548.788
548.608
548.425
548.241
548.055
547.867
547.676
547.481
547.284
547.085
546.885
546.686
546.488
546.295
546.108
545.929
545.757
545.594
545.438
545.29
545.146
545.006
544.865
544.719
544.571
544.473
544.374
544.27
544.162
544.052
543.94
543.828
543.714
543.6
543.484
543.368
543.251
543.133
543.015
542.896
542.777
542.657
542.537
542.417
542.297
542.177
542.056
541.936
541.815
541.695
541.574
541.454
541.333
541.213
541.092
540.972
540.851
540.731
540.61
552.523
552.469
552.415
552.358
552.3
552.24
552.179
552.118
552.057
551.999
551.943
551.892
551.845
551.803
551.767
551.738
551.713
551.693
551.678
551.664
551.652
551.641
551.629
551.616
551.601
551.585
551.567
551.548
551.526
551.502
551.476
551.447
551.415
551.381
551.343
551.303
551.259
551.214
551.165
551.115
551.062
551.006
550.948
550.887
550.823
550.755
550.683
550.607
550.526
550.439
550.348
550.249
550.145
550.032
549.912
549.784
549.648
549.503
549.349
549.186
549.016
548.841
548.662
548.48
548.297
548.113
547.926
547.735
547.539
547.339
547.135
546.93
546.724
546.519
546.319
546.125
545.939
545.763
545.596
545.438
545.288
545.144
545.001
544.855
544.692
544.477
544.446
544.364
544.264
544.158
544.049
543.938
543.826
543.713
543.599
543.484
543.368
543.251
543.134
543.016
542.897
542.778
542.658
542.538
542.418
542.298
542.177
542.057
541.936
541.816
541.695
541.575
541.454
541.333
541.213
541.092
540.972
540.851
540.731
540.61
552.529
552.486
552.442
552.397
552.351
552.303
552.253
552.203
552.153
552.104
552.057
552.013
551.973
551.937
551.906
551.88
551.859
551.842
551.829
551.818
551.807
551.796
551.784
551.771
551.755
551.736
551.716
551.694
551.669
551.641
551.61
551.575
551.538
551.497
551.453
551.407
551.357
551.305
551.251
551.195
551.137
551.076
551.013
550.947
550.879
550.806
550.73
550.65
550.565
550.477
550.384
550.285
550.179
550.066
549.945
549.817
549.681
549.536
549.383
549.223
549.057
548.886
548.712
548.536
548.359
548.18
547.998
547.81
547.615
547.415
547.209
547
546.79
546.58
546.373
546.173
545.981
545.8
545.629
545.468
545.315
545.167
545.021
544.874
544.721
544.568
544.47
544.37
544.265
544.157
544.047
543.937
543.825
543.713
543.599
543.484
543.368
543.252
543.134
543.016
542.898
542.779
542.659
542.539
542.419
542.299
542.178
542.058
541.937
541.816
541.696
541.575
541.454
541.334
541.213
541.093
540.972
540.851
540.731
540.61
552.532
552.497
552.462
552.427
552.392
552.356
552.319
552.281
552.243
552.205
552.168
552.134
552.102
552.073
552.048
552.028
552.012
551.999
551.99
551.981
551.973
551.964
551.953
551.94
551.924
551.905
551.884
551.859
551.831
551.799
551.763
551.723
551.68
551.632
551.58
551.525
551.467
551.407
551.344
551.279
551.212
551.143
551.071
550.997
550.919
550.837
550.752
550.664
550.573
550.479
550.382
550.28
550.173
550.059
549.939
549.813
549.68
549.54
549.393
549.24
549.082
548.92
548.757
548.592
548.426
548.256
548.082
547.9
547.71
547.513
547.308
547.099
546.888
546.675
546.466
546.262
546.066
545.881
545.706
545.541
545.384
545.229
545.075
544.92
544.768
544.624
544.501
544.384
544.27
544.158
544.047
543.936
543.824
543.712
543.598
543.484
543.368
543.252
543.135
543.017
542.898
542.779
542.66
542.54
542.42
542.3
542.179
542.058
541.938
541.817
541.696
541.576
541.455
541.334
541.213
541.093
540.972
540.851
540.731
540.61
552.532
552.497
552.464
552.434
552.408
552.383
552.359
552.335
552.311
552.286
552.262
552.238
552.217
552.197
552.182
552.169
552.16
552.154
552.15
552.146
552.143
552.137
552.13
552.12
552.107
552.09
552.07
552.046
552.018
551.984
551.945
551.901
551.852
551.797
551.737
551.672
551.604
551.532
551.458
551.382
551.302
551.22
551.135
551.046
550.954
550.859
550.76
550.658
550.554
550.448
550.342
550.233
550.121
550.004
549.883
549.76
549.635
549.504
549.368
549.227
549.083
548.936
548.789
548.64
548.489
548.333
548.17
547.999
547.819
547.628
547.429
547.224
547.016
546.807
546.599
546.396
546.201
546.015
545.838
545.671
545.508
545.344
545.174
545.002
544.836
544.679
544.536
544.405
544.281
544.163
544.049
543.936
543.824
543.711
543.598
543.483
543.368
543.252
543.135
543.018
542.899
542.78
542.661
542.541
542.421
542.3
542.18
542.059
541.938
541.818
541.697
541.576
541.455
541.334
541.214
541.093
540.972
540.852
540.731
540.61
552.525
552.476
552.434
552.401
552.376
552.359
552.346
552.336
552.327
552.318
552.309
552.3
552.292
552.285
552.282
552.281
552.282
552.286
552.291
552.296
552.3
552.302
552.303
552.3
552.294
552.285
552.271
552.253
552.229
552.199
552.161
552.117
552.066
552.006
551.94
551.866
551.787
551.703
551.616
551.525
551.43
551.331
551.228
551.12
551.009
550.894
550.776
550.656
550.533
550.408
550.283
550.158
550.034
549.908
549.782
549.662
549.544
549.425
549.302
549.175
549.047
548.919
548.791
548.663
548.53
548.391
548.244
548.089
547.922
547.743
547.555
547.361
547.163
546.963
546.766
546.572
546.384
546.203
546.029
545.862
545.696
545.521
545.329
545.13
544.936
544.753
544.586
544.435
544.299
544.173
544.053
543.937
543.824
543.711
543.597
543.483
543.368
543.252
543.136
543.018
542.9
542.781
542.661
542.542
542.421
542.301
542.18
542.06
541.939
541.818
541.697
541.576
541.456
541.335
541.214
541.093
540.972
540.852
540.731
540.61
552.506
552.423
552.353
552.3
552.267
552.251
552.247
552.25
552.257
552.264
552.272
552.28
552.288
552.298
552.311
552.327
552.344
552.363
552.381
552.399
552.416
552.431
552.445
552.456
552.463
552.468
552.468
552.463
552.452
552.434
552.407
552.372
552.326
552.269
552.201
552.123
552.036
551.942
551.842
551.737
551.627
551.51
551.386
551.257
551.124
550.987
550.849
550.709
550.562
550.41
550.257
550.104
549.954
549.807
549.666
549.541
549.426
549.314
549.199
549.082
548.967
548.855
548.748
548.641
548.527
548.404
548.276
548.139
547.991
547.829
547.656
547.479
547.299
547.12
546.944
546.769
546.597
546.429
546.268
546.113
545.952
545.764
545.545
545.313
545.082
544.861
544.656
544.48
544.326
544.187
544.06
543.94
543.824
543.71
543.597
543.483
543.368
543.252
543.136
543.018
542.9
542.781
542.662
542.542
542.422
542.302
542.181
542.06
541.939
541.819
541.698
541.577
541.456
541.335
541.214
541.093
540.973
540.852
540.731
540.61
552.47
552.32
552.193
552.099
552.041
552.014
552.012
552.026
552.048
552.075
552.102
552.13
552.158
552.188
552.222
552.259
552.298
552.336
552.373
552.409
552.443
552.477
552.509
552.541
552.571
552.598
552.621
552.64
552.654
552.661
552.659
552.647
552.621
552.579
552.521
552.447
552.359
552.261
552.155
552.043
551.925
551.796
551.656
551.509
551.357
551.205
551.057
550.91
550.744
550.559
550.368
550.167
549.968
549.787
549.617
549.474
549.344
549.231
549.108
548.978
548.863
548.756
548.661
548.57
548.467
548.347
548.235
548.116
547.988
547.841
547.682
547.533
547.378
547.229
547.094
546.954
546.811
546.67
546.539
546.412
546.266
546.063
545.818
545.562
545.294
545.021
544.749
544.541
544.363
544.209
544.071
543.945
543.826
543.711
543.597
543.482
543.368
543.252
543.136
543.019
542.901
542.782
542.662
542.543
542.423
542.302
542.181
542.061
541.94
541.819
541.698
541.577
541.456
541.335
541.214
541.094
540.973
540.852
540.731
540.61
552.412
552.15
551.929
551.763
551.657
551.605
551.594
551.612
551.646
551.689
551.736
551.785
551.835
551.888
551.947
552.013
552.081
552.146
552.205
552.261
552.316
552.372
552.43
552.489
552.548
552.607
552.665
552.721
552.775
552.823
552.865
552.895
552.908
552.899
552.867
552.812
552.738
552.65
552.552
552.452
552.348
552.229
552.095
551.95
551.792
551.642
551.517
551.402
551.237
551.03
550.814
550.545
550.259
550.025
549.791
549.61
549.428
549.299
549.133
548.932
548.794
548.661
548.556
548.471
548.353
548.193
548.093
547.977
547.86
547.717
547.552
547.453
547.321
547.207
547.15
547.062
546.965
546.87
546.79
546.719
546.603
546.385
546.12
545.875
545.592
545.257
544.835
544.618
544.414
544.237
544.086
543.952
543.829
543.711
543.596
543.482
543.368
543.252
543.136
543.019
542.901
542.782
542.663
542.543
542.423
542.303
542.182
542.061
541.94
541.819
541.698
541.577
541.456
541.335
541.215
541.094
540.973
540.852
540.731
540.61
552.327
551.904
551.542
551.269
551.091
550.995
550.96
550.968
551.004
551.056
551.116
551.181
551.249
551.321
551.407
551.506
551.609
551.703
551.786
551.866
551.947
552.032
552.121
552.215
552.311
552.411
552.512
552.616
552.724
552.832
552.938
553.034
553.109
553.155
553.167
553.151
553.108
553.05
552.985
552.934
552.893
552.837
552.772
552.681
552.541
552.424
552.39
552.374
552.235
552.038
551.886
551.536
551.099
550.785
550.393
550.013
549.733
549.47
549.184
548.858
548.659
548.483
548.338
548.176
548.018
547.803
547.655
547.5
547.407
547.299
547.158
547.11
547.093
547.044
546.988
546.966
546.925
546.908
546.888
546.869
546.861
546.663
546.373
546.231
546.003
545.652
545.02
544.739
544.483
544.273
544.103
543.96
543.832
543.712
543.597
543.482
543.367
543.252
543.136
543.019
542.901
542.782
542.663
542.544
542.423
542.303
542.182
542.062
541.941
541.82
541.699
541.578
541.457
541.336
541.215
541.094
540.973
540.852
540.731
540.61
552.22
551.584
551.038
550.627
550.358
550.202
550.127
550.102
550.113
550.15
550.205
550.274
550.345
550.416
550.518
550.651
550.79
550.91
551.011
551.119
551.232
551.354
551.486
551.623
551.765
551.912
552.061
552.223
552.398
552.578
552.762
552.949
553.106
553.229
553.304
553.343
553.348
553.344
553.344
553.402
553.513
553.627
553.754
553.818
553.729
553.71
553.827
553.97
553.911
553.694
553.38
553.017
552.501
551.985
551.355
550.818
550.487
550.03
549.51
548.938
548.631
548.338
548.08
547.707
547.47
547.218
546.928
546.698
546.621
546.482
546.427
546.441
546.552
546.627
546.513
546.577
546.705
546.799
546.711
546.756
546.867
547.007
546.495
546.578
546.474
546.33
545.305
544.895
544.561
544.311
544.121
543.968
543.835
543.713
543.597
543.482
543.367
543.252
543.136
543.019
542.901
542.783
542.664
542.544
542.424
542.303
542.183
542.062
541.941
541.82
541.699
541.578
541.457
541.336
541.215
541.094
540.973
540.852
540.731
540.61
552.135
551.255
550.482
549.919
549.548
549.329
549.195
549.098
549.032
549.008
549.024
549.068
549.108
549.133
549.215
549.371
549.537
549.659
549.754
549.892
550.045
550.219
550.408
550.6
550.795
550.994
551.183
551.4
551.642
551.882
552.141
552.456
552.705
552.935
553.083
553.19
553.228
553.307
553.427
553.7
554.127
554.554
554.878
555.063
555.337
555.577
555.71
555.85
555.963
555.673
555.197
554.878
554.321
553.641
552.893
552.268
551.868
551.205
550.43
549.615
549.004
548.286
547.845
547.151
546.708
546.378
545.818
545.532
545.555
545.303
545.297
545.506
545.53
545.787
545.663
545.968
546.242
546.063
545.768
546.343
546.202
547.624
545.859
547.662
546.115
547.459
545.604
545.023
544.621
544.34
544.134
543.973
543.837
543.714
543.597
543.482
543.367
543.252
543.136
543.019
542.901
542.783
542.664
542.544
542.424
542.304
542.183
542.062
541.941
541.82
541.699
541.578
541.457
541.336
541.215
541.094
540.973
540.852
540.731
540.61
552.303
551.156
550.05
549.358