/*--------------------------------*- C++ -*----------------------------------*\
  =========                 |
  \\      /  F ield         | OpenFOAM: The Open Source CFD Toolbox
   \\    /   O peration     | Website:  https://openfoam.org
    \\  /    A nd           | Version:  6
     \\/     M anipulation  |
\*---------------------------------------------------------------------------*/
FoamFile
{
    version     2.0;
    format      ascii;
    class       volVectorField;
    location    "4400";
    object      U;
}
// * * * * * * * * * * * * * * * * * * * * * * * * * * * * * * * * * * * * * //

dimensions      [0 1 -1 0 0 0 0];

internalField   nonuniform List<vector> 
4800
(
(3.05063e-05 0 -7.25126e-05)
(0.000116164 0 -6.71752e-05)
(0.000175333 0 -5.14346e-05)
(0.000216917 0 -2.88504e-05)
(0.000249325 0 -2.4166e-05)
(0.000242539 0 -5.61554e-06)
(0.000218777 0 6.39206e-06)
(0.000178158 0 1.22785e-05)
(0.000128893 0 1.47592e-05)
(7.821e-05 0 1.66624e-05)
(9.95248e-06 0 4.36612e-05)
(-6.33458e-05 0 3.30491e-05)
(-0.000127491 0 4.54356e-05)
(-0.000201755 0 1.51591e-05)
(-0.00038043 0 -3.48319e-05)
(-0.0005199 0 -0.000159516)
(-0.000562438 0 -0.000390981)
(-0.000914748 0 -0.000132249)
(-0.00108925 0 0.000163129)
(-0.00121851 0 -4.64299e-06)
(-0.001341 0 -2.46025e-05)
(-0.00143302 0 9.86437e-05)
(-0.00150309 0 -3.87622e-05)
(-0.00155646 0 -1.36196e-05)
(-0.00159462 0 4.45948e-06)
(-0.00161107 0 -4.0265e-05)
(-0.00161264 0 -4.81218e-05)
(-0.00155893 0 -0.000115617)
(-0.00149386 0 -0.000116155)
(-0.00145078 0 -0.000151611)
(-0.00144779 0 -0.000229668)
(-0.00143757 0 -9.60048e-05)
(-0.00134253 0 -0.000127351)
(-0.00130768 0 -9.49728e-05)
(-0.00130001 0 2.78101e-05)
(-0.00113786 0 -9.52201e-05)
(-0.00101818 0 -0.000114402)
(-0.000948096 0 -0.000125948)
(-0.000898966 0 -5.65854e-05)
(-0.000738263 0 0.000100644)
(-0.000526265 0 -1.92465e-05)
(-0.000363394 0 -0.000126699)
(-0.000277693 0 -2.92698e-05)
(-0.000183129 0 -9.79852e-05)
(-9.87625e-05 0 -4.57469e-05)
(1.08307e-05 0 -4.1424e-05)
(9.4682e-05 0 1.25582e-05)
(0.000143755 0 1.02577e-05)
(0.00017403 0 -2.66265e-05)
(0.000218928 0 -1.8203e-05)
(0.000205493 0 -4.7963e-06)
(0.000126252 0 -1.12429e-05)
(-2.57107e-06 0 3.13411e-05)
(-0.000123316 0 -2.91656e-05)
(-0.000266022 0 1.95556e-05)
(-0.000309967 0 5.89472e-06)
(-0.000318904 0 -6.88473e-06)
(-0.00031817 0 -8.84512e-06)
(-0.00031676 0 -1.05797e-05)
(-0.000321764 0 -8.3587e-06)
(-0.000346325 0 9.4983e-06)
(-0.000350835 0 1.89542e-05)
(-0.000332983 0 -9.54605e-06)
(-0.000293249 0 -1.41915e-05)
(-0.00024641 0 -1.1472e-05)
(-0.00018138 0 -2.47126e-05)
(-0.000109963 0 -3.48055e-05)
(-5.45811e-05 0 -2.43278e-05)
(-1.70558e-05 0 6.04883e-06)
(3.12233e-05 0 2.14587e-05)
(8.0658e-05 0 2.24266e-05)
(0.000125336 0 -4.01937e-05)
(0.00017217 0 -2.07949e-05)
(0.000221238 0 -1.69167e-05)
(0.000261362 0 -2.0609e-05)
(0.000286691 0 1.30829e-05)
(0.000301263 0 -3.24974e-05)
(0.000327305 0 1.95766e-05)
(0.000346138 0 -2.56666e-05)
(0.000366023 0 -3.69646e-05)
(0.000362711 0 -6.20595e-06)
(9.31249e-05 0 -0.000212925)
(8.79929e-06 0 0.000179939)
(-1.10385e-13 0 3.30591e-13)
(-5.6082e-13 0 6.13447e-14)
(6.20105e-13 0 1.4434e-14)
(6.05781e-13 0 -6.6519e-16)
(6.11616e-13 0 -4.25956e-15)
(6.21559e-13 0 -4.92137e-15)
(6.32108e-13 0 -5.27503e-15)
(6.43293e-13 0 -5.7708e-15)
(6.55397e-13 0 -6.27838e-15)
(6.6832e-13 0 -6.60354e-15)
(6.81615e-13 0 -6.61635e-15)
(6.94641e-13 0 -6.25805e-15)
(7.06677e-13 0 -5.52094e-15)
(7.16993e-13 0 -4.42971e-15)
(7.24897e-13 0 -3.02934e-15)
(7.29757e-13 0 -1.37406e-15)
(7.31037e-13 0 4.82144e-16)
(7.28329e-13 0 2.49074e-15)
(7.21389e-13 0 4.60801e-15)
(7.10133e-13 0 6.79094e-15)
(6.94612e-13 0 8.99253e-15)
(6.74959e-13 0 1.11625e-14)
(6.51338e-13 0 1.32517e-14)
(6.23919e-13 0 1.52181e-14)
(5.9287e-13 0 1.70317e-14)
(5.58373e-13 0 1.86774e-14)
(5.20643e-13 0 2.01531e-14)
(4.79937e-13 0 2.14661e-14)
(4.36553e-13 0 2.26263e-14)
(3.90807e-13 0 2.36415e-14)
(3.43003e-13 0 2.45152e-14)
(2.93416e-13 0 2.52484e-14)
(2.4228e-13 0 2.58413e-14)
(1.89814e-13 0 2.62933e-14)
(1.3626e-13 0 2.65998e-14)
(8.19275e-14 0 2.67399e-14)
(2.7306e-14 0 2.66244e-14)
(7.25989e-05 0 -0.000157516)
(0.000118164 0 -0.000136478)
(0.000172367 0 -8.23514e-05)
(0.00019416 0 -0.000101935)
(0.000229234 0 8.56273e-06)
(0.000214459 0 2.45133e-05)
(0.00017822 0 4.22983e-05)
(0.00013816 0 4.55056e-05)
(9.55876e-05 0 7.1691e-05)
(4.32063e-05 0 9.77906e-05)
(-6.1857e-06 0 9.99814e-05)
(-9.28164e-05 0 0.000109819)
(-0.000233469 0 0.00015877)
(-0.000341516 0 0.000165859)
(-0.000560083 0 0.000270401)
(-0.000854133 0 0.000278572)
(-0.000918749 0 0.000276564)
(-0.000908946 0 0.000320295)
(-0.00112573 0 7.8874e-05)
(-0.00128923 0 0.00016975)
(-0.0013949 0 0.000172035)
(-0.00146673 0 8.96697e-05)
(-0.00152116 0 0.000116762)
(-0.00155914 0 7.10017e-05)
(-0.0015842 0 5.44864e-05)
(-0.00159974 0 3.65744e-05)
(-0.00160647 0 -1.84942e-06)
(-0.00161096 0 -4.83782e-05)
(-0.00161192 0 -6.87201e-05)
(-0.00158035 0 -0.000237866)
(-0.00156277 0 -8.851e-05)
(-0.00151397 0 0.000385338)
(-0.0014343 0 -0.000468197)
(-0.0014017 0 7.08541e-05)
(-0.00128229 0 -0.000288977)
(-0.00120506 0 -6.1181e-05)
(-0.00110649 0 -0.000167705)
(-0.00101684 0 -0.000186187)
(-0.00091984 0 -0.000164587)
(-0.000762976 0 -0.000336843)
(-0.000637155 0 -0.00033563)
(-0.000575601 0 -0.000232742)
(-0.000520611 0 -0.000118589)
(-0.000403359 0 -0.000170594)
(-0.000297189 0 -0.000163841)
(-0.00016915 0 -0.000197129)
(-0.000139062 0 -0.000143079)
(-8.9909e-05 0 -0.000189219)
(4.46706e-05 0 -6.14182e-05)
(2.85601e-05 0 -0.000132128)
(9.93066e-05 0 0.000143091)
(1.11543e-05 0 0.00015129)
(-8.85851e-05 0 0.000193056)
(-0.000183248 0 0.000162689)
(-0.00033054 0 9.13462e-05)
(-0.00036203 0 6.21165e-05)
(-0.000377116 0 9.31421e-06)
(-0.000391639 0 2.31813e-05)
(-0.000406393 0 2.02589e-05)
(-0.000412195 0 2.00492e-05)
(-0.000407032 0 6.29882e-06)
(-0.000373492 0 -2.18013e-05)
(-0.000316033 0 -5.89113e-05)
(-0.000244309 0 -9.7756e-05)
(-0.000173613 0 -9.24267e-05)
(-0.000108361 0 -8.59701e-05)
(-4.57864e-05 0 -8.58473e-05)
(2.93023e-05 0 -8.83653e-05)
(0.000115749 0 -0.000122272)
(0.000193507 0 -0.000134973)
(0.00024908 0 -6.50121e-05)
(0.000243203 0 -0.000155582)
(0.000293278 0 -5.99387e-05)
(0.000302643 0 -5.9584e-05)
(0.000318928 0 -3.11137e-05)
(0.000337501 0 -2.92738e-05)
(0.000335372 0 -1.79361e-05)
(0.000322961 0 -2.20083e-05)
(0.000321966 0 -3.8873e-05)
(0.000302645 0 -5.19333e-05)
(0.000364155 0 -2.66442e-05)
(8.02274e-05 0 0.000119334)
(9.48939e-06 0 0.000371837)
(-4.34605e-13 0 1.06786e-12)
(-7.05001e-13 0 1.32461e-13)
(5.57747e-13 0 1.30108e-14)
(5.8716e-13 0 -1.36057e-14)
(6.07412e-13 0 -1.60033e-14)
(6.20544e-13 0 -1.52094e-14)
(6.31258e-13 0 -1.56908e-14)
(6.42289e-13 0 -1.72511e-14)
(6.54564e-13 0 -1.89325e-14)
(6.67982e-13 0 -1.99998e-14)
(6.8196e-13 0 -2.00556e-14)
(6.95737e-13 0 -1.8955e-14)
(7.08505e-13 0 -1.67089e-14)
(7.19485e-13 0 -1.34108e-14)
(7.27952e-13 0 -9.19275e-15)
(7.33269e-13 0 -4.19706e-15)
(7.34901e-13 0 1.43756e-15)
(7.32455e-13 0 7.57558e-15)
(7.25689e-13 0 1.40745e-14)
(7.14518e-13 0 2.0775e-14)
(6.98984e-13 0 2.75011e-14)
(6.79218e-13 0 3.40762e-14)
(6.55394e-13 0 4.03454e-14)
(6.27699e-13 0 4.61942e-14)
(5.96329e-13 0 5.15563e-14)
(5.61495e-13 0 5.64092e-14)
(5.23432e-13 0 6.07609e-14)
(4.8241e-13 0 6.4632e-14)
(4.38728e-13 0 6.80409e-14)
(3.92695e-13 0 7.09985e-14)
(3.4461e-13 0 7.35123e-14)
(2.94742e-13 0 7.55932e-14)
(2.43324e-13 0 7.72591e-14)
(1.90573e-13 0 7.85317e-14)
(1.36707e-13 0 7.94268e-14)
(8.19522e-14 0 7.99422e-14)
(2.71906e-14 0 8.00408e-14)
(4.83666e-05 0 -0.000234359)
(5.38838e-05 0 -0.000206667)
(0.000128846 0 -0.000142197)
(0.000173709 0 -3.89511e-05)
(0.000181159 0 1.42556e-05)
(0.000164939 0 4.69378e-05)
(0.000134559 0 5.68927e-05)
(9.66905e-05 0 9.40605e-05)
(6.56028e-05 0 0.000123969)
(2.58678e-05 0 0.000142493)
(-6.28819e-05 0 0.000178429)
(-0.000141319 0 0.000210598)
(-0.000266217 0 0.000274387)
(-0.000345547 0 0.000383892)
(-0.000521954 0 0.000511616)
(-0.000762407 0 0.000564595)
(-0.000853214 0 0.000577639)
(-0.00104914 0 0.000336432)
(-0.00121056 0 0.000182266)
(-0.00128518 0 0.000297691)
(-0.00137319 0 0.000217006)
(-0.00144554 0 0.000134084)
(-0.00148081 0 0.000154477)
(-0.0015189 0 8.78646e-05)
(-0.00154954 0 5.3204e-05)
(-0.00155633 0 2.698e-05)
(-0.00155284 0 -7.23189e-06)
(-0.00156477 0 -2.08817e-05)
(-0.00160279 0 -4.88447e-05)
(-0.00163125 0 -3.85145e-05)
(-0.00158737 0 -9.11166e-05)
(-0.00150776 0 -0.000107749)
(-0.00149265 0 -0.000151886)
(-0.00145461 0 -0.000153758)
(-0.00138656 0 -0.000202453)
(-0.00129215 0 -0.000321308)
(-0.00119671 0 -0.000279668)
(-0.00111717 0 -0.0002282)
(-0.00104188 0 -0.000230235)
(-0.00092422 0 -0.000379443)
(-0.00085151 0 -0.00030715)
(-0.00079014 0 -0.000181749)
(-0.00065771 0 -0.000256093)
(-0.000568868 0 -0.000224461)
(-0.000428381 0 -0.000316439)
(-0.000367076 0 -0.000209585)
(-0.0002713 0 -0.000185718)
(-0.000259861 0 -0.000130391)
(-0.00026592 0 -6.5976e-05)
(-0.000139105 0 -2.48816e-05)
(-0.000113148 0 0.000118191)
(-0.000161421 0 0.000188075)
(-0.000197961 0 0.000248231)
(-0.0002293 0 0.000263157)
(-0.000299382 0 0.000195004)
(-0.00038057 0 8.2228e-05)
(-0.000417966 0 2.76977e-05)
(-0.000437134 0 2.91941e-05)
(-0.000441188 0 2.02559e-05)
(-0.000430684 0 9.51937e-06)
(-0.000392329 0 -9.95455e-06)
(-0.000343707 0 -7.40509e-05)
(-0.000271213 0 -0.000140265)
(-0.00019656 0 -0.000140826)
(-0.000102495 0 -0.000153203)
(-1.75665e-05 0 -0.000148986)
(0.000106695 0 -0.000213394)
(0.000208143 0 -0.000183372)
(0.000283014 0 -0.000126802)
(0.000302674 0 -0.000168367)
(0.000350665 0 -0.000118468)
(0.000370991 0 -8.34963e-05)
(0.000369052 0 -7.29279e-05)
(0.000364261 0 -5.14246e-05)
(0.000364332 0 -4.8343e-05)
(0.000373803 0 -4.30478e-06)
(0.000362354 0 1.25306e-05)
(0.000322892 0 2.47064e-05)
(0.000268963 0 4.41536e-05)
(8.17749e-05 0 3.32499e-05)
(-0.000164232 0 8.7639e-05)
(-0.000546105 0 6.70422e-05)
(1.06506e-05 0 0.00058256)
(-8.91622e-13 0 1.18571e-12)
(-1.06594e-12 0 -7.48775e-14)
(4.73991e-13 0 -8.00784e-14)
(5.77022e-13 0 -5.07195e-14)
(6.10101e-13 0 -3.11389e-14)
(6.21872e-13 0 -2.42967e-14)
(6.30066e-13 0 -2.49494e-14)
(6.40051e-13 0 -2.84537e-14)
(6.52648e-13 0 -3.20076e-14)
(6.67197e-13 0 -3.41955e-14)
(6.8266e-13 0 -3.44281e-14)
(6.97988e-13 0 -3.25661e-14)
(7.12221e-13 0 -2.87033e-14)
(7.24509e-13 0 -2.30389e-14)
(7.34111e-13 0 -1.58103e-14)
(7.40387e-13 0 -7.26033e-15)
(7.42809e-13 0 2.3716e-15)
(7.40966e-13 0 1.28419e-14)
(7.34588e-13 0 2.38884e-14)
(7.2356e-13 0 3.52208e-14)
(7.07913e-13 0 4.65312e-14)
(6.87803e-13 0 5.75243e-14)
(6.63456e-13 0 6.79548e-14)
(6.3513e-13 0 7.76518e-14)
(6.03085e-13 0 8.65247e-14)
(5.67578e-13 0 9.45486e-14)
(5.28866e-13 0 1.0174e-13)
(4.87217e-13 0 1.08129e-13)
(4.4292e-13 0 1.13741e-13)
(3.96278e-13 0 1.18593e-13)
(3.47598e-13 0 1.22702e-13)
(2.97162e-13 0 1.26094e-13)
(2.45218e-13 0 1.28811e-13)
(1.91982e-13 0 1.30905e-13)
(1.37671e-13 0 1.32428e-13)
(8.25416e-14 0 1.33435e-13)
(2.74046e-14 0 1.34019e-13)
(4.2011e-05 0 -0.00029724)
(6.22317e-05 0 -0.000229539)
(0.000115606 0 -0.000116698)
(5.28248e-05 0 -0.000110341)
(0.000118074 0 3.11097e-05)
(7.92015e-05 0 7.42838e-05)
(4.31897e-05 0 0.000103775)
(-1.51664e-05 0 0.000135771)
(-3.18311e-05 0 0.000176517)
(-5.81099e-05 0 0.000217696)
(-0.000124829 0 0.000257859)
(-0.000211641 0 0.000299452)
(-0.00030537 0 0.000389643)
(-0.000421735 0 0.000531856)
(-0.000641632 0 0.000598947)
(-0.000790504 0 0.000610362)
(-0.000946792 0 0.000487603)
(-0.00106707 0 0.000442826)
(-0.00116844 0 0.000466335)
(-0.00125262 0 0.00036471)
(-0.00131548 0 0.000246388)
(-0.00134644 0 0.000266044)
(-0.00140101 0 0.000148512)
(-0.00145321 0 5.45574e-05)
(-0.00148611 0 9.30083e-05)
(-0.00150579 0 1.60376e-05)
(-0.00151669 0 -5.21064e-05)
(-0.0015219 0 -5.39007e-05)
(-0.00152226 0 -8.59429e-05)
(-0.00154937 0 -0.000120467)
(-0.00156127 0 -0.000102884)
(-0.00150155 0 -0.000138088)
(-0.00145899 0 -0.000153735)
(-0.00144337 0 -0.000185788)
(-0.00141895 0 -0.000331656)
(-0.0013764 0 -0.000233155)
(-0.00125436 0 -0.000332016)
(-0.00117645 0 -0.000316309)
(-0.0011357 0 -0.000309016)
(-0.000991634 0 -0.0005723)
(-0.000917216 0 -0.00047388)
(-0.000899312 0 -0.000254294)
(-0.000778782 0 -0.000346441)
(-0.000676769 0 -0.000411957)
(-0.000606026 0 -0.000402478)
(-0.000526441 0 -0.000359672)
(-0.000428599 0 -0.00031299)
(-0.000341568 0 -0.00023998)
(-0.000379254 0 -0.00010452)
(-0.000399003 0 -3.19661e-07)
(-0.000335413 0 6.95509e-05)
(-0.000319646 0 0.00020764)
(-0.000255233 0 0.000298936)
(-0.000313782 0 0.000281207)
(-0.000351291 0 0.000190891)
(-0.00035603 0 0.000146427)
(-0.000407618 0 5.36198e-05)
(-0.000423872 0 2.5715e-05)
(-0.00042683 0 1.83523e-05)
(-0.000405654 0 -1.88027e-05)
(-0.000352211 0 -8.94996e-05)
(-0.000297343 0 -0.000135204)
(-0.000230043 0 -0.000200939)
(-0.000115206 0 -0.000288899)
(-3.58034e-05 0 -0.000327785)
(0.000109195 0 -0.000291432)
(0.000122426 0 -0.000292089)
(0.000233509 0 -0.000234526)
(0.000305583 0 -0.000175904)
(0.000298829 0 -0.000219294)
(0.000371968 0 -0.00010302)
(0.000371453 0 -9.70531e-05)
(0.000381128 0 -6.91394e-05)
(0.000378482 0 -6.4013e-05)
(0.000366693 0 -6.87245e-05)
(0.00036263 0 2.30849e-05)
(0.00035005 0 3.90402e-05)
(0.000321551 0 5.41993e-05)
(0.000270994 0 0.000121479)
(0.000130449 0 0.000157395)
(0.000208566 0 0.000145008)
(-0.000645652 0 -0.000126178)
(1.03961e-05 0 0.000772788)
(-9.17788e-13 0 1.18712e-12)
(-9.16085e-13 0 -4.97048e-13)
(5.82536e-13 0 -2.0819e-13)
(6.36468e-13 0 -7.76277e-14)
(6.33899e-13 0 -3.32095e-14)
(6.26733e-13 0 -2.56084e-14)
(6.27101e-13 0 -3.1055e-14)
(6.35231e-13 0 -3.92957e-14)
(6.48823e-13 0 -4.61657e-14)
(6.65561e-13 0 -5.0121e-14)
(6.8359e-13 0 -5.07312e-14)
(7.01462e-13 0 -4.80509e-14)
(7.18032e-13 0 -4.23511e-14)
(7.32378e-13 0 -3.39942e-14)
(7.43731e-13 0 -2.33756e-14)
(7.51451e-13 0 -1.08975e-14)
(7.55004e-13 0 3.04182e-15)
(7.53972e-13 0 1.80508e-14)
(7.48068e-13 0 3.37407e-14)
(7.37161e-13 0 4.9718e-14)
(7.21287e-13 0 6.55893e-14)
(7.00641e-13 0 8.09853e-14)
(6.75521e-13 0 9.55963e-14)
(6.46269e-13 0 1.09199e-13)
(6.13226e-13 0 1.21665e-13)
(5.7671e-13 0 1.32945e-13)
(5.37012e-13 0 1.43051e-13)
(4.94411e-13 0 1.52023e-13)
(4.49193e-13 0 1.59906e-13)
(4.01656e-13 0 1.6674e-13)
(3.52111e-13 0 1.72557e-13)
(3.00851e-13 0 1.77392e-13)
(2.48135e-13 0 1.81293e-13)
(1.9419e-13 0 1.84322e-13)
(1.39237e-13 0 1.86551e-13)
(8.35429e-14 0 1.8806e-13)
(2.77742e-14 0 1.88932e-13)
(2.06512e-05 0 -0.000344222)
(4.26015e-05 0 -0.000237763)
(4.34271e-05 0 -0.000134345)
(3.23558e-05 0 -5.29332e-05)
(5.84029e-05 0 3.21046e-05)
(4.34193e-05 0 7.61928e-05)
(4.24075e-06 0 0.000121931)
(-4.005e-05 0 0.000158083)
(-7.4241e-05 0 0.000211934)
(-0.000118287 0 0.000285384)
(-0.000181867 0 0.000338431)
(-0.00022953 0 0.000422375)
(-0.000457721 0 0.000452547)
(-0.000510855 0 0.000706582)
(-0.000598172 0 0.000860031)
(-0.00067938 0 0.00084837)
(-0.000903124 0 0.00063696)
(-0.00107904 0 0.000480213)
(-0.00111603 0 0.000532035)
(-0.00117011 0 0.000470181)
(-0.00122453 0 0.000330678)
(-0.00125851 0 0.000216923)
(-0.00129784 0 0.000236461)
(-0.00134801 0 0.000160931)
(-0.001366 0 0.000138422)
(-0.00138583 0 5.23103e-05)
(-0.00140543 0 1.99717e-05)
(-0.00142021 0 1.57295e-05)
(-0.00144183 0 -0.00011684)
(-0.00147291 0 -9.7707e-05)
(-0.001477 0 -9.05667e-05)
(-0.00144057 0 -0.00022003)
(-0.00139925 0 -0.000307051)
(-0.00139801 0 -0.000269199)
(-0.001398 0 -0.000288798)
(-0.0013673 0 -0.000359839)
(-0.00126175 0 -0.000430788)
(-0.00120951 0 -0.00040321)
(-0.00117811 0 -0.00041565)
(-0.00107544 0 -0.000603136)
(-0.00105382 0 -0.000420331)
(-0.000971946 0 -0.000369828)
(-0.000874628 0 -0.000456352)
(-0.000845501 0 -0.000414909)
(-0.000781273 0 -0.000433492)
(-0.000739573 0 -0.000381365)
(-0.000671545 0 -0.000343586)
(-0.000616401 0 -0.000210931)
(-0.000523598 0 -0.000179807)
(-0.000517876 0 -7.60828e-05)
(-0.000509596 0 0.00010785)
(-0.000460943 0 0.00016184)
(-0.000389669 0 0.00028577)
(-0.000379238 0 0.00028475)
(-0.000383889 0 0.000217674)
(-0.00038299 0 0.000159557)
(-0.000412412 0 7.67467e-05)
(-0.00041764 0 4.28646e-05)
(-0.000415082 0 1.3181e-05)
(-0.000385044 0 -8.54201e-05)
(-0.000328342 0 -0.0001522)
(-0.000289975 0 -0.000183378)
(-0.000208558 0 -0.000278716)
(-9.4082e-05 0 -0.000366478)
(-9.38287e-05 0 -0.000371162)
(-4.2042e-05 0 -0.000375339)
(5.97176e-05 0 -0.000356932)
(0.000144372 0 -0.000308267)
(0.00027168 0 -0.00020922)
(0.000257672 0 -0.000202942)
(0.00030588 0 -0.000137726)
(0.000289883 0 -0.000158331)
(0.000328262 0 -0.000101547)
(0.000348883 0 -3.62409e-05)
(0.000334371 0 -6.71391e-05)
(0.00032822 0 2.20183e-05)
(0.0003292 0 5.47495e-05)
(0.00030977 0 0.000131383)
(0.000297835 0 0.000168086)
(0.000249976 0 0.000194501)
(0.000294834 0 0.000182245)
(-0.000110699 0 6.46252e-05)
(1.06145e-05 0 0.000793553)
(-1.83361e-13 0 6.48814e-12)
(-4.97773e-13 0 -7.55225e-13)
(8.93927e-13 0 -1.77648e-13)
(7.52301e-13 0 -1.77283e-14)
(6.62153e-13 0 2.07559e-15)
(6.24026e-13 0 -1.33438e-14)
(6.16379e-13 0 -3.38598e-14)
(6.2494e-13 0 -5.10454e-14)
(6.41823e-13 0 -6.28552e-14)
(6.62631e-13 0 -6.91082e-14)
(6.8473e-13 0 -7.01373e-14)
(7.06368e-13 0 -6.64346e-14)
(7.26278e-13 0 -5.85562e-14)
(7.43485e-13 0 -4.70892e-14)
(7.57207e-13 0 -3.26351e-14)
(7.66805e-13 0 -1.57967e-14)
(7.71757e-13 0 2.83728e-15)
(7.71665e-13 0 2.27085e-14)
(7.66256e-13 0 4.32978e-14)
(7.55408e-13 0 6.41194e-14)
(7.39181e-13 0 8.47127e-14)
(7.1781e-13 0 1.04651e-13)
(6.9167e-13 0 1.23571e-13)
(6.61199e-13 0 1.412e-13)
(6.26831e-13 0 1.57369e-13)
(5.88964e-13 0 1.72007e-13)
(5.47943e-13 0 1.85122e-13)
(5.04073e-13 0 1.96765e-13)
(4.57637e-13 0 2.07005e-13)
(4.08929e-13 0 2.15902e-13)
(3.58249e-13 0 2.23503e-13)
(3.05898e-13 0 2.29849e-13)
(2.52148e-13 0 2.34987e-13)
(1.9724e-13 0 2.38984e-13)
(1.41408e-13 0 2.41927e-13)
(8.49225e-14 0 2.43915e-13)
(2.82766e-14 0 2.45037e-13)
(8.48496e-06 0 -0.000369452)
(-3.82116e-06 0 -0.000225022)
(-5.20966e-07 0 -0.000120689)
(-2.91223e-07 0 -4.6699e-05)
(-1.10195e-05 0 4.69187e-05)
(-6.49869e-06 0 9.92564e-05)
(-3.21987e-05 0 0.000147574)
(-7.20668e-05 0 0.000198611)
(-0.000102323 0 0.00026232)
(-0.00021994 0 0.000321389)
(-0.000263315 0 0.000413572)
(-0.000404877 0 0.000476078)
(-0.000436641 0 0.00067976)
(-0.000791854 0 0.00070934)
(-0.000853486 0 0.000812665)
(-0.000868518 0 0.000817114)
(-0.000875749 0 0.000778103)
(-0.000995278 0 0.000664658)
(-0.00103183 0 0.000611756)
(-0.00107907 0 0.000486308)
(-0.00110107 0 0.000422736)
(-0.00116224 0 0.000280634)
(-0.00117274 0 0.000272717)
(-0.00118893 0 0.0002207)
(-0.00121382 0 0.000136786)
(-0.00124506 0 7.64034e-05)
(-0.00126538 0 3.28004e-05)
(-0.00128064 0 1.03393e-05)
(-0.00130553 0 -8.26796e-06)
(-0.00131725 0 -1.20328e-05)
(-0.00130889 0 -0.00018123)
(-0.00133641 0 -0.00019625)
(-0.00135875 0 -0.000149358)
(-0.00134385 0 -0.000249026)
(-0.00132058 0 -0.00035843)
(-0.00132942 0 -0.000353986)
(-0.00126373 0 -0.00048608)
(-0.00121983 0 -0.000454436)
(-0.00119977 0 -0.000465023)
(-0.00112487 0 -0.000621876)
(-0.00112389 0 -0.000448832)
(-0.00104502 0 -0.00044852)
(-0.000989298 0 -0.000483609)
(-0.000944864 0 -0.000506602)
(-0.000907844 0 -0.00050971)
(-0.000841355 0 -0.00051897)
(-0.000844842 0 -0.000351304)
(-0.000815227 0 -0.00020391)
(-0.000767313 0 -7.63287e-05)
(-0.000683239 0 -0.00014617)
(-0.000638508 0 -1.90906e-05)
(-0.000546979 0 0.00026079)
(-0.000533058 0 0.000179551)
(-0.000418317 0 0.000333092)
(-0.000462057 0 0.000183316)
(-0.000440566 0 0.000139251)
(-0.000434768 0 9.76502e-05)
(-0.00043918 0 5.24182e-07)
(-0.000410401 0 -3.62321e-05)
(-0.000389531 0 -9.43212e-05)
(-0.00036399 0 -0.000198182)
(-0.000333407 0 -0.000249169)
(-0.000273355 0 -0.000332443)
(-0.000313403 0 -0.00032234)
(-0.000289468 0 -0.000387855)
(-0.000263728 0 -0.000418224)
(-0.000152897 0 -0.000468298)
(-0.000101405 0 -0.000455698)
(2.47293e-05 0 -0.000371814)
(0.000167162 0 -0.000237697)
(0.000220464 0 -0.000122798)
(0.00016966 0 -0.0001656)
(0.000234493 0 -8.4029e-05)
(0.000223053 0 -0.000106849)
(0.000243261 0 -3.89012e-05)
(0.000260702 0 2.27005e-05)
(0.000284503 0 5.03883e-05)
(0.000294504 0 0.000132175)
(0.000271296 0 0.000231743)
(0.00023784 0 0.000263627)
(0.00026276 0 0.00022962)
(-0.000170134 0 7.433e-05)
(6.09071e-05 0 0.000810179)
(5.65165e-10 0 6.20756e-09)
(-2.25743e-12 0 1.63385e-12)
(1.32044e-12 0 3.69169e-13)
(8.16447e-13 0 1.83012e-13)
(6.38292e-13 0 7.3197e-14)
(5.90798e-13 0 4.64538e-15)
(5.894e-13 0 -3.94109e-14)
(6.06236e-13 0 -6.76549e-14)
(6.3076e-13 0 -8.46981e-14)
(6.58279e-13 0 -9.30572e-14)
(6.86263e-13 0 -9.41806e-14)
(7.13043e-13 0 -8.90642e-14)
(7.37378e-13 0 -7.85549e-14)
(7.58299e-13 0 -6.34696e-14)
(7.75023e-13 0 -4.46305e-14)
(7.86923e-13 0 -2.28634e-14)
(7.93509e-13 0 1.02668e-15)
(7.94432e-13 0 2.62885e-14)
(7.89479e-13 0 5.22507e-14)
(7.78575e-13 0 7.83224e-14)
(7.61819e-13 0 1.03976e-13)
(7.395e-13 0 1.28737e-13)
(7.1207e-13 0 1.52199e-13)
(6.80067e-13 0 1.74049e-13)
(6.44034e-13 0 1.94089e-13)
(6.04462e-13 0 2.12227e-13)
(5.61769e-13 0 2.28466e-13)
(5.16295e-13 0 2.42871e-13)
(4.6833e-13 0 2.55532e-13)
(4.18155e-13 0 2.66532e-13)
(3.66057e-13 0 2.75936e-13)
(3.12334e-13 0 2.83794e-13)
(2.57271e-13 0 2.9016e-13)
(2.01131e-13 0 2.95111e-13)
(1.44168e-13 0 2.98748e-13)
(8.66523e-14 0 3.01186e-13)
(2.8896e-14 0 3.02525e-13)
(-1.28628e-06 0 -0.000380681)
(-1.42068e-05 0 -0.000213141)
(-2.93278e-05 0 -0.000108213)
(-3.63278e-05 0 -3.76142e-05)
(-5.98047e-05 0 4.88886e-05)
(-3.6336e-06 0 0.000133038)
(-8.22225e-05 0 0.000154677)
(-8.9808e-05 0 0.000227976)
(-6.05098e-05 0 0.00033754)
(-3.56173e-05 0 0.000477259)
(-0.00027559 0 0.000488803)
(-0.000228651 0 0.000685339)
(-0.000523518 0 0.000788559)
(-0.000568158 0 0.000997471)
(-0.000739589 0 0.000997847)
(-0.000771813 0 0.000988908)
(-0.000902152 0 0.000814907)
(-0.000930135 0 0.000733428)
(-0.00104287 0 0.000531208)
(-0.00102973 0 0.000462812)
(-0.00102562 0 0.000401129)
(-0.00103026 0 0.000364557)
(-0.00106922 0 0.000254766)
(-0.001086 0 0.000197251)
(-0.00109875 0 0.000149134)
(-0.00112077 0 9.21851e-05)
(-0.00113759 0 4.53877e-05)
(-0.00114493 0 -1.37438e-05)
(-0.00114734 0 -3.59474e-05)
(-0.00114324 0 -4.6697e-05)
(-0.00115073 0 -8.05503e-05)
(-0.00117034 0 -0.000174355)
(-0.00118462 0 -0.000242167)
(-0.00120448 0 -0.000296667)
(-0.00122647 0 -0.000368661)
(-0.00123732 0 -0.000426897)
(-0.00123862 0 -0.000446596)
(-0.00119596 0 -0.000531173)
(-0.00117954 0 -0.000551037)
(-0.00118749 0 -0.000551117)
(-0.00116585 0 -0.00050678)
(-0.00110446 0 -0.000508714)
(-0.00106349 0 -0.000519875)
(-0.00104764 0 -0.000511035)
(-0.00103852 0 -0.000495228)
(-0.00100689 0 -0.000470007)
(-0.000933765 0 -0.000466897)
(-0.00089947 0 -0.000365435)
(-0.000856495 0 -0.000239948)
(-0.000806299 0 -3.85709e-05)
(-0.00072227 0 -5.59947e-05)
(-0.000673291 0 3.19687e-05)
(-0.000599215 0 0.000242517)
(-0.000541964 0 0.000226619)
(-0.000490649 0 0.000222889)
(-0.000488495 0 0.000116457)
(-0.000439845 0 9.53016e-05)
(-0.000417555 0 5.62744e-05)
(-0.000423407 0 -3.88589e-05)
(-0.000431118 0 -0.000103201)
(-0.000419309 0 -0.00015654)
(-0.000421024 0 -0.000261474)
(-0.000449485 0 -0.000268212)
(-0.000400624 0 -0.000375407)
(-0.000355717 0 -0.000439829)
(-0.000300412 0 -0.000488787)
(-0.000234769 0 -0.000531394)
(-0.000211088 0 -0.000520656)
(-0.000161235 0 -0.00047649)
(-0.000123855 0 -0.00035359)
(8.86668e-05 0 -0.000210273)
(0.000117213 0 -0.000153404)
(0.0001408 0 -0.000110104)
(0.000145451 0 -8.5474e-05)
(0.000166025 0 -6.51608e-05)
(0.000200962 0 -1.03752e-05)
(0.000238471 0 1.86494e-05)
(0.000257551 0 0.000124178)
(0.000277569 0 0.000193476)
(0.00019889 0 0.00028456)
(0.000220415 0 0.000263488)
(-6.90268e-06 0 0.000168642)
(-0.000127169 0 0.000853768)
(6.46066e-06 0 5.1754e-05)
(-1.17623e-12 0 1.63015e-12)
(-4.39988e-13 0 7.60603e-13)
(4.56607e-13 0 3.08124e-13)
(4.83787e-13 0 1.03618e-13)
(5.11418e-13 0 -1.28789e-15)
(5.44078e-13 0 -6.02535e-14)
(5.79653e-13 0 -9.49997e-14)
(6.16421e-13 0 -1.14869e-13)
(6.53149e-13 0 -1.24034e-13)
(6.88723e-13 0 -1.24467e-13)
(7.21994e-13 0 -1.17337e-13)
(7.51872e-13 0 -1.03613e-13)
(7.77409e-13 0 -8.42712e-14)
(7.97814e-13 0 -6.03442e-14)
(8.12462e-13 0 -3.28975e-14)
(8.20909e-13 0 -2.98166e-15)
(8.22889e-13 0 2.84237e-14)
(8.18289e-13 0 6.04577e-14)
(8.07134e-13 0 9.23949e-14)
(7.89595e-13 0 1.23625e-13)
(7.66033e-13 0 1.53628e-13)
(7.36983e-13 0 1.81964e-13)
(7.03089e-13 0 2.08297e-13)
(6.65008e-13 0 2.32406e-13)
(6.23341e-13 0 2.5419e-13)
(5.78588e-13 0 2.73652e-13)
(5.31139e-13 0 2.90872e-13)
(4.81298e-13 0 3.05963e-13)
(4.29332e-13 0 3.1904e-13)
(3.75511e-13 0 3.30194e-13)
(3.20123e-13 0 3.395e-13)
(2.63466e-13 0 3.47031e-13)
(2.05828e-13 0 3.52879e-13)
(1.47483e-13 0 3.57164e-13)
(8.86999e-14 0 3.60015e-13)
(2.96157e-14 0 3.61538e-13)
(-2.80564e-05 0 -0.000369836)
(-3.48801e-05 0 -0.000201874)
(-7.08914e-05 0 -7.88509e-05)
(-8.11612e-05 0 -2.57798e-05)
(-9.17284e-05 0 3.01253e-05)
(-4.69504e-05 0 0.000120968)
(-3.94657e-05 0 0.000215286)
(-0.000140161 0 0.000256233)
(-0.000261029 0 0.000300576)
(-0.000387279 0 0.000378997)
(-8.14525e-05 0 0.000690975)
(-0.000570305 0 0.000636568)
(-0.000493185 0 0.000959139)
(-0.000603902 0 0.00106292)
(-0.000716838 0 0.00105169)
(-0.00076241 0 0.00101825)
(-0.000841693 0 0.0008759)
(-0.000830597 0 0.00081398)
(-0.000855914 0 0.000720671)
(-0.00089029 0 0.000605892)
(-0.000969356 0 0.000404332)
(-0.000974091 0 0.000323216)
(-0.000981143 0 0.000296948)
(-0.0010042 0 0.000249482)
(-0.00101513 0 0.000177764)
(-0.00102253 0 0.000130559)
(-0.00104167 0 6.43591e-05)
(-0.00104874 0 1.58571e-05)
(-0.00105162 0 -1.76888e-05)
(-0.00104691 0 -7.6798e-05)
(-0.00103898 0 -0.000119378)
(-0.00104345 0 -0.000129088)
(-0.00105869 0 -0.00015191)
(-0.00106746 0 -0.000259993)
(-0.00110955 0 -0.000303346)
(-0.00114488 0 -0.000368261)
(-0.00114019 0 -0.00050675)
(-0.00116076 0 -0.000554178)
(-0.00118132 0 -0.000575977)
(-0.00118605 0 -0.000583656)
(-0.0011822 0 -0.000536431)
(-0.00113741 0 -0.000547024)
(-0.00110379 0 -0.000552623)
(-0.00109369 0 -0.00054045)
(-0.00107906 0 -0.000544589)
(-0.00104775 0 -0.000546598)
(-0.00106201 0 -0.000423067)
(-0.00105348 0 -0.000279852)
(-0.000957286 0 -0.000268766)
(-0.000829085 0 -0.000303949)
(-0.000790354 0 -6.92062e-05)
(-0.00074277 0 6.06117e-05)
(-0.000703771 0 0.000120456)
(-0.00063919 0 0.000169609)
(-0.000578193 0 0.000122252)
(-0.000519244 0 0.000114521)
(-0.000480655 0 6.65448e-05)
(-0.00046002 0 -3.77263e-05)
(-0.000447349 0 -2.42299e-05)
(-0.000454422 0 -8.31209e-05)
(-0.000464203 0 -0.000202872)
(-0.000485048 0 -0.000226091)
(-0.000436586 0 -0.000350074)
(-0.000376118 0 -0.000457347)
(-0.000351359 0 -0.000499839)
(-0.000324678 0 -0.000538461)
(-0.000334484 0 -0.000541196)
(-0.000319311 0 -0.000547497)
(-0.000336708 0 -0.000473073)
(-0.000313763 0 -0.00039842)
(-0.000194614 0 -0.000354541)
(-5.138e-05 0 -0.000262357)
(2.52661e-05 0 -0.000157483)
(7.57315e-05 0 -0.000125624)
(0.000118507 0 -9.61954e-05)
(0.00016078 0 -3.724e-05)
(0.000191128 0 3.4948e-05)
(0.000179117 0 0.000154298)
(0.000207295 0 0.000213425)
(0.000167606 0 0.000297908)
(0.00021456 0 0.000283518)
(0.000112283 0 0.000216191)
(-0.000241351 0 0.000866339)
(9.09982e-06 0 0.000332218)
(-1.11739e-12 0 2.02595e-13)
(-1.21823e-12 0 4.39125e-13)
(1.59787e-13 0 1.85859e-13)
(3.2888e-13 0 3.47861e-14)
(4.26926e-13 0 -5.27889e-14)
(4.95688e-13 0 -1.04971e-13)
(5.5162e-13 0 -1.36872e-13)
(6.01725e-13 0 -1.55442e-13)
(6.48681e-13 0 -1.63527e-13)
(6.9296e-13 0 -1.62282e-13)
(7.33898e-13 0 -1.52427e-13)
(7.70444e-13 0 -1.34782e-13)
(8.01567e-13 0 -1.10388e-13)
(8.26397e-13 0 -8.04782e-14)
(8.44285e-13 0 -4.63906e-14)
(8.5483e-13 0 -9.46413e-15)
(8.57872e-13 0 2.90493e-14)
(8.5345e-13 0 6.80559e-14)
(8.41743e-13 0 1.06655e-13)
(8.23052e-13 0 1.44127e-13)
(7.97839e-13 0 1.79898e-13)
(7.6674e-13 0 2.13507e-13)
(7.30509e-13 0 2.44609e-13)
(6.89926e-13 0 2.72979e-13)
(6.45708e-13 0 2.9852e-13)
(5.98451e-13 0 3.21249e-13)
(5.48606e-13 0 3.41268e-13)
(4.96498e-13 0 3.58727e-13)
(4.42386e-13 0 3.73781e-13)
(3.86518e-13 0 3.86566e-13)
(3.29171e-13 0 3.97196e-13)
(2.7065e-13 0 4.05778e-13)
(2.11263e-13 0 4.1243e-13)
(1.51304e-13 0 4.17293e-13)
(9.10271e-14 0 4.20508e-13)
(3.04191e-14 0 4.22182e-13)
(-4.30526e-05 0 -0.000321847)
(-5.46174e-05 0 -0.00018254)
(-6.72685e-05 0 -6.47847e-05)
(-6.89162e-05 0 1.07271e-05)
(-8.08773e-05 0 3.26041e-05)
(-6.875e-05 0 0.000155258)
(-7.56317e-05 0 0.000263423)
(-0.000228936 0 0.000289935)
(-0.000119937 0 0.000423346)
(-0.000248666 0 0.000530821)
(-0.000319681 0 0.000723697)
(-0.000344391 0 0.000895873)
(-0.000588872 0 0.00102487)
(-0.000679615 0 0.00110461)
(-0.000728098 0 0.00110201)
(-0.00072387 0 0.00106791)
(-0.000819281 0 0.000877777)
(-0.000869266 0 0.000703236)
(-0.000904696 0 0.000540445)
(-0.000850232 0 0.000541613)
(-0.000861542 0 0.000487006)
(-0.000902631 0 0.000372482)
(-0.000921471 0 0.000282413)
(-0.000915222 0 0.000284983)
(-0.000947322 0 0.000134653)
(-0.000943715 0 0.000139455)
(-0.000956078 0 7.12095e-05)
(-0.000969567 0 3.93073e-06)
(-0.000977558 0 -4.10025e-05)
(-0.000980014 0 -5.78733e-05)
(-0.000966937 0 -0.000112023)
(-0.000960372 0 -0.000131062)
(-0.000958533 0 -0.000150796)
(-0.000963321 0 -0.000229418)
(-0.000997001 0 -0.000280819)
(-0.0010345 0 -0.000321833)
(-0.00109864 0 -0.000347119)
(-0.00114504 0 -0.000460377)
(-0.00116265 0 -0.000547507)
(-0.0011794 0 -0.00055199)
(-0.00116976 0 -0.000577076)
(-0.00114097 0 -0.000576623)
(-0.00112338 0 -0.000566198)
(-0.00111734 0 -0.000545877)
(-0.00111435 0 -0.000533529)
(-0.00109513 0 -0.000548935)
(-0.001098 0 -0.000507535)
(-0.00109373 0 -0.000429476)
(-0.0010431 0 -0.000328372)
(-0.000936232 0 -0.000307367)
(-0.000880332 0 -0.000139067)
(-0.000850668 0 -9.19986e-05)
(-0.000817974 0 0.000138184)
(-0.000707544 0 0.000132078)
(-0.000610924 0 5.82952e-05)
(-0.000545012 0 4.60193e-05)
(-0.000508077 0 -5.02642e-06)
(-0.000486165 0 -1.41542e-05)
(-0.000476563 0 -6.20934e-05)
(-0.000474346 0 -7.39423e-05)
(-0.000484661 0 -0.00015935)
(-0.00046706 0 -0.000287669)
(-0.000400106 0 -0.000424802)
(-0.000384818 0 -0.000475758)
(-0.000397097 0 -0.000494603)