0 	1.08887e-20 	0 	-7.25912e-21
0.010101 	-3.19926e-20 	2.3741e-22 	-6.26767e-20
0.020202 	9.47055e-20 	-1.688e-22 	-4.25482e-21
0.030303 	2.25854e-20 	1.70324e-25 	-4.8244e-20
0.040404 	2.93294e-20 	6.77584e-23 	3.56077e-21
0.0505051 	-7.64147e-20 	1.01212e-22 	-2.09172e-20
