0 	-2.22948e-14 	0 	3.79528e-16
0.010101 	-3.36699e-12 	0 	1.77718e-13
0.020202 	-6.60405e-11 	0 	3.49599e-12
0.030303 	-3.82309e-10 	0 	-5.89337e-11
0.040404 	3.38492e-10 	0 	-5.69932e-12
