/*--------------------------------*- C++ -*----------------------------------*\
  =========                 |
  \\      /  F ield         | OpenFOAM: The Open Source CFD Toolbox
   \\    /   O peration     | Website:  https://openfoam.org
    \\  /    A nd           | Version:  6
     \\/     M anipulation  |
\*---------------------------------------------------------------------------*/
FoamFile
{
    version     2.0;
    format      ascii;
    class       surfaceScalarField;
    location    "720";
    object      phi;
}
// * * * * * * * * * * * * * * * * * * * * * * * * * * * * * * * * * * * * * //

dimensions      [0 3 -1 0 0 0 0];

internalField   nonuniform List<scalar> 
11773
(
-4.11457e-08
4.11457e-08
-8.60657e-08
4.48933e-08
-1.0013e-07
1.40427e-08
-1.16042e-07
1.58923e-08
-1.24142e-07
8.07918e-09
-1.13435e-07
-1.07277e-08
-9.88771e-08
-1.4578e-08
-1.03012e-07
4.11419e-09
-9.59433e-08
-7.08908e-09
-8.09032e-08
-1.5061e-08
-7.02737e-08
-1.06503e-08
-6.60638e-08
-4.23087e-09
-5.98349e-08
-6.25e-09
-6.01425e-08
2.8639e-10
-5.84974e-08
-1.6663e-09
-5.23795e-08
-6.13914e-09
-3.82902e-08
-1.41103e-08
-1.9203e-08
-1.91082e-08
5.46463e-11
-1.92786e-08
8.92212e-12
3.28877e-11
1.64248e-13
8.75757e-12
1.18482e-13
4.25018e-14
9.68133e-14
2.16683e-14
8.33978e-14
1.33984e-14
7.39795e-14
9.40118e-15
6.68473e-14
7.11649e-15
6.11909e-14
5.64223e-15
5.65662e-14
4.61195e-15
5.27008e-14
3.85399e-15
4.94136e-14
3.27689e-15
4.65777e-14
2.82667e-15
4.41003e-14
2.469e-15
4.1912e-14
2.18081e-15
3.99592e-14
1.94603e-15
3.82e-14
1.75307e-15
3.66011e-14
1.59337e-15
3.51356e-14
1.46045e-15
3.37818e-14
1.34931e-15
3.25217e-14
1.25603e-15
3.13405e-14
1.17745e-15
3.02261e-14
1.11104e-15
2.91684e-14
1.0547e-15
2.81589e-14
1.00673e-15
2.71906e-14
9.6569e-16
2.62579e-14
9.30402e-16
2.5356e-14
8.99878e-16
2.44807e-14
8.73295e-16
2.3629e-14
8.49967e-16
2.27979e-14
8.29327e-16
2.19855e-14
8.10901e-16
2.11897e-14
7.94301e-16
2.0409e-14
7.79206e-16
1.96423e-14
7.65353e-16
1.88884e-14
7.52528e-16
1.81465e-14
7.40558e-16
1.74159e-14
7.29303e-16
1.66959e-14
7.18652e-16
1.5986e-14
7.08516e-16
1.52857e-14
6.98826e-16
1.45947e-14
6.8953e-16
1.39126e-14
6.80587e-16
1.3239e-14
6.71968e-16
1.25737e-14
6.63651e-16
1.19163e-14
6.55625e-16
1.12666e-14
6.47879e-16
1.06242e-14
6.40411e-16
9.98899e-15
6.3322e-16
9.36056e-15
6.26308e-16
8.73867e-15
6.19682e-16
8.12303e-15
6.13344e-16
7.51334e-15
6.07303e-16
6.9093e-15
6.01564e-16
6.3106e-15
5.96131e-16
5.71695e-15
5.91008e-16
5.12804e-15
5.86195e-16
4.54356e-15
5.8169e-16
3.96322e-15
5.7749e-16
3.38671e-15
5.73591e-16
2.81375e-15
5.69997e-16
2.24405e-15
5.66698e-16
1.67755e-15
5.6346e-16
1.11558e-15
5.58893e-16
5.57967e-16
5.54526e-16
5.54866e-16
-4.96645e-08
9.07833e-08
-6.44185e-08
5.9605e-08
-8.20636e-08
3.16506e-08
-8.59151e-08
1.97073e-08
-9.18202e-08
1.39477e-08
-9.59278e-08
-6.65679e-09
-6.80895e-08
-4.24526e-08
-7.96731e-08
1.56608e-08
-6.65399e-08
-2.02597e-08
-4.52987e-08
-3.63394e-08
-4.10094e-08
-1.49767e-08
-4.51418e-08
-1.35975e-10
-4.63219e-08
-5.10754e-09
-4.31794e-08
-2.89369e-09
-4.20926e-08
-2.79062e-09
-3.50846e-08
-1.31847e-08
-2.69141e-08
-2.23181e-08
-1.30648e-08
-3.29949e-08
1.85635e-11
-3.23912e-08
3.55716e-12
3.80697e-11
1.08101e-13
1.2203e-11
1.00159e-13
4.73349e-14
8.95351e-14
3.22764e-14
7.98768e-14
2.30275e-14
7.19653e-14
1.7285e-14
6.55467e-14
1.351e-14
6.02816e-14
1.08848e-14
5.58971e-14
8.97618e-15
5.21913e-14
7.54155e-15
4.90162e-14
6.4356e-15
4.6262e-14
5.56605e-15
4.38461e-14
4.87157e-15
4.1705e-14
4.30988e-15
3.97892e-14
3.85097e-15
3.80595e-14
3.47298e-15
3.64844e-14
3.15964e-15
3.50383e-14
2.89852e-15
3.37003e-14
2.67999e-15
3.24533e-14
2.49645e-15
3.12831e-14
2.34176e-15
3.01777e-14
2.21096e-15
2.91275e-14
2.09998e-15
2.81243e-14
2.00544e-15
2.71614e-14
1.92454e-15
2.6233e-14
1.85495e-15
2.53347e-14
1.79472e-15
2.44626e-14
1.74224e-15
2.36134e-14
1.69616e-15
2.27845e-14
1.65535e-15
2.19739e-14
1.61888e-15
2.11796e-14
1.58599e-15
2.04003e-14
1.55604e-15
1.96347e-14
1.52853e-15
1.88818e-14
1.50302e-15
1.81407e-14
1.47919e-15
1.74108e-14
1.45675e-15
1.66915e-14
1.43549e-15
1.59822e-14
1.41524e-15
1.52825e-14
1.39586e-15
1.4592e-14
1.37724e-15
1.39104e-14
1.35933e-15
1.32373e-14
1.34204e-15
1.25724e-14
1.32536e-15
1.19155e-14
1.30925e-15
1.12662e-14
1.29369e-15
1.06243e-14
1.27869e-15
9.98944e-15
1.26424e-15
9.36144e-15
1.25035e-15
8.73997e-15
1.23703e-15
8.12474e-15
1.22429e-15
7.51546e-15
1.21214e-15
6.91183e-15
1.2006e-15
6.31354e-15
1.18968e-15
5.72029e-15
1.17939e-15
5.13175e-15
1.16973e-15
4.54763e-15
1.1607e-15
3.96761e-15
1.1523e-15
3.3914e-15
1.14451e-15
2.8187e-15
1.13732e-15
2.24929e-15
1.13068e-15
1.68295e-15
1.12431e-15
1.11944e-15
1.11689e-15
5.58266e-16
1.11016e-15
1.11069e-15
-1.76751e-08
1.08437e-07
-3.69714e-08
7.8865e-08
-6.49365e-08
5.9584e-08
-7.5721e-08
3.04603e-08
-8.11286e-08
1.93237e-08
-9.41933e-08
6.37659e-09
-6.99153e-08
-6.67618e-08
-6.51616e-08
1.08752e-08
-4.2748e-08
-4.27053e-08
-2.31303e-08
-5.59889e-08
-1.42819e-08
-2.3857e-08
-1.5096e-08
6.45979e-10
-1.49484e-08
-5.28727e-09
-1.48835e-08
-2.99092e-09
-1.42622e-08
-3.4441e-09
-1.33294e-08
-1.41497e-08
-1.12249e-08
-2.44547e-08
-7.76665e-09
-3.64849e-08
2.37981e-11
-4.02069e-08
3.11185e-12
4.96344e-11
9.14302e-14
1.52195e-11
8.69122e-14
4.82653e-14
8.13967e-14
3.77791e-14
7.48224e-14
2.95766e-14
6.86418e-14
2.34418e-14
6.3235e-14
1.88952e-14
5.86008e-14
1.54996e-14
5.46336e-14
1.29258e-14
5.12173e-14
1.09421e-14
4.82504e-14
9.38825e-15
4.56505e-14
8.15313e-15
4.33516e-14
7.15886e-15
4.13011e-14
6.3499e-15
3.94567e-14
5.68594e-15
3.7784e-14
5.13713e-15
3.6255e-14
4.68093e-15
3.48465e-14
4.29997e-15
3.35395e-14
3.98065e-15
3.23181e-14
3.71212e-15
3.1169e-14
3.48561e-15
3.00813e-14
3.29394e-15
2.90457e-14
3.13121e-15
2.80547e-14
2.9925e-15
2.71019e-14
2.87374e-15
2.6182e-14
2.77151e-15
2.52907e-14
2.68297e-15
2.44244e-14
2.60575e-15
2.35801e-14
2.53786e-15
2.27553e-14
2.47767e-15
2.1948e-14
2.42382e-15
2.11565e-14
2.37518e-15
2.03796e-14
2.33083e-15
1.96159e-14
2.29002e-15
1.88647e-14
2.25213e-15
1.81251e-14
2.21668e-15
1.73965e-14
2.18326e-15
1.66782e-14
2.15155e-15
1.59699e-14
2.12131e-15
1.52711e-14
2.09235e-15
1.45815e-14
2.06451e-15
1.39006e-14
2.03769e-15
1.32282e-14
2.0118e-15
1.25641e-14
1.9868e-15
1.19078e-14
1.96264e-15
1.12592e-14
1.93931e-15
1.06179e-14
1.9168e-15
9.98378e-15
1.89511e-15
9.35644e-15
1.87426e-15
8.73565e-15
1.85426e-15
8.12109e-15
1.83513e-15
7.5125e-15
1.8169e-15
6.90955e-15
1.79958e-15
6.31195e-15
1.78319e-15
5.71937e-15
1.76776e-15
5.1315e-15
1.75328e-15
4.54802e-15
1.73976e-15
3.96861e-15
1.7272e-15
3.39296e-15
1.71557e-15
2.82077e-15
1.70484e-15
2.2518e-15
1.69493e-15
1.68569e-15
1.68566e-15
1.12134e-15
1.67646e-15
5.58734e-16
1.66796e-15
1.66706e-15
-1.74527e-08
1.2587e-07
-3.92445e-08
1.00622e-07
-5.84775e-08
7.87866e-08
-7.80176e-08
4.99701e-08
-8.17962e-08
2.30723e-08
-7.9803e-08
4.35324e-09
-8.69571e-08
-5.96383e-08
-4.33084e-08
-3.28041e-08
-2.36081e-08
-6.24364e-08
-2.30207e-08
-5.66073e-08
-5.71416e-09
-4.11945e-08
1.20353e-08
-1.71347e-08
1.9081e-08
-1.23641e-08
1.84989e-08
-2.43987e-09
9.60555e-09
5.41818e-09
8.08884e-10
-5.38398e-09
-3.33241e-09
-2.03442e-08
-3.75116e-09
-3.60968e-08
3.49696e-11
-4.40173e-08
4.53622e-12
7.1215e-11
8.19103e-14
1.96685e-11
7.76841e-14
4.80059e-14
7.41789e-14
4.1272e-14
6.94241e-14
3.43072e-14
6.4641e-14
2.8202e-14
6.0247e-14
2.32686e-14
5.63359e-14
1.93919e-14
5.2888e-14
1.63568e-14
4.98499e-14
1.3965e-14
4.71636e-14
1.20608e-14
4.47756e-14
1.05286e-14
4.26399e-14
9.28335e-15
4.07171e-14
8.26254e-15
3.89741e-14
7.41974e-15
3.73829e-14
6.71989e-15
3.59202e-14
6.13606e-15
3.45661e-14
5.6472e-15
3.3304e-14
5.2366e-15
3.21196e-14
4.89078e-15
3.10014e-14
4.59872e-15
2.99393e-14
4.35136e-15
2.8925e-14
4.14117e-15
2.79518e-14
3.96187e-15
2.70137e-14
3.80823e-15
2.61061e-14
3.67585e-15
2.52249e-14
3.56108e-15
2.4367e-14
3.46084e-15
2.35297e-14
3.37259e-15
2.27107e-14
3.29422e-15
2.19082e-14
3.22396e-15
2.11208e-14
3.16038e-15
2.03471e-14
3.1023e-15
1.95863e-14
3.04873e-15
1.88374e-14
2.99891e-15
1.80999e-14
2.95219e-15
1.73729e-14
2.90806e-15
1.66562e-14
2.86613e-15
1.59492e-14
2.82609e-15
1.52517e-14
2.78767e-15
1.45631e-14
2.75071e-15
1.38833e-14
2.71506e-15
1.32119e-14
2.68063e-15
1.25486e-14
2.64734e-15
1.18933e-14
2.61516e-15
1.12456e-14
2.58406e-15
1.06053e-14
2.55405e-15
9.97201e-15
2.52513e-15
9.3456e-15
2.49731e-15
8.72573e-15
2.47063e-15
8.11211e-15
2.4451e-15
7.50447e-15
2.42077e-15
6.90248e-15
2.39766e-15
6.30584e-15
2.37581e-15
5.71423e-15
2.35523e-15
5.12732e-15
2.33594e-15
4.54478e-15
2.31796e-15
3.96626e-15
2.30128e-15
3.39145e-15
2.28587e-15
2.82001e-15
2.2717e-15
2.25165e-15
2.25867e-15
1.68594e-15
2.2467e-15
1.12193e-15
2.23576e-15
5.58775e-16
2.2264e-15
2.22348e-15
-2.2841e-08
1.48691e-07
-4.44942e-08
1.22241e-07
-5.20589e-08
8.63217e-08
-6.81983e-08
6.60803e-08
-7.4209e-08
2.9054e-08
-7.03892e-08
5.04088e-10
-7.92769e-08
-5.07802e-08
-5.2789e-08
-5.93218e-08
-4.19476e-08
-7.33076e-08
-1.9732e-08
-7.88529e-08
7.23621e-09
-6.81931e-08
2.98377e-08
-3.97664e-08
3.30499e-08
-1.56064e-08
3.20732e-08
-1.49319e-09
2.78763e-08
9.58488e-09
1.98105e-08
2.65184e-09
1.35174e-08
-1.4081e-08
5.9199e-09
-2.8529e-08
2.35095e-10
-3.83561e-08
8.11256e-12
2.89667e-10
7.6673e-14
2.76837e-11
7.17546e-14
4.62492e-14
6.80505e-14
4.49642e-14
6.40535e-14
3.82809e-14
6.03016e-14
3.19317e-14
5.68372e-14
2.67129e-14
5.36663e-14
2.25447e-14
5.07842e-14
1.92225e-14
4.81751e-14
1.65593e-14
4.58159e-14
1.44066e-14
4.36804e-14
1.2652e-14
4.17421e-14
1.12106e-14
3.99759e-14
1.00187e-14
3.83587e-14
9.02789e-15
3.68697e-14
8.20063e-15
3.54906e-14
7.50764e-15
3.42055e-14
6.92555e-15
3.30004e-14
6.43549e-15
3.18635e-14
6.02202e-15
3.07847e-14
5.67237e-15
2.97555e-14
5.37591e-15
2.87686e-14
5.12376e-15
2.78181e-14
4.90847e-15
2.68989e-14
4.72379e-15
2.6007e-14
4.56448e-15
2.51389e-14
4.42615e-15
2.42917e-14
4.30514e-15
2.34633e-14
4.19839e-15
2.26516e-14
4.10337e-15
2.18553e-14
4.01798e-15
2.10729e-14
3.94051e-15
2.03035e-14
3.86953e-15
1.95462e-14
3.80391e-15
1.88003e-14
3.7427e-15
1.80652e-14
3.68517e-15
1.73404e-14
3.6307e-15
1.66256e-14
3.57883e-15
1.59203e-14
3.52919e-15
1.52242e-14
3.4815e-15
1.4537e-14
3.43554e-15
1.38584e-14
3.39116e-15
1.31882e-14
3.34824e-15
1.25262e-14
3.30671e-15
1.1872e-14
3.26654e-15
1.12254e-14
3.22769e-15
1.05862e-14
3.19017e-15
9.95414e-15
3.15401e-15
9.32889e-15
3.11921e-15
8.7102e-15
3.08582e-15
8.09779e-15
3.05389e-15
7.49137e-15
3.02344e-15
6.89062e-15
2.99452e-15
6.29524e-15
2.96718e-15
5.70488e-15
2.94145e-15
5.11923e-15
2.91736e-15
4.53793e-15
2.89493e-15
3.96063e-15
2.87416e-15
3.38696e-15
2.85504e-15
2.81657e-15
2.83752e-15
2.24908e-15
2.82154e-15
1.68407e-15
2.80706e-15
1.12089e-15
2.79426e-15
5.586e-16
2.78399e-15
2.77973e-15
-2.46295e-08
1.73301e-07
-4.66245e-08
1.44204e-07
-6.24904e-08
1.02159e-07
-6.37718e-08
6.73339e-08
-7.63497e-08
4.16042e-08
-7.14867e-08
-4.3873e-09
-6.95537e-08
-5.27422e-08
-6.03077e-08
-6.85963e-08
-4.32759e-08
-9.03682e-08
-2.05161e-08
-1.01642e-07
-3.21874e-09
-8.55199e-08
2.41046e-08
-6.7119e-08
4.42059e-08
-3.57369e-08
4.04092e-08
2.27438e-09
3.38667e-08
1.60982e-08
2.50358e-08
1.14539e-08
2.5337e-08
-1.4411e-08
2.3971e-08
-2.71917e-08
5.85547e-09
-2.02632e-08
9.97811e-12
6.12667e-09
1.04909e-13
3.6829e-11
7.06174e-14
7.8709e-14
6.21726e-14
5.33977e-14
5.84709e-14
4.19603e-14
5.57132e-14
3.46683e-14
5.31725e-14
2.92344e-14
5.07455e-14
2.49543e-14
4.84427e-14
2.15096e-14
4.62824e-14
1.87052e-14
4.42731e-14
1.6403e-14
4.2413e-14
1.45002e-14
4.06941e-14
1.29187e-14
3.91047e-14
1.15984e-14
3.76314e-14
1.04923e-14
3.62605e-14
9.56339e-15
3.4979e-14
8.78171e-15
3.37749e-14
8.12293e-15
3.26373e-14
7.56695e-15
3.15567e-14
7.09703e-15
3.05248e-14
6.69909e-15
2.95347e-14
6.36132e-15
2.85804e-14
6.07374e-15
2.7657e-14
5.82793e-15
2.67604e-14
5.61681e-15
2.58871e-14
5.43441e-15
2.50345e-14
5.27574e-15
2.42001e-14
5.13663e-15
2.33822e-14
5.0136e-15
2.25793e-14
4.90377e-15
2.17901e-14
4.80477e-15
2.10137e-14
4.71465e-15
2.02492e-14
4.6318e-15
1.9496e-14
4.55494e-15
1.87536e-14
4.48302e-15
1.80214e-14
4.4152e-15
1.72992e-14
4.35081e-15
1.65865e-14
4.28933e-15
1.58831e-14
4.23036e-15
1.51888e-14
4.17358e-15
1.45032e-14
4.11877e-15
1.38261e-14
4.06576e-15
1.31574e-14
4.01442e-15
1.24967e-14
3.9647e-15
1.18439e-14
3.91655e-15
1.11987e-14
3.86996e-15
1.05609e-14
3.82494e-15
9.93016e-15
3.78151e-15
9.30632e-15
3.73971e-15
8.68907e-15
3.6996e-15
8.07812e-15
3.66121e-15
7.47319e-15
3.62462e-15
6.87396e-15
3.58987e-15
6.28012e-15
3.55703e-15
5.69133e-15
3.52613e-15
5.10725e-15
3.49722e-15
4.52751e-15
3.47035e-15
3.95175e-15
3.44551e-15
3.37958e-15
3.42273e-15
2.81059e-15
3.40196e-15
2.24437e-15
3.38316e-15
1.68048e-15
3.36631e-15
1.11849e-15
3.35158e-15
5.57952e-16
3.33983e-15
3.33534e-15
-6.2545e-09
1.79537e-07
-1.83185e-08
1.56236e-07
-3.9445e-08
1.23257e-07
-4.61605e-08
7.40226e-08
-5.20584e-08
4.74751e-08
-5.10629e-08
-5.41053e-09
-4.2269e-08
-6.15637e-08
-2.3602e-08
-8.72909e-08
-6.04751e-09
-1.07951e-07
2.15005e-09
-1.09868e-07
1.64679e-08
-9.98658e-08
2.36391e-08
-7.43182e-08
4.26224e-08
-5.47483e-08
4.06323e-08
4.23652e-09
3.19636e-08
2.4739e-08
2.14238e-08
2.19661e-08
1.49061e-08
-7.92072e-09
1.16403e-08
-2.39531e-08
7.90265e-09
-1.65473e-08
-2.87974e-11
1.40447e-08
2.68127e-14
4.86086e-14
4.83728e-14
5.71489e-14
5.21216e-14
4.96275e-14
5.20629e-14
4.19972e-14
5.09381e-14
3.5773e-14
4.94111e-14
3.07432e-14
4.77181e-14
2.66307e-14
4.59778e-14
2.32348e-14
4.42589e-14
2.04104e-14
4.26005e-14
1.80489e-14
4.10228e-14
1.60665e-14
3.95334e-14
1.43977e-14
3.81323e-14
1.299e-14
3.68147e-14
1.18013e-14
3.55733e-14
1.07968e-14
3.43999e-14
9.94779e-15
3.32863e-14
9.22994e-15
3.22244e-14
8.62272e-15
3.12073e-14
8.10863e-15
3.02285e-14
7.67277e-15
2.92827e-14
7.30242e-15
2.83653e-14
6.98678e-15
2.74726e-14
6.71666e-15
2.66015e-14
6.48431e-15
2.57493e-14
6.28321e-15
2.49141e-14
6.10786e-15
2.40941e-14
5.9537e-15
2.32881e-14
5.81692e-15
2.24949e-14
5.69438e-15
2.17138e-14
5.58348e-15
2.0944e-14
5.48211e-15
2.0185e-14
5.38853e-15
1.94364e-14
5.30136e-15
1.86978e-14
5.21946e-15
1.79689e-14
5.14195e-15
1.72495e-14
5.06811e-15
1.65393e-14
4.99738e-15
1.5838e-14
4.92936e-15
1.51456e-14
4.86371e-15
1.44618e-14
4.8002e-15
1.37865e-14
4.73866e-15
1.31194e-14
4.67899e-15
1.24603e-14
4.62111e-15
1.1809e-14
4.565e-15
1.11654e-14
4.51067e-15
1.05292e-14
4.45812e-15
9.90006e-15
4.40741e-15
9.27786e-15
4.35858e-15
8.6623e-15
4.31169e-15
8.05308e-15
4.26683e-15
7.44991e-15
4.22405e-15
6.85249e-15
4.18343e-15
6.26049e-15
4.14504e-15
5.67357e-15
4.10895e-15
5.09138e-15
4.07521e-15
4.51354e-15
4.04387e-15
3.93967e-15
4.01498e-15
3.36937e-15
3.98855e-15
2.8022e-15
3.96459e-15
2.2377e-15
3.94307e-15
1.67543e-15
3.92394e-15
1.1151e-15
3.90725e-15
5.56592e-16
3.89366e-15
3.8896e-15
-2.06055e-08
2.00125e-07
-2.18699e-08
1.5747e-07
-2.28984e-08
1.2426e-07
-2.56291e-08
7.67277e-08
-1.45656e-08
3.63857e-08
-1.10679e-08
-8.93456e-09
1.45097e-09
-7.41089e-08
2.66939e-08
-1.1256e-07
3.65829e-08
-1.17867e-07
4.34549e-08
-1.16767e-07
4.64431e-08
-1.0288e-07
4.16676e-08
-6.95692e-08
4.17756e-08
-5.48829e-08
3.33483e-08
1.26374e-08
2.53339e-08
3.27273e-08
1.77117e-08
2.95624e-08
1.61504e-08
-6.38545e-09
1.1131e-08
-1.89594e-08
-8.7428e-10
-4.56742e-09
7.64924e-12
1.31421e-08
3.43521e-14
4.8549e-14
4.17744e-14
4.97163e-14
4.54221e-14
4.59586e-14
4.65967e-14
4.08021e-14
4.65202e-14
3.58308e-14
4.57985e-14
3.14478e-14
4.47346e-14
2.76791e-14
4.34962e-14
2.44589e-14
4.21838e-14
2.17098e-14
4.08584e-14
1.93624e-14
3.95559e-14
1.73581e-14
3.8296e-14
1.56476e-14
3.70873e-14
1.41896e-14
3.59316e-14
1.29486e-14
3.48268e-14
1.18938e-14
3.37688e-14
1.09987e-14
3.27525e-14
1.02398e-14
3.17726e-14
9.59659e-15
3.08243e-14
9.0514e-15
2.99033e-14
8.58873e-15
2.90058e-14
8.19527e-15
2.81287e-14
7.85958e-15
2.72694e-14
7.57195e-15
2.6426e-14
7.3241e-15
2.55967e-14
7.10908e-15
2.47803e-14
6.92107e-15
2.39759e-14
6.75519e-15
2.31827e-14
6.60742e-15
2.24e-14
6.47444e-15
2.16275e-14
6.35352e-15
2.08648e-14
6.24242e-15
2.01118e-14
6.13935e-15
1.9368e-14
6.04286e-15
1.86336e-14
5.95178e-15
1.79081e-14
5.8652e-15
1.71917e-14
5.7824e-15
1.64841e-14
5.70282e-15
1.57852e-14
5.62603e-15
1.50949e-14
5.55172e-15
1.4413e-14
5.47966e-15
1.37395e-14
5.40971e-15
1.30742e-14
5.34176e-15
1.24169e-14
5.27576e-15
1.17674e-14
5.21171e-15
1.11255e-14
5.14962e-15
1.04911e-14
5.08952e-15
9.8638e-15
5.03148e-15
9.24349e-15
4.97557e-15
8.62986e-15
4.92187e-15
8.02263e-15
4.87047e-15
7.42151e-15
4.82145e-15
6.82618e-15
4.7749e-15
6.23632e-15
4.73092e-15
5.65159e-15
4.68959e-15
5.07162e-15
4.65098e-15
4.49603e-15
4.61517e-15
3.92442e-15
4.5822e-15
3.35639e-15
4.55213e-15
2.79147e-15
4.52498e-15
2.2292e-15
4.50076e-15
1.66912e-15
4.4794e-15
1.11089e-15
4.46083e-15
5.54384e-16
4.4455e-15
4.44165e-15
-5.39597e-09
2.05503e-07
-1.22902e-08
1.64335e-07
-1.17564e-08
1.23701e-07
-1.50312e-08
7.99779e-08
3.68275e-09
1.76469e-08
3.11505e-08
-3.64271e-08
3.53302e-08
-7.83137e-08
4.22967e-08
-1.19552e-07
5.7455e-08
-1.3305e-07
6.41402e-08
-1.23477e-07
6.5074e-08
-1.03839e-07
5.63007e-08
-6.08208e-08
4.31219e-08
-4.1729e-08
2.66432e-08
2.90912e-08
1.63435e-08
4.30025e-08
7.27922e-09
3.86022e-08
3.40524e-09
-2.53586e-09
2.67875e-09
-1.82572e-08
-5.87328e-09
3.96033e-09
4.66975e-12
7.24506e-09
3.54093e-14
4.54586e-14
3.84875e-14
4.66277e-14
4.09001e-14
4.35258e-14
4.22342e-14
3.94491e-14
4.26725e-14
3.53752e-14
4.24894e-14
3.16151e-14
4.19065e-14
2.82475e-14
4.10815e-14
2.52706e-14
4.01216e-14
2.26575e-14
3.90972e-14
2.03756e-14
3.80528e-14
1.83922e-14
3.70145e-14
1.66764e-14
3.59963e-14
1.51991e-14
3.50042e-14
1.39326e-14
3.40397e-14
1.28509e-14
3.31014e-14
1.19301e-14
3.21869e-14
1.11479e-14
3.12932e-14
1.04844e-14
3.04176e-14
9.92158e-15
2.95576e-14
9.44375e-15
2.87111e-14
9.03716e-15
2.78764e-14
8.68996e-15
2.70524e-14
8.39202e-15
2.62381e-14
8.13476e-15
2.54328e-14
7.91093e-15
2.46362e-14
7.71451e-15
2.3848e-14
7.54046e-15
2.3068e-14
7.38462e-15
2.22962e-14
7.2436e-15
2.15326e-14
7.1146e-15
2.07773e-14
6.99537e-15
2.00303e-14
6.88409e-15
1.92916e-14
6.77931e-15
1.85613e-14
6.67987e-15
1.78395e-14
6.58487e-15
1.71261e-14
6.4936e-15
1.64212e-14
6.40554e-15
1.57247e-14
6.32027e-15
1.50366e-14
6.23751e-15
1.43568e-14
6.15706e-15
1.36853e-14
6.07878e-15
1.30219e-14
6.00261e-15
1.23665e-14
5.92851e-15
1.17189e-14
5.8565e-15
1.1079e-14
5.78663e-15
1.04466e-14
5.71894e-15
9.82136e-15
5.65353e-15
9.20316e-15
5.59047e-15
8.59171e-15
5.52989e-15
7.98673e-15
5.47187e-15
7.38793e-15
5.41654e-15
6.79499e-15
5.364e-15
6.20758e-15
5.31437e-15
5.62536e-15
5.26774e-15
5.04795e-15
5.22421e-15
4.47496e-15
5.18387e-15
3.90599e-15
5.14679e-15
3.34062e-15
5.11304e-15
2.77842e-15
5.08267e-15
2.2189e-15
5.05571e-15
1.66158e-15
5.03212e-15
1.10591e-15
5.01186e-15
5.51313e-16
4.99545e-15
4.99065e-15
-4.65437e-09
2.10142e-07
-1.20521e-08
1.71707e-07
-8.4972e-09
1.20124e-07
4.01025e-09
6.74472e-08
3.05146e-08
-8.8808e-09
5.40648e-08
-6.00007e-08
7.70984e-08
-1.01371e-07
8.64598e-08
-1.28937e-07
8.65148e-08
-1.33128e-07
8.33006e-08
-1.20285e-07
7.6388e-08
-9.69496e-08
6.74062e-08
-5.18626e-08
3.86649e-08
-1.30112e-08
2.5795e-08
4.19378e-08
1.62324e-08
5.25423e-08
8.90416e-09
4.59077e-08
2.73335e-09
3.61229e-09
-6.5947e-10
-1.48868e-08
-6.65933e-09
9.93866e-09
6.38896e-14
5.75961e-10
3.6452e-14
5.98401e-14
3.57753e-14
4.72949e-14
3.73281e-14
4.19551e-14
3.86617e-14
3.80985e-14
3.93735e-14
3.46477e-14
3.95337e-14
3.14404e-14
3.9293e-14
2.8475e-14
3.87868e-14
2.57646e-14
3.81172e-14
2.33159e-14
3.73547e-14
2.11277e-14
3.65451e-14
1.91922e-14
3.5716e-14
1.74967e-14
3.48828e-14
1.60241e-14
3.40531e-14
1.47547e-14
3.32298e-14
1.36672e-14
3.24133e-14
1.274e-14
3.16031e-14
1.1952e-14
3.07981e-14
1.12837e-14
2.99973e-14
1.07171e-14
2.92001e-14
1.02361e-14
2.8406e-14
9.8267e-15
2.76149e-14
9.47683e-15
2.68269e-14
9.1761e-15
2.60422e-14
8.91574e-15
2.52614e-14
8.68841e-15
2.44847e-14
8.48798e-15
2.37128e-14
8.30939e-15
2.29461e-14
8.14848e-15
2.21852e-14
8.00186e-15
2.14305e-14
7.86677e-15
2.06825e-14
7.74101e-15
1.99414e-14
7.62281e-15
1.92077e-14
7.51076e-15
1.84816e-14
7.40377e-15
1.77633e-14
7.30097e-15
1.7053e-14
7.20173e-15
1.63508e-14
7.10554e-15
1.56568e-14
7.01206e-15
1.4971e-14
6.92104e-15
1.42934e-14
6.83231e-15
1.36239e-14
6.74578e-15
1.29626e-14
6.66142e-15
1.23092e-14
6.57922e-15
1.16637e-14
6.49924e-15
1.10259e-14
6.42153e-15
1.03956e-14
6.34619e-15
9.77268e-15
6.27333e-15
9.15682e-15
6.20305e-15
8.54779e-15
6.13549e-15
7.94532e-15
6.07078e-15
7.34912e-15
6.00905e-15
6.75887e-15
5.95044e-15
6.17423e-15
5.89507e-15
5.59484e-15
5.84307e-15
5.02033e-15
5.79456e-15
4.45031e-15
5.74963e-15
3.88435e-15
5.70839e-15
3.32205e-15
5.67092e-15
2.76295e-15
5.63727e-15
2.20662e-15
5.6075e-15
1.65251e-15
5.58163e-15
1.09993e-15
5.55983e-15
5.47844e-16
5.5429e-15
5.53618e-15
-2.07626e-09
2.12204e-07
-2.8055e-09
1.72413e-07
-2.99064e-09
1.20288e-07
2.09621e-09
6.23389e-08
3.23151e-08
-3.91215e-08
6.46001e-08
-9.23075e-08
9.43132e-08
-1.31106e-07
1.04509e-07
-1.39154e-07
1.02846e-07
-1.31487e-07
9.60835e-08
-1.13544e-07
7.83967e-08
-7.92845e-08
6.55072e-08
-3.89953e-08
3.12901e-08
2.1184e-08
1.91195e-08
5.40869e-08
2.17191e-09
6.94687e-08
-7.88084e-10
4.88468e-08
-2.11585e-09
4.91954e-09
-6.20855e-09
-1.08141e-08
1.09363e-09
2.62102e-09
7.25807e-15
1.66458e-09
2.54411e-14
4.16541e-14
3.10973e-14
4.16234e-14
3.39505e-14
3.90859e-14
3.56377e-14
3.63963e-14
3.65612e-14
3.37102e-14
3.69321e-14
3.10567e-14
3.69142e-14
2.84809e-14
3.6637e-14
2.60309e-14
3.61955e-14
2.37473e-14
3.56545e-14
2.16592e-14
3.50553e-14
1.97827e-14
3.44217e-14
1.81221e-14
3.37667e-14
1.66714e-14
3.30967e-14
1.54177e-14
3.2414e-14
1.43431e-14
3.172e-14
1.34279e-14
3.10149e-14
1.26513e-14
3.02993e-14
1.19939e-14
2.95739e-14
1.14373e-14
2.88399e-14
1.09654e-14
2.80983e-14
1.05638e-14
2.73506e-14
1.02203e-14
2.65984e-14
9.92445e-15
2.58431e-14
9.66743e-15
2.50862e-14
9.44194e-15
2.4329e-14
9.24194e-15
2.3573e-14
9.06245e-15
2.28192e-14
8.89944e-15
2.20688e-14
8.74963e-15
2.13226e-14
8.61042e-15
2.05815e-14
8.47969e-15
1.98462e-14
8.3558e-15
1.91172e-14
8.23747e-15
1.83951e-14
8.12367e-15
1.76802e-14
8.01367e-15
1.69729e-14
7.90688e-15
1.62733e-14
7.8029e-15
1.55817e-14
7.70144e-15
1.48981e-14
7.60231e-15
1.42226e-14
7.5054e-15
1.35553e-14
7.41067e-15
1.28961e-14
7.31812e-15
1.22449e-14
7.22779e-15
1.16016e-14
7.13978e-15
1.09661e-14
7.05418e-15
1.03382e-14
6.9711e-15
9.7177e-15
6.89069e-15
9.1044e-15
6.81309e-15
8.49804e-15
6.73846e-15
7.89834e-15
6.66695e-15
7.30502e-15
6.59871e-15
6.71775e-15
6.53392e-15
6.1362e-15
6.47271e-15
5.55998e-15
6.41525e-15
4.98873e-15
6.36166e-15
4.42204e-15
6.31208e-15
3.85947e-15
6.26662e-15
3.3006e-15
6.22538e-15
2.74499e-15
6.18841e-15
2.19218e-15
6.15578e-15
1.64166e-15
6.12759e-15
1.09274e-15
6.10415e-15
5.44432e-16
6.0866e-15
6.07831e-15
5.72142e-10
2.11618e-07
4.99492e-09
1.67967e-07
7.93567e-09
1.17327e-07
1.75081e-08
5.27462e-08
4.4401e-08
-6.60347e-08
7.48481e-08
-1.22775e-07
9.59206e-08
-1.52198e-07
1.05188e-07
-1.48441e-07
1.07511e-07
-1.33829e-07
1.058e-07
-1.11853e-07
9.12849e-08
-6.47895e-08
5.87343e-08
-6.46499e-09
2.96255e-08
5.02729e-08
1.31236e-08
7.05692e-08
-1.49493e-09
8.4068e-08
-5.08522e-09
5.24184e-08
-1.0558e-08
1.03743e-08
-7.47153e-09
-1.39183e-08
1.76132e-08
-2.24769e-08
6.33111e-13
1.92726e-08
2.54424e-14
4.66187e-14
2.88858e-14
3.81719e-14
3.15994e-14
3.6359e-14
3.32859e-14
3.46969e-14
3.42355e-14
3.27486e-14
3.4673e-14
3.0608e-14
3.47644e-14
2.83791e-14
3.46325e-14
2.61532e-14
3.43619e-14
2.40089e-14
3.40063e-14
2.20065e-14
3.35961e-14
2.01852e-14
3.31465e-14
1.85643e-14
3.26643e-14
1.71468e-14
3.21514e-14
1.59241e-14
3.16085e-14
1.48799e-14
3.10362e-14
1.39944e-14
3.04358e-14
1.32464e-14
2.98089e-14
1.26156e-14
2.91581e-14
1.20833e-14
2.84861e-14
1.16329e-14
2.77958e-14
1.12498e-14
2.70903e-14
1.09218e-14
2.63726e-14
1.06384e-14
2.56453e-14
1.03911e-14
2.49111e-14
1.01728e-14
2.41724e-14
9.97752e-15
2.34312e-14
9.80068e-15
2.26894e-14
9.63844e-15
2.19486e-14
9.48776e-15
2.12102e-14
9.34625e-15
2.04755e-14
9.21202e-15
1.97454e-14
9.0836e-15
1.90207e-14
8.95986e-15
1.83022e-14
8.83995e-15
1.75904e-14
8.72325e-15
1.68858e-14
8.6093e-15
1.61887e-14
8.49779e-15
1.54994e-14
8.38852e-15
1.48181e-14
8.28139e-15
1.41448e-14
8.17635e-15
1.34796e-14
8.07341e-15
1.28225e-14
7.97265e-15
1.21736e-14
7.87414e-15
1.15326e-14
7.77802e-15
1.08995e-14
7.68442e-15
1.02742e-14
7.5935e-15
9.65633e-15
7.50543e-15
9.0458e-15
7.42038e-15
8.44235e-15
7.33854e-15
7.84569e-15
7.2601e-15
7.25554e-15
7.18523e-15
6.67156e-15
7.11413e-15
6.09341e-15
7.04697e-15
5.52072e-15
6.98393e-15
4.95309e-15
6.92517e-15
4.3901e-15
6.87085e-15
3.83132e-15
6.8211e-15
3.27629e-15
6.77602e-15
2.72454e-15
6.7357e-15
2.17562e-15
6.7002e-15
1.62908e-15
6.66959e-15
1.0844e-15
6.64426e-15
5.4094e-16
6.62546e-15
6.61697e-15
3.30128e-09
2.08305e-07
1.16965e-08
1.59551e-07
1.73602e-08
1.11644e-07
3.30999e-08
3.69874e-08
5.27767e-08
-8.57302e-08
8.07923e-08
-1.50809e-07
9.58497e-08
-1.67274e-07
1.04773e-07
-1.57383e-07
1.0542e-07
-1.34496e-07
8.86531e-08
-9.51051e-08
7.52358e-08
-5.13912e-08
4.33402e-08
2.54121e-08
1.7664e-08
7.5931e-08
4.749e-09
8.34665e-08
-4.51717e-09
9.33169e-08
-1.4311e-08
6.21955e-08
-2.57386e-08
2.17859e-08
-2.74819e-08
-1.21902e-08
-2.59178e-08
-2.40522e-08
2.23889e-10
-6.87582e-09
1.81148e-14
2.20164e-10
2.73115e-14
2.89684e-14
3.01504e-14
3.35092e-14
3.15815e-14
3.3255e-14
3.23598e-14
3.19602e-14
3.27184e-14
3.02399e-14
3.28116e-14
2.8277e-14
3.27504e-14
2.62062e-14
3.26037e-14
2.41479e-14
3.24065e-14
2.21965e-14
3.21717e-14
2.04131e-14
3.19004e-14
1.88292e-14
3.15888e-14
1.74524e-14
3.12324e-14
1.62747e-14
3.08286e-14
1.52782e-14
3.03772e-14
1.44406e-14
2.98797e-14
1.37389e-14
2.93395e-14
1.31511e-14
2.87607e-14
1.26575e-14
2.81481e-14
1.22411e-14
2.75065e-14
1.18873e-14
2.68406e-14
1.15838e-14
2.61549e-14
1.13205e-14
2.54535e-14
1.10891e-14
2.474e-14
1.0883e-14
2.40179e-14
1.06966e-14
2.32899e-14
1.05257e-14
2.25586e-14
1.03669e-14
2.18263e-14
1.02175e-14
2.10947e-14
1.00753e-14
2.03654e-14
9.9389e-15
1.96397e-14
9.80693e-15
1.89188e-14
9.67855e-15
1.82034e-14
9.5531e-15
1.74943e-14
9.43011e-15
1.67922e-14
9.30929e-15
1.60973e-14
9.19044e-15
1.54102e-14
9.07348e-15
1.47309e-14
8.95839e-15
1.40597e-14
8.84522e-15
1.33967e-14
8.73404e-15
1.27418e-14
8.62499e-15
1.20952e-14
8.5182e-15
1.14567e-14
8.41386e-15
1.08261e-14
8.31213e-15
1.02035e-14
8.21323e-15
9.58846e-15
8.11735e-15
8.98093e-15
8.0247e-15
8.38063e-15
7.93551e-15
7.78727e-15
7.84998e-15
7.20057e-15
7.76833e-15
6.62019e-15
7.69077e-15
6.04578e-15
7.61752e-15
5.47696e-15
7.54877e-15
4.91333e-15
7.48472e-15
4.35445e-15
7.42554e-15
3.79987e-15
7.37139e-15
3.24911e-15
7.32242e-15
2.70169e-15
7.2787e-15
2.15713e-15
7.24027e-15
1.61504e-15
7.20715e-15
1.07509e-15
7.17966e-15
5.36884e-16
7.1591e-15
7.15157e-15
1.89094e-09
2.06401e-07
9.41176e-09
1.52008e-07
1.86284e-08
1.02409e-07
4.68202e-08
8.77745e-09
6.77156e-08
-1.06643e-07
8.27464e-08
-1.65857e-07
8.49301e-08
-1.69475e-07
8.55056e-08
-1.57976e-07
7.92264e-08
-1.28234e-07
6.37935e-08
-7.96896e-08
4.98981e-08
-3.75132e-08
3.10516e-08
4.42417e-08
1.61914e-08
9.07748e-08
5.49103e-09
9.41509e-08
-3.33471e-09
1.02127e-07
-1.20413e-08
7.08875e-08
-1.65188e-08
2.62497e-08
-2.15874e-08
-7.13443e-09
-2.38639e-08
-2.17877e-08
3.86804e-09
-3.46171e-08
9.45684e-14
4.08545e-09
3.1315e-14
4.76207e-14
2.99346e-14
3.48841e-14
3.04488e-14
3.27321e-14
3.0852e-14
3.15489e-14
3.09969e-14
3.00875e-14
3.09946e-14
2.82721e-14
3.09438e-14
2.62502e-14
3.08903e-14
2.41952e-14
3.08401e-14
2.22407e-14
3.07798e-14
2.04677e-14
3.06899e-14
1.89136e-14
3.05525e-14
1.75846e-14
3.03549e-14
1.64674e-14
3.00905e-14
1.55379e-14
2.97582e-14
1.47683e-14
2.93608e-14
1.41318e-14
2.89035e-14
1.36041e-14
2.83927e-14
1.31642e-14
2.78354e-14
1.27945e-14
2.72383e-14
1.24805e-14
2.66082e-14
1.22103e-14
2.59509e-14
1.19742e-14
2.52721e-14
1.17646e-14
2.45764e-14
1.15754e-14
2.38683e-14
1.14017e-14
2.31514e-14
1.12398e-14
2.24288e-14
1.10868e-14
2.17033e-14
1.09404e-14
2.09771e-14
1.07991e-14
2.02521e-14
1.06615e-14
1.953e-14
1.05268e-14
1.88119e-14
1.03944e-14
1.8099e-14
1.02638e-14
1.73922e-14
1.01348e-14
1.66921e-14
1.00073e-14
1.59992e-14
9.88116e-15
1.53139e-14
9.75654e-15
1.46366e-14
9.63347e-15
1.39674e-14
9.5121e-15
1.33065e-14
9.39259e-15
1.26539e-14
9.27513e-15
1.20096e-14
9.15993e-15
1.13736e-14
9.0472e-15
1.07458e-14
8.9372e-15
1.01259e-14
8.83014e-15
9.51397e-15
8.72627e-15
8.90965e-15
8.62585e-15
8.31273e-15
8.52912e-15
7.72295e-15
8.43633e-15
7.13999e-15
8.34772e-15
6.56352e-15
8.26353e-15
5.99319e-15
8.18402e-15
5.42861e-15
8.1094e-15
4.86936e-15
8.03991e-15
4.31501e-15
7.97573e-15
3.76507e-15
7.91707e-15
3.21907e-15
7.86408e-15
2.6765e-15
7.81687e-15
2.13687e-15
7.77545e-15
1.5998e-15
7.73973e-15
1.0651e-15
7.70984e-15
5.31703e-16
7.68796e-15
7.68102e-15
2.16433e-09
2.04225e-07
8.88102e-09
1.45271e-07
2.14519e-08
8.98202e-08
4.8895e-08
-1.86826e-08
6.67253e-08
-1.2449e-07
6.76218e-08
-1.6677e-07
7.07121e-08
-1.72582e-07
6.75349e-08
-1.54815e-07
5.36233e-08
-1.14338e-07
3.65042e-08
-6.25862e-08
1.36322e-08
-1.46567e-08
-2.68347e-09
6.05423e-08
-2.24977e-09
9.03266e-08
-6.4358e-09
9.83229e-08
-2.046e-09
9.77244e-08
-3.8199e-09
7.2649e-08
-1.25768e-08
3.4995e-08
-1.56273e-08
-4.09465e-09
-1.4767e-08
-2.26579e-08
-1.26178e-08
-3.6773e-08
2.96872e-12
-8.53846e-09
2.01301e-14
1.44196e-12
2.80447e-14
2.69655e-14
2.94101e-14
3.136e-14
2.95698e-14
3.13828e-14
2.94042e-14
3.02473e-14
2.92204e-14
2.84504e-14
2.914e-14
2.63254e-14
2.91742e-14
2.4156e-14
2.92827e-14
2.21275e-14
2.94138e-14
2.03319e-14
2.95211e-14
1.88018e-14
2.9569e-14
1.75323e-14
2.95357e-14
1.64966e-14
2.94115e-14
1.5658e-14
2.91959e-14
1.498e-14
2.8894e-14
1.44299e-14
2.8514e-14
1.39804e-14
2.80651e-14
1.36094e-14
2.7557e-14
1.3299e-14
2.69989e-14
1.30352e-14
2.63992e-14
1.28066e-14
2.57657e-14
1.26045e-14
2.51052e-14
1.2422e-14
2.44237e-14
1.22539e-14
2.37264e-14
1.20961e-14
2.30177e-14
1.19457e-14
2.23015e-14
1.18004e-14
2.15808e-14
1.16586e-14
2.08584e-14
1.15191e-14
2.01363e-14
1.13812e-14
1.94166e-14