/*--------------------------------*- C++ -*----------------------------------*\
  =========                 |
  \\      /  F ield         | OpenFOAM: The Open Source CFD Toolbox
   \\    /   O peration     | Website:  https://openfoam.org
    \\  /    A nd           | Version:  6
     \\/     M anipulation  |
\*---------------------------------------------------------------------------*/
FoamFile
{
    version     2.0;
    format      ascii;
    class       volScalarField;
    location    "720";
    object      Su;
}
// * * * * * * * * * * * * * * * * * * * * * * * * * * * * * * * * * * * * * //

dimensions      [0 0 -1 0 0 0 0];

internalField   nonuniform List<scalar> 
5964
(
0.355968
0.304759
0.262829
0.230743
0.206688
0.188636
0.17438
0.162015
0.150762
0.139973
0.128961
0.117453
0.105528
0.0932718
0.0808622
0.0685074
0.056288
0.0441238
0.0317963
0.010082
0.00721778
0.0158444
0.0169955
0.0179463
0.0187146
0.0193251
0.0198046
0.020178
0.0204668
0.0206882
0.0208557
0.0209796
0.0210676
0.0211254
0.0211569
0.0211651
0.021152
0.0211188
0.0210665
0.0209953
0.0209055
0.0207971
0.0206699
0.0205237
0.0203582
0.0201732
0.0199683
0.0197433
0.0194979
0.0192319
0.0189451
0.0186375
0.0183088
0.017959
0.0175882
0.0171963
0.0167835
0.0163498
0.0158955
0.0154207
0.0149257
0.0144108
0.0138764
0.0133228
0.0127507
0.0121605
0.0115527
0.010928
0.010287
0.00963048
0.00895905
0.0082734
0.00757423
0.00686229
0.00613849
0.00540414
0.00466124
0.00391293
0.00316355
0.00241529
0.00165012
0.000778247
-0.000384403
-0.00169221
0.356564
0.306903
0.26593
0.234038
0.210037
0.191925
0.177759
0.165379
0.154342
0.143705
0.132574
0.120822
0.108667
0.0961761
0.0835216
0.0708591
0.0582148
0.0455207
0.0326422
0.010394
0.00732436
0.0160313
0.0171668
0.0180958
0.0188365
0.0194184
0.0198719
0.0202235
0.0204948
0.0207027
0.0208603
0.0209771
0.0210603
0.0211151
0.0211451
0.0211529
0.0211402
0.021108
0.0210571
0.0209876
0.0208997
0.0207932
0.0206679
0.0205235
0.0203598
0.0201763
0.0199728
0.019749
0.0195047
0.0192396
0.0189536
0.0186465
0.0183183
0.0179689
0.0175982
0.0172065
0.0167937
0.01636
0.0159055
0.0154305
0.0149353
0.0144202
0.0138855
0.0133317
0.0127592
0.0121686
0.0115605
0.0109354
0.0102941
0.00963721
0.00896543
0.00827945
0.00757998
0.00686776
0.00614372
0.00540907
0.00466565
0.00391619
0.00316418
0.00240977
0.00162731
0.000694967
-0.000664044
-0.00235121
0.358283
0.310906
0.270547
0.238764
0.21487
0.196959
0.183162
0.170925
0.160344
0.149843
0.138537
0.126579
0.114228
0.101389
0.0882314
0.0749361
0.0614954
0.0478688
0.0339965
0.0110003
0.00749721
0.016388
0.0175144
0.0183995
0.0190806
0.0196023
0.0200023
0.0203098
0.0205464
0.020728
0.0208662
0.0209693
0.0210434
0.0210926
0.0211198
0.021127
0.0211152
0.0210853
0.0210373
0.0209713
0.0208872
0.0207847
0.0206633
0.0205226
0.0203624
0.0201821
0.0199815
0.0197602
0.0195181
0.0192548
0.0189703
0.0186644
0.0183371
0.0179884
0.0176182
0.0172267
0.016814
0.0163802
0.0159255
0.0154502
0.0149546
0.0144389
0.0139037
0.0133493
0.0127762
0.0121849
0.011576
0.0109503
0.0103082
0.00965056
0.00897807
0.00829142
0.00759134
0.00687859
0.00615405
0.00541883
0.00467447
0.00392312
0.00316763
0.00240995
0.0016402
0.000801024
-0.000228315
-0.00129967
0.359441
0.3139
0.274828
0.243866
0.22059
0.203314
0.189987
0.178114
0.167825
0.157178
0.145696
0.133623
0.121074
0.10779
0.0939351
0.0797778
0.065378
0.0506745
0.0355708
0.0117955
0.00774608
0.0169444
0.0180684
0.0188703
0.0194469
0.0198701
0.0201871
0.0204284
0.020614
0.0207575
0.020868
0.0209517
0.021013
0.0210547
0.0210784
0.0210851
0.0210753
0.021049
0.0210058
0.0209454
0.0208673
0.0207708
0.0206554
0.0205205
0.0203657
0.0201903
0.0199941
0.0197767
0.0195379
0.0192774
0.0189952
0.0186912
0.0183653
0.0180175
0.017648
0.0172569
0.0168443
0.0164104
0.0159554
0.0154796
0.0149834
0.014467
0.0139309
0.0133756
0.0128015
0.0122092
0.0115993
0.0109724
0.0103292
0.00967049
0.00899692
0.00830926
0.00760824
0.00689465
0.00616934
0.0054333
0.0046877
0.00393402
0.00317435
0.00241228
0.00165305
0.000899421
0.000159392
-0.000431255
0.360317
0.316522
0.279191
0.249603
0.22729
0.210715
0.197817
0.18632
0.175839
0.165007
0.153447
0.141113
0.128051
0.114131
0.0995746
0.0846691
0.0694546
0.0537563
0.03725
0.0125941
0.00818501
0.0178418
0.0188987
0.0195257
0.0199286
0.0202071
0.0204105
0.0205651
0.0206858
0.0207815
0.0208577
0.0209178
0.0209639
0.0209969
0.021017
0.0210242
0.0210177
0.0209969
0.0209608
0.0209083
0.0208386
0.0207506
0.0206436
0.0205166
0.0203691
0.0202004
0.0200102
0.0197981
0.0195638
0.0193072
0.0190281
0.0187265
0.0184026
0.0180562
0.0176876
0.017297
0.0168846
0.0164505
0.0159951
0.0155187
0.0150216
0.0145043
0.0139671
0.0134106
0.0128352
0.0122415
0.0116302
0.0110018
0.0103572
0.00969694
0.00902191
0.00833285
0.00763054
0.00691578
0.0061894
0.00545228
0.00470532
0.00394944
0.00318591
0.00241827
0.00165734
0.000930506
0.000297582
-0.000115735
0.361391
0.319653
0.284044
0.255933
0.234677
0.218832
0.206354
0.195115
0.184381
0.173205
0.161119
0.148177
0.134471
0.119845
0.104528
0.0888897
0.0730751
0.056822
0.0392968
0.0148087
0.00950712
0.0194498
0.0200973
0.020362
0.0204983
0.0205842
0.0206477
0.0206999
0.0207457
0.0207872
0.0208251
0.0208593
0.0208892
0.0209135
0.020931
0.0209402
0.0209392
0.0209263
0.0208998
0.0208581
0.0207995
0.0207228
0.0206266
0.0205099
0.020372
0.020212
0.0200295
0.0198242
0.0195957
0.0193439
0.0190688
0.0187705
0.0184489
0.0181044
0.017737
0.017347
0.0169348
0.0165005
0.0160446
0.0155674
0.0150694
0.0145508
0.0140122
0.0134542
0.0128772
0.0122818
0.0116686
0.0110384
0.0103919
0.00972981
0.00905293
0.00836208
0.00765809
0.00694178
0.00621401
0.00547557
0.00472723
0.00396958
0.00320336
0.00243097
0.0016618
0.000925088
0.000292866
-9.96931e-05
0.362927
0.323935
0.290296
0.26353
0.24314
0.227878
0.215633
0.204431
0.193337
0.181512
0.168635
0.154765
0.140087
0.124533
0.108427
0.0921006
0.0757823
0.0594611
0.0432625
0.0275864
0.0237175
0.0222318
0.021618
0.0212905
0.0210872
0.0209529
0.0208639
0.0208073
0.0207747
0.0207601
0.0207588
0.0207669
0.0207812
0.0207983
0.0208151
0.0208286
0.0208359
0.020834
0.0208204
0.0207926
0.0207483
0.0206858
0.0206033
0.0204996
0.0203736
0.0202244
0.0200515
0.0198546
0.0196332
0.0193874
0.0191173
0.0188228
0.0185043
0.0181619
0.0177959
0.0174068
0.0169948
0.0165604
0.0161039
0.0156258
0.0151264
0.0146064
0.0140662
0.0135063
0.0129273
0.0123299
0.0117146
0.0110822
0.0104334
0.00976902
0.00908987
0.00839682
0.00769072
0.00697246
0.0062429
0.00550285
0.00475301
0.00399388
0.00322563
0.0024484
0.00166492
0.000892904
0.000200573
-0.000247427
0.364144
0.327701
0.296431
0.271349
0.25199
0.237122
0.224797
0.213218
0.201391
0.188782
0.175146
0.160372
0.144676
0.128094
0.111206
0.0943194
0.0776292
0.0611777
0.0454955
0.0327131
0.0269933
0.0242298
0.0228632
0.0220822
0.0215851
0.0212499
0.0210186
0.0208593
0.0207523
0.0206844
0.0206462
0.0206306
0.0206317
0.0206442
0.0206634
0.0206847
0.0207038
0.0207168
0.0207198
0.0207096
0.0206833
0.0206384
0.0205728
0.0204849
0.0203733
0.0202372
0.0200759
0.0198889
0.0196762
0.0194376
0.0191733
0.0188835
0.0185685
0.0182287
0.0178645
0.0174763
0.0170647
0.01663
0.0161728
0.0156936
0.0151928
0.0146711
0.0141289
0.0135669
0.0129857
0.0123858
0.011768
0.011133
0.0104815
0.00981445
0.00913262
0.00843692
0.00772828
0.00700762
0.00627585
0.00553379
0.00478217
0.00402142
0.00325108
0.00246818
0.00166577
0.000843357
5.89565e-05
-0.000480848
0.365604
0.331703
0.302392
0.278654
0.260105
0.245321
0.232354
0.219796
0.20699
0.193643
0.179464
0.164185
0.14781
0.130503
0.113008
0.0956446
0.0785161
0.0615513
0.0449763
0.0311255
0.0271701
0.0249647
0.0235562
0.0225867
0.0219042
0.0214195
0.0210742
0.0208294
0.020659
0.0205453
0.0204757
0.0204407
0.0204326
0.0204445
0.0204702
0.0205036
0.020539
0.0205712
0.0205953
0.0206071
0.0206028
0.0205793
0.020534
0.020465
0.0203707
0.0202501
0.0201024
0.0199272
0.0197245
0.0194942
0.0192367
0.0189523
0.0186415
0.0183047
0.0179425
0.0175555
0.0171442
0.0167093
0.0162513
0.0157708
0.0152684
0.0147447
0.0142003
0.0136359
0.013052
0.0124494
0.0118287
0.0111907
0.0105362
0.00986599
0.00918105
0.00848227
0.00777062
0.00704709
0.00631262
0.00556811
0.00481432
0.00405174
0.00327979
0.00249411
0.00168257
0.000833948
-9.71476e-07
-0.000592243
0.366879
0.335228
0.307623
0.284962
0.266769
0.251375
0.237244
0.223465
0.20969
0.195728
0.181256
0.165877
0.149276
0.131755
0.114069
0.096515
0.0791378
0.0615162
0.0413774
0.0161207
0.0253462
0.0249404
0.0238093
0.0227903
0.0220054
0.0214259
0.021003
0.0206967
0.0204788
0.02033
0.0202366
0.0201882
0.0201762
0.0201926
0.0202298
0.0202805
0.0203376
0.0203943
0.0204447
0.0204833
0.0205056
0.0205077
0.0204865
0.0204397
0.0203656
0.0202629
0.020131
0.0199694
0.0197782
0.0195575
0.0193078
0.0190296
0.0187234
0.01839
0.01803
0.0176443
0.0172334
0.0167982
0.0163393
0.0158573
0.0153531
0.0148272
0.0142803
0.0137131
0.0131263
0.0125205
0.0118965
0.0112552
0.0105972
0.00992352
0.00923504
0.00853272
0.00781759
0.00709069
0.00635303
0.00560555
0.0048491
0.00408448
0.00331201
0.00252995
0.00173228
0.000917785
0.000142366
-0.000388794
0.368009
0.338385
0.312047
0.289622
0.270786
0.254078
0.238585
0.223702
0.20916
0.1949
0.180548
0.165472
0.14914
0.131816
0.114254
0.0968439
0.0797868
0.062898
0.0462268
0.0316502
0.027661
0.0254741
0.023895
0.0227287
0.021875
0.0212495
0.020788
0.0204475
0.0202002
0.0200285
0.01992
0.0198651
0.0198553
0.0198822
0.0199371
0.0200113
0.0200962
0.0201837
0.0202662
0.0203372
0.020391
0.0204232
0.0204302
0.0204091
0.0203582
0.020276
0.020162
0.0200158
0.0198376
0.0196277
0.0193867
0.0191153
0.0188143
0.0184846
0.0181271
0.0177427
0.0173323
0.0168967
0.0164367
0.0159532
0.0154468
0.0149185
0.0143688
0.0137985
0.0132084
0.0125991
0.0119715
0.0113264
0.0106645
0.00998692
0.00929445
0.00858815
0.00786907
0.00713829
0.00639688
0.00564582
0.00488604
0.00411851
0.00334447
0.00256561
0.00178529
0.00101914
0.000332115
-0.00011107
0.368923
0.340867
0.315279
0.292492
0.272144
0.253434
0.235892
0.219583
0.204563
0.190622
0.177134
0.163024
0.147571
0.130971
0.113934
0.0969847
0.0804149
0.0642515
0.0484486
0.0273536
0.0282806
0.0253841
0.0235396
0.0223254
0.0214872
0.0208798
0.0204234
0.0200766
0.0198176
0.0196346
0.0195193
0.0194649
0.0194637
0.0195076
0.0195871
0.0196921
0.0198121
0.0199373
0.0200587
0.0201682
0.0202592
0.0203264
0.0203657
0.020374
0.0203493
0.0202903
0.0201963
0.0200672
0.0199033
0.0197053
0.0194737
0.0192098
0.0189144
0.0185888
0.0182339
0.0178509
0.0174408
0.0170047
0.0165436
0.0160582
0.0155495
0.0150184
0.0144656
0.0138919
0.0132981
0.012685
0.0120534
0.0114041
0.010738
0.0100561
0.00935918
0.00864842
0.0079249
0.00718972
0.00644397
0.00568865
0.00492459
0.00415249
0.00337319
0.00258853
0.00180494
0.00104699
0.000388568
-2.02964e-05
0.369534
0.342396
0.316893
0.29309
0.270533
0.249145
0.229431
0.211909
0.19673
0.183446
0.171161
0.158608
0.144594
0.129187
0.113145
0.0969626
0.0810463
0.0656038
0.0507307
0.0369461
0.0276711
0.0242748
0.0225467
0.0215204
0.0208363
0.0203259
0.0199179
0.0195883
0.0193312
0.0191455
0.0190299
0.0189818
0.0189957
0.0190638
0.0191758
0.0193198
0.0194834
0.0196545
0.0198222
0.019977
0.0201111
0.0202185
0.0202945
0.0203359
0.0203404
0.020307
0.020235
0.0201246
0.0199763
0.019791
0.0195697
0.0193137
0.0190242
0.0187027
0.0183505
0.0179689
0.0175592
0.0171224
0.0166598
0.0161724
0.0156611
0.0151269
0.0145706
0.0139932
0.0133954
0.0127781
0.0121421
0.0114883
0.0108175
0.0101308
0.00942907
0.00871342
0.00798496
0.00724484
0.00649414
0.00573379
0.00496434
0.00418565
0.00339639
0.00259399
0.00177885
0.000972873
0.000259845
-0.000186669
0.369711
0.342602
0.316469
0.291155
0.265949
0.241685
0.219858
0.201408
0.186452
0.174251
0.163443
0.152736
0.140521
0.126702
0.112021
0.0970042
0.0821249
0.0675216
0.0530455
0.0383561
0.0146944
0.0216048
0.0208525
0.0203423
0.0199717
0.0196304
0.0192988
0.0189969
0.0187462
0.018561
0.0184484
0.0184107
0.0184456
0.0185456
0.0186991
0.018892
0.019109
0.0193354
0.019558
0.0197656
0.0199493
0.0201022
0.0202193
0.0202972
0.0203339
0.0203282
0.02028
0.0201896
0.0200579
0.019886
0.0196754
0.0194276
0.0191442
0.018827
0.0184774
0.018097
0.0176873
0.0172497
0.0167854
0.0162956
0.0157814
0.0152438
0.0146838
0.0141023
0.0135001
0.0128782
0.0122375
0.0115787
0.0109029
0.010211
0.00950399
0.008783
0.00804913
0.00730354
0.00654726
0.0057811
0.00500519
0.00421821
0.00341563
0.00258775
0.00172318
0.000833676
1.34829e-05
-0.000515616
0.369554
0.341823
0.31429
0.286475
0.258158
0.231227
0.20786
0.189206
0.175
0.164107
0.154799
0.145756
0.13528
0.123285
0.110352
0.0969291
0.0833827
0.0698386
0.0561211
0.0420009
0.0267356
0.0197627
0.018868
0.0189728
0.0190243
0.0188779
0.0186123
0.0183239
0.0180712
0.0178823
0.0177716
0.0177464
0.0178074
0.0179476
0.0181534
0.0184069
0.0186892
0.0189819
0.0192691
0.0195376
0.0197775
0.0199812
0.0201437
0.0202615
0.0203327
0.0203568
0.0203337
0.0202642
0.0201497
0.0199917
0.019792
0.0195525
0.0192751
0.0189619
0.0186148
0.0182354
0.0178256
0.0173867
0.0169204
0.0164279
0.0159104
0.0153691
0.0148049
0.0142189
0.0136121
0.0129852
0.0123393
0.0116753
0.010994
0.0102965
0.00958382
0.00885704
0.0081173
0.00736572
0.00660328
0.00583059
0.00504744
0.0042515
0.00343582
0.00258514
0.00167847
0.000718564
-0.000192616
-0.00079223
0.369049
0.339914
0.310149
0.279131
0.247511
0.218405
0.194239
0.17617
0.163195
0.153774
0.145946
0.138361
0.129419
0.119236
0.10818
0.0965697
0.0846737
0.0725003
0.0596885
0.0458636
0.0305887
0.00634403
0.015933
0.0175916
0.0182058
0.0181932
0.0179135
0.0175907
0.017314
0.0171112
0.0169966
0.0169825
0.0170739
0.0172638
0.017535
0.0178639
0.0182258
0.0185977
0.0189603
0.0192986
0.0196016
0.0198614
0.020073
0.0202334
0.0203412
0.0203963
0.0203991
0.0203512
0.0202541
0.0201099
0.0199209
0.0196895
0.0194179
0.0191084
0.0187632
0.0183845
0.017974
0.0175336
0.0170648
0.0165692
0.016048
0.0155026
0.0149339
0.0143431
0.0137311
0.0130989
0.0124475
0.0117778
0.0110906
0.0103872
0.0096684
0.00893542
0.00818936
0.0074313
0.00666216
0.00588239
0.00509156
0.0042872
0.0034623
0.00260187
0.00168525
0.000715595
-0.000204166
-0.000808524
0.368171
0.336968
0.30447
0.270127
0.235723
0.205333
0.180877
0.16352
0.151893
0.143934
0.137323
0.130918
0.123423
0.114857
0.105528
0.0957098
0.0855038
0.0747714
0.063161
0.0504593
0.0366317
0.0197595
0.0156641
0.0170992
0.0179259
0.0177362
0.0172437
0.0168062
0.0164806
0.0162512
0.016121
0.0161114
0.0162358
0.0164868
0.0168403
0.0172634
0.0177227
0.018189
0.0186393
0.0190566
0.0194293
0.0197499
0.0200138
0.0202189
0.0203645
0.0204511
0.0204802
0.0204535
0.0203735
0.0202427
0.0200639
0.0198399
0.0195734
0.019267
0.0189233
0.0185446
0.0181329
0.0176904
0.0172187
0.0167195
0.0161942
0.0156442
0.0150706
0.0144745
0.0138571
0.0132192
0.0125618
0.011886
0.0111927
0.0104828
0.00975758
0.00901798
0.00826518
0.00750021
0.00672389
0.00593658
0.00513784
0.00432585
0.00349596
0.002639
0.00174408
0.000822706
-2.97311e-05
-0.000581641
0.366889
0.332942
0.297445
0.26017
0.22319
0.191332
0.167213
0.151311
0.141435
0.134821
0.129148
0.12359
0.117349
0.110329
0.102683
0.0945395
0.0858775
0.0765188
0.0662162
0.054803
0.0420558
0.0271133
0.0041541
0.0171871
0.0186099
0.0176107
0.0165718
0.0159528
0.0155818
0.0153174
0.0151471
0.0151237
0.0152802
0.0156071
0.0160661
0.0166081
0.0171872
0.0177659
0.0183171
0.0188227
0.0192712
0.0196561
0.0199745
0.0202251
0.0204087
0.0205266
0.0205811
0.0205749
0.020511
0.0203926
0.0202229
0.0200054
0.019743
0.0194388
0.0190956
0.0187161
0.0183026
0.0178573
0.0173821
0.0168788
0.0163489
0.0157938
0.0152148
0.0146131
0.0139897
0.0133457
0.0126821
0.0119998
0.0112999
0.0105833
0.0098512
0.0091046
0.00834465
0.00757234
0.00678842
0.00599317
0.00518624
0.00436669
0.00353287
0.00268234
0.00181407
0.000944015
0.000151305
-0.000365857
0.365356
0.328266
0.289628
0.249863
0.211881
0.180458
0.157092
0.141777
0.132686
0.126922
0.121995
0.117081
0.111833
0.106001
0.0996658
0.0929269
0.0856485
0.0776413
0.0687985
0.0590621
0.048435
0.0369335
0.0227078
0.0244194
0.0216817
0.0177416
0.0156944
0.0149945
0.0146703
0.0143619
0.0140877
0.014005
0.0141868
0.0146111
0.0152091
0.0159041
0.016631
0.0173429
0.0180089
0.0186111
0.0191401
0.0195916
0.0199648
0.0202605
0.0204808
0.0206285
0.0207068
0.0207193
0.0206698
0.0205621
0.0204
0.0201874
0.0199277
0.0196245
0.0192808
0.0188995
0.0184833
0.0180344
0.017555
0.017047
0.0165119
0.0159512
0.0153664
0.0147586
0.0141289
0.0134784
0.0128082
0.0121191
0.0114121
0.0106885
0.00994909
0.0091951
0.00842761
0.00764756
0.00685565
0.00605209
0.0052366
0.00440885
0.00356901
0.00271769
0.00185421
0.000981856
0.000151786
-0.000432198
0.36384
0.323625
0.281791
0.2396
0.2008
0.169992
0.148154
0.134392
0.126122
0.12083
0.116453
0.112089
0.107589
0.102719
0.0974129
0.0917496
0.0856248
0.078928
0.0716358
0.0637142
0.0552618
0.0464742
0.0376986
0.029916
0.026386
0.0167157
0.01402
0.0139755
0.0139356
0.01352
0.0129646
0.0127219
0.0129185
0.0134784
0.0142678
0.015163
0.0160732
0.016941
0.017735
0.0184404
0.019052
0.0195697
0.0199959
0.0203341
0.0205884
0.0207631
0.0208624
0.020891
0.0208533
0.020754
0.0205973
0.0203876
0.020129
0.0198252
0.0194796
0.0190953
0.0186753
0.018222
0.0177375
0.017224
0.0166831
0.0161164
0.0155252
0.0149109
0.0142744
0.0136171
0.0129397
0.0122434
0.0115292
0.0107981
0.0100511
0.00928933
0.00851391
0.00772574
0.00692546
0.00611325
0.00528885
0.00445217
0.0036037
0.00274244
0.00185706
0.000918745
-6.28953e-05
-0.000834133
0.362117
0.318796
0.2747
0.231406
0.192771
0.163011
0.142543
0.129849
0.122176
0.117169
0.113186
0.109386
0.105531
0.101486
0.0971576
0.0924897
0.0874007
0.0819124
0.0760003
0.0695854
0.0627619
0.0555573
0.0474515
0.0408538
0.0296913
0.00737128
0.0107719
0.0134675
0.0138764
0.0130633
0.0117597
0.0111779
0.0114017
0.0121778
0.0132447
0.0144066
0.0155425
0.0165894
0.0175216
0.0183325
0.019025
0.0196051
0.0200799
0.020456
0.0207397
0.020937
0.0210533
0.0210942
0.021065
0.0209709
0.0208169
0.0206078
0.020348
0.0200417
0.0196925
0.0193039
0.0188788
0.0184199
0.0179296
0.0174098
0.0168624
0.016289
0.015691
0.0150696
0.014426
0.0137613
0.0130766
0.0123727
0.0116508
0.0109119
0.010157
0.00938712
0.00860341
0.00780675
0.00699774
0.00617655
0.00534302
0.00449719
0.00363951
0.00276708
0.00185934
0.000862519
-0.000244221
-0.00116501
0.361168
0.316157
0.270862
0.226808
0.187917
0.158933
0.139744
0.127975
0.120908
0.11636
0.112924
0.109847
0.106816
0.103711
0.100452
0.0968377
0.092757
0.0883933
0.0835878
0.0783344
0.0725448
0.065969
0.0579962
0.0506808
0.0413579
0.0253458
0.00354766
0.0157577
0.0153336
0.0134023
0.0102058
0.00911039
0.00950092
0.0106697
0.0121553
0.013674
0.0150822
0.0163267
0.0173999
0.0183123
0.0190786
0.0197134
0.0202289
0.0206357
0.0209423
0.0211563
0.0212844
0.021333
0.0213081
0.0212155
0.0210608
0.0208493
0.0205858
0.0202747
0.0199201
0.0195255
0.019094
0.0186284
0.0181312
0.0176043
0.0170497
0.016469
0.0158635
0.0152346
0.0145834
0.013911
0.0132185
0.0125067
0.0117768
0.0110298
0.0102666
0.0094883
0.00869597
0.00789046
0.00707239
0.00624195
0.00539913
0.00454432
0.00367886
0.00280254
0.00190336
0.000948954
-5.29341e-05
-0.000835997
0.359058
0.309999
0.262268
0.219223
0.183497
0.156878
0.139001
0.128187
0.121951
0.118159
0.115516
0.113357
0.111353
0.109384
0.107296
0.104753
0.10177
0.0986271
0.0948496
0.0905932
0.0854959
0.0793246
0.0719342
0.0646005
0.0554177
0.0421939
0.026273
0.0265836
0.0121977
0.0151532
0.0071203
0.00594225
0.00702369
0.00892988
0.0110506
0.0130357
0.014755
0.0162002
0.0174043
0.0184045
0.0192314
0.0199087
0.0204543
0.0208822
0.0212034
0.0214268
0.0215602
0.0216108
0.0215852
0.0214898
0.0213306
0.0211133
0.0208432
0.0205249
0.0201627
0.0197603
0.0193209
0.0188473
0.0183421
0.0178072
0.0172446
0.0166559
0.0160425
0.0154055
0.0147463
0.0140658
0.0133651
0.0126452
0.0119069
0.0111514
0.0103797
0.0095927
0.00879145
0.0079768
0.00714937
0.00630942
0.00545709
0.00459305
0.00371937
0.0028388
0.00195062
0.00105229
0.000188202
-0.000424794
0.35808
0.307919
0.260199
0.217184
0.1819
0.156304
0.139617
0.129926
0.124691
0.12186
0.120223
0.119099
0.118202
0.117403
0.116536
0.115054
0.11326
0.111311
0.108562
0.105304
0.101069
0.0957103
0.0892308
0.0821073
0.073307
0.0618912
0.0513597
0.0434479
0.0332989
0.0208314
-0.000831032
0.000920372
0.00388572
0.00702279
0.0100623
0.0126152
0.0146465
0.0162617
0.0175653
0.0186286
0.0194972
0.0202017
0.0207645
0.0212023
0.0215283
0.0217527
0.0218842
0.0219303
0.0218984
0.0217953
0.0216274
0.0214007
0.0211208
0.0207926
0.0204205
0.0200084
0.0195594
0.0190765
0.0185621
0.0180184
0.017447
0.0168496
0.0162276
0.0155822
0.0149145
0.0142255
0.0135163
0.0127877
0.0120409
0.0112767
0.0104961
0.00970013
0.00888972
0.0080657
0.00722868
0.00637902
0.00551693
0.00464312
0.00375933
0.00286813
0.00197194
0.00108164
0.000262698
-0.00028448
0.358231
0.308368
0.260684
0.217701
0.182495
0.157152
0.141403
0.132821
0.128589
0.126771
0.126178
0.126078
0.126257
0.126543
0.126788
0.126385
0.125746
0.124909
0.123141
0.120893
0.117751
0.113331
0.107864
0.101167
0.0929645
0.0829269
0.0728129
0.0626982
0.0504401
0.0350298
0.0136934
-0.00245595
0.000585688
0.00519153
0.00947938
0.0126185
0.0148611
0.016553
0.0178972
0.0189903
0.0198801
0.0205969
0.0211638
0.0216
0.0219204
0.0221367
0.0222582
0.0222931
0.022249
0.0221329
0.0219517
0.0217117
0.0214187
0.0210778
0.0206934
0.0202695
0.0198093
0.0193157
0.0187911
0.0182374
0.0176565
0.0170497
0.0164186
0.0157641
0.0150875
0.0143897
0.0136716
0.0129342
0.0121784
0.0114053
0.0106156
0.00981041
0.00899063
0.00815706
0.00731033
0.00645084
0.00557891
0.00469506
0.0038003
0.0028956
0.00198243
0.00107566
0.000251687
-0.000286413
0.357916
0.307432
0.259561
0.217094
0.18287
0.158697
0.144061
0.136498
0.13323
0.132329
0.132611
0.133463
0.134566
0.135753
0.1369
0.137506
0.137888
0.1381
0.137081
0.135936
0.133915
0.130394
0.126163
0.120053
0.112811
0.103779
0.0939402
0.0830959
0.07009
0.0544297
0.0365528
0.0170996
-0.00110586
0.00366566
0.0098943
0.0133637
0.0154904
0.0170732
0.0183777
0.0194708
0.0203696
0.0210895
0.0216511
0.0220754
0.0223803
0.0225793
0.0226827
0.0226993
0.0226367
0.0225024
0.0223033
0.0220461
0.0217365
0.02138
0.020981
0.0205433
0.0200702
0.0195645
0.0190284
0.0184639
0.0178726
0.0172559
0.016615
0.0159511
0.0152651
0.014558
0.0138308
0.0130842
0.0123193
0.0115368
0.0107379
0.0099233
0.00909399
0.00825076
0.00739426
0.00652497
0.00564329
0.0047497
0.00384491
0.00292982
0.00200812
0.00110224
0.00029731
-0.000213232
0.357481
0.306268
0.258197
0.216335
0.183415
0.160679
0.147309
0.14076
0.13829
0.138021
0.139063
0.140652
0.14243
0.144253
0.146072
0.147542
0.148817
0.14977
0.149505
0.149401
0.14836
0.145845
0.142883
0.13762
0.131614
0.123631
0.114674
0.104052
0.0914615
0.0763215
0.0593072
0.0414799
0.0221747
0.00121524
0.0127922
0.015257
0.0165032
0.0177181
0.0189254
0.0200208
0.020939
0.0216663
0.0222196
0.0226249
0.0229056
0.0230786
0.0231561
0.0231473
0.0230603
0.0229025
0.022681
0.0224026
0.0220733
0.0216984
0.0212824
0.020829
0.0203414
0.0198223
0.0192737
0.0186974
0.018095
0.0174677
0.0168165
0.0161427
0.0154469
0.0147302
0.0139935
0.0132374
0.012463
0.0116712
0.0108627
0.0100386
0.0091996
0.00834663
0.00748037
0.00660139
0.00571022
0.00480748
0.00389411
0.00297235
0.00205084
0.00116199
0.00039721
-7.07503e-05
0.35706
0.305105
0.25687
0.21588
0.184604
0.163612
0.151352
0.145488
0.143527
0.143726
0.145249
0.14734
0.149545
0.15177
0.153992
0.15603
0.157955
0.15951
0.160115
0.160689
0.160499
0.159144
0.1572
0.153269
0.14858
0.141898
0.13418
0.124284
0.112419
0.0979336
0.0815039
0.0640216
0.0453683
0.0249166
0.0231796
0.0182585
0.0174455
0.0182096
0.0193986
0.0205705
0.0215541
0.0223097
0.0228594
0.023242
0.0234913
0.0236307
0.0236749
0.0236343
0.023517
0.0233308
0.0230828
0.0227797
0.0224276
0.0220317
0.0215965
0.0211257
0.0206222
0.0200884
0.0195263
0.0189374
0.0183231
0.0176846
0.0170227
0.0163384
0.0156326
0.0149059
0.0141593
0.0133936
0.0126095
0.0118079
0.0109898
0.0101559
0.00930717
0.00844443
0.00756844
0.00667993
0.00577964
0.0048685
0.00394808
0.00302249
0.00210525
0.00123681
0.000511118
8.06415e-05
0.35699
0.305039
0.257107
0.217141
0.187381
0.16753
0.155961
0.150543
0.148885
0.149362
0.151164
0.153515
0.15596
0.158389
0.160806
0.163123
0.165409
0.167358
0.168708
0.169935
0.170386
0.170183
0.169168
0.16671
0.163328
0.158131
0.151745
0.142912
0.132014
0.118478
0.102889
0.0857276
0.0666294
0.0470422
0.0309935
0.0179508
0.016995
0.0181762
0.0196786
0.0210752
0.0221943
0.0230076
0.0235615
0.0239191
0.024131
0.0242296
0.0242339
0.0241555
0.024003
0.023784
0.0235057
0.0231748
0.0227973
0.0223783
0.0219221
0.0214322
0.0209115
0.020362
0.0197854
0.0191832
0.0185565
0.0179062
0.0172331
0.016538
0.0158216
0.0150847
0.014328
0.0135523
0.0127583
0.0119468
0.0111188
0.010275
0.00941641
0.00854385
0.00765817
0.00676028
0.00585122
0.00493236
0.00400619
0.00307883
0.00216784
0.00131875
0.000624907
0.000222451
0.356954
0.3054
0.258731
0.220295
0.191668
0.172509
0.161225
0.155911
0.15438
0.154991
0.156938
0.159363
0.161884
0.164374
0.166822
0.169212
0.171599
0.173789
0.175612
0.177338
0.178436
0.179038
0.17899
0.177795
0.175746
0.172019
0.16698
0.159524
0.149941
0.137685
0.123153
0.106345
0.0871326
0.0663433
0.0429337
0.00251871
0.015025
0.0178686
0.0198834
0.0215849
0.022879
0.0237643
0.0243231
0.0246504
0.0248178
0.0248687
0.0248268
0.0247053
0.0245131
0.0242578
0.0239461
0.0235849
0.0231798
0.0227359
0.0222573
0.0217472
0.0212082
0.0206421
0.0200504
0.0194343
0.0187945
0.0181319
0.0174472
0.016741
0.0160138
0.0152663
0.0144992
0.0137132
0.012909
0.0120874
0.0112493
0.0103956
0.00952698
0.00864453
0.00774917
0.00684197
0.00592423
0.00499778
0.00406583
0.00313606
0.00222876
0.00139236
0.000718762
0.000333203
0.35739
0.306989
0.261856
0.22464
0.196598
0.177757
0.166707
0.161554
0.160063
0.160708
0.162672
0.165136
0.167665
0.170106
0.172476
0.174792
0.177109
0.179325
0.181396
0.183387
0.184998
0.186248
0.18696
0.186889
0.186008
0.183679
0.179964
0.174111
0.166096
0.155358
0.14193
0.125644
0.106641
0.0855827
0.0634126
0.041346
0.0205655
0.0187178
0.0203751
0.0222415
0.0236687
0.0246017
0.0251483
0.0254324
0.0255454
0.0255408
0.0254466
0.0252773
0.0250417
0.024747
0.0243998
0.0240063
0.0235722
0.0231023
0.0226003
0.0220691
0.0215111
0.0209278
0.0203204
0.0196898
0.0190366
0.0183614
0.0176647
0.0169469
0.0162086
0.0154502
0.0146725
0.013876
0.0130614
0.0122295
0.0113812
0.0105172
0.00963854
0.00874612
0.00784101
0.00692444
0.00599785
0.0050632
0.00412376
0.00318737
0.00227498
0.00143608
0.000762258
0.000375782
0.35796
0.309039
0.265546
0.22953
0.202317
0.183911
0.172875
0.167595
0.166037
0.166701
0.168614
0.171041
0.173536
0.175859
0.178076
0.180229
0.182373
0.184471
0.186575
0.188654
0.19055
0.192229
0.19358
0.194353
0.194443
0.19338
0.190988
0.186754
0.180293
0.171087
0.158976
0.143756
0.125234
0.103549
0.0783065
0.046842
0.00500241
0.0175485
0.0210016
0.0231531
0.0246312
0.025549
0.026046
0.0262647
0.0263089
0.0262393
0.0260863
0.0258646
0.0255824
0.0252463
0.024862
0.0244354
0.0239716
0.023475
0.0229491
0.0223965
0.0218191
0.0212182
0.0205947
0.0199493
0.0192823
0.0185941
0.017885
0.0171554
0.0164057
0.0156362
0.0148475
0.0140403
0.0132151
0.0123727
0.0115139
0.0106396
0.00975072
0.00884823
0.00793328
0.0070072
0.00607149
0.00512783
0.00417871
0.00323041
0.00230193
0.00144077
0.000735571
0.000309141
0.358931
0.311972
0.270143
0.235318
0.208741
0.190481
0.17937
0.173908
0.172241
0.172877
0.174782
0.177201
0.179595
0.181761
0.183801
0.185766
0.187693
0.189595
0.191552
0.193559
0.195549
0.197475
0.199237
0.200644
0.201477
0.201484
0.200314
0.197476
0.192517
0.18495
0.174407
0.160469
0.142713
0.121046
0.0951748
0.0660684
0.0377716
0.0244193
0.0233955
0.0245986
0.025829
0.0266289
0.0270255
0.0271485
0.027105
0.0269584
0.026739
0.0264604
0.0261292
0.0257502
0.0253283
0.0248684
0.0243748
0.0238516
0.0233018
0.0227277
0.0221309
0.0215123
0.0208725
0.020212
0.019531
0.0188296
0.0181079
0.0173662
0.0166047
0.0158238
0.015024
0.0142058
0.0133697
0.0125166
0.0116472
0.0107624
0.00986317
0.00895049
0.0080256
0.00708991
0.0061449
0.00519188
0.00423207
0.00326905
0.00231675
0.00141105
0.000605519
-2.26976e-05
0.360228
0.3156
0.275467
0.241522
0.215303
0.197114
0.185927
0.18035
0.17868
0.179287
0.181146
0.183564
0.185819
0.187829
0.189693
0.191469
0.19319
0.19489
0.196641
0.198468
0.200374
0.202355
0.204322
0.206142
0.207594
0.208408
0.208275
0.206667
0.203125
0.197092
0.188059
0.175618
0.159247
0.138715
0.113981
0.0857794
0.0554607
0.0115751
0.0244785
0.0259706
0.0271593
0.0278399
0.0280962
0.0280874
0.0279315
0.0276925
0.0273982
0.0270581
0.0266759
0.0262536
0.0257944
0.0253018
0.0247793
0.0242301
0.023657
0.0230617
0.0224456
0.0218093
0.0211533
0.0204776
0.0197824
0.0190675
0.0183329
0.0175789
0.0168054
0.0160128
0.0152016
0.0143721
0.013525
0.012661
0.0117808
0.0108853
0.00997555
0.00905255
0.00811762
0.00717225
0.00621801
0.00525599
0.00428638
0.00330964
0.00232987
0.0013405
0.000209916
-0.00137097
0.361333
0.318625
0.27985
0.246918
0.221447
0.20365
0.192617
0.186998
0.185293
0.185925
0.18778
0.190065
0.192155
0.194024
0.195732
0.197331
0.198854
0.200351
0.20189
0.203524
0.205278
0.20718
0.209195
0.211233
0.213108
0.214547
0.215197
0.214638
0.212335
0.207707
0.200177
0.18924
0.174371
0.155395
0.132215
0.105178
0.0753762
0.0454597
0.027693
0.0276146
0.0287355
0.0292432
0.0292839
0.0290873
0.0287849
0.028435
0.0280564
0.0276511
0.0272168
0.0267519
0.0262567
0.0257328
0.0251827
0.0246088
0.0240133
0.0233975
0.0227626
0.0221089
0.0214366
0.0207457
0.0200361
0.0193075
0.0185599
0.0177931
0.0170074
0.0162029
0.0153799
0.014539
0.0136805
0.0128054
0.0119142
0.0110079
0.0100875
0.00915407
0.00820901
0.00725395
0.00629066
0.00532038
0.00434292
0.00335617
0.00235067
0.00123529
-0.000609264
-0.00501107
0.362183
0.321049
0.283625
0.251897
0.227351
0.210132
0.199367
0.193782
0.192042
0.192644
0.194518
0.196593
0.19854
0.200286
0.201857
0.2033
0.204647
0.205956
0.207305
0.208753
0.210348
0.212129
0.214103
0.216214
0.218332
0.220207
0.221466
0.221743
0.220485
0.21705
0.210828
0.201328
0.188147
0.170947
0.149393
0.123716