/*--------------------------------*- C++ -*----------------------------------*\
  =========                 |
  \\      /  F ield         | OpenFOAM: The Open Source CFD Toolbox
   \\    /   O peration     | Website:  https://openfoam.org
    \\  /    A nd           | Version:  6
     \\/     M anipulation  |
\*---------------------------------------------------------------------------*/
FoamFile
{
    version     2.0;
    format      ascii;
    class       volScalarField;
    location    "720";
    object      T;
}
// * * * * * * * * * * * * * * * * * * * * * * * * * * * * * * * * * * * * * //

dimensions      [0 0 0 1 0 0 0];

internalField   nonuniform List<scalar> 
5964
(
310.421
309.343
308.461
307.786
307.28
306.9
306.6
306.34
306.103
305.876
305.644
305.402
305.151
304.893
304.632
304.372
304.115
303.859
303.599
303.327
303.232
303.26
303.284
303.304
303.32
303.332
303.342
303.35
303.356
303.361
303.364
303.367
303.369
303.37
303.371
303.371
303.37
303.37
303.369
303.367
303.365
303.363
303.36
303.357
303.354
303.35
303.346
303.341
303.336
303.331
303.325
303.318
303.311
303.304
303.296
303.288
303.28
303.271
303.261
303.251
303.241
303.23
303.219
303.207
303.196
303.183
303.171
303.158
303.144
303.131
303.117
303.102
303.088
303.073
303.058
303.043
303.027
303.011
302.996
302.98
302.964
302.946
302.921
302.896
310.433
309.388
308.526
307.855
307.351
306.97
306.671
306.411
306.179
305.955
305.721
305.473
305.217
304.954
304.688
304.422
304.155
303.888
303.617
303.336
303.237
303.264
303.288
303.307
303.322
303.334
303.344
303.351
303.357
303.361
303.364
303.367
303.369
303.37
303.37
303.371
303.37
303.37
303.369
303.367
303.365
303.363
303.36
303.357
303.354
303.35
303.346
303.341
303.336
303.331
303.325
303.318
303.312
303.304
303.297
303.288
303.28
303.271
303.261
303.251
303.241
303.23
303.219
303.208
303.196
303.183
303.171
303.158
303.144
303.131
303.117
303.102
303.088
303.073
303.058
303.043
303.027
303.012
302.996
302.98
302.964
302.944
302.917
302.887
310.469
309.473
308.624
307.955
307.452
307.076
306.785
306.527
306.305
306.084
305.846
305.594
305.334
305.064
304.787
304.507
304.224
303.938
303.646
303.346
303.244
303.271
303.295
303.313
303.327
303.338
303.347
303.353
303.358
303.362
303.365
303.367
303.368
303.369
303.37
303.37
303.37
303.369
303.368
303.367
303.365
303.363
303.36
303.357
303.354
303.35
303.346
303.342
303.336
303.331
303.325
303.319
303.312
303.305
303.297
303.289
303.28
303.271
303.262
303.252
303.241
303.231
303.22
303.208
303.196
303.184
303.171
303.158
303.145
303.131
303.117
303.103
303.088
303.073
303.058
303.043
303.027
303.012
302.996
302.98
302.964
302.946
302.925
302.905
310.494
309.536
308.714
308.063
307.573
307.209
306.929
306.679
306.462
306.238
305.997
305.743
305.479
305.199
304.907
304.609
304.306
303.997
303.679
303.354
303.252
303.283
303.306
303.323
303.335
303.344
303.35
303.355
303.359
303.362
303.365
303.366
303.368
303.368
303.369
303.369
303.369
303.368
303.367
303.366
303.365
303.363
303.36
303.357
303.354
303.35
303.346
303.342
303.337
303.331
303.326
303.319
303.312
303.305
303.298
303.289
303.281
303.272
303.262
303.252
303.242
303.231
303.22
303.209
303.197
303.184
303.172
303.159
303.145
303.131
303.117
303.103
303.088
303.074
303.058
303.043
303.028
303.012
302.996
302.98
302.964
302.949
302.933
302.921
310.513
309.591
308.806
308.184
307.714
307.365
307.094
306.852
306.631
306.403
306.16
305.9
305.626
305.333
305.026
304.712
304.392
304.062
303.714
303.347
303.263
303.302
303.324
303.337
303.345
303.351
303.355
303.358
303.361
303.363
303.364
303.366
303.367
303.367
303.368
303.368
303.368
303.367
303.367
303.365
303.364
303.362
303.36
303.357
303.354
303.351
303.347
303.342
303.337
303.332
303.326
303.32
303.313
303.306
303.298
303.29
303.282
303.273
303.263
303.253
303.243
303.232
303.221
303.209
303.197
303.185
303.172
303.159
303.146
303.132
303.118
303.104
303.089
303.074
303.059
303.044
303.028
303.012
302.996
302.98
302.965
302.949
302.936
302.928
310.535
309.657
308.908
308.317
307.87
307.536
307.274
307.037
306.811
306.576
306.322
306.049
305.761
305.453
305.131
304.801
304.468
304.126
303.757
303.312
303.295
303.335
303.349
303.354
303.357
303.359
303.36
303.361
303.362
303.363
303.364
303.364
303.365
303.366
303.366
303.366
303.366
303.366
303.365
303.364
303.363
303.362
303.36
303.357
303.354
303.351
303.347
303.343
303.338
303.333
303.327
303.321
303.314
303.307
303.299
303.291
303.283
303.274
303.264
303.254
303.244
303.233
303.222
303.21
303.198
303.186
303.173
303.16
303.146
303.133
303.119
303.104
303.089
303.075
303.059
303.044
303.028
303.013
302.997
302.981
302.965
302.949
302.936
302.928
310.567
309.747
309.04
308.477
308.048
307.727
307.469
307.234
307
306.752
306.48
306.188
305.879
305.552
305.213
304.869
304.525
304.182
303.84
303.524
303.424
303.393
303.38
303.373
303.369
303.366
303.364
303.363
303.363
303.362
303.362
303.362
303.363
303.363
303.363
303.364
303.364
303.364
303.364
303.363
303.362
303.361
303.359
303.357
303.354
303.351
303.348
303.343
303.339
303.334
303.328
303.322
303.315
303.308
303.301
303.293
303.284
303.275
303.265
303.255
303.245
303.234
303.223
303.211
303.199
303.187
303.174
303.161
303.147
303.133
303.119
303.105
303.09
303.075
303.06
303.045
303.029
303.013
302.997
302.981
302.965
302.949
302.935
302.925
310.593
309.827
309.169
308.642
308.234
307.922
307.662
307.419
307.17
306.904
306.618
306.307
305.976
305.627
305.271
304.916
304.564
304.218
303.887
303.618
303.492
303.435
303.406
303.39
303.38
303.373
303.368
303.364
303.362
303.361
303.36
303.36
303.36
303.36
303.36
303.361
303.361
303.361
303.361
303.361
303.361
303.36
303.358
303.357
303.354
303.351
303.348
303.344
303.34
303.335
303.329
303.323
303.317
303.31
303.302
303.294
303.285
303.276
303.267
303.257
303.246
303.236
303.224
303.213
303.2
303.188
303.175
303.162
303.148
303.134
303.12
303.106
303.091
303.076
303.061
303.045
303.03
303.014
302.998
302.981
302.965
302.948
302.932
302.921
310.624
309.911
309.295
308.795
308.405
308.094
307.821
307.557
307.287
307.007
306.708
306.387
306.042
305.678
305.309
304.943
304.583
304.225
303.877
303.585
303.496
303.45
303.421
303.4
303.386
303.376
303.369
303.364
303.36
303.358
303.356
303.356
303.355
303.356
303.356
303.357
303.358
303.358
303.359
303.359
303.359
303.359
303.358
303.356
303.354
303.352
303.349
303.345
303.341
303.336
303.331
303.325
303.318
303.311
303.304
303.296
303.287
303.278
303.268
303.258
303.248
303.237
303.226
303.214
303.202
303.189
303.176
303.163
303.149
303.135
303.121
303.107
303.092
303.077
303.061
303.046
303.03
303.014
302.998
302.982
302.965
302.948
302.931
302.919
310.651
309.985
309.405
308.928
308.545
308.221
307.924
307.634
307.344
307.05
306.746
306.422
306.073
305.704
305.331
304.962
304.596
304.225
303.819
303.369
303.458
303.449
303.426
303.405
303.388
303.376
303.367
303.361
303.356
303.353
303.351
303.35
303.35
303.35
303.351
303.352
303.354
303.355
303.356
303.357
303.357
303.357
303.357
303.356
303.354
303.352
303.349
303.346
303.342
303.337
303.332
303.326
303.32
303.313
303.305
303.297
303.289
303.28
303.27
303.26
303.25
303.239
303.227
303.216
303.203
303.191
303.178
303.164
303.151
303.137
303.122
303.108
303.093
303.078
303.062
303.047
303.031
303.015
302.999
302.983
302.966
302.949
302.934
302.923
310.674
310.051
309.497
309.026
308.629
308.277
307.951
307.638
307.332
307.032
306.73
306.413
306.069
305.705
305.335
304.968
304.609
304.254
303.903
303.59
303.506
303.46
303.428
303.403
303.385
303.372
303.363
303.356
303.351
303.347
303.345
303.344
303.343
303.344
303.345
303.347
303.348
303.35
303.352
303.354
303.355
303.355
303.355
303.355
303.354
303.352
303.35
303.347
303.343
303.339
303.334
303.328
303.322
303.315
303.308
303.3
303.291
303.282
303.272
303.262
303.252
303.241
303.229
303.217
303.205
303.192
303.179
303.166
303.152
303.138
303.124
303.109
303.094
303.079
303.063
303.048
303.032
303.016
303
302.983
302.967
302.951
302.937
302.928
310.694
310.104
309.565
309.086
308.658
308.264
307.894
307.551
307.235
306.942
306.658
306.361
306.036
305.686
305.328
304.971
304.622
304.282
303.949
303.604
303.519
303.459
303.42
303.395
303.377
303.365
303.355
303.348
303.343
303.339
303.336
303.335
303.335
303.336
303.338
303.34
303.343
303.345
303.348
303.35
303.352
303.353
303.354
303.354
303.354
303.353
303.351
303.348
303.344
303.34
303.336
303.33
303.324
303.317
303.31
303.302
303.293
303.284
303.275
303.264
303.254
303.243
303.231
303.219
303.207
303.194
303.181
303.167
303.154
303.139
303.125
303.11
303.095
303.08
303.064
303.048
303.033
303.016
303
302.984
302.968
302.952
302.938
302.93
310.706
310.136
309.599
309.099
308.624
308.173
307.758
307.389
307.07
306.79
306.532
306.268
305.973
305.648
305.311
304.97
304.635
304.31
303.997
303.707
303.506
303.435
303.399
303.378
303.364
303.353
303.345
303.338
303.333
303.329
303.326
303.325
303.326
303.327
303.329
303.332
303.336
303.339
303.343
303.346
303.349
303.351
303.353
303.353
303.354
303.353
303.351
303.349
303.346
303.342
303.338
303.332
303.326
303.319
303.312
303.304
303.296
303.287
303.277
303.267
303.256
303.245
303.233
303.221
303.209
303.196
303.183
303.169
303.155
303.141
303.126
303.111
303.096
303.081
303.065
303.049
303.033
303.017
303.001
302.984
302.967
302.95
302.936
302.927
310.71
310.14
309.59
309.058
308.527
308.016
307.557
307.168
306.854
306.597
306.369
306.144
305.887
305.596
305.287
304.97
304.657
304.35
304.046
303.737
303.375
303.38
303.364
303.354
303.346
303.339
303.332
303.326
303.32
303.317
303.314
303.313
303.314
303.316
303.319
303.323
303.328
303.333
303.337
303.342
303.345
303.349
303.351
303.353
303.353
303.353
303.352
303.35
303.348
303.344
303.34
303.335
303.329
303.322
303.315
303.307
303.298
303.289
303.28
303.269
303.259
303.247
303.236
303.224
303.211
303.198
303.185
303.171
303.157
303.143
303.128
303.113
303.098
303.082
303.066
303.05
303.034
303.018
303.001
302.984
302.966
302.948
302.931
302.92
310.707
310.124
309.544
308.959
308.363
307.796
307.304
306.912
306.613
306.384
306.187
305.997
305.776
305.523
305.251
304.969
304.684
304.399
304.11
303.813
303.512
303.341
303.323
303.325
303.326
303.323
303.318
303.312
303.306
303.302
303.3
303.3
303.301
303.304
303.308
303.313
303.319
303.325
303.331
303.337
303.342
303.346
303.349
303.352
303.353
303.354
303.353
303.352
303.35
303.346
303.342
303.337
303.331
303.325
303.318
303.31
303.301
303.292
303.282
303.272
303.261
303.25
303.238
303.226
303.213
303.2
303.187
303.173
303.159
303.144
303.13
303.114
303.099
303.083
303.068
303.051
303.035
303.019
303.002
302.984
302.965
302.945
302.927
302.915
310.696
310.083
309.457
308.804
308.139
307.526
307.018
306.638
306.365
306.166
306.001
305.841
305.653
305.438
305.205
304.961
304.711
304.455
304.185
303.895
303.573
303.164
303.262
303.296
303.309
303.309
303.303
303.296
303.291
303.286
303.284
303.284
303.286
303.29
303.295
303.302
303.31
303.317
303.325
303.332
303.338
303.344
303.348
303.351
303.354
303.355
303.355
303.354
303.352
303.349
303.345
303.34
303.334
303.328
303.321
303.313
303.304
303.295
303.285
303.275
303.264
303.253
303.241
303.229
303.216
303.203
303.189
303.175
303.161
303.146
303.131
303.116
303.101
303.085
303.069
303.052
303.036
303.019
303.002
302.984
302.965
302.945
302.927
302.915
310.677
310.021
309.336
308.613
307.889
307.25
306.736
306.372
306.127
305.96
305.82
305.685
305.527
305.346
305.15
304.943
304.728
304.503
304.258
303.991
303.701
303.4
303.256
303.286
303.304
303.3
303.289
303.28
303.273
303.268
303.266
303.266
303.268
303.273
303.281
303.29
303.299
303.309
303.318
303.327
303.335
303.341
303.347
303.351
303.354
303.356
303.356
303.356
303.354
303.352
303.348
303.343
303.338
303.331
303.324
303.316
303.308
303.298
303.289
303.278
303.267
303.256
303.244
303.231
303.219
303.205
303.192
303.178
303.163
303.148
303.133
303.118
303.102
303.086
303.07
303.054
303.037
303.02
303.003
302.985
302.966
302.947
302.93
302.919
310.65
309.935
309.188
308.402
307.624
306.954
306.448
306.114
305.907
305.768
305.648
305.531
305.399
305.251
305.09
304.919
304.736
304.54
304.323
304.083
303.815
303.506
303.097
303.288
303.318
303.297
303.276
303.263
303.255
303.249
303.246
303.245
303.248
303.255
303.265
303.276
303.288
303.3
303.311
303.322
303.331
303.339
303.346
303.351
303.355
303.357
303.359
303.358
303.357
303.355
303.351
303.347
303.341
303.335
303.328
303.32
303.311
303.302
303.292
303.282
303.27
303.259
303.247
303.234
303.221
303.208
303.194
303.18
303.165
303.15
303.135
303.12
303.104
303.088
303.071
303.055
303.038
303.021
303.004
302.986
302.968
302.95
302.933
302.923
310.618
309.836
309.022
308.185
307.385
306.725
306.234
305.913
305.723
305.602
305.497
305.394
305.283
305.16
305.027
304.885
304.732
304.563
304.377
304.173
303.949
303.707
303.456
303.44
303.383
303.301
303.258
303.243
303.236
303.229
303.224
303.222
303.226
303.234
303.247
303.261
303.276
303.291
303.305
303.318
303.329
303.338
303.346
303.352
303.357
303.36
303.361
303.361
303.36
303.358
303.355
303.35
303.345
303.339
303.332
303.324
303.315
303.306
303.296
303.285
303.274
303.262
303.25
303.237
303.224
303.211
303.197
303.182
303.168
303.153
303.137
303.121
303.105
303.089
303.073
303.056
303.039
303.022
303.004
302.987
302.969
302.95
302.933
302.921
310.586
309.738
308.856
307.968
307.151
306.504
306.046
305.757
305.584
305.473
305.381
305.289
305.194
305.091
304.98
304.86
304.731
304.59
304.437
304.271
304.093
303.908
303.725
303.637
303.482
303.28
303.224
303.222
303.221
303.212
303.2
303.195
303.199
303.211
303.227
303.246
303.265
303.283
303.299
303.314
303.327
303.338
303.346
303.353
303.359
303.362
303.364
303.365
303.364
303.362
303.359
303.355
303.349
303.343
303.336
303.328
303.319
303.309
303.299
303.289
303.277
303.266
303.253
303.241
303.227
303.214
303.199
303.185
303.17
303.155
303.139
303.123
303.107
303.091
303.074
303.057
303.04
303.023
303.005
302.987
302.969
302.949
302.929
302.914
310.549
309.636
308.706
307.794
306.981
306.356
305.927
305.661
305.501
305.396
305.312
305.232
305.151
305.065
304.974
304.876
304.769
304.653
304.529
304.394
304.251
304.1
303.93
303.792
303.632
303.151
303.157
303.212
303.22
303.203
303.175
303.163
303.168
303.184
303.206
303.23
303.254
303.275
303.295
303.312
303.326
303.338
303.348
303.356
303.362
303.366
303.368
303.369
303.369
303.367
303.364
303.359
303.354
303.347
303.34
303.332
303.323
303.314
303.303
303.293
303.281
303.269
303.257
303.244
303.23
303.217
303.202
303.188
303.173
303.157
303.142
303.125
303.109
303.093
303.076
303.059
303.041
303.024
303.006
302.988
302.969
302.948
302.926
302.908
310.529
309.58
308.626
307.698
306.879
306.27
305.868
305.621
305.473
305.378
305.306
305.241
305.177
305.112
305.043
304.967
304.881
304.79
304.689
304.579
304.457
304.319
304.152
303.999
303.802
303.498
303.074
303.26
303.25
303.21
303.143
303.12
303.128
303.152
303.183
303.215
303.244
303.27
303.292
303.311
303.327
303.341
303.351
303.36
303.366
303.371
303.373
303.374
303.374
303.372
303.369
303.364
303.359
303.352
303.345
303.337
303.328
303.318
303.308
303.297
303.285
303.273
303.26
303.247
303.234
303.22
303.205
303.19
303.175
303.16
303.144
303.128
303.111
303.094
303.077
303.06
303.042
303.025
303.007
302.988
302.97
302.95
302.929
302.914
310.485
309.45
308.444
307.538
306.786
306.227
305.852
305.625
305.495
305.416
305.36
305.315
305.273
305.231
305.187
305.134
305.071
305.005
304.926
304.837
304.73
304.6
304.445
304.291
304.097
303.818
303.509
303.489
303.306
303.245
303.079
303.054
303.076
303.116
303.16
303.201
303.237
303.267
303.292
303.313
303.331
303.345
303.356
303.365
303.372
303.376
303.379
303.38
303.38
303.378
303.374
303.37
303.364
303.357
303.35
303.342
303.332
303.323
303.312
303.301
303.289
303.277
303.264
303.251
303.237
303.223
303.208
303.193
303.178
303.162
303.146
303.13
303.113
303.096
303.079
303.061
303.044
303.026
303.007
302.989
302.971
302.952
302.934
302.922
310.463
309.404
308.397
307.492
306.751
306.214
305.865
305.662
305.552
305.493
305.459
305.436
305.417
305.4
305.382
305.35
305.313
305.273
305.215
305.147
305.058
304.945
304.809
304.659
304.473
304.232
304.011
303.845
303.631
303.369
302.897
302.949
303.011
303.076
303.14
303.193
303.235
303.269
303.296
303.318
303.336
303.351
303.362
303.372
303.378
303.383
303.386
303.387
303.386
303.384
303.38
303.376
303.37
303.363
303.355
303.347
303.337
303.327
303.317
303.305
303.293
303.281
303.268
303.255
303.241
303.226
303.211
303.196
303.181
303.165
303.149
303.132
303.115
303.098
303.081
303.063
303.045
303.027
303.008
302.99
302.971
302.953
302.936
302.925
310.466
309.414
308.408
307.503
306.763
306.232
305.902
305.723
305.635
305.597
305.584
305.582
305.587
305.593
305.598
305.589
305.576
305.559
305.522
305.475
305.408
305.315
305.2
305.059
304.886
304.675
304.463
304.25
303.992
303.667
303.237
302.837
302.942
303.038
303.127
303.193
303.239
303.275
303.303
303.325
303.344
303.359
303.371
303.38
303.387
303.391
303.394
303.394
303.393
303.391
303.387
303.382
303.376
303.369
303.361
303.352
303.343
303.332
303.321
303.31
303.298
303.285
303.272
303.258
303.244
303.23
303.215
303.199
303.184
303.168
303.151
303.134
303.117
303.1
303.082
303.064
303.046
303.028
303.009
302.99
302.971
302.953
302.936
302.925
310.46
309.395
308.386
307.492
306.772
306.265
305.958
305.8
305.732
305.714
305.72
305.738
305.762
305.787
305.811
305.824
305.832
305.836
305.815
305.792
305.748
305.674
305.585
305.456
305.304
305.114
304.908
304.68
304.406
304.076
303.7
303.311
302.885
303.007
303.136
303.208
303.252
303.285
303.313
303.335
303.354
303.369
303.381
303.39
303.396
303.4
303.402
303.403
303.401
303.399
303.394
303.389
303.383
303.375
303.367
303.358
303.348
303.337
303.326
303.315
303.302
303.289
303.276
303.262
303.248
303.233
303.218
303.202
303.187
303.17
303.154
303.137
303.119
303.102
303.084
303.066
303.048
303.029
303.01
302.991
302.972
302.953
302.937
302.927
310.451
309.371
308.359
307.478
306.785
306.307
306.027
305.89
305.839
305.834
305.856
305.89
305.927
305.966
306.004
306.035
306.062
306.082
306.076
306.075
306.052
305.999
305.936
305.826
305.699
305.532
305.344
305.121
304.856
304.537
304.179
303.803
303.416
302.974
303.197
303.248
303.274
303.299
303.324
303.347
303.366
303.381
303.393
303.401
303.407
303.411
303.412
303.412
303.41
303.407
303.402
303.397
303.39
303.382
303.373
303.364
303.354
303.343
303.331
303.319
303.307
303.294
303.28
303.266
303.252
303.237
303.221
303.206
303.19
303.173
303.156
303.139
303.122
303.104
303.086
303.067
303.049
303.03
303.011
302.992
302.973
302.954
302.939
302.929
310.443
309.348
308.332
307.469
306.811
306.369
306.112
305.99
305.949
305.954
305.986
306.031
306.077
306.124
306.171
306.214
306.254
306.287
306.3
306.312
306.307
306.279
306.238
306.155
306.056
305.916
305.755
305.547
305.297
304.991
304.646
304.278
303.885
303.5
303.414
303.311
303.293
303.309
303.334
303.358
303.379
303.394
303.406
303.414
303.419
303.422
303.423
303.422
303.42
303.416
303.411
303.404
303.397
303.389
303.38
303.37
303.359
303.348
303.337
303.324
303.312
303.298
303.285
303.27
303.256
303.24
303.225
303.209
303.193
303.176
303.159
303.141
303.124
303.106
303.088
303.069
303.05
303.031
303.012
302.993
302.974
302.956
302.941
302.932
310.441
309.346
308.336
307.494
306.868
306.452
306.209
306.096
306.062
306.073
306.111
306.161
306.212
306.264
306.314
306.363
306.411
306.452
306.481
306.506
306.516
306.511
306.49
306.438
306.367
306.258
306.124
305.938
305.709
305.424
305.096
304.735
304.333
303.928
303.652
303.307
303.285
303.309
303.34
303.368
303.392
303.409
303.421
303.428
303.433
303.435
303.435
303.433
303.43
303.425
303.42
303.413
303.405
303.396
303.387
303.376
303.366
303.354
303.342
303.33
303.316
303.303
303.289
303.274
303.259
303.244
303.228
303.212
303.196
303.179
303.162
303.144
303.126
303.108
303.089
303.071
303.052
303.033
303.013
302.994
302.975
302.958
302.943
302.935
310.44
309.353
308.369
307.56
306.958
306.556
306.32
306.209
306.178
306.191
306.233
306.284
306.337
306.39
306.441
306.492
306.542
306.588
306.626
306.662
306.685
306.698
306.696
306.671
306.628
306.55
306.444
306.287
306.086
305.828
305.523
305.169
304.765
304.327
303.835
303.042
303.245
303.303
303.344
303.379
303.406
303.425
303.436
303.443
303.447
303.448
303.447
303.444
303.44
303.435
303.429
303.421
303.413
303.404
303.394
303.383
303.372
303.36
303.348
303.335
303.321
303.308
303.293
303.279
303.263
303.248
303.232
303.216
303.199
303.182
303.164
303.146
303.128
303.11
303.091
303.072
303.053
303.034
303.015
302.995
302.977
302.959
302.945
302.937
310.449
309.386
308.434
307.65
307.061
306.666
306.435
306.328
306.297
306.312
306.353
306.405
306.459
306.51
306.56
306.609
306.658
306.704
306.748
306.79
306.823
306.849
306.864
306.863
306.844
306.795
306.717
306.594
306.426
306.2
305.918
305.575
305.175
304.731
304.262
303.848
303.36
303.322
303.355
303.393
303.422
303.442
303.453
303.46
303.462
303.462
303.46
303.456
303.452
303.445
303.438
303.43
303.421
303.411
303.401
303.39
303.378
303.366
303.353
303.34
303.326
303.312
303.298
303.283
303.268
303.252
303.236
303.219
303.202
303.185
303.167
303.149
303.131
303.112
303.093
303.074
303.055
303.035
303.016
302.996
302.977
302.96
302.946
302.938
310.461
309.428
308.511
307.753
307.182
306.796
306.565
306.455
306.423
306.438
306.478
306.53
306.583
306.632
306.678
306.724
306.769
306.813
306.857
306.901
306.94
306.976
307.004
307.02
307.022
307
306.949
306.86
306.724
306.531
306.276
305.956
305.565
305.108
304.575
303.938
303.095
303.3
303.369
303.412
303.443
303.462
303.472
303.477
303.478
303.476
303.473
303.469
303.463
303.456
303.448
303.439
303.429
303.419
303.408
303.396
303.384
303.372
303.359
303.345
303.332
303.317
303.302
303.287
303.272
303.256
303.239
303.222
303.205
303.188
303.17
303.152
303.133
303.114
303.095
303.076
303.056
303.037
303.017
302.997
302.978
302.96
302.946
302.937
310.481
309.489
308.607
307.875
307.317
306.934
306.702
306.588
306.554
306.568
306.608
306.66
306.71
306.756
306.799
306.84
306.881
306.921
306.962
307.004
307.046
307.086
307.123
307.153
307.17
307.17
307.146
307.086
306.981
306.822
306.6
306.307
305.932
305.476
304.931
304.319
303.728
303.443
303.419
303.442
303.468
303.484
303.493
303.495
303.494
303.491
303.487
303.481
303.474
303.466
303.457
303.448
303.438
303.427
303.415
303.403
303.391
303.378
303.365
303.351
303.337
303.322
303.307
303.292
303.276
303.26
303.243
303.226
303.208
303.191
303.173
303.154
303.135
303.116
303.097
303.078
303.058
303.038
303.018
302.998
302.978
302.959
302.942
302.929
310.508
309.566
308.721
308.007
307.456
307.075
306.84
306.724
306.689
306.703
306.742
306.794
306.841
306.884
306.923
306.96
306.997
307.032
307.069
307.107
307.147
307.189
307.23
307.268
307.299
307.316
307.313
307.279
307.205
307.077
306.887
306.625
306.28
305.848
305.327
304.734
304.1
303.392
303.442
303.471
303.495
303.51
303.515
303.515
303.512
303.507
303.501
303.494
303.486
303.477
303.467
303.457
303.446
303.435
303.423
303.41
303.397
303.384
303.371
303.356
303.342
303.327
303.312
303.296
303.28
303.263
303.247
303.229
303.212
303.194
303.175
303.157
303.138
303.119
303.099
303.079
303.059
303.039
303.019
302.999
302.978
302.958
302.933
302.901
310.532
309.632
308.816
308.123
307.587
307.213
306.982
306.864
306.829
306.842
306.882
306.93
306.975
307.014
307.05
307.084
307.116
307.147
307.18
307.214
307.251
307.291
307.333
307.376
307.415
307.445
307.459
307.447
307.398
307.301
307.142
306.911
306.598
306.199
305.711
305.143
304.517
303.889
303.508
303.505
303.528
303.539
303.54
303.536
303.53
303.522
303.514
303.506
303.497
303.487
303.477
303.466
303.454
303.443
303.43
303.417
303.404
303.39
303.376
303.362
303.347
303.332
303.317
303.301
303.284
303.267
303.25
303.233
303.215
303.197
303.178
303.159
303.14
303.121
303.101
303.081
303.061
303.041
303.02
303
302.979
302.955
302.917
302.844
310.551
309.685
308.897
308.229
307.712
307.35
307.124
307.007
306.971
306.984
307.024
307.068
307.109
307.146
307.179
307.209
307.238
307.265
307.294
307.324
307.357
307.395
307.436
307.481
307.525
307.565
307.591
307.597
307.57
307.497
307.366
307.166
306.888
306.526
306.072
305.532
304.914
304.2
303.242
303.518
303.57
303.574
303.568
303.558
303.548
303.538
303.528
303.518
303.508
303.497
303.486
303.475
303.463
303.45
303.438
303.424
303.411
303.397
303.382
303.368
303.353
303.337
303.321
303.305
303.288
303.271
303.254
303.236
303.218
303.2
303.181
303.162
303.142
303.123
303.103
303.083
303.062
303.042
303.022
303.001
302.98
302.958
302.933
302.9
310.567
309.733
308.977
308.337
307.839
307.486
307.265
307.152
307.116
307.128
307.166
307.205
307.243
307.278
307.309
307.336
307.362
307.386
307.411
307.438
307.468
307.503
307.543
307.587
307.634
307.679
307.715
307.734
307.725
307.673
307.566
307.391
307.14
306.804
306.378
305.865
305.27
304.614
303.97
303.73
303.652
303.619
303.598
303.58
303.566
303.553
303.541
303.53
303.519
303.507
303.496
303.484
303.471
303.458
303.445
303.431
303.417
303.403
303.388
303.373
303.358
303.342
303.326
303.31
303.293
303.275
303.258
303.24
303.221
303.203
303.184
303.164
303.145
303.125
303.105
303.084
303.064
303.043
303.023
303.002
302.981
302.96
302.941
302.925
310.583
309.781
309.057
308.445
307.969
307.629
307.415
307.302
307.263
307.273
307.306
307.341
307.376
307.408
307.437
307.463
307.486
307.508
307.53
307.555
307.583
307.616
307.654
307.698
307.746
307.795
307.837
307.866
307.869
307.835
307.75
307.602
307.381
307.077
306.677
306.177
305.595
304.945
304.286
303.796
303.695
303.654
303.624
303.601
303.582
303.567
303.553
303.541
303.529
303.517
303.505
303.492
303.479
303.466
303.452
303.438
303.424
303.409
303.394
303.379
303.363
303.347
303.331
303.314
303.297
303.279
303.261
303.243
303.225
303.206
303.186
303.167
303.147
303.127
303.106
303.086
303.065
303.045
303.024
303.003
302.982
302.961
302.943
302.931
310.599
309.828
309.136
308.555
308.1
307.774
307.564
307.451
307.409
307.416
307.443
307.474
307.506
307.536
307.564
307.588
307.611
307.632
307.653
307.676
307.702
307.734
307.771
307.814
307.863
307.913
307.96
307.995
308.008
307.988
307.919
307.789
307.586
307.298
306.914
306.431
305.854
305.192
304.448
303.506
303.686
303.679
303.647
303.618
303.596
303.579
303.565
303.552
303.539
303.527
303.514
303.501
303.488
303.474
303.46
303.446
303.431
303.416
303.401
303.385
303.369
303.352
303.336
303.319
303.301
303.283
303.265
303.247
303.228
303.209
303.189
303.169
303.149
303.129
303.108
303.088
303.067
303.046
303.025
303.004
302.982
302.962
302.944
302.933
310.615
309.877
309.22
308.668
308.233
307.918
307.712
307.597
307.552
307.555
307.576
307.603
307.633
307.661
307.687
307.712
307.734
307.756
307.777
307.8
307.826
307.856
307.893
307.936
307.985
308.037
308.086
308.125
308.145
308.135
308.08
307.969
307.789
307.526
307.167
306.697
306.121
305.458
304.741
304.057
303.84
303.727
303.667
303.631
303.608
303.59
303.575
303.562
303.549
303.536
303.523
303.51
303.496
303.482
303.468
303.453
303.438
303.423
303.407
303.391
303.374
303.358
303.341
303.323
303.305
303.287
303.269
303.25
303.231
303.211
303.192
303.172
303.151
303.131
303.11
303.089
303.068
303.047
303.026
303.004
302.983
302.963
302.945
302.935
310.632
309.929
309.305
308.781
308.365
308.059
307.857
307.74
307.691
307.689
307.705
307.728
307.754
307.782
307.808
307.833
307.857
307.88
307.903
307.926
307.953
307.984
308.02
308.064
308.113
308.166
308.216
308.258
308.283
308.28
308.237
308.142
307.982
307.743
307.406
306.955
306.383
305.713
304.992
304.327
303.896
303.729
303.666
303.635
303.615
303.599
303.585
303.572
303.559
303.546
303.532
303.519
303.505
303.49
303.476
303.46
303.445
303.429
303.413
303.397
303.38
303.363
303.346
303.328
303.31
303.291
303.273
303.253
303.234
303.214
303.194
303.174
303.153
303.133
303.112
303.09
303.069
303.048
303.026
303.005
302.983
302.963
302.947
302.937
310.649
309.981
309.389
308.89
308.49
308.194
307.995
307.877
307.824
307.817
307.827
307.847
307.871
307.898
307.925
307.953
307.979
308.005
308.029
308.055
308.083
308.116
308.153
308.197
308.248
308.301
308.352
308.395
308.422
308.425
308.393
308.313
308.174
307.96
307.651
307.226
306.665
305.97
305.176
304.381
303.708
303.641
303.638
303.632
303.621
303.608
303.595
303.582
303.569
303.555
303.542
303.528
303.514
303.499
303.484
303.468
303.452
303.436
303.42
303.403
303.386
303.368
303.35
303.332
303.314
303.295
303.276
303.257
303.237
303.217
303.197
303.176
303.155
303.134
303.113
303.092
303.07
303.049
303.027
303.005
302.984
302.964
302.947
302.938
310.667
310.032
309.47
308.994
308.61
308.323
308.126
308.007
307.951
307.937
307.944
307.959
307.983
308.011
308.04
308.07
308.1
308.129
308.157
308.185
308.216
308.251
308.291
308.336
308.387
308.441
308.493
308.536
308.565
308.572
308.548
308.483
308.366
308.182
307.912
307.527
306.99
306.286
305.424
304.376
302.987
303.496
303.616
303.635
303.63
303.618
303.605
303.592
303.579
303.566
303.552
303.538
303.523
303.508
303.492
303.476
303.46
303.443
303.426
303.409
303.391
303.374
303.355
303.337
303.318
303.299
303.28
303.26
303.24
303.22
303.199
303.178
303.157
303.136
303.115
303.093
303.071
303.049
303.027
303.005
302.984
302.963
302.947
302.938
310.684
310.082
309.548
309.093
308.724
308.443
308.248
308.129
308.07
308.05
308.053
308.066
308.09
308.119
308.152
308.186
308.22
308.253
308.284
308.317
308.351
308.389
308.431
308.478
308.53
308.585
308.636
308.68
308.71
308.72
308.705
308.655
308.56
308.408
308.18
307.842
307.349
306.673
305.83
304.894
304.081
303.705
303.683
303.664
303.647
303.632
303.618
303.604
303.591
303.577
303.563
303.548
303.533
303.517
303.501
303.484
303.468
303.45
303.433
303.415
303.397
303.379
303.36
303.342
303.323
303.303
303.283
303.263
303.243
303.223
303.202
303.181
303.159
303.138
303.116
303.094
303.072
303.05
303.028
303.006
302.984
302.963
302.947
302.937
310.701
310.13
309.622
309.188
308.832
308.557
308.364
308.243
308.181
308.156
308.154
308.167
308.192
308.224
308.261
308.299
308.337
308.375
308.411
308.448