0.010101 	-2.44944e-11 	2.56599e-14 	-2.44942e-13
0.020202 	-9.22566e-13 	2.32609e-15 	-1.33699e-14
