0 	0 	0 	0
0.010101 	-3.16945e-28 	-5.60191e-29 	-2.97353e-28
0.020202 	-4.13139e-28 	-4.48811e-29 	-2.32106e-28
