0.010101 	8.3591e-09 	1.06312e-13 	3.70184e-11
0.020202 	9.05894e-10 	-2.06675e-13 	1.32714e-11
