/*--------------------------------*- C++ -*----------------------------------*\
  =========                 |
  \\      /  F ield         | OpenFOAM: The Open Source CFD Toolbox
   \\    /   O peration     | Website:  https://openfoam.org
    \\  /    A nd           | Version:  6
     \\/     M anipulation  |
\*---------------------------------------------------------------------------*/
FoamFile
{
    version     2.0;
    format      ascii;
    class       volScalarField;
    location    "200";
    object      dmdt;
}
// * * * * * * * * * * * * * * * * * * * * * * * * * * * * * * * * * * * * * //

dimensions      [0 0 0 0 0 0 0];

internalField   nonuniform List<scalar> 
4800
(
-0.218843
-0.215371
-0.21197
-0.20868
-0.205526
-0.20252
-0.199671
-0.196975
-0.194423
-0.191996
-0.189672
-0.187431
-0.185255
-0.183127
-0.181029
-0.178947
-0.17688
-0.174829
-0.172793
-0.170768
-0.16875
-0.166731
-0.164707
-0.162672
-0.160624
-0.158562
-0.156486
-0.154397
-0.152294
-0.150179
-0.148052
-0.145916
-0.143776
-0.141637
-0.139503
-0.137374
-0.135247
-0.133114
-0.130965
-0.12879
-0.126583
-0.124338
-0.12205
-0.119711
-0.117318
-0.114868
-0.112362
-0.1098
-0.107188
-0.10453
-0.101836
-0.0991128
-0.0963674
-0.093603
-0.0908213
-0.088025
-0.085218
-0.0824041
-0.0795857
-0.0767629
-0.0739338
-0.0710954
-0.0682459
-0.0653848
-0.0625116
-0.059624
-0.0567162
-0.0537813
-0.0508137
-0.0478099
-0.0447711
-0.0417042
-0.0386203
-0.035531
-0.0324505
-0.0294015
-0.0264122
-0.0235039
-0.0206804
-0.0179072
-0.0150639
-0.012104
-0.00906148
-0.0059602
-0.00281599
0.00035991
0.00355904
0.00677494
0.0100026
0.0132381
0.0164781
0.0197202
0.0229622
0.0262025
0.0294398
0.0326731
0.0359015
0.0391246
0.0423418
0.0455529
0.0487577
0.0519564
0.0551488
0.0583351
0.0615156
0.0646903
0.0678597
0.071024
0.0741835
0.0773386
0.0804897
0.0836371
0.0867812
0.0899223
0.0930609
0.0961974
0.0993321
0.102465
0.105598
0.10873
-0.218842
-0.215377
-0.211998
-0.208733
-0.205599
-0.202612
-0.199779
-0.197098
-0.194559
-0.192143
-0.189829
-0.187598
-0.18543
-0.183309
-0.181221
-0.179149
-0.177093
-0.175051
-0.173023
-0.171004
-0.168987
-0.166967
-0.164939
-0.162901
-0.160849
-0.158784
-0.156706
-0.154616
-0.152512
-0.150397
-0.148273
-0.146145
-0.144016
-0.141888
-0.139764
-0.137641
-0.135517
-0.133382
-0.13123
-0.129055
-0.12685
-0.124609
-0.122325
-0.11999
-0.1176
-0.115152
-0.112645
-0.110082
-0.107468
-0.104808
-0.102109
-0.0993789
-0.0966232
-0.0938463
-0.0910527
-0.0882468
-0.0854331
-0.0826155
-0.0797961
-0.0769753
-0.0741512
-0.0713206
-0.0684808
-0.0656297
-0.0627653
-0.0598836
-0.0569785
-0.0540451
-0.0510794
-0.0480795
-0.0450479
-0.0419915
-0.0389193
-0.0358409
-0.0327688
-0.029722
-0.0267207
-0.0237819
-0.0209221
-0.0180925
-0.0151817
-0.012184
-0.00911799
-0.00600096
-0.00284561
0.000338446
0.00354368
0.00676422
0.00999544
0.0132336
0.0164757
0.0197194
0.0229625
0.0262037
0.0294416
0.0326753
0.035904
0.0391272
0.0423444
0.0455555
0.0487604
0.0519589
0.0551512
0.0583374
0.0615177
0.0646923
0.0678615
0.0710257
0.074185
0.07734
0.0804909
0.0836382
0.0867821
0.0899231
0.0930616
0.096198
0.0993326
0.102466
0.105598
0.10873
-0.218868
-0.215441
-0.21208
-0.208832
-0.205721
-0.202761
-0.199956
-0.197303
-0.194787
-0.192392
-0.190099
-0.187885
-0.185733
-0.183629
-0.18156
-0.179505
-0.177466
-0.175441
-0.173424
-0.171411
-0.169394
-0.16737
-0.165336
-0.163292
-0.161236
-0.15917
-0.157092
-0.155003
-0.152905
-0.150798
-0.148686
-0.146571
-0.144457
-0.142343
-0.14023
-0.138114
-0.13599
-0.133853
-0.131699
-0.129523
-0.12732
-0.125083
-0.122804
-0.120474
-0.118088
-0.115641
-0.113135
-0.11057
-0.107952
-0.105286
-0.102578
-0.0998322
-0.0970555
-0.0942549
-0.0914387
-0.0886142
-0.085787
-0.0829612
-0.0801394
-0.0773224
-0.0745078
-0.0716913
-0.0688673
-0.0660307
-0.0631765
-0.0603003
-0.0573995
-0.054473
-0.0515193
-0.0485387
-0.0455338
-0.0425078
-0.039465
-0.0364098
-0.0333525
-0.0303088
-0.0272844
-0.0242861
-0.0213364
-0.0183981
-0.0153898
-0.0123308
-0.009224
-0.00607834
-0.0029022
0.000297336
0.00351429
0.00674379
0.00998188
0.0132253
0.0164714
0.0197181
0.0229635
0.0262064
0.0294454
0.0326799
0.0359091
0.0391325
0.0423499
0.0455609
0.0487656
0.051964
0.055156
0.0583419
0.0615219
0.0646962
0.0678651
0.071029
0.074188
0.0773427
0.0804933
0.0836403
0.086784
0.0899247
0.0930629
0.096199
0.0993334
0.102466
0.105598
0.10873
-0.21889
-0.215508
-0.212187
-0.20897
-0.205891
-0.202966
-0.200198
-0.197578
-0.195094
-0.192727
-0.19046
-0.188271
-0.186141
-0.184055
-0.182
-0.179957
-0.177938
-0.175928
-0.173924
-0.171918
-0.169904
-0.167881
-0.165846
-0.163802
-0.161746
-0.159681
-0.157605
-0.155522
-0.153432
-0.151336
-0.149237
-0.147138
-0.145039
-0.142939
-0.140836
-0.138726
-0.136606
-0.134472
-0.132322
-0.130152
-0.127956
-0.125727
-0.123457
-0.121133
-0.118748
-0.1163
-0.113789
-0.111216
-0.108588
-0.105907
-0.103179
-0.100412
-0.0976112
-0.0947861
-0.0919463
-0.0891008
-0.0862568
-0.0834192
-0.0805916
-0.0777743
-0.0749631
-0.0721525
-0.0693359
-0.0665077
-0.0636615
-0.0607932
-0.0579007
-0.054984
-0.0520432
-0.0490801
-0.0460971
-0.0430949
-0.0400732
-0.0370326
-0.0339772
-0.0309109
-0.0278414
-0.0247947
-0.0217859
-0.0187591
-0.0156548
-0.0125262
-0.00936868
-0.00618551
-0.00298116
0.000239849
0.0034733
0.00671552
0.00996341
0.0132144
0.0164662
0.0197172
0.0229659
0.026211
0.0294517
0.0326872
0.0359171
0.0391408
0.0423583
0.0455692
0.0487737
0.0519717
0.0551633
0.0583488
0.0615283
0.0647022
0.0678706
0.0710339
0.0741926
0.0773468
0.0804969
0.0836435
0.0867867
0.0899271
0.0930649
0.0962007
0.0993346
0.102467
0.105599
0.10873
-0.218915
-0.215584
-0.212313
-0.209143
-0.206109
-0.203231
-0.200506
-0.197926
-0.195477
-0.193143
-0.190905
-0.188745
-0.18664
-0.184572
-0.182528
-0.180498
-0.178498
-0.176502
-0.174509
-0.172509
-0.170498
-0.168478
-0.166446
-0.164405
-0.162354
-0.160293
-0.158224
-0.156148
-0.154066
-0.151981
-0.149895
-0.147808
-0.145722
-0.143634
-0.141542
-0.139443
-0.137335
-0.135215
-0.133079
-0.130924
-0.128743
-0.12653
-0.124273
-0.121956
-0.119571
-0.117116
-0.114594
-0.112006
-0.109358
-0.106656
-0.103903
-0.101109
-0.0982819
-0.0954309
-0.0925668
-0.0896997
-0.0868379
-0.0839871
-0.0811512
-0.0783288
-0.0755135
-0.0727011
-0.0698854
-0.0670615
-0.0642214
-0.0613608
-0.0584765
-0.0555676
-0.0526341
-0.0496781
-0.0467015
-0.0437044
-0.0406855
-0.0376427
-0.03458
-0.0315028
-0.0284198
-0.0253437
-0.0222709
-0.0191516
-0.0159544
-0.0127539
-0.00954077
-0.00631457
-0.00307681
0.00017022
0.00342396
0.00668197
0.00994211
0.0132025
0.0164615
0.0197179
0.0229705
0.0262185
0.0294611
0.0326979
0.0359285
0.0391525
0.04237
0.0455807
0.0487848
0.0519822
0.0551733
0.0583581
0.061537
0.0647102
0.0678779
0.0710406
0.0741986
0.0773522
0.0805018
0.0836477
0.0867904
0.0899302
0.0930676
0.0962028
0.0993363
0.102468
0.1056
0.10873
-0.218939
-0.215661
-0.212452
-0.209347
-0.206372
-0.203547
-0.200873
-0.198339
-0.195934
-0.193639
-0.191436
-0.189305
-0.187223
-0.185173
-0.183144
-0.181133
-0.179146
-0.177162
-0.175178
-0.173182
-0.171176
-0.16916
-0.167133
-0.165097
-0.16305
-0.160996
-0.158934
-0.156866
-0.154793
-0.152719
-0.150644
-0.14857
-0.146496
-0.144421
-0.142344
-0.140262
-0.138173
-0.136074
-0.133963
-0.131833
-0.129678
-0.127489
-0.12525
-0.12294
-0.120553
-0.118088
-0.115549
-0.112939
-0.110266
-0.107534
-0.104752
-0.101928
-0.0990715
-0.0961938
-0.0933053
-0.0904168
-0.0875368
-0.0846714
-0.0818238
-0.0789899
-0.0761633
-0.0733427
-0.0705242
-0.0677029
-0.0648685
-0.0620154
-0.0591375
-0.0562327
-0.0533016
-0.0503472
-0.0473702
-0.044368
-0.0413376
-0.0382786
-0.0351978
-0.0321038
-0.0290022
-0.0258898
-0.0227558
-0.0195539
-0.0162716
-0.0130006
-0.00973003
-0.0064577
-0.00318312
9.31684e-05
0.00337003
0.0066462
0.00992047
0.0131917
0.0164591
0.0197216
0.0229787
0.0262298
0.0294746
0.0327126
0.0359439
0.0391681
0.0423853
0.0455956
0.0487991
0.0519958
0.0551861
0.05837
0.061548
0.0647203
0.0678872
0.071049
0.0742062
0.077359
0.0805078
0.083653
0.086795
0.0899342
0.0930709
0.0962055
0.0993383
0.10247
0.105601
0.108731
-0.218968
-0.215749
-0.212604
-0.209572
-0.206672
-0.203914
-0.201297
-0.198817
-0.19646
-0.194211
-0.192047
-0.189947
-0.187887
-0.185858
-0.183849
-0.181857
-0.179879
-0.177902
-0.175923
-0.173932
-0.171931
-0.169921
-0.167899
-0.165868
-0.163828
-0.16178
-0.159727
-0.157668
-0.155605
-0.153542
-0.151479
-0.149417
-0.147357
-0.145299
-0.143241
-0.141182
-0.139121
-0.137054
-0.134977
-0.132883
-0.130764
-0.128605
-0.126387
-0.124085
-0.121693
-0.119212
-0.116652
-0.114014
-0.111309
-0.108544
-0.105727
-0.102871
-0.0999859
-0.0970813
-0.0941687
-0.0912591
-0.088361
-0.0854804
-0.0826205
-0.0797737
-0.0769352
-0.0741074
-0.0712862
-0.0684656
-0.0656372
-0.0627919
-0.0599212
-0.0570233
-0.0541
-0.0511503
-0.0481704
-0.0451552
-0.0421021
-0.039014
-0.0358991
-0.0327677
-0.0296252
-0.0264569
-0.0232459
-0.019957
-0.0165958
-0.0132563
-0.00992795
-0.00660782
-0.00329424
1.35127e-05
0.0033155
0.00661152
0.00990127
0.0131844
0.0164608
0.0197299
0.0229918
0.0262461
0.029493
0.0327322
0.0359639
0.0391881
0.0424049
0.0456144
0.048817
0.0520127
0.0552018
0.0583847
0.0615615
0.0647327
0.0678985
0.0710593
0.0742154
0.0773672
0.0805151
0.0836594
0.0868006
0.0899389
0.0930748
0.0962087
0.0993408
0.102472
0.105602
0.108731
-0.219011
-0.215875
-0.212813
-0.209857
-0.207028
-0.204336
-0.201781
-0.199356
-0.197051
-0.194851
-0.192726
-0.190655
-0.18862
-0.186613
-0.184625
-0.182649
-0.180679
-0.178707
-0.176731
-0.174746
-0.172752
-0.170747
-0.168733
-0.166709
-0.164677
-0.162637
-0.160592
-0.158544
-0.156493
-0.154442
-0.152392
-0.150346
-0.148303
-0.146265
-0.144232
-0.142204
-0.140178
-0.138151
-0.136119
-0.134072
-0.131998
-0.129876
-0.127679
-0.125382
-0.12298
-0.120481
-0.117893
-0.115222
-0.11248
-0.109679
-0.106828
-0.10394
-0.101027
-0.0980974
-0.0951631
-0.0922347
-0.0893212
-0.0864294
-0.0835602
-0.0807024
-0.0778569
-0.0750271
-0.0722064
-0.0693893
-0.0665692
-0.0637323
-0.0608706
-0.0579813
-0.0550638
-0.0521099
-0.0491123
-0.0460669
-0.0429762
-0.0398451
-0.0366789
-0.0334856
-0.0302674
-0.0270198
-0.0237303
-0.0203589
-0.0169213
-0.0135141
-0.0101277
-0.00675869
-0.00340472
-6.40567e-05
0.00326439
0.00658135
0.00988744
0.0131831
0.0164688
0.0197447
0.0230113
0.0262688
0.0295174
0.0327575
0.0359893
0.039213
0.042429
0.0456375
0.0488387
0.0520331
0.0552208
0.0584022
0.0615776
0.0647473
0.0679118
0.0710713
0.0742262
0.0773768
0.0805236
0.0836669
0.086807
0.0899444
0.0930794
0.0962124
0.0993437
0.102474
0.105603
0.108731
-0.219059
-0.216022
-0.213054
-0.210184
-0.20743
-0.204807
-0.202316
-0.19995
-0.197698
-0.195543
-0.193454
-0.191413
-0.189405
-0.18742
-0.185447
-0.183481
-0.181518
-0.179554
-0.177584
-0.175605
-0.173618
-0.171623
-0.169618
-0.167603
-0.165579
-0.16355
-0.161516
-0.15948
-0.157443
-0.155406
-0.153373
-0.151344
-0.149323
-0.147311
-0.145309
-0.143317
-0.141335
-0.139359
-0.137383
-0.135395
-0.133374
-0.131293
-0.129115
-0.126821
-0.124404
-0.121879
-0.119256
-0.116546
-0.113766
-0.110928
-0.108045
-0.10513
-0.102192
-0.0992432
-0.0962931
-0.0933528
-0.0904307
-0.0875333
-0.0846586
-0.0817954
-0.0789509
-0.0761252
-0.0733103
-0.0705
-0.0676854
-0.0648504
-0.0619905
-0.0591015
-0.0561782
-0.0532041
-0.0501713
-0.0470786
-0.0439326
-0.0407409
-0.0375096
-0.0342459
-0.0309527
-0.0276207
-0.0242314
-0.0207624
-0.0172443
-0.0137686
-0.0103235
-0.00690486
-0.00350957
-0.000135073
0.00322062
0.00655913
0.00988192
0.0131903
0.0164852
0.0197678
0.0230388
0.026299
0.029549
0.0327894
0.0360208
0.0392436
0.0424583
0.0456652
0.0488647
0.0520572
0.0552431
0.0584227
0.0615963
0.0647644
0.0679272
0.0710851
0.0742386
0.0773879
0.0805334
0.0836754
0.0868144
0.0899507
0.0930846
0.0962166
0.0993469
0.102476
0.105604
0.108732
-0.219111
-0.216175
-0.213305
-0.210524
-0.207855
-0.205309
-0.202889
-0.200586
-0.198388
-0.196275
-0.194221
-0.192209
-0.190224
-0.188255
-0.186294
-0.184339
-0.182383
-0.180425
-0.178461
-0.17649
-0.174513
-0.172527
-0.170532
-0.168527
-0.166516
-0.1645
-0.16248
-0.160459
-0.158438
-0.156419
-0.154405
-0.152399
-0.150403
-0.148421
-0.146456
-0.144508
-0.142578
-0.140663
-0.138753
-0.136828
-0.134865
-0.132826
-0.130667
-0.128371
-0.125935
-0.123376
-0.12071
-0.117962
-0.115146
-0.112277
-0.109367
-0.106431
-0.103478
-0.100518
-0.0975612
-0.0946175
-0.0916949
-0.088799
-0.0859258
-0.0830659
-0.0802294
-0.0774132
-0.0746082
-0.071805
-0.0689897
-0.0661497
-0.0632817
-0.0603804
-0.0574351
-0.054423
-0.0513391
-0.0481831
-0.0449627
-0.0416883
-0.038368
-0.0350115
-0.031625
-0.0281991
-0.0247122
-0.0211522
-0.0175579
-0.0140143
-0.0105102
-0.00704133
-0.00360411
-0.000195276
0.003188
0.00654821
0.00988765
0.0132084
0.0165123
0.019801
0.0230758
0.0263381
0.0295888
0.0328289
0.0360592
0.0392804
0.0424931
0.0456979
0.0488951
0.0520853
0.0552689
0.0584463
0.0616178
0.0647838
0.0679447
0.0711009
0.0742526
0.0774003
0.0805443
0.083685
0.0868226
0.0899577
0.0930904
0.0962212
0.0993505
0.102479
0.105606
0.108732
-0.219166
-0.216338
-0.213566
-0.210876
-0.208294
-0.20583
-0.203482
-0.201243
-0.199096
-0.197023
-0.194999
-0.193012
-0.191047
-0.189093
-0.187143
-0.185195
-0.183247
-0.181297
-0.179342
-0.177381
-0.175413
-0.173438
-0.171454
-0.169463
-0.167467
-0.165467
-0.163464
-0.161461
-0.15946
-0.157462
-0.155471
-0.153491
-0.151525
-0.149578
-0.147654
-0.145757
-0.143887
-0.142037
-0.140195
-0.138337
-0.136426
-0.134409
-0.13225
-0.129943
-0.127489
-0.124906
-0.122213
-0.119436
-0.116594
-0.113704
-0.11078
-0.107835
-0.104879
-0.101921
-0.0989681
-0.0960319
-0.0931185
-0.0902319
-0.0873686
-0.0845202
-0.081698
-0.0788969
-0.0761052
-0.0733069
-0.0704875
-0.0676406
-0.0647567
-0.0618297
-0.0588411
-0.0557707
-0.0526183
-0.049383
-0.0460734
-0.0426986
-0.0392701
-0.0358026
-0.0323051
-0.0287689
-0.0251777
-0.0215283
-0.0178582
-0.0142465
-0.0106828
-0.00716329
-0.0036838
-0.000240488
0.00317029
0.00655188
0.0099075
0.01324
0.0165521
0.019846
0.0231238
0.0263873
0.0296378
0.0328767
0.0361051
0.039324
0.042534
0.0457359
0.0489303
0.0521176
0.0552984
0.0584731
0.0616421
0.0648057
0.0679644
0.0711185
0.0742683
0.0774141
0.0805565
0.0836955
0.0868317
0.0899654
0.0930968
0.0962264
0.0993544
0.102481
0.105607
0.108733
-0.219223
-0.216507
-0.213839
-0.211245
-0.20875
-0.206361
-0.204081
-0.201899
-0.199802
-0.197768
-0.195776
-0.193812
-0.191863
-0.189919
-0.187977
-0.186036
-0.184094
-0.182151
-0.180205
-0.178254
-0.176298
-0.174335
-0.172366
-0.170391
-0.168412
-0.166431
-0.164449
-0.162468
-0.160489
-0.158517
-0.156553
-0.154602
-0.15267
-0.150761
-0.148884
-0.147041
-0.145232
-0.143447
-0.141669
-0.139865
-0.137976
-0.135959
-0.133795
-0.13148
-0.129018
-0.126426
-0.123724
-0.120937
-0.118085
-0.11519
-0.112268
-0.109331
-0.106388
-0.103445
-0.100511
-0.0975943
-0.094701
-0.0918333
-0.0889885
-0.0861587
-0.0833554
-0.0805726
-0.077795
-0.0749977
-0.0721744
-0.069316
-0.0664057
-0.0634338
-0.0603807
-0.0572358
-0.0539998
-0.050672
-0.0472628
-0.0437783
-0.0402334
-0.0366446
-0.0330206
-0.0293531
-0.0256391
-0.0218905
-0.0181417
-0.0144603
-0.0108363
-0.00726566
-0.00374388
-0.000266393
0.0031713
0.00657348
0.00994429
0.0132875
0.0166066
0.0199046
0.0231842
0.0264476
0.0296969
0.0329336
0.0361591
0.0393747
0.0425812
0.0457795
0.0489703
0.0521542
0.0553317
0.0585032
0.0616692
0.0648301
0.0679862
0.0711379
0.0742855
0.0774293
0.0805697
0.0837071
0.0868416
0.0899737
0.0931037
0.0962319
0.0993587
0.102484
0.105609
0.108733
-0.219281
-0.216675
-0.214108
-0.211609
-0.209202
-0.20689
-0.204674
-0.202546
-0.200491
-0.198488
-0.19652
-0.194572
-0.192635
-0.190701
-0.188767
-0.186834
-0.184902
-0.182968
-0.181031
-0.179091
-0.177148
-0.175199
-0.173247
-0.171291
-0.169333
-0.167374
-0.165416
-0.163461
-0.16151
-0.159566
-0.157634
-0.155716
-0.15382
-0.151953
-0.150123
-0.148334
-0.146582
-0.144856
-0.14313
-0.14135
-0.139465
-0.137448
-0.135283
-0.132969
-0.130507
-0.12792
-0.12522
-0.12244
-0.1196
-0.116721
-0.113821
-0.11091
-0.107996
-0.105085
-0.102184
-0.0992994
-0.0964369
-0.0935975
-0.0907789
-0.0879759
-0.0851954
-0.0824332
-0.0796653
-0.0768587
-0.0740228
-0.0711383
-0.0681875
-0.0651529
-0.0620215
-0.0587867
-0.0554494
-0.0520144
-0.0484932
-0.04489
-0.041219
-0.037496
-0.0337316
-0.0299234
-0.0260822
-0.0222317
-0.0184019
-0.0146493
-0.0109642
-0.00734241
-0.0037789
-0.000268202
0.00319515
0.00661646
0.0100009
0.0133532
0.0166777
0.0199783
0.0232581
0.0265201
0.0297668
0.033
0.0362216
0.0394328
0.0426349
0.0458288
0.0490153
0.0521951
0.0553687
0.0585365
0.0616992
0.0648569
0.0680101
0.071159
0.0743042
0.0774458
0.0805841
0.0837195
0.0868523
0.0899827
0.0931112
0.0962379
0.0993633
0.102488
0.105611
0.108734
-0.219336
-0.216835
-0.21437
-0.211969
-0.209648
-0.207411
-0.205256
-0.203175
-0.201152
-0.199172
-0.197222
-0.195289
-0.193362
-0.191435
-0.189508
-0.18758
-0.185654
-0.183727
-0.181801
-0.179875
-0.177946
-0.176016
-0.174083
-0.172149
-0.170215
-0.168282
-0.166352
-0.164427
-0.162508
-0.160599
-0.158702
-0.156821
-0.154965
-0.153141
-0.151357
-0.149617
-0.147914
-0.146237
-0.14454
-0.142768
-0.140887
-0.138878
-0.136722
-0.134416
-0.131962
-0.129385
-0.126699
-0.123943
-0.121133
-0.118291
-0.115432
-0.112565
-0.109698
-0.106834
-0.103979
-0.101139
-0.098318
-0.0955159
-0.0927301
-0.0899592
-0.0872034
-0.0844558
-0.0816868
-0.0788655
-0.0760135
-0.0730941
-0.0700884
-0.0669768
-0.0637509
-0.0604039
-0.0569404
-0.0533746
-0.0497215
-0.0459848
-0.0421767
-0.0383138
-0.0344073
-0.0304639
-0.0265014
-0.0225454
-0.0186293
-0.0148038
-0.0110577
-0.00738578
-0.00378214
-0.000240257
0.00324649
0.00668459
0.0100803
0.0134395
0.0167672
0.0200683
0.0233466
0.0266055
0.029848
0.0330764
0.0362927
0.0394986
0.0426953
0.0458839
0.0490653
0.0522403
0.0554094
0.058573
0.0617318
0.0648859
0.0680359
0.0711819
0.0743243
0.0774634
0.0805994
0.0837327
0.0868636
0.0899922
0.093119
0.0962442
0.0993681
0.102491
0.105613
0.108735
-0.21939
-0.216998
-0.214637
-0.212326
-0.210082
-0.207908
-0.205806
-0.203764
-0.201767
-0.199807
-0.197868
-0.195942
-0.194019
-0.192096
-0.190174
-0.188255
-0.186339
-0.184425
-0.182514
-0.180603
-0.178692
-0.176781
-0.17487
-0.17296
-0.171054
-0.169151
-0.167254
-0.165364
-0.163483
-0.161613
-0.159757
-0.157918
-0.156105
-0.154324
-0.152584
-0.150886
-0.149225
-0.147581
-0.145897
-0.144136
-0.142271
-0.140281
-0.138141
-0.135848
-0.13341
-0.130851
-0.128189
-0.125465
-0.122694
-0.119902
-0.1171
-0.114293
-0.111486
-0.108681
-0.105883
-0.103096
-0.100323
-0.0975648
-0.0948167
-0.0920765
-0.0893403
-0.0865991
-0.083827
-0.0809933
-0.0781144
-0.0751457
-0.07207
-0.0688654
-0.0655229
-0.0620416
-0.0584322
-0.0547138
-0.0509067
-0.0470195
-0.0430657
-0.0390616
-0.0350181
-0.0309459
-0.0268657
-0.0228071
-0.0188068
-0.0149099
-0.0111047
-0.00738551
-0.00374508
-0.000175621
0.00333084
0.00678212
0.0101857
0.0135486
0.0168768
0.0201758
0.0234503
0.0267042
0.0299408
0.0331629
0.0363726
0.0395719
0.0427621
0.0459446
0.0491201
0.0522896
0.0554535
0.0586125
0.0617669
0.0649171
0.0680635
0.0712062
0.0743456
0.077482
0.0806156
0.0837467
0.0868755
0.0900023
0.0931273
0.0962508
0.0993731
0.102494
0.105615
0.108735
-0.219441
-0.217148
-0.21488
-0.212654
-0.210479
-0.208363
-0.206301
-0.204287
-0.202313
-0.200368
-0.19844
-0.19652
-0.194602
-0.192686
-0.190772
-0.188862
-0.186957
-0.185058
-0.183164
-0.181272
-0.179382
-0.177495
-0.175612
-0.173733
-0.171859
-0.169993
-0.168136
-0.166288
-0.164452
-0.162628
-0.160818
-0.159027
-0.15726
-0.155525
-0.153827
-0.152168
-0.150543
-0.148927
-0.147263
-0.145533
-0.143702
-0.141739
-0.139613
-0.137327
-0.134897
-0.132353
-0.129719
-0.127028
-0.124305
-0.12157
-0.118832
-0.116093
-0.113352
-0.110611
-0.107873
-0.105141
-0.102417
-0.0997007
-0.0969881
-0.0942744
-0.0915515
-0.0888076
-0.0860214
-0.0831603
-0.0802313
-0.0771961
-0.0740345
-0.0707208
-0.0672476
-0.0636207
-0.0598559
-0.0559758
-0.0520034
-0.0479545
-0.0438502
-0.0397061
-0.0355319
-0.0313396
-0.0271502
-0.0229946
-0.0189131
-0.0149487
-0.0110893
-0.00732827
-0.0036569
-6.57755e-05
0.00345471
0.0069139
0.0103207
0.013683
0.0170081
0.020302
0.02357
0.0268165
0.0300453
0.0332594
0.0364611
0.0396525
0.0428353
0.0460106
0.0491795
0.0523427
0.055501
0.0586547
0.0618044
0.0649503
0.0680927
0.0712319
0.0743681
0.0775016
0.0806326
0.0837612
0.0868879
0.0900126
0.0931358
0.0962576
0.0993783
0.102498
0.105617
0.108736
-0.219482
-0.217272
-0.215082
-0.212925
-0.210809
-0.208739
-0.206712
-0.204723
-0.202765
-0.200833
-0.198914
-0.197001
-0.195092
-0.193186
-0.191286
-0.189394
-0.187511
-0.185635
-0.183766
-0.181901
-0.180042
-0.178187
-0.176339
-0.174498
-0.172667
-0.170846
-0.169038
-0.167242
-0.16546
-0.163692
-0.161939
-0.160201
-0.158486
-0.156798
-0.155144
-0.153526
-0.151939
-0.150361
-0.14874
-0.147058
-0.145269
-0.143332
-0.141214
-0.138921
-0.136486
-0.133946
-0.131331
-0.128666
-0.125985
-0.123305
-0.12063
-0.117956
-0.115278
-0.112596
-0.109913
-0.10723
-0.104548
-0.101866
-0.0991784
-0.096478
-0.0937546
-0.090995
-0.0881797
-0.0852776
-0.0822849
-0.0791684
-0.0759022
-0.0724612
-0.068843
-0.0650583
-0.0611278
-0.0570801
-0.0529417
-0.0487351
-0.0444849
-0.0402071
-0.0359103
-0.0316073
-0.0273202
-0.0230774
-0.0189209
-0.0148963
-0.0109912
-0.00719741
-0.00350437
9.94684e-05
0.00362569
0.00708539
0.0104889
0.0138452
0.0171625
0.0204474
0.0237058
0.0269424
0.0301612
0.0333654
0.0365576
0.03974
0.0429142
0.0460815
0.0492429
0.0523993
0.0555513
0.0586993
0.0618438
0.064985
0.0681232
0.0712586
0.0743915
0.0775219
0.0806501
0.0837763
0.0869006
0.0900233
0.0931446
0.0962646
0.0993836
0.102502
0.10562
0.108737
-0.219512
-0.21736
-0.215226
-0.21312
-0.211045
-0.209007
-0.207003
-0.205031
-0.203086
-0.201163
-0.199255
-0.197357
-0.195467
-0.193586
-0.191717
-0.18986
-0.188015
-0.186179
-0.184351
-0.182531
-0.180717
-0.17891
-0.177112
-0.175324
-0.173548
-0.171787
-0.170042
-0.168314
-0.166601
-0.164901
-0.163215
-0.16154
-0.159882
-0.158246
-0.156637
-0.155063
-0.15352
-0.151995
-0.150431
-0.148806
-0.147063
-0.145151
-0.143032
-0.140706
-0.138242
-0.135683
-0.133062
-0.130408
-0.127759
-0.125119
-0.122491
-0.119865
-0.117234
-0.114597
-0.111953
-0.109304
-0.106648
-0.103983
-0.101302
-0.0985968
-0.0958549
-0.0930617
-0.0902
-0.0872372
-0.0841606
-0.0809433
-0.0775552
-0.0739723
-0.0701986
-0.0662503
-0.062153
-0.0579403
-0.0536439
-0.0492916
-0.0449094
-0.0405122
-0.0361075
-0.0317078
-0.027335
-0.0230172
-0.0187964
-0.0147235
-0.0107859
-0.00697314
-0.0032721
0.000331653
0.00385212
0.00730235
0.0106941
0.0140375
0.0173412
0.0206126
0.0238577
0.0270814
0.0302879
0.0334804
0.0366616
0.0398336
0.0429982
0.0461566
0.0493098
0.0524588
0.055604
0.0587459
0.0618848
0.0650211
0.0681548
0.0712862
0.0744155
0.0775427
0.080668
0.0837916
0.0869136
0.0900341
0.0931534
0.0962717
0.099389
0.102506
0.105622
0.108738
-0.219526
-0.217401
-0.215291
-0.213204
-0.211145
-0.209117
-0.207121
-0.205156
-0.203218
-0.201306
-0.199417
-0.197549
-0.195702
-0.193875
-0.192065
-0.190274
-0.188497
-0.186732
-0.184977
-0.183229
-0.181488
-0.179755
-0.178031
-0.17632
-0.174624
-0.172946
-0.171287
-0.169646
-0.168022
-0.16641
-0.164805
-0.163204
-0.16161
-0.160027
-0.158466
-0.156936
-0.155441
-0.153976
-0.152479
-0.150914
-0.149214
-0.147311
-0.145155
-0.142751
-0.140222
-0.137609
-0.134951
-0.132279
-0.12963
-0.127001
-0.124389
-0.121782
-0.11917
-0.11655
-0.11392
-0.111279
-0.108623
-0.105947
-0.103246
-0.100508
-0.0977209
-0.0948683
-0.0919328
-0.0888813
-0.0856933
-0.0823458
-0.078817
-0.075089
-0.0711658
-0.067064
-0.0628133
-0.058452
-0.0540168
-0.0495408
-0.0450482
-0.040552
-0.0360598
-0.0315839
-0.0271453
-0.0227717
-0.0185007
-0.0143965
-0.0104453
-0.00663348
-0.0029435
0.000642798
0.00414235
0.00757031
0.0109398
0.0142617
0.0175451
0.0207976
0.0240253
0.0272329
0.0304245
0.0336033
0.0367719
0.0399324
0.0430864
0.0462351
0.0493796
0.0525205
0.0556585
0.0587939
0.061927
0.065058
0.0681871
0.0713143
0.0744398
0.0775637
0.0806861
0.083807
0.0869266
0.090045
0.0931623
0.0962787
0.0993944
0.102509
0.105624
0.108738
-0.219514
-0.217365
-0.215232
-0.213122
-0.21104
-0.20899
-0.20698
-0.205009
-0.203078
-0.201188
-0.199341
-0.197534
-0.195765
-0.194031
-0.192331
-0.190656
-0.189001
-0.18736
-0.185727
-0.184101
-0.182478
-0.180862
-0.179253
-0.177655
-0.176074
-0.174511
-0.17297
-0.171449
-0.169943
-0.168444
-0.16694
-0.165426
-0.1639
-0.16237
-0.160851
-0.15936
-0.15791
-0.156503
-0.155068
-0.153551
-0.151874
-0.149953
-0.147721
-0.145183
-0.142527
-0.1398
-0.137048
-0.134309
-0.131607
-0.128938
-0.126293
-0.123656
-0.121017
-0.118371
-0.115712
-0.113037
-0.110341
-0.107618
-0.104859
-0.102053
-0.0991859
-0.0962408
-0.0931965
-0.0900226
-0.0866964
-0.0831979
-0.0795116
-0.0756364
-0.0715794
-0.0673557
-0.0629883
-0.0585126
-0.0539693
-0.0493944
-0.0448163
-0.0402474
-0.0356967
-0.0311739
-0.0266966
-0.0222915
-0.0179893
-0.0138773
-0.0099395
-0.00615591
-0.00250255
0.00104382
0.00450348
0.00789359
0.0112282
0.0145187
0.0177742
0.0210018
0.0242074
0.0273955
0.0305696
0.0337328
0.0368874
0.0400352
0.0431777
0.046316
0.0494511
0.0525837
0.0557141
0.0588427
0.0619697
0.0650953
0.0682196
0.0713425
0.0744643
0.0775848
0.0807041
0.0838223
0.0869395
0.0900557
0.0931711
0.0962857
0.0993996
0.102513
0.105626
0.108739
-0.219465
-0.217223
-0.214999
-0.212801
-0.210643
-0.208528
-0.206474
-0.204482
-0.202562
-0.200713
-0.198941
-0.197241
-0.195609
-0.194039
-0.19252
-0.19104
-0.189587
-0.18815
-0.18672
-0.18529
-0.183857
-0.182422
-0.180987
-0.179557
-0.178139
-0.176739
-0.17536
-0.174
-0.172652
-0.1713
-0.169926
-0.168513
-0.167058
-0.165573
-0.164081
-0.16261
-0.161182
-0.159803
-0.158407
-0.156909
-0.155229
-0.153261
-0.150907
-0.148164
-0.145286
-0.142358
-0.139433
-0.136548
-0.133718
-0.130932
-0.128178
-0.12544
-0.122704
-0.119964
-0.117212
-0.114443
-0.111651
-0.108826
-0.105958
-0.103035
-0.100042
-0.0969613
-0.0937698
-0.0904434
-0.0869631
-0.0833126
-0.0794805
-0.0754669
-0.0712877
-0.0669628
-0.0625118
-0.0579627
-0.0533558
-0.0487283
-0.0441092
-0.0395089
-0.0349388
-0.0304048
-0.0259228
-0.0215195
-0.017211
-0.0131243
-0.00923784
-0.00551985
-0.00193635
0.00154225
0.00493952
0.00827393
0.0115598
0.014808
0.0180271
0.0212236
0.0244025
0.0275675
0.0307216
0.0338673
0.0370064
0.0401405
0.0432708
0.0463983
0.0495236
0.0526474
0.05577
0.0588916
0.0620124
0.0651325
0.0682519
0.0713705
0.0744884
0.0776055
0.0807218
0.0838373
0.0869521
0.0900662
0.0931796
0.0962924
0.0994047
0.102517
0.105628
0.10874
-0.219365
-0.216924
-0.214512
-0.212144
-0.20984
-0.207609
-0.205478
-0.203455
-0.201554
-0.199778
-0.198128
-0.1966
-0.195185
-0.19387
-0.192636
-0.191463
-0.190328
-0.189212
-0.188098
-0.186974
-0.185832
-0.184671
-0.183492
-0.182303
-0.181114
-0.179934
-0.178772
-0.177627
-0.176488
-0.17533
-0.174119
-0.172827
-0.171442
-0.169984
-0.168488
-0.167
-0.165552
-0.164149
-0.162738
-0.161212
-0.15949
-0.157437
-0.154913
-0.15188
-0.148666
-0.14543
-0.142232
-0.139099
-0.136036
-0.13303
-0.130066
-0.127124
-0.124194
-0.121266
-0.118331
-0.115381
-0.112407
-0.1094
-0.106348
-0.103239
-0.100056
-0.0967819
-0.0933967
-0.0898813
-0.0862193
-0.082401
-0.0784314
-0.0743149
-0.0700579
-0.0656806
-0.0612011
-0.0566413
-0.0520334
-0.0474136
-0.0428108
-0.0382327
-0.0336921
-0.0291958
-0.0247524
-0.0203884
-0.0161026
-0.0120898
-0.00831048
-0.00470965
-0.00123846
0.00213939
0.00544922
0.00870899
0.0119316
0.0151267
0.0183012
0.0214604
0.0246079
0.0277465
0.0308782
0.0340047
0.0371272
0.0402468
0.0433643
0.0464805
0.0495958
0.0527106
0.0558253
0.0589399
0.0620545
0.065169
0.0682835
0.0713978
0.0745119
0.0776256
0.0807389
0.0838518
0.0869643
0.0900762
0.0931877
0.0962989
0.0994096
0.10252
0.10563
0.10874
-0.219202
-0.216438
-0.213719
-0.211073
-0.208535
-0.206128
-0.203888
-0.201828
-0.199965
-0.198301
-0.196835
-0.195557
-0.194456
-0.193508
-0.192689
-0.191963
-0.191295
-0.190652
-0.190005
-0.189332
-0.188616
-0.18785
-0.187035
-0.18618
-0.185299
-0.184411
-0.183529
-0.182659
-0.181788
-0.180881
-0.17988
-0.178727
-0.177404
-0.175942
-0.174398
-0.172838
-0.171305
-0.169805
-0.1683
-0.166676
-0.164854
-0.162669
-0.159923
-0.156517
-0.152861
-0.14922
-0.145642
-0.142144
-0.138729
-0.13538
-0.13208
-0.12881
-0.125564
-0.122327
-0.119087
-0.115834
-0.112558
-0.109253
-0.105907
-0.102506
-0.0990355
-0.0954808
-0.091829
-0.0880704
-0.0841936
-0.0801925
-0.076094
-0.0719115
-0.067638
-0.0632778
-0.0588366
-0.0543343
-0.0497965
-0.0452561
-0.0407428
-0.0362595
-0.0318127
-0.0274161
-0.0230737
-0.0188005
-0.0145707
-0.0107134
-0.00712959
-0.00371857
-0.000412744
0.00282731
0.00602399
0.00919091
0.0123372
0.0154692
0.0185918
0.0217081
0.0248202
0.0279295
0.0310368
0.0341427
0.0372477
0.0403522
0.0434566
0.0465612
0.0496664
0.0527723
0.0558791
0.0589867
0.0620951
0.0652042
0.0683139
0.071424
0.0745343
0.0776448
0.0807552
0.0838656
0.0869757
0.0900857
0.0931954
0.0963049
0.0994142
0.102523
0.105632
0.108741
-0.218973
-0.215758
-0.212609
-0.209578
-0.206723
-0.204085
-0.201711
-0.199616
-0.197812
-0.1963
-0.195074
-0.194122
-0.193425
-0.192958
-0.192684
-0.192554
-0.192517
-0.192521
-0.192519
-0.19247
-0.192347
-0.192128
-0.19181
-0.191402
-0.190922
-0.1904
-0.189863
-0.189328
-0.18879
-0.188201
-0.187463
-0.186468
-0.185188
-0.183676
-0.182024
-0.180318
-0.178619
-0.176938
-0.175247
-0.173445
-0.171458
-0.169115
-0.166113
-0.162276
-0.158113
-0.153983
-0.149928
-0.145959
-0.142081
-0.138275
-0.134517
-0.130794
-0.127097
-0.123412
-0.119725
-0.116017
-0.112282
-0.108514
-0.104711
-0.100863
-0.0969621
-0.0929961
-0.0889593
-0.0848529
-0.0806787
-0.0764418
-0.0721894
-0.067952
-0.0637074
-0.0594282
-0.0550996
-0.0507311
-0.0463391
-0.0419536
-0.0376112
-0.0333131
-0.0290461
-0.0248317
-0.020681
-0.016583
-0.0124487
-0.0089132
-0.00567458
-0.00255519
0.000522209
0.00358635
0.0066465
0.00970558
0.0127652
0.0158268
0.0188919
0.0219612
0.0250349
0.0281127
0.0311941
0.0342785
0.0373655
0.0404546
0.0435458
0.0466391
0.0497342
0.0528314
0.0559304
0.0590312
0.0621336
0.0652374
0.0683425
0.0714485
0.0745553
0.0776626
0.0807703
0.0838782
0.0869863
0.0900944
0.0932024
0.0963104
0.0994183
0.102526
0.105634
0.108742
-0.218718
-0.214997
-0.211358