/*--------------------------------*- C++ -*----------------------------------*\
  =========                 |
  \\      /  F ield         | OpenFOAM: The Open Source CFD Toolbox
   \\    /   O peration     | Website:  https://openfoam.org
    \\  /    A nd           | Version:  6
     \\/     M anipulation  |
\*---------------------------------------------------------------------------*/
FoamFile
{
    version     2.0;
    format      ascii;
    class       volVectorField;
    location    "200";
    object      U;
}
// * * * * * * * * * * * * * * * * * * * * * * * * * * * * * * * * * * * * * //

dimensions      [0 1 -1 0 0 0 0];

internalField   nonuniform List<vector> 
4800
(
(0.000169648 0 8.97682e-05)
(-0.00021635 0 1.92407e-05)
(-0.000270166 0 7.7754e-05)
(-0.000372804 0 1.02948e-05)
(-0.000433194 0 4.44155e-05)
(-0.000504244 0 4.7211e-05)
(-0.000564569 0 -4.97722e-06)
(-0.000598268 0 -4.06967e-06)
(-0.000606733 0 -1.2137e-05)
(-0.000601528 0 -2.32605e-05)
(-0.000600652 0 -2.89395e-05)
(-0.000598929 0 -3.36579e-05)
(-0.000572504 0 -3.83267e-05)
(-0.000557566 0 -4.18514e-05)
(-0.000556772 0 -3.80971e-05)
(-0.000592254 0 8.11914e-06)
(-0.000640076 0 3.33192e-06)
(-0.000682404 0 -5.80693e-06)
(-0.000704162 0 -1.13127e-05)
(-0.000709495 0 -1.8915e-05)
(-0.000698885 0 -3.51277e-05)
(-0.000660205 0 -3.11829e-05)
(-0.000630481 0 -2.17059e-05)
(-0.000613945 0 -1.70299e-05)
(-0.000604666 0 -1.33337e-05)
(-0.000595027 0 -1.99605e-05)
(-0.000587482 0 -2.98551e-05)
(-0.000585663 0 -3.60052e-05)
(-0.000588612 0 -5.09292e-05)
(-0.000592333 0 -6.31124e-05)
(-0.000603919 0 -4.52439e-05)
(-0.000650214 0 4.75353e-05)
(-0.000714787 0 2.15444e-05)
(-0.00076871 0 1.33194e-05)
(-0.000801732 0 -2.3525e-05)
(-0.000813378 0 -2.34628e-05)
(-0.000792601 0 -4.17777e-05)
(-0.000736753 0 -5.47628e-05)
(-0.000700388 0 -4.04936e-05)
(-0.000676376 0 -2.52976e-05)
(-0.000657026 0 -1.75888e-05)
(-0.000639673 0 -2.21662e-05)
(-0.000627864 0 -2.82076e-05)
(-0.00062117 0 -3.66127e-05)
(-0.000612936 0 -4.43234e-05)
(-0.000606295 0 -5.18166e-05)
(-0.000604013 0 -5.87598e-05)
(-0.000604613 0 -7.92857e-05)
(-0.000606033 0 -9.48383e-05)
(-0.000616485 0 -7.7893e-05)
(-0.000628541 0 -6.02731e-05)
(-0.000629608 0 -5.77313e-05)
(-0.000602167 0 -4.88308e-05)
(-0.000570456 0 -3.36188e-05)
(-0.00054747 0 -3.67833e-05)
(-0.000535885 0 -4.36345e-05)
(-0.000532868 0 -5.09483e-05)
(-0.000531532 0 -6.72158e-05)
(-0.000529614 0 -8.21947e-05)
(-0.000529253 0 -9.53912e-05)
(-0.000532452 0 -9.25389e-05)
(-0.000539133 0 -9.67949e-05)
(-0.000569424 0 -8.11175e-05)
(-0.000599856 0 -7.02388e-05)
(-0.000610797 0 -6.93075e-05)
(-0.000605925 0 -7.72932e-05)
(-0.000585154 0 -8.36092e-05)
(-0.000572572 0 -7.83456e-05)
(-0.000564609 0 -8.50331e-05)
(-0.000560891 0 -8.41819e-05)
(-0.000592282 0 -6.11733e-05)
(-0.000660256 0 -3.68724e-05)
(-0.000719927 0 -5.64009e-05)
(-0.000754621 0 -8.58463e-05)
(-0.000765563 0 -0.000130315)
(-0.000804661 0 -0.000161777)
(-0.000948906 0 -9.37076e-05)
(-0.0010389 0 -0.000268626)
(-0.0011022 0 -0.000329716)
(5.33292e-06 0 -0.000967296)
(-4.61169e-14 0 2.80022e-12)
(3.13412e-12 0 1.1604e-12)
(2.32828e-12 0 4.92289e-13)
(1.62064e-12 0 2.14141e-13)
(1.31389e-12 0 9.14501e-14)
(1.18678e-12 0 3.45781e-14)
(1.14393e-12 0 7.57303e-15)
(1.14085e-12 0 -5.05095e-15)
(1.15593e-12 0 -1.03334e-14)
(1.17786e-12 0 -1.16923e-14)
(1.20043e-12 0 -1.08777e-14)
(1.22013e-12 0 -8.83128e-15)
(1.23499e-12 0 -6.09353e-15)
(1.24396e-12 0 -2.99686e-15)
(1.24653e-12 0 2.51949e-16)
(1.24253e-12 0 3.52899e-15)
(1.23203e-12 0 6.75083e-15)
(1.21529e-12 0 9.84401e-15)
(1.19268e-12 0 1.27463e-14)
(1.1646e-12 0 1.54253e-14)
(1.13149e-12 0 1.78786e-14)
(1.09383e-12 0 2.01097e-14)
(1.05211e-12 0 2.21085e-14)
(1.00678e-12 0 2.38619e-14)
(9.58164e-13 0 2.53769e-14)
(9.06594e-13 0 2.66849e-14)
(8.5241e-13 0 2.78212e-14)
(7.9598e-13 0 2.88056e-14)
(7.37648e-13 0 2.96428e-14)
(6.77689e-13 0 3.03375e-14)
(6.16326e-13 0 3.09044e-14)
(5.53766e-13 0 3.1366e-14)
(4.9022e-13 0 3.17437e-14)
(4.25901e-13 0 3.20521e-14)
(3.61004e-13 0 3.22999e-14)
(2.95704e-13 0 3.2495e-14)
(2.30145e-13 0 3.26464e-14)
(1.64444e-13 0 3.2764e-14)
(9.86836e-14 0 3.28536e-14)
(3.28978e-14 0 3.29155e-14)
(-0.000195803 0 0.000154846)
(-0.000296355 0 0.000112012)
(-0.000291902 0 0.000104471)
(-0.000325247 0 0.000127578)
(-0.000371009 0 0.000108188)
(-0.000413307 0 0.000117351)
(-0.00046365 0 6.55211e-05)
(-0.000484986 0 5.74502e-05)
(-0.000482625 0 1.84866e-05)
(-0.000466474 0 -1.12918e-07)
(-0.000464084 0 7.81857e-06)
(-0.000466528 0 7.89568e-06)
(-0.000451612 0 1.22699e-05)
(-0.000415575 0 2.8636e-06)
(-0.000404753 0 4.87404e-05)
(-0.000441635 0 0.000117046)
(-0.000470215 0 5.81695e-05)
(-0.000495201 0 6.60194e-05)
(-0.000499771 0 3.79535e-05)
(-0.000474617 0 -2.43923e-05)
(-0.000453664 0 -2.98026e-05)
(-0.000434287 0 -4.49036e-05)
(-0.000414227 0 -4.10595e-05)
(-0.000402871 0 -2.67214e-05)
(-0.000401921 0 -1.07758e-05)
(-0.000405822 0 4.42141e-06)
(-0.000412838 0 1.58995e-05)
(-0.000424131 0 2.59126e-05)
(-0.000451795 0 5.17125e-05)
(-0.000492347 0 6.78733e-05)
(-0.000529205 0 8.18509e-05)
(-0.000556533 0 7.83999e-05)
(-0.000581404 0 7.8175e-05)
(-0.000603717 0 6.06061e-05)
(-0.000610864 0 5.43669e-05)
(-0.000607068 0 -8.39433e-06)
(-0.000574388 0 -5.85748e-05)
(-0.000543941 0 -7.41648e-05)
(-0.000517491 0 -6.44633e-05)
(-0.000493552 0 -4.54067e-05)
(-0.000467552 0 -3.70282e-05)
(-0.000442704 0 -2.30442e-05)
(-0.000419596 0 -1.84162e-05)
(-0.000403929 0 8.06748e-06)
(-0.000392303 0 1.52867e-05)
(-0.000388821 0 2.83249e-05)
(-0.000388964 0 3.56574e-05)
(-0.00039485 0 6.6913e-05)
(-0.000408931 0 7.55061e-05)
(-0.000418442 0 6.71026e-05)
(-0.000422772 0 5.37672e-05)
(-0.000421764 0 1.97871e-05)
(-0.00040039 0 -2.25267e-05)
(-0.000379865 0 -3.08382e-05)
(-0.000367515 0 -1.30496e-05)
(-0.000358221 0 1.06849e-05)
(-0.000350169 0 2.46151e-05)
(-0.000346252 0 4.1442e-05)
(-0.000345069 0 4.93852e-05)
(-0.000344065 0 6.66735e-05)
(-0.000344142 0 8.26861e-05)
(-0.000349117 0 0.000103737)
(-0.000366129 0 0.000102436)
(-0.000376579 0 8.69523e-05)
(-0.000374538 0 5.71451e-05)
(-0.000346975 0 2.52553e-05)
(-0.00033713 0 2.97065e-05)
(-0.000334928 0 3.89473e-05)
(-0.000345208 0 7.67489e-05)
(-0.0003759 0 0.000122957)
(-0.000430411 0 0.000155567)
(-0.000505115 0 0.000146266)
(-0.000577495 0 0.000137879)
(-0.000627582 0 0.000137862)
(-0.00064231 0 0.000132326)
(-0.000652669 0 -7.93138e-05)
(-0.000733238 0 -0.000219366)
(-0.000876581 0 -9.78032e-05)
(-0.000900129 0 -0.000371232)
(5.99692e-06 0 -0.000896809)
(-7.62439e-13 0 5.65472e-12)
(7.56493e-13 0 2.45587e-12)
(1.38138e-12 0 1.08656e-12)
(1.21944e-12 0 4.86583e-13)
(1.13428e-12 0 2.08191e-13)
(1.10302e-12 0 7.37772e-14)
(1.10431e-12 0 8.24979e-15)
(1.12295e-12 0 -2.25865e-14)
(1.14929e-12 0 -3.50458e-14)
(1.17732e-12 0 -3.73929e-14)
(1.20329e-12 0 -3.40147e-14)
(1.22491e-12 0 -2.73433e-14)
(1.24082e-12 0 -1.88008e-14)
(1.25031e-12 0 -9.27158e-15)
(1.25306e-12 0 6.72653e-16)
(1.24903e-12 0 1.06584e-14)
(1.23834e-12 0 2.04269e-14)
(1.22129e-12 0 2.97799e-14)
(1.19826e-12 0 3.85678e-14)
(1.16973e-12 0 4.66963e-14)
(1.13617e-12 0 5.41176e-14)
(1.09806e-12 0 6.08041e-14)
(1.05586e-12 0 6.67373e-14)
(1.01004e-12 0 7.19256e-14)
(9.60987e-13 0 7.64218e-14)
(9.09038e-13 0 8.03077e-14)
(8.5453e-13 0 8.3659e-14)
(7.97802e-13 0 8.65254e-14)
(7.3918e-13 0 8.89417e-14)
(6.7895e-13 0 9.09502e-14)
(6.17354e-13 0 9.26085e-14)
(5.54605e-13 0 9.39802e-14)
(4.90906e-13 0 9.51198e-14)
(4.26457e-13 0 9.60659e-14)
(3.61447e-13 0 9.68447e-14)
(2.9605e-13 0 9.74757e-14)
(2.30414e-13 0 9.79754e-14)
(1.64652e-13 0 9.83565e-14)
(9.8835e-14 0 9.86226e-14)
(3.29597e-14 0 9.87594e-14)
(-4.90228e-05 0 0.000319901)
(-7.66226e-05 0 0.000302213)
(-0.000273974 0 0.000194241)
(-0.000355214 0 0.000118554)
(-0.000378697 0 0.000152802)
(-0.000430121 0 0.000100431)
(-0.000453257 0 7.97921e-05)
(-0.000460435 0 6.49172e-05)
(-0.000455458 0 -5.84227e-05)
(-0.000425341 0 -1.3034e-05)
(-0.000403985 0 -3.375e-05)
(-0.000400744 0 -4.10508e-05)
(-0.000407903 0 -3.58862e-05)
(-0.00034023 0 -7.2373e-05)
(-0.00026364 0 -5.98784e-05)
(-0.000250953 0 0.000112534)
(-0.000251214 0 4.19382e-05)
(-0.000257569 0 2.69141e-05)
(-0.000250603 0 -1.08101e-05)
(-0.000225501 0 -2.07905e-05)
(-0.000226174 0 -3.97683e-05)
(-0.000244443 0 -4.06437e-05)
(-0.00026116 0 -3.01343e-05)
(-0.00026726 0 -2.7284e-05)
(-0.000279511 0 -8.26896e-06)
(-0.000292203 0 6.14628e-06)
(-0.000310016 0 -1.01939e-06)
(-0.00032017 0 8.23504e-06)
(-0.000329141 0 3.17392e-05)
(-0.000344943 0 5.5053e-05)
(-0.000365635 0 6.42826e-05)
(-0.000380707 0 7.84513e-05)
(-0.000387171 0 7.85271e-05)
(-0.000391052 0 4.68411e-05)
(-0.000380963 0 4.27913e-06)
(-0.000376419 0 -2.99656e-05)
(-0.000380374 0 -5.6829e-05)
(-0.000388643 0 -6.09763e-05)
(-0.00039262 0 -5.9526e-05)
(-0.000390319 0 -4.93069e-05)
(-0.000381819 0 -4.24136e-05)
(-0.000365389 0 -4.5764e-05)
(-0.000340371 0 -4.87712e-05)
(-0.000318171 0 -3.68827e-05)
(-0.000298828 0 -3.1048e-05)
(-0.000284266 0 -2.55649e-05)
(-0.000275121 0 -1.6255e-05)
(-0.000267749 0 -8.76615e-06)
(-0.000258098 0 -6.48296e-06)
(-0.000249136 0 -1.56348e-05)
(-0.000244946 0 -2.49962e-05)
(-0.000246933 0 -3.5479e-05)
(-0.000261209 0 -4.29006e-05)
(-0.00028238 0 -4.04388e-05)
(-0.000296874 0 -3.55437e-05)
(-0.00030379 0 -2.71817e-05)
(-0.000304607 0 -2.47382e-05)
(-0.000303549 0 -2.21924e-05)
(-0.000300894 0 -2.08247e-05)
(-0.000284791 0 -2.67573e-05)
(-0.000253394 0 -2.34651e-05)
(-0.000215365 0 -1.65659e-05)
(-0.00018146 0 -9.48698e-06)
(-0.000155539 0 -1.691e-05)
(-0.000144188 0 -2.86693e-05)
(-0.000145544 0 -4.23489e-05)
(-0.000152172 0 -4.05491e-05)
(-0.000151528 0 -2.95571e-05)
(-0.000147154 0 -5.04722e-06)
(-0.000138624 0 2.99947e-05)
(-0.000124175 0 6.88383e-05)
(-0.000121885 0 9.16421e-05)
(-0.000116943 0 9.5553e-05)
(-9.51423e-05 0 0.000118711)
(-0.000135149 0 0.00017484)
(-0.000100505 0 0.000170365)
(3.08042e-07 0 0.000176889)
(-4.12015e-05 0 7.4197e-05)
(-0.00058395 0 -0.000660956)
(3.55927e-06 0 -0.00113458)
(-5.6963e-13 0 3.0043e-12)
(-1.62483e-12 0 1.76977e-12)
(3.58782e-13 0 9.11446e-13)
(7.42255e-13 0 4.37231e-13)
(9.01324e-13 0 1.80654e-13)
(9.87093e-13 0 4.39985e-14)
(1.04757e-12 0 -2.61133e-14)
(1.09756e-12 0 -5.89374e-14)
(1.14113e-12 0 -7.03629e-14)
(1.1789e-12 0 -6.92906e-14)
(1.21048e-12 0 -6.08326e-14)
(1.23534e-12 0 -4.80097e-14)
(1.25306e-12 0 -3.26827e-14)
(1.26343e-12 0 -1.60624e-14)
(1.26646e-12 0 1.03191e-15)
(1.26229e-12 0 1.80421e-14)
(1.25115e-12 0 3.4578e-14)
(1.23343e-12 0 5.03493e-14)
(1.2096e-12 0 6.51363e-14)
(1.18015e-12 0 7.8785e-14)
(1.14559e-12 0 9.12009e-14)
(1.10645e-12 0 1.02333e-13)
(1.06323e-12 0 1.12171e-13)
(1.01646e-12 0 1.20751e-13)
(9.66546e-13 0 1.2817e-13)
(9.13831e-13 0 1.3455e-13)
(8.58627e-13 0 1.4001e-13)
(8.01263e-13 0 1.44648e-13)
(7.42073e-13 0 1.48546e-13)
(6.81356e-13 0 1.51797e-13)
(6.19356e-13 0 1.545e-13)
(5.56277e-13 0 1.56753e-13)
(4.92306e-13 0 1.58639e-13)
(4.27626e-13 0 1.60218e-13)
(3.62414e-13 0 1.61531e-13)
(2.96834e-13 0 1.62603e-13)
(2.31026e-13 0 1.63447e-13)
(1.65092e-13 0 1.64069e-13)
(9.90865e-14 0 1.64468e-13)
(3.30346e-14 0 1.6463e-13)
(-9.20415e-05 0 0.000394938)
(-6.27022e-05 0 0.000375054)
(-0.000229461 0 0.000283926)
(-0.000357217 0 0.000213116)
(-0.0004043 0 0.000205945)
(-0.000434055 0 0.000188661)
(-0.000455481 0 0.000128632)
(-0.000477365 0 2.39291e-05)
(-0.000482049 0 4.73856e-05)
(-0.000447728 0 -0.000149091)
(-0.000398523 0 -2.25955e-05)
(-0.000373032 0 -3.3057e-05)
(-0.000375808 0 -4.28249e-05)
(-0.000334032 0 -0.000114317)
(-0.00023429 0 -0.000223455)
(-0.000267761 0 0.000189808)
(-0.000246983 0 3.60056e-05)
(-0.000224421 0 4.33416e-05)
(-0.000197171 0 1.74909e-05)
(-0.000181081 0 -5.21924e-05)
(-0.000179256 0 -2.05693e-05)
(-0.000185514 0 -1.47665e-05)
(-0.000199545 0 -1.30902e-05)
(-0.000208995 0 -1.30938e-05)
(-0.000217756 0 5.50876e-05)
(-0.000236417 0 7.55028e-06)
(-0.000252492 0 3.91821e-05)
(-0.00026101 0 4.60816e-05)
(-0.000265478 0 5.31104e-05)
(-0.000266612 0 7.99912e-05)
(-0.000267743 0 8.62706e-05)
(-0.000265691 0 9.07276e-05)
(-0.00025587 0 7.89062e-05)
(-0.000247673 0 5.87909e-05)
(-0.000250761 0 3.26701e-05)
(-0.000266721 0 5.87075e-07)
(-0.000291267 0 -2.69857e-05)
(-0.000320639 0 -4.99036e-05)
(-0.000341511 0 -5.01473e-05)
(-0.000351754 0 -4.80179e-05)
(-0.000357028 0 -4.60051e-05)
(-0.000349073 0 -5.21897e-05)
(-0.00031929 0 -6.31713e-05)
(-0.000292557 0 -5.24784e-05)
(-0.000271683 0 -3.92764e-05)
(-0.000253489 0 -2.12634e-05)
(-0.000235989 0 -1.39869e-05)
(-0.000222297 0 4.03688e-06)
(-0.000211122 0 1.038e-05)
(-0.000206556 0 1.39648e-05)
(-0.000207557 0 1.25003e-05)
(-0.000216029 0 7.50924e-07)
(-0.000233671 0 -1.09564e-05)
(-0.000256317 0 -1.44546e-05)
(-0.000276262 0 -1.22352e-05)
(-0.000290464 0 -3.75459e-06)
(-0.000299985 0 -1.20712e-07)
(-0.000304827 0 -8.92836e-08)
(-0.000303526 0 -7.22768e-06)
(-0.000281667 0 -2.3695e-05)
(-0.000244931 0 -2.1217e-05)
(-0.00020704 0 -1.38537e-05)
(-0.00017308 0 1.56155e-06)
(-0.000146973 0 1.18193e-06)
(-0.000132561 0 -2.92487e-06)
(-0.000129093 0 -1.21648e-05)
(-0.000128154 0 -9.94117e-06)
(-0.000119598 0 -8.8525e-06)
(-0.000104325 0 1.10005e-05)
(-8.01065e-05 0 3.46782e-05)
(-3.41741e-05 0 5.70947e-05)
(1.70419e-05 0 7.34634e-05)
(6.18403e-05 0 5.77868e-05)
(8.13115e-05 0 9.0104e-05)
(0.00012025 0 0.000115881)
(8.83625e-05 0 0.000103164)
(5.81207e-05 0 0.000105556)
(-0.000317352 0 -6.01094e-05)
(-0.000332485 0 -0.000775655)
(4.5735e-06 0 -0.00126343)
(-5.78468e-13 0 -2.09014e-13)
(-1.61216e-12 0 4.78336e-13)
(4.95907e-14 0 3.52762e-13)
(4.89292e-13 0 1.70526e-13)
(7.41607e-13 0 3.32037e-14)
(8.96519e-13 0 -5.23712e-14)
(1.00137e-12 0 -9.82938e-14)
(1.0787e-12 0 -1.17361e-13)
(1.13894e-12 0 -1.18879e-13)
(1.18685e-12 0 -1.09177e-13)
(1.22457e-12 0 -9.24391e-14)
(1.25306e-12 0 -7.1413e-14)
(1.27277e-12 0 -4.79375e-14)
(1.28402e-12 0 -2.33005e-14)
(1.28716e-12 0 1.56798e-15)
(1.28258e-12 0 2.60133e-14)
(1.27065e-12 0 4.95799e-14)
(1.25184e-12 0 7.19282e-14)
(1.2267e-12 0 9.2789e-14)
(1.1958e-12 0 1.11967e-13)
(1.15972e-12 0 1.29354e-13)
(1.11903e-12 0 1.44917e-13)
(1.07428e-12 0 1.58659e-13)
(1.02604e-12 0 1.70627e-13)
(9.74785e-13 0 1.80927e-13)
(9.20879e-13 0 1.89724e-13)
(8.64628e-13 0 1.97204e-13)
(8.06338e-13 0 2.03538e-13)
(7.4633e-13 0 2.0887e-13)
(6.84904e-13 0 2.13331e-13)
(6.2231e-13 0 2.17047e-13)
(5.58744e-13 0 2.20142e-13)
(4.94371e-13 0 2.22722e-13)
(4.2935e-13 0 2.24866e-13)
(3.63832e-13 0 2.26626e-13)
(2.97966e-13 0 2.28036e-13)
(2.3188e-13 0 2.29118e-13)
(1.65673e-13 0 2.29889e-13)
(9.93953e-14 0 2.30357e-13)
(3.3121e-14 0 2.30535e-13)
(-0.000150053 0 0.000428224)
(-3.4763e-05 0 0.000476846)
(-0.000183777 0 0.00039913)
(-0.000348153 0 0.000298447)
(-0.000396472 0 0.000258312)
(-0.000428237 0 0.000194825)
(-0.000444947 0 0.000105171)
(-0.000451594 0 6.53242e-05)
(-0.000480557 0 -1.08009e-05)
(-0.000492765 0 -1.16005e-05)
(-0.000441111 0 -0.000165492)
(-0.000387522 0 -0.000113703)
(-0.000365398 0 -4.35943e-05)
(-0.000344919 0 -4.66482e-05)
(-0.00030217 0 -0.000212797)
(-0.000337454 0 0.000154308)
(-0.000270597 0 -6.48265e-05)
(-0.000235805 0 2.79506e-05)
(-0.000204038 0 -9.77132e-06)
(-0.000196999 0 -5.93512e-05)
(-0.000205536 0 -3.89977e-05)
(-0.000206468 0 -4.78584e-05)
(-0.000212721 0 -1.89712e-05)
(-0.000211792 0 -7.58622e-06)
(-0.000210424 0 5.93955e-06)
(-0.000217694 0 3.06161e-05)
(-0.000223639 0 3.13462e-05)
(-0.000230585 0 3.92175e-05)
(-0.000240602 0 4.62828e-05)
(-0.000241884 0 6.47399e-05)
(-0.000239194 0 7.3421e-05)
(-0.000236918 0 7.77095e-05)
(-0.000235972 0 6.32652e-05)
(-0.000238974 0 4.96847e-05)
(-0.000250661 0 2.94729e-05)
(-0.000267522 0 1.09334e-05)
(-0.000292882 0 -1.37243e-05)
(-0.000319002 0 -2.83009e-05)
(-0.000339527 0 -3.85933e-05)
(-0.000354569 0 -4.93365e-05)
(-0.000363605 0 -5.25419e-05)
(-0.000357367 0 -8.06797e-05)
(-0.00031231 0 -0.000118012)
(-0.000289703 0 -8.20052e-05)
(-0.000266392 0 -6.2775e-05)
(-0.000247589 0 -4.84819e-05)
(-0.000230508 0 -3.61238e-05)
(-0.000217099 0 -1.86048e-05)
(-0.000207395 0 -8.4005e-06)
(-0.000203632 0 -1.51943e-06)
(-0.000205082 0 3.19434e-06)
(-0.000216857 0 4.95978e-06)
(-0.000235708 0 7.74028e-06)
(-0.000260279 0 1.93574e-06)
(-0.00028373 0 7.28647e-06)
(-0.000304119 0 1.95578e-06)
(-0.000317941 0 -1.05313e-06)
(-0.000323062 0 -5.73216e-06)
(-0.000315725 0 -2.74744e-05)
(-0.000286259 0 -7.13758e-05)
(-0.000257275 0 -7.78663e-05)
(-0.000223034 0 -8.66027e-05)
(-0.000192717 0 -5.27182e-05)
(-0.000162713 0 -4.8138e-05)
(-0.000149216 0 -2.69856e-05)
(-0.00014054 0 -3.27529e-05)
(-0.000134499 0 -2.97822e-05)
(-0.000119258 0 -4.341e-05)
(-0.000106402 0 -3.64718e-05)
(-9.10023e-05 0 -1.80995e-05)
(-6.73145e-05 0 -1.45993e-06)
(-3.60664e-05 0 1.54034e-05)
(-2.96106e-06 0 1.96876e-05)
(4.38208e-05 0 3.8772e-05)
(4.30591e-05 0 9.24462e-05)
(7.9106e-05 0 0.000155837)
(0.000124749 0 0.000197257)
(-4.09072e-05 0 0.000118251)
(-0.000237353 0 -0.000651111)
(5.92854e-06 0 -0.00128626)
(-5.90979e-13 0 -1.02357e-12)
(-1.3928e-12 0 -2.82087e-13)
(5.15734e-14 0 -1.48849e-13)
(4.23277e-13 0 -1.40863e-13)
(6.78965e-13 0 -1.65962e-13)
(8.55851e-13 0 -1.88321e-13)
(9.82582e-13 0 -1.97656e-13)
(1.07697e-12 0 -1.93772e-13)
(1.14931e-12 0 -1.79112e-13)
(1.20533e-12 0 -1.56561e-13)
(1.24824e-12 0 -1.28666e-13)
(1.27984e-12 0 -9.74445e-14)
(1.30117e-12 0 -6.4416e-14)
(1.31294e-12 0 -3.07468e-14)
(1.31578e-12 0 2.64084e-15)
(1.3103e-12 0 3.50466e-14)
(1.29707e-12 0 6.59759e-14)
(1.27664e-12 0 9.50835e-14)
(1.24963e-12 0 1.22109e-13)
(1.21671e-12 0 1.46854e-13)
(1.17854e-12 0 1.69208e-13)
(1.13575e-12 0 1.89147e-13)
(1.08894e-12 0 2.06707e-13)
(1.03873e-12 0 2.21967e-13)
(9.85643e-13 0 2.35061e-13)
(9.30109e-13 0 2.46193e-13)
(8.72442e-13 0 2.55606e-13)
(8.12929e-13 0 2.63544e-13)
(7.51865e-13 0 2.70219e-13)
(6.89532e-13 0 2.75806e-13)
(6.26167e-13 0 2.8046e-13)
(5.61952e-13 0 2.84317e-13)
(4.97029e-13 0 2.87494e-13)
(4.31529e-13 0 2.90083e-13)
(3.65584e-13 0 2.92158e-13)
(2.99327e-13 0 2.93776e-13)
(2.32878e-13 0 2.94984e-13)
(1.66331e-13 0 2.95821e-13)
(9.97332e-14 0 2.96317e-13)
(3.32126e-14 0 2.965e-13)
(-0.000168173 0 0.000497874)
(-0.000108144 0 0.000555644)
(-0.000205888 0 0.000516544)
(-0.000282337 0 0.000441671)
(-0.000377141 0 0.0003346)
(-0.000450813 0 0.000185807)
(-0.000445619 0 0.00015442)
(-0.000471808 0 3.42665e-05)
(-0.000473795 0 -7.95616e-06)
(-0.000487514 0 -8.1655e-05)
(-0.000485443 0 -8.58362e-05)
(-0.000399216 0 -0.000169019)
(-0.000357162 0 -0.000142509)
(-0.000354242 0 -0.000132765)
(-0.000373943 0 -0.000101879)
(-0.000366024 0 1.07864e-05)
(-0.000281257 0 -4.66453e-05)
(-0.000241844 0 8.81934e-06)
(-0.00020675 0 -8.05229e-05)
(-0.000214533 0 -4.59355e-05)
(-0.00022275 0 -2.90145e-05)
(-0.000219144 0 -1.03294e-05)
(-0.0002173 0 -3.65973e-06)
(-0.000217603 0 -4.17854e-06)
(-0.000219044 0 1.73086e-05)
(-0.000218714 0 3.38303e-05)
(-0.000222093 0 4.95032e-05)
(-0.000232311 0 4.10334e-05)
(-0.000239523 0 6.02099e-05)
(-0.000241521 0 7.07772e-05)
(-0.000241534 0 7.69585e-05)
(-0.000242592 0 8.1849e-05)
(-0.000247604 0 7.54218e-05)
(-0.000256935 0 6.42825e-05)
(-0.000271112 0 4.94254e-05)
(-0.000292247 0 3.55294e-05)
(-0.000320121 0 1.44709e-05)
(-0.000345035 0 -3.18085e-06)
(-0.000368516 0 -1.77396e-05)
(-0.000386484 0 -2.98917e-05)
(-0.000392279 0 -3.69133e-05)
(-0.000378277 0 -8.81443e-05)
(-0.000323637 0 -0.000147836)
(-0.000290523 0 -9.44273e-05)
(-0.000257467 0 -7.96022e-05)
(-0.000241271 0 -5.79134e-05)
(-0.000224955 0 -4.09223e-05)
(-0.000213043 0 -2.26462e-05)
(-0.000205581 0 -6.74898e-06)
(-0.000204 0 3.65307e-06)
(-0.000209222 0 1.90528e-05)
(-0.000223331 0 2.32742e-05)
(-0.000243828 0 2.69859e-05)
(-0.000269334 0 2.59391e-05)
(-0.000293004 0 3.17678e-05)
(-0.000316163 0 2.41667e-05)
(-0.000331727 0 1.74189e-05)
(-0.000337495 0 1.97083e-06)
(-0.00033009 0 -4.33955e-05)
(-0.000315686 0 -8.07398e-05)
(-0.000315495 0 -7.53309e-05)
(-0.000307597 0 -9.26439e-05)
(-0.000282667 0 -4.89969e-05)
(-0.000239742 0 -7.31337e-05)
(-0.000217666 0 -3.21043e-05)
(-0.000200876 0 -4.42003e-05)
(-0.000193521 0 -4.34411e-05)
(-0.000189973 0 -3.89839e-05)
(-0.000207173 0 -4.51657e-06)
(-0.000212674 0 1.94993e-05)
(-0.000193864 0 1.96887e-05)
(-0.000156246 0 1.39599e-05)
(-0.000130399 0 2.1634e-05)
(-0.000107561 0 7.23952e-05)
(-7.83178e-05 0 0.000108839)
(-4.86817e-05 0 0.000150702)
(8.10174e-05 0 0.000174887)
(5.65169e-05 0 -4.31729e-05)
(-0.000207786 0 -0.000640738)
(6.39054e-06 0 -0.00120135)
(-3.76144e-13 0 -1.51344e-12)
(-1.09777e-12 0 -7.47996e-13)
(1.91317e-13 0 -5.2479e-13)
(4.72697e-13 0 -4.18795e-13)
(6.94654e-13 0 -3.67584e-13)
(8.65068e-13 0 -3.36876e-13)
(9.95919e-13 0 -3.10137e-13)
(1.09724e-12 0 -2.80953e-13)
(1.17615e-12 0 -2.47359e-13)
(1.2373e-12 0 -2.09515e-13)
(1.28369e-12 0 -1.68446e-13)
(1.31731e-12 0 -1.25406e-13)
(1.33947e-12 0 -8.15492e-14)
(1.35108e-12 0 -3.7863e-14)
(1.35296e-12 0 4.79796e-15)
(1.34591e-12 0 4.57299e-14)
(1.33069e-12 0 8.44134e-14)
(1.30798e-12 0 1.20508e-13)
(1.27847e-12 0 1.5379e-13)
(1.2429e-12 0 1.841e-13)
(1.20201e-12 0 2.11352e-13)
(1.15653e-12 0 2.35555e-13)
(1.1071e-12 0 2.56793e-13)
(1.0544e-12 0 2.75201e-13)
(9.99011e-13 0 2.90963e-13)
(9.41424e-13 0 3.04325e-13)
(8.8198e-13 0 3.15582e-13)
(8.2095e-13 0 3.25032e-13)
(7.58591e-13 0 3.32944e-13)
(6.95146e-13 0 3.39538e-13)
(6.30822e-13 0 3.44991e-13)
(5.65777e-13 0 3.49456e-13)
(5.00137e-13 0 3.53063e-13)
(4.34014e-13 0 3.5593e-13)
(3.67525e-13 0 3.5816e-13)
(3.00792e-13 0 3.59848e-13)
(2.33925e-13 0 3.61072e-13)
(1.67006e-13 0 3.61899e-13)
(1.00075e-13 0 3.62383e-13)
(3.33048e-14 0 3.62564e-13)
(-0.000182903 0 0.000615333)
(-0.000127141 0 0.000655442)
(-0.000370204 0 0.000549331)
(-0.000386153 0 0.000450496)
(-0.000391863 0 0.000386539)
(-0.000445983 0 0.000265852)
(-0.000471567 0 0.000162359)
(-0.000482106 0 9.14714e-05)
(-0.000494076 0 -8.29124e-06)
(-0.000486223 0 -5.22647e-05)
(-0.000462838 0 -0.000134197)
(-0.000387171 0 -0.000223032)
(-0.000372959 0 -0.000172707)
(-0.000379527 0 -0.000122973)
(-0.000351031 0 -9.70034e-05)
(-0.000305962 0 -1.949e-05)
(-0.000251852 0 -6.69886e-05)
(-0.00023801 0 -2.49137e-05)
(-0.000213515 0 -8.85933e-05)
(-0.000222074 0 -7.93779e-06)
(-0.000209615 0 -2.56504e-05)
(-0.000207323 0 -3.51976e-05)
(-0.000211653 0 -1.54715e-05)
(-0.000217478 0 -5.25236e-07)
(-0.000221873 0 1.72478e-05)
(-0.000219687 0 3.89452e-05)
(-0.000221975 0 4.75708e-05)
(-0.000229419 0 5.93118e-05)
(-0.000237121 0 6.48438e-05)
(-0.000243894 0 7.15791e-05)
(-0.00025014 0 7.6284e-05)
(-0.000256334 0 8.20769e-05)
(-0.000266541 0 8.22758e-05)
(-0.000281668 0 7.45159e-05)
(-0.000298666 0 7.29747e-05)
(-0.000322775 0 5.16913e-05)
(-0.000345026 0 4.19034e-05)
(-0.000369178 0 2.35186e-05)
(-0.000392625 0 3.58355e-07)
(-0.000404017 0 -1.49584e-05)
(-0.000400505 0 -6.47371e-05)
(-0.000392627 0 -0.000106131)
(-0.000319006 0 -0.000215551)
(-0.000266929 0 -0.000170913)
(-0.000237978 0 -0.000121143)
(-0.000226647 0 -6.51987e-05)
(-0.000195245 0 -6.96195e-05)
(-0.000193491 0 -2.93862e-05)
(-0.000187438 0 -1.49798e-05)
(-0.00019061 0 3.66485e-06)
(-0.000205054 0 3.07709e-05)
(-0.000219134 0 5.47007e-05)
(-0.000241921 0 5.64279e-05)
(-0.000268509 0 5.98576e-05)
(-0.000296861 0 5.34735e-05)
(-0.000324732 0 4.49873e-05)
(-0.000350359 0 2.37102e-05)
(-0.000361682 0 2.6268e-06)
(-0.000360894 0 -4.32991e-05)
(-0.000362045 0 -9.73952e-05)
(-0.000379202 0 -8.51973e-05)
(-0.000382232 0 -9.2684e-05)
(-0.000373355 0 -0.000108575)
(-0.000346578 0 -9.15488e-05)
(-0.000305681 0 -6.71919e-05)
(-0.00027897 0 -4.89795e-05)
(-0.000269522 0 -3.32706e-05)
(-0.000269797 0 5.26611e-08)
(-0.00026094 0 1.69508e-06)
(-0.000229723 0 -1.54183e-05)
(-0.000174963 0 -3.75076e-05)
(-0.000117095 0 -4.02569e-05)
(-8.06321e-05 0 -1.72573e-05)
(-6.57472e-05 0 3.93282e-05)
(-3.98558e-05 0 6.67666e-05)
(-1.0446e-05 0 0.000102274)
(1.268e-05 0 0.000117008)
(0.000409699 0 0.000242894)
(-0.000221915 0 -0.000607864)
(6.91604e-06 0 -0.00111622)
(-2.10067e-13 0 -1.65945e-12)
(-7.78949e-13 0 -1.00224e-12)
(3.8121e-13 0 -7.83135e-13)
(5.80949e-13 0 -6.4145e-13)
(7.61357e-13 0 -5.48202e-13)
(9.13529e-13 0 -4.80758e-13)
(1.0385e-12 0 -4.24608e-13)
(1.13975e-12 0 -3.72124e-13)
(1.22075e-12 0 -3.19563e-13)
(1.28425e-12 0 -2.65593e-13)
(1.33235e-12 0 -2.1025e-13)
(1.36674e-12 0 -1.54257e-13)
(1.38871e-12 0 -9.85254e-14)
(1.39929e-12 0 -4.3931e-14)
(1.39937e-12 0 8.72603e-15)
(1.38991e-12 0 5.87478e-14)
(1.37184e-12 0 1.05589e-13)
(1.34602e-12 0 1.48905e-13)
(1.31323e-12 0 1.88522e-13)
(1.27428e-12 0 2.24358e-13)
(1.23e-12 0 2.56396e-13)
(1.18119e-12 0 2.84709e-13)
(1.12859e-12 0 3.09453e-13)
(1.0729e-12 0 3.30838e-13)
(1.01477e-12 0 3.49115e-13)
(9.54727e-13 0 3.64578e-13)
(8.93149e-13 0 3.77557e-13)
(8.30292e-13 0 3.88388e-13)
(7.66371e-13 0 3.97379e-13)
(7.01579e-13 0 4.04787e-13)
(6.36085e-13 0 4.10825e-13)
(5.70023e-13 0 4.15674e-13)
(5.03503e-13 0 4.19496e-13)
(4.36627e-13 0 4.22444e-13)
(3.69502e-13 0 4.24661e-13)
(3.02238e-13 0 4.26281e-13)
(2.3493e-13 0 4.27419e-13)
(1.67642e-13 0 4.28169e-13)
(1.00398e-13 0 4.28603e-13)
(3.33937e-14 0 4.28772e-13)
(-0.000147743 0 0.00078789)
(-0.000151819 0 0.00078171)
(-0.00025792 0 0.000675745)
(-0.000336092 0 0.000538969)
(-0.000394317 0 0.000412624)
(-0.000426478 0 0.000297979)
(-0.000470757 0 0.000151825)
(-0.000480559 0 7.83064e-05)
(-0.000489182 0 1.13395e-05)
(-0.000447024 0 -0.000184677)
(-0.000437863 0 -0.000160047)
(-0.000375184 0 -0.000274643)
(-0.000369293 0 -0.000193112)
(-0.000338517 0 -0.000151643)
(-0.000297836 0 -0.00012682)
(-0.000248346 0 -0.000134519)
(-0.000223247 0 -0.000110074)
(-0.000211966 0 -8.88046e-05)
(-0.000205098 0 -6.20815e-05)
(-0.000198091 0 -4.5816e-05)
(-0.000195018 0 -4.49812e-05)
(-0.00020397 0 -5.55946e-06)
(-0.000200843 0 -2.27775e-07)
(-0.00020207 0 4.21361e-06)
(-0.000207089 0 2.49846e-05)
(-0.000209122 0 3.97208e-05)
(-0.000214055 0 5.60255e-05)
(-0.000221365 0 6.72472e-05)
(-0.000230003 0 7.75317e-05)
(-0.000240273 0 8.62849e-05)
(-0.000250979 0 9.32225e-05)
(-0.000261648 0 0.000103179)
(-0.000277872 0 0.000100804)
(-0.000296722 0 9.57544e-05)
(-0.00031628 0 8.57961e-05)
(-0.000333474 0 8.43794e-05)
(-0.000354569 0 7.37494e-05)
(-0.000384948 0 4.01612e-05)
(-0.000406 0 1.40408e-05)
(-0.000412109 0 -1.29552e-05)
(-0.000404439 0 -7.65807e-05)
(-0.000381726 0 -0.000146343)
(-0.000317336 0 -0.000236805)
(-0.000230728 0 -0.000238925)
(-0.000230093 0 -0.000138531)
(-0.000204849 0 -7.63732e-05)
(-0.000154708 0 -8.51246e-05)
(-0.000159622 0 -3.11991e-05)
(-0.000158214 0 -1.22598e-05)
(-0.000170444 0 2.29352e-05)
(-0.00019015 0 5.32917e-05)
(-0.000209654 0 6.89778e-05)
(-0.00023196 0 8.01262e-05)
(-0.000257816 0 9.02529e-05)
(-0.000290211 0 9.20323e-05)
(-0.000338645 0 6.8861e-05)
(-0.000372023 0 4.87087e-05)
(-0.000379894 0 3.55523e-05)
(-0.000383841 0 -7.18263e-05)
(-0.000405432 0 -7.44325e-05)
(-0.00042714 0 -6.51869e-05)
(-0.000428806 0 -0.000101455)
(-0.000433406 0 -0.000103638)
(-0.00041976 0 -0.000100355)
(-0.000352859 0 -9.36917e-05)
(-0.000302858 0 -5.70978e-05)
(-0.000264284 0 -4.07859e-05)
(-0.000228683 0 -4.24597e-05)
(-0.000183446 0 -6.44675e-05)
(-0.000138646 0 -8.00333e-05)
(-7.98634e-05 0 -0.000109448)
(-3.79661e-05 0 -9.90136e-05)
(3.29418e-06 0 -6.82448e-05)
(4.74943e-05 0 -3.02186e-05)
(5.95647e-05 0 5.29868e-05)
(7.91584e-05 0 2.52938e-05)
(-1.0928e-05 0 -4.11275e-05)
(0.000262242 0 -0.000149163)
(-0.00026035 0 -0.000604145)
(6.49467e-06 0 -0.00101305)
(-1.16227e-14 0 -1.69596e-12)
(-6.01217e-13 0 -1.15559e-12)
(5.52505e-13 0 -9.63837e-13)
(7.08057e-13 0 -8.15234e-13)
(8.55792e-13 0 -7.02468e-13)
(9.88885e-13 0 -6.12534e-13)
(1.10455e-12 0 -5.34777e-13)
(1.20228e-12 0 -4.6268e-13)
(1.28268e-12 0 -3.92511e-13)
(1.34661e-12 0 -3.22566e-13)
(1.39503e-12 0 -2.525e-13)
(1.42904e-12 0 -1.82821e-13)
(1.44979e-12 0 -1.144e-13)
(1.45833e-12 0 -4.81337e-14)
(1.45564e-12 0 1.51633e-14)
(1.44277e-12 0 7.47857e-14)
(1.42085e-12 0 1.30161e-13)
(1.39091e-12 0 1.8093e-13)
(1.35392e-12 0 2.26967e-13)
(1.31077e-12 0 2.6829e-13)
(1.26236e-12 0 3.04998e-13)
(1.20958e-12 0 3.37266e-13)
(1.15323e-12 0 3.65337e-13)
(1.09406e-12 0 3.89508e-13)
(1.03275e-12 0 4.10102e-13)
(9.69866e-13 0 4.27465e-13)
(9.0579e-13 0 4.41959e-13)
(8.40772e-13 0 4.53949e-13)
(7.7499e-13 0 4.63773e-13)
(7.08593e-13 0 4.71731e-13)
(6.41709e-13 0 4.7808e-13)
(5.74448e-13 0 4.83047e-13)
(5.06907e-13 0 4.8684e-13)
(4.39179e-13 0 4.8966e-13)
(3.71363e-13 0 4.91693e-13)
(3.03549e-13 0 4.93113e-13)
(2.35812e-13 0 4.94068e-13)
(1.68189e-13 0 4.94675e-13)
(1.00678e-13 0 4.95021e-13)
(3.34742e-14 0 4.95167e-13)
(-0.000349355 0 0.000911643)
(8.59526e-06 0 0.000895357)
(-0.000223408 0 0.000722361)
(-0.000246255 0 0.000611385)
(-0.000330004 0 0.000476336)
(-0.000385992 0 0.000340167)
(-0.000432801 0 0.000226531)
(-0.000463383 0 0.000136524)
(-0.000475981 0 1.3564e-05)
(-0.000426871 0 -0.000186767)
(-0.000421098 0 -0.000177815)
(-0.000407769 0 -0.00020445)
(-0.000348292 0 -0.000237619)
(-0.000294044 0 -0.000217973)
(-0.00026357 0 -0.000178273)
(-0.000256458 0 -0.000108243)
(-0.000224646 0 -0.000100723)
(-0.000207086 0 -7.15511e-05)
(-0.000188496 0 -6.73291e-05)
(-0.000185238 0 -5.06213e-05)
(-0.000184938 0 -2.36558e-05)
(-0.000173468 0 -1.41112e-05)
(-0.000168945 0 -1.17224e-05)
(-0.000174949 0 2.13503e-06)
(-0.000186769 0 3.11903e-05)
(-0.000195734 0 3.73175e-05)
(-0.000203978 0 6.12665e-05)
(-0.000210501 0 7.27045e-05)
(-0.000218969 0 8.47874e-05)
(-0.000231754 0 9.32029e-05)
(-0.000245909 0 9.95413e-05)
(-0.000259409 0 0.000109161)
(-0.000277008 0 0.000112735)
(-0.00029635 0 0.000120001)
(-0.000317974 0 0.000110262)
(-0.000337717 0 0.000103107)
(-0.000367828 0 8.61241e-05)
(-0.000393852 0 6.26674e-05)
(-0.000399604 0 3.77819e-05)
(-0.000383005 0 -2.71211e-05)
(-0.000348425 0 -0.000114563)
(-0.000261373 0 -0.000233259)
(-0.000247083 0 -0.00025312)
(-0.000177388 0 -0.000265089)
(-0.000156672 0 -0.000184217)
(-0.000134921 0 -0.00011837)
(-9.43982e-05 0 -8.32793e-05)
(-0.000108994 0 -3.5787e-05)
(-0.000121748 0 2.63507e-06)
(-0.000138666 0 3.36388e-05)
(-0.000165363 0 7.15787e-05)
(-0.000189869 0 9.03416e-05)
(-0.000216181 0 0.000106256)
(-0.00024537 0 0.000121807)