/*--------------------------------*- C++ -*----------------------------------*\
  =========                 |
  \\      /  F ield         | OpenFOAM: The Open Source CFD Toolbox
   \\    /   O peration     | Website:  https://openfoam.org
    \\  /    A nd           | Version:  6
     \\/     M anipulation  |
\*---------------------------------------------------------------------------*/
FoamFile
{
    version     2.0;
    format      ascii;
    class       surfaceScalarField;
    location    "600";
    object      phi;
}
// * * * * * * * * * * * * * * * * * * * * * * * * * * * * * * * * * * * * * //

dimensions      [0 3 -1 0 0 0 0];

internalField   nonuniform List<scalar> 
9440
(
8.20506e-11
-8.20506e-11
1.3533e-10
-5.32805e-11
1.44386e-10
-9.05743e-12
8.826e-12
1.35559e-10
-1.85814e-10
1.94639e-10
-2.94719e-10
1.08904e-10
-3.89799e-10
9.50803e-11
-4.24673e-10
3.48731e-11
-4.00861e-10
-2.38128e-11
-3.51503e-10
-4.93583e-11
-2.46778e-10
-1.04724e-10
-5.9192e-11
-1.87587e-10
6.08824e-11
-1.20074e-10
1.79996e-10
-1.19114e-10
3.27242e-10
-1.47246e-10
4.07902e-10
-8.06602e-11
4.13006e-10
-5.10399e-12
4.73137e-10
-6.01321e-11
5.57694e-10
-8.4557e-11
5.57683e-10
9.94183e-15
4.79498e-10
7.8184e-11
3.63176e-10
1.16321e-10
2.96358e-10
6.68176e-11
2.57661e-10
3.8696e-11
1.97753e-10
5.99069e-11
4.95291e-11
1.48223e-10
-1.14374e-10
1.63902e-10
-3.62153e-10
2.47778e-10
-5.1307e-10
1.50916e-10
-7.50472e-10
2.37401e-10
-1.02641e-09
2.75934e-10
-1.14025e-09
1.13843e-10
-1.2447e-09
1.04456e-10
-1.33265e-09
8.79506e-11
-1.54393e-09
2.11278e-10
-1.8724e-09
3.28465e-10
-2.24715e-09
3.7475e-10
-2.45141e-09
2.04268e-10
-2.58134e-09
1.2993e-10
-2.65035e-09
6.90112e-11
-2.67847e-09
2.81156e-11
-2.70001e-09
2.15434e-11
-2.69402e-09
-5.99143e-12
-2.65763e-09
-3.63958e-11
-2.60159e-09
-5.60421e-11
-2.54706e-09
-5.45249e-11
-2.45418e-09
-9.288e-11
-2.35384e-09
-1.00346e-10
-2.25346e-09
-1.00377e-10
-2.20663e-09
-4.68251e-11
-2.14447e-09
-6.21644e-11
-2.0795e-09
-6.49715e-11
-2.03091e-09
-4.85822e-11
-2.00569e-09
-2.52254e-11
-1.97181e-09
-3.38827e-11
-1.93748e-09
-3.433e-11
-1.90858e-09
-2.88992e-11
-1.83204e-09
-7.65402e-11
-1.66035e-09
-1.71686e-10
-1.46255e-09
-1.97804e-10
-1.61961e-09
1.57063e-10
-1.18479e-09
-4.34826e-10
-1.10223e-09
-8.25563e-11
-8.97235e-10
-2.04997e-10
-6.89632e-10
-2.07604e-10
-4.4048e-10
-2.49153e-10
-1.91717e-10
-2.48764e-10
-3.08549e-11
-1.60862e-10
2.71369e-10
-3.02224e-10
5.79229e-10
-3.0786e-10
8.2063e-10
-2.414e-10
8.98342e-10
-7.77124e-11
7.44865e-10
1.53476e-10
2.80146e-10
4.64718e-10
-3.27816e-10
6.07961e-10
-7.62066e-10
4.34249e-10
-1.02595e-09
2.63879e-10
-9.89186e-10
-3.67606e-11
-5.01534e-10
-4.87653e-10
5.30668e-16
-5.01535e-10
-3.71628e-20
-5.31757e-19
3.98601e-19
-4.35764e-19
7.19286e-19
-3.21601e-19
9.6893e-19
-2.51006e-19
1.18095e-18
-2.13812e-19
1.3738e-18
-1.95216e-19
1.55592e-18
-1.84904e-19
1.72987e-18
-1.76836e-19
1.89545e-18
-1.68453e-19
2.05091e-18
-1.58459e-19
2.19411e-18
-1.46268e-19
2.32299e-18
-1.31786e-19
2.43575e-18
-1.15318e-19
2.53078e-18
-9.73792e-20
2.60671e-18
-7.84196e-20
2.66272e-18
-5.87433e-20
2.6986e-18
-3.86388e-20
2.71459e-18
-1.84732e-20
2.71118e-18
1.35782e-21
2.6891e-18
2.05365e-20
2.64921e-18
3.88562e-20
2.59257e-18
5.61652e-20
2.52038e-18
7.23194e-20
2.434e-18
8.72001e-20
2.33483e-18
1.0073e-19
2.22427e-18
1.12827e-19
2.10343e-18
1.23372e-19
1.97312e-18
1.32312e-19
1.83397e-18
1.39812e-19
1.68691e-18
1.46276e-19
1.53327e-18
1.52158e-19
1.37453e-18
1.57704e-19
1.21187e-18
1.62853e-19
1.04594e-18
1.67342e-19
8.76984e-19
1.70923e-19
7.05185e-19
1.73518e-19
5.30934e-19
1.75255e-19
3.5485e-19
1.76362e-19
1.77638e-19
1.77026e-19
1.77244e-19
-1.95656e-11
-6.24861e-11
-1.66418e-10
9.35695e-11
-2.98468e-10
1.22991e-10
-3.56483e-10
1.93573e-10
-4.6914e-10
3.07294e-10
-5.52546e-10
1.92309e-10
-5.47132e-10
8.96651e-11
-5.61063e-10
4.88042e-11
-5.17588e-10
-6.72891e-11
-4.63866e-10
-1.0308e-10
-4.12058e-10
-1.56533e-10
-3.40815e-10
-2.5883e-10
-2.52452e-10
-2.08438e-10
-1.36492e-10
-2.35074e-10
-4.97525e-11
-2.33986e-10
6.57448e-11
-1.96158e-10
1.2439e-10
-6.37503e-11
1.29897e-10
-6.56407e-11
1.06768e-10
-6.14289e-11
3.37326e-11
7.30434e-11
1.00948e-10
1.0967e-11
1.26547e-10
9.07201e-11
1.83244e-11
1.75039e-10
-1.43064e-10
2.00083e-10
-2.43374e-10
1.60215e-10
-3.95129e-10
2.99977e-10
-5.3517e-10
3.03942e-10
-7.70837e-10
4.83445e-10
-1.04358e-09
4.23654e-10
-1.21369e-09
4.07513e-10
-1.29317e-09
3.55411e-10
-1.40314e-09
2.23821e-10
-1.56833e-09
2.69639e-10
-1.77276e-09
2.92385e-10
-1.99501e-09
4.33525e-10
-2.15007e-09
4.83524e-10
-2.21306e-09
4.37748e-10
-2.28514e-09
2.76346e-10
-2.43302e-09
2.77809e-10
-2.51204e-09
1.48028e-10
-2.5869e-09
1.02974e-10
-2.63942e-09
7.40652e-11
-2.66257e-09
1.71599e-11
-2.67568e-09
-2.32905e-11
-2.65652e-09
-7.51979e-11
-2.58679e-09
-1.24258e-10
-2.53537e-09
-1.44302e-10
-2.47097e-09
-1.64746e-10
-2.40388e-09
-1.67459e-10
-2.33904e-09
-1.11666e-10
-2.28716e-09
-1.14049e-10
-2.2253e-09
-1.26827e-10
-2.13456e-09
-1.3932e-10
-2.08877e-09
-7.10183e-11
-2.05116e-09
-7.14941e-11
-2.03336e-09
-5.21356e-11
-2.0135e-09
-4.87595e-11
-1.98673e-09
-1.03311e-10
-1.777e-09
-3.81411e-10
-1.71678e-09
-2.58023e-10
-1.66721e-09
1.07493e-10
-1.43003e-09
-6.72014e-10
-1.3323e-09
-1.80284e-10
-1.14936e-09
-3.87943e-10
-9.63407e-10
-3.93557e-10
-6.98025e-10
-5.14536e-10
-4.07438e-10
-5.39352e-10
-8.97195e-11
-4.78581e-10
1.63847e-10
-5.5579e-10
4.36391e-10
-5.80405e-10
6.63678e-10
-4.68688e-10
8.45357e-10
-2.59393e-10
9.81901e-10
1.69302e-11
9.52439e-10
4.94179e-10
1.01327e-09
5.47127e-10
8.20886e-10
6.26632e-10
5.91166e-10
4.93598e-10
2.10323e-10
3.44081e-10
-1.10666e-10
-1.66665e-10
2.93387e-16
-6.12201e-10
6.5718e-20
-1.41652e-18
5.0888e-19
-8.80025e-19
7.8712e-19
-6.02466e-19
1.00447e-18
-4.71865e-19
1.19898e-18
-4.12293e-19
1.38421e-18
-3.84862e-19
1.56399e-18
-3.69582e-19
1.73825e-18
-3.56328e-19
1.90544e-18
-3.40766e-19
2.06311e-18
-3.20927e-19
2.20859e-18
-2.96298e-19
2.33946e-18
-2.6715e-19
2.45369e-18
-2.34097e-19
2.54974e-18
-1.97891e-19
2.62639e-18
-1.5933e-19
2.68282e-18
-1.19209e-19
2.71877e-18
-7.82896e-20
2.73442e-18
-3.73113e-20
2.73036e-18
2.99233e-21
2.70742e-18
4.19588e-20
2.66652e-18
7.90945e-20
2.60872e-18
1.14081e-19
2.53526e-18
1.46664e-19
2.44753e-18
1.76533e-19
2.34693e-18
2.03313e-19
2.23481e-18
2.26729e-19
2.11237e-18
2.46861e-19
1.98062e-18
2.64237e-19
1.84044e-18
2.79645e-19
1.6928e-18
2.93745e-19
1.53882e-18
3.0677e-19
1.37968e-18
3.18514e-19
1.21636e-18
3.28573e-19
1.04952e-18
3.36662e-19
8.79579e-19
3.4279e-19
7.06921e-19
3.47245e-19
5.32042e-19
3.50438e-19
3.55514e-19
3.52711e-19
1.77856e-19
3.54231e-19
3.55047e-19
-1.64765e-10
1.02278e-10
-3.39607e-10
2.68409e-10
-5.01544e-10
2.84927e-10
-6.09684e-10
3.01711e-10
-6.40238e-10
3.37847e-10
-6.79393e-10
2.31462e-10
-6.44435e-10
5.47058e-11
-6.36145e-10
4.05133e-11
-6.52536e-10
-5.08983e-11
-6.03789e-10
-1.51828e-10
-5.37731e-10
-2.22591e-10
-5.18883e-10
-2.77679e-10
-4.27121e-10
-3.002e-10
-3.37295e-10
-3.24901e-10
-2.88897e-10
-2.82385e-10
-2.54939e-10
-2.30118e-10
-1.97803e-10
-1.20887e-10
-2.21335e-10
-4.21092e-11
-2.25639e-10
-5.71268e-11
-2.38838e-10
8.6241e-11
-2.66605e-10
3.87325e-11
-2.56941e-10
8.10549e-11
-3.14269e-10
2.32365e-10
-4.16243e-10
3.02056e-10
-5.89875e-10
3.33846e-10
-7.68326e-10
4.78426e-10
-9.29045e-10
4.6466e-10
-1.03078e-09
5.85173e-10
-1.17931e-09
5.72187e-10
-1.28203e-09
5.10235e-10
-1.37755e-09
4.5093e-10
-1.49846e-09
3.44726e-10
-1.61752e-09
3.88702e-10
-1.82863e-09
5.03492e-10
-1.9516e-09
5.56496e-10
-2.02261e-09
5.54532e-10
-2.16452e-09
5.79659e-10
-2.28928e-09
4.011e-10
-2.34299e-09
3.31525e-10
-2.39627e-09
2.01308e-10
-2.44286e-09
1.49562e-10
-2.47372e-09
1.0492e-10
-2.49232e-09
3.57637e-11
-2.50742e-09
-8.19353e-12
-2.51388e-09
-6.87376e-11
-2.53605e-09
-1.02079e-10
-2.53488e-09
-1.45474e-10
-2.5161e-09
-1.83523e-10
-2.47899e-09
-2.04577e-10
-2.41715e-09
-1.73501e-10
-2.33973e-09
-1.91474e-10
-2.29296e-09
-1.73595e-10
-2.26797e-09
-1.64303e-10
-2.19673e-09
-1.42264e-10
-2.12538e-09
-1.42842e-10
-2.0897e-09
-8.78199e-11
-2.06433e-09
-7.41245e-11
-2.01181e-09
-1.55837e-10
-1.93998e-09
-4.53242e-10
-1.89152e-09
-3.06482e-10
-1.53354e-09
-2.50485e-10
-1.59745e-09
-6.08103e-10
-1.35606e-09
-4.21678e-10
-1.22552e-09
-5.18481e-10
-1.04411e-09
-5.7497e-10
-7.8193e-10
-7.76718e-10
-5.76428e-10
-7.44854e-10
-3.45095e-10
-7.09916e-10
-8.53936e-11
-8.15492e-10
1.5165e-10
-8.1745e-10
4.2278e-10
-7.39819e-10
7.74345e-10
-6.1096e-10
9.80421e-10
-1.89147e-10
1.16315e-09
3.11448e-10
1.28153e-09
4.28746e-10
1.21797e-09
6.90191e-10
9.94988e-10
7.16579e-10
8.23167e-10
5.15901e-10
3.38235e-10
3.18267e-10
2.0112e-16
-2.73967e-10
6.37055e-19
-1.70092e-18
7.87079e-19
-1.03104e-18
9.18377e-19
-7.35574e-19
1.0647e-18
-6.20655e-19
1.22707e-18
-5.77515e-19
1.39992e-18
-5.60858e-19
1.57725e-18
-5.5024e-19
1.75381e-18
-5.36319e-19
1.92528e-18
-5.15599e-19
2.08773e-18
-4.86761e-19
2.23774e-18
-4.49752e-19
2.37251e-18
-4.05306e-19
2.4899e-18
-3.54621e-19
2.5883e-18
-2.99091e-19
2.66651e-18
-2.40076e-19
2.72374e-18
-1.78849e-19
2.75975e-18
-1.16615e-19
2.77472e-18
-5.45533e-20
2.76933e-18
6.18369e-21
2.74455e-18
6.46138e-20
2.70151e-18
1.20048e-19
2.64131e-18
1.72055e-19
2.56513e-18
2.20343e-19
2.47431e-18
2.64672e-19
2.37035e-18
3.04854e-19
2.25494e-18
3.40778e-19
2.12975e-18
3.72484e-19
1.99603e-18
4.00238e-19
1.85454e-18
4.24519e-19
1.70582e-18
4.45857e-19
1.55056e-18
4.6462e-19
1.38974e-18
4.80922e-19
1.22445e-18
4.94714e-19
1.05565e-18
5.05969e-19
8.84035e-19
5.14823e-19
7.10114e-19
5.21586e-19
5.34315e-19
5.26629e-19
3.57033e-19
5.30254e-19
1.78673e-19
5.32631e-19
5.33865e-19
-1.04786e-10
2.07063e-10
-3.22948e-10
4.86569e-10
-5.87114e-10
5.49091e-10
-6.94218e-10
4.08814e-10
-6.98868e-10
3.42495e-10
-7.41844e-10
2.74438e-10
-7.95123e-10
1.07983e-10
-8.20361e-10
6.57503e-11
-8.31183e-10
-4.00771e-11
-8.04441e-10
-1.78571e-10
-8.00476e-10
-2.26557e-10
-7.8364e-10
-2.94516e-10
-7.03644e-10
-3.80197e-10
-7.02776e-10
-3.25769e-10
-6.87778e-10
-2.97384e-10
-6.3415e-10
-2.83746e-10
-5.19803e-10
-2.35235e-10
-5.10247e-10
-5.16665e-11
-5.25146e-10
-4.22286e-11
-4.80649e-10
4.17426e-11
-5.37683e-10
9.57646e-11
-5.9848e-10
1.41851e-10
-6.55659e-10
2.89543e-10
-7.47078e-10
3.93474e-10
-8.95138e-10
4.81904e-10
-1.02653e-09
6.09815e-10
-1.16e-09
5.98126e-10
-1.20815e-09
6.33327e-10
-1.24072e-09
6.04757e-10
-1.29181e-09
5.61319e-10
-1.37747e-09
5.36588e-10
-1.48439e-09
4.5164e-10
-1.6264e-09
5.30715e-10
-1.79965e-09
6.76739e-10
-1.92866e-09
6.85512e-10
-2.01622e-09
6.42091e-10
-2.08695e-09
6.5039e-10
-2.19973e-09
5.13874e-10
-2.26924e-09
4.01036e-10
-2.30719e-09
2.39266e-10
-2.33662e-09
1.78985e-10
-2.36804e-09
1.36346e-10
-2.38266e-09
5.03775e-11
-2.39302e-09
2.17129e-12
-2.39416e-09
-6.75999e-11
-2.4172e-09
-7.90399e-11
-2.41595e-09
-1.4672e-10
-2.40093e-09
-1.9854e-10
-2.40166e-09
-2.0385e-10
-2.37034e-09
-2.04824e-10
-2.32921e-09
-2.32599e-10
-2.28429e-09
-2.18521e-10
-2.27196e-09
-1.76628e-10
-2.22755e-09
-1.86672e-10
-2.18871e-09
-1.81685e-10
-2.11327e-09
-1.63259e-10
-2.03242e-09
-1.54981e-10
-1.90386e-09
-2.84398e-10
-1.85079e-09
-5.06306e-10
-1.76725e-09
-3.90025e-10
-1.5534e-09
-4.64334e-10
-1.48239e-09
-6.79112e-10
-1.34428e-09
-5.59793e-10
-1.16333e-09
-6.99433e-10
-9.94893e-10
-7.43407e-10
-8.57402e-10
-9.14211e-10
-6.95814e-10
-9.06443e-10
-4.18435e-10
-9.87295e-10
-1.48871e-10
-1.08506e-09
1.02509e-10
-1.06883e-09
3.54379e-10
-9.9169e-10
7.089e-10
-9.65483e-10
1.00749e-09
-4.87742e-10
1.13635e-09
1.82596e-10
1.18982e-09
3.75272e-10
1.23759e-09
6.42422e-10
1.15332e-09
8.00848e-10
9.32442e-10
7.36775e-10
5.51347e-10
6.99361e-10
-3.95118e-17
2.77379e-10
1.40504e-18
-5.797e-19
1.08317e-18
-7.10075e-19
1.03394e-18
-6.87508e-19
1.10849e-18
-6.96781e-19
1.24437e-18
-7.15117e-19
1.41095e-18
-7.29278e-19
1.59117e-18
-7.32574e-19
1.77453e-18
-7.2211e-19
1.95412e-18
-6.97636e-19
2.12474e-18
-6.59748e-19
2.28219e-18
-6.09628e-19
2.4232e-18
-5.48825e-19
2.54543e-18
-4.79218e-19
2.64732e-18
-4.02902e-19
2.72774e-18
-3.21982e-19
2.78598e-18
-2.38426e-19
2.82181e-18
-1.53961e-19
2.83546e-18
-7.01292e-20
2.82776e-18
1.15963e-20
2.79998e-18
8.98886e-20
2.75351e-18
1.63796e-19
2.68959e-18
2.3285e-19
2.60946e-18
2.96945e-19
2.51449e-18
3.56095e-19
2.40627e-18
4.10245e-19
2.28665e-18
4.59189e-19
2.1575e-18
5.02667e-19
2.02031e-18
5.4059e-19
1.87588e-18
5.73217e-19
1.72458e-18
6.01123e-19
1.56686e-18
6.24992e-19
1.40353e-18
6.45381e-19
1.2357e-18
6.62631e-19
1.0645e-18
6.76944e-19
8.90797e-19
6.88502e-19
7.15157e-19
6.97554e-19
5.3794e-19
7.0439e-19
3.5941e-19
7.09279e-19
1.79907e-19
7.1244e-19
7.1405e-19
-3.10268e-10
5.17329e-10
-5.07764e-10
6.84063e-10
-6.26375e-10
6.67701e-10
-7.18328e-10
5.00765e-10
-8.16146e-10
4.40312e-10
-8.13278e-10
2.71568e-10
-9.05135e-10
1.99839e-10
-9.68261e-10
1.28876e-10
-9.30812e-10
-7.75271e-11
-9.42414e-10
-1.6697e-10
-9.45316e-10
-2.23656e-10
-9.16145e-10
-3.23688e-10
-9.36702e-10
-3.59641e-10
-9.24276e-10
-3.38196e-10
-8.94481e-10
-3.2718e-10
-8.70504e-10
-3.07724e-10
-8.67804e-10
-2.37937e-10
-7.97715e-10
-1.21756e-10
-7.78934e-10
-6.10111e-11
-7.60815e-10
2.36228e-11
-8.31206e-10
1.66154e-10
-9.67117e-10
2.77761e-10
-9.93399e-10
3.15824e-10
-1.10003e-09
5.00107e-10
-1.2101e-09
5.91966e-10
-1.26906e-09
6.68775e-10
-1.32318e-09
6.52244e-10
-1.33396e-09
6.44111e-10
-1.32334e-09
5.94132e-10
-1.32554e-09
5.6352e-10
-1.35578e-09
5.66823e-10
-1.48285e-09
5.78705e-10
-1.61533e-09
6.63201e-10
-1.71702e-09
7.78426e-10
-1.81848e-09
7.86971e-10
-1.92371e-09
7.47326e-10
-1.97689e-09
7.03567e-10
-2.05544e-09
5.92424e-10
-2.12523e-09
4.70832e-10
-2.16546e-09
2.79491e-10
-2.17566e-09
1.8919e-10
-2.17999e-09
1.40673e-10
-2.18556e-09
5.59478e-11
-2.20011e-09
1.67213e-11
-2.22568e-09
-4.20232e-11
-2.25356e-09
-5.1166e-11
-2.22817e-09
-1.72112e-10
-2.21045e-09
-2.16255e-10
-2.1958e-09
-2.18505e-10
-2.17276e-09
-2.2786e-10
-2.15029e-09
-2.55076e-10
-2.09205e-09
-2.76759e-10
-2.07012e-09
-1.98561e-10
-1.99955e-09
-2.57233e-10
-1.92614e-09
-2.55103e-10
-1.80785e-09
-2.81546e-10
-1.72259e-09
-2.40243e-10
-1.61641e-09
-3.9057e-10
-1.56429e-09
-5.58426e-10
-1.44833e-09
-5.05989e-10
-1.28105e-09
-6.3161e-10
-1.24657e-09
-7.13592e-10
-1.16843e-09
-6.37938e-10
-1.03107e-09
-8.36788e-10
-8.76453e-10
-8.98028e-10
-7.77157e-10
-1.01351e-09
-5.74558e-10
-1.10904e-09
-3.57311e-10
-1.20454e-09
-1.68588e-10
-1.27378e-09
8.60445e-11
-1.32347e-09
4.31477e-10
-1.33712e-09
7.19575e-10
-1.25358e-09
1.03201e-09
-8.00178e-10
1.0568e-09
1.57806e-10
1.05765e-09
3.74417e-10
1.12317e-09
5.769e-10
1.05239e-09
8.71634e-10
8.43864e-10
9.45299e-10
5.67872e-10
9.75352e-10
-3.98413e-16
8.45252e-10
1.4686e-18
3.38502e-19
1.10639e-18
-3.48406e-19
1.02531e-18
-6.06724e-19
1.09079e-18
-7.62943e-19
1.23083e-18
-8.56e-19
1.40803e-18
-9.07304e-19
1.60163e-18
-9.27161e-19
1.79901e-18
-9.20936e-19
1.99201e-18
-8.92401e-19
2.17486e-18
-8.44401e-19
2.34299e-18
-7.79595e-19
2.49281e-18
-7.00598e-19
2.62175e-18
-6.10154e-19
2.72824e-18
-5.11139e-19
2.81129e-18
-4.06414e-19
2.87044e-18
-2.98672e-19
2.90564e-18
-1.9024e-19
2.91718e-18
-8.30754e-20
2.90605e-18
2.10346e-20
2.87389e-18
1.20443e-19
2.82257e-18
2.13893e-19
2.75369e-18
3.00743e-19
2.66861e-18
3.80926e-19
2.56864e-18
4.54664e-19
2.45521e-18
5.22127e-19
2.33013e-18
5.83204e-19
2.19542e-18
6.37563e-19
2.05293e-18
6.84935e-19
1.90378e-18
7.2544e-19
1.74845e-18
7.59682e-19
1.58725e-18
7.88561e-19
1.42078e-18
8.1296e-19
1.25002e-18
8.33534e-19
1.07606e-18
8.50684e-19
8.99849e-19
8.64668e-19
7.21993e-19
8.75724e-19
5.42829e-19
8.84113e-19
3.62571e-19
8.90111e-19
1.81516e-19
8.93979e-19
8.95929e-19
1.04326e-10
4.13002e-10
-5.0382e-11
8.38769e-10
-4.54097e-10
1.07141e-09
-7.01349e-10
7.48016e-10
-8.21806e-10
5.60768e-10
-9.52739e-10
4.02499e-10
-1.01659e-09
2.63685e-10
-1.03575e-09
1.48039e-10
-1.09542e-09
-1.78568e-11
-1.14989e-09
-1.12506e-10
-1.10048e-09
-2.73064e-10
-1.12902e-09
-2.9515e-10
-1.16751e-09
-3.21152e-10
-1.18161e-09
-3.24098e-10
-1.17603e-09
-3.32757e-10
-1.17381e-09
-3.09947e-10
-1.16736e-09
-2.44383e-10
-1.13463e-09
-1.54489e-10
-1.19147e-09
-4.17222e-12
-1.20668e-09
3.88342e-11
-1.24325e-09
2.02725e-10
-1.34445e-09
3.78955e-10
-1.40878e-09
3.80155e-10
-1.41386e-09
5.0518e-10
-1.44936e-09
6.27472e-10
-1.46303e-09
6.82435e-10
-1.4008e-09
5.90018e-10
-1.34324e-09
5.86549e-10
-1.32146e-09
5.72354e-10
-1.3121e-09
5.54159e-10
-1.3168e-09
5.7152e-10
-1.41963e-09
6.81542e-10
-1.54351e-09
7.87082e-10
-1.6316e-09
8.66514e-10
-1.71565e-09
8.71016e-10
-1.78797e-09
8.19652e-10
-1.84264e-09
7.58235e-10
-1.8887e-09
6.3849e-10
-1.92805e-09
5.10183e-10
-1.94938e-09
3.0082e-10
-1.99183e-09
2.31635e-10
-1.99842e-09
1.47269e-10
-1.99991e-09
5.74327e-11
-2.01398e-09
3.07943e-11
-2.0175e-09
-3.85003e-11
-1.99287e-09
-7.57949e-11
-1.96882e-09
-1.96168e-10
-1.93253e-09
-2.52546e-10
-1.88673e-09
-2.64304e-10
-1.8776e-09
-2.36987e-10
-1.83374e-09
-2.98938e-10
-1.75938e-09
-3.51118e-10
-1.70256e-09
-2.55391e-10
-1.62078e-09
-3.39012e-10
-1.53653e-09
-3.39351e-10
-1.48448e-09
-3.33597e-10
-1.3671e-09
-3.57616e-10
-1.28496e-09
-4.72709e-10
-1.26797e-09
-5.7542e-10
-1.16059e-09
-6.13368e-10
-1.11107e-09
-6.81125e-10
-1.07339e-09
-7.51271e-10
-8.7016e-10
-8.41172e-10
-8.12331e-10
-8.94617e-10
-7.27898e-10
-9.82461e-10
-6.81884e-10
-1.05952e-09
-5.31083e-10
-1.25985e-09
-3.50831e-10
-1.3848e-09
-1.64162e-10
-1.46045e-09
5.00302e-11
-1.53766e-09
3.09039e-10
-1.59613e-09
4.28465e-10
-1.37301e-09
5.62899e-10
-9.34612e-10
8.98441e-10
-1.77737e-10
8.90263e-10
3.82593e-10
8.40608e-10
6.26555e-10
7.78275e-10
9.33967e-10
6.51318e-10
1.07226e-09
4.44033e-10
1.18264e-09
-6.93574e-16
1.28929e-09
1.08269e-18
1.4839e-18
8.48743e-19
-1.14611e-19
8.69731e-19
-6.27238e-19
9.98351e-19
-8.91562e-19
1.18014e-18
-1.03812e-18
1.38852e-18
-1.11607e-18
1.60786e-18
-1.14693e-18
1.82754e-18
-1.14149e-18
2.04001e-18
-1.10626e-18
2.23967e-18
-1.04573e-18
2.42199e-18
-9.63773e-19
2.58325e-18
-8.64025e-19
2.72076e-18
-7.50139e-19
2.83296e-18
-6.25817e-19
2.91903e-18
-4.94724e-19
2.97887e-18
-3.60344e-19
3.0128e-18
-2.25673e-19
3.02129e-18
-9.31001e-20
3.00546e-18
3.53139e-20
2.96734e-18
1.57622e-19
2.90942e-18
2.72158e-19
2.83387e-18
3.77889e-19
2.74235e-18
4.74565e-19
2.6361e-18
5.62532e-19
2.51629e-18
6.42323e-19
2.38448e-18
7.14248e-19
2.2428e-18
7.78263e-19
2.09344e-18
8.34187e-19
1.93803e-18
8.82082e-19
1.77733e-18
9.22482e-19
1.61165e-18
9.56312e-19
1.44135e-18
9.84614e-19
1.26717e-18
1.00827e-18
1.09005e-18
1.02788e-18
9.10905e-19
1.04387e-18
7.30382e-19
1.05654e-18
5.48827e-19
1.06619e-18
3.66438e-19
1.07311e-18
1.83467e-19
1.07758e-18
1.07981e-18
-6.1297e-10
1.02597e-09
-8.25783e-10
1.05158e-09
-7.02377e-10
9.48006e-10
-7.81981e-10
8.27618e-10
-9.09598e-10
6.88384e-10
-9.89803e-10
4.82703e-10
-1.13402e-09
4.07897e-10
-1.13721e-09
1.51236e-10
-1.23417e-09
7.90947e-11
-1.23503e-09
-1.1164e-10
-1.22899e-09
-2.79113e-10
-1.30309e-09
-2.2105e-10
-1.33016e-09
-2.94072e-10
-1.33694e-09
-3.17325e-10
-1.36873e-09
-3.00969e-10
-1.41117e-09
-2.67503e-10
-1.45461e-09
-2.00943e-10
-1.48951e-09
-1.19593e-10
-1.52519e-09
3.15142e-11
-1.57861e-09
9.22458e-11
-1.5489e-09
1.73019e-10
-1.52397e-09
3.54022e-10
-1.55018e-09
4.06366e-10
-1.51491e-09
4.69908e-10
-1.50759e-09
6.20144e-10
-1.48006e-09
6.54913e-10
-1.40826e-09
5.18212e-10
-1.32712e-09
5.05412e-10
-1.29608e-09
5.4131e-10
-1.27604e-09
5.3412e-10
-1.28455e-09
5.80031e-10
-1.35584e-09
7.52831e-10
-1.43841e-09
8.69652e-10
-1.5064e-09
9.34515e-10
-1.57088e-09
9.35489e-10
-1.62521e-09
8.73983e-10
-1.64453e-09
7.77557e-10
-1.68992e-09
6.83878e-10
-1.73601e-09
5.5628e-10
-1.79801e-09
3.62821e-10
-1.83495e-09
2.68576e-10
-1.85847e-09
1.70788e-10
-1.86922e-09
6.81759e-11
-1.87963e-09
4.12037e-11
-1.87427e-09
-4.38516e-11
-1.80528e-09
-1.44786e-10
-1.74085e-09
-2.606e-10
-1.71184e-09
-2.81555e-10
-1.61529e-09
-3.60859e-10
-1.57503e-09
-2.77251e-10
-1.53273e-09
-3.41233e-10
-1.44296e-09
-4.4089e-10
-1.32579e-09
-3.72565e-10
-1.24392e-09
-4.20879e-10
-1.1696e-09
-4.13667e-10
-1.1234e-09
-3.79799e-10
-1.0745e-09
-4.06519e-10
-1.02869e-09
-5.18514e-10
-1.00303e-09
-6.01082e-10
-9.69778e-10
-6.46622e-10
-8.78887e-10
-7.72015e-10
-8.22018e-10
-8.08139e-10
-7.53984e-10
-9.09206e-10
-6.77851e-10
-9.70749e-10
-5.97017e-10
-1.06329e-09
-5.13259e-10
-1.14328e-09
-4.19508e-10
-1.3536e-09
-2.85158e-10
-1.51915e-09
-9.93979e-11
-1.64621e-09
5.68894e-11
-1.69395e-09
1.86411e-10
-1.72566e-09
4.00669e-10
-1.58727e-09
4.68974e-10
-1.00292e-09
8.42697e-10
-5.5146e-10
7.62102e-10
4.63189e-10
6.55994e-10
7.32662e-10
5.84379e-10
1.00558e-09
4.79166e-10
1.17747e-09
3.16195e-10
1.34561e-09
-7.74307e-16
1.60548e-09
-1.12144e-19
1.20058e-19
3.36805e-19
-5.63397e-19
6.06045e-19
-8.95587e-19
8.52403e-19
-1.13764e-18
1.10277e-18
-1.28876e-18
1.35796e-18
-1.37173e-18
1.6133e-18
-1.4027e-18
1.86277e-18
-1.39168e-18
2.10054e-18
-1.34532e-18
2.32162e-18
-1.26856e-18
2.52174e-18
-1.16599e-18
2.69714e-18
-1.04206e-18
2.84508e-18
-9.0134e-19
2.96406e-18
-7.48422e-19
3.05341e-18
-5.87836e-19
3.11354e-18
-4.23928e-19
3.14538e-18
-2.60459e-19
3.14971e-18
-1.00288e-19
3.12777e-18
5.43258e-20
3.08188e-18
2.01261e-19
3.01515e-18
3.38484e-19
2.93055e-18
4.64443e-19
2.83032e-18
5.78472e-19
2.71589e-18
6.80861e-19
2.58822e-18
7.72498e-19
2.4485e-18
8.54299e-19
2.29872e-18
9.26814e-19
2.14133e-18
9.90234e-19
1.97842e-18
1.04472e-18
1.81116e-18
1.09074e-18
1.63995e-18
1.12914e-18
1.465e-18
1.161e-18
1.28678e-18
1.18735e-18
1.10604e-18
1.209e-18
9.23577e-19
1.22655e-18
7.40029e-19
1.24043e-18
5.55745e-19
1.25101e-18
3.70906e-19
1.25862e-18
1.85704e-19
1.26353e-18
1.26597e-18
-2.48207e-10
1.27418e-09
-5.1386e-10
1.31723e-09
-6.79189e-10
1.11333e-09
-7.52084e-10
9.00512e-10
-9.19444e-10
8.55742e-10
-9.80095e-10
5.43353e-10
-1.08736e-09
5.15162e-10
-1.20758e-09
2.7146e-10
-1.30691e-09
1.78415e-10
-1.29753e-09
-1.21013e-10
-1.38904e-09
-1.87603e-10
-1.43286e-09
-1.77236e-10
-1.43813e-09
-2.88802e-10
-1.46684e-09
-2.88611e-10
-1.51397e-09
-2.53839e-10
-1.55758e-09
-2.23892e-10
-1.64483e-09
-1.13697e-10
-1.70071e-09
-6.37156e-11
-1.70581e-09
3.66148e-11
-1.75524e-09
1.41673e-10
-1.76058e-09
1.78361e-10
-1.68501e-09
2.78444e-10
-1.63728e-09
3.58639e-10
-1.57857e-09
4.11193e-10
-1.50943e-09
5.51001e-10
-1.41445e-09
5.59931e-10
-1.36273e-09
4.66489e-10
-1.29529e-09
4.37978e-10
-1.24702e-09
4.93042e-10
-1.21593e-09
5.03025e-10
-1.22944e-09
5.93546e-10
-1.28986e-09
8.13248e-10
-1.3411e-09
9.20893e-10
-1.38265e-09
9.7607e-10
-1.42703e-09
9.79874e-10
-1.49254e-09
9.39497e-10
-1.52407e-09
8.09089e-10
-1.54135e-09
7.01156e-10
-1.57538e-09
5.9031e-10
-1.67344e-09
4.6088e-10
-1.66122e-09
2.56354e-10
-1.64863e-09
1.58204e-10
-1.69653e-09
1.16067e-10
-1.7069e-09
5.15802e-11
-1.70397e-09
-4.67813e-11
-1.65033e-09
-1.98435e-10
-1.62682e-09
-2.84106e-10
-1.53097e-09
-3.77406e-10
-1.41323e-09
-4.78604e-10
-1.30442e-09
-3.86057e-10
-1.24176e-09
-4.03899e-10
-1.13134e-09
-5.51307e-10
-1.04902e-09
-4.54889e-10
-9.6462e-10
-5.05274e-10
-9.16452e-10
-4.61835e-10
-8.65701e-10
-4.30549e-10
-8.32637e-10
-4.39582e-10
-8.2446e-10
-5.2669e-10
-8.16545e-10
-6.08997e-10
-7.75208e-10
-6.87957e-10
-7.35866e-10
-8.11356e-10
-7.17336e-10
-8.26668e-10
-6.22203e-10
-1.00434e-09
-5.50058e-10
-1.04289e-09
-4.55869e-10
-1.15748e-09
-3.86772e-10
-1.21238e-09
-3.23014e-10
-1.41735e-09
-2.30871e-10
-1.61129e-09
-1.1207e-10
-1.76502e-09
1.31566e-11
-1.81917e-09
1.19044e-10
-1.83154e-09
1.97355e-10
-1.66558e-09
3.73993e-10
-1.17956e-09
6.05046e-10
-7.82514e-10
5.02373e-10
5.65863e-10
5.30778e-10
7.04258e-10
4.6379e-10
1.07257e-09
3.82061e-10
1.2592e-09
2.99305e-10
1.42837e-09
-5.85096e-16
1.90479e-09
-2.98672e-19
5.48434e-19
5.26755e-21
-8.67145e-19
3.64601e-19
-1.25403e-18
7.01865e-19
-1.47456e-18
1.02037e-18
-1.60757e-18
1.32725e-18
-1.6792e-18
1.62432e-18
-1.70023e-18
1.90913e-18
-1.67699e-18
2.1773e-18
-1.61439e-18
2.42419e-18
-1.51684e-18
2.64567e-18
-1.38923e-18
2.83786e-18
-1.23669e-18
2.998e-18
-1.06475e-18
3.12464e-18
-8.79038e-19
3.21732e-18
-6.85035e-19
3.27701e-18
-4.88078e-19
3.30555e-18
-2.92865e-19
3.30432e-18
-1.02872e-19
3.2747e-18
7.94985e-20
3.2191e-18
2.52202e-19
3.14111e-18
4.13139e-19
3.04458e-18
5.60388e-19
2.93271e-18
6.9278e-19
2.80753e-18
8.10302e-19
2.67002e-18
9.13965e-19
2.52101e-18
1.00522e-18
2.36214e-18
1.08534e-18
2.19582e-18
1.15512e-18
2.02444e-18
1.21507e-18
1.84956e-18
1.26574e-18
1.67181e-18
1.30795e-18
1.49135e-18
1.34275e-18
1.30843e-18
1.37125e-18
1.12359e-18
1.39443e-18
9.37463e-19
1.41307e-18
7.5061e-19
1.42774e-18
5.63346e-19
1.43888e-18
3.75819e-19
1.44688e-18
1.88145e-19
1.45203e-18
1.45458e-18
-1.28985e-10
1.40316e-09
-2.20307e-10
1.40855e-09
-5.1099e-10
1.40402e-09
-7.1614e-10
1.10566e-09
-7.71111e-10
9.10712e-10
-9.41815e-10
7.14056e-10
-1.0538e-09
6.27143e-10
-1.17875e-09
3.9641e-10
-1.28899e-09
2.88663e-10
-1.36173e-09
-4.82804e-11
-1.4396e-09
-1.09729e-10
-1.50153e-09
-1.15311e-10
-1.51319e-09
-2.77139e-10
-1.54569e-09
-2.5611e-10
-1.57769e-09
-2.21841e-10
-1.61694e-09
-1.84645e-10
-1.68571e-09
-4.49299e-11
-1.73248e-09
-1.6939e-11
-1.73346e-09
3.75882e-11
-1.73644e-09
1.44649e-10
-1.75829e-09
2.00214e-10
-1.71576e-09
2.35909e-10
-1.66715e-09
3.10028e-10
-1.62373e-09
3.6777e-10
-1.48451e-09
4.11775e-10
-1.35474e-09
4.30159e-10
-1.30978e-09
4.21537e-10
-1.28034e-09
4.08536e-10
-1.23187e-09
4.44573e-10
-1.19731e-09
4.68465e-10
-1.1929e-09
5.89137e-10
-1.20994e-09
8.30281e-10
-1.21611e-09
9.27067e-10
-1.21669e-09
9.76652e-10
-1.23623e-09
9.99411e-10
-1.26762e-09
9.70892e-10
-1.33021e-09
8.71675e-10
-1.35323e-09
7.24176e-10
-1.36775e-09
6.0483e-10
-1.43164e-09
5.24769e-10
-1.49168e-09
3.16393e-10
-1.44038e-09
1.06905e-10
-1.45489e-09
1.30582e-10
-1.4588e-09
5.5484e-11
-1.42055e-09
-8.50253e-11
-1.37498e-09
-2.44009e-10
-1.32603e-09
-3.33061e-10
-1.21239e-09
-4.9104e-10
-1.16041e-09
-5.30594e-10
-1.0191e-09
-5.27359e-10
-8.81451e-10
-5.41553e-10
-8.12333e-10
-6.20425e-10
-7.40827e-10
-5.26395e-10
-6.82959e-10
-5.63141e-10
-6.3359e-10
-5.11203e-10
-5.91416e-10
-4.72722e-10
-5.66787e-10
-4.64211e-10
-5.71077e-10
-5.224e-10
-5.84235e-10
-5.95838e-10
-6.07101e-10
-6.65091e-10
-6.00123e-10
-8.18334e-10
-4.81712e-10
-9.45077e-10
-4.3659e-10
-1.04946e-09
-3.71203e-10
-1.10828e-09
-3.05939e-10
-1.22275e-09
-2.46321e-10
-1.27199e-09
-2.19915e-10
-1.44376e-09
-1.77802e-10
-1.6534e-09
-1.05119e-10
-1.8377e-09
-1.64061e-11
-1.90789e-09
5.83737e-11
-1.90632e-09
1.71923e-10
-1.77913e-09
3.19041e-10
-1.32667e-09
2.68406e-10
-7.31879e-10
3.05881e-10
5.28389e-10
3.47931e-10
6.62209e-10
3.99397e-10
1.02111e-09
4.31214e-10
1.22738e-09
3.02471e-10
1.55711e-09
-2.06035e-16
2.20726e-09
-1.13212e-18
-5.4969e-19
-3.80995e-19
-1.61822e-18
1.44648e-19
-1.77899e-18
5.69395e-19
-1.8987e-18
9.49265e-19
-1.98733e-18
1.30644e-18
-2.03653e-18
1.64756e-18
-2.0413e-18
1.97174e-18
-2.00095e-18
2.27484e-18
-1.91736e-18
2.5518e-18
-1.79403e-18
2.7982e-18
-1.63598e-18
3.0098e-18
-1.4492e-18
3.18372e-18
-1.24035e-18
3.31865e-18
-1.01634e-18
3.41428e-18
-7.83813e-19
3.47223e-18
-5.49261e-19
3.49554e-18
-3.18574e-19
3.48669e-18
-9.61314e-20
3.4474e-18
1.15426e-19
3.38004e-18
3.14368e-19
3.28836e-18
4.99016e-19
3.17697e-18
6.67561e-19
3.05023e-18
8.18571e-19
2.91119e-18
9.51649e-19
2.76127e-18
1.06765e-18
2.60113e-18
1.16827e-18
2.43192e-18
1.25539e-18
2.25577e-18
1.33051e-18
2.07511e-18
1.3947e-18
1.89177e-18
1.44881e-18
1.70661e-18
1.49375e-18
1.51985e-18
1.53059e-18
1.33162e-18
1.56051e-18
1.14222e-18
1.58459e-18
9.5213e-19
1.60374e-18
7.61754e-19
1.61868e-18
5.7134e-19
1.62996e-18
3.80977e-19
1.63801e-18
1.90686e-19
1.64319e-18
1.64572e-18
-1.06286e-10
1.50945e-09
-1.32626e-10
1.43489e-09
-1.31688e-10
1.40308e-09
-3.35848e-10
1.30982e-09
-5.77161e-10
1.15202e-09
-7.59037e-10
8.95931e-10
-8.68464e-10
7.36569e-10
-1.05104e-09
5.78989e-10
-1.20246e-09
4.40084e-10
-1.30495e-09
5.42012e-11
-1.44399e-09
2.93161e-11
-1.45839e-09
-1.00911e-10
-1.52786e-09
-2.07677e-10
-1.59562e-09
-1.88344e-10
-1.61231e-09
-2.05154e-10
-1.65132e-09
-1.45641e-10
-1.66473e-09
-3.15166e-11
-1.68491e-09
3.23399e-12
-1.7074e-09
6.00795e-11
-1.6813e-09
1.1855e-10
-1.68833e-09
2.07238e-10
-1.6858e-09
2.33373e-10
-1.65002e-09
2.7425e-10
-1.58892e-09
3.06665e-10
-1.48783e-09
3.10683e-10
-1.37953e-09
3.21862e-10
-1.31485e-09
3.56856e-10
-1.2754e-09
3.69082e-10
-1.2417e-09
4.10868e-10
-1.20831e-09
4.35078e-10
-1.19219e-09
5.73017e-10
-1.1541e-09
7.9219e-10
-1.126e-09
8.98967e-10
-1.08284e-09
9.33493e-10
-1.08216e-09
9.98737e-10
-1.10084e-09
9.89564e-10
-1.11095e-09
8.81788e-10
-1.16385e-09
7.77074e-10
-1.16842e-09
6.09401e-10
-1.18852e-09
5.44869e-10
-1.2607e-09
3.88573e-10
-1.23472e-09
8.09264e-11
-1.16448e-09
6.03392e-11
-1.13617e-09
2.718e-11
-1.0573e-09
-1.63901e-10
-1.02991e-09
-2.71396e-10
-9.52132e-10
-4.10844e-10
-9.20672e-10
-5.22501e-10
-8.02878e-10
-6.48388e-10
-6.6446e-10
-6.65777e-10
-5.46513e-10
-6.595e-10
-4.91114e-10
-6.75823e-10
-3.74845e-10
-6.42663e-10
-3.29353e-10
-6.08633e-10
-3.00127e-10
-5.40428e-10
-3.02125e-10
-4.70723e-10
-2.81068e-10
-4.85266e-10
-3.03298e-10
-5.00169e-10
-3.51148e-10
-5.47987e-10
-3.8891e-10
-6.27327e-10
-3.93918e-10
-8.13325e-10
-3.89358e-10
-9.49636e-10
-3.38677e-10
-1.10014e-09
-2.43118e-10
-1.20384e-09
-2.18683e-10
-1.24718e-09
-1.75312e-10
-1.31537e-09
-1.59652e-10
-1.45942e-09
-1.23908e-10
-1.68915e-09
-8.92837e-11
-1.87232e-09
-3.83191e-11
-1.95885e-09
-5.42441e-12
-1.93922e-09
2.15383e-11
-1.80609e-09
7.89939e-11
-1.38413e-09
4.47915e-12
-6.57363e-10
1.36423e-10
3.96445e-10
2.13814e-10
5.84819e-10
2.90031e-10
9.4489e-10
3.10051e-10
1.20736e-09
3.31759e-10
1.53541e-09
1.59379e-16
2.53902e-09
-1.5314e-18
-3.287e-18
-5.41208e-19
-2.60828e-18
2.54623e-20
-2.34509e-18
4.81275e-19
-2.35337e-18
9.00553e-19
-2.40555e-18
1.30183e-18
-2.43694e-18
1.68791e-18
-2.42634e-18
2.05533e-18
-2.36716e-18
2.39817e-18
-2.25888e-18
2.70985e-18
-2.10458e-18
2.98498e-18
-1.90979e-18
3.21865e-18
-1.68176e-18
3.40773e-18
-1.4288e-18
3.55118e-18
-1.15954e-18
3.64883e-18
-8.82029e-19
3.70291e-18
-6.04086e-19
3.71798e-18
-3.33023e-19
3.69825e-18
-7.44757e-20
3.64635e-18
1.68355e-19
3.56468e-18
3.94045e-19
3.4569e-18
6.01741e-19
3.32798e-18
7.90402e-19
3.18331e-18
9.58933e-19