/*--------------------------------*- C++ -*----------------------------------*\
  =========                 |
  \\      /  F ield         | OpenFOAM: The Open Source CFD Toolbox
   \\    /   O peration     | Website:  https://openfoam.org
    \\  /    A nd           | Version:  6
     \\/     M anipulation  |
\*---------------------------------------------------------------------------*/
FoamFile
{
    version     2.0;
    format      ascii;
    class       volScalarField;
    location    "600";
    object      Su;
}
// * * * * * * * * * * * * * * * * * * * * * * * * * * * * * * * * * * * * * //

dimensions      [0 0 -1 0 0 0 0];

internalField   nonuniform List<scalar> 
4800
(
0.218867
0.215428
0.212014
0.208648
0.205353
0.202161
0.199091
0.196152
0.193345
0.190664
0.1881
0.18564
0.183265
0.180958
0.178705
0.176488
0.174292
0.172107
0.169926
0.167737
0.165531
0.163302
0.161049
0.15877
0.156463
0.154126
0.151761
0.149372
0.146969
0.144561
0.142153
0.139757
0.137376
0.135012
0.132666
0.130343
0.128057
0.125822
0.123643
0.121517
0.119435
0.117388
0.115368
0.113366
0.111374
0.109382
0.107384
0.105371
0.103337
0.101276
0.0991863
0.097067
0.0949184
0.0927415
0.0905401
0.0883189
0.0860833
0.0838398
0.0815928
0.0793383
0.0770692
0.0747979
0.0725185
0.0702222
0.0679101
0.0655769
0.0632136
0.0608074
0.0583482
0.0558206
0.0531971
0.0504457
0.0475343
0.0444409
0.0411709
0.0377622
0.0342635
0.0307232
0.0271826
0.0236487
0.0200901
0.0165195
0.0129516
0.00939708
0.00586134
0.00234703
-0.00114471
-0.00461345
-0.00805946
-0.0114834
-0.0148862
-0.0182688
-0.0216324
-0.0249782
-0.0283074
-0.031621
-0.0349202
-0.0382061
-0.0414797
-0.044742
-0.047994
-0.0512364
-0.0544702
-0.0576962
-0.0609149
-0.0641272
-0.0673336
-0.0705348
-0.0737313
-0.0769236
-0.0801122
-0.0832976
-0.0864801
-0.0896602
-0.0928383
-0.0960146
-0.0991895
-0.102363
-0.105537
-0.108709
0.218855
0.215391
0.211959
0.208587
0.205301
0.20212
0.199062
0.196133
0.193333
0.190655
0.18809
0.185625
0.183245
0.180935
0.178678
0.17646
0.174265
0.172081
0.169898
0.167709
0.165508
0.163289
0.161045
0.15877
0.156468
0.15414
0.151788
0.149415
0.14703
0.144641
0.142257
0.139882
0.137515
0.135162
0.132829
0.130529
0.128274
0.126069
0.123913
0.121804
0.119736
0.117701
0.11569
0.113696
0.11171
0.109722
0.107727
0.105714
0.103679
0.101617
0.0995248
0.0974026
0.0952504
0.0930694
0.0908628
0.0886348
0.086391
0.0841381
0.0818803
0.0796106
0.0773276
0.0750429
0.0727403
0.0704236
0.0680895
0.0657343
0.0633493
0.0609236
0.0584447
0.0558959
0.0532568
0.0505027
0.0476083
0.044554
0.0413412
0.0379839
0.0345058
0.0309435
0.027336
0.0237234
0.0201128
0.0165176
0.0129372
0.00937605
0.00583683
0.00232085
-0.00117142
-0.00463996
-0.00808527
-0.0115082
-0.0149097
-0.018291
-0.0216531
-0.0249975
-0.0283251
-0.0316373
-0.0349352
-0.0382198
-0.0414922
-0.0447533
-0.0480042
-0.0512457
-0.0544786
-0.0577037
-0.0609217
-0.0641333
-0.0673391
-0.0705397
-0.0737356
-0.0769274
-0.0801156
-0.0833005
-0.0864826
-0.0896623
-0.09284
-0.096016
-0.0991906
-0.102364
-0.105537
-0.108709
0.218842
0.215355
0.211907
0.208531
0.205252
0.202086
0.199042
0.196124
0.19333
0.190655
0.188091
0.185624
0.183241
0.180927
0.178667
0.176445
0.17425
0.172068
0.169888
0.167706
0.165512
0.163303
0.161071
0.158813
0.156529
0.154221
0.151896
0.149558
0.147214
0.144865
0.142518
0.140175
0.137836
0.13551
0.133209
0.130947
0.128729
0.126561
0.12444
0.122365
0.120327
0.118318
0.11633
0.114355
0.112384
0.110407
0.108418
0.10641
0.104376
0.102313
0.10022
0.0980921
0.0959312
0.0937398
0.0915228
0.0892824
0.0870245
0.0847554
0.0824765
0.0801789
0.0778726
0.0755583
0.0732164
0.0708619
0.0684857
0.0660859
0.0636525
0.0611777
0.0586526
0.0560615
0.0533887
0.0506175
0.0477241
0.0446886
0.0415066
0.0381781
0.0347143
0.0311423
0.0274917
0.0238057
0.020132
0.0165027
0.0129033
0.00933156
0.00578657
0.00226785
-0.00122519
-0.00469315
-0.00813696
-0.0115577
-0.0149567
-0.0183352
-0.0216945
-0.0250358
-0.0283606
-0.0316699
-0.034965
-0.0382471
-0.041517
-0.0447759
-0.0480247
-0.0512643
-0.0544954
-0.0577188
-0.0609352
-0.0641454
-0.0673499
-0.0705493
-0.0737442
-0.076935
-0.0801222
-0.0833063
-0.0864876
-0.0896665
-0.0928435
-0.0960188
-0.0991927
-0.102366
-0.105538
-0.10871
0.218837
0.21534
0.211885
0.208509
0.205238
0.202084
0.19905
0.196139
0.193353
0.190684
0.188123
0.185656
0.183272
0.180955
0.178692
0.17647
0.174278
0.172103
0.169932
0.16776
0.165579
0.163383
0.161169
0.158936
0.156682
0.154411
0.152129
0.149841
0.147549
0.145253
0.142953
0.140651
0.138351
0.136064
0.133806
0.131589
0.129418
0.127298
0.125223
0.123193
0.121196
0.119224
0.11727
0.115324
0.113379
0.111424
0.109453
0.107459
0.105434
0.103374
0.101279
0.0991459
0.0969746
0.09477
0.0925361
0.0902768
0.0879985
0.0857068
0.0833984
0.0810639
0.0787171
0.0763544
0.073961
0.07155
0.0691133
0.0666466
0.0641421
0.0615983
0.0590063
0.0563509
0.0536202
0.0508017
0.0478751
0.0448198
0.0416265
0.0382963
0.0348342
0.0312517
0.0275733
0.0238416
0.0201211
0.0164617
0.0128434
0.0092602
0.00570878
0.00218708
-0.00130648
-0.00477322
-0.00821458
-0.011632
-0.0150271
-0.0184014
-0.0217562
-0.0250932
-0.0284135
-0.0317186
-0.0350097
-0.0382878
-0.0415542
-0.0448097
-0.0480553
-0.0512919
-0.0545203
-0.0577412
-0.0609554
-0.0641635
-0.0673661
-0.0705637
-0.0737569
-0.0769462
-0.0801321
-0.0833148
-0.0864949
-0.0896728
-0.0928487
-0.0960229
-0.0991959
-0.102368
-0.105539
-0.10871
0.218834
0.215338
0.211892
0.208527
0.205266
0.202122
0.1991
0.1962
0.193425
0.190766
0.188211
0.18575
0.183368
0.181052
0.178791
0.176573
0.174384
0.172215
0.170057
0.167899
0.165734
0.163558
0.161371
0.159171
0.156959
0.154739
0.152514
0.150285
0.148053
0.145814
0.143568
0.141314
0.139061
0.136824
0.134618
0.132455
0.13034
0.128275
0.126256
0.124279
0.122332
0.120407
0.118497
0.116591
0.114681
0.112759
0.110819
0.108849
0.106841
0.104792
0.102701
0.100566
0.0983852
0.0961675
0.0939141
0.0916302
0.0893211
0.0869935
0.0846418
0.0822591
0.0798582
0.0774315
0.0749709
0.0724877
0.0699726
0.0674219
0.0648312
0.0621985
0.0595137
0.0567676
0.0539524
0.0510542
0.0480568
0.0449447
0.0417074
0.0383459
0.0348625
0.0312624
0.0275672
0.0238139
0.0200671
0.0163863
0.0127525
0.00915913
0.00560185
0.0020777
-0.00141572
-0.00488032
-0.0083181
-0.011731
-0.0151207
-0.0184893
-0.0218382
-0.0251692
-0.0284837
-0.0317831
-0.0350687
-0.0383418
-0.0416033
-0.0448543
-0.0480957
-0.0513285
-0.0545533
-0.0577709
-0.0609821
-0.0641874
-0.0673874
-0.0705827
-0.0737738
-0.0769611
-0.0801451
-0.0833261
-0.0865047
-0.089681
-0.0928555
-0.0960284
-0.0992002
-0.102371
-0.105541
-0.108711
0.218849
0.215376
0.211944
0.20859
0.205342
0.202212
0.199204
0.196321
0.19356
0.190912
0.188369
0.185917
0.183543
0.181234
0.17898
0.176768
0.174587
0.172428
0.170281
0.16814
0.166
0.163854
0.161705
0.159551
0.157393
0.155232
0.153071
0.150908
0.148737
0.146557
0.144366
0.142165
0.139966
0.137785
0.135639
0.133537
0.131484
0.129481
0.127525
0.125609
0.123719
0.121849
0.11999
0.118132
0.116269
0.114392
0.112494
0.110558
0.108578
0.106547
0.104466
0.102333
0.100145
0.097912
0.0956325
0.0933127
0.0909605
0.0885836
0.0861747
0.0837314
0.081262
0.0787603
0.0762259
0.0736595
0.0710517
0.0684015
0.0657081
0.062967
0.0601696
0.0573085
0.0543764
0.0513615
0.0482567
0.0450625
0.041763
0.038346
0.0348215
0.0311977
0.0274901
0.0237284
0.0199694
0.0162744
0.0126287
0.00902693
0.00546489
0.00193919
-0.00155308
-0.00501442
-0.00844732
-0.0118541
-0.0152371
-0.0185984
-0.0219399
-0.0252634
-0.0285706
-0.031863
-0.0351419
-0.0384085
-0.041664
-0.0449095
-0.0481457
-0.0513736
-0.054594
-0.0578076
-0.0610151
-0.0642169
-0.0674138
-0.0706062
-0.0737946
-0.0769795
-0.0801612
-0.0833401
-0.0865167
-0.0896912
-0.0928639
-0.0960352
-0.0992054
-0.102375
-0.105543
-0.108711
0.218843
0.215377
0.211984
0.208676
0.205462
0.202359
0.199374
0.196511
0.193767
0.191137
0.188611
0.186173
0.183812
0.181518
0.179277
0.177076
0.174908
0.172763
0.170635
0.168518
0.16641
0.164306
0.162205
0.160105
0.158004
0.155906
0.15381
0.151709
0.149599
0.147477
0.145342
0.143197
0.141058
0.13894
0.136858
0.134823
0.132837
0.130901
0.129011
0.127159
0.125333
0.123524
0.121725
0.119924
0.118118
0.116296
0.114448
0.112556
0.110612
0.108605
0.106541
0.104414
0.102218
0.099964
0.0976502
0.0952843
0.0928779
0.090438
0.087961
0.0854469
0.0829016
0.0803197
0.0777003
0.0750387
0.0723312
0.0695741
0.0667668
0.0639021
0.0609747
0.0579774
0.0549043
0.0517526
0.0485219
0.0452181
0.0418256
0.0383332
0.0347542
0.0310966
0.0273716
0.023603
0.0198348
0.0161282
0.0124724
0.00886345
0.00529768
0.00177149
-0.00171848
-0.00517524
-0.00860184
-0.0120011
-0.0153758
-0.0187282
-0.0220607
-0.0253753
-0.0286738
-0.0319577
-0.0352285
-0.0384876
-0.041736
-0.0449748
-0.0482049
-0.0514271
-0.0546423
-0.0578511
-0.061054
-0.0642518
-0.067445
-0.0706339
-0.0738192
-0.0770011
-0.0801802
-0.0833566
-0.0865309
-0.0897032
-0.0928739
-0.0960432
-0.0992115
-0.102379
-0.105546
-0.108712
0.218872
0.215456
0.212099
0.208824
0.205644
0.202573
0.199616
0.196777
0.194055
0.191447
0.18894
0.186521
0.184182
0.181908
0.179686
0.177506
0.175358
0.173236
0.171136
0.169052
0.166982
0.164923
0.162874
0.160829
0.158789
0.156754
0.15472
0.152679
0.150627
0.148563
0.146486
0.1444
0.142324
0.140274
0.138262
0.136295
0.13438
0.132514
0.130693
0.12891
0.127155
0.125417
0.123683
0.121948
0.120206
0.118448
0.116655
0.114815
0.112915
0.110939
0.108894
0.106774
0.104566
0.102284
0.0999271
0.0975067
0.0950367
0.0925251
0.0899717
0.0873795
0.0847523
0.0820831
0.0793735
0.0766131
0.0737992
0.0709262
0.0679935
0.0649935
0.061921
0.0587706
0.0555406
0.0522321
0.0488534
0.0454143
0.0419036
0.0383254
0.0346861
0.0309873
0.0272385
0.0234552
0.0196715
0.0159513
0.0122849
0.00866918
0.00510042
0.00157479
-0.00191157
-0.00536229
-0.00878102
-0.0121712
-0.0155358
-0.0188779
-0.0221999
-0.025504
-0.0287923
-0.0320665
-0.0353281
-0.0385784
-0.0418186
-0.0450498
-0.0482728
-0.0514885
-0.0546976
-0.0579008
-0.0610987
-0.0642919
-0.0674807
-0.0706657
-0.0738474
-0.077026
-0.0802019
-0.0833755
-0.0865471
-0.0897169
-0.0928853
-0.0960524
-0.0992185
-0.102384
-0.105549
-0.108713
0.218909
0.215561
0.212258
0.209024
0.205883
0.202848
0.199923
0.197115
0.194421
0.191838
0.189355
0.186961
0.184648
0.1824
0.180205
0.178053
0.175935
0.173847
0.171783
0.16974
0.167713
0.165701
0.163701
0.161711
0.15973
0.157755
0.15578
0.153796
0.151801
0.149797
0.14778
0.145758
0.143751
0.141773
0.139833
0.137939
0.136096
0.134303
0.132555
0.130844
0.129165
0.127503
0.125842
0.12418
0.122511
0.120822
0.119094
0.117313
0.11546
0.113521
0.111498
0.109382
0.107159
0.104844
0.102438
0.0999557
0.0974139
0.094823
0.0921864
0.0895087
0.0867948
0.0840383
0.0812347
0.0783704
0.0754434
0.0724464
0.0693793
0.0662348
0.0630073
0.0596929
0.0562933
0.0528153
0.049271
0.0456704
0.0420228
0.0383445
0.0346318
0.0308835
0.0270996
0.0232898
0.0194832
0.0157456
0.012067
0.00844416
0.00487305
0.00134921
-0.00213198
-0.00557493
-0.00898401
-0.0123632
-0.0157163
-0.0190463
-0.0223562
-0.0256485
-0.0289253
-0.0321885
-0.0354396
-0.0386801
-0.0419112
-0.0451338
-0.0483489
-0.0515572
-0.0547596
-0.0579566
-0.0611488
-0.0643367
-0.0675207
-0.0707013
-0.0738789
-0.0770538
-0.0802262
-0.0833966
-0.0865652
-0.0897323
-0.092898
-0.0960626
-0.0992264
-0.102389
-0.105552
-0.108714
0.218943
0.215664
0.212428
0.209254
0.20616
0.203166
0.200282
0.197512
0.194851
0.1923
0.189846
0.187483
0.1852
0.182982
0.180819
0.178702
0.176622
0.174574
0.172553
0.170554
0.168574
0.166611
0.164663
0.162727
0.160801
0.158882
0.156961
0.155035
0.153099
0.151155
0.149203
0.14725
0.145316
0.143413
0.141548
0.139729
0.137962
0.136244
0.134572
0.132938
0.131336
0.129756
0.128174
0.12659
0.125
0.123384
0.121726
0.120008
0.118211
0.116317
0.114318
0.112205
0.109967
0.107616
0.105155
0.102604
0.0999829
0.0973054
0.0945792
0.0918122
0.0890103
0.0861621
0.0832587
0.0802888
0.077244
0.074118
0.0709112
0.0676178
0.0642303
0.0607447
0.0571653
0.0535035
0.0497766
0.046004
0.0422101
0.0384128
0.0346027
0.0307792
0.0269455
0.0231038
0.0192686
0.0155096
0.0118169
0.00818673
0.0046144
0.00109424
-0.00237958
-0.00581254
-0.00920984
-0.0125762
-0.0159157
-0.0192321
-0.0225285
-0.0258075
-0.0290716
-0.0323226
-0.0355623
-0.0387919
-0.0420128
-0.045226
-0.0484324
-0.0516327
-0.0548277
-0.0580178
-0.0612037
-0.0643858
-0.0675646
-0.0707404
-0.0739135
-0.0770842
-0.0802529
-0.0834198
-0.0865851
-0.0897491
-0.0929119
-0.0960738
-0.099235
-0.102396
-0.105556
-0.108716
0.218973
0.215751
0.21257
0.209456
0.206424
0.203487
0.200656
0.197936
0.195321
0.192809
0.19039
0.188064
0.185815
0.183631
0.181506
0.179428
0.17739
0.175387
0.173412
0.171461
0.169531
0.16762
0.165725
0.163843
0.161971
0.160104
0.158238
0.156369
0.154494
0.152616
0.150732
0.148853
0.146996
0.14517
0.143382
0.141641
0.139951
0.138312
0.136719
0.135165
0.133643
0.132144
0.130645
0.129144
0.127633
0.126092
0.124509
0.12286
0.121127
0.119285
0.117317
0.115211
0.112958
0.110567
0.108047
0.10542
0.102713
0.0999427
0.0971225
0.094264
0.0913741
0.0884348
0.0854325
0.0823538
0.0791891
0.0759328
0.0725828
0.0691363
0.0655849
0.0619244
0.0581602
0.0543094
0.0503958
0.0464465
0.0424925
0.0385493
0.0346096
0.0306792
0.0267698
0.0228869
0.0190219
0.0152374
0.0115285
0.00789195
0.0043211
0.000808062
-0.0026549
-0.00607468
-0.00945747
-0.0128086
-0.0161327
-0.0194338
-0.0227151
-0.0259796
-0.0292298
-0.0324676
-0.0356948
-0.0389127
-0.0421227
-0.0453258
-0.0485227
-0.0517143
-0.0549012
-0.058084
-0.0612631
-0.064439
-0.067612
-0.0707825
-0.0739508
-0.0771171
-0.0802817
-0.0834448
-0.0866065
-0.0897672
-0.092927
-0.0960859
-0.0992442
-0.102402
-0.10556
-0.108717
0.219003
0.215839
0.212716
0.209664
0.206695
0.203819
0.201043
0.198371
0.195803
0.193336
0.19096
0.188674
0.186462
0.184317
0.182233
0.180196
0.178202
0.176246
0.17432
0.17242
0.170543
0.168686
0.166846
0.165019
0.163201
0.161388
0.159578
0.157769
0.155959
0.154148
0.152339
0.150539
0.148762
0.147017
0.145307
0.143646
0.142036
0.140477
0.138962
0.137492
0.136051
0.134634
0.13322
0.131803
0.130372
0.12891
0.127406
0.125836
0.124178
0.122403
0.12048
0.118385
0.116114
0.113676
0.111089
0.108374
0.105571
0.102702
0.0997862
0.0968392
0.0938618
0.0908282
0.0877238
0.0845362
0.0812529
0.077867
0.0743779
0.070779
0.0670613
0.0632225
0.0592711
0.055229
0.0511267
0.046998
0.0428737
0.038767
0.0346738
0.0306083
0.0265971
0.0226487
0.0187351
0.0149151
0.0111884
0.00754914
0.003986
0.000486699
-0.00295952
-0.00636135
-0.00972591
-0.013059
-0.0163654
-0.0196494
-0.0229143
-0.0261631
-0.0293983
-0.032622
-0.0358358
-0.0390414
-0.0422397
-0.045432
-0.0486189
-0.0518012
-0.0549796
-0.0581545
-0.0613263
-0.0644956
-0.0676625
-0.0708274
-0.0739905
-0.0771521
-0.0803123
-0.0834713
-0.0866293
-0.0897865
-0.0929429
-0.0960987
-0.0992541
-0.102409
-0.105564
-0.108718
0.219037
0.215941
0.212885
0.209894
0.206982
0.204161
0.201435
0.198811
0.196289
0.193866
0.191535
0.189289
0.187116
0.185011
0.182965
0.180969
0.17902
0.177111
0.175234
0.173387
0.171565
0.169764
0.16798
0.166209
0.164448
0.162694
0.160945
0.159199
0.157457
0.155719
0.153988
0.15227
0.150578
0.148915
0.14729
0.145712
0.144185
0.142707
0.141272
0.139886
0.138529
0.137194
0.135866
0.134535
0.133185
0.131809
0.13039
0.128912
0.127342
0.12564
0.123753
0.121657
0.119355
0.116866
0.114215
0.111419
0.108523
0.105558
0.102547
0.0995096
0.0964402
0.0933125
0.0901092
0.0868134
0.0834099
0.0798922
0.0762605
0.0725089
0.0686308
0.064617
0.0604776
0.0562428
0.0519516
0.0476433
0.0433423
0.0390617
0.0348029
0.0305858
0.0264422
0.0223827
0.0183815
0.0145118
0.0107697
0.00713867
0.00359662
0.000123331
-0.00329634
-0.006673
-0.0100142
-0.0133257
-0.0166119
-0.0198769
-0.023124
-0.026356
-0.0295753
-0.0327841
-0.0359841
-0.0391765
-0.0423627
-0.0455436
-0.04872
-0.0518926
-0.055062
-0.0582286
-0.0613928
-0.0645551
-0.0677156
-0.0708746
-0.0740322
-0.0771888
-0.0803444
-0.0834992
-0.0866533
-0.0898067
-0.0929597
-0.0961122
-0.0992644
-0.102416
-0.105568
-0.10872
0.219068
0.216038
0.213048
0.210118
0.207263
0.204494
0.201815
0.199235
0.196755
0.194374
0.192085
0.189879
0.187747
0.185681
0.183674
0.181718
0.17981
0.177944
0.176115
0.174319
0.17255
0.170805
0.169078
0.167366
0.165666
0.163976
0.162293
0.160618
0.15895
0.157291
0.155643
0.154012
0.152408
0.150834
0.149297
0.147808
0.146367
0.144972
0.143619
0.142314
0.141043
0.139794
0.138554
0.137313
0.136054
0.134774
0.133454
0.132078
0.130597
0.128951
0.127081
0.124969
0.122625
0.120073
0.117355
0.11448
0.1115
0.10845
0.105355
0.10223
0.0990692
0.0958507
0.0925491
0.0891452
0.0856243
0.0819792
0.0782076
0.0743043
0.0702629
0.0660743
0.0617505
0.0573262
0.0528493
0.048358
0.0438731
0.0394088
0.0349685
0.0305805
0.0262608
0.0220304
0.0178968
0.0139682
0.0102258
0.00662904
0.00313421
-0.000291717
-0.00366935
-0.00701035
-0.0103214
-0.0136068
-0.0168701
-0.0201142
-0.0233421
-0.0265563
-0.0297591
-0.0329524
-0.0361378
-0.0393168
-0.0424904
-0.0456595
-0.0488251
-0.0519876
-0.0551476
-0.0583057
-0.061462
-0.0646169
-0.0677707
-0.0709236
-0.0740756
-0.077227
-0.0803778
-0.0835281
-0.0866781
-0.0898277
-0.092977
-0.0961261
-0.099275
-0.102424
-0.105573
-0.108721
0.2191
0.216132
0.213202
0.210326
0.207519
0.204794
0.202159
0.19962
0.197181
0.194838
0.192585
0.190414
0.188318
0.18629
0.184321
0.182405
0.180538
0.178714
0.17693
0.175181
0.173463
0.171772
0.170102
0.168451
0.166815
0.165193
0.163583
0.161984
0.160396
0.158822
0.157264
0.155726
0.154216
0.152736
0.151294
0.149896
0.148545
0.147237
0.14597
0.14475
0.143568
0.142411
0.141269
0.140126
0.138969
0.137793
0.136575
0.135289
0.133883
0.132278
0.130409
0.128271
0.125874
0.123244
0.120448
0.117489
0.114424
0.111301
0.108138
0.10494
0.101698
0.0983947
0.0949992
0.091494
0.0878619
0.0840936
0.0801872
0.0761402
0.0719423
0.0675811
0.0630732
0.0584625
0.0537999
0.0491191
0.0444427
0.0397761
0.0351244
0.0305153
0.0259526
0.0214849
0.0171672
0.0131856
0.00948639
0.00597685
0.00257546
-0.00076917
-0.00408226
-0.00737358
-0.010646
-0.0139003
-0.0171375
-0.0203589
-0.0235664
-0.026762
-0.0299476
-0.033125
-0.0362956
-0.0394607
-0.0426214
-0.0457786
-0.048933
-0.0520852
-0.0552357
-0.0583849
-0.0615331
-0.0646805
-0.0678274
-0.070974
-0.0741202
-0.0772662
-0.0804121
-0.0835578
-0.0867035
-0.0898492
-0.0929948
-0.0961404
-0.099286
-0.102432
-0.105577
-0.108723
0.219128
0.216216
0.213336
0.210504
0.207737
0.205049
0.20245
0.199947
0.197541
0.195229
0.193008
0.190868
0.188804
0.18681
0.184877
0.183
0.181174
0.179395
0.177657
0.175957
0.174289
0.172651
0.171039
0.169449
0.16788
0.166329
0.164794
0.163276
0.161774
0.16029
0.158826
0.157386
0.155975
0.154595
0.153252
0.151952
0.150697
0.149482
0.148308
0.14718
0.146094
0.145038
0.144002
0.142966
0.141917
0.140839
0.139711
0.138498
0.137144
0.135554
0.133661
0.131475
0.129009
0.126299
0.123424
0.120389
0.117249
0.11406
0.110835
0.107573
0.104263
0.100887
0.0974129
0.0938171
0.090082
0.0861987
0.0821674
0.0779855
0.0736365
0.0691082
0.0644234
0.0596316
0.0547807
0.0499007
0.045013
0.0401131
0.0352018
0.0302889
0.0253875
0.0205882
0.0160113
0.0120178
0.0084594
0.0051343
0.00189965
-0.00131578
-0.0045356
-0.00776082
-0.0109854
-0.0142036
-0.0174117
-0.0206087
-0.0237947
-0.026971
-0.030139
-0.0333001
-0.0364556
-0.0396068
-0.0427545
-0.0458995
-0.0490426
-0.0521844
-0.0553252
-0.0584654
-0.0616054
-0.0647452
-0.0678851
-0.0710252
-0.0741655
-0.077306
-0.0804469
-0.083588
-0.0867294
-0.089871
-0.0930129
-0.0961549
-0.0992971
-0.102439
-0.105582
-0.108724
0.219149
0.216276
0.213433
0.210634
0.207898
0.205238
0.202665
0.200186
0.197805
0.19552
0.193326
0.191216
0.189182
0.187219
0.185321
0.183486
0.181705
0.179975
0.178288
0.17664
0.175028
0.173449
0.171898
0.170374
0.168874
0.167396
0.16594
0.164505
0.163092
0.1617
0.160334
0.158994
0.157684
0.156407
0.155168
0.153971
0.152815
0.1517
0.150625
0.149596
0.14861
0.147657
0.146726
0.14579
0.144833
0.143836
0.142776
0.14161
0.140273
0.138664
0.13673
0.134482
0.131944
0.129161
0.126212
0.123113
0.119919
0.116679
0.1134
0.110084
0.106716
0.103279
0.0997401
0.0960651
0.0922379
0.0882505
0.0841053
0.0797957
0.0753014
0.0706195
0.065776
0.0608079
0.0557554
0.0506576
0.045533
0.0403687
0.0351391
0.029816
0.0244299
0.0191241
0.0141372
0.010265
0.00705132
0.00407165
0.00110473
-0.0019251
-0.00502206
-0.00816614
-0.0113353
-0.0145131
-0.01769
-0.0208611
-0.0240249
-0.0271814
-0.0303315
-0.0334761
-0.0366165
-0.0397535
-0.0428882
-0.0460211
-0.0491529
-0.0522842
-0.0554153
-0.0585465
-0.0616782
-0.0648103
-0.0679432
-0.0710767
-0.074211
-0.0773461
-0.0804819
-0.0836183
-0.0867553
-0.0898929
-0.093031
-0.0961694
-0.0993082
-0.102447
-0.105586
-0.108726
0.219158
0.216303
0.213476
0.210692
0.20797
0.205327
0.202771
0.200309
0.197946
0.195682
0.193514
0.191433
0.189433
0.187506
0.185651
0.183863
0.182137
0.180464
0.178838
0.177254
0.175708
0.174196
0.172716
0.171266
0.169843
0.168445
0.167073
0.165724
0.1644
0.163101
0.161829
0.160586
0.159376
0.1582
0.157063
0.155967
0.154911
0.153895
0.152919
0.151987
0.151095
0.150232
0.149383
0.148523
0.147631
0.146688
0.145666
0.144515
0.143161
0.141507
0.139516
0.137198
0.134586
0.131745
0.12874
0.125604
0.122379
0.119103
0.115788
0.112432
0.109023
0.105537
0.101941
0.0981956
0.0942894
0.0902174
0.0859761
0.0815492
0.0769183
0.0720854
0.0670745
0.0619234
0.0566755
0.0513573
0.0459773
0.040515
0.0349052
0.0290621
0.0229846
0.0168192
0.0110103
0.00768903
0.00522898
0.00282541
0.000233656
-0.00256545
-0.00552185
-0.00857796
-0.0116888
-0.014825
-0.0179696
-0.0211142
-0.0242552
-0.0273915
-0.0305233
-0.0336514
-0.0367766
-0.0398996
-0.0430212
-0.0461421
-0.0492628
-0.0523836
-0.055505
-0.0586273
-0.0617507
-0.0648752
-0.068001
-0.071128
-0.0742564
-0.0773859
-0.0805166
-0.0836484
-0.0867811
-0.0899146
-0.0930489
-0.0961838
-0.0993192
-0.102455
-0.105591
-0.108727
0.219153
0.216286
0.213448
0.210655
0.207927
0.205282
0.20273
0.200276
0.197926
0.19568
0.193538
0.191493
0.189537
0.187664
0.185871
0.184153
0.182501
0.180907
0.179362
0.177862
0.176402
0.174976
0.173583
0.172221
0.170886
0.169578
0.168294
0.167034
0.165798
0.164587
0.163404
0.16225
0.161128
0.160042
0.158994
0.157986
0.157018
0.156089
0.155197
0.154342
0.153517
0.152712
0.151908
0.151084
0.150217
0.149288
0.148264
0.147088
0.145681
0.143959
0.141895
0.139506
0.136838
0.133961
0.130929
0.127782
0.124549
0.121261
0.117931
0.114556
0.111123
0.107605
0.103968
0.100178
0.0962156
0.0920784
0.0877573
0.0832286
0.0784731
0.0734962
0.0683258
0.0629974
0.0575482
0.0520022
0.0463642
0.0406005
0.0346001
0.0281827
0.0211746
0.0134475
0.00535901
0.00414772
0.00317864
0.00157601
-0.00059826
-0.0031731
-0.00600206
-0.00897989
-0.0120379
-0.0151349
-0.0182481
-0.0213662
-0.024484
-0.0275998
-0.0307132
-0.0338246
-0.0369345
-0.0400436
-0.0431524
-0.0462613
-0.0493709
-0.0524816
-0.0555935
-0.0587069
-0.0618221
-0.0649391
-0.0680579
-0.0711786
-0.074301
-0.0774251
-0.0805508
-0.0836779
-0.0868063
-0.0899359
-0.0930665
-0.0961979
-0.09933
-0.102463
-0.105596
-0.108729
0.219128
0.216212
0.213327
0.210495
0.207734
0.205063
0.202494
0.200036
0.197694
0.19547
0.193364
0.19137
0.189484
0.187696
0.186002
0.18439
0.182852
0.181375
0.179951
0.178572
0.177232
0.175926
0.174651
0.173404
0.17218
0.170977
0.169791
0.168623
0.167471
0.166337
0.165226
0.164139
0.163081
0.162056
0.161068
0.160119
0.159208
0.158331
0.157485
0.156665
0.155863
0.155063
0.15425
0.153405
0.152503
0.151525
0.150439
0.149183
0.147678
0.145863
0.143725
0.141284
0.138591
0.135707
0.132675
0.129533
0.126313
0.12304
0.119723
0.116357
0.112924
0.109396
0.105743
0.101932
0.0979464
0.0937779
0.0894075
0.0848009
0.0799383
0.0748291
0.0695017
0.0639933
0.0583484
0.0525935
0.0467265
0.0407034
0.0343847
0.0275081
0.0196267
0.00956799
-0.00419492
0.000434129
0.00164982
0.000713087
-0.00121029
-0.00366676
-0.00642652
-0.00935591
-0.0123754
-0.0154395
-0.0185237
-0.0216158
-0.0247103
-0.0278052
-0.0308999
-0.0339944
-0.0370891
-0.0401843
-0.0432804
-0.0463777
-0.0494765
-0.052577
-0.0556797
-0.0587845
-0.0618917
-0.0650014
-0.0681134
-0.0712278
-0.0743444
-0.0774632
-0.080584
-0.0837066
-0.0868308
-0.0899565
-0.0930835
-0.0962115
-0.0993404
-0.10247
-0.1056
-0.10873
0.219077
0.21606
0.213081
0.210165
0.207335
0.20461
0.202006
0.199534
0.197202
0.195012
0.192965
0.191057
0.18928
0.187622
0.186074
0.184624
0.183257
0.18196
0.180718
0.179521
0.178362
0.177233
0.176129
0.175044
0.173971
0.172903
0.171836
0.170767
0.169695
0.168625
0.16756
0.166507
0.165472
0.164464
0.163487
0.162544
0.161634
0.160752
0.159888
0.159035
0.158182
0.157312
0.156412
0.155461
0.154438
0.153323
0.152083
0.150665
0.149008
0.147073
0.144853
0.142368
0.139662
0.136785
0.133775
0.130666
0.127488
0.124262
0.120991
0.117666
0.114267
0.110769
0.107141
0.103354
0.099391
0.0952374
0.090859
0.08621
0.08127
0.076052
0.07059
0.064928
0.0591122
0.053171
0.0471133
0.0409156
0.0344751
0.0276
0.020051
0.0117582
0.00409908
0.00312148
0.002231
0.000670363
-0.00146674
-0.00399852
-0.00677689
-0.00969871
-0.0126984
-0.0157375
-0.0187955
-0.0218623
-0.0249333
-0.0280068
-0.0310824
-0.0341598
-0.0372392
-0.0403206
-0.0434041
-0.0464899
-0.0495782
-0.0526691
-0.0557628
-0.0588593
-0.0619588
-0.0650613
-0.0681667
-0.071275
-0.0743861
-0.0774997
-0.0806158
-0.083734
-0.0868542
-0.0899762
-0.0930997
-0.0962244
-0.0993503
-0.102477
-0.105604
-0.108732
0.218994
0.215815
0.212684
0.209631
0.206686
0.203877
0.201222
0.198735
0.196424
0.194294
0.192345
0.190568
0.188952
0.187483
0.186148
0.184931
0.183813
0.182776
0.181801
0.180872
0.179978
0.179108
0.178253
0.177402
0.176542
0.17566
0.174747
0.173798
0.172812
0.171794
0.170752
0.169694
0.168633
0.167582
0.16655
0.165543
0.164559
0.163588
0.162619
0.161638
0.160635
0.159593
0.158499
0.157333
0.156076
0.154708
0.153198
0.151505
0.149605
0.147497
0.145161
0.142604
0.139865
0.136986
0.134001
0.130938
0.127818
0.124656
0.121454
0.118204
0.114886
0.111473
0.107933
0.104239
0.100371
0.0963011
0.0919806
0.0873536
0.0823965
0.0771227
0.0715699
0.0657907
0.0598354
0.0537395
0.047534
0.0412364
0.0348127
0.028176
0.0212955
0.0144993
0.00901563
0.00581177
0.00340356
0.00104253
-0.00149146
-0.00421102
-0.00706906
-0.0100145
-0.0130092
-0.0160298
-0.0190638
-0.0221054
-0.0251523
-0.0282038
-0.0312597
-0.0343197
-0.0373836
-0.0404512
-0.0435225
-0.0465972
-0.0496753
-0.0527568
-0.0558418
-0.0589304
-0.0620225
-0.0651182
-0.0682173
-0.0713198
-0.0744256
-0.0775343
-0.0806458
-0.0837599
-0.0868763
-0.0899947
-0.0931149
-0.0962366
-0.0993595
-0.102483
-0.105608
-0.108733
0.218878
0.215474
0.21213
0.20889
0.205792
0.202873
0.20016
0.197668
0.195407
0.193376
0.19157
0.189978
0.188582
0.187368
0.186317
0.185412
0.18463
0.183944
0.183331
0.182767
0.182236
0.181725
0.181218
0.180695
0.180134
0.179511
0.17881
0.178021
0.177144
0.176183
0.175152
0.174062
0.172933
0.171787
0.170635
0.169492
0.168356
0.167209
0.166033
0.164817
0.16355
0.162219
0.16081
0.159306
0.15769
0.155939
0.154023
0.151912
0.149622
0.147183
0.144605
0.141876
0.139021
0.136077
0.133074
0.13003
0.126952
0.123848
0.120723
0.117576
0.114391
0.11114
0.107783
0.104279
0.100598
0.0967013
0.0925327
0.0880304
0.0831639
0.0779352
0.0723745
0.0665271
0.0604516
0.0542157
0.0478991
0.041571
0.0352503
0.0289096
0.0225913
0.0166057
0.0116152
0.00766478
0.00440543
0.00143641
-0.00146422
-0.00438273
-0.00733617
-0.0103166
-0.013313
-0.0163179
-0.0193285
-0.0223445
-0.0253666
-0.0283952
-0.0314307
-0.0344729
-0.0375212
-0.0405752
-0.0436344
-0.0466982
-0.0497666
-0.0528392
-0.055916
-0.0589971
-0.0620822
-0.0651715
-0.0682647
-0.0713617
-0.0744623
-0.0775664
-0.0806737
-0.0837839
-0.0868966
-0.0900117
-0.0931288
-0.0962477
-0.0993679
-0.102489
-0.105611
-0.108734
0.218743
0.215075
0.211485
0.208028
0.204761
0.201735
0.198983
0.196521
0.194354
0.192474
0.190865
0.189508
0.188382
0.187471
0.186757
0.18622
0.185834
0.185566
0.185384
0.185261
0.185176
0.185112
0.185048
0.184951
0.184784
0.18451
0.184099
0.183535
0.18282
0.181958
0.180966
0.179856
0.178661
0.177406
0.176111
0.174801
0.173472
0.172093
0.170635
0.169094
0.167472
0.165757
0.163935
0.161994
0.15992
0.15768
0.155214
0.152487
0.149572
0.146572
0.14352
0.140406
0.13724
0.134051
0.130871
0.127712
0.124572
0.121452
0.11836
0.115311
0.112288
0.109276
0.106202
0.103005
0.0996308
0.0960392
0.0921701
0.0879402
0.0832924
0.0782149
0.072724
0.0668648
0.0607079
0.0543552
0.0479476
0.0416263
0.035456
0.029416
0.0235209
0.017948
0.0130002
0.00867918
0.00496344
0.00162914
-0.00151558
-0.00457905
-0.00760739
-0.0106166
-0.0136131
-0.016602
-0.0195887
-0.0225784
-0.0255746
-0.0285796
-0.0315942
-0.0346182
-0.0376509
-0.0406914
-0.0437387
-0.0467922
-0.0498512
-0.0529154
-0.0559846
-0.0590585
-0.0621372
-0.0652204
-0.0683081
-0.0714
-0.074496
-0.0775958
-0.0806991
-0.0838056
-0.086915
-0.090027
-0.0931414
-0.0962576
-0.0993754
-0.102495
-0.105615
-0.108735
0.218638
0.214761
0.210971
0.207342
0.203953
0.200873
0.198147
0.195786
0.19378
0.192107
0.190735
0.189635
0.188783
0.188167
0.187775
0.187591
0.187584
0.187714
0.187948
0.188256
0.188618
0.189021
0.189437
0.18982
0.190116
0.190267
0.190229
0.189981
0.18952
0.188851
0.187995
0.186962
0.185788
0.18451
0.183151
0.181748
0.180289
0.178721
0.176992
0.175119
0.173133
0.171033
0.168806
0.166441
0.163927
0.161201
0.158083
0.154497
0.150619
0.146704
0.142881
0.139079
0.13527
0.131484
0.127784
0.124206
0.120738
0.117378
0.114142
0.111075
0.108163
0.105404
0.102679
0.099883
0.0969223
0.0937638
0.0903458
0.0865361
0.0822387
0.077416
0.0720565
0.0661997
0.0599524
0.0534849
0.0470131
0.0407664
0.0348403
0.029177
0.0236878
0.0183864
0.0133622
0.0087962
0.00491855
0.00148578
-0.00172803
-0.00484121
-0.00789956
-0.010919
-0.0139089
-0.0168796
-0.0198416
-0.0228042
-0.0257741
-0.028755
-0.0317483
-0.0347541
-0.0377713
-0.0407985
-0.0438344
-0.046878
-0.0499282
-0.0529846
-0.0560466
-0.0591141
-0.0621868
-0.0652645
-0.0683471
-0.0714344
-0.074526
-0.0776219
-0.0807215
-0.0838247
-0.0869312
-0.0900404
-0.0931522
-0.0962662
-0.0993819
-0.102499
-0.105617
-0.108736
0.21869
0.214896
0.211152
0.207549
0.204198
0.201202
0.198618
0.196448
0.194664
0.19322
0.192071
0.191176
0.190512
0.190073
0.189866
0.189879