/*--------------------------------*- C++ -*----------------------------------*\
  =========                 |
  \\      /  F ield         | OpenFOAM: The Open Source CFD Toolbox
   \\    /   O peration     | Website:  https://openfoam.org
    \\  /    A nd           | Version:  6
     \\/     M anipulation  |
\*---------------------------------------------------------------------------*/
FoamFile
{
    version     2.0;
    format      ascii;
    class       volScalarField;
    location    "600";
    object      T;
}
// * * * * * * * * * * * * * * * * * * * * * * * * * * * * * * * * * * * * * //

dimensions      [0 0 0 1 0 0 0];

internalField   nonuniform List<scalar> 
4800
(
552.487
552.363
552.239
552.117
551.997
551.882
551.77
551.664
551.562
551.465
551.372
551.283
551.196
551.113
551.031
550.951
550.871
550.792
550.713
550.633
550.553
550.472
550.391
550.308
550.224
550.14
550.054
549.967
549.88
549.793
549.705
549.618
549.532
549.446
549.361
549.277
549.194
549.113
549.034
548.957
548.881
548.807
548.734
548.661
548.589
548.517
548.445
548.372
548.298
548.223
548.147
548.07
547.992
547.914
547.834
547.753
547.672
547.591
547.509
547.427
547.345
547.263
547.18
547.097
547.013
546.928
546.843
546.755
546.666
546.575
546.479
546.38
546.274
546.162
546.043
545.92
545.793
545.664
545.536
545.408
545.279
545.149
545.02
544.891
544.763
544.635
544.508
544.383
544.258
544.134
544.01
543.887
543.765
543.644
543.523
543.403
543.284
543.164
543.046
542.927
542.809
542.692
542.575
542.458
542.341
542.224
542.108
541.992
541.876
541.76
541.645
541.529
541.414
541.298
541.183
541.068
540.953
540.838
540.723
540.608
552.487
552.361
552.237
552.115
551.996
551.88
551.769
551.663
551.562
551.464
551.371
551.282
551.196
551.112
551.03
550.95
550.87
550.791
550.712
550.632
550.552
550.472
550.391
550.308
550.225
550.14
550.055
549.969
549.882
549.796
549.709
549.623
549.537
549.452
549.367
549.284
549.202
549.122
549.044
548.967
548.892
548.819
548.746
548.673
548.601
548.529
548.457
548.384
548.31
548.235
548.16
548.083
548.005
547.925
547.845
547.765
547.683
547.602
547.52
547.437
547.355
547.272
547.188
547.104
547.02
546.934
546.848
546.76
546.67
546.577
546.482
546.382
546.277
546.166
546.049
545.928
545.801
545.672
545.541
545.41
545.28
545.149
545.019
544.89
544.762
544.634
544.508
544.382
544.257
544.133
544.009
543.887
543.765
543.643
543.523
543.403
543.283
543.164
543.045
542.927
542.809
542.692
542.574
542.457
542.341
542.224
542.108
541.992
541.876
541.76
541.645
541.529
541.414
541.298
541.183
541.068
540.953
540.838
540.723
540.608
552.487
552.36
552.235
552.113
551.994
551.879
551.769
551.663
551.561
551.464
551.371
551.282
551.196
551.112
551.03
550.949
550.869
550.79
550.711
550.632
550.553
550.472
550.391
550.31
550.227
550.143
550.059
549.974
549.889
549.804
549.719
549.634
549.549
549.464
549.381
549.299
549.219
549.14
549.063
548.988
548.914
548.841
548.769
548.697
548.626
548.554
548.482
548.409
548.335
548.261
548.185
548.108
548.029
547.95
547.869
547.788
547.706
547.624
547.541
547.458
547.374
547.29
547.205
547.12
547.034
546.947
546.859
546.769
546.677
546.583
546.486
546.386
546.281
546.171
546.055
545.935
545.809
545.679
545.547
545.413
545.28
545.149
545.018
544.888
544.76
544.632
544.506
544.38
544.255
544.131
544.008
543.885
543.763
543.642
543.521
543.401
543.282
543.163
543.044
542.926
542.808
542.691
542.574
542.457
542.34
542.224
542.107
541.991
541.876
541.76
541.644
541.529
541.413
541.298
541.183
541.068
540.953
540.838
540.723
540.608
552.486
552.36
552.234
552.112
551.993
551.879
551.769
551.663
551.562
551.465
551.373
551.283
551.197
551.113
551.031
550.95
550.87
550.792
550.713
550.634
550.555
550.475
550.395
550.314
550.232
550.15
550.067
549.984
549.901
549.818
549.734
549.651
549.567
549.484
549.403
549.322
549.244
549.167
549.091
549.018
548.945
548.874
548.803
548.732
548.662
548.591
548.52
548.447
548.374
548.299
548.223
548.146
548.067
547.987
547.906
547.824
547.742
547.658
547.575
547.49
547.405
547.319
547.233
547.145
547.057
546.967
546.876
546.784
546.69
546.594
546.495
546.393
546.286
546.176
546.06
545.939
545.813
545.683
545.55
545.415
545.28
545.147
545.016
544.886
544.757
544.629
544.503
544.377
544.252
544.128
544.005
543.883
543.761
543.64
543.52
543.4
543.28
543.161
543.043
542.925
542.807
542.69
542.573
542.456
542.339
542.223
542.107
541.991
541.875
541.759
541.644
541.528
541.413
541.298
541.183
541.068
540.953
540.838
540.722
540.607
552.486
552.36
552.235
552.113
551.994
551.88
551.771
551.666
551.565
551.468
551.376
551.287
551.2
551.116
551.034
550.954
550.874
550.796
550.717
550.639
550.561
550.482
550.402
550.323
550.242
550.162
550.081
550
549.919
549.838
549.757
549.675
549.593
549.512
549.432
549.354
549.277
549.202
549.129
549.057
548.987
548.917
548.848
548.778
548.709
548.639
548.569
548.498
548.425
548.351
548.275
548.197
548.118
548.038
547.956
547.873
547.79
547.705
547.62
547.533
547.446
547.358
547.269
547.179
547.088
546.995
546.901
546.806
546.709
546.609
546.507
546.402
546.293
546.18
546.063
545.941
545.814
545.684
545.55
545.414
545.278
545.144
545.013
544.882
544.753
544.625
544.499
544.373
544.248
544.125
544.002
543.879
543.758
543.637
543.517
543.397
543.278
543.159
543.041
542.923
542.806
542.689
542.572
542.455
542.338
542.222
542.106
541.99
541.875
541.759
541.643
541.528
541.413
541.298
541.182
541.067
540.952
540.837
540.722
540.607
552.487
552.361
552.236
552.115
551.997
551.884
551.774
551.67
551.57
551.474
551.381
551.293
551.206
551.123
551.041
550.961
550.882
550.803
550.725
550.648
550.57
550.492
550.414
550.336
550.258
550.18
550.101
550.023
549.944
549.865
549.786
549.706
549.626
549.547
549.469
549.393
549.318
549.246
549.175
549.105
549.037
548.969
548.902
548.834
548.767
548.699
548.63
548.56
548.488
548.414
548.339
548.261
548.182
548.101
548.018
547.934
547.849
547.763
547.676
547.587
547.497
547.407
547.315
547.222
547.127
547.031
546.933
546.834
546.732
546.629
546.522
546.413
546.3
546.184
546.065
545.941
545.813
545.682
545.547
545.411
545.274
545.14
545.008
544.877
544.748
544.62
544.494
544.368
544.244
544.12
543.997
543.876
543.754
543.634
543.514
543.394
543.276
543.157
543.039
542.921
542.804
542.687
542.57
542.454
542.337
542.221
542.105
541.989
541.874
541.758
541.643
541.528
541.412
541.297
541.182
541.067
540.952
540.837
540.722
540.607
552.487
552.361
552.238
552.118
552.001
551.889
551.781
551.677
551.577
551.482
551.39
551.302
551.216
551.133
551.052
550.972
550.893
550.815
550.738
550.661
550.585
550.509
550.432
550.356
550.28
550.204
550.128
550.052
549.975
549.898
549.821
549.743
549.666
549.589
549.513
549.439
549.367
549.297
549.229
549.162
549.095
549.03
548.965
548.899
548.834
548.768
548.701
548.632
548.562
548.489
548.414
548.337
548.257
548.176
548.092
548.006
547.919
547.83
547.74
547.649
547.557
547.463
547.368
547.272
547.174
547.074
546.972
546.868
546.762
546.653
546.541
546.427
546.31
546.19
546.067
545.94
545.811
545.678
545.543
545.406
545.27
545.135
545.002
544.872
544.742
544.614
544.488
544.362
544.238
544.115
543.992
543.871
543.75
543.63
543.51
543.391
543.272
543.154
543.036
542.919
542.802
542.685
542.568
542.452
542.336
542.22
542.104
541.988
541.873
541.757
541.642
541.527
541.412
541.297
541.182
541.067
540.952
540.837
540.722
540.607
552.488
552.364
552.242
552.123
552.008
551.897
551.789
551.686
551.588
551.493
551.402
551.314
551.23
551.147
551.066
550.987
550.909
550.832
550.756
550.681
550.606
550.531
550.457
550.383
550.309
550.235
550.161
550.087
550.013
549.938
549.862
549.787
549.711
549.637
549.564
549.493
549.423
549.356
549.29
549.225
549.161
549.098
549.036
548.973
548.91
548.846
548.781
548.714
548.645
548.574
548.499
548.423
548.342
548.26
548.174
548.087
547.997
547.906
547.813
547.719
547.624
547.527
547.429
547.329
547.227
547.123
547.016
546.907
546.796
546.682
546.565
546.445
546.322
546.197
546.07
545.94
545.808
545.674
545.538
545.401
545.264
545.129
544.996
544.864
544.735
544.607
544.481
544.356
544.232
544.109
543.987
543.865
543.745
543.625
543.506
543.387
543.269
543.151
543.033
542.916
542.799
542.683
542.566
542.45
542.334
542.218
542.103
541.987
541.872
541.757
541.641
541.526
541.411
541.296
541.181
541.067
540.952
540.837
540.722
540.607
552.489
552.368
552.248
552.13
552.017
551.907
551.8
551.699
551.601
551.507
551.417
551.33
551.246
551.165
551.085
551.007
550.93
550.855
550.78
550.706
550.632
550.559
550.487
550.414
550.343
550.271
550.199
550.127
550.055
549.982
549.909
549.836
549.763
549.691
549.621
549.552
549.486
549.421
549.357
549.295
549.234
549.174
549.114
549.054
548.993
548.932
548.869
548.805
548.737
548.667
548.594
548.517
548.437
548.353
548.265
548.175
548.083
547.989
547.894
547.797
547.698
547.598
547.496
547.393
547.286
547.178
547.067
546.953
546.835
546.715
546.592
546.466
546.337
546.207
546.074
545.941
545.806
545.67
545.533
545.395
545.257
545.121
544.988
544.856
544.727
544.599
544.473
544.348
544.224
544.102
543.98
543.859
543.739
543.62
543.501
543.383
543.265
543.147
543.03
542.913
542.797
542.68
542.564
542.448
542.332
542.217
542.101
541.986
541.871
541.756
541.64
541.526
541.411
541.296
541.181
541.066
540.951
540.837
540.722
540.607
552.49
552.371
552.254
552.139
552.027
551.918
551.813
551.713
551.616
551.524
551.435
551.349
551.266
551.186
551.107
551.031
550.955
550.881
550.808
550.735
550.663
550.592
550.521
550.451
550.381
550.312
550.242
550.172
550.102
550.032
549.961
549.89
549.82
549.751
549.683
549.617
549.553
549.491
549.43
549.371
549.313
549.256
549.198
549.141
549.083
549.025
548.965
548.902
548.837
548.769
548.696
548.62
548.538
548.453
548.364
548.271
548.176
548.079
547.98
547.88
547.778
547.675
547.57
547.462
547.352
547.238
547.122
547.003
546.88
546.753
546.624
546.491
546.356
546.219
546.081
545.943
545.805
545.666
545.527
545.388
545.249
545.113
544.979
544.847
544.717
544.59
544.464
544.339
544.216
544.094
543.973
543.853
543.733
543.614
543.496
543.378
543.26
543.143
543.026
542.91
542.794
542.677
542.562
542.446
542.33
542.215
542.1
541.985
541.869
541.754
541.64
541.525
541.41
541.295
541.18
541.066
540.951
540.837
540.722
540.607
552.491
552.374
552.259
552.146
552.036
551.93
551.827
551.728
551.633
551.542
551.455
551.37
551.289
551.209
551.132
551.057
550.983
550.91
550.839
550.768
550.698
550.629
550.56
550.492
550.424
550.356
550.288
550.221
550.153
550.084
550.016
549.948
549.881
549.815
549.75
549.687
549.625
549.566
549.508
549.452
549.397
549.342
549.288
549.234
549.179
549.123
549.066
549.006
548.943
548.876
548.805
548.729
548.647
548.56
548.469
548.374
548.275
548.175
548.073
547.969
547.864
547.758
547.649
547.537
547.422
547.304
547.183
547.058
546.929
546.796
546.66
546.52
546.378
546.235
546.091
545.948
545.805
545.663
545.521
545.38
545.24
545.103
544.968
544.836
544.707
544.579
544.454
544.33
544.207
544.086
543.965
543.845
543.726
543.608
543.49
543.373
543.255
543.139
543.022
542.906
542.79
542.675
542.559
542.444
542.328
542.213
542.098
541.983
541.868
541.753
541.638
541.524
541.409
541.294
541.18
541.065
540.951
540.836
540.722
540.607
552.492
552.378
552.264
552.154
552.046
551.942
551.841
551.744
551.651
551.561
551.475
551.392
551.312
551.234
551.159
551.085
551.012
550.941
550.872
550.803
550.735
550.667
550.6
550.534
550.468
550.403
550.337
550.271
550.206
550.14
550.074
550.009
549.945
549.881
549.82
549.759
549.701
549.644
549.59
549.536
549.484
549.433
549.381
549.33
549.278
549.225
549.171
549.114
549.054
548.989
548.92
548.844
548.761
548.673
548.579
548.481
548.379
548.275
548.169
548.062
547.954
547.844
547.732
547.616
547.497
547.374
547.248
547.117
546.982
546.843
546.7
546.553
546.405
546.255
546.105
545.956
545.808
545.66
545.515
545.371
545.23
545.091
544.956
544.824
544.695
544.568
544.443
544.319
544.197
544.076
543.957
543.837
543.719
543.601
543.484
543.367
543.25
543.134
543.018
542.902
542.787
542.671
542.556
542.441
542.326
542.211
542.096
541.981
541.867
541.752
541.637
541.523
541.408
541.294
541.179
541.065
540.95
540.836
540.722
540.607
552.494
552.381
552.271
552.162
552.056
551.954
551.855
551.76
551.668
551.581
551.496
551.414
551.336
551.259
551.185
551.113
551.042
550.973
550.905
550.838
550.772
550.706
550.642
550.577
550.513
550.45
550.386
550.323
550.26
550.197
550.134
550.072
550.011
549.95
549.891
549.834
549.779
549.725
549.673
549.623
549.574
549.526
549.477
549.429
549.38
549.33
549.279
549.225
549.168
549.107
549.038
548.962
548.879
548.789
548.693
548.591
548.486
548.379
548.269
548.159
548.048
547.935
547.818
547.699
547.575
547.448
547.316
547.18
547.039
546.894
546.744
546.59
546.434
546.278
546.122
545.967
545.812
545.659
545.509
545.362
545.217
545.076
544.941
544.809
544.68
544.554
544.43
544.308
544.187
544.067
543.948
543.829
543.711
543.594
543.477
543.361
543.245
543.129
543.014
542.898
542.783
542.668
542.553
542.438
542.324
542.209
542.094
541.98
541.865
541.751
541.636
541.522
541.407
541.293
541.179
541.064
540.95
540.836
540.721
540.607
552.495
552.385
552.276
552.17
552.067
551.966
551.869
551.775
551.685
551.599
551.516
551.436
551.359
551.284
551.211
551.14
551.071
551.003
550.937
550.871
550.807
550.744
550.681
550.619
550.558
550.496
550.435
550.375
550.314
550.254
550.194
550.135
550.077
550.02
549.964
549.91
549.858
549.807
549.758
549.711
549.665
549.62
549.575
549.53
549.484
549.438
549.39
549.34
549.287
549.227
549.159
549.083
548.998
548.905
548.806
548.702
548.594
548.484
548.371
548.258
548.143
548.027
547.907
547.783
547.656
547.523
547.387
547.245
547.099
546.947
546.79
546.629
546.467
546.304
546.141
545.979
545.818
545.659
545.502
545.349
545.199
545.057
544.921
544.79
544.664
544.539
544.417
544.296
544.176
544.057
543.938
543.821
543.703
543.587
543.471
543.355
543.239
543.124
543.009
542.894
542.779
542.665
542.55
542.435
542.321
542.207
542.092
541.978
541.864
541.749
541.635
541.521
541.407
541.292
541.178
541.064
540.95
540.835
540.721
540.607
552.496
552.388
552.282
552.178
552.076
551.977
551.881
551.789
551.701
551.616
551.534
551.455
551.379
551.306
551.234
551.165
551.097
551.031
550.966
550.903
550.84
550.779
550.718
550.659
550.599
550.54
550.482
550.424
550.366
550.309
550.253
550.197
550.142
550.089
550.037
549.986
549.937
549.89
549.844
549.799
549.757
549.715
549.673
549.632
549.59
549.547
549.503
549.457
549.406
549.347
549.28
549.202
549.115
549.02
548.919
548.811
548.7
548.587
548.472
548.356
548.239
548.119
547.996
547.869
547.737
547.6
547.458
547.312
547.159
547.001
546.838
546.67
546.501
546.332
546.162
545.993
545.824
545.657
545.491
545.329
545.172
545.028
544.894
544.767
544.643
544.522
544.402
544.283
544.164
544.046
543.929
543.812
543.695
543.579
543.464
543.349
543.234
543.119
543.004
542.89
542.775
542.661
542.547
542.433
542.318
542.204
542.09
541.976
541.862
541.748
541.634
541.52
541.406
541.292
541.177
541.063
540.949
540.835
540.721
540.607
552.497
552.391
552.287
552.184
552.084
551.986
551.892
551.801
551.714
551.63
551.549
551.472
551.397
551.324
551.254
551.186
551.12
551.056
550.993
550.931
550.87
550.811
550.752
550.695
550.638
550.582
550.526
550.471
550.417
550.363
550.31
550.257
550.206
550.156
550.108
550.06
550.015
549.971
549.928
549.888
549.848
549.81
549.772
549.735
549.697
549.658
549.617
549.573
549.524
549.466
549.398
549.318
549.229
549.131
549.026
548.916
548.802
548.687
548.57
548.452
548.332
548.209
548.083
547.953
547.817
547.676
547.53
547.378
547.221
547.056
546.887
546.713
546.537
546.36
546.182
546.005
545.826
545.648
545.47
545.296
545.13
544.985
544.856
544.736
544.619
544.502
544.385
544.268
544.152
544.035
543.919
543.803
543.687
543.572
543.457
543.342
543.228
543.114
542.999
542.885
542.771
542.657
542.544
542.43
542.316
542.202
542.088
541.974
541.86
541.746
541.632
541.519
541.405
541.291
541.177
541.063
540.949
540.835
540.721
540.607
552.498
552.393
552.29
552.189
552.09
551.993
551.9
551.81
551.723
551.64
551.561
551.484
551.411
551.339
551.271
551.204
551.139
551.077
551.016
550.956
550.897
550.84
550.784
550.729
550.674
550.621
550.568
550.516
550.465
550.414
550.365
550.316
550.268
550.222
550.177
550.134
550.092
550.051
550.012
549.975
549.939
549.905
549.871
549.837
549.802
549.766
549.728
549.685
549.637
549.579
549.508
549.427
549.335
549.234
549.127
549.015
548.899
548.782
548.663
548.542
548.42
548.296
548.167
548.034
547.895
547.751
547.6
547.444
547.281
547.111
546.936
546.755
546.572
546.387
546.201
546.014
545.824
545.631
545.436
545.243
545.062
544.922
544.805
544.697
544.59
544.48
544.368
544.254
544.139
544.024
543.908
543.793
543.679
543.564
543.45
543.336
543.222
543.108
542.995
542.881
542.767
542.654
542.54
542.427
542.313
542.2
542.086
541.972
541.859
541.745
541.631
541.517
541.404
541.29
541.176
541.062
540.948
540.835
540.721
540.607
552.498
552.394
552.292
552.191
552.092
551.996
551.903
551.814
551.728
551.646
551.568
551.492
551.42
551.35
551.283
551.218
551.155
551.095
551.036
550.978
550.922
550.867
550.814
550.761
550.71
550.659
550.609
550.56
550.512
550.465
550.419
550.374
550.33
550.287
550.246
550.206
550.168
550.131
550.096
550.062
550.029
549.998
549.967
549.936
549.904
549.869
549.832
549.79
549.741
549.681
549.609
549.525
549.43
549.327
549.219
549.105
548.988
548.869
548.749
548.627
548.504
548.377
548.247
548.111
547.97
547.822
547.668
547.508
547.34
547.164
546.983
546.796
546.606
546.413
546.217
546.019
545.816
545.604
545.383
545.16
544.949
544.829
544.739
544.652
544.558
544.457
544.35
544.239
544.126
544.012
543.898
543.784
543.67
543.557
543.443
543.33
543.216
543.103
542.99
542.877
542.763
542.65
542.537
542.424
542.311
542.197
542.084
541.97
541.857
541.744
541.63
541.516
541.403
541.289
541.175
541.062
540.948
540.834
540.721
540.607
552.498
552.394
552.291
552.189
552.09
551.995
551.902
551.813
551.728
551.646
551.569
551.494
551.424
551.356
551.291
551.228
551.169
551.111
551.055
551.001
550.948
550.896
550.846
550.796
550.748
550.701
550.654
550.608
550.564
550.52
550.477
550.435
550.394
550.355
550.317
550.28
550.245
550.211
550.178
550.147
550.117
550.088
550.059
550.029
549.997
549.963
549.926
549.883
549.832
549.77
549.695
549.608
549.511
549.407
549.297
549.183
549.066
548.947
548.826
548.704
548.58
548.452
548.32
548.183
548.039
547.889
547.733
547.568
547.396
547.216
547.028
546.835
546.637
546.436
546.231
546.022
545.805
545.572
545.318
545.038
544.745
544.701
544.665
544.607
544.528
544.435
544.332
544.224
544.113
544.001
543.888
543.775
543.662
543.549
543.436
543.323
543.211
543.098
542.985
542.872
542.76
542.647
542.534
542.421
542.308
542.195
542.082
541.969
541.855
541.742
541.629
541.515
541.402
541.288
541.175
541.061
540.948
540.834
540.72
540.607
552.497
552.391
552.286
552.184
552.083
551.987
551.893
551.804
551.719
551.639
551.562
551.49
551.422
551.357
551.296
551.237
551.182
551.128
551.077
551.027
550.978
550.931
550.885
550.84
550.796
550.752
550.709
550.667
550.625
550.584
550.544
550.504
550.466
550.428
550.392
550.358
550.325
550.293
550.262
550.232
550.203
550.173
550.144
550.113
550.08
550.044
550.004
549.959
549.904
549.838
549.76
549.672
549.574
549.47
549.36
549.246
549.129
549.011
548.891
548.769
548.644
548.516
548.384
548.246
548.102
547.95
547.792
547.625
547.449
547.264
547.071
546.871
546.666
546.458
546.245
546.026
545.797
545.547
545.262
544.898
544.304
544.567
544.61
544.575
544.506
544.417
544.317
544.211
544.101
543.99
543.878
543.766
543.654
543.542
543.429
543.317
543.205
543.093
542.98
542.868
542.756
542.643
542.531
542.418
542.305
542.193
542.08
541.967
541.854
541.741
541.628
541.514
541.401
541.288
541.174
541.061
540.947
540.834
540.72
540.607
552.495
552.386
552.278
552.172
552.069
551.97
551.876
551.786
551.702
551.622
551.548
551.479
551.415
551.355
551.299
551.246
551.197
551.15
551.105
551.062
551.02
550.979
550.939
550.9
550.862
550.823
550.784
550.746
550.707
550.668
550.629
550.591
550.553
550.517
550.481
550.447
550.413
550.381
550.35
550.318
550.287
550.255
550.222
550.188
550.15
550.109
550.064
550.012
549.952
549.881
549.801
549.71
549.612
549.508
549.399
549.286
549.171
549.054
548.936
548.815
548.692
548.565
548.434
548.297
548.153
548.003
547.844
547.676
547.497
547.308
547.11
546.905
546.694
546.478
546.259
546.034
545.8
545.551
545.277
544.977
544.699
544.663
544.631
544.574
544.496
544.405
544.304
544.198
544.089
543.979
543.868
543.757
543.646
543.534
543.423
543.311
543.199
543.088
542.976
542.864
542.752
542.64
542.528
542.415
542.303
542.19
542.078
541.965
541.852
541.739
541.626
541.513
541.4
541.287
541.174
541.06
540.947
540.834
540.72
540.607
552.492
552.377
552.263
552.152
552.046
551.944
551.848
551.757
551.674
551.596
551.526
551.462
551.403
551.35
551.302
551.258
551.217
551.18
551.145
551.111
551.079
551.048
551.017
550.986
550.955
550.924
550.891
550.856
550.821
550.784
550.746
550.708
550.669
550.631
550.593
550.556
550.521
550.485
550.45
550.414
550.377
550.339
550.299
550.256
550.21
550.16
550.105
550.043
549.974
549.897
549.812
549.719
549.619
549.514
549.406
549.295
549.182
549.067
548.951
548.833
548.713
548.59
548.462
548.328
548.188
548.041
547.884
547.717
547.537
547.346
547.145
546.936
546.72
546.499
546.274
546.045
545.812
545.572
545.322
545.076
544.877
544.761
544.673
544.587
544.496
544.397
544.293
544.187
544.078
543.969
543.859
543.748
543.638
543.527
543.416
543.305
543.194
543.083
542.972
542.86
542.748
542.637
542.525
542.413
542.301
542.188
542.076
541.963
541.851
541.738
541.625
541.512
541.399
541.286
541.173
541.06
540.947
540.833
540.72
540.607
552.488
552.365
552.243
552.126
552.014
551.908
551.81
551.719
551.638
551.564
551.499
551.441
551.39
551.346
551.308
551.276
551.247
551.223
551.2
551.18
551.161
551.143
551.124
551.106
551.086
551.063
551.038
551.01
550.978
550.943
550.906
550.867
550.826
550.784
550.742
550.701
550.659
550.618
550.575
550.53
550.484
550.436
550.384
550.33
550.271
550.207
550.137
550.06
549.976
549.887
549.792
549.693
549.589
549.481
549.372
549.261
549.149
549.037
548.923
548.809
548.694
548.576
548.455
548.328
548.195
548.054
547.903
547.74
547.564
547.375
547.173
546.961
546.741
546.515
546.286
546.057
545.828
545.598
545.369
545.152
544.971
544.828
544.709
544.602
544.497
544.391
544.284
544.176
544.067
543.958
543.849
543.74
543.63
543.52
543.41
543.3
543.189
543.078
542.968
542.856
542.745
542.634
542.522
542.41
542.299
542.186
542.074
541.962
541.85
541.737
541.624
541.511
541.399
541.286
541.173
541.059
540.946
540.833
540.72
540.607
552.483
552.351
552.221
552.096
551.978
551.868
551.769
551.68
551.601
551.533
551.475
551.425
551.384
551.351
551.325
551.306
551.291
551.282
551.275
551.27
551.267
551.265
551.262
551.259
551.253
551.243
551.228
551.208
551.183
551.152
551.116
551.076
551.033
550.988
550.941
550.894
550.846
550.796
550.743
550.687
550.629
550.566
550.5
550.43
550.355
550.274
550.184
550.085
549.978
549.868
549.756
549.642
549.526
549.41
549.293
549.178
549.063
548.949
548.837
548.726
548.616
548.507
548.396
548.28
548.158
548.028
547.888
547.735
547.567
547.383
547.184
546.971
546.748
546.518
546.286
546.057
545.834
545.615
545.402
545.2
545.02
544.864
544.729
544.609
544.495
544.384
544.274
544.165
544.056
543.948
543.84
543.731
543.623
543.514
543.404
543.295
543.185
543.074
542.964
542.853
542.742
542.631
542.52
542.408
542.297
542.185
542.073
541.961
541.848
541.736
541.623
541.511
541.398
541.285
541.172
541.059
540.946
540.833
540.72
540.607
552.48
552.34
552.204
552.073
551.951
551.84
551.741
551.656
551.583
551.522
551.472
551.432
551.401
551.378
551.364
551.356
551.356
551.36
551.367
551.378
551.39
551.404
551.419
551.433
551.443
551.449
551.447
551.438
551.422
551.398
551.368
551.331
551.289
551.244
551.195
551.145
551.093
551.037
550.974
550.907
550.836
550.76
550.68
550.595
550.505
550.407
550.295
550.165
550.023
549.88
549.74
549.601
549.461
549.322
549.186
549.055
548.927
548.804
548.685
548.573
548.467
548.366
548.267
548.165
548.058
547.943
547.819
547.681
547.525
547.35
547.156
546.943
546.717
546.482
546.249
546.023
545.809
545.604
545.406
545.214
545.032
544.867
544.727
544.603
544.487
544.374
544.264
544.154
544.046
543.938
543.83
543.723
543.615
543.507
543.399
543.29
543.18
543.07
542.96
542.85
542.739
542.628
542.517
542.406
542.295
542.183
542.071
541.959
541.847
541.735
541.623
541.51
541.397
541.285
541.172
541.059
540.946
540.833
540.72
540.607
552.482
552.347
552.213
552.084
551.964
551.856
551.763
551.685
551.62
551.567
551.525
551.491
551.467
551.45
551.441
551.441
551.447
551.458
551.473
551.492
551.513
551.538
551.565
551.593
551.618
551.639
551.653
551.659
551.656
551.645
551.627
551.601
551.568
551.531
551.49
551.446
551.398
551.344
551.279
551.207
551.13
551.048
550.963
550.873
550.779
550.675
550.54
550.373
550.188
550.002
549.824
549.647
549.468
549.288
549.111
548.943
548.782
548.631
548.489
548.362
548.248
548.149
548.058
547.969
547.876
547.778
547.672
547.551
547.407
547.239
547.045
546.827
546.593
546.355
546.122
545.907
545.713
545.534
545.357
545.178
544.993
544.822
544.693
544.58
544.471
544.361
544.252
544.143
544.035
543.928
543.822
543.715
543.608
543.501
543.393
543.285
543.176
543.067
542.957
542.847
542.737
542.626
542.515
542.404
542.293
542.182
542.07
541.958
541.846
541.734
541.622
541.509
541.397
541.284
541.171
541.059
540.946
540.833
540.72
540.607
552.5
552.398
552.289
552.179
552.074
551.978
551.896
551.827
551.768
551.72
551.679
551.645
551.617
551.595
551.581
551.573
551.572
551.575
551.582
551.591
551.604
551.624
551.65
551.68
551.712
551.743
551.77
551.792
551.808
551.817
551.819
551.815
551.805
551.79
551.773
551.751
551.725
551.688
551.637
551.576
551.511
551.443
551.373
551.302
551.232
551.147
551
550.804
550.586
550.364
550.155
549.936
549.704
549.458
549.209
548.97
548.741
548.527
548.328
548.153
548.008
547.887
547.785
547.693
547.602
547.508
547.413
547.3
547.158
546.984
546.774
546.537
546.286
546.044
545.822
545.636
545.482
545.346
545.206
545.05
544.87
544.691
544.611
544.534
544.444
544.344
544.239
544.132
544.025
543.919
543.814
543.708
543.602
543.496
543.389
543.281
543.173
543.064
542.954
542.845
542.735
542.624
542.514
542.403
542.292
542.181
542.069
541.957
541.845
541.733
541.621
541.509
541.396
541.284
541.171
541.058
540.945
540.833
540.72
540.607
552.555
552.549
552.513
552.454
552.383
552.309
552.241
552.175
552.113
552.053
551.996
551.943
551.892
551.844
551.801
551.764
551.733
551.704
551.675
551.647
551.621
551.605
551.602
551.613
551.633
551.66
551.692
551.727
551.762
551.795
551.826
551.854
551.881
551.908
551.935
551.957
551.971
551.975
551.962
551.939
551.918
551.896
551.873
551.859
551.866
551.846
551.707
551.532
551.349
551.135
550.944
550.706
550.429
550.103
549.747
549.399
549.038
548.698
548.376
548.097
547.872
547.681
547.513
547.37
547.245
547.113
546.999
546.863
546.693
546.485
546.218
545.93
545.65
545.415
545.229
545.104
545.029
544.96
544.868
544.761
544.608
544.39
544.478
544.466
544.407
544.323
544.225
544.122
544.016
543.911
543.806
543.702
543.597
543.491
543.385
543.278
543.17
543.061
542.952
542.843
542.733
542.623
542.512
542.402
542.291
542.18
542.068
541.957
541.845
541.733
541.621
541.509
541.396
541.284
541.171
541.058
540.945
540.832
540.72
540.607
552.686
552.902
553.022
553.064
553.052
553.004
552.938
552.854
552.759
552.646
552.532
552.423
552.316
552.21
552.108
552.01
551.912
551.819
551.726
551.623
551.516
551.418
551.345
551.3
551.278
551.279
551.301
551.338
551.388
551.441
551.498
551.56
551.631
551.714
551.805
551.881
551.951
552.019
552.068
552.114
552.175
552.236
552.295
552.384
552.534
552.647
552.57
552.554
552.582
552.448
552.41
552.235
551.979
551.612
551.138
550.693
550.098
549.547
548.988
548.5
548.111
547.74
547.391
547.073
546.849
546.572
546.37
546.132
545.874
545.589
545.175
544.791
544.487
544.322
544.235
544.217
544.272
544.291
544.203
544.211
544.176
544.3
544.375
544.394
544.365
544.299
544.211
544.111
544.008
543.904
543.8
543.696
543.592
543.487
543.381
543.275
543.167
543.059
542.95
542.841
542.732
542.622
542.511
542.401
542.29
542.179
542.068
541.956
541.844
541.733
541.621
541.508
541.396
541.283
541.171
541.058
540.945
540.832
540.72
540.607
552.974
553.638
554.029
554.235
554.303
554.26
554.154
553.998
553.825
553.583
553.333
553.102
552.889
552.681
552.481
552.288
552.073
551.884
551.702
551.487
551.244
551.006
550.809
550.662
550.56
550.502
550.492
550.513
550.56
550.613
550.679
550.758
550.865
551.004
551.175
551.289
551.412
551.57
551.695
551.814
551.978
552.131
552.268
552.486
552.862
553.238
553.497
553.745
554.129
554.346
554.589
554.652
554.509
554.057
553.443
553.065
552.247
551.404
550.501
549.695
548.957
548.148
547.462
546.755
546.397
545.822
545.426
544.971
544.549
544.248
543.764
543.445
543.197
543.148
543.199
543.181
543.305
543.386
543.186
543.197
543.318
543.665
544.23
544.301
544.315
544.273
544.196
544.102
544.002
543.899
543.796
543.692
543.589
543.484
543.379
543.273
543.165
543.058
542.949
542.84
542.731
542.621
542.511
542.4
542.289
542.178
542.067
541.956
541.844
541.732
541.62
541.508
541.396
541.283
541.171
541.058
540.945
540.833
540.72
540.607
553.589
555.046
555.808
556.219
556.355
556.255
556.009
555.686
555.451
554.967
554.453
553.989
553.608
553.232
552.876
552.591
552.191
551.912
551.653
551.267
550.806
550.348
549.961
549.657
549.428
549.27
549.191
549.161
549.186
549.204
549.253
549.314
549.436
549.603
549.881
549.971
550.148
550.413
550.669
550.88
551.049
551.311
551.622
552.041
552.681
553.321
553.926
554.549
555.527
556.425
557.025
557.703
557.733
557.429
556.929
556.857
555.771
554.531
553.188
552.126
550.643
548.954
547.743
546.431
545.788
544.711
544.008
543.248
542.403
542.35
542.175
542.21
542
542.113
542.273
542.232
542.069
542.288
541.914
542.305
542.228
542.757
543.933
544.193
544.267
544.25
544.184
544.095
543.997
543.895
543.792
543.69
543.586
543.482
543.377
543.271
543.164
543.057
542.948
542.839
542.73
542.62
542.51
542.4
542.289
542.178
542.067
541.956
541.844
541.732
541.62
541.508
541.396
541.284
541.171
541.058