/*--------------------------------*- C++ -*----------------------------------*\
  =========                 |
  \\      /  F ield         | OpenFOAM: The Open Source CFD Toolbox
   \\    /   O peration     | Website:  https://openfoam.org
    \\  /    A nd           | Version:  6
     \\/     M anipulation  |
\*---------------------------------------------------------------------------*/
FoamFile
{
    version     2.0;
    format      ascii;
    class       volVectorField;
    location    "600";
    object      U;
}
// * * * * * * * * * * * * * * * * * * * * * * * * * * * * * * * * * * * * * //

dimensions      [0 1 -1 0 0 0 0];

internalField   nonuniform List<vector> 
4800
(
(-8.11926e-05 0 -0.000135325)
(0.000129567 0 -0.000217641)
(3.81024e-05 0 -0.000213019)
(2.65775e-05 0 -0.000105519)
(-3.68247e-05 0 -3.28529e-05)
(-0.000115758 0 -4.84807e-05)
(-0.000158076 0 -3.83204e-05)
(-0.000167851 0 -8.32777e-05)
(-0.000166316 0 -7.04371e-05)
(-0.000153225 0 -8.71076e-05)
(-0.000135951 0 -0.00010993)
(-6.11223e-05 0 -0.000145242)
(-1.46281e-05 0 -8.13766e-05)
(5.86856e-05 0 -6.28449e-05)
(0.000104515 0 -5.98026e-05)
(0.00013891 0 -7.51456e-05)
(0.000167058 0 -0.000113867)
(0.00017451 0 -9.40685e-05)
(0.000191711 0 -6.92817e-05)
(0.000221507 0 -5.47715e-05)
(0.000208357 0 -5.67942e-05)
(0.000173452 0 -0.000106373)
(0.000133775 0 -0.000160961)
(0.000120819 0 -0.000140576)
(7.13432e-05 0 -8.20009e-05)
(3.72013e-05 0 -1.19182e-05)
(-1.62508e-06 0 3.63608e-05)
(-7.84311e-05 0 5.86347e-05)
(-0.000183225 0 6.17918e-07)
(-0.000240787 0 -2.42597e-05)
(-0.000354921 0 -3.66116e-05)
(-0.000438684 0 -0.00015114)
(-0.000479161 0 -0.000103122)
(-0.000516294 0 -2.48917e-05)
(-0.000569782 0 -4.21757e-05)
(-0.000652357 0 -1.76259e-05)
(-0.000808547 0 0.000123903)
(-0.000936442 0 4.10475e-05)
(-0.00100152 0 -4.2878e-05)
(-0.00104106 0 -6.03701e-06)
(-0.00106414 0 -1.63828e-05)
(-0.0010759 0 -2.09932e-05)
(-0.00107929 0 -2.21775e-05)
(-0.00107528 0 -4.59182e-05)
(-0.00105964 0 -5.43116e-05)
(-0.00103187 0 2.84442e-06)
(-0.000991586 0 -4.16672e-05)
(-0.000956402 0 -6.62835e-05)
(-0.000930594 0 -6.67397e-05)
(-0.000903838 0 -1.2509e-05)
(-0.000864918 0 -1.60912e-05)
(-0.000840594 0 -2.99543e-05)
(-0.000835185 0 -5.05199e-05)
(-0.000822643 0 -9.18103e-05)
(-0.000789873 0 -6.97621e-05)
(-0.000781186 0 -3.75831e-05)
(-0.00078317 0 -4.24788e-05)
(-0.000755146 0 -3.5355e-05)
(-0.00068859 0 -2.7049e-05)
(-0.000657779 0 -1.53861e-05)
(-0.000625181 0 -1.2214e-05)
(-0.000537671 0 -2.86708e-05)
(-0.000458883 0 -3.50188e-05)
(-0.000409224 0 -4.45344e-05)
(-0.000326984 0 -6.51238e-05)
(-0.00021452 0 -8.06796e-05)
(-9.4893e-05 0 -6.16346e-05)
(-1.8206e-05 0 -1.16796e-05)
(-1.59929e-05 0 -0.000152487)
(0.000184061 0 -0.000114179)
(0.000265545 0 -0.0001039)
(0.000360632 0 -4.4103e-05)
(0.000361341 0 -2.23351e-05)
(0.000317952 0 1.92995e-05)
(9.29762e-06 0 3.57125e-05)
(-0.000385567 0 -0.000288722)
(-0.00029738 0 -0.000192341)
(-0.000515988 0 -0.000284411)
(-0.00060135 0 -0.000276628)
(4.28588e-06 0 -0.000293905)
(4.37846e-14 0 -1.10179e-13)
(-9.68527e-13 0 -8.71524e-14)
(2.23581e-13 0 -6.43178e-14)
(3.37644e-13 0 -5.01986e-14)
(4.29977e-13 0 -4.27606e-14)
(5.10911e-13 0 -3.90425e-14)
(5.85864e-13 0 -3.69809e-14)
(6.57158e-13 0 -3.53673e-14)
(7.25063e-13 0 -3.36906e-14)
(7.89273e-13 0 -3.16919e-14)
(8.49005e-13 0 -2.92535e-14)
(9.03421e-13 0 -2.63572e-14)
(9.5175e-13 0 -2.30636e-14)
(9.93308e-13 0 -1.94758e-14)
(1.0275e-12 0 -1.56839e-14)
(1.05389e-12 0 -1.17487e-14)
(1.07226e-12 0 -7.72777e-15)
(1.08264e-12 0 -3.69465e-15)
(1.08515e-12 0 2.71563e-16)
(1.08006e-12 0 4.1073e-15)
(1.06766e-12 0 7.77124e-15)
(1.04836e-12 0 1.1233e-14)
(1.02259e-12 0 1.44639e-14)
(9.90876e-13 0 1.744e-14)
(9.53766e-13 0 2.0146e-14)
(9.11819e-13 0 2.25654e-14)
(8.65539e-13 0 2.46745e-14)
(8.1531e-13 0 2.64624e-14)
(7.61419e-13 0 2.79624e-14)
(7.04178e-13 0 2.92553e-14)
(6.44037e-13 0 3.04315e-14)
(5.81559e-13 0 3.15408e-14)
(5.17279e-13 0 3.25705e-14)
(4.51562e-13 0 3.34685e-14)
(3.84585e-13 0 3.41845e-14)
(3.16434e-13 0 3.47036e-14)
(2.47224e-13 0 3.50509e-14)
(1.77157e-13 0 3.52725e-14)
(1.06498e-13 0 3.54052e-14)
(3.55276e-14 0 3.54489e-14)
(-4.81932e-05 0 2.76779e-05)
(-3.62769e-05 0 7.50143e-05)
(-0.000116959 0 8.3201e-05)
(-0.000152595 0 7.67215e-05)
(-0.00016915 0 0.000122082)
(-0.000224999 0 9.95934e-05)
(-0.000229875 0 9.14743e-05)
(-0.000226116 0 9.01294e-05)
(-0.000223138 0 3.13881e-05)
(-0.000195083 0 2.78748e-05)
(-0.000167881 0 1.62549e-05)
(-0.000143894 0 -4.46771e-06)
(-0.000113591 0 -2.85628e-05)
(-8.24286e-05 0 -6.60999e-05)
(-2.16371e-05 0 -0.00010645)
(1.18572e-06 0 -2.91666e-05)
(6.08799e-05 0 8.13502e-05)
(6.08834e-05 0 4.94722e-05)
(2.98621e-05 0 6.44873e-06)
(9.407e-06 0 1.03772e-05)
(1.48003e-05 0 4.96911e-05)
(6.33733e-05 0 0.000109269)
(4.83648e-05 0 0.00011776)
(-1.60996e-05 0 7.73384e-05)
(-0.000110896 0 3.59187e-05)
(-0.000122571 0 6.76762e-05)
(-0.00018393 0 5.98403e-05)
(-0.000228218 0 0.000121294)
(-0.000378276 0 8.85515e-05)
(-0.00046092 0 0.000121451)
(-0.000509799 0 0.000162219)
(-0.000527395 0 0.0001657)
(-0.000541633 0 0.000124704)
(-0.000681012 0 1.94635e-05)
(-0.000783464 0 0.000154948)
(-0.000812022 0 0.000185521)
(-0.000833873 0 5.99907e-05)
(-0.000880393 0 3.4641e-05)
(-0.000947425 0 0.00010874)
(-0.000992991 0 5.29465e-05)
(-0.00102363 0 3.20707e-05)
(-0.00104479 0 3.89114e-05)
(-0.00106048 0 1.6813e-05)
(-0.00107033 0 5.69991e-06)
(-0.00107093 0 -9.10952e-06)
(-0.00104264 0 -6.05983e-05)
(-0.00101986 0 -6.07694e-05)
(-0.001003 0 -6.31662e-05)
(-0.000977759 0 -7.1964e-05)
(-0.000947827 0 -5.44996e-05)
(-0.000925068 0 -5.05408e-05)
(-0.000910485 0 -5.04387e-05)
(-0.000892008 0 -4.11324e-05)
(-0.000856541 0 1.09609e-05)
(-0.000826718 0 5.09903e-06)
(-0.000818993 0 2.57333e-07)
(-0.00082159 0 -1.42555e-06)
(-0.000798706 0 -5.39028e-05)
(-0.000740998 0 -0.000139023)
(-0.000699632 0 -0.000170032)
(-0.000689501 0 0.000131188)
(-0.000577125 0 -0.000316309)
(-0.000561959 0 -2.64235e-05)
(-0.000497538 0 -0.000105598)
(-0.000431578 0 -9.926e-05)
(-0.000329214 0 -0.000123909)
(-0.000205536 0 -0.000153724)
(-0.000100018 0 -0.000140208)
(-4.20834e-06 0 -0.000127437)
(0.00011891 0 -0.000138864)
(0.00021001 0 -0.000107499)
(0.000304335 0 -5.47519e-05)
(0.000381206 0 6.31864e-05)
(0.000450767 0 0.000226422)
(0.000331122 0 0.000280054)
(0.000395834 0 0.000361435)
(0.000248819 0 0.00023638)
(0.00029457 0 0.000197851)
(-0.000495735 0 -5.19621e-05)
(4.73022e-06 0 -0.000250127)
(5.81714e-14 0 -3.97367e-13)
(-9.37719e-13 0 -2.63158e-13)
(2.59203e-13 0 -1.84814e-13)
(3.5832e-13 0 -1.44575e-13)
(4.40692e-13 0 -1.25222e-13)
(5.16635e-13 0 -1.16016e-13)
(5.89631e-13 0 -1.10897e-13)
(6.60449e-13 0 -1.06633e-13)
(7.28739e-13 0 -1.01844e-13)
(7.9371e-13 0 -9.58772e-14)
(8.5434e-13 0 -8.85131e-14)
(9.09611e-13 0 -7.97873e-14)
(9.58631e-13 0 -6.9883e-14)
(1.00069e-12 0 -5.9054e-14)
(1.03523e-12 0 -4.75499e-14)
(1.06184e-12 0 -3.55905e-14)
(1.08032e-12 0 -2.33857e-14)
(1.09064e-12 0 -1.11569e-14)
(1.09296e-12 0 8.70029e-16)
(1.08755e-12 0 1.24991e-14)
(1.07479e-12 0 2.35901e-14)
(1.05505e-12 0 3.40492e-14)
(1.0288e-12 0 4.37966e-14)
(9.96559e-13 0 5.27466e-14)
(9.58891e-13 0 6.08085e-14)
(9.16348e-13 0 6.79112e-14)
(8.69437e-13 0 7.40467e-14)
(8.18598e-13 0 7.93099e-14)
(7.64211e-13 0 8.38914e-14)
(7.06647e-13 0 8.80042e-14)
(6.46322e-13 0 9.17856e-14)
(5.83698e-13 0 9.52435e-14)
(5.19207e-13 0 9.82851e-14)
(4.53176e-13 0 1.00801e-13)
(3.8582e-13 0 1.02742e-13)
(3.173e-13 0 1.04153e-13)
(2.47793e-13 0 1.05138e-13)
(1.77511e-13 0 1.05815e-13)
(1.06674e-13 0 1.06251e-13)
(3.55713e-14 0 1.06458e-13)
(-9.21029e-05 0 3.45155e-06)
(-8.34082e-05 0 9.61068e-05)
(-0.00020006 0 0.000108795)
(-0.000221596 0 0.000149328)
(-0.000248583 0 0.000124476)
(-0.000272961 0 5.46759e-05)
(-0.00026263 0 -6.69843e-06)
(-0.000256494 0 -2.37827e-05)
(-0.000262899 0 -6.30644e-05)
(-0.000251159 0 -9.38438e-05)
(-0.000231084 0 -0.000124736)
(-0.00019397 0 -0.000175445)
(-0.000202049 0 -0.000112704)
(-0.000186705 0 -0.000135738)
(-0.000152925 0 -0.000153373)
(-9.2214e-05 0 -0.00015546)
(-8.84368e-05 0 -0.000112072)
(-8.9869e-05 0 -0.00011078)
(-0.000111665 0 -9.1968e-05)
(-0.000125613 0 3.50739e-05)
(-0.000105167 0 -1.32372e-05)
(-0.000101525 0 2.40463e-05)
(-0.000107572 0 8.79233e-05)
(-0.000142024 0 0.000132887)
(-0.000226231 0 9.89512e-05)
(-0.000265468 0 0.000143596)
(-0.0003518 0 0.00011415)
(-0.00036925 0 0.000186964)
(-0.000445575 0 0.000198753)
(-0.000498101 0 0.000185872)
(-0.000527132 0 0.000154212)
(-0.000555451 0 8.56571e-05)
(-0.000616963 0 9.79738e-05)
(-0.000700857 0 0.000152793)
(-0.000757328 0 0.000192142)
(-0.000800142 0 0.000235186)
(-0.000837578 0 0.000254049)
(-0.000893054 0 0.000127776)
(-0.000920798 0 7.52937e-05)
(-0.000948783 0 4.00449e-05)
(-0.00097119 0 4.76847e-05)
(-0.000985984 0 2.30601e-05)
(-0.000993713 0 -3.60429e-07)
(-0.000998916 0 -1.49694e-05)
(-0.00100397 0 -3.61541e-05)
(-0.00101069 0 -3.38749e-05)
(-0.00101358 0 -4.68147e-05)
(-0.00101376 0 -5.55621e-05)
(-0.00100405 0 -5.64767e-05)
(-0.000976793 0 -4.47791e-05)
(-0.000948565 0 -4.93502e-05)
(-0.000930318 0 -5.90447e-05)
(-0.000914524 0 -6.09985e-05)
(-0.000894633 0 -6.05306e-05)
(-0.000870965 0 -7.03282e-05)
(-0.000846053 0 -4.37583e-05)
(-0.000830181 0 -1.81209e-05)
(-0.000828102 0 -2.11013e-05)
(-0.000797933 0 -0.000206157)
(-0.000755622 0 -5.39451e-05)
(-0.000701733 0 -4.41631e-05)
(-0.000607692 0 -0.000288843)
(-0.000594822 0 -0.00012492)
(-0.000513703 0 -0.000211745)
(-0.000466344 0 -0.000210727)
(-0.000355189 0 -0.000285959)
(-0.000248477 0 -0.000293083)
(-0.000193792 0 -0.000258588)
(-0.000113964 0 -0.000292971)
(3.22549e-05 0 -0.000318269)
(6.40999e-05 0 -0.000285717)
(0.000258952 0 -0.000153913)
(0.000358689 0 -3.78412e-05)
(0.000425883 0 0.000182014)
(0.000496306 0 0.000234906)
(0.000514727 0 0.000291807)
(0.000424313 0 0.000290304)
(0.00042098 0 0.000174103)
(-4.63598e-05 0 1.42271e-05)
(4.84213e-06 0 -0.000122738)
(2.10012e-13 0 -6.29298e-13)
(-7.82016e-13 0 -3.82213e-13)
(3.41093e-13 0 -2.67608e-13)
(3.96617e-13 0 -2.18504e-13)
(4.58356e-13 0 -1.97961e-13)
(5.25395e-13 0 -1.89144e-13)
(5.95424e-13 0 -1.83964e-13)
(6.66212e-13 0 -1.78529e-13)
(7.35819e-13 0 -1.71273e-13)
(8.02603e-13 0 -1.61537e-13)
(8.65095e-13 0 -1.4921e-13)
(9.22051e-13 0 -1.34491e-13)
(9.72483e-13 0 -1.17744e-13)
(1.01564e-12 0 -9.93964e-14)
(1.05096e-12 0 -7.98812e-14)
(1.07805e-12 0 -5.96117e-14)
(1.0967e-12 0 -3.89809e-14)
(1.10689e-12 0 -1.83729e-14)
(1.10881e-12 0 1.8352e-15)
(1.10278e-12 0 2.13145e-14)
(1.08921e-12 0 3.98284e-14)
(1.06856e-12 0 5.72271e-14)
(1.04129e-12 0 7.34012e-14)
(1.00789e-12 0 8.8241e-14)
(9.68931e-13 0 1.01633e-13)
(9.25058e-13 0 1.13502e-13)
(8.76938e-13 0 1.23869e-13)
(8.25155e-13 0 1.32895e-13)
(7.70113e-13 0 1.40833e-13)
(7.12072e-13 0 1.4792e-13)
(6.51276e-13 0 1.54278e-13)
(5.88059e-13 0 1.59887e-13)
(5.22837e-13 0 1.64657e-13)
(4.56019e-13 0 1.68526e-13)
(3.87937e-13 0 1.71523e-13)
(3.1883e-13 0 1.73766e-13)
(2.48886e-13 0 1.75413e-13)
(1.7827e-13 0 1.76593e-13)
(1.07141e-13 0 1.77372e-13)
(3.57345e-14 0 1.77782e-13)
(-3.15163e-05 0 8.30273e-05)
(-6.52188e-05 0 0.000171712)
(-0.000214163 0 0.000168618)
(-0.000284532 0 0.000122819)
(-0.00027334 0 0.000147811)
(-0.000278063 0 0.00012681)
(-0.000317304 0 4.15752e-05)
(-0.000325733 0 3.74387e-05)
(-0.00032943 0 1.264e-05)
(-0.000325892 0 -2.40556e-05)
(-0.000324481 0 -5.82644e-05)
(-0.000321049 0 -7.18514e-05)
(-0.000287016 0 -0.000147767)
(-0.000296204 0 -9.55609e-05)
(-0.000295565 0 -1.03008e-05)
(-0.000262126 0 -5.11953e-05)
(-0.00023892 0 -5.16344e-05)
(-0.000224717 0 2.4353e-05)
(-0.000212326 0 1.42585e-05)
(-0.000205065 0 1.17006e-05)
(-0.00021399 0 2.37638e-05)
(-0.000223179 0 1.73153e-06)
(-0.000229055 0 7.04496e-05)
(-0.000291368 0 9.00798e-05)
(-0.000349988 0 0.000158606)
(-0.000390158 0 0.000229944)
(-0.000450073 0 0.00023509)
(-0.000466382 0 0.000248493)
(-0.000489947 0 0.000234263)
(-0.000511397 0 0.000211467)
(-0.000524254 0 0.000192672)
(-0.000560362 0 0.00013733)
(-0.000631126 0 0.000189597)
(-0.000688672 0 0.000254848)
(-0.000738498 0 0.000239967)
(-0.000789173 0 0.000202103)
(-0.000821667 0 0.000244026)
(-0.000866525 0 0.000207964)
(-0.000891526 0 0.000177306)
(-0.000913197 0 0.000107419)
(-0.000932112 0 5.98562e-05)
(-0.000943586 0 5.0536e-05)
(-0.000950037 0 2.15218e-05)
(-0.000953213 0 -2.03646e-06)
(-0.000955995 0 -3.33608e-05)
(-0.000964729 0 -4.9511e-05)
(-0.000967075 0 -7.12176e-05)
(-0.000963264 0 -9.1877e-05)
(-0.000959085 0 -0.000100539)
(-0.000957055 0 -7.99467e-05)
(-0.000944572 0 -9.30118e-05)
(-0.000925676 0 -6.74634e-05)
(-0.000908188 0 -5.77532e-05)
(-0.000898106 0 -4.56074e-05)
(-0.000891642 0 -3.19936e-05)
(-0.000875212 0 -3.35936e-05)
(-0.000832347 0 -6.95954e-05)
(-0.000793105 0 -9.75556e-05)
(-0.000763821 0 -0.000137742)
(-0.000725204 0 -0.000166816)
(-0.000659419 0 -0.000168994)
(-0.000623056 0 -0.000151594)
(-0.000550903 0 -0.000247492)
(-0.00051014 0 -0.000219527)
(-0.00044209 0 -0.000283683)
(-0.000340582 0 -0.00035299)
(-0.000308855 0 -0.00031914)
(-0.000256303 0 -0.000329399)
(-0.000112233 0 -0.000412458)
(3.70583e-05 0 -0.000410668)
(4.79821e-05 0 -0.000335286)
(0.000141072 0 -0.000341749)
(0.000376871 0 -0.000136136)
(0.000425921 0 7.23333e-05)
(0.000468951 0 0.000140631)
(0.000502229 0 0.000266702)
(0.000475032 0 0.000300702)
(0.000461484 0 0.000267736)
(2.76753e-05 0 0.000230244)
(4.87165e-06 0 -1.67082e-06)
(3.29133e-13 0 -4.58131e-13)
(-5.80452e-13 0 -3.48223e-13)
(4.23421e-13 0 -2.84616e-13)
(4.28486e-13 0 -2.63487e-13)
(4.70573e-13 0 -2.58526e-13)
(5.31059e-13 0 -2.58027e-13)
(6.00414e-13 0 -2.56563e-13)
(6.7314e-13 0 -2.51686e-13)
(7.45731e-13 0 -2.42647e-13)
(8.15773e-13 0 -2.29302e-13)
(8.81386e-13 0 -2.11876e-13)
(9.41077e-13 0 -1.90826e-13)
(9.93726e-13 0 -1.66768e-13)
(1.03855e-12 0 -1.40399e-13)
(1.07501e-12 0 -1.12412e-13)
(1.10274e-12 0 -8.3455e-14)
(1.12156e-12 0 -5.41152e-14)
(1.13145e-12 0 -2.49365e-14)
(1.13264e-12 0 3.55601e-15)
(1.12555e-12 0 3.09005e-14)
(1.1107e-12 0 5.67686e-14)
(1.08862e-12 0 8.09811e-14)
(1.05981e-12 0 1.03457e-13)
(1.02479e-12 0 1.24153e-13)
(9.84152e-13 0 1.4302e-13)
(9.38584e-13 0 1.59993e-13)
(8.8883e-13 0 1.7503e-13)
(8.35562e-13 0 1.88166e-13)
(7.79237e-13 0 1.99547e-13)
(7.20092e-13 0 2.09396e-13)
(6.58289e-13 0 2.17922e-13)
(5.94078e-13 0 2.2526e-13)
(5.27846e-13 0 2.31469e-13)
(4.60041e-13 0 2.36582e-13)
(3.9106e-13 0 2.40665e-13)
(3.21191e-13 0 2.43828e-13)
(2.50619e-13 0 2.46204e-13)
(1.7947e-13 0 2.47907e-13)
(1.07863e-13 0 2.49014e-13)
(3.59814e-14 0 2.49583e-13)
(-0.000100688 0 0.000130361)
(-0.00019619 0 0.000194878)
(-0.000224707 0 0.000228326)
(-0.000273873 0 0.000190832)
(-0.000311226 0 0.000134116)
(-0.000317067 0 0.000105434)
(-0.000359521 0 3.94951e-05)
(-0.000378047 0 9.83054e-06)
(-0.000376546 0 -2.68291e-05)
(-0.000374412 0 -0.000108286)
(-0.000376535 0 -0.000117717)
(-0.000367749 0 -0.000141128)
(-0.000375817 0 -0.000156404)
(-0.000376004 0 -0.000163512)
(-0.000351724 0 -0.000180826)
(-0.000358775 0 -0.000140371)
(-0.000371458 0 -9.04506e-05)
(-0.000346818 0 -1.15795e-05)
(-0.000314116 0 -2.35837e-05)
(-0.000302229 0 2.57215e-05)
(-0.000317908 0 5.05384e-05)
(-0.000362357 0 9.68232e-05)
(-0.000389347 0 0.000130242)
(-0.000420413 0 0.000185633)
(-0.000473981 0 0.000209461)
(-0.000491371 0 0.000269324)
(-0.000525651 0 0.000260988)
(-0.000532209 0 0.000268118)
(-0.000532614 0 0.000241284)
(-0.000527936 0 0.000224869)
(-0.000527355 0 0.000220616)
(-0.000560108 0 0.000194196)
(-0.000622561 0 0.000221514)
(-0.000664791 0 0.000291309)
(-0.000708266 0 0.000301796)
(-0.000748234 0 0.000287339)
(-0.000780605 0 0.000263962)
(-0.000812199 0 0.000216414)
(-0.000837774 0 0.000159846)
(-0.000861847 0 7.61571e-05)
(-0.000869994 0 7.06593e-05)
(-0.000872199 0 5.2085e-05)
(-0.000869382 0 1.94713e-05)
(-0.000873164 0 8.64706e-06)
(-0.000889042 0 -1.97232e-05)
(-0.000898708 0 -2.29979e-05)
(-0.000896316 0 -4.78365e-05)
(-0.000884186 0 -7.39392e-05)
(-0.000879786 0 -7.86055e-05)
(-0.000872977 0 -9.68776e-05)
(-0.000865994 0 -9.05327e-05)
(-0.000852949 0 -0.00010029)
(-0.000833739 0 -8.93306e-05)
(-0.000806628 0 -0.000107202)
(-0.000792122 0 -0.000115314)
(-0.000778468 0 -0.000105443)
(-0.000745191 0 -3.59421e-05)
(-0.00068584 0 -0.00012623)
(-0.000617396 0 -0.000261008)
(-0.000614367 0 -0.000158465)
(-0.000555463 0 -0.000247075)
(-0.000466028 0 -0.000392941)
(-0.000525054 0 -0.000180538)
(-0.000408364 0 -0.000339333)
(-0.000411071 0 -0.000309282)
(-0.000312808 0 -0.000401103)
(-0.000269614 0 -0.000417789)
(-0.000187594 0 -0.000462584)
(-0.000113717 0 -0.000485435)
(-5.67072e-05 0 -0.000506204)
(9.22465e-05 0 -0.000496403)
(0.000110474 0 -0.000440814)
(0.000358666 0 -0.000257136)
(0.000428361 0 5.20519e-05)
(0.000421991 0 0.000139831)
(0.000444038 0 0.000221596)
(0.000438813 0 0.00032023)
(0.000425121 0 0.000320566)
(2.55381e-05 0 0.00033331)
(4.8824e-06 0 0.000224449)
(3.44706e-13 0 -4.73043e-14)
(-5.7007e-13 0 -2.11696e-13)
(4.26338e-13 0 -2.58846e-13)
(4.23219e-13 0 -2.91945e-13)
(4.64325e-13 0 -3.14223e-13)
(5.27768e-13 0 -3.27317e-13)
(6.01923e-13 0 -3.31947e-13)
(6.80127e-13 0 -3.28609e-13)
(7.58203e-13 0 -3.18007e-13)
(8.33374e-13 0 -3.0083e-13)
(9.03571e-13 0 -2.77845e-13)
(9.6716e-13 0 -2.49885e-13)
(1.02291e-12 0 -2.17874e-13)
(1.07e-12 0 -1.82808e-13)
(1.10791e-12 0 -1.45679e-13)
(1.13635e-12 0 -1.07419e-13)
(1.15522e-12 0 -6.88403e-14)
(1.16456e-12 0 -3.06409e-14)
(1.16465e-12 0 6.52619e-15)
(1.15599e-12 0 4.20664e-14)
(1.13929e-12 0 7.55376e-14)
(1.11525e-12 0 1.06719e-13)
(1.08446e-12 0 1.35574e-13)
(1.04745e-12 0 1.62152e-13)
(1.00477e-12 0 1.86474e-13)
(9.57068e-13 0 2.08479e-13)
(9.0511e-13 0 2.28046e-13)
(8.49672e-13 0 2.45105e-13)
(7.91343e-13 0 2.59731e-13)
(7.30447e-13 0 2.72161e-13)
(6.6714e-13 0 2.82711e-13)
(6.01606e-13 0 2.91668e-13)
(5.34159e-13 0 2.99233e-13)
(4.65216e-13 0 3.05525e-13)
(3.95182e-13 0 3.10634e-13)
(3.24369e-13 0 3.14656e-13)
(2.52964e-13 0 3.17701e-13)
(1.8108e-13 0 3.19878e-13)
(1.08817e-13 0 3.21284e-13)
(3.63033e-14 0 3.21996e-13)
(-1.03039e-05 0 0.000201474)
(3.71456e-05 0 0.000374719)
(-7.23659e-05 0 0.000376329)
(-0.000293055 0 0.00023944)
(-0.000277906 0 0.000230192)
(-0.000386063 0 9.62725e-05)
(-0.000385609 0 0.000114835)
(-0.000385778 0 0.000123613)
(-0.000437719 0 -4.39891e-05)
(-0.000448375 0 -5.29841e-05)
(-0.000444355 0 -6.45901e-05)
(-0.000442247 0 -0.000126458)
(-0.000463025 0 -0.000127629)
(-0.00046994 0 -0.000113114)
(-0.000471481 0 -0.000115409)
(-0.000471356 0 -0.000127676)
(-0.000470374 0 -9.34632e-05)
(-0.000461957 0 -7.27363e-05)
(-0.000465454 0 -5.23503e-05)
(-0.000472496 0 -3.53498e-05)
(-0.000482145 0 6.05066e-05)
(-0.000521974 0 0.000105867)
(-0.000561376 0 8.32258e-05)
(-0.000562722 0 0.000182033)
(-0.000572631 0 0.000239179)
(-0.00058343 0 0.000242205)
(-0.000576764 0 0.000253349)
(-0.00054739 0 0.00025058)
(-0.000531783 0 0.000237874)
(-0.00052461 0 0.000227207)
(-0.000519698 0 0.000233894)
(-0.00054138 0 0.000264885)
(-0.000594462 0 0.000294588)
(-0.000634739 0 0.000319342)
(-0.000671309 0 0.000325591)
(-0.000702644 0 0.000312484)
(-0.000728188 0 0.000281965)
(-0.000751438 0 0.000232836)
(-0.000762392 0 0.00019973)
(-0.000773463 0 0.000154849)
(-0.000793582 0 8.67802e-05)
(-0.000797835 0 6.56692e-05)
(-0.000798906 0 2.79536e-05)
(-0.00080308 0 4.14781e-06)
(-0.000806904 0 -1.08391e-05)
(-0.000809333 0 -1.35735e-05)
(-0.000797159 0 -9.20066e-05)
(-0.00077373 0 -9.64154e-05)
(-0.000761372 0 -9.09309e-05)
(-0.000757531 0 -8.83444e-05)
(-0.000743343 0 -0.000121123)
(-0.000715483 0 -0.000138355)
(-0.000698054 0 -7.57632e-05)
(-0.000660272 0 -0.000112173)
(-0.000637174 0 -0.000111152)
(-0.000604948 0 -0.000131902)
(-0.000569823 0 -0.000147056)
(-0.000544465 0 -0.000169294)
(-0.000511838 0 -0.000217115)
(-0.000472036 0 -0.000248637)
(-0.000459557 0 -0.000249606)
(-0.000458193 0 -0.000244155)
(-0.000364432 0 -0.000353327)
(-0.000350723 0 -0.000344246)
(-0.000282703 0 -0.000403676)
(-0.000312963 0 -0.000402089)
(-0.000221754 0 -0.000485892)
(-0.000184585 0 -0.000525056)
(-8.59938e-05 0 -0.000561973)
(-8.81318e-05 0 -0.000574953)
(8.00603e-05 0 -0.000591642)
(0.000111385 0 -0.000501745)
(8.58149e-05 0 -0.000405619)
(0.000372009 0 8.29475e-05)
(0.000355444 0 0.000174938)
(0.000358916 0 0.000230824)
(0.000336266 0 0.000362613)
(0.000337024 0 0.000406781)
(-9.67524e-05 0 0.000409872)
(5.04478e-06 0 0.000401829)
(2.57714e-13 0 3.6668e-13)
(-7.02655e-13 0 -9.26035e-14)
(3.43695e-13 0 -2.46792e-13)
(3.73618e-13 0 -3.30901e-13)
(4.35699e-13 0 -3.78823e-13)
(5.13726e-13 0 -4.04675e-13)
(5.99267e-13 0 -4.14818e-13)
(6.87079e-13 0 -4.12485e-13)
(7.7351e-13 0 -3.99732e-13)
(8.55936e-13 0 -3.78026e-13)
(9.32331e-13 0 -3.48674e-13)
(1.00105e-12 0 -3.12925e-13)
(1.0608e-12 0 -2.72059e-13)
(1.11074e-12 0 -2.27391e-13)
(1.1504e-12 0 -1.80228e-13)
(1.17958e-12 0 -1.31803e-13)
(1.19834e-12 0 -8.31827e-14)
(1.20682e-12 0 -3.52351e-14)
(1.20535e-12 0 1.12697e-14)
(1.19456e-12 0 5.56131e-14)
(1.17535e-12 0 9.72101e-14)
(1.14866e-12 0 1.35726e-13)
(1.11524e-12 0 1.71098e-13)
(1.07569e-12 0 2.03439e-13)
(1.03048e-12 0 2.3289e-13)
(9.80155e-13 0 2.5949e-13)
(9.25456e-13 0 2.83165e-13)
(8.67247e-13 0 3.03824e-13)
(8.06293e-13 0 3.21505e-13)
(7.43071e-13 0 3.36433e-13)
(6.77796e-13 0 3.48975e-13)
(6.106e-13 0 3.59515e-13)
(5.41704e-13 0 3.6836e-13)
(4.71442e-13 0 3.75713e-13)
(4.0019e-13 0 3.81708e-13)
(3.28257e-13 0 3.86454e-13)
(2.55842e-13 0 3.90061e-13)
(1.83053e-13 0 3.92644e-13)
(1.09981e-13 0 3.94311e-13)
(3.66933e-14 0 3.95149e-13)
(-0.000221542 0 0.000260714)
(-0.000403449 0 0.000259536)
(-0.00023705 0 0.000373535)
(-0.000277651 0 0.000317926)
(-0.000369488 0 0.000194716)
(-0.000358294 0 0.000215863)
(-0.000425301 0 0.000102042)
(-0.000457271 0 -8.62828e-06)
(-0.000479451 0 1.71095e-05)
(-0.000483445 0 -1.68981e-05)
(-0.000478428 0 -0.000142602)
(-0.000514921 0 -0.000103378)
(-0.000525245 0 -0.000116782)
(-0.000529365 0 -0.00012464)
(-0.000540954 0 -0.000130028)
(-0.000559714 0 -0.000111921)
(-0.000570889 0 -9.96928e-05)
(-0.000582881 0 -4.29424e-05)
(-0.000606976 0 6.75221e-05)
(-0.000626657 0 5.55001e-05)
(-0.00062453 0 8.98295e-05)
(-0.000606013 0 0.000205282)
(-0.000615522 0 0.000244675)
(-0.000617244 0 0.000249595)
(-0.000609901 0 0.000273798)
(-0.000579666 0 0.000306974)
(-0.000582018 0 0.000225094)
(-0.000547075 0 0.000225454)
(-0.000522649 0 0.000225857)
(-0.000511301 0 0.000221789)
(-0.000507505 0 0.000228408)
(-0.000522148 0 0.000288991)
(-0.000563171 0 0.000336375)
(-0.000587771 0 0.000365199)
(-0.000616982 0 0.000362088)
(-0.000646013 0 0.000336276)
(-0.000651715 0 0.000329788)
(-0.000666566 0 0.000290113)
(-0.000687201 0 0.000223613)
(-0.000720075 0 8.73939e-05)
(-0.000718511 0 9.91346e-05)
(-0.000736132 0 4.97612e-05)
(-0.000749514 0 1.65157e-05)
(-0.00075465 0 1.40562e-05)
(-0.000745548 0 -2.65882e-05)
(-0.000734723 0 -4.06522e-05)
(-0.000729933 0 -5.69764e-05)
(-0.000696797 0 -0.000110408)
(-0.000660163 0 -0.000112218)
(-0.000646718 0 -9.67053e-05)
(-0.00062696 0 -0.000121663)
(-0.000589328 0 -0.000149772)
(-0.000558689 0 -0.000127647)
(-0.000510862 0 -0.00015356)
(-0.000479942 0 -0.000150446)
(-0.000458596 0 -0.000144541)
(-0.00044084 0 -0.000165325)
(-0.000422558 0 -0.000207475)
(-0.000410937 0 -0.000234482)
(-0.000389424 0 -0.000262324)
(-0.000368327 0 -0.000289855)
(-0.000342941 0 -0.000323079)
(-0.00032583 0 -0.000335525)
(-0.00026835 0 -0.000391145)
(-0.000239759 0 -0.000410537)
(-0.000231411 0 -0.000451028)
(-0.000183515 0 -0.000525615)
(-0.000142025 0 -0.000596059)
(-8.84333e-05 0 -0.000633843)
(-8.35501e-06 0 -0.000651251)
(4.58832e-06 0 -0.000661775)
(9.19329e-05 0 -0.000572845)
(0.000116151 0 -0.000306215)
(0.000292064 0 -0.000167676)
(0.000332403 0 0.000125515)
(0.000287368 0 0.000249808)
(0.000254526 0 0.000361147)
(0.000299905 0 0.000450628)
(-0.000180922 0 0.000502708)
(5.00949e-06 0 0.000559747)
(1.31991e-13 0 3.22505e-13)
(-1.04704e-12 0 -1.35602e-13)
(1.88573e-13 0 -3.04565e-13)
(2.91692e-13 0 -4.05841e-13)
(3.91037e-13 0 -4.65376e-13)
(4.92142e-13 0 -4.97559e-13)
(5.94245e-13 0 -5.09926e-13)
(6.95214e-13 0 -5.06633e-13)
(7.92662e-13 0 -4.90315e-13)
(8.84433e-13 0 -4.62858e-13)
(9.68672e-13 0 -4.25954e-13)
(1.04377e-12 0 -3.81218e-13)
(1.10844e-12 0 -3.30296e-13)
(1.16183e-12 0 -2.74848e-13)
(1.20349e-12 0 -2.16512e-13)
(1.23339e-12 0 -1.56855e-13)
(1.25178e-12 0 -9.72264e-14)
(1.25902e-12 0 -3.86777e-14)
(1.25549e-12 0 1.79279e-14)
(1.24193e-12 0 7.17765e-14)
(1.21941e-12 0 1.22128e-13)
(1.18914e-12 0 1.68466e-13)
(1.15217e-12 0 2.10607e-13)
(1.10924e-12 0 2.48679e-13)
(1.06082e-12 0 2.82964e-13)
(1.00734e-12 0 3.13709e-13)
(9.49444e-13 0 3.41015e-13)
(8.88011e-13 0 3.64884e-13)
(8.23952e-13 0 3.85361e-13)
(7.57917e-13 0 4.02644e-13)
(6.90222e-13 0 4.17091e-13)
(6.20991e-13 0 4.29123e-13)
(5.50357e-13 0 4.39123e-13)
(4.78564e-13 0 4.47376e-13)
(4.05923e-13 0 4.54084e-13)
(3.32721e-13 0 4.59396e-13)
(2.59155e-13 0 4.63441e-13)
(1.8533e-13 0 4.66345e-13)
(1.11322e-13 0 4.68221e-13)
(3.71409e-14 0 4.69157e-13)
(-0.00025644 0 0.000411591)
(-8.3839e-05 0 0.000520681)
(-0.000214342 0 0.000453039)
(-0.000340794 0 0.000348968)
(-0.000294272 0 0.000346329)
(-0.000413485 0 0.000183105)
(-0.000394344 0 0.000198434)
(-0.000471885 0 0.000100929)
(-0.000496241 0 4.38469e-05)
(-0.000510051 0 -6.17087e-05)
(-0.000535067 0 -8.01535e-05)
(-0.000564011 0 -6.55731e-05)
(-0.000569687 0 -0.000122023)
(-0.000575897 0 -0.000138069)
(-0.000589414 0 -0.000112916)
(-0.000612327 0 -9.42872e-05)
(-0.000647712 0 -6.4758e-05)
(-0.000663499 0 -4.56193e-05)
(-0.000676346 0 1.56052e-06)
(-0.000701702 0 4.50482e-05)
(-0.000707575 0 6.14086e-05)
(-0.000678837 0 0.000102907)
(-0.000668067 0 0.000108948)
(-0.000659174 0 0.000149685)
(-0.000601888 0 0.000277109)
(-0.000573866 0 0.000264745)
(-0.000565119 0 0.000201654)
(-0.000537017 0 0.000184783)
(-0.000502376 0 0.00021256)
(-0.000493001 0 0.000209354)
(-0.000487327 0 0.000235231)
(-0.000497748 0 0.000309087)
(-0.000527587 0 0.000359003)
(-0.00054524 0 0.000382172)
(-0.000563734 0 0.000381965)
(-0.000583554 0 0.000360241)
(-0.000606517 0 0.000296783)
(-0.000606508 0 0.000262656)
(-0.000632911 0 0.000205849)
(-0.000655385 0 0.000172082)
(-0.000660967 0 0.000112155)
(-0.000655834 0 9.78151e-05)
(-0.000676554 0 4.20159e-05)
(-0.000682909 0 2.86508e-05)
(-0.000684856 0 -3.6522e-06)
(-0.000673483 0 -9.02155e-05)
(-0.000650075 0 -0.00015247)
(-0.000630653 0 -0.000101704)
(-0.000571202 0 -0.0001931)
(-0.000551454 0 -0.00013478)
(-0.000510318 0 -0.000149497)
(-0.000465122 0 -0.000187235)
(-0.00044684 0 -0.00017241)
(-0.000407353 0 -0.000183304)
(-0.000374239 0 -0.000178817)
(-0.000356239 0 -0.000150472)
(-0.000344434 0 -0.000155632)
(-0.000331693 0 -0.000210374)
(-0.000329976 0 -0.000239322)
(-0.000329573 0 -0.000246439)
(-0.000269628 0 -0.000332552)
(-0.00029343 0 -0.000332447)
(-0.000268243 0 -0.000374008)
(-0.00024857 0 -0.000392621)
(-0.000167842 0 -0.00044857)
(-0.000186882 0 -0.000472892)
(-0.000120577 0 -0.000558053)
(-0.000132451 0 -0.000629982)
(-5.23604e-05 0 -0.000690754)
(-3.21684e-05 0 -0.0007047)
(2.3985e-05 0 -0.000713936)
(5.03553e-05 0 -0.000646187)
(2.60938e-07 0 -0.000460464)
(0.00023685 0 -0.000304514)
(0.000253136 0 0.000219154)
(0.000176857 0 0.000306304)
(0.000203918 0 0.000382301)
(0.000320652 0 0.000488598)
(-0.00035626 0 0.000542664)
(5.78443e-06 0 0.000700848)
(-7.45508e-14 0 1.3405e-13)
(-1.15491e-12 0 -2.86109e-13)
(7.39775e-14 0 -4.29923e-13)
(2.13297e-13 0 -5.2244e-13)
(3.4445e-13 0 -5.79268e-13)
(4.69519e-13 0 -6.10186e-13)
(5.90308e-13 0 -6.20586e-13)
(7.0669e-13 0 -6.13734e-13)
(8.17285e-13 0 -5.91941e-13)
(9.20297e-13 0 -5.57081e-13)
(1.01397e-12 0 -5.11045e-13)
(1.09671e-12 0 -4.55752e-13)
(1.16717e-12 0 -3.93219e-13)
(1.22453e-12 0 -3.25492e-13)
(1.26839e-12 0 -2.54574e-13)
(1.29887e-12 0 -1.82401e-13)
(1.31651e-12 0 -1.10665e-13)
(1.32197e-12 0 -4.0632e-14)
(1.3158e-12 0 2.67649e-14)
(1.29876e-12 0 9.06926e-14)
(1.27204e-12 0 1.50325e-13)
(1.23714e-12 0 2.04966e-13)
(1.19546e-12 0 2.54251e-13)
(1.14805e-12 0 2.98233e-13)
(1.09551e-12 0 3.37293e-13)
(1.03821e-12 0 3.71904e-13)
(9.76631e-13 0 4.0243e-13)
(9.11593e-13 0 4.29071e-13)
(8.44053e-13 0 4.51958e-13)
(7.74801e-13 0 4.71296e-13)
(7.04275e-13 0 4.87418e-13)
(6.32632e-13 0 5.0075e-13)
(5.59957e-13 0 5.11719e-13)
(4.86404e-13 0 5.20686e-13)
(4.1221e-13 0 5.27924e-13)
(3.37615e-13 0 5.33634e-13)
(2.62791e-13 0 5.37979e-13)
(1.87833e-13 0 5.41098e-13)
(1.12793e-13 0 5.43113e-13)
(3.7629e-14 0 5.44109e-13)
(-0.00015316 0 0.00059521)
(4.00059e-05 0 0.000578337)
(-0.000148927 0 0.000503136)
(-0.000297972 0 0.000385137)
(-0.000261717 0 0.000365242)
(-0.000373168 0 0.000239376)
(-0.000380646 0 0.000216714)
(-0.000464924 0 0.000120234)
(-0.000481555 0 9.95991e-05)
(-0.000520571 0 -5.88045e-06)
(-0.000562667 0 -5.76445e-05)
(-0.000588619 0 -9.29633e-05)
(-0.000597592 0 -0.000116962)
(-0.000610506 0 -9.76122e-05)
(-0.000617196 0 -9.33603e-05)
(-0.00063246 0 -8.58077e-05)
(-0.000668276 0 -2.67494e-05)
(-0.000685392 0 -1.89626e-05)
(-0.000689408 0 -1.58679e-06)
(-0.000693443 0 6.44527e-05)
(-0.000701372 0 8.10272e-05)
(-0.000698066 0 0.000101623)
(-0.000677753 0 0.000144756)
(-0.000660803 0 0.000148241)
(-0.000615875 0 0.00015053)
(-0.000564386 0 0.000174311)
(-0.000537486 0 0.000170535)
(-0.00051821 0 0.000166013)
(-0.000496827 0 0.000177865)
(-0.00048599 0 0.000189066)
(-0.000480727 0 0.000235339)
(-0.00047482 0 0.000334113)
(-0.000485404 0 0.000375037)
(-0.000486745 0 0.000399173)
(-0.000490433 0 0.000405444)
(-0.00049701 0 0.000398307)
(-0.000531943 0 0.000335483)
(-0.00054149 0 0.000278016)
(-0.00053788 0 0.000266679)
(-0.000564 0 0.000219182)
(-0.000595166 0 9.33196e-05)
(-0.000581968 0 2.30373e-05)
(-0.00058063 0 4.49781e-05)
(-0.000587677 0 -6.79509e-07)
(-0.000574029 0 -3.74702e-05)
(-0.00056028 0 -6.37706e-05)
(-0.000550447 0 -0.000106909)
(-0.000506391 0 -0.000236471)
(-0.000467706 0 -0.00020967)
(-0.000429908 0 -0.00018428)
(-0.000390778 0 -0.000180162)
(-0.000308625 0 -0.000261174)
(-0.000327602 0 -0.00018297)
(-0.000281034 0 -0.000214361)
(-0.000272105 0 -0.000187454)