/*--------------------------------*- C++ -*----------------------------------*\
  =========                 |
  \\      /  F ield         | OpenFOAM: The Open Source CFD Toolbox
   \\    /   O peration     | Website:  https://openfoam.org
    \\  /    A nd           | Version:  6
     \\/     M anipulation  |
\*---------------------------------------------------------------------------*/
FoamFile
{
    version     2.0;
    format      ascii;
    class       volScalarField;
    location    "810";
    object      alpha2Accumulation;
}
// * * * * * * * * * * * * * * * * * * * * * * * * * * * * * * * * * * * * * //

dimensions      [0 0 0 0 0 0 0];

internalField   nonuniform List<scalar> 
5964
(
0
0
0
0
0
0
0
0
0
0
0
0
0
0
0
0
0
0
0
0
0
0
0
0
0
0
0
0
0
0
0
0
0
0
0
0
0
0
0
0
0
0
0
0
0
0
0
0
0
0
0
0
0
0
0
0
0
0
0
0
0
0
0
0
0
0
0
0
0
0
0
0
0
0
0
0
0
0
0
0
0
0
0
0
0
0
0
0
2.80034e-06
0.0216599
0
0.0504384
0
0
0
0
0
0
0
0
0
0.000210748
0
1.39058e-06
0.046967
0
0
0
0
0
0
0
0
0
0
0
0
0
0
0
0
0
0
0
0
0
0
0
0
0
0
0
0
0
0
0
0
0
0
0
0
0
0
0
0
0
0
0
0
0
0
0
0
0
0
0
0
0
0
0
0
0
0
0
0
0
0
0
0
0
0
0
0
0.000435001
0
0
0
0
0
0
0
0
0
0
0
6.8323e-07
9.88897e-05
1.63932e-05
0
0
0
0
0
0
0
0
0
0
0
0
0
0
0
0
0
0
0
0
0
0
0
0
0
0
0
0
0
0
0
0
0
0
0
0
0
0
0
0
0
0
0
0
0
0
0
0
0
0
0
0
0
0
0
0
0
0
0
0
0
0
0
0
0
0
0
0
0
0
0.0442477
0
2.64179e-05
0
0.0449375
0
0
0
0.0528987
0
0
8.22679e-05
0.000258075
0
0
0
0
0
0
0
0
0
0
0
0
0
0
0
0
0
0
0
0
0
0
0
0
0
0
0
0
0
0
0
0
0
0
0
0
0
0
0
0
0
0
0
0
0
0
0
0
0
0
0
0
0
0
0
0
0
0
0
0
0
0
0
0
0
0
0
0
0
0
0
0.0128774
0
0
0
0.0480701
0
0
0
0
0
0
6.32161e-07
0.000339761
0
7.80253e-06
0
0
0
0
0
0
0
0
0
0
0
0
0
0
0
0
0
0
0
0
0
0
0
0
0
0
0
0
0
0
0
0
0
0
0
0
0
0
0
0
0
0
0
0
0
0
0
0
0
0
0
0
0
0
0
0
0
0
0
0
0
0
0
0
0
0
0.00127895
0
0
0.00123343
0.0438342
0
0.0477987
0.0462257
0
0.0509852
0
0
0.000450128
0
0
0.000186954
7.53996e-06
3.01374e-05
0
0
0
0
0
0
0
0
0
0
0
0
0
0
0
0
0
0
0
0
0
0
0
0
0
0
0
0
0
0
0
0
0
0
0
0
0
0
0
0
0
0
0
0
0
0
0
0
0
0
0
0
0
0
0
0
0
0
0
0
0
0
0
0
0
0
3.35309e-05
0
0
0
0.00285694
0
0.0498646
0.0508335
0
0.0486927
0
0.00266041
0.00701644
0
0.00107381
0.00130881
0.0545713
0
0
0
0
0
0
0
0
0
0
0
0
0
0
0
0
0
0
0
0
0
0
0
0
0
0
0
0
0
0
0
0
0
0
0
0
0
0
0
0
0
0
0
0
0
0
0
0
0
0
0
0
0
0
0
0
0
0
0
0
0
0
0
0
0
0
0
0
0
0.00215319
0
0.000658255
0.00313191
0.0476641
0
0
0.0314988
0
0
0
0.000593691
0.00163296
0
0.0564938
0
0
0
0
0
0
0
0
0
0
0
0
0
0
0
0
0
0
0
0
0
0
0
0
0
0
0
0
0
0
0
0
0
0
0
0
0
0
0
0
0
0
0
0
0
0
0
0
0
0
0
0
0
0
0
0
0
0
0
0
0
0
0
0
0
0
0
0
0
0
0
0
0.000526694
0.0422829
0
0.000638115
0
0.00748485
0
0.00014077
1.34511e-05
0
0.00386464
0.0505248
0
0
0
0
0
0
0
0
0
0
0
0
0
0
0
0
0
0
0
0
0
0
0
0
0
0
0
0
0
0
0
0
0
0
0
0
0
0
0
0
0
0
0
0
0
0
0
0
0
0
0
0
0
0
0
0
0
0
0
0
0
0
0
0
0
0
0
0
0
0
0
0
0
0.0120821
0
0
0.00232041
0.0420862
0
0
0.000101184
0.00183324
0.0560949
0.0544013
0
0
0
0
0
0
0
0
0
0
0
0
0
0
0
0
0
0
0
0
0
0
0
0
0
0
0
0
0
0
0
0
0
0
0
0
0
0
0
0
0
0
0
0
0
0
0
0
0
0
0
0
0
0
0
0
0
0
0
0
0
0
0
0
0
0
0
0
0
0
0
0
0
2.56966e-05
0.000240723
0
0
0.0169451
0.0004948
0.000421362
0.00407961
0.00039291
0.0558458
0.0356717
0
0
0
0
0
0
0
0
0
0
0
0
0
0
0
0
0
0
0
0
0
0
0
0
0
0
0
0
0
0
0
0
0
0
0
0
0
0
0
0
0
0
0
0
0
0
0
0
0
0
0
0
0
0
0
0
0
0
0
0
0
0
0
0
0
0
0
0
0
0
0
0
0
0.000543512
0.048182
0
0
0
0.00352359
0.000450218
0.00315389
0.00108099
0.00320353
0.0281562
0.0232221
0
0
0
0
0
0
0
0
0
0
0
0
0
0
0
0
0
0
0
0
0
0
0
0
0
0
0
0
0
0
0
0
0
0
0
0
0
0
0
0
0
0
0
0
0
0
0
0
0
0
0
0
0
0
0
0
0
0
0
0
0
0
0
0
0
0
0
0
0
0
0
0
0
1.68482e-05
0
0
0.0117208
0.0043256
0
0
0.00579726
0
0.0185353
0.0341448
0.00195743
0
0
0
0
0
0
0
0
0
0
0
0
0
0
0
0
0
0
0
0
0
0
0
0
0
0
0
0
0
0
0
0
0
0
0
0
0
0
0
0
0
0
0
0
0
0
0
0
0
0
0
0
0
0
0
0
0
0
0
0
0
0
0
0
0
0
0
0
0
0
0.0423005
0
0
0
0
0.0415596
0.00599978
0.00372297
0
0.00343382
3.56244e-05
0.00438185
0.00915067
0.0131179
0
0
0
0
0
0
0
0
0
0
0
0
0
0
0
0
0
0
0
0
0
0
0
0
0
0
0
0
0
0
0
0
0
0
0
0
0
0
0
0
0
0
0
0
0
0
0
0
0
0
0
0
0
0
0
0
0
0
0
0
0
0
0
0
0
0
0
0
0.0132083
0
0.0153735
4.83551e-05
0
0
0
0
0
7.01755e-05
0.00281465
3.41859e-05
0
0.000182809
0.00568595
0.00437728
0.000167644
0
0
0
0
0
0
0
0
0
0
0
0
0
0
0
0
0
0
0
0
0
0
0
0
0
0
0
0
0
0
0
0
0
0
0
0
0
0
0
0
0
0
0
0
0
0
0
0
0
0
0
0
0
0
0
0
0
0
0
0
0
0
0
0
0
0
0
0
0.0034961
0
0.0412127
0
0.000450537
0.045574
0
0
0.000857991
0
5.4643e-06
0
3.11851e-07
0.0048101
0.00783311
0.0113871
0
0
0
0
0
0
0
0
0
0
0
0
0
0
0
0
0
0
0
0
0
0
0
0
0
0
0
0
0
0
0
0
0
0
0
0
0
0
0
0
0
0
0
0
0
0
0
0
0
0
0
0
0
0
0
0
0
0
0
0
0
0
0
0
0
0
0
0
0.00024545
0
0
0.00111523
0
0.0453273
0
0
0.000811224
0
0
0
0.00729185
0.000665953
0.0178822
0.0298618
0.000321692
0
0
0
0
0
0
0
0
0
0
0
0
0
0
0
0
0
0
0
0
0
0
0
0
0
0
0
0
0
0
0
0
0
0
0
0
0
0
0
0
0
0
0
0
0
0
0
0
0
0
0
0
0
0
0
0
0
0
0
0
0
0
0
0
0
0
0
0
0
1.34322e-05
0.00178116
0.00245612
0.0368874
0
0
0
0
0.0531618
0
8.19498e-06
0.00134027
0.0163008
0.0166602
0.0324895
0.00916521
0
0
0
0
0
0
0
0
0
0
0
0
0
0
0
0
0
0
0
0
0
0
0
0
0
0
0
0
0
0
0
0
0
0
0
0
0
0
0
0
0
0
0
0
0
0
0
0
0
0
0
0
0
0
0
0
0
0
0
0
0
0
0
0
0
0
0
0
4.70021e-05
0.0350728
0
0.0156521
0
0
0
0.0419929
0.054745
0
0.00105418
0.00189705
0.0133938
0.0254664
0.0742451
0.0571116
0.0305745
0
0
0
0
0
0
0
0
0
0
0
0
0
0
0
0
0
0
0
0
0
0
0
0
0
0
0
0
0
0
0
0
0
0
0
0
0
0
0
0
0
0
0
0
0
0
0
0
0
0
0
0
0
0
0
0
0
0
0
0
0
0
0
0
0.00250074
0
0
0.0064302
0.00113067
0.00656308
0
0.00803904
0
0
0
0.0493877
0
4.53213e-05
0.00155612
0.0125675
0.0415715
0.0977362
0.0984666
0.0598385
0.010098
0
0
0
0
0
0
0
0
0
0
0
0
0
0
0
0
0
0
0
0
0
0
0
0
0
0
0
0
0
0
0
0
0
0
0
0
0
0
0
0
0
0
0
0
0
0
0
0
0
0
0
0
0
0
0
0
0
0
0
0
0
0
0.00044855
0.0132053
0
0.0050635
0.0194688
0.00168212
0.0174738
0.00279704
0.00110225
0.0356791
0
0.0441652
0
0
0.0061605
0.00719562
0.0242079
0.0369838
0.075464
0.150341
0.00714697
0.058375
0.0666578
0.0528216
0
0
0
0
0
0
0
0
0
0
0
0
0
0
0
0
0
0
0
0
0
0
0
0
0
0
0
0
0
0
0
0
0
0
0
0
0
0
0
0
0
0
0
0
0
0
0
0
0
0
0
0
0
0
0
0
0
0
0
0
0
3.73624e-05
0
0
0.000287523
0.0162815
0.0174366
0.000263645
0
0.0433249
0.0409903
0.0525807
0
3.6302e-06
0.00287631
0.0123317
0.0193967
0.0506971
0.0574661
0.109917
0.0544542
0.0748273
0.0695999
0.0793896
0.0820468
0.0945785
0.0745296
0
0
0
0
0
0
0
0
0
0
0
0
0
0
0
0
0
0
0
0
0
0
0
0
0
0
0
0
0
0
0
0
0
0
0
0
0
0
0
0
0
0
0
0
0
0
0
0
0
0
0
0
0
0
0
0
0
0
0
0
0.00273991
2.06576e-05
0.00244522
0.00181241
0.0148157
0.0115696
0.0415577
0.0488852
0.0564655
0
0.00640292
0.0141057
0.00673507
0.0212335
0.0804493
0.0999103
0.101212
0.0637695
0.0799804
0.0669493
0.0669848
0.101994
0.0747732
0.0695315
0.029247
0
0
0
0
0
0
0
0
0
0
0
0
0
0
0
0
0
0
0
0
0
0
0
0
0
0
0
0
0
0
0
0
0
0
0
0
0
0
0
0
0
0
0
0
0
0
0
0
0
0
0
0
0
0
0
0
0
0.00342798
0
0
0.0175097
0.000432491
0.0108222
0.00135901
0
0.00492262
0.0513984
6.64037e-06
0
0.00647509
0.0203377
0.0173987
0.0684036
0.0631971
0.111118
0.0650357
0.0788756
0.0667079
0.0590545
0.0842373
0.0736814
0.0689949
0.0383563
0.0605501
0.0503946
0
0
0
0
0
0
0
0
0
0
0
0
0
0
0
0
0
0
0
0
0
0
0
0
0
0
0
0
0
0
0
0
0
0
0
0
0
0
0
0
0
0
0
0
0
0
0
0
0
0
0
0
0
0
0
0.000933252
0
0.00734333
0
0
0.000325791
0.0242182
0.00440905
0.00472586
0
0.0533369
0
0.00130092
0.00829755
0.0337258
0.034698
0.0497273
0.0880088
0.00861983
0.0525489
0.0558082
0.0671487
0.0868152
0.0709516
0.047501
0.0225576
0.0552057
0.0526698
0.0572756
0.057169
0
0
0
0
0
0
0
0
0
0
0
0
0
0
0
0
0
0
0
0
0
0
0
0
0
0
0
0
0
0
0
0
0
0
0
0
0
0
0
0
0
0
0
0
0
0
0
0
0
0
0
0
0
0
0
0.00198434
0
0
0
0.000352688
0.00957216
0.0142748
0.00113921
0.0447103
0.0227322
0
0.0083023
0.0103647
0.038821
0.0569358
0.0882994
0.0889038
0.0641238
0.0834128
0.0448253
0.0192214
0.0179185
0.0138887
0.0908783
0.0388809
0.0774297
0.0730798
0.0535899
0.06521
0.0464173
0
0
0
0
0
0
0
0
0
0
0
0
0
0
0
0
0
0
0
0
0
0
0
0
0
0
0
0
0
0
0
0
0
0
0
0
0
0
0
0
0
0
0
0
0
0
0
0
0
0
0
0
0
0
0
0
0.000382493
0.0150807
0.000457952
0.00875049
0.000278261
0.000877076
0.0461224
0
0.00183111
0.00714357
0.0217986
0.0310134
0.040778
0.0534355
0.0686389
0.0500358
0.0462012
0.0506542
0.0389577
0.0387382
0.0401746
0.0369024
0.0479242
0.0118904
0.0176826
0.00935816
0.0709724
0.0364812
0.0164652
0
0
0
0
0
0
0
0
0
0
0
0
0
0
0
0
0
0
0
0
0
0
0
0
0
0
0
0
0
0
0
0
0
0
0
0
0
0
0
0
0
0
0
0
0
0
0
0
0
0
0
0
0
0.0121534
0
0
0
0.000620054
0.0101104
0
0
0.0496039
0
0.0139241
0.0123265
0.0217578
0.0277729
0.0380124
0.070026
0.0691957
0.0689416
0.00569683
0.00680222
0.00389196
0.0064984
0.00160899
0.00319125
0.0155887
0.0173524
0.0161769
0.0331521
0.0161834
0.0183521
0.0283523
0.00713556
0
0
0
0
0
0
0
0
0
0
0
0
0
0
0
0
0
0
0
0
0
0
0
0
0
0
0
0
0
0
0
0
0
0
0
0
0
0
0
0
0
0
0
0
0
0
0
0
0
0
0
0
0
0
0
0
0.00144423
0.0122479
0
0
0.0485211
0
0.00768965
0.0138293
0.01158
0.0489225
0.0330764
0.0572102
0.0566273
0.0526418
0.0508578
0.038891
0.0428468
0.0312301
0.0188854
0.0096193
0.0122102
0.0162822
0.00944521
0.0254078
0.0372998
0.0271499
0.015237
0.0192206
0.0139309
0
0
0
0
0
0
0
0
0
0
0
0
0
0
0
0
0
0
0
0
0
0
0
0
0
0
0
0
0
0
0
0
0
0
0
0
0
0
0
0
0
0
0
0
0
0
0
0
0
0
0.000279254
0.0147155
0.00039673
0.00940626
2.50703e-05
0.000666131
0.0148081
0.00117586
0
0
0
0.00445437
0.0253172
0.0379279
0.0520184
0.0231968
0.0642583
0.0521998
0.0709237
0.0438539
0.0101311
0.00306835
0.00346693
0.00784294
0.0208053
0.0119212
0.0092476
0.00956946
0.00764963
0.0198229
0.022783
0.0194887
0.0222458
0.0340765
0.00175784
0
0
0
0
0
0
0
0
0
0
0
0
0
0
0
0
0
0
0
0
0
0
0
0
0
0
0
0
0
0
0
0
0
0
0
0
0
0
0
0
0
0
0
0
0
0
0
0
0.00214043
0
0
0.00255179
0.00029239
8.60325e-05
0.000833472
0.0147829
0
0
0
0.00182831
0.00490457
0.0230406
0.0314684
0.0602445
0.0727713
0.0548748
0.0528792
0.0528011
0.0470003
0.0371547
0.0143825
0.00749753
0.00526988
0.00291566
0.00827397
0.0076632
0.00865357
0.0117249
0.0194239
0.022984
0.0218028
0.0141434
0.0208583
0.0169969
0
0
0
0
0
0
0
0
0
0
0
0
0
0
0
0
0
0
0
0
0
0
0
0
0
0
0
0
0
0
0
0
0
0
0
0
0
0
0
0
0
0
0
0
0
0
0
0
0
0
0
0
0.0100218
0.0119803
0.00107678
0.0229034
0
0
0
0.00522027
0.00785545
0.00439
0.0271262
0.0430307
0.0650568
0.0137887
0.0618498
0.0760824
0.0130596
0.019524
0.004907
0.00444724
0.00343444
0.000598543
0.011903
0.00514052
0.00675689
0.00716831
0.0235163
0.0304138
0.0336791
0.0372768
0.0225893
0.0379826
0.0156908
0
0
0
0
0
0
0
0
0
0
0
0
0
0
0
0
0
0
0
0
0
0
0
0
0
0
0
0
0
0
0
0
0
0
0
0
0
0
0
0
0
0
0
0
0
0
0
0
0
0
0
0.00107746
0.000478545
0.00138057
0.0271423
0.0163318
0.0503098
0
0.00139135
0.00598873
0.0137429
0.0133402
0.0281478
0.0655384
0.0739197
0.0160787
0.017179
0.0107552
0.00622753
0.00577818
0.00951709
0.005453
0.00353523
0.0072552
0.0153125
0.00167191
0.0188489
0.0134728
0.0152099
0.00491114
0.0151305
0.0196359
0.0252525
0.00480641
0
0
0
0
0
0
0
0
0
0
0
0
0
0
0
0
0
0
0
0
0
0
0
0
0
0
0
0
0
0
0
0
0
0
0
0
0
0
0
0
0
0
0
0
0
0
0
0.000142727
0.000145671
0
0
5.69475e-06
0.000844243
0.00234705
0.0768328
0.015466
0.0486545
0
0.00105216
0.0104249
0.0177356
0.0272022
0.0349145
0.0419957
0.046733
0.0157099
0.00953724
0.011226
0.00374884
0.00996345
0.0127085
0.00332265
0.00262426
0.00105793
0.0327929
0.0215239
0.00520082
0.0167018
0.0276626
0.00905555
0.0260423
0.0172395
0.0331983
0.00987411
0.00476417
0
0
0
0
0
0
0
0
0
0
0
0
0
0
0
0
0
0
0
0
0
0
0
0
0
0
0
0
0
0
0
0
0
0
0
0
0
0
0
0
0
0
0
0
0
0
0
0.0184646
0.0111073
0
0.000199714
0.00103609
0.0259194
0.00128149
0.0130641
0.048386
0
0.00182904
0.00225105
0.0174163
0.0263513
0.0475178
0.0591431
0.0460024
0.0191394
0.0157266
0.0084705
0.00146019
0.00197972
0.00277998
0.00363197
0.0150652
0.0118049
0.00676389
0.00658115
0.00300199
0.0199356
0.0263477
0.0346907
0.0302822
0.020937
0.018861
0.0307194
0.0224474
0
0
0
0
0
0
0
0
0
0
0
0
0
0
0
0
0
0
0
0
0
0
0
0
0
0
0
0
0
0
0
0
0
0
0
0
0
0
0
0
0
0
0
0
0
0
0
0.0181388
0.00668294
0
0.000470034
0.00132741
0.0358829
0.00909219
0.0019601
8.7616e-06
0
0.00210533
0.00607335
0.0125274
0.00478737
0.0130911
0.0263346
0.0167833
0.00429619
0.00584637
0.00749142
0.00981013
0.0150216
0.0152466
0.0210823
0.0256696
0.0211261
0.0098866
0.0280841
0.0230425
0.0260434
0.022282
0.0248621
0.0223955
0.0347444
0.0309623
0.039569
0.0434618
0.00736372
0
0
0
0
0
0
0
0
0
0
0
0
0
0
0
0
0
0
0
0
0
0
0
0
0
0
0
0
0
0
0
0
0
0
0
0
0
0
0
0
0
0
0
0
0
0
0.0301324
0
3.91709e-06
0.000740622
0.00154573
0.0360124
0.068634
0.00151778
0
0.00157684
0.00497847
0.00759585
0.0231828
0.0129389
0.00962884
0.0197332
0.00475578
0.0119459
0.0101398
0.0142003
0.0159828
0.0192121
0.0145053
0.00789987
0.00817876
0.0135406
0.0169702
0.0245252
0.0233109
0.0117402
0.0307458
0.0115532
0.0223546
0.012237
0.0280132
0.0454024
0.0351497
0.0141173
0
0
0
0
0
0
0
0
0
0
0
0
0
0
0
0
0
0
0
0
0
0
0
0
0
0
0
0
0
0
0
0
0
0
0
0
0
0
0
0
0
0
0
0
0
0
0.0247435
0.0136763
0.00021033
0.000979789
0.00170673
0.0371897
0.075785
0.00133393
0
0.00175977
0.00259331
0.00882653
0.0311488
0.0136005
0.02053
0.0195722
0.00433951
0.00261959
0.0240253
0.0148022
0.0220529
0.0122933
0.0106841
0.00781479
0.0261562
0.0586287
0.0459628
0.0594873
0.0375986
0.0125637
0.0210588
0.0188749
0.0421342
0.0688382
0.0464529
0.0321827
0.0197265
0.0259617
0.00476166
0
0
0
0
0
0
0
0
0
0
0
0
0
0
0
0
0
0
0
0
0
0
0
0
0
0
0
0
0
0
0
0
0
0
0
0
0
0
0
0
0
0
0
0
0
0
0.0188779
0.000455979
0.0011739
0.00184824
0.0382107
0.0689908
0.0483926
0.00011754
0.00162193
0.00639237
0.00733341
0.0271639
0.0219203
0.0193624
0.0151684
0.000984323
0.0121055
0.00917473
0.00843434
0.0102901
0.0206947
0.0145546
0.0321591
0.0437088
0.0392254
0.0262993
0.0507853
0.0263074
0.0225806
0.0445772
0.0484516
0.0488366
0.0358485
0.0321733
0.0478962
0.0443924
0.0220139
0.0258776
0
0
0
0
0
0
0
0
0
0
0
0
0
0
0
0
0
0
0
0
0
0
0
0
0
0
0
0
0
0
0
0
0
0
0
0
0
0
0
0
0
0
0
0
0
0
0.00140226
0.000665917
0.00137208
0.0240903
0.0393804
0.0701227
0.00147049
0.00230099
0.00778643
0.00893811
0.0366501
0.0260588
0.0101219
0.0169353
0.00507382
0.00554406
0.00913446
0.0262167
0.0337482
0.0213986
0.0359805
0.0273896
0.0311403
0.0389288
0.0195018
0.0183177
0.0230503
0.0202929
0.0313719
0.0716979
0.0289536
0.0164775
0.0311403
0.0527582
0.0636001
0.0320799
0.0394902
0.0184786
0
0
0
0
0
0
0
0
0
0
0
0
0
0
0
0
0
0
0
0
0
0
0
0
0
0
0
0
0
0
0
0
0
0
0
0
0
0
0
0
0
0
0
0
0
0
0.00953958
0.000821922
0.00141776
0.0271129
0.0417248
0.123014
0.00147884
0.000795453
0.016034
0.0175837
0.0388366
0.0526307
0.0352166
0.0233055
0.0175924
0.0225514
0.00548728
0.0400957
0.0407655
0.0389228
0.0326435
0.0494957
0.0527494
0.0332129
0.00976211
0.0180812
0.0403297
0.0550917
0.0546244
0.0693921
0.00156701
0.0358508
0.0711304
0.0578717
0.0731536
0.0352333
0.066813
0.0502429
0.022399
0
0
0
0
0
0
0
0
0
0
0
0
0
0
0
0
0
0
0
0
0
0
0
0
0
0
0
0
0
0
0
0
0
0
0
0
0
0
0
0
0
0
0
0
0
0.0189032
0.000931937
0.00182743
0.0289297
0.106475
0.0338003
0.00055739
0.0147193
0.0184086
0.0323375
0.0380451
0.0511749
0.0221929
0.0155415
0.0318034
0.0199461
0.021805
0.0156297
0.000722108
0.0244881
0.0208987
0.0209774
0.0180241
0.0343488
0.0573694
0.0542101
0.0646152
0.0727571
0.0648232
0.0487169
0.0251759
0.0491268
0.0738184
0.10662
0.0810089
0.0259411
0.024661
0.0631704
0.0174425
0
0
0
0
0
0
0
0
0
0
0
0
0
0
0
0
0
0
0
0
0
0
0
0
0
0
0
0
0
0
0
0
0
0
0
0
0
0
0
0
0
0
0
0.00244352
0
0.00492605
0.0021616
0.00150249
0.0282229
0.10983
0.00400419
0.0132608
0.0375744
0.0453868
0.044742
0.0410115
0.022107
0.0252473
0.0157716
0.0370067
0.0260563
0.023238
0.0308672
0.0586
0.067608
0.0354732
0.0467738
0.0563985
0.0956986
0.0597023
0.059348
0.0718649
0.0797226
0.0365463
0.0418435
0.0320985
0.0594775
0.0793279
0.0463346
0.0366558
0.0389926
0.0864072
0.0603159
0
0
0
0
0
0
0
0
0
0
0
0
0
0
0
0
0
0
0
0
0
0
0
0
0
0
0
0
0
0
0
0
0
0
0
0
0
0
0
0
0
0
0
0
0.0128142
0
0.00921702
0.000627859
0.00795812
0.0278744
0.0504598
0.00401187
0.02729
0.037545
0.0358474
0.0498754
0.0434679
0.0341385
0.0609833
0.0117292
0.0203703
0.0182339
0.0148463
0.0409381
0.0543602
0.065484
0.0465918
0.045777
0.0397385
0.0354529
0.0346154
0.034472
0.0353355
0.0270583
0.0465014
0.0421885
0.0654807
0.0393437
0.0343251
0.0316098
0.0194546
0.0344743
0.0464797
0.0496153
0.0142788
0
0
0
0
0
0
0
0
0
0
0
0
0
0
0
0
0
0
0
0
0
0
0
0
0
0
0
0
0
0
0
0
0
0
0
0
0
0
0
0
8.15939e-05
0
0
0.00310018
0
0.015005
0.000236478
0.0358135
0.016736
0.0480318
0.0856139
0.0312018
0.0431458
0.0385137
0.0453339
0.0323479
0.0406481
0.0570505
0.0237153
0.028702
0.0604985
0.0504418
0.0537144
0.0380431
0.0322554
0.0579852
0.064443
0.0692949
0.0260221
0.0382939
0.0290802
0.0311479
0.0279395
0.00090406
0.0338454
0.0520024
0.0296613
0.0327868
0.0323084
0.0196706
0.0309606
0.0356684
0.0399737
0.0460334
0
0
0
0
0
0
0
0
0
0
0
0
0
0
0
0
0
0
0
0
0
0
0
0
0
0
0
0
0
0
0
0
0
0
0
0
0
0
0
0
0
0
0
0
8.57246e-05
0.0178883
0
0.000913706
0.013096
0.0316037
0.107418
0.0351765
0.0367594
0.035611
0.0339446
0.062361
0.0512009
0.0349895
0.0114042
0.0196777
0.0527724
0.0616687
0.0313577
0.0335584
0.0340814
0.0317572
0.0269211
0.0334844
0.0329593
0.0174779
0.0288014
0.0266664
0.0304736
0.000125611
0.0387001
0.0271552
0.041334
0.0276664
0.0295391
0.0163641
0.00885866
0.0387731
0.0496014
0.0223702
0.00259538
0
0
0
0
0
0
0
0
0
0
0
0
0
0
0
0
0
0
0
0
0
0
0
0
0
0
0
0
0
0
0
0
0
0
0
0
0
0
0
0
0
0
0
0
0.0230307
0
0.00130588
0.00282276
0.0471565
0.0621967
0.094829
0.038776
0.0428382
0.0406751
0.0729889
0.0345735
0.0333893
0.0238141
0.0256428
0.0544183
0.0305442
0.0334164
0.0309011
0.0240338
0.0317985
0.0290032
0.0289975
0.0151832
0.0197399
0.0160173
0.0198418
0.0303165
0.020533
0.0398632
0.032973
0.0272477
0.0239118
0.0248171
0.0320925
0.000677338
0.0144396
0.0296319
0.0442072
0
0
0
0
0
0
0
0
0
0
0
0
0
0
0
0
0
0
0
0
0
0
0
0
0
0
0
0
0
0
0
0
0
0
0
0
0
0
0
0
0
0
0
0
0
0.0225238
0
0.000358933
0.0172588
0.0118565
0.0833337
0.120007
0.0395296
0.0459434
0.039265
0.0558851
0.0355766
0.0213579
0.0464543
0.0496316
0.0632289
0.0312175
0.0381028
0.0268684
0.0174184
0.0328675
0.0182876
0.00150204
0.00664651
0.0221714
0.0178238
0.0242992
0.0279257
0.0350048
0.0285012
0.0242395
0.000902252
0.0295445
0.0220075
0.0159545
0.000107704
0.02252
0.0269999
0.0129033
0.0280885
0
0
0
0
0
0
0
0
0
0
0
0
0
0
0
0
0
0
0
0
0
0
0
0
0
0
0
0
0
0
0
0
0
0
0
0
0
0
0
0
0
0
0
0
0.0241875
0.0271745
0.00753139
0.0007602
0.0448668
0.0771377
0.0793892
0.0777737
0.0651911
0.0262159
0.0176932
0.015211
0.0199283
0.045204
0.0324783
0.0183533
0.0297748
0.0244332
0.0298999
0.0163174
0.0271213
0.0207109
0.0140488
0.0115497
0.0246014
0.00881404
0.0151
0.0123203
0.0402969
0.0249498
0.0448378
0.0230025
0
0.0161555
0.0166485
0.000115262
0.00174991
0.0202086
0
0
0
0
0
0
0
0
0
0
0
0
0
0
0
0
0
0
0
0
0
0
0
0
0
0
0
0
0
0
0
0
0
0
0
0
0
0
0
0
0
0
0
0
0
0
0.00177588
0.0322914
0.00249147
0.0175698
0.0251651
0.0349178
0.0344434
0.130173
0.0631098
0.0476886
0.0327875
0.0629838
0.0701108
0.0709255
0.0168983
0.023381
0.019612
0.016539
0.0246406
0.0239108
0.018194
0.000960496
0.014178
0.0130033
0.000615996
0.015236
0.0206141
0.0092005
0
0
0.00567087
0.0139481
0
0.0255428
0.0136781
0
0
0.0185006
0.00319141
0
0
0
0
0
0
0
0
0
0
0
0
0
0
0
0
0
0
0
0
0
0
0
0
0
0
0
0
0
0
0
0
0
0
0
0
0
0
0
0
0
0
0
0
0
0.0297447
0.0246121
0.0634326
0.0624222
0.0330125
0.0477384
0.0921503
0.0971455
0.0880829
0.0641832
0.0767822
0.0799411
0.0377994
0.0371975
0.0183865
0.0434295
0.0103389
0.0162222
0.0144955
0.00333972
0.00649795
0.000176195
0
0
2.49202e-05
0.0091963
0.010397
0
0
0
0
0.00408167
0
0
0.0181259
0
0
0
0
0
0
0
0
0
0
0
0
0
0
0
0
0
0
0
0
0
0
0
0
0
0
0
0
0
0
0
0
0
0
0
0
0
0
0
0
0
0
0
0
0
0
0
0
0.000258153
0.0269954
0.0319916
0.042357
0.0604675
0.0729071
0.0725018
0.0770954
0.0919539
0.117607
0.0901519
0.0366828
0.0353915
0.0358212
0.0313515
0.0127994
0.0025858
0.00155343
0
0
0.00820473
0
0.00839179
0.0125937
0
0
0.00511856
0
0
0
0
0
0
0
0
0
0.00344139
0
0
0.000129832
0
9.43264e-06
0
0
0
0
0
0
0
0
0
0
0
0
0
0
0
0
0
0
0
0
0
0
0
0
0
0
0
0
0
0
0
0
0
0
0
0
0
0
0
0
0
0.0262253
0.000464879
0.0245081
0.0280644
0.0287281
0.0413341
0.0434743
0.0596126
0.0394934
0.0412402
0.0611022
0.0451785
0.0383021
0.0390984
0.0379131
0.0266238
0
0
0.00211678
0.00233546
0
0
0
0
0.000933896
0.00020666
0
0
0.00319104
0.00210415
0.000331101
0
0
0
0
0
0.0117614
0.000118818
0.0206498
0.0232019
0
0
0
0
0
0
0
0
0
0
0
0
0
0
0
0
0
0
0
0
0
0
0
0
0
0
0
0
0
0
0
0
0
0
0
0
0
0
0
0
0
0
0
0
0.0220185
0.00219925
0
0.0275385
0.0392674
0.038462
0.0382914
0.044782
0.0382882
0.0319153
0.0348713
0.0348043
0.0282409
0.0257869
0.025995
0.0226745
0
0.00555705
0.0158504
0.00226553
0
0.000556711
0
0
0
0
3.01133e-05
0
0
0
0
0
0.0271043
0
0.000422358
0
0
0
0.0292966
0.0144187
0.00123271
0
0
0
0
0
0
0
0
0
0
0
0
0
0
0
0
0
0
0
0
0
0
0
0
0
0
0
0
0
0
0
0
0
0
0
0
0
0
0
0
0
0
0
0.0174766
0.00352426
0
0.00885492
0.0260286
0.0359169
0.0263822
0.0361451
0.0268593
0.0256992
0.0264672
0.0423099
0.0241519
0.0236201
0.0173409
0.0174323
0
0
0.00114807
0.00267739
0.00467101
0.000505918
6.39548e-05
0
0
0
0
0
0
0.0196677
0
0.0381681
0.0423168
0.0118169
0
0
0
0.0411074
0.0326287
0.00048605
0.00105387
0
0
0
0
0
0
0
0
0
0
0
0
0
0
0
0
0
0
0
0
0
0
0
0
0
0
0
0
0
0
0
0
0
0
0
0
0
0
0
0
0
0
0
0.000748098
0.0070116
0
0
0.0205266
0.0226301
0.00879428
0.0287353
0.0212302
0.0212305
0.021285
0.0335677
0.0214392
0.0142995
0.021298
0.0102475
0
0
0
0
6.27946e-06
0.00105859
0
0
0
8.21627e-05
0
0
0
0
0
0.000481409
0.0441213
0
0
0
0
0.0308826
0.0164176
0
0
0
0
0
0
0
0
0
0
0
0
0
0
0
0
0
0
0
0
0
0
0
0
0
0
0
0
0
0
0
0
0
0
0
0
0
0
0
0
0
0
0
0
0
0.00323224
0.000666573
0
0.0406383
0
0.00102962
0.000497545
0.0333526
0.0164401
0.0194714
0.00922935
0.00529775
0.0386852
0.0127274
0.00778013
0.00663782
0
0.00767061
0
2.16679e-06
0
0
1.57466e-06
5.14573e-06
0
0
0.000239815
0
0
0
0.00723666
0
0.0385636
0.0015429
0
0
0
0
0
0
0
0
0
0
0
0
0
0
0
0
0
0
0
0
0
0
0
0
0
0
0
0
0
0
0
0
0
0
0
0
0
0
0
0
0
0
0
0
0
0
0
0
0
0.0118645
0.0107073
0
0.0118087
0.0312338
0
0
0
0.0150413
0.00756805
0.0146858
0.0131385
0
0.0132015
0
0
0
0
0
0
1.52626e-05
0
2.42357e-05
0
2.24096e-06
5.19278e-07
8.92557e-05
0.000906859
0
0
0
0
0
0.000150364
0
0
0
0
5.68245e-05
0
0.00164695
0.0179726
0
0
0
0
0
0
0
0
0
0
0
0
0
0
0
0
0
0
0
0
0
0
0
0
0
0
0
0
0
0
0
0
0
0
0
0
0
0
0
0
0
0
0.00100455
0.0131384
0
0
0.000576077
0
0
0
0
0.0175133
0.011258
0
0.00369949
0.0164546
0.0112302
0.0076936
0
0.00368019
5.7939e-05
1.33768e-05
0
0
2.90684e-05
0.00610256
1.96202e-05
8.89579e-05
0.00012103
0.00028586
0.00292575
0
1.6223e-05
0
0.0230218
0
0.000555192
0.00687268
0.00161325
0.00429515
0.000170579
0.00019795
6.42712e-05
0
6.24282e-06
0
0
0
0
0
0
0
0
0
0
0
0
0
0
0
0
0
0
0
0
0
0
0
0
0
0
0
0
0
0
0
0
0
0
0
0
0
0
0
0
0
0
0
0
0.000547875
0
0.000551934
0
0
0
0.000997726
0.0101251
0
0
0.0115587
0.0116192
7.00933e-05
0.0007185
0.000348424
0.00288704
0
0
0
0
0.000147657
0.000441829
0.00085774
0.000565212
7.76435e-07
0.000986912
6.55218e-06
1.67126e-05
0
0.000409245
0.0042759
1.57646e-05
0.000103272
0.000240901
0.000417683
0.000238713
0.0234571
0.0101376
0.012203
0.00167789
0.00120089
0
0
0
0
0
0
0
0
0
0
0
0
0
0
0
0
0
0
0
0
0
0
0
0
0
0
0
0
0
0
0
0
0
0
0
0
0
0.000549152
0
0
0.0134054
0.00541964
0.00527252
0.00472905
0.00019379
0
0.00984548
0.00457488
0.0261288
0.00820995
0.0221355
0.00133341
0.00306694
0.000814433
0.0018088
0.00187344
0
0.016294
0
0.000476689
0.00541637
0.0402579
0
0.000151302
6.23791e-05
0.00139809
0.000904955
0.000691219
0.00124762
8.63955e-05
0.00019134
0.0012937
0.0186064
0.0173835
0.018384
0.0446762
0.0186877
0.0173336
0.0503546
0.0534792
0.000575457
0.0158983
0.0375054
0.00119701
0
0
0
0
0
0
0
0
0
0
0
0
0
0
0
0
0
0
0
0
0
0
0
0
0
0
0
0
0
0
0
0
0
0
0
0
0
0.916678
1
1
1
1
1
1
1
1
1
1
1
1
1
1
1
1
1
1
1
1
1
1
1
1
1
1
1
1
1
1
1
1
1
1
1
1
1
1
1
0.905727
0.704259
0.541765
0.38903
0.318213
0.173154
0.137131
0.000877643
0
0
0
0
0
0
0
0
0
0
0
0
0
0
0
0
0
0
0
0
0
0
0
0
0
0
0
0
0
0
0
0
0
0
0
0
1
1
1
1
1
1
1
1
1
1
1
1
1
1
1
1
1
1
1
1
1
1
1
1
1
1
1
1
1
1
1
1
1
1
1
1
1
1
1
1
1
1
1
0.790919
0.577165
0.392506
0.261298
0.0751488
7.12026e-07
0
0
0
0
0
0
0
0
0
0
0
0
0
0
0
0
0
0
0
0
0
0
0
0
0
0
0
0
0
0
0
0
0
0
0
1
1
1
1
1
1
1
1
1
1
1
1
1
1
1
1
1
1
1
1
1
1
1
1
1
1
1
1
1
1
1
1
1
1
1
1
1
1
1
1
1
1
1
1
1
1
1
1
1
1
0.978093
0.948515
0.929549
0.915518
0.853439
0.850763
0.832287
0.80371
0.773502
0.736247
0.706452
0.70424
0.67237
0.651809
0.616014
0.592391
0.572096
0.55663
0.517657
0.506312
0.477546
0.441865
0.443714
0.379879
0.378251
0.271081
0.280055
0.237278
0.217246
0.171531
0.0481544
0
0
0
1
1
1
1
1
1
1
1
1
1
1
1
1
1
1
1
1
1
1
1
1
1
1
1
1
1
1
1
1
1
1
1
1
1
1
1
1
1
1
1
1
1
1
1
1
1
1
1
1
1
1
1
1
1
1
1
1
1
1
1
1
1
1
1
1
1
1
1
1
1
1
1
1
1
1
1
1
1
1
1
0.977467
0.860964
0.818186
0.878909
1
1
1
1
1
1
1
1
1
1
1
1
1
1
1
1
1
1
1
1
1
1
1
1
1
1
1
1
1
1
1
1
1
1
1
1
1
1
1
1
1
1
1
1
1
1
1
1
1
1
1
1
1
1
1
1
1
1
1
1
1
1
1
1
1
1
1
1
1
1
1
1
1
1
1
1
1
1
1
1
1
1
1
1
0.968768
1
1
1
1
1
1
1
1
1
1
1
1
1
1
1
1
1
1
1
1
1
1
1
1
1
1
1
1
1
1
1
1
1
1
1
1
1
1
1
1
1
1
1
1
1
1
1
1
1
1
1
1
1
1
1
1
1
1
1
1
1
1
1
1
1
1
1
1
1
1
1
1
1
1
1
1
1
1
1
1
0.907642
0.923812
1
0.212036
0.046268
0.0102085
0.00495871
0.00122894
0
0
0.0021766
0
0.00116804
0.00240981
0.00482963
0.0119454
0.0119977
0.0159408
0.0205729
0.0258704
0.0309175
0.0473801
0.0648955
0.0869875
0.103472
0.123154
0.14109
0.196736
0.228073
0.263729
0.314859
0.320256
0.283086
0.245045
0.236702
0.193798
0.161531
0.144251
0.130049
0.128372
0.11542
0.11969
0.11455
0.100646
0.0950966
0.0864723
0.0675212
0.0558487
0.0438696
0.0333771
0.0293875
0.0209439
0.0189329
0.0158159
0.0150633
0.0102988
0.0120225
0.0119606
0.0102855
0.00660667
0.00494619
0.00665439
0.0049512
0.00919996
0.0108785
0.0123475
0.0126166
0.00581316
0.00517541
0.00805208
0.00806637
0.0135014
0.0217687
0.0179495
0.0205953
0.0205781
0.0278903
0.0398757
0.0697583
0.0901435
0.0975932
0.102309
0.125542
0.163494
0.215059
0.26679
0.361858
0
0
0
0
0
0
0
0
0
0
0
0
0
0
0
0
0
0
0
0
0
0
0
0
0
0
0
0
0
0
0
0
0
0
0
0
0
0
0
0
0
0
0
0
0
0
0
0
0
0
0
0
0
0
0
0
0
0
0
0
0
0
0
0
0
0
0
0
0
0
0
0
0
0
0
0
0
0
0
0
0
0
0
0
0
0
0
0
0
0
0
0
0
0
0
0
0
0
0
0
0
0
0
0
0
0
0
0
0
0
0
0
0
0
0
0
0
0
0
0
0
0
0
0
0
0
0
0
0
0
0
0
0
0
0
0
0
0
0
0
0
0
0
0
0
0
0
0
0
0
0
0
0
0
0
0
0
0
0
0
0
0
0
0
0
0
0
0
0
0
0
0
0
0
0
0
0
0
0
0
0
0
0
0
0
0
0
0
0
0
0
0
0
0
0
0
0
0
0
0
0
0
0
0
0
0
0
0
0
0
0
0
0
0
0
0
0
0
0
0
0
0
0
0
0
0
0
0
0
0
0
0
0
0
0
0
0
0
0
0
0
0
0
0
0
0
0
0
0
0
0
0
)
;

boundaryField
{
    hot
    {
        type            zeroGradient;
    }
    hotTop
    {
        type            zeroGradient;
    }
    cold
    {
        type            zeroGradient;
    }
    coldTop
    {
        type            zeroGradient;
    }
    top
    {
        type            zeroGradient;
    }
    btm
    {
        type            zeroGradient;
    }
    frontAndBack
    {
        type            empty;
    }
}


// ************************************************************************* //
